/*--------------------------------*- C++ -*----------------------------------*\
  =========                 |
  \\      /  F ield         | OpenFOAM: The Open Source CFD Toolbox
   \\    /   O peration     | Website:  https://openfoam.org
    \\  /    A nd           | Version:  10
     \\/     M anipulation  |
\*---------------------------------------------------------------------------*/
FoamFile
{
    format      ascii;
    class       volScalarField;
    location    "400";
    object      k;
}
// * * * * * * * * * * * * * * * * * * * * * * * * * * * * * * * * * * * * * //

dimensions      [0 2 -2 0 0 0 0];

internalField   nonuniform List<scalar> 
6820
(
0.318932
0.614648
0.847398
0.983382
1.04837
1.06929
1.06479
1.04656
1.02179
0.994702
0.967631
0.941776
0.91769
0.895558
0.875368
0.857013
0.840346
0.825204
0.811433
0.798886
0.787433
0.776957
0.767357
0.758543
0.750439
0.742975
0.736094
0.729745
0.723868
0.718527
0.713052
0.710492
0.695912
0.838905
1.45738
1.53058
1.40687
1.25036
1.11087
0.996118
0.903247
0.827898
0.766319
0.715551
0.673419
0.638178
0.608524
0.583445
0.562138
0.543958
0.528392
0.515016
0.503492
0.493531
0.484907
0.477417
0.470905
0.465224
0.460268
0.455928
0.45213
0.448794
0.445869
0.443287
0.441188
0.438984
0.379894
0.662261
0.793338
0.827969
0.818174
0.790385
0.756359
0.721144
0.686863
0.654398
0.624081
0.596014
0.570168
0.54645
0.524736
0.504887
0.486758
0.470208
0.4551
0.441308
0.428713
0.417207
0.406691
0.397075
0.388276
0.380222
0.372843
0.366082
0.359881
0.354193
0.348971
0.344191
0.339764
0.246132
0.339299
0.411874
0.458877
0.485691
0.498861
0.503261
0.502126
0.497496
0.490658
0.482434
0.473376
0.463866
0.45417
0.444476
0.434916
0.42558
0.41653
0.407807
0.399434
0.391425
0.383783
0.376506
0.369588
0.363019
0.356788
0.350881
0.345286
0.339987
0.334972
0.330225
0.325737
0.321482
0.216724
0.253408
0.285795
0.312238
0.332446
0.347113
0.357284
0.363989
0.368068
0.370162
0.370747
0.370181
0.368735
0.366621
0.364002
0.361007
0.357739
0.354279
0.350691
0.347027
0.343329
0.339629
0.335952
0.332319
0.328744
0.325241
0.321819
0.318483
0.315238
0.312089
0.309035
0.30608
0.303222
0.206699
0.223748
0.239977
0.25441
0.266677
0.276729
0.284758
0.291054
0.295905
0.299562
0.302234
0.304094
0.305282
0.305916
0.306089
0.305883
0.305363
0.304585
0.303595
0.302434
0.301134
0.299724
0.298227
0.296664
0.295053
0.293406
0.291738
0.290057
0.288374
0.286694
0.285025
0.283371
0.281738
0.202775
0.21144
0.220459
0.228905
0.236458
0.243004
0.24857
0.253248
0.257145
0.260363
0.262993
0.265118
0.266805
0.268115
0.269101
0.269806
0.270268
0.27052
0.270592
0.270508
0.27029
0.269958
0.269527
0.269012
0.268426
0.26778
0.267085
0.266348
0.265577
0.26478
0.263961
0.263126
0.262281
0.201168
0.205681
0.210949
0.216184
0.221058
0.225433
0.229288
0.23265
0.235565
0.238078
0.240232
0.242069
0.243625
0.244933
0.246021
0.246914
0.247635
0.248204
0.248638
0.248952
0.249161
0.249276
0.249308
0.249267
0.249161
0.248999
0.248788
0.248533
0.24824
0.247915
0.247562
0.247185
0.246789
0.200484
0.202807
0.20591
0.209235
0.212477
0.215487
0.218214
0.220655
0.222826
0.224746
0.226438
0.227924
0.229224
0.230357
0.231339
0.232186
0.232911
0.233527
0.234044
0.234473
0.234823
0.235101
0.235314
0.235469
0.235573
0.235629
0.235644
0.235622
0.235567
0.235482
0.235371
0.235236
0.235083
0.200184
0.201339
0.203129
0.205229
0.207399
0.209494
0.211449
0.213243
0.214871
0.216341
0.217662
0.218844
0.2199
0.220841
0.221675
0.222414
0.223066
0.223638
0.224138
0.224572
0.224946
0.225267
0.225537
0.225764
0.225949
0.226097
0.226212
0.226297
0.226355
0.226388
0.226399
0.226391
0.226366
0.200051
0.200587
0.201577
0.202865
0.204292
0.20574
0.207139
0.208458
0.209682
0.210808
0.211838
0.212775
0.213625
0.214394
0.215088
0.215713
0.216274
0.216777
0.217226
0.217626
0.217981
0.218295
0.21857
0.218811
0.219021
0.219201
0.219356
0.219486
0.219594
0.219683
0.219754
0.21981
0.219851
0.199992
0.200207
0.200716
0.201467
0.202372
0.203345
0.204328
0.205286
0.206198
0.207055
0.207852
0.208589
0.209268
0.209891
0.210461
0.210981
0.211455
0.211885
0.212276
0.212629
0.212949
0.213236
0.213495
0.213727
0.213934
0.214119
0.214283
0.214428
0.214556
0.214668
0.214766
0.214852
0.214925
0.199966
0.200017
0.200246
0.200651
0.201192
0.201817
0.202483
0.203159
0.203823
0.204462
0.20507
0.205643
0.206178
0.206676
0.207138
0.207565
0.207958
0.20832
0.208652
0.208957
0.209236
0.209491
0.209724
0.209936
0.210129
0.210304
0.210463
0.210608
0.210739
0.210858
0.210965
0.211063
0.211151
0.199954
0.199923
0.199995
0.200184
0.200479
0.200853
0.20128
0.201735
0.2022
0.202663
0.203114
0.203547
0.20396
0.20435
0.204717
0.205061
0.205382
0.20568
0.205958
0.206215
0.206453
0.206673
0.206877
0.207064
0.207238
0.207397
0.207545
0.207681
0.207806
0.207922
0.20803
0.208129
0.208222
0.199949
0.199878
0.199865
0.199924
0.200058
0.200258
0.200508
0.200794
0.201101
0.201419
0.201739
0.202055
0.202363
0.20266
0.202944
0.203213
0.203468
0.203709
0.203935
0.204147
0.204345
0.204531
0.204704
0.204866
0.205017
0.205158
0.205289
0.205413
0.205528
0.205636
0.205738
0.205834
0.205924
0.199947
0.199857
0.199798
0.199783
0.199817
0.199899
0.200025
0.200184
0.200369
0.200572
0.200784
0.201002
0.20122
0.201436
0.201646
0.201849
0.202045
0.202232
0.202411
0.20258
0.202741
0.202893
0.203036
0.203172
0.2033
0.203421
0.203535
0.203643
0.203746
0.203843
0.203936
0.204024
0.204109
0.199947
0.199847
0.199765
0.199708
0.199683
0.19969
0.19973
0.1998
0.199893
0.200006
0.200133
0.20027
0.200413
0.200558
0.200705
0.20085
0.200993
0.201132
0.201267
0.201397
0.201522
0.201642
0.201756
0.201866
0.201971
0.202071
0.202167
0.202259
0.202348
0.202433
0.202515
0.202594
0.20267
0.199946
0.199843
0.19975
0.19967
0.19961
0.199572
0.199557
0.199564
0.199592
0.199638
0.199699
0.199771
0.199853
0.199941
0.200033
0.200128
0.200224
0.20032
0.200416
0.20051
0.200602
0.200692
0.200779
0.200864
0.200947
0.201027
0.201105
0.20118
0.201254
0.201325
0.201396
0.201464
0.201531
0.199946
0.199841
0.199742
0.199651
0.199572
0.199507
0.199458
0.199425
0.199408
0.199406
0.199417
0.199441
0.199474
0.199515
0.199563
0.199616
0.199672
0.199732
0.199792
0.199854
0.199917
0.199979
0.200042
0.200104
0.200165
0.200226
0.200286
0.200345
0.200404
0.200463
0.200521
0.200579
0.200636
0.199946
0.19984
0.199738
0.199642
0.199553
0.199473
0.199403
0.199345
0.199298
0.199264
0.199241
0.199228
0.199225
0.19923
0.199243
0.199262
0.199286
0.199314
0.199345
0.19938
0.199416
0.199455
0.199495
0.199536
0.199578
0.199621
0.199665
0.199709
0.199755
0.1998
0.199847
0.199894
0.199941
0.199946
0.19984
0.199737
0.199638
0.199543
0.199455
0.199373
0.1993
0.199235
0.19918
0.199133
0.199096
0.199067
0.199046
0.199032
0.199024
0.199023
0.199026
0.199034
0.199046
0.199061
0.199079
0.1991
0.199124
0.199149
0.199177
0.199206
0.199237
0.19927
0.199304
0.19934
0.199377
0.199415
0.199946
0.19984
0.199736
0.199635
0.199538
0.199445
0.199358
0.199276
0.1992
0.199132
0.199071
0.199017
0.198971
0.198931
0.198899
0.198872
0.198852
0.198837
0.198826
0.198821
0.198819
0.198822
0.198828
0.198837
0.198849
0.198864
0.198881
0.198901
0.198923
0.198948
0.198974
0.199003
0.199033
0.199946
0.199839
0.199735
0.199634
0.199536
0.199441
0.199349
0.199263
0.199182
0.199106
0.199036
0.198973
0.198916
0.198865
0.19882
0.198781
0.198748
0.198721
0.198698
0.198681
0.198668
0.198659
0.198654
0.198653
0.198655
0.19866
0.198669
0.198681
0.198695
0.198712
0.198732
0.198753
0.198777
0.199946
0.199839
0.199735
0.199633
0.199534
0.199438
0.199345
0.199257
0.199173
0.199093
0.19902
0.198951
0.198889
0.198832
0.198781
0.198736
0.198697
0.198662
0.198633
0.198609
0.198589
0.198574
0.198563
0.198556
0.198553
0.198553
0.198556
0.198562
0.198572
0.198584
0.198599
0.198617
0.198636
0.199946
0.199839
0.199735
0.199633
0.199534
0.199437
0.199344
0.199255
0.199171
0.199091
0.199016
0.198948
0.198884
0.198827
0.198775
0.198729
0.198688
0.198653
0.198623
0.198598
0.198577
0.198561
0.198548
0.19854
0.198535
0.198534
0.198536
0.198541
0.198549
0.19856
0.198573
0.198589
0.198607
0.199946
0.199839
0.199735
0.199633
0.199534
0.199438
0.199346
0.199258
0.199176
0.199098
0.199027
0.198962
0.198902
0.198849
0.198802
0.198761
0.198725
0.198694
0.198669
0.198648
0.198632
0.19862
0.198612
0.198607
0.198605
0.198607
0.198612
0.198619
0.19863
0.198642
0.198657
0.198674
0.198692
0.199946
0.199839
0.199735
0.199634
0.199536
0.199441
0.199352
0.199269
0.199192
0.199121
0.199057
0.199001
0.198952
0.198909
0.198873
0.198843
0.198818
0.198799
0.198785
0.198775
0.198769
0.198767
0.198768
0.198772
0.198779
0.198788
0.1988
0.198813
0.198829
0.198847
0.198866
0.198886
0.198908
0.199946
0.19984
0.199736
0.199636
0.199541
0.199451
0.199369
0.199294
0.199228
0.199171
0.199123
0.199083
0.199052
0.199028
0.199011
0.199001
0.198995
0.198995
0.198999
0.199007
0.199018
0.199032
0.199048
0.199065
0.199085
0.199106
0.199128
0.199152
0.199176
0.199202
0.199228
0.199255
0.199282
0.199946
0.199841
0.199739
0.199643
0.199555
0.199476
0.199407
0.199351
0.199307
0.199274
0.199253
0.199243
0.199241
0.199248
0.199262
0.199281
0.199305
0.199332
0.199363
0.199396
0.19943
0.199465
0.199501
0.199537
0.199574
0.19961
0.199646
0.199682
0.199718
0.199753
0.199788
0.199822
0.199855
0.199947
0.199843
0.199747
0.199661
0.199588
0.199532
0.199494
0.199473
0.199469
0.199481
0.199506
0.199543
0.199589
0.199641
0.199699
0.199761
0.199825
0.199889
0.199955
0.200019
0.200083
0.200145
0.200205
0.200263
0.200319
0.200373
0.200425
0.200475
0.200523
0.200568
0.200612
0.200654
0.200694
0.199948
0.19985
0.199767
0.199706
0.199671
0.199664
0.199685
0.199732
0.199801
0.199887
0.199986
0.200095
0.20021
0.200327
0.200446
0.200563
0.200677
0.200788
0.200895
0.200997
0.201094
0.201185
0.201272
0.201353
0.201429
0.201501
0.201568
0.201631
0.20169
0.201745
0.201796
0.201844
0.201889
0.19995
0.199869
0.199823
0.199822
0.199871
0.199967
0.200104
0.200272
0.200462
0.200666
0.200877
0.201089
0.201297
0.201499
0.201693
0.201876
0.20205
0.202212
0.202363
0.202504
0.202634
0.202755
0.202866
0.202968
0.203061
0.203147
0.203226
0.203298
0.203364
0.203424
0.203479
0.20353
0.203575
0.199959
0.199926
0.199978
0.200124
0.200356
0.200657
0.201004
0.201376
0.201756
0.202132
0.202495
0.202841
0.203164
0.203465
0.203742
0.203997
0.204229
0.204441
0.204633
0.204807
0.204965
0.205107
0.205235
0.20535
0.205453
0.205545
0.205628
0.205701
0.205767
0.205825
0.205876
0.205921
0.20596
0.199987
0.200103
0.200417
0.200907
0.201522
0.202204
0.202904
0.203588
0.204237
0.204838
0.205388
0.205885
0.206331
0.206729
0.207084
0.207399
0.207678
0.207925
0.208142
0.208334
0.208503
0.208651
0.20878
0.208892
0.20899
0.209074
0.209146
0.209207
0.209259
0.209301
0.209336
0.209364
0.209385
0.200091
0.200675
0.201678
0.202938
0.204291
0.20562
0.206855
0.207965
0.208943
0.209796
0.210534
0.211168
0.211712
0.212178
0.212577
0.212917
0.213207
0.213454
0.213664
0.21384
0.213989
0.214112
0.214214
0.214297
0.214363
0.214413
0.214451
0.214476
0.214492
0.214497
0.214495
0.214485
0.214468
0.200506
0.202614
0.205386
0.20824
0.210876
0.213171
0.215099
0.216689
0.217986
0.219038
0.21989
0.220577
0.22113
0.221576
0.221933
0.222218
0.222443
0.222618
0.222752
0.222851
0.22292
0.222964
0.222985
0.222987
0.222972
0.222943
0.222901
0.222848
0.222785
0.222713
0.222633
0.222546
0.222453
0.202133
0.209239
0.216725
0.22281
0.227394
0.230768
0.233228
0.23501
0.236296
0.237216
0.23787
0.238329
0.238643
0.238848
0.23897
0.239026
0.239031
0.238994
0.238923
0.238822
0.238697
0.238551
0.238386
0.238205
0.238011
0.237803
0.237585
0.237358
0.237122
0.236879
0.236629
0.236374
0.236115
0.208297
0.226779
0.244127
0.25737
0.266315
0.271771
0.274799
0.2763
0.276879
0.276918
0.276647
0.2762
0.275654
0.275053
0.274421
0.273772
0.27311
0.27244
0.271762
0.271078
0.270387
0.26969
0.268988
0.268282
0.267571
0.266857
0.266141
0.265425
0.264708
0.263992
0.263279
0.262568
0.261862
0.245776
0.310447
0.343767
0.358943
0.365594
0.368307
0.369
0.368466
0.367137
0.365296
0.36313
0.360767
0.358298
0.355787
0.353281
0.35081
0.348396
0.346053
0.34379
0.341613
0.339524
0.337524
0.335613
0.333789
0.332049
0.330393
0.328816
0.327317
0.325892
0.324539
0.323254
0.322035
0.320879
0.214305
0.253643
0.294732
0.333812
0.37003
0.40343
0.434072
0.462003
0.487308
0.510111
0.530563
0.548824
0.565063
0.579447
0.592141
0.603301
0.613077
0.621607
0.629017
0.635426
0.640941
0.645656
0.649662
0.653034
0.655845
0.658158
0.660029
0.661508
0.66264
0.663466
0.664021
0.664337
0.664447
0.750906
0.853189
1.00294
1.17855
1.35449
1.52127
1.67361
1.80604
1.91461
1.99831
2.05883
2.09998
2.12598
2.14082
2.1475
2.14827
2.14459
2.13727
2.12662
2.11267
2.09533
2.07449
2.05007
2.02198
1.99019
1.95463
1.91524
1.87185
1.82429
1.7724
1.71598
1.65485
1.58882
1.51773
1.44147
1.36002
1.27356
1.18253
1.08774
0.990417
0.892263
0.795452
0.702522
0.6162
0.539143
0.473653
0.42145
0.383558
0.360338
0.351679
0.357255
0.376803
0.410396
0.458899
0.524698
0.612268
0.727338
0.873289
1.04671
1.23737
1.43289
1.62312
1.80157
1.96488
2.11173
2.24197
2.35609
2.45491
2.5394
2.61058
2.66954
2.71734
2.75505
2.78372
2.80434
2.8179
2.82531
2.82743
2.82505
2.81887
2.80954
2.7976
2.78351
2.76765
2.75031
2.73175
2.71214
2.69163
2.67034
2.64835
2.62573
2.60254
2.57883
2.55464
2.53001
2.505
2.47966
2.45401
2.42791
2.39804
0.436532
0.444668
0.465215
0.496498
0.538525
0.592192
0.657669
0.733424
0.817375
0.90575
0.994982
1.08228
1.16475
1.24033
1.3078
1.36674
1.41702
1.45858
1.49135
1.51534
1.53067
1.53763
1.53661
1.52804
1.51239
1.49013
1.46175
1.42769
1.38832
1.34397
1.29496
1.24155
1.18401
1.12263
1.05777
0.98987
0.919534
0.84756
0.774987
0.703093
0.633367
0.567444
0.506997
0.453595
0.408574
0.372946
0.347358
0.332135
0.327384
0.333156
0.349603
0.377124
0.416541
0.469472
0.538936
0.629728
0.747514
0.895426
1.06998
1.26115
1.45681
1.64695
1.82517
1.98813
2.13452
2.26422
2.37776
2.47599
2.55989
2.63053
2.68901
2.73641
2.7738
2.80223
2.8227
2.83618
2.8436
2.8458
2.84356
2.83759
2.82852
2.81688
2.80313
2.78763
2.77068
2.7525
2.73329
2.71317
2.69225
2.67063
2.64835
2.62549
2.60207
2.57816
2.55379
2.52901
2.50387
2.4784
2.45245
2.42288
0.335022
0.33034
0.326488
0.324
0.323428
0.325394
0.330654
0.34003
0.354297
0.37415
0.399885
0.431831
0.469467
0.512512
0.559543
0.609597
0.661122
0.712347
0.761636
0.807048
0.847285
0.880931
0.907065
0.925232
0.935411
0.937881
0.933112
0.921672
0.904162
0.881187
0.853341
0.821209
0.785368
0.746404
0.704933
0.661626
0.617211
0.572501
0.528386
0.485819
0.445784
0.409253
0.37713
0.350212
0.329151
0.314459
0.306524
0.305667
0.312215
0.326592
0.349406
0.381525
0.424242
0.479625
0.551014
0.643246
0.761741
0.909437
1.08307
1.27309
1.46773
1.65714
1.83488
1.99753
2.14373
2.27332
2.3868
2.48501
2.56895
2.6397
2.69834
2.74597
2.78365
2.81243
2.83331
2.84726
2.85518
2.85793
2.85626
2.8509
2.84245
2.83144
2.81833
2.80348
2.78716
2.76961
2.75101
2.73148
2.71114
2.69005
2.66829
2.64591
2.62295
2.59945
2.57547
2.55104
2.52623
2.50105
2.47537
2.44619
0.316814
0.311714
0.306754
0.302015
0.297602
0.293539
0.289943
0.286998
0.284921
0.283981
0.284445
0.286645
0.290878
0.297502
0.306663
0.318589
0.333264
0.350643
0.370309
0.391944
0.414544
0.437334
0.459216
0.479122
0.496064
0.509283
0.518305
0.522928
0.523182
0.519274
0.511533
0.500374
0.486257
0.469691
0.451209
0.431359
0.410706
0.38983
0.369327
0.349798
0.331838
0.316022
0.302897
0.292969
0.286711
0.28457
0.286988
0.294438
0.30747
0.326759
0.353167
0.387812
0.432236
0.488743
0.560792
0.653081
0.770681
0.916379
1.0873
1.27459
1.46703
1.65494
1.83181
1.99406
2.14019
2.26994
2.38375
2.48243
2.56694
2.63834
2.69772
2.74615
2.78469
2.81437
2.83619
2.8511
2.86
2.86372
2.86305
2.85867
2.85119
2.84114
2.82897
2.81503
2.7996
2.78292
2.76514
2.74641
2.72682
2.70646
2.68539
2.66364
2.64129
2.61835
2.59489
2.57095
2.54658
2.52181
2.4965
2.46781
0.300007
0.296414
0.292848
0.289303
0.285782
0.2823
0.278882
0.275569
0.272408
0.269456
0.266776
0.264447
0.262555
0.261206
0.260498
0.260546
0.261448
0.263316
0.266189
0.270172
0.275176
0.281141
0.287858
0.295026
0.302257
0.309127
0.315221
0.320182
0.323736
0.325709
0.32603
0.324721
0.321884
0.317691
0.312367
0.306175
0.29941
0.292394
0.285471
0.279004
0.27337
0.26896
0.266173
0.265422
0.267134
0.271761
0.279796
0.291792
0.308395
0.330383
0.358712
0.394597
0.439688
0.496383
0.568128
0.659376
0.774804
0.917048
1.08372
1.26685
1.45592
1.64149
1.81697
1.97858
2.12463
2.25471
2.36914
2.46865
2.55416
2.6267
2.68731
2.73705
2.77695
2.80803
2.83127
2.84761
2.85793
2.86306
2.86377
2.86074
2.85457
2.8458
2.83486
2.8221
2.80781
2.79222
2.77549
2.75775
2.73911
2.71965
2.69943
2.67849
2.65689
2.63466
2.61186
2.58853
2.56473
2.54047
2.51564
2.48754
0.279859
0.277709
0.275531
0.273314
0.27105
0.268744
0.266407
0.264054
0.261701
0.259368
0.257075
0.254845
0.252704
0.25068
0.248805
0.247112
0.245636
0.244419
0.243493
0.242906
0.242685
0.242855
0.243417
0.244345
0.245582
0.247041
0.24861
0.250164
0.25158
0.252745
0.25357
0.253995
0.253996
0.253583
0.252803
0.25174
0.250516
0.249283
0.248231
0.247577
0.24757
0.248489
0.250647
0.254386
0.260092
0.268191
0.27917
0.293586
0.312096
0.335485
0.364717
0.401019
0.446063
0.50225
0.572923
0.662251
0.774486
0.912105
1.07325
1.25094
1.43551
1.61786
1.79134
1.95197
2.09781
2.22825
2.34347
2.44409
2.53094
2.605
2.66727
2.71876
2.76047
2.79341
2.81851
2.8367
2.84886
2.85579
2.85825
2.85692
2.8524
2.8452
2.83577
2.82446
2.81156
2.79729
2.78181
2.76528
2.74778
2.72939
2.71019
2.69022
2.66952
2.64814
2.62614
2.60355
2.58044
2.55682
2.53258
2.50515
0.261282
0.260111
0.258894
0.257627
0.256302
0.254918
0.253478
0.251988
0.250458
0.248897
0.247313
0.24572
0.244126
0.242545
0.24099
0.239472
0.238007
0.236609
0.235294
0.23408
0.232984
0.232024
0.231216
0.23057
0.230091
0.229776
0.22961
0.229575
0.229644
0.22979
0.229986
0.230212
0.230459
0.23073
0.231046
0.231447
0.232
0.232797
0.233958
0.235631
0.238
0.24128
0.245722
0.251621
0.259314
0.269192
0.281708
0.29739
0.316864
0.340886
0.370384
0.406553
0.451033
0.506165
0.575147
0.661838
0.770062
0.902133
1.0567
1.22786
1.40686
1.58508
1.75588
1.91507
2.06046
2.19119
2.30727
2.40916
2.49761
2.5735
2.63777
2.69138
2.73529
2.77047
2.79784
2.81828
2.83265
2.84175
2.84631
2.84701
2.84444
2.83912
2.83147
2.82187
2.8106
2.79787
2.78387
2.76873
2.75256
2.73543
2.71742
2.69857
2.67893
2.65855
2.63748
2.61577
2.59347
2.57061
2.54707
2.52042
0.246303
0.245713
0.245081
0.244405
0.243677
0.242895
0.242058
0.241168
0.24023
0.239248
0.238228
0.237177
0.236102
0.23501
0.233909
0.232807
0.231713
0.230637
0.229585
0.228568
0.227596
0.226677
0.225824
0.225046
0.224354
0.223756
0.223261
0.222875
0.222602
0.222449
0.222421
0.222528
0.222784
0.22321
0.22384
0.224718
0.225904
0.227479
0.229543
0.232221
0.235667
0.240065
0.245633
0.252631
0.261361
0.272179
0.285501
0.301817
0.321712
0.345895
0.375241
0.410888
0.45441
0.508052
0.574837
0.6583
0.761863
0.887671
1.03485
1.19852
1.37098
1.54418
1.71157
1.86879
2.01337
2.14421
2.2611
2.36433
2.45452
2.53245
2.59899
2.65502
2.70146
2.73922
2.76919
2.79223
2.80916
2.82076
2.82775
2.83079
2.83047
2.8273
2.82171
2.81407
2.80465
2.7937
2.78138
2.76783
2.75318
2.73748
2.72083
2.70326
2.68484
2.66561
2.64561
2.6249
2.60355
2.58156
2.55884
2.53307
0.23488
0.234618
0.234323
0.233992
0.233622
0.233207
0.232746
0.232239
0.231687
0.231094
0.230462
0.229796
0.229101
0.228384
0.227649
0.226905
0.226159
0.225417
0.224687
0.223976
0.22329
0.222635
0.22202
0.221452
0.220938
0.220489
0.220115
0.219827
0.219639
0.219565
0.219623
0.219836
0.22023
0.220839
0.221706
0.222883
0.224436
0.226444
0.229005
0.232237
0.23628
0.241304
0.247508
0.255127
0.264441
0.275773
0.289508
0.306097
0.32608
0.350115
0.379015
0.41385
0.456106
0.507911
0.572079
0.651831
0.750225
0.869239
1.0084
1.16382
1.32887
1.49618
1.65939
1.81403
1.95736
2.08802
2.20555
2.31009
2.40207
2.48217
2.55115
2.60982
2.65904
2.69966
2.73253
2.75846
2.77825
2.79265
2.80237
2.80804
2.81025
2.8095
2.80622
2.80078
2.79345
2.78448
2.77405
2.7623
2.74934
2.73526
2.72013
2.70401
2.68696
2.66902
2.65024
2.63067
2.61039
2.5894
2.56762
2.54284
0.226316
0.226234
0.226128
0.225995
0.225832
0.225636
0.225403
0.225134
0.224827
0.224484
0.224108
0.223702
0.223269
0.222815
0.222346
0.221868
0.221388
0.220912
0.220448
0.22
0.219576
0.219181
0.21882
0.2185
0.218228
0.218011
0.217861
0.21779
0.217811
0.217944
0.218209
0.218634
0.219251
0.220099
0.221225
0.222687
0.224553
0.226903
0.229834
0.233459
0.237914
0.243357
0.249974
0.257986
0.267647
0.27926
0.293175
0.309809
0.329658
0.353325
0.381561
0.415356
0.456106
0.505789
0.566998
0.642659
0.735501
0.847344
0.978048
1.12462
1.2815
1.44209
1.60035
1.75172
1.89327
2.02336
2.1413
2.24698
2.34071
2.423
2.49451
2.55597
2.60815
2.65184
2.68784
2.71691
2.73982
2.75729
2.76999
2.77856
2.78355
2.78547
2.78474
2.78172
2.7767
2.76993
2.76158
2.75181
2.74074
2.72845
2.71502
2.70051
2.68497
2.66847
2.65105
2.63277
2.61369
2.59383
2.5731
2.5494
0.219881
0.219899
0.219897
0.219876
0.219834
0.219766
0.219671
0.219547
0.219395
0.219213
0.219004
0.21877
0.218515
0.218244
0.217961
0.217674
0.217388
0.21711
0.216846
0.216603
0.216385
0.216199
0.21605
0.215943
0.215887
0.215888
0.215957
0.216106
0.21635
0.216708
0.217203
0.217864
0.218725
0.219826
0.221218
0.222957
0.225113
0.227766
0.23101
0.234955
0.239731
0.245486
0.252396
0.260666
0.270533
0.282276
0.296216
0.312735
0.332286
0.355417
0.382814
0.415393
0.45444
0.501771
0.559752
0.63103
0.718048
0.822478
0.944442
1.08173
1.22982
1.38295
1.53547
1.68286
1.82202
1.95106
2.06903
2.17563
2.27095
2.35537
2.42941
2.49371
2.54895
2.59585
2.63514
2.66755
2.69379
2.71454
2.73046
2.74214
2.75015
2.75496
2.75699
2.75662
2.75412
2.74974
2.74368
2.73608
2.72706
2.71673
2.70516
2.69242
2.67856
2.66365
2.64773
2.63087
2.61312
2.59451
2.57496
2.55247
0.214998
0.215067
0.215123
0.215165
0.215191
0.2152
0.215188
0.215154
0.215098
0.21502
0.214921
0.214803
0.214669
0.214525
0.214373
0.214222
0.214076
0.213942
0.213826
0.213734
0.213673
0.213647
0.213663
0.213726
0.213844
0.214026
0.214281
0.214622
0.215065
0.215629
0.216338
0.21722
0.218311
0.219651
0.22129
0.223285
0.225704
0.228623
0.232135
0.236345
0.241376
0.247367
0.254485
0.262919
0.272888
0.284647
0.298492
0.314771
0.33389
0.356347
0.382768
0.413985
0.451168
0.495967
0.550519
0.617209
0.698229
0.795122
0.908204
1.03593
1.17475
1.31974
1.46577
1.60845
1.74455
1.87197
1.98953
2.09668
2.19335
2.27973
2.35621
2.42332
2.48165
2.53183
2.57452
2.61039
2.6401
2.66431
2.68363
2.69862
2.70984
2.71774
2.72274
2.72521
2.72542
2.72363
2.72003
2.71478
2.708
2.69979
2.69025
2.67943
2.6674
2.65422
2.63995
2.62464
2.60836
2.59113
2.57289
2.55171
0.211243
0.211338
0.211424
0.2115
0.211566
0.211618
0.211656
0.211678
0.211684
0.211673
0.211647
0.211608
0.211558
0.211502
0.211444
0.21139
0.211345
0.211316
0.211309
0.21133
0.211385
0.21148
0.211622
0.211816
0.212072
0.212397
0.212803
0.213302
0.213912
0.214652
0.215545
0.21662
0.217913
0.219463
0.221319
0.223536
0.22618
0.229325
0.233059
0.237481
0.242707
0.248869
0.256119
0.264636
0.274617
0.286299
0.299947
0.315875
0.334451
0.356122
0.38145
0.411184
0.446378
0.488509
0.539492
0.601465
0.676404
0.765735
0.869919
0.987956
1.11715
1.25344
1.39228
1.52949
1.66183
1.787
1.90361
2.01089
2.10855
2.19663
2.27537
2.34518
2.40653
2.45997
2.50609
2.54549
2.57878
2.60656
2.62941
2.64787
2.66246
2.67362
2.68177
2.68724
2.69035
2.69131
2.69035
2.68761
2.68323
2.67731
2.66995
2.66121
2.65115
2.63985
2.62737
2.61375
2.59907
2.58336
2.56654
2.5468
0.208321
0.208427
0.208526
0.208619
0.208705
0.208782
0.20885
0.208906
0.208951
0.208985
0.209009
0.209023
0.209032
0.209039
0.209048
0.209064
0.209093
0.209141
0.209215
0.209319
0.209462
0.209648
0.209885
0.210181
0.210543
0.210981
0.211507
0.212134
0.21288
0.213763
0.214809
0.216045
0.217507
0.219232
0.221268
0.223669
0.226497
0.229822
0.233728
0.238309
0.243672
0.24994
0.257254
0.265777
0.275691
0.287207
0.300567
0.31605
0.333986
0.354771
0.378908
0.407063
0.440171
0.479542
0.526873
0.584073
0.652926
0.734758
0.830132
0.93848
1.05784
1.18499
1.31601
1.44704
1.57487
1.69711
1.81216
1.91903
2.01726
2.10669
2.18741
2.2597
2.32393
2.38055
2.43005
2.47298
2.50988
2.5413
2.56776
2.5898
2.60788
2.62244
2.63387
2.64251
2.64865
2.65253
2.65436
2.65429
2.65246
2.64898
2.64394
2.63742
2.62949
2.62021
2.60965
2.59786
2.58491
2.57084
2.55559
2.53739
0.206023
0.20613
0.206234
0.206333
0.206429
0.206519
0.206603
0.20668
0.20675
0.206812
0.206869
0.206921
0.206972
0.207023
0.207081
0.207148
0.207232
0.207337
0.20747
0.207637
0.207845
0.2081
0.20841
0.208783
0.209227
0.209753
0.210374
0.211102
0.211956
0.212955
0.214123
0.215489
0.217086
0.218951
0.22113
0.223674
0.226642
0.230102
0.23413
0.238815
0.244256
0.250568
0.257878
0.266336
0.276105
0.287376
0.300364
0.315318
0.332528
0.352345
0.375209
0.401709
0.432664
0.469221
0.51287
0.565304
0.628136
0.702606
0.789346
0.888123
0.997594
1.11529
1.23794
1.36211
1.4847
1.60329
1.7161
1.82197
1.92024
2.01058
2.09293
2.16741
2.23429
2.29391
2.34668
2.39306
2.43353
2.46858
2.4987
2.52436
2.54601
2.56406
2.57889
2.59081
2.60012
2.60705
2.6118
2.61454
2.6154
2.6145
2.61193
2.60777
2.6021
2.59498
2.58647
2.57664
2.56555
2.55325
2.53968
2.52315
0.204202
0.204305
0.204407
0.204507
0.204605
0.2047
0.204792
0.204881
0.204966
0.205047
0.205126
0.205204
0.205284
0.205368
0.20546
0.205566
0.20569
0.205838
0.206015
0.206229
0.206486
0.206793
0.207158
0.207589
0.208096
0.20869
0.209383
0.21019
0.211128
0.212216
0.21348
0.214946
0.216645
0.218617
0.220902
0.223549
0.226615
0.230162
0.234263
0.238999
0.244462
0.250756
0.257999
0.266323
0.275876
0.286828
0.299369
0.313717
0.330126
0.348903
0.370431
0.395221
0.423983
0.457708
0.49769
0.545423
0.602361
0.669667
0.748023
0.837444
0.937085
1.04514
1.15901
1.2757
1.39235
1.50654
1.6164
1.72061
1.81833
1.90906
1.99258
2.06888
2.13809
2.20046
2.2563
2.30599
2.34993
2.38856
2.4223
2.45159
2.47684
2.49844
2.51672
2.53201
2.54458
2.55466
2.56245
2.56812
2.57179
2.57359
2.57362
2.57195
2.56866
2.56382
2.5575
2.54975
2.54066
2.53025
2.51848
2.50375
0.202755
0.202851
0.202947
0.203043
0.203139
0.203234
0.203329
0.203423
0.203516
0.203609
0.203703
0.203798
0.203898
0.204005
0.204123
0.204257
0.20441
0.204589
0.2048
0.205049
0.205342
0.205688
0.206094
0.206569
0.207123
0.207767
0.208515
0.20938
0.21038
0.211535
0.212868
0.214406
0.216179
0.218224
0.220579
0.223292
0.226415
0.230005
0.234131
0.238867
0.244298
0.250516
0.25763
0.265756
0.275027
0.285592
0.297618
0.311293
0.326839
0.344518
0.364661
0.387705
0.414258
0.445165
0.48154
0.524685
0.575909
0.636305
0.706583
0.786945
0.876935
0.975312
1.08009
1.18878
1.29882
1.40788
1.51405
1.6159
1.71241
1.80293
1.8871
1.96476
2.03592
2.10071
2.15935
2.21212
2.25936
2.30143
2.33871
2.37158
2.4004
2.42554
2.44731
2.46602
2.48191
2.49522
2.50613
2.51482
2.52141
2.52601
2.52874
2.52968
2.52889
2.52645
2.52243
2.51689
2.50991
2.50151
2.49167
2.47886
0.201607
0.201693
0.201781
0.20187
0.201961
0.202053
0.202147
0.202242
0.202339
0.202438
0.20254
0.202647
0.202761
0.202884
0.203021
0.203174
0.203349
0.203551
0.203786
0.20406
0.20438
0.204754
0.205189
0.205696
0.206283
0.206963
0.207749
0.208655
0.209698
0.210898
0.212277
0.213861
0.21568
0.217767
0.22016
0.222902
0.226042
0.229634
0.23374
0.238428
0.243774
0.249863
0.25679
0.26466
0.273589
0.283706
0.295156
0.308102
0.322732
0.339269
0.357994
0.379275
0.403627
0.43176
0.46462
0.503334
0.54907
0.602851
0.665406
0.737071
0.817683
0.906468
1.00199
1.10227
1.20511
1.30834
1.41007
1.5088
1.6034
1.69307
1.77729
1.85578
1.92842
1.99522
2.05631
2.11187
2.16217
2.20749
2.24815
2.28448
2.3168
2.34543
2.37067
2.39279
2.41203
2.4286
2.4427
2.45446
2.46404
2.47154
2.47707
2.4807
2.48251
2.48258
2.48097
2.47775
2.47299
2.46672
2.45892
2.44815
0.200701
0.200777
0.200855
0.200936
0.20102
0.201107
0.201197
0.20129
0.201388
0.201489
0.201596
0.201709
0.201832
0.201966
0.202115
0.202282
0.202472
0.20269
0.202941
0.203233
0.203572
0.203964
0.20442
0.204947
0.205557
0.20626
0.207069
0.208
0.209068
0.210293
0.211697
0.213304
0.215142
0.217243
0.219642
0.222379
0.2255
0.229054
0.233097
0.237692
0.242906
0.248816
0.255505
0.263065
0.271597
0.281213
0.292036
0.304204
0.317876
0.33324
0.350528
0.370049
0.392228
0.417657
0.447126
0.481601
0.522112
0.569613
0.624836
0.688214
0.759803
0.839194
0.925425
1.01702
1.11215
1.20889
1.30547
1.40034
1.49228
1.58039
1.66401
1.74273
1.81631
1.88464
1.94775
2.00574
2.05878
2.10708
2.15091
2.19052
2.2262
2.25823
2.28686
2.31235
2.33492
2.35476
2.37205
2.38693
2.39955
2.41
2.41839
2.4248
2.4293
2.43196
2.43286
2.43205
2.4296
2.42557
2.41993
2.41133
0.199996
0.200061
0.200129
0.200201
0.200277
0.200358
0.200443
0.200532
0.200627
0.200728
0.200837
0.200954
0.201081
0.201221
0.201377
0.201553
0.201753
0.201981
0.202244
0.202546
0.202896
0.2033
0.203767
0.204306
0.204926
0.20564
0.206461
0.207401
0.208479
0.209711
0.21112
0.212727
0.21456
0.216648
0.219024
0.221725
0.224793
0.228272
0.232214
0.236674
0.241713
0.247398
0.253801
0.261004
0.269092
0.278161
0.288314
0.299667
0.312351
0.326522
0.34237
0.360148
0.380202
0.403018
0.429247
0.459702
0.495285
0.536869
0.585181
0.64072
0.703703
0.773996
0.851032
0.933777
1.02081
1.11051
1.20123
1.29149
1.38003
1.46583
1.54816
1.62645
1.70036
1.76968
1.83433
1.89431
1.9497
2.00066
2.04736
2.09002
2.12887
2.16413
2.19603
2.22479
2.25062
2.27368
2.29415
2.31215
2.32782
2.34125
2.35254
2.36178
2.36902
2.37435
2.37783
2.37952
2.37949
2.37779
2.37439
2.36808
0.19946
0.199514
0.199573
0.199636
0.199704
0.199778
0.199856
0.199941
0.200033
0.200132
0.200239
0.200356
0.200485
0.200628
0.200788
0.200968
0.201173
0.201407
0.201675
0.201983
0.202337
0.202745
0.203216
0.203757
0.20438
0.205094
0.205913
0.206851
0.207922
0.209145
0.210539
0.212127
0.213932
0.215983
0.218309
0.220945
0.223928
0.227299
0.231104
0.235391
0.240216
0.245635
0.251712
0.258516
0.26612
0.274603
0.284052
0.294562
0.306239
0.31921
0.333627
0.349695
0.36769
0.388002
0.41116
0.437839
0.468812
0.504871
0.546718
0.594897
0.649736
0.711307
0.779355
0.853231
0.93191
1.01409
1.09834
1.18327
1.26764
1.35038
1.43066
1.50782
1.58141
1.65111
1.71674
1.77821
1.83551
1.88873