/*--------------------------------*- C++ -*----------------------------------*\
  =========                 |
  \\      /  F ield         | OpenFOAM: The Open Source CFD Toolbox
   \\    /   O peration     | Website:  https://openfoam.org
    \\  /    A nd           | Version:  10
     \\/     M anipulation  |
\*---------------------------------------------------------------------------*/
FoamFile
{
    format      ascii;
    class       volScalarField;
    location    "400";
    object      nut;
}
// * * * * * * * * * * * * * * * * * * * * * * * * * * * * * * * * * * * * * //

dimensions      [0 2 -1 0 0 0 0];

internalField   nonuniform List<scalar> 
6820
(
5.21161e-05
7.23496e-05
8.49506e-05
9.15133e-05
9.44887e-05
9.5427e-05
9.52258e-05
9.44073e-05
9.32833e-05
9.20384e-05
9.07773e-05
8.95563e-05
8.84036e-05
8.7331e-05
8.63409e-05
8.54308e-05
8.45959e-05
8.38303e-05
8.31277e-05
8.24824e-05
8.18889e-05
8.13423e-05
8.0838e-05
8.03723e-05
7.99416e-05
7.95428e-05
7.91734e-05
7.8831e-05
7.85126e-05
7.82228e-05
7.79228e-05
7.77655e-05
7.69597e-05
0.00148778
0.000914494
0.000722319
0.000566093
0.000444985
0.000364577
0.000311062
0.000273911
0.000246871
0.000226588
0.000210804
0.000198449
0.000188294
0.000180003
0.000173131
0.00016737
0.000162484
0.000158328
0.000154752
0.000151685
0.000149013
0.000146713
0.000144688
0.000142946
0.000141397
0.000140068
0.00013888
0.000137858
0.000136962
0.00013615
0.000135496
0.000134868
0.000134166
0.00388235
0.00172612
0.00129523
0.00105716
0.00088368
0.000757015
0.000663704
0.000593415
0.000538738
0.000495323
0.000459902
0.000430637
0.000405938
0.00038486
0.000366642
0.000350781
0.000336823
0.000324489
0.000313491
0.000303666
0.000294823
0.000286853
0.00027964
0.000273089
0.000267105
0.0002617
0.000256701
0.000252192
0.000248
0.00024421
0.00024068
0.000237495
0.000234459
0.00701486
0.0030933
0.00211865
0.00169401
0.00142845
0.00124182
0.00110363
0.000997803
0.00091415
0.000846665
0.000791011
0.000744459
0.000704868
0.000670834
0.000641186
0.000615193
0.000592131
0.000571615
0.000553145
0.00053654
0.000521408
0.000507707
0.000495084
0.000483617
0.000472933
0.00046322
0.000454084
0.000445783
0.000437907
0.000430759
0.00042393
0.000417744
0.000411787
0.00947863
0.00539462
0.00361892
0.00279678
0.00231364
0.00199155
0.00176062
0.00158693
0.00145126
0.00134251
0.00125336
0.00117907
0.00111615
0.00106226
0.00101549
0.000974627
0.000938494
0.000906436
0.000877663
0.000851848
0.000828386
0.000807165
0.000787666
0.000769936
0.000753485
0.000738472
0.00072443
0.000711582
0.000699489
0.000688393
0.000677917
0.000668262
0.000659149
0.0106282
0.00776339
0.00561756
0.0043996
0.00363531
0.00311512
0.00274018
0.00245818
0.00223856
0.00206301
0.0019196
0.00180043
0.00169985
0.00161396
0.00153972
0.00147503
0.00141807
0.00136767
0.00132264
0.00128233
0.00124588
0.00121295
0.00118287
0.00115551
0.00113031
0.00110726
0.00108589
0.00106625
0.00104796
0.00103107
0.00101531
0.00100068
0.000987041
0.0110845
0.0094806
0.0075788
0.00621466
0.00525011
0.00454864
0.00402236
0.00361621
0.00329465
0.00303467
0.0028206
0.0026417
0.00249013
0.0023603
0.00224791
0.00214983
0.00206347
0.00198701
0.00191878
0.00185766
0.00180252
0.00175267
0.00170729
0.00166596
0.00162806
0.00159333
0.00156129
0.00153178
0.00150444
0.00147915
0.00145566
0.00143384
0.00141356
0.0112619
0.0104723
0.00911494
0.00788289
0.00688568
0.00609536
0.00546679
0.00496113
0.00454857
0.00420734
0.00392144
0.00367916
0.00347166
0.00329231
0.00313595
0.00299865
0.00287722
0.00276921
0.00267256
0.0025857
0.00250721
0.00243607
0.00237127
0.00231212
0.00225788
0.00220808
0.00216218
0.00211983
0.00208063
0.00204432
0.00201061
0.0019793
0.00195018
0.0113319
0.0109613
0.0101483
0.00919369
0.00831244
0.00754617
0.0068945
0.00634341
0.00587634
0.00547834
0.00513688
0.00484185
0.00458511
0.00436022
0.00416195
0.00398615
0.0038294
0.00368897
0.00356255
0.00344829
0.00334459
0.00325017
0.00316388
0.00308482
0.00301216
0.00294523
0.00288343
0.00282626
0.00277327
0.00272408
0.00267835
0.00263581
0.00259617
0.0113604
0.011191
0.0107577
0.0101061
0.00941917
0.00876196
0.00816174
0.00762563
0.0071514
0.00673322
0.0063643
0.0060381
0.0057487
0.00549099
0.00526058
0.00505376
0.0048674
0.00469887
0.00454591
0.00440663
0.00427941
0.00416288
0.00405584
0.00395729
0.00386633
0.00378221
0.00370425
0.00363189
0.00356462
0.00350199
0.0034436
0.00338915
0.00333828
0.0113724
0.0112961
0.0110834
0.0106834
0.0102001
0.00969085
0.0091904
0.00871698
0.00827855
0.00787725
0.00751217
0.00718094
0.00688059
0.00660808
0.00636046
0.00613505
0.0059294
0.00574137
0.00556904
0.00541074
0.00526501
0.00513057
0.00500629
0.00489118
0.00478436
0.00468509
0.00459267
0.00450652
0.00442611
0.00435097
0.00428069
0.0042149
0.00415325
0.0113776
0.0113432
0.0112429
0.0110224
0.0107092
0.0103471
0.00996397
0.00957952
0.00920602
0.00885039
0.00851601
0.00820407
0.00791441
0.00764615
0.007398
0.00716854
0.00695629
0.00675981
0.00657776
0.00640887
0.00625199
0.00610608
0.0059702
0.00584349
0.00572518
0.00561459
0.00551109
0.00541413
0.00532321
0.00523788
0.00515774
0.00508243
0.00501159
0.01138
0.0113641
0.0113176
0.0112065
0.0110185
0.0107798
0.0105078
0.0102179
0.00992204
0.00962851
0.00934278
0.00906823
0.00880674
0.00855916
0.00832569
0.0081061
0.0078999
0.00770643
0.00752499
0.00735483
0.00719521
0.00704541
0.00690476
0.0067726
0.00664836
0.00653147
0.00642143
0.00631777
0.00622006
0.00612792
0.00604098
0.00595891
0.0058814
0.0113814
0.0113732
0.0113518
0.0112993
0.0111948
0.0110478
0.0108673
0.0106629
0.0104436
0.0102165
0.00998729
0.00976016
0.00953795
0.00932259
0.00911528
0.00891672
0.00872722
0.00854684
0.00837544
0.0082128
0.00805858
0.00791244
0.00777399
0.00764283
0.00751858
0.00740087
0.00728933
0.00718363
0.00708342
0.00698841
0.00689832
0.00681287
0.00673179
0.0113823
0.0113772
0.011367
0.0113425
0.0112898
0.0112045
0.0110919
0.0109564
0.0108033
0.0106378
0.0104645
0.0102871
0.0101086
0.00993133
0.00975693
0.00958664
0.0094213
0.00926145
0.00910744
0.00895944
0.00881748
0.00868153
0.00855149
0.0084272
0.0083085
0.00819518
0.00808705
0.00798389
0.0078855
0.00779167
0.00770221
0.00761692
0.00753559
0.0113826
0.0113795
0.0113738
0.0113622
0.0113373
0.0112909
0.0112246
0.0111398
0.0110389
0.0109249
0.0108009
0.0106696
0.0105337
0.0103952
0.0102558
0.0101169
0.00997951
0.00984454
0.00971255
0.00958399
0.00945916
0.00933827
0.00922143
0.00910869
0.00900007
0.00889553
0.00879501
0.00869844
0.00860572
0.00851674
0.00843141
0.0083496
0.00827118
0.0113825
0.0113808
0.0113771
0.011371
0.0113592
0.0113362
0.0112991
0.0112488
0.0111857
0.0111112
0.0110269
0.0109347
0.0108363
0.0107334
0.0106272
0.0105192
0.0104104
0.0103016
0.0101935
0.0100867
0.00998166
0.0098787
0.00977809
0.00968003
0.00958465
0.00949205
0.0094023
0.0093154
0.00923138
0.00915022
0.00907188
0.00899633
0.00892351
0.0113825
0.0113812
0.0113791
0.0113752
0.011369
0.0113581
0.0113387
0.0113102
0.0112727
0.0112264
0.011172
0.0111103
0.0110425
0.0109695
0.0108924
0.0108123
0.0107299
0.010646
0.0105613
0.0104763
0.0103916
0.0103075
0.0102243
0.0101424
0.010062
0.0099831
0.00990599
0.00983074
0.00975742
0.00968608
0.00961677
0.00954949
0.00948424
0.0113825
0.0113813
0.0113798
0.0113775
0.0113737
0.0113679
0.0113585
0.0113432
0.0113219
0.0112944
0.0112608
0.0112215
0.0111768
0.0111274
0.011074
0.0110171
0.0109574
0.0108955
0.0108318
0.010767
0.0107015
0.0106355
0.0105695
0.0105037
0.0104384
0.0103737
0.0103099
0.0102471
0.0101854
0.0101249
0.0100657
0.0100078
0.0099513
0.0113824
0.0113813
0.01138
0.0113785
0.0113762
0.0113727
0.0113675
0.0113599
0.0113483
0.0113326
0.0113128
0.0112887
0.0112606
0.0112286
0.0111931
0.0111544
0.011113
0.0110692
0.0110233
0.0109759
0.0109271
0.0108773
0.0108269
0.010776
0.0107249
0.0106737
0.0106228
0.0105721
0.0105219
0.0104723
0.0104234
0.0103752
0.0103278
0.0113824
0.0113813
0.0113801
0.0113788
0.0113772
0.0113751
0.0113721
0.0113676
0.0113616
0.0113531
0.0113418
0.0113276
0.0113105
0.0112906
0.011268
0.0112428
0.0112151
0.0111853
0.0111535
0.01112
0.011085
0.0110488
0.0110116
0.0109735
0.0109349
0.0108957
0.0108563
0.0108167
0.0107771
0.0107376
0.0106982
0.0106592
0.0106205
0.0113824
0.0113812
0.0113801
0.0113789
0.0113776
0.0113761
0.0113742
0.0113716
0.0113679
0.0113633
0.0113572
0.011349
0.011339
0.011327
0.011313
0.011297
0.0112792
0.0112595
0.0112382
0.0112152
0.0111909
0.0111653
0.0111386
0.0111109
0.0110823
0.0110531
0.0110233
0.010993
0.0109624
0.0109316
0.0109006
0.0108696
0.0108386
0.0113824
0.0113812
0.0113801
0.0113789
0.0113777
0.0113765
0.0113751
0.0113734
0.0113712
0.0113684
0.0113646
0.01136
0.0113543
0.0113471
0.0113386
0.0113287
0.0113173
0.0113045
0.0112903
0.0112748
0.011258
0.0112401
0.0112211
0.011201
0.0111801
0.0111584
0.0111359
0.0111129
0.0110893
0.0110653
0.0110409
0.0110163
0.0109915
0.0113824
0.0113812
0.01138
0.0113789
0.0113778
0.0113766
0.0113754
0.0113741
0.0113726
0.0113707
0.0113683
0.0113654
0.0113616
0.0113573
0.011352
0.0113455
0.011338
0.0113293
0.0113195
0.0113086
0.0112966
0.0112836
0.0112695
0.0112545
0.0112386
0.0112219
0.0112044
0.0111862
0.0111674
0.0111481
0.0111283
0.0111081
0.0110875
0.0113824
0.0113812
0.01138
0.0113789
0.0113778
0.0113766
0.0113755
0.0113743
0.011373
0.0113715
0.0113697
0.0113674
0.0113646
0.0113611
0.0113572
0.0113524
0.0113465
0.0113397
0.0113319
0.0113232
0.0113134
0.0113027
0.011291
0.0112784
0.011265
0.0112507
0.0112356
0.0112198
0.0112034
0.0111863
0.0111688
0.0111507
0.0111323
0.0113824
0.0113812
0.01138
0.0113789
0.0113778
0.0113766
0.0113755
0.0113743
0.0113729
0.0113713
0.0113693
0.0113669
0.0113639
0.0113603
0.0113562
0.0113511
0.011345
0.011338
0.01133
0.011321
0.011311
0.0113001
0.0112882
0.0112754
0.0112617
0.0112472
0.011232
0.011216
0.0111993
0.0111821
0.0111643
0.011146
0.0111273
0.0113824
0.0113812
0.0113801
0.0113789
0.0113777
0.0113766
0.0113753
0.0113738
0.011372
0.0113698
0.0113669
0.0113634
0.0113593
0.011354
0.0113478
0.0113405
0.0113321
0.0113226
0.0113119
0.0113001
0.0112873
0.0112734
0.0112585
0.0112426
0.0112259
0.0112084
0.01119
0.011171
0.0111514
0.0111312
0.0111105
0.0110894
0.0110679
0.0113824
0.0113812
0.0113801
0.0113789
0.0113777
0.0113763
0.0113746
0.0113724
0.0113694
0.0113656
0.0113609
0.0113547
0.0113471
0.011338
0.0113274
0.0113154
0.0113018
0.0112868
0.0112704
0.0112527
0.0112338
0.0112136
0.0111925
0.0111703
0.0111473
0.0111235
0.011099
0.0110739
0.0110483
0.0110222
0.0109957
0.010969
0.010942
0.0113824
0.0113813
0.0113801
0.0113789
0.0113774
0.0113753
0.0113724
0.0113684
0.0113632
0.0113556
0.011346
0.0113341
0.0113199
0.0113034
0.0112847
0.0112639
0.0112412
0.0112165
0.0111902
0.0111624
0.0111332
0.0111029
0.0110715
0.0110392
0.0110061
0.0109725
0.0109383
0.0109038
0.0108689
0.0108339
0.0107987
0.0107635
0.0107284
0.0113825
0.0113813
0.0113801
0.0113784
0.011376
0.0113722
0.0113668
0.0113584
0.0113463
0.0113306
0.0113113
0.0112883
0.0112618
0.0112321
0.0111993
0.0111637
0.0111258
0.0110858
0.011044
0.0110007
0.0109562
0.0109107
0.0108644
0.0108176
0.0107705
0.0107231
0.0106757
0.0106283
0.010581
0.0105341
0.0104875
0.0104412
0.0103955
0.0113825
0.0113814
0.0113798
0.0113765
0.011372
0.0113641
0.01135
0.01133
0.0113039
0.0112716
0.0112335
0.0111902
0.011142
0.0110897
0.0110339
0.0109753
0.0109142
0.0108514
0.0107873
0.0107222
0.0106566
0.0105907
0.0105248
0.0104591
0.0103939
0.0103293
0.0102654
0.0102023
0.0101402
0.010079
0.0100189
0.00995985
0.00990191
0.0113826
0.011381
0.0113775
0.0113717
0.0113594
0.0113358
0.0113015
0.0112565
0.0112014
0.0111373
0.0110654
0.0109871
0.0109036
0.0108163
0.0107261
0.0106341
0.0105409
0.0104473
0.0103539
0.010261
0.0101691
0.0100784
0.00998923
0.00990168
0.0098159
0.009732
0.00965004
0.00957005
0.00949206
0.00941607
0.00934207
0.00927004
0.00919994
0.0113825
0.0113788
0.0113715
0.0113528
0.0113124
0.0112514
0.0111715
0.0110753
0.0109657
0.010846
0.0107188
0.0105867
0.0104519
0.0103159
0.0101801
0.0100455
0.00991296
0.00978303
0.00965612
0.00953253
0.00941245
0.00929598
0.00918318
0.00907405
0.00896855
0.00886662
0.00876819
0.00867316
0.00858143
0.00849288
0.00840742
0.00832492
0.00824527
0.0113813
0.0113725
0.0113446
0.0112756
0.0111626
0.0110163
0.0108449
0.0106563
0.0104575
0.0102538
0.0100494
0.0098472
0.00964925
0.00945693
0.00927112
0.00909232
0.00892076
0.0087565
0.00859944
0.00844942
0.00830621
0.00816952
0.00803909
0.0079146
0.00779576
0.00768227
0.00757386
0.00747024
0.00737115
0.00727635
0.00718559
0.00709865
0.00701533
0.0113782
0.0113392
0.011223
0.0110039
0.0107268
0.0104169
0.0100939
0.00977089
0.0094562
0.00915445
0.00886797
0.00859768
0.00834367
0.00810551
0.00788248
0.0076737
0.00747823
0.00729514
0.0071235
0.00696247
0.00681121
0.00666898
0.00653509
0.00640889
0.00628979
0.00617728
0.00607084
0.00597005
0.00587448
0.00578377
0.00569759
0.0056156
0.00553755
0.0113586
0.011167
0.0107277
0.0101789
0.00961601
0.00907918
0.00858442
0.00813517
0.00772983
0.00736454
0.00703491
0.00673698
0.00646707
0.00622188
0.00599852
0.00579447
0.00560752
0.00543576
0.00527754
0.00513141
0.0049961
0.00487053
0.00475372
0.00464483
0.00454311
0.0044479
0.00435862
0.00427475
0.00419582
0.00412143
0.0040512
0.0039848
0.00392195
0.0112033
0.010286
0.0091461
0.00815396
0.00734268
0.00668183
0.00613777
0.00568258
0.00529685
0.00496555
0.00467856
0.00442798
0.00420763
0.00401259
0.00383892
0.00368344
0.00354353
0.00341705
0.00330223
0.00319755
0.00310179
0.00301387
0.00293288
0.00285807
0.00278876
0.00272437
0.00266441
0.00260844
0.00255608
0.00250699
0.00246089
0.00241749
0.00237659
0.00988214
0.0070345
0.00556293
0.00467232
0.0040804
0.00363693
0.00328441
0.00299465
0.00275366
0.00255155
0.00238054
0.00223459
0.00210895
0.0019999
0.00190453
0.00182051
0.001746
0.0016795
0.00161982
0.00156597
0.00151715
0.00147268
0.00143202
0.00139468
0.00136028
0.00132848
0.001299
0.00127158
0.00124602
0.00122212
0.00119973
0.00117871
0.00115893
0.00388338
0.00236712
0.00190988
0.00162446
0.00144093
0.0012836
0.0011502
0.00104188
0.000954112
0.000882426
0.000823235
0.000773789
0.000732001
0.000696309
0.000665525
0.000638747
0.000615267
0.000594538
0.000576116
0.000559654
0.000544859
0.000531507
0.000519394
0.00050837
0.00049829
0.000489051
0.000480544
0.0004727
0.000465433
0.000458698
0.000452424
0.000446584
0.000441115
0.000128162
0.00013943
0.0001503
0.000159954
0.000168408
0.000175844
0.0001824
0.000188177
0.000193262
0.000197732
0.000201657
0.000205098
0.00020811
0.000210742
0.000213038
0.000215036
0.000216772
0.000218274
0.000219572
0.000220688
0.000221643
0.000222457
0.000223146
0.000223725
0.000224206
0.000224601
0.00022492
0.000225172
0.000225365
0.000225505
0.0002256
0.000225654
0.000225673
8.46667e-05
0.000100272
0.000125945
0.00015916
0.000197007
0.000238145
0.00028156
0.000325657
0.000369041
0.000410504
0.000449402
0.000485931
0.000520229
0.000552842
0.000584073
0.000614483
0.000644384
0.000673964
0.000703255
0.000732131
0.00076046
0.000788076
0.000814819
0.000840544
0.000865186
0.00088865
0.000911292
0.000932925
0.000953538
0.000973162
0.000991909
0.00100989
0.00102729
0.00104445
0.00106168
0.00107935
0.00109794
0.0011181
0.0011407
0.00116691
0.0011983
0.00123688
0.0012853
0.00134694
0.00142614
0.00152865
0.00166217
0.00183692
0.0020658
0.00236368
0.00274602
0.00322754
0.00382267
0.0045489
0.00543386
0.00651923
0.00784927
0.00942681
0.0111807
0.0129211
0.0144953
0.015811
0.016847
0.0176241
0.0181814
0.0185616
0.0188035
0.0189398
0.018997
0.0189957
0.0189519
0.0188783
0.0187844
0.0186778
0.0185643
0.0184483
0.0183332
0.0182217
0.0181152
0.018015
0.0179213
0.0178354
0.0177539
0.0176826
0.017616
0.0175497
0.0174831
0.0174152
0.0173448
0.0172711
0.0171932
0.0171107
0.0170231
0.0169303
0.0168322
0.0167291
0.0166209
0.0165085
0.0163878
0.0162523
0.000134209
0.000135288
0.000139314
0.000146559
0.000156774
0.000169846
0.000186442
0.000206353
0.000230238
0.000256468
0.000285042
0.000316134
0.000348246
0.000381247
0.000414552
0.000448476
0.000482648
0.00051689
0.00055103
0.000584669
0.000617705
0.000649894
0.000681012
0.000710931
0.000739597
0.00076697
0.000793151
0.000818222
0.000842303
0.000865543
0.000888142
0.000910376
0.000932556
0.000955108
0.00097856
0.00100355
0.00103087
0.00106148
0.00109663
0.00113785
0.00118709
0.00124678
0.00131996
0.00141044
0.00152311
0.00166429
0.00184202
0.00206613
0.00234791
0.00269939
0.00313272
0.00365996
0.00429455
0.00505499
0.00597135
0.0070868
0.00844444
0.0100542
0.011816
0.0135556
0.0151178
0.0164144
0.017428
0.0181818
0.0187166
0.0190758
0.0192985
0.0194174
0.0194589
0.0194436
0.0193875
0.0193031
0.0191999
0.0190853
0.0189652
0.0188439
0.0187249
0.0186103
0.0185019
0.0184006
0.0183064
0.0182205
0.0181399
0.0180696
0.0180037
0.0179379
0.0178715
0.0178035
0.0177326
0.017658
0.0175788
0.0174945
0.0174048
0.0173093
0.0172083
0.0171019
0.0169902
0.0168739
0.0167493
0.0166095
0.000231337
0.000227806
0.000224369
0.000222303
0.00022152
0.000222131
0.000224236
0.000228607
0.000235207
0.000245039
0.000257288
0.000273482
0.000291737
0.000314237
0.000337568
0.000363666
0.000391044
0.000419595
0.000449607
0.000479888
0.000511585
0.000543622
0.000575755
0.000607755
0.000639304
0.000670198
0.000700362
0.00072981
0.000758651
0.000787085
0.000815392
0.000843994
0.000873338
0.000904097
0.000937058
0.000973131
0.00101339
0.00105908
0.00111173
0.00117311
0.00124539
0.00133122
0.00143384
0.00155734
0.00170678
0.0018884
0.00210961
0.00237884
0.0027052
0.00309836
0.00356836
0.00412604
0.00478493
0.00556474
0.00649705
0.00762496
0.00899533
0.0106067
0.0123622
0.0140944
0.0156446
0.016928
0.0179279
0.0186681
0.0191898
0.0195363
0.0197471
0.0198549
0.0198861
0.0198613
0.0197966
0.0197045
0.0195945
0.0194742
0.0193492
0.0192241
0.019102
0.0189854
0.0188757
0.0187738
0.0186796
0.0185938
0.0185144
0.0184448
0.0183798
0.0183147
0.0182488
0.0181809
0.0181098
0.0180346
0.0179544
0.0178686
0.0177769
0.0176792
0.0175756
0.0174662
0.0173512
0.0172313
0.0171031
0.0169592
0.00040547
0.000398586
0.000391466
0.000385602
0.000380688
0.00037679
0.000373548
0.000371448
0.00037018
0.000370226
0.000370335
0.000372735
0.000376513
0.000382812
0.0003902
0.000400591
0.000412497
0.000428407
0.000445133
0.000468137
0.000489497
0.000517093
0.000546357
0.000577821
0.000610132
0.00064288
0.000675807
0.00070883
0.000742047
0.000775702
0.00081021
0.0008461
0.000884018
0.000925082
0.000970161
0.00102026
0.00107655
0.00114039
0.00121336
0.00129734
0.00139459
0.00150786
0.00164047
0.00179645
0.0019806
0.00219852
0.00245655
0.00276171
0.00312155
0.00354425
0.00403864
0.00461491
0.00528681
0.00607488
0.00701117
0.00814032
0.00950157
0.011095
0.0128328
0.0145484
0.0160854
0.0173598
0.018353
0.0190878
0.0196042
0.0199456
0.020151
0.0202534
0.0202792
0.0202491
0.0201793
0.0200824
0.0199681
0.019844
0.0197158
0.0195881
0.0194641
0.0193462
0.0192358
0.0191336
0.0190398
0.0189543
0.0188763
0.0188071
0.0187431
0.0186789
0.0186136
0.018546
0.018475
0.0183994
0.0183184
0.0182315
0.0181382
0.0180386
0.0179327
0.0178206
0.0177026
0.0175794
0.0174477
0.0173
0.000649272
0.000638656
0.000628407
0.000619075
0.000610886
0.000603933
0.000597786
0.000592893
0.000588979
0.000586127
0.000583826
0.00058238
0.000581186
0.000580952
0.000581359
0.000581898
0.000583964
0.00058766
0.000591994
0.000600432
0.000611112
0.000626282
0.000644857
0.000666649
0.00069163
0.000719638
0.000750449
0.00078389
0.000819887
0.000858492
0.000899985
0.000944715
0.000993343
0.00104644
0.00110492
0.00116985
0.00124246
0.00132421
0.00141674
0.00152201
0.0016423
0.00178034
0.00193929
0.00212289
0.00233543
0.00258181
0.00286748
0.00319849
0.00358133
0.00402324
0.00453219
0.00511787
0.00579406
0.00658182
0.00751466
0.00863016
0.00996554
0.0115291
0.0132359
0.0149262
0.0164477
0.0177156
0.0187078
0.0194439
0.0199622
0.020305
0.0205112
0.0206135
0.0206384
0.0206069
0.0205353
0.0204364
0.0203202
0.0201941
0.0200643
0.0199352
0.0198102
0.0196916
0.019581
0.0194791
0.0193859
0.019301
0.0192244
0.0191553
0.0190923
0.0190291
0.0189646
0.0188975
0.0188267
0.018751
0.0186695
0.0185817
0.0184872
0.0183859
0.018278
0.0181635
0.0180428
0.0179165
0.0177817
0.0176305
0.000972146
0.000956348
0.00094119
0.000927496
0.000914681
0.00090401
0.000893983
0.00088573
0.000878479
0.000872479
0.000867633
0.000863807
0.000860465
0.000857988
0.000856086
0.000855067
0.000854835
0.000856162
0.000858494
0.000863224
0.000869956
0.00087929
0.000891454
0.000906698
0.000925297
0.000947523
0.000973588
0.00100371
0.00103813
0.0010771
0.00112104
0.00117033
0.00122575
0.00128712
0.00135536
0.00143154
0.00151687
0.00161277
0.00172086
0.00184303
0.00198148
0.00213875
0.00231779
0.00252199
0.00275519
0.00302173
0.0033264
0.00367451
0.00407175
0.0045246
0.00504031
0.00562809
0.00630163
0.00708371
0.00800354
0.00909092
0.0103928
0.0119139
0.013578
0.0152346
0.0167376
0.0180001
0.0189954
0.0197384
0.0202648
0.0206152
0.0208276
0.0209347
0.0209631
0.020934
0.0208638
0.0207657
0.0206497
0.0205236
0.0203936
0.0202643
0.0201392
0.0200206
0.0199103
0.0198089
0.0197165
0.0196327
0.019557
0.0194884
0.0194258
0.0193637
0.0193001
0.0192338
0.0191633
0.0190877
0.019006
0.0189176
0.0188221
0.0187195
0.0186098
0.0184933
0.0183703
0.0182412
0.0181035
0.017949
0.00139146
0.00136801
0.00134577
0.00132529
0.00130629
0.00128944
0.00127407
0.00126066
0.00124848
0.00123851
0.00122864
0.00122102
0.00121422
0.00120879
0.00120415
0.00120084
0.00119876
0.00119841
0.00119979
0.00120336
0.00120928
0.00121782
0.0012292
0.00124368
0.00126151
0.00128302
0.00130851
0.00133833
0.00137285
0.00141249
0.00145775
0.00150917
0.00156749
0.00163333
0.00170748
0.00179091
0.00188476
0.00199036
0.00210926
0.00224326
0.00239444
0.00256515
0.00275811
0.00297641
0.00322351
0.00350326
0.00381992
0.00417814
0.0045829
0.00504007
0.00555623
0.00614013
0.00680599
0.00757733
0.00846958
0.00952593
0.0107848
0.0122528
0.0138639
0.0154791
0.0169595
0.0182165
0.0192175
0.0199722
0.0205121
0.0208754
0.0210993
0.021216
0.0212521
0.0212289
0.0211634
0.0210686
0.020955
0.0208307
0.020702
0.0205737
0.0204494
0.0203316
0.020222
0.0201214
0.0200299
0.0199472
0.0198724
0.0198047
0.019742
0.0196811
0.0196185
0.0195529
0.0194831
0.0194078
0.0193261
0.0192373
0.0191411
0.0190374
0.0189264
0.0188081
0.018683
0.0185514
0.0184111
0.0182536
0.00191853
0.0018848
0.00185297
0.00182328
0.00179573
0.00177052
0.00174748
0.00172667
0.00170775
0.00169095
0.00167575
0.00166218
0.00165003
0.00164012
0.00163006
0.00162299
0.00161738
0.00161404
0.00161315
0.00161483
0.00161934
0.00162681
0.0016375
0.00165162
0.00166942
0.00169118
0.00171721
0.00174785
0.00178351
0.00182465
0.00187183
0.00192563
0.0019868
0.00205613
0.00213449
0.00222291
0.00232253
0.00243468
0.00256087
0.0027028
0.00286247
0.00304207
0.00324413
0.00347144
0.00372712
0.0040146
0.00433766
0.00470033
0.00510702
0.00556304
0.00607441
0.00664902
0.00730583
0.00805113
0.00891551
0.00993399
0.011142
0.0125483
0.0140974
0.0156638
0.0171168
0.0183669
0.0193753
0.0201451
0.0207029
0.0210842
0.0213245
0.0214553
0.0215032
0.0214896
0.0214317
0.021343
0.0212342
0.0211136
0.0209877
0.0208615
0.0207389
0.0206225
0.0205141
0.0204146
0.0203243
0.0202428
0.0201691
0.0201021
0.0200396
0.0199792
0.0199176
0.019853
0.0197839
0.0197091
0.0196276
0.0195387
0.0194421
0.0193377
0.0192256
0.0191059
0.018979
0.0188453
0.0187027
0.0185424
0.00255309
0.002507
0.00246346
0.00242253
0.00238431
0.0023488
0.00231599
0.00228579
0.00225807
0.00223269
0.00220959
0.00218858
0.00216928
0.00215277
0.00213698
0.00212462
0.0021135
0.00210441
0.0020994
0.00209747
0.00209908
0.00210393
0.00211253
0.00212502
0.00214165
0.00216267
0.00218836
0.00221907
0.00225518
0.00229717
0.00234558
0.00240101
0.00246419
0.00253592
0.00261714
0.00270886
0.00281226
0.00292864
0.00305948
0.00320641
0.00337136
0.00355635
0.00376368
0.00399595
0.0042559
0.00454661
0.00487142
0.00523372
0.00563759
0.00608792
0.00658892
0.00715507
0.00778755
0.00850712
0.00933865
0.0103135
0.0114644
0.012802
0.0142815
0.0157921
0.0172124
0.0184528
0.0194687
0.0202561
0.0208357
0.0212394
0.0215005
0.0216498
0.0217135
0.0217132
0.0216661
0.0215862
0.0214844
0.0213694
0.0212479
0.0211252
0.0210053
0.0208911
0.0207845
0.0206865
0.0205975
0.0205171
0.0204446
0.0203784
0.0203164
0.0202561
0.0201955
0.0201318
0.0200635
0.0199894
0.0199083
0.0198196
0.0197228
0.019618
0.0195051
0.0193844
0.0192561
0.0191206
0.018976
0.0188132
0.00328289
0.0032234
0.00316698
0.00311364
0.00306344
0.00301636
0.00297239
0.00293141
0.00289338
0.00285808
0.00282547
0.00279548
0.00276766
0.00274291
0.00271984
0.00270022
0.00268289
0.00266806
0.0026578
0.00264876
0.00264564
0.00264587
0.00265087
0.00266001
0.00267384
0.00269248
0.00271623
0.00274543
0.00278046
0.00282178
0.00286992
0.00292548
0.00298914
0.00306171
0.0031441
0.00323734
0.00334254
0.003461
0.00359413
0.00374347
0.00391091
0.00409824
0.00430752
0.00454127
0.00480166
0.00509174
0.00541407
0.00577175
0.00616887
0.00660847
0.00710044
0.0076435
0.00825202
0.00894217
0.00973619
0.0106626
0.0117513
0.0130147
0.0144183
0.0158664
0.0172481
0.0184751
0.0194974
0.0203036
0.0209079
0.0213377
0.0216239
0.0217959
0.0218794
0.0218959
0.021863
0.0217947
0.0217024
0.0215951
0.0214797
0.0213619
0.0212459
0.0211346
0.0210304
0.0209342
0.0208468
0.0207677
0.0206963
0.020631
0.0205698
0.0205099
0.0204497
0.0203869
0.0203196
0.0202464
0.0201659
0.0200775
0.0199809
0.0198759
0.0197626
0.0196411
0.0195117
0.0193748
0.0192285
0.0190636
0.00408594
0.00401332
0.00394412
0.00387831
0.00381595
0.00375701
0.00370147
0.00364924
0.00360027
0.00355439
0.00351153
0.0034717
0.00343453
0.00340062
0.00336921
0.00334128
0.00331644
0.00329467
0.00327738
0.00326281
0.00325375
0.00324641
0.00324623
0.00325007
0.00325968
0.00327424
0.00329438
0.00332038
0.00335262
0.00339157
0.00343769
0.0034916
0.00355395
0.00362554
0.00370722
0.00379999
0.00390494
0.00402326
0.00415634
0.00430559
0.00447287
0.00465969
0.00486778
0.00509982
0.00535706
0.00564305
0.00595881
0.00630833
0.00669505
0.00712374
0.00759378
0.00811452
0.00869581
0.00935254
0.010105
0.010979
0.0120016
0.0131867
0.014509
0.0158887
0.0172255
0.0184342
0.0194605
0.0202854
0.0209164
0.0213755
0.0216907
0.0218893
0.0219965
0.0220336
0.0220181
0.0219644
0.0218843
0.0217868
0.0216795
0.0215681
0.0214571
0.0213498
0.0212486
0.0211549
0.0210694
0.0209918
0.0209216
0.0208572
0.0207967
0.0207377
0.0206782
0.020616
0.0205494
0.0204772
0.0203975
0.0203097
0.0202135
0.0201087
0.0199953
0.0198734
0.0197434
0.0196054
0.0194578
0.0192911
0.00493398
0.00484984
0.00476922
0.00469214
0.00461862
0.00454865
0.00448221
0.00441924
0.0043597
0.00430349
0.00425053
0.00420084
0.00415421
0.00411098
0.00407084
0.00403428
0.00400128
0.00397185
0.00394684
0.00392548
0.00390931
0.00389649
0.00388998
0.00388594
0.00389003
0.00389875
0.00391398
0.00393532
0.00396329
0.0039983
0.00404077
0.00409135
0.00415064
0.00421945
0.00429853
0.00438885
0.00449144
0.00460743
0.00473813
0.00488486
0.00504944
0.00523295
0.00543682
0.0056642
0.00591485
0.00619362
0.00649871
0.00683905
0.0072118
0.00761992
0.00806863
0.00856374
0.00911438
0.0097342
0.0104417
0.01126
0.0122136
0.0133173
0.0145543
0.0158601
0.0171456
0.0183301
0.0193565
0.0201989
0.0208574
0.0213484
0.0216957
0.0219249
0.0220596
0.0221209
0.0221263
0.0220904
0.0220251
0.02194
0.0218427
0.0217395
0.021635
0.0215328
0.0214357
0.021345
0.0212618
0.0211861
0.0211172
0.0210539
0.0209942
0.0209361
0.0208774
0.0208162
0.0207506
0.0206791
0.0206003
0.0205133
0.0204177
0.0203134
0.0202002
0.0200784
0.019948
0.0198095
0.0196611
0.0194933
0.00579613
0.00570321
0.00561369
0.00552761
0.00544498
0.00536584
0.00529017
0.00521796
0.00514918
0.00508378
0.00502172
0.00496303
0.00490761
0.00485568
0.00480714
0.00476229
0.00472124
0.00468408
0.00465132
0.00462272
0.00459914
0.00457981
0.00456629
0.00455679
0.00455432
0.0045548
0.00456396
0.0045795
0.00460213
0.00463196
0.00466943
0.00471529
0.00477001
0.00483442
0.00490911
0.00499513
0.00509341
0.00520495
0.00533105
0.00547298
0.00563246
0.00580998
0.00600669
0.00622671
0.00646762
0.00673587
0.00703143
0.00735404
0.00770808
0.00809535
0.00851953
0.00898592
0.00950289
0.0100829
0.0107425
0.0115026
0.0123853
0.0134056
0.0145542
0.0157811
0.0170088
0.0181625
0.019184
0.0200412
0.0207269
0.0212512
0.0216335
0.0218966
0.0220627
0.0221519
0.0221818
0.022167
0.0221195
0.0220493
0.0219644
0.0218713
0.0217749
0.0216793
0.0215872
0.0215005
0.0214203
0.0213468
0.0212796
0.0212175
0.0211589
0.0211017
0.021044
0.0209838
0.0209192
0.0208487
0.0207709
0.0206849
0.0205903
0.0204868
0.0203742
0.0202527
0.0201225
0.0199838
0.0198352
0.0196667
0.0066422
0.00654403
0.00644891
0.00635689
0.00626804
0.00618239
0.00609997
0.0060208
0.00594489
0.00587223
0.00580283
0.00573673
0.00567393
0.00561458
0.0055587
0.00550653
0.0054582
0.00541389
0.00537393
0.00533834
0.00530764
0.0052816
0.00526108
0.00524537
0.00523596
0.00523141
0.00523347
0.00524273
0.0052573
0.00528103
0.00531247
0.00535266
0.00540159
0.00546017
0.00552887
0.00560901
0.00570126
0.00580637
0.00592591
0.00606103
0.0062132
0.00638212
0.00656883
0.00677911
0.00701009
0.00726342
0.00754235
0.00784723
0.00818031
0.0085437
0.00894051
0.00937551
0.00985621
0.0103938
0.0110034
0.0117034
0.0125139
0.0134499
0.0145079
0.0156516
0.0168152
0.0179311
0.0189414
0.0198092
0.0205204
0.0210785
0.0214979
0.0217979
0.0219988
0.0221197
0.0221777
0.0221874
0.022161
0.0221086
0.0220387
0.0219579
0.0218716
0.021784
0.0216983
0.0216166
0.0215401
0.0214695
0.0214045
0.021344
0.0212867
0.0212307
0.021174
0.021115
0.0210515
0.0209822
0.0209057
0.020821
0.0207277
0.0206253
0.0205137
0.020393
0.0202634
0.020125
0.0199766
0.0198078
0.0074453
0.00734576
0.00724873
0.0071543
0.00706255
0.00697355
0.00688738
0.00680407
0.00672367
0.00664624
0.00657181
0.00650046
0.00643224
0.00636729
0.00630571
0.0062477
0.00619343
0.0061431
0.00609698
0.00605522
0.00601817
0.00598589
0.00595886
0.00593695
0.00592091
0.00591044
0.00590606
0.00590863
0.00591748
0.00593412
0.00595869
0.00599183
0.00603391
0.00608497
0.00614653
0.00621978
0.00630463
0.00640135
0.00651289
0.0066394
0.00678229
0.00694092
0.00711686
0.00731314
0.00752947
0.00776693
0.00802727
0.00831151
0.00862118
0.00895819
0.00932524