/*--------------------------------*- C++ -*----------------------------------*\
  =========                 |
  \\      /  F ield         | OpenFOAM: The Open Source CFD Toolbox
   \\    /   O peration     | Website:  https://openfoam.org
    \\  /    A nd           | Version:  10
     \\/     M anipulation  |
\*---------------------------------------------------------------------------*/
FoamFile
{
    format      ascii;
    class       volScalarField;
    location    "400";
    object      omega;
}
// * * * * * * * * * * * * * * * * * * * * * * * * * * * * * * * * * * * * * //

dimensions      [0 0 -1 0 0 0 0];

internalField   nonuniform List<scalar> 
6820
(
6119.64
8495.53
9975.18
10745.8
11095.2
11205.4
11181.7
11085.6
10953.7
10807.5
10659.4
10516
10380.7
10254.8
10138.5
10031.7
9933.64
9843.75
9761.28
9685.53
9615.86
9551.7
9492.52
9437.87
9387.34
9340.57
9297.24
9257.09
9219.77
9185.65
9150.74
9136.34
9042.55
563.863
1593.64
2118.98
2485.23
2809.9
3047.01
3202.31
3297.6
3353.57
3382
3394.38
3393.4
3389.27
3380.64
3369.96
3358.66
3347.77
3337.32
3328
3319.34
3311.99
3305.15
3299.62
3294.29
3290.21
3286.03
3282.89
3279.67
3276.79
3274.84
3271.58
3271.26
3271.96
97.8515
383.67
612.51
783.197
925.871
1044.08
1139.6
1215.24
1274.95
1321.15
1356.99
1384.03
1404.57
1419.87
1431.19
1439.32
1445.15
1449.07
1451.72
1453.27
1454.14
1454.43
1454.34
1454.02
1453.64
1452.89
1452.44
1451.6
1451.13
1450.37
1449.94
1449.26
1449.14
35.0872
109.688
194.404
270.883
340.012
401.718
456.007
503.231
544.217
579.519
609.895
635.866
658.089
677.023
693.21
706.958
718.726
728.69
737.251
744.464
750.708
755.914
760.488
764.217
767.591
770.234
772.723
774.561
776.391
777.633
778.962
779.753
780.699
22.8644
46.9742
78.9725
111.642
143.69
174.293
202.931
229.366
253.62
275.724
295.804
313.961
330.364
345.133
358.448
370.405
381.184
390.848
399.573
407.382
414.456
420.767
426.515
431.619
436.298
440.425
444.237
447.57
450.67
453.359
455.861
458.024
460.02
19.4482
28.8209
42.7191
57.8259
73.3574
88.8341
103.919
118.402
132.185
145.206
157.447
168.901
179.594
189.543
198.796
207.375
215.337
222.703
229.536
235.847
241.703
247.104
252.121
256.739
261.036
264.984
268.662
272.035
275.176
278.055
280.728
283.179
285.437
18.2937
22.3024
29.0889
36.8332
45.0387
53.4235
61.797
70.0313
78.0491
85.7961
93.2401
100.359
107.145
113.594
119.712
125.501
130.977
136.145
141.023
145.618
149.951
154.027
157.868
161.475
164.875
168.064
171.067
173.881
176.529
179.008
181.335
183.512
185.547
17.8628
19.6405
23.1432
27.4245
32.104
36.9844
41.942
46.8946
51.7888
56.5863
61.2612
65.7946
70.1754
74.3954
78.4517
82.3418
86.0677
89.63
93.0337
96.2806
99.3776
102.327
105.137
107.809
110.352
112.767
115.063
117.242
119.31
121.27
123.128
124.885
126.547
17.6921
18.5021
20.2902
22.7585
25.5613
28.5558
31.6505
34.785
37.9191
41.0245
44.0809
47.0738
49.9932
52.8315
55.5843
58.2482
60.8218
63.3041
65.6958
67.997
70.2098
72.3349
74.3751
76.3316
78.2073
80.0036
81.7236
83.3688
84.9418
86.4444
87.8789
89.2465
90.5499
17.6213
17.9911
18.8822
20.3075
22.0188
23.9095
25.9074
27.9639
30.046
32.1304
34.2004
36.2439
38.2522
40.2187
42.139
44.0096
45.8285
47.594
49.3054
50.9623
52.5648
54.1131
55.608
57.0501
58.4402
59.7793
61.0684
62.3084
63.5005
64.6457
65.7449
66.7989
67.8091
17.591
17.7573
18.1872
18.9888
20.0285
21.2303
22.5386
23.914
25.3284
26.7617
28.1993
29.6305
31.0475
32.4442
33.8164
35.1607
36.4749
37.757
39.006
40.2211
41.4018
42.5478
43.6591
44.7359
45.7785
46.7871
47.7621
48.704
49.6134
50.4906
51.3362
52.1506
52.9346
17.5777
17.6499
17.8527
18.278
18.897
19.6524
20.5067
21.4296
22.3981
23.395
24.4072
25.4251
26.4414
27.4506
28.4484
29.4315
30.3976
31.3448
32.2718
33.1774
34.0609
34.922
35.7601
36.5752
37.3672
38.1361
38.8821
39.6052
40.3057
40.9837
41.6396
42.2734
42.8857
17.5717
17.6008
17.6933
17.9049
18.2594
18.7218
19.2698
19.8826
20.5424
21.2351
21.9496
22.6773
23.4114
24.1468
24.8794
25.606
26.3241
27.032
27.7279
28.4109
29.0799
29.7344
30.3738
30.9978
31.6061
32.1986
32.7751
33.3358
33.8805
34.4093
34.9224
35.4197
35.9015
17.5685
17.5785
17.618
17.7165
17.9083
18.1803
18.5216
18.9192
19.3612
19.8369
20.3372
20.8549
21.384
21.9199
22.4587
22.9973
23.5335
24.0651
24.5907
25.109
25.619
26.12
26.6114
27.0926
27.5634
28.0234
28.4724
28.9103
29.337
29.7524
30.1566
30.5495
30.9311
17.5667
17.5683
17.5829
17.6261
17.7203
17.873
18.077
18.3267
18.6148
18.9343
19.2785
19.6416
20.0189
20.4061
20.7999
21.1975
21.5966
21.9953
22.3921
22.7856
23.175
23.5593
23.9378
24.31
24.6755
25.0339
25.385
25.7284
26.064
26.3918
26.7116
27.0232
27.3269
17.5661
17.5628
17.5666
17.5832
17.6247
17.7045
17.8201
17.9701
18.1512
18.3591
18.5897
18.8387
19.1025
19.3778
19.6617
19.9518
20.246
20.5426
20.8401
21.1374
21.4333
21.727
22.0179
22.3053
22.5887
22.8677
23.1421
23.4115
23.6756
23.9344
24.1876
24.4352
24.6771
17.5661
17.56
17.5585
17.563
17.579
17.6153
17.6766
17.7619
17.8704
18.0004
18.1494
18.315
18.4945
18.6855
18.8859
19.0936
19.3069
19.5244
19.7446
19.9666
20.1892
20.4118
20.6335
20.8539
21.0723
21.2885
21.5019
21.7124
21.9195
22.1233
22.3233
22.5196
22.7119
17.5661
17.5591
17.5541
17.5532
17.5574
17.571
17.5995
17.6445
17.7057
17.7829
17.8749
17.9807
18.0986
18.227
18.3644
18.5093
18.6605
18.8166
18.9765
19.1394
19.3043
19.4705
19.6374
19.8044
19.971
20.1367
20.3013
20.4644
20.6257
20.785
20.9421
21.0969
21.249
17.5662
17.5588
17.5523
17.5478
17.5469
17.55
17.5602
17.5809
17.6126
17.6553
17.709
17.7731
17.8471
17.9301
18.0209
18.1188
18.2227
18.3316
18.4449
18.5617
18.6813
18.803
18.9263
19.0508
19.1759
19.3013
19.4266
19.5515
19.6757
19.799
19.9213
20.0422
20.1617
17.5662
17.5587
17.5517
17.5456
17.5412
17.5396
17.5414
17.5481
17.562
17.5832
17.612
17.6484
17.6923
17.7431
17.8005
17.8639
17.9327
18.0062
18.084
18.1653
18.2497
18.3368
18.4259
18.5168
18.609
18.7021
18.796
18.8902
18.9846
19.0789
19.173
19.2666
19.3595
17.5662
17.5587
17.5515
17.5447
17.5388
17.5343
17.5318
17.5323
17.5358
17.5441
17.5575
17.5762
17.6001
17.6293
17.6635
17.7025
17.746
17.7936
17.845
17.8998
17.9576
18.0182
18.081
18.1458
18.2123
18.2803
18.3494
18.4194
18.4902
18.5614
18.633
18.7047
18.7764
17.5662
17.5587
17.5514
17.5443
17.5378
17.5319
17.5272
17.524
17.523
17.5242
17.5282
17.5361
17.5475
17.5626
17.5814
17.6039
17.63
17.6594
17.6921
17.7277
17.7662
17.8071
17.8504
17.8957
17.9429
17.9917
18.042
18.0934
18.146
18.1994
18.2535
18.3082
18.3634
17.5662
17.5587
17.5514
17.5442
17.5374
17.5309
17.5251
17.5201
17.5164
17.514
17.5137
17.5151
17.5189
17.5256
17.5348
17.5468
17.5615
17.5789
17.599
17.6217
17.6467
17.6741
17.7037
17.7352
17.7686
17.8037
17.8404
17.8784
17.9177
17.9581
17.9995
18.0417
18.0847
17.5662
17.5587
17.5513
17.5442
17.5372
17.5305
17.5242
17.5185
17.5135
17.5094
17.5065
17.505
17.5053
17.507
17.5107
17.5167
17.5249
17.5353
17.5478
17.5626
17.5795
17.5985
17.6195
17.6423
17.667
17.6933
17.7212
17.7506
17.7813
17.8133
17.8463
17.8804
17.9153
17.5662
17.5587
17.5513
17.5441
17.5372
17.5304
17.524
17.518
17.5126
17.5079
17.5042
17.5015
17.5004
17.5007
17.5021
17.5055
17.511
17.5184
17.5277
17.539
17.5523
17.5675
17.5846
17.6035
17.6241
17.6464
17.6702
17.6956
17.7222
17.7502
17.7793
17.8095
17.8406
17.5662
17.5587
17.5513
17.5441
17.5372
17.5305
17.5242
17.5184
17.5132
17.5089
17.5056
17.5035
17.503
17.5038
17.506
17.5103
17.5165
17.5247
17.5348
17.5469
17.5609
17.5768
17.5946
17.6142
17.6354
17.6583
17.6828
17.7086
17.7359
17.7643
17.794
17.8247
17.8563
17.5662
17.5587
17.5513
17.5442
17.5373
17.5309
17.5251
17.52
17.516
17.5132
17.512
17.5124
17.5145
17.5188
17.5252
17.5338
17.5447
17.5578
17.5731
17.5905
17.61
17.6315
17.6549
17.6802
17.7071
17.7357
17.7658
17.7972
17.83
17.8639
17.8989
17.9348
17.9717
17.5662
17.5587
17.5514
17.5444
17.5379
17.5322
17.5276
17.5244
17.5232
17.524
17.527
17.5331
17.5421
17.5541
17.5689
17.5867
17.6074
17.6307
17.6567
17.6852
17.7161
17.7491
17.7841
17.8209
17.8595
17.8996
17.9411
17.9839
18.0279
18.0728
18.1187
18.1653
18.2126
17.5662
17.5587
17.5516
17.5451
17.5396
17.5358
17.5343
17.5355
17.5397
17.5485
17.5616
17.5791
17.601
17.6273
17.6576
17.6919
17.7299
17.7713
17.8158
17.8631
17.913
17.9652
18.0194
18.0754
18.133
18.1919
18.252
18.3132
18.3751
18.4378
18.5011
18.5647
18.6287
17.5662
17.5589
17.5522
17.5473
17.5446
17.5456
17.5505
17.5617
17.5802
17.6055
17.6378
17.6769
17.7225
17.7742
17.8315
17.8937
17.9604
18.0311
18.1053
18.1824
18.2621
18.3439
18.4275
18.5126
18.5989
18.6861
18.774
18.8624
18.9511
19.0399
19.1287
19.2174
19.3059
17.5662
17.5594
17.5546
17.5543
17.558
17.5698
17.5935
17.6286
17.6755
17.7337
17.8026
17.8813
17.9689
18.0642
18.1663
18.2741
18.3867
18.5034
18.6233
18.7458
18.8704
18.9965
19.1236
19.2514
19.3795
19.5077
19.6357
19.7632
19.8901
20.0163
20.1415
20.2658
20.3889
17.5663
17.5617
17.563
17.5719
17.5952
17.6404
17.706
17.7917
17.8962
18.0175
18.1536
18.3023
18.4615
18.6292
18.8039
18.9839
19.1681
19.3554
19.5447
19.7353
19.9265
20.1177
20.3084
20.4983
20.687
20.8742
21.0596
21.2432
21.4247
21.604
21.781
21.9556
22.1279
17.5672
17.57
17.5859
17.6278
17.7112
17.834
17.9925
18.1824
18.3988
18.6366
18.8916
19.1599
19.4381
19.7235
20.0138
20.3073
20.6022
20.8975
21.1921
21.4851
21.7759
22.064
22.349
22.6305
22.9082
23.1819
23.4516
23.717
23.9781
24.2349
24.4874
24.7355
24.9792
17.5716
17.5954
17.6662
17.8179
18.0534
18.355
18.7097
19.105
19.5302
19.9768
20.4378
20.9079
21.3831
21.8601
22.3365
22.8104
23.2803
23.7452
24.2042
24.6566
25.102
25.5401
25.9706
26.3933
26.8081
27.2151
27.6142
28.0054
28.3889
28.7646
29.1328
29.4935
29.8468
17.5854
17.6974
17.9701
18.4423
19.045
19.7391
20.4931
21.2841
22.0959
22.9174
23.7409
24.5611
25.374
26.177
26.9683
27.7464
28.5104
29.2598
29.9942
30.7133
31.4171
32.1057
32.7791
33.4375
34.081
34.71
35.3247
35.9254
36.5124
37.0861
37.6466
38.1945
38.7298
17.6522
18.1439
19.1454
20.458
21.9296
23.4791
25.057
26.636
28.2006
29.7423
31.2569
32.7412
34.1933
35.6124
36.9979
38.35
39.6687
40.9544
42.2076
43.4289
44.6188
45.7781
46.9075
48.0076
49.0793
50.1233
51.1404
52.1313
53.0968
54.0378
54.9548
55.8488
56.7202
18.0423
20.3421
23.6959
27.3254
30.9688
34.5367
37.9988
41.3563
44.6107
47.7725
50.8427
53.8234
56.7167
59.5247
62.2492
64.8922
67.4557
69.9416
72.3521
74.689
76.9547
79.1511
81.2804
83.3448
85.3465
87.2875
89.1699
90.996
92.7677
94.4871
96.1559
97.7766
99.3501
21.0782
32.238
43.8847
55.084
65.2668
74.7254
83.6678
92.2646
100.55
108.529
116.212
123.602
130.707
137.533
144.089
150.382
156.421
162.214
167.773
173.105
178.22
183.128
187.839
192.36
196.702
200.873
204.882
208.736
212.443
216.012
219.448
222.76
225.951
63.2892
131.15
179.994
220.962
253.72
286.934
320.813
353.655
384.795
413.968
441.101
466.234
489.477
510.962
530.83
549.215
566.251
582.053
596.738
610.401
623.141
635.033
646.162
656.586
666.377
675.58
684.259
692.442
700.192
707.523
714.494
721.108
727.426
1672.14
1819.15
1960.96
2086.92
2197.22
2294.24
2379.78
2455.15
2521.49
2579.81
2631.02
2675.91
2715.21
2749.55
2779.51
2805.58
2828.22
2847.82
2864.75
2879.3
2891.77
2902.39
2911.37
2918.92
2925.19
2930.34
2934.5
2937.79
2940.3
2942.13
2943.36
2944.05
2944.3
8868.97
8508.74
7963.33
7404.82
6875.34
6388.02
5944.05
5545.85
5188.07
4867.95
4581.28
4321.56
4086.62
3872.39
3676.76
3496.06
3328.13
3171.19
3023.97
2885.65
2755.35
2632.35
2515.98
2405.56
2300.3
2199.55
2101.67
2006.43
1913.18
1821.28
1729.98
1638.65
1546.62
1453.14
1357.73
1260.03
1159.95
1057.63
953.574
848.749
744.61
643.111
546.582
457.483
378.043
309.85
253.554
208.805
174.43
148.784
130.099
116.746
107.358
100.881
96.5608
93.9173
92.6631
92.6389
93.6178
95.7636
98.8525
102.657
106.937
111.489
116.148
120.785
125.301
129.616
133.674
137.43
140.858
143.94
146.667
149.039
151.061
152.746
154.109
155.169
155.949
156.474
156.771
156.857
156.783
156.518
156.126
155.657
155.129
154.557
153.957
153.34
152.719
152.1
151.49
150.891
150.308
149.74
149.19
148.651
148.154
147.551
3252.63
3286.83
3339.32
3387.69
3435.03
3486.63
3527.46
3554.22
3550.13
3531.63
3490.65
3423.5
3344.61
3253.36
3154.72
3047.51
2935.93
2821.84
2706.48
2591.79
2477.99
2365.97
2256.37
2149.35
2044.88
1942.88
1842.97
1744.86
1648.24
1552.75
1458.05
1363.77
1269.64
1175.39
1080.94
986.366
892.002
798.469
706.701
617.915
533.546
455.127
384.101
321.599
268.25
224.087
188.575
160.752
139.437
123.419
111.597
103.041
96.993
92.8729
90.2536
88.8593
88.5215
89.0601
90.5534
93.0357
96.3638
100.336
104.727
109.347
114.044
118.696
123.21
127.514
131.553
135.29
138.698
141.76
144.47
146.826
148.836
150.509
151.862
152.915
153.69
154.212
154.51
154.6
154.529
154.272
153.895
153.446
152.941
152.395
151.825
151.242
150.656
150.075
149.504
148.946
148.404
147.878
147.372
146.877
146.421
145.873
1448.2
1450.09
1455.14
1457.47
1460.04
1464.87
1474.58
1487.4
1506.31
1526.9
1554.23
1579.01
1609.22
1630.97
1657.57
1676.26
1690.66
1697.7
1694
1681.74
1656.2
1620.49
1575.44
1522.38
1463.17
1399.41
1332.33
1262.89
1191.8
1119.56
1046.54
973.003
899.272
825.579
752.284
679.894
609.059
540.563
475.284
414.131
357.948
307.428
263.02
224.878
192.85
166.522
145.299
128.494
115.413
105.408
97.9177
92.4677
88.6622
86.1899
84.8099
84.3605
84.6818
85.7419
87.6113
90.3257
93.8169
97.893
102.348
107.002
111.712
116.364
120.868
125.158
129.183
132.906
136.303
139.357
142.063
144.418
146.43
148.109
149.47
150.533
151.319
151.856
152.168
152.279
152.224
151.993
151.642
151.223
150.75
150.239
149.706
149.161
148.615
148.076
147.548
147.034
146.537
146.056
145.594
145.146
144.733
144.24
781.352
782.05
783.602
783.229
781.749
779.052
776.186
772.645
769.683
767.048
768.075
769.031
772.558
777.149
785.913
795.298
807.918
818.482
831.905
837.243
846.877
845.756
840.505
829.187
813.043
792.19
766.942
737.734
705.053
669.424
631.358
591.389
550.053
507.729
465.087
422.792
381.501
341.84
304.385
269.628
237.947
209.584
184.64
163.082
144.76
129.437
116.826
106.614
98.4989
92.1941
87.4469
84.0346
81.7575
80.4531
79.9856
80.2279
81.1109
82.5936
84.7281
87.6099
91.2028
95.332
99.8095
104.468
109.17
113.807
118.294
122.568
126.58
130.294
133.687
136.744
139.457
141.825
143.853
145.552
146.937
148.025
148.84
149.406
149.749
149.894
149.869
149.679
149.367
148.987
148.555
148.086
147.596
147.095
146.595
146.101
145.62
145.153
144.702
144.269
143.854
143.453
143.085
142.648
462.067
464.121
466.017
467.315
467.816
467.435
466.526
464.788
462.509
459.723
456.945
454.08
451.757
449.617
448.086
447.753
447.713
448.076
449.647
449.962
450.287
448.905
446.391
442.55
437.021
429.559
420.044
408.453
394.855
379.397
362.262
343.724
324.041
303.591
282.705
261.722
240.981
220.807
201.499
183.313
166.455
151.072
137.253
125.029
114.383
105.26
97.5754
91.2279
86.1118
82.1187
79.1476
77.1019
75.886
75.4173
75.6027
76.4037
77.7483
79.5419
81.8771
84.8742
88.518
92.6578
97.1234
101.759
106.433
111.042
115.505
119.759
123.758
127.467
130.863
133.93
136.66
139.052
141.11
142.843
144.265
145.395
146.252
146.862
147.25
147.443
147.461
147.327
147.065
146.734
146.351
145.932
145.491
145.041
144.59
144.146
143.715
143.298
142.897
142.512
142.146
141.795
141.473
141.093
287.877
290.385
292.747
294.68
296.333
297.28
298
298.12
297.903
297.277
296.294
295.026
293.683
292.172
290.63
288.997
287.349
285.482
283.628
281.393
278.962
276.194
273.056
269.489
265.409
260.723
255.354
249.238
242.34
234.652
226.191
217.028
207.218
197.017
186.521
175.853
165.153
154.569
144.248
134.332
124.942
116.184
108.14
100.867
94.4006
88.7542
83.9256
79.8981
76.6491
74.1468
72.36
71.2531
70.7853
70.9021
71.5837
72.8475
74.5212
76.5582
79.0433
82.1119
85.7658
89.8804
94.3039
98.8916
103.52
108.088
112.517
116.748
120.733
124.439
127.842
130.925
133.681
136.107
138.206
139.985
141.459
142.642
143.556
144.224
144.671
144.922
145
144.931
144.733
144.46
144.135
143.772
143.387
142.992
142.596
142.207
141.829
141.464
141.116
140.783
140.468
140.167
139.895
139.571
187.775
190.138
192.377
194.392
196.206
197.697
198.951
199.886
200.611
200.964
201.29
201.241
201.057
200.651
200.132
199.421
198.545
197.436
196.113
194.522
192.663
190.524
188.102
185.394
182.394
179.09
175.475
171.539
167.276
162.685
157.767
152.543
147.025
141.264
135.314
129.234
123.093
116.963
110.919
105.04
99.3972
94.0607
89.0906
84.5383
80.4445
76.8404
73.7471
71.1776
69.1404
67.6351
66.6611
66.2125
66.27
66.7999
67.9074
69.4775
71.4025
73.6266
76.2201
79.3236
82.9543
87.0135
91.3687
95.8869
100.451
104.965
109.353
113.554
117.523
121.226
124.638
127.744
130.532
132.999
135.148
136.984
138.52
139.77
140.753
141.492
142.009
142.331
142.483
142.485
142.366
142.16
141.9
141.602
141.279
140.945
140.609
140.278
139.957
139.648
139.355
139.076
138.814
138.566
138.344
138.078
128.381
130.366
132.264
134.047
135.698
137.188
138.518
139.672
140.67
141.487
142.162
142.69
143.09
143.288
143.497
143.443
143.265
142.894
142.321
141.543
140.548
139.338
137.908
136.258
134.39
132.307
130.014
127.514
124.811
121.913
118.826
115.561
112.132
108.559
104.868
101.092
97.2665
93.433
89.635
85.919
82.3302
78.9149
75.7162
72.774
70.124
67.7972
65.819
64.2118
62.9942
62.1773
61.7741
61.7968
62.1983
63.1033
64.4761
66.2674
68.3774
70.7402
73.407
76.5151
80.0955
84.0741
88.3379
92.7665
97.2505
101.697
106.033
110.198
114.147
117.845
121.268
124.397
127.222
129.738
131.944
133.846
135.454
136.78
137.844
138.665
139.265
139.67
139.903
139.989
139.956
139.831
139.644
139.416
139.163
138.895
138.623
138.354
138.094
137.845
137.609
137.387
137.18
136.987
136.817
136.61
91.9984
93.5852
95.1194
96.5899
97.9828
99.2874
100.495
101.601
102.604
103.505
104.301
104.998
105.612
106.088
106.529
106.798
107.007
107.117
107.024
106.784
106.375
105.819
105.097
104.212
103.163
101.952
100.585
99.063
97.3929
95.5804
93.6329
91.5597
89.3722
87.0843
84.7132
82.2793
79.8063
77.3207
74.8511
72.429
70.0846
67.8516
65.7622
63.8465
62.1351
60.6546
59.4299
58.4855
57.8404
57.5097
57.5231
57.8401
58.5686
59.7042
61.2592
63.2016
65.4396
67.8986
70.6088
73.6964
77.2044
81.0813
85.2337
89.5546
93.9423
98.3088
102.582
106.702
110.626
114.316
117.748
120.902
123.766
126.333
128.602
130.576
132.264
133.677
134.83
135.743
136.437
136.935
137.26
137.439
137.497
137.464
137.36
137.21
137.032
136.835
136.633
136.431
136.236
136.049
135.874
135.711
135.562
135.425
135.309
135.162
68.9379
70.185
71.4017
72.5824
73.7186
74.8042
75.8324
76.8003
77.7039
78.5438
79.3172
80.0226
80.6707
81.2331
81.7495
82.1667
82.5183
82.7987
82.9435
83.0579
82.9955
82.8389
82.5465
82.1426
81.6157
80.9704
80.2072
79.3281
78.3364
77.2361
76.0332
74.7346
73.3493
71.8875
70.362
68.7872
67.1802
65.56
63.9469
62.3643
60.8334
59.3808
58.032
56.8091
55.7405
54.8456
54.1506
53.6767
53.4391
53.4655
53.7377
54.3411
55.2721
56.5622
58.2361
60.2722
62.5889
65.1065
67.8339
70.8802
74.2981
78.0562
82.0801
86.2767
90.5529
94.8256
99.0244
103.092
106.982
110.66
114.098
117.275
120.178
122.798
125.134
127.185
128.958
130.463
131.714
132.728
133.524
134.125
134.552
134.832
134.99
135.053
135.043
134.979
134.881
134.762
134.634
134.504
134.377
134.257
134.145
134.044
133.954
133.876
133.817
133.731
53.8142
54.7921
55.7532
56.6939
57.6091
58.4949
59.3469
60.1625
60.9384
61.6738
62.367
63.0152
63.623
64.1777
64.692
65.1469
65.5485
65.8973
66.1645
66.3852
66.5034
66.5962
66.5539
66.4426
66.2295
65.9353
65.5531
65.0847
64.5315
63.8961
63.1829
62.3967
61.5442
60.6327
59.6721
58.6731
57.6484
56.6123
55.5802
54.5698
53.5965
52.6829
51.8503
51.1129
50.5004
50.0219
49.7106
49.5749
49.6316
49.8918
50.4116
51.1914
52.2596
53.6508
55.3935
57.4763
59.8294
62.372
65.0935
68.0814
71.3954
75.0209
78.9018
82.9594
87.1099
91.2754
95.3882
99.3921
103.241
106.899
110.337
113.534
116.474
119.148
121.55
123.681
125.543
127.146
128.5
129.622
130.528
131.239
131.777
132.166
132.431
132.596
132.685
132.716
132.708
132.671
132.622
132.568
132.514
132.463
132.418
132.381
132.354
132.336
132.336
132.314
43.575
44.3452
45.1065
45.8565
46.5921
47.3107
48.0092
48.6857
49.3378
49.9641
50.5634
51.1333
51.6752
52.1833
52.6608
53.1004
53.5019
53.8645
54.1765
54.448
54.6575
54.8306
54.9264
54.9998
54.9723
54.896
54.7475
54.5373
54.2641
53.9301
53.5387
53.0925
52.5969
52.0569
51.4805
50.8756
50.2519
49.6205
48.993
48.3833
47.8025
47.2711
46.8077
46.4177
46.136
45.9581
45.931
46.0255
46.2977
46.7652
47.439
48.3416
49.5007
50.9509
52.7231
54.8144
57.168
59.7059
62.4011
65.3167
68.5162
71.9985
75.7247
79.6303
83.6417
87.6868
91.7014
95.6304
99.4281
103.057
106.489
109.7
112.674
115.398
117.866
120.076
122.029
123.732
125.194
126.429
127.451
128.279
128.935
129.44
129.818
130.092
130.286
130.417
130.502
130.557
130.593
130.619
130.641
130.664
130.689
130.72
130.758
130.803
130.862
130.902
36.4456
37.0561
37.6622
38.2626
38.8551
39.438
40.0092
40.5672
41.1102
41.637
42.1464
42.6369
43.1082
43.5577
43.9854
44.3882
44.7647
45.1137
45.4299
45.7155
45.9619
46.1767
46.3444
46.4837
46.565
46.6314
46.6268
46.5776
46.4811
46.3414
46.1608
45.9399
45.6839
45.3959
45.0832
44.7508
44.4063
44.059
43.7172
43.3915
43.0907
42.8347
42.639
42.5001
42.4603
42.5036
42.6581
42.9526
43.3897
43.9909
44.7736
45.7587
46.9728
48.4495
50.2202
52.2896
54.6137
57.1206
59.7712
62.6036
65.6808
69.0124
72.5746
76.3174
80.1774
84.0897
87.9935
91.8356
95.5709
99.1619
102.578
105.796
108.797
111.567
114.098
116.385
118.429
120.233
121.804
123.154
124.296
125.247
126.026
126.652
127.15
127.54
127.844
128.081
128.267
128.417
128.543
128.654
128.757
128.857
128.956
129.057
129.162
129.273
129.394
129.498
31.3632
31.8499
32.3351
32.8178
33.2967
33.7705
34.2378
34.6974
35.1481
35.5887
36.0184
36.436
36.8408
37.2315
37.6073
37.9666
38.3081
38.6305
38.9314
39.2106
39.4642
39.694
39.894
40.0697
40.2109
40.3296
40.4143
40.4625
40.4922
40.4776
40.4348
40.3623
40.2672
40.1512
40.0205
39.8767
39.7274
39.581
39.4418
39.3182
39.2184
39.1625
39.1628
39.2053
39.3277
39.5415
39.8505
40.2753
40.828
41.5243
42.381
43.4177
44.6593
46.1372
47.8827
49.9062
52.1762
54.6294
57.2193
59.9608
62.9099
66.086
69.4778
73.0488
76.7468
80.5142
84.2948
88.0377
91.6986
95.2401
98.631
101.846
104.866
107.675
110.263
112.624
114.755
116.659
118.34
119.806
121.071
122.147
123.052
123.806
124.427
124.939
125.359
125.706
125.998
126.249
126.47
126.671
126.859
127.039
127.215
127.39
127.566
127.744
127.929
128.1
27.6715
28.0611
28.451
28.8405
29.2286
29.6146
29.9973
30.3759
30.7495
31.1172
31.4782
31.8318
32.1772
32.5136
32.8402
33.1559
33.46
33.7512
34.0284
34.2906
34.5362
34.7652
34.9748
35.1667
35.337
35.4887
35.6199
35.7278
35.8186
35.8865
35.9347
35.9639
35.9776
35.9823
35.9765
35.9618
35.9486
35.9458
35.9487
35.9694
36.0139
36.1001
36.2348
36.4188
36.67
37
37.418
37.9375
38.571
39.3321
40.2359
41.3002
42.548
44.008
45.7104
47.6699
49.8663
52.2467
54.7615
57.4067
60.2243
63.2424
66.4599
69.8526
73.3796
76.9912
80.6366
84.2678
87.8419
91.3216
94.6755
97.8776
100.907
103.746
106.384
108.812
111.026
113.025
114.813
116.396
117.782
118.986
120.02
120.903
121.653
122.29
122.831
123.295
123.697
124.053
124.374
124.669
124.946
125.21
125.467
125.718
125.967
126.216
126.468
126.708
24.9524
25.2647
25.5786
25.8934
26.2084
26.5231
26.8368
27.1487
27.4582
27.7646
28.0673
28.3658
28.6593
28.9474
29.2294
29.5046
29.7724
30.032
30.2825
30.5235
30.7537
30.973
31.1801
31.3751
31.5568
31.7256
31.8815
32.0233
32.153
32.27
32.3754
32.47
32.5565
32.6369
32.7154
32.7932
32.8758
32.9691
33.0757
33.2016
33.3536
33.5421
33.7754
34.0585
34.4023
34.817
35.3119
35.898
36.5864
37.3889
38.319
39.3928
40.6306
42.0586
43.7049
45.5873
47.6952
49.987
52.4141
54.9586
57.6443
60.5047
63.5465
66.7569
70.1057
73.552
77.0509
80.558
84.0324
87.4376
90.742
93.9188
96.9458
99.8053
102.484
104.971
107.26
109.35
111.24
112.936
114.443
115.773
116.937
117.952
118.832
119.597
120.263
120.847
121.365
121.831
122.255
122.648
123.018
123.371
123.711
124.042
124.368
124.689
125.011
125.322
22.9315
23.1817
23.4341
23.6883
23.9439
24.2004
24.4573
24.714
24.9702
25.2252
25.4786
25.7299
25.9788
26.2247
26.4672
26.7059
26.9402
27.1697
27.3939
27.6123
27.8243
28.0296
28.2277
28.4185
28.6014
28.7765
28.9441
29.104
29.2569
29.4034
29.5444
29.6809
29.8149
29.948
30.0836
30.224
30.3729
30.5348
30.7135
30.914
31.1418
31.4043
31.7091
32.0622
32.4719
32.9466
33.4948
34.1259
34.8494
35.6757
36.6165
37.6859
38.902
40.2878
41.8692
43.6656
45.6745
47.8653
50.1939
52.6334
55.1911
57.8952
60.7625
63.789
66.9548
70.228
73.5703
76.9416
80.3035
83.6209
86.8624
90.0009
93.0135
95.8811
98.5887
101.125
103.481
105.653
107.64
109.444
111.068
112.522
113.815
114.961
115.973
116.868
117.662
118.369
119.006
119.585
120.117
120.612
121.079
121.523
121.951
122.365
122.77
123.167
123.561
123.946
21.4235
21.6231
21.8254
22.0301
22.2369
22.4455
22.6555
22.8664
23.078
23.2898
23.5016
23.7129
23.9235
24.133
24.3411
24.5475
24.7519
24.9539
25.1534
25.3499
25.5431
25.733
25.9192
26.1016
26.2803
26.4552
26.6266
26.7949
26.9605
27.1242
27.287
27.4499
27.6148
27.7831
27.9576
28.1406
28.3354
28.5455
28.7749
29.0277
29.3089
29.6242
29.9801
30.3824
30.838
31.3541
31.9382
32.598
33.3419
34.1787
35.1187
36.1738
37.3598
38.6968
40.2081
41.9133
43.8165
45.8973
48.1185
50.4489
52.8825
55.4364
58.1326
60.9763
63.9569
67.0511
70.228
73.4527
76.6898
79.9061
83.0711
86.1575
89.142
92.0046
94.7292
97.3026
99.7152
101.961
104.036
105.94
107.676
109.249
110.668
111.943
113.087
114.113
115.036
115.869
116.628
117.323
117.965
118.566
119.133
119.672
120.19
120.69
121.177
121.653
122.121
122.583
20.2993
20.4576
20.6189
20.783
20.9496
21.1187
21.2897
21.4626
21.637
21.8127
21.9894
22.1669
22.3449
22.5233
22.7017
22.8801
23.0582
23.2358
23.4129
23.5891
23.7645
23.939
24.1125
24.285
24.4567
24.6278
24.7985
24.9694
25.1411
25.3143
25.4901
25.6695
25.8543
26.0459
26.2467
26.4589
26.6853
26.9292
27.194
27.4835
27.8022
28.1548
28.5466
28.9832
29.4704
30.0142
30.6211
31.2978
32.0513
32.8892
33.8201
34.8541
36.0047
37.2892
38.7279
40.3402
42.1344
44.0994
46.2062
48.4236
50.7361
53.1496
55.6816
58.3462
61.1417
64.0537
67.0584
70.1269
73.2276
76.3299
79.4044
82.4246
85.3666
88.2102
90.938
93.5357
95.9924
98.2997
100.453
102.449
104.289
105.976
107.516
108.917
110.19
111.346
112.398
113.358
114.239
115.053
115.809
116.518
117.188
117.825
118.436
119.026
119.597
120.154
120.699
121.241
19.4671
19.5917
19.7194
19.8503
19.984
20.1204
20.2595
20.4008
20.5444
20.69
20.8375
20.9866
21.1372
21.2892
21.4425
21.5969
21.7524
21.9089
22.0664
22.2247
22.3839
22.5441
22.7054
22.8679
23.0318
23.1974
23.3652
23.5357
23.7096
23.8877
24.071
24.2607
24.4583
24.6655
24.884
25.1163
25.3648
25.6324
25.9222
26.2377
26.5827
26.9614
27.3785
27.8388
28.3471
28.909
29.5297
30.2149
30.9706
31.8031
32.7195
33.7283
34.8407
36.0714
37.4377
38.9578
40.6429
42.4895
44.4773
46.5782
48.7713
51.0529
53.4333
55.9265
58.54
61.2688
64.0969
67.0013
69.9553
72.9313
75.9019
78.8413
81.7262
84.5359
87.2522
89.8602
92.3472
94.7037
96.9229
99.0004
100.935
102.727
104.382
105.904
107.302
108.586
109.766
110.852
111.856
112.789
113.66
114.479
115.255
115.993
116.7
117.381
118.041
118.681
119.305
119.93
18.8598
18.9573
19.058
19.1619
19.2689
19.3789
19.4918
19.6075
19.7259
19.8468
19.9702
20.096
20.224
20.3543
20.4867
20.6212
20.7579
20.8966
21.0375
21.1806
21.326
21.4738
21.6243
21.7776
21.9341
22.0942
22.2584
22.4273
22.6016
22.7821
22.97
23.1663
23.3726
23.5904
23.8215
24.068
24.3323
24.617
24.9248
25.259
25.6229
26.0204
26.4554
26.9321
27.4548
28.028
28.6564
29.3448
30.0979
30.9211
31.8201
32.8018
33.8756
35.0533
36.3497
37.7808
39.3594
41.0879
42.9543
44.936
47.0105
49.1667
51.4072
53.7428
56.1835
58.7315
61.3809
64.1156
66.9139
69.7524
72.6062
75.4508
78.2636
81.024
83.7136
86.3166
88.8194
91.2111
93.4832
95.63
97.6482
99.5367
101.297
102.934
104.451
105.858
107.161
108.371
109.497
110.549
111.536
112.467
113.349
114.19
114.996
115.771
116.52
117.248
117.953
118.665
18.428
18.5042
18.5837
18.6664
18.7524
18.8416
18.9339
19.0292
19.1276
19.229
19.3333
19.4405
19.5506
19.6635
19.7793
19.8979
20.0195
20.1441
20.2718
20.4027
20.537
20.6749
20.8166
20.9626
21.1131
21.2686
21.4298
21.5971
21.7715
21.9537
22.1449
22.3463
22.5591
22.7851
23.0258
23.2833
23.5597
23.8575
24.179
24.5274
24.9057
25.3174
25.7658
26.2545
26.7874
27.3682
28.0009
28.6893
29.4376
30.2498
31.1306
32.0854
33.1218
34.2496
35.48
36.8274
38.3047
39.9183
41.6637
43.5247
45.4809
47.5165
49.6271
51.8182
54.0994
56.4769
58.951
61.5131
64.1486
66.8399
69.5649
72.301
75.027
77.7226
80.3697
82.9518
85.4548
87.8665
90.1772
92.3798
94.4692
96.4422
98.2983
100.039
101.668
103.19
104.612
105.942
107.188
108.357
109.459
110.502
111.493
112.438
113.343
114.215
115.056
115.872
116.661
117.463
18.1354
18.1959
18.2597
18.3267
18.397
18.4706
18.5475
18.6277
18.7112
18.798
18.8881
18.9814
19.0781
19.1782
19.2817
19.3886
19.4992
19.6134
19.7315
19.8537
19.9801
20.111
20.2468
20.3878
20.5344
20.6872
20.8469
21.014
21.1893
21.3739
21.5687
21.775
21.994
22.2273
22.4766
22.7438
23.0308
23.34
23.674
24.0354
24.4269
24.8513
25.3117
25.8111
26.3528
26.9399
27.5758
28.2636
29.0065
29.8077
30.6707
31.5995
32.6003
33.6811
34.8513
36.122
37.5053
39.0099
40.6373
42.3783
44.2161
46.1342
48.1228
50.1816
52.3169
54.5362
56.8437
59.2374
61.7093
64.2467
66.8323
69.4472
72.0718
74.6872
77.2757
79.8206
82.3073
84.723
87.0567
89.2995
91.445
93.4883
95.427
97.2606
98.9906
100.62
102.154
103.599
104.959
106.244
107.459
108.613
109.712
110.762
111.768
112.738
113.673
114.58
115.453
116.35
17.957
18.0071
18.0605
18.1172
18.1772
18.2405
18.3073
18.3776
18.4513
18.5286
18.6094
18.6939
18.782
18.874
18.9698
19.0695
19.1735
19.2816
19.3943
19.5117
19.6341
19.7618
19.8951
20.0346
20.1807
20.3339
20.4949
20.6645
20.8435
21.0328
21.2334
21.4467
21.6738
21.9164
22.1759
22.4542
22.7532
23.0751
23.422
23.7967
24.2002
24.636
25.1068
25.6155
26.1649
26.7578
27.3969
28.0848
28.8241
29.6172
30.4669
31.3759
32.3492
33.3919
34.508
35.7084
37.0043
38.405
39.9166
41.5393
43.2596
45.0622
46.9344
48.8709
50.8735
52.9478
55.0998
57.3321
59.6425
62.0238
64.464
66.9478
69.4587
71.9795
74.4933
76.9841
79.4371
81.839
84.178
86.444
88.6292
90.7274
92.7343
94.6478
96.4673
98.1943
99.8315
101.383
102.853
104.248
105.574
106.837
108.042
109.197
110.305
111.373
112.403
113.403
114.362
115.358
17.878
17.9232