/*--------------------------------*- C++ -*----------------------------------*\
  =========                 |
  \\      /  F ield         | OpenFOAM: The Open Source CFD Toolbox
   \\    /   O peration     | Website:  https://openfoam.org
    \\  /    A nd           | Version:  10
     \\/     M anipulation  |
\*---------------------------------------------------------------------------*/
FoamFile
{
    format      ascii;
    class       volScalarField;
    location    "400";
    object      p;
}
// * * * * * * * * * * * * * * * * * * * * * * * * * * * * * * * * * * * * * //

dimensions      [0 2 -2 0 0 0 0];

internalField   nonuniform List<scalar> 
6820
(
8.58068
-2.30921
-5.82862
-6.56253
-6.96426
-7.30337
-7.49654
-7.59386
-7.6603
-7.71595
-7.76155
-7.79887
-7.83123
-7.86068
-7.88797
-7.91356
-7.93793
-7.96144
-7.98437
-8.00694
-8.02931
-8.05164
-8.07409
-8.09676
-8.11977
-8.14323
-8.16723
-8.19184
-8.21702
-8.24295
-8.26856
-8.29627
-8.31088
-13.3073
-9.62941
-8.88473
-8.11578
-7.75143
-7.68559
-7.68455
-7.68923
-7.70831
-7.73867
-7.77079
-7.80102
-7.82965
-7.85711
-7.88336
-7.90847
-7.93264
-7.95611
-7.97909
-8.00173
-8.02418
-8.0466
-8.06912
-8.09185
-8.11492
-8.13842
-8.16245
-8.18713
-8.21246
-8.23876
-8.26547
-8.29538
-8.32402
-11.1587
-7.58464
-7.32952
-7.33173
-7.32591
-7.4249
-7.52626
-7.59485
-7.65034
-7.70137
-7.74602
-7.78417
-7.81785
-7.84851
-7.87684
-7.90333
-7.92843
-7.95255
-7.97597
-7.99891
-8.02157
-8.04413
-8.06673
-8.08951
-8.11259
-8.13609
-8.16011
-8.18479
-8.21019
-8.23665
-8.26397
-8.29422
-8.32401
-8.66954
-7.2105
-7.36138
-7.4778
-7.46286
-7.51872
-7.58998
-7.6395
-7.68051
-7.72059
-7.75771
-7.79093
-7.82129
-7.84967
-7.87644
-7.90187
-7.92626
-7.94988
-7.97294
-7.99563
-8.01811
-8.04052
-8.063
-8.08567
-8.10864
-8.13203
-8.15595
-8.18054
-8.20591
-8.23235
-8.25989
-8.28969
-8.32022
-8.21009
-7.5128
-7.55346
-7.56998
-7.52615
-7.55435
-7.60735
-7.64925
-7.68637
-7.72362
-7.75895
-7.79121
-7.821
-7.84899
-7.87546
-7.90067
-7.92488
-7.94834
-7.97126
-7.9938
-8.01614
-8.0384
-8.06072
-8.08323
-8.10602
-8.12923
-8.15296
-8.17736
-8.20255
-8.2288
-8.25623
-8.28557
-8.31629
-8.14472
-7.66962
-7.62371
-7.60204
-7.56366
-7.58271
-7.62508
-7.66239
-7.69684
-7.73144
-7.76457
-7.79527
-7.8239
-7.85095
-7.87667
-7.90127
-7.92498
-7.94803
-7.97058
-7.99281
-8.01484
-8.03683
-8.05888
-8.08111
-8.10362
-8.12654
-8.14998
-8.17407
-8.19895
-8.22483
-8.2519
-8.28063
-8.31096
-8.02934
-7.70336
-7.65145
-7.629
-7.60051
-7.61367
-7.64677
-7.67887
-7.70987
-7.7413
-7.77187
-7.80071
-7.82796
-7.85392
-7.87877
-7.90267
-7.92582
-7.94838
-7.97052
-7.99238
-8.01407
-8.03573
-8.05746
-8.07936
-8.10155
-8.12412
-8.14719
-8.17088
-8.19532
-8.22071
-8.24721
-8.27514
-8.3046
-7.92318
-7.71817
-7.6759
-7.65601
-7.63413
-7.64294
-7.66858
-7.69583
-7.72344
-7.75189
-7.78001
-7.807
-7.83284
-7.85768
-7.88162
-7.90478
-7.92731
-7.94934
-7.97102
-7.99244
-8.01374
-8.03502
-8.05637
-8.07789
-8.09968
-8.12184
-8.14446
-8.16766
-8.19156
-8.21631
-8.24205
-8.26901
-8.29727
-7.85412
-7.7313
-7.69597
-7.67826
-7.66187
-7.66837
-7.68873
-7.7121
-7.73679
-7.76262
-7.78851
-7.81376
-7.83823
-7.86194
-7.88496
-7.90736
-7.92923
-7.9507
-7.97186
-7.99283
-8.01369
-8.03454
-8.05547
-8.07657
-8.09791
-8.11959
-8.14169
-8.16432
-8.18757
-8.21156
-8.2364
-8.26223
-8.28912
-7.81169
-7.73982
-7.7106
-7.69578
-7.68434
-7.68993
-7.70674
-7.72714
-7.7494
-7.77297
-7.7969
-7.82056
-7.84373
-7.86636
-7.88848
-7.91011
-7.93132
-7.95221
-7.97285
-7.99333
-8.01373
-8.03413
-8.0546
-8.07522
-8.09607
-8.11722
-8.13874
-8.16072
-8.18324
-8.20637
-8.2302
-8.25481
-8.2802
-7.78574
-7.74472
-7.72175
-7.71007
-7.70272
-7.70808
-7.7225
-7.74064
-7.7609
-7.78257
-7.80481
-7.82704
-7.84901
-7.87064
-7.89189
-7.91278
-7.93335
-7.95365
-7.97376
-7.99375
-8.01366
-8.03358
-8.05357
-8.07369
-8.09401
-8.11458
-8.13547
-8.15674
-8.17844
-8.20065
-8.22339
-8.2467
-8.27056
-7.77076
-7.74814
-7.73098
-7.72218
-7.71797
-7.72338
-7.73616
-7.75256
-7.77117
-7.79124
-7.812
-7.83296
-7.85385
-7.87454
-7.89498
-7.91516
-7.9351
-7.95484
-7.97442
-7.99389
-8.01332
-8.03274
-8.05222
-8.07181
-8.09156
-8.11151
-8.13172
-8.15223
-8.17307
-8.19429
-8.21589
-8.23788
-8.26019
-7.76322
-7.75129
-7.73903
-7.73275
-7.73088
-7.73642
-7.74801
-7.76303
-7.78024
-7.79892
-7.8184
-7.83822
-7.85811
-7.87793
-7.89761
-7.91711
-7.93644
-7.95561
-7.97466
-7.99362
-8.01254
-8.03146
-8.05041
-8.06944
-8.08859
-8.10789
-8.12738
-8.14708
-8.16703
-8.18722
-8.20766
-8.22832
-8.24912
-7.76061
-7.75466
-7.74631
-7.74216
-7.74203
-7.7477
-7.75837
-7.77223
-7.78822
-7.80567
-7.824
-7.84277
-7.86174
-7.88074
-7.89969
-7.91853
-7.93726
-7.95587
-7.97439
-7.99284
-8.01124
-8.02962
-8.04803
-8.06648
-8.085
-8.10362
-8.12236
-8.14124
-8.16025
-8.17941
-8.19868
-8.21803
-8.23737
-7.76115
-7.75845
-7.75308
-7.7507
-7.75183
-7.75759
-7.76752
-7.78037
-7.79526
-7.8116
-7.82886
-7.84666
-7.86475
-7.88296
-7.90119
-7.91939
-7.93752
-7.95557
-7.97355
-7.99147
-8.00934
-8.02718
-8.04501
-8.06286
-8.08074
-8.09865
-8.11662
-8.13465
-8.15272
-8.17083
-8.18895
-8.20702
-8.22496
-7.76369
-7.76265
-7.75949
-7.75852
-7.76057
-7.76637
-7.77567
-7.78761
-7.8015
-7.8168
-7.83306
-7.84993
-7.86717
-7.88461
-7.90214
-7.91969
-7.93722
-7.9547
-7.97213
-7.9895
-8.00682
-8.02409
-8.04134
-8.05856
-8.07577
-8.09296
-8.11014
-8.12731
-8.14444
-8.16151
-8.1785
-8.19533
-8.21194
-7.76744
-7.76721
-7.76562
-7.76574
-7.76844
-7.77422
-7.78297
-7.79409
-7.80704
-7.82137
-7.83668
-7.85265
-7.86906
-7.88574
-7.90256
-7.91946
-7.93637
-7.95327
-7.97013
-7.98693
-8.00368
-8.02038
-8.03701
-8.05359
-8.07011
-8.08656
-8.10295
-8.11924
-8.13543
-8.15149
-8.16737
-8.18303
-8.19838
-7.77189
-7.77201
-7.77151
-7.77243
-7.77556
-7.78127
-7.7895
-7.79988
-7.81196
-7.82537
-7.83977
-7.85487
-7.87046
-7.88638
-7.9025
-7.91874
-7.93502
-7.95132
-7.96758
-7.98381
-7.99997
-8.01605
-8.03206
-8.04798
-8.06379
-8.0795
-8.09508
-8.11051
-8.12577
-8.14083
-8.15564
-8.17017
-8.18433
-7.77669
-7.77695
-7.77717
-7.77864
-7.78202
-7.78759
-7.79535
-7.80502
-7.81629
-7.82883
-7.84236
-7.85662
-7.87141
-7.88657
-7.90198
-7.91755
-7.9332
-7.94887
-7.96454
-7.98016
-7.99571
-8.01117
-8.02653
-8.04177
-8.05688
-8.07182
-8.08659
-8.10117
-8.11551
-8.1296
-8.14339
-8.15684
-8.16989
-7.78163
-7.78192
-7.78258
-7.78441
-7.78788
-7.79325
-7.80053
-7.80955
-7.82005
-7.83177
-7.84446
-7.85791
-7.87192
-7.88634
-7.90104
-7.91593
-7.93093
-7.94598
-7.96103
-7.97603
-7.99096
-8.00578
-8.02048
-8.03504
-8.04942
-8.0636
-8.07757
-8.0913
-8.10475
-8.1179
-8.1307
-8.14312
-8.15512
-7.78656
-7.78684
-7.78775
-7.78974
-7.79319
-7.79829
-7.80509
-7.81347
-7.82323
-7.83417
-7.84607
-7.85873
-7.87198
-7.88567
-7.89968
-7.9139
-7.92825
-7.94267
-7.95708
-7.97146
-7.98576
-7.99993
-8.01397
-8.02783
-8.04149
-8.05492
-8.06809
-8.08098
-8.09356
-8.1058
-8.11766
-8.1291
-8.1401
-7.79141
-7.79166
-7.79266
-7.79467
-7.79796
-7.80274
-7.80904
-7.81678
-7.82584
-7.83603
-7.84717
-7.85907
-7.87159
-7.88457
-7.8979
-7.91146
-7.92516
-7.93895
-7.95274
-7.96648
-7.98014
-7.99367
-8.00704
-8.0202
-8.03314
-8.04582
-8.05822
-8.0703
-8.08203
-8.09339
-8.10434
-8.11486
-8.12491
-7.79611
-7.79633
-7.7973
-7.79919
-7.80223
-7.8066
-7.81236
-7.81948
-7.82785
-7.83731
-7.84772
-7.85891
-7.87072
-7.88302
-7.89568
-7.9086
-7.92167
-7.93483
-7.948
-7.96112
-7.97415
-7.98704
-7.99974
-8.01222
-8.02445
-8.0364
-8.04803
-8.05931
-8.07023
-8.08074
-8.09083
-8.10047
-8.10963
-7.80065
-7.80085
-7.8017
-7.80334
-7.806
-7.80989
-7.81507
-7.82155
-7.82923
-7.83799
-7.8477
-7.8582
-7.86934
-7.88098
-7.89301
-7.9053
-7.91777
-7.93032
-7.94289
-7.9554
-7.96781
-7.98006
-7.99211
-8.00392
-8.01546
-8.02669
-8.03758
-8.0481
-8.05823
-8.06793
-8.07719
-8.08599
-8.09431
-7.80506
-7.80524
-7.80586
-7.80711
-7.80929
-7.8126
-7.81714
-7.82294
-7.82994
-7.83802
-7.84706
-7.8569
-7.8674
-7.87843
-7.88985
-7.90156
-7.91344
-7.92541
-7.9374
-7.94932
-7.96113
-7.97277
-7.98419
-7.99535
-8.00622
-8.01675
-8.02693
-8.03672
-8.04609
-8.05502
-8.06349
-8.0715
-8.07901
-7.80939
-7.80954
-7.80983
-7.81054
-7.81208
-7.81471
-7.81854
-7.82364
-7.82994
-7.83735
-7.84574
-7.85496
-7.86487
-7.87532
-7.88618
-7.89733
-7.90867
-7.9201
-7.93153
-7.9429
-7.95413
-7.96518
-7.976
-7.98654
-7.99676
-8.00664
-8.01613
-8.02521
-8.03386
-8.04206
-8.04978
-8.05703
-8.06379
-7.81373
-7.81385
-7.81367
-7.81365
-7.81438
-7.81619
-7.81922
-7.82356
-7.82915
-7.8359
-7.84368
-7.85232
-7.86168
-7.8716
-7.88195
-7.8926
-7.90343
-7.91436
-7.92528
-7.93612
-7.94682
-7.95732
-7.96757
-7.97751
-7.98713
-7.99637
-8.00521
-8.01363
-8.02159
-8.02909
-8.03611
-8.04264
-8.04869
-7.81824
-7.81833
-7.81748
-7.81647
-7.81617
-7.81698
-7.81911
-7.82262
-7.82749
-7.8336
-7.84079
-7.84891
-7.85777
-7.86722
-7.87712
-7.88732
-7.8977
-7.90817
-7.91862
-7.92899
-7.93919
-7.94918
-7.95889
-7.96828
-7.97732
-7.98597
-7.9942
-8.00199
-8.00932
-8.01616
-8.02251
-8.02838
-8.03374
-7.82321
-7.82324
-7.82142
-7.81902
-7.81739
-7.817
-7.81808
-7.82071
-7.82485
-7.83033
-7.83699
-7.84463
-7.85306
-7.86211
-7.87161
-7.88143
-7.89142
-7.90149
-7.91153
-7.92146
-7.93122
-7.94074
-7.94996
-7.95885
-7.96736
-7.97546
-7.98312
-7.99033
-7.99705
-8.00329
-8.00902
-8.01425
-8.01898
-7.82906
-7.82898
-7.82566
-7.82133
-7.81796
-7.8161
-7.81597
-7.81766
-7.82105
-7.82595
-7.83213
-7.83937
-7.84745
-7.85617
-7.86535
-7.87485
-7.88452
-7.89425
-7.90394
-7.9135
-7.92286
-7.93196
-7.94075
-7.94917
-7.9572
-7.9648
-7.97195
-7.97862
-7.9848
-7.99047
-7.99563
-8.00028
-8.00443
-7.83655
-7.83617
-7.83049
-7.82338
-7.81772
-7.81405
-7.81253
-7.81321
-7.81587
-7.82024
-7.82602
-7.83295
-7.84076
-7.84925
-7.8582
-7.86746
-7.87689
-7.88635
-7.89575
-7.905
-7.91403
-7.92277
-7.93118
-7.9392
-7.94681
-7.95397
-7.96065
-7.96685
-7.97253
-7.9777
-7.98234
-7.98647
-7.99009
-7.847
-7.8458
-7.83619
-7.82506
-7.81641
-7.8105
-7.80739
-7.80701
-7.809
-7.81291
-7.81839
-7.82511
-7.83277
-7.84112
-7.84994
-7.85906
-7.86832
-7.8776
-7.88679
-7.8958
-7.90457
-7.91303
-7.92112
-7.92881
-7.93607
-7.94285
-7.94915
-7.95494
-7.9602
-7.96494
-7.96913
-7.9728
-7.97595
-7.86297
-7.85927
-7.84279
-7.82592
-7.81349
-7.80489
-7.80001
-7.7986
-7.79998
-7.80355
-7.80885
-7.81548
-7.8231
-7.83143
-7.84023
-7.84931
-7.85851
-7.86771
-7.8768
-7.88568
-7.89429
-7.90256
-7.91044
-7.9179
-7.92489
-7.9314
-7.9374
-7.94287
-7.9478
-7.95218
-7.95601
-7.9593
-7.96206
-7.89062
-7.87945
-7.84975
-7.82442
-7.80739
-7.79577
-7.78917
-7.78695
-7.78796
-7.79138
-7.79669
-7.80341
-7.81115
-7.81959
-7.82849
-7.83766
-7.84692
-7.85615
-7.86524
-7.8741
-7.88266
-7.89086
-7.89865
-7.90598
-7.91284
-7.91918
-7.925
-7.93028
-7.935
-7.93916
-7.94275
-7.94578
-7.94827
-7.94231
-7.91404
-7.86021
-7.82118
-7.79671
-7.78061
-7.77213
-7.76953
-7.77071
-7.77461
-7.78059
-7.78804
-7.79649
-7.80558
-7.81506
-7.82473
-7.83441
-7.84398
-7.85333
-7.86238
-7.87107
-7.87934
-7.88715
-7.89446
-7.90125
-7.9075
-7.91318
-7.9183
-7.92284
-7.92679
-7.93015
-7.93294
-7.93516
-8.02121
-7.95836
-7.87605
-7.82507
-7.78834
-7.76181
-7.74798
-7.74266
-7.74204
-7.74498
-7.75082
-7.75869
-7.76788
-7.77792
-7.7885
-7.79932
-7.81018
-7.82091
-7.83139
-7.84151
-7.85119
-7.86039
-7.86904
-7.87713
-7.88462
-7.8915
-7.89774
-7.90335
-7.90832
-7.91264
-7.91632
-7.91935
-7.92176
-8.16527
-7.93201
-7.80642
-7.79908
-7.78886
-7.77417
-7.77011
-7.77111
-7.7726
-7.77502
-7.77898
-7.78421
-7.79032
-7.79715
-7.80455
-7.81235
-7.82038
-7.82849
-7.83658
-7.84453
-7.85227
-7.8597
-7.86679
-7.87346
-7.87969
-7.88543
-7.89067
-7.89537
-7.89952
-7.90312
-7.90616
-7.90864
-7.91057
-9.11401
-7.88054
-7.28909
-7.21612
-7.23485
-7.27552
-7.33297
-7.39145
-7.44498
-7.49418
-7.53938
-7.58023
-7.61682
-7.64964
-7.67916
-7.70574
-7.72969
-7.7513
-7.77083
-7.78849
-7.80446
-7.81889
-7.8319
-7.84362
-7.85412
-7.86348
-7.87179
-7.87908
-7.88542
-7.89084
-7.89538
-7.89905
-7.90185
-12.8797
-10.6691
-9.65592
-9.03608
-8.61809
-8.36971
-8.20625
-8.08185
-7.98895
-7.92439
-7.8808
-7.85145
-7.83231
-7.82086
-7.8151
-7.81343
-7.81468
-7.81799
-7.82271
-7.82837
-7.83458
-7.84107
-7.84761
-7.85403
-7.86021
-7.86605
-7.87148
-7.87643
-7.88087
-7.88477
-7.88812
-7.89091
-7.89313
0.980216
-3.10654
-5.21812
-5.98099
-6.4118
-6.7718
-7.03925
-7.21761
-7.34327
-7.44061
-7.51772
-7.57833
-7.62662
-7.66619
-7.69934
-7.7275
-7.75167
-7.77266
-7.79107
-7.80731
-7.82171
-7.83452
-7.84591
-7.85603
-7.86499
-7.87289
-7.87981
-7.88578
-7.89088
-7.89515
-7.89861
-7.9013
-7.90328
-8.33673
-8.09867
-8.43778
-8.76592
-8.91087
-8.95989
-8.97093
-8.95642
-8.92646
-8.89343
-8.86752
-8.85483
-8.85877
-8.88076
-8.92097
-8.97817
-9.04966
-9.13199
-9.22079
-9.31161
-9.40022
-9.4829
-9.5565
-9.61859
-9.66741
-9.70181
-9.72107
-9.72483
-9.71303
-9.68574
-9.64305
-9.58494
-9.51127
-9.42157
-9.31503
-9.19072
-9.04734
-8.88287
-8.69518
-8.48224
-8.24167
-7.97081
-7.66737
-7.32944
-6.95556
-6.54538
-6.09972
-5.62111
-5.11419
-4.5862
-4.04731
-3.51091
-2.99393
-2.51629
-2.09838
-1.7549
-1.48642
-1.27613
-1.09833
-0.931714
-0.766188
-0.601697
-0.44298
-0.295323
-0.162675
-0.0471124
0.0509292
0.13211
0.197802
0.249737
0.289765
0.319663
0.341089
0.355489
0.364139
0.368087
0.36824
0.365305
0.359893
0.352451
0.343347
0.332821
0.321177
0.30857
0.29508
0.280748
0.265658
0.249822
0.233288
0.21604
0.198102
0.179474
0.160125
0.140238
0.119381
0.098892
0.0757618
0.0578421
0.0275906
0.0261238
-8.37707
-8.38101
-8.60279
-8.78378
-8.84498
-8.8551
-8.8525
-8.83911
-8.81838
-8.79871
-8.78683
-8.78655
-8.80017
-8.82864
-8.87222
-8.93007
-9.00036
-9.08038
-9.16622
-9.25381
-9.33915
-9.41872
-9.48945
-9.54893
-9.59535
-9.62752
-9.64473
-9.64657
-9.6329
-9.60368
-9.55892
-9.49854
-9.42228
-9.32966
-9.21989
-9.092
-8.9447
-8.77612
-8.58424
-8.36712
-8.12256
-7.84816
-7.54186
-7.20192
-6.82716
-6.41731
-5.97337
-5.49791
-4.99559
-4.47359
-3.94187
-3.41348
-2.90468
-2.43411
-2.02023
-1.67581
-1.40117
-1.18242
-0.998214
-0.829804
-0.667474
-0.509982
-0.360403
-0.222611
-0.0995804
0.00716436
0.0974191
0.171891
0.231886
0.279017
0.314998
0.341479
0.359999
0.371911
0.378408
0.380479
0.378978
0.374578
0.367856
0.359247
0.3491
0.337658
0.325204
0.311874
0.297747
0.282873
0.267325
0.251111
0.23427
0.216781
0.198657
0.179894
0.16045
0.140501
0.119614
0.0990846
0.075993
0.0578683
0.0279991
0.0250927
-8.37213
-8.39852
-8.50631
-8.64119
-8.72922
-8.77594
-8.7997
-8.80439
-8.79479
-8.78016
-8.76859
-8.76563
-8.77472
-8.79768
-8.83516
-8.88674
-8.95098
-9.02493
-9.10515
-9.18758
-9.26835
-9.34399
-9.41129
-9.46773
-9.51146
-9.54127
-9.55636
-9.55624
-9.54066
-9.5095
-9.46265
-9.39998
-9.32116
-9.22569
-9.11277
-8.98145
-8.83046
-8.6581
-8.4625
-8.24181
-7.99397
-7.71683
-7.4085
-7.06741
-6.69257
-6.2839
-5.84252
-5.37113
-4.87445
-4.35953
-3.8361
-3.31672
-2.81686
-2.35387
-1.94435
-1.59925
-1.31874
-1.09162
-0.900514
-0.72953
-0.569596
-0.418401
-0.277437
-0.149172
-0.03558
0.0624049
0.144852
0.212548
0.266756
0.30899
0.340834
0.363817
0.379364
0.388731
0.393029
0.393186
0.39
0.384111
0.37606
0.366267
0.355062
0.342689
0.329411
0.315343
0.300564
0.285133
0.269114
0.252511
0.23535
0.21761
0.199291
0.180385
0.160839
0.140819
0.1199
0.0993044
0.0762825
0.0578487
0.0285226
0.0238498
-8.36353
-8.40514
-8.4933
-8.6146
-8.70269
-8.74613
-8.76382
-8.76626
-8.75878
-8.74841
-8.74162
-8.74271
-8.75404
-8.77706
-8.81217
-8.8592
-8.91696
-8.98294
-9.05448
-9.1283
-9.20102
-9.26934
-9.33033
-9.38153
-9.42103
-9.44743
-9.4597
-9.45715
-9.43935
-9.40603
-9.35697
-9.29194
-9.21056
-9.11228
-8.99634
-8.8618
-8.70748
-8.53178
-8.33297
-8.10927
-7.85878
-7.57955
-7.26985
-6.92831
-6.55415
-6.14746
-5.70953
-5.24316
-4.75303
-4.24606
-3.7316
-3.22167
-2.73087
-2.27539
-1.87033
-1.52542
-1.24082
-1.00739
-0.811051
-0.63842
-0.480962
-0.33552
-0.202286
-0.0825459
0.0225848
0.112692
0.188096
0.249662
0.298626
0.336413
0.3645
0.384305
0.397152
0.40421
0.406514
0.404935
0.400223
0.392981
0.383723
0.37285
0.360679
0.347452
0.333416
0.318665
0.303278
0.287325
0.27086
0.253887
0.236423
0.218441
0.199934
0.180886
0.161241
0.141143
0.120198
0.0995157
0.0765834
0.0577736
0.0290788
0.0224448
-8.35732
-8.40587
-8.48002
-8.57388
-8.64652
-8.68708
-8.70843
-8.71851
-8.72017
-8.71798
-8.71717
-8.7217
-8.73405
-8.75591
-8.78802
-8.83039
-8.88206
-8.94106
-9.00497
-9.07096
-9.13592
-9.19675
-9.25085
-9.29594
-9.33017
-9.35204
-9.36041
-9.35447
-9.33366
-9.29756
-9.24583
-9.17812
-9.09399
-8.99285
-8.87397
-8.7364
-8.57899
-8.40026
-8.19859
-7.97231
-7.71965
-7.43885
-7.12838
-6.78706
-6.41432
-6.01042
-5.57678
-5.11626
-4.63347
-4.13508
-3.63003
-3.12971
-2.64779
-2.19935
-1.79845
-1.45392
-1.16608
-0.927712
-0.727558
-0.554213
-0.399513
-0.259573
-0.133481
-0.0215281
0.0758994
0.158835
0.227819
0.28379
0.327958
0.361676
0.386324
0.403221
0.413598
0.418545
0.419028
0.415864
0.409758
0.401281
0.39092
0.379058
0.365999
0.351985
0.337245
0.32186
0.305905
0.28946
0.272575
0.255249
0.237494
0.219279
0.200589
0.181402
0.16166
0.141481
0.120509
0.0997246
0.0768968
0.0576516
0.0296646
0.0208945
-8.35016
-8.39906
-8.4624
-8.53774
-8.60158
-8.64312
-8.66815
-8.68232
-8.68842
-8.69032
-8.69264
-8.69898
-8.71174
-8.73249
-8.76197
-8.8002
-8.84638
-8.89888
-8.95556
-9.01394
-9.07126
-9.12476
-9.17202
-9.21088
-9.2395
-9.25638
-9.26033
-9.25048
-9.22614
-9.18679
-9.13199
-9.0613
-8.97422
-8.87014
-8.74831
-8.60777
-8.44741
-8.26586
-8.06161
-7.83308
-7.57868
-7.29681
-6.98614
-6.64568
-6.27504
-5.87465
-5.44602
-4.99202
-4.51715
-4.02781
-3.53247
-3.04182
-2.56862
-2.127
-1.73009
-1.38592
-1.09525
-0.852823
-0.649754
-0.476241
-0.324392
-0.189668
-0.0701898
0.0346146
0.124991
0.201363
0.264465
0.3153
0.355064
0.385041
0.406525
0.420749
0.428858
0.431867
0.430681
0.426066
0.418684
0.409077
0.397705
0.384934
0.371058
0.356316
0.340921
0.324945
0.308462
0.291553
0.274268
0.256605
0.238571
0.22013
0.201262
0.181937
0.162098
0.141834
0.120837
0.0999326
0.0772233
0.0574857
0.0302797
0.0192056
-8.34181
-8.38854
-8.4441
-8.50686
-8.56274
-8.60261
-8.62868
-8.64518
-8.65474
-8.66044
-8.66593
-8.67431
-8.68772
-8.70763
-8.73475
-8.76917
-8.81025
-8.85663
-8.90646
-8.95754
-9.00746
-9.05375
-9.09415
-9.12664
-9.14944
-9.16108
-9.16033
-9.14625
-9.11808
-9.0752
-9.01709
-8.94323
-8.85308
-8.74598
-8.62117
-8.47772
-8.31455
-8.13038
-7.92381
-7.69339
-7.43766
-7.1552
-6.84486
-6.50583
-6.13788
-5.74157
-5.3185
-4.87152
-4.40498
-3.92499
-3.43955
-2.95859
-2.49411
-2.05939
-1.66642
-1.32266
-1.02963
-0.783814
-0.5784
-0.404945
-0.255807
-0.125882
-0.0124327
0.0858782
0.169854
0.240261
0.298011
0.344168
0.379914
0.406476
0.425074
0.43686
0.442902
0.444151
0.441449
0.435518
0.42698
0.416348
0.40406
0.390464
0.375844
0.360432
0.344432
0.327912
0.31094
0.293597
0.275935
0.257953
0.239651
0.220993
0.201952
0.18249
0.162555
0.142201
0.121179
0.10014
0.0775605
0.0572795
0.0309196
0.0173882
-8.33237
-8.3761
-8.42545
-8.47888
-8.52771
-8.56514
-8.59157
-8.60981
-8.622
-8.63059
-8.63849
-8.64835
-8.6621
-8.68105
-8.70591
-8.73678
-8.77314
-8.81383
-8.85726
-8.90149
-8.94439
-8.98373
-9.01745
-9.04363
-9.06059
-9.06687
-9.06125
-9.04274
-9.01052
-8.96391
-8.90231
-8.82514
-8.73182
-8.62167
-8.49391
-8.34763
-8.18181
-7.99525
-7.78664
-7.55467
-7.298
-7.01539
-6.70583
-6.36871
-6.00393
-5.61217
-5.19508
-4.75547
-4.29756
-3.82712
-3.35164
-2.88045
-2.42488
-1.99713
-1.60811
-1.26503
-0.970161
-0.72156
-0.514175
-0.340786
-0.194043
-0.0683854
0.0396782
0.132174
0.210405
0.27545
0.328378
0.370315
0.402432
0.425911
0.441903
0.451492
0.455675
0.455342
0.451283
0.444176
0.434606
0.42306
0.409953
0.39562
0.38033
0.364313
0.34776
0.330742
0.313324
0.295581
0.277568
0.259284
0.240729
0.221862
0.202654
0.183058
0.163027
0.142581
0.121533
0.100346
0.077904
0.0570358
0.0315765
0.0154542
-8.32203
-8.36251
-8.40662
-8.45288
-8.49581
-8.53057
-8.55669
-8.57586
-8.58979
-8.60042
-8.6101
-8.62102
-8.63486
-8.6528
-8.67548
-8.70301
-8.73494
-8.77032
-8.80774
-8.84552
-8.88174
-8.91443
-8.94168
-8.9617
-8.97289
-8.97383
-8.9633
-8.94028
-8.90392
-8.85347
-8.7883
-8.70778
-8.61127
-8.49809
-8.36746
-8.2185
-8.05021
-7.86149
-7.65113
-7.41792
-7.16067
-6.87829
-6.56994
-6.23514
-5.87393
-5.48711
-5.07633
-4.64438
-4.19528
-3.7345
-3.26909
-2.80788
-2.36134
-1.94058
-1.55568
-1.21369
-0.917553
-0.666686
-0.457565
-0.284098
-0.139301
-0.0172867
0.0860843
0.173461
0.246605
0.306882
0.355515
0.393686
0.422563
0.443289
0.456959
0.464593
0.467127
0.465396
0.460141
0.452
0.441525
0.429178
0.415353
0.40037
0.384491
0.367935
0.350885
0.333417
0.315597
0.297491
0.279154
0.260591
0.241797
0.222732
0.203363
0.183636
0.163512
0.142971
0.121897
0.10055
0.0782506
0.0567594
0.032243
0.0134168
-8.31091
-8.34818
-8.38777
-8.42834
-8.46634
-8.49837
-8.52364
-8.54311
-8.55807
-8.57007
-8.58095
-8.59253
-8.60622
-8.62305
-8.64357
-8.6679
-8.69566
-8.72603
-8.7578
-8.78947
-8.81936
-8.84568
-8.86669
-8.88072
-8.88624
-8.88188
-8.86646
-8.83893
-8.7984
-8.74412
-8.67537
-8.59151
-8.49187
-8.37575
-8.24237
-8.09088
-7.92035
-7.72971
-7.51789
-7.28377
-7.0263
-6.74453
-6.43775
-6.10565
-5.74838
-5.36681
-4.96263
-4.53855
-4.09842
-3.64743
-3.19228
-2.74119
-2.30372
-1.89005
-1.50957
-1.16916
-0.872344
-0.619676
-0.408956
-0.235156
-0.0917521
0.0273229
0.126742
0.209714
0.278433
0.334535
0.379391
0.414244
0.440267
0.458569
0.470199
0.476121
0.477217
0.474272
0.467983
0.458952
0.447701
0.434667
0.420227
0.404686
0.388298
0.371273
0.353786
0.335918
0.317739
0.29931
0.280682
0.261862
0.242847
0.223596
0.204075
0.184221
0.164005
0.143367
0.122266
0.10075
0.0785957
0.0564546
0.0329109
0.0112906
-8.29911
-8.3333
-8.36893
-8.40486
-8.4387
-8.46806
-8.49214
-8.51142
-8.52685
-8.53963
-8.55122
-8.56306
-8.57635
-8.59193
-8.61031
-8.63155
-8.65535
-8.68099
-8.70741
-8.73331
-8.75717
-8.7774
-8.79239
-8.8006
-8.80059
-8.79103
-8.77076
-8.73875
-8.69409
-8.63599
-8.56371
-8.47657
-8.37388
-8.25494
-8.11897
-7.96516
-7.79261
-7.60034
-7.38735
-7.15266
-6.89531
-6.6145
-6.30967
-5.98062
-5.62761
-5.25159
-4.85424
-4.43821
-4.00721
-3.56619
-3.12144
-2.68051
-2.25218
-1.84582
-1.47016
-1.13187
-0.83495
-0.580906
-0.368663
-0.194206
-0.0515677
0.0653394
0.161595
0.240905
0.305866
0.358384
0.399978
0.431958
0.455506
0.471712
0.481582
0.486035
0.485904
0.48193
0.474772
0.464996
0.453098
0.439494
0.424543
0.408538
0.391723
0.374302
0.356441
0.338227
0.319734
0.30102
0.282135
0.263086
0.24387
0.224445
0.204781
0.184807
0.164502
0.143767
0.122638
0.100947
0.0789356
0.0561271
0.033572
0.00909105
-8.28665
-8.31797
-8.35012
-8.38215
-8.41242
-8.43926
-8.46193
-8.48065
-8.49609
-8.50917
-8.52101
-8.53276
-8.54539
-8.55961
-8.57582
-8.59407
-8.61409
-8.63524
-8.65661
-8.67703
-8.69515
-8.70955
-8.71876
-8.72135
-8.71596
-8.70132
-8.67629
-8.63986
-8.59112
-8.52925
-8.4535
-8.36316
-8.25754
-8.13593
-7.99755
-7.84163
-7.6673
-7.47368
-7.25984
-7.02489
-6.76802
-6.48853
-6.18599
-5.86033
-5.51189
-5.14167
-4.75138
-4.34359
-3.9219
-3.49099
-3.05667
-2.62595
-2.20689
-1.80811
-1.43769
-1.1021
-0.805663
-0.550647
-0.336933
-0.161465
-0.0189245
0.0966369
0.190564
0.266983
0.328872
0.378401
0.417248
0.446797
0.46825
0.482683
0.491073
0.494298
0.493152
0.488335
0.48047
0.470096
0.457682
0.443625
0.428268
0.411892
0.394735
0.376993
0.358824
0.340321
0.321561
0.302604
0.283497
0.264246
0.24485
0.225269
0.205473
0.185386
0.164997
0.144167
0.123007
0.10114
0.0792662
0.0557825
0.0342191
0.00683605
-8.27359
-8.30224
-8.3313
-8.36
-8.38717
-8.41163
-8.43278
-8.45067
-8.46575
-8.47872
-8.49042
-8.50177
-8.51351
-8.52624
-8.54025
-8.55558
-8.57197
-8.58887
-8.60545
-8.62068
-8.63336
-8.64219
-8.64585
-8.64301
-8.6324
-8.61281
-8.58313
-8.54239
-8.48964
-8.42409
-8.34496
-8.25154
-8.14312
-8.01898
-7.87839
-7.72058
-7.54474
-7.35004
-7.13565
-6.90078
-6.64472
-6.3669
-6.06698
-5.74501
-5.40144
-5.03728
-4.65427
-4.25492
-3.84267
-3.4219
-2.99806
-2.57763
-2.168
-1.77707
-1.41234
-1.08003
-0.78466
-0.529072
-0.313942
-0.137118
0.00600107
0.121068
0.213541
0.287876
0.3474
0.39455
0.431169
0.458728
0.478463
0.491448
0.498636
0.500876
0.498924
0.493449
0.485043
0.474217
0.461418
0.447026
0.431369
0.414719
0.397305
0.379317
0.360909
0.342177
0.323202
0.304044
0.28475
0.265328
0.245777
0.226056
0.206141
0.185952
0.165484
0.144562
0.123371
0.101327
0.0795836
0.0554278
0.0348441
0.0045432
-8.25994
-8.28614
-8.31244
-8.33823
-8.36268
-8.38494
-8.4045
-8.42135
-8.43578
-8.4483
-8.45954
-8.4702
-8.48086
-8.49197
-8.50376
-8.51623
-8.52914
-8.54198
-8.55401
-8.56433
-8.57184
-8.57539
-8.57374
-8.56569
-8.55003
-8.52564
-8.49145
-8.44649
-8.38986
-8.32073
-8.23834
-8.14195
-8.03087
-7.90439
-7.76178
-7.6023
-7.4252
-7.22971
-7.01508
-6.78061
-6.52569
-6.24986
-5.9529
-5.63492
-5.29648
-4.93864
-4.56311
-4.17234
-3.76959
-3.35903
-2.94571
-2.53564
-2.1356
-1.75281
-1.39421
-1.06574
-0.772013
-0.516261
-0.299803
-0.121313
0.023033
0.138462
0.230383
0.303477
0.361375
0.406775
0.441697
0.467716
0.486115
0.497976
0.504242
0.505736
0.50319
0.497242
0.488458
0.477327
0.464275
0.449665
0.433815
0.416986
0.399402
0.381246
0.362668
0.343769
0.324631
0.305318
0.285875
0.266314
0.246632
0.226794
0.206776
0.186494
0.165953
0.144945
0.123723
0.101507
0.0798834
0.0550685
0.0354398
0.00223233
-8.24575
-8.26969
-8.29351
-8.31674
-8.33876
-8.35895
-8.37692
-8.39259
-8.40614
-8.41794
-8.42844
-8.43817
-8.44757
-8.45696
-8.46651
-8.47618
-8.48573
-8.4947
-8.50243
-8.50808
-8.5107
-8.50922
-8.50253
-8.48949
-8.469
-8.43998
-8.40143
-8.35239
-8.29199
-8.21941
-8.13388
-8.03468
-7.92109
-7.79244
-7.64801
-7.4871
-7.309
-7.113
-6.89843
-6.66467
-6.4112
-6.13767
-5.84397
-5.53028
-5.19723
-4.84592
-4.47804
-4.09596
-3.70279
-3.30247
-2.89971
-2.50006
-2.10975
-1.73536
-1.38331
-1.05922
-0.767703
-0.512211
-0.294558
-0.114164
0.0320053
0.148628
0.240913
0.313641
0.370687
0.414994
0.448771
0.473713
0.491163
0.50223
0.507855
0.508848
0.505918
0.499683
0.490686
0.479395
0.466221
0.451513
0.435576
0.418664
0.400996
0.38275
0.364074
0.34507
0.325826
0.306404
0.286854
0.267186
0.247402
0.227468
0.207364
0.187002
0.166398
0.145311
0.124059
0.101679
0.0801617
0.0547112
0.0359976
-7.82347e-05
-8.23107
-8.25292
-8.2745
-8.29544
-8.31527
-8.33353
-8.3499
-8.36428
-8.37679
-8.38765
-8.3972
-8.4058
-8.41379
-8.42138
-8.42867
-8.4356
-8.44191
-8.44719
-8.45083
-8.45208
-8.45007
-8.44383
-8.43234
-8.41456
-8.38945
-8.356
-8.31326
-8.2603
-8.19628
-8.12038
-8.03186
-7.92999
-7.81408
-7.68344
-7.53739
-7.37528
-7.19643
-7.0002
-6.78597
-6.55322
-6.30151
-6.03059
-5.74043
-5.43131
-5.10388
-4.75928
-4.39918
-4.02588
-3.64236
-3.2523
-2.86012
-2.47093
-2.09045
-1.7247
-1.37958
-1.06039
-0.771619
-0.51683
-0.298181
-0.115733
0.0327687
0.151364
0.244918
0.31818
0.375184
0.419093
0.452307
0.476654
0.49356
0.504172
0.509444
0.510182
0.507082
0.500747
0.4917
0.480397
0.467231
0.452542
0.436625
0.419727
0.402061
0.383804
0.3651
0.346056
0.326761
0.30728
0.287663
0.267925
0.248068
0.228062
0.207892
0.187466
0.166808
0.145651
0.12437
0.101839
0.080414
0.0543612
0.0365112
-0.00236701
-8.21594
-8.23586
-8.2554
-8.27427
-8.29211
-8.30855
-8.32334
-8.33637
-8.34769
-8.35745
-8.36587
-8.3732
-8.37965
-8.38537
-8.39041
-8.39465
-8.39785
-8.3996
-8.39937
-8.39645
-8.39007
-8.37933
-8.3633
-8.34102
-8.31153
-8.27387
-8.22713
-8.17043
-8.10295
-8.0239
-7.93255
-7.82818
-7.71012
-7.57769
-7.43024
-7.26715
-7.0878
-6.8916
-6.678
-6.44656
-6.1969
-5.92887
-5.64252
-5.3382
-5.01659
-4.67887
-4.32668
-3.96223
-3.58836
-3.20856
-2.82695
-2.44824
-2.07768
-1.72076
-1.38291
-1.06908
-0.783576
-0.529947
-0.31057
-0.126027
0.0252053
0.146467
0.24216
0.31686
0.374666
0.418913
0.452183
0.47645
0.493237
0.50375
0.508966
0.509703
0.506652
0.500405
0.491476
0.480307
0.467281
0.452729
0.436937
0.420148
0.402572
0.384382
0.365722
0.346702
0.327413
0.307923
0.288282
0.26851
0.248611
0.228561
0.208345
0.187872
0.167172
0.145959
0.124652
0.101985
0.0806363
0.0540242
0.0369732
-0.00461463
-8.20044
-8.21857
-8.23624
-8.25321
-8.26921
-8.28393
-8.29716
-8.30881
-8.31885
-8.32738
-8.33454
-8.34046
-8.3453
-8.34911
-8.35189
-8.35351
-8.35371
-8.35211
-8.3482
-8.34136
-8.33085
-8.31588
-8.29557
-8.26904
-8.2354
-8.19375
-8.14322
-8.08298
-8.01222
-7.93021
-7.8362
-7.72951
-7.60948
-7.47546
-7.32684
-7.16301
-6.98341
-6.78749
-6.57479
-6.34492
-6.09759
-5.83271
-5.55042
-5.25111
-4.93552
-4.60481
-4.26061
-3.90506
-3.54086
-3.17129
-2.8002
-2.43195
-2.07135
-1.72341
-1.39311
-1.08505
-0.803303
-0.551306
-0.331537
-0.144977
0.00924452
0.133752
0.232382
0.309412
0.368888
0.41425
0.44824
0.47298
0.490106
0.500897
0.506374
0.507375
0.504599
0.498635
0.489993
0.479106
0.466352
0.452054
0.436493
0.419908
0.402507
0.384462
0.365917
0.346985
0.327758
0.308309
0.288689
0.268921
0.249014
0.228947
0.208708
0.188207
0.167479
0.146223
0.124895
0.102112
0.0808242
0.053705
0.0373792
-0.00679855
-8.18463
-8.2011
-8.21704
-8.23226
-8.24653
-8.25962
-8.27133
-8.28156
-8.29027
-8.29748
-8.30326
-8.3077
-8.31085
-8.31273
-8.31328
-8.31234
-8.30966
-8.30488
-8.2975
-8.28695
-8.27257
-8.25361
-8.22928
-8.19876
-8.16121
-8.1158
-8.0617
-7.99812
-7.9243
-7.8395
-7.74303
-7.63422
-7.51242
-7.37703
-7.22744
-7.06311
-6.88349
-6.68812
-6.47657
-6.24853
-6.00379
-5.74231
-5.46429
-5.17018
-4.86076
-4.53718
-4.20104
-3.85441
-3.49985
-3.14046
-2.77982
-2.42198
-2.07133
-1.73248
-1.40995
-1.10801
-0.830459
-0.580564
-0.360801
-0.172424
-0.0151107
0.113074
0.215337
0.295539
0.357555
0.404844
0.440264
0.466077
0.48404
0.495521
0.5016
0.503148
0.500885
0.495408
0.487227
0.476775
0.464426
0.4505
0.435275
0.418989
0.401848
0.384025
0.365665
0.346884
0.327777
0.308418
0.288863
0.269138
0.249257
0.229202
0.208965
0.188456
0.167717
0.146435
0.125092
0.102216
0.0809735
0.0534077
0.0377241
-0.00889878
-8.16858
-8.18349
-8.19782
-8.21141
-8.22407
-8.2356
-8.24582
-8.25462
-8.26195
-8.26778
-8.27213
-8.27502
-8.27645
-8.27639
-8.27474
-8.27132
-8.26588
-8.25806
-8.24741
-8.23338
-8.21536
-8.19267
-8.16458
-8.13032
-8.08911
-8.04017
-7.98273
-7.91603
-7.83935
-7.75198
-7.65325
-7.54251
-7.41916
-7.2826
-7.13228
-6.96767
-6.78828
-6.5937
-6.38355
-6.15759
-5.91567
-5.65781
-5.38427
-5.09553
-4.79241
-4.47605
-4.14801
-3.81028
-3.46531
-3.11601
-2.76572
-2.41819
-2.07746
-1.74772
-1.43313