/*--------------------------------*- C++ -*----------------------------------*\
  =========                 |
  \\      /  F ield         | OpenFOAM: The Open Source CFD Toolbox
   \\    /   O peration     | Website:  https://openfoam.org
    \\  /    A nd           | Version:  10
     \\/     M anipulation  |
\*---------------------------------------------------------------------------*/
FoamFile
{
    format      ascii;
    class       surfaceScalarField;
    location    "400";
    object      phi;
}
// * * * * * * * * * * * * * * * * * * * * * * * * * * * * * * * * * * * * * //

dimensions      [0 3 -1 0 0 0 0];

internalField   nonuniform List<scalar> 
13452
(
6.29962e-05
-2.72777e-06
6.3762e-05
-7.65725e-07
6.4533e-05
-7.71073e-07
6.38583e-05
6.74685e-07
6.25178e-05
1.3406e-06
6.1084e-05
1.43373e-06
5.97538e-05
1.33018e-06
5.85618e-05
1.19202e-06
5.7503e-05
1.05882e-06
5.65643e-05
9.38737e-07
5.573e-05
8.34265e-07
5.49848e-05
7.45238e-07
5.43151e-05
6.69698e-07
5.371e-05
6.05108e-07
5.31606e-05
5.49359e-07
5.26597e-05
5.00849e-07
5.22015e-05
4.58297e-07
5.17808e-05
4.20669e-07
5.13936e-05
3.87137e-07
5.10366e-05
3.57041e-07
5.07068e-05
3.29847e-07
5.04016e-05
3.05124e-07
5.01191e-05
2.82512e-07
4.98574e-05
2.61719e-07
4.96149e-05
2.42504e-07
4.93902e-05
2.24672e-07
4.91821e-05
2.08088e-07
4.89895e-05
1.92646e-07
4.88111e-05
1.78434e-07
4.86458e-05
1.65282e-07
4.84899e-05
1.55898e-07
4.83434e-05
1.46493e-07
1.40344e-07
4.8203e-05
6.28938e-05
-3.63124e-06
6.27374e-05
-6.09355e-07
6.2117e-05
-1.50676e-07
6.23917e-05
4.00043e-07
6.28739e-05
8.58383e-07
6.32673e-05
1.04038e-06
6.35123e-05
1.08517e-06
6.36237e-05
1.08057e-06
6.36319e-05
1.05061e-06
6.3566e-05
1.00463e-06
6.3449e-05
9.51265e-07
6.32977e-05
8.96624e-07
6.31238e-05
8.43574e-07
6.29357e-05
7.93185e-07
6.27393e-05
7.45806e-07
6.25386e-05
7.01527e-07
6.23366e-05
6.60263e-07
6.21355e-05
6.21811e-07
6.19367e-05
5.85933e-07
6.17413e-05
5.52384e-07
6.15502e-05
5.20936e-07
6.1364e-05
4.91372e-07
6.1183e-05
4.63495e-07
6.10076e-05
4.37127e-07
6.0838e-05
4.12113e-07
6.06743e-05
3.88315e-07
6.05168e-05
3.65651e-07
6.03654e-05
3.44002e-07
6.02204e-05
3.23507e-07
6.00816e-05
3.04083e-07
5.99498e-05
2.87657e-07
5.98306e-05
2.6567e-07
2.58218e-07
5.97127e-05
6.23345e-05
-2.2043e-06
6.26286e-05
-9.03448e-07
6.2787e-05
-3.09105e-07
6.30967e-05
9.02917e-08
6.34484e-05
5.06697e-07
6.37511e-05
7.37733e-07
6.39978e-05
8.38403e-07
6.41936e-05
8.84787e-07
6.43429e-05
9.01367e-07
6.44519e-05
8.95601e-07
6.45278e-05
8.7537e-07
6.45769e-05
8.47505e-07
6.46045e-05
8.15947e-07
6.4615e-05
7.82704e-07
6.46119e-05
7.48966e-07
6.45979e-05
7.15513e-07
6.45753e-05
6.82809e-07
6.45461e-05
6.51085e-07
6.45115e-05
6.20442e-07
6.4473e-05
5.90904e-07
6.44315e-05
5.62452e-07
6.43878e-05
5.35034e-07
6.43428e-05
5.08587e-07
6.42968e-05
4.83034e-07
6.42507e-05
4.58309e-07
6.42046e-05
4.34337e-07
6.41592e-05
4.11083e-07
6.41147e-05
3.88473e-07
6.40716e-05
3.66629e-07
6.40302e-05
3.45447e-07
6.39922e-05
3.25685e-07
6.39548e-05
3.03098e-07
2.88173e-07
6.39248e-05
6.47916e-05
-1.41282e-06
6.47393e-05
-8.51154e-07
6.47878e-05
-3.57575e-07
6.49003e-05
-2.22666e-08
6.50739e-05
3.33135e-07
6.52476e-05
5.64033e-07
6.54057e-05
6.80315e-07
6.55471e-05
7.43327e-07
6.5671e-05
7.77505e-07
6.57772e-05
7.89361e-07
6.58672e-05
7.85458e-07
6.59426e-05
7.72074e-07
6.60054e-05
7.531e-07
6.60575e-05
7.30662e-07
6.61003e-05
7.06129e-07
6.61354e-05
6.8047e-07
6.61638e-05
6.54331e-07
6.61868e-05
6.28112e-07
6.62052e-05
6.02057e-07
6.62198e-05
5.76315e-07
6.62313e-05
5.5097e-07
6.62402e-05
5.26058e-07
6.62472e-05
5.01586e-07
6.62527e-05
4.77537e-07
6.62572e-05
4.53891e-07
6.62609e-05
4.30611e-07
6.62643e-05
4.07682e-07
6.62677e-05
3.85056e-07
6.62715e-05
3.628e-07
6.62762e-05
3.40797e-07
6.62825e-05
3.19318e-07
6.62891e-05
2.96581e-07
2.77355e-07
6.62999e-05
6.70183e-05
-9.74297e-07
6.68712e-05
-7.04064e-07
6.68453e-05
-3.31734e-07
6.68736e-05
-5.05869e-08
6.69631e-05
2.43697e-07
6.70727e-05
4.54398e-07
6.71804e-05
5.72647e-07
6.72818e-05
6.41897e-07
6.73757e-05
6.83588e-07
6.74611e-05
7.03963e-07
6.75379e-05
7.08718e-07
6.76065e-05
7.03435e-07
6.76678e-05
6.91764e-07
6.77227e-05
6.75812e-07
6.77718e-05
6.56984e-07
6.7816e-05
6.36299e-07
6.78559e-05
6.14462e-07
6.78921e-05
5.9194e-07
6.79251e-05
5.6904e-07
6.79554e-05
5.45966e-07
6.79835e-05
5.22852e-07
6.80098e-05
4.99774e-07
6.80346e-05
4.76774e-07
6.80583e-05
4.53866e-07
6.80812e-05
4.31047e-07
6.81035e-05
4.08301e-07
6.81255e-05
3.8561e-07
6.81477e-05
3.62936e-07
6.81702e-05
3.40286e-07
6.81934e-05
3.17542e-07
6.8218e-05
2.94749e-07
6.82434e-05
2.71159e-07
2.48639e-07
6.82721e-05
6.9089e-05
-6.79306e-07
6.89438e-05
-5.58804e-07
6.8901e-05
-2.88961e-07
6.89048e-05
-5.4407e-08
6.89569e-05
1.91629e-07
6.90319e-05
3.79373e-07
6.911e-05
4.94527e-07
6.9186e-05
5.65953e-07
6.92586e-05
6.11015e-07
6.93267e-05
6.35828e-07
6.93899e-05
6.45545e-07
6.94482e-05
6.45104e-07
6.95021e-05
6.37882e-07
6.95519e-05
6.25946e-07
6.95982e-05
6.10705e-07
6.96413e-05
5.93187e-07
6.96817e-05
5.74117e-07
6.97196e-05
5.5399e-07
6.97555e-05
5.33144e-07
6.97897e-05
5.1181e-07
6.98224e-05
4.90145e-07
6.98539e-05
4.68248e-07
6.98845e-05
4.46177e-07
6.99144e-05
4.23958e-07
6.99439e-05
4.01597e-07
6.99731e-05
3.79081e-07
7.00023e-05
3.56387e-07
7.00318e-05
3.33467e-07
7.00618e-05
3.10284e-07
7.00926e-05
2.86711e-07
7.01247e-05
2.62674e-07
7.01581e-05
2.3777e-07
2.125e-07
7.01942e-05
7.11537e-05
-4.66702e-07
7.10279e-05
-4.32965e-07
7.09804e-05
-2.41494e-07
7.09735e-05
-4.75184e-08
7.10057e-05
1.59459e-07
7.10599e-05
3.25176e-07
7.11199e-05
4.345e-07
7.11802e-05
5.05698e-07
7.12392e-05
5.5204e-07
7.12957e-05
5.79253e-07
7.13492e-05
5.92037e-07
7.13996e-05
5.94744e-07
7.1447e-05
5.90468e-07
7.14917e-05
5.81216e-07
7.15341e-05
5.68384e-07
7.15743e-05
5.52995e-07
7.16126e-05
5.3578e-07
7.16493e-05
5.17249e-07
7.16847e-05
4.97758e-07
7.1719e-05
4.77556e-07
7.17523e-05
4.56811e-07
7.17849e-05
4.35636e-07
7.1817e-05
4.14097e-07
7.18487e-05
3.92228e-07
7.18803e-05
3.70036e-07
7.19119e-05
3.47507e-07
7.19437e-05
3.24609e-07
7.19758e-05
3.01284e-07
7.20087e-05
2.77461e-07
7.20424e-05
2.53003e-07
7.20773e-05
2.27771e-07
7.21136e-05
2.01456e-07
1.74007e-07
7.21521e-05
7.32524e-05
-3.13827e-07
7.31448e-05
-3.25392e-07
7.30953e-05
-1.9199e-07
7.30818e-05
-3.40018e-08
7.31017e-05
1.39571e-07
7.31422e-05
2.8466e-07
7.31903e-05
3.86449e-07
7.32403e-05
4.55674e-07
7.32904e-05
5.0196e-07
7.33393e-05
5.30361e-07
7.33862e-05
5.45087e-07
7.3431e-05
5.49948e-07
7.34737e-05
5.47753e-07
7.35145e-05
5.40421e-07
7.35536e-05
5.2932e-07
7.35911e-05
5.15458e-07
7.36273e-05
4.99563e-07
7.36624e-05
4.82153e-07
7.36966e-05
4.63596e-07
7.373e-05
4.44152e-07
7.37628e-05
4.24001e-07
7.37952e-05
4.0326e-07
7.38273e-05
3.82004e-07
7.38592e-05
3.60269e-07
7.38912e-05
3.38064e-07
7.39233e-05
3.15373e-07
7.39558e-05
2.92155e-07
7.39887e-05
2.68346e-07
7.40223e-05
2.43853e-07
7.40568e-05
2.18535e-07
7.40924e-05
1.92223e-07
7.41292e-05
1.64641e-07
1.35569e-07
7.41676e-05
7.53942e-05
-2.05548e-07
7.53035e-05
-2.34713e-07
7.52543e-05
-1.42795e-07
7.52365e-05
-1.6194e-08
7.52479e-05
1.28154e-07
7.52786e-05
2.53994e-07
7.53179e-05
3.47147e-07
7.53605e-05
4.13033e-07
7.54043e-05
4.5823e-07
7.54477e-05
4.8693e-07
7.549e-05
5.02791e-07
7.55308e-05
5.0911e-07
7.55702e-05
5.08412e-07
7.56081e-05
5.02501e-07
7.56447e-05
4.92697e-07
7.56802e-05
4.79981e-07
7.57147e-05
4.65071e-07
7.57483e-05
4.48489e-07
7.57813e-05
4.30607e-07
7.58138e-05
4.11695e-07
7.58459e-05
3.91937e-07
7.58777e-05
3.71459e-07
7.59093e-05
3.5034e-07
7.5941e-05
3.28618e-07
7.59727e-05
3.06304e-07
7.60047e-05
2.83379e-07
7.60371e-05
2.59802e-07
7.60699e-05
2.35502e-07
7.61034e-05
2.10381e-07
7.61376e-05
1.84299e-07
7.61728e-05
1.57085e-07
7.62089e-05
1.28498e-07
9.83171e-08
7.62462e-05
7.75841e-05
-1.30046e-07
7.75097e-05
-1.60329e-07
7.74633e-05
-9.63626e-08
7.74431e-05
3.99837e-09
7.74483e-05
1.2289e-07
7.74714e-05
2.30879e-07
7.75039e-05
3.14734e-07
7.75407e-05
3.76217e-07
7.75794e-05
4.19455e-07
7.76187e-05
4.47708e-07
7.76574e-05
4.64039e-07
7.76953e-05
4.71259e-07
7.77321e-05
4.71601e-07
7.77679e-05
4.66734e-07
7.78026e-05
4.57909e-07
7.78366e-05
4.46069e-07
7.78697e-05
4.31915e-07
7.79022e-05
4.15962e-07
7.79343e-05
3.98588e-07
7.79659e-05
3.80063e-07
7.79972e-05
3.60578e-07
7.80284e-05
3.40263e-07
7.80596e-05
3.192e-07
7.80908e-05
2.97433e-07
7.81221e-05
2.74971e-07
7.81537e-05
2.51801e-07
7.81856e-05
2.27878e-07
7.8218e-05
2.03135e-07
7.82509e-05
1.77477e-07
7.82844e-05
1.50776e-07
7.83186e-05
1.22876e-07
7.83535e-05
9.35831e-08
6.27482e-08
7.83891e-05
7.98265e-05
-7.8279e-08
7.97675e-05
-1.0123e-07
7.97258e-05
-5.47414e-08
7.97051e-05
2.47704e-08
7.9706e-05
1.21956e-07
7.97232e-05
2.13643e-07
7.975e-05
2.87942e-07
7.9782e-05
3.44247e-07
7.98166e-05
3.84799e-07
7.98524e-05
4.11955e-07
7.98883e-05
4.28178e-07
7.99237e-05
4.35813e-07
7.99585e-05
4.36804e-07
7.99926e-05
4.32664e-07
8.00259e-05
4.24559e-07
8.00586e-05
4.13381e-07
8.00907e-05
3.99807e-07
8.01223e-05
3.8434e-07
8.01536e-05
3.67354e-07
8.01845e-05
3.4912e-07
8.02153e-05
3.29832e-07
8.02459e-05
3.09624e-07
8.02765e-05
2.88581e-07
8.03072e-05
2.66748e-07
8.0338e-05
2.44142e-07
8.03691e-05
2.2075e-07
8.04004e-05
1.96533e-07
8.04321e-05
1.7143e-07
8.04643e-05
1.45356e-07
8.04968e-05
1.18205e-07
8.05299e-05
8.98469e-08
8.05633e-05
6.01443e-08
2.9039e-08
8.0597e-05
8.21256e-05
-4.34447e-08
8.20802e-05
-5.57805e-08
8.20447e-05
-1.92767e-08
8.2025e-05
4.44675e-08
8.20233e-05
1.23693e-07
8.20361e-05
2.00852e-07
8.20583e-05
2.65733e-07
8.20861e-05
3.16383e-07
8.21172e-05
3.53683e-07
8.215e-05
3.79189e-07
8.21834e-05
3.94797e-07
8.22168e-05
4.02415e-07
8.22499e-05
4.03704e-07
8.22825e-05
4.00007e-07
8.23147e-05
3.92394e-07
8.23464e-05
3.81696e-07
8.23776e-05
3.68556e-07
8.24085e-05
3.53459e-07
8.24391e-05
3.36772e-07
8.24695e-05
3.18762e-07
8.24997e-05
2.99625e-07
8.25298e-05
2.79494e-07
8.25599e-05
2.58459e-07
8.25901e-05
2.36571e-07
8.26204e-05
2.13847e-07
8.26509e-05
1.90282e-07
8.26815e-05
1.65846e-07
8.27125e-05
1.40486e-07
8.27437e-05
1.14136e-07
8.27752e-05
8.67092e-08
8.28069e-05
5.8115e-08
8.28388e-05
2.82716e-08
-2.7885e-09
8.28706e-05
8.44848e-05
-2.04768e-08
8.4451e-05
-2.19652e-08
8.44223e-05
9.45396e-09
8.4405e-05
6.17675e-08
8.4402e-05
1.26604e-07
8.44117e-05
1.91183e-07
8.44303e-05
2.47149e-07
8.44547e-05
2.91969e-07
8.44828e-05
3.25629e-07
8.45129e-05
3.49045e-07
8.45441e-05
3.63605e-07
8.45757e-05
3.70826e-07
8.46073e-05
3.72094e-07
8.46387e-05
3.68584e-07
8.46699e-05
3.61256e-07
8.47007e-05
3.50875e-07
8.47312e-05
3.38042e-07
8.47614e-05
3.23219e-07
8.47915e-05
3.06759e-07
8.48213e-05
2.88924e-07
8.4851e-05
2.69907e-07
8.48807e-05
2.49844e-07
8.49103e-05
2.28825e-07
8.494e-05
2.06905e-07
8.49697e-05
1.84109e-07
8.49995e-05
1.60437e-07
8.50295e-05
1.35869e-07
8.50596e-05
1.10367e-07
8.50899e-05
8.38818e-08
8.51203e-05
5.63538e-08
8.51506e-05
2.77283e-08
8.51809e-05
-2.02113e-09
-3.27833e-08
8.52109e-05
8.69074e-05
-5.67654e-09
8.68831e-05
2.32382e-09
8.6861e-05
3.15399e-08
8.6847e-05
7.58073e-08
8.68441e-05
1.29435e-07
8.68519e-05
1.83433e-07
8.68678e-05
2.31269e-07
8.68894e-05
2.70358e-07
8.69148e-05
3.00185e-07
8.69427e-05
3.21194e-07
8.69719e-05
3.34362e-07
8.70019e-05
3.4086e-07
8.70321e-05
3.41828e-07
8.70624e-05
3.38274e-07
8.70927e-05
3.31044e-07
8.71227e-05
3.20832e-07
8.71525e-05
3.08192e-07
8.71822e-05
2.93559e-07
8.72117e-05
2.77267e-07
8.72411e-05
2.59571e-07
8.72703e-05
2.40657e-07
8.72995e-05
2.20662e-07
8.73286e-05
1.99679e-07
8.73578e-05
1.77766e-07
8.73869e-05
1.54953e-07
8.74161e-05
1.31249e-07
8.74453e-05
1.06646e-07
8.74746e-05
8.11199e-08
8.75038e-05
5.46399e-08
8.7533e-05
2.71737e-08
8.7562e-05
-1.29908e-09
8.75908e-05
-3.07549e-08
-6.10178e-08
8.7619e-05
8.93963e-05
3.594e-09
8.93795e-05
1.90794e-08
8.93635e-05
4.75499e-08
8.93531e-05
8.62025e-08
8.93513e-05
1.31264e-07
8.93581e-05
1.76577e-07
8.93722e-05
2.17235e-07
8.93916e-05
2.50917e-07
8.94149e-05
2.76896e-07
8.94408e-05
2.95316e-07
8.94683e-05
3.06838e-07
8.94968e-05
3.12354e-07
8.95258e-05
3.12786e-07
8.95551e-05
3.08984e-07
8.95845e-05
3.01686e-07
8.96138e-05
2.91511e-07
8.9643e-05
2.78965e-07
8.96722e-05
2.64448e-07
8.97011e-05
2.48276e-07
8.973e-05
2.30691e-07
8.97588e-05
2.11874e-07
8.97875e-05
1.91959e-07
8.98162e-05
1.7104e-07
8.98447e-05
1.4918e-07
8.98733e-05
1.26413e-07
8.99018e-05
1.02759e-07
8.99302e-05
7.82191e-08
8.99585e-05
5.27852e-08
8.99867e-05
2.64451e-08
9.00147e-05
-8.09371e-10
9.00424e-05
-2.8967e-08
9.00696e-05
-5.79614e-08
-8.7568e-08
9.00961e-05
9.19543e-05
9.17547e-09
9.19433e-05
3.00563e-08
9.19325e-05
5.83256e-08
9.19258e-05
9.29777e-08
9.19255e-05
1.31526e-07
9.19322e-05
1.69823e-07
9.19452e-05
2.04302e-07
9.1963e-05
2.33047e-07
9.19846e-05
2.55315e-07
9.20089e-05
2.71087e-07
9.20349e-05
2.80807e-07
9.20621e-05
2.85149e-07
9.209e-05
2.84856e-07
9.21184e-05
2.80636e-07
9.21469e-05
2.73128e-07
9.21756e-05
2.62877e-07
9.22042e-05
2.50336e-07
9.22328e-05
2.35875e-07
9.22613e-05
2.19784e-07
9.22897e-05
2.02292e-07
9.2318e-05
1.83573e-07
9.23462e-05
1.63758e-07
9.23743e-05
1.42939e-07
9.24023e-05
1.21182e-07
9.24301e-05
9.85309e-08
9.24579e-05
7.50096e-08
9.24855e-05
5.06316e-08
9.25129e-05
2.54029e-08
9.254e-05
-6.71469e-10
9.25667e-05
-2.75783e-08
9.25931e-05
-5.52787e-08
9.26188e-05
-8.36733e-08
-1.125e-07
9.26437e-05
9.4584e-05
1.23289e-08
9.45773e-05
3.67211e-08
9.45709e-05
6.481e-08
9.45674e-05
9.64512e-08
9.45689e-05
1.29989e-07
9.45761e-05
1.62644e-07
9.45885e-05
1.91889e-07
9.46053e-05
2.16233e-07
9.46256e-05
2.35027e-07
9.46485e-05
2.48194e-07
9.46733e-05
2.56041e-07
9.46993e-05
2.59087e-07
9.47263e-05
2.57929e-07
9.47537e-05
2.5316e-07
9.47815e-05
2.45325e-07
9.48095e-05
2.34903e-07
9.48376e-05
2.22297e-07
9.48656e-05
2.0784e-07
9.48936e-05
1.91802e-07
9.49215e-05
1.74395e-07
9.49493e-05
1.55783e-07
9.49769e-05
1.36092e-07
9.50044e-05
1.15415e-07
9.50318e-05
9.3819e-08
9.5059e-05
7.13526e-08
9.5086e-05
4.80484e-08
9.51127e-05
2.39291e-08
9.5139e-05
-9.86723e-10
9.51651e-05
-2.6679e-08
9.51906e-05
-5.3116e-08
9.52155e-05
-8.02373e-08
9.52398e-05
-1.07917e-07
-1.35867e-07
9.52632e-05
9.72879e-05
1.39062e-08
9.72844e-05
4.02545e-08
9.72813e-05
6.79294e-08
9.72806e-05
9.71181e-08
9.72839e-05
1.26688e-07
9.72918e-05
1.54769e-07
9.73041e-05
1.796e-07
9.73202e-05
2.00073e-07
9.73396e-05
2.15683e-07
9.73614e-05
2.26359e-07
9.73851e-05
2.32333e-07
9.74102e-05
2.34019e-07
9.74362e-05
2.31905e-07
9.74629e-05
2.2649e-07
9.749e-05
2.1824e-07
9.75173e-05
2.07573e-07
9.75448e-05
1.94846e-07
9.75722e-05
1.80358e-07
9.75997e-05
1.64354e-07
9.76271e-05
1.4703e-07
9.76543e-05
1.28541e-07
9.76814e-05
1.09005e-07
9.77083e-05
8.85153e-08
9.7735e-05
6.714e-08
9.77614e-05
4.49308e-08
9.77875e-05
2.19268e-08
9.78133e-05
-1.84052e-09
9.78386e-05
-2.63421e-08
9.78635e-05
-5.15456e-08
9.78878e-05
-7.74043e-08
9.79114e-05
-1.03841e-07
9.79342e-05
-1.3071e-07
-1.57709e-07
9.7956e-05
0.000100069
1.44774e-08
0.000100067
4.15811e-08
0.000100067
6.85274e-08
0.000100068
9.55528e-08
0.000100073
1.2185e-07
0.000100082
1.46146e-07
0.000100094
1.67226e-07
0.00010011
1.84306e-07
0.000100128
1.97029e-07
0.000100149
2.05362e-07
0.000100172
2.0951e-07
0.000100196
2.09818e-07
0.000100222
2.06698e-07
0.000100248
2.00573e-07
0.000100274
1.91847e-07
0.000100301
1.80882e-07
0.000100327
1.67994e-07
0.000100354
1.5345e-07
0.000100381
1.37472e-07
0.000100408
1.20238e-07
0.000100435
1.01893e-07
0.000100461
8.25493e-08
0.000100487
6.22959e-08
0.000100513
4.12018e-08
0.000100539
1.93214e-08
0.000100564
-3.30125e-09
0.000100589
-2.66277e-08
0.000100613
-5.06211e-08
0.000100637
-7.52385e-08
0.00010066
-1.00423e-07
0.000100682
-1.26085e-07
0.000100704
-1.52065e-07
-1.78053e-07
0.000100724
0.000102928
1.4424e-08
0.000102928
4.14149e-08
0.000102929
6.7339e-08
0.000102933
9.23432e-08
0.000102939
1.15822e-07
0.000102948
1.36892e-07
0.00010296
1.54732e-07
0.000102976
1.68814e-07
0.000102994
1.78916e-07
0.000103014
1.85063e-07
0.000103036
1.87455e-07
0.00010306
1.86398e-07
0.000103084
1.8225e-07
0.000103109
1.7538e-07
0.000103135
1.66136e-07
0.000103161
1.54838e-07
0.000103187
1.41763e-07
0.000103214
1.27151e-07
0.00010324
1.11198e-07
0.000103266
9.40684e-08
0.000103292
7.58943e-08
0.000103318
5.67817e-08
0.000103343
3.68154e-08
0.000103369
1.60637e-08
0.000103393
-5.41755e-09
0.000103418
-2.7581e-08
0.000103441
-5.03834e-08
0.000103465
-7.37816e-08
0.000103487
-9.7726e-08
0.000103509
-1.22152e-07
0.00010353
-1.46961e-07
0.00010355
-1.71987e-07
-1.96918e-07
0.000103568
0.000105869
1.40038e-08
0.00010587
4.03071e-08
0.000105873
6.49921e-08
0.000105877
8.80549e-08
0.000105884
1.09013e-07
0.000105893
1.27249e-07
0.000105906
1.42223e-07
0.000105921
1.5361e-07
0.000105939
1.61313e-07
0.000105958
1.65413e-07
0.00010598
1.66121e-07
0.000106002
1.63725e-07
0.000106026
1.58545e-07
0.00010605
1.50908e-07
0.000106076
1.41123e-07
0.000106101
1.29469e-07
0.000106126
1.16194e-07
0.000106152
1.01507e-07
0.000106178
8.55861e-08
0.000106203
6.85788e-08
0.000106228
5.06056e-08
0.000106253
3.17646e-08
0.000106278
1.21361e-08
0.000106302
-8.21335e-09
0.000106326
-2.92284e-08
0.00010635
-5.08594e-08
0.000106372
-7.30609e-08
0.000106394
-9.57849e-08
0.000106415
-1.18979e-07
0.000106436
-1.42572e-07
0.000106455
-1.66462e-07
0.000106474
-1.9048e-07
-2.14316e-07
0.000106491
0.000108894
1.33976e-08
0.000108896
3.8692e-08
0.000108899
6.20264e-08
0.000108903
8.32215e-08
0.000108911
1.01869e-07
0.00010892
1.17544e-07
0.000108933
1.29917e-07
0.000108947
1.38831e-07
0.000108964
1.44297e-07
0.000108983
1.46456e-07
0.000109004
1.45539e-07
0.000109026
1.41826e-07
0.000109049
1.35614e-07
0.000109072
1.27198e-07
0.000109097
1.16853e-07
0.000109121
1.04829e-07
0.000109146
9.13419e-08
0.000109171
7.65798e-08
0.000109196
6.07001e-08
0.000109221
4.38345e-08
0.000109245
2.60918e-08
0.000109269
7.56202e-09
0.000109293
-1.16799e-08
0.000109317
-3.15714e-08
0.000109339
-5.20575e-08
0.000109362
-7.30894e-08
0.000109383
-9.46196e-08
0.000109404
-1.166e-07
0.000109424
-1.38973e-07
0.000109443
-1.6167e-07
0.000109461
-1.84585e-07
0.000109478
-2.07551e-07
-2.30261e-07
0.000109494
0.000112005
1.27405e-08
0.000112007
3.69295e-08
0.00011201
5.89233e-08
0.000112015
7.83547e-08
0.000112022
9.48632e-08
0.000112031
1.08172e-07
0.000112043
1.18125e-07
0.000112057
1.24712e-07
0.000112073
1.28047e-07
0.000112092
1.28331e-07
0.000112111
1.25821e-07
0.000112132
1.20797e-07
0.000112154
1.13543e-07
0.000112177
1.04329e-07
0.000112201
9.34053e-08
0.000112225
8.09925e-08
0.000112249
6.72836e-08
0.000112273
5.24435e-08
0.000112297
3.66115e-08
0.000112321
1.9904e-08
0.000112344
2.41802e-09
0.000112368
-1.57651e-08
0.000112391
-3.45775e-08
0.000112413
-5.39602e-08
0.000112435
-7.38619e-08
0.000112456
-9.42348e-08
0.000112476
-1.15032e-07
0.000112496
-1.36206e-07
0.000112515
-1.57701e-07
0.000112532
-1.79446e-07
0.000112549
-2.01339e-07
0.000112565
-2.23215e-07
-2.44777e-07
0.000112579
0.000115205
1.21464e-08
0.000115207
3.53464e-08
0.000115209
5.61448e-08
0.000115214
7.39721e-08
0.00011522
8.85021e-08
0.000115229
9.95911e-08
0.00011524
1.07242e-07
0.000115253
1.11585e-07
0.000115268
1.12837e-07
0.000115285
1.11264e-07
0.000115304
1.07154e-07
0.000115324
1.00798e-07
0.000115345
9.247e-08
0.000115367
8.24245e-08
0.000115389
7.0888e-08
0.000115412
5.80587e-08
0.000115435
4.4107e-08
0.000115459
2.91775e-08
0.000115482
1.33915e-08
0.000115505
-3.14916e-09
0.000115528
-2.03599e-08
0.00011555
-3.8169e-08
0.000115572
-5.65161e-08
0.000115593
-7.53481e-08
0.000115614
-9.4618e-08
0.000115634
-1.14281e-07
0.000115653
-1.34293e-07
0.000115672
-1.54608e-07
0.000115689
-1.75174e-07
0.000115706
-1.95921e-07
0.000115721
-2.16752e-07
0.000115735
-2.37508e-07
-2.57904e-07
0.000115749
0.000118496
1.17277e-08
0.000118497
3.42796e-08
0.000118499
5.41831e-08
0.000118503
7.06408e-08
0.000118508
8.33635e-08
0.000118515
9.23478e-08
0.000118525
9.77604e-08
0.000118536
9.98792e-08
0.00011855
9.90338e-08
0.000118566
9.55648e-08
0.000118583
8.98012e-08
0.000118602
8.2048e-08
0.000118622
7.25796e-08
0.000118642
6.16373e-08
0.000118664
4.94295e-08
0.000118686
3.6134e-08
0.000118708
2.19003e-08
0.00011873
6.85352e-09
0.000118753
-8.90209e-09
0.000118775
-2.52805e-08
0.000118797
-4.22092e-08
0.000118818
-5.96283e-08
0.000118839
-7.74849e-08
0.00011886
-9.57345e-08
0.000118879
-1.14334e-07
0.000118898
-1.33246e-07
0.000118916
-1.52429e-07
0.000118934
-1.71842e-07
0.00011895
-1.91435e-07
0.000118965
-2.11146e-07
0.000118979
-2.30882e-07
0.000118992
-2.50493e-07
-2.69707e-07
0.000119004
0.000121881
1.16163e-08
0.000121882
3.413e-08
0.000121882
5.36273e-08
0.000121884
6.90428e-08
0.000121887
8.01479e-08
0.000121892
8.71104e-08
0.0001219
9.02876e-08
0.000121909
9.01292e-08
0.000121921
8.70973e-08
0.000121935
8.1621e-08
0.000121951
7.40814e-08
0.000121968
6.4808e-08
0.000121987
5.40801e-08
0.000122006
4.21313e-08
0.000122027
2.91553e-08
0.000122047
1.5311e-08
0.000122069
7.2818e-10
0.00012209
-1.44871e-08
0.000122111
-3.02489e-08
0.000122132
-4.64867e-08
0.000122153
-6.31429e-08
0.000122174
-8.01686e-08
0.000122194
-9.75228e-08
0.000122213
-1.15168e-07
0.000122232
-1.33071e-07
0.00012225
-1.51198e-07
0.000122267
-1.69517e-07
0.000122283
-1.8799e-07
0.000122298
-2.06576e-07
0.000122312
-2.25217e-07
0.000122325
-2.43829e-07
0.000122337
-2.62273e-07
-2.80291e-07
0.000122348
0.000125363
1.1993e-08
0.000125362
3.54388e-08
0.00012536
5.52607e-08
0.000125359
7.00705e-08
0.000125359
7.97598e-08
0.000125362
8.47327e-08
0.000125367
8.55897e-08
0.000125374
8.29969e-08
0.000125383
7.75812e-08
0.000125395
6.98828e-08
0.000125409
6.03507e-08
0.000125424
4.93495e-08
0.000125441
3.71704e-08
0.000125459
2.40437e-08
0.000125478
1.01501e-08
0.000125498
-4.36914e-09
0.000125518
-1.94041e-08
0.000125538
-3.48694e-08
0.000125559
-5.06982e-08
0.000125579
-6.68381e-08
0.000125599
-8.32473e-08
0.000125619
-9.98914e-08
0.000125638
-1.16741e-07
0.000125657
-1.33772e-07
0.000125675
-1.50958e-07
0.000125692
-1.68276e-07
0.000125708
-1.857e-07
0.000125723
-2.03203e-07
0.000125737
-2.20749e-07
0.00012575
-2.3829e-07
0.000125762
-2.55751e-07
0.000125773
-2.73006e-07
-2.89812e-07
0.000125783
0.000128944
1.31353e-08
0.00012894
3.90123e-08
0.000128935
6.02109e-08
0.000128931
7.49683e-08
0.000128927
8.34235e-08
0.000128925
8.63328e-08
0.000128926
8.46329e-08
0.00012893
7.92805e-08
0.000128936
7.11181e-08
0.000128945
6.08297e-08
0.000128957
4.89529e-08
0.00012897
3.58999e-08
0.000128985
2.19805e-08
0.000129002
7.42413e-09
0.00012902
-7.60091e-09
0.000129038
-2.2973e-08
0.000129058
-3.86043e-08
0.000129077
-5.4433e-08
0.000129097
-7.04145e-08
0.000129117
-8.6518e-08
0.000129136
-1.0272e-07
0.000129155
-1.19005e-07
0.000129174
-1.35358e-07
0.000129192
-1.51768e-07
0.000129209
-1.68222e-07
0.000129226
-1.84708e-07
0.000129241
-2.01211e-07
0.000129256
-2.17711e-07
0.000129269
-2.34184e-07
0.000129281
-2.50592e-07
0.000129292
-2.66872e-07
0.000129302
-2.82911e-07
-2.98487e-07
0.000129311
0.000132627
1.55089e-08
0.00013262
4.61373e-08
0.00013261
7.01905e-08
0.000132599
8.55413e-08
0.00013259
9.2836e-08
0.000132583
9.33826e-08
0.000132579
8.86127e-08
0.000132578
7.9895e-08
0.000132581
6.83642e-08
0.000132587
5.48922e-08
0.000132595
4.01293e-08
0.000132607
2.45471e-08
0.00013262
8.4769e-09
0.000132636
-7.85444e-09
0.000132652
-2.42962e-08
0.00013267
-4.07514e-08
0.000132689
-5.71617e-08
0.000132708
-7.34935e-08
0.000132727
-8.9732e-08
0.000132746
-1.05871e-07
0.000132766
-1.21914e-07
0.000132784
-1.37864e-07
0.000132803
-1.53728e-07
0.000132821
-1.69509e-07
0.000132838
-1.85213e-07
0.000132854
-2.00839e-07
0.000132869
-2.16386e-07
0.000132883
-2.31846e-07
0.000132896
-2.47206e-07
0.000132908
-2.6244e-07
0.000132918
-2.77499e-07
0.000132928
-2.92286e-07
-3.06601e-07
0.000132936
0.000136414
1.99499e-08
0.000136401
5.89718e-08
0.000136383
8.78883e-08
0.000136364
1.04455e-07
0.000136347
1.10347e-07
0.000136333
1.0777e-07
0.000136322
9.89197e-08
0.000136316
8.57726e-08
0.000136315
6.98616e-08
0.000136317
5.22966e-08
0.000136324
3.38612e-08
0.000136333
1.50889e-08
0.000136345
-3.67557e-09
0.00013636
-2.22206e-08
0.000136376
-4.04266e-08
0.000136393
-5.82352e-08
0.000136412
-7.56287e-08
0.000136431
-9.26142e-08
0.00013645
-1.09214e-07
0.00013647
-1.25457e-07
0.000136489
-1.41377e-07
0.000136509
-1.57005e-07
0.000136527
-1.72372e-07
0.000136545
-1.87504e-07
0.000136562
-2.02422e-07
0.000136579
-2.17146e-07
0.000136594
-2.31687e-07
0.000136608
-2.46053e-07
0.000136621
-2.60244e-07
0.000136633
-2.74248e-07
0.000136644
-2.8803e-07
0.000136653
-3.01514e-07
-3.14521e-07
0.000136661
0.000140308
2.80497e-08
0.000140285
8.1269e-08
0.000140256
1.17594e-07
0.000140224
1.35626e-07
0.000140196
1.3911e-07
0.000140172
1.31745e-07
0.000140154
1.16954e-07
0.000140142
9.76096e-08
0.000140136
7.57643e-08
0.000140135
5.27994e-08
0.00014014
2.9628e-08
0.000140148
6.82082e-09
0.00014016
-1.52952e-08
0.000140174
-3.65568e-08
0.00014019
-5.69033e-08
0.000140209
-7.63403e-08
0.000140228
-9.49102e-08
0.000140248
-1.12678e-07
0.000140268
-1.29716e-07
0.000140289
-1.461e-07
0.00014031
-1.61901e-07
0.00014033
-1.77187e-07
0.000140349
-1.92017e-07
0.000140368
-2.06445e-07
0.000140386
-2.20514e-07
0.000140404
-2.34263e-07
0.00014042
-2.47721e-07
0.000140434
-2.60913e-07
0.000140448
-2.73852e-07
0.00014046
-2.86543e-07
0.000140471
-2.98969e-07
0.000140481
-3.11073e-07
-3.22702e-07
0.000140489
0.00014431
4.30132e-08
0.000144271
1.19708e-07
0.000144223
1.66123e-07
0.000144174
1.84627e-07
0.00014413
1.83047e-07
0.000144094
1.6759e-07
0.000144067
1.4365e-07
0.000144049
1.15367e-07
0.00014404
8.53787e-08
0.000144037
5.52926e-08
0.000144041
2.60802e-08
0.000144049
-1.72718e-09
0.000144062
-2.7895e-08
0.000144078
-5.23681e-08
0.000144096
-7.51947e-08
0.000144116
-9.64791e-08
0.000144138
-1.16355e-07
0.00014416
-1.34965e-07
0.000144183
-1.5245e-07
0.000144206
-1.68943e-07
0.000144228
-1.84567e-07
0.00014425
-1.9943e-07
0.000144272
-2.13628e-07
0.000144293
-2.27245e-07
0.000144313
-2.40352e-07
0.000144331
-2.53008e-07
0.000144349
-2.65264e-07
0.000144365
-2.77161e-07
0.00014438
-2.8873e-07
0.000144394
-2.99991e-07
0.000144406
-3.10945e-07
0.000144416
-3.2156e-07
-3.31711e-07
0.000144425
0.000148419
7.17044e-08
0.000148353
1.86287e-07
0.000148275
2.43968e-07
0.000148201
2.5878e-07
0.000148137
2.46281e-07
0.000148088
2.16726e-07
0.000148053
1.78554e-07
0.000148031
1.37471e-07
0.00014802
9.65229e-08
0.000148018
5.73071e-08
0.000148024
2.06605e-08
0.000148035
-1.30846e-08
0.000148051
-4.39124e-08
0.000148071
-7.19703e-08
0.000148093
-9.74807e-08
0.000148117
-1.20696e-07
0.000148143
-1.41873e-07
0.000148169
-1.6126e-07
0.000148196
-1.79082e-07
0.000148222
-1.95546e-07
0.000148248
-2.10832e-07
0.000148274
-2.251e-07
0.000148299
-2.38486e-07
0.000148323
-2.51109e-07
0.000148345
-2.63069e-07
0.000148367
-2.7445e-07
0.000148387
-2.85325e-07
0.000148406
-2.95752e-07
0.000148423
-3.05779e-07
0.000148438
-3.15444e-07
0.000148452
-3.24766e-07
0.000148464
-3.33737e-07
-3.42265e-07
0.000148475
0.000152632
1.29076e-07
0.000152515
3.02727e-07
0.000152393
3.66468e-07
0.000152285
3.66289e-07
0.0001522
3.31423e-07
0.000152139
2.77912e-07
0.000152099
2.18337e-07
0.000152077
1.59715e-07
0.000152069
1.04737e-07
0.000152072
5.44338e-08
0.000152083
9.1591e-09
0.000152101
-3.11988e-08
0.000152124
-6.7018e-08
0.000152151
-9.87652e-08
0.000152181
-1.26911e-07
0.000152212
-1.51907e-07
0.000152244
-1.74169e-07
0.000152277
-1.94072e-07
0.00015231
-2.11946e-07
0.000152342
-2.28081e-07
0.000152374
-2.42724e-07
0.000152405
-2.56092e-07
0.000152435
-2.68365e-07
0.000152464
-2.797e-07
0.000152491
-2.90228e-07
0.000152516
-3.0006e-07
0.00015254
-3.0929e-07
0.000152563
-3.17994e-07
0.000152583
-3.26238e-07
0.000152602
-3.34073e-07
0.000152618
-3.41538e-07
0.000152633
-3.48651e-07
-3.55352e-07
0.000152646
0.000156935
2.45397e-07
0.000156729
5.08902e-07
0.00015654
5.55323e-07
0.000156392
5.14136e-07
0.000156287
4.36396e-07
0.000156221
3.44323e-07
0.000156185
2.54615e-07
0.000156171
1.73684e-07
0.000156173
1.02056e-07
0.000156188
3.92936e-08
0.000156213
-1.51991e-08
0.000156244
-6.22718e-08
0.00015628
-1.02897e-07
0.000156319
-1.37976e-07
0.00015636
-1.68297e-07
0.000156403
-1.94551e-07
0.000156446
-2.17346e-07
0.000156489
-2.37203e-07
0.000156532
-2.54571e-07
0.000156574
-2.69829e-07
0.000156614
-2.83301e-07
0.000156653
-2.95258e-07
0.000156691
-3.05931e-07
0.000156727
-3.15514e-07
0.000156761
-3.24171e-07
0.000156793
-3.32035e-07
0.000156823
-3.39224e-07
0.000156851
-3.45832e-07
0.000156876
-3.51938e-07
0.0001569
-3.57607e-07
0.000156921
-3.62895e-07
0.00015694
-3.67837e-07
-3.72422e-07
0.000156957
0.000161293
4.90342e-07
0.00016093
8.72378e-07
0.000160651
8.33856e-07
0.000160462
7.03588e-07
0.000160348
5.50514e-07
0.000160292
4.0016e-07
0.000160275
2.71331e-07
0.000160285
1.64471e-07
0.000160312
7.46777e-08
0.000160352
-9.35767e-10
0.000160401
-6.4303e-08
0.000160456
-1.17322e-07
0.000160515
-1.61767e-07
0.000160576
-1.99082e-07
0.000160638
-2.30429e-07
0.000160701
-2.56782e-07
0.000160762
-2.78962e-07
0.000160823
-2.97662e-07
0.000160882
-3.13455e-07
0.000160939
-3.2682e-07
0.000160993
-3.38156e-07
0.000161046
-3.47796e-07
0.000161096
-3.56016e-07
0.000161144
-3.63047e-07
0.000161189
-3.69081e-07
0.000161231
-3.74276e-07
0.00016127
-3.78766e-07
0.000161307
-3.82661e-07
0.000161341
-3.86051e-07
0.000161373
-3.89013e-07
0.000161401
-3.91606e-07
0.000161427
-3.93884e-07
-3.95863e-07
0.000161451
0.000165516
1.12833e-06
0.000164914
1.4739e-06
0.000164577
1.17046e-06
0.000164387
8.9398e-07
0.000164307
6.30662e-07
0.000164301
4.05999e-07
0.000164337
2.3564e-07
0.000164397
1.03871e-07
0.000164475
-2.69007e-09
0.000164563
-8.95608e-08
0.000164659
-1.59899e-07
0.000164758
-2.16755e-07
0.000164859
-2.62809e-07
0.00016496
-3.00098e-07
0.00016506
-3.30197e-07
0.000165158
-3.544e-07
0.000165253
-3.73783e-07
0.000165344
-3.89225e-07
0.000165432
-4.01441e-07
0.000165516
-4.11016e-07
0.000165597
-4.18427e-07
0.000165673
-4.24066e-07
0.000165745
-4.28254e-07
0.000165813
-4.31254e-07
0.000165878
-4.33283e-07
0.000165938
-4.34519e-07
0.000165994
-4.35108e-07
0.000166047
-4.35171e-07
0.000166095
-4.34806e-07