/*--------------------------------*- C++ -*----------------------------------*\
  =========                 |
  \\      /  F ield         | OpenFOAM: The Open Source CFD Toolbox
   \\    /   O peration     | Website:  https://openfoam.org
    \\  /    A nd           | Version:  10
     \\/     M anipulation  |
\*---------------------------------------------------------------------------*/
FoamFile
{
    format      ascii;
    class       volScalarField;
    location    "400";
    object      yPlus;
}
// * * * * * * * * * * * * * * * * * * * * * * * * * * * * * * * * * * * * * //

dimensions      [0 0 0 0 0 0 0];

internalField   uniform 0;

boundaryField
{
    outlet
    {
        type            calculated;
        value           uniform 0;
    }
    inlet
    {
        type            calculated;
        value           uniform 0;
    }
    lowerWall
    {
        type            calculated;
        value           nonuniform List<scalar> 
148
(
12.7112
17.6462
20.7197
22.3203
23.046
23.2748
23.2258
23.0261
22.752
22.4484
22.1408
21.843
21.5619
21.3003
21.0588
20.8369
20.6333
20.4465
20.2752
20.1178
19.9731
19.8398
19.7169
19.6033
19.4983
19.4011
19.311
19.2276
19.15
19.0792
19.0064
18.9722
18.7766
0.839297
3.09641
5.01229
6.33311
7.47395
8.51417
9.60172
10.7887
11.7828
11.5736
11.6694
11.7524
11.6437
12.371
25.9831
0.839297
5.02155
7.06279
8.20393
8.73376
8.92031
8.9562
8.86959
8.59511
8.03644
7.18499
6.57552
5.20586
4.89313
10.1452
12.3378
19.1478
23.9662
27.9367
31.3756
34.432
37.1868
39.6874
41.9643
44.0429
45.9472
47.703
49.3369
50.875
52.3416
53.758
55.1424
56.5091
57.8694
59.2325
60.6066
61.9999
63.4222
64.886
66.4064
67.9856
69.6043
71.2727
72.9904
74.754
76.5578
78.3936
80.2499
82.1113
83.9562
85.7551
87.4709
89.0633
90.4845
91.6899
92.6415
93.3322
93.7674
94.0536
93.9431
93.2879
92.1475
90.6034
88.7478
86.672
84.4631
82.1994
79.9456
77.7523
75.6556
73.68
71.8401
70.1428
68.5894
67.1775
65.9017
64.7546
63.7279
62.8121
61.998
61.2758
60.6363
60.0703
59.5693
59.1251
58.7302
58.3778
58.0617
57.7765
57.5175
57.2802
57.0615
56.8581
56.6681
56.4887
56.3203
56.1599
56.0086
55.8799
55.7005
)
;
    }
    upperWall
    {
        type            calculated;
        value           nonuniform List<scalar> 
133
(
31.2591
34.0073
36.6584
39.0132
41.0751
42.8889
44.4878
45.8968
47.137
48.2273
49.1846
50.0238
50.7585
51.4005
51.9604
52.4478
52.871
53.2376
53.554
53.8261
54.0592
54.2576
54.4257
54.5668
54.6841
54.7804
54.8582
54.9197
54.9666
55.0009
55.0239
55.037
55.0415
55.0365
55.0195
54.9911
54.9515
54.9013
54.841
54.771
54.6917
54.6036
54.5069
54.402
54.2891
54.1686
54.0405
53.9051
53.7625
53.6127
53.4557
53.2915
53.1202
52.9415
52.7553
52.5614
52.3596
52.1496
51.931
51.7036
51.4667
51.2202
50.9633
50.6957
50.4167
50.1259
49.8227
49.5065
49.1768
48.8331
48.4749
48.1018
47.7135
47.3099
46.8907
46.4563
46.0068
45.5428
45.0652
44.5751
44.0739
43.5636
43.0463
42.5247
42.0018
41.4811
40.9662
40.4613
39.9706
39.4983
39.0487
38.6259
38.2337
37.8752
37.553
37.2691
37.0245
36.8193
36.6521
36.5259
36.4371
36.3811
36.3531
36.3488
36.3642
36.3954
36.4394
36.4931
36.5541
36.62
36.6893
36.7601
36.8314
36.9022
36.9718
37.0394
37.1048
37.1674
37.2271
37.2836
37.3369
37.3868
37.4332
37.4761
37.5155
37.5512
37.5835
37.6122
37.6374
37.6592
37.6771
37.6916
37.705
)
;
    }
    frontAndBack
    {
        type            empty;
    }
}


// ************************************************************************* //
