# y+ ()       
# Time        	patch         	min           	max           	average       
1600          	lowerWall	3.983357e-01	6.501328e+01	3.725012e+01
1600          	upperWall	3.125910e+01	5.508446e+01	4.627213e+01
