# y+ ()       
# Time        	patch         	min           	max           	average       
1500          	lowerWall	3.993196e-01	6.501308e+01	3.738981e+01
1500          	upperWall	3.125910e+01	5.508446e+01	4.627213e+01
