/*--------------------------------*- C++ -*----------------------------------*\
  =========                 |
  \\      /  F ield         | OpenFOAM: The Open Source CFD Toolbox
   \\    /   O peration     | Website:  https://openfoam.org
    \\  /    A nd           | Version:  10
     \\/     M anipulation  |
\*---------------------------------------------------------------------------*/
FoamFile
{
    format      ascii;
    class       volScalarField;
    location    "0.135";
    object      epsilon;
}
// * * * * * * * * * * * * * * * * * * * * * * * * * * * * * * * * * * * * * //

dimensions      [0 2 -3 0 0 0 0];

internalField   nonuniform List<scalar> 
6820
(
23.2969
22.5752
21.9094
21.2853
20.7019
20.1632
19.6735
19.2344
18.8457
18.505
18.2092
17.9545
17.7372
17.5533
17.3995
17.2724
17.169
17.0867
17.0229
16.9756
16.9427
16.9225
16.9135
16.9143
16.9237
16.9406
16.9635
16.9945
17.0193
17.1003
16.9428
17.9217
13.5914
5.03385
6.81827
7.83925
8.46745
8.89779
9.23104
9.52101
9.79413
10.0624
10.3308
10.6013
10.874
11.1489
11.4253
11.7027
11.9804
12.2579
12.5345
12.8098
13.0831
13.354
13.6222
13.8873
14.1492
14.4079
14.6636
14.9172
15.1702
15.4248
15.6975
15.9562
16.4482
16.4536
3.7036
4.1472
4.56525
4.9142
5.19789
5.43111
5.6279
5.79948
5.95428
6.0984
6.23614
6.3704
6.50309
6.63543
6.76816
6.90167
7.03615
7.17162
7.30804
7.44527
7.58316
7.72153
7.86022
7.99908
8.13799
8.27695
8.41598
8.55561
8.69565
8.83975
8.98276
9.1432
9.29245
3.54009
3.61093
3.72473
3.85371
3.98115
4.09939
4.20616
4.30189
4.38807
4.46648
4.53883
4.60661
4.67108
4.73323
4.79382
4.85345
4.91255
4.97144
5.03033
5.08938
5.14869
5.2083
5.26825
5.32855
5.38921
5.45025
5.51173
5.57378
5.6365
5.70052
5.7658
5.83347
5.90487
3.52064
3.50151
3.50498
3.52611
3.55867
3.5972
3.63778
3.678
3.71659
3.753
3.78713
3.81914
3.84929
3.87787
3.90519
3.93152
3.95712
3.98218
4.00688
4.03135
4.05571
4.08005
4.10443
4.12891
4.15353
4.17834
4.20339
4.22875
4.25448
4.28075
4.30763
4.33523
4.36371
3.5194
3.48247
3.45303
3.43232
3.41995
3.4145
3.41422
3.41749
3.42305
3.42994
3.43752
3.44538
3.45326
3.46104
3.46865
3.47608
3.48336
3.49051
3.49758
3.50461
3.51164
3.5187
3.52584
3.53308
3.54044
3.54797
3.55567
3.5636
3.57178
3.58026
3.5891
3.5983
3.60789
3.51943
3.47974
3.44283
3.40949
3.38025
3.35523
3.3342
3.31668
3.30212
3.28997
3.27975
3.27104
3.26352
3.25693
3.25109
3.24586
3.24113
3.23682
3.23289
3.22929
3.22599
3.22299
3.22026
3.2178
3.21561
3.21368
3.21201
3.21061
3.20949
3.20867
3.20815
3.20793
3.20802
3.51947
3.47943
3.44109
3.40466
3.37041
3.33852
3.30907
3.28205
3.25735
3.2348
3.21418
3.19529
3.17793
3.1619
3.14704
3.13321
3.12029
3.10816
3.09676
3.086
3.07583
3.06619
3.05705
3.04837
3.04012
3.03228
3.02483
3.01776
3.01106
3.00471
2.99871
2.99306
2.98774
3.51948
3.47941
3.44085
3.40382
3.36835
3.33448
3.30225
3.27169
3.2428
3.21553
3.18983
3.16563
3.14283
3.12134
3.10105
3.08188
3.06374
3.04654
3.03022
3.01469
2.99991
2.98581
2.97236
2.9595
2.9472
2.93542
2.92415
2.91334
2.90299
2.89307
2.88357
2.87447
2.86575
3.51948
3.4794
3.44082
3.40368
3.36796
3.33361
3.30063
3.26898
3.23865
3.20961
3.18185
3.15532
3.12998
3.10579
3.08269
3.06063
3.03956
3.01941
3.00015
2.98172
2.96406
2.94715
2.93092
2.91536
2.90041
2.88606
2.87225
2.85898
2.84622
2.83395
2.82213
2.81077
2.79983
3.51948
3.4794
3.44081
3.40365
3.36788
3.33344
3.30027
3.26834
3.23759
3.208
3.17952
3.15213
3.12579
3.10047
3.07612
3.05272
3.03022
3.00859
2.98779
2.96779
2.94855
2.93003
2.9122
2.89503
2.8785
2.86256
2.8472
2.83239
2.81811
2.80434
2.79106
2.77825
2.76588
3.51948
3.4794
3.4408
3.40364
3.36786
3.3334
3.30019
3.26819
3.23733
3.20759
3.1789
3.15124
3.12456
3.09883
3.07401
3.05007
3.02697
3.00469
2.9832
2.96246
2.94244
2.92312
2.90447
2.88646
2.86906
2.85226
2.83603
2.82035
2.8052
2.79055
2.7764
2.76272
2.74949
3.51948
3.4794
3.44079
3.40363
3.36785
3.33337
3.30016
3.26814
3.23726
3.20747
3.17873
3.15099
3.12421
3.09835
3.07337
3.04924
3.02593
3.0034
2.98163
2.96059
2.94024
2.92057
2.90155
2.88314
2.86534
2.84812
2.83146
2.81533
2.79972
2.78462
2.76999
2.75584
2.74214
3.51947
3.47939
3.44079
3.40362
3.36783
3.33336
3.30013
3.26811
3.23722
3.20742
3.17866
3.1509
3.12409
3.09819
3.07317
3.04898
3.0256
3.00299
2.98112
2.95996
2.9395
2.91969
2.90051
2.88195
2.86398
2.84657
2.82971
2.81339
2.79757
2.78224
2.7674
2.75301
2.73907
3.51947
3.47939
3.44079
3.40362
3.36782
3.33334
3.30012
3.26808
3.23719
3.20739
3.17862
3.15085
3.12403
3.09812
3.07308
3.04887
3.02547
3.00283
2.98093
2.95974
2.93923
2.91937
2.90014
2.88152
2.86348
2.846
2.82907
2.81266
2.79675
2.78133
2.76639
2.7519
2.73784
3.51947
3.47939
3.44078
3.40361
3.36782
3.33333
3.3001
3.26806
3.23717
3.20736
3.17859
3.15081
3.12399
3.09807
3.07302
3.04881
3.0254
3.00275
2.98084
2.95963
2.93911
2.91923
2.89998
2.88134
2.86328
2.84577
2.82881
2.81236
2.79642
2.78097
2.76598
2.75144
2.73734
3.51947
3.47939
3.44078
3.40361
3.36781
3.33332
3.30009
3.26805
3.23715
3.20733
3.17856
3.15078
3.12395
3.09802
3.07297
3.04876
3.02534
3.00269
2.98077
2.95956
2.93902
2.91914
2.89989
2.88123
2.86316
2.84564
2.82867
2.81221
2.79625
2.78078
2.76577
2.75121
2.73709
3.51947
3.47939
3.44078
3.4036
3.3678
3.33331
3.30008
3.26803
3.23713
3.20731
3.17853
3.15075
3.12391
3.09799
3.07293
3.04871
3.02529
3.00263
2.98071
2.95949
2.93895
2.91907
2.89981
2.88115
2.86307
2.84555
2.82856
2.8121
2.79613
2.78065
2.76563
2.75106
2.73692
3.51947
3.47939
3.44078
3.4036
3.3678
3.33331
3.30007
3.26802
3.23711
3.20729
3.17851
3.15072
3.12388
3.09795
3.07289
3.04867
3.02524
3.00258
2.98065
2.95943
2.93889
2.919
2.89974
2.88107
2.86299
2.84546
2.82847
2.812
2.79603
2.78053
2.7655
2.75092
2.73677
3.51947
3.47939
3.44077
3.4036
3.36779
3.3333
3.30006
3.26801
3.2371
3.20727
3.17849
3.1507
3.12385
3.09792
3.07286
3.04863
3.0252
3.00253
2.9806
2.95938
2.93883
2.91894
2.89967
2.881
2.86291
2.84538
2.82838
2.8119
2.79592
2.78042
2.76539
2.7508
2.73664
3.51947
3.47939
3.44077
3.40359
3.36779
3.33329
3.30005
3.268
3.23708
3.20726
3.17847
3.15067
3.12383
3.09789
3.07283
3.04859
3.02516
3.00249
2.98056
2.95933
2.93878
2.91888
2.8996
2.88093
2.86284
2.8453
2.8283
2.81181
2.79583
2.78032
2.76528
2.75068
2.73651
3.51947
3.47938
3.44077
3.40359
3.36779
3.33329
3.30004
3.26799
3.23707
3.20724
3.17845
3.15065
3.12381
3.09787
3.0728
3.04856
3.02512
3.00245
2.98051
2.95928
2.93873
2.91882
2.89954
2.88087
2.86277
2.84522
2.82822
2.81173
2.79573
2.78022
2.76517
2.75056
2.73639
3.51947
3.47938
3.44077
3.40359
3.36778
3.33329
3.30004
3.26798
3.23706
3.20723
3.17844
3.15064
3.12379
3.09784
3.07277
3.04853
3.02509
3.00242
2.98047
2.95924
2.93868
2.91877
2.89949
2.88081
2.8627
2.84515
2.82814
2.81164
2.79564
2.78012
2.76506
2.75045
2.73626
3.51947
3.47938
3.44077
3.40359
3.36778
3.33328
3.30003
3.26798
3.23705
3.20722
3.17843
3.15062
3.12377
3.09782
3.07275
3.04851
3.02506
3.00238
2.98044
2.9592
2.93864
2.91872
2.89944
2.88075
2.86264
2.84508
2.82807
2.81156
2.79556
2.78003
2.76496
2.75034
2.73615
3.51947
3.47938
3.44077
3.40359
3.36778
3.33328
3.30003
3.26797
3.23705
3.20721
3.17841
3.15061
3.12375
3.09781
3.07273
3.04848
3.02503
3.00235
2.9804
2.95916
2.93859
2.91868
2.89939
2.88069
2.86258
2.84502
2.828
2.81149
2.79548
2.77994
2.76487
2.75024
2.73604
3.51947
3.47938
3.44077
3.40359
3.36778
3.33328
3.30003
3.26797
3.23704
3.20721
3.17841
3.1506
3.12374
3.09779
3.07271
3.04846
3.02501
3.00233
2.98038
2.95913
2.93856
2.91864
2.89934
2.88064
2.86253
2.84496
2.82793
2.81142
2.7954
2.77986
2.76478
2.75014
2.73593
3.51947
3.47938
3.44077
3.40359
3.36778
3.33328
3.30002
3.26796
3.23704
3.2072
3.1784
3.15059
3.12373
3.09778
3.07269
3.04844
3.02499
3.0023
2.98035
2.9591
2.93852
2.9186
2.8993
2.8806
2.86247
2.8449
2.82787
2.81135
2.79533
2.77978
2.76469
2.75005
2.73583
3.51947
3.47938
3.44077
3.40359
3.36778
3.33328
3.30002
3.26796
3.23704
3.2072
3.17839
3.15058
3.12372
3.09777
3.07268
3.04843
3.02498
3.00229
2.98033
2.95908
2.9385
2.91857
2.89926
2.88056
2.86243
2.84486
2.82782
2.81129
2.79526
2.77971
2.76462
2.74997
2.73575
3.51947
3.47938
3.44077
3.40359
3.36778
3.33327
3.30002
3.26796
3.23703
3.20719
3.17839
3.15057
3.12371
3.09775
3.07267
3.04841
3.02496
3.00226
2.9803
2.95905
2.93847
2.91854
2.89923
2.88052
2.86239
2.84481
2.82777
2.81124
2.7952
2.77964
2.76455
2.74989
2.73566
3.51947
3.47938
3.44077
3.40359
3.36778
3.33328
3.30003
3.26796
3.23704
3.2072
3.1784
3.15059
3.12372
3.09777
3.07268
3.04842
3.02496
3.00227
2.9803
2.95905
2.93846
2.91853
2.89922
2.8805
2.86237
2.84479
2.82774
2.8112
2.79516
2.7796
2.7645
2.74984
2.7356
3.51947
3.47939
3.44077
3.40359
3.36778
3.33328
3.30002
3.26796
3.23703
3.20719
3.17838
3.15057
3.12371
3.09775
3.07266
3.04841
3.02495
3.00225
2.98029
2.95903
2.93845
2.91851
2.8992
2.88049
2.86235
2.84477
2.82772
2.81118
2.79514
2.77958
2.76447
2.74981
2.73557
3.51947
3.47938
3.44077
3.40359
3.36779
3.3333
3.30005
3.268
3.23708
3.20724
3.17844
3.15063
3.12377
3.09782
3.07273
3.04847
3.02501
3.00232
2.98035
2.95909
2.93851
2.91858
2.89927
2.88056
2.86242
2.84484
2.8278
2.81127
2.79523
2.77968
2.76458
2.74993
2.7357
3.51948
3.4794
3.44079
3.40362
3.36782
3.33332
3.30007
3.26801
3.23708
3.20725
3.17845
3.15064
3.12379
3.09784
3.07277
3.04853
3.02509
3.00241
2.98047
2.95924
2.93869
2.91878
2.89951
2.88084
2.86274
2.84521
2.82821
2.81173
2.79575
2.78025
2.76521
2.75062
2.73646
3.51947
3.47939
3.44079
3.40365
3.36789
3.33343
3.30023
3.26821
3.23733
3.20753
3.17878
3.15102
3.12421
3.09833
3.07332
3.04916
3.02581
3.00325
2.98143
2.96033
2.93992
2.92018
2.90108
2.88259
2.8647
2.84737
2.8306
2.81435
2.7986
2.78335
2.76857
2.75424
2.74034
3.51949
3.47947
3.44095
3.40385
3.36811
3.33369
3.30054
3.26862
3.23789
3.2083
3.1798
3.15236
3.12593
3.10048
3.07597
3.05236
3.02961
3.00769
2.98656
2.9662
2.94657
2.92764
2.90938
2.89176
2.87476
2.85835
2.8425
2.8272
2.81241
2.79812
2.7843
2.77095
2.75802
3.5195
3.47952
3.44117
3.40446
3.36933
3.33572
3.30359
3.2729
3.24361
3.2157
3.1891
3.16376
3.13964
3.11667
3.09481
3.07398
3.05413
3.03521
3.01716
2.99994
2.98349
2.96777
2.95273
2.93834
2.92455
2.91133
2.89865
2.88647
2.87477
2.86351
2.85268
2.84225
2.83219
3.51969
3.48122
3.44561
3.41286
3.38295
3.35586
3.33147
3.30961
3.29007
3.27262
3.25706
3.24318
3.23079
3.21971
3.20979
3.20089
3.19288
3.18565
3.1791
3.17313
3.16768
3.16267
3.15805
3.15375
3.14975
3.14599
3.14244
3.13907
3.13585
3.13276
3.12979
3.1269
3.1241
3.52527
3.51368
3.51618
3.52943
3.55064
3.57779
3.60925
3.64375
3.68033
3.71824
3.7569
3.79586
3.83476
3.87333
3.91134
3.94865
3.98511
4.02066
4.05521
4.08874
4.12121
4.15262
4.18295
4.21222
4.24044
4.26762
4.2938
4.31899
4.34322
4.36652
4.38893
4.41047
4.43119
3.83318
4.36509
4.84919
5.31426
5.77478
6.22617
6.66411
7.08678
7.49379
7.88555
8.26283
8.62654
8.97757
9.31677
9.64487
9.96255
10.2704
10.5689
10.8586
11.1398
11.4128
11.6782
11.936
12.1866
12.4304
12.6674
12.898
13.1225
13.3409
13.5535
13.7606
13.9623
14.1589
30.2663
32.7713
35.3126
37.865
40.4148
42.9529
45.4712
47.9622
50.4189
52.8351
55.2053
57.5245
59.7888
61.9947
64.1395
66.2209
68.2373
70.1876
72.071
73.8874
75.6368
77.3196
78.9364
80.4882
81.9761
83.4013
84.7654
86.0698
87.3162
88.5063
89.6418
90.7244
91.757
84.3934
233.675
411.342
576.799
703.91
782.593
815.949
814.339
789.575
751.941
708.914
665.206
623.404
584.669
549.33
517.291
488.287
462.018
438.202
416.585
396.939
379.048
362.707
347.71
333.862
320.974
308.868
297.385
286.379
275.725
265.316
255.061
244.889
234.748
224.603
214.438
204.253
194.068
183.915
173.837
163.888
154.125
144.611
135.405
126.564
118.136
110.162
102.667
95.6644
89.1502
83.1073
77.5044
72.2986
67.4378
62.864
58.516
54.333
50.2582
46.2425
42.2476
38.2495
34.2417
30.2375
26.2718
22.4012
18.7017
15.2632
12.1781
9.52627
7.35685
5.67478
4.4389
3.57484
2.9961
2.62249
2.38955
2.24989
2.17052
2.12911
2.11093
2.10638
2.10938
2.11618
2.12461
2.13351
2.14241
2.15128
2.16038
2.17004
2.18066
2.19253
2.20581
2.22045
2.23621
2.25267
2.26923
2.28523
2.29986
2.31232
2.32519
19.2962
27.994
44.2208
68.6901
100.72
138.511
179.521
220.869
259.734
293.76
321.29
341.478
354.267
360.26
360.509
356.281
348.838
339.288
328.51
317.138
305.595
294.139
282.912
271.983
261.373
251.075
241.061
231.297
221.74
212.349
203.084
193.91
184.8
175.736
166.712
157.733
148.819
140
131.315
122.813
114.543
106.558
98.9065
91.634
84.7782
78.3681
72.4218
66.9453
61.9323
57.3643
53.2115
49.4349
45.9878
42.8183
39.8717
37.0934
34.4306
31.8362
29.2706
26.7053
24.125
21.53
18.9376
16.3822
13.9138
11.5929
9.48312
7.64076
6.10313
4.88024
3.95332
3.28165
2.81427
2.50091
2.29858
2.17359
2.10091
2.0626
2.04607
2.04273
2.04683
2.05464
2.06386
2.07314
2.08185
2.08979
2.09711
2.10412
2.11126
2.11897
2.12762
2.13748
2.14862
2.16096
2.17419
2.18785
2.20138
2.21409
2.22513
2.23716
9.44227
9.79881
10.7578
12.69
15.8573
20.4321
26.4426
33.9493
43.0344
53.6825
65.7157
78.7863
92.4002
105.967
118.869
130.542
140.54
148.575
154.527
158.43
160.433
160.758
159.663
157.41
154.235
150.342
145.895
141.021
135.815
130.35
124.682
118.856
112.912
106.884
100.81
94.7284
88.6807
82.7127
76.872
71.2061
65.7603
60.5755
55.6862
51.12
46.8958
43.0242
39.5065
36.3354
33.4953
30.9631
28.7098
26.7017
24.9019
23.2717
21.7718
20.3641
19.0128
17.6865
16.3595
15.0144
13.6436
12.2506
10.8506
9.46953
8.14153
6.90451
5.79408
4.83719
4.04728
3.42272
2.94903
2.60374
2.36167
2.19887
2.09469
2.03243
1.99914
1.98509
1.98319
1.98839
1.99725
2.00746
2.0176
2.02684
2.03484
2.04158
2.04725
2.05224
2.05698
2.06193
2.06754
2.07411
2.08184
2.09075
2.10066
2.11125
2.12206
2.1325
2.14178
2.15234
5.98217
6.06438
6.17347
6.36142
6.68629
7.20127
7.94608
8.95531
10.2463
11.8387
13.7631
16.0495
18.7194
21.7774
25.203
28.9446
32.9175
37.0075
41.0788
44.9851
48.5835
51.7472
54.377
56.4071
57.8071
58.5782
58.7471
58.3587
57.4692
56.1411
54.4383
52.4239
50.1582
47.6979
45.0963
42.4038
39.668
36.9341
34.2438
31.635
29.1398
26.7845
24.5887
22.5654
20.7216
19.0586
17.5726
16.2557
15.0961
14.0796
13.1897
12.4084
11.7171
11.0966
10.5278
9.99175
9.47094
8.94949
8.4145
7.85714
7.27381
6.66695
6.04522
5.42284
4.81787
4.24956
3.73536
3.28816
2.91465
2.61509
2.38446
2.21427
2.09442
2.01466
1.96557
1.93898
1.9282
1.92792
1.93412
1.94382
1.9549
1.96594
1.97602
1.98465
1.99163
1.99703
2.00108
2.00415
2.00666
2.00909
2.01187
2.01538
2.01987
2.02544
2.03206
2.0395
2.04743
2.05534
2.0626
2.0711
4.39663
4.43275
4.4695
4.51219
4.56933
4.65205
4.77182
4.94004
5.16336
5.44581
5.79146
6.20411
6.68702
7.24252
7.87149
8.57267
9.34211
10.1725
11.0526
11.9666
12.8942
13.8106
14.6883
15.4984
16.2133
16.8081
17.263
17.5643
17.7048
17.6842
17.5086
17.1894
16.7424
16.1864
15.5421
14.8308
14.0739
13.2922
12.5048
11.7288
10.9784
10.265
9.59666
8.97883
8.4143
7.90383
7.44647
7.03992
6.68082
6.365
6.08763
5.8434
5.62657
5.43105
5.25046
5.07818
4.90762
4.73247
4.54722
4.34775
4.13191
3.90011
3.65552
3.40394
3.15312
2.91177
2.6882
2.48926
2.31947
2.18073
2.07255
1.99255
1.93712
1.90202
1.88296
1.87591
1.87735
1.88435
1.89456
1.90617
1.91787
1.92872
1.93812
1.94577
1.95155
1.95557
1.95805
1.95933
1.95982
1.95997
1.9602
1.9609
1.96237
1.96479
1.96822
1.97253
1.97751
1.98274
1.98777
1.99375
3.61931
3.63218
3.64505
3.65835
3.67309
3.69111
3.71501
3.74788
3.79237
3.85075
3.92469
4.01529
4.12313
4.2483
4.39038
4.54844
4.72102
4.90616
5.10132
5.30334
5.50843
5.71215
5.90951
6.09513
6.26351
6.40931
6.52763
6.61433
6.66623
6.68141
6.6593
6.60072
6.5078
6.3838
6.23284
6.0597
5.86948
5.66742
5.45863
5.24784
5.03925
4.83636
4.64192
4.45797
4.2859
4.12652
3.98017
3.84677
3.72592
3.61691
3.51878
3.43033
3.35015
3.27658
3.20775
3.14159
3.07588
3.00832
2.93673
2.85929
2.77477
2.68288
2.58441
2.48129
2.37649
2.27362
2.17648
2.08854
2.0125
1.95001
1.90161
1.86682
1.84436
1.83243
1.829
1.832
1.83952
1.84984
1.86155
1.8735
1.88481
1.89485
1.9032
1.90965
1.91414
1.91677
1.91775
1.91739
1.91606
1.91416
1.91211
1.91029
1.90901
1.90852
1.90893
1.91021
1.91226
1.91474
1.91744
1.92051
3.20843
3.20904
3.2097
3.21044
3.21135
3.21267
3.21486
3.21856
3.22454
3.23361
3.24652
3.26391
3.2862
3.31362
3.34613
3.38351
3.42527
3.47073
3.51905
3.56918
3.61994
3.66999
3.7179
3.76216
3.80128
3.83382
3.85845
3.87405
3.87971
3.8748
3.85905
3.83251
3.79556
3.74893
3.69361
3.63078
3.5618
3.4881
3.41114
3.33234
3.25303
3.17436
3.09735
3.02279
2.95129
2.88327
2.81901
2.75865
2.70218
2.64951
2.60045
2.55471
2.51192
2.47163
2.43327
2.39623
2.35977
2.32314
2.28555
2.24632
2.20492
2.16116
2.11522
2.06776
2.0199
1.97311
1.92907
1.88939
1.85547
1.82826
1.80823
1.7953
1.78896
1.78835
1.79243
1.80003
1.81002
1.82135
1.83309
1.84444
1.85478
1.86365
1.87074
1.87589
1.87905
1.88032
1.87989
1.87802
1.87505
1.87134
1.86727
1.8632
1.85947
1.85633
1.85394
1.85237
1.85159
1.85133
1.85164
1.85155
2.98192
2.97548
2.96909
2.96274
2.95645
2.95023
2.94416
2.93834
2.93294
2.92815
2.92422
2.92137
2.91981
2.91969
2.9211
2.92406
2.92846
2.93416
2.94089
2.94831
2.95602
2.96356
2.97041
2.97603
2.97988
2.98145
2.98024
2.97585
2.96793
2.95623
2.94061
2.92104
2.89761
2.87051
2.84004
2.80659
2.77058
2.73251
2.69288
2.6522
2.61095
2.56958
2.52849
2.48802
2.44842
2.4099
2.37258
2.33656
2.30186
2.26849
2.23639
2.20551
2.17575
2.14701
2.11914
2.09199
2.06538
2.0391
2.01296
1.98679
1.96047
1.93399
1.90747
1.88124
1.85578
1.83174
1.80985
1.79086
1.77542
1.764
1.75682
1.75384
1.75477
1.75911
1.76623
1.7754
1.78586
1.7969
1.80783
1.81807
1.82713
1.83466
1.84039
1.84419
1.84604
1.846
1.84424
1.84099
1.83654
1.83122
1.82537
1.81934
1.81343
1.80792
1.803
1.79879
1.79533
1.79241
1.79038
1.78696
2.85604
2.84521
2.83445
2.82376
2.81312
2.80254
2.79201
2.78153
2.77115
2.76089
2.75082
2.74098
2.73144
2.72226
2.71347
2.7051
2.69716
2.6896
2.68238
2.6754
2.66853
2.66161
2.65448
2.64692
2.63873
2.6297
2.61965
2.60839
2.59577
2.58168
2.56605
2.54884
2.53006
2.50978
2.48807
2.46509
2.44098
2.41593
2.39013
2.36375
2.33701
2.31006
2.28307
2.25617
2.22948
2.20306
2.17698
2.15128
2.12596
2.10102
2.07648
2.05232
2.02853
2.00512
1.98209
1.95944
1.93719
1.91536
1.89397
1.87306
1.85271
1.83303
1.81416
1.79635
1.77987
1.76507
1.7523
1.74193
1.73424
1.72945
1.72761
1.72865
1.73234
1.73832
1.74613
1.75525
1.76512
1.77517
1.78487
1.79374
1.80139
1.8075
1.81186
1.81433
1.8149
1.81361
1.81062
1.8061
1.80033
1.79359
1.78618
1.77842
1.77061
1.76301
1.75584
1.74923
1.7433
1.73786
1.73357
1.72679
2.78758
2.77387
2.76025
2.7467
2.73322
2.71979
2.70643
2.69313
2.67989
2.66671
2.65361
2.64059
2.62766
2.61482
2.60209
2.58946
2.57694
2.56451
2.55216
2.53988
2.52761
2.51532
2.50294
2.49041
2.47766
2.46459
2.45115
2.43725
2.42285
2.40787
2.3923
2.37611
2.35928
2.34185
2.32384
2.30529
2.28626
2.26681
2.24701
2.22692
2.20661
2.18614
2.16556
2.14492
2.12425
2.10357
2.08289
2.06222
2.04155
2.0209
2.00026
1.97965
1.95909
1.93861
1.91827
1.89814
1.87828
1.8588
1.8398
1.82141
1.80378
1.78705
1.77141
1.75707
1.74423
1.73313
1.72397
1.71695
1.71221
1.70984
1.70982
1.71203
1.71628
1.72225
1.72959
1.73786
1.74659
1.75533
1.76361
1.77103
1.77723
1.78193
1.78494
1.78614
1.78548
1.78303
1.77888
1.77321
1.76625
1.75825
1.74947
1.74022
1.73075
1.72133
1.71216
1.70342
1.69525
1.68748
1.68108
1.67099
2.75199
2.73641
2.72092
2.70549
2.69014
2.67486
2.65964
2.64449
2.6294
2.61439
2.59945
2.58459
2.5698
2.55508
2.54042
2.52583
2.51128
2.49679
2.48233
2.46789
2.45347
2.43905
2.42461
2.41013
2.39558
2.38094
2.36617
2.35126
2.33619
2.32092
2.30546
2.28978
2.27389
2.25778
2.24147
2.22497
2.20829
2.19145
2.17446
2.15733
2.14009
2.12273
2.10526
2.08769
2.07001
2.05221
2.03429
2.01624
1.99804
1.97969
1.96121
1.9426
1.92391
1.90517
1.88645
1.86785
1.84944
1.83136
1.81374
1.79672
1.78047
1.76516
1.75098
1.7381
1.72673
1.71702
1.70915
1.70323
1.69935
1.69753
1.69772
1.69981
1.7036
1.70881
1.71514
1.72219
1.72957
1.73686
1.74367
1.74962
1.7544
1.75775
1.75947
1.75945
1.75765
1.7541
1.7489
1.74218
1.73415
1.72503
1.71506
1.70451
1.69361
1.68261
1.67172
1.6611
1.65094
1.64106
1.63273
1.61946
2.7346
2.71787
2.7012
2.6846
2.66805
2.65157
2.63515
2.6188
2.60252
2.58632
2.57019
2.55415
2.53819
2.52232
2.50653
2.49081
2.47517
2.45959
2.44407
2.4286
2.41318
2.3978
2.38245
2.36713
2.35182
2.33652
2.32122
2.30591
2.29059
2.27525
2.25988
2.24448
2.22905
2.21358
2.19809
2.18256
2.16699
2.15139
2.13575
2.12005
2.10429
2.08845
2.07252
2.05647
2.0403
2.02398
2.0075
1.99082
1.97395
1.95688
1.93961
1.92217
1.90458
1.88691
1.8692
1.85156
1.83408
1.81688
1.8001
1.78389
1.76841
1.75383
1.74033
1.72808
1.71725
1.70799
1.70043
1.69466
1.69075
1.68868
1.68841
1.68981
1.6927
1.69684
1.70193
1.70764
1.7136
1.71944
1.72479
1.72933
1.73274
1.7348
1.73531
1.73416
1.73129
1.72674
1.72056
1.7129
1.70391
1.6938
1.68279
1.6711
1.65897
1.64662
1.63424
1.622
1.6101
1.59833
1.58828
1.57205
2.72668
2.7093
2.69195
2.67465
2.6574
2.6402
2.62305
2.60595
2.58892
2.57197
2.55509
2.53829
2.52158
2.50496
2.48843
2.472
2.45566
2.43941
2.42324
2.40716
2.39116
2.37524
2.35939
2.34362
2.32792
2.31228
2.2967
2.28119
2.26574
2.25034
2.23501
2.21973
2.2045
2.18933
2.1742
2.15911
2.14406
2.12903
2.114
2.09897
2.08391
2.06879
2.0536
2.03831
2.02289
2.00732
1.99157
1.97563
1.95948
1.94312
1.92655
1.9098
1.89288
1.87586
1.8588
1.84178
1.8249
1.80827
1.79204
1.77633
1.7613
1.74712
1.73395
1.72195
1.71126
1.70204
1.69438
1.68838
1.68406
1.68143
1.68042
1.68093
1.68277
1.68573
1.68954
1.69389
1.69844
1.70286
1.70682
1.71001
1.71214
1.71298
1.71235
1.71015
1.7063
1.70082
1.69377
1.68525
1.67541
1.66443
1.6525
1.63984
1.62666
1.61314
1.5995
1.58586
1.57247
1.55905
1.54748
1.52856
2.72333
2.7056
2.68789
2.67022
2.65257
2.63496
2.61739
2.59987
2.5824
2.56499
2.54765
2.53039
2.51321
2.49611
2.47911
2.46221
2.4454
2.4287
2.4121
2.3956
2.37921
2.36292
2.34673
2.33065
2.31466
2.29878
2.283
2.26732
2.25175
2.23627
2.22089
2.20561
2.19043
2.17534
2.16033
2.1454
2.13055
2.11574
2.10097
2.08621
2.07145
2.05665
2.04179
2.02684
2.01178
1.99658
1.98121
1.96565
1.94989
1.93393
1.91777
1.90143
1.88494
1.86834
1.85171
1.8351
1.81863
1.80239
1.78652
1.77113
1.75639
1.74243
1.72941
1.71747
1.70676
1.69739
1.68947
1.68307
1.67822
1.67491
1.67308
1.67263
1.6734
1.67518
1.67772
1.68074
1.68395
1.68702
1.68966
1.69156
1.69248
1.69219
1.69051
1.68733
1.68259
1.67627
1.66842
1.65913
1.64854
1.63679
1.62407
1.61057
1.59648
1.58198
1.56726
1.55245
1.53777
1.52294
1.51006
1.48874
2.72197
2.70407
2.68619
2.66832
2.65047
2.63265
2.61486
2.59711
2.57939
2.56173
2.54412
2.52658
2.50911
2.49173
2.47443
2.45722
2.44011
2.4231
2.4062
2.3894
2.37272
2.35616
2.33971
2.32338
2.30716
2.29107
2.2751
2.25925
2.24353
2.22793
2.21245
2.19709
2.18185
2.16672
2.1517
2.13678
2.12194
2.10718
2.09246
2.07778
2.06311
2.04841
2.03367
2.01886
2.00395
1.98891
1.97372
1.95836
1.94282
1.9271
1.91119
1.89511
1.8789
1.86259
1.84625
1.82994
1.81375
1.79779
1.78217
1.76701
1.75244
1.73861
1.72564
1.71368
1.70285
1.69327
1.68502
1.67817
1.67274
1.66873
1.66607
1.66467
1.66438
1.66502
1.66634
1.6681
1.67003
1.67183
1.67322
1.67393
1.67372
1.67237
1.66972
1.66564
1.66007
1.65299
1.64443
1.63446
1.6232
1.61078
1.59738
1.58316
1.5683
1.55297
1.53734
1.52153
1.50578
1.48975
1.47576
1.45235
2.7214
2.70342
2.68546
2.6675
2.64955
2.63162
2.61372
2.59584
2.57799
2.56019
2.54243
2.52473
2.50709
2.48953
2.47204
2.45463
2.43732
2.4201
2.40299
2.38598
2.36909
2.35231
2.33565
2.31912
2.30271
2.28643
2.27028
2.25426
2.23838
2.22263
2.20701
2.19153
2.17617
2.16094
2.14583
2.13083
2.11592
2.1011
2.08634
2.07163
2.05693
2.04223
2.02751
2.01272
1.99785
1.98287
1.96776
1.9525
1.93708
1.9215
1.90575
1.88985
1.87383
1.85774
1.84161
1.82552
1.80956
1.7938
1.77837
1.76337
1.74892
1.73515
1.72219
1.71016
1.69918
1.68935
1.68075
1.67343
1.66743
1.66272
1.65926
1.65694
1.65564
1.65518
1.65535
1.65592
1.65664
1.65724
1.65746
1.65705
1.65578
1.65346
1.6499
1.64501
1.63869
1.63092
1.62171
1.61114
1.5993
1.58631
1.57232
1.55748
1.54197
1.52594
1.50955
1.49292
1.47627
1.45923
1.44432
1.41911
2.72112
2.70311
2.68509
2.66709
2.64909
2.6311
2.61314
2.59519
2.57727
2.55938
2.54154
2.52374
2.506
2.48832
2.47071
2.45317
2.43572
2.41836
2.40109
2.38393
2.36687
2.34992
2.3331
2.31639
2.29981
2.28336
2.26705
2.25086
2.23482
2.21891
2.20315
2.18752
2.17202
2.15666
2.14142
2.1263
2.11128
2.09635
2.08149
2.06669
2.05193
2.03717
2.02239
2.00758
1.9927
1.97772
1.96264
1.94743
1.93208
1.91658
1.90094
1.88518
1.86931
1.85337
1.83741
1.8215
1.80571
1.79012
1.77483
1.75994
1.74557
1.73184
1.71885
1.70674
1.69558
1.68549
1.67654
1.66877
1.6622
1.65682
1.65258
1.64939
1.64713
1.64563
1.64472
1.64416
1.64374
1.64322
1.64234
1.64089
1.63864
1.6354
1.63102
1.62537
1.61836
1.60997
1.60021
1.58911
1.57676
1.56327
1.54878
1.53344
1.51738
1.50077
1.48375
1.46643
1.44904
1.43116
1.41549
1.38877
2.72093
2.7029
2.68486
2.66682
2.64879
2.63077
2.61276
2.59478
2.57681
2.55887
2.54097
2.52311
2.50529
2.48753
2.46983
2.4522
2.43465
2.41718
2.39979
2.38251
2.36532
2.34824
2.33127
2.31442
2.29769
2.28109
2.26462
2.24829
2.23209
2.21603
2.20011
2.18433
2.16869
2.15318
2.1378
2.12254
2.10738
2.09233
2.07736
2.06245
2.04758
2.03273
2.01789
2.00301
1.98809
1.9731
1.95801
1.94282
1.92751
1.91207
1.89651
1.88085
1.86509
1.84929
1.83347
1.8177
1.80205
1.78659
1.77141
1.75662
1.74231
1.72859
1.71556
1.70334
1.69201
1.68166
1.67235
1.66414
1.65702
1.651
1.64603
1.64201
1.63884
1.63637
1.63442
1.63281
1.63132
1.62974
1.62784
1.62541
1.62224
1.61816
1.61301
1.60667
1.59905
1.59011
1.57984
1.56828
1.5555
1.5416
1.52669
1.51092
1.49442
1.47733
1.4598
1.44191
1.42391
1.40535
1.38906
1.36108
2.72077
2.70272
2.68466
2.66661
2.64855
2.63051
2.61247
2.59445
2.57645
2.55847
2.54052
2.52261
2.50474
2.48691
2.46915
2.45144
2.43381
2.41625
2.39877
2.38138
2.36408
2.34688
2.32979
2.31282
2.29596
2.27922
2.26262
2.24614
2.2298
2.21359
2.19752
2.1816
2.1658
2.15015
2.13462
2.11922
2.10393
2.08874
2.07364
2.05861
2.04364
2.0287
2.01376
1.99882
1.98385
1.96882
1.95371
1.93852
1.92323
1.90784
1.89234
1.87675
1.8611
1.8454
1.82969
1.81405
1.79851
1.78316
1.76808
1.75336
1.73908
1.72536
1.71228
1.69994
1.68843
1.67782
1.66818
1.65953
1.6519
1.64527
1.63959
1.63479
1.63076
1.62736
1.62445
1.62185
1.61935
1.61678
1.61392
1.61058
1.60656
1.6017
1.59584
1.58887
1.58069
1.57126
1.56055
1.5486
1.53546
1.52122
1.50598
1.48986
1.473
1.45553
1.43758
1.41924
1.40075
1.38164
1.36484
1.33585
2.72063
2.70256
2.68449
2.66641
2.64834
2.63027
2.6122
2.59415
2.57612
2.55811
2.54012
2.52216
2.50425
2.48637
2.46855
2.45078
2.43307
2.41543
2.39787
2.38038
2.36299
2.34569
2.3285
2.31141
2.29443
2.27757
2.26083
2.24422
2.22775
2.2114
2.1952
2.17913
2.16319
2.14739
2.13173
2.11618
2.10076
2.08544
2.07021
2.05506
2.03998
2.02493
2.00991
1.9949
1.97986
1.96479
1.94966
1.93446
1.91918
1.90382
1.88837
1.87285
1.85727
1.84166
1.82605
1.81051
1.79507
1.77981
1.76481
1.75014
1.73589
1.72215
1.709
1.69655
1.68485
1.67399
1.66402
1.65496
1.64683
1.63962
1.63327
1.62773
1.62289
1.61862
1.6148
1.61126
1.60783
1.60433
1.60057
1.59637
1.59156
1.58597
1.57946
1.57191
1.56323
1.55337
1.54229
1.53001
1.51658
1.50206
1.48656
1.47018
1.45304
1.43527
1.417
1.39831
1.37943
1.35988
1.34269
1.31288
2.72049
2.70241
2.68432
2.66622
2.64813
2.63004
2.61195
2.59387
2.57581
2.55777
2.53975
2.52175
2.50379
2.48587
2.46799
2.45016
2.43239
2.41468
2.39704
2.37947
2.36199
2.3446
2.32731
2.31011
2.29302
2.27605
2.2592
2.24246
2.22586
2.20939
2.19305
2.17684
2.16077
2.14484
2.12904
2.11336
2.0978
2.08235
2.067
2.05174
2.03654
2.0214
2.00629
1.9912
1.9761
1.96098
1.94582
1.93061
1.91533
1.89999
1.88458
1.86911
1.85359
1.83806
1.82254
1.80707
1.79172
1.77654
1.76159
1.74696
1.73272
1.71895
1.70574
1.69316
1.68129
1.67018
1.65988
1.65043
1.64183
1.63406
1.62709
1.62084
1.61523
1.61015
1.60547
1.60105
1.59673
1.59236
1.58776
1.58276
1.5772
1.57094
1.56383
1.55575
1.54662
1.53638
1.52498
1.51244
1.49878
1.48407
1.46838
1.45181
1.43448
1.41649
1.39798
1.37903
1.35987
1.33997
1.32248
1.29203
2.72035
2.70226
2.68415
2.66604
2.64793
2.62982
2.61171
2.59361
2.57552
2.55744
2.53939
2.52136
2.50335
2.48538
2.46746
2.44957
2.43174
2.41397
2.39626
2.37862
2.36106
2.34358
2.32619
2.3089
2.29171
2.27463
2.25767
2.24082
2.2241
2.2075
2.19104
2.17471
2.15851
2.14245
2.12651
2.11071
2.09502
2.07945
2.06398
2.04861
2.0333
2.01806
2.00287
1.9877
1.97254
1.95737
1.94218
1.92695
1.91167
1.89634
1.88096
1.86553
1.85007
1.83459
1.81914
1.80375
1.78846
1.77334
1.75844
1.74383
1.72958
1.71578
1.70249
1.68979
1.67773
1.66638
1.65578
1.64595
1.6369
1.62861
1.62103
1.61412
1.60779
1.60194
1.59646
1.59121
1.58606
1.58086
1.57546
1.5697
1.56344
1.55654
1.54887
1.54031
1.53078
1.52021
1.50856
1.49582
1.48201
1.46717
1.45137
1.4347
1.41726
1.39914
1.38048
1.36135
1.34198
1.32185
1.30413
1.2732
2.72022
2.70211
2.68399
2.66587
2.64774
2.6296
2.61147
2.59335
2.57523
2.55713
2.53904
2.52098
2.50294
2.48493
2.46695
2.44902
2.43113
2.4133
2.39553
2.37782
2.36018
2.34262
2.32515
2.30777
2.29048
2.27331
2.25624
2.23928
2.22245
2.20574
2.18916
2.17271
2.15639
2.1402
2.12415
2.10822
2.09241
2.07673
2.06114
2.04566
2.03025
2.01492
1.99964
1.9844
1.96918
1.95396
1.93873
1.92348
1.90819
1.89287
1.87751
1.86211
1.84669
1.83127
1.81587
1.80053
1.7853
1.77022
1.75535
1.74075
1.7265
1.71265
1.69927
1.68644
1.67421
1.66263
1.65173
1.64154
1.63206
1.62328
1.61514
1.60761
1.6006
1.59403
1.58778
1.58174
1.57579
1.5698
1.56363
1.55714
1.55021
1.54269
1.53449
1.52548
1.51559
1.50475
1.49291
1.48004
1.46616
1.45128
1.43547
1.41878
1.40132
1.38317
1.36445
1.34523
1.32575
1.30547
1.28761
1.25634
2.7201
2.70197
2.68384
2.6657
2.64755
2.6294
2.61125
2.5931
2.57496
2.55683
2.53872
2.52062
2.50254
2.48449
2.46647
2.44849
2.43056
2.41267
2.39483
2.37706
2.35935
2.34172
2.32417
2.3067
2.28933
2.27206
2.25489
2.23784
2.2209
2.20409
2.18739
2.17083
2.1544
2.1381
2.12193
2.10588
2.08997
2.07417
2.05848
2.04289
2.02739
2.01196
1.9966
1.98129
1.966
1.95074
1.93547
1.92019
1.9049
1.88958
1.87423
1.85885
1.84347
1.82808
1.81273
1.79744
1.78224
1.76719
1.75234
1.73775
1.72347
1.70957
1.69611
1.68316
1.67075
1.65895
1.64777
1.63724
1.62736
1.61811
1.60946
1.60133
1.59368
1.58641
1.57943
1.57263
1.5659
1.55912
1.55218
1.54496
1.53735
1.52923
1.52051
1.51108
1.50088
1.48983
1.47787
1.46496
1.45111
1.4363
1.42058
1.40399
1.38662
1.36855
1.34988
1.33069