/*--------------------------------*- C++ -*----------------------------------*\
  =========                 |
  \\      /  F ield         | OpenFOAM: The Open Source CFD Toolbox
   \\    /   O peration     | Website:  https://openfoam.org
    \\  /    A nd           | Version:  10
     \\/     M anipulation  |
\*---------------------------------------------------------------------------*/
FoamFile
{
    format      ascii;
    class       volScalarField;
    location    "0.135";
    object      k;
}
// * * * * * * * * * * * * * * * * * * * * * * * * * * * * * * * * * * * * * //

dimensions      [0 2 -2 0 0 0 0];

internalField   nonuniform List<scalar> 
6820
(
0.196709
0.190616
0.184994
0.179725
0.174798
0.17025
0.166115
0.162408
0.159125
0.156248
0.153751
0.151601
0.149765
0.148213
0.146914
0.145841
0.144968
0.144273
0.143734
0.143335
0.143057
0.142887
0.142811
0.142818
0.142897
0.143039
0.143233
0.143495
0.143704
0.144388
0.143058
0.151324
0.114756
0.201954
0.200831
0.197543
0.193922
0.19084
0.188583
0.187152
0.186425
0.186254
0.186505
0.187072
0.187875
0.188854
0.189964
0.191172
0.19245
0.193778
0.195141
0.196525
0.19792
0.199318
0.200712
0.202097
0.203469
0.204828
0.206173
0.20751
0.208848
0.210204
0.21169
0.213095
0.216001
0.216596
0.200488
0.200475
0.199118
0.19707
0.194841
0.192691
0.190724
0.188985
0.187487
0.186229
0.185202
0.184389
0.183771
0.183328
0.183042
0.182893
0.182864
0.182941
0.18311
0.183358
0.183675
0.184051
0.184478
0.184949
0.185458
0.186001
0.186574
0.187178
0.187806
0.188495
0.189166
0.190008
0.190617
0.199661
0.199121
0.198219
0.196983
0.195545
0.194012
0.192458
0.190931
0.189463
0.188074
0.186776
0.185577
0.184479
0.183481
0.182582
0.181777
0.181061
0.180429
0.179876
0.179395
0.178981
0.178628
0.178333
0.17809
0.177896
0.177746
0.177639
0.177572
0.177544
0.177562
0.177615
0.177726
0.177878
0.199429
0.198466
0.197531
0.196513
0.195399
0.194214
0.192986
0.19174
0.190495
0.189268
0.188069
0.186909
0.185794
0.184728
0.183714
0.182754
0.181847
0.180993
0.180192
0.179441
0.178739
0.178084
0.177473
0.176905
0.176377
0.175888
0.175436
0.17502
0.174638
0.174292
0.173979
0.173699
0.173449
0.199398
0.198267
0.197202
0.196166
0.195133
0.194088
0.193029
0.191959
0.190884
0.189813
0.188751
0.187705
0.186679
0.185678
0.184705
0.183762
0.182851
0.181973
0.181128
0.180317
0.179539
0.178795
0.178082
0.177402
0.176752
0.176132
0.175542
0.17498
0.174445
0.173939
0.173459
0.173006
0.172577
0.199395
0.19822
0.197098
0.196021
0.194978
0.193957
0.192953
0.191959
0.190974
0.189998
0.189033
0.18808
0.187142
0.18622
0.185316
0.184432
0.183569
0.182729
0.181911
0.181117
0.180346
0.1796
0.178877
0.178178
0.177503
0.17685
0.176221
0.175614
0.175029
0.174466
0.173925
0.173405
0.172906
0.199395
0.198211
0.197069
0.195969
0.194908
0.193881
0.192884
0.191912
0.190961
0.19003
0.189116
0.188219
0.187338
0.186474
0.185626
0.184797
0.183984
0.18319
0.182414
0.181657
0.180919
0.180199
0.179499
0.178817
0.178154
0.17751
0.176885
0.176278
0.175689
0.175118
0.174565
0.17403
0.173513
0.199395
0.198209
0.197063
0.195955
0.194884
0.19385
0.192848
0.191877
0.190935
0.190017
0.189124
0.188252
0.187401
0.18657
0.185757
0.184963
0.184187
0.183429
0.182688
0.181965
0.181258
0.180569
0.179896
0.17924
0.178601
0.177978
0.177371
0.17678
0.176205
0.175646
0.175102
0.174574
0.174062
0.199395
0.198209
0.197061
0.195951
0.194877
0.193838
0.192833
0.19186
0.190917
0.190002
0.189114
0.188251
0.187412
0.186595
0.1858
0.185025
0.18427
0.183533
0.182815
0.182115
0.181432
0.180765
0.180116
0.179482
0.178864
0.178261
0.177674
0.177101
0.176544
0.176001
0.175472
0.174958
0.174457
0.199395
0.198209
0.197061
0.19595
0.194875
0.193834
0.192827
0.191852
0.190908
0.189992
0.189105
0.188244
0.187408
0.186596
0.185808
0.185041
0.184296
0.18357
0.182864
0.182177
0.181508
0.180856
0.18022
0.179602
0.178999
0.178411
0.177839
0.177281
0.176738
0.176208
0.175693
0.175192
0.174704
0.199395
0.198209
0.19706
0.195949
0.194874
0.193833
0.192825
0.191849
0.190903
0.189987
0.189099
0.188238
0.187403
0.186593
0.185806
0.185042
0.1843
0.183579
0.182878
0.182197
0.181534
0.18089
0.180263
0.179652
0.179058
0.17848
0.177917
0.177368
0.176835
0.176315
0.17581
0.175318
0.174839
0.199395
0.198209
0.19706
0.195949
0.194873
0.193832
0.192824
0.191847
0.190901
0.189985
0.189096
0.188235
0.187399
0.186589
0.185802
0.185039
0.184298
0.183579
0.18288
0.182201
0.181541
0.180899
0.180276
0.179669
0.17908
0.178506
0.177948
0.177405
0.176877
0.176363
0.175863
0.175376
0.174903
0.199395
0.198209
0.19706
0.195949
0.194873
0.193831
0.192823
0.191846
0.1909
0.189983
0.189094
0.188232
0.187397
0.186586
0.185799
0.185036
0.184295
0.183576
0.182878
0.182199
0.18154
0.1809
0.180277
0.179673
0.179085
0.178513
0.177957
0.177416
0.176891
0.17638
0.175882
0.175399
0.174929
0.199395
0.198208
0.19706
0.195948
0.194872
0.193831
0.192822
0.191845
0.190899
0.189982
0.189093
0.188231
0.187395
0.186584
0.185797
0.185034
0.184293
0.183573
0.182875
0.182196
0.181537
0.180897
0.180275
0.179671
0.179084
0.178513
0.177957
0.177418
0.176893
0.176383
0.175887
0.175404
0.174935
0.199395
0.198208
0.19706
0.195948
0.194872
0.19383
0.192822
0.191845
0.190898
0.189981
0.189091
0.188229
0.187393
0.186582
0.185795
0.185031
0.18429
0.183571
0.182872
0.182194
0.181535
0.180894
0.180272
0.179668
0.179081
0.17851
0.177955
0.177415
0.176891
0.176381
0.175885
0.175403
0.174934
0.199395
0.198208
0.19706
0.195948
0.194872
0.19383
0.192821
0.191844
0.190897
0.18998
0.18909
0.188228
0.187392
0.18658
0.185793
0.18503
0.184288
0.183568
0.18287
0.182191
0.181532
0.180892
0.18027
0.179665
0.179078
0.178507
0.177951
0.177412
0.176887
0.176377
0.175881
0.175399
0.17493
0.199395
0.198208
0.19706
0.195948
0.194872
0.19383
0.192821
0.191843
0.190897
0.189979
0.189089
0.188227
0.18739
0.186579
0.185792
0.185028
0.184286
0.183566
0.182868
0.182189
0.181529
0.180889
0.180267
0.179662
0.179074
0.178503
0.177948
0.177408
0.176883
0.176373
0.175877
0.175394
0.174925
0.199395
0.198208
0.197059
0.195948
0.194871
0.193829
0.19282
0.191843
0.190896
0.189978
0.189088
0.188226
0.187389
0.186578
0.18579
0.185026
0.184285
0.183565
0.182866
0.182187
0.181527
0.180887
0.180264
0.179659
0.179071
0.1785
0.177945
0.177405
0.17688
0.176369
0.175872
0.17539
0.17492
0.199395
0.198208
0.197059
0.195948
0.194871
0.193829
0.19282
0.191843
0.190895
0.189977
0.189088
0.188225
0.187388
0.186577
0.185789
0.185025
0.184283
0.183563
0.182864
0.182185
0.181525
0.180884
0.180262
0.179657
0.179069
0.178497
0.177941
0.177401
0.176876
0.176365
0.175868
0.175385
0.174915
0.199395
0.198208
0.197059
0.195947
0.194871
0.193829
0.19282
0.191842
0.190895
0.189977
0.189087
0.188224
0.187387
0.186576
0.185788
0.185024
0.184282
0.183561
0.182862
0.182183
0.181523
0.180882
0.180259
0.179654
0.179066
0.178494
0.177938
0.177398
0.176872
0.176361
0.175864
0.17538
0.17491
0.199395
0.198208
0.197059
0.195947
0.194871
0.193829
0.19282
0.191842
0.190895
0.189976
0.189086
0.188223
0.187387
0.186575
0.185787
0.185022
0.18428
0.18356
0.18286
0.182181
0.181521
0.18088
0.180257
0.179652
0.179063
0.178491
0.177935
0.177394
0.176869
0.176357
0.17586
0.175376
0.174905
0.199395
0.198208
0.197059
0.195947
0.194871
0.193829
0.192819
0.191842
0.190894
0.189976
0.189086
0.188223
0.187386
0.186574
0.185786
0.185021
0.184279
0.183559
0.182859
0.182179
0.181519
0.180878
0.180255
0.179649
0.179061
0.178489
0.177932
0.177391
0.176865
0.176353
0.175856
0.175371
0.1749
0.199395
0.198208
0.197059
0.195947
0.194871
0.193829
0.192819
0.191841
0.190894
0.189976
0.189085
0.188222
0.187385
0.186573
0.185785
0.18502
0.184278
0.183557
0.182858
0.182178
0.181518
0.180876
0.180253
0.179647
0.179058
0.178486
0.177929
0.177388
0.176862
0.17635
0.175852
0.175367
0.174896
0.199395
0.198208
0.197059
0.195947
0.194871
0.193829
0.192819
0.191841
0.190894
0.189975
0.189085
0.188222
0.187385
0.186572
0.185784
0.18502
0.184277
0.183556
0.182856
0.182177
0.181516
0.180875
0.180251
0.179645
0.179056
0.178484
0.177927
0.177385
0.176859
0.176346
0.175848
0.175363
0.174892
0.199395
0.198208
0.197059
0.195947
0.194871
0.193828
0.192819
0.191841
0.190894
0.189975
0.189085
0.188222
0.187384
0.186572
0.185784
0.185019
0.184276
0.183555
0.182855
0.182175
0.181515
0.180873
0.18025
0.179643
0.179054
0.178481
0.177924
0.177383
0.176856
0.176343
0.175845
0.17536
0.174887
0.199395
0.198208
0.197059
0.195947
0.194871
0.193828
0.192819
0.191841
0.190893
0.189975
0.189084
0.188221
0.187384
0.186571
0.185783
0.185018
0.184276
0.183555
0.182854
0.182174
0.181514
0.180872
0.180248
0.179642
0.179052
0.178479
0.177922
0.17738
0.176853
0.17634
0.175841
0.175356
0.174884
0.199395
0.198208
0.197059
0.195947
0.194871
0.193828
0.192819
0.191841
0.190893
0.189975
0.189084
0.188221
0.187384
0.186571
0.185783
0.185018
0.184275
0.183554
0.182854
0.182173
0.181513
0.180871
0.180247
0.17964
0.179051
0.178477
0.17792
0.177378
0.176851
0.176338
0.175839
0.175353
0.17488
0.199395
0.198208
0.197059
0.195947
0.194871
0.193828
0.192819
0.191841
0.190893
0.189975
0.189084
0.188221
0.187383
0.186571
0.185782
0.185017
0.184274
0.183553
0.182853
0.182173
0.181512
0.18087
0.180245
0.179639
0.179049
0.178476
0.177918
0.177376
0.176848
0.176335
0.175836
0.17535
0.174877
0.199395
0.198208
0.197059
0.195947
0.194871
0.193828
0.192819
0.191841
0.190893
0.189975
0.189085
0.188221
0.187384
0.186571
0.185783
0.185017
0.184275
0.183553
0.182853
0.182173
0.181512
0.180869
0.180245
0.179638
0.179048
0.178475
0.177917
0.177375
0.176847
0.176334
0.175834
0.175348
0.174875
0.199395
0.198208
0.197059
0.195947
0.194871
0.193828
0.192819
0.191841
0.190893
0.189975
0.189084
0.188221
0.187383
0.186571
0.185782
0.185017
0.184274
0.183553
0.182853
0.182172
0.181511
0.180869
0.180245
0.179638
0.179048
0.178474
0.177916
0.177374
0.176846
0.176332
0.175833
0.175346
0.174873
0.199395
0.198208
0.197059
0.195948
0.194871
0.193829
0.19282
0.191843
0.190895
0.189977
0.189087
0.188223
0.187386
0.186573
0.185785
0.18502
0.184277
0.183555
0.182855
0.182174
0.181513
0.180871
0.180246
0.179639
0.179049
0.178475
0.177917
0.177374
0.176846
0.176332
0.175832
0.175346
0.174872
0.199395
0.198209
0.19706
0.195949
0.194872
0.19383
0.192821
0.191843
0.190896
0.189977
0.189087
0.188224
0.187387
0.186574
0.185786
0.185021
0.184278
0.183557
0.182856
0.182176
0.181515
0.180872
0.180248
0.17964
0.17905
0.178476
0.177917
0.177374
0.176845
0.176331
0.17583
0.175343
0.174868
0.199395
0.198208
0.19706
0.19595
0.194875
0.193835
0.192827
0.191851
0.190904
0.189987
0.189097
0.188234
0.187397
0.186584
0.185796
0.18503
0.184287
0.183565
0.182864
0.182182
0.18152
0.180877
0.180251
0.179642
0.17905
0.178474
0.177914
0.177368
0.176838
0.176321
0.175818
0.175328
0.17485
0.199396
0.198212
0.197066
0.195957
0.194883
0.193842
0.192834
0.191857
0.190911
0.189993
0.189104
0.188241
0.187403
0.18659
0.185801
0.185034
0.184289
0.183565
0.182861
0.182177
0.181511
0.180863
0.180233
0.179619
0.179022
0.17844
0.177873
0.177322
0.176784
0.17626
0.17575
0.175252
0.174767
0.199396
0.198213
0.197071
0.195969
0.194902
0.193869
0.192866
0.191892
0.190947
0.190029
0.189137
0.188269
0.187426
0.186606
0.185808
0.185031
0.184275
0.183539
0.182822
0.182124
0.181444
0.180781
0.180135
0.179505
0.17889
0.178291
0.177707
0.177137
0.176581
0.176039
0.17551
0.174993
0.174489
0.199402
0.198241
0.197115
0.196019
0.194953
0.193916
0.192909
0.191928
0.190972
0.19004
0.189131
0.188244
0.187379
0.186535
0.185711
0.184906
0.184121
0.183355
0.182607
0.181876
0.181163
0.180467
0.179787
0.179123
0.178475
0.177842
0.177223
0.176619
0.176029
0.175452
0.174889
0.174338
0.1738
0.199421
0.198284
0.197214
0.196182
0.195158
0.194135
0.193118
0.192109
0.191115
0.19014
0.189185
0.188253
0.187344
0.186459
0.185596
0.184756
0.183937
0.183139
0.182361
0.181603
0.180864
0.180142
0.179438
0.178751
0.17808
0.177425
0.176785
0.17616
0.17555
0.174953
0.17437
0.173801
0.173244
0.199655
0.198885
0.198077
0.197303
0.196604
0.195977
0.195406
0.194882
0.1944
0.193955
0.193546
0.193173
0.192835
0.192529
0.192256
0.192014
0.191801
0.191616
0.191458
0.191324
0.191214
0.191126
0.191058
0.19101
0.19098
0.190967
0.190969
0.190987
0.191018
0.191062
0.191119
0.191187
0.191265
0.205419
0.216602
0.227661
0.238503
0.249093
0.259416
0.269459
0.279212
0.288667
0.297817
0.306658
0.315188
0.323406
0.331312
0.33891
0.346203
0.353196
0.359894
0.366304
0.372433
0.378289
0.383879
0.389212
0.394296
0.399141
0.403754
0.408144
0.412321
0.416292
0.420066
0.423651
0.427055
0.43029
0.318271
0.628718
0.947211
1.23673
1.47612
1.65527
1.77554
1.84676
1.88177
1.89296
1.89008
1.87972
1.86582
1.85052
1.83488
1.81946
1.80466
1.79079
1.77813
1.76692
1.75726
1.74916
1.74252
1.73712
1.73266
1.72877
1.72501
1.72093
1.71606
1.70993
1.70209
1.69211
1.67964
1.66437
1.64607
1.62462
1.59997
1.5722
1.54149
1.50808
1.47233
1.43465
1.3955
1.3554
1.31487
1.27443
1.23454
1.19562
1.15799
1.12182
1.0872
1.05401
1.02205
0.990926
0.960154
0.929137
0.897214
0.863694
0.827909
0.789264
0.747298
0.701752
0.652631
0.600277
0.545424
0.489243
0.433334
0.379641
0.330245
0.287021
0.251246
0.223308
0.202704
0.188326
0.178843
0.172997
0.169743
0.168276
0.168002
0.168496
0.169461
0.1707
0.172085
0.173541
0.175033
0.17655
0.1781
0.1797
0.181369
0.183122
0.184963
0.186886
0.18887
0.190881
0.192878
0.194811
0.196632
0.198298
0.199708
0.201374
0.229513
0.257817
0.301221
0.360757
0.436477
0.526988
0.628933
0.737349
0.846435
0.950554
1.04504
1.12674
1.19417
1.24744
1.28785
1.31742
1.33836
1.35274
1.36229
1.3683
1.37168
1.37307
1.37289
1.3714
1.36875
1.36499
1.3601
1.35397
1.34644
1.33731
1.32637
1.3134
1.29819
1.28058
1.26046
1.2378
1.21265
1.18516
1.15554
1.1241
1.09122
1.0573
1.0228
0.988194
0.953935
0.920468
0.888178
0.85738
0.828291
0.801015
0.775538
0.751717
0.729289
0.70788
0.687016
0.666147
0.644678
0.622004
0.597553
0.570839
0.541521
0.509457
0.474767
0.437882
0.39957
0.360929
0.323315
0.288191
0.2569
0.230412
0.209146
0.19295
0.181247
0.173252
0.168158
0.16524
0.163895
0.163648
0.164135
0.165087
0.166312
0.16768
0.169106
0.170542
0.171968
0.173384
0.174803
0.176247
0.17774
0.179302
0.180946
0.182672
0.184469
0.186312
0.188166
0.189987
0.19173
0.193354
0.194749
0.196471
0.191431
0.193572
0.198104
0.205629
0.216457
0.230975
0.249645
0.273177
0.302369
0.337757
0.379357
0.42655
0.478083
0.532182
0.586784
0.639821
0.689485
0.734425
0.773814
0.807332
0.835065
0.857379
0.874798
0.887894
0.897206
0.903195
0.906223
0.906554
0.904367
0.899781
0.892866
0.883671
0.872229
0.858584
0.842802
0.824993
0.805317
0.783995
0.761304
0.737565
0.713135
0.688388
0.6637
0.639439
0.615948
0.59353
0.572433
0.552838
0.534846
0.518471
0.503643
0.490201
0.477908
0.466448
0.455446
0.444476
0.433085
0.42082
0.407261
0.392065
0.375013
0.356051
0.335336
0.313257
0.29043
0.267657
0.245834
0.225826
0.208323
0.19374
0.182178
0.173475
0.167294
0.163217
0.160821
0.159711
0.159548
0.16005
0.160994
0.162208
0.163566
0.16498
0.166395
0.167779
0.169121
0.170426
0.171711
0.173
0.174318
0.17569
0.177133
0.178656
0.180254
0.181912
0.183601
0.185284
0.186921
0.188475
0.189826
0.191563
0.178009
0.178174
0.178542
0.179291
0.180564
0.182478
0.185137
0.188676
0.193235
0.199003
0.20623
0.215187
0.226136
0.239281
0.254725
0.272419
0.29214
0.313484
0.335892
0.358701
0.381201
0.402712
0.422637
0.440509
0.456003
0.468933
0.479224
0.486892
0.492011
0.494695
0.49508
0.493316
0.489558
0.483966
0.47671
0.467977
0.457975
0.446933
0.435106
0.422755
0.410148
0.397539
0.385167
0.373243
0.361949
0.351431
0.341796
0.333107
0.325384
0.318601
0.312691
0.307544
0.303012
0.298908
0.295014
0.291082
0.286845
0.282032
0.276391
0.269714
0.261869
0.252828
0.242696
0.231712
0.220245
0.208749
0.197713
0.18759
0.178733
0.171358
0.165541
0.161232
0.158294
0.156537
0.155751
0.155724
0.156264
0.157201
0.158396
0.159736
0.161138
0.162542
0.163908
0.165217
0.166464
0.167655
0.168807
0.169945
0.171094
0.172281
0.173527
0.174845
0.176239
0.1777
0.179208
0.180734
0.182239
0.183695
0.184978
0.186687
0.17316
0.172826
0.172524
0.172295
0.172172
0.172182
0.172351
0.172703
0.17326
0.174042
0.175084
0.176429
0.178128
0.180238
0.182817
0.185917
0.18958
0.19383
0.198665
0.204047
0.209904
0.216119
0.222544
0.229002
0.235306
0.241264
0.246703
0.25147
0.255445
0.258544
0.260721
0.261965
0.262297
0.261765
0.260437
0.258403
0.255765
0.25264
0.24915
0.245419
0.241567
0.237702
0.233921
0.230304
0.226915
0.223803
0.221004
0.218536
0.216404
0.214599
0.213097
0.211857
0.210826
0.209932
0.209085
0.208181
0.2071
0.205712
0.203892
0.201527
0.198538
0.194896
0.190637
0.185867
0.180759
0.175535
0.170442
0.165718
0.161563
0.15812
0.155464
0.153607
0.152506
0.152077
0.152215
0.152805
0.153734
0.154896
0.156201
0.157576
0.158961
0.160314
0.161608
0.162829
0.163973
0.165049
0.166073
0.167066
0.168055
0.169066
0.170122
0.171241
0.17243
0.173689
0.175005
0.176356
0.17771
0.179044
0.180234
0.181874
0.172098
0.171555
0.17102
0.170502
0.170008
0.169548
0.169133
0.168773
0.168473
0.168239
0.168074
0.167985
0.167978
0.168059
0.168241
0.168532
0.168942
0.169481
0.170153
0.17096
0.171897
0.172953
0.174109
0.175339
0.17661
0.177883
0.179119
0.180274
0.181309
0.18219
0.182886
0.183378
0.183657
0.183719
0.183571
0.18323
0.182716
0.182055
0.181279
0.18042
0.179509
0.178576
0.177648
0.176748
0.175894
0.175101
0.174381
0.173742
0.173187
0.172716
0.172326
0.172007
0.171744
0.171516
0.171294
0.171039
0.170708
0.170248
0.169604
0.168724
0.167565
0.166107
0.164354
0.162346
0.160156
0.157886
0.155658
0.153596
0.151814
0.150402
0.149415
0.148876
0.148774
0.149069
0.149706
0.150617
0.151732
0.152982
0.154307
0.155655
0.156984
0.158261
0.159467
0.160591
0.16163
0.162592
0.163492
0.16435
0.165189
0.166035
0.166912
0.167838
0.168828
0.169885
0.171004
0.17217
0.173357
0.174548
0.175623
0.177157
0.172346
0.171716
0.171089
0.170467
0.169852
0.169247
0.168655
0.168081
0.167527
0.166997
0.166492
0.166015
0.165566
0.165149
0.164763
0.164411
0.164095
0.163816
0.163576
0.163377
0.163217
0.163097
0.163012
0.162958
0.16293
0.16292
0.162919
0.162917
0.162906
0.162876
0.162818
0.162727
0.162597
0.162425
0.162211
0.161956
0.161664
0.161339
0.160987
0.160614
0.160228
0.159835
0.159441
0.159051
0.158669
0.158299
0.157943
0.157602
0.157277
0.156968
0.156675
0.156394
0.156124
0.155857
0.155588
0.155304
0.154992
0.154635
0.154213
0.153707
0.153102
0.152387
0.151565
0.150654
0.149686
0.14871
0.147786
0.146977
0.146345
0.14594
0.145798
0.145933
0.146341
0.146999
0.147874
0.148922
0.150096
0.151349
0.152637
0.15392
0.155168
0.156354
0.157462
0.158484
0.159418
0.16027
0.161053
0.161783
0.162483
0.163176
0.163886
0.164632
0.165431
0.166292
0.167214
0.168188
0.169198
0.17023
0.171174
0.172566
0.17293
0.172273
0.171615
0.170957
0.170301
0.169648
0.168998
0.168355
0.167719
0.167093
0.166477
0.165873
0.165282
0.164706
0.164144
0.163597
0.163066
0.162551
0.162054
0.161575
0.161113
0.16067
0.160245
0.159837
0.159445
0.159068
0.158704
0.158351
0.158007
0.157669
0.157335
0.157004
0.156673
0.156342
0.156009
0.155675
0.155339
0.155001
0.154662
0.154323
0.153983
0.153643
0.153303
0.152962
0.152621
0.152279
0.151933
0.151584
0.15123
0.15087
0.150504
0.150131
0.149752
0.149366
0.148973
0.148573
0.148163
0.147743
0.147309
0.146858
0.146389
0.145904
0.145407
0.144911
0.144434
0.144003
0.143649
0.143405
0.143303
0.143371
0.143626
0.144075
0.144712
0.145522
0.146481
0.147556
0.148713
0.149917
0.151133
0.15233
0.153483
0.15457
0.155577
0.156496
0.157326
0.158072
0.158743
0.159355
0.159927
0.16048
0.161036
0.161615
0.162235
0.162907
0.163637
0.164421
0.165248
0.166109
0.166909
0.168128
0.173482
0.172827
0.172171
0.171512
0.170852
0.170192
0.169532
0.168873
0.168216
0.167562
0.166913
0.16627
0.165633
0.165003
0.164382
0.16377
0.163167
0.162573
0.16199
0.161418
0.160857
0.160307
0.15977
0.159244
0.158731
0.15823
0.157741
0.157264
0.156799
0.156345
0.155901
0.155469
0.155046
0.154633
0.154228
0.153833
0.153445
0.153063
0.152688
0.152318
0.15195
0.151584
0.151218
0.15085
0.150478
0.1501
0.149713
0.149315
0.148905
0.148482
0.148045
0.147594
0.147131
0.146656
0.146173
0.145685
0.145195
0.144708
0.144227
0.143758
0.143306
0.142879
0.142485
0.142135
0.141843
0.141627
0.141504
0.141494
0.141614
0.141877
0.142291
0.142858
0.143569
0.144412
0.145366
0.146405
0.147502
0.148628
0.149754
0.150854
0.151906
0.15289
0.153796
0.154614
0.155344
0.155988
0.156554
0.157057
0.157511
0.157936
0.158351
0.158777
0.159232
0.159727
0.160273
0.160871
0.161515
0.162201
0.162848
0.16387
0.173891
0.173249
0.172605
0.171958
0.171309
0.170657
0.170005
0.169351
0.168697
0.168045
0.167394
0.166745
0.166101
0.16546
0.164825
0.164194
0.16357
0.162953
0.162343
0.16174
0.161145
0.16056
0.159983
0.159416
0.158859
0.158312
0.157775
0.15725
0.156736
0.156234
0.155743
0.155263
0.154795
0.154339
0.153893
0.153458
0.153033
0.152616
0.152206
0.151802
0.151401
0.151002
0.150602
0.150199
0.149791
0.149374
0.148947
0.148507
0.148053
0.147582
0.147096
0.146594
0.146078
0.145549
0.145012
0.144471
0.143931
0.143398
0.142881
0.142386
0.141922
0.141499
0.141128
0.14082
0.140586
0.14044
0.140396
0.140463
0.140654
0.140974
0.141426
0.142007
0.142711
0.143522
0.144424
0.145395
0.146409
0.147443
0.148471
0.149469
0.150419
0.151303
0.152109
0.152829
0.153462
0.15401
0.154478
0.154879
0.155225
0.155534
0.155823
0.15611
0.156413
0.156746
0.15712
0.15754
0.158005
0.158515
0.159006
0.159812
0.17415
0.173524
0.172895
0.172262
0.171627
0.17099
0.17035
0.169709
0.169067
0.168424
0.167782
0.167141
0.166503
0.165867
0.165234
0.164604
0.16398
0.16336
0.162745
0.162136
0.161533
0.160938
0.160349
0.159769
0.159197
0.158634
0.158079
0.157535
0.157
0.156476
0.155963
0.15546
0.154968
0.154487
0.154016
0.153556
0.153104
0.152661
0.152224
0.151792
0.151363
0.150936
0.150506
0.150073
0.149634
0.149187
0.148728
0.148256
0.14777
0.147268
0.14675
0.146216
0.145668
0.145109
0.144541
0.143971
0.143403
0.142845
0.142304
0.14179
0.141312
0.14088
0.140505
0.140199
0.139973
0.139837
0.139803
0.139878
0.140069
0.14038
0.140812
0.141359
0.142014
0.142763
0.14359
0.144476
0.145398
0.146334
0.147262
0.14816
0.149009
0.149795
0.150505
0.151133
0.151674
0.152131
0.152508
0.152815
0.153062
0.153266
0.15344
0.153603
0.15377
0.153955
0.15417
0.154424
0.154718
0.155056
0.155391
0.155971
0.174296
0.173681
0.173064
0.172443
0.171821
0.171196
0.170569
0.16994
0.169309
0.168679
0.168048
0.167417
0.166788
0.166161
0.165536
0.164914
0.164295
0.16368
0.163069
0.162462
0.161861
0.161266
0.160676
0.160093
0.159518
0.158949
0.158389
0.157837
0.157294
0.15676
0.156235
0.155719
0.155214
0.154718
0.154231
0.153752
0.153282
0.152819
0.152362
0.151909
0.151458
0.151007
0.150555
0.150098
0.149636
0.149164
0.148682
0.148188
0.14768
0.147157
0.146619
0.146066
0.1455
0.144924
0.14434
0.143755
0.143173
0.142602
0.142049
0.141523
0.141033
0.140591
0.140206
0.13989
0.139652
0.139503
0.139451
0.139504
0.139667
0.139941
0.140326
0.140817
0.141405
0.142079
0.142823
0.143618
0.144446
0.145284
0.146113
0.146913
0.147666
0.148358
0.148978
0.149517
0.149973
0.150345
0.150637
0.150857
0.151015
0.151123
0.151195
0.151246
0.15129
0.151343
0.151415
0.151516
0.151651
0.151824
0.152008
0.152358
0.174367
0.173759
0.17315
0.172538
0.171924
0.171308
0.17069
0.170071
0.16945
0.168828
0.168207
0.167585
0.166965
0.166345
0.165728
0.165113
0.1645
0.163891
0.163285
0.162683
0.162086
0.161493
0.160905
0.160324
0.159748
0.159179
0.158617
0.158062
0.157514
0.156975
0.156443
0.15592
0.155406
0.154899
0.154401
0.15391
0.153427
0.152949
0.152476
0.152006
0.151538
0.15107
0.1506
0.150126
0.149645
0.149157
0.148659
0.148149
0.147626
0.147089
0.146539
0.145975
0.1454
0.144815
0.144225
0.143633
0.143046
0.142469
0.14191
0.141378
0.140882
0.140431
0.140035
0.139705
0.13945
0.13928
0.139202
0.139222
0.139345
0.139572
0.139902
0.140329
0.140845
0.14144
0.142098
0.142803
0.143537
0.144281
0.145015
0.145721
0.146383
0.146986
0.14752
0.147976
0.148351
0.148644
0.148858
0.148998
0.149074
0.149096
0.149077
0.149028
0.148965
0.148899
0.148843
0.148806
0.148795
0.148814
0.148857
0.148979
0.174395
0.173792
0.173187
0.17258
0.171971
0.17136
0.170748
0.170134
0.169519
0.168904
0.168288
0.167673
0.167058
0.166444
0.165832
0.165221
0.164614
0.164008
0.163406
0.162808
0.162213
0.161622
0.161037
0.160456
0.159881
0.159311
0.158748
0.158191
0.15764
0.157097
0.156561
0.156033
0.155511
0.154997
0.15449
0.15399
0.153495
0.153006
0.152521
0.152039
0.151558
0.151076
0.150593
0.150105
0.149612
0.149112
0.148602
0.148081
0.147549
0.147004
0.146447
0.145879
0.145299
0.144712
0.14412
0.143527
0.142938
0.142361
0.141801
0.141266
0.140766
0.140308
0.139904
0.139561
0.139288
0.139095
0.138989
0.138974
0.139055
0.139232
0.139504
0.139866
0.140311
0.140827
0.141402
0.14202
0.142664
0.143317
0.14396
0.144577
0.145152
0.145671
0.146124
0.146503
0.146803
0.147023
0.147164
0.147233
0.147234
0.147179
0.147077
0.146941
0.146782
0.146612
0.146443
0.146283
0.146141
0.14602
0.145932
0.145836
0.174404
0.173802
0.173199
0.172594
0.171987
0.171379
0.170769
0.170158
0.169546
0.168934
0.168321
0.167709
0.167097
0.166486
0.165876
0.165268
0.164662
0.164059
0.163458
0.16286
0.162267
0.161677
0.161091
0.16051
0.159934
0.159363
0.158797
0.158238
0.157684
0.157137
0.156597
0.156063
0.155536
0.155015
0.154501
0.153992
0.153489
0.152991
0.152496
0.152003
0.151512
0.15102
0.150527
0.15003
0.149527
0.149018
0.1485
0.147973
0.147435
0.146886
0.146326
0.145755
0.145175
0.144588
0.143998
0.143407
0.14282
0.142245
0.141686
0.141151
0.140649
0.140187
0.139775
0.13942
0.139131
0.138917
0.138782
0.138733
0.138772
0.138901
0.139117
0.139416
0.139791
0.140232
0.140727
0.141262
0.141821
0.142387
0.142944
0.143477
0.14397
0.14441
0.144787
0.145093
0.145323
0.145475
0.145551
0.145553
0.145488
0.145363
0.145189
0.144975
0.144732
0.144471
0.144203
0.143934
0.143677
0.143429
0.143223
0.142923
0.174403
0.173802
0.173199
0.172594
0.171988
0.17138
0.170771
0.170161
0.16955
0.168939
0.168327
0.167715
0.167104
0.166493
0.165884
0.165276
0.16467
0.164066
0.163465
0.162867
0.162272
0.16168
0.161093
0.16051
0.159931
0.159357
0.158789
0.158226
0.157668
0.157117
0.156571
0.156032
0.155499
0.154972
0.15445
0.153935
0.153424
0.152917
0.152414
0.151913
0.151414
0.150914
0.150412
0.149907
0.149398
0.148882
0.148359
0.147828
0.147287
0.146736
0.146175
0.145605
0.145026
0.144442
0.143854
0.143267
0.142684
0.142112
0.141556
0.141023
0.14052
0.140055
0.139636
0.139271
0.138967
0.138732
0.138571
0.138489
0.138489
0.138571
0.138734
0.138973
0.139282
0.139652
0.140071
0.140526
0.141004
0.141488
0.141963
0.142416
0.142831
0.143196
0.143502
0.14374
0.143905
0.143995
0.14401
0.143952
0.143827
0.143641
0.143403
0.143122
0.142806
0.142466
0.142111
0.141749
0.14139
0.141031
0.140721
0.140234
0.174398
0.173797
0.173194
0.172589
0.171982
0.171374
0.170765
0.170155
0.169544
0.168932
0.16832
0.167707
0.167095
0.166484
0.165873
0.165264
0.164656
0.164051
0.163447
0.162847
0.162249
0.161655
0.161064
0.160477
0.159895
0.159317
0.158744
0.158177
0.157614
0.157057
0.156506
0.155961
0.155422
0.154888
0.15436
0.153837
0.153319
0.152805
0.152294
0.151786
0.151279
0.150772
0.150263
0.149753
0.149238
0.148717
0.148191
0.147656
0.147114
0.146562
0.146001
0.145433
0.144857
0.144276
0.143693
0.14311
0.142532
0.141964
0.141411
0.14088
0.140377
0.13991
0.139485
0.13911
0.138792
0.138538
0.138352
0.138239
0.138202
0.13824
0.138352
0.138535
0.138781
0.139083
0.13943
0.13981
0.14021
0.140616
0.141014
0.14139
0.141731
0.142026
0.142265
0.142439
0.142544
0.142577
0.142536
0.142425
0.142247
0.142007
0.141713
0.141372
0.140994
0.140586
0.140157
0.139715
0.139268
0.138812
0.138411
0.137756
0.174393
0.173791
0.173187
0.172582
0.171975
0.171366
0.170756
0.170145
0.169533
0.16892
0.168306
0.167693
0.167079
0.166466
0.165854
0.165242
0.164632
0.164024
0.163418
0.162814
0.162212
0.161614
0.161019
0.160428
0.159841
0.159259
0.158681
0.158107
0.157539
0.156977
0.15642
0.155868
0.155322
0.154781
0.154246
0.153716
0.153191
0.15267
0.152152
0.151637
0.151123
0.150609
0.150095
0.149579
0.149059
0.148535
0.148005
0.147469
0.146925
0.146374
0.145814
0.145248
0.144675
0.144098
0.143519
0.142941
0.142368
0.141804
0.141255
0.140726
0.140223
0.139753
0.139323
0.138939
0.138608
0.138336
0.138127
0.137985
0.137911
0.137908
0.137972
0.1381
0.138287
0.138524
0.138802
0.13911
0.139436
0.139767
0.140091
0.140394
0.140666
0.140894
0.141069
0.141184
0.141233
0.141213
0.141123
0.140964
0.140739
0.140453
0.140111
0.13972
0.139289
0.138823
0.138331
0.13782
0.137299
0.13676
0.136281
0.135479
0.174387
0.173785
0.17318
0.172574
0.171966
0.171357
0.170746
0.170134
0.16952
0.168906
0.168291
0.167676
0.167061
0.166445
0.165831
0.165217
0.164604
0.163992
0.163383
0.162775
0.16217
0.161568
0.160968
0.160372
0.15978
0.159192
0.158609
0.15803
0.157456
0.156887
0.156323
0.155765
0.155212
0.154664
0.154122
0.153585
0.153053
0.152524
0.152
0.151477
0.150957
0.150438
0.149918
0.149397
0.148873
0.148345
0.147813
0.147275
0.14673
0.146179
0.145621
0.145057
0.144487
0.143914
0.143339
0.142766
0.142197
0.141637
0.141091
0.140564
0.140061
0.139589
0.139154
0.138761
0.138417
0.138127
0.137896
0.137725
0.137618
0.137575
0.137593
0.137669
0.137798
0.137973
0.138185
0.138424
0.138679
0.138938
0.139191
0.139425
0.139629
0.139793
0.139909
0.139968
0.139966
0.139899
0.139765
0.139565
0.1393
0.138974
0.138592
0.138159
0.137683
0.137169
0.136625
0.136056
0.135473
0.134863
0.134318
0.133388
0.174382
0.173779
0.173174
0.172566
0.171958
0.171347
0.170735
0.170122
0.169508
0.168892
0.168276
0.167659
0.167042
0.166424
0.165807
0.16519
0.164575
0.16396
0.163347
0.162736
0.162126
0.16152
0.160916
0.160315
0.159718
0.159124
0.158535
0.15795
0.15737
0.156795
0.156224
0.155659
0.1551
0.154545
0.153996
0.153452
0.152912
0.152377
0.151845
0.151317
0.15079
0.150265
0.149739
0.149213
0.148685
0.148154
0.147619
0.14708
0.146534
0.145983
0.145427
0.144864
0.144298
0.143728
0.143157
0.142588
0.142023
0.141466
0.140923
0.140397
0.139894
0.139419
0.138979
0.138577
0.138221
0.137914
0.13766
0.137463
0.137323
0.13724
0.137214
0.13724
0.137314
0.137428
0.137576
0.137748
0.137934
0.138124
0.138307
0.138474
0.138613
0.138717
0.138777
0.138785
0.138737
0.138628
0.138457