/*--------------------------------*- C++ -*----------------------------------*\
  =========                 |
  \\      /  F ield         | OpenFOAM: The Open Source CFD Toolbox
   \\    /   O peration     | Website:  https://openfoam.org
    \\  /    A nd           | Version:  10
     \\/     M anipulation  |
\*---------------------------------------------------------------------------*/
FoamFile
{
    format      ascii;
    class       volScalarField;
    location    "0.135";
    object      p;
}
// * * * * * * * * * * * * * * * * * * * * * * * * * * * * * * * * * * * * * //

dimensions      [0 2 -2 0 0 0 0];

internalField   nonuniform List<scalar> 
6820
(
-8.81434
-10.1785
-10.5921
-10.6877
-10.7688
-10.8205
-10.8518
-10.8767
-10.8982
-10.9172
-10.935
-10.9519
-10.9683
-10.9842
-10.9999
-11.0153
-11.0305
-11.0456
-11.0606
-11.0755
-11.0902
-11.1048
-11.1192
-11.1332
-11.1468
-11.1595
-11.1709
-11.18
-11.1854
-11.1813
-11.1665
-11.1138
-10.9883
-11.6145
-11.2102
-10.9164
-10.8212
-10.8229
-10.8399
-10.8584
-10.8785
-10.8985
-10.9173
-10.935
-10.9518
-10.968
-10.9836
-10.9989
-11.0139
-11.0287
-11.0433
-11.0578
-11.0723
-11.0867
-11.101
-11.1151
-11.129
-11.1426
-11.1557
-11.1679
-11.1796
-11.1886
-11.2016
-11.2031
-11.2585
-11.2838
-10.4715
-10.3433
-10.5683
-10.7063
-10.7681
-10.8128
-10.8452
-10.871
-10.8932
-10.9129
-10.9309
-10.948
-10.9644
-10.9803
-10.9958
-11.0112
-11.0263
-11.0414
-11.0563
-11.0711
-11.0859
-11.1005
-11.115
-11.1293
-11.1433
-11.1569
-11.1699
-11.1823
-11.1933
-11.2052
-11.2132
-11.2337
-11.2341
-10.838
-10.8548
-10.8306
-10.808
-10.8164
-10.8371
-10.8576
-10.8773
-10.8964
-10.9147
-10.932
-10.9487
-10.9649
-10.9807
-10.9961
-11.0113
-11.0263
-11.0411
-11.0559
-11.0706
-11.0853
-11.0998
-11.1143
-11.1287
-11.1428
-11.1569
-11.1706
-11.1843
-11.1977
-11.2134
-11.2289
-11.2581
-11.2885
-10.728
-10.6741
-10.7181
-10.7631
-10.7985
-10.8288
-10.8538
-10.8757
-10.8957
-10.9143
-10.9317
-10.9483
-10.9644
-10.9801
-10.9954
-11.0106
-11.0256
-11.0404
-11.0553
-11.07
-11.0847
-11.0994
-11.1141
-11.1287
-11.1432
-11.1578
-11.1723
-11.1872
-11.2024
-11.2198
-11.2385
-11.2652
-11.2944
-10.7687
-10.7619
-10.7804
-10.7977
-10.8162
-10.8379
-10.8589
-10.8787
-10.8975
-10.9153
-10.9323
-10.9486
-10.9645
-10.9801
-10.9953
-11.0104
-11.0253
-11.0402
-11.0549
-11.0697
-11.0844
-11.0991
-11.1138
-11.1286
-11.1434
-11.1584
-11.1736
-11.1894
-11.206
-11.2247
-11.2456
-11.2721
-11.3026
-10.7679
-10.7572
-10.7721
-10.7939
-10.816
-10.8388
-10.86
-10.8796
-10.8981
-10.9157
-10.9325
-10.9487
-10.9644
-10.9798
-10.995
-11.01
-11.0248
-11.0396
-11.0543
-11.0691
-11.0838
-11.0986
-11.1134
-11.1283
-11.1434
-11.1588
-11.1746
-11.1912
-11.2088
-11.2282
-11.2499
-11.2756
-11.3047
-10.7774
-10.7744
-10.7876
-10.8058
-10.8242
-10.8439
-10.8632
-10.8816
-10.8993
-10.9164
-10.9328
-10.9488
-10.9643
-10.9796
-10.9946
-11.0095
-11.0243
-11.039
-11.0537
-11.0683
-11.0831
-11.0979
-11.1128
-11.1278
-11.1432
-11.1589
-11.1751
-11.1921
-11.2103
-11.2301
-11.252
-11.2767
-11.3043
-10.7859
-10.7848
-10.7953
-10.8113
-10.8286
-10.8471
-10.8655
-10.8832
-10.9004
-10.917
-10.9331
-10.9488
-10.9641
-10.9792
-10.9941
-11.0089
-11.0236
-11.0382
-11.0528
-11.0674
-11.0821
-11.0969
-11.1119
-11.127
-11.1425
-11.1584
-11.1749
-11.1922
-11.2106
-11.2305
-11.2521
-11.2759
-11.3017
-10.7943
-10.7949
-10.8043
-10.8186
-10.8343
-10.8512
-10.8684
-10.8852
-10.9017
-10.9178
-10.9335
-10.9489
-10.9639
-10.9788
-10.9936
-11.0082
-11.0227
-11.0372
-11.0517
-11.0663
-11.0809
-11.0957
-11.1107
-11.1259
-11.1414
-11.1574
-11.174
-11.1914
-11.2098
-11.2295
-11.2506
-11.2733
-11.2976
-10.8025
-10.8038
-10.8122
-10.825
-10.8394
-10.855
-10.8711
-10.8871
-10.903
-10.9185
-10.9338
-10.9489
-10.9637
-10.9784
-10.9929
-11.0073
-11.0217
-11.0361
-11.0505
-11.065
-11.0795
-11.0942
-11.1091
-11.1243
-11.1399
-11.1559
-11.1724
-11.1898
-11.208
-11.2272
-11.2477
-11.2693
-11.2921
-10.8102
-10.812
-10.8197
-10.8311
-10.8443
-10.8588
-10.8739
-10.8891
-10.9043
-10.9193
-10.9342
-10.9489
-10.9634
-10.9778
-10.9921
-11.0064
-11.0206
-11.0348
-11.0491
-11.0634
-11.0779
-11.0925
-11.1073
-11.1224
-11.1378
-11.1537
-11.1701
-11.1872
-11.2051
-11.2239
-11.2435
-11.2641
-11.2855
-10.8176
-10.8195
-10.8265
-10.8369
-10.849
-10.8624
-10.8766
-10.891
-10.9056
-10.9201
-10.9345
-10.9488
-10.963
-10.9772
-10.9912
-11.0053
-11.0193
-11.0333
-11.0474
-11.0616
-11.0759
-11.0904
-11.105
-11.12
-11.1353
-11.151
-11.1671
-11.1839
-11.2013
-11.2195
-11.2383
-11.2578
-11.278
-10.8244
-10.8264
-10.8328
-10.8422
-10.8534
-10.8659
-10.8792
-10.8929
-10.9068
-10.9208
-10.9348
-10.9487
-10.9626
-10.9764
-10.9902
-11.004
-11.0178
-11.0317
-11.0456
-11.0596
-11.0737
-11.0879
-11.1024
-11.1171
-11.1322
-11.1476
-11.1634
-11.1798
-11.1967
-11.2141
-11.2321
-11.2506
-11.2695
-10.8308
-10.8327
-10.8386
-10.8472
-10.8575
-10.8691
-10.8816
-10.8946
-10.9079
-10.9214
-10.9349
-10.9485
-10.962
-10.9756
-10.9891
-11.0026
-11.0162
-11.0298
-11.0435
-11.0572
-11.0711
-11.0851
-11.0994
-11.1138
-11.1286
-11.1436
-11.1591
-11.1749
-11.1912
-11.2079
-11.225
-11.2425
-11.2603
-10.8365
-10.8383
-10.8438
-10.8517
-10.8613
-10.8721
-10.8839
-10.8962
-10.909
-10.9219
-10.935
-10.9481
-10.9613
-10.9745
-10.9878
-11.0011
-11.0144
-11.0277
-11.0411
-11.0546
-11.0682
-11.082
-11.0959
-11.1101
-11.1244
-11.1391
-11.154
-11.1693
-11.1849
-11.2008
-11.2171
-11.2336
-11.2502
-10.8418
-10.8435
-10.8485
-10.8558
-10.8647
-10.8748
-10.8859
-10.8977
-10.9098
-10.9223
-10.9349
-10.9477
-10.9605
-10.9734
-10.9863
-10.9993
-11.0123
-11.0254
-11.0385
-11.0517
-11.065
-11.0785
-11.092
-11.1058
-11.1198
-11.1339
-11.1483
-11.163
-11.1779
-11.193
-11.2084
-11.2239
-11.2395
-10.8464
-10.848
-10.8527
-10.8595
-10.8678
-10.8773
-10.8877
-10.8989
-10.9105
-10.9225
-10.9347
-10.947
-10.9595
-10.972
-10.9846
-10.9973
-11.01
-11.0227
-11.0356
-11.0485
-11.0614
-11.0745
-11.0877
-11.1011
-11.1146
-11.1282
-11.142
-11.1561
-11.1702
-11.1846
-11.199
-11.2135
-11.2281
-10.8505
-10.852
-10.8564
-10.8627
-10.8704
-10.8794
-10.8893
-10.8999
-10.911
-10.9225
-10.9342
-10.9462
-10.9583
-10.9705
-10.9827
-10.9951
-11.0074
-11.0199
-11.0324
-11.0449
-11.0575
-11.0702
-11.083
-11.0959
-11.1089
-11.122
-11.1352
-11.1485
-11.1619
-11.1754
-11.189
-11.2025
-11.216
-10.854
-10.8554
-10.8595
-10.8654
-10.8726
-10.8811
-10.8904
-10.9005
-10.9112
-10.9222
-10.9336
-10.9451
-10.9568
-10.9687
-10.9806
-10.9926
-11.0046
-11.0167
-11.0288
-11.041
-11.0532
-11.0655
-11.0778
-11.0902
-11.1027
-11.1152
-11.1277
-11.1404
-11.153
-11.1657
-11.1783
-11.1909
-11.2034
-10.857
-10.8583
-10.8621
-10.8676
-10.8744
-10.8824
-10.8913
-10.9009
-10.9111
-10.9217
-10.9327
-10.9438
-10.9552
-10.9667
-10.9782
-10.9899
-11.0016
-11.0133
-11.025
-11.0368
-11.0486
-11.0604
-11.0723
-11.0841
-11.096
-11.1079
-11.1198
-11.1317
-11.1436
-11.1554
-11.1671
-11.1788
-11.1903
-10.8593
-10.8606
-10.8642
-10.8693
-10.8758
-10.8833
-10.8918
-10.901
-10.9107
-10.9209
-10.9315
-10.9423
-10.9533
-10.9644
-10.9756
-10.9869
-10.9982
-11.0095
-11.0209
-11.0322
-11.0436
-11.0549
-11.0663
-11.0776
-11.0889
-11.1002
-11.1114
-11.1225
-11.1336
-11.1446
-11.1555
-11.1662
-11.1767
-10.8611
-10.8623
-10.8656
-10.8705
-10.8766
-10.8838
-10.8918
-10.9006
-10.91
-10.9198
-10.93
-10.9405
-10.9511
-10.9619
-10.9727
-10.9836
-10.9946
-11.0055
-11.0165
-11.0274
-11.0383
-11.0491
-11.06
-11.0707
-11.0814
-11.092
-11.1026
-11.113
-11.1233
-11.1334
-11.1434
-11.1532
-11.1627
-10.8622
-10.8633
-10.8665
-10.8711
-10.8769
-10.8837
-10.8914
-10.8999
-10.9089
-10.9184
-10.9282
-10.9383
-10.9486
-10.959
-10.9695
-10.98
-10.9906
-11.0011
-11.0117
-11.0222
-11.0326
-11.043
-11.0532
-11.0634
-11.0735
-11.0835
-11.0933
-11.103
-11.1125
-11.1218
-11.1309
-11.1398
-11.1484
-10.8627
-10.8638
-10.8668
-10.8712
-10.8767
-10.8832
-10.8906
-10.8988
-10.9075
-10.9166
-10.9261
-10.9359
-10.9459
-10.9559
-10.9661
-10.9763
-10.9865
-10.9966
-11.0067
-11.0168
-11.0267
-11.0366
-11.0463
-11.0559
-11.0654
-11.0747
-11.0838
-11.0927
-11.1015
-11.11
-11.1182
-11.1262
-11.1339
-10.8626
-10.8635
-10.8664
-10.8706
-10.8758
-10.882
-10.8891
-10.897
-10.9054
-10.9142
-10.9234
-10.9329
-10.9425
-10.9523
-10.9621
-10.972
-10.9818
-10.9916
-11.0013
-11.0109
-11.0204
-11.0297
-11.0389
-11.0479
-11.0568
-11.0654
-11.0739
-11.0821
-11.0901
-11.0978
-11.1052
-11.1123
-11.1191
-10.8617
-10.8627
-10.8655
-10.8695
-10.8746
-10.8807
-10.8876
-10.8952
-10.9034
-10.912
-10.921
-10.9302
-10.9395
-10.949
-10.9585
-10.9679
-10.9774
-10.9867
-10.996
-11.0051
-11.0141
-11.0229
-11.0316
-11.04
-11.0483
-11.0562
-11.064
-11.0715
-11.0787
-11.0856
-11.0922
-11.0985
-11.1044
-10.8602
-10.861
-10.8635
-10.8672
-10.8719
-10.8777
-10.8844
-10.8917
-10.8997
-10.9081
-10.9168
-10.9258
-10.935
-10.9442
-10.9534
-10.9626
-10.9718
-10.9808
-10.9897
-10.9985
-11.007
-11.0154
-11.0235
-11.0314
-11.0391
-11.0465
-11.0536
-11.0604
-11.0669
-11.0731
-11.0789
-11.0844
-11.0895
-10.858
-10.8591
-10.8617
-10.8656
-10.8705
-10.8763
-10.883
-10.8902
-10.898
-10.9062
-10.9147
-10.9234
-10.9323
-10.9411
-10.95
-10.9588
-10.9675
-10.9761
-10.9846
-10.9928
-11.0009
-11.0087
-11.0162
-11.0236
-11.0306
-11.0373
-11.0437
-11.0498
-11.0556
-11.061
-11.066
-11.0707
-11.075
-10.8547
-10.855
-10.8566
-10.8596
-10.8639
-10.8694
-10.8758
-10.8831
-10.8909
-10.8992
-10.9077
-10.9165
-10.9254
-10.9342
-10.9431
-10.9518
-10.9604
-10.9688
-10.9771
-10.985
-10.9928
-11.0003
-11.0074
-11.0143
-11.0209
-11.0271
-11.0329
-11.0385
-11.0436
-11.0484
-11.0527
-11.0567
-11.0603
-10.8522
-10.8541
-10.8572
-10.8612
-10.8659
-10.8715
-10.8779
-10.8848
-10.8923
-10.9001
-10.9081
-10.9164
-10.9247
-10.933
-10.9412
-10.9494
-10.9574
-10.9653
-10.9729
-10.9803
-10.9874
-10.9943
-11.0008
-11.0071
-11.013
-11.0185
-11.0237
-11.0285
-11.0329
-11.0369
-11.0405
-11.0437
-11.0465
-10.844
-10.8419
-10.8416
-10.8437
-10.848
-10.8538
-10.8609
-10.8687
-10.8772
-10.8859
-10.8949
-10.904
-10.913
-10.9219
-10.9307
-10.9393
-10.9476
-10.9556
-10.9634
-10.9708
-10.9779
-10.9846
-10.991
-10.997
-11.0026
-11.0078
-11.0126
-11.017
-11.021
-11.0245
-11.0276
-11.0302
-11.0325
-10.849
-10.8544
-10.8585
-10.8615
-10.8651
-10.8696
-10.8751
-10.8813
-10.888
-10.8951
-10.9025
-10.9101
-10.9178
-10.9254
-10.933
-10.9405
-10.9478
-10.9549
-10.9617
-10.9683
-10.9745
-10.9804
-10.986
-10.9912
-10.9961
-11.0005
-11.0046
-11.0082
-11.0114
-11.0142
-11.0165
-11.0184
-11.0199
-10.8196
-10.8086
-10.8052
-10.8088
-10.816
-10.8248
-10.8347
-10.8451
-10.8557
-10.8664
-10.8769
-10.8872
-10.8971
-10.9068
-10.916
-10.9249
-10.9333
-10.9414
-10.949
-10.9561
-10.9629
-10.9691
-10.9749
-10.9803
-10.9852
-10.9896
-10.9935
-10.997
-11
-11.0025
-11.0046
-11.0061
-11.0072
-10.8666
-10.8826
-10.8838
-10.8779
-10.8755
-10.8762
-10.8789
-10.8828
-10.8877
-10.8933
-10.8994
-10.9059
-10.9126
-10.9193
-10.9261
-10.9327
-10.9392
-10.9454
-10.9514
-10.9571
-10.9625
-10.9676
-10.9722
-10.9765
-10.9804
-10.9839
-10.987
-10.9896
-10.9917
-10.9935
-10.9947
-10.9956
-10.9959
-10.7568
-10.7187
-10.7131
-10.7366
-10.7564
-10.7743
-10.7919
-10.8087
-10.8245
-10.8393
-10.8531
-10.8659
-10.8779
-10.8892
-10.8997
-10.9094
-10.9185
-10.927
-10.9349
-10.9421
-10.9488
-10.9549
-10.9605
-10.9654
-10.9699
-10.9738
-10.9771
-10.98
-10.9822
-10.984
-10.9852
-10.9859
-10.9861
-10.9687
-10.9931
-10.9637
-10.9268
-10.9031
-10.895
-10.8915
-10.8903
-10.8916
-10.8945
-10.8985
-10.9033
-10.9085
-10.914
-10.9196
-10.9253
-10.9308
-10.9362
-10.9414
-10.9463
-10.9509
-10.9552
-10.9591
-10.9627
-10.9658
-10.9685
-10.9708
-10.9726
-10.974
-10.9749
-10.9754
-10.9754
-10.975
-10.553
-10.4712
-10.5281
-10.6088
-10.6649
-10.7028
-10.7358
-10.7644
-10.7889
-10.8101
-10.8288
-10.8454
-10.8603
-10.8737
-10.8859
-10.8969
-10.907
-10.9161
-10.9244
-10.9319
-10.9387
-10.9448
-10.9503
-10.9551
-10.9592
-10.9628
-10.9657
-10.9681
-10.9699
-10.9711
-10.9717
-10.9718
-10.9713
-11.5293
-11.2511
-11.0453
-10.9538
-10.9165
-10.8955
-10.8823
-10.8763
-10.875
-10.8765
-10.8798
-10.8844
-10.8897
-10.8955
-10.9014
-10.9074
-10.9133
-10.919
-10.9244
-10.9296
-10.9344
-10.9388
-10.9429
-10.9465
-10.9496
-10.9523
-10.9546
-10.9563
-10.9576
-10.9583
-10.9586
-10.9584
-10.9578
-9.57115
-10.1327
-10.4371
-10.553
-10.6342
-10.6972
-10.7419
-10.7754
-10.8022
-10.824
-10.8421
-10.8576
-10.8712
-10.8832
-10.8939
-10.9035
-10.9122
-10.9201
-10.9272
-10.9337
-10.9395
-10.9446
-10.9491
-10.9531
-10.9564
-10.9592
-10.9614
-10.9631
-10.9642
-10.9647
-10.9647
-10.9642
-10.9631
-10.811
-11.1906
-11.3227
-11.4173
-11.5199
-11.597
-11.6598
-11.7224
-11.791
-11.8663
-11.9493
-12.0382
-12.1302
-12.222
-12.3105
-12.393
-12.4675
-12.5323
-12.5864
-12.6292
-12.6602
-12.6792
-12.686
-12.6803
-12.6619
-12.6305
-12.5858
-12.5271
-12.4542
-12.3663
-12.2631
-12.144
-12.0085
-11.8564
-11.6874
-11.5013
-11.2983
-11.0787
-10.843
-10.592
-10.3268
-10.0486
-9.75894
-9.45955
-9.15228
-8.83912
-8.52215
-8.20344
-7.88501
-7.56877
-7.25644
-6.9495
-6.64917
-6.35632
-6.0715
-5.79491
-5.52642
-5.26555
-5.01156
-4.76344
-4.52001
-4.27993
-4.04183
-3.80435
-3.56624
-3.32647
-3.08428
-2.83933
-2.59179
-2.34241
-2.09265
-1.84465
-1.60123
-1.36574
-1.14171
-0.932493
-0.740943
-0.569222
-0.418663
-0.289744
-0.1821
-0.0946402
-0.0256936
0.0267874
0.0650502
0.0913599
0.107887
0.116592
0.119221
0.117199
0.111796
0.103826
0.0942834
0.0831919
0.0719036
0.0588109
0.0475894
0.0317058
0.0237906
-8.21039e-05
-11.6242
-11.7714
-11.7008
-11.6452
-11.6314
-11.6317
-11.6434
-11.6798
-11.7346
-11.8052
-11.8889
-11.981
-12.0765
-12.171
-12.2609
-12.3435
-12.417
-12.4802
-12.5324
-12.5732
-12.6025
-12.6199
-12.6253
-12.6185
-12.5991
-12.5668
-12.5213
-12.462
-12.3886
-12.3005
-12.1972
-12.0783
-11.9433
-11.792
-11.6241
-11.4395
-11.2384
-11.021
-10.7879
-10.5399
-10.2781
-10.0035
-9.71781
-9.42255
-9.11956
-8.81077
-8.49815
-8.18371
-7.86941
-7.55708
-7.24839
-6.94477
-6.6474
-6.35714
-6.07453
-5.79978
-5.53278
-5.27308
-5.01995
-4.77245
-4.52942
-4.28957
-4.05157
-3.81411
-3.57599
-3.33623
-3.09413
-2.84945
-2.60244
-2.35398
-2.1056
-1.85952
-1.61852
-1.38576
-1.16447
-0.957715
-0.768121
-0.597722
-0.447804
-0.318864
-0.210597
-0.122005
-0.0515263
0.00277233
0.0430294
0.0714146
0.0900212
0.10075
0.105307
0.10509
0.101359
0.0949187
0.0867785
0.0769524
0.0668528
0.054789
0.0446709
0.0295142
0.0229423
-0.000999089
-11.2677
-11.3172
-11.3597
-11.4198
-11.4924
-11.5571
-11.6182
-11.6717
-11.7333
-11.8011
-11.875
-11.9545
-12.0375
-12.1213
-12.203
-12.2801
-12.3505
-12.4122
-12.4641
-12.505
-12.5345
-12.552
-12.5573
-12.5501
-12.5303
-12.4975
-12.4514
-12.3917
-12.3179
-12.2297
-12.1265
-12.008
-11.8737
-11.7234
-11.5569
-11.3741
-11.1752
-10.9604
-10.7303
-10.4857
-10.2275
-9.957
-9.67555
-9.38475
-9.08633
-8.78215
-8.47411
-8.16413
-7.85409
-7.54577
-7.24076
-6.94046
-6.64601
-6.35826
-6.07774
-5.80467
-5.53896
-5.28019
-5.02768
-4.78052
-4.53761
-4.29772
-4.05958
-3.82193
-3.58366
-3.34386
-3.10194
-2.85775
-2.61164
-2.36459
-2.11817
-1.87453
-1.63633
-1.40647
-1.18794
-0.983578
-0.795854
-0.626711
-0.477401
-0.34843
-0.239547
-0.149838
-0.0778425
-0.0217383
0.0205078
0.0509716
0.0716691
0.0844415
0.0909527
0.092573
0.090549
0.0856775
0.0789801
0.0704604
0.0615889
0.0505935
0.0416141
0.0272226
0.0220184
-0.00194478
-11.3757
-11.5036
-11.5603
-11.5797
-11.6027
-11.6269
-11.6535
-11.6878
-11.7313
-11.7902
-11.858
-11.9323
-12.0103
-12.0887
-12.1646
-12.2356
-12.2996
-12.3553
-12.4018
-12.4382
-12.464
-12.4788
-12.4822
-12.4737
-12.4531
-12.4198
-12.3735
-12.3138
-12.2402
-12.1523
-12.0497
-11.9319
-11.7987
-11.6497
-11.4849
-11.3042
-11.1077
-10.8958
-10.669
-10.428
-10.1738
-9.90751
-9.63055
-9.34442
-9.05078
-8.75141
-8.44813
-8.14279
-7.83718
-7.53301
-7.23181
-6.93494
-6.64348
-6.35827
-6.07984
-5.80842
-5.54392
-5.28598
-5.03397
-4.78702
-4.54411
-4.30408
-4.06573
-3.8279
-3.58956
-3.34991
-3.10846
-2.86514
-2.62039
-2.3752
-2.13111
-1.89019
-1.65488
-1.4279
-1.21204
-1.00998
-0.824047
-0.656115
-0.507395
-0.378395
-0.268912
-0.178106
-0.104616
-0.0467227
-0.00249752
0.0300438
0.0528399
0.067672
0.0761609
0.0796479
0.0793649
0.0760995
0.0708838
0.0637106
0.0561068
0.0462188
0.0384149
0.0248251
0.0210197
-0.00292437
-11.3444
-11.4038
-11.4341
-11.4632
-11.5059
-11.552
-11.5988
-11.6487
-11.7082
-11.7689
-11.8345
-11.9043
-11.9762
-12.048
-12.1175
-12.1829
-12.2423
-12.2942
-12.3375
-12.3713
-12.3948
-12.4074
-12.4088
-12.3984
-12.3761
-12.3414
-12.2939
-12.2333
-12.1591
-12.071
-11.9685
-11.8512
-11.7188
-11.5712
-11.4081
-11.2295
-11.0355
-10.8265
-10.6031
-10.3658
-10.1157
-9.85387
-9.58158
-9.3003
-9.01164
-8.71727
-8.41895
-8.11844
-7.81746
-7.51763
-7.22042
-6.92714
-6.63883
-6.3563
-6.08007
-5.81038
-5.54717
-5.29012
-5.03865
-4.79196
-4.5491
-4.30901
-4.07057
-3.83273
-3.59455
-3.35532
-3.11465
-2.87255
-2.62947
-2.3864
-2.1448
-1.90662
-1.67416
-1.44997
-1.23668
-1.03682
-0.852631
-0.685881
-0.537742
-0.408723
-0.298658
-0.206779
-0.131817
-0.0721537
-0.0259611
0.0086543
0.0335544
0.05046
0.0609477
0.0663286
0.0678184
0.0661945
0.0624981
0.0567101
0.0504125
0.0416702
0.0350778
0.0223263
0.0199515
-0.00393444
-11.3481
-11.411
-11.4611
-11.5007
-11.5399
-11.5785
-11.6182
-11.6566
-11.7027
-11.7562
-11.8152
-11.8784
-11.944
-12.0097
-12.0733
-12.1331
-12.1872
-12.2341
-12.2729
-12.3026
-12.3226
-12.3323
-12.3312
-12.3189
-12.295
-12.259
-12.2106
-12.1493
-12.0747
-11.9865
-11.8842
-11.7674
-11.6359
-11.4895
-11.328
-11.1515
-10.96
-10.754
-10.5339
-10.3005
-10.0545
-9.79711
-9.52955
-9.25321
-8.9696
-8.68035
-8.38711
-8.09156
-7.79533
-7.49998
-7.20692
-6.91736
-6.63234
-6.35263
-6.07874
-5.81092
-5.54913
-5.2931
-5.0423
-4.79601
-4.55335
-4.31335
-4.075
-3.83735
-3.59954
-3.36097
-3.12131
-2.8806
-2.63932
-2.39841
-2.15929
-1.92378
-1.69407
-1.47257
-1.26176
-1.06405
-0.881559
-0.715971
-0.568413
-0.439387
-0.328762
-0.235835
-0.159426
-0.0980142
-0.0498682
-0.0131844
0.0138227
0.0328136
0.0453193
0.0526196
0.0559129
0.0559647
0.0538241
0.0494595
0.044506
0.0369476
0.0316025
0.0197261
0.0188153
-0.00497543
-11.3437
-11.3938
-11.4349
-11.4691
-11.5053
-11.5438
-11.5838
-11.6302
-11.6786
-11.7316
-11.7883
-11.8476
-11.9084
-11.9687
-12.027
-12.0814
-12.1305
-12.173
-12.2078
-12.234
-12.2508
-12.2578
-12.2542
-12.2398
-12.214
-12.1764
-12.1267
-12.0644
-11.9892
-11.9006
-11.7983
-11.6819
-11.5512
-11.406
-11.2462
-11.0718
-10.8829
-10.6799
-10.4632
-10.2336
-9.99183
-9.739
-9.47625
-9.20493
-8.92648
-8.64242
-8.35434
-8.06383
-7.77243
-7.48162
-7.19274
-6.90697
-6.62529
-6.34845
-6.07696
-5.81107
-5.55077
-5.29584
-5.0458
-4.80001
-4.55766
-4.31788
-4.07976
-3.84242
-3.60512
-3.36731
-3.12872
-2.88945
-2.64996
-2.41119
-2.17447
-1.94155
-1.7145
-1.49561
-1.28723
-1.09162
-0.910795
-0.746356
-0.59938
-0.470362
-0.3592
-0.265253
-0.187423
-0.124285
-0.0742021
-0.0354578
-0.00634252
0.014743
0.029284
0.0385276
0.0436533
0.045414
0.0448646
0.0419606
0.0383886
0.0320517
0.0279898
0.017025
0.0176131
-0.00604806
-11.3394
-11.3836
-11.4246
-11.4616
-11.4994
-11.5384
-11.5776
-11.6192
-11.6636
-11.7119
-11.7637
-11.8178
-11.8731
-11.928
-11.9808
-12.0301
-12.0744
-12.1125
-12.1432
-12.1657
-12.1793
-12.1833
-12.1772
-12.1606
-12.1329
-12.0939
-12.0429
-11.9797
-11.9039
-11.815
-11.7128
-11.5968
-11.467
-11.323
-11.1649
-10.9925
-10.8062
-10.6062
-10.393
-10.1673
-9.92975
-9.68146
-9.42352
-9.15719
-8.88385
-8.60494
-8.32196
-8.03641
-7.74978
-7.46345
-7.17871
-6.89668
-6.61831
-6.34432
-6.07522
-5.81128
-5.55251
-5.29872
-5.0495
-4.80427
-4.56232
-4.32284
-4.08501
-3.84806
-3.61132
-3.37431
-3.13683
-2.89899
-2.66127
-2.42459
-2.19021
-1.95983
-1.73538
-1.51904
-1.31303
-1.11949
-0.940311
-0.777011
-0.63062
-0.501624
-0.389948
-0.295008
-0.215786
-0.150947
-0.0989445
-0.0581498
-0.0269277
-0.00373999
0.0128516
0.0240605
0.0310461
0.0345473
0.0356235
0.0342165
0.0320624
0.0269843
0.0242411
0.014224
0.0163477
-0.00715316
-11.3337
-11.3731
-11.4112
-11.4467
-11.4824
-11.5192
-11.5574
-11.5978
-11.6408
-11.6868
-11.7352
-11.7853
-11.836
-11.886
-11.9339
-11.9783
-12.018
-12.0518
-12.0786
-12.0976
-12.108
-12.1093
-12.1008
-12.082
-12.0526
-12.012
-11.9598
-11.8957
-11.8193
-11.7302
-11.628
-11.5126
-11.3836
-11.2409
-11.0845
-10.9143
-10.7306
-10.5336
-10.3238
-10.1019
-9.86855
-9.62474
-9.37152
-9.1101
-8.84177
-8.5679
-8.28991
-8.00924
-7.72727
-7.44534
-7.16466
-6.88632
-6.61122
-6.34007
-6.07337
-5.81138
-5.55417
-5.30158
-5.05324
-4.80865
-4.56716
-4.32806
-4.09061
-3.85412
-3.61799
-3.38183
-3.14548
-2.90908
-2.67313
-2.43851
-2.20646
-1.97856
-1.75667
-1.54284
-1.33916
-1.14765
-0.970085
-0.807912
-0.66211
-0.533149
-0.420983
-0.325078
-0.244493
-0.177977
-0.124076
-0.0812432
-0.0479177
-0.0226226
-0.00396709
0.0092276
0.018099
0.0233711
0.026106
0.0262314
0.0255309
0.0217482
0.0203588
0.0113248
0.0150221
-0.00829171
-11.3271
-11.3628
-11.3986
-11.4332
-11.468
-11.5038
-11.5408
-11.5793
-11.6197
-11.6624
-11.7069
-11.7526
-11.7987
-11.8438
-11.8869
-11.9267
-11.9619
-11.9915
-12.0144
-12.03
-12.0373
-12.0358
-12.0248
-12.004
-11.9727
-11.9306
-11.8773
-11.8124
-11.7354
-11.6461
-11.5442
-11.4292
-11.3012
-11.1598
-11.0051
-10.837
-10.6559
-10.4619
-10.2555
-10.0373
-9.80808
-9.56865
-9.32005
-9.06343
-8.79999
-8.53105
-8.25795
-7.98204
-7.70464
-7.42703
-7.15035
-6.87565
-6.60379
-6.33547
-6.07117
-5.81118
-5.55557
-5.30423
-5.05684
-4.81297
-4.57204
-4.3334
-4.09641
-3.86046
-3.62502
-3.38976
-3.15458
-2.91965
-2.68548
-2.45291
-2.22315
-1.99771
-1.77834
-1.56698
-1.36558
-1.17606
-1.0001
-0.839039
-0.693825
-0.564915
-0.45228
-0.355439
-0.27352
-0.205356
-0.149577
-0.10472
-0.0692966
-0.0418907
-0.0211599
-0.00596095
0.0048206
0.0118925
0.0163181
0.0180104
0.0187982
0.0163468
0.0163458
0.00832961
0.0136398
-0.00946476
-11.3195
-11.3524
-11.3858
-11.4189
-11.4522
-11.4863
-11.5215
-11.5579
-11.596
-11.6357
-11.6768
-11.7186
-11.7604
-11.8011
-11.8397
-11.875
-11.9059
-11.9314
-11.9507
-11.9628
-11.967
-11.9628
-11.9494
-11.9265
-11.8935
-11.85
-11.7955
-11.7298
-11.6523
-11.5628
-11.461
-11.3467
-11.2195
-11.0795
-10.9265
-10.7606
-10.582
-10.3909
-10.1879
-9.97336
-9.74813
-9.51299
-9.26892
-9.01698
-8.75833
-8.49421
-8.22589
-7.95464
-7.68173
-7.40835
-7.13562
-6.86451
-6.59588
-6.33038
-6.0685
-5.81054
-5.55658
-5.30656
-5.06021
-4.81714
-4.57685
-4.33878
-4.10234
-3.867
-3.63233
-3.39804
-3.16408
-2.93065
-2.69827
-2.46776
-2.24028
-2.01726
-1.80037
-1.59143
-1.39228
-1.20472
-1.03032
-0.870368
-0.725744
-0.596896
-0.483815
-0.386066
-0.302844
-0.233059
-0.175427
-0.128561
-0.0910473
-0.0615294
-0.0387137
-0.0214936
-0.00877917
0.000120292
0.00626724
0.0095597
0.0118697
0.0107846
0.0122062
0.00524121
0.0122045
-0.0106733
-11.3111
-11.3415
-11.3728
-11.4042
-11.4359
-11.4684
-11.5018
-11.5362
-11.5717
-11.6085
-11.6461
-11.6841
-11.7218
-11.7582
-11.7924
-11.8234
-11.8501
-11.8718
-11.8874
-11.8961
-11.8974
-11.8904
-11.8747
-11.8497
-11.8149
-11.77
-11.7144
-11.6478
-11.5699
-11.4803
-11.3787
-11.2649
-11.1386
-10.9999
-10.8486
-10.6848
-10.5087
-10.3206
-10.1208
-9.90991
-9.68861
-9.45767
-9.21802
-8.97065
-8.71669
-8.45728
-8.19363
-7.92695
-7.65844
-7.38923
-7.12039
-6.85284
-6.58741
-6.32474
-6.0653
-5.80941
-5.55717
-5.30853
-5.06329
-4.82112
-4.58157
-4.34416
-4.10837
-3.87374
-3.63991
-3.40666
-3.17397
-2.94208
-2.7115
-2.48305
-2.25782
-2.0372
-1.82275
-1.61618
-1.41924
-1.2336
-1.06074
-0.901876
-0.757842
-0.629068
-0.515564
-0.416935
-0.33244
-0.261065
-0.201603
-0.152747
-0.113152
-0.0815223
-0.0566142
-0.0373579
-0.0226893
-0.0119361
-0.00403824
0.000886727
0.00475162
0.00506704
0.00794455
0.00206317
0.0107207
-0.011918
-11.3019
-11.3302
-11.3594
-11.389
-11.4191
-11.4497
-11.4811
-11.5133
-11.5463
-11.5802
-11.6145
-11.6488
-11.6826
-11.7149
-11.745
-11.7719
-11.7947
-11.8125
-11.8246
-11.8301
-11.8283
-11.8187
-11.8007
-11.7736
-11.7371
-11.6907
-11.634
-11.5667
-11.4883
-11.3985
-11.2971
-11.1838
-11.0585
-10.9211
-10.7715
-10.6098
-10.4362
-10.2509
-10.0543
-9.84694
-9.62947
-9.40264
-9.1673
-8.92441
-8.67501
-8.4202
-8.16112
-7.89893
-7.63473
-7.36963
-7.10462
-6.8406
-6.57836
-6.31852
-6.06155
-5.80776
-5.55729
-5.31012
-5.06608
-4.8249
-4.58619
-4.34953
-4.11449
-3.88066
-3.64776
-3.4156
-3.18423
-2.95391
-2.72515
-2.49875
-2.27577
-2.0575
-1.84545
-1.64121
-1.44643
-1.26267
-1.09133
-0.93354
-0.790093
-0.661406
-0.5475
-0.44802
-0.362284
-0.289349
-0.228083
-0.177256
-0.13559
-0.101852
-0.0748459
-0.05354
-0.0368976
-0.0242657
-0.0145888
-0.00800016
-0.00254879
-0.000799491
0.0035663
-0.00120025
0.00919261
-0.0131995
-11.2919
-11.3182
-11.3456
-11.3733
-11.4016
-11.4304
-11.4597
-11.4896
-11.5202
-11.5511
-11.5822
-11.6131
-11.6431
-11.6715
-11.6976
-11.7206
-11.7396
-11.7538
-11.7624
-11.7647
-11.76
-11.7478
-11.7274
-11.6983
-11.6601
-11.6123
-11.5545
-11.4864
-11.4075
-11.3176
-11.2164
-11.1037
-10.9793
-10.8431
-10.6952
-10.5355
-10.3643
-10.1818
-9.98832
-9.78443
-9.57071
-9.34788
-9.11675
-8.87822
-8.63328
-8.38297
-8.12837
-7.87055
-7.6106
-7.34953
-7.0883
-6.82778
-6.56872
-6.31171
-6.05724
-5.8056
-5.55696
-5.31132
-5.06857
-4.82847
-4.59069
-4.35489
-4.12069
-3.88775
-3.65585
-3.42486
-3.19486
-2.96614
-2.73921
-2.51485
-2.29409
-2.07815
-1.86845
-1.6665
-1.47383
-1.29192
-1.12206
-0.965332
-0.822472
-0.693883
-0.579598
-0.479296
-0.392351
-0.317886
-0.254845
-0.202066
-0.158344
-0.122501
-0.0933922
-0.070025
-0.0513907
-0.0368567
-0.0253739
-0.0170915
-0.0100233
-0.00680769
-0.000922377
-0.00454406
0.00762506
-0.0145177
-11.2812
-11.3057
-11.3312
-11.3571
-11.3835
-11.4103
-11.4376
-11.4653
-11.4932
-11.5213
-11.5493
-11.5768
-11.6032
-11.628
-11.6503
-11.6695
-11.6848
-11.6955
-11.7008
-11.7
-11.6925
-11.6777
-11.655
-11.6239
-11.584
-11.5348
-11.4759
-11.4069
-11.3276
-11.2375
-11.1365
-11.0244
-10.9009
-10.766
-10.6197
-10.462
-10.2931
-10.1133
-9.92294
-9.72242
-9.51235
-9.29342
-9.06639
-8.83211
-8.59152
-8.3456
-8.09536
-7.84184
-7.58604
-7.32894
-7.07144
-6.81439
-6.55848
-6.30432
-6.05236
-5.80291
-5.55616
-5.31213
-5.07075
-4.83182
-4.59508
-4.36023
-4.12697
-3.89501
-3.66418
-3.43442
-3.20584
-2.97874
-2.75366
-2.53134
-2.31276
-2.09912
-1.89173
-1.69201
-1.50142
-1.32131
-1.15292
-0.997227
-0.854952
-0.726473
-0.61183
-0.510736
-0.422614
-0.346652
-0.281863
-0.227156
-0.181391
-0.143449
-0.112236
-0.0867968
-0.0661541
-0.0496958
-0.0363818
-0.0263766
-0.0176626
-0.0129493
-0.00551461
-0.00796246
0.00602275
-0.015872
-11.2698
-11.2926
-11.3163
-11.3404
-11.3649
-11.3897
-11.4149
-11.4402
-11.4657
-11.491
-11.516
-11.5402
-11.5632
-11.5844
-11.6031
-11.6187
-11.6305
-11.6378
-11.6398
-11.636
-11.6258
-11.6084
-11.5835
-11.5505
-11.5089
-11.4583
-11.3983
-11.3285
-11.2487
-11.1585
-11.0577
-10.946
-10.8234
-10.6898
-10.5451
-10.3893
-10.2228
-10.0456
-9.85818
-9.66094
-9.45442
-9.23928
-9.01623
-8.7861
-8.54974
-8.30809
-8.06212
-7.81279
-7.56106
-7.30786
-7.05405
-6.80041
-6.54765
-6.29634
-6.04692
-5.79971
-5.5549
-5.31256
-5.07262
-4.83496
-4.59935
-4.36555
-4.13331
-3.90242
-3.67274
-3.44427
-3.21715
-2.9917
-2.76846
-2.54817
-2.33177
-2.12037
-1.91525
-1.71773
-1.52916
-1.35082
-1.18385
-1.0292
-0.887506
-0.759149
-0.64417
-0.542313
-0.453048
-0.375622
-0.309114
-0.252502
-0.20471
-0.164677
-0.131357
-0.103838
-0.081172
-0.0627687
-0.0475994
-0.0358438
-0.0254564
-0.0192149
-0.0102029
-0.0114488
0.00439036
-0.0172608
-11.2577
-11.2789
-11.3008
-11.3231
-11.3457
-11.3686
-11.3916
-11.4146
-11.4375
-11.4602
-11.4822
-11.5033
-11.523
-11.5408
-11.5561
-11.5683
-11.5767
-11.5807
-11.5796
-11.5729
-11.5599
-11.5401
-11.513
-11.478
-11.4348
-11.3828
-11.3217
-11.2512
-11.1709
-11.0806
-10.9799
-10.8688
-10.747
-10.6146
-10.4714
-10.3175
-10.1532
-9.97862
-9.79409
-9.60003
-9.39697
-9.18551
-8.96633
-8.74021
-8.50797
-8.27049
-8.02868
-7.78344
-7.53569
-7.28632
-7.03613
-6.78589
-6.53625
-6.28779
-6.04092
-5.79599
-5.55318
-5.31259
-5.07419
-4.83789
-4.6035
-4.37085
-4.13972
-3.90997
-3.68152
-3.45439
-3.22877
-3.005
-2.78361
-2.56533
-2.35107
-2.14189
-1.93899
-1.74361
-1.55702
-1.38041
-1.21485
-1.06121
-0.920106
-0.791882
-0.676591
-0.574001
-0.483626
-0.40477
-0.336574
-0.278081
-0.228278
-0.186162
-0.150738
-0.121131
-0.0964275
-0.0760598
-0.0590125
-0.04548
-0.0333934
-0.025594
-0.014979
-0.0149954
0.00273245
-0.0186814
-11.245
-11.2646
-11.2848
-11.3053
-11.3261
-11.3469
-11.3678
-11.3885
-11.409
-11.4289
-11.4481
-11.4662
-11.4828
-11.4973
-11.5093
-11.5182
-11.5234
-11.5242
-11.5202
-11.5106
-11.495
-11.4728
-11.4435
-11.4067
-11.3618
-11.3085
-11.2463
-11.175
-11.0943
-11.0038
-10.9033
-10.7926
-10.6717
-10.5404
-10.3987
-10.2467
-10.0846
-9.91246
-9.73072
-9.53975
-9.34004
-9.13214
-8.91672
-8.6945
-8.46626
-8.23283
-7.99506
-7.75381
-7.50996
-7.26433
-7.01772
-6.77082
-6.5243
-6.27868
-6.03439
-5.79177
-5.55102
-5.31225
-5.07546
-4.8406
-4.60753
-4.3761
-4.14618
-3.91766
-3.69049
-3.46476
-3.24067
-3.01859
-2.79906
-2.58278
-2.37063
-2.16363
-1.9629
-1.76962
-1.58497
-1.41006
-1.24588
-1.09324
-0.952721
-0.824645
-0.709065
-0.605773
-0.514322
-0.434069
-0.364216
-0.303868
-0.252073
-0.207884
-0.170356
-0.138656
-0.111902
-0.0895521
-0.0706057
-0.0552708
-0.0414611
-0.0320753
-0.0198341
-0.0185937
0.00105342
-0.0201298
-11.2317
-11.2498
-11.2683
-11.2871
-11.3059
-11.3248
-11.3435
-11.362
-11.38
-11.3974
-11.4139
-11.4291
-11.4426
-11.454
-11.4629
-11.4686
-11.4707
-11.4685
-11.4616
-11.4493
-11.4312
-11.4066
-11.3752
-11.3365
-11.29
-11.2354
-11.1722
-11.1001
-11.0189
-10.9282
-10.8279
-10.7177
-10.5976
-10.4674
-10.3271
-10.1769
-10.0169
-9.84719
-9.66816
-9.48017
-9.28368
-9.07924
-8.86746
-8.64901
-8.42465
-8.19514
-7.9613
-7.72395
-7.4839
-7.24194
-6.99883
-6.75525
-6.5118
-6.26902
-6.02734
-5.78706
-5.54842
-5.31153
-5.07643
-4.84309
-4.61142
-4.38132
-4.15269
-3.92546
-3.69965
-3.47536
-3.25284
-3.03247
-2.81478
-2.60048
-2.39042
-2.18556
-1.98696
-1.79573
-1.61298
-1.43973
-1.2769
-1.12526
-0.985323
-0.857408
-0.741563
-0.6376
-0.545109
-0.463494
-0.392016
-0.329839
-0.27607
-0.229819
-0.19019
-0.156391
-0.127577
-0.103227
-0.0823621
-0.0652008
-0.0496461
-0.0386457
-0.024759
-0.0222336
-0.000642762
-0.0216002
-11.2178
-11.2345
-11.2513
-11.2683
-11.2853
-11.3023
-11.3189
-11.3352
-11.3508
-11.3657
-11.3795
-11.3919