/*--------------------------------*- C++ -*----------------------------------*\
  =========                 |
  \\      /  F ield         | OpenFOAM: The Open Source CFD Toolbox
   \\    /   O peration     | Website:  https://openfoam.org
    \\  /    A nd           | Version:  10
     \\/     M anipulation  |
\*---------------------------------------------------------------------------*/
FoamFile
{
    format      ascii;
    class       surfaceScalarField;
    location    "0.135";
    object      phi;
}
// * * * * * * * * * * * * * * * * * * * * * * * * * * * * * * * * * * * * * //

dimensions      [0 3 -1 0 0 0 0];

internalField   nonuniform List<scalar> 
13452
(
6.05771e-05
-3.08611e-07
6.03706e-05
2.06427e-07
5.98986e-05
4.72063e-07
5.92846e-05
6.13952e-07
5.86789e-05
6.05725e-07
5.81416e-05
5.37287e-07
5.76754e-05
4.66204e-07
5.72702e-05
4.05236e-07
5.69146e-05
3.55599e-07
5.65987e-05
3.15923e-07
5.63146e-05
2.84031e-07
5.60567e-05
2.5796e-07
5.58204e-05
2.36233e-07
5.56027e-05
2.17778e-07
5.54008e-05
2.01833e-07
5.5213e-05
1.87858e-07
5.50375e-05
1.7547e-07
5.48731e-05
1.64395e-07
5.47187e-05
1.54437e-07
5.45732e-05
1.45459e-07
5.44358e-05
1.37371e-07
5.43057e-05
1.30134e-07
5.41819e-05
1.23758e-07
5.40636e-05
1.18337e-07
5.39495e-05
1.14071e-07
5.38381e-05
1.11454e-07
5.37269e-05
1.1122e-07
5.36112e-05
1.15674e-07
5.34828e-05
1.28434e-07
5.33265e-05
1.56292e-07
5.30856e-05
2.40885e-07
5.27333e-05
3.52303e-07
6.88915e-07
5.20444e-05
6.18026e-05
-1.20896e-07
6.17624e-05
2.46611e-07
6.18791e-05
3.55364e-07
6.20404e-05
4.5267e-07
6.21468e-05
4.99341e-07
6.21758e-05
5.08313e-07
6.21419e-05
5.0011e-07
6.20659e-05
4.81245e-07
6.19642e-05
4.57285e-07
6.1848e-05
4.32071e-07
6.17246e-05
4.07427e-07
6.15985e-05
3.84105e-07
6.14723e-05
3.62376e-07
6.13479e-05
3.42269e-07
6.1226e-05
3.23701e-07
6.11073e-05
3.06553e-07
6.09921e-05
2.90699e-07
6.08804e-05
2.76026e-07
6.07724e-05
2.62441e-07
6.0668e-05
2.49872e-07
6.05671e-05
2.38275e-07
6.04696e-05
2.2764e-07
6.03754e-05
2.18007e-07
6.02842e-05
2.0948e-07
6.0196e-05
2.02277e-07
6.01107e-05
1.96781e-07
6.00281e-05
1.93779e-07
5.99495e-05
1.94246e-07
5.98761e-05
2.01865e-07
5.9817e-05
2.15383e-07
5.97986e-05
2.59311e-07
5.986e-05
2.90922e-07
4.38189e-07
6.01107e-05
6.36612e-05
-2.07117e-08
6.37527e-05
1.5511e-07
6.38147e-05
2.934e-07
6.38673e-05
4.0002e-07
6.39103e-05
4.56418e-07
6.39418e-05
4.76792e-07
6.39621e-05
4.79819e-07
6.39696e-05
4.73721e-07
6.39648e-05
4.62117e-07
6.39493e-05
4.47563e-07
6.39251e-05
4.31579e-07
6.38942e-05
4.15032e-07
6.38581e-05
3.98459e-07
6.38182e-05
3.82184e-07
6.37755e-05
3.6639e-07
6.37309e-05
3.51181e-07
6.3685e-05
3.36613e-07
6.36383e-05
3.22721e-07
6.35912e-05
3.09526e-07
6.3544e-05
2.97054e-07
6.34969e-05
2.85342e-07
6.34501e-05
2.74453e-07
6.34036e-05
2.64494e-07
6.33575e-05
2.55633e-07
6.33116e-05
2.48163e-07
6.32659e-05
2.42502e-07
6.32201e-05
2.39529e-07
6.31744e-05
2.39986e-07
6.3129e-05
2.47275e-07
6.30846e-05
2.59804e-07
6.305e-05
2.93858e-07
6.30167e-05
3.24212e-07
4.12809e-07
6.30421e-05
6.55759e-05
-1.35699e-08
6.55536e-05
1.77414e-07
6.55644e-05
2.82664e-07
6.56051e-05
3.59282e-07
6.56541e-05
4.07426e-07
6.56991e-05
4.31775e-07
6.57365e-05
4.42383e-07
6.57661e-05
4.44185e-07
6.57883e-05
4.39932e-07
6.58039e-05
4.31939e-07
6.58138e-05
4.21698e-07
6.58187e-05
4.10097e-07
6.58194e-05
3.9772e-07
6.58167e-05
3.84958e-07
6.5811e-05
3.72079e-07
6.58029e-05
3.59266e-07
6.57929e-05
3.46653e-07
6.57812e-05
3.34344e-07
6.57683e-05
3.22424e-07
6.57544e-05
3.10976e-07
6.57397e-05
3.0009e-07
6.57242e-05
2.89878e-07
6.57082e-05
2.8049e-07
6.56917e-05
2.72135e-07
6.56748e-05
2.65138e-07
6.56573e-05
2.59922e-07
6.56396e-05
2.5728e-07
6.56217e-05
2.57869e-07
6.5605e-05
2.63973e-07
6.559e-05
2.74783e-07
6.55861e-05
2.97813e-07
6.55903e-05
3.19957e-07
3.59703e-07
6.56434e-05
6.74265e-05
1.67151e-08
6.74514e-05
1.52468e-07
6.74798e-05
2.54321e-07
6.75108e-05
3.28312e-07
6.75415e-05
3.76646e-07
6.75714e-05
4.01949e-07
6.76001e-05
4.13608e-07
6.76272e-05
4.17165e-07
6.76518e-05
4.15327e-07
6.76737e-05
4.10031e-07
6.76929e-05
4.0252e-07
6.77094e-05
3.93544e-07
6.77235e-05
3.83605e-07
6.77354e-05
3.73062e-07
6.77453e-05
3.62168e-07
6.77535e-05
3.5111e-07
6.77601e-05
3.40037e-07
6.77654e-05
3.29068e-07
6.77695e-05
3.18312e-07
6.77726e-05
3.07874e-07
6.77748e-05
2.97866e-07
6.77763e-05
2.88422e-07
6.7777e-05
2.79711e-07
6.77772e-05
2.71955e-07
6.77769e-05
2.65468e-07
6.77762e-05
2.60636e-07
6.77754e-05
2.58104e-07
6.77748e-05
2.5838e-07
6.7776e-05
2.62867e-07
6.77797e-05
2.71027e-07
6.77915e-05
2.86022e-07
6.78107e-05
3.00743e-07
3.20072e-07
6.78503e-05
6.93768e-05
2.39122e-08
6.93865e-05
1.42835e-07
6.94048e-05
2.3594e-07
6.94311e-05
3.02084e-07
6.94609e-05
3.46783e-07
6.94906e-05
3.72262e-07
6.95189e-05
3.85321e-07
6.95455e-05
3.90567e-07
6.95704e-05
3.90451e-07
6.95936e-05
3.86791e-07
6.96153e-05
3.80821e-07
6.96356e-05
3.73305e-07
6.96544e-05
3.64745e-07
6.9672e-05
3.55493e-07
6.96884e-05
3.45798e-07
6.97036e-05
3.35844e-07
6.97179e-05
3.25779e-07
6.97312e-05
3.15724e-07
6.97437e-05
3.05794e-07
6.97555e-05
2.96097e-07
6.97666e-05
2.86753e-07
6.97772e-05
2.77899e-07
6.97872e-05
2.69702e-07
6.97968e-05
2.62372e-07
6.9806e-05
2.56185e-07
6.98152e-05
2.51463e-07
6.98246e-05
2.48675e-07
6.98349e-05
2.48162e-07
6.98471e-05
2.50656e-07
6.98624e-05
2.55687e-07
6.98843e-05
2.64128e-07
6.99132e-05
2.71824e-07
2.78495e-07
6.99548e-05
7.13593e-05
3.09238e-08
7.1371e-05
1.31152e-07
7.13921e-05
2.14822e-07
7.14181e-05
2.76083e-07
7.14459e-05
3.19053e-07
7.1473e-05
3.45109e-07
7.14991e-05
3.5924e-07
7.15241e-05
3.6557e-07
7.1548e-05
3.66527e-07
7.15709e-05
3.63869e-07
7.15929e-05
3.58816e-07
7.16141e-05
3.52144e-07
7.16345e-05
3.44367e-07
7.16541e-05
3.35844e-07
7.16731e-05
3.26828e-07
7.16914e-05
3.17509e-07
7.17092e-05
3.08032e-07
7.17264e-05
2.98522e-07
7.17431e-05
2.8909e-07
7.17593e-05
2.79846e-07
7.17752e-05
2.70906e-07
7.17907e-05
2.624e-07
7.18059e-05
2.5448e-07
7.18209e-05
2.47329e-07
7.1836e-05
2.41172e-07
7.18512e-05
2.3625e-07
7.1867e-05
2.32869e-07
7.18839e-05
2.31211e-07
7.1903e-05
2.31558e-07
7.19253e-05
2.33432e-07
7.19527e-05
2.36674e-07
7.19859e-05
2.38668e-07
2.3786e-07
7.20265e-05
7.34033e-05
3.28669e-08
7.3414e-05
1.20438e-07
7.34328e-05
1.96097e-07
7.34562e-05
2.52638e-07
7.34822e-05
2.93106e-07
7.35084e-05
3.18855e-07
7.3534e-05
3.33612e-07
7.35588e-05
3.40848e-07
7.35825e-05
3.42768e-07
7.36054e-05
3.40988e-07
7.36275e-05
3.36688e-07
7.3649e-05
3.30652e-07
7.367e-05
3.23418e-07
7.36905e-05
3.15364e-07
7.37105e-05
3.06761e-07
7.37302e-05
2.97808e-07
7.37496e-05
2.88659e-07
7.37687e-05
2.79443e-07
7.37875e-05
2.7027e-07
7.38061e-05
2.61249e-07
7.38245e-05
2.52488e-07
7.38428e-05
2.44107e-07
7.3861e-05
2.36237e-07
7.38794e-05
2.29027e-07
7.38979e-05
2.22644e-07
7.39169e-05
2.1725e-07
7.39367e-05
2.13015e-07
7.3958e-05
2.09987e-07
7.39813e-05
2.08172e-07
7.40077e-05
2.07084e-07
7.40382e-05
2.0617e-07
7.40732e-05
2.03686e-07
1.98084e-07
7.4113e-05
7.55023e-05
3.30645e-08
7.55123e-05
1.10389e-07
7.553e-05
1.78387e-07
7.55523e-05
2.30373e-07
7.55771e-05
2.68348e-07
7.56024e-05
2.9352e-07
7.56274e-05
3.08625e-07
7.56517e-05
3.16519e-07
7.56753e-05
3.19191e-07
7.56981e-05
3.18129e-07
7.57204e-05
3.14453e-07
7.57421e-05
3.08941e-07
7.57634e-05
3.02138e-07
7.57843e-05
2.94435e-07
7.58049e-05
2.86118e-07
7.58253e-05
2.77396e-07
7.58456e-05
2.68433e-07
7.58657e-05
2.59362e-07
7.58856e-05
2.50295e-07
7.59055e-05
2.41339e-07
7.59254e-05
2.32594e-07
7.59454e-05
2.24167e-07
7.59654e-05
2.16165e-07
7.59858e-05
2.08701e-07
7.60065e-05
2.01889e-07
7.6028e-05
1.95822e-07
7.60504e-05
1.90563e-07
7.60743e-05
1.86063e-07
7.61003e-05
1.82177e-07
7.6129e-05
1.78435e-07
7.61609e-05
1.74203e-07
7.61964e-05
1.68275e-07
1.59457e-07
7.6235e-05
7.76607e-05
3.1912e-08
7.76703e-05
1.00772e-07
7.76869e-05
1.61866e-07
7.77077e-05
2.09561e-07
7.7731e-05
2.44978e-07
7.77554e-05
2.69178e-07
7.77798e-05
2.84233e-07
7.78038e-05
2.92482e-07
7.78273e-05
2.95687e-07
7.78503e-05
2.95195e-07
7.78727e-05
2.92041e-07
7.78946e-05
2.86977e-07
7.79162e-05
2.80542e-07
7.79375e-05
2.73133e-07
7.79586e-05
2.6504e-07
7.79795e-05
2.56484e-07
7.80003e-05
2.47635e-07
7.80211e-05
2.38629e-07
7.80418e-05
2.2958e-07
7.80625e-05
2.2059e-07
7.80834e-05
2.11754e-07
7.81044e-05
2.0316e-07
7.81256e-05
1.94896e-07
7.81473e-05
1.87042e-07
7.81695e-05
1.79664e-07
7.81925e-05
1.72797e-07
7.82167e-05
1.66432e-07
7.82423e-05
1.60459e-07
7.82698e-05
1.54662e-07
7.82996e-05
1.48612e-07
7.83321e-05
1.41729e-07
7.83672e-05
1.33166e-07
1.22097e-07
7.84046e-05
7.98802e-05
3.00303e-08
7.98893e-05
9.16353e-08
7.99048e-05
1.46445e-07
7.99243e-05
1.89992e-07
7.99465e-05
2.22791e-07
7.99699e-05
2.4575e-07
7.99937e-05
2.60457e-07
8.00174e-05
2.68807e-07
8.00407e-05
2.72334e-07
8.00637e-05
2.72246e-07
8.00862e-05
2.69494e-07
8.01084e-05
2.64789e-07
8.01303e-05
2.58657e-07
8.0152e-05
2.51488e-07
8.01734e-05
2.43577e-07
8.01948e-05
2.35145e-07
8.0216e-05
2.26366e-07
8.02373e-05
2.17378e-07
8.02586e-05
2.08294e-07
8.02799e-05
1.99211e-07
8.03015e-05
1.90213e-07
8.03233e-05
1.81378e-07
8.03454e-05
1.72768e-07
8.0368e-05
1.64437e-07
8.03913e-05
1.56413e-07
8.04154e-05
1.48691e-07
8.04406e-05
1.41212e-07
8.04672e-05
1.33836e-07
8.04955e-05
1.26328e-07
8.05258e-05
1.18317e-07
8.05582e-05
1.09321e-07
8.05927e-05
9.87473e-08
8.60574e-08
8.06287e-05
8.21627e-05
2.77549e-08
8.21714e-05
8.29243e-08
8.21859e-05
1.32003e-07
8.22043e-05
1.7156e-07
8.22254e-05
2.01726e-07
8.22479e-05
2.23239e-07
8.2271e-05
2.37334e-07
8.22943e-05
2.45539e-07
8.23174e-05
2.49181e-07
8.23403e-05
2.49332e-07
8.2363e-05
2.46856e-07
8.23853e-05
2.42417e-07
8.24075e-05
2.36517e-07
8.24294e-05
2.29536e-07
8.24513e-05
2.21763e-07
8.2473e-05
2.1342e-07
8.24947e-05
2.04678e-07
8.25164e-05
1.95674e-07
8.25381e-05
1.86519e-07
8.25601e-05
1.77303e-07
8.25822e-05
1.68101e-07
8.26046e-05
1.58975e-07
8.26274e-05
1.49973e-07
8.26507e-05
1.41121e-07
8.26747e-05
1.32421e-07
8.26995e-05
1.2384e-07
8.27254e-05
1.15294e-07
8.27526e-05
1.06633e-07
8.27813e-05
9.76334e-08
8.28117e-05
8.79859e-08
8.28437e-05
7.7316e-08
8.28772e-05
6.5209e-08
5.13331e-08
8.29119e-05
8.45102e-05
2.5302e-08
8.45185e-05
7.46276e-08
8.45321e-05
1.18445e-07
8.45495e-05
1.54161e-07
8.45695e-05
1.81684e-07
8.45912e-05
2.01591e-07
8.46137e-05
2.14852e-07
8.46365e-05
2.22702e-07
8.46594e-05
2.26273e-07
8.46822e-05
2.26508e-07
8.47049e-05
2.24185e-07
8.47274e-05
2.19916e-07
8.47497e-05
2.14174e-07
8.47719e-05
2.07324e-07
8.47941e-05
1.99644e-07
8.48161e-05
1.91352e-07
8.48382e-05
1.82616e-07
8.48603e-05
1.73568e-07
8.48825e-05
1.64314e-07
8.49049e-05
1.54937e-07
8.49275e-05
1.45503e-07
8.49504e-05
1.36062e-07
8.49737e-05
1.26643e-07
8.49976e-05
1.17258e-07
8.50221e-05
1.0789e-07
8.50475e-05
9.84864e-08
8.50738e-05
8.89556e-08
8.51013e-05
7.9153e-08
8.513e-05
6.88818e-08
8.51601e-05
5.78935e-08
8.51915e-05
4.59074e-08
8.52241e-05
3.26387e-08
1.78947e-08
8.52575e-05
8.69247e-05
2.27999e-08
8.69326e-05
6.67261e-08
8.69453e-05
1.05676e-07
8.69618e-05
1.37693e-07
8.69809e-05
1.62574e-07
8.70018e-05
1.80755e-07
8.70236e-05
1.93003e-07
8.7046e-05
2.00312e-07
8.70686e-05
2.03641e-07
8.70913e-05
2.03815e-07
8.7114e-05
2.01526e-07
8.71366e-05
1.97333e-07
8.71591e-05
1.91675e-07
8.71815e-05
1.84898e-07
8.72039e-05
1.77266e-07
8.72262e-05
1.6899e-07
8.72486e-05
1.6023e-07
8.72711e-05
1.51113e-07
8.72936e-05
1.41738e-07
8.73164e-05
1.32182e-07
8.73394e-05
1.225e-07
8.73627e-05
1.12732e-07
8.73865e-05
1.02896e-07
8.74107e-05
9.2989e-08
8.74357e-05
8.29838e-08
8.74613e-05
7.2822e-08
8.74879e-05
6.24113e-08
8.75154e-05
5.16222e-08
8.7544e-05
4.02901e-08
8.75737e-05
2.82226e-08
8.76043e-05
1.52159e-08
8.76359e-05
1.07881e-09
-1.42904e-08
8.76681e-05
8.9408e-05
2.03225e-08
8.94155e-05
5.92006e-08
8.94276e-05
9.36104e-08
8.94432e-05
1.22063e-07
8.94615e-05
1.44312e-07
8.94816e-05
1.60676e-07
8.95028e-05
1.71761e-07
8.95248e-05
1.78368e-07
8.95471e-05
1.81304e-07
8.95696e-05
1.81282e-07
8.95922e-05
1.78916e-07
8.96149e-05
1.74708e-07
8.96375e-05
1.69064e-07
8.96601e-05
1.62303e-07
8.96827e-05
1.54676e-07
8.97053e-05
1.4638e-07
8.97279e-05
1.3757e-07
8.97507e-05
1.28363e-07
8.97736e-05
1.18852e-07
8.97966e-05
1.09105e-07
8.982e-05
9.91715e-08
8.98436e-05
8.90798e-08
8.98677e-05
7.88402e-08
8.98922e-05
6.84423e-08
8.99174e-05
5.78528e-08
8.99432e-05
4.70132e-08
8.99697e-05
3.5839e-08
8.99971e-05
2.42198e-08
9.00254e-05
1.20239e-08
9.00545e-05
-8.92792e-10
9.00844e-05
-1.46738e-08
9.01149e-05
-2.94435e-08
-4.52436e-08
9.01459e-05
9.19623e-05
1.79092e-08
9.19694e-05
5.20286e-08
9.19809e-05
8.21713e-08
9.19958e-05
1.07186e-07
9.20133e-05
1.2682e-07
9.20326e-05
1.41298e-07
9.20533e-05
1.51097e-07
9.20748e-05
1.56864e-07
9.20968e-05
1.59271e-07
9.21192e-05
1.58933e-07
9.21417e-05
1.56385e-07
9.21643e-05
1.52078e-07
9.2187e-05
1.46379e-07
9.22097e-05
1.3958e-07
9.22325e-05
1.31917e-07
9.22553e-05
1.23571e-07
9.22782e-05
1.14687e-07
9.23012e-05
1.05375e-07
9.23243e-05
9.5719e-08
9.23476e-05
8.57802e-08
9.23712e-05
7.55998e-08
9.23951e-05
6.52003e-08
9.24194e-05
5.4586e-08
9.24441e-05
4.3742e-08
9.24693e-05
3.26344e-08
9.24951e-05
2.12092e-08
9.25215e-05
9.39337e-09
9.25486e-05
-2.90295e-09
9.25764e-05
-1.57812e-08
9.26049e-05
-2.93456e-08
9.26339e-05
-4.36926e-08
9.26634e-05
-5.88996e-08
-7.49695e-08
9.26931e-05
9.45895e-05
1.55785e-08
9.45963e-05
4.51857e-08
9.46072e-05
7.12904e-08
9.46214e-05
9.29827e-08
9.46382e-05
1.10024e-07
9.46569e-05
1.22564e-07
9.46771e-05
1.30978e-07
9.46981e-05
1.35787e-07
9.47199e-05
1.37546e-07
9.4742e-05
1.36782e-07
9.47644e-05
1.33958e-07
9.4787e-05
1.29473e-07
9.48098e-05
1.23654e-07
9.48326e-05
1.1677e-07
9.48555e-05
1.09032e-07
9.48784e-05
1.00609e-07
9.49015e-05
9.16337e-08
9.49247e-05
8.22067e-08
9.4948e-05
7.24039e-08
9.49715e-05
6.22797e-08
9.49952e-05
5.18688e-08
9.50192e-05
4.11888e-08
9.50436e-05
3.02402e-08
9.50683e-05
1.90073e-08
9.50935e-05
7.45842e-09
9.51191e-05
-4.45318e-09
9.51453e-05
-1.67875e-08
9.5172e-05
-2.96144e-08
9.51993e-05
-4.30085e-08
9.52269e-05
-5.70421e-08
9.5255e-05
-7.17762e-08
9.52834e-05
-8.72551e-08
-1.03456e-07
9.53119e-05
9.72918e-05
1.33364e-08
9.72983e-05
3.86457e-08
9.73087e-05
6.09063e-08
9.73223e-05
7.93825e-08
9.73385e-05
9.38552e-08
9.73566e-05
1.0442e-07
9.73762e-05
1.11369e-07
9.73969e-05
1.15117e-07
9.74183e-05
1.16126e-07
9.74402e-05
1.14838e-07
9.74625e-05
1.11653e-07
9.74851e-05
1.06917e-07
9.75078e-05
1.00923e-07
9.75307e-05
9.3907e-08
9.75537e-05
8.60622e-08
9.75767e-05
7.75408e-08
9.75999e-05
6.8462e-08
9.76232e-05
5.8917e-08
9.76466e-05
4.89736e-08
9.76702e-05
3.86791e-08
9.7694e-05
2.80633e-08
9.77181e-05
1.71399e-08
9.77424e-05
5.90792e-09
9.77671e-05
-5.64742e-09
9.77921e-05
-1.75534e-08
9.78175e-05
-2.98483e-08
9.78433e-05
-4.25787e-08
9.78694e-05
-5.57965e-08
9.7896e-05
-6.95538e-08
9.79228e-05
-8.38973e-08
9.79499e-05
-9.88618e-08
9.79771e-05
-1.14468e-07
-1.30678e-07
9.80044e-05
0.000100071
1.1182e-08
0.000100078
3.23818e-08
0.000100087
5.09634e-08
0.000100101
6.63189e-08
0.000100116
7.82503e-08
0.000100134
8.68129e-08
0.000100153
9.22299e-08
0.000100173
9.48345e-08
0.000100194
9.50029e-08
0.000100216
9.31056e-08
0.000100238
8.9483e-08
0.000100261
8.4434e-08
0.000100283
7.82122e-08
0.000100306
7.10272e-08
0.000100329
6.30489e-08
0.000100352
5.44128e-08
0.000100376
4.52249e-08
0.000100399
3.55658e-08
0.000100422
2.54952e-08
0.000100446
1.50541e-08
0.00010047
4.26774e-09
0.000100494
-6.85275e-09
0.000100518
-1.83087e-08
0.000100543
-3.01127e-08
0.000100567
-4.22864e-08
0.000100592
-5.48595e-08
0.000100618
-6.78661e-08
0.000100643
-8.13421e-08
0.000100669
-9.53214e-08
0.000100695
-1.09831e-07
0.000100721
-1.24886e-07
0.000100747
-1.40491e-07
-1.56597e-07
0.000100773
0.00010293
9.11027e-09
0.000102936
2.63671e-08
0.000102946
4.14115e-08
0.000102958
5.37316e-08
0.000102973
6.31489e-08
0.000102991
6.96897e-08
0.000103009
7.35229e-08
0.000103029
7.49126e-08
0.00010305
7.41643e-08
0.000103072
7.15842e-08
0.000103094
6.74584e-08
0.000103116
6.20405e-08
0.000103139
5.55481e-08
0.000103161
4.81621e-08
0.000103184
4.00301e-08
0.000103208
3.12702e-08
0.000103231
2.19742e-08
0.000103254
1.22124e-08
0.000103278
2.03593e-09
0.000103301
-8.52013e-09
0.000103325
-1.94345e-08
0.000103349
-3.0698e-08
0.000103373
-4.23114e-08
0.000103397
-5.42844e-08
0.000103421
-6.66331e-08
0.000103446
-7.93787e-08
0.000103471
-9.25443e-08
0.000103495
-1.06152e-07
0.00010352
-1.20222e-07
0.000103545
-1.34766e-07
0.00010357
-1.49784e-07
0.000103595
-1.6527e-07
-1.81169e-07
0.000103619
0.000105871
7.11438e-09
0.000105877
2.05752e-08
0.000105886
3.22046e-08
0.000105898
4.15642e-08
0.000105913
4.84938e-08
0.000105929
5.29991e-08
0.000105948
5.52061e-08
0.000105967
5.53223e-08
0.000105988
5.35929e-08
0.000106009
5.02677e-08
0.000106031
4.55829e-08
0.000106053
3.97501e-08
0.000106076
3.29518e-08
0.000106099
2.5341e-08
0.000106122
1.70426e-08
0.000106145
8.15674e-09
0.000106168
-1.23863e-09
0.000106191
-1.10846e-08
0.000106215
-2.13379e-08
0.000106238
-3.19697e-08
0.000106262
-4.29621e-08
0.000106285
-5.43075e-08
0.000106309
-6.6006e-08
0.000106333
-7.80641e-08
0.000106357
-9.04927e-08
0.00010638
-1.03305e-07
0.000106404
-1.16516e-07
0.000106428
-1.30136e-07
0.000106452
-1.44173e-07
0.000106476
-1.58628e-07
0.0001065
-1.73492e-07
0.000106523
-1.8875e-07
-2.04344e-07
0.000106547
0.000108895
5.18681e-09
0.000108901
1.49812e-08
0.00010891
2.33007e-08
0.000108922
2.97652e-08
0.000108936
3.42313e-08
0.000108952
3.66912e-08
0.00010897
3.72374e-08
0.000108989
3.60313e-08
0.00010901
3.3267e-08
0.000109031
2.91446e-08
0.000109053
2.3855e-08
0.000109075
1.75701e-08
0.000109097
1.04394e-08
0.00010912
2.58796e-09
0.000109143
-5.88158e-09
0.000109166
-1.48875e-08
0.000109189
-2.43662e-08
0.000109212
-3.42697e-08
0.000109236
-4.45635e-08
0.000109259
-5.52242e-08
0.000109282
-6.62378e-08
0.000109305
-7.7598e-08
0.000109329
-8.93041e-08
0.000109352
-1.0136e-07
0.000109375
-1.13772e-07
0.000109399
-1.26547e-07
0.000109422
-1.39691e-07
0.000109445
-1.53208e-07
0.000109468
-1.67096e-07
0.00010949
-1.81347e-07
0.000109513
-1.95947e-07
0.000109535
-2.10874e-07
-2.26071e-07
0.000109557
0.000112006
3.31973e-09
0.000112012
9.56094e-09
0.00011202
1.466e-08
0.000112032
1.8284e-08
0.000112046
2.03061e-08
0.000112062
2.07119e-08
0.000112079
1.95688e-08
0.000112099
1.70006e-08
0.000112119
1.31583e-08
0.00011214
8.19726e-09
0.000112161
2.26777e-09
0.000112183
-4.49605e-09
0.000112206
-1.19764e-08
0.000112228
-2.00752e-08
0.000112251
-2.87124e-08
0.000112274
-3.78244e-08
0.000112297
-4.73623e-08
0.00011232
-5.72894e-08
0.000112343
-6.75797e-08
0.000112366
-7.82159e-08
0.000112389
-8.91876e-08
0.000112412
-1.0049e-07
0.000112435
-1.12122e-07
0.000112457
-1.24086e-07
0.00011248
-1.36384e-07
0.000112503
-1.49017e-07
0.000112525
-1.61987e-07
0.000112547
-1.75289e-07
0.000112569
-1.88917e-07
0.00011259
-2.02856e-07
0.000112611
-2.17087e-07
0.000112632
-2.31587e-07
-2.46295e-07
0.000112652
0.000115206
1.507e-09
0.000115212
4.29525e-09
0.00011522
6.25119e-09
0.000115231
7.08022e-09
0.000115245
6.67298e-09
0.00011526
5.01467e-09
0.000115278
2.15499e-09
0.000115297
-1.81136e-09
0.000115317
-6.76839e-09
0.000115337
-1.26017e-08
0.000115359
-1.91985e-08
0.000115381
-2.64589e-08
0.000115403
-3.42967e-08
0.000115426
-4.26403e-08
0.000115448
-5.14323e-08
0.000115471
-6.06274e-08
0.000115494
-7.01916e-08
0.000115517
-8.00998e-08
0.00011554
-9.03349e-08
0.000115562
-1.00886e-07
0.000115585
-1.11746e-07
0.000115607
-1.22914e-07
0.00011563
-1.34387e-07
0.000115652
-1.46166e-07
0.000115674
-1.5825e-07
0.000115695
-1.70639e-07
0.000115716
-1.83328e-07
0.000115738
-1.96309e-07
0.000115758
-2.0957e-07
0.000115778
-2.23093e-07
0.000115798
-2.36857e-07
0.000115817
-2.50834e-07
-2.64968e-07
0.000115836
0.000118498
-2.61275e-10
0.000118503
-8.42186e-10
0.000118511
-1.96982e-09
0.000118522
-3.90523e-09
0.000118535
-6.73567e-09
0.000118551
-1.04689e-08
0.000118568
-1.5065e-08
0.000118587
-2.04536e-08
0.000118607
-2.65521e-08
0.000118627
-3.32792e-08
0.000118649
-4.05579e-08
0.00011867
-4.83218e-08
0.000118693
-5.65147e-08
0.000118715
-6.50914e-08
0.000118738
-7.40168e-08
0.00011876
-8.32642e-08
0.000118783
-9.28145e-08
0.000118805
-1.02655e-07
0.000118828
-1.12777e-07
0.00011885
-1.23177e-07
0.000118872
-1.33852e-07
0.000118894
-1.44802e-07
0.000118916
-1.56028e-07
0.000118937
-1.67529e-07
0.000118958
-1.79302e-07
0.000118979
-1.91345e-07
0.000118999
-2.03649e-07
0.000119019
-2.16204e-07
0.000119039
-2.28995e-07
0.000119058
-2.42002e-07
0.000119076
-2.55201e-07
0.000119094
-2.68566e-07
-2.82041e-07
0.000119111
0.000121883
-1.97675e-09
0.000121888
-5.84035e-09
0.000121896
-9.99402e-09
0.000121907
-1.46743e-08
0.00012192
-1.99394e-08
0.000121935
-2.57778e-08
0.000121952
-3.21489e-08
0.000121971
-3.89972e-08
0.000121991
-4.62664e-08
0.000122011
-5.39065e-08
0.000122033
-6.18754e-08
0.000122054
-7.01394e-08
0.000122077
-7.86731e-08
0.000122099
-8.74581e-08
0.000122121
-9.64822e-08
0.000122144
-1.05738e-07
0.000122166
-1.15222e-07
0.000122189
-1.24934e-07
0.000122211
-1.34876e-07
0.000122233
-1.45049e-07
0.000122254
-1.55458e-07
0.000122275
-1.66104e-07
0.000122296
-1.7699e-07
0.000122317
-1.88116e-07
0.000122337
-1.99478e-07
0.000122357
-2.11072e-07
0.000122376
-2.22889e-07
0.000122395
-2.34916e-07
0.000122413
-2.47137e-07
0.000122431
-2.59531e-07
0.000122447
-2.72074e-07
0.000122464
-2.8474e-07
-2.97476e-07
0.000122479
0.000125365
-3.68734e-09
0.00012537
-1.07835e-08
0.000125378
-1.79361e-08
0.000125389
-2.53528e-08
0.000125402
-3.30528e-08
0.000125417
-4.10011e-08
0.000125434
-4.91547e-08
0.000125453
-5.74718e-08
0.000125472
-6.59193e-08
0.000125493
-7.44766e-08
0.000125514
-8.31334e-08
0.000125536
-9.18877e-08
0.000125558
-1.00744e-07
0.00012558
-1.09709e-07
0.000125602
-1.18795e-07
0.000125625
-1.28014e-07
0.000125647
-1.37378e-07
0.000125669
-1.46899e-07
0.000125691
-1.5659e-07
0.000125712
-1.6646e-07
0.000125733
-1.7652e-07
0.000125754
-1.86774e-07
0.000125774
-1.97227e-07
0.000125794
-2.07881e-07
0.000125813
-2.18732e-07
0.000125832
-2.29777e-07
0.00012585
-2.41005e-07
0.000125867
-2.52404e-07
0.000125884
-2.63957e-07
0.0001259
-2.75644e-07
0.000125916
-2.87439e-07
0.00012593
-2.9932e-07
-3.11234e-07
0.000125944
0.000128947
-5.23889e-09
0.000128951
-1.54457e-08
0.000128959
-2.55697e-08
0.000128969
-3.57949e-08
0.000128982
-4.60494e-08
0.000128998
-5.62278e-08
0.000129015
-6.62587e-08
0.000129033
-7.61043e-08
0.000129053
-8.57566e-08
0.000129074
-9.52298e-08
0.000129095
-1.04552e-07
0.000129117
-1.13757e-07
0.000129139
-1.22883e-07
0.000129162
-1.31968e-07
0.000129184
-1.41048e-07
0.000129206
-1.50155e-07
0.000129228
-1.59319e-07
0.00012925
-1.68566e-07
0.000129271
-1.77918e-07
0.000129292
-1.87394e-07
0.000129312
-1.97009e-07
0.000129332
-2.06773e-07
0.000129352
-2.16694e-07
0.000129371
-2.26775e-07
0.000129389
-2.37014e-07
0.000129407
-2.47408e-07
0.000129424
-2.57947e-07
0.00012944
-2.6862e-07
0.000129455
-2.79409e-07
0.00012947
-2.90297e-07
0.000129484
-3.01259e-07
0.000129497
-3.12273e-07
-3.23293e-07
0.000129509
0.000132631
-7.10022e-09
0.000132636
-2.03922e-08
0.000132644
-3.34066e-08
0.000132654
-4.63245e-08
0.000132667
-5.90316e-08
0.000132682
-7.1376e-08
0.000132699
-8.32599e-08
0.000132718
-9.46372e-08
0.000132738
-1.0551e-07
0.000132758
-1.15915e-07
0.00013278
-1.25911e-07
0.000132802
-1.35565e-07
0.000132824
-1.44948e-07
0.000132846
-1.54126e-07
0.000132868
-1.63161e-07
0.00013289
-1.72106e-07
0.000132911
-1.81009e-07
0.000132933
-1.89912e-07
0.000132954
-1.98848e-07
0.000132974
-2.07846e-07
0.000132994
-2.16926e-07
0.000133013
-2.26107e-07
0.000133032
-2.35397e-07
0.00013305
-2.44805e-07
0.000133068
-2.54331e-07
0.000133084
-2.63973e-07
0.0001331
-2.73723e-07
0.000133115
-2.83571e-07
0.000133129
-2.93501e-07
0.000133142
-3.03496e-07
0.000133154
-3.13535e-07
0.000133166
-3.23597e-07
-3.33639e-07
0.000133176
0.000136419
-7.85707e-09
0.000136423
-2.41066e-08
0.00013643
-4.03598e-08
0.00013644
-5.65972e-08
0.000136453
-7.23229e-08
0.000136469
-8.72093e-08
0.000136487
-1.01133e-07
0.000136506
-1.14087e-07
0.000136527
-1.26131e-07
0.000136549
-1.37366e-07
0.000136571
-1.47907e-07
0.000136593
-1.57869e-07
0.000136615
-1.67365e-07
0.000136638
-1.76495e-07
0.00013666
-1.85348e-07
0.000136682
-1.94002e-07
0.000136703
-2.02521e-07
0.000136724
-2.10961e-07
0.000136745
-2.19365e-07
0.000136765
-2.27771e-07
0.000136784
-2.36208e-07
0.000136803
-2.44696e-07
0.00013682
-2.5325e-07
0.000136837
-2.61881e-07
0.000136854
-2.70591e-07
0.000136869
-2.79381e-07
0.000136884
-2.88244e-07
0.000136897
-2.97173e-07
0.00013691
-3.06154e-07
0.000136922
-3.15172e-07
0.000136932
-3.24208e-07
0.000136942
-3.33245e-07
-3.42242e-07
0.000136951
0.000140319
-1.11423e-08
0.000140325
-2.96804e-08
0.000140332
-4.80974e-08
0.000140342
-6.66185e-08
0.000140355
-8.47828e-08
0.00014037
-1.0204e-07
0.000140387
-1.18074e-07
0.000140405
-1.3278e-07
0.000140425
-1.46197e-07
0.000140446
-1.58445e-07
0.000140468
-1.69676e-07
0.00014049
-1.80052e-07
0.000140513
-1.89724e-07
0.000140535
-1.98834e-07
0.000140557
-2.07502e-07
0.000140579
-2.15833e-07
0.0001406
-2.23916e-07
0.000140621
-2.31823e-07
0.000140642
-2.39614e-07
0.000140661
-2.47337e-07
0.00014068
-2.55031e-07
0.000140698
-2.62723e-07
0.000140715
-2.70434e-07
0.000140731
-2.78179e-07
0.000140747
-2.85965e-07
0.000140761
-2.93795e-07
0.000140775
-3.01667e-07
0.000140787
-3.09574e-07
0.000140798
-3.17506e-07
0.000140809
-3.25451e-07
0.000140818
-3.33392e-07
0.000140826
-3.41312e-07
-3.4918e-07
0.000140833
0.000144322
-8.15609e-09
0.000144322
-3.03545e-08
0.000144328
-5.39914e-08
0.000144339
-7.77914e-08
0.000144355
-1.00104e-07
0.000144373
-1.20322e-07
0.000144393
-1.38405e-07
0.000144415
-1.54487e-07
0.000144438
-1.68779e-07
0.000144461
-1.81523e-07
0.000144484
-1.92959e-07
0.000144507
-2.03315e-07
0.00014453
-2.12792e-07
0.000144553
-2.21566e-07
0.000144575
-2.29784e-07
0.000144597
-2.3757e-07
0.000144618
-2.45027e-07
0.000144639
-2.52238e-07
0.000144658
-2.59273e-07
0.000144677
-2.66186e-07
0.000144695
-2.7302e-07
0.000144712
-2.79808e-07
0.000144728
-2.86575e-07
0.000144743
-2.93339e-07
0.000144758
-3.0011e-07
0.000144771
-3.06894e-07
0.000144783
-3.1369e-07
0.000144794
-3.20496e-07
0.000144803
-3.27304e-07
0.000144812
-3.34104e-07
0.00014482
-3.40883e-07
0.000144826
-3.47629e-07
-3.54311e-07
0.000144831
0.000148457
-1.69232e-08
0.000148463
-3.69462e-08
0.000148469
-5.92443e-08
0.000148475
-8.43503e-08
0.000148485
-1.09797e-07
0.000148498
-1.33614e-07
0.000148515
-1.54877e-07
0.000148534
-1.73473e-07
0.000148554
-1.8963e-07
0.000148577
-2.0366e-07
0.000148599
-2.15893e-07
0.000148623
-2.26647e-07
0.000148646
-2.36199e-07
0.000148669
-2.44792e-07
0.000148692
-2.52624e-07
0.000148715
-2.59863e-07
0.000148736
-2.66642e-07
0.000148757
-2.73073e-07
0.000148777
-2.79242e-07
0.000148796
-2.85219e-07
0.000148814
-2.9106e-07
0.000148831
-2.96806e-07
0.000148847
-3.02489e-07
0.000148862
-3.08132e-07
0.000148875
-3.13751e-07
0.000148888
-3.19355e-07
0.000148899
-3.24949e-07
0.000148909
-3.30531e-07
0.000148918
-3.361e-07
0.000148926
-3.41646e-07
0.000148932
-3.4716e-07
0.000148937
-3.52633e-07
-3.58041e-07
0.000148941
0.000152671
1.21568e-09
0.000152666
-3.17531e-08
0.000152674
-6.70382e-08
0.000152691
-1.01957e-07
0.000152714
-1.32289e-07
0.000152738
-1.58314e-07
0.000152764
-1.8048e-07
0.00015279
-1.99319e-07
0.000152816
-2.15339e-07
0.000152841
-2.28997e-07
0.000152866
-2.40717e-07
0.00015289
-2.50867e-07
0.000152913
-2.59749e-07
0.000152936
-2.67615e-07
0.000152958
-2.74672e-07
0.00015298
-2.81087e-07
0.000153
-2.86999e-07
0.000153019
-2.92517e-07
0.000153038
-2.97732e-07
0.000153055
-3.02713e-07
0.000153072
-3.07519e-07
0.000153087
-3.12192e-07
0.000153101
-3.16768e-07
0.000153115
-3.21272e-07
0.000153127
-3.25722e-07
0.000153137
-3.3013e-07
0.000153147
-3.34503e-07
0.000153155
-3.38844e-07
0.000153162
-3.43152e-07
0.000153168
-3.47423e-07
0.000153173
-3.51651e-07
0.000153176
-3.55827e-07
-3.59932e-07
0.000153178
0.000157077
-2.42757e-08
0.000157076
-3.07616e-08
0.000157063
-5.4033e-08
0.000157054
-9.33206e-08
0.000157055
-1.33084e-07
0.000157065
-1.68408e-07
0.000157082
-1.97171e-07
0.000157103
-2.20472e-07
0.000157127
-2.39414e-07
0.000157153
-2.54825e-07
0.00015718
-2.67426e-07
0.000157207
-2.77822e-07
0.000157233
-2.86494e-07
0.00015726
-2.93823e-07
0.000157285
-3.0011e-07
0.00015731
-3.0559e-07
0.000157333
-3.10445e-07
0.000157355
-3.14821e-07
0.000157376
-3.18828e-07
0.000157396
-3.22554e-07
0.000157415
-3.26067e-07
0.000157432
-3.2942e-07
0.000157448
-3.32651e-07
0.000157462
-3.35791e-07
0.000157476
-3.38861e-07
0.000157487
-3.41878e-07
0.000157498
-3.4485e-07
0.000157507
-3.47784e-07
0.000157514
-3.50682e-07
0.00015752
-3.53543e-07
0.000157525
-3.56363e-07
0.000157528
-3.5914e-07
-3.61857e-07
0.00015753
0.00016147
4.44867e-08
0.000161456
-1.69799e-08
0.000161492
-8.9903e-08
0.000161534
-1.35787e-07
0.000161576
-1.74651e-07
0.000161612
-2.04705e-07
0.000161644
-2.29318e-07
0.000161673
-2.49694e-07
0.0001617
-2.66378e-07
0.000161726
-2.80074e-07
0.00016175
-2.91399e-07
0.000161773
-3.00816e-07
0.000161795
-3.08695e-07
0.000161816
-3.15335e-07
0.000161837
-3.20976e-07
0.000161857
-3.25813e-07
0.000161877
-3.3e-07
0.000161896
-3.33663e-07
0.000161914
-3.36903e-07
0.000161931
-3.398e-07
0.000161948
-3.42422e-07
0.000161963
-3.44819e-07
0.000161977
-3.47034e-07
0.000161991
-3.49101e-07
0.000162003
-3.51045e-07
0.000162014
-3.52887e-07
0.000162024
-3.54641e-07
0.000162032
-3.56318e-07
0.000162039
-3.57924e-07
0.000162045
-3.59462e-07
0.00016205
-3.60933e-07
0.000162053
-3.62335e-07
-3.63661e-07
0.000162055
0.00016619
7.68619e-09
0.000166126
4.71624e-08
0.000166046
-9.26711e-09
0.000165989
-7.92302e-08
0.000165976
-1.61465e-07
0.000165989
-2.17391e-07
0.000166016
-2.57146e-07
0.000166052
-2.85773e-07
0.000166093
-3.07e-07
0.000166136
-3.23011e-07
0.00016618
-3.35189e-07
0.000166224
-3.44529e-07
0.000166267
-3.51741e-07
0.000166309
-3.57337e-07
0.000166349
-3.6169e-07
0.000166389
-3.65078e-07
0.000166426
-3.67709e-07
0.000166462
-3.69741e-07
0.000166497
-3.71297e-07
0.000166529
-3.72473e-07
0.00016656
-3.73343e-07
0.000166589