/*--------------------------------*- C++ -*----------------------------------*\
  =========                 |
  \\      /  F ield         | OpenFOAM: The Open Source CFD Toolbox
   \\    /   O peration     | Website:  https://openfoam.org
    \\  /    A nd           | Version:  10
     \\/     M anipulation  |
\*---------------------------------------------------------------------------*/
FoamFile
{
    format      ascii;
    class       volVectorField;
    location    "0.135";
    object      U;
}
// * * * * * * * * * * * * * * * * * * * * * * * * * * * * * * * * * * * * * //

dimensions      [0 1 -1 0 0 0 0];

internalField   nonuniform List<vector> 
6820
(
(7.33663 -0.254711 0)
(7.37113 -0.152748 0)
(7.32906 -0.0594737 0)
(7.25225 -0.0117276 0)
(7.17492 0.00795476 0)
(7.10514 0.0139533 0)
(7.04418 0.0144364 0)
(6.99144 0.0130543 0)
(6.94546 0.0112983 0)
(6.90485 0.00971556 0)
(6.86853 0.00844621 0)
(6.83569 0.0074774 0)
(6.80572 0.00675269 0)
(6.77818 0.00621268 0)
(6.7527 0.00580765 0)
(6.72904 0.0054998 0)
(6.70697 0.00526154 0)
(6.68633 0.00507345 0)
(6.66695 0.00492226 0)
(6.64873 0.00479935 0)
(6.63155 0.00469972 0)
(6.61529 0.00462163 0)
(6.59987 0.0045667 0)
(6.58517 0.00454127 0)
(6.57106 0.00455835 0)
(6.5574 0.00464544 0)
(6.54393 0.00485948 0)
(6.53032 0.00527365 0)
(6.51568 0.00639753 0)
(6.49918 0.00747762 0)
(6.47705 0.0154908 0)
(6.4403 0.0168966 0)
(6.39504 0.0386226 0)
(7.32387 0.121384 0)
(7.3044 0.123266 0)
(7.30897 0.0779491 0)
(7.32921 0.0527635 0)
(7.34732 0.0391574 0)
(7.35541 0.0313447 0)
(7.35448 0.0268836 0)
(7.34742 0.0241276 0)
(7.33654 0.0222193 0)
(7.32341 0.0207671 0)
(7.30908 0.0195755 0)
(7.29422 0.0185441 0)
(7.27924 0.0176225 0)
(7.26438 0.0167843 0)
(7.24978 0.0160146 0)
(7.23554 0.0153041 0)
(7.2217 0.0146466 0)
(7.20827 0.0140376 0)
(7.19528 0.0134742 0)
(7.18272 0.0129545 0)
(7.17057 0.0124784 0)
(7.15884 0.0120474 0)
(7.1475 0.0116666 0)
(7.13653 0.011346 0)
(7.12593 0.0111036 0)
(7.11566 0.0109789 0)
(7.10575 0.0110258 0)
(7.09607 0.0114268 0)
(7.08733 0.0123229 0)
(7.07824 0.0146412 0)
(7.07504 0.0190829 0)
(7.07068 0.0288186 0)
(7.09803 0.0520639 0)
(7.32565 -0.0437956 0)
(7.32325 -0.0517434 0)
(7.33519 -0.026218 0)
(7.34305 -0.00274739 0)
(7.34801 0.0103907 0)
(7.35224 0.0168301 0)
(7.35529 0.0198894 0)
(7.35689 0.0211628 0)
(7.35701 0.0214918 0)
(7.35579 0.0213497 0)
(7.35346 0.0209832 0)
(7.35024 0.020519 0)
(7.34635 0.0200228 0)
(7.34195 0.0195273 0)
(7.33717 0.0190479 0)
(7.33213 0.0185908 0)
(7.32691 0.0181583 0)
(7.32157 0.0177507 0)
(7.31617 0.0173683 0)
(7.31074 0.0170115 0)
(7.30531 0.0166824 0)
(7.29991 0.0163847 0)
(7.29455 0.0161252 0)
(7.28922 0.0159156 0)
(7.28393 0.0157765 0)
(7.27866 0.0157371 0)
(7.27342 0.0158676 0)
(7.26812 0.0162069 0)
(7.26296 0.0170956 0)
(7.25754 0.0181684 0)
(7.25316 0.0214246 0)
(7.24861 0.0225653 0)
(7.24729 0.0296052 0)
(7.33338 0.011783 0)
(7.33036 0.0329 0)
(7.32957 0.0333227 0)
(7.3326 0.0276031 0)
(7.33805 0.0242034 0)
(7.34361 0.0227155 0)
(7.34828 0.0221411 0)
(7.352 0.0219001 0)
(7.35488 0.0217357 0)
(7.35698 0.0215659 0)
(7.35839 0.021365 0)
(7.3592 0.0211272 0)
(7.3595 0.0208561 0)
(7.35937 0.0205589 0)
(7.35888 0.0202431 0)
(7.3581 0.0199153 0)
(7.35707 0.0195816 0)
(7.35585 0.0192476 0)
(7.35448 0.0189183 0)
(7.35297 0.018599 0)
(7.35136 0.0182961 0)
(7.34967 0.0180176 0)
(7.34791 0.0177746 0)
(7.3461 0.0175835 0)
(7.34423 0.0174696 0)
(7.3423 0.0174691 0)
(7.34034 0.0176492 0)
(7.33832 0.0180808 0)
(7.3364 0.0189741 0)
(7.33449 0.0203422 0)
(7.33337 0.0229645 0)
(7.33309 0.025946 0)
(7.33547 0.0317682 0)
(7.33122 -0.00352858 0)
(7.33004 -0.00434522 0)
(7.33361 0.0012386 0)
(7.33722 0.00867586 0)
(7.34053 0.0140288 0)
(7.34385 0.0170204 0)
(7.34705 0.0186429 0)
(7.3501 0.0195394 0)
(7.35292 0.0200143 0)
(7.35545 0.020238 0)
(7.35768 0.0203062 0)
(7.35962 0.020272 0)
(7.36128 0.0201683 0)
(7.36269 0.0200168 0)
(7.36387 0.0198318 0)
(7.36485 0.0196236 0)
(7.36565 0.0194001 0)
(7.36629 0.0191675 0)
(7.3668 0.0189319 0)
(7.36719 0.0186994 0)
(7.36747 0.0184772 0)
(7.36767 0.0182743 0)
(7.36779 0.0181029 0)
(7.36784 0.0179801 0)
(7.36783 0.0179311 0)
(7.36777 0.0179891 0)
(7.36768 0.0182123 0)
(7.36758 0.0186523 0)
(7.3676 0.019456 0)
(7.36778 0.0205919 0)
(7.36855 0.0224495 0)
(7.37012 0.0242841 0)
(7.37305 0.0267805 0)
(7.33264 0.0020741 0)
(7.33224 0.0098852 0)
(7.33394 0.0140691 0)
(7.33646 0.0159266 0)
(7.33948 0.0170184 0)
(7.3427 0.0177759 0)
(7.34579 0.0183659 0)
(7.34869 0.0188077 0)
(7.35141 0.0190997 0)
(7.35395 0.0192707 0)
(7.35633 0.0193503 0)
(7.35854 0.0193591 0)
(7.36061 0.0193124 0)
(7.36253 0.019222 0)
(7.36432 0.0190971 0)
(7.36599 0.0189451 0)
(7.36755 0.0187727 0)
(7.369 0.0185857 0)
(7.37037 0.0183902 0)
(7.37165 0.0181927 0)
(7.37286 0.0180009 0)
(7.374 0.0178244 0)
(7.37508 0.0176757 0)
(7.37612 0.0175715 0)
(7.37711 0.0175352 0)
(7.37808 0.0175964 0)
(7.37906 0.0178004 0)
(7.38007 0.0181877 0)
(7.38123 0.0188441 0)
(7.38263 0.019753 0)
(7.38454 0.0210573 0)
(7.38716 0.0223789 0)
(7.39075 0.0238284 0)
(7.33258 0.000822199 0)
(7.33243 0.00449263 0)
(7.33429 0.00802909 0)
(7.3369 0.0112145 0)
(7.33971 0.0137812 0)
(7.34257 0.015534 0)
(7.34532 0.0166629 0)
(7.34794 0.0173818 0)
(7.35045 0.0178253 0)
(7.35286 0.0180863 0)
(7.35516 0.0182244 0)
(7.35738 0.0182753 0)
(7.35951 0.018262 0)
(7.36157 0.0182003 0)
(7.36355 0.0181012 0)
(7.36547 0.0179732 0)
(7.36732 0.0178229 0)
(7.36912 0.0176565 0)
(7.37086 0.0174798 0)
(7.37255 0.0172994 0)
(7.3742 0.0171226 0)
(7.37581 0.0169585 0)
(7.37738 0.0168189 0)
(7.37893 0.0167186 0)
(7.38047 0.0166775 0)
(7.38202 0.0167191 0)
(7.3836 0.0168758 0)
(7.38527 0.0171735 0)
(7.3871 0.0176552 0)
(7.38918 0.0182969 0)
(7.39169 0.0191216 0)
(7.39478 0.0198867 0)
(7.39852 0.0204814 0)
(7.33284 0.001325 0)
(7.33301 0.00532976 0)
(7.33459 0.00886597 0)
(7.33683 0.0115334 0)
(7.33934 0.0134859 0)
(7.34198 0.0148245 0)
(7.34459 0.0157344 0)
(7.34711 0.0163557 0)
(7.34953 0.016764 0)
(7.35186 0.0170159 0)
(7.3541 0.0171545 0)
(7.35628 0.0172091 0)
(7.3584 0.0172 0)
(7.36047 0.0171419 0)
(7.36249 0.0170455 0)
(7.36448 0.0169189 0)
(7.36643 0.0167689 0)
(7.36835 0.0166013 0)
(7.37024 0.0164219 0)
(7.37211 0.0162368 0)
(7.37396 0.016053 0)
(7.37579 0.0158788 0)
(7.37761 0.0157246 0)
(7.37943 0.0156027 0)
(7.38127 0.015529 0)
(7.38314 0.0155205 0)
(7.38507 0.015598 0)
(7.3871 0.0157749 0)
(7.38931 0.0160659 0)
(7.39177 0.0164417 0)
(7.39458 0.0168736 0)
(7.39784 0.0172006 0)
(7.40156 0.0172854 0)
(7.33291 0.00132219 0)
(7.33321 0.00464644 0)
(7.33462 0.00766491 0)
(7.33666 0.0101092 0)
(7.33899 0.0120451 0)
(7.34145 0.0134705 0)
(7.34392 0.0144731 0)
(7.34632 0.0151616 0)
(7.34864 0.0156151 0)
(7.3509 0.015896 0)
(7.35309 0.0160516 0)
(7.35522 0.0161148 0)
(7.3573 0.016108 0)
(7.35935 0.0160475 0)
(7.36137 0.0159451 0)
(7.36336 0.0158098 0)
(7.36534 0.0156487 0)
(7.36729 0.015468 0)
(7.36924 0.0152734 0)
(7.37117 0.0150708 0)
(7.3731 0.0148667 0)
(7.37504 0.0146683 0)
(7.37698 0.0144842 0)
(7.37894 0.0143243 0)
(7.38093 0.0142 0)
(7.38297 0.0141223 0)
(7.38509 0.0141024 0)
(7.38733 0.0141435 0)
(7.38974 0.0142432 0)
(7.39237 0.0143688 0)
(7.3953 0.0144738 0)
(7.39857 0.0144445 0)
(7.40216 0.014163 0)
(7.33297 0.00129739 0)
(7.33335 0.00428731 0)
(7.33462 0.00705936 0)
(7.33647 0.00933377 0)
(7.33859 0.0111288 0)
(7.34087 0.0124615 0)
(7.34319 0.0134114 0)
(7.34548 0.0140743 0)
(7.34773 0.0145194 0)
(7.34992 0.0147994 0)
(7.35206 0.0149552 0)
(7.35416 0.0150165 0)
(7.35621 0.015005 0)
(7.35824 0.0149363 0)
(7.36024 0.0148226 0)
(7.36222 0.014673 0)
(7.36418 0.0144947 0)
(7.36614 0.014294 0)
(7.3681 0.0140765 0)
(7.37006 0.0138479 0)
(7.37202 0.0136138 0)
(7.37399 0.0133805 0)
(7.37599 0.0131547 0)
(7.37801 0.0129437 0)
(7.38008 0.0127546 0)
(7.38221 0.0125937 0)
(7.38442 0.0124644 0)
(7.38676 0.012363 0)
(7.38926 0.0122774 0)
(7.39196 0.0121748 0)
(7.39489 0.0120069 0)
(7.39808 0.0116916 0)
(7.40151 0.0111414 0)
(7.333 0.00123433 0)
(7.33341 0.00390049 0)
(7.33457 0.00637724 0)
(7.33624 0.00844314 0)
(7.33819 0.0101024 0)
(7.3403 0.0113697 0)
(7.34249 0.0122971 0)
(7.34467 0.0129557 0)
(7.34684 0.0134031 0)
(7.34896 0.0136862 0)
(7.35105 0.0138428 0)
(7.3531 0.0139015 0)
(7.35513 0.0138835 0)
(7.35712 0.0138048 0)
(7.3591 0.0136773 0)
(7.36106 0.0135105 0)
(7.36302 0.0133118 0)
(7.36497 0.0130873 0)
(7.36692 0.0128426 0)
(7.36888 0.0125827 0)
(7.37084 0.0123127 0)
(7.37283 0.0120376 0)
(7.37484 0.0117624 0)
(7.37689 0.0114917 0)
(7.37899 0.0112295 0)
(7.38116 0.0109776 0)
(7.38342 0.0107344 0)
(7.38579 0.0104916 0)
(7.38831 0.0102325 0)
(7.39099 0.00992645 0)
(7.39387 0.00953013 0)
(7.39694 0.00898342 0)
(7.40018 0.00822492 0)
(7.33302 0.00114949 0)
(7.33344 0.00353832 0)
(7.33449 0.00576307 0)
(7.33601 0.00764815 0)
(7.3378 0.0091795 0)
(7.33976 0.0103664 0)
(7.34182 0.0112469 0)
(7.34389 0.0118777 0)
(7.34597 0.0123087 0)
(7.34803 0.0125813 0)
(7.35006 0.0127291 0)
(7.35207 0.0127785 0)
(7.35406 0.0127493 0)
(7.35602 0.0126568 0)
(7.35797 0.0125127 0)
(7.35992 0.0123262 0)
(7.36185 0.0121044 0)
(7.36379 0.0118535 0)
(7.36573 0.0115784 0)
(7.36767 0.0112839 0)
(7.36964 0.010974 0)
(7.37162 0.0106525 0)
(7.37364 0.0103228 0)
(7.37569 0.00998739 0)
(7.3778 0.00964744 0)
(7.37997 0.00930158 0)
(7.38223 0.00894481 0)
(7.3846 0.00856632 0)
(7.38709 0.00814825 0)
(7.38972 0.00766309 0)
(7.3925 0.00707479 0)
(7.39543 0.00633908 0)
(7.39848 0.00541431 0)
(7.33303 0.0010543 0)
(7.33344 0.00319282 0)
(7.3344 0.00518282 0)
(7.33578 0.00688812 0)
(7.33743 0.00828702 0)
(7.33926 0.00938569 0)
(7.34119 0.0102118 0)
(7.34316 0.0108088 0)
(7.34515 0.0112182 0)
(7.34714 0.0114754 0)
(7.34911 0.0116101 0)
(7.35107 0.0116462 0)
(7.35302 0.0116026 0)
(7.35495 0.0114934 0)
(7.35687 0.0113302 0)
(7.35879 0.0111216 0)
(7.3607 0.0108747 0)
(7.36262 0.010595 0)
(7.36454 0.0102874 0)
(7.36647 0.00995561 0)
(7.36842 0.00960303 0)
(7.37039 0.0092323 0)
(7.3724 0.00884526 0)
(7.37444 0.00844264 0)
(7.37654 0.00802343 0)
(7.3787 0.00758412 0)
(7.38094 0.00711769 0)
(7.38327 0.0066124 0)
(7.38571 0.00605095 0)
(7.38826 0.0054097 0)
(7.39093 0.00465966 0)
(7.39371 0.00376824 0)
(7.39657 0.00270762 0)
(7.33303 0.000955133 0)
(7.33342 0.00286401 0)
(7.33431 0.00463796 0)
(7.33557 0.00617206 0)
(7.33709 0.00744119 0)
(7.33879 0.00844762 0)
(7.34061 0.00921104 0)
(7.34248 0.00976493 0)
(7.34439 0.0101435 0)
(7.3463 0.0103771 0)
(7.34822 0.010492 0)
(7.35013 0.0105096 0)
(7.35203 0.0104471 0)
(7.35392 0.0103179 0)
(7.35581 0.0101327 0)
(7.3577 0.00989966 0)
(7.35958 0.0096254 0)
(7.36148 0.0093151 0)
(7.36337 0.00897288 0)
(7.36528 0.008602 0)
(7.36721 0.00820491 0)
(7.36917 0.00778322 0)
(7.37115 0.00733751 0)
(7.37317 0.00686707 0)
(7.37524 0.00636938 0)
(7.37737 0.00583955 0)
(7.37957 0.00526962 0)
(7.38185 0.00464793 0)
(7.38422 0.00395873 0)
(7.38667 0.00318224 0)
(7.38922 0.00229565 0)
(7.39185 0.00127495 0)
(7.39454 0.0001018 0)
(7.33303 0.000855826 0)
(7.3334 0.00255099 0)
(7.33422 0.00412378 0)
(7.33538 0.00549284 0)
(7.33679 0.00663268 0)
(7.33837 0.00754256 0)
(7.34008 0.00823646 0)
(7.34186 0.00873994 0)
(7.34368 0.00908086 0)
(7.34552 0.00928491 0)
(7.34738 0.00937476 0)
(7.34923 0.00936947 0)
(7.35109 0.00928451 0)
(7.35294 0.00913223 0)
(7.35479 0.00892241 0)
(7.35665 0.00866276 0)
(7.3585 0.00835927 0)
(7.36036 0.00801662 0)
(7.36223 0.00763835 0)
(7.36412 0.00722704 0)
(7.36602 0.00678437 0)
(7.36794 0.00631103 0)
(7.3699 0.00580659 0)
(7.37189 0.00526927 0)
(7.37393 0.00469555 0)
(7.37601 0.00407981 0)
(7.37816 0.00341392 0)
(7.38037 0.0026869 0)
(7.38265 0.00188496 0)
(7.38501 0.000991875 0)
(7.38743 -1.00379e-05 0)
(7.38991 -0.00113851 0)
(7.39243 -0.0024055 0)
(7.33303 0.000758488 0)
(7.33338 0.00225287 0)
(7.33413 0.00363711 0)
(7.3352 0.00484735 0)
(7.33651 0.00585942 0)
(7.33799 0.00667025 0)
(7.3396 0.0072894 0)
(7.34128 0.00773622 0)
(7.34303 0.00803312 0)
(7.3448 0.00820164 0)
(7.34659 0.00826121 0)
(7.34839 0.00822852 0)
(7.3502 0.00811737 0)
(7.35201 0.00793891 0)
(7.35382 0.00770201 0)
(7.35564 0.00741367 0)
(7.35746 0.00707927 0)
(7.35929 0.00670289 0)
(7.36113 0.0062875 0)
(7.36298 0.00583504 0)
(7.36485 0.00534645 0)
(7.36674 0.0048217 0)
(7.36866 0.00425956 0)
(7.37061 0.00365753 0)
(7.37259 0.00301152 0)
(7.37463 0.00231565 0)
(7.37671 0.00156208 0)
(7.37884 0.000740915 0)
(7.38103 -0.000159621 0)
(7.38328 -0.00115266 0)
(7.38557 -0.0022518 0)
(7.3879 -0.00347015 0)
(7.39027 -0.00481537 0)
(7.33303 0.000664189 0)
(7.33335 0.00196866 0)
(7.33405 0.00317493 0)
(7.33504 0.00423198 0)
(7.33625 0.00511774 0)
(7.33764 0.00582753 0)
(7.33916 0.00636754 0)
(7.34076 0.0067523 0)
(7.34243 0.00699965 0)
(7.34413 0.00712741 0)
(7.34586 0.00715203 0)
(7.34761 0.00708795 0)
(7.34937 0.00694726 0)
(7.35113 0.00673985 0)
(7.3529 0.00647364 0)
(7.35468 0.00615483 0)
(7.35646 0.00578816 0)
(7.35825 0.0053771 0)
(7.36006 0.00492401 0)
(7.36187 0.00443025 0)
(7.3637 0.00389616 0)
(7.36555 0.00332107 0)
(7.36742 0.00270324 0)
(7.36932 0.00203968 0)
(7.37126 0.00132608 0)
(7.37323 0.00055666 0)
(7.37524 -0.000275853 0)
(7.37729 -0.00118015 0)
(7.37938 -0.00216609 0)
(7.38151 -0.00324416 0)
(7.38367 -0.0044248 0)
(7.38586 -0.00571772 0)
(7.38807 -0.00712761 0)
(7.33303 0.000573361 0)
(7.33333 0.00169731 0)
(7.33398 0.00273456 0)
(7.3349 0.00364358 0)
(7.33603 0.00440468 0)
(7.33733 0.00501213 0)
(7.33876 0.00546961 0)
(7.34029 0.00578783 0)
(7.34188 0.00598083 0)
(7.34352 0.00606317 0)
(7.34519 0.00604862 0)
(7.34688 0.00594946 0)
(7.34859 0.00577614 0)
(7.35031 0.00553728 0)
(7.35203 0.00523978 0)
(7.35377 0.00488904 0)
(7.35551 0.0044891 0)
(7.35726 0.00404282 0)
(7.35902 0.00355198 0)
(7.36079 0.00301739 0)
(7.36258 0.0024389 0)
(7.36438 0.00181537 0)
(7.3662 0.00114468 0)
(7.36805 0.000423624 0)
(7.36992 -0.000352113 0)
(7.37182 -0.00118799 0)
(7.37375 -0.00209054 0)
(7.37571 -0.00306725 0)
(7.37769 -0.00412625 0)
(7.37971 -0.00527587 0)
(7.38174 -0.00652406 0)
(7.38379 -0.00787803 0)
(7.38584 -0.00934043 0)
(7.33303 0.000486073 0)
(7.33331 0.00143773 0)
(7.33391 0.00231358 0)
(7.33477 0.00307925 0)
(7.33583 0.00371734 0)
(7.33705 0.0042216 0)
(7.3384 0.00459378 0)
(7.33986 0.00484167 0)
(7.34138 0.00497616 0)
(7.34295 0.00500896 0)
(7.34456 0.00495144 0)
(7.3462 0.00481389 0)
(7.34786 0.00460517 0)
(7.34953 0.00433264 0)
(7.35121 0.0040022 0)
(7.3529 0.00361839 0)
(7.3546 0.00318455 0)
(7.35631 0.00270294 0)
(7.35802 0.00217479 0)
(7.35975 0.00160044 0)
(7.36148 0.00097931 0)
(7.36324 0.00030993 0)
(7.365 -0.000410049 0)
(7.36678 -0.00118388 0)
(7.36859 -0.00201572 0)
(7.37041 -0.00291057 0)
(7.37225 -0.00387419 0)
(7.37411 -0.00491292 0)
(7.376 -0.00603339 0)
(7.37789 -0.00724214 0)
(7.3798 -0.00854523 0)
(7.3817 -0.00994801 0)
(7.38361 -0.0114517 0)
(7.33302 0.000402187 0)
(7.33329 0.00118881 0)
(7.33385 0.00190981 0)
(7.33465 0.00253633 0)
(7.33564 0.00305308 0)
(7.3368 0.00345367 0)
(7.33808 0.00373849 0)
(7.33946 0.003913 0)
(7.34092 0.00398552 0)
(7.34243 0.00396535 0)
(7.34399 0.00386169 0)
(7.34557 0.00368299 0)
(7.34718 0.00343662 0)
(7.3488 0.00312869 0)
(7.35044 0.00276408 0)
(7.35208 0.00234652 0)
(7.35373 0.00187865 0)
(7.35539 0.00136212 0)
(7.35706 0.000797671 0)
(7.35874 0.000185209 0)
(7.36042 -0.000476181 0)
(7.36211 -0.00118819 0)
(7.36382 -0.00195328 0)
(7.36553 -0.00277464 0)
(7.36726 -0.00365614 0)
(7.369 -0.00460229 0)
(7.37076 -0.00561807 0)
(7.37252 -0.00670877 0)
(7.37429 -0.00787976 0)
(7.37607 -0.00913615 0)
(7.37784 -0.0104825 0)
(7.37961 -0.0119228 0)
(7.38137 -0.0134572 0)
(7.33302 0.000321456 0)
(7.33327 0.000949455 0)
(7.33379 0.00152124 0)
(7.33455 0.00201229 0)
(7.33548 0.00240924 0)
(7.33657 0.00270582 0)
(7.33779 0.00290145 0)
(7.33911 0.00299985 0)
(7.34051 0.00300725 0)
(7.34196 0.0029309 0)
(7.34346 0.00277811 0)
(7.34499 0.00255567 0)
(7.34655 0.00226955 0)
(7.34812 0.00192467 0)
(7.34971 0.00152494 0)
(7.35131 0.00107325 0)
(7.35291 0.000571561 0)
(7.35452 2.09594e-05 0)
(7.35614 -0.000578282 0)
(7.35776 -0.00122664 0)
(7.35939 -0.00192529 0)
(7.36102 -0.0026761 0)
(7.36266 -0.00348151 0)
(7.3643 -0.0043446 0)
(7.36595 -0.00526892 0)
(7.36761 -0.00625844 0)
(7.36926 -0.00731743 0)
(7.37093 -0.00845026 0)
(7.37259 -0.00966123 0)
(7.37424 -0.0109543 0)
(7.37589 -0.0123329 0)
(7.37753 -0.0138 0)
(7.37915 -0.0153549 0)
(7.33302 0.000243591 0)
(7.33325 0.000718634 0)
(7.33375 0.00114611 0)
(7.33445 0.00150505 0)
(7.33534 0.00178384 0)
(7.33637 0.00197659 0)
(7.33753 0.0020821 0)
(7.33879 0.00210276 0)
(7.34013 0.0020431 0)
(7.34153 0.00190858 0)
(7.34297 0.00170483 0)
(7.34445 0.00143714 0)
(7.34596 0.00111012 0)
(7.34749 0.000727586 0)
(7.34903 0.000292493 0)
(7.35057 -0.000193054 0)
(7.35213 -0.000727753 0)
(7.35369 -0.00131105 0)
(7.35525 -0.0019431 0)
(7.35682 -0.0026247 0)
(7.35838 -0.00335723 0)
(7.35995 -0.00414263 0)
(7.36152 -0.00498333 0)
(7.36309 -0.00588219 0)
(7.36466 -0.00684243 0)
(7.36622 -0.00786752 0)
(7.36779 -0.00896107 0)
(7.36935 -0.0101267 0)
(7.3709 -0.0113677 0)
(7.37243 -0.0126873 0)
(7.37396 -0.0140878 0)
(7.37546 -0.0155716 0)
(7.37694 -0.0171374 0)
(7.33302 0.000168279 0)
(7.33324 0.000495295 0)
(7.3337 0.000782514 0)
(7.33437 0.00101184 0)
(7.33521 0.00117321 0)
(7.33619 0.00126129 0)
(7.3373 0.00127461 0)
(7.3385 0.00121469 0)
(7.33979 0.00108484 0)
(7.34114 0.000889083 0)
(7.34253 0.000631635 0)
(7.34396 0.000316467 0)
(7.34542 -5.30207e-05 0)
(7.3469 -0.000474094 0)
(7.34839 -0.000944726 0)
(7.34989 -0.00146359 0)
(7.35139 -0.00203002 0)
(7.3529 -0.00264402 0)
(7.35441 -0.00330614 0)
(7.35591 -0.00401747 0)
(7.35742 -0.00477958 0)
(7.35892 -0.00559447 0)
(7.36042 -0.0064645 0)
(7.36191 -0.00739235 0)
(7.36339 -0.00838089 0)
(7.36487 -0.00943314 0)
(7.36633 -0.0105521 0)
(7.36779 -0.0117408 0)
(7.36922 -0.0130018 0)
(7.37064 -0.0143375 0)
(7.37204 -0.0157497 0)
(7.37341 -0.0172399 0)
(7.37475 -0.0188067 0)
(7.33302 9.52505e-05 0)
(7.33322 0.000278748 0)
(7.33366 0.000429739 0)
(7.3343 0.000532736 0)
(7.33509 0.000579274 0)
(7.33603 0.000564714 0)
(7.33709 0.000487441 0)
(7.33825 0.000348135 0)
(7.33948 0.000148834 0)
(7.34078 -0.000107646 0)
(7.34213 -0.000418406 0)
(7.34351 -0.000780726 0)
(7.34493 -0.00119233 0)
(7.34636 -0.00165145 0)
(7.3478 -0.0021569 0)
(7.34925 -0.00270806 0)
(7.3507 -0.00330483 0)
(7.35215 -0.00394765 0)
(7.35361 -0.00463743 0)
(7.35505 -0.00537549 0)
(7.35649 -0.00616352 0)
(7.35792 -0.00700354 0)
(7.35935 -0.0078978 0)
(7.36076 -0.00884877 0)
(7.36216 -0.00985901 0)
(7.36354 -0.0109311 0)
(7.36491 -0.0120677 0)
(7.36626 -0.013271 0)
(7.36759 -0.0145431 0)
(7.36889 -0.0158859 0)
(7.37016 -0.0173007 0)
(7.37141 -0.0187883 0)
(7.37261 -0.0203472 0)
(7.33302 2.41318e-05 0)
(7.33321 6.73364e-05 0)
(7.33363 8.35919e-05 0)
(7.33423 5.92519e-05 0)
(7.33499 -1.25598e-05 0)
(7.33589 -0.00013521 0)
(7.33691 -0.000309611 0)
(7.33802 -0.000535013 0)
(7.33921 -0.000809843 0)
(7.34047 -0.00113213 0)
(7.34177 -0.00150001 0)
(7.34311 -0.00191195 0)
(7.34448 -0.00236677 0)
(7.34586 -0.00286376 0)
(7.34726 -0.00340265 0)
(7.34866 -0.00398362 0)
(7.35006 -0.00460726 0)
(7.35146 -0.00527455 0)
(7.35285 -0.00598679 0)
(7.35423 -0.00674561 0)
(7.35561 -0.00755284 0)
(7.35697 -0.00841056 0)
(7.35832 -0.00932096 0)
(7.35965 -0.0102863 0)
(7.36096 -0.011309 0)
(7.36225 -0.0123912 0)
(7.36352 -0.013535 0)
(7.36477 -0.0147424 0)
(7.36599 -0.016015 0)
(7.36717 -0.0173541 0)
(7.36833 -0.0187605 0)
(7.36944 -0.0202349 0)
(7.37052 -0.0217754 0)
(7.33302 -4.49489e-05 0)
(7.3332 -0.00013678 0)
(7.3336 -0.000248163 0)
(7.33417 -0.00039061 0)
(7.33489 -0.000569791 0)
(7.33575 -0.000788845 0)
(7.33673 -0.00104922 0)
(7.33781 -0.00135099 0)
(7.33896 -0.00169345 0)
(7.34018 -0.0020757 0)
(7.34145 -0.00249682 0)
(7.34275 -0.00295609 0)
(7.34407 -0.00345311 0)
(7.34541 -0.00398783 0)
(7.34676 -0.00456058 0)
(7.34812 -0.00517203 0)
(7.34947 -0.00582318 0)
(7.35081 -0.00651533 0)
(7.35215 -0.00725002 0)
(7.35347 -0.00802902 0)
(7.35478 -0.00885423 0)
(7.35607 -0.00972771 0)
(7.35734 -0.0106515 0)
(7.35859 -0.0116278 0)
(7.35982 -0.0126587 0)
(7.36102 -0.013746 0)
(7.36219 -0.0148916 0)
(7.36334 -0.0160971 0)
(7.36445 -0.0173636 0)
(7.36552 -0.0186922 0)
(7.36656 -0.0200834 0)
(7.36755 -0.0215375 0)
(7.3685 -0.0230527 0)
(7.33302 -0.000113327 0)
(7.33319 -0.000343553 0)
(7.33357 -0.000594416 0)
(7.33413 -0.000875533 0)
(7.33482 -0.00118834 0)
(7.33566 -0.00153154 0)
(7.3366 -0.00190346 0)
(7.33765 -0.00230275 0)
(7.33876 -0.00272865 0)
(7.33994 -0.00318107 0)
(7.34117 -0.00366041 0)
(7.34243 -0.00416749 0)
(7.34371 -0.00470345 0)
(7.34501 -0.00526968 0)
(7.34632 -0.00586774 0)
(7.34762 -0.00649938 0)
(7.34892 -0.00716645 0)
(7.35021 -0.00787093 0)
(7.35149 -0.00861486 0)
(7.35276 -0.00940035 0)
(7.354 -0.0102295 0)
(7.35522 -0.0111045 0)
(7.35642 -0.0120273 0)
(7.35759 -0.0130001 0)
(7.35873 -0.0140245 0)
(7.35984 -0.0151025 0)
(7.36092 -0.0162354 0)
(7.36196 -0.0174246 0)
(7.36296 -0.018671 0)
(7.36393 -0.0199752 0)
(7.36485 -0.0213375 0)
(7.36573 -0.0227581 0)
(7.36656 -0.0242349 0)
(7.33301 -0.000176598 0)
(7.33317 -0.000521786 0)
(7.33352 -0.000872068 0)
(7.33404 -0.0012394 0)
(7.33471 -0.00162917 0)
(7.33552 -0.00204375 0)
(7.33644 -0.00248372 0)
(7.33746 -0.00294849 0)
(7.33856 -0.00343722 0)
(7.33972 -0.00394936 0)
(7.34092 -0.00448486 0)
(7.34215 -0.00504414 0)
(7.34341 -0.00562807 0)
(7.34467 -0.00623791 0)
(7.34594 -0.0068752 0)
(7.3472 -0.00754171 0)
(7.34846 -0.0082394 0)
(7.3497 -0.00897033 0)
(7.35092 -0.00973666 0)
(7.35213 -0.0105405 0)
(7.3533 -0.0113842 0)
(7.35446 -0.0122697 0)
(7.35558 -0.013199 0)
(7.35667 -0.0141742 0)
(7.35773 -0.015197 0)
(7.35875 -0.0162688 0)
(7.35973 -0.0173912 0)
(7.36068 -0.0185651 0)
(7.36158 -0.0197913 0)
(7.36244 -0.0210703 0)
(7.36325 -0.0224024 0)
(7.36401 -0.0237875 0)
(7.36472 -0.0252236 0)
(7.33302 -0.000251051 0)
(7.33319 -0.000770412 0)
(7.33355 -0.00132103 0)
(7.33406 -0.00189871 0)
(7.33471 -0.00248851 0)
(7.3355 -0.00307879 0)
(7.33639 -0.00366422 0)
(7.33737 -0.00424391 0)
(7.33844 -0.00481968 0)
(7.33956 -0.0053949 0)
(7.34072 -0.00597369 0)
(7.34192 -0.00656038 0)
(7.34313 -0.00715927 0)
(7.34436 -0.00777441 0)
(7.34559 -0.00840959 0)
(7.3468 -0.00906832 0)
(7.34801 -0.00975385 0)
(7.3492 -0.0104692 0)
(7.35037 -0.0112171 0)
(7.35152 -0.0120001 0)
(7.35264 -0.0128207 0)
(7.35372 -0.013681 0)
(7.35477 -0.0145829 0)
(7.35579 -0.0155284 0)
(7.35677 -0.0165189 0)
(7.35771 -0.0175558 0)
(7.3586 -0.0186402 0)
(7.35945 -0.0197729 0)
(7.36025 -0.0209543 0)
(7.36101 -0.0221849 0)
(7.36171 -0.0234645 0)
(7.36237 -0.0247931 0)
(7.36297 -0.0261685 0)
(7.333 -0.000277479 0)
(7.3331 -0.0007895 0)
(7.33338 -0.00129137 0)
(7.33384 -0.00181908 0)
(7.33448 -0.00238385 0)
(7.33527 -0.00298278 0)
(7.33618 -0.00360797 0)
(7.33719 -0.00425125 0)
(7.33827 -0.00490652 0)
(7.33941 -0.00557016 0)
(7.34058 -0.00624066 0)
(7.34177 -0.00691814 0)
(7.34298 -0.00760389 0)
(7.34418 -0.00829999 0)
(7.34538 -0.00900902 0)
(7.34657 -0.00973382 0)
(7.34774 -0.0104773 0)
(7.34888 -0.0112425 0)
(7.35 -0.0120323 0)
(7.35109 -0.0128495 0)
(7.35214 -0.0136966 0)
(7.35316 -0.0145762 0)
(7.35414 -0.0154903 0)
(7.35508 -0.016441 0)
(7.35598 -0.01743 0)
(7.35683 -0.0184588 0)
(7.35763 -0.0195286 0)
(7.35839 -0.0206403 0)
(7.3591 -0.0217945 0)
(7.35975 -0.0229916 0)
(7.36035 -0.0242315 0)
(7.3609 -0.0255144 0)
(7.36139 -0.0268383 0)
(7.33305 -0.000445475 0)
(7.33328 -0.00140601 0)
(7.33363 -0.00242271 0)
(7.3341 -0.00343015 0)
(7.33468 -0.00437702 0)
(7.3354 -0.00524681 0)
(7.33623 -0.00604333 0)
(7.33716 -0.0067775 0)
(7.33818 -0.00746241 0)
(7.33926 -0.00811126 0)
(7.34038 -0.00873626 0)
(7.34154 -0.00934811 0)
(7.3427 -0.00995592 0)
(7.34387 -0.0105674 0)
(7.34504 -0.0111888 0)
(7.34619 -0.0118257 0)
(7.34732 -0.0124823 0)
(7.34843 -0.0131626 0)
(7.3495 -0.0138698 0)
(7.35054 -0.0146066 0)
(7.35155 -0.0153754 0)
(7.35251 -0.0161783 0)
(7.35343 -0.0170169 0)
(7.35431 -0.0178928 0)
(7.35514 -0.0188072 0)
(7.35591 -0.019761 0)
(7.35664 -0.020755 0)
(7.35732 -0.0217895 0)
(7.35794 -0.0228649 0)
(7.35851 -0.0239811 0)
(7.35901 -0.0251378 0)
(7.35947 -0.0263347 0)
(7.35986 -0.02757 0)
(7.33293 -0.000193731 0)
(7.33282 -0.000490181 0)
(7.33296 -0.000843984 0)
(7.3334 -0.00138354 0)
(7.33409 -0.00209712 0)
(7.33495 -0.00292544 0)
(7.33595 -0.00381538 0)
(7.33702 -0.00472981 0)
(7.33815 -0.00564537 0)
(7.33932 -0.00654855 0)
(7.3405 -0.00743287 0)
(7.34168 -0.00829672 0)
(7.34286 -0.00914162 0)
(7.34403 -0.0099709 0)
(7.34517 -0.0107889 0)
(7.34629 -0.0116003 0)
(7.34738 -0.0124101 0)
(7.34844 -0.0132228 0)
(7.34946 -0.0140428 0)
(7.35043 -0.0148744 0)
(7.35137 -0.015721 0)
(7.35226 -0.0165861 0)
(7.35311 -0.0174725 0)
(7.3539 -0.0183828 0)
(7.35465 -0.0193192 0)
(7.35534 -0.0202833 0)
(7.35598 -0.0212768 0)
(7.35656 -0.0223007 0)
(7.35709 -0.0233558 0)
(7.35756 -0.0244426 0)
(7.35797 -0.0255614 0)
(7.35832 -0.0267122 0)
(7.35861 -0.0278936 0)
(7.33316 -0.000891132 0)
(7.33361 -0.00295099 0)
(7.33391 -0.0049723 0)
(7.33415 -0.00669646 0)
(7.33453 -0.00807795 0)
(7.3351 -0.00917935 0)
(7.33584 -0.01007 0)
(7.33673 -0.010807 0)
(7.33772 -0.0114367 0)
(7.33879 -0.0119955 0)
(7.33991 -0.0125112 0)
(7.34105 -0.0130043 0)
(7.34221 -0.01349 0)
(7.34336 -0.0139792 0)
(7.34451 -0.0144801 0)
(7.34562 -0.0149985 0)
(7.34671 -0.0155389 0)
(7.34776 -0.0161044 0)
(7.34877 -0.0166975 0)
(7.34973 -0.0173202 0)
(7.35065 -0.0179738 0)
(7.35151 -0.0186595 0)
(7.35233 -0.0193782 0)
(7.35309 -0.0201305 0)
(7.35379 -0.0209169 0)
(7.35443 -0.0217377 0)
(7.35502 -0.0225929 0)
(7.35555 -0.0234825 0)
(7.35601 -0.0244064 0)
(7.35642 -0.0253641 0)
(7.35676 -0.0263552 0)
(7.35704 -0.0273791 0)
(7.35726 -0.0284342 0)
(7.33266 0.000508667 0)
(7.33187 0.00170888 0)
(7.33188 0.00229343 0)
(7.33257 0.0019216 0)
(7.33359 0.000907648 0)
(7.33475 -0.000428081 0)
(7.33597 -0.00189088 0)
(7.33721 -0.00337625 0)
(7.33845 -0.00482573 0)
(7.33968 -0.00620786 0)
(7.34088 -0.00751006 0)
(7.34206 -0.00873131 0)
(7.34321 -0.0098768 0)
(7.34433 -0.0109549 0)
(7.3454 -0.0119753 0)
(7.34644 -0.0129479 0)
(7.34744 -0.0138822 0)
(7.3484 -0.0147872 0)
(7.34931 -0.0156706 0)
(7.35018 -0.0165396 0)
(7.35099 -0.0174005 0)
(7.35176 -0.0182586 0)
(7.35247 -0.0191187 0)
(7.35313 -0.0199846 0)
(7.35373 -0.0208598 0)
(7.35428 -0.021747 0)
(7.35477 -0.0226487 0)
(7.3552 -0.0235666 0)
(7.35557 -0.0245021 0)
(7.35588 -0.0254565 0)
(7.35612 -0.0264303 0)
(7.35631 -0.027424 0)
(7.35643 -0.0284369 0)
(7.33352 -0.00204409 0)
(7.33441 -0.00691171 0)
(7.33399 -0.0114416 0)
(7.33325 -0.0142858 0)
(7.33302 -0.0159469 0)
(7.33331 -0.0169234 0)
(7.33396 -0.0174698 0)
(7.33487 -0.0177577 0)
(7.33594 -0.0179053 0)
(7.33711 -0.0179885 0)
(7.33835 -0.0180553 0)
(7.33961 -0.0181349 0)
(7.34087 -0.0182441 0)
(7.34211 -0.0183925 0)
(7.34331 -0.0185845 0)
(7.34448 -0.0188219 0)
(7.3456 -0.0191048 0)
(7.34667 -0.0194323 0)
(7.34769 -0.019803 0)
(7.34864 -0.0202154 0)
(7.34954 -0.0206679 0)
(7.35038 -0.021159 0)
(7.35115 -0.0216873 0)
(7.35186 -0.0222515 0)
(7.35251 -0.0228502 0)
(7.35309 -0.0234825 0)
(7.3536 -0.0241472 0)
(7.35405 -0.0248433 0)
(7.35444 -0.0255697 0)
(7.35476 -0.0263256 0)
(7.35501 -0.0271099 0)
(7.3552 -0.027922 0)
(7.35532 -0.0287599 0)
(7.33179 0.00338034 0)
(7.32901 0.00917413 0)
(7.32948 0.0117743 0)
(7.33178 0.0114677 0)
(7.33384 0.00934199 0)
(7.33556 0.00661317 0)
(7.3371 0.00378285 0)
(7.33849 0.00103692 0)
(7.33976 -0.00152389 0)
(7.34094 -0.00385743 0)
(7.34205 -0.00596101 0)
(7.34311 -0.00784994 0)
(7.34414 -0.00954661 0)
(7.34513 -0.0110757 0)
(7.34609 -0.0124616 0)
(7.34702 -0.0137267 0)
(7.34793 -0.0148912 0)
(7.3488 -0.0159728 0)
(7.34964 -0.0169865 0)
(7.35044 -0.0179457 0)
(7.35121 -0.0188613 0)
(7.35193 -0.0197428 0)
(7.3526 -0.0205983 0)
(7.35323 -0.0214344 0)
(7.35381 -0.022257 0)
(7.35434 -0.0230706 0)
(7.35481 -0.0238793 0)
(7.35523 -0.0246863 0)
(7.35559 -0.0254943 0)
(7.35589 -0.0263054 0)
(7.35613 -0.0271211 0)
(7.3563 -0.0279427 0)
(7.35642 -0.0287706 0)
(7.33408 -0.00614283 0)
(7.33403 -0.0190059 0)
(7.33025 -0.0270865 0)
(7.32657 -0.0306326 0)
(7.32497 -0.0314238 0)
(7.32518 -0.0310157 0)
(7.32621 -0.030078 0)
(7.32766 -0.0289326 0)
(7.32938 -0.0277777 0)
(7.33125 -0.0267171 0)
(7.33318 -0.025795 0)
(7.33511 -0.025026 0)
(7.33703 -0.0244089 0)
(7.33892 -0.023935 0)
(7.34074 -0.0235914 0)
(7.34251 -0.0233646 0)
(7.34421 -0.0232415 0)
(7.34584 -0.02321 0)
(7.3474 -0.0232591 0)
(7.34888 -0.0233794 0)
(7.35028 -0.0235627 0)
(7.35161 -0.0238021 0)
(7.35285 -0.0240914 0)
(7.35402 -0.0244258 0)
(7.35511 -0.0248008 0)
(7.35612 -0.0252128 0)
(7.35705 -0.0256587 0)
(7.35789 -0.0261357 0)
(7.35866 -0.0266414 0)
(7.35935 -0.0271739 0)
(7.35996 -0.0277314 0)
(7.36049 -0.0283125 0)
(7.36095 -0.0289151 0)
(7.32967 0.0198521 0)
(7.32497 0.0369818 0)
(7.3293 0.0376655 0)
(7.33509 0.0322437 0)
(7.33871 0.0258185 0)
(7.34086 0.019492 0)
(7.34265 0.0135734 0)
(7.34436 0.00826788 0)
(7.34608 0.00362151 0)
(7.34787 -0.000412174 0)
(7.34975 -0.00390219 0)
(7.35171 -0.00692 0)
(7.35373 -0.00953451 0)
(7.35581 -0.0118082 0)
(7.35791 -0.0137956 0)
(7.36001 -0.0155431 0)
(7.36211 -0.0170901 0)
(7.36418 -0.0184697 0)
(7.36621 -0.0197097 0)
(7.36819 -0.0208333 0)
(7.37012 -0.0218599 0)
(7.37197 -0.0228059 0)
(7.37375 -0.0236848 0)
(7.37544 -0.0245081 0)
(7.37706 -0.0252854 0)
(7.37859 -0.0260248 0)
(7.38002 -0.0267331 0)
(7.38137 -0.0274161 0)
(7.38262 -0.0280787 0)
(7.38378 -0.0287249 0)
(7.38484 -0.0293585 0)
(7.38581 -0.0299819 0)
(7.38668 -0.0305987 0)
(7.32507 -0.0330884 0)
(7.29737 -0.0587919 0)
(7.27805 -0.0617464 0)
(7.27374 -0.0593994 0)
(7.28035 -0.055926 0)
(7.2918 -0.0519019 0)
(7.30505 -0.0479769 0)
(7.31878 -0.0444862 0)
(7.33222 -0.0414795 0)
(7.34496 -0.0389391 0)
(7.35684 -0.036828 0)
(7.36781 -0.0350946 0)
(7.37786 -0.0336851 0)
(7.38705 -0.0325501 0)
(7.39543 -0.0316464 0)
(7.40305 -0.0309366 0)
(7.40997 -0.0303893 0)
(7.41624 -0.0299783 0)
(7.42193 -0.0296819 0)
(7.42708 -0.0294821 0)
(7.43172 -0.0293643 0)
(7.4359 -0.0293161 0)
(7.43966 -0.0293277 0)
(7.44302 -0.0293906 0)
(7.44602 -0.029498 0)
(7.44868 -0.029644 0)
(7.45103 -0.029824 0)
(7.45308 -0.0300337 0)
(7.45485 -0.0302698 0)
(7.45637 -0.0305291 0)
(7.45766 -0.0308091 0)
(7.45872 -0.0311072 0)
(7.45958 -0.0314205 0)