/*--------------------------------*- C++ -*----------------------------------*\
  =========                 |
  \\      /  F ield         | OpenFOAM: The Open Source CFD Toolbox
   \\    /   O peration     | Website:  https://openfoam.org
    \\  /    A nd           | Version:  10
     \\/     M anipulation  |
\*---------------------------------------------------------------------------*/
FoamFile
{
    format      ascii;
    class       volScalarField;
    location    "0.085";
    object      nut;
}
// * * * * * * * * * * * * * * * * * * * * * * * * * * * * * * * * * * * * * //

dimensions      [0 2 -1 0 0 0 0];

internalField   nonuniform List<scalar> 
6820
(
0.00050321
0.000397046
0.000324409
0.000269153
0.000236148
0.000213599
0.000196798
0.000183876
0.00017337
0.000164486
0.000156774
0.00014994
0.000143789
0.000138181
0.000133014
0.000128211
0.000123715
0.000119479
0.000115467
0.000111651
0.000108008
0.00010452
0.000101174
9.79609e-05
9.4876e-05
9.19196e-05
8.90932e-05
8.64182e-05
8.38851e-05
8.16017e-05
7.94236e-05
7.78233e-05
7.55057e-05
8.18606e-05
0.000143751
0.000196461
0.000210874
0.000206422
0.000197519
0.0001872
0.000177225
0.000168184
0.000160064
0.000152762
0.000146161
0.000140154
0.00013465
0.000129576
0.000124873
0.000120491
0.000116386
0.000112524
0.000108874
0.00010541
0.00010211
9.89545e-05
9.59264e-05
9.30108e-05
9.01934e-05
8.74625e-05
8.47992e-05
8.22017e-05
7.96024e-05
7.70213e-05
7.41618e-05
7.11778e-05
3.859e-05
2.73849e-05
4.3106e-05
7.45961e-05
9.60767e-05
0.000109507
0.000116814
0.000120164
0.000121134
0.000120627
0.000119204
0.000117216
0.000114887
0.000112361
0.000109734
0.000107065
0.000104396
0.000101755
9.91591e-05
9.66196e-05
9.41428e-05
9.17317e-05
8.93864e-05
8.71054e-05
8.4885e-05
8.27195e-05
8.06008e-05
7.85162e-05
7.64473e-05
7.43575e-05
7.21969e-05
6.9818e-05
6.72154e-05
1.99698e-05
2.35207e-05
2.20441e-05
1.27194e-05
2.91236e-06
1.2656e-05
2.33052e-05
3.21025e-05
3.92294e-05
4.49356e-05
4.94593e-05
5.30127e-05
5.57658e-05
5.78579e-05
5.9409e-05
6.05172e-05
6.12628e-05
6.17121e-05
6.19193e-05
6.1929e-05
6.17774e-05
6.14938e-05
6.11016e-05
6.06189e-05
6.00592e-05
5.94311e-05
5.87379e-05
5.79766e-05
5.71374e-05
5.61956e-05
5.51203e-05
5.38712e-05
5.2443e-05
1.32484e-05
1.50739e-05
1.99237e-05
2.2018e-05
2.14556e-05
1.94829e-05
1.68044e-05
1.37847e-05
1.06392e-05
7.49714e-06
4.44414e-06
1.57575e-06
1.38217e-06
3.87946e-06
6.23716e-06
8.40822e-06
1.03941e-05
1.22036e-05
1.38484e-05
1.53408e-05
1.66936e-05
1.79186e-05
1.90266e-05
2.00265e-05
2.09251e-05
2.17265e-05
2.24313e-05
2.30356e-05
2.3531e-05
2.39034e-05
2.414e-05
2.42418e-05
2.42554e-05
1.01959e-05
1.10144e-05
1.18352e-05
1.26393e-05
1.3285e-05
1.38423e-05
1.42529e-05
1.44794e-05
1.45314e-05
1.44283e-05
1.41895e-05
1.38361e-05
1.33854e-05
1.28526e-05
1.22553e-05
1.1609e-05
1.09265e-05
1.02191e-05
9.49582e-06
8.76398e-06
8.02957e-06
7.29753e-06
6.57213e-06
5.85739e-06
5.15742e-06
4.47704e-06
3.82166e-06
3.19808e-06
2.61279e-06
2.07139e-06
1.58424e-06
1.16513e-06
1.04065e-06
7.54169e-06
8.2485e-06
8.66483e-06
8.8945e-06
8.79053e-06
8.59138e-06
8.44039e-06
8.36832e-06
8.36811e-06
8.41475e-06
8.48085e-06
8.54729e-06
8.60569e-06
8.65209e-06
8.68257e-06
8.69543e-06
8.69057e-06
8.66873e-06
8.63116e-06
8.57948e-06
8.5155e-06
8.44124e-06
8.35885e-06
8.27066e-06
8.17915e-06
8.08698e-06
7.99676e-06
7.91069e-06
7.82975e-06
7.75002e-06
7.66614e-06
7.54339e-06
7.38248e-06
5.76029e-06
6.61278e-06
7.00145e-06
7.10663e-06
6.85027e-06
6.4865e-06
6.15585e-06
5.88259e-06
5.66529e-06
5.49501e-06
5.35995e-06
5.25051e-06
5.15975e-06
5.08289e-06
5.01689e-06
4.95961e-06
4.90936e-06
4.86494e-06
4.82561e-06
4.79108e-06
4.76142e-06
4.73707e-06
4.71873e-06
4.70734e-06
4.70394e-06
4.70955e-06
4.7248e-06
4.74926e-06
4.78105e-06
4.81343e-06
4.83903e-06
4.8307e-06
4.78665e-06
4.48728e-06
5.25308e-06
5.54139e-06
5.68722e-06
5.59954e-06
5.38731e-06
5.14048e-06
4.89291e-06
4.66372e-06
4.46079e-06
4.28245e-06
4.12444e-06
3.98298e-06
3.855e-06
3.73804e-06
3.63018e-06
3.53011e-06
3.43694e-06
3.35015e-06
3.26952e-06
3.19501e-06
3.12679e-06
3.06512e-06
3.01036e-06
2.96278e-06
2.92238e-06
2.88866e-06
2.85994e-06
2.83337e-06
2.80242e-06
2.76106e-06
2.6906e-06
2.59325e-06
3.5592e-06
4.24613e-06
4.51827e-06
4.67288e-06
4.63217e-06
4.46646e-06
4.26282e-06
4.05941e-06
3.87238e-06
3.70617e-06
3.55819e-06
3.42461e-06
3.30244e-06
3.18943e-06
3.08393e-06
2.9848e-06
2.89131e-06
2.80292e-06
2.71929e-06
2.64019e-06
2.5655e-06
2.49516e-06
2.4291e-06
2.36717e-06
2.30897e-06
2.25366e-06
2.19975e-06
2.14459e-06
2.08455e-06
2.0133e-06
1.9255e-06
1.8079e-06
1.66387e-06
2.86975e-06
3.47146e-06
3.72434e-06
3.86571e-06
3.85934e-06
3.74909e-06
3.5985e-06
3.43731e-06
3.27971e-06
3.13274e-06
2.99794e-06
2.87458e-06
2.76148e-06
2.65734e-06
2.56094e-06
2.47123e-06
2.38737e-06
2.30866e-06
2.23459e-06
2.16473e-06
2.09876e-06
2.03632e-06
1.97699e-06
1.92016e-06
1.86489e-06
1.80971e-06
1.75248e-06
1.69004e-06
1.61835e-06
1.53148e-06
1.4243e-06
1.28676e-06
1.12031e-06
2.34416e-06
2.86643e-06
3.11646e-06
3.2613e-06
3.28591e-06
3.21313e-06
3.09185e-06
2.95219e-06
2.81095e-06
2.67706e-06
2.55337e-06
2.43981e-06
2.33551e-06
2.23934e-06
2.15022e-06
2.0672e-06
1.98954e-06
1.91662e-06
1.84793e-06
1.78299e-06
1.72135e-06
1.66246e-06
1.60563e-06
1.54994e-06
1.4941e-06
1.43629e-06
1.3741e-06
1.30426e-06
1.22281e-06
1.12453e-06
1.00475e-06
8.56012e-07
6.77596e-07
1.9338e-06
2.38883e-06
2.63987e-06
2.78716e-06
2.83079e-06
2.78687e-06
2.69428e-06
2.58025e-06
2.46007e-06
2.34212e-06
2.22997e-06
2.12473e-06
2.02657e-06
1.93522e-06
1.85014e-06
1.77077e-06
1.69653e-06
1.62688e-06
1.56125e-06
1.4991e-06
1.4398e-06
1.38263e-06
1.32669e-06
1.27083e-06
1.21353e-06
1.15282e-06
1.08624e-06
1.01064e-06
9.22413e-07
8.17118e-07
6.90614e-07
5.37364e-07
3.5384e-07
1.6059e-06
2.00657e-06
2.26038e-06
2.41445e-06
2.47607e-06
2.45765e-06
2.389e-06
2.29439e-06
2.1889e-06
2.08168e-06
1.97754e-06
1.87867e-06
1.78587e-06
1.69923e-06
1.61843e-06
1.54299e-06
1.47238e-06
1.40605e-06
1.34341e-06
1.28386e-06
1.22669e-06
1.17109e-06
1.11607e-06
1.0604e-06
1.00256e-06
9.40689e-07
8.72573e-07
7.95649e-07
7.07216e-07
6.04559e-07
4.86229e-07
3.54312e-07
2.28584e-07
1.338e-06
1.69718e-06
1.95466e-06
2.11733e-06
2.19362e-06
2.19511e-06
2.14608e-06
2.06867e-06
1.9776e-06
1.88199e-06
1.78699e-06
1.69525e-06
1.60803e-06
1.5258e-06
1.4486e-06
1.3762e-06
1.30824e-06
1.24428e-06
1.1838e-06
1.12619e-06
1.07077e-06
1.01672e-06
9.63073e-07
9.087e-07
8.52295e-07
7.92405e-07
7.27535e-07
6.56362e-07
5.78303e-07
4.94664e-07
4.11857e-07
3.48604e-07
3.41992e-07
1.11447e-06
1.44402e-06
1.70575e-06
1.87826e-06
1.96825e-06
1.98747e-06
1.95624e-06
1.89435e-06
1.81585e-06
1.72989e-06
1.64212e-06
1.55583e-06
1.47286e-06
1.39412e-06
1.31994e-06
1.25028e-06
1.18491e-06
1.12345e-06
1.06542e-06
1.01027e-06
9.57344e-07
9.05922e-07
8.55204e-07
8.04338e-07
7.52481e-07
6.98926e-07
6.43359e-07
5.86336e-07
5.30198e-07
4.80597e-07
4.48471e-07
4.49875e-07
4.98235e-07
9.24173e-07
1.23491e-06
1.50186e-06
1.68483e-06
1.78763e-06
1.82229e-06
1.80649e-06
1.75821e-06
1.69104e-06
1.61419e-06
1.53362e-06
1.45307e-06
1.3747e-06
1.29974e-06
1.22874e-06
1.16186e-06
1.09904e-06
1.04003e-06
9.84459e-07
9.31903e-07
8.81867e-07
8.3383e-07
7.8728e-07
7.41787e-07
6.97117e-07
6.53432e-07
6.11609e-07
5.73712e-07
5.43586e-07
5.27267e-07
5.32458e-07
5.66468e-07
6.32761e-07
7.59095e-07
1.06105e-06
1.33454e-06
1.52812e-06
1.64317e-06
1.69188e-06
1.69024e-06
1.65468e-06
1.5982e-06
1.52997e-06
1.45618e-06
1.38093e-06
1.30678e-06
1.23528e-06
1.16729e-06
1.10319e-06
1.04309e-06
9.86884e-07
9.34367e-07
8.85245e-07
8.39205e-07
7.95958e-07
7.55306e-07
7.17238e-07
6.82058e-07
6.50552e-07
6.24214e-07
6.0544e-07
5.97597e-07
6.04748e-07
6.30865e-07
6.78929e-07
7.49585e-07
6.13535e-07
9.16354e-07
1.19788e-06
1.40194e-06
1.52867e-06
1.59026e-06
1.60151e-06
1.57756e-06
1.53087e-06
1.4706e-06
1.40315e-06
1.33292e-06
1.26281e-06
1.19466e-06
1.12955e-06
1.0681e-06
1.01056e-06
9.57024e-07
9.07415e-07
8.6162e-07
8.19521e-07
7.81061e-07
7.4631e-07
7.15556e-07
6.89397e-07
6.68784e-07
6.55182e-07
6.50537e-07
6.57129e-07
6.77254e-07
7.12815e-07
7.65072e-07
8.33774e-07
4.83844e-07
7.97198e-07
1.08806e-06
1.30215e-06
1.43995e-06
1.51349e-06
1.53676e-06
1.52386e-06
1.48667e-06
1.43433e-06
1.37339e-06
1.30849e-06
1.24282e-06
1.17845e-06
1.11672e-06
1.05844e-06
1.00406e-06
9.53806e-07
9.07777e-07
8.66004e-07
8.28527e-07
7.95446e-07
7.66982e-07
7.43518e-07
7.25624e-07
7.14214e-07
7.10415e-07
7.15501e-07
7.30772e-07
7.57399e-07
7.96293e-07
8.47952e-07
9.11737e-07
3.68852e-07
7.02069e-07
1.0027e-06
1.22602e-06
1.37405e-06
1.45855e-06
1.49275e-06
1.48976e-06
1.46118e-06
1.41587e-06
1.36051e-06
1.29998e-06
1.23774e-06
1.17611e-06
1.11666e-06
1.06043e-06
1.00804e-06
9.59877e-07
9.16166e-07
8.77062e-07
8.42706e-07
8.13276e-07
7.89038e-07
7.70349e-07
7.57671e-07
7.51727e-07
7.53219e-07
7.62899e-07
7.81518e-07
8.0969e-07
8.47614e-07
8.95452e-07
9.52442e-07
2.72568e-07
6.32102e-07
9.41138e-07
1.17241e-06
1.3298e-06
1.42457e-06
1.46922e-06
1.4761e-06
1.45639e-06
1.41871e-06
1.36983e-06
1.31477e-06
1.25715e-06
1.19953e-06
1.14364e-06
1.09064e-06
1.04129e-06
9.96091e-07
9.55361e-07
9.19336e-07
8.88214e-07
8.62201e-07
8.41534e-07
8.26527e-07
8.17581e-07
8.1502e-07
8.19241e-07
8.3065e-07
8.49639e-07
8.76493e-07
9.1105e-07
9.53265e-07
1.00235e-06
2.10716e-07
5.9008e-07
9.03507e-07
1.14063e-06
1.30585e-06
1.40939e-06
1.46284e-06
1.47789e-06
1.46482e-06
1.43246e-06
1.38763e-06
1.33551e-06
1.27992e-06
1.22366e-06
1.16866e-06
1.11628e-06
1.06741e-06
1.02267e-06
9.82465e-07
9.47079e-07
9.16721e-07
8.91576e-07
8.71823e-07
8.57668e-07
8.49358e-07
8.47048e-07
8.50955e-07
8.61216e-07
8.77823e-07
9.00725e-07
9.29949e-07
9.65318e-07
1.00603e-06
2.12331e-07
5.79529e-07
8.90998e-07
1.13194e-06
1.30431e-06
1.41671e-06
1.47972e-06
1.5042e-06
1.49995e-06
1.47551e-06
1.43756e-06
1.39127e-06
1.34056e-06
1.28828e-06
1.23649e-06
1.18665e-06
1.13977e-06
1.09655e-06
1.05747e-06
1.02287e-06
9.9297e-07
9.67967e-07
9.48004e-07
9.33202e-07
9.2365e-07
9.19457e-07
9.20684e-07
9.2735e-07
9.39368e-07
9.56535e-07
9.78711e-07
1.00569e-06
1.03674e-06
2.80308e-07
6.03486e-07
9.04963e-07
1.14605e-06
1.3225e-06
1.44029e-06
1.50864e-06
1.53759e-06
1.53683e-06
1.51464e-06
1.47786e-06
1.43187e-06
1.3808e-06
1.3277e-06
1.27479e-06
1.22362e-06
1.17529e-06
1.13053e-06
1.08983e-06
1.05351e-06
1.02179e-06
9.94786e-07
9.72589e-07
9.55239e-07
9.42741e-07
9.35084e-07
9.32204e-07
9.34014e-07
9.40416e-07
9.51262e-07
9.66235e-07
9.85148e-07
1.00735e-06
3.88373e-07
6.62343e-07
9.48432e-07
1.18882e-06
1.37107e-06
1.49795e-06
1.57694e-06
1.6169e-06
1.62656e-06
1.61364e-06
1.58465e-06
1.54484e-06
1.49834e-06
1.44829e-06
1.39706e-06
1.34639e-06
1.29751e-06
1.25133e-06
1.20845e-06
1.16929e-06
1.13412e-06
1.10312e-06
1.07636e-06
1.05388e-06
1.03568e-06
1.02171e-06
1.01188e-06
1.00606e-06
1.0041e-06
1.00582e-06
1.01097e-06
1.01938e-06
1.03046e-06
5.21626e-07
7.54375e-07
1.02032e-06
1.25411e-06
1.43424e-06
1.55991e-06
1.63734e-06
1.67515e-06
1.6822e-06
1.66647e-06
1.63465e-06
1.59212e-06
1.54304e-06
1.49054e-06
1.43692e-06
1.38383e-06
1.33245e-06
1.28357e-06
1.23774e-06
1.19532e-06
1.15653e-06
1.12147e-06
1.09021e-06
1.06275e-06
1.03904e-06
1.01902e-06
1.00258e-06
9.89622e-07
9.80002e-07
9.73568e-07
9.70116e-07
9.69547e-07
9.71259e-07
6.77424e-07
8.80709e-07
1.13052e-06
1.36529e-06
1.55624e-06
1.69769e-06
1.79251e-06
1.84693e-06
1.86821e-06
1.8635e-06
1.83928e-06
1.80108e-06
1.75342e-06
1.69991e-06
1.64329e-06
1.58566e-06
1.52853e-06
1.47298e-06
1.41975e-06
1.36934e-06
1.32206e-06
1.27807e-06
1.23746e-06
1.20022e-06
1.16631e-06
1.13567e-06
1.10819e-06
1.08375e-06
1.06223e-06
1.04348e-06
1.02736e-06
1.0138e-06
1.00222e-06
8.58817e-07
1.04049e-06
1.26751e-06
1.48467e-06
1.65873e-06
1.78323e-06
1.86231e-06
1.90361e-06
1.91509e-06
1.90382e-06
1.87574e-06
1.83565e-06
1.78732e-06
1.73369e-06
1.67699e-06
1.61891e-06
1.56073e-06
1.50338e-06
1.44753e-06
1.39367e-06
1.34212e-06
1.29309e-06
1.24668e-06
1.20296e-06
1.16192e-06
1.12354e-06
1.08778e-06
1.05458e-06
1.02388e-06
9.95623e-07
9.69711e-07
9.46222e-07
9.24446e-07
1.07191e-06
1.24452e-06
1.47216e-06
1.71261e-06
1.92345e-06
2.08674e-06
2.19903e-06
2.26449e-06
2.29036e-06
2.28469e-06
2.25513e-06
2.20832e-06
2.1497e-06
2.08351e-06
2.01296e-06
1.94039e-06
1.86749e-06
1.79542e-06
1.72494e-06
1.65656e-06
1.59058e-06
1.52714e-06
1.46631e-06
1.40809e-06
1.35244e-06
1.29929e-06
1.24858e-06
1.20023e-06
1.15418e-06
1.11038e-06
1.06876e-06
1.02939e-06
9.91538e-07
1.32788e-06
1.48892e-06
1.67531e-06
1.85889e-06
2.0103e-06
2.12368e-06
2.20206e-06
2.25019e-06
2.27225e-06
2.27198e-06
2.25297e-06
2.21865e-06
2.17221e-06
2.11653e-06
2.05414e-06
1.98717e-06
1.91738e-06
1.84619e-06
1.77466e-06
1.7036e-06
1.6336e-06
1.56502e-06
1.49813e-06
1.43307e-06
1.36991e-06
1.30867e-06
1.24935e-06
1.19195e-06
1.13648e-06
1.08294e-06
1.03132e-06
9.81848e-07
9.33411e-07
1.63903e-06
1.82187e-06
2.07476e-06
2.37002e-06
2.63199e-06
2.8228e-06
2.93976e-06
2.99432e-06
3.00025e-06
2.97038e-06
2.91546e-06
2.84372e-06
2.7611e-06
2.67183e-06
2.57879e-06
2.48395e-06
2.38864e-06
2.29378e-06
2.19996e-06
2.10761e-06
2.01699e-06
1.92828e-06
1.84158e-06
1.75693e-06
1.67434e-06
1.5938e-06
1.51532e-06
1.43888e-06
1.36449e-06
1.29218e-06
1.22197e-06
1.15403e-06
1.08733e-06
2.0358e-06
2.17614e-06
2.26564e-06
2.36449e-06
2.48003e-06
2.60233e-06
2.71714e-06
2.81164e-06
2.87713e-06
2.9103e-06
2.9123e-06
2.88686e-06
2.83884e-06
2.77322e-06
2.69455e-06
2.60673e-06
2.5129e-06
2.41549e-06
2.31636e-06
2.21682e-06
2.11781e-06
2.01995e-06
1.92365e-06
1.82914e-06
1.73653e-06
1.64589e-06
1.55723e-06
1.47059e-06
1.38605e-06
1.30373e-06
1.22376e-06
1.14665e-06
1.07082e-06
2.53812e-06
2.85516e-06
3.29598e-06
3.73996e-06
4.04141e-06
4.18854e-06
4.22741e-06
4.19811e-06
4.12662e-06
4.02978e-06
3.91757e-06
3.79542e-06
3.6664e-06
3.53256e-06
3.39548e-06
3.25652e-06
3.11695e-06
2.97794e-06
2.84047e-06
2.70538e-06
2.57331e-06
2.44469e-06
2.31983e-06
2.19886e-06
2.08181e-06
1.96864e-06
1.85927e-06
1.7536e-06
1.6516e-06
1.55329e-06
1.45884e-06
1.36869e-06
1.28175e-06
3.2433e-06
3.16082e-06
2.90851e-06
2.89378e-06
3.11115e-06
3.40976e-06
3.68211e-06
3.88086e-06
3.99595e-06
4.03864e-06
4.02826e-06
3.98373e-06
3.92028e-06
3.84886e-06
3.77638e-06
3.70664e-06
3.64124e-06
3.58043e-06
3.52372e-06
3.47031e-06
3.41934e-06
3.37003e-06
3.32172e-06
3.27387e-06
3.22609e-06
3.17808e-06
3.12963e-06
3.08063e-06
3.03115e-06
2.98143e-06
2.93199e-06
2.8846e-06
2.83735e-06
4.28238e-06
5.52869e-06
6.3078e-06
6.57584e-06
6.49636e-06
6.30001e-06
6.17305e-06
6.19546e-06
6.37229e-06
6.66557e-06
7.02384e-06
7.402e-06
7.76745e-06
8.09938e-06
8.3864e-06
8.62383e-06
8.81143e-06
8.95157e-06
9.04809e-06
9.1055e-06
9.12846e-06
9.12149e-06
9.08876e-06
9.034e-06
8.96047e-06
8.87088e-06
8.76754e-06
8.65209e-06
8.52617e-06
8.39039e-06
8.24684e-06
8.0963e-06
7.94201e-06
5.61045e-06
3.56569e-06
2.78003e-06
4.66482e-06
7.3848e-06
9.94611e-06
1.21175e-05
1.38367e-05
1.51178e-05
1.60042e-05
1.6544e-05
1.67865e-05
1.67801e-05
1.65702e-05
1.61977e-05
1.56986e-05
1.51042e-05
1.44408e-05
1.37304e-05
1.29906e-05
1.22356e-05
1.14765e-05
1.07215e-05
9.97705e-06
9.24734e-06
8.53517e-06
7.84211e-06
7.16815e-06
6.51331e-06
5.87384e-06
5.25278e-06
4.63632e-06
4.04782e-06
1.14287e-05
1.65183e-05
1.82912e-05
1.98069e-05
2.02833e-05
1.95444e-05
1.78132e-05
1.53626e-05
1.25423e-05
9.87499e-06
8.211e-06
8.4755e-06
1.04781e-05
1.32775e-05
1.62729e-05
1.92e-05
2.19457e-05
2.44633e-05
2.67376e-05
2.87702e-05
3.05711e-05
3.21551e-05
3.35391e-05
3.47403e-05
3.57758e-05
3.66621e-05
3.74146e-05
3.80481e-05
3.85776e-05
3.90178e-05
3.93888e-05
3.97087e-05
4.00277e-05
2.48623e-05
2.86327e-05
3.89625e-05
5.33694e-05
6.75892e-05
8.1461e-05
9.42533e-05
0.000105364
0.00011475
0.000122491
0.000128696
0.00013352
0.000137133
0.000139701
0.000141376
0.000142296
0.000142583
0.000142343
0.000141669
0.000140639
0.000139319
0.000137766
0.000136027
0.00013414
0.000132138
0.000130048
0.000127891
0.000125683
0.000123442
0.000121167
0.000118878
0.000116581
0.000114493
0.000543298
0.000510555
0.000491586
0.000467912
0.000443916
0.000421618
0.000400177
0.000379659
0.000360329
0.000342203
0.000325264
0.000309497
0.000294854
0.00028127
0.000268674
0.000256991
0.000246143
0.000236056
0.00022666
0.000217889
0.000209681
0.000201981
0.000194739
0.000187909
0.000181451
0.000175329
0.000169507
0.00016396
0.000158641
0.000153557
0.000148537
0.000144152
0.000140088
6.77828e-05
6.74738e-05
7.0375e-05
7.29214e-05
6.94617e-05
5.74862e-05
5.07965e-05
5.23429e-05
5.49764e-05
5.60094e-05
5.4542e-05
5.05646e-05
4.4478e-05
3.74283e-05
3.10123e-05
2.56099e-05
2.12957e-05
1.67447e-05
9.31647e-06
7.66002e-06
1.14546e-05
1.76162e-05
2.74626e-05
3.89198e-05
4.44866e-05
4.32464e-05
3.96806e-05
3.7113e-05
3.62082e-05
3.7417e-05
4.00406e-05
4.37411e-05
4.78468e-05
4.7503e-05
4.21765e-05
3.49813e-05
2.83699e-05
2.29927e-05
1.84284e-05
1.41997e-05
1.03102e-05
7.40574e-06
6.21523e-06
7.05674e-06
1.30145e-05
2.3368e-05
3.21384e-05
3.52184e-05
3.30929e-05
2.87617e-05
2.45461e-05
2.11381e-05
1.84066e-05
1.61277e-05
1.41659e-05
1.24476e-05
1.09272e-05
9.5732e-06
8.36273e-06
7.27807e-06
6.305e-06
5.43203e-06
4.65001e-06
3.95161e-06
3.33092e-06
2.78284e-06
2.30277e-06
1.88635e-06
1.52938e-06
1.22773e-06
9.77276e-07
7.73692e-07
6.12477e-07
4.88933e-07
3.98151e-07
3.34988e-07
2.94108e-07
2.70188e-07
2.58285e-07
2.54287e-07
2.55262e-07
2.59733e-07
2.6777e-07
2.80835e-07
3.01047e-07
3.2992e-07
3.67056e-07
4.09791e-07
4.54282e-07
4.97425e-07
5.38115e-07
5.75695e-07
6.07665e-07
6.28648e-07
6.355e-07
6.31012e-07
6.23755e-07
6.19357e-07
6.25002e-07
5.9937e-07
8.73984e-05
8.38366e-05
8.43421e-05
8.80982e-05
9.24896e-05
8.96558e-05
7.29474e-05
6.05903e-05
5.79898e-05
5.72503e-05
5.53619e-05
5.13646e-05
4.53112e-05
3.8256e-05
3.14984e-05
2.56351e-05
2.07759e-05
1.33581e-05
4.366e-06
6.1806e-06
1.13823e-05
1.84656e-05
3.01246e-05
4.11292e-05
4.43839e-05
4.17728e-05
3.81638e-05
3.59479e-05
3.51612e-05
3.59532e-05
3.84261e-05
4.15297e-05
4.57986e-05
4.74787e-05
4.37383e-05
3.67714e-05
2.95354e-05
2.33444e-05
1.81367e-05
1.34514e-05
9.09241e-06
5.13114e-06
2.38e-06
7.58923e-06
1.78683e-05
2.86274e-05
3.5138e-05
3.56951e-05
3.2291e-05
2.78493e-05
2.39498e-05
2.08281e-05
1.82733e-05
1.60999e-05
1.42054e-05
1.25313e-05
1.10395e-05
9.70215e-06
8.49861e-06
7.41279e-06
6.43223e-06
5.54738e-06
4.75095e-06
4.03725e-06
3.40162e-06
2.83987e-06
2.34801e-06
1.92211e-06
1.55816e-06
1.25206e-06
9.99385e-07
7.95315e-07
6.34725e-07
5.12285e-07
4.22535e-07
3.59945e-07
3.18979e-07
2.94294e-07
2.81072e-07
2.75443e-07
2.74818e-07
2.78083e-07
2.85573e-07
2.98752e-07
3.19437e-07
3.48657e-07
3.85592e-07
4.27349e-07
4.70084e-07
5.10992e-07
5.49696e-07
5.86603e-07
6.20019e-07
6.44527e-07
6.55802e-07
6.55215e-07
6.49507e-07
6.44472e-07
6.47878e-07
6.16458e-07
8.5741e-05
8.40871e-05
8.45809e-05
8.80421e-05
9.37542e-05
0.000100348
9.89575e-05
8.15815e-05
6.53628e-05
5.90158e-05
5.52297e-05
5.05647e-05
4.45501e-05
3.77256e-05
3.08556e-05
2.4637e-05
1.76191e-05
7.21973e-06
1.01236e-06
5.86356e-06
1.20666e-05
2.03637e-05
3.42321e-05
4.31804e-05
4.35691e-05
3.98941e-05
3.6495e-05
3.46209e-05
3.39702e-05
3.43701e-05
3.63503e-05
3.91141e-05
4.29755e-05
4.63734e-05
4.50948e-05
3.92901e-05
3.18335e-05
2.47929e-05
1.87112e-05
1.33227e-05
8.34853e-06
3.65885e-06
4.96549e-06
1.40204e-05
2.49923e-05
3.37302e-05
3.70633e-05
3.52909e-05
3.11e-05
2.68342e-05
2.33254e-05
2.0498e-05
1.81253e-05
1.6066e-05
1.42467e-05
1.26229e-05
1.11633e-05
9.84392e-06
8.64686e-06
7.55854e-06
6.56895e-06
5.67086e-06
4.85903e-06
4.1294e-06
3.47848e-06
2.90288e-06
2.39907e-06
1.9633e-06
1.59153e-06
1.27943e-06
1.02224e-06
8.14805e-07
6.51601e-07
5.26931e-07
4.35085e-07
3.70458e-07
3.27622e-07
3.01457e-07
2.87415e-07
2.81857e-07
2.82306e-07
2.87559e-07
2.97611e-07
3.13347e-07
3.35903e-07
3.6576e-07
4.01912e-07
4.41702e-07
4.81835e-07
5.20238e-07
5.57375e-07
5.94465e-07
6.30222e-07
6.58934e-07
6.75221e-07
6.79143e-07
6.75814e-07
6.71147e-07
6.73278e-07
6.3679e-07
6.80741e-05
6.86572e-05
7.10564e-05
7.57518e-05
8.22947e-05
9.00963e-05
9.82972e-05
9.84315e-05
8.33934e-05
6.59404e-05
5.63426e-05
5.01316e-05
4.34378e-05
3.60528e-05
2.86661e-05
2.12285e-05
1.23089e-05
5.07863e-06
2.93621e-06
8.85309e-06
1.24024e-05
2.51012e-05
3.9064e-05
4.3987e-05
4.16653e-05
3.76369e-05
3.47337e-05
3.31755e-05
3.26038e-05
3.28234e-05
3.42263e-05
3.6603e-05
3.97754e-05
4.39428e-05
4.55168e-05
4.22052e-05
3.56516e-05
2.83139e-05
2.15511e-05
1.57419e-05
1.12706e-05
9.84182e-06
1.44031e-05
2.33155e-05
3.22884e-05
3.74347e-05
3.74445e-05
3.39953e-05
2.96358e-05
2.58066e-05
2.27235e-05
2.01728e-05
1.79721e-05
1.60273e-05
1.42877e-05
1.27188e-05
1.12944e-05
9.99446e-06
8.80411e-06
7.71285e-06
6.71356e-06
5.8016e-06
4.97383e-06
4.2278e-06
3.56115e-06
2.97123e-06
2.455e-06
2.00897e-06
1.62924e-06
1.31144e-06
1.05067e-06
8.41346e-07
6.77455e-07
5.52779e-07
4.6115e-07
3.96632e-07
3.53625e-07
3.2699e-07
3.12268e-07
3.05964e-07
3.05766e-07
3.10605e-07
3.20513e-07
3.36257e-07
3.58719e-07
3.88087e-07
4.23135e-07
4.61108e-07
4.98741e-07
5.34191e-07
5.6853e-07
6.04015e-07
6.40325e-07
6.71899e-07
6.92486e-07
7.00887e-07
7.00655e-07
6.97187e-07
6.99297e-07
6.57678e-07
3.27314e-05
3.49325e-05
3.8893e-05
4.50423e-05
5.32733e-05
6.29521e-05
7.41011e-05
8.54869e-05
8.9122e-05
7.93248e-05
6.36972e-05
5.15951e-05
4.31442e-05
3.54746e-05
2.77783e-05
1.96877e-05
1.26506e-05
9.5536e-06
1.17633e-05
9.69977e-06
1.59519e-05
3.31672e-05
4.27492e-05
4.28598e-05
3.89068e-05
3.52394e-05
3.28937e-05
3.15608e-05
3.10029e-05
3.11328e-05
3.21097e-05
3.40389e-05
3.65602e-05
4.03249e-05
4.39346e-05
4.40068e-05
4.00431e-05
3.39384e-05
2.76538e-05
2.24647e-05
1.95581e-05
2.03922e-05
2.54563e-05
3.24468e-05
3.76859e-05
3.88333e-05
3.62761e-05
3.21123e-05
2.81054e-05
2.48224e-05
2.21367e-05
1.98368e-05
1.78029e-05
1.59768e-05
1.43226e-05
1.28132e-05
1.1427e-05
1.01479e-05
8.96487e-06
7.87083e-06
6.86186e-06
5.93597e-06
5.09214e-06
4.32951e-06
3.64683e-06
3.04226e-06
2.51326e-06
2.05664e-06
1.66857e-06
1.34458e-06
1.07944e-06
8.67195e-07
7.0137e-07
5.75281e-07
4.82393e-07
4.16586e-07
3.72274e-07
3.44478e-07
3.2897e-07
3.22469e-07
3.22785e-07
3.28807e-07
3.40322e-07
3.57661e-07
3.81188e-07
4.10652e-07
4.44602e-07
4.80311e-07
5.14756e-07
5.46552e-07
5.77547e-07
6.11104e-07
6.47872e-07
6.82502e-07
7.07895e-07
7.21409e-07
7.25075e-07
7.23638e-07
7.26669e-07
6.80502e-07
2.13076e-06
4.18241e-06
7.50902e-06
1.22079e-05
1.86243e-05
2.71361e-05
3.77473e-05
5.0594e-05
6.3942e-05
7.15997e-05
6.89129e-05
5.89204e-05
4.76674e-05
3.79867e-05
2.97696e-05
2.32783e-05
2.06389e-05
1.96211e-05
1.27219e-05
8.76703e-06
2.78127e-05
4.06701e-05
4.31944e-05
3.98521e-05
3.57754e-05
3.28695e-05
3.09974e-05
2.98299e-05
2.92811e-05
2.93679e-05
3.00996e-05
3.15729e-05
3.35687e-05
3.63629e-05
4.03044e-05
4.3155e-05
4.27915e-05
3.96025e-05
3.53257e-05
3.16808e-05
3.01376e-05
3.15029e-05
3.51431e-05
3.87095e-05
3.98025e-05
3.78158e-05
3.40079e-05
3.00195e-05
2.66503e-05
2.39038e-05
2.15659e-05
1.94943e-05
1.76239e-05
1.59195e-05
1.43549e-05
1.29083e-05
1.15624e-05
1.03056e-05
9.13053e-06
8.03411e-06
7.01562e-06
6.07578e-06
5.21565e-06
4.43597e-06
3.7367e-06
3.11684e-06
2.57443e-06
2.10666e-06
1.70985e-06
1.37952e-06
1.11026e-06
8.95768e-07
7.29077e-07
6.02959e-07
5.10391e-07
4.44903e-07
4.00738e-07
3.72908e-07
3.57262e-07
3.50622e-07
3.50876e-07
3.56926e-07
3.68485e-07
3.85724e-07
4.08797e-07
4.37258e-07
4.69526e-07
5.02812e-07
5.34087e-07
5.62118e-07
5.8931e-07
6.20135e-07
6.56375e-07
6.92979e-07
7.22287e-07
7.40505e-07
7.48348e-07
7.49508e-07
7.54532e-07
7.03923e-07
9.45612e-06
8.84988e-06
7.4704e-06
5.09081e-06
2.47465e-06
5.37424e-06
1.19126e-05
1.99495e-05
2.95156e-05
4.00363e-05
4.8193e-05
5.06035e-05
4.75243e-05
4.16719e-05
3.53662e-05
3.01342e-05
2.39088e-05
1.24562e-05
6.19407e-06
2.61518e-05
3.9397e-05
4.28997e-05
4.0114e-05
3.59619e-05
3.27817e-05
3.061e-05
2.90689e-05
2.8037e-05
2.75234e-05
2.75734e-05
2.81738e-05
2.93007e-05
3.08739e-05
3.28274e-05
3.58146e-05
3.95007e-05
4.196e-05
4.21627e-05
4.07618e-05
3.9134e-05
3.85262e-05
3.92479e-05
4.04201e-05
4.04783e-05
3.85389e-05
3.50919e-05
3.13245e-05
2.80372e-05
2.53405e-05
2.30466e-05
2.10033e-05
1.9143e-05
1.74347e-05
1.58555e-05
1.43842e-05
1.30034e-05
1.17002e-05
1.04671e-05
9.30125e-06
8.2032e-06
7.17556e-06
6.22172e-06
5.34491e-06
4.54757e-06
3.83094e-06
3.19498e-06
2.63843e-06
2.15887e-06
1.75282e-06
1.41575e-06
1.142e-06
9.24868e-07
7.56849e-07
6.30156e-07
5.37278e-07
4.71439e-07
4.26791e-07
3.98431e-07
3.82388e-07
3.75658e-07
3.76224e-07
3.82958e-07
3.9539e-07
4.13382e-07
4.36721e-07
4.64645e-07
4.95382e-07
5.26087e-07
5.53794e-07
5.77482e-07
6.00126e-07
6.2731e-07
6.62174e-07
7.00428e-07
7.33913e-07
7.57437e-07
7.70374e-07
7.75095e-07
7.83286e-07
7.29024e-07
6.20456e-06
5.90113e-06
5.11039e-06
3.63664e-06
1.35582e-06
2.32518e-06
6.88418e-06
1.22496e-05
1.72943e-05
2.10021e-05
2.36751e-05
2.58009e-05
2.64917e-05
2.48306e-05
2.09213e-05
1.43841e-05
6.40924e-06
1.5759e-05
3.04056e-05
3.99616e-05
4.21775e-05
3.94053e-05
3.54402e-05
3.23292e-05
3.01355e-05
2.84498e-05
2.7137e-05
2.62365e-05
2.5781e-05
2.57965e-05
2.6296e-05
2.71991e-05
2.84542e-05
2.99062e-05
3.18023e-05
3.46435e-05
3.78337e-05
4.01502e-05
4.11474e-05
4.13051e-05
4.12541e-05
4.10494e-05
4.01825e-05
3.81558e-05
3.51237e-05
3.18013e-05
2.88134e-05
2.6314e-05
2.41657e-05
2.22284e-05
2.04411e-05
1.87828e-05
1.72372e-05
1.57859e-05
1.44112e-05
1.30991e-05
1.18409e-05
1.06336e-05
9.47834e-06
8.37953e-06
7.343e-06
6.37493e-06
5.48081e-06
4.66493e-06
3.92995e-06
3.27694e-06
2.70535e-06
2.21326e-06
1.79742e-06
1.45327e-06
1.17498e-06
9.55477e-07
7.86723e-07
6.60318e-07
5.68178e-07
5.031e-07
4.59026e-07
4.31025e-07
4.15198e-07
4.08632e-07
4.09354e-07
4.16209e-07
4.28623e-07
4.46296e-07
4.68844e-07
4.95366e-07
5.24005e-07
5.51869e-07
5.7594e-07
5.95233e-07
6.13121e-07
6.36218e-07
6.69003e-07
7.0795e-07
7.4473e-07
7.73067e-07
7.91241e-07
8.00014e-07
8.1245e-07
7.54864e-07
3.23448e-06
2.92231e-06
2.4311e-06
1.96849e-06
2.30242e-06
3.9031e-06
6.65794e-06
1.07032e-05
1.58545e-05
2.09945e-05
2.4497e-05
2.55483e-05
2.4687e-05
2.32511e-05
2.27933e-05
2.50682e-05
3.04944e-05
3.67423e-05
4.0472e-05
4.027e-05
3.7354e-05
3.39517e-05
3.13077e-05
2.93697e-05
2.77594e-05
2.63571e-05
2.52308e-05
2.44564e-05
2.40569e-05
2.40406e-05
2.44344e-05
2.51821e-05
2.62144e-05
2.74142e-05
2.87046e-05
3.04134e-05
3.27475e-05
3.52082e-05
3.70895e-05
3.81204e-05
3.83382e-05
3.77047e-05
3.61578e-05
3.38702e-05
3.12904e-05
2.88547e-05
2.6723e-05
2.48294e-05
2.30775e-05
2.14277e-05
1.98747e-05
1.8414e-05
1.70319e-05
1.57112e-05
1.44361e-05
1.31958e-05
1.19856e-05
1.08063e-05
9.66329e-06
8.56452e-06
7.5192e-06
6.5364e-06
5.6241e-06
4.78856e-06
4.03407e-06
3.36286e-06
2.77523e-06
2.26977e-06
1.84347e-06
1.4918e-06
1.20874e-06
9.86777e-07
8.17308e-07
6.91238e-07
5.99844e-07
5.35467e-07
4.91845e-07
4.64055e-07
4.48333e-07
4.41909e-07
4.42895e-07
4.50117e-07
4.62871e-07
4.80642e-07
5.02792e-07
5.28195e-07
5.54838e-07
5.79741e-07
5.99821e-07
6.14092e-07
6.26227e-07
6.43861e-07
6.73241e-07
7.12179e-07
7.52274e-07
7.85907e-07
8.10234e-07
8.24075e-07
8.42107e-07
7.82194e-07
1.94017e-06
1.60927e-06
1.38558e-06
1.81261e-06
3.03782e-06
4.79021e-06
6.94788e-06
9.59045e-06
1.30097e-05
1.73949e-05
2.22662e-05
2.66138e-05
2.97868e-05
3.1918e-05
3.37324e-05
3.56422e-05
3.72104e-05
3.75342e-05
3.62164e-05
3.38825e-05
3.15423e-05
2.96975e-05
2.82164e-05
2.6841e-05
2.55135e-05
2.4323e-05
2.33672e-05
2.2701e-05
2.23418e-05
2.22982e-05
2.25954e-05
2.3212e-05
2.40768e-05
2.51205e-05
2.62043e-05
2.73263e-05
2.86853e-05
3.02899e-05
3.17917e-05
3.27841e-05
3.3072e-05
3.25744e-05
3.13995e-05
2.98263e-05
2.81516e-05
2.65336e-05
2.49876e-05
2.34872e-05
2.203e-05
2.0632e-05
1.9303e-05
1.80375e-05
1.68199e-05
1.56323e-05
1.44601e-05
1.32952e-05
1.21361e-05
1.09873e-05
9.85799e-06
8.75986e-06
7.70557e-06
6.70727e-06
5.77563e-06
4.91911e-06
4.14373e-06
3.45301e-06
2.84817e-06
2.32836e-06
1.89086e-06
1.5312e-06
1.24317e-06
1.01887e-06
8.49097e-07
7.24004e-07
6.34129e-07
5.71258e-07
5.28832e-07
5.01875e-07
4.86693e-07
4.80622e-07
4.81828e-07
4.89117e-07
5.01697e-07
5.18915e-07
5.39993e-07
5.63695e-07
5.87941e-07
6.09683e-07
6.25726e-07
6.34965e-07
6.41233e-07
6.53044e-07
6.78282e-07
7.16214e-07
7.58742e-07
7.97176e-07
8.27799e-07
8.47218e-07
8.72027e-07
8.10343e-07
1.18547e-06
8.43814e-07
8.79153e-07
1.70659e-06
3.03171e-06
4.71447e-06
6.69468e-06
8.92012e-06
1.1387e-05
1.42096e-05
1.75133e-05
2.11392e-05
2.46095e-05
2.74696e-05
2.95392e-05
3.07773e-05
3.10918e-05
3.0571e-05
2.96012e-05
2.85714e-05
2.76186e-05
2.66605e-05
2.56052e-05
2.44723e-05
2.33586e-05
2.23626e-05
2.15526e-05
2.09708e-05
2.06402e-05
2.05745e-05
2.07946e-05
2.12963e-05
2.20246e-05
2.29286e-05
2.39207e-05
2.48928e-05
2.58365e-05
2.67983e-05
2.77073e-05
2.83696e-05
2.8627e-05
2.84064e-05
2.77742e-05
2.68675e-05
2.58042e-05
2.46481e-05
2.34364e-05
2.22077e-05
2.10002e-05
1.98382e-05
1.87268e-05
1.76545e-05
1.66022e-05
1.55505e-05
1.4485e-05
1.33993e-05
1.22946e-05
1.11787e-05
1.00645e-05
8.96733e-06
7.90359e-06
6.88875e-06
5.93635e-06
5.05726e-06
4.25937e-06
3.54761e-06
2.92417e-06
2.38885e-06
1.93925e-06
1.57101e-06
1.27776e-06
1.05122e-06
8.81501e-07
7.579e-07
6.70091e-07
6.09202e-07
5.6834e-07
5.42469e-07
5.28003e-07
5.22415e-07
5.23965e-07
5.31461e-07
5.4403e-07
5.60871e-07
5.81028e-07
6.03104e-07
6.24896e-07
6.4325e-07
6.54814e-07
6.58272e-07
6.57449e-07
6.61707e-07
6.81107e-07
7.16932e-07
7.61607e-07
8.05142e-07
8.42935e-07
8.68979e-07
9.02102e-07
8.3985e-07
5.79842e-07
3.09839e-07
8.16799e-07
1.76003e-06
2.98611e-06
4.48011e-06
6.22429e-06
8.18266e-06
1.02974e-05
1.25156e-05
1.48273e-05
1.72295e-05
1.96195e-05
2.17846e-05
2.34793e-05
2.4608e-05
2.52333e-05
2.54924e-05
2.54798e-05
2.52265e-05
2.47356e-05
2.40277e-05
2.31651e-05
2.22339e-05
2.13179e-05
2.04856e-05
1.97912e-05
1.92764e-05
1.89692e-05
1.88864e-05
1.90471e-05
1.94536e-05
2.00676e-05
2.08467e-05
2.17353e-05
2.26544e-05
2.35218e-05
2.42959e-05
2.49485e-05
2.54313e-05
2.56641e-05
2.5601e-05
2.52487e-05
2.46509e-05
2.38634e-05