/*--------------------------------*- C++ -*----------------------------------*\
  =========                 |
  \\      /  F ield         | OpenFOAM: The Open Source CFD Toolbox
   \\    /   O peration     | Website:  https://openfoam.org
    \\  /    A nd           | Version:  10
     \\/     M anipulation  |
\*---------------------------------------------------------------------------*/
FoamFile
{
    format      ascii;
    class       volScalarField;
    location    "0.085";
    object      p;
}
// * * * * * * * * * * * * * * * * * * * * * * * * * * * * * * * * * * * * * //

dimensions      [0 2 -2 0 0 0 0];

internalField   nonuniform List<scalar> 
6820
(
7.90543
-6.42439
-8.4197
-8.59667
-8.74721
-8.68126
-8.64191
-8.65245
-8.6863
-8.73369
-8.78823
-8.8463
-8.90642
-8.96795
-9.0307
-9.09466
-9.15998
-9.22694
-9.29592
-9.36742
-9.44211
-9.52077
-9.60438
-9.69412
-9.79137
-9.89771
-10.0152
-10.1457
-10.2931
-10.4571
-10.6508
-10.8511
-11.1374
2.52732
-6.22214
-8.22533
-8.47569
-8.6781
-8.67559
-8.65744
-8.67427
-8.70822
-8.75276
-8.80405
-8.85924
-8.91698
-8.97666
-9.03799
-9.10089
-9.1654
-9.23171
-9.30015
-9.37117
-9.44539
-9.52356
-9.60662
-9.6957
-9.79215
-9.89752
-10.0137
-10.1428
-10.2878
-10.4492
-10.6361
-10.8342
-11.0857
0.446768
-5.01073
-7.43306
-8.02166
-8.39902
-8.53927
-8.58309
-8.62695
-8.67672
-8.73111
-8.78934
-8.84976
-8.91137
-8.97379
-9.03694
-9.10096
-9.16607
-9.23258
-9.30088
-9.37147
-9.44498
-9.52215
-9.60389
-9.69123
-9.78544
-9.88789
-10.0002
-10.124
-10.2615
-10.412
-10.579
-10.7463
-10.9082
-1.12092
-4.82794
-7.1369
-7.78428
-8.16341
-8.36723
-8.46151
-8.53756
-8.61051
-8.68013
-8.74819
-8.81548
-8.88236
-8.9491
-9.01588
-9.08294
-9.15059
-9.21919
-9.28915
-9.36096
-9.43518
-9.51249
-9.59367
-9.67961
-9.77129
-9.86975
-9.97608
-10.091
-10.2151
-10.3464
-10.4816
-10.604
-10.6874
-2.40604
-4.87207
-6.82964
-7.51064
-7.91853
-8.1887
-8.33745
-8.44471
-8.5379
-8.62145
-8.69957
-8.77466
-8.84752
-8.91892
-8.98954
-9.05981
-9.13009
-9.20079
-9.27231
-9.34512
-9.41972
-9.49668
-9.57658
-9.66005
-9.7477
-9.84005
-9.93738
-10.0394
-10.1448
-10.2499
-10.3473
-10.4212
-10.4409
-3.36342
-4.99479
-6.6453
-7.35753
-7.77514
-8.06776
-8.24286
-8.36696
-8.4726
-8.5661
-8.65181
-8.73297
-8.81104
-8.88685
-8.9611
-9.03439
-9.10722
-9.18002
-9.25321
-9.3272
-9.4024
-9.47921
-9.55801
-9.63912
-9.72272
-9.80873
-9.89666
-9.98518
-10.0717
-10.1512
-10.2152
-10.2499
-10.2312
-4.10859
-5.20641
-6.55727
-7.24006
-7.64433
-7.9459
-8.14539
-8.28921
-8.40924
-8.51369
-8.60749
-8.69471
-8.77746
-8.85694
-8.93417
-9.00989
-9.08467
-9.15896
-9.23315
-9.30761
-9.38265
-9.45855
-9.53551
-9.61356
-9.69257
-9.77201
-9.85083
-9.92707
-9.99743
-10.0567
-10.0964
-10.1056
-10.0659
-4.6921
-5.43573
-6.51889
-7.15526
-7.54842
-7.85254
-8.06702
-8.22372
-8.35304
-8.46502
-8.56491
-8.65703
-8.74387
-8.82686
-8.90704
-8.98523
-9.06198
-9.13777
-9.21298
-9.28791
-9.36282
-9.43786
-9.51305
-9.58825
-9.66302
-9.73656
-9.80743
-9.87338
-9.9309
-9.97496
-9.99812
-9.99158
-9.94209
-5.1549
-5.66686
-6.5281
-7.1052
-7.47825
-7.77355
-7.99369
-8.15935
-8.29664
-8.41584
-8.52193
-8.61914
-8.71017
-8.79662
-8.87963
-8.96007
-9.03858
-9.11564
-9.19162
-9.26678
-9.3413
-9.41523
-9.48848
-9.56073
-9.63137
-9.6994
-9.76322
-9.8205
-9.86788
-9.90087
-9.91336
-9.89871
-9.84766
-5.52678
-5.88572
-6.56565
-7.07704
-7.42632
-7.70975
-7.93148
-8.10339
-8.24659
-8.37116
-8.48201
-8.58325
-8.67769
-8.76703
-8.85247
-8.93492
-9.01501
-9.09322
-9.16988
-9.24522
-9.31935
-9.39225
-9.46372
-9.53334
-9.60039
-9.66377
-9.7219
-9.77253
-9.81267
-9.83857
-9.84545
-9.82857
-9.7818
-5.82901
-6.08595
-6.62195
-7.06855
-7.39188
-7.66019
-7.87829
-8.05245
-8.1991
-8.32754
-8.44234
-8.54721
-8.64486
-8.73699
-8.8248
-8.90918
-8.99077
-9.07004
-9.1473
-9.22275
-9.29645
-9.36833
-9.43811
-9.50534
-9.56925
-9.62876
-9.68237
-9.7281
-9.76342
-9.78537
-9.79044
-9.77547
-9.73676
-6.07709
-6.26522
-6.68846
-7.074
-7.36991
-7.62146
-7.83309
-8.00727
-8.15599
-8.28727
-8.40519
-8.51305
-8.61339
-8.7079
-8.79773
-8.88378
-8.96666
-9.04684
-9.1246
-9.20012
-9.27342
-9.34438
-9.41273
-9.47797
-9.53937
-9.59593
-9.64633
-9.68888
-9.72161
-9.74228
-9.74852
-9.73839
-9.70998
-6.2823
-6.42325
-6.75904
-7.08958
-7.35825
-7.59255
-7.79566
-7.96756
-8.11658
-8.24933
-8.36937
-8.47955
-8.58215
-8.67874
-8.77042
-8.858
-8.94211
-9.02315
-9.10141
-9.17701
-9.24999
-9.3202
-9.38736
-9.45101
-9.5105
-9.56495
-9.61325
-9.65408
-9.68596
-9.70736
-9.71678
-9.71328
-9.69618
-6.45295
-6.56097
-6.82936
-7.11174
-7.35409
-7.57116
-7.76449
-7.93255
-8.0807
-8.21405
-8.33556
-8.44759
-8.55208
-8.65047
-8.74375
-8.8327
-8.91789
-8.9997
-9.07839
-9.1541
-9.22682
-9.29644
-9.3627
-9.42519
-9.48337
-9.5365
-9.58372
-9.62407
-9.65652
-9.68012
-9.6941
-9.69818
-9.69257
-6.59519
-6.67978
-6.89637
-7.13753
-7.35529
-7.55575
-7.73882
-7.90196
-8.04821
-8.18129
-8.30354
-8.41683
-8.52279
-8.62265
-8.71732
-8.80748
-8.89365
-8.97618
-9.05532
-9.13119
-9.20379
-9.27303
-9.33869
-9.40045
-9.45786
-9.51038
-9.55738
-9.59822
-9.63227
-9.65904
-9.67831
-9.69028
-9.69569
-6.71359
-6.78121
-6.95802
-7.16451
-7.35985
-7.54467
-7.71743
-7.87497
-8.0186
-8.15081
-8.27328
-8.38743
-8.49456
-8.59568
-8.69157
-8.78282
-8.86988
-8.9531
-9.03269
-9.10876
-9.18135
-9.25038
-9.3157
-9.37708
-9.43419
-9.48667
-9.53411
-9.57614
-9.61246
-9.64295
-9.66776
-9.68741
-9.70295
-6.81159
-6.86672
-7.01296
-7.19071
-7.36607
-7.53649
-7.69933
-7.85101
-7.99158
-8.12245
-8.24473
-8.35938
-8.46738
-8.56953
-8.66646
-8.75868
-8.84658
-8.93046
-9.01051
-9.08687
-9.15958
-9.22862
-9.29388
-9.35522
-9.41246
-9.46537
-9.51375
-9.55746
-9.59646
-9.6309
-9.66117
-9.68797
-9.71247
-6.89176
-6.93757
-7.06031
-7.21453
-7.37243
-7.52989
-7.68346
-7.82932
-7.96661
-8.09588
-8.21768
-8.33259
-8.44125
-8.54427
-8.64212
-8.73522
-8.8239
-8.90841
-8.98895
-9.06565
-9.13857
-9.20773
-9.27312
-9.33466
-9.39229
-9.44592
-9.49553
-9.54115
-9.58294
-9.62122
-9.65654
-9.68968
-9.72183
-6.95602
-6.99482
-7.09949
-7.23465
-7.37764
-7.52368
-7.66885
-7.80921
-7.94327
-8.07086
-8.19205
-8.30708
-8.41629
-8.52007
-8.61878
-8.71272
-8.80217
-8.88735
-8.96843
-9.04556
-9.11883
-9.1883
-9.25401
-9.31599
-9.37426
-9.42886
-9.4799
-9.52754
-9.57208
-9.61396
-9.65379
-9.69237
-9.73083
-7.00577
-7.03926
-7.13009
-7.25003
-7.38052
-7.51676
-7.65457
-7.78996
-7.921
-8.04697
-8.16753
-8.2826
-8.39228
-8.49676
-8.59625
-8.69098
-8.78115
-8.86696
-8.94857
-9.02614
-9.09978
-9.16961
-9.23571
-9.29819
-9.35716
-9.41276
-9.46519
-9.51472
-9.56172
-9.60671
-9.65032
-9.69331
-9.73671
-7.04199
-7.07148
-7.15178
-7.25976
-7.38008
-7.50816
-7.63977
-7.77093
-7.89938
-8.024
-8.14411
-8.25934
-8.36957
-8.47481
-8.57516
-8.67075
-8.76173
-8.84827
-8.93052
-9.00864
-9.08279
-9.1531
-9.21974
-9.28287
-9.34263
-9.39927
-9.45307
-9.50434
-9.55352
-9.60115
-9.64783
-9.69425
-9.74133
-7.06528
-7.09179
-7.16422
-7.26305
-7.37536
-7.49693
-7.62358
-7.75134
-7.87775
-8.00136
-8.12123
-8.23673
-8.34755
-8.45357
-8.55474
-8.65114
-8.74288
-8.83008
-8.91291
-8.99154
-9.06613
-9.13687
-9.20395
-9.26758
-9.32802
-9.38552
-9.44042
-9.49307
-9.54387
-9.59349
-9.64239
-9.69124
-9.7408
-7.07595
-7.10032
-7.16706
-7.25918
-7.36555
-7.48231
-7.60536
-7.73077
-7.85595
-7.9792
-8.09932
-8.2155
-8.32726
-8.43433
-8.53658
-8.63402
-8.7267
-8.81475
-8.89832
-8.97758
-9.05274
-9.12401
-9.19162
-9.25583
-9.31692
-9.3752
-9.43101
-9.48478
-9.53697
-9.58792
-9.63831
-9.68867
-9.73961
-7.07398
-7.09691
-7.15981
-7.24739
-7.34975
-7.46333
-7.58414
-7.70824
-7.83294
-7.95635
-8.07708
-8.19416
-8.30698
-8.41514
-8.51847
-8.6169
-8.71045
-8.79924
-8.88343
-8.9632
-9.03877
-9.11039
-9.17833
-9.24287
-9.30433
-9.36304
-9.41938
-9.47374
-9.52655
-9.57825
-9.62936
-9.68036
-9.73179
-7.05908
-7.08118
-7.1419
-7.22698
-7.32731
-7.43956
-7.55978
-7.68404
-7.80951
-7.93415
-8.0564
-8.17517
-8.28969
-8.39952
-8.50439
-8.60418
-8.69893
-8.78872
-8.87373
-8.95416
-9.03026
-9.1023
-9.17057
-9.2354
-9.29713
-9.3561
-9.41269
-9.4673
-9.52034
-9.57223
-9.62339
-9.67424
-9.7252
-7.0306
-7.05243
-7.11248
-7.19692
-7.297
-7.40953
-7.53053
-7.65602
-7.78308
-7.90953
-8.03372
-8.15443
-8.27082
-8.38236
-8.48876
-8.58988
-8.68572
-8.77639
-8.86206
-8.94296
-9.01937
-9.09158
-9.15991
-9.22471
-9.28633
-9.34515
-9.40152
-9.45586
-9.50854
-9.55997
-9.61052
-9.66058
-9.71051
-6.98757
-7.00973
-7.07073
-7.15667
-7.2588
-7.37394
-7.49801
-7.62688
-7.75746
-7.88744
-8.01502
-8.13889
-8.25816
-8.37224
-8.48082
-8.58377
-8.68109
-8.77291
-8.85944
-8.94093
-9.01769
-9.09006
-9.15837
-9.223
-9.28433
-9.34272
-9.39856
-9.45224
-9.50411
-9.55454
-9.60386
-9.65241
-9.70042
-6.92854
-6.95155
-7.01492
-7.10408
-7.20987
-7.32901
-7.4573
-7.59044
-7.72522
-7.85923
-7.9906
-8.11794
-8.2403
-8.35707
-8.46793
-8.57273
-8.67151
-8.76442
-8.85169
-8.9336
-9.01051
-9.08277
-9.15076
-9.21488
-9.27552
-9.33307
-9.38792
-9.44043
-9.49098
-9.53992
-9.58755
-9.6342
-9.6801
-6.85167
-6.87642
-6.94451
-7.04008
-7.15315
-7.28008
-7.41627
-7.55705
-7.69897
-7.83948
-7.97663
-8.10899
-8.23563
-8.35597
-8.46972
-8.5768
-8.6773
-8.77142
-8.85946
-8.94175
-9.01869
-9.09068
-9.15813
-9.22146
-9.28109
-9.33743
-9.39086
-9.44176
-9.49048
-9.53733
-9.58262
-9.6266
-9.66945
-6.75406
-6.78088
-6.85485
-6.95799
-7.07907
-7.2143
-7.3589
-7.50787
-7.65755
-7.80526
-7.94892
-8.08704
-8.21864
-8.34314
-8.46029
-8.57003
-8.67251
-8.76801
-8.85685
-8.93947
-9.0163
-9.0878
-9.15444
-9.21667
-9.27494
-9.32968
-9.38129
-9.43017
-9.47667
-9.52113
-9.56383
-9.60509
-9.64506
-6.63284
-6.66414
-6.74941
-6.86709
-7.00351
-7.15403
-7.31307
-7.47505
-7.63614
-7.79367
-7.94563
-8.09064
-8.22786
-8.35685
-8.47746
-8.58978
-8.69405
-8.79064
-8.87999
-8.96257
-9.0389
-9.10949
-9.17485
-9.23548
-9.29186
-9.34444
-9.39364
-9.43985
-9.48345
-9.52474
-9.56402
-9.60154
-9.63742
-6.48142
-6.51562
-6.6109
-6.74116
-6.89095
-7.05591
-7.22987
-7.40636
-7.58104
-7.75091
-7.91374
-8.06804
-8.21299
-8.34823
-8.4737
-8.58965
-8.69644
-8.7946
-8.88469
-8.96731
-9.04308
-9.11261
-9.17649
-9.23527
-9.28949
-9.33963
-9.38616
-9.42949
-9.47001
-9.50808
-9.54401
-9.57813
-9.61061
-6.29773
-6.34483
-6.46721
-6.62778
-6.80546
-6.99536
-7.1909
-7.38553
-7.5753
-7.75767
-7.93075
-8.09336
-8.24493
-8.38529
-8.5146
-8.63322
-8.74167
-8.84058
-8.93063
-9.01252
-9.08696
-9.15462
-9.21616
-9.2722
-9.32331
-9.37003
-9.41285
-9.4522
-9.48851
-9.52212
-9.55335
-9.5825
-9.60975
-6.06006
-6.10623
-6.24231
-6.42322
-6.62565
-6.84411
-7.06871
-7.29041
-7.50439
-7.70768
-7.89819
-8.07489
-8.2375
-8.38625
-8.52164
-8.64442
-8.75545
-8.85562
-8.94587
-9.02711
-9.10019
-9.16593
-9.2251
-9.27838
-9.32643
-9.36981
-9.40906
-9.44465
-9.47701
-9.50658
-9.5337
-9.5588
-9.58212
-5.78661
-5.88059
-6.0847
-6.31902
-6.55905
-6.80744
-7.05628
-7.29757
-7.52799
-7.74527
-7.94759
-8.1341
-8.30463
-8.45948
-8.59926
-8.72483
-8.83719
-8.9374
-9.02655
-9.1057
-9.17587
-9.23801
-9.29301
-9.34165
-9.38466
-9.42268
-9.45628
-9.48598
-9.51224
-9.53547
-9.55607
-9.57444
-9.59094
-5.36718
-5.43517
-5.66998
-5.96149
-6.26889
-6.58518
-6.89369
-7.18456
-7.45508
-7.70363
-7.92951
-8.13329
-8.31611
-8.47934
-8.62452
-8.75321
-8.86694
-8.96721
-9.05539
-9.13279
-9.20059
-9.25989
-9.31165
-9.35674
-9.39592
-9.42987
-9.45916
-9.48432
-9.5058
-9.52405
-9.5395
-9.55275
-9.56433
-5.00656
-5.25913
-5.61529
-5.93391
-6.25333
-6.588
-6.91452
-7.22405
-7.51484
-7.78335
-8.02729
-8.24639
-8.4413
-8.61322
-8.76381
-8.89493
-9.00854
-9.10651
-9.19067
-9.26268
-9.32405
-9.37615
-9.42018
-9.45717
-9.48802
-9.51349
-9.53417
-9.55059
-9.56309
-9.57205
-9.57764
-9.58054
-9.58081
-3.95604
-4.22206
-4.83244
-5.37782
-5.87847
-6.35323
-6.77762
-7.15406
-7.48999
-7.78818
-8.05162
-8.28372
-8.48743
-8.6654
-8.82011
-8.95386
-9.0688
-9.16698
-9.25029
-9.3205
-9.37922
-9.42791
-9.46786
-9.5002
-9.5259
-9.54575
-9.56039
-9.57024
-9.5755
-9.57634
-9.57216
-9.56415
-9.54847
-4.00888
-4.56904
-5.01127
-5.37629
-5.85266
-6.34767
-6.81104
-7.2454
-7.6422
-7.99313
-8.29806
-8.55967
-8.78128
-8.96692
-9.12089
-9.24738
-9.35031
-9.43317
-9.4991
-9.5508
-9.5906
-9.62049
-9.64217
-9.65705
-9.66631
-9.67088
-9.67146
-9.66842
-9.6617
-9.65066
-9.63304
-9.60684
-9.56059
0.927555
-2.76415
-4.08993
-4.7601
-5.55844
-6.2345
-6.77655
-7.25055
-7.6639
-8.01795
-8.32043
-8.57739
-8.79377
-8.97449
-9.1242
-9.24713
-9.34711
-9.42755
-9.49146
-9.54147
-9.57983
-9.6085
-9.62914
-9.64317
-9.6518
-9.65601
-9.65673
-9.65451
-9.6503
-9.64369
-9.637
-9.62611
-9.62025
-11.308
-11.342
-10.6336
-9.14807
-7.22566
-5.44865
-4.25502
-4.08052
-5.19449
-7.7952
-11.9522
-17.5313
-24.0755
-30.7977
-36.8362
-41.5845
-44.6918
-45.8789
-44.9073
-41.8323
-36.9914
-30.7138
-23.4235
-16.0513
-9.70715
-4.88574
-1.44863
0.910575
2.40718
3.10672
2.97677
1.83015
-0.665351
-4.72875
-10.2162
-16.5976
-23.1894
-29.3862
-34.7006
-38.7306
-41.1508
-41.7904
-40.5845
-37.6915
-33.4247
-28.2499
-22.7684
-17.5795
-13.0858
-9.42323
-6.54341
-4.32774
-2.65117
-1.40232
-0.487293
0.170565
0.632403
0.946263
1.14949
1.27087
1.33249
1.35116
1.33969
1.30778
1.26276
1.21009
1.15375
1.09658
1.04048
0.986605
0.935531
0.887399
0.842037
0.799084
0.758088
0.718598
0.680234
0.642725
0.605936
0.569855
0.534568
0.500212
0.46693
0.434824
0.403935
0.374238
0.345635
0.317997
0.291102
0.26482
0.238795
0.213243
0.187344
0.16269
0.135903
0.114047
0.0821279
0.0709597
0.0163145
0.0505761
-11.2227
-11.0978
-10.3332
-8.83097
-6.86813
-5.01149
-3.83515
-3.72577
-4.87635
-7.46566
-11.5343
-16.9132
-23.1531
-29.5302
-35.2548
-39.7458
-42.6282
-43.6612
-42.664
-39.7181
-35.0743
-29.0184
-22.0748
-15.2267
-9.41753
-4.97594
-1.75458
0.488357
1.91608
2.57708
2.43553
1.34834
-0.938111
-4.62708
-9.63705
-15.5397
-21.7186
-27.5802
-32.6291
-36.4642
-38.7696
-39.3888
-38.2534
-35.5238
-31.5249
-26.7286
-21.6984
-16.9474
-12.8017
-9.37439
-6.63616
-4.49773
-2.85762
-1.62022
-0.701761
-0.032048
0.446008
0.77796
0.999663
1.13906
1.21774
1.25228
1.25538
1.23667
1.20345
1.1612
1.11394
1.06455
1.01501
0.966574
0.919941
0.875374
0.832837
0.7921
0.752838
0.714712
0.677431
0.640798
0.604727
0.569237
0.534433
0.500463
0.467472
0.435572
0.40481
0.375172
0.346569
0.318881
0.2919
0.265509
0.239368
0.213706
0.187708
0.162974
0.136108
0.114198
0.0822066
0.0710167
0.0162891
0.0505771
-10.9768
-10.7769
-9.95332
-8.45523
-6.59701
-4.87774
-3.7556
-3.63325
-4.85727
-7.43252
-11.3349
-16.4217
-22.2759
-28.2334
-33.576
-37.7518
-40.3816
-41.2683
-40.2801
-37.4732
-33.0134
-27.2023
-20.691
-14.442
-9.18564
-5.11751
-2.10993
0.0129174
1.36766
1.98806
1.84032
0.808862
-1.29197
-4.62909
-9.15841
-14.5447
-20.2564
-25.7335
-30.4826
-34.1029
-36.2849
-36.8788
-35.8244
-33.2883
-29.603
-25.2268
-20.6634
-16.3407
-12.5259
-9.3225
-6.72188
-4.66114
-3.05956
-1.83585
-0.915825
-0.235634
0.257726
0.607232
0.84716
1.00451
1.10035
1.15094
1.16881
1.16353
1.14236
1.11077
1.07279
1.03138
0.988572
0.945725
0.90365
0.862744
0.823109
0.784651
0.747173
0.71045
0.674288
0.638564
0.603244
0.568382
0.534101
0.500554
0.467892
0.436227
0.405614
0.376045
0.347445
0.319708
0.29264
0.266145
0.239897
0.214135
0.188051
0.163244
0.136307
0.114343
0.0822862
0.0710707
0.0162664
0.0505963
-10.6769
-10.3941
-9.58175
-8.22289
-6.55415
-4.99265
-4.00968
-3.98945
-5.17163
-7.67173
-11.382
-16.0977
-21.4674
-26.9227
-31.8211
-35.6333
-38.0042
-38.7702
-37.8165
-35.1239
-30.8207
-25.3083
-19.3353
-13.7343
-9.01782
-5.30325
-2.50424
-0.505062
0.773232
1.35211
1.20228
0.227329
-1.7066
-4.71894
-8.78239
-13.637
-18.8409
-23.8876
-28.3009
-31.6841
-33.7326
-34.303
-33.351
-31.048
-27.7203
-23.7886
-19.6856
-15.7664
-12.2592
-9.2668
-6.79981
-4.81733
-3.2564
-2.04866
-1.12901
-0.439797
0.067869
0.434317
0.692157
0.867374
0.980412
1.0472
1.08006
1.08844
1.07955
1.05884
1.03037
0.997126
0.961233
0.924144
0.886786
0.849686
0.813079
0.777009
0.741406
0.706158
0.671166
0.636383
0.601828
0.567593
0.533821
0.50068
0.468327
0.436883
0.406409
0.37691
0.348318
0.32054
0.293394
0.266798
0.240439
0.214571
0.188389
0.163499
0.136487
0.114465
0.0823509
0.0711086
0.0162364
0.0506208
-10.3681
-10.0531
-9.31717
-8.16455
-6.77185
-5.47935
-4.66413
-4.70366
-5.85389
-8.18437
-11.6308
-15.9617
-20.8089
-25.6922
-30.0742
-33.4937
-35.6342
-36.3029
-35.3287
-32.6627
-28.5131
-23.4069
-18.0669
-13.1192
-8.90805
-5.5243
-2.92944
-1.05695
0.142884
0.680579
0.531243
-0.383845
-2.16414
-4.88394
-8.51469
-12.8495
-17.5268
-22.107
-26.1488
-29.2702
-31.1768
-31.7326
-30.9097
-28.875
-25.9292
-22.4401
-18.7719
-15.2244
-12.0013
-9.20788
-6.87066
-4.96668
-3.44818
-2.25849
-1.34108
-0.644296
-0.123351
0.25939
0.534797
0.727756
0.858037
0.94116
0.989197
1.01146
1.01508
1.00547
0.986718
0.961839
0.93303
0.901843
0.86932
0.836123
0.802623
0.769003
0.735322
0.701586
0.667793
0.633974
0.600207
0.56662
0.533381
0.50067
0.468651
0.43745
0.407135
0.377717
0.349141
0.321325
0.294104
0.267408
0.240943
0.214971
0.188698
0.163726
0.136647
0.114569
0.0824069
0.071138
0.0162066
0.0506624
-10.127
-9.82187
-9.2133
-8.2935
-7.21975
-6.23124
-5.62536
-5.71593
-6.76989
-8.89359
-12.0162
-15.9272
-20.2789
-24.6234
-28.497
-31.5319
-33.4137
-33.8631
-32.7215
-30.0453
-26.158
-21.599
-16.936
-12.6022
-8.84856
-5.77211
-3.37646
-1.63197
-0.511341
-0.0131178
-0.160068
-1.01344
-2.64912
-5.10787
-8.34997
-12.2013
-16.3628
-20.4623
-24.1091
-26.9501
-28.7113
-29.2641
-28.5904
-26.8392
-24.2712
-21.1975
-17.9251
-14.714
-11.7518
-9.14589
-6.93463
-5.10918
-3.63471
-2.46507
-1.55172
-0.848853
-0.315692
0.0826525
0.375245
0.585799
0.73334
0.832922
0.896325
0.932686
0.949038
0.950756
0.941917
0.925585
0.904026
0.878889
0.851337
0.822161
0.791874
0.760794
0.72911
0.696945
0.664395
0.63157
0.598606
0.565673
0.532963
0.500672
0.468975
0.438007
0.407843
0.378506
0.349948
0.322102
0.294811
0.268021
0.241449
0.215372
0.189003
0.163943
0.136793
0.114654
0.0824494
0.0711523
0.0161709
0.0507106
-9.94969
-9.67113
-9.17482
-8.47178
-7.67888
-6.97946
-6.59964
-6.77781
-7.73222
-9.59494
-12.3487
-15.8134
-19.6714
-23.5138
-26.923
-29.5209
-30.9965
-31.1317
-29.866
-27.3478
-23.911
-19.982
-15.9634
-12.1739
-8.82844
-6.03832
-3.83666
-2.21988
-1.17818
-0.717469
-0.859908
-1.65114
-3.14863
-5.37155
-8.26943
-11.6876
-15.3726
-19.0092
-22.2617
-24.8189
-26.4362
-26.9916
-26.4672
-24.9859
-22.764
-20.0615
-17.1407
-14.2321
-11.51
-9.08136
-6.99232
-5.24515
-3.81604
-2.66827
-1.76077
-1.05327
-0.508967
-0.0957261
0.213651
0.441637
0.606445
0.722601
0.801552
0.852224
0.881528
0.894782
0.896056
0.888447
0.874292
0.855337
0.832864
0.807799
0.780795
0.75231
0.722665
0.692101
0.660817
0.629002
0.596854
0.564586
0.532418
0.500563
0.469205
0.438486
0.408489
0.379243
0.350713
0.322839
0.295481
0.268598
0.241922
0.215737
0.189272
0.164124
0.136909
0.114711
0.0824758
0.0711528
0.0161338
0.0507731
-9.82649
-9.58099
-9.17914
-8.6425
-8.06458
-7.59066
-7.39679
-7.66427
-8.55346
-10.1676
-12.5131
-15.467
-18.7707
-22.065
-24.9529
-27.0627
-28.174
-28.1574
-26.9993
-24.8385
-21.9346
-18.5992
-15.1384
-11.8183
-8.83806
-6.31558
-4.30155
-2.81065
-1.84682
-1.42178
-1.55745
-2.28706
-3.65252
-5.65908
-8.25082
-11.2874
-14.549
-17.7658
-20.6512
-22.9388
-24.4163
-24.9682
-24.5728
-23.326
-21.4034
-19.0232
-16.4123
-13.7764
-11.276
-9.01496
-7.04432
-5.37491
-3.99226
-2.86804
-1.96808
-1.25738
-0.703005
-0.275584
0.0501673
0.295413
0.477486
0.61033
0.705007
0.770199
0.812671
0.837667
0.849242
0.850523
0.843918
0.83127
0.813984
0.793122
0.76948
0.743656
0.716105
0.687186
0.657199
0.626416
0.595097
0.563499
0.531871
0.500445
0.469418
0.438941
0.409105
0.37995
0.35145
0.323555
0.296137
0.269166
0.242388
0.216097
0.189535
0.164294
0.137011
0.114747
0.0824879
0.0711371
0.0160927
0.0508406
-9.74185
-9.53476
-9.21787
-8.81667
-8.4063
-8.10145
-8.04077
-8.36512
-9.19362
-10.5964
-12.57
-15.0176
-17.7392
-20.4473
-22.8129
-24.5478
-25.4674
-25.4588
-24.5053
-22.7108
-20.2704
-17.4265
-14.4324
-11.5198
-8.86946
-6.59725
-4.76343
-3.39551
-2.508
-2.11702
-2.24388
-2.91274
-4.15258
-5.95895
-8.27492
-10.9737
-13.8635
-16.7109
-19.2697
-21.3121
-22.6551
-23.191
-22.8956
-21.8415
-20.1717
-18.0702
-15.7339
-13.3451
-11.0499
-8.94752
-7.09136
-5.49893
-4.16358
-3.06444
-2.17361
-1.46108
-0.897682
-0.456788
-0.115071
0.147263
0.346603
0.496249
0.606833
0.686754
0.742607
0.779546
0.801602
0.81193
0.813005
0.806773
0.794763
0.778174
0.757948
0.734825
0.709396
0.682142
0.653465
0.623723
0.593238
0.562314
0.531233
0.500243
0.469557
0.439332
0.40967
0.380615
0.352151
0.32424
0.296763
0.269704
0.242824
0.216423
0.189759
0.164423
0.137077
0.11475
0.082478
0.0711021
0.01605
0.0509177
-9.69115
-9.52405
-9.28241
-8.99236
-8.71499
-8.54067
-8.57761
-8.93452
-9.70076
-10.9246
-12.5941
-14.6246
-16.8562
-19.0666
-21.0113
-22.4602
-23.2333
-23.2275
-22.4333
-20.9265
-18.8555
-16.4161
-13.8208
-11.2677
-8.91676
-6.8777
-5.21565
-3.9669
-3.15357
-2.79499
-2.91152
-3.52096
-4.64182
-6.26273
-8.32785
-10.724
-13.2839
-15.8054
-18.0758
-19.8973
-21.112
-21.6215
-21.4008
-20.5047
-19.0499
-17.1921
-15.1011
-12.9372
-10.8324
-8.87996
-7.13426
-5.61776
-4.33034
-3.2576
-2.37738
-1.66433
-1.09292
-0.639236
-0.281944
-0.00267799
0.213943
0.380516
0.507192
0.602055
0.6715
0.720578
0.753286
0.772805
0.781679
0.781958
0.775299
0.763043
0.746281
0.725898
0.702622
0.677054
0.649703
0.621009
0.591363
0.561113
0.530572
0.500014
0.469661
0.439684
0.410191
0.381236
0.352812
0.324889
0.297362
0.270222
0.243244
0.216737
0.189974
0.164538
0.137126
0.114728
0.0824515
0.0710473
0.0160056
0.0509957
-9.66438
-9.5365
-9.36082
-9.1623
-8.99074
-8.91715
-9.02546
-9.39896
-10.1044
-11.1752
-12.5963
-14.2957
-16.1435
-17.9638
-19.561
-20.747
-21.3739
-21.3579
-20.6835
-19.4037
-17.6354
-15.5387
-13.2894
-11.0549
-8.97508
-7.15207
-5.65263
-4.51838
-3.77657
-3.44868
-3.55396
-4.1058
-5.11438
-6.56382
-8.40019
-10.5229
-12.7866
-15.0164
-17.0283
-18.6492
-19.743
-20.221
-20.0574
-19.2935
-18.0247
-16.3819
-14.5111
-12.5524
-10.6241
-8.81326
-7.1739
-5.73209
-4.49298
-3.4478
-2.57953
-1.86718
-1.2887
-0.822866
-0.450357
-0.154287
0.0796519
0.263296
0.406267
0.516291
0.599541
0.660947
0.704469
0.733307
0.750081
0.756947
0.755694
0.74781
0.734538
0.71691
0.695795
0.671918
0.645893
0.618247
0.589435
0.559857
0.529858
0.499732
0.469718
0.439994
0.410678
0.38183
0.35345
0.32552
0.297942
0.270718
0.243639
0.217018
0.19015
0.164609
0.137136
0.114666
0.0823986
0.0709671
0.0159606
0.0510764
-9.65693
-9.56574
-9.44666
-9.32242
-9.23361
-9.23603
-9.3944
-9.77192
-10.4179
-11.3544
-12.5657
-13.9906
-15.5232
-17.0223
-18.3283
-19.2938
-19.7985
-19.7679
-19.1849
-18.0907
-16.5781
-14.7756
-12.8275
-10.8751
-9.04
-7.41628
-6.0697
-5.04453
-4.37112
-4.07219
-4.16577
-4.66227
-5.56541
-6.85672
-8.48483
-10.3603
-12.357
-14.3237
-16.1017
-17.5404
-18.5216
-18.9653
-18.846
-18.1941
-17.0872
-15.635
-13.962
-12.1904
-10.4257
-8.74841
-7.21127
-5.84271
-4.65209
-3.63543
-2.78031
-2.06976
-1.48508
-1.00767
-0.620245
-0.307453
-0.0561196
0.144771
0.304258
0.429676
0.526947
0.600869
0.655354
0.693627
0.718382
0.731889
0.736076
0.732584
0.722809
0.70794
0.688984
0.666792
0.642085
0.615477
0.587491
0.558574
0.529105
0.499403
0.469719
0.440243
0.411101
0.382361
0.354031
0.326099
0.29848
0.271183
0.244011
0.21728
0.19031
0.16466
0.137124
0.114575
0.0823256
0.0708609
0.0159164
0.0511511
-9.66232
-9.60439
-9.53316
-9.46867
-9.44384
-9.50237
-9.69387
-10.0658
-10.6537
-11.4717
-12.5033
-13.6971
-14.9668
-16.1986
-17.2651
-18.0476
-18.447
-18.4012
-17.8945
-16.9573
-15.6618
-14.1116
-12.4256
-10.7224
-9.1078
-7.66702
-6.46313
-5.541
-4.93248
-4.66076
-4.74264
-5.18643
-5.99105
-7.13691
-8.57579
-10.2282
-11.9846
-13.7146
-15.2812
-16.5545
-17.4306
-17.8387
-17.7533
-17.1965
-16.2306
-14.9472
-13.452
-11.851
-10.2379
-8.68645
-7.24741
-5.95051
-4.80837
-3.821
-2.98007
-2.27232
-1.6822
-1.1937
-0.791584
-0.462086
-0.193224
0.0251323
0.201391
0.342453
0.45397
0.540589
0.606173
0.653975
0.686769
0.706946
0.716581
0.717475
0.711186
0.699057
0.682241
0.661716
0.638312
0.612727
0.585554
0.557288
0.528345
0.499062
0.469708
0.440483
0.411518
0.382888
0.35461
0.326676
0.299013
0.271636
0.244364
0.217515
0.190435
0.164668
0.13707
0.114437
0.0822227
0.0707211
0.0158741
0.0512191
-9.67681
-9.6482
-9.61668
-9.59946
-9.62307
-9.72161
-9.93281
-10.2919
-10.8241
-11.5372
-12.4152
-13.4146
-14.4651
-15.4754
-16.3436
-16.9738
-17.2855
-17.2272
-16.7838
-15.9778
-14.8664
-13.5329
-12.0748
-10.5918
-9.17534
-7.90165
-6.83003
-6.00449
-5.45705
-5.21076
-5.28122
-5.67512
-6.38829
-7.40077
-8.66803
-10.1195
-11.6601
-13.1776
-14.5537
-15.6768
-16.4556
-16.8276
-16.7679
-16.2915
-15.4486
-14.3147
-12.9793
-11.534
-10.0614
-8.62846
-7.28345
-6.05653
-4.96267
-4.0052
-3.17935
-2.47523
-1.8803
-1.38108
-0.964399
-0.618117
-0.331517
-0.0954135
0.0979156
0.254902
0.380898
0.480395
0.557203
0.614607
0.655472
0.68232
0.697382
0.702626
0.699779
0.690345
0.675625
0.656726
0.634586
0.609993
0.583604
0.555965
0.527526
0.498648
0.469613
0.440631
0.411842
0.383326
0.355106
0.327183
0.299488
0.272045
0.244684
0.217723
0.190537
0.164648
0.136988
0.114262
0.0820954
0.0705457
0.0158362
0.0512706
-9.69641
-9.69301
-9.69385
-9.71339
-9.77282
-9.89862
-10.1192
-10.4604
-10.9395
-11.56
-12.3066
-13.1425
-14.0106
-14.8371
-15.5411
-16.045
-16.2836
-16.2145
-15.8242
-15.1294
-14.1749
-13.0278
-11.7681
-10.4793
-9.24009
-8.11822
-7.1684
-6.43264
-5.94225
-5.71961
-5.77911
-6.12613
-6.75497
-7.64558
-8.75747
-10.0282
-11.3754
-12.7023
-13.9073
-14.8942
-15.5835
-15.9197
-15.8789
-15.4709
-14.7351
-13.7339
-12.5424
-11.2392
-9.89679
-8.57554
-7.32062
-6.16192
-5.11601
-4.18888
-3.3788
-2.679
-2.07975
-1.57004
-1.13878
-0.775511
-0.470859
-0.216646
-0.00588963
0.167333
0.308057
0.420607
0.508745
0.575798
0.624733
0.658218
0.678652
0.688181
0.688711
0.681911
0.669231
0.651911
0.630996
0.607363
0.581735
0.554706
0.52676
0.498277
0.469558
0.440816
0.412201
0.383797
0.355632
0.327712
0.299978
0.272458
0.244997
0.21791
0.190608
0.164587
0.136864
0.114033
0.0819356
0.0703256
0.0158051
0.0513019
-9.71817
-9.73589
-9.76249
-9.80988
-9.89483
-10.0378
-10.2599
-10.5797
-11.0088
-11.5475
-12.1814
-12.8797
-13.5957
-14.2701
-14.8384
-15.2381
-15.4166
-15.3393
-14.9942
-14.3935
-13.5729
-12.5862
-11.499
-10.3812
-9.30005
-8.3154
-7.47694
-6.82403
-6.3865
-6.18568
-6.23482
-6.53823
-7.0896
-7.86932
-8.84091
-9.9494
-11.1234
-12.2798
-13.3314
-14.1954
-14.8025
-15.104
-15.077
-14.727
-14.0849
-13.2014
-12.1397
-10.9664
-9.74481
-8.52884
-7.36023
-6.26799
-5.26959
-4.37307
-3.57932
-2.88433
-2.28105
-1.7609
-1.31487
-0.934269
-0.611118
-0.338328
-0.109711
0.0801094
0.235833
0.361613
0.461174
0.537895
0.594864
0.634911
0.660618
0.674322
0.678115
0.67384
0.663103
0.647275
0.627511
0.604774
0.579854
0.553393
0.525907
0.497796
0.469375
0.440867
0.412426
0.38414
0.356043
0.328144
0.300391
0.272812
0.245266
0.218063
0.19065
0.16449
0.136705
0.113756
0.081747
0.070055
0.0157847
0.0513001
-9.74008
-9.77503
-9.82162
-9.88946
-9.99167
-10.1439
-10.3617
-10.6581
-11.0405
-11.5069
-12.0444
-12.6268
-13.216
-13.7646
-14.221
-14.535
-14.6644
-14.581
-14.2745
-13.7541
-13.0479
-12.1993
-11.262
-10.2943
-9.35367
-8.49237
-7.75507
-7.17799
-6.78905
-6.60823
-6.64766
-6.91086
-7.39134
-8.0706
-8.91586
-9.87904
-10.8984
-11.9026
-12.8168
-13.5702
-14.1024
-14.3707
-14.3534
-14.0529
-13.4928
-12.7143
-11.7696
-10.7154
-9.60614
-8.48955
-7.4037
-6.37619
-5.42479
-4.55903
-3.78199
-3.09212
-2.48489
-1.95412
-1.49292
-1.09444
-0.752172
-0.460205
-0.213203
-0.00636905
0.164644
0.303825
0.414873
0.501243
0.566166
0.612657
0.6435
0.661238
0.668161
0.666291
0.657393
0.642972
0.624293
0.602402
0.578153
0.552233
0.525187
0.497436
0.469304
0.44102
0.412745
0.384569
0.356528
0.328635
0.300846
0.273192
0.245544
0.218208
0.19067
0.164353
0.136505
0.113419
0.0815244
0.069723
0.0157803
0.051256
-9.75968
-9.80826
-9.86979
-9.9519
-10.0648
-10.2202
-10.4294
-10.7015
-11.0405
-11.4433
-11.898
-12.3828
-12.8666
-13.3113
-13.6757
-13.9197
-14.0095
-13.9222
-13.6492
-13.1975
-12.5893
-11.8595
-11.0522
-10.2161
-9.39979
-8.64877
-8.00274
-7.49455
-7.14991
-6.98728
-7.01768
-7.24403
-7.66
-8.24855
-8.98046
-9.81374
-10.6952
-11.5638
-12.3555
-13.0096
-13.474
-13.7109
-13.7004
-13.4422
-12.9542
-12.2695
-11.431
-10.4861
-9.48146
-8.4589
-7.45256
-6.48815
-5.58325
-4.7483
-3.98816
-3.3035
-2.69216
-2.15032
-1.67329
-1.25611
-0.893908
-0.581994
-0.315957
-0.0916156
0.0950189
0.247779
0.370359
0.466318
0.539062
0.591814
0.627586
0.649145
0.658991
0.659338
0.652111
0.638952
0.621234
0.600088
0.576429
0.550986
0.524334
0.496908
0.469045
0.440977
0.412874
0.384819
0.356856
0.328997
0.301201
0.273496
0.245769
0.21831
0.190655
0.164175
0.136263
0.113019
0.0812689
0.0693181
0.0157994
0.0511501
-9.77681
-9.83576
-9.90797
-9.99934
-10.1177
-10.2717
-10.4696
-10.7171
-11.0162
-11.363
-11.7469
-12.1495
-12.5455
-12.9045
-13.1933
-13.3802
-13.4381
-13.3488
-13.105
-12.7121
-12.1878
-11.5603
-10.8657
-10.1444
-9.43763
-8.78466
-8.22041
-7.77433
-7.46975
-7.32349
-7.34552
-7.53831
-7.89588
-8.40282
-9.03326
-9.75078
-10.5097
-11.2577
-11.9405
-12.5058
-12.9089
-13.1167
-13.1108
-12.8891
-12.4649
-11.8643
-11.1222
-10.2781
-9.37146
-8.43817
-7.50845
-6.60575
-5.74685
-4.94271
-4.19952
-3.5199
-2.90399
-2.35031
-1.85644
-1.41947
-1.03623
-0.703401
-0.417544
-0.175126
0.0274848
0.193986
0.328105
0.433544
0.513921
0.572704
0.613159
0.638297
0.650845
0.653213
0.647495
0.635468
0.618612
0.598137
0.575014
0.55001
0.523724
0.496604
0.468993
0.441126
0.413176
0.385223
0.357313
0.329463
0.301635
0.273855
0.246025
0.218421
0.190629
0.163961
0.135981
0.112547
0.0809798
0.0688254
0.0158531
0.0509612
-9.78893
-9.85533
-9.93455
-10.0311
-10.1508
-10.3002
-10.4848
-10.7082
-10.9708
-11.2685
-11.5918
-11.9253
-12.2485
-12.5369
-12.7641
-12.9048
-12.9376
-12.8479
-12.6298
-12.2875
-11.8352
-11.2957
-10.6985
-10.0772
-9.46661
-8.90034
-8.40889
-8.01838
-7.74971
-7.61805
-7.63234
-7.79469
-8.09964
-8.53342
-9.07338
-9.68801
-10.3382
-10.9795
-11.5655
-12.0517
-12.3998
-12.5809
-12.5782
-12.3883
-12.0208
-11.496
-10.8421
-10.0914
-9.27682
-8.42872
-7.5732
-6.73106
-5.91785
-5.14447
-4.41811
-3.74313
-3.12182
-2.55512
-2.043
-1.58474
-1.17904
-0.824056
-0.5174
-0.256211
-0.0372101