/*--------------------------------*- C++ -*----------------------------------*\
  =========                 |
  \\      /  F ield         | OpenFOAM: The Open Source CFD Toolbox
   \\    /   O peration     | Website:  https://openfoam.org
    \\  /    A nd           | Version:  10
     \\/     M anipulation  |
\*---------------------------------------------------------------------------*/
FoamFile
{
    format      ascii;
    class       volScalarField;
    location    "100";
    object      nut;
}
// * * * * * * * * * * * * * * * * * * * * * * * * * * * * * * * * * * * * * //

dimensions      [0 2 -1 0 0 0 0];

internalField   nonuniform List<scalar> 
6820
(
0.000149811
0.000146298
0.000143078
0.00013985
0.000136611
0.000133451
0.000130462
0.000127699
0.000125194
0.000122953
0.000120972
0.000119235
0.000117725
0.000116423
0.000115311
0.00011437
0.000113581
0.000112929
0.000112399
0.000111977
0.000111651
0.00011141
0.000111246
0.000111148
0.000111109
0.000111121
0.000111175
0.000111282
0.000111352
0.000111825
0.000110424
0.000117313
9.3138e-05
0.000736674
0.000548092
0.000464589
0.000414453
0.00038076
0.000356945
0.000339525
0.000326381
0.000316171
0.00030803
0.000301384
0.000295843
0.000291145
0.000287107
0.000283593
0.000280499
0.000277743
0.000275267
0.000273031
0.000271006
0.000269164
0.000267481
0.000265932
0.000264497
0.000263161
0.000261917
0.00026076
0.000259684
0.000258676
0.000257774
0.000256852
0.000255879
0.000257058
0.000977664
0.000873825
0.000783708
0.000713329
0.000659089
0.00061668
0.000582782
0.000555067
0.00053194
0.000512303
0.000495381
0.000480618
0.000467607
0.000456041
0.000445682
0.000436337
0.000427857
0.000420125
0.000413048
0.000406551
0.000400568
0.000395036
0.000389905
0.000385131
0.00038068
0.000376527
0.00037265
0.000369027
0.000365631
0.000362456
0.000359467
0.000356507
0.000353909
0.0010135
0.000988678
0.000949906
0.00090625
0.000863776
0.000825064
0.000790704
0.00076044
0.000733753
0.000710101
0.000689004
0.000670059
0.000652939
0.000637377
0.000623152
0.000610083
0.000598024
0.000586853
0.000576471
0.000566795
0.000557751
0.000549274
0.000541308
0.000533807
0.000526733
0.000520054
0.000513742
0.000507772
0.000502116
0.000496753
0.000491656
0.000486793
0.000482128
0.00101667
0.00101251
0.00100235
0.00098632
0.000966171
0.000943913
0.000921117
0.000898773
0.000877416
0.000857281
0.000838435
0.000820849
0.000804455
0.000789162
0.000774877
0.00076151
0.000748975
0.000737199
0.000726113
0.000715658
0.000705778
0.000696423
0.000687551
0.000679124
0.00067111
0.00066348
0.000656209
0.000649274
0.000642651
0.000636323
0.000630266
0.00062447
0.000618906
0.00101674
0.0010159
0.00101373
0.00100941
0.00100265
0.000993635
0.000982861
0.000970893
0.000958241
0.000945304
0.000932373
0.000919642
0.000907238
0.000895234
0.000883672
0.000872567
0.000861921
0.000851725
0.000841965
0.000832625
0.000823684
0.000815122
0.000806918
0.000799053
0.00079151
0.000784273
0.000777324
0.000770651
0.000764237
0.000758071
0.00075214
0.000746436
0.000740944
0.00101671
0.00101621
0.00101554
0.00101439
0.00101245
0.00100952
0.00100553
0.00100054
0.000994687
0.000988141
0.000981081
0.000973668
0.000966038
0.000958301
0.000950544
0.000942833
0.000935216
0.000927729
0.000920399
0.000913241
0.000906268
0.000899486
0.000892897
0.000886502
0.000880299
0.000874287
0.000868463
0.000862821
0.000857358
0.00085207
0.000846952
0.000842
0.000837211
0.0010167
0.00101622
0.00101574
0.0010152
0.00101449
0.00101351
0.00101214
0.00101032
0.00100802
0.00100524
0.00100202
0.000998419
0.000994489
0.000990294
0.000985892
0.000981336
0.000976673
0.000971943
0.000967179
0.000962411
0.000957661
0.000952947
0.000948284
0.000943684
0.000939158
0.000934711
0.000930351
0.000926082
0.000921906
0.000917827
0.000913845
0.000909964
0.000906183
0.0010167
0.00101621
0.00101574
0.00101528
0.00101481
0.00101429
0.00101368
0.00101293
0.001012
0.00101087
0.00100952
0.00100794
0.00100614
0.00100413
0.00100194
0.000999581
0.000997076
0.00099445
0.000991725
0.000988922
0.000986057
0.000983149
0.000980212
0.000977258
0.0009743
0.000971347
0.000968409
0.000965493
0.000962606
0.000959753
0.000956938
0.000954167
0.000951442
0.0010167
0.00101621
0.00101574
0.00101528
0.00101484
0.0010144
0.00101395
0.00101348
0.00101297
0.0010124
0.00101175
0.00101101
0.00101017
0.00100923
0.00100819
0.00100704
0.00100579
0.00100444
0.00100301
0.00100151
0.000999934
0.000998301
0.000996618
0.000994892
0.000993133
0.000991347
0.000989542
0.000987725
0.0009859
0.000984073
0.000982249
0.000980432
0.000978628
0.0010167
0.00101621
0.00101574
0.00101528
0.00101484
0.00101441
0.00101398
0.00101357
0.00101315
0.00101273
0.00101229
0.00101183
0.00101135
0.00101082
0.00101026
0.00100965
0.001009
0.00100829
0.00100754
0.00100674
0.0010059
0.00100502
0.0010041
0.00100314
0.00100215
0.00100113
0.00100009
0.000999023
0.000997942
0.000996848
0.000995743
0.000994629
0.000993512
0.0010167
0.00101621
0.00101574
0.00101528
0.00101483
0.0010144
0.00101398
0.00101357
0.00101317
0.00101278
0.0010124
0.00101201
0.00101163
0.00101124
0.00101084
0.00101043
0.00101001
0.00100957
0.00100911
0.00100864
0.00100815
0.00100763
0.0010071
0.00100655
0.00100598
0.00100539
0.00100479
0.00100417
0.00100353
0.00100289
0.00100224
0.00100157
0.0010009
0.0010167
0.00101621
0.00101574
0.00101528
0.00101483
0.0010144
0.00101398
0.00101357
0.00101317
0.00101278
0.00101241
0.00101204
0.00101168
0.00101132
0.00101097
0.00101062
0.00101028
0.00100993
0.00100958
0.00100923
0.00100888
0.00100852
0.00100816
0.00100779
0.00100741
0.00100703
0.00100664
0.00100625
0.00100585
0.00100545
0.00100504
0.00100462
0.0010042
0.0010167
0.00101621
0.00101574
0.00101528
0.00101483
0.0010144
0.00101398
0.00101357
0.00101317
0.00101278
0.0010124
0.00101204
0.00101168
0.00101133
0.00101099
0.00101066
0.00101033
0.00101001
0.0010097
0.00100939
0.00100908
0.00100878
0.00100848
0.00100818
0.00100788
0.00100758
0.00100729
0.001007
0.0010067
0.00100641
0.00100611
0.00100582
0.00100552
0.0010167
0.00101621
0.00101574
0.00101528
0.00101483
0.0010144
0.00101398
0.00101357
0.00101317
0.00101278
0.0010124
0.00101203
0.00101168
0.00101133
0.00101099
0.00101066
0.00101034
0.00101002
0.00100972
0.00100942
0.00100912
0.00100884
0.00100856
0.00100828
0.00100801
0.00100774
0.00100748
0.00100722
0.00100697
0.00100672
0.00100647
0.00100623
0.00100599
0.0010167
0.00101621
0.00101574
0.00101528
0.00101483
0.0010144
0.00101397
0.00101356
0.00101316
0.00101278
0.0010124
0.00101203
0.00101167
0.00101132
0.00101098
0.00101065
0.00101033
0.00101002
0.00100971
0.00100942
0.00100913
0.00100884
0.00100857
0.0010083
0.00100804
0.00100778
0.00100753
0.00100728
0.00100704
0.00100681
0.00100658
0.00100635
0.00100613
0.0010167
0.00101621
0.00101574
0.00101528
0.00101483
0.0010144
0.00101397
0.00101356
0.00101316
0.00101277
0.0010124
0.00101203
0.00101167
0.00101132
0.00101098
0.00101065
0.00101033
0.00101002
0.00100971
0.00100941
0.00100912
0.00100884
0.00100857
0.0010083
0.00100804
0.00100778
0.00100753
0.00100729
0.00100705
0.00100682
0.00100659
0.00100637
0.00100616
0.0010167
0.00101621
0.00101574
0.00101528
0.00101483
0.00101439
0.00101397
0.00101356
0.00101316
0.00101277
0.00101239
0.00101203
0.00101167
0.00101132
0.00101098
0.00101065
0.00101033
0.00101001
0.00100971
0.00100941
0.00100912
0.00100884
0.00100856
0.00100829
0.00100803
0.00100777
0.00100753
0.00100728
0.00100705
0.00100682
0.00100659
0.00100637
0.00100616
0.0010167
0.00101621
0.00101574
0.00101528
0.00101483
0.00101439
0.00101397
0.00101356
0.00101316
0.00101277
0.00101239
0.00101202
0.00101167
0.00101132
0.00101098
0.00101064
0.00101032
0.00101001
0.0010097
0.0010094
0.00100911
0.00100883
0.00100856
0.00100829
0.00100803
0.00100777
0.00100752
0.00100728
0.00100704
0.00100681
0.00100659
0.00100637
0.00100615
0.0010167
0.00101621
0.00101574
0.00101528
0.00101483
0.00101439
0.00101397
0.00101356
0.00101316
0.00101277
0.00101239
0.00101202
0.00101166
0.00101131
0.00101097
0.00101064
0.00101032
0.00101001
0.0010097
0.0010094
0.00100911
0.00100883
0.00100855
0.00100828
0.00100802
0.00100776
0.00100751
0.00100727
0.00100703
0.0010068
0.00100658
0.00100636
0.00100614
0.0010167
0.00101621
0.00101574
0.00101528
0.00101483
0.00101439
0.00101397
0.00101356
0.00101316
0.00101277
0.00101239
0.00101202
0.00101166
0.00101131
0.00101097
0.00101064
0.00101032
0.00101
0.0010097
0.0010094
0.00100911
0.00100882
0.00100855
0.00100828
0.00100802
0.00100776
0.00100751
0.00100727
0.00100703
0.0010068
0.00100657
0.00100635
0.00100614
0.0010167
0.00101621
0.00101574
0.00101528
0.00101483
0.00101439
0.00101397
0.00101356
0.00101316
0.00101277
0.00101239
0.00101202
0.00101166
0.00101131
0.00101097
0.00101064
0.00101032
0.00101
0.00100969
0.00100939
0.0010091
0.00100882
0.00100854
0.00100827
0.00100801
0.00100775
0.0010075
0.00100726
0.00100702
0.00100679
0.00100657
0.00100635
0.00100613
0.0010167
0.00101621
0.00101574
0.00101528
0.00101483
0.00101439
0.00101397
0.00101356
0.00101316
0.00101277
0.00101239
0.00101202
0.00101166
0.00101131
0.00101097
0.00101064
0.00101031
0.00101
0.00100969
0.00100939
0.0010091
0.00100882
0.00100854
0.00100827
0.00100801
0.00100775
0.0010075
0.00100726
0.00100702
0.00100679
0.00100656
0.00100634
0.00100612
0.0010167
0.00101621
0.00101574
0.00101528
0.00101483
0.00101439
0.00101397
0.00101356
0.00101316
0.00101277
0.00101239
0.00101202
0.00101166
0.00101131
0.00101097
0.00101063
0.00101031
0.00101
0.00100969
0.00100939
0.0010091
0.00100881
0.00100854
0.00100827
0.001008
0.00100775
0.0010075
0.00100725
0.00100701
0.00100678
0.00100655
0.00100633
0.00100612
0.0010167
0.00101621
0.00101574
0.00101528
0.00101483
0.00101439
0.00101397
0.00101356
0.00101316
0.00101277
0.00101239
0.00101202
0.00101166
0.00101131
0.00101097
0.00101063
0.00101031
0.00100999
0.00100969
0.00100939
0.0010091
0.00100881
0.00100853
0.00100826
0.001008
0.00100774
0.00100749
0.00100725
0.00100701
0.00100678
0.00100655
0.00100633
0.00100611
0.0010167
0.00101621
0.00101574
0.00101528
0.00101483
0.00101439
0.00101397
0.00101356
0.00101316
0.00101277
0.00101239
0.00101202
0.00101166
0.00101131
0.00101096
0.00101063
0.00101031
0.00100999
0.00100969
0.00100939
0.00100909
0.00100881
0.00100853
0.00100826
0.001008
0.00100774
0.00100749
0.00100724
0.00100701
0.00100677
0.00100655
0.00100633
0.00100611
0.0010167
0.00101621
0.00101574
0.00101528
0.00101483
0.00101439
0.00101397
0.00101356
0.00101316
0.00101277
0.00101239
0.00101202
0.00101166
0.00101131
0.00101096
0.00101063
0.00101031
0.00100999
0.00100968
0.00100938
0.00100909
0.00100881
0.00100853
0.00100826
0.001008
0.00100774
0.00100749
0.00100724
0.001007
0.00100677
0.00100654
0.00100632
0.00100611
0.0010167
0.00101621
0.00101574
0.00101528
0.00101483
0.00101439
0.00101397
0.00101356
0.00101316
0.00101277
0.00101239
0.00101202
0.00101166
0.0010113
0.00101096
0.00101063
0.00101031
0.00100999
0.00100968
0.00100938
0.00100909
0.00100881
0.00100853
0.00100826
0.00100799
0.00100774
0.00100748
0.00100724
0.001007
0.00100677
0.00100654
0.00100632
0.0010061
0.0010167
0.00101621
0.00101574
0.00101528
0.00101483
0.00101439
0.00101397
0.00101356
0.00101316
0.00101277
0.00101239
0.00101202
0.00101166
0.0010113
0.00101096
0.00101063
0.00101031
0.00100999
0.00100968
0.00100938
0.00100909
0.0010088
0.00100853
0.00100826
0.00100799
0.00100773
0.00100748
0.00100724
0.001007
0.00100676
0.00100654
0.00100632
0.0010061
0.0010167
0.00101621
0.00101574
0.00101528
0.00101483
0.00101439
0.00101397
0.00101356
0.00101316
0.00101277
0.00101239
0.00101202
0.00101166
0.0010113
0.00101096
0.00101063
0.00101031
0.00100999
0.00100968
0.00100938
0.00100909
0.0010088
0.00100853
0.00100825
0.00100799
0.00100773
0.00100748
0.00100724
0.001007
0.00100676
0.00100653
0.00100631
0.0010061
0.0010167
0.00101621
0.00101574
0.00101528
0.00101483
0.00101439
0.00101397
0.00101356
0.00101316
0.00101277
0.00101239
0.00101202
0.00101166
0.0010113
0.00101096
0.00101063
0.00101031
0.00100999
0.00100968
0.00100938
0.00100909
0.0010088
0.00100852
0.00100825
0.00100799
0.00100773
0.00100748
0.00100723
0.00100699
0.00100676
0.00100653
0.0010063
0.00100609
0.0010167
0.00101621
0.00101574
0.00101528
0.00101483
0.00101439
0.00101397
0.00101356
0.00101316
0.00101277
0.00101239
0.00101202
0.00101166
0.00101131
0.00101096
0.00101063
0.00101031
0.00100999
0.00100968
0.00100938
0.00100908
0.0010088
0.00100852
0.00100824
0.00100797
0.00100771
0.00100746
0.00100721
0.00100696
0.00100672
0.00100649
0.00100626
0.00100603
0.0010167
0.00101621
0.00101574
0.00101528
0.00101483
0.00101439
0.00101397
0.00101356
0.00101316
0.00101277
0.00101239
0.00101202
0.00101165
0.0010113
0.00101096
0.00101062
0.00101029
0.00100997
0.00100965
0.00100934
0.00100904
0.00100874
0.00100845
0.00100816
0.00100787
0.00100759
0.00100731
0.00100704
0.00100677
0.0010065
0.00100624
0.00100598
0.00100572
0.0010167
0.00101621
0.00101574
0.00101528
0.00101483
0.00101439
0.00101397
0.00101356
0.00101315
0.00101276
0.00101237
0.00101199
0.00101162
0.00101125
0.00101088
0.00101051
0.00101015
0.00100978
0.00100942
0.00100905
0.00100869
0.00100832
0.00100795
0.00100758
0.00100721
0.00100683
0.00100645
0.00100607
0.00100569
0.0010053
0.00100491
0.00100452
0.00100413
0.0010167
0.00101621
0.00101574
0.00101527
0.00101482
0.00101438
0.00101394
0.0010135
0.00101305
0.0010126
0.00101213
0.00101165
0.00101115
0.00101063
0.00101009
0.00100953
0.00100894
0.00100833
0.0010077
0.00100704
0.00100636
0.00100566
0.00100494
0.0010042
0.00100344
0.00100266
0.00100187
0.00100106
0.00100024
0.000999408
0.000998565
0.000997714
0.000996855
0.0010167
0.00101621
0.00101571
0.0010152
0.00101464
0.00101403
0.00101334
0.00101257
0.00101169
0.0010107
0.0010096
0.00100839
0.00100708
0.00100566
0.00100415
0.00100254
0.00100085
0.000999078
0.000997238
0.000995337
0.00099338
0.000991376
0.000989332
0.000987253
0.000985148
0.00098302
0.000980875
0.000978719
0.000976556
0.000974391
0.000972227
0.000970068
0.000967917
0.00101669
0.00101596
0.00101486
0.00101329
0.0010112
0.00100858
0.00100546
0.00100187
0.000997856
0.000993464
0.000988746
0.000983755
0.000978539
0.000973145
0.000967614
0.000961983
0.000956286
0.000950551
0.000944806
0.000939072
0.000933368
0.00092771
0.00092211
0.00091658
0.000911129
0.000905765
0.000900493
0.00089532
0.000890249
0.000885283
0.000880421
0.000875666
0.000871016
0.00101524
0.00100707
0.000994978
0.000980672
0.000964857
0.000947987
0.000930444
0.000912574
0.000894671
0.000876964
0.000859615
0.000842738
0.000826407
0.000810669
0.000795544
0.00078104
0.00076715
0.000753864
0.000741161
0.000729022
0.000717423
0.000706338
0.000695744
0.000685619
0.000675938
0.000666679
0.00065782
0.000649339
0.000641215
0.00063343
0.000625966
0.000618808
0.000611938
0.000934351
0.000813404
0.000726818
0.000658769
0.000603052
0.000556659
0.000517694
0.000484679
0.000456423
0.000432006
0.00041072
0.000392016
0.000375464
0.000360723
0.000347523
0.000335643
0.000324904
0.000315158
0.00030628
0.000298166
0.000290731
0.0002839
0.000277607
0.000271798
0.000266422
0.000261439
0.000256811
0.000252505
0.000248494
0.000244751
0.000241253
0.000237981
0.000234913
0.000125479
0.000128845
0.000132087
0.000135185
0.000138141
0.000140961
0.00014365
0.000146213
0.000148656
0.000150983
0.000153198
0.000155305
0.000157309
0.000159213
0.000161023
0.000162741
0.000164372
0.00016592
0.000167388
0.000168781
0.000170101
0.000171353
0.000172539
0.000173662
0.000174726
0.000175734
0.000176688
0.000177592
0.000178449
0.000179259
0.000180027
0.000180753
0.00018144
9.53335e-05
0.000142934
0.000202495
0.000257622
0.000304
0.000343743
0.000379567
0.000413275
0.00044623
0.000479849
0.000515512
0.00055423
0.000596567
0.000642791
0.000692971
0.000746946
0.000804451
0.000865523
0.000930705
0.00100071
0.00107633
0.00115849
0.00124809
0.00134575
0.0014513
0.00156346
0.0016796
0.00179585
0.00190727
0.00200828
0.0020932
0.00215675
0.00219444
0.00220274
0.00217919
0.0021223
0.00203152
0.00190712
0.00175019
0.00156282
0.00134893
0.00111735
0.000888164
0.000696601
0.00058417
0.000582086
0.000700018
0.00091704
0.00119394
0.00149876
0.00180622
0.00209147
0.00233411
0.00252344
0.00265907
0.00274753
0.00279805
0.00281948
0.00281912
0.00280254
0.00277395
0.00273649
0.00269264
0.00264431
0.00259308
0.00254018
0.00248661
0.00243317
0.00238045
0.00232892
0.0022789
0.00223062
0.00218417
0.00213956
0.00209688
0.0020562
0.00201755
0.0019809
0.0019462
0.00191338
0.00188237
0.00185308
0.00182545
0.00179941
0.00177489
0.00175185
0.00173027
0.0017101
0.00169136
0.00167405
0.00165819
0.00164382
0.00163099
0.00161976
0.00161024
0.00160245
0.00159656
0.0015927
0.00158982
0.00159371
0.000249499
0.000211483
0.000179442
0.000169834
0.000175451
0.000189663
0.000209149
0.000232521
0.000259269
0.000289298
0.000322827
0.000360297
0.00040217
0.000448744
0.000499986
0.000555447
0.000614523
0.000676945
0.00074261
0.000811315
0.000883032
0.000958175
0.00103753
0.00112193
0.00121181
0.00130685
0.00140569
0.0015058
0.00160333
0.00169346
0.00177083
0.00183015
0.00186663
0.00187636
0.00185643
0.00180504
0.00172141
0.00160581
0.00145959
0.00128569
0.00109068
0.000889301
0.000709088
0.000586542
0.000553797
0.000626199
0.000790775
0.00101075
0.00125859
0.00152456
0.00179751
0.00205819
0.00228661
0.00246967
0.00260377
0.00269288
0.00274478
0.00276781
0.00276919
0.00275459
0.00272823
0.00269331
0.00265222
0.00260684
0.00255865
0.0025088
0.00245824
0.00240769
0.00235772
0.00230875
0.00226111
0.00221499
0.00217046
0.00212756
0.00208643
0.00204716
0.00200977
0.00197427
0.00194061
0.00190874
0.00187862
0.00185016
0.00182332
0.00179805
0.0017743
0.00175204
0.00173124
0.0017119
0.00169403
0.00167763
0.00166274
0.00164941
0.00163769
0.00162765
0.00161937
0.00161291
0.0016084
0.00160597
0.00160448
0.00161037
0.000351761
0.000344675
0.000323725
0.000292622
0.000261924
0.000237224
0.000219753
0.000208884
0.000203772
0.000203958
0.0002095
0.000220959
0.00023933
0.000265922
0.000301936
0.000347828
0.000402901
0.000465123
0.000531931
0.000601319
0.000672378
0.000745036
0.000819537
0.000896171
0.000975224
0.00105681
0.00114056
0.0012252
0.0013082
0.00138587
0.0014537
0.00150681
0.00154051
0.00155068
0.00153409
0.00148863
0.00141331
0.00130844
0.00117603
0.0010211
0.000854988
0.000699165
0.000584172
0.000540291
0.000586078
0.000716113
0.000896639
0.0010935
0.00129889
0.00151952
0.00175427
0.00198896
0.00220438
0.00238489
0.0025228
0.0026184
0.00267714
0.00270643
0.00271335
0.00270373
0.00268202
0.00265154
0.00261477
0.00257358
0.00252944
0.00248346
0.00243655
0.00238941
0.00234258
0.00229649
0.00225144
0.00220763
0.00216511
0.00212398
0.00208443
0.00204654
0.00201037
0.00197594
0.00194324
0.00191224
0.00188289
0.00185516
0.001829
0.00180439
0.00178128
0.00175967
0.00173953
0.00172088
0.00170372
0.00168808
0.001674
0.00166152
0.0016507
0.0016416
0.00163433
0.0016289
0.00162545
0.0016241
0.00162363
0.00163092
0.000477225
0.000471749
0.000463907
0.00045154
0.000434356
0.000413435
0.000390667
0.000367812
0.000345911
0.000325311
0.000306003
0.000288161
0.000272451
0.000259874
0.00025255
0.000253924
0.00026629
0.000292024
0.000332334
0.000386053
0.000449745
0.00051913
0.000590776
0.000662902
0.000735076
0.000807402
0.000879842
0.000951778
0.00102167
0.00108701
0.00114443
0.00118994
0.00121934
0.00122866
0.00121463
0.00117503
0.00110898
0.00101745
0.000904381
0.000778874
0.000657973
0.000566342
0.000530032
0.000567069
0.000676865
0.000833428
0.0010011
0.00116208
0.00132249
0.00149678
0.00169065
0.00189575
0.00209545
0.00227292
0.00241664
0.00252245
0.00259243
0.00263218
0.00264825
0.00264655
0.00263182
0.00260766
0.00257671
0.00254095
0.00250188
0.00246063
0.0024181
0.00237498
0.00233182
0.00228905
0.00224698
0.00220578
0.00216553
0.0021264
0.00208859
0.00205222
0.00201738
0.0019841
0.0019524
0.00192228
0.00189371
0.00186669
0.00184119
0.00181719
0.00179467
0.00177364
0.00175408
0.00173602
0.00171947
0.00170446
0.00169103
0.00167923
0.00166913
0.00166078
0.00165426
0.00164961
0.00164695
0.00164636
0.0016466
0.00165479
0.000612756
0.000606026
0.000599204
0.00059179
0.000583237
0.00057314
0.0005614
0.000548163
0.00053358
0.000517585
0.000499798
0.000479938
0.000457443
0.000430709
0.000403217
0.000377992
0.00035399
0.000331145
0.000312923
0.000305791
0.000315189
0.000342573
0.000385594
0.000439779
0.000500317
0.000563331
0.000626271
0.00068743
0.00074567
0.000799534
0.000846766
0.000884332
0.000908781
0.000916729
0.000905386
0.000873105
0.000820062
0.000749287
0.000668236
0.000590376
0.000534793
0.000521861
0.000565824
0.000666371
0.000804634
0.000952644
0.00109017
0.00121356
0.00133334
0.00146492
0.00161779
0.00178968
0.00196864
0.002139
0.00228697
0.0024041
0.00248821
0.00254199
0.00257065
0.00257982
0.00257445
0.00255848
0.00253484
0.00250572
0.00247272
0.00243706
0.00239966
0.00236123
0.00232234
0.00228342
0.00224481
0.00220665
0.00216907
0.0021323
0.00209655
0.00206197
0.00202869
0.00199675
0.00196622
0.00193711
0.00190944
0.00188321
0.00185841
0.00183506
0.00181315
0.00179269
0.00177369
0.00175617
0.00174015
0.00172568
0.0017128
0.00170156
0.00169202
0.00168423
0.00167828
0.00167419
0.00167206
0.00167199
0.00167267
0.00168135
0.000734817
0.000728021
0.000721345
0.000714764
0.000708186
0.000701466
0.000694457
0.000687024
0.000679006
0.000670149
0.000660048
0.000648343
0.000634372
0.000616566
0.000595875
0.000574478
0.000553547
0.000532747
0.00050878
0.000476598
0.000435873
0.000395384
0.000366947
0.000357089
0.000365792
0.000389514
0.000423783
0.000464019
0.000506174
0.000546846
0.000583139
0.00061242
0.000632174
0.000640158
0.000634848
0.000616166
0.000586429
0.000551424
0.000521136
0.00050901
0.000528635
0.0005882
0.000685282
0.00080649
0.000933831
0.00105279
0.00115669
0.00124744
0.00133418
0.00142972
0.0015445
0.00168131
0.00183405
0.00199075
0.00213785
0.00226405
0.00236286
0.00243307
0.00247736
0.00250034
0.00250684
0.00250105
0.00248629
0.00246503
0.00243912
0.00240989
0.00237836
0.00234529
0.00231127
0.00227679
0.00224216
0.00220755
0.00217313
0.00213917
0.0021059
0.00207349
0.0020421
0.00201181
0.00198272
0.00195486
0.00192828
0.00190301
0.00187906
0.00185647
0.00183525
0.00181541
0.001797
0.00178003
0.00176453
0.00175056
0.00173816
0.00172739
0.00171829
0.00171094
0.0017054
0.0017017
0.00169992
0.00170016
0.00170108
0.00170993
0.000831833
0.000825819
0.000819884
0.000814058
0.000808362
0.000802789
0.000797308
0.000791854
0.000786327
0.000780566
0.000774338
0.000767396
0.000759354
0.000749499
0.000737662
0.000724161
0.000709632
0.000695249
0.00068226
0.000670332
0.000655501
0.000630416
0.000589894
0.000538046
0.000486645
0.000446359
0.000421477
0.000411546
0.000413317
0.000422929
0.000436775
0.00045165
0.000464938
0.000474902
0.000481092
0.00048486
0.000489826
0.000501902
0.000528307
0.000575261
0.000645124
0.000734697
0.000836077
0.000939689
0.00103751
0.00112469
0.00119989
0.00126537
0.00132727
0.00139469
0.00147698
0.00157977
0.00170245
0.00183829
0.00197666
0.00210597
0.0022167
0.00230349
0.00236543
0.00240493
0.00242592
0.00243254
0.00242841
0.00241639
0.00239861
0.00237667
0.00235174
0.00232467
0.00229613
0.00226664
0.00223655
0.00220602
0.00217529
0.00214464
0.00211431
0.00208453
0.00205544
0.00202719
0.00199988
0.00197359
0.00194838
0.00192432
0.00190144
0.00187979
0.00185941
0.00184033
0.00182258
0.00180622
0.00179129
0.00177783
0.0017659
0.00175554
0.00174684
0.00173983
0.0017346
0.00173115
0.00172958
0.00172998
0.00173099
0.00173978
0.000901904
0.00089708
0.000892275
0.000887513
0.000882819
0.000878211
0.000873692
0.00086925
0.000864843
0.000860403
0.000855824
0.000850972
0.000845661
0.000839612
0.000832636
0.000824628
0.000815557
0.000805623
0.000795482
0.000786253
0.000778776
0.000772138
0.000762605
0.000744581
0.000714168
0.000672319
0.000624303
0.000582105
0.000549374
0.000526657
0.000513235
0.000507921
0.000509545
0.000517333
0.000531226
0.000552052
0.000581418
0.000621194
0.000672647
0.00073552
0.000807573
0.000884929
0.000963116
0.00103819
0.00110736
0.00116905
0.00122293
0.00127027
0.00131454
0.00136155
0.00141842
0.0014914
0.00158346
0.00169302
0.00181409
0.00193758
0.00205353
0.00215359
0.00223294
0.00229062
0.00232854
0.00235
0.00235858
0.00235741
0.00234902
0.00233534
0.00231776
0.00229733
0.00227483
0.00225086
0.00222583
0.0021999
0.00217337
0.00214653
0.00211965
0.00209296
0.00206664
0.00204085
0.00201573
0.00199138
0.00196789
0.00194535
0.00192382
0.00190336
0.00188403
0.00186588
0.00184896
0.00183334
0.00181905
0.00180616
0.00179473
0.00178481
0.00177648
0.00176978
0.00176479
0.00176153
0.00176006
0.00176052
0.00176153
0.00177009
0.000948329
0.000944782
0.000941209
0.000937624
0.000934043
0.00093048
0.000926942
0.000923428
0.000919928
0.000916415
0.000912845
0.000909157
0.000905273
0.000901089
0.000896514
0.000891468
0.000885873
0.000879675
0.000872924
0.000865934
0.000859349
0.000853854
0.000849465
0.000844814
0.000837363
0.000823931
0.000803047
0.000778058
0.000752503
0.000729464
0.000711246
0.000699392
0.000694848
0.000698171
0.000709686
0.000729565
0.000757788
0.000794004
0.000837364
0.000886431
0.000939257
0.000993658
0.00104756
0.00109925
0.00114747
0.00119136
0.00123054
0.00126542
0.00129769
0.00133074
0.00136936
0.00141884
0.00148345
0.00156511
0.00166241
0.00177054
0.00188188
0.00198774
0.00208055
0.00215567
0.00221183
0.00225035
0.00227392
0.00228562
0.00228821
0.00228397
0.00227466
0.00226158
0.0022457
0.00222777
0.00220826
0.0021874
0.00216554
0.00214299
0.00212003
0.00209689
0.00207379
0.00205092
0.00202841
0.00200641
0.00198502
0.00196435
0.00194449
0.00192551
0.0019075
0.00189052
0.00187463
0.00185991
0.00184642
0.00183422
0.00182338
0.00181396
0.00180603
0.00179965
0.0017949
0.0017918
0.00179039
0.00179086
0.00179178
0.00180001
0.000976541
0.000974135
0.00097168
0.000969184
0.000966653
0.000964096
0.000961516
0.000958917
0.000956295
0.000953641
0.000950939
0.000948166
0.000945294
0.000942287
0.000939115
0.000935746
0.000932149
0.000928292
0.000924153
0.000919754
0.000915251
0.000910979
0.000907332
0.000904455
0.000902003
0.000898847
0.000893953
0.000886975
0.000878395
0.000869344
0.000861265
0.000855624
0.00085371
0.000856526
0.000864739
0.000878666
0.000898271
0.000923173
0.000952663
0.000985769
0.00102134
0.00105818
0.00109517
0.00113132
0.00116583
0.00119799
0.00122735
0.00125384
0.00127817
0.0013021
0.00132855
0.00136129
0.00140424
0.00146064
0.00153213
0.00161798
0.00171457
0.00181566
0.00191362
0.00200145
0.00207447
0.00213091
0.00217146
0.00219821
0.00221376
0.00222059
0.00222077
0.00221595
0.00220737
0.00219602
0.00218249
0.00216714
0.00215036
0.0021325
0.00211386
0.0020947
0.00207525
0.00205571
0.00203623
0.00201698
0.00199808
0.00197966
0.00196182
0.00194466
0.00192827
0.00191273
0.00189812
0.00188453
0.00187202
0.00186067
0.00185055
0.00184174
0.0018343
0.00182831
0.00182383
0.00182091
0.00181958
0.00182003
0.00182087
0.00182871
0.000992204
0.000990678
0.000989101
0.000987474
0.000985801
0.000984083
0.000982324
0.000980523
0.000978681
0.000976795
0.000974861
0.000972873
0.000970824
0.000968707
0.000966517
0.00096425
0.000961903
0.000959477
0.000956973
0.000954394
0.000951767
0.000949182
0.00094681
0.000944863
0.000943478
0.000942583
0.000941948
0.000941303
0.000940525
0.000939748
0.000939371
0.000939988
0.000942283
0.000946915
0.000954426
0.00096518
0.000979316
0.000996747
0.00101717
0.0010401
0.00106493
0.00109098
0.00111757
0.00114406
0.00116985
0.00119439
0.00121721
0.00123807
0.00125715
0.00127529
0.00129409
0.00131592
0.00134367
0.00138035
0.00142867
0.00149034
0.0015654
0.00165139
0.00174337
0.00183471
0.00191886
0.001991
0.00204882
0.00209229
0.0021229
0.00214278
0.00215412
0.00215885
0.00215854
0.00215446
0.00214747
0.00213807
0.00212675
0.00211394
0.00209996
0.00208513
0.00206968
0.00205383
0.00203776
0.00202163
0.0020056
0.00198979
0.00197432
0.00195931
0.00194485
0.00193106
0.001918
0.00190579
0.00189449
0.0018842
0.00187499
0.00186694
0.00186013
0.00185464
0.00185052
0.00184785
0.00184663
0.00184711
0.00184789
0.00185534
0.00100011
0.000999172
0.000998196
0.000997178
0.000996118
0.000995015
0.000993869
0.00099268
0.000991447
0.000990172
0.000988855
0.000987496
0.000986096
0.000984659
0.000983191
0.000981701
0.000980197
0.000978695
0.000977211
0.000975761
0.000974364
0.000973053
0.000971887
0.000970964
0.000970402
0.000970306
0.000970729
0.000971669
0.000973112
0.000975077
0.00097766
0.00098105
0.000985507
0.000991333
0.000998821
0.00100821
0.00101964
0.00103314
0.00104861
0.00106583
0.00108448
0.00110416
0.00112446
0.00114492
0.00116511
0.00118461
0.00120301
0.00122003
0.00123561
0.00125009
0.00126425
0.00127945
0.00129751
0.00132067
0.00135133
0.00139187
0.0014442
0.00150901
0.00158496
0.00166834
0.00175355
0.00183453
0.00190631
0.00196602
0.0020129
0.00204776
0.00207225
0.00208828
0.00209763
0.00210188
0.0021022
0.00209933
0.00209391
0.00208649
0.00207749
0.00206726
0.00205609
0.00204422
0.00203186
0.00201917
0.00200631
0.00199344
0.00198067
0.00196813
0.00195592
0.00194417
0.00193296
0.00192239
0.00191257
0.00190356
0.00189547
0.00188839
0.00188238
0.00187753
0.00187391
0.0018716
0.0018706
0.00187118
0.00187197
0.00187908
0.00100371
0.00100312
0.00100251
0.00100186
0.00100119
0.00100048
0.00099974
0.000998964
0.000998152
0.000997307
0.000996428
0.00099552
0.000994587
0.000993636
0.000992676
0.00099172
0.000990782
0.00098988
0.000989035
0.000988271
0.00098761
0.000987079
0.000986712
0.000986554
0.000986676
0.000987154
0.000988066
0.000989482
0.000991459
0.000994055
0.000997337
0.00100139
0.00100634
0.00101232
0.00101946
0.0010279
0.00103771
0.00104894
0.00106154
0.00107539
0.00109032
0.00110608
0.00112239
0.00113894
0.0011554
0.00117146
0.00118678
0.00120111
0.00121429
0.00122639
0.00123776
0.0012491
0.00126145
0.00127623
0.00129515
0.00132017
0.00135345
0.00139701
0.00145208
0.0015183
0.00159315
0.00167212
0.00174977
0.00182111
0.00188272
0.00193311
0.00197239
0.00200165
0.00202249
0.0020366
0.00204542
0.00204997
0.00205111
0.00204955
0.00204587
0.00204052
0.00203386
0.0020262
0.00201775
0.00200873
0.0019993
0.00198961
0.0019798
0.00197001
0.00196034
0.0019509
0.00194181
0.00193316
0.00192506
0.00191759
0.00191086
0.00190495
0.00189994