/*--------------------------------*- C++ -*----------------------------------*\
  =========                 |
  \\      /  F ield         | OpenFOAM: The Open Source CFD Toolbox
   \\    /   O peration     | Website:  https://openfoam.org
    \\  /    A nd           | Version:  10
     \\/     M anipulation  |
\*---------------------------------------------------------------------------*/
FoamFile
{
    format      ascii;
    class       surfaceScalarField;
    location    "100";
    object      phi;
}
// * * * * * * * * * * * * * * * * * * * * * * * * * * * * * * * * * * * * * //

dimensions      [0 3 -1 0 0 0 0];

internalField   nonuniform List<scalar> 
13452
(
6.02922e-05
-2.37247e-08
5.99947e-05
2.97508e-07
5.95917e-05
4.02968e-07
5.91191e-05
4.72573e-07
5.86167e-05
5.02391e-07
5.81379e-05
4.78829e-07
5.77046e-05
4.33295e-07
5.73173e-05
3.87335e-07
5.69706e-05
3.46705e-07
5.66585e-05
3.12058e-07
5.63757e-05
2.82822e-07
5.61179e-05
2.57786e-07
5.58818e-05
2.36101e-07
5.56642e-05
2.17593e-07
5.54623e-05
2.01948e-07
5.52741e-05
1.8821e-07
5.50987e-05
1.75417e-07
5.49353e-05
1.63346e-07
5.47829e-05
1.52378e-07
5.46401e-05
1.42805e-07
5.45057e-05
1.34432e-07
5.4379e-05
1.26715e-07
5.42599e-05
1.19124e-07
5.41484e-05
1.11442e-07
5.40446e-05
1.03848e-07
5.39478e-05
9.67991e-08
5.38571e-05
9.06594e-08
5.37715e-05
8.55866e-08
5.3688e-05
8.35106e-08
5.36097e-05
7.83052e-08
5.34993e-05
1.10434e-07
5.33906e-05
1.08625e-07
9.86095e-08
5.3292e-05
6.21472e-05
-1.80634e-07
6.21735e-05
2.71286e-07
6.21958e-05
3.8061e-07
6.22129e-05
4.55456e-07
6.2214e-05
5.01339e-07
6.21851e-05
5.0768e-07
6.2125e-05
4.93475e-07
6.20396e-05
4.7265e-07
6.19369e-05
4.49423e-07
6.18234e-05
4.25609e-07
6.17038e-05
4.024e-07
6.15816e-05
3.80021e-07
6.14591e-05
3.58595e-07
6.1338e-05
3.38691e-07
6.12193e-05
3.20637e-07
6.11035e-05
3.03968e-07
6.0991e-05
2.87976e-07
6.08818e-05
2.72506e-07
6.07762e-05
2.57941e-07
6.06745e-05
2.44601e-07
6.05765e-05
2.32373e-07
6.04824e-05
2.20821e-07
6.0392e-05
2.09502e-07
6.03053e-05
1.98209e-07
6.0222e-05
1.87074e-07
6.01424e-05
1.76434e-07
6.00664e-05
1.66622e-07
5.99946e-05
1.57446e-07
5.99277e-05
1.50405e-07
5.9865e-05
1.41016e-07
5.9829e-05
1.46412e-07
5.98086e-05
1.28996e-07
1.25848e-07
5.97814e-05
6.36688e-05
-8.80529e-08
6.37281e-05
2.12013e-07
6.37889e-05
3.19768e-07
6.38535e-05
3.90943e-07
6.39096e-05
4.45236e-07
6.39478e-05
4.69423e-07
6.39681e-05
4.7315e-07
6.39733e-05
4.67446e-07
6.39661e-05
4.56695e-07
6.39487e-05
4.43021e-07
6.39232e-05
4.27841e-07
6.38916e-05
4.11645e-07
6.38553e-05
3.94849e-07
6.38157e-05
3.78319e-07
6.37737e-05
3.62671e-07
6.373e-05
3.47678e-07
6.36852e-05
3.32772e-07
6.36398e-05
3.17855e-07
6.35944e-05
3.03353e-07
6.35493e-05
2.89668e-07
6.35049e-05
2.76795e-07
6.34613e-05
2.64392e-07
6.34188e-05
2.52065e-07
6.33774e-05
2.39619e-07
6.33373e-05
2.27176e-07
6.32987e-05
2.15028e-07
6.32618e-05
2.03474e-07
6.3227e-05
1.92308e-07
6.31951e-05
1.8231e-07
6.31651e-05
1.70947e-07
6.31475e-05
1.64051e-07
6.31288e-05
1.47729e-07
1.34644e-07
6.312e-05
6.5517e-05
-2.19915e-08
6.55585e-05
1.70514e-07
6.55963e-05
2.81967e-07
6.56384e-05
3.48818e-07
6.56822e-05
4.01429e-07
6.57209e-05
4.30774e-07
6.57528e-05
4.41233e-07
6.57783e-05
4.41986e-07
6.57975e-05
4.37471e-07
6.58109e-05
4.29594e-07
6.58192e-05
4.19514e-07
6.58232e-05
4.07726e-07
6.58233e-05
3.94717e-07
6.58203e-05
3.81362e-07
6.58146e-05
3.68301e-07
6.58069e-05
3.55411e-07
6.57974e-05
3.42218e-07
6.57867e-05
3.28625e-07
6.5775e-05
3.1504e-07
6.57627e-05
3.01912e-07
6.57502e-05
2.89337e-07
6.57375e-05
2.77054e-07
6.57249e-05
2.64698e-07
6.57125e-05
2.52063e-07
6.57004e-05
2.39223e-07
6.5689e-05
2.26411e-07
6.56787e-05
2.13854e-07
6.56696e-05
2.01413e-07
6.56625e-05
1.89314e-07
6.56573e-05
1.76154e-07
6.56576e-05
1.63784e-07
6.56591e-05
1.46205e-07
1.27199e-07
6.56666e-05
6.74277e-05
7.12737e-09
6.74485e-05
1.49645e-07
6.74729e-05
2.5761e-07
6.75022e-05
3.19536e-07
6.75369e-05
3.6675e-07
6.75713e-05
3.96349e-07
6.76029e-05
4.09597e-07
6.76314e-05
4.13544e-07
6.76565e-05
4.12306e-07
6.76786e-05
4.07555e-07
6.76978e-05
4.00307e-07
6.77143e-05
3.91158e-07
6.77284e-05
3.80637e-07
6.77403e-05
3.69483e-07
6.77504e-05
3.5824e-07
6.77589e-05
3.4686e-07
6.77661e-05
3.34985e-07
6.77722e-05
3.22532e-07
6.77774e-05
3.09858e-07
6.77819e-05
2.97393e-07
6.7786e-05
2.85268e-07
6.77898e-05
2.73271e-07
6.77934e-05
2.61069e-07
6.7797e-05
2.48462e-07
6.78008e-05
2.35477e-07
6.78049e-05
2.2228e-07
6.78097e-05
2.09026e-07
6.78155e-05
1.95614e-07
6.78228e-05
1.81993e-07
6.78317e-05
1.67299e-07
6.78437e-05
1.51782e-07
6.78573e-05
1.32552e-07
1.10626e-07
6.78739e-05
6.93701e-05
2.10847e-08
6.93832e-05
1.36471e-07
6.94056e-05
2.35217e-07
6.9431e-05
2.94147e-07
6.94604e-05
3.37336e-07
6.94906e-05
3.66188e-07
6.95194e-05
3.8079e-07
6.95465e-05
3.86448e-07
6.95719e-05
3.86924e-07
6.95957e-05
3.83788e-07
6.96179e-05
3.78043e-07
6.96387e-05
3.70419e-07
6.96579e-05
3.61435e-07
6.96757e-05
3.51639e-07
6.96925e-05
3.41465e-07
6.97084e-05
3.30962e-07
6.97234e-05
3.19922e-07
6.97377e-05
3.0829e-07
6.97512e-05
2.96333e-07
6.97642e-05
2.84395e-07
6.97769e-05
2.72594e-07
6.97894e-05
2.60768e-07
6.98018e-05
2.48645e-07
6.98142e-05
2.36044e-07
6.98268e-05
2.22952e-07
6.98396e-05
2.09467e-07
6.98529e-05
1.9568e-07
6.9867e-05
1.815e-07
6.98823e-05
1.66753e-07
6.98987e-05
1.50814e-07
6.99172e-05
1.33377e-07
6.99368e-05
1.12907e-07
8.94487e-08
6.9958e-05
7.1359e-05
2.84493e-08
7.13701e-05
1.25344e-07
7.13918e-05
2.1353e-07
7.14157e-05
2.70276e-07
7.14422e-05
3.10787e-07
7.14697e-05
3.38679e-07
7.14965e-05
3.54033e-07
7.15221e-05
3.60791e-07
7.15467e-05
3.62307e-07
7.15704e-05
3.60117e-07
7.15932e-05
3.55262e-07
7.1615e-05
3.48569e-07
7.16359e-05
3.40531e-07
7.16561e-05
3.31521e-07
7.16756e-05
3.21898e-07
7.16948e-05
3.11832e-07
7.17134e-05
3.01276e-07
7.17315e-05
2.90195e-07
7.17491e-05
2.78733e-07
7.17664e-05
2.67112e-07
7.17835e-05
2.55434e-07
7.18007e-05
2.43607e-07
7.18179e-05
2.31442e-07
7.18352e-05
2.1878e-07
7.18526e-05
2.0557e-07
7.18702e-05
1.91843e-07
7.18882e-05
1.77631e-07
7.19069e-05
1.62838e-07
7.19264e-05
1.47243e-07
7.19469e-05
1.30362e-07
7.19685e-05
1.11765e-07
7.19908e-05
9.05298e-08
6.64139e-08
7.20139e-05
7.34021e-05
3.16354e-08
7.34122e-05
1.15217e-07
7.34323e-05
1.93444e-07
7.3455e-05
2.47536e-07
7.348e-05
2.85831e-07
7.3506e-05
3.12631e-07
7.35317e-05
3.2839e-07
7.35565e-05
3.35975e-07
7.35805e-05
3.38273e-07
7.36039e-05
3.36789e-07
7.36265e-05
3.3258e-07
7.36486e-05
3.26528e-07
7.367e-05
3.19103e-07
7.3691e-05
3.1056e-07
7.37117e-05
3.0121e-07
7.37322e-05
2.91346e-07
7.37524e-05
2.81065e-07
7.37722e-05
2.70336e-07
7.37918e-05
2.59172e-07
7.38112e-05
2.4768e-07
7.38307e-05
2.35958e-07
7.38503e-05
2.24001e-07
7.387e-05
2.11704e-07
7.38899e-05
1.98932e-07
7.39099e-05
1.85595e-07
7.393e-05
1.7166e-07
7.39506e-05
1.57104e-07
7.39716e-05
1.41821e-07
7.39932e-05
1.256e-07
7.40155e-05
1.08069e-07
7.40385e-05
8.88306e-08
7.40617e-05
6.7285e-08
4.31857e-08
7.40849e-05
7.55019e-05
3.21595e-08
7.55114e-05
1.058e-07
7.55297e-05
1.75103e-07
7.55514e-05
2.25879e-07
7.55751e-05
2.62052e-07
7.56001e-05
2.87644e-07
7.5625e-05
3.0347e-07
7.56494e-05
3.1163e-07
7.56731e-05
3.14549e-07
7.56962e-05
3.13659e-07
7.57188e-05
3.09985e-07
7.57409e-05
3.04421e-07
7.57626e-05
2.97441e-07
7.57839e-05
2.89226e-07
7.58051e-05
2.80051e-07
7.58262e-05
2.70293e-07
7.58471e-05
2.60168e-07
7.58677e-05
2.49651e-07
7.58883e-05
2.38649e-07
7.59088e-05
2.27172e-07
7.59294e-05
2.15319e-07
7.59502e-05
2.03169e-07
7.59712e-05
1.90699e-07
7.59924e-05
1.77798e-07
7.60136e-05
1.64341e-07
7.60351e-05
1.50235e-07
7.60568e-05
1.35408e-07
7.60788e-05
1.19759e-07
7.61013e-05
1.03116e-07
7.61242e-05
8.5211e-08
7.61473e-05
6.5735e-08
7.61702e-05
4.42945e-08
2.07307e-08
7.61927e-05
7.76606e-05
3.11459e-08
7.76695e-05
9.68543e-08
7.76863e-05
1.58298e-07
7.77069e-05
2.05344e-07
7.77296e-05
2.39362e-07
7.77536e-05
2.63625e-07
7.77779e-05
2.79183e-07
7.78019e-05
2.87644e-07
7.78254e-05
2.91014e-07
7.78484e-05
2.90607e-07
7.78711e-05
2.87377e-07
7.78933e-05
2.822e-07
7.79151e-05
2.75571e-07
7.79367e-05
2.67638e-07
7.79582e-05
2.58626e-07
7.79795e-05
2.48948e-07
7.80008e-05
2.38912e-07
7.80219e-05
2.28518e-07
7.80429e-05
2.17607e-07
7.8064e-05
2.06106e-07
7.80852e-05
1.9411e-07
7.81066e-05
1.81764e-07
7.81282e-05
1.69119e-07
7.81499e-05
1.56096e-07
7.81717e-05
1.42543e-07
7.81936e-05
1.28316e-07
7.82157e-05
1.13309e-07
7.8238e-05
9.74336e-08
7.82606e-05
8.05715e-08
7.82832e-05
6.25528e-08
7.83058e-05
4.31697e-08
7.83279e-05
2.21785e-08
-4.81454e-10
7.83491e-05
7.98802e-05
2.92974e-08
7.98888e-05
8.82495e-08
7.99043e-05
1.42809e-07
7.99237e-05
1.85949e-07
7.99453e-05
2.1771e-07
7.99684e-05
2.40527e-07
7.99921e-05
2.55535e-07
8.00157e-05
2.64032e-07
8.0039e-05
2.67669e-07
8.0062e-05
2.67612e-07
8.00847e-05
2.64722e-07
8.0107e-05
2.59843e-07
8.01291e-05
2.53498e-07
8.01509e-05
2.45825e-07
8.01725e-05
2.36985e-07
8.01941e-05
2.27385e-07
8.02156e-05
2.17399e-07
8.02371e-05
2.07077e-07
8.02584e-05
1.96231e-07
8.02798e-05
1.84723e-07
8.03013e-05
1.72623e-07
8.0323e-05
1.60117e-07
8.03447e-05
1.47325e-07
8.03666e-05
1.34204e-07
8.03886e-05
1.20595e-07
8.04106e-05
1.06317e-07
8.04327e-05
9.12438e-08
8.04548e-05
7.52981e-08
8.04769e-05
5.84185e-08
8.0499e-05
4.05226e-08
8.05206e-05
2.14994e-08
8.05416e-05
1.21898e-09
-2.02942e-08
8.05614e-05
8.21627e-05
2.70263e-08
8.2171e-05
7.99498e-08
8.21854e-05
1.2844e-07
8.22037e-05
1.67653e-07
8.22243e-05
1.97043e-07
8.22466e-05
2.18307e-07
8.22696e-05
2.32543e-07
8.22928e-05
2.4084e-07
8.23159e-05
2.44555e-07
8.23388e-05
2.44702e-07
8.23615e-05
2.42044e-07
8.23839e-05
2.37378e-07
8.24062e-05
2.31257e-07
8.24282e-05
2.23815e-07
8.245e-05
2.15151e-07
8.24718e-05
2.0563e-07
8.24935e-05
1.95672e-07
8.25152e-05
1.85396e-07
8.25368e-05
1.74615e-07
8.25584e-05
1.63139e-07
8.258e-05
1.50998e-07
8.26017e-05
1.38393e-07
8.26235e-05
1.25497e-07
8.26454e-05
1.12317e-07
8.26673e-05
9.87044e-08
8.26892e-05
8.44631e-08
8.2711e-05
6.94489e-08
8.27327e-05
5.35968e-08
8.27542e-05
3.68918e-08
8.27754e-05
1.93256e-08
8.2796e-05
8.72602e-10
8.28158e-05
-1.85086e-08
-3.87258e-08
8.28342e-05
8.45102e-05
2.45735e-08
8.45182e-05
7.19566e-08
8.45316e-05
1.15024e-07
8.45489e-05
1.50379e-07
8.45686e-05
1.77303e-07
8.459e-05
1.96922e-07
8.46124e-05
2.1021e-07
8.46351e-05
2.18099e-07
8.4658e-05
2.21713e-07
8.46807e-05
2.21921e-07
8.47034e-05
2.1939e-07
8.47259e-05
2.1486e-07
8.47483e-05
2.08897e-07
8.47704e-05
2.01648e-07
8.47924e-05
1.93151e-07
8.48143e-05
1.83713e-07
8.48362e-05
1.73775e-07
8.48581e-05
1.6353e-07
8.48799e-05
1.52823e-07
8.49016e-05
1.41425e-07
8.49233e-05
1.29312e-07
8.4945e-05
1.16676e-07
8.49668e-05
1.03733e-07
8.49886e-05
9.05431e-08
8.50103e-05
7.69893e-08
8.50319e-05
6.2876e-08
8.50533e-05
4.80487e-08
8.50744e-05
3.24476e-08
8.50952e-05
1.60908e-08
8.51155e-05
-9.71276e-10
8.51351e-05
-1.86941e-08
8.51536e-05
-3.70494e-08
-5.58925e-08
8.51708e-05
8.69247e-05
2.20767e-08
8.69323e-05
6.4278e-08
8.69449e-05
1.02421e-07
8.69613e-05
1.34041e-07
8.69802e-05
1.58435e-07
8.70007e-05
1.76323e-07
8.70224e-05
1.8852e-07
8.70447e-05
1.95824e-07
8.70673e-05
1.99174e-07
8.70899e-05
1.99312e-07
8.71124e-05
1.96809e-07
8.7135e-05
1.92341e-07
8.71574e-05
1.86473e-07
8.71797e-05
1.79369e-07
8.72018e-05
1.71022e-07
8.72238e-05
1.61671e-07
8.72459e-05
1.51758e-07
8.72678e-05
1.41541e-07
8.72897e-05
1.30916e-07
8.73115e-05
1.19635e-07
8.73332e-05
1.07616e-07
8.73549e-05
9.50229e-08
8.73765e-05
8.20966e-08
8.73981e-05
6.89547e-08
8.74196e-05
5.55251e-08
8.74408e-05
4.16282e-08
8.74618e-05
2.71053e-08
8.74823e-05
1.18954e-08
8.75024e-05
-3.96429e-09
8.75218e-05
-2.03823e-08
8.75404e-05
-3.72592e-08
8.75578e-05
-5.4513e-08
-7.19586e-08
8.75739e-05
8.9408e-05
1.96109e-08
8.94154e-05
5.69173e-08
8.94273e-05
9.05229e-08
8.94428e-05
1.18547e-07
8.94608e-05
1.40378e-07
8.94807e-05
1.56462e-07
8.95017e-05
1.6745e-07
8.95235e-05
1.7402e-07
8.95458e-05
1.76961e-07
8.95682e-05
1.76907e-07
8.95906e-05
1.74341e-07
8.96131e-05
1.69864e-07
8.96356e-05
1.64031e-07
8.96579e-05
1.57024e-07
8.96801e-05
1.48806e-07
8.97022e-05
1.39548e-07
8.97243e-05
1.2967e-07
8.97464e-05
1.19487e-07
8.97683e-05
1.08953e-07
8.97902e-05
9.78199e-08
8.98118e-05
8.59542e-08
8.98334e-05
7.34768e-08
8.98548e-05
6.06384e-08
8.98762e-05
4.76078e-08
8.98973e-05
3.43672e-08
8.99182e-05
2.07658e-08
8.99387e-05
6.64738e-09
8.99586e-05
-8.05443e-09
8.99779e-05
-2.32969e-08
8.99965e-05
-3.89646e-08
9.00142e-05
-5.49181e-08
9.00307e-05
-7.10362e-08
-8.71021e-08
9.00458e-05
9.19623e-05
1.7214e-08
9.19693e-05
4.98706e-08
9.19806e-05
7.92415e-08
9.19953e-05
1.03811e-07
9.20126e-05
1.23071e-07
9.20318e-05
1.37289e-07
9.20523e-05
1.46969e-07
9.20736e-05
1.52679e-07
9.20955e-05
1.55087e-07
9.21177e-05
1.54732e-07
9.214e-05
1.52017e-07
9.21624e-05
1.47465e-07
9.21848e-05
1.41611e-07
9.22072e-05
1.34655e-07
9.22294e-05
1.26544e-07
9.22516e-05
1.17384e-07
9.22737e-05
1.07559e-07
9.22958e-05
9.74209e-08
9.23178e-05
8.69878e-08
9.23395e-05
7.60278e-08
9.23611e-05
6.43664e-08
9.23825e-05
5.20753e-08
9.24038e-05
3.93987e-08
9.24248e-05
2.65463e-08
9.24456e-05
1.3557e-08
9.24661e-05
3.1881e-10
9.24861e-05
-1.33149e-08
9.25054e-05
-2.7418e-08
9.25241e-05
-4.1953e-08
9.25419e-05
-5.67952e-08
9.25588e-05
-7.17799e-08
9.25745e-05
-8.67599e-08
-1.01493e-07
9.25889e-05
9.45895e-05
1.49026e-08
9.45962e-05
4.31269e-08
9.46069e-05
6.85052e-08
9.4621e-05
8.97513e-08
9.46376e-05
1.06449e-07
9.46562e-05
1.18753e-07
9.46761e-05
1.27045e-07
9.4697e-05
1.31792e-07
9.47185e-05
1.33558e-07
9.47404e-05
1.32803e-07
9.47626e-05
1.29858e-07
9.47849e-05
1.25173e-07
9.48073e-05
1.19248e-07
9.48296e-05
1.12301e-07
9.48519e-05
1.04275e-07
9.4874e-05
9.52176e-08
9.48961e-05
8.5466e-08
9.49182e-05
7.53896e-08
9.49401e-05
6.5069e-08
9.49618e-05
5.43033e-08
9.49833e-05
4.28903e-08
9.50045e-05
3.08511e-08
9.50255e-05
1.84095e-08
9.50462e-05
5.80302e-09
9.50667e-05
-6.87592e-09
9.50867e-05
-1.96948e-08
9.51062e-05
-3.27836e-08
9.5125e-05
-4.62235e-08
9.5143e-05
-5.99888e-08
9.51602e-05
-7.39577e-08
9.51763e-05
-8.79548e-08
9.51914e-05
-1.01818e-07
-1.15286e-07
9.52052e-05
9.72917e-05
1.26814e-08
9.72982e-05
3.66694e-08
9.73084e-05
5.82534e-08
9.73219e-05
7.62957e-08
9.73379e-05
9.04513e-08
9.73558e-05
1.00806e-07
9.73753e-05
1.07643e-07
9.73957e-05
1.11339e-07
9.74169e-05
1.1237e-07
9.74386e-05
1.11128e-07
9.74605e-05
1.07882e-07
9.74827e-05
1.03008e-07
9.7505e-05
9.6969e-08
9.75273e-05
8.99964e-08
9.75495e-05
8.20343e-08
9.75717e-05
7.30828e-08
9.75937e-05
6.34244e-08
9.76157e-05
5.34319e-08
9.76375e-05
4.32394e-08
9.76591e-05
3.26873e-08
9.76804e-05
2.15602e-08
9.77015e-05
9.83192e-09
9.77222e-05
-2.30515e-09
9.77426e-05
-1.46e-08
9.77626e-05
-2.69138e-08
9.77822e-05
-3.92676e-08
9.78012e-05
-5.17696e-08
9.78195e-05
-6.45046e-08
9.78369e-05
-7.74628e-08
9.78535e-05
-9.05348e-08
9.78691e-05
-1.03546e-07
9.78836e-05
-1.16331e-07
-1.28615e-07
9.78969e-05
0.000100071
1.05486e-08
0.000100077
3.04778e-08
0.000100087
4.84334e-08
0.0001001
6.33774e-08
0.000100116
7.50184e-08
0.000100133
8.3399e-08
0.000100152
8.8726e-08
0.000100172
9.12986e-08
0.000100193
9.1516e-08
0.000100214
8.97115e-08
0.000100236
8.60988e-08
0.000100258
8.09871e-08
0.00010028
7.47981e-08
0.000100302
6.77693e-08
0.000100325
5.98524e-08
0.000100347
5.10085e-08
0.000100369
4.1464e-08
0.00010039
3.15802e-08
0.000100412
2.15354e-08
0.000100434
1.12161e-08
0.000100455
4.07034e-10
0.000100476
-1.09593e-08
0.000100496
-2.27287e-08
0.000100516
-3.46503e-08
0.000100536
-4.65487e-08
0.000100555
-5.84007e-08
0.000100573
-7.02885e-08
0.000100591
-8.22964e-08
0.000100608
-9.44311e-08
0.000100624
-1.06603e-07
0.000100639
-1.18648e-07
0.000100653
-1.30404e-07
-1.4159e-07
0.000100666
0.00010293
8.49893e-09
0.000102936
2.45297e-08
0.000102945
3.8998e-08
0.000102958
5.09362e-08
0.000102973
6.00926e-08
0.00010299
6.64826e-08
0.000103008
7.02556e-08
0.000103028
7.16441e-08
0.000103048
7.09807e-08
0.00010307
6.85479e-08
0.000103091
6.45122e-08
0.000103113
5.9121e-08
0.000103135
5.27514e-08
0.000103157
4.56417e-08
0.000103179
3.77542e-08
0.000103201
2.90197e-08
0.000103223
1.96091e-08
0.000103245
9.86143e-09
0.000103266
-1.26606e-11
0.000103288
-1.00791e-08
0.000103309
-2.05427e-08
0.000103329
-3.15042e-08
0.000103349
-4.28507e-08
0.000103369
-5.43428e-08
0.000103388
-6.57808e-08
0.000103407
-7.71017e-08
0.000103425
-8.83591e-08
0.000103442
-9.96328e-08
0.000103459
-1.10945e-07
0.000103475
-1.22229e-07
0.000103489
-1.33338e-07
0.000103503
-1.44123e-07
-1.543e-07
0.000103516
0.000105871
6.52556e-09
0.000105876
1.88021e-08
0.000105886
2.99042e-08
0.000105898
3.89167e-08
0.000105912
4.56183e-08
0.000105928
5.0007e-08
0.000105947
5.219e-08
0.000105966
5.23444e-08
0.000105986
5.07438e-08
0.000106007
4.76271e-08
0.000106028
4.31199e-08
0.00010605
3.74134e-08
0.000106072
3.08383e-08
0.000106094
2.3629e-08
0.000106116
1.57588e-08
0.000106138
7.13603e-09
0.00010616
-2.12095e-09
0.000106181
-1.17038e-08
0.000106203
-2.13808e-08
0.000106224
-3.11732e-08
0.000106244
-4.12675e-08
0.000106265
-5.17887e-08
0.000106285
-6.26651e-08
0.000106304
-7.36784e-08
0.000106323
-8.4616e-08
0.000106341
-9.53819e-08
0.000106359
-1.06001e-07
0.000106376
-1.16544e-07
0.000106392
-1.27048e-07
0.000106407
-1.37467e-07
0.000106421
-1.47681e-07
0.000106435
-1.57555e-07
-1.66808e-07
0.000106447
0.000108895
4.62107e-09
0.000108901
1.32721e-08
0.00010891
2.11122e-08
0.000108921
2.72677e-08
0.000108935
3.15415e-08
0.000108951
3.39216e-08
0.000108969
3.4485e-08
0.000108988
3.33633e-08
0.000109008
3.07784e-08
0.000109029
2.69311e-08
0.00010905
2.1912e-08
0.000109072
1.58606e-08
0.000109093
9.06123e-09
0.000109115
1.73915e-09
0.000109137
-6.12143e-09
0.000109159
-1.46286e-08
0.00010918
-2.37125e-08
0.000109202
-3.31009e-08
0.000109223
-4.25519e-08
0.000109244
-5.20478e-08
0.000109264
-6.17512e-08
0.000109284
-7.18028e-08
0.000109304
-8.21696e-08
0.000109323
-9.26616e-08
0.000109341
-1.03064e-07
0.000109359
-1.13255e-07
0.000109376
-1.23233e-07
0.000109393
-1.33058e-07
0.000109409
-1.42774e-07
0.000109424
-1.52362e-07
0.000109438
-1.61722e-07
0.000109451
-1.70746e-07
-1.79156e-07
0.000109463
0.000112006
2.77808e-09
0.000112012
7.91773e-09
0.00011202
1.25851e-08
0.000112032
1.59407e-08
0.000112045
1.78089e-08
0.000112061
1.81739e-08
0.000112078
1.70923e-08
0.000112097
1.46589e-08
0.000112117
1.10507e-08
0.000112137
6.43421e-09
0.000112158
8.70106e-10
0.00011218
-5.54914e-09
0.000112201
-1.25857e-08
0.000112223
-2.00276e-08
0.000112245
-2.78817e-08
0.000112267
-3.62674e-08
0.000112288
-4.51582e-08
0.000112309
-5.43215e-08
0.00011233
-6.35159e-08
0.000112351
-7.26911e-08
0.000112371
-8.1983e-08
0.000112391
-9.15402e-08
0.00011241
-1.01365e-07
0.000112429
-1.11299e-07
0.000112447
-1.21136e-07
0.000112464
-1.30736e-07
0.000112481
-1.40072e-07
0.000112497
-1.49192e-07
0.000112513
-1.58148e-07
0.000112527
-1.66939e-07
0.000112541
-1.75493e-07
0.000112554
-1.83721e-07
-1.91361e-07
0.000112566
0.000115206
9.89694e-10
0.000115211
2.7188e-09
0.00011522
4.28892e-09
0.000115231
4.88985e-09
0.000115244
4.36755e-09
0.00011526
2.70891e-09
0.000115277
-4.13834e-11
0.000115295
-3.81735e-09
0.000115315
-8.48182e-09
0.000115335
-1.38986e-08
0.000115356
-2.00335e-08
0.000115377
-2.6837e-08
0.000115399
-3.41173e-08
0.000115421
-4.16803e-08
0.000115442
-4.9526e-08
0.000115464
-5.77809e-08
0.000115485
-6.64574e-08
0.000115506
-7.53647e-08
0.000115527
-8.42701e-08
0.000115547
-9.30981e-08
0.000115567
-1.01958e-07
0.000115587
-1.10999e-07
0.000115606
-1.20254e-07
0.000115624
-1.29601e-07
0.000115642
-1.38844e-07
0.000115659
-1.47837e-07
0.000115675
-1.56532e-07
0.000115691
-1.64964e-07
0.000115706
-1.73186e-07
0.00011572
-1.81216e-07
0.000115734
-1.89005e-07
0.000115746
-1.96489e-07
-2.0342e-07
0.000115759
0.000118498
-7.50091e-10
0.000118503
-2.34235e-09
0.000118511
-3.80722e-09
0.000118522
-5.92876e-09
0.000118535
-8.83654e-09
0.00011855
-1.25325e-08
0.000118567
-1.69759e-08
0.000118585
-2.21227e-08
0.000118605
-2.78711e-08
0.000118625
-3.41129e-08
0.000118646
-4.08377e-08
0.000118667
-4.80349e-08
0.000118688
-5.55592e-08
0.00011871
-6.32381e-08
0.000118731
-7.10675e-08
0.000118753
-7.91786e-08
0.000118774
-8.76177e-08
0.000118795
-9.62369e-08
0.000118815
-1.04819e-07
0.000118836
-1.13271e-07
0.000118855
-1.21675e-07
0.000118874
-1.3018e-07
0.000118893
-1.38843e-07
0.000118911
-1.47574e-07
0.000118928
-1.56201e-07
0.000118945
-1.64572e-07
0.000118961
-1.72624e-07
0.000118977
-1.8038e-07
0.000118991
-1.87893e-07
0.000119005
-1.95194e-07
0.000119019
-2.02256e-07
0.000119031
-2.09038e-07
-2.1531e-07
0.000119043
0.000121883
-2.44566e-09
0.000121888
-7.27903e-09
0.000121896
-1.17294e-08
0.000121906
-1.65569e-08
0.00012192
-2.18592e-08
0.000121935
-2.76152e-08
0.000121951
-3.37795e-08
0.00012197
-4.03252e-08
0.000121989
-4.71815e-08
0.000122009
-5.42672e-08
0.00012203
-6.15938e-08
0.000122051
-6.91875e-08
0.000122072
-7.69489e-08
0.000122094
-8.47315e-08
0.000122115
-9.25305e-08
0.000122137
-1.0048e-07
0.000122158
-1.08656e-07
0.000122178
-1.16953e-07
0.000122199
-1.25175e-07
0.000122219
-1.33217e-07
0.000122238
-1.41142e-07
0.000122257
-1.4909e-07
0.000122275
-1.57137e-07
0.000122293
-1.65229e-07
0.00012231
-1.73216e-07
0.000122326
-1.80949e-07
0.000122342
-1.88356e-07
0.000122357
-1.95446e-07
0.000122372
-2.02269e-07
0.000122385
-2.08866e-07
0.000122398
-2.15231e-07
0.000122411
-2.21344e-07
-2.26994e-07
0.000122422
0.000125365
-4.09857e-09
0.00012537
-1.20971e-08
0.000125378
-1.94964e-08
0.000125388
-2.70338e-08
0.000125401
-3.47596e-08
0.000125416
-4.26119e-08
0.000125433
-5.0532e-08
0.000125451
-5.85062e-08
0.00012547
-6.64924e-08
0.00012549
-7.44355e-08
0.000125511
-8.23689e-08
0.000125532
-9.03537e-08
0.000125554
-9.83373e-08
0.000125575
-1.06203e-07
0.000125597
-1.1395e-07
0.000125618
-1.21713e-07
0.000125639
-1.29597e-07
0.000125659
-1.37537e-07
0.00012568
-1.4536e-07
0.000125699
-1.52958e-07
0.000125719
-1.60374e-07
0.000125737
-1.6774e-07
0.000125755
-1.75148e-07
0.000125773
-1.82575e-07
0.000125789
-1.89897e-07
0.000125805
-1.96975e-07
0.000125821
-2.03729e-07
0.000125835
-2.10157e-07
0.000125849
-2.16303e-07
0.000125863
-2.22216e-07
0.000125875
-2.27904e-07
0.000125887
-2.33366e-07
-2.38414e-07
0.000125899
0.000128947
-5.70528e-09
0.000128951
-1.67893e-08
0.000128959
-2.71145e-08
0.000128969
-3.73945e-08
0.000128982
-4.76021e-08
0.000128997
-5.76067e-08
0.000129014
-6.73278e-08
0.000129032
-7.67641e-08
0.000129052
-8.59014e-08
0.000129072
-9.47108e-08
0.000129093
-1.03249e-07
0.000129114
-1.11611e-07
0.000129136
-1.19793e-07
0.000129157
-1.27711e-07
0.000129178
-1.35372e-07
0.0001292
-1.42916e-07
0.000129221
-1.50472e-07
0.000129241
-1.58015e-07
0.000129261
-1.65399e-07
0.000129281
-1.72517e-07
0.0001293
-1.79393e-07
0.000129318
-1.8615e-07
0.000129336
-1.92893e-07
0.000129353
-1.99626e-07
0.000129369
-2.06254e-07
0.000129385
-2.12653e-07
0.0001294
-2.1874e-07
0.000129414
-2.24503e-07
0.000129428
-2.29979e-07
0.000129441
-2.35217e-07
0.000129453
-2.40241e-07
0.000129465
-2.45065e-07
-2.49522e-07
0.000129476
0.000132631
-7.25262e-09
0.000132635
-2.13231e-08
0.000132643
-3.45675e-08
0.000132653
-4.76678e-08
0.000132666
-6.04594e-08
0.000132681
-7.27006e-08
0.000132698
-8.42829e-08
0.000132716
-9.52203e-08
0.000132736
-1.05527e-07
0.000132756
-1.15204e-07
0.000132777
-1.24337e-07
0.000132799
-1.33059e-07
0.000132821
-1.41409e-07
0.000132842
-1.4934e-07
0.000132864
-1.56872e-07
0.000132885
-1.64151e-07
0.000132906
-1.71331e-07
0.000132926
-1.78425e-07
0.000132946
-1.85322e-07
0.000132965
-1.91918e-07
0.000132984
-1.98222e-07
0.000133002
-2.04345e-07
0.00013302
-2.10396e-07
0.000133037
-2.16404e-07
0.000133053
-2.22305e-07
0.000133068
-2.27992e-07
0.000133083
-2.33386e-07
0.000133097
-2.38467e-07
0.00013311
-2.43265e-07
0.000133123
-2.4783e-07
0.000133135
-2.52192e-07
0.000133146
-2.56372e-07
-2.60227e-07
0.000133157
0.00013642
-8.7083e-09
0.000136424
-2.56192e-08
0.000136431
-4.18017e-08
0.000136441
-5.78724e-08
0.000136454
-7.34136e-08
0.00013647
-8.80158e-08
0.000136487
-1.01546e-07
0.000136506
-1.14036e-07
0.000136526
-1.25524e-07
0.000136547
-1.36052e-07
0.000136568
-1.45746e-07
0.00013659
-1.54787e-07
0.000136612
-1.63264e-07
0.000136633
-1.71166e-07
0.000136655
-1.78524e-07
0.000136676
-1.8549e-07
0.000136697
-1.92235e-07
0.000136718
-1.98818e-07
0.000136738
-2.05165e-07
0.000136757
-2.11186e-07
0.000136776
-2.16879e-07
0.000136794
-2.22338e-07
0.000136811
-2.27674e-07
0.000136827
-2.32935e-07
0.000136843
-2.38079e-07
0.000136858
-2.4302e-07
0.000136872
-2.47685e-07
0.000136886
-2.52051e-07
0.000136899
-2.56148e-07
0.000136911
-2.60023e-07
0.000136923
-2.63716e-07
0.000136934
-2.67259e-07
-2.70526e-07
0.000136944
0.000140317
-9.9995e-09
0.000140321
-2.95041e-08
0.000140328
-4.87009e-08
0.000140338
-6.80231e-08
0.000140351
-8.65636e-08
0.000140367
-1.03689e-07
0.000140385
-1.19284e-07
0.000140404
-1.33411e-07
0.000140425
-1.46119e-07
0.000140446
-1.57485e-07
0.000140468
-1.6769e-07
0.00014049
-1.76977e-07
0.000140512
-1.85502e-07
0.000140534
-1.93303e-07
0.000140556
-2.00427e-07
0.000140578
-2.07023e-07
0.000140599
-2.13275e-07
0.000140619
-2.19275e-07
0.000140639
-2.24991e-07
0.000140658
-2.30355e-07
0.000140677
-2.35367e-07
0.000140695
-2.40112e-07
0.000140712
-2.44703e-07
0.000140728
-2.49195e-07
0.000140743
-2.53565e-07
0.000140758
-2.57738e-07
0.000140772
-2.61642e-07
0.000140785
-2.65255e-07
0.000140798
-2.68604e-07
0.000140809
-2.71746e-07
0.000140821
-2.74729e-07
0.000140831
-2.77591e-07
-2.80225e-07
0.000140841
0.000144326
-1.09675e-08
0.000144329
-3.26075e-08
0.000144335
-5.50305e-08
0.000144345
-7.81453e-08
0.000144359
-1.00085e-07
0.000144375
-1.19932e-07
0.000144393
-1.37685e-07
0.000144413
-1.5348e-07
0.000144435
-1.67404e-07
0.000144457
-1.79588e-07
0.000144479
-1.90267e-07
0.000144502
-1.99736e-07
0.000144525
-2.08221e-07
0.000144547
-2.1583e-07
0.00014457
-2.22645e-07
0.000144591
-2.2882e-07
0.000144613
-2.34541e-07
0.000144633
-2.39917e-07
0.000144653
-2.44942e-07
0.000144672
-2.49567e-07
0.000144691
-2.53801e-07
0.000144708
-2.57742e-07
0.000144725
-2.61516e-07
0.000144741
-2.65198e-07
0.000144757
-2.68775e-07
0.000144771
-2.72171e-07
0.000144785
-2.75302e-07
0.000144797
-2.78135e-07
0.00014481
-2.80694e-07
0.000144821
-2.83049e-07
0.000144831
-2.85274e-07
0.000144841
-2.8744e-07
-2.89469e-07
0.000144851
0.000148448
-1.12536e-08
0.00014845
-3.42034e-08
0.000148455
-6.03556e-08
0.000148465
-8.81507e-08
0.000148479
-1.14135e-07
0.000148496
-1.37182e-07
0.000148516
-1.5741e-07
0.000148538
-1.74958e-07
0.00014856
-1.90007e-07
0.000148584
-2.02855e-07
0.000148607
-2.13848e-07
0.000148631
-2.23336e-07
0.000148654
-2.31602e-07
0.000148677
-2.38824e-07
0.0001487
-2.45145e-07
0.000148722
-2.50756e-07
0.000148743
-2.55864e-07
0.000148764
-2.60583e-07
0.000148783
-2.64899e-07
0.000148803
-2.68746e-07
0.000148821
-2.72128e-07
0.000148838
-2.7516e-07
0.000148855
-2.78012e-07
0.000148871
-2.80804e-07
0.000148885
-2.83548e-07
0.000148899
-2.86163e-07
0.000148913
-2.88535e-07
0.000148925
-2.90596e-07
0.000148937
-2.92349e-07
0.000148947
-2.93863e-07
0.000148957
-2.95232e-07
0.000148967
-2.96552e-07
-2.97775e-07
0.000148975
0.000152688
-9.84474e-09
0.000152686
-3.28569e-08
0.00015269
-6.44611e-08
0.0001527
-9.81133e-08
0.000152715
-1.28264e-07
0.000152732
-1.54635e-07
0.000152752
-1.77677e-07
0.000152775
-1.97301e-07
0.000152798
-2.13673e-07
0.000152823
-2.27284e-07
0.000152848
-2.3864e-07
0.000152872
-2.48172e-07
0.000152897
-2.56203e-07
0.000152921
-2.62947e-07
0.000152945
-2.686e-07
0.000152967
-2.73436e-07
0.000152989
-2.77749e-07
0.00015301
-2.81703e-07
0.000153031
-2.85267e-07
0.00015305
-2.88315e-07
0.000153069
-2.90798e-07
0.000153086
-2.92824e-07
0.000153103
-2.94613e-07
0.000153119
-2.96362e-07
0.000153133
-2.98143e-07
0.000153147
-2.99893e-07
0.00015316
-3.01476e-07
0.000153172
-3.02772e-07
0.000153183
-3.03741e-07
0.000153194
-3.04429e-07
0.000153204
-3.04944e-07
0.000153213
-3.05434e-07
-3.05879e-07
0.000153221
0.000157046
-4.26356e-09
0.000157037
-2.42658e-08
0.00015704
-6.69118e-08
0.000157052
-1.10662e-07
0.000157071
-1.46501e-07
0.000157092
-1.76225e-07
0.000157116
-2.01279e-07
0.00015714
-2.21896e-07
0.000157165
-2.3862e-07
0.00015719
-2.52238e-07
0.000157215
-2.63425e-07
0.00015724
-2.72706e-07
0.000157264
-2.80421e-07
0.000157288
-2.86722e-07
0.000157311
-2.91746e-07
0.000157333
-2.95795e-07
0.000157355
-2.99274e-07
0.000157375
-3.02458e-07
0.000157395
-3.05345e-07
0.000157415
-3.07745e-07
0.000157434
-3.09512e-07
0.000157451
-3.10688e-07
0.000157468
-3.11497e-07
0.000157484
-3.12199e-07
0.000157499
-3.1295e-07
0.000157513
-3.13746e-07
0.000157526
-3.14471e-07
0.000157538
-3.1498e-07
0.000157549
-3.15182e-07
0.00015756
-3.15066e-07
0.00015757
-3.1469e-07
0.000157579
-3.1417e-07
-3.1348e-07
0.000157586
0.000161526
8.56805e-09
0.000161504
-2.74762e-09
0.000161495
-5.78022e-08
0.000161497
-1.12901e-07
0.00016151
-1.59047e-07
0.000161531
-1.97546e-07
0.000161558
-2.28283e-07
0.000161588
-2.5177e-07
0.000161619
-2.69629e-07
0.00016165
-2.83363e-07
0.000161681
-2.94048e-07
0.000161711
-3.02551e-07
0.00016174
-3.09446e-07
0.000161768
-3.14922e-07
0.000161795
-3.19032e-07
0.000161821
-3.22021e-07
0.000161846
-3.24345e-07
0.00016187
-3.26391e-07
0.000161893
-3.28251e-07
0.000161915
-3.29759e-07
0.000161936
-3.30719e-07
0.000161957
-3.31094e-07
0.000161976
-3.31029e-07
0.000161995
-3.30748e-07
0.000162012
-3.30419e-07
0.000162029
-3.30091e-07
0.000162044
-3.29712e-07
0.000162058
-3.29197e-07
0.000162071
-3.28479e-07
0.000162084
-3.27538e-07
0.000162096
-3.26399e-07
0.000162107
-3.25132e-07
-3.23631e-07
0.000162117
0.000166099
6.27876e-08
0.000166095
1.80213e-09
0.00016611
-7.32251e-08
0.000166124
-1.26812e-07
0.000166137
-1.72288e-07
0.000166153
-2.1312e-07
0.000166172
-2.46835e-07
0.000166193
-2.73299e-07
0.000166217
-2.94071e-07
0.000166244
-3.10362e-07
0.000166273
-3.23029e-07
0.000166304
-3.32969e-07
0.000166335
-3.4091e-07
0.000166368
-3.47159e-07
0.0001664
-3.51798e-07
0.000166433
-3.55031e-07
0.000166466
-3.57251e-07
0.000166499
-3.58823e-07
0.00016653
-3.59905e-07
0.000166561
-3.60479e-07
0.000166591