/*--------------------------------*- C++ -*----------------------------------*\
  =========                 |
  \\      /  F ield         | OpenFOAM: The Open Source CFD Toolbox
   \\    /   O peration     | Website:  https://openfoam.org
    \\  /    A nd           | Version:  10
     \\/     M anipulation  |
\*---------------------------------------------------------------------------*/
FoamFile
{
    format      ascii;
    class       volScalarField;
    location    "100";
    object      yPlus;
}
// * * * * * * * * * * * * * * * * * * * * * * * * * * * * * * * * * * * * * //

dimensions      [0 0 0 0 0 0 0];

internalField   uniform 0;

boundaryField
{
    outlet
    {
        type            calculated;
        value           uniform 0;
    }
    inlet
    {
        type            calculated;
        value           uniform 0;
    }
    lowerWall
    {
        type            calculated;
        value           nonuniform List<scalar> 
148
(
9.9937
9.87583
9.76655
9.65574
9.54325
9.43227
9.32599
9.22676
9.1358
9.05366
8.9804
8.91571
8.85908
8.80999
8.7678
8.73193
8.70179
8.67681
8.65641
8.64015
8.62757
8.61829
8.61193
8.60817
8.60667
8.60717
8.60929
8.6134
8.61626
8.63364
8.58312
8.8537
7.74096
9.15993
11.5716
13.9972
16.3281
18.0436
19.3392
20.2919
20.9701
21.5226
21.8534
21.8683
21.5492
20.7808
20.4829
10.7497
9.15993
20.5353
22.7703
24.3944
25.2491
25.4479
25.0901
24.3719
23.3491
22.0834
20.7479
19.8207
20.0084
21.2411
24.1358
32.1263
42.2465
51.101
58.5499
64.8434
70.2062
74.801
78.7423
82.1148
84.988
87.4244
89.4833
91.221
92.6893
93.9347
94.9967
95.9082
96.6961
97.3836
97.9911
98.5386
99.0501
99.5453
99.9945
100.391
100.726
100.983
101.144
101.183
101.076
100.793
100.305
99.5808
98.5997
97.3527
95.8613
94.2149
92.5732
91.0839
89.7211
88.0393
86.0485
83.8872
81.6495
79.3975
77.1736
75.006
72.9124
70.9029
68.9821
67.151
65.4085
63.7517
62.1773
60.6815
59.2602
57.9096
56.6262
55.4062
54.2465
53.1439
52.0958
51.0991
50.1516
49.251
48.3949
47.5813
46.8081
46.0735
45.376
44.7138
44.0849
43.488
42.9215
42.3846
41.8759
41.3946
40.9398
40.5105
40.106
39.7256
39.3691
39.0297
38.743
38.3072
)
;
    }
    upperWall
    {
        type            calculated;
        value           nonuniform List<scalar> 
133
(
30.6045
31.4255
32.2163
32.972
33.693
34.3806
35.0365
35.6618
36.2577
36.8252
37.3654
37.8793
38.368
38.8326
39.274
39.6932
40.091
40.4685
40.8266
41.1663
41.4885
41.7939
42.0833
42.3574
42.617
42.8628
43.0956
43.3162
43.5251
43.723
43.9104
44.0877
44.2556
44.44
44.6413
44.8358
45.023
45.203
45.3756
45.5406
45.698
45.8475
45.9889
46.1222
46.2471
46.3636
46.4715
46.5707
46.6611
46.7425
46.8148
46.8775
46.9305
46.9734
47.0058
47.0273
47.0373
47.0352
47.0203
46.9917
46.9485
46.8898
46.8144
46.7212
46.6088
46.4757
46.3205
46.1414
45.9367
45.7048
45.444
45.1529
44.8301
44.4747
44.0862
43.6647
43.2111
42.7272
42.216
41.6817
41.1297
40.5672
40.0026
39.4455
38.9063
38.3962
37.926
37.5056
37.1435
36.8455
36.6148
36.4516
36.3508
36.3077
36.3275
36.3969
36.5001
36.6228
36.7528
36.8805
36.999
37.1028
37.1881
37.2535
37.2989
37.3253
37.3345
37.3286
37.3101
37.2811
37.244
37.2009
37.1534
37.1034
37.052
37.0005
36.9498
36.9005
36.8534
36.8088
36.7671
36.7285
36.6931
36.661
36.6322
36.6067
36.5844
36.5652
36.5494
36.5362
36.527
36.5191
36.5164
)
;
    }
    frontAndBack
    {
        type            empty;
    }
}


// ************************************************************************* //
