/*--------------------------------*- C++ -*----------------------------------*\
  =========                 |
  \\      /  F ield         | OpenFOAM: The Open Source CFD Toolbox
   \\    /   O peration     | Website:  https://openfoam.org
    \\  /    A nd           | Version:  10
     \\/     M anipulation  |
\*---------------------------------------------------------------------------*/
FoamFile
{
    format      ascii;
    class       volScalarField;
    location    "1100";
    object      epsilon;
}
// * * * * * * * * * * * * * * * * * * * * * * * * * * * * * * * * * * * * * //

dimensions      [0 2 -3 0 0 0 0];

internalField   nonuniform List<scalar> 
6820
(
23.3479
22.8004
22.2986
21.7955
21.2906
20.7982
20.3323
19.9018
19.5115
19.1624
18.8537
18.5832
18.3484
18.146
17.9733
17.8273
17.7052
17.6046
17.5232
17.459
17.41
17.3745
17.3511
17.3384
17.3353
17.3407
17.3529
17.3778
17.3846
17.4548
17.4219
18.144
11.8616
5.2475
7.40632
8.5477
9.16315
9.54915
9.84017
10.0942
10.3367
10.5786
10.8237
11.0732
11.3269
11.5843
11.8448
12.1074
12.3716
12.6367
12.902
13.1672
13.4316
13.6949
13.957
14.2175
14.4766
14.7343
14.9913
15.2486
15.5098
15.7684
16.055
16.3651
16.8756
16.1147
3.71892
4.27986
4.80504
5.21572
5.52673
5.76828
5.96431
6.13121
6.2798
6.41718
6.54801
6.67534
6.80118
6.9268
7.05297
7.18015
7.30855
7.43825
7.56922
7.70138
7.83461
7.96879
8.1038
8.23956
8.37603
8.51329
8.65146
8.79149
8.93269
9.07858
9.23601
9.41694
9.52404
3.53759
3.62335
3.77159
3.9376
4.09552
4.23607
4.35826
4.46428
4.55717
4.63981
4.71467
4.78375
4.84863
4.91055
4.97045
5.02903
5.08684
5.14426
5.2016
5.25904
5.31675
5.37481
5.43331
5.49229
5.55183
5.61199
5.67288
5.73478
5.79785
5.86254
5.93046
6.00375
6.07505
3.52015
3.50151
3.51115
3.54398
3.59068
3.64316
3.69614
3.74678
3.79385
3.83708
3.87663
3.91293
3.94644
3.97766
4.00701
4.03489
4.06164
4.08754
4.11283
4.13769
4.16229
4.18676
4.2112
4.23571
4.26037
4.28526
4.31047
4.33612
4.36237
4.38936
4.41739
4.44705
4.47798
3.51931
3.48209
3.45345
3.43537
3.42736
3.42745
3.43325
3.44263
3.45396
3.46613
3.47842
3.49042
3.50192
3.51282
3.52313
3.53288
3.54215
3.55102
3.55956
3.56785
3.57597
3.58399
3.59197
3.59995
3.60801
3.61619
3.62454
3.63314
3.64205
3.65137
3.66117
3.67162
3.68285
3.51943
3.47964
3.44271
3.40975
3.38152
3.35816
3.33935
3.32445
3.31274
3.30352
3.29619
3.29027
3.28538
3.28124
3.27765
3.27448
3.27163
3.26903
3.26665
3.26445
3.26244
3.2606
3.25894
3.25746
3.25618
3.25512
3.25428
3.2537
3.25341
3.25343
3.25382
3.2546
3.25585
3.51947
3.47942
3.44105
3.40466
3.37058
3.33905
3.31022
3.28406
3.26044
3.23913
3.21989
3.20245
3.18656
3.17201
3.1586
3.14617
3.13458
3.12374
3.11354
3.10393
3.09483
3.0862
3.07801
3.07023
3.06284
3.05582
3.04916
3.04285
3.0369
3.03131
3.02609
3.02125
3.0168
3.51948
3.47941
3.44084
3.40381
3.36835
3.33454
3.30244
3.27211
3.24353
3.21669
3.19151
3.1679
3.14577
3.12498
3.10544
3.08704
3.06967
3.05324
3.03767
3.02289
3.00884
2.99545
2.98268
2.97048
2.95882
2.94767
2.937
2.92679
2.91702
2.90768
2.89877
2.89027
2.88219
3.51948
3.4794
3.44081
3.40368
3.36795
3.33361
3.30064
3.26903
3.23878
3.20985
3.18224
3.15591
3.13081
3.10689
3.0841
3.06238
3.04166
3.0219
3.00303
2.98499
2.96774
2.95123
2.93541
2.92024
2.90569
2.89173
2.87832
2.86544
2.85306
2.84117
2.82974
2.81877
2.80825
3.51948
3.4794
3.4408
3.40365
3.36788
3.33343
3.30026
3.26833
3.23759
3.20802
3.17957
3.15223
3.12595
3.10071
3.07646
3.05318
3.03081
3.00933
2.98869
2.96886
2.94979
2.93146
2.91382
2.89685
2.88051
2.86478
2.84962
2.83502
2.82095
2.80739
2.79432
2.78172
2.76959
3.51948
3.4794
3.4408
3.40364
3.36785
3.33339
3.30018
3.26817
3.23731
3.20756
3.17888
3.15122
3.12454
3.09882
3.07402
3.0501
3.02704
3.0048
2.98335
2.96266
2.9427
2.92343
2.90485
2.88691
2.86958
2.85286
2.8367
2.8211
2.80603
2.79147
2.7774
2.76382
2.75069
3.51948
3.4794
3.44079
3.40363
3.36784
3.33337
3.30015
3.26812
3.23724
3.20744
3.17869
3.15094
3.12415
3.09828
3.0733
3.04916
3.02585
3.00332
2.98154
2.9605
2.94015
2.92048
2.90146
2.88306
2.86527
2.84805
2.83139
2.81528
2.79968
2.78458
2.76998
2.75584
2.74216
3.51948
3.47939
3.44079
3.40362
3.36783
3.33335
3.30013
3.26809
3.2372
3.20739
3.17863
3.15085
3.12403
3.09812
3.07308
3.04888
3.02548
3.00286
2.98097
2.9598
2.93931
2.91948
2.90028
2.8817
2.8637
2.84627
2.82939
2.81304
2.7972
2.78185
2.76698
2.75258
2.73862
3.51947
3.47939
3.44079
3.40362
3.36782
3.33334
3.30011
3.26807
3.23717
3.20736
3.17859
3.15081
3.12398
3.09805
3.073
3.04878
3.02536
3.0027
2.98078
2.95956
2.93903
2.91914
2.89989
2.88124
2.86317
2.84566
2.82869
2.81224
2.7963
2.78085
2.76586
2.75134
2.73725
3.51947
3.47939
3.44078
3.40361
3.36781
3.33333
3.30009
3.26805
3.23715
3.20734
3.17856
3.15077
3.12394
3.09801
3.07295
3.04872
3.02529
3.00263
2.98069
2.95947
2.93892
2.91902
2.89974
2.88107
2.86297
2.84544
2.82844
2.81196
2.79598
2.78049
2.76546
2.75089
2.73675
3.51947
3.47939
3.44078
3.40361
3.36781
3.33332
3.30008
3.26804
3.23713
3.20731
3.17853
3.15074
3.1239
3.09797
3.07291
3.04868
3.02524
3.00258
2.98064
2.95941
2.93885
2.91895
2.89967
2.88099
2.86288
2.84534
2.82833
2.81184
2.79585
2.78034
2.7653
2.75071
2.73655
3.51947
3.47939
3.44078
3.4036
3.3678
3.33331
3.30007
3.26802
3.23712
3.20729
3.17851
3.15072
3.12388
3.09794
3.07287
3.04864
3.02521
3.00253
2.9806
2.95936
2.9388
2.9189
2.89961
2.88093
2.86283
2.84528
2.82827
2.81177
2.79578
2.78027
2.76522
2.75062
2.73645
3.51947
3.47939
3.44078
3.4036
3.3678
3.3333
3.30006
3.26801
3.2371
3.20728
3.17849
3.1507
3.12385
3.09791
3.07284
3.04861
3.02517
3.0025
2.98056
2.95932
2.93876
2.91885
2.89957
2.88088
2.86278
2.84523
2.82822
2.81172
2.79572
2.78021
2.76515
2.75055
2.73638
3.51947
3.47939
3.44077
3.4036
3.36779
3.3333
3.30005
3.268
3.23709
3.20726
3.17847
3.15067
3.12383
3.09789
3.07282
3.04858
3.02514
3.00246
2.98052
2.95928
2.93872
2.91881
2.89953
2.88084
2.86273
2.84518
2.82817
2.81167
2.79567
2.78015
2.7651
2.75049
2.73632
3.51947
3.47939
3.44077
3.40359
3.36779
3.33329
3.30005
3.26799
3.23708
3.20725
3.17846
3.15066
3.12381
3.09786
3.07279
3.04855
3.02511
3.00243
2.98049
2.95925
2.93869
2.91878
2.89949
2.8808
2.86269
2.84514
2.82813
2.81163
2.79562
2.7801
2.76504
2.75043
2.73625
3.51947
3.47938
3.44077
3.40359
3.36779
3.33329
3.30004
3.26798
3.23707
3.20724
3.17844
3.15064
3.12379
3.09784
3.07277
3.04853
3.02508
3.0024
2.98046
2.95922
2.93866
2.91874
2.89945
2.88077
2.86266
2.8451
2.82808
2.81158
2.79558
2.78005
2.76499
2.75038
2.73619
3.51947
3.47938
3.44077
3.40359
3.36778
3.33328
3.30004
3.26798
3.23706
3.20723
3.17843
3.15063
3.12377
3.09783
3.07275
3.04851
3.02506
3.00238
2.98043
2.95919
2.93863
2.91871
2.89942
2.88073
2.86262
2.84506
2.82804
2.81154
2.79553
2.78001
2.76494
2.75032
2.73613
3.51947
3.47938
3.44077
3.40359
3.36778
3.33328
3.30003
3.26797
3.23705
3.20722
3.17842
3.15062
3.12376
3.09781
3.07273
3.04849
3.02504
3.00236
2.98041
2.95917
2.9386
2.91868
2.89939
2.8807
2.86259
2.84503
2.82801
2.8115
2.79549
2.77996
2.76489
2.75027
2.73607
3.51947
3.47938
3.44077
3.40359
3.36778
3.33328
3.30003
3.26797
3.23705
3.20721
3.17841
3.15061
3.12375
3.0978
3.07272
3.04847
3.02502
3.00234
2.98039
2.95915
2.93858
2.91866
2.89937
2.88067
2.86256
2.845
2.82797
2.81146
2.79545
2.77992
2.76484
2.75022
2.73602
3.51947
3.47938
3.44077
3.40359
3.36778
3.33328
3.30003
3.26796
3.23704
3.2072
3.1784
3.1506
3.12374
3.09779
3.07271
3.04846
3.02501
3.00232
2.98037
2.95913
2.93856
2.91864
2.89934
2.88065
2.86253
2.84497
2.82794
2.81143
2.79541
2.77988
2.7648
2.75017
2.73596
3.51947
3.47938
3.44077
3.40359
3.36778
3.33328
3.30002
3.26796
3.23704
3.2072
3.1784
3.15059
3.12373
3.09778
3.0727
3.04845
3.025
3.00231
2.98036
2.95911
2.93854
2.91862
2.89932
2.88062
2.86251
2.84494
2.82791
2.8114
2.79538
2.77984
2.76476
2.75012
2.73591
3.51947
3.47938
3.44077
3.40359
3.36778
3.33327
3.30002
3.26796
3.23703
3.2072
3.17839
3.15059
3.12373
3.09777
3.07269
3.04844
3.02499
3.0023
2.98035
2.9591
2.93853
2.9186
2.8993
2.88061
2.86248
2.84492
2.82789
2.81137
2.79535
2.7798
2.76472
2.75008
2.73587
3.51947
3.47938
3.44077
3.40359
3.36778
3.33327
3.30002
3.26796
3.23703
3.20719
3.17839
3.15058
3.12372
3.09777
3.07268
3.04843
3.02498
3.00229
2.98034
2.95909
2.93852
2.91859
2.89929
2.88059
2.86247
2.8449
2.82787
2.81135
2.79532
2.77977
2.76469
2.75005
2.73583
3.51947
3.47938
3.44077
3.40359
3.36778
3.33327
3.30002
3.26796
3.23703
3.20719
3.17839
3.15058
3.12372
3.09777
3.07268
3.04843
3.02498
3.00229
2.98033
2.95908
2.93851
2.91858
2.89928
2.88058
2.86246
2.84489
2.82785
2.81133
2.7953
2.77975
2.76467
2.75002
2.7358
3.51947
3.47938
3.44077
3.40359
3.36778
3.33327
3.30002
3.26796
3.23703
3.20719
3.17839
3.15058
3.12372
3.09777
3.07268
3.04843
3.02498
3.00229
2.98033
2.95908
2.93851
2.91858
2.89928
2.88058
2.86245
2.84488
2.82785
2.81133
2.7953
2.77975
2.76466
2.75002
2.7358
3.51947
3.47938
3.44077
3.40359
3.36778
3.33327
3.30002
3.26796
3.23703
3.20719
3.17839
3.15058
3.12373
3.09777
3.07269
3.04844
3.02499
3.00231
2.98036
2.95911
2.93854
2.91862
2.89932
2.88063
2.86251
2.84495
2.82792
2.81141
2.79539
2.77985
2.76477
2.75014
2.73593
3.51947
3.47938
3.44077
3.40359
3.36778
3.33327
3.30002
3.26796
3.23704
3.2072
3.1784
3.1506
3.12375
3.0978
3.07273
3.0485
3.02506
3.0024
2.98047
2.95925
2.9387
2.91882
2.89956
2.8809
2.86283
2.84531
2.82833
2.81187
2.79591
2.78043
2.76542
2.75085
2.73671
3.51947
3.47938
3.44077
3.40359
3.36778
3.33329
3.30004
3.268
3.2371
3.2073
3.17855
3.1508
3.12401
3.09814
3.07315
3.04901
3.02569
3.00315
2.98135
2.96028
2.9399
2.92019
2.90112
2.88266
2.8648
2.8475
2.83076
2.81454
2.79883
2.7836
2.76885
2.75456
2.74069
3.51947
3.47938
3.44078
3.40362
3.36785
3.33342
3.30028
3.26838
3.23767
3.2081
3.17963
3.15221
3.12582
3.1004
3.07592
3.05235
3.02963
3.00775
2.98667
2.96635
2.94676
2.92787
2.90966
2.89209
2.87513
2.85876
2.84296
2.8277
2.81296
2.79872
2.78495
2.77164
2.75876
3.51947
3.47942
3.44096
3.40413
3.36893
3.33532
3.30325
3.27266
3.2435
3.21571
3.18924
3.16403
3.14003
3.11717
3.0954
3.07467
3.05491
3.03608
3.01811
3.00097
2.9846
2.96895
2.95399
2.93968
2.92597
2.91283
2.90022
2.88813
2.87651
2.86534
2.8546
2.84426
2.83429
3.5195
3.48076
3.44539
3.41321
3.38396
3.35745
3.3335
3.31193
3.29257
3.27522
3.25971
3.24584
3.23346
3.22238
3.21247
3.20359
3.19562
3.18845
3.18197
3.17611
3.17078
3.16591
3.16146
3.15735
3.15355
3.15002
3.14671
3.1436
3.14067
3.13787
3.13521
3.13265
3.13018
3.52507
3.51486
3.52101
3.53645
3.55828
3.58498
3.61551
3.64896
3.68452
3.7215
3.75936
3.79766
3.83602
3.87417
3.91189
3.94899
3.98535
4.02086
4.05546
4.08909
4.12171
4.15331
4.18388
4.21342
4.24193
4.26943
4.29594
4.32147
4.34605
4.36971
4.39247
4.41436
4.43541
3.84201
4.38784
4.87757
5.34297
5.79549
6.23655
6.66409
7.07674
7.47447
7.85785
8.22763
8.58455
8.92936
9.26276
9.58539
9.89779
10.2004
10.4938
10.7782
11.054
11.3216
11.5811
11.833
12.0773
12.3145
12.5446
12.768
12.9848
13.1953
13.3997
13.5982
13.791
13.9783
30.2673
32.7691
35.3054
37.8488
40.3863
42.9101
45.4131
47.8884
50.3293
52.73
55.0852
57.3901
59.641
61.8344
63.9678
66.0389
68.0462
69.9886
71.8655
73.6766
75.422
77.1022
78.7177
80.2694
81.7587
83.1866
84.5546
85.8642
87.1171
88.3149
89.4594
90.5521
91.5962
127.038
323.299
499.337
636.578
731.864
777.74
786.482
780.784
773.103
763.074
746.524
721.588
688.872
650.102
607.303
562.876
519.285
478.633
442.301
410.904
384.455
362.586
344.722
330.2
318.34
308.49
300.059
292.535
285.494
278.589
271.54
264.133
256.226
247.757
238.755
229.332
219.666
209.975
200.485
191.405
182.915
175.155
168.233
162.227
157.188
153.135
150.038
147.804
146.266
145.183
144.261
143.195
141.703
139.559
136.614
132.795
128.106
122.61
116.419
109.679
102.561
95.2432
87.9065
80.7219
73.8426
67.3978
61.4881
56.1846
51.5299
47.5426
44.2229
41.5582
39.5265
38.0953
37.2155
36.8133
36.7855
37.0048
37.3344
37.6461
37.8358
37.8303
37.5886
37.0974
36.3675
35.4316
34.3464
33.198
32.1068
31.2173
30.6558
30.4703
30.6037
30.9271
31.3003
31.6133
31.8031
31.8271
31.7498
31.2269
21.7188
37.8635
57.3509
76.9678
102.536
141.315
194.345
257.358
324.229
387.851
439.791
473.101
485.426
478.761
458.441
431.114
402.073
374.65
350.506
330.194
313.635
300.435
290.062
281.928
275.436
270.006
265.101
260.251
255.073
249.279
242.675
235.167
226.754
217.528
207.661
197.389
186.986
176.731
166.881
157.652
149.209
141.666
135.094
129.537
125.015
121.524
119.027
117.432
116.58
116.237
116.112
115.889
115.271
114.013
111.949
108.995
105.15
100.48
95.103
89.1754
82.8758
76.3919
69.908
63.5952
57.6021
52.0493
47.026
42.5895
38.7685
35.5683
32.9778
30.9767
29.5396
28.636
28.2241
28.2415
28.5984
29.1796
29.8582
30.5123
31.041
31.3729
31.4672
31.3109
30.9149
30.3127
29.5618
28.7493
27.9942
27.435
27.1878
27.2906
27.6802
28.2274
28.7958
29.2804
29.6228
29.7842
29.8258
29.4566
9.66329
10.508
12.1507
14.2203
16.5606
20.544
28.5408
42.8988
64.8366
93.1518
124.146
152.916
175.785
191.819
201.592
206.129
207.057
206.029
204.364
202.916
202.108
202.048
202.638
203.655
204.794
205.705
206.019
205.395
203.55
200.297
195.552
189.351
181.834
173.236
163.863
154.058
144.173
134.534
125.415
117.027
109.512
102.95
97.3791
92.8038
89.2145
86.5904
84.8934
84.0522
83.941
84.3659
85.0685
85.7515
86.1177
85.9107
84.9446
83.1185
80.4154
76.8925
72.6644
67.8865
62.7377
57.4046
52.0686
46.8937
42.0189
37.5516
33.5662
30.1048
27.1816
24.7898
22.9097
21.5161
20.5845
20.0915
20.0099
20.2983
20.8909
21.6956
22.6025
23.5004
24.2925
24.9069
25.3003
25.4559
25.381
25.1055
24.6835
24.1983
23.7628
23.5062
23.5354
23.8831
24.4886
25.2283
25.9719
26.6186
27.1121
27.4154
27.5825
27.3846
6.13446
6.23836
6.45226
6.74532
7.03354
7.35073
7.94072
9.25438
11.8423
16.0968
21.9482
28.7689
35.6227
41.7717
47.2428
52.4555
57.9339
64.0766
71.0279
78.6945
86.8418
95.1893
103.46
111.389
118.704
125.114
130.311
134.002
135.948
136.002
134.142
130.475
125.231
118.736
111.375
103.552
95.6505
88.0006
80.8617
74.4137
68.7622
63.9519
59.9841
56.8359
54.4754
52.8717
51.995
51.8063
52.2376
53.1701
54.4227
55.7593
56.9176
57.649
57.7547
57.1101
55.6721
53.4737
50.6099
47.2201
43.4692
39.5307
35.5715
31.7396
28.1558
24.9084
22.0531
19.6154
17.5966
15.9814
14.7458
13.8652
13.3194
13.0953
13.183
13.5668
14.2131
15.0625
16.0322
17.0283
17.9612
18.7589
19.3728
19.7793
19.9778
19.9902
19.8623
19.6686
19.5121
19.5122
19.7678
20.3113
21.0889
21.9866
22.8813
23.6757
24.3139
24.7592
25.0542
25.0409
4.51049
4.54734
4.59922
4.67128
4.74585
4.8026
4.85096
4.9461
5.17953
5.64887
6.41988
7.49524
8.79915
10.1683
11.3961
12.5561
13.8382
15.4825
17.7341
20.7902
24.7551
29.6188
35.2599
41.4611
47.9255
54.2934
60.1657
65.1409
68.8663
71.0888
71.6941
70.7203
68.3455
64.8529
60.5842
55.8913
51.0954
46.4601
42.1782
38.3723
35.1042
32.39
30.2152
28.5503
27.3629
26.6264
26.3238
26.4452
26.9771
27.884
29.089
30.4622
31.8275
32.987
33.7566
33.9972
33.634
32.6616
31.1356
29.1586
26.8615
24.3859
21.8679
19.4261
17.1533
15.1134
13.3421
11.8512
10.6351
9.67756
8.95843
8.45908
8.1668
8.07714
8.19308
8.5194
9.05236
9.76884
10.6214
11.5429
12.4592
13.302
14.0188
14.5773
14.9664
15.1959
15.2989
15.3354
15.3948
15.5853
16.001
16.6785
17.5746
18.5873
19.601
20.5211
21.2902
21.871
22.2909
22.4694
3.69572
3.70969
3.72562
3.74722
3.77337
3.79734
3.81441
3.8307
3.86417
3.93662
4.06584
4.26259
4.52478
4.82258
5.0956
5.34655
5.60759
5.93167
6.38569
7.04329
7.97723
9.25064
10.9062
12.9532
15.3539
18.0117
20.7678
23.412
25.711
27.4502
28.4761
28.7252
28.2317
27.1115
25.5321
23.678
21.7211
19.8018
18.021
16.4412
15.093
13.9838
13.1066
12.4473
11.9902
11.7232
11.6399
11.7411
12.0329
12.5205
13.1968
14.0289
14.9484
15.8535
16.6245
17.1478
17.3397
17.1609
16.6197
15.7655
14.6759
13.4413
12.1513
10.8834
9.69742
8.63257
7.70965
6.93463
6.30348
5.80672
5.43338
5.17399
5.02301
4.98067
5.05378
5.25429
5.59395
6.07585
6.68614
7.39104
8.14157
8.8833
9.56667
10.1544
10.6253
10.9762
11.2243
11.4112
11.6072
11.9062
12.3994
13.1324
14.0779
15.1484
16.2363
17.2485
18.1248
18.8253
19.3596
19.7282
3.25759
3.25952
3.26167
3.26539
3.27157
3.27918
3.28608
3.292
3.30017
3.31578
3.34307
3.38455
3.44019
3.50378
3.56371
3.61859
3.67486
3.74553
3.84817
4.00266
4.22918
4.54637
4.9695
5.50781
6.16089
6.91413
7.73445
8.569
9.34938
10.0023
10.4644
10.6957
10.6877
10.4625
10.0647
9.55021
8.97495
8.3874
7.82448
7.31109
6.86167
6.48272
6.17535
5.93761
5.76625
5.65821
5.61175
5.62739
5.7084
5.86019
6.08795
6.39182
6.76063
7.16692
7.5668
7.90657
8.13439
8.21235
8.12455
7.87881
7.50239
7.03434
6.51702
5.98917
5.48157
5.01552
4.60338
4.25043
3.95709
3.72106
3.53906
3.40825
3.32736
3.29781
3.32479
3.41768
3.58881
3.84967
4.20504
4.6475
5.15577
5.6978
6.23736
6.74112
7.18425
7.55416
7.85358
8.10485
8.35548
8.67946
9.16143
9.85923
10.7684
11.8216
12.9218
13.9774
14.9235
15.7166
16.3451
16.89
3.01199
3.00669
3.00147
2.99673
2.9931
2.9907
2.98907
2.98772
2.98688
2.98754
2.99063
2.9965
3.00473
3.01351
3.02039
3.02498
3.02927
3.03748
3.05554
3.09017
3.14808
3.23511
3.35564
3.51192
3.7033
3.92533
4.16886
4.41974
4.65968
4.8685
5.02762
5.12365
5.15083
5.11164
5.01543
4.87592
4.70835
4.52719
4.34462
4.16997
4.00968
3.86777
3.74637
3.64627
3.56745
3.5095
3.47201
3.45488
3.45865
3.48465
3.53482
3.6108
3.71227
3.83481
3.96831
4.09707
4.20231
4.26626
4.27649
4.22861
4.12653
3.98069
3.8051
3.6143
3.42116
3.23567
3.06472
2.91239
2.78068
2.67021
2.58093
2.51266
2.46563
2.44106
2.44181
2.47299
2.54224
2.65876
2.83084
3.06231
3.34944
3.68003
4.03522
4.39332
4.73424
5.04345
5.31539
5.55741
5.7953
6.07872
6.47743
7.05643
7.83838
8.78569
9.81931
10.8522
11.8148
12.6588
13.3498
14.0419
2.8732
2.86321
2.85331
2.84364
2.83449
2.82608
2.81843
2.81137
2.80476
2.7986
2.79296
2.78775
2.78258
2.7767
2.76935
2.76038
2.75042
2.74104
2.73452
2.7336
2.74107
2.75939
2.79036
2.83484
2.89252
2.96167
3.03905
3.11991
3.1983
3.26775
3.32219
3.35692
3.36934
3.35921
3.32851
3.28078
3.22047
3.15218
3.08016
3.008
2.9385
2.87367
2.81484
2.76281
2.71796
2.6804
2.6501
2.62698
2.61103
2.60241
2.6015
2.60879
2.62454
2.64825
2.678
2.7101
2.73928
2.75963
2.76588
2.75457
2.7248
2.67811
2.6179
2.54855
2.47452
2.39978
2.32749
2.2599
2.19851
2.14422
2.09756
2.05892
2.02875
2.00782
1.99751
2.00022
2.01973
2.06123
2.13064
2.23312
2.37108
2.54262
2.74114
2.95642
3.17667
3.39122
3.59307
3.78188
3.96806
4.17866
4.46118
4.87459
5.46178
6.22076
7.10239
8.0336
8.94456
9.78319
10.492
11.2846
2.79647
2.78331
2.77026
2.75737
2.74477
2.73262
2.72101
2.70993
2.69928
2.68895
2.67882
2.6687
2.65834
2.64736
2.6354
2.62235
2.60838
2.59401
2.58015
2.56794
2.55863
2.55343
2.55329
2.55879
2.57001
2.58639
2.60678
2.62941
2.65207
2.6723
2.68777
2.69653
2.69731
2.68964
2.67382
2.65077
2.62187
2.58867
2.55275
2.51552
2.4782
2.44174
2.40686
2.37405
2.3436
2.31569
2.29037
2.26765
2.24752
2.22996
2.21504
2.20286
2.19355
2.18711
2.18328
2.18128
2.17984
2.17727
2.17177
2.16184
2.14656
2.12576
2.09996
2.07021
2.03779
2.00402
1.97005
1.93686
1.90516
1.87547
1.84818
1.82358
1.802
1.78384
1.76975
1.76078
1.75861
1.76573
1.7854
1.82118
1.87606
1.95143
2.04635
2.15742
2.27942
2.40649
2.53367
2.65857
2.78385
2.92116
3.09629
3.35049
3.72891
4.25658
4.92071
5.67533
6.4612
7.22786
7.89976
8.72818
2.75596
2.7407
2.72553
2.7105
2.69565
2.6811
2.66692
2.65313
2.63973
2.62661
2.61366
2.60072
2.58761
2.5741
2.56
2.54522
2.52977
2.51383
2.49773
2.48194
2.46701
2.45354
2.44205
2.43294
2.42642
2.42241
2.42058
2.4203
2.42073
2.42088
2.41975
2.41644
2.41029
2.40089
2.38813
2.37219
2.35343
2.33235
2.30953
2.28552
2.26084
2.23592
2.21113
2.18673
2.16292
2.13984
2.11755
2.09611
2.07554
2.05586
2.03712
2.01937
2.00269
1.98717
1.97284
1.95962
1.94728
1.93543
1.92356
1.91113
1.8977
1.883
1.86695
1.84966
1.83135
1.81234
1.79293
1.77341
1.754
1.7349
1.71627
1.69824
1.68096
1.66463
1.64953
1.63611
1.62508
1.61755
1.61508
1.61962
1.63326
1.65769
1.69375
1.74105
1.79797
1.86203
1.93059
2.00171
2.07532
2.15528
2.25279
2.39018
2.6
2.91398
3.34578
3.88148
4.48459
5.11655
5.69503
6.48299
2.73592
2.71933
2.70282
2.68641
2.67013
2.65406
2.63823
2.62271
2.60747
2.59248
2.57766
2.56289
2.54804
2.53295
2.51751
2.50165
2.48535
2.46866
2.45171
2.43469
2.41786
2.4015
2.3859
2.3713
2.3579
2.34577
2.33488
2.32504
2.31596
2.30725
2.29847
2.28918
2.27901
2.26766
2.25497
2.24085
2.22536
2.2086
2.19073
2.17196
2.15248
2.13249
2.11215
2.09162
2.071
2.05039
2.02986
2.00947
1.98927
1.96931
1.94967
1.93042
1.91165
1.89348
1.87599
1.85926
1.84333
1.82815
1.81363
1.79962
1.78593
1.7724
1.75889
1.7453
1.73155
1.71761
1.70347
1.68912
1.67456
1.6598
1.64485
1.62973
1.61448
1.59917
1.58391
1.56889
1.55442
1.54096
1.52923
1.52016
1.51491
1.51469
1.52048
1.53282
1.55164
1.57629
1.60573
1.63893
1.67537
1.71592
1.7645
1.83081
1.93244
2.09292
2.33314
2.66063
3.06368
3.52365
3.96663
4.64106
2.72673
2.70938
2.69209
2.67486
2.65772
2.64073
2.62391
2.60729
2.5909
2.5747
2.55865
2.54267
2.52666
2.51051
2.49416
2.47753
2.46061
2.44341
2.42599
2.40844
2.39089
2.37349
2.35639
2.33974
2.3237
2.30836
2.29376
2.27989
2.26666
2.25393
2.2415
2.22916
2.21669
2.20388
2.19057
2.17664
2.16202
2.14668
2.13063
2.11391
2.09659
2.07872
2.06039
2.04167
2.02263
2.00333
1.98382
1.96417
1.94444
1.92469
1.90502
1.88551
1.86628
1.84745
1.82913
1.81142
1.79442
1.77818
1.76271
1.74798
1.73392
1.72045
1.70743
1.69473
1.68224
1.66981
1.65734
1.64471
1.63184
1.61866
1.60509
1.59111
1.57669
1.56184
1.54659
1.53102
1.51526
1.49952
1.48411
1.46948
1.45621
1.44497
1.43645
1.43126
1.42976
1.43205
1.43795
1.44712
1.45926
1.47445
1.49379
1.52075
1.56296
1.63322
1.74734
1.91863
2.15039
2.44173
2.73776
3.25047
2.72286
2.70511
2.68739
2.66972
2.65211
2.6346
2.6172
2.59996
2.58287
2.56592
2.54909
2.53232
2.51556
2.49871
2.48174
2.46458
2.44723
2.42967
2.41195
2.39411
2.37623
2.3584
2.34072
2.32329
2.30622
2.28958
2.27345
2.25785
2.24278
2.22818
2.21396
2.20002
2.18621
2.1724
2.15845
2.14424
2.12967
2.11468
2.09921
2.08324
2.06677
2.04982
2.03241
2.01457
1.99634
1.97776
1.95889
1.93976
1.92045
1.90102
1.88157
1.8622
1.84302
1.82415
1.80572
1.78782
1.77057
1.75403
1.73824
1.7232
1.70889
1.69522
1.68212
1.66945
1.6571
1.64491
1.63275
1.62049
1.60801
1.59522
1.58203
1.56836
1.55418
1.53946
1.5242
1.50843
1.4922
1.47562
1.45884
1.44209
1.42564
1.40986
1.39514
1.3819
1.3705
1.3612
1.35416
1.34938
1.34683
1.3465
1.34865
1.35433
1.36632
1.39019
1.43459
1.50977
1.62297
1.78205
1.95217
2.29506
2.72134
2.70341
2.68549
2.6676
2.64975
2.63196
2.61426
2.59665
2.57916
2.56177
2.54446
2.52721
2.50997
2.49268
2.47531
2.45781
2.44017
2.42238
2.40447
2.38647
2.36843
2.35041
2.33249
2.31474
2.29723
2.28005
2.26324
2.24685
2.23089
2.21535
2.20019
2.18534
2.17071
2.15621
2.14172
2.12713
2.11236
2.09733
2.08196
2.06621
2.05006
2.03349
2.01651
1.99912
1.98134
1.96321
1.94475
1.92602
1.90708
1.88798
1.86882
1.8497
1.83073
1.81202
1.79369
1.77585
1.75859
1.74198
1.72607
1.71086
1.69633
1.68243
1.66909
1.65618
1.6436
1.63121
1.61888
1.60649
1.59391
1.58104
1.56778
1.55408
1.53987
1.52511
1.50979
1.49392
1.47752
1.46066
1.44342
1.42593
1.40835
1.39086
1.37369
1.35708
1.34129
1.32655
1.31303
1.30087
1.29015
1.2809
1.27321
1.26738
1.26428
1.26595
1.27618
1.30062
1.34483
1.41765
1.49948
1.69926
2.72077
2.70276
2.68475
2.66675
2.64879
2.63086
2.613
2.5952
2.57748
2.55983
2.54224
2.5247
2.50716
2.48959
2.47197
2.45426
2.43645
2.41853
2.40052
2.38245
2.36434
2.34624
2.32822
2.31032
2.29262
2.27517
2.25802
2.24122
2.22478
2.2087
2.19297
2.17754
2.16236
2.14734
2.1324
2.11746
2.10242
2.08721
2.07176
2.05603
2.03996
2.02355
2.00677
1.98963
1.97214
1.9543
1.93616
1.91775
1.89912
1.88034
1.86148
1.84264
1.82392
1.80543
1.78726
1.76954
1.75233
1.73571
1.71972
1.70438
1.68965
1.67551
1.66188
1.64866
1.63575
1.62303
1.61038
1.59768
1.58482
1.5717
1.55824
1.54436
1.53
1.51513
1.49973
1.48379
1.46733
1.45039
1.43304
1.41535
1.39743
1.37939
1.36137
1.34352
1.32599
1.30893
1.2925
1.2768
1.26193
1.24796
1.23494
1.22297
1.21232
1.20364
1.19832
1.19888
1.20824
1.23266
1.26225
1.36042
2.72055
2.7025
2.68445
2.6664
2.64838
2.63039
2.61243
2.59452
2.57667
2.55887
2.54111
2.52338
2.50566
2.48793
2.47015
2.45231
2.4344
2.41642
2.39836
2.38026
2.36213
2.34402
2.32596
2.30801
2.29021
2.27262
2.25528
2.23822
2.22147
2.20504
2.18892
2.17308
2.15747
2.14204
2.12673
2.11145
2.09613
2.08071
2.06512
2.04931
2.03324
2.01688
2.00021
1.98322
1.96591
1.9483
1.93041
1.91227
1.89392
1.87542
1.85685
1.83829
1.81982
1.80154
1.78356
1.76596
1.74882
1.73221
1.71616
1.70069
1.68578
1.6714
1.65748
1.64393
1.63068
1.6176
1.6046
1.59155
1.57837
1.56496
1.55124
1.53714
1.52261
1.5076
1.49211
1.47611
1.45963
1.44269
1.42534
1.40765
1.3897
1.37156
1.35333
1.3351
1.31698
1.29907
1.28147
1.26425
1.24749
1.23124
1.21555
1.20047
1.18608
1.17259
1.16046
1.15063
1.14431
1.14484
1.14803
1.18357
2.72044
2.70237
2.68429
2.66623
2.64817
2.63014
2.61213
2.59415
2.57622
2.55832
2.54045
2.5226
2.50476
2.48691
2.46904
2.45112
2.43316
2.41514
2.39707
2.37896
2.36084
2.34273
2.32467
2.3067
2.28886
2.27118
2.25371
2.23648
2.21952
2.20283
2.1864
2.17024
2.15429
2.13852
2.12288
2.1073
2.09172
2.07608
2.06033
2.04441
2.02829
2.01193
1.99531
1.97842
1.96125
1.94381
1.92612
1.90821
1.89011
1.87188
1.85357
1.83526
1.81703
1.79896
1.78116
1.76368
1.74662
1.73002
1.71392
1.69833
1.68325
1.66863
1.65444
1.64059
1.627
1.61358
1.60023
1.58686
1.57336
1.55966
1.54568
1.53136
1.51665
1.5015
1.48591
1.46986
1.45337
1.43646
1.41916
1.40154
1.38365
1.36557
1.34736
1.3291
1.31087
1.29272
1.27473
1.25696
1.23943
1.22221
1.2053
1.18875
1.17259
1.15689
1.14181
1.12766
1.11488
1.10482
1.09656
1.09825
2.72036
2.70227
2.68419
2.6661
2.64803
2.62996
2.61192
2.5939
2.5759
2.55793
2.53998
2.52205
2.50413
2.4862
2.46826
2.45029
2.43228
2.41424
2.39617
2.37807
2.35996
2.34187
2.32382
2.30585
2.28797
2.27024
2.25269
2.23533
2.2182
2.2013
2.18464
2.1682
2.15197
2.13591
2.11998
2.10413
2.08831
2.07247
2.05655
2.04051
2.02431
2.00793
1.99133
1.9745
1.95744
1.94014
1.92262
1.90491
1.88703
1.86902
1.85095
1.83287
1.81486
1.797
1.77935
1.762
1.74501
1.72842
1.71228
1.69659
1.68135
1.66653
1.65208
1.63795
1.62406
1.61032
1.59665
1.58297
1.56917
1.5552
1.54098
1.52645
1.51157
1.4963
1.48062
1.46452
1.44802
1.43113
1.4139
1.39636
1.37858
1.3606
1.3425
1.32433
1.30614
1.288
1.26996
1.25204
1.23427
1.21669
1.1993
1.18213
1.16519
1.14853
1.13219
1.11628
1.10097
1.08658
1.074
1.05956
2.72028
2.70219
2.6841
2.666
2.6479
2.62981
2.61174
2.59368
2.57564
2.55762
2.53961
2.52162
2.50363
2.48564
2.46765
2.44963
2.4316
2.41354
2.39546
2.37737
2.35927
2.3412
2.32316
2.30518
2.28729
2.26952
2.25189
2.23444
2.21717
2.2001
2.18325
2.16659
2.15012
2.13381
2.11763
2.10153
2.08549
2.06945
2.05337
2.03721
2.02093
2.0045
1.9879
1.97111
1.95413
1.93694
1.91957
1.90202
1.88433
1.86653
1.84867
1.83081
1.813
1.79531
1.77782
1.76058
1.74365
1.72708
1.7109
1.69512
1.67975
1.66474
1.65008
1.63569
1.62153
1.6075
1.59354
1.57957
1.56551
1.55129
1.53684
1.52212
1.50708
1.49169
1.47593
1.45979
1.44329
1.42643
1.40926
1.3918
1.37412
1.35627
1.33828
1.32023
1.30216
1.28411
1.26612
1.24823
1.23044
1.21278
1.19525
1.17786
1.16064
1.14359
1.12674
1.11013
1.09388
1.0778
1.06377
1.04246
2.72021
2.70211
2.68401
2.66589
2.64778
2.62967
2.61157
2.59348
2.5754
2.55734
2.53929
2.52124
2.5032
2.48517
2.46713
2.44908
2.43102
2.41294
2.39485
2.37676
2.35867
2.3406
2.32257
2.30459
2.28668
2.26887
2.25119
2.23365
2.21627
2.19907
2.18204
2.1652
2.14852
2.13199
2.11559
2.09929
2.08305
2.06683
2.05059
2.03431
2.01794
2.00146
1.98485
1.96808
1.95115
1.93406
1.9168
1.8994
1.88187
1.86425
1.84658
1.8289
1.81127
1.79375
1.77639
1.75925
1.74239
1.72584
1.70964
1.69379
1.67829
1.66312
1.64826
1.63365
1.61924
1.60496
1.59074
1.57651
1.5622
1.54776
1.53311
1.51822
1.50304
1.48754
1.4717
1.45553
1.43902
1.42219
1.40507
1.3877
1.37012
1.35237
1.33451
1.31659
1.29864
1.2807
1.26281
1.245
1.22727
1.20963
1.19211
1.17469
1.15739
1.14023
1.12322
1.10636
1.08978
1.07307
1.05859
1.03463
2.72015
2.70204
2.68392
2.66579
2.64767
2.62954
2.61142
2.5933
2.57519
2.55709
2.53899
2.52091
2.50283
2.48475
2.46667
2.44859
2.4305
2.41241
2.39431
2.37621
2.35812
2.34005
2.32202
2.30403
2.2861
2.26826
2.25053
2.23292
2.21544
2.19812
2.18096
2.16395
2.1471
2.13038
2.11379
2.0973
2.08087
2.06449
2.04811
2.03171
2.01525
1.99871
1.98208
1.96532
1.94843
1.9314
1.91425
1.89696
1.87958
1.86211
1.8446
1.82709
1.80962
1.79224
1.77501
1.75797
1.74116
1.72464
1.70841
1.6925
1.6769
1.6616
1.64656
1.63175
1.61712
1.60261
1.58816
1.5737
1.55918
1.54453
1.52971
1.51466
1.49935
1.48375
1.46785
1.45164
1.43513
1.41833
1.40126
1.38396
1.36648
1.34884
1.33109
1.31329
1.29546
1.27764
1.25985
1.24213
1.22449
1.20693
1.18945
1.17208
1.1548
1.13764
1.1206
1.10369
1.08702
1.07011
1.05551
1.03061
2.72008
2.70196
2.68383
2.6657
2.64755
2.62941
2.61127
2.59313
2.57499
2.55686
2.53873
2.52061
2.50249
2.48438
2.46627
2.44815
2.43004
2.41193
2.39381
2.37571
2.35761
2.33953
2.32149
2.30349
2.28554
2.26767
2.24989
2.23222
2.21466
2.19724
2.17995
2.1628
2.1458
2.12892
2.11216
2.0955
2.07891
2.06237
2.04586
2.02935
2.01281
1.99621
1.97954
1.96278
1.94591
1.92894
1.91186
1.89468
1.87742
1.86008
1.84272
1.82535
1.80802
1.79077
1.77364
1.75669
1.73995
1.72345
1.70721
1.69124
1.67555
1.66013
1.64494
1.62996
1.61514
1.60043
1.58577
1.57111
1.5564
1.54157
1.52658
1.5114
1.49598
1.4803
1.46434
1.4481
1.43159
1.41482
1.3978
1.38057
1.36317
1.34563
1.328
1.3103
1.29258
1.27487
1.25719
1.23957
1.22201
1.20453
1.18713
1.16982
1.15261
1.13549
1.11849
1.1016
1.08493
1.06798
1.05337
1.02817
2.72001
2.70189
2.68375
2.6656
2.64745
2.62929
2.61112
2.59296
2.5748
2.55664
2.53849
2.52034
2.50219
2.48404
2.4659
2.44776
2.42962
2.41149
2.39336
2.37524
2.35713
2.33904
2.32098
2.30296
2.285
2.26709
2.24927
2.23154
2.21391
2.1964
2.179
2.16174
2.1446
2.12758
2.11067
2.09386
2.07713
2.06046
2.04383
2.02721
2.01058
1.99392
1.97721
1.96044
1.94359
1.92665
1.90964
1.89254
1.87537
1.85816
1.84091
1.82367
1.80646
1.78933
1.7723
1.75543
1.73874
1.72226
1.70601
1.69001
1.67425
1.65872
1.64341
1.62828
1.61329
1.5984
1.58356
1.56873
1.55384
1.53886
1.52373
1.50843
1.49291
1.47716
1.46116
1.44491
1.4284
1.41166
1.39469
1.37753
1.36022
1.34277
1.32524
1.30765
1.29003
1.27242
1.25484
1.23731
1.21984
1.20244
1.18512
1.16788
1.15073
1.13367
1.11673
1.09988