/*--------------------------------*- C++ -*----------------------------------*\
  =========                 |
  \\      /  F ield         | OpenFOAM: The Open Source CFD Toolbox
   \\    /   O peration     | Website:  https://openfoam.org
    \\  /    A nd           | Version:  10
     \\/     M anipulation  |
\*---------------------------------------------------------------------------*/
FoamFile
{
    format      ascii;
    class       volScalarField;
    location    "1100";
    object      k;
}
// * * * * * * * * * * * * * * * * * * * * * * * * * * * * * * * * * * * * * //

dimensions      [0 2 -2 0 0 0 0];

internalField   nonuniform List<scalar> 
6820
(
0.19714
0.192517
0.18828
0.184032
0.179769
0.175612
0.171677
0.168043
0.164747
0.161799
0.159192
0.156909
0.154925
0.153217
0.151758
0.150524
0.149493
0.148643
0.147955
0.147412
0.146997
0.146697
0.146498
0.14639
0.146362
0.146406
0.146504
0.146708
0.14683
0.14724
0.146616
0.156958
0.0923453
0.207249
0.212376
0.210056
0.205416
0.200992
0.197546
0.195136
0.193605
0.192768
0.19246
0.192552
0.192948
0.193573
0.194373
0.195307
0.196343
0.197457
0.198629
0.199844
0.20109
0.202358
0.20364
0.204932
0.206229
0.207532
0.20884
0.210161
0.211518
0.212876
0.214414
0.216015
0.219332
0.216374
0.200993
0.203847
0.204552
0.203319
0.201178
0.198803
0.196517
0.19445
0.192647
0.191111
0.18983
0.188786
0.187955
0.187317
0.186848
0.18653
0.186345
0.186277
0.186311
0.186434
0.186636
0.186906
0.187235
0.187618
0.188048
0.18852
0.189031
0.189587
0.190179
0.190832
0.191574
0.192577
0.193156
0.199593
0.199508
0.199518
0.199121
0.198258
0.197061
0.195675
0.194212
0.192747
0.191324
0.189972
0.188706
0.187535
0.186461
0.185483
0.1846
0.183807
0.183099
0.182472
0.181919
0.181437
0.181019
0.180661
0.180359
0.180108
0.179907
0.179752
0.179644
0.179581
0.179568
0.179613
0.179739
0.179878
0.199411
0.198475
0.197748
0.197076
0.196333
0.195471
0.194494
0.193431
0.192315
0.191174
0.19003
0.188903
0.187803
0.186739
0.185719
0.184744
0.183818
0.182942
0.182115
0.181336
0.180604
0.179919
0.179278
0.178679
0.178122
0.177604
0.177124
0.176683
0.176279
0.175913
0.175587
0.175303
0.175055
0.199394
0.198255
0.197227
0.19629
0.195404
0.194526
0.193631
0.192711
0.191765
0.1908
0.189825
0.188848
0.187876
0.186917
0.185975
0.185055
0.184159
0.183291
0.182451
0.181641
0.180861
0.180112
0.179392
0.178703
0.178044
0.177413
0.176812
0.176239
0.175695
0.175179
0.174692
0.174234
0.173804
0.199394
0.198216
0.197096
0.196039
0.195039
0.194083
0.193155
0.192245
0.191343
0.190446
0.189553
0.188665
0.187783
0.18691
0.186048
0.1852
0.184367
0.183551
0.182753
0.181976
0.181218
0.180481
0.179766
0.179072
0.1784
0.177749
0.17712
0.176512
0.175927
0.175362
0.17482
0.174299
0.1738
0.199395
0.19821
0.197068
0.19597
0.194919
0.193911
0.192942
0.192005
0.191095
0.190207
0.189337
0.188483
0.187643
0.186818
0.186007
0.185209
0.184426
0.183658
0.182906
0.182169
0.181449
0.180745
0.180057
0.179387
0.178734
0.178098
0.177479
0.176877
0.176292
0.175725
0.175175
0.174643
0.174128
0.199395
0.198209
0.197062
0.195954
0.194885
0.193855
0.192862
0.191903
0.190975
0.190077
0.189205
0.188356
0.187529
0.186721
0.185932
0.185161
0.184407
0.183669
0.182948
0.182242
0.181552
0.180877
0.180218
0.179574
0.178945
0.178332
0.177733
0.177149
0.17658
0.176027
0.175488
0.174964
0.174455
0.199395
0.198209
0.197061
0.195951
0.194877
0.193839
0.192835
0.191865
0.190927
0.190019
0.189139
0.188286
0.187458
0.186653
0.18587
0.185108
0.184366
0.183642
0.182937
0.182249
0.181577
0.180922
0.180282
0.179658
0.179048
0.178454
0.177873
0.177307
0.176756
0.176218
0.175694
0.175183
0.174687
0.199395
0.198209
0.197061
0.19595
0.194875
0.193834
0.192827
0.191853
0.190909
0.189996
0.189111
0.188253
0.187421
0.186614
0.185831
0.185071
0.184331
0.183612
0.182913
0.182232
0.181569
0.180924
0.180295
0.179682
0.179084
0.178502
0.177935
0.177381
0.176842
0.176317
0.175805
0.175306
0.174821
0.199395
0.198209
0.19706
0.195949
0.194874
0.193833
0.192825
0.191848
0.190903
0.189987
0.189099
0.188239
0.187405
0.186596
0.185811
0.185049
0.184309
0.183591
0.182893
0.182214
0.181555
0.180913
0.180288
0.179681
0.179089
0.178514
0.177953
0.177407
0.176875
0.176358
0.175854
0.175363
0.174885
0.199395
0.198209
0.19706
0.195949
0.194873
0.193832
0.192823
0.191847
0.190901
0.189984
0.189095
0.188233
0.187398
0.186587
0.185801
0.185038
0.184298
0.183579
0.18288
0.182202
0.181543
0.180902
0.180279
0.179673
0.179084
0.178511
0.177953
0.177411
0.176883
0.176369
0.175869
0.175383
0.17491
0.199395
0.198209
0.19706
0.195948
0.194873
0.193831
0.192823
0.191846
0.190899
0.189982
0.189093
0.188231
0.187395
0.186584
0.185797
0.185033
0.184292
0.183572
0.182873
0.182194
0.181535
0.180894
0.180271
0.179666
0.179078
0.178505
0.177949
0.177408
0.176881
0.176369
0.175871
0.175387
0.174916
0.199395
0.198208
0.19706
0.195948
0.194872
0.193831
0.192822
0.191845
0.190898
0.189981
0.189091
0.188229
0.187393
0.186581
0.185794
0.18503
0.184288
0.183568
0.182869
0.18219
0.18153
0.180889
0.180266
0.179661
0.179073
0.178501
0.177944
0.177403
0.176877
0.176366
0.175869
0.175385
0.174915
0.199395
0.198208
0.19706
0.195948
0.194872
0.19383
0.192821
0.191844
0.190897
0.18998
0.18909
0.188228
0.187391
0.18658
0.185792
0.185028
0.184286
0.183566
0.182867
0.182187
0.181527
0.180886
0.180263
0.179658
0.179069
0.178497
0.177941
0.1774
0.176874
0.176363
0.175866
0.175382
0.174912
0.199395
0.198208
0.19706
0.195948
0.194872
0.19383
0.192821
0.191844
0.190897
0.189979
0.189089
0.188227
0.18739
0.186578
0.185791
0.185027
0.184285
0.183564
0.182865
0.182185
0.181525
0.180884
0.180261
0.179655
0.179067
0.178495
0.177938
0.177397
0.176872
0.17636
0.175863
0.175379
0.174909
0.199395
0.198208
0.19706
0.195948
0.194872
0.19383
0.192821
0.191843
0.190896
0.189978
0.189088
0.188226
0.187389
0.186577
0.18579
0.185025
0.184283
0.183563
0.182863
0.182184
0.181524
0.180882
0.180259
0.179653
0.179065
0.178493
0.177936
0.177395
0.176869
0.176358
0.175861
0.175377
0.174906
0.199395
0.198208
0.197059
0.195948
0.194871
0.193829
0.19282
0.191843
0.190896
0.189978
0.189088
0.188225
0.187388
0.186576
0.185788
0.185024
0.184282
0.183561
0.182862
0.182182
0.181522
0.180881
0.180257
0.179652
0.179063
0.178491
0.177934
0.177393
0.176867
0.176356
0.175858
0.175375
0.174904
0.199395
0.198208
0.197059
0.195948
0.194871
0.193829
0.19282
0.191842
0.190895
0.189977
0.189087
0.188224
0.187387
0.186575
0.185787
0.185023
0.184281
0.18356
0.18286
0.182181
0.181521
0.180879
0.180256
0.17965
0.179062
0.178489
0.177933
0.177392
0.176866
0.176354
0.175856
0.175372
0.174902
0.199395
0.198208
0.197059
0.195947
0.194871
0.193829
0.19282
0.191842
0.190895
0.189977
0.189087
0.188224
0.187386
0.186574
0.185787
0.185022
0.18428
0.183559
0.182859
0.18218
0.181519
0.180878
0.180255
0.179649
0.17906
0.178488
0.177931
0.17739
0.176864
0.176352
0.175854
0.17537
0.174899
0.199395
0.198208
0.197059
0.195947
0.194871
0.193829
0.192819
0.191842
0.190894
0.189976
0.189086
0.188223
0.187386
0.186574
0.185786
0.185021
0.184279
0.183558
0.182858
0.182179
0.181518
0.180877
0.180253
0.179648
0.179059
0.178486
0.17793
0.177388
0.176862
0.17635
0.175852
0.175368
0.174897
0.199395
0.198208
0.197059
0.195947
0.194871
0.193829
0.192819
0.191842
0.190894
0.189976
0.189086
0.188222
0.187385
0.186573
0.185785
0.18502
0.184278
0.183557
0.182857
0.182178
0.181517
0.180876
0.180252
0.179646
0.179057
0.178485
0.177928
0.177387
0.176861
0.176349
0.17585
0.175366
0.174895
0.199395
0.198208
0.197059
0.195947
0.194871
0.193829
0.192819
0.191841
0.190894
0.189976
0.189085
0.188222
0.187385
0.186573
0.185785
0.18502
0.184277
0.183557
0.182857
0.182177
0.181516
0.180875
0.180251
0.179645
0.179056
0.178484
0.177927
0.177385
0.176859
0.176347
0.175849
0.175364
0.174892
0.199395
0.198208
0.197059
0.195947
0.194871
0.193828
0.192819
0.191841
0.190894
0.189975
0.189085
0.188222
0.187384
0.186572
0.185784
0.185019
0.184277
0.183556
0.182856
0.182176
0.181516
0.180874
0.18025
0.179644
0.179055
0.178482
0.177926
0.177384
0.176857
0.176345
0.175847
0.175362
0.17489
0.199395
0.198208
0.197059
0.195947
0.194871
0.193828
0.192819
0.191841
0.190893
0.189975
0.189085
0.188221
0.187384
0.186572
0.185784
0.185019
0.184276
0.183555
0.182855
0.182175
0.181515
0.180873
0.180249
0.179643
0.179054
0.178481
0.177924
0.177383
0.176856
0.176344
0.175845
0.17536
0.174888
0.199395
0.198208
0.197059
0.195947
0.194871
0.193828
0.192819
0.191841
0.190893
0.189975
0.189085
0.188221
0.187384
0.186571
0.185783
0.185018
0.184276
0.183555
0.182855
0.182175
0.181514
0.180872
0.180249
0.179643
0.179053
0.17848
0.177923
0.177382
0.176855
0.176342
0.175844
0.175358
0.174886
0.199395
0.198208
0.197059
0.195947
0.194871
0.193828
0.192819
0.191841
0.190893
0.189975
0.189084
0.188221
0.187384
0.186571
0.185783
0.185018
0.184275
0.183554
0.182854
0.182174
0.181514
0.180872
0.180248
0.179642
0.179053
0.17848
0.177922
0.177381
0.176854
0.176341
0.175842
0.175357
0.174884
0.199395
0.198208
0.197059
0.195947
0.194871
0.193828
0.192819
0.191841
0.190893
0.189975
0.189084
0.188221
0.187383
0.186571
0.185783
0.185018
0.184275
0.183554
0.182854
0.182174
0.181513
0.180871
0.180248
0.179641
0.179052
0.178479
0.177922
0.17738
0.176853
0.17634
0.175841
0.175355
0.174883
0.199395
0.198208
0.197059
0.195947
0.194871
0.193828
0.192819
0.191841
0.190893
0.189975
0.189084
0.188221
0.187383
0.186571
0.185783
0.185018
0.184275
0.183554
0.182854
0.182174
0.181513
0.180871
0.180247
0.179641
0.179052
0.178478
0.177921
0.177379
0.176852
0.176339
0.17584
0.175354
0.174882
0.199395
0.198208
0.197059
0.195947
0.194871
0.193828
0.192819
0.191841
0.190893
0.189975
0.189084
0.188221
0.187383
0.186571
0.185783
0.185018
0.184275
0.183554
0.182854
0.182174
0.181513
0.180871
0.180247
0.179641
0.179051
0.178478
0.177921
0.177379
0.176851
0.176338
0.175839
0.175353
0.17488
0.199395
0.198208
0.197059
0.195947
0.194871
0.193828
0.192819
0.191841
0.190893
0.189975
0.189084
0.188221
0.187384
0.186571
0.185783
0.185018
0.184276
0.183555
0.182854
0.182174
0.181514
0.180872
0.180248
0.179641
0.179052
0.178479
0.177921
0.177379
0.176852
0.176338
0.175839
0.175353
0.17488
0.199395
0.198208
0.197059
0.195947
0.194871
0.193828
0.192819
0.191841
0.190893
0.189975
0.189085
0.188221
0.187384
0.186572
0.185784
0.185019
0.184276
0.183555
0.182855
0.182175
0.181515
0.180873
0.180249
0.179642
0.179053
0.178479
0.177921
0.177379
0.176851
0.176338
0.175838
0.175351
0.174878
0.199395
0.198208
0.197059
0.195947
0.194871
0.193829
0.19282
0.191842
0.190895
0.189977
0.189088
0.188225
0.187388
0.186577
0.185789
0.185025
0.184282
0.183561
0.182861
0.182181
0.18152
0.180877
0.180253
0.179645
0.179055
0.17848
0.177921
0.177377
0.176848
0.176332
0.17583
0.175342
0.174866
0.199395
0.198208
0.197059
0.195948
0.194872
0.193831
0.192824
0.191848
0.190902
0.189985
0.189097
0.188235
0.187399
0.186588
0.1858
0.185035
0.184292
0.183569
0.182867
0.182185
0.181521
0.180875
0.180247
0.179635
0.17904
0.17846
0.177896
0.177347
0.176811
0.17629
0.175781
0.175286
0.174803
0.199395
0.198209
0.197062
0.195955
0.194886
0.193853
0.192853
0.191884
0.190945
0.190032
0.189145
0.188283
0.187445
0.18663
0.185836
0.185064
0.184312
0.18358
0.182867
0.182172
0.181496
0.180836
0.180193
0.179567
0.178956
0.17836
0.177779
0.177213
0.17666
0.176121
0.175595
0.175081
0.17458
0.199395
0.198223
0.197107
0.196032
0.194988
0.193971
0.192978
0.192008
0.191061
0.190136
0.189233
0.188352
0.187491
0.186652
0.185832
0.185033
0.184252
0.183491
0.182747
0.182022
0.181314
0.180622
0.179947
0.179288
0.178645
0.178016
0.177402
0.176802
0.176217
0.175644
0.175085
0.174539
0.174005
0.19941
0.198318
0.197296
0.1963
0.195309
0.194317
0.193327
0.192343
0.191371
0.190415
0.189476
0.188558
0.187661
0.186786
0.185931
0.185098
0.184286
0.183493
0.18272
0.181965
0.181229
0.18051
0.179808
0.179123
0.178453
0.177799
0.17716
0.176536
0.175926
0.17533
0.174748
0.174178
0.173622
0.199716
0.19914
0.198471
0.197766
0.197074
0.196421
0.195815
0.195254
0.194738
0.194265
0.193834
0.193444
0.193091
0.192775
0.192493
0.192243
0.192024
0.191832
0.191667
0.191526
0.191407
0.191309
0.191231
0.19117
0.191125
0.191095
0.19108
0.191077
0.191087
0.191107
0.191138
0.191179
0.191228
0.205424
0.216593
0.22763
0.238435
0.248976
0.259243
0.269229
0.278925
0.288325
0.297422
0.306213
0.314697
0.322872
0.33074
0.338304
0.345567
0.352534
0.359211
0.365604
0.371721
0.377568
0.383154
0.388487
0.393576
0.398428
0.403053
0.407459
0.411655
0.41565
0.41945
0.423066
0.426504
0.429775
0.410421
0.849735
1.14536
1.35203
1.53162
1.67382
1.77689
1.86288
1.94723
2.02803
2.09569
2.1418
2.16187
2.15577
2.12709
2.08259
2.03028
1.97736
1.92902
1.88831
1.85656
1.83399
1.82009
1.81387
1.81397
1.81871
1.82615
1.83417
1.84063
1.84355
1.8413
1.83274
1.81739
1.79549
1.76788
1.73594
1.70139
1.66601
1.63156
1.59956
1.57131
1.5479
1.53028
1.51934
1.51589
1.52055
1.53349
1.55411
1.58077
1.61082
1.64077
1.66685
1.68553
1.69402
1.69047
1.6741
1.64504
1.6042
1.55306
1.4935
1.42763
1.35768
1.28585
1.21425
1.1448
1.07919
1.01882
0.964821
0.918044
0.879137
0.848601
0.826852
0.814216
0.810797
0.816216
0.82931
0.848009
0.869534
0.890883
0.90938
0.923059
0.930795
0.932236
0.927672
0.917931
0.90444
0.889468
0.876484
0.87008
0.874655
0.891894
0.919087
0.950354
0.979662
1.003
1.01868
1.02669
1.02758
1.02381
1.00727
0.234824
0.286918
0.340515
0.384697
0.442255
0.541112
0.686393
0.862712
1.0504
1.23258
1.39274
1.51625
1.59546
1.63173
1.63504
1.61933
1.59632
1.57389
1.55638
1.54565
1.542
1.54488
1.55329
1.56598
1.58147
1.59805
1.61381
1.6268
1.63511
1.63712
1.63162
1.61805
1.59649
1.56771
1.53307
1.49435
1.45355
1.41264
1.37348
1.33758
1.30619
1.28024
1.26051
1.2477
1.24246
1.24535
1.25662
1.27591
1.30191
1.33226
1.36367
1.39239
1.41475
1.42772
1.4292
1.41816
1.39457
1.35924
1.31362
1.25961
1.19937
1.13515
1.0692
1.00365
0.940431
0.881195
0.827295
0.77977
0.739369
0.706607
0.681849
0.665395
0.657502
0.658296
0.667521
0.684223
0.706557
0.73192
0.7574
0.780321
0.798661
0.811219
0.817573
0.817954
0.81315
0.804551
0.794396
0.786134
0.78437
0.793546
0.815348
0.84697
0.882379
0.915452
0.942173
0.9609
0.971688
0.97511
0.973642
0.959875
0.194028
0.198356
0.20503
0.211381
0.218323
0.232157
0.261845
0.314496
0.391055
0.485199
0.585892
0.681312
0.763447
0.830298
0.882983
0.924309
0.958564
0.989991
1.02171
1.05536
1.09126
1.12895
1.16755
1.20596
1.24291
1.27691
1.30633
1.32946
1.34472
1.35087
1.34721
1.33366
1.31087
1.28012
1.24321
1.20228
1.15957
1.11724
1.07716
1.04085
1.00946
0.983761
0.964324
0.951597
0.946019
0.948022
0.957907
0.975584
1.00023
1.03005
1.06225
1.09335
1.11972
1.13814
1.14621
1.14256
1.12689
1.0998
1.06259
1.01707
0.965367
0.909716
0.852352
0.795376
0.740665
0.689802
0.644038
0.604281
0.571128
0.544934
0.525903
0.5142
0.510014
0.513523
0.524687
0.542925
0.566834
0.594199
0.62234
0.648643
0.671011
0.6881
0.69933
0.704784
0.705117
0.701582
0.696249
0.692369
0.694408
0.706877
0.731766
0.766599
0.805471
0.842175
0.872543
0.894804
0.908939
0.915483
0.91683
0.90657
0.179898
0.180119
0.180841
0.181782
0.182725
0.184359
0.188378
0.196867
0.211297
0.231654
0.25629
0.282604
0.308143
0.331918
0.355641
0.38193
0.413455
0.451915
0.497522
0.549191
0.605098
0.663226
0.721673
0.778704
0.832655
0.881831
0.924478
0.958872
0.983505
0.9973
0.999804
0.991291
0.972774
0.945908
0.912812
0.875838
0.837344
0.799481
0.764049
0.732419
0.705529
0.683946
0.667983
0.657821
0.65364
0.655682
0.664226
0.679428
0.701029
0.728036
0.75852
0.789701
0.818322
0.84119
0.855682
0.860075
0.853663
0.836691
0.810189
0.77576
0.735367
0.691135
0.645189
0.599515
0.555849
0.515607
0.47985
0.44928
0.424294
0.405057
0.391614
0.384001
0.382344
0.386876
0.397806
0.415023
0.437759
0.464428
0.492808
0.520486
0.545341
0.565855
0.581216
0.59127
0.596447
0.597757
0.596975
0.596989
0.601951
0.616389
0.642807
0.679449
0.720845
0.760779
0.794816
0.8209
0.838804
0.848952
0.853559
0.847498
0.174748
0.174386
0.174125
0.173993
0.173917
0.173932
0.17433
0.175583
0.178086
0.181894
0.18665
0.191804
0.196902
0.201693
0.206166
0.211261
0.218373
0.229079
0.244882
0.266888
0.29554
0.330501
0.370711
0.414541
0.459943
0.504594
0.546032
0.581853
0.609962
0.628827
0.637685
0.636631
0.626581
0.609114
0.586236
0.560108
0.53281
0.506144
0.481528
0.459964
0.442063
0.428126
0.418239
0.412389
0.410564
0.412835
0.419394
0.430508
0.446356
0.466768
0.490929
0.517221
0.543312
0.566524
0.584317
0.594727
0.596626
0.589787
0.574795
0.552865
0.525629
0.494926
0.462607
0.430382
0.3997
0.371684
0.347108
0.326424
0.309824
0.297327
0.288877
0.284443
0.284111
0.288133
0.296883
0.310656
0.329351
0.352184
0.377649
0.403788
0.428616
0.450508
0.4684
0.481838
0.490937
0.496375
0.499524
0.502755
0.509713
0.524789
0.551061
0.587828
0.630421
0.672776
0.710151
0.740067
0.761953
0.776035
0.784236
0.782988
0.173317
0.172758
0.172223
0.171748
0.171329
0.170949
0.170643
0.170522
0.17072
0.171288
0.172136
0.17309
0.173998
0.174769
0.175344
0.175961
0.177005
0.178949
0.182317
0.187636
0.195395
0.205979
0.2196
0.236206
0.255393
0.276341
0.297815
0.318266
0.336033
0.349629
0.358013
0.36077
0.358153
0.350982
0.340446
0.327876
0.314542
0.301515
0.289599
0.279325
0.270988
0.264707
0.260485
0.258276
0.258034
0.259765
0.263565
0.269627
0.278217
0.289557
0.303643
0.320023
0.337666
0.355008
0.370215
0.381552
0.387722
0.388077
0.382662
0.372119
0.357524
0.340187
0.32146
0.30258
0.28457
0.268179
0.253892
0.241959
0.232464
0.225388
0.220681
0.218324
0.218389
0.22109
0.226801
0.235975
0.248941
0.265626
0.285359
0.306896
0.328685
0.349206
0.367259
0.382111
0.393533
0.401815
0.407851
0.413391
0.421376
0.435797
0.460182
0.49508
0.537043
0.580463
0.620349
0.653704
0.679481
0.697602
0.709567
0.713605
0.173239
0.172602
0.17197
0.171363
0.17079
0.170246
0.169728
0.169256
0.168868
0.168594
0.168422
0.168298
0.168161
0.167967
0.167697
0.167418
0.167251
0.167353
0.167895
0.169042
0.170944
0.173723
0.177463
0.182192
0.187858
0.194292
0.201181
0.208066
0.21438
0.219537
0.223049
0.22463
0.224255
0.222142
0.21869
0.214385
0.209707
0.205069
0.200787
0.197072
0.194048
0.191772
0.190257
0.189495
0.189474
0.190196
0.191692
0.19404
0.197368
0.20184
0.207602
0.214684
0.222887
0.231699
0.240316
0.247775
0.25316
0.255807
0.255433
0.252156
0.246426
0.238907
0.230339
0.221421
0.212735
0.204713
0.197635
0.191657
0.186846
0.183216
0.180767
0.179514
0.17952
0.180935
0.184022
0.189159
0.196756
0.20709
0.220103
0.235291
0.251746
0.268353
0.284039
0.297966
0.309651
0.31903
0.326524
0.333234
0.34127
0.353916
0.374788
0.405654
0.444663
0.487133
0.528056
0.563911
0.593055
0.614995
0.630648
0.640218
0.173546
0.172889
0.17223
0.171578
0.170944
0.170328
0.169731
0.169153
0.168602
0.168086
0.167605
0.167142
0.166676
0.166183
0.165656
0.165115
0.164605
0.164186
0.163929
0.1639
0.164152
0.164724
0.165634
0.166874
0.168413
0.170185
0.172089
0.173986
0.175712
0.177096
0.177994
0.178313
0.178035
0.177209
0.175946
0.174385
0.17267
0.170935
0.169286
0.167799
0.166526
0.165496
0.164722
0.16421
0.16396
0.163973
0.164257
0.164833
0.165741
0.167041
0.168804
0.171089
0.173901
0.177142
0.180586
0.18389
0.186657
0.188518
0.189226
0.188697
0.187019
0.184409
0.181157
0.177568
0.173914
0.170412
0.167216
0.164427
0.162104
0.16028
0.158979
0.158228
0.158076
0.158611
0.159989
0.162443
0.166279
0.171801
0.179196
0.18841
0.199093
0.210645
0.222338
0.233477
0.243532
0.25223
0.259641
0.266308
0.273522
0.28364
0.299866
0.32478
0.358289
0.397194
0.436946
0.47367
0.505084
0.530165
0.549088
0.564084
0.173878
0.173226
0.172569
0.171914
0.171265
0.170627
0.170003
0.169392
0.168796
0.168213
0.167643
0.167077
0.166504
0.165914
0.1653
0.164668
0.164035
0.163429
0.162881
0.162425
0.162088
0.161889
0.161836
0.161922
0.162131
0.162432
0.162782
0.163129
0.163417
0.16359
0.163604
0.163429
0.163058
0.162504
0.1618
0.160986
0.160108
0.159206
0.158319
0.157473
0.156689
0.155981
0.155356
0.154819
0.154371
0.154014
0.15375
0.153585
0.153528
0.153601
0.153829
0.154242
0.15486
0.15568
0.156654
0.157687
0.158647
0.159387
0.159781
0.159751
0.159283
0.158417
0.157239
0.155854
0.154367
0.152872
0.151442
0.150132
0.148979
0.148009
0.147244
0.146707
0.146428
0.146457
0.146875
0.147808
0.149439
0.151984
0.155643
0.160525
0.166579
0.173576
0.181141
0.188836
0.196249
0.203086
0.209242
0.214897
0.2207
0.228081
0.239417
0.25739
0.283329
0.315909
0.351709
0.386953
0.418853
0.44582
0.467138
0.486958
0.174123
0.173484
0.172842
0.172197
0.171554
0.170918
0.170291
0.169675
0.169069
0.168471
0.167878
0.167285
0.166684
0.166067
0.16543
0.164773
0.164103
0.163432
0.162776
0.162153
0.161579
0.161069
0.160629
0.160261
0.159959
0.159709
0.159495
0.159294
0.159084
0.158841
0.158549
0.158195
0.157773
0.157286
0.156742
0.156151
0.155526
0.154882
0.154228
0.153576
0.152932
0.152303
0.151693
0.151104
0.150538
0.149995
0.149478
0.148987
0.148528
0.148109
0.147739
0.147434
0.147209
0.147075
0.14703
0.147056
0.147117
0.147164
0.147147
0.147024
0.146772
0.146386
0.145881
0.145283
0.144624
0.143936
0.143245
0.142574
0.141939
0.141353
0.140828
0.140377
0.140018
0.139776
0.139691
0.139826
0.140279
0.141176
0.142664
0.144865
0.147838
0.151543
0.155837
0.160495
0.165269
0.169936
0.174359
0.178544
0.182751
0.187702
0.19485
0.206322
0.224041
0.248349
0.277494
0.308498
0.338494
0.365465
0.387777
0.411178
0.17427
0.173646
0.173018
0.172387
0.171757
0.17113
0.170509
0.169896
0.16929
0.168692
0.168096
0.167498
0.166893
0.166274
0.165638
0.164982
0.16431
0.163625
0.162938
0.162258
0.161596
0.160961
0.160361
0.159801
0.159282
0.158801
0.158352
0.157926
0.157514
0.157104
0.156688
0.156258
0.155808
0.155336
0.15484
0.154321
0.153781
0.153221
0.152644
0.152054
0.151451
0.150839
0.150218
0.149592
0.148961
0.148325
0.147687
0.147048
0.146411
0.145781
0.145164
0.14457
0.14401
0.143494
0.143032
0.142626
0.142272
0.141959
0.141671
0.14139
0.141101
0.140793
0.140462
0.140106
0.139729
0.139335
0.138928
0.138512
0.138089
0.137663
0.137237
0.136815
0.136406
0.136022
0.135681
0.135413
0.135267
0.13531
0.135631
0.136321
0.137456
0.13907
0.141135
0.143566
0.14624
0.149021
0.151802
0.154534
0.157288
0.160366
0.164507
0.171044
0.18166
0.197545
0.218509
0.242924
0.268489
0.293171
0.31462
0.339663
0.174344
0.17373
0.173113
0.172494
0.171875
0.171257
0.170644
0.170036
0.169433
0.168836
0.16824
0.167643
0.16704
0.166425
0.165795
0.165149
0.164486
0.16381
0.163123
0.162433
0.161746
0.16107
0.160411
0.159775
0.159165
0.158584
0.158032
0.157505
0.157001
0.156513
0.156037
0.155566
0.155095
0.154619
0.154133
0.153634
0.153119
0.152586
0.152034
0.151462
0.15087
0.150259
0.149629
0.148981
0.148317
0.147637
0.146943
0.146237
0.145521
0.1448
0.144079
0.143366
0.14267
0.142
0.141366
0.140776
0.140236
0.139746
0.139304
0.138904
0.138539
0.1382
0.137878
0.137567
0.137258
0.136947
0.136626
0.136292
0.13594
0.135566
0.135169
0.134748
0.134305
0.133844
0.133373
0.132906
0.132467
0.132088
0.131818
0.131714
0.131834
0.132226
0.13291
0.133873
0.13507
0.136437
0.137908
0.139436
0.14102
0.142761
0.144974
0.148345
0.15397
0.163043
0.176218
0.19313
0.212495
0.232786
0.251423
0.275666
0.174374
0.173766
0.173157
0.172545
0.171933
0.171322
0.170714
0.170109
0.169508
0.168911
0.168315
0.167718
0.167116
0.166505
0.165882
0.165245
0.164593
0.163929
0.163254
0.162571
0.161886
0.161204
0.16053
0.159869
0.159227
0.158606
0.158009
0.157436
0.156886
0.156358
0.155847
0.15535
0.15486
0.154372
0.153881
0.153381
0.15287
0.152342
0.151795
0.151227
0.150637
0.150024
0.149389
0.148733
0.148055
0.147357
0.14664
0.145906
0.145159
0.144402
0.143641
0.142882
0.142133
0.141402
0.1407
0.140034
0.139411
0.138836
0.138311
0.137835
0.137406
0.137016
0.136659
0.136325
0.136007
0.135694
0.135378
0.135051
0.134704
0.134332
0.133931
0.133495
0.133025
0.13252
0.131982
0.131418
0.130838
0.130259
0.129705
0.129209
0.128808
0.12854
0.128434
0.128505
0.12875
0.129149
0.129674
0.130295
0.130998
0.131803
0.132822
0.134354
0.136977
0.14151
0.14873
0.158967
0.171857
0.186643
0.201058
0.222126
0.174382
0.173778
0.173172
0.172565
0.171956
0.171348
0.170742
0.170138
0.169537
0.168939
0.168341
0.167742
0.167139
0.16653
0.16591
0.16528
0.164638
0.163985
0.163322
0.162651
0.161976
0.1613
0.160629
0.159965
0.159314
0.15868
0.158064
0.15747
0.156897
0.156345
0.155812
0.155293
0.154785
0.154283
0.153781
0.153273
0.152756
0.152225
0.151676
0.151107
0.150517
0.149905
0.149269
0.148611
0.14793
0.147228
0.146506
0.145767
0.145012
0.144246
0.143473
0.142701
0.141936
0.141186
0.140458
0.139762
0.139103
0.138488
0.137918
0.137396
0.13692
0.136484
0.136085
0.135713
0.13536
0.135017
0.134675
0.134324
0.133957
0.133565
0.133144
0.132688
0.132194
0.131659
0.131085
0.130473
0.129827
0.129157
0.128474
0.127797
0.127146
0.126548
0.126025
0.125598
0.125279
0.125069
0.124964
0.124952
0.125024
0.125178
0.125447
0.12594
0.126916
0.128818
0.132214
0.137585
0.145073
0.154561
0.164386
0.180727
0.174382
0.173779
0.173174
0.172568
0.171962
0.171355
0.170749
0.170144
0.169541
0.16894
0.168339
0.167737
0.167132
0.166521
0.165904
0.165277
0.164641
0.163996
0.163343
0.162682
0.162017
0.161351
0.160686
0.160027
0.159377
0.158739
0.158117
0.157512
0.156926
0.156358
0.155808
0.155272
0.154747
0.15423
0.153714
0.153195
0.152669
0.152131
0.151578
0.151007
0.150417
0.149805
0.149172
0.148516
0.147839
0.147141
0.146423
0.145687
0.144937
0.144175
0.143406
0.142636
0.141871
0.141118
0.140385
0.139679
0.139005
0.13837
0.137776
0.137224
0.136714
0.136243
0.135805
0.135395
0.135004
0.134625
0.134247
0.133864
0.133467
0.133048
0.132602
0.132123
0.131608
0.131052
0.130456
0.129818
0.129142
0.128432
0.127694
0.126939
0.126178
0.125428
0.124704
0.124022
0.123397
0.122837
0.122347
0.121928
0.121577
0.121293
0.121081
0.120977
0.121078
0.121588
0.122824
0.125159
0.128865
0.13416
0.139988
0.151259
0.174379
0.173776
0.173172
0.172566
0.171959
0.171352
0.170745
0.170139
0.169534
0.168929
0.168324
0.167718
0.16711
0.166497
0.165879
0.165254
0.164622
0.163982
0.163335
0.162682
0.162025
0.161367
0.160709
0.160055
0.159408
0.15877
0.158144
0.157533
0.156938
0.156358
0.155794
0.155243
0.154703
0.15417
0.15364
0.153108
0.152572
0.152026
0.151468
0.150894
0.150303
0.149693
0.149062
0.148412
0.147741
0.14705
0.146341
0.145614
0.144874
0.144121
0.143362
0.142601
0.141844
0.141097
0.140367
0.13966
0.138981
0.138336
0.137727
0.137155
0.136621
0.136121
0.135652
0.135207
0.134782
0.134367
0.133956
0.13354
0.133112
0.132665
0.132194
0.131693
0.131157
0.130585
0.129973
0.129322
0.128631
0.127904
0.127145
0.12636
0.125556
0.124742
0.12393
0.12313
0.122354
0.121611
0.120908
0.12025
0.119639
0.119075
0.11856
0.118104
0.117738
0.117544
0.117669
0.118328
0.119739
0.122186
0.125077
0.131897
0.174376
0.173773
0.173168
0.172562
0.171955
0.171347
0.170739
0.17013
0.169522
0.168914
0.168305
0.167695
0.167083
0.166468
0.165848
0.165223
0.164592
0.163955
0.163312
0.162665
0.162014
0.161361
0.160708
0.160058
0.159413
0.158776
0.158148
0.157532
0.156929
0.156339
0.155763
0.155198
0.154643
0.154095
0.153551
0.153007
0.15246
0.151906
0.151341
0.150764
0.150171
0.149562
0.148935
0.14829
0.147626
0.146944
0.146244
0.145529
0.1448
0.144061
0.143314
0.142565
0.141819
0.141081
0.140357
0.139653
0.138973
0.138323
0.137704
0.137118
0.136564
0.136042
0.135546
0.135074
0.134617
0.134171
0.133729
0.133283
0.132827
0.132354
0.131859
0.131337
0.130784
0.130197
0.129574
0.128913
0.128216
0.127483
0.126717
0.125922
0.125105
0.12427
0.123424
0.122577
0.121735
0.120905
0.120095
0.119309
0.118551
0.117823
0.117126
0.116463
0.115844
0.115298
0.114883
0.114702
0.11488
0.115634
0.116667
0.12011
0.174373
0.17377
0.173165
0.172558
0.17195
0.171341
0.170731
0.17012
0.16951
0.168898
0.168286
0.167673
0.167057
0.166439
0.165817
0.165191
0.164561
0.163925
0.163285
0.16264
0.161993
0.161344
0.160695
0.160047
0.159404
0.158766
0.158136
0.157515
0.156905
0.156306
0.155718
0.155141
0.154573
0.154011
0.153454
0.152897
0.152339
0.151776
0.151204
0.150622
0.150028
0.149419
0.148795
0.148154
0.147497
0.146823
0.146133
0.145429
0.144713
0.143986
0.143252
0.142516
0.141781
0.141053
0.140337
0.139638
0.13896
0.138307
0.137681
0.137084
0.136516
0.135974
0.135457
0.13496
0.134477
0.134004
0.133534
0.133062
0.13258
0.132083
0.131567
0.131027
0.130458
0.129858
0.129225
0.128557
0.127856
0.12712
0.126354
0.125559
0.12474
0.123902
0.123048
0.122186
0.121319
0.120455
0.119597
0.11875
0.117917
0.1171
0.116302
0.115522
0.114765
0.114041
0.113369
0.112795
0.112374
0.112232
0.11225
0.113446
0.17437
0.173767
0.173161
0.172554
0.171945
0.171335
0.170723
0.170111
0.169498
0.168884
0.168269
0.167652
0.167034
0.166413
0.165789
0.165162
0.16453
0.163895
0.163256
0.162614
0.161968
0.161322
0.160674
0.160029
0.159385
0.158747
0.158114
0.157489
0.156873
0.156266
0.155668
0.155079
0.154498
0.153924
0.153354
0.152785
0.152216
0.151644
0.151065
0.150478
0.149881
0.149271
0.148648
0.148011
0.14736
0.146693
0.146013
0.145319
0.144614
0.143899
0.143178
0.142454
0.14173
0.141013
0.140305
0.139611
0.138935
0.138281
0.13765
0.137045
0.136464
0.135907
0.135371
0.134852
0.134347
0.133851
0.133357
0.13286
0.132356
0.131838
0.131303
0.130746
0.130163
0.129551
0.128909
0.128236
0.127531
0.126795
0.12603
0.125238
0.124423
0.123587
0.122735
0.121872
0.121
0.120125
0.11925
0.118378
0.117511
0.116652
0.115801
0.114959
0.114129
0.113314
0.112521
0.111767
0.111075
0.110501
0.110036
0.109913
0.174368
0.173764
0.173157
0.172549
0.17194
0.171329
0.170716
0.170102
0.169487
0.168871
0.168253
0.167634
0.167013
0.16639
0.165764
0.165135
0.164503
0.163868
0.163229
0.162587
0.161943
0.161298
0.160652
0.160007
0.159363
0.158723
0.158088
0.157459
0.156837
0.156222
0.155615
0.155017
0.154425
0.153838
0.153256
0.152677
0.152097
0.151515
0.150929
0.150337
0.149736
0.149125
0.148503
0.147868
0.147221
0.146561
0.145888
0.145203
0.144508
0.143804
0.143094
0.142381
0.141669
0.14096
0.14026
0.139572
0.138899
0.138244
0.13761
0.136997
0.136406
0.135836
0.135284
0.134747
0.134223
0.133705
0.13319
0.132673
0.132148
0.131612
0.131059
0.130486
0.12989
0.129268
0.128618
0.12794
0.127232
0.126495
0.125731
0.124943
0.124132
0.123301
0.122454
0.121595
0.120726
0.119851
0.118972
0.118092
0.117213
0.116335
0.11546
0.114589
0.113722
0.112862