/*--------------------------------*- C++ -*----------------------------------*\
  =========                 |
  \\      /  F ield         | OpenFOAM: The Open Source CFD Toolbox
   \\    /   O peration     | Website:  https://openfoam.org
    \\  /    A nd           | Version:  10
     \\/     M anipulation  |
\*---------------------------------------------------------------------------*/
FoamFile
{
    format      ascii;
    class       volScalarField;
    location    "1100";
    object      nut;
}
// * * * * * * * * * * * * * * * * * * * * * * * * * * * * * * * * * * * * * //

dimensions      [0 2 -1 0 0 0 0];

internalField   nonuniform List<scalar> 
6820
(
0.000149811
0.000146298
0.000143078
0.00013985
0.000136611
0.000133451
0.000130461
0.000127699
0.000125195
0.000122955
0.000120974
0.000119238
0.000117731
0.000116432
0.000115323
0.000114385
0.000113601
0.000112955
0.000112432
0.000112018
0.000111702
0.000111473
0.000111321
0.000111238
0.000111215
0.000111248
0.00011132
0.000111469
0.00011161
0.000111783
0.000111047
0.000122201
6.47037e-05
0.000736674
0.000548089
0.000464582
0.000414442
0.000380745
0.000356926
0.000339504
0.000326357
0.000316144
0.000307998
0.000301348
0.000295808
0.000291112
0.000287071
0.000283549
0.000280446
0.000277686
0.000275213
0.000272981
0.000270955
0.000269106
0.000267411
0.000265851
0.00026441
0.000263076
0.000261838
0.000260685
0.000259615
0.000258646
0.000257715
0.000256619
0.000256558
0.000261476
0.000977663
0.000873824
0.000783702
0.000713318
0.000659073
0.000616658
0.000582752
0.000555027
0.000531888
0.000512235
0.000495296
0.000480517
0.000467485
0.000455892
0.0004455
0.000436122
0.000427611
0.000419847
0.000412732
0.000406186
0.000400142
0.000394543
0.000389341
0.000384493
0.000379962
0.000375716
0.000371724
0.000367959
0.000364406
0.000361015
0.000357628
0.00035444
0.000352562
0.0010135
0.000988678
0.000949905
0.000906246
0.000863767
0.000825048
0.00079068
0.000760405
0.000733704
0.000710036
0.00068892
0.000669954
0.000652809
0.000637215
0.000622955
0.000609849
0.000597749
0.000586534
0.0005761
0.000566362
0.000557246
0.000548689
0.000540637
0.000533043
0.000525865
0.000519065
0.000512608
0.000506465
0.000500605
0.000495008
0.000489588
0.000484289
0.000479343
0.00101667
0.00101251
0.00100235
0.000986318
0.000966167
0.000943904
0.000921101
0.000898748
0.000877379
0.00085723
0.000838366
0.00082076
0.000804341
0.000789018
0.0007747
0.000761295
0.00074872
0.000736897
0.000725757
0.000715239
0.000705287
0.000695853
0.000686893
0.000678367
0.000670239
0.000662477
0.000655051
0.000647932
0.000641093
0.000634509
0.000628145
0.00062194
0.000615898
0.00101674
0.0010159
0.00101373
0.00100941
0.00100265
0.000993631
0.000982853
0.000970879
0.000958219
0.000945271
0.000932326
0.000919579
0.000907153
0.000895126
0.000883535
0.000872397
0.000861713
0.000851474
0.000841666
0.000832269
0.000823263
0.000814627
0.000806341
0.000798382
0.00079073
0.000783366
0.00077627
0.000769423
0.000762805
0.000756398
0.000750182
0.000744129
0.000738205
0.00101671
0.00101621
0.00101554
0.00101439
0.00101245
0.00100952
0.00100553
0.00100054
0.000994676
0.000988123
0.000981054
0.00097363
0.000965985
0.00095823
0.000950452
0.000942715
0.000935069
0.000927548
0.000920177
0.000912974
0.000905948
0.000899105
0.000892446
0.00088597
0.000879675
0.000873556
0.000867606
0.000861818
0.000856183
0.000850693
0.000845339
0.000840109
0.000834985
0.0010167
0.00101622
0.00101574
0.0010152
0.00101449
0.0010135
0.00101214
0.00101032
0.00100801
0.00100523
0.00100201
0.000998399
0.00099446
0.000990254
0.000985837
0.000981265
0.000976581
0.000971827
0.000967035
0.000962233
0.000957444
0.000952684
0.000947969
0.000943308
0.000938711
0.000934183
0.000929727
0.000925346
0.000921041
0.00091681
0.000912653
0.000908568
0.00090455
0.0010167
0.00101621
0.00101574
0.00101528
0.00101481
0.00101429
0.00101367
0.00101292
0.001012
0.00101087
0.00100951
0.00100793
0.00100612
0.00100411
0.00100191
0.000999541
0.000997024
0.000994384
0.000991641
0.000988815
0.000985925
0.000982986
0.000980013
0.000977018
0.000974011
0.000971003
0.000967999
0.000965007
0.00096203
0.000959074
0.000956141
0.000953235
0.000950356
0.0010167
0.00101621
0.00101574
0.00101528
0.00101484
0.0010144
0.00101395
0.00101348
0.00101297
0.00101239
0.00101174
0.001011
0.00101017
0.00100922
0.00100817
0.00100701
0.00100576
0.0010044
0.00100297
0.00100145
0.000999858
0.000998206
0.000996501
0.000994751
0.000992962
0.000991141
0.000989295
0.00098743
0.00098555
0.00098366
0.000981764
0.000979867
0.000977971
0.0010167
0.00101621
0.00101574
0.00101528
0.00101484
0.00101441
0.00101398
0.00101357
0.00101315
0.00101273
0.00101229
0.00101183
0.00101134
0.00101082
0.00101025
0.00100964
0.00100898
0.00100827
0.00100751
0.00100671
0.00100586
0.00100496
0.00100403
0.00100306
0.00100205
0.00100101
0.000999945
0.000998854
0.000997743
0.000996613
0.000995469
0.000994313
0.000993148
0.0010167
0.00101621
0.00101574
0.00101528
0.00101483
0.0010144
0.00101398
0.00101357
0.00101317
0.00101278
0.00101239
0.00101201
0.00101162
0.00101123
0.00101083
0.00101042
0.00101
0.00100955
0.0010091
0.00100862
0.00100812
0.0010076
0.00100706
0.0010065
0.00100592
0.00100532
0.0010047
0.00100407
0.00100342
0.00100276
0.00100209
0.0010014
0.00100071
0.0010167
0.00101621
0.00101574
0.00101528
0.00101483
0.0010144
0.00101398
0.00101357
0.00101317
0.00101278
0.0010124
0.00101203
0.00101167
0.00101131
0.00101096
0.00101061
0.00101027
0.00100992
0.00100957
0.00100921
0.00100886
0.0010085
0.00100813
0.00100775
0.00100737
0.00100699
0.00100659
0.00100619
0.00100579
0.00100537
0.00100496
0.00100453
0.00100411
0.0010167
0.00101621
0.00101574
0.00101528
0.00101483
0.0010144
0.00101398
0.00101357
0.00101317
0.00101278
0.0010124
0.00101203
0.00101168
0.00101133
0.00101098
0.00101065
0.00101032
0.00101
0.00100968
0.00100937
0.00100906
0.00100876
0.00100845
0.00100815
0.00100785
0.00100755
0.00100725
0.00100696
0.00100666
0.00100636
0.00100606
0.00100577
0.00100547
0.0010167
0.00101621
0.00101574
0.00101528
0.00101483
0.0010144
0.00101398
0.00101356
0.00101317
0.00101278
0.0010124
0.00101203
0.00101167
0.00101132
0.00101098
0.00101065
0.00101033
0.00101001
0.0010097
0.0010094
0.00100911
0.00100882
0.00100854
0.00100826
0.00100799
0.00100772
0.00100745
0.0010072
0.00100694
0.00100669
0.00100644
0.0010062
0.00100596
0.0010167
0.00101621
0.00101574
0.00101528
0.00101483
0.0010144
0.00101397
0.00101356
0.00101316
0.00101277
0.0010124
0.00101203
0.00101167
0.00101132
0.00101098
0.00101065
0.00101033
0.00101001
0.0010097
0.0010094
0.00100911
0.00100883
0.00100855
0.00100828
0.00100802
0.00100776
0.0010075
0.00100726
0.00100702
0.00100678
0.00100655
0.00100633
0.00100611
0.0010167
0.00101621
0.00101574
0.00101528
0.00101483
0.0010144
0.00101397
0.00101356
0.00101316
0.00101277
0.00101239
0.00101203
0.00101167
0.00101132
0.00101098
0.00101065
0.00101032
0.00101001
0.0010097
0.0010094
0.00100911
0.00100883
0.00100855
0.00100828
0.00100802
0.00100776
0.00100751
0.00100727
0.00100703
0.0010068
0.00100658
0.00100636
0.00100615
0.0010167
0.00101621
0.00101574
0.00101528
0.00101483
0.00101439
0.00101397
0.00101356
0.00101316
0.00101277
0.00101239
0.00101202
0.00101167
0.00101132
0.00101097
0.00101064
0.00101032
0.00101001
0.0010097
0.0010094
0.00100911
0.00100883
0.00100855
0.00100828
0.00100802
0.00100776
0.00100751
0.00100727
0.00100704
0.00100681
0.00100658
0.00100637
0.00100616
0.0010167
0.00101621
0.00101574
0.00101528
0.00101483
0.00101439
0.00101397
0.00101356
0.00101316
0.00101277
0.00101239
0.00101202
0.00101166
0.00101131
0.00101097
0.00101064
0.00101032
0.00101
0.0010097
0.0010094
0.00100911
0.00100882
0.00100855
0.00100828
0.00100802
0.00100776
0.00100751
0.00100727
0.00100703
0.0010068
0.00100658
0.00100637
0.00100616
0.0010167
0.00101621
0.00101574
0.00101528
0.00101483
0.00101439
0.00101397
0.00101356
0.00101316
0.00101277
0.00101239
0.00101202
0.00101166
0.00101131
0.00101097
0.00101064
0.00101032
0.00101
0.00100969
0.0010094
0.0010091
0.00100882
0.00100854
0.00100828
0.00100801
0.00100776
0.00100751
0.00100727
0.00100703
0.0010068
0.00100658
0.00100636
0.00100615
0.0010167
0.00101621
0.00101574
0.00101528
0.00101483
0.00101439
0.00101397
0.00101356
0.00101316
0.00101277
0.00101239
0.00101202
0.00101166
0.00101131
0.00101097
0.00101064
0.00101031
0.00101
0.00100969
0.00100939
0.0010091
0.00100882
0.00100854
0.00100827
0.00100801
0.00100776
0.00100751
0.00100726
0.00100703
0.0010068
0.00100658
0.00100636
0.00100615
0.0010167
0.00101621
0.00101574
0.00101528
0.00101483
0.00101439
0.00101397
0.00101356
0.00101316
0.00101277
0.00101239
0.00101202
0.00101166
0.00101131
0.00101097
0.00101064
0.00101031
0.00101
0.00100969
0.00100939
0.0010091
0.00100882
0.00100854
0.00100827
0.00100801
0.00100775
0.0010075
0.00100726
0.00100703
0.0010068
0.00100657
0.00100636
0.00100614
0.0010167
0.00101621
0.00101574
0.00101528
0.00101483
0.00101439
0.00101397
0.00101356
0.00101316
0.00101277
0.00101239
0.00101202
0.00101166
0.00101131
0.00101097
0.00101064
0.00101031
0.00101
0.00100969
0.00100939
0.0010091
0.00100882
0.00100854
0.00100827
0.00100801
0.00100775
0.0010075
0.00100726
0.00100702
0.00100679
0.00100657
0.00100635
0.00100614
0.0010167
0.00101621
0.00101574
0.00101528
0.00101483
0.00101439
0.00101397
0.00101356
0.00101316
0.00101277
0.00101239
0.00101202
0.00101166
0.00101131
0.00101097
0.00101063
0.00101031
0.00101
0.00100969
0.00100939
0.0010091
0.00100881
0.00100854
0.00100827
0.00100801
0.00100775
0.0010075
0.00100726
0.00100702
0.00100679
0.00100657
0.00100635
0.00100614
0.0010167
0.00101621
0.00101574
0.00101528
0.00101483
0.00101439
0.00101397
0.00101356
0.00101316
0.00101277
0.00101239
0.00101202
0.00101166
0.00101131
0.00101097
0.00101063
0.00101031
0.00100999
0.00100969
0.00100939
0.0010091
0.00100881
0.00100854
0.00100827
0.001008
0.00100775
0.0010075
0.00100726
0.00100702
0.00100679
0.00100656
0.00100634
0.00100613
0.0010167
0.00101621
0.00101574
0.00101528
0.00101483
0.00101439
0.00101397
0.00101356
0.00101316
0.00101277
0.00101239
0.00101202
0.00101166
0.00101131
0.00101097
0.00101063
0.00101031
0.00100999
0.00100969
0.00100939
0.0010091
0.00100881
0.00100853
0.00100827
0.001008
0.00100775
0.0010075
0.00100725
0.00100702
0.00100678
0.00100656
0.00100634
0.00100613
0.0010167
0.00101621
0.00101574
0.00101528
0.00101483
0.00101439
0.00101397
0.00101356
0.00101316
0.00101277
0.00101239
0.00101202
0.00101166
0.00101131
0.00101096
0.00101063
0.00101031
0.00100999
0.00100969
0.00100939
0.00100909
0.00100881
0.00100853
0.00100826
0.001008
0.00100774
0.00100749
0.00100725
0.00100701
0.00100678
0.00100656
0.00100634
0.00100612
0.0010167
0.00101621
0.00101574
0.00101528
0.00101483
0.00101439
0.00101397
0.00101356
0.00101316
0.00101277
0.00101239
0.00101202
0.00101166
0.00101131
0.00101096
0.00101063
0.00101031
0.00100999
0.00100969
0.00100939
0.00100909
0.00100881
0.00100853
0.00100826
0.001008
0.00100774
0.00100749
0.00100725
0.00100701
0.00100678
0.00100655
0.00100633
0.00100612
0.0010167
0.00101621
0.00101574
0.00101528
0.00101483
0.00101439
0.00101397
0.00101356
0.00101316
0.00101277
0.00101239
0.00101202
0.00101166
0.00101131
0.00101096
0.00101063
0.00101031
0.00100999
0.00100969
0.00100939
0.00100909
0.00100881
0.00100853
0.00100826
0.001008
0.00100774
0.00100749
0.00100725
0.00100701
0.00100678
0.00100655
0.00100633
0.00100612
0.0010167
0.00101621
0.00101574
0.00101528
0.00101483
0.00101439
0.00101397
0.00101356
0.00101316
0.00101277
0.00101239
0.00101202
0.00101166
0.00101131
0.00101096
0.00101063
0.00101031
0.00100999
0.00100968
0.00100939
0.00100909
0.00100881
0.00100853
0.00100826
0.001008
0.00100774
0.00100749
0.00100725
0.00100701
0.00100678
0.00100655
0.00100633
0.00100611
0.0010167
0.00101621
0.00101574
0.00101528
0.00101483
0.00101439
0.00101397
0.00101356
0.00101316
0.00101277
0.00101239
0.00101202
0.00101166
0.00101131
0.00101096
0.00101063
0.00101031
0.00100999
0.00100968
0.00100939
0.00100909
0.00100881
0.00100853
0.00100826
0.001008
0.00100774
0.00100749
0.00100724
0.001007
0.00100677
0.00100654
0.00100632
0.0010061
0.0010167
0.00101621
0.00101574
0.00101528
0.00101483
0.00101439
0.00101397
0.00101356
0.00101316
0.00101277
0.00101239
0.00101202
0.00101166
0.00101131
0.00101097
0.00101063
0.00101031
0.00100999
0.00100968
0.00100938
0.00100909
0.0010088
0.00100852
0.00100825
0.00100798
0.00100772
0.00100747
0.00100722
0.00100697
0.00100673
0.0010065
0.00100627
0.00100605
0.0010167
0.00101621
0.00101574
0.00101528
0.00101483
0.00101439
0.00101397
0.00101356
0.00101316
0.00101277
0.00101239
0.00101202
0.00101166
0.0010113
0.00101096
0.00101062
0.00101029
0.00100997
0.00100966
0.00100935
0.00100904
0.00100875
0.00100845
0.00100816
0.00100788
0.0010076
0.00100732
0.00100705
0.00100678
0.00100651
0.00100625
0.00100599
0.00100573
0.0010167
0.00101621
0.00101574
0.00101528
0.00101483
0.00101439
0.00101397
0.00101356
0.00101315
0.00101276
0.00101237
0.00101199
0.00101162
0.00101125
0.00101088
0.00101051
0.00101015
0.00100978
0.00100942
0.00100906
0.00100869
0.00100832
0.00100795
0.00100758
0.00100721
0.00100683
0.00100646
0.00100608
0.00100569
0.00100531
0.00100492
0.00100453
0.00100414
0.0010167
0.00101621
0.00101574
0.00101527
0.00101482
0.00101438
0.00101394
0.0010135
0.00101305
0.00101259
0.00101213
0.00101165
0.00101115
0.00101063
0.00101009
0.00100952
0.00100893
0.00100832
0.00100769
0.00100703
0.00100635
0.00100565
0.00100493
0.00100419
0.00100343
0.00100265
0.00100185
0.00100105
0.00100023
0.000999393
0.000998551
0.0009977
0.000996842
0.0010167
0.00101621
0.00101571
0.00101519
0.00101464
0.00101403
0.00101334
0.00101256
0.00101168
0.00101069
0.00100959
0.00100838
0.00100706
0.00100564
0.00100412
0.00100251
0.00100081
0.000999036
0.000997191
0.000995284
0.000993321
0.000991312
0.000989262
0.000987178
0.000985067
0.000982934
0.000980785
0.000978624
0.000976458
0.000974289
0.000972122
0.00096996
0.000967807
0.00101669
0.00101596
0.00101486
0.00101329
0.00101119
0.00100857
0.00100544
0.00100184
0.000997818
0.000993415
0.000988685
0.00098368
0.000978449
0.000973038
0.000967489
0.000961839
0.000956122
0.000950368
0.000944602
0.000938847
0.000933121
0.000927441
0.000921819
0.000916269
0.000910798
0.000905415
0.000900126
0.000894934
0.000889846
0.000884862
0.000879985
0.000875216
0.000870555
0.00101524
0.00100707
0.00099497
0.00098065
0.00096482
0.000947934
0.000930376
0.00091249
0.000894572
0.000876848
0.000859484
0.000842593
0.000826248
0.000810495
0.000795356
0.000780838
0.000766936
0.000753637
0.000740923
0.000728774
0.000717165
0.000706073
0.000695474
0.000685344
0.000675658
0.000666395
0.000657532
0.000649049
0.000640926
0.000633144
0.000625685
0.000618534
0.000611672
0.000934352
0.000813407
0.000726829
0.000658811
0.000603127
0.000556768
0.000517836
0.000484852
0.000456629
0.000432244
0.000410988
0.000392314
0.000375791
0.00036108
0.000347906
0.000336052
0.000325337
0.000315612
0.000306754
0.000298659
0.00029124
0.000284422
0.00027814
0.000272338
0.00026697
0.000261991
0.000257366
0.000253061
0.000249049
0.000245303
0.0002418
0.000238521
0.000235446
0.000125479
0.000128845
0.000132087
0.000135185
0.000138141
0.000140961
0.00014365
0.000146214
0.000148657
0.000150984
0.000153199
0.000155306
0.000157311
0.000159216
0.000161026
0.000162745
0.000164377
0.000165926
0.000167396
0.00016879
0.000170112
0.000171365
0.000172554
0.00017368
0.000174747
0.000175757
0.000176715
0.000177622
0.000178482
0.000179296
0.000180066
0.000180796
0.000181488
0.000119335
0.000201004
0.000236446
0.000258444
0.000288477
0.000324208
0.000361304
0.000400018
0.000441406
0.000485091
0.000529482
0.000572152
0.000610611
0.000643377
0.000670518
0.000693488
0.000714413
0.000735209
0.000757178
0.000780993
0.000806893
0.000834887
0.000864888
0.000896761
0.000930273
0.000965003
0.00100025
0.00103501
0.00106802
0.00109797
0.00112372
0.00114451
0.00116016
0.00117106
0.00117813
0.00118263
0.001186
0.00118968
0.00119499
0.00120306
0.00121484
0.00123114
0.00125278
0.00128065
0.00131571
0.00135885
0.0014106
0.00147067
0.00153758
0.0016085
0.00167953
0.00174625
0.00180442
0.00185063
0.00188263
0.00189943
0.00190119
0.001889
0.00186464
0.00183031
0.00178851
0.00174182
0.00169279
0.00164387
0.00159734
0.00155523
0.00151932
0.00149114
0.00147201
0.0014631
0.00146556
0.00148061
0.0015095
0.00155309
0.00161112
0.0016814
0.00175941
0.0018389
0.00191326
0.00197703
0.00202675
0.00206115
0.00208084
0.00208779
0.00208521
0.00207784
0.00207311
0.00208266
0.00212209
0.00220557
0.00233537
0.00249505
0.00265606
0.00279291
0.00289266
0.00295424
0.00298299
0.00298589
0.00297128
0.00292421
0.000228503
0.000195676
0.00018196
0.00017305
0.000171677
0.000186479
0.00021818
0.000260277
0.000306265
0.000352539
0.000396953
0.000437351
0.000471944
0.000500516
0.000524825
0.000547422
0.0005704
0.000595064
0.000621982
0.000651171
0.000682316
0.000714954
0.000748612
0.000782851
0.000817232
0.000851232
0.000884175
0.000915207
0.000943351
0.000967645
0.000987318
0.00100196
0.00101162
0.00101685
0.00101862
0.00101818
0.00101693
0.00101624
0.00101737
0.00102137
0.0010291
0.00104126
0.00105852
0.0010816
0.00111133
0.00114858
0.00119401
0.00124766
0.00130852
0.00137427
0.00144139
0.00150563
0.00156273
0.00160907
0.00164214
0.00166068
0.0016646
0.00165483
0.00163301
0.0016013
0.00156214
0.00151809
0.00147174
0.00142555
0.00138184
0.00134268
0.00130986
0.00128491
0.00126907
0.00126338
0.00126881
0.00128637
0.00131714
0.00136199
0.00142086
0.00149193
0.00157107
0.00165231
0.00172914
0.00179603
0.0018494
0.00188784
0.00191178
0.00192311
0.00192493
0.00192188
0.00192126
0.00193468
0.00197796
0.00206577
0.00220067
0.00236573
0.00253154
0.00267204
0.00277444
0.00283806
0.0028686
0.00287319
0.00286054
0.00281507
0.000350627
0.000336987
0.00031137
0.00028279
0.000259039
0.000236114
0.000216205
0.000207504
0.000212275
0.000227452
0.000248854
0.0002732
0.000298414
0.000323459
0.000348076
0.000373024
0.000399388
0.000428131
0.000459724
0.000493998
0.000530292
0.000567725
0.000605442
0.00064271
0.000678896
0.000713382
0.000745489
0.000774465
0.000799526
0.000819971
0.000835315
0.000845412
0.000850527
0.000851343
0.00084889
0.000844441
0.00083937
0.000835028
0.000832627
0.000833175
0.00083745
0.000846045
0.000859453
0.000878178
0.000902831
0.000934135
0.000972782
0.00101911
0.00107268
0.00113186
0.00119378
0.00125464
0.0013103
0.00135702
0.00139198
0.00141352
0.00142124
0.00141574
0.00139846
0.0013714
0.0013369
0.0012975
0.00125575
0.00121415
0.00117501
0.00114041
0.00111215
0.00109165
0.00108003
0.00107809
0.00108651
0.00110597
0.00113728
0.00118127
0.00123822
0.00130696
0.00138419
0.00146465
0.0015422
0.00161131
0.00166813
0.00171091
0.00173973
0.00175617
0.00176302
0.00176454
0.00176752
0.00178292
0.00182631
0.00191314
0.0020477
0.00221456
0.00238439
0.00253022
0.00263823
0.00270715
0.00274251
0.00275137
0.00274275
0.00270109
0.00047481
0.000468048
0.00045617
0.000440901
0.000427231
0.000416141
0.000402201
0.000376913
0.000339306
0.000300043
0.000269344
0.000249849
0.000239895
0.000237368
0.000240952
0.000250276
0.000265563
0.000286851
0.000313645
0.000344941
0.000379459
0.000415889
0.000453054
0.000489941
0.000525662
0.000559383
0.000590277
0.000617521
0.000640358
0.000658185
0.000670667
0.000677824
0.00068007
0.0006782
0.000673312
0.0006667
0.000659725
0.000653692
0.000649744
0.000648798
0.000651512
0.000658315
0.000669479
0.000685229
0.000705862
0.000731823
0.000763684
0.00080195
0.000846705
0.000897181
0.000951472
0.00100659
0.00105887
0.00110469
0.00114098
0.00116574
0.00117809
0.00117823
0.00116729
0.00114702
0.00111962
0.00108751
0.00105321
0.00101915
0.000987617
0.000960584
0.000939686
0.000926145
0.000920761
0.000923979
0.000936031
0.000957151
0.000987789
0.00102866
0.00108037
0.00114264
0.00121346
0.00128879
0.00136334
0.00143182
0.00149019
0.00153619
0.00156937
0.00159076
0.00160265
0.0016087
0.00161482
0.0016308
0.00167132
0.00175245
0.00188125
0.00204558
0.00221755
0.0023692
0.00248482
0.00256165
0.00260441
0.00261983
0.00261715
0.00258149
0.00060932
0.000601877
0.000593305
0.000583269
0.000573604
0.000566925
0.000563846
0.000560974
0.000551078
0.000527131
0.000488397
0.000441746
0.000396553
0.000360061
0.000335676
0.000319909
0.00031014
0.000305052
0.000304333
0.000308349
0.000317549
0.00033191
0.000350778
0.000373024
0.000397269
0.000422065
0.000445994
0.000467751
0.00048623
0.000500616
0.000510472
0.000515792
0.000516996
0.000514886
0.000510537
0.000505176
0.000500041
0.000496261
0.000494764
0.000496218
0.000501016
0.000509301
0.000521035
0.000536101
0.000554423
0.000576079
0.000601366
0.00063075
0.000664677
0.000703218
0.00074568
0.000790374
0.000834716
0.000875662
0.000910293
0.000936344
0.000952506
0.000958508
0.000955016
0.000943438
0.0009257
0.000904032
0.000880764
0.000858153
0.00083823
0.000822676
0.000812736
0.000809181
0.000812329
0.000822138
0.00083837
0.000860815
0.000889542
0.000925063
0.000968201
0.00101951
0.00107845
0.00114272
0.00120848
0.00127126
0.00132706
0.00137319
0.00140853
0.0014334
0.00144936
0.00145927
0.00146789
0.0014834
0.00151886
0.00159037
0.00170803
0.0018646
0.00203525
0.00219163
0.00231561
0.00240205
0.00245424
0.0024782
0.00248319
0.00245562
0.000731523
0.000724074
0.000716516
0.000708464
0.000700125
0.00069262
0.000687055
0.000683167
0.000678822
0.000670767
0.000655899
0.000632576
0.000602189
0.000570021
0.000543037
0.000521199
0.000502846
0.000485873
0.000468476
0.000449884
0.000430741
0.000412778
0.000397956
0.000387657
0.000382333
0.000381573
0.000384367
0.00038939
0.000395264
0.000400786
0.000405099
0.000407794
0.000408925
0.000408939
0.000408557
0.000408617
0.000409938
0.000413196
0.00041885
0.000427099
0.000437893
0.000450969
0.000465926
0.000482321
0.000499767
0.000518032
0.000537114
0.000557265
0.000578949
0.000602686
0.000628784
0.000657027
0.000686472
0.000715475
0.000741999
0.000764082
0.000780261
0.00078984
0.000792957
0.000790491
0.000783878
0.000774884
0.000765374
0.000757106
0.000751559
0.000749814
0.0007525
0.000759807
0.000771565
0.000787359
0.000806685
0.000829127
0.000854552
0.000883268
0.000916042
0.000953808
0.00099705
0.00104515
0.0010961
0.00114689
0.00119425
0.00123547
0.0012689
0.0012941
0.00131179
0.00132386
0.00133379
0.00134782
0.00137675
0.00143561
0.0015371
0.00167977
0.00184384
0.00200182
0.00213319
0.00222973
0.00229258
0.00232657
0.00234063
0.00232311
0.000829156
0.000822586
0.000816038
0.000809363
0.000802439
0.000795486
0.000788991
0.000783197
0.000777681
0.000771512
0.000763646
0.000753178
0.000739797
0.000724688
0.000710217
0.000697122
0.00068508
0.000672974
0.000659269
0.000642515
0.000621864
0.000597438
0.000570355
0.000542406
0.000515535
0.000491375
0.000470963
0.00045469
0.000442414
0.000433668
0.000427887
0.000424591
0.000423488
0.000424489
0.00042766
0.000433131
0.000440998
0.00045125
0.000463723
0.000478091
0.000493891
0.00051057
0.000527549
0.000544287
0.000560338
0.000575395
0.000589323
0.000602169
0.000614162
0.000625673
0.000637141
0.000648962
0.000661338
0.00067415
0.000686903
0.000698825
0.000709099
0.000717136
0.000722767
0.000726305
0.000728476
0.00073026
0.000732703
0.000736737
0.000743046
0.000752
0.000763651
0.000777787
0.000794023
0.000811902
0.000830987
0.000850959
0.000871708
0.00089343
0.000916677
0.000942248
0.000970846
0.00100262
0.00103687
0.0010721
0.0011063
0.00113749
0.00116412
0.00118534
0.00120118
0.0012126
0.00122181
0.0012331
0.00125449
0.00129882
0.00137991
0.00150214
0.00165255
0.0018066
0.00194213
0.00204756
0.00212111
0.00216585
0.00218992
0.00218408
0.000899955
0.00089472
0.000889458
0.000884136
0.000878675
0.00087306
0.000867417
0.000861909
0.000856542
0.000851124
0.000845382
0.000839076
0.000832112
0.00082479
0.000817705
0.000811138
0.000804988
0.000798735
0.000791531
0.000782376
0.000770353
0.000754866
0.000735809
0.000713637
0.000689296
0.000664066
0.000639342
0.00061642
0.000596334
0.000579784
0.000567139
0.000558509
0.000553827
0.000552912
0.000555513
0.000561309
0.000569914
0.000580869
0.000593652
0.000607701
0.00062244
0.000637317
0.000651835
0.000665572
0.000678205
0.00068951
0.000699373
0.000707781
0.000714822
0.000720659
0.000725507
0.000729601
0.000733173
0.000736444
0.000739611
0.000742825
0.000746177
0.000749725
0.000753555
0.000757836
0.00076283
0.000768859
0.000776227
0.000785145
0.000795682
0.000807748
0.000821118
0.000835483
0.000850506
0.000865873
0.00088134
0.000896758
0.000912106
0.000927538
0.000943429
0.000960336
0.00097882
0.000999119
0.0010209
0.00104328
0.00106508
0.00108515
0.00110256
0.0011167
0.00112747
0.0011353
0.00114144
0.00114852
0.00116186
0.00119115
0.00124938
0.00134535
0.00147395
0.00161612
0.00174992
0.0018607
0.00194332
0.00199835
0.0020326
0.0020394
0.00094704
0.000943222
0.000939335
0.000935379
0.000931328
0.000927158
0.000922885
0.000918569
0.000914262
0.000909961
0.000905621
0.000901198
0.000896696
0.000892232
0.000887989
0.000884078
0.000880472
0.000876968
0.000873179
0.000868589
0.000862633
0.000854805
0.000844757
0.000832392
0.0008179
0.000801766
0.00078472
0.000767648
0.000751479
0.000737069
0.00072511
0.000716073
0.000710199
0.000707515
0.000707867
0.000710957
0.000716386
0.00072369
0.000732375
0.000741951
0.000751958
0.000761987
0.000771692
0.000780797
0.0007891
0.000796461
0.000802809
0.000808131
0.000812473
0.000815932
0.00081864
0.000820741
0.000822374
0.000823662
0.000824735
0.000825755
0.000826931
0.000828504
0.000830726
0.000833829
0.000838003
0.000843372
0.000849983
0.000857795
0.000866682
0.000876446
0.000886847
0.000897634
0.000908578
0.000919495
0.000930259
0.000940814
0.00095118
0.000961478
0.000971961
0.000983023
0.000995129
0.00100858
0.00102327
0.00103851
0.00105326
0.00106645
0.00107732
0.00108554
0.00109116
0.00109458
0.00109667
0.00109899
0.00110477
0.00112043
0.00115638
0.00122317
0.00132279
0.00144385
0.00156749
0.00167745
0.00176525
0.00182844
0.00187186
0.00189121
0.000975765
0.000973199
0.000970552
0.000967829
0.000965028
0.000962142
0.000959172
0.000956135
0.00095306
0.000949966
0.000946862
0.000943744
0.000940626
0.000937554
0.000934594
0.000931801
0.000929189
0.000926707
0.000924221
0.000921522
0.000918346
0.000914415
0.000909479
0.000903367
0.000896034
0.000887584
0.00087828
0.000868529
0.000858834
0.000849735
0.000841738
0.000835257
0.000830571
0.000827808
0.000826953
0.000827864
0.00083031
0.000833998
0.000838614
0.000843841
0.000849386
0.000854992
0.000860444
0.000865575
0.000870259
0.000874412
0.000877988
0.000880976
0.000883403
0.000885329
0.000886849
0.000888076
0.000889131
0.000890122
0.000891141
0.00089227
0.000893595
0.000895224
0.000897284
0.000899908
0.000903207
0.000907256
0.000912071
0.000917609
0.000923772
0.000930422
0.000937402
0.00094455
0.000951729
0.000958827
0.000965776
0.00097255
0.000979171
0.000985719
0.000992354
0.000999347
0.00100706
0.00101588
0.00102597
0.00103708
0.0010485
0.00105916
0.00106807
0.00107456
0.00107846
0.00108002
0.00107989
0.00107916
0.00107973
0.00108548
0.00110357
0.00114348
0.00121147
0.00130408
0.00140838
0.00150924
0.00159599
0.00166312
0.00171314
0.00174332
0.000991778
0.000990167
0.000988488
0.000986741
0.00098493
0.000983059
0.000981129
0.000979146
0.000977122
0.000975066
0.000972986
0.000970884
0.000968765
0.000966643
0.000964539
0.000962478
0.000960476
0.000958536
0.000956629
0.000954696
0.000952645
0.000950365
0.000947735
0.000944651
0.000941049
0.000936921
0.000932334
0.000927433
0.00092243
0.000917582
0.000913153
0.000909387
0.000906469
0.000904513
0.000903549
0.000903535
0.00090437
0.000905909
0.000907988
0.000910438
0.000913097
0.000915822
0.000918492
0.00092101
0.000923302
0.000925317
0.000927027
0.000928423
0.00092952
0.000930354
0.000930986
0.0009315
0.00093199
0.000932556
0.000933286
0.000934254
0.000935514
0.000937108
0.00093907
0.000941433
0.000944222
0.000947447
0.000951098
0.000955136
0.000959499
0.000964104
0.000968856
0.000973662
0.000978435
0.000983108
0.000987637
0.000992003
0.000996218
0.00100033
0.00100443
0.00100867
0.00101332
0.0010187
0.0010251
0.00103265
0.00104116
0.00105004
0.00105842
0.00106545
0.00107052
0.00107338
0.00107425
0.00107372
0.00107287
0.0010739
0.00108116
0.00110161
0.00114232
0.00120528
0.00128436
0.00136831
0.00144668
0.00151184
0.0015643
0.00160164
0.00099989
0.000998919
0.000997898
0.000996829
0.000995715
0.000994559
0.000993366
0.000992138
0.000990879
0.000989591
0.000988273
0.000986925
0.000985543
0.00098413
0.000982687
0.000981224
0.000979749
0.000978272
0.000976798
0.00097532
0.000973822
0.000972275
0.000970642
0.000968884
0.000966972
0.000964889
0.000962647
0.000960289
0.000957888
0.000955544
0.000953367
0.000951467
0.000949935
0.000948835
0.000948191
0.000947995
0.000948207
0.000948764
0.000949589
0.000950601
0.000951721
0.000952876
0.000954002
0.000955048
0.000955973
0.000956749
0.000957359
0.000957798
0.000958075
0.000958216
0.000958259
0.00095826
0.000958289
0.000958424
0.000958742
0.000959312
0.000960188
0.000961406
0.000962983
0.000964921
0.000967209
0.000969825
0.000972732
0.000975887
0.000979231
0.000982701
0.000986229
0.000989747
0.000993196
0.000996526
0.0009997
0.0010027
0.00100553
0.0010082
0.00101076
0.00101331
0.00101598
0.001019
0.00102263
0.00102711
0.00103255
0.00103885
0.00104563
0.00105229
0.0010582
0.00106285
0.00106598
0.00106766
0.0010683
0.00106897
0.00107201
0.00108179
0.0011041
0.00114313
0.00119785
0.00126171
0.00132646
0.00138408
0.00143427
0.00147364
0.0010036
0.00100301
0.00100238
0.00100173
0.00100104
0.00100034
0.000999609
0.000998863
0.000998097
0.000997312
0.000996502
0.000995663
0.00099479
0.000993877
0.000992922
0.000991924
0.000990889
0.000989822
0.000988731
0.000987626
0.00098651
0.000985387
0.000984257
0.000983117
0.000981962
0.000980794
0.000979616
0.000978442
0.000977296
0.000976209
0.00097522
0.000974364
0.000973674
0.000973172
0.000972866
0.000972749
0.000972803
0.000972998
0.0009733
0.000973671
0.000974073
0.000974473
0.000974839
0.000975145
0.000975372
0.000975505
0.000975535
0.000975463
0.000975297
0.000975054
0.000974764
0.000974466
0.00097421
0.000974055
0.000974062
0.000974289
0.000974788
0.000975595
0.000976732
0.0009782
0.000979989
0.00098207
0.000984406