/*--------------------------------*- C++ -*----------------------------------*\
  =========                 |
  \\      /  F ield         | OpenFOAM: The Open Source CFD Toolbox
   \\    /   O peration     | Website:  https://openfoam.org
    \\  /    A nd           | Version:  10
     \\/     M anipulation  |
\*---------------------------------------------------------------------------*/
FoamFile
{
    format      ascii;
    class       volScalarField;
    location    "1100";
    object      p;
}
// * * * * * * * * * * * * * * * * * * * * * * * * * * * * * * * * * * * * * //

dimensions      [0 2 -2 0 0 0 0];

internalField   nonuniform List<scalar> 
6820
(
-8.02954
-8.80107
-9.2486
-9.39582
-9.47466
-9.5401
-9.58604
-9.61677
-9.64068
-9.6615
-9.68007
-9.6969
-9.7126
-9.72753
-9.74188
-9.75577
-9.76926
-9.78241
-9.79524
-9.80775
-9.81991
-9.83168
-9.84295
-9.85357
-9.8633
-9.87176
-9.87828
-9.88178
-9.88012
-9.87153
-9.84388
-9.81362
-9.65289
-9.58395
-9.72917
-9.70522
-9.63663
-9.60924
-9.6149
-9.62821
-9.64158
-9.65588
-9.6711
-9.68631
-9.70103
-9.71529
-9.72917
-9.7427
-9.7559
-9.76879
-9.78141
-9.79377
-9.80585
-9.81765
-9.82912
-9.84017
-9.85071
-9.86052
-9.86939
-9.87678
-9.88247
-9.88445
-9.88413
-9.87155
-9.85752
-9.83848
-9.58759
-9.45226
-9.45271
-9.48716
-9.52312
-9.56079
-9.59339
-9.61903
-9.64064
-9.66018
-9.67805
-9.69451
-9.70995
-9.72466
-9.73881
-9.75251
-9.76584
-9.77884
-9.79155
-9.80398
-9.8161
-9.8279
-9.83931
-9.85023
-9.86052
-9.87001
-9.87835
-9.88541
-9.89021
-9.89403
-9.89418
-9.91058
-9.95034
-9.51796
-9.44046
-9.48496
-9.53239
-9.55849
-9.58333
-9.60775
-9.62856
-9.64695
-9.66427
-9.68071
-9.69626
-9.7111
-9.72541
-9.73929
-9.75281
-9.766
-9.7789
-9.79155
-9.80393
-9.81605
-9.82789
-9.83939
-9.85051
-9.86117
-9.87127
-9.8807
-9.88954
-9.89772
-9.90697
-9.91903
-9.94478
-9.98586
-9.51142
-9.48202
-9.51186
-9.54358
-9.56312
-9.58471
-9.60782
-9.62841
-9.64675
-9.66401
-9.6804
-9.69592
-9.71074
-9.72503
-9.73888
-9.75237
-9.76555
-9.77845
-9.79111
-9.80353
-9.81573
-9.82768
-9.83938
-9.8508
-9.86192
-9.87274
-9.88331
-9.89389
-9.90491
-9.91797
-9.93498
-9.96067
-9.99645
-9.51932
-9.5053
-9.52154
-9.5472
-9.5675
-9.58846
-9.61028
-9.63014
-9.64805
-9.66492
-9.681
-9.69631
-9.71097
-9.72514
-9.7389
-9.75232
-9.76545
-9.77833
-9.79099
-9.80344
-9.81569
-9.82776
-9.83965
-9.85136
-9.86293
-9.87443
-9.88601
-9.89803
-9.91106
-9.92634
-9.9453
-9.97031
-10.003
-9.52707
-9.51962
-9.53113
-9.55368
-9.57358
-9.59296
-9.61302
-9.63193
-9.64931
-9.66577
-9.68154
-9.69663
-9.71114
-9.72518
-9.73886
-9.75222
-9.7653
-9.77816
-9.79082
-9.8033
-9.81562
-9.8278
-9.83987
-9.85187
-9.86387
-9.87597
-9.8884
-9.90152
-9.91588
-9.93239
-9.95207
-9.9763
-10.0061
-9.53501
-9.53196
-9.5416
-9.56082
-9.57928
-9.5972
-9.6158
-9.63381
-9.65066
-9.66669
-9.68212
-9.69697
-9.7113
-9.72522
-9.73879
-9.75207
-9.76511
-9.77794
-9.79059
-9.80309
-9.81548
-9.82777
-9.84002
-9.85228
-9.86465
-9.87726
-9.89034
-9.90423
-9.91939
-9.93649
-9.95623
-9.97937
-10.0063
-9.54334
-9.54297
-9.5514
-9.56771
-9.58468
-9.60143
-9.61877
-9.63587
-9.65213
-9.6677
-9.68277
-9.69735
-9.71148
-9.72524
-9.7387
-9.75189
-9.76486
-9.77765
-9.79029
-9.80281
-9.81525
-9.82764
-9.84004
-9.85253
-9.86519
-9.87819
-9.89173
-9.9061
-9.92169
-9.93894
-9.95831
-9.98016
-10.0045
-9.55173
-9.55278
-9.5604
-9.57444
-9.58999
-9.60567
-9.62186
-9.63805
-9.65369
-9.6688
-9.68349
-9.69777
-9.71168
-9.72527
-9.73859
-9.75168
-9.76457
-9.77731
-9.78993
-9.80245
-9.81492
-9.82739
-9.83991
-9.85256
-9.86545
-9.87871
-9.89254
-9.90718
-9.92289
-9.93999
-9.95874
-9.97926
-10.0013
-9.55992
-9.56167
-9.56871
-9.58101
-9.5952
-9.60984
-9.62499
-9.64031
-9.65533
-9.66995
-9.68425
-9.69823
-9.7119
-9.7253
-9.73847
-9.75144
-9.76424
-9.77691
-9.78949
-9.802
-9.81449
-9.827
-9.8396
-9.85237
-9.8654
-9.87882
-9.89278
-9.90748
-9.92312
-9.93987
-9.95786
-9.9771
-9.99727
-9.56779
-9.56984
-9.57638
-9.58731
-9.60025
-9.61391
-9.62812
-9.64262
-9.65701
-9.67116
-9.68506
-9.69872
-9.71213
-9.72533
-9.73833
-9.75116
-9.76386
-9.77645
-9.78897
-9.80145
-9.81393
-9.82646
-9.83909
-9.85191
-9.86501
-9.87848
-9.89246
-9.90708
-9.92248
-9.93875
-9.95594
-9.97399
-9.99259
-9.57524
-9.57737
-9.58347
-9.59329
-9.60512
-9.61785
-9.63121
-9.64495
-9.65872
-9.67237
-9.68587
-9.69921
-9.71236
-9.72533
-9.73815
-9.75084
-9.76342
-9.77592
-9.78836
-9.80078
-9.81323
-9.82573
-9.83836
-9.85118
-9.86426
-9.8777
-9.89158
-9.90601
-9.92107
-9.93679
-9.95318
-9.97015
-9.98741
-9.58223
-9.58433
-9.59001
-9.59893
-9.60977
-9.62164
-9.63422
-9.64724
-9.66042
-9.67359
-9.68669
-9.69968
-9.71256
-9.7253
-9.73793
-9.75046
-9.76291
-9.77529
-9.78764
-9.79998
-9.81236
-9.82481
-9.83739
-9.85015
-9.86315
-9.87647
-9.89018
-9.90433
-9.91897
-9.93411
-9.94972
-9.9657
-9.98182
-9.58873
-9.59075
-9.59604
-9.60419
-9.61418
-9.62526
-9.6371
-9.64946
-9.66207
-9.67476
-9.68746
-9.70013
-9.71272
-9.72523
-9.73765
-9.75001
-9.7623
-9.77456
-9.78679
-9.79903
-9.81132
-9.82368
-9.83616
-9.84881
-9.86167
-9.87481
-9.88826
-9.90207
-9.91625
-9.9308
-9.94565
-9.96074
-9.97586
-9.59474
-9.59665
-9.60156
-9.60907
-9.6183
-9.62866
-9.63984
-9.65157
-9.66364
-9.67588
-9.68819
-9.70051
-9.71282
-9.72508
-9.7373
-9.74946
-9.7616
-9.7737
-9.7858
-9.79792
-9.81008
-9.82231
-9.83465
-9.84714
-9.85982
-9.87272
-9.88586
-9.89928
-9.91298
-9.92692
-9.94106
-9.95532
-9.96955
-9.60023
-9.60202
-9.6066
-9.61355
-9.62212
-9.63183
-9.64238
-9.65355
-9.66511
-9.6769
-9.68883
-9.70082
-9.71284
-9.72485
-9.73684
-9.74881
-9.76077
-9.77271
-9.78465
-9.79662
-9.80862
-9.82069
-9.83286
-9.84515
-9.85759
-9.8702
-9.88301
-9.896
-9.90919
-9.92253
-9.93598
-9.94948
-9.9629
-9.60521
-9.60688
-9.61115
-9.61761
-9.6256
-9.63472
-9.64472
-9.65536
-9.66644
-9.6778
-9.68936
-9.70102
-9.71275
-9.72451
-9.73627
-9.74804
-9.7598
-9.77156
-9.78333
-9.79512
-9.80694
-9.81882
-9.83078
-9.84283
-9.855
-9.86729
-9.87971
-9.89226
-9.90493
-9.91768
-9.93047
-9.94325
-9.95591
-9.60966
-9.61123
-9.61521
-9.62124
-9.62873
-9.63732
-9.6468
-9.65696
-9.66759
-9.67855
-9.68975
-9.70109
-9.71254
-9.72404
-9.73557
-9.74712
-9.75867
-9.77024
-9.78181
-9.79341
-9.80503
-9.81669
-9.8284
-9.84019
-9.85204
-9.86398
-9.876
-9.88809
-9.90024
-9.9124
-9.92455
-9.93664
-9.94859
-9.61357
-9.61505
-9.61878
-9.62443
-9.63147
-9.6396
-9.64861
-9.65832
-9.66854
-9.67912
-9.68997
-9.70101
-9.71217
-9.72342
-9.73471
-9.74604
-9.75738
-9.76873
-9.7801
-9.79148
-9.80287
-9.81429
-9.82574
-9.83722
-9.84875
-9.86031
-9.87191
-9.88352
-9.89514
-9.90673
-9.91825
-9.92968
-9.94094
-9.61694
-9.61833
-9.62184
-9.62716
-9.63381
-9.64152
-9.65011
-9.65941
-9.66925
-9.67948
-9.69001
-9.70075
-9.71164
-9.72263
-9.73368
-9.74478
-9.7559
-9.76703
-9.77817
-9.78932
-9.80046
-9.81162
-9.82278
-9.83394
-9.84511
-9.85628
-9.86744
-9.87858
-9.88967
-9.90069
-9.9116
-9.92239
-9.93299
-9.61976
-9.62107
-9.62438
-9.62941
-9.63571
-9.64305
-9.65127
-9.6602
-9.66969
-9.67959
-9.68982
-9.70028
-9.7109
-9.72165
-9.73246
-9.74333
-9.75422
-9.76513
-9.77603
-9.78693
-9.79781
-9.80868
-9.81953
-9.83036
-9.84116
-9.85193
-9.86264
-9.87329
-9.88386
-9.89431
-9.90463
-9.91479
-9.92475
-9.622
-9.62325
-9.62638
-9.63116
-9.63715
-9.64416
-9.65205
-9.66066
-9.66983
-9.67944
-9.68938
-9.69957
-9.70995
-9.72045
-9.73104
-9.74167
-9.75233
-9.763
-9.77366
-9.7843
-9.79491
-9.80548
-9.81601
-9.82649
-9.83691
-9.84726
-9.85752
-9.86769
-9.87773
-9.88763
-9.89737
-9.90692
-9.91624
-9.62366
-9.62485
-9.62783
-9.63238
-9.63811
-9.64483
-9.65243
-9.66075
-9.66964
-9.67898
-9.68866
-9.69861
-9.70875
-9.71903
-9.72938
-9.73979
-9.75022
-9.76065
-9.77106
-9.78143
-9.79176
-9.80202
-9.81222
-9.82235
-9.83238
-9.84231
-9.85212
-9.8618
-9.87133
-9.88068
-9.88984
-9.89879
-9.9075
-9.62471
-9.62584
-9.62869
-9.63304
-9.63854
-9.64502
-9.65237
-9.66043
-9.66908
-9.67818
-9.68764
-9.69737
-9.70729
-9.71735
-9.72749
-9.73768
-9.74788
-9.75807
-9.76823
-9.77833
-9.78837
-9.79832
-9.80819
-9.81795
-9.82759
-9.8371
-9.84646
-9.85566
-9.86468
-9.87349
-9.88209
-9.89046
-9.89857
-9.62513
-9.62622
-9.62894
-9.63312
-9.63842
-9.64469
-9.65183
-9.65968
-9.66812
-9.67703
-9.68629
-9.69582
-9.70555
-9.71541
-9.72535
-9.73533
-9.74531
-9.75526
-9.76517
-9.775
-9.78475
-9.79439
-9.80392
-9.81332
-9.82257
-9.83166
-9.84057
-9.8493
-9.85782
-9.86611
-9.87416
-9.88196
-9.88949
-9.62489
-9.62593
-9.62855
-9.63257
-9.6377
-9.6438
-9.65077
-9.65846
-9.66674
-9.67548
-9.68458
-9.69394
-9.7035
-9.71318
-9.72294
-9.73272
-9.74249
-9.75222
-9.76188
-9.77145
-9.78092
-9.79025
-9.79945
-9.80849
-9.81735
-9.82603
-9.83451
-9.84278
-9.85081
-9.85859
-9.86611
-9.87336
-9.88032
-9.62398
-9.62497
-9.62747
-9.63135
-9.63634
-9.64231
-9.64915
-9.65672
-9.66488
-9.6735
-9.68248
-9.69172
-9.70114
-9.71067
-9.72026
-9.72986
-9.73943
-9.74895
-9.75837
-9.76769
-9.77687
-9.7859
-9.79477
-9.80346
-9.81195
-9.82023
-9.82828
-9.83609
-9.84365
-9.85094
-9.85794
-9.86467
-9.87108
-9.62235
-9.62329
-9.62568
-9.62941
-9.63428
-9.64016
-9.64693
-9.65443
-9.66252
-9.67107
-9.67997
-9.68912
-9.69844
-9.70786
-9.71731
-9.72676
-9.73616
-9.74548
-9.7547
-9.76377
-9.77269
-9.78144
-9.79
-9.79835
-9.80648
-9.81437
-9.82202
-9.8294
-9.8365
-9.84332
-9.84984
-9.85605
-9.86194
-9.61998
-9.62087
-9.6231
-9.62667
-9.63144
-9.63729
-9.64404
-9.65154
-9.65962
-9.66816
-9.67703
-9.68613
-9.69538
-9.7047
-9.71404
-9.72335
-9.73259
-9.74172
-9.75072
-9.75956
-9.76823
-9.7767
-9.78495
-9.79297
-9.80075
-9.80827
-9.81552
-9.82249
-9.82916
-9.83553
-9.84158
-9.84731
-9.85271
-9.61688
-9.61766
-9.61968
-9.62305
-9.62776
-9.63363
-9.64043
-9.64799
-9.65614
-9.66475
-9.67369
-9.68283
-9.69209
-9.7014
-9.7107
-9.71993
-9.72907
-9.73807
-9.74691
-9.75556
-9.76401
-9.77223
-9.78021
-9.78793
-9.79539
-9.80257
-9.80945
-9.81603
-9.82229
-9.82823
-9.83383
-9.8391
-9.84401
-9.61305
-9.61366
-9.61531
-9.61841
-9.6231
-9.6291
-9.63605
-9.64373
-9.65198
-9.66066
-9.66962
-9.67876
-9.68799
-9.69724
-9.70645
-9.71558
-9.72459
-9.73344
-9.74211
-9.75057
-9.7588
-9.76679
-9.77451
-9.78196
-9.78913
-9.79599
-9.80254
-9.80877
-9.81467
-9.82023
-9.82545
-9.83032
-9.83485
-9.60857
-9.60885
-9.60986
-9.61256
-9.61726
-9.62351
-9.63081
-9.63893
-9.64768
-9.65682
-9.66617
-9.67562
-9.68509
-9.6945
-9.70381
-9.71297
-9.72196
-9.73073
-9.73928
-9.74758
-9.75561
-9.76337
-9.77083
-9.778
-9.78485
-9.79138
-9.79757
-9.80343
-9.80894
-9.81409
-9.81887
-9.82329
-9.82731
-9.60369
-9.60321
-9.60305
-9.6054
-9.61036
-9.61666
-9.62373
-9.6316
-9.64019
-9.64924
-9.65854
-9.66797
-9.67745
-9.68689
-9.69623
-9.70543
-9.71444
-9.72323
-9.73177
-9.74005
-9.74805
-9.75575
-9.76313
-9.77019
-9.77692
-9.78331
-9.78934
-9.79502
-9.80033
-9.80527
-9.80985
-9.81407
-9.81793
-9.59909
-9.59677
-9.5937
-9.59566
-9.60264
-9.61159
-9.62105
-9.63091
-9.64103
-9.65117
-9.6612
-9.67108
-9.68077
-9.69024
-9.69949
-9.70847
-9.7172
-9.72565
-9.73381
-9.74167
-9.74922
-9.75646
-9.76337
-9.76994
-9.77617
-9.78206
-9.78758
-9.79274
-9.79753
-9.80194
-9.80597
-9.80959
-9.81279
-9.59596
-9.59076
-9.58301
-9.58038
-9.58252
-9.58754
-9.59501
-9.6044
-9.6148
-9.62559
-9.63654
-9.64751
-9.65837
-9.66902
-9.67939
-9.68946
-9.69919
-9.70858
-9.7176
-9.72624
-9.7345
-9.74237
-9.74985
-9.75693
-9.7636
-9.76988
-9.77574
-9.7812
-9.78625
-9.79089
-9.79513
-9.799
-9.8025
-9.59593
-9.57594
-9.57854
-9.59798
-9.61426
-9.62461
-9.6338
-9.6435
-9.65304
-9.66206
-9.67075
-9.67927
-9.68763
-9.6958
-9.70378
-9.71157
-9.71915
-9.72651
-9.73362
-9.74049
-9.74708
-9.75339
-9.7594
-9.76511
-9.7705
-9.77555
-9.78027
-9.78463
-9.78864
-9.79229
-9.79555
-9.79842
-9.80086
-9.63303
-9.5097
-9.44639
-9.4497
-9.47161
-9.49278
-9.51346
-9.53451
-9.55491
-9.57402
-9.59185
-9.60852
-9.62412
-9.6387
-9.65237
-9.66521
-9.67726
-9.6886
-9.69926
-9.70927
-9.71868
-9.72751
-9.73577
-9.74349
-9.75068
-9.75734
-9.76351
-9.76917
-9.77435
-9.77905
-9.78328
-9.78707
-9.79042
-9.79269
-9.80576
-9.76426
-9.72177
-9.69733
-9.68625
-9.68111
-9.67847
-9.67786
-9.6793
-9.68236
-9.68649
-9.69134
-9.69671
-9.70246
-9.70844
-9.71455
-9.72069
-9.72679
-9.73281
-9.73868
-9.74438
-9.74986
-9.7551
-9.76007
-9.76475
-9.76913
-9.77319
-9.77692
-9.7803
-9.78334
-9.78603
-9.78833
-8.6283
-8.92854
-9.19334
-9.31891
-9.38345
-9.43903
-9.48798
-9.5257
-9.55472
-9.57892
-9.60005
-9.61862
-9.63506
-9.64986
-9.66337
-9.67579
-9.68728
-9.69795
-9.70788
-9.71715
-9.72579
-9.73384
-9.74134
-9.74831
-9.75476
-9.76071
-9.76616
-9.77114
-9.77564
-9.77968
-9.78325
-9.78639
-9.78907
-9.81626
-10.2873
-10.2667
-10.2391
-10.2359
-10.209
-10.1642
-10.1413
-10.1751
-10.276
-10.4285
-10.6034
-10.7729
-10.9175
-11.0252
-11.0893
-11.1092
-11.09
-11.0416
-10.9763
-10.9064
-10.8425
-10.7933
-10.7649
-10.7607
-10.7808
-10.8225
-10.8801
-10.9458
-11.0102
-11.0638
-11.0973
-11.103
-11.075
-11.0097
-10.9058
-10.7641
-10.587
-10.3786
-10.1435
-9.88707
-9.61472
-9.332
-9.04434
-8.75698
-8.47483
-8.20223
-7.94269
-7.69852
-7.4706
-7.2583
-7.05954
-6.87111
-6.68902
-6.509
-6.32684
-6.13875
-5.94161
-5.73312
-5.51194
-5.27765
-5.03079
-4.77268
-4.50535
-4.23134
-3.9535
-3.67482
-3.3983
-3.12675
-2.86281
-2.60889
-2.3672
-2.13972
-1.92823
-1.73409
-1.55811
-1.40032
-1.25996
-1.13557
-1.02523
-0.926799
-0.838142
-0.757222
-0.682153
-0.611213
-0.542918
-0.476178
-0.410597
-0.346778
-0.286381
-0.231621
-0.184361
-0.145332
-0.11394
-0.0889367
-0.0684756
-0.0512071
-0.0371908
-0.0170578
-0.0250591
-10.0439
-10.5083
-10.3997
-10.2487
-10.1929
-10.1554
-10.1162
-10.1031
-10.1448
-10.25
-10.4027
-10.5732
-10.7339
-10.868
-10.9667
-11.0256
-11.0442
-11.0266
-10.982
-10.9216
-10.8572
-10.7989
-10.755
-10.7309
-10.7299
-10.752
-10.7943
-10.8514
-10.9154
-10.9774
-11.0279
-11.058
-11.0602
-11.0289
-10.9606
-10.8544
-10.7111
-10.5335
-10.3255
-10.0916
-9.83725
-9.5676
-9.28805
-9.00381
-8.71995
-8.44124
-8.17197
-7.91564
-7.67463
-7.44992
-7.24096
-7.04572
-6.86092
-6.68252
-6.50608
-6.32724
-6.14211
-5.94747
-5.74102
-5.5214
-5.28828
-5.04227
-4.78479
-4.51797
-4.24439
-3.96697
-3.68872
-3.41259
-3.1414
-2.87774
-2.62396
-2.38222
-2.15451
-1.94262
-1.74796
-1.57144
-1.4132
-1.27254
-1.14803
-1.03773
-0.93945
-0.85097
-0.770175
-0.69508
-0.623846
-0.554852
-0.486888
-0.419545
-0.353586
-0.290995
-0.234322
-0.185597
-0.145502
-0.113293
-0.0875607
-0.0664715
-0.0485171
-0.0342537
-0.0134859
-0.0229051
-10.098
-10.3293
-10.2631
-10.1491
-10.1267
-10.1312
-10.1259
-10.1298
-10.1713
-10.2632
-10.3955
-10.544
-10.6851
-10.804
-10.8935
-10.9494
-10.9701
-10.9583
-10.9211
-10.8687
-10.8119
-10.7604
-10.7219
-10.7018
-10.7029
-10.7254
-10.7665
-10.821
-10.8814
-10.9391
-10.985
-11.0105
-11.0085
-10.9736
-10.9027
-10.795
-10.6514
-10.4746
-10.2684
-10.0375
-9.78676
-9.52134
-9.24633
-8.96674
-8.6874
-8.4129
-8.14741
-7.89439
-7.65627
-7.43414
-7.22759
-7.03468
-6.85225
-6.67622
-6.50213
-6.32557
-6.14254
-5.9498
-5.74501
-5.52685
-5.29502
-5.05018
-4.79382
-4.52809
-4.25564
-3.97937
-3.70226
-3.42725
-3.1571
-2.89434
-2.64126
-2.39999
-2.17247
-1.96046
-1.76545
-1.58839
-1.42952
-1.28826
-1.16324
-1.05253
-0.953927
-0.865183
-0.784113
-0.708657
-0.636882
-0.567059
-0.497886
-0.428935
-0.361088
-0.296577
-0.238204
-0.188126
-0.146978
-0.113895
-0.0873331
-0.0654982
-0.0467423
-0.0320525
-0.010675
-0.0209349
-10.071
-10.2037
-10.2078
-10.1491
-10.1388
-10.1523
-10.1582
-10.1697
-10.2104
-10.2904
-10.4025
-10.5282
-10.6485
-10.7509
-10.829
-10.8794
-10.9002
-10.8931
-10.8634
-10.8195
-10.7709
-10.7265
-10.6933
-10.6764
-10.6785
-10.6997
-10.7377
-10.7875
-10.8422
-10.8937
-10.9333
-10.9531
-10.9463
-10.908
-10.8351
-10.7268
-10.5842
-10.4099
-10.2074
-9.98108
-9.73571
-9.4761
-9.20709
-8.93342
-8.65967
-8.39022
-8.12905
-7.87953
-7.64409
-7.42393
-7.2188
-7.02698
-6.84546
-6.67032
-6.49716
-6.32159
-6.13962
-5.948
-5.74439
-5.52749
-5.29701
-5.05364
-4.79887
-4.53487
-4.26425
-3.98988
-3.7147
-3.44158
-3.17321
-2.91206
-2.66037
-2.42017
-2.19337
-1.98169
-1.7866
-1.60911
-1.44955
-1.30745
-1.18153
-1.06996
-0.970545
-0.881039
-0.799226
-0.723
-0.650369
-0.579537
-0.50914
-0.43873
-0.36926
-0.303114
-0.243272
-0.191983
-0.149845
-0.115906
-0.0884998
-0.0658807
-0.0462681
-0.031032
-0.00899887
-0.0196739
-10.0574
-10.1519
-10.1839
-10.1561
-10.1464
-10.1586
-10.172
-10.1918
-10.2333
-10.3033
-10.3977
-10.504
-10.6082
-10.6992
-10.7707
-10.8188
-10.8416
-10.8397
-10.8171
-10.7809
-10.7394
-10.7004
-10.6707
-10.6549
-10.6557
-10.6735
-10.7061
-10.749
-10.7961
-10.8397
-10.8719
-10.8853
-10.8735
-10.8318
-10.7576
-10.6499
-10.5097
-10.3393
-10.142
-9.92188
-9.68335
-9.43093
-9.16917
-8.90253
-8.63535
-8.37174
-8.11548
-7.86979
-7.63704
-7.41849
-7.21406
-7.02228
-6.84043
-6.66481
-6.49123
-6.31542
-6.13349
-5.94222
-5.73929
-5.5234
-5.29428
-5.05258
-4.7998
-4.53803
-4.26985
-3.99804
-3.72547
-3.45492
-3.18901
-2.93012
-2.68042
-2.44189
-2.21635
-2.00546
-1.81066
-1.63296
-1.47276
-1.3297
-1.20263
-1.08983
-0.989197
-0.898504
-0.815542
-0.738189
-0.664428
-0.592433
-0.52081
-0.449089
-0.378226
-0.31067
-0.249497
-0.197039
-0.153896
-0.11907
-0.0907948
-0.0673671
-0.0468702
-0.0310123
-0.00826928
-0.0190677
-10.0527
-10.1233
-10.1604
-10.1524
-10.1473
-10.16
-10.1795
-10.2056
-10.2466
-10.3077
-10.3873
-10.4777
-10.5682
-10.6492
-10.7144
-10.7599
-10.7839
-10.7867
-10.7713
-10.7432
-10.7093
-10.6764
-10.6503
-10.6355
-10.6344
-10.6475
-10.6733
-10.7078
-10.7456
-10.7798
-10.8034
-10.8095
-10.7924
-10.7475
-10.6724
-10.566
-10.429
-10.2635
-10.0724
-9.85953
-9.62879
-9.38444
-9.13074
-8.87189
-8.61196
-8.35483
-8.10403
-7.86258
-7.63274
-7.41577
-7.21171
-7.01935
-6.83627
-6.65913
-6.48403
-6.30695
-6.12416
-5.93254
-5.72983
-5.51473
-5.28697
-5.04714
-4.79668
-4.53761
-4.27239
-4.0037
-3.73431
-3.46689
-3.20397
-2.94786
-2.70066
-2.46428
-2.24047
-2.03082
-1.83668
-1.65906
-1.49838
-1.35436
-1.22602
-1.11176
-1.00961
-0.917395
-0.832963
-0.754202
-0.679103
-0.605848
-0.53304
-0.46018
-0.388172
-0.319422
-0.257021
-0.203366
-0.159115
-0.123292
-0.0940666
-0.0697734
-0.0483501
-0.0317977
-0.00827294
-0.0189562
-10.0479
-10.1025
-10.1383
-10.1434
-10.1449
-10.1595
-10.1823
-10.2113
-10.2508
-10.3051
-10.3742
-10.4527
-10.5322
-10.6042
-10.6628
-10.7047
-10.7285
-10.7343
-10.7244
-10.7031
-10.676
-10.6486
-10.6262
-10.6124
-10.6097
-10.6185
-10.6376
-10.6638
-10.6921
-10.7168
-10.7316
-10.7303
-10.7076
-10.6595
-10.5834
-10.4784
-10.3448
-10.1844
-9.99986
-9.79436
-9.57164
-9.3356
-9.0902
-8.8394
-8.587
-8.33665
-8.09165
-7.8548
-7.62821
-7.41307
-7.2095
-7.01647
-6.83186
-6.65271
-6.47547
-6.29646
-6.11219
-5.91972
-5.7169
-5.50245
-5.27605
-5.03826
-4.7904
-4.53438
-4.27251
-4.00736
-3.74155
-3.47766
-3.2181
-2.96511
-2.72073
-2.48681
-2.26503
-2.05691
-1.86374
-1.68647
-1.52551
-1.38068
-1.25107
-1.13526
-1.03141
-0.93746
-0.851326
-0.770951
-0.694366
-0.619794
-0.545865
-0.472056
-0.399171
-0.329474
-0.265968
-0.211085
-0.165586
-0.128597
-0.0982789
-0.0730171
-0.0505973
-0.0332613
-0.00887317
-0.0191957
-10.0422
-10.0863
-10.1195
-10.1327
-10.1408
-10.1572
-10.1814
-10.2113
-10.2495
-10.2991
-10.3605
-10.4295
-10.4994
-10.563
-10.6152
-10.6532
-10.676
-10.6836
-10.6778
-10.6619
-10.6403
-10.6178
-10.5985
-10.5858
-10.5818
-10.5868
-10.5999
-10.6183
-10.6378
-10.6535
-10.6597
-10.651
-10.6228
-10.5713
-10.4942
-10.3902
-10.2598
-10.1042
-9.92576
-9.72741
-9.51248
-9.28456
-9.04734
-8.80449
-8.5596
-8.31604
-8.07691
-7.84479
-7.62164
-7.40859
-7.20577
-7.0123
-6.82633
-6.64521
-6.46577
-6.28467
-6.09874
-5.90525
-5.70218
-5.48831
-5.26331
-5.02766
-4.78256
-4.52978
-4.2715
-4.01011
-3.7481
-3.48792
-3.2319
-2.98219
-2.74077
-2.50943
-2.2898
-2.08335
-1.8913
-1.71453
-1.55347
-1.40794
-1.27715
-1.15981
-1.0542
-0.958404
-0.870436
-0.788315
-0.710147
-0.634224
-0.559234
-0.484645
-0.41114
-0.340764
-0.276332
-0.220241
-0.173372
-0.135027
-0.103437
-0.0770609
-0.0535445
-0.0353155
-0.00998614
-0.0196608
-10.0358
-10.0731
-10.1038
-10.1219
-10.135
-10.1531
-10.1776
-10.2078
-10.2449
-10.291
-10.346
-10.4069
-10.4681
-10.5241
-10.5704
-10.6048
-10.6262
-10.6348
-10.632
-10.6202
-10.6031
-10.5844
-10.5678
-10.5561
-10.5509
-10.5527
-10.5605
-10.572
-10.5836
-10.591
-10.5893
-10.5739
-10.5404
-10.4856
-10.4071
-10.304
-10.1762
-10.025
-9.85228
-9.66063
-9.45308
-9.23293
-9.00356
-8.76839
-8.53077
-8.29384
-8.06046
-7.83303
-7.61338
-7.40253
-7.20065
-7.007
-6.81992
-6.63708
-6.45564
-6.27261
-6.08511
-5.89064
-5.68734
-5.47408
-5.2505
-5.01702
-4.77473
-4.52525
-4.27059
-4.01301
-3.75484
-3.49842
-3.24595
-2.99954
-2.76108
-2.53233
-2.31487
-2.11011
-1.9192
-1.743
-1.58189
-1.43573
-1.30384
-1.18499
-1.07763
-0.979966
-0.890105
-0.806172
-0.726365
-0.64907
-0.573055
-0.497804
-0.423881
-0.353081
-0.287943
-0.230743
-0.182456
-0.142597
-0.109545
-0.0818814
-0.0571418
-0.037888
-0.0115538
-0.020231
-10.0291
-10.0619
-10.0905
-10.1112
-10.1278
-10.1473
-10.1721
-10.202
-10.2379
-10.2808
-10.3302
-10.3838
-10.4375
-10.4867
-10.5279
-10.5588
-10.5788
-10.5879
-10.5871
-10.5784
-10.5647
-10.5491
-10.5346
-10.5236
-10.5174
-10.5163
-10.5194
-10.5249
-10.5295
-10.5295
-10.5208
-10.4991
-10.4608
-10.4029
-10.3232
-10.2206
-10.0953
-9.94806
-9.78059
-9.5952
-9.3946
-9.18179
-8.95989
-8.73207
-8.50142
-8.27086
-8.04305
-7.82021
-7.60402
-7.39544
-7.19467
-7.00105
-6.81316
-6.62889
-6.44575
-6.26104
-6.07217
-5.87687
-5.67345
-5.46082
-5.23867
-5.00734
-4.76781
-4.52156
-4.27047
-4.01662
-3.76223
-3.50948
-3.26052
-3.01735
-2.78181
-2.55561
-2.34028
-2.13718
-1.9474
-1.77176
-1.61063
-1.4639
-1.33093
-1.21063
-1.10154
-1.00199
-0.910223
-0.824449
-0.742975
-0.66429
-0.587256
-0.511389
-0.437163
-0.366125
-0.300499
-0.242359
-0.192701
-0.151251
-0.116583
-0.0874556
-0.0613501
-0.0409204
-0.0135358
-0.0207924
-10.0224
-10.0518
-10.0787
-10.1006
-10.1196
-10.1402
-10.165
-10.1944
-10.2287
-10.2684
-10.3128
-10.3601
-10.4073
-10.4506
-10.4872
-10.5151
-10.5336
-10.5427
-10.5433
-10.5369
-10.5257
-10.5125
-10.4995
-10.4888
-10.4815
-10.4777
-10.4767
-10.4767
-10.4752
-10.4687
-10.4537
-10.4266
-10.3839
-10.3231
-10.2423
-10.1403
-10.0171
-9.87355
-9.71096
-9.53141
-9.33733
-9.13144
-8.91662
-8.69578
-8.47178
-8.24734
-8.02488
-7.80649
-7.5937
-7.38743
-7.18788
-6.99451
-6.80604
-6.62066
-6.43612
-6.25001
-6.06001
-5.86407
-5.66064
-5.44872
-5.228
-4.99877
-4.76193
-4.51883
-4.2712
-4.02098
-3.77025
-3.5211
-3.27555
-3.03555
-2.80288
-2.57918
-2.36594
-2.16446
-1.9758
-1.80073
-1.6396
-1.49232
-1.35832
-1.2366
-1.12582
-1.02442
-0.930746
-0.843132
-0.759981
-0.679892
-0.60182
-0.525325
-0.450815
-0.379619
-0.313654
-0.254748
-0.203846
-0.160825
-0.124467
-0.0937383
-0.066132
-0.0443673
-0.0159067
-0.021252
-10.0155
-10.0425
-10.0679
-10.0903
-10.1106
-10.132
-10.1566
-10.1851
-10.2175
-10.254
-10.294
-10.3359
-10.3774
-10.4157
-10.4481
-10.4732
-10.4901
-10.499
-10.5004
-10.4956
-10.4864
-10.4749
-10.4629
-10.4522
-10.4436
-10.4373
-10.4325
-10.4277
-10.4207
-10.4084
-10.3879
-10.3558
-10.3093
-10.246
-10.164
-10.0626
-9.9415
-9.8013
-9.64326
-9.46917
-9.28122
-9.08188
-8.87376
-8.65956
-8.44189
-8.22328
-8.00597
-7.79187
-7.58241
-7.37846
-7.18022
-6.98724
-6.79844
-6.61219
-6.42651
-6.23926
-6.04836
-5.85196
-5.64864
-5.4375
-5.21823
-4.99109
-4.75688
-4.51684
-4.27257
-4.02588
-3.77873
-3.53308
-3.29089
-3.054
-2.82414
-2.6029
-2.39171
-2.19183
-2.00428
-1.82977
-1.66865
-1.52087
-1.38588
-1.2628
-1.15037
-1.04716
-0.951625
-0.862196
-0.777384
-0.695892
-0.616763
-0.539602
-0.464763
-0.393394
-0.32714
-0.267582
-0.215568
-0.171065
-0.13303
-0.100631
-0.0714287
-0.0481839
-0.0186435
-0.0215501
-10.0085
-10.0336
-10.0577
-10.08
-10.101
-10.1227
-10.1469
-10.1742
-10.2046
-10.2381
-10.2741
-10.3114
-10.348
-10.3817
-10.4104
-10.4328
-10.4482
-10.4565
-10.4583
-10.4546
-10.4468
-10.4364
-10.4251
-10.4142
-10.4043
-10.3955
-10.3872
-10.378
-10.366
-10.3486
-10.323
-10.2866
-10.2366
-10.171
-10.0882
-9.98731
-9.86811
-9.73108
-9.5773
-9.40834
-9.22617
-9.03301
-8.83125
-8.62335
-8.41173
-8.1987
-7.98632
-7.77637
-7.57016
-7.36852
-7.17166
-6.97922
-6.79026
-6.60336
-6.41678
-6.22862
-6.03701
-5.84031
-5.63721
-5.42691
-5.20911
-4.98403
-4.7524
-4.51535
-4.27437
-4.03114
-3.78748
-3.54528
-3.30638
-3.07255
-2.84547
-2.62665
-2.41749
-2.21919
-2.03272
-1.85878
-1.6977
-1.54943
-1.41351
-1.28911
-1.17509
-1.07013
-0.972781
-0.881579
-0.795141
-0.712264
-0.632074
-0.55421
-0.47898
-0.407377
-0.34081
-0.280638
-0.227601
-0.18171
-0.142056
-0.107981
-0.0771408
-0.052307
-0.0217027
-0.0216681
-10.0015
-10.0249
-10.0479
-10.0697
-10.0908
-10.1125
-10.136
-10.1619
-10.1903
-10.221
-10.2534
-10.2865
-10.3188
-10.3484
-10.3738
-10.3937
-10.4075
-10.4152
-10.4171
-10.414
-10.407
-10.3974
-10.3864
-10.3749
-10.3636
-10.3525
-10.341
-10.3278
-10.3112
-10.2892
-10.2591
-10.2188
-10.1657
-10.0981
-10.0146
-9.91418
-9.79677
-9.66272
-9.51295
-9.34882
-9.1721
-8.98479
-8.78906
-8.58715
-8.38129
-8.17358
-7.96595
-7.76
-7.55698
-7.35763
-7.16222
-6.97044
-6.78149
-6.59415
-6.40688
-6.218
-6.02587
-5.82899
-5.62622
-5.41681
-5.20048
-4.97744
-4.74834
-4.51423
-4.27646
-4.03661
-3.79639
-3.55757
-3.32191
-3.09111
-2.86676
-2.65034
-2.44318
-2.24644
-2.06105
-1.88768
-1.72665
-1.57793
-1.44112
-1.31546
-1.19992
-1.09325
-0.994138
-0.901211
-0.813186
-0.728951
-0.647703
-0.56911
-0.493433
-0.421523
-0.35459
-0.293797
-0.239779
-0.192567
-0.151357
-0.115629
-0.083148
-0.0566538
-0.0250033
-0.0216295
-9.99424
-10.0162
-10.0381
-10.0593
-10.0801
-10.1014
-10.1241
-10.1486
-10.1749
-10.2029
-10.2321
-10.2615
-10.2899
-10.316
-10.3383
-10.3558
-10.368
-10.3749
-10.3766
-10.3737
-10.3672
-10.3578
-10.3468
-10.3347
-10.3219
-10.3086
-10.294
-10.2772
-10.2565
-10.2303
-10.1962
-10.1523
-10.0965
-10.0272
-9.94293
-9.84309
-9.7274
-9.59615
-9.45013
-9.29055
-9.11897
-8.93718
-8.74717
-8.55095
-8.35057
-8.14796
-7.94487
-7.7428
-7.54288
-7.34583
-7.15192
-6.96091
-6.77214
-6.58454
-6.39678
-6.20738
-6.01488
-5.81797
-5.61561
-5.40713
-5.19229
-4.97126
-4.74465
-4.5134
-4.27877
-4.04223
-3.80537
-3.56988
-3.33741
-3.10959
-2.88794
-2.67389
-2.46872
-2.27352
-2.08921
-1.91641
-1.75545
-1.60632
-1.46866
-1.3418
-1.22477
-1.11647
-1.01564
-0.921036
-0.831462
-0.745893
-0.663591
-0.584246
-0.50807
-0.435788
-0.36843
-0.306988
-0.252005
-0.203517
-0.160804
-0.123455
-0.0893477
-0.0611489
-0.028443
-0.0215026
-9.9868
-10.0075
-10.0283
-10.0487
-10.069
-10.0896
-10.1112
-10.1342
-10.1586
-10.1841
-10.2102
-10.2363
-10.2613
-10.2841
-10.3036
-10.3189
-10.3296
-10.3355
-10.3367
-10.3338
-10.3273
-10.318
-10.3066
-10.2936
-10.2794
-10.2639
-10.2465
-10.2263
-10.202
-10.172
-10.1343
-10.0873
-10.029
-9.95806
-9.87329
-9.77399
-9.65992
-9.5313
-9.3888
-9.2335
-9.06676
-8.89019
-8.70558
-8.51477
-8.3196
-8.12185
-7.92313
-7.7248
-7.52791
-7.33315
-7.1408
-6.95068
-6.76223
-6.57455
-6.38648
-6.19673
-6.00403
-5.8072
-5.60534
-5.39785
-5.1845
-4.96546
-4.74128
-4.51282
-4.28126
-4.04796
-3.8144
-3.58217
-3.35284
-3.12795
-2.90897
-2.69725
-2.49403
-2.30037
-2.11712
-1.94491
-1.78404
-1.63454
-1.49608
-1.36806
-1.24963
-1.13973
-1.03725
-0.941013
-0.849926
-0.763045
-0.679691
-0.599568
-0.522843
-0.450126
-0.382286
-0.320163
-0.264217
-0.214483
-0.170311
-0.131373
-0.095662
-0.0657364
-0.0319272
-0.0213894
-9.97912
-9.99862
-10.0183
-10.0378
-10.0573
-10.0771
-10.0976
-10.1191
-10.1415
-10.1646
-10.188
-10.2111
-10.233
-10.2528
-10.2698
-10.283
-10.2921
-10.2969
-10.2975
-10.2942
-10.2874
-10.2778
-10.2659
-10.252
-10.2363
-10.2187
-10.1987
-10.1754
-10.1478
-10.1143
-10.0735
-10.0236
-9.96312
-9.89081
-9.80559
-9.70683
-9.59429
-9.46815
-9.32897
-9.17767
-9.01548
-8.84384
-8.66433
-8.47864
-8.28843
-8.09532
-7.90077
-7.70605
-7.51213
-7.31965
-7.1289
-6.93976
-6.75178
-6.56419
-6.37599
-6.18607
-5.99331
-5.7967
-5.59542
-5.38895
-5.1771
-4.96002
-4.73822
-4.5125
-4.28393
-4.05378
-3.82345
-3.59441
-3.36815
-3.14614
-2.92978
-2.72037
-2.51908
-2.32694
-2.14475
-1.97313
-1.81238
-1.66253
-1.52333
-1.39422
-1.27442
-1.16301
-1.05892
-0.961105
-0.868544
-0.780372
-0.695964
-0.615038
-0.537716
-0.464503
-0.396125
-0.333287
-0.276373
-0.225412
-0.179815
-0.139316
-0.102024
-0.0703666
-0.0353771
-0.0213892
-9.97118
-9.98954
-10.0081
-10.0267
-10.0453
-10.064
-10.0833
-10.1032
-10.1237
-10.1446
-10.1655
-10.1858
-10.2049
-10.2221
-10.2367
-10.2479
-10.2554
-10.259
-10.2588
-10.2549
-10.2477
-10.2376
-10.2249
-10.2099
-10.1927
-10.1731
-10.1507
-10.1246
-10.094
-10.0574
-10.0137
-9.96127
-9.8989
-9.82538
-9.73981
-9.6416
-9.53052
-9.40669
-9.27061
-9.12308
-8.96517
-8.79815
-8.62346
-8.4426
-8.25709
-8.0684
-7.87786
-7.68662
-7.49559
-7.30538
-7.11627
-6.92821
-6.74083
-6.55349
-6.36533
-6.1754
-5.98273
-5.78644
-5.58582
-5.38043
-5.17008
-4.95494
-4.73547
-4.51242
-4.28676
-4.05969
-3.83249
-3.60657
-3.38332
-3.16414
-2.95036
-2.74321
-2.54382
-2.35317
-2.17205
-2.00102
-1.8404
-1.69026
-1.55035
-1.42021
-1.29912
-1.18624
-1.08062
-0.981274
-0.887278
-0.797838
-0.712376
-0.630622
-0.552657
-0.47889
-0.409921
-0.346336
-0.288445
-0.236271
-0.189273
-0.147236
-0.108381
-0.0749929
-0.0387277
-0.0215604
-9.96296
-9.98022
-9.99774
-10.0153
-10.0328
-10.0505
-10.0685
-10.0869
-10.1055
-10.1243
-10.1428
-10.1606
-10.1772
-10.192
-10.2042
-10.2135
-10.2195
-10.2219
-10.2207
-10.2161
-10.2082
-10.1974
-10.1838
-10.1677
-10.1489
-10.1274
-10.1027
-10.0741
-10.0406
-10.0014
-9.95504
-9.90042
-9.83634
-9.76178
-9.67594
-9.57828
-9.46857
-9.34693
-9.21376
-9.06974
-8.91584
-8.75317
-8.58301
-8.40672
-8.22567
-8.04117
-7.85446
-7.66658
-7.47837
-7.29041
-7.10298
-6.91608
-6.72942
-6.54247
-6.35451
-6.16472
-5.97228
-5.77643
-5.57656
-5.37227
-5.16344
-4.95022
-4.73303
-4.51257
-4.28975
-4.06567
-3.84153
-3.61865
-3.39833
-3.18191
-2.97065
-2.76572
-2.5682
-2.37903
-2.19895
-2.02853
-1.86808
-1.71767
-1.57711
-1.44599
-1.32368
-1.2094
-1.1023
-1.00148
-0.906089
-0.815404
-0.728891
-0.646286
-0.567635
-0.493262
-0.423654
-0.35929
-0.300413
-0.247035
-0.198657
-0.155101
-0.114693
-0.0795823
-0.0419377
-0.0219182
-9.95445
-9.97065
-9.9871
-10.0036
-10.02
-10.0365
-10.0532
-10.07
-10.0869
-10.1037
-10.12
-10.1355
-10.1498
-10.1623
-10.1725
-10.1799
-10.1843
-10.1854
-10.1832
-10.1777
-10.169
-10.1573
-10.1427
-10.1253
-10.1051
-10.0817
-10.0549
-10.0239
-9.988
-9.94626
-9.89762
-9.84103