/*--------------------------------*- C++ -*----------------------------------*\
  =========                 |
  \\      /  F ield         | OpenFOAM: The Open Source CFD Toolbox
   \\    /   O peration     | Website:  https://openfoam.org
    \\  /    A nd           | Version:  10
     \\/     M anipulation  |
\*---------------------------------------------------------------------------*/
FoamFile
{
    format      ascii;
    class       surfaceScalarField;
    location    "1100";
    object      phi;
}
// * * * * * * * * * * * * * * * * * * * * * * * * * * * * * * * * * * * * * //

dimensions      [0 3 -1 0 0 0 0];

internalField   nonuniform List<scalar> 
13452
(
6.02921e-05
-2.36182e-08
5.99942e-05
2.97852e-07
5.95907e-05
4.03531e-07
5.91174e-05
4.73346e-07
5.86139e-05
5.03424e-07
5.81338e-05
4.80119e-07
5.7699e-05
4.34787e-07
5.73099e-05
3.89141e-07
5.69609e-05
3.48959e-07
5.66463e-05
3.14573e-07
5.63609e-05
2.85466e-07
5.61e-05
2.6091e-07
5.58599e-05
2.40077e-07
5.56377e-05
2.22217e-07
5.54309e-05
2.06738e-07
5.52377e-05
1.93194e-07
5.50565e-05
1.81249e-07
5.48858e-05
1.70656e-07
5.47246e-05
1.61229e-07
5.45718e-05
1.52844e-07
5.44263e-05
1.45423e-07
5.42874e-05
1.38935e-07
5.4154e-05
1.33408e-07
5.40251e-05
1.28946e-07
5.38993e-05
1.25766e-07
5.3775e-05
1.2428e-07
5.36495e-05
1.25507e-07
5.35193e-05
1.30201e-07
5.33762e-05
1.4313e-07
5.32086e-05
1.67612e-07
5.29558e-05
2.52779e-07
5.26667e-05
2.89115e-07
5.3141e-07
5.21353e-05
6.21472e-05
-1.80495e-07
6.21733e-05
2.7175e-07
6.21955e-05
3.81395e-07
6.22122e-05
4.56558e-07
6.22128e-05
5.02824e-07
6.21834e-05
5.09569e-07
6.21225e-05
4.95689e-07
6.20363e-05
4.7532e-07
6.19325e-05
4.5278e-07
6.18176e-05
4.29501e-07
6.16964e-05
4.06619e-07
6.15724e-05
3.84877e-07
6.1448e-05
3.64563e-07
6.13245e-05
3.45716e-07
6.12029e-05
3.2829e-07
6.10839e-05
3.12208e-07
6.09678e-05
2.97379e-07
6.08547e-05
2.83721e-07
6.07448e-05
2.7116e-07
6.0638e-05
2.59648e-07
6.05342e-05
2.49158e-07
6.04335e-05
2.39701e-07
6.03355e-05
2.31334e-07
6.02403e-05
2.24179e-07
6.01476e-05
2.18477e-07
6.00573e-05
2.14582e-07
5.99692e-05
2.13553e-07
5.98838e-05
2.15633e-07
5.98021e-05
2.24813e-07
5.97251e-05
2.44671e-07
5.96808e-05
2.97089e-07
5.96548e-05
3.15095e-07
4.67766e-07
5.97184e-05
6.36687e-05
-8.78356e-08
6.37278e-05
2.12686e-07
6.37883e-05
3.20895e-07
6.38523e-05
3.92526e-07
6.39078e-05
4.47337e-07
6.39453e-05
4.72055e-07
6.39648e-05
4.76264e-07
6.39689e-05
4.7123e-07
6.39602e-05
4.6139e-07
6.39413e-05
4.48461e-07
6.39141e-05
4.33825e-07
6.38804e-05
4.18534e-07
6.38418e-05
4.03194e-07
6.37994e-05
3.88129e-07
6.37541e-05
3.73534e-07
6.37068e-05
3.59532e-07
6.3658e-05
3.46197e-07
6.36081e-05
3.33578e-07
6.35576e-05
3.21713e-07
6.35066e-05
3.10643e-07
6.34553e-05
3.00423e-07
6.34039e-05
2.91134e-07
6.33523e-05
2.82901e-07
6.33006e-05
2.75919e-07
6.32486e-05
2.70504e-07
6.3196e-05
2.67096e-07
6.31429e-05
2.66718e-07
6.30886e-05
2.69953e-07
6.30334e-05
2.79975e-07
6.29784e-05
2.99704e-07
6.29403e-05
3.35106e-07
6.28937e-05
3.61755e-07
4.46019e-07
6.29154e-05
6.55169e-05
-2.16898e-08
6.55582e-05
1.71427e-07
6.55956e-05
2.83486e-07
6.56372e-05
3.50944e-07
6.56803e-05
4.0421e-07
6.57181e-05
4.3423e-07
6.5749e-05
4.4539e-07
6.57732e-05
4.47038e-07
6.5791e-05
4.43599e-07
6.58028e-05
4.3667e-07
6.58092e-05
4.27442e-07
6.58108e-05
4.16895e-07
6.58083e-05
4.05659e-07
6.58023e-05
3.94113e-07
6.57934e-05
3.82515e-07
6.57818e-05
3.71056e-07
6.57682e-05
3.5988e-07
6.57526e-05
3.49099e-07
6.57355e-05
3.3881e-07
6.57171e-05
3.2911e-07
6.56974e-05
3.20105e-07
6.56766e-05
3.11927e-07
6.56547e-05
3.04752e-07
6.56318e-05
2.98821e-07
6.56079e-05
2.94492e-07
6.55827e-05
2.92249e-07
6.55564e-05
2.92975e-07
6.5529e-05
2.9741e-07
6.55013e-05
3.07689e-07
6.54757e-05
3.25244e-07
6.54589e-05
3.51891e-07
6.54399e-05
3.80842e-07
4.34505e-07
6.54514e-05
6.74276e-05
7.51625e-09
6.74482e-05
1.5081e-07
6.74721e-05
2.59537e-07
6.75009e-05
3.2223e-07
6.75348e-05
3.70247e-07
6.75684e-05
4.00696e-07
6.75989e-05
4.14884e-07
6.7626e-05
4.19921e-07
6.76497e-05
4.19903e-07
6.767e-05
4.16355e-07
6.76871e-05
4.10342e-07
6.77012e-05
4.02776e-07
6.77126e-05
3.9427e-07
6.77215e-05
3.85205e-07
6.77282e-05
3.75852e-07
6.77328e-05
3.66419e-07
6.77356e-05
3.5707e-07
6.77368e-05
3.47943e-07
6.77364e-05
3.39161e-07
6.77347e-05
3.30848e-07
6.77316e-05
3.23136e-07
6.77274e-05
3.16186e-07
6.77219e-05
3.10195e-07
6.77153e-05
3.05426e-07
6.77076e-05
3.02235e-07
6.76988e-05
3.0109e-07
6.7689e-05
3.02701e-07
6.76787e-05
3.07738e-07
6.76689e-05
3.1751e-07
6.76614e-05
3.3274e-07
6.76592e-05
3.54108e-07
6.76607e-05
3.79318e-07
4.13846e-07
6.76814e-05
6.937e-05
2.15619e-08
6.93829e-05
1.37888e-07
6.94049e-05
2.37562e-07
6.94297e-05
2.97426e-07
6.94584e-05
3.41578e-07
6.94876e-05
3.71473e-07
6.95152e-05
3.87239e-07
6.9541e-05
3.94166e-07
6.95648e-05
3.96033e-07
6.95868e-05
3.94405e-07
6.96068e-05
3.9029e-07
6.96251e-05
3.84547e-07
6.96416e-05
3.77771e-07
6.96564e-05
3.70342e-07
6.96698e-05
3.62529e-07
6.96816e-05
3.54544e-07
6.96921e-05
3.46557e-07
6.97014e-05
3.38714e-07
6.97094e-05
3.31148e-07
6.97162e-05
3.23993e-07
6.9722e-05
3.17394e-07
6.97267e-05
3.11519e-07
6.97303e-05
3.06571e-07
6.97329e-05
3.02805e-07
6.97346e-05
3.0055e-07
6.97355e-05
3.00216e-07
6.97358e-05
3.0234e-07
6.97361e-05
3.07442e-07
6.97374e-05
3.16272e-07
6.97409e-05
3.29149e-07
6.9749e-05
3.46092e-07
6.97627e-05
3.65529e-07
3.87606e-07
6.9789e-05
7.13589e-05
2.9013e-08
7.13698e-05
1.27014e-07
7.1391e-05
2.163e-07
7.14143e-05
2.74145e-07
7.14401e-05
3.15791e-07
7.14666e-05
3.4492e-07
7.14922e-05
3.61646e-07
7.15165e-05
3.69864e-07
7.15396e-05
3.72982e-07
7.15614e-05
3.72614e-07
7.15819e-05
3.69747e-07
7.16013e-05
3.652e-07
7.16195e-05
3.59566e-07
7.16366e-05
3.5323e-07
7.16526e-05
3.46467e-07
7.16677e-05
3.39492e-07
7.16818e-05
3.32481e-07
7.16949e-05
3.25582e-07
7.17071e-05
3.18934e-07
7.17184e-05
3.12674e-07
7.17289e-05
3.06947e-07
7.17385e-05
3.01921e-07
7.17473e-05
2.97788e-07
7.17553e-05
2.94782e-07
7.17627e-05
2.93185e-07
7.17695e-05
2.93329e-07
7.17763e-05
2.95601e-07
7.17834e-05
3.0035e-07
7.17917e-05
3.07955e-07
7.18024e-05
3.18438e-07
7.18171e-05
3.31423e-07
7.18371e-05
3.45469e-07
3.59576e-07
7.18652e-05
7.3402e-05
3.2285e-08
7.34119e-05
1.17141e-07
7.34315e-05
1.96638e-07
7.34537e-05
2.51996e-07
7.34779e-05
2.91607e-07
7.3503e-05
3.19831e-07
7.35274e-05
3.37159e-07
7.35509e-05
3.46416e-07
7.35733e-05
3.50552e-07
7.35948e-05
3.51177e-07
7.36152e-05
3.49272e-07
7.36348e-05
3.45628e-07
7.36535e-05
3.40836e-07
7.36715e-05
3.35296e-07
7.36886e-05
3.29294e-07
7.37051e-05
3.23052e-07
7.37208e-05
3.16753e-07
7.37358e-05
3.1055e-07
7.37502e-05
3.04583e-07
7.37639e-05
2.98991e-07
7.37769e-05
2.93916e-07
7.37893e-05
2.89516e-07
7.38011e-05
2.85966e-07
7.38124e-05
2.83468e-07
7.38234e-05
2.82253e-07
7.38341e-05
2.8257e-07
7.38451e-05
2.84677e-07
7.38566e-05
2.88773e-07
7.38696e-05
2.94987e-07
7.38849e-05
3.03152e-07
7.39036e-05
3.12725e-07
7.39266e-05
3.22428e-07
3.31357e-07
7.39549e-05
7.55019e-05
3.28947e-08
7.5511e-05
1.07975e-07
7.55289e-05
1.78718e-07
7.555e-05
2.30932e-07
7.5573e-05
2.68601e-07
7.5597e-05
2.95796e-07
7.56208e-05
3.13386e-07
7.56438e-05
3.23444e-07
7.56659e-05
3.28435e-07
7.56872e-05
3.29908e-07
7.57076e-05
3.28827e-07
7.57273e-05
3.25952e-07
7.57463e-05
3.21866e-07
7.57646e-05
3.16978e-07
7.57823e-05
3.11588e-07
7.57994e-05
3.05926e-07
7.5816e-05
3.00181e-07
7.5832e-05
2.94513e-07
7.58475e-05
2.89065e-07
7.58626e-05
2.83972e-07
7.58771e-05
2.79373e-07
7.58912e-05
2.75412e-07
7.59049e-05
2.72244e-07
7.59184e-05
2.70035e-07
7.59317e-05
2.68964e-07
7.5945e-05
2.69204e-07
7.59588e-05
2.70909e-07
7.59734e-05
2.7416e-07
7.59895e-05
2.7893e-07
7.60077e-05
2.84955e-07
7.60287e-05
2.91678e-07
7.60531e-05
2.9804e-07
3.03491e-07
7.6081e-05
7.76605e-05
3.19656e-08
7.76692e-05
9.92764e-08
7.76856e-05
1.62333e-07
7.77055e-05
2.10988e-07
7.77275e-05
2.46674e-07
7.77505e-05
2.72715e-07
7.77737e-05
2.90235e-07
7.77963e-05
3.00819e-07
7.78183e-05
3.06484e-07
7.78395e-05
3.0867e-07
7.786e-05
3.08306e-07
7.78799e-05
3.06112e-07
7.78991e-05
3.02655e-07
7.79177e-05
2.98346e-07
7.79358e-05
2.93491e-07
7.79534e-05
2.88326e-07
7.79705e-05
2.83048e-07
7.79872e-05
2.77818e-07
7.80035e-05
2.72782e-07
7.80194e-05
2.68072e-07
7.8035e-05
2.6382e-07
7.80502e-05
2.60154e-07
7.80653e-05
2.57208e-07
7.80802e-05
2.55114e-07
7.80951e-05
2.54002e-07
7.81104e-05
2.53981e-07
7.81262e-05
2.55125e-07
7.81429e-05
2.57433e-07
7.8161e-05
2.60791e-07
7.81811e-05
2.64907e-07
7.82035e-05
2.69283e-07
7.82284e-05
2.73093e-07
2.76102e-07
7.82558e-05
7.98801e-05
3.01998e-08
7.98884e-05
9.09147e-08
7.99035e-05
1.47258e-07
7.99223e-05
1.92174e-07
7.99432e-05
2.25772e-07
7.99654e-05
2.50543e-07
7.99879e-05
2.67705e-07
8.00102e-05
2.7854e-07
8.0032e-05
2.84683e-07
8.00533e-05
2.87431e-07
8.00739e-05
2.87667e-07
8.00939e-05
2.86066e-07
8.01134e-05
2.8317e-07
8.01324e-05
2.79382e-07
8.01509e-05
2.75008e-07
8.01689e-05
2.70289e-07
8.01865e-05
2.65421e-07
8.02038e-05
2.60567e-07
8.02207e-05
2.55871e-07
8.02373e-05
2.51463e-07
8.02537e-05
2.47463e-07
8.02698e-05
2.43986e-07
8.02859e-05
2.41142e-07
8.0302e-05
2.39034e-07
8.03182e-05
2.37747e-07
8.03349e-05
2.37343e-07
8.03522e-05
2.37838e-07
8.03704e-05
2.39177e-07
8.039e-05
2.41212e-07
8.04112e-05
2.4366e-07
8.04344e-05
2.4611e-07
8.04596e-05
2.47945e-07
2.49146e-07
8.04865e-05
8.21626e-05
2.80096e-08
8.21707e-05
8.28525e-08
8.21847e-05
1.33294e-07
8.22024e-05
1.74444e-07
8.22223e-05
2.05837e-07
8.22436e-05
2.29229e-07
8.22655e-05
2.45802e-07
8.22874e-05
2.56635e-07
8.23091e-05
2.63058e-07
8.23303e-05
2.66213e-07
8.2351e-05
2.66922e-07
8.23713e-05
2.65817e-07
8.2391e-05
2.63405e-07
8.24103e-05
2.60078e-07
8.24292e-05
2.56135e-07
8.24477e-05
2.51813e-07
8.24658e-05
2.47308e-07
8.24836e-05
2.4278e-07
8.25011e-05
2.38369e-07
8.25184e-05
2.34199e-07
8.25354e-05
2.3038e-07
8.25524e-05
2.27011e-07
8.25694e-05
2.24181e-07
8.25865e-05
2.21965e-07
8.26038e-05
2.20416e-07
8.26216e-05
2.19558e-07
8.264e-05
2.19369e-07
8.26594e-05
2.19767e-07
8.26801e-05
2.20594e-07
8.27021e-05
2.21602e-07
8.27258e-05
2.22465e-07
8.2751e-05
2.22736e-07
2.22522e-07
8.27776e-05
8.45101e-05
2.56354e-08
8.45179e-05
7.50891e-08
8.45309e-05
1.2027e-07
8.45477e-05
1.57722e-07
8.45667e-05
1.86809e-07
8.45872e-05
2.08721e-07
8.46085e-05
2.24516e-07
8.463e-05
2.35128e-07
8.46514e-05
2.41642e-07
8.46726e-05
2.45049e-07
8.46934e-05
2.46104e-07
8.47138e-05
2.45391e-07
8.47338e-05
2.43381e-07
8.47535e-05
2.40447e-07
8.47727e-05
2.36878e-07
8.47916e-05
2.32904e-07
8.48102e-05
2.28713e-07
8.48285e-05
2.24464e-07
8.48466e-05
2.2029e-07
8.48645e-05
2.16304e-07
8.48823e-05
2.12606e-07
8.49e-05
2.09282e-07
8.49178e-05
2.064e-07
8.49358e-05
2.04013e-07
8.4954e-05
2.02149e-07
8.49728e-05
2.00804e-07
8.49922e-05
1.99934e-07
8.50125e-05
1.99448e-07
8.50339e-05
1.99194e-07
8.50566e-05
1.98963e-07
8.50805e-05
1.98508e-07
8.51058e-05
1.97507e-07
1.96124e-07
8.51322e-05
8.69246e-05
2.32142e-08
8.6932e-05
6.76309e-08
8.69443e-05
1.08044e-07
8.69601e-05
1.41913e-07
8.69783e-05
1.68623e-07
8.6998e-05
1.88962e-07
8.70187e-05
2.03825e-07
8.70398e-05
2.14024e-07
8.7061e-05
2.20454e-07
8.70821e-05
2.23967e-07
8.71029e-05
2.25243e-07
8.71235e-05
2.24817e-07
8.71438e-05
2.23124e-07
8.71637e-05
2.20511e-07
8.71833e-05
2.17255e-07
8.72027e-05
2.13575e-07
8.72217e-05
2.09652e-07
8.72406e-05
2.05634e-07
8.72592e-05
2.01648e-07
8.72777e-05
1.97798e-07
8.72961e-05
1.94172e-07
8.73146e-05
1.90842e-07
8.73331e-05
1.8786e-07
8.73519e-05
1.85261e-07
8.7371e-05
1.83052e-07
8.73906e-05
1.81214e-07
8.74108e-05
1.79692e-07
8.74319e-05
1.78393e-07
8.74539e-05
1.77182e-07
8.74769e-05
1.7589e-07
8.75011e-05
1.74327e-07
8.75264e-05
1.72265e-07
1.6988e-07
8.75526e-05
8.94079e-05
2.08202e-08
8.94151e-05
6.04794e-08
8.94266e-05
9.65047e-08
8.94416e-05
1.26922e-07
8.9459e-05
1.51214e-07
8.94781e-05
1.69894e-07
8.94982e-05
1.83695e-07
8.95189e-05
1.93316e-07
8.95399e-05
1.99505e-07
8.95609e-05
2.02984e-07
8.95817e-05
2.0436e-07
8.96024e-05
2.04119e-07
8.96229e-05
2.02656e-07
8.96431e-05
2.00293e-07
8.96631e-05
1.97288e-07
8.96828e-05
1.93848e-07
8.97023e-05
1.90141e-07
8.97217e-05
1.86309e-07
8.97408e-05
1.82467e-07
8.97599e-05
1.7871e-07
8.9779e-05
1.75114e-07
8.97981e-05
1.71738e-07
8.98173e-05
1.68622e-07
8.98368e-05
1.65785e-07
8.98566e-05
1.63223e-07
8.98769e-05
1.60905e-07
8.98979e-05
1.58774e-07
8.99195e-05
1.56741e-07
8.9942e-05
1.5469e-07
8.99654e-05
1.52485e-07
8.99897e-05
1.49983e-07
9.0015e-05
1.47018e-07
1.43756e-07
9.00411e-05
9.19622e-05
1.84909e-08
9.1969e-05
5.36288e-08
9.198e-05
8.556e-08
9.19942e-05
1.12658e-07
9.20109e-05
1.34511e-07
9.20294e-05
1.5146e-07
9.2049e-05
1.64087e-07
9.20693e-05
1.72989e-07
9.209e-05
1.78792e-07
9.21109e-05
1.82109e-07
9.21318e-05
1.83472e-07
9.21526e-05
1.83315e-07
9.21733e-05
1.81997e-07
9.21937e-05
1.79812e-07
9.2214e-05
1.76996e-07
9.22341e-05
1.73741e-07
9.22541e-05
1.70204e-07
9.22739e-05
1.66514e-07
9.22936e-05
1.62775e-07
9.23132e-05
1.59072e-07
9.23328e-05
1.55472e-07
9.23526e-05
1.52022e-07
9.23724e-05
1.4875e-07
9.23925e-05
1.45665e-07
9.2413e-05
1.42755e-07
9.24339e-05
1.39984e-07
9.24554e-05
1.37294e-07
9.24776e-05
1.34607e-07
9.25004e-05
1.31824e-07
9.25241e-05
1.28836e-07
9.25485e-05
1.25534e-07
9.25737e-05
1.21794e-07
1.17759e-07
9.25997e-05
9.45894e-05
1.6242e-08
9.4596e-05
4.70659e-08
9.46064e-05
7.51344e-08
9.462e-05
9.90344e-08
9.46361e-05
1.18446e-07
9.46539e-05
1.33602e-07
9.46731e-05
1.44959e-07
9.4693e-05
1.5302e-07
9.47135e-05
1.58308e-07
9.47343e-05
1.61342e-07
9.47552e-05
1.62583e-07
9.47761e-05
1.62417e-07
9.47969e-05
1.61163e-07
9.48176e-05
1.59085e-07
9.48382e-05
1.56398e-07
9.48587e-05
1.53276e-07
9.4879e-05
1.49862e-07
9.48993e-05
1.46272e-07
9.49195e-05
1.42601e-07
9.49396e-05
1.38922e-07
9.49598e-05
1.35292e-07
9.49801e-05
1.31747e-07
9.50005e-05
1.28309e-07
9.50212e-05
1.24978e-07
9.50422e-05
1.21736e-07
9.50636e-05
1.18547e-07
9.50856e-05
1.15357e-07
9.51081e-05
1.12096e-07
9.51312e-05
1.08681e-07
9.5155e-05
1.05024e-07
9.51795e-05
1.01041e-07
9.52047e-05
9.6636e-08
9.19278e-08
9.52305e-05
9.72917e-05
1.40776e-08
9.7298e-05
4.07718e-08
9.73079e-05
6.51637e-08
9.7321e-05
8.59723e-08
9.73365e-05
1.0295e-07
9.73538e-05
1.16262e-07
9.73725e-05
1.26266e-07
9.73922e-05
1.33378e-07
9.74124e-05
1.38037e-07
9.74331e-05
1.40678e-07
9.7454e-05
1.41698e-07
9.7475e-05
1.41432e-07
9.7496e-05
1.40163e-07
9.75169e-05
1.38125e-07
9.75378e-05
1.35508e-07
9.75586e-05
1.3247e-07
9.75794e-05
1.29136e-07
9.76e-05
1.25611e-07
9.76206e-05
1.21977e-07
9.76413e-05
1.18297e-07
9.76619e-05
1.14618e-07
9.76827e-05
1.1097e-07
9.77037e-05
1.07365e-07
9.77248e-05
1.038e-07
9.77463e-05
1.00253e-07
9.77682e-05
9.66899e-08
9.77905e-05
9.30605e-08
9.78133e-05
8.93037e-08
9.78366e-05
8.53511e-08
9.78605e-05
8.11304e-08
9.7885e-05
7.65747e-08
9.791e-05
7.16076e-08
6.63257e-08
9.79356e-05
0.000100071
1.1995e-08
0.000100077
3.47241e-08
0.000100087
5.55913e-08
0.000100099
7.33999e-08
0.000100114
8.79557e-08
0.000100131
9.93833e-08
0.00010015
1.07961e-07
0.000100169
1.14031e-07
0.000100189
1.17958e-07
0.00010021
1.20106e-07
0.00010023
1.2081e-07
0.000100251
1.20362e-07
0.000100273
1.19004e-07
0.000100294
1.16942e-07
0.000100315
1.14342e-07
0.000100336
1.11341e-07
0.000100357
1.0805e-07
0.000100378
1.04558e-07
0.000100399
1.00936e-07
0.00010042
9.72378e-08
0.000100441
9.35007e-08
0.000100463
8.97472e-08
0.000100484
8.59844e-08
0.000100506
8.22051e-08
0.000100528
7.8388e-08
0.00010055
7.44993e-08
0.000100572
7.04944e-08
0.000100595
6.63207e-08
0.000100619
6.19205e-08
0.000100643
5.72348e-08
0.000100667
5.2209e-08
0.000100692
4.67811e-08
4.10283e-08
0.000100717
0.00010293
9.98825e-09
0.000102936
2.88982e-08
0.000102945
4.63662e-08
0.000102957
6.12516e-08
0.000102972
7.33993e-08
0.000102988
8.29079e-08
0.000103006
8.99961e-08
0.000103025
9.4941e-08
0.000103045
9.80442e-08
0.000103066
9.96077e-08
0.000103087
9.99121e-08
0.000103108
9.92033e-08
0.000103129
9.76896e-08
0.000103151
9.55447e-08
0.000103172
9.29116e-08
0.000103193
8.99067e-08
0.000103215
8.66244e-08
0.000103236
8.31399e-08
0.000103258
7.95121e-08
0.000103279
7.57845e-08
0.000103301
7.19868e-08
0.000103322
6.81347e-08
0.000103344
6.42312e-08
0.000103366
6.02666e-08
0.000103388
5.62196e-08
0.000103411
5.2059e-08
0.000103433
4.77452e-08
0.000103456
4.3233e-08
0.00010348
3.84738e-08
0.000103504
3.34186e-08
0.000103528
2.80228e-08
0.000103552
2.22349e-08
1.61174e-08
0.000103577
0.000105871
8.04969e-09
0.000105876
2.32688e-08
0.000105885
3.74415e-08
0.000105897
4.94668e-08
0.000105911
5.92183e-08
0.000105927
6.67781e-08
0.000105945
7.23198e-08
0.000105964
7.60667e-08
0.000105984
7.82649e-08
0.000106004
7.91619e-08
0.000106025
7.89889e-08
0.000106046
7.79496e-08
0.000106068
7.62175e-08
0.000106089
7.39369e-08
0.000106111
7.12262e-08
0.000106133
6.81817e-08
0.000106154
6.48805e-08
0.000106176
6.13837e-08
0.000106198
5.77381e-08
0.00010622
5.39777e-08
0.000106242
5.01243e-08
0.000106264
4.61882e-08
0.000106286
4.21683e-08
0.000106308
3.80534e-08
0.00010633
3.38229e-08
0.000106353
2.94482e-08
0.000106376
2.48946e-08
0.000106399
2.01227e-08
0.000106422
1.50922e-08
0.000106446
9.7619e-09
0.00010647
4.09515e-09
0.000106494
-1.95106e-09
-8.32471e-09
0.000106518
0.000108895
6.17114e-09
0.000108901
1.78109e-08
0.000108909
2.87738e-08
0.000108921
3.79889e-08
0.000108935
4.53522e-08
0.000108951
5.09356e-08
0.000108968
5.48795e-08
0.000108987
5.73625e-08
0.000109006
5.8583e-08
0.000109027
5.87401e-08
0.000109048
5.80202e-08
0.000109069
5.65876e-08
0.000109091
5.4582e-08
0.000109113
5.21189e-08
0.000109135
4.92926e-08
0.000109157
4.61786e-08
0.000109179
4.28371e-08
0.000109201
3.93147e-08
0.000109223
3.56464e-08
0.000109245
3.18567e-08
0.000109267
2.79599e-08
0.000109289
2.39609e-08
0.000109312
1.98557e-08
0.000109334
1.56317e-08
0.000109357
1.12691e-08
0.000109379
6.74197e-09
0.000109402
2.01945e-09
0.000109425
-2.93171e-09
0.000109448
-8.14624e-09
0.000109472
-1.36578e-08
0.000109495
-1.94971e-08
0.000109519
-2.56993e-08
-3.22199e-08
0.000109543
0.000112006
4.3445e-09
0.000112012
1.25005e-08
0.00011202
2.03227e-08
0.000112031
2.67648e-08
0.000112045
3.17416e-08
0.000112061
3.53209e-08
0.000112078
3.76189e-08
0.000112096
3.87783e-08
0.000112116
3.89556e-08
0.000112136
3.83074e-08
0.000112157
3.69791e-08
0.000112179
3.50981e-08
0.000112201
3.27713e-08
0.000112223
3.00862e-08
0.000112245
2.7113e-08
0.000112267
2.39068e-08
0.00011229
2.05104e-08
0.000112312
1.69561e-08
0.000112334
1.32671e-08
0.000112357
9.45844e-09
0.000112379
5.53737e-09
0.000112402
1.50368e-09
0.000112424
-2.6496e-09
0.000112447
-6.93618e-09
0.000112469
-1.1375e-08
0.000112492
-1.59899e-08
0.000112515
-2.08077e-08
0.000112538
-2.58574e-08
0.000112561
-3.1168e-08
0.000112584
-3.67677e-08
0.000112607
-4.26812e-08
0.00011263
-4.89374e-08
-5.54964e-08
0.000112654
0.000115206
2.56214e-09
0.000115211
7.31544e-09
0.00011522
1.20507e-08
0.000115231
1.57438e-08
0.000115244
1.83279e-08
0.00011526
1.98724e-08
0.000115277
2.04778e-08
0.000115295
2.02577e-08
0.000115315
1.93328e-08
0.000115335
1.78215e-08
0.000115357
1.58313e-08
0.000115378
1.34547e-08
0.0001154
1.07671e-08
0.000115422
7.82837e-09
0.000115445
4.68471e-09
0.000115467
1.37089e-09
0.00011549
-2.08758e-09
0.000115513
-5.67278e-09
0.000115535
-9.37325e-09
0.000115558
-1.31833e-08
0.000115581
-1.71028e-08
0.000115603
-2.11368e-08
0.000115626
-2.52952e-08
0.000115648
-2.95927e-08
0.000115671
-3.40479e-08
0.000115694
-3.86826e-08
0.000115717
-4.35206e-08
0.000115739
-4.85867e-08
0.000115762
-5.39055e-08
0.000115785
-5.95001e-08
0.000115807
-6.53905e-08
0.00011583
-7.15998e-08
-7.80911e-08
0.000115853
0.000118498
8.17401e-10
0.000118503
2.23618e-09
0.000118511
3.92401e-09
0.000118522
4.878e-09
0.000118535
5.05207e-09
0.00011855
4.52508e-09
0.000118567
3.38999e-09
0.000118586
1.73729e-09
0.000118606
-3.43713e-10
0.000118626
-2.76925e-09
0.000118647
-5.46669e-09
0.000118669
-8.37748e-09
0.000118692
-1.14569e-08
0.000118714
-1.46725e-08
0.000118737
-1.80017e-08
0.00011876
-2.14303e-08
0.000118782
-2.49501e-08
0.000118805
-2.85575e-08
0.000118828
-3.22529e-08
0.000118851
-3.60398e-08
0.000118874
-3.99253e-08
0.000118897
-4.3919e-08
0.000118919
-4.80341e-08
0.000118942
-5.22865e-08
0.000118965
-5.66945e-08
0.000118987
-6.12783e-08
0.00011901
-6.60594e-08
0.000119032
-7.1059e-08
0.000119055
-7.6298e-08
0.000119077
-8.17952e-08
0.000119099
-8.75664e-08
0.000119121
-9.36295e-08
-9.99498e-08
0.000119143
0.000121883
-8.94697e-10
0.000121888
-2.75224e-09
0.000121896
-4.08632e-09
0.000121907
-5.87823e-09
0.00012192
-8.14628e-09
0.000121935
-1.07907e-08
0.000121952
-1.37181e-08
0.000121971
-1.6856e-08
0.000121991
-2.0143e-08
0.000122012
-2.35272e-08
0.000122033
-2.69693e-08
0.000122055
-3.04439e-08
0.000122078
-3.39368e-08
0.0001221
-3.74429e-08
0.000122123
-4.09636e-08
0.000122146
-4.45053e-08
0.00012217
-4.80769e-08
0.000122193
-5.16898e-08
0.000122216
-5.53557e-08
0.000122239
-5.90879e-08
0.000122262
-6.29001e-08
0.000122285
-6.68073e-08
0.000122307
-7.08255e-08
0.00012233
-7.49724e-08
0.000122353
-7.92662e-08
0.000122375
-8.37263e-08
0.000122397
-8.83718e-08
0.00012242
-9.32215e-08
0.000122442
-9.82928e-08
0.000122463
-1.03601e-07
0.000122485
-1.09159e-07
0.000122506
-1.14981e-07
-1.21032e-07
0.000122527
0.000125365
-2.57627e-09
0.00012537
-7.65719e-09
0.000125378
-1.20014e-08
0.000125389
-1.65671e-08
0.000125402
-2.133e-08
0.000125417
-2.6152e-08
0.000125434
-3.09303e-08
0.000125453
-3.56075e-08
0.000125473
-4.01475e-08
0.000125494
-4.45284e-08
0.000125516
-4.8744e-08
0.000125538
-5.28022e-08
0.000125561
-5.67201e-08
0.000125584
-6.05203e-08
0.000125607
-6.42285e-08
0.000125631
-6.78718e-08
0.000125654
-7.1477e-08
0.000125678
-7.50698e-08
0.000125701
-7.86742e-08
0.000125724
-8.23125e-08
0.000125747
-8.60058e-08
0.00012577
-8.97742e-08
0.000125793
-9.36372e-08
0.000125816
-9.7614e-08
0.000125838
-1.01724e-07
0.00012586
-1.05985e-07
0.000125882
-1.10415e-07
0.000125904
-1.15031e-07
0.000125926
-1.19847e-07
0.000125947
-1.24877e-07
0.000125968
-1.3013e-07
0.000125989
-1.35615e-07
-1.41301e-07
0.000126009
0.000128947
-4.22425e-09
0.000128952
-1.24725e-08
0.000128959
-1.98293e-08
0.00012897
-2.72263e-08
0.000128983
-3.45661e-08
0.000128999
-4.16456e-08
0.000129016
-4.83443e-08
0.000129035
-5.46188e-08
0.000129056
-6.04571e-08
0.000129077
-6.58662e-08
0.000129099
-7.08743e-08
0.000129122
-7.55248e-08
0.000129145
-7.98672e-08
0.000129168
-8.3953e-08
0.000129192
-8.7833e-08
0.000129216
-9.15557e-08
0.000129239
-9.5166e-08
0.000129263
-9.87044e-08
0.000129286
-1.02207e-07
0.00012931
-1.05705e-07
0.000129333
-1.09227e-07
0.000129356
-1.12799e-07
0.000129379
-1.16444e-07
0.000129401
-1.20183e-07
0.000129424
-1.24036e-07
0.000129446
-1.28021e-07
0.000129468
-1.32155e-07
0.000129489
-1.36453e-07
0.00012951
-1.40929e-07
0.000129531
-1.45592e-07
0.000129551
-1.50451e-07
0.000129571
-1.55514e-07
-1.60749e-07
0.00012959
0.000132631
-5.82578e-09
0.000132635
-1.71669e-08
0.000132643
-2.75559e-08
0.000132654
-3.78864e-08
0.000132667
-4.79291e-08
0.000132683
-5.73738e-08
0.000132701
-6.60768e-08
0.00013272
-7.40125e-08
0.000132741
-8.11927e-08
0.000132762
-8.7655e-08
0.000132785
-9.34652e-08
0.000132808
-9.87052e-08
0.000132832
-1.03459e-07
0.000132856
-1.0781e-07
0.00013288
-1.11833e-07
0.000132904
-1.15601e-07
0.000132928
-1.19177e-07
0.000132952
-1.22616e-07
0.000132975
-1.25966e-07
0.000132999
-1.2927e-07
0.000133022
-1.32562e-07
0.000133045
-1.35873e-07
0.000133068
-1.39232e-07
0.000133091
-1.4266e-07
0.000133113
-1.4618e-07
0.000133135
-1.49811e-07
0.000133156
-1.53567e-07
0.000133177
-1.57464e-07
0.000133198
-1.61513e-07
0.000133218
-1.65724e-07
0.000133237
-1.70101e-07
0.000133257
-1.7465e-07
-1.7934e-07
0.000133275
0.00013642
-7.34875e-09
0.000136424
-2.16615e-08
0.000136432
-3.51283e-08
0.000136443
-4.85685e-08
0.000136456
-6.1504e-08
0.000136472
-7.34599e-08
0.00013649
-8.42736e-08
0.00013651
-9.39427e-08
0.000136532
-1.02503e-07
0.000136554
-1.10028e-07
0.000136577
-1.16632e-07
0.000136601
-1.2244e-07
0.000136625
-1.27577e-07
0.000136649
-1.32156e-07
0.000136674
-1.36282e-07
0.000136698
-1.4005e-07
0.000136723
-1.43542e-07
0.000136747
-1.46828e-07
0.000136771
-1.4997e-07
0.000136795
-1.53017e-07
0.000136818
-1.56015e-07
0.000136841
-1.58998e-07
0.000136864
-1.61999e-07
0.000136886
-1.65043e-07
0.000136908
-1.68152e-07
0.00013693
-1.71348e-07
0.000136951
-1.74645e-07
0.000136972
-1.78058e-07
0.000136992
-1.81598e-07
0.000137011
-1.85273e-07
0.00013703
-1.89089e-07
0.000137049
-1.93052e-07
-1.97137e-07
0.000137066
0.000140317
-8.72068e-09
0.000140321
-2.57828e-08
0.000140329
-4.24294e-08
0.000140339
-5.92863e-08
0.000140353
-7.53916e-08
0.00014037
-9.00475e-08
0.000140389
-1.0311e-07
0.000140409
-1.1461e-07
0.000140431
-1.24601e-07
0.000140455
-1.33197e-07
0.000140478
-1.40571e-07
0.000140503
-1.46906e-07
0.000140528
-1.5237e-07
0.000140553
-1.57115e-07
0.000140578
-1.61277e-07
0.000140603
-1.64975e-07
0.000140627
-1.68313e-07
0.000140652
-1.71376e-07
0.000140676
-1.74236e-07
0.0001407
-1.76956e-07
0.000140724
-1.79584e-07
0.000140747
-1.82164e-07
0.00014077
-1.8473e-07
0.000140792
-1.8731e-07
0.000140814
-1.8993e-07
0.000140835
-1.9261e-07
0.000140856
-1.95367e-07
0.000140876
-1.98213e-07
0.000140895
-2.01161e-07
0.000140914
-2.04216e-07
0.000140933
-2.07383e-07
0.00014095
-2.10662e-07
-2.14028e-07
0.000140967
0.000144326
-9.78324e-09
0.000144329
-2.91619e-08
0.000144336
-4.92252e-08
0.000144347
-7.00607e-08
0.000144361
-8.97567e-08
0.000144378
-1.0734e-07
0.000144398
-1.22778e-07
0.000144419
-1.36166e-07
0.000144442
-1.47593e-07
0.000144467
-1.57239e-07
0.000144491
-1.65352e-07
0.000144517
-1.72172e-07
0.000144542
-1.77913e-07
0.000144568
-1.82766e-07
0.000144593
-1.86902e-07
0.000144619
-1.90465e-07
0.000144644
-1.93578e-07
0.000144669
-1.96344e-07
0.000144694
-1.98849e-07
0.000144718
-2.01162e-07
0.000144742
-2.03342e-07
0.000144765
-2.05437e-07
0.000144788
-2.07485e-07
0.00014481
-2.0952e-07
0.000144832
-2.11566e-07
0.000144853
-2.13647e-07
0.000144873
-2.1578e-07
0.000144893
-2.17978e-07
0.000144912
-2.20254e-07
0.00014493
-2.22617e-07
0.000144948
-2.25072e-07
0.000144965
-2.27631e-07
-2.30271e-07
0.000144981
0.000148448
-1.01764e-08
0.00014845
-3.10728e-08
0.000148456
-5.50858e-08
0.000148467
-8.08132e-08
0.000148482
-1.04759e-07
0.0001485
-1.25758e-07
0.000148521
-1.4391e-07
0.000148545
-1.59314e-07
0.000148569
-1.72123e-07
0.000148595
-1.82675e-07
0.000148621
-1.91351e-07
0.000148647
-1.98478e-07
0.000148673
-2.04328e-07
0.0001487
-2.09139e-07
0.000148726
-2.13116e-07
0.000148752
-2.16429e-07
0.000148777
-2.19216e-07
0.000148803
-2.21595e-07
0.000148828
-2.2366e-07
0.000148852
-2.25489e-07
0.000148876
-2.27147e-07
0.000148899
-2.28685e-07
0.000148922
-2.30146e-07
0.000148944
-2.31564e-07
0.000148965
-2.32967e-07
0.000148986
-2.34379e-07
0.000149006
-2.35818e-07
0.000149025
-2.37297e-07
0.000149044
-2.38828e-07
0.000149061
-2.40418e-07
0.000149078
-2.42067e-07
0.000149095
-2.43773e-07
-2.45517e-07
0.00014911
0.000152688
-8.88717e-09
0.000152687
-3.00743e-08
0.000152692
-5.97833e-08
0.000152702
-9.16133e-08
0.000152718
-1.19966e-07
0.000152736
-1.44514e-07
0.000152758
-1.65715e-07
0.000152782
-1.83468e-07
0.000152808
-1.97904e-07
0.000152835
-2.09514e-07
0.000152862
-2.1882e-07
0.00015289
-2.26245e-07
0.000152918
-2.32141e-07
0.000152946
-2.36812e-07
0.000152973
-2.40513e-07
0.000153
-2.43445e-07
0.000153027
-2.45776e-07
0.000153053
-2.47637e-07
0.000153078
-2.49138e-07
0.000153103
-2.50365e-07
0.000153127
-2.51388e-07
0.000153151
-2.52264e-07
0.000153174
-2.53037e-07
0.000153196
-2.53746e-07
0.000153217
-2.54418e-07
0.000153238
-2.55078e-07
0.000153258
-2.55745e-07
0.000153277
-2.56435e-07
0.000153295
-2.5716e-07
0.000153313
-2.57932e-07
0.00015333
-2.58762e-07
0.000153346
-2.59666e-07
-2.60628e-07
0.000153361
0.000157046
-3.44189e-09
0.000157038
-2.18722e-08
0.000157041
-6.28861e-08
0.000157054
-1.05073e-07
0.000157074
-1.39385e-07
0.000157097
-1.67556e-07
0.000157122
-1.91015e-07
0.000157149
-2.10013e-07
0.000157176
-2.25105e-07
0.000157203
-2.37076e-07
0.000157231
-2.46553e-07
0.000157259
-2.53997e-07
0.000157287
-2.59795e-07
0.000157314
-2.64278e-07
0.000157341
-2.67715e-07
0.000157368
-2.70318e-07
0.000157395
-2.72258e-07
0.000157421
-2.73676e-07
0.000157446
-2.74684e-07
0.000157471
-2.75373e-07
0.000157496
-2.75817e-07
0.000157519
-2.76075e-07
0.000157543
-2.76196e-07
0.000157565
-2.76217e-07
0.000157587
-2.76171e-07
0.000157608
-2.76082e-07
0.000157628
-2.75971e-07
0.000157647
-2.75853e-07
0.000157666
-2.75739e-07
0.000157684
-2.75635e-07
0.000157701
-2.7554e-07
0.000157716
-2.75448e-07
-2.75346e-07
0.000157731
0.000161526
9.24866e-09
0.000161505
-7.73637e-10
0.000161496
-5.44879e-08
0.000161499
-1.08301e-07
0.000161513
-1.53198e-07
0.000161536
-1.9044e-07
0.000161565
-2.19873e-07
0.000161597
-2.41995e-07
0.00016163
-2.58487e-07
0.000161664
-2.70923e-07
0.000161698
-2.80315e-07
0.000161731
-2.8735e-07
0.000161764
-2.92573e-07
0.000161796
-2.96408e-07
0.000161828
-2.99168e-07
0.000161858
-3.01086e-07
0.000161889
-3.0234e-07
0.000161918
-3.03069e-07
0.000161947
-3.03384e-07
0.000161975
-3.03371e-07
0.000162002
-3.03099e-07
0.000162028
-3.02623e-07
0.000162054
-3.0199e-07
0.000162079
-3.01234e-07
0.000162104
-3.00387e-07
0.000162127
-2.99473e-07
0.000162149
-2.98513e-07
0.000162171
-2.97524e-07
0.000162192
-2.96523e-07
0.000162212
-2.95523e-07
0.000162231
-2.94541e-07
0.000162249
-2.93603e-07
-2.9269e-07
0.000162266
0.0001661
6.33062e-08
0.000166095
3.32078e-09
0.000166112
-7.06803e-08
0.000166127
-1.23293e-07
0.000166141
-1.67801e-07
0.000166158
-2.07668e-07
0.000166179
-2.40401e-07
0.000166203
-2.6579e-07
0.00016623
-2.85425e-07
0.000166259
-3.00678e-07
0.000166292
-3.12417e-07
0.000166326
-3.21322e-07
0.000166361
-3.2798e-07
0.000166397
-3.3286e-07
0.000166435
-3.36316e-07
0.000166472
-3.38625e-07
0.00016651
-3.40006e-07
0.000166547
-3.40638e-07
0.000166585
-3.40663e-07
0.000166621
-3.40195e-07
0.000166658
-3.39329e-07
0.000166693
-3.3814e-07
0.000166728
-3.36693e-07
0.000166762
-3.35037e-07
0.000166795
-3.33217e-07
0.000166826
-3.31268e-07
0.000166857
-3.29218e-07