/*--------------------------------*- C++ -*----------------------------------*\
  =========                 |
  \\      /  F ield         | OpenFOAM: The Open Source CFD Toolbox
   \\    /   O peration     | Website:  https://openfoam.org
    \\  /    A nd           | Version:  10
     \\/     M anipulation  |
\*---------------------------------------------------------------------------*/
FoamFile
{
    format      ascii;
    class       volVectorField;
    location    "1100";
    object      U;
}
// * * * * * * * * * * * * * * * * * * * * * * * * * * * * * * * * * * * * * //

dimensions      [0 1 -1 0 0 0 0];

internalField   nonuniform List<vector> 
6820
(
(7.31669 -0.387304 0)
(7.31542 -0.335171 0)
(7.28428 -0.203529 0)
(7.22645 -0.111129 0)
(7.16228 -0.0568103 0)
(7.1014 -0.0270557 0)
(7.04582 -0.0113319 0)
(6.99573 -0.0031456 0)
(6.95087 0.00106678 0)
(6.91062 0.00318663 0)
(6.87425 0.00421398 0)
(6.84111 0.00468249 0)
(6.8107 0.00487335 0)
(6.78263 0.0049324 0)
(6.75657 0.00493428 0)
(6.73227 0.0049165 0)
(6.70951 0.00489728 0)
(6.68811 0.00488504 0)
(6.66792 0.00488363 0)
(6.64881 0.00489519 0)
(6.63065 0.00492194 0)
(6.61333 0.00496729 0)
(6.59673 0.00503712 0)
(6.58072 0.00514178 0)
(6.56517 0.00529965 0)
(6.54989 0.00551715 0)
(6.53458 0.00597531 0)
(6.51892 0.00644967 0)
(6.50242 0.00723035 0)
(6.48284 0.00940556 0)
(6.45972 0.0192503 0)
(6.42391 -0.00415425 0)
(6.39721 0.00435594 0)
(7.33961 0.100772 0)
(7.3543 0.149905 0)
(7.3585 0.123213 0)
(7.35878 0.0898026 0)
(7.35948 0.0659745 0)
(7.3583 0.0500372 0)
(7.35312 0.0394408 0)
(7.34421 0.0324659 0)
(7.33272 0.027808 0)
(7.31961 0.0245751 0)
(7.30554 0.0222324 0)
(7.29096 0.0204648 0)
(7.2762 0.0190778 0)
(7.26149 0.0179486 0)
(7.24696 0.0169999 0)
(7.2327 0.0161833 0)
(7.21877 0.0154681 0)
(7.20519 0.0148345 0)
(7.19198 0.0142702 0)
(7.17913 0.0137682 0)
(7.16665 0.0133258 0)
(7.15452 0.0129441 0)
(7.14272 0.0126294 0)
(7.13124 0.0123938 0)
(7.12006 0.0122609 0)
(7.10912 0.0122714 0)
(7.09849 0.0124966 0)
(7.08791 0.0130715 0)
(7.07787 0.0143086 0)
(7.06798 0.016387 0)
(7.05969 0.0215458 0)
(7.04875 0.0281836 0)
(7.06413 0.0522718 0)
(7.32714 0.00611336 0)
(7.32431 -0.0016242 0)
(7.33136 -0.00623471 0)
(7.33985 -0.000862577 0)
(7.34697 0.00693782 0)
(7.35241 0.0126366 0)
(7.35575 0.0161156 0)
(7.35704 0.0181778 0)
(7.35667 0.0193236 0)
(7.35501 0.0198542 0)
(7.35231 0.0199956 0)
(7.34876 0.0199075 0)
(7.34455 0.0196894 0)
(7.33985 0.0194014 0)
(7.33478 0.0190808 0)
(7.32943 0.0187513 0)
(7.32387 0.0184278 0)
(7.31817 0.0181198 0)
(7.31237 0.017834 0)
(7.3065 0.0175763 0)
(7.30059 0.0173525 0)
(7.29465 0.0171705 0)
(7.28869 0.0170412 0)
(7.2827 0.0169807 0)
(7.27668 0.0170157 0)
(7.27059 0.0171837 0)
(7.26444 0.0175741 0)
(7.2581 0.0182351 0)
(7.25166 0.0195038 0)
(7.24503 0.021626 0)
(7.23901 0.0256984 0)
(7.23379 0.0312796 0)
(7.23408 0.0450376 0)
(7.32977 -0.0040234 0)
(7.32632 0.00240993 0)
(7.33117 0.0106026 0)
(7.3369 0.0167037 0)
(7.34163 0.0202204 0)
(7.34605 0.0216902 0)
(7.34997 0.0221319 0)
(7.35308 0.0222116 0)
(7.35539 0.0221466 0)
(7.35702 0.0219901 0)
(7.35802 0.0217772 0)
(7.35845 0.0215359 0)
(7.35838 0.0212812 0)
(7.35788 0.0210208 0)
(7.35702 0.0207599 0)
(7.35586 0.0205033 0)
(7.35443 0.0202555 0)
(7.35277 0.0200208 0)
(7.35093 0.019804 0)
(7.34891 0.0196109 0)
(7.34675 0.0194491 0)
(7.34446 0.019329 0)
(7.34205 0.0192651 0)
(7.3395 0.0192781 0)
(7.33684 0.0194001 0)
(7.33403 0.0196767 0)
(7.33109 0.0201928 0)
(7.32799 0.0210337 0)
(7.32481 0.0224562 0)
(7.32168 0.0246671 0)
(7.31917 0.0282975 0)
(7.31768 0.0327054 0)
(7.31828 0.0390242 0)
(7.33182 -0.00101562 0)
(7.33003 0.00666219 0)
(7.33267 0.0122246 0)
(7.33624 0.0149643 0)
(7.33963 0.0169359 0)
(7.34325 0.0183781 0)
(7.34682 0.0193033 0)
(7.34999 0.0199062 0)
(7.35274 0.0203043 0)
(7.35511 0.0205418 0)
(7.35714 0.0206576 0)
(7.35883 0.0206893 0)
(7.3602 0.0206638 0)
(7.36129 0.0205984 0)
(7.36212 0.0205063 0)
(7.36272 0.0203982 0)
(7.36311 0.0202833 0)
(7.36331 0.0201696 0)
(7.36334 0.020065 0)
(7.36321 0.0199781 0)
(7.36293 0.019919 0)
(7.36251 0.0199002 0)
(7.36195 0.0199384 0)
(7.36126 0.0200566 0)
(7.36045 0.0202877 0)
(7.3595 0.0206772 0)
(7.35845 0.021298 0)
(7.3573 0.0222319 0)
(7.35615 0.0236458 0)
(7.35518 0.0256541 0)
(7.35471 0.0284261 0)
(7.35509 0.0315124 0)
(7.3568 0.0350945 0)
(7.33247 0.000662457 0)
(7.33168 0.00626185 0)
(7.33354 0.0104533 0)
(7.33643 0.0130277 0)
(7.33931 0.0152493 0)
(7.34234 0.0169759 0)
(7.3454 0.0180859 0)
(7.34825 0.0187927 0)
(7.35086 0.0192676 0)
(7.35327 0.0195796 0)
(7.35549 0.0197716 0)
(7.35751 0.0198809 0)
(7.35933 0.0199338 0)
(7.36098 0.0199471 0)
(7.36246 0.0199329 0)
(7.36378 0.0199014 0)
(7.36495 0.0198612 0)
(7.36598 0.0198205 0)
(7.36688 0.0197874 0)
(7.36765 0.019771 0)
(7.3683 0.0197818 0)
(7.36883 0.0198333 0)
(7.36925 0.0199426 0)
(7.36955 0.0201327 0)
(7.36975 0.0204346 0)
(7.36986 0.0208898 0)
(7.36989 0.0215564 0)
(7.3699 0.0224986 0)
(7.36997 0.0238127 0)
(7.37024 0.0255447 0)
(7.37095 0.0277147 0)
(7.37235 0.0300856 0)
(7.37471 0.0326095 0)
(7.33271 0.00108348 0)
(7.33244 0.00541642 0)
(7.33405 0.00931546 0)
(7.33662 0.0120388 0)
(7.33923 0.0142095 0)
(7.34189 0.0158479 0)
(7.3446 0.016934 0)
(7.34719 0.0176549 0)
(7.34961 0.0181614 0)
(7.35191 0.0185157 0)
(7.35408 0.0187552 0)
(7.35612 0.0189137 0)
(7.35804 0.019016 0)
(7.35985 0.0190785 0)
(7.36155 0.0191131 0)
(7.36314 0.0191299 0)
(7.36463 0.0191377 0)
(7.36601 0.0191447 0)
(7.3673 0.0191595 0)
(7.3685 0.0191913 0)
(7.36961 0.0192511 0)
(7.37062 0.0193522 0)
(7.37155 0.0195113 0)
(7.37239 0.0197499 0)
(7.37316 0.0200956 0)
(7.37388 0.020583 0)
(7.37456 0.0212555 0)
(7.37526 0.0221578 0)
(7.37606 0.0233402 0)
(7.37707 0.0248137 0)
(7.37845 0.026553 0)
(7.38039 0.0284008 0)
(7.38302 0.0302381 0)
(7.33286 0.00124346 0)
(7.3329 0.00495495 0)
(7.33432 0.00853594 0)
(7.33661 0.0111495 0)
(7.33901 0.0131594 0)
(7.34146 0.0147083 0)
(7.34395 0.0157991 0)
(7.34637 0.0165527 0)
(7.34866 0.0170909 0)
(7.35084 0.0174759 0)
(7.35293 0.0177457 0)
(7.35492 0.017933 0)
(7.35683 0.0180628 0)
(7.35865 0.018152 0)
(7.3604 0.0182131 0)
(7.36207 0.0182566 0)
(7.36367 0.0182915 0)
(7.3652 0.0183263 0)
(7.36666 0.0183696 0)
(7.36805 0.0184307 0)
(7.36937 0.0185205 0)
(7.37063 0.0186517 0)
(7.37182 0.0188398 0)
(7.37297 0.0191039 0)
(7.37406 0.0194671 0)
(7.37514 0.0199567 0)
(7.37621 0.0206032 0)
(7.37734 0.0214345 0)
(7.37858 0.022473 0)
(7.38003 0.0237118 0)
(7.38179 0.0251087 0)
(7.38398 0.026538 0)
(7.38665 0.0278954 0)
(7.33295 0.00130823 0)
(7.33318 0.00458395 0)
(7.33444 0.00778097 0)
(7.33647 0.010231 0)
(7.33869 0.0121271 0)
(7.34098 0.0136178 0)
(7.34331 0.0147108 0)
(7.34559 0.0154856 0)
(7.34778 0.016045 0)
(7.34988 0.016451 0)
(7.3519 0.0167416 0)
(7.35385 0.0169482 0)
(7.35572 0.0170954 0)
(7.35752 0.0172006 0)
(7.35926 0.0172769 0)
(7.36095 0.0173351 0)
(7.36258 0.0173847 0)
(7.36415 0.0174344 0)
(7.36568 0.017493 0)
(7.36715 0.0175696 0)
(7.36858 0.0176747 0)
(7.36996 0.0178201 0)
(7.3713 0.0180197 0)
(7.37261 0.0182898 0)
(7.3739 0.0186489 0)
(7.37519 0.0191171 0)
(7.37651 0.0197146 0)
(7.3779 0.0204565 0)
(7.37941 0.021349 0)
(7.38111 0.0223751 0)
(7.38307 0.0234889 0)
(7.38534 0.0245893 0)
(7.38796 0.0256118 0)
(7.333 0.00129894 0)
(7.33333 0.00422279 0)
(7.33447 0.00707118 0)
(7.33627 0.00935929 0)
(7.33832 0.0111554 0)
(7.34045 0.0125803 0)
(7.34265 0.0136543 0)
(7.34482 0.0144356 0)
(7.34693 0.0150079 0)
(7.34896 0.0154291 0)
(7.35093 0.0157356 0)
(7.35283 0.0159569 0)
(7.35467 0.0161168 0)
(7.35645 0.016233 0)
(7.35818 0.0163188 0)
(7.35986 0.0163855 0)
(7.36149 0.0164428 0)
(7.36308 0.0164997 0)
(7.36463 0.0165648 0)
(7.36614 0.0166472 0)
(7.36762 0.0167568 0)
(7.36907 0.0169042 0)
(7.37049 0.0171015 0)
(7.3719 0.0173621 0)
(7.37331 0.0177001 0)
(7.37473 0.0181296 0)
(7.3762 0.0186626 0)
(7.37775 0.0193055 0)
(7.37942 0.0200546 0)
(7.38126 0.0208891 0)
(7.38331 0.0217665 0)
(7.38559 0.0226088 0)
(7.38813 0.0233875 0)
(7.33302 0.00124341 0)
(7.3334 0.00387501 0)
(7.33444 0.00642197 0)
(7.33606 0.00854175 0)
(7.33794 0.0102319 0)
(7.33993 0.0115826 0)
(7.34199 0.0126239 0)
(7.34406 0.0134001 0)
(7.34609 0.0139772 0)
(7.34806 0.014407 0)
(7.34998 0.014724 0)
(7.35184 0.0149557 0)
(7.35365 0.0151246 0)
(7.35541 0.0152483 0)
(7.35712 0.0153403 0)
(7.35879 0.0154117 0)
(7.36043 0.0154724 0)
(7.36202 0.0155314 0)
(7.36358 0.0155973 0)
(7.36512 0.0156788 0)
(7.36662 0.0157849 0)
(7.36811 0.0159251 0)
(7.36959 0.0161097 0)
(7.37106 0.016349 0)
(7.37255 0.0166535 0)
(7.37406 0.0170323 0)
(7.37563 0.0174913 0)
(7.37728 0.0180311 0)
(7.37904 0.0186431 0)
(7.38094 0.0193061 0)
(7.38302 0.0199842 0)
(7.38527 0.0206197 0)
(7.38773 0.0212081 0)
(7.33303 0.00116377 0)
(7.33343 0.00354162 0)
(7.33438 0.00582381 0)
(7.33584 0.00777145 0)
(7.33757 0.00935062 0)
(7.33942 0.0106232 0)
(7.34136 0.0116218 0)
(7.34332 0.0123816 0)
(7.34527 0.0129543 0)
(7.34718 0.0133852 0)
(7.34905 0.0137065 0)
(7.35088 0.0139436 0)
(7.35266 0.0141177 0)
(7.3544 0.0142455 0)
(7.3561 0.0143404 0)
(7.35776 0.0144133 0)
(7.35939 0.0144741 0)
(7.36099 0.0145314 0)
(7.36256 0.0145938 0)
(7.36411 0.0146691 0)
(7.36564 0.0147657 0)
(7.36715 0.0148917 0)
(7.36867 0.0150554 0)
(7.37019 0.0152649 0)
(7.37172 0.0155271 0)
(7.3733 0.0158474 0)
(7.37493 0.0162276 0)
(7.37664 0.0166645 0)
(7.37845 0.0171477 0)
(7.38038 0.0176575 0)
(7.38245 0.0181652 0)
(7.38466 0.0186294 0)
(7.38704 0.0190588 0)
(7.33304 0.00107284 0)
(7.33343 0.00322129 0)
(7.33431 0.00526761 0)
(7.33563 0.00704504 0)
(7.33722 0.0085099 0)
(7.33895 0.00970086 0)
(7.34077 0.0106482 0)
(7.34264 0.0113812 0)
(7.3445 0.0119406 0)
(7.34635 0.0123652 0)
(7.34817 0.0126845 0)
(7.34996 0.0129217 0)
(7.35171 0.0130965 0)
(7.35343 0.0132247 0)
(7.35511 0.013319 0)
(7.35676 0.0133903 0)
(7.35839 0.0134478 0)
(7.35998 0.0135 0)
(7.36156 0.0135548 0)
(7.36312 0.0136196 0)
(7.36467 0.0137016 0)
(7.36621 0.0138077 0)
(7.36775 0.0139445 0)
(7.3693 0.0141177 0)
(7.37088 0.0143318 0)
(7.37249 0.0145892 0)
(7.37417 0.014889 0)
(7.37591 0.0152259 0)
(7.37774 0.0155892 0)
(7.37968 0.0159618 0)
(7.38173 0.0163217 0)
(7.38389 0.0166388 0)
(7.38619 0.0169284 0)
(7.33304 0.000977781 0)
(7.33341 0.0029137 0)
(7.33423 0.00474704 0)
(7.33543 0.0063592 0)
(7.3369 0.00770723 0)
(7.33851 0.00881293 0)
(7.34023 0.00970203 0)
(7.342 0.0103993 0)
(7.34379 0.0109372 0)
(7.34557 0.0113484 0)
(7.34734 0.0116594 0)
(7.34909 0.0118915 0)
(7.35081 0.0120623 0)
(7.3525 0.0121868 0)
(7.35416 0.012277 0)
(7.35581 0.0123431 0)
(7.35742 0.012394 0)
(7.35902 0.0124376 0)
(7.3606 0.0124811 0)
(7.36216 0.0125313 0)
(7.36372 0.0125943 0)
(7.36528 0.0126759 0)
(7.36684 0.0127809 0)
(7.36842 0.0129133 0)
(7.37002 0.0130755 0)
(7.37167 0.0132679 0)
(7.37336 0.0134878 0)
(7.37512 0.013729 0)
(7.37696 0.0139814 0)
(7.37889 0.0142307 0)
(7.38091 0.0144599 0)
(7.38301 0.0146473 0)
(7.38524 0.0148094 0)
(7.33304 0.000882566 0)
(7.33339 0.00261884 0)
(7.33415 0.00425702 0)
(7.33525 0.00570989 0)
(7.33661 0.00693959 0)
(7.33812 0.0079568 0)
(7.33973 0.00878192 0)
(7.34141 0.00943585 0)
(7.34313 0.00994478 0)
(7.34485 0.010336 0)
(7.34656 0.0106327 0)
(7.34827 0.0108541 0)
(7.34996 0.0110164 0)
(7.35162 0.011133 0)
(7.35327 0.0112152 0)
(7.3549 0.0112727 0)
(7.3565 0.0113135 0)
(7.35809 0.0113451 0)
(7.35967 0.0113738 0)
(7.36124 0.0114057 0)
(7.36281 0.011446 0)
(7.36438 0.0114991 0)
(7.36595 0.0115687 0)
(7.36755 0.0116571 0)
(7.36917 0.0117653 0)
(7.37083 0.0118922 0)
(7.37253 0.0120341 0)
(7.3743 0.0121847 0)
(7.37613 0.0123348 0)
(7.37803 0.0124724 0)
(7.38002 0.0125843 0)
(7.38207 0.0126546 0)
(7.38423 0.0126986 0)
(7.33304 0.000789288 0)
(7.33337 0.00233651 0)
(7.33407 0.00379338 0)
(7.33509 0.00509309 0)
(7.33634 0.00620397 0)
(7.33776 0.00712989 0)
(7.33928 0.00788621 0)
(7.34088 0.00849036 0)
(7.34252 0.00896355 0)
(7.34418 0.00932841 0)
(7.34585 0.00960515 0)
(7.34751 0.00981077 0)
(7.34916 0.00995976 0)
(7.3508 0.0100644 0)
(7.35243 0.0101349 0)
(7.35404 0.0101801 0)
(7.35563 0.0102075 0)
(7.35722 0.0102237 0)
(7.35879 0.0102344 0)
(7.36036 0.0102447 0)
(7.36193 0.010259 0)
(7.36351 0.0102806 0)
(7.36509 0.010312 0)
(7.36669 0.0103545 0)
(7.36832 0.0104078 0)
(7.36998 0.0104699 0)
(7.37169 0.0105367 0)
(7.37344 0.010602 0)
(7.37526 0.0106575 0)
(7.37713 0.0106934 0)
(7.37907 0.0106992 0)
(7.38107 0.0106625 0)
(7.38317 0.0105964 0)
(7.33303 0.000698933 0)
(7.33335 0.00206621 0)
(7.33399 0.00335269 0)
(7.33494 0.00450502 0)
(7.33611 0.00549731 0)
(7.33743 0.00632961 0)
(7.33887 0.00701302 0)
(7.3404 0.00756179 0)
(7.34197 0.00799318 0)
(7.34357 0.00832587 0)
(7.34519 0.00857719 0)
(7.34681 0.00876206 0)
(7.34843 0.0088933 0)
(7.35004 0.00898186 0)
(7.35164 0.009037 0)
(7.35323 0.00906656 0)
(7.35481 0.00907727 0)
(7.35639 0.00907496 0)
(7.35796 0.00906464 0)
(7.35952 0.00905055 0)
(7.36109 0.00903611 0)
(7.36266 0.00902389 0)
(7.36425 0.00901539 0)
(7.36585 0.00901094 0)
(7.36748 0.00900948 0)
(7.36914 0.00900841 0)
(7.37083 0.0090035 0)
(7.37257 0.00898887 0)
(7.37436 0.00895724 0)
(7.3762 0.00890022 0)
(7.37809 0.00880924 0)
(7.38003 0.00867439 0)
(7.38206 0.00850603 0)
(7.33303 0.000611849 0)
(7.33332 0.00180721 0)
(7.33393 0.00293203 0)
(7.33481 0.00394218 0)
(7.3359 0.00481657 0)
(7.33714 0.00555338 0)
(7.33851 0.00616032 0)
(7.33996 0.00664886 0)
(7.34147 0.00703304 0)
(7.34302 0.0073282 0)
(7.34458 0.00754901 0)
(7.34616 0.00770842 0)
(7.34775 0.0078176 0)
(7.34933 0.00788619 0)
(7.35091 0.00792233 0)
(7.35248 0.00793296 0)
(7.35405 0.00792397 0)
(7.35561 0.00790037 0)
(7.35717 0.00786641 0)
(7.35872 0.00782554 0)
(7.36029 0.0077804 0)
(7.36185 0.00773275 0)
(7.36343 0.00768333 0)
(7.36503 0.00763179 0)
(7.36665 0.00757652 0)
(7.36829 0.00751461 0)
(7.36997 0.00744186 0)
(7.37169 0.00735278 0)
(7.37344 0.00724091 0)
(7.37524 0.00709904 0)
(7.37708 0.00691992 0)
(7.37896 0.00669522 0)
(7.38091 0.00643279 0)
(7.33303 0.000528036 0)
(7.3333 0.00155859 0)
(7.33387 0.0025289 0)
(7.33469 0.00340138 0)
(7.33571 0.00415881 0)
(7.33689 0.0047986 0)
(7.33818 0.00532603 0)
(7.33957 0.0057501 0)
(7.34102 0.00608222 0)
(7.34251 0.00633494 0)
(7.34403 0.00652053 0)
(7.34557 0.00665003 0)
(7.34712 0.00673307 0)
(7.34867 0.00677796 0)
(7.35023 0.00679174 0)
(7.35178 0.00678038 0)
(7.35333 0.00674891 0)
(7.35487 0.00670154 0)
(7.35642 0.00664174 0)
(7.35797 0.00657223 0)
(7.35952 0.00649493 0)
(7.36108 0.00641092 0)
(7.36265 0.00632033 0)
(7.36423 0.0062223 0)
(7.36583 0.00611488 0)
(7.36746 0.00599502 0)
(7.36911 0.00585861 0)
(7.37079 0.0057006 0)
(7.37251 0.00551521 0)
(7.37426 0.00529614 0)
(7.37604 0.00503707 0)
(7.37785 0.00473077 0)
(7.37974 0.00438299 0)
(7.33303 0.000447303 0)
(7.33328 0.00131935 0)
(7.33381 0.00214105 0)
(7.33458 0.0028797 0)
(7.33555 0.00352115 0)
(7.33666 0.00406271 0)
(7.33789 0.00450794 0)
(7.33922 0.00486384 0)
(7.34061 0.00513957 0)
(7.34205 0.00534538 0)
(7.34353 0.00549138 0)
(7.34503 0.00558686 0)
(7.34655 0.00563995 0)
(7.34807 0.00565766 0)
(7.3496 0.00564595 0)
(7.35113 0.0056098 0)
(7.35266 0.00555338 0)
(7.35419 0.0054801 0)
(7.35572 0.00539269 0)
(7.35725 0.00529318 0)
(7.35879 0.00518283 0)
(7.36033 0.00506217 0)
(7.36188 0.00493083 0)
(7.36345 0.00478758 0)
(7.36503 0.00463024 0)
(7.36663 0.00445576 0)
(7.36825 0.00426018 0)
(7.3699 0.00403888 0)
(7.37157 0.00378661 0)
(7.37327 0.00349782 0)
(7.37499 0.00316687 0)
(7.37673 0.00278737 0)
(7.37854 0.0023634 0)
(7.33303 0.000369367 0)
(7.33327 0.00108844 0)
(7.33376 0.00176641 0)
(7.33449 0.00237445 0)
(7.3354 0.00290082 0)
(7.33646 0.00334314 0)
(7.33763 0.00370379 0)
(7.3389 0.00398821 0)
(7.34025 0.00420371 0)
(7.34164 0.00435854 0)
(7.34308 0.00446098 0)
(7.34454 0.00451864 0)
(7.34603 0.00453826 0)
(7.34752 0.00452561 0)
(7.34902 0.00448556 0)
(7.35053 0.00442214 0)
(7.35204 0.00433865 0)
(7.35355 0.00423773 0)
(7.35506 0.00412138 0)
(7.35658 0.00399099 0)
(7.3581 0.00384727 0)
(7.35962 0.00369023 0)
(7.36115 0.00351914 0)
(7.3627 0.00333249 0)
(7.36425 0.003128 0)
(7.36582 0.00290263 0)
(7.3674 0.00265266 0)
(7.36901 0.0023738 0)
(7.37063 0.00206133 0)
(7.37227 0.00171025 0)
(7.37393 0.00131552 0)
(7.3756 0.000871422 0)
(7.37732 0.000380809 0)
(7.33303 0.000293904 0)
(7.33325 0.000864788 0)
(7.33372 0.0014031 0)
(7.33441 0.00188312 0)
(7.33527 0.00229515 0)
(7.33628 0.00263728 0)
(7.3374 0.00291123 0)
(7.33863 0.0031212 0)
(7.33992 0.003273 0)
(7.34128 0.0033732 0)
(7.34268 0.00342845 0)
(7.3441 0.00344486 0)
(7.34556 0.00342784 0)
(7.34702 0.00338197 0)
(7.3485 0.00331107 0)
(7.34998 0.00321824 0)
(7.35147 0.00310593 0)
(7.35296 0.00297603 0)
(7.35445 0.00282987 0)
(7.35594 0.00266823 0)
(7.35744 0.00249131 0)
(7.35894 0.00229873 0)
(7.36045 0.00208943 0)
(7.36197 0.00186173 0)
(7.36349 0.00161328 0)
(7.36502 0.00134112 0)
(7.36657 0.00104177 0)
(7.36812 0.000711264 0)
(7.36969 0.000345325 0)
(7.37127 -6.05518e-05 0)
(7.37287 -0.000510883 0)
(7.37447 -0.0010108 0)
(7.3761 -0.00155828 0)
(7.33302 0.000220581 0)
(7.33324 0.000647375 0)
(7.33368 0.00104934 0)
(7.33434 0.00140338 0)
(7.33516 0.00170153 0)
(7.33612 0.00194251 0)
(7.3372 0.00212776 0)
(7.33838 0.00226058 0)
(7.33964 0.00234554 0)
(7.34095 0.00238783 0)
(7.34231 0.00239264 0)
(7.34371 0.00236472 0)
(7.34513 0.00230824 0)
(7.34657 0.00222666 0)
(7.34802 0.00212278 0)
(7.34948 0.00199878 0)
(7.35094 0.00185631 0)
(7.35241 0.00169653 0)
(7.35388 0.00152013 0)
(7.35535 0.00132735 0)
(7.35683 0.00111793 0)
(7.3583 0.000891126 0)
(7.35978 0.000645647 0)
(7.36127 0.00037967 0)
(7.36275 9.0847e-05 0)
(7.36425 -0.000223668 0)
(7.36575 -0.000567157 0)
(7.36725 -0.000943247 0)
(7.36877 -0.00135583 0)
(7.37029 -0.00180896 0)
(7.37181 -0.00230668 0)
(7.37333 -0.00285357 0)
(7.37489 -0.00344815 0)
(7.33302 0.000149079 0)
(7.33323 0.000435228 0)
(7.33365 0.000703484 0)
(7.33427 0.000933007 0)
(7.33506 0.00111739 0)
(7.33598 0.00125615 0)
(7.33702 0.00135075 0)
(7.33816 0.00140388 0)
(7.33938 0.00141916 0)
(7.34066 0.00140058 0)
(7.34199 0.00135205 0)
(7.34336 0.00127711 0)
(7.34475 0.00117875 0)
(7.34617 0.00105935 0)
(7.34759 0.000920735 0)
(7.34903 0.000764224 0)
(7.35047 0.000590677 0)
(7.35191 0.000400561 0)
(7.35336 0.000193971 0)
(7.35481 -2.93682e-05 0)
(7.35625 -0.000270111 0)
(7.3577 -0.000529322 0)
(7.35915 -0.000808484 0)
(7.3606 -0.00110952 0)
(7.36205 -0.00143474 0)
(7.3635 -0.0017869 0)
(7.36495 -0.00216903 0)
(7.36641 -0.00258449 0)
(7.36786 -0.00303678 0)
(7.36931 -0.00352956 0)
(7.37077 -0.00406642 0)
(7.37222 -0.00465141 0)
(7.37368 -0.00528337 0)
(7.33302 7.91063e-05 0)
(7.33322 0.000227465 0)
(7.33362 0.000364027 0)
(7.33422 0.000469883 0)
(7.33497 0.000540155 0)
(7.33586 0.000575378 0)
(7.33687 0.000577327 0)
(7.33798 0.000548358 0)
(7.33916 0.000491309 0)
(7.34042 0.000409181 0)
(7.34172 0.000304783 0)
(7.34306 0.000180508 0)
(7.34442 3.82375e-05 0)
(7.34581 -0.000120664 0)
(7.34721 -0.000295309 0)
(7.34863 -0.000485232 0)
(7.35004 -0.000690322 0)
(7.35146 -0.000910776 0)
(7.35289 -0.00114706 0)
(7.35431 -0.00139993 0)
(7.35573 -0.00167041 0)
(7.35714 -0.00195982 0)
(7.35856 -0.00226982 0)
(7.35997 -0.00260239 0)
(7.36138 -0.00295983 0)
(7.36279 -0.00334472 0)
(7.36419 -0.00375993 0)
(7.36559 -0.0042085 0)
(7.36698 -0.0046936 0)
(7.36837 -0.00521848 0)
(7.36975 -0.00578633 0)
(7.37112 -0.00640068 0)
(7.3725 -0.00706053 0)
(7.33302 1.04273e-05 0)
(7.33321 2.33501e-05 0)
(7.33359 2.96226e-05 0)
(7.33417 1.19946e-05 0)
(7.33489 -3.2761e-05 0)
(7.33576 -0.000102771 0)
(7.33674 -0.000195644 0)
(7.33782 -0.00030914 0)
(7.33898 -0.000440998 0)
(7.3402 -0.000589063 0)
(7.34148 -0.000751523 0)
(7.34279 -0.000927057 0)
(7.34414 -0.00111483 0)
(7.34551 -0.00131448 0)
(7.34689 -0.001526 0)
(7.34828 -0.00174975 0)
(7.34967 -0.00198635 0)
(7.35107 -0.00223662 0)
(7.35246 -0.00250157 0)
(7.35386 -0.00278238 0)
(7.35525 -0.00308043 0)
(7.35663 -0.00339729 0)
(7.35801 -0.00373474 0)
(7.35939 -0.00409483 0)
(7.36075 -0.0044798 0)
(7.36211 -0.00489211 0)
(7.36347 -0.00533443 0)
(7.36481 -0.00580952 0)
(7.36614 -0.00632024 0)
(7.36746 -0.00686949 0)
(7.36877 -0.00746005 0)
(7.37007 -0.008095 0)
(7.37137 -0.00877341 0)
(7.33302 -5.71046e-05 0)
(7.3332 -0.000177624 0)
(7.33357 -0.000300831 0)
(7.33412 -0.000442561 0)
(7.33483 -0.000604041 0)
(7.33567 -0.000781538 0)
(7.33662 -0.000971707 0)
(7.33768 -0.00117224 0)
(7.33882 -0.00138131 0)
(7.34003 -0.00159747 0)
(7.34128 -0.00181983 0)
(7.34258 -0.00204812 0)
(7.3439 -0.00228254 0)
(7.34525 -0.0025237 0)
(7.34661 -0.00277253 0)
(7.34798 -0.00303017 0)
(7.34935 -0.00329795 0)
(7.35072 -0.0035773 0)
(7.35209 -0.00386973 0)
(7.35346 -0.00417683 0)
(7.35482 -0.00450027 0)
(7.35617 -0.00484186 0)
(7.35752 -0.00520349 0)
(7.35885 -0.00558723 0)
(7.36018 -0.00599528 0)
(7.36149 -0.00642998 0)
(7.36279 -0.00689378 0)
(7.36408 -0.00738922 0)
(7.36535 -0.00791883 0)
(7.3666 -0.00848519 0)
(7.36784 -0.00909072 0)
(7.36906 -0.00973805 0)
(7.37028 -0.0104262 0)
(7.33302 -0.000123476 0)
(7.33319 -0.00037556 0)
(7.33355 -0.000628038 0)
(7.33408 -0.000895536 0)
(7.33476 -0.00117651 0)
(7.33559 -0.00146453 0)
(7.33653 -0.00175492 0)
(7.33757 -0.0020452 0)
(7.33869 -0.00233386 0)
(7.33988 -0.0026201 0)
(7.34112 -0.0029039 0)
(7.34241 -0.00318599 0)
(7.34371 -0.00346759 0)
(7.34504 -0.00375028 0)
(7.34639 -0.00403586 0)
(7.34774 -0.00432629 0)
(7.34909 -0.00462361 0)
(7.35044 -0.00492986 0)
(7.35178 -0.00524706 0)
(7.35312 -0.00557722 0)
(7.35445 -0.00592232 0)
(7.35577 -0.00628438 0)
(7.35708 -0.00666543 0)
(7.35838 -0.00706755 0)
(7.35966 -0.00749293 0)
(7.36092 -0.00794377 0)
(7.36217 -0.00842235 0)
(7.3634 -0.00893098 0)
(7.36461 -0.00947195 0)
(7.3658 -0.0100475 0)
(7.36697 -0.0106598 0)
(7.36812 -0.011311 0)
(7.36925 -0.0120003 0)
(7.33302 -0.000188376 0)
(7.33318 -0.000569839 0)
(7.33352 -0.000952037 0)
(7.33403 -0.00134845 0)
(7.3347 -0.00175322 0)
(7.33551 -0.00215592 0)
(7.33644 -0.00255015 0)
(7.33748 -0.00293314 0)
(7.33859 -0.00330366 0)
(7.33977 -0.00366159 0)
(7.34101 -0.00400803 0)
(7.34228 -0.00434492 0)
(7.34358 -0.00467464 0)
(7.34489 -0.00499973 0)
(7.34622 -0.00532287 0)
(7.34755 -0.00564676 0)
(7.34889 -0.00597406 0)
(7.35022 -0.00630733 0)
(7.35154 -0.00664901 0)
(7.35285 -0.00700146 0)
(7.35415 -0.00736691 0)
(7.35544 -0.00774754 0)
(7.35671 -0.00814548 0)
(7.35797 -0.00856284 0)
(7.3592 -0.00900175 0)
(7.36042 -0.00946432 0)
(7.36162 -0.00995267 0)
(7.3628 -0.0104689 0)
(7.36395 -0.0110151 0)
(7.36508 -0.0115932 0)
(7.36618 -0.012205 0)
(7.36725 -0.0128525 0)
(7.36831 -0.0135345 0)
(7.33302 -0.000250921 0)
(7.33317 -0.000758495 0)
(7.33349 -0.00127176 0)
(7.33398 -0.00180253 0)
(7.33464 -0.00233747 0)
(7.33544 -0.00286039 0)
(7.33637 -0.0033632 0)
(7.3374 -0.00384287 0)
(7.33852 -0.00429793 0)
(7.3397 -0.00472848 0)
(7.34093 -0.00513655 0)
(7.34219 -0.00552544 0)
(7.34349 -0.00589888 0)
(7.34479 -0.00626075 0)
(7.34611 -0.00661492 0)
(7.34743 -0.00696514 0)
(7.34875 -0.00731493 0)
(7.35006 -0.00766755 0)
(7.35136 -0.00802599 0)
(7.35264 -0.00839301 0)
(7.35392 -0.00877114 0)
(7.35517 -0.00916274 0)
(7.35641 -0.00957002 0)
(7.35762 -0.00999512 0)
(7.35882 -0.0104401 0)
(7.35999 -0.0109069 0)
(7.36114 -0.0113976 0)
(7.36226 -0.0119139 0)
(7.36336 -0.0124578 0)
(7.36442 -0.013031 0)
(7.36546 -0.013635 0)
(7.36647 -0.0142717 0)
(7.36745 -0.01494 0)
(7.33302 -0.000309074 0)
(7.33315 -0.000936907 0)
(7.33344 -0.00158416 0)
(7.33391 -0.00225896 0)
(7.33456 -0.00293387 0)
(7.33536 -0.00358369 0)
(7.3363 -0.00419939 0)
(7.33734 -0.00477951 0)
(7.33846 -0.00532391 0)
(7.33965 -0.00583396 0)
(7.34089 -0.00631285 0)
(7.34216 -0.00676469 0)
(7.34345 -0.00719381 0)
(7.34476 -0.0076046 0)
(7.34607 -0.00800146 0)
(7.34738 -0.00838866 0)
(7.34868 -0.0087702 0)
(7.34997 -0.0091498 0)
(7.35125 -0.00953089 0)
(7.35251 -0.00991658 0)
(7.35376 -0.0103097 0)
(7.35498 -0.010713 0)
(7.35619 -0.0111287 0)
(7.35737 -0.0115592 0)
(7.35852 -0.0120065 0)
(7.35965 -0.0124726 0)
(7.36074 -0.0129596 0)
(7.36181 -0.0134691 0)
(7.36285 -0.0140029 0)
(7.36386 -0.0145625 0)
(7.36484 -0.0151493 0)
(7.36577 -0.0157645 0)
(7.36669 -0.0164072 0)
(7.33301 -0.000358409 0)
(7.33312 -0.00109555 0)
(7.33336 -0.00188217 0)
(7.3338 -0.00271682 0)
(7.33445 -0.00354862 0)
(7.33526 -0.00433945 0)
(7.33621 -0.00507535 0)
(7.33727 -0.00575151 0)
(7.33841 -0.00636753 0)
(7.33961 -0.0069285 0)
(7.34086 -0.00744282 0)
(7.34213 -0.00791915 0)
(7.34343 -0.00836528 0)
(7.34473 -0.00878819 0)
(7.34604 -0.00919416 0)
(7.34734 -0.00958868 0)
(7.34864 -0.00997653 0)
(7.34992 -0.0103618 0)
(7.35118 -0.0107481 0)
(7.35242 -0.0111385 0)
(7.35365 -0.0115358 0)
(7.35484 -0.0119424 0)
(7.35602 -0.0123605 0)
(7.35716 -0.0127921 0)
(7.35828 -0.013239 0)
(7.35936 -0.013703 0)
(7.36042 -0.0141856 0)
(7.36144 -0.0146884 0)
(7.36243 -0.0152129 0)
(7.36338 -0.0157604 0)
(7.3643 -0.016332 0)
(7.36518 -0.0169293 0)
(7.36603 -0.0175514 0)
(7.33301 -0.000388495 0)
(7.33305 -0.00121652 0)
(7.33322 -0.00215836 0)
(7.33362 -0.00317218 0)
(7.33426 -0.00416918 0)
(7.3351 -0.00511803 0)
(7.33609 -0.00601862 0)
(7.33719 -0.00686349 0)
(7.33838 -0.00764205 0)
(7.33962 -0.00835187 0)
(7.3409 -0.00899756 0)
(7.3422 -0.00958614 0)
(7.34351 -0.0101252 0)
(7.34482 -0.0106228 0)
(7.34612 -0.0110866 0)
(7.34741 -0.0115241 0)
(7.34869 -0.0119419 0)
(7.34995 -0.0123459 0)
(7.35119 -0.0127414 0)
(7.35241 -0.0131328 0)
(7.3536 -0.0135242 0)
(7.35476 -0.013919 0)
(7.3559 -0.01432 0)
(7.357 -0.01473 0)
(7.35808 -0.0151512 0)
(7.35912 -0.0155857 0)
(7.36013 -0.0160352 0)
(7.3611 -0.0165015 0)
(7.36204 -0.016986 0)
(7.36294 -0.0174899 0)
(7.3638 -0.0180143 0)
(7.36461 -0.0185599 0)
(7.3654 -0.0191256 0)
(7.33299 -0.000373146 0)
(7.33292 -0.00125093 0)
(7.33296 -0.00240866 0)
(7.3333 -0.00368281 0)
(7.33395 -0.00484974 0)
(7.33479 -0.00584808 0)
(7.33578 -0.0067076 0)
(7.33688 -0.00746073 0)
(7.33809 -0.00813043 0)
(7.33937 -0.00873676 0)
(7.34068 -0.00929606 0)
(7.34201 -0.00981985 0)
(7.34335 -0.0103164 0)
(7.34469 -0.010792 0)
(7.34602 -0.0112517 0)
(7.34733 -0.0116996 0)
(7.34862 -0.012139 0)
(7.34988 -0.0125729 0)
(7.35112 -0.0130038 0)
(7.35234 -0.0134342 0)
(7.35352 -0.013866 0)
(7.35467 -0.0143013 0)
(7.35578 -0.0147418 0)
(7.35687 -0.0151891 0)
(7.35792 -0.0156448 0)
(7.35893 -0.0161103 0)
(7.35991 -0.0165869 0)
(7.36085 -0.017076 0)
(7.36175 -0.0175787 0)
(7.36261 -0.0180961 0)
(7.36343 -0.0186294 0)
(7.36421 -0.0191798 0)
(7.36497 -0.019747 0)
(7.33295 -0.000268182 0)
(7.3326 -0.0010893 0)
(7.33236 -0.00244951 0)
(7.33268 -0.00415681 0)
(7.3335 -0.00596886 0)
(7.33456 -0.00773383 0)
(7.33571 -0.00933849 0)
(7.33693 -0.01072 0)
(7.33819 -0.0118764 0)
(7.33947 -0.0128369 0)
(7.34077 -0.0136344 0)
(7.34207 -0.0142984 0)
(7.34337 -0.0148561 0)
(7.34466 -0.0153314 0)
(7.34594 -0.0157446 0)
(7.3472 -0.016112 0)
(7.34845 -0.0164467 0)
(7.34968 -0.0167591 0)
(7.35089 -0.0170577 0)
(7.35207 -0.0173491 0)
(7.35323 -0.0176385 0)
(7.35436 -0.01793 0)
(7.35545 -0.0182271 0)
(7.35652 -0.0185323 0)
(7.35755 -0.0188478 0)
(7.35855 -0.0191753 0)
(7.35952 -0.0195163 0)
(7.36044 -0.0198719 0)
(7.36133 -0.0202431 0)
(7.36218 -0.0206305 0)
(7.36298 -0.0210347 0)
(7.36374 -0.021456 0)
(7.36447 -0.021893 0)
(7.33289 7.29024e-05 0)
(7.33205 -0.00102907 0)
(7.3312 -0.00241835 0)
(7.331 -0.00315965 0)
(7.33143 -0.0035044 0)
(7.33231 -0.00391139 0)
(7.33351 -0.00449111 0)
(7.33492 -0.00518109 0)
(7.33642 -0.00593432 0)
(7.33796 -0.00673145 0)
(7.33951 -0.00755371 0)
(7.34104 -0.00838101 0)
(7.34254 -0.00919838 0)
(7.34402 -0.00999675 0)
(7.34546 -0.0107709 0)
(7.34688 -0.0115181 0)
(7.34826 -0.0122375 0)
(7.34962 -0.0129299 0)
(7.35094 -0.0135968 0)
(7.35222 -0.0142404 0)
(7.35348 -0.014863 0)
(7.3547 -0.0154672 0)
(7.35589 -0.0160555 0)
(7.35705 -0.0166305 0)
(7.35817 -0.0171945 0)
(7.35925 -0.0177498 0)
(7.36029 -0.0182983 0)
(7.36129 -0.0188422 0)
(7.36226 -0.0193831 0)
(7.36318 -0.0199229 0)
(7.36406 -0.020463 0)
(7.3649 -0.0210049 0)
(7.36572 -0.0215489 0)
(7.33241 0.00203475 0)
(7.33044 -0.000692046 0)
(7.33026 -0.00746206 0)
(7.3313 -0.0139477 0)
(7.33223 -0.0186914 0)
(7.33289 -0.021894 0)
(7.33364 -0.0239721 0)
(7.33462 -0.0252304 0)
(7.33576 -0.0259069 0)
(7.33702 -0.0261911 0)
(7.33839 -0.0262224 0)
(7.33985 -0.0260987 0)
(7.34139 -0.0258876 0)
(7.34298 -0.0256349 0)
(7.34461 -0.0253711 0)
(7.34627 -0.0251157 0)
(7.34793 -0.0248812 0)
(7.3496 -0.024675 0)
(7.35125 -0.0245014 0)
(7.35289 -0.0243623 0)
(7.3545 -0.0242583 0)
(7.35609 -0.0241892 0)
(7.35764 -0.0241539 0)
(7.35915 -0.0241513 0)
(7.36063 -0.0241801 0)
(7.36205 -0.0242388 0)
(7.36343 -0.024326 0)
(7.36476 -0.0244404 0)
(7.36604 -0.0245807 0)
(7.36727 -0.0247458 0)
(7.36844 -0.0249347 0)
(7.36955 -0.0251468 0)
(7.37061 -0.0253804 0)
(7.32877 0.00625584 0)
(7.31723 0.0178784 0)
(7.31237 0.0250388 0)
(7.31385 0.0270459 0)
(7.31763 0.0256925 0)
(7.32174 0.0228363 0)
(7.32588 0.0194354 0)
(7.33002 0.0158479 0)
(7.33408 0.0122567 0)
(7.33799 0.0088008 0)
(7.34177 0.00556479 0)
(7.3454 0.00258073 0)
(7.34891 -0.00014891 0)
(7.35229 -0.00263375 0)
(7.35555 -0.00488905 0)
(7.35869 -0.00693342 0)
(7.36172 -0.00878684 0)
(7.36464 -0.010469 0)
(7.36745 -0.0119985 0)
(7.37015 -0.0133924 0)
(7.37275 -0.0146662 0)
(7.37525 -0.0158339 0)
(7.37764 -0.016908 0)
(7.37994 -0.0178996 0)
(7.38214 -0.0188185 0)
(7.38424 -0.0196735 0)
(7.38625 -0.0204721 0)
(7.38816 -0.0212212 0)
(7.38999 -0.0219269 0)
(7.39172 -0.022594 0)
(7.39337 -0.0232272 0)
(7.39493 -0.0238295 0)
(7.39643 -0.0244036 0)
(7.33378 -0.0333113 0)
(7.33299 -0.0723472 0)
(7.32807 -0.0857479 0)
(7.3265 -0.0872114 0)
(7.33005 -0.0848467 0)
(7.33725 -0.080905 0)
(7.34617 -0.0760878 0)
(7.35562 -0.071051 0)
(7.36505 -0.066251 0)
(7.37422 -0.0618603 0)
(7.38295 -0.0579076 0)
(7.39116 -0.0543839 0)
(7.39882 -0.0512675 0)
(7.4059 -0.0485254 0)
(7.41245 -0.046119 0)
(7.41847 -0.0440102 0)
(7.424 -0.0421642 0)
(7.42907 -0.0405493 0)
(7.4337 -0.0391379 0)
(7.43793 -0.0379052 0)
(7.44179 -0.0368298 0)
(7.44529 -0.0358931 0)
(7.44846 -0.035079 0)
(7.45133 -0.0343734 0)
(7.45392 -0.0337641 0)
(7.45624 -0.0332406 0)
(7.45832 -0.0327936 0)
(7.46016 -0.0324151 0)
(7.46179 -0.0320981 0)
(7.46322 -0.0318366 0)
(7.46446 -0.0316253 0)
(7.46553 -0.0314603 0)
(7.46645 -0.0313353 0)
(7.33141 0.164993 0)
(7.34784 0.185172 0)