/*--------------------------------*- C++ -*----------------------------------*\
  =========                 |
  \\      /  F ield         | OpenFOAM: The Open Source CFD Toolbox
   \\    /   O peration     | Website:  https://openfoam.org
    \\  /    A nd           | Version:  10
     \\/     M anipulation  |
\*---------------------------------------------------------------------------*/
FoamFile
{
    format      ascii;
    class       volScalarField;
    location    "1100";
    object      yPlus;
}
// * * * * * * * * * * * * * * * * * * * * * * * * * * * * * * * * * * * * * //

dimensions      [0 0 0 0 0 0 0];

internalField   uniform 0;

boundaryField
{
    outlet
    {
        type            calculated;
        value           uniform 0;
    }
    inlet
    {
        type            calculated;
        value           uniform 0;
    }
    lowerWall
    {
        type            calculated;
        value           nonuniform List<scalar> 
148
(
9.9937
9.87583
9.76655
9.65574
9.54325
9.43227
9.32599
9.22676
9.13583
9.05372
8.98048
8.91585
8.85931
8.81034
8.76829
8.73257
8.70261
8.67783
8.65773
8.64183
8.62965
8.62084
8.61499
8.61182
8.61099
8.61229
8.61517
8.62117
8.62475
8.63678
8.61846
8.91725
6.83985
5.20795
7.78756
9.53034
10.7519
11.4829
11.7883
11.9204
11.1889
11.2043
11.6296
11.776
11.9088
11.8852
12.737
6.07905
5.20795
11.7128
12.2471
12.4325
12.4165
12.2658
12.1064
12.0185
12.0709
12.4571
13.9567
17.3115
21.225
24.9782
28.4651
31.6904
34.679
37.4589
40.0555
42.4909
44.7832
46.9486
49.0008
50.9522
52.8138
54.5954
56.3052
57.9495
59.533
61.0584
62.5267
63.9376
65.2893
66.5801
67.8088
68.976
70.0856
71.1387
72.1141
73.0135
73.8341
74.5728
75.2278
75.7982
76.2851
76.6915
77.0217
77.2822
77.4807
77.626
77.7275
77.7945
77.8354
77.8576
77.8667
77.8665
77.8584
77.8418
77.8137
77.7696
77.7035
77.6083
77.4765
77.3015
77.077
76.7974
76.4569
76.0539
75.5954
75.1041
74.6616
74.3909
74.1524
73.8559
73.4846
73.037
72.5158
71.9253
71.2712
70.5609
69.8035
69.0094
68.1906
67.3602
66.5322
65.7208
64.9401
64.2036
63.5236
62.9116
62.3778
61.9294
61.5687
61.2896
61.076
60.903
60.7431
60.5593
60.3806
59.976
)
;
    }
    upperWall
    {
        type            calculated;
        value           nonuniform List<scalar> 
133
(
30.6045
31.4255
32.2163
32.972
33.693
34.3806
35.0365
35.6619
36.2578
36.8253
37.3656
37.8797
38.3686
38.8332
39.2748
39.6941
40.0923
40.4702
40.8287
41.1689
41.4914
41.7972
42.0871
42.3618
42.6221
42.8688
43.1025
43.3238
43.5336
43.7321
43.9202
44.0983
44.2671
44.4525
44.6553
44.8512
45.04
45.2216
45.3957
45.5623
45.7213
45.8724
46.0157
46.1509
46.278
46.3968
46.5074
46.6094
46.7029
46.7877
46.8638
46.931
46.9892
47.0383
47.0782
47.1087
47.1298
47.1413
47.143
47.1348
47.1166
47.0881
47.0492
46.9998
46.9396
46.8684
46.786
46.6923
46.5871
46.4701
46.3413
46.2006
46.0477
45.8827
45.7055
45.5163
45.3151
45.1019
44.8771
44.6409
44.3936
44.1358
43.8677
43.59
43.3034
43.0084
42.7061
42.3972
42.0827
41.7638
41.4418
41.1181
40.7943
40.4722
40.1536
39.8408
39.536
39.2416
38.9601
38.6938
38.4452
38.2162
38.0086
37.8238
37.6624
37.5245
37.4094
37.3158
37.2417
37.1845
37.1413
37.1088
37.0836
37.0625
37.0424
37.0205
36.9946
36.9629
36.924
36.8772
36.8219
36.7582
36.6864
36.607
36.5207
36.4281
36.3301
36.2275
36.1207
36.0121
35.8958
35.7989
35.6143
)
;
    }
    frontAndBack
    {
        type            empty;
    }
}


// ************************************************************************* //
