/*--------------------------------*- C++ -*----------------------------------*\
  =========                 |
  \\      /  F ield         | OpenFOAM: The Open Source CFD Toolbox
   \\    /   O peration     | Website:  https://openfoam.org
    \\  /    A nd           | Version:  10
     \\/     M anipulation  |
\*---------------------------------------------------------------------------*/
FoamFile
{
    format      ascii;
    class       volScalarField;
    location    "0.13";
    object      epsilon;
}
// * * * * * * * * * * * * * * * * * * * * * * * * * * * * * * * * * * * * * //

dimensions      [0 2 -3 0 0 0 0];

internalField   nonuniform List<scalar> 
6820
(
23.2969
22.5752
21.9094
21.2853
20.7019
20.1632
19.6735
19.2344
18.8457
18.505
18.2092
17.9545
17.7371
17.5533
17.3995
17.2723
17.1689
17.0865
17.0227
16.9753
16.9424
16.9222
16.9132
16.9139
16.9232
16.9401
16.9629
16.9938
17.0185
17.0994
16.9415
17.9213
13.5875
5.03385
6.81827
7.83924
8.46743
8.89776
9.23099
9.52094
9.79403
10.0622
10.3306
10.601
10.8737
11.1485
11.4248
11.7021
11.9797
12.257
12.5335
12.8085
13.0816
13.3524
13.6203
13.8851
14.1466
14.4049
14.6601
14.9129
15.165
15.4184
15.689
15.9453
16.4288
16.4335
3.7036
4.1472
4.56525
4.9142
5.19789
5.4311
5.62788
5.79945
5.95423
6.09834
6.23606
6.3703
6.50296
6.63527
6.76796
6.90143
7.03586
7.17128
7.30763
7.44479
7.58259
7.72087
7.85944
7.99816
8.13692
8.27568
8.41445
8.55374
8.69335
8.83678
8.97888
9.13768
9.28407
3.54009
3.61093
3.72473
3.85371
3.98115
4.09938
4.20615
4.30188
4.38806
4.46646
4.5388
4.60658
4.67104
4.73317
4.79375
4.85336
4.91244
4.97131
5.03018
5.0892
5.14847
5.20804
5.26794
5.32819
5.38878
5.44974
5.51111
5.57303
5.63557
5.69933
5.76425
5.83142
5.90204
3.52064
3.50151
3.50498
3.52611
3.55867
3.5972
3.63778
3.678
3.71658
3.75299
3.78712
3.81913
3.84926
3.87784
3.90515
3.93148
3.95707
3.98212
4.0068
4.03127
4.05561
4.07993
4.10429
4.12874
4.15333
4.1781
4.2031
4.22839
4.25404
4.28019
4.30693
4.33432
4.36252
3.5194
3.48247
3.45303
3.43232
3.41995
3.4145
3.41421
3.41749
3.42305
3.42994
3.43752
3.44537
3.45325
3.46103
3.46863
3.47606
3.48333
3.49048
3.49754
3.50456
3.51158
3.51864
3.52577
3.53299
3.54034
3.54784
3.55552
3.56341
3.57155
3.57998
3.58874
3.59785
3.60733
3.51943
3.47974
3.44283
3.40949
3.38025
3.35524
3.3342
3.31668
3.30212
3.28997
3.27975
3.27104
3.26351
3.25693
3.25109
3.24585
3.24112
3.23681
3.23287
3.22927
3.22597
3.22296
3.22023
3.21776
3.21556
3.21361
3.21193
3.21051
3.20937
3.20852
3.20796
3.20771
3.20774
3.51947
3.47943
3.44109
3.40466
3.37041
3.33852
3.30907
3.28206
3.25735
3.2348
3.21418
3.19529
3.17793
3.1619
3.14704
3.13321
3.12028
3.10816
3.09675
3.08599
3.07582
3.06618
3.05703
3.04835
3.0401
3.03225
3.0248
3.01772
3.011
3.00464
2.99862
2.99295
2.9876
3.51948
3.47941
3.44085
3.40382
3.36835
3.33448
3.30225
3.27169
3.2428
3.21553
3.18984
3.16563
3.14283
3.12134
3.10106
3.08189
3.06374
3.04655
3.03022
3.01469
2.99991
2.98581
2.97236
2.95949
2.94719
2.93541
2.92413
2.91333
2.90297
2.89304
2.88353
2.87442
2.86569
3.51948
3.4794
3.44082
3.40368
3.36796
3.33361
3.30063
3.26898
3.23865
3.20961
3.18185
3.15532
3.12998
3.10579
3.08269
3.06063
3.03956
3.01942
3.00016
2.98172
2.96407
2.94715
2.93093
2.91537
2.90042
2.88606
2.87226
2.85899
2.84622
2.83394
2.82213
2.81076
2.79981
3.51948
3.4794
3.44081
3.40365
3.36788
3.33344
3.30027
3.26834
3.23759
3.208
3.17953
3.15214
3.1258
3.10047
3.07613
3.05272
3.03023
3.0086
2.9878
2.9678
2.94856
2.93004
2.91221
2.89504
2.87851
2.86257
2.84721
2.83241
2.81813
2.80435
2.79107
2.77825
2.76588
3.51948
3.4794
3.4408
3.40364
3.36786
3.3334
3.30019
3.26819
3.23734
3.20759
3.1789
3.15124
3.12456
3.09883
3.07401
3.05007
3.02698
3.0047
2.98321
2.96247
2.94245
2.92313
2.90448
2.88647
2.86908
2.85228
2.83605
2.82037
2.80521
2.79057
2.77641
2.76273
2.7495
3.51948
3.4794
3.44079
3.40363
3.36785
3.33337
3.30016
3.26814
3.23726
3.20747
3.17873
3.15099
3.12421
3.09835
3.07337
3.04925
3.02594
3.00341
2.98164
2.9606
2.94025
2.92058
2.90156
2.88316
2.86536
2.84813
2.83147
2.81535
2.79974
2.78463
2.77001
2.75586
2.74215
3.51947
3.47939
3.44079
3.40362
3.36783
3.33336
3.30014
3.26811
3.23722
3.20742
3.17866
3.1509
3.12409
3.09819
3.07317
3.04898
3.0256
3.00299
2.98113
2.95997
2.9395
2.9197
2.90052
2.88196
2.86399
2.84659
2.82973
2.8134
2.79759
2.78226
2.76741
2.75303
2.73909
3.51947
3.47939
3.44079
3.40362
3.36782
3.33334
3.30012
3.26808
3.23719
3.20739
3.17862
3.15085
3.12403
3.09812
3.07308
3.04888
3.02547
3.00284
2.98094
2.95975
2.93924
2.91938
2.90015
2.88153
2.86349
2.84602
2.82908
2.81267
2.79677
2.78135
2.7664
2.75191
2.73786
3.51947
3.47939
3.44078
3.40361
3.36782
3.33333
3.3001
3.26806
3.23717
3.20736
3.17859
3.15081
3.12399
3.09807
3.07302
3.04881
3.0254
3.00275
2.98084
2.95964
2.93911
2.91924
2.89999
2.88135
2.86329
2.84578
2.82882
2.81238
2.79644
2.78098
2.76599
2.75146
2.73735
3.51947
3.47939
3.44078
3.40361
3.36781
3.33332
3.30009
3.26805
3.23715
3.20733
3.17856
3.15078
3.12395
3.09803
3.07298
3.04876
3.02534
3.00269
2.98077
2.95956
2.93903
2.91915
2.89989
2.88124
2.86317
2.84566
2.82868
2.81222
2.79627
2.78079
2.76578
2.75123
2.7371
3.51947
3.47939
3.44078
3.4036
3.3678
3.33331
3.30008
3.26803
3.23713
3.20731
3.17853
3.15075
3.12391
3.09799
3.07293
3.04871
3.02529
3.00263
2.98071
2.9595
2.93896
2.91907
2.89981
2.88116
2.86308
2.84556
2.82857
2.81211
2.79614
2.78066
2.76564
2.75107
2.73693
3.51947
3.47939
3.44078
3.4036
3.3678
3.33331
3.30007
3.26802
3.23711
3.20729
3.17851
3.15072
3.12388
3.09795
3.07289
3.04867
3.02524
3.00258
2.98066
2.95944
2.9389
2.91901
2.89974
2.88108
2.86299
2.84547
2.82848
2.81201
2.79604
2.78054
2.76552
2.75094
2.73679
3.51947
3.47939
3.44077
3.4036
3.36779
3.3333
3.30006
3.26801
3.2371
3.20727
3.17849
3.1507
3.12385
3.09792
3.07286
3.04863
3.0252
3.00254
2.98061
2.95938
2.93884
2.91894
2.89967
2.88101
2.86292
2.84539
2.82839
2.81191
2.79593
2.78043
2.7654
2.75081
2.73665
3.51947
3.47938
3.44077
3.40359
3.36779
3.33329
3.30005
3.268
3.23708
3.20726
3.17847
3.15067
3.12383
3.09789
3.07283
3.04859
3.02516
3.00249
2.98056
2.95933
2.93878
2.91888
2.89961
2.88094
2.86284
2.84531
2.8283
2.81182
2.79583
2.78033
2.76529
2.75069
2.73652
3.51947
3.47938
3.44077
3.40359
3.36779
3.33329
3.30004
3.26799
3.23707
3.20724
3.17845
3.15066
3.12381
3.09787
3.0728
3.04856
3.02513
3.00245
2.98052
2.95929
2.93873
2.91883
2.89955
2.88087
2.86277
2.84523
2.82822
2.81173
2.79574
2.78023
2.76518
2.75057
2.73639
3.51947
3.47938
3.44077
3.40359
3.36778
3.33329
3.30004
3.26798
3.23706
3.20723
3.17844
3.15064
3.12379
3.09784
3.07277
3.04853
3.02509
3.00242
2.98048
2.95924
2.93868
2.91877
2.89949
2.88081
2.8627
2.84516
2.82814
2.81165
2.79565
2.78013
2.76507
2.75046
2.73627
3.51947
3.47938
3.44077
3.40359
3.36778
3.33328
3.30003
3.26798
3.23706
3.20722
3.17843
3.15062
3.12377
3.09782
3.07275
3.04851
3.02506
3.00238
2.98044
2.9592
2.93864
2.91873
2.89944
2.88075
2.86264
2.84509
2.82807
2.81157
2.79556
2.78003
2.76497
2.75035
2.73615
3.51947
3.47938
3.44077
3.40359
3.36778
3.33328
3.30003
3.26797
3.23705
3.20721
3.17842
3.15061
3.12375
3.09781
3.07273
3.04848
3.02504
3.00235
2.98041
2.95916
2.9386
2.91868
2.89939
2.88069
2.86258
2.84502
2.828
2.81149
2.79548
2.77994
2.76487
2.75024
2.73604
3.51947
3.47938
3.44077
3.40359
3.36778
3.33328
3.30003
3.26797
3.23704
3.20721
3.17841
3.1506
3.12374
3.09779
3.07271
3.04846
3.02501
3.00233
2.98038
2.95913
2.93856
2.91864
2.89934
2.88065
2.86253
2.84496
2.82793
2.81142
2.7954
2.77986
2.76478
2.75014
2.73594
3.51947
3.47938
3.44077
3.40359
3.36778
3.33328
3.30002
3.26796
3.23704
3.2072
3.1784
3.15059
3.12373
3.09778
3.07269
3.04844
3.02499
3.0023
2.98035
2.9591
2.93852
2.9186
2.8993
2.8806
2.86247
2.8449
2.82787
2.81135
2.79533
2.77978
2.76469
2.75005
2.73583
3.51947
3.47938
3.44077
3.40359
3.36778
3.33328
3.30002
3.26796
3.23704
3.2072
3.17839
3.15058
3.12372
3.09777
3.07268
3.04843
3.02498
3.00228
2.98033
2.95907
2.9385
2.91857
2.89926
2.88056
2.86243
2.84486
2.82782
2.81129
2.79526
2.77971
2.76462
2.74997
2.73574
3.51947
3.47938
3.44077
3.40359
3.36778
3.33327
3.30002
3.26796
3.23703
3.20719
3.17838
3.15057
3.12371
3.09775
3.07267
3.04841
3.02496
3.00226
2.9803
2.95905
2.93847
2.91854
2.89923
2.88052
2.86239
2.84481
2.82776
2.81123
2.7952
2.77964
2.76454
2.74989
2.73566
3.51947
3.47938
3.44077
3.40359
3.36778
3.33328
3.30003
3.26796
3.23704
3.2072
3.1784
3.15058
3.12372
3.09776
3.07268
3.04842
3.02496
3.00226
2.9803
2.95904
2.93846
2.91852
2.89921
2.8805
2.86236
2.84478
2.82773
2.8112
2.79516
2.7796
2.76449
2.74983
2.7356
3.51947
3.47939
3.44077
3.40359
3.36778
3.33328
3.30002
3.26796
3.23703
3.20719
3.17838
3.15057
3.12371
3.09775
3.07266
3.0484
3.02494
3.00225
2.98029
2.95903
2.93844
2.91851
2.8992
2.88048
2.86234
2.84476
2.82771
2.81118
2.79513
2.77957
2.76447
2.7498
2.73557
3.51947
3.47938
3.44077
3.40359
3.36779
3.3333
3.30005
3.268
3.23708
3.20724
3.17844
3.15063
3.12377
3.09781
3.07273
3.04847
3.02501
3.00231
2.98035
2.95909
2.93851
2.91857
2.89926
2.88055
2.86242
2.84484
2.82779
2.81126
2.79523
2.77967
2.76457
2.74992
2.73569
3.51948
3.4794
3.44079
3.40362
3.36782
3.33332
3.30007
3.26801
3.23708
3.20725
3.17845
3.15064
3.12379
3.09784
3.07277
3.04853
3.02508
3.00241
2.98047
2.95924
2.93868
2.91878
2.89951
2.88083
2.86274
2.8452
2.82821
2.81173
2.79574
2.78024
2.7652
2.75061
2.73645
3.51947
3.47939
3.44079
3.40365
3.36789
3.33343
3.30023
3.26821
3.23733
3.20753
3.17877
3.15102
3.12421
3.09833
3.07332
3.04916
3.02581
3.00324
2.98142
2.96033
2.93992
2.92018
2.90107
2.88259
2.86469
2.84737
2.83059
2.81434
2.7986
2.78334
2.76856
2.75423
2.74033
3.51949
3.47947
3.44095
3.40385
3.36811
3.33369
3.30054
3.26862
3.23789
3.2083
3.1798
3.15236
3.12593
3.10048
3.07597
3.05235
3.0296
3.00768
2.98656
2.9662
2.94656
2.92763
2.90937
2.89175
2.87475
2.85834
2.84249
2.82718
2.8124
2.79811
2.78429
2.77093
2.75801
3.5195
3.47952
3.44117
3.40446
3.36933
3.33572
3.30359
3.2729
3.24361
3.21569
3.18909
3.16376
3.13963
3.11667
3.0948
3.07397
3.05412
3.0352
3.01715
2.99993
2.98348
2.96775
2.95271
2.93832
2.92453
2.91131
2.89862
2.88644
2.87474
2.86348
2.85265
2.84221
2.83215
3.51969
3.48122
3.44561
3.41286
3.38295
3.35586
3.33147
3.30961
3.29006
3.27261
3.25704
3.24316
3.23076
3.21968
3.20976
3.20086
3.19284
3.18561
3.17905
3.17308
3.16762
3.1626
3.15797
3.15367
3.14966
3.14589
3.14233
3.13896
3.13573
3.13264
3.12965
3.12676
3.12394
3.52527
3.51368
3.51617
3.52942
3.55063
3.57777
3.60923
3.64372
3.68029
3.7182
3.75686
3.79581
3.8347
3.87326
3.91127
3.94856
3.98502
4.02056
4.0551
4.08862
4.12109
4.15248
4.1828
4.21206
4.24027
4.26744
4.29361
4.31878
4.343
4.36629
4.38869
4.41022
4.43092
3.83318
4.3651
4.8492
5.31429
5.77484
6.22627
6.66425
7.08696
7.49403
7.88586
8.26321
8.627
8.97811
9.3174
9.6456
9.96339
10.2714
10.57
10.8598
11.1411
11.4144
11.6798
11.9379
12.1887
12.4326
12.6699
12.9007
13.1253
13.344
13.5569
13.7642
13.9662
14.163
30.2663
32.7713
35.3126
37.865
40.4148
42.9529
45.4712
47.9622
50.4189
52.8351
55.2052
57.5244
59.7887
61.9945
64.1392
66.2206
68.2369
70.1871
72.0704
73.8867
75.6359
77.3185
78.9352
80.4868
81.9745
83.3995
84.7633
86.0675
87.3136
88.5034
89.6387
90.7209
91.7532
84.4894
233.464
410.627
575.999
703.481
782.757
816.726
815.668
791.312
753.929
710.999
667.264
625.351
586.465
550.965
518.77
489.621
463.218
439.283
417.57
397.854
379.925
363.575
348.599
334.795
321.967
309.933
298.531
287.615
277.061
266.768
256.652
246.646
236.705
226.796
216.909
207.046
197.224
187.474
177.834
168.349
159.065
150.028
141.279
132.851
124.767
117.04
109.67
102.645
95.9396
89.5201
83.3443
77.3654
71.535
65.8073
60.1434
54.5153
48.91
43.3343
37.8176
32.4151
27.2082
22.3015
17.815
13.8682
10.5569
7.92822
5.96235
4.57635
3.64939
3.05621
2.69079
2.47427
2.35234
2.28905
2.2611
2.2536
2.25717
2.26605
2.27682
2.28758
2.29746
2.30621
2.31399
2.32122
2.32841
2.33607
2.34465
2.35446
2.36563
2.37806
2.39148
2.4054
2.41924
2.43232
2.44395
2.45355
2.46038
2.46503
2.46392
19.2104
27.8014
43.8969
68.2354
100.201
138.023
179.187
220.84
260.154
294.735
322.852
343.559
356.728
362.934
363.243
358.952
351.361
341.611
330.607
319.006
307.248
295.603
284.223
273.179
262.492
252.149
242.119
232.363
222.839
213.507
204.331
195.282
186.337
177.481
168.711
160.031
151.459
143.019
134.746
126.678
118.855
111.315
104.094
97.2178
90.7057
84.5658
78.7958
73.3822
68.3012
63.5204
58.9999
54.695
50.5593
46.5476
42.6192
38.7421
34.8959
31.076
27.2955
23.5878
20.0062
16.6213
13.5139
10.764
8.43489
6.55796
5.12288
4.08059
3.35808
2.87734
2.56947
2.38043
2.27075
2.21266
2.18708
2.18108
2.18611
2.19658
2.20899
2.22127
2.23228
2.24157
2.24913
2.25523
2.26033
2.26497
2.26972
2.27507
2.2814
2.28894
2.29775
2.30766
2.31835
2.32934
2.34006
2.34988
2.35824
2.36445
2.36889
2.36869
9.43097
9.78964
10.7484
12.6712
15.8194
20.3749
26.3677
33.8791
43.0078
53.7589
65.9668
79.2811
93.1884
107.069
120.274
132.206
142.394
150.53
156.49
160.315
162.177
162.327
161.051
158.631
155.319
151.321
146.8
141.882
136.663
131.216
125.6
119.865
114.053
108.201
102.344
96.5192
90.762
85.1109
79.6048
74.2816
69.1763
64.319
59.7329
55.4338
51.4286
47.7156
44.2849
41.1186
38.1921
35.4754
32.9346
30.5339
28.2374
26.0117
23.8283
21.6663
19.5146
17.3744
15.2601
13.1997
11.2323
9.40414
7.76163
6.3426
5.16848
4.23966
3.53667
3.0264
2.67042
2.43192
2.27942
2.18791
2.13834
2.11661
2.11254
2.11889
2.1307
2.14462
2.15848
2.17102
2.18155
2.18987
2.19608
2.2005
2.20359
2.2059
2.20798
2.21035
2.21344
2.21755
2.22283
2.22927
2.23664
2.2446
2.25269
2.26035
2.26708
2.27222
2.27603
2.27607
5.97852
6.06101
6.17125
6.35999
6.6844
7.19783
7.94006
8.94517
10.2355
11.8339
13.7747
16.0911
18.807
21.9278
25.432
29.265
33.3361
37.522
41.6757
45.6414
49.2701
52.4351
55.0422
57.034
58.389
59.1155
59.2453
58.8269
57.9199
56.5905
54.907
52.9365
50.7422
48.3818
45.9074
43.3661
40.8008
38.2505
35.7503
33.331
31.0184
28.8327
26.7881
24.8926
23.1487
21.5532
20.0983
18.7723
17.5602
16.4446
15.4064
14.426
13.4839
12.5624
11.6469
10.7267
9.79741
8.86113
7.92727
7.0119
6.13593
5.32219
4.59169
3.95997
3.43462
3.01474
2.69227
2.45452
2.28687
2.1748
2.10513
2.06665
2.05017
2.04848
2.05607
2.06883
2.08382
2.09898
2.11297
2.12497
2.13457
2.14169
2.14649
2.14929
2.15053
2.15073
2.15041
2.1501
2.15023
2.15117
2.15313
2.15619
2.16027
2.16513
2.17041
2.17566
2.18043
2.18412
2.18693
2.18653
4.39503
4.43085
4.46757
4.51042
4.56774
4.65057
4.77032
4.93813
5.16106
5.44367
5.79067
6.20643
6.69462
7.25784
7.89705
8.6109
9.39504
10.2413
11.137
12.0648
13.0027
13.9252
14.8047
15.6129
16.3234
16.9128
17.3624
17.6595
17.7982
17.7797
17.612
17.3085
16.8866
16.366
15.7672
15.1106
14.416
13.7015
12.9838
12.2773
11.5939
10.9427
10.3305
9.76105
9.23609
8.75515
8.31604
7.91512
7.54756
7.20757
6.88865
6.58382
6.28599
5.98838
5.68512
5.37186
5.04648
4.70959
4.36483
4.01869
3.67984
3.35799
3.06245
2.80081
2.57797
2.3958
2.25331
2.14733
2.07321
2.02562
1.99913
1.98862
1.9896
1.99827
2.01157
2.02709
2.04303
2.05809
2.07136
2.08232
2.09072
2.09652
2.0999
2.10116
2.10071
2.09902
2.09658
2.09388
2.09137
2.08943
2.08833
2.08821
2.08911
2.09088
2.09328
2.09595
2.09852
2.10044
2.10193
2.1005
3.61857
3.63128
3.64404
3.65729
3.67202
3.69004
3.71397
3.74685
3.79136
3.84981
3.92397
4.01503
4.12367
4.25002
4.39367
4.55366
4.72846
4.91593
5.11327
5.31705
5.5232
5.72709
5.92372
6.10787
6.2743
6.41795
6.53419
6.61915
6.66993
6.68498
6.66417
6.60882
6.52151
6.40583
6.26603
6.10676
5.93284
5.74899
5.55971
5.36909
5.18069
4.99744
4.8216
4.65478
4.49796
4.35151
4.2153
4.08872
3.97077
3.86003
3.75479
3.65303
3.55256
3.4511
3.34653
3.23706
3.12155
2.9998
2.87268
2.74227
2.61165
2.48465
2.36531
2.25738
2.16383
2.08654
2.02621
1.98236
1.95364
1.93803
1.93318
1.93666
1.94614
1.95953
1.97502
1.99114
2.0067
2.02084
2.03291
2.04255
2.04958
2.05401
2.05599
2.05581
2.05381
2.05044
2.04613
2.04134
2.0365
2.03198
2.0281
2.02506
2.02296
2.02174
2.02127
2.02128
2.0215
2.0214
2.02132
2.01833
3.20807
3.20859
3.20917
3.20986
3.21073
3.21203
3.21421
3.21793
3.22394
3.23306
3.24607
3.26359
3.28608
3.31375
3.34659
3.38435
3.42653
3.47243
3.52111
3.57147
3.62224
3.67206
3.71947
3.76303
3.80129
3.83289
3.85662
3.87139
3.8764
3.87112
3.85536
3.8293
3.79347
3.7487
3.69602
3.63664
3.57187
3.50305
3.4315
3.35848
3.28512
3.21243
3.14124
3.0722
3.00577
2.94225
2.88175
2.82424
2.76954
2.71731
2.66712
2.61841
2.57052
2.52274
2.47437
2.42476
2.37345
2.32028
2.26544
2.20961
2.15389
2.09976
2.04892
2.00308
1.96374
1.93201
1.90849
1.89322
1.88575
1.88521
1.89046
1.90023
1.91319
1.92809
1.94378
1.95926
1.97371
1.98647
1.99708
2.00526
2.01086
2.0139
2.01453
2.01299
2.00959
2.00471
1.99876
1.99214
1.98526
1.97849
1.97214
1.96646
1.96158
1.95754
1.9543
1.95166
1.94944
1.94717
1.94533
1.94033
2.98174
2.97525
2.96881
2.96243
2.9561
2.94986
2.94377
2.93795
2.93255
2.9278
2.92392
2.92114
2.91967
2.91965
2.92117
2.92424
2.92877
2.93458
2.94139
2.94884
2.95651
2.96392
2.97054
2.97586
2.97935
2.98052
2.97892
2.97416
2.96593
2.954
2.93826
2.91872
2.89549
2.86881
2.83899
2.80643
2.77157
2.73485
2.69675
2.65772
2.6182
2.57855
2.53914
2.50023
2.46205
2.42475
2.38845
2.35318
2.31894
2.2857
2.25335
2.22179
2.19087
2.16042
2.13027
2.10029
2.0704
2.0406
2.01104
1.98204
1.95408
1.92781
1.90397
1.88333
1.86659
1.8543
1.84676
1.844
1.8458
1.85168
1.86099
1.87293
1.88666
1.90134
1.91614
1.93033
1.94328
1.95446
1.9635
1.97016
1.97433
1.97602
1.97535
1.97254
1.96785
1.96163
1.95423
1.94602
1.93738
1.92864
1.92013
1.91209
1.9047
1.89807
1.8922
1.887
1.88234
1.87782
1.8741
1.86675
2.85596
2.84509
2.83431
2.8236
2.81294
2.80234
2.79179
2.78131
2.77093
2.76068
2.75064
2.74084
2.73136
2.72223
2.71352
2.70522
2.69735
2.68986
2.68269
2.67573
2.66886
2.66191
2.6547
2.64703
2.6387
2.62952
2.6193
2.60789
2.59514
2.58094
2.56523
2.54797
2.5292
2.50896
2.48737
2.46457
2.44071
2.41595
2.39048
2.36447
2.33808
2.31146
2.28476
2.2581
2.23157
2.20525
2.17921
2.1535
2.12814
2.10317
2.0786
2.05446
2.03076
2.00754
1.98483
1.96268
1.94119
1.92047
1.9007
1.88211
1.86501
1.84973
1.83666
1.82618
1.81863
1.81426
1.81317
1.81536
1.82063
1.82864
1.83894
1.85095
1.86407
1.87764
1.89101
1.9036
1.91488
1.9244
1.93186
1.93702
1.9398
1.94019
1.9383
1.93431
1.92845
1.92102
1.91235
1.90276
1.89259
1.88216
1.87176
1.86166
1.85205
1.84307
1.83478
1.82714
1.82013
1.81336
1.80772
1.79778
2.78755
2.77382
2.76019
2.74662
2.73312
2.71969
2.70632
2.693
2.67976
2.6666
2.65351
2.64052
2.62763
2.61485
2.60217
2.58961
2.57715
2.56479
2.55251
2.54027
2.52805
2.51578
2.5034
2.49086
2.47807
2.46496
2.45147
2.43753
2.42308
2.40807
2.39245
2.37621
2.35935
2.34187
2.32381
2.30522
2.28614
2.26664
2.24678
2.22661
2.20619
2.18559
2.16484
2.14398
2.12307
2.10214
2.08121
2.06032
2.03952
2.01884
1.99833
1.97806
1.9581
1.93853
1.91947
1.90104
1.88338
1.86665
1.85106
1.8368
1.82412
1.81325
1.80443
1.79789
1.79381
1.7923
1.79341
1.79705
1.80307
1.81118
1.82101
1.83209
1.84393
1.85598
1.86769
1.87857
1.88815
1.89604
1.90195
1.90568
1.90712
1.90629
1.90325
1.89817
1.89124
1.88274
1.87294
1.86215
1.85066
1.83877
1.82676
1.81488
1.80332
1.79226
1.78178
1.77191
1.76266
1.75371
1.74616
1.73349
2.75198
2.7364
2.72089
2.70546
2.6901
2.67481
2.65958
2.64443
2.62935
2.61434
2.59942
2.58458
2.56982
2.55514
2.54054
2.526
2.51153
2.4971
2.48271
2.46835
2.45399
2.43963
2.42523
2.41078
2.39626
2.38163
2.36687
2.35197
2.3369
2.32163
2.30615
2.29044
2.27451
2.25833
2.24193
2.22532
2.2085
2.19149
2.1743
2.15696
2.13946
2.12181
2.10403
2.08612
2.0681
2.04997
2.03176
2.01348
1.99518
1.97688
1.95866
1.94057
1.92271
1.90519
1.88812
1.87164
1.85592
1.84113
1.82745
1.81509
1.80423
1.79509
1.78784
1.78264
1.7796
1.7788
1.78023
1.78381
1.78937
1.79667
1.80537
1.81509
1.82537
1.83576
1.84576
1.85493
1.86284
1.86916
1.87359
1.87596
1.87616
1.87418
1.87009
1.864
1.85611
1.84664
1.83585
1.82401
1.81139
1.79825
1.78487
1.77145
1.75822
1.74534
1.73293
1.72104
1.70974
1.69872
1.68935
1.67392
2.73461
2.71787
2.7012
2.68459
2.66804
2.65156
2.63514
2.61878
2.6025
2.58631
2.5702
2.55418
2.53825
2.52241
2.50667
2.49101
2.47543
2.45992
2.44447
2.42908
2.41373
2.39842
2.38314
2.36788
2.35262
2.33737
2.32211
2.30684
2.29154
2.27621
2.26084
2.24543
2.22996
2.21443
2.19884
2.18318
2.16745
2.15166
2.13578
2.11983
2.10377
2.08762
2.07135
2.05497
2.03846
2.02182
2.00508
1.98824
1.97133
1.95439
1.93748
1.92066
1.90403
1.88769
1.87175
1.85637
1.84169
1.82788
1.81512
1.80359
1.79346
1.78492
1.77811
1.77316
1.77016
1.76916
1.77013
1.773
1.7776
1.78372
1.79106
1.79926
1.80792
1.81663
1.82495
1.83246
1.83879
1.84361
1.84666
1.84776
1.8468
1.84376
1.83869
1.83169
1.82293
1.8126
1.80094
1.78819
1.77459
1.7604
1.74584
1.73113
1.71647
1.70203
1.68793
1.67426
1.66112
1.6482
1.63713
1.619
2.7267
2.70931
2.69196
2.67466
2.65741
2.6402
2.62305
2.60596
2.58893
2.57198
2.55511
2.53834
2.52165
2.50507
2.48859
2.4722
2.45592
2.43974
2.42364
2.40764
2.39171
2.37587
2.3601
2.34439
2.32875
2.31317
2.29765
2.28219
2.26678
2.25141
2.23609
2.2208
2.20554
2.19031
2.17509
2.15988
2.14467
2.12945
2.11421
2.09892
2.08358
2.06817
2.05266
2.03706
2.02134
2.0055
1.98955
1.9735
1.95738
1.94122
1.92508
1.90901
1.8931
1.87746
1.86219
1.84744
1.83333
1.82003
1.8077
1.79651
1.78662
1.77817
1.77132
1.76617
1.76279
1.76122
1.76144
1.76335
1.76683
1.77165
1.77756
1.78423
1.7913
1.79839
1.80509
1.81104
1.81587
1.81929
1.82104
1.82096
1.81893
1.81491
1.80895
1.80113
1.79159
1.7805
1.76808
1.75454
1.74011
1.72501
1.70946
1.69366
1.6778
1.66203
1.64649
1.63128
1.61652
1.60189
1.58928
1.5686
2.72334
2.70561
2.68791
2.67023
2.65258
2.63498
2.61741
2.59989
2.58242
2.56502
2.5477
2.53045
2.51329
2.49623
2.47927
2.46241
2.44566
2.42902
2.41249
2.39606
2.37974
2.36352
2.34741
2.3314
2.31548
2.29967
2.28395
2.26832
2.25279
2.23735
2.22199
2.20671
2.1915
2.17636
2.16128
2.14625
2.13125
2.11627
2.1013
2.08632
2.0713
2.05623
2.0411
2.02588
2.01057
1.99515
1.97963
1.96403
1.94836
1.93265
1.91696
1.90134
1.88588
1.87066
1.85579
1.84139
1.8276
1.81456
1.80242
1.79133
1.78143
1.77287
1.76577
1.76023
1.75631
1.75404
1.75339
1.75429
1.7566
1.76014
1.76465
1.76984
1.77538
1.78092
1.7861
1.79057
1.794
1.7961
1.79665
1.79547
1.79245
1.78755
1.78078
1.77222
1.76198
1.75023
1.73714
1.72292
1.70778
1.69192
1.67554
1.65882
1.64195
1.62507
1.60832
1.5918
1.57565
1.55951
1.54555
1.52251
2.72198
2.70409
2.6862
2.66834
2.65049
2.63267
2.61488
2.59713
2.57942
2.56177
2.54417
2.52665
2.5092
2.49185
2.47458
2.45741
2.44035
2.4234
2.40656
2.38983
2.37322
2.35672
2.34034
2.32408
2.30794
2.29191
2.276
2.26021
2.24453
2.22897
2.21351
2.19816
2.18291
2.16774
2.15266
2.13765
2.12269
2.10777
2.09289
2.07801
2.06311
2.04819
2.03322
2.01818
2.00306
1.98786
1.97258
1.95722
1.94182
1.92638
1.91097
1.89563
1.88045
1.86549
1.85087
1.83669
1.82307
1.81015
1.79806
1.78695
1.77694
1.76816
1.76073
1.75472
1.7502
1.7472
1.74567
1.74556
1.74673
1.74902
1.75219
1.75597
1.76007
1.76416
1.76791
1.77099
1.77311
1.77399
1.77342
1.77123
1.7673
1.76158
1.75408
1.74485
1.734
1.72167
1.70801
1.69321
1.67747
1.66096
1.64389
1.62642
1.60871
1.59091
1.57315
1.55552
1.53819
1.52078
1.50564
1.4805
2.72142
2.70344
2.68547
2.66751
2.64957
2.63164
2.61374
2.59587
2.57803
2.56023
2.54249
2.5248
2.50718
2.48964
2.47218
2.45482
2.43755
2.42038
2.40332
2.38638
2.36954
2.35283
2.33624
2.31977
2.30343
2.28721
2.27112
2.25516
2.23932
2.22361
2.20802
2.19255
2.17719
2.16193
2.14677
2.13169
2.11669
2.10174
2.08683
2.07195
2.05707
2.04218
2.02726
2.01229
1.99726
1.98217
1.96702
1.9518
1.93655
1.92129
1.90606
1.8909
1.8759
1.86111
1.84665
1.83259
1.81907
1.8062
1.7941
1.7829
1.77272
1.76368
1.75587
1.74938
1.74426
1.74052
1.73814
1.73705
1.73714
1.73824
1.74014
1.7426
1.74534
1.74806
1.75046
1.75225
1.75314
1.75289
1.75128
1.74815
1.74339
1.73693
1.72877
1.71896
1.70757
1.69472
1.68057
1.66529
1.64904
1.632
1.61436
1.59626
1.57787
1.55931
1.54073
1.52219
1.50388
1.48538
1.46926
1.44229
2.72113
2.70312
2.68511
2.6671
2.64911
2.63113
2.61316
2.59522
2.5773
2.55943
2.54159
2.52381
2.50609
2.48843
2.47084
2.45334
2.43593
2.41861
2.40139
2.38428
2.36728
2.3504
2.33363
2.31699
2.30047
2.28408
2.26782
2.2517
2.2357
2.21983
2.20409
2.18848
2.17299
2.15761
2.14233
2.12715
2.11205
2.09702
2.08204
2.0671
2.05218
2.03727
2.02234
2.00738
1.99238
1.97734
1.96225
1.94712
1.93197
1.91682
1.9017
1.88668
1.8718
1.85713
1.84276
1.82879
1.81531
1.80244
1.79029
1.77897
1.7686
1.75927
1.75109
1.74412
1.7384
1.73396
1.73076
1.72874
1.72779
1.72777
1.72847
1.72969
1.73115
1.73259
1.73374
1.73432
1.73407
1.73276
1.73018
1.72619
1.72066
1.71353
1.70478
1.69444
1.68258
1.6693
1.65474
1.63905
1.62238
1.60491
1.5868
1.5682
1.54925
1.53008
1.51082
1.49154
1.47244
1.45305
1.43611
1.40759
2.72095
2.70291
2.68487
2.66684
2.64881
2.63079
2.61279
2.5948
2.57684
2.55891
2.54102
2.52317
2.50537
2.48764
2.46996
2.45236
2.43484
2.41741
2.40007
2.38283
2.36569
2.34867
2.33176
2.31496
2.2983
2.28175
2.26534
2.24905
2.2329
2.21688
2.201
2.18523
2.1696
2.15408
2.13867
2.12337
2.10815
2.09302
2.07795
2.06293
2.04794
2.03297
2.018
2.00302
1.98802
1.973
1.95794
1.94286
1.92777
1.9127
1.89767
1.88273
1.86794
1.85336
1.83906
1.82513
1.81167
1.79877
1.78654
1.77509
1.76451
1.7549
1.74634
1.73889
1.73261
1.72748
1.7235
1.7206
1.71868
1.7176
1.71718
1.71722
1.71749
1.71774
1.71771
1.71716
1.71584
1.71355
1.71008
1.70529
1.69906
1.69132
1.68204
1.67124
1.65897
1.64533
1.63042
1.6144
1.5974
1.57958
1.56109
1.54209
1.52269
1.50304
1.48324
1.46337
1.44362
1.42351
1.40592
1.37611
2.72079
2.70274
2.68468
2.66662
2.64857
2.63053
2.61249
2.59448
2.57648
2.55851
2.54057
2.52267
2.50482
2.48701
2.46927
2.45159
2.43398
2.41646
2.39902
2.38167
2.36442
2.34727
2.33023
2.31331
2.29651
2.27982
2.26327
2.24684
2.23054
2.21438
2.19834
2.18244
2.16666
2.151
2.13546
2.12003
2.10469
2.08945
2.07427
2.05916
2.04409
2.02905
2.01403
1.99902
1.984
1.96896
1.95392
1.93887
1.92382
1.9088
1.89384
1.87897
1.86424
1.84971
1.83546
1.82156
1.80809
1.79515
1.78283
1.77123
1.76044
1.75054
1.74161
1.73371
1.72687
1.72111
1.71638
1.71265
1.70981
1.70773
1.70626
1.7052
1.70434
1.70347
1.70234
1.70073
1.69843
1.69521
1.69092
1.68539
1.67852
1.67023
1.66048
1.64928
1.63666
1.62272
1.60754
1.59125
1.574
1.55591
1.53714
1.51781
1.49808
1.47804
1.45782
1.43748
1.41723
1.39654
1.37843
1.34759
2.72064
2.70257
2.6845
2.66643
2.64835
2.63029
2.61223
2.59418
2.57615
2.55815
2.54017
2.52223
2.50432
2.48646
2.46866
2.45091
2.43323
2.41562
2.39809
2.38065
2.3633
2.34605
2.32889
2.31185
2.29493
2.27812
2.26143
2.24487
2.22844
2.21213
2.19596
2.17992
2.164
2.14821
2.13254
2.11698
2.10152
2.08616
2.07087
2.05566
2.04051
2.0254
2.01032
1.99526
1.98021
1.96516
1.95012
1.93508
1.92006
1.90508
1.89016
1.87533
1.86065
1.84617
1.83194
1.81805
1.80456
1.79156
1.77914
1.76739
1.75638
1.7462
1.73692
1.72858
1.72121
1.71483
1.7094
1.70488
1.70117
1.69816
1.69569
1.6936
1.6917
1.68977
1.68762
1.68503
1.68179
1.67773
1.67267
1.66646
1.659
1.65021
1.64004
1.62849
1.61559
1.60141
1.58602
1.56954
1.55209
1.53381
1.51483
1.49528
1.47529
1.45497
1.43442
1.41373
1.39308
1.37195
1.35344
1.32177
2.7205
2.70242
2.68433
2.66624
2.64814
2.63006
2.61197
2.5939
2.57584
2.55781
2.53979
2.52181
2.50386
2.48595
2.46809
2.45028
2.43253
2.41485
2.39724
2.37971
2.36227
2.34492
2.32767
2.31052
2.29348
2.27655
2.25974
2.24305
2.22649
2.21006
2.19376
2.17758
2.16154
2.14562
2.12982
2.11413
2.09856
2.08308
2.06769
2.05239
2.03715
2.02196
2.00682
1.99171
1.97662
1.96155
1.9465
1.93147
1.91646
1.90151
1.88662
1.87183
1.85718
1.84272
1.8285
1.8146
1.80108
1.78801
1.77548
1.76357
1.75235
1.74189
1.73226
1.7235
1.71563
1.70866
1.70257
1.6973
1.69277
1.68888
1.68548
1.68243
1.67954
1.67663
1.67352
1.67001
1.66591
1.66105
1.65527
1.64844
1.64044
1.6312
1.62066
1.60882
1.59569
1.58132
1.56579
1.54919
1.53162
1.51322
1.49411
1.47441
1.45424
1.43372
1.41295
1.39199
1.37105
1.34958
1.33077
1.29848
2.72036
2.70227
2.68416
2.66605
2.64794
2.62983
2.61173
2.59363
2.57555
2.55748
2.53943
2.52141
2.50342
2.48546
2.46755
2.44968
2.43188
2.41413
2.39644
2.37884
2.36131
2.34387
2.32652
2.30927
2.29212
2.27509
2.25817
2.24136
2.22468
2.20813
2.1917
2.1754
2.15923
2.14319
2.12727
2.11146
2.09577
2.08019
2.0647
2.0493
2.03397
2.01871
2.00351
1.98834
1.97322
1.95812
1.94305
1.92802
1.91302
1.89808
1.8832
1.86844
1.85381
1.83936
1.82514
1.81122
1.79765
1.78451
1.77186
1.75979
1.74835
1.73762
1.72765
1.71848
1.71013
1.70261
1.69589
1.68992
1.68463
1.67991
1.67564
1.67168
1.66787
1.66404
1.66003
1.65565
1.65074
1.64513
1.63868
1.63126
1.62277
1.61312
1.60226
1.59018
1.57688
1.56239
1.54678
1.53012
1.51252
1.49408
1.47491
1.45514
1.43488
1.41423
1.39331
1.37218
1.35104
1.32933
1.31031
1.27755
2.72023
2.70212
2.684
2.66588
2.64775
2.62962
2.61149
2.59337
2.57526
2.55716
2.53908
2.52103
2.50299
2.485
2.46704
2.44912
2.43125
2.41344
2.39569
2.37801
2.36041
2.34288
2.32544
2.3081
2.29086
2.27372
2.25669
2.23978
2.22299
2.20632
2.18978
2.17336
2.15707
2.14091
2.12487
2.10896
2.09316
2.07747
2.06188
2.04639
2.03098
2.01565
2.00038
1.98516
1.96999
1.95486
1.93978
1.92473
1.90973
1.89479
1.87993
1.86517
1.85055
1.8361
1.82187
1.80791
1.79429
1.78106
1.76829
1.75606
1.74441
1.73341
1.72311
1.71355
1.70475
1.6967
1.68938
1.68276
1.67674
1.67125
1.66617
1.66136
1.65669
1.652
1.64713
1.64193
1.63624
1.62992
1.62282
1.61485
1.60589
1.59587
1.58473
1.57246
1.55904
1.54451
1.52889
1.51226
1.4947
1.4763
1.45717
1.43742
1.41715
1.39647
1.37549
1.35426
1.333
1.31114
1.29198
1.25889
2.7201
2.70198
2.68385
2.66571
2.64756
2.62941
2.61127
2.59312
2.57499
2.55686
2.53875
2.52066
2.50259
2.48455
2.46655
2.44858
2.43066
2.41279
2.39498
2.37723
2.35956
2.34195
2.32444
2.30701
2.28967
2.27244
2.25531
2.2383
2.2214
2.20463
2.18797
2.17145
2.15505
2.13878
2.12263
2.10661
2.0907
2.07492
2.05923
2.04365
2.02816
2.01276
1.99742
1.98215
1.96694
1.95178
1.93666
1.9216
1.9066
1.89165
1.87679
1.86203
1.84741
1.83294
1.81869
1.80469
1.79101
1.77769
1.76479
1.75239
1.74053
1.72927
1.71866
1.70873
1.69949
1.69095
1.68309
1.67585
1.66916
1.66295
1.6571
1.6515
1.646
1.64048
1.63478
1.62878
1.62232
1.61529
1.60756
1.59903
1.58962
1.57926
1.5679
1.55549
1.54204
1.52753
1.51201
1.4955
1.47809
1.45984
1.44085
1.42122
1.40104
1.38042
1.35947