/*--------------------------------*- C++ -*----------------------------------*\
  =========                 |
  \\      /  F ield         | OpenFOAM: The Open Source CFD Toolbox
   \\    /   O peration     | Website:  https://openfoam.org
    \\  /    A nd           | Version:  10
     \\/     M anipulation  |
\*---------------------------------------------------------------------------*/
FoamFile
{
    format      ascii;
    class       volScalarField;
    location    "0.13";
    object      k;
}
// * * * * * * * * * * * * * * * * * * * * * * * * * * * * * * * * * * * * * //

dimensions      [0 2 -2 0 0 0 0];

internalField   nonuniform List<scalar> 
6820
(
0.196709
0.190616
0.184994
0.179725
0.174798
0.17025
0.166115
0.162408
0.159125
0.156248
0.153751
0.1516
0.149765
0.148213
0.146914
0.14584
0.144967
0.144271
0.143733
0.143333
0.143055
0.142884
0.142808
0.142814
0.142893
0.143035
0.143228
0.143489
0.143697
0.14438
0.143047
0.15132
0.114719
0.201954
0.200831
0.197543
0.193922
0.19084
0.188583
0.187152
0.186425
0.186253
0.186503
0.18707
0.187873
0.188852
0.189961
0.191167
0.192444
0.193772
0.195134
0.196517
0.197911
0.199307
0.200699
0.202082
0.203452
0.204808
0.20615
0.207482
0.208814
0.210162
0.211634
0.213023
0.215872
0.216447
0.200488
0.200475
0.199118
0.19707
0.194842
0.192691
0.190724
0.188985
0.187487
0.186229
0.185202
0.184388
0.18377
0.183328
0.183041
0.182892
0.182863
0.182939
0.183108
0.183355
0.183672
0.184047
0.184473
0.184944
0.185452
0.185993
0.186564
0.187167
0.187792
0.188476
0.18914
0.189969
0.190557
0.199661
0.199121
0.198219
0.196983
0.195545
0.194012
0.192458
0.190931
0.189463
0.188074
0.186776
0.185577
0.184478
0.183481
0.182582
0.181777
0.181061
0.180429
0.179875
0.179394
0.17898
0.178627
0.178332
0.178089
0.177894
0.177744
0.177635
0.177568
0.177538
0.177553
0.177603
0.177709
0.177853
0.199429
0.198466
0.197531
0.196513
0.195399
0.194214
0.192987
0.19174
0.190495
0.189268
0.18807
0.186909
0.185794
0.184728
0.183714
0.182754
0.181847
0.180993
0.180192
0.179441
0.178739
0.178084
0.177473
0.176905
0.176377
0.175888
0.175435
0.175019
0.174636
0.174289
0.173974
0.173692
0.173439
0.199398
0.198267
0.197202
0.196166
0.195133
0.194088
0.193029
0.191959
0.190884
0.189813
0.188751
0.187705
0.186679
0.185679
0.184705
0.183763
0.182852
0.181973
0.181129
0.180317
0.17954
0.178795
0.178083
0.177402
0.176752
0.176132
0.175542
0.17498
0.174445
0.173938
0.173458
0.173003
0.172573
0.199395
0.19822
0.197098
0.196021
0.194978
0.193957
0.192953
0.191959
0.190974
0.189998
0.189033
0.18808
0.187142
0.18622
0.185316
0.184432
0.18357
0.182729
0.181911
0.181117
0.180347
0.1796
0.178878
0.178179
0.177503
0.176851
0.176221
0.175614
0.17503
0.174467
0.173925
0.173405
0.172905
0.199395
0.198211
0.197069
0.195969
0.194908
0.193881
0.192884
0.191912
0.190962
0.19003
0.189116
0.188219
0.187338
0.186474
0.185627
0.184797
0.183985
0.18319
0.182415
0.181657
0.180919
0.1802
0.179499
0.178818
0.178155
0.177511
0.176886
0.176279
0.17569
0.175119
0.174566
0.174031
0.173513
0.199395
0.198209
0.197063
0.195955
0.194884
0.19385
0.192848
0.191877
0.190935
0.190017
0.189124
0.188252
0.187401
0.18657
0.185757
0.184963
0.184187
0.183429
0.182688
0.181965
0.181259
0.180569
0.179897
0.179241
0.178602
0.177979
0.177372
0.176781
0.176206
0.175647
0.175103
0.174575
0.174063
0.199395
0.198209
0.197061
0.195951
0.194877
0.193838
0.192833
0.19186
0.190917
0.190002
0.189114
0.188251
0.187412
0.186595
0.1858
0.185025
0.18427
0.183534
0.182816
0.182115
0.181432
0.180766
0.180116
0.179482
0.178865
0.178262
0.177675
0.177102
0.176545
0.176002
0.175473
0.174959
0.174458
0.199395
0.198209
0.197061
0.19595
0.194875
0.193834
0.192827
0.191852
0.190908
0.189992
0.189105
0.188244
0.187408
0.186597
0.185808
0.185042
0.184296
0.183571
0.182865
0.182177
0.181508
0.180856
0.180221
0.179602
0.178999
0.178412
0.177839
0.177282
0.176738
0.176209
0.175694
0.175193
0.174705
0.199395
0.198209
0.19706
0.195949
0.194874
0.193833
0.192825
0.191849
0.190903
0.189987
0.189099
0.188238
0.187403
0.186593
0.185806
0.185042
0.1843
0.183579
0.182879
0.182197
0.181535
0.18089
0.180263
0.179653
0.179059
0.17848
0.177917
0.177369
0.176836
0.176316
0.175811
0.175319
0.17484
0.199395
0.198209
0.19706
0.195949
0.194873
0.193832
0.192824
0.191847
0.190901
0.189985
0.189096
0.188235
0.187399
0.186589
0.185803
0.185039
0.184298
0.183579
0.18288
0.182201
0.181541
0.1809
0.180276
0.17967
0.17908
0.178506
0.177948
0.177406
0.176877
0.176363
0.175864
0.175377
0.174904
0.199395
0.198209
0.19706
0.195949
0.194873
0.193831
0.192823
0.191846
0.1909
0.189983
0.189094
0.188232
0.187397
0.186586
0.1858
0.185036
0.184295
0.183576
0.182878
0.182199
0.18154
0.1809
0.180278
0.179673
0.179085
0.178513
0.177958
0.177417
0.176891
0.17638
0.175883
0.1754
0.174929
0.199395
0.198208
0.19706
0.195948
0.194872
0.193831
0.192822
0.191845
0.190899
0.189982
0.189093
0.188231
0.187395
0.186584
0.185797
0.185034
0.184293
0.183573
0.182875
0.182197
0.181538
0.180898
0.180276
0.179671
0.179084
0.178513
0.177958
0.177418
0.176894
0.176384
0.175888
0.175405
0.174936
0.199395
0.198208
0.19706
0.195948
0.194872
0.19383
0.192822
0.191845
0.190898
0.189981
0.189091
0.188229
0.187393
0.186582
0.185795
0.185032
0.18429
0.183571
0.182872
0.182194
0.181535
0.180895
0.180273
0.179668
0.179081
0.17851
0.177955
0.177416
0.176891
0.176382
0.175886
0.175404
0.174935
0.199395
0.198208
0.19706
0.195948
0.194872
0.19383
0.192821
0.191844
0.190897
0.18998
0.18909
0.188228
0.187392
0.18658
0.185793
0.18503
0.184288
0.183569
0.18287
0.182191
0.181532
0.180892
0.18027
0.179665
0.179078
0.178507
0.177952
0.177412
0.176888
0.176378
0.175882
0.1754
0.174931
0.199395
0.198208
0.19706
0.195948
0.194872
0.19383
0.192821
0.191843
0.190897
0.189979
0.189089
0.188227
0.18739
0.186579
0.185792
0.185028
0.184286
0.183567
0.182868
0.182189
0.18153
0.180889
0.180267
0.179662
0.179075
0.178504
0.177948
0.177409
0.176884
0.176374
0.175877
0.175395
0.174926
0.199395
0.198208
0.197059
0.195948
0.194871
0.193829
0.19282
0.191843
0.190896
0.189978
0.189088
0.188226
0.187389
0.186578
0.18579
0.185026
0.184285
0.183565
0.182866
0.182187
0.181527
0.180887
0.180264
0.17966
0.179072
0.1785
0.177945
0.177405
0.17688
0.176369
0.175873
0.17539
0.17492
0.199395
0.198208
0.197059
0.195948
0.194871
0.193829
0.19282
0.191843
0.190895
0.189978
0.189088
0.188225
0.187388
0.186577
0.185789
0.185025
0.184283
0.183563
0.182864
0.182185
0.181525
0.180884
0.180262
0.179657
0.179069
0.178497
0.177942
0.177401
0.176876
0.176365
0.175869
0.175385
0.174915
0.199395
0.198208
0.197059
0.195947
0.194871
0.193829
0.19282
0.191842
0.190895
0.189977
0.189087
0.188224
0.187387
0.186576
0.185788
0.185024
0.184282
0.183561
0.182862
0.182183
0.181523
0.180882
0.180259
0.179654
0.179066
0.178494
0.177938
0.177398
0.176872
0.176361
0.175864
0.175381
0.17491
0.199395
0.198208
0.197059
0.195947
0.194871
0.193829
0.19282
0.191842
0.190895
0.189976
0.189086
0.188223
0.187387
0.186575
0.185787
0.185022
0.18428
0.18356
0.182861
0.182181
0.181521
0.18088
0.180257
0.179652
0.179063
0.178491
0.177935
0.177395
0.176869
0.176357
0.17586
0.175376
0.174905
0.199395
0.198208
0.197059
0.195947
0.194871
0.193829
0.192819
0.191842
0.190894
0.189976
0.189086
0.188223
0.187386
0.186574
0.185786
0.185021
0.184279
0.183559
0.182859
0.18218
0.181519
0.180878
0.180255
0.17965
0.179061
0.178489
0.177932
0.177391
0.176865
0.176354
0.175856
0.175372
0.174901
0.199395
0.198208
0.197059
0.195947
0.194871
0.193829
0.192819
0.191841
0.190894
0.189976
0.189086
0.188222
0.187385
0.186573
0.185785
0.18502
0.184278
0.183558
0.182858
0.182178
0.181518
0.180876
0.180253
0.179647
0.179059
0.178486
0.17793
0.177388
0.176862
0.17635
0.175852
0.175368
0.174896
0.199395
0.198208
0.197059
0.195947
0.194871
0.193829
0.192819
0.191841
0.190894
0.189975
0.189085
0.188222
0.187385
0.186572
0.185784
0.18502
0.184277
0.183556
0.182856
0.182177
0.181516
0.180875
0.180251
0.179645
0.179056
0.178484
0.177927
0.177385
0.176859
0.176347
0.175848
0.175363
0.174892
0.199395
0.198208
0.197059
0.195947
0.194871
0.193828
0.192819
0.191841
0.190894
0.189975
0.189085
0.188222
0.187384
0.186572
0.185784
0.185019
0.184276
0.183555
0.182855
0.182175
0.181515
0.180873
0.18025
0.179643
0.179054
0.178481
0.177924
0.177383
0.176856
0.176343
0.175845
0.17536
0.174888
0.199395
0.198208
0.197059
0.195947
0.194871
0.193828
0.192819
0.191841
0.190893
0.189975
0.189084
0.188221
0.187384
0.186571
0.185783
0.185018
0.184276
0.183555
0.182854
0.182174
0.181514
0.180872
0.180248
0.179642
0.179052
0.178479
0.177922
0.17738
0.176853
0.17634
0.175842
0.175356
0.174884
0.199395
0.198208
0.197059
0.195947
0.194871
0.193828
0.192819
0.191841
0.190893
0.189975
0.189084
0.188221
0.187384
0.186571
0.185783
0.185018
0.184275
0.183554
0.182854
0.182173
0.181513
0.180871
0.180247
0.17964
0.179051
0.178477
0.17792
0.177378
0.176851
0.176338
0.175839
0.175353
0.17488
0.199395
0.198208
0.197059
0.195947
0.194871
0.193828
0.192819
0.191841
0.190893
0.189975
0.189084
0.188221
0.187383
0.186571
0.185782
0.185017
0.184274
0.183553
0.182853
0.182173
0.181512
0.180869
0.180245
0.179639
0.179049
0.178476
0.177918
0.177376
0.176848
0.176335
0.175836
0.17535
0.174877
0.199395
0.198208
0.197059
0.195947
0.194871
0.193828
0.192819
0.191841
0.190893
0.189975
0.189085
0.188221
0.187384
0.186571
0.185783
0.185017
0.184275
0.183553
0.182853
0.182172
0.181511
0.180869
0.180245
0.179638
0.179048
0.178475
0.177917
0.177375
0.176847
0.176333
0.175834
0.175348
0.174875
0.199395
0.198208
0.197059
0.195947
0.194871
0.193828
0.192819
0.191841
0.190893
0.189975
0.189084
0.188221
0.187383
0.186571
0.185782
0.185017
0.184274
0.183553
0.182853
0.182172
0.181511
0.180869
0.180244
0.179638
0.179048
0.178474
0.177916
0.177374
0.176846
0.176332
0.175832
0.175346
0.174873
0.199395
0.198208
0.197059
0.195948
0.194871
0.193829
0.19282
0.191843
0.190895
0.189977
0.189087
0.188223
0.187386
0.186573
0.185785
0.18502
0.184277
0.183555
0.182855
0.182174
0.181513
0.180871
0.180246
0.179639
0.179049
0.178475
0.177917
0.177374
0.176846
0.176332
0.175832
0.175345
0.174872
0.199395
0.198209
0.19706
0.195949
0.194872
0.19383
0.192821
0.191843
0.190896
0.189977
0.189087
0.188224
0.187387
0.186574
0.185786
0.185021
0.184278
0.183557
0.182856
0.182176
0.181515
0.180872
0.180248
0.17964
0.17905
0.178476
0.177917
0.177374
0.176845
0.176331
0.17583
0.175343
0.174868
0.199395
0.198208
0.19706
0.19595
0.194875
0.193835
0.192827
0.191851
0.190904
0.189987
0.189097
0.188234
0.187397
0.186584
0.185796
0.18503
0.184287
0.183565
0.182864
0.182182
0.18152
0.180876
0.180251
0.179642
0.17905
0.178474
0.177914
0.177368
0.176837
0.176321
0.175817
0.175327
0.17485
0.199396
0.198212
0.197066
0.195957
0.194883
0.193842
0.192834
0.191857
0.190911
0.189993
0.189104
0.188241
0.187403
0.18659
0.185801
0.185034
0.184289
0.183565
0.182861
0.182176
0.181511
0.180863
0.180232
0.179619
0.179021
0.17844
0.177873
0.177321
0.176784
0.17626
0.175749
0.175252
0.174767
0.199396
0.198213
0.197071
0.195969
0.194902
0.193869
0.192866
0.191892
0.190947
0.190029
0.189137
0.188269
0.187426
0.186606
0.185808
0.185031
0.184275
0.183539
0.182822
0.182124
0.181444
0.180781
0.180134
0.179504
0.17889
0.178291
0.177707
0.177137
0.176581
0.176039
0.175509
0.174993
0.174488
0.199402
0.198241
0.197115
0.196019
0.194953
0.193916
0.192909
0.191928
0.190972
0.19004
0.189131
0.188244
0.187379
0.186535
0.185711
0.184906
0.184121
0.183355
0.182606
0.181876
0.181163
0.180467
0.179787
0.179123
0.178475
0.177841
0.177223
0.176618
0.176028
0.175451
0.174888
0.174337
0.173799
0.199421
0.198284
0.197214
0.196182
0.195158
0.194135
0.193117
0.192109
0.191115
0.19014
0.189185
0.188253
0.187344
0.186458
0.185596
0.184755
0.183936
0.183139
0.182361
0.181603
0.180863
0.180142
0.179438
0.17875
0.178079
0.177424
0.176784
0.176159
0.175548
0.174952
0.174369
0.173799
0.173243
0.199655
0.198885
0.198077
0.197303
0.196604
0.195977
0.195406
0.194883
0.1944
0.193955
0.193547
0.193174
0.192835
0.19253
0.192257
0.192015
0.191803
0.191618
0.19146
0.191327
0.191218
0.19113
0.191063
0.191015
0.190986
0.190973
0.190976
0.190995
0.191027
0.191072
0.191129
0.191198
0.191277
0.205419
0.216602
0.227661
0.238503
0.249093
0.259416
0.269459
0.279212
0.288667
0.297817
0.306658
0.315188
0.323405
0.331312
0.338909
0.346202
0.353194
0.359892
0.366302
0.372431
0.378286
0.383875
0.389208
0.394292
0.399135
0.403748
0.408138
0.412313
0.416283
0.420057
0.423641
0.427044
0.430278
0.31766
0.627504
0.945613
1.2359
1.4769
1.65802
1.78024
1.85326
1.88983
1.90232
1.90049
1.89094
1.87766
1.86285
1.84762
1.83256
1.81806
1.80445
1.79206
1.78114
1.77185
1.76422
1.75819
1.75352
1.74992
1.74699
1.74427
1.74131
1.73763
1.7328
1.72639
1.71803
1.7074
1.69424
1.67837
1.6597
1.63822
1.61402
1.58729
1.55827
1.52728
1.49465
1.46075
1.42592
1.3905
1.35474
1.31882
1.28282
1.2467
1.21031
1.17336
1.13546
1.09612
1.05477
1.01082
0.963718
0.912968
0.858229
0.799381
0.736603
0.670461
0.601987
0.532736
0.464783
0.400604
0.342781
0.293513
0.254073
0.224483
0.203642
0.189839
0.181288
0.176454
0.174151
0.173513
0.173927
0.17497
0.176357
0.177902
0.179494
0.181072
0.182614
0.18412
0.185611
0.187111
0.18865
0.19025
0.191928
0.193684
0.195509
0.197377
0.199254
0.201097
0.20286
0.204497
0.205967
0.207237
0.208279
0.209081
0.209757
0.229021
0.256918
0.299965
0.359241
0.434955
0.525761
0.628355
0.737828
0.848373
0.954283
1.05072
1.13428
1.2033
1.25782
1.29913
1.32929
1.3506
1.36517
1.37476
1.38073
1.38405
1.38542
1.3853
1.38399
1.38166
1.37837
1.37406
1.36863
1.36193
1.35379
1.34403
1.33247
1.31895
1.30336
1.28562
1.26572
1.24372
1.21978
1.19409
1.16695
1.13865
1.10954
1.07997
1.05025
1.02066
0.991425
0.962662
0.934412
0.9066
0.879043
0.851448
0.823423
0.794504
0.764177
0.731924
0.697269
0.659839
0.619425
0.576054
0.530058
0.482136
0.43338
0.385266
0.339536
0.297984
0.262128
0.232881
0.210368
0.194005
0.182785
0.175588
0.171388
0.16934
0.16878
0.169207
0.170251
0.171648
0.173215
0.17483
0.176421
0.177951
0.179408
0.180801
0.182153
0.183492
0.18485
0.186254
0.187724
0.189271
0.190892
0.192571
0.194281
0.195986
0.197644
0.199213
0.20065
0.201921
0.202998
0.203852
0.204668
0.191333
0.193441
0.197923
0.205383
0.216139
0.230597
0.24924
0.272836
0.302236
0.338043
0.380325
0.428468
0.481169
0.536568
0.592492
0.646763
0.697472
0.743187
0.783048
0.816749
0.844438
0.866578
0.883791
0.896728
0.90598
0.912029
0.915242
0.915885
0.914148
0.910175
0.904076
0.89594
0.885845
0.873867
0.860097
0.844651
0.827686
0.809401
0.790041
0.769881
0.749217
0.728345
0.707549
0.68708
0.667141
0.647873
0.629345
0.611546
0.59438
0.577665
0.56114
0.544475
0.527288
0.509174
0.489739
0.46864
0.445637
0.420645
0.393783
0.365418
0.336181
0.306949
0.278768
0.252717
0.229732
0.21044
0.195062
0.183439
0.175145
0.169627
0.166313
0.164683
0.164288
0.164761
0.165808
0.167203
0.168779
0.170415
0.17203
0.173578
0.175033
0.176392
0.177668
0.178883
0.180067
0.18125
0.182463
0.183731
0.185068
0.186479
0.187958
0.189484
0.191029
0.192557
0.194028
0.195402
0.196645
0.197728
0.198607
0.199526
0.177979
0.178144
0.178513
0.179254
0.180513
0.182406
0.185045
0.18857
0.193136
0.198944
0.206256
0.215361
0.226531
0.239983
0.25582
0.273988
0.294242
0.316138
0.339071
0.362325
0.385162
0.406892
0.426937
0.444864
0.460388
0.473353
0.483712
0.491498
0.496806
0.49978
0.50059
0.499422
0.496466
0.491906
0.485926
0.478709
0.470449
0.461352
0.451634
0.441515
0.431212
0.420929
0.410846
0.401113
0.391839
0.383089
0.374883
0.367191
0.35993
0.352973
0.346143
0.339226
0.331981
0.324152
0.315497
0.30581
0.294958
0.282911
0.26977
0.255786
0.241349
0.226964
0.213187
0.200546
0.189466
0.180215
0.172886
0.16742
0.163649
0.16134
0.160235
0.160077
0.160628
0.16168
0.163058
0.164619
0.166255
0.167885
0.169454
0.170929
0.172293
0.173549
0.174707
0.17579
0.176826
0.177845
0.178877
0.179949
0.181081
0.182283
0.183556
0.184887
0.186255
0.187631
0.188979
0.190263
0.191449
0.192508
0.193386
0.194368
0.173146
0.172811
0.17251
0.172283
0.172159
0.172166
0.172331
0.172679
0.173233
0.174019
0.175071
0.176436
0.178166
0.180321
0.18296
0.186137
0.189894
0.194252
0.199203
0.204704
0.210672
0.216987
0.223497
0.230029
0.236397
0.242419
0.247925
0.252769
0.256839
0.260065
0.262416
0.2639
0.264556
0.264444
0.263642
0.262238
0.26033
0.258022
0.255417
0.252622
0.249735
0.246844
0.244025
0.241335
0.238818
0.236495
0.234369
0.232425
0.230626
0.228913
0.227211
0.225421
0.223431
0.22112
0.218368
0.21507
0.211152
0.206587
0.201414
0.195741
0.189745
0.18366
0.177746
0.172258
0.167416
0.163381
0.160241
0.158016
0.156665
0.1561
0.156205
0.156852
0.157908
0.159251
0.160772
0.162379
0.163998
0.165573
0.167064
0.168446
0.169711
0.170858
0.1719
0.172857
0.173754
0.17462
0.175484
0.176372
0.177308
0.178307
0.179373
0.180504
0.181684
0.18289
0.184095
0.185264
0.186365
0.187373
0.188223
0.189228
0.172092
0.171549
0.171015
0.170497
0.170003
0.169543
0.169127
0.168766
0.168466
0.168232
0.168071
0.167985
0.167984
0.168074
0.168267
0.168572
0.169
0.169558
0.170252
0.171081
0.17204
0.173116
0.174291
0.175538
0.176827
0.17812
0.179377
0.180558
0.181625
0.182546
0.183297
0.183862
0.184236
0.184422
0.184431
0.184277
0.183984
0.183574
0.183075
0.182514
0.181918
0.181311
0.180714
0.180144
0.179613
0.179129
0.178693
0.178301
0.17794
0.177594
0.177236
0.176832
0.176339
0.175711
0.174897
0.173849
0.17253
0.170919
0.169022
0.166877
0.164554
0.162151
0.159789
0.157595
0.155688
0.154167
0.153097
0.152511
0.152406
0.152746
0.153476
0.154525
0.155815
0.15727
0.158817
0.160394
0.161947
0.163436
0.164829
0.166109
0.167268
0.168306
0.169236
0.170073
0.170841
0.171565
0.172273
0.172992
0.173744
0.174547
0.175413
0.176343
0.177329
0.178356
0.1794
0.180433
0.181426
0.182355
0.183153
0.184142
0.172344
0.171714
0.171086
0.170464
0.16985
0.169245
0.168653
0.168079
0.167526
0.166996
0.166492
0.166017
0.165571
0.165156
0.164774
0.164427
0.164116
0.163844
0.163611
0.163419
0.163267
0.163153
0.163075
0.163029
0.163008
0.163006
0.163015
0.163024
0.163026
0.163012
0.162974
0.162906
0.162806
0.162671
0.162502
0.1623
0.162069
0.161815
0.161541
0.161253
0.160958
0.160661
0.160366
0.160077
0.159797
0.159526
0.159267
0.159016
0.158771
0.158526
0.158275
0.158006
0.157707
0.157363
0.156955
0.156469
0.155889
0.155209
0.15443
0.153568
0.152654
0.151732
0.150859
0.150099
0.149513
0.149158
0.149071
0.149276
0.149773
0.150546
0.151561
0.152775
0.154137
0.155596
0.157099
0.1586
0.160059
0.161444
0.162729
0.163901
0.164952
0.165883
0.166704
0.167428
0.168076
0.16867
0.169236
0.169798
0.17038
0.171002
0.171676
0.17241
0.173202
0.174042
0.174914
0.175796
0.176661
0.177488
0.17821
0.179142
0.17293
0.172272
0.171614
0.170956
0.1703
0.169647
0.168997
0.168354
0.167719
0.167093
0.166478
0.165876
0.165287
0.164713
0.164153
0.16361
0.163082
0.162572
0.16208
0.161605
0.161149
0.160711
0.160291
0.159888
0.159502
0.15913
0.158773
0.158427
0.158091
0.157761
0.157437
0.157116
0.156796
0.156476
0.156156
0.155835
0.155513
0.155191
0.154869
0.154546
0.154224
0.153902
0.15358
0.153257
0.152934
0.15261
0.152285
0.151957
0.151626
0.151292
0.150953
0.150608
0.150254
0.149891
0.149516
0.149127
0.148723
0.148308
0.147886
0.147469
0.147075
0.146729
0.14646
0.146301
0.146285
0.146441
0.146789
0.14734
0.148094
0.149036
0.150145
0.151389
0.15273
0.15413
0.155549
0.15695
0.158301
0.159573
0.160747
0.161809
0.162753
0.16358
0.164296
0.164914
0.16545
0.165925
0.166362
0.166782
0.167209
0.167662
0.168157
0.168704
0.169307
0.169961
0.170655
0.171373
0.172094
0.172799
0.173426
0.174265
0.173483
0.172828
0.172171
0.171512
0.170852
0.170192
0.169532
0.168873
0.168216
0.167563
0.166915
0.166273
0.165638
0.165011
0.164392
0.163783
0.163183
0.162594
0.162015
0.161448
0.160891
0.160347
0.159814
0.159294
0.158785
0.158289
0.157806
0.157335
0.156875
0.156427
0.155989
0.155561
0.155142
0.154732
0.154329
0.153934
0.153544
0.153161
0.152781
0.152405
0.15203
0.151655
0.151279
0.1509
0.150516
0.150128
0.149733
0.149331
0.148923
0.14851
0.148092
0.147673
0.147253
0.146837
0.146428
0.146032
0.145654
0.145301
0.144983
0.144711
0.144498
0.144362
0.14432
0.144393
0.144597
0.144949
0.145459
0.146129
0.146957
0.14793
0.149029
0.150228
0.151498
0.152807
0.154122
0.155412
0.156648
0.157806
0.158869
0.159823
0.160664
0.161389
0.162006
0.162524
0.162957
0.163324
0.163643
0.163935
0.164222
0.164522
0.164851
0.165223
0.165645
0.166116
0.166632
0.167181
0.167746
0.168315
0.168829
0.169543
0.173891
0.17325
0.172606
0.171959
0.171309
0.170658
0.170005
0.169351
0.168698
0.168046
0.167395
0.166749
0.166106
0.165467
0.164834
0.164207
0.163587
0.162974
0.162368
0.16177
0.16118
0.1606
0.160028
0.159466
0.158913
0.158371
0.15784
0.157319
0.15681
0.156312
0.155824
0.155348
0.154881
0.154424
0.153976
0.153536
0.153104
0.152678
0.152258
0.15184
0.151424
0.151007
0.150589
0.150166
0.149737
0.149301
0.148858
0.148407
0.147949
0.147485
0.147017
0.146548
0.146083
0.145627
0.145185
0.144766
0.144377
0.144028
0.14373
0.143493
0.14333
0.143256
0.143282
0.143422
0.143688
0.144089
0.144628
0.145306
0.146118
0.14705
0.148087
0.149205
0.15038
0.151583
0.152786
0.153961
0.155082
0.156128
0.157083
0.157934
0.158675
0.159305
0.159828
0.160252
0.16059
0.160857
0.16107
0.161247
0.161408
0.16157
0.161749
0.161961
0.162212
0.162509
0.162851
0.163229
0.163634
0.164055
0.164445
0.165005
0.174151
0.173525
0.172895
0.172263
0.171628
0.17099
0.17035
0.169709
0.169067
0.168425
0.167784
0.167145
0.166507
0.165873
0.165243
0.164617
0.163996
0.16338
0.162769
0.162165
0.161567
0.160977
0.160393
0.159818
0.15925
0.158691
0.158142
0.157602
0.157071
0.156551
0.15604
0.155539
0.155047
0.154564
0.15409
0.153623
0.153163
0.152709
0.152259
0.151812
0.151366
0.150919
0.15047
0.150015
0.149555
0.149088
0.148613
0.14813
0.14764
0.147145
0.146647
0.146149
0.145656
0.145174
0.14471
0.144271
0.143866
0.143506
0.143201
0.142961
0.1428
0.142728
0.142756
0.142896
0.143154
0.143537
0.144047
0.144681
0.145434
0.146294
0.147245
0.148268
0.149338
0.15043
0.15152
0.152582
0.153592
0.15453
0.155381
0.156133
0.15678
0.15732
0.157755
0.158093
0.158343
0.158519
0.158636
0.158709
0.158757
0.158796
0.158841
0.158906
0.159003
0.159137
0.159312
0.159524
0.159768
0.160035
0.160292
0.160676
0.174297
0.173682
0.173064
0.172444
0.171821
0.171196
0.170569
0.16994
0.16931
0.16868
0.16805
0.167421
0.166793
0.166168
0.165545
0.164926
0.16431
0.163698
0.163091
0.16249
0.161893
0.161302
0.160718
0.16014
0.159568
0.159005
0.158448
0.1579
0.157361
0.15683
0.156307
0.155793
0.155287
0.154788
0.154297
0.153813
0.153335
0.152861
0.152391
0.151923
0.151455
0.150986
0.150515
0.150038
0.149556
0.149068
0.148572
0.148069
0.147559
0.147046
0.146529
0.146015
0.145506
0.145008
0.144529
0.144076
0.143658
0.143285
0.142966
0.142712
0.142535
0.142444
0.14245
0.142561
0.142784
0.143124
0.14358
0.14415
0.144829
0.145604
0.146462
0.147383
0.148347
0.149331
0.150311
0.151263
0.152167
0.153003
0.153756
0.154415
0.154974
0.155429
0.155782
0.156039
0.156209
0.156302
0.156332
0.156313
0.156261
0.15619
0.156115
0.15605
0.156006
0.155991
0.15601
0.156065
0.156151
0.156264
0.156386
0.156578
0.174367
0.17376
0.173151
0.172539
0.171925
0.171309
0.170691
0.170071
0.169451
0.16883
0.168209
0.167588
0.166969
0.166352
0.165736
0.165124
0.164514
0.163908
0.163306
0.162708
0.162115
0.161527
0.160944
0.160367
0.159795
0.15923
0.158672
0.158121
0.157577
0.15704
0.156511
0.155988
0.155473
0.154965
0.154463
0.153966
0.153475
0.152987
0.152503
0.152019
0.151536
0.151052
0.150565
0.150073
0.149576
0.149073
0.148564
0.148048
0.147527
0.147002
0.146476
0.145952
0.145434
0.144928
0.14444
0.143978
0.14355
0.143165
0.142832
0.142562
0.142364
0.142249
0.142224
0.142299
0.142478
0.142764
0.14316
0.14366
0.14426
0.144949
0.145713
0.146536
0.147397
0.148276
0.14915
0.149999
0.150802
0.151541
0.152202
0.152774
0.15325
0.153626
0.153903
0.154086
0.154181
0.154199
0.154151
0.15405
0.153908
0.153741
0.153561
0.15338
0.153211
0.153062
0.152939
0.152846
0.152784
0.152746
0.152734
0.152727
0.174396
0.173793
0.173188
0.172581
0.171972
0.171361
0.170749
0.170135
0.169521
0.168906
0.16829
0.167676
0.167062
0.16645
0.16584
0.165232
0.164626
0.164024
0.163426
0.162831
0.16224
0.161653
0.161072
0.160495
0.159924
0.159358
0.158798
0.158245
0.157698
0.157157
0.156623
0.156095
0.155573
0.155058
0.154547
0.154042
0.153541
0.153043
0.152548
0.152053
0.151559
0.151063
0.150565
0.150063
0.149556
0.149044
0.148526
0.148003
0.147475
0.146944
0.146413
0.145884
0.145362
0.144852
0.14436
0.143892
0.143456
0.143062
0.142717
0.142431
0.142213
0.142073
0.142017
0.142054
0.142187
0.142421
0.142755
0.143186
0.143709
0.144314
0.144988
0.145715
0.146479
0.147258
0.148033
0.148784
0.149492
0.15014
0.150714
0.151204
0.151602
0.151905
0.152112
0.152226
0.152254
0.152204
0.152086
0.15191
0.151691
0.151438
0.151165
0.150884
0.150605
0.150336
0.150087
0.14986
0.149659
0.149479
0.149338
0.14913
0.174404
0.173803
0.1732
0.172594
0.171988
0.171379
0.17077
0.170159
0.169548
0.168936
0.168324
0.167712
0.167101
0.166491
0.165883
0.165277
0.164674
0.164073
0.163475
0.162881
0.162291
0.161705
0.161123
0.160545
0.159973
0.159405
0.158844
0.158287
0.157737
0.157192
0.156653
0.15612
0.155593
0.155071
0.154554
0.154041
0.153532
0.153027
0.152523
0.15202
0.151518
0.151014
0.150508
0.149999
0.149485
0.148967
0.148444
0.147916
0.147385
0.146852
0.146319
0.145789
0.145265
0.144754
0.144259
0.143788
0.143348
0.142946
0.142591
0.142291
0.142055
0.14189
0.141804
0.141804
0.141894
0.142077
0.142352
0.142717
0.143167
0.143692
0.144281
0.144918
0.145589
0.146274
0.146955
0.147614
0.148232
0.148795
0.149288
0.149701
0.150027
0.150261
0.150403
0.150454
0.150421
0.150309
0.150128
0.149888
0.149599
0.149272
0.148919
0.14855
0.148174
0.147802
0.14744
0.147093
0.146767
0.146456
0.146195
0.145791
0.174403
0.173802
0.173199
0.172595
0.171989
0.171381
0.170772
0.170162
0.169552
0.168941
0.168329
0.167719
0.167108
0.166499
0.165891
0.165285
0.164681
0.16408
0.163481
0.162886
0.162294
0.161706
0.161122
0.160542
0.159967
0.159396
0.158831
0.158271
0.157716
0.157167
0.156623
0.156085
0.155552
0.155024
0.1545
0.153981
0.153466
0.152953
0.152442
0.151933
0.151424
0.150914
0.150402
0.149887
0.14937
0.148848
0.148322
0.147792
0.14726
0.146726
0.146193
0.145663
0.14514
0.144629
0.144134
0.143661
0.143218
0.14281
0.142446
0.142133
0.14188
0.141693
0.141579
0.141545
0.141594
0.141728
0.141948
0.142251
0.142632
0.143081
0.14359
0.144143
0.144726
0.145323
0.145915
0.146487
0.147021
0.147503
0.147919
0.14826
0.148518
0.148688
0.14877
0.148764
0.148675
0.148508
0.148271
0.147973
0.147623
0.147232
0.14681
0.146365
0.145907
0.145445
0.144985
0.144534
0.144097
0.143667
0.143297
0.142707
0.174399
0.173798
0.173194
0.17259
0.171983
0.171375
0.170766
0.170156
0.169545
0.168934
0.168322
0.16771
0.167099
0.166489
0.16588
0.165272
0.164666
0.164063
0.163462
0.162864
0.162269
0.161678
0.16109
0.160506
0.159927
0.159353
0.158783
0.158218
0.157658
0.157104
0.156554
0.15601
0.155471
0.154937
0.154407
0.153882
0.15336
0.152841
0.152324
0.151809
0.151294
0.150779
0.150262
0.149744
0.149222
0.148698
0.148171
0.14764
0.147108
0.146575
0.146042
0.145514
0.144993
0.144482
0.143988
0.143514
0.143068
0.142655
0.142283
0.141959
0.14169
0.141482
0.141342
0.141276
0.141286
0.141376
0.141544
0.141788
0.142103
0.142482
0.142914
0.143388
0.143889
0.144402
0.144911
0.1454
0.145854
0.146259
0.146603
0.146875
0.14707
0.147181
0.147207
0.147149
0.147009
0.146793
0.146507
0.146159
0.145757
0.145311
0.144828
0.144319
0.143791
0.143252
0.142709
0.142167
0.141633
0.141099
0.140632
0.139872
0.174394
0.173792
0.173188
0.172582
0.171975
0.171367
0.170757
0.170146
0.169534
0.168922
0.168309
0.167696
0.167083
0.166471
0.16586
0.16525
0.164641
0.164035
0.163431
0.162829
0.16223
0.161635
0.161043
0.160455
0.159871
0.159291
0.158716
0.158145
0.15758
0.157019
0.156464
0.155913
0.155368
0.154827
0.154291
0.153759
0.153231
0.152706
0.152183
0.151662
0.151142
0.150622
0.150102
0.14958
0.149056
0.14853
0.148001
0.147471
0.146939
0.146406
0.145876
0.145349
0.144829
0.14432
0.143826
0.143352
0.142903
0.142486
0.142107
0.141772
0.141488
0.141261
0.141096
0.141
0.140974
0.14102
0.141139
0.141328
0.141582
0.141894
0.142255
0.142653
0.143076
0.143509
0.143938
0.144349
0.144727
0.145059
0.145334
0.145542
0.145677
0.145733
0.145708
0.145602
0.145417
0.145158
0.144829
0.144438
0.143991
0.143498
0.142966
0.142403
0.141816
0.141212
0.140598
0.139979
0.139362
0.138737
0.138185
0.137272
0.174388
0.173785
0.173181
0.172575
0.171967
0.171358
0.170747
0.170135
0.169522
0.168908
0.168294
0.167679
0.167064
0.16645
0.165836
0.165224
0.164612
0.164002
0.163395
0.162789
0.162186
0.161586
0.160989
0.160396
0.159807
0.159222
0.158641
0.158064
0.157493
0.156926
0.156364
0.155807
0.155255
0.154708
0.154165
0.153627
0.153092
0.152561
0.152033
0.151506
0.150981
0.150457
0.149932
0.149407
0.148881
0.148353
0.147823
0.147292
0.146761
0.14623
0.1457
0.145175
0.144657
0.144149
0.143655
0.143181
0.142729
0.142308
0.141921
0.141576
0.141278
0.141032
0.140844
0.140719
0.140658
0.140665
0.140737
0.140873
0.141069
0.141317
0.14161
0.141936
0.142284
0.142642
0.142995
0.14333
0.143635
0.143898
0.144107
0.144255
0.144333
0.144338
0.144266
0.144117
0.143893
0.143596
0.143231
0.142803
0.14232
0.141789
0.141215
0.140607
0.13997
0.139313
0.13864
0.137956
0.137269
0.136566
0.135943
0.134895
0.174382
0.173779
0.173174
0.172567
0.171959
0.171348
0.170736
0.170123
0.169509
0.168894
0.168278
0.167662
0.167045
0.166428
0.165812
0.165197
0.164582
0.163969
0.163358
0.162748
0.162141
0.161536
0.160935
0.160337
0.159742
0.159151
0.158564
0.157982
0.157404
0.156831
0.156263
0.155699
0.155141
0.154587
0.154037
0.153493
0.152952
0.152414
0.15188
0.151348
0.150818
0.150289
0.149761
0.149233
0.148704
0.148174
0.147643
0.147112
0.146581
0.14605
0.145522
0.144998
0.144481
0.143974
0.14348
0.143004
0.142551
0.142124
0.14173
0.141375
0.141063
0.140799
0.140589
0.140435
0.140342
0.140309
0.140337
0.140423
0.140563
0.14075
0.140978
0.141235
0.141511
0.141795
0.142075
0.142338
0.142573
0.142768
0.142915
0.143005
0.143031
0.142988
0.142874
0.142688
0.142429
0.142101
0.141707
0.141251