/*--------------------------------*- C++ -*----------------------------------*\
  =========                 |
  \\      /  F ield         | OpenFOAM: The Open Source CFD Toolbox
   \\    /   O peration     | Website:  https://openfoam.org
    \\  /    A nd           | Version:  10
     \\/     M anipulation  |
\*---------------------------------------------------------------------------*/
FoamFile
{
    format      ascii;
    class       volScalarField;
    location    "0.13";
    object      p;
}
// * * * * * * * * * * * * * * * * * * * * * * * * * * * * * * * * * * * * * //

dimensions      [0 2 -2 0 0 0 0];

internalField   nonuniform List<scalar> 
6820
(
-8.8011
-10.1652
-10.5788
-10.6744
-10.7554
-10.8071
-10.8383
-10.8631
-10.8844
-10.9034
-10.921
-10.9378
-10.9539
-10.9696
-10.985
-11.0002
-11.015
-11.0297
-11.0442
-11.0585
-11.0726
-11.0864
-11.0998
-11.1127
-11.1248
-11.1358
-11.1449
-11.1508
-11.1519
-11.1413
-11.1165
-11.0401
-10.865
-11.6012
-11.1969
-10.9031
-10.8079
-10.8095
-10.8265
-10.8449
-10.8649
-10.8848
-10.9035
-10.921
-10.9377
-10.9537
-10.9691
-10.9841
-10.9988
-11.0132
-11.0274
-11.0415
-11.0554
-11.0691
-11.0826
-11.0958
-11.1086
-11.1208
-11.1321
-11.1421
-11.1507
-11.1557
-11.1627
-11.1558
-11.1965
-11.2111
-10.4582
-10.33
-10.555
-10.6929
-10.7547
-10.7994
-10.8317
-10.8575
-10.8795
-10.899
-10.9169
-10.9338
-10.95
-10.9657
-10.981
-10.9961
-11.0109
-11.0255
-11.04
-11.0543
-11.0684
-11.0823
-11.0959
-11.1091
-11.1218
-11.1337
-11.1446
-11.1544
-11.162
-11.1693
-11.1719
-11.186
-11.1891
-10.8248
-10.8415
-10.8173
-10.7946
-10.803
-10.8237
-10.8441
-10.8637
-10.8828
-10.9009
-10.9181
-10.9346
-10.9506
-10.9661
-10.9813
-10.9962
-11.0109
-11.0254
-11.0397
-11.0539
-11.0679
-11.0818
-11.0954
-11.1087
-11.1217
-11.1342
-11.1461
-11.1577
-11.1684
-11.181
-11.1935
-11.2213
-11.2578
-10.7148
-10.6608
-10.7048
-10.7498
-10.7851
-10.8154
-10.8404
-10.8621
-10.8821
-10.9005
-10.9177
-10.9342
-10.9501
-10.9656
-10.9807
-10.9956
-11.0102
-11.0248
-11.0391
-11.0534
-11.0675
-11.0816
-11.0954
-11.1091
-11.1226
-11.1358
-11.1489
-11.162
-11.1754
-11.1909
-11.2086
-11.2362
-11.2714
-10.7555
-10.7487
-10.7672
-10.7844
-10.8028
-10.8245
-10.8455
-10.8651
-10.8838
-10.9015
-10.9184
-10.9346
-10.9503
-10.9656
-10.9807
-10.9955
-11.0101
-11.0246
-11.0389
-11.0532
-11.0674
-11.0815
-11.0955
-11.1094
-11.1233
-11.1373
-11.1513
-11.1659
-11.1813
-11.1992
-11.2202
-11.2487
-11.2844
-10.7547
-10.7439
-10.7588
-10.7806
-10.8027
-10.8254
-10.8465
-10.866
-10.8844
-10.9019
-10.9186
-10.9346
-10.9502
-10.9655
-10.9804
-10.9951
-11.0097
-11.0241
-11.0385
-11.0528
-11.067
-11.0813
-11.0955
-11.1097
-11.1241
-11.1386
-11.1536
-11.1693
-11.1863
-11.2057
-11.2282
-11.2562
-11.2897
-10.7642
-10.7612
-10.7744
-10.7925
-10.8109
-10.8305
-10.8497
-10.8681
-10.8857
-10.9027
-10.919
-10.9348
-10.9502
-10.9653
-10.9801
-10.9947
-11.0092
-11.0236
-11.038
-11.0523
-11.0666
-11.0809
-11.0953
-11.1098
-11.1245
-11.1396
-11.1553
-11.1719
-11.1899
-11.2101
-11.2331
-11.2602
-11.2914
-10.7727
-10.7716
-10.7821
-10.7981
-10.8153
-10.8337
-10.8521
-10.8697
-10.8868
-10.9033
-10.9193
-10.9349
-10.9501
-10.965
-10.9797
-10.9942
-11.0086
-11.023
-11.0373
-11.0516
-11.0659
-11.0803
-11.0949
-11.1096
-11.1246
-11.1401
-11.1563
-11.1735
-11.192
-11.2126
-11.2356
-11.2615
-11.2904
-10.7811
-10.7817
-10.7911
-10.8054
-10.8211
-10.8379
-10.855
-10.8718
-10.8882
-10.9041
-10.9197
-10.935
-10.9499
-10.9647
-10.9792
-10.9936
-11.0079
-11.0222
-11.0365
-11.0507
-11.0651
-11.0795
-11.0942
-11.109
-11.1243
-11.1401
-11.1566
-11.1741
-11.1929
-11.2134
-11.2359
-11.2606
-11.2874
-10.7893
-10.7907
-10.799
-10.8118
-10.8261
-10.8417
-10.8577
-10.8737
-10.8895
-10.9049
-10.9201
-10.9351
-10.9498
-10.9643
-10.9786
-10.9929
-11.0071
-11.0213
-11.0355
-11.0497
-11.064
-11.0785
-11.0931
-11.1081
-11.1235
-11.1394
-11.1561
-11.1736
-11.1924
-11.2126
-11.2344
-11.2578
-11.2828
-10.7971
-10.7989
-10.8065
-10.8179
-10.8311
-10.8455
-10.8605
-10.8757
-10.8908
-10.9058
-10.9206
-10.9351
-10.9495
-10.9638
-10.978
-10.9921
-11.0061
-11.0202
-11.0343
-11.0484
-11.0627
-11.0771
-11.0918
-11.1068
-11.1222
-11.1381
-11.1547
-11.1722
-11.1908
-11.2104
-11.2314
-11.2536
-11.2769
-10.8045
-10.8064
-10.8134
-10.8237
-10.8358
-10.8492
-10.8633
-10.8777
-10.8921
-10.9066
-10.9209
-10.9352
-10.9493
-10.9633
-10.9772
-10.9911
-11.005
-11.0189
-11.0329
-11.0469
-11.0611
-11.0754
-11.09
-11.105
-11.1203
-11.1361
-11.1526
-11.1699
-11.188
-11.207
-11.2271
-11.2481
-11.2699
-10.8113
-10.8133
-10.8197
-10.8291
-10.8402
-10.8527
-10.8659
-10.8796
-10.8934
-10.9073
-10.9213
-10.9351
-10.9489
-10.9627
-10.9764
-10.9901
-11.0038
-11.0175
-11.0313
-11.0452
-11.0592
-11.0734
-11.0879
-11.1027
-11.1179
-11.1335
-11.1497
-11.1666
-11.1842
-11.2025
-11.2216
-11.2414
-11.2618
-10.8177
-10.8196
-10.8255
-10.8341
-10.8444
-10.8559
-10.8684
-10.8814
-10.8946
-10.908
-10.9215
-10.935
-10.9484
-10.9619
-10.9754
-10.9888
-11.0023
-11.0158
-11.0294
-11.0432
-11.057
-11.071
-11.0853
-11.0999
-11.1148
-11.1302
-11.146
-11.1624
-11.1794
-11.197
-11.2151
-11.2338
-11.2528
-10.8235
-10.8253
-10.8308
-10.8387
-10.8482
-10.859
-10.8707
-10.883
-10.8957
-10.9086
-10.9216
-10.9347
-10.9479
-10.961
-10.9742
-10.9874
-11.0007
-11.014
-11.0273
-11.0408
-11.0545
-11.0683
-11.0823
-11.0966
-11.1112
-11.1262
-11.1416
-11.1574
-11.1737
-11.1905
-11.2077
-11.2252
-11.243
-10.8288
-10.8305
-10.8355
-10.8428
-10.8516
-10.8618
-10.8728
-10.8845
-10.8966
-10.909
-10.9216
-10.9343
-10.9471
-10.96
-10.9729
-10.9858
-10.9988
-11.0118
-11.025
-11.0382
-11.0516
-11.0651
-11.0788
-11.0928
-11.107
-11.1216
-11.1364
-11.1517
-11.1672
-11.1831
-11.1993
-11.2158
-11.2324
-10.8335
-10.8351
-10.8397
-10.8465
-10.8547
-10.8642
-10.8747
-10.8858
-10.8974
-10.9093
-10.9215
-10.9338
-10.9462
-10.9587
-10.9713
-10.984
-10.9967
-11.0094
-11.0223
-11.0352
-11.0483
-11.0615
-11.0749
-11.0885
-11.1023
-11.1163
-11.1306
-11.1451
-11.1599
-11.175
-11.1902
-11.2056
-11.221
-10.8376
-10.8391
-10.8434
-10.8497
-10.8574
-10.8664
-10.8763
-10.8868
-10.8979
-10.9094
-10.9211
-10.9331
-10.9451
-10.9573
-10.9696
-10.9819
-10.9943
-11.0068
-11.0193
-11.0319
-11.0447
-11.0575
-11.0705
-11.0836
-11.0969
-11.1104
-11.1241
-11.1379
-11.1519
-11.1661
-11.1804
-11.1947
-11.209
-10.8412
-10.8426
-10.8466
-10.8525
-10.8597
-10.8681
-10.8775
-10.8876
-10.8982
-10.9092
-10.9206
-10.9321
-10.9438
-10.9557
-10.9676
-10.9796
-10.9917
-11.0038
-11.016
-11.0283
-11.0407
-11.0531
-11.0656
-11.0783
-11.0911
-11.104
-11.117
-11.1301
-11.1433
-11.1566
-11.1699
-11.1831
-11.1964
-10.8441
-10.8455
-10.8493
-10.8548
-10.8616
-10.8695
-10.8784
-10.888
-10.8982
-10.9088
-10.9198
-10.9309
-10.9423
-10.9538
-10.9654
-10.9771
-10.9888
-11.0006
-11.0124
-11.0243
-11.0363
-11.0483
-11.0603
-11.0725
-11.0847
-11.097
-11.1093
-11.1216
-11.134
-11.1464
-11.1588
-11.171
-11.1832
-10.8465
-10.8478
-10.8513
-10.8565
-10.8629
-10.8705
-10.8789
-10.8881
-10.8979
-10.9081
-10.9187
-10.9295
-10.9405
-10.9516
-10.9629
-10.9742
-10.9856
-10.997
-11.0085
-11.02
-11.0315
-11.043
-11.0546
-11.0662
-11.0778
-11.0894
-11.101
-11.1126
-11.1242
-11.1357
-11.1471
-11.1584
-11.1695
-10.8483
-10.8495
-10.8529
-10.8578
-10.8638
-10.871
-10.8791
-10.8879
-10.8973
-10.9071
-10.9173
-10.9278
-10.9384
-10.9492
-10.9601
-10.9711
-10.9821
-10.9932
-11.0042
-11.0153
-11.0264
-11.0374
-11.0485
-11.0595
-11.0705
-11.0815
-11.0924
-11.1032
-11.1139
-11.1245
-11.135
-11.1453
-11.1554
-10.8495
-10.8506
-10.8538
-10.8584
-10.8642
-10.871
-10.8787
-10.8872
-10.8962
-10.9057
-10.9155
-10.9257
-10.936
-10.9465
-10.957
-10.9676
-10.9783
-10.989
-10.9996
-11.0103
-11.0209
-11.0314
-11.0419
-11.0524
-11.0628
-11.073
-11.0832
-11.0933
-11.1032
-11.1129
-11.1225
-11.1318
-11.1409
-10.8501
-10.8511
-10.8541
-10.8585
-10.864
-10.8706
-10.878
-10.8862
-10.8949
-10.9041
-10.9136
-10.9234
-10.9334
-10.9435
-10.9538
-10.964
-10.9743
-10.9846
-10.9948
-11.005
-11.0151
-11.0252
-11.0351
-11.045
-11.0547
-11.0643
-11.0738
-11.0831
-11.0921
-11.101
-11.1097
-11.118
-11.1262
-10.8499
-10.8509
-10.8538
-10.8579
-10.8632
-10.8694
-10.8766
-10.8844
-10.8928
-10.9017
-10.911
-10.9205
-10.9302
-10.94
-10.9499
-10.9598
-10.9698
-10.9797
-10.9895
-10.9992
-11.0089
-11.0184
-11.0279
-11.0371
-11.0462
-11.0552
-11.0639
-11.0724
-11.0807
-11.0887
-11.0965
-11.104
-11.1112
-10.8492
-10.8501
-10.8529
-10.8569
-10.862
-10.8681
-10.8751
-10.8828
-10.891
-10.8996
-10.9086
-10.9178
-10.9272
-10.9368
-10.9463
-10.9559
-10.9654
-10.9749
-10.9843
-10.9936
-11.0028
-11.0118
-11.0206
-11.0293
-11.0377
-11.046
-11.054
-11.0618
-11.0693
-11.0765
-11.0834
-11.09
-11.0962
-10.8477
-10.8485
-10.851
-10.8547
-10.8594
-10.8652
-10.8719
-10.8793
-10.8873
-10.8957
-10.9045
-10.9136
-10.9228
-10.9321
-10.9414
-10.9507
-10.9599
-10.9691
-10.9781
-10.987
-10.9958
-11.0043
-11.0126
-11.0207
-11.0286
-11.0362
-11.0436
-11.0506
-11.0574
-11.0638
-11.0699
-11.0757
-11.081
-10.8456
-10.8466
-10.8493
-10.8532
-10.8581
-10.8639
-10.8706
-10.8779
-10.8857
-10.894
-10.9025
-10.9113
-10.9201
-10.9291
-10.938
-10.947
-10.9558
-10.9645
-10.9731
-10.9815
-10.9897
-10.9976
-11.0054
-11.0129
-11.0201
-11.027
-11.0337
-11.04
-11.046
-11.0516
-11.0569
-11.0618
-11.0663
-10.8423
-10.8425
-10.8442
-10.8472
-10.8515
-10.857
-10.8635
-10.8708
-10.8786
-10.887
-10.8956
-10.9044
-10.9133
-10.9223
-10.9312
-10.94
-10.9487
-10.9573
-10.9656
-10.9737
-10.9816
-10.9892
-10.9966
-11.0036
-11.0104
-11.0168
-11.0228
-11.0285
-11.0339
-11.0388
-11.0434
-11.0476
-11.0513
-10.8398
-10.8417
-10.8448
-10.8488
-10.8536
-10.8592
-10.8656
-10.8726
-10.88
-10.8879
-10.896
-10.9043
-10.9127
-10.9211
-10.9294
-10.9377
-10.9458
-10.9538
-10.9615
-10.969
-10.9763
-10.9833
-10.99
-10.9964
-11.0024
-11.0081
-11.0135
-11.0184
-11.023
-11.0272
-11.031
-11.0344
-11.0373
-10.8317
-10.8296
-10.8293
-10.8314
-10.8357
-10.8416
-10.8486
-10.8565
-10.865
-10.8738
-10.8829
-10.892
-10.9011
-10.9101
-10.9189
-10.9276
-10.936
-10.9442
-10.952
-10.9596
-10.9668
-10.9737
-10.9802
-10.9863
-10.992
-10.9974
-11.0023
-11.0069
-11.011
-11.0146
-11.0179
-11.0206
-11.023
-10.8366
-10.842
-10.8462
-10.8492
-10.8528
-10.8574
-10.8629
-10.8691
-10.8759
-10.883
-10.8905
-10.8982
-10.9059
-10.9136
-10.9213
-10.9289
-10.9363
-10.9434
-10.9504
-10.957
-10.9634
-10.9694
-10.9751
-10.9805
-10.9854
-10.99
-10.9942
-10.9979
-11.0013
-11.0042
-11.0066
-11.0086
-11.0102
-10.8074
-10.7963
-10.793
-10.7966
-10.8038
-10.8127
-10.8225
-10.833
-10.8436
-10.8544
-10.8649
-10.8753
-10.8853
-10.895
-10.9044
-10.9133
-10.9218
-10.93
-10.9377
-10.9449
-10.9517
-10.9581
-10.964
-10.9695
-10.9745
-10.979
-10.9831
-10.9866
-10.9897
-10.9923
-10.9944
-10.9961
-10.9972
-10.8543
-10.8703
-10.8715
-10.8657
-10.8633
-10.8641
-10.8668
-10.8707
-10.8756
-10.8813
-10.8875
-10.8941
-10.9008
-10.9076
-10.9144
-10.9211
-10.9277
-10.934
-10.9401
-10.9459
-10.9514
-10.9566
-10.9613
-10.9657
-10.9697
-10.9733
-10.9764
-10.9791
-10.9813
-10.9831
-10.9845
-10.9853
-10.9857
-10.7446
-10.7065
-10.7009
-10.7245
-10.7443
-10.7622
-10.7798
-10.7967
-10.8125
-10.8273
-10.8412
-10.8541
-10.8662
-10.8775
-10.888
-10.8979
-10.9071
-10.9156
-10.9236
-10.9309
-10.9377
-10.9439
-10.9495
-10.9546
-10.9591
-10.9631
-10.9665
-10.9694
-10.9717
-10.9735
-10.9748
-10.9755
-10.9757
-10.9565
-10.9809
-10.9514
-10.9146
-10.891
-10.8829
-10.8794
-10.8783
-10.8796
-10.8826
-10.8867
-10.8915
-10.8968
-10.9023
-10.908
-10.9137
-10.9194
-10.9248
-10.9301
-10.9351
-10.9398
-10.9442
-10.9482
-10.9518
-10.955
-10.9577
-10.9601
-10.962
-10.9634
-10.9643
-10.9648
-10.9649
-10.9645
-10.5408
-10.459
-10.516
-10.5967
-10.6528
-10.6908
-10.7237
-10.7524
-10.7769
-10.7982
-10.817
-10.8337
-10.8486
-10.8621
-10.8743
-10.8854
-10.8955
-10.9047
-10.9131
-10.9207
-10.9276
-10.9337
-10.9392
-10.9441
-10.9483
-10.9519
-10.9549
-10.9573
-10.9591
-10.9604
-10.961
-10.9611
-10.9606
-11.5171
-11.239
-11.0331
-10.9416
-10.9044
-10.8834
-10.8703
-10.8643
-10.8631
-10.8646
-10.868
-10.8726
-10.878
-10.8838
-10.8898
-10.8959
-10.9018
-10.9076
-10.9132
-10.9184
-10.9233
-10.9278
-10.9319
-10.9355
-10.9387
-10.9415
-10.9437
-10.9455
-10.9468
-10.9476
-10.9479
-10.9477
-10.947
-9.559
-10.1205
-10.425
-10.5409
-10.6221
-10.6852
-10.7298
-10.7634
-10.7902
-10.8121
-10.8303
-10.8459
-10.8595
-10.8715
-10.8823
-10.892
-10.9007
-10.9087
-10.9159
-10.9224
-10.9283
-10.9335
-10.9381
-10.9421
-10.9455
-10.9483
-10.9505
-10.9522
-10.9533
-10.9539
-10.9539
-10.9533
-10.9522
-10.8132
-11.2864
-11.3618
-11.4421
-11.537
-11.6111
-11.6729
-11.7352
-11.8057
-11.8842
-11.9716
-12.066
-12.1638
-12.2615
-12.3556
-12.443
-12.5215
-12.5892
-12.6449
-12.6879
-12.7177
-12.7341
-12.737
-12.7263
-12.702
-12.6637
-12.6112
-12.5442
-12.4622
-12.3647
-12.2515
-12.1223
-11.9769
-11.8152
-11.6372
-11.4432
-11.2336
-11.009
-10.7701
-10.518
-10.2541
-9.97963
-9.69636
-9.40595
-9.11017
-8.81081
-8.50959
-8.20812
-7.90785
-7.60998
-7.31549
-7.02502
-6.73892
-6.45721
-6.1796
-5.90549
-5.63405
-5.36422
-5.09482
-4.82458
-4.55225
-4.2767
-3.99699
-3.71251
-3.42309
-3.12912
-2.8317
-2.53272
-2.23497
-1.94205
-1.65817
-1.38774
-1.13488
-0.903075
-0.694951
-0.512166
-0.355333
-0.224058
-0.117051
-0.0323295
0.0325635
0.0803159
0.113652
0.135173
0.147255
0.151986
0.151153
0.146218
0.138388
0.128549
0.117477
0.10553
0.0933523
0.0806062
0.0685205
0.0551033
0.0443022
0.0287065
0.0222289
-0.00145984
-11.6038
-11.8263
-11.7409
-11.6709
-11.6496
-11.6461
-11.6567
-11.6927
-11.7488
-11.8223
-11.9102
-12.0074
-12.1085
-12.2087
-12.304
-12.3913
-12.4686
-12.5345
-12.5882
-12.6291
-12.6571
-12.672
-12.6736
-12.6618
-12.6366
-12.5976
-12.5446
-12.4771
-12.3949
-12.2974
-12.1845
-12.0558
-11.9111
-11.7506
-11.5741
-11.3819
-11.1744
-10.9523
-10.7162
-10.4673
-10.2067
-9.93583
-9.65631
-9.36976
-9.07787
-8.78238
-8.48493
-8.18708
-7.89023
-7.59555
-7.30396
-7.01611
-6.73232
-6.45263
-6.17674
-5.90409
-5.63385
-5.36503
-5.09644
-4.82688
-4.55513
-4.2801
-4.0009
-3.71701
-3.42836
-3.13549
-2.83964
-2.54287
-2.24806
-1.95872
-1.67881
-1.4123
-1.16295
-0.933953
-0.727816
-0.546147
-0.389583
-0.257809
-0.149648
-0.0632553
0.00368147
0.0537136
0.0894454
0.113379
0.127817
0.134794
0.136061
0.133063
0.126997
0.118754
0.109117
0.0984561
0.0874321
0.0757218
0.0645801
0.0520049
0.0420239
0.0270867
0.0214691
-0.00193006
-11.2548
-11.3374
-11.3818
-11.4384
-11.5078
-11.571
-11.6314
-11.6851
-11.748
-11.8184
-11.896
-11.98
-12.0679
-12.1567
-12.2434
-12.3249
-12.3989
-12.4633
-12.5167
-12.5578
-12.5861
-12.6011
-12.6027
-12.5908
-12.5652
-12.5259
-12.4726
-12.4049
-12.3226
-12.2254
-12.1129
-11.985
-11.8414
-11.6822
-11.5075
-11.3175
-11.1125
-10.8932
-10.6603
-10.4149
-10.158
-9.89108
-9.61561
-9.33317
-9.0454
-8.75394
-8.46038
-8.16621
-7.87279
-7.58123
-7.29244
-7.00705
-6.72537
-6.44744
-6.17299
-5.90148
-5.63213
-5.36396
-5.09586
-4.82665
-4.55521
-4.2805
-4.00177
-3.7186
-3.43106
-3.13983
-2.84628
-2.55252
-2.26135
-1.97607
-1.70029
-1.43767
-1.1917
-0.965402
-0.761175
-0.580587
-0.424289
-0.292031
-0.182743
-0.0947073
-0.0257499
0.0265469
0.0646696
0.0910222
0.107832
0.117078
0.120477
0.119452
0.115192
0.108586
0.100426
0.091093
0.0812633
0.0706279
0.0604652
0.0487673
0.0396345
0.0253903
0.020648
-0.00241789
-11.3672
-11.517
-11.5793
-11.5981
-11.6185
-11.6409
-11.6667
-11.7012
-11.7463
-11.8076
-11.8786
-11.957
-12.0395
-12.1225
-12.2028
-12.2776
-12.3449
-12.403
-12.4507
-12.4872
-12.512
-12.5245
-12.5244
-12.5115
-12.4854
-12.4459
-12.3927
-12.3254
-12.2436
-12.1471
-12.0355
-11.9088
-11.7667
-11.6093
-11.4368
-11.2492
-11.047
-10.8309
-10.6015
-10.3597
-10.1069
-9.84409
-9.57288
-9.29474
-9.01124
-8.72393
-8.43436
-8.14394
-7.85397
-7.56553
-7.27949
-6.99646
-6.71676
-6.44043
-6.16724
-5.89668
-5.628
-5.3603
-5.09254
-4.82362
-4.55251
-4.27829
-4.00033
-3.71831
-3.43245
-3.14351
-2.8529
-2.56267
-2.27544
-1.9943
-1.72258
-1.46372
-1.221
-0.997312
-0.794944
-0.61542
-0.459397
-0.326682
-0.216299
-0.126653
-0.0557038
-0.00116213
0.0393417
0.0681146
0.0873077
0.0988446
0.104403
0.105385
0.102968
0.0980403
0.0913985
0.083435
0.0748397
0.0653181
0.0561705
0.0453848
0.0371308
0.0236113
0.0197679
-0.00292901
-11.3352
-11.409
-11.4453
-11.4759
-11.5182
-11.564
-11.6111
-11.6622
-11.723
-11.7861
-11.8547
-11.9281
-12.004
-12.0799
-12.1534
-12.2222
-12.2845
-12.3385
-12.383
-12.4168
-12.4392
-12.4496
-12.4477
-12.4331
-12.4057
-12.365
-12.3109
-12.2431
-12.1612
-12.0649
-11.954
-11.8282
-11.6875
-11.5319
-11.3615
-11.1764
-10.9772
-10.7643
-10.5384
-10.3006
-10.0519
-9.7934
-9.52661
-9.25292
-8.97384
-8.69084
-8.40539
-8.11884
-7.83243
-7.5472
-7.26399
-6.98337
-6.70569
-6.43099
-6.15906
-5.88945
-5.62149
-5.35433
-5.08702
-4.81857
-4.54805
-4.27466
-3.99787
-3.71749
-3.4338
-3.14759
-2.86025
-2.57372
-2.29046
-2.01336
-1.74556
-1.49033
-1.25076
-1.02961
-0.829067
-0.6506
-0.494867
-0.361722
-0.250279
-0.159058
-0.0861472
-0.0293832
0.0134894
0.0446811
0.0662661
0.0801111
0.0878549
0.0908746
0.0903361
0.0871253
0.0820416
0.0754878
0.0681661
0.0597965
0.0516993
0.0418604
0.0345155
0.0217525
0.0188324
-0.00346152
-11.3397
-11.4134
-11.47
-11.5123
-11.552
-11.5907
-11.6307
-11.6695
-11.7173
-11.773
-11.8349
-11.9014
-11.9705
-12.0398
-12.1069
-12.1698
-12.2264
-12.2751
-12.3148
-12.3445
-12.3634
-12.371
-12.3668
-12.3505
-12.3217
-12.2801
-12.2254
-12.1573
-12.0754
-11.9794
-11.8692
-11.7444
-11.6051
-11.4512
-11.2829
-11.1003
-10.904
-10.6943
-10.4721
-10.2382
-9.99357
-9.73945
-9.47713
-9.20796
-8.93336
-8.65476
-8.37353
-8.09097
-7.80824
-7.52635
-7.24609
-6.96803
-6.6925
-6.41957
-6.14906
-5.88058
-5.61351
-5.34709
-5.08047
-4.81276
-4.54313
-4.2709
-3.99562
-3.71719
-3.43592
-3.15261
-2.86859
-2.58571
-2.3063
-2.03311
-1.76912
-1.5174
-1.2809
-1.06224
-0.863503
-0.686093
-0.530667
-0.397121
-0.284655
-0.191897
-0.117058
-0.0580967
-0.0128706
0.0207353
0.0447181
0.0608866
0.0708388
0.0759259
0.0773
0.0758428
0.072356
0.0672514
0.061242
0.0540621
0.0470507
0.038193
0.031788
0.019813
0.0178426
-0.00401639
-11.3359
-11.3937
-11.4403
-11.4773
-11.5148
-11.5539
-11.5952
-11.6426
-11.6927
-11.7479
-11.8071
-11.8695
-11.9334
-11.997
-12.0583
-12.1155
-12.1668
-12.2108
-12.2463
-12.2724
-12.2881
-12.293
-12.2865
-12.2683
-12.2379
-12.195
-12.1393
-12.0706
-11.9884
-11.8925
-11.7827
-11.6589
-11.5208
-11.3686
-11.2024
-11.0224
-10.8289
-10.6226
-10.404
-10.174
-9.93354
-9.68383
-9.42602
-9.16144
-8.89141
-8.61727
-8.34034
-8.06183
-7.78287
-7.50439
-7.22717
-6.95176
-6.67849
-6.40745
-6.1385
-5.87128
-5.60526
-5.33976
-5.07402
-4.80725
-4.53871
-4.26781
-3.9942
-3.71782
-3.43901
-3.15858
-2.87781
-2.59849
-2.32283
-2.05344
-1.79315
-1.54487
-1.31138
-1.09517
-0.898216
-0.721865
-0.566765
-0.432851
-0.319399
-0.225143
-0.148411
-0.0872802
-0.0397188
-0.00370613
0.0226775
0.0411821
0.0533635
0.0605454
0.0638643
0.0641963
0.0623439
0.058727
0.0540678
0.048115
0.0422246
0.0343823
0.0289483
0.0177925
0.0168004
-0.00459489
-11.332
-11.3822
-11.428
-11.4682
-11.5079
-11.5481
-11.5883
-11.6312
-11.6772
-11.7275
-11.7817
-11.8385
-11.8966
-11.9544
-12.0099
-12.0616
-12.1078
-12.1471
-12.1784
-12.2007
-12.2132
-12.2153
-12.2064
-12.1861
-12.1541
-12.11
-12.0534
-11.9841
-11.9017
-11.8059
-11.6967
-11.5737
-11.437
-11.2865
-11.1223
-10.9448
-10.7542
-10.5512
-10.3362
-10.1101
-9.87385
-9.6285
-9.37519
-9.11515
-8.84964
-8.57993
-8.30725
-8.03277
-7.75753
-7.48246
-7.20828
-6.93553
-6.66455
-6.39544
-6.1281
-5.86222
-5.59735
-5.33287
-5.0681
-4.80236
-4.535
-4.26551
-3.9936
-3.71928
-3.44293
-3.16534
-2.88777
-2.61192
-2.33993
-2.07426
-1.8176
-1.57269
-1.34216
-1.12837
-0.933179
-0.757888
-0.603133
-0.46888
-0.354481
-0.258767
-0.180179
-0.11691
-0.067034
-0.0286249
0.000159851
0.0210106
0.0354394
0.0447414
0.0500354
0.0521909
0.0520091
0.0499173
0.0466456
0.0419565
0.0372219
0.030429
0.0259972
0.0156911
0.0157078
-0.00519838
-11.3267
-11.3709
-11.413
-11.4516
-11.4893
-11.5276
-11.5671
-11.609
-11.6537
-11.7016
-11.7522
-11.8047
-11.858
-11.9105
-11.9608
-12.0073
-12.0486
-12.0835
-12.1107
-12.1294
-12.1387
-12.138
-12.1268
-12.1047
-12.0711
-12.0257
-11.9682
-11.8983
-11.8157
-11.7202
-11.6114
-11.4894
-11.3539
-11.2052
-11.0431
-10.8681
-10.6804
-10.4806
-10.2692
-10.047
-9.81483
-9.57377
-9.32486
-9.06928
-8.80819
-8.54282
-8.27432
-8.00379
-7.73223
-7.46052
-7.18935
-6.91927
-6.65059
-6.38345
-6.11777
-5.8533
-5.58964
-5.32626
-5.06256
-4.79793
-4.53181
-4.26379
-3.99363
-3.72141
-3.44751
-3.17275
-2.89833
-2.62592
-2.35754
-2.09553
-1.84243
-1.60083
-1.37322
-1.1618
-0.968361
-0.794132
-0.639739
-0.505179
-0.389871
-0.292741
-0.212336
-0.146961
-0.0947938
-0.0540013
-0.022818
0.000386186
0.0170785
0.0285237
0.0358214
0.0398328
0.0413567
0.0408263
0.0389785
0.0355891
0.0320446
0.0263345
0.0229361
0.0135095
0.0145673
-0.00582842
-11.3203
-11.3601
-11.3993
-11.4368
-11.4738
-11.5113
-11.5496
-11.5897
-11.6318
-11.6763
-11.7228
-11.7708
-11.8191
-11.8665
-11.9117
-11.9532
-11.9898
-12.0203
-12.0435
-12.0586
-12.0648
-12.0614
-12.0479
-12.0238
-11.9886
-11.9421
-11.8837
-11.8133
-11.7306
-11.6352
-11.527
-11.4059
-11.2718
-11.1247
-10.9648
-10.7922
-10.6074
-10.4107
-10.2028
-9.9844
-9.75629
-9.51942
-9.27482
-9.02358
-8.76683
-8.5057
-8.24129
-7.97464
-7.70671
-7.43832
-7.17016
-6.90273
-6.63638
-6.37125
-6.10729
-5.8443
-5.58194
-5.31975
-5.05721
-4.79378
-4.529
-4.26251
-3.99417
-3.72408
-3.45266
-3.18072
-2.90946
-2.64045
-2.37563
-2.11722
-1.86762
-1.62927
-1.40452
-1.19545
-1.00374
-0.830568
-0.676553
-0.541716
-0.425539
-0.327034
-0.244853
-0.177406
-0.122974
-0.0798142
-0.0462375
-0.0206752
-0.0017058
0.0119035
0.0212317
0.0271298
0.030393
0.0314593
0.0310707
0.0290162
0.0266955
0.0221009
0.0197672
0.0112487
0.0133816
-0.00648661
-11.313
-11.3492
-11.3857
-11.4214
-11.4568
-11.4927
-11.5294
-11.5674
-11.6071
-11.6486
-11.6916
-11.7354
-11.7792
-11.8219
-11.8623
-11.8991
-11.9312
-11.9574
-11.9768
-11.9884
-11.9916
-11.9855
-11.9697
-11.9437
-11.9069
-11.8592
-11.8
-11.7291
-11.6461
-11.551
-11.4433
-11.3232
-11.1904
-11.045
-10.8871
-10.717
-10.535
-10.3414
-10.137
-9.92224
-9.69804
-9.46527
-9.22487
-8.97789
-8.72537
-8.46839
-8.20799
-7.94516
-7.6808
-7.41571
-7.15053
-6.88578
-6.62179
-6.3587
-6.09653
-5.83511
-5.57414
-5.31324
-5.05195
-4.78983
-4.52647
-4.26161
-3.99515
-3.72724
-3.45834
-3.18924
-2.92111
-2.65547
-2.39417
-2.1393
-1.89314
-1.65799
-1.43604
-1.22927
-1.03927
-0.867166
-0.713544
-0.57846
-0.461452
-0.361615
-0.2777
-0.208218
-0.15155
-0.106041
-0.0700789
-0.0421563
-0.0208986
-0.00510642
0.00627703
0.0140913
0.019126
0.0218229
0.0229278
0.0222425
0.0211785
0.0177314
0.0164932
0.00891048
0.0121539
-0.00717459
-11.3048
-11.3381
-11.372
-11.4058
-11.4396
-11.4738
-11.5088
-11.5447
-11.5819
-11.6203
-11.6597
-11.6995
-11.739
-11.7771
-11.8129
-11.8452
-11.8729
-11.8951
-11.9107
-11.9189
-11.919
-11.9103
-11.8922
-11.8643
-11.826
-11.777
-11.717
-11.6455
-11.5625
-11.4675
-11.3604
-11.2412
-11.1097
-10.9659
-10.8101
-10.6424
-10.4631
-10.2726
-10.0715
-9.86037
-9.64001
-9.41122
-9.17493
-8.93209
-8.68371
-8.4308
-8.17434
-7.91526
-7.65443
-7.39261
-7.13042
-6.86835
-6.60675
-6.34577
-6.08546
-5.82568
-5.5662
-5.30668
-5.04676
-4.78604
-4.52422
-4.26107
-3.99656
-3.73089
-3.46453
-3.19829
-2.93328
-2.67098
-2.41314
-2.16176
-1.91897
-1.68695
-1.46776
-1.26326
-1.07495
-0.903896
-0.750682
-0.61538
-0.497579
-0.396454
-0.310848
-0.239369
-0.180495
-0.132658
-0.0943208
-0.0640383
-0.0404836
-0.0224918
-0.00903022
0.000727898
0.00756481
0.011925
0.0145567
0.0152738
0.0154987
0.0132302
0.013118
0.00649722
0.0108878
-0.00789391
-11.2958
-11.3265
-11.3581
-11.3898
-11.4218
-11.4542
-11.4872
-11.5209
-11.5555
-11.5909
-11.6268
-11.6628
-11.6981
-11.732
-11.7634
-11.7914
-11.815
-11.8332
-11.8452
-11.8501
-11.8472
-11.8359
-11.8155
-11.7857
-11.7459
-11.6957
-11.6348
-11.5628
-11.4796
-11.3848
-11.2783
-11.1599
-11.0297
-10.8876
-10.7337
-10.5683
-10.3917
-10.2042
-10.0064
-9.79876
-9.58213
-9.35723
-9.12494
-8.88615
-8.64182
-8.39289
-8.14029
-7.88492
-7.62758
-7.369
-7.10979
-6.85043
-6.59125
-6.33244
-6.07405
-5.816
-5.5581
-5.30008
-5.04163
-4.78243
-4.52222
-4.26087
-3.99839
-3.73501
-3.47123
-3.20784
-2.94594
-2.68694
-2.43252
-2.18457
-1.94509
-1.71613
-1.49965
-1.29737
-1.11072
-0.940725
-0.787934
-0.652441
-0.533887
-0.431518
-0.344264
-0.270829
-0.209781
-0.159639
-0.11894
-0.0863009
-0.0604428
-0.040237
-0.0246762
-0.0129483
-0.00427989
0.00177513
0.00596554
0.0081174
0.00966228
0.00860255
0.009646
0.00401206
0.00958715
-0.00864592
-11.2859
-11.3144
-11.3437
-11.3735
-11.4035
-11.434
-11.4649
-11.4963
-11.5283
-11.5607
-11.5933
-11.6256
-11.657
-11.6867
-11.714
-11.7379
-11.7575
-11.7719
-11.7804
-11.782
-11.7762
-11.7623
-11.7397
-11.708
-11.6666
-11.6152
-11.5535
-11.481
-11.3975
-11.3029
-11.1969
-11.0794
-10.9504
-10.8099
-10.658
-10.4949
-10.3208
-10.1362
-9.94158
-9.73742
-9.52441
-9.30331
-9.07491
-8.84008
-8.5997
-8.35466
-8.10586
-7.85413
-7.60024
-7.34488
-7.08865
-6.83201
-6.57529
-6.3187
-6.06231
-5.80608
-5.54986
-5.29344
-5.03656
-4.77898
-4.52049
-4.26102
-4.00063
-3.73959
-3.47841
-3.21788
-2.95908
-2.70335
-2.4523
-2.2077
-1.97146
-1.74551
-1.53167
-1.33158
-1.14658
-0.977623
-0.825267
-0.689612
-0.570343
-0.466774
-0.377917
-0.302567
-0.23938
-0.186959
-0.143914
-0.108923
-0.0807569
-0.0583246
-0.0406456
-0.0269237
-0.0163959
-0.00861605
-0.00283605
0.000781627
0.00367649
0.00385471
0.0060826
0.00145896
0.00825617
-0.00943161
-11.2753
-11.3017
-11.3289
-11.3567
-11.3847
-11.4131
-11.4418
-11.4709
-11.5003
-11.5297
-11.5591
-11.5879
-11.6155
-11.6414
-11.6647
-11.6847
-11.7004
-11.7112
-11.7162
-11.7148
-11.7061
-11.6897
-11.6649
-11.6313
-11.5883
-11.5357
-11.4731
-11.4001
-11.3164
-11.2219
-11.1164
-10.9998
-10.872
-10.733
-10.583
-10.4221
-10.2505
-10.0688
-9.8772
-9.67636
-9.46688
-9.24946
-9.02486
-8.79388
-8.55735
-8.31613
-8.07105
-7.8229
-7.57242
-7.32026
-7.06701
-6.8131
-6.55889
-6.30457
-6.05026
-5.79593
-5.54149
-5.28676
-5.03156
-4.77569
-4.51902
-4.26152
-4.00328
-3.74463
-3.48607
-3.22841
-2.97268
-2.72018
-2.47243
-2.23113
-1.99807
-1.77505
-1.5638
-1.36585
-1.18247
-1.01456
-0.862648
-0.726858
-0.606912
-0.502188
-0.411775
-0.334552
-0.269263
-0.214589
-0.169216
-0.13188
-0.101405
-0.0767358
-0.0569214
-0.0411829
-0.0287697
-0.0192362
-0.0118372
-0.00672375
-0.00245018
-0.00100591
0.00243402
-0.00115731
0.00689925
-0.0102514
-11.2639
-11.2884
-11.3136
-11.3394
-11.3654
-11.3917
-11.4182
-11.4449
-11.4716
-11.4982
-11.5244
-11.5498
-11.5739
-11.596
-11.6156
-11.6318
-11.6439
-11.6512
-11.6529
-11.6483
-11.6369
-11.618
-11.591
-11.5555
-11.5111
-11.4573
-11.3937
-11.3202
-11.2363
-11.142
-11.0369
-10.9211
-10.7944
-10.6569
-10.5087
-10.3499
-10.1808
-10.0018
-9.81323
-9.61563
-9.40957
-9.19573
-8.97481
-8.74758
-8.51482
-8.27733
-8.03589
-7.79126
-7.54415
-7.29517
-7.04489
-6.79374
-6.54206
-6.29008
-6.0379
-5.78556
-5.53299
-5.28006
-5.02664
-4.77259
-4.51782
-4.26235
-4.00633
-3.7501
-3.49419
-3.23939
-2.9867
-2.73739
-2.49289
-2.25482
-2.02487
-1.80472
-1.59601
-1.40016
-1.21837
-1.05149
-0.900042
-0.764145
-0.643562
-0.537727
-0.445804
-0.366753
-0.299398
-0.242502
-0.194819
-0.155149
-0.122364
-0.0954501
-0.073485
-0.055709
-0.0413858
-0.0300715
-0.0210254
-0.0143876
-0.00870802
-0.00597073
-0.00129274
-0.00383102
0.00552095
-0.0111052
-11.2518
-11.2745
-11.2978
-11.3215
-11.3456
-11.3698
-11.394
-11.4183
-11.4424
-11.4662
-11.4893
-11.5115
-11.5321
-11.5507
-11.5667
-11.5793
-11.5879
-11.5918
-11.5903
-11.5828
-11.5687
-11.5473
-11.5182
-11.4809
-11.435
-11.3799
-11.3155
-11.2414
-11.1573
-11.063
-10.9584
-10.8433
-10.7178
-10.5817
-10.4352
-10.2785
-10.1118
-9.93543
-9.74975
-9.55527
-9.35254
-9.14216
-8.92482
-8.70123
-8.47214
-8.23828
-8.00042
-7.75925
-7.51546
-7.26964
-7.02232
-6.77394
-6.52483
-6.27522
-6.02526
-5.77499
-5.52437
-5.27334
-5.0218
-4.76965
-4.51687
-4.26351
-4.00977
-3.756
-3.50275
-3.2508
-3.00114
-2.75496
-2.51366
-2.27875
-2.05183
-1.83449
-1.62825
-1.43446
-1.25424
-1.08839
-0.937416
-0.801438
-0.680256
-0.573356
-0.479971
-0.399136
-0.329755
-0.270668
-0.220697
-0.178703
-0.143611
-0.114445
-0.0903161
-0.0704835
-0.0542272
-0.0411064
-0.0303868
-0.0221972
-0.0150861
-0.01103
-0.00508995
-0.00655546
0.0041258
-0.0119916
-11.239
-11.2599
-11.2814
-11.3032
-11.3252
-11.3473
-11.3694
-11.3912
-11.4128
-11.4338
-11.454
-11.4729
-11.4903
-11.5055
-11.518
-11.5272
-11.5325
-11.5332
-11.5286
-11.5183
-11.5015
-11.4778
-11.4466
-11.4075
-11.36
-11.3038
-11.2385
-11.1638
-11.0795
-10.9853
-10.881
-10.7667
-10.6422
-10.5075
-10.3627
-10.208
-10.0435
-9.86969
-9.68681
-9.49535
-9.29582
-9.08881
-8.87494
-8.65488
-8.42935
-8.19905
-7.96467
-7.72691
-7.48639
-7.24369
-6.99933
-6.75373
-6.50722
-6.26005
-6.01236
-5.76423
-5.51566
-5.26662
-5.01704
-4.76689
-4.51618
-4.26501
-4.01359
-3.76231
-3.51173
-3.26262
-3.01594
-2.77286
-2.53469
-2.30287
-2.07891
-1.86432
-1.6605
-1.46873
-1.29005
-1.12523
-0.974733
-0.838703
-0.71696
-0.609041
-0.514241
-0.431667
-0.360302
-0.299054
-0.246819
-0.202516
-0.16512
-0.133698
-0.107393
-0.085486
-0.0672753
-0.0523237
-0.0399058
-0.0301384
-0.0215721
-0.0161725
-0.00894909
-0.00932274
0.00271826
-0.0129083
-11.2256
-11.2449
-11.2645
-11.2844
-11.3044
-11.3244
-11.3443
-11.3638
-11.3828
-11.4011
-11.4184
-11.4344
-11.4486
-11.4605
-11.4698
-11.4757
-11.4778
-11.4754
-11.4679
-11.4548
-11.4354
-11.4094
-11.3762
-11.3353
-11.2863
-11.2289
-11.1628
-11.0875
-11.0029
-10.9087
-10.8049
-10.6912
-10.5677
-10.4343
-10.2911
-10.1383
-9.97605
-9.80466
-9.62448
-9.43593
-9.2395
-9.03572
-8.82521
-8.60859
-8.38651
-8.15966
-7.9287
-7.69427
-7.45698
-7.21738
-6.97596
-6.73315
-6.48927
-6.24457
-5.99921
-5.7533
-5.50687
-5.2599
-5.01238
-4.76432
-4.51575
-4.26682
-4.01777
-3.76901
-3.52111
-3.27482
-3.0311
-2.79105
-2.55595
-2.32715
-2.10609
-1.89417
-1.69271
-1.50292
-1.32575
-1.16196
-1.01196
-0.875903
-0.753639
-0.644746
-0.548579
-0.464314
-0.391004
-0.327631
-0.273155
-0.226557
-0.186863
-0.153182
-0.124691
-0.100694
-0.0805093
-0.0637043
-0.049565
-0.0381953
-0.0281524
-0.0213858
-0.0128609
-0.0121237
0.0013025
-0.0138513
-11.2117
-11.2293
-11.2472
-11.2652
-11.2833
-11.3012
-11.3188
-11.336
-11.3525
-11.3682