/*--------------------------------*- C++ -*----------------------------------*\
  =========                 |
  \\      /  F ield         | OpenFOAM: The Open Source CFD Toolbox
   \\    /   O peration     | Website:  https://openfoam.org
    \\  /    A nd           | Version:  10
     \\/     M anipulation  |
\*---------------------------------------------------------------------------*/
FoamFile
{
    format      ascii;
    class       surfaceScalarField;
    location    "0.13";
    object      phi;
}
// * * * * * * * * * * * * * * * * * * * * * * * * * * * * * * * * * * * * * //

dimensions      [0 3 -1 0 0 0 0];

internalField   nonuniform List<scalar> 
13452
(
6.05771e-05
-3.08617e-07
6.03707e-05
2.06402e-07
5.98987e-05
4.72022e-07
5.92848e-05
6.13897e-07
5.86791e-05
6.05658e-07
5.81419e-05
5.37207e-07
5.76758e-05
4.66112e-07
5.72707e-05
4.0513e-07
5.69152e-05
3.5548e-07
5.65994e-05
3.15791e-07
5.63155e-05
2.83884e-07
5.60577e-05
2.57798e-07
5.58216e-05
2.36054e-07
5.56041e-05
2.1758e-07
5.54024e-05
2.01615e-07
5.52148e-05
1.87617e-07
5.50396e-05
1.75203e-07
5.48755e-05
1.64098e-07
5.47214e-05
1.54106e-07
5.45763e-05
1.45086e-07
5.44394e-05
1.36949e-07
5.43097e-05
1.29651e-07
5.41865e-05
1.23199e-07
5.40689e-05
1.1768e-07
5.39556e-05
1.13282e-07
5.38451e-05
1.10485e-07
5.37351e-05
1.09987e-07
5.36211e-05
1.14047e-07
5.34949e-05
1.26155e-07
5.33419e-05
1.53051e-07
5.31061e-05
2.3571e-07
5.27582e-05
3.47938e-07
6.81617e-07
5.20766e-05
6.18026e-05
-1.20904e-07
6.17624e-05
2.46577e-07
6.18792e-05
3.5531e-07
6.20405e-05
4.52591e-07
6.21469e-05
4.99239e-07
6.21759e-05
5.08189e-07
6.21421e-05
4.99964e-07
6.20661e-05
4.81076e-07
6.19645e-05
4.57092e-07
6.18484e-05
4.31854e-07
6.17251e-05
4.07184e-07
6.15991e-05
3.83835e-07
6.14731e-05
3.62077e-07
6.13487e-05
3.41938e-07
6.1227e-05
3.23335e-07
6.11085e-05
3.06148e-07
6.09934e-05
2.90252e-07
6.0882e-05
2.75532e-07
6.07742e-05
2.61892e-07
6.067e-05
2.49259e-07
6.05694e-05
2.37588e-07
6.04722e-05
2.26866e-07
6.03782e-05
2.17126e-07
6.02875e-05
2.08466e-07
6.01996e-05
2.01095e-07
6.01147e-05
1.95379e-07
6.00327e-05
1.92077e-07
5.99546e-05
1.9215e-07
5.98816e-05
1.99155e-07
5.98226e-05
2.11975e-07
5.98038e-05
2.54568e-07
5.98653e-05
2.86399e-07
4.26492e-07
6.01204e-05
6.36612e-05
-2.07228e-08
6.37527e-05
1.55064e-07
6.38147e-05
2.93318e-07
6.38674e-05
3.99909e-07
6.39104e-05
4.56274e-07
6.39419e-05
4.76617e-07
6.39623e-05
4.79612e-07
6.39699e-05
4.73481e-07
6.39651e-05
4.61843e-07
6.39497e-05
4.47254e-07
6.39257e-05
4.31231e-07
6.38949e-05
4.14644e-07
6.38589e-05
3.98029e-07
6.38192e-05
3.81708e-07
6.37766e-05
3.65864e-07
6.37322e-05
3.506e-07
6.36865e-05
3.35971e-07
6.364e-05
3.2201e-07
6.35931e-05
3.08738e-07
6.35462e-05
2.96176e-07
6.34995e-05
2.84361e-07
6.3453e-05
2.7335e-07
6.34069e-05
2.63244e-07
6.33611e-05
2.54203e-07
6.33157e-05
2.46507e-07
6.32705e-05
2.4056e-07
6.32254e-05
2.37209e-07
6.31804e-05
2.37181e-07
6.31357e-05
2.43778e-07
6.30922e-05
2.555e-07
6.30585e-05
2.88296e-07
6.30273e-05
3.17568e-07
4.01245e-07
6.30526e-05
6.55759e-05
-1.35866e-08
6.55537e-05
1.77349e-07
6.55644e-05
2.82559e-07
6.56052e-05
3.59133e-07
6.56542e-05
4.07236e-07
6.56993e-05
4.31543e-07
6.57368e-05
4.4211e-07
6.57664e-05
4.43869e-07
6.57887e-05
4.39572e-07
6.58044e-05
4.31532e-07
6.58144e-05
4.21242e-07
6.58194e-05
4.09589e-07
6.58203e-05
3.97155e-07
6.58177e-05
3.84334e-07
6.58122e-05
3.71389e-07
6.58043e-05
3.58503e-07
6.57944e-05
3.45811e-07
6.5783e-05
3.33412e-07
6.57704e-05
3.21392e-07
6.57567e-05
3.09829e-07
6.57423e-05
2.9881e-07
6.57272e-05
2.88442e-07
6.57116e-05
2.78868e-07
6.56955e-05
2.7029e-07
6.5679e-05
2.63017e-07
6.56621e-05
2.57457e-07
6.56449e-05
2.54374e-07
6.56277e-05
2.54406e-07
6.56117e-05
2.59762e-07
6.55975e-05
2.69653e-07
6.55945e-05
2.91357e-07
6.56003e-05
3.11699e-07
3.4757e-07
6.5654e-05
6.74265e-05
1.66952e-08
6.74515e-05
1.52384e-07
6.74798e-05
2.54185e-07
6.75108e-05
3.28124e-07
6.75417e-05
3.76407e-07
6.75716e-05
4.01659e-07
6.76004e-05
4.13267e-07
6.76275e-05
4.16771e-07
6.76522e-05
4.14877e-07
6.76742e-05
4.09523e-07
6.76935e-05
4.01952e-07
6.77102e-05
3.9291e-07
6.77244e-05
3.82903e-07
6.77365e-05
3.72285e-07
6.77466e-05
3.6131e-07
6.77549e-05
3.50164e-07
6.77617e-05
3.38992e-07
6.77672e-05
3.27914e-07
6.77716e-05
3.17035e-07
6.77749e-05
3.06457e-07
6.77775e-05
2.96289e-07
6.77792e-05
2.86658e-07
6.77804e-05
2.77728e-07
6.7781e-05
2.6971e-07
6.77811e-05
2.62904e-07
6.77808e-05
2.57683e-07
6.77806e-05
2.54665e-07
6.77806e-05
2.54337e-07
6.77823e-05
2.58047e-07
6.77868e-05
2.65239e-07
6.77992e-05
2.78923e-07
6.7819e-05
2.9184e-07
3.08481e-07
6.78581e-05
6.93768e-05
2.38866e-08
6.93865e-05
1.42736e-07
6.94049e-05
2.35776e-07
6.94312e-05
3.01856e-07
6.94611e-05
3.46493e-07
6.94908e-05
3.71912e-07
6.95192e-05
3.84909e-07
6.95459e-05
3.90091e-07
6.95708e-05
3.8991e-07
6.95942e-05
3.86181e-07
6.9616e-05
3.80139e-07
6.96364e-05
3.72545e-07
6.96554e-05
3.63903e-07
6.96731e-05
3.54562e-07
6.96896e-05
3.44771e-07
6.97051e-05
3.34712e-07
6.97195e-05
3.24531e-07
6.97331e-05
3.14348e-07
6.97459e-05
3.04273e-07
6.97579e-05
2.94414e-07
6.97693e-05
2.84884e-07
6.97801e-05
2.75816e-07
6.97905e-05
2.6737e-07
6.98005e-05
2.59745e-07
6.98102e-05
2.53207e-07
6.98198e-05
2.48064e-07
6.98297e-05
2.44761e-07
6.98404e-05
2.43622e-07
6.98531e-05
2.45338e-07
6.98689e-05
2.49411e-07
6.98912e-05
2.56629e-07
6.99203e-05
2.62741e-07
2.67479e-07
6.99613e-05
7.13593e-05
3.08928e-08
7.1371e-05
1.31035e-07
7.13922e-05
2.14628e-07
7.14182e-05
2.75815e-07
7.1446e-05
3.18712e-07
7.14732e-05
3.44697e-07
7.14994e-05
3.58756e-07
7.15244e-05
3.65013e-07
7.15485e-05
3.65893e-07
7.15715e-05
3.63154e-07
7.15936e-05
3.58018e-07
7.16149e-05
3.51256e-07
7.16354e-05
3.43384e-07
7.16552e-05
3.34758e-07
7.16744e-05
3.25631e-07
7.16929e-05
3.16191e-07
7.17108e-05
3.06581e-07
7.17283e-05
2.96924e-07
7.17452e-05
2.87329e-07
7.17617e-05
2.77901e-07
7.17778e-05
2.68752e-07
7.17937e-05
2.60007e-07
7.18092e-05
2.51813e-07
7.18246e-05
2.44343e-07
7.184e-05
2.3781e-07
7.18556e-05
2.32446e-07
7.18719e-05
2.28538e-07
7.18892e-05
2.26252e-07
7.19087e-05
2.25844e-07
7.19313e-05
2.26814e-07
7.1959e-05
2.28966e-07
7.19921e-05
2.29655e-07
2.27455e-07
7.20321e-05
7.34033e-05
3.28304e-08
7.34141e-05
1.20304e-07
7.34328e-05
1.95873e-07
7.34563e-05
2.52329e-07
7.34823e-05
2.92713e-07
7.35086e-05
3.18381e-07
7.35343e-05
3.33056e-07
7.35591e-05
3.40208e-07
7.3583e-05
3.4204e-07
7.3606e-05
3.40169e-07
7.36282e-05
3.35772e-07
7.36498e-05
3.29635e-07
7.36709e-05
3.22292e-07
7.36916e-05
3.14123e-07
7.37118e-05
3.05394e-07
7.37317e-05
2.96305e-07
7.37513e-05
2.87007e-07
7.37706e-05
2.77626e-07
7.37896e-05
2.68271e-07
7.38085e-05
2.59047e-07
7.38272e-05
2.50058e-07
7.38457e-05
2.41418e-07
7.38643e-05
2.33253e-07
7.38829e-05
2.25705e-07
7.39018e-05
2.18931e-07
7.39212e-05
2.13085e-07
7.39414e-05
2.08322e-07
7.3963e-05
2.04681e-07
7.39867e-05
2.02152e-07
7.40132e-05
2.00238e-07
7.40438e-05
1.98383e-07
7.40786e-05
1.94852e-07
1.88233e-07
7.41179e-05
7.55023e-05
3.30228e-08
7.55123e-05
1.10237e-07
7.55301e-05
1.78134e-07
7.55524e-05
2.30023e-07
7.55772e-05
2.67904e-07
7.56026e-05
2.92984e-07
7.56277e-05
3.07996e-07
7.56521e-05
3.15795e-07
7.56757e-05
3.18369e-07
7.56987e-05
3.17205e-07
7.57211e-05
3.13421e-07
7.57429e-05
3.07795e-07
7.57643e-05
3.00871e-07
7.57854e-05
2.93039e-07
7.58062e-05
2.84583e-07
7.58268e-05
2.7571e-07
7.58472e-05
2.66583e-07
7.58675e-05
2.57331e-07
7.58877e-05
2.48065e-07
7.59079e-05
2.38889e-07
7.5928e-05
2.29899e-07
7.59483e-05
2.21195e-07
7.59686e-05
2.12883e-07
7.59893e-05
2.05068e-07
7.60103e-05
1.97858e-07
7.60321e-05
1.91337e-07
7.60549e-05
1.85561e-07
7.60791e-05
1.80475e-07
7.61053e-05
1.75927e-07
7.61341e-05
1.71448e-07
7.6166e-05
1.66416e-07
7.62012e-05
1.59656e-07
1.50081e-07
7.62394e-05
7.76607e-05
3.18652e-08
7.76704e-05
1.00603e-07
7.76869e-05
1.61583e-07
7.77078e-05
2.0917e-07
7.77312e-05
2.44482e-07
7.77556e-05
2.6858e-07
7.77801e-05
2.83532e-07
7.78042e-05
2.91676e-07
7.78278e-05
2.94772e-07
7.78508e-05
2.94166e-07
7.78733e-05
2.90893e-07
7.78954e-05
2.85704e-07
7.79172e-05
2.79136e-07
7.79386e-05
2.71584e-07
7.79599e-05
2.63339e-07
7.7981e-05
2.54619e-07
7.8002e-05
2.45591e-07
7.80229e-05
2.36389e-07
7.80438e-05
2.27127e-07
7.80648e-05
2.17902e-07
7.80859e-05
2.08806e-07
7.81072e-05
1.99924e-07
7.81287e-05
1.91339e-07
7.81507e-05
1.83125e-07
7.81732e-05
1.75346e-07
7.81965e-05
1.68032e-07
7.82209e-05
1.61168e-07
7.82467e-05
1.54643e-07
7.82744e-05
1.48242e-07
7.83043e-05
1.41542e-07
7.83367e-05
1.33985e-07
7.83716e-05
1.24759e-07
1.13115e-07
7.84086e-05
7.98802e-05
2.99785e-08
7.98894e-05
9.14478e-08
7.99048e-05
1.46133e-07
7.99244e-05
1.8956e-07
7.99467e-05
2.22244e-07
7.99701e-05
2.45091e-07
7.9994e-05
2.59685e-07
8.00177e-05
2.67918e-07
8.00412e-05
2.71327e-07
8.00642e-05
2.71114e-07
8.00869e-05
2.68232e-07
8.01092e-05
2.6339e-07
8.01312e-05
2.57113e-07
8.0153e-05
2.4979e-07
8.01747e-05
2.41714e-07
8.01962e-05
2.33105e-07
8.02176e-05
2.24134e-07
8.02391e-05
2.14938e-07
8.02606e-05
2.05627e-07
8.02822e-05
1.96296e-07
8.0304e-05
1.87028e-07
8.0326e-05
1.77894e-07
8.03484e-05
1.68956e-07
8.03712e-05
1.60264e-07
8.03947e-05
1.51843e-07
8.04191e-05
1.43684e-07
8.04445e-05
1.35729e-07
8.04713e-05
1.27839e-07
8.04998e-05
1.19785e-07
8.05301e-05
1.11205e-07
8.05625e-05
1.01641e-07
8.05967e-05
9.05317e-08
7.73931e-08
8.06324e-05
8.21627e-05
2.76982e-08
8.21715e-05
8.27194e-08
8.21859e-05
1.31661e-07
8.22044e-05
1.71088e-07
8.22255e-05
2.0113e-07
8.22481e-05
2.2252e-07
8.22713e-05
2.36491e-07
8.22946e-05
2.4457e-07
8.23179e-05
2.48083e-07
8.23409e-05
2.481e-07
8.23636e-05
2.45483e-07
8.23861e-05
2.40896e-07
8.24084e-05
2.3484e-07
8.24305e-05
2.27693e-07
8.24525e-05
2.19744e-07
8.24744e-05
2.11211e-07
8.24962e-05
2.02266e-07
8.25181e-05
1.93043e-07
8.25401e-05
1.8365e-07
8.25622e-05
1.74176e-07
8.25846e-05
1.64694e-07
8.26072e-05
1.55264e-07
8.26302e-05
1.4593e-07
8.26538e-05
1.36717e-07
8.2678e-05
1.27628e-07
8.2703e-05
1.18626e-07
8.27291e-05
1.0963e-07
8.27565e-05
1.00494e-07
8.27853e-05
9.10011e-08
8.28156e-05
8.08553e-08
8.28475e-05
6.97025e-08
8.28809e-05
5.71551e-08
4.29181e-08
8.29154e-05
8.45102e-05
2.52404e-08
8.45185e-05
7.44057e-08
8.45321e-05
1.18076e-07
8.45496e-05
1.53651e-07
8.45697e-05
1.81038e-07
8.45914e-05
2.00812e-07
8.46139e-05
2.13941e-07
8.46368e-05
2.21656e-07
8.46598e-05
2.25087e-07
8.46828e-05
2.25177e-07
8.47055e-05
2.22703e-07
8.47282e-05
2.18276e-07
8.47506e-05
2.12368e-07
8.4773e-05
2.05341e-07
8.47952e-05
1.97474e-07
8.48175e-05
1.88983e-07
8.48397e-05
1.80033e-07
8.4862e-05
1.70756e-07
8.48844e-05
1.61255e-07
8.49069e-05
1.51612e-07
8.49298e-05
1.41892e-07
8.49529e-05
1.32142e-07
8.49764e-05
1.22392e-07
8.50005e-05
1.12651e-07
8.50252e-05
1.02903e-07
8.50507e-05
9.30968e-08
8.50772e-05
8.31427e-08
8.51048e-05
7.29017e-08
8.51336e-05
6.21854e-08
8.51637e-05
5.07579e-08
8.51951e-05
3.83562e-08
8.52275e-05
2.47164e-08
9.67053e-09
8.52608e-05
8.69247e-05
2.27337e-08
8.69326e-05
6.64877e-08
8.69454e-05
1.05279e-07
8.69619e-05
1.37144e-07
8.69811e-05
1.6188e-07
8.70019e-05
1.79919e-07
8.70239e-05
1.92025e-07
8.70463e-05
1.9919e-07
8.7069e-05
2.0237e-07
8.70918e-05
2.02389e-07
8.71146e-05
1.9994e-07
8.71373e-05
1.95579e-07
8.71599e-05
1.89745e-07
8.71825e-05
1.82782e-07
8.7205e-05
1.74954e-07
8.72275e-05
1.66469e-07
8.72501e-05
1.57486e-07
8.72727e-05
1.48132e-07
8.72954e-05
1.38503e-07
8.73184e-05
1.28675e-07
8.73416e-05
1.18703e-07
8.73651e-05
1.08626e-07
8.7389e-05
9.84601e-08
8.74135e-05
8.82043e-08
8.74385e-05
7.78313e-08
8.74643e-05
6.72849e-08
8.7491e-05
5.64767e-08
8.75186e-05
4.52829e-08
8.75473e-05
3.35476e-08
8.75769e-05
2.10892e-08
8.76076e-05
7.7185e-09
8.7639e-05
-6.74037e-09
-2.23719e-08
8.76711e-05
8.9408e-05
2.02518e-08
8.94156e-05
5.89462e-08
8.94277e-05
9.31869e-08
8.94433e-05
1.21478e-07
8.94616e-05
1.43573e-07
8.94818e-05
1.59785e-07
8.95031e-05
1.70719e-07
8.95251e-05
1.77173e-07
8.95475e-05
1.79951e-07
8.95701e-05
1.79767e-07
8.95928e-05
1.77231e-07
8.96156e-05
1.72846e-07
8.96383e-05
1.67017e-07
8.9661e-05
1.60061e-07
8.96837e-05
1.5223e-07
8.97065e-05
1.43717e-07
8.97293e-05
1.34677e-07
8.97522e-05
1.25226e-07
8.97753e-05
1.15456e-07
8.97985e-05
1.05434e-07
8.9822e-05
9.52079e-08
8.98458e-05
8.48076e-08
8.987e-05
7.42429e-08
8.98947e-05
6.35042e-08
8.992e-05
5.25597e-08
8.99459e-05
4.13539e-08
8.99726e-05
2.98063e-08
9.00001e-05
1.78125e-08
9.00284e-05
5.24836e-09
9.00575e-05
-8.02092e-09
9.00873e-05
-2.21271e-08
9.01178e-05
-3.71836e-08
-5.3221e-08
9.01486e-05
9.19623e-05
1.78341e-08
9.19695e-05
5.1759e-08
9.19809e-05
8.17227e-08
9.19958e-05
1.06566e-07
9.20134e-05
1.26037e-07
9.20328e-05
1.40355e-07
9.20535e-05
1.49995e-07
9.20751e-05
1.556e-07
9.20972e-05
1.57842e-07
9.21196e-05
1.57332e-07
9.21423e-05
1.54607e-07
9.2165e-05
1.50115e-07
9.21878e-05
1.44223e-07
9.22106e-05
1.37223e-07
9.22335e-05
1.29347e-07
9.22565e-05
1.20777e-07
9.22795e-05
1.11657e-07
9.23026e-05
1.02096e-07
9.23259e-05
9.21771e-08
9.23494e-05
8.1961e-08
9.23731e-05
7.14889e-08
9.23971e-05
6.07834e-08
9.24215e-05
4.98496e-08
9.24463e-05
3.8674e-08
9.24717e-05
2.72246e-08
9.24976e-05
1.54507e-08
9.25241e-05
3.28335e-09
9.25513e-05
-9.36184e-09
9.25791e-05
-2.25795e-08
9.26075e-05
-3.64663e-08
9.26365e-05
-5.11099e-08
9.26659e-05
-6.65801e-08
-8.28721e-08
9.26956e-05
9.45895e-05
1.54993e-08
9.45963e-05
4.49019e-08
9.46073e-05
7.08182e-08
9.46215e-05
9.23309e-08
9.46383e-05
1.092e-07
9.46571e-05
1.21573e-07
9.46773e-05
1.2982e-07
9.46984e-05
1.34459e-07
9.47202e-05
1.36045e-07
9.47425e-05
1.35102e-07
9.4765e-05
1.32093e-07
9.47877e-05
1.27416e-07
9.48105e-05
1.21398e-07
9.48334e-05
1.14305e-07
9.48564e-05
1.06349e-07
9.48795e-05
9.76973e-08
9.49027e-05
8.84814e-08
9.4926e-05
7.88017e-08
9.49494e-05
6.87338e-08
9.4973e-05
5.83317e-08
9.49969e-05
4.76306e-08
9.5021e-05
3.66484e-08
9.50455e-05
2.5387e-08
9.50703e-05
1.3832e-08
9.50956e-05
1.95439e-09
9.51213e-05
-1.02897e-08
9.51476e-05
-2.29561e-08
9.51743e-05
-3.611e-08
9.52016e-05
-4.98204e-08
9.52293e-05
-6.41533e-08
9.52573e-05
-7.91635e-08
9.52856e-05
-9.48897e-08
-1.11305e-07
9.5314e-05
9.72918e-05
1.32535e-08
9.72983e-05
3.83487e-08
9.73087e-05
6.04123e-08
9.73224e-05
7.87007e-08
9.73386e-05
9.29941e-08
9.73567e-05
1.03384e-07
9.73764e-05
1.10158e-07
9.73971e-05
1.13731e-07
9.74186e-05
1.14559e-07
9.74406e-05
1.13086e-07
9.7463e-05
1.0971e-07
9.74857e-05
1.04777e-07
9.75085e-05
9.85764e-08
9.75314e-05
9.13468e-08
9.75545e-05
8.3279e-08
9.75777e-05
7.45246e-08
9.7601e-05
6.52021e-08
9.76244e-05
5.54024e-08
9.76479e-05
4.5193e-08
9.76716e-05
3.46215e-08
9.76955e-05
2.37182e-08
9.77197e-05
1.24976e-08
9.77441e-05
9.59939e-10
9.77688e-05
-1.09077e-08
9.77939e-05
-2.31301e-08
9.78194e-05
-3.57426e-08
9.78452e-05
-4.87884e-08
9.78714e-05
-6.23149e-08
9.7898e-05
-7.63699e-08
9.79248e-05
-9.09952e-08
9.79519e-05
-1.06221e-07
9.7979e-05
-1.22065e-07
-1.38485e-07
9.80062e-05
0.000100071
1.10956e-08
0.000100078
3.20728e-08
0.000100087
5.04497e-08
0.000100101
6.56102e-08
0.000100116
7.73553e-08
0.000100134
8.57366e-08
0.000100153
9.0973e-08
0.000100173
9.33952e-08
0.000100195
9.33776e-08
0.000100216
9.12895e-08
0.000100239
8.74708e-08
0.000100261
8.22187e-08
0.000100284
7.57866e-08
0.000100307
6.83836e-08
0.00010033
6.01787e-08
0.000100353
5.13069e-08
0.000100377
4.18734e-08
0.0001004
3.19589e-08
0.000100424
2.16229e-08
0.000100447
1.09068e-08
0.000100471
-1.63267e-10
0.000100495
-1.15754e-08
0.00010052
-2.33294e-08
0.000100544
-3.5436e-08
0.000100569
-4.79146e-08
0.000100594
-6.0792e-08
0.000100619
-7.40993e-08
0.000100645
-8.78691e-08
0.000100671
-1.02131e-07
0.000100696
-1.16909e-07
0.000100722
-1.32216e-07
0.000100748
-1.48052e-07
-1.64368e-07
0.000100774
0.00010293
9.0208e-09
0.000102936
2.60476e-08
0.000102946
4.08805e-08
0.000102958
5.2999e-08
0.000102973
6.22242e-08
0.000102991
6.8578e-08
0.000103009
7.22252e-08
0.000103029
7.34275e-08
0.00010305
7.24883e-08
0.000103072
6.97128e-08
0.000103094
6.53869e-08
0.000103116
5.97616e-08
0.000103139
5.30553e-08
0.000103162
4.54483e-08
0.000103185
3.70876e-08
0.000103208
2.80904e-08
0.000103232
1.85483e-08
0.000103255
8.53153e-09
0.000103279
-1.90861e-09
0.000103302
-1.27365e-08
0.000103326
-2.39301e-08
0.00010335
-3.5479e-08
0.000103374
-4.73826e-08
0.000103398
-5.96487e-08
0.000103423
-7.22915e-08
0.000103447
-8.53295e-08
0.000103472
-9.87834e-08
0.000103497
-1.12673e-07
0.000103521
-1.27014e-07
0.000103546
-1.41816e-07
0.000103571
-1.57079e-07
0.000103596
-1.72792e-07
-1.88902e-07
0.000103621
0.000105871
7.02224e-09
0.000105877
2.02468e-08
0.000105886
3.16589e-08
0.000105898
4.08116e-08
0.000105913
4.7544e-08
0.000105929
5.18577e-08
0.000105948
5.38742e-08
0.000105967
5.37989e-08
0.000105988
5.18748e-08
0.000106009
4.83505e-08
0.000106031
4.34633e-08
0.000106054
3.74195e-08
0.000106076
3.0405e-08
0.000106099
2.25715e-08
0.000106122
1.40434e-08
0.000106145
4.92e-09
0.000106169
-4.72086e-09
0.000106192
-1.482e-08
0.000106215
-2.53343e-08
0.000106239
-3.62338e-08
0.000106262
-4.75001e-08
0.000106286
-5.91243e-08
0.00010631
-7.1105e-08
0.000106334
-8.34471e-08
0.000106357
-9.61597e-08
0.000106381
-1.09254e-07
0.000106405
-1.22742e-07
0.000106429
-1.36633e-07
0.000106453
-1.50932e-07
0.000106477
-1.65638e-07
0.000106501
-1.80741e-07
0.000106524
-1.96225e-07
-2.12031e-07
0.000106547
0.000108895
5.09251e-09
0.000108901
1.46457e-08
0.00010891
2.27434e-08
0.000108922
2.89968e-08
0.000108936
3.32617e-08
0.000108952
3.55264e-08
0.00010897
3.58786e-08
0.00010899
3.44781e-08
0.00010901
3.15163e-08
0.000109031
2.71927e-08
0.000109053
2.16996e-08
0.000109075
1.52002e-08
0.000109098
7.85307e-09
0.00010912
-2.21991e-10
0.000109143
-8.92057e-09
0.000109166
-1.81632e-08
0.00010919
-2.78855e-08
0.000109213
-3.80395e-08
0.000109236
-4.85903e-08
0.000109259
-5.95139e-08
0.000109283
-7.07954e-08
0.000109306
-8.24272e-08
0.000109329
-9.44075e-08
0.000109353
-1.06739e-07
0.000109376
-1.19425e-07
0.000109399
-1.32472e-07
0.000109422
-1.45884e-07
0.000109445
-1.59662e-07
0.000109468
-1.73804e-07
0.000109491
-1.88301e-07
0.000109513
-2.03136e-07
0.000109535
-2.18288e-07
-2.33698e-07
0.000109557
0.000112006
3.2238e-09
0.000112012
9.22025e-09
0.00011202
1.40943e-08
0.000112032
1.75042e-08
0.000112046
1.93225e-08
0.000112062
1.95305e-08
0.00011208
1.81911e-08
0.000112099
1.54271e-08
0.000112119
1.13843e-08
0.00011214
6.21983e-09
0.000112161
9.46146e-11
0.000112183
-6.89188e-09
0.000112206
-1.45875e-08
0.000112229
-2.29089e-08
0.000112251
-3.17738e-08
0.000112274
-4.11201e-08
0.000112297
-5.08985e-08
0.00011232
-6.10722e-08
0.000112343
-7.16148e-08
0.000112366
-8.25081e-08
0.000112389
-9.37411e-08
0.000112412
-1.05308e-07
0.000112435
-1.17206e-07
0.000112458
-1.29436e-07
0.00011248
-1.41999e-07
0.000112503
-1.54895e-07
0.000112525
-1.68124e-07
0.000112547
-1.8168e-07
0.000112569
-1.95555e-07
0.00011259
-2.09735e-07
0.000112611
-2.24197e-07
0.000112632
-2.38919e-07
-2.53842e-07
0.000112652
0.000115206
1.41005e-09
0.000115212
3.95156e-09
0.00011522
5.68062e-09
0.000115231
6.29397e-09
0.000115245
5.68171e-09
0.000115261
3.8246e-09
0.000115278
7.6607e-10
0.000115297
-3.39451e-09
0.000115317
-8.552e-09
0.000115338
-1.45875e-08
0.000115359
-2.13886e-08
0.000115381
-2.88628e-08
0.000115403
-3.69153e-08
0.000115426
-4.54792e-08
0.000115449
-5.44967e-08
0.000115471
-6.39228e-08
0.000115494
-7.37234e-08
0.000115517
-8.38734e-08
0.00011554
-9.4355e-08
0.000115562
-1.05157e-07
0.000115585
-1.16271e-07
0.000115607
-1.27695e-07
0.00011563
-1.39425e-07
0.000115652
-1.51462e-07
0.000115673
-1.63803e-07
0.000115695
-1.76446e-07
0.000115716
-1.89386e-07
0.000115737
-2.02613e-07
0.000115758
-2.16115e-07
0.000115778
-2.29873e-07
0.000115797
-2.43864e-07
0.000115817
-2.58063e-07
-2.72411e-07
0.000115835
0.000118498
-3.586e-10
0.000118503
-1.18646e-09
0.000118511
-2.54126e-09
0.000118522
-4.69255e-09
0.000118535
-7.72824e-09
0.000118551
-1.16602e-08
0.000118568
-1.64529e-08
0.000118587
-2.20372e-08
0.000118607
-2.83344e-08
0.000118627
-3.52628e-08
0.000118649
-4.27446e-08
0.00011867
-5.0718e-08
0.000118693
-5.91238e-08
0.000118715
-6.79176e-08
0.000118738
-7.70645e-08
0.00011876
-8.65383e-08
0.000118783
-9.63198e-08
0.000118805
-1.06396e-07
0.000118828
-1.16758e-07
0.00011885
-1.27401e-07
0.000118872
-1.38322e-07
0.000118894
-1.49521e-07
0.000118915
-1.60995e-07
0.000118937
-1.72745e-07
0.000118958
-1.84766e-07
0.000118978
-1.97054e-07
0.000118999
-2.096e-07
0.000119018
-2.22394e-07
0.000119038
-2.35419e-07
0.000119056
-2.48655e-07
0.000119075
-2.62078e-07
0.000119092
-2.75662e-07
-2.8935e-07
0.000119109
0.000121883
-2.07375e-09
0.000121888
-6.18282e-09
0.000121896
-1.05623e-08
0.000121907
-1.5457e-08
0.00012192
-2.09257e-08
0.000121935
-2.69611e-08
0.000121952
-3.35269e-08
0.000121971
-4.05693e-08
0.000121991
-4.80344e-08
0.000122011
-5.5873e-08
0.000122033
-6.40427e-08
0.000122054
-7.25121e-08
0.000122076
-8.12545e-08
0.000122099
-9.02518e-08
0.000122121
-9.94923e-08
0.000122144
-1.08969e-07
0.000122166
-1.18678e-07
0.000122188
-1.28618e-07
0.00012221
-1.38792e-07
0.000122232
-1.49201e-07
0.000122254
-1.59847e-07
0.000122275
-1.70733e-07
0.000122296
-1.81858e-07
0.000122316
-1.93223e-07
0.000122336
-2.04824e-07
0.000122356
-2.16654e-07
0.000122375
-2.28705e-07
0.000122393
-2.40963e-07
0.000122411
-2.53411e-07
0.000122429
-2.66028e-07
0.000122446
-2.7879e-07
0.000122462
-2.91671e-07
-3.04617e-07
0.000122477
0.000125365
-3.78289e-09
0.00012537
-1.1121e-08
0.000125378
-1.84964e-08
0.000125389
-2.61246e-08
0.000125402
-3.40254e-08
0.000125417
-4.21676e-08
0.000125434
-5.05124e-08
0.000125452
-5.90202e-08
0.000125472
-6.76597e-08
0.000125493
-7.64113e-08
0.000125514
-8.52647e-08
0.000125536
-9.42189e-08
0.000125558
-1.03278e-07
0.00012558
-1.1245e-07
0.000125602
-1.21746e-07
0.000125624
-1.31178e-07
0.000125646
-1.40759e-07
0.000125668
-1.50501e-07
0.00012569
-1.60416e-07
0.000125711
-1.70512e-07
0.000125732
-1.808e-07
0.000125753
-1.91283e-07
0.000125773
-2.01966e-07
0.000125792
-2.1285e-07
0.000125811
-2.2393e-07
0.00012583
-2.35202e-07
0.000125848
-2.46656e-07
0.000125865
-2.58277e-07
0.000125882
-2.7005e-07
0.000125898
-2.81952e-07
0.000125913
-2.93961e-07
0.000125927
-3.0605e-07
-3.1817e-07
0.000125941
0.000128947
-5.33318e-09
0.000128951
-1.57763e-08
0.000128959
-2.61178e-08
0.000128969
-3.65492e-08
0.000128982
-4.69996e-08
0.000128998
-5.7367e-08
0.000129015
-6.75842e-08
0.000129033
-7.76157e-08
0.000129053
-8.74549e-08
0.000129074
-9.71166e-08
0.000129095
-1.06629e-07
0.000129117
-1.16028e-07
0.000129139
-1.2535e-07
0.000129161
-1.34635e-07
0.000129183
-1.43916e-07
0.000129205
-1.53229e-07
0.000129227
-1.62601e-07
0.000129249
-1.7206e-07
0.00012927
-1.81626e-07
0.000129291
-1.91318e-07
0.000129311
-2.01151e-07
0.000129331
-2.11134e-07
0.00012935
-2.21275e-07
0.000129369
-2.31574e-07
0.000129387
-2.42032e-07
0.000129405
-2.52643e-07
0.000129421
-2.63398e-07
0.000129437
-2.74284e-07
0.000129453
-2.85285e-07
0.000129467
-2.9638e-07
0.000129481
-3.07547e-07
0.000129493
-3.18764e-07
-3.29983e-07
0.000129505
0.000132631
-7.18949e-09
0.000132636
-2.07108e-08
0.000132644
-3.39369e-08
0.000132654
-4.70555e-08
0.000132667
-5.99524e-08
0.000132682
-7.24794e-08
0.000132699
-8.45429e-08
0.000132718
-9.60992e-08
0.000132737
-1.07151e-07
0.000132758
-1.17738e-07
0.000132779
-1.27917e-07
0.000132801
-1.37757e-07
0.000132823
-1.47328e-07
0.000132845
-1.56696e-07
0.000132867
-1.65923e-07
0.000132889
-1.75064e-07
0.00013291
-1.84166e-07
0.000132932
-1.9327e-07
0.000132952
-2.0241e-07
0.000132973
-2.11613e-07
0.000132993
-2.209e-07
0.000133012
-2.30288e-07
0.00013303
-2.39787e-07
0.000133048
-2.49402e-07
0.000133065
-2.59136e-07
0.000133081
-2.68984e-07
0.000133097
-2.78939e-07
0.000133112
-2.8899e-07
0.000133126
-2.99122e-07
0.000133138
-3.09316e-07
0.00013315
-3.19551e-07
0.000133162
-3.29807e-07
-3.4004e-07
0.000133172
0.000136419
-7.9462e-09
0.000136423
-2.44131e-08
0.00013643
-4.08669e-08
0.00013644
-5.72951e-08
0.000136453
-7.3202e-08
0.000136469
-8.82633e-08
0.000136487
-1.02359e-07
0.000136506
-1.15484e-07
0.000136527
-1.277e-07
0.000136548
-1.39108e-07
0.00013657
-1.49823e-07
0.000136592
-1.59961e-07
0.000136614
-1.69635e-07
0.000136637
-1.78946e-07
0.000136659
-1.87982e-07
0.000136681
-1.96821e-07
0.000136702
-2.05527e-07
0.000136723
-2.14156e-07
0.000136743
-2.22752e-07
0.000136763
-2.31351e-07
0.000136782
-2.39982e-07
0.0001368
-2.48665e-07
0.000136818
-2.57415e-07
0.000136835
-2.66241e-07
0.000136851
-2.75147e-07
0.000136866
-2.84131e-07
0.00013688
-2.93188e-07
0.000136894
-3.02309e-07
0.000136906
-3.1148e-07
0.000136917
-3.20686e-07
0.000136928
-3.29909e-07
0.000136937
-3.3913e-07
-3.48309e-07
0.000136945
0.000140319
-1.12196e-08
0.000140325
-2.99674e-08
0.000140332
-4.85791e-08
0.000140342
-6.72825e-08
0.000140355
-8.56173e-08
0.000140369
-1.03038e-07
0.000140386
-1.19234e-07
0.000140405
-1.341e-07
0.000140425
-1.47678e-07
0.000140446
-1.60088e-07
0.000140468
-1.71483e-07
0.00014049
-1.82024e-07
0.000140512
-1.91863e-07
0.000140534
-2.01141e-07
0.000140556
-2.0998e-07
0.000140578
-2.18484e-07
0.000140599
-2.26742e-07
0.00014062
-2.34826e-07
0.00014064
-2.42796e-07
0.000140659
-2.50699e-07
0.000140678
-2.58573e-07
0.000140695
-2.66447e-07
0.000140712
-2.74341e-07
0.000140728
-2.82268e-07
0.000140743
-2.90236e-07
0.000140758
-2.98247e-07
0.000140771
-3.063e-07
0.000140783
-3.14386e-07
0.000140794
-3.22497e-07
0.000140804
-3.30618e-07
0.000140813
-3.38733e-07
0.00014082
-3.46827e-07
-3.54865e-07
0.000140827
0.000144322
-8.23216e-09
0.000144322
-3.06204e-08
0.000144328
-5.44344e-08
0.000144339
-7.84032e-08
0.000144354
-1.00875e-07
0.000144373
-1.21249e-07
0.000144393
-1.39483e-07
0.000144415
-1.55715e-07
0.000144437
-1.70157e-07
0.00014446
-1.83051e-07
0.000144483
-1.94639e-07
0.000144506
-2.05147e-07
0.000144529
-2.14779e-07
0.000144552
-2.23709e-07
0.000144574
-2.32084e-07
0.000144595
-2.4003e-07
0.000144616
-2.47647e-07
0.000144637
-2.55021e-07
0.000144656
-2.6222e-07
0.000144675
-2.69298e-07
0.000144692
-2.76299e-07
0.000144709
-2.83254e-07
0.000144725
-2.90189e-07
0.00014474
-2.97121e-07
0.000144754
-3.04059e-07
0.000144766
-3.1101e-07
0.000144778
-3.17972e-07
0.000144789
-3.24944e-07
0.000144798
-3.31916e-07
0.000144806
-3.38879e-07
0.000144813
-3.4582e-07
0.000144819
-3.52726e-07
-3.59566e-07
0.000144824
0.000148457
-1.69882e-08
0.000148463
-3.71899e-08
0.000148469
-5.96622e-08
0.000148475
-8.49206e-08
0.000148485
-1.10508e-07
0.000148498
-1.34462e-07
0.000148514
-1.5586e-07
0.000148533
-1.74591e-07
0.000148554
-1.90884e-07
0.000148576
-2.05051e-07
0.000148599
-2.17423e-07
0.000148622
-2.28316e-07
0.000148645
-2.38009e-07
0.000148668
-2.46743e-07
0.000148691
-2.54718e-07
0.000148713
-2.62101e-07
0.000148734
-2.69027e-07
0.000148755
-2.75605e-07
0.000148774
-2.81923e-07
0.000148793
-2.8805e-07
0.000148811
-2.94041e-07
0.000148828
-2.99938e-07
0.000148843
-3.05773e-07
0.000148858
-3.11568e-07
0.000148871
-3.17339e-07
0.000148883
-3.23094e-07
0.000148894
-3.28839e-07
0.000148904
-3.34572e-07
0.000148912
-3.40289e-07
0.000148919
-3.45984e-07
0.000148925
-3.51646e-07
0.000148929
-3.57264e-07
-3.62815e-07
0.000148933
0.000152671
1.12873e-09
0.000152666
-3.19505e-08
0.000152673
-6.73884e-08
0.000152691
-1.02447e-07
0.000152713
-1.32914e-07
0.000152738
-1.59067e-07
0.000152764
-1.81357e-07
0.000152789
-2.00318e-07
0.000152815
-2.16461e-07
0.00015284
-2.30242e-07
0.000152865
-2.42084e-07
0.000152889
-2.52357e-07
0.000152912
-2.61364e-07
0.000152935
-2.69355e-07
0.000152957
-2.76539e-07
0.000152977
-2.83082e-07
0.000152998
-2.89123e-07
0.000153017
-2.94772e-07
0.000153035
-3.00118e-07
0.000153052
-3.05232e-07
0.000153068
-3.10171e-07
0.000153083
-3.14979e-07
0.000153097
-3.19689e-07
0.00015311
-3.24328e-07
0.000153122
-3.28912e-07
0.000153132
-3.33454e-07
0.000153141
-3.37962e-07
0.000153149
-3.42436e-07
0.000153155
-3.46877e-07
0.000153161
-3.5128e-07
0.000153165
-3.55639e-07
0.000153167
-3.59945e-07
-3.64178e-07
0.000153169
0.000157077
-2.43094e-08
0.000157076
-3.09175e-08
0.000157063
-5.43887e-08
0.000157054
-9.37728e-08
0.000157055
-1.3364e-07
0.000157065
-1.69064e-07
0.000157081
-1.97927e-07
0.000157102
-2.21332e-07
0.000157126
-2.4038e-07
0.000157152
-2.55896e-07
0.000157179
-2.68603e-07
0.000157205
-2.79106e-07
0.000157232
-2.87886e-07
0.000157258
-2.95324e-07
0.000157283
-3.01721e-07
0.000157307
-3.07311e-07
0.00015733
-3.12279e-07
0.000157352
-3.16767e-07
0.000157373
-3.20888e-07
0.000157393
-3.24729e-07
0.000157411
-3.28357e-07
0.000157428
-3.31825e-07
0.000157443
-3.35173e-07
0.000157457
-3.38429e-07
0.00015747
-3.41616e-07
0.000157481
-3.44749e-07
0.000157491
-3.47838e-07
0.0001575
-3.50887e-07
0.000157507
-3.539e-07
0.000157512
-3.56875e-07
0.000157516
-3.59808e-07
0.000157519
-3.62698e-07
-3.65527e-07
0.00015752
0.00016147
4.44249e-08
0.000161456
-1.71576e-08
0.000161492
-9.0127e-08
0.000161534
-1.36122e-07
0.000161575
-1.75091e-07
0.000161612
-2.05237e-07
0.000161644
-2.29942e-07
0.000161673
-2.50408e-07
0.0001617
-2.6718e-07
0.000161725
-2.80965e-07
0.000161748
-2.92378e-07
0.000161771
-3.01884e-07
0.000161793
-3.09852e-07
0.000161814
-3.16582e-07
0.000161835
-3.22314e-07
0.000161855
-3.27242e-07
0.000161874
-3.31522e-07
0.000161893
-3.35279e-07
0.00016191
-3.38613e-07
0.000161927
-3.41605e-07
0.000161943
-3.44322e-07
0.000161958
-3.46816e-07
0.000161972
-3.49127e-07
0.000161985
-3.51291e-07
0.000161997
-3.53332e-07
0.000162007
-3.5527e-07
0.000162017
-3.57121e-07
0.000162025
-3.58894e-07
0.000162031
-3.60596e-07
0.000162037
-3.6223e-07
0.000162041
-3.63796e-07
0.000162043
-3.65292e-07
-3.66711e-07
0.000162044
0.00016619
7.65944e-09
0.000166126
4.70523e-08
0.000166045
-9.45857e-09
0.000165989
-7.94975e-08
0.000165976
-1.61845e-07
0.000165988
-2.17818e-07
0.000166016
-2.57635e-07
0.000166052
-2.86325e-07
0.000166092
-3.0762e-07
0.000166135
-3.23699e-07
0.000166179
-3.35947e-07
0.000166222
-3.45357e-07
0.000166265
-3.5264e-07
0.000166307
-3.58308e-07
0.000166347
-3.62733e-07
0.000166386
-3.66193e-07
0.000166423
-3.68897e-07
0.000166459
-3.71003e-07
0.000166493
-3.72634e-07
0.000166525
-3.73885e-07
0.000166556
-3.74831e-07