/*--------------------------------*- C++ -*----------------------------------*\
  =========                 |
  \\      /  F ield         | OpenFOAM: The Open Source CFD Toolbox
   \\    /   O peration     | Website:  https://openfoam.org
    \\  /    A nd           | Version:  10
     \\/     M anipulation  |
\*---------------------------------------------------------------------------*/
FoamFile
{
    format      ascii;
    class       volVectorField;
    location    "0.13";
    object      U;
}
// * * * * * * * * * * * * * * * * * * * * * * * * * * * * * * * * * * * * * //

dimensions      [0 1 -1 0 0 0 0];

internalField   nonuniform List<vector> 
6820
(
(7.33663 -0.254711 0)
(7.37113 -0.152749 0)
(7.32907 -0.0594741 0)
(7.25226 -0.0117284 0)
(7.17494 0.00795319 0)
(7.10517 0.0139511 0)
(7.04422 0.0144336 0)
(6.99149 0.013051 0)
(6.94552 0.0112945 0)
(6.90493 0.00971116 0)
(6.86862 0.00844123 0)
(6.8358 0.00747177 0)
(6.80586 0.00674636 0)
(6.77833 0.00620554 0)
(6.75289 0.0057996 0)
(6.72925 0.00549069 0)
(6.70721 0.00525121 0)
(6.6866 0.00506168 0)
(6.66727 0.00490879 0)
(6.64909 0.00478382 0)
(6.63195 0.00468167 0)
(6.61575 0.00460042 0)
(6.60039 0.00454144 0)
(6.58576 0.00451067 0)
(6.57174 0.00452049 0)
(6.55818 0.00459733 0)
(6.54484 0.00479618 0)
(6.53141 0.00518702 0)
(6.51698 0.00627178 0)
(6.50081 0.00728872 0)
(6.47902 0.0151672 0)
(6.4434 0.0165606 0)
(6.39963 0.0375116 0)
(7.32387 0.121383 0)
(7.3044 0.123265 0)
(7.30897 0.0779463 0)
(7.32922 0.05276 0)
(7.34733 0.0391533 0)
(7.35542 0.0313399 0)
(7.35449 0.0268781 0)
(7.34745 0.0241212 0)
(7.33658 0.0222119 0)
(7.32345 0.0207587 0)
(7.30913 0.0195659 0)
(7.29429 0.0185333 0)
(7.27932 0.0176103 0)
(7.26447 0.0167705 0)
(7.24989 0.015999 0)
(7.23567 0.0152865 0)
(7.22184 0.0146267 0)
(7.20844 0.0140151 0)
(7.19548 0.0134486 0)
(7.18294 0.0129252 0)
(7.17082 0.0124446 0)
(7.15912 0.0120083 0)
(7.14782 0.0116206 0)
(7.1369 0.0112913 0)
(7.12634 0.0110374 0)
(7.11611 0.0108972 0)
(7.10626 0.0109218 0)
(7.09664 0.0112909 0)
(7.08794 0.0121342 0)
(7.07891 0.0143796 0)
(7.07564 0.018671 0)
(7.07149 0.0283855 0)
(7.09889 0.0510371 0)
(7.32565 -0.0437959 0)
(7.32325 -0.0517449 0)
(7.33519 -0.0262204 0)
(7.34306 -0.00275106 0)
(7.34802 0.0103857 0)
(7.35225 0.0168236 0)
(7.35531 0.0198815 0)
(7.35692 0.0211534 0)
(7.35705 0.0214809 0)
(7.35584 0.021337 0)
(7.35352 0.0209687 0)
(7.35031 0.0205025 0)
(7.34643 0.020004 0)
(7.34205 0.0195061 0)
(7.33729 0.019024 0)
(7.33227 0.0185638 0)
(7.32707 0.0181278 0)
(7.32175 0.0177162 0)
(7.31638 0.0173291 0)
(7.31098 0.016967 0)
(7.30559 0.0166316 0)
(7.30022 0.0163262 0)
(7.29489 0.0160574 0)
(7.28961 0.0158363 0)
(7.28437 0.0156825 0)
(7.27916 0.0156241 0)
(7.27398 0.0157289 0)
(7.26876 0.0160346 0)
(7.26368 0.0168728 0)
(7.25837 0.0178871 0)
(7.25409 0.0210423 0)
(7.24976 0.0221381 0)
(7.24864 0.0287911 0)
(7.33338 0.0117824 0)
(7.33036 0.0328976 0)
(7.32957 0.0333191 0)
(7.3326 0.0275977 0)
(7.33806 0.0241962 0)
(7.34363 0.0227066 0)
(7.3483 0.0221303 0)
(7.35204 0.0218873 0)
(7.35492 0.0217207 0)
(7.35703 0.0215486 0)
(7.35845 0.0213452 0)
(7.35927 0.0211046 0)
(7.35959 0.0208305 0)
(7.35947 0.0205299 0)
(7.359 0.0202103 0)
(7.35824 0.0198783 0)
(7.35724 0.0195398 0)
(7.35604 0.0192003 0)
(7.35469 0.0188647 0)
(7.35321 0.0185382 0)
(7.35164 0.0182266 0)
(7.34998 0.0179377 0)
(7.34826 0.0176822 0)
(7.34649 0.0174756 0)
(7.34467 0.0173423 0)
(7.34279 0.0173171 0)
(7.34089 0.0174643 0)
(7.33894 0.0178535 0)
(7.3371 0.0186872 0)
(7.33528 0.0199808 0)
(7.33427 0.0224935 0)
(7.33413 0.0253489 0)
(7.33668 0.0308444 0)
(7.33122 -0.00352925 0)
(7.33004 -0.00434775 0)
(7.33362 0.00123313 0)
(7.33722 0.00866839 0)
(7.34055 0.0140194 0)
(7.34387 0.0170088 0)
(7.34708 0.018629 0)
(7.35013 0.019523 0)
(7.35296 0.0199951 0)
(7.3555 0.0202159 0)
(7.35775 0.0202809 0)
(7.3597 0.0202432 0)
(7.36138 0.0201357 0)
(7.3628 0.0199798 0)
(7.364 0.0197901 0)
(7.36499 0.0195766 0)
(7.36581 0.019347 0)
(7.36648 0.0191076 0)
(7.36701 0.0188641 0)
(7.36743 0.0186224 0)
(7.36774 0.0183895 0)
(7.36797 0.0181739 0)
(7.36813 0.0179873 0)
(7.36822 0.0178459 0)
(7.36826 0.0177739 0)
(7.36825 0.0178032 0)
(7.36822 0.0179895 0)
(7.36818 0.0183826 0)
(7.36826 0.019124 0)
(7.36851 0.0201814 0)
(7.36937 0.0219304 0)
(7.37101 0.0236142 0)
(7.37396 0.0258468 0)
(7.33264 0.00207304 0)
(7.33224 0.00988184 0)
(7.33395 0.0140634 0)
(7.33647 0.0159181 0)
(7.33949 0.0170071 0)
(7.34272 0.0177618 0)
(7.34582 0.0183489 0)
(7.34872 0.0187876 0)
(7.35145 0.0190763 0)
(7.35401 0.0192437 0)
(7.35639 0.0193195 0)
(7.35862 0.019324 0)
(7.3607 0.0192726 0)
(7.36263 0.019177 0)
(7.36444 0.0190463 0)
(7.36613 0.0188879 0)
(7.36771 0.0187082 0)
(7.36919 0.0185129 0)
(7.37058 0.018308 0)
(7.37189 0.0180996 0)
(7.37313 0.0178951 0)
(7.3743 0.0177036 0)
(7.37542 0.0175372 0)
(7.37649 0.0174116 0)
(7.37753 0.0173492 0)
(7.37854 0.0173783 0)
(7.37956 0.0175421 0)
(7.38063 0.0178794 0)
(7.38185 0.0184717 0)
(7.3833 0.0193001 0)
(7.38526 0.0204985 0)
(7.38792 0.0216779 0)
(7.39149 0.0229352 0)
(7.33258 0.000820896 0)
(7.33243 0.00448792 0)
(7.33429 0.00802136 0)
(7.33691 0.0112037 0)
(7.33972 0.0137674 0)
(7.34259 0.0155171 0)
(7.34534 0.0166426 0)
(7.34797 0.0173579 0)
(7.35049 0.0177976 0)
(7.35291 0.0180543 0)
(7.35523 0.0181878 0)
(7.35746 0.0182337 0)
(7.3596 0.018215 0)
(7.36167 0.0181472 0)
(7.36367 0.0180414 0)
(7.36561 0.0179057 0)
(7.36748 0.017747 0)
(7.3693 0.017571 0)
(7.37106 0.0173834 0)
(7.37278 0.0171904 0)
(7.37446 0.0169991 0)
(7.37609 0.016818 0)
(7.3777 0.0166585 0)
(7.37929 0.0165344 0)
(7.38087 0.0164649 0)
(7.38246 0.016472 0)
(7.38408 0.0165867 0)
(7.38579 0.016833 0)
(7.38766 0.0172511 0)
(7.38979 0.0178147 0)
(7.39233 0.0185416 0)
(7.39543 0.0191837 0)
(7.39914 0.0196348 0)
(7.33284 0.00132372 0)
(7.33302 0.00532478 0)
(7.33459 0.00885744 0)
(7.33683 0.0115212 0)
(7.33935 0.0134701 0)
(7.342 0.0148049 0)
(7.34462 0.0157109 0)
(7.34714 0.016328 0)
(7.34957 0.0167318 0)
(7.35191 0.0169789 0)
(7.35417 0.0171122 0)
(7.35635 0.017161 0)
(7.35849 0.0171456 0)
(7.36057 0.0170805 0)
(7.36261 0.0169764 0)
(7.36461 0.0168413 0)
(7.36658 0.0166816 0)
(7.36852 0.0165032 0)
(7.37044 0.0163114 0)
(7.37233 0.0161123 0)
(7.37421 0.0159123 0)
(7.37607 0.0157194 0)
(7.37792 0.0155433 0)
(7.37977 0.0153958 0)
(7.38164 0.0152918 0)
(7.38355 0.0152474 0)
(7.38552 0.0152819 0)
(7.38759 0.0154074 0)
(7.38983 0.0156367 0)
(7.39232 0.015939 0)
(7.39515 0.0162834 0)
(7.3984 0.0165078 0)
(7.40208 0.0164841 0)
(7.33291 0.00132063 0)
(7.33321 0.00464059 0)
(7.33462 0.00765496 0)
(7.33667 0.0100951 0)
(7.339 0.012027 0)
(7.34147 0.0134482 0)
(7.34394 0.0144462 0)
(7.34635 0.01513 0)
(7.34868 0.0155785 0)
(7.35095 0.0158538 0)
(7.35315 0.0160036 0)
(7.35529 0.0160602 0)
(7.35739 0.0160463 0)
(7.35945 0.015978 0)
(7.36148 0.0158669 0)
(7.36349 0.015722 0)
(7.36549 0.0155502 0)
(7.36746 0.0153574 0)
(7.36943 0.0151492 0)
(7.37139 0.0149311 0)
(7.37334 0.0147093 0)
(7.3753 0.0144907 0)
(7.37727 0.0142832 0)
(7.37926 0.0140963 0)
(7.38128 0.0139404 0)
(7.38335 0.013826 0)
(7.38551 0.013763 0)
(7.38778 0.0137539 0)
(7.39021 0.013795 0)
(7.39287 0.013853 0)
(7.3958 0.0138812 0)
(7.39906 0.0137673 0)
(7.40262 0.013402 0)
(7.33297 0.00129563 0)
(7.33335 0.00428077 0)
(7.33463 0.00704824 0)
(7.33647 0.00931804 0)
(7.3386 0.0111084 0)
(7.34089 0.0124363 0)
(7.34321 0.0133813 0)
(7.34551 0.0140389 0)
(7.34777 0.0144783 0)
(7.34997 0.0147522 0)
(7.35212 0.0149014 0)
(7.35423 0.0149555 0)
(7.35629 0.014936 0)
(7.35833 0.0148587 0)
(7.36035 0.0147355 0)
(7.36234 0.0145752 0)
(7.36433 0.0143851 0)
(7.36631 0.0141712 0)
(7.36828 0.0139389 0)
(7.37026 0.0136936 0)
(7.37225 0.0134406 0)
(7.37425 0.0131858 0)
(7.37626 0.0129354 0)
(7.37831 0.0126963 0)
(7.38041 0.012475 0)
(7.38257 0.012277 0)
(7.38481 0.0121053 0)
(7.38717 0.0119555 0)
(7.38969 0.011815 0)
(7.3924 0.0116511 0)
(7.39533 0.0114163 0)
(7.39851 0.0110311 0)
(7.40191 0.0104145 0)
(7.333 0.00123237 0)
(7.33341 0.00389323 0)
(7.33457 0.00636487 0)
(7.33624 0.00842567 0)
(7.3382 0.0100798 0)
(7.34032 0.0113418 0)
(7.34251 0.0122638 0)
(7.3447 0.0129165 0)
(7.34687 0.0133577 0)
(7.34901 0.013634 0)
(7.35111 0.0137833 0)
(7.35317 0.0138341 0)
(7.3552 0.0138074 0)
(7.35721 0.0137192 0)
(7.35921 0.0135813 0)
(7.36118 0.013403 0)
(7.36316 0.0131915 0)
(7.36512 0.0129528 0)
(7.36709 0.0126922 0)
(7.36907 0.0124145 0)
(7.37106 0.0121245 0)
(7.37307 0.0118268 0)
(7.37511 0.0115261 0)
(7.37718 0.0112266 0)
(7.3793 0.0109319 0)
(7.38149 0.0106433 0)
(7.38377 0.0103588 0)
(7.38616 0.0100698 0)
(7.38869 0.00975977 0)
(7.39139 0.00939836 0)
(7.39426 0.00894379 0)
(7.39732 0.00833844 0)
(7.40053 0.00752593 0)
(7.33302 0.00114733 0)
(7.33344 0.00353035 0)
(7.33449 0.0057495 0)
(7.33601 0.00762898 0)
(7.33781 0.00915471 0)
(7.33978 0.0103359 0)
(7.34184 0.0112103 0)
(7.34392 0.0118347 0)
(7.34601 0.0122589 0)
(7.34807 0.0125241 0)
(7.35011 0.012664 0)
(7.35213 0.0127048 0)
(7.35413 0.0126663 0)
(7.35611 0.0125635 0)
(7.35808 0.0124082 0)
(7.36003 0.0122092 0)
(7.36198 0.0119738 0)
(7.36394 0.0117077 0)
(7.36589 0.0114158 0)
(7.36786 0.0111025 0)
(7.36984 0.0107717 0)
(7.37185 0.0104268 0)
(7.37388 0.010071 0)
(7.37596 0.00970647 0)
(7.37808 0.00933402 0)
(7.38028 0.00895204 0)
(7.38256 0.00855537 0)
(7.38494 0.00813319 0)
(7.38744 0.00766795 0)
(7.39007 0.00713289 0)
(7.39285 0.00649346 0)
(7.39577 0.00570769 0)
(7.3988 0.00473748 0)
(7.33303 0.00105195 0)
(7.33344 0.00318415 0)
(7.3344 0.00516807 0)
(7.33579 0.00686728 0)
(7.33744 0.00826007 0)
(7.33927 0.0093525 0)
(7.34121 0.010172 0)
(7.34319 0.0107622 0)
(7.34519 0.0111642 0)
(7.34718 0.0114134 0)
(7.34916 0.0115395 0)
(7.35113 0.0115665 0)
(7.35309 0.0115127 0)
(7.35503 0.0113926 0)
(7.35697 0.0112174 0)
(7.3589 0.0109956 0)
(7.36083 0.0107342 0)
(7.36276 0.0104385 0)
(7.3647 0.0101132 0)
(7.36664 0.00976189 0)
(7.36861 0.00938768 0)
(7.3706 0.00899299 0)
(7.37262 0.00857947 0)
(7.37469 0.00814759 0)
(7.3768 0.00769618 0)
(7.37898 0.0072216 0)
(7.38123 0.00671684 0)
(7.38357 0.00617031 0)
(7.38602 0.00556521 0)
(7.38857 0.00487872 0)
(7.39124 0.00408326 0)
(7.39401 0.00314811 0)
(7.39686 0.00204797 0)
(7.33303 0.000952594 0)
(7.33342 0.00285466 0)
(7.33431 0.00462204 0)
(7.33558 0.00614959 0)
(7.3371 0.00741214 0)
(7.33881 0.00841186 0)
(7.34063 0.00916827 0)
(7.34251 0.00971473 0)
(7.34442 0.0100854 0)
(7.34634 0.0103105 0)
(7.34826 0.0104162 0)
(7.35018 0.0104239 0)
(7.35209 0.0103507 0)
(7.354 0.0102099 0)
(7.3559 0.010012 0)
(7.3578 0.00976503 0)
(7.3597 0.00947555 0)
(7.3616 0.00914853 0)
(7.36352 0.00878795 0)
(7.36544 0.00839689 0)
(7.36739 0.00797762 0)
(7.36936 0.00753157 0)
(7.37135 0.00705919 0)
(7.37339 0.0065596 0)
(7.37548 0.0060302 0)
(7.37762 0.00546608 0)
(7.37983 0.00485941 0)
(7.38212 0.00419881 0)
(7.38449 0.00346906 0)
(7.38695 0.0026512 0)
(7.3895 0.00172362 0)
(7.39212 0.000663809 0)
(7.3948 -0.000544863 0)
(7.33303 0.000853103 0)
(7.3334 0.00254097 0)
(7.33422 0.00410674 0)
(7.33538 0.0054688 0)
(7.33679 0.00660161 0)
(7.33838 0.00750432 0)
(7.3401 0.00819073 0)
(7.34188 0.0086863 0)
(7.34371 0.00901879 0)
(7.34556 0.00921382 0)
(7.34742 0.00929396 0)
(7.34928 0.00927821 0)
(7.35115 0.00918193 0)
(7.35301 0.00901738 0)
(7.35488 0.00879423 0)
(7.35674 0.00852004 0)
(7.35861 0.0082007 0)
(7.36048 0.00784071 0)
(7.36237 0.00744351 0)
(7.36426 0.00701152 0)
(7.36618 0.00654628 0)
(7.36812 0.00604835 0)
(7.37008 0.00551721 0)
(7.37209 0.004951 0)
(7.37414 0.00434618 0)
(7.37623 0.0036972 0)
(7.37839 0.00299611 0)
(7.38061 0.00223228 0)
(7.38289 0.00139245 0)
(7.38525 0.000461133 0)
(7.38767 -0.000578395 0)
(7.39014 -0.00174272 0)
(7.39266 -0.0030426 0)
(7.33303 0.00075559 0)
(7.33338 0.00224222 0)
(7.33413 0.003619 0)
(7.33521 0.00482179 0)
(7.33651 0.00582641 0)
(7.338 0.00662963 0)
(7.33961 0.00724086 0)
(7.34131 0.00767931 0)
(7.34305 0.00796731 0)
(7.34483 0.00812631 0)
(7.34663 0.00817566 0)
(7.34844 0.00813198 0)
(7.35026 0.00800897 0)
(7.35208 0.00781768 0)
(7.3539 0.00756689 0)
(7.35573 0.00726345 0)
(7.35756 0.00691265 0)
(7.3594 0.00651845 0)
(7.36125 0.00608367 0)
(7.36311 0.00561015 0)
(7.36499 0.00509875 0)
(7.36689 0.00454931 0)
(7.36882 0.00396059 0)
(7.37078 0.00333003 0)
(7.37278 0.00265359 0)
(7.37482 0.00192553 0)
(7.37691 0.00113821 0)
(7.37905 0.00028208 0)
(7.38124 -0.000654141 0)
(7.38349 -0.00168295 0)
(7.38578 -0.00281719 0)
(7.38811 -0.00406913 0)
(7.39047 -0.00544558 0)
(7.33303 0.000661123 0)
(7.33335 0.00195742 0)
(7.33405 0.00315581 0)
(7.33505 0.004205 0)
(7.33626 0.00508291 0)
(7.33765 0.00578468 0)
(7.33917 0.00631635 0)
(7.34078 0.00669232 0)
(7.34245 0.00693033 0)
(7.34416 0.00704811 0)
(7.3459 0.00706205 0)
(7.34765 0.0069865 0)
(7.34942 0.00683345 0)
(7.35119 0.00661273 0)
(7.35297 0.00633214 0)
(7.35476 0.00599777 0)
(7.35655 0.00561426 0)
(7.35835 0.00518496 0)
(7.36016 0.00471216 0)
(7.36199 0.00419709 0)
(7.36383 0.00364005 0)
(7.36568 0.00304031 0)
(7.36757 0.0023961 0)
(7.36948 0.00170446 0)
(7.37142 0.000961144 0)
(7.3734 0.000160527 0)
(7.37541 -0.000704438 0)
(7.37746 -0.00164212 0)
(7.37956 -0.00266193 0)
(7.38169 -0.00377387 0)
(7.38385 -0.00498777 0)
(7.38604 -0.00631273 0)
(7.38824 -0.00775287 0)
(7.33303 0.000570139 0)
(7.33333 0.00168551 0)
(7.33398 0.00271449 0)
(7.3349 0.00361528 0)
(7.33604 0.00436814 0)
(7.33734 0.00496721 0)
(7.33878 0.00541596 0)
(7.3403 0.005725 0)
(7.3419 0.00590827 0)
(7.34354 0.00598022 0)
(7.34522 0.00595458 0)
(7.34692 0.00584352 0)
(7.34863 0.00565742 0)
(7.35036 0.00540483 0)
(7.35209 0.00509254 0)
(7.35384 0.00472586 0)
(7.35559 0.00430873 0)
(7.35734 0.00384391 0)
(7.35911 0.00333312 0)
(7.36089 0.00277709 0)
(7.36269 0.00217562 0)
(7.3645 0.00152756 0)
(7.36633 0.000830785 0)
(7.36818 8.21382e-05 0)
(7.37006 -0.000722601 0)
(7.37196 -0.00158873 0)
(7.37389 -0.00252258 0)
(7.37585 -0.00353134 0)
(7.37784 -0.00462277 0)
(7.37986 -0.00580479 0)
(7.38189 -0.00708491 0)
(7.38393 -0.00846992 0)
(7.38598 -0.00996207 0)
(7.33303 0.000482706 0)
(7.33331 0.00142542 0)
(7.33391 0.00229265 0)
(7.33477 0.00304974 0)
(7.33583 0.00367925 0)
(7.33706 0.00417478 0)
(7.33842 0.0045379 0)
(7.33987 0.00477626 0)
(7.3414 0.00490065 0)
(7.34297 0.00492271 0)
(7.34459 0.00485374 0)
(7.34623 0.00470392 0)
(7.3479 0.00448208 0)
(7.34957 0.00419547 0)
(7.35126 0.00384991 0)
(7.35296 0.00344986 0)
(7.35467 0.00299857 0)
(7.35638 0.00249822 0)
(7.3581 0.00195 0)
(7.35983 0.00135417 0)
(7.36158 0.000710131 0)
(7.36333 1.64221e-05 0)
(7.3651 -0.000729288 0)
(7.36689 -0.00153019 0)
(7.3687 -0.00239034 0)
(7.37052 -0.00331458 0)
(7.37237 -0.00430849 0)
(7.37423 -0.00537814 0)
(7.37611 -0.00652987 0)
(7.37801 -0.00776992 0)
(7.37991 -0.009104 0)
(7.38182 -0.0105372 0)
(7.38372 -0.0120704 0)
(7.33302 0.000398689 0)
(7.33329 0.00117604 0)
(7.33385 0.00188811 0)
(7.33465 0.00250573 0)
(7.33565 0.0030136 0)
(7.33681 0.00340517 0)
(7.33809 0.00368062 0)
(7.33948 0.00384531 0)
(7.34094 0.00390743 0)
(7.34245 0.00387622 0)
(7.34401 0.00376081 0)
(7.3456 0.00356955 0)
(7.34721 0.00330975 0)
(7.34884 0.00298747 0)
(7.35048 0.00260751 0)
(7.35213 0.0021735 0)
(7.35379 0.001688 0)
(7.35545 0.00115263 0)
(7.35713 0.000568063 0)
(7.35881 -6.58266e-05 0)
(7.36049 -0.000749967 0)
(7.36219 -0.00148604 0)
(7.3639 -0.00227645 0)
(7.36562 -0.00312434 0)
(7.36735 -0.00403348 0)
(7.36909 -0.00500823 0)
(7.37085 -0.0060534 0)
(7.37261 -0.00717408 0)
(7.37438 -0.00837539 0)
(7.37615 -0.00966223 0)
(7.37793 -0.0110389 0)
(7.3797 -0.0125092 0)
(7.38145 -0.0140731 0)
(7.33302 0.000317844 0)
(7.33327 0.000936285 0)
(7.3338 0.00149887 0)
(7.33455 0.00198077 0)
(7.33549 0.00236858 0)
(7.33658 0.00265588 0)
(7.3378 0.00284188 0)
(7.33912 0.0029302 0)
(7.34052 0.00292696 0)
(7.34198 0.00283932 0)
(7.34348 0.00267454 0)
(7.34501 0.00243927 0)
(7.34657 0.00213953 0)
(7.34815 0.00178011 0)
(7.34974 0.00136487 0)
(7.35134 0.000896617 0)
(7.35295 0.000377241 0)
(7.35457 -0.00019222 0)
(7.35619 -0.000811527 0)
(7.35781 -0.00148118 0)
(7.35944 -0.00220235 0)
(7.36108 -0.00297687 0)
(7.36272 -0.00380718 0)
(7.36436 -0.00469626 0)
(7.36601 -0.00564756 0)
(7.36767 -0.00666494 0)
(7.36933 -0.00775253 0)
(7.37099 -0.00891452 0)
(7.37265 -0.010155 0)
(7.3743 -0.0114779 0)
(7.37595 -0.0128863 0)
(7.37758 -0.0143831 0)
(7.37919 -0.0159676 0)
(7.33302 0.000239882 0)
(7.33325 0.000705137 0)
(7.33375 0.00112319 0)
(7.33446 0.00147276 0)
(7.33534 0.0017422 0)
(7.33638 0.00192546 0)
(7.33754 0.00202115 0)
(7.3388 0.00203155 0)
(7.34014 0.00196105 0)
(7.34154 0.00181505 0)
(7.34299 0.00159937 0)
(7.34447 0.0013186 0)
(7.34598 0.000977726 0)
(7.34751 0.000580544 0)
(7.34905 0.000129836 0)
(7.3506 -0.000372329 0)
(7.35216 -0.000924704 0)
(7.35372 -0.00152679 0)
(7.35529 -0.00217877 0)
(7.35685 -0.00288144 0)
(7.35842 -0.00363619 0)
(7.35999 -0.00444493 0)
(7.36156 -0.00531004 0)
(7.36313 -0.00623432 0)
(7.3647 -0.00722091 0)
(7.36626 -0.00827316 0)
(7.36783 -0.00939458 0)
(7.36938 -0.0105886 0)
(7.37093 -0.0118585 0)
(7.37246 -0.0132073 0)
(7.37398 -0.0146373 0)
(7.37548 -0.0161506 0)
(7.37695 -0.017746 0)
(7.33302 0.000164495 0)
(7.33324 0.000481548 0)
(7.3337 0.000759183 0)
(7.33437 0.000978973 0)
(7.33521 0.00113084 0)
(7.3362 0.00120928 0)
(7.3373 0.00121259 0)
(7.33851 0.00114229 0)
(7.3398 0.00100146 0)
(7.34115 0.000794086 0)
(7.34254 0.000524062 0)
(7.34398 0.000196078 0)
(7.34544 -0.000187113 0)
(7.34691 -0.000622831 0)
(7.34841 -0.00110906 0)
(7.34991 -0.00164448 0)
(7.35141 -0.00222849 0)
(7.35292 -0.00286111 0)
(7.35443 -0.00354293 0)
(7.35593 -0.00427504 0)
(7.35744 -0.005059 0)
(7.35894 -0.00589679 0)
(7.36043 -0.00679072 0)
(7.36192 -0.0077434 0)
(7.36341 -0.00875765 0)
(7.36488 -0.00983639 0)
(7.36634 -0.0109826 0)
(7.36779 -0.012199 0)
(7.36923 -0.0134883 0)
(7.37064 -0.0148527 0)
(7.37203 -0.0162939 0)
(7.3734 -0.0178135 0)
(7.37473 -0.0194098 0)
(7.33302 9.14122e-05 0)
(7.33322 0.00026483 0)
(7.33366 0.000406123 0)
(7.3343 0.000499474 0)
(7.33509 0.000536411 0)
(7.33603 0.000512121 0)
(7.33709 0.000424853 0)
(7.33825 0.000274985 0)
(7.33949 6.46165e-05 0)
(7.34079 -0.000203514 0)
(7.34214 -0.000526884 0)
(7.34352 -0.000902021 0)
(7.34493 -0.0013273 0)
(7.34636 -0.00180104 0)
(7.34781 -0.00232197 0)
(7.34926 -0.00288952 0)
(7.35071 -0.00350368 0)
(7.35216 -0.00416488 0)
(7.35361 -0.00487406 0)
(7.35506 -0.00563252 0)
(7.35649 -0.00644197 0)
(7.35792 -0.00730437 0)
(7.35934 -0.00822197 0)
(7.36075 -0.00919716 0)
(7.36215 -0.0102325 0)
(7.36353 -0.0113304 0)
(7.36489 -0.0124934 0)
(7.36624 -0.0137238 0)
(7.36756 -0.0150237 0)
(7.36885 -0.0163947 0)
(7.37012 -0.0178381 0)
(7.37136 -0.0193548 0)
(7.37256 -0.0209431 0)
(7.33302 2.02732e-05 0)
(7.33321 5.33599e-05 0)
(7.33363 5.98847e-05 0)
(7.33423 2.58747e-05 0)
(7.33499 -5.55554e-05 0)
(7.33589 -0.000187947 0)
(7.33691 -0.000372345 0)
(7.33802 -0.000608304 0)
(7.33921 -0.000894151 0)
(7.34047 -0.00122803 0)
(7.34177 -0.00160793 0)
(7.34311 -0.00203295 0)
(7.34448 -0.00250156 0)
(7.34586 -0.00301306 0)
(7.34725 -0.00356727 0)
(7.34865 -0.00416443 0)
(7.35005 -0.00480519 0)
(7.35145 -0.00549053 0)
(7.35284 -0.00622179 0)
(7.35422 -0.00700057 0)
(7.35559 -0.00782872 0)
(7.35695 -0.00870826 0)
(7.35829 -0.00964138 0)
(7.35962 -0.0106303 0)
(7.36093 -0.0116773 0)
(7.36222 -0.0127846 0)
(7.36348 -0.0139543 0)
(7.36472 -0.0151881 0)
(7.36593 -0.0164878 0)
(7.36711 -0.0178545 0)
(7.36825 -0.0192891 0)
(7.36936 -0.0207922 0)
(7.37043 -0.0223619 0)
(7.33302 -4.88097e-05 0)
(7.3332 -0.000150749 0)
(7.3336 -0.000271873 0)
(7.33417 -0.000424003 0)
(7.33489 -0.000612819 0)
(7.33575 -0.000841607 0)
(7.33673 -0.00111204 0)
(7.33781 -0.0014242 0)
(7.33896 -0.00177758 0)
(7.34018 -0.00217132 0)
(7.34144 -0.00260454 0)
(7.34274 -0.00307664 0)
(7.34406 -0.00358714 0)
(7.3454 -0.00413608 0)
(7.34675 -0.00472386 0)
(7.3481 -0.00535117 0)
(7.34945 -0.00601906 0)
(7.35079 -0.00672883 0)
(7.35212 -0.00748205 0)
(7.35344 -0.00828048 0)
(7.35475 -0.00912601 0)
(7.35603 -0.0100207 0)
(7.3573 -0.0109666 0)
(7.35854 -0.0119657 0)
(7.35976 -0.0130202 0)
(7.36096 -0.0141319 0)
(7.36212 -0.0153026 0)
(7.36326 -0.0165338 0)
(7.36436 -0.0178267 0)
(7.36542 -0.0191822 0)
(7.36645 -0.020601 0)
(7.36743 -0.0220834 0)
(7.36838 -0.0236272 0)
(7.33302 -0.000117154 0)
(7.33319 -0.000357342 0)
(7.33357 -0.00061777 0)
(7.33412 -0.000908386 0)
(7.33482 -0.00123065 0)
(7.33565 -0.00158342 0)
(7.3366 -0.00196521 0)
(7.33764 -0.00237477 0)
(7.33876 -0.00281145 0)
(7.33994 -0.0032752 0)
(7.34116 -0.00376645 0)
(7.34242 -0.0042861 0)
(7.3437 -0.0048353 0)
(7.34499 -0.00541547 0)
(7.3463 -0.00602823 0)
(7.3476 -0.00667535 0)
(7.34889 -0.00735872 0)
(7.35018 -0.00808033 0)
(7.35145 -0.00884224 0)
(7.35271 -0.00964655 0)
(7.35395 -0.0104954 0)
(7.35516 -0.0113908 0)
(7.35635 -0.012335 0)
(7.35752 -0.0133298 0)
(7.35865 -0.0143771 0)
(7.35975 -0.0154787 0)
(7.36082 -0.0166359 0)
(7.36185 -0.01785 0)
(7.36284 -0.0191219 0)
(7.3638 -0.0204524 0)
(7.36471 -0.0218416 0)
(7.36557 -0.0232897 0)
(7.36639 -0.0247947 0)
(7.33301 -0.000180396 0)
(7.33317 -0.000535502 0)
(7.33352 -0.000895362 0)
(7.33404 -0.00127218 0)
(7.33471 -0.00167134 0)
(7.33551 -0.00209535 0)
(7.33644 -0.00254499 0)
(7.33746 -0.00301978 0)
(7.33855 -0.00351898 0)
(7.33971 -0.00404212 0)
(7.34091 -0.00458917 0)
(7.34214 -0.00516062 0)
(7.34339 -0.00575737 0)
(7.34465 -0.00638068 0)
(7.34591 -0.00703216 0)
(7.34717 -0.00771361 0)
(7.34842 -0.00842701 0)
(7.34965 -0.00917445 0)
(7.35087 -0.00995807 0)
(7.35207 -0.0107801 0)
(7.35324 -0.0116426 0)
(7.35438 -0.0125478 0)
(7.35549 -0.0134976 0)
(7.35658 -0.014494 0)
(7.35762 -0.0155387 0)
(7.35864 -0.0166332 0)
(7.35961 -0.0177789 0)
(7.36054 -0.0189768 0)
(7.36143 -0.0202278 0)
(7.36227 -0.0215322 0)
(7.36307 -0.0228903 0)
(7.36382 -0.0243021 0)
(7.36452 -0.0257656 0)
(7.33302 -0.000254626 0)
(7.33319 -0.000783267 0)
(7.33355 -0.00134282 0)
(7.33406 -0.00192947 0)
(7.33471 -0.00252826 0)
(7.33549 -0.00312768 0)
(7.33638 -0.00372256 0)
(7.33736 -0.00431207 0)
(7.33842 -0.0048981 0)
(7.33954 -0.00548408 0)
(7.3407 -0.00607415 0)
(7.3419 -0.00667269 0)
(7.34311 -0.00728401 0)
(7.34433 -0.0079122 0)
(7.34555 -0.00856109 0)
(7.34676 -0.00923422 0)
(7.34796 -0.00993486 0)
(7.34914 -0.010666 0)
(7.35031 -0.0114305 0)
(7.35144 -0.0122309 0)
(7.35255 -0.0130696 0)
(7.35363 -0.0139487 0)
(7.35467 -0.0148702 0)
(7.35567 -0.0158359 0)
(7.35664 -0.0168474 0)
(7.35757 -0.017906 0)
(7.35845 -0.0190127 0)
(7.35928 -0.0201684 0)
(7.36007 -0.0213736 0)
(7.36082 -0.0226285 0)
(7.36151 -0.0239332 0)
(7.36214 -0.0252874 0)
(7.36273 -0.0266892 0)
(7.333 -0.000281284 0)
(7.3331 -0.000803031 0)
(7.33338 -0.0013142 0)
(7.33384 -0.00185091 0)
(7.33448 -0.00242442 0)
(7.33526 -0.00303204 0)
(7.33617 -0.0036661 0)
(7.33718 -0.00431857 0)
(7.33826 -0.00498345 0)
(7.33939 -0.00565717 0)
(7.34055 -0.00633827 0)
(7.34174 -0.00702689 0)
(7.34294 -0.00772437 0)
(7.34414 -0.00843279 0)
(7.34533 -0.00915478 0)
(7.34651 -0.00989318 0)
(7.34767 -0.010651 0)
(7.34881 -0.0114312 0)
(7.34992 -0.0122367 0)
(7.351 -0.0130702 0)
(7.35204 -0.0139345 0)
(7.35305 -0.0148318 0)
(7.35402 -0.0157644 0)
(7.35494 -0.0167343 0)
(7.35583 -0.0177432 0)
(7.35666 -0.0187926 0)
(7.35746 -0.0198836 0)
(7.3582 -0.0210171 0)
(7.35889 -0.0221938 0)
(7.35953 -0.0234141 0)
(7.36011 -0.0246779 0)
(7.36064 -0.0259853 0)
(7.36111 -0.0273344 0)
(7.33305 -0.000448238 0)
(7.33328 -0.00141657 0)
(7.33363 -0.00244111 0)
(7.33409 -0.00345669 0)
(7.33468 -0.00441192 0)
(7.33539 -0.00529028 0)
(7.33622 -0.00609562 0)
(7.33715 -0.00683893 0)
(7.33816 -0.00753333 0)
(7.33924 -0.00819209 0)
(7.34035 -0.00882741 0)
(7.3415 -0.00945004 0)
(7.34266 -0.0100691 0)
(7.34382 -0.0106924 0)
(7.34498 -0.0113262 0)
(7.34612 -0.0119759 0)
(7.34725 -0.0126461 0)
(7.34834 -0.0133406 0)
(7.34941 -0.0140626 0)
(7.35044 -0.0148148 0)
(7.35143 -0.0155997 0)
(7.35238 -0.0164193 0)
(7.35329 -0.0172754 0)
(7.35415 -0.0181694 0)
(7.35496 -0.0191024 0)
(7.35573 -0.0200756 0)
(7.35644 -0.0210895 0)
(7.3571 -0.0221446 0)
(7.3577 -0.0232412 0)
(7.35825 -0.0243792 0)
(7.35874 -0.0255584 0)
(7.35917 -0.0267785 0)
(7.35955 -0.0280375 0)
(7.33293 -0.000197871 0)
(7.33282 -0.000503742 0)
(7.33296 -0.000866277 0)
(7.33339 -0.00141386 0)
(7.33408 -0.00213497 0)
(7.33494 -0.00297073 0)
(7.33593 -0.00386829 0)
(7.337 -0.00479067 0)
(7.33813 -0.00571457 0)
(7.33929 -0.00662652 0)
(7.34046 -0.00752009 0)
(7.34164 -0.00839368 0)
(7.34281 -0.00924882 0)
(7.34397 -0.0100889 0)
(7.3451 -0.0109182 0)
(7.34621 -0.0117415 0)
(7.34729 -0.0125637 0)
(7.34834 -0.0133894 0)
(7.34935 -0.0142232 0)
(7.35031 -0.015069 0)
(7.35124 -0.0159305 0)
(7.35212 -0.0168111 0)
(7.35295 -0.0177136 0)
(7.35373 -0.0186406 0)
(7.35446 -0.0195943 0)
(7.35513 -0.0205764 0)
(7.35575 -0.0215883 0)
(7.35632 -0.0226313 0)
(7.35683 -0.0237061 0)
(7.35728 -0.0248133 0)
(7.35767 -0.025953 0)
(7.358 -0.0271253 0)
(7.35827 -0.0283289 0)
(7.33316 -0.000893624 0)
(7.33361 -0.00295915 0)
(7.3339 -0.00498675 0)
(7.33415 -0.00671799 0)
(7.33453 -0.00810693 0)
(7.33509 -0.00921597 0)
(7.33583 -0.0101144 0)
(7.33671 -0.0108595 0)
(7.33769 -0.0114975 0)
(7.33876 -0.0120649 0)
(7.33987 -0.0125895 0)
(7.34101 -0.0130919 0)
(7.34216 -0.0135873 0)
(7.3433 -0.0140867 0)
(7.34443 -0.0145981 0)
(7.34554 -0.0151276 0)
(7.34661 -0.0156795 0)
(7.34765 -0.016257 0)
(7.34865 -0.0168627 0)
(7.3496 -0.0174985 0)
(7.3505 -0.0181658 0)
(7.35135 -0.0188657 0)
(7.35215 -0.0195992 0)
(7.35289 -0.0203668 0)
(7.35358 -0.0211691 0)
(7.3542 -0.0220063 0)
(7.35477 -0.0228785 0)
(7.35528 -0.0237856 0)
(7.35572 -0.0247276 0)
(7.35611 -0.0257039 0)
(7.35643 -0.0267142 0)
(7.35668 -0.027758 0)
(7.35688 -0.0288334 0)
(7.33266 0.000506292 0)
(7.33187 0.00169872 0)
(7.33188 0.0022749 0)
(7.33256 0.00189628 0)
(7.33358 0.000876159 0)
(7.33473 -0.00046573 0)
(7.33595 -0.00193484 0)
(7.33718 -0.00342678 0)
(7.33842 -0.00488316 0)
(7.33964 -0.00627255 0)
(7.34084 -0.0075824 0)
(7.34201 -0.00881169 0)
(7.34315 -0.00996564 0)
(7.34425 -0.0110526 0)
(7.34532 -0.0120823 0)
(7.34635 -0.0130647 0)
(7.34734 -0.0140093 0)
(7.34828 -0.014925 0)
(7.34918 -0.0158196 0)
(7.35003 -0.0167004 0)
(7.35083 -0.0175735 0)
(7.35158 -0.0184443 0)
(7.35227 -0.0193175 0)
(7.35292 -0.0201972 0)
(7.3535 -0.0210866 0)
(7.35403 -0.0219885 0)
(7.3545 -0.0229054 0)
(7.35491 -0.023839 0)
(7.35525 -0.0247909 0)
(7.35554 -0.025762 0)
(7.35576 -0.026753 0)
(7.35592 -0.0277645 0)
(7.35602 -0.0287957 0)
(7.33352 -0.00204677 0)
(7.3344 -0.0069218 0)
(7.33398 -0.0114553 0)
(7.33325 -0.0143045 0)
(7.33301 -0.0159715 0)
(7.33329 -0.0169538 0)
(7.33395 -0.0175062 0)
(7.33484 -0.0178004 0)
(7.33591 -0.0179544 0)
(7.33708 -0.0180444 0)
(7.3383 -0.0181182 0)
(7.33955 -0.018205 0)
(7.3408 -0.0183218 0)
(7.34203 -0.0184781 0)
(7.34323 -0.0186783 0)
(7.34438 -0.0189244 0)
(7.34549 -0.0192164 0)
(7.34655 -0.0195533 0)
(7.34754 -0.0199339 0)
(7.34849 -0.0203566 0)
(7.34937 -0.0208198 0)
(7.35018 -0.0213221 0)
(7.35094 -0.021862 0)
(7.35163 -0.0224382 0)
(7.35226 -0.0230494 0)
(7.35282 -0.0236946 0)
(7.35331 -0.0243727 0)
(7.35374 -0.0250827 0)
(7.3541 -0.0258234 0)
(7.3544 -0.026594 0)
(7.35463 -0.0273936 0)
(7.35479 -0.0282213 0)
(7.35489 -0.0290754 0)
(7.33179 0.00337876 0)
(7.32901 0.00916904 0)
(7.32948 0.0117654 0)
(7.33178 0.0114538 0)
(7.33383 0.00932214 0)
(7.33554 0.00658807 0)
(7.33708 0.00375268 0)
(7.33846 0.00100152 0)
(7.33972 -0.00156473 0)
(7.34089 -0.00390393 0)
(7.342 -0.00601342 0)
(7.34305 -0.00790852 0)
(7.34407 -0.00961164 0)
(7.34505 -0.0111475 0)
(7.346 -0.0125404 0)
(7.34692 -0.0138129 0)
(7.34781 -0.0149851 0)
(7.34866 -0.0160746 0)
(7.34949 -0.0170968 0)
(7.35027 -0.0180646 0)
(7.35102 -0.0189893 0)
(7.35172 -0.0198803 0)
(7.35238 -0.0207456 0)
(7.35299 -0.021592 0)
(7.35355 -0.0224251 0)
(7.35406 -0.0232497 0)
(7.35451 -0.0240698 0)
(7.3549 -0.0248885 0)
(7.35523 -0.0257086 0)
(7.35551 -0.0265321 0)
(7.35572 -0.0273608 0)
(7.35587 -0.0281956 0)
(7.35596 -0.0290371 0)
(7.33408 -0.00614499 0)
(7.33403 -0.0190133 0)
(7.33025 -0.0271011 0)
(7.32656 -0.0306513 0)
(7.32496 -0.031445 0)
(7.32517 -0.0310403 0)
(7.32619 -0.0301064 0)
(7.32764 -0.0289649 0)
(7.32935 -0.0278141 0)
(7.33121 -0.0267577 0)
(7.33312 -0.0258401 0)
(7.33505 -0.0250758 0)
(7.33696 -0.0244637 0)
(7.33883 -0.023995 0)
(7.34065 -0.0236569 0)
(7.3424 -0.023436 0)
(7.34409 -0.023319 0)
(7.3457 -0.0232938 0)
(7.34724 -0.0233496 0)
(7.3487 -0.0234769 0)
(7.35009 -0.0236676 0)
(7.3514 -0.0239146 0)
(7.35263 -0.0242119 0)
(7.35377 -0.0245546 0)
(7.35484 -0.0249382 0)
(7.35583 -0.0253591 0)
(7.35673 -0.0258142 0)
(7.35755 -0.0263008 0)
(7.3583 -0.0268165 0)
(7.35896 -0.0273592 0)
(7.35954 -0.0279272 0)
(7.36004 -0.0285192 0)
(7.36047 -0.029133 0)
(7.32967 0.0198514 0)
(7.32497 0.0369792 0)
(7.3293 0.0376624 0)
(7.33508 0.0322383 0)
(7.3387 0.0258113 0)
(7.34085 0.019482 0)
(7.34262 0.0135601 0)
(7.34433 0.00825107 0)
(7.34604 0.00360102 0)
(7.34782 -0.0004365 0)
(7.34969 -0.00393049 0)
(7.35164 -0.0069524 0)
(7.35366 -0.00957115 0)
(7.35572 -0.0118492 0)
(7.35781 -0.0138411 0)
(7.35991 -0.0155933 0)
(7.36199 -0.0171451 0)
(7.36405 -0.0185298 0)
(7.36607 -0.019775 0)
(7.36803 -0.020904 0)
(7.36993 -0.0219362 0)
(7.37177 -0.022888 0)
(7.37353 -0.023773 0)
(7.37521 -0.0246025 0)
(7.3768 -0.0253863 0)
(7.37831 -0.0261325 0)
(7.37972 -0.0268477 0)
(7.38104 -0.0275379 0)
(7.38227 -0.0282079 0)
(7.3834 -0.0288618 0)
(7.38444 -0.0295033 0)
(7.38538 -0.0301349 0)
(7.38623 -0.0307601 0)
(7.32507 -0.0330896 0)
(7.29737 -0.0587959 0)
(7.27804 -0.0617541 0)
(7.27373 -0.0594107 0)
(7.28035 -0.055941 0)
(7.29179 -0.0519193 0)
(7.30504 -0.0479963 0)
(7.31877 -0.0445075 0)
(7.3322 -0.0415027 0)
(7.34495 -0.0389643 0)
(7.35682 -0.0368553 0)
(7.36778 -0.0351243 0)
(7.37783 -0.0337172 0)
(7.38701 -0.0325849 0)
(7.39538 -0.0316839 0)
(7.40299 -0.0309771 0)
(7.4099 -0.0304329 0)
(7.41617 -0.0300252 0)
(7.42184 -0.0297323 0)
(7.42698 -0.0295362 0)
(7.43161 -0.0294222 0)
(7.43578 -0.029378 0)
(7.43952 -0.0293938 0)
(7.44287 -0.029461 0)
(7.44585 -0.0295729 0)
(7.44849 -0.0297237 0)
(7.45081 -0.0299086 0)
(7.45285 -0.0301234 0)
(7.4546 -0.0303647 0)
(7.4561 -0.0306296 0)
(7.45736 -0.0309153 0)
(7.4584 -0.0312193 0)
(7.45923 -0.0315387 0)