/*--------------------------------*- C++ -*----------------------------------*\
  =========                 |
  \\      /  F ield         | OpenFOAM: The Open Source CFD Toolbox
   \\    /   O peration     | Website:  https://openfoam.org
    \\  /    A nd           | Version:  10
     \\/     M anipulation  |
\*---------------------------------------------------------------------------*/
FoamFile
{
    format      ascii;
    class       volScalarField;
    location    "0.025";
    object      epsilon;
}
// * * * * * * * * * * * * * * * * * * * * * * * * * * * * * * * * * * * * * //

dimensions      [0 2 -3 0 0 0 0];

internalField   nonuniform List<scalar> 
6820
(
23.2969
22.5752
21.9095
21.2857
20.7025
20.1642
19.6745
19.2352
18.8458
18.5038
18.206
17.9484
17.7271
17.5383
17.3782
17.2435
17.131
17.038
16.962
16.9006
16.8518
16.8138
16.7848
16.7636
16.7485
16.7387
16.7329
16.7333
16.7249
16.7752
16.5667
17.568
12.9543
5.03378
6.81754
7.83756
8.46435
8.89247
9.2222
9.50697
9.77284
10.0315
10.2876
10.5427
10.7969
11.0495
11.2997
11.5467
11.7894
12.0269
12.2583
12.4826
12.699
12.9067
13.1048
13.2928
13.4701
13.6365
13.792
13.938
14.0754
14.2055
14.3367
14.4412
14.6774
14.5191
3.70361
4.1473
4.56523
4.91382
5.19686
5.42901
5.62424
5.79365
5.94555
6.08594
6.21897
6.34741
6.47305
6.59693
6.71966
6.84149
6.96244
7.0824
7.20114
7.3184
7.43384
7.54716
7.658
7.76607
7.87105
7.97274
8.07087
8.16569
8.25634
8.34529
8.42574
8.51257
8.56975
3.54006
3.61087
3.72459
3.85347
3.98074
4.09864
4.20489
4.29987
4.38503
4.46211
4.53277
4.59848
4.66041
4.71951
4.77648
4.83186
4.88601
4.93918
4.99152
5.04311
5.09396
5.14406
5.19336
5.24183
5.28943
5.33597
5.38127
5.4253
5.46792
5.50939
5.54917
5.58831
5.62593
3.52064
3.50152
3.50499
3.5261
3.55859
3.59698
3.63734
3.67724
3.71538
3.75121
3.7846
3.8157
3.84472
3.87196
3.89768
3.92215
3.94557
3.96812
3.98995
4.01115
4.0318
4.05198
4.07174
4.09104
4.10986
4.12819
4.14601
4.16333
4.18012
4.19643
4.2122
4.22744
4.24241
3.5194
3.48244
3.453
3.4323
3.41993
3.41446
3.41412
3.41729
3.42267
3.42932
3.43657
3.44401
3.45138
3.45853
3.46539
3.47193
3.47818
3.48414
3.48985
3.49534
3.50064
3.50576
3.51071
3.5155
3.52013
3.52461
3.52895
3.53316
3.53724
3.5412
3.54508
3.54886
3.5527
3.51943
3.47973
3.44283
3.40952
3.3803
3.35531
3.33429
3.31677
3.30218
3.28997
3.27965
3.27079
3.26308
3.25625
3.25011
3.24451
3.23934
3.23453
3.23002
3.22576
3.22172
3.21787
3.21419
3.21068
3.20732
3.2041
3.20103
3.19811
3.19535
3.19275
3.19035
3.18814
3.18624
3.51947
3.47943
3.44108
3.40468
3.37046
3.33861
3.30922
3.28226
3.25761
3.2351
3.21452
3.19565
3.17829
3.16225
3.14736
3.13348
3.12048
3.10826
3.09673
3.08583
3.07548
3.06565
3.05629
3.04737
3.03888
3.03078
3.02307
3.01574
3.0088
3.00224
2.9961
2.99039
2.98518
3.51947
3.4794
3.44085
3.40384
3.3684
3.33458
3.30241
3.27193
3.24312
3.21595
3.19036
3.16628
3.1436
3.12223
3.10207
3.08305
3.06505
3.04801
3.03184
3.01649
3.0019
2.98803
2.97481
2.96223
2.95026
2.93886
2.92803
2.91776
2.90804
2.89888
2.89029
2.88232
2.875
3.51948
3.4794
3.44081
3.40369
3.368
3.3337
3.30078
3.26921
3.23898
3.21007
3.18244
3.15606
3.1309
3.10691
3.08403
3.06222
3.04141
3.02157
3.00265
2.98459
2.96736
2.95091
2.93522
2.92026
2.906
2.89242
2.87952
2.86727
2.85569
2.84478
2.83456
2.82506
2.81632
3.51947
3.4794
3.4408
3.40366
3.36792
3.33352
3.30042
3.26856
3.23791
3.20844
3.18011
3.15289
3.12675
3.10165
3.07756
3.05446
3.03229
3.01104
2.99067
2.97115
2.95246
2.93456
2.91743
2.90105
2.88541
2.8705
2.8563
2.84281
2.83004
2.818
2.80671
2.79621
2.78654
3.51947
3.47939
3.4408
3.40365
3.3679
3.33347
3.30032
3.2684
3.23764
3.20801
3.17947
3.15197
3.12549
3.09999
3.07544
3.05182
3.02908
3.00721
2.98618
2.96597
2.94656
2.92792
2.91005
2.89292
2.87653
2.86088
2.84594
2.83174
2.81827
2.80555
2.79361
2.78248
2.7722
3.51947
3.47939
3.44079
3.40364
3.36788
3.33345
3.30028
3.26833
3.23754
3.20787
3.17926
3.15169
3.1251
3.09947
3.07476
3.05094
3.02799
3.00588
2.98458
2.96407
2.94435
2.92538
2.90716
2.88968
2.87292
2.85688
2.84157
2.82698
2.81313
2.80003
2.7877
2.77619
2.76553
3.51947
3.47939
3.44079
3.40363
3.36786
3.33342
3.30025
3.26829
3.23749
3.20779
3.17917
3.15156
3.12494
3.09926
3.07449
3.05061
3.02757
3.00537
2.98396
2.96334
2.94348
2.92437
2.906
2.88835
2.87141
2.85519
2.83969
2.8249
2.81084
2.79752
2.78497
2.77322
2.7623
3.51947
3.47939
3.44078
3.40363
3.36785
3.33341
3.30022
3.26825
3.23744
3.20774
3.17909
3.15147
3.12483
3.09913
3.07434
3.05042
3.02735
3.0051
2.98365
2.96297
2.94305
2.92388
2.90542
2.88769
2.87066
2.85434
2.83873
2.82382
2.80963
2.79618
2.78347
2.77155
2.76043
3.51947
3.47939
3.44078
3.40362
3.36784
3.33339
3.3002
3.26822
3.2374
3.20768
3.17903
3.15139
3.12474
3.09902
3.07421
3.05027
3.02717
3.0049
2.98341
2.9627
2.94274
2.92352
2.90502
2.88723
2.87014
2.85376
2.83806
2.82307
2.80879
2.79522
2.78239
2.77031
2.75902
3.51947
3.47939
3.44078
3.40362
3.36784
3.33338
3.30018
3.26819
3.23736
3.20764
3.17897
3.15132
3.12465
3.09891
3.07408
3.05012
3.02701
3.00471
2.9832
2.96246
2.94246
2.9232
2.90466
2.88682
2.86968
2.85323
2.83747
2.8224
2.80803
2.79436
2.78141
2.76919
2.75773
3.51947
3.47939
3.44078
3.40361
3.36783
3.33336
3.30016
3.26817
3.23733
3.20759
3.17891
3.15125
3.12456
3.09881
3.07396
3.04999
3.02685
3.00452
2.98299
2.96221
2.94219
2.92289
2.9043
2.88642
2.86923
2.85272
2.83689
2.82174
2.80728
2.7935
2.78043
2.76807
2.75644
3.51947
3.47939
3.44078
3.40361
3.36782
3.33336
3.30015
3.26815
3.2373
3.20755
3.17886
3.15119
3.12448
3.09872
3.07385
3.04985
3.02669
3.00434
2.98277
2.96197
2.94191
2.92257
2.90395
2.88601
2.86877
2.8522
2.8363
2.82107
2.80652
2.79264
2.77944
2.76694
2.75514
3.51947
3.47939
3.44078
3.40361
3.36782
3.33335
3.30013
3.26813
3.23727
3.20751
3.17881
3.15112
3.12441
3.09862
3.07374
3.04972
3.02654
3.00416
2.98257
2.96173
2.94164
2.92226
2.90359
2.88561
2.8683
2.85167
2.8357
2.8204
2.80575
2.79176
2.77844
2.76579
2.75382
3.51947
3.47939
3.44078
3.40361
3.36782
3.33334
3.30012
3.26811
3.23724
3.20748
3.17877
3.15106
3.12433
3.09853
3.07363
3.04959
3.02638
3.00398
2.98236
2.96149
2.94136
2.92195
2.90323
2.8852
2.86784
2.85114
2.8351
2.81971
2.80497
2.79088
2.77743
2.76464
2.7525
3.51947
3.47939
3.44078
3.40361
3.36781
3.33333
3.30011
3.26809
3.23722
3.20744
3.17872
3.15101
3.12426
3.09845
3.07353
3.04947
3.02624
3.00381
2.98216
2.96126
2.94109
2.92164
2.90287
2.88479
2.86738
2.85062
2.8345
2.81903
2.8042
2.79
2.77643
2.7635
2.7512
3.51947
3.47939
3.44078
3.40361
3.36781
3.33333
3.3001
3.26808
3.2372
3.20741
3.17868
3.15096
3.1242
3.09837
3.07343
3.04935
3.02609
3.00364
2.98196
2.96103
2.94083
2.92133
2.90252
2.88439
2.86692
2.8501
2.83391
2.81836
2.80343
2.78913
2.77544
2.76238
2.74992
3.51947
3.47939
3.44078
3.40361
3.36781
3.33332
3.30009
3.26806
3.23718
3.20739
3.17864
3.15091
3.12413
3.09829
3.07333
3.04923
3.02595
3.00347
2.98177
2.9608
2.94056
2.92103
2.90218
2.884
2.86647
2.84958
2.83333
2.8177
2.80268
2.78828
2.77448
2.76128
2.74869
3.51947
3.47939
3.44078
3.40361
3.36781
3.33332
3.30009
3.26805
3.23716
3.20736
3.17861
3.15086
3.12407
3.09821
3.07324
3.04911
3.02582
3.00331
2.98158
2.96058
2.94031
2.92074
2.90184
2.88361
2.86603
2.84909
2.83276
2.81706
2.80196
2.78746
2.77355
2.76023
2.74749
3.51947
3.47939
3.44078
3.40361
3.36781
3.33332
3.30008
3.26804
3.23714
3.20733
3.17857
3.15081
3.12401
3.09814
3.07315
3.04901
3.02569
3.00316
2.9814
2.96037
2.94007
2.92045
2.90152
2.88324
2.86561
2.8486
2.83222
2.81644
2.80126
2.78666
2.77265
2.75922
2.74635
3.51947
3.47939
3.44078
3.40361
3.36781
3.33331
3.30007
3.26803
3.23712
3.20731
3.17854
3.15077
3.12396
3.09807
3.07306
3.0489
3.02556
3.00301
2.98122
2.96017
2.93983
2.92018
2.9012
2.88288
2.8652
2.84814
2.83169
2.81584
2.80059
2.78591
2.7718
2.75826
2.74527
3.51947
3.47939
3.44078
3.40361
3.3678
3.33331
3.30007
3.26802
3.23711
3.20729
3.17851
3.15073
3.12391
3.098
3.07298
3.0488
3.02544
3.00287
2.98106
2.95997
2.9396
2.91992
2.90091
2.88254
2.86481
2.8477
2.8312
2.81529
2.79995
2.78519
2.771
2.75736
2.74426
3.51948
3.47939
3.44078
3.40361
3.3678
3.33331
3.30006
3.26801
3.23709
3.20727
3.17848
3.15069
3.12386
3.09794
3.0729
3.04871
3.02533
3.00273
2.98089
2.95979
2.93939
2.91967
2.90062
2.88222
2.86445
2.84729
2.83073
2.81476
2.79936
2.78453
2.77025
2.75652
2.74332
3.51948
3.47939
3.44078
3.40361
3.3678
3.3333
3.30006
3.268
3.23708
3.20725
3.17846
3.15066
3.12381
3.09789
3.07283
3.04863
3.02523
3.00261
2.98075
2.95962
2.9392
2.91945
2.90037
2.88193
2.86412
2.84691
2.83031
2.81428
2.79882
2.78392
2.76957
2.75576
2.74247
3.51948
3.4794
3.44079
3.40361
3.36781
3.33331
3.30006
3.268
3.23708
3.20724
3.17844
3.15063
3.12377
3.09783
3.07277
3.04855
3.02513
3.0025
2.98062
2.95947
2.93902
2.91925
2.90014
2.88167
2.86382
2.84658
2.82992
2.81385
2.79834
2.78338
2.76897
2.75508
2.74172
3.51947
3.47939
3.44078
3.4036
3.3678
3.33331
3.30006
3.268
3.23708
3.20724
3.17844
3.15063
3.12377
3.09782
3.07275
3.04851
3.02509
3.00244
2.98055
2.95938
2.93891
2.91912
2.89999
2.88149
2.86362
2.84635
2.82966
2.81355
2.798
2.783
2.76854
2.7546
2.74117
3.51948
3.47941
3.44082
3.40366
3.36786
3.33337
3.30012
3.26806
3.23713
3.20729
3.17848
3.15066
3.1238
3.09785
3.07277
3.04854
3.02512
3.00247
2.98058
2.95941
2.93895
2.91916
2.90004
2.88155
2.86368
2.84641
2.82974
2.81363
2.79809
2.78309
2.76862
2.75468
2.74125
3.51947
3.47939
3.44079
3.40364
3.36787
3.33342
3.3002
3.26817
3.23728
3.20747
3.1787
3.15092
3.1241
3.0982
3.07318
3.04901
3.02566
3.00311
2.98131
2.96025
2.9399
2.92024
2.90125
2.8829
2.86519
2.84808
2.83157
2.81563
2.80026
2.78543
2.77114
2.75738
2.74412
3.5195
3.4795
3.441
3.40392
3.3682
3.33378
3.30064
3.2687
3.23795
3.20831
3.17977
3.15227
3.12578
3.10026
3.07567
3.05198
3.02915
3.00715
2.98596
2.96553
2.94585
2.92688
2.90861
2.89099
2.87403
2.85768
2.84193
2.82676
2.81215
2.79808
2.78453
2.77149
2.75894
3.5195
3.47951
3.44116
3.40443
3.36928
3.33562
3.30343
3.27265
3.24325
3.21518
3.18841
3.16287
3.13851
3.11527
3.09311
3.07195
3.05175
3.03244
3.01399
2.99632
2.97941
2.9632
2.94765
2.93273
2.91838
2.90459
2.89131
2.87851
2.86617
2.85426
2.84275
2.83161
2.82084
3.5197
3.4813
3.44568
3.41282
3.38273
3.35538
3.33062
3.30829
3.28817
3.27004
3.25368
3.23889
3.22548
3.21327
3.2021
3.19183
3.18232
3.17346
3.16514
3.15728
3.14979
3.14259
3.13564
3.12886
3.12222
3.11568
3.10919
3.10274
3.09631
3.08988
3.08343
3.07697
3.07049
3.5253
3.51334
3.51512
3.52763
3.54795
3.57406
3.60433
3.63751
3.67268
3.70912
3.74627
3.78369
3.82106
3.85812
3.89469
3.93062
3.96583
4.00028
4.03393
4.06679
4.0989
4.13029
4.16104
4.19122
4.22092
4.25026
4.27933
4.30826
4.33718
4.36621
4.39548
4.42513
4.45525
3.83321
4.36592
4.85081
5.32038
5.78738
6.24718
6.69566
7.13126
7.55393
7.96441
8.36382
8.75343
9.13451
9.50828
9.87586
10.2383
10.5965
10.9514
11.3036
11.6541
12.0033
12.3518
12.7003
13.049
13.3984
13.7487
14.1004
14.4534
14.8079
15.1639
15.5215
15.8805
16.2404
30.2663
32.7713
35.313
37.8656
40.4153
42.953
45.4704
47.9598
50.414
52.8264
55.1912
57.5032
59.7578
61.9513
64.0802
66.142
68.1345
70.0558
71.9048
73.6806
75.3826
77.0105
78.5645
80.0448
81.4518
82.7864
84.0492
85.2413
86.3638
87.4177
88.4046
89.3254
90.1833
81.2997
243.922
465.62
686.377
845.295
909.924
894.032
832.898
754.364
673.752
597.607
525.733
454.542
380.18
300.77
218.257
139.628
75.447
34.047
15.1552
9.94976
9.7724
10.8032
11.9427
12.8922
13.5624
13.9419
14.063
13.9831
13.7724
13.5015
13.2288
12.9892
12.7897
12.6119
12.4199
12.1705
11.8223
11.3436
10.7197
9.95685
9.08343
8.14654
7.20326
6.30935
5.50837
4.82521
4.2654
3.81966
3.47062
3.19885
2.98673
2.81999
2.68775
2.58195
2.49674
2.4278
2.37196
2.32677
2.29031
2.26101
2.23758
2.21895
2.20423
2.19268
2.18368
2.17673
2.17142
2.1674
2.16439
2.16218
2.16059
2.15946
2.15868
2.15817
2.15786
2.15768
2.15759
2.15757
2.15759
2.15763
2.15768
2.15772
2.15775
2.15777
2.15778
2.15777
2.15774
2.15769
2.15763
2.15756
2.15747
2.15737
2.15725
2.15713
2.157
2.15686
2.15672
2.15659
2.15632
15.9148
23.3492
42.3493
81.4815
142.638
215.656
283.826
333.255
358.707
359.499
338.216
299.847
249.907
193.732
136.912
85.7499
46.4279
22.3809
11.7301
8.69224
8.52036
9.19733
10.0874
10.958
11.6907
12.2228
12.5366
12.6473
12.5925
12.4243
12.2005
11.9721
11.773
11.613
11.479
11.3406
11.1591
10.8954
10.5178
10.0085
9.36826
8.61806
7.79694
6.95489
6.14294
5.40326
4.76242
4.22975
3.80046
3.46113
3.19523
2.98692
2.82284
2.69253
2.58815
2.50391
2.43558
2.38002
2.33484
2.29816
2.26848
2.24456
2.22536
2.21004
2.19788
2.18829
2.18077
2.17492
2.1704
2.16695
2.16433
2.16236
2.1609
2.15983
2.15906
2.15851
2.15813
2.15786
2.15768
2.15756
2.15747
2.15741
2.15735
2.1573
2.15725
2.15719
2.15713
2.15705
2.15696
2.15686
2.15675
2.15663
2.15651
2.15637
2.15623
2.15608
2.15593
2.15577
2.15563
2.15535
8.60562
9.054
9.78117
10.9892
14.5015
22.1582
33.9038
47.3257
59.6427
68.1678
70.7407
66.5065
56.3235
42.6173
28.7102
17.6993
11.1013
8.2317
7.40736
7.44909
7.89121
8.54287
9.27232
9.97219
10.564
11.0027
11.2727
11.3809
11.3515
11.2231
11.0423
10.8538
10.6898
10.5623
10.4628
10.3667
10.2398
10.0462
9.75492
9.34606
8.8155
8.17745
7.46325
6.71588
5.98154
5.30056
4.70066
4.19445
3.78123
3.45134
3.19106
2.98629
2.82465
2.69615
2.59314
2.50991
2.44228
2.38712
2.34208
2.30534
2.27542
2.25112
2.23146
2.21562
2.20291
2.19276
2.18469
2.17832
2.17331
2.16939
2.16634
2.16398
2.16217
2.16078
2.15972
2.15891
2.1583
2.15783
2.15747
2.15718
2.15696
2.15677
2.1566
2.15646
2.15632
2.15618
2.15605
2.15591
2.15578
2.15563
2.15548
2.15533
2.15518
2.15502
2.15485
2.15469
2.15452
2.15434
2.15419
2.1539
5.66049
5.73296
5.85155
5.93093
5.97262
6.23738
7.22182
8.96415
10.7118
12.0107
12.5318
12.1423
10.9919
9.48325
8.08454
7.09021
6.53748
6.34139
6.43459
6.76357
7.26203
7.85642
8.4741
9.05083
9.53855
9.90808
10.1469
10.2562
10.2506
10.158
10.016
9.86335
9.72994
9.62943
9.55723
9.49362
9.40944
9.27242
9.05305
8.73019
8.29588
7.75832
7.14172
6.48233
5.82135
5.19684
4.63707
4.15727
3.76033
3.44007
3.18547
2.98423
2.82497
2.69822
2.59656
2.51438
2.44752
2.3929
2.34817
2.31152
2.28152
2.25701
2.23702
2.22077
2.20761
2.19698
2.18843
2.18157
2.1761
2.17173
2.16827
2.16553
2.16336
2.16165
2.16029
2.15922
2.15837
2.15768
2.15713
2.15667
2.15629
2.15597
2.15568
2.15543
2.1552
2.15498
2.15478
2.15458
2.15438
2.15419
2.154
2.15381
2.15362
2.15343
2.15324
2.15306
2.15287
2.15268
2.15251
2.1522
4.25716
4.2793
4.31995
4.37682
4.43532
4.5028
4.64225
4.86753
5.13469
5.37641
5.5338
5.57878
5.52409
5.4164
5.31589
5.2763
5.33536
5.51272
5.81002
6.21284
6.6937
7.21472
7.73354
8.21136
8.6185
8.93547
9.15142
9.26364
9.27951
9.21865
9.11103
8.99014
8.8836
8.80573
8.75499
8.71606
8.66447
8.5718
8.4107
8.15982
7.80834
7.3594
6.83082
6.25244
5.66048
5.0903
4.57004
4.11688
3.73673
3.42657
3.17796
2.98039
2.82355
2.69854
2.59823
2.51712
2.45112
2.39713
2.35284
2.31644
2.28653
2.26196
2.2418
2.22529
2.21179
2.20079
2.19185
2.18459
2.17871
2.17395
2.17011
2.16702
2.16451
2.16249
2.16085
2.15952
2.15843
2.15753
2.15679
2.15616
2.15563
2.15517
2.15476
2.1544
2.15407
2.15377
2.15349
2.15323
2.15297
2.15273
2.1525
2.15227
2.15205
2.15183
2.15161
2.1514
2.1512
2.15099
2.15081
2.15048
3.55662
3.56272
3.575
3.59709
3.62961
3.67173
3.72702
3.79891
3.88525
3.97843
4.06962
4.15385
4.23344
4.31854
4.42491
4.57031
4.77035
5.03463
5.36454
5.75222
6.18035
6.62447
7.05777
7.45606
7.80049
8.07727
8.27639
8.39222
8.42686
8.39349
8.31594
8.22302
8.14
8.08131
8.04763
8.02727
7.99996
7.94117
7.82617
7.6342
7.35268
6.98067
6.53043
6.02593
5.49844
4.98028
4.49886
4.07261
3.70991
3.41047
3.1683
2.97464
2.82032
2.69708
2.59811
2.51809
2.45297
2.39969
2.35594
2.31992
2.29023
2.26575
2.24557
2.22894
2.21526
2.20401
2.19478
2.18721
2.18102
2.17594
2.17179
2.16838
2.16559
2.1633
2.1614
2.15984
2.15853
2.15744
2.15651
2.15573
2.15505
2.15446
2.15394
2.15347
2.15305
2.15267
2.15232
2.15199
2.15168
2.15139
2.15111
2.15085
2.15059
2.15035
2.15011
2.14987
2.14965
2.14942
2.14923
2.14888
3.18425
3.18323
3.18649
3.19692
3.21595
3.24406
3.28173
3.32955
3.38786
3.4567
3.53616
3.62726
3.73277
3.85764
4.00868
4.19336
4.41814
4.68653
4.99727
5.34326
5.71167
6.08578
6.44808
6.7832
7.07883
7.32466
7.51108
7.63042
7.68093
7.6709
7.61917
7.55055
7.488
7.44569
7.42578
7.41942
7.40995
7.37646
7.29711
7.15241
6.92892
6.62268
6.24129
5.80345
5.33564
4.86694
4.42349
4.02432
3.67967
3.39163
3.15642
2.967
2.81536
2.69394
2.59632
2.51738
2.45315
2.40061
2.35745
2.32189
2.29253
2.26826
2.24819
2.23157
2.21783
2.20646
2.19706
2.18929
2.18287
2.17756
2.17317
2.16953
2.1665
2.16399
2.16188
2.16012
2.15863
2.15737
2.15629
2.15536
2.15456
2.15385
2.15323
2.15267
2.15217
2.15172
2.1513
2.15091
2.15056
2.15022
2.14991
2.14961
2.14932
2.14905
2.14879
2.14853
2.14829
2.14805
2.14785
2.14748
2.97976
2.9748
2.97287
2.97619
2.98675
3.00601
3.03502
3.07454
3.12531
3.1882
3.26447
3.35591
3.46508
3.5953
3.75038
3.93411
4.14921
4.39628
4.6727
4.97217
5.28502
5.59959
5.90434
6.1895
6.44691
6.66844
6.84477
6.96687
7.03025
7.03949
7.00947
6.96159
6.91667
6.88834
6.87971
6.88405
6.88762
6.87277
6.82049
6.71303
6.53689
6.28609
5.96448
5.58613
5.17305
4.75096
4.34431
3.97217
3.64608
3.37009
3.14238
2.95756
2.8088
2.68929
2.59305
2.51516
2.4518
2.39999
2.35744
2.32238
2.29342
2.26945
2.24957
2.23308
2.21938
2.208
2.19854
2.19068
2.18413
2.17867
2.17412
2.17032
2.16713
2.16445
2.16219
2.16028
2.15865
2.15725
2.15605
2.15501
2.1541
2.1533
2.15259
2.15196
2.15139
2.15088
2.15041
2.14998
2.14958
2.1492
2.14886
2.14853
2.14822
2.14792
2.14764
2.14737
2.14712
2.14686
2.14665
2.14627
2.86739
2.86009
2.85543
2.85521
2.86117
2.87484
2.8975
2.93031
2.97437
3.03087
3.10124
3.18715
3.29062
3.41389
3.55923
3.72853
3.92276
4.14122
4.38102
4.63687
4.90147
5.1667
5.42507
5.67047
5.89744
6.09928
6.26697
6.39063
6.46389
6.48856
6.47634
6.44577
6.41578
6.3993
6.39998
6.41263
6.42581
6.42458
6.3926
6.31408
6.17607
5.97139
5.70107
5.37524
5.01186
4.63329
4.26199
3.91657
3.60938
3.34598
3.1263
2.94649
2.80085
2.68337
2.58852
2.51169
2.44917
2.39805
2.3561
2.32155
2.293
2.26937
2.24975
2.23345
2.21989
2.20858
2.19915
2.19127
2.18469
2.17917
2.17453
2.17064
2.16735
2.16457
2.1622
2.16019
2.15846
2.15697
2.15569
2.15457
2.15358
2.15271
2.15194
2.15126
2.15064
2.15008
2.14957
2.1491
2.14867
2.14826
2.14789
2.14754
2.14721
2.1469
2.1466
2.14632
2.14605
2.14579
2.14557
2.14518
2.80723
2.79834
2.79184
2.78913
2.79171
2.80105
2.81851
2.84537
2.88284
2.93217
2.99467
3.07179
3.16507
3.27605
3.40613
3.55621
3.72639
3.9155
4.12081
4.33802
4.56173
4.78635
5.00715
5.22045
5.42257
5.60786
5.76756
5.89138
5.97167
6.00821
6.01018
5.99373
5.97609
5.96949
5.97785
5.99706
6.01741
6.02615
6.00931
5.95306
5.84543
5.67873
5.45196
5.17206
4.85336
4.51503
4.17734
3.85807
3.56989
3.31953
3.10837
2.93394
2.79169
2.67638
2.58299
2.50721
2.4455
2.39506
2.35367
2.3196
2.29147
2.26818
2.24885
2.23279
2.2194
2.20823
2.19889
2.19107
2.1845
2.17899
2.17434
2.17041
2.16708
2.16425
2.16184
2.15977
2.15798
2.15644
2.1551
2.15393
2.1529
2.15199
2.15118
2.15045
2.1498
2.14921
2.14867
2.14818
2.14773
2.14731
2.14691
2.14655
2.14621
2.14588
2.14558
2.14529
2.14501
2.14474
2.14452
2.14412
2.77643
2.76641
2.75859
2.75408
2.75415
2.76008
2.77314
2.79457
2.82557
2.86733
2.92106
2.98798
3.0693
3.16612
3.27929
3.40922
3.5556
3.71717
3.89158
4.07543
4.26478
4.4559
4.64592
4.83283
5.01414
5.18497
5.33689
5.45946
5.54425
5.58951
5.60243
5.59718
5.5895
5.59094
5.60553
5.62994
5.65571
5.67183
5.66629
5.62711
5.54352
5.40785
5.21774
4.97764
4.69876
4.39728
4.09124
3.79727
3.52802
3.29099
3.08876
2.9201
2.78151
2.66853
2.57669
2.50199
2.44108
2.39128
2.35041
2.31679
2.28905
2.26609
2.24705
2.23123
2.21804
2.20704
2.19783
2.19011
2.18362
2.17815
2.17354
2.16963
2.1663
2.16347
2.16104
2.15896
2.15716
2.15559
2.15423
2.15303
2.15198
2.15105
2.15022
2.14947
2.1488
2.1482
2.14764
2.14714
2.14667
2.14624
2.14584
2.14547
2.14512
2.14479
2.14447
2.14418
2.1439
2.14362
2.14339
2.14299
2.76141
2.75057
2.74176
2.73585
2.73387
2.73695
2.74621
2.76278
2.78776
2.82226
2.86733
2.92402
2.99328
3.07594
3.17254
3.28324
3.40761
3.5445
3.69195
3.84736
4.00792
4.1712
4.33569
4.50049
4.66396
4.8218
4.96596
5.08605
5.17315
5.22443
5.2455
5.24886
5.24898
5.25677
5.27629
5.30476
5.33467
5.3563
5.35925
5.33319
5.26857
5.15811
4.99867
4.7928
4.54912
4.28109
4.00456
3.73482
3.4842
3.26065
3.06766
2.90511
2.77045
2.65999
2.5698
2.49623
2.43614
2.38695
2.34658
2.31338
2.28599
2.26334
2.24458
2.22899
2.21601
2.20517
2.19611
2.18852
2.18213
2.17675
2.1722
2.16834
2.16505
2.16224
2.15984
2.15776
2.15597
2.15441
2.15305
2.15185
2.1508
2.14986
2.14903
2.14828
2.1476
2.14699
2.14643
2.14592
2.14545
2.14502
2.14461
2.14424
2.14388
2.14355
2.14324
2.14294
2.14265
2.14238
2.14215
2.14174
2.75427
2.74283
2.73323
2.72618
2.72252
2.72319
2.72917
2.74145
2.76102
2.78885
2.82588
2.87298
2.93096
3.00043
3.0818
3.1751
3.27991
3.39525
3.51957
3.6509
3.78728
3.92728
4.07032
4.2163
4.36419
4.51016
4.64656
4.76315
4.8508
4.90587
4.93274
4.94249
4.94851
4.96112
4.9844
5.01594
5.04897
5.07475
5.08415
5.0682
5.01858
4.92858
4.79469
4.6181
4.40531
4.16741
3.91814
3.67139
3.43889
3.22879
3.04528
2.88911
2.75864
2.6509
2.56249
2.49011
2.43086
2.38229
2.3424
2.30958
2.28252
2.26016
2.24164
2.22628
2.21349
2.20283
2.19392
2.18645
2.18018
2.17489
2.17042
2.16663
2.16341
2.16065
2.15828
2.15624
2.15448
2.15294
2.15159
2.15041
2.14937
2.14844
2.14761
2.14687
2.1462
2.14559
2.14504
2.14453
2.14406
2.14363
2.14322
2.14285
2.14249
2.14216
2.14185
2.14155
2.14127
2.14099
2.14076
2.14035
2.7507
2.73879
2.72853
2.7205
2.71541
2.71402
2.71718
2.72572
2.74053
2.76244
2.79227
2.83078
2.87863
2.93633
3.00419
3.08221
3.17004
3.26687
3.3715
3.48248
3.59852
3.7189
3.84373
3.97349
4.1076
4.24265
4.37134
4.48369
4.57052
4.62761
4.65835
4.67266
4.68294
4.69905
4.72502
4.75877
4.79408
4.82298
4.8373
4.82922
4.7915
4.7181
4.60545
4.4538
4.26797
4.05702
3.83275
3.60759
3.39255
3.19574
3.0218
2.87225
2.7462
2.64136
2.55486
2.48376
2.42539
2.37746
2.33805
2.3056
2.27885
2.25675
2.23846
2.22329
2.21069
2.20019
2.19142
2.18409
2.17793
2.17274
2.16836
2.16465
2.16149
2.15879
2.15648
2.15448
2.15275
2.15125
2.14993
2.14878
2.14775
2.14684
2.14603
2.1453
2.14464
2.14404
2.1435
2.14299
2.14253
2.1421
2.1417
2.14133
2.14098
2.14065
2.14034
2.14004
2.13976
2.13948
2.13926
2.13885
2.74856
2.73624
2.72539
2.71651
2.71017
2.707
2.70771
2.71302
2.72369
2.74044
2.76398
2.79497
2.83396
2.8814
2.93753
3.00238
3.07565
3.15671
3.24465
3.33844
3.43728
3.54102
3.65026
3.76592
3.88777
4.01272
4.13386
4.24151
4.3265
4.38425
4.41733
4.43469
4.4479
4.46635
4.49407
4.52926
4.56615
4.59734
4.61542
4.61351
4.58528
4.5254
4.4304
4.29995
4.13756
3.95057
3.74904
3.54401
3.34563
3.16179
2.99744
2.85464
2.7332
2.63145
2.547
2.47727
2.41984
2.37256
2.33364
2.30157
2.27512
2.25327
2.23519
2.2202
2.20776
2.19741
2.18878
2.18157
2.17552
2.17043
2.16614
2.16251
2.15942
2.15679
2.15453
2.15258
2.1509
2.14943
2.14815
2.14703
2.14603
2.14514
2.14435
2.14364
2.14299
2.14241
2.14187
2.14138
2.14092
2.1405
2.14011
2.13974
2.1394
2.13907
2.13876
2.13847
2.13819
2.13791
2.13768
2.13728
2.7469
2.7342
2.72281
2.71316
2.7057
2.70097
2.69955
2.70207
2.70917
2.72146
2.73958
2.76407
2.79543
2.83403
2.88012
2.9337
2.99457
3.06224
3.13604
3.21526
3.29951
3.38904
3.48486
3.58819
3.69908
3.81474
3.92859
4.03127
4.11372
4.17112
4.20536
4.22457
4.2396
4.25945
4.28812
4.32407
4.36191
4.39472
4.41567
4.4186
4.398
4.34916
4.26887
4.15641
4.01433
3.84855
3.6676
3.48116
3.29854
3.12726
2.97239
2.83643
2.71975
2.62123
2.53895
2.47069
2.41426
2.36769
2.32928
2.29759
2.27143
2.24981
2.23194
2.21713
2.20484
2.19463
2.18612
2.17902
2.17308
2.16809
2.16388
2.16033
2.15731
2.15474
2.15254
2.15065
2.14901
2.14759
2.14634
2.14524
2.14428
2.14341
2.14264
2.14195
2.14132
2.14075
2.14023
2.13975
2.1393
2.13889
2.1385
2.13814
2.1378
2.13748
2.13717
2.13688
2.1366
2.13633
2.13611
2.1357
2.74536
2.73229
2.7204
2.71002
2.70156
2.69544
2.69218
2.69228
2.69629
2.70476
2.71821
2.73714
2.76196
2.79302
2.83052
2.87452
2.92484
2.98115
3.04295
3.10979
3.1816
3.25895
3.34316
3.43567
3.53676
3.64389
3.7508
3.84844
3.92791
3.9842
4.01871
4.03885
4.05483
4.0753
4.10425
4.14038
4.17864
4.21248
4.23557
4.24232
4.22787
4.18809
4.12007
4.0229
3.89839
3.75131
3.58886
3.41952
3.25167
3.09244
2.94686
2.81774
2.70591
2.61075
2.53076
2.46405
2.40869
2.36287
2.32499
2.2937
2.26784
2.24647
2.22879
2.21415
2.20201
2.19192
2.18354
2.17654
2.1707
2.16579
2.16167
2.15819
2.15525
2.15274
2.15059
2.14875
2.14716
2.14577
2.14457
2.1435
2.14256
2.14173
2.14098
2.1403
2.13969
2.13914
2.13863
2.13816
2.13772
2.13732
2.13694
2.13658
2.13625
2.13593
2.13563
2.13534
2.13507
2.1348
2.13457
2.13417
2.74383
2.7304
2.71802
2.70697
2.6976
2.69025
2.68536
2.68337
2.68472
2.6899
2.69936
2.71352
2.73276
2.75738
2.78758
2.82341
2.86477
2.91142
2.963
3.0193
3.08046
3.14734
3.22145
3.30445
3.39679
3.49612
3.59649
3.68915
3.76537
3.82006
3.85419
3.87455
3.89079
3.91127
3.93996
3.97578
4.01399
4.04839
4.07302
4.08275
4.07327
4.04096
3.98321
3.89903
3.7897
3.65907
3.5132
3.35946
3.20538
3.0576
2.92103
2.7987
2.69177
2.60006
2.52245
2.45738
2.40315
2.35813
2.32081
2.28993
2.26439
2.24326
2.22578
2.2113
2.1993
2.18935
2.18107
2.17418
2.16843
2.16361
2.15957
2.15616
2.15328
2.15083
2.14874
2.14694
2.14539
2.14405
2.14288
2.14185
2.14094
2.14013
2.1394
2.13875
2.13815
2.13761
2.13711
2.13666
2.13623
2.13583
2.13546
2.13511
2.13478
2.13447
2.13417
2.13389
2.13362
2.13335
2.13312
2.13272
2.74228
2.7285
2.71565
2.70399
2.69378
2.68534
2.67902
2.6752
2.67426
2.67661
2.68264
2.69272
2.70719
2.72632
2.75029
2.77917
2.8129
2.85131
2.89418
2.94146
2.99348
3.05131
3.11664
3.19128
3.27578
3.36802
3.46228
3.55012
3.623
3.67577
3.70904
3.7291
3.74509
3.76509
3.79308
3.8282
3.86598
3.90052
3.92618
3.93821
3.93275
3.90661
3.85748
3.78435
3.68814
3.57195
3.44087
3.30131
3.15999
3.023
2.89512
2.77943
2.67741
2.5892
2.51406
2.4507
2.39766
2.35347
2.31675
2.28631
2.26109
2.24021
2.22293
2.20861
2.19676
2.18692
2.17875
2.17196
2.16629
2.16156
2.15759
2.15425
2.15143
2.14904
2.147
2.14525
2.14375
2.14244
2.14131
2.14031
2.13942
2.13864
2.13793
2.1373
2.13672
2.13619
2.13571
2.13526
2.13485
2.13446
2.1341
2.13375
2.13343
2.13312
2.13282
2.13254
2.13227
2.13201
2.13178
2.13139
2.74073
2.72661
2.71332
2.70108
2.69012
2.6807
2.67312
2.66769
2.66476
2.66467
2.66775
2.67434
2.68474
2.69917
2.71782
2.74077
2.76798
2.79936
2.83479
2.87432
2.91848
2.96848
3.02615
3.09341
3.17093
3.25673
3.34533
3.42858
3.49812
3.54878
3.58089
3.60027
3.61562
3.63478
3.66175
3.69584
3.73287
3.76721
3.79348
3.80725
3.80502
3.78399
3.7421
3.67839
3.59351
3.48997
3.37207
3.24534
3.11575
2.9889
2.8693
2.76009
2.66292
2.57824
2.50561
2.44402
2.39222
2.3489
2.31281
2.28282
2.25794
2.23732
2.22024
2.20609
2.19437
2.18466
2.17659
2.16989
2.16431
2.15966
2.15576
2.15248
2.14972
2.14739
2.1454
2.1437
2.14223
2.14096
2.13986
2.13889
2.13803
2.13727
2.13658
2.13597
2.13541
2.1349
2.13442
2.13399
2.13358
2.1332
2.13284
2.13251
2.13219
2.13188
2.13159
2.13131
2.13105
2.13078
2.13056
2.13016
2.73918
2.72474
2.71104
2.69826
2.68661
2.67631
2.66762
2.66079
2.65613
2.65392
2.65448
2.65807
2.66496
2.67538
2.68948
2.70736
2.729
2.75436
2.78339
2.81627
2.85365
2.89684
2.94783
3.00858
3.07987
3.15984
3.24324
3.32216
3.38845
3.43693
3.46768
3.48612
3.50057
3.51864
3.54433
3.57714
3.61316
3.64702
3.67355
3.68859
3.68895
3.67213
3.63633
3.58066
3.50557
3.41311
3.3069
3.19173
3.0729
2.95549
2.84376
2.74078
2.64838
2.56723
2.49714
2.43736
2.38684
2.34443
2.30898
2.27946
2.25493
2.23457
2.2177
2.20372
2.19214
2.18254
2.17459
2.16798
2.16248
2.1579
2.15407
2.15086
2.14815
2.14587
2.14393
2.14227
2.14084
2.13961
2.13853
2.13759
2.13676
2.13602
2.13536
2.13476
2.13421
2.13371
2.13325
2.13283
2.13243
2.13206
2.13171
2.13138
2.13106
2.13076
2.13048
2.1302
2.12993
2.12967
2.12945
2.12906
2.73766
2.72291
2.70882
2.69555
2.68328
2.67219
2.66251
2.65445
2.64828
2.64425
2.64261
2.64362
2.64751
2.65449
2.66469
2.67822
2.69508
2.71527
2.73881
2.76596
2.79747
2.83476
2.87989
2.9349
3.00063
3.07535
3.15399
3.22887
3.29205
3.33834
3.36763
3.38498
3.39834
3.41514
3.43937
3.47074
3.50556
3.53868
3.56518
3.58111
3.5835
3.57016
3.53948
3.49067
3.42404
3.34127
3.24543
3.14066
3.03163
2.92296
2.81864
2.72165
2.63389
2.55622
2.48868
2.43073
2.38152
2.34004
2.30527
2.27623
2.25206
2.23198
2.21531
2.2015
2.19006
2.18058
2.17272
2.1662
2.16079
2.15628
2.15251
2.14936
2.14671
2.14447
2.14258
2.14096
2.13957
2.13837
2.13733
2.13641
2.1356
2.13489
2.13424
2.13366
2.13313
2.13264
2.13219
2.13178
2.13139
2.13103
2.13068
2.13036
2.13005
2.12975
2.12947
2.12919
2.12893
2.12867
2.12845
2.12806
2.73618
2.72113
2.70668
2.69297
2.68013
2.66834
2.65777
2.64864
2.64115
2.63553
2.632
2.63078
2.63209
2.6361
2.64296
2.65275
2.66552
2.68126
2.70007
2.72227
2.74869
2.78084
2.82084
2.87079
2.93156
3.00154
3.07584
3.147
3.20723
3.2514
3.27919
3.29536
3.30754
3.32295
3.34563
3.37543
3.40889
3.44111
3.46733
3.4838
3.48778
3.47728
3.45092
3.40796
3.34864
3.27434
3.18767
3.09221
2.99209
2.89149
2.7941
2.7028
2.61953
2.54527
2.48027
2.42416
2.37628
2.33575
2.30167
2.27313
2.24932
2.22951
2.21306
2.19942
2.18812
2.17875
2.17099
2.16456
2.15922
2.15478
2.15108
2.14798
2.14538
2.1432
2.14134
2.13976
2.13841
2.13724
2.13623
2.13534
2.13455
2.13385
2.13323
2.13266
2.13214
2.13167
2.13123
2.13083
2.13045
2.13009
2.12975
2.12943
2.12913
2.12883
2.12855
2.12828
2.12802
2.12776
2.12755
2.12715
2.73474
2.71943
2.70464
2.69052
2.67717
2.66474
2.6534
2.64331
2.63467
2.62766
2.6225
2.61936
2.61844
2.6199
2.62388
2.63046
2.6397
2.65162
2.66634
2.68426
2.70626
2.73394
2.76944
2.81491
2.87127
2.93699
3.00733
3.07507
3.13256
3.17469
3.20101
3.21598
3.22693
3.24091
3.26198
3.29014
3.32216
3.35332
3.37907
3.3958
3.40097
3.39279
3.37004
3.33208
3.27907
3.21217
3.13359
3.04646
2.95441
2.86121
2.77028
2.68435
2.60538
2.53445
2.47194
2.41768
2.37113
2.33157
2.29817
2.27014
2.24671
2.22718
2.21094
2.19747
2.1863
2.17705
2.16939
2.16304
2.15777
2.1534
2.14976
2.14671
2.14417
2.14202
2.14021
2.13867
2.13735
2.13621
2.13522
2.13435
2.13359
2.13291
2.1323
2.13175
2.13125
2.13079
2.13036
2.12996
2.12959
2.12924
2.12891
2.12859
2.12829
2.128
2.12772
2.12746
2.1272