/*--------------------------------*- C++ -*----------------------------------*\
  =========                 |
  \\      /  F ield         | OpenFOAM: The Open Source CFD Toolbox
   \\    /   O peration     | Website:  https://openfoam.org
    \\  /    A nd           | Version:  10
     \\/     M anipulation  |
\*---------------------------------------------------------------------------*/
FoamFile
{
    format      ascii;
    class       volScalarField;
    location    "0.025";
    object      k;
}
// * * * * * * * * * * * * * * * * * * * * * * * * * * * * * * * * * * * * * //

dimensions      [0 2 -2 0 0 0 0];

internalField   nonuniform List<scalar> 
6820
(
0.196709
0.190616
0.184995
0.179727
0.174804
0.170258
0.166123
0.162414
0.159126
0.156238
0.153724
0.151549
0.149681
0.148086
0.146735
0.145598
0.144648
0.143864
0.143222
0.142704
0.142292
0.141971
0.141728
0.141549
0.141423
0.14134
0.141292
0.141296
0.141225
0.14165
0.13989
0.148346
0.10939
0.201952
0.20083
0.197544
0.193924
0.190836
0.18856
0.187094
0.186314
0.186069
0.186225
0.186674
0.187335
0.188145
0.189059
0.190042
0.191065
0.192107
0.19315
0.194179
0.195183
0.196151
0.197075
0.197947
0.198764
0.199522
0.200221
0.200867
0.201467
0.202034
0.202635
0.203059
0.204485
0.203322
0.200489
0.200479
0.199123
0.197077
0.194848
0.192695
0.190724
0.188976
0.187464
0.186187
0.185133
0.184286
0.183627
0.183134
0.182787
0.182566
0.182455
0.182437
0.182498
0.182625
0.182806
0.183032
0.183294
0.183584
0.183894
0.184219
0.184551
0.18489
0.185222
0.185578
0.185862
0.186261
0.186278
0.199661
0.199119
0.198215
0.196981
0.195546
0.194016
0.192465
0.19094
0.189472
0.188082
0.186782
0.185579
0.184475
0.18347
0.182559
0.18174
0.181007
0.180353
0.179774
0.179263
0.178814
0.178422
0.178082
0.177788
0.177536
0.177323
0.177143
0.176994
0.17687
0.176775
0.176693
0.176653
0.176601
0.199429
0.198466
0.197532
0.196514
0.195402
0.194219
0.192994
0.191752
0.190511
0.189287
0.188094
0.186938
0.185828
0.184766
0.183757
0.182801
0.181898
0.181048
0.18025
0.179502
0.178802
0.178148
0.177539
0.176971
0.176443
0.175952
0.175497
0.175076
0.174687
0.17433
0.174001
0.173703
0.17343
0.199398
0.198267
0.197201
0.196166
0.195134
0.194092
0.193036
0.19197
0.1909
0.189834
0.188778
0.187739
0.186722
0.185731
0.184768
0.183836
0.182938
0.182073
0.181244
0.180449
0.179689
0.178965
0.178274
0.177617
0.176993
0.176402
0.175843
0.175315
0.174818
0.174352
0.173917
0.173512
0.173139
0.199395
0.19822
0.197099
0.196022
0.19498
0.193961
0.192959
0.191969
0.190988
0.190018
0.18906
0.188115
0.187185
0.186274
0.185383
0.184513
0.183666
0.182843
0.182046
0.181275
0.18053
0.179812
0.179121
0.178458
0.177822
0.177214
0.176634
0.176082
0.175559
0.175065
0.174601
0.174167
0.173766
0.199395
0.198211
0.197069
0.195969
0.19491
0.193885
0.192891
0.191922
0.190976
0.190049
0.189142
0.188252
0.187381
0.186527
0.185693
0.184877
0.184082
0.183307
0.182553
0.181821
0.181112
0.180425
0.179761
0.179121
0.178505
0.177913
0.177347
0.176807
0.176293
0.175806
0.175349
0.174922
0.174528
0.199395
0.198209
0.197063
0.195955
0.194886
0.193853
0.192854
0.191887
0.190948
0.190036
0.189149
0.188284
0.187442
0.186621
0.185821
0.185042
0.184282
0.183543
0.182825
0.182127
0.181451
0.180795
0.180161
0.179549
0.178959
0.178392
0.177849
0.17733
0.176837
0.17637
0.175932
0.175524
0.175149
0.199395
0.198209
0.197061
0.195951
0.194879
0.193842
0.192839
0.191869
0.19093
0.19002
0.189138
0.188282
0.187452
0.186645
0.185862
0.185101
0.184362
0.183645
0.182949
0.182274
0.18162
0.180987
0.180376
0.179786
0.179218
0.178672
0.17815
0.177652
0.177179
0.176732
0.176313
0.175924
0.175569
0.199395
0.198209
0.197061
0.19595
0.194876
0.193838
0.192833
0.191861
0.19092
0.190009
0.189128
0.188274
0.187446
0.186645
0.185868
0.185115
0.184385
0.183678
0.182993
0.182331
0.18169
0.181071
0.180473
0.179898
0.179344
0.178813
0.178306
0.177822
0.177363
0.176931
0.176526
0.176152
0.175812
0.199395
0.198208
0.19706
0.19595
0.194875
0.193836
0.19283
0.191857
0.190915
0.190004
0.189121
0.188267
0.18744
0.186639
0.185863
0.185113
0.184386
0.183683
0.183003
0.182346
0.181711
0.181098
0.180508
0.17994
0.179394
0.178871
0.178371
0.177896
0.177445
0.177021
0.176625
0.17626
0.175927
0.199395
0.198208
0.19706
0.195949
0.194874
0.193835
0.192829
0.191855
0.190912
0.19
0.189117
0.188262
0.187434
0.186633
0.185858
0.185107
0.184381
0.183679
0.183
0.182344
0.181711
0.181101
0.180513
0.179947
0.179405
0.178885
0.178389
0.177916
0.177469
0.177049
0.176656
0.176293
0.175963
0.199395
0.198208
0.19706
0.195949
0.194874
0.193834
0.192827
0.191853
0.19091
0.189997
0.189114
0.188258
0.18743
0.186628
0.185852
0.185101
0.184374
0.183672
0.182993
0.182337
0.181704
0.181094
0.180506
0.179941
0.179398
0.178879
0.178383
0.177911
0.177464
0.177043
0.17665
0.176286
0.175954
0.199395
0.198208
0.19706
0.195949
0.194873
0.193833
0.192826
0.191852
0.190908
0.189995
0.189111
0.188255
0.187426
0.186624
0.185847
0.185095
0.184368
0.183665
0.182985
0.182328
0.181694
0.181083
0.180494
0.179928
0.179385
0.178864
0.178367
0.177893
0.177445
0.177022
0.176626
0.176259
0.175922
0.199395
0.198208
0.19706
0.195948
0.194873
0.193833
0.192825
0.191851
0.190907
0.189993
0.189108
0.188252
0.187422
0.186619
0.185842
0.18509
0.184362
0.183657
0.182977
0.182319
0.181684
0.181071
0.180481
0.179914
0.179368
0.178846
0.178347
0.177871
0.17742
0.176993
0.176594
0.176222
0.175879
0.199395
0.198208
0.19706
0.195948
0.194873
0.193832
0.192825
0.19185
0.190905
0.189991
0.189106
0.188249
0.187419
0.186615
0.185837
0.185084
0.184355
0.18365
0.182968
0.182309
0.181673
0.181059
0.180468
0.179898
0.179351
0.178827
0.178325
0.177846
0.177391
0.176961
0.176557
0.176179
0.175829
0.199395
0.198208
0.19706
0.195948
0.194873
0.193832
0.192824
0.191849
0.190904
0.18999
0.189104
0.188246
0.187416
0.186612
0.185833
0.185079
0.184349
0.183643
0.18296
0.1823
0.181663
0.181047
0.180454
0.179883
0.179333
0.178806
0.178302
0.17782
0.177361
0.176927
0.176517
0.176134
0.175777
0.199395
0.198208
0.19706
0.195948
0.194872
0.193831
0.192824
0.191848
0.190903
0.189988
0.189102
0.188244
0.187413
0.186608
0.185829
0.185074
0.184343
0.183636
0.182952
0.182291
0.181652
0.181035
0.18044
0.179867
0.179315
0.178786
0.178278
0.177793
0.177331
0.176892
0.176477
0.176087
0.175723
0.199395
0.198208
0.19706
0.195948
0.194872
0.193831
0.192823
0.191847
0.190902
0.189987
0.1891
0.188242
0.18741
0.186605
0.185824
0.185069
0.184337
0.183629
0.182944
0.182282
0.181641
0.181023
0.180426
0.179851
0.179297
0.178765
0.178254
0.177766
0.177299
0.176856
0.176436
0.17604
0.175668
0.199395
0.198208
0.19706
0.195948
0.194872
0.193831
0.192823
0.191846
0.190901
0.189986
0.189099
0.18824
0.187407
0.186601
0.18582
0.185064
0.184332
0.183623
0.182936
0.182272
0.181631
0.181011
0.180412
0.179835
0.179279
0.178744
0.17823
0.177738
0.177268
0.17682
0.176395
0.175992
0.175614
0.199395
0.198208
0.19706
0.195948
0.194872
0.193831
0.192822
0.191846
0.1909
0.189984
0.189097
0.188238
0.187405
0.186598
0.185816
0.185059
0.184326
0.183616
0.182929
0.182263
0.18162
0.180998
0.180398
0.179819
0.17926
0.178723
0.178206
0.177711
0.177237
0.176784
0.176354
0.175945
0.17556
0.199395
0.198208
0.19706
0.195948
0.194872
0.19383
0.192822
0.191845
0.1909
0.189983
0.189096
0.188236
0.187402
0.186595
0.185813
0.185055
0.184321
0.18361
0.182921
0.182255
0.18161
0.180987
0.180384
0.179803
0.179242
0.178702
0.178183
0.177684
0.177206
0.176749
0.176313
0.175899
0.175507
0.199395
0.198208
0.19706
0.195948
0.194872
0.19383
0.192822
0.191845
0.190899
0.189982
0.189094
0.188234
0.1874
0.186592
0.185809
0.18505
0.184315
0.183603
0.182914
0.182246
0.1816
0.180975
0.180371
0.179788
0.179225
0.178682
0.17816
0.177658
0.177176
0.176715
0.176274
0.175855
0.175456
0.199395
0.198208
0.19706
0.195948
0.194872
0.19383
0.192821
0.191844
0.190898
0.189981
0.189093
0.188232
0.187398
0.186589
0.185806
0.185046
0.18431
0.183597
0.182907
0.182238
0.18159
0.180964
0.180358
0.179773
0.179208
0.178663
0.178137
0.177632
0.177147
0.176682
0.176236
0.175811
0.175407
0.199395
0.198208
0.19706
0.195948
0.194872
0.19383
0.192821
0.191844
0.190898
0.18998
0.189092
0.188231
0.187396
0.186587
0.185802
0.185042
0.184306
0.183592
0.1829
0.18223
0.181581
0.180953
0.180346
0.179758
0.179191
0.178644
0.178116
0.177608
0.177119
0.17665
0.1762
0.17577
0.17536
0.199395
0.198208
0.19706
0.195948
0.194872
0.19383
0.192821
0.191844
0.190897
0.18998
0.189091
0.188229
0.187394
0.186584
0.185799
0.185038
0.184301
0.183586
0.182893
0.182222
0.181572
0.180943
0.180334
0.179745
0.179175
0.178626
0.178095
0.177584
0.177092
0.176619
0.176166
0.175731
0.175316
0.199395
0.198208
0.19706
0.195948
0.194872
0.19383
0.192821
0.191843
0.190896
0.189979
0.18909
0.188228
0.187392
0.186582
0.185796
0.185035
0.184297
0.183581
0.182887
0.182215
0.181564
0.180933
0.180322
0.179732
0.17916
0.178609
0.178076
0.177562
0.177067
0.176591
0.176134
0.175695
0.175275
0.199395
0.198209
0.19706
0.195948
0.194872
0.19383
0.192821
0.191843
0.190896
0.189978
0.189089
0.188226
0.18739
0.18658
0.185794
0.185031
0.184292
0.183576
0.182881
0.182208
0.181556
0.180924
0.180312
0.179719
0.179146
0.178593
0.178058
0.177541
0.177044
0.176565
0.176104
0.175661
0.175237
0.199395
0.198208
0.19706
0.195948
0.194872
0.19383
0.192821
0.191843
0.190896
0.189978
0.189088
0.188225
0.187389
0.186578
0.185791
0.185029
0.184289
0.183572
0.182876
0.182202
0.181549
0.180915
0.180302
0.179708
0.179134
0.178578
0.178041
0.177523
0.177023
0.176541
0.176077
0.175631
0.175202
0.199395
0.198209
0.19706
0.195948
0.194872
0.19383
0.192821
0.191843
0.190896
0.189977
0.189087
0.188224
0.187388
0.186576
0.185789
0.185026
0.184286
0.183568
0.182871
0.182196
0.181542
0.180908
0.180294
0.179699
0.179123
0.178565
0.178027
0.177506
0.177004
0.17652
0.176053
0.175604
0.175172
0.199395
0.198208
0.19706
0.195948
0.194872
0.19383
0.192821
0.191843
0.190896
0.189978
0.189088
0.188225
0.187388
0.186576
0.185789
0.185025
0.184284
0.183566
0.182869
0.182193
0.181538
0.180903
0.180288
0.179692
0.179114
0.178556
0.178015
0.177493
0.176989
0.176502
0.176033
0.175581
0.175146
0.199395
0.198209
0.197061
0.19595
0.194874
0.193832
0.192823
0.191845
0.190898
0.18998
0.189089
0.188226
0.187389
0.186577
0.18579
0.185026
0.184284
0.183565
0.182868
0.182192
0.181536
0.1809
0.180284
0.179686
0.179108
0.178548
0.178006
0.177481
0.176975
0.176485
0.176013
0.175558
0.175119
0.199395
0.198208
0.19706
0.19595
0.194875
0.193835
0.192827
0.19185
0.190904
0.189986
0.189096
0.188233
0.187396
0.186584
0.185796
0.185032
0.18429
0.18357
0.182872
0.182194
0.181537
0.180899
0.180281
0.179681
0.1791
0.178537
0.177991
0.177463
0.176953
0.176458
0.175981
0.17552
0.175075
0.199396
0.198213
0.197068
0.19596
0.194886
0.193846
0.192838
0.191862
0.190915
0.189998
0.189108
0.188244
0.187406
0.186593
0.185804
0.185037
0.184293
0.18357
0.182868
0.182186
0.181523
0.18088
0.180255
0.179649
0.17906
0.178488
0.177934
0.177396
0.176874
0.176369
0.175879
0.175404
0.174945
0.199396
0.198213
0.197071
0.195968
0.194902
0.193869
0.192866
0.191893
0.190947
0.190028
0.189136
0.188268
0.187424
0.186603
0.185804
0.185027
0.18427
0.183534
0.182817
0.182119
0.181439
0.180777
0.180133
0.179506
0.178896
0.178301
0.177723
0.177161
0.176614
0.176082
0.175565
0.175063
0.174575
0.199403
0.198243
0.19712
0.196025
0.19496
0.193924
0.192916
0.191934
0.190976
0.190041
0.189129
0.188239
0.187369
0.18652
0.185691
0.184881
0.184091
0.183319
0.182566
0.181831
0.181114
0.180414
0.179731
0.179064
0.178415
0.177781
0.177163
0.176561
0.175975
0.175404
0.174848
0.174307
0.173781
0.199421
0.198283
0.197212
0.196177
0.19515
0.194124
0.193101
0.192087
0.191086
0.190103
0.189141
0.188203
0.187289
0.186399
0.185535
0.184694
0.183877
0.183084
0.182314
0.181566
0.18084
0.180136
0.179453
0.178791
0.17815
0.177529
0.176928
0.176348
0.175787
0.175246
0.174725
0.174224
0.173742
0.199656
0.198889
0.198082
0.197309
0.196615
0.195995
0.195435
0.194928
0.194469
0.194057
0.193691
0.193373
0.193104
0.192884
0.192714
0.192595
0.192526
0.192508
0.192541
0.192625
0.192761
0.192948
0.193185
0.193474
0.193813
0.194203
0.194643
0.195132
0.195669
0.196255
0.196887
0.197564
0.198284
0.205419
0.216603
0.227662
0.238505
0.249095
0.259416
0.269456
0.279203
0.288648
0.297784
0.306606
0.31511
0.323294
0.331158
0.338702
0.345929
0.352842
0.359445
0.365742
0.37174
0.377443
0.382858
0.387992
0.392851
0.397442
0.401772
0.405848
0.409678
0.413267
0.416624
0.419755
0.422666
0.425369
0.320856
0.6667
1.08191
1.51269
1.88161
2.1302
2.25863
2.30319
2.29547
2.25344
2.18286
2.07878
1.93122
1.73076
1.47359
1.16847
0.84591
0.561421
0.375794
0.310685
0.325685
0.369957
0.420099
0.466817
0.505499
0.534194
0.552892
0.562919
0.566354
0.565514
0.562521
0.558934
0.555532
0.552274
0.548446
0.542912
0.534413
0.521839
0.504454
0.482045
0.455006
0.424323
0.391453
0.35811
0.325976
0.296442
0.270419
0.248294
0.23
0.215168
0.203279
0.193785
0.186193
0.18009
0.175158
0.171154
0.167896
0.165247
0.163097
0.161358
0.159959
0.158838
0.157945
0.157239
0.156683
0.15625
0.155916
0.155659
0.155465
0.15532
0.155213
0.155136
0.155081
0.155044
0.15502
0.155005
0.154997
0.154994
0.154994
0.154996
0.155
0.155003
0.155007
0.15501
0.155013
0.155015
0.155016
0.155017
0.155017
0.155016
0.155014
0.155012
0.155009
0.155006
0.155002
0.154998
0.154993
0.154988
0.154984
0.154974
0.210301
0.236897
0.290671
0.385595
0.529708
0.712039
0.903746
1.07324
1.1989
1.26693
1.27182
1.2153
1.1031
0.944612
0.755807
0.562845
0.401369
0.303566
0.275123
0.291124
0.325675
0.366711
0.408258
0.446192
0.477695
0.501312
0.516904
0.525353
0.528209
0.527338
0.524563
0.521323
0.518417
0.515918
0.513244
0.509369
0.503083
0.493259
0.479074
0.46018
0.436793
0.409706
0.380188
0.349795
0.320112
0.292496
0.267891
0.246758
0.22913
0.214729
0.203116
0.193801
0.186328
0.180309
0.175436
0.171472
0.168238
0.165599
0.163448
0.161699
0.160283
0.159141
0.158224
0.157492
0.156911
0.156452
0.156093
0.155814
0.155599
0.155435
0.15531
0.155217
0.155149
0.155099
0.155063
0.155038
0.155022
0.155011
0.155004
0.155
0.154998
0.154996
0.154996
0.154996
0.154995
0.154994
0.154993
0.154992
0.154989
0.154987
0.154984
0.15498
0.154976
0.154972
0.154967
0.154962
0.154957
0.154951
0.154947
0.154936
0.186203
0.188362
0.193745
0.203426
0.220233
0.246795
0.283586
0.326931
0.371119
0.407899
0.428145
0.425258
0.398133
0.352752
0.301793
0.261194
0.242791
0.246915
0.265653
0.292715
0.324973
0.359594
0.393644
0.424519
0.450264
0.469796
0.482918
0.490179
0.492699
0.491954
0.489494
0.48663
0.484168
0.482277
0.480517
0.477993
0.473579
0.466162
0.454862
0.43921
0.419252
0.395587
0.369291
0.341755
0.314454
0.288706
0.265477
0.245303
0.22831
0.214316
0.202958
0.193807
0.186444
0.180502
0.175684
0.171759
0.168552
0.165926
0.163778
0.162024
0.160594
0.159434
0.158495
0.15774
0.157134
0.156651
0.156269
0.155967
0.15573
0.155545
0.155402
0.155293
0.155209
0.155145
0.155097
0.155061
0.155034
0.155015
0.155
0.154989
0.15498
0.154974
0.154968
0.154964
0.15496
0.154956
0.154952
0.154947
0.154943
0.154939
0.154934
0.154929
0.154924
0.154918
0.154912
0.154907
0.154901
0.154894
0.154889
0.154878
0.176533
0.176894
0.177787
0.179241
0.181495
0.184973
0.190222
0.197007
0.203688
0.209247
0.212753
0.213712
0.212679
0.211546
0.21298
0.219055
0.230359
0.246679
0.267747
0.292873
0.320704
0.349484
0.377328
0.402489
0.423615
0.439899
0.451094
0.457491
0.459867
0.459369
0.457304
0.454849
0.452797
0.451399
0.450348
0.448889
0.446005
0.440629
0.431858
0.419124
0.402322
0.381862
0.358626
0.333836
0.30885
0.284929
0.263055
0.243828
0.227463
0.213869
0.202763
0.193771
0.186512
0.180644
0.175881
0.171997
0.168818
0.166211
0.164071
0.162316
0.160879
0.159706
0.15875
0.157975
0.157348
0.156843
0.156438
0.156114
0.155857
0.155653
0.155491
0.155365
0.155265
0.155187
0.155126
0.155079
0.155041
0.155012
0.154989
0.154971
0.154956
0.154943
0.154933
0.154923
0.154915
0.154907
0.1549
0.154893
0.154887
0.15488
0.154873
0.154867
0.15486
0.154853
0.154846
0.15484
0.154833
0.154826
0.15482
0.154808
0.173115
0.172924
0.173108
0.173723
0.174701
0.176061
0.177879
0.180067
0.182509
0.185148
0.188038
0.191385
0.195586
0.201192
0.20882
0.219027
0.232237
0.248643
0.268082
0.289978
0.313399
0.337143
0.359915
0.380523
0.398023
0.411785
0.421521
0.427328
0.429713
0.429554
0.427939
0.425922
0.424265
0.423276
0.422767
0.42212
0.420444
0.416746
0.410129
0.399959
0.386001
0.368491
0.348124
0.325951
0.303201
0.281072
0.260543
0.242266
0.226536
0.21335
0.202499
0.193668
0.186515
0.180721
0.176013
0.172171
0.169024
0.166439
0.164312
0.162563
0.161125
0.159944
0.158978
0.158188
0.157544
0.15702
0.156596
0.156253
0.155977
0.155755
0.155576
0.155433
0.155319
0.155227
0.155154
0.155095
0.155047
0.155008
0.154977
0.154951
0.154929
0.15491
0.154894
0.15488
0.154868
0.154857
0.154846
0.154836
0.154827
0.154818
0.15481
0.154801
0.154793
0.154785
0.154777
0.154769
0.154762
0.154754
0.154748
0.154735
0.17273
0.172348
0.172159
0.172274
0.172768
0.173687
0.175065
0.176909
0.179227
0.182064
0.185527
0.189803
0.19515
0.20188
0.210328
0.220799
0.233505
0.248475
0.265505
0.284138
0.303672
0.323246
0.341968
0.359021
0.373729
0.385576
0.394243
0.399681
0.402189
0.402426
0.401297
0.399736
0.398466
0.397831
0.397736
0.397695
0.39694
0.394577
0.389743
0.38177
0.370322
0.355482
0.337769
0.318063
0.297461
0.277081
0.25789
0.240573
0.225495
0.212732
0.202147
0.193485
0.186441
0.180723
0.176071
0.172273
0.169159
0.1666
0.164492
0.162753
0.16132
0.160139
0.159166
0.158367
0.157712
0.157175
0.156736
0.156377
0.156085
0.155848
0.155654
0.155497
0.155369
0.155265
0.155179
0.15511
0.155052
0.155005
0.154965
0.154932
0.154903
0.154879
0.154858
0.154839
0.154823
0.154808
0.154794
0.154782
0.15477
0.154759
0.154748
0.154738
0.154729
0.154719
0.15471
0.154702
0.154693
0.154685
0.154678
0.154664
0.173335
0.172915
0.172668
0.172697
0.173075
0.173857
0.175098
0.176847
0.179157
0.182098
0.185772
0.190314
0.195899
0.202722
0.210983
0.220848
0.232405
0.245615
0.260277
0.276011
0.292293
0.308514
0.324062
0.338377
0.35096
0.361373
0.369273
0.374504
0.377207
0.377866
0.377231
0.376129
0.375239
0.374921
0.375153
0.375555
0.375485
0.374151
0.370753
0.364619
0.35534
0.342875
0.32758
0.310174
0.291616
0.272938
0.255072
0.238726
0.22432
0.212
0.201699
0.193216
0.186288
0.180649
0.176054
0.1723
0.169222
0.166691
0.164604
0.162881
0.161457
0.160281
0.159309
0.158506
0.157844
0.157298
0.156849
0.156479
0.156175
0.155925
0.15572
0.155551
0.155412
0.155297
0.155201
0.155122
0.155056
0.155001
0.154954
0.154914
0.15488
0.15485
0.154824
0.154802
0.154781
0.154763
0.154746
0.154731
0.154717
0.154704
0.154692
0.15468
0.154669
0.154659
0.154649
0.154639
0.15463
0.154621
0.154613
0.154599
0.174111
0.173702
0.173429
0.173388
0.173667
0.174344
0.175485
0.177148
0.179394
0.182287
0.185911
0.190367
0.195771
0.202251
0.209925
0.218878
0.229135
0.240624
0.253158
0.266436
0.280072
0.29364
0.306724
0.318938
0.329905
0.339244
0.346593
0.351722
0.354651
0.355726
0.355569
0.354913
0.354388
0.354361
0.354858
0.355588
0.356016
0.355458
0.353187
0.348556
0.341116
0.330725
0.317603
0.302315
0.285684
0.268644
0.252085
0.236718
0.223004
0.21115
0.201152
0.192861
0.186057
0.180501
0.175965
0.172256
0.169215
0.166713
0.164649
0.162944
0.161534
0.160366
0.159399
0.158598
0.157934
0.157384
0.156929
0.156552
0.156241
0.155982
0.155768
0.15559
0.155442
0.155318
0.155215
0.155129
0.155055
0.154993
0.154941
0.154895
0.154856
0.154822
0.154792
0.154766
0.154742
0.154721
0.154702
0.154685
0.154668
0.154654
0.15464
0.154627
0.154615
0.154603
0.154592
0.154582
0.154572
0.154562
0.154554
0.154539
0.174758
0.174379
0.174123
0.174069
0.174298
0.174885
0.175898
0.177402
0.179459
0.182135
0.185502
0.189638
0.194624
0.200541
0.207456
0.215406
0.224379
0.234294
0.244989
0.25623
0.267735
0.279209
0.290376
0.300968
0.310694
0.319211
0.326153
0.331233
0.334384
0.335842
0.336125
0.335882
0.335701
0.33594
0.336661
0.337638
0.338426
0.33844
0.337036
0.333609
0.327699
0.319093
0.307894
0.294531
0.279696
0.264222
0.248941
0.234554
0.221549
0.210184
0.200507
0.192424
0.185754
0.180286
0.175812
0.172149
0.169143
0.16667
0.164631
0.162946
0.161551
0.160395
0.159436
0.158639
0.157978
0.157429
0.156972
0.156592
0.156276
0.156012
0.155793
0.155609
0.155455
0.155326
0.155217
0.155124
0.155046
0.154979
0.154922
0.154872
0.154829
0.154792
0.154759
0.154729
0.154703
0.15468
0.154659
0.154639
0.154622
0.154605
0.15459
0.154576
0.154563
0.154551
0.154539
0.154528
0.154518
0.154507
0.154499
0.154483
0.175202
0.174851
0.17461
0.174543
0.17472
0.175211
0.176083
0.177399
0.179221
0.181608
0.184623
0.188327
0.192781
0.198038
0.204136
0.211085
0.218859
0.227377
0.236504
0.246062
0.255845
0.265656
0.275312
0.284629
0.293377
0.301245
0.307862
0.31291
0.316252
0.318042
0.318709
0.318834
0.318962
0.319442
0.320355
0.321523
0.322574
0.323006
0.322259
0.319782
0.315124
0.308029
0.298511
0.286878
0.273699
0.259706
0.245663
0.232248
0.219964
0.209106
0.199771
0.191912
0.185387
0.180013
0.175603
0.171986
0.169016
0.166572
0.164557
0.162891
0.161513
0.16037
0.159421
0.158633
0.157977
0.157431
0.156976
0.156596
0.156279
0.156014
0.155791
0.155604
0.155447
0.155314
0.155201
0.155106
0.155024
0.154954
0.154893
0.154841
0.154795
0.154755
0.15472
0.154688
0.15466
0.154635
0.154613
0.154592
0.154573
0.154556
0.15454
0.154525
0.154511
0.154498
0.154486
0.154475
0.154464
0.154453
0.154444
0.154428
0.175462
0.175129
0.174896
0.174814
0.174941
0.175339
0.176069
0.177188
0.178755
0.180825
0.183451
0.186685
0.190574
0.195155
0.20045
0.206458
0.213146
0.220443
0.22824
0.2364
0.244781
0.253249
0.261691
0.269982
0.277934
0.28526
0.291597
0.296601
0.30009
0.302148
0.303136
0.303574
0.303969
0.304659
0.305735
0.307056
0.308301
0.30904
0.308787
0.30705
0.303405
0.297575
0.289506
0.27941
0.267742
0.255133
0.242278
0.22982
0.218262
0.207926
0.198951
0.191331
0.184962
0.17969
0.175348
0.17178
0.168846
0.16643
0.164437
0.162791
0.161429
0.1603
0.159362
0.158583
0.157934
0.157394
0.156943
0.156565
0.15625
0.155985
0.155762
0.155575
0.155416
0.155282
0.155167
0.15507
0.154986
0.154914
0.154852
0.154798
0.154751
0.154709
0.154672
0.15464
0.154611
0.154585
0.154561
0.154539
0.15452
0.154502
0.154485
0.15447
0.154456
0.154442
0.15443
0.154418
0.154407
0.154396
0.154387
0.154371
0.175586
0.175261
0.175025
0.174921
0.174997
0.175304
0.175895
0.176825
0.178143
0.179901
0.182145
0.184919
0.188261
0.192199
0.196747
0.2019
0.207626
0.213865
0.220533
0.227527
0.234748
0.242114
0.249558
0.256997
0.264276
0.271131
0.277204
0.282141
0.285724
0.287986
0.289228
0.289919
0.290534
0.291399
0.292612
0.294054
0.295446
0.296413
0.296531
0.295368
0.292535
0.287752
0.280923
0.272176
0.261872
0.250547
0.23882
0.227293
0.216459
0.206656
0.198056
0.190689
0.184487
0.179326
0.175058
0.171539
0.168641
0.166253
0.164283
0.162655
0.161309
0.160193
0.159267
0.158497
0.157857
0.157323
0.156877
0.156504
0.156191
0.155929
0.155708
0.155521
0.155363
0.155229
0.155115
0.155017
0.154933
0.15486
0.154797
0.154743
0.154695
0.154653
0.154615
0.154582
0.154552
0.154526
0.154502
0.15448
0.15446
0.154441
0.154424
0.154409
0.154394
0.154381
0.154368
0.154356
0.154344
0.154333
0.154324
0.154308
0.175623
0.175296
0.17505
0.174919
0.174941
0.175162
0.175625
0.176378
0.177466
0.178934
0.180823
0.183171
0.186009
0.189362
0.193238
0.197633
0.202519
0.207849
0.213557
0.219569
0.225819
0.232263
0.238868
0.245581
0.252273
0.2587
0.264515
0.269355
0.27298
0.275383
0.276815
0.277702
0.27849
0.279493
0.280814
0.282352
0.283856
0.284992
0.285391
0.284674
0.282489
0.27857
0.27279
0.26522
0.256136
0.245988
0.235322
0.224692
0.214572
0.205307
0.197093
0.189994
0.183971
0.178928
0.174739
0.171274
0.168414
0.166053
0.164105
0.162495
0.161163
0.160059
0.159144
0.158384
0.157752
0.157225
0.156785
0.156417
0.156109
0.15585
0.155632
0.155447
0.155291
0.155158
0.155045
0.154948
0.154865
0.154793
0.15473
0.154675
0.154628
0.154585
0.154548
0.154515
0.154485
0.154458
0.154434
0.154412
0.154392
0.154374
0.154357
0.154341
0.154326
0.154313
0.1543
0.154288
0.154276
0.154265
0.154256
0.15424
0.175611
0.175275
0.175012
0.17485
0.174821
0.17496
0.175306
0.1759
0.176782
0.177989
0.179559
0.181526
0.183915
0.186749
0.190034
0.193767
0.197927
0.202476
0.207366
0.212545
0.217973
0.223633
0.229518
0.235599
0.241768
0.247797
0.253352
0.258069
0.261691
0.264178
0.265742
0.266771
0.267686
0.268791
0.270193
0.271801
0.273388
0.274653
0.275267
0.274896
0.27323
0.270019
0.265124
0.258573
0.250572
0.241495
0.231818
0.222043
0.21262
0.203892
0.196073
0.189251
0.183418
0.178502
0.174398
0.17099
0.16817
0.165838
0.163911
0.162318
0.161
0.159909
0.159004
0.158253
0.157629
0.157109
0.156675
0.156313
0.156009
0.155754
0.155539
0.155358
0.155205
0.155074
0.154963
0.154867
0.154785
0.154714
0.154652
0.154599
0.154551
0.15451
0.154473
0.15444
0.154411
0.154384
0.15436
0.154338
0.154318
0.1543
0.154283
0.154267
0.154253
0.154239
0.154226
0.154214
0.154203
0.154192
0.154183
0.154166
0.175572
0.175223
0.174941
0.174746
0.174666
0.174731
0.174973
0.175426
0.176125
0.177103
0.178394
0.180025
0.182022
0.184402
0.187174
0.190335
0.19387
0.19775
0.20194
0.206407
0.211132
0.216117
0.221377
0.226899
0.232594
0.238251
0.243544
0.248115
0.251695
0.25422
0.255866
0.25699
0.257991
0.259164
0.260617
0.262273
0.26392
0.265281
0.26606
0.265961
0.264712
0.262081
0.257931
0.252257
0.245212
0.237102
0.228338
0.219371
0.210622
0.202425
0.195004
0.188469
0.182835
0.178054
0.174041
0.170695
0.167917
0.165615
0.16371
0.162134
0.16083
0.15975
0.158855
0.158112
0.157495
0.156982
0.156554
0.156197
0.155898
0.155648
0.155437
0.155259
0.155109
0.154981
0.154872
0.154778
0.154698
0.154628
0.154568
0.154515
0.154469
0.154428
0.154392
0.15436
0.154331
0.154305
0.154282
0.15426
0.15424
0.154222
0.154206
0.15419
0.154176
0.154162
0.15415
0.154137
0.154126
0.154115
0.154106
0.15409
0.175519
0.175156
0.174852
0.174625
0.174498
0.174495
0.174644
0.174973
0.175512
0.176292
0.177339
0.178681
0.180337
0.182326
0.184655
0.187324
0.190321
0.193627
0.197218
0.201073
0.205191
0.209591
0.214302
0.219328
0.224591
0.229896
0.23493
0.239339
0.242848
0.245371
0.247058
0.248238
0.249288
0.250498
0.251978
0.253659
0.255344
0.256775
0.25768
0.257797
0.256882
0.25473
0.251206
0.246284
0.240078
0.232836
0.22491
0.216701
0.208597
0.200919
0.193896
0.187652
0.182225
0.177587
0.173671
0.170391
0.167659
0.165389
0.163507
0.161948
0.160657
0.159588
0.158702
0.157968
0.157358
0.156851
0.156429
0.156077
0.155783
0.155537
0.15533
0.155156
0.155008
0.154883
0.154777
0.154686
0.154607
0.15454
0.154481
0.15443
0.154385
0.154345
0.15431
0.154278
0.15425
0.154225
0.154202
0.154181
0.154161
0.154144
0.154127
0.154112
0.154098
0.154084
0.154072
0.15406
0.154049
0.154038
0.154028
0.154012
0.17546
0.175081
0.174755
0.174498
0.174327
0.174262
0.174328
0.174549
0.174951
0.175558
0.176396
0.177487
0.178851
0.180503
0.182451
0.184697
0.187233
0.190046
0.193121
0.19645
0.200042
0.203931
0.208159
0.212739
0.217608
0.222583
0.227363
0.2316
0.235015
0.237507
0.239202
0.240405
0.241475
0.242694
0.244178
0.245864
0.247568
0.249047
0.250049
0.250336
0.249693
0.247935
0.244936
0.240661
0.235188
0.228721
0.221558
0.214054
0.206562
0.199388
0.192758
0.186809
0.181594
0.177105
0.173291
0.170082
0.167398
0.165162
0.163305
0.161764
0.160487
0.159428
0.158552
0.157825
0.157222
0.156721
0.156305
0.155958
0.155668
0.155426
0.155223
0.155052
0.154908
0.154786
0.154682
0.154593
0.154517
0.154451
0.154394
0.154344
0.154301
0.154262
0.154228
0.154197
0.15417
0.154145
0.154123
0.154102
0.154084
0.154066
0.15405
0.154035
0.154021
0.154008
0.153996
0.153984
0.153973
0.153962
0.153953
0.153937
0.175397
0.175003
0.174656
0.174369
0.174157
0.174038
0.174031
0.174158
0.174439
0.174898
0.175555
0.176431
0.177544
0.178907
0.180528
0.182411
0.184551
0.18694
0.189571
0.192444
0.19558
0.199021
0.20282
0.207002
0.211512
0.216178
0.220711
0.224772
0.228079
0.230519
0.232196
0.233396
0.234461
0.235668
0.237134
0.238808
0.240514
0.242021
0.243094
0.243516
0.243093
0.241662
0.239107
0.235385
0.230553
0.224774
0.218302
0.211449
0.204534
0.197844
0.1916
0.185944
0.180944
0.176609
0.172904
0.169769
0.167137
0.164938
0.163106
0.161584
0.160321
0.159274
0.158406
0.157687
0.15709
0.156595
0.156184
0.155842
0.155557
0.155319
0.15512
0.154952
0.154811
0.154692
0.154591
0.154504
0.15443
0.154366
0.154311
0.154262
0.15422
0.154183
0.15415
0.15412
0.154093
0.154069
0.154047
0.154028
0.154009
0.153992
0.153977
0.153962
0.153948
0.153935
0.153923
0.153911
0.1539
0.153889
0.15388
0.153864
0.175332
0.174923
0.174555
0.174241
0.173992
0.173824
0.173753
0.173797
0.173974
0.174305
0.174807
0.175498
0.176395
0.177509
0.178851
0.180422
0.182221
0.184245
0.186492
0.18897
0.191708
0.194757
0.198177
0.202001
0.206183
0.210563
0.214861
0.218746
0.221935
0.224307
0.225948
0.227124
0.228165
0.229342
0.230774
0.23242
0.234112
0.235631
0.236755
0.237282
0.237038
0.235878
0.233697
0.23045
0.226176
0.221007
0.215159
0.208904
0.202529
0.1963
0.190429
0.185064
0.180282
0.176104
0.17251
0.169454
0.166877
0.164716
0.162911
0.161409
0.160161
0.159125
0.158267
0.157555
0.156965
0.156476
0.15607
0.155732
0.155452
0.155217
0.155022
0.154857
0.154719
0.154603
0.154504
0.15442
0.154348
0.154286
0.154232
0.154185
0.154144
0.154108
0.154076
0.154047
0.154021
0.153998
0.153977
0.153958
0.15394
0.153923
0.153908
0.153893
0.15388
0.153867
0.153855
0.153844
0.153833
0.153822
0.153813
0.153797
0.175267
0.174843
0.174456
0.174116
0.173833
0.173621
0.173493
0.173465
0.173552
0.173772
0.17414
0.174672
0.175384
0.176285
0.177385
0.178688
0.180195
0.181904
0.183819
0.185954
0.188344
0.191049
0.194133
0.197636
0.201521
0.205635
0.209711
0.213424
0.216492
0.218785
0.220377
0.221515
0.222517
0.223649
0.225035
0.226638
0.228303
0.22982
0.230976
0.231584
0.231486
0.230552
0.228687
0.225847
0.222059
0.21743
0.212142
0.206433
0.20056
0.194766
0.189256
0.184175
0.179609
0.175591
0.172112
0.169137
0.166617
0.164497
0.162722
0.16124
0.160008
0.158984
0.158135
0.157431
0.156847
0.156363
0.155962
0.155629
0.155353
0.155122
0.15493
0.154769
0.154634
0.15452
0.154423
0.154341
0.154271
0.154211
0.154159
0.154114
0.154074
0.154039