/*--------------------------------*- C++ -*----------------------------------*\
  =========                 |
  \\      /  F ield         | OpenFOAM: The Open Source CFD Toolbox
   \\    /   O peration     | Website:  https://openfoam.org
    \\  /    A nd           | Version:  10
     \\/     M anipulation  |
\*---------------------------------------------------------------------------*/
FoamFile
{
    format      ascii;
    class       volScalarField;
    location    "0.025";
    object      p;
}
// * * * * * * * * * * * * * * * * * * * * * * * * * * * * * * * * * * * * * //

dimensions      [0 2 -2 0 0 0 0];

internalField   nonuniform List<scalar> 
6820
(
-7.91318
-9.27832
-9.69466
-9.79487
-9.88152
-9.94015
-9.97974
-10.0143
-10.0468
-10.0785
-10.1103
-10.1428
-10.1764
-10.2113
-10.2477
-10.2857
-10.3254
-10.367
-10.4106
-10.4563
-10.5042
-10.5542
-10.6066
-10.6611
-10.7177
-10.7762
-10.8366
-10.899
-10.9629
-11.0228
-11.0829
-11.1023
-11.0964
-10.713
-10.3097
-10.0197
-9.92801
-9.93516
-9.95923
-9.98605
-10.0159
-10.047
-10.0784
-10.1102
-10.1427
-10.1762
-10.2108
-10.2468
-10.2845
-10.3238
-10.3651
-10.4083
-10.4537
-10.5012
-10.5511
-10.6033
-10.6578
-10.7148
-10.7744
-10.836
-10.8998
-10.9637
-11.034
-11.0953
-11.2167
-11.2964
-9.56974
-9.44244
-9.66921
-9.81282
-9.88036
-9.93202
-9.97278
-10.0083
-10.0415
-10.0737
-10.1058
-10.1385
-10.1721
-10.2069
-10.2432
-10.2811
-10.3207
-10.3622
-10.4057
-10.4513
-10.4992
-10.5492
-10.6016
-10.6564
-10.7135
-10.773
-10.8346
-10.8984
-10.9637
-11.0323
-11.0978
-11.1725
-11.2073
-9.93585
-9.95383
-9.93401
-9.91426
-9.92809
-9.95576
-9.9845
-10.0138
-10.0441
-10.0748
-10.1062
-10.1384
-10.1717
-10.2063
-10.2423
-10.28
-10.3193
-10.3605
-10.4037
-10.4491
-10.4966
-10.5464
-10.5985
-10.6531
-10.7102
-10.7698
-10.8318
-10.8964
-10.9629
-11.0331
-11.1026
-11.185
-11.2566
-9.82501
-9.77146
-9.81817
-9.86811
-9.90928
-9.94658
-9.97986
-10.0113
-10.0423
-10.0733
-10.1046
-10.1367
-10.1698
-10.2041
-10.2399
-10.2773
-10.3165
-10.3575
-10.4005
-10.4456
-10.493
-10.5426
-10.5946
-10.6491
-10.7062
-10.7658
-10.828
-10.893
-10.9605
-11.0316
-11.1039
-11.1837
-11.2562
-9.86515
-9.8597
-9.88075
-9.90209
-9.926
-9.9545
-9.98369
-10.0129
-10.0426
-10.0727
-10.1034
-10.1351
-10.1678
-10.2018
-10.2373
-10.2744
-10.3132
-10.3539
-10.3965
-10.4413
-10.4882
-10.5375
-10.5892
-10.6434
-10.7002
-10.7597
-10.8221
-10.8874
-10.9557
-11.0278
-11.1026
-11.1837
-11.2649
-9.86256
-9.85286
-9.87051
-9.89663
-9.92429
-9.95379
-9.98305
-10.012
-10.0412
-10.0709
-10.1013
-10.1325
-10.1649
-10.1985
-10.2336
-10.2703
-10.3087
-10.3489
-10.3911
-10.4354
-10.4819
-10.5307
-10.5819
-10.6357
-10.6922
-10.7515
-10.8137
-10.8792
-10.9481
-11.0209
-11.0976
-11.1802
-11.2666
-9.87093
-9.86897
-9.88487
-9.90709
-9.93085
-9.95705
-9.98423
-10.0119
-10.0401
-10.069
-10.0988
-10.1295
-10.1613
-10.1945
-10.229
-10.2652
-10.3031
-10.3427
-10.3844
-10.4281
-10.4739
-10.5221
-10.5727
-10.626
-10.6819
-10.7407
-10.8027
-10.868
-10.937
-11.0104
-11.0882
-11.1721
-11.262
-9.87757
-9.87741
-9.89063
-9.91066
-9.93313
-9.95804
-9.98417
-10.0109
-10.0384
-10.0666
-10.0957
-10.1258
-10.157
-10.1896
-10.2236
-10.2591
-10.2963
-10.3353
-10.3762
-10.4192
-10.4643
-10.5117
-10.5616
-10.614
-10.6692
-10.7273
-10.7887
-10.8536
-10.9223
-10.9956
-11.0738
-11.1582
-11.2497
-9.88396
-9.88545
-9.89749
-9.91572
-9.93651
-9.95966
-9.98431
-10.0099
-10.0363
-10.0637
-10.0921
-10.1215
-10.152
-10.1839
-10.2172
-10.252
-10.2884
-10.3266
-10.3667
-10.4088
-10.453
-10.4995
-10.5484
-10.5998
-10.654
-10.7112
-10.7716
-10.8356
-10.9036
-10.9762
-11.0539
-11.1378
-11.229
-9.8898
-9.89205
-9.90296
-9.91948
-9.93876
-9.96044
-9.98382
-10.0083
-10.0338
-10.0604
-10.0879
-10.1165
-10.1463
-10.1774
-10.2099
-10.2438
-10.2794
-10.3167
-10.3558
-10.3969
-10.44
-10.4854
-10.5331
-10.5833
-10.6362
-10.6921
-10.7513
-10.8139
-10.8806
-10.9518
-11.0281
-11.1104
-11.1998
-9.89493
-9.89756
-9.90761
-9.92271
-9.94062
-9.96092
-9.98302
-10.0064
-10.0309
-10.0565
-10.0831
-10.1108
-10.1398
-10.17
-10.2016
-10.2346
-10.2692
-10.3054
-10.3434
-10.3833
-10.4252
-10.4692
-10.5156
-10.5643
-10.6157
-10.67
-10.7275
-10.7884
-10.8532
-10.9223
-10.9963
-11.0759
-11.1621
-9.89928
-9.90202
-9.91131
-9.92516
-9.94179
-9.9608
-9.98166
-10.0039
-10.0274
-10.0519
-10.0776
-10.1045
-10.1324
-10.1617
-10.1922
-10.2242
-10.2577
-10.2927
-10.3295
-10.3681
-10.4085
-10.4511
-10.4958
-10.5428
-10.5925
-10.6448
-10.7002
-10.7588
-10.8212
-10.8875
-10.9584
-11.0344
-11.1161
-9.90277
-9.90549
-9.91411
-9.92685
-9.9423
-9.96009
-9.97975
-10.0009
-10.0233
-10.0468
-10.0715
-10.0973
-10.1242
-10.1524
-10.1819
-10.2127
-10.2449
-10.2787
-10.314
-10.3511
-10.39
-10.4308
-10.4737
-10.5188
-10.5663
-10.6163
-10.6692
-10.7252
-10.7845
-10.8475
-10.9145
-10.9859
-11.0623
-9.90538
-9.908
-9.916
-9.92774
-9.94209
-9.95872
-9.97722
-9.99722
-10.0185
-10.041
-10.0646
-10.0893
-10.1151
-10.1422
-10.1704
-10.1999
-10.2308
-10.2631
-10.2969
-10.3323
-10.3694
-10.4083
-10.4491
-10.492
-10.5371
-10.5845
-10.6346
-10.6873
-10.7431
-10.8021
-10.8647
-10.9309
-11.0012
-9.90708
-9.90956
-9.91697
-9.92781
-9.94113
-9.95666
-9.97402
-9.99289
-10.0131
-10.0344
-10.0569
-10.0804
-10.1051
-10.1308
-10.1578
-10.1859
-10.2153
-10.246
-10.2781
-10.3117
-10.3468
-10.3836
-10.4221
-10.4625
-10.5049
-10.5494
-10.5962
-10.6454
-10.6972
-10.7518
-10.8092
-10.8697
-10.9334
-9.90785
-9.91018
-9.91703
-9.92704
-9.93939
-9.95385
-9.97011
-9.98784
-10.0069
-10.0271
-10.0483
-10.0707
-10.094
-10.1185
-10.144
-10.1706
-10.1984
-10.2273
-10.2576
-10.2892
-10.3221
-10.3566
-10.3926
-10.4303
-10.4697
-10.511
-10.5542
-10.5995
-10.6469
-10.6966
-10.7485
-10.8029
-10.8596
-9.90768
-9.90984
-9.91617
-9.9254
-9.93683
-9.95027
-9.96544
-9.98204
-9.9999
-10.0189
-10.0389
-10.06
-10.082
-10.105
-10.129
-10.154
-10.18
-10.2071
-10.2354
-10.2648
-10.2955
-10.3274
-10.3607
-10.3954
-10.4316
-10.4693
-10.5087
-10.5497
-10.5924
-10.6369
-10.6831
-10.7309
-10.7804
-9.90656
-9.90856
-9.91439
-9.92288
-9.93343
-9.94589
-9.95998
-9.97545
-9.99213
-10.0099
-10.0286
-10.0483
-10.0689
-10.0904
-10.1128
-10.136
-10.1602
-10.1854
-10.2115
-10.2386
-10.2667
-10.296
-10.3264
-10.3579
-10.3906
-10.4246
-10.4598
-10.4963
-10.5341
-10.5731
-10.6133
-10.6545
-10.6967
-9.90448
-9.90632
-9.91167
-9.91947
-9.92918
-9.94067
-9.9537
-9.96804
-9.98352
-10
-10.0174
-10.0357
-10.0548
-10.0747
-10.0954
-10.1168
-10.139
-10.1621
-10.1859
-10.2106
-10.2361
-10.2624
-10.2897
-10.3179
-10.347
-10.3769
-10.4079
-10.4396
-10.4723
-10.5057
-10.5397
-10.5743
-10.6092
-9.90145
-9.90313
-9.90803
-9.91516
-9.92405
-9.9346
-9.94658
-9.95979
-9.97406
-9.98926
-10.0053
-10.0221
-10.0397
-10.0579
-10.0768
-10.0963
-10.1165
-10.1373
-10.1587
-10.1808
-10.2035
-10.2269
-10.2509
-10.2755
-10.3008
-10.3267
-10.3531
-10.38
-10.4074
-10.4351
-10.463
-10.4909
-10.5186
-9.89747
-9.899
-9.90345
-9.90994
-9.91804
-9.92766
-9.93861
-9.95069
-9.96373
-9.97762
-9.99226
-10.0076
-10.0235
-10.04
-10.057
-10.0745
-10.0925
-10.111
-10.1299
-10.1493
-10.1691
-10.1894
-10.21
-10.231
-10.2523
-10.274
-10.2958
-10.3178
-10.3399
-10.3619
-10.3836
-10.405
-10.4258
-9.89253
-9.89392
-9.89794
-9.90381
-9.91114
-9.91986
-9.92979
-9.94073
-9.95255
-9.96511
-9.97832
-9.99209
-10.0063
-10.021
-10.0361
-10.0516
-10.0673
-10.0834
-10.0998
-10.1164
-10.1332
-10.1502
-10.1673
-10.1846
-10.2019
-10.2192
-10.2364
-10.2535
-10.2702
-10.2866
-10.3023
-10.3173
-10.3313
-9.88666
-9.88791
-9.89151
-9.89677
-9.90335
-9.91118
-9.92009
-9.92991
-9.94048
-9.9517
-9.96345
-9.97564
-9.98819
-10.0011
-10.0142
-10.0275
-10.0409
-10.0545
-10.0682
-10.082
-10.0957
-10.1094
-10.123
-10.1365
-10.1497
-10.1627
-10.1753
-10.1874
-10.1989
-10.2097
-10.2196
-10.2284
-10.236
-9.87987
-9.88097
-9.88417
-9.88885
-9.89471
-9.90167
-9.9096
-9.91831
-9.92767
-9.93755
-9.94783
-9.95843
-9.96926
-9.98026
-9.99135
-10.0025
-10.0136
-10.0247
-10.0356
-10.0465
-10.0571
-10.0674
-10.0775
-10.0871
-10.0963
-10.105
-10.113
-10.1202
-10.1266
-10.132
-10.1362
-10.1391
-10.1406
-9.87217
-9.87313
-9.87592
-9.88
-9.88513
-9.89122
-9.89815
-9.90574
-9.91386
-9.92238
-9.93119
-9.94019
-9.94928
-9.95839
-9.96744
-9.97638
-9.98514
-9.99366
-10.0019
-10.0098
-10.0173
-10.0243
-10.0307
-10.0366
-10.0418
-10.0462
-10.0497
-10.0522
-10.0536
-10.0538
-10.0526
-10.05
-10.0456
-9.86359
-9.86443
-9.86685
-9.87041
-9.87489
-9.88022
-9.88624
-9.8928
-9.89975
-9.90696
-9.91432
-9.92172
-9.92907
-9.93628
-9.94328
-9.94999
-9.95635
-9.9623
-9.96777
-9.97271
-9.97704
-9.9807
-9.98362
-9.98573
-9.98692
-9.98713
-9.98625
-9.98418
-9.98082
-9.97604
-9.96971
-9.96175
-9.95194
-9.85416
-9.85482
-9.85676
-9.85965
-9.86334
-9.86776
-9.87277
-9.87822
-9.88397
-9.88987
-9.8958
-9.90165
-9.9073
-9.91266
-9.91766
-9.92221
-9.92625
-9.92969
-9.93248
-9.93455
-9.93582
-9.93623
-9.93571
-9.93417
-9.93154
-9.92773
-9.92265
-9.9162
-9.90829
-9.89882
-9.88768
-9.87478
-9.85995
-9.84398
-9.84464
-9.84639
-9.84898
-9.85227
-9.85612
-9.8604
-9.86495
-9.86961
-9.87425
-9.87876
-9.88301
-9.88691
-9.89037
-9.89329
-9.8956
-9.89722
-9.8981
-9.89814
-9.89729
-9.89548
-9.89264
-9.88869
-9.88355
-9.87716
-9.86943
-9.86028
-9.84963
-9.83738
-9.82346
-9.80777
-9.79024
-9.77074
-9.83287
-9.83298
-9.83373
-9.83519
-9.83738
-9.8402
-9.84348
-9.84704
-9.85067
-9.85422
-9.85752
-9.86045
-9.86288
-9.86472
-9.86586
-9.86622
-9.86573
-9.8643
-9.86188
-9.85838
-9.85375
-9.84791
-9.84079
-9.83233
-9.82246
-9.8111
-9.79819
-9.78365
-9.76741
-9.74941
-9.72957
-9.70784
-9.68411
-9.82181
-9.82286
-9.8244
-9.82638
-9.82871
-9.83126
-9.83391
-9.83654
-9.83901
-9.84117
-9.8429
-9.84409
-9.84464
-9.84443
-9.84339
-9.84144
-9.83849
-9.83448
-9.82933
-9.82297
-9.81535
-9.80639
-9.79603
-9.7842
-9.77085
-9.75591
-9.73931
-9.72101
-9.70094
-9.67905
-9.65528
-9.62961
-9.60193
-9.80779
-9.80574
-9.80392
-9.80348
-9.80441
-9.80619
-9.80843
-9.81082
-9.81306
-9.81494
-9.81625
-9.81685
-9.81661
-9.81543
-9.8132
-9.80984
-9.80529
-9.79947
-9.79232
-9.78378
-9.77379
-9.7623
-9.74925
-9.73459
-9.71828
-9.70025
-9.68048
-9.6589
-9.63549
-9.61022
-9.58303
-9.55394
-9.52286
-9.80131
-9.80547
-9.80755
-9.80859
-9.8094
-9.81009
-9.81069
-9.8111
-9.81115
-9.81068
-9.80957
-9.80769
-9.80492
-9.80117
-9.79632
-9.79031
-9.78304
-9.77446
-9.76448
-9.75305
-9.74011
-9.72561
-9.70948
-9.69168
-9.67217
-9.6509
-9.62784
-9.60296
-9.57622
-9.54761
-9.51709
-9.48468
-9.45032
-9.77126
-9.76182
-9.75534
-9.75469
-9.75693
-9.76012
-9.76354
-9.76673
-9.76931
-9.77102
-9.77164
-9.77106
-9.76916
-9.76587
-9.76112
-9.75485
-9.74701
-9.73755
-9.72644
-9.71364
-9.6991
-9.6828
-9.66471
-9.64479
-9.62302
-9.59939
-9.57387
-9.54645
-9.51713
-9.48591
-9.45278
-9.41777
-9.38085
-9.80439
-9.81629
-9.81467
-9.80893
-9.80381
-9.79995
-9.79672
-9.7936
-9.79029
-9.78658
-9.78224
-9.77708
-9.77094
-9.76369
-9.7552
-9.74539
-9.73415
-9.72142
-9.70713
-9.69121
-9.6736
-9.65427
-9.63318
-9.61028
-9.58556
-9.55898
-9.53054
-9.50022
-9.46802
-9.43395
-9.39802
-9.36024
-9.3206
-9.69628
-9.65973
-9.65602
-9.67014
-9.68315
-9.69427
-9.70404
-9.71215
-9.7183
-9.72239
-9.7244
-9.72436
-9.72229
-9.71819
-9.71209
-9.70399
-9.6939
-9.68182
-9.66774
-9.65167
-9.63359
-9.61352
-9.59144
-9.56736
-9.54129
-9.51324
-9.48321
-9.45124
-9.41734
-9.38154
-9.34388
-9.3044
-9.26312
-9.89712
-9.91886
-9.88367
-9.84324
-9.8198
-9.80684
-9.7963
-9.78706
-9.77886
-9.77099
-9.76291
-9.75424
-9.74473
-9.73417
-9.72238
-9.70922
-9.69459
-9.67838
-9.66052
-9.64094
-9.61959
-9.59642
-9.5714
-9.5445
-9.51571
-9.48502
-9.45243
-9.41795
-9.38159
-9.34339
-9.30337
-9.26157
-9.21802
-9.48173
-9.40004
-9.45553
-9.53512
-9.57978
-9.60915
-9.6339
-9.653
-9.66669
-9.67602
-9.6816
-9.6838
-9.68293
-9.67923
-9.67285
-9.66393
-9.65256
-9.63882
-9.62277
-9.60444
-9.58388
-9.56112
-9.53621
-9.50916
-9.48003
-9.44884
-9.41565
-9.3805
-9.34344
-9.30453
-9.26382
-9.22139
-9.17728
-10.4534
-10.1738
-9.96604
-9.86816
-9.82855
-9.80182
-9.78088
-9.76581
-9.75413
-9.74389
-9.7341
-9.72415
-9.71354
-9.70194
-9.68908
-9.67478
-9.6589
-9.64131
-9.62193
-9.6007
-9.57754
-9.55243
-9.52534
-9.49625
-9.46516
-9.43206
-9.39699
-9.35996
-9.321
-9.28016
-9.23747
-9.19302
-9.14677
-8.49354
-9.05396
-9.35391
-9.46647
-9.54022
-9.59588
-9.63206
-9.65554
-9.67095
-9.68001
-9.68401
-9.68394
-9.68043
-9.67385
-9.66448
-9.65251
-9.63805
-9.62119
-9.60199
-9.58051
-9.55679
-9.53085
-9.50275
-9.47253
-9.44022
-9.40588
-9.36958
-9.33137
-9.29132
-9.24951
-9.20602
-9.16098
-9.11434
-11.0855
-10.3715
-10.3614
-10.9926
-12.0376
-13.2248
-14.4858
-15.7434
-16.9473
-18.0659
-19.0742
-19.939
-20.6218
-21.0806
-21.2706
-21.1463
-20.6683
-19.8148
-18.5977
-17.0601
-15.2636
-13.33
-11.3992
-9.56817
-7.90277
-6.43994
-5.18179
-4.11074
-3.20443
-2.44098
-1.80052
-1.2657
-0.821555
-0.455166
-0.155318
0.0877257
0.282414
0.436053
0.554942
0.644513
0.709467
0.753892
0.781359
0.795001
0.797566
0.791457
0.77875
0.761186
0.740167
0.716785
0.69188
0.666106
0.639982
0.613913
0.588213
0.563114
0.538777
0.515316
0.492795
0.47125
0.45069
0.431104
0.412468
0.394745
0.377891
0.361856
0.346588
0.332031
0.318131
0.304833
0.292084
0.279833
0.26803
0.256628
0.245584
0.234855
0.224404
0.214194
0.204192
0.194368
0.184693
0.17514
0.165688
0.156312
0.146995
0.137718
0.128464
0.119219
0.109968
0.1007
0.0914032
0.0820681
0.072682
0.0632436
0.0537297
0.0441635
0.0344761
0.0247856
0.0148358
0.00512163
-11.6735
-11.4093
-11.2065
-11.5422
-12.2808
-13.2171
-14.2929
-15.424
-16.5404
-17.5935
-18.5409
-19.3402
-19.9514
-20.3347
-20.45
-20.2602
-19.7417
-18.8948
-17.7335
-16.2873
-14.6311
-12.8688
-11.0928
-9.38914
-7.82597
-6.4384
-5.2316
-4.19401
-3.30843
-2.55674
-1.92178
-1.38812
-0.942161
-0.571951
-0.266973
-0.0179821
0.183132
0.343438
0.46907
0.565332
0.636827
0.687561
0.721046
0.740364
0.74823
0.747026
0.738814
0.725336
0.708011
0.68796
0.666059
0.642996
0.619318
0.595455
0.571741
0.548426
0.525692
0.503667
0.482432
0.462038
0.442506
0.42384
0.406024
0.389033
0.372832
0.35738
0.34263
0.328535
0.315046
0.302113
0.289689
0.277726
0.266178
0.255003
0.244159
0.233608
0.223314
0.213242
0.203363
0.193646
0.184065
0.174596
0.165216
0.155904
0.146643
0.137415
0.128204
0.118996
0.109778
0.100539
0.0912667
0.0819535
0.0725869
0.0631653
0.0536675
0.0441136
0.034442
0.0247566
0.0148324
0.00509743
-11.2975
-11.059
-11.1091
-11.5407
-12.2641
-13.1486
-14.1318
-15.1517
-16.1525
-17.092
-17.9325
-18.6351
-19.1603
-19.47
-19.53
-19.3146
-18.8079
-18.003
-16.9101
-15.5713
-14.0555
-12.4354
-10.7937
-9.21069
-7.74575
-6.43122
-5.27553
-4.27221
-3.4085
-2.66972
-2.0413
-1.50966
-1.06258
-0.689073
-0.379354
-0.124698
0.0826337
0.249456
0.381718
0.484595
0.562585
0.619616
0.65913
0.684163
0.697389
0.701162
0.697528
0.688224
0.674685
0.658056
0.639248
0.618981
0.597828
0.576245
0.554586
0.533121
0.512049
0.491515
0.471617
0.45242
0.43396
0.416251
0.399291
0.383065
0.367546
0.352701
0.338493
0.32488
0.31182
0.29927
0.287185
0.275523
0.264243
0.253305
0.242671
0.232305
0.222174
0.212248
0.202495
0.192891
0.183409
0.174026
0.164723
0.155478
0.146275
0.137098
0.127932
0.118763
0.109579
0.10037
0.091124
0.0818338
0.0724876
0.0630836
0.0536025
0.0440615
0.0344064
0.0247262
0.0148287
0.00507245
-11.3908
-11.4326
-11.5171
-11.8503
-12.4456
-13.1875
-14.0208
-14.8996
-15.7736
-16.5982
-17.3353
-17.9465
-18.3947
-18.6457
-18.6695
-18.441
-17.9422
-17.17
-16.1467
-14.9117
-13.5149
-12.0215
-10.5056
-9.0354
-7.66286
-6.41862
-5.31347
-4.34495
-3.50409
-2.77934
-2.15851
-1.62982
-1.18236
-0.806158
-0.492152
-0.232171
-0.0188704
0.154282
0.293039
0.402434
0.486857
0.550152
0.595695
0.626464
0.645093
0.653902
0.654916
0.649868
0.640198
0.62708
0.61145
0.59406
0.57551
0.55628
0.536743
0.51719
0.497839
0.478851
0.460341
0.442388
0.425043
0.408331
0.392263
0.376833
0.362024
0.347814
0.334171
0.321063
0.308451
0.296299
0.284569
0.273222
0.262221
0.25153
0.241115
0.230943
0.220984
0.211208
0.201589
0.192102
0.182723
0.173431
0.164207
0.155033
0.145891
0.136767
0.127648
0.11852
0.109372
0.100194
0.0909751
0.0817087
0.0723839
0.0629982
0.0535345
0.0440071
0.034369
0.0246945
0.0148244
0.0050469
-11.3591
-11.4091
-11.5284
-11.8812
-12.4225
-13.0906
-13.8382
-14.6229
-15.399
-16.1273
-16.7725
-17.3
-17.6764
-17.8704
-17.8544
-17.6071
-17.1185
-16.3905
-15.4388
-14.2952
-13.0065
-11.6305
-10.23
-8.86377
-7.57781
-6.40091
-5.34541
-4.41194
-3.59478
-2.88508
-2.27286
-1.74805
-1.30102
-0.922771
-0.604993
-0.340079
-0.121106
0.0581558
0.203243
0.319034
0.409805
0.479311
0.530857
0.567363
0.591417
0.605303
0.611021
0.610294
0.604571
0.59504
0.582669
0.568233
0.552361
0.535553
0.518206
0.500628
0.483056
0.465668
0.448597
0.431935
0.415746
0.400071
0.384931
0.37033
0.356262
0.342713
0.32966
0.317076
0.304933
0.293197
0.281837
0.270818
0.260109
0.249676
0.23949
0.229521
0.219741
0.210123
0.200643
0.191278
0.182007
0.17281
0.163669
0.154567
0.14549
0.136422
0.127351
0.118266
0.109155
0.100009
0.0908195
0.0815781
0.0722755
0.062909
0.0534636
0.0439502
0.03433
0.0246615
0.0148196
0.00502098
-11.374
-11.4908
-11.6722
-12.0005
-12.4678
-13.043
-13.6913
-14.3727
-15.0473
-15.6789
-16.2343
-16.6818
-16.9905
-17.1325
-17.0841
-16.828
-16.3549
-15.6666
-14.7783
-13.7194
-12.5306
-11.2615
-9.9663
-8.69585
-7.49093
-6.37835
-5.37137
-4.47302
-3.68021
-2.9865
-2.38389
-1.86389
-1.41812
-1.03852
-0.717535
-0.448133
-0.223828
-0.0387154
0.112507
0.234548
0.33156
0.407204
0.464709
0.506935
0.536419
0.555407
0.565873
0.569526
0.567815
0.561946
0.552907
0.5415
0.528377
0.51406
0.498966
0.483425
0.46769
0.451957
0.436373
0.421049
0.406061
0.391463
0.377286
0.363547
0.350251
0.33739
0.324951
0.312916
0.30126
0.289959
0.278984
0.268308
0.257903
0.247741
0.237793
0.228036
0.218442
0.208989
0.199655
0.190418
0.181259
0.172161
0.163107
0.154082
0.14507
0.136061
0.127041
0.118
0.108929
0.0998171
0.0906571
0.0814418
0.0721624
0.0628159
0.0533895
0.0438908
0.0342891
0.0246271
0.0148139
0.00499486
-11.3789
-11.5171
-11.7075
-12.0099
-12.4289
-12.9381
-13.5067
-14.102
-14.6898
-15.2375
-15.7144
-16.0914
-16.341
-16.4384
-16.363
-16.0998
-15.6418
-14.9918
-14.1635
-13.1826
-12.0846
-10.9128
-9.71374
-8.5316
-7.40244
-6.35117
-5.39144
-4.52808
-3.76014
-3.08324
-2.49117
-1.97691
-1.53323
-1.15301
-0.829432
-0.556033
-0.32678
-0.136114
0.0210155
0.149134
0.252259
0.333948
0.39735
0.445261
0.480166
0.504269
0.519514
0.527592
0.529952
0.52781
0.522173
0.513864
0.503558
0.491798
0.479022
0.465576
0.451734
0.437709
0.423665
0.409724
0.39598
0.382497
0.369321
0.356479
0.343984
0.331839
0.32004
0.308575
0.297427
0.286578
0.276006
0.265688
0.255601
0.24572
0.236022
0.226484
0.217086
0.207805
0.198622
0.189519
0.180479
0.171484
0.16252
0.153574
0.144633
0.135684
0.126717
0.117723
0.108692
0.0996163
0.0904874
0.0812994
0.0720442
0.0627187
0.053312
0.0438287
0.0342462
0.0245913
0.0148072
0.00496876
-11.3778
-11.5294
-11.7296
-12.0147
-12.3892
-12.8346
-13.3279
-13.8422
-14.3481
-14.8167
-15.2202
-15.5322
-15.728
-15.7857
-15.6872
-15.4196
-14.9775
-14.3637
-13.5907
-12.6811
-11.666
-10.5828
-9.47164
-8.3709
-7.31256
-6.31961
-5.40576
-4.5771
-3.83441
-3.17504
-2.59437
-2.08673
-1.64597
-1.26588
-0.940344
-0.663476
-0.429701
-0.233815
-0.0710368
0.0629595
0.172045
0.259666
0.328885
0.382431
0.422732
0.451947
0.471989
0.484529
0.491009
0.492652
0.49048
0.485334
0.47791
0.46877
0.458371
0.44708
0.435187
0.422922
0.410465
0.397954
0.385496
0.373169
0.36103
0.349117
0.337455
0.326054
0.31492
0.304048
0.29343
0.283053
0.2729
0.262955
0.253198
0.24361
0.234172
0.224865
0.21567
0.206569
0.197545
0.188581
0.179663
0.170776
0.161907
0.153044
0.144175
0.13529
0.126379
0.117434
0.108445
0.0994065
0.0903102
0.0811506
0.0719208
0.0626171
0.0532311
0.0437639
0.0342011
0.0245541
0.0147993
0.00494284
-11.3668
-11.5228
-11.7215
-11.9849
-12.3176
-12.7071
-13.1348
-13.5779
-14.0114
-14.4095
-14.7475
-15.0016
-15.1499
-15.1729
-15.0548
-14.7848
-14.3584
-13.7785
-13.0566
-12.2123
-11.2727
-10.2701
-9.23933
-8.21369
-7.22153
-6.28398
-5.41454
-4.62015
-3.90292
-3.26169
-2.69322
-2.19302
-1.756
-1.37679
-1.04994
-0.770163
-0.532324
-0.331586
-0.163449
-0.023801
0.0910695
0.184489
0.259428
0.318541
0.364197
0.39851
0.423354
0.44038
0.45102
0.456499
0.457847
0.455924
0.451441
0.444981
0.437019
0.427938
0.418047
0.407593
0.396771
0.385736
0.374606
0.363474
0.352409
0.341459
0.330659
0.320031
0.309587
0.299333
0.289264
0.279377
0.269661
0.260104
0.250692
0.24141
0.232243
0.223176
0.214193
0.205279
0.19642
0.187602
0.178812
0.170038
0.161268
0.152491
0.143698
0.134879
0.126027
0.117132
0.108188
0.0991875
0.0901252
0.0809953
0.0717919
0.062511
0.0531464
0.0436962
0.0341539
0.0245153
0.0147901
0.00491728
-11.3452
-11.5
-11.692
-11.9343
-12.2298
-12.5696
-12.9385
-13.3175
-13.6853
-14.0194
-14.298
-14.4999
-14.6056
-14.598
-14.4633
-14.1922
-13.7812
-13.2331
-12.5581
-11.7734
-10.9026
-9.97352
-9.0163
-8.05996
-7.12962
-6.24462
-5.41804
-4.65736
-3.96569
-3.34309
-2.78749
-2.29552
-1.86302
-1.48541
-1.15792
-0.875802
-0.634383
-0.429188
-0.256012
-0.110965
0.00949174
0.108556
0.189099
0.253695
0.304652
0.344032
0.373673
0.395198
0.410027
0.419382
0.4243
0.425653
0.424168
0.420443
0.414971
0.408154
0.400317
0.391723
0.382584
0.373068
0.363308
0.35341
0.343454
0.3335
0.323594
0.313766
0.304039
0.294424
0.284927
0.27555
0.266287
0.257133
0.24808
0.239117
0.230232
0.221415
0.212653
0.203934
0.195247
0.186581
0.177924
0.169267
0.1606
0.151914
0.1432
0.134451
0.125658
0.116816
0.107919
0.0989589
0.0899321
0.0808332
0.0716573
0.0624002
0.053058
0.0436255
0.0341043
0.024475
0.0147794
0.00489222
-11.313
-11.4626
-11.644
-11.8644
-12.1255
-12.4204
-12.7367
-13.0585
-13.3675
-13.6445
-13.8699
-14.0253
-14.0933
-14.0589
-13.9101
-13.6392
-13.243
-12.7245
-12.0926
-11.3624
-10.5541
-9.69204
-8.80216
-7.90978
-7.03716
-6.20194
-5.41663
-4.68895
-4.02279
-3.41917
-2.87705
-2.39401
-1.96676
-1.59146
-1.26399
-0.980114
-0.735615
-0.526384
-0.348512
-0.198344
-0.0725213
0.0320145
0.118027
0.188007
0.244194
0.288598
0.323016
0.349043
0.36808
0.381342
0.389871
0.394546
0.396108
0.395171
0.392241
0.387739
0.382005
0.375319
0.367907
0.359953
0.351603
0.342976
0.334164
0.32524
0.316257
0.307258
0.298272
0.289321
0.280416
0.271567
0.262776
0.254042
0.245361
0.236729
0.228137
0.21958
0.211048
0.202532
0.194025
0.185516
0.176999
0.168464
0.159904
0.151312
0.142681
0.134003
0.125274
0.116488
0.107638
0.0987205
0.0897307
0.080664
0.0715169
0.0622846
0.0529657
0.0435518
0.0340522
0.0244332
0.0147672
0.00486777
-11.2705
-11.4122
-11.5804
-11.7791
-12.0083
-12.2627
-12.532
-12.8027
-13.0593
-13.285
-13.4629
-13.5768
-13.6113
-13.5535
-13.393
-13.123
-12.7412
-12.2501
-11.6577
-10.9771
-10.2258
-9.4248
-8.59661
-7.76328
-6.94452
-6.15637
-5.41066
-4.71519
-4.07437
-3.48997
-2.96181
-2.48833
-2.06701
-1.6947
-1.36788
-1.08283
-0.835764
-0.622934
-0.440731
-0.285742
-0.154795
-0.0449803
0.0463503
0.121598
0.182931
0.232303
0.271466
0.301984
0.325236
0.342428
0.354599
0.362637
0.36729
0.369185
0.368846
0.366705
0.363121
0.358387
0.352746
0.346395
0.339495
0.332176
0.324543
0.316679
0.30865
0.300506
0.292287
0.284022
0.275731
0.26743
0.259127
0.250827
0.242534
0.234245
0.225958
0.217671
0.209378
0.201074
0.192752
0.184408
0.176035
0.167628
0.15918
0.150686
0.14214
0.133538
0.124874
0.116145
0.107346
0.0984721
0.0895208
0.0804878
0.0713705
0.0621641
0.0528693
0.0434748
0.0339976
0.0243898
0.0147532
0.00484398
-11.2182
-11.3501
-11.5037
-11.6808
-11.8805
-12.0982
-12.3253
-12.5504
-12.7601
-12.9402
-13.0759
-13.1529
-13.158
-13.0799
-12.9096
-12.6413
-12.2731
-11.8074
-11.2512
-10.6158
-9.91639
-9.17113
-8.39945
-7.62062
-6.85208
-6.10837
-5.40058
-4.73641
-4.12061
-3.55555
-3.04174
-2.57837
-2.16359
-1.79491
-1.46936
-1.18371
-0.934581
-0.718601
-0.532448
-0.372955
-0.237145
-0.122265
-0.0257848
0.0545987
0.120978
0.175247
0.219111
0.254097
0.281561
0.302695
0.318533
0.329964
0.337745
0.342515
0.344808
0.345072
0.34368
0.340942
0.337112
0.332404
0.32699
0.321015
0.314593
0.307821
0.300774
0.293513
0.286085
0.278529
0.270872
0.263138
0.25534
0.247491
0.239598
0.231665
0.223695
0.215688
0.207642
0.199557
0.19143
0.183256
0.175034
0.166758
0.158426
0.150034
0.141577
0.133053
0.124458
0.115789
0.107042
0.0982137
0.0893023
0.0803043
0.0712181
0.0620386
0.0527689
0.0433947
0.0339405
0.0243448
0.0147375
0.00482088
-11.157
-11.2778
-11.416
-11.572
-11.7442
-11.9286
-12.1179
-12.3022
-12.4703
-12.6098
-12.708
-12.7525
-12.7318
-12.6361
-12.4577
-12.1917
-11.8365
-11.3943
-10.8712
-10.277
-9.62485
-8.93042
-8.21053
-7.48199
-6.76025
-6.05841
-5.38682
-4.75296
-4.16176
-3.61602
-3.11686
-2.66404
-2.25636
-1.8919
-1.5682
-1.2825
-1.03183
-0.813151
-0.623442
-0.459779
-0.319385
-0.199666
-0.0982225
-0.0128503
0.0584623
0.117544
0.166051
0.20547
0.237131
0.262207
0.281726
0.296574
0.307514
0.315192
0.320155
0.322863
0.323704
0.322999
0.32102
0.317991
0.314099
0.3095
0.304323
0.298672
0.292635
0.286282
0.27967
0.272844
0.265842
0.258692
0.251416
0.244033
0.236554
0.22899
0.221347
0.21363
0.205842
0.197984
0.190057
0.18206
0.173993
0.165855
0.157643
0.149357
0.140993
0.13255
0.124026
0.115418
0.106726
0.0979451
0.0890753
0.0801137
0.0710596
0.0619082
0.0526644
0.0433115
0.0338807
0.0242982
0.0147201
0.00479844
-11.0877
-11.1966
-11.319
-11.4545
-11.6013
-11.7554
-11.9107
-12.0587
-12.1898
-12.2933
-12.3584
-12.3743
-12.3311
-12.2203
-12.0354
-11.7721
-11.4292
-11.0087
-10.5159
-9.95928
-9.35021
-8.70216
-8.02974
-7.3476
-6.6694
-6.00696
-5.36983
-4.7652
-4.19807
-3.67155
-3.1872
-2.74531
-2.34521
-1.9855
-1.66421
-1.379
-1.12728
-0.906357
-0.713492
-0.546004
-0.401319
-0.277006
-0.170799
-0.0806006
-0.00448292
0.0593146
0.112393
0.156199
0.192029
0.221039
0.244241
0.262522
0.276642
0.287257
0.294922
0.300108
0.303216
0.304581
0.304487
0.303171
0.300835
0.297645
0.293741
0.289241
0.28424
0.278819
0.273045
0.266972
0.260643
0.254096
0.247359
0.240456
0.233405
0.226221
0.218917
0.211499
0.203977
0.196354
0.188634
0.180821
0.172916
0.164919
0.156832
0.148655
0.140387
0.132028
0.123578
0.115034
0.106398
0.0976665
0.0888398
0.0799159
0.0708952
0.0617728
0.0525559
0.043225
0.0338184
0.0242501
0.014701
0.00477661
-11.0111
-11.1076
-11.2144
-11.3303
-11.4533
-11.58
-11.7047
-11.8203
-11.9186
-11.9903
-12.0263
-12.0171
-11.9544
-11.8307
-11.6406
-11.3805
-11.0493
-10.6489
-10.1838
-9.66146
-9.09161
-8.48589
-7.85697
-7.21762
-6.57991
-5.95445
-5.35004
-4.77352
-4.22984
-3.72232
-3.25285
-2.82217
-2.43007
-2.07559
-1.75722
-1.473
-1.22072
-0.998001
-0.802381
-0.631421
-0.482749
-0.3541
-0.243344
-0.148495
-0.0677139
0.000687933
0.0582542
0.106387
0.146349
0.17927
0.206151
0.227869
0.245185
0.258757
0.269149
0.276842
0.282248
0.285714
0.287536
0.287966
0.287215
0.285463
0.282861
0.279537
0.275598
0.271134
0.266219
0.260918
0.255282
0.249355
0.243172
0.236763
0.230153
0.223362
0.216405
0.209298
0.202049
0.194669
0.187164
0.17954
0.171801
0.163951
0.155993
0.147929
0.13976
0.131488
0.123114
0.114637
0.106059
0.0973781
0.088596
0.0797111
0.070725
0.0616326
0.0524434
0.0431355
0.0337536
0.0242005
0.0146803
0.00475529
-10.9281
-11.0122
-11.1035
-11.2007
-11.3018
-11.4034
-11.5007
-11.5875
-11.6567
-11.7005
-11.7108
-11.6798
-11.6002
-11.4658
-11.2717
-11.0151
-10.695
-10.3132
-9.87347
-9.38236
-8.84826
-8.28119
-7.69212
-7.09221
-6.4921
-5.90131
-5.3279
-4.7783
-4.25738
-3.76854
-3.31394
-2.89466
-2.51089
-2.16207
-1.84707
-1.56433
-1.31195
-1.08787
-0.889896
-0.715821
-0.563473
-0.430757
-0.315679
-0.216368
-0.131079
-0.0581964
0.00376151
0.0561487
0.100192
0.136994
0.167536
0.192687
0.213204
0.229746
0.242884
0.253107
0.260835
0.266429
0.270196
0.272398
0.27326
0.272973
0.271699
0.269576
0.266721
0.263235
0.259201
0.254691
0.249765
0.244474
0.23886
0.232959
0.226802
0.220414
0.213817
0.207027
0.200061
0.192931
0.185646
0.178217
0.17065
0.162952
0.155127
0.147179
0.139113
0.130931
0.122635
0.114227
0.105708
0.0970803
0.0883442
0.0794995
0.0705491
0.0614878
0.0523271
0.043043
0.0336864
0.0241494
0.0146582
0.00473438
-10.8397
-10.9113
-10.9877
-11.0673
-11.1481
-11.2269
-11.2996
-11.3607
-11.4043
-11.4234
-11.4115
-11.3615
-11.2675
-11.124
-10.9271
-10.6741
-10.3646
-9.99994
-9.58354
-9.12094
-8.61942
-8.08764
-7.53509
-6.97152
-6.40629
-5.84794
-5.30381
-4.77993
-4.28099
-3.81043
-3.3706
-2.96284
-2.58765
-2.24485
-1.93365
-1.65282
-1.40079
-1.17577
-0.97583
-0.798997
-0.64329
-0.506782
-0.38762
-0.284048
-0.194416
-0.11719
-0.0509494
0.00560831
0.05367
0.0943085
0.128485
0.157055
0.180769
0.200287
0.216182
0.22895
0.239021
0.246765
0.252499
0.256498
0.258996
0.260197
0.260273
0.259373
0.257625
0.255137
0.252002
0.248301
0.244101
0.239461
0.23443
0.22905
0.223357
0.217383
0.211154
0.204692
0.198015
0.191142
0.184085
0.176856
0.169466
0.161923
0.154235
0.146407
0.138447
0.130357
0.122141
0.113804
0.105347
0.0967734
0.0880847
0.0792815
0.0703677
0.0613384
0.0522072
0.0429477
0.0336169
0.0240968
0.0146346
0.00471377
-10.7467
-10.8062
-10.8681
-10.9312
-10.9932
-11.0515
-11.1021
-11.1404
-11.1613
-11.1589
-11.1275
-11.0613
-10.9549
-10.804
-10.6051
-10.3562
-10.0566
-9.70785
-9.31279
-8.87622
-8.40442
-7.90486
-7.38577
-6.85565
-6.32275
-5.7947
-5.27817
-4.77878
-4.30099
-3.84825
-3.42299
-3.02677
-2.66037
-2.32389
-2.01685
-1.73833
-1.48705
-1.2615
-1.05998
-0.880744
-0.721997
-0.581978
-0.458977
-0.351354
-0.257559
-0.176136
-0.105734
-0.0451013
0.00690462
0.0513248
0.0890973
0.121061
0.14796
0.170449
0.189105
0.204428
0.216854
0.226763
0.234483
0.240297
0.244453
0.247162
0.248608
0.248951
0.248327
0.246855
0.244637
0.24176
0.238301
0.234325
0.22989
0.225042
0.219825
0.214275
0.208422
0.202295
0.195916
0.189306
0.182481
0.175458
0.168249
0.160866
0.153318
0.145614
0.137762
0.129766
0.121634
0.113369
0.104976
0.096458
0.087818
0.0790574
0.0701813
0.0611849
0.0520838
0.0428497
0.0335452
0.024043
0.0146099
0.00469335
-10.6501
-10.6977
-10.7459
-10.7935
-10.8384
-10.8779
-10.9088
-10.9269
-10.9279
-10.9067
-10.8584
-10.7781
-10.6615
-10.5045
-10.3045
-10.0597
-9.76964
-9.43558
-9.0601
-8.64731
-8.20262
-7.73248
-7.24403
-6.74469
-6.24173
-5.74193
-5.25137
-4.77521
-4.31772
-3.88225
-3.4713
-3.08658
-2.72908
-2.39915
-2.09659
-1.82074
-1.5706
-1.34489
-1.14216
-0.960862