/*--------------------------------*- C++ -*----------------------------------*\
  =========                 |
  \\      /  F ield         | OpenFOAM: The Open Source CFD Toolbox
   \\    /   O peration     | Website:  https://openfoam.org
    \\  /    A nd           | Version:  10
     \\/     M anipulation  |
\*---------------------------------------------------------------------------*/
FoamFile
{
    format      ascii;
    class       surfaceScalarField;
    location    "0.025";
    object      phi;
}
// * * * * * * * * * * * * * * * * * * * * * * * * * * * * * * * * * * * * * //

dimensions      [0 3 -1 0 0 0 0];

internalField   nonuniform List<scalar> 
13452
(
6.05783e-05
-3.0979e-07
6.0376e-05
2.02293e-07
5.9911e-05
4.64976e-07
5.93066e-05
6.0435e-07
5.87132e-05
5.93402e-07
5.8191e-05
5.22206e-07
5.77428e-05
4.4826e-07
5.73584e-05
3.84332e-07
5.70268e-05
3.31626e-07
5.67381e-05
2.88747e-07
5.64846e-05
2.5349e-07
5.62607e-05
2.23873e-07
5.60623e-05
1.98395e-07
5.58863e-05
1.75966e-07
5.57305e-05
1.55807e-07
5.55932e-05
1.3736e-07
5.54729e-05
1.20222e-07
5.53688e-05
1.04102e-07
5.52801e-05
8.87859e-08
5.52059e-05
7.41171e-08
5.5146e-05
5.99908e-08
5.50996e-05
4.63556e-08
5.50663e-05
3.3256e-08
5.50455e-05
2.0811e-08
5.5036e-05
9.49394e-09
5.50352e-05
8.15128e-10
5.5041e-05
-5.74316e-09
5.50518e-05
-1.08693e-08
5.50662e-05
-1.43208e-08
5.50816e-05
-1.54123e-08
5.50643e-05
1.72901e-08
5.50333e-05
3.09727e-08
2.40902e-07
5.47924e-05
6.18031e-05
-1.22528e-07
6.17644e-05
2.41006e-07
6.1883e-05
3.46362e-07
6.20481e-05
4.3925e-07
6.21599e-05
4.81569e-07
6.21961e-05
4.86031e-07
6.21712e-05
4.73184e-07
6.2106e-05
4.49479e-07
6.20172e-05
4.20447e-07
6.1916e-05
3.89905e-07
6.18099e-05
3.59651e-07
6.17033e-05
3.30414e-07
6.15993e-05
3.0244e-07
6.14995e-05
2.75733e-07
6.14051e-05
2.50188e-07
6.13168e-05
2.25663e-07
6.1235e-05
2.02008e-07
6.11601e-05
1.79087e-07
6.10921e-05
1.56783e-07
6.10312e-05
1.34997e-07
6.09775e-05
1.13658e-07
6.09311e-05
9.27239e-08
6.08922e-05
7.2198e-08
6.08609e-05
5.21214e-08
6.08378e-05
3.25941e-08
6.08248e-05
1.3847e-08
6.08227e-05
-3.68722e-09
6.08316e-05
-1.97708e-08
6.08503e-05
-3.30359e-08
6.08816e-05
-4.66863e-08
6.09457e-05
-4.67855e-08
6.10561e-05
-7.94242e-08
-2.91129e-08
6.13261e-05
6.3662e-05
-2.30753e-08
6.37556e-05
1.47386e-07
6.38223e-05
2.79662e-07
6.38804e-05
3.81119e-07
6.39304e-05
4.31569e-07
6.39706e-05
4.45801e-07
6.40015e-05
4.42345e-07
6.40215e-05
4.29454e-07
6.40312e-05
4.10719e-07
6.40325e-05
3.88658e-07
6.40274e-05
3.64755e-07
6.40179e-05
3.39844e-07
6.4006e-05
3.14429e-07
6.39929e-05
2.88804e-07
6.39799e-05
2.63121e-07
6.39682e-05
2.37453e-07
6.39583e-05
2.11826e-07
6.39512e-05
1.86241e-07
6.39473e-05
1.6069e-07
6.39471e-05
1.3516e-07
6.39511e-05
1.09651e-07
6.39597e-05
8.41769e-08
6.39731e-05
5.87837e-08
6.39916e-05
3.35579e-08
6.40156e-05
8.64696e-09
6.40453e-05
-1.58758e-08
6.40813e-05
-3.96442e-08
6.4124e-05
-6.25231e-08
6.41736e-05
-8.26073e-08
6.42299e-05
-1.02995e-07
6.42938e-05
-1.10672e-07
6.43506e-05
-1.36227e-07
-1.10554e-07
6.4432e-05
6.5577e-05
-1.70323e-08
6.55579e-05
1.665e-07
6.55723e-05
2.65227e-07
6.56194e-05
3.34118e-07
6.56764e-05
3.74539e-07
6.57313e-05
3.90877e-07
6.57805e-05
3.9315e-07
6.58237e-05
3.86207e-07
6.58617e-05
3.72747e-07
6.58953e-05
3.55042e-07
6.59255e-05
3.34543e-07
6.59533e-05
3.12099e-07
6.59795e-05
2.88252e-07
6.60049e-05
2.63357e-07
6.60304e-05
2.37642e-07
6.60566e-05
2.11252e-07
6.60841e-05
1.84282e-07
6.61136e-05
1.56796e-07
6.61454e-05
1.2884e-07
6.61801e-05
1.00449e-07
6.62181e-05
7.16656e-08
6.62598e-05
4.25407e-08
6.63054e-05
1.31534e-08
6.63553e-05
-1.63896e-08
6.64099e-05
-4.59448e-08
6.64694e-05
-7.53868e-08
6.65341e-05
-1.04332e-07
6.66042e-05
-1.32621e-07
6.66804e-05
-1.58823e-07
6.67622e-05
-1.84716e-07
6.68549e-05
-2.03374e-07
6.69496e-05
-2.30964e-07
-2.33272e-07
6.70723e-05
6.74272e-05
1.25342e-08
6.74551e-05
1.38587e-07
6.74886e-05
2.31747e-07
6.75262e-05
2.96514e-07
6.75654e-05
3.3535e-07
6.76055e-05
3.50752e-07
6.76466e-05
3.52078e-07
6.7688e-05
3.44813e-07
6.77291e-05
3.31602e-07
6.77699e-05
3.14322e-07
6.78102e-05
2.9416e-07
6.78505e-05
2.71814e-07
6.7891e-05
2.47738e-07
6.79322e-05
2.22241e-07
6.79743e-05
1.9553e-07
6.80178e-05
1.67746e-07
6.80631e-05
1.38989e-07
6.81105e-05
1.09333e-07
6.81605e-05
7.88364e-08
6.82134e-05
4.75513e-08
6.82696e-05
1.55343e-08
6.83293e-05
-1.71483e-08
6.83928e-05
-5.04114e-08
6.84606e-05
-8.41453e-08
6.85328e-05
-1.1819e-07
6.86098e-05
-1.52391e-07
6.86919e-05
-1.86397e-07
6.87793e-05
-2.20016e-07
6.88726e-05
-2.52176e-07
6.89717e-05
-2.83741e-07
6.90788e-05
-3.10555e-07
6.9188e-05
-3.40085e-07
-3.54214e-07
6.93089e-05
6.93779e-05
1.86166e-08
6.93903e-05
1.26209e-07
6.94136e-05
2.08517e-07
6.94466e-05
2.63472e-07
6.94853e-05
2.9669e-07
6.95257e-05
3.10301e-07
6.95668e-05
3.11007e-07
6.96083e-05
3.03326e-07
6.96502e-05
2.89632e-07
6.96929e-05
2.71671e-07
6.97364e-05
2.50613e-07
6.97811e-05
2.27157e-07
6.98271e-05
2.0175e-07
6.98746e-05
1.74686e-07
6.9924e-05
1.46157e-07
6.99755e-05
1.16295e-07
7.00293e-05
8.51908e-08
7.00857e-05
5.29133e-08
7.0145e-05
1.9518e-08
7.02075e-05
-1.4944e-08
7.02734e-05
-5.04188e-08
7.03431e-05
-8.6842e-08
7.04169e-05
-1.2413e-07
7.04949e-05
-1.62177e-07
7.05775e-05
-2.00833e-07
7.06651e-05
-2.39937e-07
7.07579e-05
-2.79184e-07
7.08562e-05
-3.18356e-07
7.09607e-05
-3.56684e-07
7.10714e-05
-3.94445e-07
7.11901e-05
-4.292e-07
7.13141e-05
-4.6409e-07
-4.89808e-07
7.14497e-05
7.13604e-05
2.45568e-08
7.1375e-05
1.11567e-07
7.14012e-05
1.82384e-07
7.14341e-05
2.30535e-07
7.14707e-05
2.60056e-07
7.15088e-05
2.72222e-07
7.15479e-05
2.71905e-07
7.15881e-05
2.63135e-07
7.16295e-05
2.48248e-07
7.16722e-05
2.2892e-07
7.17166e-05
2.06294e-07
7.17626e-05
1.81073e-07
7.18107e-05
1.53701e-07
7.18609e-05
1.24472e-07
7.19135e-05
9.35759e-08
7.19687e-05
6.11383e-08
7.20266e-05
2.72443e-08
7.20876e-05
-8.04447e-09
7.21518e-05
-4.46801e-08
7.22194e-05
-8.26188e-08
7.22908e-05
-1.21814e-07
7.23662e-05
-1.6221e-07
7.24458e-05
-2.03734e-07
7.25299e-05
-2.46294e-07
7.26188e-05
-2.89761e-07
7.27129e-05
-3.33991e-07
7.28124e-05
-3.78735e-07
7.29179e-05
-4.2379e-07
7.30298e-05
-4.68618e-07
7.31486e-05
-5.13217e-07
7.32755e-05
-5.5616e-07
7.34101e-05
-5.98597e-07
-6.35877e-07
7.35561e-05
7.34044e-05
2.54005e-08
7.34181e-05
9.78742e-08
7.34418e-05
1.58663e-07
7.34723e-05
2.00105e-07
7.35072e-05
2.25098e-07
7.35446e-05
2.34889e-07
7.35834e-05
2.33072e-07
7.36235e-05
2.23002e-07
7.3665e-05
2.06782e-07
7.3708e-05
1.85932e-07
7.37527e-05
1.61542e-07
7.37995e-05
1.34315e-07
7.38485e-05
1.04711e-07
7.38999e-05
7.30335e-08
7.3954e-05
3.94812e-08
7.4011e-05
4.18327e-09
7.4071e-05
-3.27755e-08
7.41343e-05
-7.13361e-08
7.42011e-05
-1.11456e-07
7.42715e-05
-1.53098e-07
7.4346e-05
-1.96225e-07
7.44245e-05
-2.40794e-07
7.45075e-05
-2.86747e-07
7.45953e-05
-3.34013e-07
7.4688e-05
-3.82493e-07
7.47861e-05
-4.32071e-07
7.48899e-05
-4.82569e-07
7.49999e-05
-5.33826e-07
7.51168e-05
-5.85496e-07
7.52411e-05
-6.37501e-07
7.5374e-05
-6.89067e-07
7.5516e-05
-7.4061e-07
-7.90012e-07
7.56702e-05
7.55033e-05
2.45602e-08
7.55164e-05
8.48096e-08
7.55391e-05
1.3591e-07
7.55684e-05
1.70796e-07
7.56023e-05
1.91275e-07
7.56387e-05
1.98415e-07
7.5677e-05
1.94803e-07
7.57168e-05
1.83167e-07
7.57582e-05
1.65381e-07
7.58013e-05
1.42828e-07
7.58464e-05
1.16526e-07
7.58935e-05
8.71649e-08
7.5943e-05
5.52016e-08
7.59951e-05
2.09457e-08
7.605e-05
-1.53982e-08
7.61079e-05
-5.36961e-08
7.61689e-05
-9.38608e-08
7.62334e-05
-1.35834e-07
7.63016e-05
-1.79577e-07
7.63735e-05
-2.25059e-07
7.64496e-05
-2.72252e-07
7.65299e-05
-3.21126e-07
7.66148e-05
-3.71643e-07
7.67045e-05
-4.23755e-07
7.67994e-05
-4.77397e-07
7.68999e-05
-5.32496e-07
7.70062e-05
-5.88942e-07
7.7119e-05
-6.46641e-07
7.7239e-05
-7.05411e-07
7.73667e-05
-7.65218e-07
7.75033e-05
-8.25738e-07
7.765e-05
-8.87228e-07
-9.48964e-07
7.78089e-05
7.76618e-05
2.237e-08
7.76744e-05
7.21705e-08
7.7696e-05
1.14358e-07
7.77238e-05
1.4295e-07
7.77562e-05
1.58841e-07
7.77917e-05
1.62929e-07
7.78294e-05
1.5712e-07
7.7869e-05
1.43613e-07
7.79103e-05
1.24041e-07
7.79535e-05
9.96341e-08
7.79987e-05
7.13203e-08
7.80461e-05
3.97499e-08
7.8096e-05
5.36871e-09
7.81484e-05
-3.15175e-08
7.82037e-05
-7.07025e-08
7.82621e-05
-1.1205e-07
7.83237e-05
-1.55472e-07
7.83888e-05
-2.0091e-07
7.84575e-05
-2.4833e-07
7.85302e-05
-2.97706e-07
7.86069e-05
-3.49021e-07
7.86881e-05
-4.02258e-07
7.87738e-05
-4.574e-07
7.88645e-05
-5.14425e-07
7.89604e-05
-5.73304e-07
7.90619e-05
-6.34009e-07
7.91695e-05
-6.96502e-07
7.92836e-05
-7.60762e-07
7.94049e-05
-8.26751e-07
7.95342e-05
-8.94529e-07
7.96726e-05
-9.64087e-07
7.98211e-05
-1.03575e-06
-1.10955e-06
7.99817e-05
7.98812e-05
1.94654e-08
7.98934e-05
6.00224e-08
7.99138e-05
9.39321e-08
7.99404e-05
1.16377e-07
7.99716e-05
1.27631e-07
8.00061e-05
1.28409e-07
8.00431e-05
1.20119e-07
8.00822e-05
1.04499e-07
8.01233e-05
8.29447e-08
8.01664e-05
5.65359e-08
8.02116e-05
2.61063e-08
8.02591e-05
-7.74065e-09
8.03091e-05
-4.45816e-08
8.03617e-05
-8.41215e-08
8.04171e-05
-1.26159e-07
8.04756e-05
-1.70558e-07
8.05374e-05
-2.17234e-07
8.06026e-05
-2.66132e-07
8.06715e-05
-3.17219e-07
8.07443e-05
-3.70479e-07
8.08212e-05
-4.25905e-07
8.09024e-05
-4.83494e-07
8.09882e-05
-5.43248e-07
8.1079e-05
-6.05172e-07
8.1175e-05
-6.69276e-07
8.12765e-05
-7.35575e-07
8.13841e-05
-8.04095e-07
8.14983e-05
-8.74891e-07
8.16195e-05
-9.48041e-07
8.17487e-05
-1.02371e-06
8.18867e-05
-1.1021e-06
8.20346e-05
-1.18366e-06
-1.2688e-06
8.21939e-05
8.21637e-05
1.61813e-08
8.21754e-05
4.83264e-08
8.21948e-05
7.45349e-08
8.22202e-05
9.10155e-08
8.22502e-05
9.76373e-08
8.22837e-05
9.49219e-08
8.23199e-05
8.39092e-08
8.23584e-05
6.59587e-08
8.23991e-05
4.22448e-08
8.24419e-05
1.37022e-08
8.2487e-05
-1.89315e-08
8.25344e-05
-5.51076e-08
8.25842e-05
-9.44326e-08
8.26367e-05
-1.36628e-07
8.26921e-05
-1.81503e-07
8.27504e-05
-2.28927e-07
8.2812e-05
-2.78818e-07
8.2877e-05
-3.31126e-07
8.29456e-05
-3.85826e-07
8.3018e-05
-4.42907e-07
8.30945e-05
-5.02374e-07
8.31752e-05
-5.64239e-07
8.32605e-05
-6.28522e-07
8.33506e-05
-6.95255e-07
8.34458e-05
-7.64479e-07
8.35465e-05
-8.36253e-07
8.36531e-05
-9.10657e-07
8.3766e-05
-9.87811e-07
8.38858e-05
-1.06788e-06
8.40132e-05
-1.15112e-06
8.4149e-05
-1.23786e-06
8.42939e-05
-1.32864e-06
-1.42401e-06
8.44492e-05
8.45112e-05
1.27383e-08
8.45225e-05
3.70907e-08
8.45409e-05
5.61026e-08
8.45651e-05
6.67992e-08
8.45939e-05
6.88108e-08
8.46264e-05
6.24781e-08
8.46617e-05
4.85617e-08
8.46996e-05
2.81118e-08
8.47397e-05
2.0974e-09
8.47821e-05
-2.8684e-08
8.48268e-05
-6.359e-08
8.48738e-05
-1.0213e-07
8.49233e-05
-1.43946e-07
8.49754e-05
-1.88781e-07
8.50304e-05
-2.36455e-07
8.50883e-05
-2.86849e-07
8.51494e-05
-3.39886e-07
8.52138e-05
-3.95522e-07
8.52817e-05
-4.53739e-07
8.53533e-05
-5.14534e-07
8.54289e-05
-5.77921e-07
8.55086e-05
-6.43927e-07
8.55926e-05
-7.1259e-07
8.56813e-05
-7.83962e-07
8.5775e-05
-8.58113e-07
8.58739e-05
-9.35136e-07
8.59783e-05
-1.01516e-06
8.60889e-05
-1.09834e-06
8.62059e-05
-1.18491e-06
8.633e-05
-1.27517e-06
8.64616e-05
-1.36954e-06
8.66016e-05
-1.46857e-06
-1.57284e-06
8.67504e-05
8.69256e-05
9.27002e-09
8.69364e-05
2.63157e-08
8.69539e-05
3.85699e-08
8.69771e-05
4.3671e-08
8.70048e-05
4.11218e-08
8.70361e-05
3.11025e-08
8.70705e-05
1.41546e-08
8.71076e-05
-8.92297e-09
8.7147e-05
-3.73458e-08
8.71888e-05
-7.04441e-08
8.72329e-05
-1.07667e-07
8.72793e-05
-1.48585e-07
8.73282e-05
-1.92877e-07
8.73798e-05
-2.40311e-07
8.7434e-05
-2.90723e-07
8.74912e-05
-3.44005e-07
8.75514e-05
-4.00088e-07
8.76148e-05
-4.58935e-07
8.76816e-05
-5.20533e-07
8.7752e-05
-5.8489e-07
8.78261e-05
-6.52027e-07
8.79041e-05
-7.21982e-07
8.79863e-05
-7.94808e-07
8.8073e-05
-8.70575e-07
8.81642e-05
-9.49373e-07
8.82604e-05
-1.03132e-06
8.83618e-05
-1.11657e-06
8.84688e-05
-1.20531e-06
8.85817e-05
-1.2978e-06
8.87009e-05
-1.39438e-06
8.88268e-05
-1.49546e-06
8.89598e-05
-1.60158e-06
-1.71325e-06
8.91002e-05
8.9409e-05
5.85672e-09
8.94193e-05
1.60041e-08
8.94359e-05
2.18878e-08
8.9458e-05
2.15893e-08
8.94846e-05
1.45513e-08
8.95149e-05
8.19138e-10
8.95483e-05
-1.92405e-08
8.95844e-05
-4.50329e-08
8.9623e-05
-7.59361e-08
8.96639e-05
-1.11399e-07
8.97072e-05
-1.50957e-07
8.97529e-05
-1.94241e-07
8.9801e-05
-2.40969e-07
8.98516e-05
-2.90937e-07
8.99049e-05
-3.43999e-07
8.99609e-05
-4.00057e-07
9.00199e-05
-4.59054e-07
9.00819e-05
-5.20958e-07
9.01471e-05
-5.85765e-07
9.02157e-05
-6.53486e-07
9.02879e-05
-7.24152e-07
9.03637e-05
-7.97808e-07
9.04434e-05
-8.74517e-07
9.05272e-05
-9.5436e-07
9.06152e-05
-1.03744e-06
9.07078e-05
-1.12389e-06
9.08051e-05
-1.21386e-06
9.09074e-05
-1.30758e-06
9.10149e-05
-1.40529e-06
9.11278e-05
-1.50732e-06
9.12464e-05
-1.61406e-06
9.13708e-05
-1.72599e-06
-1.84351e-06
9.15011e-05
9.19632e-05
2.54521e-09
9.1973e-05
6.15736e-09
9.19889e-05
6.01841e-09
9.201e-05
5.22773e-10
9.20354e-05
-1.09091e-08
9.20646e-05
-2.8341e-08
9.20969e-05
-5.1548e-08
9.21319e-05
-8.01017e-08
9.21695e-05
-1.13522e-07
9.22095e-05
-1.51364e-07
9.22518e-05
-1.93247e-07
9.22964e-05
-2.38857e-07
9.23434e-05
-2.87956e-07
9.23928e-05
-3.40365e-07
9.24448e-05
-3.95958e-07
9.24994e-05
-4.54651e-07
9.25567e-05
-5.16394e-07
9.26169e-05
-5.81166e-07
9.26801e-05
-6.48965e-07
9.27464e-05
-7.19808e-07
9.2816e-05
-7.93731e-07
9.2889e-05
-8.70783e-07
9.29655e-05
-9.51031e-07
9.30457e-05
-1.03456e-06
9.31298e-05
-1.12148e-06
9.32178e-05
-1.21192e-06
9.331e-05
-1.30604e-06
9.34064e-05
-1.40404e-06
9.35073e-05
-1.50615e-06
9.36126e-05
-1.61268e-06
9.37225e-05
-1.72394e-06
9.38369e-05
-1.84035e-06
-1.96217e-06
9.39555e-05
9.45903e-05
-6.37752e-10
9.45997e-05
-3.22356e-09
9.46148e-05
-9.06439e-09
9.46349e-05
-1.95481e-08
9.46592e-05
-3.52559e-08
9.46872e-05
-5.63391e-08
9.47184e-05
-8.26883e-08
9.47523e-05
-1.1401e-07
9.47887e-05
-1.49948e-07
9.48275e-05
-1.90152e-07
9.48686e-05
-2.34317e-07
9.49119e-05
-2.82186e-07
9.49575e-05
-3.33558e-07
9.50054e-05
-3.88285e-07
9.50557e-05
-4.4626e-07
9.51085e-05
-5.07412e-07
9.51638e-05
-5.71701e-07
9.52217e-05
-6.3911e-07
9.52824e-05
-7.09643e-07
9.53459e-05
-7.8332e-07
9.54124e-05
-8.60177e-07
9.54818e-05
-9.40265e-07
9.55545e-05
-1.02365e-06
9.56303e-05
-1.11041e-06
9.57095e-05
-1.20065e-06
9.57921e-05
-1.2945e-06
9.58781e-05
-1.39209e-06
9.59677e-05
-1.4936e-06
9.60608e-05
-1.59924e-06
9.61573e-05
-1.70924e-06
9.62573e-05
-1.82386e-06
9.63603e-05
-1.94341e-06
-2.06801e-06
9.64662e-05
9.72926e-05
-3.67729e-09
9.73015e-05
-1.21372e-08
9.73158e-05
-2.33766e-08
9.73349e-05
-3.8631e-08
9.73581e-05
-5.84754e-08
9.73849e-05
-8.31289e-08
9.74148e-05
-1.12576e-07
9.74474e-05
-1.46636e-07
9.74825e-05
-1.85053e-07
9.75199e-05
-2.27568e-07
9.75595e-05
-2.7394e-07
9.76013e-05
-3.23967e-07
9.76452e-05
-3.77487e-07
9.76913e-05
-4.34377e-07
9.77396e-05
-4.9455e-07
9.77902e-05
-5.5795e-07
9.7843e-05
-6.24545e-07
9.78982e-05
-6.94323e-07
9.79559e-05
-7.6729e-07
9.8016e-05
-8.43467e-07
9.80787e-05
-9.22887e-07
9.81441e-05
-1.0056e-06
9.82121e-05
-1.09166e-06
9.82828e-05
-1.18114e-06
9.83563e-05
-1.27413e-06
9.84325e-05
-1.37073e-06
9.85115e-05
-1.47106e-06
9.85931e-05
-1.57527e-06
9.86774e-05
-1.6835e-06
9.87641e-05
-1.79592e-06
9.88529e-05
-1.91272e-06
9.89436e-05
-2.0341e-06
-2.16006e-06
9.90357e-05
0.000100072
-6.56447e-09
0.00010008
-2.05812e-08
0.000100094
-3.69251e-08
0.000100112
-5.67238e-08
0.000100134
-8.05439e-08
0.00010016
-1.08656e-07
0.000100188
-1.41121e-07
0.000100219
-1.7785e-07
0.000100253
-2.18675e-07
0.000100289
-2.63412e-07
0.000100327
-3.11884e-07
0.000100367
-3.63936e-07
0.000100409
-4.19441e-07
0.000100453
-4.78306e-07
0.000100499
-5.40461e-07
0.000100546
-6.05863e-07
0.000100596
-6.74487e-07
0.000100648
-7.46325e-07
0.000100703
-8.21383e-07
0.000100759
-8.99681e-07
0.000100817
-9.81246e-07
0.000100878
-1.06612e-06
0.00010094
-1.15434e-06
0.000101005
-1.24597e-06
0.000101072
-1.34108e-06
0.000101141
-1.43975e-06
0.000101212
-1.54205e-06
0.000101285
-1.64808e-06
0.000101359
-1.75795e-06
0.000101435
-1.87175e-06
0.000101512
-1.98958e-06
0.000101589
-2.11155e-06
-2.23754e-06
0.000101667
0.000102931
-9.29385e-09
0.000102939
-2.85512e-08
0.000102952
-4.97086e-08
0.000102969
-7.38151e-08
0.00010299
-1.01429e-07
0.000103014
-1.32858e-07
0.000103041
-1.68227e-07
0.000103071
-2.07519e-07
0.000103102
-2.50643e-07
0.000103137
-2.9748e-07
0.000103173
-3.47908e-07
0.00010321
-4.01817e-07
0.00010325
-4.59114e-07
0.000103292
-5.1973e-07
0.000103335
-5.83615e-07
0.00010338
-6.50735e-07
0.000103426
-7.21072e-07
0.000103474
-7.94622e-07
0.000103524
-8.71389e-07
0.000103576
-9.51387e-07
0.00010363
-1.03463e-06
0.000103685
-1.12116e-06
0.000103741
-1.21099e-06
0.000103799
-1.30417e-06
0.000103859
-1.40073e-06
0.00010392
-1.50073e-06
0.000103982
-1.60419e-06
0.000104045
-1.71118e-06
0.000104109
-1.82173e-06
0.000104173
-1.93588e-06
0.000104237
-2.05364e-06
0.000104301
-2.17503e-06
-2.29985e-06
0.000104363
0.000105871
-1.18613e-08
0.000105879
-3.60407e-08
0.000105891
-6.17187e-08
0.000105907
-8.98854e-08
0.000105927
-1.2109e-07
0.000105949
-1.55668e-07
0.000105975
-1.93793e-07
0.000106003
-2.35508e-07
0.000106033
-2.80786e-07
0.000106065
-3.29565e-07
0.000106099
-3.8177e-07
0.000106134
-4.37333e-07
0.000106172
-4.96192e-07
0.00010621
-5.58301e-07
0.00010625
-6.23626e-07
0.000106292
-6.92145e-07
0.000106334
-7.63844e-07
0.000106378
-8.3872e-07
0.000106424
-9.16775e-07
0.00010647
-9.98012e-07
0.000106518
-1.08244e-06
0.000106567
-1.17008e-06
0.000106617
-1.26093e-06
0.000106668
-1.35501e-06
0.00010672
-1.45233e-06
0.000106772
-1.5529e-06
0.000106824
-1.65672e-06
0.000106877
-1.76379e-06
0.000106929
-1.8741e-06
0.000106981
-1.98761e-06
0.000107032
-2.10427e-06
0.000107081
-2.224e-06
-2.34655e-06
0.000107127
0.000108896
-1.42628e-08
0.000108903
-4.30405e-08
0.000108914
-7.29409e-08
0.000108929
-1.04907e-07
0.000108947
-1.39479e-07
0.000108969
-1.77011e-07
0.000108993
-2.17714e-07
0.000109019
-2.61679e-07
0.000109047
-3.08931e-07
0.000109077
-3.59457e-07
0.000109108
-4.13226e-07
0.000109141
-4.70204e-07
0.000109175
-5.30361e-07
0.000109211
-5.93669e-07
0.000109247
-6.60111e-07
0.000109285
-7.29673e-07
0.000109323
-8.02347e-07
0.000109363
-8.78127e-07
0.000109403
-9.57011e-07
0.000109444
-1.039e-06
0.000109486
-1.12408e-06
0.000109528
-1.21225e-06
0.00010957
-1.3035e-06
0.000109613
-1.39782e-06
0.000109656
-1.49519e-06
0.000109699
-1.59557e-06
0.000109741
-1.69894e-06
0.000109782
-1.80524e-06
0.000109823
-1.91441e-06
0.000109861
-2.02635e-06
0.000109898
-2.14094e-06
0.000109932
-2.25806e-06
-2.37737e-06
0.000109963
0.000112007
-1.64943e-08
0.000112013
-4.9539e-08
0.000112024
-8.33562e-08
0.000112038
-1.1885e-07
0.000112055
-1.56548e-07
0.000112074
-1.96814e-07
0.000112097
-2.39886e-07
0.000112121
-2.85895e-07
0.000112147
-3.34907e-07
0.000112174
-3.8695e-07
0.000112203
-4.42034e-07
0.000112233
-5.00154e-07
0.000112264
-5.61307e-07
0.000112296
-6.25486e-07
0.000112328
-6.92686e-07
0.000112362
-7.62902e-07
0.000112395
-8.36129e-07
0.00011243
-9.12359e-07
0.000112464
-9.91584e-07
0.000112499
-1.07379e-06
0.000112534
-1.15896e-06
0.000112569
-1.24707e-06
0.000112603
-1.33808e-06
0.000112637
-1.43197e-06
0.000112671
-1.52867e-06
0.000112703
-1.62812e-06
0.000112735
-1.73025e-06
0.000112765
-1.83496e-06
0.000112792
-1.94213e-06
0.000112818
-2.05163e-06
0.00011284
-2.16329e-06
0.000112859
-2.27692e-06
-2.39217e-06
0.000112874
0.000115207
-1.85501e-08
0.000115213
-5.55204e-08
0.000115222
-9.2938e-08
0.000115235
-1.31673e-07
0.000115251
-1.72236e-07
0.000115269
-2.14995e-07
0.000115289
-2.60203e-07
0.000115311
-3.0802e-07
0.000115335
-3.58546e-07
0.00011536
-4.11846e-07
0.000115386
-4.67961e-07
0.000115412
-5.26916e-07
0.00011544
-5.88732e-07
0.000115468
-6.53419e-07
0.000115496
-7.20985e-07
0.000115525
-7.91432e-07
0.000115553
-8.64759e-07
0.000115582
-9.40955e-07
0.00011561
-1.02e-06
0.000115638
-1.10188e-06
0.000115666
-1.18656e-06
0.000115693
-1.27399e-06
0.000115719
-1.36413e-06
0.000115744
-1.45689e-06
0.000115767
-1.55221e-06
0.000115789
-1.64999e-06
0.000115809
-1.75012e-06
0.000115827
-1.85246e-06
0.000115841
-1.95685e-06
0.000115853
-2.06312e-06
0.000115861
-2.17107e-06
0.000115864
-2.28046e-06
-2.3909e-06
0.000115863
0.000118498
-2.04258e-08
0.000118503
-6.097e-08
0.000118512
-1.01664e-07
0.000118524
-1.43346e-07
0.000118538
-1.86501e-07
0.000118554
-2.31489e-07
0.000118573
-2.78571e-07
0.000118593
-3.27929e-07
0.000118614
-3.79691e-07
0.000118636
-4.3395e-07
0.000118659
-4.90777e-07
0.000118682
-5.50225e-07
0.000118706
-6.12335e-07
0.000118729
-6.77134e-07
0.000118753
-7.44644e-07
0.000118776
-8.14872e-07
0.000118799
-8.87818e-07
0.000118822
-9.63471e-07
0.000118844
-1.04181e-06
0.000118865
-1.1228e-06
0.000118885
-1.20639e-06
0.000118903
-1.29252e-06
0.00011892
-1.38112e-06
0.000118935
-1.4721e-06
0.000118948
-1.56535e-06
0.000118959
-1.66074e-06
0.000118967
-1.75814e-06
0.000118972
-1.85738e-06
0.000118974
-1.95827e-06
0.000118971
-2.0606e-06
0.000118964
-2.16413e-06
0.000118952
-2.26862e-06
-2.37366e-06
0.000118935
0.000121883
-2.21074e-08
0.000121888
-6.58527e-08
0.000121896
-1.09482e-07
0.000121906
-1.53801e-07
0.000121919
-1.99263e-07
0.000121934
-2.46207e-07
0.00012195
-2.94891e-07
0.000121968
-3.45508e-07
0.000121986
-3.98206e-07
0.000122005
-4.53102e-07
0.000122025
-5.10296e-07
0.000122044
-5.69864e-07
0.000122064
-6.31868e-07
0.000122083
-6.96353e-07
0.000122102
-7.63352e-07
0.00012212
-8.3288e-07
0.000122137
-9.04939e-07
0.000122153
-9.79516e-07
0.000122168
-1.05658e-06
0.000122181
-1.1361e-06
0.000122193
-1.21799e-06
0.000122202
-1.3022e-06
0.00012221
-1.38863e-06
0.000122215
-1.47716e-06
0.000122217
-1.56767e-06
0.000122216
-1.66e-06
0.000122212
-1.754e-06
0.000122204
-1.84946e-06
0.000122192
-1.94619e-06
0.000122176
-2.04394e-06
0.000122154
-2.14246e-06
0.000122127
-2.24149e-06
-2.34063e-06
0.000122094
0.000125365
-2.36061e-08
0.000125369
-7.01795e-08
0.000125376
-1.16409e-07
0.000125385
-1.63059e-07
0.000125397
-2.10529e-07
0.00012541
-2.59125e-07
0.000125424
-3.09097e-07
0.000125439
-3.60646e-07
0.000125455
-4.13936e-07
0.000125471
-4.69109e-07
0.000125487
-5.26287e-07
0.000125502
-5.85571e-07
0.000125518
-6.47042e-07
0.000125532
-7.10763e-07
0.000125545
-7.76775e-07
0.000125558
-8.45104e-07
0.000125568
-9.15754e-07
0.000125578
-9.88711e-07
0.000125585
-1.06394e-06
0.00012559
-1.14139e-06
0.000125593
-1.221e-06
0.000125594
-1.30267e-06
0.000125591
-1.38629e-06
0.000125586
-1.47173e-06
0.000125577
-1.55886e-06
0.000125565
-1.6475e-06
0.000125548
-1.73746e-06
0.000125527
-1.82854e-06
0.000125502
-1.92051e-06
0.000125471
-2.01313e-06
0.000125434
-2.10613e-06
0.000125392
-2.19923e-06
-2.29206e-06
0.000125344
0.000128946
-2.48345e-08
0.00012895
-7.37859e-08
0.000128956
-1.22242e-07
0.000128964
-1.70928e-07
0.000128973
-2.20155e-07
0.000128984
-2.70158e-07
0.000128996
-3.21157e-07
0.000129009
-3.7334e-07
0.000129022
-4.26887e-07
0.000129035
-4.81963e-07
0.000129047
-5.38717e-07
0.000129059
-5.97277e-07
0.00012907
-6.57749e-07
0.000129079
-7.20212e-07
0.000129087
-7.84724e-07
0.000129093
-8.5132e-07
0.000129098
-9.20007e-07
0.0001291
-9.90775e-07
0.000129099
-1.06359e-06
0.000129096
-1.13838e-06
0.00012909
-1.21509e-06
0.000129081
-1.2936e-06
0.000129069
-1.37381e-06
0.000129053
-1.45555e-06
0.000129032
-1.53869e-06
0.000129008
-1.62303e-06
0.000128979
-1.70839e-06
0.000128945
-1.79453e-06
0.000128906
-1.88123e-06
0.000128861
-1.96823e-06
0.00012881
-2.05527e-06
0.000128753
-2.14208e-06
-2.22828e-06
0.000128689
0.00013263
-2.60102e-08
0.000132633
-7.6968e-08
0.000132638
-1.27304e-07
0.000132645
-1.77666e-07
0.000132653
-2.2826e-07
0.000132662
-2.79273e-07
0.000132672
-3.30902e-07
0.000132682
-3.83328e-07
0.000132692
-4.36737e-07
0.000132701
-4.91312e-07
0.00013271
-5.47223e-07
0.000132717
-6.04622e-07
0.000132723
-6.63635e-07
0.000132727
-7.24361e-07
0.000132729
-7.86872e-07
0.000132729
-8.51213e-07
0.000132727
-9.17399e-07
0.000132721
-9.85421e-07
0.000132713
-1.05524e-06
0.000132701
-1.12681e-06
0.000132686
-1.20003e-06
0.000132668
-1.2748e-06
0.000132645
-1.351e-06
0.000132618
-1.42847e-06
0.000132586
-1.50705e-06
0.00013255
-1.58655e-06
0.000132508
-1.66677e-06
0.000132461
-1.74748e-06
0.000132408
-1.82845e-06
0.000132349
-1.90943e-06
0.000132284
-1.99015e-06
0.000132212
-2.07036e-06
-2.1497e-06
0.000132134
0.000136419
-2.63367e-08
0.00013642
-7.86557e-08
0.000136424
-1.30628e-07
0.000136429
-1.82707e-07
0.000136435
-2.34748e-07
0.000136443
-2.86756e-07
0.000136451
-3.38857e-07
0.000136458
-3.91234e-07
0.000136466
-4.44109e-07
0.000136472
-4.97713e-07
0.000136477
-5.52263e-07
0.000136481
-6.07948e-07
0.000136482
-6.64929e-07
0.000136481
-7.23333e-07
0.000136477
-7.83249e-07
0.000136471
-8.44736e-07
0.000136461
-9.0782e-07
0.000136448
-9.72495e-07
0.000136432
-1.03873e-06
0.000136411
-1.10646e-06
0.000136387
-1.17561e-06
0.000136358
-1.24606e-06
0.000136325
-1.31768e-06
0.000136287
-1.39033e-06
0.000136244
-1.46383e-06
0.000136195
-1.53798e-06
0.000136141
-1.6126e-06
0.000136081
-1.68745e-06
0.000136015
-1.7623e-06
0.000135942
-1.83692e-06
0.000135863
-1.91104e-06
0.000135777
-1.98442e-06
-2.05675e-06
0.000135684
0.000140317
-2.80152e-08
0.00014032
-8.10771e-08
0.000140323
-1.33815e-07
0.000140327
-1.86597e-07
0.000140331
-2.39215e-07
0.000140336
-2.91578e-07
0.000140341
-3.43697e-07
0.000140346
-3.95674e-07
0.000140349
-4.47705e-07
0.000140351
-5.00026e-07
0.000140352
-5.52879e-07
0.000140351
-6.06483e-07
0.000140347
-6.61029e-07
0.00014034
-7.16668e-07
0.00014033
-7.73517e-07
0.000140317
-8.31651e-07
0.0001403
-8.9111e-07
0.00014028
-9.51901e-07
0.000140255
-1.014e-06
0.000140226
-1.07735e-06
0.000140192
-1.14187e-06
0.000140154
-1.20745e-06
0.00014011
-1.27397e-06
0.000140061
-1.34127e-06
0.000140006
-1.40919e-06
0.000139946
-1.47755e-06
0.000139879
-1.54613e-06
0.000139807
-1.61473e-06
0.000139728
-1.68313e-06
0.000139642
-1.75109e-06
0.000139549
-1.81838e-06
0.000139449
-1.88476e-06
-1.94994e-06
0.000139343
0.000144321
-2.47087e-08
0.000144319
-7.84915e-08
0.000144319
-1.33723e-07
0.000144321
-1.89301e-07
0.000144326
-2.43803e-07
0.000144331
-2.96952e-07
0.000144336
-3.48878e-07
0.000144341
-3.9987e-07
0.000144343
-4.50283e-07
0.000144344
-5.00471e-07
0.000144342
-5.5076e-07
0.000144337
-6.01435e-07
0.000144328
-6.52733e-07
0.000144316
-7.04837e-07
0.000144301
-7.57884e-07
0.000144281
-8.11967e-07
0.000144257
-8.67136e-07
0.000144229
-9.23405e-07
0.000144195
-9.80756e-07
0.000144157
-1.03914e-06
0.000144114
-1.09847e-06
0.000144065
-1.15865e-06
0.000144011
-1.21956e-06
0.00014395
-1.28105e-06
0.000143884
-1.34296e-06
0.000143812
-1.40511e-06
0.000143733
-1.46731e-06
0.000143647
-1.52936e-06
0.000143555
-1.59104e-06
0.000143456
-1.65214e-06
0.00014335
-1.71245e-06
0.000143237
-1.77174e-06
-1.82976e-06
0.000143117
0.000148454
-3.12392e-08
0.000148457
-8.08696e-08
0.000148457
-1.33589e-07
0.000148455
-1.87871e-07
0.000148454
-2.4235e-07
0.000148453
-2.9588e-07
0.000148452
-3.47853e-07
0.00014845
-3.98277e-07
0.000148447
-4.47455e-07
0.000148443
-4.9577e-07
0.000148435
-5.43608e-07
0.000148425
-5.9132e-07
0.000148412
-6.39203e-07
0.000148394
-6.87496e-07
0.000148373
-7.36381e-07
0.000148347
-7.85986e-07
0.000148316
-8.36391e-07
0.00014828
-8.87633e-07
0.000148239
-9.39713e-07
0.000148193
-9.92595e-07
0.000148141
-1.04622e-06
0.000148082
-1.10049e-06
0.000148018
-1.15529e-06
0.000147948
-1.2105e-06
0.000147871
-1.26596e-06
0.000147787
-1.32151e-06
0.000147697
-1.37697e-06
0.0001476
-1.43215e-06
0.000147495
-1.48686e-06
0.000147384
-1.5409e-06
0.000147266
-1.59407e-06
0.00014714
-1.64618e-06
-1.69699e-06
0.000147007
0.000152673
-1.48076e-08
0.000152661
-6.92607e-08
0.000152659
-1.31416e-07
0.000152664
-1.92503e-07
0.000152671
-2.49668e-07
0.000152678
-3.02977e-07
0.000152683
-3.53081e-07
0.000152686
-4.00701e-07
0.000152685
-4.46461e-07
0.00015268
-4.90923e-07
0.000152671
-5.34587e-07
0.000152657
-5.77868e-07
0.000152639
-6.21095e-07
0.000152616
-6.64524e-07
0.000152588
-7.08344e-07
0.000152555
-7.52689e-07
0.000152516
-7.97644e-07
0.000152472
-8.43249e-07
0.000152422
-8.89511e-07
0.000152365
-9.36399e-07
0.000152303
-9.83859e-07
0.000152234
-1.03181e-06
0.000152159
-1.08015e-06
0.000152077
-1.12875e-06
0.000151989
-1.17748e-06
0.000151894
-1.22619e-06
0.000151791
-1.27472e-06
0.000151682
-1.32289e-06
0.000151566
-1.37054e-06
0.000151442
-1.41748e-06
0.000151312
-1.46354e-06
0.000151174
-1.50854e-06
-1.55227e-06
0.000151029
0.00015707
-3.289e-08
0.000157063
-6.27323e-08
0.000157047
-1.15752e-07
0.00015703
-1.75595e-07
0.000157018
-2.3702e-07
0.000157009
-2.94497e-07
0.000157003
-3.46823e-07
0.000156997
-3.94836e-07
0.00015699
-4.39509e-07
0.000156981
-4.81701e-07
0.000156969
-5.22154e-07
0.000156952
-5.61484e-07
0.000156931
-6.00177e-07
0.000156905
-6.38605e-07
0.000156874
-6.77046e-07
0.000156837
-7.15698e-07
0.000156794
-7.54695e-07
0.000156745
-7.94117e-07
0.000156689
-8.33997e-07
0.000156627
-8.74332e-07
0.000156559
-9.15087e-07
0.000156483
-9.56202e-07
0.0001564
-9.97591e-07
0.000156311
-1.03915e-06
0.000156214
-1.08076e-06
0.00015611
-1.12229e-06
0.000155999
-1.1636e-06
0.000155881
-1.20454e-06
0.000155755
-1.24495e-06
0.000155622
-1.28467e-06
0.000155482
-1.32355e-06
0.000155335
-1.36144e-06
-1.39815e-06
0.000155181
0.000161473
3.25877e-08
0.000161459
-4.8744e-08
0.000161475
-1.3207e-07
0.000161499
-1.99499e-07
0.00016152
-2.57572e-07
0.000161533
-3.07827e-07
0.000161539
-3.53191e-07
0.000161539
-3.94698e-07
0.000161533
-4.33162e-07
0.000161521
-4.69417e-07
0.000161503
-5.04143e-07
0.000161479
-5.37856e-07
0.00016145
-5.70955e-07
0.000161415
-6.03749e-07
0.000161374
-6.36468e-07
0.000161328
-6.69279e-07
0.000161276
-7.02298e-07
0.000161217
-7.35595e-07
0.000161152
-7.69203e-07
0.000161081
-8.03126e-07
0.000161003
-8.37338e-07
0.000160919
-8.71794e-07
0.000160828
-9.06424e-07
0.00016073
-9.41145e-07
0.000160625
-9.75859e-07
0.000160513
-1.01045e-06
0.000160394
-1.04481e-06
0.000160268
-1.07881e-06
0.000160136
-1.11231e-06
0.000159996
-1.14518e-06
0.00015985
-1.17729e-06
0.000159697
-1.2085e-06
-1.23866e-06
0.000159538
0.000166184
1.69295e-09
0.000166108
2.74727e-08
0.000166019
-4.25435e-08
0.000165957
-1.37954e-07
0.000165929
-2.29726e-07
0.000165921