/*--------------------------------*- C++ -*----------------------------------*\
  =========                 |
  \\      /  F ield         | OpenFOAM: The Open Source CFD Toolbox
   \\    /   O peration     | Website:  https://openfoam.org
    \\  /    A nd           | Version:  10
     \\/     M anipulation  |
\*---------------------------------------------------------------------------*/
FoamFile
{
    format      ascii;
    class       volVectorField;
    location    "0.025";
    object      U;
}
// * * * * * * * * * * * * * * * * * * * * * * * * * * * * * * * * * * * * * //

dimensions      [0 1 -1 0 0 0 0];

internalField   nonuniform List<vector> 
6820
(
(7.33662 -0.254737 0)
(7.37143 -0.152885 0)
(7.33005 -0.0595522 0)
(7.25426 -0.0118933 0)
(7.17826 0.00765271 0)
(7.11014 0.0135156 0)
(7.05118 0.0138696 0)
(7.0008 0.0123611 0)
(6.95755 0.010476 0)
(6.92004 0.00875754 0)
(6.88722 0.00734287 0)
(6.85831 0.00621667 0)
(6.83271 0.00532049 0)
(6.81 0.00459305 0)
(6.78986 0.00398286 0)
(6.77206 0.0034503 0)
(6.75641 0.00296612 0)
(6.74278 0.00250892 0)
(6.73106 0.00206323 0)
(6.72115 0.00161815 0)
(6.713 0.00116637 0)
(6.70654 0.000703846 0)
(6.7017 0.000233151 0)
(6.69843 -0.00024049 0)
(6.69662 -0.000686319 0)
(6.69611 -0.000997557 0)
(6.69641 -0.00111974 0)
(6.69749 -0.0012031 0)
(6.69894 -0.000941741 0)
(6.70117 -0.00162323 0)
(6.70165 0.00332227 0)
(6.69831 -0.00156211 0)
(6.69428 0.0145076 0)
(7.32389 0.121323 0)
(7.30451 0.123071 0)
(7.30928 0.0774823 0)
(7.32984 0.0521562 0)
(7.34849 0.0384265 0)
(7.35733 0.030469 0)
(7.35735 0.0258393 0)
(7.35147 0.022893 0)
(7.34199 0.0207741 0)
(7.33049 0.0190913 0)
(7.31807 0.017648 0)
(7.30538 0.0163424 0)
(7.29286 0.0151221 0)
(7.28076 0.0139584 0)
(7.26925 0.0128342 0)
(7.25842 0.0117375 0)
(7.24835 0.0106596 0)
(7.23907 0.009593 0)
(7.2306 0.00853153 0)
(7.22297 0.00746995 0)
(7.21619 0.00640446 0)
(7.21026 0.00533314 0)
(7.20521 0.00425844 0)
(7.20104 0.00318696 0)
(7.19779 0.00214089 0)
(7.19555 0.00118578 0)
(7.1947 0.000325517 0)
(7.19502 -0.000429642 0)
(7.19695 -0.00120195 0)
(7.19899 -0.00131447 0)
(7.20612 -0.00135938 0)
(7.21052 0.0020115 0)
(7.24042 0.0115911 0)
(7.32567 -0.0438685 0)
(7.3234 -0.0519967 0)
(7.33573 -0.026607 0)
(7.3442 -0.00336511 0)
(7.34988 0.00951921 0)
(7.355 0.0156911 0)
(7.35915 0.0184653 0)
(7.36207 0.0194329 0)
(7.36375 0.0194321 0)
(7.36432 0.0189322 0)
(7.36404 0.0181768 0)
(7.36315 0.0172891 0)
(7.36187 0.0163315 0)
(7.3604 0.0153334 0)
(7.35887 0.0143066 0)
(7.35742 0.0132535 0)
(7.35615 0.0121723 0)
(7.35516 0.0110595 0)
(7.35451 0.00991042 0)
(7.35426 0.008721 0)
(7.35446 0.0074877 0)
(7.35517 0.0062082 0)
(7.35642 0.00488176 0)
(7.35825 0.00351056 0)
(7.36069 0.00209625 0)
(7.36375 0.000629824 0)
(7.36752 -0.000861817 0)
(7.37199 -0.00236359 0)
(7.37739 -0.00364894 0)
(7.38323 -0.00521388 0)
(7.3907 -0.00544406 0)
(7.39666 -0.00960424 0)
(7.40648 -0.00994586 0)
(7.3334 0.011664 0)
(7.33061 0.0324952 0)
(7.33022 0.0327195 0)
(7.33378 0.0266894 0)
(7.34003 0.02296 0)
(7.3466 0.0211261 0)
(7.35248 0.0201803 0)
(7.35762 0.0195372 0)
(7.36215 0.0189355 0)
(7.36613 0.0182889 0)
(7.36967 0.017568 0)
(7.37289 0.0167627 0)
(7.37588 0.0158726 0)
(7.37874 0.0149005 0)
(7.38157 0.0138489 0)
(7.38444 0.0127198 0)
(7.38743 0.0115139 0)
(7.3906 0.0102311 0)
(7.39401 0.00887042 0)
(7.39771 0.0074307 0)
(7.40177 0.0059109 0)
(7.4062 0.00431078 0)
(7.41107 0.00263224 0)
(7.4164 0.000879262 0)
(7.42224 -0.000939718 0)
(7.4286 -0.00281234 0)
(7.43554 -0.00471383 0)
(7.44304 -0.00663233 0)
(7.45126 -0.00846972 0)
(7.45996 -0.0103412 0)
(7.46988 -0.0116472 0)
(7.47995 -0.013581 0)
(7.49262 -0.0121441 0)
(7.33122 -0.00367282 0)
(7.33022 -0.00477196 0)
(7.33423 0.000331063 0)
(7.33849 0.00741486 0)
(7.34262 0.0124004 0)
(7.34694 0.014976 0)
(7.35137 0.0161378 0)
(7.35586 0.0165295 0)
(7.36036 0.0164531 0)
(7.36481 0.0160752 0)
(7.36921 0.015487 0)
(7.37359 0.0147365 0)
(7.37797 0.0138515 0)
(7.3824 0.012848 0)
(7.38691 0.0117346 0)
(7.39155 0.0105152 0)
(7.39637 0.00919117 0)
(7.4014 0.00776185 0)
(7.40668 0.0062257 0)
(7.41227 0.00458071 0)
(7.41818 0.00282521 0)
(7.42447 0.00095816 0)
(7.43115 -0.00101967 0)
(7.43828 -0.00310586 0)
(7.44588 -0.0052945 0)
(7.45398 -0.00758172 0)
(7.46262 -0.00994567 0)
(7.47181 -0.0123757 0)
(7.48164 -0.0147781 0)
(7.49203 -0.0172461 0)
(7.50333 -0.0193719 0)
(7.51493 -0.0220274 0)
(7.52776 -0.0234983 0)
(7.33266 0.00186196 0)
(7.33245 0.00931817 0)
(7.33455 0.0131098 0)
(7.33769 0.0144872 0)
(7.34152 0.0150636 0)
(7.34578 0.0152813 0)
(7.35011 0.0152974 0)
(7.35447 0.0151207 0)
(7.35888 0.0147416 0)
(7.36335 0.0141822 0)
(7.36789 0.0134658 0)
(7.37255 0.0126066 0)
(7.37733 0.0116134 0)
(7.38227 0.0104914 0)
(7.38738 0.00924261 0)
(7.3927 0.00786714 0)
(7.39826 0.00636354 0)
(7.40407 0.00472947 0)
(7.41018 0.00296201 0)
(7.41661 0.00105808 0)
(7.42338 -0.000985117 0)
(7.43054 -0.00316965 0)
(7.43811 -0.00549635 0)
(7.44612 -0.00796416 0)
(7.4546 -0.0105683 0)
(7.46358 -0.0133028 0)
(7.4731 -0.0161486 0)
(7.48318 -0.0190938 0)
(7.4939 -0.0220764 0)
(7.50523 -0.0251312 0)
(7.51738 -0.028025 0)
(7.53012 -0.0311012 0)
(7.54392 -0.0333294 0)
(7.3326 0.000564132 0)
(7.33264 0.00370477 0)
(7.3349 0.00673414 0)
(7.33814 0.00939454 0)
(7.34176 0.0113991 0)
(7.34563 0.0125401 0)
(7.34961 0.013002 0)
(7.35367 0.0129948 0)
(7.35786 0.0126481 0)
(7.36218 0.0120483 0)
(7.36664 0.0112483 0)
(7.37128 0.0102769 0)
(7.37611 0.00914933 0)
(7.38115 0.0078736 0)
(7.38643 0.00645255 0)
(7.39196 0.00488588 0)
(7.39776 0.00317122 0)
(7.40386 0.00130494 0)
(7.41029 -0.000717315 0)
(7.41705 -0.0029002 0)
(7.42419 -0.00524825 0)
(7.43172 -0.0077654 0)
(7.43967 -0.0104543 0)
(7.44807 -0.0133161 0)
(7.45695 -0.016349 0)
(7.46634 -0.0195496 0)
(7.47628 -0.0229053 0)
(7.48679 -0.0264067 0)
(7.49795 -0.0300118 0)
(7.50977 -0.0337288 0)
(7.52239 -0.0374204 0)
(7.53578 -0.0412211 0)
(7.55018 -0.0446259 0)
(7.33286 0.00106051 0)
(7.33322 0.00449636 0)
(7.33519 0.00744007 0)
(7.33803 0.00947105 0)
(7.34133 0.0107437 0)
(7.34498 0.0113558 0)
(7.3488 0.0114848 0)
(7.35275 0.0112622 0)
(7.35682 0.0107554 0)
(7.36103 0.0100124 0)
(7.36541 0.00906805 0)
(7.36997 0.00794326 0)
(7.37475 0.00664967 0)
(7.37976 0.00519296 0)
(7.38502 0.00357442 0)
(7.39056 0.00179231 0)
(7.3964 -0.000157096 0)
(7.40255 -0.00227887 0)
(7.40904 -0.00457892 0)
(7.41589 -0.00706355 0)
(7.42312 -0.00973901 0)
(7.43075 -0.0126112 0)
(7.43881 -0.015685 0)
(7.44733 -0.0189643 0)
(7.45633 -0.0224506 0)
(7.46585 -0.0261438 0)
(7.47593 -0.0300378 0)
(7.48659 -0.034127 0)
(7.49791 -0.0383875 0)
(7.50993 -0.0428196 0)
(7.52275 -0.0473488 0)
(7.53645 -0.052024 0)
(7.55118 -0.0566001 0)
(7.33293 0.00100338 0)
(7.3334 0.00366242 0)
(7.3352 0.00599772 0)
(7.33784 0.0077235 0)
(7.34094 0.00889517 0)
(7.34439 0.00950106 0)
(7.34803 0.00961939 0)
(7.35183 0.00935046 0)
(7.35577 0.00876485 0)
(7.35987 0.0079162 0)
(7.36414 0.00684296 0)
(7.36861 0.00556845 0)
(7.3733 0.0041056 0)
(7.37823 0.00246058 0)
(7.38341 0.00063468 0)
(7.38888 -0.00137422 0)
(7.39465 -0.00357055 0)
(7.40075 -0.00596039 0)
(7.40718 -0.0085509 0)
(7.41397 -0.0113498 0)
(7.42115 -0.0143652 0)
(7.42874 -0.0176051 0)
(7.43675 -0.0210768 0)
(7.44522 -0.0247872 0)
(7.45418 -0.0287417 0)
(7.46365 -0.0329446 0)
(7.47368 -0.0373968 0)
(7.48431 -0.0420995 0)
(7.49559 -0.0470445 0)
(7.5076 -0.0522359 0)
(7.52041 -0.0576437 0)
(7.53413 -0.0632961 0)
(7.5489 -0.069101 0)
(7.33299 0.00093868 0)
(7.33354 0.00318793 0)
(7.33519 0.00519386 0)
(7.33761 0.00665971 0)
(7.34049 0.00759319 0)
(7.34372 0.00800266 0)
(7.34719 0.00795837 0)
(7.35084 0.00754639 0)
(7.35466 0.00682627 0)
(7.35865 0.00584077 0)
(7.36282 0.00462074 0)
(7.36718 0.0031855 0)
(7.37177 0.00154578 0)
(7.37659 -0.000293627 0)
(7.38167 -0.00233241 0)
(7.38703 -0.00457357 0)
(7.39269 -0.00702255 0)
(7.39867 -0.00968649 0)
(7.40498 -0.0125738 0)
(7.41165 -0.0156938 0)
(7.41869 -0.0190563 0)
(7.42614 -0.0226714 0)
(7.43401 -0.0265493 0)
(7.44233 -0.0306999 0)
(7.45113 -0.0351327 0)
(7.46044 -0.0398571 0)
(7.4703 -0.0448809 0)
(7.48075 -0.0502135 0)
(7.49184 -0.0558605 0)
(7.50365 -0.0618362 0)
(7.51626 -0.0681435 0)
(7.52978 -0.0748174 0)
(7.5443 -0.0818532 0)
(7.33302 0.000834695 0)
(7.3336 0.00267722 0)
(7.33512 0.00430042 0)
(7.33734 0.00546762 0)
(7.34002 0.00617143 0)
(7.34306 0.00641584 0)
(7.34636 0.00624213 0)
(7.34986 0.00571047 0)
(7.35354 0.00486801 0)
(7.3574 0.00375064 0)
(7.36145 0.00238526 0)
(7.3657 0.000789153 0)
(7.37017 -0.00102818 0)
(7.37487 -0.00306294 0)
(7.37982 -0.00531567 0)
(7.38505 -0.00779027 0)
(7.39056 -0.0104931 0)
(7.39639 -0.0134324 0)
(7.40254 -0.0166179 0)
(7.40903 -0.0200605 0)
(7.41589 -0.0237717 0)
(7.42314 -0.0277639 0)
(7.4308 -0.0320498 0)
(7.4389 -0.0366428 0)
(7.44746 -0.0415566 0)
(7.45652 -0.0468056 0)
(7.46611 -0.0524048 0)
(7.47627 -0.0583714 0)
(7.48706 -0.064724 0)
(7.49853 -0.0714884 0)
(7.51077 -0.078692 0)
(7.52387 -0.0863849 0)
(7.53791 -0.0946116 0)
(7.33303 0.000709475 0)
(7.33361 0.00219339 0)
(7.33502 0.00348011 0)
(7.33707 0.00437807 0)
(7.33956 0.00486037 0)
(7.34242 0.0049245 0)
(7.34554 0.00459672 0)
(7.34888 0.00392211 0)
(7.35242 0.00293917 0)
(7.35615 0.00167734 0)
(7.36006 0.000158467 0)
(7.36418 -0.00160346 0)
(7.36852 -0.00360117 0)
(7.37308 -0.00583252 0)
(7.37789 -0.00829936 0)
(7.38296 -0.0110067 0)
(7.3883 -0.0139622 0)
(7.39395 -0.0171752 0)
(7.3999 -0.0206568 0)
(7.40619 -0.0244195 0)
(7.41283 -0.0284766 0)
(7.41984 -0.0328427 0)
(7.42724 -0.0375333 0)
(7.43505 -0.042565 0)
(7.44331 -0.0479554 0)
(7.45204 -0.053724 0)
(7.46128 -0.0598922 0)
(7.47106 -0.066485 0)
(7.48143 -0.0735311 0)
(7.49245 -0.0810677 0)
(7.50417 -0.0891393 0)
(7.51668 -0.0978099 0)
(7.53003 -0.107149 0)
(7.33304 0.000574569 0)
(7.3336 0.00172748 0)
(7.33491 0.00269557 0)
(7.3368 0.00332595 0)
(7.33912 0.00358327 0)
(7.3418 0.00346081 0)
(7.34475 0.00297339 0)
(7.34793 0.00215205 0)
(7.35132 0.00102565 0)
(7.3549 -0.000383097 0)
(7.35867 -0.00205718 0)
(7.36265 -0.00398579 0)
(7.36683 -0.00616384 0)
(7.37124 -0.00859079 0)
(7.37588 -0.0112699 0)
(7.38077 -0.0142073 0)
(7.38593 -0.0174119 0)
(7.39137 -0.0208943 0)
(7.3971 -0.024667 0)
(7.40315 -0.0287439 0)
(7.40953 -0.0331403 0)
(7.41626 -0.0378729 0)
(7.42335 -0.0429595 0)
(7.43084 -0.0484199 0)
(7.43875 -0.0542755 0)
(7.44709 -0.0605502 0)
(7.4559 -0.0672709 0)
(7.46522 -0.074469 0)
(7.47508 -0.0821816 0)
(7.48553 -0.0904541 0)
(7.4966 -0.0993427 0)
(7.50838 -0.10892 0)
(7.52087 -0.119266 0)
(7.33304 0.000436519 0)
(7.33358 0.00128053 0)
(7.33479 0.00195052 0)
(7.33654 0.00232389 0)
(7.3387 0.00236093 0)
(7.3412 0.00204995 0)
(7.34399 0.00139688 0)
(7.34701 0.000421762 0)
(7.35024 -0.000854565 0)
(7.35366 -0.0024152 0)
(7.35728 -0.0042476 0)
(7.3611 -0.00634421 0)
(7.36512 -0.00870227 0)
(7.36935 -0.0113231 0)
(7.37381 -0.0142113 0)
(7.37851 -0.0173746 0)
(7.38345 -0.0208228 0)
(7.38866 -0.0245681 0)
(7.39415 -0.0286241 0)
(7.39993 -0.0330063 0)
(7.40602 -0.0377316 0)
(7.41243 -0.0428187 0)
(7.41918 -0.0482879 0)
(7.4263 -0.0541613 0)
(7.43379 -0.0604636 0)
(7.44169 -0.0672225 0)
(7.45002 -0.0744692 0)
(7.4588 -0.0822401 0)
(7.46806 -0.0905778 0)
(7.47784 -0.0995333 0)
(7.48817 -0.109168 0)
(7.49909 -0.11956 0)
(7.51059 -0.130788 0)
(7.33304 0.000299398 0)
(7.33355 0.00085246 0)
(7.33467 0.00124148 0)
(7.33629 0.00136629 0)
(7.3383 0.00118599 0)
(7.34064 0.000684898 0)
(7.34326 -0.000137651 0)
(7.34612 -0.00127037 0)
(7.34919 -0.0026996 0)
(7.35245 -0.0044139 0)
(7.3559 -0.00640506 0)
(7.35955 -0.0086687 0)
(7.36339 -0.0112044 0)
(7.36743 -0.0140154 0)
(7.37169 -0.0171078 0)
(7.37617 -0.0204906 0)
(7.38088 -0.0241749 0)
(7.38584 -0.0281739 0)
(7.39106 -0.0325026 0)
(7.39654 -0.0371779 0)
(7.40231 -0.0422182 0)
(7.40837 -0.0476438 0)
(7.41474 -0.0534768 0)
(7.42144 -0.0597418 0)
(7.42848 -0.0664657 0)
(7.43588 -0.0736789 0)
(7.44366 -0.0814159 0)
(7.45184 -0.089716 0)
(7.46044 -0.098625 0)
(7.46947 -0.108196 0)
(7.47896 -0.118493 0)
(7.48892 -0.129591 0)
(7.49935 -0.141566 0)
(7.33304 0.000165591 0)
(7.33352 0.000443317 0)
(7.33455 0.000566834 0)
(7.33605 0.000452349 0)
(7.33792 5.9524e-05 0)
(7.34011 -0.000630608 0)
(7.34257 -0.00162396 0)
(7.34526 -0.00291627 0)
(7.34816 -0.00450002 0)
(7.35125 -0.0063687 0)
(7.35453 -0.00851799 0)
(7.35799 -0.0109466 0)
(7.36164 -0.0136564 0)
(7.36548 -0.0166524 0)
(7.36952 -0.0199422 0)
(7.37377 -0.0235362 0)
(7.37823 -0.0274466 0)
(7.38291 -0.0316877 0)
(7.38783 -0.0362758 0)
(7.39299 -0.0412288 0)
(7.3984 -0.0465663 0)
(7.40408 -0.0523099 0)
(7.41004 -0.0584833 0)
(7.41628 -0.0651125 0)
(7.42283 -0.0722263 0)
(7.42968 -0.0798567 0)
(7.43686 -0.0880396 0)
(7.44438 -0.0968159 0)
(7.45224 -0.106232 0)
(7.46046 -0.116341 0)
(7.46904 -0.127205 0)
(7.47798 -0.138894 0)
(7.48727 -0.151474 0)
(7.33304 3.6464e-05 0)
(7.33348 5.31032e-05 0)
(7.33444 -7.47481e-05 0)
(7.33582 -0.000419103 0)
(7.33756 -0.00101898 0)
(7.33959 -0.00189579 0)
(7.34189 -0.00305957 0)
(7.34442 -0.00451159 0)
(7.34715 -0.00624962 0)
(7.35007 -0.00827147 0)
(7.35316 -0.0105764 0)
(7.35643 -0.013166 0)
(7.35988 -0.0160444 0)
(7.3635 -0.0192182 0)
(7.36731 -0.0226968 0)
(7.3713 -0.0264915 0)
(7.37549 -0.0306157 0)
(7.37987 -0.0350847 0)
(7.38447 -0.0399156 0)
(7.38928 -0.0451273 0)
(7.39431 -0.0507405 0)
(7.39958 -0.0567775 0)
(7.40509 -0.063263 0)
(7.41084 -0.0702238 0)
(7.41684 -0.0776896 0)
(7.42311 -0.085693 0)
(7.42965 -0.0942703 0)
(7.43645 -0.103462 0)
(7.44353 -0.113313 0)
(7.45088 -0.123874 0)
(7.4585 -0.135203 0)
(7.46637 -0.147362 0)
(7.47447 -0.160407 0)
(7.33304 -8.71734e-05 0)
(7.33345 -0.000318139 0)
(7.33433 -0.000684116 0)
(7.33561 -0.00124859 0)
(7.33721 -0.00204903 0)
(7.3391 -0.00310854 0)
(7.34125 -0.00444041 0)
(7.34361 -0.00605034 0)
(7.34616 -0.00794052 0)
(7.3489 -0.0101126 0)
(7.3518 -0.012569 0)
(7.35487 -0.0153139 0)
(7.3581 -0.0183535 0)
(7.36149 -0.0216963 0)
(7.36505 -0.0253527 0)
(7.36877 -0.0293353 0)
(7.37266 -0.0336584 0)
(7.37673 -0.0383382 0)
(7.38098 -0.0433925 0)
(7.38542 -0.0488407 0)
(7.39005 -0.0547041 0)
(7.39487 -0.0610056 0)
(7.3999 -0.0677702 0)
(7.40512 -0.075025 0)
(7.41055 -0.0827994 0)
(7.4162 -0.0911257 0)
(7.42204 -0.100039 0)
(7.4281 -0.109579 0)
(7.43435 -0.119787 0)
(7.4408 -0.130709 0)
(7.44742 -0.142397 0)
(7.45419 -0.154906 0)
(7.46108 -0.168278 0)
(7.33303 -0.000204885 0)
(7.33341 -0.000670355 0)
(7.33423 -0.00126174 0)
(7.3354 -0.0020363 0)
(7.33688 -0.00302985 0)
(7.33863 -0.00426669 0)
(7.34062 -0.00576263 0)
(7.34281 -0.00752688 0)
(7.34519 -0.00956527 0)
(7.34774 -0.0118827 0)
(7.35044 -0.0144845 0)
(7.3533 -0.0173772 0)
(7.3563 -0.0205688 0)
(7.35945 -0.0240694 0)
(7.36274 -0.0278907 0)
(7.36617 -0.0320461 0)
(7.36976 -0.0365507 0)
(7.37349 -0.0414214 0)
(7.37738 -0.0466764 0)
(7.38142 -0.0523355 0)
(7.38561 -0.0584201 0)
(7.38997 -0.0649532 0)
(7.39448 -0.0719596 0)
(7.39915 -0.0794658 0)
(7.40398 -0.0875005 0)
(7.40897 -0.0960947 0)
(7.4141 -0.105282 0)
(7.41937 -0.115097 0)
(7.42477 -0.125579 0)
(7.43028 -0.13677 0)
(7.43588 -0.148711 0)
(7.44154 -0.16145 0)
(7.44722 -0.175019 0)
(7.33303 -0.000316436 0)
(7.33338 -0.00100344 0)
(7.33413 -0.00180773 0)
(7.3352 -0.00278187 0)
(7.33656 -0.00396017 0)
(7.33817 -0.0053676 0)
(7.34001 -0.00702189 0)
(7.34204 -0.00893501 0)
(7.34424 -0.0111158 0)
(7.34659 -0.0135718 0)
(7.34909 -0.016311 0)
(7.35172 -0.0193418 0)
(7.35448 -0.0226742 0)
(7.35737 -0.0263193 0)
(7.36039 -0.03029 0)
(7.36352 -0.0346005 0)
(7.36678 -0.0392666 0)
(7.37016 -0.0443055 0)
(7.37366 -0.0497355 0)
(7.37728 -0.0555766 0)
(7.38103 -0.0618498 0)
(7.38489 -0.0685779 0)
(7.38887 -0.0757847 0)
(7.39296 -0.0834959 0)
(7.39716 -0.0917385 0)
(7.40146 -0.100541 0)
(7.40585 -0.109935 0)
(7.41031 -0.119951 0)
(7.41484 -0.130624 0)
(7.4194 -0.141988 0)
(7.42397 -0.154079 0)
(7.42853 -0.166934 0)
(7.43302 -0.180574 0)
(7.33303 -0.00042163 0)
(7.33335 -0.00131716 0)
(7.33403 -0.00232187 0)
(7.33501 -0.00348468 0)
(7.33626 -0.00483846 0)
(7.33773 -0.00640851 0)
(7.33941 -0.00821396 0)
(7.34127 -0.0102689 0)
(7.34329 -0.0125844 0)
(7.34545 -0.0151707 0)
(7.34773 -0.0180374 0)
(7.35014 -0.021195 0)
(7.35265 -0.0246548 0)
(7.35527 -0.0284291 0)
(7.35799 -0.0325316 0)
(7.36081 -0.0369773 0)
(7.36373 -0.0417823 0)
(7.36674 -0.0469638 0)
(7.36984 -0.0525402 0)
(7.37303 -0.0585311 0)
(7.3763 -0.0649572 0)
(7.37965 -0.0718401 0)
(7.38307 -0.0792026 0)
(7.38656 -0.0870687 0)
(7.39011 -0.0954634 0)
(7.39371 -0.104413 0)
(7.39734 -0.113944 0)
(7.40099 -0.124084 0)
(7.40463 -0.134863 0)
(7.40824 -0.146307 0)
(7.4118 -0.158446 0)
(7.41525 -0.171307 0)
(7.41858 -0.184904 0)
(7.33303 -0.000520312 0)
(7.33332 -0.0016112 0)
(7.33393 -0.00280366 0)
(7.33483 -0.00414362 0)
(7.33596 -0.0056626 0)
(7.3373 -0.00738587 0)
(7.33883 -0.00933347 0)
(7.34052 -0.011521 0)
(7.34236 -0.0139617 0)
(7.34431 -0.0166672 0)
(7.34638 -0.0196493 0)
(7.34855 -0.0229198 0)
(7.35081 -0.0264911 0)
(7.35315 -0.0303768 0)
(7.35557 -0.0345911 0)
(7.35806 -0.0391493 0)
(7.36062 -0.0440678 0)
(7.36325 -0.0493637 0)
(7.36593 -0.0550552 0)
(7.36867 -0.0611611 0)
(7.37145 -0.0677012 0)
(7.37427 -0.074696 0)
(7.37713 -0.0821667 0)
(7.38001 -0.0901352 0)
(7.38289 -0.0986239 0)
(7.38578 -0.107656 0)
(7.38864 -0.117254 0)
(7.39146 -0.127442 0)
(7.39422 -0.138242 0)
(7.39689 -0.149677 0)
(7.39944 -0.161767 0)
(7.40183 -0.174533 0)
(7.40403 -0.187979 0)
(7.33302 -0.000612324 0)
(7.33328 -0.00188517 0)
(7.33384 -0.00325249 0)
(7.33465 -0.00475772 0)
(7.33567 -0.00643111 0)
(7.33688 -0.0082976 0)
(7.33826 -0.0103777 0)
(7.33978 -0.0126882 0)
(7.34143 -0.0152434 0)
(7.34318 -0.0180566 0)
(7.34503 -0.0211409 0)
(7.34696 -0.0245092 0)
(7.34895 -0.028175 0)
(7.35101 -0.0321524 0)
(7.35312 -0.0364564 0)
(7.35527 -0.0411024 0)
(7.35747 -0.0461067 0)
(7.3597 -0.0514863 0)
(7.36195 -0.0572586 0)
(7.36422 -0.0634417 0)
(7.36651 -0.0700543 0)
(7.36879 -0.0771152 0)
(7.37107 -0.0846438 0)
(7.37332 -0.0926596 0)
(7.37554 -0.101182 0)
(7.3777 -0.110231 0)
(7.3798 -0.119826 0)
(7.3818 -0.129984 0)
(7.38369 -0.140725 0)
(7.38543 -0.152063 0)
(7.387 -0.164013 0)
(7.38836 -0.176588 0)
(7.38948 -0.189785 0)
(7.33302 -0.000697472 0)
(7.33326 -0.00213844 0)
(7.33375 -0.00366707 0)
(7.33448 -0.00532453 0)
(7.33539 -0.00713958 0)
(7.33647 -0.00913654 0)
(7.3377 -0.0113361 0)
(7.33906 -0.0137556 0)
(7.34052 -0.0164107 0)
(7.34206 -0.0193158 0)
(7.34369 -0.022485 0)
(7.34537 -0.0259323 0)
(7.34709 -0.029672 0)
(7.34886 -0.0337187 0)
(7.35065 -0.0380875 0)
(7.35246 -0.0427941 0)
(7.35428 -0.0478544 0)
(7.3561 -0.0532849 0)
(7.35792 -0.0591021 0)
(7.35972 -0.0653232 0)
(7.3615 -0.0719653 0)
(7.36324 -0.0790455 0)
(7.36492 -0.086581 0)
(7.36655 -0.0945888 0)
(7.3681 -0.103085 0)
(7.36955 -0.112087 0)
(7.37088 -0.121609 0)
(7.37208 -0.131664 0)
(7.37311 -0.142267 0)
(7.37396 -0.153427 0)
(7.37458 -0.165152 0)
(7.37495 -0.177449 0)
(7.37503 -0.190311 0)
(7.33302 -0.00077557 0)
(7.33323 -0.00237067 0)
(7.33367 -0.00404756 0)
(7.33431 -0.00584558 0)
(7.33511 -0.00779202 0)
(7.33607 -0.00991013 0)
(7.33715 -0.01222 0)
(7.33834 -0.0147391 0)
(7.33962 -0.0174833 0)
(7.34096 -0.0204675 0)
(7.34235 -0.0237066 0)
(7.34378 -0.0272152 0)
(7.34524 -0.0310082 0)
(7.3467 -0.0351007 0)
(7.34817 -0.0395078 0)
(7.34963 -0.0442453 0)
(7.35107 -0.0493286 0)
(7.35249 -0.0547737 0)
(7.35386 -0.0605963 0)
(7.35519 -0.0668122 0)
(7.35645 -0.073437 0)
(7.35764 -0.0804861 0)
(7.35874 -0.0879742 0)
(7.35974 -0.0959159 0)
(7.36063 -0.104325 0)
(7.36137 -0.113213 0)
(7.36196 -0.122592 0)
(7.36237 -0.132472 0)
(7.36257 -0.142861 0)
(7.36254 -0.153764 0)
(7.36226 -0.165185 0)
(7.36169 -0.177124 0)
(7.3608 -0.189571 0)
(7.33302 -0.000846208 0)
(7.3332 -0.00257982 0)
(7.33358 -0.00438849 0)
(7.33414 -0.00630918 0)
(7.33484 -0.00836729 0)
(7.33567 -0.0105851 0)
(7.33661 -0.0129828 0)
(7.33764 -0.0155781 0)
(7.33873 -0.0183877 0)
(7.33986 -0.0214273 0)
(7.34103 -0.0247123 0)
(7.34221 -0.0282578 0)
(7.34339 -0.032079 0)
(7.34456 -0.036191 0)
(7.34571 -0.0406088 0)
(7.34681 -0.0453475 0)
(7.34787 -0.0504221 0)
(7.34887 -0.0558476 0)
(7.3498 -0.0616385 0)
(7.35065 -0.0678091 0)
(7.35141 -0.0743734 0)
(7.35205 -0.0813446 0)
(7.35257 -0.0887353 0)
(7.35296 -0.0965571 0)
(7.35318 -0.104821 0)
(7.35324 -0.113535 0)
(7.3531 -0.122709 0)
(7.35274 -0.132347 0)
(7.35214 -0.142454 0)
(7.35129 -0.153031 0)
(7.35014 -0.164077 0)
(7.34868 -0.175589 0)
(7.34689 -0.187551 0)
(7.33301 -0.000909536 0)
(7.33317 -0.00276911 0)
(7.3335 -0.00470188 0)
(7.33398 -0.00674344 0)
(7.33459 -0.00891605 0)
(7.3353 -0.0112385 0)
(7.3361 -0.013728 0)
(7.33696 -0.0164006 0)
(7.33787 -0.019272 0)
(7.3388 -0.0223579 0)
(7.33974 -0.0256741 0)
(7.34067 -0.0292363 0)
(7.34158 -0.0330604 0)
(7.34245 -0.0371617 0)
(7.34326 -0.0415558 0)
(7.34402 -0.0462575 0)
(7.34469 -0.0512816 0)
(7.34528 -0.0566422 0)
(7.34577 -0.0623531 0)
(7.34614 -0.0684272 0)
(7.34639 -0.0748768 0)
(7.3465 -0.0817133 0)
(7.34645 -0.088947 0)
(7.34623 -0.0965871 0)
(7.34581 -0.104641 0)
(7.3452 -0.113116 0)
(7.34435 -0.122016 0)
(7.34326 -0.131343 0)
(7.34191 -0.141099 0)
(7.34026 -0.15128 0)
(7.33831 -0.161882 0)
(7.33601 -0.172899 0)
(7.33337 -0.184313 0)
(7.33301 -0.000963254 0)
(7.33314 -0.00292292 0)
(7.33341 -0.00494392 0)
(7.3338 -0.00705997 0)
(7.3343 -0.00929328 0)
(7.33489 -0.0116643 0)
(7.33556 -0.0141921 0)
(7.33626 -0.0168937 0)
(7.337 -0.0197851 0)
(7.33774 -0.0228821 0)
(7.33846 -0.0261997 0)
(7.33915 -0.0297533 0)
(7.33979 -0.0335575 0)
(7.34037 -0.0376272 0)
(7.34087 -0.0419766 0)
(7.34128 -0.0466198 0)
(7.34158 -0.0515702 0)
(7.34176 -0.0568407 0)
(7.34181 -0.0624436 0)
(7.34172 -0.0683902 0)
(7.34147 -0.074691 0)
(7.34105 -0.0813554 0)
(7.34044 -0.0883915 0)
(7.33963 -0.0958062 0)
(7.33861 -0.103605 0)
(7.33734 -0.111791 0)
(7.33583 -0.120366 0)
(7.33404 -0.12933 0)
(7.33196 -0.13868 0)
(7.32957 -0.148412 0)
(7.32686 -0.158517 0)
(7.32379 -0.168988 0)
(7.32037 -0.179805 0)
(7.33301 -0.00101323 0)
(7.33312 -0.00308598 0)
(7.33335 -0.00523881 0)
(7.33368 -0.00749728 0)
(7.3341 -0.0098681 0)
(7.33458 -0.0123584 0)
(7.3351 -0.014979 0)
(7.33566 -0.0177434 0)
(7.33621 -0.0206677 0)
(7.33674 -0.0237688 0)
(7.33724 -0.0270646 0)
(7.33769 -0.0305724 0)
(7.33806 -0.0343094 0)
(7.33834 -0.0382918 0)
(7.33852 -0.0425351 0)
(7.33858 -0.0470539 0)
(7.33851 -0.0518618 0)
(7.33829 -0.0569712 0)
(7.33792 -0.0623937 0)
(7.33737 -0.0681395 0)
(7.33664 -0.0742177 0)
(7.33571 -0.0806358 0)
(7.33456 -0.0874001 0)
(7.33319 -0.0945152 0)
(7.33157 -0.101984 0)
(7.32969 -0.109808 0)
(7.32754 -0.117987 0)
(7.32509 -0.126517 0)
(7.32234 -0.135393 0)
(7.31926 -0.144609 0)
(7.31584 -0.154155 0)
(7.31206 -0.16402 0)
(7.30792 -0.174183 0)
(7.333 -0.00103467 0)
(7.33304 -0.0031065 0)
(7.33317 -0.00521822 0)
(7.3334 -0.00741486 0)
(7.33371 -0.00972214 0)
(7.33409 -0.0121594 0)
(7.33452 -0.0147408 0)
(7.33495 -0.0174775 0)
(7.33537 -0.0203802 0)
(7.33574 -0.0234607 0)
(7.33606 -0.0267317 0)
(7.33629 -0.030206 0)
(7.33641 -0.0338972 0)
(7.33643 -0.0378186 0)
(7.33631 -0.0419831 0)
(7.33604 -0.0464033 0)
(7.33561 -0.051091 0)
(7.33501 -0.0560571 0)
(7.33422 -0.0613116 0)
(7.33324 -0.0668633 0)
(7.33204 -0.0727197 0)
(7.33061 -0.0788867 0)
(7.32895 -0.0853692 0)
(7.32703 -0.09217 0)
(7.32485 -0.0992903 0)
(7.32239 -0.10673 0)
(7.31963 -0.114486 0)
(7.31657 -0.122554 0)
(7.31318 -0.130927 0)
(7.30946 -0.139598 0)
(7.30539 -0.148555 0)
(7.30096 -0.157786 0)
(7.29616 -0.167272 0)
(7.33303 -0.00111068 0)
(7.33314 -0.00343482 0)
(7.33329 -0.005884 0)
(7.33347 -0.00842433 0)
(7.33369 -0.0110169 0)
(7.33394 -0.013653 0)
(7.3342 -0.0163438 0)
(7.33444 -0.019109 0)
(7.33466 -0.0219725 0)
(7.33482 -0.0249589 0)
(7.3349 -0.0280921 0)
(7.33489 -0.031394 0)
(7.33475 -0.034885 0)
(7.33448 -0.0385831 0)
(7.33406 -0.0425045 0)
(7.33346 -0.0466635 0)
(7.33269 -0.0510727 0)
(7.33172 -0.0557429 0)
(7.33054 -0.0606833 0)
(7.32914 -0.0659018 0)
(7.3275 -0.0714041 0)
(7.32561 -0.0771949 0)
(7.32347 -0.0832769 0)
(7.32105 -0.0896511 0)
(7.31834 -0.0963168 0)
(7.31534 -0.103272 0)
(7.31203 -0.110511 0)
(7.3084 -0.118029 0)
(7.30443 -0.125818 0)
(7.30012 -0.133866 0)
(7.29547 -0.142164 0)
(7.29044 -0.150697 0)
(7.28506 -0.159445 0)
(7.33294 -0.000944267 0)
(7.33276 -0.00274299 0)
(7.33266 -0.00461369 0)
(7.33273 -0.00666811 0)
(7.33293 -0.00892574 0)
(7.3332 -0.0113725 0)
(7.33348 -0.0139858 0)
(7.33372 -0.0167488 0)
(7.3339 -0.0196541 0)
(7.33399 -0.0227016 0)
(7.33395 -0.0258966 0)
(7.33377 -0.029248 0)
(7.33344 -0.0327664 0)
(7.33293 -0.036464 0)
(7.33224 -0.0403529 0)
(7.33135 -0.0444447 0)
(7.33024 -0.0487505 0)
(7.32891 -0.0532804 0)
(7.32735 -0.0580429 0)
(7.32554 -0.0630453 0)
(7.32347 -0.0682936 0)
(7.32113 -0.0737918 0)
(7.31851 -0.0795425 0)
(7.3156 -0.0855464 0)
(7.3124 -0.0918026 0)
(7.30888 -0.0983082 0)
(7.30504 -0.105059 0)
(7.30087 -0.112048 0)
(7.29637 -0.119267 0)
(7.29152 -0.126706 0)
(7.28631 -0.134354 0)
(7.28075 -0.142198 0)
(7.27484 -0.150219 0)
(7.33313 -0.00144087 0)
(7.33342 -0.00453659 0)
(7.33347 -0.00773104 0)
(7.33341 -0.0107853 0)
(7.33332 -0.0136294 0)
(7.33326 -0.0163074 0)
(7.33321 -0.0188849 0)
(7.33316 -0.0214239 0)
(7.33306 -0.0239787 0)
(7.33288 -0.0265951 0)
(7.33259 -0.029311 0)
(7.33217 -0.0321573 0)
(7.3316 -0.0351586 0)
(7.33084 -0.0383351 0)
(7.32989 -0.0417028 0)
(7.32872 -0.0452748 0)
(7.32732 -0.0490618 0)
(7.32568 -0.0530719 0)
(7.32379 -0.0573116 0)
(7.32163 -0.0617855 0)
(7.31919 -0.0664966 0)
(7.31647 -0.0714462 0)
(7.31345 -0.0766339 0)
(7.31013 -0.082058 0)
(7.30648 -0.087715 0)
(7.30252 -0.0935999 0)
(7.29823 -0.0997061 0)
(7.2936 -0.106025 0)
(7.28863 -0.112548 0)
(7.28331 -0.119264 0)
(7.27764 -0.126159 0)
(7.27162 -0.133221 0)
(7.26525 -0.140432 0)
(7.33272 -7.0129e-05 0)
(7.33188 -0.000214193 0)
(7.33147 -0.00103857 0)
(7.33158 -0.00268688 0)
(7.33193 -0.00496085 0)
(7.3323 -0.00761825 0)
(7.33261 -0.0104963 0)
(7.33281 -0.0135077 0)
(7.33285 -0.0166066 0)
(7.33271 -0.0197723 0)
(7.33239 -0.0230007 0)
(7.33185 -0.0262983 0)
(7.3311 -0.0296769 0)
(7.33011 -0.033151 0)
(7.32889 -0.0367357 0)
(7.32742 -0.0404457 0)
(7.3257 -0.0442944 0)
(7.32371 -0.0482941 0)
(7.32144 -0.0524549 0)
(7.31889 -0.0567852 0)
(7.31604 -0.0612918 0)
(7.3129 -0.0659791 0)
(7.30945 -0.0708499 0)
(7.30569 -0.0759051 0)
(7.3016 -0.0811438 0)
(7.29719 -0.086563 0)
(7.29245 -0.0921583 0)
(7.28737 -0.0979236 0)
(7.28196 -0.103851 0)
(7.2762 -0.109932 0)
(7.27011 -0.116154 0)
(7.26367 -0.122508 0)
(7.25689 -0.128977 0)
(7.33341 -0.00253883 0)
(7.33391 -0.00847555 0)
(7.3333 -0.013737 0)
(7.33239 -0.0175956 0)
(7.33166 -0.020441 0)
(7.33119 -0.0226871 0)
(7.33087 -0.0245942 0)
(7.33061 -0.0263357 0)
(7.33032 -0.0280333 0)
(7.32996 -0.0297715 0)
(7.32946 -0.0316072 0)
(7.3288 -0.0335779 0)
(7.32794 -0.0357084 0)
(7.32685 -0.0380155 0)
(7.32552 -0.0405099 0)
(7.32393 -0.0431988 0)
(7.32207 -0.0460867 0)
(7.31992 -0.0491759 0)
(7.31748 -0.0524675 0)
(7.31474 -0.0559611 0)
(7.31169 -0.0596553 0)
(7.30832 -0.0635474 0)
(7.30463 -0.0676337 0)
(7.30062 -0.0719095 0)
(7.29627 -0.0763688 0)
(7.29159 -0.0810048 0)
(7.28657 -0.0858093 0)
(7.28122 -0.0907733 0)
(7.27552 -0.0958865 0)
(7.26949 -0.101138 0)
(7.26312 -0.106515 0)
(7.25642 -0.112006 0)
(7.24939 -0.117595 0)
(7.33183 0.00300079 0)
(7.32925 0.00812148 0)
(7.32934 0.00989507 0)
(7.33064 0.00845877 0)
(7.33177 0.00532 0)
(7.33253 0.00158196 0)
(7.33297 -0.00233558 0)
(7.33311 -0.00625442 0)
(7.33296 -0.01008 0)
(7.33254 -0.0137783 0)
(7.33185 -0.0173531 0)
(7.33091 -0.0208253 0)
(7.32971 -0.0242224 0)
(7.32826 -0.0275738 0)
(7.32655 -0.030908 0)
(7.32458 -0.0342511 0)
(7.32234 -0.0376264 0)
(7.31982 -0.041054 0)
(7.31703 -0.0445508 0)
(7.31394 -0.0481309 0)
(7.31056 -0.0518054 0)
(7.30689 -0.0555828 0)
(7.3029 -0.0594694 0)
(7.29861 -0.0634689 0)
(7.29401 -0.0675832 0)
(7.28909 -0.0718122 0)
(7.28386 -0.0761539 0)
(7.27831 -0.0806046 0)
(7.27245 -0.0851592 0)
(7.26627 -0.0898113 0)
(7.25979 -0.0945528 0)
(7.25299 -0.0993752 0)
(7.24591 -0.104266 0)
(7.33402 -0.00655069 0)
(7.33356 -0.0202628 0)
(7.32922 -0.0294525 0)
(7.32526 -0.0335772 0)
(7.32334 -0.0351016 0)
(7.32275 -0.0355679 0)
(7.32269 -0.0355468 0)
(7.32283 -0.0353726 0)
(7.32302 -0.0352617 0)
(7.32316 -0.0353254 0)
(7.32316 -0.0356152 0)
(7.32296 -0.0361527 0)
(7.32254 -0.0369432 0)
(7.32186 -0.0379827 0)
(7.32091 -0.0392628 0)
(7.31968 -0.0407733 0)
(7.31816 -0.0425037 0)
(7.31634 -0.0444437 0)
(7.31421 -0.0465834 0)
(7.31176 -0.0489135 0)
(7.309 -0.0514251 0)
(7.30592 -0.0541098 0)
(7.30252 -0.056959 0)
(7.2988 -0.0599643 0)
(7.29476 -0.0631169 0)
(7.2904 -0.0664079 0)
(7.28572 -0.069828 0)
(7.28073 -0.0733675 0)
(7.27544 -0.0770163 0)
(7.26984 -0.0807637 0)
(7.26394 -0.0845988 0)
(7.25776 -0.0885106 0)
(7.2513 -0.0924857 0)
(7.32968 0.0196813 0)
(7.3249 0.0364708 0)
(7.32907 0.0370058 0)
(7.33417 0.0312939 0)
(7.33657 0.0243559 0)
(7.33762 0.0174022 0)
(7.3383 0.0107859 0)
(7.33878 0.00471453 0)
(7.33912 -0.000763659 0)
(7.33939 -0.00569404 0)
(7.33958 -0.0101479 0)
(7.3397 -0.0142003 0)
(7.33971 -0.0179238 0)
(7.3396 -0.0213851 0)
(7.33934 -0.0246427 0)
(7.33891 -0.027747 0)
(7.33829 -0.030741 0)
(7.33747 -0.0336611 0)
(7.33643 -0.0365378 0)
(7.33516 -0.0393964 0)
(7.33365 -0.0422581 0)
(7.3319 -0.0451399 0)
(7.32991 -0.0480557 0)
(7.32767 -0.0510163 0)
(7.32518 -0.0540299 0)
(7.32245 -0.0571024 0)
(7.31947 -0.0602374 0)
(7.31626 -0.0634368 0)
(7.31281 -0.0667006 0)
(7.30913 -0.0700272 0)
(7.30523 -0.0734141 0)
(7.30111 -0.0768568 0)
(7.29679 -0.0803508 0)
(7.32503 -0.0333132 0)
(7.29721 -0.0595119 0)
(7.27732 -0.0631148 0)
(7.27299 -0.061604 0)
(7.27986 -0.0587702 0)
(7.29141 -0.0552766 0)
(7.30465 -0.0518857 0)
(7.31829 -0.0489654 0)
(7.3316 -0.04658 0)
(7.34415 -0.044724 0)
(7.35579 -0.043369 0)
(7.36646 -0.0424692 0)
(7.37617 -0.0419753 0)
(7.38495 -0.0418416 0)
(7.39285 -0.0420276 0)
(7.39993 -0.0424985 0)
(7.40623 -0.043225 0)
(7.41182 -0.0441824 0)
(7.41672 -0.0453499 0)
(7.42098 -0.04671 0)
(7.42464 -0.0482475 0)
(7.42772 -0.0499493 0)
(7.43024 -0.0518036 0)
(7.43223 -0.0537995 0)
(7.4337 -0.0559265 0)
(7.43467 -0.0581745 0)
(7.43514 -0.0605334 0)
(7.43511 -0.0629926 0)
(7.4346 -0.0655416 0)
(7.43361 -0.0681686 0)
(7.43213 -0.0708627 0)
(7.43016 -0.0736097 0)
(7.42771 -0.0763995 0)
(7.33915 0.134655 0)