/*--------------------------------*- C++ -*----------------------------------*\
  =========                 |
  \\      /  F ield         | OpenFOAM: The Open Source CFD Toolbox
   \\    /   O peration     | Website:  https://openfoam.org
    \\  /    A nd           | Version:  10
     \\/     M anipulation  |
\*---------------------------------------------------------------------------*/
FoamFile
{
    format      ascii;
    class       volScalarField;
    location    "0.13";
    object      k;
}
// * * * * * * * * * * * * * * * * * * * * * * * * * * * * * * * * * * * * * //

dimensions      [0 2 -2 0 0 0 0];

internalField   nonuniform List<scalar> 
6820
(
0.198343
0.194802
0.191198
0.187566
0.183954
0.180389
0.176882
0.173435
0.170051
0.166727
0.163463
0.160254
0.157097
0.153988
0.150921
0.147888
0.144884
0.141897
0.138918
0.135934
0.132928
0.129884
0.126779
0.123586
0.120275
0.116806
0.113136
0.109207
0.104958
0.100299
0.0951657
0.089424
0.0826673
0.200926
0.200913
0.2005
0.200065
0.19963
0.199186
0.198728
0.198252
0.197758
0.197246
0.196718
0.196176
0.195623
0.195061
0.194493
0.193921
0.193349
0.192777
0.192209
0.191645
0.191086
0.190532
0.189981
0.189429
0.188869
0.18829
0.187676
0.186999
0.186225
0.185294
0.184164
0.182613
0.180986
0.236719
0.0167547
0.00417505
0.00934411
0.00754853
0.00795354
0.00971917
0.0117549
0.0139543
0.0162584
0.018632
0.0210587
0.0235285
0.0260358
0.0285785
0.0311576
0.033777
0.0364436
0.0391671
0.0419608
0.044841
0.0478281
0.0509468
0.0542261
0.0577002
0.061408
0.0653933
0.0697031
0.074387
0.0794918
0.0850558
0.0911201
0.097617
0.210775
0.147974
0.104943
0.0796187
0.0639765
0.0533823
0.045568
0.0394315
0.0344023
0.0301599
0.0265109
0.0233319
0.0205402
0.0180798
0.0159115
0.0140088
0.0123531
0.0109317
0.00973489
0.00875401
0.0079802
0.00740427
0.00701758
0.00681404
0.00679255
0.00695947
0.00733119
0.00793697
0.00882158
0.0100528
0.0117052
0.0139222
0.0166999
0.223503
0.082412
0.0206955
0.00391382
0.000575008
0.000388244
0.000743191
0.0010885
0.00137056
0.00161018
0.00182167
0.00200928
0.00217264
0.00231012
0.00242021
0.00250208
0.00255472
0.00257906
0.00257558
0.00254474
0.00248723
0.00240363
0.00229425
0.0021592
0.00199845
0.00181189
0.00159966
0.00136243
0.00110615
0.000820011
0.000605195
9.76399e-05
0.000341787
0.217366
0.113467
0.0519336
0.0284264
0.0195234
0.0152547
0.0122585
0.0095492
0.00695957
0.00464782
0.00282541
0.00157583
0.000822911
0.000414859
0.000219602
3.49886e-05
0.000292755
0.000447143
0.000439508
0.000432635
0.000451866
0.000480316
0.000515001
0.000551137
0.000574123
0.000571617
0.000543372
0.000494967
0.000428944
0.000343173
0.000186641
0.000114085
0.00023337
0.213346
0.133849
0.0651987
0.0320976
0.0185193
0.0129099
0.0103519
0.00904159
0.00830709
0.00788696
0.00763451
0.00743406
0.00724499
0.00705944
0.006877
0.00668977
0.00649766
0.00628738
0.00605772
0.0058168
0.0055718
0.00532817
0.00508995
0.00485898
0.0046351
0.00441725
0.00420444
0.00399558
0.0037892
0.00358321
0.00337311
0.00316808
0.00296533
0.203716
0.181974
0.127227
0.0679376
0.0335433
0.0181363
0.011607
0.00870216
0.0073122
0.0066656
0.00642989
0.00632627
0.00625231
0.00618958
0.0061434
0.00611219
0.00608478
0.00605654
0.00602726
0.00599706
0.00596571
0.00593181
0.005894
0.00585202
0.00580641
0.00575738
0.00570422
0.00564542
0.00557939
0.00550493
0.00542155
0.00532733
0.00522068
0.202243
0.18914
0.163717
0.120155
0.0748524
0.0434369
0.0256995
0.016419
0.0116028
0.0092602
0.00842219
0.00803217
0.00770828
0.00741921
0.00719887
0.0070334
0.00688835
0.00675112
0.00662811
0.00652262
0.00642994
0.00634357
0.00626203
0.00618823
0.00612453
0.00607001
0.00602137
0.00597563
0.00593162
0.00588979
0.00585093
0.00581501
0.00578088
0.201533
0.192647
0.17919
0.157728
0.122954
0.0840009
0.0528153
0.0326097
0.0210273
0.0153279
0.0132465
0.0122515
0.0114837
0.0108453
0.0103738
0.0100277
0.0097384
0.00947794
0.00924982
0.00905522
0.00888433
0.00872565
0.00857489
0.00843334
0.0083019
0.00817817
0.00805797
0.00793816
0.00781796
0.00769827
0.00758043
0.00746473
0.00735095
0.201052
0.195013
0.186103
0.174454
0.156857
0.131756
0.102331
0.074738
0.0536991
0.0411631
0.0353486
0.031652
0.028724
0.0263807
0.0245716
0.0231563
0.0219984
0.0210202
0.0201901
0.0194827
0.0188697
0.0183258
0.0178335
0.0173808
0.0169584
0.0165583
0.0161734
0.0157982
0.0154288
0.0150622
0.0146963
0.0143289
0.0139593
0.200745
0.196507
0.190497
0.18344
0.174141
0.16089
0.142953
0.12218
0.102714
0.0882781
0.0788555
0.0714987
0.065449
0.0604887
0.0564092
0.0530209
0.0501882
0.047784
0.0457267
0.0439489
0.0423942
0.0410172
0.0397807
0.0386525
0.0376043
0.0366158
0.0356727
0.0347641
0.0338819
0.0330186
0.0321685
0.0313253
0.0304854
0.20054
0.197499
0.193305
0.188705
0.183334
0.176619
0.168004
0.157339
0.145644
0.134656
0.125319
0.117067
0.109603
0.102952
0.0971322
0.0920686
0.0877175
0.0839913
0.0808001
0.078053
0.0756682
0.0735741
0.0717007
0.0699836
0.0683789
0.0668611
0.0654145
0.0640267
0.0626861
0.0613811
0.0601023
0.0588398
0.0575857
0.200404
0.198147
0.195116
0.19202
0.188772
0.185104
0.180673
0.175187
0.168746
0.161881
0.155106
0.148643
0.142354
0.13641
0.13097
0.126076
0.121733
0.117908
0.114543
0.111577
0.108946
0.106596
0.104468
0.10251
0.100684
0.098964
0.0973309
0.0957703
0.0942699
0.092817
0.0914026
0.0900163
0.0886446
0.200314
0.198576
0.196294
0.194104
0.192014
0.189875
0.187463
0.184518
0.180901
0.176678
0.171996
0.167024
0.161837
0.156656
0.151697
0.147106
0.142953
0.139247
0.135962
0.133053
0.13047
0.128161
0.12608
0.124187
0.122448
0.120834
0.119326
0.117906
0.11656
0.115276
0.114046
0.11286
0.1117
0.200255
0.198857
0.197054
0.19541
0.193965
0.192604
0.191133
0.189325
0.187019
0.18418
0.180784
0.176924
0.172761
0.168499
0.164325
0.16037
0.156713
0.153381
0.15037
0.147656
0.145208
0.14299
0.14097
0.13912
0.137413
0.13583
0.134354
0.132971
0.13167
0.130442
0.129281
0.12818
0.127118
0.200217
0.199034
0.197528
0.1962
0.195095
0.194111
0.193079
0.191809
0.190119
0.187909
0.185135
0.181868
0.17826
0.174491
0.170732
0.167114
0.163721
0.160595
0.157745
0.155159
0.152816
0.150688
0.148749
0.146972
0.145337
0.143825
0.142421
0.141112
0.139889
0.138741
0.137664
0.136654
0.135686
0.200195
0.199138
0.197798
0.196628
0.195672
0.194832
0.193956
0.192866
0.191403
0.18947
0.18705
0.184211
0.181079
0.177802
0.174518
0.171334
0.168319
0.165513
0.162925
0.160551
0.158375
0.156378
0.154539
0.152838
0.151258
0.149786
0.148409
0.147118
0.145908
0.144765
0.143683
0.142668
0.141702
0.200184
0.199184
0.19791
0.196776
0.195828
0.194977
0.194088
0.193004
0.19159
0.189768
0.187529
0.184935
0.182089
0.179117
0.176133
0.17323
0.170468
0.167883
0.165488
0.163281
0.16125
0.159379
0.15765
0.156047
0.154556
0.153163
0.151857
0.150633
0.149476
0.148359
0.147269
0.146237
0.14529
0.200184
0.199184
0.197889
0.196699
0.195662
0.1947
0.193695
0.192513
0.191046
0.18924
0.187099
0.184681
0.182078
0.179391
0.176711
0.17411
0.171634
0.16931
0.167146
0.16514
0.163282
0.161558
0.159953
0.158454
0.157049
0.155728
0.154483
0.153298
0.152144
0.150997
0.149853
0.14876
0.147795
0.200193
0.199141
0.19775
0.196428
0.195226
0.194076
0.19288
0.191529
0.189942
0.188082
0.185964
0.183644
0.181197
0.178706
0.176241
0.173858
0.171593
0.169465
0.167481
0.165638
0.163925
0.162331
0.160843
0.159449
0.15814
0.156902
0.155712
0.154543
0.153373
0.152196
0.151014
0.149876
0.148893
0.200212
0.199052
0.197492
0.195963
0.194525
0.193123
0.191677
0.190104
0.188348
0.186392
0.184257
0.181994
0.179668
0.177342
0.175069
0.17289
0.170828
0.168895
0.167092
0.165414
0.163851
0.162391
0.161023
0.159737
0.158516
0.157329
0.156149
0.154961
0.15376
0.152543
0.151315
0.150122
0.149084
0.200242
0.198913
0.197101
0.195286
0.193541
0.191826
0.190084
0.188254
0.1863
0.184219
0.182035
0.179794
0.177545
0.175337
0.173207
0.171183
0.169279
0.167501
0.165846
0.164306
0.162872
0.161532
0.160273
0.159078
0.157908
0.156739
0.155557
0.154358
0.153141
0.151905
0.150653
0.149431
0.148354
0.200286
0.198709
0.196546
0.194352
0.192222
0.190135
0.188051
0.185933
0.183758
0.181533
0.179281
0.177039
0.174843
0.172728
0.170717
0.168826
0.167061
0.165422
0.1639
0.162488
0.161175
0.159944
0.158766
0.157609
0.156448
0.155275
0.154085
0.152875
0.151645
0.150394
0.149124
0.147878
0.146765
0.200348
0.198422
0.195779
0.193096
0.190501
0.187988
0.185537
0.18312
0.180723
0.178351
0.176023
0.173763
0.171597
0.169544
0.167619
0.165827
0.164167
0.162635
0.16122
0.159912
0.158691
0.157528
0.156389
0.155251
0.154106
0.152948
0.151772
0.150577
0.14936
0.148121
0.146862
0.145622
0.144498
0.200435
0.198018
0.19472
0.191401
0.188231
0.185218
0.18235
0.179604
0.176963
0.174425
0.171998
0.169697
0.167532
0.165512
0.163642
0.161919
0.160338
0.158888
0.157559
0.156321
0.155136
0.153982
0.152843
0.151709
0.150572
0.149427
0.148269
0.147095
0.145903
0.144689
0.143456
0.14224
0.141124
0.20056
0.197443
0.193259
0.189135
0.185294
0.181743
0.178454
0.175389
0.172514
0.169814
0.167282
0.164921
0.162733
0.160716
0.158868
0.157182
0.155645
0.154242
0.152951
0.151736
0.150567
0.149431
0.148315
0.147212
0.146111
0.145008
0.143896
0.14277
0.141628
0.140467
0.139286
0.138117
0.137034
0.200746
0.196586
0.191146
0.185946
0.181254
0.177045
0.173256
0.169814
0.16666
0.163757
0.161084
0.158626
0.156376
0.154324
0.15246
0.150773
0.149228
0.147796
0.146458
0.145195
0.143995
0.142845
0.141732
0.140645
0.139575
0.138513
0.137453
0.13639
0.135317
0.134232
0.133132
0.132044
0.131028
0.201026
0.195301
0.188147
0.181639
0.176028
0.171174
0.166917
0.163121
0.159688
0.156561
0.153705
0.1511
0.148724
0.146565
0.144608
0.142838
0.141217
0.13972
0.138332
0.137039
0.135826
0.134678
0.133583
0.132527
0.1315
0.130492
0.129495
0.128503
0.12751
0.126511
0.125502
0.124505
0.123568
0.201475
0.193244
0.183531
0.175177
0.168315
0.162601
0.157729
0.153471
0.149677
0.146258
0.143162
0.140354
0.137784
0.135423
0.13326
0.131286
0.129486
0.127845
0.126348
0.124978
0.123717
0.122549
0.121457
0.120428
0.119447
0.118506
0.117594
0.116703
0.115829
0.114963
0.114103
0.113262
0.112473
0.202209
0.189885
0.176732
0.166297
0.158186
0.151607
0.146022
0.141122
0.136737
0.132775
0.129189
0.125938
0.122977
0.120283
0.117842
0.115638
0.11365
0.111861
0.110248
0.108793
0.107474
0.106275
0.105176
0.104161
0.103218
0.102334
0.1015
0.100707
0.09995
0.0992214
0.0985158
0.0978426
0.0972211
0.203567
0.183663
0.164954
0.151582
0.141882
0.134242
0.12776
0.122019
0.11684
0.112148
0.10791
0.104099
0.100687
0.0976454
0.094942
0.0925438
0.0904195
0.0885402
0.0868795
0.0854126
0.0841158
0.0829667
0.0819447
0.0810311
0.0802102
0.079469
0.0787972
0.0781866
0.0776309
0.0771246
0.0766623
0.076248
0.0758886
0.206839
0.168724
0.139779
0.121672
0.109416
0.100139
0.0925461
0.0860438
0.0803495
0.075313
0.0708472
0.066902
0.0634453
0.0604466
0.0578689
0.0556677
0.0537955
0.0522065
0.0508599
0.0497196
0.0487537
0.0479334
0.0472332
0.0466315
0.0461111
0.0456596
0.0452685
0.0449324
0.044648
0.0444132
0.0442259
0.0440878
0.0439986
0.213831
0.135424
0.0924854
0.0717471
0.0603611
0.0529703
0.0474963
0.0430939
0.0393933
0.0362134
0.0334582
0.031074
0.0290249
0.0272789
0.025803
0.0245631
0.0235259
0.022661
0.0219417
0.0213448
0.0208493
0.0204369
0.0200915
0.0198
0.0195526
0.0193428
0.0191667
0.0190223
0.0189089
0.0188264
0.0187751
0.0187561
0.0187687
0.220904
0.0994059
0.0533467
0.0362945
0.028625
0.0242189
0.0211856
0.0188915
0.0170861
0.0156386
0.0144638
0.0134967
0.0126865
0.0119957
0.011399
0.0108801
0.0104282
0.0100343
0.00969021
0.00938831
0.00912229
0.00888723
0.00867943
0.00849592
0.00833413
0.00819169
0.00806654
0.00795711
0.00786242
0.00778212
0.0077163
0.00766576
0.00763033
0.221585
0.0920487
0.0476404
0.0326839
0.0263075
0.0225818
0.019863
0.0176597
0.0157958
0.0141893
0.0127917
0.0115682
0.0104916
0.00954003
0.00869545
0.00794319
0.00727119
0.00666943
0.00612944
0.00564389
0.00520645
0.00481159
0.00445444
0.0041307
0.00383649
0.00356835
0.00332324
0.00309848
0.00289181
0.00270123
0.00252516
0.00236163
0.00221288
0.213119
0.135324
0.0903801
0.0664625
0.0528853
0.0444031
0.0386246
0.0344193
0.0312103
0.0286758
0.0266219
0.0249205
0.0234842
0.0222522
0.0211803
0.0202349
0.0193908
0.0186289
0.0179349
0.0172977
0.0167087
0.0161612
0.0156494
0.0151686
0.0147148
0.0142846
0.0138753
0.0134846
0.0131106
0.0127518
0.012406
0.0120756
0.0117441
0.240253
0.000454651
0.0367405
2.21794e-05
0.000146759
8.94203e-05
0.000783681
0.000792152
0.000510838
0.00022316
0.000650996
0.00110988
0.000916706
0.000463922
0.000303657
0.000333563
0.000364007
0.000382881
0.000407188
0.00043464
0.000463646
0.000495504
0.000529259
0.000561361
0.000588081
0.000607904
0.000622423
0.000635239
0.000649763
0.000667578
0.000688221
0.000710242
0.000731874
0.200085
0.199941
0.199744
0.199549
0.199362
0.19918
0.199002
0.198824
0.198646
0.198466
0.198286
0.198103
0.197919
0.197732
0.197543
0.197352
0.197158
0.196961
0.196761
0.19656
0.196356
0.196152
0.195946
0.195741
0.195535
0.19533
0.195125
0.194921
0.194719
0.194518
0.194319
0.194126
0.193922
0.199875
0.199568
0.19924
0.198901
0.19856
0.198221
0.197888
0.197562
0.197243
0.196933
0.196631
0.196337
0.196053
0.195776
0.195509
0.195249
0.194998
0.194754
0.194519
0.194291
0.19407
0.193856
0.19365
0.19345
0.193256
0.193069
0.192888
0.192714
0.192544
0.192381
0.192223
0.19207
0.191922
0.0759842
0.0718121
0.0714376
0.0735861
0.0700621
0.0699203
0.0776372
0.0860274
0.09494
0.107924
0.129581
0.151616
0.157667
0.143721
0.128628
0.118409
0.0991194
0.0690611
0.0390093
0.0186376
0.0079725
0.00163379
0.0173974
0.0537234
0.0792843
0.0833019
0.0769693
0.0720201
0.0733483
0.0807612
0.0922359
0.104885
0.114678
0.119556
0.118965
0.112714
0.102039
0.0909038
0.085011
0.085193
0.0830048
0.0705766
0.0496856
0.0301629
0.0201882
0.0223434
0.0212913
0.0288697
0.0880853
0.168864
0.23101
0.270302
0.296129
0.312512
0.318104
0.310584
0.298977
0.275507
0.210952
0.132225
0.0950605
0.104203
0.127336
0.141977
0.145554
0.143474
0.140116
0.137151
0.134744
0.13264
0.130569
0.128287
0.125553
0.122121
0.117756
0.112295
0.105714
0.0980827
0.0893655
0.0796801
0.0717364
0.0689562
0.0708519
0.075041
0.0789758
0.0801196
0.0773672
0.0719333
0.0654727
0.058219
0.0503506
0.0426586
0.0346285
0.0254803
0.0161431
0.00937675
0.00816008
0.013234
0.0227821
0.033661
0.176447
0.169862
0.164722
0.160195
0.153041
0.141116
0.116764
0.0944367
0.0889797
0.0953019
0.10945
0.124155
0.125679
0.119964
0.1187
0.110426
0.0850367
0.0521895
0.0252453
0.00985042
0.00357213
0.000286856
0.00550534
0.0336781
0.0669521
0.0827387
0.0815599
0.0753086
0.0727931
0.0762957
0.084407
0.0944205
0.102747
0.107115
0.106808
0.101672
0.0934092
0.0860944
0.0841484
0.0855633
0.0814031
0.0661469
0.0441187
0.0258425
0.0181456
0.021904
0.0259006
0.0248306
0.0600179
0.13196
0.200339
0.247125
0.27569
0.291806
0.296174
0.290713
0.28126
0.245903
0.172356
0.107589
0.0922128
0.111582
0.133556
0.143962
0.144907
0.142097
0.138851
0.136108
0.133817
0.131743
0.129674
0.127397
0.124675
0.121252
0.116902
0.111458
0.104841
0.0969518
0.0876985
0.0778426
0.0702547
0.0674851
0.0690123
0.0727622
0.0763381
0.0773513
0.0748195
0.0698755
0.0639635
0.0571633
0.0496111
0.0421467
0.0343322
0.0253609
0.0160082
0.00889006
0.00700928
0.0114022
0.0206395
0.032194
0.106049
0.115323
0.123893
0.13218
0.1404
0.148286
0.149406
0.136292
0.116151
0.102708
0.100498
0.104107
0.106655
0.113451
0.114756
0.0960212
0.0632933
0.0323082
0.0125142
0.00379068
0.00146897
0.000482758
0.000269575
0.01612
0.0482741
0.0747808
0.0835468
0.0802104
0.0752056
0.074548
0.0786985
0.0855407
0.0920317
0.0956563
0.0955375
0.0918003
0.0864981
0.0832733
0.0845091
0.0855464
0.0781572
0.059889
0.0374294
0.0213031
0.0168126
0.0222675
0.0305067
0.0283782
0.0416812
0.0947217
0.161854
0.21561
0.249841
0.26824
0.272805
0.269639
0.254464
0.204026
0.131996
0.0903454
0.0955636
0.120287
0.138575
0.144721
0.143729
0.140631
0.137603
0.135044
0.132815
0.130741
0.128666
0.1264
0.123695
0.120274
0.115881
0.110326
0.103486
0.0952631
0.0857915
0.0762018
0.0689897
0.0660937
0.0671121
0.0703251
0.0735411
0.0744863
0.0721805
0.067652
0.0622457
0.0559953
0.0489813
0.0419963
0.0345709
0.0258117
0.0163731
0.00881792
0.00625014
0.0100749
0.0192424
0.0320848
0.0211858
0.0277924
0.0358916
0.045905
0.0590499
0.0772252
0.100199
0.120098
0.128066
0.1253
0.119788
0.117491
0.120278
0.118351
0.100032
0.0679706
0.0359383
0.0141278
0.0042096
0.00171666
0.00221436
0.00258069
0.000173224
0.00474393
0.0277977
0.0585781
0.0787333
0.0835191
0.0799679
0.076385
0.076424
0.0795843
0.0836709
0.0861989
0.0863178
0.0844339
0.0824553
0.0829249
0.0855882
0.0841624
0.0725362
0.0516529
0.0299516
0.01713
0.0166144
0.024296
0.0351497
0.0365569
0.0357854
0.0643279
0.119549
0.174894
0.214821
0.237154
0.243443
0.239299
0.21231
0.153471
0.0979072
0.0841658
0.104446
0.128929
0.141873
0.14436
0.142227
0.139174
0.136379
0.133928
0.131699
0.129597
0.12751
0.125261
0.122589
0.119187
0.114757
0.109072
0.101996
0.0935271
0.0840202
0.0747024
0.0677036
0.0645673
0.0650296
0.0676602
0.0704551
0.071299
0.0692636
0.065235
0.0603878
0.0547051
0.0482523
0.0417988
0.0348278
0.0263396
0.016877
0.00895302
0.00567445
0.00862765
0.0167737
0.0299577
0.000897376
0.0014149
0.00255541
0.00451072
0.00796318
0.0151748
0.0297473
0.0524136
0.0767992
0.0950393
0.104414
0.107787
0.103343
0.0859613
0.0586343
0.0313968
0.0123502
0.00357011
0.00190239
0.00290482
0.00405398
0.00497914
0.00322979
0.00115241
0.0115505
0.0374134
0.0646514
0.0803498
0.0836286
0.0809283
0.0783477
0.0780395
0.0793095
0.0804911
0.0809706
0.0810636
0.0819658
0.0845615
0.0858829
0.0799789
0.0639041
0.0416291
0.0223255
0.0140497
0.0180184
0.0284902
0.0406081
0.0465253
0.0413191
0.0476305
0.0814171
0.12855
0.169522
0.194838
0.202634
0.193287
0.156532
0.105293
0.078419
0.089403
0.116112
0.135841
0.143276
0.143208
0.140624
0.137767
0.135133
0.132695
0.130406
0.128245
0.12614
0.123918
0.121299
0.117943
0.113511
0.107739
0.100493
0.0918513
0.0823217
0.0731646
0.0662332
0.0628035
0.0627116
0.0647502
0.067093
0.0677996
0.066007
0.0624625
0.05818
0.053116
0.0473186
0.0415128
0.0351036
0.0269539
0.0174905
0.00919561
0.00514766
0.00702204
0.0136024
0.0261858
0.000178891
0.000286101
0.000207946
0.000115591
0.000230997
0.000124905
0.00136823
0.00734892
0.0194672
0.034154
0.0457453
0.0496578
0.043826
0.0306673
0.0165273
0.00628726
0.00184391
0.00180911
0.00333283
0.00472193
0.0054443
0.00601564
0.00578565
0.00279001
0.0035477
0.0180659
0.0435287
0.0671611
0.0804719
0.0840142
0.0827789
0.0810028
0.0801825
0.080181
0.0808239
0.0820867
0.0842003
0.0858832
0.082999
0.0716266
0.0521687
0.0305699
0.0155472
0.0128921
0.0215395
0.0349986
0.0478686
0.0566799
0.0539857
0.0475219
0.0574653
0.0861236
0.119043
0.1426
0.149096
0.134434
0.100824
0.0740863
0.077429
0.102599
0.127206
0.14008
0.143109
0.141659
0.139054
0.136383
0.133791
0.131266
0.128849
0.12659
0.124454
0.12227
0.119735
0.116465
0.112079
0.106276
0.0989234
0.0901688
0.0806267
0.0715596
0.0646054
0.0608492
0.0602052
0.0616499
0.0635244
0.0640603
0.0624841
0.0594395
0.0557702
0.0513682
0.0462469
0.0411014
0.0352781
0.0275036
0.0180776
0.00945155
0.00471013
0.00562746
0.0107933
0.0227553
0.00271961
0.00241903
0.00209792
0.00175853
0.00143428
0.000640249
0.000800447
0.000481577
0.000994852
0.00318287
0.00621867
0.00698391
0.00502203
0.00159529
0.000939662
0.00134709
0.00232181
0.00372961
0.00488786
0.00569596
0.00616669
0.00636265
0.00666891
0.0053166
0.00263467
0.00636262
0.0223747
0.0457167
0.0664385
0.078946
0.0838674
0.0846299
0.0841227
0.0838235
0.0841622
0.0850563
0.0855825
0.0831537
0.0745253
0.0585949
0.0382165
0.0198854
0.0108705
0.0144409
0.0275886
0.0437105
0.057413
0.0670561
0.0687229
0.0604453
0.0541135
0.0608299
0.0770507
0.0914875
0.0936523
0.0811087
0.0661962
0.0687937
0.0912826
0.117837
0.135143
0.141682
0.141987
0.140029
0.137543
0.134943
0.132259
0.129538
0.126905
0.124486
0.122294
0.120163
0.117758
0.114638
0.110364
0.1046
0.0972136
0.0884089
0.0788763
0.0698589
0.0628227
0.0587166
0.057523
0.0583845
0.0598081
0.0601813
0.0587968
0.0562039
0.0531134
0.049382
0.0449802
0.04055
0.0353648
0.0280015
0.0186222
0.00967032
0.00432711
0.00460561
0.00908223
0.0215491
0.00508166
0.00489034
0.00465779
0.00437791
0.00404719
0.0036
0.00300654
0.00234841
0.00134645
0.000113581
0.000812619
0.000592094
0.000418045
0.000860289
0.00178266
0.00301577
0.00414093
0.00504906
0.00594401
0.0069055
0.00769743
0.00791388
0.00783364
0.00728407
0.00491057
0.00306027
0.00834553
0.0235402
0.0438454
0.0620967
0.0744116
0.0809592
0.0837896
0.0847488
0.0847826
0.0837901
0.0804826
0.0728034
0.0596004
0.0420844
0.024086
0.011454
0.00952397
0.0192408
0.0363064
0.0543905
0.0688992
0.0784212
0.0826482
0.0785215
0.0682572
0.0606463
0.0599911
0.0619155
0.0608115
0.0584685
0.0649895
0.0851638
0.110572
0.129832
0.139187
0.141472
0.140509
0.138452
0.136022
0.133338
0.130416
0.127364
0.124396
0.12173
0.119444
0.117384
0.115171
0.112291
0.10823
0.1026
0.0952698
0.0864859
0.0769919
0.0680023
0.0608489
0.0563848
0.0546528
0.0549421
0.0559206
0.0561272
0.0549236
0.0527828
0.0502873
0.0472449
0.0435685
0.0398434
0.0352922
0.0283666
0.0190922
0.00989129
0.00404259
0.00379929
0.00772586
0.0210587
0.00574169
0.00568981
0.00562116
0.00552789
0.00540092
0.00523978
0.00501171
0.00467487
0.0042463
0.00368594
0.00332141
0.00330301
0.00355345
0.00398979
0.00449906
0.00503318
0.0057532
0.00692068
0.00859224
0.0104486
0.0119115
0.0123686
0.0117203
0.0104687
0.0083538
0.00509013
0.00365691
0.00872373
0.0213475
0.0377983
0.0531444
0.0644876
0.0714185
0.0745737
0.0746965
0.0717813
0.0651619
0.0544009
0.040346
0.0252219
0.0125734
0.00710499
0.0123293
0.0274334
0.0474833
0.0666718
0.0814906
0.0908346
0.0955948
0.0953886
0.089039
0.0794254
0.0713702
0.0667882
0.0661431
0.0724628
0.0880664
0.10866
0.126272
0.13652
0.140299
0.140435
0.138995
0.136892
0.134373
0.131438
0.128103
0.124541
0.121079
0.118055
0.11563
0.113665
0.111726
0.109205
0.10549
0.100127
0.0929687
0.0842948
0.074885
0.0659247
0.0586449
0.0538349
0.0515922
0.0513362
0.0518903
0.0519384
0.0509006
0.0491798
0.0472549
0.0449051
0.0419844
0.0390077
0.0351495
0.0287335
0.0196311
0.010233
0.00389727
0.0030478
0.00628775
0.0201921
0.00721915
0.00706361
0.00689831
0.00672227
0.00653566
0.0063422
0.00614642
0.00594727
0.00575506
0.00557916
0.00544444
0.00542355
0.00550137
0.00573123
0.00624516
0.00729265
0.00914314
0.0118551
0.0151011
0.0182247
0.0204658
0.0212055
0.0201927
0.017721
0.014442
0.0103996
0.00613476
0.00422426
0.0075358
0.0163081
0.0279326
0.0390574
0.047387
0.0518755
0.0524606
0.0491269
0.0421066
0.0324315
0.0217978
0.0121227
0.00622088
0.00792787
0.019427
0.0387169
0.0606001
0.0799594
0.0943079
0.103305
0.107911
0.109294
0.107305
0.102156
0.0961817
0.0926643
0.0939784
0.101643
0.113996
0.126363
0.134928
0.139018
0.139957
0.139166
0.137476
0.135227
0.132454
0.129069
0.125091
0.120793
0.116654
0.113157
0.11055
0.10871
0.107141
0.105123
0.101921
0.0969932
0.0901575
0.0817114
0.0724577
0.0635568
0.0561681
0.0510435
0.0483329
0.0475704
0.0477243
0.0476188
0.0467369
0.045427
0.0440738
0.0424243
0.0402711
0.0380573
0.034929
0.0290928
0.0202447
0.0107166
0.00393134
0.00240046
0.0047797
0.0184447
0.0135223
0.0130023
0.012451
0.0118691
0.011262
0.010642
0.0100322
0.00946626
0.00898625
0.00863807
0.00846618
0.00850981
0.00891347
0.00987317
0.0116423
0.014449
0.0183234
0.0229505
0.0276894
0.0317625
0.0344605
0.0352923
0.034057
0.0307438
0.0258897
0.0202118
0.0141429
0.00857073
0.0053033
0.00586482
0.0100959
0.016225
0.0219657
0.0256052
0.0264007
0.0242457
0.019884
0.0146576
0.00963584
0.00590571
0.00611626
0.013858
0.0303238
0.0524559
0.0749147
0.0934218
0.106491
0.114585
0.118872
0.120613
0.120637
0.119232
0.117339
0.116691
0.118712
0.12361
0.129817
0.135091
0.138258
0.139406
0.139086
0.137789
0.135835
0.133316
0.130089
0.125983
0.12107
0.115786
0.110799
0.106738
0.10393
0.102257
0.101157
0.099793
0.0972903
0.0929939
0.0866655
0.0785984
0.0696057
0.060828
0.0533782
0.047994
0.0448782
0.0436679
0.0434642
0.0432219
0.0424828
0.0415501
0.0407372
0.0397777
0.0384107
0.037
0.0346715
0.0295092
0.0209939
0.0113661
0.00413498
0.00189868
0.00341426
0.0164624
0.0295095
0.0283623
0.0271577
0.0258944
0.0245813
0.0232418
0.0219201
0.0206875
0.0196418
0.0189052
0.018605
0.0188923
0.0200358
0.0222583
0.0256952
0.0302899
0.0357065
0.0413495
0.046508
0.0505387
0.0529743
0.0535343
0.0521042
0.0485866
0.0430792
0.0361003
0.0283517
0.0205126
0.0135029
0.00846565
0.00609956
0.00611716
0.00733385
0.00854007
0.00899908
0.00864095
0.0079909
0.00735733
0.00659936
0.00680625
0.0114528
0.0240042
0.0442353
0.0678265
0.0895032
0.106084
0.117142
0.123778
0.127402
0.129132
0.129772
0.129846
0.129817
0.130327
0.131795
0.134068
0.136467
0.138254
0.139091
0.138944
0.137922
0.136214
0.133944
0.130985
0.127013
0.121829
0.115661
0.109177
0.103245
0.0986058
0.0956249
0.094169
0.0936212
0.0930372
0.0914068
0.0879449
0.0823292
0.0748217
0.0662288
0.0576738
0.0502434
0.0446795
0.0412412
0.0396588
0.0391522
0.0387945
0.0381854
0.0376
0.0372999
0.0370146
0.036435
0.0358365
0.034339
0.0299216
0.021826
0.0121489
0.00449363
0.0015691
0.00224919
0.0144481
0.0561477
0.0544687
0.0527128
0.0508762
0.0489703
0.0470289
0.0451161
0.0433361
0.0418374
0.0408113
0.040461
0.0410242
0.0427369
0.0456836
0.0497528
0.054611
0.0597424
0.0645609
0.0685457
0.0713306
0.0727198
0.0726126
0.0709351
0.0676238
0.0625862
0.0558622
0.0478083
0.0390272
0.0302521
0.0223161
0.0159813
0.0116258
0.00905081
0.00786944
0.00773841
0.0084852
0.00967718
0.0103534
0.0103737
0.0123408
0.0206446
0.0374845
0.0603557
0.0838239
0.103274
0.116966
0.125506
0.130402
0.133081
0.134518
0.135278
0.135722
0.13608
0.136579
0.137279
0.138076
0.138766
0.139102
0.13888
0.137979
0.136429
0.134342
0.131649
0.127962
0.122828
0.116162
0.108475
0.100715
0.0939041
0.0888067
0.0857507
0.0845652
0.0846007
0.0848523
0.084204
0.081742
0.0770348
0.0702798
0.0622522
0.0540531
0.0467552
0.0411179
0.0374582
0.0355937
0.0348509
0.034407
0.0339126
0.0336241
0.0337786
0.0341291
0.0343345
0.0345686
0.0339477
0.0303585
0.022775
0.0130908
0.00501102
0.001396
0.00126399
0.0125642
0.0871078
0.0853348
0.0834958
0.0815839
0.0796098
0.0776078
0.0756436
0.0738224
0.0722948
0.0712477
0.0708934
0.0714027
0.072811
0.0750569
0.0779313
0.0810927
0.0841394
0.0867032
0.0885218
0.0894552
0.0894659
0.0885351
0.0865919
0.0835972
0.0794754
0.0741008
0.0674319
0.0596666
0.0512663
0.0428815
0.0352305
0.0289127
0.0242897
0.021399
0.0200473
0.0195831
0.0188041
0.0170368
0.0160621
0.0201925
0.0330062
0.0537945
0.0777006
0.0991704
0.115085
0.125311
0.131236
0.134467
0.136224
0.137234
0.137873
0.138308
0.13864
0.138928
0.13917
0.139314
0.139275
0.138894
0.138003
0.136534
0.134555
0.132055
0.128677
0.123799
0.117003
0.108521
0.0992561
0.0904116
0.083039
0.0777814
0.074829
0.0739494
0.0745075
0.0755198
0.075835
0.0744394
0.0707783
0.0649476
0.0576563
0.0499678
0.0429427
0.0373615
0.0335973
0.0315484
0.0306391
0.0301393
0.0297437
0.0296974
0.0302367
0.0311662
0.0321344
0.0332012
0.0334766
0.0307792
0.0238062
0.0141819
0.00569051
0.00139203
0.000471286
0.0107752
0.110456
0.10906
0.107643
0.106197
0.104724
0.103243
0.101798
0.100454
0.0993082
0.0984744
0.0980828
0.0981927
0.0987348
0.0996101
0.100654
0.101655
0.102403
0.102741
0.102586
0.101921
0.100769
0.0991233
0.0969059
0.0940858
0.0906345
0.0864829
0.0815231
0.0756956
0.0691029
0.0620586
0.0550391
0.0485586
0.0430475
0.0384758
0.0344683
0.0302184
0.0252843
0.0211345
0.0216278
0.0307086
0.0488792
0.0721771
0.0947677
0.112432
0.124059
0.13086
0.134538
0.136473
0.13755
0.138225
0.138698
0.139044
0.139289
0.139434
0.139458
0.139295
0.138834
0.137938
0.136517
0.134601
0.132218
0.129089
0.124534
0.11786
0.108967
0.0986043
0.0880931
0.0787452
0.0714327
0.0664965
0.0638866
0.0632997
0.0641856
0.0656986
0.0667635
0.0663322
0.0637338
0.0589286
0.0525164
0.0454933
0.0388941
0.0335127
0.0297671
0.0276264
0.0266076
0.0260713
0.0257519
0.0258823
0.026714
0.0281382
0.0298307
0.0317331
0.0329363
0.0312071
0.0249554
0.0154651
0.00655665
0.00155372
0.000587995
0.00912615
0.12603
0.124855
0.123709
0.122583
0.121477
0.120397
0.119363
0.118401
0.117551
0.116856
0.116369
0.116063
0.115819
0.11554
0.115133
0.114502
0.113579
0.112343
0.110818
0.109052
0.107096
0.104931
0.102434
0.0995483
0.0962504
0.0925189
0.0883157
0.083583
0.0782817
0.0724504
0.0662178
0.0597883
0.0532786
0.0464938
0.0391778
0.0314992
0.0250529
0.0232645
0.0298211
0.0457502
0.0679482
0.0908526
0.10969
0.122504
0.129955
0.13395
0.136027
0.137129
0.137787
0.138245
0.138592
0.138848
0.139
0.139022
0.138873
0.138449
0.137611
0.136267
0.134426
0.132128
0.12917
0.124899
0.118455
0.109423
0.0983343
0.0865595
0.075682
0.0668452
0.0604812
0.056462
0.0544334
0.0540397
0.0549016
0.0564437
0.0578076
0.0580129
0.05631
0.0525034
0.0470379
0.0407997
0.0347699
0.0297328
0.0261284
0.0239781
0.0228865
0.0223118
0.0220346
0.0222715
0.0232926
0.0251027
0.0274494
0.0301651
0.0323061
0.0316095
0.0262041
0.0169561
0.00764006
0.00187921
5.38189e-05
0.00772666
0.134726
0.133715
0.132752
0.13183
0.130943
0.130091
0.129278
0.128509
0.127791
0.127129
0.126536
0.125935
0.125184
0.124189
0.12289
0.121252
0.11928
0.117031
0.114594
0.112064
0.109513
0.106904
0.104078
0.10095
0.0974575
0.0935387
0.0891386
0.0842085
0.0787015
0.0725752
0.0657947
0.058369
0.0502624
0.0415559
0.0328844
0.025986
0.0238514
0.029593
0.0442452
0.065358
0.0879852
0.10736
0.121032
0.129121
0.133234
0.135292
0.136384
0.136987
0.137365
0.137636
0.137838
0.137963
0.137979
0.137838
0.137483
0.13678
0.135589
0.133886
0.131696
0.128865
0.124797
0.118565
0.109526
0.0979845
0.0853044
0.0733249
0.0635289
0.0565271
0.0520857
0.0495337
0.0482293
0.047818
0.0481698
0.0490932
0.0500863
0.0503632
0.0491677
0.0461561
0.0415809
0.03617
0.0308081
0.0262347
0.0228761
0.020775
0.0196119
0.0189596
0.018668
0.0189369
0.0200409
0.0221097
0.0250134
0.0285034
0.0315868
0.0319842
0.027558
0.0186826
0.00898
0.00239173
0.000248829
0.00651061
0.140755
0.139766
0.138831
0.137944
0.137096
0.136284
0.1355
0.134742
0.134002
0.133268
0.132541
0.131689
0.130545
0.129015
0.12705
0.124646
0.121854
0.118785
0.115584
0.112383
0.109272
0.106176
0.102886
0.0992837
0.0952635
0.0907094