/*--------------------------------*- C++ -*----------------------------------*\
  =========                 |
  \\      /  F ield         | OpenFOAM: The Open Source CFD Toolbox
   \\    /   O peration     | Website:  https://openfoam.org
    \\  /    A nd           | Version:  10
     \\/     M anipulation  |
\*---------------------------------------------------------------------------*/
FoamFile
{
    format      ascii;
    class       volScalarField;
    location    "0.13";
    object      nut;
}
// * * * * * * * * * * * * * * * * * * * * * * * * * * * * * * * * * * * * * //

dimensions      [0 2 -1 0 0 0 0];

internalField   nonuniform List<scalar> 
6820
(
0
0
0
0
0
0
0
0
0
0
0
0
0
0
0
0
0
0
0
0
0
0
0
0
0
0
0
0
0
0
0
0
0
0
0
0
0
0
0
0
0
0
0
0
0
0
0
0
0
0
0
0
0
0
0
0
0
0
0
0
0
0
0
0
0
0
0
0
0
0
0
0
0
0
0
0
0
0
0
0
0
0
0
0
0
0
0
0
0
0
0
0
0
0
0
0
0
0
0
0
0
0
0
0
0
0
0
0
0
0
0
0
0
0
0
0
0
0
0
0
0
0
0
0
0
0
0
0
0
0
0
0
1.6671e-05
0
0
0
0
0
0
0
0
0
0
0
0
0
0
0
0
0
0
1.89016e-07
3.92866e-07
5.62348e-07
7.12044e-07
8.56605e-07
1.0115e-06
1.19103e-06
1.39548e-06
1.54732e-06
1.22587e-06
0
0
0
0
6.35457e-06
5.14083e-05
3.85297e-05
1.71847e-05
4.62297e-06
0
0
0
0
0
0
0
0
0
0
0
0
0
0
1.14347e-08
5.50696e-08
1.01822e-07
1.52976e-07
2.08617e-07
2.65285e-07
3.16581e-07
3.55989e-07
3.75046e-07
3.6142e-07
2.91203e-07
1.31515e-07
0
0
0
1.50481e-05
3.4084e-05
4.51593e-05
4.19896e-05
3.51507e-05
2.83798e-05
2.11475e-05
1.30591e-05
3.91848e-06
0
0
0
0
0
0
0
0
0
0
4.17048e-07
9.04067e-07
1.14178e-06
1.21434e-06
1.17964e-06
1.07721e-06
9.33209e-07
7.65971e-07
5.84863e-07
4.01045e-07
2.05661e-07
0
0
0
9.33832e-06
2.12707e-05
3.79168e-05
4.35116e-05
4.17967e-05
3.86162e-05
3.40446e-05
2.55635e-05
8.27039e-06
0
0
0
0
0
0
0
0
0
5.11856e-07
9.08152e-07
1.05613e-06
1.0542e-06
9.65137e-07
8.28497e-07
6.69336e-07
5.03127e-07
3.41062e-07
1.8881e-07
5.55344e-08
0
0
0
0
6.92921e-06
1.38701e-05
2.80239e-05
3.91513e-05
4.54432e-05
4.95313e-05
5.22385e-05
5.15329e-05
2.59018e-05
0
0
0
0
0
0
0
0
1.87379e-07
6.71833e-07
8.84624e-07
9.30084e-07
8.75552e-07
7.64448e-07
6.24309e-07
4.72673e-07
3.2043e-07
1.75804e-07
4.28849e-08
0
0
0
0
0
5.0604e-06
9.36472e-06
2.00403e-05
3.11761e-05
4.01462e-05
4.86203e-05
5.71621e-05
6.35037e-05
3.05958e-05
0
0
0
0
0
0
0
0
3.09259e-07
6.15623e-07
7.34084e-07
7.32928e-07
6.58464e-07
5.42157e-07
4.05123e-07
2.61726e-07
1.21467e-07
0
0
0
0
0
0
0
3.66838e-06
6.31847e-06
1.38007e-05
2.25571e-05
3.00323e-05
3.64865e-05
3.94298e-05
3.28196e-05
1.2169e-05
0
0
0
0
0
0
0
5.21522e-07
8.70563e-07
9.94587e-07
9.72039e-07
8.58505e-07
6.92672e-07
5.01464e-07
3.03536e-07
1.12088e-07
0
0
0
0
0
0
0
0
2.64543e-06
4.15263e-06
9.08343e-06
1.5204e-05
2.01164e-05
2.35885e-05
2.36786e-05
1.80184e-05
8.02726e-06
0
0
0
0
0
0
8.81822e-08
5.21063e-07
7.1854e-07
7.45449e-07
6.5653e-07
4.94518e-07
2.91671e-07
7.22832e-08
0
0
0
0
0
0
0
0
0
0
1.92201e-06
2.70108e-06
5.82359e-06
9.88823e-06
1.28381e-05
1.44784e-05
1.39891e-05
1.07311e-05
5.90954e-06
1.81652e-06
0
0
0
8.26541e-08
5.59581e-07
8.56573e-07
9.68666e-07
9.2779e-07
7.75133e-07
5.49042e-07
2.81563e-07
0
0
0
0
0
0
0
0
0
0
0
0
1.41441e-06
1.73223e-06
3.59916e-06
6.16529e-06
7.79546e-06
8.40632e-06
7.78473e-06
5.83698e-06
3.28127e-06
1.11778e-06
0
0
0
0
0
0
0
0
0
0
0
0
0
0
0
0
0
0
0
0
0
0
0
1.06086e-06
1.09306e-06
2.1313e-06
3.69504e-06
4.54156e-06
4.68247e-06
4.16011e-06
3.01241e-06
1.63376e-06
4.93527e-07
0
0
0
0
0
0
0
0
0
0
0
0
0
0
0
0
0
0
0
0
0
0
0
8.13037e-07
6.63382e-07
1.14595e-06
2.01254e-06
2.32742e-06
2.15196e-06
1.61515e-06
7.78614e-07
0
0
0
0
0
0
0
0
0
0
0
0
0
0
0
0
0
0
0
0
0
0
0
0
0
6.38289e-07
3.68169e-07
4.74585e-07
8.57979e-07
8.17494e-07
4.50598e-07
0
0
0
0
0
0
0
0
0
0
0
0
0
0
0
0
0
0
0
0
0
0
0
0
0
0
0
5.13101e-07
1.55038e-07
0
2.30063e-08
0
0
0
0
0
0
0
0
0
0
0
0
0
0
0
0
0
0
0
0
0
0
0
0
0
1.04021e-07
0
0
0
4.21468e-07
0
0
0
0
0
0
0
0
0
0
0
0
0
0
0
0
0
0
0
0
0
0
0
0
0
0
0
4.26821e-07
9.63203e-07
8.26917e-07
0
0
3.52519e-07
0
0
0
0
0
0
0
0
0
0
0
0
0
0
0
0
0
0
0
0
0
0
0
0
0
0
5.86511e-07
1.2294e-06
1.8256e-06
1.72022e-06
0
0
2.98321e-07
0
0
0
0
0
0
0
0
0
0
0
0
0
0
0
0
0
0
0
0
0
0
0
0
2.08847e-07
8.43215e-07
1.50724e-06
2.19768e-06
2.82999e-06
2.74073e-06
4.28766e-07
0
2.53198e-07
0
0
0
0
0
0
0
0
0
0
0
0
0
0
0
0
0
0
0
0
0
0
0
4.25447e-07
1.08609e-06
1.77422e-06
2.48176e-06
3.20401e-06
3.85699e-06
3.77473e-06
1.44365e-06
0
2.12276e-07
0
0
0
0
0
0
0
0
0
0
0
0
0
0
0
0
0
0
0
0
0
0
6.1724e-07
1.30762e-06
2.02081e-06
2.75133e-06
3.49043e-06
4.23215e-06
4.89365e-06
4.8127e-06
2.47431e-06
0
1.73083e-07
0
0
0
0
0
0
0
0
0
0
0
0
0
0
0
0
0
0
0
0
2.83894e-07
9.67289e-07
1.67328e-06
2.39824e-06
3.13687e-06
3.88294e-06
4.62712e-06
5.36248e-06
6.00786e-06
5.9103e-06
3.56171e-06
0
1.28499e-07
0
0
0
0
0
0
0
0
0
0
0
0
0
0
0
0
0
0
0
3.60896e-07
1.07907e-06
1.81568e-06
2.56742e-06
3.32979e-06
4.09668e-06
4.86097e-06
5.61296e-06
6.34521e-06
6.97891e-06
6.87251e-06
4.5364e-06
0
8.35348e-08
0
0
0
0
0
0
0
0
0
0
0
0
0
0
0
0
0
2.09978e-07
9.19924e-07
1.64349e-06
2.37962e-06
3.12619e-06
3.87984e-06
4.63579e-06
5.38771e-06
6.12827e-06
6.84785e-06
7.53869e-06
8.12456e-06
7.98091e-06
5.63946e-06
0
8.41285e-09
0
0
0
0
0
0
0
0
0
0
0
0
0
0
0
0
1.09463e-07
8.59093e-07
1.61885e-06
2.38743e-06
3.163e-06
3.94263e-06
4.72206e-06
5.49589e-06
6.25737e-06
6.99893e-06
7.71109e-06
8.38617e-06
8.95123e-06
8.79803e-06
6.49138e-06
0
0
0
0
0
0
0
0
0
0
0
0
0
0
0
0
3.74434e-07
1.10681e-06
1.83894e-06
2.57211e-06
3.30695e-06
4.04331e-06
4.78003e-06
5.51461e-06
6.24319e-06
6.96075e-06
7.66085e-06
8.3362e-06
8.97767e-06
9.57757e-06
1.00662e-05
9.85945e-06
7.55546e-06
0
0
0
0
0
0
0
0
0
0
0
0
0
0
0
5.83732e-08
8.34054e-07
1.60588e-06
2.37446e-06
3.14072e-06
3.90479e-06
4.66582e-06
5.42199e-06
6.1703e-06
6.90663e-06
7.62576e-06
8.32133e-06
8.98628e-06
9.61208e-06
1.01917e-05
1.06597e-05
1.04547e-05
8.22378e-06
0
0
0
0
0
0
0
0
0
0
0
0
5.48765e-07
1.29603e-06
2.01464e-06
2.70894e-06
3.38427e-06
4.04554e-06
4.69709e-06
5.34229e-06
5.98298e-06
6.61962e-06
7.25128e-06
7.87567e-06
8.48916e-06
9.08698e-06
9.66321e-06
1.02112e-05
1.07228e-05
1.11912e-05
1.15549e-05
1.12872e-05
9.09307e-06
0
0
0
0
0
0
0
0
0
0
0
1.52607e-07
9.35958e-07
1.67989e-06
2.39011e-06
3.0737e-06
3.73751e-06
4.38703e-06
5.0265e-06
5.65877e-06
6.28519e-06
6.90574e-06
7.5191e-06
8.12277e-06
8.71316e-06
9.28581e-06
9.83533e-06
1.03558e-05
1.08404e-05
1.12832e-05
1.16291e-05
1.13917e-05
9.3643e-06
0
5.25336e-07
0
0
0
3.49454e-07
1.28522e-06
2.20877e-06
3.03612e-06
3.74229e-06
4.34057e-06
4.85055e-06
5.29198e-06
5.68453e-06
6.04572e-06
6.3895e-06
6.72647e-06
7.06417e-06
7.40765e-06
7.75974e-06
8.12138e-06
8.49186e-06
8.86916e-06
9.25015e-06
9.63082e-06
1.00064e-05
1.03717e-05
1.07208e-05
1.10471e-05
1.13452e-05
1.15664e-05
1.1285e-05
9.4254e-06
0
0
0
0
6.70278e-07
1.79841e-06
2.71974e-06
3.47455e-06
4.04216e-06
4.45231e-06
4.75915e-06
4.99919e-06
5.19703e-06
5.37391e-06
5.54647e-06
5.72571e-06
5.91838e-06
6.12801e-06
6.35598e-06
6.602e-06
6.8645e-06
7.1409e-06
7.42798e-06
7.72197e-06
8.01886e-06
8.31446e-06
8.60451e-06
8.88476e-06
9.15065e-06
9.39848e-06
9.59254e-06
9.41052e-06
8.01875e-06
7.42025e-06
1.15802e-05
1.03469e-05
1.04987e-05
1.07147e-05
1.05811e-05
1.02935e-05
9.90129e-06
9.39994e-06
8.84855e-06
8.31189e-06
7.82032e-06
7.38563e-06
7.01437e-06
6.70858e-06
6.46623e-06
6.28345e-06
6.15484e-06
6.07482e-06
6.03763e-06
6.03734e-06
6.06807e-06
6.1242e-06
6.20049e-06
6.29213e-06
6.39479e-06
6.50454e-06
6.61782e-06
6.73111e-06
6.84164e-06
6.9259e-06
6.77327e-06
5.8333e-06
8.1248e-06
1.63214e-05
1.45016e-05
1.35368e-05
1.26276e-05
1.15151e-05
1.03999e-05
9.31384e-06
8.29204e-06
7.41799e-06
6.70451e-06
6.12279e-06
5.65024e-06
5.27159e-06
4.97289e-06
4.74219e-06
4.57027e-06
4.44797e-06
4.36751e-06
4.32199e-06
4.3053e-06
4.31216e-06
4.33807e-06
4.37914e-06
4.43193e-06
4.49332e-06
4.56047e-06
4.63088e-06
4.70224e-06
4.77289e-06
4.82842e-06
4.73655e-06
4.14106e-06
7.53647e-05
4.73747e-05
2.93341e-05
2.09816e-05
1.5184e-05
1.04177e-05
6.4559e-06
3.10657e-06
3.87969e-07
0
0
0
0
0
0
0
0
0
0
0
0
0
0
0
0
0
0
0
0
0
0
0
0
0
0
0
0
0
0
0
0
0
0
0
0
0
0
0
0
0
0
0
0
0
0
0
0
0
0
0
0
0
0
0
0
0
3.86492e-08
0
0
0
0
0
0
0
0
0
0
0
0
0
0
0
0
0
0
0
0
0
0
0
0
0
0
0
0
0
0
0
0
2.02448e-08
0
0
0
0
0
0
0
0
0
0
0
0
0
0
0
0
0
0
0
0
0
0
0
0
0
0
0
0
0
0
0
0
8.80416e-09
0
0
0
0
0
0
0
0
0
0
0
0
0
0
0
0
0
0
0
0
0
0
0
0
0
0
0
0
0
0
0
0
0
0
3.18925e-07
0
0
0
0
0
0
0
5.63445e-06
1.90191e-05
2.18077e-05
0
0
0
1.16336e-06
6.02931e-06
5.4059e-06
2.79149e-06
7.29228e-07
0
0
0
0
0
0
0
5.96546e-06
1.52584e-05
3.12909e-05
6.27151e-05
0.000134835
0
0
0
0
0
0
9.51072e-06
1.32966e-05
1.25085e-05
9.42049e-06
5.88299e-06
3.03729e-06
1.17745e-06
0
0
0
0
0
0
0
3.61322e-05
2.20086e-05
0
1.9386e-05
4.62084e-05
4.6782e-05
3.78099e-05
3.16598e-05
3.00455e-05
2.70342e-05
2.30138e-05
1.91167e-05
1.53758e-05
1.20318e-05
9.33256e-06
7.33937e-06
5.92785e-06
4.86614e-06
3.89502e-06
2.79689e-06
1.45142e-06
0
0
0
0
0
4.16948e-06
1.22099e-05
2.00544e-05
2.5253e-05
2.81481e-05
2.91864e-05
2.81321e-05
2.45604e-05
1.83177e-05
9.82703e-06
1.53805e-07
0
0
0
0
0
0
0
0
0
0
0
0
5.99367e-07
4.46026e-07
0
0
0
0
0
0
4.14763e-06
2.27027e-05
3.73829e-05
0
0
0
4.87649e-06
8.80989e-06
6.14375e-06
2.82616e-06
7.85715e-07
0
0
0
0
0
0
0
4.96537e-06
1.64566e-05
3.39093e-05
6.7479e-05
0.000150646
0
0
0
0
0
3.24855e-06
1.30617e-05
1.59676e-05
1.41524e-05
1.02522e-05
6.28777e-06
3.34203e-06
1.19536e-06
0
0
0
0
0
0
0
0
0
1.11114e-05
3.42754e-05
4.56789e-05
4.28264e-05
3.58141e-05
3.34204e-05
3.31375e-05
3.02683e-05
2.63146e-05
2.20391e-05
1.78626e-05
1.42296e-05
1.13763e-05
9.30249e-06
7.84795e-06
6.77658e-06
5.83831e-06
4.82579e-06
3.62977e-06
2.28322e-06
9.92076e-07
1.63917e-07
4.39138e-07
2.67771e-06
7.65438e-06
1.49536e-05
2.20613e-05
2.69484e-05
2.97059e-05
3.05952e-05
2.92921e-05
2.53641e-05
1.87667e-05
1.00124e-05
1.32248e-07
0
0
0
0
0
0
0
0
0
0
0
0
4.44597e-07
7.96143e-07
0
0
0
0
0
0
3.5116e-07
1.63467e-05
3.94358e-05
1.19833e-06
0
9.80438e-07
1.0005e-05
9.13462e-06
5.0609e-06
2.01802e-06
6.02356e-07
0
0
0
0
0
0
0
0
1.47275e-05
3.34284e-05
6.65369e-05
0.000144946
0
0
0
0
0
7.97395e-06
1.62574e-05
1.76191e-05
1.47417e-05
1.02812e-05
6.22119e-06
3.551e-06
1.20676e-06
0
0
0
0
0
0
0
0
0
1.76388e-05
3.40612e-05
3.99522e-05
3.69351e-05
3.35204e-05
3.48972e-05
3.52317e-05
3.25642e-05
2.85455e-05
2.39926e-05
1.96219e-05
1.59166e-05
1.30531e-05
1.09853e-05
9.54505e-06
8.51131e-06
7.65426e-06
6.77953e-06
5.78145e-06
4.69179e-06
3.70907e-06
3.21627e-06
3.78597e-06
6.1163e-06
1.07267e-05
1.71427e-05
2.33776e-05
2.7791e-05
3.03153e-05
3.10537e-05
2.96046e-05
2.55064e-05
1.87699e-05
9.9813e-06
1.52092e-07
0
0
0
0
0
0
0
0
0
0
0
0
0
3.5607e-07
0
0
0
0
0
0
0
6.36177e-06
2.15495e-05
1.26485e-05
2.54281e-06
1.05182e-05
1.08375e-05
6.67575e-06
3.0989e-06
1.40242e-06
7.56993e-07
0
0
0
0
0
0
0
0
6.9839e-06
2.79227e-05
5.90872e-05
0.000118155
0
0
0
0
0
1.32942e-05
1.8907e-05
1.84478e-05
1.46002e-05
9.80224e-06
5.95079e-06
3.79706e-06
1.31108e-06
0
0
0
0
0
0
0
0
0
1.63471e-05
2.88324e-05
3.26471e-05
3.12774e-05
3.26185e-05
3.65172e-05
3.69339e-05
3.43322e-05
3.01469e-05
2.54418e-05
2.10416e-05
1.73767e-05
1.45635e-05
1.25361e-05
1.11368e-05
1.01661e-05
9.41475e-06
8.70293e-06
7.92807e-06
7.11281e-06
6.43653e-06
6.24447e-06
7.02873e-06
9.33786e-06
1.35021e-05
1.90439e-05
2.4406e-05
2.82887e-05
3.05282e-05
3.10917e-05
2.9524e-05
2.53503e-05
1.85988e-05
9.88833e-06
2.17406e-07
0
0
0
0
0
0
0
0
2.04782e-06
0
0
0
0
0
0
0
0
0
0
0
0
0
1.02344e-05
1.26041e-05
1.21684e-05
1.06354e-05
6.7606e-06
3.37942e-06
2.06772e-06
1.76141e-06
9.80281e-07
0
0
0
0
0
0
0
0
0
1.17669e-05
3.6191e-05
5.88744e-05
0
0
0
0
8.73121e-06
1.80657e-05
2.06204e-05
1.8444e-05
1.3847e-05
8.96019e-06
5.7016e-06
4.18612e-06
1.5035e-06
0
0
0
0
0
0
0
0
0
1.28403e-05
2.23378e-05
2.56588e-05
2.77811e-05
3.36602e-05
3.8284e-05
3.85291e-05
3.57559e-05
3.13964e-05
2.66645e-05
2.23344e-05
1.87556e-05
1.60083e-05
1.40314e-05
1.26876e-05
1.17976e-05
1.11687e-05
1.06327e-05
1.00901e-05
9.55277e-06
9.17234e-06
9.24436e-06
1.01766e-05
1.23891e-05
1.60769e-05
2.07936e-05
2.53332e-05
2.86784e-05
3.06078e-05
3.09788e-05
2.92997e-05
2.50926e-05
1.83866e-05
9.80591e-06
3.29727e-07
0
0
0
0
0
0
0
0
5.43675e-06
0
0
0
0
0
0
0
0
0
0
0
0
0
4.44943e-07
6.62955e-06
6.69615e-06
4.53925e-06
2.48449e-06
2.31735e-06
2.60954e-06
2.12702e-06
1.10808e-06
0
0
0
0
0
0
0
0
0
0
6.00974e-06
1.30668e-05
0
0
0
6.24137e-06
1.62663e-05
2.0991e-05
2.09197e-05
1.74479e-05
1.24413e-05
7.85834e-06
5.72174e-06
4.75944e-06
1.7214e-06
0
0
0
0
0
0
0
0
0
9.05567e-06
1.63379e-05
2.08501e-05
2.76009e-05
3.57511e-05
3.99643e-05
3.98264e-05
3.6782e-05
3.23662e-05
2.77301e-05
2.35294e-05
2.0052e-05
1.73746e-05
1.54565e-05
1.41827e-05
1.33905e-05
1.28997e-05
1.255e-05
1.22422e-05
1.19759e-05
1.18723e-05
1.21737e-05
1.32049e-05
1.52753e-05
1.84832e-05
2.24327e-05
2.62061e-05
2.90235e-05
3.06407e-05
3.08277e-05
2.90559e-05
2.48421e-05
1.82102e-05
9.7761e-06
4.94742e-07
0
0
0
0
0
0
0
0
8.64503e-06
0
0
0
0
0
0
0
0
0
0
0
0
0
4.44225e-07
1.14736e-06
1.31968e-06
1.87491e-06
2.61598e-06
3.16072e-06
3.01321e-06
2.29055e-06
1.21723e-06
0
0
0
0
0
0
0
0
0
0
0
0
3.15825e-07
2.19743e-06
7.773e-06
1.4805e-05
1.98073e-05
2.13729e-05
1.95826e-05
1.54137e-05
1.04306e-05
6.83397e-06
6.26239e-06
5.49185e-06
1.88546e-06
0
0
0
0
0
0
0
0
0
5.8528e-06
1.23824e-05
1.98676e-05
2.97887e-05
3.78292e-05
4.1281e-05
4.06441e-05
3.74455e-05
3.31302e-05
2.86712e-05
2.46202e-05
2.12437e-05
1.86379e-05
1.67882e-05
1.55987e-05
1.492e-05
1.45815e-05
1.4428e-05
1.43571e-05
1.43532e-05
1.45052e-05
1.50014e-05
1.60887e-05
1.79828e-05
2.07146e-05
2.39477e-05
2.70001e-05
2.9295e-05
3.05949e-05
3.06066e-05
2.87644e-05
2.45718e-05
1.80424e-05
9.78024e-06
7.11859e-07
0
0
0
0
0
0
0
0
1.13174e-05
0
0
0
0
0
0
0
0
0
0
0
0
0
1.4234e-07
7.06447e-07
1.60613e-06
2.6241e-06
3.34202e-06
3.54398e-06
3.26613e-06
2.55055e-06
1.42903e-06
3.98211e-08
0
0
0
0
0
0
0
0
0
0
0
2.96589e-07
6.16864e-06
1.19195e-05
1.66923e-05
1.93558e-05
1.93329e-05
1.67532e-05
1.24882e-05
8.14065e-06
6.56803e-06
7.36514e-06
6.30042e-06
1.95221e-06
0
0
0
0
0
0
0
0
0
3.99532e-06
1.17713e-05
2.19377e-05
3.23151e-05
3.9376e-05
4.19922e-05
4.10024e-05
3.78561e-05
3.37502e-05
2.94941e-05
2.55863e-05
2.2304e-05
1.97718e-05
1.79989e-05
1.69051e-05
1.63522e-05
1.61778e-05
1.62292e-05
1.63978e-05
1.66488e-05
1.70361e-05
1.76944e-05
1.87991e-05
2.04887e-05
2.27509e-05
2.53131e-05
2.76881e-05
2.94731e-05
3.04579e-05
3.03074e-05
2.84209e-05
2.42807e-05
1.78837e-05
9.81813e-06
9.78626e-07
0
0
0
0
0
0
0
0
1.30802e-05
0
0
0
0
0
0
0
0
0
0
0
0
0
4.20924e-07
1.43859e-06
2.46065e-06
3.29141e-06
3.82993e-06
4.06981e-06
3.9007e-06
3.15702e-06
1.82637e-06
1.07682e-07
0
0
0
0
0
0
0
0
0
0
0
0
5.56396e-06
1.07795e-05
1.45373e-05
1.62113e-05
1.55744e-05
1.29065e-05
9.11552e-06
6.51145e-06
7.57086e-06
8.82981e-06
7.0949e-06
1.94319e-06
0
0
0
0
0
0
0
0
0
3.52513e-06
1.33961e-05
2.44982e-05
3.4121e-05
4.0108e-05
4.21138e-05
4.10575e-05
3.81119e-05
3.42484e-05
3.01821e-05
2.64002e-05
2.32039e-05
2.0745e-05
1.90527e-05
1.80606e-05
1.76413e-05
1.76397e-05
1.79035e-05
1.83142e-05
1.88141e-05
1.94191e-05
2.02108e-05
2.12997e-05
2.27628e-05
2.45637e-05
2.64954e-05
2.82334e-05
2.95238e-05
3.01971e-05
2.98967e-05
2.79921e-05
2.39373e-05
1.77062e-05
9.87006e-06
1.28954e-06
0
0
0
0
0
0
0
0
1.37049e-05
0
0
0
0
0
0
0
0
0
0
0
0
0
5.99213e-07
1.7464e-06
2.85553e-06
3.86433e-06
4.71079e-06
5.21664e-06
5.08927e-06
4.12927e-06
2.39821e-06
1.8839e-07
0
0
0
0
0
0
0
0
0
0
0
0
3.82478e-06
7.91273e-06
1.07535e-05
1.18389e-05
1.10857e-05
8.84285e-06
6.41287e-06
6.90218e-06
9.51203e-06
1.04095e-05
7.83805e-06
1.93102e-06
0
0
0
0
0
0
0
0
0
3.84169e-06
1.5178e-05
2.61657e-05
3.48519e-05
4.00826e-05
4.18714e-05
4.0953e-05
3.82531e-05
3.46132e-05
3.0708e-05
2.70315e-05
2.39092e-05
2.15174e-05
1.99028e-05
1.90124e-05
1.87293e-05
1.89052e-05
1.93868e-05
2.00424e-05
2.07869e-05
2.15956e-05
2.24971e-05
2.35444e-05
2.47664e-05
2.61183e-05
2.74582e-05
2.86002e-05
2.9418e-05
2.9791e-05
2.93576e-05
2.74644e-05
2.3532e-05
1.75021e-05
9.92582e-06
1.63032e-06
0
0
0
0
0
0
0
0
1.33485e-05
0
0
0
0
0
0
0
0
0
0
0
0
0
8.68307e-07
2.30097e-06
3.81155e-06
5.27867e-06
6.47015e-06
7.05769e-06
6.72456e-06
5.34547e-06
3.07167e-06
2.61426e-07
0
0
0
0
0
0
0
0
0
0
0
0
2.20694e-06
4.94979e-06
6.83569e-06
7.56119e-06
7.14923e-06
6.07407e-06
6.30506e-06
9.07095e-06
1.17884e-05
1.196e-05
8.56174e-06
1.99214e-06
0
0
0
0
0
0
0
0
0
4.38787e-06
1.60943e-05
2.66268e-05
3.46985e-05
3.9637e-05
4.14657e-05
4.07462e-05
3.82718e-05
3.48188e-05
3.10414e-05
2.74436e-05
2.43757e-05
2.20375e-05
2.04921e-05
1.96979e-05
1.95483e-05
1.99016e-05
2.06027e-05
2.15045e-05
2.2491e-05
2.34933e-05
2.44883e-05
2.54769e-05
2.64522e-05
2.73724e-05
2.81606e-05
2.87485e-05
2.91208e-05
2.921e-05
2.86632e-05
2.68124e-05
2.30414e-05
1.72507e-05
9.96896e-06
1.99114e-06
0
0
0
0
0
0
0
0
1.22727e-05
0
0
0
0
0
0
0
0
0
0
0
0
0
1.42607e-06
3.43909e-06
5.5122e-06
7.39475e-06
8.73542e-06
9.17591e-06
8.46308e-06
6.56836e-06
3.71653e-06
3.00809e-07
0
0
0
0
0
0
0
0
0
0
0
0
1.12719e-06
2.74593e-06
4.11505e-06
5.16018e-06
5.76008e-06
6.39617e-06
8.50488e-06
1.17939e-05
1.40676e-05
1.34582e-05
9.31592e-06
2.15924e-06
0
0
0
0
0
0
0
0
0
4.5614e-06
1.61353e-05
2.63289e-05
3.41489e-05
3.90353e-05
4.09692e-05
4.04319e-05
3.81453e-05
3.48368e-05
3.11442e-05
2.75875e-05
2.45465e-05
2.22446e-05
2.07577e-05
2.00518e-05
2.00284e-05
2.05532e-05
2.147e-05
2.26155e-05
2.38405e-05
2.503e-05
2.61088e-05
2.70317e-05
2.77655e-05
2.82801e-05
2.8561e-05
2.86419e-05
2.86036e-05
2.84332e-05
2.77968e-05
2.60205e-05
2.24514e-05
1.69393e-05
9.98436e-06
2.35225e-06
0
0
0
0
0
0
0
0
1.05773e-05
0
0
0
0
0
0
0
0
0
0
0
0
0
2.2354e-06
4.88929e-06
7.45706e-06
9.58827e-06
1.08953e-05
1.10632e-05
9.92914e-06
7.54951e-06
4.19816e-06
2.82506e-07
0
0
0
0
0
0
0
0
0
0
0
0
1.01204e-06
2.63451e-06
4.38852e-06
5.94524e-06
7.03821e-06
8.42912e-06
1.12186e-05
1.45244e-05
1.62612e-05
1.49153e-05
1.0097e-05
2.40777e-06
0
0
0
0
0
0
0
0
0
4.48062e-06
1.5826e-05
2.57998e-05
3.34874e-05
3.83565e-05
4.03803e-05
3.99932e-05
3.78501e-05
3.46287e-05
3.09611e-05
2.7398e-05
2.43553e-05
2.20769e-05
2.06432e-05
2.00206e-05
2.0115e-05
2.07992e-05
2.19188e-05
2.32967e-05
2.47516e-05
2.61216e-05
2.72804e-05
2.81404e-05
2.86493e-05
2.87945e-05
2.86204e-05
2.82486e-05
2.78431e-05
2.74443e-05
2.67448e-05
2.50745e-05
2.17478e-05
1.65562e-05
9.96363e-06
2.70871e-06
0
0
0
0
0
0
0
0
8.15885e-06
0
0
0
0
0
0
0
0
0
0
0
0
3.87136e-08
3.08592e-06
6.19647e-06
9.04864e-06
1.12497e-05
1.24272e-05
1.23242e-05
1.08515e-05
8.12133e-06
4.4313e-06
1.91562e-07
0
0
0
0
0
0
0
0
0
0
0
0
1.64788e-06
3.92571e-06
5.95534e-06
7.41321e-06
8.52831e-06
1.05362e-05
1.39186e-05
1.71621e-05
1.83332e-05
1.62778e-05
1.08379e-05
2.68968e-06
0
0
0
0
0
0
0
0
0
4.38151e-06
1.5471e-05
2.52256e-05
3.27693e-05
3.76008e-05
3.96904e-05
3.94145e-05
3.73493e-05
3.41321e-05
3.04151e-05
2.67993e-05
2.37395e-05
2.14899e-05
2.01219e-05
1.95903e-05
1.97979e-05
2.06236e-05
2.1919e-05
2.35015e-05
2.51638e-05
2.67005e-05
2.79357e-05
2.87425e-05
2.90542e-05
2.88778e-05
2.83119e-05
2.75521e-05
2.68324e-05
2.62427e-05
2.55066e-05
2.3968e-05
2.09187e-05
1.60878e-05
9.89148e-06
3.0402e-06
0
0
0
0
0
0
0
0
4.9109e-06
0
0
0
0
0
0
0
0
0
0
0
0
4.60309e-07
3.74372e-06
7.0197e-06
9.93155e-06
1.2083e-05
1.31246e-05
1.28376e-05
1.11712e-05
8.26184e-06
4.41105e-06
2.76752e-08
0
0
0
0
0
0
0
0
0
0
0
0
2.16899e-06
4.76016e-06
6.70049e-06
8.00802e-06
9.62002e-06
1.2679e-05
1.66138e-05
1.96329e-05
2.01667e-05
1.74362e-05
1.1474e-05
2.98243e-06
0
0
0
0
0
0
0
0
0
4.33615e-06
1.51252e-05
2.46218e-05
3.19932e-05
3.67675e-05
3.88925e-05
3.86617e-05
3.65724e-05
3.32531e-05
2.94138e-05
2.57226e-05
2.26657e-05
2.04887e-05
1.9234e-05
1.88276e-05
1.91561e-05
2.00998e-05
2.15237e-05
2.32543e-05
2.50737e-05
2.67426e-05
2.80408e-05
2.88039e-05
2.89521e-05
2.85114e-05
2.76276e-05
2.65564e-05
2.55865e-05
2.48497e-05
2.41022e-05
2.27127e-05
1.99676e-05
1.55375e-05
9.77479e-06
3.35424e-06
0
0
0
0
0
0
0
0
5.04213e-06
0
0
0
0
0
0
0
0
0
0
0
0
8.84141e-07
4.1568e-06
7.38307e-06
1.02072e-05
1.22477e-05
1.31749e-05
1.2786e-05
1.10411e-05
8.07972e-06
4.19839e-06
0
0
0
0
0
0
0
0
0
0
0
0
0
2.29247e-06
4.71471e-06
6.44557e-06
8.12414e-06
1.09528e-05
1.50708e-05
1.91899e-05
2.17426e-05
2.16096e-05
1.83222e-05
1.20044e-05
3.30265e-06
0
0
0
0
0
0
0
0
0
4.33915e-06
1.47828e-05
2.39853e-05
3.1162e-05
3.58547e-05
3.79552e-05
3.76566e-05
3.54044e-05
3.18745e-05
2.78742e-05
2.41421e-05
2.11734e-05
1.91763e-05
1.8138e-05
1.79322e-05
1.84101e-05
1.94445e-05
2.09216e-05
2.27003e-05
2.45795e-05
2.63072e-05
2.76285e-05
2.83447e-05
2.83611e-05
2.77181e-05
2.65986e-05
2.53028e-05
2.41556e-05
2.33176e-05
2.25748e-05
2.13317e-05
1.88953e-05
1.48956e-05
9.60282e-06
3.63612e-06
0
0
0
0
0
0
0
0
1.25077e-06
0
0
0
0
0
0
0
0
0
0
0
0
1.24953e-06
4.36383e-06
7.41798e-06
1.00755e-05
1.19762e-05
1.28053e-05
1.23635e-05
1.06085e-05
7.67296e-06
3.8457e-06
0
0
0
0
0
0
0
0
0
0
0
0
0
2.07785e-06
4.14343e-06
6.05995e-06
8.83208e-06
1.28954e-05
1.74927e-05
2.13432e-05
2.32913e-05
2.25949e-05
1.8961e-05
1.24828e-05
3.68093e-06
0
0
0
0
0
0
0
0
0
4.38052e-06
1.44385e-05
2.3317e-05
3.0274e-05
3.48324e-05
3.67924e-05
3.62596e-05
3.36949e-05
2.98899e-05
2.57745e-05
2.2136e-05
1.94379e-05
1.78113e-05
1.7156e-05
1.72687e-05
1.79464e-05
1.90431e-05
2.04707e-05
2.21463e-05
2.39248e-05
2.55765e-05
2.68328e-05
2.7466e-05
2.7364e-05
2.65725e-05
2.52991e-05
2.38706e-05
2.26272e-05
2.17386e-05
2.10114e-05
1.98937e-05
1.77441e-05
1.41881e-05
9.40194e-06
3.91288e-06
0
0
0
0
0
0
0
0
1.76514e-06
0
0
0
0
0
0
0
0
0
0
0
0
1.52387e-06
4.41878e-06
7.25236e-06
9.71311e-06
1.14639e-05
1.22027e-05
1.17305e-05
9.99747e-06
7.127e-06
3.40094e-06
0
0
0
0
0
0
0
0
0
0
0
0
0
1.7927e-06
3.83339e-06
6.53855e-06
1.0386e-05
1.50051e-05
1.94805e-05
2.28139e-05
2.42119e-05
2.31715e-05
1.94358e-05
1.2972e-05
4.14132e-06
0
0
0
0
0
0
0
0
0
4.45502e-06
1.40902e-05
2.26125e-05
2.92975e-05
3.36049e-05
3.52373e-05
3.42796e-05
3.13053e-05
2.72787e-05
2.32402e-05
1.99689e-05
1.78292e-05
1.68233e-05
1.67377e-05
1.7288e-05
1.82183e-05
1.93584e-05
2.06366e-05
2.20357e-05
2.35023e-05
2.48781e-05
2.59177e-05
2.63814e-05
2.61376e-05
2.52264e-05
2.3864e-05
2.23835e-05
2.11172e-05
2.02203e-05
1.95058e-05
1.84662e-05
1.65442e-05
1.3415e-05
9.16818e-06
4.18431e-06
0
0
0
0
0
0
0
0
4.53475e-07
0
0
0
0
0
0
0
0
0
0
0
0
1.71255e-06
4.35701e-06
6.9467e-06
9.19704e-06
1.07938e-05
1.14472e-05
1.09572e-05
9.26506e-06
6.48441e-06
2.89232e-06
0
0
0
0
0
0
0
0
0
0
0
0
0
1.76533e-06
4.26636e-06
7.75069e-06
1.20855e-05
1.66692e-05
2.07239e-05
2.35386e-05
2.45771e-05
2.34473e-05
1.98314e-05
1.35213e-05
4.70479e-06
0
0
0
0
0
0
0
0
0
4.55618e-06
1.37276e-05
2.18339e-05
2.81249e-05
3.19775e-05
3.30555e-05
3.1542e-05
2.82186e-05
2.42313e-05
2.06551e-05
1.81453e-05
1.6869e-05
1.66649e-05
1.72358e-05
1.82649e-05
1.94743e-05
2.06677e-05
2.17616e-05
2.27735e-05
2.37419e-05
2.46202e-05
2.52413e-05
2.539e-05
2.4927e-05
2.38794e-05
2.24546e-05
2.09724e-05
1.97357e-05
1.88654e-05
1.81638e-05
1.7157e-05
1.5385e-05
1.26316e-05
8.93869e-06
4.4918e-06
0
0
0
0
0
0
0
0
0
0
0
0
0
0
0
0
0
0
0
0
0
1.79276e-06
4.17623e-06
6.51651e-06
8.55639e-06
1.0004e-05
1.05811e-05
1.00853e-05
8.44808e-06
5.77398e-06
2.33884e-06
0
0
0
0
0
0
0
0
0
0
0
0
0
2.08674e-06
5.10644e-06
8.98428e-06
1.33411e-05
1.76032e-05
2.119e-05
2.36243e-05
2.45263e-05
2.35281e-05
2.0209e-05
1.41688e-05
5.40013e-06
0
0
0
0
0
0
0
0
0
4.67008e-06
1.33069e-05
2.0864e-05
2.65399e-05
2.96807e-05
3.00456e-05
2.80508e-05
2.47252e-05
2.13023e-05
1.86998e-05
1.72681e-05
1.69335e-05
1.74661e-05
1.85996e-05
2.00495e-05
2.1536e-05
2.28295e-05
2.38023e-05
2.44552e-05
2.48733e-05
2.51181e-05
2.5142e-05
2.48081e-05
2.40026e-05
2.27459e-05
2.12257e-05
1.97318e-05
1.85227e-05
1.76724e-05
1.69648e-05
1.5953e-05
1.42684e-05
1.18393e-05
8.70829e-06
4.85029e-06
2.3443e-07
0
0
0
0
0
0
0
0
0
0
0
0
0
0
0
0
0
0
0
0
1.78738e-06
3.9049e-06
5.99489e-06
7.82738e-06
9.13272e-06
9.64307e-06
9.15315e-06
7.58339e-06
5.02939e-06
1.76959e-06
0
0
0
0
0
0
0
0
0
0
0
0
7.99064e-08
2.57466e-06
5.90968e-06
9.84771e-06
1.3972e-05
1.78283e-05
2.10241e-05
2.3245e-05
2.41913e-05
2.34832e-05
2.06009e-05
1.49488e-05
6.27083e-06
0
0
0
0
0
0
0
0
0
4.76079e-06
1.27155e-05
1.94838e-05
2.42643e-05
2.65194e-05
2.62755e-05
2.42582e-05
2.16292e-05
1.94034e-05
1.80377e-05
1.75508e-05
1.78517e-05
1.88437e-05
2.03596e-05
2.21436e-05
2.39003e-05
2.53576e-05
2.63272e-05
2.67573e-05
2.67256e-05
2.63559e-05
2.57139e-05
2.47772e-05
2.35021e-05
2.19278e-05
2.02263e-05
1.8652e-05
1.74159e-05
1.65429e-05
1.57949e-05
1.47609e-05
1.31589e-05
1.10406e-05
8.47153e-06
5.26324e-06
1.08146e-06
0
0
0
0
0
0
0
0
0
0
0
0
0
0
0
0
0
0
0
0
1.68005e-06
3.52829e-06
5.37058e-06
7.00275e-06
8.1764e-06
8.63353e-06
8.16396e-06
6.67481e-06
4.25284e-06
1.18489e-06
0
0
0
0
0
0
0
0
0
0
0
0
3.16466e-07
3.07219e-06
6.48944e-06
1.02637e-05
1.4043e-05
1.75126e-05
2.04232e-05
2.25577e-05
2.36571e-05
2.33364e-05
2.10119e-05
1.58957e-05
7.38453e-06
0
0
0
0
0
0
0
0
0
4.75091e-06
1.17689e-05
1.74569e-05
2.11742e-05
2.27055e-05
2.24582e-05
2.13195e-05
2.01167e-05
1.91936e-05
1.8602e-05
1.84597e-05
1.89509e-05
2.01488e-05
2.19218e-05
2.39884e-05
2.60162e-05
2.76906e-05
2.87672e-05
2.91326e-05
2.88235e-05
2.79738e-05
2.6726e-05
2.5168e-05
2.33496e-05
2.13571e-05
1.93637e-05
1.75966e-05
1.62245e-05
1.52218e-05
1.43221e-05
1.32169e-05
1.18029e-05
1.00923e-05
8.11997e-06
5.6502e-06
2.07006e-06
0
0
0
0
0
0
0
0
0
0
0
0
0
0
0
0
0
0
0
6.87437e-08
1.51126e-06
3.09266e-06
4.69382e-06
6.13496e-06
7.18855e-06
7.60644e-06
7.17203e-06
5.77614e-06
3.49546e-06
6.3174e-07
0
0
0
0
0
0
0
0
0
0
0
0
6.38588e-07
3.49525e-06
6.80448e-06
1.02916e-05
1.37039e-05
1.68423e-05
1.95478e-05
2.16584e-05
2.29508e-05
2.30673e-05
2.14157e-05
1.70382e-05
8.8481e-06
0
0
0
0
0
0
0
0
0
4.52879e-06
1.03263e-05
1.48089e-05
1.77292e-05
1.93262e-05
2.01695e-05
2.064e-05
2.06673e-05
2.01604e-05
1.94401e-05
1.90806e-05
1.95111e-05
2.08314e-05
2.28397e-05
2.51816e-05
2.74803e-05
2.93906e-05
3.06306e-05
3.10352e-05
3.05925e-05
2.94216e-05
2.76994e-05
2.55919e-05
2.32371e-05
2.07821e-05
1.84193e-05
1.63635e-05
1.47517e-05
1.3495e-05
1.22394e-05
1.08591e-05
9.88859e-06
8.83627e-06
7.53284e-06
5.85194e-06
3.08569e-06
0
0
0
0
0
0
0
0
0
3.23255e-07
0
0
0
0
0
0
0
0
0
7.59282e-08
1.25519e-06
2.57332e-06
3.93593e-06
5.18956e-06
6.13012e-06
6.52069e-06
6.13712e-06
4.84953e-06
2.72168e-06
7.95196e-08
0
0
0
0
0
0
0
0
0
0
0
0
1.0294e-06
3.82686e-06
6.904e-06
1.00559e-05
1.31194e-05
1.5971e-05
1.85034e-05
2.0594e-05
2.20673e-05
2.26294e-05
2.17505e-05
1.83844e-05
1.0836e-05
0
0
0
0
0
0
0
0
0
4.04453e-06
8.59082e-06
1.23027e-05
1.54139e-05
1.82463e-05
2.07038e-05
2.2169e-05
2.21433e-05
2.09186e-05
1.94601e-05
1.87106e-05
1.91143e-05
2.06347e-05
2.29287e-05
2.55554e-05
2.81068e-05
3.02295e-05
3.16247e-05
3.20975e-05
3.16012e-05
3.02291e-05
2.81647e-05
2.56193e-05
2.27968e-05
1.99001e-05
1.71466e-05
1.47475e-05
1.28177e-05
1.11976e-05
9.3448e-06
7.32671e-06
7.48222e-06
7.33617e-06
6.69899e-06
5.74508e-06
3.85743e-06
0
0
0
0
0
0
0
0
0
1.41732e-06
0
0
0
0
0
0
0
0
0
4.31492e-08
9.72954e-07
2.04173e-06
3.17654e-06
4.25262e-06
5.0921e-06
5.47196e-06
5.16072e-06
4.00138e-06
2.03609e-06
0
0
0
0
0
0
0
0
0
0
0
0
0
1.44475e-06
4.06219e-06
6.84443e-06
9.65468e-06
1.23908e-05
1.49729e-05
1.73266e-05
1.93657e-05
2.09719e-05
2.19405e-05
2.18791e-05
1.98473e-05
1.35749e-05
0
0
0
0
0
0
0
0
0
3.54499e-06
7.48796e-06
1.15285e-05
1.58026e-05
1.99454e-05
2.30419e-05
2.40821e-05
2.28328e-05
2.03105e-05
1.80643e-05
1.71302e-05
1.77268e-05
1.95811e-05
2.22023e-05
2.50911e-05
2.78355e-05
3.00944e-05
3.15751e-05
3.20787e-05
3.15411e-05
3.00337e-05
2.77337e-05
2.48737e-05
2.16994e-05
1.84549e-05
1.53797e-05
1.26895e-05
1.05063e-05
8.67615e-06
6.49511e-06
3.33412e-06
5.39525e-06
6.02172e-06
5.90258e-06
5.55395e-06
4.47731e-06
1.48695e-06
0
0
0
0
0
0
0
0
2.61624e-06
4.46355e-07
0
0
0
0
0
0
0
0
0
6.41501e-07
1.458e-06
2.36067e-06
3.25371e-06
3.9883e-06
4.36081e-06
4.13647e-06
3.12476e-06
1.33145e-06
0
0
0
0
0
0
0
0
0
0
0
0
0
1.88003e-06
4.24688e-06
6.7108e-06
9.18473e-06
1.16031e-05
1.39119e-05
1.60611e-05
1.79976e-05
1.96584e-05
2.09327e-05
2.16091e-05
2.11411e-05
1.7122e-05
1.92165e-06
0
0
0
0
0
0
0
0
3.68506e-06
8.02383e-06
1.29076e-05
1.79638e-05
2.23644e-05
2.4934e-05
2.46517e-05
2.17267e-05
1.79558e-05
1.52772e-05
1.453e-05
1.55294e-05
1.77582e-05
2.06518e-05
2.37202e-05
2.65705e-05
2.888e-05
3.03658e-05
3.08358e-05
3.0227e-05
2.86043e-05
2.61417e-05
2.30813e-05
1.96905e-05
1.62359e-05
1.29659e-05
1.00957e-05
7.77929e-06
6.03444e-06
4.80586e-06
4.03738e-06
4.92109e-06
4.91139e-06
4.96294e-06
5.11709e-06
4.71045e-06
2.59828e-06
0
0
0
0
0
0
0
0
3.62481e-06
1.42786e-06
6.53458e-07
2.59064e-07
0
0
0
0
0
0
0
3.58157e-07
9.43459e-07
1.63092e-06
2.35316e-06
2.99431e-06
3.37909e-06
3.28021e-06
2.46753e-06
8.59343e-07
0
0
0
0
0
0
0
0
0
0
0
0
3.21371e-07
2.26979e-06
4.35166e-06
6.49382e-06
8.63965e-06
1.07445e-05
1.27708e-05
1.46868e-05
1.64634e-05
1.80778e-05
1.94937e-05
2.06502e-05
2.15196e-05
2.02089e-05
5.20096e-06
0
0
0
0
0
0
0
3.53385e-07
4.58574e-06
9.41849e-06
1.45767e-05
1.95429e-05
2.34466e-05
2.50954e-05
2.34126e-05
1.88953e-05
1.41767e-05
1.15311e-05
1.13044e-05
1.27172e-05
1.51315e-05
1.80892e-05
2.11796e-05
2.403e-05
2.63224e-05
2.7762e-05
2.81541e-05
2.74469e-05
2.57186e-05
2.31542e-05
2.00068e-05
1.65532e-05
1.30606e-05
9.76254e-06
6.83995e-06
4.40137e-06
2.48049e-06
1.20662e-06
7.52692e-07
7.70755e-07
1.25532e-06
1.68141e-06
2.09612e-06
2.25532e-06
1.3503e-06
0
0
0
0
0
0
0
0
4.79763e-06
2.55093e-06
1.71106e-06
1.23975e-06
8.38827e-07
4.74102e-07
1.60619e-07
0
0
0
0
4.45465e-08
3.9749e-07
8.653e-07
1.40598e-06
1.93913e-06
2.32974e-06
2.38068e-06
1.83556e-06
4.13788e-07
0
0
0
0
0
0
0
0
0
0
0
0
9.73798e-07
2.67373e-06
4.46043e-06
6.28598e-06
8.11162e-06
9.90524e-06
1.16401e-05
1.32953e-05
1.48553e-05
1.63148e-05
1.76704e-05
1.89194e-05
2.01802e-05
1.97993e-05
5.05754e-06
0
0
0
0
0
0
0
9.39142e-07
5.4336e-06
1.01643e-05
1.49122e-05
1.92926e-05
2.26079e-05
2.37644e-05
2.12674e-05
1.5292e-05
1.01227e-05
8.15453e-06
8.32562e-06
9.54961e-06
1.16348e-05
1.43519e-05
1.7315e-05
2.01307e-05
2.24308e-05