/*--------------------------------*- C++ -*----------------------------------*\
  =========                 |
  \\      /  F ield         | OpenFOAM: The Open Source CFD Toolbox
   \\    /   O peration     | Website:  https://openfoam.org
    \\  /    A nd           | Version:  10
     \\/     M anipulation  |
\*---------------------------------------------------------------------------*/
FoamFile
{
    format      ascii;
    class       volScalarField;
    location    "0.13";
    object      p;
}
// * * * * * * * * * * * * * * * * * * * * * * * * * * * * * * * * * * * * * //

dimensions      [0 2 -2 0 0 0 0];

internalField   nonuniform List<scalar> 
6820
(
-10.272
-10.5734
-10.6163
-10.6275
-10.6535
-10.6707
-10.6793
-10.6836
-10.6841
-10.6803
-10.6724
-10.6605
-10.6442
-10.6234
-10.5976
-10.5664
-10.5294
-10.4859
-10.4352
-10.3766
-10.3093
-10.2323
-10.1447
-10.0456
-9.93393
-9.80916
-9.67082
-9.51919
-9.35507
-9.18098
-9.00099
-8.81557
-8.66165
-10.474
-10.5979
-10.6313
-10.6425
-10.6627
-10.6769
-10.684
-10.6874
-10.6873
-10.6834
-10.6755
-10.6637
-10.6478
-10.6275
-10.6024
-10.5721
-10.5361
-10.4939
-10.4448
-10.3882
-10.3232
-10.2489
-10.1646
-10.0694
-9.96227
-9.84266
-9.71011
-9.56475
-9.40715
-9.23993
-9.06465
-8.89291
-8.72001
-10.4742
-10.5585
-10.614
-10.6363
-10.6588
-10.6758
-10.6854
-10.6905
-10.6918
-10.689
-10.6822
-10.6715
-10.6566
-10.6375
-10.6138
-10.5851
-10.5512
-10.5115
-10.4655
-10.4128
-10.3528
-10.2848
-10.2085
-10.1232
-10.0286
-9.92474
-9.81168
-9.69017
-9.56163
-9.42842
-9.29509
-9.1663
-9.06136
-10.5318
-10.6006
-10.6456
-10.6616
-10.6777
-10.6908
-10.6978
-10.701
-10.7008
-10.697
-10.6896
-10.6785
-10.6636
-10.6447
-10.6215
-10.5936
-10.5607
-10.5225
-10.4785
-10.4283
-10.3714
-10.3074
-10.236
-10.1569
-10.0701
-9.97589
-9.87478
-9.76802
-9.6576
-9.54638
-9.43925
-9.34065
-9.2655
-10.5627
-10.6005
-10.6368
-10.6556
-10.673
-10.6875
-10.6963
-10.7011
-10.7023
-10.6999
-10.6938
-10.6841
-10.6706
-10.6532
-10.6316
-10.6056
-10.575
-10.5393
-10.4983
-10.4518
-10.3993
-10.3407
-10.2758
-10.2046
-10.1273
-10.0445
-9.95699
-9.86621
-9.77434
-9.68416
-9.60022
-9.52591
-9.47178
-10.5939
-10.6236
-10.6582
-10.6776
-10.6926
-10.7047
-10.712
-10.7155
-10.7157
-10.7125
-10.7061
-10.6962
-10.6829
-10.6659
-10.6452
-10.6204
-10.5913
-10.5577
-10.5194
-10.4761
-10.4277
-10.3741
-10.3152
-10.2514
-10.1829
-10.1106
-10.0354
-9.95906
-9.88369
-9.81201
-9.74799
-9.6946
-9.65883
-10.6204
-10.6394
-10.6654
-10.6816
-10.6945
-10.7057
-10.7132
-10.7173
-10.7183
-10.7162
-10.7109
-10.7025
-10.6906
-10.6754
-10.6565
-10.634
-10.6075
-10.5769
-10.5421
-10.503
-10.4596
-10.4119
-10.36
-10.3044
-10.2457
-10.1846
-10.1225
-10.0609
-10.0022
-9.94882
-9.90417
-9.87084
-9.85371
-10.6445
-10.6582
-10.6807
-10.6971
-10.7099
-10.7206
-10.7279
-10.7317
-10.7326
-10.7305
-10.7254
-10.7173
-10.7061
-10.6918
-10.6742
-10.6533
-10.6288
-10.6009
-10.5693
-10.5341
-10.4953
-10.4532
-10.408
-10.3602
-10.3106
-10.2601
-10.2101
-10.1623
-10.1188
-10.082
-10.0548
-10.0397
-10.0405
-10.6668
-10.6764
-10.694
-10.7079
-10.7187
-10.7278
-10.7343
-10.7379
-10.739
-10.7374
-10.7332
-10.7262
-10.7165
-10.7039
-10.6884
-10.6698
-10.6482
-10.6236
-10.5959
-10.5652
-10.5318
-10.4958
-10.4578
-10.4182
-10.3781
-10.3384
-10.3005
-10.2661
-10.2372
-10.2161
-10.2054
-10.2074
-10.2254
-10.6876
-10.6946
-10.709
-10.7217
-10.7321
-10.7409
-10.7475
-10.7514
-10.7529
-10.7519
-10.7484
-10.7424
-10.7338
-10.7227
-10.7089
-10.6925
-10.6734
-10.6518
-10.6278
-10.6014
-10.573
-10.5429
-10.5117
-10.48
-10.4488
-10.4191
-10.3924
-10.3703
-10.3548
-10.3478
-10.352
-10.3693
-10.4029
-10.7074
-10.7126
-10.7242
-10.7352
-10.7443
-10.752
-10.7579
-10.7616
-10.7632
-10.7627
-10.7599
-10.7549
-10.7477
-10.7383
-10.7266
-10.7127
-10.6966
-10.6785
-10.6585
-10.6368
-10.6138
-10.5899
-10.5657
-10.5419
-10.5196
-10.4998
-10.4839
-10.4735
-10.4704
-10.4766
-10.4942
-10.5254
-10.5729
-10.7264
-10.7305
-10.7399
-10.7496
-10.758
-10.7653
-10.7712
-10.7752
-10.7774
-10.7776
-10.7759
-10.7722
-10.7665
-10.7588
-10.7493
-10.7379
-10.7247
-10.71
-10.6939
-10.6767
-10.6589
-10.6409
-10.6233
-10.6071
-10.593
-10.5823
-10.5763
-10.5764
-10.5845
-10.6022
-10.6316
-10.6745
-10.7336
-10.745
-10.7481
-10.7559
-10.7643
-10.7719
-10.7786
-10.7842
-10.7882
-10.7906
-10.7914
-10.7905
-10.788
-10.7838
-10.7779
-10.7705
-10.7617
-10.7516
-10.7404
-10.7284
-10.7158
-10.7032
-10.6911
-10.6802
-10.6712
-10.6651
-10.663
-10.6663
-10.6761
-10.6942
-10.7222
-10.7618
-10.8148
-10.8835
-10.7631
-10.7656
-10.7722
-10.7796
-10.7865
-10.793
-10.7985
-10.8029
-10.8059
-10.8075
-10.8078
-10.8066
-10.8041
-10.8002
-10.7952
-10.7891
-10.782
-10.7744
-10.7663
-10.7583
-10.7508
-10.7443
-10.7395
-10.7373
-10.7385
-10.7443
-10.7557
-10.7742
-10.801
-10.8376
-10.8857
-10.9467
-11.0226
-10.7809
-10.7831
-10.7886
-10.7952
-10.8017
-10.8078
-10.8133
-10.8178
-10.8213
-10.8237
-10.825
-10.8251
-10.8242
-10.8222
-10.8195
-10.816
-10.812
-10.8078
-10.8037
-10.8001
-10.7975
-10.7964
-10.7976
-10.8017
-10.8098
-10.8227
-10.8416
-10.8676
-10.9019
-10.9459
-11.0009
-11.0681
-11.1494
-10.7986
-10.8004
-10.8052
-10.8112
-10.8173
-10.8233
-10.8288
-10.8338
-10.8379
-10.8412
-10.8436
-10.8453
-10.8461
-10.8462
-10.8459
-10.8451
-10.8442
-10.8435
-10.8433
-10.8439
-10.846
-10.85
-10.8567
-10.8667
-10.8809
-10.9001
-10.9255
-10.9579
-10.9985
-11.0483
-11.1086
-11.1802
-11.2647
-10.8161
-10.8177
-10.822
-10.8275
-10.8333
-10.8392
-10.845
-10.8503
-10.855
-10.8592
-10.8628
-10.8659
-10.8684
-10.8705
-10.8725
-10.8743
-10.8764
-10.879
-10.8825
-10.8872
-10.8937
-10.9025
-10.9142
-10.9295
-10.9492
-10.974
-11.0049
-11.0428
-11.0885
-11.1429
-11.2071
-11.2816
-11.3677
-10.8336
-10.835
-10.8389
-10.8441
-10.8497
-10.8557
-10.8616
-10.8674
-10.8729
-10.8781
-10.8829
-10.8875
-10.8918
-10.896
-10.9003
-10.9048
-10.9098
-10.9157
-10.9227
-10.9313
-10.9419
-10.9551
-10.9714
-10.9915
-11.016
-11.0457
-11.0812
-11.1234
-11.1731
-11.2308
-11.2975
-11.3735
-11.4597
-10.8509
-10.8522
-10.8559
-10.8609
-10.8665
-10.8725
-10.8788
-10.8851
-10.8914
-10.8976
-10.9036
-10.9096
-10.9157
-10.9219
-10.9284
-10.9354
-10.9433
-10.9522
-10.9626
-10.9747
-10.9891
-11.0063
-11.0267
-11.0509
-11.0796
-11.1133
-11.1527
-11.1984
-11.2509
-11.3109
-11.3789
-11.4552
-11.5405
-10.8682
-10.8695
-10.873
-10.8778
-10.8835
-10.8897
-10.8964
-10.9033
-10.9104
-10.9176
-10.9249
-10.9324
-10.9402
-10.9484
-10.9571
-10.9666
-10.9772
-10.989
-11.0025
-11.018
-11.0359
-11.0566
-11.0807
-11.1085
-11.1407
-11.1777
-11.2201
-11.2683
-11.3228
-11.3841
-11.4525
-11.5281
-11.6114
-10.8853
-10.8866
-10.8901
-10.8949
-10.9007
-10.9072
-10.9143
-10.9219
-10.9298
-10.938
-10.9466
-10.9556
-10.965
-10.9751
-10.986
-10.9978
-11.0109
-11.0255
-11.0418
-11.0603
-11.0813
-11.1052
-11.1324
-11.1633
-11.1983
-11.238
-11.2826
-11.3326
-11.3883
-11.45
-11.5179
-11.592
-11.6726
-10.9024
-10.9037
-10.9072
-10.9121
-10.918
-10.9249
-10.9325
-10.9407
-10.9495
-10.9588
-10.9686
-10.979
-10.9901
-11.0021
-11.015
-11.029
-11.0445
-11.0615
-11.0805
-11.1017
-11.1255
-11.1521
-11.1819
-11.2154
-11.2527
-11.2944
-11.3406
-11.3916
-11.4478
-11.5092
-11.5759
-11.6479
-11.7254
-10.9193
-10.9206
-10.9242
-10.9292
-10.9354
-10.9427
-10.9508
-10.9597
-10.9694
-10.9797
-10.9908
-11.0027
-11.0154
-11.0291
-11.0439
-11.06
-11.0776
-11.097
-11.1184
-11.142
-11.1681
-11.197
-11.2291
-11.2645
-11.3037
-11.3467
-11.3939
-11.4455
-11.5015
-11.562
-11.6271
-11.6966
-11.7705
-10.9361
-10.9374
-10.941
-10.9463
-10.9528
-10.9605
-10.9692
-10.9788
-10.9893
-11.0007
-11.013
-11.0262
-11.0404
-11.0558
-11.0724
-11.0904
-11.11
-11.1314
-11.1549
-11.1805
-11.2087
-11.2396
-11.2734
-11.3104
-11.3508
-11.3948
-11.4425
-11.494
-11.5493
-11.6085
-11.6716
-11.7383
-11.8086
-10.9525
-10.9539
-10.9577
-10.9632
-10.97
-10.9782
-10.9875
-10.9979
-11.0093
-11.0218
-11.0352
-11.0498
-11.0654
-11.0824
-11.1006
-11.1204
-11.1418
-11.1651
-11.1904
-11.2179
-11.2477
-11.2802
-11.3154
-11.3536
-11.3949
-11.4393
-11.487
-11.538
-11.5924
-11.65
-11.7107
-11.7744
-11.8409
-10.9686
-10.9701
-10.9741
-10.9798
-10.987
-10.9956
-11.0056
-11.0167
-11.029
-11.0424
-11.057
-11.0727
-11.0897
-11.1081
-11.1278
-11.1492
-11.1722
-11.197
-11.2239
-11.2528
-11.2841
-11.3178
-11.354
-11.393
-11.4347
-11.4792
-11.5266
-11.5769
-11.6299
-11.6856
-11.7439
-11.8046
-11.8674
-10.9843
-10.9858
-10.99
-10.9961
-11.0037
-11.0129
-11.0235
-11.0354
-11.0486
-11.063
-11.0787
-11.0956
-11.1139
-11.1336
-11.1548
-11.1776
-11.202
-11.2283
-11.2565
-11.2867
-11.3191
-11.3537
-11.3907
-11.4301
-11.4719
-11.5163
-11.5631
-11.6123
-11.6638
-11.7175
-11.7733
-11.8308
-11.8901
-10.9994
-11.001
-11.0054
-11.0118
-11.0198
-11.0295
-11.0407
-11.0533
-11.0673
-11.0826
-11.0992
-11.1172
-11.1367
-11.1575
-11.1799
-11.2039
-11.2295
-11.2569
-11.2862
-11.3174
-11.3506
-11.3859
-11.4233
-11.4629
-11.5047
-11.5485
-11.5945
-11.6425
-11.6924
-11.7441
-11.7973
-11.8519
-11.9078
-11.0138
-11.0155
-11.0202
-11.027
-11.0356
-11.0458
-11.0578
-11.0712
-11.086
-11.1023
-11.12
-11.1391
-11.1596
-11.1816
-11.2051
-11.2302
-11.2569
-11.2853
-11.3155
-11.3475
-11.3813
-11.4171
-11.4547
-11.4942
-11.5356
-11.5789
-11.6238
-11.6705
-11.7187
-11.7682
-11.819
-11.8707
-11.9233
-11.0273
-11.0291
-11.034
-11.0412
-11.0501
-11.0609
-11.0733
-11.0874
-11.1029
-11.12
-11.1385
-11.1584
-11.1798
-11.2028
-11.2272
-11.2532
-11.2808
-11.31
-11.3409
-11.3735
-11.4077
-11.4437
-11.4814
-11.5207
-11.5617
-11.6042
-11.6481
-11.6934
-11.7399
-11.7874
-11.8358
-11.8849
-11.9346
-11.0399
-11.0418
-11.0472
-11.0549
-11.0646
-11.0761
-11.0893
-11.1042
-11.1206
-11.1386
-11.158
-11.1789
-11.2012
-11.225
-11.2503
-11.2771
-11.3054
-11.3353
-11.3667
-11.3996
-11.4341
-11.4701
-11.5076
-11.5466
-11.5869
-11.6285
-11.6712
-11.7151
-11.7598
-11.8053
-11.8515
-11.898
-11.9449
-11.0511
-11.0531
-11.0586
-11.0665
-11.0765
-11.0884
-11.1021
-11.1175
-11.1346
-11.1532
-11.1733
-11.195
-11.218
-11.2426
-11.2686
-11.2961
-11.3251
-11.3555
-11.3873
-11.4206
-11.4553
-11.4913
-11.5286
-11.5672
-11.6069
-11.6476
-11.6893
-11.7318
-11.775
-11.8188
-11.8629
-11.9072
-11.9517
-11.0611
-11.0635
-11.0699
-11.0788
-11.0897
-11.1025
-11.1171
-11.1334
-11.1512
-11.1706
-11.1914
-11.2137
-11.2375
-11.2626
-11.2892
-11.3172
-11.3465
-11.3773
-11.4093
-11.4426
-11.4772
-11.513
-11.5499
-11.5879
-11.6268
-11.6665
-11.707
-11.7481
-11.7897
-11.8317
-11.8738
-11.916
-11.9581
-11.0687
-11.0707
-11.0769
-11.0861
-11.0972
-11.1105
-11.1256
-11.1425
-11.161
-11.1811
-11.2027
-11.2257
-11.2502
-11.276
-11.3032
-11.3318
-11.3617
-11.3928
-11.4252
-11.4587
-11.4933
-11.529
-11.5657
-11.6032
-11.6416
-11.6806
-11.7201
-11.7601
-11.8004
-11.8409
-11.8814
-11.9219
-11.9621
-11.0755
-11.0792
-11.0873
-11.0978
-11.11
-11.1241
-11.14
-11.1574
-11.1764
-11.1969
-11.2189
-11.2423
-11.267
-11.2932
-11.3206
-11.3493
-11.3793
-11.4104
-11.4427
-11.4761
-11.5104
-11.5457
-11.5818
-11.6187
-11.6562
-11.6943
-11.7327
-11.7715
-11.8105
-11.8495
-11.8885
-11.9272
-11.9657
-11.0758
-11.0781
-11.0863
-11.0978
-11.1109
-11.1259
-11.1427
-11.1611
-11.1812
-11.2027
-11.2256
-11.2499
-11.2754
-11.3023
-11.3304
-11.3597
-11.3901
-11.4216
-11.4542
-11.4878
-11.5222
-11.5574
-11.5933
-11.6299
-11.6669
-11.7044
-11.7421
-11.78
-11.818
-11.8559
-11.8937
-11.9311
-11.9682
-11.0818
-11.0885
-11.0991
-11.1106
-11.124
-11.1395
-11.1565
-11.1746
-11.1943
-11.2157
-11.2385
-11.2627
-11.2882
-11.315
-11.3429
-11.3721
-11.4024
-11.4338
-11.4661
-11.4993
-11.5334
-11.5682
-11.6036
-11.6396
-11.676
-11.7127
-11.7496
-11.7867
-11.8237
-11.8606
-11.8972
-11.9335
-11.9695
-11.064
-11.0696
-11.0841
-11.0994
-11.1158
-11.1338
-11.1529
-11.1736
-11.1954
-11.2181
-11.242
-11.2671
-11.2935
-11.321
-11.3496
-11.3794
-11.4101
-11.4418
-11.4744
-11.5078
-11.5419
-11.5767
-11.612
-11.6477
-11.6838
-11.72
-11.7564
-11.7929
-11.8292
-11.8653
-11.9011
-11.9365
-11.9714
-11.079
-11.0899
-11.1031
-11.1154
-11.1299
-11.1462
-11.1638
-11.1829
-11.2034
-11.2253
-11.2486
-11.2733
-11.2992
-11.3264
-11.3548
-11.3843
-11.4148
-11.4463
-11.4787
-11.5119
-11.5458
-11.5803
-11.6154
-11.6508
-11.6866
-11.7226
-11.7586
-11.7947
-11.8306
-11.8663
-11.9017
-11.9367
-11.9712
-10.9833
-11.0512
-11.0795
-11.0966
-11.1181
-11.1396
-11.1604
-11.1818
-11.2042
-11.2276
-11.252
-11.2775
-11.3041
-11.3318
-11.3606
-11.3904
-11.4212
-11.4528
-11.4853
-11.5185
-11.5523
-11.5867
-11.6215
-11.6567
-11.6921
-11.7277
-11.7633
-11.7989
-11.8342
-11.8694
-11.9041
-11.9384
-11.9722
-8.40694
-8.89406
-8.82319
-8.07325
-6.81994
-6.29414
-6.88931
-9.66573
-15.5605
-24.0368
-33.4589
-41.2269
-44.8254
-43.2781
-37.4502
-29.498
-20.6373
-12.1409
-5.79609
-2.23499
-0.926654
-1.22459
-2.73956
-5.34006
-8.93456
-13.3458
-18.3104
-23.5758
-28.9573
-34.2796
-39.2672
-43.4753
-46.3548
-47.3857
-46.3279
-43.228
-38.5011
-32.6816
-26.3481
-20.1381
-14.5815
-9.8718
-5.96444
-2.84975
-0.615702
0.605902
0.606633
-0.75569
-4.22135
-10.5356
-19.1603
-28.5951
-37.0296
-42.9844
-45.5606
-44.4922
-39.967
-32.959
-25.2091
-18.3951
-13.1653
-9.33319
-6.5397
-4.52085
-3.08565
-2.08095
-1.38734
-0.915236
-0.598517
-0.389084
-0.252483
-0.164499
-0.108373
-0.0727569
-0.0500564
-0.0352075
-0.0248711
-0.0169505
-0.0103247
-0.00460858
4.36372e-05
0.00324683
0.00474769
0.004458
0.00248903
-0.000912919
-0.00532081
-0.00984744
-0.0131945
-0.0142072
-0.012303
-0.00817506
-0.0031201
0.000825726
0.00396412
0.00433156
0.00617299
0.00179117
0.00770872
-0.00922297
-8.65273
-8.98049
-8.74447
-7.99054
-7.0156
-6.12516
-6.42298
-9.59532
-15.3058
-22.8827
-31.14
-37.9327
-41.1529
-39.9899
-35.0376
-27.8677
-19.7202
-12.061
-6.41934
-3.19231
-1.92297
-2.1143
-3.44962
-5.77662
-9.01849
-13.0645
-17.7065
-22.6965
-27.8143
-32.849
-37.5215
-41.4271
-44.0857
-45.0346
-44.0664
-41.2047
-36.8022
-31.3461
-25.3998
-19.58
-14.3658
-9.92107
-6.21925
-3.27353
-1.18157
-0.0633906
-0.095185
-1.43945
-4.55918
-10.0052
-17.4474
-25.7469
-33.3544
-38.8428
-41.2861
-40.4069
-36.4513
-30.3939
-23.7201
-17.7466
-13.0029
-9.40679
-6.7209
-4.74644
-3.32125
-2.3078
-1.5962
-1.10237
-0.76321
-0.532194
-0.375611
-0.269529
-0.197248
-0.147338
-0.112063
-0.0862496
-0.0664694
-0.0505414
-0.0372503
-0.026099
-0.0170899
-0.0104046
-0.00611155
-0.00413963
-0.00425176
-0.00609971
-0.00917704
-0.0125864
-0.0150795
-0.0155582
-0.0134499
-0.00936525
-0.00442167
-0.000487064
0.00276402
0.00335849
0.00543288
0.00138008
0.00739115
-0.00897785
-8.9669
-9.04091
-8.84169
-8.30881
-7.54302
-7.01089
-7.62662
-10.2661
-15.3273
-22.1392
-29.2612
-35.0039
-37.8375
-36.964
-32.5916
-26.0238
-18.6678
-11.9665
-7.0464
-4.13729
-2.90742
-3.00317
-4.17281
-6.26574
-9.1903
-12.8673
-17.1432
-21.8035
-26.6178
-31.3504
-35.7131
-39.3293
-41.7753
-42.6451
-41.7575
-39.1194
-35.0337
-29.953
-24.4215
-19.0197
-14.1638
-9.99313
-6.50427
-3.73384
-1.78332
-0.765177
-0.823369
-2.11568
-4.95767
-9.69574
-16.0951
-23.2733
-29.971
-34.9074
-37.1901
-36.5345
-33.2064
-28.0934
-22.4021
-17.1634
-12.8473
-9.46996
-6.89189
-4.96575
-3.55423
-2.5348
-1.8071
-1.2927
-0.931682
-0.679238
-0.502535
-0.378032
-0.289156
-0.224465
-0.176155
-0.138954
-0.109354
-0.0851117
-0.0649289
-0.0481842
-0.0347056
-0.0244772
-0.0173843
-0.0131889
-0.0115036
-0.0118394
-0.0135738
-0.015782
-0.0172802
-0.0170678
-0.0146315
-0.0105164
-0.0056614
-0.00176186
0.00154041
0.00227529
0.00447914
0.000660605
0.0066939
-0.00910342
-9.19495
-9.2217
-9.11918
-8.80661
-8.41997
-8.29075
-9.0248
-11.4215
-15.7826
-21.5875
-27.6784
-32.58
-34.91
-33.9077
-29.8307
-23.9436
-17.5934
-11.9136
-7.67158
-5.05325
-3.87078
-3.88758
-4.90822
-6.79254
-9.42983
-12.7478
-16.635
-20.9214
-25.3909
-29.7974
-33.8484
-37.1862
-39.4296
-40.2249
-39.4095
-36.9829
-33.2133
-28.5256
-23.4368
-18.4714
-13.9795
-10.0862
-6.81466
-4.22262
-2.4112
-1.48549
-1.56571
-2.79223
-5.39826
-9.56416
-15.0744
-21.2245
-27.0119
-31.3607
-33.4663
-33.0513
-30.3506
-26.1015
-21.2526
-16.633
-12.6911
-9.52034
-7.05215
-5.17845
-3.78414
-2.76151
-2.0197
-1.48599
-1.10378
-0.830119
-0.633187
-0.489945
-0.38404
-0.304086
-0.242259
-0.193239
-0.15346
-0.120609
-0.0932919
-0.0707549
-0.0526463
-0.0387428
-0.0287342
-0.022208
-0.018631
-0.0173936
-0.017785
-0.0188617
-0.019482
-0.0186944
-0.0159896
-0.0118339
-0.007017
-0.00309116
0.000325716
0.00127373
0.00368376
0.00018881
0.00628522
-0.00887469
-9.42372
-9.43034
-9.37929
-9.2311
-9.1147
-9.29063
-10.1724
-12.3152
-15.9544
-20.7281
-25.7264
-29.6442
-31.3002
-30.2287
-26.7605
-21.8884
-16.6631
-11.9299
-8.28118
-5.93383
-4.81654
-4.77415
-5.6568
-7.34629
-9.72349
-12.7068
-16.2059
-20.0893
-24.173
-28.2201
-31.9438
-35.0051
-37.0526
-37.7768
-37.0287
-34.8102
-31.3662
-27.0934
-22.4692
-17.9453
-13.8142
-10.1973
-7.14524
-4.73208
-3.05605
-2.214
-2.3113
-3.46286
-5.85125
-9.5538
-14.3368
-19.6124
-24.573
-28.3508
-30.275
-30.0789
-27.9317
-24.407
-20.2461
-16.1429
-12.5328
-9.55927
-7.20225
-5.3843
-4.01059
-2.98761
-2.23378
-1.6821
-1.27941
-0.984787
-0.767541
-0.605253
-0.481879
-0.386171
-0.310344
-0.249066
-0.198734
-0.156975
-0.122297
-0.0938011
-0.0709449
-0.0532935
-0.0403382
-0.0314849
-0.0260414
-0.0232594
-0.0223203
-0.0222433
-0.0219213
-0.0204641
-0.0173997
-0.0131383
-0.00832858
-0.00437934
-0.00087908
0.000231971
0.00278101
-0.0004543
0.00564197
-0.0088846
-9.63282
-9.64477
-9.64717
-9.62603
-9.68667
-10.0407
-10.9905
-12.8767
-15.8328
-19.5805
-23.4286
-26.3979
-27.6561
-26.8273
-24.1159
-20.2293
-15.9681
-12.0116
-8.87
-6.78134
-5.74468
-5.662
-6.41893
-7.92192
-10.0588
-12.7376
-15.8699
-19.3463
-23.0157
-26.6698
-30.0409
-32.8138
-34.6643
-35.3172
-34.6378
-32.6355
-29.5346
-25.697
-21.5432
-17.4503
-13.6683
-10.3235
-7.49058
-5.25411
-3.70826
-2.94153
-3.04922
-4.12328
-6.3032
-9.61519
-13.812
-18.38
-22.6489
-25.9241
-27.672
-27.6379
-25.9245
-22.9646
-19.3505
-15.6809
-12.3706
-9.58729
-7.34239
-5.58316
-4.23331
-3.21282
-2.44909
-1.88085
-1.45847
-1.14317
-0.905546
-0.723905
-0.582618
-0.470656
-0.380335
-0.306355
-0.245099
-0.194134
-0.151863
-0.117229
-0.0894914
-0.0679931
-0.0520168
-0.0407776
-0.0334208
-0.0290651
-0.0267961
-0.0256029
-0.0244046
-0.0223468
-0.0189584
-0.0145802
-0.00973874
-0.0057215
-0.00209557
-0.000774571
0.00196131
-0.000951167
0.00517252
-0.00864866
-9.85008
-9.88199
-9.93385
-10.009
-10.1947
-10.6548
-11.6041
-13.2593
-15.6811
-18.6339
-21.5939
-23.8845
-24.8826
-24.2413
-22.0905
-18.9514
-15.443
-12.1234
-9.42826
-7.5875
-6.64014
-6.53266
-7.18004
-8.50839
-10.4204
-12.8222
-15.6207
-18.7127
-21.9685
-25.2118
-28.208
-30.6751
-32.3214
-32.9014
-32.2959
-30.5216
-27.7768
-24.3772
-20.677
-16.9908
-13.5409
-10.4616
-7.84501
-5.78091
-4.35899
-3.66069
-3.77214
-4.76851
-6.74918
-9.71487
-13.4253
-17.4244
-21.1406
-24.0027
-25.585
-25.6444
-24.2413
-21.708
-18.5336
-15.2391
-12.2054
-9.60591
-7.47312
-5.77501
-4.4521
-3.43691
-2.66545
-2.08211
-1.64087
-1.30523
-1.04717
-0.845866
-0.68621
-0.557479
-0.452158
-0.365024
-0.292465
-0.231998
-0.181911
-0.140981
-0.108254
-0.0828464
-0.0638226
-0.0501989
-0.0409484
-0.0350461
-0.0314709
-0.0291666
-0.0270665
-0.0243525
-0.0205745
-0.0160238
-0.0111173
-0.00702378
-0.00328622
-0.00178346
0.00109554
-0.00153551
0.00456326
-0.00855589
-10.0594
-10.1165
-10.2127
-10.362
-10.6349
-11.155
-12.0735
-13.5276
-15.5342
-17.8985
-20.2217
-21.988
-22.7276
-22.1896
-20.4605
-17.912
-15.0223
-12.2461
-9.94774
-8.33944
-7.48489
-7.36457
-7.91903
-9.08899
-10.7921
-12.9404
-15.4392
-18.1849
-21.057
-23.9023
-26.5224
-28.6765
-30.1131
-30.6201
-30.0924
-28.5465
-26.149
-23.1625
-19.8797
-16.5677
-13.4306
-10.6084
-8.20283
-6.30508
-5.0004
-4.36462
-4.47476
-5.39324
-7.185
-9.8343
-13.1216
-16.6457
-19.9141
-22.4335
-23.8601
-23.9611
-22.7785
-20.579
-17.7749
-14.815
-12.0389
-9.61637
-7.59494
-5.95996
-4.66688
-3.65972
-2.88272
-2.28578
-1.82656
-1.47092
-1.19238
-0.971092
-0.79259
-0.646555
-0.525712
-0.424962
-0.340721
-0.270456
-0.212333
-0.164951
-0.12713
-0.0977475
-0.0756385
-0.05961
-0.0484558
-0.0410063
-0.036138
-0.0327526
-0.029794
-0.0264667
-0.0223189
-0.0175834
-0.0125804
-0.0083761
-0.00449673
-0.00278041
0.000271057
-0.00203424
0.00405289
-0.00829874
-10.2654
-10.348
-10.4812
-10.6837
-11.0112
-11.5552
-12.4198
-13.6873
-15.3495
-17.2456
-19.0676
-20.4224
-20.9723
-20.5247
-19.1293
-17.0582
-14.6833
-12.3706
-10.4218
-9.02884
-8.26876
-8.14559
-8.62142
-9.64976
-11.1609
-13.0756
-15.3034
-17.7417
-20.274
-22.7615
-25.0339
-26.8909
-28.1247
-28.5602
-28.1043
-26.7667
-24.682
-22.0627
-19.1514
-16.1793
-13.3357
-10.7605
-8.55848
-6.81989
-5.62579
-5.04732
-5.1527
-5.9931
-7.60682
-9.96467
-12.8709
-15.9773
-18.8602
-21.1051
-22.3583
-22.4747
-21.4639
-19.5451
-17.0664
-14.4094
-11.873
-9.61995
-7.70847
-6.13823
-4.87764
-3.88118
-3.10082
-2.49182
-2.01553
-1.64025
-1.34116
-1.09955
-0.901693
-0.737791
-0.600884
-0.486041
-0.389733
-0.309377
-0.243012
-0.189039
-0.146043
-0.112648
-0.0874495
-0.0690344
-0.0560079
-0.0470473
-0.0409194
-0.036473
-0.0326515
-0.0286795
-0.0241152
-0.0191488
-0.014017
-0.00968787
-0.00567085
-0.00375591
-0.000560797
-0.00256637
0.00347005
-0.00811831
-10.4617
-10.5675
-10.7296
-10.9677
-11.3252
-11.868
-12.6655
-13.7632
-15.1383
-16.6586
-18.0879
-19.134
-19.539
-19.161
-18.0324
-16.3535
-14.4091
-12.491
-10.8491
-9.6537
-8.98741
-8.8698
-9.27962
-10.1818
-11.5175
-13.2165
-15.1958
-17.3583
-19.5925
-21.7698
-23.7406
-25.3365
-26.3888
-26.7556
-26.3558
-25.1931
-23.3739
-21.0705
-18.4863
-15.8231
-13.2544
-10.9144
-8.90684
-7.3194
-6.22936
-5.70335
-5.80124
-6.56401
-8.01049
-10.1008
-12.6605
-15.3891
-17.9216
-19.8948
-21.0122
-21.1349
-20.2696
-18.5964
-16.4067
-14.0238
-11.7094
-9.61781
-7.81443
-6.31016
-5.08449
-4.10131
-3.31974
-2.70025
-2.2078
-1.81324
-1.49352
-1.23119
-1.01344
-0.831074
-0.677533
-0.548107
-0.439341
-0.348606
-0.273799
-0.213111
-0.164872
-0.127441
-0.0991568
-0.0783749
-0.0635025
-0.0530597
-0.0457036
-0.0402311
-0.0355831
-0.0309962
-0.0260261
-0.0208156
-0.0155284
-0.0110463
-0.00686866
-0.00473228
-0.00137572
-0.00305044
0.00293887
-0.00783521
-10.6481
-10.773
-10.9562
-11.2157
-11.5845
-12.1088
-12.8332
-13.7794
-14.9169
-16.1377
-17.2606
-18.066
-18.3631
-18.0456
-17.1344
-15.7756
-14.1877
-12.6037
-11.2294
-10.2136
-9.63827
-9.53253
-9.88765
-10.678
-11.8548
-13.3558
-15.1064
-17.0173
-18.9854
-20.8923
-22.605
-23.9795
-24.876
-25.1786
-24.8188
-23.7986
-22.2025
-20.1716
-17.8779
-15.497
-13.1848
-11.0668
-9.24322
-7.79843
-6.80596
-6.32773
-6.41578
-7.10216
-8.39203
-10.238
-12.4843
-14.8717
-17.0866
-18.8157
-19.806
-19.9292
-19.1882
-17.7293
-15.795
-13.6587
-11.5493
-9.61116
-7.91364
-6.47621
-5.28767
-4.32023
-3.5396
-2.91118
-2.40348
-1.98997
-1.6495
-1.36602
-1.12776
-0.926279
-0.755497
-0.610977
-0.489357
-0.387961
-0.304529
-0.237023
-0.183501
-0.142038
-0.110702
-0.0876029
-0.0709405
-0.0590696
-0.0505317
-0.0440645
-0.0385989
-0.0333815
-0.0279731
-0.0224814
-0.0170092
-0.0123579
-0.00801817
-0.00566737
-0.00216896
-0.00352915
0.00238318
-0.00758316
-10.8222
-10.9617
-11.1586
-11.428
-11.7943
-12.2892
-12.9394
-13.7516
-14.6928
-15.6749
-16.5588
-17.1805
-17.3981
-17.1318
-16.3958
-15.2983
-14.0069
-12.7061
-11.5645
-10.7103
-10.2211
-10.1315
-10.4416
-11.1335
-12.1671
-13.4879
-15.0289
-16.7097
-18.4363
-20.1022
-21.5892
-22.7731
-23.5356
-23.7805
-23.4516
-22.5511
-21.1468
-19.3555
-17.3225
-15.1994
-13.1247
-11.2143
-9.56334
-8.25248
-7.35105
-6.916
-6.99228
-7.60438
-8.74823
-10.3718
-12.3365
-14.4184
-16.3487
-17.8583
-18.7302
-18.8487
-18.2121
-16.9384
-15.2289
-13.3142
-11.3938
-9.60123
-8.00702
-6.63696
-5.48753
-4.53817
-3.76059
-3.12478
-2.60275
-2.17058
-1.80915
-1.50401
-1.24457
-1.02326
-0.834586
-0.674435
-0.539556
-0.427223
-0.335
-0.260598
-0.201778
-0.156313
-0.121982
-0.0966351
-0.078252
-0.0650159
-0.0553513
-0.0479364
-0.0416912
-0.035868
-0.0300275
-0.0242413
-0.0185607
-0.0137158
-0.00919537
-0.00661273
-0.00296181
-0.0039861
0.0018484
-0.00727534
-10.9824
-11.1323
-11.3364
-11.607
-11.9614
-12.4204
-12.9987
-13.6936
-14.4727
-15.2645
-15.9624
-16.4436
-16.6029
-16.3811
-15.7885
-14.9052
-13.8597
-12.7977
-11.8568
-11.1461
-10.7372
-10.6662
-10.9394
-11.545
-12.4503
-13.6081
-14.9588
-16.4299
-17.9374
-19.3861
-20.6722
-21.6885
-22.3342
-22.5293
-22.2274
-21.4307
-20.1945
-18.6156
-16.8165
-14.9276
-13.0712
-11.3533
-9.86348
-8.67772
-7.86076
-7.46452
-7.52769
-8.06852
-9.07679
-10.4986
-12.2107
-14.0201
-15.6962
-17.0085
-17.771
-17.8805
-17.3313
-16.2176
-14.7059
-12.9904
-11.2441
-9.58927
-8.09555
-6.7931
-5.68454
-4.75551
-3.98304
-3.34139
-2.80589
-2.35528
-1.97262
-1.64518
-1.36378
-1.12185
-0.914577
-0.738229
-0.589683
-0.466147
-0.364992
-0.283644
-0.219546
-0.170141
-0.132903
-0.105404
-0.0853927
-0.0708716
-0.0601438
-0.0518244
-0.0448176
-0.0383859
-0.0320915
-0.0259816
-0.0200671
-0.015012
-0.0103067
-0.00749471
-0.00370554
-0.00440496
0.00132688
-0.00696581
-11.1288
-11.2847
-11.4906
-11.7556
-12.0917
-12.5118
-13.0222
-13.6153
-14.2608
-14.901
-15.454
-15.8284
-15.9461
-15.7635
-15.2882
-14.5802
-13.7382
-12.8772
-12.1086
-11.5245
-11.1889
-11.1374
-11.3804
-11.9105
-12.7015
-13.7128
-14.8915
-16.1734
-17.4833
-18.7371
-19.8441
-20.7121
-21.2555
-21.4079
-21.1302
-20.4246
-19.3362
-17.9452
-16.3551
-14.6778
-13.0209
-11.4809
-10.1406
-9.07111
-8.33212
-7.97068
-8.01999
-8.4933
-9.37629
-10.6157
-12.1017
-13.6682
-15.1177
-16.2536
-16.9159
-17.0133
-16.5369
-15.5614
-14.2239
-12.6873
-11.1014
-9.57653
-8.18028
-6.94541
-5.87932
-4.97277
-4.20745
-3.56145
-3.01329
-2.54437
-2.14006
-1.78957
-1.4853
-1.22185
-0.995207
-0.802057
-0.639422
-0.504431
-0.394226
-0.30592
-0.236604
-0.183367
-0.143351
-0.113833
-0.0923156
-0.0766145
-0.0649079
-0.055748
-0.0480249
-0.0410071
-0.0342628
-0.0278158
-0.0216458
-0.0163587
-0.0114526
-0.00839721
-0.00446367
-0.0048244
0.000802321
-0.00663928
-11.2603
-11.4186
-11.622
-11.8769
-12.1909
-12.5714
-13.0195
-13.5248
-14.0604
-14.5799
-15.0205
-15.3139
-15.4025
-15.2544
-14.8756
-14.3115
-13.6379
-12.9452
-12.3234
-11.8495
-11.5796
-11.5476
-11.7657
-12.2299
-12.9194
-13.7994
-14.8238
-15.9356
-17.0684
-18.1484
-19.0965
-19.8338
-20.2878
-20.4029
-20.1465
-19.5204
-18.5615
-17.3366
-15.9328
-14.4461
-12.9711
-11.5946
-10.3925
-9.43047
-8.76316
-8.43291
-8.46817
-8.87817
-9.64618
-10.7211
-12.0053
-13.3558
-14.6041
-15.5824
-16.1534
-16.2367
-15.8209
-14.9648
-13.7808
-12.4051
-10.9665
-9.5642
-8.26229
-7.09481
-6.07261
-5.19062
-4.43444
-3.78558
-3.2255
-2.73828
-2.31174
-1.93727
-1.60904
-1.32306
-1.07618
-0.865582
-0.688434
-0.541754
-0.422418
-0.327183
-0.25275
-0.195824
-0.153191
-0.121813
-0.0989308
-0.0821645
-0.0695649
-0.059621
-0.0512112
-0.0436133
-0.0364065
-0.0296003
-0.0231535
-0.0176187
-0.0125062
-0.00920762
-0.00514122
-0.00517214
0.000326608
-0.00628346
-11.3778
-11.5354
-11.7329
-11.9744
-12.2643
-12.6062
-12.9979
-13.4282
-13.8736
-14.297
-14.6502
-14.8826
-14.9514
-14.8337
-14.5345
-14.0884
-13.5536
-13.0014
-12.5039
-12.125
-11.9134
-11.8996
-12.0969
-12.5037
-13.1033
-13.8664
-14.7528
-15.7126
-16.6875
-17.6129
-18.4205
-19.0429
-19.4187
-19.5011
-19.2632
-18.7064
-17.8611
-16.7828
-15.5449
-14.2296
-12.9197
-11.6927
-10.6177
-9.75443
-9.15275
-8.85048
-8.87191
-9.22316
-9.88633
-10.8133
-11.9179
-13.0771
-14.1471
-14.9851
-15.4734
-15.5415
-15.1762
-14.4234
-13.3746
-12.1435
-10.8404
-9.55343
-8.34271
-7.24229
-6.26532
-5.40992
-4.66487
-4.0146
-3.44324
-2.93756
-2.488
-2.08836
-1.73491
-1.4252
-1.15711
-0.928371
-0.736269
-0.577688
-0.449182
-0.347104
-0.267722
-0.207321
-0.162298
-0.129278
-0.105224
-0.0875504
-0.0741774
-0.0635334
-0.054487
-0.0463321
-0.0386644
-0.0314848
-0.0247406
-0.0189378
-0.0136053
-0.0100521
-0.00585017
-0.00554386
-0.0001761
-0.00594676
-11.4811
-11.6356
-11.8248
-12.0509
-12.3163
-12.6217
-12.9633
-13.3298
-13.7013
-14.0483
-14.3339
-14.5204
-14.5764
-14.4855
-14.252
-13.9025
-13.4821
-13.0464
-12.6535
-12.3558
-12.1947
-12.1974
-12.3771
-12.7337
-13.254
-13.9132
-14.6768
-15.5013
-16.3359
-17.1244
-17.8082
-18.3298
-18.6372
-18.691
-18.4693
-17.973
-17.2271
-16.278
-15.1874
-14.0257
-12.865
-11.774
-10.8151
-10.0423
-9.50048
-9.22332
-9.2315
-9.52876
-10.097
-10.8916
-11.8368
-12.8269
-13.7396
-14.4531
-14.867
-14.9194
-14.5963
-13.9329
-13.0035
-11.9023
-10.7236
-9.54533
-8.42269
-7.38892
-6.45847
-5.63168
-4.8998
-4.24954
-3.66744
-3.14293
-2.66928
-2.24303
-1.86282
-1.52799
-1.23762
-0.989984
-0.782492
-0.611827
-0.47416
-0.365378
-0.281264
-0.21764
-0.170487
-0.136066
-0.111044
-0.0926216
-0.0785891
-0.0673195
-0.0576793
-0.0489831
-0.0408496
-0.0332803
-0.0262205
-0.0201343
-0.0145755
-0.010766
-0.00643879
-0.00580391
-0.000591295
-0.00555119
-11.5716
-11.7211
-11.9002
-12.1101
-12.3513
-12.6229
-12.9202
-13.2329
-13.544
-13.8302
-14.0635
-14.2156
-14.2637
-14.1962
-14.017
-13.7466
-13.42
-13.0807
-12.775
-12.5458
-12.4278
-12.445
-12.6093
-12.922
-13.3724
-13.9398
-14.5946
-15.2992
-16.0096
-16.6774
-17.2524
-17.6855
-17.9332
-17.9622
-17.7545
-17.311
-16.6522
-15.8167
-14.8566
-13.832
-12.8055
-11.8378
-10.9845
-10.294
-9.80654
-9.55194
-9.54774
-9.79589
-10.2787
-10.9555
-11.7598
-12.6011
-13.3752
-13.9789
-14.3262
-14.3631
-14.0753
-13.4894
-12.6654
-11.6812
-10.617
-9.54094
-8.50337
-7.53585
-6.65322
-5.85716
-5.14054
-4.49174
-3.89932
-3.35534
-2.85616
-2.40147
-1.99262
-1.63105
-1.31714
-1.04977
-0.826445
-0.643561
-0.496821
-0.381571
-0.293044
-0.226557
-0.177634
-0.142144
-0.116438
-0.0974894
-0.0829563
-0.0711609
-0.0609786
-0.05176
-0.0431578
-0.0351827
-0.027788
-0.0214006
-0.0156051
-0.0115317
-0.00708061
-0.00611599
-0.00106159
-0.00521342
-11.6495
-11.7927
-11.961
-12.1544
-12.3725
-12.6134
-12.8722
-13.1395
-13.4014
-13.6393
-13.8321
-13.9587
-14.0025
-13.9554
-13.8209
-13.6151
-13.365
-13.1049
-12.8715
-12.6994
-12.6177
-12.6468
-12.7976
-13.0716
-13.4605
-13.947
-14.5057
-15.1044
-15.7054
-16.2672
-16.7467
-17.1025
-17.298
-17.3056
-17.1102
-16.7125
-16.1298
-15.3941
-14.5492
-13.6466
-12.7403
-11.8836
-11.1257
-10.5098
-10.0716
-9.83737
-9.82186
-10.0258
-10.4323
-11.0048
-11.6851
-12.3959
-13.0486
-13.5557
-13.8438
-13.8659
-13.6078
-13.0893
-12.3585
-11.4798
-10.5209
-9.54117
-8.58584
-7.68427
-6.85087
-6.08782
-5.38873
-4.7429
-4.14043
-3.57601
-3.04944