/*--------------------------------*- C++ -*----------------------------------*\
  =========                 |
  \\      /  F ield         | OpenFOAM: The Open Source CFD Toolbox
   \\    /   O peration     | Website:  https://openfoam.org
    \\  /    A nd           | Version:  10
     \\/     M anipulation  |
\*---------------------------------------------------------------------------*/
FoamFile
{
    format      ascii;
    class       surfaceScalarField;
    location    "0.13";
    object      phi;
}
// * * * * * * * * * * * * * * * * * * * * * * * * * * * * * * * * * * * * * //

dimensions      [0 3 -1 0 0 0 0];

internalField   nonuniform List<scalar> 
13452
(
5.94508e-05
8.17638e-07
5.84649e-05
9.85954e-07
5.7435e-05
1.02991e-06
5.63737e-05
1.06122e-06
5.53095e-05
1.06422e-06
5.42537e-05
1.05582e-06
5.32097e-05
1.04405e-06
5.21791e-05
1.03059e-06
5.11625e-05
1.01658e-06
5.01596e-05
1.00289e-06
4.91695e-05
9.90051e-07
4.81911e-05
9.78479e-07
4.72225e-05
9.68577e-07
4.62617e-05
9.60747e-07
4.53063e-05
9.55423e-07
4.43532e-05
9.53092e-07
4.33989e-05
9.54312e-07
4.24392e-05
9.59729e-07
4.14691e-05
9.70099e-07
4.04828e-05
9.86306e-07
3.94734e-05
1.00939e-06
3.84328e-05
1.04054e-06
3.73517e-05
1.08116e-06
3.62189e-05
1.13281e-06
3.50217e-05
1.19721e-06
3.37455e-05
1.27618e-06
3.2374e-05
1.37152e-06
3.0889e-05
1.48495e-06
2.92721e-05
1.61698e-06
2.75007e-05
1.77138e-06
2.55657e-05
1.93501e-06
2.34142e-05
2.15143e-06
2.3006e-06
2.11136e-05
6.24902e-05
3.1775e-07
6.29652e-05
5.10931e-07
6.34114e-05
5.83757e-07
6.38192e-05
6.5343e-07
6.41811e-05
7.02335e-07
6.44967e-05
7.40207e-07
6.47674e-05
7.73363e-07
6.49953e-05
8.02635e-07
6.5183e-05
8.28901e-07
6.53328e-05
8.53144e-07
6.54467e-05
8.7611e-07
6.55267e-05
8.98472e-07
6.55744e-05
9.20916e-07
6.5591e-05
9.44163e-07
6.55774e-05
9.68988e-07
6.55342e-05
9.96255e-07
6.54616e-05
1.02694e-06
6.53591e-05
1.06219e-06
6.52259e-05
1.1033e-06
6.50604e-05
1.15184e-06
6.48602e-05
1.20962e-06
6.46219e-05
1.27882e-06
6.4341e-05
1.36199e-06
6.40117e-05
1.46211e-06
6.36263e-05
1.58267e-06
6.31749e-05
1.72759e-06
6.26451e-05
1.9013e-06
6.20217e-05
2.10831e-06
6.1285e-05
2.35372e-06
6.04148e-05
2.64151e-06
5.93739e-05
2.97591e-06
5.81615e-05
3.36385e-06
3.79071e-06
5.66714e-05
6.38337e-05
2.45437e-07
6.39073e-05
4.37315e-07
6.39733e-05
5.17789e-07
6.40411e-05
5.85676e-07
6.41099e-05
6.33512e-07
6.41819e-05
6.68208e-07
6.4258e-05
6.97204e-07
6.43383e-05
7.2233e-07
6.44225e-05
7.44754e-07
6.451e-05
7.65661e-07
6.46002e-05
7.85922e-07
6.46924e-05
8.06259e-07
6.47859e-05
8.27367e-07
6.48801e-05
8.49947e-07
6.49744e-05
8.74738e-07
6.50681e-05
9.02546e-07
6.51608e-05
9.34284e-07
6.52519e-05
9.71004e-07
6.53413e-05
1.01393e-06
6.54286e-05
1.06452e-06
6.55138e-05
1.12447e-06
6.55968e-05
1.19583e-06
6.56778e-05
1.28101e-06
6.5757e-05
1.38287e-06
6.58349e-05
1.50477e-06
6.59119e-05
1.65057e-06
6.59884e-05
1.82481e-06
6.60644e-05
2.03232e-06
6.61393e-05
2.27884e-06
6.62115e-05
2.56934e-06
6.62771e-05
2.91025e-06
6.63358e-05
3.30518e-06
3.74637e-06
6.63801e-05
6.56398e-05
1.88752e-07
6.56896e-05
3.87457e-07
6.57224e-05
4.85053e-07
6.57466e-05
5.61462e-07
6.57632e-05
6.16906e-07
6.57741e-05
6.5727e-07
6.57809e-05
6.90463e-07
6.57841e-05
7.19053e-07
6.57845e-05
7.44403e-07
6.57823e-05
7.67852e-07
6.57778e-05
7.90416e-07
6.57711e-05
8.12919e-07
6.57624e-05
8.36137e-07
6.57515e-05
8.60836e-07
6.57384e-05
8.87802e-07
6.57231e-05
9.17873e-07
6.57054e-05
9.51974e-07
6.56853e-05
9.91143e-07
6.56626e-05
1.03656e-06
6.56375e-05
1.0896e-06
6.56102e-05
1.15182e-06
6.5581e-05
1.22504e-06
6.55506e-05
1.31136e-06
6.55203e-05
1.41317e-06
6.54919e-05
1.53321e-06
6.5468e-05
1.6745e-06
6.54524e-05
1.84039e-06
6.54503e-05
2.03441e-06
6.5469e-05
2.26016e-06
6.55171e-05
2.52121e-06
6.56079e-05
2.8195e-06
6.57532e-05
3.15983e-06
3.52496e-06
6.59746e-05
6.74897e-05
1.55883e-07
6.75284e-05
3.48742e-07
6.75591e-05
4.54326e-07
6.75858e-05
5.3475e-07
6.7607e-05
5.95684e-07
6.76227e-05
6.41634e-07
6.76335e-05
6.79658e-07
6.76398e-05
7.12678e-07
6.7642e-05
7.42208e-07
6.76402e-05
7.69681e-07
6.76344e-05
7.96226e-07
6.76246e-05
8.22753e-07
6.76106e-05
8.50106e-07
6.75923e-05
8.79107e-07
6.75695e-05
9.10592e-07
6.7542e-05
9.4544e-07
6.75093e-05
9.84605e-07
6.74713e-05
1.02914e-06
6.74277e-05
1.08024e-06
6.7378e-05
1.13923e-06
6.73222e-05
1.20764e-06
6.72601e-05
1.28718e-06
6.71917e-05
1.37977e-06
6.71173e-05
1.48756e-06
6.70375e-05
1.61291e-06
6.69537e-05
1.75833e-06
6.68677e-05
1.92642e-06
6.67823e-05
2.11977e-06
6.67018e-05
2.34064e-06
6.6632e-05
2.59107e-06
6.65809e-05
2.87061e-06
6.6559e-05
3.18165e-06
3.50872e-06
6.65753e-05
6.94108e-05
1.29083e-07
6.94472e-05
3.12409e-07
6.94767e-05
4.2476e-07
6.95013e-05
5.10193e-07
6.95204e-05
5.76553e-07
6.95343e-05
6.27705e-07
6.9544e-05
6.70033e-07
6.95498e-05
7.06868e-07
6.9552e-05
7.39976e-07
6.95508e-05
7.70893e-07
6.95462e-05
8.00852e-07
6.95381e-05
8.30855e-07
6.95264e-05
8.61809e-07
6.95109e-05
8.94588e-07
6.94914e-05
9.30063e-07
6.94677e-05
9.69143e-07
6.94395e-05
1.0128e-06
6.94066e-05
1.0621e-06
6.93686e-05
1.1182e-06
6.93254e-05
1.18243e-06
6.92768e-05
1.25622e-06
6.92228e-05
1.34118e-06
6.91635e-05
1.4391e-06
6.90992e-05
1.55189e-06
6.90305e-05
1.68162e-06
6.89584e-05
1.83039e-06
6.88845e-05
2.00031e-06
6.8811e-05
2.19334e-06
6.87406e-05
2.41096e-06
6.86773e-05
2.6544e-06
6.86252e-05
2.92272e-06
6.85902e-05
3.21667e-06
3.52572e-06
6.85732e-05
7.13841e-05
1.11304e-07
7.14117e-05
2.8486e-07
7.14359e-05
4.00514e-07
7.14574e-05
4.88699e-07
7.14755e-05
5.5846e-07
7.14896e-05
6.1356e-07
7.15001e-05
6.59581e-07
7.1507e-05
6.99916e-07
7.15106e-05
7.36431e-07
7.15108e-05
7.70688e-07
7.15077e-05
8.03988e-07
7.15011e-05
8.37378e-07
7.14911e-05
8.71801e-07
7.14776e-05
9.08161e-07
7.14603e-05
9.4736e-07
7.14391e-05
9.90317e-07
7.14139e-05
1.038e-06
7.13845e-05
1.09147e-06
7.13509e-05
1.15184e-06
7.1313e-05
1.22037e-06
7.12708e-05
1.2984e-06
7.12245e-05
1.38742e-06
7.11746e-05
1.489e-06
7.11217e-05
1.60482e-06
7.10667e-05
1.73662e-06
7.1011e-05
1.88611e-06
7.09564e-05
2.0549e-06
7.09053e-05
2.24442e-06
7.08607e-05
2.45558e-06
7.08261e-05
2.68898e-06
7.08052e-05
2.94364e-06
7.08023e-05
3.21957e-06
3.50991e-06
7.08181e-05
7.34186e-05
9.79745e-08
7.34425e-05
2.60939e-07
7.34656e-05
3.7748e-07
7.34864e-05
4.67877e-07
7.3504e-05
5.40852e-07
7.35177e-05
5.99861e-07
7.35277e-05
6.49604e-07
7.35342e-05
6.93396e-07
7.35374e-05
7.33222e-07
7.35374e-05
7.70689e-07
7.35342e-05
8.07135e-07
7.35279e-05
8.43694e-07
7.35184e-05
8.81333e-07
7.35056e-05
9.2098e-07
7.34894e-05
9.6355e-07
7.34697e-05
1.00997e-06
7.34465e-05
1.0612e-06
7.34198e-05
1.11824e-06
7.33894e-05
1.18218e-06
7.33556e-05
1.25418e-06
7.33185e-05
1.33547e-06
7.32786e-05
1.42737e-06
7.32363e-05
1.53125e-06
7.31926e-05
1.64853e-06
7.31486e-05
1.7806e-06
7.3106e-05
1.92879e-06
7.30666e-05
2.09426e-06
7.30331e-05
2.27792e-06
7.30085e-05
2.48024e-06
7.29961e-05
2.7013e-06
7.29997e-05
2.94008e-06
7.30231e-05
3.19616e-06
3.46464e-06
7.30684e-05
7.55122e-05
8.82566e-08
7.55314e-05
2.41771e-07
7.55508e-05
3.58045e-07
7.55688e-05
4.49902e-07
7.55845e-05
5.25124e-07
7.55973e-05
5.87077e-07
7.56071e-05
6.39828e-07
7.56139e-05
6.86566e-07
7.56178e-05
7.29326e-07
7.56187e-05
7.69725e-07
7.56168e-05
8.09094e-07
7.56119e-05
8.48567e-07
7.56041e-05
8.89162e-07
7.55932e-05
9.31819e-07
7.55793e-05
9.77446e-07
7.55624e-05
1.02695e-06
7.55423e-05
1.08126e-06
7.55192e-05
1.14133e-06
7.54932e-05
1.20818e-06
7.54645e-05
1.28287e-06
7.54335e-05
1.36648e-06
7.54007e-05
1.46018e-06
7.53669e-05
1.56511e-06
7.5333e-05
1.68241e-06
7.53004e-05
1.81318e-06
7.52708e-05
1.95837e-06
7.52463e-05
2.11875e-06
7.52294e-05
2.29479e-06
7.52231e-05
2.48656e-06
7.52306e-05
2.69378e-06
7.52554e-05
2.91535e-06
7.5301e-05
3.15053e-06
3.3955e-06
7.53701e-05
7.76669e-05
8.09154e-08
7.76829e-05
2.25768e-07
7.77005e-05
3.40494e-07
7.77174e-05
4.3298e-07
7.77327e-05
5.09863e-07
7.77454e-05
5.74346e-07
7.77553e-05
6.29898e-07
7.77624e-05
6.79451e-07
7.77668e-05
7.24999e-07
7.77684e-05
7.68129e-07
7.77672e-05
8.10234e-07
7.77633e-05
8.52443e-07
7.77567e-05
8.95758e-07
7.77474e-05
9.41123e-07
7.77354e-05
9.89439e-07
7.77208e-05
1.04159e-06
7.77036e-05
1.09845e-06
7.7684e-05
1.16093e-06
7.76622e-05
1.22996e-06
7.76386e-05
1.30647e-06
7.76137e-05
1.39143e-06
7.75881e-05
1.4858e-06
7.75626e-05
1.59052e-06
7.75386e-05
1.70647e-06
7.75173e-05
1.83444e-06
7.75007e-05
1.97505e-06
7.74907e-05
2.12871e-06
7.749e-05
2.29553e-06
7.75013e-05
2.47527e-06
7.75277e-05
2.66732e-06
7.75726e-05
2.87048e-06
7.76394e-05
3.08376e-06
3.30379e-06
7.77311e-05
7.9884e-05
7.52631e-08
7.98972e-05
2.12553e-07
7.99124e-05
3.25229e-07
7.99275e-05
4.17922e-07
7.99413e-05
4.96021e-07
7.99532e-05
5.62494e-07
7.99628e-05
6.20343e-07
7.99699e-05
6.72263e-07
7.99747e-05
7.20226e-07
7.99771e-05
7.6579e-07
7.9977e-05
8.10288e-07
7.99746e-05
8.54867e-07
7.99698e-05
9.00536e-07
7.99627e-05
9.4822e-07
7.99534e-05
9.98791e-07
7.99418e-05
1.05309e-06
7.99283e-05
1.11196e-06
7.9913e-05
1.17622e-06
7.98963e-05
1.24669e-06
7.98786e-05
1.32421e-06
7.98604e-05
1.40957e-06
7.98427e-05
1.50356e-06
7.98263e-05
1.60691e-06
7.98125e-05
1.72024e-06
7.98029e-05
1.84407e-06
7.97992e-05
1.97872e-06
7.98036e-05
2.12428e-06
7.98186e-05
2.28058e-06
7.98468e-05
2.44708e-06
7.98912e-05
2.62292e-06
7.99549e-05
2.80678e-06
8.00412e-05
2.99742e-06
3.19169e-06
8.01533e-05
8.21649e-05
7.08027e-08
8.2176e-05
2.01473e-07
8.21895e-05
3.11668e-07
8.22035e-05
4.0401e-07
8.22167e-05
4.82798e-07
8.22284e-05
5.50759e-07
8.22382e-05
6.10519e-07
8.2246e-05
6.64512e-07
8.22516e-05
7.14612e-07
8.22551e-05
7.62328e-07
8.22564e-05
8.08973e-07
8.22556e-05
8.55672e-07
8.22527e-05
9.03406e-07
8.22479e-05
9.53071e-07
8.22411e-05
1.0055e-06
8.22327e-05
1.0615e-06
8.22229e-05
1.12183e-06
8.22119e-05
1.18723e-06
8.22001e-05
1.25844e-06
8.21882e-05
1.33614e-06
8.21768e-05
1.42099e-06
8.21667e-05
1.51359e-06
8.21592e-05
1.61447e-06
8.21554e-05
1.72402e-06
8.2157e-05
1.84251e-06
8.21657e-05
1.97e-06
8.21837e-05
2.10631e-06
8.22132e-05
2.251e-06
8.2257e-05
2.40332e-06
8.23177e-05
2.56221e-06
8.23983e-05
2.72619e-06
8.25019e-05
2.89383e-06
3.06207e-06
8.26315e-05
8.45114e-05
6.71906e-08
8.45208e-05
1.92092e-07
8.45328e-05
2.99646e-07
8.45455e-05
3.91302e-07
8.45579e-05
4.70436e-07
8.45691e-05
5.39496e-07
8.45789e-05
6.00783e-07
8.45869e-05
6.56486e-07
8.45931e-05
7.08379e-07
8.45975e-05
7.57917e-07
8.46001e-05
8.06363e-07
8.4601e-05
8.54809e-07
8.46002e-05
9.04207e-07
8.45979e-05
9.55417e-07
8.45941e-05
1.00923e-06
8.45892e-05
1.06639e-06
8.45835e-05
1.12759e-06
8.45772e-05
1.19348e-06
8.4571e-05
1.26468e-06
8.45654e-05
1.34177e-06
8.45611e-05
1.42523e-06
8.45592e-05
1.51552e-06
8.45607e-05
1.61294e-06
8.4567e-05
1.7177e-06
8.45797e-05
1.82983e-06
8.46005e-05
1.94917e-06
8.46315e-05
2.07532e-06
8.46749e-05
2.20764e-06
8.47331e-05
2.34517e-06
8.48086e-05
2.48671e-06
8.49041e-05
2.63065e-06
8.50225e-05
2.77543e-06
2.91807e-06
8.51665e-05
8.69252e-05
6.41883e-08
8.69332e-05
1.84023e-07
8.6944e-05
2.88852e-07
8.69558e-05
3.79486e-07
8.69677e-05
4.58575e-07
8.69789e-05
5.28297e-07
8.6989e-05
5.90696e-07
8.69977e-05
6.47739e-07
8.7005e-05
7.01085e-07
8.70108e-05
7.52119e-07
8.70152e-05
8.02043e-07
8.70181e-05
8.51902e-07
8.70197e-05
9.02608e-07
8.70201e-05
9.54975e-07
8.70196e-05
1.00974e-06
8.70184e-05
1.06758e-06
8.70169e-05
1.1291e-06
8.70155e-05
1.19487e-06
8.70148e-05
1.26541e-06
8.70154e-05
1.34114e-06
8.70182e-05
1.42243e-06
8.70242e-05
1.50956e-06
8.70344e-05
1.60266e-06
8.70504e-05
1.70176e-06
8.70735e-05
1.8067e-06
8.71055e-05
1.91713e-06
8.71484e-05
2.03246e-06
8.72042e-05
2.15189e-06
8.7275e-05
2.27434e-06
8.73632e-05
2.39847e-06
8.74712e-05
2.52264e-06
8.76015e-05
2.64515e-06
2.7632e-06
8.77564e-05
8.94081e-05
6.16234e-08
8.94152e-05
1.76955e-07
8.9425e-05
2.79048e-07
8.9436e-05
3.68412e-07
8.94475e-05
4.47149e-07
8.94586e-05
5.17187e-07
8.94689e-05
5.80344e-07
8.94783e-05
6.38384e-07
8.94865e-05
6.92845e-07
8.94936e-05
7.45031e-07
8.94996e-05
7.96077e-07
8.95045e-05
8.46973e-07
8.95085e-05
8.98583e-07
8.95119e-05
9.51665e-07
8.95147e-05
1.0069e-06
8.95174e-05
1.06489e-06
8.95203e-05
1.12616e-06
8.9524e-05
1.1912e-06
8.9529e-05
1.2604e-06
8.9536e-05
1.33408e-06
8.9546e-05
1.41247e-06
8.95599e-05
1.49569e-06
8.95788e-05
1.58374e-06
8.96041e-05
1.67647e-06
8.96372e-05
1.77356e-06
8.96798e-05
1.87452e-06
8.97337e-05
1.97863e-06
8.98006e-05
2.08495e-06
8.98826e-05
2.19233e-06
8.99817e-05
2.29936e-06
9.01e-05
2.40439e-06
9.02394e-05
2.50568e-06
2.60066e-06
9.0402e-05
9.19621e-05
5.93701e-08
9.19684e-05
1.70631e-07
9.19775e-05
2.69996e-07
9.1988e-05
3.57866e-07
9.19992e-05
4.35946e-07
9.20105e-05
5.05937e-07
9.20214e-05
5.69472e-07
9.20316e-05
6.28137e-07
9.20411e-05
6.83346e-07
9.20498e-05
7.3632e-07
9.20578e-05
7.88123e-07
9.20651e-05
8.39682e-07
9.20718e-05
8.91803e-07
9.20783e-05
9.45185e-07
9.20848e-05
1.00044e-06
9.20916e-05
1.0581e-06
9.20991e-05
1.11862e-06
9.2108e-05
1.18237e-06
9.21187e-05
1.24965e-06
9.21321e-05
1.32067e-06
9.21491e-05
1.39553e-06
9.21705e-05
1.47423e-06
9.21976e-05
1.55663e-06
9.22316e-05
1.64245e-06
9.2274e-05
1.73126e-06
9.23261e-05
1.82242e-06
9.23895e-05
1.91514e-06
9.24661e-05
2.00841e-06
9.25574e-05
2.10103e-06
9.26652e-05
2.19159e-06
9.27911e-05
2.27845e-06
9.29368e-05
2.35995e-06
2.43374e-06
9.31037e-05
9.45892e-05
5.73325e-08
9.4595e-05
1.64837e-07
9.46035e-05
2.61481e-07
9.46137e-05
3.47665e-07
9.46248e-05
4.24813e-07
9.46363e-05
4.94438e-07
9.46478e-05
5.58006e-07
9.4659e-05
6.16948e-07
9.46698e-05
6.7256e-07
9.46801e-05
7.25971e-07
9.46901e-05
7.78171e-07
9.46997e-05
8.30016e-07
9.47093e-05
8.82249e-07
9.4719e-05
9.35506e-07
9.47291e-05
9.90331e-07
9.474e-05
1.04718e-06
9.47522e-05
1.10643e-06
9.47662e-05
1.16836e-06
9.47827e-05
1.23318e-06
9.48024e-05
1.30098e-06
9.48261e-05
1.37178e-06
9.48549e-05
1.44544e-06
9.48898e-05
1.52173e-06
9.4932e-05
1.60027e-06
9.49827e-05
1.68051e-06
9.50434e-05
1.76176e-06
9.51153e-05
1.84317e-06
9.52001e-05
1.92368e-06
9.5299e-05
2.00211e-06
9.54135e-05
2.07708e-06
9.55449e-05
2.14705e-06
9.56944e-05
2.21042e-06
2.26518e-06
9.5863e-05
9.72914e-05
5.54362e-08
9.72969e-05
1.59396e-07
9.7305e-05
2.53305e-07
9.73151e-05
3.37621e-07
9.73263e-05
4.13572e-07
9.73382e-05
4.82511e-07
9.73505e-05
5.45766e-07
9.73628e-05
6.04629e-07
9.73751e-05
6.60281e-07
9.73873e-05
7.13764e-07
9.73995e-05
7.65986e-07
9.74118e-05
8.17736e-07
9.74243e-05
8.69688e-07
9.74374e-05
9.22412e-07
9.74514e-05
9.76381e-07
9.74666e-05
1.03198e-06
9.74835e-05
1.0895e-06
9.75027e-05
1.14916e-06
9.75248e-05
1.21105e-06
9.75506e-05
1.27519e-06
9.75809e-05
1.3415e-06
9.76166e-05
1.40975e-06
9.76587e-05
1.47963e-06
9.77083e-05
1.55067e-06
9.77665e-05
1.62228e-06
9.78346e-05
1.69371e-06
9.79136e-05
1.76408e-06
9.8005e-05
1.83236e-06
9.81097e-05
1.8974e-06
9.82289e-05
1.9579e-06
9.83635e-05
2.01244e-06
9.85143e-05
2.05957e-06
2.0976e-06
9.86819e-05
0.000100071
5.36209e-08
0.000100076
1.54154e-07
0.000100084
2.4529e-07
0.000100094
3.27558e-07
0.000100106
4.02057e-07
0.000100118
4.7001e-07
0.000100131
5.32624e-07
0.000100145
5.91067e-07
0.000100159
6.46415e-07
0.000100173
6.99618e-07
0.000100187
7.51506e-07
0.000100202
8.02793e-07
0.000100218
8.54085e-07
0.000100235
9.05885e-07
0.000100252
9.58599e-07
0.000100272
1.01254e-06
0.000100293
1.06792e-06
0.000100318
1.12488e-06
0.000100345
1.18345e-06
0.000100377
1.24357e-06
0.000100413
1.30506e-06
0.000100455
1.36764e-06
0.000100504
1.43093e-06
0.00010056
1.49442e-06
0.000100625
1.55747e-06
0.000100699
1.61933e-06
0.000100784
1.67914e-06
0.000100881
1.73589e-06
0.00010099
1.78851e-06
0.000101112
1.83582e-06
0.000101248
1.87654e-06
0.000101398
1.9094e-06
1.93302e-06
0.000101563
0.00010293
5.1837e-08
0.000102935
1.48983e-07
0.000102943
2.3727e-07
0.000102953
3.17307e-07
0.000102965
3.90104e-07
0.000102978
4.56776e-07
0.000102993
5.18426e-07
0.000103008
5.76112e-07
0.000103023
6.30809e-07
0.000103039
6.8338e-07
0.000103056
7.34577e-07
0.000103074
7.85041e-07
0.000103093
8.35309e-07
0.000103113
8.85818e-07
0.000103135
9.36905e-07
0.000103158
9.88818e-07
0.000103185
1.04171e-06
0.000103214
1.09564e-06
0.000103247
1.15057e-06
0.000103284
1.20639e-06
0.000103326
1.26285e-06
0.000103374
1.31963e-06
0.000103429
1.37631e-06
0.000103491
1.43233e-06
0.000103561
1.48708e-06
0.000103641
1.53979e-06
0.00010373
1.58965e-06
0.00010383
1.63573e-06
0.000103942
1.67704e-06
0.000104065
1.71254e-06
0.000104201
1.74113e-06
0.000104348
1.76172e-06
1.77323e-06
0.000104508
0.000105871
5.00421e-08
0.000105876
1.43768e-07
0.000105884
2.29098e-07
0.000105895
3.0671e-07
0.000105907
3.77554e-07
0.000105921
4.42657e-07
0.000105937
5.03029e-07
0.000105953
5.59632e-07
0.000105971
6.13346e-07
0.000105989
6.6495e-07
0.000106008
7.15119e-07
0.000106029
7.64422e-07
0.000106051
8.13329e-07
0.000106075
8.6221e-07
0.0001061
9.11342e-07
0.000106128
9.60909e-07
0.000106159
1.011e-06
0.000106193
1.06163e-06
0.000106231
1.1127e-06
0.000106273
1.16403e-06
0.000106321
1.21536e-06
0.000106374
1.26632e-06
0.000106434
1.31646e-06
0.000106501
1.36525e-06
0.000106576
1.41205e-06
0.000106659
1.45616e-06
0.000106752
1.49682e-06
0.000106855
1.53318e-06
0.000106967
1.56437e-06
0.000107091
1.5895e-06
0.000107224
1.60765e-06
0.000107368
1.61792e-06
1.61949e-06
0.000107522
0.000108895
4.81996e-08
0.000108901
1.38409e-07
0.000108909
2.20636e-07
0.00010892
2.95616e-07
0.000108933
3.64255e-07
0.000108949
4.27505e-07
0.000108965
4.86297e-07
0.000108983
5.41501e-07
0.000109003
5.93912e-07
0.000109024
6.44227e-07
0.000109046
6.93047e-07
0.000109069
7.40871e-07
0.000109094
7.88105e-07
0.000109122
8.35057e-07
0.000109151
8.81946e-07
0.000109183
9.28899e-07
0.000109218
9.75958e-07
0.000109257
1.02308e-06
0.000109299
1.07012e-06
0.000109346
1.11689e-06
0.000109399
1.16307e-06
0.000109457
1.2083e-06
0.000109521
1.25211e-06
0.000109592
1.29399e-06
0.000109671
1.33333e-06
0.000109758
1.36949e-06
0.000109853
1.40178e-06
0.000109956
1.42945e-06
0.000110069
1.45177e-06
0.000110191
1.46798e-06
0.000110321
1.47733e-06
0.00011046
1.47913e-06
1.47276e-06
0.000110606
0.000112006
4.62769e-08
0.000112012
1.32818e-07
0.000112021
2.11759e-07
0.000112033
2.83882e-07
0.000112047
3.50056e-07
0.000112063
4.11173e-07
0.000112081
4.68087e-07
0.000112101
5.21588e-07
0.000112123
5.72388e-07
0.000112146
6.2111e-07
0.000112171
6.68282e-07
0.000112197
7.14337e-07
0.000112226
7.59619e-07
0.000112256
8.0438e-07
0.00011229
8.48784e-07
0.000112326
8.92911e-07
0.000112365
9.36758e-07
0.000112408
9.80239e-07
0.000112454
1.0232e-06
0.000112506
1.06539e-06
0.000112563
1.10651e-06
0.000112625
1.14618e-06
0.000112693
1.18396e-06
0.000112767
1.21935e-06
0.000112849
1.25181e-06
0.000112938
1.28075e-06
0.000113034
1.30556e-06
0.000113138
1.32561e-06
0.000113249
1.34029e-06
0.000113368
1.34898e-06
0.000113494
1.3511e-06
0.000113627
1.34613e-06
1.33368e-06
0.000113767
0.000115206
4.42449e-08
0.000115212
1.26912e-07
0.000115222
2.02352e-07
0.000115234
2.71377e-07
0.00011525
3.34828e-07
0.000115267
3.93537e-07
0.000115287
4.48289e-07
0.000115309
4.998e-07
0.000115332
5.48706e-07
0.000115358
5.95556e-07
0.000115385
6.40809e-07
0.000115415
6.84837e-07
0.000115447
7.27925e-07
0.000115481
7.70273e-07
0.000115518
8.11999e-07
0.000115557
8.53139e-07
0.0001156
8.93656e-07
0.000115647
9.33437e-07
0.000115698
9.723e-07
0.000115754
1.01e-06
0.000115814
1.04622e-06
0.000115879
1.0806e-06
0.000115951
1.11271e-06
0.000116028
1.14212e-06
0.000116111
1.16832e-06
0.000116201
1.1908e-06
0.000116298
1.20905e-06
0.000116401
1.22255e-06
0.00011651
1.23079e-06
0.000116626
1.23329e-06
0.000116748
1.22964e-06
0.000116874
1.21945e-06
1.2025e-06
0.000117005
0.000118498
4.20762e-08
0.000118504
1.20616e-07
0.000118514
1.92301e-07
0.000118528
2.57966e-07
0.000118544
3.18421e-07
0.000118563
3.74442e-07
0.000118585
4.26753e-07
0.000118609
4.75995e-07
0.000118635
5.22735e-07
0.000118663
5.6745e-07
0.000118693
6.10538e-07
0.000118726
6.52311e-07
0.00011876
6.93001e-07
0.000118798
7.3276e-07
0.000118838
7.71664e-07
0.000118882
8.09718e-07
0.000118929
8.46853e-07
0.000118979
8.82939e-07
0.000119034
9.17783e-07
0.000119092
9.51134e-07
0.000119156
9.82691e-07
0.000119224
1.01211e-06
0.000119298
1.03901e-06
0.000119377
1.06298e-06
0.000119462
1.0836e-06
0.000119552
1.10044e-06
0.000119648
1.11305e-06
0.00011975
1.12102e-06
0.000119857
1.12397e-06
0.000119968
1.12154e-06
0.000120085
1.11344e-06
0.000120205
1.09942e-06
1.07939e-06
0.000120328
0.000121884
3.9747e-08
0.00012189
1.13862e-07
0.000121901
1.81515e-07
0.000121916
2.43549e-07
0.000121933
3.00741e-07
0.000121954
3.53814e-07
0.000121977
4.03426e-07
0.000122003
4.50151e-07
0.000122031
4.94483e-07
0.000122062
5.36837e-07
0.000122095
5.77548e-07
0.00012213
6.16874e-07
0.000122168
6.54999e-07
0.000122209
6.92032e-07
0.000122253
7.28016e-07
0.0001223
7.62927e-07
0.00012235
7.96678e-07
0.000122404
8.29125e-07
0.000122461
8.60072e-07
0.000122523
8.89275e-07
0.000122589
9.16454e-07
0.00012266
9.41294e-07
0.000122736
9.63456e-07
0.000122816
9.82583e-07
0.000122901
9.98312e-07
0.000122992
1.01028e-06
0.000123086
1.01815e-06
0.000123186
1.02159e-06
0.00012329
1.02031e-06
0.000123397
1.01407e-06
0.000123508
1.00269e-06
0.000123621
9.86027e-07
9.64095e-07
0.000123736
0.000125366
3.72285e-08
0.000125373
1.06571e-07
0.000125385
1.69868e-07
0.0001254
2.27965e-07
0.00012542
2.81601e-07
0.000125442
3.31448e-07
0.000125467
3.78097e-07
0.000125495
4.22058e-07
0.000125526
4.63756e-07
0.000125559
5.03544e-07
0.000125595
5.41697e-07
0.000125634
5.78424e-07
0.000125675
6.13864e-07
0.000125719
6.48089e-07
0.000125766
6.81112e-07
0.000125816
7.12888e-07
0.000125869
7.43316e-07
0.000125926
7.72246e-07
0.000125987
7.99486e-07
0.000126051
8.2481e-07
0.00012612
8.47961e-07
0.000126192
8.68656e-07
0.000126269
8.86599e-07
0.00012635
9.01489e-07
0.000126435
9.13023e-07
0.000126525
9.20914e-07
0.000126618
9.24894e-07
0.000126715
9.24725e-07
0.000126815
9.20207e-07
0.000126918
9.11188e-07
0.000127023
8.97572e-07
0.00012713
8.79309e-07
8.56492e-07
0.000127237
0.000128948
3.45065e-08
0.000128956
9.86999e-08
0.000128968
1.57312e-07
0.000128985
2.11183e-07
0.000129006
2.61005e-07
0.00012903
3.07385e-07
0.000129057
3.50848e-07
0.000129087
3.91835e-07
0.00012912
4.30705e-07
0.000129156
4.67749e-07
0.000129195
5.0319e-07
0.000129236
5.3719e-07
0.00012928
5.69848e-07
0.000129327
6.01205e-07
0.000129377
6.31249e-07
0.000129429
6.5992e-07
0.000129486
6.87109e-07
0.000129545
7.1267e-07
0.000129608
7.36422e-07
0.000129675
7.58155e-07
0.000129745
7.7764e-07
0.000129819
7.9463e-07
0.000129897
8.08874e-07
0.000129978
8.20122e-07
0.000130063
8.28131e-07
0.000130152
8.3268e-07
0.000130243
8.33569e-07
0.000130337
8.30635e-07
0.000130433
8.23752e-07
0.000130532
8.12841e-07
0.000130631
7.97873e-07
0.000130732
7.78865e-07
7.55956e-07
0.000130832
0.000132632
3.1527e-08
0.000132641
9.01082e-08
0.000132654
1.43622e-07
0.000132673
1.92905e-07
0.000132695
2.38597e-07
0.000132721
2.8124e-07
0.000132751
3.21287e-07
0.000132783
3.59105e-07
0.000132819
3.94985e-07
0.000132858
4.29156e-07
0.000132899
4.61789e-07
0.000132943
4.92998e-07
0.00013299
5.22846e-07
0.00013304
5.51347e-07
0.000133093
5.78468e-07
0.000133149
6.04137e-07
0.000133208
6.28247e-07
0.00013327
6.50656e-07
0.000133335
6.71196e-07
0.000133403
6.8968e-07
0.000133475
7.05905e-07
0.00013355
7.19663e-07
0.000133628
7.30745e-07
0.000133709
7.3895e-07
0.000133793
7.4409e-07
0.00013388
7.46001e-07
0.000133969
7.44546e-07
0.00013406
7.3962e-07
0.000134153
7.3116e-07
0.000134246
7.19143e-07
0.000134341
7.03595e-07
0.000134435
6.84583e-07
6.62274e-07
0.000134529
0.000136421
2.83241e-08
0.000136431
8.08556e-08
0.000136445
1.28921e-07
0.000136465
1.7333e-07
0.000136489
2.14647e-07
0.000136517
2.53332e-07
0.000136548
2.89761e-07
0.000136583
3.24226e-07
0.000136621
3.56952e-07
0.000136662
3.88108e-07
0.000136706
4.17817e-07
0.000136753
4.46152e-07
0.000136803
4.73145e-07
0.000136855
4.98786e-07
0.000136911
5.23031e-07
0.000136969
5.45798e-07
0.00013703
5.66982e-07
0.000137095
5.86449e-07
0.000137162
6.04046e-07
0.000137232
6.19609e-07
0.000137305
6.32965e-07
0.000137381
6.4394e-07
0.000137459
6.52366e-07
0.00013754
6.58086e-07
0.000137623
6.6096e-07
0.000137708
6.60874e-07
0.000137795
6.57738e-07
0.000137883
6.515e-07
0.000137972
6.42141e-07
0.000138061
6.2968e-07
0.000138151
6.1418e-07
0.00013824
5.95734e-07
5.74525e-07
0.000138327
0.000140319
2.46992e-08
0.00014033
7.0507e-08
0.000140346
1.12569e-07
0.000140368
1.51693e-07
0.000140394
1.8834e-07
0.000140425
2.2286e-07
0.000140459
2.55529e-07
0.000140496
2.8655e-07
0.000140537
3.16065e-07
0.000140581
3.44184e-07
0.000140628
3.70976e-07
0.000140678
3.96474e-07
0.00014073
4.2068e-07
0.000140785
4.43566e-07
0.000140843
4.65074e-07
0.000140904
4.85121e-07
0.000140967
5.03604e-07
0.000141033
5.20399e-07
0.000141102
5.35373e-07
0.000141173
5.48384e-07
0.000141247
5.59287e-07
0.000141323
5.67942e-07
0.000141401
5.74217e-07
0.000141481
5.77994e-07
0.000141563
5.79175e-07
0.000141646
5.77683e-07
0.000141731
5.73474e-07
0.000141816
5.66529e-07
0.000141901
5.56864e-07
0.000141986
5.44531e-07
0.000142071
5.29615e-07
0.000142154
5.1223e-07
4.9256e-07
0.000142236
0.000144328
2.09703e-08
0.000144339
5.95968e-08
0.000144357
9.53006e-08
0.000144379
1.28827e-07
0.000144407
1.60509e-07
0.000144439
1.90596e-07
0.000144476
2.19274e-07
0.000144516
2.46652e-07
0.000144559
2.72793e-07
0.000144605
2.97745e-07
0.000144655
3.21532e-07
0.000144707
3.44149e-07
0.000144762
3.6557e-07
0.00014482
3.85746e-07
0.00014488
4.04611e-07
0.000144944
4.22079e-07
0.000145009
4.38051e-07
0.000145077
4.52417e-07
0.000145147
4.65058e-07
0.00014522
4.75854e-07
0.000145295
4.84688e-07
0.000145371
4.91447e-07
0.000145449
4.96031e-07
0.000145529
4.98356e-07
0.00014561
4.98355e-07
0.000145691
4.95985e-07
0.000145774
4.9123e-07
0.000145856
4.841e-07
0.000145938
4.74635e-07
0.00014602
4.62901e-07
0.000146101
4.48998e-07
0.00014618
4.33043e-07
4.15213e-07
0.000146257
0.000148453
1.61795e-08
0.000148466
4.65159e-08
0.000148486
7.52063e-08
0.000148512
1.0288e-07
0.000148543
1.29536e-07
0.000148578
1.5522e-07
0.000148618
1.7998e-07
0.00014866
2.03807e-07
0.000148706
2.26674e-07
0.000148756
2.48571e-07
0.000148808
2.69471e-07
0.000148863
2.89332e-07
0.00014892
3.08104e-07
0.00014898
3.25727e-07
0.000149042
3.42129e-07
0.000149107
3.57229e-07
0.000149174
3.70935e-07
0.000149244
3.83148e-07
0.000149315
3.9377e-07
0.000149388
4.02701e-07
0.000149463
4.09847e-07
0.000149539
4.15121e-07
0.000149617
4.18449e-07
0.000149696
4.19773e-07
0.000149775
4.19054e-07
0.000149855
4.16273e-07
0.000149934
4.11433e-07
0.000150014
4.04565e-07
0.000150093
3.95719e-07
0.000150171
3.84975e-07
0.000150247
3.72434e-07
0.000150322
3.58213e-07
3.42475e-07
0.000150395
0.000152693
1.20641e-08
0.000152706
3.34522e-08
0.000152727
5.44977e-08
0.000152754
7.56773e-08
0.000152787
9.6771e-08
0.000152825
1.17669e-07
0.000152866
1.38243e-07
0.000152912
1.58306e-07
0.000152961
1.77733e-07
0.000153013
1.96472e-07
0.000153068
2.14445e-07
0.000153126
2.31558e-07
0.000153186
2.47735e-07
0.000153249
2.62904e-07
0.000153314
2.76986e-07
0.000153381
2.899e-07
0.000153451
3.0156e-07
0.000153522
3.11881e-07
0.000153595
3.20779e-07
0.000153669
3.28172e-07
0.000153745
3.33985e-07
0.000153822
3.38155e-07
0.0001539
3.40627e-07
0.000153978
3.41365e-07
0.000154057
3.40348e-07
0.000154136
3.37573e-07
0.000154214
3.3306e-07
0.000154292
3.26847e-07
0.000154369
3.18992e-07
0.000154444
3.09573e-07
0.000154518
2.98689e-07
0.00015459
2.8645e-07
2.72998e-07
0.000154659
0.000157059
4.51637e-09
0.000157077
1.56089e-08
0.000157102
2.9089e-08
0.000157133
4.44564e-08
0.00015717
6.05158e-08
0.00015721
7.70419e-08
0.000157255
9.37765e-08
0.000157303
1.10364e-07
0.000157354
1.2656e-07
0.000157408
1.42291e-07
0.000157465
1.57449e-07
0.000157525
1.71918e-07
0.000157587
1.85615e-07
0.000157651
1.98461e-07
0.000157718
2.10377e-07
0.000157787
2.21287e-07
0.000157857
2.3111e-07
0.000157929
2.39774e-07
0.000158003
2.47208e-07
0.000158077
2.5335e-07
0.000158153
2.5814e-07
0.00015823
2.61531e-07
0.000158307
2.63486e-07
0.000158384
2.63983e-07
0.000158462
2.63014e-07
0.000158539
2.60587e-07
0.000158615
2.56727e-07
0.000158691
2.51475e-07
0.000158765
2.44891e-07
0.000158837
2.37046e-07
0.000158908
2.28029e-07
0.000158976
2.17938e-07
2.06894e-07
0.000159042
0.000161543
-5.00169e-10
0.000161561
-2.27836e-09
0.000161589
1.60859e-09
0.000161623
1.01767e-08
0.000161663
2.05905e-08
0.000161708
3.25148e-08
0.000161756
4.53135e-08
0.000161808
5.82255e-08
0.000161864
7.11771e-08
0.000161922
8.40808e-08
0.000161983
9.66285e-08
0.000162046
1.08659e-07
0.000162111
1.2008e-07
0.000162179
1.3081e-07
0.000162249
1.40774e-07
0.00016232
1.49908e-07
0.000162393
1.58134e-07
0.000162467
1.65398e-07
0.000162543
1.71648e-07
0.000162619
1.7683e-07
0.000162697
1.80904e-07
0.000162774
1.83835e-07
0.000162852
1.85599e-07
0.00016293
1.86184e-07
0.000163007
1.85592e-07
0.000163084
1.83834e-07
0.00016316
1.80937e-07
0.000163235
1.76941e-07
0.000163308
1.71898e-07
0.000163379
1.65872e-07
0.000163448
1.58939e-07
0.000163515
1.5118e-07
1.42695e-07
0.000163579
0.000166168
-1.47748e-08
0.000166193
-2.78843e-08
0.000166225
-3.01663e-08
0.000166263
-2.74119e-08
0.000166305
-2.18495e-08
0.000166352
-1.39431e-08
0.000166401
-4.21763e-09
0.000166454
5.28292e-09
0.000166511
1.48365e-08
0.00016657
2.48179e-08
0.000166632
3.46632e-08
0.000166696
4.42351e-08
0.000166763
5.33964e-08
0.000166832
6.205e-08
0.000166902
7.01318e-08
0.000166975
7.75942e-08
0.000167048
8.43258e-08
0.000167123
9.03356e-08
0.0001672
9.5571e-08
0.000167276
9.99883e-08
0.000167354
1.03555e-07
0.000167431
1.06248e-07
0.000167509
1.08051e-07
0.000167586
1.08958e-07
0.000167663
1.08972e-07
0.000167738
1.08106e-07
0.000167813
1.06383e-07
0.000167886
1.03837e-07
0.000167957
1.00508e-07
0.000168027
9.64478e-08
0.000168094
9.17137e-08
0.000168159
8.6368e-08
8.04874e-08
0.000168221
0.000170914
-2.77307e-08
0.000170948
-6.19914e-08
0.00017099
-7.23168e-08
0.000171038
-7.58475e-08
0.000171091
-7.44729e-08
0.000171147
-6.95868e-08
0.000171205
-6.30744e-08
0.000171267
-5.59885e-08
0.00017133
-4.84686e-08
0.000171395
-4.06942e-08
0.000171463
-3.29924e-08
0.000171533
-2.5506e-08