/*--------------------------------*- C++ -*----------------------------------*\
  =========                 |
  \\      /  F ield         | OpenFOAM: The Open Source CFD Toolbox
   \\    /   O peration     | Website:  https://openfoam.org
    \\  /    A nd           | Version:  10
     \\/     M anipulation  |
\*---------------------------------------------------------------------------*/
FoamFile
{
    format      ascii;
    class       volVectorField;
    location    "0.13";
    object      U;
}
// * * * * * * * * * * * * * * * * * * * * * * * * * * * * * * * * * * * * * //

dimensions      [0 1 -1 0 0 0 0];

internalField   nonuniform List<vector> 
6820
(
(7.28171 0.0248798 0)
(7.17771 0.0401886 0)
(7.05421 0.0452241 0)
(6.92443 0.0479753 0)
(6.79482 0.0491576 0)
(6.66584 0.0494309 0)
(6.53796 0.0492397 0)
(6.41169 0.0487782 0)
(6.28714 0.0481658 0)
(6.16429 0.0474846 0)
(6.04307 0.0467885 0)
(5.92335 0.0461168 0)
(5.80495 0.0455015 0)
(5.68764 0.0449707 0)
(5.57115 0.0445518 0)
(5.45513 0.0442727 0)
(5.33921 0.044164 0)
(5.22291 0.0442599 0)
(5.10567 0.0445996 0)
(4.98685 0.0452288 0)
(4.86568 0.0462007 0)
(4.74126 0.0475773 0)
(4.61252 0.0494298 0)
(4.47822 0.0518381 0)
(4.33693 0.0548888 0)
(4.18699 0.05867 0)
(4.02651 0.0632594 0)
(3.85339 0.0687315 0)
(3.66537 0.0750254 0)
(3.46014 0.082409 0)
(3.23443 0.0896008 0)
(2.99065 0.100023 0)
(2.70696 0.105496 0)
(7.35925 0.0259865 0)
(7.42103 0.0360492 0)
(7.47604 0.0380426 0)
(7.52612 0.0402824 0)
(7.57183 0.0419431 0)
(7.61201 0.043352 0)
(7.64663 0.0447877 0)
(7.67606 0.0462592 0)
(7.7006 0.0477688 0)
(7.72052 0.0493306 0)
(7.73608 0.050956 0)
(7.74752 0.0526595 0)
(7.75504 0.0544623 0)
(7.75883 0.0563924 0)
(7.75901 0.0584858 0)
(7.75566 0.0607875 0)
(7.74883 0.0633536 0)
(7.73851 0.0662533 0)
(7.72463 0.0695716 0)
(7.70703 0.0734126 0)
(7.6855 0.0779033 0)
(7.6597 0.083198 0)
(7.62918 0.0894834 0)
(7.59332 0.0969826 0)
(7.55134 0.10596 0)
(7.50221 0.11672 0)
(7.44464 0.129611 0)
(7.37698 0.145004 0)
(7.29734 0.16328 0)
(7.20282 0.184921 0)
(7.0919 0.209785 0)
(6.95646 0.24018 0)
(6.80812 0.270069 0)
(7.33539 0.00704709 0)
(7.34539 0.010491 0)
(7.35398 0.0133084 0)
(7.3612 0.0169731 0)
(7.36894 0.0201055 0)
(7.37709 0.022875 0)
(7.38558 0.0255103 0)
(7.39456 0.0280224 0)
(7.40403 0.0304351 0)
(7.41392 0.0327926 0)
(7.42415 0.0351341 0)
(7.43466 0.037498 0)
(7.44536 0.0399264 0)
(7.45617 0.0424654 0)
(7.46702 0.0451674 0)
(7.47785 0.048093 0)
(7.48858 0.0513143 0)
(7.49916 0.054917 0)
(7.50955 0.0590052 0)
(7.51972 0.0637055 0)
(7.52964 0.0691728 0)
(7.53931 0.0755966 0)
(7.54873 0.0832091 0)
(7.55794 0.0922928 0)
(7.56696 0.103191 0)
(7.57586 0.116311 0)
(7.58469 0.132142 0)
(7.59348 0.151226 0)
(7.60219 0.174239 0)
(7.61075 0.201744 0)
(7.61881 0.234744 0)
(7.6262 0.273343 0)
(7.63191 0.318865 0)
(7.33492 0.00945003 0)
(7.34226 0.0205704 0)
(7.3474 0.0263487 0)
(7.35017 0.0303446 0)
(7.35231 0.0330692 0)
(7.35389 0.035048 0)
(7.35485 0.0367012 0)
(7.35538 0.0381786 0)
(7.35557 0.0395672 0)
(7.35546 0.0409413 0)
(7.35509 0.042355 0)
(7.35446 0.043851 0)
(7.3536 0.0454698 0)
(7.3525 0.0472535 0)
(7.35116 0.0492479 0)
(7.34958 0.0515054 0)
(7.34774 0.0540873 0)
(7.34562 0.0570663 0)
(7.34324 0.06053 0)
(7.34057 0.0645842 0)
(7.33763 0.0693569 0)
(7.33445 0.0750033 0)
(7.3311 0.0817107 0)
(7.32767 0.0897051 0)
(7.32433 0.0992574 0)
(7.32132 0.110688 0)
(7.31899 0.124376 0)
(7.31784 0.140756 0)
(7.31852 0.160328 0)
(7.32204 0.183641 0)
(7.32924 0.211217 0)
(7.34251 0.243838 0)
(7.36115 0.280489 0)
(7.33398 0.00658824 0)
(7.33852 0.0132938 0)
(7.34273 0.0164909 0)
(7.34572 0.019432 0)
(7.34827 0.0221201 0)
(7.35032 0.0245356 0)
(7.35175 0.026864 0)
(7.35266 0.0291506 0)
(7.35313 0.0314097 0)
(7.35315 0.0336722 0)
(7.35273 0.0359696 0)
(7.35189 0.0383355 0)
(7.3506 0.0408087 0)
(7.34885 0.0434327 0)
(7.34663 0.0462571 0)
(7.3439 0.0493395 0)
(7.34064 0.0527477 0)
(7.33681 0.0565614 0)
(7.33239 0.0608743 0)
(7.32732 0.0657977 0)
(7.3216 0.071463 0)
(7.3152 0.0780252 0)
(7.3081 0.0856659 0)
(7.30033 0.0945965 0)
(7.29194 0.10506 0)
(7.28302 0.117332 0)
(7.27373 0.131718 0)
(7.26434 0.148545 0)
(7.25519 0.168148 0)
(7.24687 0.190872 0)
(7.23996 0.216895 0)
(7.23591 0.246651 0)
(7.23478 0.278931 0)
(7.33373 0.00559776 0)
(7.33753 0.0138209 0)
(7.34146 0.0195053 0)
(7.34427 0.024186 0)
(7.34651 0.0279392 0)
(7.34827 0.0309324 0)
(7.3495 0.0334905 0)
(7.3503 0.0357896 0)
(7.35072 0.0379315 0)
(7.35078 0.0400061 0)
(7.35047 0.0420863 0)
(7.3498 0.0442285 0)
(7.34876 0.046487 0)
(7.34733 0.048918 0)
(7.34549 0.0515808 0)
(7.34322 0.0545392 0)
(7.34049 0.0578648 0)
(7.33727 0.0616392 0)
(7.33353 0.0659571 0)
(7.32925 0.0709282 0)
(7.3244 0.0766802 0)
(7.31899 0.0833615 0)
(7.313 0.0911433 0)
(7.30646 0.100222 0)
(7.29941 0.110818 0)
(7.29195 0.123177 0)
(7.2842 0.137563 0)
(7.27635 0.154253 0)
(7.26866 0.173515 0)
(7.26151 0.195612 0)
(7.25525 0.220642 0)
(7.25058 0.248869 0)
(7.24758 0.279451 0)
(7.33344 0.00474351 0)
(7.33601 0.0119272 0)
(7.33901 0.016565 0)
(7.34136 0.0201439 0)
(7.34335 0.0231301 0)
(7.34503 0.0257092 0)
(7.3463 0.0281079 0)
(7.34718 0.0304376 0)
(7.34772 0.0327482 0)
(7.34792 0.0350845 0)
(7.34777 0.0374887 0)
(7.34727 0.040011 0)
(7.34643 0.0426965 0)
(7.34522 0.0455912 0)
(7.34364 0.0487463 0)
(7.34167 0.0522216 0)
(7.3393 0.0560864 0)
(7.3365 0.0604208 0)
(7.33327 0.0653174 0)
(7.32959 0.0708836 0)
(7.32548 0.077243 0)
(7.32093 0.0845376 0)
(7.31598 0.0929281 0)
(7.31069 0.102595 0)
(7.30512 0.113739 0)
(7.29939 0.126575 0)
(7.29368 0.141328 0)
(7.28819 0.158226 0)
(7.28319 0.177477 0)
(7.27903 0.199274 0)
(7.27605 0.223685 0)
(7.27478 0.250866 0)
(7.27528 0.280305 0)
(7.3333 0.00412167 0)
(7.33528 0.0110435 0)
(7.3379 0.0162677 0)
(7.34015 0.0206772 0)
(7.34205 0.0245138 0)
(7.34363 0.0278328 0)
(7.34482 0.0308004 0)
(7.34563 0.0335468 0)
(7.34611 0.0361577 0)
(7.34628 0.0387156 0)
(7.34612 0.041297 0)
(7.34565 0.043947 0)
(7.34486 0.0467211 0)
(7.34375 0.049681 0)
(7.3423 0.0528918 0)
(7.34052 0.0564218 0)
(7.33838 0.0603451 0)
(7.33589 0.0647448 0)
(7.33304 0.0697145 0)
(7.32983 0.0753597 0)
(7.32629 0.0817986 0)
(7.32243 0.089164 0)
(7.31831 0.0976037 0)
(7.314 0.10728 0)
(7.30959 0.118367 0)
(7.30522 0.131048 0)
(7.30107 0.14551 0)
(7.29736 0.161935 0)
(7.29437 0.18048 0)
(7.29244 0.201286 0)
(7.29189 0.224402 0)
(7.29317 0.249933 0)
(7.29644 0.277558 0)
(7.3332 0.00368086 0)
(7.33466 0.0101568 0)
(7.33675 0.0151693 0)
(7.33863 0.0192596 0)
(7.34025 0.0227367 0)
(7.34165 0.0257469 0)
(7.34275 0.028481 0)
(7.34356 0.0310797 0)
(7.34408 0.0336271 0)
(7.34432 0.036184 0)
(7.34427 0.0387965 0)
(7.34394 0.0415391 0)
(7.34332 0.0444672 0)
(7.34242 0.0476318 0)
(7.34122 0.0510877 0)
(7.33972 0.0548964 0)
(7.33793 0.0591273 0)
(7.33583 0.0638572 0)
(7.33345 0.0691724 0)
(7.33079 0.07517 0)
(7.32788 0.0819584 0)
(7.32477 0.0896577 0)
(7.32151 0.098399 0)
(7.3182 0.108323 0)
(7.31494 0.119578 0)
(7.31187 0.132315 0)
(7.30919 0.146683 0)
(7.30712 0.162819 0)
(7.30592 0.180838 0)
(7.30589 0.200832 0)
(7.30735 0.222824 0)
(7.31071 0.246872 0)
(7.31612 0.272745 0)
(7.33314 0.00334593 0)
(7.33425 0.00945348 0)
(7.336 0.0144705 0)
(7.3377 0.0187488 0)
(7.33922 0.0225415 0)
(7.34055 0.0259436 0)
(7.34163 0.0290745 0)
(7.34244 0.032039 0)
(7.34298 0.0349113 0)
(7.34326 0.0377628 0)
(7.34328 0.0406685 0)
(7.34305 0.0436698 0)
(7.34255 0.0468194 0)
(7.3418 0.050177 0)
(7.3408 0.0538049 0)
(7.33954 0.0577685 0)
(7.33804 0.0621384 0)
(7.3363 0.0669919 0)
(7.33434 0.0724144 0)
(7.33219 0.0784983 0)
(7.32989 0.085345 0)
(7.32748 0.0930633 0)
(7.32505 0.101769 0)
(7.32269 0.111585 0)
(7.32051 0.122634 0)
(7.31868 0.135039 0)
(7.31737 0.148913 0)
(7.3168 0.164359 0)
(7.31722 0.181452 0)
(7.31893 0.200247 0)
(7.3222 0.220745 0)
(7.32741 0.242966 0)
(7.33473 0.266717 0)
(7.3331 0.0030925 0)
(7.33396 0.00886987 0)
(7.33538 0.0137789 0)
(7.33685 0.017995 0)
(7.33818 0.0217149 0)
(7.33937 0.0250397 0)
(7.34036 0.0280922 0)
(7.34113 0.0309893 0)
(7.34168 0.0338173 0)
(7.34201 0.0366445 0)
(7.34212 0.0395292 0)
(7.342 0.0425376 0)
(7.34167 0.0457291 0)
(7.34113 0.0491603 0)
(7.34037 0.0528888 0)
(7.33941 0.0569761 0)
(7.33826 0.0614879 0)
(7.33694 0.0664949 0)
(7.33546 0.0720737 0)
(7.33387 0.0783068 0)
(7.33221 0.085283 0)
(7.33054 0.0930963 0)
(7.32895 0.101845 0)
(7.32753 0.111628 0)
(7.32642 0.122544 0)
(7.32577 0.134686 0)
(7.32575 0.148135 0)
(7.32658 0.162958 0)
(7.32849 0.179197 0)
(7.33175 0.196869 0)
(7.33662 0.21595 0)
(7.34345 0.236422 0)
(7.3524 0.258093 0)
(7.33307 0.00289441 0)
(7.33375 0.00838186 0)
(7.33493 0.013188 0)
(7.33622 0.0174084 0)
(7.33745 0.0212074 0)
(7.33857 0.0246796 0)
(7.33954 0.0279226 0)
(7.34033 0.0310302 0)
(7.34093 0.0340756 0)
(7.34134 0.0371224 0)
(7.34155 0.0402329 0)
(7.34157 0.0434612 0)
(7.34141 0.0468595 0)
(7.34106 0.0504822 0)
(7.34054 0.0543857 0)
(7.33987 0.0586294 0)
(7.33905 0.0632762 0)
(7.33811 0.0683928 0)
(7.33708 0.0740507 0)
(7.33601 0.0803253 0)
(7.33496 0.0872953 0)
(7.33398 0.0950422 0)
(7.33317 0.103648 0)
(7.33263 0.113193 0)
(7.3325 0.123754 0)
(7.33291 0.135397 0)
(7.33405 0.148176 0)
(7.33612 0.162129 0)
(7.33932 0.177267 0)
(7.34392 0.193579 0)
(7.35014 0.211014 0)
(7.35831 0.229521 0)
(7.36856 0.248902 0)
(7.33305 0.00273597 0)
(7.33359 0.00797167 0)
(7.33459 0.0126609 0)
(7.33572 0.0168397 0)
(7.33682 0.0206273 0)
(7.33785 0.0241044 0)
(7.33878 0.0273558 0)
(7.33955 0.0304697 0)
(7.34017 0.0335212 0)
(7.34063 0.036576 0)
(7.34094 0.0396944 0)
(7.34109 0.0429345 0)
(7.34109 0.046352 0)
(7.34095 0.0500017 0)
(7.34068 0.0539388 0)
(7.34031 0.0582201 0)
(7.33984 0.0629042 0)
(7.33931 0.0680519 0)
(7.33876 0.0737265 0)
(7.33823 0.079993 0)
(7.33778 0.0869179 0)
(7.33749 0.0945677 0)
(7.33745 0.103007 0)
(7.33776 0.112296 0)
(7.33855 0.122489 0)
(7.33996 0.133628 0)
(7.34216 0.14574 0)
(7.34533 0.158834 0)
(7.34967 0.172897 0)
(7.35542 0.187887 0)
(7.36276 0.203729 0)
(7.372 0.220342 0)
(7.38324 0.237514 0)
(7.33304 0.00260594 0)
(7.33348 0.00762113 0)
(7.33433 0.0121909 0)
(7.33533 0.0163242 0)
(7.33634 0.0201142 0)
(7.33732 0.0236357 0)
(7.33823 0.0269648 0)
(7.33903 0.0301795 0)
(7.33971 0.033348 0)
(7.34026 0.0365304 0)
(7.34069 0.0397833 0)
(7.34099 0.0431601 0)
(7.34118 0.0467115 0)
(7.34127 0.0504877 0)
(7.34126 0.0545394 0)
(7.34118 0.058918 0)
(7.34106 0.0636765 0)
(7.34093 0.0688689 0)
(7.34083 0.0745506 0)
(7.34081 0.0807771 0)
(7.34093 0.0876037 0)
(7.34128 0.0950835 0)
(7.34194 0.103266 0)
(7.34302 0.112193 0)
(7.34463 0.1219 0)
(7.34691 0.132408 0)
(7.35003 0.143722 0)
(7.35414 0.155829 0)
(7.35943 0.168692 0)
(7.36608 0.182249 0)
(7.37429 0.196404 0)
(7.38431 0.211051 0)
(7.39621 0.225975 0)
(7.33304 0.00249631 0)
(7.3334 0.00731689 0)
(7.33413 0.0117668 0)
(7.33503 0.0158411 0)
(7.33596 0.0196088 0)
(7.3369 0.0231334 0)
(7.33779 0.0264799 0)
(7.3386 0.0297173 0)
(7.33932 0.0329091 0)
(7.33995 0.0361135 0)
(7.34049 0.0393854 0)
(7.34093 0.042777 0)
(7.3413 0.0463383 0)
(7.3416 0.0501182 0)
(7.34184 0.0541652 0)
(7.34206 0.0585275 0)
(7.34229 0.0632533 0)
(7.34255 0.0683906 0)
(7.34289 0.0739868 0)
(7.34337 0.0800881 0)
(7.34405 0.0867382 0)
(7.345 0.0939769 0)
(7.34632 0.101838 0)
(7.3481 0.110349 0)
(7.35047 0.119525 0)
(7.35354 0.129367 0)
(7.35745 0.139863 0)
(7.36236 0.150978 0)
(7.36842 0.162657 0)
(7.3758 0.17482 0)
(7.38466 0.187355 0)
(7.3952 0.200137 0)
(7.40747 0.21295 0)
(7.33303 0.0024013 0)
(7.33335 0.00704744 0)
(7.33399 0.0113783 0)
(7.3348 0.0153852 0)
(7.33568 0.0191215 0)
(7.33658 0.0226438 0)
(7.33747 0.0260111 0)
(7.33832 0.0292857 0)
(7.33911 0.0325269 0)
(7.33984 0.0357888 0)
(7.3405 0.0391225 0)
(7.34111 0.0425764 0)
(7.34167 0.0461965 0)
(7.34219 0.0500272 0)
(7.3427 0.0541118 0)
(7.34322 0.0584929 0)
(7.34378 0.0632119 0)
(7.34443 0.0683093 0)
(7.34519 0.0738238 0)
(7.34614 0.0797918 0)
(7.34733 0.0862458 0)
(7.34884 0.0932132 0)
(7.35075 0.100715 0)
(7.35316 0.108762 0)
(7.35618 0.117354 0)
(7.35991 0.12648 0)
(7.36448 0.136108 0)
(7.37002 0.14619 0)
(7.37667 0.156656 0)
(7.38457 0.167414 0)
(7.39384 0.178344 0)
(7.40466 0.189308 0)
(7.41703 0.2001 0)
(7.33303 0.00231659 0)
(7.33331 0.00680342 0)
(7.33388 0.0110163 0)
(7.33463 0.0149476 0)
(7.33547 0.0186394 0)
(7.33636 0.0221407 0)
(7.33725 0.0255035 0)
(7.33814 0.0287828 0)
(7.33899 0.0320323 0)
(7.33981 0.0353022 0)
(7.3406 0.0386401 0)
(7.34135 0.0420913 0)
(7.3421 0.0456989 0)
(7.34284 0.0495042 0)
(7.3436 0.0535466 0)
(7.3444 0.0578643 0)
(7.34529 0.0624934 0)
(7.3463 0.067468 0)
(7.34746 0.0728194 0)
(7.34885 0.078575 0)
(7.35051 0.0847575 0)
(7.35253 0.0913833 0)
(7.35498 0.0984609 0)
(7.35794 0.105989 0)
(7.36151 0.113955 0)
(7.3658 0.122333 0)
(7.37091 0.131079 0)
(7.37695 0.140134 0)
(7.38404 0.149417 0)
(7.39228 0.15883 0)
(7.40177 0.168245 0)
(7.41265 0.177524 0)
(7.4249 0.186471 0)
(7.33302 0.00223886 0)
(7.33328 0.00657696 0)
(7.33381 0.0106721 0)
(7.33451 0.0145205 0)
(7.33533 0.0181567 0)
(7.33621 0.0216243 0)
(7.33712 0.0249702 0)
(7.33805 0.0282444 0)
(7.33898 0.0314962 0)
(7.33991 0.0347722 0)
(7.34082 0.0381165 0)
(7.34174 0.0415705 0)
(7.34268 0.0451734 0)
(7.34364 0.0489622 0)
(7.34465 0.0529713 0)
(7.34574 0.0572333 0)
(7.34694 0.0617778 0)
(7.34829 0.0666319 0)
(7.34984 0.0718185 0)
(7.35163 0.0773565 0)
(7.35372 0.0832588 0)
(7.35619 0.0895316 0)
(7.3591 0.0961727 0)
(7.36253 0.10317 0)
(7.36657 0.1105 0)
(7.3713 0.118127 0)
(7.37682 0.125997 0)
(7.38322 0.134045 0)
(7.39058 0.142184 0)
(7.39899 0.150311 0)
(7.40853 0.158302 0)
(7.41928 0.166017 0)
(7.43122 0.173283 0)
(7.33302 0.00216546 0)
(7.33326 0.00636144 0)
(7.33376 0.0103381 0)
(7.33444 0.0140962 0)
(7.33524 0.0176656 0)
(7.33612 0.021085 0)
(7.33707 0.0243969 0)
(7.33805 0.0276458 0)
(7.33906 0.0308763 0)
(7.34008 0.0341305 0)
(7.34113 0.0374484 0)
(7.34221 0.0408678 0)
(7.34332 0.0444237 0)
(7.34449 0.048149 0)
(7.34574 0.0520737 0)
(7.3471 0.0562253 0)
(7.34859 0.060628 0)
(7.35026 0.0653025 0)
(7.35215 0.0702651 0)
(7.3543 0.075527 0)
(7.35678 0.0810932 0)
(7.35964 0.0869613 0)
(7.36295 0.0931207 0)
(7.36678 0.0995508 0)
(7.37119 0.10622 0)
(7.37627 0.113084 0)
(7.38208 0.120086 0)
(7.38871 0.127154 0)
(7.39621 0.134199 0)
(7.40466 0.141121 0)
(7.41409 0.147799 0)
(7.42457 0.154101 0)
(7.43605 0.159875 0)
(7.33302 0.00209423 0)
(7.33325 0.00615118 0)
(7.33373 0.0100071 0)
(7.33439 0.0136673 0)
(7.33519 0.0171589 0)
(7.33609 0.020517 0)
(7.33708 0.0237802 0)
(7.33812 0.0269887 0)
(7.33921 0.030183 0)
(7.34034 0.0334015 0)
(7.34152 0.0366804 0)
(7.34275 0.0400538 0)
(7.34405 0.0435527 0)
(7.34543 0.0472057 0)
(7.34691 0.0510382 0)
(7.34852 0.0550724 0)
(7.35029 0.0593268 0)
(7.35225 0.0638158 0)
(7.35446 0.0685491 0)
(7.35694 0.0735307 0)
(7.35975 0.0787583 0)
(7.36295 0.0842222 0)
(7.36659 0.0899045 0)
(7.37073 0.0957779 0)
(7.37543 0.101805 0)
(7.38075 0.107936 0)
(7.38676 0.114111 0)
(7.3935 0.120258 0)
(7.40102 0.126288 0)
(7.40937 0.132106 0)
(7.41857 0.1376 0)
(7.42866 0.142647 0)
(7.43958 0.147117 0)
(7.33302 0.00202336 0)
(7.33324 0.0059413 0)
(7.33371 0.00967261 0)
(7.33438 0.013227 0)
(7.33518 0.0166297 0)
(7.33611 0.0199129 0)
(7.33714 0.0231117 0)
(7.33825 0.0262625 0)
(7.33942 0.0294013 0)
(7.34067 0.0325626 0)
(7.34198 0.0357787 0)
(7.34336 0.0390793 0)
(7.34483 0.0424917 0)
(7.34641 0.0460399 0)
(7.3481 0.0497449 0)
(7.34995 0.0536241 0)
(7.35197 0.0576908 0)
(7.3542 0.0619542 0)
(7.35668 0.0664182 0)
(7.35944 0.071081 0)
(7.36254 0.0759348 0)
(7.36602 0.080964 0)
(7.36992 0.0861456 0)
(7.37431 0.0914476 0)
(7.37921 0.0968289 0)
(7.38469 0.102238 0)
(7.39079 0.107615 0)
(7.39755 0.112886 0)
(7.40499 0.117971 0)
(7.41315 0.122779 0)
(7.42202 0.127209 0)
(7.43163 0.131153 0)
(7.44191 0.134498 0)
(7.33302 0.0019513 0)
(7.33324 0.0057275 0)
(7.33371 0.00932883 0)
(7.33438 0.0127686 0)
(7.33521 0.0160713 0)
(7.33617 0.0192666 0)
(7.33725 0.0223868 0)
(7.33843 0.0254646 0)
(7.33969 0.0285325 0)
(7.34104 0.0316214 0)
(7.34248 0.0347597 0)
(7.34402 0.0379736 0)
(7.34565 0.0412862 0)
(7.34741 0.0447178 0)
(7.34931 0.0482848 0)
(7.35137 0.0520002 0)
(7.35362 0.0558725 0)
(7.35609 0.0599059 0)
(7.35881 0.0640992 0)
(7.36182 0.0684457 0)
(7.36516 0.0729324 0)
(7.36886 0.0775397 0)
(7.37297 0.0822402 0)
(7.37752 0.0869993 0)
(7.38256 0.0917737 0)
(7.38812 0.0965118 0)
(7.39423 0.101154 0)
(7.40091 0.105632 0)
(7.40819 0.10987 0)
(7.41607 0.113787 0)
(7.42455 0.117292 0)
(7.43362 0.120293 0)
(7.44321 0.122695 0)
(7.33302 0.00187667 0)
(7.33325 0.00550593 0)
(7.33372 0.00897024 0)
(7.33441 0.0122859 0)
(7.33526 0.0154767 0)
(7.33627 0.0185704 0)
(7.3374 0.0215963 0)
(7.33865 0.0245839 0)
(7.34001 0.0275621 0)
(7.34147 0.0305578 0)
(7.34303 0.033596 0)
(7.34471 0.036699 0)
(7.34651 0.039886 0)
(7.34844 0.0431733 0)
(7.35052 0.0465734 0)
(7.35278 0.0500952 0)
(7.35524 0.0537432 0)
(7.35791 0.0575172 0)
(7.36084 0.0614121 0)
(7.36406 0.0654175 0)
(7.36758 0.0695168 0)
(7.37146 0.0736874 0)
(7.37571 0.0779 0)
(7.38038 0.0821183 0)
(7.38548 0.0862992 0)
(7.39105 0.0903928 0)
(7.39709 0.0943425 0)
(7.40364 0.0980858 0)
(7.41069 0.101554 0)
(7.41823 0.104675 0)
(7.42626 0.107371 0)
(7.43476 0.109563 0)
(7.44365 0.111178 0)
(7.33302 0.00179826 0)
(7.33325 0.00527319 0)
(7.33374 0.00859203 0)
(7.33445 0.0117735 0)
(7.33534 0.0148411 0)
(7.33639 0.017821 0)
(7.33758 0.02074 0)
(7.33891 0.0236251 0)
(7.34036 0.0265016 0)
(7.34192 0.0293933 0)
(7.34361 0.0323216 0)
(7.34542 0.0353051 0)
(7.34736 0.0383597 0)
(7.34945 0.0414979 0)
(7.3517 0.0447285 0)
(7.35413 0.0480564 0)
(7.35677 0.0514826 0)
(7.35962 0.0550033 0)
(7.36272 0.05861 0)
(7.3661 0.0622891 0)
(7.36977 0.0660216 0)
(7.37377 0.0697827 0)
(7.37812 0.0735419 0)
(7.38283 0.0772629 0)
(7.38794 0.0809041 0)
(7.39346 0.0844181 0)
(7.39939 0.0877527 0)
(7.40574 0.0908512 0)
(7.4125 0.0936532 0)
(7.41967 0.0960957 0)
(7.42722 0.0981142 0)
(7.43513 0.0996433 0)
(7.44333 0.100626 0)
(7.33302 0.00171495 0)
(7.33326 0.00502603 0)
(7.33377 0.00818911 0)
(7.33451 0.0112247 0)
(7.33543 0.0141556 0)
(7.33654 0.0170061 0)
(7.3378 0.0198008 0)
(7.3392 0.0225633 0)
(7.34074 0.0253161 0)
(7.34241 0.0280794 0)
(7.34422 0.0308715 0)
(7.34616 0.0337076 0)
(7.34824 0.0366004 0)
(7.35048 0.0395592 0)
(7.35289 0.0425896 0)
(7.35547 0.0456937 0)
(7.35826 0.0488694 0)
(7.36126 0.0521102 0)
(7.36451 0.0554053 0)
(7.36801 0.0587392 0)
(7.37179 0.0620914 0)
(7.37587 0.0654363 0)
(7.38026 0.068744 0)
(7.38499 0.0719794 0)
(7.39005 0.0751032 0)
(7.39547 0.0780718 0)
(7.40123 0.080838 0)
(7.40734 0.0833519 0)
(7.41379 0.0855612 0)
(7.42056 0.0874129 0)
(7.42762 0.088854 0)
(7.43494 0.089832 0)
(7.44246 0.090304 0)
(7.33302 0.00162573 0)
(7.33327 0.00476175 0)
(7.3338 0.00775817 0)
(7.33457 0.0106371 0)
(7.33554 0.0134213 0)
(7.3367 0.0161337 0)
(7.33802 0.0187971 0)
(7.3395 0.0214325 0)
(7.34113 0.0240595 0)
(7.3429 0.0266951 0)
(7.34481 0.0293543 0)
(7.34687 0.0320491 0)
(7.34908 0.0347888 0)
(7.35144 0.0375795 0)
(7.35398 0.0404238 0)
(7.35669 0.0433208 0)
(7.35961 0.0462658 0)
(7.36273 0.0492501 0)
(7.36608 0.0522608 0)
(7.36967 0.0552809 0)
(7.37352 0.0582893 0)
(7.37764 0.0612605 0)
(7.38204 0.0641655 0)
(7.38673 0.0669712 0)
(7.39171 0.0696413 0)
(7.39699 0.0721363 0)
(7.40255 0.0744146 0)
(7.4084 0.076433 0)
(7.41451 0.0781476 0)
(7.42087 0.0795144 0)
(7.42744 0.0804911 0)
(7.4342 0.0810366 0)
(7.44107 0.08112 0)
(7.33303 0.00152954 0)
(7.33329 0.0044769 0)
(7.33385 0.00729255 0)
(7.33465 0.00999915 0)
(7.33567 0.0126182 0)
(7.33689 0.0151707 0)
(7.33829 0.0176769 0)
(7.33985 0.0201554 0)
(7.34157 0.0226229 0)
(7.34344 0.025094 0)
(7.34547 0.0275808 0)
(7.34764 0.0300931 0)
(7.34996 0.0326377 0)
(7.35245 0.0352185 0)
(7.3551 0.0378359 0)
(7.35793 0.0404873 0)
(7.36095 0.0431662 0)
(7.36417 0.0458625 0)
(7.36761 0.0485625 0)
(7.37126 0.0512488 0)
(7.37515 0.0539007 0)
(7.37927 0.0564939 0)
(7.38364 0.0590007 0)
(7.38826 0.0613907 0)
(7.39312 0.0636311 0)
(7.39823 0.0656871 0)
(7.40358 0.0675227 0)
(7.40914 0.0691013 0)
(7.4149 0.0703865 0)
(7.42085 0.071343 0)
(7.42694 0.0719376 0)
(7.43315 0.0721391 0)
(7.43941 0.0719262 0)
(7.33303 0.00142558 0)
(7.3333 0.00417028 0)
(7.33389 0.00679383 0)
(7.33473 0.00932064 0)
(7.3358 0.0117721 0)
(7.33707 0.0141682 0)
(7.33853 0.016527 0)
(7.34017 0.0188642 0)
(7.34197 0.0211932 0)
(7.34393 0.0235254 0)
(7.34604 0.0258696 0)
(7.34831 0.0282323 0)
(7.35073 0.0306173 0)
(7.35331 0.0330257 0)
(7.35606 0.0354556 0)
(7.35898 0.0379022 0)
(7.36208 0.0403573 0)
(7.36537 0.0428098 0)
(7.36886 0.0452453 0)
(7.37254 0.0476466 0)
(7.37644 0.0499935 0)
(7.38054 0.0522629 0)
(7.38485 0.0544296 0)
(7.38938 0.056466 0)
(7.3941 0.0583431 0)
(7.39903 0.060031 0)
(7.40414 0.061499 0)
(7.40941 0.0627169 0)
(7.41484 0.0636554 0)
(7.42038 0.0642868 0)
(7.42602 0.064586 0)
(7.43172 0.0645302 0)
(7.43743 0.064106 0)
(7.33303 0.0013124 0)
(7.33332 0.00383512 0)
(7.33394 0.00624445 0)
(7.33484 0.008564 0)
(7.33597 0.0108132 0)
(7.33731 0.0130098 0)
(7.33885 0.0151703 0)
(7.34058 0.0173085 0)
(7.34247 0.0194363 0)
(7.34453 0.0215634 0)
(7.34674 0.0236969 0)
(7.3491 0.0258421 0)
(7.35162 0.0280011 0)
(7.3543 0.0301738 0)
(7.35714 0.032357 0)
(7.36014 0.034545 0)
(7.3633 0.036729 0)
(7.36664 0.0388978 0)
(7.37016 0.0410371 0)
(7.37385 0.0431303 0)
(7.37773 0.0451582 0)
(7.38178 0.0470995 0)
(7.38602 0.0489314 0)
(7.39042 0.0506294 0)
(7.39499 0.0521683 0)
(7.39971 0.0535225 0)
(7.40457 0.0546664 0)
(7.40955 0.0555754 0)
(7.41463 0.0562262 0)
(7.41979 0.0565975 0)
(7.42499 0.0566708 0)
(7.43022 0.0564298 0)
(7.43541 0.0558668 0)
(7.33303 0.00118993 0)
(7.33334 0.00347745 0)
(7.33399 0.00567003 0)
(7.33492 0.00779393 0)
(7.33609 0.00986749 0)
(7.33749 0.0119056 0)
(7.33909 0.0139203 0)
(7.34088 0.0159213 0)
(7.34284 0.017916 0)
(7.34497 0.0199098 0)
(7.34725 0.0219066 0)
(7.34969 0.0239082 0)
(7.35229 0.0259142 0)
(7.35503 0.0279221 0)
(7.35794 0.0299274 0)
(7.36099 0.0319231 0)
(7.36421 0.0339001 0)
(7.36758 0.0358469 0)
(7.37111 0.0377499 0)
(7.37479 0.0395933 0)
(7.37864 0.0413597 0)
(7.38263 0.0430299 0)
(7.38678 0.0445839 0)
(7.39106 0.0460005 0)
(7.39547 0.0472586 0)
(7.39999 0.0483368 0)
(7.40462 0.0492145 0)
(7.40932 0.0498723 0)
(7.41409 0.0502924 0)
(7.41889 0.0504591 0)
(7.42371 0.0503595 0)
(7.42851 0.049983 0)
(7.43325 0.0493266 0)
(7.33303 0.00105403 0)
(7.33337 0.00307103 0)
(7.33407 0.00499667 0)
(7.33508 0.00685621 0)
(7.33634 0.00866729 0)
(7.33783 0.0104451 0)
(7.33952 0.0122024 0)
(7.3414 0.0139485 0)
(7.34346 0.0156906 0)
(7.34568 0.0174334 0)
(7.34805 0.0191799 0)
(7.35057 0.0209311 0)
(7.35324 0.0226858 0)
(7.35605 0.0244408 0)
(7.35901 0.0261908 0)
(7.36211 0.0279281 0)
(7.36535 0.0296435 0)
(7.36873 0.0313255 0)
(7.37225 0.032961 0)
(7.37591 0.0345352 0)
(7.37969 0.036032 0)
(7.38361 0.0374345 0)
(7.38764 0.0387246 0)
(7.39177 0.0398843 0)
(7.39601 0.0408955 0)
(7.40032 0.0417405 0)
(7.4047 0.0424027 0)
(7.40913 0.0428666 0)
(7.41358 0.0431187 0)
(7.41804 0.0431476 0)
(7.42248 0.0429444 0)
(7.42688 0.0425022 0)
(7.4312 0.0418208 0)
(7.33303 0.000909971 0)
(7.33337 0.00266447 0)
(7.33409 0.0043697 0)
(7.33513 0.00604957 0)
(7.33642 0.00771193 0)
(7.33795 0.00936191 0)
(7.3397 0.0110039 0)
(7.34164 0.0126406 0)
(7.34375 0.0142734 0)
(7.34603 0.0159028 0)
(7.34847 0.0175286 0)
(7.35106 0.019149 0)
(7.35379 0.0207614 0)
(7.35665 0.0223616 0)
(7.35966 0.0239439 0)
(7.3628 0.025501 0)
(7.36606 0.027024 0)
(7.36946 0.0285028 0)
(7.37297 0.0299256 0)
(7.3766 0.0312795 0)
(7.38034 0.0325508 0)
(7.38418 0.0337249 0)
(7.38811 0.034787 0)
(7.39212 0.0357222 0)
(7.3962 0.036516 0)
(7.40034 0.0371544 0)
(7.40451 0.0376248 0)
(7.40869 0.0379157 0)
(7.41288 0.0380175 0)
(7.41705 0.0379225 0)
(7.42118 0.0376254 0)
(7.42524 0.037123 0)
(7.42922 0.0364172 0)
(7.33304 0.000735728 0)
(7.33345 0.00212164 0)
(7.33429 0.00344776 0)
(7.33544 0.00474945 0)
(7.33686 0.00604302 0)
(7.3385 0.0073393 0)
(7.34035 0.00864445 0)
(7.34238 0.00996051 0)
(7.34458 0.0112879 0)
(7.34694 0.0126264 0)
(7.34944 0.0139743 0)
(7.35208 0.0153282 0)
(7.35485 0.0166834 0)
(7.35775 0.0180344 0)
(7.36078 0.0193741 0)
(7.36393 0.0206945 0)
(7.36719 0.0219862 0)
(7.37055 0.0232389 0)
(7.37403 0.0244414 0)
(7.3776 0.0255816 0)
(7.38125 0.0266468 0)
(7.38499 0.0276243 0)
(7.38879 0.0285011 0)
(7.39265 0.0292644 0)
(7.39656 0.0299022 0)
(7.40049 0.0304031 0)
(7.40443 0.0307571 0)
(7.40837 0.0309553 0)
(7.41229 0.0309906 0)
(7.41617 0.0308578 0)
(7.41999 0.0305537 0)
(7.42373 0.0300767 0)
(7.42738 0.0294296 0)
(7.33303 0.000580661 0)
(7.3334 0.00173647 0)
(7.33422 0.00292299 0)
(7.3354 0.00413899 0)
(7.33684 0.00536743 0)
(7.33854 0.00660429 0)
(7.34045 0.00784774 0)
(7.34255 0.00909347 0)
(7.34482 0.0103367 0)
(7.34724 0.0115746 0)
(7.34982 0.0128051 0)
(7.35253 0.0140251 0)
(7.35537 0.0152309 0)
(7.35833 0.0164181 0)
(7.3614 0.0175814 0)
(7.36458 0.0187144 0)
(7.36787 0.0198097 0)
(7.37124 0.020859 0)
(7.37471 0.0218535 0)
(7.37825 0.0227835 0)
(7.38187 0.0236391 0)
(7.38554 0.02441 0)
(7.38926 0.0250862 0)
(7.39301 0.0256578 0)
(7.39679 0.0261157 0)
(7.40057 0.0264515 0)
(7.40435 0.0266581 0)
(7.4081 0.0267292 0)
(7.41181 0.0266606 0)
(7.41547 0.0264491 0)
(7.41906 0.0260937 0)
(7.42256 0.0255945 0)
(7.42595 0.0249554 0)
(7.33307 0.000283246 0)
(7.33364 0.000787618 0)
(7.33469 0.00133304 0)
(7.33603 0.00197383 0)
(7.33761 0.00269252 0)
(7.33941 0.00347678 0)
(7.3414 0.00431681 0)
(7.34356 0.00520055 0)
(7.34588 0.00612121 0)
(7.34834 0.00707229 0)
(7.35094 0.00804347 0)
(7.35366 0.00902553 0)
(7.35651 0.0100112 0)
(7.35946 0.0109933 0)
(7.36252 0.0119644 0)
(7.36568 0.0129166 0)
(7.36893 0.0138417 0)
(7.37226 0.014731 0)
(7.37566 0.0155758 0)
(7.37913 0.0163669 0)
(7.38265 0.0170953 0)
(7.38621 0.017752 0)
(7.3898 0.0183283 0)
(7.39341 0.018816 0)
(7.39703 0.0192076 0)
(7.40064 0.0194963 0)
(7.40422 0.0196766 0)
(7.40776 0.0197439 0)
(7.41126 0.019695 0)
(7.41468 0.019528 0)
(7.41803 0.0192426 0)
(7.42128 0.0188395 0)
(7.42442 0.0183221 0)
(7.33303 0.000212438 0)
(7.33349 0.00075858 0)
(7.33454 0.00144355 0)
(7.33599 0.00217292 0)
(7.33769 0.00293179 0)
(7.33961 0.00372418 0)
(7.34172 0.00453659 0)
(7.34401 0.00534829 0)
(7.34645 0.00614944 0)
(7.34903 0.00694828 0)
(7.35174 0.007745 0)
(7.35456 0.00853498 0)
(7.35748 0.00931415 0)
(7.3605 0.0100786 0)
(7.36362 0.0108238 0)
(7.36682 0.0115446 0)
(7.3701 0.0122352 0)
(7.37345 0.0128898 0)
(7.37685 0.0135022 0)
(7.38031 0.0140659 0)
(7.3838 0.0145741 0)
(7.38732 0.0150203 0)
(7.39085 0.0153982 0)
(7.39439 0.0157017 0)
(7.39792 0.0159257 0)
(7.40142 0.0160654 0)
(7.40488 0.016117 0)
(7.4083 0.0160778 0)
(7.41165 0.0159459 0)
(7.41493 0.0157207 0)
(7.41811 0.0154025 0)
(7.4212 0.0149928 0)
(7.42417 0.0144949 0)
(7.33315 -0.000457971 0)
(7.33406 -0.00124399 0)
(7.33539 -0.00163152 0)
(7.33693 -0.00173393 0)
(7.3387 -0.00162537 0)
(7.34067 -0.00133918 0)
(7.34279 -0.000922543 0)
(7.34505 -0.000407763 0)
(7.34746 0.000180611 0)
(7.35002 0.000808338 0)
(7.35269 0.00145698 0)
(7.35549 0.00211764 0)
(7.35838 0.00278222 0)
(7.36137 0.00344326 0)
(7.36445 0.00409455 0)
(7.3676 0.00473091 0)
(7.37083 0.00534393 0)
(7.37412 0.0059291 0)
(7.37746 0.00648071 0)
(7.38083 0.00699302 0)
(7.38424 0.00746041 0)
(7.38766 0.00787745 0)
(7.39109 0.0082391 0)
(7.3945 0.00854072 0)
(7.3979 0.00877822 0)
(7.40127 0.00894811 0)
(7.40459 0.00904765 0)
(7.40785 0.00907486 0)
(7.41104 0.00902861 0)
(7.41415 0.00890861 0)
(7.41717 0.00871549 0)
(7.42009 0.00845048 0)
(7.42289 0.00811686 0)
(7.33309 -0.000158856 0)
(7.33407 -0.000246543 0)
(7.33582 -0.000132003 0)
(7.33782 4.38657e-05 0)
(7.33998 0.000274395 0)
(7.34231 0.000545749 0)
(7.34477 0.000834457 0)
(7.34735 0.00114476 0)
(7.35003 0.00147932 0)
(7.35279 0.00182017 0)
(7.35565 0.00216134 0)
(7.3586 0.00250339 0)
(7.36163 0.00284478 0)
(7.36475 0.00318265 0)
(7.36794 0.00351379 0)
(7.37119 0.00383429 0)
(7.3745 0.0041434 0)
(7.37787 0.00443579 0)
(7.38126 0.00470732 0)
(7.38469 0.00495413 0)
(7.38814 0.00517248 0)
(7.39159 0.0053587 0)
(7.39503 0.00550931 0)
(7.39845 0.00562111 0)
(7.40185 0.00569129 0)
(7.4052 0.0057175 0)
(7.40849 0.00569786 0)
(7.41172 0.00563109 0)
(7.41488 0.00551641 0)
(7.41794 0.00535367 0)
(7.4209 0.00514326 0)
(7.42376 0.00488613 0)
(7.4265 0.00458379 0)
(7.33436 -0.00332632 0)
(7.33915 -0.00604654 0)
(7.34496 -0.00695794 0)
(7.35133 -0.00741463 0)
(7.35811 -0.00750827 0)
(7.36509 -0.00734547 0)
(7.37214 -0.0070647 0)
(7.3792 -0.00673164 0)
(7.38622 -0.00637513 0)
(7.39319 -0.00600216 0)
(7.40008 -0.00562056 0)
(7.40689 -0.00523808 0)
(7.4136 -0.00485985 0)
(7.4202 -0.00448955 0)
(7.4267 -0.00413042 0)
(7.43308 -0.00378585 0)
(7.43933 -0.0034553 0)
(7.44547 -0.00314266 0)
(7.45147 -0.00285034 0)
(7.45734 -0.00258042 0)
(7.46307 -0.0023349 0)
(7.46865 -0.00211568 0)
(7.47409 -0.00192457 0)
(7.47937 -0.00176319 0)
(7.48449 -0.0016329 0)
(7.48944 -0.00153482 0)
(7.49423 -0.00146973 0)
(7.49883 -0.00143807 0)
(7.50326 -0.00143994 0)
(7.5075 -0.00147508 0)
(7.51155 -0.00154279 0)
(7.51541 -0.00164235 0)
(7.51907 -0.00177166 0)
(7.32981 -0.00381911 0)
(7.32484 -0.00787211 0)
(7.31668 -0.0101102 0)
(7.30706 -0.0116887 0)
(7.29737 -0.0127362 0)
(7.28769 -0.0133774 0)
(7.27813 -0.0137607 0)
(7.26884 -0.0139705 0)
(7.25989 -0.0140512 0)
(7.25131 -0.0140357 0)
(7.24311 -0.0139513 0)
(7.2353 -0.0138169 0)
(7.22789 -0.0136448 0)
(7.22087 -0.0134442 0)
(7.21423 -0.0132219 0)
(7.20795 -0.0129827 0)
(7.20202 -0.0127331 0)
(7.19643 -0.0124759 0)
(7.19116 -0.0122142 0)
(7.18619 -0.0119507 0)
(7.1815 -0.0116876 0)
(7.17707 -0.0114269 0)
(7.17288 -0.0111703 0)
(7.16892 -0.0109193 0)
(7.16516 -0.0106752 0)
(7.16159 -0.0104392 0)
(7.15818 -0.0102124 0)
(7.15492 -0.00999545 0)
(7.15179 -0.00978912 0)
(7.14878 -0.00959392 0)
(7.14586 -0.00941003 0)
(7.14303 -0.00923817 0)
(7.14025 -0.00907652 0)
(2.41199 0.0969498 0)
(2.23635 0.0614886 0)
(1.91885 0.0560489 0)
(1.47046 0.0156344 0)
(0.567754 -0.110408 0)
(0.198375 0.0650852 0)
(1.12028 0.883908 0)
(2.39743 1.85185 0)
(3.63762 2.562 0)
(4.73253 2.7372 0)
(5.6618 2.27691 0)
(6.36436 1.2425 0)
(6.8241 -0.145649 0)
(6.82905 -1.48411 0)
(6.45358 -2.50456 0)
(6.16168 -3.28755 0)
(5.94113 -3.75313 0)
(5.51287 -3.6327 0)
(4.9308 -2.92736 0)
(4.44298 -1.91409 0)
(4.19889 -0.859913 0)
(4.20236 0.117493 0)