/*--------------------------------*- C++ -*----------------------------------*\
  =========                 |
  \\      /  F ield         | OpenFOAM: The Open Source CFD Toolbox
   \\    /   O peration     | Website:  https://openfoam.org
    \\  /    A nd           | Version:  10
     \\/     M anipulation  |
\*---------------------------------------------------------------------------*/
FoamFile
{
    format      ascii;
    class       volScalarField;
    location    "0.01";
    object      k;
}
// * * * * * * * * * * * * * * * * * * * * * * * * * * * * * * * * * * * * * //

dimensions      [0 2 -2 0 0 0 0];

internalField   nonuniform List<scalar> 
6820
(
0.198351
0.194852
0.191325
0.187816
0.184387
0.181085
0.177949
0.175019
0.172349
0.170018
0.168134
0.166754
0.165736
0.164766
0.163855
0.163372
0.164198
0.167719
0.175306
0.187579
0.203837
0.221994
0.239077
0.25209
0.258861
0.25855
0.251685
0.239896
0.225345
0.210325
0.196635
0.185408
0.179729
0.200922
0.20086
0.200355
0.199791
0.199177
0.198493
0.197719
0.196831
0.195802
0.194601
0.193206
0.191599
0.189771
0.187735
0.185551
0.183269
0.180902
0.178538
0.176279
0.174183
0.172197
0.170136
0.167722
0.164678
0.160833
0.156188
0.151091
0.145731
0.140421
0.13511
0.130291
0.125261
0.12081
0.236819
0.0163525
6.67873e-05
0.00741728
0.00731278
0.00737124
0.00845345
0.0096738
0.0108572
0.0118708
0.0126048
0.0130008
0.0130437
0.0127605
0.0122481
0.0116038
0.0109213
0.0102195
0.00948712
0.00870377
0.00786066
0.00696062
0.00598503
0.00487614
0.0036868
0.000122545
0.0156223
0.021355
0.0215837
0.0103359
0.0142129
0.0078845
0.0150236
0.210858
0.147483
0.103907
0.0782837
0.0625072
0.0518598
0.0440347
0.0379065
0.0328842
0.028623
0.0248982
0.0215514
0.0184536
0.0154942
0.012631
0.00990674
0.00739997
0.00519378
0.00336068
0.0019514
0.000993359
0.000500812
0.000470386
0.000867881
0.00169759
0.00303658
0.00493574
0.00741909
0.0104138
0.0139459
0.017934
0.0227281
0.0285545
0.222672
0.0865773
0.0249955
0.00644042
0.00193319
0.00109672
0.00105848
0.00114353
0.0012186
0.00126663
0.00128883
0.00128921
0.00128237
0.00129427
0.00133659
0.00141379
0.00150935
0.00160242
0.00181223
0.00270127
0.00554052
0.0121233
0.0238721
0.0407007
0.0606223
0.0805164
0.0974575
0.109749
0.117255
0.121095
0.123066
0.124951
0.12806
0.214342
0.128395
0.0761424
0.0531454
0.0434512
0.0389049
0.0361679
0.033952
0.0318991
0.03001
0.0284124
0.0272505
0.026626
0.0266131
0.0271825
0.0282651
0.030063
0.0332741
0.0390033
0.0483193
0.0616376
0.0782737
0.096439
0.113705
0.127721
0.136879
0.140697
0.139846
0.135854
0.130638
0.126045
0.123453
0.123572
0.211622
0.142123
0.0958311
0.0733581
0.0637093
0.060078
0.0593245
0.059994
0.0613996
0.0632513
0.0654121
0.0678102
0.0703946
0.0730643
0.0756424
0.0779254
0.0798606
0.0817651
0.0843977
0.088748
0.09558
0.104955
0.116001
0.127087
0.136318
0.142164
0.143936
0.141958
0.137411
0.131946
0.127238
0.124596
0.124696
0.20558
0.17297
0.146483
0.126253
0.112762
0.104758
0.100448
0.0984584
0.0978268
0.098012
0.0987233
0.0998815
0.101426
0.103106
0.104406
0.104711
0.103702
0.101751
0.100017
0.10007
0.10321
0.109814
0.119064
0.129164
0.137951
0.143622
0.145279
0.143137
0.138353
0.132608
0.127632
0.12478
0.124748
0.206346
0.169257
0.145148
0.131322
0.122598
0.116865
0.11309
0.110683
0.109229
0.108446
0.10826
0.108722
0.109773
0.111028
0.111751
0.111146
0.108873
0.105484
0.10244
0.101587
0.10435
0.111044
0.120647
0.13112
0.140103
0.145698
0.14702
0.144367
0.139012
0.132744
0.127366
0.124273
0.124155
0.20763
0.163078
0.137765
0.125234
0.118057
0.113411
0.110257
0.108128
0.106735
0.105941
0.10579
0.106368
0.107571
0.108897
0.109496
0.108555
0.105882
0.102296
0.099507
0.09946
0.103468
0.111569
0.122413
0.133699
0.14295
0.148297
0.148999
0.145543
0.13938
0.132433
0.126578
0.123231
0.123062
0.209305
0.154786
0.126579
0.114095
0.107981
0.104601
0.102625
0.101505
0.101
0.101055
0.101757
0.103185
0.105159
0.107068
0.107987
0.107149
0.104537
0.101204
0.0990308
0.0999748
0.105184
0.114421
0.126061
0.137625
0.146602
0.151227
0.150941
0.14643
0.139312
0.131618
0.125276
0.121705
0.12154
0.211014
0.145962
0.115576
0.103436
0.0983456
0.0961575
0.0954137
0.0955277
0.0962606
0.0975668
0.0995222
0.10216
0.105206
0.107922
0.109302
0.10861
0.105993
0.102738
0.100906
0.102489
0.108497
0.118447
0.130471
0.141943
0.150348
0.154033
0.152617
0.146971
0.13886
0.130413
0.123596
0.119827
0.119703
0.212268
0.138878
0.107469
0.0962028
0.0924732
0.0918058
0.0926508
0.0943695
0.096669
0.0994694
0.102827
0.106736
0.110838
0.114278
0.115956
0.115139
0.11211
0.108375
0.1062
0.10766
0.113696
0.12365
0.135467
0.146407
0.153946
0.156525
0.153903
0.147102
0.138006
0.128824
0.12156
0.117626
0.117584
0.212531
0.136294
0.105392
0.095453
0.0932476
0.0941231
0.0964487
0.0995308
0.103031
0.106853
0.111064
0.115662
0.120253
0.123897
0.125402
0.12402
0.120145
0.115495
0.112551
0.11349
0.119203
0.128876
0.140275
0.150548
0.157156
0.158609
0.154789
0.146847
0.136783
0.126883
0.119192
0.115125
0.115208
0.211526
0.140058
0.111006
0.102266
0.101136
0.102998
0.106175
0.109934
0.113912
0.118025
0.12238
0.127019
0.131542
0.134943
0.135937
0.133737
0.128817
0.123081
0.119198
0.119442
0.12466
0.133895
0.144754
0.154279
0.159914
0.160229
0.155215
0.146143
0.135126
0.124533
0.116453
0.112301
0.112568
0.209493
0.149551
0.123362
0.115277
0.11435
0.116271
0.119385
0.122943
0.126586
0.130257
0.134117
0.138259
0.14229
0.14514
0.14543
0.142328
0.136372
0.129626
0.124922
0.124593
0.129421
0.138294
0.148664
0.157475
0.16216
0.161351
0.15515
0.144956
0.133
0.12174
0.113314
0.109136
0.109655
0.207086
0.161704
0.139076
0.131172
0.129668
0.130857
0.133198
0.135958
0.138785
0.141645
0.144741
0.148205
0.151637
0.153899
0.153514
0.1496
0.142749
0.135161
0.129799
0.129038
0.133575
0.142147
0.152059
0.160168
0.163899
0.161952
0.154546
0.143216
0.130321
0.118416
0.109691
0.105555
0.106409
0.204917
0.173148
0.154475
0.146728
0.144366
0.144494
0.145774
0.147515
0.149375
0.151332
0.153617
0.156385
0.159224
0.16093
0.159938
0.155325
0.147733
0.139491
0.133671
0.132658
0.137049
0.145422
0.154932
0.162355
0.165115
0.161989
0.153327
0.14082
0.126973
0.114449
0.105487
0.10149
0.102791
0.203266
0.182086
0.167345
0.160039
0.15697
0.156097
0.156351
0.15712
0.158079
0.159217
0.160785
0.162953
0.165296
0.166547
0.165061
0.159879
0.151698
0.142958
0.136826
0.135681
0.140011
0.148229
0.157344
0.164049
0.165779
0.161402
0.151418
0.137698
0.122907
0.109823
0.100729
0.0969977
0.0988815
0.202125
0.18834
0.177118
0.170556
0.167103
0.165477
0.164898
0.164855
0.165057
0.165507
0.166474
0.168143
0.170073
0.170945
0.169048
0.163397
0.154744
0.145636
0.139316
0.138144
0.142485
0.150588
0.159314
0.165284
0.16595
0.160291
0.148977
0.13407
0.118403
0.104858
0.0957477
0.092397
0.0949633
0.201375
0.192476
0.184146
0.17849
0.174956
0.172848
0.171655
0.170983
0.170585
0.170484
0.170968
0.172237
0.173839
0.174411
0.172183
0.166154
0.157127
0.147746
0.141316
0.14017
0.144555
0.15256
0.160914
0.166174
0.165823
0.158953
0.146407
0.130431
0.114008
0.100111
0.0910687
0.0881474
0.0914085
0.20089
0.195148
0.189058
0.184319
0.180911
0.178545
0.176935
0.175797
0.174935
0.1744
0.174497
0.175442
0.176776
0.177101
0.174602
0.168267
0.158949
0.149372
0.142891
0.141805
0.146251
0.154177
0.162201
0.166831
0.165584
0.157662
0.14406
0.127185
0.110151
0.0959989
0.087064
0.0845581
0.0884542
0.200578
0.196865
0.19244
0.188533
0.185362
0.182896
0.18102
0.179549
0.178338
0.177465
0.177257
0.177941
0.179058
0.179184
0.176472
0.169902
0.160367
0.150651
0.144147
0.143121
0.147618
0.155471
0.163205
0.167294
0.165291
0.156493
0.142029
0.124438
0.106934
0.0926143
0.0838116
0.0816884
0.086142
0.200376
0.197969
0.194748
0.191542
0.188645
0.186177
0.18414
0.182434
0.180959
0.179821
0.179365
0.179833
0.180765
0.180725
0.177843
0.171093
0.161388
0.151558
0.145032
0.14406
0.148607
0.156408
0.16391
0.167562
0.164953
0.155466
0.140338
0.122212
0.104382
0.08998
0.0813343
0.0795659
0.08451
0.200247
0.198678
0.196308
0.193658
0.191025
0.188604
0.186478
0.184607
0.182937
0.181598
0.180947
0.181234
0.182009
0.181825
0.178788
0.171855
0.16197
0.152023
0.145481
0.14457
0.149184
0.156967
0.164301
0.167625
0.164563
0.154572
0.138978
0.120506
0.102505
0.0881283
0.0796957
0.0782903
0.0836957
0.200165
0.199129
0.197343
0.195113
0.192705
0.190343
0.188162
0.18617
0.184339
0.182818
0.181975
0.182065
0.182643
0.182256
0.179006
0.171869
0.161835
0.151846
0.145377
0.144607
0.149348
0.157166
0.164399
0.167491
0.164111
0.153787
0.137923
0.119304
0.101311
0.0871032
0.0789812
0.0779875
0.0838574
0.200115
0.199403
0.197997
0.19606
0.193816
0.191495
0.189259
0.187146
0.185139
0.183403
0.182341
0.182235
0.182642
0.1821
0.178719
0.171502
0.161468
0.151561
0.145223
0.144579
0.14939
0.157186
0.164299
0.167193
0.163592
0.153088
0.137142
0.118575
0.100777
0.0868925
0.0791903
0.0786665
0.0850085
0.200088
0.199557
0.198381
0.196631
0.194479
0.192123
0.189733
0.187382
0.185114
0.183138
0.181874
0.181605
0.181878
0.181232
0.177799
0.170614
0.160705
0.150985
0.144831
0.144319
0.149178
0.15693
0.163923
0.166667
0.162948
0.152417
0.136575
0.118253
0.100826
0.0874033
0.0802117
0.0801969
0.087001
0.200078
0.199614
0.198522
0.196818
0.194637
0.192185
0.189659
0.187164
0.184779
0.182727
0.181416
0.181108
0.181341
0.180685
0.177329
0.170323
0.160646
0.151107
0.145011
0.144417
0.149086
0.156594
0.16335
0.165924
0.162156
0.151735
0.136169
0.118268
0.101364
0.0885156
0.081899
0.082408
0.0896447
0.200081
0.199612
0.198518
0.196772
0.194476
0.191838
0.18908
0.186349
0.183755
0.181537
0.180094
0.179665
0.179786
0.179066
0.175758
0.168942
0.159552
0.15029
0.144366
0.143796
0.14836
0.155691
0.162278
0.164772
0.161079
0.150921
0.1358
0.118478
0.102225
0.090037
0.0840348
0.0850629
0.0926903
0.200102
0.199514
0.198232
0.196257
0.193745
0.190961
0.188157
0.185471
0.182991
0.180911
0.179567
0.179147
0.179208
0.178477
0.175346
0.16893
0.16001
0.151049
0.14509
0.144151
0.148146
0.154892
0.161034
0.163327
0.159722
0.149928
0.135387
0.118775
0.103274
0.0918052
0.0864327
0.0879574
0.095924
0.200123
0.199414
0.197909
0.195582
0.192602
0.189309
0.186029
0.182948
0.180179
0.177904
0.176411
0.175839
0.17575
0.174944
0.17191
0.165808
0.157344
0.148829
0.143161
0.142297
0.146189
0.152757
0.158779
0.161126
0.157821
0.148579
0.134784
0.119018
0.104365
0.0936672
0.088936
0.0909368
0.0992018
0.200206
0.198999
0.196501
0.192924
0.188782
0.18464
0.180888
0.177678
0.175033
0.173013
0.171766
0.171345
0.171365
0.170837
0.168488
0.163522
0.156393
0.148964
0.143761
0.142655
0.145808
0.151497
0.156835
0.158907
0.155797
0.147153
0.134216
0.119407
0.105678
0.0957946
0.0917251
0.0942192
0.102811
0.20031
0.198466
0.194532
0.189093
0.183156
0.177603
0.172921
0.169216
0.166408
0.164422
0.163265
0.162884
0.162889
0.162403
0.160309
0.155912
0.149623
0.143133
0.138751
0.138205
0.141656
0.147506
0.153054
0.155546
0.153145
0.145469
0.13365
0.119981
0.107309
0.0983317
0.0949918
0.098029
0.106986
0.200835
0.19577
0.187037
0.177698
0.169688
0.163604
0.158825
0.154899
0.151829
0.149552
0.147962
0.146866
0.145887
0.144435
0.141881
0.137928
0.132989
0.12828
0.125422
0.125648
0.129056
0.134391
0.13948
0.142048
0.140512
0.134471
0.12482
0.113509
0.10302
0.0957326
0.0933618
0.0965322
0.104802
0.202841
0.185408
0.160049
0.135327
0.114414
0.0976447
0.0840289
0.0730771
0.0646099
0.0582364
0.0534625
0.0498143
0.0467654
0.0438004
0.0407332
0.0377198
0.0352692
0.0341351
0.0350735
0.0385306
0.0443767
0.0518168
0.0595606
0.0662014
0.0706267
0.0723099
0.0714416
0.0688683
0.0658355
0.0636337
0.0632301
0.0650216
0.0687831
0.20781
0.160807
0.121283
0.0964573
0.0816047
0.0723959
0.0663578
0.0621786
0.0591547
0.0568906
0.0551194
0.0536281
0.0522425
0.0508773
0.0496077
0.0486519
0.048257
0.0485256
0.0492847
0.0500994
0.050445
0.0499334
0.0484512
0.0461426
0.0432868
0.040179
0.0370823
0.0342427
0.0319077
0.0302997
0.0295403
0.0296074
0.030257
0.240204
0.000655749
0.00102674
0.000150616
0.005192
0.0016098
0.000381294
0.00137866
0.00115376
0.000834203
0.00107586
0.00146191
0.00184703
0.00228558
0.00278585
0.00333704
0.00393968
0.00460134
0.00533497
0.00615726
0.00708087
0.00810426
0.00920552
0.0103451
0.0114798
0.0125751
0.0136098
0.014577
0.0154819
0.0163377
0.0171617
0.0179726
0.0187838
0.200088
0.199982
0.199855
0.199764
0.199713
0.199702
0.199727
0.199788
0.199883
0.200013
0.200179
0.20038
0.200612
0.200866
0.201132
0.201405
0.201698
0.20205
0.202524
0.203184
0.204073
0.205185
0.206457
0.207771
0.208982
0.209957
0.210608
0.210915
0.210924
0.210734
0.210461
0.210218
0.210053
0.199874
0.199542
0.199165
0.198754
0.198318
0.19786
0.197382
0.196883
0.196363
0.195825
0.195273
0.194706
0.194108
0.193441
0.192677
0.191853
0.191125
0.190788
0.191216
0.19273
0.195457
0.199244
0.203672
0.208123
0.211796
0.213889
0.213983
0.212172
0.208966
0.205086
0.201232
0.197934
0.195421
0.173723
0.168182
0.165117
0.16447
0.165825
0.159965
0.130794
0.088067
0.0796979
0.123074
0.175157
0.2004
0.20339
0.200501
0.198788
0.198214
0.197778
0.197257
0.196762
0.196363
0.196041
0.195759
0.195508
0.195308
0.195193
0.195178
0.195254
0.195392
0.195552
0.195708
0.195835
0.195915
0.195934
0.195884
0.195765
0.195586
0.195358
0.195093
0.194796
0.194465
0.194097
0.193686
0.193228
0.192718
0.192148
0.19151
0.190794
0.189986
0.189071
0.18803
0.186842
0.185478
0.183903
0.182074
0.179934
0.177413
0.174419
0.170837
0.16652
0.161287
0.154922
0.147183
0.137819
0.126622
0.113504
0.0985991
0.0823739
0.0656642
0.0495796
0.0352517
0.0235206
0.0147184
0.00866137
0.00482285
0.00256635
0.00132355
0.000674048
0.00034693
0.000185146
0.000104656
6.33501e-05
4.15567e-05
3.04347e-05
2.54777e-05
2.38427e-05
2.36413e-05
2.37211e-05
2.3589e-05
2.3265e-05
2.29257e-05
2.26186e-05
2.22784e-05
2.18866e-05
2.14791e-05
2.13049e-05
2.06025e-05
2.25355e-05
1.51488e-05
4.21509e-05
0.00147223
0.112478
0.101763
0.0933956
0.0875113
0.0802608
0.0661481
0.0514374
0.0617955
0.109607
0.164252
0.194334
0.200742
0.198995
0.197661
0.197472
0.197384
0.19707
0.196667
0.196305
0.196015
0.195777
0.195562
0.195362
0.195194
0.195088
0.195065
0.195125
0.195249
0.195407
0.195568
0.195712
0.195819
0.195875
0.195867
0.19579
0.195644
0.195438
0.195184
0.19489
0.194562
0.194196
0.19379
0.193337
0.192835
0.192278
0.191662
0.190979
0.19022
0.189372
0.188423
0.187354
0.186144
0.184766
0.183185
0.181355
0.17922
0.176702
0.173706
0.170106
0.165742
0.160417
0.153898
0.145925
0.136242
0.124654
0.11112
0.0958603
0.0794495
0.0628141
0.0470837
0.0333155
0.0222078
0.0139518
0.00828173
0.00466288
0.00250031
0.00128037
0.000625819
0.000290504
0.000124982
4.48163e-05
1.0123e-05
2.3244e-06
4.43527e-06
5.20959e-06
4.01774e-06
3.12474e-06
2.58214e-06
1.8489e-06
1.29943e-06
1.28004e-06
1.52712e-06
1.721e-06
1.80805e-06
1.84097e-06
1.90598e-06
1.86661e-06
3.34562e-07
6.72061e-05
0.00143319
0.00757509
0.00116279
0.00315601
0.00845562
0.0171795
0.0346768
0.0691306
0.119839
0.16723
0.192605
0.19804
0.196487
0.195607
0.196006
0.196458
0.196518
0.196336
0.196095
0.195872
0.195684
0.195523
0.195372
0.195221
0.195086
0.194993
0.194964
0.195004
0.195105
0.195248
0.195407
0.195558
0.195684
0.195769
0.195799
0.195763
0.195657
0.195483
0.195249
0.194966
0.194643
0.194283
0.193883
0.193438
0.192942
0.192392
0.191784
0.191113
0.190372
0.189555
0.188652
0.187653
0.186546
0.185318
0.183951
0.182425
0.180716
0.178794
0.176622
0.174153
0.171328
0.168072
0.164289
0.159863
0.154647
0.14847
0.14114
0.132462
0.122277
0.110514
0.0972657
0.082865
0.0679217
0.0532744
0.0398346
0.028364
0.0192834
0.0126038
0.00800874
0.0050192
0.00314396
0.00197147
0.00121372
0.000710629
0.000389235
0.000204401
0.00011058
6.72809e-05
4.73627e-05
3.65743e-05
2.9001e-05
2.28413e-05
1.78044e-05
1.39036e-05
1.10601e-05
9.08863e-06
7.73075e-06
7.15526e-06
6.565e-07
2.6244e-05
0.00143346
0.0372239
0.0495865
0.0659722
0.0855591
0.108801
0.1364
0.165168
0.186971
0.195902
0.195431
0.193229
0.193008
0.194096
0.195091
0.19557
0.195701
0.195678
0.195595
0.195491
0.195391
0.195298
0.195204
0.1951
0.194995
0.194915
0.194883
0.194906
0.194981
0.195097
0.195239
0.195389
0.195525
0.195631
0.195693
0.195698
0.195637
0.195504
0.195302
0.19504
0.194728
0.194374
0.19398
0.193544
0.193059
0.19252
0.191923
0.191261
0.190532
0.189728
0.188843
0.187867
0.186793
0.18561
0.184307
0.182873
0.181295
0.179559
0.177651
0.175554
0.173251
0.170723
0.167951
0.164913
0.161586
0.157944
0.153961
0.149607
0.144855
0.139675
0.13404
0.127924
0.121314
0.114206
0.106611
0.0985514
0.0900718
0.0812195
0.072017
0.0625189
0.0528971
0.0433422
0.0339219
0.0248384
0.0168072
0.0107105
0.00682327
0.00468216
0.00356506
0.00290371
0.00239606
0.00194345
0.00154746
0.00123002
0.000994728
0.000824696
0.000692037
0.000564134
0.000484664
7.86049e-05
0.00145788
0.13433
0.144161
0.156001
0.168341
0.179434
0.187642
0.191541
0.19146
0.189929
0.189535
0.190685
0.192285
0.193508
0.19426
0.194714
0.194985
0.195122
0.195166
0.19516
0.195135
0.195103
0.19506
0.194997
0.194921
0.194854
0.19482
0.194829
0.19488
0.194966
0.195079
0.195209
0.195342
0.195458
0.195544
0.195583
0.195566
0.195481
0.195324
0.195096
0.194804
0.194461
0.194073
0.193642
0.193165
0.192637
0.19205
0.191399
0.190679
0.189885
0.189009
0.188044
0.186981
0.185811
0.184523
0.183107
0.181549
0.179839
0.177961
0.175903
0.17365
0.171187
0.1685
0.165574
0.162398
0.158957
0.155242
0.151245
0.146964
0.1424
0.13756
0.132456
0.127107
0.121539
0.115785
0.109884
0.103885
0.0978444
0.0917507
0.0854741
0.0789351
0.0724452
0.0667208
0.0622598
0.058639
0.0547309
0.0498362
0.0443244
0.0390159
0.0343184
0.0300953
0.0261082
0.0224477
0.0194676
0.0172891
0.0154668
0.0131789
0.00997396
0.00652268
0.00334171
0.00225309
0.127458
0.135452
0.14571
0.156597
0.166532
0.174476
0.180206
0.18431
0.187369
0.189579
0.191026
0.191984
0.192756
0.193449
0.194019
0.19442
0.194667
0.194806
0.194881
0.194923
0.194944
0.194944
0.194917
0.194867
0.194813
0.194778
0.194775
0.194805
0.194862
0.194942
0.19504
0.195149
0.19526
0.195356
0.195419
0.195438
0.1954
0.195294
0.195114
0.194861
0.194541
0.194165
0.19374
0.193269
0.192749
0.192173
0.191534
0.190826
0.190042
0.189176
0.18822
0.187168
0.186009
0.184734
0.18333
0.181786
0.180089
0.178226
0.176182
0.173944
0.171496
0.168823
0.165912
0.162748
0.15932
0.155616
0.151628
0.147355
0.142796
0.137958
0.132854
0.127504
0.121934
0.116179
0.110277
0.104275
0.0982247
0.0921206
0.0858645
0.0794147
0.0730713
0.0674706
0.0630236
0.0593075
0.0552917
0.0503537
0.0448316
0.0394825
0.0346976
0.0303131
0.0260774
0.0223009
0.0197763
0.0186986
0.0178397
0.0155014
0.0114586
0.00726071
0.0037818
0.00291322
0.128615
0.136868
0.147567
0.158931
0.169338
0.177699
0.183605
0.187246
0.189166
0.190086
0.190679
0.191337
0.192113
0.192878
0.193511
0.193977
0.1943
0.194517
0.194661
0.194757
0.194823
0.19486
0.194863
0.194836
0.194794
0.194759
0.194744
0.194754
0.194786
0.194835
0.194898
0.194972
0.195055
0.195139
0.195209
0.195251
0.195249
0.195192
0.195068
0.194868
0.194593
0.194246
0.193837
0.193373
0.192858
0.192289
0.191661
0.190965
0.190195
0.189341
0.188398
0.187357
0.18621
0.184947
0.183556
0.182026
0.180343
0.178495
0.176467
0.174244
0.171811
0.169153
0.166255
0.163104
0.159685
0.155988
0.152003
0.147726
0.143158
0.138303
0.133175
0.127792
0.122181
0.116374
0.110412
0.10434
0.098207
0.0920159
0.0857032
0.0792634
0.0729753
0.0673829
0.0628296
0.0589615
0.0549178
0.0501591
0.0449389
0.0398887
0.0353132
0.0309755
0.026676
0.0230845
0.0215771
0.0225744
0.0239303
0.0224434
0.0176097
0.0121357
0.0076563
0.00702313
0.128623
0.136986
0.147907
0.159464
0.169942
0.178205
0.183858
0.187182
0.18887
0.189711
0.190316
0.190981
0.191736
0.192483
0.193129
0.193639
0.194022
0.194301
0.1945
0.19464
0.194741
0.194808
0.194838
0.19483
0.194799
0.194763
0.194738
0.194729
0.194737
0.194758
0.194788
0.194826
0.19487
0.194919
0.19497
0.195011
0.195029
0.195008
0.194934
0.194794
0.194579
0.194284
0.193913
0.193471
0.192966
0.192403
0.191781
0.191096
0.190338
0.189499
0.188571
0.187544
0.18641
0.185161
0.183783
0.182267
0.180599
0.178765
0.176753
0.174546
0.172128
0.169485
0.166602
0.163464
0.160057
0.156368
0.152387
0.14811
0.143534
0.138666
0.133516
0.128103
0.122452
0.116596
0.110574
0.104433
0.0982178
0.0919406
0.0855667
0.0791195
0.0728571
0.0672441
0.0625663
0.0585331
0.0544355
0.0498148
0.0448685
0.0401049
0.0356835
0.0313476
0.0272394
0.0245249
0.0245453
0.0268702
0.0285134
0.0266327
0.0216894
0.0167451
0.0124422
0.0124349
0.128101
0.136708
0.147971
0.159851
0.170536
0.178853
0.184425
0.187584
0.189081
0.189746
0.190208
0.190774
0.191476
0.192207
0.192866
0.193407
0.193832
0.194157
0.194397
0.194572
0.194701
0.194792
0.194843
0.194851
0.194828
0.194791
0.194757
0.194731
0.194716
0.19471
0.194709
0.194713
0.19472
0.194729
0.194739
0.194748
0.194754
0.194742
0.194699
0.194608
0.194456
0.194229
0.193921
0.19353
0.193058
0.192514
0.191901
0.191222
0.190472
0.189644
0.18873
0.18772
0.186604
0.18537
0.184009
0.182508
0.180855
0.179037
0.177041
0.17485
0.172449
0.169822
0.166955
0.163831
0.160437
0.156759
0.152785
0.148508
0.143928
0.139048
0.13388
0.128439
0.122752
0.11685
0.110773
0.104565
0.0982711
0.0919119
0.0854757
0.0790077
0.0727445
0.067082
0.062259
0.058043
0.0538617
0.049342
0.0446343
0.0400813
0.0357028
0.0314932
0.0283836
0.0280776
0.0307888
0.0334071
0.0319658
0.0264392
0.020244
0.0163178
0.0132457
0.01376
0.127159
0.136104
0.147784
0.160045
0.170975
0.179359
0.184846
0.187846
0.189185
0.189734
0.190127
0.190656
0.191335
0.192055
0.192714
0.193271
0.193724
0.194081
0.194351
0.194552
0.194702
0.194811
0.194879
0.1949
0.194884
0.194846
0.194802
0.194761
0.194724
0.194691
0.194661
0.194632
0.194604
0.194574
0.194543
0.194508
0.19447
0.194428
0.194377
0.194303
0.194192
0.194028
0.193793
0.193477
0.193074
0.192582
0.192004
0.191343
0.190602
0.189783
0.188879
0.187883
0.186782
0.185565
0.184221
0.182737
0.181103
0.179305
0.177328
0.175156
0.172772
0.170162
0.16731
0.164203
0.160824
0.157157
0.153191
0.148918
0.144336
0.139448
0.134263
0.128799
0.123079
0.117135
0.111004
0.104733
0.0983648
0.0919274
0.0854281
0.0789277
0.0726431
0.0669119
0.0619338
0.0575275
0.053246
0.0487936
0.0442358
0.0397481
0.0354665
0.0321546
0.0319012
0.0365197
0.0433171
0.0448681
0.0374849
0.0263423
0.0179799
0.0144209
0.0121255
0.0132682
0.125867
0.135239
0.14741
0.160103
0.171306
0.179771
0.185197
0.188074
0.189298
0.189773
0.190129
0.190638
0.191299
0.192004
0.192657
0.193221
0.19369
0.194069
0.194361
0.194579
0.194744
0.194866
0.194946
0.194978
0.194967
0.194926
0.194873
0.194817
0.19476
0.194703
0.194644
0.194584
0.194521
0.194455
0.194384
0.194307
0.194222
0.19413
0.194031
0.193922
0.193802
0.193658
0.193468
0.193222
0.192906
0.192501
0.191997
0.191395
0.190699
0.18991
0.189025
0.188039
0.186947
0.185739
0.184408
0.182943
0.181332
0.179558
0.177604
0.175452
0.173088
0.170496
0.167663
0.164574
0.161213
0.157561
0.153607
0.149339
0.144757
0.139863
0.134667
0.129182
0.123433
0.11745
0.111271
0.104941
0.0985045
0.0919948
0.0854341
0.0788935
0.0725712
0.0667546
0.0616133
0.0570189
0.0526339
0.0481912
0.0436541
0.0392477
0.0357669
0.0352224
0.0402659
0.0501409
0.0568041
0.0517895
0.0374503
0.0236763
0.0159011
0.0134254
0.0113425
0.0125009
0.124314
0.13418
0.146897
0.160058
0.17155
0.180106
0.185488
0.18827
0.189415
0.189851
0.190196
0.1907
0.19135
0.192039
0.192683
0.193247
0.193726
0.194117
0.194422
0.194651
0.194825
0.194957
0.195045
0.195084
0.195076
0.195033
0.194971
0.1949
0.194825
0.194744
0.194659
0.194569
0.194473
0.194371
0.194262
0.194144
0.194016
0.193876
0.193723
0.193558
0.19338
0.193186
0.192973
0.19274
0.192467
0.192127
0.191709
0.191207
0.190612
0.189907
0.189081
0.188135
0.18707
0.185886
0.184579
0.183138
0.181548
0.179793
0.177856
0.17572
0.173372
0.170797
0.167984
0.164917
0.161578
0.157948
0.15401
0.149754
0.145178
0.140285
0.135085
0.12959
0.123819
0.117805
0.111584
0.105204
0.0987113
0.0921424
0.0855315
0.0789569
0.0725995
0.0667073
0.0614348
0.0567031
0.052236
0.0477667
0.0433343
0.0396709
0.03863
0.042787
0.052196
0.0601075
0.0572607
0.0436583
0.0283244
0.018527
0.0145217
0.0135149
0.0110848
0.0118291
0.122536
0.132961
0.146278
0.159935
0.171724
0.180383
0.18574
0.188454
0.189549
0.189971
0.190323
0.190831
0.191473
0.192148
0.192781
0.193342
0.193823
0.19422
0.194531
0.194765
0.194944
0.19508
0.195174
0.195218
0.195211
0.195165
0.195094
0.19501
0.194917
0.194815
0.194705
0.194586
0.194459
0.194323
0.194177
0.19402
0.193849
0.193663
0.193461
0.193241
0.193002
0.192742
0.19246
0.192157
0.191826
0.19146
0.191056
0.190608
0.190093
0.189475
0.188739
0.187885
0.186915
0.18583
0.184615
0.183241
0.181692
0.179959
0.178036
0.175915
0.173584
0.17103
0.16824
0.165198
0.161888
0.15829
0.154385
0.15016
0.145612
0.140741
0.135556
0.130064
0.124283
0.118242
0.111979
0.105543
0.0989883
0.092364
0.0857223
0.0791531
0.072825
0.0669572
0.0616929
0.0569674
0.0525265
0.0482221
0.0445246
0.04292
0.0455053
0.0526253
0.0593641
0.0576346
0.0456949
0.0307765
0.0201912
0.0157194
0.0145735
0.0139789
0.0108104
0.0112777
0.120558
0.131609
0.145575
0.15975
0.171849
0.180623
0.185973
0.188643
0.189712
0.190138
0.190506
0.191021
0.191656
0.192319
0.19294
0.193495
0.193975
0.194372
0.194682
0.194917
0.195097
0.195236
0.195333
0.195379
0.195372
0.195321
0.195243
0.195146
0.195037
0.194915
0.194781
0.194636
0.194479
0.194311
0.19413
0.193934
0.193723
0.193493
0.193244
0.192972
0.192676
0.192353
0.192002
0.191619
0.191202
0.19075
0.190258
0.189723
0.189135
0.188481
0.187753
0.186946
0.186053
0.185066
0.183953
0.182669
0.18119
0.179514
0.177644
0.175579
0.173309
0.170817
0.168086
0.165102
0.161853
0.158329
0.154519
0.150407
0.145979
0.141219
0.136117
0.130671
0.124901
0.118834
0.112503
0.105958
0.0992682
0.0925201
0.0858138
0.0792775
0.0730831
0.0674142
0.0623609
0.0578117
0.0535503
0.0496963
0.0471636
0.0473912
0.0507934
0.0546314
0.0535421
0.0449186
0.0325223
0.0223121
0.0170059
0.0157242
0.0153621
0.0142051
0.0103292
0.010918
0.118391
0.130141
0.144802
0.15952
0.171945
0.180851
0.186212
0.188855
0.189913
0.19035
0.190735
0.191257
0.191888
0.19254
0.193152
0.1937
0.194174
0.194566
0.194872
0.195104
0.195283
0.195421
0.195519
0.195565
0.195556
0.195502
0.195415
0.195307
0.195182
0.195042
0.194887
0.194717
0.194533
0.194334
0.19412
0.193888
0.193638
0.193366
0.19307
0.192749
0.192399
0.192017
0.1916
0.191146
0.190649
0.190106
0.189512
0.188864
0.188155
0.187382
0.186536
0.185608
0.184588
0.183466
0.182228
0.180851
0.179323
0.177631
0.175767
0.173718
0.171469
0.168998
0.166286
0.163318
0.16009
0.156605
0.152865
0.14886
0.144566
0.139945
0.134958
0.129588
0.123856
0.117793
0.111431
0.104817
0.0980363
0.0912123
0.084496
0.0780574
0.0720732
0.0666831
0.0619089
0.0576201
0.0536977
0.0503583
0.0481885
0.0474722
0.047207
0.0451087
0.0394976
0.0313992
0.023721
0.0187392
0.016765
0.0165838
0.0157947
0.0139013
0.00971146
0.0108248
0.116028
0.128551
0.143959
0.159256
0.172034
0.181088
0.186475
0.189103
0.190154
0.190602
0.191001
0.191531
0.19216
0.192805
0.193409
0.193949
0.194415
0.194797
0.195096
0.195322
0.195497
0.195634
0.195729
0.195774
0.195763
0.195704
0.195609
0.19549
0.195352
0.195196
0.195021
0.194829
0.194619
0.194392
0.194147
0.193881
0.193593
0.193281
0.192942
0.192573
0.192171
0.191733
0.191254
0.190731
0.190159
0.189532
0.188847
0.188096
0.187272
0.18637
0.18538
0.184293
0.183099
0.181788
0.180351
0.178775
0.177046
0.175149
0.173066
0.170781
0.168277
0.165535
0.162536
0.159265
0.155718
0.151898
0.14781
0.143452
0.138814
0.133882
0.128641
0.123091
0.117251
0.111145
0.104812
0.098307
0.0917178
0.0851566
0.0787518
0.07264
0.0669557
0.0617985
0.0571899
0.0530858
0.0494634
0.0463473
0.0436259
0.04084
0.0373338
0.0327838
0.0276033
0.0227948
0.0192413
0.017321
0.0166962
0.0164897
0.0151345
0.0129955
0.00903069
0.0109175
0.113429
0.126821
0.143052
0.158981
0.172138
0.181356
0.186774
0.189389
0.19043
0.190884
0.191295
0.191833
0.192464
0.193107
0.193706
0.194236
0.194689
0.195059
0.195347
0.195566
0.195736
0.195869
0.195962
0.196004
0.19599
0.195925
0.195823
0.195695
0.195545
0.195374
0.195182
0.19497
0.194737
0.194484
0.19421
0.193912
0.19359
0.19324
0.19286
0.192446
0.191995
0.191502
0.190964
0.190376
0.189731
0.189026
0.188253
0.187405
0.186474
0.185453
0.184331
0.183098
0.181745
0.180258
0.178626
0.176836
0.174872
0.172719
0.170362
0.167782
0.164965
0.161893
0.158554
0.154935
0.151023
0.146811
0.142296
0.137479
0.13237
0.12698
0.121328
0.115438
0.109343
0.103091
0.0967387
0.0903522
0.0840006
0.0777502
0.071665
0.0658146
0.0602812
0.0551471
0.0504697
0.0462691
0.0425118
0.0390455
0.0355612
0.0317638
0.027682
0.0237293
0.0203913
0.0179369
0.0163793
0.0156256
0.0153081
0.0148961
0.0134111
0.011604
0.00825305
0.0109324
0.110586
0.124971
0.142114
0.158722
0.17228
0.181665
0.187112
0.189707
0.190732
0.191186
0.191609
0.19216
0.192799
0.193443
0.194036
0.194554
0.194991
0.195345
0.195621
0.195832
0.195996
0.196124
0.196213
0.196251
0.196233
0.196164
0.196055
0.195919
0.195758
0.195575
0.195368
0.195137
0.194884
0.194608
0.194307
0.193981
0.193627
0.193242
0.192823
0.192367
0.191869
0.191326
0.190732
0.190082
0.189369
0.188589
0.187732
0.186792
0.18576
0.184626
0.183381
0.182012
0.180508
0.178856
0.177042
0.175052
0.17287
0.170481
0.167869
0.165016
0.161908
0.158531
0.154874
0.150927
0.146677
0.142112
0.137228
0.132034
0.126547
0.120797
0.114818
0.108652
0.102349
0.0959682
0.0895734
0.0832257
0.0769772
0.0708683
0.0649343
0.0592193
0.0537867
0.0487134
0.044065
0.0398625
0.0360471
0.0324658
0.0289361
0.0254033
0.0220426
0.0191465
0.0168987
0.0153113
0.0143206
0.0138434
0.013528
0.0129758
0.0115176
0.0100946
0.00732493
0.0105494
0.107591
0.123084
0.141205
0.158519
0.172477
0.182016
0.187478
0.190042
0.191046
0.191502
0.191942
0.192512
0.193163
0.193809
0.194393
0.194895
0.195313
0.19565
0.195913
0.196115
0.196273
0.196395
0.196479
0.196513
0.19649
0.196417
0.196303
0.196159
0.19599
0.195795
0.195576
0.19533
0.195059
0.194762
0.194438
0.194086
0.193702
0.193285
0.192831
0.192336
0.191795
0.191204
0.190558
0.18985
0.189074
0.188223
0.187288
0.186262
0.185134
0.183894
0.182532
0.181034
0.179389
0.177582
0.175598
0.173422
0.171039
0.168432
0.165586
0.162483
0.159109
0.155451