/*--------------------------------*- C++ -*----------------------------------*\
  =========                 |
  \\      /  F ield         | OpenFOAM: The Open Source CFD Toolbox
   \\    /   O peration     | Website:  https://openfoam.org
    \\  /    A nd           | Version:  10
     \\/     M anipulation  |
\*---------------------------------------------------------------------------*/
FoamFile
{
    format      ascii;
    class       volScalarField;
    location    "0.01";
    object      nut;
}
// * * * * * * * * * * * * * * * * * * * * * * * * * * * * * * * * * * * * * //

dimensions      [0 2 -1 0 0 0 0];

internalField   nonuniform List<scalar> 
6820
(
0
0
0
0
0
0
0
0
0
0
0
0
0
0
3.86852e-09
1.15037e-08
1.70413e-08
2.1976e-08
2.71258e-08
3.28403e-08
3.89521e-08
4.4762e-08
4.91757e-08
5.10213e-08
4.94675e-08
4.43239e-08
3.61083e-08
2.57767e-08
1.44868e-08
3.67886e-09
2.98807e-09
6.03499e-08
2.34705e-07
0
0
0
0
0
0
0
0
0
0
0
0
0
0
0
3.68791e-09
8.57616e-09
1.28897e-08
1.72344e-08
2.18005e-08
2.64033e-08
3.05888e-08
3.37643e-08
3.53433e-08
3.4915e-08
3.23553e-08
2.79077e-08
2.1987e-08
1.52795e-08
8.41884e-09
6.96934e-09
4.60938e-08
2.74082e-07
0
0
0
0
0
0
0
0
0
0
0
0
0
0
0
0
0
0
0
0
0
0
0
0
1.11008e-09
4.64851e-10
7.91936e-09
1.19324e-08
1.4446e-08
1.18011e-08
1.93281e-08
2.37108e-08
1.64152e-07
0
0
0
0
0
0
0
0
0
0
0
0
0
0
0
0
0
0
0
0
0
0
0
0
0
0
6.47115e-09
5.8624e-08
1.26887e-07
2.12924e-07
3.48865e-07
4.9248e-07
1.80306e-06
1.27572e-05
0
0
0
0
0
0
0
0
0
0
0
0
0
0
0
0
0
0
0
0
0
0
0
0
0
0
0
0
0
0
0
0
3.9728e-06
2.75205e-05
2.22575e-05
1.52466e-05
8.05198e-06
3.02804e-06
0
0
0
0
0
0
0
0
0
0
0
0
0
0
0
0
0
0
0
0
0
0
0
0
0
0
0
0
0
8.54947e-07
5.14652e-06
5.23249e-06
3.81234e-06
2.02415e-06
0
0
0
0
0
0
0
0
0
0
0
0
0
0
0
0
0
0
0
0
0
0
0
0
0
0
0
0
0
0
0
0
0
0
0
0
0
0
0
0
0
0
0
0
0
0
0
0
0
0
0
0
0
0
0
0
0
0
0
0
0
0
0
0
0
0
0
0
0
0
0
0
0
0
0
0
0
0
0
0
0
0
0
0
0
0
0
0
0
0
0
0
0
0
0
0
0
0
0
0
0
0
0
0
0
0
0
0
0
0
0
0
0
0
0
0
0
0
0
0
0
0
0
0
0
0
0
0
0
0
0
0
0
0
0
0
0
0
0
0
0
0
0
0
0
0
0
0
0
0
0
0
0
0
0
0
0
0
0
0
0
0
0
0
0
0
0
0
0
0
0
0
0
0
0
0
0
0
0
0
0
0
0
0
0
0
0
0
0
0
0
0
0
0
0
0
0
0
0
0
0
0
0
0
0
0
0
0
0
0
0
0
0
0
0
0
0
0
0
0
0
0
0
0
0
0
0
0
0
0
0
0
0
0
0
0
0
0
0
0
0
0
0
0
0
0
0
0
0
0
0
0
0
0
0
0
0
0
0
0
0
0
0
0
0
0
0
0
0
0
0
0
0
0
0
0
0
0
0
0
0
0
0
0
0
0
0
0
0
0
0
0
0
0
0
0
0
0
0
0
0
0
0
0
0
0
0
0
0
0
0
0
0
0
0
0
0
0
0
0
0
0
0
0
0
0
0
0
0
0
0
0
0
0
0
0
0
0
0
0
0
0
0
0
0
0
0
0
0
0
0
0
0
0
0
1.41543e-07
0
0
0
0
0
0
0
0
0
0
0
0
0
0
0
0
0
0
0
0
0
0
0
0
0
0
0
0
0
0
0
6.04222e-08
3.11507e-07
0
0
0
0
0
0
0
0
0
0
0
0
0
0
0
0
0
0
0
0
0
0
0
0
0
0
0
0
0
0
0
1.57828e-08
3.58784e-07
0
0
0
0
0
0
0
0
0
0
0
0
0
0
0
0
0
0
0
0
0
0
0
0
0
0
0
0
0
0
0
0
2.88399e-07
0
0
0
0
0
0
0
0
0
0
0
0
0
0
0
0
0
0
0
0
0
0
0
0
0
0
0
0
0
0
0
0
1.00649e-07
0
0
0
0
0
0
0
0
0
0
0
0
0
0
0
0
0
0
0
0
0
0
0
3.58058e-09
0
0
0
0
0
0
0
0
0
0
0
0
0
0
0
0
0
0
0
0
0
0
0
0
0
0
0
0
5.69958e-08
9.98824e-08
9.77326e-08
6.53186e-08
5.23926e-09
0
0
0
0
0
0
0
0
0
0
0
0
0
0
0
0
0
0
0
0
0
0
0
0
0
0
1.43104e-07
2.24533e-07
2.31316e-07
1.8853e-07
1.1565e-07
1.75266e-08
0
0
0
0
0
0
0
0
0
0
0
0
0
0
0
0
0
0
0
0
0
0
0
0
5.18866e-08
1.83268e-07
2.80595e-07
3.22407e-07
2.95784e-07
2.15153e-07
1.04079e-07
0
0
0
0
0
0
0
0
0
0
0
0
0
0
0
0
0
0
0
0
0
0
3.66978e-08
2.3436e-07
3.81196e-07
4.79908e-07
5.36983e-07
5.56159e-07
5.30376e-07
4.45319e-07
3.03053e-07
1.29086e-07
0
0
0
0
0
0
0
0
0
0
0
0
0
0
0
0
0
0
0
0
0
1.35891e-07
3.22437e-07
4.66778e-07
5.59792e-07
6.00251e-07
5.92376e-07
5.43314e-07
4.59069e-07
3.37273e-07
1.70238e-07
0
0
0
0
0
0
0
0
0
0
0
0
0
0
0
0
0
0
0
4.07901e-08
2.48411e-07
4.83507e-07
7.13839e-07
9.07496e-07
1.04404e-06
1.1132e-06
1.11353e-06
1.05003e-06
9.30479e-07
7.63923e-07
5.58217e-07
3.14081e-07
3.03137e-08
0
0
0
0
0
0
0
0
0
0
0
0
0
0
0
2.27082e-08
0
0
3.38968e-08
1.9542e-07
3.80726e-07
5.51709e-07
6.83086e-07
7.58475e-07
7.69485e-07
7.14518e-07
5.97192e-07
4.24069e-07
2.03957e-07
0
0
0
0
0
0
0
0
0
0
0
0
0
0
0
0
0
0
0
2.95013e-07
5.88497e-08
2.11555e-07
4.7331e-07
7.74742e-07
1.07143e-06
1.29797e-06
1.42801e-06
1.45737e-06
1.38897e-06
1.23073e-06
9.94408e-07
6.93016e-07
3.40682e-07
0
0
0
0
0
0
0
0
0
0
0
0
0
0
0
0
0
0
0
3.50115e-07
0
0
0
0
0
0
0
0
0
0
0
0
0
0
0
0
0
0
0
0
0
0
0
0
0
0
0
0
0
0
0
0
8.25079e-07
2.07959e-07
3.34648e-07
4.0356e-07
2.99362e-07
1.05692e-07
0
0
0
0
0
0
0
0
0
0
0
0
0
0
0
0
0
0
0
0
0
0
0
0
0
0
0
1.05849e-07
0
0
0
0
0
0
0
0
0
0
0
0
0
0
0
0
0
0
0
0
0
0
0
0
0
0
0
0
0
0
0
0
1.40841e-06
0
0
0
0
0
0
0
0
0
0
0
0
0
0
0
0
0
0
0
0
0
0
0
0
0
0
0
0
0
0
0
0
0
0
0
0
0
0
0
0
0
0
0
0
0
0
0
0
0
0
0
0
0
0
0
0
0
0
0
0
0
0
0
0
0
0
0
0
0
0
0
7.07007e-06
1.63343e-05
2.11424e-05
2.34457e-05
2.43201e-05
2.43651e-05
2.38995e-05
2.30666e-05
2.19555e-05
2.06342e-05
1.91869e-05
1.77018e-05
1.61805e-05
1.44656e-05
1.236e-05
9.85858e-06
7.17234e-06
4.55829e-06
2.20427e-06
2.20193e-07
0
0
0
0
0
0
0
0
0
0
0
0
0
0
0
0
0
0
0
1.55182e-07
7.72752e-07
1.53925e-06
2.50693e-06
3.77018e-06
5.4792e-06
7.82629e-06
1.09874e-05
1.50241e-05
1.97958e-05
2.49522e-05
3.00286e-05
3.45908e-05
3.83563e-05
4.12499e-05
4.34075e-05
4.51371e-05
4.68324e-05
4.88356e-05
5.11441e-05
5.47099e-05
4.36253e-08
0
0
0
0
0
0
0
0
0
0
0
0
0
0
0
0
0
0
0
0
0
1.22365e-08
3.32865e-08
5.55759e-08
7.76248e-08
9.83276e-08
1.1718e-07
1.3433e-07
1.50429e-07
1.66368e-07
1.83301e-07
2.09244e-07
2.37373e-08
0
0
0
0
0
0
0
0
0
0
0
0
0
0
0
0
0
0
0
0
0
0
1.00896e-08
6.0097e-08
9.67315e-08
1.19737e-07
1.31263e-07
1.35054e-07
1.35301e-07
1.35568e-07
1.38686e-07
1.33846e-07
1.12315e-08
0
0
0
0
0
0
0
0
0
0
0
0
0
0
0
0
0
0
0
0
0
0
0
4.23478e-08
7.61543e-08
9.5922e-08
1.03778e-07
1.03684e-07
1.00074e-07
9.66649e-08
9.38299e-08
8.13979e-08
0
0
0
0
0
0
0
0
2.63163e-06
1.38471e-05
2.01076e-05
2.23929e-05
2.23414e-05
2.1206e-05
1.96172e-05
1.77963e-05
1.58592e-05
1.39233e-05
1.20513e-05
1.02562e-05
8.54127e-06
6.91261e-06
5.37325e-06
3.91998e-06
2.54691e-06
1.2494e-06
2.19336e-08
0
0
0
0
0
0
0
0
0
0
0
0
0
0
0
0
0
0
0
0
0
0
0
0
0
0
0
0
0
0
0
0
0
0
0
0
0
0
0
0
0
0
0
0
0
0
0
0
0
0
0
0
0
0
0
0
0
0
0
0
0
0
0
0
0
0
0
0
0
0
0
0
0
0
0
0
0
0
0
0
0
9.8543e-06
1.75237e-05
2.20582e-05
2.41733e-05
2.45783e-05
2.38197e-05
2.23338e-05
2.04493e-05
1.84079e-05
1.63544e-05
1.43489e-05
1.24098e-05
1.05501e-05
8.78273e-06
7.11382e-06
5.53986e-06
4.05293e-06
2.64735e-06
1.31996e-06
6.46622e-08
0
0
0
0
0
0
0
0
0
0
0
0
0
0
0
0
0
0
0
0
0
0
0
0
0
0
0
0
0
0
0
0
0
0
0
0
0
0
0
0
0
0
0
0
0
0
0
0
0
0
0
0
0
0
0
0
0
0
0
0
0
0
0
0
0
0
0
0
0
0
0
0
0
0
0
0
0
0
0
3.82127e-06
1.16359e-05
1.77637e-05
2.20018e-05
2.43274e-05
2.50472e-05
2.45717e-05
2.3304e-05
2.1596e-05
1.96874e-05
1.77162e-05
1.57515e-05
1.38271e-05
1.19668e-05
1.019e-05
8.5066e-06
6.91553e-06
5.4094e-06
3.98173e-06
2.62977e-06
1.35144e-06
1.40245e-07
0
0
0
0
0
0
0
0
0
0
0
0
0
0
0
0
0
0
0
0
0
0
0
0
0
0
0
0
0
0
0
0
0
0
0
0
0
0
0
0
0
0
0
0
0
0
0
0
0
0
0
0
0
0
0
0
0
0
0
0
0
0
0
0
0
0
0
0
0
0
0
0
0
0
0
0
0
0
5.20605e-06
1.17076e-05
1.72599e-05
2.12546e-05
2.36762e-05
2.46802e-05
2.45259e-05
2.35684e-05
2.21302e-05
2.04338e-05
1.86192e-05
1.67677e-05
1.49252e-05
1.3124e-05
1.13901e-05
9.73855e-06
8.17144e-06
6.68307e-06
5.2677e-06
3.9226e-06
2.64674e-06
1.43767e-06
2.8885e-07
0
0
0
0
0
0
0
0
0
0
0
0
0
0
0
0
0
0
0
0
0
0
0
0
0
0
0
0
0
0
0
0
0
0
0
0
0
0
0
0
0
0
0
0
0
0
0
0
0
0
0
0
0
0
0
0
0
0
0
0
0
0
0
0
0
0
0
0
0
0
0
0
0
0
0
0
0
5.70155e-06
1.15433e-05
1.66078e-05
2.04868e-05
2.30024e-05
2.41954e-05
2.42985e-05
2.36257e-05
2.24522e-05
2.09779e-05
1.934e-05
1.76252e-05
1.58873e-05
1.41662e-05
1.24939e-05
1.08907e-05
9.36228e-06
7.90481e-06
6.51365e-06
5.18722e-06
3.92506e-06
2.72565e-06
1.58576e-06
4.99882e-07
0
0
0
0
0
0
0
0
0
0
0
0
0
0
0
0
0
0
0
0
0
0
0
0
0
0
0
0
0
0
0
0
0
0
0
0
0
0
0
0
0
0
0
0
0
0
0
0
0
0
0
0
0
0
0
0
0
0
0
0
0
0
0
0
0
0
0
0
0
0
0
0
0
0
0
6.51134e-07
6.03166e-06
1.13987e-05
1.61534e-05
1.98525e-05
2.23242e-05
2.3626e-05
2.39504e-05
2.35393e-05
2.26177e-05
2.13645e-05
1.99109e-05
1.83453e-05
1.67265e-05
1.51002e-05
1.35035e-05
1.19615e-05
1.04833e-05
9.06729e-06
7.70992e-06
6.41081e-06
5.17117e-06
3.99024e-06
2.86519e-06
1.79272e-06
7.69118e-07
0
0
0
0
0
0
0
0
0
0
0
0
0
0
0
0
0
0
0
0
0
0
0
0
0
0
0
0
0
0
0
0
0
0
0
0
0
0
0
0
0
0
0
0
0
0
0
0
0
0
0
0
0
0
0
0
0
0
0
0
0
0
0
0
0
0
0
0
0
0
0
0
0
0
1.69935e-06
6.62123e-06
1.14814e-05
1.57948e-05
1.92196e-05
2.16159e-05
2.30053e-05
2.35159e-05
2.33323e-05
2.26417e-05
2.16024e-05
2.03355e-05
1.89275e-05
1.74396e-05
1.59209e-05
1.44125e-05
1.29435e-05
1.15265e-05
1.01622e-05
8.84824e-06
7.58515e-06
6.37575e-06
5.22119e-06
4.11928e-06
3.06649e-06
2.06025e-06
1.09875e-06
1.79578e-07
0
0
0
0
0
0
0
0
0
0
0
0
0
0
0
0
0
0
0
0
0
0
0
0
0
0
0
0
0
0
0
0
0
0
0
0
0
0
0
0
0
0
0
0
0
0
0
0
0
0
0
0
0
0
0
0
0
0
0
0
0
0
0
0
0
0
0
0
0
0
0
0
2.65356e-06
7.07633e-06
1.14486e-05
1.53803e-05
1.85779e-05
2.09009e-05
2.23456e-05
2.30029e-05
2.30154e-05
2.25361e-05
2.17011e-05
2.06198e-05
1.93743e-05
1.80257e-05
1.66249e-05
1.52159e-05
1.38306e-05
1.24852e-05
1.11824e-05
9.92112e-06
8.70277e-06
7.53147e-06
6.41019e-06
5.33844e-06
4.31309e-06
3.331e-06
2.39052e-06
1.49129e-06
6.32007e-07
0
0
0
0
0
0
0
0
0
0
0
0
0
0
0
0
0
0
0
0
0
0
0
0
0
0
0
0
0
0
0
0
0
0
0
0
0
0
0
0
0
0
0
0
0
0
0
0
0
0
0
0
0
0
0
0
0
0
0
0
0
0
0
0
0
0
0
0
0
0
0
3.56214e-06
7.53341e-06
1.14602e-05
1.5021e-05
1.79729e-05
2.01908e-05
2.16557e-05
2.24251e-05
2.2604e-05
2.23142e-05
2.16707e-05
2.07703e-05
1.96886e-05
1.84848e-05
1.721e-05
1.59095e-05
1.46176e-05
1.3353e-05
1.21208e-05
1.09211e-05
9.75597e-06
8.63068e-06
7.54976e-06
6.5144e-06
5.52274e-06
4.57191e-06
3.65965e-06
2.78516e-06
1.94836e-06
1.14884e-06
3.85046e-07
0
0
0
0
0
0
0
0
0
0
0
0
0
0
0
0
0
0
0
0
0
0
0
0
0
0
0
0
0
0
0
0
0
0
0
0
0
0
0
0
0
0
0
0
0
0
0
0
0
0
0
0
0
0
0
0
0
0
0
0
0
0
0
0
0
0
0
0
1.07325e-06
4.37534e-06
7.92082e-06
1.14301e-05
1.46446e-05
1.73636e-05
1.94716e-05
2.09364e-05
2.17901e-05
2.21084e-05
2.19867e-05
2.15206e-05
2.07938e-05
1.98744e-05
1.88182e-05
1.76751e-05
1.64903e-05
1.52999e-05
1.41245e-05
1.29713e-05
1.18413e-05
1.07375e-05
9.6659e-06
8.63249e-06
7.63997e-06
6.68773e-06
5.77372e-06
4.896e-06
4.05331e-06
3.24509e-06
2.47118e-06
1.73161e-06
1.02575e-06
3.51744e-07
0
0
0
0
0
0
0
0
0
0
0
0
0
0
0
0
0
0
0
0
0
0
0
0
0
0
0
0
0
0
0
0
0
0
0
0
0
0
0
0
0
0
0
0
0
0
0
0
0
0
0
0
0
0
0
0
0
0
0
0
0
0
0
0
0
0
2.13729e-06
5.09457e-06
8.25323e-06
1.13835e-05
1.42768e-05
1.67679e-05
1.87542e-05
2.01965e-05
2.11078e-05
2.15395e-05
2.15646e-05
2.12603e-05
2.06976e-05
1.99364e-05
1.90279e-05
1.80198e-05
1.69564e-05
1.5874e-05
1.4795e-05
1.3728e-05
1.26752e-05
1.16403e-05
1.06298e-05
9.65087e-06
8.70763e-06
7.80071e-06
6.92889e-06
6.09074e-06
5.28534e-06
4.51209e-06
3.77046e-06
3.06021e-06
2.38105e-06
1.7328e-06
1.11507e-06
5.26053e-07
0
0
0
0
0
0
0
0
0
0
0
0
0
0
0
0
0
0
0
0
0
0
0
0
0
0
0
0
0
0
0
0
0
0
0
0
0
0
0
0
0
0
0
0
0
0
0
0
0
0
0
0
0
0
0
0
0
0
0
0
0
0
0
7.58083e-07
3.05878e-06
5.70308e-06
8.50959e-06
1.1294e-05
1.38909e-05
1.6166e-05
1.80285e-05
1.94343e-05
2.03822e-05
2.0905e-05
2.10565e-05
2.08982e-05
2.04886e-05
1.98795e-05
1.91169e-05
1.8245e-05
1.73065e-05
1.63372e-05
1.53604e-05
1.43859e-05
1.34171e-05
1.24578e-05
1.15153e-05
1.05976e-05
9.70995e-06
8.85423e-06
8.03006e-06
7.23654e-06
6.47314e-06
5.73959e-06
5.0356e-06
4.3608e-06
3.71468e-06
3.09693e-06
2.50723e-06
1.94512e-06
1.41062e-06
9.02483e-07
4.18677e-07
0
0
0
0
0
0
0
0
0
0
0
0
0
0
0
0
0
0
0
0
0
0
0
0
0
0
0
0
0
0
0
0
0
0
0
0
0
0
0
0
0
0
0
0
0
0
0
0
0
0
0
0
0
0
0
0
0
0
0
1.844e-08
1.74492e-06
3.83603e-06
6.19899e-06
8.68964e-06
1.11633e-05
1.34901e-05
1.55612e-05
1.72974e-05
1.86538e-05
1.96194e-05
2.02124e-05
2.0471e-05
2.04426e-05
2.01742e-05
1.97094e-05
1.90886e-05
1.83522e-05
1.75404e-05
1.66877e-05
1.58176e-05
1.49408e-05
1.40616e-05
1.31841e-05
1.23159e-05
1.14656e-05
1.06396e-05
9.84075e-06
9.06961e-06
8.32583e-06
7.60922e-06
6.91984e-06
6.25773e-06
5.62281e-06
5.01476e-06
4.43315e-06
3.87752e-06
3.34741e-06
2.84262e-06
2.36245e-06
1.90649e-06
1.47478e-06
1.06592e-06
6.77859e-07
3.0916e-07
0
0
0
0
0
0
0
0
0
0
0
0
0
0
0
0
0
0
0
0
0
0
0
0
0
0
0
0
0
0
0
0
0
0
0
0
0
0
0
0
0
0
0
0
0
0
0
0
0
0
0
0
0
0
0
9.63175e-07
2.57102e-06
4.46913e-06
6.57852e-06
8.78615e-06
1.09806e-05
1.30615e-05
1.49419e-05
1.65536e-05
1.78525e-05
1.88212e-05
1.94668e-05
1.9815e-05
1.99007e-05
1.9761e-05
1.94315e-05
1.8947e-05
1.83438e-05
1.76586e-05
1.69245e-05
1.61641e-05
1.53891e-05
1.4604e-05
1.38135e-05
1.30252e-05
1.22481e-05
1.14894e-05
1.07529e-05
1.004e-05
9.35088e-06
8.68581e-06
8.04514e-06
7.4292e-06
6.83817e-06
6.27203e-06
5.73056e-06
5.21349e-06
4.72035e-06
4.25067e-06
3.80396e-06
3.37982e-06
2.97794e-06
2.59752e-06
2.23778e-06
1.89844e-06
1.57913e-06
1.2785e-06
9.94702e-07
7.26362e-07
4.72517e-07
2.32618e-07
6.35948e-09
0
0
0
0
0
0
0
0
0
0
0
0
0
0
0
0
0
0
0
0
0
0
0
0
0
0
0
0
0
0
0
0
0
0
0
0
0
0
0
0
0
0
0
0
0
0
0
5.06193e-07
1.75133e-06
3.24082e-06
4.96041e-06
6.84205e-06
8.79755e-06
1.07428e-05
1.26016e-05
1.43052e-05
1.57955e-05
1.70311e-05
1.79906e-05
1.86733e-05
1.90948e-05
1.92795e-05
1.92556e-05
1.90516e-05
1.86966e-05
1.82225e-05
1.76625e-05
1.70471e-05
1.63984e-05
1.57278e-05
1.50405e-05
1.43413e-05
1.36376e-05
1.29388e-05
1.22525e-05
1.15834e-05
1.09337e-05
1.0304e-05
9.69505e-06
9.10751e-06
8.54198e-06
7.99891e-06
7.47851e-06
6.98082e-06
6.50575e-06
6.05301e-06
5.6223e-06
5.21323e-06
4.82529e-06
4.45793e-06
4.11058e-06
3.78277e-06
3.47409e-06
3.18401e-06
2.91172e-06
2.65627e-06
2.41687e-06
2.19269e-06
1.98323e-06
1.78816e-06
1.6065e-06
1.43688e-06
1.27829e-06
1.13006e-06
9.91736e-07
8.62996e-07
7.43424e-07
6.32435e-07
5.2936e-07
4.33683e-07
3.45195e-07
2.63911e-07
1.89836e-07
1.22798e-07
6.25132e-08
8.74006e-09
0
0
0
0
0
0
0
0
0
0
0
0
0
0
0
0
0
0
0
0
0
0
0
0
0
0
0
0
0
0
2.89321e-07
1.21462e-06
2.38912e-06
3.76066e-06
5.31411e-06
6.99058e-06
8.72127e-06
1.04442e-05
1.21028e-05
1.36434e-05
1.50174e-05
1.61866e-05
1.71279e-05
1.7835e-05
1.83153e-05
1.85849e-05
1.86641e-05
1.85751e-05
1.83419e-05
1.79915e-05
1.75537e-05
1.70562e-05
1.65194e-05
1.59548e-05
1.53677e-05
1.4763e-05
1.41479e-05
1.35317e-05
1.29225e-05
1.23254e-05
1.17433e-05
1.11776e-05
1.06291e-05
1.00989e-05
9.58789e-06
9.09675e-06
8.62593e-06
8.17566e-06
7.74605e-06
7.33701e-06
6.94838e-06
6.57989e-06
6.23115e-06
5.90168e-06
5.591e-06
5.29865e-06
5.02403e-06
4.76641e-06
4.52513e-06
4.29966e-06
4.08942e-06
3.89367e-06
3.71168e-06
3.54282e-06
3.38628e-06
3.24115e-06
3.10657e-06
2.98157e-06
2.8652e-06
2.75673e-06
2.6556e-06
2.5612e-06
2.47254e-06
2.3882e-06
2.30665e-06
2.22692e-06
2.14882e-06
2.07286e-06
1.99965e-06
1.92949e-06
1.86217e-06
1.79745e-06
1.73524e-06
1.67534e-06
1.61699e-06
1.55861e-06
1.49807e-06
1.43362e-06
1.36542e-06
1.29647e-06
1.23134e-06
1.17226e-06
1.1159e-06
1.05233e-06
9.64593e-07
8.28605e-07
6.23581e-07
3.58462e-07
8.67532e-08
0
0
0
0
0
0
0
0
0
0
3.86124e-07
8.78035e-07
1.77876e-06
2.8783e-06
4.13419e-06
5.53351e-06
7.02523e-06
8.55586e-06
1.00812e-05
1.15603e-05
1.29519e-05
1.42159e-05
1.53178e-05
1.62342e-05
1.69547e-05
1.74809e-05
1.78221e-05
1.79921e-05
1.80076e-05
1.78874e-05
1.76546e-05
1.73347e-05
1.69525e-05
1.65269e-05
1.60686e-05
1.55831e-05
1.50751e-05
1.45515e-05
1.40215e-05
1.34931e-05
1.29722e-05
1.24619e-05
1.19641e-05
1.14801e-05
1.10113e-05
1.05587e-05
1.01233e-05
9.70571e-06
9.30644e-06
8.92573e-06
8.56368e-06
8.22024e-06
7.89528e-06
7.58853e-06
7.29962e-06
7.02814e-06
6.77362e-06
6.53549e-06
6.31305e-06
6.10565e-06
5.91272e-06
5.73361e-06
5.56754e-06
5.41363e-06
5.27099e-06
5.13886e-06
5.01656e-06
4.90327e-06
4.79793e-06
4.69938e-06
4.6066e-06
4.51887e-06
4.43545e-06
4.35516e-06
4.27602e-06
4.19575e-06
4.11259e-06
4.02595e-06
3.93632e-06
3.8446e-06
3.75141e-06
3.65686e-06
3.56087e-06
3.46347e-06
3.3646e-06
3.26357e-06
3.15871e-06
3.04749e-06
2.92752e-06
2.7982e-06
2.66193e-06
2.52338e-06
2.38624e-06
2.24962e-06
2.10521e-06
1.93573e-06
1.71926e-06
1.44604e-06
1.13793e-06
8.42451e-07
6.04501e-07
4.44177e-07
3.62667e-07
3.40389e-07
3.42216e-07
3.12296e-07
2.0296e-07
7.76376e-08
0
0
7.5623e-07
1.32977e-06
2.20082e-06
3.22252e-06
4.36607e-06
5.62233e-06
6.94739e-06
8.3e-06
9.64991e-06
1.09687e-05
1.22252e-05
1.33864e-05
1.44219e-05
1.53087e-05
1.6034e-05
1.65949e-05
1.69956e-05
1.72448e-05
1.7354e-05
1.7338e-05
1.72155e-05
1.70082e-05
1.67378e-05
1.64212e-05
1.60685e-05
1.56848e-05
1.52746e-05
1.48445e-05
1.44033e-05
1.39589e-05
1.35175e-05
1.30825e-05
1.26563e-05
1.22405e-05
1.18367e-05
1.14461e-05
1.107e-05
1.07092e-05
1.03643e-05
1.00359e-05
9.72399e-06
9.42885e-06
9.15038e-06
8.88843e-06
8.64272e-06
8.41287e-06
8.19847e-06
7.99898e-06
7.81377e-06
7.64217e-06
7.48351e-06
7.33707e-06
7.202e-06
7.07736e-06
6.96217e-06
6.85553e-06
6.75656e-06
6.66429e-06
6.57752e-06
6.49493e-06
6.41532e-06
6.33773e-06
6.26118e-06
6.1843e-06
6.10504e-06
6.021e-06
5.93017e-06
5.83155e-06
5.72514e-06
5.61143e-06
5.49086e-06
5.36366e-06
5.23001e-06
5.09014e-06
4.94418e-06
4.79179e-06
4.63176e-06
4.46211e-06
4.28093e-06
4.08783e-06
3.88503e-06
3.67693e-06
3.46731e-06
3.25556e-06
3.0337e-06
2.78684e-06
2.50128e-06
2.17882e-06
1.84469e-06
1.53449e-06
1.27601e-06
1.07999e-06
9.52161e-07
8.73889e-07
8.13494e-07
6.97088e-07
5.28977e-07
3.28395e-07
1.38171e-07
1.98521e-07
9.8646e-07
1.64082e-06
2.47947e-06
3.42273e-06
4.45857e-06
5.58263e-06
6.75767e-06
7.95236e-06
9.14734e-06
1.03239e-05
1.14589e-05
1.25255e-05
1.34967e-05
1.43508e-05
1.50739e-05
1.56599e-05
1.61093e-05
1.64266e-05
1.66192e-05
1.66981e-05
1.66781e-05
1.65773e-05
1.64141e-05
1.62034e-05
1.59543e-05
1.56714e-05
1.53592e-05
1.50236e-05
1.46729e-05
1.43148e-05
1.39555e-05
1.35988e-05
1.32473e-05
1.29028e-05
1.25672e-05
1.2242e-05
1.19285e-05
1.16277e-05
1.13405e-05
1.10673e-05
1.08087e-05
1.05649e-05
1.03358e-05
1.01214e-05
9.92152e-06
9.73586e-06
9.56399e-06
9.40539e-06
9.25943e-06
9.12544e-06
9.00269e-06
8.89039e-06
8.78763e-06
8.69337e-06
8.60656e-06
8.52611e-06
8.45094e-06
8.37985e-06
8.31146e-06
8.24428e-06
8.17689e-06
8.10798e-06
8.0363e-06
7.96027e-06
7.87787e-06
7.7868e-06
7.68506e-06
7.57138e-06
7.44531e-06
7.30688e-06
7.15626e-06
6.99365e-06
6.8193e-06
6.63359e-06
6.43686e-06
6.22917e-06
6.01007e-06
5.77874e-06
5.5346e-06
5.27834e-06
5.01271e-06
4.74181e-06
4.46868e-06
4.19197e-06
3.90418e-06
3.59439e-06
3.25662e-06
2.89881e-06
2.54334e-06
2.21379e-06
1.92707e-06
1.69134e-06
1.51834e-06
1.38697e-06
1.26698e-06
1.07067e-06
8.53707e-07
5.90672e-07
5.13428e-07
6.47365e-07
1.07945e-06
1.81304e-06
2.61689e-06
3.48148e-06
4.41431e-06
5.41644e-06
6.4568e-06
7.512e-06
8.57097e-06
9.62233e-06
1.06491e-05
1.16292e-05
1.25394e-05
1.33592e-05
1.40745e-05
1.46777e-05
1.51662e-05
1.55415e-05
1.58077e-05
1.59723e-05
1.60466e-05
1.60453e-05
1.59839e-05
1.5875e-05
1.57264e-05
1.55426e-05
1.53273e-05
1.50862e-05
1.48267e-05
1.45563e-05
1.4281e-05
1.40048e-05
1.37304e-05
1.34599e-05
1.31953e-05
1.29383e-05
1.26903e-05
1.24524e-05
1.22258e-05
1.20109e-05
1.18085e-05
1.16187e-05
1.14417e-05
1.12775e-05
1.11261e-05
1.0987e-05
1.086e-05
1.07445e-05
1.06399e-05
1.05455e-05
1.04604e-05
1.03839e-05
1.03148e-05
1.02522e-05
1.01947e-05
1.01411e-05
1.00902e-05
1.00405e-05
9.99048e-06
9.93845e-06
9.88273e-06
9.82172e-06
9.75384e-06
9.67737e-06
9.59025e-06
9.49028e-06
9.37543e-06
9.24428e-06
9.09606e-06
8.9305e-06
8.74763e-06
8.54765e-06
8.33095e-06
8.0981e-06
7.84975e-06
7.58656e-06
7.30899e-06
7.01753e-06
6.71301e-06
6.39726e-06
6.07344e-06
5.74529e-06
5.41484e-06
5.08005e-06
4.73443e-06
4.37081e-06
3.98858e-06
3.59816e-06
3.21796e-06
2.86286e-06
2.54386e-06
2.26882e-06
2.05342e-06
1.8711e-06
1.69409e-06
1.42665e-06
1.17251e-06
8.62145e-07
9.03598e-07
1.15294e-06
1.03558e-06
1.84604e-06
2.61284e-06
3.39904e-06
4.23409e-06
5.12464e-06
6.04508e-06
6.97822e-06
7.91897e-06
8.86115e-06
9.79227e-06
1.06944e-05
1.15471e-05
1.23322e-05
1.30359e-05
1.36496e-05
1.41691e-05
1.45933e-05
1.49236e-05
1.51646e-05
1.53248e-05
1.54157e-05
1.54499e-05
1.54377e-05
1.53859e-05
1.52982e-05
1.51779e-05
1.50302e-05
1.48617e-05
1.46795e-05
1.44893e-05
1.4295e-05
1.40995e-05
1.39051e-05
1.37137e-05
1.35272e-05
1.33472e-05
1.31749e-05
1.30114e-05
1.28575e-05
1.27138e-05
1.25807e-05
1.24585e-05
1.23471e-05
1.22466e-05
1.21566e-05
1.20769e-05
1.20067e-05
1.19456e-05
1.18928e-05
1.18474e-05
1.18084e-05
1.17747e-05
1.17451e-05
1.17182e-05
1.16927e-05
1.16669e-05
1.16394e-05
1.16083e-05
1.15717e-05
1.15276e-05
1.14743e-05
1.14098e-05
1.13323e-05
1.12396e-05
1.11296e-05
1.10003e-05
1.08501e-05
1.06781e-05
1.04838e-05
1.02673e-05
1.00288e-05
9.76897e-06
9.48868e-06
9.18901e-06
8.87125e-06
8.53684e-06
8.1874e-06
7.82501e-06
7.45244e-06
7.07316e-06
6.6905e-06
6.30575e-06
5.91658e-06
5.51783e-06
5.10556e-06
4.68278e-06
4.26088e-06
3.85476e-06
3.47322e-06
3.12357e-06
2.8128e-06
2.55779e-06
2.32577e-06
2.09476e-06
1.7655e-06
1.48478e-06
1.14124e-06
1.30477e-06
1.70715e-06
8.59258e-07
1.74219e-06
2.46896e-06
3.17701e-06
3.91974e-06
4.70909e-06
5.52388e-06
6.35137e-06
7.19036e-06
8.03806e-06
8.88528e-06
9.71732e-06
1.05169e-05
1.12678e-05
1.19572e-05
1.25764e-05
1.31199e-05
1.35848e-05
1.39704e-05
1.42792e-05
1.45168e-05
1.46921e-05
1.48151e-05
1.4894e-05
1.49342e-05
1.49389e-05
1.49108e-05
1.48545e-05
1.47759e-05
1.46814e-05
1.45763e-05
1.44646e-05
1.43491e-05
1.4232e-05
1.41155e-05
1.40013e-05
1.38912e-05
1.37865e-05
1.36883e-05
1.35976e-05
1.35149e-05
1.34409e-05
1.33756e-05
1.33193e-05
1.3272e-05
1.32332e-05
1.32028e-05
1.31801e-05
1.31644e-05
1.31551e-05
1.31511e-05
1.31513e-05
1.31546e-05
1.31595e-05
1.31645e-05
1.31681e-05
1.31686e-05
1.31641e-05
1.31526e-05
1.31319e-05
1.31e-05
1.30546e-05
1.29937e-05
1.29152e-05
1.28169e-05
1.26967e-05
1.25525e-05
1.23827e-05
1.21863e-05
1.19629e-05
1.17125e-05
1.14356e-05
1.1133e-05
1.08061e-05
1.04564e-05
1.00858e-05
9.69675e-06
9.29178e-06
8.874e-06
8.44694e-06
8.01432e-06
7.57918e-06
7.1424e-06
6.70186e-06
6.2539e-06
5.79725e-06
5.33734e-06
4.88556e-06
4.4538e-06
4.04649e-06
3.66845e-06
3.325e-06
3.03217e-06
2.75179e-06
2.47097e-06
2.08958e-06
1.79181e-06
1.42766e-06
1.71653e-06
2.30302e-06
5.49629e-07
1.49989e-06
2.18417e-06
2.81538e-06
3.47226e-06
4.17129e-06
4.89442e-06
5.63164e-06
6.38394e-06
7.15058e-06
7.92476e-06
8.69466e-06
9.44579e-06
1.01641e-05
1.08379e-05
1.14587e-05
1.20203e-05
1.25187e-05
1.29516e-05
1.33196e-05
1.36263e-05
1.38781e-05
1.40827e-05
1.42464e-05
1.43733e-05
1.44658e-05
1.45262e-05
1.45584e-05
1.45675e-05
1.45594e-05
1.45388e-05
1.45095e-05
1.44742e-05
1.44351e-05
1.43943e-05
1.43537e-05
1.4315e-05
1.42795e-05
1.42485e-05
1.42229e-05
1.42033e-05
1.41904e-05
1.41844e-05
1.41854e-05
1.41935e-05
1.42083e-05
1.42295e-05
1.42566e-05
1.42887e-05
1.43251e-05
1.43647e-05
1.44063e-05
1.44485e-05
1.44898e-05
1.45287e-05
1.45632e-05
1.45915e-05
1.46115e-05
1.46209e-05
1.46174e-05
1.45986e-05
1.4562e-05
1.45055e-05
1.44266e-05
1.43232e-05
1.4193e-05
1.40342e-05
1.3845e-05
1.36244e-05
1.33721e-05
1.30882e-05
1.27734e-05
1.24291e-05
1.20568e-05
1.16587e-05
1.12373e-05
1.07958e-05
1.03376e-05
9.86681e-06
9.3874e-06
8.90336e-06
8.41762e-06
7.93096e-06
7.44181e-06
6.94801e-06
6.4504e-06
5.9558e-06
5.47502e-06
5.01744e-06
4.58463e-06
4.17977e-06
3.8057e-06
3.47646e-06
3.14997e-06
2.82498e-06
2.40175e-06
2.0963e-06
1.72368e-06
2.14527e-06
2.93326e-06
1.12564e-07
1.12375e-06
1.76303e-06
2.31885e-06
2.89609e-06
3.51496e-06
4.15917e-06
4.81992e-06
5.49899e-06
6.19668e-06
6.90799e-06
7.62348e-06
8.3312e-06
9.01914e-06
9.67699e-06
1.02966e-05
1.08717e-05
1.13973e-05
1.18701e-05
1.22892e-05
1.26568e-05
1.29773e-05
1.32561e-05
1.34978e-05
1.37053e-05
1.38805e-05
1.40249e-05
1.41419e-05
1.42358e-05
1.43117e-05
1.43739e-05
1.44259e-05
1.44701e-05
1.45088e-05
1.45439e-05
1.45773e-05
1.46106e-05
1.46452e-05
1.46824e-05
1.4723e-05
1.47678e-05
1.48173e-05
1.48718e-05
1.49316e-05
1.49965e-05
1.50664e-05
1.51407e-05
1.52189e-05
1.53003e-05
1.53838e-05
1.54684e-05
1.55528e-05
1.56354e-05
1.57146e-05
1.57886e-05
1.58555e-05
1.59129e-05
1.59587e-05
1.59904e-05
1.60054e-05
1.6001e-05
1.59746e-05
1.59238e-05
1.5846e-05
1.57388e-05
1.56002e-05
1.5428e-05
1.52208e-05
1.49775e-05
1.46979e-05
1.43823e-05
1.40317e-05
1.36478e-05
1.32326e-05
1.27889e-05
1.23197e-05
1.18289e-05
1.13209e-05
1.08001e-05
1.02712e-05
9.73836e-06
9.20449e-06
8.67059e-06
8.13586e-06
7.59957e-06
7.06413e-06
6.53702e-06
6.02807e-06
5.54471e-06
5.08667e-06
4.65605e-06
4.25279e-06
3.88865e-06
3.51966e-06
3.15748e-06
2.70297e-06
2.39918e-06
2.03029e-06
2.5955e-06
3.58739e-06
0
6.0917e-07
1.20222e-06
1.68535e-06
2.18997e-06
2.73895e-06
3.31656e-06
3.91395e-06
4.53259e-06
5.17307e-06
5.83155e-06
6.50058e-06
7.17044e-06
7.83105e-06
8.47343e-06
9.0901e-06
9.67473e-06
1.0222e-05
1.07281e-05
1.11911e-05
1.16119e-05
1.19931e-05
1.23386e-05
1.26513e-05
1.29331e-05
1.31851e-05
1.34085e-05
1.36058e-05
1.37807e-05
1.39375e-05
1.40801e-05
1.42115e-05
1.4334e-05
1.44497e-05
1.45603e-05
1.46677e-05
1.47735e-05
1.48789e-05
1.49852e-05
1.50934e-05
1.5204e-05
1.53178e-05
1.54349e-05
1.55555e-05
1.56796e-05
1.58068e-05
1.59368e-05
1.60688e-05
1.6202e-05
1.63353e-05
1.64676e-05
1.65974e-05
1.6723e-05
1.68427e-05
1.69544e-05
1.7056e-05
1.7145e-05
1.72189e-05
1.7275e-05
1.73106e-05
1.73226e-05
1.73083e-05
1.72649e-05
1.71898e-05
1.70805e-05
1.69348e-05
1.67508e-05
1.65269e-05
1.62622e-05
1.59567e-05
1.56109e-05
1.52262e-05
1.48046e-05
1.43486e-05
1.38614e-05
1.33468e-05
1.28094e-05
1.22539e-05
1.16855e-05
1.11093e-05
1.05296e-05
9.94957e-06
9.37056e-06
8.79263e-06
8.21635e-06
7.64521e-06
7.08679e-06
6.5498e-06
6.04013e-06
5.55653e-06
5.1003e-06
4.66855e-06
4.27119e-06
3.86421e-06
3.47241e-06
2.99683e-06
2.70397e-06
2.35087e-06
3.07195e-06
4.24575e-06
0
0
5.13475e-07
9.25208e-07
1.36294e-06
1.85102e-06
2.37289e-06
2.91844e-06
3.48791e-06
4.08148e-06
4.69608e-06
5.32591e-06
5.96317e-06
6.59954e-06
7.22731e-06
7.83972e-06
8.43076e-06
8.99507e-06
9.52844e-06
1.00285e-05
1.04949e-05
1.09294e-05
1.13339e-05
1.17103e-05
1.20595e-05
1.2382e-05
1.26785e-05
1.29509e-05
1.32021e-05
1.34358e-05
1.36552e-05
1.38629e-05
1.40611e-05
1.42516e-05
1.44359e-05
1.46158e-05
1.47927e-05
1.49679e-05
1.51426e-05
1.53175e-05
1.54934e-05
1.56708e-05
1.585e-05
1.60311e-05
1.62141e-05
1.63985e-05
1.65839e-05
1.67696e-05
1.69546e-05
1.7138e-05
1.73182e-05
1.74939e-05
1.76631e-05
1.7824e-05
1.79744e-05
1.81118e-05
1.82337e-05
1.83374e-05
1.84197e-05
1.84778e-05
1.85086e-05
1.85088e-05
1.84756e-05
1.84061e-05
1.82979e-05
1.81484e-05
1.7956e-05
1.7719e-05
1.74368e-05
1.71093e-05
1.67375e-05
1.63229e-05
1.5868e-05
1.53756e-05
1.48497e-05
1.42945e-05
1.3715e-05
1.31166e-05
1.2505e-05
1.18855e-05
1.12628e-05
1.06401e-05
1.00196e-05
9.402e-06
8.78908e-06
8.18502e-06
7.59718e-06
7.03305e-06
6.49745e-06
5.98857e-06
5.50719e-06
5.04798e-06
4.61992e-06
4.18042e-06
3.76666e-06
3.27953e-06
3.00659e-06
2.68061e-06
3.56481e-06
4.88235e-06
0
0
0
2.02453e-08
3.99338e-07
8.37669e-07
1.31665e-06
1.82368e-06
2.35667e-06
2.9147e-06
3.49512e-06
4.09362e-06
4.7042e-06
5.3202e-06
5.93517e-06
6.54314e-06
7.13854e-06
7.71622e-06
8.27192e-06
8.80294e-06
9.30843e-06
9.78889e-06
1.02453e-05
1.06783e-05
1.1088e-05
1.14745e-05
1.18382e-05
1.21803e-05
1.25031e-05
1.28094e-05
1.3102e-05
1.33831e-05
1.36545e-05
1.3918e-05
1.41749e-05
1.44267e-05
1.46747e-05
1.49201e-05
1.51639e-05
1.54069e-05
1.56498e-05
1.5893e-05
1.61368e-05
1.63812e-05
1.6626e-05
1.68709e-05
1.71152e-05
1.73582e-05
1.75989e-05
1.7836e-05
1.8068e-05
1.82932e-05
1.85098e-05
1.87156e-05
1.89081e-05
1.90848e-05
1.92428e-05
1.93792e-05
1.94907e-05
1.95741e-05
1.96261e-05
1.96433e-05
1.96225e-05
1.95607e-05
1.94553e-05
1.9304e-05
1.91048e-05
1.88564e-05
1.85582e-05
1.82103e-05
1.78139e-05
1.73711e-05
1.68845e-05
1.63576e-05
1.57947e-05
1.52008e-05
1.45812e-05
1.39418e-05
1.32888e-05
1.26276e-05
1.19633e-05
1.12997e-05
1.06392e-05
9.9836e-06
9.3355e-06
8.69948e-06
8.08245e-06
7.49082e-06
6.92858e-06
6.39367e-06
5.88654e-06
5.40013e-06
4.94338e-06
4.47601e-06
4.04621e-06
3.55497e-06
3.30903e-06
3.01909e-06
4.06096e-06
5.47828e-06
0
0
0
0
0
0
1.75564e-07
6.52406e-07
1.15711e-06
1.68737e-06
2.24059e-06
2.81353e-06
3.40165e-06
3.9998e-06
4.60274e-06
5.20535e-06
5.80267e-06
6.38988e-06
6.96288e-06
7.51887e-06
8.05653e-06
8.57564e-06
9.07624e-06
9.55811e-06
1.00208e-05
1.04639e-05
1.08875e-05
1.12923e-05
1.16801e-05
1.20528e-05
1.24127e-05
1.27615e-05
1.31009e-05
1.34322e-05
1.37567e-05
1.40757e-05
1.43902e-05
1.47014e-05
1.501e-05
1.53168e-05
1.56224e-05
1.59272e-05
1.62314e-05
1.6535e-05
1.68377e-05
1.71392e-05
1.74388e-05
1.77357e-05
1.80288e-05
1.83168e-05
1.85981e-05
1.8871e-05
1.91334e-05
1.93831e-05
1.96173e-05
1.98334e-05
2.00284e-05
2.0199e-05
2.03418e-05
2.04532e-05
2.05298e-05
2.05679e-05
2.05641e-05
2.05153e-05
2.04186e-05
2.02716e-05
2.00723e-05
1.98195e-05
1.95125e-05
1.91518e-05
1.87387e-05
1.82755e-05
1.77652e-05
1.72118e-05
1.662e-05
1.59951e-05
1.5343e-05
1.467e-05
1.39824e-05
1.32862e-05
1.25866e-05
1.18878e-05
1.11929e-05
1.05045e-05
9.8258e-06
9.16163e-06
8.51835e-06
7.90141e-06
7.31421e-06
6.75457e-06
6.22292e-06
5.71115e-06
5.22879e-06
4.73834e-06
4.29747e-06
3.80805e-06
3.59397e-06
3.34636e-06
4.53177e-06
6.02482e-06
0
0
0
0
0
0
0
0
0
3.70306e-07
9.06319e-07
1.46234e-06
2.03529e-06
2.62125e-06
3.21598e-06
3.81511e-06
4.41443e-06
5.00964e-06
5.59708e-06
6.17407e-06
6.73908e-06
7.29139e-06
7.83036e-06
8.35516e-06
8.8649e-06
9.35892e-06
9.83703e-06
1.02997e-05
1.07481e-05
1.11836e-05
1.16077e-05
1.20219e-05
1.24275e-05
1.28257e-05
1.32177e-05
1.36044e-05
1.39868e-05
1.43658e-05
1.4742e-05
1.51161e-05
1.54884e-05
1.58594e-05
1.6229e-05
1.65973e-05
1.69637e-05
1.73279e-05
1.7689e-05
1.80461e-05
1.83979e-05
1.8743e-05
1.90798e-05
1.94061e-05
1.97199e-05
2.00185e-05
2.02993e-05
2.05593e-05
2.07951e-05
2.10034e-05
2.11805e-05
2.13226e-05
2.1426e-05
2.14868e-05
2.15013e-05
2.14664e-05
2.1379e-05
2.12365e-05
2.10372e-05
2.07797e-05
2.04636e-05
2.00895e-05
1.96591e-05
1.91748e-05
1.86402e-05
1.80597e-05
1.74384e-05
1.6782e-05
1.60969e-05
1.53898e-05
1.46673e-05
1.39357e-05
1.32005e-05
1.24664e-05
1.17369e-05
1.10155e-05
1.03058e-05
9.61282e-06
8.9422e-06
8.29863e-06
7.68503e-06
7.09925e-06
6.5418e-06
6.00407e-06
5.49645e-06
4.9843e-06
4.53335e-06
4.04786e-06
3.86324e-06
3.67079e-06
4.95081e-06
6.59583e-06
0
0
0
0
0
0
0
0
0
0
0
8.44179e-08
6.4205e-07
1.21482e-06
1.79951e-06
2.39249e-06
2.99008e-06
3.58841e-06
4.18418e-06