/*--------------------------------*- C++ -*----------------------------------*\
  =========                 |
  \\      /  F ield         | OpenFOAM: The Open Source CFD Toolbox
   \\    /   O peration     | Website:  https://openfoam.org
    \\  /    A nd           | Version:  10
     \\/     M anipulation  |
\*---------------------------------------------------------------------------*/
FoamFile
{
    format      ascii;
    class       volScalarField;
    location    "0.01";
    object      p;
}
// * * * * * * * * * * * * * * * * * * * * * * * * * * * * * * * * * * * * * //

dimensions      [0 2 -2 0 0 0 0];

internalField   nonuniform List<scalar> 
6820
(
-7.97271
-8.27976
-8.33965
-8.37562
-8.43363
-8.49066
-8.54706
-8.607
-8.67025
-8.73554
-8.80159
-8.86692
-8.93052
-8.99298
-9.0588
-9.13425
-9.21956
-9.31391
-9.41798
-9.53248
-9.65828
-9.79648
-9.94849
-10.1161
-10.3016
-10.5081
-10.7397
-11.0018
-11.3025
-11.6527
-12.0774
-12.5987
-13.3628
-8.17127
-8.30095
-8.35051
-8.38541
-8.43635
-8.4886
-8.54114
-8.5971
-8.6563
-8.71774
-8.78069
-8.84448
-8.90905
-8.9765
-9.04924
-9.12814
-9.21428
-9.30868
-9.41242
-9.52632
-9.6513
-9.7885
-9.93935
-10.1057
-10.2897
-10.4944
-10.7235
-10.9821
-11.2762
-11.6164
-12.0091
-12.483
-12.9723
-8.17011
-8.26048
-8.33197
-8.3778
-8.43061
-8.48509
-8.53935
-8.59606
-8.65551
-8.71694
-8.77992
-8.84392
-8.90898
-8.97608
-9.04623
-9.12335
-9.2084
-9.30201
-9.40473
-9.51743
-9.64104
-9.77669
-9.92577
-10.09
-10.2714
-10.4727
-10.697
-10.9486
-11.2319
-11.5539
-11.916
-12.3297
-12.7456
-8.22454
-8.29888
-8.35924
-8.39796
-8.4434
-8.49276
-8.54298
-8.59585
-8.65171
-8.70978
-8.76982
-8.83133
-8.8944
-8.96179
-9.03374
-9.1118
-9.19704
-9.29019
-9.39198
-9.50332
-9.62516
-9.75859
-9.90496
-10.0659
-10.2432
-10.4394
-10.6569
-10.8993
-11.1694
-11.4716
-11.8033
-12.1711
-12.5299
-8.25121
-8.29449
-8.3459
-8.38715
-8.43331
-8.48326
-8.53424
-8.58746
-8.64341
-8.70143
-8.76176
-8.82376
-8.88848
-8.9551
-9.02658
-9.10347
-9.18716
-9.27858
-9.37843
-9.48755
-9.60682
-9.73729
-9.88014
-10.0368
-10.209
-10.3986
-10.6077
-10.8388
-11.0936
-11.3744
-11.6781
-12.0064
-12.331
-8.27699
-8.31207
-8.36134
-8.40224
-8.44492
-8.49119
-8.53905
-8.58916
-8.64207
-8.69699
-8.7547
-8.8138
-8.87594
-8.94122
-9.01152
-9.08753
-9.17017
-9.26017
-9.35819
-9.46498
-9.58138
-9.70834
-9.84696
-9.9985
-10.1644
-10.3462
-10.5455
-10.7641
-11.0027
-11.2625
-11.5404
-11.8362
-12.1332
-8.29692
-8.32097
-8.36101
-8.39811
-8.43798
-8.48232
-8.52906
-8.57818
-8.63022
-8.68401
-8.74116
-8.8007
-8.8627
-8.92803
-8.99786
-9.07286
-9.15389
-9.24174
-9.33714
-9.44081
-9.55354
-9.67619
-9.8097
-9.95515
-10.1137
-10.2865
-10.4748
-10.6796
-10.9013
-11.14
-11.3933
-11.6602
-11.9317
-8.31313
-8.33172
-8.36782
-8.40442
-8.44314
-8.48564
-8.53052
-8.5776
-8.62782
-8.67943
-8.7332
-8.79028
-8.85005
-8.91321
-8.98077
-9.05349
-9.13212
-9.21732
-9.3097
-9.40986
-9.51847
-9.63626
-9.76404
-9.90266
-10.053
-10.2161
-10.3925
-10.583
-10.7874
-11.0056
-11.2355
-11.476
-11.7223
-8.32609
-8.34041
-8.37108
-8.40418
-8.43963
-8.4791
-8.5215
-8.56621
-8.61388
-8.665
-8.71768
-8.77345
-8.83216
-8.89432
-8.96068
-9.03185
-9.10843
-9.19099
-9.2801
-9.37633
-9.48027
-9.59256
-9.71387
-9.84487
-9.98625
-10.1386
-10.3024
-10.4779
-10.6647
-10.8624
-11.0694
-11.2846
-11.505
-8.33624
-8.34775
-8.37464
-8.40578
-8.43975
-8.47765
-8.51863
-8.56208
-8.6075
-8.65616
-8.70682
-8.76027
-8.81666
-8.87637
-8.94003
-9.00822
-9.0815
-9.1604
-9.2454
-9.33698
-9.4356
-9.54177
-9.65598
-9.77874
-9.91052
-10.0517
-10.2024
-10.3626
-10.5319
-10.7095
-10.8942
-11.0847
-11.2792
-8.34392
-8.35341
-8.37684
-8.40525
-8.43661
-8.47173
-8.50993
-8.55098
-8.59433
-8.64065
-8.68934
-8.74078
-8.79521
-8.85294
-8.91445
-8.9802
-9.05061
-9.1261
-9.20705
-9.29385
-9.38688
-9.48653
-9.59317
-9.70715
-9.82877
-9.95818
-10.0954
-10.24
-10.3917
-10.5494
-10.712
-10.8784
-11.0468
-8.34935
-8.35736
-8.37798
-8.4041
-8.43353
-8.46674
-8.50313
-8.54226
-8.58377
-8.62793
-8.67447
-8.72358
-8.77548
-8.83046
-8.88889
-8.95118
-9.0177
-9.08879
-9.1648
-9.24602
-9.33273
-9.42522
-9.52371
-9.62842
-9.73945
-9.85679
-9.98025
-10.1094
-10.2436
-10.3819
-10.523
-10.6659
-10.8088
-8.35269
-8.35959
-8.37781
-8.40162
-8.42884
-8.45967
-8.49362
-8.53026
-8.56933
-8.61093
-8.65495
-8.7015
-8.75076
-8.80296
-8.85839
-8.91736
-8.98014
-9.04698
-9.1181
-9.19371
-9.274
-9.35912
-9.44921
-9.54436
-9.64453
-9.74959
-9.85922
-9.97287
-10.0898
-10.209
-10.3292
-10.4494
-10.5677
-8.35407
-8.36009
-8.37627
-8.39796
-8.42314
-8.45187
-8.48372
-8.51821
-8.5551
-8.59438
-8.63596
-8.6799
-8.72631
-8.77539
-8.82733
-8.88239
-8.94076
-9.00263
-9.06817
-9.13751
-9.21076
-9.28799
-9.36924
-9.45447
-9.54354
-9.63621
-9.73204
-9.8304
-9.93045
-10.0312
-10.1314
-10.2299
-10.3247
-8.35356
-8.35887
-8.37328
-8.39297
-8.41611
-8.44263
-8.47214
-8.50418
-8.53852
-8.57511
-8.61387
-8.65485
-8.69812
-8.74382
-8.7921
-8.84312
-8.89701
-8.95389
-9.01381
-9.07684
-9.143
-9.21226
-9.28457
-9.35982
-9.43778
-9.51811
-9.6003
-9.68368
-9.76736
-9.85034
-9.93133
-10.0093
-10.0822
-8.35125
-8.35595
-8.3688
-8.38662
-8.40779
-8.43219
-8.45944
-8.48913
-8.52101
-8.55499
-8.59099
-8.62899
-8.66903
-8.71118
-8.75554
-8.8022
-8.85123
-8.90267
-8.95654
-9.01282
-9.07148
-9.13243
-9.19556
-9.26066
-9.32747
-9.39556
-9.46438
-9.53321
-9.60114
-9.66719
-9.73009
-9.78884
-9.8415
-8.34719
-8.35136
-8.36281
-8.37886
-8.3981
-8.42037
-8.4453
-8.47251
-8.50174
-8.53289
-8.56585
-8.60059
-8.63711
-8.67546
-8.71566
-8.75776
-8.80176
-8.84765
-8.89537
-8.94486
-8.99601
-9.04866
-9.10264
-9.15771
-9.21352
-9.26964
-9.32548
-9.38031
-9.43322
-9.48327
-9.52924
-9.5702
-9.60433
-8.34143
-8.34512
-8.3553
-8.36968
-8.38703
-8.40719
-8.42982
-8.45455
-8.48113
-8.50942
-8.53932
-8.57075
-8.60368
-8.6381
-8.67399
-8.71134
-8.75011
-8.79021
-8.83157
-8.87404
-8.91748
-8.96171
-9.0065
-9.05157
-9.09657
-9.14101
-9.18432
-9.22575
-9.26446
-9.29952
-9.32981
-9.35448
-9.37186
-8.33401
-8.33727
-8.34627
-8.35906
-8.37457
-8.39264
-8.41294
-8.43512
-8.45895
-8.48426
-8.51094
-8.53888
-8.56802
-8.59831
-8.6297
-8.66214
-8.69552
-8.72974
-8.76466
-8.80011
-8.83589
-8.87178
-8.90753
-8.94285
-8.97735
-9.01055
-9.04189
-9.07065
-9.09603
-9.11716
-9.13304
-9.1429
-9.14527
-8.32499
-8.32785
-8.33574
-8.347
-8.36071
-8.3767
-8.39468
-8.4143
-8.43535
-8.45763
-8.48102
-8.5054
-8.53068
-8.55676
-8.58356
-8.61097
-8.63888
-8.66713
-8.69554
-8.72391
-8.75202
-8.77964
-8.80649
-8.83228
-8.85662
-8.87904
-8.899
-8.91584
-8.92879
-8.9371
-8.93984
-8.93638
-8.92541
-8.31441
-8.3169
-8.32374
-8.33353
-8.34548
-8.35941
-8.37506
-8.3921
-8.41031
-8.4295
-8.44952
-8.47024
-8.49153
-8.51329
-8.53539
-8.5577
-8.58006
-8.6023
-8.62421
-8.64556
-8.66613
-8.68566
-8.70388
-8.72048
-8.7351
-8.74729
-8.75655
-8.76226
-8.76374
-8.76031
-8.75117
-8.7358
-8.71308
-8.30236
-8.30448
-8.31033
-8.31869
-8.32891
-8.3408
-8.35413
-8.36857
-8.38392
-8.39998
-8.41659
-8.43359
-8.45085
-8.46823
-8.48559
-8.50276
-8.51956
-8.5358
-8.55126
-8.56569
-8.57886
-8.59051
-8.60037
-8.60815
-8.61351
-8.61605
-8.61529
-8.61068
-8.60164
-8.58755
-8.56775
-8.54182
-8.50883
-8.28888
-8.29066
-8.29555
-8.30254
-8.31105
-8.32094
-8.33195
-8.34381
-8.35628
-8.36919
-8.38236
-8.39562
-8.40881
-8.42179
-8.43438
-8.44641
-8.45769
-8.468
-8.4771
-8.48476
-8.49074
-8.49478
-8.49663
-8.49602
-8.49264
-8.48613
-8.47606
-8.46197
-8.44333
-8.41964
-8.39034
-8.3551
-8.31318
-8.27408
-8.27552
-8.27949
-8.28514
-8.292
-8.2999
-8.30861
-8.31788
-8.32748
-8.33722
-8.34692
-8.35641
-8.36553
-8.37409
-8.38193
-8.38886
-8.39467
-8.39913
-8.40203
-8.40311
-8.40215
-8.3989
-8.39313
-8.3846
-8.37303
-8.35811
-8.33947
-8.31671
-8.28939
-8.2571
-8.2194
-8.17604
-8.12642
-8.25804
-8.25916
-8.26224
-8.2666
-8.27184
-8.27779
-8.28425
-8.29097
-8.29773
-8.30435
-8.31063
-8.3164
-8.32148
-8.3257
-8.32886
-8.33078
-8.33125
-8.33003
-8.32691
-8.32165
-8.31403
-8.30383
-8.29084
-8.27486
-8.25565
-8.23294
-8.20642
-8.17578
-8.14066
-8.10072
-8.05561
-8.00518
-7.94898
-8.24087
-8.24168
-8.2439
-8.24701
-8.25067
-8.25471
-8.25893
-8.26311
-8.26703
-8.27052
-8.27337
-8.27542
-8.27648
-8.27638
-8.27492
-8.27192
-8.26717
-8.26044
-8.25152
-8.2402
-8.22626
-8.20951
-8.18978
-8.16688
-8.14062
-8.11079
-8.07714
-8.03941
-7.99733
-7.95064
-7.89909
-7.84259
-7.7808
-8.22271
-8.22322
-8.22463
-8.22654
-8.22869
-8.2309
-8.23299
-8.23474
-8.23595
-8.23643
-8.236
-8.23447
-8.23167
-8.22742
-8.22152
-8.21379
-8.20403
-8.19203
-8.17757
-8.16048
-8.14055
-8.11764
-8.09158
-8.06223
-8.02946
-7.99309
-7.95294
-7.90883
-7.86055
-7.80791
-7.75075
-7.68901
-7.6225
-8.20367
-8.20391
-8.20453
-8.20528
-8.20593
-8.20633
-8.20627
-8.20556
-8.20402
-8.20146
-8.19772
-8.1926
-8.18595
-8.17758
-8.16732
-8.15499
-8.1404
-8.12336
-8.10368
-8.08117
-8.05568
-8.02707
-7.99522
-7.96002
-7.92136
-7.87913
-7.83321
-7.78346
-7.72975
-7.67197
-7.61
-7.54386
-7.47343
-8.18394
-8.18393
-8.18383
-8.18354
-8.18287
-8.18164
-8.17967
-8.17676
-8.17275
-8.16744
-8.16067
-8.15227
-8.14206
-8.12987
-8.11555
-8.0989
-8.07976
-8.05797
-8.03334
-8.00573
-7.975
-7.94104
-7.90378
-7.86314
-7.81906
-7.77148
-7.72033
-7.66554
-7.60702
-7.54473
-7.47861
-7.40871
-7.33499
-8.16366
-8.16338
-8.16258
-8.16121
-8.15913
-8.15616
-8.15213
-8.14687
-8.14023
-8.13203
-8.12212
-8.11034
-8.09655
-8.08057
-8.06227
-8.04149
-8.01806
-7.99183
-7.96265
-7.9304
-7.89495
-7.85622
-7.81416
-7.76872
-7.71989
-7.66764
-7.61196
-7.55282
-7.49019
-7.42409
-7.35451
-7.28154
-7.2052
-8.14304
-8.14261
-8.14131
-8.13919
-8.13612
-8.1319
-8.12633
-8.11927
-8.11053
-8.09998
-8.08744
-8.07279
-8.05585
-8.03651
-8.0146
-7.99
-7.96256
-7.93216
-7.89868
-7.86201
-7.82209
-7.77885
-7.73228
-7.68237
-7.62915
-7.57263
-7.51284
-7.44981
-7.38356
-7.31414
-7.24159
-7.16599
-7.08743
-8.12218
-8.12145
-8.11944
-8.11625
-8.11178
-8.10584
-8.09829
-8.08898
-8.07777
-8.06453
-8.04912
-8.03141
-8.01128
-7.9886
-7.96325
-7.93512
-7.90407
-7.86999
-7.83279
-7.79236
-7.74864
-7.7016
-7.65122
-7.59755
-7.54062
-7.48051
-7.41727
-7.35099
-7.28173
-7.20957
-7.13462
-7.05697
-6.97678
-8.10148
-8.1009
-8.09897
-8.09567
-8.09085
-8.08425
-8.07573
-8.06514
-8.05235
-8.03723
-8.01968
-7.99956
-7.97678
-7.95121
-7.92275
-7.89131
-7.85679
-7.81911
-7.77821
-7.73404
-7.68657
-7.63581
-7.58178
-7.52455
-7.46419
-7.40079
-7.33447
-7.26531
-7.19344
-7.11893
-7.04193
-6.96252
-6.88089
-8.08051
-8.07929
-8.07637
-8.07178
-8.06544
-8.05715
-8.04675
-8.03411
-8.01912
-8.00167
-7.98165
-7.95898
-7.93356
-7.9053
-7.87414
-7.83998
-7.80275
-7.76236
-7.71874
-7.67182
-7.62158
-7.56801
-7.51115
-7.45109
-7.38794
-7.32184
-7.25294
-7.18139
-7.10734
-7.03093
-6.95233
-6.87166
-6.78914
-8.06084
-8.06103
-8.0597
-8.05619
-8.05034
-8.04209
-8.0313
-8.01787
-8.00176
-7.98288
-7.96116
-7.93652
-7.90887
-7.87816
-7.8443
-7.80724
-7.76693
-7.72336
-7.67652
-7.62641
-7.57307
-7.51653
-7.45687
-7.39417
-7.32856
-7.26016
-7.18915
-7.11568
-7.0399
-6.96198
-6.88206
-6.80026
-6.71681
-8.03876
-8.03672
-8.0337
-8.02883
-8.02171
-8.01218
-8
-7.98506
-7.96731
-7.94668
-7.92313
-7.89664
-7.86716
-7.83467
-7.79914
-7.76051
-7.71874
-7.67377
-7.62553
-7.57395
-7.519
-7.46068
-7.39907
-7.33429
-7.26653
-7.19602
-7.12299
-7.04769
-6.97032
-6.89108
-6.81017
-6.72773
-6.644
-8.02344
-8.02717
-8.02819
-8.02492
-8.01851
-8.00924
-7.99683
-7.98127
-7.96263
-7.94089
-7.91597
-7.88785
-7.85646
-7.82176
-7.7837
-7.74226
-7.69746
-7.64934
-7.59796
-7.54341
-7.48576
-7.42509
-7.3615
-7.29507
-7.22592
-7.1542
-7.08007
-7.00371
-6.92533
-6.84513
-6.76332
-6.68011
-6.59565
-7.98981
-7.98962
-7.99183
-7.98956
-7.98365
-7.97469
-7.96217
-7.94614
-7.92678
-7.90415
-7.8783
-7.84929
-7.81719
-7.78203
-7.74384
-7.70261
-7.65833
-7.6109
-7.56023
-7.50616
-7.44857
-7.38739
-7.32268
-7.25459
-7.18342
-7.10955
-7.03338
-6.9553
-6.87564
-6.79465
-6.71255
-6.62944
-6.54565
-7.99858
-8.00602
-8.00889
-8.00513
-7.99864
-7.98886
-7.97535
-7.95849
-7.93836
-7.91486
-7.88796
-7.85762
-7.82378
-7.78638
-7.74538
-7.70081
-7.65276
-7.60142
-7.54702
-7.48979
-7.42991
-7.36744
-7.30234
-7.23455
-7.16408
-7.091
-7.01541
-6.93749
-6.85751
-6.77576
-6.6926
-6.60821
-6.52312
-7.88246
-7.94661
-7.96208
-7.96068
-7.95893
-7.95204
-7.93932
-7.92241
-7.90178
-7.87752
-7.84985
-7.81897
-7.78504
-7.74821
-7.70858
-7.66617
-7.62085
-7.57236
-7.52031
-7.4643
-7.40406
-7.33957
-7.27111
-7.19921
-7.12457
-7.04788
-6.96965
-6.89024
-6.80987
-6.72863
-6.64646
-6.56341
-6.47925
-14.2861
-12.76
-12.3074
-14.3464
-18.8471
-24.2213
-28.5571
-30.4254
-29.4571
-26.3332
-22.1607
-17.905
-14.1407
-11.0536
-8.59839
-6.66251
-5.13858
-3.93674
-2.98577
-2.23121
-1.63151
-1.15468
-0.775765
-0.475114
-0.237198
-0.0497181
0.097041
0.210803
0.297821
0.363154
0.410877
0.444322
0.466228
0.47885
0.484052
0.48337
0.478076
0.46922
0.457665
0.444126
0.429182
0.41331
0.396891
0.380235
0.363588
0.347141
0.331044
0.315407
0.300313
0.285817
0.271957
0.258751
0.246208
0.234324
0.223085
0.212473
0.202465
0.193033
0.184148
0.175778
0.167893
0.16046
0.153446
0.146821
0.140555
0.134617
0.128981
0.123618
0.118504
0.113615
0.108929
0.104424
0.100081
0.0958816
0.0918092
0.087848
0.0839839
0.0802035
0.0764948
0.0728464
0.0692487
0.0656918
0.0621679
0.0586687
0.0551877
0.051718
0.0482543
0.0447909
0.0413234
0.0378471
0.0343584
0.0308535
0.0273284
0.0237821
0.0202069
0.0166106
0.0129686
0.0093244
0.0055822
0.00192955
-13.6749
-13.0991
-13.2202
-15.1738
-18.4271
-22.2213
-25.3319
-26.7776
-26.1206
-23.6891
-20.2926
-16.7186
-13.4598
-10.7035
-8.45063
-6.6352
-5.18115
-4.01832
-3.08768
-2.3421
-1.7445
-1.26564
-0.882296
-0.575899
-0.331605
-0.137549
0.0157567
0.13589
0.228957
0.299966
0.353009
0.391412
0.417916
0.434788
0.443908
0.446832
0.444848
0.439025
0.430249
0.419249
0.406625
0.392869
0.37838
0.363483
0.348437
0.333446
0.318673
0.30424
0.290239
0.276735
0.263775
0.251386
0.239582
0.228368
0.217736
0.207673
0.198161
0.189177
0.180697
0.172693
0.165137
0.158
0.151254
0.144869
0.138818
0.133074
0.127611
0.122404
0.117429
0.112665
0.108089
0.103683
0.0994284
0.0953075
0.0913049
0.0874056
0.0835963
0.0798644
0.0761986
0.0725882
0.0690238
0.0654964
0.0619983
0.0585218
0.0550607
0.0516083
0.0481599
0.0447099
0.0412543
0.0377883
0.0343086
0.0308116
0.0272935
0.0237533
0.0201836
0.0165922
0.0129549
0.00931476
0.00557624
0.00192862
-13.2861
-13.2102
-13.4639
-14.9079
-17.4018
-20.3561
-22.8027
-23.9126
-23.349
-21.3822
-18.6124
-15.6222
-12.8064
-10.3497
-8.28863
-6.59258
-5.21074
-4.09005
-3.18263
-2.4484
-1.85473
-1.3752
-0.9884
-0.676947
-0.42675
-0.226425
-0.0667963
0.059557
0.158638
0.235338
0.293714
0.337107
0.36826
0.389442
0.402546
0.409143
0.410539
0.407821
0.401891
0.393498
0.383258
0.37168
0.35918
0.346096
0.332702
0.319217
0.305814
0.292627
0.279758
0.267283
0.255257
0.243716
0.232681
0.222163
0.212162
0.20267
0.193675
0.185158
0.177099
0.169475
0.162262
0.155435
0.148966
0.142832
0.137006
0.131464
0.126182
0.121137
0.116308
0.111673
0.107213
0.10291
0.0987477
0.0947086
0.0907787
0.0869439
0.0831918
0.0795105
0.0758895
0.0723186
0.068789
0.0652923
0.0618211
0.0583684
0.0549281
0.0514941
0.0480617
0.0446257
0.0411822
0.0377269
0.0342566
0.0307679
0.0272571
0.0237233
0.0201595
0.0165732
0.0129407
0.00930476
0.00557001
0.00192796
-12.9758
-13.1703
-13.589
-14.8461
-16.822
-19.0175
-20.7646
-21.5105
-21.0161
-19.4265
-17.148
-14.6243
-12.1823
-9.99408
-8.1139
-6.53524
-5.22721
-4.15134
-3.26984
-2.54929
-1.96141
-1.48264
-1.09345
-0.777726
-0.522185
-0.315985
-0.150292
-0.0179111
0.0870469
0.169402
0.233121
0.281516
0.317343
0.342879
0.360019
0.370347
0.375183
0.375632
0.372611
0.366886
0.35909
0.349749
0.339293
0.328077
0.316387
0.304454
0.292466
0.280566
0.268869
0.257459
0.246401
0.235738
0.2255
0.215705
0.206359
0.19746
0.189001
0.18097
0.173349
0.166122
0.159266
0.15276
0.146581
0.140708
0.135116
0.129784
0.124691
0.119815
0.115137
0.110638
0.106299
0.102104
0.098037
0.0940833
0.0902293
0.0864619
0.0827695
0.0791411
0.0755668
0.0720372
0.068544
0.0650793
0.0616364
0.0582083
0.0547897
0.0513747
0.0479589
0.0445375
0.0411069
0.0376629
0.0342023
0.0307222
0.027219
0.0236919
0.0201342
0.0165532
0.0129258
0.00929422
0.00556346
0.00192724
-12.7278
-13.056
-13.5342
-14.5449
-16.0336
-17.6608
-18.957
-19.4934
-19.0585
-17.7425
-15.8466
-13.7083
-11.5889
-9.64157
-7.93022
-6.46536
-5.23154
-4.20244
-3.34916
-2.64442
-2.06413
-1.58755
-1.19709
-0.877924
-0.617652
-0.406015
-0.234565
-0.0963576
0.0143294
0.102231
0.171266
0.224681
0.265204
0.29512
0.316339
0.33045
0.338783
0.342456
0.342405
0.339408
0.334116
0.327068
0.318712
0.309415
0.299479
0.289148
0.278619
0.268049
0.257563
0.247255
0.237198
0.227445
0.218033
0.208988
0.200322
0.192039
0.184137
0.17661
0.169446
0.16263
0.156145
0.149974
0.144097
0.138495
0.133147
0.128035
0.123138
0.118438
0.113917
0.109559
0.105346
0.101263
0.0972964
0.0934318
0.0896568
0.0859596
0.0823294
0.0787561
0.0752305
0.0717438
0.0682885
0.0648572
0.0614436
0.0580414
0.0546454
0.0512504
0.047852
0.0444459
0.0410284
0.0375961
0.0341458
0.0306747
0.0271794
0.0236594
0.0201079
0.0165324
0.0129104
0.00928323
0.00555701
0.00192596
-12.493
-12.8692
-13.3591
-14.1981
-15.355
-16.5709
-17.4961
-17.8223
-17.401
-16.2904
-14.6985
-12.8751
-11.0292
-9.29543
-7.74023
-6.38459
-5.22449
-4.24349
-3.42034
-2.73336
-2.16239
-1.68944
-1.29885
-0.977118
-0.712781
-0.4962
-0.319351
-0.17557
-0.059319
0.0340111
0.108271
0.166676
0.211912
0.246237
0.271561
0.289493
0.30137
0.30832
0.311291
0.311077
0.308344
0.303645
0.297442
0.290116
0.281982
0.273297
0.264272
0.255074
0.245837
0.236667
0.227646
0.218834
0.210278
0.202009
0.194047
0.186403
0.17908
0.172076
0.165385
0.158996
0.152898
0.147074
0.141511
0.136191
0.131097
0.126212
0.12152
0.117003
0.112647
0.108435
0.104353
0.100387
0.0965246
0.0927527
0.0890601
0.0854361
0.0818707
0.0783548
0.0748799
0.0714381
0.0680223
0.0646259
0.0612428
0.0578675
0.0544951
0.0511207
0.0477404
0.0443501
0.0409466
0.0375265
0.0340869
0.0306251
0.0271381
0.0236253
0.0200805
0.0165107
0.0128944
0.00927167
0.00555061
0.00192386
-12.2601
-12.6409
-13.1076
-13.7913
-14.6669
-15.55
-16.1942
-16.3768
-15.9791
-15.0308
-13.6796
-12.1148
-10.5025
-8.95834
-7.54669
-6.29487
-5.20715
-4.27491
-3.4834
-2.81588
-2.25582
-1.7879
-1.39832
-1.07494
-0.807251
-0.586266
-0.404417
-0.255352
-0.133744
-0.0351202
0.0442737
0.107598
0.157516
0.196265
0.225729
0.247511
0.262968
0.27324
0.279283
0.281904
0.28178
0.279481
0.275481
0.270176
0.263892
0.256901
0.249422
0.241636
0.233688
0.225693
0.21774
0.209902
0.20223
0.194765
0.187532
0.18055
0.173826
0.167365
0.161165
0.15522
0.149522
0.14406
0.138822
0.133795
0.128965
0.124317
0.119837
0.115511
0.111325
0.107266
0.10332
0.0994759
0.0957216
0.0920461
0.0884392
0.0848913
0.0813934
0.0779372
0.0745151
0.0711199
0.0677453
0.064385
0.0610338
0.0576865
0.0543386
0.0509858
0.0476244
0.0442507
0.0408616
0.0374542
0.0340256
0.0305736
0.0270951
0.02359
0.0200521
0.0164882
0.0128778
0.00925959
0.00554436
0.00192103
-12.0197
-12.3786
-12.8002
-13.3535
-14.0163
-14.6553
-15.0894
-15.1549
-14.7642
-13.9361
-12.7758
-11.4234
-10.0099
-8.63264
-7.35193
-6.19795
-5.18058
-4.2972
-3.5384
-2.89178
-2.34411
-1.88254
-1.49511
-1.17102
-0.900717
-0.675904
-0.489496
-0.335476
-0.20875
-0.105004
-0.0205898
0.0475834
0.10213
0.145272
0.178883
0.204549
0.223623
0.23725
0.246405
0.251905
0.25444
0.25459
0.252841
0.249603
0.245215
0.239961
0.234071
0.227738
0.221116
0.21433
0.207481
0.200646
0.193888
0.187253
0.180775
0.174477
0.168374
0.162474
0.156783
0.151298
0.146015
0.140928
0.136028
0.131305
0.126748
0.122346
0.118087
0.113959
0.10995
0.10605
0.102246
0.0985281
0.0948864
0.0913112
0.0877934
0.0843246
0.0808969
0.0775028
0.0741356
0.070789
0.0674571
0.0641345
0.0608164
0.0574982
0.0541759
0.0508454
0.0475036
0.0441471
0.0407731
0.0373788
0.0339618
0.0305199
0.0270505
0.0235532
0.0200224
0.0164647
0.0128605
0.00924691
0.00553822
0.00191731
-11.7704
-12.094
-12.4604
-12.9013
-13.3935
-13.8401
-14.111
-14.0885
-13.7075
-12.9771
-11.971
-10.7943
-9.55003
-8.31976
-7.15798
-6.09555
-5.14592
-4.31095
-3.58555
-2.96099
-2.42701
-1.97305
-1.58888
-1.26501
-0.992852
-0.76482
-0.574328
-0.415717
-0.284145
-0.175477
-0.0861836
-0.0132577
0.0458631
0.0933603
0.131093
0.160645
0.18336
0.200382
0.212688
0.221105
0.226339
0.228981
0.229529
0.228404
0.225956
0.22248
0.218221
0.213379
0.208121
0.20258
0.196866
0.191067
0.185251
0.179473
0.173774
0.168183
0.162721
0.157404
0.152238
0.147229
0.142377
0.137678
0.133128
0.128721
0.124448
0.120301
0.116271
0.112348
0.108523
0.104787
0.10113
0.0975437
0.094019
0.0905479
0.0871227
0.083736
0.0803811
0.0770516
0.0737414
0.0704451
0.0671577
0.0638742
0.0605905
0.0573026
0.0540068
0.0506997
0.0473783
0.0440396
0.0406812
0.0373006
0.0338956
0.0304642
0.0270041
0.0235149
0.0199917
0.0164403
0.0128427
0.00923366
0.00553226
0.0019127
-11.5118
-11.7938
-12.1015
-12.4455
-12.8032
-13.1041
-13.2533
-13.1651
-12.7911
-12.1365
-11.2541
-10.2225
-9.12234
-8.02094
-6.96659
-5.98924
-5.1043
-4.31684
-3.62513
-3.02353
-2.50437
-2.05914
-1.67929
-1.35656
-1.08333
-0.852714
-0.658643
-0.495836
-0.359722
-0.246359
-0.152354
-0.0747934
-0.0111803
0.0406261
0.082457
0.115878
0.142234
0.162669
0.178157
0.189533
0.197506
0.202678
0.205561
0.206589
0.206123
0.204468
0.201878
0.198565
0.194706
0.190444
0.185898
0.181164
0.176319
0.171425
0.166529
0.161668
0.156869
0.152152
0.147531
0.143014
0.138606
0.134309
0.130122
0.126041
0.122062
0.118179
0.114387
0.110677
0.107043
0.103477
0.0999726
0.0965222
0.0931188
0.0897557
0.0864265
0.0831251
0.0798458
0.0765832
0.0733323
0.0700883
0.0668469
0.0636041
0.0603561
0.0570996
0.0538313
0.0505484
0.0472481
0.043928
0.0405858
0.0372194
0.0338268
0.0304064
0.026956
0.0234753
0.0199599
0.016415
0.0128243
0.00921978
0.00552644
0.00190711
-11.2463
-11.4846
-11.7346
-11.9955
-12.2462
-12.434
-12.49
-12.3525
-11.9862
-11.3938
-10.613
-9.70242
-8.72523
-7.73679
-6.77915
-5.88044
-5.05686
-4.3156
-3.65753
-3.0795
-2.57607
-2.14062
-1.76607
-1.44539
-1.17185
-0.939295
-0.742173
-0.575593
-0.435269
-0.317466
-0.218941
-0.136887
-0.0688808
-0.0128329
0.0330552
0.0703303
0.100322
0.124169
0.142853
0.157212
0.167957
0.175699
0.18096
0.184179
0.185731
0.185932
0.185048
0.183301
0.180876
0.177927
0.17458
0.170941
0.167094
0.163109
0.159041
0.154932
0.150817
0.146719
0.14266
0.138652
0.134704
0.130822
0.127009
0.123266
0.119591
0.115982
0.112435
0.108945
0.105509
0.10212
0.0987732
0.0954637
0.0921859
0.0889347
0.085705
0.082492
0.079291
0.0760977
0.0729081
0.0697183
0.0665248
0.063324
0.0601131
0.0568891
0.0536494
0.0503915
0.0471132
0.0438123
0.0404869
0.0371353
0.0337556
0.0303465
0.0269061
0.0234342
0.0199268
0.0163887
0.0128053
0.0092053
0.00552079
0.00190057
-10.976
-11.1712
-11.3669
-11.557
-11.7222
-11.823
-11.8093
-11.6362
-11.2783
-10.7368
-10.0391
-9.22951
-8.35732
-7.46772
-6.59685
-5.77044
-5.00467
-4.30799
-3.68316
-3.12906
-2.64211
-2.21732
-1.84899
-1.5312
-1.25813
-1.02428
-0.824652
-0.654743
-0.510565
-0.388602
-0.285774
-0.19939
-0.12711
-0.066905
-0.0170154
0.0240782
0.0576901
0.0849529
0.106841
0.124193
0.13773
0.148071
0.15574
0.161186
0.164794
0.16689
0.167748
0.1676
0.166641
0.165034
0.162917
0.160401
0.15758
0.15453
0.151313
0.147978
0.144566
0.141108
0.137627
0.134143
0.130669
0.127216
0.123791
0.120396
0.117035
0.113709
0.110415
0.107154
0.103921
0.100715
0.0975316
0.0943679
0.0912202
0.0880848
0.084958
0.0818364
0.0787165
0.0755951
0.072469
0.0693353
0.0661912
0.0630341
0.0598615
0.0566712
0.0534611
0.0502291
0.0469735
0.0436925
0.0403846
0.0370482
0.0336819
0.0302845
0.0268545
0.0233917
0.0198927
0.0163615
0.0127856
0.0091902
0.00551528
0.00189307
-10.7037
-10.858
-11.004
-11.134
-11.231
-11.2646
-11.1982
-10.9998
-10.6507
-10.1519
-9.5236
-8.79904
-8.01683
-7.21375
-6.42056
-5.66037
-4.94873
-4.29476
-3.70253
-3.17246
-2.70252
-2.28915
-1.92786
-1.61377
-1.34189
-1.10741
-0.905823
-0.733045
-0.585388
-0.459568
-0.352675
-0.262145
-0.185732
-0.121472
-0.0676528
-0.0227874
0.0144172
0.0450809
0.0701735
0.0905327
0.10688
0.119836
0.129935
0.137636
0.143331
0.147353
0.149985
0.151468
0.152009
0.151777
0.150918
0.149553
0.147782
0.145691
0.143348
0.140809
0.13812
0.135319
0.132434
0.12949
0.126505
0.123494
0.120467
0.117432
0.114395
0.11136
0.108329
0.105302
0.10228
0.0992629
0.0962484
0.0932354
0.090222
0.0872062
0.0841858
0.0811587
0.0781226
0.0750754
0.072015
0.0689393
0.0658463
0.0627343
0.0596014
0.0564459
0.0532664
0.0500612
0.0468291
0.0435687
0.0402787
0.0369581
0.0336057
0.0302204
0.0268012
0.0233477
0.0198574
0.0163334
0.0127654
0.00917449
0.0055099
0.00188465
-10.4315
-10.5479
-10.6498
-10.7291
-10.7713
-10.7531
-10.6477
-10.4319
-10.0924
-9.63006
-9.05982
-8.40711
-7.70214
-6.97476
-6.25097
-5.55119
-4.89
-4.27668
-3.71615
-3.20999
-2.75742
-2.35607
-2.00255
-1.69289
-1.42291
-1.18842
-0.985434
-0.810258
-0.659516
-0.530159
-0.419459
-0.324988
-0.244599
-0.176404
-0.118744
-0.0701687
-0.0294121
0.00463001
0.0329172
0.0562824
0.0754476
0.0910376
0.103591
0.11357
0.121375
0.127348
0.131781
0.134925
0.136993
0.138164
0.13859
0.138401
0.137707
0.136599
0.135152
0.13343
0.131483
0.129356
0.127084
0.124695
0.122213
0.119656
0.11704
0.114375
0.111672
0.108938
0.106176
0.103392
0.100587
0.0977645
0.094924
0.0920664
0.0891916
0.0862992
0.0833886
0.080459
0.0775094
0.0745389
0.0715462
0.0685304
0.0654903
0.0624247
0.0593328
0.0562133
0.0530653
0.0498879
0.04668
0.0434408
0.0401695
0.0368651
0.033527
0.0301543
0.0267461
0.0233023
0.019821
0.0163044
0.0127446
0.00915819
0.00550463
0.00187536
-10.1618
-10.2437
-10.3069
-10.3437
-10.3421
-10.284
-10.1497
-9.9226
-9.59318
-9.1623
-8.64135
-8.04982
-7.41144
-6.7504
-6.08854
-5.44372
-4.82934
-4.25449
-3.72456
-3.24199
-2.80695
-2.41809
-2.07295
-1.7684
-1.50097
-1.26709
-1.06325
-0.886151
-0.732727
-0.60017
-0.485938
-0.387747
-0.303558
-0.231564
-0.170167
-0.117959
-0.0737036
-0.0363187
-0.0048572
0.0215069
0.0434922
0.0617236
0.0767428
0.0890186
0.0989569
0.106906
0.113166
0.117995
0.121615
0.124212
0.125948
0.12696
0.127365
0.127262
0.126732
0.125846
0.12466
0.123225
0.121581
0.119762
0.117796
0.115706
0.113511
0.111228
0.108868
0.106442
0.103959
0.101424
0.0988433
0.0962207
0.0935594
0.0908618
0.0881297
0.0853645
0.082567
0.0797379
0.0768775
0.0739858
0.071063
0.0681089
0.0651232
0.0621057
0.0590559
0.0559735
0.0528581
0.0497092
0.0465263
0.043309
0.0400569
0.0367693
0.0334459
0.0300861
0.0266894
0.0232556
0.0197835
0.0162744
0.0127232
0.00914129
0.00549944
0.0018653
-9.89632
-9.94742
-9.97698
-9.97842
-9.94181
-9.85318
-9.69794
-9.46411
-9.14509
-8.74181
-8.26305
-7.7239
-7.14309
-6.54023
-5.93358
-5.33864
-4.76751
-4.22888
-3.72832
-3.26883
-2.85134
-2.47529
-2.13903
-1.84018
-1.57591
-1.34321
-1.13905
-0.960501
-0.804803
-0.669392
-0.551918
-0.450245
-0.362449
-0.286809
-0.221793
-0.166042
-0.118355
-0.0776737
-0.0430687
-0.013724
0.0110739
0.0319484
0.0494423
0.0640276
0.0761144
0.0860579
0.0941652
0.100702
0.105896
0.109943
0.113012
0.115246
0.116772
0.117693
0.118099
0.118066
0.117659
0.116931
0.11593
0.114695
0.113258
0.111647
0.109886
0.107993
0.105986
0.103877
0.101679
0.0994003
0.0970494
0.0946327
0.0921556
0.0896226
0.0870373
0.0844028
0.0817217
0.0789959
0.0762271
0.0734168
0.0705658
0.0676752
0.0647455
0.0617773
0.058771
0.0557267
0.0526448
0.0495253
0.0463682
0.0431734
0.039941
0.0366707
0.0333625
0.0300159
0.026631
0.0232075
0.0197449
0.0162437
0.0127012
0.00912385
0.0054943
0.00185459
-9.63677
-9.66058
-9.66126
-9.63337
-9.56894
-9.45705
-9.28688
-9.04984
-8.7414
-8.36257
-7.92025
-7.42625
-6.89543
-6.34369
-5.78627
-5.2365
-4.70521
-4.20051
-3.72797
-3.2909
-2.89081
-2.52776
-2.20079
-1.90813
-1.64757
-1.4166
-1.21263
-1.03309
-0.875532
-0.737623
-0.617207
-0.512303
-0.421105
-0.341986
-0.273484
-0.214294
-0.163254
-0.119336
-0.0816294
-0.0493314
-0.0217369
0.0017736
0.0217422
0.0386429
0.0528896
0.0648421
0.0748134
0.0830751
0.0898624
0.0953786
0.099799
0.103276
0.105941
0.107905
0.109265
0.110103
0.11049
0.110485
0.110141
0.109503
0.108607
0.107486
0.106167
0.104675
0.103028
0.101245
0.099339
0.0973233
0.0952081
0.0930026
0.0907144
0.0883501
0.0859155
0.0834152
0.0808535
0.0782338
0.0755592
0.0728322
0.0700551
0.0672297
0.0643575
0.06144
0.0584783
0.0554733
0.0524258
0.0493364
0.0462057
0.0430341
0.039822
0.0365694
0.0332768
0.0299439
0.0265711
0.0231581
0.0197053
0.016212
0.0126787
0.00910588
0.00548915
0.00184333
-9.38432
-9.38421
-9.36033
-9.30834
-9.22189
-9.09247
-8.91201
-8.67439
-8.37655
-8.01959
-7.60903
-7.15419
-6.66693
-6.16018
-5.64664
-5.13773
-4.64303
-4.17
-3.72404
-3.30863
-2.92565
-2.57567
-2.25825
-1.97222
-1.71585
-1.4871
-1.2838
-1.10373
-0.944712
-0.80466
-0.68161
-0.573736
-0.479355
-0.396937
-0.325096
-0.262584
-0.208284
-0.161199
-0.120443
-0.0852292
-0.0548633
-0.0287319
-0.0062953
0.0129205
0.0293313
0.043301
0.0551474
0.065148
0.0735443
0.0805457
0.0863352
0.0910711
0.0948915
0.0979152
0.100245
0.101968
0.103163
0.103895
0.104221
0.104191
0.103847
0.103227
0.102361
0.101277
0.1
0.0985491
0.0969425
0.0951955
0.0933216
0.0913322
0.0892375
0.0870462
0.0847658
0.082403
0.0799636
0.0774527
0.0748745
0.0722331
0.0695316
0.066773
0.0639598
0.0610942
0.0581782
0.0552134
0.0522012
0.0491427
0.0460392
0.0428913
0.0397
0.0364656
0.0331889
0.02987
0.0265097
0.0231075
0.0196647
0.0161796
0.0126557
0.00908744
0.00548396
0.00183166
-9.14003
-9.11916
-9.07455
-9.00286
-8.89913
-8.75667
-8.56948
-8.33321
-8.04588
-7.70862
-7.32594
-6.90526
-6.45612
-5.98907
-5.51467
-5.04267
-4.58149
-4.13791
-3.71705
-3.32242
-2.95615
-2.61918
-2.31151
-2.03243
-1.78066
-1.55459
-1.35241
-1.17223
-1.01215
-0.870308
-0.744936
-0.63436
-0.537025
-0.4515
-0.376477
-0.310772
-0.253316
-0.203146
-0.159404
-0.121322
-0.0882198
-0.0594912
-0.0346016
-0.0130784
0.00549489
0.0214847
0.0352128
0.0469614
0.0569772
0.0654764
0.0726475
0.0786562
0.0836462
0.0877432
0.0910558
0.0936788
0.0956946
0.097175
0.0981826
0.0987719
0.0989903
0.0988792
0.0984746
0.0978081
0.0969069
0.0957952
0.0944938
0.0930213
0.0913936
0.089625
0.0877279
0.0857132
0.0835904
0.0813681
0.0790538
0.0766539
0.0741744
0.0716203
0.0689961
0.0663059
0.063553
0.0607406