/*--------------------------------*- C++ -*----------------------------------*\
  =========                 |
  \\      /  F ield         | OpenFOAM: The Open Source CFD Toolbox
   \\    /   O peration     | Website:  https://openfoam.org
    \\  /    A nd           | Version:  10
     \\/     M anipulation  |
\*---------------------------------------------------------------------------*/
FoamFile
{
    format      ascii;
    class       surfaceScalarField;
    location    "0.01";
    object      phi;
}
// * * * * * * * * * * * * * * * * * * * * * * * * * * * * * * * * * * * * * //

dimensions      [0 3 -1 0 0 0 0];

internalField   nonuniform List<scalar> 
13452
(
5.94642e-05
8.04237e-07
5.85109e-05
9.53316e-07
5.75357e-05
9.75223e-07
5.65552e-05
9.80485e-07
5.56035e-05
9.51667e-07
5.47005e-05
9.03038e-07
5.38611e-05
8.39376e-07
5.31023e-05
7.58787e-07
5.24429e-05
6.59481e-07
5.19013e-05
5.41548e-07
5.14926e-05
4.08743e-07
5.1223e-05
2.69608e-07
5.10841e-05
1.3881e-07
5.10459e-05
3.82742e-08
5.10722e-05
-2.63526e-08
5.11411e-05
-6.88836e-08
5.12435e-05
-1.02443e-07
5.1376e-05
-1.32484e-07
5.15382e-05
-1.62163e-07
5.1732e-05
-1.93787e-07
5.19608e-05
-2.28773e-07
5.22285e-05
-2.6772e-07
5.25389e-05
-3.10468e-07
5.28953e-05
-3.56334e-07
5.32999e-05
-4.04571e-07
5.37546e-05
-4.54778e-07
5.42625e-05
-5.07822e-07
5.48278e-05
-5.65314e-07
5.54617e-05
-6.33942e-07
5.61808e-05
-7.19133e-07
5.70304e-05
-8.49532e-07
5.81175e-05
-1.0871e-06
-1.41553e-06
5.9533e-05
6.2487e-05
3.07584e-07
6.29612e-05
4.79089e-07
6.3408e-05
5.28426e-07
6.38175e-05
5.70959e-07
6.41816e-05
5.87631e-07
6.44984e-05
5.86212e-07
6.47671e-05
5.70661e-07
6.49866e-05
5.39269e-07
6.51553e-05
4.90862e-07
6.52709e-05
4.25892e-07
6.53323e-05
3.47386e-07
6.53407e-05
2.61217e-07
6.53029e-05
1.76549e-07
6.52384e-05
1.02749e-07
6.51701e-05
4.20365e-08
6.51075e-05
-6.32571e-09
6.50517e-05
-4.66334e-08
6.50029e-05
-8.37096e-08
6.49617e-05
-1.20927e-07
6.493e-05
-1.62132e-07
6.49126e-05
-2.11372e-07
6.49173e-05
-2.72404e-07
6.49547e-05
-3.4784e-07
6.50369e-05
-4.3851e-07
6.51757e-05
-5.43448e-07
6.53816e-05
-6.60633e-07
6.56622e-05
-7.88416e-07
6.6024e-05
-9.27101e-07
6.64713e-05
-1.08123e-06
6.70144e-05
-1.26232e-06
6.76543e-05
-1.48936e-06
6.83948e-05
-1.82766e-06
-2.2323e-06
6.92116e-05
6.38387e-05
2.30331e-07
6.39257e-05
3.9207e-07
6.40125e-05
4.41614e-07
6.41074e-05
4.76002e-07
6.42087e-05
4.86339e-07
6.43171e-05
4.77852e-07
6.44316e-05
4.56136e-07
6.45497e-05
4.21211e-07
6.46676e-05
3.72965e-07
6.47811e-05
3.12336e-07
6.48865e-05
2.42063e-07
6.49816e-05
1.66078e-07
6.50676e-05
9.04988e-08
6.51484e-05
2.19973e-08
6.52314e-05
-4.09613e-08
6.53226e-05
-9.74932e-08
6.54255e-05
-1.49547e-07
6.55407e-05
-1.98902e-07
6.56682e-05
-2.48461e-07
6.58089e-05
-3.028e-07
6.59651e-05
-3.67564e-07
6.6141e-05
-4.48354e-07
6.63424e-05
-5.49267e-07
6.65758e-05
-6.71856e-07
6.68474e-05
-8.15067e-07
6.71631e-05
-9.76307e-07
6.75278e-05
-1.15316e-06
6.79465e-05
-1.34576e-06
6.8423e-05
-1.55772e-06
6.89627e-05
-1.80206e-06
6.95625e-05
-2.08919e-06
7.02125e-05
-2.47762e-06
-2.90605e-06
7.08862e-05
6.56446e-05
1.68782e-07
6.57087e-05
3.27953e-07
6.5765e-05
3.85365e-07
6.58219e-05
4.1913e-07
6.58802e-05
4.27996e-07
6.59418e-05
4.16234e-07
6.60079e-05
3.90082e-07
6.60785e-05
3.50591e-07
6.61532e-05
2.98235e-07
6.62314e-05
2.34206e-07
6.63119e-05
1.6149e-07
6.63949e-05
8.31228e-08
6.64826e-05
2.74223e-09
6.6577e-05
-7.23587e-08
6.66803e-05
-1.44288e-07
6.67943e-05
-2.11443e-07
6.69203e-05
-2.75618e-07
6.70603e-05
-3.38888e-07
6.72164e-05
-4.04528e-07
6.7391e-05
-4.77439e-07
6.7587e-05
-5.63546e-07
6.78072e-05
-6.68566e-07
6.80545e-05
-7.96589e-07
6.83318e-05
-9.49147e-07
6.8642e-05
-1.12525e-06
6.89882e-05
-1.32252e-06
6.93739e-05
-1.53878e-06
6.98025e-05
-1.77441e-06
7.02774e-05
-2.03258e-06
7.07999e-05
-2.32457e-06
7.13682e-05
-2.65754e-06
7.19601e-05
-3.06955e-06
-3.5157e-06
7.25698e-05
6.74945e-05
1.31033e-07
6.75476e-05
2.74922e-07
6.76018e-05
3.31178e-07
6.76609e-05
3.60011e-07
6.77234e-05
3.65492e-07
6.77891e-05
3.50494e-07
6.78587e-05
3.20512e-07
6.79322e-05
2.77097e-07
6.80093e-05
2.2111e-07
6.80899e-05
1.5362e-07
6.81735e-05
7.78855e-08
6.82606e-05
-3.97277e-09
6.83512e-05
-8.79092e-08
6.84483e-05
-1.69456e-07
6.85532e-05
-2.49165e-07
6.86682e-05
-3.26458e-07
6.87952e-05
-4.02568e-07
6.8936e-05
-4.79672e-07
6.90928e-05
-5.61356e-07
6.92682e-05
-6.52872e-07
6.94651e-05
-7.604e-07
6.96863e-05
-8.89737e-07
6.99346e-05
-1.04492e-06
7.02128e-05
-1.22737e-06
7.05236e-05
-1.43602e-06
7.08694e-05
-1.66838e-06
7.12528e-05
-1.92213e-06
7.16756e-05
-2.19725e-06
7.21391e-05
-2.49607e-06
7.26419e-05
-2.82734e-06
7.31805e-05
-3.1962e-06
7.37372e-05
-3.62622e-06
-4.08998e-06
7.43115e-05
6.94158e-05
9.92982e-08
6.94665e-05
2.24234e-07
6.95194e-05
2.78234e-07
6.95761e-05
3.03303e-07
6.9636e-05
3.05577e-07
6.96992e-05
2.8728e-07
6.97664e-05
2.53325e-07
6.98377e-05
2.05819e-07
6.99126e-05
1.46193e-07
6.99911e-05
7.51236e-08
7.00724e-05
-3.42881e-09
7.01576e-05
-8.91556e-08
7.02474e-05
-1.7771e-07
7.03444e-05
-2.66465e-07
7.04503e-05
-3.55028e-07
7.05668e-05
-4.42996e-07
7.06955e-05
-5.31271e-07
7.0838e-05
-6.22197e-07
7.09965e-05
-7.19791e-07
7.11734e-05
-8.2977e-07
7.13717e-05
-9.58686e-07
7.15944e-05
-1.11247e-06
7.18445e-05
-1.29504e-06
7.21246e-05
-1.50747e-06
7.24368e-05
-1.74822e-06
7.27828e-05
-2.01431e-06
7.31635e-05
-2.30288e-06
7.35794e-05
-2.61318e-06
7.40301e-05
-2.94671e-06
7.45125e-05
-3.3098e-06
7.50231e-05
-3.70677e-06
7.55489e-05
-4.152e-06
-4.63074e-06
7.60896e-05
7.13889e-05
7.67186e-08
7.14305e-05
1.8261e-07
7.14778e-05
2.30949e-07
7.15311e-05
2.49983e-07
7.15896e-05
2.47075e-07
7.16526e-05
2.24353e-07
7.17199e-05
1.85952e-07
7.17917e-05
1.34025e-07
7.18675e-05
7.04325e-08
7.19478e-05
-5.22568e-09
7.2032e-05
-8.75506e-08
7.21204e-05
-1.77556e-07
7.22142e-05
-2.71494e-07
7.2315e-05
-3.67287e-07
7.24241e-05
-4.64204e-07
7.25431e-05
-5.61964e-07
7.26733e-05
-6.61454e-07
7.28163e-05
-7.65231e-07
7.29743e-05
-8.77774e-07
7.31499e-05
-1.00533e-06
7.33461e-05
-1.15487e-06
7.3566e-05
-1.33247e-06
7.38129e-05
-1.54185e-06
7.4089e-05
-1.78361e-06
7.43963e-05
-2.05549e-06
7.47357e-05
-2.35372e-06
7.51074e-05
-2.6746e-06
7.55106e-05
-3.01641e-06
7.59437e-05
-3.37976e-06
7.6403e-05
-3.76909e-06
7.68845e-05
-4.18829e-06
7.73794e-05
-4.64687e-06
-5.13828e-06
7.78869e-05
7.34234e-05
5.85962e-08
7.34614e-05
1.44618e-07
7.35074e-05
1.84936e-07
7.35598e-05
1.97536e-07
7.36175e-05
1.89411e-07
7.36795e-05
1.62366e-07
7.37458e-05
1.19684e-07
7.38164e-05
6.34076e-08
7.38904e-05
-3.59173e-09
7.39685e-05
-8.33034e-08
7.40511e-05
-1.70117e-07
7.41381e-05
-2.64572e-07
7.42307e-05
-3.64115e-07
7.43305e-05
-4.67045e-07
7.44388e-05
-5.72554e-07
7.45572e-05
-6.80319e-07
7.46869e-05
-7.91168e-07
7.48295e-05
-9.07816e-07
7.49869e-05
-1.03518e-06
7.51616e-05
-1.18005e-06
7.53565e-05
-1.34982e-06
7.55748e-05
-1.55072e-06
7.58192e-05
-1.78622e-06
7.60918e-05
-2.05626e-06
7.6394e-05
-2.3577e-06
7.6726e-05
-2.68574e-06
7.70871e-05
-3.03569e-06
7.74755e-05
-3.40482e-06
7.78887e-05
-3.7929e-06
7.83227e-05
-4.20307e-06
7.87734e-05
-4.63902e-06
7.92345e-05
-5.10799e-06
-5.60825e-06
7.97045e-05
7.55169e-05
4.41615e-08
7.55499e-05
1.11646e-07
7.55918e-05
1.43029e-07
7.56406e-05
1.48704e-07
7.56954e-05
1.34646e-07
7.57552e-05
1.02574e-07
7.58197e-05
5.51515e-08
7.58892e-05
-6.13777e-09
7.59636e-05
-7.79518e-08
7.60419e-05
-1.61625e-07
7.61253e-05
-2.53444e-07
7.62137e-05
-3.53024e-07
7.63083e-05
-4.58674e-07
7.64101e-05
-5.68908e-07
7.65204e-05
-6.82813e-07
7.66401e-05
-8e-07
7.67702e-05
-9.21332e-07
7.69122e-05
-1.04979e-06
7.70678e-05
-1.19079e-06
7.72395e-05
-1.35172e-06
7.74301e-05
-1.54047e-06
7.76428e-05
-1.76341e-06
7.78803e-05
-2.02369e-06
7.81446e-05
-2.32053e-06
7.84366e-05
-2.64971e-06
7.87561e-05
-3.00524e-06
7.91017e-05
-3.38128e-06
7.94709e-05
-3.77402e-06
7.98604e-05
-4.18242e-06
8.02661e-05
-4.60872e-06
8.06836e-05
-5.05655e-06
8.11077e-05
-5.53216e-06
-6.0366e-06
8.15361e-05
7.76716e-05
3.21833e-08
7.77011e-05
8.20592e-08
7.77408e-05
1.03325e-07
7.77882e-05
1.0134e-07
7.7842e-05
8.08646e-08
7.79011e-05
4.34454e-08
7.7965e-05
-8.70322e-09
7.80332e-05
-7.43494e-08
7.81062e-05
-1.50973e-07
7.81833e-05
-2.38735e-07
7.82652e-05
-3.35369e-07
7.83523e-05
-4.40097e-07
7.84454e-05
-5.51741e-07
7.85455e-05
-6.69056e-07
7.86538e-05
-7.91102e-07
7.87713e-05
-9.17448e-07
7.88989e-05
-1.04899e-06
7.90381e-05
-1.18892e-06
7.91904e-05
-1.34313e-06
7.93582e-05
-1.51955e-06
7.95443e-05
-1.72651e-06
7.97513e-05
-1.97047e-06
7.99819e-05
-2.25422e-06
8.02375e-05
-2.57614e-06
8.05186e-05
-2.93086e-06
8.08245e-05
-3.31107e-06
8.11529e-05
-3.70974e-06
8.15009e-05
-4.122e-06
8.18646e-05
-4.54611e-06
8.22396e-05
-4.9837e-06
8.26214e-05
-5.43837e-06
8.30053e-05
-5.91605e-06
-6.41927e-06
8.33879e-05
7.98885e-05
2.20053e-08
7.99149e-05
5.56041e-08
7.99518e-05
6.65138e-08
7.99963e-05
5.67603e-08
8.00474e-05
2.97839e-08
8.0104e-05
-1.3175e-08
8.01658e-05
-7.04752e-08
8.02323e-05
-1.40833e-07
8.03038e-05
-2.22441e-07
8.03799e-05
-3.1484e-07
8.04611e-05
-4.16568e-07
8.05478e-05
-5.26819e-07
8.06408e-05
-6.44706e-07
8.07408e-05
-7.69151e-07
8.08489e-05
-8.99147e-07
8.09656e-05
-1.03417e-06
8.10918e-05
-1.17515e-06
8.12284e-05
-1.32553e-06
8.13769e-05
-1.49168e-06
8.15395e-05
-1.68215e-06
8.17187e-05
-1.90572e-06
8.19173e-05
-2.169e-06
8.21374e-05
-2.47435e-06
8.23805e-05
-2.81926e-06
8.26468e-05
-3.19711e-06
8.29349e-05
-3.59919e-06
8.32423e-05
-4.01719e-06
8.35655e-05
-4.44521e-06
8.39002e-05
-4.88082e-06
8.42418e-05
-5.32521e-06
8.45854e-05
-5.78199e-06
8.49263e-05
-6.257e-06
-6.75354e-06
8.52606e-05
8.21693e-05
1.31564e-08
8.21932e-05
3.16863e-08
8.22277e-05
3.20575e-08
8.22702e-05
1.42007e-08
8.23196e-05
-1.95983e-08
8.23748e-05
-6.83598e-08
8.24352e-05
-1.30888e-07
8.25004e-05
-2.06024e-07
8.25704e-05
-2.92424e-07
8.2645e-05
-3.89446e-07
8.27245e-05
-4.96096e-07
8.28094e-05
-6.11696e-07
8.29002e-05
-7.35553e-07
8.29978e-05
-8.66715e-07
8.31028e-05
-1.00414e-06
8.32159e-05
-1.14726e-06
8.33378e-05
-1.29702e-06
8.34694e-05
-1.45712e-06
8.36121e-05
-1.6344e-06
8.37679e-05
-1.83794e-06
8.39391e-05
-2.07696e-06
8.41282e-05
-2.35809e-06
8.43371e-05
-2.68327e-06
8.45669e-05
-3.04901e-06
8.48171e-05
-3.44737e-06
8.50862e-05
-3.86824e-06
8.5371e-05
-4.30203e-06
8.56677e-05
-4.74184e-06
8.59715e-05
-5.18466e-06
8.62776e-05
-5.63134e-06
8.65811e-05
-6.08552e-06
8.68772e-05
-6.55303e-06
-7.03762e-06
8.71612e-05
8.45156e-05
5.32148e-09
8.45373e-05
9.95895e-09
8.45694e-05
-3.73247e-11
8.46096e-05
-2.59832e-08
8.46566e-05
-6.6574e-08
8.47094e-05
-1.21154e-07
8.47674e-05
-1.8892e-07
8.48303e-05
-2.68927e-07
8.4898e-05
-3.6015e-07
8.49705e-05
-4.61942e-07
8.5048e-05
-5.73599e-07
8.5131e-05
-6.94606e-07
8.52198e-05
-8.24405e-07
8.53152e-05
-9.62111e-07
8.54177e-05
-1.10662e-06
8.55277e-05
-1.25726e-06
8.56457e-05
-1.415e-06
8.57723e-05
-1.58378e-06
8.59088e-05
-1.77088e-06
8.60568e-05
-1.98595e-06
8.62185e-05
-2.23864e-06
8.6396e-05
-2.53564e-06
8.65912e-05
-2.87841e-06
8.68047e-05
-3.26248e-06
8.70359e-05
-3.67857e-06
8.72827e-05
-4.11514e-06
8.7542e-05
-4.56129e-06
8.78093e-05
-5.00918e-06
8.80799e-05
-5.45521e-06
8.83486e-05
-5.90004e-06
8.86104e-05
-6.34731e-06
8.88603e-05
-6.8029e-06
-7.27087e-06
8.90935e-05
8.69292e-05
-1.70956e-09
8.6949e-05
-9.88333e-09
8.6979e-05
-2.99592e-08
8.70169e-05
-6.39648e-08
8.70617e-05
-1.1138e-07
8.71125e-05
-1.71861e-07
8.71684e-05
-2.44906e-07
8.72293e-05
-3.29794e-07
8.72949e-05
-4.25741e-07
8.73651e-05
-5.32188e-07
8.74402e-05
-6.48649e-07
8.75204e-05
-7.74767e-07
8.76061e-05
-9.10099e-07
8.76977e-05
-1.0538e-06
8.77958e-05
-1.20471e-06
8.79007e-05
-1.36208e-06
8.80126e-05
-1.5269e-06
8.81321e-05
-1.70334e-06
8.82603e-05
-1.89912e-06
8.83988e-05
-2.1244e-06
8.85494e-05
-2.38922e-06
8.8714e-05
-2.70027e-06
8.88941e-05
-3.05851e-06
8.90901e-05
-3.45843e-06
8.93009e-05
-3.88942e-06
8.95243e-05
-4.33851e-06
8.97565e-05
-4.79354e-06
8.99931e-05
-5.24579e-06
9.02291e-05
-5.69116e-06
9.04592e-05
-6.13015e-06
9.06784e-05
-6.56652e-06
9.08817e-05
-7.00619e-06
-7.45351e-06
9.10643e-05
8.94119e-05
-8.07814e-09
8.94301e-05
-2.80563e-08
8.94579e-05
-5.77889e-08
8.94936e-05
-9.96672e-08
8.9536e-05
-1.53767e-07
8.95842e-05
-2.20038e-07
8.96375e-05
-2.98248e-07
8.96956e-05
-3.87906e-07
8.97583e-05
-4.8844e-07
8.98256e-05
-5.99416e-07
8.98974e-05
-7.20517e-07
8.99742e-05
-8.51529e-07
9.00562e-05
-9.92092e-07
9.01437e-05
-1.14137e-06
9.02372e-05
-1.29812e-06
9.03366e-05
-1.46148e-06
9.04421e-05
-1.63246e-06
9.05542e-05
-1.81543e-06
9.06736e-05
-2.01852e-06
9.08016e-05
-2.2524e-06
9.09398e-05
-2.52746e-06
9.109e-05
-2.85041e-06
9.12531e-05
-3.22167e-06
9.14295e-05
-3.63475e-06
9.16177e-05
-4.07769e-06
9.18153e-05
-4.5361e-06
9.20185e-05
-4.99666e-06
9.22225e-05
-5.44979e-06
9.24223e-05
-5.89097e-06
9.26127e-05
-6.32061e-06
9.27888e-05
-6.7426e-06
9.29456e-05
-7.16301e-06
-7.58646e-06
9.30786e-05
9.19657e-05
-1.3876e-08
9.19823e-05
-4.4723e-08
9.20081e-05
-8.36136e-08
9.20416e-05
-1.33102e-07
9.20815e-05
-1.93706e-07
9.21271e-05
-2.65641e-07
9.21778e-05
-3.48899e-07
9.22331e-05
-4.43193e-07
9.22928e-05
-5.4813e-07
9.23567e-05
-6.634e-07
9.2425e-05
-7.88828e-07
9.24978e-05
-9.2432e-07
9.25753e-05
-1.06958e-06
9.26577e-05
-1.22376e-06
9.27451e-05
-1.38554e-06
9.28376e-05
-1.55396e-06
9.29352e-05
-1.73004e-06
9.30381e-05
-1.91834e-06
9.3147e-05
-2.12738e-06
9.32629e-05
-2.36831e-06
9.33873e-05
-2.65183e-06
9.35215e-05
-2.98461e-06
9.36663e-05
-3.36656e-06
9.38217e-05
-3.79014e-06
9.39862e-05
-4.24211e-06
9.41568e-05
-4.70673e-06
9.43297e-05
-5.16955e-06
9.45001e-05
-5.62024e-06
9.46631e-05
-6.05394e-06
9.48135e-05
-6.47107e-06
9.49466e-05
-6.8757e-06
9.50577e-05
-7.2741e-06
-7.67126e-06
9.51425e-05
9.45924e-05
-1.91652e-08
9.46077e-05
-5.99973e-08
9.46316e-05
-1.07484e-07
9.46627e-05
-1.64224e-07
9.47001e-05
-2.31053e-07
9.47428e-05
-3.0841e-07
9.47904e-05
-3.96477e-07
9.48424e-05
-4.95154e-07
9.48984e-05
-6.04207e-07
9.49585e-05
-7.23451e-07
9.50225e-05
-8.52834e-07
9.50905e-05
-9.9236e-07
9.51627e-05
-1.14178e-06
9.52392e-05
-1.30023e-06
9.53199e-05
-1.46626e-06
9.54048e-05
-1.63884e-06
9.54937e-05
-1.81897e-06
9.55868e-05
-2.01138e-06
9.56843e-05
-2.22494e-06
9.57873e-05
-2.47124e-06
9.58967e-05
-2.76128e-06
9.60138e-05
-3.10166e-06
9.6139e-05
-3.49176e-06
9.62719e-05
-3.92309e-06
9.6411e-05
-4.38113e-06
9.65531e-05
-4.84889e-06
9.66944e-05
-5.31087e-06
9.68303e-05
-5.75607e-06
9.69557e-05
-6.1794e-06
9.7066e-05
-6.58133e-06
9.71565e-05
-6.9662e-06
9.72229e-05
-7.34054e-06
-7.70975e-06
9.72614e-05
9.72943e-05
-2.39846e-08
9.73083e-05
-7.39541e-08
9.73302e-05
-1.29431e-07
9.7359e-05
-1.92994e-07
9.73937e-05
-2.65701e-07
9.74334e-05
-3.48177e-07
9.74777e-05
-4.40766e-07
9.75261e-05
-5.43526e-07
9.75782e-05
-6.56359e-07
9.7634e-05
-7.79191e-07
9.76932e-05
-9.12067e-07
9.77559e-05
-1.05507e-06
9.78221e-05
-1.20799e-06
9.78918e-05
-1.3699e-06
9.79648e-05
-1.53929e-06
9.8041e-05
-1.71499e-06
9.812e-05
-1.89801e-06
9.82019e-05
-2.09322e-06
9.82868e-05
-2.30985e-06
9.83754e-05
-2.55986e-06
9.84686e-05
-2.8545e-06
9.85672e-05
-3.20031e-06
9.86716e-05
-3.59612e-06
9.8781e-05
-4.0325e-06
9.88936e-05
-4.49374e-06
9.90064e-05
-4.9617e-06
9.91155e-05
-5.41992e-06
9.92163e-05
-5.85686e-06
9.93041e-05
-6.26727e-06
9.93746e-05
-6.65174e-06
9.94233e-05
-7.01498e-06
9.94466e-05
-7.36381e-06
-7.7041e-06
9.9441e-05
0.000100073
-2.83583e-08
0.000100086
-8.6639e-08
0.000100106
-1.49461e-07
0.000100133
-2.19349e-07
0.000100164
-2.97512e-07
0.000100201
-3.8472e-07
0.000100242
-4.81455e-07
0.000100286
-5.87903e-07
0.000100334
-7.04085e-07
0.000100385
-8.30024e-07
0.000100438
-9.65849e-07
0.000100495
-1.11171e-06
0.000100554
-1.2674e-06
0.000100616
-1.43196e-06
0.000100681
-1.60378e-06
0.000100747
-1.78157e-06
0.000100816
-1.96632e-06
0.000100886
-2.16306e-06
0.000100957
-2.38129e-06
0.000101031
-2.63332e-06
0.000101107
-2.93062e-06
0.000101186
-3.27961e-06
0.000101268
-3.67863e-06
0.000101353
-4.11735e-06
0.000101439
-4.57898e-06
0.000101521
-5.0443e-06
0.000101597
-5.49605e-06
0.000101663
-5.92225e-06
0.000101713
-6.31755e-06
0.000101744
-6.68279e-06
0.000101752
-7.02304e-06
0.000101734
-7.34551e-06
-7.65652e-06
0.000101686
0.000102932
-3.22988e-08
0.000102943
-9.80738e-08
0.000102962
-1.67561e-07
0.000102985
-2.43218e-07
0.000103014
-3.26347e-07
0.000103047
-4.17835e-07
0.000103084
-5.18269e-07
0.000103124
-6.27946e-07
0.000103167
-7.46984e-07
0.000103213
-8.75485e-07
0.00010326
-1.01365e-06
0.00010331
-1.16166e-06
0.000103362
-1.31933e-06
0.000103416
-1.48564e-06
0.000103471
-1.65887e-06
0.000103527
-1.83766e-06
0.000103584
-2.02295e-06
0.000103641
-2.21989e-06
0.000103698
-2.43824e-06
0.000103755
-2.69062e-06
0.000103813
-2.98865e-06
0.000103872
-3.33866e-06
0.000103932
-3.73845e-06
0.000103991
-4.1769e-06
0.000104048
-4.6362e-06
0.0001041
-5.09622e-06
0.000104143
-5.53901e-06
0.000104173
-5.95225e-06
0.000104186
-6.33063e-06
0.000104179
-6.67528e-06
0.000104148
-6.99167e-06
0.000104089
-7.28741e-06
-7.56929e-06
0.000104002
0.000105872
-3.58111e-08
0.000105882
-1.08263e-07
0.000105899
-1.83704e-07
0.00010592
-2.64517e-07
0.000105946
-3.5206e-07
0.000105975
-4.47301e-07
0.000106008
-5.50916e-07
0.000106043
-6.63285e-07
0.000106081
-7.84606e-07
0.00010612
-9.15046e-07
0.000106161
-1.05485e-06
0.000106204
-1.20425e-06
0.000106248
-1.36304e-06
0.000106292
-1.53017e-06
0.000106337
-1.70379e-06
0.000106382
-1.88246e-06
0.000106426
-2.0671e-06
0.000106469
-2.26295e-06
0.000106511
-2.47999e-06
0.000106551
-2.73106e-06
0.000106591
-3.02794e-06
0.000106629
-3.37678e-06
0.000106665
-3.77494e-06
0.000106699
-4.21052e-06
0.000106728
-4.66489e-06
0.000106748
-5.11709e-06
0.000106758
-5.54864e-06
0.000106753
-5.94702e-06
0.000106729
-6.30703e-06
0.000106684
-6.63013e-06
0.000106615
-6.92222e-06
0.000106519
-7.19131e-06
-7.44467e-06
0.000106394
0.000108896
-3.88942e-08
0.000108905
-1.17197e-07
0.00010892
-1.97851e-07
0.000108938
-2.83155e-07
0.000108961
-3.74497e-07
0.000108986
-4.72904e-07
0.000109014
-5.79112e-07
0.000109045
-6.9357e-07
0.000109077
-8.16536e-07
0.00010911
-9.48228e-07
0.000109144
-1.08893e-06
0.000109179
-1.23889e-06
0.000109213
-1.39791e-06
0.000109248
-1.56485e-06
0.000109282
-1.7378e-06
0.000109315
-1.91522e-06
0.000109346
-2.09802e-06
0.000109374
-2.2915e-06
0.0001094
-2.50581e-06
0.000109423
-2.75398e-06
0.000109443
-3.04784e-06
0.00010946
-3.3934e-06
0.000109472
-3.78757e-06
0.00010948
-4.21781e-06
0.000109479
-4.66474e-06
0.000109469
-5.10677e-06
0.000109445
-5.52505e-06
0.000109405
-5.90695e-06
0.000109346
-6.24747e-06
0.000109264
-6.54842e-06
0.000109158
-6.81616e-06
0.000109026
-7.05909e-06
-7.28487e-06
0.000108866
0.000112007
-4.15442e-08
0.000112015
-1.2486e-07
0.000112027
-2.09952e-07
0.000112043
-2.99038e-07
0.000112062
-3.93512e-07
0.000112083
-4.94434e-07
0.000112107
-6.02585e-07
0.000112132
-7.18464e-07
0.000112158
-8.42375e-07
0.000112184
-9.7457e-07
0.00011221
-1.11536e-06
0.000112236
-1.26501e-06
0.000112262
-1.42329e-06
0.000112286
-1.58903e-06
0.000112308
-1.76024e-06
0.000112329
-1.93529e-06
0.000112346
-2.11507e-06
0.000112359
-2.30493e-06
0.000112368
-2.51514e-06
0.000112373
-2.75885e-06
0.000112373
-3.0479e-06
0.000112368
-3.38812e-06
0.000112356
-3.77602e-06
0.000112337
-4.19851e-06
0.000112308
-4.63562e-06
0.000112267
-5.06532e-06
0.00011221
-5.46849e-06
0.000112136
-5.83256e-06
0.000112041
-6.15277e-06
0.000111924
-6.43132e-06
0.000111783
-6.675e-06
0.000111616
-6.89255e-06
-7.092e-06
0.000111423
0.000115207
-4.37541e-08
0.000115213
-1.31226e-07
0.000115223
-2.19955e-07
0.000115236
-3.1207e-07
0.000115252
-4.08953e-07
0.000115269
-5.1168e-07
0.000115287
-6.21062e-07
0.000115306
-7.37632e-07
0.000115326
-8.61724e-07
0.000115345
-9.9362e-07
0.000115363
-1.13365e-06
0.00011538
-1.28207e-06
0.000115395
-1.43863e-06
0.000115409
-1.60214e-06
0.000115419
-1.77051e-06
0.000115426
-1.94209e-06
0.000115428
-2.11771e-06
0.000115426
-2.30277e-06
0.000115419
-2.50758e-06
0.000115405
-2.74534e-06
0.000115385
-3.02784e-06
0.000115358
-3.3607e-06
0.000115322
-3.74011e-06
0.000115276
-4.15252e-06
0.000115218
-4.57756e-06
0.000115145
-4.99289e-06
0.000115056
-5.37934e-06
0.000114948
-5.72448e-06
0.000114819
-6.02385e-06
0.000114668
-6.28004e-06
0.000114493
-6.50022e-06
0.000114294
-6.69345e-06
-6.86803e-06
0.00011407
0.000118498
-4.55172e-08
0.000118503
-1.36274e-07
0.000118511
-2.27812e-07
0.000118521
-3.22166e-07
0.000118532
-4.20694e-07
0.000118545
-5.24473e-07
0.000118558
-6.34327e-07
0.000118572
-7.50809e-07
0.000118584
-8.74276e-07
0.000118596
-1.00502e-06
0.000118605
-1.14338e-06
0.000118613
-1.28962e-06
0.000118618
-1.44346e-06
0.000118619
-1.60366e-06
0.000118617
-1.76813e-06
0.00011861
-1.93513e-06
0.000118598
-2.10548e-06
0.000118579
-2.28458e-06
0.000118555
-2.48275e-06
0.000118522
-2.71314e-06
0.000118482
-2.98742e-06
0.000118432
-3.31101e-06
0.000118372
-3.67978e-06
0.000118299
-4.07989e-06
0.000118212
-4.4907e-06
0.000118109
-4.88981e-06
0.000117988
-5.25813e-06
0.000117847
-5.58345e-06
0.000117685
-5.8617e-06
0.000117501
-6.09581e-06
0.000117294
-6.2933e-06
0.000117064
-6.46344e-06
-6.61476e-06
0.000116811
0.000121883
-4.68254e-08
0.000121886
-1.39978e-07
0.000121892
-2.33467e-07
0.000121899
-3.29229e-07
0.000121907
-4.28586e-07
0.000121915
-5.32604e-07
0.000121923
-6.4211e-07
0.00012193
-7.57667e-07
0.000121935
-8.79647e-07
0.000121938
-1.00835e-06
0.000121939
-1.14412e-06
0.000121937
-1.2872e-06
0.000121931
-1.43731e-06
0.00012192
-1.59319e-06
0.000121905
-1.75269e-06
0.000121884
-1.91408e-06
0.000121856
-2.07815e-06
0.000121822
-2.25024e-06
0.00012178
-2.44061e-06
0.000121729
-2.66227e-06
0.000121668
-2.92673e-06
0.000121596
-3.23915e-06
0.000121512
-3.59519e-06
0.000121413
-3.98082e-06
0.000121297
-4.37536e-06
0.000121164
-4.7565e-06
0.000121011
-5.10541e-06
0.000120838
-5.41023e-06
0.000120644
-5.66726e-06
0.000120428
-5.87978e-06
0.00012019
-6.05555e-06
0.00011993
-6.20401e-06
-6.33377e-06
0.00011965
0.000125364
-4.76776e-08
0.000125367
-1.42331e-07
0.00012537
-2.36906e-07
0.000125374
-3.33234e-07
0.000125378
-4.32588e-07
0.000125382
-5.36014e-07
0.000125384
-6.44329e-07
0.000125384
-7.58101e-07
0.000125382
-8.77704e-07
0.000125377
-1.00345e-06
0.000125369
-1.13566e-06
0.000125356
-1.27458e-06
0.000125339
-1.41992e-06
0.000125316
-1.57039e-06
0.000125287
-1.72387e-06
0.000125252
-1.8786e-06
0.000125209
-2.03535e-06
0.000125158
-2.1994e-06
0.000125098
-2.38086e-06
0.000125029
-2.59253e-06
0.000124948
-2.84566e-06
0.000124854
-3.14515e-06
0.000124745
-3.48647e-06
0.00012462
-3.85558e-06
0.000124476
-4.23192e-06
0.000124313
-4.59351e-06
0.00012413
-4.9219e-06
0.000123925
-5.20571e-06
0.000123699
-5.4416e-06
0.000123453
-5.63315e-06
0.000123186
-5.7883e-06
0.000122898
-5.91654e-06
-6.02649e-06
0.000122591
0.000128945
-4.8064e-08
0.000128946
-1.43304e-07
0.000128948
-2.38066e-07
0.000128948
-3.34058e-07
0.000128948
-4.32509e-07
0.000128947
-5.34439e-07
0.000128943
-6.40656e-07
0.000128937
-7.51727e-07
0.000128927
-8.68031e-07
0.000128913
-9.89873e-07
0.000128895
-1.11758e-06
0.000128872
-1.25138e-06
0.000128843
-1.39096e-06
0.000128808
-1.53505e-06
0.000128766
-1.68154e-06
0.000128716
-1.82869e-06
0.000128658
-1.97725e-06
0.000128591
-2.13236e-06
0.000128514
-2.30392e-06
0.000128425
-2.50441e-06
0.000128325
-2.74473e-06
0.000128209
-3.02951e-06
0.000128077
-3.35414e-06
0.000127926
-3.70467e-06
0.000127755
-4.06092e-06
0.000127563
-4.40141e-06
0.000127349
-4.70827e-06
0.000127114
-4.97064e-06
0.000126858
-5.18559e-06
0.000126582
-5.35694e-06
0.000126286
-5.49267e-06
0.000125972
-5.60225e-06
-5.69421e-06
0.000125639
0.000132629
-4.80115e-08
0.000132629
-1.42967e-07
0.000132628
-2.37059e-07
0.000132625
-3.31866e-07
0.000132622
-4.28557e-07
0.000132615
-5.2812e-07
0.000132606
-6.31345e-07
0.000132593
-7.38793e-07
0.000132576
-8.50844e-07
0.000132554
-9.67801e-07
0.000132526
-1.08998e-06
0.000132492
-1.2176e-06
0.000132452
-1.35035e-06
0.000132404
-1.48698e-06
0.000132348
-1.62542e-06
0.000132283
-1.76398e-06
0.000132209
-1.90339e-06
0.000132125
-2.04865e-06
0.000132031
-2.20935e-06
0.000131924
-2.39757e-06
0.000131803
-2.62375e-06
0.000131666
-2.89225e-06
0.00013151
-3.19838e-06
0.000131334
-3.52849e-06
0.000131136
-3.86294e-06
0.000130915
-4.18096e-06
0.000130672
-4.46542e-06
0.000130408
-4.70606e-06
0.000130123
-4.90037e-06
0.000129818
-5.05231e-06
0.000129495
-5.16987e-06
0.000129155
-5.26232e-06
-5.33803e-06
0.000128799
0.000136418
-4.74806e-08
0.000136416
-1.41229e-07
0.000136413
-2.33703e-07
0.000136407
-3.2635e-07
0.000136399
-4.203e-07
0.000136387
-5.16521e-07
0.000136372
-6.15788e-07
0.000136352
-7.18663e-07
0.000136326
-8.25525e-07
0.000136295
-9.36676e-07
0.000136258
-1.05242e-06
0.000136213
-1.17297e-06
0.000136161
-1.29801e-06
0.0001361
-1.42632e-06
0.00013603
-1.55591e-06
0.000135952
-1.68514e-06
0.000135863
-1.81471e-06
0.000135764
-1.94941e-06
0.000135653
-2.09843e-06
0.000135528
-2.2733e-06
0.000135389
-2.48396e-06
0.000135231
-2.73445e-06
0.000135053
-3.02015e-06
0.000134852
-3.32783e-06
0.000134628
-3.63864e-06
0.000134379
-3.93275e-06
0.000134108
-4.19392e-06
0.000133814
-4.41258e-06
0.000133501
-4.5866e-06
0.000133168
-4.72003e-06
0.000132819
-4.82071e-06
0.000132455
-4.89766e-06
-4.95892e-06
0.000132076
0.000140315
-4.66301e-08
0.000140312
-1.38458e-07
0.000140307
-2.2858e-07
0.000140299
-3.1828e-07
0.000140287
-4.08643e-07
0.000140271
-5.00615e-07
0.000140251
-5.94967e-07
0.000140224
-6.92266e-07
0.000140192
-7.92901e-07
0.000140152
-8.97174e-07
0.000140105
-1.00539e-06
0.00014005
-1.11773e-06
0.000139986
-1.23391e-06
0.000139912
-1.35277e-06
0.000139829
-1.47241e-06
0.000139735
-1.5913e-06
0.00013963
-1.71012e-06
0.000139514
-1.83344e-06
0.000139386
-1.96998e-06
0.000139243
-2.13062e-06
0.000139084
-2.32468e-06
0.000138905
-2.55584e-06
0.000138705
-2.81956e-06
0.00013848
-3.1032e-06
0.00013823
-3.38887e-06
0.000137955
-3.65787e-06
0.000137656
-3.89503e-06
0.000137335
-4.09153e-06
0.000136994
-4.24561e-06
0.000136636
-4.36136e-06
0.000136261
-4.44636e-06
0.000135873
-4.50923e-06
-4.55764e-06
0.000135472
0.000144323
-4.51991e-08
0.000144319
-1.34143e-07
0.000144311
-2.20867e-07
0.000144299
-3.0656e-07
0.000144283
-3.92313e-07
0.000144262
-4.79058e-07
0.000144234
-5.67557e-07
0.0001442
-6.58383e-07
0.000144159
-7.51936e-07
0.000144111
-8.48522e-07
0.000144054
-9.48435e-07
0.000143988
-1.05186e-06
0.000143912
-1.15851e-06
0.000143827
-1.2673e-06
0.000143731
-1.37645e-06
0.000143624
-1.48452e-06
0.000143506
-1.59214e-06
0.000143376
-1.70357e-06
0.000143233
-1.82693e-06
0.000143075
-1.97231e-06
0.000142899
-2.14835e-06
0.000142701
-2.35838e-06
0.00014248
-2.59805e-06
0.000142232
-2.85553e-06
0.000141957
-3.11416e-06
0.000141656
-3.3566e-06
0.00014133
-3.56887e-06
0.000140981
-3.74299e-06
0.000140613
-3.87754e-06
0.000140228
-3.97655e-06
0.000139829
-4.0472e-06
0.000139418
-4.09762e-06
-4.13495e-06
0.000138995
0.000148447
-4.40047e-08
0.000148443
-1.2988e-07
0.000148434
-2.12754e-07
0.000148422
-2.93686e-07
0.000148403
-3.73877e-07
0.000148378
-4.54321e-07
0.000148347
-5.35825e-07
0.000148307
-6.19005e-07
0.00014826
-7.0428e-07
0.000148203
-7.91965e-07
0.000148137
-8.82341e-07
0.000148061
-9.75578e-07
0.000147974
-1.07141e-06
0.000147875
-1.16884e-06
0.000147765
-1.26625e-06
0.000147643
-1.36237e-06
0.000147508
-1.45783e-06
0.000147361
-1.55663e-06
0.000147201
-1.6662e-06
0.000147024
-1.79579e-06
0.000146829
-1.95316e-06
0.000146612
-2.1412e-06
0.00014637
-2.35574e-06
0.0001461
-2.58582e-06
0.000145802
-2.81615e-06
0.000145476
-3.03094e-06
0.000145125
-3.2176e-06
0.000144751
-3.36906e-06
0.000144358
-3.4843e-06
0.000143948
-3.56719e-06
0.000143526
-3.62446e-06
0.000143092
-3.6636e-06
-3.69117e-06
0.000142648
0.000152687
-4.15264e-08
0.00015268
-1.23229e-07
0.000152668
-2.0115e-07
0.000152651
-2.76416e-07
0.000152627
-3.50253e-07
0.000152597
-4.23633e-07
0.000152558
-4.97399e-07
0.000152512
-5.72216e-07
0.000152456
-6.48545e-07
0.000152391
-7.26726e-07
0.000152315
-8.07053e-07
0.000152229
-8.89691e-07
0.000152132
-9.74398e-07
0.000152024
-1.06026e-06
0.000151903
-1.14581e-06
0.000151771
-1.22991e-06
0.000151626
-1.31313e-06
0.000151469
-1.39901e-06
0.000151297
-1.49417e-06
0.000151108
-1.60679e-06
0.000150898
-1.74376e-06
0.000150665
-1.90755e-06
0.000150403
-2.09442e-06
0.000150112
-2.29454e-06
0.00014979
-2.49433e-06
0.000149439
-2.67979e-06
0.000149061
-2.83984e-06
0.000148661
-2.96839e-06
0.000148241
-3.06475e-06
0.000147806
-3.13255e-06
0.00014736
-3.17788e-06
0.000146904
-3.20747e-06
-3.22712e-06
0.00014644
0.000157052
-4.18182e-08
0.000157049
-1.20226e-07
0.00015704
-1.92585e-07
0.000157025
-2.60746e-07
0.000157001
-3.26629e-07
0.000156969
-3.91346e-07
0.000156927
-4.55836e-07
0.000156876
-5.20836e-07
0.000156814
-5.86817e-07
0.000156741
-6.54101e-07
0.000156657
-7.22949e-07
0.000156561
-7.93482e-07
0.000156452
-8.65464e-07
0.00015633
-9.38088e-07
0.000156194
-1.01013e-06
0.000156045
-1.08073e-06
0.000155882
-1.15058e-06
0.000155706
-1.22293e-06
0.000155516
-1.30363e-06
0.000155309
-1.39968e-06
0.000155082
-1.51674e-06
0.000154831
-1.65658e-06
0.000154552
-1.81553e-06
0.000154242
-1.98484e-06
0.000153901
-2.15274e-06
0.000153528
-2.30733e-06
0.000153128
-2.43939e-06
0.000152703
-2.54407e-06
0.00015226
-2.62112e-06
0.000151801
-2.67391e-06
0.000151331
-2.70779e-06
0.000150852
-2.72856e-06
-2.74111e-06
0.000150366
0.000161534
-3.75729e-08
0.000161526
-1.12489e-07
0.000161513
-1.79185e-07
0.000161493
-2.40435e-07
0.000161464
-2.98226e-07
0.000161427
-3.53793e-07
0.000161379
-4.08396e-07
0.000161321
-4.6297e-07
0.000161253
-5.18067e-07
0.000161173
-5.74067e-07
0.000161081
-6.31248e-07
0.000160977
-6.89718e-07
0.000160861
-7.49254e-07
0.000160732
-8.09161e-07
0.00016059
-8.68429e-07
0.000160436
-9.26354e-07
0.000160269
-9.83487e-07
0.000160088
-1.04241e-06
0.000159892
-1.10771e-06
0.000159678
-1.18487e-06
0.000159439
-1.27832e-06
0.000159172
-1.38941e-06
0.000158872
-1.51523e-06
0.000158536
-1.64885e-06
0.000158164
-1.78097e-06
0.000157759
-1.90223e-06
0.000157325
-2.00539e-06
0.000156867
-2.08663e-06
0.000156392
-2.14577e-06
0.000155904
-2.1855e-06
0.000155406
-2.21014e-06
0.000154902
-2.22433e-06