/*--------------------------------*- C++ -*----------------------------------*\
  =========                 |
  \\      /  F ield         | OpenFOAM: The Open Source CFD Toolbox
   \\    /   O peration     | Website:  https://openfoam.org
    \\  /    A nd           | Version:  10
     \\/     M anipulation  |
\*---------------------------------------------------------------------------*/
FoamFile
{
    format      ascii;
    class       volVectorField;
    location    "0.01";
    object      U;
}
// * * * * * * * * * * * * * * * * * * * * * * * * * * * * * * * * * * * * * //

dimensions      [0 1 -1 0 0 0 0];

internalField   nonuniform List<vector> 
6820
(
(7.2821 0.0245197 0)
(7.18065 0.0391763 0)
(7.06236 0.0434398 0)
(6.9407 0.0452247 0)
(6.82261 0.0451793 0)
(6.70944 0.0438439 0)
(6.60286 0.0414907 0)
(6.50501 0.0380991 0)
(6.41807 0.0335695 0)
(6.34438 0.0278363 0)
(6.28612 0.0209861 0)
(6.24474 0.0133446 0)
(6.22036 0.00562629 0)
(6.21088 -0.000888219 0)
(6.21098 -0.00515294 0)
(6.2171 -0.00788986 0)
(6.22769 -0.00998265 0)
(6.24202 -0.0118408 0)
(6.25989 -0.0136404 0)
(6.28144 -0.0154641 0)
(6.30701 -0.0173291 0)
(6.33708 -0.0191955 0)
(6.37212 -0.0209855 0)
(6.41258 -0.0226175 0)
(6.45879 -0.0240512 0)
(6.511 -0.025314 0)
(6.56944 -0.0265434 0)
(6.63457 -0.0279268 0)
(6.70701 -0.0298967 0)
(6.78908 -0.0329295 0)
(6.88187 -0.037711 0)
(6.99858 -0.0521311 0)
(7.13763 -0.053461 0)
(7.35906 0.0254789 0)
(7.42054 0.0346352 0)
(7.47555 0.0355973 0)
(7.5258 0.0365786 0)
(7.57176 0.0366628 0)
(7.6122 0.0360422 0)
(7.64685 0.0348243 0)
(7.67578 0.0328289 0)
(7.69883 0.0298871 0)
(7.71574 0.0259288 0)
(7.72627 0.0210647 0)
(7.73034 0.0156485 0)
(7.72836 0.0103298 0)
(7.72147 0.00600682 0)
(7.71309 0.00297771 0)
(7.7053 0.00073716 0)
(7.69828 -0.00120022 0)
(7.69209 -0.00307574 0)
(7.68673 -0.00510654 0)
(7.68232 -0.00749584 0)
(7.67923 -0.010427 0)
(7.67819 -0.0140543 0)
(7.68032 -0.0184822 0)
(7.687 -0.0237486 0)
(7.69971 -0.0298318 0)
(7.7198 -0.0366781 0)
(7.74836 -0.0442871 0)
(7.78611 -0.0527376 0)
(7.83396 -0.0625352 0)
(7.89174 -0.0742355 0)
(7.96284 -0.0905711 0)
(8.04092 -0.114772 0)
(8.14148 -0.154912 0)
(7.3355 0.00659788 0)
(7.34648 0.00912145 0)
(7.35706 0.0109075 0)
(7.3671 0.0133693 0)
(7.37829 0.0150688 0)
(7.39044 0.0160938 0)
(7.40329 0.0165767 0)
(7.41673 0.0164275 0)
(7.43042 0.0155821 0)
(7.44386 0.0140363 0)
(7.45655 0.0118746 0)
(7.46811 0.00926176 0)
(7.47847 0.00646199 0)
(7.48791 0.00371677 0)
(7.4971 0.000986071 0)
(7.50694 -0.0016935 0)
(7.51805 -0.0042565 0)
(7.53059 -0.00671915 0)
(7.54454 -0.00924248 0)
(7.55992 -0.0120928 0)
(7.57688 -0.015623 0)
(7.59583 -0.0202217 0)
(7.61734 -0.026224 0)
(7.64213 -0.0338296 0)
(7.67098 -0.0430717 0)
(7.70458 -0.0538644 0)
(7.74356 -0.0661044 0)
(7.78842 -0.0798578 0)
(7.83985 -0.0954278 0)
(7.89784 -0.113993 0)
(7.96413 -0.136454 0)
(8.0344 -0.169056 0)
(8.11563 -0.205654 0)
(7.33501 0.00874881 0)
(7.34332 0.0183896 0)
(7.35057 0.0225792 0)
(7.3565 0.0248194 0)
(7.36279 0.0255466 0)
(7.36953 0.0251951 0)
(7.37665 0.0240821 0)
(7.38427 0.0222451 0)
(7.39242 0.0196756 0)
(7.40099 0.0163906 0)
(7.40988 0.0124963 0)
(7.41901 0.00814632 0)
(7.42848 0.00366136 0)
(7.43859 -0.000858028 0)
(7.44959 -0.00496868 0)
(7.46168 -0.00875395 0)
(7.47505 -0.0123925 0)
(7.48986 -0.0160399 0)
(7.50634 -0.01989 0)
(7.52474 -0.0242398 0)
(7.54537 -0.0294763 0)
(7.56855 -0.0360077 0)
(7.5946 -0.0441698 0)
(7.62383 -0.0541537 0)
(7.65658 -0.0659942 0)
(7.69317 -0.0796319 0)
(7.73398 -0.0950213 0)
(7.77934 -0.112297 0)
(7.82982 -0.131844 0)
(7.88532 -0.154696 0)
(7.94681 -0.181801 0)
(8.01123 -0.216888 0)
(8.08084 -0.256682 0)
(7.33407 0.00569381 0)
(7.33956 0.0105815 0)
(7.34582 0.0118726 0)
(7.35187 0.0127395 0)
(7.35842 0.0130975 0)
(7.36542 0.0128381 0)
(7.37277 0.0120569 0)
(7.38053 0.0107201 0)
(7.38873 0.00878983 0)
(7.39731 0.00626494 0)
(7.40623 0.00324292 0)
(7.41551 -0.0001801 0)
(7.42514 -0.00373207 0)
(7.43528 -0.00739117 0)
(7.4462 -0.011127 0)
(7.45809 -0.0149756 0)
(7.47118 -0.0189773 0)
(7.48567 -0.023219 0)
(7.50178 -0.0278907 0)
(7.51975 -0.033307 0)
(7.5399 -0.0398733 0)
(7.56253 -0.0480146 0)
(7.58796 -0.0580868 0)
(7.61649 -0.070309 0)
(7.64842 -0.0847458 0)
(7.68402 -0.101365 0)
(7.72358 -0.12013 0)
(7.76731 -0.141172 0)
(7.81548 -0.164801 0)
(7.86791 -0.191907 0)
(7.92485 -0.223117 0)
(7.98432 -0.260985 0)
(8.0469 -0.303102 0)
(7.33382 0.00451105 0)
(7.33854 0.0105418 0)
(7.34447 0.0139359 0)
(7.35024 0.0161206 0)
(7.35632 0.017097 0)
(7.36284 0.0169523 0)
(7.36973 0.0159235 0)
(7.37703 0.0140912 0)
(7.38477 0.0114904 0)
(7.39289 0.00814448 0)
(7.40133 0.00420712 0)
(7.41011 -0.000228436 0)
(7.41931 -0.00510612 0)
(7.42912 -0.0101766 0)
(7.43979 -0.0153839 0)
(7.45149 -0.0206621 0)
(7.4644 -0.0260595 0)
(7.47868 -0.0317209 0)
(7.49452 -0.0378932 0)
(7.51215 -0.0449394 0)
(7.53189 -0.0533041 0)
(7.55404 -0.0634348 0)
(7.57895 -0.0756922 0)
(7.60689 -0.0902879 0)
(7.63812 -0.107277 0)
(7.67284 -0.126623 0)
(7.71121 -0.148289 0)
(7.75327 -0.172388 0)
(7.79909 -0.199205 0)
(7.8484 -0.229444 0)
(7.90109 -0.263657 0)
(7.95592 -0.303446 0)
(8.0128 -0.347544 0)
(7.33352 0.00346458 0)
(7.33697 0.00805016 0)
(7.34188 0.00997233 0)
(7.34707 0.0106355 0)
(7.35277 0.010429 0)
(7.35903 0.00945204 0)
(7.36573 0.00784768 0)
(7.37287 0.00565711 0)
(7.38045 0.00290563 0)
(7.38847 -0.000453469 0)
(7.39693 -0.00438607 0)
(7.40578 -0.00867594 0)
(7.4151 -0.0132786 0)
(7.42505 -0.0180828 0)
(7.4358 -0.023102 0)
(7.44748 -0.0283666 0)
(7.46024 -0.0339586 0)
(7.47422 -0.0400368 0)
(7.48962 -0.0468713 0)
(7.50667 -0.0548566 0)
(7.52568 -0.064468 0)
(7.54697 -0.0761741 0)
(7.57086 -0.0903414 0)
(7.59766 -0.10717 0)
(7.62758 -0.126686 0)
(7.66077 -0.148811 0)
(7.69729 -0.173454 0)
(7.73711 -0.200656 0)
(7.78012 -0.23062 0)
(7.82601 -0.263875 0)
(7.87451 -0.300899 0)
(7.92476 -0.342763 0)
(7.97651 -0.388946 0)
(7.33338 0.00265126 0)
(7.33621 0.00660448 0)
(7.34069 0.00876218 0)
(7.34569 0.00991369 0)
(7.35117 0.0102114 0)
(7.35715 0.0096157 0)
(7.36357 0.0082031 0)
(7.37041 0.00601029 0)
(7.37764 0.00309138 0)
(7.38522 -0.000436073 0)
(7.39324 -0.00469142 0)
(7.40169 -0.0095494 0)
(7.41063 -0.0149102 0)
(7.4202 -0.0206945 0)
(7.43055 -0.0268638 0)
(7.44184 -0.0333902 0)
(7.45419 -0.0403112 0)
(7.46774 -0.0477795 0)
(7.48266 -0.0560908 0)
(7.49918 -0.0656793 0)
(7.51755 -0.077058 0)
(7.53811 -0.0907188 0)
(7.56114 -0.107028 0)
(7.5869 -0.126165 0)
(7.61558 -0.148118 0)
(7.64725 -0.172764 0)
(7.68188 -0.199967 0)
(7.71935 -0.229712 0)
(7.75945 -0.262149 0)
(7.80183 -0.297695 0)
(7.84615 -0.336798 0)
(7.89179 -0.380264 0)
(7.93844 -0.428033 0)
(7.33328 0.00202189 0)
(7.33555 0.00514933 0)
(7.3394 0.00670113 0)
(7.3439 0.00710896 0)
(7.34891 0.00659686 0)
(7.35449 0.00523043 0)
(7.36053 0.00312497 0)
(7.36703 0.00034266 0)
(7.37403 -0.00315783 0)
(7.38145 -0.00719816 0)
(7.38928 -0.0117732 0)
(7.39761 -0.0168811 0)
(7.40647 -0.0224489 0)
(7.41597 -0.0284177 0)
(7.42624 -0.0347686 0)
(7.43738 -0.0415155 0)
(7.44948 -0.0487423 0)
(7.46265 -0.056651 0)
(7.47705 -0.065591 0)
(7.49287 -0.0760502 0)
(7.51038 -0.088587 0)
(7.52988 -0.103719 0)
(7.55167 -0.121811 0)
(7.57598 -0.143007 0)
(7.60297 -0.167239 0)
(7.63267 -0.194303 0)
(7.665 -0.223979 0)
(7.69976 -0.256162 0)
(7.73669 -0.290921 0)
(7.77538 -0.328572 0)
(7.81547 -0.369532 0)
(7.85644 -0.414471 0)
(7.89796 -0.46359 0)
(7.33321 0.00150091 0)
(7.33511 0.00388976 0)
(7.33854 0.00508297 0)
(7.34274 0.00533029 0)
(7.34752 0.00480006 0)
(7.35286 0.00349835 0)
(7.35868 0.00146099 0)
(7.36492 -0.00124893 0)
(7.37158 -0.00468168 0)
(7.37867 -0.00883794 0)
(7.38617 -0.0136349 0)
(7.39413 -0.0190736 0)
(7.40261 -0.0251188 0)
(7.41171 -0.0317315 0)
(7.42152 -0.0388867 0)
(7.43215 -0.046579 0)
(7.44369 -0.0548699 0)
(7.45624 -0.0639515 0)
(7.46995 -0.0741842 0)
(7.485 -0.0860824 0)
(7.50163 -0.100232 0)
(7.52011 -0.117165 0)
(7.54071 -0.137235 0)
(7.56362 -0.160548 0)
(7.58896 -0.186973 0)
(7.61669 -0.216237 0)
(7.64668 -0.248045 0)
(7.67869 -0.282223 0)
(7.71238 -0.318784 0)
(7.74734 -0.357982 0)
(7.78319 -0.400218 0)
(7.81942 -0.446106 0)
(7.85575 -0.495982 0)
(7.33317 0.00106541 0)
(7.33477 0.00276119 0)
(7.33779 0.00348176 0)
(7.34162 0.00329029 0)
(7.34602 0.00228873 0)
(7.35097 0.000486015 0)
(7.35641 -0.00208887 0)
(7.3623 -0.0053791 0)
(7.36863 -0.00933267 0)
(7.3754 -0.0139652 0)
(7.38261 -0.0192227 0)
(7.39031 -0.0250959 0)
(7.39853 -0.0315637 0)
(7.40737 -0.0385961 0)
(7.4169 -0.0461703 0)
(7.4272 -0.0542903 0)
(7.43833 -0.0630405 0)
(7.45035 -0.072652 0)
(7.4634 -0.083539 0)
(7.47762 -0.0962752 0)
(7.49323 -0.111498 0)
(7.5105 -0.129767 0)
(7.52967 -0.151428 0)
(7.5509 -0.176545 0)
(7.57428 -0.204912 0)
(7.59976 -0.236158 0)
(7.62715 -0.269893 0)
(7.65618 -0.305848 0)
(7.68647 -0.343967 0)
(7.71761 -0.384441 0)
(7.74918 -0.427644 0)
(7.78069 -0.474154 0)
(7.81183 -0.524368 0)
(7.33314 0.000690121 0)
(7.33451 0.00174326 0)
(7.33721 0.00201014 0)
(7.34072 0.00147452 0)
(7.34484 0.000209524 0)
(7.34952 -0.00177647 0)
(7.35469 -0.00446883 0)
(7.3603 -0.00786119 0)
(7.36633 -0.0119315 0)
(7.37278 -0.0166991 0)
(7.37965 -0.0221504 0)
(7.38697 -0.0282907 0)
(7.39479 -0.0351199 0)
(7.40318 -0.0426237 0)
(7.4122 -0.0507826 0)
(7.42192 -0.0595974 0)
(7.43238 -0.0691487 0)
(7.44366 -0.0796713 0)
(7.45586 -0.091596 0)
(7.46913 -0.105522 0)
(7.48366 -0.122111 0)
(7.49968 -0.141928 0)
(7.5174 -0.165298 0)
(7.53695 -0.19223 0)
(7.55838 -0.222443 0)
(7.5816 -0.255474 0)
(7.60639 -0.290845 0)
(7.63243 -0.328213 0)
(7.65932 -0.367463 0)
(7.68665 -0.408745 0)
(7.71397 -0.452417 0)
(7.74081 -0.499033 0)
(7.76687 -0.549012 0)
(7.33312 0.000360495 0)
(7.33431 0.000821318 0)
(7.33671 0.000632135 0)
(7.33992 -0.000287117 0)
(7.34372 -0.00191432 0)
(7.34806 -0.00426288 0)
(7.35288 -0.00733483 0)
(7.35813 -0.0111237 0)
(7.36379 -0.0156122 0)
(7.36987 -0.0208035 0)
(7.37637 -0.0266911 0)
(7.38332 -0.0332799 0)
(7.39076 -0.0405727 0)
(7.39874 -0.0485564 0)
(7.40731 -0.0572075 0)
(7.41651 -0.066524 0)
(7.42639 -0.0765946 0)
(7.43698 -0.0876784 0)
(7.44836 -0.100248 0)
(7.46066 -0.114954 0)
(7.47404 -0.132503 0)
(7.4887 -0.153483 0)
(7.50483 -0.178208 0)
(7.52255 -0.206635 0)
(7.54186 -0.238399 0)
(7.56265 -0.272938 0)
(7.58469 -0.309673 0)
(7.60763 -0.348171 0)
(7.63107 -0.388254 0)
(7.65458 -0.430026 0)
(7.67771 -0.473819 0)
(7.7 -0.520162 0)
(7.72114 -0.569477 0)
(7.3331 6.63309e-05 0)
(7.33415 -1.94346e-05 0)
(7.3363 -0.000652009 0)
(7.33923 -0.00194051 0)
(7.34273 -0.00388927 0)
(7.34677 -0.00651573 0)
(7.35128 -0.0098305 0)
(7.35622 -0.0138366 0)
(7.36155 -0.0185341 0)
(7.36728 -0.0239366 0)
(7.3734 -0.030058 0)
(7.37994 -0.0369198 0)
(7.38692 -0.0445392 0)
(7.39439 -0.052914 0)
(7.40239 -0.0620242 0)
(7.41094 -0.0718681 0)
(7.42007 -0.082537 0)
(7.42981 -0.0943015 0)
(7.44023 -0.107657 0)
(7.45144 -0.123282 0)
(7.46358 -0.141907 0)
(7.47683 -0.164124 0)
(7.49135 -0.190218 0)
(7.5072 -0.220085 0)
(7.52439 -0.253272 0)
(7.54276 -0.28912 0)
(7.56206 -0.326953 0)
(7.58194 -0.366264 0)
(7.60198 -0.406818 0)
(7.62174 -0.448686 0)
(7.64082 -0.492183 0)
(7.65872 -0.537818 0)
(7.67518 -0.586007 0)
(7.33309 -0.000198953 0)
(7.33401 -0.000788624 0)
(7.33594 -0.00184783 0)
(7.3386 -0.00350198 0)
(7.34182 -0.00578221 0)
(7.34554 -0.00872058 0)
(7.34971 -0.0123424 0)
(7.35429 -0.0166615 0)
(7.35924 -0.0216868 0)
(7.36457 -0.0274333 0)
(7.37027 -0.03392 0)
(7.37636 -0.0411714 0)
(7.38286 -0.0492059 0)
(7.3898 -0.058019 0)
(7.39722 -0.0675842 0)
(7.40512 -0.0778936 0)
(7.41352 -0.0890396 0)
(7.42243 -0.101308 0)
(7.4319 -0.115225 0)
(7.44201 -0.13151 0)
(7.45289 -0.150929 0)
(7.46468 -0.174088 0)
(7.4775 -0.201253 0)
(7.49143 -0.232263 0)
(7.50641 -0.26658 0)
(7.5223 -0.303444 0)
(7.53881 -0.342082 0)
(7.55561 -0.381905 0)
(7.57228 -0.422624 0)
(7.58838 -0.464274 0)
(7.60353 -0.507149 0)
(7.61726 -0.551741 0)
(7.62932 -0.59846 0)
(7.33308 -0.000439918 0)
(7.3339 -0.00149402 0)
(7.33562 -0.0029593 0)
(7.33803 -0.0049667 0)
(7.34097 -0.00756425 0)
(7.34439 -0.0107917 0)
(7.34824 -0.0146809 0)
(7.35247 -0.0192523 0)
(7.35705 -0.0245224 0)
(7.36198 -0.0305134 0)
(7.36726 -0.037254 0)
(7.37288 -0.044779 0)
(7.37886 -0.0531155 0)
(7.38523 -0.0622638 0)
(7.392 -0.0721981 0)
(7.39917 -0.0829089 0)
(7.40674 -0.0944915 0)
(7.41473 -0.107244 0)
(7.42315 -0.121717 0)
(7.43208 -0.138658 0)
(7.44163 -0.158855 0)
(7.45191 -0.182916 0)
(7.46302 -0.211075 0)
(7.475 -0.24311 0)
(7.48779 -0.27839 0)
(7.50121 -0.316058 0)
(7.51499 -0.355249 0)
(7.52878 -0.395302 0)
(7.54218 -0.43588 0)
(7.55477 -0.476991 0)
(7.56619 -0.51892 0)
(7.57599 -0.562145 0)
(7.58398 -0.607076 0)
(7.33307 -0.000659759 0)
(7.3338 -0.00214106 0)
(7.33534 -0.00398881 0)
(7.33751 -0.00633446 0)
(7.34018 -0.00923885 0)
(7.34329 -0.0127508 0)
(7.3468 -0.0169108 0)
(7.35067 -0.0217485 0)
(7.35486 -0.0272883 0)
(7.35936 -0.0335581 0)
(7.36417 -0.0405924 0)
(7.36928 -0.0484301 0)
(7.37471 -0.0570995 0)
(7.38047 -0.0665984 0)
(7.38657 -0.0768941 0)
(7.39299 -0.0879698 0)
(7.39972 -0.0999192 0)
(7.40677 -0.113051 0)
(7.41415 -0.127938 0)
(7.42189 -0.145361 0)
(7.4301 -0.166132 0)
(7.43886 -0.190866 0)
(7.44824 -0.219771 0)
(7.45826 -0.252565 0)
(7.46884 -0.288535 0)
(7.47981 -0.326727 0)
(7.49088 -0.366188 0)
(7.50172 -0.406189 0)
(7.51195 -0.446347 0)
(7.52118 -0.486648 0)
(7.52906 -0.527369 0)
(7.53521 -0.568979 0)
(7.53944 -0.611894 0)
(7.33306 -0.000860267 0)
(7.33371 -0.00273345 0)
(7.33508 -0.00493831 0)
(7.33702 -0.00760367 0)
(7.33943 -0.0107986 0)
(7.34224 -0.014578 0)
(7.34542 -0.0189882 0)
(7.34891 -0.0240641 0)
(7.35271 -0.0298355 0)
(7.35677 -0.0363348 0)
(7.36111 -0.0436018 0)
(7.3657 -0.0516806 0)
(7.37056 -0.0606034 0)
(7.37568 -0.070368 0)
(7.38106 -0.0809388 0)
(7.38668 -0.0922952 0)
(7.39253 -0.104532 0)
(7.39859 -0.117966 0)
(7.40487 -0.133194 0)
(7.41139 -0.151018 0)
(7.41822 -0.172273 0)
(7.42544 -0.197569 0)
(7.43309 -0.227084 0)
(7.44116 -0.260474 0)
(7.44957 -0.296939 0)
(7.45813 -0.335436 0)
(7.46658 -0.37493 0)
(7.47457 -0.41463 0)
(7.48178 -0.454118 0)
(7.48783 -0.493364 0)
(7.49241 -0.532644 0)
(7.49518 -0.572429 0)
(7.49599 -0.613145 0)
(7.33305 -0.00104268 0)
(7.33362 -0.00327354 0)
(7.33484 -0.0058083 0)
(7.33657 -0.00877186 0)
(7.33871 -0.0122385 0)
(7.34122 -0.0162685 0)
(7.34406 -0.0209131 0)
(7.34718 -0.0262131 0)
(7.35056 -0.0322039 0)
(7.35418 -0.0389224 0)
(7.35801 -0.0464128 0)
(7.36206 -0.0547224 0)
(7.36631 -0.0638839 0)
(7.37076 -0.0738924 0)
(7.3754 -0.0847053 0)
(7.38021 -0.0962948 0)
(7.38516 -0.108753 0)
(7.39022 -0.122404 0)
(7.39539 -0.13786 0)
(7.40069 -0.15595 0)
(7.40615 -0.177523 0)
(7.41184 -0.20319 0)
(7.41777 -0.233099 0)
(7.42393 -0.266847 0)
(7.43021 -0.30356 0)
(7.43642 -0.342106 0)
(7.44231 -0.381379 0)
(7.44758 -0.420533 0)
(7.4519 -0.459119 0)
(7.45496 -0.4971 0)
(7.45648 -0.534755 0)
(7.45614 -0.572559 0)
(7.45386 -0.610957 0)
(7.33305 -0.0012077 0)
(7.33355 -0.00376264 0)
(7.33461 -0.00659876 0)
(7.33613 -0.00983634 0)
(7.33802 -0.0135525 0)
(7.34023 -0.0178113 0)
(7.34273 -0.0226675 0)
(7.34548 -0.0281658 0)
(7.34844 -0.034345 0)
(7.35159 -0.0412453 0)
(7.35491 -0.0489137 0)
(7.3584 -0.0573998 0)
(7.36203 -0.0667368 0)
(7.3658 -0.0769173 0)
(7.36968 -0.0878936 0)
(7.37364 -0.0996321 0)
(7.37767 -0.112223 0)
(7.38171 -0.125998 0)
(7.38576 -0.141584 0)
(7.38983 -0.15983 0)
(7.39393 -0.181597 0)
(7.39809 -0.20749 0)
(7.40234 -0.237628 0)
(7.40662 -0.27155 0)
(7.41082 -0.308305 0)
(7.41477 -0.346686 0)
(7.41822 -0.385521 0)
(7.42089 -0.423917 0)
(7.4225 -0.461406 0)
(7.42277 -0.497947 0)
(7.42146 -0.53383 0)
(7.4183 -0.56954 0)
(7.41324 -0.605541 0)
(7.33304 -0.00135564 0)
(7.33347 -0.00420124 0)
(7.3344 -0.00730874 0)
(7.33571 -0.0107937 0)
(7.33735 -0.0147346 0)
(7.33927 -0.0191977 0)
(7.34143 -0.0242407 0)
(7.34379 -0.0299114 0)
(7.34633 -0.0362517 0)
(7.349 -0.0433046 0)
(7.3518 -0.0511193 0)
(7.35471 -0.0597467 0)
(7.3577 -0.0692194 0)
(7.36077 -0.0795263 0)
(7.36387 -0.0906133 0)
(7.36699 -0.10244 0)
(7.37008 -0.115091 0)
(7.3731 -0.128905 0)
(7.37604 -0.144519 0)
(7.37889 -0.162797 0)
(7.38165 -0.184612 0)
(7.38433 -0.21056 0)
(7.38693 -0.24073 0)
(7.38938 -0.274609 0)
(7.39159 -0.31118 0)
(7.39336 -0.349168 0)
(7.39448 -0.387344 0)
(7.3947 -0.42478 0)
(7.39377 -0.460994 0)
(7.39144 -0.495948 0)
(7.38753 -0.529947 0)
(7.38183 -0.563489 0)
(7.37428 -0.59706 0)
(7.33304 -0.00148658 0)
(7.3334 -0.00458918 0)
(7.33419 -0.00793681 0)
(7.33531 -0.0116403 0)
(7.33671 -0.0157779 0)
(7.33833 -0.0204174 0)
(7.34015 -0.025618 0)
(7.34213 -0.0314295 0)
(7.34423 -0.0378956 0)
(7.34643 -0.0450608 0)
(7.3487 -0.0529752 0)
(7.35102 -0.0616903 0)
(7.35336 -0.0712373 0)
(7.35571 -0.0816015 0)
(7.35803 -0.0927227 0)
(7.36029 -0.104554 0)
(7.36245 -0.117178 0)
(7.36446 -0.130935 0)
(7.36629 -0.146474 0)
(7.36794 -0.164668 0)
(7.36938 -0.186397 0)
(7.37062 -0.212247 0)
(7.37162 -0.242276 0)
(7.37232 -0.275923 0)
(7.3726 -0.31211 0)
(7.37231 -0.349505 0)
(7.37122 -0.386831 0)
(7.36914 -0.423136 0)
(7.36584 -0.457929 0)
(7.36113 -0.491184 0)
(7.35485 -0.523222 0)
(7.34685 -0.554558 0)
(7.3371 -0.5857 0)
(7.33303 -0.00160041 0)
(7.33334 -0.0049259 0)
(7.33399 -0.00848114 0)
(7.33493 -0.0123722 0)
(7.33608 -0.0166764 0)
(7.33741 -0.021462 0)
(7.33889 -0.026789 0)
(7.34048 -0.0327086 0)
(7.34215 -0.0392656 0)
(7.34387 -0.0465053 0)
(7.3456 -0.0544784 0)
(7.34733 -0.0632358 0)
(7.34902 -0.0728068 0)
(7.35065 -0.0831726 0)
(7.35219 -0.0942667 0)
(7.35359 -0.106036 0)
(7.35482 -0.118558 0)
(7.35582 -0.132174 0)
(7.35658 -0.147539 0)
(7.35705 -0.165534 0)
(7.35722 -0.187038 0)
(7.35706 -0.212628 0)
(7.35653 -0.242331 0)
(7.35555 -0.275544 0)
(7.35401 -0.31114 0)
(7.35174 -0.347738 0)
(7.34859 -0.384027 0)
(7.34435 -0.419039 0)
(7.33886 -0.452285 0)
(7.33196 -0.48375 0)
(7.32355 -0.513777 0)
(7.31348 -0.542896 0)
(7.30179 -0.571635 0)
(7.33302 -0.00169691 0)
(7.33327 -0.00521051 0)
(7.3338 -0.00893945 0)
(7.33455 -0.0129849 0)
(7.33546 -0.0174226 0)
(7.33651 -0.0223199 0)
(7.33766 -0.027737 0)
(7.33886 -0.033725 0)
(7.3401 -0.0403291 0)
(7.34133 -0.0475945 0)
(7.34252 -0.0555715 0)
(7.34366 -0.06431 0)
(7.34469 -0.0738371 0)
(7.34561 -0.0841301 0)
(7.34636 -0.095117 0)
(7.34692 -0.106739 0)
(7.34723 -0.119071 0)
(7.34726 -0.132453 0)
(7.34696 -0.147543 0)
(7.3463 -0.165226 0)
(7.34524 -0.186376 0)
(7.34375 -0.211555 0)
(7.34176 -0.240766 0)
(7.33918 -0.273365 0)
(7.33591 -0.308185 0)
(7.3318 -0.343808 0)
(7.3267 -0.378901 0)
(7.32046 -0.41249 0)
(7.31295 -0.444091 0)
(7.30406 -0.473708 0)
(7.29372 -0.501703 0)
(7.28182 -0.528624 0)
(7.26841 -0.555015 0)
(7.33302 -0.00177579 0)
(7.33321 -0.0054421 0)
(7.33362 -0.0093099 0)
(7.33419 -0.0134756 0)
(7.33487 -0.0180127 0)
(7.33564 -0.0229877 0)
(7.33645 -0.0284602 0)
(7.33728 -0.0344813 0)
(7.33808 -0.0410958 0)
(7.33883 -0.0483483 0)
(7.3395 -0.056288 0)
(7.34004 -0.0649629 0)
(7.34043 -0.074397 0)
(7.34064 -0.0845633 0)
(7.34062 -0.0953846 0)
(7.34034 -0.106796 0)
(7.33976 -0.118868 0)
(7.33883 -0.131938 0)
(7.33752 -0.146663 0)
(7.33577 -0.163923 0)
(7.33354 -0.184586 0)
(7.33077 -0.209199 0)
(7.32739 -0.237737 0)
(7.32331 -0.269527 0)
(7.31841 -0.303373 0)
(7.31257 -0.337836 0)
(7.30566 -0.371573 0)
(7.29758 -0.40361 0)
(7.28822 -0.433479 0)
(7.27752 -0.461203 0)
(7.26544 -0.48716 0)
(7.25192 -0.511914 0)
(7.23701 -0.536023 0)
(7.33301 -0.00183675 0)
(7.33315 -0.00561948 0)
(7.33344 -0.00958957 0)
(7.33383 -0.013838 0)
(7.33429 -0.0184354 0)
(7.33478 -0.0234459 0)
(7.33527 -0.0289276 0)
(7.33572 -0.0349301 0)
(7.3361 -0.0414975 0)
(7.33637 -0.0486731 0)
(7.3365 -0.0565047 0)
(7.33646 -0.0650387 0)
(7.33621 -0.0742967 0)
(7.33572 -0.0842486 0)
(7.33495 -0.0948137 0)
(7.33387 -0.105923 0)
(7.33242 -0.117645 0)
(7.33058 -0.130311 0)
(7.32829 -0.144575 0)
(7.32551 -0.16131 0)
(7.32218 -0.181368 0)
(7.31822 -0.205279 0)
(7.31354 -0.232993 0)
(7.30805 -0.263815 0)
(7.30163 -0.296527 0)
(7.29418 -0.329681 0)
(7.2856 -0.361936 0)
(7.27581 -0.39233 0)
(7.26477 -0.420414 0)
(7.25243 -0.446228 0)
(7.23879 -0.47017 0)
(7.22383 -0.492813 0)
(7.20761 -0.514727 0)
(7.33301 -0.00187961 0)
(7.3331 -0.00574237 0)
(7.33327 -0.00977873 0)
(7.3335 -0.0140747 0)
(7.33374 -0.0186983 0)
(7.33397 -0.0237121 0)
(7.33414 -0.0291725 0)
(7.33423 -0.0351283 0)
(7.33419 -0.0416218 0)
(7.334 -0.0486945 0)
(7.33362 -0.0563917 0)
(7.33301 -0.0647564 0)
(7.33215 -0.0738064 0)
(7.33098 -0.0835076 0)
(7.32948 -0.0937749 0)
(7.32761 -0.104535 0)
(7.32533 -0.115851 0)
(7.32261 -0.128049 0)
(7.31939 -0.14177 0)
(7.31563 -0.157873 0)
(7.31124 -0.177195 0)
(7.30615 -0.200241 0)
(7.30025 -0.226946 0)
(7.29344 -0.2566 0)
(7.28561 -0.28798 0)
(7.27667 -0.319646 0)
(7.26655 -0.350271 0)
(7.25522 -0.378915 0)
(7.24264 -0.405148 0)
(7.22883 -0.429033 0)
(7.2138 -0.45098 0)
(7.19757 -0.471568 0)
(7.1802 -0.491368 0)
(7.333 -0.00190411 0)
(7.33304 -0.00580901 0)
(7.33311 -0.00987149 0)
(7.33317 -0.0141708 0)
(7.3332 -0.0187705 0)
(7.33317 -0.0237295 0)
(7.33303 -0.0291017 0)
(7.33275 -0.0349338 0)
(7.3323 -0.0412667 0)
(7.33165 -0.0481407 0)
(7.33076 -0.0555997 0)
(7.3296 -0.0636851 0)
(7.32812 -0.0724133 0)
(7.32631 -0.0817488 0)
(7.32411 -0.0916058 0)
(7.3215 -0.10191 0)
(7.31844 -0.112721 0)
(7.31489 -0.124359 0)
(7.31082 -0.137451 0)
(7.30615 -0.152836 0)
(7.3008 -0.171326 0)
(7.29468 -0.193403 0)
(7.28766 -0.218982 0)
(7.27964 -0.247343 0)
(7.27051 -0.277269 0)
(7.2602 -0.307337 0)
(7.24867 -0.336247 0)
(7.23591 -0.363086 0)
(7.22195 -0.387454 0)
(7.20681 -0.40943 0)
(7.19055 -0.429433 0)
(7.17319 -0.448046 0)
(7.15482 -0.465838 0)
(7.333 -0.00191068 0)
(7.33299 -0.00582265 0)
(7.33296 -0.0098786 0)
(7.33288 -0.0141532 0)
(7.33272 -0.0187078 0)
(7.33245 -0.0235993 0)
(7.33202 -0.0288795 0)
(7.33142 -0.0345926 0)
(7.33059 -0.0407765 0)
(7.32952 -0.047468 0)
(7.32816 -0.0547066 0)
(7.32647 -0.062529 0)
(7.32443 -0.0709466 0)
(7.32198 -0.07992 0)
(7.31911 -0.0893606 0)
(7.31578 -0.0991915 0)
(7.31196 -0.109466 0)
(7.30762 -0.120493 0)
(7.30271 -0.132879 0)
(7.29717 -0.147437 0)
(7.29091 -0.164949 0)
(7.2838 -0.185873 0)
(7.27574 -0.210113 0)
(7.26659 -0.236956 0)
(7.25627 -0.265209 0)
(7.24471 -0.293484 0)
(7.23191 -0.320521 0)
(7.21787 -0.345449 0)
(7.20266 -0.367892 0)
(7.18634 -0.387946 0)
(7.16899 -0.406035 0)
(7.15066 -0.422733 0)
(7.13142 -0.4386 0)
(7.333 -0.00189877 0)
(7.33294 -0.0057767 0)
(7.33281 -0.00977582 0)
(7.33258 -0.0139612 0)
(7.33222 -0.0183882 0)
(7.3317 -0.0231104 0)
(7.33098 -0.0281772 0)
(7.33003 -0.0336321 0)
(7.32881 -0.0395128 0)
(7.32731 -0.0458562 0)
(7.32547 -0.0527014 0)
(7.32327 -0.0600847 0)
(7.32068 -0.0680178 0)
(7.31765 -0.0764628 0)
(7.31416 -0.0853341 0)
(7.31018 -0.0945575 0)
(7.30569 -0.104185 0)
(7.30065 -0.114512 0)
(7.29503 -0.126126 0)
(7.28873 -0.139804 0)
(7.28167 -0.156292 0)
(7.27372 -0.176016 0)
(7.26472 -0.198863 0)
(7.25457 -0.224128 0)
(7.24316 -0.250646 0)
(7.23047 -0.277075 0)
(7.21649 -0.302207 0)
(7.20129 -0.325213 0)
(7.18495 -0.345753 0)
(7.16757 -0.363936 0)
(7.14924 -0.380185 0)
(7.13004 -0.395067 0)
(7.11005 -0.409126 0)
(7.33299 -0.00187143 0)
(7.33291 -0.00569124 0)
(7.33271 -0.00962313 0)
(7.33237 -0.0137291 0)
(7.33187 -0.0180628 0)
(7.33116 -0.0226737 0)
(7.33021 -0.0276065 0)
(7.32899 -0.0328992 0)
(7.32745 -0.0385844 0)
(7.32558 -0.044693 0)
(7.32333 -0.0512579 0)
(7.32067 -0.0583086 0)
(7.31756 -0.0658509 0)
(7.31397 -0.0738431 0)
(7.30988 -0.082198 0)
(7.30525 -0.0908402 0)
(7.30007 -0.099815 0)
(7.29432 -0.109402 0)
(7.28796 -0.120154 0)
(7.28091 -0.132812 0)
(7.27305 -0.148078 0)
(7.26427 -0.166353 0)
(7.2544 -0.187526 0)
(7.24331 -0.210919 0)
(7.23093 -0.235422 0)
(7.21722 -0.259762 0)
(7.20222 -0.282796 0)
(7.186 -0.303749 0)
(7.16867 -0.322312 0)
(7.15037 -0.338602 0)
(7.13119 -0.353034 0)
(7.11125 -0.366151 0)
(7.0906 -0.378475 0)
(7.33299 -0.00182469 0)
(7.33286 -0.00552831 0)
(7.33256 -0.00929819 0)
(7.33207 -0.0131844 0)
(7.33137 -0.017239 0)
(7.33042 -0.0215132 0)
(7.32918 -0.0260547 0)
(7.32764 -0.0309051 0)
(7.32574 -0.0360998 0)
(7.32348 -0.041672 0)
(7.3208 -0.047656 0)
(7.31769 -0.0540827 0)
(7.31411 -0.0609601 0)
(7.31004 -0.0682516 0)
(7.30544 -0.0758775 0)
(7.30029 -0.0837692 0)
(7.29459 -0.0919721 0)
(7.28831 -0.100751 0)
(7.2814 -0.110628 0)
(7.27378 -0.122291 0)
(7.26532 -0.136393 0)
(7.25587 -0.153291 0)
(7.24527 -0.172857 0)
(7.23338 -0.194434 0)
(7.22012 -0.216966 0)
(7.20548 -0.23925 0)
(7.18952 -0.26022 0)
(7.17235 -0.279162 0)
(7.15411 -0.295802 0)
(7.13496 -0.310272 0)
(7.11502 -0.322974 0)
(7.0944 -0.33443 0)
(7.07319 -0.345135 0)
(7.33299 -0.00177469 0)
(7.33288 -0.00539303 0)
(7.33258 -0.00909052 0)
(7.33208 -0.0129104 0)
(7.33131 -0.0168944 0)
(7.33026 -0.0210815 0)
(7.32887 -0.0255085 0)
(7.32713 -0.0302082 0)
(7.32499 -0.0352084 0)
(7.32242 -0.0405351 0)
(7.3194 -0.0462152 0)
(7.3159 -0.0522715 0)
(7.31187 -0.0587052 0)
(7.3073 -0.0654756 0)
(7.30215 -0.0725027 0)
(7.29642 -0.079717 0)
(7.29009 -0.0871557 0)
(7.28316 -0.0950594 0)
(7.27558 -0.103907 0)
(7.26729 -0.114333 0)
(7.25815 -0.126941 0)
(7.24801 -0.142063 0)
(7.23671 -0.159588 0)
(7.22409 -0.178914 0)
(7.21008 -0.199074 0)
(7.19466 -0.218964 0)
(7.17792 -0.237612 0)
(7.15997 -0.254367 0)
(7.14099 -0.268988 0)
(7.12113 -0.281603 0)
(7.10055 -0.29259 0)
(7.07937 -0.30243 0)
(7.05767 -0.31158 0)
(7.33298 -0.00169194 0)
(7.33278 -0.00506682 0)
(7.33235 -0.0084046 0)
(7.33166 -0.0117623 0)
(7.33069 -0.0152074 0)
(7.3294 -0.018795 0)
(7.32775 -0.0225731 0)
(7.32571 -0.0265822 0)
(7.32326 -0.0308547 0)
(7.32036 -0.0354191 0)
(7.317 -0.0403037 0)
(7.31314 -0.0455333 0)
(7.30875 -0.0511128 0)
(7.30382 -0.0570098 0)
(7.29833 -0.0631571 0)
(7.29226 -0.069499 0)
(7.28561 -0.0760774 0)
(7.27837 -0.0831176 0)
(7.27048 -0.0910555 0)
(7.26185 -0.10046 0)
(7.25234 -0.111855 0)
(7.24175 -0.125515 0)
(7.22991 -0.141302 0)
(7.21667 -0.158642 0)
(7.20195 -0.176638 0)
(7.18577 -0.194288 0)
(7.16824 -0.210719 0)
(7.1495 -0.225364 0)
(7.12976 -0.238027 0)
(7.10921 -0.248848 0)
(7.08802 -0.258188 0)
(7.06632 -0.266496 0)
(7.04421 -0.27419 0)
(7.33301 -0.00167351 0)
(7.33299 -0.00510559 0)
(7.33275 -0.00855675 0)
(7.3322 -0.0120311 0)
(7.33129 -0.0155627 0)
(7.33 -0.0191884 0)
(7.32828 -0.0229459 0)
(7.32612 -0.0268698 0)
(7.32349 -0.0309893 0)
(7.32036 -0.0353295 0)
(7.31671 -0.0399134 0)
(7.31251 -0.0447576 0)
(7.30773 -0.0498589 0)
(7.30235 -0.0551794 0)
(7.29633 -0.0606505 0)
(7.28968 -0.066214 0)
(7.28241 -0.0718981 0)
(7.27451 -0.0778938 0)
(7.26597 -0.0845808 0)
(7.25673 -0.0924615 0)
(7.24664 -0.10201 0)
(7.23554 -0.113483 0)
(7.22322 -0.126786 0)
(7.20951 -0.141435 0)
(7.19431 -0.156662 0)
(7.17763 -0.171596 0)
(7.15955 -0.185475 0)
(7.14024 -0.197808 0)
(7.11993 -0.208427 0)
(7.09883 -0.217453 0)
(7.07711 -0.225198 0)
(7.05494 -0.23205 0)
(7.03238 -0.238368 0)
(7.33295 -0.00149521 0)
(7.33268 -0.00429648 0)
(7.33222 -0.0068987 0)
(7.33147 -0.00944891 0)
(7.33038 -0.0120336 0)
(7.3289 -0.0146976 0)
(7.32698 -0.0174869 0)
(7.3246 -0.0204384 0)
(7.32173 -0.0235763 0)
(7.31836 -0.0269215 0)
(7.31447 -0.0304949 0)
(7.31004 -0.0343137 0)
(7.30506 -0.0383798 0)
(7.2995 -0.0426686 0)
(7.29336 -0.0471343 0)
(7.28664 -0.0517471 0)
(7.27935 -0.0565563 0)
(7.27147 -0.0617475 0)
(7.26296 -0.0676517 0)
(7.25369 -0.0746768 0)
(7.24347 -0.0831738 0)
(7.23206 -0.093287 0)
(7.21923 -0.104854 0)
(7.20482 -0.117404 0)
(7.18875 -0.130256 0)
(7.17108 -0.142685 0)
(7.15198 -0.154087 0)
(7.13169 -0.164094 0)
(7.11046 -0.172613 0)
(7.08854 -0.179786 0)
(7.06613 -0.185899 0)
(7.04337 -0.191289 0)
(7.02034 -0.196254 0)
(7.33311 -0.00185827 0)
(7.33347 -0.00551596 0)
(7.33349 -0.0088082 0)
(7.33299 -0.0118501 0)
(7.33202 -0.0147636 0)
(7.33057 -0.0176135 0)
(7.32861 -0.0204668 0)
(7.32613 -0.0233794 0)
(7.3231 -0.0263887 0)
(7.31952 -0.029521 0)
(7.31535 -0.0327939 0)
(7.31057 -0.0362145 0)
(7.30514 -0.0397717 0)
(7.29903 -0.0434308 0)
(7.29221 -0.0471396 0)
(7.28467 -0.0508566 0)
(7.27645 -0.054598 0)
(7.26755 -0.0584836 0)
(7.25802 -0.0627517 0)
(7.2478 -0.0677195 0)
(7.23678 -0.0736908 0)
(7.22478 -0.0808403 0)
(7.21159 -0.0891226 0)
(7.19701 -0.0982479 0)
(7.18091 -0.107741 0)
(7.16325 -0.117059 0)
(7.14413 -0.125722 0)
(7.12372 -0.133409 0)
(7.10226 -0.140001 0)
(7.08001 -0.145566 0)
(7.05722 -0.150298 0)
(7.03409 -0.154441 0)
(7.01075 -0.158228 0)
(7.33297 -0.000968563 0)
(7.33307 -0.00270517 0)
(7.33316 -0.00425902 0)
(7.33279 -0.0058043 0)
(7.33194 -0.00735237 0)
(7.33062 -0.00892614 0)
(7.32878 -0.0105646 0)
(7.32645 -0.0122867 0)
(7.32362 -0.0141048 0)
(7.32031 -0.0160339 0)
(7.31655 -0.0180878 0)
(7.31233 -0.0202738 0)
(7.30768 -0.0225873 0)
(7.30263 -0.025013 0)
(7.2972 -0.0275403 0)
(7.29143 -0.0301921 0)
(7.28534 -0.0330566 0)
(7.27894 -0.0362991 0)
(7.27214 -0.040137 0)
(7.26481 -0.0447774 0)
(7.25668 -0.0503353 0)
(7.24746 -0.0567661 0)
(7.23683 -0.0638406 0)
(7.22456 -0.0711775 0)
(7.21053 -0.0783306 0)
(7.19478 -0.0849021 0)
(7.1775 -0.0906348 0)
(7.15897 -0.0954519 0)
(7.13953 -0.0994409 0)
(7.11951 -0.102798 0)
(7.09917 -0.105753 0)
(7.07872 -0.108517 0)
(7.05824 -0.111236 0)
(7.3345 -0.00429135 0)
(7.3397 -0.00878993 0)
(7.34591 -0.0114393 0)
(7.35273 -0.0136602 0)
(7.36007 -0.0155617 0)
(7.36773 -0.0172774 0)
(7.3756 -0.0189701 0)
(7.38364 -0.0207126 0)
(7.39182 -0.0225377 0)
(7.4001 -0.0244675 0)
(7.40843 -0.0265121 0)
(7.41675 -0.0286691 0)
(7.42497 -0.0309231 0)
(7.433 -0.0332442 0)
(7.44073 -0.0355919 0)
(7.44799 -0.0379264 0)
(7.45457 -0.0402268 0)
(7.46014 -0.0425078 0)
(7.46428 -0.0448244 0)
(7.46652 -0.0472594 0)
(7.46641 -0.0498945 0)
(7.46361 -0.0527761 0)
(7.45803 -0.0558922 0)
(7.44977 -0.0591686 0)
(7.43919 -0.0624919 0)
(7.4268 -0.0657502 0)
(7.41315 -0.0688603 0)
(7.39876 -0.071777 0)
(7.38404 -0.0744912 0)
(7.36923 -0.0770201 0)
(7.35443 -0.0794006 0)
(7.33966 -0.0816654 0)
(7.32479 -0.0838621 0)
(7.32957 -0.00454423 0)
(7.32284 -0.0100258 0)
(7.31117 -0.0138051 0)
(7.29642 -0.0170744 0)
(7.28001 -0.0199551 0)
(7.26199 -0.0225747 0)
(7.24242 -0.0250859 0)
(7.22142 -0.0275698 0)
(7.19905 -0.0300642 0)
(7.17529 -0.0325837 0)
(7.15017 -0.0351217 0)
(7.1237 -0.0376532 0)
(7.09592 -0.040137 0)
(7.06692 -0.0425103 0)
(7.03679 -0.0446745 0)
(7.00571 -0.0464835 0)
(6.97391 -0.0477517 0)
(6.94169 -0.0482941 0)
(6.90935 -0.0479955 0)