/*--------------------------------*- C++ -*----------------------------------*\
  =========                 |
  \\      /  F ield         | OpenFOAM: The Open Source CFD Toolbox
   \\    /   O peration     | Website:  https://openfoam.org
    \\  /    A nd           | Version:  10
     \\/     M anipulation  |
\*---------------------------------------------------------------------------*/
FoamFile
{
    format      ascii;
    class       volScalarField;
    location    "0.04";
    object      epsilon;
}
// * * * * * * * * * * * * * * * * * * * * * * * * * * * * * * * * * * * * * //

dimensions      [0 2 -3 0 0 0 0];

internalField   nonuniform List<scalar> 
6820
(
23.2969
22.5752
21.9094
21.2854
20.702
20.1635
19.6737
19.2346
18.8456
18.5046
18.2082
17.9527
17.7343
17.549
17.3933
17.264
17.1579
17.0725
17.0051
16.9537
16.9162
16.891
16.8764
16.8712
16.874
16.8839
16.8995
16.9229
16.9392
17.0151
16.8349
17.8771
13.2065
5.03384
6.81812
7.83888
8.46674
8.89655
9.22894
9.51762
9.78891
10.0547
10.32
10.5865
10.8544
11.1235
11.3931
11.6627
11.9316
12.1992
12.4649
12.7281
12.9885
13.2458
13.4997
13.7503
13.9977
14.2424
14.4852
14.7279
14.9727
15.2237
15.4955
15.7637
16.2476
16.2826
3.7036
4.14722
4.56525
4.91412
5.19765
5.43061
5.62702
5.79805
5.95211
6.09527
6.23179
6.36454
6.4954
6.62555
6.75569
6.88622
7.01728
7.14891
7.28104
7.41357
7.54638
7.67934
7.81238
7.94546
8.07864
8.21214
8.34629
8.48199
8.61975
8.76352
8.91033
9.07782
9.24593
3.54008
3.61092
3.7247
3.85366
3.98106
4.09921
4.20585
4.3014
4.38732
4.46538
4.53729
4.60454
4.66835
4.72971
4.78937
4.84792
4.90578
4.96327
5.0206
5.07792
5.13536
5.19297
5.25084
5.30902
5.36761
5.42673
5.48657
5.54748
5.60986
5.67473
5.74263
5.8159
5.8963
3.52064
3.50152
3.50498
3.52611
3.55865
3.59714
3.63767
3.67781
3.71628
3.75254
3.78648
3.81825
3.84811
3.87634
3.90325
3.92911
3.95416
3.97861
4.00262
4.02635
4.04991
4.0734
4.0969
4.1205
4.14429
4.16836
4.19285
4.21793
4.24385
4.27099
4.29979
4.33101
4.3653
3.5194
3.48246
3.45302
3.43231
3.41994
3.41449
3.41419
3.41744
3.42295
3.42977
3.43727
3.44501
3.45276
3.46036
3.46777
3.47497
3.48198
3.48883
3.49557
3.50223
3.50887
3.51552
3.52224
3.52906
3.53604
3.54324
3.55073
3.55862
3.56702
3.57615
3.58624
3.59767
3.61079
3.51943
3.47974
3.44283
3.40949
3.38026
3.35525
3.33422
3.3167
3.30213
3.28996
3.2797
3.27094
3.26337
3.25671
3.25078
3.24544
3.24058
3.23613
3.23203
3.22825
3.22476
3.22155
3.21862
3.21596
3.21358
3.2115
3.20975
3.20838
3.20745
3.20707
3.20738
3.20857
3.21086
3.51947
3.47943
3.44108
3.40467
3.37042
3.33854
3.3091
3.2821
3.2574
3.23485
3.21424
3.19535
3.17797
3.16193
3.14705
3.13318
3.12021
3.10804
3.09657
3.08574
3.07548
3.06576
3.05654
3.04778
3.03946
3.03157
3.02412
3.01712
3.01059
3.00458
2.99918
2.99449
2.99067
3.51948
3.47941
3.44085
3.40382
3.36836
3.3345
3.30229
3.27174
3.24286
3.21562
3.18994
3.16576
3.14298
3.1215
3.10123
3.08207
3.06394
3.04675
3.03042
3.0149
3.00011
2.98601
2.97255
2.95969
2.9474
2.93565
2.92444
2.91374
2.90358
2.89397
2.88496
2.87662
2.86905
3.51948
3.4794
3.44081
3.40368
3.36797
3.33363
3.30066
3.26903
3.23872
3.20971
3.18197
3.15547
3.13017
3.10601
3.08295
3.06093
3.0399
3.0198
3.00058
2.98219
2.96458
2.94771
2.93154
2.91604
2.90117
2.8869
2.87321
2.86011
2.84757
2.83562
2.82428
2.8136
2.80365
3.51948
3.4794
3.4408
3.40365
3.36789
3.33346
3.3003
3.26839
3.23766
3.20809
3.17965
3.15229
3.12599
3.10071
3.07641
3.05306
3.03062
3.00906
2.98833
2.9684
2.94923
2.9308
2.91306
2.896
2.87958
2.86378
2.84859
2.834
2.81999
2.80658
2.79379
2.78165
2.77021
3.51948
3.4794
3.4408
3.40364
3.36787
3.33341
3.30022
3.26823
3.2374
3.20768
3.17902
3.15139
3.12476
3.09907
3.0743
3.05042
3.02739
3.00519
2.98377
2.96312
2.9432
2.92399
2.90545
2.88758
2.87033
2.85371
2.83769
2.82226
2.80742
2.79318
2.77955
2.76656
2.75424
3.51947
3.47939
3.44079
3.40363
3.36785
3.33339
3.30018
3.26818
3.23732
3.20756
3.17884
3.15114
3.1244
3.09858
3.07366
3.04959
3.02635
3.0039
2.98222
2.96127
2.94103
2.92148
2.90259
2.88434
2.86671
2.84969
2.83326
2.81742
2.80217
2.7875
2.77343
2.75998
2.74718
3.51947
3.47939
3.44079
3.40362
3.36784
3.33337
3.30016
3.26815
3.23728
3.2075
3.17877
3.15104
3.12427
3.09842
3.07345
3.04932
3.02601
3.00348
2.9817
2.96065
2.94029
2.92061
2.90158
2.88318
2.86539
2.84821
2.83161
2.81559
2.80014
2.78528
2.77101
2.75734
2.74429
3.51947
3.47939
3.44078
3.40362
3.36783
3.33336
3.30014
3.26812
3.23724
3.20746
3.17873
3.15099
3.12421
3.09834
3.07335
3.04921
3.02587
3.00331
2.9815
2.96041
2.94002
2.92029
2.90121
2.88276
2.86492
2.84767
2.83101
2.81492
2.7994
2.78446
2.77009
2.75631
2.74314
3.51947
3.47939
3.44078
3.40361
3.36782
3.33334
3.30012
3.2681
3.23722
3.20743
3.17869
3.15094
3.12415
3.09828
3.07328
3.04913
3.02579
3.00322
2.98139
2.96029
2.93988
2.92014
2.90104
2.88257
2.86471
2.84744
2.83076
2.81465
2.7991
2.78412
2.76971
2.75588
2.74263
3.51947
3.47939
3.44078
3.40361
3.36781
3.33333
3.30011
3.26808
3.23719
3.2074
3.17865
3.1509
3.12411
3.09823
3.07322
3.04906
3.02571
3.00314
2.98131
2.9602
2.93978
2.92003
2.90093
2.88245
2.86458
2.84731
2.83061
2.81449
2.79893
2.78393
2.76949
2.75562
2.74232
3.51947
3.47939
3.44078
3.4036
3.36781
3.33332
3.30009
3.26806
3.23717
3.20737
3.17862
3.15086
3.12406
3.09818
3.07317
3.049
3.02565
3.00306
2.98123
2.96011
2.93969
2.91993
2.90082
2.88234
2.86447
2.84719
2.83048
2.81435
2.79878
2.78376
2.7693
2.75539
2.74203
3.51947
3.47939
3.44077
3.4036
3.3678
3.33331
3.30008
3.26805
3.23715
3.20735
3.17859
3.15083
3.12402
3.09813
3.07312
3.04895
3.02558
3.00299
2.98115
2.96003
2.9396
2.91984
2.90072
2.88223
2.86435
2.84706
2.83035
2.8142
2.79861
2.78357
2.76908
2.75513
2.74172
3.51947
3.47938
3.44077
3.4036
3.3678
3.33331
3.30007
3.26803
3.23713
3.20733
3.17856
3.1508
3.12398
3.09809
3.07307
3.04889
3.02552
3.00292
2.98107
2.95994
2.93951
2.91974
2.90061
2.88211
2.86422
2.84692
2.8302
2.81403
2.79843
2.78336
2.76884
2.75485
2.74139
3.51947
3.47938
3.44077
3.4036
3.36779
3.3333
3.30006
3.26802
3.23712
3.20731
3.17854
3.15077
3.12395
3.09805
3.07302
3.04884
3.02546
3.00286
2.981
2.95986
2.93941
2.91963
2.9005
2.88199
2.86409
2.84677
2.83003
2.81385
2.79822
2.78313
2.76857
2.75454
2.74102
3.51947
3.47938
3.44077
3.40359
3.36779
3.3333
3.30006
3.26801
3.2371
3.20729
3.17852
3.15074
3.12392
3.09801
3.07298
3.04878
3.0254
3.00279
2.98092
2.95978
2.93932
2.91953
2.90039
2.88186
2.86395
2.84662
2.82986
2.81366
2.798
2.78288
2.76828
2.7542
2.74064
3.51947
3.47938
3.44077
3.40359
3.36779
3.33329
3.30005
3.268
3.23709
3.20727
3.1785
3.15071
3.12389
3.09797
3.07293
3.04873
3.02534
3.00272
2.98085
2.95969
2.93922
2.91942
2.90027
2.88173
2.8638
2.84645
2.82967
2.81344
2.79776
2.78261
2.76797
2.75385
2.74023
3.51947
3.47938
3.44077
3.40359
3.36779
3.33329
3.30004
3.26799
3.23708
3.20726
3.17848
3.15069
3.12386
3.09794
3.07289
3.04869
3.02529
3.00266
2.98078
2.95961
2.93913
2.91932
2.90014
2.88159
2.86364
2.84628
2.82947
2.81322
2.79751
2.78232
2.76765
2.75348
2.7398
3.51947
3.47938
3.44077
3.40359
3.36778
3.33329
3.30004
3.26799
3.23707
3.20724
3.17846
3.15067
3.12383
3.0979
3.07285
3.04864
3.02523
3.00259
2.9807
2.95952
2.93903
2.9192
2.90002
2.88145
2.86348
2.8461
2.82927
2.81299
2.79725
2.78203
2.76732
2.7531
2.73937
3.51947
3.47938
3.44077
3.40359
3.36778
3.33328
3.30004
3.26798
3.23706
3.20723
3.17844
3.15065
3.12381
3.09787
3.07282
3.04859
3.02518
3.00253
2.98063
2.95944
2.93894
2.9191
2.89989
2.88131
2.86332
2.84591
2.82906
2.81276
2.79699
2.78173
2.76698
2.75272
2.73894
3.51947
3.47938
3.44077
3.40359
3.36778
3.33328
3.30003
3.26797
3.23705
3.20722
3.17843
3.15063
3.12378
3.09784
3.07278
3.04855
3.02512
3.00247
2.98055
2.95935
2.93884
2.91898
2.89976
2.88116
2.86316
2.84573
2.82885
2.81252
2.79672
2.78143
2.76664
2.75233
2.7385
3.51947
3.47938
3.44077
3.40359
3.36778
3.33328
3.30003
3.26797
3.23705
3.20721
3.17842
3.15061
3.12376
3.09782
3.07275
3.04851
3.02508
3.00241
2.98049
2.95927
2.93875
2.91888
2.89964
2.88102
2.863
2.84555
2.82865
2.81229
2.79646
2.78113
2.7663
2.75196
2.73808
3.51947
3.47939
3.44077
3.40359
3.36778
3.33328
3.30003
3.26796
3.23704
3.2072
3.1784
3.15059
3.12373
3.09778
3.07271
3.04846
3.02502
3.00235
2.98041
2.95919
2.93865
2.91876
2.89952
2.88088
2.86283
2.84536
2.82844
2.81206
2.7962
2.78084
2.76598
2.75159
2.73767
3.51947
3.47939
3.44077
3.40359
3.36778
3.33328
3.30003
3.26797
3.23704
3.2072
3.1784
3.15059
3.12373
3.09777
3.07269
3.04844
3.02499
3.00231
2.98036
2.95913
2.93857
2.91868
2.89941
2.88076
2.86269
2.8452
2.82826
2.81185
2.79596
2.78057
2.76568
2.75126
2.7373
3.51947
3.47939
3.44078
3.4036
3.36779
3.33328
3.30003
3.26796
3.23703
3.20719
3.17838
3.15057
3.1237
3.09774
3.07265
3.0484
3.02494
3.00225
2.9803
2.95905
2.93849
2.91858
2.8993
2.88063
2.86255
2.84504
2.82808
2.81165
2.79574
2.78033
2.7654
2.75095
2.73696
3.51947
3.47938
3.44077
3.40359
3.36779
3.3333
3.30005
3.26799
3.23707
3.20723
3.17843
3.15061
3.12375
3.09778
3.07269
3.04843
3.02497
3.00227
2.98031
2.95906
2.93848
2.91857
2.89928
2.8806
2.86251
2.84499
2.82802
2.81158
2.79565
2.78022
2.76528
2.75081
2.7368
3.51948
3.4794
3.4408
3.40363
3.36783
3.33333
3.30008
3.26802
3.23709
3.20725
3.17844
3.15063
3.12376
3.09781
3.07272
3.04847
3.02501
3.00233
2.98038
2.95914
2.93859
2.91869
2.89943
2.88077
2.86271
2.84521
2.82827
2.81186
2.79596
2.78057
2.76566
2.75122
2.73724
3.51947
3.47939
3.44079
3.40365
3.36788
3.33343
3.30022
3.2682
3.23731
3.2075
3.17874
3.15097
3.12415
3.09825
3.07323
3.04905
3.02568
3.0031
2.98126
2.96014
2.93972
2.91997
2.90086
2.88237
2.86448
2.84717
2.83043
2.81422
2.79853
2.78336
2.76867
2.75446
2.74071
3.51949
3.47948
3.44096
3.40387
3.36813
3.33371
3.30057
3.26864
3.2379
3.20829
3.17977
3.1523
3.12584
3.10036
3.0758
3.05214
3.02935
3.00737
2.98619
2.96577
2.94608
2.92709
2.90877
2.8911
2.87405
2.85759
2.84171
2.82637
2.81157
2.79727
2.78347
2.77014
2.75727
3.5195
3.47952
3.44117
3.40445
3.36932
3.33569
3.30354
3.27282
3.2435
3.21553
3.18886
3.16345
3.13924
3.11616
3.09417
3.07321
3.05321
3.03412
3.01589
2.99847
2.9818
2.96585
2.95056
2.9359
2.92183
2.90831
2.89531
2.8828
2.87075
2.85913
2.84792
2.83709
2.82662
3.51969
3.48125
3.44563
3.41285
3.38288
3.35571
3.3312
3.30918
3.28944
3.27176
3.25592
3.24172
3.22895
3.21745
3.20706
3.19763
3.18903
3.18114
3.17386
3.1671
3.16077
3.1548
3.14914
3.14371
3.13847
3.13337
3.12838
3.12346
3.11858
3.1137
3.10882
3.10389
3.09893
3.52528
3.51358
3.51586
3.52889
3.54982
3.57664
3.60771
3.64177
3.67786
3.71525
3.75335
3.79172
3.83001
3.86794
3.90529
3.94193
3.97772
4.01259
4.04647
4.07935
4.11119
4.14201
4.17182
4.20063
4.2285
4.25545
4.28154
4.30682
4.33136
4.35523
4.37849
4.40123
4.42351
3.83319
4.36534
4.84966
5.31611
5.77871
6.23287
6.67438
7.10154
7.51412
7.91268
8.29817
8.67167
9.0343
9.38708
9.73099
10.0669
10.3956
10.718
11.0345
11.3459
11.6528
11.9558
12.2553
12.5518
12.8458
13.1378
13.4281
13.7172
14.0054
14.293
14.5804
14.8678
15.1554
30.2663
32.7713
35.3128
37.8652
40.4149
42.9529
45.471
47.9616
50.4175
52.8325
55.201
57.5179
59.7791
61.9808
64.1203
66.195
68.203
70.1432
72.0143
73.816
75.5481
77.2105
78.8038
80.3284
81.7853
83.1754
84.4998
85.7597
86.9564
88.0913
89.1661
90.1817
91.1413
87.6294
263.311
503.322
739.427
894.934
936.68
888.762
797.915
701.214
616.996
549.925
498.229
458.467
427.056
400.441
375.816
350.708
322.787
289.936
250.651
204.776
154.431
104.519
61.7531
31.6364
15.2249
8.74073
7.03235
6.95505
7.32792
7.78799
8.21286
8.5491
8.77377
8.88515
8.89582
8.82559
8.69598
8.52711
8.33632
8.13801
7.94381
7.76264
7.60046
7.4602
7.34203
7.24424
7.16439
7.09985
7.04731
7.00134
6.95284
6.88843
6.7915
6.64486
6.43424
6.15167
5.79787
5.38301
4.92573
4.45051
3.98376
3.54949
3.1656
2.84171
2.57916
2.37276
2.21361
2.0918
1.99832
1.92601
1.86958
1.8253
1.79051
1.76325
1.742
1.72555
1.71291
1.70327
1.69599
1.69055
1.68651
1.68356
1.68142
1.6799
1.67883
1.6781
1.67761
1.67728
1.67707
1.67693
1.67684
1.67677
1.67671
1.67666
1.67659
1.67652
1.67643
1.67635
1.67615
18.8666
29.5468
57.6922
114.95
203.57
309.024
407.34
478.846
515.853
521.921
506.29
478.768
445.023
408.383
370.96
333.051
293.902
252.588
208.756
163.215
118.309
77.7545
45.544
24.0779
12.6821
8.0448
6.63915
6.43709
6.64683
6.9946
7.36913
7.70895
7.97654
8.15396
8.23955
8.24284
8.17918
8.06551
7.9179
7.75048
7.57525
7.40222
7.23936
7.0923
6.96408
6.85521
6.76445
6.68994
6.62985
6.58212
6.54303
6.50544
6.45782
6.38485
6.26979
6.09786
5.85965
5.55364
5.18732
4.77648
4.34299
3.91129
3.5044
3.14025
2.82944
2.57481
2.37282
2.21596
2.09531
2.00247
1.93052
1.87429
1.83006
1.79518
1.76772
1.74619
1.72939
1.71639
1.70638
1.69873
1.69294
1.68858
1.68533
1.68293
1.68117
1.6799
1.67898
1.67832
1.67785
1.67751
1.67726
1.67708
1.67693
1.6768
1.67668
1.67656
1.67645
1.67632
1.6762
1.67596
9.42263
9.59686
9.65222
11.4062
18.7629
36.0632
65.3947
104.031
145.219
181.714
208.497
223.326
226.763
219.922
204.32
181.931
154.861
125.226
95.2439
67.2845
43.6761
26.1453
15.1137
9.41643
7.00341
6.1528
5.9603
6.06335
6.31108
6.62087
6.93574
7.21478
7.43173
7.57429
7.64181
7.64184
7.58628
7.48841
7.36101
7.21554
7.06197
6.90889
6.76341
6.63087
6.51434
6.41459
6.3307
6.2611
6.20451
6.15985
6.12495
6.0947
6.05961
6.00601
5.91798
5.78047
5.58281
5.32135
5.00089
4.63433
4.24087
3.84293
3.46243
3.11726
2.81892
2.57172
2.37371
2.21879
2.09905
2.00665
1.93494
1.87883
1.83462
1.79965
1.772
1.75019
1.73307
1.71969
1.70931
1.70129
1.69514
1.69044
1.68688
1.6842
1.68218
1.68068
1.67955
1.67872
1.67809
1.67761
1.67724
1.67694
1.6767
1.67649
1.6763
1.67613
1.67595
1.67578
1.67563
1.67534
5.99795
6.11763
6.08975
5.65109
4.86391
4.74563
6.46296
10.6573
17.5149
26.3802
35.7029
43.4118
48.8287
51.3144
50.5007
46.532
40.087
32.2518
24.2909
17.3526
12.1628
8.83515
6.97365
6.02974
5.59976
5.471
5.53353
5.71703
5.96856
6.24523
6.51225
6.7432
6.92079
7.03697
7.09182
7.09124
7.04442
6.96167
6.8531
6.72794
6.59445
6.45998
6.3309
6.21221
6.10703
6.01631
5.9393
5.8746
5.82117
5.7786
5.74604
5.72026
5.69394
5.65532
5.58958
5.48179
5.32029
5.0995
4.82165
4.49682
4.14153
3.77611
3.42124
3.09465
2.80858
2.56868
2.37456
2.22149
2.10255
2.0105
1.93898
1.88297
1.83879
1.80376
1.77596
1.75392
1.73651
1.72281
1.71207
1.7037
1.6972
1.69217
1.6883
1.68532
1.68304
1.6813
1.67996
1.67893
1.67813
1.6775
1.677
1.67659
1.67625
1.67595
1.67569
1.67544
1.67521
1.67499
1.6748
1.67445
4.41058
4.47601
4.55361
4.5933
4.47252
4.13777
3.74047
3.56422
3.90631
4.88475
6.41114
8.32401
9.91393
10.9335
11.29
11.0053
10.2128
9.12639
7.9789
6.95352
6.14491
5.56924
5.20351
5.01552
4.97237
5.04195
5.19444
5.40229
5.63946
5.88158
6.10716
6.29906
6.44583
6.54217
6.5884
6.58904
6.55106
6.48244
6.39109
6.28445
6.16933
6.05202
5.9382
5.83258
5.73826
5.65639
5.58632
5.52667
5.47644
5.43558
5.40423
5.38083
5.3602
5.33259
5.28464
5.20187
5.07194
4.88764
4.64885
4.36292
4.04376
3.70953
3.3796
3.07133
2.79752
2.56501
2.37486
2.22366
2.10551
2.01379
1.94244
1.88654
1.84241
1.80737
1.77948
1.75727
1.73963
1.72565
1.71461
1.70592
1.69909
1.69375
1.68958
1.68633
1.68379
1.68181
1.68026
1.67903
1.67806
1.67728
1.67665
1.67612
1.67567
1.67528
1.67493
1.67462
1.67433
1.67405
1.67382
1.67341
3.62917
3.6571
3.69633
3.74713
3.79574
3.80792
3.75159
3.63796
3.54495
3.56843
3.77636
4.15422
4.55295
4.88549
5.1036
5.19177
5.16251
5.04832
4.8906
4.72904
4.59467
4.50775
4.47862
4.50976
4.59779
4.7352
4.91131
5.113
5.32556
5.53393
5.72411
5.88456
6.00744
6.08906
6.12973
6.13276
6.1034
6.04772
5.97192
5.88196
5.78344
5.68175
5.58197
5.4885
5.40447
5.33115
5.26801
5.21361
5.16683
5.12771
5.09702
5.07462
5.05726
5.0373
5.00302
4.94071
4.83775
4.68563
4.48211
4.23205
3.9468
3.64235
3.33664
3.0465
2.78505
2.56017
2.37419
2.22502
2.10773
2.01636
1.94518
1.88941
1.84536
1.81036
1.78244
1.76013
1.74233
1.72814
1.71685
1.70789
1.70079
1.69517
1.69073
1.68722
1.68444
1.68224
1.68048
1.67907
1.67793
1.677
1.67623
1.67559
1.67503
1.67455
1.67412
1.67374
1.67339
1.67306
1.67278
1.67232
3.21549
3.22462
3.24011
3.26385
3.29637
3.33422
3.36829
3.38817
3.39307
3.39725
3.42754
3.49518
3.58926
3.69143
3.78455
3.85746
3.90666
3.93567
3.95295
3.96927
3.99539
4.04031
4.11028
4.20843
4.33479
4.48643
4.65774
4.84092
5.02656
5.2046
5.36541
5.50089
5.60542
5.67628
5.71357
5.71965
5.69838
5.65437
5.59243
5.51732
5.43367
5.34607
5.25905
5.17677
5.10234
5.03715
4.98083
4.93183
4.88883
4.85172
4.82162
4.79942
4.7836
4.76853
4.74429
4.69823
4.61779
4.49352
4.3214
4.10401
3.85029
3.57411
3.29185
3.01963
2.77072
2.55376
2.37228
2.22535
2.10906
2.0181
1.94711
1.89147
1.84755
1.81263
1.78473
1.7624
1.7445
1.73018
1.71871
1.70955
1.70223
1.69638
1.69171
1.68797
1.68498
1.68258
1.68064
1.67906
1.67776
1.67669
1.6758
1.67504
1.67439
1.67382
1.67332
1.67287
1.67246
1.67207
1.67176
1.67124
2.98764
2.98665
2.98956
2.99769
3.01199
3.03284
3.05938
3.08907
3.11894
3.14776
3.17827
3.21416
3.25694
3.30559
3.35759
3.41039
3.4626
3.51465
3.56866
3.62802
3.69658
3.77799
3.875
3.98901
4.11975
4.26514
4.42137
4.58304
4.74357
4.89579
5.03278
5.14862
5.23911
5.3021
5.33746
5.3468
5.3329
5.2992
5.24945
5.18743
5.11695
5.04194
4.96645
4.89436
4.82876
4.77123
4.72148
4.67795
4.63903
4.60434
4.57504
4.55272
4.53729
4.525
4.50774
4.47416
4.41207
4.31146
4.16688
3.9789
3.75424
3.50467
3.245
2.99046
2.75423
2.54555
2.36892
2.22453
2.1094
2.01894
1.94819
1.89271
1.84892
1.81411
1.7863
1.764
1.74609
1.73169
1.72012
1.71081
1.70333
1.69731
1.69246
1.68855
1.68538
1.6828
1.6807
1.67898
1.67755
1.67636
1.67535
1.67449
1.67375
1.6731
1.67253
1.67202
1.67156
1.67112
1.67077
1.6702
2.86142
2.85448
2.85024
2.84969
2.85364
2.8627
2.87712
2.8967
2.9207
2.94826
2.97895
3.01285
3.05022
3.0912
3.13584
3.18413
3.2363
3.29301
3.35536
3.42488
3.50324
3.59198
3.69221
3.80423
3.92739
4.05989
4.19877
4.33999
4.47867
4.6095
4.72733
4.82771
4.90737
4.96449
4.99878
5.01124
5.00381
4.97907
4.93989
4.88927
4.83036
4.7665
4.70131
4.63842
4.5809
4.53046
4.48697
4.44886
4.41424
4.38237
4.35423
4.33182
4.31615
4.30512
4.2924
4.26804
4.22055
4.13966
4.01887
3.85704
3.65888
3.43418
3.19612
2.95893
2.73549
2.53541
2.36401
2.22247
2.10873
2.01888
1.94842
1.89311
1.84947
1.81481
1.78711
1.76489
1.74702
1.73261
1.721
1.71162
1.70404
1.6979
1.69292
1.68887
1.68557
1.68287
1.68064
1.6788
1.67726
1.67596
1.67486
1.67392
1.6731
1.67239
1.67176
1.67119
1.67068
1.67021
1.66982
1.66921
2.79312
2.78252
2.77391
2.76808
2.76573
2.76747
2.77374
2.78479
2.80066
2.82118
2.84614
2.87535
2.90873
2.94627
2.98809
3.03441
3.08562
3.14227
3.20511
3.27498
3.35273
3.43903
3.53425
3.63824
3.75015
3.86842
3.99064
4.11369
4.23384
4.34707
4.44944
4.53749
4.60859
4.66118
4.69478
4.70996
4.70805
4.69092
4.66077
4.61998
4.57113
4.51706
4.46101
4.40636
4.35614
4.31219
4.27457
4.24172
4.21152
4.18281
4.15627
4.13402
4.11785
4.10707
4.09702
4.0792
4.04302
3.97827
3.87773
3.73888
3.56464
3.36297
3.14543
2.92513
2.71451
2.52332
2.35753
2.21917
2.10706
2.01796
1.94784
1.89274
1.84926
1.81475
1.78718
1.76507
1.74728
1.73292
1.72132
1.71192
1.70429
1.69809
1.69304
1.6889
1.68551
1.68271
1.6804
1.67846
1.67684
1.67547
1.6743
1.67329
1.67241
1.67164
1.67097
1.67036
1.66981
1.6693
1.66889
1.66824
2.75787
2.74498
2.73365
2.72449
2.71811
2.71509
2.71588
2.72089
2.73034
2.74438
2.76306
2.78638
2.81437
2.84706
2.88455
2.92703
2.97475
3.02809
3.08748
3.15336
3.22616
3.30612
3.39325
3.48717
3.58705
3.69151
3.7986
3.90584
4.01035
4.10899
4.19869
4.27669
4.34081
4.38965
4.42265
4.44002
4.44262
4.43182
4.40927
4.37685
4.33666
4.29113
4.24312
4.19579
4.15212
4.11406
4.08185
4.05401
4.02824
4.00295
3.97841
3.95666
3.94003
3.92892
3.92018
3.90678
3.87912
3.82734
3.74379
3.62488
3.47204
3.2915
3.09327
2.88931
2.69142
2.50934
2.3495
2.21466
2.10442
2.01624
1.94654
1.89166
1.84835
1.81398
1.78657
1.76459
1.7469
1.73262
1.72107
1.71169
1.70407
1.69785
1.69277
1.68859
1.68515
1.6823
1.67992
1.67793
1.67625
1.67483
1.67361
1.67255
1.67163
1.67083
1.67011
1.66947
1.6689
1.66837
1.66794
1.66726
2.74082
2.72652
2.71349
2.70221
2.69319
2.68694
2.68391
2.68453
2.6891
2.69788
2.71108
2.72883
2.75126
2.77848
2.8106
2.8478
2.89027
2.93822
2.9919
3.05154
3.11729
3.18919
3.26705
3.35043
3.43853
3.53017
3.62376
3.7173
3.80851
3.89489
3.974
4.04356
4.10175
4.14729
4.17955
4.19851
4.20468
4.19902
4.18276
4.15737
4.12457
4.08642
4.04543
4.00456
3.96671
3.93394
3.90668
3.88353
3.86209
3.84036
3.81817
3.7973
3.78038
3.76868
3.76035
3.74974
3.72832
3.68678
3.6173
3.51553
3.3816
3.22028
3.04009
2.85178
2.66643
2.4936
2.34
2.20899
2.10089
2.01378
1.9446
1.88998
1.84684
1.81262
1.78534
1.7635
1.74592
1.73175
1.72027
1.71096
1.70338
1.69718
1.6921
1.68792
1.68446
1.68159
1.67919
1.67717
1.67546
1.674
1.67275
1.67167
1.67072
1.66989
1.66916
1.6685
1.66791
1.66736
1.66691
1.66622
2.73314
2.71801
2.70394
2.69129
2.68051
2.67202
2.66625
2.66359
2.6644
2.66897
2.67756
2.69038
2.70762
2.72945
2.756
2.78744
2.82392
2.86559
2.9126
2.96504
3.02294
3.08622
3.15464
3.22773
3.30477
3.38476
3.46638
3.548
3.62777
3.70368
3.77371
3.836
3.88895
3.93141
3.96271
3.98265
3.99152
3.98992
3.97879
3.95925
3.9327
3.90086
3.86598
3.83077
3.79805
3.76998
3.74718
3.72837
3.71108
3.69296
3.67335
3.65372
3.63677
3.62443
3.61595
3.60694
3.58997
3.55638
3.49841
3.41119
3.29386
3.14988
2.98638
2.81293
2.63982
2.47627
2.32913
2.20224
2.09652
2.01068
1.94213
1.88781
1.84485
1.81077
1.78363
1.7619
1.74445
1.73038
1.719
1.70976
1.70224
1.69609
1.69105
1.68689
1.68344
1.68058
1.67818
1.67615
1.67443
1.67297
1.67171
1.67061
1.66966
1.66881
1.66807
1.6674
1.6668
1.66624
1.66579
1.66508
2.72991
2.71429
2.69956
2.68602
2.67402
2.66393
2.65614
2.65099
2.64885
2.65
2.65473
2.6633
2.6759
2.69273
2.71395
2.73973
2.7702
2.80548
2.84566
2.89079
2.94083
2.99566
3.05502
3.11848
3.1854
3.25493
3.32595
3.39714
3.46696
3.53377
3.59588
3.65172
3.69991
3.73938
3.76946
3.78985
3.80061
3.80215
3.79512
3.78039
3.75906
3.7326
3.70296
3.67268
3.64447
3.62055
3.60172
3.58688
3.57349
3.55894
3.54208
3.52397
3.50727
3.49438
3.48544
3.4772
3.46329
3.43577
3.38712
3.31217
3.20928
3.08079
2.93261
2.77317
2.61188
2.45755
2.31704
2.19451
2.09141
2.00702
1.9392
1.88526
1.8425
1.80856
1.78153
1.75992
1.74258
1.72861
1.71733
1.70818
1.70073
1.69465
1.68965
1.68554
1.68213
1.67928
1.6769
1.67489
1.67319
1.67173
1.67047
1.66937
1.66842
1.66758
1.66683
1.66616
1.66555
1.665
1.66454
1.66383
2.72857
2.71265
2.69749
2.68332
2.67045
2.65918
2.64984
2.64276
2.63825
2.63661
2.63812
2.64302
2.65155
2.6639
2.68026
2.70077
2.72558
2.75479
2.78846
2.82663
2.86924
2.91615
2.96714
3.0218
3.07959
3.13977
3.20142
3.26343
3.32451
3.3833
3.43838
3.4884
3.53217
3.5687
3.59731
3.61765
3.62965
3.63352
3.62971
3.61887
3.60187
3.57994
3.55481
3.52878
3.50449
3.48421
3.4689
3.45764
3.44789
3.43679
3.42274
3.40638
3.3902
3.37691
3.36737
3.35934
3.34746
3.32451
3.28335
3.21865
3.12822
3.01349
2.87927
2.7329
2.58294
2.43768
2.30387
2.18589
2.08564
2.00287
1.93592
1.88241
1.83988
1.80608
1.77917
1.75766
1.74042
1.72655
1.71536
1.7063
1.69893
1.69292
1.68799
1.68392
1.68056
1.67776
1.67541
1.67342
1.67174
1.6703
1.66905
1.66797
1.66703
1.66619
1.66545
1.66478
1.66418
1.66363
1.66318
1.66247
2.72794
2.71182
2.69634
2.68171
2.66816
2.65597
2.64542
2.63678
2.63035
2.6264
2.6252
2.62698
2.63198
2.6404
2.65241
2.66818
2.68784
2.71148
2.73919
2.77096
2.80676
2.84647
2.88987
2.93661
2.98623
3.0381
3.09144
3.14532
3.19866
3.25032
3.29908
3.34379
3.3834
3.41701
3.44396
3.46385
3.47652
3.48204
3.4807
3.47297
3.45953
3.4414
3.42009
3.39772
3.37682
3.35971
3.34749
3.33942
3.33301
3.3252
3.31397
3.29952
3.28409
3.27057
3.26041
3.25224
3.24162
3.22207
3.18687
3.1307
3.05097
2.94838
2.82678
2.69252
2.55332
2.41689
2.28978
2.17649
2.07926
1.9983
1.93234
1.87935
1.83709
1.80345
1.77665
1.75524
1.73809
1.72431
1.7132
1.70422
1.69693
1.69099
1.68612
1.68212
1.67881
1.67605
1.67374
1.67179
1.67014
1.66872
1.6675
1.66644
1.66551
1.66469
1.66396
1.6633
1.66271
1.66216
1.66172
1.66101
2.72753
2.71124
2.69551
2.6805
2.66642
2.65349
2.64194
2.63203
2.62401
2.61813
2.61463
2.61375
2.61571
2.6207
2.62889
2.64046
2.65553
2.6742
2.69654
2.72256
2.75225
2.78548
2.82208
2.86175
2.90409
2.94857
2.99453
3.04119
3.08764
3.1329
3.17595
3.21577
3.25145
3.28218
3.30732
3.32645
3.33933
3.34594
3.34644
3.34115
3.3306
3.31562
3.29754
3.2783
3.26032
3.24594
3.23641
3.23117
3.22781
3.2231
3.21465
3.20219
3.18771
3.17412
3.16338
3.15486
3.14495
3.12789
3.09741
3.0483
2.97772
2.88577
2.77551
2.6524
2.52332
2.39541
2.27493
2.16642
2.07238
1.99337
1.92853
1.87615
1.83421
1.80075
1.77407
1.75275
1.73568
1.72198
1.71095
1.70204
1.69482
1.68895
1.68415
1.68021
1.67695
1.67424
1.67198
1.67007
1.66845
1.66706
1.66587
1.66483
1.66392
1.66312
1.6624
1.66176
1.66118
1.66064
1.6602
1.65951
2.72716
2.71073
2.69478
2.67945
2.66491
2.65135
2.63897
2.628
2.61864
2.61113
2.60569
2.60254
2.60187
2.60389
2.60876
2.61665
2.62767
2.64193
2.65951
2.68043
2.70466
2.73213
2.76268
2.79605
2.83192
2.86984
2.90924
2.94947
2.98975
3.02925
3.0671
3.10242
3.1344
3.1623
3.18553
3.20364
3.21637
3.22362
3.22543
3.22203
3.2138
3.20142
3.18604
3.16945
3.15398
3.14194
3.13473
3.13197
3.13136
3.12954
3.12379
3.11339
3.09999
3.08651
3.07526
3.06626
3.05667
3.0414
3.01464
2.97135
2.90855
2.82591
2.72579
2.61287
2.49325
2.37349
2.25951
2.1558
2.06505
1.98813
1.92453
1.87284
1.83128
1.79803
1.77148
1.75025
1.73326
1.71963
1.70867
1.69984
1.69268
1.68688
1.68214
1.67826
1.67505
1.6724
1.67018
1.66831
1.66673
1.66537
1.66421
1.66319
1.6623
1.66152
1.66082
1.66019
1.65962
1.65909
1.65866
1.65798
2.72677
2.71021
2.69406
2.67845
2.66351
2.64942
2.63634
2.62445
2.61396
2.60507
2.59797
2.59287
2.58995
2.58941
2.59139
2.59605
2.60353
2.61392
2.6273
2.64369
2.6631
2.68546
2.71064
2.73843
2.76856
2.80063
2.83419
2.86867
2.90342
2.93772
2.97084
3.00201
3.0305
3.05565
3.07691
3.09384
3.10614
3.11365
3.11635
3.11436
3.10796
3.0977
3.08458
3.07023
3.05688
3.04684
3.04162
3.04103
3.04288
3.04374
3.04058
3.03225
3.02004
3.00682
2.99514
2.98561
2.97606
2.96204
2.93819
2.8997
2.84351
2.76897
2.67788
2.5742
2.46337
2.35134
2.24366
2.14474
2.05735
1.98263
1.92038
1.86947
1.82835
1.79534
1.76893
1.74781
1.7309
1.71734
1.70644
1.69767
1.69058
1.68483
1.68016
1.67633
1.67318
1.67057
1.66839
1.66657
1.66502
1.6637
1.66256
1.66158
1.66071
1.65995
1.65926
1.65865
1.65809
1.65758
1.65715
1.65648
2.72635
2.70966
2.69333
2.67746
2.66218
2.64762
2.63393
2.62127
2.60982
2.59974
2.59122
2.58445
2.5796
2.57683
2.5763
2.57817
2.58254
2.58954
2.59922
2.61163
2.62678
2.64462
2.66504
2.68788
2.7129
2.73979
2.76814
2.79748
2.82726
2.85687
2.88567
2.91301
2.93823
2.96074
2.98001
2.99563
3.00728
3.01477
3.01801
3.01705
3.01207
3.00352
2.99226
2.97979
2.96823
2.95988
2.95636
2.95764
2.96167
2.965
2.96431
2.95804
2.94712
2.93427
2.92227
2.91219
2.90248
2.8893
2.86771
2.83316
2.78257
2.71505
2.63196
2.53666
2.43393
2.32917
2.22756
2.13334
2.04935
1.97692
1.91611
1.86606
1.82543
1.79271
1.76647
1.74545
1.72862
1.71513
1.7043
1.69559
1.68856
1.68287
1.67824
1.67447
1.67137
1.66881
1.66667
1.66489
1.66338
1.66209
1.66098
1.66002
1.65918
1.65843
1.65777
1.65717
1.65663
1.65612
1.65571
1.65505
2.72591
2.70909
2.69259
2.67649
2.6609
2.64594
2.63172
2.61839
2.6061
2.59501
2.58528
2.57706
2.57054
2.56585
2.56315
2.56258
2.56425
2.56827
2.57471
2.58361
2.59501
2.60885
2.62506
2.64351
2.664
2.68626
2.70997
2.73471
2.76003
2.78541
2.81028
2.83408
2.85624
2.87622
2.89353
2.90777
2.91862
2.92585
2.92935
2.9291
2.9252
2.91801
2.90828
2.89738
2.88732
2.88039
2.87829
2.88118
2.88714
2.89272
2.89436
2.89013
2.88056
2.86821
2.85599
2.84537
2.83537
2.8227
2.80285
2.77151
2.72567
2.66423
2.58821
2.50044
2.40514
2.30719
2.21137
2.12173
2.04112
1.97103
1.91174
1.86262
1.82254
1.79014
1.76409
1.7432
1.72646
1.71304
1.70227
1.69362
1.68664
1.68101
1.67644
1.67271
1.66966
1.66714
1.66505
1.6633
1.66182
1.66057
1.65949
1.65855
1.65773
1.65701
1.65636
1.65577
1.65524
1.65475
1.65435
1.6537
2.72544
2.7085
2.69184
2.67554
2.65967
2.64434
2.62967
2.61576
2.60275
2.59078
2.58
2.57055
2.56258
2.55623
2.55165
2.54895
2.54826
2.54968
2.55327
2.5591
2.56718
2.57749
2.58999
2.60455
2.62101
2.63916
2.65873
2.67936
2.70067
2.72221
2.7435
2.76405
2.78336
2.80093
2.81632
2.82915
2.83909
2.8459
2.84943
2.84963
2.84653
2.84041
2.83191
2.8223
2.81349
2.80774
2.80683
2.81108
2.81873
2.82636
2.83021
2.82798
2.81982
2.80808
2.79573
2.78461
2.77423
2.76182
2.74329
2.71457
2.67272
2.61655
2.54675
2.46574
2.37722
2.28558
2.19524
2.11003
2.03276
1.96503
1.90731
1.85918
1.8197
1.78766
1.76182
1.74107
1.72442
1.71108
1.70037
1.69177
1.68485
1.67927
1.67475
1.67107
1.66806
1.66558
1.66353
1.66182
1.66038
1.65915
1.6581
1.65719
1.65639
1.65568
1.65505
1.65448
1.65396
1.65348
1.65308
1.65245
2.72495
2.7079
2.6911
2.6746
2.65848
2.64284
2.62775
2.61334
2.59971
2.58698
2.5753
2.56477
2.55556
2.54777
2.54155
2.53701
2.53426
2.5334
2.5345
2.53762
2.54279
2.54999
2.55919
2.5703
2.5832
2.5977
2.61356
2.63051
2.64821
2.66629
2.68433
2.7019
2.71855
2.73385
2.74739
2.75879
2.76775
2.77402
2.77741
2.77784
2.7753
2.77
2.7625
2.75395
2.74617
2.74138
2.74145
2.74684
2.75597
2.76545
2.77138
2.77111
2.76442
2.75339
2.74103
2.72946
2.71865
2.7063
2.68874
2.66214
2.62366
2.57201
2.50768
2.43271
2.35034
2.26453
2.17933
2.09835
2.02434
1.95897
1.90284
1.85575
1.81691
1.78525
1.75965
1.73905
1.72251
1.70924
1.6986
1.69005
1.68319
1.67765
1.67318
1.66955
1.66658
1.66415
1.66214
1.66046
1.65905
1.65785
1.65682
1.65593
1.65516
1.65447
1.65385
1.6533
1.65279
1.65232
1.65193
1.65131
2.72445
2.7073
2.69036
2.67368
2.65734
2.64141
2.62597
2.61111
2.59694
2.58356
2.57109
2.55964
2.54934
2.54031
2.53267
2.52652
2.52198
2.51913
2.51805
2.51879
2.52139
2.52585
2.53214
2.5402
2.54993
2.56117
2.57374
2.58739
2.60186
2.6168
2.63188
2.64672
2.66091
2.67408
2.68583
2.69583
2.70377
2.7094
2.71253
2.71302
2.71085
2.70617
2.69945
2.69175
2.68481
2.68081
2.68167
2.68801
2.69841
2.70957
2.71745
2.71911
2.71393
2.70372
2.69147
2.67952
2.66826
2.65585
2.63897
2.61408
2.57842
2.53068
2.47113
2.40152
2.3247
2.24423
2.16381
2.08684
2.01597
1.95291
1.89839
1.85235
1.81418
1.78293
1.75759
1.73715
1.72071
1.70753
1.69695
1.68846
1.68165
1.67616
1.67174
1.66815
1.66522
1.66283
1.66085
1.65921
1.65783
1.65666
1.65566
1.65479
1.65403
1.65336
1.65276
1.65222
1.65172
1.65126