/*--------------------------------*- C++ -*----------------------------------*\
  =========                 |
  \\      /  F ield         | OpenFOAM: The Open Source CFD Toolbox
   \\    /   O peration     | Website:  https://openfoam.org
    \\  /    A nd           | Version:  10
     \\/     M anipulation  |
\*---------------------------------------------------------------------------*/
FoamFile
{
    format      ascii;
    class       volScalarField;
    location    "0.04";
    object      k;
}
// * * * * * * * * * * * * * * * * * * * * * * * * * * * * * * * * * * * * * //

dimensions      [0 2 -2 0 0 0 0];

internalField   nonuniform List<scalar> 
6820
(
0.196709
0.190616
0.184994
0.179725
0.174799
0.170252
0.166117
0.162409
0.159125
0.156245
0.153743
0.151586
0.149741
0.148176
0.146862
0.14577
0.144875
0.144154
0.143585
0.143151
0.142835
0.142622
0.142499
0.142455
0.142479
0.142564
0.142695
0.142893
0.143032
0.143674
0.142153
0.150953
0.111517
0.201953
0.200831
0.197543
0.193923
0.190839
0.188577
0.187138
0.186397
0.186207
0.186433
0.186969
0.187735
0.188669
0.189728
0.190876
0.192089
0.193345
0.194629
0.195928
0.197233
0.198537
0.199835
0.201122
0.2024
0.203668
0.204932
0.206202
0.207492
0.208833
0.210318
0.211794
0.214663
0.215279
0.200488
0.200475
0.199119
0.197072
0.194843
0.192692
0.190724
0.188982
0.187481
0.186218
0.185183
0.184361
0.183731
0.183275
0.182972
0.182804
0.182753
0.182805
0.182946
0.183163
0.183447
0.183789
0.18418
0.184614
0.185088
0.185597
0.186141
0.186724
0.187343
0.188037
0.188749
0.189657
0.190435
0.199661
0.199121
0.198218
0.196983
0.195545
0.194013
0.19246
0.190933
0.189465
0.188075
0.186776
0.185576
0.184475
0.183475
0.182572
0.181763
0.181042
0.180404
0.179843
0.179354
0.178932
0.178571
0.178266
0.178015
0.177813
0.177658
0.177548
0.177486
0.177471
0.177515
0.177616
0.177813
0.178084
0.199429
0.198466
0.197531
0.196513
0.1954
0.194215
0.192988
0.191743
0.190499
0.189272
0.188074
0.186915
0.1858
0.184735
0.183721
0.182761
0.181854
0.181
0.180199
0.179447
0.178745
0.178089
0.177478
0.17691
0.176384
0.175898
0.175451
0.175045
0.174679
0.17436
0.174088
0.173878
0.17373
0.199398
0.198267
0.197202
0.196166
0.195133
0.194089
0.19303
0.191961
0.190888
0.189817
0.188757
0.187712
0.186688
0.185689
0.184717
0.183776
0.182867
0.181991
0.181148
0.180339
0.179564
0.178822
0.178112
0.177435
0.176789
0.176174
0.175591
0.175038
0.174518
0.174033
0.173585
0.173181
0.172827
0.199395
0.19822
0.197098
0.196021
0.194978
0.193958
0.192954
0.191961
0.190977
0.190002
0.189038
0.188087
0.18715
0.18623
0.185329
0.184448
0.183587
0.18275
0.181935
0.181144
0.180377
0.179635
0.178916
0.178221
0.177551
0.176904
0.176282
0.175684
0.175111
0.174566
0.17405
0.173568
0.173124
0.199395
0.198211
0.197069
0.195969
0.194908
0.193882
0.192886
0.191914
0.190964
0.190034
0.189121
0.188225
0.187346
0.186484
0.185639
0.184812
0.184003
0.183212
0.182439
0.181686
0.180951
0.180236
0.179541
0.178864
0.178207
0.177569
0.176951
0.176353
0.175776
0.17522
0.17469
0.174187
0.173716
0.199395
0.198209
0.197063
0.195955
0.194885
0.19385
0.19285
0.191879
0.190937
0.190021
0.189129
0.188259
0.187409
0.18658
0.18577
0.184978
0.184205
0.18345
0.182713
0.181993
0.181291
0.180606
0.179939
0.179288
0.178655
0.178039
0.17744
0.176858
0.176295
0.175752
0.17523
0.174732
0.174263
0.199395
0.198209
0.197061
0.195951
0.194877
0.193839
0.192834
0.191862
0.190919
0.190006
0.189119
0.188257
0.18742
0.186605
0.185812
0.18504
0.184287
0.183554
0.18284
0.182143
0.181464
0.180803
0.180158
0.17953
0.178919
0.178323
0.177745
0.177182
0.176638
0.176111
0.175605
0.175121
0.174662
0.199395
0.198209
0.197061
0.19595
0.194875
0.193835
0.192828
0.191854
0.19091
0.189996
0.189109
0.18825
0.187416
0.186606
0.18582
0.185056
0.184313
0.183591
0.182888
0.182205
0.18154
0.180893
0.180263
0.17965
0.179054
0.178474
0.177911
0.177365
0.176835
0.176324
0.175832
0.175361
0.174915
0.199395
0.198209
0.19706
0.195949
0.194874
0.193833
0.192826
0.191851
0.190906
0.189991
0.189104
0.188244
0.187411
0.186602
0.185818
0.185056
0.184317
0.183599
0.182902
0.182225
0.181566
0.180927
0.180305
0.179701
0.179114
0.178544
0.177991
0.177455
0.176936
0.176436
0.175954
0.175493
0.175056
0.199395
0.198209
0.19706
0.195949
0.194873
0.193833
0.192825
0.191849
0.190904
0.189988
0.1891
0.18824
0.187406
0.186598
0.185814
0.185053
0.184315
0.183598
0.182903
0.182228
0.181573
0.180936
0.180318
0.179719
0.179137
0.178572
0.178024
0.177494
0.176982
0.176487
0.176012
0.175557
0.175125
0.199395
0.198208
0.19706
0.195949
0.194873
0.193832
0.192824
0.191848
0.190902
0.189986
0.189098
0.188238
0.187404
0.186595
0.18581
0.18505
0.184311
0.183595
0.1829
0.182226
0.181572
0.180937
0.18032
0.179722
0.179142
0.17858
0.178035
0.177508
0.176999
0.176508
0.176036
0.175584
0.175154
0.199395
0.198208
0.19706
0.195948
0.194873
0.193831
0.192823
0.191847
0.190901
0.189985
0.189097
0.188236
0.187401
0.186592
0.185808
0.185047
0.184308
0.183592
0.182897
0.182223
0.181569
0.180934
0.180318
0.179721
0.179142
0.17858
0.178037
0.177511
0.177003
0.176514
0.176043
0.175592
0.175162
0.199395
0.198208
0.19706
0.195948
0.194872
0.193831
0.192822
0.191846
0.1909
0.189983
0.189095
0.188234
0.187399
0.18659
0.185805
0.185044
0.184305
0.183589
0.182894
0.18222
0.181565
0.180931
0.180315
0.179718
0.179139
0.178578
0.178035
0.17751
0.177002
0.176513
0.176042
0.175591
0.17516
0.199395
0.198208
0.19706
0.195948
0.194872
0.19383
0.192822
0.191845
0.190899
0.189982
0.189094
0.188233
0.187398
0.186588
0.185803
0.185041
0.184303
0.183586
0.182891
0.182216
0.181562
0.180927
0.180311
0.179714
0.179135
0.178574
0.178031
0.177506
0.176999
0.176509
0.176038
0.175586
0.175153
0.199395
0.198208
0.19706
0.195948
0.194872
0.19383
0.192821
0.191845
0.190898
0.189981
0.189093
0.188231
0.187396
0.186586
0.185801
0.185039
0.1843
0.183583
0.182888
0.182213
0.181559
0.180924
0.180308
0.17971
0.179131
0.17857
0.178027
0.177501
0.176994
0.176504
0.176031
0.175578
0.175143
0.199395
0.198208
0.197059
0.195948
0.194872
0.19383
0.192821
0.191844
0.190897
0.18998
0.189091
0.18823
0.187395
0.186585
0.185799
0.185037
0.184298
0.183581
0.182885
0.18221
0.181555
0.18092
0.180304
0.179706
0.179127
0.178566
0.178022
0.177496
0.176988
0.176497
0.176023
0.175568
0.175131
0.199395
0.198208
0.197059
0.195948
0.194871
0.19383
0.192821
0.191843
0.190897
0.18998
0.189091
0.188229
0.187393
0.186583
0.185797
0.185035
0.184296
0.183578
0.182882
0.182207
0.181552
0.180916
0.1803
0.179702
0.179122
0.178561
0.178016
0.17749
0.17698
0.176489
0.176014
0.175557
0.175118
0.199395
0.198208
0.197059
0.195947
0.194871
0.193829
0.19282
0.191843
0.190896
0.189979
0.18909
0.188228
0.187392
0.186582
0.185796
0.185033
0.184293
0.183576
0.18288
0.182204
0.181549
0.180913
0.180296
0.179697
0.179117
0.178555
0.17801
0.177483
0.176973
0.17648
0.176004
0.175545
0.175103
0.199395
0.198208
0.197059
0.195947
0.194871
0.193829
0.19282
0.191843
0.190896
0.189978
0.189089
0.188227
0.187391
0.18658
0.185794
0.185031
0.184291
0.183573
0.182877
0.182201
0.181545
0.180909
0.180291
0.179693
0.179112
0.178549
0.178004
0.177475
0.176964
0.17647
0.175992
0.175532
0.175088
0.199395
0.198208
0.197059
0.195947
0.194871
0.193829
0.19282
0.191842
0.190895
0.189978
0.189088
0.188226
0.18739
0.186579
0.185792
0.185029
0.184289
0.183571
0.182874
0.182198
0.181542
0.180905
0.180287
0.179688
0.179106
0.178543
0.177996
0.177467
0.176955
0.176459
0.17598
0.175518
0.175071
0.199395
0.198208
0.197059
0.195947
0.194871
0.193829
0.19282
0.191842
0.190895
0.189977
0.189087
0.188225
0.187389
0.186578
0.185791
0.185028
0.184287
0.183569
0.182871
0.182195
0.181538
0.180901
0.180282
0.179682
0.1791
0.178536
0.177989
0.177459
0.176945
0.176448
0.175967
0.175503
0.175054
0.199395
0.198208
0.197059
0.195947
0.194871
0.193829
0.192819
0.191842
0.190895
0.189977
0.189087
0.188224
0.187388
0.186576
0.185789
0.185026
0.184285
0.183566
0.182869
0.182191
0.181534
0.180897
0.180278
0.179677
0.179094
0.178529
0.177981
0.17745
0.176935
0.176437
0.175954
0.175488
0.175037
0.199395
0.198208
0.197059
0.195947
0.194871
0.193829
0.192819
0.191842
0.190894
0.189976
0.189086
0.188223
0.187387
0.186575
0.185788
0.185024
0.184283
0.183564
0.182866
0.182188
0.181531
0.180892
0.180273
0.179672
0.179088
0.178522
0.177973
0.177441
0.176925
0.176425
0.175941
0.175473
0.17502
0.199395
0.198208
0.197059
0.195947
0.194871
0.193829
0.192819
0.191841
0.190894
0.189976
0.189086
0.188223
0.187386
0.186574
0.185787
0.185023
0.184281
0.183562
0.182863
0.182185
0.181527
0.180888
0.180268
0.179666
0.179082
0.178515
0.177965
0.177432
0.176914
0.176413
0.175928
0.175458
0.175003
0.199395
0.198208
0.197059
0.195947
0.194871
0.193829
0.192819
0.191841
0.190894
0.189976
0.189085
0.188222
0.187385
0.186573
0.185786
0.185021
0.184279
0.18356
0.182861
0.182182
0.181524
0.180884
0.180264
0.179661
0.179076
0.178508
0.177957
0.177423
0.176904
0.176402
0.175915
0.175443
0.174986
0.199395
0.198208
0.197059
0.195947
0.194871
0.193829
0.192819
0.191841
0.190894
0.189975
0.189085
0.188222
0.187384
0.186572
0.185784
0.18502
0.184278
0.183557
0.182858
0.182179
0.18152
0.18088
0.180259
0.179656
0.17907
0.178501
0.177949
0.177414
0.176894
0.17639
0.175902
0.175428
0.17497
0.199395
0.198208
0.197059
0.195947
0.194871
0.193829
0.192819
0.191841
0.190894
0.189975
0.189085
0.188222
0.187384
0.186572
0.185784
0.185019
0.184276
0.183556
0.182856
0.182177
0.181517
0.180877
0.180255
0.179651
0.179065
0.178495
0.177942
0.177406
0.176885
0.17638
0.17589
0.175415
0.174955
0.199395
0.198208
0.197059
0.195948
0.194871
0.193829
0.192819
0.191841
0.190894
0.189975
0.189084
0.188221
0.187383
0.186571
0.185783
0.185018
0.184275
0.183554
0.182854
0.182174
0.181514
0.180874
0.180251
0.179647
0.179059
0.178489
0.177936
0.177398
0.176877
0.17637
0.175879
0.175403
0.174941
0.199395
0.198208
0.197059
0.195948
0.194871
0.193829
0.19282
0.191843
0.190895
0.189977
0.189086
0.188223
0.187385
0.186573
0.185784
0.185019
0.184276
0.183555
0.182855
0.182175
0.181514
0.180873
0.18025
0.179645
0.179057
0.178486
0.177931
0.177393
0.17687
0.176363
0.175871
0.175393
0.17493
0.199395
0.198209
0.19706
0.195949
0.194873
0.193831
0.192821
0.191844
0.190896
0.189978
0.189087
0.188224
0.187386
0.186573
0.185785
0.18502
0.184277
0.183555
0.182855
0.182174
0.181514
0.180872
0.180248
0.179642
0.179054
0.178482
0.177927
0.177387
0.176863
0.176355
0.175861
0.175381
0.174916
0.199395
0.198208
0.19706
0.19595
0.194875
0.193835
0.192827
0.191851
0.190904
0.189986
0.189096
0.188233
0.187395
0.186583
0.185794
0.185028
0.184284
0.183562
0.182861
0.182179
0.181517
0.180874
0.180249
0.179641
0.179051
0.178477
0.177919
0.177376
0.17685
0.176337
0.17584
0.175357
0.174887
0.199396
0.198212
0.197067
0.195958
0.194884
0.193843
0.192835
0.191858
0.190912
0.189994
0.189104
0.188241
0.187403
0.186589
0.185799
0.185032
0.184286
0.183561
0.182857
0.182172
0.181505
0.180857
0.180227
0.179614
0.179017
0.178436
0.17787
0.17732
0.176785
0.176264
0.175757
0.175264
0.174784
0.199396
0.198213
0.197071
0.195969
0.194902
0.193869
0.192866
0.191893
0.190947
0.190029
0.189136
0.188268
0.187424
0.186603
0.185804
0.185027
0.18427
0.183532
0.182814
0.182115
0.181433
0.180768
0.180121
0.179489
0.178873
0.178273
0.177687
0.177116
0.17656
0.176017
0.175487
0.17497
0.174467
0.199402
0.198241
0.197116
0.196021
0.194955
0.193919
0.192911
0.191929
0.190973
0.19004
0.189129
0.188241
0.187374
0.186527
0.185701
0.184894
0.184106
0.183336
0.182585
0.181851
0.181134
0.180434
0.17975
0.179082
0.178429
0.177791
0.177168
0.176559
0.175964
0.175383
0.174815
0.17426
0.173717
0.199421
0.198284
0.197213
0.19618
0.195155
0.194132
0.193112
0.192102
0.191105
0.190127
0.18917
0.188235
0.187324
0.186436
0.185572
0.184731
0.183911
0.183114
0.182337
0.18158
0.180843
0.180125
0.179426
0.178744
0.178079
0.177432
0.176801
0.176187
0.175588
0.175006
0.174438
0.173887
0.17335
0.199655
0.198886
0.198079
0.197304
0.196607
0.195982
0.195416
0.194898
0.194424
0.193991
0.193598
0.193246
0.192934
0.192662
0.19243
0.192238
0.192084
0.191969
0.191891
0.191851
0.191848
0.191882
0.191951
0.192057
0.192197
0.192373
0.192584
0.19283
0.19311
0.193425
0.193775
0.194158
0.194575
0.205419
0.216603
0.227661
0.238503
0.249093
0.259416
0.269458
0.279209
0.288661
0.297807
0.306643
0.315164
0.323371
0.331263
0.338843
0.346113
0.353078
0.359743
0.366113
0.372194
0.377994
0.383519
0.388778
0.393776
0.398524
0.403027
0.407294
0.411333
0.415152
0.418757
0.422156
0.425357
0.428369
0.329688
0.686548
1.11448
1.54556
1.88584
2.08111
2.14902
2.14352
2.11194
2.07924
2.05255
2.0304
2.00892
1.98359
1.94924
1.9008
1.83257
1.73807
1.61059
1.44468
1.23911
1.00147
0.752885
0.528422
0.365578
0.282171
0.262485
0.274816
0.298296
0.324383
0.349336
0.371124
0.388628
0.401449
0.409784
0.414215
0.415507
0.414451
0.411785
0.408159
0.404127
0.40014
0.396524
0.393473
0.39105
0.389227
0.387919
0.387021
0.386396
0.385835
0.385016
0.383476
0.380638
0.37588
0.368637
0.358507
0.34534
0.329285
0.310807
0.290638
0.269703
0.248994
0.22944
0.211776
0.196465
0.183671
0.173297
0.165067
0.158623
0.153598
0.149674
0.146597
0.144176
0.142271
0.140776
0.13961
0.138705
0.13801
0.137479
0.137077
0.136776
0.136553
0.13639
0.136272
0.136188
0.136129
0.136089
0.136063
0.136046
0.136036
0.13603
0.136026
0.136024
0.136023
0.136023
0.136021
0.13602
0.136018
0.136016
0.136009
0.22756
0.263786
0.334488
0.457085
0.64284
0.876592
1.11979
1.333
1.49321
1.59687
1.65269
1.67315
1.66528
1.63371
1.58136
1.50772
1.41021
1.28602
1.13419
0.957926
0.767229
0.580424
0.421793
0.312814
0.259474
0.247921
0.257882
0.27662
0.298521
0.32076
0.341491
0.359409
0.373721
0.384159
0.390895
0.394397
0.395275
0.394164
0.391666
0.388318
0.384592
0.38088
0.377479
0.374571
0.372225
0.370425
0.369107
0.368197
0.367603
0.367179
0.366668
0.365668
0.363642
0.359981
0.354099
0.345549
0.334112
0.31986
0.303171
0.284695
0.265286
0.245881
0.22738
0.210518
0.195778
0.183365
0.173229
0.165139
0.158772
0.153788
0.149886
0.146819
0.1444
0.142491
0.140988
0.139809
0.138889
0.138177
0.13763
0.137211
0.136894
0.136656
0.136479
0.136349
0.136254
0.136185
0.136137
0.136102
0.136079
0.136062
0.136051
0.136043
0.136037
0.136033
0.136029
0.136025
0.136022
0.136018
0.136014
0.136005
0.191515
0.19483
0.202373
0.218432
0.247466
0.295336
0.369112
0.469047
0.585004
0.7015
0.803993
0.882025
0.930656
0.947122
0.931071
0.884609
0.81145
0.716787
0.607954
0.495192
0.391422
0.309775
0.258589
0.236781
0.235314
0.244749
0.259716
0.277572
0.296553
0.315211
0.332337
0.347014
0.358687
0.367182
0.372642
0.375436
0.376043
0.374967
0.372693
0.369662
0.366273
0.362868
0.359715
0.356987
0.354754
0.353007
0.351695
0.350763
0.350156
0.349784
0.349462
0.348857
0.347487
0.344769
0.340113
0.33303
0.323237
0.310724
0.295778
0.278963
0.261054
0.242932
0.225464
0.209381
0.19519
0.183136
0.173217
0.165249
0.158945
0.153994
0.150107
0.147045
0.144626
0.142712
0.141199
0.140006
0.139071
0.138342
0.137776
0.13734
0.137007
0.136753
0.136561
0.136417
0.13631
0.13623
0.136172
0.136129
0.136097
0.136074
0.136057
0.136044
0.136034
0.136026
0.136018
0.136012
0.136005
0.135999
0.135993
0.135982
0.178547
0.17951
0.180998
0.183456
0.18791
0.195964
0.207979
0.22427
0.245996
0.273232
0.303508
0.331873
0.355667
0.371343
0.37574
0.367402
0.347224
0.318506
0.286449
0.257039
0.235324
0.223647
0.221164
0.225393
0.234208
0.246323
0.260748
0.276507
0.292616
0.308125
0.322198
0.334192
0.343717
0.350654
0.355118
0.357392
0.357845
0.356872
0.354861
0.352173
0.34914
0.346062
0.343181
0.340661
0.338573
0.336912
0.335631
0.334686
0.334047
0.333671
0.33344
0.333099
0.332234
0.330302
0.32672
0.32097
0.31271
0.301848
0.28858
0.27338
0.25694
0.240077
0.223625
0.208307
0.194651
0.182943
0.17323
0.165373
0.159126
0.1542
0.150323
0.147265
0.144845
0.142925
0.141402
0.140197
0.139247
0.1385
0.137917
0.137464
0.137113
0.136843
0.136636
0.136478
0.136358
0.136267
0.136198
0.136146
0.136106
0.136076
0.136052
0.136034
0.136019
0.136006
0.135995
0.135985
0.135976
0.135967
0.13596
0.135946
0.173658
0.173821
0.174335
0.175214
0.176601
0.178951
0.182324
0.186511
0.191408
0.196941
0.20302
0.209535
0.214863
0.218407
0.219825
0.219073
0.21657
0.213215
0.21019
0.208605
0.209184
0.212205
0.217683
0.225507
0.235438
0.247094
0.259975
0.273489
0.286983
0.2998
0.311349
0.32117
0.328984
0.334702
0.338411
0.34032
0.340713
0.339894
0.33817
0.335833
0.333164
0.330422
0.327827
0.325534
0.323617
0.322071
0.320851
0.319913
0.319241
0.318829
0.318619
0.318433
0.317932
0.316629
0.313961
0.309395
0.302537
0.293218
0.281546
0.2679
0.252886
0.237257
0.221804
0.207243
0.194118
0.182752
0.17324
0.165492
0.159296
0.154393
0.150525
0.147469
0.145047
0.143123
0.141592
0.140375
0.139411
0.13865
0.13805
0.13758
0.137213
0.136927
0.136705
0.136533
0.1364
0.136298
0.136218
0.136157
0.136109
0.136071
0.13604
0.136016
0.135996
0.135979
0.135964
0.13595
0.135938
0.135927
0.135917
0.135901
0.172492
0.17226
0.172247
0.172475
0.172963
0.173823
0.175197
0.177146
0.179545
0.182159
0.184841
0.187483
0.189794
0.191698
0.193226
0.194499
0.195727
0.197194
0.19922
0.202118
0.206146
0.211489
0.218235
0.22637
0.235766
0.24619
0.257315
0.268727
0.279964
0.290552
0.300065
0.308166
0.314646
0.319434
0.322588
0.324262
0.324665
0.324033
0.322607
0.320623
0.318314
0.315907
0.313601
0.311546
0.309817
0.30841
0.307278
0.306375
0.305686
0.305228
0.304993
0.304875
0.304614
0.30379
0.301876
0.298335
0.292733
0.284834
0.274657
0.262489
0.248851
0.234425
0.219957
0.206147
0.193554
0.182533
0.173226
0.165586
0.159442
0.154561
0.150701
0.147648
0.145225
0.143297
0.14176
0.140535
0.139559
0.138785
0.138171
0.137686
0.137304
0.137003
0.136767
0.136582
0.136437
0.136323
0.136234
0.136163
0.136106
0.136061
0.136024
0.135994
0.135968
0.135947
0.135928
0.135911
0.135896
0.135882
0.13587
0.135851
0.172668
0.17225
0.171991
0.171933
0.172091
0.17248
0.173141
0.174134
0.175488
0.177151
0.179031
0.18101
0.182999
0.184976
0.186978
0.189091
0.191435
0.194157
0.197415
0.201363
0.206133
0.21182
0.218461
0.226031
0.234432
0.243493
0.25297
0.262561
0.271927
0.280721
0.288627
0.295391
0.300849
0.304942
0.307703
0.309239
0.309705
0.30928
0.30815
0.306508
0.304548
0.302467
0.300448
0.298633
0.2971
0.295849
0.294832
0.293991
0.29331
0.292813
0.292529
0.292417
0.292295
0.291815
0.290498
0.287819
0.283319
0.276702
0.267907
0.257131
0.244808
0.231548
0.218048
0.204987
0.19293
0.182262
0.173166
0.165641
0.159552
0.154695
0.150844
0.147794
0.145372
0.143442
0.141902
0.14067
0.139686
0.138901
0.138276
0.137779
0.137384
0.13707
0.136822
0.136625
0.136468
0.136344
0.136245
0.136165
0.136101
0.136048
0.136005
0.135969
0.135939
0.135912
0.13589
0.13587
0.135851
0.135835
0.135821
0.135799
0.173218
0.172724
0.172349
0.172135
0.172111
0.172298
0.172709
0.173365
0.17429
0.175497
0.176977
0.178685
0.180582
0.182648
0.184893
0.187359
0.190115
0.193243
0.196835
0.200978
0.205747
0.21119
0.217319
0.224104
0.231462
0.23926
0.247314
0.2554
0.263262
0.270642
0.277298
0.283035
0.287723
0.291304
0.293792
0.295261
0.295822
0.295608
0.294766
0.293449
0.29182
0.290051
0.288308
0.286729
0.285395
0.28431
0.283425
0.282675
0.282029
0.281512
0.281176
0.28103
0.280967
0.280714
0.27985
0.277876
0.274319
0.268839
0.261301
0.251819
0.240742
0.228606
0.216054
0.203738
0.192224
0.181921
0.173048
0.165646
0.159619
0.154788
0.150949
0.147903
0.145483
0.143553
0.142011
0.140776
0.139787
0.138995
0.138361
0.137854
0.137448
0.137124
0.136865
0.136658
0.136492
0.136358
0.13625
0.136163
0.136091
0.136032
0.135983
0.135942
0.135907
0.135877
0.135851
0.135827
0.135806
0.135787
0.135772
0.135747
0.173758
0.173243
0.17282
0.172528
0.172401
0.172463
0.172736
0.173231
0.173963
0.174946
0.176188
0.177689
0.179441
0.181439
0.183687
0.186204
0.189023
0.192189
0.195753
0.199765
0.204264
0.209274
0.214794
0.220792
0.227201
0.233915
0.240795
0.247668
0.254341
0.260617
0.266309
0.271261
0.275367
0.278572
0.280876
0.282324
0.282994
0.282986
0.282413
0.281398
0.280077
0.278599
0.277118
0.275767
0.274627
0.273713
0.272973
0.272334
0.271751
0.27124
0.270862
0.270665
0.270605
0.270484
0.269945
0.268527
0.265759
0.261267
0.254856
0.246562
0.236653
0.22559
0.213962
0.202386
0.191422
0.181497
0.172861
0.165594
0.159636
0.154838
0.151011
0.147972
0.145555
0.143627
0.142086
0.14085
0.139858
0.139061
0.138421
0.137907
0.137494
0.137162
0.136895
0.136679
0.136505
0.136364
0.136249
0.136155
0.136077
0.136013
0.135959
0.135913
0.135874
0.13584
0.13581
0.135784
0.135761
0.13574
0.135722
0.135695
0.174167
0.173651
0.17321
0.172875
0.172679
0.172649
0.172809
0.173176
0.173764
0.174585
0.17565
0.176966
0.178541
0.180378
0.182485
0.184873
0.18756
0.19057
0.193928
0.19766
0.201786
0.206314
0.211235
0.216517
0.222106
0.227918
0.233842
0.239748
0.245484
0.250898
0.255843
0.260192
0.263856
0.26678
0.268956
0.270407
0.271187
0.27137
0.271042
0.270301
0.269261
0.268053
0.266815
0.265678
0.264726
0.263979
0.26339
0.262878
0.262383
0.261905
0.261504
0.261255
0.261165
0.261104
0.260782
0.259786
0.25766
0.254009
0.248592
0.241375
0.232549
0.222505
0.21177
0.200925
0.190517
0.180983
0.172599
0.165481
0.159602
0.154841
0.151032
0.148
0.145587
0.143663
0.142124
0.140889
0.139897
0.139098
0.138455
0.137937
0.137519
0.137181
0.136908
0.136687
0.136506
0.136359
0.136238
0.136139
0.136056
0.135987
0.135929
0.135879
0.135837
0.1358
0.135768
0.135739
0.135714
0.135691
0.135672
0.135643
0.17443
0.17392
0.173471
0.173109
0.172864
0.17276
0.172823
0.173071
0.173522
0.174189
0.175084
0.176216
0.177595
0.179228
0.181125
0.183295
0.18575
0.188502
0.191566
0.194953
0.19867
0.202716
0.207078
0.211727
0.216615
0.221676
0.226823
0.231951
0.236942
0.241675
0.246032
0.249909
0.253226
0.255934
0.258015
0.259478
0.26036
0.260712
0.2606
0.260103
0.259315
0.25835
0.257336
0.256397
0.255622
0.255036
0.254599
0.254223
0.253835
0.253415
0.253016
0.252724
0.252586
0.252535
0.252346
0.251656
0.250038
0.24709
0.242534
0.23628
0.228449
0.219361
0.209483
0.199356
0.189507
0.180375
0.172259
0.165304
0.159515
0.154799
0.151011
0.147989
0.145582
0.143662
0.142125
0.140893
0.139902
0.139104
0.138461
0.137941
0.13752
0.137179
0.136902
0.136677
0.136492
0.136341
0.136216
0.136113
0.136026
0.135954
0.135893
0.13584
0.135795
0.135756
0.135722
0.135691
0.135664
0.135639
0.135619
0.135588
0.174579
0.174072
0.173617
0.173235
0.172949
0.172783
0.17276
0.172899
0.173219
0.173735
0.17446
0.175405
0.176579
0.177992
0.179653
0.181569
0.18375
0.186204
0.188938
0.191958
0.195263
0.198849
0.2027
0.206789
0.211077
0.215507
0.220011
0.224504
0.228891
0.233075
0.236957
0.240451
0.243488
0.246018
0.248021
0.249495
0.250461
0.250956
0.25103
0.250745
0.25018
0.249432
0.24862
0.247861
0.247249
0.246815
0.246525
0.24629
0.246021
0.245681
0.245307
0.244989
0.244802
0.244729
0.244607
0.244129
0.242901
0.240528
0.236708
0.231304
0.224375
0.216176
0.207115
0.197687
0.188396
0.179677
0.171843
0.165064
0.159376
0.154714
0.150952
0.147942
0.145542
0.143626
0.142094
0.140865
0.139877
0.139081
0.138438
0.137918
0.137497
0.137155
0.136877
0.136649
0.136462
0.136308
0.136181
0.136075
0.135986
0.135911
0.135848
0.135793
0.135746
0.135705
0.13567
0.135638
0.13561
0.135584
0.135563
0.135531
0.174652
0.174146
0.173684
0.173282
0.172961
0.17274
0.172641
0.172682
0.172882
0.173255
0.173816
0.174577
0.175548
0.176739
0.178159
0.179814
0.181713
0.183861
0.186262
0.18892
0.19183
0.194986
0.198374
0.201968
0.205735
0.209628
0.21359
0.217553
0.221438
0.225165
0.228652
0.231825
0.234622
0.236998
0.238927
0.240402
0.241434
0.242046
0.242275
0.24217
0.241797
0.241241
0.240608
0.240012
0.239547
0.239253
0.239102
0.239006
0.238865
0.238622
0.238295
0.23797
0.23774
0.237629
0.237529
0.237188
0.23625
0.234338
0.231137
0.226472
0.220353
0.212973
0.204683
0.195931
0.187192
0.178891
0.171352
0.164763
0.159189
0.154589
0.150858
0.147864
0.145471
0.14356
0.142032
0.140807
0.139823
0.139029
0.138389
0.137871
0.137451
0.137109
0.136831
0.136602
0.136415
0.13626
0.136131
0.136024
0.135934
0.135858
0.135793
0.135737
0.135689
0.135647
0.135611
0.135578
0.135549
0.135523
0.135501
0.135468
0.174681
0.174173
0.173701
0.173281
0.172928
0.17266
0.172494
0.172448
0.17254
0.172783
0.173193
0.173782
0.17456
0.175539
0.176725
0.178128
0.179753
0.181605
0.183688
0.186002
0.188544
0.191306
0.194275
0.19743
0.20074
0.204168
0.207666
0.211175
0.214632
0.217968
0.221115
0.224008
0.226592
0.228825
0.23068
0.232143
0.233218
0.23392
0.234275
0.234321
0.234112
0.233721
0.233245
0.232794
0.232461
0.232294
0.232272
0.23231
0.232299
0.232163
0.231901
0.231588
0.231327
0.231173
0.231065
0.230804
0.230077
0.228526
0.225837
0.22181
0.21641
0.209777
0.202207
0.194103
0.185906
0.178027
0.170791
0.164407
0.158957
0.154428
0.150734
0.147758
0.145375
0.14347
0.141946
0.140725
0.139744
0.138954
0.138317
0.137802
0.137384
0.137043
0.136766
0.136538
0.136351
0.136197
0.136068
0.13596
0.13587
0.135793
0.135728
0.135672
0.135624
0.135581
0.135544
0.135511
0.135482
0.135455
0.135433
0.1354
0.174688
0.174175
0.173693
0.173255
0.172874
0.172563
0.17234
0.172219
0.172215
0.172344
0.172618
0.173051
0.173653
0.174435
0.175406
0.176573
0.177942
0.179518
0.181304
0.183301
0.185505
0.187909
0.190502
0.193264
0.196172
0.199191
0.202281
0.205394
0.208477
0.21147
0.214316
0.216958
0.219346
0.221441
0.223216
0.224654
0.225753
0.22652
0.226973
0.227142
0.22707
0.22682
0.226481
0.226156
0.225939
0.225885
0.225981
0.226146
0.226263
0.226241
0.226058
0.225775
0.225496
0.2253
0.225168
0.224946
0.224364
0.223093
0.220823
0.217339
0.21257
0.206612
0.199711
0.192221
0.184551
0.177092
0.170168
0.163998
0.158685
0.154235
0.150585
0.147631
0.145259
0.14336
0.141841
0.140624
0.139646
0.13886
0.138226
0.137714
0.137298
0.136961
0.136685
0.136459
0.136274
0.13612
0.135992
0.135885
0.135795
0.135719
0.135654
0.135598
0.13555
0.135507
0.13547
0.135437
0.135408
0.135381
0.135359
0.135325
0.174683
0.174165
0.173673
0.173218
0.172811
0.172464
0.172191
0.172005
0.171919
0.171948
0.172104
0.172399
0.172844
0.17345
0.174225
0.175177
0.176313
0.177638
0.179154
0.180861
0.182758
0.184839
0.187093
0.189505
0.192053
0.194708
0.197438
0.2002
0.20295
0.205636
0.208209
0.21062
0.212824
0.214784
0.216473
0.217873
0.218977
0.219787
0.220315
0.220581
0.220621
0.220491
0.220268
0.220052
0.219936
0.219982
0.220184
0.220465
0.220707
0.220801
0.220706
0.220466
0.220184
0.219953
0.219787
0.219577
0.219092
0.218033
0.216101
0.213075
0.208857
0.203504
0.197216
0.190304
0.183142
0.176098
0.16949
0.163542
0.158375
0.154014
0.150414
0.147486
0.145128
0.143237
0.141722
0.140509
0.139535
0.138752
0.138121
0.137612
0.1372
0.136865
0.136592
0.136368
0.136185
0.136033
0.135906
0.135801
0.135712
0.135636
0.135572
0.135517
0.135469
0.135427
0.13539
0.135357
0.135328
0.135301
0.135279
0.135246
0.174673
0.174149
0.173647
0.173177
0.172748
0.172369
0.172053
0.17181
0.171655
0.171597
0.171651
0.171826
0.172133
0.172584
0.173185
0.173946
0.174873
0.175971
0.177243
0.17869
0.180311
0.182101
0.184051
0.186148
0.188374
0.190705
0.193111
0.195559
0.198008
0.200417
0.20274
0.204936
0.206965
0.208791
0.21039
0.21174
0.212833
0.213667
0.214246
0.214588
0.214719
0.214687
0.214563
0.21444
0.214411
0.214543
0.214838
0.215226
0.215585
0.215795
0.215795
0.21561
0.215336
0.215078
0.214876
0.214659
0.214235
0.213333
0.211673
0.209029
0.205288
0.200472
0.194744
0.188372
0.181694
0.175056
0.168764
0.163046
0.158033
0.153769
0.150225
0.147328
0.144986
0.143104
0.141595
0.140385
0.139415
0.138635
0.138008
0.137502
0.137093
0.136761
0.13649
0.136269
0.136088
0.135938
0.135814
0.135709
0.135622
0.135548
0.135484
0.13543
0.135383
0.135342
0.135305
0.135273
0.135244
0.135218
0.135196
0.135163
0.17466
0.174129
0.173619
0.173135
0.172686
0.17228
0.171926
0.171636
0.17142
0.171289
0.171254
0.171326
0.171514
0.171828
0.172278
0.17287
0.173611
0.174507
0.175562
0.176776
0.17815
0.179679
0.181356
0.183171
0.185107
0.187146
0.189262
0.191425
0.193602
0.195757
0.197851
0.199846
0.201706
0.203401
0.204905
0.206197
0.207266
0.208106
0.20872
0.209117
0.20932
0.209368
0.209326
0.209281
0.209326
0.209531
0.209907
0.210391
0.21086
0.211183
0.21128
0.211159
0.210905
0.210628
0.210392
0.210157
0.209766
0.20898
0.207535
0.205209
0.201877
0.197537
0.192314
0.186443
0.180224
0.173979
0.168
0.162514
0.157663
0.153503
0.150022
0.147161
0.144838
0.142966
0.141463
0.140257
0.13929
0.138514
0.13789
0.137387
0.136981
0.136652
0.136384
0.136166
0.135987
0.135839
0.135717
0.135615
0.135529
0.135456
0.135394
0.135341
0.135295
0.135254
0.135219
0.135187
0.135159
0.135133
0.135112
0.135079
0.174645
0.174108
0.173589
0.173093
0.172626
0.172196
0.171811
0.17148
0.171213
0.171019
0.170908
0.17089
0.170975
0.171171
0.171487
0.171931
0.172509
0.173227
0.174088
0.175095
0.176248
0.177544
0.178977
0.180538
0.182216
0.183992
0.185845
0.187751
0.189681
0.191603
0.193484
0.19529
0.196991
0.198557
0.199963
0.201189
0.202223
0.203057
0.203689
0.204125
0.204383
0.204495
0.20452
0.20454
0.204647
0.204914
0.20536
0.205928
0.206498
0.20693
0.207126
0.207074
0.206849
0.206563
0.206296
0.206036
0.205659
0.204956
0.20368
0.201618
0.198636
0.194713
0.189945
0.184533
0.178745
0.172877
0.167206
0.161955
0.15727
0.15322
0.149807
0.146986
0.144686
0.142826
0.14133
0.140129
0.139165
0.138392
0.137771
0.137271
0.136868
0.136542
0.136277
0.136062
0.135885
0.13574
0.13562
0.13552
0.135436
0.135364
0.135304
0.135252
0.135207
0.135167
0.135132
0.135102
0.135074
0.135049
0.135028
0.134996
0.174628
0.174086
0.173559
0.173051
0.172569
0.172118
0.171706
0.17134
0.171029
0.170781
0.170605
0.17051
0.170505
0.170599
0.170799
0.171113
0.171548
0.172108
0.172799
0.173622
0.174578
0.175666
0.176881
0.178216
0.17966
0.181199
0.182816
0.184489
0.186193
0.187902
0.189586
0.191216
0.192765
0.194204
0.195512
0.196668
0.197659
0.198476
0.199113
0.199574
0.199871
0.200033
0.200112
0.200185
0.200343
0.200661
0.201166
0.201809
0.202471
0.203005
0.203299
0.203321
0.203133
0.202846
0.202552
0.202264
0.201889
0.201243
0.2001
0.198254
0.195571
0.192012
0.187652
0.182659
0.177273
0.171764
0.166392
0.161373
0.156857
0.152922
0.149583
0.146807
0.144532
0.142687
0.141199
0.140003
0.139043
0.138273
0.137655
0.137157
0.136757
0.136434
0.136172