/*--------------------------------*- C++ -*----------------------------------*\
  =========                 |
  \\      /  F ield         | OpenFOAM: The Open Source CFD Toolbox
   \\    /   O peration     | Website:  https://openfoam.org
    \\  /    A nd           | Version:  10
     \\/     M anipulation  |
\*---------------------------------------------------------------------------*/
FoamFile
{
    format      ascii;
    class       volScalarField;
    location    "0.04";
    object      nut;
}
// * * * * * * * * * * * * * * * * * * * * * * * * * * * * * * * * * * * * * //

dimensions      [0 2 -1 0 0 0 0];

internalField   nonuniform List<scalar> 
6820
(
0.000149484
0.000144853
0.000140581
0.000136577
0.000132834
0.000129378
0.000126236
0.000123418
0.000120923
0.000118734
0.000116833
0.000115193
0.000113792
0.000112603
0.000111604
0.000110774
0.000110094
0.000109546
0.000109114
0.000108785
0.000108545
0.000108383
0.00010829
0.000108257
0.000108275
0.00010834
0.00010844
0.000108591
0.000108696
0.000109185
0.000108029
0.000114718
8.47498e-05
0.000729197
0.000532403
0.000448036
0.000399745
0.00036843
0.000346793
0.000331159
0.000319438
0.000310358
0.000303115
0.000297188
0.00029223
0.000288007
0.000284355
0.000281154
0.00027832
0.000275788
0.000273507
0.000271439
0.000269552
0.000267823
0.000266231
0.000264759
0.000263394
0.000262123
0.000260937
0.000259829
0.000258789
0.000257823
0.000256913
0.000256101
0.000255251
0.000256167
0.000976777
0.000872184
0.000781634
0.000711289
0.000657362
0.000615345
0.000581802
0.000554375
0.000531476
0.000512024
0.000495258
0.000480631
0.000467739
0.000456276
0.000446007
0.000436749
0.000428354
0.000420706
0.000413708
0.000407279
0.000401354
0.000395874
0.00039079
0.00038606
0.000381646
0.000377511
0.000373624
0.000369953
0.000366459
0.00036312
0.000359846
0.000356613
0.00035301
0.00101348
0.000988229
0.000949375
0.000906203
0.000864449
0.000826429
0.000792625
0.000762772
0.000736376
0.000712928
0.000691973
0.000673128
0.000656078
0.000640564
0.000626375
0.000613335
0.000601303
0.000590156
0.000579797
0.000570138
0.000561109
0.000552645
0.000544693
0.000537204
0.000530135
0.000523446
0.0005171
0.000511062
0.000505294
0.00049977
0.000494421
0.000489273
0.000484073
0.00101671
0.00101241
0.00100191
0.000985664
0.000965616
0.000943738
0.000921469
0.000899685
0.000878855
0.000859189
0.000840746
0.000823504
0.000807399
0.000792353
0.000778279
0.000765095
0.000752723
0.00074109
0.000730131
0.000719788
0.000710009
0.000700744
0.000691953
0.000683594
0.000675632
0.000668033
0.000660764
0.000653795
0.000647091
0.000640627
0.000634355
0.000628264
0.000622268
0.00101676
0.00101592
0.0010136
0.00100903
0.00100204
0.000992931
0.000982215
0.000970439
0.000958071
0.000945471
0.000932897
0.000920524
0.000908466
0.000896791
0.000885538
0.000874722
0.000864345
0.000854401
0.000844875
0.000835753
0.000827014
0.000818639
0.000810607
0.000802898
0.00079549
0.000788363
0.000781496
0.000774868
0.000768454
0.000762236
0.000756184
0.000750282
0.000744498
0.00101671
0.00101623
0.00101553
0.00101428
0.0010122
0.0010091
0.00100498
0.000999911
0.000994054
0.000987573
0.000980636
0.00097339
0.000965958
0.00095844
0.000950915
0.000943442
0.000936065
0.000928818
0.000921724
0.000914798
0.000908049
0.000901483
0.0008951
0.0008889
0.000882877
0.000877026
0.00087134
0.000865808
0.000860422
0.00085517
0.00085004
0.000845024
0.000840113
0.0010167
0.00101622
0.00101574
0.00101518
0.00101442
0.00101336
0.00101189
0.00100996
0.00100757
0.00100473
0.00100149
0.000997886
0.000993993
0.000989864
0.000985553
0.00098111
0.000976577
0.000971991
0.000967383
0.000962776
0.000958193
0.000953649
0.000949157
0.000944726
0.000940363
0.000936072
0.000931856
0.000927716
0.000923652
0.000919663
0.000915747
0.000911907
0.000908147
0.0010167
0.00101621
0.00101575
0.00101528
0.0010148
0.00101425
0.0010136
0.00101279
0.0010118
0.00101061
0.0010092
0.00100757
0.00100574
0.00100371
0.00100152
0.000999174
0.000996704
0.000994127
0.000991465
0.000988736
0.000985958
0.000983144
0.000980309
0.000977464
0.000974617
0.000971778
0.000968952
0.000966146
0.000963364
0.000960613
0.000957897
0.000955224
0.000952605
0.0010167
0.00101621
0.00101574
0.00101529
0.00101484
0.00101439
0.00101393
0.00101344
0.00101291
0.0010123
0.00101162
0.00101084
0.00100996
0.00100899
0.00100792
0.00100675
0.00100548
0.00100414
0.00100272
0.00100123
0.000999682
0.000998085
0.000996446
0.000994773
0.000993073
0.000991352
0.000989618
0.000987875
0.000986132
0.000984394
0.00098267
0.000980968
0.000979304
0.0010167
0.00101621
0.00101574
0.00101528
0.00101484
0.00101441
0.00101398
0.00101356
0.00101314
0.00101271
0.00101225
0.00101178
0.00101127
0.00101073
0.00101014
0.00100951
0.00100884
0.00100812
0.00100736
0.00100656
0.00100572
0.00100484
0.00100393
0.001003
0.00100203
0.00100105
0.00100004
0.000999028
0.000998006
0.000996983
0.000995967
0.000994966
0.000993993
0.0010167
0.00101621
0.00101574
0.00101528
0.00101484
0.0010144
0.00101398
0.00101358
0.00101318
0.00101278
0.00101239
0.001012
0.00101161
0.00101122
0.00101081
0.00101039
0.00100996
0.00100951
0.00100905
0.00100857
0.00100808
0.00100756
0.00100704
0.00100649
0.00100594
0.00100537
0.00100479
0.00100421
0.00100362
0.00100303
0.00100246
0.0010019
0.00100137
0.0010167
0.00101621
0.00101574
0.00101528
0.00101483
0.0010144
0.00101398
0.00101357
0.00101318
0.00101279
0.00101241
0.00101205
0.00101169
0.00101133
0.00101098
0.00101063
0.00101028
0.00100994
0.00100959
0.00100924
0.00100889
0.00100854
0.00100818
0.00100782
0.00100746
0.00100709
0.00100673
0.00100637
0.00100602
0.00100567
0.00100533
0.00100502
0.00100473
0.0010167
0.00101621
0.00101574
0.00101528
0.00101483
0.0010144
0.00101398
0.00101357
0.00101317
0.00101279
0.00101241
0.00101205
0.00101169
0.00101135
0.00101101
0.00101068
0.00101036
0.00101005
0.00100974
0.00100943
0.00100913
0.00100884
0.00100855
0.00100827
0.00100799
0.00100771
0.00100745
0.00100719
0.00100694
0.0010067
0.00100648
0.00100629
0.00100612
0.0010167
0.00101621
0.00101574
0.00101528
0.00101483
0.0010144
0.00101398
0.00101357
0.00101317
0.00101279
0.00101241
0.00101205
0.00101169
0.00101135
0.00101101
0.00101069
0.00101037
0.00101007
0.00100977
0.00100948
0.00100919
0.00100892
0.00100865
0.0010084
0.00100815
0.00100791
0.00100768
0.00100746
0.00100726
0.00100707
0.0010069
0.00100675
0.00100664
0.0010167
0.00101621
0.00101574
0.00101528
0.00101483
0.0010144
0.00101398
0.00101357
0.00101317
0.00101278
0.00101241
0.00101204
0.00101169
0.00101134
0.00101101
0.00101069
0.00101037
0.00101007
0.00100977
0.00100948
0.0010092
0.00100894
0.00100868
0.00100843
0.00100819
0.00100796
0.00100774
0.00100754
0.00100735
0.00100718
0.00100703
0.0010069
0.0010068
0.0010167
0.00101621
0.00101574
0.00101528
0.00101483
0.0010144
0.00101397
0.00101357
0.00101317
0.00101278
0.0010124
0.00101204
0.00101168
0.00101134
0.00101101
0.00101068
0.00101037
0.00101006
0.00100976
0.00100948
0.0010092
0.00100893
0.00100868
0.00100843
0.00100819
0.00100797
0.00100776
0.00100756
0.00100737
0.00100721
0.00100706
0.00100693
0.00100684
0.0010167
0.00101621
0.00101574
0.00101528
0.00101483
0.0010144
0.00101397
0.00101356
0.00101317
0.00101278
0.0010124
0.00101204
0.00101168
0.00101134
0.001011
0.00101068
0.00101036
0.00101006
0.00100976
0.00100947
0.0010092
0.00100893
0.00100867
0.00100842
0.00100819
0.00100796
0.00100775
0.00100755
0.00100737
0.0010072
0.00100706
0.00100693
0.00100683
0.0010167
0.00101621
0.00101574
0.00101528
0.00101483
0.0010144
0.00101397
0.00101356
0.00101316
0.00101278
0.0010124
0.00101203
0.00101168
0.00101133
0.001011
0.00101067
0.00101036
0.00101005
0.00100975
0.00100947
0.00100919
0.00100892
0.00100866
0.00100842
0.00100818
0.00100796
0.00100774
0.00100755
0.00100736
0.00100719
0.00100704
0.00100691
0.00100681
0.0010167
0.00101621
0.00101574
0.00101528
0.00101483
0.00101439
0.00101397
0.00101356
0.00101316
0.00101278
0.0010124
0.00101203
0.00101168
0.00101133
0.00101099
0.00101067
0.00101035
0.00101005
0.00100975
0.00100946
0.00100918
0.00100892
0.00100866
0.00100841
0.00100817
0.00100795
0.00100773
0.00100753
0.00100735
0.00100718
0.00100702
0.00100689
0.00100678
0.0010167
0.00101621
0.00101574
0.00101528
0.00101483
0.00101439
0.00101397
0.00101356
0.00101316
0.00101277
0.0010124
0.00101203
0.00101167
0.00101133
0.00101099
0.00101066
0.00101035
0.00101004
0.00100974
0.00100946
0.00100918
0.00100891
0.00100865
0.0010084
0.00100816
0.00100794
0.00100772
0.00100752
0.00100733
0.00100716
0.001007
0.00100686
0.00100674
0.0010167
0.00101621
0.00101574
0.00101528
0.00101483
0.00101439
0.00101397
0.00101356
0.00101316
0.00101277
0.00101239
0.00101203
0.00101167
0.00101132
0.00101099
0.00101066
0.00101034
0.00101004
0.00100974
0.00100945
0.00100917
0.0010089
0.00100864
0.00100839
0.00100815
0.00100793
0.00100771
0.00100751
0.00100731
0.00100714
0.00100698
0.00100683
0.00100671
0.0010167
0.00101621
0.00101574
0.00101528
0.00101483
0.00101439
0.00101397
0.00101356
0.00101316
0.00101277
0.00101239
0.00101203
0.00101167
0.00101132
0.00101099
0.00101066
0.00101034
0.00101003
0.00100973
0.00100944
0.00100916
0.00100889
0.00100863
0.00100838
0.00100814
0.00100791
0.0010077
0.00100749
0.0010073
0.00100712
0.00100695
0.0010068
0.00100667
0.0010167
0.00101621
0.00101574
0.00101528
0.00101483
0.00101439
0.00101397
0.00101356
0.00101316
0.00101277
0.00101239
0.00101202
0.00101167
0.00101132
0.00101098
0.00101065
0.00101034
0.00101003
0.00100973
0.00100944
0.00100916
0.00100889
0.00100862
0.00100837
0.00100813
0.0010079
0.00100768
0.00100747
0.00100728
0.00100709
0.00100692
0.00100677
0.00100663
0.0010167
0.00101621
0.00101574
0.00101528
0.00101483
0.00101439
0.00101397
0.00101356
0.00101316
0.00101277
0.00101239
0.00101202
0.00101167
0.00101132
0.00101098
0.00101065
0.00101033
0.00101002
0.00100972
0.00100943
0.00100915
0.00100888
0.00100862
0.00100836
0.00100812
0.00100789
0.00100766
0.00100745
0.00100725
0.00100707
0.00100689
0.00100673
0.00100659
0.0010167
0.00101621
0.00101574
0.00101528
0.00101483
0.00101439
0.00101397
0.00101356
0.00101316
0.00101277
0.00101239
0.00101202
0.00101166
0.00101132
0.00101098
0.00101065
0.00101033
0.00101002
0.00100972
0.00100943
0.00100914
0.00100887
0.00100861
0.00100835
0.00100811
0.00100787
0.00100765
0.00100743
0.00100723
0.00100704
0.00100686
0.0010067
0.00100655
0.0010167
0.00101621
0.00101574
0.00101528
0.00101483
0.00101439
0.00101397
0.00101356
0.00101316
0.00101277
0.00101239
0.00101202
0.00101166
0.00101131
0.00101098
0.00101065
0.00101033
0.00101002
0.00100971
0.00100942
0.00100914
0.00100886
0.0010086
0.00100834
0.00100809
0.00100786
0.00100763
0.00100742
0.00100721
0.00100702
0.00100684
0.00100667
0.00100651
0.0010167
0.00101621
0.00101574
0.00101528
0.00101483
0.00101439
0.00101397
0.00101356
0.00101316
0.00101277
0.00101239
0.00101202
0.00101166
0.00101131
0.00101097
0.00101064
0.00101032
0.00101001
0.00100971
0.00100942
0.00100913
0.00100886
0.00100859
0.00100833
0.00100808
0.00100784
0.00100762
0.0010074
0.00100719
0.00100699
0.00100681
0.00100663
0.00100647
0.0010167
0.00101621
0.00101574
0.00101528
0.00101483
0.00101439
0.00101397
0.00101356
0.00101316
0.00101277
0.00101239
0.00101202
0.00101166
0.00101131
0.00101097
0.00101064
0.00101032
0.00101001
0.0010097
0.00100941
0.00100912
0.00100885
0.00100858
0.00100832
0.00100807
0.00100783
0.0010076
0.00100738
0.00100717
0.00100697
0.00100678
0.0010066
0.00100644
0.0010167
0.00101621
0.00101574
0.00101528
0.00101483
0.00101439
0.00101397
0.00101356
0.00101316
0.00101277
0.00101239
0.00101202
0.00101166
0.00101131
0.00101097
0.00101064
0.00101032
0.00101001
0.0010097
0.00100941
0.00100912
0.00100884
0.00100857
0.00100831
0.00100806
0.00100782
0.00100759
0.00100736
0.00100715
0.00100695
0.00100676
0.00100658
0.00100641
0.0010167
0.00101621
0.00101574
0.00101528
0.00101483
0.00101439
0.00101397
0.00101356
0.00101316
0.00101277
0.00101239
0.00101202
0.00101166
0.00101131
0.00101097
0.00101064
0.00101032
0.00101
0.0010097
0.0010094
0.00100912
0.00100884
0.00100857
0.00100831
0.00100805
0.00100781
0.00100757
0.00100735
0.00100713
0.00100693
0.00100673
0.00100655
0.00100637
0.0010167
0.00101621
0.00101574
0.00101528
0.00101483
0.0010144
0.00101397
0.00101356
0.00101316
0.00101277
0.0010124
0.00101203
0.00101167
0.00101132
0.00101098
0.00101064
0.00101032
0.00101001
0.0010097
0.0010094
0.00100911
0.00100883
0.00100856
0.00100829
0.00100804
0.00100779
0.00100755
0.00100732
0.0010071
0.00100688
0.00100668
0.00100648
0.0010063
0.0010167
0.00101621
0.00101574
0.00101528
0.00101483
0.0010144
0.00101398
0.00101357
0.00101317
0.00101278
0.0010124
0.00101203
0.00101167
0.00101132
0.00101098
0.00101064
0.00101031
0.00100999
0.00100968
0.00100937
0.00100907
0.00100878
0.00100849
0.00100821
0.00100794
0.00100767
0.00100741
0.00100715
0.0010069
0.00100666
0.00100643
0.0010062
0.00100598
0.0010167
0.00101621
0.00101574
0.00101529
0.00101484
0.00101442
0.001014
0.00101359
0.00101318
0.00101279
0.0010124
0.00101202
0.00101164
0.00101127
0.0010109
0.00101054
0.00101017
0.00100981
0.00100945
0.00100909
0.00100873
0.00100836
0.001008
0.00100764
0.00100727
0.00100691
0.00100655
0.00100618
0.00100582
0.00100546
0.00100509
0.00100473
0.00100437
0.0010167
0.00101622
0.00101576
0.0010153
0.00101486
0.00101441
0.00101397
0.00101353
0.00101308
0.00101263
0.00101216
0.00101168
0.00101118
0.00101066
0.00101012
0.00100955
0.00100897
0.00100836
0.00100774
0.00100709
0.00100642
0.00100572
0.00100501
0.00100429
0.00100354
0.00100278
0.00100201
0.00100122
0.00100043
0.00099962
0.000998807
0.000997988
0.000997165
0.0010167
0.00101622
0.00101574
0.00101524
0.00101469
0.00101408
0.00101338
0.0010126
0.00101171
0.00101071
0.00100961
0.0010084
0.00100709
0.00100568
0.00100417
0.00100258
0.00100091
0.00099916
0.000997349
0.000995481
0.000993563
0.000991604
0.000989611
0.000987591
0.00098555
0.000983495
0.000981432
0.000979366
0.000977303
0.000975248
0.000973205
0.000971178
0.000969172
0.00101671
0.00101601
0.00101489
0.00101328
0.00101117
0.00100855
0.00100544
0.00100185
0.000997842
0.000993457
0.000988751
0.000983776
0.000978586
0.000973229
0.000967748
0.000962185
0.000956574
0.000950947
0.00094533
0.000939748
0.000934221
0.000928765
0.000923397
0.000918128
0.000912969
0.000907928
0.000903014
0.000898231
0.000893586
0.00088908
0.000884718
0.000880502
0.000876432
0.00101529
0.00100709
0.000995597
0.000981556
0.000965597
0.000948331
0.000930314
0.000911994
0.000893701
0.000875675
0.000858079
0.000841024
0.000824575
0.00080877
0.000793623
0.000779134
0.00076529
0.000752073
0.000739461
0.000727428
0.000715946
0.000704986
0.000694522
0.000684525
0.000674969
0.000665826
0.000657072
0.000648682
0.000640632
0.0006329
0.000625464
0.000618303
0.000611397
0.00093593
0.000815518
0.000728126
0.000659054
0.000602018
0.000554609
0.000514932
0.000481397
0.000452754
0.000428037
0.000406503
0.00038758
0.000370823
0.000355881
0.000342478
0.000330387
0.000319428
0.000309451
0.000300331
0.000291966
0.000284267
0.000277161
0.000270584
0.000264482
0.000258807
0.000253518
0.000248581
0.000243964
0.000239639
0.000235584
0.000231775
0.000228195
0.000224827
0.000125477
0.000128847
0.000132096
0.000135205
0.000138174
0.000141008
0.000143711
0.000146288
0.000148744
0.000151082
0.000153307
0.000155422
0.000157433
0.000159342
0.000161155
0.000162875
0.000164506
0.000166051
0.000167515
0.0001689
0.000170211
0.000171451
0.000172623
0.000173729
0.000174773
0.000175758
0.000176687
0.000177561
0.000178383
0.000179157
0.000179883
0.000180564
0.000181203
0.000111635
0.000161108
0.000222096
0.000290748
0.000357654
0.000416142
0.00046767
0.000518252
0.000572472
0.000630622
0.000689485
0.000744692
0.000792244
0.000829205
0.000853957
0.000865245
0.000861821
0.000842294
0.000805214
0.000749402
0.000674818
0.000584496
0.000488094
0.000406955
0.000380202
0.000470665
0.000709422
0.000966553
0.00115143
0.00129234
0.00141028
0.00150934
0.00158997
0.00165317
0.00170093
0.00173583
0.00176058
0.00177775
0.00178971
0.00179857
0.00180618
0.001814
0.00182294
0.00183329
0.00184483
0.00185709
0.00186953
0.00188162
0.00189259
0.00190118
0.00190555
0.00190352
0.00189298
0.0018723
0.00184058
0.0017978
0.00174479
0.00168313
0.00161509
0.00154339
0.00147097
0.00140065
0.00133479
0.00127509
0.00122245
0.00117718
0.00113912
0.00110781
0.00108257
0.00106255
0.00104683
0.00103454
0.00102493
0.00101741
0.00101155
0.00100699
0.00100347
0.00100076
0.000998691
0.000997126
0.000995952
0.00099508
0.000994442
0.000993982
0.000993656
0.000993432
0.000993283
0.000993189
0.000993135
0.000993109
0.000993102
0.000993108
0.000993122
0.000993141
0.000993162
0.000993184
0.000993204
0.000993224
0.00099324
0.00099326
0.000247025
0.00021195
0.000174537
0.000163579
0.000182698
0.000223792
0.000277049
0.000333968
0.000389005
0.000439723
0.000485541
0.000526247
0.000560836
0.000588203
0.000606706
0.000614292
0.000608985
0.000589287
0.000554594
0.000505995
0.000447789
0.000389949
0.000351569
0.000365761
0.000477793
0.000687628
0.000901517
0.00106984
0.00120664
0.00132386
0.00142425
0.00150808
0.00157588
0.00162891
0.00166901
0.00169837
0.00171922
0.00173367
0.00174367
0.00175102
0.0017573
0.00176383
0.00177144
0.00178042
0.00179057
0.00180145
0.00181265
0.00182381
0.00183441
0.00184345
0.00184931
0.00184986
0.00184292
0.00182663
0.00179986
0.00176232
0.00171457
0.001658
0.00159468
0.0015272
0.00145842
0.00139114
0.0013278
0.00127015
0.00121919
0.00117525
0.0011382
0.00110759
0.00108278
0.00106298
0.00104734
0.00103507
0.00102545
0.00101791
0.00101203
0.00100744
0.00100389
0.00100115
0.000999057
0.000997463
0.00099626
0.000995362
0.000994698
0.000994214
0.000993866
0.000993622
0.000993455
0.000993345
0.000993276
0.000993237
0.000993218
0.000993214
0.000993219
0.00099323
0.000993244
0.00099326
0.000993275
0.00099329
0.000993303
0.000993318
0.000350329
0.000355981
0.000381873
0.000376474
0.000293748
0.000217677
0.000187506
0.000190332
0.000212098
0.00024373
0.000279028
0.000313519
0.000343755
0.000367101
0.000381853
0.000387113
0.00038267
0.000369256
0.000349259
0.000328001
0.00031571
0.000330324
0.00039819
0.000535858
0.00071159
0.000876218
0.00101852
0.00114362
0.00125413
0.00135061
0.0014332
0.00150215
0.00155806
0.001602
0.00163542
0.00166003
0.0016776
0.00168982
0.00169827
0.00170445
0.00170973
0.00171527
0.00172184
0.00172972
0.00173871
0.0017484
0.00175842
0.00176856
0.00177852
0.00178761
0.00179448
0.00179715
0.00179339
0.0017812
0.0017592
0.00172681
0.00168435
0.00163293
0.00157444
0.0015113
0.00144627
0.00138214
0.00132135
0.00126574
0.0012164
0.00117373
0.00113761
0.00110765
0.00108322
0.0010636
0.00104803
0.00103575
0.0010261
0.00101854
0.00101261
0.00100798
0.00100439
0.00100161
0.00099947
0.000997836
0.000996597
0.000995664
0.000994968
0.000994455
0.000994082
0.000993814
0.000993625
0.000993495
0.00099341
0.000993355
0.000993323
0.000993307
0.000993302
0.000993304
0.00099331
0.000993318
0.000993327
0.000993337
0.000993345
0.000993355
0.000478351
0.000474066
0.000484165
0.000536013
0.000653363
0.000728281
0.000602352
0.000424755
0.000310951
0.000254699
0.000232209
0.000228338
0.00023316
0.000241854
0.000251605
0.000261081
0.000270682
0.000283089
0.000304014
0.00034267
0.000409773
0.000509511
0.000631266
0.000758271
0.000881611
0.000998125
0.00110582
0.00120361
0.00129112
0.0013682
0.00143469
0.00149062
0.00153635
0.00157259
0.00160041
0.0016211
0.00163601
0.00164647
0.00165376
0.0016591
0.00166366
0.00166847
0.00167426
0.00168128
0.00168935
0.00169803
0.00170699
0.00171608
0.00172523
0.00173403
0.00174144
0.00174572
0.00174468
0.00173624
0.00171876
0.00169141
0.00165421
0.00160802
0.00155446
0.00149579
0.00143464
0.00137373
0.00131552
0.00126193
0.00121415
0.00117264
0.00113738
0.00110797
0.00108387
0.00106441
0.00104887
0.00103657
0.00102688
0.00101925
0.00101326
0.00100858
0.00100493
0.00100209
0.000999903
0.00099822
0.000996936
0.000995962
0.000995229
0.000994682
0.000994278
0.000993982
0.000993769
0.000993618
0.000993512
0.000993441
0.000993394
0.000993364
0.000993347
0.000993339
0.000993336
0.000993336
0.000993339
0.000993343
0.000993346
0.00099335
0.000615369
0.000607512
0.0006007
0.00060153
0.000627591
0.000696537
0.000799844
0.000878387
0.000844107
0.000714616
0.000578607
0.000474702
0.000419101
0.00039266
0.000385216
0.000392481
0.000413328
0.00044831
0.000498336
0.000563234
0.00064089
0.000727711
0.000819588
0.000912529
0.00100331
0.00108986
0.00117103
0.00124607
0.00131437
0.00137534
0.00142856
0.00147379
0.00151117
0.00154112
0.00156441
0.00158196
0.0015948
0.00160395
0.00161041
0.00161519
0.00161928
0.00162361
0.00162883
0.00163522
0.00164258
0.00165047
0.00165852
0.00166664
0.00167487
0.00168311
0.00169065
0.00169601
0.00169719
0.00169202
0.00167872
0.00165619
0.00162414
0.00158316
0.00153461
0.0014805
0.00142333
0.00136572
0.00131014
0.00125856
0.00121228
0.00117187
0.00113737
0.00110847
0.00108466
0.00106532
0.00104981
0.00103748
0.00102772
0.00102002
0.00101397
0.00100922
0.0010055
0.0010026
0.00100035
0.000998609
0.000997273
0.000996252
0.000995477
0.000994892
0.000994453
0.000994127
0.000993887
0.000993711
0.000993585
0.000993494
0.000993431
0.000993387
0.000993357
0.000993337
0.000993324
0.000993316
0.000993312
0.000993309
0.000993307
0.000993304
0.00073786
0.000730255
0.000722399
0.000714489
0.000709341
0.00071412
0.000736348
0.000776328
0.000818424
0.000836884
0.000814261
0.000761515
0.000712054
0.000676967
0.000658411
0.000655788
0.000667858
0.000693236
0.000730376
0.000777462
0.000832413
0.00089301
0.000957077
0.00102265
0.00108807
0.00115198
0.00121332
0.00127113
0.00132459
0.00137296
0.00141568
0.00145244
0.00148319
0.00150818
0.00152791
0.00154304
0.00155433
0.00156254
0.00156847
0.00157293
0.00157677
0.0015808
0.00158566
0.0015916
0.00159845
0.00160575
0.00161309
0.00162035
0.00162769
0.00163519
0.0016425
0.00164847
0.0016513
0.00164889
0.00163933
0.00162129
0.0015942
0.00155832
0.00151475
0.00146526
0.00141213
0.0013579
0.001305
0.00125545
0.00121064
0.00117127
0.0011375
0.00110906
0.0010855
0.00106628
0.00105079
0.00103841
0.00102859
0.00102083
0.0010147
0.00100987
0.00100608
0.00100311
0.00100079
0.000998995
0.000997603
0.000996532
0.00099571
0.000995084
0.000994608
0.000994249
0.00099398
0.000993778
0.000993629
0.000993518
0.000993436
0.000993377
0.000993333
0.000993302
0.000993278
0.000993261
0.000993248
0.000993239
0.000993231
0.000993221
0.000834491
0.000828099
0.000821668
0.000815137
0.000808577
0.000803016
0.000800997
0.000805463
0.000816851
0.000831384
0.000841624
0.000843683
0.000839722
0.000834212
0.000831397
0.000834222
0.000844268
0.000862048
0.000887325
0.000919371
0.000957148
0.000999447
0.001045
0.00109259
0.00114106
0.00118936
0.00123653
0.00128166
0.00132396
0.00136272
0.00139738
0.00142759
0.00145322
0.0014744
0.00149142
0.00150474
0.00151491
0.00152251
0.00152815
0.00153249
0.00153625
0.00154016
0.0015448
0.00155046
0.00155697
0.00156386
0.00157069
0.00157726
0.00158377
0.00159048
0.00159731
0.00160346
0.00160742
0.00160721
0.00160087
0.00158689
0.00156444
0.00153349
0.00149481
0.00144991
0.00140087
0.00135007
0.00129989
0.0012524
0.00120906
0.00117073
0.00113764
0.00110963
0.00108632
0.00106721
0.00105174
0.00103933
0.00102946
0.00102162
0.00101542
0.00101051
0.00100665
0.00100361
0.00100123
0.000999367
0.000997918
0.000996794
0.000995925
0.000995256
0.000994742
0.000994348
0.000994048
0.000993819
0.000993645
0.000993514
0.000993413
0.000993337
0.00099328
0.000993235
0.000993201
0.000993175
0.000993153
0.000993137
0.000993123
0.000993105
0.000903855
0.000899012
0.000894238
0.000889595
0.000885127
0.000880949
0.000877488
0.000875666
0.000876554
0.000880606
0.000886917
0.000894031
0.000901123
0.000908286
0.000916333
0.000926378
0.000939443
0.00095624
0.000977103
0.00100201
0.00103065
0.0010625
0.0010969
0.00113312
0.00117039
0.00120795
0.00124504
0.00128094
0.00131497
0.00134651
0.00137508
0.00140034
0.00142211
0.00144041
0.00145542
0.00146745
0.00147686
0.00148411
0.00148965
0.00149402
0.00149783
0.00150173
0.00150629
0.00151179
0.00151809
0.00152475
0.00153123
0.00153731
0.00154313
0.00154906
0.00155526
0.00156127
0.00156588
0.0015673
0.00156363
0.00155322
0.00153502
0.0015087
0.00147474
0.00143436
0.00138939
0.00134205
0.00129465
0.00124925
0.00120742
0.00117011
0.0011377
0.00111012
0.00108705
0.00106806
0.00105262
0.00104019
0.00103026
0.00102236
0.00101609
0.00101112
0.00100719
0.00100408
0.00100164
0.000999715
0.00099821
0.000997034
0.000996117
0.000995405
0.000994852
0.000994423
0.000994092
0.000993835
0.000993637
0.000993483
0.000993364
0.000993271
0.000993199
0.000993142
0.000993096
0.00099306
0.00099303
0.000993006
0.000992986
0.000992961
0.000949627
0.000946297
0.000943083
0.000940082
0.000937391
0.000935107
0.000933356
0.000932374
0.000932542
0.000934298
0.000937848
0.000943159
0.000950071
0.000958468
0.000968384
0.000980011
0.000993628
0.00100951
0.00102783
0.00104866
0.0010719
0.00109733
0.00112461
0.0011533
0.00118293
0.00121295
0.00124283
0.00127201
0.00129995
0.00132615
0.0013502
0.00137176
0.00139065
0.00140684
0.00142039
0.0014315
0.00144044
0.00144752
0.0014531
0.00145761
0.00146156
0.00146556
0.00147012
0.00147556
0.00148177
0.0014883
0.00149461
0.00150036
0.00150567
0.00151091
0.00151644
0.00152208
0.00152693
0.00152947
0.0015279
0.00152051
0.00150609
0.00148404
0.00145455
0.00141854
0.00137758
0.00133371
0.00128912
0.00124586
0.00120557
0.00116932
0.0011376
0.00111045
0.00108764
0.00106877
0.00105337
0.00104094
0.00103097
0.00102302
0.0010167
0.00101167
0.00100767
0.00100451
0.001002
0.00100002
0.000998466
0.000997241
0.000996279
0.000995525
0.000994934
0.000994472
0.00099411
0.000993826
0.000993604
0.000993429
0.000993291
0.000993181
0.000993094
0.000993024
0.000992968
0.000992921
0.000992883
0.000992852
0.000992825
0.000992792
0.000977422
0.000975348
0.000973406
0.000971694
0.000970314
0.000969371
0.00096897
0.000969229
0.000970291
0.000972354
0.000975619
0.000980239
0.00098631
0.000993885
0.001003
0.00101371
0.00102608
0.00104018
0.00105604
0.00107367
0.00109302
0.00111395
0.00113625
0.00115968
0.0011839
0.00120855
0.00123324
0.00125753
0.00128102
0.00130329
0.00132398
0.00134281
0.00135959
0.00137421
0.00138672
0.00139721
0.00140586
0.00141289
0.00141859
0.00142331
0.00142747
0.00143162
0.00143625
0.00144169
0.00144789
0.0014544
0.00146066
0.00146626
0.00147121
0.00147591
0.0014808
0.00148594
0.00149074
0.00149395
0.00149393
0.00148902
0.00147785
0.00145964
0.0014343
0.00140244
0.00136539
0.00132495
0.00128319
0.00124212
0.00120343
0.00116827
0.00113727
0.00111057
0.00108803
0.0010693
0.00105397
0.00104154
0.00103155
0.00102357
0.0010172
0.00101212
0.00100808
0.00100486
0.00100231
0.00100028
0.000998675
0.000997405
0.000996402
0.00099561
0.000994984
0.00099449
0.000994099
0.00099379
0.000993545
0.000993349
0.000993193
0.000993068
0.000992967
0.000992884
0.000992817
0.000992761
0.000992715
0.000992676
0.000992644
0.000992603
0.000992909
0.000991749
0.000990722
0.000989916
0.000989423
0.000989341
0.000989767
0.000990791
0.000992512
0.000995042
0.000998495
0.00100298
0.00100861
0.00101545
0.00102358
0.00103304
0.00104388
0.0010561
0.00106973
0.00108474
0.00110108
0.00111866
0.00113735
0.00115697
0.00117729
0.00119806
0.00121897
0.00123971
0.00125993
0.0012793
0.00129751
0.00131431
0.0013295
0.00134298
0.00135472
0.00136477
0.00137326
0.00138033
0.0013862
0.00139114
0.00139554
0.00139987
0.00140462
0.00141012
0.00141634
0.00142291
0.00142921
0.00143479
0.00143956
0.00144386
0.0014482
0.0014528
0.00145735
0.00146088
0.00146193
0.00145894
0.00145051
0.00143567
0.00141409
0.00138613
0.00135281
0.00131573
0.0012768
0.00123796
0.00120092
0.00116691
0.00113667
0.00111045
0.0010882
0.00106964
0.00105438
0.00104198
0.00103199
0.00102398
0.00101758
0.00101246
0.00100838
0.00100513
0.00100253
0.00100047
0.000998822
0.000997515
0.000996477
0.000995651
0.000994995
0.000994473
0.000994057
0.000993724
0.000993458
0.000993244
0.000993071
0.000992931
0.000992817
0.000992723
0.000992646
0.000992581
0.000992527
0.000992482
0.000992444
0.000992396
0.00100079
0.00100022
0.000999771
0.000999527
0.000999566
0.00099997
0.00100082
0.00100221
0.00100422
0.00100692
0.0010104
0.00101473
0.00101998
0.00102622
0.0010335
0.00104188
0.00105138
0.00106203
0.00107383
0.00108676
0.00110079
0.00111586
0.00113186
0.00114868
0.00116614
0.00118405
0.00120219
0.00122029
0.00123807
0.00125527
0.00127161
0.00128686
0.00130085
0.00131345
0.00132461
0.00133435
0.00134273
0.00134987
0.00135591
0.0013611
0.00136574
0.00137027
0.00137515
0.00138072
0.00138701
0.00139367
0.00140009
0.00140575
0.00141048
0.00141454
0.00141843
0.00142253
0.00142672
0.00143029
0.00143203
0.00143048
0.00142426
0.0014123
0.00139407
0.00136968
0.00133989
0.00130606
0.00126993
0.00123334
0.001198
0.0011652
0.00113577
0.00111007
0.00108815
0.00106977
0.0010546
0.00104224
0.00103226
0.00102424
0.00101782
0.00101268
0.00100858
0.00100529
0.00100267
0.00100057
0.000998897
0.00099756
0.000996493
0.000995641
0.000994959
0.000994414
0.000993976
0.000993624
0.000993339
0.000993109
0.000992922
0.000992769
0.000992644
0.00099254
0.000992454
0.000992382
0.000992321
0.000992269
0.000992227
0.000992173
0.00100445
0.00100419
0.00100407
0.00100412
0.00100443
0.00100505
0.00100607
0.00100756
0.00100958
0.00101221
0.00101551
0.00101954
0.00102435
0.00102999
0.00103652
0.00104396
0.00105235
0.00106171
0.00107204
0.00108334
0.00109559
0.00110873
0.00112269
0.00113739
0.0011527
0.00116846
0.00118448
0.00120057
0.00121649
0.001232
0.00124688
0.00126091
0.00127394
0.00128583
0.00129653
0.00130601
0.00131432
0.00132151
0.00132772
0.00133312
0.00133799
0.00134271
0.00134773
0.00135339
0.00135976
0.00136653
0.00137311
0.00137893
0.00138372
0.00138767
0.00139126
0.00139492
0.00139872
0.00140217
0.00140427
0.00140374
0.00139925
0.0013897
0.00137439
0.00135322
0.00132671
0.00129598
0.00126258
0.00122826
0.00119465
0.00116312
0.00113455
0.00110943
0.00108785
0.00106969
0.00105464
0.00104233
0.00103237
0.00102435
0.00101792
0.00101277
0.00100865
0.00100534
0.0010027
0.00100058
0.000998889
0.000997532
0.000996444
0.000995571
0.00099487
0.000994306
0.000993852
0.000993484