/*--------------------------------*- C++ -*----------------------------------*\
  =========                 |
  \\      /  F ield         | OpenFOAM: The Open Source CFD Toolbox
   \\    /   O peration     | Website:  https://openfoam.org
    \\  /    A nd           | Version:  10
     \\/     M anipulation  |
\*---------------------------------------------------------------------------*/
FoamFile
{
    format      ascii;
    class       volScalarField;
    location    "0.04";
    object      p;
}
// * * * * * * * * * * * * * * * * * * * * * * * * * * * * * * * * * * * * * //

dimensions      [0 2 -2 0 0 0 0];

internalField   nonuniform List<scalar> 
6820
(
-8.53857
-9.90288
-10.317
-10.4136
-10.4957
-10.5488
-10.5816
-10.6082
-10.6316
-10.6528
-10.6728
-10.6921
-10.7109
-10.7293
-10.7474
-10.7652
-10.7826
-10.7996
-10.816
-10.8317
-10.8465
-10.86
-10.8719
-10.8816
-10.8884
-10.8914
-10.8892
-10.8796
-10.8604
-10.8227
-10.7687
-10.6529
-10.4778
-11.3387
-10.9345
-10.6415
-10.547
-10.5497
-10.5681
-10.5881
-10.61
-10.6319
-10.6529
-10.6728
-10.6921
-10.7107
-10.7289
-10.7467
-10.7641
-10.7811
-10.7978
-10.8139
-10.8293
-10.8439
-10.8574
-10.8693
-10.8793
-10.8867
-10.8907
-10.8902
-10.8841
-10.8694
-10.8491
-10.8066
-10.7926
-10.7265
-10.1956
-10.0676
-10.2929
-10.432
-10.4949
-10.541
-10.575
-10.6025
-10.6267
-10.6484
-10.6688
-10.6882
-10.7071
-10.7256
-10.7437
-10.7615
-10.7789
-10.796
-10.8126
-10.8285
-10.8436
-10.8576
-10.8701
-10.8808
-10.8891
-10.8942
-10.8952
-10.8911
-10.88
-10.8618
-10.8306
-10.7976
-10.7317
-10.562
-10.5791
-10.5557
-10.5337
-10.5431
-10.5652
-10.5872
-10.6087
-10.6298
-10.6502
-10.6699
-10.689
-10.7077
-10.726
-10.744
-10.7618
-10.7792
-10.7962
-10.8128
-10.8288
-10.8441
-10.8584
-10.8715
-10.8829
-10.8923
-10.8991
-10.9025
-10.902
-10.8963
-10.8863
-10.8683
-10.8531
-10.8253
-10.4519
-10.398
-10.4426
-10.4885
-10.5251
-10.5568
-10.5833
-10.607
-10.629
-10.6497
-10.6694
-10.6885
-10.7072
-10.7255
-10.7435
-10.7613
-10.7788
-10.796
-10.8128
-10.8292
-10.8449
-10.8598
-10.8737
-10.8862
-10.8971
-10.9058
-10.9121
-10.9155
-10.9154
-10.9127
-10.906
-10.9013
-10.8928
-10.4925
-10.4859
-10.505
-10.523
-10.5426
-10.5656
-10.5882
-10.6098
-10.6305
-10.6505
-10.6698
-10.6887
-10.7072
-10.7255
-10.7435
-10.7613
-10.7789
-10.7962
-10.8133
-10.83
-10.8462
-10.8617
-10.8765
-10.8902
-10.9027
-10.9138
-10.9232
-10.9308
-10.9367
-10.9417
-10.9459
-10.9534
-10.9634
-10.4913
-10.4808
-10.4962
-10.5189
-10.5422
-10.5662
-10.589
-10.6104
-10.6309
-10.6506
-10.6698
-10.6885
-10.707
-10.7251
-10.7432
-10.761
-10.7787
-10.7963
-10.8136
-10.8307
-10.8474
-10.8637
-10.8795
-10.8946
-10.909
-10.9226
-10.9353
-10.9474
-10.9591
-10.9715
-10.9854
-11.0039
-11.0284
-10.5006
-10.4978
-10.5116
-10.5305
-10.5501
-10.571
-10.5919
-10.6121
-10.6318
-10.6511
-10.6699
-10.6884
-10.7066
-10.7248
-10.7427
-10.7607
-10.7785
-10.7962
-10.8139
-10.8314
-10.8487
-10.8658
-10.8827
-10.8993
-10.9156
-10.9318
-10.9478
-10.9642
-10.9815
-11.0008
-11.0233
-11.0514
-11.0876
-10.5087
-10.5078
-10.5189
-10.5357
-10.5541
-10.5738
-10.5938
-10.6133
-10.6325
-10.6513
-10.6698
-10.6881
-10.7062
-10.7242
-10.7422
-10.7601
-10.778
-10.796
-10.814
-10.8319
-10.8499
-10.8679
-10.8859
-10.904
-10.9223
-10.941
-10.9603
-10.9808
-11.0032
-11.0285
-11.0583
-11.0946
-11.1398
-10.5167
-10.5174
-10.5274
-10.5426
-10.5594
-10.5776
-10.5962
-10.6149
-10.6333
-10.6516
-10.6697
-10.6877
-10.7057
-10.7235
-10.7415
-10.7594
-10.7775
-10.7956
-10.8139
-10.8323
-10.8509
-10.8698
-10.8889
-10.9085
-10.9287
-10.9498
-10.9721
-10.9964
-11.0232
-11.0539
-11.0896
-11.1323
-11.1843
-10.5244
-10.526
-10.5349
-10.5484
-10.5639
-10.5808
-10.5984
-10.6162
-10.634
-10.6518
-10.6696
-10.6873
-10.705
-10.7227
-10.7406
-10.7585
-10.7766
-10.795
-10.8135
-10.8324
-10.8516
-10.8713
-10.8916
-10.9125
-10.9345
-10.9578
-10.9829
-11.0104
-11.0411
-11.076
-11.1165
-11.1641
-11.2207
-10.5316
-10.5336
-10.5418
-10.554
-10.5683
-10.584
-10.6006
-10.6176
-10.6347
-10.652
-10.6693
-10.6867
-10.7041
-10.7217
-10.7395
-10.7574
-10.7756
-10.7941
-10.8129
-10.8322
-10.852
-10.8724
-10.8937
-10.9159
-10.9395
-10.9647
-10.9922
-11.0224
-11.0561
-11.0944
-11.1384
-11.1893
-11.2488
-10.5384
-10.5405
-10.548
-10.5591
-10.5723
-10.5869
-10.6026
-10.6188
-10.6353
-10.652
-10.6689
-10.6859
-10.7031
-10.7205
-10.7381
-10.756
-10.7742
-10.7928
-10.8119
-10.8315
-10.8518
-10.8729
-10.895
-10.9184
-10.9433
-10.9702
-10.9995
-11.0318
-11.068
-11.1087
-11.155
-11.2079
-11.2688
-10.5445
-10.5467
-10.5536
-10.5638
-10.5759
-10.5896
-10.6044
-10.6198
-10.6357
-10.6518
-10.6683
-10.6849
-10.7019
-10.719
-10.7365
-10.7543
-10.7725
-10.7912
-10.8104
-10.8303
-10.851
-10.8727
-10.8955
-10.9197
-10.9457
-10.9739
-11.0046
-11.0385
-11.0762
-11.1184
-11.166
-11.2197
-11.2807
-10.5501
-10.5521
-10.5585
-10.5679
-10.5792
-10.592
-10.6059
-10.6206
-10.6358
-10.6515
-10.6675
-10.6837
-10.7003
-10.7172
-10.7345
-10.7522
-10.7703
-10.789
-10.8083
-10.8284
-10.8494
-10.8715
-10.8948
-10.9197
-10.9465
-10.9755
-11.0072
-11.042
-11.0806
-11.1235
-11.1714
-11.2249
-11.2848
-10.555
-10.557
-10.5629
-10.5715
-10.582
-10.594
-10.6072
-10.6212
-10.6358
-10.6509
-10.6664
-10.6822
-10.6985
-10.7151
-10.7321
-10.7496
-10.7676
-10.7862
-10.8056
-10.8257
-10.8469
-10.8692
-10.8928
-10.9181
-10.9453
-10.9748
-11.0069
-11.0421
-11.0809
-11.1237
-11.1711
-11.2234
-11.2814
-10.5592
-10.5611
-10.5666
-10.5746
-10.5844
-10.5957
-10.6081
-10.6214
-10.6354
-10.65
-10.665
-10.6804
-10.6963
-10.7126
-10.7293
-10.7465
-10.7644
-10.7828
-10.802
-10.8222
-10.8433
-10.8656
-10.8894
-10.9148
-10.9421
-10.9716
-11.0037
-11.0387
-11.0771
-11.1191
-11.1652
-11.2157
-11.271
-10.5629
-10.5646
-10.5698
-10.5772
-10.5863
-10.5969
-10.6087
-10.6213
-10.6347
-10.6487
-10.6632
-10.6782
-10.6937
-10.7096
-10.726
-10.7429
-10.7604
-10.7787
-10.7977
-10.8176
-10.8385
-10.8607
-10.8843
-10.9095
-10.9366
-10.9658
-10.9974
-11.0317
-11.0691
-11.1097
-11.1539
-11.2019
-11.2539
-10.5658
-10.5675
-10.5722
-10.5792
-10.5877
-10.5977
-10.6088
-10.6208
-10.6336
-10.6471
-10.6611
-10.6756
-10.6906
-10.7061
-10.7221
-10.7386
-10.7558
-10.7737
-10.7923
-10.8119
-10.8325
-10.8544
-10.8775
-10.9023
-10.9288
-10.9573
-10.988
-11.0211
-11.057
-11.0957
-11.1375
-11.1825
-11.2308
-10.5681
-10.5697
-10.5741
-10.5806
-10.5886
-10.5979
-10.6085
-10.6199
-10.6321
-10.645
-10.6585
-10.6725
-10.687
-10.702
-10.7176
-10.7337
-10.7504
-10.7678
-10.786
-10.8051
-10.8252
-10.8464
-10.869
-10.893
-10.9186
-10.946
-10.9754
-11.007
-11.0409
-11.0773
-11.1162
-11.1578
-11.202
-10.5697
-10.5712
-10.5753
-10.5814
-10.5889
-10.5977
-10.6076
-10.6185
-10.6302
-10.6425
-10.6554
-10.6689
-10.6829
-10.6974
-10.7124
-10.728
-10.7442
-10.761
-10.7786
-10.7971
-10.8165
-10.8369
-10.8586
-10.8815
-10.906
-10.932
-10.9598
-10.9894
-11.021
-11.0547
-11.0904
-11.1282
-11.1681
-10.5707
-10.572
-10.5759
-10.5815
-10.5886
-10.5969
-10.6063
-10.6166
-10.6277
-10.6395
-10.6519
-10.6648
-10.6782
-10.6921
-10.7065
-10.7215
-10.7371
-10.7532
-10.7701
-10.7878
-10.8063
-10.8257
-10.8463
-10.868
-10.891
-10.9154
-10.9412
-10.9686
-10.9976
-11.0282
-11.0605
-11.0943
-11.1297
-10.5709
-10.5721
-10.5758
-10.5811
-10.5877
-10.5955
-10.6044
-10.6142
-10.6247
-10.636
-10.6478
-10.6601
-10.6729
-10.6862
-10.7
-10.7143
-10.7291
-10.7445
-10.7605
-10.7772
-10.7947
-10.813
-10.8322
-10.8524
-10.8737
-10.8962
-10.9198
-10.9447
-10.9708
-10.9982
-11.0268
-11.0566
-11.0874
-10.5704
-10.5716
-10.575
-10.5799
-10.5861
-10.5935
-10.6019
-10.6111
-10.6212
-10.6318
-10.643
-10.6547
-10.6669
-10.6796
-10.6926
-10.7062
-10.7202
-10.7347
-10.7497
-10.7653
-10.7816
-10.7986
-10.8163
-10.8349
-10.8543
-10.8746
-10.8958
-10.918
-10.9411
-10.9651
-10.9899
-11.0155
-11.0417
-10.5692
-10.5703
-10.5734
-10.5781
-10.5839
-10.5909
-10.5988
-10.6076
-10.6171
-10.6272
-10.6378
-10.6489
-10.6605
-10.6724
-10.6847
-10.6974
-10.7105
-10.724
-10.7379
-10.7524
-10.7673
-10.7828
-10.7989
-10.8156
-10.8329
-10.8509
-10.8696
-10.8889
-10.9088
-10.9293
-10.9502
-10.9716
-10.9932
-10.5672
-10.5682
-10.5712
-10.5755
-10.581
-10.5875
-10.595
-10.6032
-10.6122
-10.6217
-10.6317
-10.6422
-10.653
-10.6642
-10.6757
-10.6875
-10.6997
-10.7121
-10.7249
-10.738
-10.7515
-10.7654
-10.7797
-10.7945
-10.8096
-10.8252
-10.8411
-10.8575
-10.8741
-10.8911
-10.9082
-10.9253
-10.9425
-10.5645
-10.5655
-10.5683
-10.5724
-10.5775
-10.5837
-10.5908
-10.5987
-10.6072
-10.6162
-10.6256
-10.6354
-10.6456
-10.6559
-10.6666
-10.6774
-10.6885
-10.6998
-10.7113
-10.723
-10.735
-10.7471
-10.7595
-10.7721
-10.785
-10.798
-10.8112
-10.8245
-10.8378
-10.8512
-10.8644
-10.8775
-10.8902
-10.561
-10.5619
-10.5643
-10.568
-10.5727
-10.5784
-10.5851
-10.5924
-10.6004
-10.6089
-10.6177
-10.6269
-10.6364
-10.646
-10.6558
-10.6657
-10.6758
-10.6859
-10.6961
-10.7064
-10.7167
-10.7272
-10.7376
-10.7481
-10.7586
-10.7691
-10.7795
-10.7898
-10.7999
-10.8097
-10.8192
-10.8283
-10.8368
-10.5569
-10.5578
-10.5603
-10.564
-10.5687
-10.5743
-10.5807
-10.5878
-10.5953
-10.6033
-10.6115
-10.62
-10.6286
-10.6374
-10.6462
-10.655
-10.6639
-10.6727
-10.6814
-10.6901
-10.6988
-10.7073
-10.7157
-10.7239
-10.732
-10.7398
-10.7474
-10.7546
-10.7615
-10.7678
-10.7736
-10.7788
-10.7833
-10.5516
-10.5519
-10.5535
-10.5563
-10.5602
-10.5652
-10.5712
-10.5778
-10.5851
-10.5927
-10.6006
-10.6086
-10.6167
-10.6249
-10.633
-10.641
-10.6488
-10.6566
-10.6641
-10.6714
-10.6784
-10.6852
-10.6917
-10.6978
-10.7036
-10.7089
-10.7138
-10.7181
-10.7218
-10.7249
-10.7273
-10.7288
-10.7294
-10.5467
-10.5484
-10.5512
-10.5547
-10.5591
-10.5642
-10.5698
-10.576
-10.5826
-10.5895
-10.5965
-10.6036
-10.6107
-10.6176
-10.6245
-10.6312
-10.6377
-10.6439
-10.6497
-10.6553
-10.6605
-10.6653
-10.6696
-10.6734
-10.6767
-10.6794
-10.6815
-10.6829
-10.6835
-10.6833
-10.6822
-10.6802
-10.6771
-10.5375
-10.5355
-10.5348
-10.5363
-10.5398
-10.5448
-10.5508
-10.5574
-10.5646
-10.5719
-10.5793
-10.5867
-10.5939
-10.6008
-10.6075
-10.6137
-10.6196
-10.625
-10.6299
-10.6343
-10.6382
-10.6414
-10.6441
-10.646
-10.6472
-10.6477
-10.6473
-10.6461
-10.644
-10.6409
-10.6367
-10.6315
-10.6251
-10.5387
-10.5438
-10.5474
-10.5501
-10.5531
-10.5569
-10.5613
-10.5662
-10.5715
-10.5769
-10.5825
-10.5879
-10.5933
-10.5984
-10.6032
-10.6076
-10.6116
-10.6152
-10.6182
-10.6206
-10.6224
-10.6235
-10.6238
-10.6234
-10.6222
-10.6201
-10.6171
-10.6131
-10.6081
-10.602
-10.5948
-10.5864
-10.5767
-10.51
-10.4997
-10.4954
-10.4979
-10.5037
-10.511
-10.5193
-10.5278
-10.5365
-10.5449
-10.553
-10.5606
-10.5676
-10.574
-10.5797
-10.5848
-10.589
-10.5926
-10.5953
-10.5971
-10.5981
-10.5982
-10.5974
-10.5956
-10.5927
-10.5888
-10.5839
-10.5777
-10.5705
-10.562
-10.5522
-10.5412
-10.5289
-10.5525
-10.5673
-10.5672
-10.5621
-10.5591
-10.5588
-10.56
-10.5621
-10.565
-10.5682
-10.5717
-10.5751
-10.5784
-10.5814
-10.584
-10.5862
-10.5878
-10.5887
-10.5889
-10.5883
-10.5869
-10.5847
-10.5814
-10.5772
-10.572
-10.5656
-10.5581
-10.5494
-10.5396
-10.5284
-10.516
-10.5022
-10.4871
-10.4438
-10.4061
-10.4019
-10.4222
-10.4399
-10.456
-10.4715
-10.4859
-10.4991
-10.5109
-10.5214
-10.5307
-10.5388
-10.5456
-10.5513
-10.5558
-10.5592
-10.5615
-10.5626
-10.5625
-10.5613
-10.5588
-10.5551
-10.5502
-10.544
-10.5366
-10.5277
-10.5176
-10.5061
-10.4932
-10.4789
-10.4631
-10.446
-10.6522
-10.6758
-10.6446
-10.6071
-10.5832
-10.5741
-10.5688
-10.5655
-10.5641
-10.5641
-10.5647
-10.5656
-10.5666
-10.5674
-10.5678
-10.5678
-10.5671
-10.5657
-10.5635
-10.5604
-10.5563
-10.5513
-10.5451
-10.5378
-10.5293
-10.5196
-10.5085
-10.4962
-10.4825
-10.4674
-10.451
-10.4331
-10.4137
-10.2368
-10.1551
-10.2118
-10.292
-10.3452
-10.3805
-10.411
-10.4369
-10.4582
-10.476
-10.4908
-10.5031
-10.5132
-10.5213
-10.5277
-10.5323
-10.5354
-10.5369
-10.537
-10.5355
-10.5327
-10.5283
-10.5226
-10.5153
-10.5066
-10.4964
-10.4847
-10.4715
-10.4568
-10.4406
-10.4229
-10.4037
-10.383
-11.2117
-10.9331
-10.7268
-10.6335
-10.5958
-10.5732
-10.5579
-10.5493
-10.5451
-10.5432
-10.5427
-10.5429
-10.5434
-10.5438
-10.5439
-10.5434
-10.5422
-10.5402
-10.5372
-10.5332
-10.5281
-10.5218
-10.5143
-10.5055
-10.4954
-10.4838
-10.4709
-10.4564
-10.4405
-10.4231
-10.4041
-10.3836
-10.3615
-9.25313
-9.81434
-10.1175
-10.2324
-10.3114
-10.3723
-10.4145
-10.445
-10.4683
-10.4863
-10.5001
-10.5107
-10.5188
-10.5248
-10.5288
-10.5312
-10.5319
-10.5312
-10.5289
-10.5251
-10.5198
-10.5131
-10.5048
-10.495
-10.4837
-10.4708
-10.4564
-10.4404
-10.4228
-10.4037
-10.383
-10.3607
-10.3369
-10.1865
-9.75423
-9.69573
-10.1316
-10.8438
-11.7455
-12.7503
-13.7851
-14.8121
-15.8071
-16.7481
-17.6153
-18.3927
-19.0675
-19.6293
-20.0716
-20.3877
-20.5713
-20.6146
-20.5082
-20.2406
-19.7984
-19.1678
-18.3393
-17.3136
-16.1033
-14.7284
-13.2275
-11.66
-10.0835
-8.54719
-7.09999
-5.78188
-4.61595
-3.60849
-2.75348
-2.03791
-1.44585
-0.96087
-0.567414
-0.251382
-0.000331069
0.196582
0.348714
0.464077
0.549468
0.610599
0.652226
0.678281
0.691997
0.696014
0.692472
0.683097
0.669268
0.65209
0.632445
0.61104
0.588445
0.565121
0.541443
0.517721
0.494211
0.471128
0.44865
0.426915
0.406021
0.386024
0.366943
0.34877
0.33148
0.315037
0.299397
0.284512
0.27033
0.256797
0.243856
0.231453
0.219535
0.208052
0.196953
0.186194
0.175731
0.165525
0.155538
0.145736
0.136087
0.126564
0.117139
0.107789
0.0984921
0.0892262
0.0799792
0.0707221
0.0614655
0.0521423
0.0428493
0.0333493
0.0240927
0.0141257
0.00537157
-10.8831
-10.614
-10.4599
-10.6665
-11.1317
-11.8257
-12.6916
-13.6496
-14.6365
-15.6048
-16.5197
-17.3591
-18.1066
-18.7498
-19.2812
-19.6942
-19.9821
-20.1375
-20.1521
-20.0157
-19.7175
-19.2463
-18.5937
-17.7592
-16.7497
-15.5761
-14.2616
-12.8463
-11.3728
-9.88486
-8.43134
-7.05818
-5.80085
-4.68072
-3.70503
-2.87009
-2.16551
-1.57778
-1.09242
-0.695392
-0.373706
-0.115738
0.0887684
0.248755
0.37195
0.464959
0.533375
0.581882
0.614373
0.634065
0.6436
0.645134
0.640415
0.630852
0.617577
0.6015
0.583352
0.563725
0.543097
0.521862
0.500346
0.47882
0.457516
0.436625
0.416303
0.396663
0.377779
0.359686
0.342391
0.32588
0.310129
0.295103
0.280761
0.267058
0.253946
0.241376
0.229299
0.217666
0.206432
0.195552
0.184984
0.174687
0.164626
0.154765
0.145073
0.135521
0.12608
0.116728
0.10744
0.0981973
0.0889788
0.0797729
0.0705523
0.0613267
0.0520335
0.0427618
0.0332938
0.0240395
0.0141353
0.00530653
-10.6812
-10.4894
-10.4687
-10.7553
-11.2637
-11.9332
-12.7195
-13.5787
-14.4722
-15.3638
-16.2206
-17.0143
-17.7248
-18.3386
-18.8442
-19.2313
-19.4918
-19.6182
-19.6027
-19.4368
-19.1131
-18.6266
-17.9763
-17.1621
-16.1872
-15.0655
-13.8226
-12.4883
-11.0974
-9.69281
-8.31909
-7.01679
-5.81781
-4.74227
-3.79813
-2.98365
-2.29078
-1.70817
-1.2232
-0.82325
-0.496451
-0.231987
-0.0201993
0.147425
0.278311
0.378864
0.454542
0.509945
0.548917
0.574651
0.589781
0.596473
0.596492
0.591274
0.581978
0.56954
0.554717
0.538123
0.520257
0.501529
0.482282
0.462803
0.443338
0.424092
0.405236
0.386901
0.369175
0.352111
0.335729
0.320031
0.305001
0.290614
0.276837
0.263634
0.250962
0.23878
0.227043
0.215709
0.204736
0.194085
0.183716
0.173594
0.163685
0.153956
0.144379
0.134927
0.125573
0.116296
0.107074
0.0978882
0.0887194
0.0795565
0.0703742
0.061181
0.0519194
0.0426699
0.0332355
0.0239831
0.0141451
0.00523784
-10.8302
-10.7908
-10.8324
-11.0839
-11.5211
-12.1023
-12.7935
-13.5563
-14.355
-15.1579
-15.9358
-16.6607
-17.3122
-17.876
-18.3389
-18.6896
-18.9191
-19.0195
-18.9836
-18.8055
-18.4802
-18.0031
-17.3707
-16.5831
-15.6483
-14.5828
-13.4068
-12.1459
-10.8337
-9.50879
-8.21073
-6.9757
-5.83262
-4.8004
-3.88751
-3.09383
-2.41333
-1.83663
-1.35281
-0.950637
-0.619303
-0.348804
-0.130087
0.0449184
0.183323
0.291312
0.374197
0.436487
0.481966
0.513791
0.534583
0.546506
0.551341
0.550543
0.545297
0.536568
0.525137
0.511641
0.4966
0.480444
0.463529
0.446158
0.42859
0.411046
0.393711
0.37673
0.360208
0.344213
0.328782
0.313928
0.299648
0.285926
0.272739
0.260056
0.247844
0.236065
0.224683
0.213661
0.202961
0.192549
0.182389
0.172449
0.162699
0.153109
0.143652
0.134304
0.125042
0.115844
0.10669
0.0975645
0.0884477
0.0793298
0.0701876
0.0610282
0.0517997
0.0425733
0.0331741
0.0239237
0.0141548
0.00516606
-10.9013
-10.9001
-10.9737
-11.2166
-11.6228
-12.1625
-12.8022
-13.5015
-14.2263
-14.9508
-15.6521
-16.3092
-16.9032
-17.4163
-17.8359
-18.151
-18.352
-18.4311
-18.3813
-18.1963
-17.8704
-17.3996
-16.7832
-16.0256
-15.1349
-14.1236
-13.0103
-11.8198
-10.5824
-9.3328
-8.10612
-6.93485
-5.84523
-4.855
-3.97297
-3.20034
-2.53282
-1.96279
-1.48089
-1.07719
-0.741924
-0.465886
-0.240629
-0.0585335
0.0871792
0.202464
0.292474
0.361614
0.413599
0.451545
0.478048
0.495267
0.504987
0.508681
0.507557
0.502604
0.49463
0.484296
0.472143
0.458618
0.444094
0.428889
0.413276
0.397489
0.381725
0.366146
0.350872
0.335988
0.321544
0.307568
0.294067
0.281037
0.268463
0.256322
0.244587
0.233229
0.222218
0.211521
0.201106
0.190943
0.181001
0.171252
0.161668
0.152223
0.142892
0.133654
0.124486
0.115371
0.106289
0.0972256
0.0881632
0.0790925
0.0699922
0.0608682
0.0516743
0.042472
0.0331095
0.0238613
0.0141639
0.00509188
-10.9906
-11.037
-11.1496
-11.3881
-11.7545
-12.2306
-12.7983
-13.4269
-14.0834
-14.741
-15.3777
-15.9738
-16.5112
-16.9741
-17.3505
-17.6294
-17.8013
-17.858
-17.7926
-17.5994
-17.274
-16.8143
-16.2203
-15.4952
-14.6464
-13.6866
-12.6335
-11.5099
-10.3432
-9.16437
-8.00498
-6.89408
-5.85553
-4.90597
-4.05437
-3.30297
-2.64898
-2.08633
-1.6071
-1.20259
-0.864012
-0.582956
-0.351576
-0.162714
-0.00993288
0.112478
0.209503
0.285429
0.343898
0.387975
0.420224
0.442789
0.457456
0.465708
0.468772
0.467662
0.46321
0.456099
0.446893
0.436057
0.423982
0.410999
0.397395
0.383417
0.369276
0.355146
0.341165
0.327431
0.314011
0.300945
0.288254
0.275942
0.264004
0.252426
0.241189
0.230269
0.219644
0.209285
0.199168
0.189265
0.179551
0.170001
0.16059
0.151296
0.142097
0.132973
0.123905
0.114876
0.10587
0.0968711
0.0878656
0.0788441
0.0697876
0.0607006
0.0515428
0.0423658
0.0330416
0.0237958
0.0141721
0.00501586
-11.0711
-11.1441
-11.2758
-11.5069
-11.8437
-12.2736
-12.78
-13.3394
-13.9275
-14.5209
-15.0971
-15.6366
-16.1221
-16.5391
-16.8755
-17.1205
-17.2651
-17.3015
-17.2233
-17.0252
-16.7034
-16.256
-15.6834
-14.9893
-14.1814
-13.2714
-12.2757
-11.2153
-10.1152
-9.00297
-7.90695
-6.85322
-5.86345
-4.95324
-4.13157
-3.40152
-2.76155
-2.20696
-1.73114
-1.32652
-0.985269
-0.699736
-0.462678
-0.267402
-0.107819
0.021522
0.125425
0.208052
0.272959
0.323155
0.361167
0.389116
0.408781
0.42165
0.428965
0.43176
0.43089
0.427062
0.42086
0.41277
0.403198
0.392491
0.380949
0.36883
0.35636
0.343727
0.331081
0.318538
0.306179
0.294057
0.282205
0.270638
0.25936
0.248367
0.237646
0.227182
0.216958
0.206952
0.197144
0.187513
0.178036
0.168693
0.159464
0.150327
0.141266
0.132261
0.123298
0.114359
0.105431
0.0965003
0.0875542
0.0785842
0.0695735
0.0605251
0.0514051
0.0422544
0.03297
0.0237274
0.0141789
0.0049387
-11.1435
-11.2351
-11.3799
-11.6043
-11.9149
-12.3035
-12.757
-13.2567
-13.7818
-14.3121
-14.8281
-15.312
-15.7473
-16.1197
-16.4174
-16.6301
-16.7491
-16.7667
-16.6769
-16.4748
-16.1571
-15.7223
-15.1713
-14.5079
-13.7393
-12.8769
-11.9357
-10.9351
-9.89758
-8.84804
-7.81173
-6.81212
-5.86895
-4.99677
-4.2045
-3.49585
-2.87033
-2.32443
-1.85272
-1.44869
-1.10541
-0.815955
-0.573686
-0.372371
-0.20628
-0.07023
0.0403903
0.129608
0.200888
0.257172
0.300946
0.334302
0.359004
0.37654
0.388162
0.394919
0.397689
0.3972
0.394058
0.388767
0.381751
0.373371
0.36394
0.353731
0.34298
0.331888
0.320621
0.309308
0.298045
0.2869
0.275916
0.265121
0.254528
0.244141
0.233956
0.223966
0.214158
0.204519
0.195034
0.185684
0.176455
0.167328
0.158287
0.149316
0.140398
0.131518
0.122662
0.113818
0.104972
0.0961125
0.0872285
0.0783122
0.0693494
0.0603414
0.0512607
0.0421378
0.0328944
0.0236559
0.0141836
0.00486104
-11.2058
-11.309
-11.46
-11.6755
-11.9616
-12.313
-12.7193
-13.1654
-13.6338
-14.1069
-14.5672
-14.9986
-15.3859
-15.7157
-15.9766
-16.1588
-16.2535
-16.2536
-16.1534
-15.9483
-15.6353
-15.2134
-14.6836
-14.0498
-13.3191
-12.502
-11.6125
-10.6683
-9.68971
-8.69907
-7.71902
-6.77068
-5.87199
-5.03655
-4.27312
-3.58585
-2.97514
-2.43852
-1.97159
-1.56883
-1.22415
-0.93135
-0.684353
-0.477396
-0.305114
-0.162598
-0.0454432
0.0502351
0.127799
0.190122
0.239638
0.278408
0.308175
0.330418
0.346394
0.357166
0.363629
0.366532
0.366502
0.364061
0.359651
0.353647
0.346376
0.338123
0.329136
0.319629
0.309783
0.299739
0.289609
0.279472
0.269387
0.25939
0.249506
0.239747
0.230117
0.220618
0.211243
0.201985
0.192834
0.183778
0.174806
0.165905
0.15706
0.14826
0.139491
0.130742
0.121999
0.113253
0.104492
0.0957073
0.0868881
0.0780279
0.069115
0.0601492
0.0511095
0.0420157
0.0328147
0.0235814
0.014186
0.00478358
-11.2574
-11.3675
-11.5199
-11.7255
-11.9888
-12.3065
-12.6703
-13.0679
-13.4845
-13.9049
-14.3136
-14.6959
-15.0381
-15.3276
-15.5537
-15.7067
-15.7786
-15.7624
-15.6526
-15.4451
-15.1372
-14.7282
-14.2192
-13.6141
-12.9196
-12.1457
-11.3052
-10.4141
-9.4909
-8.55565
-7.62862
-6.72882
-5.8726
-5.07263
-4.33742
-3.67147
-3.07586
-2.54903
-2.08752
-1.68669
-1.34125
-1.04567
-0.794435
-0.582252
-0.404114
-0.255399
-0.131913
-0.0299249
0.0538174
0.12211
0.177333
0.221507
0.25635
0.28333
0.3037
0.318532
0.328737
0.335081
0.338211
0.338669
0.336911
0.33333
0.328264
0.322012
0.314833
0.306955
0.298569
0.289832
0.280869
0.271774
0.262616
0.253444
0.244293
0.235183
0.226129
0.217137
0.208211
0.199347
0.190544
0.181793
0.173088
0.164421
0.155781
0.147159
0.138546
0.129932
0.121307
0.112663
0.103992
0.0952841
0.0865324
0.0777308
0.0688699
0.0599482
0.0509511
0.0418878
0.0327306
0.0235038
0.0141853
0.00470696
-11.2984
-11.4116
-11.5619
-11.7564
-11.9982
-12.2851
-12.6103
-12.9638
-13.3333
-13.7052
-14.0663
-14.403
-14.703
-14.9547
-15.1478
-15.2735
-15.3239
-15.2925
-15.1741
-14.9649
-14.6624
-14.266
-13.7773
-13.1998
-12.54
-11.807
-11.0127
-10.1717
-9.3006
-8.41742
-7.54035
-6.68652
-5.87084
-5.10507
-4.39744
-3.75266
-3.17239
-2.65582
-2.20031
-1.80204
-1.45645
-1.15866
-0.903698
-0.686715
-0.503077
-0.348447
-0.218851
-0.110722
-0.0209262
0.0532503
0.114127
0.16368
0.203599
0.235331
0.260125
0.279056
0.293044
0.302874
0.30921
0.31261
0.313549
0.312434
0.309617
0.305408
0.300079
0.293869
0.286983
0.279591
0.271829
0.263807
0.255605
0.247284
0.238888
0.230449
0.221989
0.213523
0.205061
0.196607
0.188163
0.179728
0.171301
0.162876
0.154448
0.146012
0.137561
0.129087
0.120585
0.112048
0.103469
0.0948425
0.0861612
0.0774206
0.0686139
0.0597382
0.0507854
0.0417541
0.0326418
0.0234232
0.0141814
0.00463177
-11.3288
-11.4423
-11.5881
-11.7707
-11.9921
-12.2507
-12.5408
-12.8543
-13.1806
-13.5082
-13.8252
-14.1197
-14.3804
-14.5967
-14.759
-14.859
-14.8893
-14.8438
-14.7176
-14.507
-14.2101
-13.8263
-13.3571
-12.8061
-12.1792
-11.485
-10.7344
-9.94047
-9.11832
-8.28409
-7.45411
-6.64382
-5.8668
-5.13398
-4.45325
-3.82946
-3.26468
-2.75876
-2.3098
-1.91468
-1.56954
-1.2701
-1.01191
-0.790568
-0.601796
-0.44155
-0.306085
-0.192003
-0.0962939
-0.0163357
0.0501257
0.105019
0.149997
0.186486
0.215723
0.238781
0.256589
0.269944
0.279525
0.285908
0.289585
0.290977
0.290449
0.288323
0.284884
0.280381
0.275032
0.269019
0.262493
0.255574
0.248356
0.240911
0.233294
0.225547
0.2177
0.209776
0.201793
0.193762
0.185691
0.177584
0.169443
0.16127
0.153063
0.144819
0.136535
0.128208
0.119834
0.111408
0.102925
0.0943823
0.0857742
0.0770971
0.0683468
0.0595189
0.0506122
0.0416145
0.0325482
0.0233395
0.0141736
0.00455852
-11.3493
-11.4608
-11.6003
-11.7704
-11.9723
-12.2047
-12.4629
-12.7398
-13.0268
-13.3138
-13.5903
-13.8457
-14.0699
-14.2532
-14.3867
-14.4627
-14.4743
-14.4157
-14.2824
-14.071
-13.7797
-13.4082
-12.9578
-12.4321
-11.8366
-11.179
-10.4695
-9.71987
-8.94369
-8.15545
-7.36984
-6.60077
-5.86061
-5.1595
-4.50497
-3.90189
-3.35271
-2.85778
-2.41583
-2.02443
-1.68031
-1.37976
-1.11885
-0.893593
-0.700066
-0.53452
-0.39344
-0.273607
-0.172141
-0.0865192
-0.0145568
0.0456213
0.0956299
0.136868
0.170555
0.197761
0.219416
0.236328
0.24919
0.258594
0.265046
0.268981
0.270779
0.270774
0.269261
0.266502
0.262725
0.258125
0.252865
0.247079
0.240872
0.234328
0.227513
0.220477
0.213262
0.205898
0.198409
0.190815
0.183128
0.175359
0.167516
0.159603
0.151624
0.143579
0.13547
0.127295
0.119053
0.110741
0.102359
0.0939032
0.0853712
0.0767601
0.0680684
0.0592903
0.0504313
0.0414689
0.0324496
0.0232529
0.0141619
0.00448763
-11.3601
-11.4679
-11.5998
-11.7572
-11.9405
-12.1485
-12.3774
-12.6211
-12.8722
-13.122
-13.3613
-13.5808
-13.7712
-13.9238
-14.0306
-14.0842
-14.0784
-14.0078
-13.8681
-13.6562
-13.3706
-13.011
-12.5787
-12.0771
-11.5112
-10.8883
-10.2174
-9.5094
-8.77637
-8.03136
-7.28753
-6.55747
-5.85243
-5.18179
-4.55271
-3.97005
-3.43648
-2.95281
-2.51831
-2.13112
-1.78857
-1.48745
-1.22432
-0.995581
-0.797684
-0.627163
-0.480737
-0.355369
-0.248319
-0.157165
-0.0797992
-0.0144043
0.0405917
0.0865569
0.124692
0.156055
0.181577
0.202072
0.218244
0.2307
0.23996
0.246472
0.250631
0.25278
0.253228
0.252246
0.250073
0.246918
0.242955
0.238329
0.233159
0.22754
0.221548
0.215245
0.208679
0.201891
0.194911
0.187766
0.180476
0.173056
0.16552
0.157876
0.150132
0.142294
0.134365
0.126346
0.118241
0.110049
0.101771
0.0934053
0.0849522
0.0764096
0.0677787
0.0590524
0.0502427
0.0413172
0.032346
0.0231634
0.0141459
0.00441936
-11.3619
-11.4647
-11.5881
-11.7325
-11.8981
-12.0835
-12.2855
-12.4988
-12.7171
-12.9329
-13.1381
-13.3245
-13.4838
-13.6081
-13.6901
-13.723
-13.7011
-13.6194
-13.474
-13.2621
-12.9821
-12.634
-12.219
-11.7403
-11.2025
-10.6122
-9.97768
-9.30867
-8.61611
-7.91169
-7.20722
-6.51405
-5.84244
-5.20105
-4.59665
-4.03402
-3.51603
-3.04382
-2.61714
-2.23464
-1.89415
-1.59297
-1.32809
-1.09633
-0.894448
-0.719286
-0.567794
-0.437121
-0.324671
-0.22813
-0.145473
-0.0749426
-0.0150147
0.0356444
0.0782116
0.113732
0.143131
0.167228
0.186734
0.202268
0.214363
0.223483
0.230031
0.234366
0.236805
0.237631
0.237094
0.235412
0.232774
0.229335
0.225226
0.220554
0.215406
0.209853
0.203954
0.197757
0.191301
0.184618
0.177736
0.170676
0.163455
0.156089
0.148589
0.140963
0.13322
0.125364
0.1174
0.109332
0.101161
0.0928888
0.0845174
0.0760457
0.0674778
0.0588052
0.0500464
0.0411595
0.0322373
0.0230711
0.0141257
0.00435387
-11.3552
-11.4521
-11.5663
-11.6979
-11.8464
-12.0108
-12.1879
-12.3735
-12.5618
-12.7465
-12.9206
-13.0766
-13.2073
-13.3056
-13.3647
-13.3786
-13.3419
-13.2502
-13.0997
-12.888
-12.6136
-12.2766
-11.8781
-11.421
-10.9097
-10.3501
-9.74974
-9.11732
-8.46271
-7.79638
-7.12895
-6.47066
-5.83083
-5.21746
-4.63695
-4.09394
-3.59142
-3.13081
-2.71226
-2.33486
-1.9969
-1.69615
-1.42999
-1.19563
-0.99016
-0.810697
-0.654426
-0.518689
-0.401035
-0.299265
-0.211441
-0.13587
-0.0710781
-0.0157706
0.0312025
0.0708688
0.104147
0.131855
0.154711
0.173344
0.188298
0.200049
0.209014
0.215561
0.220018
0.222678
0.223804
0.223623
0.222335
0.220107
0.217082
0.213379
0.209094
0.20431
0.199094
0.193503
0.187583
0.181375
0.174912
0.168221
0.161326
0.154245
0.146995
0.139589
0.132037
0.124349
0.116531
0.10859
0.10053
0.0923541
0.0840671
0.0756688
0.0671658
0.0585489
0.0498426
0.040996
0.0321236
0.022976
0.0141013
0.00429117
-11.3406
-11.4309
-11.5355
-11.6544
-11.7867
-11.9313
-12.0856
-12.2457
-12.4068
-12.5632
-12.7087
-12.837
-12.9415
-13.0158
-13.0539
-13.0504
-13.0002
-12.8993
-12.7444
-12.5332
-12.2644
-11.938
-11.5552
-11.1187
-10.6323
-10.1016
-9.53319
-8.93505
-8.31598
-7.68539
-7.05279
-6.42744
-5.8178
-5.23125
-4.6738
-4.14995
-3.66274
-3.21381
-2.80363
-2.43169
-2.0967
-1.79682
-1.52984
-1.2933
-1.08463
-0.901202
-0.740449
-0.599896
-0.477246
-0.370416
-0.277559
-0.197053
-0.127478
-0.0675795
-0.0162382
0.0275528
0.0647016
0.0960221
0.122237
0.143982
0.161812
0.176215
0.187617
0.196397
0.202896
0.207416
0.210227
0.21157
0.211655
0.21066
0.208741
0.206025
0.202621
0.198622
0.194105
0.189133
0.183763
0.178041
0.172007
0.165695
0.159133
0.152346
0.145353
0.138172
0.130817
0.123301
0.115634
0.107824
0.0998778
0.0918018
0.0836019
0.0752793
0.0668433
0.0582839
0.0496316
0.0408269
0.032005
0.0228784
0.0140729
0.00423117
-11.3189
-11.4019
-11.4969
-11.6031
-11.72
-11.8463
-11.9794
-12.1162
-12.2523
-12.3829
-12.5025
-12.6054
-12.686
-12.7384
-12.7574
-12.7379
-12.6754
-12.5663
-12.4076
-12.1971
-11.9338
-11.6177
-11.2498
-10.8326
-10.3697
-9.86606
-9.32763
-8.76158
-8.17579
-7.57869
-6.97884
-6.38456
-5.80357
-5.24264
-4.70741
-4.20221
-3.73008
-3.29285
-2.89124
-2.52507
-2.19343
-1.89484
-1.62745
-1.38915
-1.17765
-0.990611
-0.825674
-0.680561
-0.553131
-0.44142
-0.343678
-0.258354
-0.184086
-0.119665
-0.0640045
-0.0161208
0.0248799
0.0598055
0.0893796
0.114243
0.134961
0.152028
0.165883
0.176916
0.185474
0.191872
0.19639
0.199277
0.200755
0.201013
0.200216
0.198505
0.196
0.192801
0.188995
0.184656
0.179847
0.174622
0.169027
0.163102
0.156882
0.150394
0.143665
0.136715
0.129563
0.122223
0.11471
0.107035
0.0992065
0.0912329
0.0831224
0.0748777
0.0665107
0.0580104
0.0494135
0.0406524
0.0318818
0.0227783
0.0140408
0.00417365
-11.2905
-11.3661
-11.4512
-11.5453
-11.6474
-11.7565
-11.8702
-11.9855
-12.0988
-12.2059
-12.3019
-12.3818
-12.4405
-12.4731
-12.4746
-12.4405
-12.367
-12.2506
-12.0886
-11.8791
-11.6212
-11.3149
-10.9612
-10.5623
-10.1214
-9.64311
-9.13273
-8.59667
-8.04201
-7.47628
-6.90717
-6.34219
-5.78834
-5.25185
-4.73798
-4.25088
-3.79358
-3.36799
-2.97508
-2.61494
-2.28698
-1.99008
-1.72269
-1.48301
-1.26906
-1.07873
-0.909912
-0.760501
-0.628512
-0.51211
-0.409637
-0.319623
-0.240765
-0.171901
-0.11198
-0.0600467
-0.0152226
0.0232911
0.0562162
0.0841973
0.107805
0.127545
0.143864
0.15716
0.167793
0.176084
0.182324
0.186772
0.189658
0.191185
0.191527
0.190836
0.189242
0.186857
0.183775
0.18008
0.175843
0.171124
0.165977
0.160448
0.154576
0.148395
0.141935
0.135221
0.128276
0.121117
0.113763
0.106225
0.0985171
0.0906485
0.0826297
0.0744648
0.0661685
0.0577292
0.049189
0.0404729
0.0317542
0.0226761
0.0140052
0.00411837
-11.2562
-11.324
-11.3994
-11.4817
-11.5699
-11.6629
-11.7585
-11.8543
-11.9468
-12.0325
-12.107
-12.1659
-12.2049
-12.2194
-12.2051
-12.158
-12.0745
-11.9516
-11.7868
-11.5786
-11.326
-11.0291
-10.6888
-10.3071
-9.88693
-9.43232
-8.94815
-8.44011
-7.91453