/*--------------------------------*- C++ -*----------------------------------*\
  =========                 |
  \\      /  F ield         | OpenFOAM: The Open Source CFD Toolbox
   \\    /   O peration     | Website:  https://openfoam.org
    \\  /    A nd           | Version:  10
     \\/     M anipulation  |
\*---------------------------------------------------------------------------*/
FoamFile
{
    format      ascii;
    class       volVectorField;
    location    "0.04";
    object      U;
}
// * * * * * * * * * * * * * * * * * * * * * * * * * * * * * * * * * * * * * //

dimensions      [0 1 -1 0 0 0 0];

internalField   nonuniform List<vector> 
6820
(
(7.33663 -0.254717 0)
(7.37119 -0.152778 0)
(7.32927 -0.0594926 0)
(7.25269 -0.0117671 0)
(7.17567 0.00788325 0)
(7.10626 0.0138496 0)
(7.04576 0.0143018 0)
(6.99357 0.0128898 0)
(6.94822 0.011104 0)
(6.90831 0.00949127 0)
(6.87278 0.00819154 0)
(6.84081 0.00719206 0)
(6.81179 0.00643673 0)
(6.78525 0.0058667 0)
(6.76085 0.00543311 0)
(6.73832 0.00509929 0)
(6.71741 0.00483932 0)
(6.69795 0.00463578 0)
(6.67976 0.00447809 0)
(6.66269 0.00436112 0)
(6.64657 0.00428448 0)
(6.63127 0.00425234 0)
(6.6166 0.0042741 0)
(6.60238 0.00436608 0)
(6.58838 0.00455398 0)
(6.57431 0.00488099 0)
(6.55975 0.00542093 0)
(6.54421 0.00626201 0)
(6.52641 0.00791091 0)
(6.50589 0.0095369 0)
(6.47734 0.0178705 0)
(6.43754 0.0187701 0)
(6.37961 0.0328397 0)
(7.32387 0.121371 0)
(7.30442 0.123225 0)
(7.30903 0.077848 0)
(7.32934 0.0526294 0)
(7.34756 0.0389937 0)
(7.3558 0.0311468 0)
(7.35507 0.0266468 0)
(7.34826 0.023848 0)
(7.33768 0.0218938 0)
(7.32489 0.0203935 0)
(7.31096 0.0191523 0)
(7.29655 0.0180705 0)
(7.28207 0.0170986 0)
(7.26777 0.0162114 0)
(7.25378 0.0153955 0)
(7.24019 0.0146439 0)
(7.22704 0.013953 0)
(7.21435 0.0133219 0)
(7.20211 0.0127519 0)
(7.19031 0.0122472 0)
(7.17893 0.0118151 0)
(7.16793 0.0114671 0)
(7.15728 0.0112209 0)
(7.14693 0.0111032 0)
(7.13681 0.011153 0)
(7.12685 0.0114382 0)
(7.117 0.0120399 0)
(7.10705 0.0131948 0)
(7.09745 0.0150098 0)
(7.0869 0.0185964 0)
(7.08024 0.0239128 0)
(7.07087 0.0354362 0)
(7.08467 0.0561903 0)
(7.32565 -0.0438105 0)
(7.32328 -0.0517968 0)
(7.3353 -0.0263021 0)
(7.3433 -0.00288211 0)
(7.34841 0.0101992 0)
(7.35283 0.0165782 0)
(7.35612 0.0195736 0)
(7.358 0.0207793 0)
(7.35846 0.0210373 0)
(7.35762 0.0208207 0)
(7.35571 0.0203769 0)
(7.35298 0.0198332 0)
(7.34961 0.0192565 0)
(7.34578 0.0186813 0)
(7.34163 0.0181249 0)
(7.33724 0.0175962 0)
(7.33271 0.0171013 0)
(7.32808 0.0166451 0)
(7.3234 0.0162339 0)
(7.31869 0.0158762 0)
(7.31396 0.015584 0)
(7.30919 0.0153742 0)
(7.30439 0.0152707 0)
(7.29949 0.0153074 0)
(7.29446 0.0155333 0)
(7.28921 0.016017 0)
(7.28364 0.0168729 0)
(7.27759 0.0182192 0)
(7.27104 0.0204413 0)
(7.26346 0.0234051 0)
(7.25575 0.029025 0)
(7.24602 0.0341081 0)
(7.23824 0.0461027 0)
(7.33339 0.0117585 0)
(7.33041 0.0328146 0)
(7.32971 0.0331933 0)
(7.33285 0.0274043 0)
(7.33848 0.0239304 0)
(7.34426 0.0223646 0)
(7.34919 0.0217075 0)
(7.35323 0.0213786 0)
(7.35647 0.0211213 0)
(7.35898 0.0208538 0)
(7.36084 0.0205514 0)
(7.36215 0.0202094 0)
(7.363 0.019833 0)
(7.36347 0.0194316 0)
(7.36363 0.0190155 0)
(7.36352 0.0185954 0)
(7.36321 0.0181821 0)
(7.36272 0.0177876 0)
(7.36209 0.0174253 0)
(7.36132 0.0171111 0)
(7.36043 0.016865 0)
(7.35941 0.0167128 0)
(7.35825 0.0166886 0)
(7.35691 0.0168384 0)
(7.35536 0.0172263 0)
(7.35353 0.0179405 0)
(7.35137 0.019112 0)
(7.34875 0.0209105 0)
(7.34568 0.0236466 0)
(7.3419 0.0275572 0)
(7.33794 0.0335733 0)
(7.33317 0.0413498 0)
(7.32956 0.0540053 0)
(7.33122 -0.00355862 0)
(7.33008 -0.00443639 0)
(7.33374 0.00104294 0)
(7.33749 0.00840093 0)
(7.34099 0.0136709 0)
(7.34453 0.0165689 0)
(7.34801 0.018089 0)
(7.35137 0.0188754 0)
(7.35456 0.0192333 0)
(7.35752 0.0193341 0)
(7.36022 0.0192743 0)
(7.36268 0.0191087 0)
(7.36491 0.018872 0)
(7.36694 0.0185886 0)
(7.36878 0.0182764 0)
(7.37046 0.0179503 0)
(7.37199 0.0176242 0)
(7.37339 0.0173121 0)
(7.37467 0.0170302 0)
(7.37584 0.0167973 0)
(7.37689 0.016637 0)
(7.37782 0.0165798 0)
(7.37861 0.0166651 0)
(7.37925 0.0169453 0)
(7.37969 0.0174918 0)
(7.3799 0.0183992 0)
(7.37985 0.0198041 0)
(7.37948 0.0218715 0)
(7.37881 0.0248883 0)
(7.37777 0.0290611 0)
(7.37667 0.0350698 0)
(7.37542 0.0427369 0)
(7.37496 0.0536795 0)
(7.33265 0.00203058 0)
(7.33228 0.00976457 0)
(7.33407 0.0138614 0)
(7.33673 0.0156116 0)
(7.33993 0.0165874 0)
(7.34338 0.0172235 0)
(7.34675 0.0176857 0)
(7.34998 0.0179923 0)
(7.35308 0.0181417 0)
(7.35605 0.018163 0)
(7.3589 0.0180871 0)
(7.36165 0.017936 0)
(7.3643 0.0177273 0)
(7.36685 0.0174761 0)
(7.36932 0.0171957 0)
(7.37171 0.0168988 0)
(7.37402 0.0165991 0)
(7.37627 0.0163116 0)
(7.37844 0.0160538 0)
(7.38055 0.015847 0)
(7.38258 0.015718 0)
(7.38453 0.0157004 0)
(7.38638 0.0158378 0)
(7.38812 0.016187 0)
(7.38973 0.0168231 0)
(7.39119 0.0178436 0)
(7.39249 0.0193819 0)
(7.39363 0.0216 0)
(7.39465 0.0247415 0)
(7.39559 0.0290222 0)
(7.39671 0.034901 0)
(7.39815 0.0424486 0)
(7.40052 0.0525105 0)
(7.33258 0.00076894 0)
(7.33247 0.00432519 0)
(7.33442 0.00774889 0)
(7.33717 0.0108155 0)
(7.34017 0.0132545 0)
(7.34325 0.0148689 0)
(7.34628 0.0158486 0)
(7.34923 0.0164081 0)
(7.35213 0.0166829 0)
(7.35496 0.0167665 0)
(7.35776 0.01672 0)
(7.36051 0.0165809 0)
(7.36323 0.0163749 0)
(7.36593 0.0161211 0)
(7.3686 0.0158354 0)
(7.37125 0.015532 0)
(7.37388 0.0152257 0)
(7.37649 0.0149324 0)
(7.37908 0.014671 0)
(7.38165 0.0144641 0)
(7.38418 0.0143397 0)
(7.38668 0.0143334 0)
(7.38913 0.0144902 0)
(7.39153 0.0148679 0)
(7.39387 0.0155411 0)
(7.39615 0.0166042 0)
(7.39839 0.0181809 0)
(7.4006 0.0204185 0)
(7.40288 0.0235179 0)
(7.40531 0.0276691 0)
(7.40812 0.033183 0)
(7.41157 0.0401792 0)
(7.4161 0.0490731 0)
(7.33284 0.00126945 0)
(7.33306 0.00515087 0)
(7.33472 0.00855529 0)
(7.33709 0.011079 0)
(7.33978 0.012877 0)
(7.34266 0.0140507 0)
(7.34555 0.0147851 0)
(7.3484 0.01522 0)
(7.3512 0.0154315 0)
(7.35396 0.0154767 0)
(7.35669 0.0154001 0)
(7.35941 0.0152328 0)
(7.36212 0.014998 0)
(7.36484 0.0147143 0)
(7.36756 0.0143972 0)
(7.3703 0.0140615 0)
(7.37305 0.0137223 0)
(7.37582 0.0133962 0)
(7.37859 0.0131026 0)
(7.38138 0.0128649 0)
(7.38418 0.0127118 0)
(7.38699 0.0126791 0)
(7.3898 0.0128118 0)
(7.39262 0.013166 0)
(7.39546 0.0138128 0)
(7.39832 0.0148397 0)
(7.40125 0.0163562 0)
(7.40429 0.0184899 0)
(7.40753 0.0214006 0)
(7.41112 0.0252426 0)
(7.41527 0.0302218 0)
(7.42026 0.0364447 0)
(7.42644 0.0440962 0)
(7.33292 0.00125542 0)
(7.33325 0.00443501 0)
(7.33475 0.00730076 0)
(7.33693 0.00958174 0)
(7.33943 0.0113428 0)
(7.34213 0.012581 0)
(7.34487 0.0133834 0)
(7.34759 0.013859 0)
(7.3503 0.014087 0)
(7.35298 0.0141308 0)
(7.35566 0.0140392 0)
(7.35833 0.0138468 0)
(7.36102 0.0135793 0)
(7.36372 0.0132568 0)
(7.36645 0.0128965 0)
(7.36921 0.0125141 0)
(7.372 0.0121256 0)
(7.37483 0.0117482 0)
(7.3777 0.0114019 0)
(7.38061 0.01111 0)
(7.38356 0.0109013 0)
(7.38656 0.0108106 0)
(7.38961 0.0108809 0)
(7.39272 0.011165 0)
(7.39592 0.0117274 0)
(7.39922 0.0126456 0)
(7.40269 0.0140125 0)
(7.40637 0.0159328 0)
(7.4104 0.0185273 0)
(7.4149 0.0219109 0)
(7.42009 0.0262114 0)
(7.42625 0.0314961 0)
(7.43365 0.0378175 0)
(7.33297 0.00122184 0)
(7.33339 0.00404975 0)
(7.33475 0.00664973 0)
(7.33673 0.00873956 0)
(7.33903 0.0103365 0)
(7.34153 0.0114569 0)
(7.34413 0.0121803 0)
(7.34674 0.012602 0)
(7.34937 0.0127917 0)
(7.35199 0.0128028 0)
(7.35461 0.0126777 0)
(7.35725 0.012448 0)
(7.3599 0.0121383 0)
(7.36258 0.0117686 0)
(7.3653 0.0113561 0)
(7.36806 0.010917 0)
(7.37087 0.0104675 0)
(7.37373 0.0100249 0)
(7.37665 0.00960908 0)
(7.37963 0.00924308 0)
(7.38268 0.00895434 0)
(7.38582 0.00877586 0)
(7.38904 0.00874735 0)
(7.39238 0.00891628 0)
(7.39585 0.00933906 0)
(7.39951 0.0100811 0)
(7.4034 0.0112175 0)
(7.40761 0.0128288 0)
(7.41226 0.0150013 0)
(7.41748 0.0178113 0)
(7.42347 0.021328 0)
(7.43048 0.0255766 0)
(7.43874 0.0305326 0)
(7.33301 0.0011497 0)
(7.33345 0.00363479 0)
(7.33469 0.00591886 0)
(7.33649 0.00777844 0)
(7.33862 0.00921656 0)
(7.34095 0.010247 0)
(7.34341 0.0109214 0)
(7.34591 0.0113103 0)
(7.34845 0.0114717 0)
(7.351 0.0114532 0)
(7.35357 0.0112937 0)
(7.35616 0.011024 0)
(7.35878 0.0106683 0)
(7.36144 0.0102464 0)
(7.36414 0.00977565 0)
(7.36689 0.0092723 0)
(7.3697 0.00875247 0)
(7.37258 0.00823333 0)
(7.37553 0.00773397 0)
(7.37856 0.00727631 0)
(7.38169 0.00688592 0)
(7.38493 0.00659284 0)
(7.38829 0.00643233 0)
(7.39181 0.00644537 0)
(7.39551 0.00667899 0)
(7.39945 0.00718563 0)
(7.4037 0.00802224 0)
(7.40832 0.00924653 0)
(7.41345 0.0109139 0)
(7.41922 0.0130669 0)
(7.4258 0.0157306 0)
(7.43341 0.0188936 0)
(7.44222 0.0224874 0)
(7.33302 0.00105575 0)
(7.33348 0.00324446 0)
(7.33461 0.0052562 0)
(7.33626 0.0069132 0)
(7.33822 0.00820002 0)
(7.3404 0.00912491 0)
(7.34272 0.00972511 0)
(7.34511 0.0100569 0)
(7.34755 0.0101704 0)
(7.35003 0.0101074 0)
(7.35254 0.00990271 0)
(7.35509 0.00958456 0)
(7.35767 0.00917559 0)
(7.3603 0.00869486 0)
(7.36297 0.00815914 0)
(7.36571 0.00758409 0)
(7.36852 0.00698525 0)
(7.37141 0.00637894 0)
(7.37438 0.00578304 0)
(7.37745 0.00521762 0)
(7.38064 0.00470563 0)
(7.38395 0.00427334 0)
(7.38743 0.00395068 0)
(7.39109 0.00377135 0)
(7.39498 0.00377238 0)
(7.39915 0.00399308 0)
(7.40367 0.00447324 0)
(7.40862 0.00524949 0)
(7.41411 0.00635119 0)
(7.42027 0.00779276 0)
(7.42725 0.00956673 0)
(7.43523 0.0116342 0)
(7.44435 0.0139033 0)
(7.33303 0.000951398 0)
(7.33348 0.00287054 0)
(7.33452 0.00462697 0)
(7.33603 0.00608217 0)
(7.33784 0.00721289 0)
(7.33988 0.00802405 0)
(7.34207 0.00854228 0)
(7.34435 0.00881059 0)
(7.3467 0.0088702 0)
(7.3491 0.0087568 0)
(7.35155 0.00850118 0)
(7.35404 0.00812893 0)
(7.35658 0.00766115 0)
(7.35917 0.00711578 0)
(7.36182 0.00650874 0)
(7.36454 0.00585482 0)
(7.36733 0.00516857 0)
(7.37022 0.00446502 0)
(7.3732 0.00376029 0)
(7.3763 0.00307211 0)
(7.37953 0.00242017 0)
(7.38291 0.00182638 0)
(7.38647 0.00131482 0)
(7.39024 0.000911479 0)
(7.39428 0.000643409 0)
(7.39862 0.000537307 0)
(7.40334 0.000617333 0)
(7.40853 0.000901708 0)
(7.41427 0.00139853 0)
(7.42068 0.0021 0)
(7.42789 0.00297581 0)
(7.43605 0.00396816 0)
(7.44525 0.00497519 0)
(7.33303 0.000843058 0)
(7.33346 0.00251323 0)
(7.33443 0.00403302 0)
(7.33581 0.00529499 0)
(7.33749 0.00627219 0)
(7.3394 0.00696542 0)
(7.34147 0.00739313 0)
(7.34364 0.00758799 0)
(7.3459 0.0075838 0)
(7.34822 0.00741102 0)
(7.3506 0.00709652 0)
(7.35303 0.00666314 0)
(7.35552 0.00613004 0)
(7.35806 0.00551373 0)
(7.36068 0.00482881 0)
(7.36337 0.00408885 0)
(7.36615 0.00330699 0)
(7.36902 0.00249655 0)
(7.372 0.0016715 0)
(7.37511 0.000846733 0)
(7.37837 3.82997e-05 0)
(7.38179 -0.000736635 0)
(7.38541 -0.00146005 0)
(7.38926 -0.00211366 0)
(7.39339 -0.00267996 0)
(7.39786 -0.00314381 0)
(7.40271 -0.00349469 0)
(7.40804 -0.00372977 0)
(7.41392 -0.00385761 0)
(7.42046 -0.00390248 0)
(7.42775 -0.00390977 0)
(7.43591 -0.00394839 0)
(7.44502 -0.00412134 0)
(7.33303 0.000734593 0)
(7.33344 0.00217175 0)
(7.33433 0.00346987 0)
(7.33561 0.00454475 0)
(7.33717 0.00536889 0)
(7.33896 0.00593978 0)
(7.34091 0.0062699 0)
(7.34298 0.00638373 0)
(7.34515 0.00630845 0)
(7.34738 0.0060695 0)
(7.34969 0.00568984 0)
(7.35206 0.00518945 0)
(7.35449 0.00458537 0)
(7.35699 0.00389237 0)
(7.35956 0.00312354 0)
(7.36222 0.00229088 0)
(7.36497 0.00140584 0)
(7.36782 0.000479716 0)
(7.37079 -0.000476011 0)
(7.37389 -0.00144954 0)
(7.37715 -0.00242872 0)
(7.38059 -0.00340125 0)
(7.38424 -0.00435511 0)
(7.38813 -0.00527934 0)
(7.39232 -0.00616518 0)
(7.39684 -0.00700766 0)
(7.40176 -0.00780772 0)
(7.40715 -0.00857475 0)
(7.41307 -0.00932973 0)
(7.41961 -0.0101083 0)
(7.42684 -0.0109647 0)
(7.43487 -0.0119729 0)
(7.44373 -0.0132311 0)
(7.33303 0.000628163 0)
(7.33341 0.00184539 0)
(7.33424 0.00293461 0)
(7.33542 0.00382879 0)
(7.33688 0.0045015 0)
(7.33855 0.00494761 0)
(7.3404 0.00517489 0)
(7.34237 0.00520127 0)
(7.34444 0.00504817 0)
(7.3466 0.00473649 0)
(7.34883 0.00428552 0)
(7.35113 0.00371237 0)
(7.3535 0.00303183 0)
(7.35594 0.00225672 0)
(7.35847 0.00139837 0)
(7.36108 0.000466967 0)
(7.36379 -0.000527991 0)
(7.3666 -0.00157746 0)
(7.36954 -0.00267267 0)
(7.37262 -0.00380507 0)
(7.37587 -0.00496645 0)
(7.3793 -0.00614929 0)
(7.38295 -0.00734728 0)
(7.38684 -0.00855618 0)
(7.39103 -0.0097749 0)
(7.39556 -0.011007 0)
(7.40047 -0.0122627 0)
(7.40583 -0.0135605 0)
(7.4117 -0.0149301 0)
(7.41813 -0.0164141 0)
(7.4252 -0.0180711 0)
(7.43297 -0.0199752 0)
(7.44145 -0.022217 0)
(7.33303 0.000524894 0)
(7.33339 0.00153334 0)
(7.33415 0.00242455 0)
(7.33525 0.00314398 0)
(7.33661 0.00366701 0)
(7.33818 0.00398658 0)
(7.33992 0.00410677 0)
(7.3418 0.00404036 0)
(7.34378 0.00380378 0)
(7.34585 0.00341381 0)
(7.34801 0.00288628 0)
(7.35024 0.00223543 0)
(7.35254 0.0014737 0)
(7.35492 0.000611829 0)
(7.35739 -0.000340824 0)
(7.35995 -0.00137603 0)
(7.3626 -0.00248643 0)
(7.36537 -0.00366539 0)
(7.36827 -0.00490692 0)
(7.37131 -0.00620575 0)
(7.37451 -0.00755754 0)
(7.37791 -0.00895927 0)
(7.38152 -0.0104099 0)
(7.38538 -0.0119109 0)
(7.38952 -0.0134679 0)
(7.39399 -0.0150912 0)
(7.39883 -0.0167979 0)
(7.40408 -0.0186132 0)
(7.40981 -0.0205722 0)
(7.41604 -0.0227209 0)
(7.42284 -0.0251186 0)
(7.43024 -0.0278364 0)
(7.43825 -0.0309552 0)
(7.33303 0.000425292 0)
(7.33336 0.0012348 0)
(7.33407 0.00193741 0)
(7.3351 0.00248774 0)
(7.33636 0.00286321 0)
(7.33784 0.0030554 0)
(7.33949 0.00306549 0)
(7.34127 0.00290209 0)
(7.34316 0.00257742 0)
(7.34515 0.0021045 0)
(7.34722 0.00149594 0)
(7.34938 0.000763203 0)
(7.35161 -8.36827e-05 0)
(7.35393 -0.00103613 0)
(7.35633 -0.00208686 0)
(7.35882 -0.00322973 0)
(7.36141 -0.00445962 0)
(7.36412 -0.00577236 0)
(7.36695 -0.00716474 0)
(7.36993 -0.00863469 0)
(7.37307 -0.0101815 0)
(7.3764 -0.0118062 0)
(7.37994 -0.0135123 0)
(7.38372 -0.0153065 0)
(7.38777 -0.0171992 0)
(7.39212 -0.0192064 0)
(7.39683 -0.0213498 0)
(7.40191 -0.0236589 0)
(7.40741 -0.0261714 0)
(7.41336 -0.0289342 0)
(7.4198 -0.0320046 0)
(7.42676 -0.0354487 0)
(7.43421 -0.0393366 0)
(7.33303 0.000329509 0)
(7.33334 0.000948916 0)
(7.334 0.00147124 0)
(7.33495 0.00185784 0)
(7.33614 0.00208811 0)
(7.33753 0.00215275 0)
(7.33908 0.00205067 0)
(7.34077 0.00178711 0)
(7.34258 0.00137069 0)
(7.34448 0.000811102 0)
(7.34648 0.000117953 0)
(7.34855 -0.000699962 0)
(7.35071 -0.001635 0)
(7.35295 -0.00268078 0)
(7.35527 -0.00383214 0)
(7.35769 -0.0050851 0)
(7.3602 -0.00643678 0)
(7.36283 -0.00788547 0)
(7.36559 -0.00943065 0)
(7.36848 -0.0110732 0)
(7.37153 -0.0128157 0)
(7.37476 -0.0146629 0)
(7.37819 -0.016622 0)
(7.38185 -0.0187037 0)
(7.38576 -0.0209225 0)
(7.38996 -0.023298 0)
(7.39446 -0.025855 0)
(7.3993 -0.0286252 0)
(7.40452 -0.0316469 0)
(7.41012 -0.0349659 0)
(7.41613 -0.0386353 0)
(7.42256 -0.0427153 0)
(7.42941 -0.0472653 0)
(7.33303 0.000237502 0)
(7.33332 0.000674894 0)
(7.33393 0.00102436 0)
(7.33482 0.00125237 0)
(7.33593 0.00134008 0)
(7.33724 0.00127769 0)
(7.33871 0.00106233 0)
(7.34031 0.000696526 0)
(7.34203 0.000185834 0)
(7.34385 -0.000463002 0)
(7.34576 -0.00124315 0)
(7.34775 -0.00214836 0)
(7.34982 -0.00317331 0)
(7.35198 -0.00431382 0)
(7.35422 -0.00556685 0)
(7.35655 -0.00693057 0)
(7.35898 -0.0084043 0)
(7.36151 -0.00998869 0)
(7.36417 -0.0116857 0)
(7.36695 -0.013499 0)
(7.36989 -0.0154339 0)
(7.37299 -0.0174983 0)
(7.37629 -0.0197024 0)
(7.37978 -0.02206 0)
(7.38351 -0.0245884 0)
(7.38749 -0.0273094 0)
(7.39174 -0.0302496 0)
(7.39629 -0.033441 0)
(7.40115 -0.036921 0)
(7.40634 -0.0407326 0)
(7.41186 -0.0449242 0)
(7.41773 -0.0495489 0)
(7.42392 -0.0546558 0)
(7.33302 0.000149145 0)
(7.33329 0.000412019 0)
(7.33387 0.000595413 0)
(7.3347 0.000669721 0)
(7.33574 0.00061769 0)
(7.33697 0.000429269 0)
(7.33835 0.000100225 0)
(7.33987 -0.000369124 0)
(7.34151 -0.000975781 0)
(7.34324 -0.00171561 0)
(7.34506 -0.0025843 0)
(7.34697 -0.00357796 0)
(7.34896 -0.00469351 0)
(7.35102 -0.00592889 0)
(7.35317 -0.00728315 0)
(7.3554 -0.00875651 0)
(7.35772 -0.0103504 0)
(7.36015 -0.0120677 0)
(7.36268 -0.0139126 0)
(7.36534 -0.0158912 0)
(7.36814 -0.0180111 0)
(7.37109 -0.0202827 0)
(7.37421 -0.0227187 0)
(7.37751 -0.0253347 0)
(7.38101 -0.02815 0)
(7.38473 -0.0311874 0)
(7.38869 -0.0344739 0)
(7.39289 -0.0380406 0)
(7.39735 -0.0419229 0)
(7.40208 -0.0461601 0)
(7.40707 -0.0507951 0)
(7.41232 -0.0558738 0)
(7.41782 -0.0614359 0)
(7.33302 6.42584e-05 0)
(7.33327 0.000159589 0)
(7.33381 0.000183228 0)
(7.33459 0.000108698 0)
(7.33557 -7.98638e-05 0)
(7.33672 -0.000392503 0)
(7.33803 -0.000834467 0)
(7.33946 -0.00140721 0)
(7.34101 -0.00210991 0)
(7.34266 -0.00294075 0)
(7.34439 -0.00389771 0)
(7.34621 -0.00497913 0)
(7.3481 -0.00618406 0)
(7.35007 -0.00751248 0)
(7.35211 -0.00896542 0)
(7.35423 -0.010545 0)
(7.35644 -0.0122548 0)
(7.35874 -0.0140994 0)
(7.36114 -0.0160852 0)
(7.36365 -0.01822 0)
(7.36628 -0.0205137 0)
(7.36905 -0.0229783 0)
(7.37196 -0.0256281 0)
(7.37503 -0.0284801 0)
(7.37827 -0.0315544 0)
(7.38169 -0.0348738 0)
(7.38531 -0.0384648 0)
(7.38913 -0.0423568 0)
(7.39315 -0.0465821 0)
(7.39737 -0.0511759 0)
(7.4018 -0.0561754 0)
(7.40642 -0.0616195 0)
(7.4112 -0.0675391 0)
(7.33302 -1.73103e-05 0)
(7.33326 -8.29335e-05 0)
(7.33376 -0.00021321 0)
(7.33449 -0.000432135 0)
(7.3354 -0.000754346 0)
(7.33649 -0.00118971 0)
(7.33772 -0.00174416 0)
(7.33908 -0.00242048 0)
(7.34054 -0.00321959 0)
(7.3421 -0.00414161 0)
(7.34374 -0.00518653 0)
(7.34546 -0.00635468 0)
(7.34726 -0.00764709 0)
(7.34912 -0.00906563 0)
(7.35105 -0.0106132 0)
(7.35305 -0.0122938 0)
(7.35513 -0.0141126 0)
(7.35729 -0.0160761 0)
(7.35953 -0.0181923 0)
(7.36187 -0.0204707 0)
(7.36432 -0.0229227 0)
(7.36687 -0.0255613 0)
(7.36955 -0.0284021 0)
(7.37236 -0.0314626 0)
(7.37531 -0.0347627 0)
(7.3784 -0.038325 0)
(7.38164 -0.0421742 0)
(7.38504 -0.0463376 0)
(7.38859 -0.050844 0)
(7.39229 -0.0557242 0)
(7.39612 -0.0610095 0)
(7.40009 -0.0667325 0)
(7.40415 -0.0729163 0)
(7.33302 -9.5683e-05 0)
(7.33324 -0.000315836 0)
(7.33371 -0.000594066 0)
(7.33439 -0.000952156 0)
(7.33525 -0.00140345 0)
(7.33627 -0.00195743 0)
(7.33742 -0.00262053 0)
(7.3387 -0.00339671 0)
(7.34009 -0.00428849 0)
(7.34156 -0.00529781 0)
(7.34311 -0.00642655 0)
(7.34473 -0.00767692 0)
(7.34642 -0.00905174 0)
(7.34817 -0.0105547 0)
(7.34998 -0.0121902 0)
(7.35185 -0.013964 0)
(7.35379 -0.0158827 0)
(7.35579 -0.0179544 0)
(7.35786 -0.0201882 0)
(7.36001 -0.0225949 0)
(7.36225 -0.0251867 0)
(7.36457 -0.0279778 0)
(7.36699 -0.0309837 0)
(7.36952 -0.034222 0)
(7.37214 -0.0377122 0)
(7.37488 -0.0414756 0)
(7.37772 -0.0455349 0)
(7.38067 -0.0499146 0)
(7.38373 -0.05464 0)
(7.38688 -0.0597372 0)
(7.39011 -0.0652325 0)
(7.39341 -0.071152 0)
(7.39676 -0.0775124 0)
(7.33302 -0.000171022 0)
(7.33322 -0.000539985 0)
(7.33366 -0.000961741 0)
(7.3343 -0.00145655 0)
(7.3351 -0.00203655 0)
(7.33606 -0.00271042 0)
(7.33715 -0.00348436 0)
(7.33835 -0.00436269 0)
(7.33966 -0.00534882 0)
(7.34104 -0.00644597 0)
(7.3425 -0.00765754 0)
(7.34402 -0.0089874 0)
(7.3456 -0.01044 0)
(7.34723 -0.0120208 0)
(7.34891 -0.0137358 0)
(7.35064 -0.0155922 0)
(7.35242 -0.017598 0)
(7.35425 -0.0197626 0)
(7.35614 -0.0220962 0)
(7.35809 -0.0246104 0)
(7.36009 -0.0273183 0)
(7.36217 -0.030234 0)
(7.36431 -0.0333734 0)
(7.36652 -0.0367533 0)
(7.3688 -0.0403924 0)
(7.37116 -0.0443101 0)
(7.37358 -0.0485271 0)
(7.37607 -0.0530647 0)
(7.37861 -0.0579449 0)
(7.3812 -0.0631892 0)
(7.38383 -0.0688188 0)
(7.38647 -0.0748546 0)
(7.38911 -0.0813075 0)
(7.33302 -0.000243146 0)
(7.33321 -0.000753585 0)
(7.33362 -0.00131029 0)
(7.33421 -0.00193157 0)
(7.33496 -0.00262829 0)
(7.33586 -0.00340887 0)
(7.33688 -0.00428016 0)
(7.33801 -0.00524762 0)
(7.33923 -0.00631604 0)
(7.34053 -0.00749007 0)
(7.3419 -0.00877455 0)
(7.34331 -0.0101747 0)
(7.34478 -0.0116964 0)
(7.34629 -0.0133462 0)
(7.34783 -0.0151314 0)
(7.34942 -0.0170601 0)
(7.35104 -0.0191414 0)
(7.35269 -0.0213853 0)
(7.35438 -0.0238029 0)
(7.3561 -0.0264062 0)
(7.35787 -0.0292082 0)
(7.35967 -0.0322232 0)
(7.36152 -0.0354663 0)
(7.3634 -0.0389538 0)
(7.36533 -0.0427027 0)
(7.36728 -0.0467306 0)
(7.36927 -0.0510558 0)
(7.37128 -0.0556967 0)
(7.37331 -0.0606716 0)
(7.37534 -0.065998 0)
(7.37736 -0.0716927 0)
(7.37934 -0.0777717 0)
(7.38129 -0.0842411 0)
(7.33302 -0.00031277 0)
(7.3332 -0.000962917 0)
(7.33358 -0.00165938 0)
(7.33413 -0.00241934 0)
(7.33484 -0.0032504 0)
(7.33568 -0.0041574 0)
(7.33664 -0.00514457 0)
(7.3377 -0.00621612 0)
(7.33884 -0.00737686 0)
(7.34006 -0.00863238 0)
(7.34132 -0.00998902 0)
(7.34263 -0.0114538 0)
(7.34398 -0.0130343 0)
(7.34536 -0.0147389 0)
(7.34677 -0.0165765 0)
(7.34819 -0.0185566 0)
(7.34964 -0.0206895 0)
(7.3511 -0.0229861 0)
(7.35258 -0.025458 0)
(7.35407 -0.0281177 0)
(7.35558 -0.0309782 0)
(7.35711 -0.0340535 0)
(7.35864 -0.037358 0)
(7.36019 -0.0409068 0)
(7.36174 -0.0447154 0)
(7.36329 -0.0487995 0)
(7.36483 -0.0531749 0)
(7.36637 -0.0578569 0)
(7.36787 -0.0628606 0)
(7.36934 -0.0681998 0)
(7.37076 -0.0738874 0)
(7.37211 -0.0799349 0)
(7.37338 -0.0863448 0)
(7.33301 -0.000376828 0)
(7.33317 -0.0011459 0)
(7.33352 -0.00194797 0)
(7.33403 -0.00280061 0)
(7.33468 -0.00371379 0)
(7.33547 -0.00469557 0)
(7.33637 -0.00575276 0)
(7.33737 -0.00689102 0)
(7.33844 -0.00811581 0)
(7.33957 -0.00943297 0)
(7.34075 -0.0108489 0)
(7.34197 -0.0123707 0)
(7.3432 -0.0140062 0)
(7.34446 -0.0157638 0)
(7.34572 -0.0176527 0)
(7.34699 -0.0196827 0)
(7.34825 -0.0218641 0)
(7.34952 -0.0242081 0)
(7.35078 -0.0267262 0)
(7.35204 -0.0294308 0)
(7.35329 -0.0323344 0)
(7.35452 -0.0354503 0)
(7.35574 -0.0387921 0)
(7.35693 -0.0423734 0)
(7.35811 -0.0462082 0)
(7.35925 -0.0503101 0)
(7.36035 -0.0546925 0)
(7.3614 -0.0593682 0)
(7.36239 -0.0643491 0)
(7.36331 -0.0696461 0)
(7.36414 -0.0752683 0)
(7.36488 -0.0812241 0)
(7.36549 -0.0875128 0)
(7.33302 -0.000445518 0)
(7.33318 -0.00137156 0)
(7.33351 -0.00235426 0)
(7.334 -0.00339941 0)
(7.33462 -0.00449904 0)
(7.33535 -0.00564763 0)
(7.33619 -0.00684516 0)
(7.33712 -0.00809583 0)
(7.33811 -0.00940686 0)
(7.33915 -0.0107874 0)
(7.34023 -0.0122478 0)
(7.34133 -0.0137988 0)
(7.34244 -0.0154516 0)
(7.34355 -0.0172175 0)
(7.34467 -0.0191079 0)
(7.34577 -0.0211344 0)
(7.34685 -0.0233088 0)
(7.34792 -0.0256427 0)
(7.34896 -0.0281483 0)
(7.34997 -0.0308377 0)
(7.35095 -0.0337234 0)
(7.35188 -0.0368177 0)
(7.35278 -0.0401332 0)
(7.35363 -0.0436821 0)
(7.35442 -0.0474766 0)
(7.35516 -0.0515283 0)
(7.35582 -0.0558484 0)
(7.3564 -0.060447 0)
(7.35688 -0.0653333 0)
(7.35727 -0.0705152 0)
(7.35754 -0.075999 0)
(7.35768 -0.0817898 0)
(7.35767 -0.0878846 0)
(7.333 -0.000479016 0)
(7.3331 -0.00141807 0)
(7.33335 -0.0023717 0)
(7.33377 -0.00337697 0)
(7.33434 -0.00445006 0)
(7.33505 -0.00559671 0)
(7.33587 -0.00681757 0)
(7.33676 -0.00811209 0)
(7.33772 -0.00948128 0)
(7.33871 -0.0109284 0)
(7.33972 -0.0124587 0)
(7.34074 -0.0140791 0)
(7.34175 -0.015798 0)
(7.34275 -0.0176245 0)
(7.34372 -0.0195689 0)
(7.34466 -0.0216418 0)
(7.34557 -0.0238542 0)
(7.34643 -0.0262175 0)
(7.34725 -0.0287434 0)
(7.34801 -0.0314435 0)
(7.34871 -0.0343296 0)
(7.34936 -0.0374134 0)
(7.34993 -0.0407064 0)
(7.35043 -0.0442197 0)
(7.35084 -0.0479641 0)
(7.35117 -0.0519495 0)
(7.35139 -0.0561853 0)
(7.35151 -0.0606797 0)
(7.3515 -0.0654396 0)
(7.35137 -0.0704709 0)
(7.3511 -0.0757775 0)
(7.35067 -0.0813626 0)
(7.35007 -0.0872216 0)
(7.33304 -0.000611663 0)
(7.33324 -0.00192708 0)
(7.33355 -0.00333458 0)
(7.33396 -0.00477824 0)
(7.33447 -0.0062103 0)
(7.33508 -0.00761653 0)
(7.33579 -0.00900294 0)
(7.33658 -0.0103841 0)
(7.33742 -0.011778 0)
(7.3383 -0.0132034 0)
(7.33919 -0.0146785 0)
(7.34009 -0.0162206 0)
(7.34097 -0.0178456 0)
(7.34183 -0.0195683 0)
(7.34265 -0.0214027 0)
(7.34343 -0.0233617 0)
(7.34415 -0.0254578 0)
(7.34481 -0.0277028 0)
(7.34541 -0.0301083 0)
(7.34593 -0.0326855 0)
(7.34637 -0.0354451 0)
(7.34673 -0.0383975 0)
(7.34699 -0.0415526 0)
(7.34715 -0.0449199 0)
(7.34721 -0.0485082 0)
(7.34714 -0.0523253 0)
(7.34696 -0.0563785 0)
(7.34663 -0.0606735 0)
(7.34617 -0.0652153 0)
(7.34555 -0.0700073 0)
(7.34476 -0.0750514 0)
(7.3438 -0.0803484 0)
(7.34266 -0.0858923 0)
(7.33294 -0.000406288 0)
(7.33281 -0.00113124 0)
(7.33289 -0.00192696 0)
(7.33324 -0.00291124 0)
(7.33381 -0.00408465 0)
(7.33453 -0.00540652 0)
(7.33535 -0.00683545 0)
(7.33622 -0.00834255 0)
(7.33712 -0.00991157 0)
(7.33802 -0.0115356 0)
(7.3389 -0.0132146 0)
(7.33975 -0.0149533 0)
(7.34056 -0.0167595 0)
(7.34131 -0.0186433 0)
(7.342 -0.0206158 0)
(7.34262 -0.0226886 0)
(7.34316 -0.0248738 0)
(7.34361 -0.0271833 0)
(7.34398 -0.0296289 0)
(7.34425 -0.0322222 0)
(7.34442 -0.0349741 0)
(7.34448 -0.0378952 0)
(7.34442 -0.0409953 0)
(7.34423 -0.0442837 0)
(7.34392 -0.0477687 0)
(7.34347 -0.0514575 0)
(7.34287 -0.0553566 0)
(7.34211 -0.0594711 0)
(7.34119 -0.0638047 0)
(7.34009 -0.0683602 0)
(7.33882 -0.0731384 0)
(7.33735 -0.0781395 0)
(7.33569 -0.0833572 0)
(7.33315 -0.00103614 0)
(7.33356 -0.00336325 0)
(7.3338 -0.00570697 0)
(7.33398 -0.00781716 0)
(7.33426 -0.00964144 0)
(7.33467 -0.0112348 0)
(7.33521 -0.0126651 0)
(7.33585 -0.0139929 0)
(7.33655 -0.0152691 0)
(7.33729 -0.0165349 0)
(7.33803 -0.0178239 0)
(7.33876 -0.0191628 0)
(7.33945 -0.0205734 0)
(7.34008 -0.0220732 0)
(7.34064 -0.0236771 0)
(7.34112 -0.025398 0)
(7.34151 -0.0272472 0)
(7.34181 -0.0292348 0)
(7.34199 -0.0313704 0)
(7.34205 -0.0336626 0)
(7.342 -0.0361196 0)
(7.34181 -0.0387489 0)
(7.34148 -0.0415573 0)
(7.341 -0.0445512 0)
(7.34037 -0.0477361 0)
(7.33958 -0.0511165 0)
(7.33862 -0.0546963 0)
(7.33749 -0.0584781 0)
(7.33617 -0.0624637 0)
(7.33466 -0.0666533 0)
(7.33294 -0.0710462 0)
(7.33102 -0.0756408 0)
(7.3289 -0.0804297 0)
(7.33269 0.000355152 0)
(7.3319 0.001185 0)
(7.33178 0.00133433 0)
(7.3323 0.000580824 0)
(7.33313 -0.000816595 0)
(7.33408 -0.00256847 0)
(7.33505 -0.00448878 0)
(7.336 -0.00647995 0)
(7.33691 -0.00848986 0)
(7.33776 -0.0104929 0)
(7.33853 -0.0124818 0)
(7.33922 -0.0144611 0)
(7.33982 -0.0164413 0)
(7.34032 -0.0184365 0)
(7.34072 -0.020462 0)
(7.34101 -0.0225336 0)
(7.34119 -0.0246668 0)
(7.34124 -0.0268761 0)
(7.34117 -0.0291756 0)
(7.34096 -0.031578 0)
(7.34061 -0.0340952 0)
(7.34011 -0.0367379 0)
(7.33946 -0.0395158 0)
(7.33865 -0.0424374 0)
(7.33767 -0.0455101 0)
(7.33651 -0.0487401 0)
(7.33517 -0.0521324 0)
(7.33364 -0.0556908 0)
(7.33191 -0.0594177 0)
(7.32998 -0.0633145 0)
(7.32784 -0.0673811 0)
(7.32549 -0.0716166 0)
(7.32293 -0.076015 0)
(7.33349 -0.00218568 0)
(7.33423 -0.00738751 0)
(7.33376 -0.0121044 0)
(7.33302 -0.0152479 0)
(7.33267 -0.0172783 0)
(7.33275 -0.0186561 0)
(7.33314 -0.0196441 0)
(7.33372 -0.020418 0)
(7.3344 -0.0210979 0)
(7.33512 -0.0217642 0)
(7.33584 -0.0224704 0)
(7.33652 -0.0232508 0)
(7.33713 -0.024128 0)
(7.33766 -0.0251169 0)
(7.33807 -0.0262279 0)
(7.33836 -0.0274683 0)
(7.33852 -0.0288438 0)
(7.33854 -0.0303591 0)
(7.33842 -0.0320181 0)
(7.33813 -0.0338246 0)
(7.33768 -0.0357819 0)
(7.33706 -0.0378931 0)
(7.33627 -0.0401609 0)
(7.33529 -0.0425878 0)
(7.33412 -0.0451758 0)
(7.33275 -0.0479262 0)
(7.33119 -0.0508399 0)
(7.32941 -0.0539168 0)
(7.32743 -0.0571563 0)
(7.32523 -0.060557 0)
(7.3228 -0.0641162 0)
(7.32015 -0.0678312 0)
(7.31728 -0.0716946 0)
(7.3318 0.00328003 0)
(7.32912 0.00888982 0)
(7.3295 0.0112821 0)
(7.33148 0.0106542 0)
(7.33325 0.00819489 0)
(7.3347 0.00513365 0)
(7.33591 0.00194248 0)
(7.33693 -0.00120274 0)
(7.33777 -0.00420502 0)
(7.33846 -0.00702664 0)
(7.33902 -0.00966935 0)
(7.33945 -0.0121528 0)
(7.33977 -0.0145037 0)
(7.33998 -0.0167512 0)
(7.34007 -0.0189242 0)
(7.34004 -0.0210499 0)
(7.33988 -0.023153 0)
(7.3396 -0.0252558 0)
(7.33917 -0.0273779 0)
(7.3386 -0.0295369 0)
(7.33788 -0.031748 0)
(7.33699 -0.0340247 0)
(7.33593 -0.0363784 0)
(7.3347 -0.0388191 0)
(7.33328 -0.0413553 0)
(7.33168 -0.0439937 0)
(7.32987 -0.0467401 0)
(7.32786 -0.0495987 0)
(7.32564 -0.0525725 0)
(7.32321 -0.0556634 0)
(7.32057 -0.0588722 0)
(7.3177 -0.0621986 0)
(7.31462 -0.0656388 0)
(7.33406 -0.00626364 0)
(7.33389 -0.0193748 0)
(7.32995 -0.0278272 0)
(7.32619 -0.0315785 0)
(7.3245 -0.0325841 0)
(7.3245 -0.0324524 0)
(7.32521 -0.0318208 0)
(7.32628 -0.0310087 0)
(7.32754 -0.0302219 0)
(7.32887 -0.0295688 0)
(7.33019 -0.0290977 0)
(7.33145 -0.0288277 0)
(7.33261 -0.0287622 0)
(7.33364 -0.0288964 0)
(7.33454 -0.029222 0)
(7.33529 -0.0297294 0)
(7.33587 -0.0304095 0)
(7.33628 -0.0312542 0)
(7.33652 -0.0322563 0)
(7.33656 -0.03341 0)
(7.33642 -0.0347104 0)
(7.33608 -0.0361537 0)
(7.33554 -0.0377365 0)
(7.33478 -0.0394563 0)
(7.33382 -0.0413106 0)
(7.33264 -0.0432972 0)
(7.33123 -0.0454139 0)
(7.3296 -0.0476583 0)
(7.32775 -0.050028 0)
(7.32566 -0.05252 0)
(7.32335 -0.0551311 0)
(7.3208 -0.057858 0)
(7.31802 -0.060694 0)
(7.32967 0.0198075 0)
(7.32496 0.0368449 0)
(7.32924 0.0375011 0)
(7.33484 0.0319849 0)
(7.33812 0.0254236 0)
(7.33992 0.0189087 0)
(7.34136 0.0127644 0)
(7.34269 0.00720249 0)
(7.34398 0.00226879 0)
(7.34529 -0.00208424 0)
(7.34663 -0.00592736 0)
(7.348 -0.00933448 0)
(7.34937 -0.0123774 0)
(7.35071 -0.0151217 0)
(7.35201 -0.0176251 0)
(7.35325 -0.0199376 0)
(7.35439 -0.022102 0)
(7.35543 -0.024155 0)
(7.35634 -0.0261278 0)
(7.35712 -0.028047 0)
(7.35774 -0.0299353 0)
(7.3582 -0.0318122 0)
(7.35849 -0.033694 0)
(7.35859 -0.0355951 0)
(7.35852 -0.0375274 0)
(7.35825 -0.039501 0)
(7.35778 -0.0415245 0)
(7.35712 -0.043605 0)
(7.35626 -0.0457483 0)
(7.3552 -0.0479591 0)
(7.35393 -0.0502411 0)
(7.35247 -0.0525972 0)
(7.35082 -0.0550276 0)
(7.32506 -0.0331557 0)
(7.29732 -0.0590084 0)
(7.27784 -0.0621706 0)
(7.27354 -0.0600775 0)
(7.28026 -0.056834 0)
(7.29177 -0.0530042 0)
(7.30508 -0.0492741 0)
(7.31884 -0.0459956 0)
(7.33232 -0.0432251 0)
(7.34509 -0.04095 0)
(7.357 -0.039138 0)
(7.36799 -0.0377413 0)
(7.37806 -0.0367092 0)
(7.38727 -0.0359957 0)
(7.39565 -0.0355603 0)
(7.40327 -0.0353687 0)
(7.41018 -0.0353923 0)
(7.41643 -0.0356078 0)
(7.42208 -0.0359961 0)
(7.42716 -0.0365419 0)
(7.43171 -0.0372328 0)
(7.43577 -0.0380589 0)
(7.43938 -0.0390124 0)
(7.44254 -0.0400866 0)
(7.44529 -0.0412763 0)
(7.44765 -0.042577 0)
(7.44963 -0.0439851 0)
(7.45126 -0.0454969 0)
(7.45253 -0.0471096 0)
(7.45346 -0.0488199 0)
(7.45406 -0.0506254 0)
(7.45434 -0.0525223 0)
(7.4543 -0.0545075 0)
(7.33915 0.134704 0)