/*--------------------------------*- C++ -*----------------------------------*\
  =========                 |
  \\      /  F ield         | OpenFOAM: The Open Source CFD Toolbox
   \\    /   O peration     | Website:  https://openfoam.org
    \\  /    A nd           | Version:  10
     \\/     M anipulation  |
\*---------------------------------------------------------------------------*/
FoamFile
{
    format      ascii;
    class       volScalarField;
    location    "0.115";
    object      k;
}
// * * * * * * * * * * * * * * * * * * * * * * * * * * * * * * * * * * * * * //

dimensions      [0 2 -2 0 0 0 0];

internalField   nonuniform List<scalar> 
6820
(
0.198344
0.194807
0.191207
0.187579
0.18397
0.180404
0.176891
0.173433
0.170032
0.166685
0.163389
0.160143
0.156941
0.153779
0.150652
0.147552
0.144473
0.141405
0.138337
0.135259
0.132155
0.129008
0.1258
0.122509
0.119108
0.115568
0.111855
0.107928
0.103747
0.0992457
0.0943794
0.0890529
0.0827865
0.200926
0.200908
0.200487
0.200048
0.199611
0.199166
0.198711
0.198242
0.197759
0.197261
0.196751
0.19623
0.1957
0.195162
0.19462
0.194074
0.193526
0.192978
0.192431
0.191884
0.191338
0.19079
0.190238
0.189676
0.189096
0.188487
0.187833
0.187112
0.186298
0.185344
0.184229
0.182769
0.181313
0.236722
0.0167794
0.000553418
0.00798041
0.00772418
0.00797094
0.0096606
0.0117082
0.0139143
0.0162332
0.0186315
0.0210927
0.0236071
0.026169
0.0287758
0.0314274
0.0341267
0.0368784
0.0396902
0.0425717
0.0455352
0.0485954
0.0517692
0.0550759
0.0585371
0.0621755
0.0660156
0.0700822
0.0744002
0.0789956
0.0838893
0.089128
0.0946634
0.210778
0.147941
0.104879
0.0795774
0.0639662
0.053402
0.0456174
0.0395065
0.0344973
0.0302687
0.0266276
0.0234509
0.0206572
0.0181912
0.0160157
0.0141055
0.0124442
0.0110206
0.00982659
0.00885418
0.00809425
0.0075362
0.00716904
0.00698332
0.00697336
0.00713913
0.00748774
0.00803488
0.00880521
0.00983673
0.0111702
0.0128912
0.0149846
0.223438
0.0827904
0.0210603
0.00409626
0.000655376
0.000416238
0.000745133
0.00107838
0.00135562
0.00159483
0.00180914
0.00200215
0.00217293
0.00231929
0.00243918
0.00253121
0.00259467
0.00262949
0.0026361
0.00261527
0.00256795
0.00249514
0.00239776
0.00227667
0.00213263
0.00196651
0.00177953
0.0015734
0.00135145
0.00111814
0.000881103
0.000653354
0.000450017
0.217177
0.11455
0.0535088
0.0296962
0.0204698
0.0159937
0.012824
0.00995763
0.00723013
0.00480322
0.00289247
0.00158379
0.000799808
0.000382859
0.000181413
9.09042e-05
5.30243e-05
3.94081e-05
3.73354e-05
4.12476e-05
4.85866e-05
5.79257e-05
6.81768e-05
7.81534e-05
8.64742e-05
9.21205e-05
8.9551e-05
8.75805e-05
2.91868e-05
0.000410364
0.000434583
0.000369409
0.000112795
0.213354
0.133675
0.067055
0.034691
0.0209161
0.0148422
0.0117858
0.0100208
0.00887602
0.00806881
0.00747076
0.00702757
0.0067404
0.00653183
0.00634973
0.00616993
0.00597306
0.00574182
0.00546578
0.00514672
0.00479915
0.00444413
0.00410113
0.00378323
0.00349609
0.00323981
0.00301105
0.00280625
0.00261957
0.00244964
0.00229401
0.00214683
0.00200511
0.203949
0.180452
0.129984
0.0746407
0.0400712
0.023013
0.0149659
0.0109535
0.0087432
0.00739675
0.00651201
0.00591579
0.00561038
0.00549364
0.00543976
0.00541067
0.00539375
0.00538334
0.00537586
0.00536779
0.00535579
0.00533769
0.00531248
0.00528095
0.00524408
0.00520207
0.00515442
0.00509955
0.00503657
0.00496343
0.00487984
0.00478574
0.0046803
0.202562
0.187146
0.163265
0.125648
0.0849863
0.0541207
0.0346176
0.0231487
0.0164019
0.0122579
0.00954838
0.00767768
0.00664779
0.00630307
0.00619057
0.00613932
0.00611161
0.00609798
0.00609395
0.00609515
0.00609593
0.00609142
0.0060799
0.00606404
0.00604767
0.00603309
0.0060201
0.0060062
0.00598787
0.00596115
0.00592133
0.00586436
0.00578123
0.201879
0.190524
0.176898
0.158889
0.130815
0.0973496
0.0674562
0.0455162
0.0310146
0.0217502
0.0157858
0.0119298
0.00996004
0.00938385
0.00926878
0.00929397
0.00937443
0.00948089
0.00959717
0.0097095
0.00980335
0.00986726
0.00989733
0.00989849
0.00987928
0.00984638
0.00980198
0.00974416
0.00966859
0.00956994
0.0094406
0.00927179
0.00903836
0.201402
0.192879
0.183025
0.172751
0.159082
0.139911
0.115941
0.0906988
0.0681177
0.0502901
0.0374903
0.0291043
0.024927
0.0236783
0.0234745
0.0236046
0.0238535
0.0241474
0.0244506
0.0247375
0.0249837
0.0251661
0.0252718
0.025301
0.0252616
0.0251617
0.0250067
0.0247965
0.024525
0.0241807
0.0237359
0.023155
0.0222713
0.201078
0.194486
0.187198
0.180494
0.173
0.162942
0.148885
0.130808
0.110751
0.0916944
0.0761215
0.0653777
0.0594887
0.0572514
0.0566581
0.0565999
0.0566993
0.0568407
0.0569809
0.0570973
0.0571746
0.0571949
0.0571455
0.0570172
0.0568036
0.0565008
0.0561079
0.055622
0.0550306
0.0543035
0.0533557
0.0520419
0.0496699
0.200847
0.195638
0.19007
0.18537
0.180903
0.175926
0.169613
0.161068
0.150006
0.137313
0.124915
0.114758
0.107636
0.103264
0.10066
0.0988348
0.0973232
0.0960061
0.0948626
0.09388
0.0930339
0.0922928
0.0916275
0.0910126
0.0904258
0.0898472
0.0892596
0.0886439
0.0879697
0.0871774
0.0861253
0.0845066
0.0810347
0.200686
0.196445
0.192067
0.188699
0.185953
0.183335
0.18032
0.17632
0.17095
0.164342
0.157217
0.150548
0.144965
0.140598
0.137244
0.134421
0.131877
0.129581
0.127535
0.125737
0.124167
0.122801
0.12161
0.12057
0.119657
0.118846
0.118116
0.117439
0.116777
0.116063
0.11514
0.113621
0.110102
0.200572
0.197016
0.193459
0.190955
0.18923
0.187921
0.186678
0.185104
0.182855
0.179785
0.176038
0.171961
0.167904
0.164062
0.160491
0.157068
0.153802
0.150771
0.148031
0.145607
0.1435
0.141694
0.140164
0.138881
0.137813
0.136932
0.136208
0.135614
0.135116
0.134651
0.134089
0.133109
0.130686
0.200493
0.197413
0.194415
0.192468
0.191352
0.190743
0.190327
0.189778
0.188822
0.187308
0.185245
0.182761
0.180023
0.177095
0.17404
0.170931
0.167873
0.164963
0.162268
0.159823
0.157643
0.155728
0.154068
0.152649
0.151451
0.150454
0.14964
0.148986
0.148461
0.148013
0.147533
0.146782
0.145109
0.200441
0.197679
0.195046
0.193439
0.192666
0.192416
0.192401
0.192344
0.192019
0.191277
0.190071
0.188405
0.186315
0.183858
0.181133
0.178266
0.175381
0.172583
0.16995
0.167532
0.165357
0.163434
0.161761
0.160328
0.159121
0.158122
0.157313
0.156669
0.156159
0.155729
0.155283
0.154652
0.153446
0.200408
0.197843
0.195416
0.193978
0.19337
0.193279
0.193424
0.193556
0.193477
0.193049
0.1922
0.190913
0.189209
0.187156
0.18485
0.182397
0.179901
0.177449
0.175108
0.172925
0.170927
0.16913
0.167537
0.166145
0.164946
0.163927
0.163073
0.16236
0.161758
0.161217
0.160654
0.159947
0.15888
0.200393
0.197922
0.195566
0.194162
0.193574
0.193498
0.193661
0.19383
0.193823
0.193512
0.192825
0.19174
0.190276
0.188492
0.186466
0.18429
0.182053
0.179831
0.177688
0.17567
0.173806
0.172113
0.170599
0.169262
0.168095
0.167087
0.16622
0.165471
0.164807
0.164179
0.163517
0.162737
0.161731
0.200392
0.197923
0.195534
0.194072
0.193412
0.193262
0.193358
0.193476
0.193445
0.193154
0.192537
0.19158
0.1903
0.188747
0.186987
0.185094
0.18314
0.181189
0.179292
0.177487
0.175803
0.174253
0.172847
0.171583
0.170457
0.169459
0.168572
0.167773
0.167029
0.1663
0.165531
0.164674
0.163686
0.200406
0.197849
0.195329
0.193727
0.192927
0.192643
0.192615
0.19263
0.192528
0.192207
0.191611
0.190725
0.189567
0.188175
0.186604
0.184915
0.183166
0.181412
0.179696
0.178053
0.176505
0.17507
0.173752
0.172554
0.171471
0.17049
0.169592
0.168753
0.167948
0.167145
0.166303
0.1654
0.164434
0.200436
0.197692
0.194938
0.193115
0.192113
0.191643
0.19145
0.191327
0.191123
0.190745
0.190143
0.189305
0.188244
0.186994
0.185598
0.184105
0.182561
0.18101
0.179487
0.17802
0.176628
0.175324
0.174114
0.172999
0.171971
0.171011
0.170103
0.169233
0.16838
0.167524
0.166634
0.165704
0.164761
0.200485
0.197439
0.194332
0.192199
0.190934
0.190238
0.189852
0.189573
0.189253
0.188805
0.188182
0.187371
0.186383
0.185241
0.183981
0.182641
0.181259
0.17987
0.178502
0.177178
0.175914
0.174722
0.173604
0.172555
0.171562
0.170613
0.169698
0.168808
0.167928
0.167041
0.166128
0.165195
0.164282
0.200559
0.197053
0.193444
0.190901
0.189308
0.188348
0.187748
0.187301
0.186863
0.186345
0.185702
0.184921
0.184006
0.182975
0.181855
0.180673
0.17946
0.178242
0.177041
0.175874
0.174754
0.173687
0.172661
0.171671
0.170711
0.169778
0.168869
0.167974
0.167085
0.166188
0.16527
0.164347
0.163466
0.200666
0.196492
0.192193
0.189121
0.18714
0.185891
0.185077
0.184474
0.183932
0.183358
0.182706
0.181955
0.181105
0.180168
0.179163
0.178112
0.177037
0.175959
0.174895
0.173857
0.172851
0.171872
0.170911
0.169968
0.169043
0.168136
0.167245
0.166363
0.165484
0.164599
0.163699
0.162804
0.161963
0.20082
0.195684
0.190433
0.186674
0.184222
0.182646
0.181605
0.180851
0.180221
0.179614
0.178977
0.178286
0.177531
0.176719
0.175859
0.174968
0.174059
0.173147
0.172245
0.171344
0.170441
0.169537
0.168637
0.167745
0.166864
0.165995
0.165135
0.164281
0.163428
0.16257
0.161702
0.160845
0.160047
0.201044
0.194515
0.187974
0.183369
0.180405
0.178525
0.177306
0.176455
0.175782
0.175176
0.174574
0.173945
0.173277
0.17257
0.171828
0.171065
0.170285
0.169497
0.168706
0.1679
0.167078
0.166247
0.165414
0.164584
0.16376
0.162944
0.162133
0.161327
0.160521
0.159712
0.158896
0.158096
0.157355
0.201379
0.192755
0.18439
0.178665
0.175071
0.172848
0.171458
0.170544
0.169882
0.169343
0.16885
0.168364
0.167863
0.167339
0.166791
0.166222
0.165614
0.164963
0.164277
0.163562
0.162828
0.162081
0.161328
0.160575
0.159824
0.159076
0.158332
0.15759
0.156849
0.156104
0.155355
0.154622
0.153942
0.201884
0.190104
0.179309
0.172327
0.168178
0.165747
0.164311
0.163427
0.162836
0.162391
0.162012
0.161653
0.161283
0.160891
0.160475
0.160031
0.159541
0.159002
0.158423
0.157813
0.15718
0.156533
0.155877
0.155216
0.154554
0.153893
0.153234
0.152575
0.151915
0.151254
0.150589
0.14994
0.149338
0.202713
0.185756
0.17134
0.162625
0.157784
0.155166
0.153788
0.15309
0.152755
0.152607
0.152545
0.1525
0.152412
0.152262
0.152048
0.151773
0.15144
0.151058
0.150633
0.150173
0.149686
0.149178
0.148654
0.14812
0.147578
0.147031
0.146481
0.145928
0.145372
0.144812
0.144248
0.143695
0.143179
0.204024
0.178879
0.159987
0.149716
0.144464
0.141813
0.140535
0.139992
0.139844
0.139908
0.140072
0.140253
0.140394
0.140473
0.140487
0.140435
0.14032
0.140148
0.139924
0.139653
0.139344
0.139003
0.138635
0.138246
0.137842
0.137425
0.136999
0.136565
0.136124
0.135677
0.135223
0.134777
0.134358
0.206357
0.166733
0.141338
0.12916
0.123572
0.121072
0.120135
0.120024
0.120348
0.120888
0.12152
0.122162
0.122764
0.1233
0.123756
0.124123
0.124402
0.124593
0.124702
0.124734
0.124699
0.124605
0.124461
0.124275
0.124055
0.123807
0.123537
0.123247
0.122941
0.122623
0.122292
0.121962
0.121645
0.212059
0.13715
0.102001
0.0885575
0.0835995
0.0820984
0.0822185
0.0831383
0.0844449
0.0859204
0.0874384
0.0889185
0.0903099
0.0915829
0.0927223
0.0937209
0.0945759
0.0952884
0.0958636
0.0963107
0.0966422
0.0968725
0.0970163
0.0970874
0.0970983
0.0970596
0.0969805
0.0968683
0.096729
0.0965675
0.0963875
0.0961978
0.0960063
0.220321
0.0954742
0.0528028
0.0409863
0.0384474
0.0387632
0.0400728
0.0417622
0.0435858
0.0454289
0.0472277
0.0489402
0.0505388
0.052007
0.0533353
0.0545172
0.055548
0.0564273
0.0571598
0.0577553
0.0582277
0.0585926
0.0588656
0.0590613
0.0591926
0.0592707
0.0593052
0.0593038
0.0592732
0.0592187
0.0591445
0.0590561
0.0589564
0.225349
0.0719215
0.0280586
0.0173412
0.0153194
0.0155707
0.0164659
0.0175872
0.0187977
0.0200265
0.021229
0.022376
0.0234475
0.0244299
0.0253143
0.0260956
0.0267723
0.0273468
0.0278251
0.0282156
0.0285283
0.0287732
0.0289598
0.0290968
0.0291922
0.0292527
0.0292845
0.0292927
0.0292813
0.029254
0.0292136
0.0291632
0.0291032
0.223699
0.0793899
0.0346821
0.0221658
0.0184293
0.0170615
0.016339
0.0157994
0.0153134
0.0148446
0.0143904
0.0139608
0.013565
0.0132097
0.012897
0.0126263
0.0123976
0.0122102
0.0120604
0.0119435
0.0118543
0.0117875
0.0117383
0.0117024
0.0116762
0.0116566
0.0116412
0.0116277
0.0116145
0.0116004
0.0115845
0.0115656
0.0115485
0.213445
0.133679
0.0877191
0.0638125
0.0506033
0.0425011
0.0370176
0.0330282
0.0299696
0.0275296
0.0255241
0.0238356
0.0223869
0.0211238
0.020007
0.0190094
0.0181103
0.0172926
0.0165432
0.0158516
0.0152097
0.0146107
0.0140495
0.0135218
0.0130244
0.0125543
0.0121094
0.0116875
0.0112874
0.0109081
0.0105482
0.0102092
0.00988049
0.240252
0.000456186
0.0364016
4.56607e-05
0.0102891
0.0013816
0.0290332
0.00317053
0.00182687
0.000276196
0.00200122
0.0019976
0.000659094
0.000171257
0.000245204
0.000271892
0.000273531
0.000292846
0.000313852
0.000330521
0.000344937
0.000357777
0.000368814
0.000378085
0.000385755
0.000391943
0.000396761
0.000400327
0.000402786
0.000404312
0.000405043
0.000405205
0.000404518
0.200085
0.199944
0.199752
0.199561
0.199377
0.199195
0.199012
0.198826
0.198634
0.198436
0.198231
0.19802
0.197801
0.197574
0.197342
0.197103
0.196851
0.196586
0.196309
0.19602
0.195721
0.195411
0.195093
0.194766
0.194432
0.194092
0.193747
0.193398
0.193046
0.192693
0.192339
0.191989
0.191628
0.199876
0.199569
0.199238
0.198897
0.198556
0.198219
0.197891
0.197573
0.197266
0.196971
0.196688
0.196418
0.19616
0.195913
0.195678
0.195454
0.195241
0.195039
0.194846
0.194663
0.194489
0.194325
0.194168
0.194019
0.193878
0.193744
0.193615
0.193493
0.193375
0.19326
0.193147
0.193038
0.192931
0.0764815
0.0731034
0.0721754
0.0719433
0.0710024
0.0726346
0.081248
0.105519
0.13277
0.152277
0.16774
0.156795
0.0935508
0.047715
0.0458823
0.0541698
0.0602987
0.0654857
0.0719238
0.0799323
0.0895821
0.100844
0.111875
0.120201
0.123264
0.119927
0.110773
0.0953145
0.0770439
0.0676777
0.0711682
0.0746051
0.0654804
0.0455406
0.0250077
0.0123091
0.00907826
0.0108536
0.0123005
0.0041645
0.0126425
0.0583224
0.112086
0.151777
0.178517
0.1994
0.21543
0.223123
0.220339
0.206972
0.184351
0.151267
0.104659
0.0600152
0.0423473
0.0545645
0.0795433
0.1016
0.115048
0.120828
0.121658
0.119713
0.116228
0.111828
0.106922
0.101944
0.0973976
0.0937809
0.0914577
0.0905756
0.091019
0.0923688
0.0938301
0.0942014
0.0920809
0.0864441
0.077377
0.0665735
0.0569787
0.0514768
0.0512259
0.0540737
0.053392
0.0413713
0.0241462
0.0257411
0.0487507
0.0732632
0.0830089
0.0767582
0.0630382
0.0492304
0.0381005
0.0298268
0.0242803
0.0217279
0.0223647
0.026406
0.0295777
0.0415637
0.177166
0.171363
0.165174
0.159768
0.155029
0.151143
0.15382
0.157502
0.15442
0.144745
0.139311
0.145184
0.159284
0.137726
0.076728
0.0507813
0.0536129
0.0614527
0.0682707
0.0750136
0.0826057
0.0915203
0.100361
0.106847
0.108825
0.105446
0.0964697
0.0814807
0.0684665
0.0679908
0.0746213
0.0723853
0.0559762
0.0335507
0.0157949
0.00826961
0.00962071
0.013997
0.017096
0.0111541
0.00553209
0.0314304
0.0809503
0.126658
0.158271
0.179033
0.192452
0.198151
0.194929
0.182185
0.158846
0.121
0.0745205
0.0431344
0.0427802
0.0647399
0.09088
0.11008
0.120247
0.123602
0.122864
0.119895
0.115693
0.110776
0.105509
0.100296
0.0956051
0.0918897
0.0894838
0.0885242
0.0889051
0.0902247
0.0917072
0.0921743
0.0902502
0.0849171
0.0762153
0.065731
0.0563859
0.0511228
0.0511966
0.0546781
0.0555112
0.0455637
0.0278868
0.0259856
0.0461795
0.0709233
0.082497
0.0776296
0.0642142
0.0500914
0.0385829
0.0300831
0.0244343
0.0218511
0.0225195
0.026718
0.0301763
0.0424066
0.101893
0.109825
0.116651
0.12186
0.12533
0.127181
0.125679
0.117174
0.101885
0.0864767
0.0793818
0.0852507
0.112036
0.142292
0.127636
0.0795125
0.05334
0.0533007
0.0614515
0.0693779
0.076143
0.0827356
0.0891178
0.0936055
0.094531
0.0911263
0.0815954
0.0690396
0.065073
0.0722698
0.0761436
0.0649508
0.0428037
0.0212124
0.00878313
0.00734307
0.0129995
0.0196937
0.0235334
0.0206141
0.0091726
0.0138242
0.0479121
0.0929091
0.130071
0.154654
0.168598
0.17352
0.169375
0.154751
0.126436
0.0853098
0.0478575
0.035391
0.0503142
0.0774698
0.101834
0.117198
0.124112
0.125356
0.123367
0.119625
0.114896
0.109589
0.104036
0.0986166
0.0937748
0.0899391
0.087428
0.086376
0.0866869
0.0879755
0.0894815
0.0900396
0.0882891
0.083225
0.0748785
0.0647508
0.0557112
0.0507394
0.0511726
0.0552716
0.0575368
0.050074
0.0332764
0.0286688
0.0456654
0.0691882
0.0812496
0.0775534
0.0650888
0.0514209
0.0400494
0.0315958
0.0260128
0.0235434
0.0243185
0.0285826
0.0319788
0.0443642
0.0182622
0.022838
0.0278572
0.0325866
0.0363726
0.0382761
0.037498
0.0334065
0.0272954
0.0220026
0.0200351
0.0238651
0.0419154
0.0832654
0.121036
0.115573
0.0806598
0.0566848
0.0531155
0.0593594
0.0670404
0.0734818
0.0784785
0.081388
0.0815616
0.0766418
0.0670624
0.0622618
0.0692035
0.0774795
0.071736
0.0514049
0.0275575
0.0107796
0.00565672
0.0103236
0.0195289
0.0279645
0.0322793
0.0311961
0.0203448
0.0103845
0.0225746
0.055621
0.0923269
0.120654
0.137407
0.143247
0.137166
0.118107
0.086053
0.0508746
0.0317318
0.0387497
0.0636296
0.0911478
0.111525
0.12268
0.126664
0.126214
0.123296
0.119009
0.113905
0.108306
0.102513
0.0968976
0.0918892
0.0879065
0.0852645
0.0841035
0.0843392
0.0855999
0.0871371
0.0877923
0.0862082
0.0813871
0.0733722
0.0636264
0.0549416
0.0503103
0.0511333
0.0558272
0.0593896
0.0545202
0.0396732
0.0329468
0.0456698
0.0657641
0.076463
0.0736739
0.0631888
0.0513314
0.0411316
0.0332693
0.027907
0.0255064
0.026306
0.030646
0.0341201
0.0468515
0.000278179
0.000248255
0.000451885
0.000856583
0.00133495
0.00166363
0.00170733
0.00139242
0.000856279
0.000461723
0.000546682
0.00141678
0.00493144
0.0245005
0.0674144
0.104855
0.107396
0.0842342
0.0627162
0.0545094
0.0558252
0.0603643
0.0644324
0.0665398
0.065542
0.0607072
0.0588103
0.066992
0.0780924
0.0765323
0.058347
0.0335092
0.0135796
0.00489033
0.00754644
0.0173034
0.0290149
0.038527
0.0433264
0.0429165
0.0349162
0.0200086
0.0134148
0.0262528
0.051932
0.0775884
0.0949601
0.100739
0.0929106
0.0727303
0.0465222
0.0284153
0.0306004
0.0516386
0.0797559
0.103864
0.11925
0.126478
0.128082
0.126375
0.122812
0.118151
0.112774
0.106938
0.100927
0.095107
0.0899091
0.0857519
0.0829553
0.0816712
0.0818288
0.0830681
0.0846481
0.0854129
0.0840007
0.0794091
0.0716981
0.0623415
0.0540534
0.0498124
0.0510687
0.0563763
0.0611462
0.0587439
0.0463257
0.0376185
0.0452602
0.0614153
0.0706952
0.068812
0.0601488
0.0498871
0.0407431
0.0335378
0.0286248
0.0265984
0.0277105
0.032352
0.0360881
0.0491712
4.10682e-05
3.96566e-05
0.000162974
1.21496e-05
0.000360662
0.000209006
0.000279359
0.000242869
0.000193809
0.00026875
0.00026199
0.000409488
0.000637473
0.00143347
0.0187241
0.0562554
0.0907244
0.100893
0.0896226
0.0730064
0.0617297
0.0570146
0.0559718
0.0559898
0.0553664
0.0584798
0.0690449
0.0806705
0.080035
0.0627202
0.037543
0.0159601
0.00477126
0.00530775
0.0145628
0.0278889
0.0410914
0.0511012
0.0562975
0.0562152
0.0504363
0.0370972
0.0216108
0.0157793
0.0233496
0.03761
0.0496449
0.0531659
0.0464394
0.0332983
0.0228426
0.0252848
0.0432377
0.0699153
0.0956751
0.114367
0.124813
0.128777
0.128599
0.12602
0.122026
0.117107
0.111517
0.10547
0.0992416
0.0932033
0.0877921
0.0834342
0.0804609
0.0790394
0.079116
0.0803424
0.0819817
0.0828763
0.0816544
0.0772984
0.0698736
0.0608955
0.0530339
0.0492223
0.0509362
0.0568346
0.0626378
0.0623037
0.0523138
0.0421995
0.0453713
0.0590704
0.0682048
0.0671649
0.0592112
0.049263
0.0402617
0.0332328
0.0285485
0.026734
0.0279818
0.032808
0.0369402
0.0509135
0.00185534
0.00168947
0.00153167
0.00138608
0.00126307
0.00116613
0.00109935
0.00107401
0.00106643
0.00102573
0.000951021
0.000757616
0.000185153
0.000137489
0.000637526
0.0147754
0.0449349
0.0756978
0.0921919
0.0929056
0.0854767
0.0774173
0.0722271
0.0705008
0.0731485
0.0807412
0.0870038
0.0818988
0.0629777
0.0378891
0.0164567
0.00455713
0.00378073
0.0121924
0.0260661
0.041504
0.0553067
0.0652937
0.0705957
0.0709555
0.0664522
0.0563002
0.0407545
0.025791
0.0180624
0.0179469
0.0205982
0.0210472
0.0186775
0.0174306
0.0233755
0.0397622
0.0638249
0.0889435
0.109202
0.122127
0.128364
0.129866
0.12845
0.125293
0.121012
0.115899
0.110123
0.10387
0.0974152
0.0911398
0.0854918
0.0809088
0.0777362
0.0761609
0.0761504
0.0773719
0.0790917
0.080144
0.0791423
0.0750469
0.0679111
0.0592912
0.0518729
0.048519
0.050703
0.0571615
0.0638555
0.0652474
0.0576342
0.0471232
0.0471204
0.0599528
0.070041
0.069732
0.0614933
0.0506396
0.0407231
0.0330968
0.0281581
0.026277
0.0274434
0.0321956
0.0364141
0.0512256
0.0045523
0.00439579
0.00422999
0.00406336
0.00389989
0.00374281
0.00359016
0.00341665
0.0031921
0.00288889
0.00251286
0.00206936
0.00156627
0.000875141
0.000521605
0.000253882
0.0102126
0.0319661
0.0571067
0.0761552
0.0859231
0.0888321
0.0887496
0.0888546
0.0899635
0.0871749
0.0756371
0.0554544
0.0324635
0.0137743
0.0034871
0.00283281
0.0107022
0.0245625
0.0412305
0.0575255
0.0710403
0.0804166
0.0854173
0.0862016
0.0827906
0.0752008
0.0630803
0.048029
0.0343205
0.0252317
0.0206353
0.0192789
0.0213163
0.0287515
0.0431513
0.063451
0.0857369
0.105351
0.119329
0.127228
0.130269
0.130057
0.127823
0.124288
0.1198
0.114519
0.108561
0.102095
0.095399
0.0888664
0.0829582
0.0781255
0.0747298
0.0729802
0.0728713
0.0740926
0.0759163
0.0771633
0.076424
0.0726322
0.0658162
0.0575484
0.0505729
0.0476905
0.0503369
0.0573009
0.0647575
0.0676551
0.0624541
0.0525951
0.0502443
0.0618063
0.0720367
0.0719548
0.0634352
0.0519465
0.04135
0.033206
0.0279817
0.0259506
0.0268765
0.0312532
0.035078
0.0502276
0.00566217
0.00550017
0.00532184
0.00513642
0.00494055
0.0047234
0.00447221
0.00418469
0.00388489
0.00361989
0.00341818
0.00323657
0.00304064
0.00261191
0.00196416
0.000237556
2.04364e-05
0.00567444
0.0184404
0.0349647
0.0502996
0.0612725
0.0671397
0.0684042
0.0641926
0.0534318
0.0377036
0.0211041
0.00821726
0.00148718
0.00237289
0.0103663
0.0241053
0.041364
0.0592334
0.0750666
0.0872885
0.0953879
0.0996678
0.100625
0.0983598
0.0928951
0.0842502
0.0728272
0.0604929
0.0500288
0.0435104
0.0419782
0.0458285
0.0555096
0.0702511
0.0876641
0.104387
0.117579
0.126033
0.130119
0.130949
0.129612
0.126847
0.123046
0.118385
0.11294
0.106791
0.100097
0.0931397
0.0863264
0.0801337
0.0750268
0.0713832
0.0694354
0.0692109
0.070431
0.0723811
0.0738674
0.0734461
0.0700165
0.0635768
0.0556857
0.0491402
0.0467317
0.0498267
0.0572499
0.0653876
0.0696437
0.0667313
0.0580378
0.053847
0.0630668
0.0721941
0.0720255
0.063739
0.0523419
0.0416011
0.033222
0.0278733
0.0258983
0.026875
0.0311122
0.0345061
0.049147
0.00868689
0.0081681
0.00756831
0.00694273
0.00630389
0.00565612
0.0050467
0.00456974
0.00431655
0.00429891
0.00441352
0.00450005
0.00445495
0.00423618
0.00383344
0.00298491
0.00134289
6.42919e-05
0.00145378
0.00653669
0.0140599
0.0212933
0.0259001
0.0262365
0.02196
0.0149076
0.0075066
0.00187083
0.00245119
0.00333262
0.0114764
0.0252787
0.0428352
0.0615792
0.0787968
0.0926791
0.102638
0.10891
0.112151
0.112985
0.111652
0.10813
0.102437
0.0948398
0.0862479
0.0783638
0.0732511
0.0722366
0.0757972
0.0838566
0.0950822
0.107207
0.117868
0.125539
0.129874
0.131366
0.13077
0.128713
0.125585
0.121573
0.116746
0.111127
0.104767
0.0978189
0.0905726
0.0834514
0.0769495
0.0715467
0.0676337
0.0654646
0.0651031
0.0663132
0.0684064
0.0701787
0.0701434
0.0671507
0.0611638
0.0537107
0.0475932
0.0456465
0.049168
0.0569962
0.0657103
0.0710986
0.0700827
0.0626281
0.0572927
0.0638123
0.0711999
0.070725
0.0628297
0.0517964
0.0411519
0.0327073
0.0273348
0.0255265
0.026839
0.0314261
0.0350067
0.0492003
0.0208485
0.0181044
0.0147345
0.0117378
0.0093772
0.00778114
0.00709063
0.00730141
0.00815068
0.00916338
0.00983908
0.00986582
0.00922725
0.00814067
0.00688466
0.0057214
0.00431474
0.00256857
0.000720614
0.00115032
0.00107497
0.00217374
0.00340945
0.00322738
0.00189434
0.000520794
6.70319e-05
0.00154441
0.00612826
0.0151325
0.0289623
0.0465945
0.065607
0.083308
0.0978354
0.108531
0.11567
0.119921
0.122027
0.12255
0.121762
0.119714
0.116384
0.111905
0.106779
0.102
0.0988934
0.0984188
0.100965
0.106336
0.113375
0.12048
0.126259
0.129986
0.131616
0.131485
0.129996
0.127459
0.124053
0.119849
0.114849
0.109031
0.102427
0.0951853
0.0876126
0.0801539
0.0733239
0.0676144
0.0634231
0.0610182
0.0604985
0.0616811
0.0639218
0.0660196
0.0664431
0.0639771
0.0585349
0.0516096
0.0459596
0.0444483
0.0483634
0.0565372
0.0657117
0.0719748
0.0723676
0.0659916
0.0602533
0.0643738
0.0699938
0.069161
0.0616256
0.0509332
0.0403774
0.0318704
0.0264508
0.0247473
0.02642
0.0315971
0.035883
0.0502062
0.0451455
0.0319542
0.019666
0.0129893
0.0103829
0.0107803
0.0133412
0.0170561
0.0208476
0.0238151
0.0253826
0.0253318
0.0237658
0.0210367
0.0176537
0.0142086
0.0110873
0.00840652
0.00598568
0.00399249
0.00238163
0.00150799
0.00112658
0.00113643
0.00171324
0.00320994
0.00636198
0.0123094
0.0222012
0.0363865
0.053822
0.0723139
0.0894601
0.103576
0.114051
0.121149
0.125558
0.128018
0.129137
0.129316
0.12876
0.12756
0.12575
0.123397
0.12074
0.118293
0.116722
0.116585
0.118069
0.121009
0.124669
0.128132
0.130675
0.131959
0.131968
0.130849
0.128776
0.125883
0.122238
0.117843
0.112643
0.106582
0.099676
0.0920859
0.0841442
0.076326
0.0691668
0.0631647
0.0587121
0.056077
0.055385
0.056514
0.0588868
0.0613296
0.0622757
0.0604331
0.0556423
0.0493495
0.044253
0.0431627
0.0474215
0.0558745
0.0653847
0.0722647
0.0736194
0.0681809
0.0626224
0.0648188
0.0687665
0.0674973
0.0602223
0.049819
0.0393552
0.0308154
0.0253495
0.0236501
0.0254975
0.0310985
0.0360822
0.0511137
0.0728017
0.040192
0.0191169
0.0140244
0.0165511
0.0227262
0.0302176
0.0374561
0.0434707
0.0477511
0.050073
0.0503714
0.0487092
0.0453004
0.04053
0.0349583
0.029257
0.0240044
0.0195251
0.0159014
0.0132338
0.0115258
0.0108669
0.0113901
0.0133907
0.0175052
0.0245261
0.0350743
0.0490756
0.0654417
0.0823063
0.0977216
0.110344
0.119712
0.126082
0.130073
0.132362
0.133516
0.133935
0.133839
0.133347
0.132544
0.131486
0.130243
0.128936
0.127781
0.127049
0.127
0.12768
0.128985
0.130518
0.131809
0.132493
0.132381
0.131427
0.129668
0.127168
0.12398
0.12011
0.115499
0.110043
0.103659
0.0963674
0.0883623
0.0800184
0.0718456
0.0643951
0.0581582
0.0535031
0.0506759
0.0498131
0.050855
0.0533168
0.0560889
0.0575933
0.0564606
0.0524361
0.0468911
0.0424562
0.0418345
0.0463747
0.0550285
0.0647613
0.0720453
0.0740264
0.0694923
0.0643944
0.0650546
0.0674416
0.0656939
0.0586378
0.0485316
0.0382014
0.0296715
0.024175
0.0224386
0.0243484
0.0301904
0.0355898
0.0512995
0.100517
0.0619588
0.0333975
0.0308962
0.0380993
0.0477942
0.0571734
0.0651651
0.0714155
0.0758602
0.078501
0.0793181
0.0783354
0.0756286
0.071357
0.0658168
0.0594817
0.0529543
0.0468525
0.041676
0.0377713
0.0353855
0.0347504
0.0360765
0.0398239
0.0464458
0.0560538
0.0682238
0.0819085
0.0956497
0.108035
0.118128
0.125632
0.130763
0.134001
0.13586
0.136782
0.137123
0.137104
0.136816
0.136317
0.135668
0.134923
0.134139
0.133385
0.132736
0.132313
0.132192
0.132347
0.132706
0.133056
0.13315
0.132787
0.131838
0.130247
0.128018
0.125173
0.12172
0.117605
0.112709
0.106888
0.100057
0.0922793
0.0838058
0.0750662
0.066601
0.0589615
0.0526102
0.0478669
0.0449288
0.0439199
0.044837
0.0473115
0.0503453
0.0523933
0.0520237
0.0488708
0.0441964
0.0405348
0.040477
0.0452787
0.0540343
0.0638885
0.0714072
0.0737909
0.0702134
0.0656722
0.0650933
0.0660132
0.0637168
0.056808
0.0469909
0.0368345
0.0283636
0.0228593
0.0210599
0.0229547
0.0288968
0.034484
0.05068
0.123882
0.102777
0.0755498
0.0683878
0.0720971
0.0790727
0.0861672
0.0923255
0.097283
0.100996
0.103409
0.104493
0.104288
0.102847
0.100232
0.0965438
0.0919797
0.0868739
0.0816994
0.0770042
0.0733282
0.0711495
0.0708579
0.0727804
0.0770705
0.0836328
0.09201
0.101394
0.110787
0.119274
0.126253
0.131519
0.13519
0.137548
0.138905
0.139536
0.139662
0.139505
0.139195
0.138744
0.138183
0.137558
0.136917
0.136295
0.135721
0.135225
0.134836
0.13456
0.134346
0.134128
0.133777
0.133147
0.13211
0.130578
0.128511
0.125906
0.122761
0.119025
0.114578
0.109248
0.102889
0.0954651
0.0871191
0.0781836
0.0691394
0.0605366
0.0528971
0.0466262
0.0419688
0.0390469
0.0379445
0.0386996
0.0410766
0.0442412
0.0467446
0.0471307
0.0449198
0.0412306
0.0384568
0.0390614
0.044191
0.0529909
0.0628504
0.0704762
0.0731716
0.0705331
0.0664466
0.0647866
0.0643275
0.0614465
0.0546522
0.0451541
0.0352447
0.0269049
0.0214321
0.0195742
0.0214308
0.0274102
0.0330215
0.049471
0.140999
0.131385
0.116401
0.10749
0.105889
0.108042
0.111444
0.11493
0.118
0.12038
0.12193
0.12268
0.122722
0.122127
0.120937
0.119182
0.116917
0.114259
0.111433
0.108764
0.106655
0.10551
0.105672
0.107365
0.110474
0.114737
0.119712
0.124851
0.129642
0.13372
0.136919
0.139241
0.140785
0.141676
0.142033
0.141965
0.141583
0.141056
0.140496
0.139865
0.139179
0.138485
0.137823
0.137216
0.136666
0.136169
0.13571
0.13526
0.134764
0.134148
0.133319
0.13218
0.130649
0.128673
0.126229
0.123298
0.119824
0.115684
0.110702
0.104705
0.0976062
0.0894786
0.0805774
0.0713125
0.0621871
0.0537193
0.0463619
0.0404331
0.0360831
0.0333402
0.0322233
0.0327868
0.0349297
0.0380293
0.0408108
0.0418584
0.0405962
0.0379731
0.0361937
0.0375532
0.0431011
0.0519916
0.0618024
0.0694551
0.072488
0.0706609
0.0668692
0.0642688
0.0625287
0.0590016
0.0522321
0.043025
0.0333931
0.0252287
0.0198073
0.0178735
0.0196322
0.0255246
0.0309501
0.0475908
0.150908
0.14598
0.1387
0.132363
0.12916
0.128561
0.1294
0.130783
0.132135
0.133163
0.133818
0.13415
0.134207
0.134017
0.133598
0.132965
0.132143
0.131175
0.130146
0.129189
0.128483
0.128219
0.128561
0.129572
0.131176
0.133218
0.13548
0.137731
0.139777
0.141489
0.142807
0.143718
0.144231
0.144364
0.14414
0.143599
0.142815
0.141952
0.141137
0.140293
0.139427
0.138589
0.13782
0.137135
0.136521
0.135946
0.135372
0.134752
0.134023
0.133099
0.131903
0.130372
0.128459
0.126129
0.123342
0.12002
0.116036
0.111214
0.105388
0.0984656
0.0905005
0.0817117
0.0724594
0.0631879
0.0543624
0.0464134
0.0396859
0.0343916
0.0305823
0.0281905
0.0271537
0.0275118
0.0292778
0.0320677
0.0348608
0.0363709
0.0359729
0.0344344
0.0337232
0.0359199
0.0419646
0.0510408
0.0608612
0.068558
0.0718821
0.0705642
0.0668161
0.0633266
0.0604049
0.056234
0.049466
0.0405689
0.0312713
0.0233396
0.018002
0.0160041
0.0176299
0.02331
0.0283584
0.0451334
0.157041
0.153993
0.150007
0.146026
0.14317
0.141668
0.141129
0.141075
0.141204
0.141356
0.141477
0.141543
0.14154
0.141462
0.141309
0.141091
0.140824
0.140536
0.140261
0.140047
0.139948
0.140023
0.140313
0.140827
0.141561
0.142449
0.143408
0.144348
0.145191
0.14587
0.146339
0.146564
0.146519
0.146185