/*--------------------------------*- C++ -*----------------------------------*\
  =========                 |
  \\      /  F ield         | OpenFOAM: The Open Source CFD Toolbox
   \\    /   O peration     | Website:  https://openfoam.org
    \\  /    A nd           | Version:  10
     \\/     M anipulation  |
\*---------------------------------------------------------------------------*/
FoamFile
{
    format      ascii;
    class       volScalarField;
    location    "0.115";
    object      p;
}
// * * * * * * * * * * * * * * * * * * * * * * * * * * * * * * * * * * * * * //

dimensions      [0 2 -2 0 0 0 0];

internalField   nonuniform List<scalar> 
6820
(
-10.5143
-10.8166
-10.862
-10.8767
-10.9075
-10.9306
-10.9464
-10.9593
-10.9697
-10.9776
-10.9831
-10.9865
-10.9877
-10.9867
-10.9835
-10.9779
-10.97
-10.9594
-10.9462
-10.9303
-10.9114
-10.8896
-10.8649
-10.8374
-10.8073
-10.7749
-10.7407
-10.7053
-10.6696
-10.634
-10.6011
-10.5624
-10.5572
-10.716
-10.8408
-10.8767
-10.8915
-10.9166
-10.9367
-10.9511
-10.963
-10.973
-10.9806
-10.9861
-10.9896
-10.991
-10.9904
-10.9877
-10.9828
-10.9756
-10.9661
-10.954
-10.9394
-10.922
-10.9021
-10.8794
-10.8542
-10.8267
-10.7972
-10.7663
-10.7347
-10.7033
-10.6739
-10.6474
-10.6324
-10.6316
-10.716
-10.8012
-10.8591
-10.885
-10.9122
-10.9352
-10.9519
-10.9656
-10.9768
-10.9855
-10.992
-10.9964
-10.9989
-10.9993
-10.9978
-10.9943
-10.9887
-10.9811
-10.9714
-10.9598
-10.9461
-10.9305
-10.9134
-10.8949
-10.8755
-10.856
-10.8373
-10.8205
-10.8079
-10.8017
-10.8085
-10.8341
-10.9121
-10.7731
-10.8428
-10.8902
-10.9098
-10.9306
-10.9496
-10.9638
-10.9754
-10.9851
-10.9927
-10.9984
-11.0023
-11.0045
-11.0048
-11.0034
-11.0002
-10.9952
-10.9883
-10.9797
-10.9694
-10.9574
-10.9441
-10.9296
-10.9144
-10.8992
-10.8848
-10.8725
-10.8639
-10.8617
-10.8692
-10.8933
-10.9413
-11.0372
-10.8034
-10.8421
-10.8807
-10.9031
-10.9251
-10.9454
-10.9613
-10.9744
-10.9854
-10.9942
-11.0011
-11.0061
-11.0093
-11.0108
-11.0106
-11.0087
-11.0052
-11.0001
-10.9934
-10.9854
-10.9761
-10.9659
-10.9552
-10.9445
-10.9345
-10.9264
-10.9213
-10.9213
-10.9291
-10.9483
-10.9853
-11.0463
-11.149
-10.8337
-10.8643
-10.9013
-10.9241
-10.9437
-10.9616
-10.9758
-10.9875
-10.9973
-11.0052
-11.0114
-11.016
-11.019
-11.0204
-11.0204
-11.0189
-11.0161
-11.0119
-11.0065
-11
-10.9927
-10.9849
-10.977
-10.9697
-10.9638
-10.9603
-10.9607
-10.967
-10.9819
-11.0087
-11.053
-11.1196
-11.2204
-10.8593
-10.8791
-10.9074
-10.927
-10.9444
-10.9613
-10.9755
-10.9876
-10.998
-11.0066
-11.0137
-11.0191
-11.0232
-11.0258
-11.027
-11.0269
-11.0256
-11.0231
-11.0197
-11.0154
-11.0107
-11.0059
-11.0014
-10.998
-10.9965
-10.9979
-11.0038
-11.016
-11.0369
-11.0695
-11.1181
-11.1861
-11.2808
-10.8821
-10.8967
-10.9214
-10.9411
-10.9583
-10.9745
-10.9883
-11
-11.0099
-11.0183
-11.0251
-11.0306
-11.0347
-11.0374
-11.039
-11.0395
-11.039
-11.0376
-11.0355
-11.0329
-11.0302
-11.0276
-11.0259
-11.0255
-11.0273
-11.0325
-11.0424
-11.0586
-11.0833
-11.1188
-11.1681
-11.2338
-11.3195
-10.9029
-10.9133
-10.9332
-10.9503
-10.9653
-10.9797
-10.9926
-11.0038
-11.0136
-11.0221
-11.0293
-11.0353
-11.0401
-11.0438
-11.0465
-11.0483
-11.0492
-11.0494
-11.0492
-11.0487
-11.0482
-11.0483
-11.0495
-11.0522
-11.0575
-11.0663
-11.0797
-11.0992
-11.1265
-11.1634
-11.2119
-11.2733
-11.3494
-10.9221
-10.9299
-10.9464
-10.9622
-10.9766
-10.9906
-11.0033
-11.0145
-11.0243
-11.033
-11.0404
-11.0466
-11.0518
-11.0561
-11.0595
-11.062
-11.0639
-11.0654
-11.0665
-11.0676
-11.069
-11.0712
-11.0746
-11.0799
-11.0877
-11.099
-11.1148
-11.1363
-11.1646
-11.2011
-11.2469
-11.3027
-11.3687
-10.94
-10.9459
-10.9596
-10.9735
-10.9865
-10.9991
-11.0109
-11.0214
-11.031
-11.0396
-11.0471
-11.0538
-11.0595
-11.0644
-11.0687
-11.0723
-11.0754
-11.0783
-11.0811
-11.084
-11.0875
-11.0918
-11.0975
-11.1052
-11.1154
-11.129
-11.1467
-11.1695
-11.1982
-11.2335
-11.2761
-11.326
-11.3826
-10.9568
-10.9615
-10.9729
-10.9855
-10.9975
-11.0095
-11.0209
-11.0315
-11.0411
-11.0499
-11.0578
-11.0648
-11.0712
-11.0768
-11.0819
-11.0865
-11.0907
-11.0948
-11.099
-11.1034
-11.1086
-11.1147
-11.1222
-11.1317
-11.1437
-11.1588
-11.1776
-11.2007
-11.2288
-11.2622
-11.3009
-11.3447
-11.3926
-10.9729
-10.9767
-10.9863
-10.9975
-11.0085
-11.0196
-11.0303
-11.0404
-11.0498
-11.0585
-11.0666
-11.0739
-11.0807
-11.087
-11.0928
-11.0983
-11.1037
-11.109
-11.1146
-11.1206
-11.1273
-11.1352
-11.1445
-11.1557
-11.1692
-11.1855
-11.205
-11.2282
-11.2554
-11.2866
-11.3216
-11.3599
-11.4003
-10.9884
-10.9915
-10.9997
-11.0096
-11.0198
-11.0303
-11.0406
-11.0506
-11.06
-11.0689
-11.0773
-11.0852
-11.0925
-11.0995
-11.1062
-11.1127
-11.1191
-11.1257
-11.1325
-11.1399
-11.1481
-11.1574
-11.1681
-11.1805
-11.1951
-11.2121
-11.2319
-11.2547
-11.2806
-11.3094
-11.3408
-11.3741
-11.4081
-11.0032
-11.0059
-11.013
-11.0219
-11.0313
-11.0411
-11.051
-11.0607
-11.07
-11.0789
-11.0875
-11.0957
-11.1035
-11.1111
-11.1185
-11.1258
-11.1332
-11.1409
-11.1489
-11.1575
-11.167
-11.1776
-11.1895
-11.2031
-11.2186
-11.2361
-11.256
-11.2783
-11.3028
-11.3295
-11.3578
-11.3869
-11.4158
-11.0176
-11.02
-11.0262
-11.0342
-11.043
-11.0523
-11.0618
-11.0713
-11.0807
-11.0898
-11.0986
-11.1073
-11.1157
-11.124
-11.1322
-11.1404
-11.1488
-11.1575
-11.1667
-11.1765
-11.1871
-11.1988
-11.2118
-11.2262
-11.2423
-11.2602
-11.2799
-11.3015
-11.3248
-11.3494
-11.3749
-11.4006
-11.4255
-11.0316
-11.0337
-11.0392
-11.0466
-11.0548
-11.0636
-11.0728
-11.0822
-11.0914
-11.1007
-11.1098
-11.1187
-11.1276
-11.1365
-11.1454
-11.1544
-11.1637
-11.1733
-11.1835
-11.1943
-11.206
-11.2187
-11.2325
-11.2477
-11.2642
-11.2823
-11.3018
-11.3228
-11.3449
-11.3679
-11.3913
-11.4144
-11.4364
-11.0453
-11.0471
-11.0521
-11.0589
-11.0666
-11.0751
-11.084
-11.0933
-11.1026
-11.112
-11.1214
-11.1308
-11.1402
-11.1497
-11.1593
-11.1691
-11.1793
-11.1899
-11.201
-11.2128
-11.2254
-11.2389
-11.2535
-11.2693
-11.2862
-11.3044
-11.3237
-11.3441
-11.3653
-11.387
-11.4087
-11.4299
-11.45
-11.0585
-11.0602
-11.0648
-11.0711
-11.0785
-11.0866
-11.0954
-11.1045
-11.1139
-11.1235
-11.1331
-11.1429
-11.1528
-11.1628
-11.1731
-11.1837
-11.1946
-11.206
-11.218
-11.2306
-11.244
-11.2583
-11.2735
-11.2898
-11.307
-11.3253
-11.3444
-11.3644
-11.3849
-11.4056
-11.4262
-11.4462
-11.4651
-11.0715
-11.073
-11.0773
-11.0833
-11.0903
-11.0982
-11.1069
-11.116
-11.1254
-11.1351
-11.1451
-11.1553
-11.1656
-11.1763
-11.1872
-11.1985
-11.2102
-11.2223
-11.2351
-11.2485
-11.2627
-11.2777
-11.2935
-11.3101
-11.3277
-11.3461
-11.3651
-11.3848
-11.4048
-11.425
-11.4449
-11.4642
-11.4826
-11.0841
-11.0856
-11.0896
-11.0953
-11.1021
-11.1098
-11.1184
-11.1275
-11.137
-11.1469
-11.1572
-11.1677
-11.1786
-11.1898
-11.2013
-11.2132
-11.2256
-11.2385
-11.2519
-11.2661
-11.2809
-11.2964
-11.3128
-11.3299
-11.3477
-11.3662
-11.3853
-11.4048
-11.4246
-11.4444
-11.4641
-11.4832
-11.5017
-11.0964
-11.0978
-11.1016
-11.1071
-11.1137
-11.1214
-11.1299
-11.139
-11.1487
-11.1588
-11.1694
-11.1803
-11.1916
-11.2033
-11.2154
-11.2279
-11.2409
-11.2545
-11.2686
-11.2834
-11.2988
-11.315
-11.3318
-11.3493
-11.3674
-11.3861
-11.4053
-11.4248
-11.4446
-11.4644
-11.484
-11.5034
-11.5222
-11.1083
-11.1096
-11.1134
-11.1187
-11.1252
-11.1328
-11.1413
-11.1505
-11.1603
-11.1707
-11.1816
-11.1929
-11.2046
-11.2168
-11.2294
-11.2426
-11.2562
-11.2704
-11.2852
-11.3005
-11.3165
-11.3332
-11.3504
-11.3683
-11.3868
-11.4057
-11.4251
-11.4448
-11.4647
-11.4847
-11.5046
-11.5243
-11.5437
-11.1198
-11.1212
-11.1248
-11.1301
-11.1365
-11.1441
-11.1526
-11.1619
-11.1719
-11.1825
-11.1937
-11.2053
-11.2175
-11.2301
-11.2433
-11.257
-11.2712
-11.2859
-11.3012
-11.3172
-11.3337
-11.3508
-11.3685
-11.3868
-11.4056
-11.4248
-11.4445
-11.4644
-11.4846
-11.5049
-11.5253
-11.5456
-11.5658
-11.1309
-11.1323
-11.1359
-11.1411
-11.1475
-11.1551
-11.1637
-11.1732
-11.1834
-11.1943
-11.2057
-11.2178
-11.2304
-11.2435
-11.2572
-11.2714
-11.2861
-11.3014
-11.3173
-11.3338
-11.3508
-11.3684
-11.3865
-11.4052
-11.4243
-11.4439
-11.4639
-11.4842
-11.5048
-11.5255
-11.5464
-11.5673
-11.5883
-11.1416
-11.1429
-11.1465
-11.1517
-11.1582
-11.1659
-11.1746
-11.1842
-11.1946
-11.2057
-11.2174
-11.2298
-11.2428
-11.2564
-11.2705
-11.2851
-11.3004
-11.3162
-11.3325
-11.3495
-11.3669
-11.385
-11.4035
-11.4226
-11.4421
-11.4621
-11.4825
-11.5031
-11.5241
-11.5453
-11.5668
-11.5884
-11.6103
-11.1517
-11.153
-11.1567
-11.162
-11.1685
-11.1763
-11.1852
-11.195
-11.2057
-11.2171
-11.2292
-11.242
-11.2554
-11.2694
-11.284
-11.2991
-11.3149
-11.3312
-11.348
-11.3654
-11.3833
-11.4018
-11.4208
-11.4402
-11.4602
-11.4805
-11.5012
-11.5223
-11.5437
-11.5654
-11.5874
-11.6097
-11.6323
-11.1612
-11.1626
-11.1663
-11.1716
-11.1783
-11.1862
-11.1952
-11.2052
-11.2161
-11.2277
-11.2401
-11.2532
-11.267
-11.2813
-11.2963
-11.3119
-11.328
-11.3448
-11.362
-11.3799
-11.3982
-11.4171
-11.4365
-11.4563
-11.4766
-11.4974
-11.5185
-11.54
-11.5619
-11.5841
-11.6066
-11.6295
-11.6527
-11.1701
-11.1715
-11.1753
-11.1808
-11.1877
-11.1958
-11.2051
-11.2154
-11.2267
-11.2387
-11.2515
-11.265
-11.2791
-11.2939
-11.3093
-11.3253
-11.3419
-11.3591
-11.3768
-11.395
-11.4137
-11.433
-11.4527
-11.4729
-11.4936
-11.5146
-11.5361
-11.558
-11.5802
-11.6028
-11.6257
-11.6491
-11.6728
-11.1782
-11.1796
-11.1835
-11.1891
-11.1961
-11.2043
-11.2138
-11.2243
-11.2357
-11.248
-11.261
-11.2748
-11.2893
-11.3045
-11.3202
-11.3366
-11.3536
-11.3711
-11.3892
-11.4079
-11.427
-11.4467
-11.4668
-11.4874
-11.5084
-11.5298
-11.5517
-11.5739
-11.5965
-11.6195
-11.6429
-11.6666
-11.6908
-11.1854
-11.1869
-11.1911
-11.1971
-11.2045
-11.2132
-11.2231
-11.234
-11.2458
-11.2585
-11.2719
-11.2861
-11.301
-11.3165
-11.3326
-11.3494
-11.3667
-11.3846
-11.403
-11.4219
-11.4414
-11.4613
-11.4817
-11.5025
-11.5238
-11.5454
-11.5675
-11.59
-11.6128
-11.636
-11.6596
-11.6836
-11.708
-11.1915
-11.193
-11.1972
-11.2032
-11.2107
-11.2195
-11.2295
-11.2407
-11.2527
-11.2657
-11.2795
-11.294
-11.3092
-11.3251
-11.3416
-11.3588
-11.3765
-11.3948
-11.4136
-11.4329
-11.4528
-11.4731
-11.4938
-11.515
-11.5366
-11.5587
-11.581
-11.6038
-11.6269
-11.6504
-11.6742
-11.6984
-11.7229
-11.1966
-11.1985
-11.2035
-11.2103
-11.2184
-11.2279
-11.2385
-11.2501
-11.2626
-11.2759
-11.29
-11.3048
-11.3203
-11.3364
-11.3532
-11.3705
-11.3884
-11.4069
-11.4259
-11.4454
-11.4654
-11.4858
-11.5067
-11.528
-11.5497
-11.5719
-11.5943
-11.6172
-11.6404
-11.6639
-11.6878
-11.7119
-11.7364
-11.1996
-11.2011
-11.2058
-11.2126
-11.221
-11.2307
-11.2416
-11.2536
-11.2665
-11.2803
-11.2949
-11.3101
-11.3261
-11.3428
-11.36
-11.3778
-11.3962
-11.4152
-11.4346
-11.4546
-11.475
-11.4958
-11.5171
-11.5387
-11.5608
-11.5832
-11.6059
-11.629
-11.6524
-11.676
-11.6999
-11.7241
-11.7485
-11.2026
-11.2056
-11.212
-11.2199
-11.2291
-11.2395
-11.2509
-11.2631
-11.2762
-11.2901
-11.3047
-11.32
-11.336
-11.3526
-11.3699
-11.3877
-11.4061
-11.425
-11.4444
-11.4644
-11.4848
-11.5056
-11.5268
-11.5485
-11.5705
-11.5929
-11.6156
-11.6387
-11.662
-11.6856
-11.7094
-11.7335
-11.7578
-11.1993
-11.2008
-11.2071
-11.2159
-11.2258
-11.2371
-11.2497
-11.2629
-11.2768
-11.2915
-11.307
-11.3231
-11.3398
-11.3571
-11.375
-11.3935
-11.4125
-11.4319
-11.4519
-11.4723
-11.4932
-11.5144
-11.536
-11.558
-11.5803
-11.6029
-11.6258
-11.6489
-11.6722
-11.6958
-11.7194
-11.7433
-11.7673
-11.2014
-11.2074
-11.2167
-11.226
-11.2361
-11.2473
-11.2589
-11.2718
-11.2854
-11.2998
-11.3147
-11.3305
-11.3469
-11.3639
-11.3815
-11.3997
-11.4184
-11.4377
-11.4575
-11.4777
-11.4984
-11.5195
-11.541
-11.5629
-11.5851
-11.6077
-11.6305
-11.6537
-11.6771
-11.7007
-11.7245
-11.7484
-11.7723
-11.1821
-11.1869
-11.1997
-11.2124
-11.2253
-11.2393
-11.2537
-11.2686
-11.284
-11.2997
-11.3162
-11.3331
-11.3504
-11.3683
-11.3868
-11.4057
-11.425
-11.4449
-11.4652
-11.4859
-11.507
-11.5285
-11.5503
-11.5724
-11.5947
-11.6173
-11.6401
-11.663
-11.6861
-11.7093
-11.7326
-11.756
-11.7794
-11.1951
-11.2054
-11.2167
-11.2262
-11.2372
-11.2491
-11.2615
-11.2746
-11.2886
-11.3033
-11.3187
-11.3347
-11.3514
-11.3687
-11.3866
-11.4051
-11.4242
-11.4438
-11.4638
-11.4842
-11.5051
-11.5265
-11.5482
-11.5702
-11.5927
-11.6155
-11.6386
-11.6622
-11.6861
-11.71
-11.7337
-11.7574
-11.781
-11.0979
-11.1653
-11.192
-11.2067
-11.225
-11.2425
-11.2585
-11.2743
-11.2905
-11.3069
-11.3236
-11.3408
-11.3584
-11.3765
-11.3951
-11.4142
-11.4338
-11.4537
-11.4741
-11.4949
-11.516
-11.5375
-11.5592
-11.5812
-11.6033
-11.6256
-11.6479
-11.6703
-11.6926
-11.7152
-11.7382
-11.7614
-11.7845
-10.4603
-11.4427
-12.1885
-12.9501
-13.744
-15.0336
-17.18
-18.4872
-16.0763
-10.3449
-4.51194
-0.978199
-0.201953
-0.494393
-1.59671
-4.27123
-8.14743
-12.9661
-18.51
-24.5119
-30.6733
-36.6531
-42.0219
-46.2544
-48.8201
-49.3504
-47.7296
-44.2422
-39.5071
-34.2071
-28.8045
-23.4585
-18.1967
-13.1112
-8.4223
-4.40194
-1.27829
0.819925
1.78832
1.48522
-0.341866
-4.13853
-10.1345
-17.866
-26.2588
-34.1226
-40.5
-44.7298
-46.4566
-45.5342
-42.1566
-36.8839
-30.6121
-24.2759
-18.5413
-13.7268
-9.88785
-6.9359
-4.73178
-3.13062
-1.9979
-1.21691
-0.691324
-0.345032
-0.12105
0.0211294
0.109017
0.160904
0.188937
0.201255
0.203315
0.198777
0.190092
0.178902
0.166423
0.15351
0.14078
0.128751
0.117701
0.107475
0.0976854
0.0882246
0.0791975
0.0708139
0.0631908
0.0563302
0.0501755
0.044551
0.0393261
0.0343343
0.0295439
0.0248923
0.020561
0.0163666
0.0129916
0.00928925
0.00785552
0.00322618
0.00659477
-0.00580941
-10.821
-11.6269
-12.2967
-13.0073
-13.7465
-14.8548
-16.4804
-17.1511
-14.725
-9.74376
-4.86078
-1.92718
-0.764924
-0.267632
-1.47925
-4.36506
-8.11484
-12.6837
-17.9395
-23.617
-29.4234
-35.0301
-40.0318
-43.9515
-46.32
-46.8189
-45.3558
-42.2094
-37.9341
-33.0826
-27.9999
-22.8475
-17.7491
-12.8874
-8.48317
-4.74318
-1.83944
0.111203
1.00047
0.692076
-1.02852
-4.46696
-9.8075
-16.7086
-24.2963
-31.5079
-37.4238
-41.3727
-42.9893
-42.1578
-39.1051
-34.4009
-28.8467
-23.2036
-18.0085
-13.5544
-9.93352
-7.1043
-4.96163
-3.38265
-2.24798
-1.45144
-0.903735
-0.533246
-0.285567
-0.121466
-0.0138267
0.0556326
0.099187
0.125128
0.139072
0.144833
0.145001
0.141363
0.135254
0.127655
0.119306
0.110817
0.102583
0.0946268
0.0867545
0.0789594
0.0713848
0.0642522
0.0576968
0.0517465
0.0463706
0.0414222
0.0367898
0.0323289
0.0280084
0.0237736
0.0197897
0.0158951
0.0127138
0.00920213
0.00775079
0.0033338
0.00631377
-0.00534008
-11.076
-11.6063
-12.1778
-12.796
-13.4688
-14.3142
-15.2788
-15.3927
-13.3473
-9.52807
-5.66059
-3.00062
-1.60904
-1.29066
-2.25744
-4.7352
-8.3133
-12.5972
-17.4892
-22.7911
-28.2109
-33.4204
-38.0414
-41.6462
-43.8185
-44.2939
-43.0034
-40.2127
-36.3859
-31.9326
-27.1233
-22.1632
-17.275
-12.6887
-8.58822
-5.12222
-2.42782
-0.617439
0.195788
-0.113306
-1.72782
-4.85841
-9.62025
-15.7392
-22.5078
-29.0166
-34.4162
-38.0514
-39.5724
-38.8786
-36.2137
-32.1121
-27.2457
-22.2263
-17.5096
-13.3832
-9.97005
-7.26317
-5.18432
-3.63026
-2.49611
-1.68601
-1.11764
-0.72389
-0.453011
-0.267119
-0.13964
-0.0523999
0.0069466
0.0468103
0.0729312
0.0892489
0.0984883
0.102578
0.102988
0.10084
0.097024
0.0922541
0.0870233
0.0815118
0.0756798
0.0696062
0.063496
0.0576041
0.0520935
0.047021
0.0423787
0.0380476
0.0339373
0.0299319
0.0260108
0.0221368
0.0184668
0.0148679
0.0119091
0.00865442
0.00728167
0.00320049
0.00589746
-0.00484245
-11.2078
-11.6275
-12.1189
-12.6258
-13.1414
-13.6874
-14.1722
-13.9801
-12.3099
-9.39508
-6.39904
-4.31458
-3.1348
-2.65593
-3.35006
-5.49617
-8.7239
-12.7041
-17.2052
-22.0666
-27.0536
-31.8486
-36.0874
-39.3841
-41.3651
-41.8227
-40.7213
-38.2903
-34.8628
-30.7297
-26.1519
-21.4123
-16.7999
-12.53
-8.73604
-5.53066
-3.03474
-1.35969
-0.619348
-0.92734
-2.4377
-5.29745
-9.55351
-14.9633
-20.9453
-26.739
-31.5957
-34.9078
-36.3489
-35.8303
-33.5846
-30.0638
-25.8092
-21.328
-17.032
-13.2079
-9.996
-7.41186
-5.39911
-3.87272
-2.74172
-1.92023
-1.33279
-0.916803
-0.62327
-0.415778
-0.268403
-0.163172
-0.0877482
-0.0336556
0.00494242
0.0320988
0.0506646
0.0627058
0.0698247
0.0732787
0.0740955
0.0731063
0.0709197
0.0678789
0.0641132
0.0598078
0.0552245
0.0506425
0.0462486
0.0421272
0.0382943
0.0346614
0.0311591
0.0276955
0.024255
0.0208102
0.0175026
0.0142227
0.0114804
0.00844661
0.00708679
0.00325858
0.005588
-0.00435044
-11.3162
-11.6477
-12.0448
-12.4498
-12.8441
-13.2064
-13.4207
-13.0741
-11.6733
-9.37872
-6.99177
-5.23395
-4.2613
-3.93656
-4.5642
-6.43481
-9.31821
-12.9425
-17.0825
-21.5095
-26.0208
-30.3602
-34.1996
-37.1885
-38.9975
-39.4655
-38.5713
-36.4595
-33.3324
-29.4367
-25.0861
-20.6291
-16.3506
-12.4146
-8.91878
-5.96117
-3.6561
-2.11342
-1.44291
-1.74688
-3.15173
-5.76396
-9.58058
-14.3711
-19.6429
-24.759
-29.0811
-32.0761
-33.4518
-33.1188
-31.2642
-28.2483
-24.5107
-20.4909
-16.5714
-13.0299
-10.0126
-7.55047
-5.6056
-4.10955
-2.98437
-2.15372
-1.54886
-1.11173
-0.796148
-0.567286
-0.399987
-0.276584
-0.18482
-0.116204
-0.0648391
-0.0265799
0.0015399
0.0217212
0.0357039
0.0448924
0.050461
0.0533765
0.0543683
0.0539202
0.0523171
0.0498395
0.0468093
0.0435463
0.0402693
0.0370938
0.0340593
0.0311059
0.0281833
0.0252232
0.0222201
0.0191627
0.016185
0.013208
0.0106881
0.00790767
0.00661662
0.00311988
0.00515507
-0.00386518
-11.3754
-11.6432
-11.9668
-12.2922
-12.5864
-12.8021
-12.827
-12.3919
-11.2031
-9.38001
-7.47674
-6.03824
-5.25205
-5.08648
-5.71534
-7.35718
-9.93623
-13.2364
-17.0297
-21.087
-25.1779
-29.0709
-32.5015
-35.1784
-36.8439
-37.3612
-36.6189
-34.6821
-31.7235
-28.0282
-23.9605
-19.8592
-15.9469
-12.3421
-9.1306
-6.40867
-4.28766
-2.87372
-2.26925
-2.56606
-3.86501
-6.24401
-9.67247
-13.9296
-18.5871
-23.1028
-26.9379
-29.6414
-30.9527
-30.7717
-29.2354
-26.6288
-23.3205
-19.7017
-16.1245
-12.8494
-10.0203
-7.67898
-5.80353
-4.3404
-3.2237
-2.38616
-1.76559
-1.30846
-0.971489
-0.721529
-0.534306
-0.39256
-0.284196
-0.200765
-0.136341
-0.0867086
-0.0487963
-0.0202716
0.000744047
0.0158026
0.0262225
0.0331159
0.0373447
0.0395326
0.0401263
0.0395122
0.0380806
0.0361852
0.034076
0.0318971
0.0297114
0.0274892
0.0252011
0.0228014
0.020292
0.0176741
0.0150685
0.0124223
0.010134
0.00759575
0.00634071
0.00312856
0.00481605
-0.00336261
-11.4192
-11.6363
-11.8922
-12.1405
-12.3436
-12.4505
-12.367
-11.916
-10.9223
-9.47663
-7.96648
-6.79134
-6.14947
-6.08105
-6.70894
-8.18392
-10.4753
-13.454
-16.9276
-20.6596
-24.4137
-27.9579
-31.0546
-33.4688
-34.9987
-35.4385
-34.6831
-32.787
-29.9685
-26.5425
-22.8466
-19.1441
-15.5972
-12.3075
-9.36451
-6.8674
-4.92362
-3.63335
-3.09038
-3.37648
-4.57084
-6.72824
-9.80456
-13.5949
-17.7246
-21.7262
-25.1398
-27.5801
-28.8109
-28.7297
-27.4341
-25.1561
-22.2132
-18.953
-15.6919
-12.6681
-10.02
-7.79777
-5.99289
-4.56505
-3.4594
-2.61722
-1.9827
-1.50678
-1.14911
-0.87836
-0.671237
-0.510993
-0.385777
-0.28724
-0.209471
-0.148205
-0.100276
-0.0632236
-0.0350275
-0.0139803
0.00139073
0.0123515
0.0199071
0.0248182
0.0276777
0.028978
0.0291741
0.0286649
0.0277358
0.0265626
0.0252324
0.023743
0.0220837
0.0202291
0.0181904
0.0159853
0.0137272
0.0113949
0.0093342
0.00705154
0.00586249
0.00298257
0.00437072
-0.00288452
-11.4401
-11.615
-11.8136
-11.9982
-12.1312
-12.1637
-12.0185
-11.5787
-10.7458
-9.59521
-8.40131
-7.46709
-6.96898
-6.97634
-7.59139
-8.91713
-10.9399
-13.5713
-16.6807
-20.0728
-23.5121
-26.7586
-29.5769
-31.7437
-33.0365
-33.3078
-32.5032
-30.7079
-28.1435
-25.0922
-21.8142
-18.5043
-15.2988
-12.3029
-9.61357
-7.33076
-5.55603
-4.38251
-3.89553
-4.16761
-5.25984
-7.20784
-9.95995
-13.3312
-16.9963
-20.5509
-23.5957
-25.7927
-26.9283
-26.9062
-25.7978
-23.7969
-21.1774
-18.2434
-15.2749
-12.4872
-10.0126
-7.90719
-6.17373
-4.78336
-3.69122
-2.84665
-2.19995
-1.70647
-1.32886
-1.03765
-0.810669
-0.631777
-0.489457
-0.375525
-0.284122
-0.21096
-0.15279
-0.107028
-0.0715054
-0.0443564
-0.0239479
-0.00885918
0.00207187
0.00975096
0.0149081
0.0181512
0.0200069
0.0209184
0.0212057
0.0210748
0.0206359
0.0199147
0.0189206
0.0176492
0.0161204
0.0143661
0.0124891
0.0104963
0.00867784
0.00665255
0.00551671
0.00294549
0.00400307
-0.00237715
-11.4522
-11.5921
-11.7435
-11.8753
-11.9531
-11.9341
-11.759
-11.3528
-10.6643
-9.75679
-8.82564
-8.09737
-7.72666
-7.79383
-8.3866
-9.57855
-11.3591
-13.6591
-16.3734
-19.3526
-22.4026
-25.2985
-27.8059
-29.6943
-30.7705
-30.9446
-30.2077
-28.6422
-26.4273
-23.7784
-20.8931
-17.9363
-15.0416
-12.3197
-9.87046
-7.79098
-6.17591
-5.11137
-4.67467
-4.92981
-5.923
-7.67458
-10.1281
-13.1177
-16.3627
-19.5145
-22.2236
-24.1928
-25.2295
-25.2462
-24.2952
-22.5386
-20.2104
-17.5737
-14.8747
-12.3079
-9.99884
-8.00778
-6.34624
-4.99528
-3.919
-3.07425
-2.41715
-1.90739
-1.5106
-1.19928
-0.952479
-0.754787
-0.595108
-0.465486
-0.360162
-0.274848
-0.206224
-0.151583
-0.108607
-0.075261
-0.0497419
-0.0304665
-0.0161058
-0.00560417
0.00189576
0.00711643
0.0106573
0.0130094
0.01453
0.015457
0.0159238
0.0159813
0.0156578
0.0149675
0.0139393
0.0126212
0.0111088
0.00944169
0.00785827
0.00609366
0.00502546
0.00279033
0.00354826
-0.001901
-11.4548
-11.5654
-11.6782
-11.7682
-11.8057
-11.7553
-11.5731
-11.2114
-10.6467
-9.93261
-9.21258
-8.65906
-8.40343
-8.52482
-9.09574
-10.1724
-11.7459
-13.7562
-16.1113
-18.6832
-21.311
-23.807
-25.9677
-27.5964
-28.5422
-28.7232
-28.1264
-26.8153
-24.924
-22.6195
-20.069
-17.4243
-14.8151
-12.3506
-10.1284
-8.24061
-6.77527
-5.8118
-5.41996
-5.65563
-6.55349
-8.12175
-10.3017
-12.9442
-15.807
-18.5903
-20.9902
-22.7479
-23.6891
-23.7336
-22.9188
-21.3785
-19.3112
-16.9436
-14.4918
-12.131
-9.97971
-8.10014
-6.51074
-5.20088
-4.14269
-3.29991
-2.63419
-2.10941
-1.69421
-1.36313
-1.09655
-0.879895
-0.702588
-0.556975
-0.437437
-0.339717
-0.260432
-0.196754
-0.146209
-0.106584
-0.0758991
-0.0523975
-0.0345811
-0.0212346
-0.0113692
-0.00415328
0.00109207
0.00490734
0.00768646
0.00969799
0.0110973
0.0119594
0.0123325
0.01225
0.0117497
0.0108947
0.00977208
0.00845174
0.00711854
0.00562227
0.0046202
0.00271215
0.00315489
-0.00139319
-11.4538
-11.5404
-11.6228
-11.6811
-11.6906
-11.6232
-11.4475
-11.1347
-10.6778
-10.1228
-9.5766
-9.16996
-9.01187
-9.17623
-9.72378
-10.6976
-12.0919
-13.8556
-15.9066
-18.1327
-20.3951
-22.5362
-24.3901
-25.802
-26.6442
-26.8313
-26.3427
-25.229
-23.5941
-21.5751
-19.3172
-16.9566
-14.6131
-12.3903
-10.3815
-8.67347
-7.34788
-6.47781
-6.12585
-6.34023
-7.14689
-8.54461
-10.4748
-12.8033
-15.3209
-17.7699
-19.8881
-21.4505
-22.2995
-22.362
-21.663
-20.3121
-18.4767
-16.3516
-14.1261
-11.9574
-9.95614
-8.18501
-6.66763
-5.40035
-4.36234
-3.5236
-2.851
-2.31246
-1.87962
-1.52911
-1.24277
-1.00696
-0.811739
-0.649816
-0.515767
-0.405388
-0.315246
-0.24239
-0.18418
-0.138219
-0.102332
-0.0745801
-0.0532914
-0.037083
-0.0248303
-0.0156019
-0.0086363
-0.00334195
0.00071223
0.00382554
0.00617447
0.00785585
0.00893638
0.00946644
0.00949247
0.00909342
0.00835007
0.00736567
0.00627473
0.00504487
0.00411411
0.00254722
0.00269424
-0.000919257
-11.4508
-11.5178
-11.5768
-11.6118
-11.6032
-11.5296
-11.3693
-11.1061
-10.7424
-10.3173
-9.91191
-9.62654
-9.55032
-9.74873
-10.2724
-11.1542
-12.3899
-13.9381
-15.7278
-17.6619
-19.6205
-21.4692
-23.0687
-24.288
-25.0173
-25.1849
-24.7714
-23.8137
-22.3937
-20.6244
-18.6297
-16.5293
-14.4321
-12.4347
-10.6251
-9.08475
-7.88907
-7.10491
-6.78821
-6.9802
-7.70015
-8.93977
-10.6423
-12.6879
-14.8951
-17.0433
-18.906
-20.2879
-21.0483
-21.1201
-20.5186
-19.3327
-17.7031
-15.7964
-13.7779
-11.788
-9.92914
-8.2632
-6.81749
-5.59404
-4.57811
-3.74542
-3.06764
-2.51657
-2.0668
-1.69716
-1.39102
-1.13584
-0.922381
-0.743809
-0.594942
-0.471654
-0.370468
-0.28831
-0.222362
-0.170027
-0.128927
-0.0969261
-0.0721709
-0.053108
-0.0384711
-0.0272277
-0.0185368
-0.0117528
-0.00640825
-0.00217482
0.00114375
0.00366447
0.00547226
0.0066343
0.00720581
0.00728155
0.00693554
0.00630341
0.00546821
0.00451418
0.00365895
0.00243283
0.00227918
-0.000417617
-11.4478
-11.4996
-11.5412
-11.5603
-11.5417
-11.4696
-11.3297
-11.1143
-10.8305
-10.512
-10.2212
-10.0352
-10.0259
-10.2496
-10.7481
-11.5465
-12.6413
-13.9981
-15.5569
-17.2344
-18.9283
-20.5235
-21.9011
-22.9488
-23.5752
-23.7212
-23.3678
-22.5415
-21.3081
-19.7601
-18.0023
-16.1391
-14.2685
-12.4799
-10.8553
-9.47058
-8.39508
-7.68958
-7.40386
-7.57297
-8.21091
-9.30461
-10.8002
-12.5908
-14.5197
-16.3972
-18.0292
-19.2452
-19.9214
-19.9957
-19.476
-18.4338
-16.9866
-15.2767
-13.4474
-11.6237
-9.89978
-8.33562
-6.96098
-5.78238
-4.79033
-3.96558
-3.28424
-2.72181
-2.25579
-1.86725
-1.54123
-1.26638
-1.03432
-0.838724
-0.674717
-0.53827
-0.425869
-0.334305
-0.260573
-0.201859
-0.155562
-0.119338
-0.0911401
-0.0692442
-0.0522365
-0.0389787
-0.0285596
-0.0202774
-0.0136288
-0.00825967
-0.00395525
-0.000579678
0.00196749
0.00376884
0.00488781
0.00543521
0.00547963
0.00519102
0.00460351
0.00392038
0.0031401
0.0022601
0.00181619
5.35939e-05
-11.4468
-11.4868
-11.5161
-11.525
-11.5024
-11.4369
-11.3199
-11.1489
-10.9335
-10.7024
-10.504
-10.398
-10.4422
-10.6834
-11.1559
-11.879
-12.8488
-14.0365
-15.3913
-16.8423
-18.3024
-19.6738
-20.856
-21.7542
-22.2915
-22.4169
-22.1132
-21.3998
-20.329
-18.9765
-17.4305
-15.7821
-14.1188
-12.5224
-11.0688
-9.82782
-8.86295
-8.22913
-7.97048
-8.11669
-8.67751
-9.6372
-10.9451
-12.5065
-14.186
-15.8211
-17.2449
-18.3096
-18.9063
-18.978
-18.5268
-17.6096
-16.3242
-14.7912
-13.1348
-11.4654
-9.86915
-8.40327
-7.09888
-5.96599
-4.99945
-4.18442
-3.50109
-2.92838
-2.44669
-2.03939
-1.6933
-1.39843
-1.14732
-0.9343
-0.754811
-0.604955
-0.481182
-0.380136
-0.298605
-0.233537
-0.182094
-0.141704
-0.110119
-0.0854357
-0.0660948
-0.0508467
-0.03871
-0.0289335
-0.0209757
-0.0144601
-0.00915616
-0.0049099
-0.00160774
0.000847721
0.00252811
0.00356042
0.004008
0.0040749
0.003746
0.00334292
0.00264427
0.00211514
0.00138135
0.000546469
-11.4478
-11.4794
-11.5005
-11.5041
-11.4819
-11.4265
-11.3331
-11.2024
-11.045
-10.8852
-10.7609
-10.7186
-10.8043
-11.0562
-11.5021
-12.1564
-13.0153
-14.0542
-15.23
-16.4825
-17.7379
-18.9137
-19.925
-20.6922
-21.1508
-21.2566
-20.994
-20.377
-19.447
-18.2662
-16.9089
-15.4541
-13.9796
-12.5595
-11.263
-10.1541
-9.29057
-8.72179
-8.48669
-8.61036
-9.0992
-9.93633
-11.0745
-12.4305
-13.8871
-15.3054
-16.5421
-17.4695
-17.9918
-18.0572
-17.6633
-16.8549
-15.7128
-14.3389
-12.8402
-11.3141
-9.83833
-8.4672
-7.2321
-6.14559
-5.20606
-4.40246
-3.71858
-3.1366
-2.63972
-2.21367
-1.8472
-1.53182
-1.26115
-1.03023
-0.834896
-0.671382
-0.536098
-0.425524
-0.336216
-0.264862
-0.20836
-0.163896
-0.129004
-0.101598
-0.0799708
-0.0627634
-0.0489203
-0.0376485
-0.0283731
-0.0206994
-0.0143822
-0.00925149
-0.00518354
-0.00206732
0.000176553
0.00169133
0.00253602
0.00295003
0.00287101
0.00274063
0.00211879
0.00193928
0.000918314
0.00101842
-11.4524
-11.4782
-11.4945
-11.4962
-11.4776
-11.434
-11.3634
-11.2685
-11.16
-11.0579
-10.9925
-11.0001
-11.1169
-11.3736
-11.7923
-12.3838
-13.1439
-14.0518
-15.0708
-16.15
-17.2271
-18.2326
-19.0952
-19.7474
-20.1365
-20.2239
-19.9949
-19.4599
-18.6519
-17.6219
-16.4325
-15.1517
-13.8483
-12.5888
-11.4359
-10.4478
-9.67665
-9.1666
-8.95191
-9.05373
-9.47596
-10.2014
-11.1868
-12.359
-13.617
-14.8419
-15.9112
-16.7144
-17.1679
-17.2244
-16.8784
-16.1646
-15.1494
-13.9185
-12.5637
-11.1704
-9.80844
-8.52852
-7.36166
-6.32209
-5.41095
-4.62037
-3.93732
-3.34694
-2.83517
-2.39022
-2.0029
-1.66639
-1.37554
-1.12618
-0.914595
-0.737173
-0.590262
-0.470153
-0.373137
-0.295611
-0.234186
-0.185784
-0.147705
-0.117677
-0.093841
-0.0747311
-0.0592195
-0.04647
-0.0358828
-0.0270482
-0.0197082
-0.0136807
-0.00883411
-0.00504514
-0.00222712
-0.000220428
0.00103012
0.00179958
0.00197861
0.00212885
0.00159123
0.00176886
0.000464625
0.00150342
-11.46
-11.4821
-11.4963
-11.4987
-11.4858
-11.4548
-11.4056
-11.3422
-11.2742
-11.2188
-11.1997
-11.2454
-11.3844
-11.6409
-12.0322
-12.5661
-13.2383
-14.0309
-14.9127
-15.8408
-16.7628
-17.6203
-18.3537
-18.907
-19.2339
-19.3036
-19.1024
-18.6375
-17.9351
-17.0373
-15.9966
-14.8716
-13.7225
-12.6086
-11.5863
-10.7081
-10.0206
-9.56339
-9.36633
-9.44725
-9.80822
-10.4325
-11.2807
-12.2889
-13.3704
-14.4235
-15.3434
-16.035
-16.4252
-16.4713
-16.1653
-15.534
-14.6313
-13.529
-12.3055
-11.0351
-9.78056
-8.5884
-7.48867
-6.49651
-5.61509
-4.83906
-4.15809
-3.56004
-3.03353
-2.56929
-2.16042
-1.80196
-1.49015
-1.22173
-0.993465
-0.801885
-0.64326
-0.513651
-0.409048
-0.325519
-0.259356
-0.20719
-0.166078
-0.133547
-0.107589
-0.0866331
-0.0694839
-0.0552692
-0.0433703
-0.0333678
-0.0249945
-0.0180605
-0.012428
-0.00796302
-0.00457173
-0.00207796
-0.000429544
0.000685182
0.00111152
0.00153212
0.0010698
0.00159795
6.14831e-06
0.00198292
-11.4713
-11.4916
-11.5055
-11.5105
-11.5043
-11.4859
-11.4562
-11.4196
-11.3851
-11.3667
-11.3835
-11.4576
-11.6113
-11.8634
-12.2273
-12.7084
-13.3022
-13.9933
-14.7551
-15.5517
-16.339
-17.0682
-17.6895
-18.1559
-18.4292
-18.4826
-18.3043
-17.8993
-17.2884
-16.5063
-15.597
-14.6108
-13.6001
-12.6176
-11.7134
-10.9345
-10.3226
-9.91262
-9.73071
-9.79187
-10.0969
-10.6298
-11.3555
-12.2181
-13.1432
-14.0441
-14.8312
-15.4229
-15.7555
-15.7904
-15.5181
-14.9586
-14.1557
-13.1691
-12.0653
-10.9091
-9.75577
-8.64804
-7.61436
-6.67007
-5.81965
-5.05966
-4.38195
-3.77679
-3.23541
-2.75122
-2.31983
-1.93837
-1.60465
-1.31643
-1.07099
-0.86501
-0.694623
-0.555612
-0.443612
-0.354321
-0.283673
-0.227986
-0.184052
-0.149189
-0.12124
-0.0985322
-0.0798087
-0.0641653
-0.0509709
-0.0398023
-0.030389
-0.0225378
-0.0161078
-0.0109561
-0.00698268
-0.00399486
-0.00194272
-0.000477432
0.000201768
0.000898944
0.000519509
0.00140785
-0.000465817
0.00246224
-11.4854
-11.5053
-11.5204
-11.5291
-11.5302
-11.5237
-11.5114
-11.4976
-11.4902
-11.5009
-11.5449
-11.6394
-11.8016
-12.0461
-12.3829
-12.8154
-13.3393
-13.9409
-14.5981
-15.2804
-15.951
-16.5692
-17.0934
-17.4847
-17.711
-17.7496
-17.5903
-17.2363
-16.7046
-16.0234
-15.2298
-14.3667
-13.4797
-12.6149
-11.8169
-11.1273
-10.5832
-10.2153
-10.0463
-10.089
-10.3433
-10.7943
-11.4108
-12.1444
-12.9314
-13.698
-14.3677
-14.8706
-15.1511
-15.1747
-14.931
-14.4344
-13.7201
-12.8376
-11.8433
-10.7928
-9.7351
-8.70869
-7.74005
-6.84413
-6.02604
-5.28358
-4.61022
-3.99831
-3.44165
-2.93649
-2.48124
-2.07541
-1.71861
-1.40972
-1.14657
-0.925943
-0.743785
-0.595532
-0.476398
-0.381653