/*--------------------------------*- C++ -*----------------------------------*\
  =========                 |
  \\      /  F ield         | OpenFOAM: The Open Source CFD Toolbox
   \\    /   O peration     | Website:  https://openfoam.org
    \\  /    A nd           | Version:  10
     \\/     M anipulation  |
\*---------------------------------------------------------------------------*/
FoamFile
{
    format      ascii;
    class       surfaceScalarField;
    location    "0.115";
    object      phi;
}
// * * * * * * * * * * * * * * * * * * * * * * * * * * * * * * * * * * * * * //

dimensions      [0 3 -1 0 0 0 0];

internalField   nonuniform List<scalar> 
13452
(
5.94523e-05
8.16182e-07
5.84694e-05
9.82904e-07
5.74435e-05
1.02583e-06
5.63868e-05
1.05672e-06
5.5327e-05
1.05983e-06
5.4275e-05
1.05202e-06
5.32338e-05
1.04122e-06
5.22048e-05
1.029e-06
5.11883e-05
1.01641e-06
5.01841e-05
1.00423e-06
4.91912e-05
9.92911e-07
4.82084e-05
9.82798e-07
4.72342e-05
9.74211e-07
4.62667e-05
9.67471e-07
4.53038e-05
9.6292e-07
4.43429e-05
9.60938e-07
4.33809e-05
9.61948e-07
4.24145e-05
9.66425e-07
4.14396e-05
9.74897e-07
4.04517e-05
9.87947e-07
3.94454e-05
1.00621e-06
3.84151e-05
1.03036e-06
3.7354e-05
1.06112e-06
3.62547e-05
1.09922e-06
3.51094e-05
1.14539e-06
3.3909e-05
1.20036e-06
3.26442e-05
1.26484e-06
3.13043e-05
1.33989e-06
2.98786e-05
1.42569e-06
2.83503e-05
1.52831e-06
2.67119e-05
1.63835e-06
2.49009e-05
1.81102e-06
1.97605e-06
2.29249e-05
6.24902e-05
3.16314e-07
6.29662e-05
5.06927e-07
6.34144e-05
5.77662e-07
6.38254e-05
6.45694e-07
6.41918e-05
6.93434e-07
6.45132e-05
7.30605e-07
6.47909e-05
7.63493e-07
6.5027e-05
7.9288e-07
6.52239e-05
8.19572e-07
6.53836e-05
8.44471e-07
6.55083e-05
8.68233e-07
6.55997e-05
8.91424e-07
6.56593e-05
9.14615e-07
6.56884e-05
9.38392e-07
6.56879e-05
9.6338e-07
6.56586e-05
9.90263e-07
6.56007e-05
1.0198e-06
6.55143e-05
1.05285e-06
6.53988e-05
1.09035e-06
6.52534e-05
1.13339e-06
6.50764e-05
1.18316e-06
6.48658e-05
1.24101e-06
6.46185e-05
1.30841e-06
6.43308e-05
1.38698e-06
6.39976e-05
1.4785e-06
6.36131e-05
1.58492e-06
6.31695e-05
1.70844e-06
6.26578e-05
1.85154e-06
6.20659e-05
2.01763e-06
6.13828e-05
2.21141e-06
6.05815e-05
2.43963e-06
5.96718e-05
2.72067e-06
3.0547e-06
5.85932e-05
6.38344e-05
2.43284e-07
6.39099e-05
4.31464e-07
6.39786e-05
5.0896e-07
6.40498e-05
5.74482e-07
6.41227e-05
6.20498e-07
6.41995e-05
6.53841e-07
6.42811e-05
6.81865e-07
6.43677e-05
7.06311e-07
6.4459e-05
7.28251e-07
6.45547e-05
7.48767e-07
6.46543e-05
7.68623e-07
6.47573e-05
7.88423e-07
6.48632e-05
8.08727e-07
6.49715e-05
8.30087e-07
6.50819e-05
8.53066e-07
6.51938e-05
8.78268e-07
6.53073e-05
9.06354e-07
6.54221e-05
9.38062e-07
6.55382e-05
9.7422e-07
6.56558e-05
1.01576e-06
6.57752e-05
1.06375e-06
6.58969e-05
1.11938e-06
6.60213e-05
1.184e-06
6.61491e-05
1.25913e-06
6.62812e-05
1.34647e-06
6.64181e-05
1.44796e-06
6.65607e-05
1.56585e-06
6.67095e-05
1.70275e-06
6.68651e-05
1.86201e-06
6.70289e-05
2.04762e-06
6.72036e-05
2.26495e-06
6.74033e-05
2.52095e-06
2.80911e-06
6.76489e-05
6.56405e-05
1.85856e-07
6.56924e-05
3.79608e-07
6.57281e-05
4.73181e-07
6.57563e-05
5.46366e-07
6.57775e-05
5.99274e-07
6.57936e-05
6.37667e-07
6.58062e-05
6.69327e-07
6.58158e-05
6.96694e-07
6.58231e-05
7.20995e-07
6.58284e-05
7.43429e-07
6.58322e-05
7.64872e-07
6.58346e-05
7.85993e-07
6.58359e-05
8.07388e-07
6.58364e-05
8.29627e-07
6.58362e-05
8.53274e-07
6.58355e-05
8.78917e-07
6.58347e-05
9.07178e-07
6.5834e-05
9.38727e-07
6.5834e-05
9.74292e-07
6.58351e-05
1.01467e-06
6.58381e-05
1.06073e-06
6.58441e-05
1.11341e-06
6.58543e-05
1.17376e-06
6.58706e-05
1.24287e-06
6.58951e-05
1.32196e-06
6.59307e-05
1.41232e-06
6.59812e-05
1.51534e-06
6.60514e-05
1.6326e-06
6.61477e-05
1.76566e-06
6.62787e-05
1.9166e-06
6.64582e-05
2.08544e-06
6.67036e-05
2.27561e-06
2.4669e-06
6.70458e-05
6.74904e-05
1.52243e-07
6.75311e-05
3.38878e-07
6.75649e-05
4.39387e-07
6.75956e-05
5.15719e-07
6.76215e-05
5.73383e-07
6.76424e-05
6.1672e-07
6.76591e-05
6.52621e-07
6.7672e-05
6.83847e-07
6.76812e-05
7.11744e-07
6.76871e-05
7.37576e-07
6.76896e-05
7.62298e-07
6.7689e-05
7.86633e-07
6.76852e-05
8.11213e-07
6.76782e-05
8.36626e-07
6.7668e-05
8.63443e-07
6.76547e-05
8.92242e-07
6.76382e-05
9.23622e-07
6.76187e-05
9.58214e-07
6.75964e-05
9.96684e-07
6.75713e-05
1.03975e-06
6.75439e-05
1.08815e-06
6.75146e-05
1.14269e-06
6.74842e-05
1.20418e-06
6.74536e-05
1.27346e-06
6.74242e-05
1.35137e-06
6.73978e-05
1.4387e-06
6.73769e-05
1.53619e-06
6.73651e-05
1.64445e-06
6.73671e-05
1.76363e-06
6.73899e-05
1.89377e-06
6.74434e-05
2.03194e-06
6.75424e-05
2.17668e-06
2.30843e-06
6.77008e-05
6.94116e-05
1.24675e-07
6.945e-05
3.00487e-07
6.94827e-05
4.0671e-07
6.95112e-05
4.87177e-07
6.95351e-05
5.49522e-07
6.95544e-05
5.97414e-07
6.957e-05
6.37032e-07
6.95823e-05
6.7151e-07
6.95916e-05
7.0241e-07
6.95981e-05
7.31068e-07
6.96019e-05
7.58522e-07
6.9603e-05
7.85558e-07
6.96014e-05
8.12818e-07
6.95971e-05
8.40913e-07
6.95901e-05
8.70416e-07
6.95805e-05
9.01898e-07
6.95682e-05
9.35934e-07
6.95533e-05
9.73116e-07
6.95359e-05
1.01405e-06
6.95163e-05
1.05937e-06
6.94947e-05
1.10972e-06
6.94716e-05
1.16575e-06
6.94477e-05
1.2281e-06
6.94238e-05
1.29737e-06
6.94011e-05
1.37409e-06
6.93811e-05
1.45866e-06
6.9366e-05
1.55128e-06
6.93586e-05
1.65184e-06
6.93628e-05
1.75949e-06
6.93837e-05
1.87286e-06
6.94279e-05
1.98771e-06
6.9505e-05
2.09964e-06
2.19313e-06
6.96203e-05
7.13849e-05
1.06133e-07
7.14145e-05
2.7088e-07
7.14419e-05
3.79338e-07
7.14674e-05
4.61663e-07
7.14902e-05
5.26658e-07
7.15098e-05
5.77846e-07
7.15263e-05
6.20572e-07
7.15398e-05
6.57999e-07
7.15504e-05
6.91761e-07
7.15583e-05
7.23181e-07
7.15635e-05
7.53311e-07
7.15661e-05
7.82944e-07
7.15662e-05
8.12778e-07
7.15637e-05
8.43433e-07
7.15586e-05
8.75461e-07
7.15511e-05
9.09404e-07
7.15412e-05
9.45802e-07
7.15292e-05
9.85196e-07
7.15151e-05
1.02813e-06
7.14993e-05
1.07514e-06
7.14823e-05
1.12676e-06
7.14645e-05
1.18349e-06
7.14468e-05
1.24579e-06
7.14302e-05
1.31402e-06
7.14158e-05
1.38843e-06
7.14055e-05
1.46904e-06
7.14011e-05
1.5556e-06
7.14056e-05
1.64739e-06
7.14222e-05
1.74292e-06
7.14551e-05
1.83988e-06
7.15092e-05
1.93366e-06
7.15901e-05
2.01873e-06
2.08345e-06
7.16998e-05
7.34194e-05
9.20383e-08
7.34454e-05
2.44882e-07
7.34716e-05
3.53144e-07
7.34964e-05
4.36787e-07
7.35188e-05
5.04254e-07
7.3538e-05
5.58716e-07
7.35539e-05
6.04598e-07
7.3567e-05
6.44951e-07
7.35773e-05
6.81489e-07
7.35849e-05
7.15551e-07
7.359e-05
7.48219e-07
7.35926e-05
7.80342e-07
7.35928e-05
8.12609e-07
7.35906e-05
8.456e-07
7.35861e-05
8.79905e-07
7.35795e-05
9.16034e-07
7.35708e-05
9.54491e-07
7.35603e-05
9.95761e-07
7.35481e-05
1.04032e-06
7.35346e-05
1.0886e-06
7.35203e-05
1.14103e-06
7.35059e-05
1.19795e-06
7.3492e-05
1.25965e-06
7.34798e-05
1.32628e-06
7.34704e-05
1.39779e-06
7.34655e-05
1.47393e-06
7.34671e-05
1.55404e-06
7.34775e-05
1.637e-06
7.34995e-05
1.72089e-06
7.35364e-05
1.80296e-06
7.35914e-05
1.87868e-06
7.36676e-05
1.94253e-06
1.98593e-06
7.37651e-05
7.55129e-05
8.15571e-08
7.55342e-05
2.2365e-07
7.55567e-05
3.30577e-07
7.55787e-05
4.14801e-07
7.55992e-05
4.83776e-07
7.56174e-05
5.40546e-07
7.56331e-05
5.8887e-07
7.56464e-05
6.31638e-07
7.56573e-05
6.7059e-07
7.56658e-05
7.07042e-07
7.5672e-05
7.42064e-07
7.56758e-05
7.76513e-07
7.56774e-05
8.11058e-07
7.56767e-05
8.46257e-07
7.56739e-05
8.8267e-07
7.56692e-05
9.20795e-07
7.56626e-05
9.61091e-07
7.56544e-05
1.00398e-06
7.56448e-05
1.04987e-06
7.56343e-05
1.0991e-06
7.56233e-05
1.15198e-06
7.56126e-05
1.20873e-06
7.56028e-05
1.26945e-06
7.55949e-05
1.33411e-06
7.55903e-05
1.40247e-06
7.55902e-05
1.474e-06
7.55965e-05
1.54779e-06
7.5611e-05
1.62247e-06
7.56359e-05
1.69595e-06
7.56735e-05
1.76538e-06
7.57255e-05
1.82668e-06
7.57931e-05
1.8749e-06
1.90399e-06
7.58751e-05
7.76677e-05
7.34573e-08
7.76857e-05
2.05594e-07
7.77064e-05
3.09908e-07
7.77273e-05
3.93883e-07
7.77473e-05
4.63791e-07
7.77654e-05
5.22479e-07
7.77812e-05
5.73071e-07
7.77946e-05
6.1817e-07
7.78058e-05
6.59461e-07
7.78146e-05
6.98223e-07
7.78212e-05
7.35497e-07
7.78256e-05
7.72092e-07
7.78279e-05
8.08695e-07
7.78283e-05
8.45916e-07
7.78267e-05
8.84256e-07
7.78233e-05
9.24163e-07
7.78184e-05
9.66047e-07
7.78121e-05
1.01028e-06
7.78048e-05
1.05718e-06
7.77968e-05
1.10703e-06
7.77888e-05
1.16001e-06
7.77813e-05
1.21622e-06
7.77751e-05
1.27565e-06
7.77712e-05
1.33809e-06
7.77705e-05
1.40313e-06
7.77744e-05
1.47009e-06
7.77843e-05
1.53792e-06
7.78016e-05
1.60512e-06
7.78279e-05
1.66963e-06
7.78645e-05
1.72878e-06
7.79121e-05
1.77907e-06
7.79706e-05
1.8164e-06
1.83662e-06
7.8038e-05
7.98847e-05
6.70575e-08
7.99e-05
1.90358e-07
7.99183e-05
2.91576e-07
7.99373e-05
3.74905e-07
7.99557e-05
4.45326e-07
7.99728e-05
5.05415e-07
7.99881e-05
5.57795e-07
8.00014e-05
6.04804e-07
8.00128e-05
6.48069e-07
8.00222e-05
6.88827e-07
8.00296e-05
7.28094e-07
8.0035e-05
7.6668e-07
8.00385e-05
8.05202e-07
8.00402e-05
8.4421e-07
8.00403e-05
8.84206e-07
8.00388e-05
9.25615e-07
8.00361e-05
9.68804e-07
8.00323e-05
1.01409e-06
8.00277e-05
1.06171e-06
8.00229e-05
1.11187e-06
8.00182e-05
1.16467e-06
8.00144e-05
1.22009e-06
8.0012e-05
1.27801e-06
8.0012e-05
1.33811e-06
8.00152e-05
1.39986e-06
8.00228e-05
1.4625e-06
8.00359e-05
1.52491e-06
8.00554e-05
1.58562e-06
8.00823e-05
1.64272e-06
8.01172e-05
1.69386e-06
8.01601e-05
1.7362e-06
8.02099e-05
1.76655e-06
1.78225e-06
8.02643e-05
8.21656e-05
6.1866e-08
8.21787e-05
1.77301e-07
8.21953e-05
2.75019e-07
8.2213e-05
3.57166e-07
8.22307e-05
4.27596e-07
8.22475e-05
4.88613e-07
8.22629e-05
5.42437e-07
8.22766e-05
5.91122e-07
8.22884e-05
6.36184e-07
8.22985e-05
6.78786e-07
8.23067e-05
7.19877e-07
8.23132e-05
7.60216e-07
8.2318e-05
8.00417e-07
8.23211e-05
8.41027e-07
8.23228e-05
8.82511e-07
8.23232e-05
9.25241e-07
8.23225e-05
9.6953e-07
8.23209e-05
1.01563e-06
8.23189e-05
1.06374e-06
8.23168e-05
1.11397e-06
8.23151e-05
1.16634e-06
8.23145e-05
1.22078e-06
8.23154e-05
1.27705e-06
8.23188e-05
1.33477e-06
8.23253e-05
1.39336e-06
8.23357e-05
1.45201e-06
8.2351e-05
1.50965e-06
8.23717e-05
1.5649e-06
8.23984e-05
1.61609e-06
8.24309e-05
1.66127e-06
8.24689e-05
1.69825e-06
8.25108e-05
1.72467e-06
1.73898e-06
8.25541e-05
8.45121e-05
5.75456e-08
8.45234e-05
1.66006e-07
8.45383e-05
2.601e-07
8.45547e-05
3.40765e-07
8.45714e-05
4.10901e-07
8.45875e-05
4.72497e-07
8.46025e-05
5.27426e-07
8.46162e-05
5.77472e-07
8.46283e-05
6.24031e-07
8.46389e-05
6.68192e-07
8.4648e-05
7.10849e-07
8.46554e-05
7.52724e-07
8.46615e-05
7.94403e-07
8.46661e-05
8.36386e-07
8.46695e-05
8.79093e-07
8.46719e-05
9.22865e-07
8.46735e-05
9.67973e-07
8.46745e-05
1.01462e-06
8.46753e-05
1.06295e-06
8.46762e-05
1.11301e-06
8.46778e-05
1.16476e-06
8.46805e-05
1.21805e-06
8.4685e-05
1.27261e-06
8.46917e-05
1.32801e-06
8.47014e-05
1.38365e-06
8.47147e-05
1.43875e-06
8.4732e-05
1.49231e-06
8.47538e-05
1.54312e-06
8.47801e-05
1.5898e-06
8.48106e-05
1.63079e-06
8.48443e-05
1.6645e-06
8.48797e-05
1.68929e-06
1.70442e-06
8.49142e-05
8.69258e-05
5.3864e-08
8.69357e-05
1.56103e-07
8.69493e-05
2.46535e-07
8.69647e-05
3.25427e-07
8.69806e-05
3.94918e-07
8.69964e-05
4.56705e-07
8.70115e-05
5.12376e-07
8.70255e-05
5.63477e-07
8.70382e-05
6.11269e-07
8.70497e-05
6.56754e-07
8.70598e-05
7.00757e-07
8.70685e-05
7.43952e-07
8.70761e-05
7.86888e-07
8.70824e-05
8.30028e-07
8.70877e-05
8.73755e-07
8.70922e-05
9.18369e-07
8.70961e-05
9.64097e-07
8.70996e-05
1.0111e-06
8.71031e-05
1.05945e-06
8.7107e-05
1.10916e-06
8.71116e-05
1.16015e-06
8.71174e-05
1.21222e-06
8.7125e-05
1.26508e-06
8.71347e-05
1.31827e-06
8.71471e-05
1.37122e-06
8.71627e-05
1.42322e-06
8.71816e-05
1.47338e-06
8.7204e-05
1.52069e-06
8.72298e-05
1.56405e-06
8.72583e-05
1.60229e-06
8.72885e-05
1.63431e-06
8.73187e-05
1.65909e-06
1.67642e-06
8.73467e-05
8.94087e-05
5.06559e-08
8.94175e-05
1.47301e-07
8.943e-05
2.34117e-07
8.94444e-05
3.11038e-07
8.94596e-05
3.7963e-07
8.9475e-05
4.41313e-07
8.949e-05
4.97431e-07
8.95042e-05
5.49306e-07
8.95174e-05
5.98063e-07
8.95295e-05
6.44614e-07
8.95405e-05
6.89716e-07
8.95505e-05
7.33994e-07
8.95594e-05
7.77956e-07
8.95674e-05
8.22021e-07
8.95747e-05
8.66529e-07
8.95813e-05
9.1174e-07
8.95875e-05
9.57843e-07
8.95937e-05
1.00496e-06
8.96e-05
1.05312e-06
8.96069e-05
1.10232e-06
8.96146e-05
1.15241e-06
8.96236e-05
1.2032e-06
8.96343e-05
1.25436e-06
8.96471e-05
1.30549e-06
8.96623e-05
1.35603e-06
8.96802e-05
1.40537e-06
8.97008e-05
1.45275e-06
8.97241e-05
1.49737e-06
8.97498e-05
1.53838e-06
8.97771e-05
1.57498e-06
8.98049e-05
1.60646e-06
8.98318e-05
1.63224e-06
1.6525e-06
8.98557e-05
9.19627e-05
4.78018e-08
9.19707e-05
1.3936e-07
9.19821e-05
2.22633e-07
9.19958e-05
2.97422e-07
9.20105e-05
3.64868e-07
9.20257e-05
4.26146e-07
9.20407e-05
4.82393e-07
9.20553e-05
5.34739e-07
9.20692e-05
5.84178e-07
9.20823e-05
6.31531e-07
9.20945e-05
6.77486e-07
9.21059e-05
7.22609e-07
9.21165e-05
7.67363e-07
9.21264e-05
8.12125e-07
9.21357e-05
8.57194e-07
9.21446e-05
9.02795e-07
9.21534e-05
9.49078e-07
9.21622e-05
9.96126e-07
9.21714e-05
1.04395e-06
9.21812e-05
1.0925e-06
9.2192e-05
1.14163e-06
9.22041e-05
1.19111e-06
9.22178e-05
1.24066e-06
9.22334e-05
1.28988e-06
9.22511e-05
1.33829e-06
9.22711e-05
1.38537e-06
9.22934e-05
1.43051e-06
9.23177e-05
1.47309e-06
9.23435e-05
1.51251e-06
9.23703e-05
1.54825e-06
9.23968e-05
1.5799e-06
9.24218e-05
1.60723e-06
1.63063e-06
9.24437e-05
9.45897e-05
4.52136e-08
9.4597e-05
1.32088e-07
9.46077e-05
2.11902e-07
9.46207e-05
2.84434e-07
9.46351e-05
3.50527e-07
9.46501e-05
4.11144e-07
9.46652e-05
4.67245e-07
9.46802e-05
5.19792e-07
9.46947e-05
5.69651e-07
9.47087e-05
6.17552e-07
9.47221e-05
6.64111e-07
9.47348e-05
7.09839e-07
9.4747e-05
7.5515e-07
9.47588e-05
8.00379e-07
9.47702e-05
8.45784e-07
9.47814e-05
8.91554e-07
9.47927e-05
9.37807e-07
9.48042e-05
9.84598e-07
9.48163e-05
1.03192e-06
9.48291e-05
1.07969e-06
9.48429e-05
1.12777e-06
9.48581e-05
1.17594e-06
9.48749e-05
1.22392e-06
9.48934e-05
1.27137e-06
9.49138e-05
1.31789e-06
9.49361e-05
1.36304e-06
9.49602e-05
1.40636e-06
9.49859e-05
1.4474e-06
9.50127e-05
1.48576e-06
9.50398e-05
1.52112e-06
9.50664e-05
1.55332e-06
9.50913e-05
1.58234e-06
1.6087e-06
9.51132e-05
9.72919e-05
4.28236e-08
9.72987e-05
1.25324e-07
9.73088e-05
2.01753e-07
9.73213e-05
2.71926e-07
9.73354e-05
3.36472e-07
9.73503e-05
3.96181e-07
9.73657e-05
4.51861e-07
9.73812e-05
5.04328e-07
9.73965e-05
5.54331e-07
9.74116e-05
6.02514e-07
9.74262e-05
6.49421e-07
9.74406e-05
6.95506e-07
9.74546e-05
7.41135e-07
9.74684e-05
7.86599e-07
9.7482e-05
8.3212e-07
9.74957e-05
8.77852e-07
9.75097e-05
9.23888e-07
9.7524e-05
9.70258e-07
9.7539e-05
1.01694e-06
9.75548e-05
1.06384e-06
9.75718e-05
1.11081e-06
9.759e-05
1.15767e-06
9.76098e-05
1.20416e-06
9.76312e-05
1.24998e-06
9.76543e-05
1.29481e-06
9.7679e-05
1.33831e-06
9.77053e-05
1.38013e-06
9.77327e-05
1.41996e-06
9.77609e-05
1.45757e-06
9.77892e-05
1.4928e-06
9.78169e-05
1.52564e-06
9.7843e-05
1.55623e-06
1.58509e-06
9.78666e-05
0.000100071
4.05792e-08
0.000100078
1.18938e-07
0.000100087
1.92039e-07
0.0001001
2.59758e-07
0.000100113
3.22581e-07
0.000100129
3.81155e-07
0.000100144
4.36161e-07
0.00010016
4.88288e-07
0.000100176
5.38177e-07
0.000100193
5.86387e-07
0.000100209
6.33394e-07
0.000100224
6.79593e-07
0.00010024
7.25305e-07
0.000100256
7.70778e-07
0.000100272
8.16198e-07
0.000100288
8.61689e-07
0.000100305
9.0732e-07
0.000100322
9.53105e-07
0.00010034
9.99004e-07
0.000100359
1.04493e-06
0.000100379
1.09075e-06
0.0001004
1.13628e-06
0.000100423
1.18131e-06
0.000100447
1.22559e-06
0.000100473
1.26887e-06
0.000100501
1.31089e-06
0.00010053
1.35141e-06
0.000100559
1.39023e-06
0.00010059
1.42722e-06
0.00010062
1.46236e-06
0.00010065
1.49572e-06
0.000100679
1.52752e-06
1.55825e-06
0.000100706
0.00010293
3.84378e-08
0.000102936
1.12818e-07
0.000102946
1.82623e-07
0.000102958
2.47798e-07
0.000102972
3.08731e-07
0.000102987
3.65955e-07
0.000103003
4.2004e-07
0.00010302
4.71567e-07
0.000103037
5.21079e-07
0.000103054
5.69056e-07
0.000103072
6.15908e-07
0.000103089
6.61975e-07
0.000103107
7.0753e-07
0.000103125
7.52783e-07
0.000103143
7.97887e-07
0.000103162
8.4294e-07
0.000103181
8.87989e-07
0.000103201
9.33034e-07
0.000103222
9.78031e-07
0.000103244
1.02289e-06
0.000103268
1.0675e-06
0.000103292
1.11169e-06
0.000103318
1.15528e-06
0.000103346
1.19809e-06
0.000103375
1.23991e-06
0.000103405
1.28056e-06
0.000103437
1.31988e-06
0.000103469
1.35775e-06
0.000103502
1.39413e-06
0.000103535
1.42906e-06
0.000103568
1.46268e-06
0.000103601
1.49521e-06
1.5271e-06
0.000103632
0.000105871
3.6364e-08
0.000105877
1.06869e-07
0.000105886
1.73385e-07
0.000105898
2.35922e-07
0.000105912
2.94801e-07
0.000105927
3.50467e-07
0.000105944
4.03395e-07
0.000105961
4.54072e-07
0.00010598
5.02953e-07
0.000105998
5.50444e-07
0.000106017
5.96893e-07
0.000106037
6.42586e-07
0.000106056
6.87752e-07
0.000106077
7.32564e-07
0.000106097
7.77144e-07
0.000106119
8.21566e-07
0.000106141
8.6586e-07
0.000106164
9.10015e-07
0.000106188
9.53985e-07
0.000106213
9.97686e-07
0.00010624
1.04101e-06
0.000106267
1.08382e-06
0.000106297
1.12598e-06
0.000106327
1.16733e-06
0.00010636
1.20772e-06
0.000106393
1.24703e-06
0.000106428
1.28515e-06
0.000106464
1.32204e-06
0.0001065
1.35769e-06
0.000106537
1.39219e-06
0.000106574
1.42569e-06
0.000106611
1.4584e-06
1.49071e-06
0.000106647
0.000108895
3.43279e-08
0.000108901
1.0101e-07
0.00010891
1.64214e-07
0.000108922
2.2401e-07
0.000108937
2.80675e-07
0.000108952
3.3458e-07
0.00010897
3.86122e-07
0.000108988
4.35704e-07
0.000109007
4.83704e-07
0.000109027
5.3046e-07
0.000109048
5.76258e-07
0.000109069
6.21337e-07
0.000109091
6.65883e-07
0.000109114
7.10033e-07
0.000109137
7.53883e-07
0.000109161
7.97484e-07
0.000109186
8.40852e-07
0.000109212
8.8397e-07
0.000109239
9.26787e-07
0.000109268
9.69228e-07
0.000109297
1.0112e-06
0.000109329
1.05259e-06
0.000109361
1.09328e-06
0.000109396
1.13315e-06
0.000109431
1.17209e-06
0.000109468
1.21003e-06
0.000109506
1.2469e-06
0.000109546
1.28269e-06
0.000109586
1.31743e-06
0.000109627
1.3512e-06
0.000109669
1.38417e-06
0.00010971
1.41651e-06
1.44852e-06
0.000109753
0.000112007
3.2303e-08
0.000112012
9.51661e-08
0.000112022
1.55008e-07
0.000112034
2.11947e-07
0.000112048
2.66233e-07
0.000112064
3.18175e-07
0.000112082
3.68105e-07
0.000112102
4.16352e-07
0.000112122
4.63224e-07
0.000112144
5.08997e-07
0.000112166
5.53902e-07
0.000112189
5.9813e-07
0.000112213
6.41829e-07
0.000112238
6.85103e-07
0.000112264
7.28022e-07
0.000112291
7.70619e-07
0.000112319
8.12896e-07
0.000112348
8.54829e-07
0.000112379
8.96369e-07
0.00011241
9.37447e-07
0.000112444
9.77979e-07
0.000112478
1.01787e-06
0.000112515
1.05704e-06
0.000112552
1.09538e-06
0.000112592
1.13282e-06
0.000112632
1.16931e-06
0.000112674
1.20482e-06
0.000112718
1.23934e-06
0.000112762
1.27293e-06
0.000112808
1.30567e-06
0.000112854
1.33768e-06
0.000112902
1.36911e-06
1.40018e-06
0.00011295
0.000115207
3.02658e-08
0.000115212
8.92714e-08
0.000115222
1.45671e-07
0.000115234
1.99628e-07
0.000115249
2.51366e-07
0.000115266
3.01149e-07
0.000115285
3.49248e-07
0.000115305
3.95929e-07
0.000115327
4.41437e-07
0.00011535
4.85987e-07
0.000115374
5.29764e-07
0.000115399
5.72911e-07
0.000115426
6.15541e-07
0.000115453
6.57728e-07
0.000115482
6.99518e-07
0.000115511
7.40927e-07
0.000115542
7.81947e-07
0.000115574
8.22547e-07
0.000115608
8.62679e-07
0.000115643
9.0228e-07
0.00011568
9.41276e-07
0.000115718
9.7959e-07
0.000115758
1.01715e-06
0.0001158
1.05388e-06
0.000115843
1.08973e-06
0.000115887
1.12466e-06
0.000115934
1.15865e-06
0.000115981
1.19173e-06
0.00011603
1.22392e-06
0.000116081
1.25529e-06
0.000116132
1.28594e-06
0.000116185
1.31598e-06
1.34556e-06
0.00011624
0.000118498
2.81936e-08
0.000118504
8.32617e-08
0.000118514
1.3611e-07
0.000118526
1.86936e-07
0.000118542
2.35946e-07
0.000118559
2.83364e-07
0.000118579
3.2941e-07
0.000118601
3.74291e-07
0.000118624
4.18196e-07
0.000118649
4.61288e-07
0.000118675
5.03701e-07
0.000118702
5.45542e-07
0.000118731
5.86887e-07
0.000118761
6.27783e-07
0.000118792
6.68253e-07
0.000118825
7.083e-07
0.000118859
7.47903e-07
0.000118894
7.87027e-07
0.000118931
8.25624e-07
0.00011897
8.63635e-07
0.00011901
9.00993e-07
0.000119052
9.37635e-07
0.000119096
9.73498e-07
0.000119141
1.00853e-06
0.000119188
1.04268e-06
0.000119237
1.07592e-06
0.000119287
1.10825e-06
0.000119339
1.13968e-06
0.000119393
1.17022e-06
0.000119449
1.19994e-06
0.000119506
1.22889e-06
0.000119564
1.25714e-06
1.28479e-06
0.000119625
0.000121883
2.60669e-08
0.00012189
7.7081e-08
0.000121899
1.26243e-07
0.000121913
1.73782e-07
0.000121929
2.19888e-07
0.000121947
2.64747e-07
0.000121968
3.08531e-07
0.000121991
3.51394e-07
0.000122016
3.93473e-07
0.000122042
4.3488e-07
0.00012207
4.75708e-07
0.0001221
5.16023e-07
0.000122131
5.5587e-07
0.000122163
5.95272e-07
0.000122197
6.34231e-07
0.000122233
6.72737e-07
0.00012227
7.10758e-07
0.000122309
7.48255e-07
0.000122349
7.85178e-07
0.000122391
8.21472e-07
0.000122435
8.57078e-07
0.000122481
8.91939e-07
0.000122528
9.26001e-07
0.000122578
9.59217e-07
0.000122629
9.91551e-07
0.000122682
1.02297e-06
0.000122737
1.05348e-06
0.000122793
1.08306e-06
0.000122852
1.11175e-06
0.000122912
1.13955e-06
0.000122975
1.16651e-06
0.000123039
1.19264e-06
1.21803e-06
0.000123106
0.000125366
2.386e-08
0.000125372
7.06566e-08
0.000125382
1.15958e-07
0.000125396
1.60019e-07
0.000125413
2.03014e-07
0.000125433
2.45097e-07
0.000125455
2.86396e-07
0.000125479
3.27017e-07
0.000125506
3.67044e-07
0.000125534
4.06545e-07
0.000125564
4.45571e-07
0.000125596
4.84153e-07
0.00012563
5.22305e-07
0.000125665
5.60026e-07
0.000125702
5.97301e-07
0.00012574
6.34103e-07
0.000125781
6.70395e-07
0.000125823
7.0613e-07
0.000125867
7.41257e-07
0.000125912
7.75723e-07
0.00012596
8.09474e-07
0.00012601
8.42455e-07
0.000126061
8.74619e-07
0.000126114
9.05921e-07
0.000126169
9.36326e-07
0.000126227
9.65807e-07
0.000126286
9.94347e-07
0.000126347
1.02194e-06
0.00012641
1.04858e-06
0.000126475
1.07427e-06
0.000126543
1.09903e-06
0.000126613
1.12285e-06
1.14576e-06
0.000126685
0.000128947
2.15609e-08
0.000128954
6.39512e-08
0.000128965
1.05209e-07
0.000128979
1.45612e-07
0.000128997
1.85314e-07
0.000129018
2.24431e-07
0.000129041
2.63047e-07
0.000129067
3.01219e-07
0.000129095
3.38983e-07
0.000129125
3.76363e-07
0.000129157
4.13372e-07
0.000129191
4.50008e-07
0.000129227
4.8626e-07
0.000129265
5.22103e-07
0.000129305
5.57505e-07
0.000129347
5.92427e-07
0.00012939
6.26824e-07
0.000129436
6.60645e-07
0.000129483
6.93839e-07
0.000129533
7.26351e-07
0.000129584
7.58128e-07
0.000129637
7.89119e-07
0.000129693
8.19276e-07
0.00012975
8.48556e-07
0.000129809
8.76923e-07
0.000129871
9.04346e-07
0.000129934
9.30802e-07
0.00013
9.5627e-07
0.000130068
9.80736e-07
0.000130138
1.00419e-06
0.00013021
1.02661e-06
0.000130285
1.04797e-06
1.06829e-06
0.000130363
0.000132632
1.91171e-08
0.000132639
5.68279e-08
0.00013265
9.37789e-08
0.000132665
1.30272e-07
0.000132684
1.66444e-07
0.000132706
2.0237e-07
0.000132731
2.38092e-07
0.000132759
2.73614e-07
0.000132789
3.08922e-07
0.000132821
3.43995e-07
0.000132856
3.78807e-07
0.000132893
4.13325e-07
0.000132931
4.4751e-07
0.000132972
4.81317e-07
0.000133015
5.14698e-07
0.00013306
5.47602e-07
0.000133107
5.79978e-07
0.000133155
6.1177e-07
0.000133206
6.42923e-07
0.000133259
6.73382e-07
0.000133314
7.03093e-07
0.000133371
7.32006e-07
0.000133431
7.60074e-07
0.000133492
7.87251e-07
0.000133555
8.135e-07
0.000133621
8.38784e-07
0.000133689
8.63074e-07
0.000133759
8.86339e-07
0.000133831
9.08553e-07
0.000133905
9.29689e-07
0.000133982
9.49719e-07
0.000134062
9.68593e-07
9.86325e-07
0.000134144
0.000136421
1.65643e-08
0.000136428
4.93462e-08
0.00013644
8.17775e-08
0.000136456
1.14168e-07
0.000136476
1.4662e-07
0.000136499
1.79163e-07
0.000136526
2.1179e-07
0.000136555
2.44453e-07
0.000136587
2.77089e-07
0.000136621
3.09637e-07
0.000136658
3.42035e-07
0.000136697
3.74221e-07
0.000136738
4.06134e-07
0.000136782
4.3771e-07
0.000136828
4.68888e-07
0.000136876
4.99607e-07
0.000136926
5.29807e-07
0.000136978
5.59427e-07
0.000137033
5.8841e-07
0.000137089
6.167e-07
0.000137148
6.44241e-07
0.000137209
6.70982e-07
0.000137273
6.96875e-07
0.000137338
7.21874e-07
0.000137406
7.45938e-07
0.000137475
7.69026e-07
0.000137547
7.911e-07
0.000137621
8.12126e-07
0.000137698
8.32065e-07
0.000137777
8.5088e-07
0.000137858
8.68533e-07
0.000137942
8.84962e-07
9.00174e-07
0.000138028
0.000140319
1.36981e-08
0.000140327
4.10728e-08
0.00014034
6.85855e-08
0.000140358
9.6566e-08
0.000140379
1.25063e-07
0.000140404
1.54041e-07
0.000140433
1.83432e-07
0.000140464
2.13115e-07
0.000140498
2.42964e-07
0.000140535
2.7287e-07
0.000140574
3.02736e-07
0.000140616
3.32473e-07
0.00014066
3.61996e-07
0.000140707
3.91227e-07
0.000140755
4.2009e-07
0.000140807
4.48516e-07
0.00014086
4.76437e-07
0.000140916
5.03791e-07
0.000140973
5.30516e-07
0.000141034
5.56555e-07
0.000141096
5.81853e-07
0.000141161
6.06359e-07
0.000141227
6.30022e-07
0.000141297
6.52795e-07
0.000141368
6.74635e-07
0.000141441
6.95498e-07
0.000141517
7.15342e-07
0.000141595
7.34126e-07
0.000141675
7.51807e-07
0.000141758
7.68343e-07
0.000141843
7.83689e-07
0.00014193
7.97782e-07
8.10625e-07
0.000142019
0.000144327
1.08507e-08
0.000144336
3.25361e-08
0.00014435
5.4882e-08
0.000144368
7.81904e-08
0.000144391
1.02475e-07
0.000144417
1.2763e-07
0.000144447
1.53531e-07
0.00014448
1.79987e-07
0.000144516
2.06809e-07
0.000144555
2.33845e-07
0.000144597
2.60962e-07
0.000144641
2.88043e-07
0.000144688
3.14984e-07
0.000144738
3.4169e-07
0.00014479
3.68074e-07
0.000144844
3.94056e-07
0.000144901
4.19564e-07
0.000144961
4.44532e-07
0.000145022
4.68896e-07
0.000145086
4.92598e-07
0.000145152
5.15581e-07
0.000145221
5.37794e-07
0.000145292
5.59187e-07
0.000145365
5.79712e-07
0.00014544
5.99323e-07
0.000145518
6.17976e-07
0.000145598
6.35626e-07
0.000145679
6.5223e-07
0.000145763
6.67741e-07
0.00014585
6.82114e-07
0.000145938
6.95303e-07
0.000146029
7.07242e-07
7.17934e-07
0.000146121
0.000148452
7.02633e-09
0.000148462
2.21617e-08
0.000148478
3.88805e-08
0.000148499
5.73251e-08
0.000148524
7.73431e-08
0.000148553
9.86998e-08
0.000148585
1.21194e-07
0.000148621
1.44477e-07
0.000148659
1.6828e-07
0.000148701
1.92428e-07
0.000148745
2.16754e-07
0.000148792
2.41118e-07
0.000148842
2.65401e-07
0.000148894
2.89497e-07
0.000148949
3.13312e-07
0.000149006
3.3676e-07
0.000149066
3.59767e-07
0.000149128
3.82264e-07
0.000149193
4.04189e-07
0.00014926
4.25485e-07
0.000149329
4.46095e-07
0.000149401
4.65968e-07
0.000149475
4.85054e-07
0.000149552
5.03308e-07
0.00014963
5.20683e-07
0.000149711
5.37134e-07
0.000149794
5.52619e-07
0.000149879
5.67093e-07
0.000149966
5.80511e-07
0.000150056
5.92829e-07
0.000150147
6.04002e-07
0.00015024
6.13969e-07
6.22731e-07
0.000150336
0.000152692
3.99694e-09
0.000152702
1.20471e-08
0.000152719
2.25627e-08
0.00015274
3.55342e-08
0.000152767
5.08215e-08
0.000152798
6.79093e-08
0.000152832
8.66488e-08
0.00015287
1.06505e-07
0.000152911
1.27084e-07
0.000152956
1.4815e-07
0.000153003
1.69497e-07
0.000153053
1.9098e-07
0.000153106
2.12465e-07
0.000153162
2.33824e-07
0.00015322
2.54957e-07
0.000153281
2.75775e-07
0.000153345
2.96197e-07
0.000153411
3.16154e-07
0.000153479
3.35587e-07
0.00015355
3.54439e-07
0.000153624
3.72655e-07
0.0001537
3.90187e-07
0.000153778
4.06988e-07
0.000153858
4.23013e-07
0.00015394
4.3822e-07
0.000154025
4.52566e-07
0.000154112
4.6601e-07
0.0001542
4.7851e-07
0.000154291
4.90023e-07
0.000154383
5.00502e-07
0.000154477
5.09907e-07
0.000154573
5.18181e-07
5.25327e-07
0.00015467
0.000157058
-2.31717e-09
0.000157072
-2.23314e-09
0.000157092
2.44075e-09
0.000157118
1.01574e-08
0.000157147
2.1145e-08
0.000157181
3.45544e-08
0.000157217
5.00295e-08
0.000157257
6.65995e-08
0.0001573
8.40055e-08
0.000157346
1.02028e-07
0.000157395
1.20369e-07
0.000157448
1.38906e-07
0.000157502
1.57503e-07
0.00015756
1.76027e-07
0.000157621
1.94373e-07
0.000157684
2.12449e-07
0.00015775
2.30173e-07
0.000157819
2.47489e-07
0.00015789
2.64341e-07
0.000157964
2.80669e-07
0.00015804
2.96423e-07
0.000158119
3.11556e-07
0.0001582
3.26025e-07
0.000158283
3.39788e-07
0.000158368
3.52807e-07
0.000158456
3.65044e-07
0.000158545
3.76463e-07
0.000158637
3.87031e-07
0.00015873
3.9671e-07
0.000158825
4.05465e-07
0.000158922
4.13258e-07
0.00015902
4.20035e-07
4.25798e-07
0.00015912
0.000161542
-5.89563e-09
0.000161556
-1.65074e-08
0.000161579
-1.98131e-08
0.000161606
-1.77514e-08
0.000161639
-1.18249e-08
0.000161677
-3.27846e-09
0.000161718
9.17366e-09
0.000161762
2.26231e-08
0.000161809
3.69289e-08
0.000161859
5.18633e-08
0.000161913
6.71269e-08
0.000161969
8.27379e-08
0.000162028
9.84554e-08
0.00016209
1.14137e-07
0.000162154
1.29702e-07
0.000162222
1.45059e-07
0.000162292
1.60094e-07
0.000162365
1.74773e-07
0.00016244
1.89056e-07
0.000162518
2.02891e-07
0.000162598
2.16231e-07
0.00016268
2.29037e-07
0.000162765
2.41269e-07
0.000162852
2.52893e-07
0.000162941
2.63877e-07
0.000163032
2.74189e-07
0.000163124
2.83802e-07
0.000163219
2.92685e-07
0.000163315
3.00807e-07
0.000163412
3.08124e-07
0.000163511
3.1459e-07
0.000163611
3.20171e-07
3.24876e-07
0.000163711
0.000166167
-1.90103e-08
0.000166189
-3.91444e-08
0.000166216
-4.69632e-08
0.000166247
-4.85668e-08
0.000166281
-4.59839e-08
0.000166318
-3.99019e-08
0.000166359
-3.13515e-08
0.000166403
-2.14457e-08
0.00016645
-1.04376e-08
0.0001665
1.51581e-09
0.000166554
1.32447e-08
0.000166611
2.57085e-08
0.000166671
3.83197e-08
0.000166735
5.09658e-08
0.000166801
6.3529e-08
0.00016687
7.59369e-08
0.000166942
8.80627e-08
0.000167017
9.99646e-08
0.000167094
1.11548e-07
0.000167174
1.22759e-07
0.000167257
1.33561e-07
0.000167342
1.43918e-07
0.00016743
1.53795e-07
0.000167519
1.63161e-07
0.000167611
1.71987e-07
0.000167705
1.80253e-07
0.000167801
1.8794e-07
0.000167899
1.95047e-07
0.000167998
2.01609e-07
0.000168098
2.07596e-07
0.0001682
2.1293e-07
0.000168303
2.1755e-07
2.21457e-07
0.000168406
0.000170912
-3.03902e-08
0.000170942
-6.96235e-08
0.000170979
-8.37932e-08
0.000171021
-9.03533e-08
0.000171066
-9.11262e-08
0.000171114
-8.76153e-08
0.000171164
-8.15557e-08
0.000171217
-7.39973e-08
0.000171272
-6.54856e-08
0.00017133
-5.63487e-08
0.00017139
-4.69289e-08
0.000171453