/*--------------------------------*- C++ -*----------------------------------*\
  =========                 |
  \\      /  F ield         | OpenFOAM: The Open Source CFD Toolbox
   \\    /   O peration     | Website:  https://openfoam.org
    \\  /    A nd           | Version:  10
     \\/     M anipulation  |
\*---------------------------------------------------------------------------*/
FoamFile
{
    format      ascii;
    class       volVectorField;
    location    "0.115";
    object      U;
}
// * * * * * * * * * * * * * * * * * * * * * * * * * * * * * * * * * * * * * //

dimensions      [0 1 -1 0 0 0 0];

internalField   nonuniform List<vector> 
6820
(
(7.28176 0.0248434 0)
(7.17802 0.0401057 0)
(7.05498 0.0451155 0)
(6.92574 0.0478638 0)
(6.79669 0.049067 0)
(6.66822 0.0493824 0)
(6.54075 0.0492505 0)
(6.41476 0.0488609 0)
(6.29033 0.0483282 0)
(6.16741 0.0477302 0)
(6.04594 0.047117 0)
(5.92577 0.0465245 0)
(5.80676 0.0459812 0)
(5.6887 0.0455118 0)
(5.57133 0.0451397 0)
(5.45437 0.0448882 0)
(5.33749 0.0447822 0)
(5.22029 0.0448484 0)
(5.10232 0.0451159 0)
(4.98307 0.0456161 0)
(4.86193 0.0463828 0)
(4.73824 0.0474515 0)
(4.61123 0.0488583 0)
(4.48007 0.0506388 0)
(4.34381 0.052826 0)
(4.20142 0.0554495 0)
(4.05179 0.0585284 0)
(3.89372 0.0621077 0)
(3.72584 0.0661238 0)
(3.54697 0.0710024 0)
(3.35374 0.0758345 0)
(3.14994 0.0843023 0)
(2.90852 0.0950049 0)
(7.35923 0.0259245 0)
(7.42105 0.0358966 0)
(7.47623 0.0378212 0)
(7.52662 0.040013 0)
(7.57278 0.0416472 0)
(7.61358 0.0430508 0)
(7.64896 0.0445011 0)
(7.67929 0.0460055 0)
(7.70486 0.0475638 0)
(7.72592 0.049187 0)
(7.7427 0.0508832 0)
(7.75545 0.0526626 0)
(7.76436 0.0545415 0)
(7.76959 0.0565421 0)
(7.77128 0.058693 0)
(7.76952 0.0610299 0)
(7.76438 0.0635966 0)
(7.75587 0.0664458 0)
(7.74397 0.0696405 0)
(7.72859 0.0732549 0)
(7.7096 0.0773758 0)
(7.68677 0.0821031 0)
(7.65981 0.0875511 0)
(7.62832 0.0938485 0)
(7.59179 0.10114 0)
(7.54958 0.109585 0)
(7.50089 0.119366 0)
(7.44471 0.130699 0)
(7.37995 0.143819 0)
(7.30477 0.159262 0)
(7.21863 0.177019 0)
(7.11527 0.200595 0)
(7.00697 0.224962 0)
(7.33541 0.00697975 0)
(7.34555 0.0103043 0)
(7.35441 0.0130137 0)
(7.36199 0.0165822 0)
(7.37017 0.019632 0)
(7.37882 0.0223332 0)
(7.3879 0.0249146 0)
(7.39755 0.0273865 0)
(7.40779 0.029771 0)
(7.41856 0.0321094 0)
(7.4298 0.0344372 0)
(7.44146 0.036788 0)
(7.45349 0.0391968 0)
(7.46581 0.0417014 0)
(7.47839 0.0443443 0)
(7.49119 0.0471739 0)
(7.50415 0.0502465 0)
(7.51728 0.0536275 0)
(7.53055 0.0573936 0)
(7.54399 0.0616345 0)
(7.55761 0.066456 0)
(7.57145 0.0719812 0)
(7.58558 0.0783542 0)
(7.60007 0.0857418 0)
(7.61499 0.094338 0)
(7.63044 0.104366 0)
(7.6465 0.116094 0)
(7.66325 0.129825 0)
(7.68073 0.145988 0)
(7.69913 0.165015 0)
(7.71839 0.187881 0)
(7.73992 0.215098 0)
(7.7638 0.248902 0)
(7.33493 0.00935011 0)
(7.34242 0.020291 0)
(7.34785 0.025917 0)
(7.35101 0.0297876 0)
(7.35364 0.032411 0)
(7.35576 0.0343091 0)
(7.35734 0.0358969 0)
(7.35855 0.0373187 0)
(7.35948 0.0386556 0)
(7.36018 0.0399762 0)
(7.36068 0.0413277 0)
(7.36102 0.0427458 0)
(7.36122 0.0442636 0)
(7.36132 0.0459134 0)
(7.36133 0.047729 0)
(7.36127 0.049747 0)
(7.36118 0.0520093 0)
(7.36109 0.0545646 0)
(7.36103 0.0574693 0)
(7.36107 0.0607895 0)
(7.36128 0.0646019 0)
(7.36175 0.0689958 0)
(7.36261 0.0740748 0)
(7.36404 0.0799589 0)
(7.36624 0.0867873 0)
(7.36952 0.0947223 0)
(7.37421 0.103955 0)
(7.38081 0.114716 0)
(7.38989 0.127273 0)
(7.4024 0.142 0)
(7.41917 0.159162 0)
(7.44288 0.179482 0)
(7.47348 0.201491 0)
(7.33399 0.00645776 0)
(7.33868 0.0129317 0)
(7.34317 0.0159304 0)
(7.34655 0.018703 0)
(7.34957 0.0212468 0)
(7.35216 0.0235372 0)
(7.3542 0.0257565 0)
(7.35578 0.0279459 0)
(7.35698 0.0301138 0)
(7.3578 0.032285 0)
(7.35826 0.0344835 0)
(7.35836 0.0367327 0)
(7.35812 0.0390567 0)
(7.35754 0.0414854 0)
(7.3566 0.0440538 0)
(7.35533 0.0468016 0)
(7.35371 0.0497735 0)
(7.35176 0.0530199 0)
(7.34948 0.056598 0)
(7.34689 0.0605723 0)
(7.34403 0.0650158 0)
(7.34094 0.0700102 0)
(7.33767 0.0756462 0)
(7.33433 0.0820233 0)
(7.33103 0.08925 0)
(7.32795 0.0974432 0)
(7.3253 0.106727 0)
(7.32343 0.117232 0)
(7.32273 0.129077 0)
(7.32392 0.142397 0)
(7.32767 0.157128 0)
(7.33579 0.173366 0)
(7.3487 0.189523 0)
(7.33374 0.00543778 0)
(7.33768 0.0133804 0)
(7.34189 0.0188257 0)
(7.34509 0.0233016 0)
(7.34779 0.0268799 0)
(7.35008 0.0297233 0)
(7.35192 0.0321479 0)
(7.35338 0.0343222 0)
(7.35452 0.0363392 0)
(7.35535 0.0382792 0)
(7.3559 0.0402053 0)
(7.35615 0.0421668 0)
(7.35613 0.0442112 0)
(7.35582 0.0463765 0)
(7.35523 0.0486993 0)
(7.35435 0.0512199 0)
(7.35319 0.0539819 0)
(7.35175 0.0570339 0)
(7.35004 0.0604288 0)
(7.34808 0.0642255 0)
(7.3459 0.0684882 0)
(7.34353 0.073287 0)
(7.34103 0.0786974 0)
(7.33848 0.0847996 0)
(7.33598 0.0916763 0)
(7.33368 0.0994112 0)
(7.33177 0.108082 0)
(7.33051 0.117756 0)
(7.33022 0.12846 0)
(7.33142 0.140192 0)
(7.33461 0.152718 0)
(7.3409 0.16581 0)
(7.35055 0.178095 0)
(7.33346 0.0045532 0)
(7.33616 0.0114003 0)
(7.33943 0.0157476 0)
(7.34216 0.0190753 0)
(7.3446 0.0218437 0)
(7.3468 0.0242314 0)
(7.34866 0.0264594 0)
(7.35019 0.028631 0)
(7.35143 0.0307877 0)
(7.35239 0.0329672 0)
(7.35306 0.0352018 0)
(7.35346 0.0375192 0)
(7.3536 0.0399354 0)
(7.35347 0.0424852 0)
(7.35308 0.0452079 0)
(7.35244 0.0481403 0)
(7.35154 0.0513215 0)
(7.35041 0.0547942 0)
(7.34906 0.0586058 0)
(7.34752 0.0628082 0)
(7.34583 0.0674577 0)
(7.34403 0.0726141 0)
(7.34219 0.0783399 0)
(7.3404 0.0846973 0)
(7.33877 0.0917456 0)
(7.33745 0.0995369 0)
(7.33664 0.108106 0)
(7.33658 0.117464 0)
(7.33756 0.127559 0)
(7.34 0.138284 0)
(7.3443 0.149316 0)
(7.35117 0.160248 0)
(7.36069 0.169986 0)
(7.33331 0.0039009 0)
(7.33543 0.0104336 0)
(7.33832 0.0153244 0)
(7.34093 0.019449 0)
(7.34328 0.0230407 0)
(7.34537 0.0261447 0)
(7.34713 0.0289167 0)
(7.34857 0.0314762 0)
(7.34973 0.0338968 0)
(7.35062 0.0362433 0)
(7.35126 0.0385726 0)
(7.35164 0.0409309 0)
(7.35178 0.0433795 0)
(7.35168 0.0459556 0)
(7.35135 0.048682 0)
(7.35079 0.0515967 0)
(7.35003 0.054742 0)
(7.34906 0.0581626 0)
(7.34792 0.0619049 0)
(7.34663 0.0660173 0)
(7.34523 0.0705493 0)
(7.34378 0.075551 0)
(7.34235 0.081071 0)
(7.34102 0.0871539 0)
(7.3399 0.0938363 0)
(7.33915 0.101141 0)
(7.33893 0.109066 0)
(7.33947 0.117575 0)
(7.34101 0.126569 0)
(7.34387 0.135872 0)
(7.34835 0.145139 0)
(7.35487 0.153912 0)
(7.36341 0.161352 0)
(7.33321 0.00342978 0)
(7.3348 0.00946253 0)
(7.33715 0.0140932 0)
(7.33938 0.0178527 0)
(7.34143 0.0210404 0)
(7.34332 0.0237935 0)
(7.34498 0.0262928 0)
(7.34639 0.0286687 0)
(7.34756 0.0309941 0)
(7.34851 0.0333231 0)
(7.34922 0.0357003 0)
(7.3497 0.0381657 0)
(7.34997 0.0407302 0)
(7.35001 0.043421 0)
(7.34984 0.0462954 0)
(7.34947 0.0493889 0)
(7.34892 0.0527349 0)
(7.34819 0.0563685 0)
(7.34732 0.0603264 0)
(7.34634 0.064647 0)
(7.34529 0.069369 0)
(7.34422 0.0745296 0)
(7.3432 0.0801626 0)
(7.34232 0.0862945 0)
(7.34168 0.0929399 0)
(7.34141 0.100096 0)
(7.34167 0.107731 0)
(7.34263 0.115774 0)
(7.34448 0.124093 0)
(7.34747 0.132482 0)
(7.35176 0.140602 0)
(7.35756 0.148008 0)
(7.36477 0.154071 0)
(7.33315 0.00306457 0)
(7.33439 0.00867556 0)
(7.33638 0.0132654 0)
(7.33843 0.0171756 0)
(7.34036 0.0206492 0)
(7.34217 0.0237698 0)
(7.34378 0.026644 0)
(7.34517 0.0293636 0)
(7.34633 0.0319885 0)
(7.34727 0.03457 0)
(7.348 0.0371547 0)
(7.34851 0.0397827 0)
(7.34883 0.042509 0)
(7.34896 0.045374 0)
(7.3489 0.0483931 0)
(7.34866 0.0515972 0)
(7.34827 0.0550219 0)
(7.34773 0.0587037 0)
(7.34708 0.0626787 0)
(7.34635 0.0669823 0)
(7.34559 0.0716476 0)
(7.34484 0.0767039 0)
(7.34417 0.0821745 0)
(7.34367 0.0880728 0)
(7.34342 0.094398 0)
(7.34355 0.101129 0)
(7.34416 0.108214 0)
(7.34541 0.115564 0)
(7.34743 0.123033 0)
(7.35037 0.130412 0)
(7.35432 0.137396 0)
(7.35935 0.143592 0)
(7.36529 0.148546 0)
(7.33311 0.00278121 0)
(7.33409 0.00800913 0)
(7.33575 0.0124451 0)
(7.33754 0.0162524 0)
(7.33927 0.0196152 0)
(7.34091 0.0226221 0)
(7.34241 0.0253829 0)
(7.34373 0.028001 0)
(7.34486 0.0305496 0)
(7.34582 0.0330857 0)
(7.34659 0.0356576 0)
(7.34718 0.0383057 0)
(7.34759 0.0410533 0)
(7.34783 0.04393 0)
(7.3479 0.0469783 0)
(7.34784 0.050233 0)
(7.34764 0.0537245 0)
(7.34733 0.0574822 0)
(7.34694 0.0615339 0)
(7.3465 0.0659061 0)
(7.34605 0.0706218 0)
(7.34565 0.0756996 0)
(7.34535 0.0811501 0)
(7.34522 0.0869732 0)
(7.34534 0.0931536 0)
(7.34582 0.0996552 0)
(7.34673 0.106414 0)
(7.3482 0.113331 0)
(7.35031 0.120259 0)
(7.35313 0.127003 0)
(7.3567 0.133299 0)
(7.36099 0.138825 0)
(7.3658 0.14326 0)
(7.33308 0.00255371 0)
(7.33387 0.00743982 0)
(7.33529 0.0117283 0)
(7.33689 0.0155017 0)
(7.33848 0.0189116 0)
(7.34004 0.0220388 0)
(7.34148 0.0249668 0)
(7.34279 0.0277743 0)
(7.34393 0.0305184 0)
(7.34491 0.0332455 0)
(7.34572 0.0359972 0)
(7.34638 0.03881 0)
(7.34688 0.0417209 0)
(7.34723 0.044764 0)
(7.34745 0.0479663 0)
(7.34754 0.051353 0)
(7.34752 0.0549507 0)
(7.34741 0.0587855 0)
(7.34724 0.0628825 0)
(7.34705 0.0672639 0)
(7.34687 0.0719478 0)
(7.34675 0.0769462 0)
(7.34675 0.0822626 0)
(7.34693 0.0878891 0)
(7.34735 0.0938024 0)
(7.34808 0.0999593 0)
(7.34921 0.106292 0)
(7.3508 0.112702 0)
(7.3529 0.119055 0)
(7.35555 0.125178 0)
(7.3587 0.13086 0)
(7.3623 0.135847 0)
(7.36615 0.139929 0)
(7.33307 0.00236666 0)
(7.33371 0.00695053 0)
(7.33492 0.0110788 0)
(7.33634 0.0147732 0)
(7.33779 0.0181389 0)
(7.33923 0.0212416 0)
(7.34059 0.024151 0)
(7.34184 0.0269399 0)
(7.34296 0.0296681 0)
(7.34395 0.0323849 0)
(7.3448 0.0351336 0)
(7.34552 0.0379511 0)
(7.3461 0.0408685 0)
(7.34656 0.0439148 0)
(7.34691 0.04712 0)
(7.34716 0.0505122 0)
(7.34733 0.054117 0)
(7.34743 0.0579573 0)
(7.3475 0.062053 0)
(7.34757 0.0664204 0)
(7.34767 0.0710708 0)
(7.34785 0.0760087 0)
(7.34814 0.0812301 0)
(7.34861 0.0867194 0)
(7.34931 0.0924469 0)
(7.3503 0.0983655 0)
(7.35161 0.104407 0)
(7.3533 0.110479 0)
(7.35538 0.116463 0)
(7.35785 0.122215 0)
(7.36066 0.12757 0)
(7.36369 0.13234 0)
(7.36678 0.136396 0)
(7.33305 0.00220904 0)
(7.33359 0.0065238 0)
(7.33464 0.010491 0)
(7.33591 0.0141045 0)
(7.33725 0.0174425 0)
(7.3386 0.0205642 0)
(7.33991 0.0235295 0)
(7.34114 0.0264005 0)
(7.34227 0.0292284 0)
(7.3433 0.0320555 0)
(7.34421 0.0349192 0)
(7.345 0.0378523 0)
(7.34569 0.0408844 0)
(7.34627 0.0440441 0)
(7.34676 0.0473569 0)
(7.34717 0.0508453 0)
(7.34752 0.0545294 0)
(7.34783 0.0584274 0)
(7.34812 0.0625548 0)
(7.34842 0.0669233 0)
(7.34877 0.0715397 0)
(7.3492 0.076404 0)
(7.34975 0.0815081 0)
(7.35047 0.0868332 0)
(7.35139 0.0923479 0)
(7.35256 0.0980062 0)
(7.35401 0.103745 0)
(7.35575 0.109485 0)
(7.35779 0.115126 0)
(7.36009 0.120557 0)
(7.36259 0.125654 0)
(7.36517 0.130289 0)
(7.36767 0.134393 0)
(7.33305 0.00207311 0)
(7.33351 0.006147 0)
(7.33442 0.00995493 0)
(7.33556 0.0134762 0)
(7.33679 0.0167637 0)
(7.33806 0.0198647 0)
(7.33932 0.0228275 0)
(7.34052 0.0257041 0)
(7.34164 0.0285412 0)
(7.34269 0.031379 0)
(7.34364 0.0342538 0)
(7.3445 0.0371975 0)
(7.34527 0.0402387 0)
(7.34597 0.0434033 0)
(7.34659 0.0467149 0)
(7.34715 0.0501953 0)
(7.34768 0.0538633 0)
(7.34818 0.0577352 0)
(7.34868 0.0618236 0)
(7.34922 0.0661369 0)
(7.34981 0.0706779 0)
(7.35049 0.0754432 0)
(7.35129 0.0804213 0)
(7.35224 0.0855914 0)
(7.35338 0.090922 0)
(7.35473 0.09637 0)
(7.35631 0.10188 0)
(7.35811 0.107383 0)
(7.36013 0.112802 0)
(7.36231 0.118051 0)
(7.3646 0.123045 0)
(7.36687 0.127702 0)
(7.369 0.131994 0)
(7.33304 0.00195336 0)
(7.33344 0.00580941 0)
(7.33424 0.00946156 0)
(7.33528 0.0128846 0)
(7.33643 0.0161154 0)
(7.33763 0.0191933 0)
(7.33885 0.0221602 0)
(7.34003 0.0250612 0)
(7.34117 0.0279379 0)
(7.34225 0.0308265 0)
(7.34326 0.0337592 0)
(7.3442 0.0367647 0)
(7.34508 0.0398684 0)
(7.34589 0.0430936 0)
(7.34666 0.0464612 0)
(7.34738 0.0499892 0)
(7.34808 0.0536928 0)
(7.34878 0.0575843 0)
(7.34949 0.0616724 0)
(7.35024 0.0659619 0)
(7.35106 0.0704526 0)
(7.35196 0.0751385 0)
(7.35298 0.0800068 0)
(7.35415 0.0850367 0)
(7.35547 0.0901993 0)
(7.35697 0.0954565 0)
(7.35866 0.100762 0)
(7.36051 0.106062 0)
(7.36252 0.111297 0)
(7.36463 0.116408 0)
(7.36678 0.121341 0)
(7.36886 0.126048 0)
(7.37077 0.130533 0)
(7.33303 0.00184576 0)
(7.33339 0.00550242 0)
(7.33411 0.00900292 0)
(7.33506 0.0123226 0)
(7.33613 0.0154863 0)
(7.33728 0.0185256 0)
(7.33846 0.0214746 0)
(7.33963 0.024371 0)
(7.34078 0.0272508 0)
(7.34189 0.0301463 0)
(7.34295 0.0330868 0)
(7.34396 0.0360987 0)
(7.34493 0.0392056 0)
(7.34585 0.0424286 0)
(7.34675 0.0457865 0)
(7.34762 0.0492954 0)
(7.34849 0.0529686 0)
(7.34937 0.0568165 0)
(7.35028 0.060846 0)
(7.35124 0.0650602 0)
(7.35227 0.0694572 0)
(7.35339 0.0740301 0)
(7.35462 0.0787658 0)
(7.35598 0.0836453 0)
(7.35749 0.0886427 0)
(7.35914 0.0937261 0)
(7.36094 0.0988581 0)
(7.36288 0.103998 0)
(7.36492 0.109103 0)
(7.36702 0.114135 0)
(7.36912 0.119062 0)
(7.37114 0.123864 0)
(7.37298 0.128565 0)
(7.33303 0.00174725 0)
(7.33335 0.00521899 0)
(7.334 0.00857167 0)
(7.33488 0.011784 0)
(7.3359 0.0148729 0)
(7.337 0.017864 0)
(7.33815 0.0207865 0)
(7.33932 0.0236727 0)
(7.34048 0.0265542 0)
(7.34163 0.02946 0)
(7.34275 0.0324165 0)
(7.34385 0.0354471 0)
(7.34491 0.0385731 0)
(7.34596 0.0418129 0)
(7.34699 0.0451827 0)
(7.34802 0.0486958 0)
(7.34906 0.0523631 0)
(7.35012 0.0561923 0)
(7.35122 0.0601878 0)
(7.35238 0.0643506 0)
(7.35361 0.0686772 0)
(7.35493 0.0731601 0)
(7.35636 0.0777867 0)
(7.35791 0.08254 0)
(7.35958 0.087398 0)
(7.36139 0.0923351 0)
(7.36331 0.0973229 0)
(7.36534 0.102332 0)
(7.36744 0.107334 0)
(7.36958 0.112308 0)
(7.37171 0.117239 0)
(7.37375 0.122125 0)
(7.37565 0.127 0)
(7.33303 0.00165549 0)
(7.33332 0.00495328 0)
(7.33392 0.00816127 0)
(7.33475 0.0112625 0)
(7.33571 0.014269 0)
(7.33678 0.0172014 0)
(7.33791 0.0200839 0)
(7.33908 0.0229438 0)
(7.34027 0.025808 0)
(7.34145 0.0287019 0)
(7.34263 0.0316484 0)
(7.3438 0.0346686 0)
(7.34496 0.0377809 0)
(7.34612 0.0410017 0)
(7.34728 0.044345 0)
(7.34845 0.0478221 0)
(7.34965 0.0514421 0)
(7.35088 0.0552113 0)
(7.35216 0.0591328 0)
(7.35351 0.0632066 0)
(7.35493 0.0674292 0)
(7.35645 0.0717933 0)
(7.35807 0.0762879 0)
(7.3598 0.0808988 0)
(7.36164 0.0856083 0)
(7.3636 0.0903967 0)
(7.36566 0.0952436 0)
(7.3678 0.100129 0)
(7.37001 0.105037 0)
(7.37225 0.109956 0)
(7.37447 0.114886 0)
(7.37663 0.119835 0)
(7.37868 0.124841 0)
(7.33303 0.00156861 0)
(7.3333 0.00470042 0)
(7.33386 0.00776587 0)
(7.33464 0.0107526 0)
(7.33557 0.0136695 0)
(7.33661 0.0165337 0)
(7.33773 0.0193656 0)
(7.33891 0.0221883 0)
(7.34012 0.0250252 0)
(7.34135 0.0278985 0)
(7.34259 0.0308285 0)
(7.34384 0.0338335 0)
(7.3451 0.03693 0)
(7.34637 0.0401318 0)
(7.34766 0.0434508 0)
(7.34898 0.0468966 0)
(7.35033 0.0504763 0)
(7.35173 0.0541944 0)
(7.35319 0.0580527 0)
(7.35472 0.0620502 0)
(7.35633 0.0661831 0)
(7.35803 0.0704445 0)
(7.35983 0.0748249 0)
(7.36174 0.0793123 0)
(7.36375 0.0838931 0)
(7.36586 0.0885529 0)
(7.36807 0.0932773 0)
(7.37035 0.0980545 0)
(7.3727 0.102876 0)
(7.37507 0.10774 0)
(7.37744 0.112653 0)
(7.37977 0.117629 0)
(7.38205 0.122705 0)
(7.33302 0.00148508 0)
(7.33328 0.0044563 0)
(7.33381 0.00738019 0)
(7.33456 0.0102487 0)
(7.33546 0.0130691 0)
(7.33649 0.0158555 0)
(7.33761 0.0186252 0)
(7.33879 0.0213977 0)
(7.34003 0.0241927 0)
(7.34131 0.0270291 0)
(7.34261 0.0299244 0)
(7.34394 0.0328944 0)
(7.3453 0.0359529 0)
(7.34668 0.0391118 0)
(7.3481 0.0423811 0)
(7.34955 0.0457685 0)
(7.35106 0.0492797 0)
(7.35262 0.0529181 0)
(7.35425 0.0566847 0)
(7.35595 0.0605784 0)
(7.35774 0.0645955 0)
(7.35962 0.0687302 0)
(7.3616 0.0729748 0)
(7.36367 0.0773199 0)
(7.36585 0.0817557 0)
(7.36813 0.086272 0)
(7.3705 0.0908599 0)
(7.37294 0.095513 0)
(7.37544 0.100229 0)
(7.37799 0.105011 0)
(7.38055 0.109869 0)
(7.38311 0.114821 0)
(7.38565 0.119899 0)
(7.33302 0.00140361 0)
(7.33327 0.00421735 0)
(7.33378 0.00699946 0)
(7.3345 0.00974573 0)
(7.33539 0.0124627 0)
(7.3364 0.0151625 0)
(7.33753 0.0178597 0)
(7.33873 0.0205708 0)
(7.34 0.0233126 0)
(7.34132 0.0261013 0)
(7.34269 0.0289519 0)
(7.3441 0.0318778 0)
(7.34555 0.0348909 0)
(7.34705 0.038001 0)
(7.34859 0.0412163 0)
(7.35018 0.044543 0)
(7.35183 0.0479855 0)
(7.35355 0.051546 0)
(7.35534 0.0552249 0)
(7.35721 0.0590206 0)
(7.35917 0.0629296 0)
(7.36122 0.066947 0)
(7.36337 0.0710662 0)
(7.36563 0.0752803 0)
(7.36798 0.0795817 0)
(7.37042 0.0839637 0)
(7.37296 0.0884212 0)
(7.37557 0.0929515 0)
(7.37826 0.0975557 0)
(7.381 0.102239 0)
(7.38378 0.107014 0)
(7.38659 0.111896 0)
(7.38942 0.116914 0)
(7.33302 0.00132309 0)
(7.33326 0.00398042 0)
(7.33376 0.00661922 0)
(7.33447 0.00923862 0)
(7.33534 0.0118449 0)
(7.33635 0.0144483 0)
(7.33749 0.0170614 0)
(7.33871 0.0196979 0)
(7.34002 0.0223717 0)
(7.34139 0.0250964 0)
(7.34283 0.0278845 0)
(7.34432 0.0307471 0)
(7.34587 0.033694 0)
(7.34747 0.0367332 0)
(7.34913 0.0398712 0)
(7.35086 0.043113 0)
(7.35265 0.0464617 0)
(7.35452 0.049919 0)
(7.35646 0.0534846 0)
(7.3585 0.0571571 0)
(7.36062 0.0609334 0)
(7.36285 0.0648094 0)
(7.36517 0.0687802 0)
(7.36759 0.0728403 0)
(7.37011 0.0769848 0)
(7.37273 0.0812094 0)
(7.37544 0.0855116 0)
(7.37824 0.0898909 0)
(7.38112 0.0943503 0)
(7.38407 0.0988961 0)
(7.38708 0.103539 0)
(7.39015 0.108293 0)
(7.39328 0.113181 0)
(7.33302 0.00124253 0)
(7.33325 0.00374273 0)
(7.33374 0.00623556 0)
(7.33444 0.00872312 0)
(7.33531 0.0112117 0)
(7.33633 0.0137107 0)
(7.33748 0.0162307 0)
(7.33873 0.0187834 0)
(7.34008 0.0213805 0)
(7.34151 0.024033 0)
(7.34301 0.0267513 0)
(7.34458 0.0295446 0)
(7.34622 0.0324204 0)
(7.34792 0.0353854 0)
(7.3497 0.0384444 0)
(7.35155 0.0416009 0)
(7.35348 0.0448571 0)
(7.35549 0.0482137 0)
(7.35759 0.0516702 0)
(7.35978 0.0552247 0)
(7.36207 0.0588745 0)
(7.36445 0.0626159 0)
(7.36694 0.0664449 0)
(7.36953 0.0703573 0)
(7.37222 0.0743495 0)
(7.37501 0.0784188 0)
(7.3779 0.0825638 0)
(7.38089 0.0867853 0)
(7.38396 0.0910862 0)
(7.38713 0.0954724 0)
(7.39038 0.0999528 0)
(7.39371 0.104538 0)
(7.39714 0.109244 0)
(7.33302 0.00116103 0)
(7.33325 0.00350159 0)
(7.33374 0.00584423 0)
(7.33444 0.00819344 0)
(7.33531 0.0105555 0)
(7.33634 0.0129386 0)
(7.33751 0.0153517 0)
(7.3388 0.0178043 0)
(7.34019 0.0203057 0)
(7.34167 0.0228651 0)
(7.34324 0.0254905 0)
(7.3449 0.0281893 0)
(7.34663 0.0309676 0)
(7.34844 0.0338303 0)
(7.35034 0.0367812 0)
(7.35231 0.0398229 0)
(7.35437 0.0429566 0)
(7.35652 0.0461827 0)
(7.35877 0.0495003 0)
(7.36111 0.0529076 0)
(7.36355 0.0564022 0)
(7.36609 0.0599809 0)
(7.36874 0.0636406 0)
(7.37149 0.0673781 0)
(7.37435 0.0711906 0)
(7.37732 0.0750763 0)
(7.38038 0.0790343 0)
(7.38355 0.0830655 0)
(7.38682 0.0871723 0)
(7.3902 0.0913591 0)
(7.39367 0.0956322 0)
(7.39726 0.0999982 0)
(7.40095 0.104469 0)
(7.33302 0.00107774 0)
(7.33325 0.00325475 0)
(7.33374 0.0054425 0)
(7.33444 0.00764788 0)
(7.33532 0.00987771 0)
(7.33637 0.0121396 0)
(7.33756 0.0144415 0)
(7.33888 0.0167911 0)
(7.34031 0.0191959 0)
(7.34185 0.0216628 0)
(7.34349 0.0241979 0)
(7.34522 0.0268066 0)
(7.34704 0.0294931 0)
(7.34895 0.0322608 0)
(7.35095 0.0351119 0)
(7.35305 0.0380477 0)
(7.35523 0.0410686 0)
(7.35751 0.0441741 0)
(7.3599 0.0473629 0)
(7.36238 0.0506329 0)
(7.36497 0.0539814 0)
(7.36766 0.0574058 0)
(7.37047 0.0609031 0)
(7.37338 0.0644705 0)
(7.3764 0.0681056 0)
(7.37953 0.0718065 0)
(7.38277 0.0755726 0)
(7.38612 0.0794038 0)
(7.38958 0.0833016 0)
(7.39315 0.0872684 0)
(7.39684 0.0913077 0)
(7.40066 0.0954224 0)
(7.4046 0.0996203 0)
(7.33302 0.000991768 0)
(7.33325 0.00299914 0)
(7.33374 0.00502426 0)
(7.33446 0.00707544 0)
(7.33536 0.00915917 0)
(7.33643 0.011282 0)
(7.33765 0.0134504 0)
(7.33902 0.0156704 0)
(7.3405 0.0179479 0)
(7.34211 0.0202881 0)
(7.34382 0.0226958 0)
(7.34563 0.025175 0)
(7.34755 0.0277289 0)
(7.34956 0.0303597 0)
(7.35167 0.0330689 0)
(7.35388 0.0358572 0)
(7.35619 0.0387244 0)
(7.3586 0.0416696 0)
(7.36111 0.0446913 0)
(7.36374 0.0477874 0)
(7.36646 0.0509556 0)
(7.3693 0.0541929 0)
(7.37225 0.0574968 0)
(7.37531 0.0608644 0)
(7.37849 0.0642933 0)
(7.38177 0.0677816 0)
(7.38517 0.0713277 0)
(7.38869 0.0749308 0)
(7.39232 0.0785908 0)
(7.39608 0.082308 0)
(7.39996 0.086083 0)
(7.40397 0.0899155 0)
(7.40812 0.0938093 0)
(7.33302 0.000902409 0)
(7.33325 0.00273381 0)
(7.33375 0.00459137 0)
(7.33448 0.00648597 0)
(7.3354 0.0084249 0)
(7.33649 0.0104143 0)
(7.33774 0.0124596 0)
(7.33914 0.0145648 0)
(7.34068 0.0167335 0)
(7.34233 0.0189688 0)
(7.34411 0.021273 0)
(7.346 0.0236481 0)
(7.34799 0.0260954 0)
(7.35009 0.0286153 0)
(7.3523 0.0312081 0)
(7.35462 0.0338731 0)
(7.35704 0.0366093 0)
(7.35957 0.0394151 0)
(7.36222 0.0422883 0)
(7.36497 0.0452268 0)
(7.36783 0.0482278 0)
(7.37081 0.0512886 0)
(7.37389 0.0544061 0)
(7.3771 0.0575777 0)
(7.38042 0.0608006 0)
(7.38385 0.0640725 0)
(7.38741 0.0673911 0)
(7.39108 0.0707546 0)
(7.39487 0.0741614 0)
(7.3988 0.0776098 0)
(7.40285 0.0810985 0)
(7.40703 0.0846241 0)
(7.41136 0.0881876 0)
(7.33302 0.000808279 0)
(7.33326 0.0024521 0)
(7.33378 0.0041263 0)
(7.33453 0.00584208 0)
(7.33548 0.007606 0)
(7.33661 0.00942344 0)
(7.33792 0.0112989 0)
(7.33937 0.0132358 0)
(7.34097 0.0152371 0)
(7.34269 0.0173049 0)
(7.34455 0.0194411 0)
(7.34652 0.0216469 0)
(7.3486 0.0239229 0)
(7.3508 0.0262692 0)
(7.35311 0.0286851 0)
(7.35553 0.0311697 0)
(7.35807 0.0337216 0)
(7.36071 0.0363388 0)
(7.36347 0.0390189 0)
(7.36634 0.0417594 0)
(7.36932 0.0445572 0)
(7.37242 0.0474094 0)
(7.37564 0.0503125 0)
(7.37897 0.0532635 0)
(7.38242 0.0562591 0)
(7.38598 0.059296 0)
(7.38966 0.0623712 0)
(7.39347 0.0654814 0)
(7.3974 0.0686235 0)
(7.40145 0.071794 0)
(7.40563 0.0749891 0)
(7.40995 0.0782031 0)
(7.41441 0.0814346 0)
(7.33302 0.000709393 0)
(7.33327 0.0021605 0)
(7.3338 0.00365543 0)
(7.33456 0.00520851 0)
(7.33553 0.00682612 0)
(7.33669 0.00851167 0)
(7.33802 0.0102668 0)
(7.33952 0.0120916 0)
(7.34116 0.0139851 0)
(7.34294 0.0159465 0)
(7.34485 0.0179749 0)
(7.34689 0.0200693 0)
(7.34905 0.0222285 0)
(7.35134 0.0244508 0)
(7.35374 0.0267347 0)
(7.35626 0.0290782 0)
(7.3589 0.0314792 0)
(7.36165 0.0339355 0)
(7.36452 0.0364443 0)
(7.36751 0.0390027 0)
(7.37062 0.0416079 0)
(7.37384 0.0442565 0)
(7.37717 0.0469453 0)
(7.38063 0.049671 0)
(7.3842 0.0524299 0)
(7.38789 0.0552185 0)
(7.3917 0.0580332 0)
(7.39563 0.06087 0)
(7.39968 0.0637247 0)
(7.40385 0.0665928 0)
(7.40815 0.0694692 0)
(7.41258 0.0723466 0)
(7.41714 0.0752228 0)
(7.33303 0.000601406 0)
(7.33329 0.0018314 0)
(7.33386 0.00310218 0)
(7.33467 0.00442896 0)
(7.3357 0.00581945 0)
(7.33692 0.0072784 0)
(7.33832 0.00880885 0)
(7.33989 0.0104117 0)
(7.3416 0.0120867 0)
(7.34345 0.0138329 0)
(7.34544 0.0156491 0)
(7.34756 0.0175338 0)
(7.3498 0.0194852 0)
(7.35217 0.0215013 0)
(7.35466 0.0235796 0)
(7.35727 0.0257176 0)
(7.36 0.0279124 0)
(7.36285 0.0301611 0)
(7.36581 0.0324602 0)
(7.3689 0.0348065 0)
(7.3721 0.0371962 0)
(7.37541 0.0396256 0)
(7.37885 0.0420908 0)
(7.3824 0.0445877 0)
(7.38607 0.047112 0)
(7.38985 0.0496592 0)
(7.39375 0.0522245 0)
(7.39777 0.0548031 0)
(7.4019 0.0573893 0)
(7.40616 0.0599772 0)
(7.41053 0.0625604 0)
(7.41502 0.0651303 0)
(7.41964 0.0676831 0)
(7.33302 0.000490379 0)
(7.33328 0.00151757 0)
(7.33385 0.00261865 0)
(7.33468 0.0038058 0)
(7.33573 0.00507928 0)
(7.33697 0.00643673 0)
(7.33841 0.00787462 0)
(7.34001 0.00938668 0)
(7.34177 0.0109673 0)
(7.34368 0.0126128 0)
(7.34574 0.0143196 0)
(7.34793 0.0160845 0)
(7.35025 0.0179047 0)
(7.3527 0.0197774 0)
(7.35528 0.0216999 0)
(7.35799 0.0236695 0)
(7.36081 0.0256833 0)
(7.36376 0.0277387 0)
(7.36683 0.0298325 0)
(7.37002 0.0319618 0)
(7.37333 0.0341231 0)
(7.37676 0.0363131 0)
(7.3803 0.038528 0)
(7.38395 0.0407639 0)
(7.38772 0.0430168 0)
(7.39161 0.0452823 0)
(7.3956 0.0475557 0)
(7.39971 0.0498319 0)
(7.40392 0.0521053 0)
(7.40825 0.0543697 0)
(7.41268 0.0566187 0)
(7.41723 0.0588435 0)
(7.42188 0.0610402 0)
(7.33303 0.000351249 0)
(7.33336 0.00107176 0)
(7.33402 0.00184752 0)
(7.33495 0.00270533 0)
(7.33609 0.00365551 0)
(7.33743 0.00469872 0)
(7.33894 0.00583675 0)
(7.34062 0.00706541 0)
(7.34245 0.00837779 0)
(7.34442 0.009768 0)
(7.34654 0.011231 0)
(7.34879 0.0127623 0)
(7.35117 0.0143575 0)
(7.35369 0.0160119 0)
(7.35633 0.0177214 0)
(7.3591 0.0194819 0)
(7.36199 0.0212892 0)
(7.365 0.0231394 0)
(7.36814 0.0250283 0)
(7.3714 0.026952 0)
(7.37477 0.0289063 0)
(7.37826 0.0308868 0)
(7.38186 0.0328892 0)
(7.38558 0.0349086 0)
(7.38941 0.0369402 0)
(7.39335 0.0389789 0)
(7.3974 0.041019 0)
(7.40155 0.0430545 0)
(7.40581 0.045079 0)
(7.41017 0.0470856 0)
(7.41463 0.0490671 0)
(7.41919 0.0510142 0)
(7.42384 0.0529225 0)
(7.33302 0.000241807 0)
(7.3333 0.000813173 0)
(7.33394 0.00151133 0)
(7.33487 0.0023185 0)
(7.33604 0.00323091 0)
(7.33742 0.00424006 0)
(7.33899 0.00533296 0)
(7.34074 0.00649346 0)
(7.34264 0.00771558 0)
(7.34469 0.00899534 0)
(7.34689 0.0103267 0)
(7.34923 0.0117057 0)
(7.3517 0.0131293 0)
(7.35431 0.0145942 0)
(7.35705 0.0160975 0)
(7.35991 0.0176362 0)
(7.36291 0.0192075 0)
(7.36602 0.0208086 0)
(7.36925 0.0224365 0)
(7.37261 0.0240882 0)
(7.37608 0.0257604 0)
(7.37966 0.0274496 0)
(7.38335 0.0291522 0)
(7.38716 0.0308644 0)
(7.39107 0.0325821 0)
(7.39508 0.034301 0)
(7.39919 0.0360163 0)
(7.4034 0.0377229 0)
(7.4077 0.0394154 0)
(7.41209 0.0410874 0)
(7.41656 0.0427325 0)
(7.42112 0.0443421 0)
(7.42576 0.0459121 0)
(7.33306 -6.78434e-06 0)
(7.33353 -8.76048e-06 0)
(7.33436 0.000114585 0)
(7.33543 0.000412926 0)
(7.33672 0.000863495 0)
(7.3382 0.00144733 0)
(7.33984 0.00218626 0)
(7.34162 0.00304313 0)
(7.34356 0.00399194 0)
(7.34564 0.00502308 0)
(7.34787 0.00612799 0)
(7.35023 0.00729939 0)
(7.35273 0.00852914 0)
(7.35536 0.00981031 0)
(7.35812 0.0111375 0)
(7.36102 0.0125054 0)
(7.36404 0.0139086 0)
(7.36718 0.0153428 0)
(7.37045 0.016804 0)
(7.37383 0.018288 0)
(7.37734 0.0197906 0)
(7.38095 0.0213073 0)
(7.38468 0.0228339 0)
(7.38851 0.0243656 0)
(7.39245 0.0258977 0)
(7.39649 0.0274249 0)
(7.40062 0.0289421 0)
(7.40485 0.0304432 0)
(7.40916 0.0319219 0)
(7.41356 0.0333717 0)
(7.41804 0.034786 0)
(7.42258 0.036157 0)
(7.4272 0.037481 0)
(7.33301 -6.97521e-05 0)
(7.33336 -1.80741e-05 0)
(7.33422 0.000279609 0)
(7.33539 0.000747009 0)
(7.33677 0.00131531 0)
(7.33838 0.00197386 0)
(7.34019 0.0026715 0)
(7.34211 0.00341973 0)
(7.34417 0.00422425 0)
(7.34638 0.0050751 0)
(7.34873 0.00595891 0)
(7.35121 0.00688214 0)
(7.35383 0.00784222 0)
(7.35657 0.00883469 0)
(7.35944 0.00985625 0)
(7.36244 0.0109043 0)
(7.36556 0.0119764 0)
(7.3688 0.0130708 0)
(7.37216 0.0141844 0)
(7.37564 0.0153141 0)
(7.37922 0.0164571 0)
(7.38292 0.0176106 0)
(7.38671 0.0187716 0)
(7.39061 0.0199369 0)
(7.3946 0.0211034 0)
(7.39868 0.0222677 0)
(7.40285 0.0234266 0)
(7.40709 0.0245765 0)
(7.41141 0.0257133 0)
(7.4158 0.0268321 0)
(7.42025 0.0279262 0)
(7.42476 0.0289879 0)
(7.42932 0.0300122 0)
(7.33314 -0.000655727 0)
(7.33397 -0.00178377 0)
(7.33513 -0.00244166 0)
(7.33642 -0.00274174 0)
(7.33785 -0.00276866 0)
(7.33941 -0.00255524 0)
(7.3411 -0.00218976 0)
(7.34297 -0.00169062 0)
(7.34499 -0.00107756 0)
(7.34715 -0.000375737 0)
(7.34945 0.000403775 0)
(7.35189 0.00123702 0)
(7.35448 0.00211417 0)
(7.3572 0.00302874 0)
(7.36005 0.0039766 0)
(7.36304 0.00495114 0)
(7.36616 0.00594126 0)
(7.3694 0.00694863 0)
(7.37276 0.00797087 0)
(7.37624 0.00900376 0)
(7.37983 0.0100436 0)
(7.38353 0.0110866 0)
(7.38734 0.0121292 0)
(7.39125 0.0131673 0)
(7.39526 0.0141968 0)
(7.39936 0.0152135 0)
(7.40355 0.0162127 0)
(7.40782 0.0171895 0)
(7.41217 0.0181389 0)
(7.41658 0.0190554 0)
(7.42104 0.0199352 0)
(7.42555 0.0207751 0)
(7.4301 0.0215744 0)
(7.33308 -0.00027933 0)
(7.33395 -0.000578037 0)
(7.3355 -0.000655808 0)
(7.33724 -0.000666535 0)
(7.33909 -0.000596585 0)
(7.34109 -0.000459217 0)
(7.34319 -0.000247184 0)
(7.3454 1.35814e-05 0)
(7.3477 0.000309816 0)
(7.35012 0.000641854 0)
(7.35266 0.00101645 0)
(7.3553 0.00141997 0)
(7.35805 0.00184931 0)
(7.36093 0.00230469 0)
(7.36392 0.00278282 0)
(7.36702 0.00328328 0)
(7.37024 0.00381039 0)
(7.37358 0.00435539 0)
(7.37704 0.00491486 0)
(7.3806 0.00548753 0)
(7.38427 0.00607143 0)
(7.38804 0.00666442 0)
(7.3919 0.00726457 0)
(7.39585 0.00787017 0)
(7.39989 0.00847978 0)
(7.404 0.00909285 0)
(7.40818 0.00970935 0)
(7.41242 0.0103316 0)
(7.41671 0.0109664 0)
(7.42105 0.0116041 0)
(7.42544 0.0122293 0)
(7.42987 0.0128316 0)
(7.43434 0.0134068 0)
(7.33437 -0.00344677 0)
(7.33912 -0.00635328 0)
(7.34479 -0.00739751 0)
(7.35091 -0.00793841 0)
(7.35734 -0.00806875 0)
(7.36384 -0.00790197 0)
(7.37028 -0.00758566 0)
(7.37661 -0.00718702 0)
(7.3828 -0.00672966 0)
(7.38882 -0.00623314 0)
(7.39467 -0.00571864 0)
(7.40035 -0.00518546 0)
(7.40586 -0.00463882 0)
(7.41121 -0.00408315 0)
(7.4164 -0.00352356 0)
(7.42146 -0.00296062 0)
(7.42639 -0.00238843 0)
(7.43117 -0.0018149 0)
(7.43582 -0.00124333 0)
(7.44037 -0.000674823 0)
(7.44481 -0.000111213 0)
(7.44915 0.000445232 0)
(7.45342 0.000991933 0)
(7.45761 0.00152582 0)
(7.46174 0.00204332 0)
(7.46583 0.00253993 0)
(7.4699 0.00301084 0)
(7.47396 0.00344958 0)
(7.47805 0.00384684 0)
(7.48218 0.00421019 0)
(7.48636 0.0045512 0)
(7.49057 0.00487342 0)
(7.49483 0.00517779 0)
(7.32979 -0.00386906 0)
(7.32466 -0.00798487 0)
(7.31624 -0.0102424 0)
(7.30632 -0.0117942 0)
(7.29633 -0.0127675 0)
(7.28641 -0.0132892 0)
(7.27669 -0.0135091 0)
(7.26736 -0.0135158 0)
(7.25851 -0.0133656 0)
(7.25017 -0.0131008 0)
(7.24238 -0.0127514 0)
(7.23515 -0.0123377 0)
(7.22848 -0.0118754 0)
(7.22237 -0.011377 0)
(7.21681 -0.0108495 0)
(7.21179 -0.0103014 0)
(7.20729 -0.00974469 0)
(7.2033 -0.00917893 0)
(7.19979 -0.00860658 0)
(7.19676 -0.00803203 0)
(7.19417 -0.00745956 0)
(7.19202 -0.00689354 0)
(7.19026 -0.00633899 0)
(7.18888 -0.00580185 0)
(7.18785 -0.00528917 0)
(7.18713 -0.00481026 0)
(7.1867 -0.00437568 0)
(7.18652 -0.00400046 0)
(7.18653 -0.00370745 0)
(7.18671 -0.003484 0)
(7.18704 -0.00330353 0)
(7.18749 -0.00315155 0)
(7.18804 -0.00302061 0)
(2.66497 0.0827644 0)
(2.59005 0.0828925 0)
(2.53683 0.0987392 0)
(2.51108 0.0934738 0)
(2.53585 0.118166 0)
(2.66714 0.168059 0)
(2.98535 0.0339451 0)
(3.57561 -0.444131 0)
(4.01755 -0.99013 0)
(4.04117 -1.16369 0)
(3.6295 -0.874733 0)
(2.54045 -0.556916 0)
(1.09837 -0.478225 0)
(1.04498 0.0846159 0)
(1.94675 1.09786 0)
(2.86418 2.04513 0)
(3.6378 2.7612 0)