/*--------------------------------*- C++ -*----------------------------------*\
  =========                 |
  \\      /  F ield         | OpenFOAM: The Open Source CFD Toolbox
   \\    /   O peration     | Website:  https://openfoam.org
    \\  /    A nd           | Version:  10
     \\/     M anipulation  |
\*---------------------------------------------------------------------------*/
FoamFile
{
    format      ascii;
    class       volScalarField;
    location    "0.02";
    object      nut;
}
// * * * * * * * * * * * * * * * * * * * * * * * * * * * * * * * * * * * * * //

dimensions      [0 2 -1 0 0 0 0];

internalField   nonuniform List<scalar> 
6820
(
0.000503206
0.000397134
0.000324701
0.000269741
0.000237089
0.000214954
0.000198622
0.000186226
0.000176308
0.000168076
0.000161086
0.000155047
0.000149765
0.000145106
0.000140969
0.000137281
0.000133998
0.00013107
0.000128458
0.000126137
0.000124091
0.000122305
0.000120767
0.000119467
0.000118401
0.000117566
0.000116961
0.000116596
0.000116461
0.000116638
0.000116998
0.000117921
0.000117568
8.18311e-05
0.00014367
0.000196331
0.00021076
0.000206387
0.000197608
0.000187455
0.000177681
0.000168873
0.000161014
0.000154003
0.000147723
0.000142067
0.000136946
0.000132289
0.000128035
0.000124126
0.000120535
0.000117227
0.000114176
0.000111357
0.000108743
0.000106313
0.000104046
0.000101925
9.99323e-05
9.80514e-05
9.62609e-05
9.45535e-05
9.28618e-05
9.12491e-05
8.93443e-05
8.7791e-05
3.85937e-05
2.74186e-05
4.29308e-05
7.42154e-05
9.54996e-05
0.00010875
0.000115902
0.000119121
0.000119981
0.000119385
0.00011789
0.000115846
0.000113469
0.000110901
0.000108234
0.000105531
0.000102826
0.000100141
9.74899e-05
9.48761e-05
9.23013e-05
8.97695e-05
8.72779e-05
8.4822e-05
8.23965e-05
7.9994e-05
7.76047e-05
7.52159e-05
7.2809e-05
7.0356e-05
6.78166e-05
6.50867e-05
6.21507e-05
1.99652e-05
2.35517e-05
2.21304e-05
1.29317e-05
2.96005e-06
1.19864e-05
2.22836e-05
3.06912e-05
3.7391e-05
4.26374e-05
4.66726e-05
4.97112e-05
5.19285e-05
5.34649e-05
5.44353e-05
5.49363e-05
5.50477e-05
5.48309e-05
5.4342e-05
5.36136e-05
5.26684e-05
5.15323e-05
5.02311e-05
4.87849e-05
4.72097e-05
4.55177e-05
4.3718e-05
4.18149e-05
3.98087e-05
3.76932e-05
3.54558e-05
3.30983e-05
3.06118e-05
1.32374e-05
1.51135e-05
1.99612e-05
2.20533e-05
2.1518e-05
1.96228e-05
1.70827e-05
1.42689e-05
1.13997e-05
8.60486e-06
5.96795e-06
3.55151e-06
1.44659e-06
9.43072e-07
2.44463e-06
3.82897e-06
4.97916e-06
5.8947e-06
6.58436e-06
7.07372e-06
7.38816e-06
7.53933e-06
7.54058e-06
7.40386e-06
7.13995e-06
6.75903e-06
6.27057e-06
5.68278e-06
5.00245e-06
4.23549e-06
3.38663e-06
2.48098e-06
1.53921e-06
1.01796e-05
1.10557e-05
1.18963e-05
1.26905e-05
1.33082e-05
1.38284e-05
1.42015e-05
1.43971e-05
1.44308e-05
1.43278e-05
1.41128e-05
1.38119e-05
1.34498e-05
1.30469e-05
1.26197e-05
1.2185e-05
1.17568e-05
1.13446e-05
1.09559e-05
1.05907e-05
1.0253e-05
9.9436e-06
9.66173e-06
9.40737e-06
9.1804e-06
8.98055e-06
8.80699e-06
8.65957e-06
8.53524e-06
8.43306e-06
8.33795e-06
8.23684e-06
8.08039e-06
7.51882e-06
8.2852e-06
8.73703e-06
8.98456e-06
8.88685e-06
8.68292e-06
8.51645e-06
8.41855e-06
8.38239e-06
8.38319e-06
8.39385e-06
8.39561e-06
8.37825e-06
8.33804e-06
8.27464e-06
8.1874e-06
8.07683e-06
7.94465e-06
7.79399e-06
7.63249e-06
7.46713e-06
7.29953e-06
7.13168e-06
6.96541e-06
6.80203e-06
6.64281e-06
6.48869e-06
6.34069e-06
6.19759e-06
6.05781e-06
5.91175e-06
5.74848e-06
5.544e-06
5.73069e-06
6.64346e-06
7.07236e-06
7.20085e-06
6.96141e-06
6.61171e-06
6.29415e-06
6.03349e-06
5.8277e-06
5.66686e-06
5.53824e-06
5.43179e-06
5.3404e-06
5.25855e-06
5.18229e-06
5.10913e-06
5.03767e-06
4.9673e-06
4.89782e-06
4.82762e-06
4.75731e-06
4.68835e-06
4.62202e-06
4.55885e-06
4.49914e-06
4.44327e-06
4.39139e-06
4.3433e-06
4.29717e-06
4.24989e-06
4.19418e-06
4.12055e-06
4.01652e-06
4.4509e-06
5.27604e-06
5.60993e-06
5.78369e-06
5.717e-06
5.52349e-06
5.29567e-06
5.06876e-06
4.86236e-06
4.6844e-06
4.5331e-06
4.40403e-06
4.29306e-06
4.19669e-06
4.11225e-06
4.03774e-06
3.97157e-06
3.91265e-06
3.85949e-06
3.81189e-06
3.76938e-06
3.7314e-06
3.69747e-06
3.66747e-06
3.64143e-06
3.61927e-06
3.60048e-06
3.58399e-06
3.56754e-06
3.54768e-06
3.51897e-06
3.47437e-06
3.40775e-06
3.51618e-06
4.26079e-06
4.58309e-06
4.77039e-06
4.75409e-06
4.60917e-06
4.42541e-06
4.24282e-06
4.07856e-06
3.93748e-06
3.81713e-06
3.7137e-06
3.62423e-06
3.54636e-06
3.4783e-06
3.41873e-06
3.36665e-06
3.32141e-06
3.28238e-06
3.24884e-06
3.21973e-06
3.19461e-06
3.17355e-06
3.15656e-06
3.14343e-06
3.13367e-06
3.12644e-06
3.12042e-06
3.11348e-06
3.10264e-06
3.08414e-06
3.05338e-06
3.00789e-06
2.82036e-06
3.47722e-06
3.783e-06
3.96127e-06
3.98347e-06
3.89826e-06
3.77165e-06
3.63499e-06
3.50336e-06
3.38424e-06
3.27934e-06
3.18802e-06
3.10909e-06
3.04116e-06
2.98288e-06
2.93309e-06
2.89093e-06
2.85556e-06
2.82628e-06
2.80253e-06
2.78384e-06
2.76989e-06
2.76039e-06
2.7549e-06
2.75291e-06
2.75375e-06
2.75649e-06
2.75982e-06
2.76193e-06
2.76053e-06
2.75317e-06
2.73721e-06
2.71223e-06
2.28874e-06
2.86323e-06
3.16759e-06
3.35273e-06
3.40938e-06
3.36497e-06
3.27066e-06
3.15812e-06
3.04516e-06
2.94133e-06
2.8498e-06
2.77065e-06
2.70304e-06
2.64581e-06
2.59783e-06
2.55809e-06
2.52575e-06
2.50011e-06
2.48059e-06
2.46663e-06
2.45762e-06
2.45303e-06
2.45242e-06
2.45537e-06
2.46138e-06
2.46978e-06
2.47968e-06
2.48993e-06
2.49914e-06
2.50565e-06
2.50805e-06
2.50499e-06
2.49724e-06
1.87275e-06
2.37697e-06
2.68233e-06
2.872e-06
2.95016e-06
2.93736e-06
2.8746e-06
2.79049e-06
2.7013e-06
2.61601e-06
2.53852e-06
2.47011e-06
2.411e-06
2.36091e-06
2.31926e-06
2.28544e-06
2.25879e-06
2.23876e-06
2.22477e-06
2.21628e-06
2.21276e-06
2.21376e-06
2.21883e-06
2.2275e-06
2.23918e-06
2.25316e-06
2.26861e-06
2.28453e-06
2.29988e-06
2.31355e-06
2.32477e-06
2.33299e-06
2.33962e-06
1.53963e-06
1.98663e-06
2.29363e-06
2.49097e-06
2.58872e-06
2.60329e-06
2.56644e-06
2.50354e-06
2.43055e-06
2.35728e-06
2.28893e-06
2.22787e-06
2.17507e-06
2.13064e-06
2.0943e-06
2.06559e-06
2.04399e-06
2.02895e-06
2.01995e-06
2.01647e-06
2.01797e-06
2.02394e-06
2.03387e-06
2.04723e-06
2.06342e-06
2.08181e-06
2.10167e-06
2.12225e-06
2.14277e-06
2.16256e-06
2.18129e-06
2.1988e-06
2.21688e-06
1.26701e-06
1.67005e-06
1.97867e-06
2.18418e-06
2.29699e-06
2.33223e-06
2.316e-06
2.27134e-06
2.21376e-06
2.153e-06
2.09457e-06
2.04134e-06
1.9947e-06
1.95524e-06
1.923e-06
1.8978e-06
1.87933e-06
1.86719e-06
1.86097e-06
1.86022e-06
1.86444e-06
1.87318e-06
1.88594e-06
1.90222e-06
1.92146e-06
1.94307e-06
1.96642e-06
1.9909e-06
2.01594e-06
2.0411e-06
2.0663e-06
2.09149e-06
2.11866e-06
1.03933e-06
1.41083e-06
1.72097e-06
1.93468e-06
2.06039e-06
2.11303e-06
2.1145e-06
2.08533e-06
2.04019e-06
1.98875e-06
1.93704e-06
1.88858e-06
1.84538e-06
1.80849e-06
1.77834e-06
1.755e-06
1.73833e-06
1.72806e-06
1.7238e-06
1.72516e-06
1.73167e-06
1.74286e-06
1.75823e-06
1.77724e-06
1.79935e-06
1.824e-06
1.85064e-06
1.87876e-06
1.90795e-06
1.93791e-06
1.96868e-06
2.00016e-06
2.03452e-06
8.45616e-07
1.19717e-06
1.5092e-06
1.73059e-06
1.86713e-06
1.93359e-06
1.94915e-06
1.93234e-06
1.89723e-06
1.85352e-06
1.80753e-06
1.7632e-06
1.72294e-06
1.68809e-06
1.65938e-06
1.63711e-06
1.6213e-06
1.61182e-06
1.60841e-06
1.61075e-06
1.61841e-06
1.63096e-06
1.64791e-06
1.66876e-06
1.69298e-06
1.72004e-06
1.74946e-06
1.78076e-06
1.81361e-06
1.84774e-06
1.88324e-06
1.91987e-06
1.95985e-06
6.78154e-07
1.02064e-06
1.33527e-06
1.56344e-06
1.70907e-06
1.7868e-06
1.81392e-06
1.8073e-06
1.78029e-06
1.74246e-06
1.70033e-06
1.65822e-06
1.61893e-06
1.58422e-06
1.55516e-06
1.53232e-06
1.51595e-06
1.50609e-06
1.50259e-06
1.50519e-06
1.51351e-06
1.52712e-06
1.54553e-06
1.56821e-06
1.59462e-06
1.62421e-06
1.65649e-06
1.691e-06
1.7274e-06
1.76543e-06
1.80516e-06
1.84613e-06
1.89071e-06
5.31829e-07
8.75786e-07
1.19372e-06
1.42752e-06
1.58058e-06
1.66721e-06
1.70335e-06
1.70448e-06
1.68332e-06
1.64936e-06
1.60931e-06
1.56783e-06
1.5281e-06
1.49225e-06
1.46165e-06
1.43713e-06
1.41917e-06
1.40798e-06
1.40353e-06
1.40565e-06
1.414e-06
1.42817e-06
1.44764e-06
1.47187e-06
1.50026e-06
1.53225e-06
1.56731e-06
1.60493e-06
1.64475e-06
1.68644e-06
1.72999e-06
1.77478e-06
1.82319e-06
4.04225e-07
7.59539e-07
1.08087e-06
1.3189e-06
1.47777e-06
1.5713e-06
1.61439e-06
1.62137e-06
1.60438e-06
1.57274e-06
1.53332e-06
1.49107e-06
1.44949e-06
1.41105e-06
1.37747e-06
1.34988e-06
1.32905e-06
1.3154e-06
1.30907e-06
1.30999e-06
1.3179e-06
1.33236e-06
1.35283e-06
1.37869e-06
1.40927e-06
1.44392e-06
1.482e-06
1.52295e-06
1.5663e-06
1.61163e-06
1.65886e-06
1.70715e-06
1.75897e-06
2.97579e-07
6.71493e-07
9.94737e-07
1.23512e-06
1.39802e-06
1.49648e-06
1.54438e-06
1.55505e-06
1.54003e-06
1.50852e-06
1.46751e-06
1.42223e-06
1.37657e-06
1.33336e-06
1.2947e-06
1.26212e-06
1.23669e-06
1.2191e-06
1.20972e-06
1.2086e-06
1.21552e-06
1.23004e-06
1.25152e-06
1.27923e-06
1.31237e-06
1.35011e-06
1.3917e-06
1.43643e-06
1.48372e-06
1.53301e-06
1.58413e-06
1.63606e-06
1.69123e-06
2.23853e-07
6.12988e-07
9.34497e-07
1.17501e-06
1.34022e-06
1.44199e-06
1.49318e-06
1.50619e-06
1.49203e-06
1.4597e-06
1.41624e-06
1.36707e-06
1.31635e-06
1.26726e-06
1.22228e-06
1.18333e-06
1.15187e-06
1.12898e-06
1.11532e-06
1.11118e-06
1.11644e-06
1.13065e-06
1.15308e-06
1.18281e-06
1.21883e-06
1.2601e-06
1.30565e-06
1.35459e-06
1.40616e-06
1.45964e-06
1.51477e-06
1.57031e-06
1.62883e-06
2.08879e-07
5.86152e-07
8.99845e-07
1.13772e-06
1.30315e-06
1.40612e-06
1.45824e-06
1.47101e-06
1.45491e-06
1.41878e-06
1.36973e-06
1.31341e-06
1.25432e-06
1.19603e-06
1.14146e-06
1.09303e-06
1.05273e-06
1.02214e-06
1.00237e-06
9.94032e-07
9.97153e-07
1.01123e-06
1.03533e-06
1.06819e-06
1.10845e-06
1.1547e-06
1.20565e-06
1.26014e-06
1.31722e-06
1.37599e-06
1.43606e-06
1.49609e-06
1.5585e-06
2.61127e-07
5.93138e-07
8.91783e-07
1.12431e-06
1.28862e-06
1.39218e-06
1.44515e-06
1.45809e-06
1.4408e-06
1.40177e-06
1.348e-06
1.28517e-06
1.21788e-06
1.14996e-06
1.0847e-06
1.02497e-06
9.73402e-07
9.32296e-07
9.03545e-07
8.88422e-07
8.87398e-07
9.00069e-07
9.2526e-07
9.61268e-07
1.00615e-06
1.05798e-06
1.11499e-06
1.17565e-06
1.23875e-06
1.30316e-06
1.36839e-06
1.43286e-06
1.49927e-06
3.55181e-07
6.32975e-07
9.10092e-07
1.1338e-06
1.29394e-06
1.39462e-06
1.44437e-06
1.45281e-06
1.42931e-06
1.38222e-06
1.31859e-06
1.24424e-06
1.164e-06
1.08192e-06
1.0016e-06
9.26377e-07
8.59533e-07
8.0431e-07
7.63746e-07
7.40259e-07
7.35107e-07
7.48009e-07
7.77222e-07
8.20043e-07
8.73452e-07
9.34593e-07
1.00103e-06
1.07078e-06
1.14235e-06
1.21448e-06
1.2866e-06
1.35719e-06
1.42863e-06
4.72295e-07
7.03644e-07
9.56822e-07
1.17123e-06
1.32864e-06
1.42956e-06
1.48055e-06
1.48991e-06
1.46605e-06
1.41665e-06
1.34835e-06
1.26675e-06
1.17655e-06
1.0818e-06
9.86137e-07
8.93081e-07
8.06348e-07
7.30103e-07
6.69037e-07
6.27955e-07
6.10616e-07
6.18196e-07
6.48622e-07
6.9749e-07
7.59759e-07
8.30934e-07
9.07508e-07
9.86878e-07
1.06723e-06
1.14712e-06
1.22596e-06
1.30198e-06
1.37821e-06
6.07343e-07
8.02933e-07
1.03057e-06
1.23097e-06
1.37865e-06
1.47062e-06
1.51203e-06
1.51084e-06
1.47546e-06
1.41369e-06
1.3322e-06
1.23655e-06
1.13129e-06
1.02017e-06
9.06471e-07
7.93319e-07
6.84141e-07
5.83306e-07
4.9699e-07
4.33874e-07
4.03836e-07
4.1245e-07
4.55778e-07
5.23551e-07
6.05835e-07
6.95679e-07
7.88732e-07
8.82299e-07
9.74731e-07
1.06486e-06
1.15228e-06
1.23576e-06
1.31765e-06
7.61208e-07
9.31585e-07
1.13926e-06
1.3335e-06
1.48397e-06
1.58331e-06
1.63348e-06
1.64011e-06
1.61007e-06
1.55029e-06
1.46717e-06
1.36627e-06
1.2523e-06
1.12913e-06
9.99968e-07
8.67557e-07
7.34408e-07
6.03244e-07
4.77871e-07
3.65414e-07
2.81987e-07
2.57271e-07
3.032e-07
3.90943e-07
4.94749e-07
6.03295e-07
7.11829e-07
8.18069e-07
9.20844e-07
1.01928e-06
1.11331e-06
1.20143e-06
1.28737e-06
9.38337e-07
1.09028e-06
1.27351e-06
1.44551e-06
1.57359e-06
1.6501e-06
1.67842e-06
1.66564e-06
1.61933e-06
1.54639e-06
1.45269e-06
1.34308e-06
1.22147e-06
1.09099e-06
9.54132e-07
8.12924e-07
6.69011e-07
5.23769e-07
3.78408e-07
2.34169e-07
9.34743e-08
1.36068e-08
1.3714e-07
2.70849e-07
4.01566e-07
5.2802e-07
6.49619e-07
7.65946e-07
8.7673e-07
9.81718e-07
1.08102e-06
1.17414e-06
1.26299e-06
1.1454e-06
1.28928e-06
1.46989e-06
1.659e-06
1.8173e-06
1.92672e-06
1.98336e-06
1.99089e-06
1.95613e-06
1.88691e-06
1.7908e-06
1.67451e-06
1.54365e-06
1.40279e-06
1.25557e-06
1.10495e-06
9.5345e-07
8.03501e-07
6.57934e-07
5.21115e-07
4.01718e-07
3.19119e-07
3.04101e-07
3.60677e-07
4.56231e-07
5.65989e-07
6.79063e-07
7.90682e-07
8.98551e-07
1.00123e-06
1.09831e-06
1.1881e-06
1.2745e-06
1.3938e-06
1.52748e-06
1.6676e-06
1.7987e-06
1.89481e-06
1.95057e-06
1.96943e-06
1.95638e-06
1.91568e-06
1.85115e-06
1.76654e-06
1.6655e-06
1.5516e-06
1.42834e-06
1.29908e-06
1.16722e-06
1.03628e-06
9.10215e-07
7.93809e-07
6.93129e-07
6.15719e-07
5.69587e-07
5.60094e-07
5.86407e-07
6.41585e-07
7.16397e-07
8.02667e-07
8.94366e-07
9.87366e-07
1.07898e-06
1.16746e-06
1.2519e-06
1.33187e-06
1.69619e-06
1.84949e-06
2.05054e-06
2.28845e-06
2.49344e-06
2.62783e-06
2.68839e-06
2.68615e-06
2.63475e-06
2.54712e-06
2.43431e-06
2.30497e-06
2.16563e-06
2.0212e-06
1.87549e-06
1.73161e-06
1.59236e-06
1.4605e-06
1.339e-06
1.23117e-06
1.14055e-06
1.07071e-06
1.02451e-06
1.00326e-06
1.00608e-06
1.02989e-06
1.07022e-06
1.1222e-06
1.18137e-06
1.24389e-06
1.30698e-06
1.3676e-06
1.42775e-06
2.08302e-06
2.19637e-06
2.2393e-06
2.28264e-06
2.33895e-06
2.40213e-06
2.46041e-06
2.50148e-06
2.51634e-06
2.50127e-06
2.4572e-06
2.38794e-06
2.29873e-06
2.19519e-06
2.08279e-06
1.96656e-06
1.85102e-06
1.74022e-06
1.63773e-06
1.54674e-06
1.46997e-06
1.40956e-06
1.36688e-06
1.34237e-06
1.33538e-06
1.34428e-06
1.36657e-06
1.39934e-06
1.43949e-06
1.48437e-06
1.53123e-06
1.57942e-06
1.62509e-06
2.57474e-06
2.8576e-06
3.24504e-06
3.63663e-06
3.88852e-06
3.98775e-06
3.98055e-06
3.90752e-06
3.79514e-06
3.66073e-06
3.5146e-06
3.36237e-06
3.2074e-06
3.05205e-06
2.89837e-06
2.74836e-06
2.60408e-06
2.46766e-06
2.3412e-06
2.22666e-06
2.12576e-06
2.0398e-06
1.96947e-06
1.91476e-06
1.87487e-06
1.84825e-06
1.83292e-06
1.82671e-06
1.82742e-06
1.83288e-06
1.84086e-06
1.84954e-06
1.85931e-06
3.26904e-06
3.16151e-06
2.86533e-06
2.79694e-06
2.96266e-06
3.21849e-06
3.45598e-06
3.62557e-06
3.71629e-06
3.7394e-06
3.71451e-06
3.66067e-06
3.59293e-06
3.52157e-06
3.45255e-06
3.38845e-06
3.32962e-06
3.2751e-06
3.22344e-06
3.17314e-06
3.12294e-06
3.07194e-06
3.01964e-06
2.96594e-06
2.9111e-06
2.85559e-06
2.79996e-06
2.74466e-06
2.68973e-06
2.63572e-06
2.58189e-06
2.53176e-06
2.47826e-06
4.2962e-06
5.50606e-06
6.24595e-06
6.47759e-06
6.36402e-06
6.14043e-06
5.99795e-06
6.01822e-06
6.20321e-06
6.50848e-06
6.87599e-06
7.25585e-06
7.61266e-06
7.92416e-06
8.17841e-06
8.37078e-06
8.50143e-06
8.57338e-06
8.59124e-06
8.5603e-06
8.48596e-06
8.37324e-06
8.22649e-06
8.04913e-06
7.84366e-06
7.6118e-06
7.3564e-06
7.08276e-06
6.79704e-06
6.50487e-06
6.21007e-06
5.92169e-06
5.63514e-06
5.6166e-06
3.55148e-06
2.7297e-06
4.60347e-06
7.32626e-06
9.88939e-06
1.20599e-05
1.37761e-05
1.5054e-05
1.59395e-05
1.64843e-05
1.67412e-05
1.67624e-05
1.65971e-05
1.62894e-05
1.58782e-05
1.53966e-05
1.4872e-05
1.43265e-05
1.3777e-05
1.32356e-05
1.27104e-05
1.22058e-05
1.17234e-05
1.12626e-05
1.08217e-05
1.03993e-05
9.98908e-06
9.58591e-06
9.18629e-06
8.78878e-06
8.39269e-06
7.98523e-06
1.14221e-05
1.64937e-05
1.82564e-05
1.9769e-05
2.02498e-05
1.95226e-05
1.78078e-05
1.53697e-05
1.25298e-05
9.73453e-06
7.69066e-06
7.34089e-06
8.78642e-06
1.10982e-05
1.35837e-05
1.59423e-05
1.80523e-05
1.98671e-05
2.13754e-05
2.25837e-05
2.35089e-05
2.41737e-05
2.46047e-05
2.48334e-05
2.48952e-05
2.48335e-05
2.46846e-05
2.44606e-05
2.41801e-05
2.3863e-05
2.35226e-05
2.31869e-05
2.28716e-05
2.48531e-05
2.86075e-05
3.89078e-05
5.32659e-05
6.74096e-05
8.11701e-05
9.3809e-05
0.00010472
0.000113857
0.000121298
0.000127153
0.00013158
0.000134751
0.000136836
0.000137988
0.000138351
0.00013805
0.000137194
0.000135878
0.000134183
0.000132179
0.000129924
0.000127466
0.000124849
0.00012211
0.000119284
0.00011638
0.000113434
0.000110495
0.000107572
0.000104701
0.000101871
9.93013e-05
0.000543288
0.000510541
0.000491565
0.000467887
0.000443898
0.000421628
0.000400247
0.00037983
0.000360653
0.000342741
0.000326086
0.000310677
0.000296471
0.000283407
0.000271413
0.000260413
0.000250328
0.000241082
0.000232598
0.000224805
0.000217631
0.000211009
0.000204871
0.000199157
0.000193813
0.00018883
0.000184241
0.000179982
0.000175933
0.000172044
0.000168175
0.000164801
0.000161785
0.000106582
0.000106647
0.000111018
0.000108278
0.000103618
9.64162e-05
8.8317e-05
7.99188e-05
7.21069e-05
6.54436e-05
6.04049e-05
5.68951e-05
5.23799e-05
4.19806e-05
2.24968e-05
4.96648e-06
2.27935e-05
3.08208e-05
2.98387e-05
2.58515e-05
2.23846e-05
1.97335e-05
1.7469e-05
1.54943e-05
1.3831e-05
1.2438e-05
1.12385e-05
1.01745e-05
9.21904e-06
8.36209e-06
7.59695e-06
6.91528e-06
6.30748e-06
5.76396e-06
5.27522e-06
4.83181e-06
4.42489e-06
4.04759e-06
3.69594e-06
3.36866e-06
3.06587e-06
2.78758e-06
2.53298e-06
2.30051e-06
2.08827e-06
1.89445e-06
1.71748e-06
1.556e-06
1.4088e-06
1.27473e-06
1.15274e-06
1.04184e-06
9.4111e-07
8.49725e-07
7.6692e-07
6.91979e-07
6.24231e-07
5.63037e-07
5.07794e-07
4.57938e-07
4.12959e-07
3.72395e-07
3.35841e-07
3.02942e-07
2.73391e-07
2.46923e-07
2.23293e-07
2.02287e-07
1.8372e-07
1.67398e-07
1.53153e-07
1.4083e-07
1.30259e-07
1.21248e-07
1.13695e-07
1.07422e-07
1.02277e-07
9.81109e-08
9.47813e-08
9.21587e-08
9.01252e-08
8.85774e-08
8.74253e-08
8.65931e-08
8.6018e-08
8.56485e-08
8.54448e-08
8.53719e-08
8.54099e-08
8.55277e-08
8.57331e-08
8.59677e-08
8.63149e-08
8.65912e-08
8.71081e-08
8.73068e-08
8.80552e-08
8.80293e-08
8.93778e-08
8.72999e-08
0.000110456
0.000106839
0.000106838
0.000105323
0.000103069
9.98978e-05
9.6086e-05
9.12332e-05
8.49427e-05
7.72051e-05
6.75151e-05
5.46868e-05
3.73264e-05
1.54363e-05
7.25411e-06
2.39808e-05
3.07917e-05
2.99924e-05
2.65644e-05
2.34984e-05
2.10752e-05
1.88824e-05
1.68437e-05
1.50525e-05
1.35376e-05
1.22493e-05
1.11214e-05
1.01091e-05
9.19181e-06
8.36265e-06
7.61706e-06
6.94866e-06
6.34951e-06
5.81134e-06
5.32573e-06
4.88402e-06
4.47789e-06
4.10067e-06
3.74841e-06
3.41984e-06
3.11516e-06
2.83457e-06
2.57747e-06
2.34241e-06
2.12757e-06
1.93116e-06
1.75164e-06
1.58766e-06
1.43804e-06
1.30167e-06
1.17753e-06
1.06465e-06
9.62093e-07
8.69021e-07
7.84634e-07
7.08199e-07
6.39044e-07
5.76552e-07
5.20152e-07
4.69316e-07
4.23555e-07
3.82417e-07
3.45484e-07
3.12377e-07
2.82748e-07
2.56289e-07
2.32707e-07
2.11748e-07
1.93185e-07
1.76793e-07
1.62382e-07
1.49759e-07
1.38774e-07
1.29251e-07
1.21051e-07
1.14009e-07
1.07998e-07
1.02894e-07
9.8582e-08
9.49578e-08
9.1926e-08
8.94019e-08
8.73096e-08
8.55827e-08
8.41638e-08
8.30032e-08
8.20591e-08
8.1294e-08
8.06806e-08
8.01837e-08
7.97971e-08
7.9461e-08
7.92337e-08
7.8931e-08
7.88459e-08
7.83398e-08
7.84821e-08
7.72865e-08
7.82048e-08
7.41849e-08
7.91547e-05
7.68656e-05
7.53563e-05
7.31523e-05
7.04732e-05
6.71361e-05
6.3118e-05
5.81002e-05
5.14509e-05
4.26726e-05
3.13187e-05
1.74206e-05
4.79474e-06
1.55965e-05
2.60507e-05
3.0108e-05
2.91718e-05
2.64167e-05
2.3905e-05
2.18768e-05
1.99621e-05
1.80427e-05
1.62271e-05
1.46217e-05
1.32456e-05
1.20569e-05
1.10016e-05
1.00426e-05
9.16456e-06
8.3637e-06
7.63819e-06
6.98365e-06
6.39369e-06
5.86127e-06
5.379e-06
4.9391e-06
4.53379e-06
4.15665e-06
3.80375e-06
3.47383e-06
3.16718e-06
2.88419e-06
2.62445e-06
2.38664e-06
2.16903e-06
1.96988e-06
1.78765e-06
1.62103e-06
1.46884e-06
1.32999e-06
1.20345e-06
1.08828e-06
9.83557e-07
8.88465e-07
8.02213e-07
7.24071e-07
6.53359e-07
5.89453e-07
5.31773e-07
4.79789e-07
4.33013e-07
3.90995e-07
3.5332e-07
3.19608e-07
2.89506e-07
2.62694e-07
2.3887e-07
2.1776e-07
1.99117e-07
1.827e-07
1.68297e-07
1.55709e-07
1.44758e-07
1.35257e-07
1.27047e-07
1.19987e-07
1.1394e-07
1.08782e-07
1.044e-07
1.00689e-07
9.75596e-08
9.49288e-08
9.27248e-08
9.08845e-08
8.93528e-08
8.80824e-08
8.70324e-08
8.61664e-08
8.5455e-08
8.48652e-08
8.43823e-08
8.39561e-08
8.36152e-08
8.32199e-08
8.296e-08
8.23685e-08
8.21717e-08
8.09987e-08
8.10875e-08
7.719e-08
3.74795e-05
3.49731e-05
3.3114e-05
3.09347e-05
2.82821e-05
2.50856e-05
2.13607e-05
1.7067e-05
1.23274e-05
8.34432e-06
9.60068e-06
1.58963e-05
2.25624e-05
2.70205e-05
2.83307e-05
2.7218e-05
2.52562e-05
2.35094e-05
2.2049e-05
2.05655e-05
1.89313e-05
1.72368e-05
1.5627e-05
1.41923e-05
1.2947e-05
1.18557e-05
1.08726e-05
9.96736e-06
9.12924e-06
8.35789e-06
7.6538e-06
7.01442e-06
6.43477e-06
5.909e-06
5.4308e-06
4.99325e-06
4.58917e-06
4.21241e-06
3.85912e-06
3.52804e-06
3.21956e-06
2.93426e-06
2.67192e-06
2.4314e-06
2.21104e-06
2.00913e-06
1.82417e-06
1.65489e-06
1.50013e-06
1.3588e-06
1.22989e-06
1.11245e-06
1.00558e-06
9.08451e-07
8.2028e-07
7.40341e-07
6.6796e-07
6.02509e-07
5.43409e-07
4.90123e-07
4.42158e-07
3.99059e-07
3.60406e-07
3.25815e-07
2.94929e-07
2.67423e-07
2.4299e-07
2.21352e-07
2.02255e-07
1.85453e-07
1.70728e-07
1.57871e-07
1.46698e-07
1.37021e-07
1.28682e-07
1.21526e-07
1.15406e-07
1.10194e-07
1.0577e-07
1.0203e-07
9.88769e-08
9.62279e-08
9.40088e-08
9.21547e-08
9.06101e-08
8.93263e-08
8.82622e-08
8.73806e-08
8.66517e-08
8.60417e-08
8.5535e-08
8.50816e-08
8.4706e-08
8.42739e-08
8.39574e-08
8.33208e-08
8.30227e-08
8.18126e-08
8.1733e-08
7.78756e-08
9.29046e-07
7.40711e-07
1.07016e-06
1.38325e-06
2.66435e-06
4.79419e-06
7.47126e-06
1.05185e-05
1.37957e-05
1.71119e-05
2.01948e-05
2.26745e-05
2.41621e-05
2.45075e-05
2.3989e-05
2.31734e-05
2.24035e-05
2.16145e-05
2.06203e-05
1.93664e-05
1.79338e-05
1.64519e-05
1.50383e-05
1.37644e-05
1.26431e-05
1.16456e-05
1.07334e-05
9.88195e-06
9.08458e-06
8.34389e-06
7.6625e-06
7.03949e-06
6.47126e-06
5.95311e-06
5.47975e-06
5.04515e-06
4.64278e-06
4.26681e-06
3.91347e-06
3.58154e-06
3.27149e-06
2.98408e-06
2.71932e-06
2.47621e-06
2.25319e-06
2.04861e-06
1.86098e-06
1.68907e-06
1.53174e-06
1.38792e-06
1.25663e-06
1.13691e-06
1.02789e-06
9.28718e-07
8.38634e-07
7.5691e-07
6.82869e-07
6.15884e-07
5.55372e-07
5.00795e-07
4.51657e-07
4.07496e-07
3.67891e-07
3.32451e-07
3.00814e-07
2.72649e-07
2.47647e-07
2.25521e-07
2.06012e-07
1.8887e-07
1.73869e-07
1.60796e-07
1.49459e-07
1.39665e-07
1.31245e-07
1.24035e-07
1.1789e-07
1.12673e-07
1.08262e-07
1.04548e-07
1.01432e-07
9.8825e-08
9.66519e-08
9.48455e-08
9.33485e-08
9.21113e-08
9.10917e-08
9.02516e-08
8.95608e-08
8.89852e-08
8.85081e-08
8.80809e-08
8.77222e-08
8.73094e-08
8.69847e-08
8.63758e-08
8.60055e-08
8.48961e-08
8.46087e-08
8.09235e-08
1.04466e-05
1.00714e-05
9.44439e-06
8.88552e-06
8.78239e-06
9.33631e-06
1.04911e-05
1.20616e-05
1.38542e-05
1.56778e-05
1.73567e-05
1.87345e-05
1.97138e-05
2.03304e-05
2.06907e-05
2.08149e-05
2.06341e-05
2.01069e-05
1.92701e-05
1.82e-05
1.69803e-05
1.57048e-05
1.44699e-05
1.3342e-05
1.23364e-05
1.14289e-05
1.0586e-05
9.78801e-06
9.03185e-06
8.32268e-06
7.66504e-06
7.0595e-06
6.50371e-06
5.99406e-06
5.52628e-06
5.0952e-06
4.69498e-06
4.32016e-06
3.96709e-06
3.63456e-06
3.32315e-06
3.0338e-06
2.76673e-06
2.52112e-06
2.2955e-06
2.08828e-06
1.89801e-06
1.72347e-06
1.56357e-06
1.41727e-06
1.28358e-06
1.16157e-06
1.05035e-06
9.49121e-07
8.57096e-07
7.73556e-07
6.97826e-07
6.29278e-07
5.67325e-07
5.11427e-07
4.6108e-07
4.15821e-07
3.75221e-07
3.38884e-07
3.06444e-07
2.77563e-07
2.51928e-07
2.29248e-07
2.09258e-07
1.91704e-07
1.76357e-07
1.62996e-07
1.51424e-07
1.41445e-07
1.32885e-07
1.25577e-07
1.19368e-07
1.14113e-07
1.09685e-07
1.05969e-07
1.02862e-07
1.00271e-07
9.81186e-08
9.6335e-08
9.48609e-08
9.36456e-08
9.26456e-08
9.18223e-08
9.11447e-08
9.05783e-08
9.01057e-08
8.96784e-08
8.93124e-08
8.88896e-08
8.85376e-08
8.79133e-08
8.74777e-08
8.63664e-08
8.59758e-08
8.23047e-08
7.02732e-06
6.65541e-06
6.1502e-06
5.76228e-06
5.82103e-06
6.48181e-06
7.65922e-06
9.18246e-06
1.08961e-05
1.26589e-05
1.4349e-05
1.58766e-05
1.71806e-05
1.81998e-05
1.88644e-05
1.91369e-05
1.90417e-05
1.86397e-05
1.79852e-05
1.71187e-05
1.60941e-05
1.4996e-05
1.39183e-05
1.29245e-05
1.20282e-05
1.12068e-05
1.04314e-05
9.6862e-06
8.97145e-06
8.29449e-06
7.6615e-06
7.07441e-06
6.532e-06
6.03171e-06
5.57021e-06
5.14323e-06
4.74561e-06
4.37229e-06
4.0198e-06
3.68696e-06
3.37442e-06
3.08331e-06
2.81408e-06
2.56608e-06
2.33795e-06
2.12816e-06
1.93529e-06
1.75816e-06
1.59571e-06
1.44692e-06
1.31083e-06
1.18652e-06
1.07311e-06
9.69794e-07
8.75807e-07
7.90428e-07
7.12985e-07
6.42848e-07
5.79431e-07
5.22189e-07
4.70618e-07
4.24248e-07
3.82647e-07
3.45414e-07
3.12178e-07
2.82597e-07
2.56352e-07
2.33147e-07
2.12712e-07
1.94788e-07
1.79138e-07
1.65539e-07
1.53786e-07
1.43678e-07
1.35031e-07
1.27674e-07
1.21443e-07
1.16193e-07
1.11788e-07
1.08108e-07
1.05046e-07
1.02507e-07
1.00409e-07
9.86805e-08
9.72605e-08
9.60968e-08
9.51449e-08
9.43656e-08
9.37272e-08
9.31952e-08
9.27509e-08
9.23473e-08
9.19951e-08
9.15863e-08
9.1223e-08
9.06144e-08
9.0112e-08
8.90642e-08
8.85071e-08
8.49344e-08
5.15707e-06
4.98638e-06
4.75851e-06
4.67801e-06
4.97637e-06
5.73403e-06
6.87064e-06
8.26125e-06
9.79869e-06
1.13908e-05
1.29519e-05
1.43947e-05
1.56277e-05
1.65754e-05
1.72038e-05
1.75195e-05
1.75478e-05
1.73116e-05
1.68289e-05
1.6127e-05
1.5262e-05
1.43186e-05
1.33842e-05
1.25146e-05
1.17206e-05
1.09812e-05
1.02709e-05
9.57765e-06
8.90426e-06
8.25997e-06
7.65236e-06
7.08455e-06
6.55638e-06
6.06622e-06
5.61168e-06
5.18934e-06
4.79474e-06
4.42328e-06
4.07166e-06
3.73877e-06
3.42533e-06
3.13265e-06
2.86138e-06
2.61109e-06
2.38053e-06
2.16821e-06
1.97278e-06
1.79308e-06
1.62808e-06
1.4768e-06
1.3383e-06
1.21167e-06
1.09605e-06
9.90634e-07
8.94661e-07
8.0742e-07
7.28239e-07
6.56488e-07
5.91581e-07
5.3297e-07
4.80147e-07
4.32638e-07
3.90007e-07
3.51847e-07
3.17783e-07
2.87467e-07
2.60576e-07
2.36811e-07
2.15894e-07
1.97563e-07
1.81577e-07
1.67707e-07
1.55741e-07
1.45473e-07
1.36713e-07
1.29284e-07
1.23017e-07
1.17759e-07
1.13367e-07
1.09716e-07
1.06692e-07
1.04198e-07
1.02147e-07
1.00466e-07
9.9092e-08
9.7971e-08
9.70579e-08
9.63128e-08
9.57034e-08
9.5195e-08
9.4768e-08
9.43762e-08
9.40266e-08
9.36178e-08
9.32341e-08
9.26195e-08
9.20545e-08
9.10163e-08
9.03464e-08
8.67802e-08
4.42058e-06
4.36858e-06
4.31083e-06
4.38882e-06
4.75114e-06
5.45021e-06
6.44195e-06
7.64826e-06
8.99084e-06
1.03912e-05
1.17694e-05
1.30489e-05
1.41637e-05
1.50647e-05
1.572e-05
1.61147e-05
1.62487e-05
1.61301e-05
1.57724e-05
1.52035e-05
1.44779e-05
1.36736e-05
1.28692e-05
1.21137e-05
1.1415e-05
1.07533e-05
1.01058e-05
9.46333e-06
8.83103e-06
8.21966e-06
7.63799e-06
7.09017e-06
6.57697e-06
6.09766e-06
5.65071e-06
5.23353e-06
4.84237e-06
4.4731e-06
4.12264e-06
3.78996e-06
3.47584e-06
3.18176e-06
2.9086e-06
2.65612e-06
2.4232e-06
2.20843e-06
2.01048e-06
1.82824e-06
1.6607e-06
1.50694e-06
1.36603e-06
1.23708e-06
1.11923e-06
1.01169e-06
9.13713e-07
8.24586e-07
7.43642e-07
6.70252e-07
6.03829e-07
5.43824e-07
4.89725e-07
4.41057e-07
3.97379e-07
3.58279e-07
3.23379e-07
2.92326e-07
2.64792e-07
2.40473e-07
2.19086e-07
2.00366e-07
1.84065e-07
1.69949e-07
1.57798e-07
1.47402e-07
1.38563e-07
1.31096e-07
1.24826e-07
1.19589e-07
1.1524e-07
1.11643e-07
1.08684e-07
1.06258e-07
1.04278e-07
1.02666e-07
1.01358e-07
1.00299e-07
9.94428e-08
9.87487e-08
9.8184e-08
9.7714e-08
9.73181e-08
9.69516e-08
9.66165e-08
9.62206e-08
9.58256e-08
9.52202e-08
9.4594e-08
9.35947e-08
9.27842e-08
8.92588e-08
3.93431e-06
3.95148e-06
3.98719e-06
4.14216e-06
4.51998e-06
5.16147e-06
6.04091e-06
7.10152e-06
8.28054e-06
9.51525e-06
1.07438e-05
1.1906e-05
1.29439e-05
1.38073e-05
1.44612e-05
1.48889e-05
1.50861e-05
1.50539e-05
1.47991e-05
1.43449e-05
1.37415e-05
1.3061e-05
1.2374e-05
1.17231e-05
1.11131e-05
1.05247e-05
9.93736e-06
9.34437e-06
8.75265e-06
8.17425e-06
7.61891e-06
7.09164e-06
6.59406e-06
6.12624e-06
5.68744e-06
5.2759e-06
4.88856e-06
4.5218e-06
4.17278e-06
3.84054e-06
3.52596e-06
3.23066e-06
2.95574e-06
2.70118e-06
2.46598e-06
2.24881e-06
2.04838e-06
1.86362e-06
1.69357e-06
1.53732e-06
1.39399e-06
1.26269e-06
1.1426e-06
1.03292e-06
9.32914e-07
8.41875e-07
7.59141e-07
6.84085e-07
6.16119e-07
5.54692e-07
4.99292e-07
4.49438e-07
4.04685e-07
3.6462e-07
3.28858e-07
2.97042e-07
2.6884e-07
2.43944e-07
2.22067e-07
2.02938e-07
1.86304e-07
1.71926e-07
1.59579e-07
1.49045e-07
1.4012e-07
1.32611e-07
1.26334e-07
1.2112e-07
1.16816e-07
1.1328e-07
1.10389e-07
1.08036e-07
1.0613e-07
1.0459e-07
1.0335e-07
1.02353e-07
1.01554e-07
1.0091e-07
1.00388e-07
9.99541e-08
9.95864e-08
9.92414e-08
9.89172e-08
9.85285e-08
9.81197e-08
9.75129e-08
9.68303e-08
9.58402e-08
9.49211e-08
9.13823e-08
3.58242e-06
3.65767e-06
3.76821e-06
3.98378e-06
4.37323e-06
4.96509e-06
5.74501e-06
6.67566e-06
7.71198e-06
8.8051e-06
9.90299e-06
1.09524e-05
1.1903e-05
1.27126e-05
1.33504e-05
1.37971e-05
1.40412e-05
1.40765e-05
1.39052e-05
1.35478e-05
1.30507e-05
1.24801e-05
1.18991e-05
1.13439e-05
1.08163e-05
1.02968e-05
9.76689e-06
9.22183e-06
8.67e-06
8.12443e-06
7.59564e-06
7.08936e-06
6.60793e-06
6.15214e-06
5.72202e-06
5.31655e-06
4.93338e-06
4.56941e-06
4.22208e-06
3.89051e-06
3.57568e-06
3.27933e-06
3.0028e-06
2.74624e-06
2.50885e-06
2.28934e-06
2.08648e-06
1.89922e-06
1.72666e-06
1.56794e-06
1.42218e-06
1.28853e-06
1.16618e-06
1.05434e-06
9.52284e-07
8.5931e-07
7.7476e-07
6.98011e-07
6.28476e-07
5.65602e-07
5.08874e-07
4.57812e-07
4.11965e-07
3.70916e-07
3.34278e-07
3.01689e-07
2.72813e-07
2.47337e-07
2.24971e-07
2.05439e-07
1.88483e-07
1.73858e-07
1.61333e-07
1.50682e-07
1.41694e-07
1.34168e-07
1.27911e-07
1.22746e-07
1.18511e-07
1.15058e-07
1.12258e-07
1.09998e-07
1.08184e-07
1.06734e-07
1.05577e-07
1.04659e-07
1.03929e-07
1.03347e-07
1.02879e-07
1.02492e-07
1.02161e-07
1.01846e-07
1.01541e-07
1.01167e-07
1.00751e-07
1.0015e-07
9.94142e-08
9.84455e-08
9.7407e-08
9.38631e-08
3.32935e-06
3.44621e-06
3.6045e-06
3.85173e-06
4.2352e-06
4.77787e-06
5.47414e-06
6.2993e-06
7.21874e-06
8.19224e-06
9.17621e-06
1.01261e-05
1.09993e-05
1.17584e-05
1.23741e-05
1.28261e-05
1.31e-05
1.31859e-05
1.30825e-05
1.28073e-05
1.24033e-05
1.19306e-05
1.14452e-05
1.09774e-05
1.05258e-05
1.0071e-05
9.59569e-06
9.09685e-06
8.58404e-06
8.071e-06
7.56881e-06
7.0838e-06
6.61892e-06
6.17563e-06
5.75463e-06
5.35563e-06
4.97696e-06
4.61604e-06
4.27061e-06
3.93993e-06
3.62502e-06
3.3278e-06
3.04977e-06
2.79133e-06
2.5518e-06
2.33001e-06
2.12476e-06
1.93504e-06
1.75998e-06