/*--------------------------------*- C++ -*----------------------------------*\
  =========                 |
  \\      /  F ield         | OpenFOAM: The Open Source CFD Toolbox
   \\    /   O peration     | Website:  https://openfoam.org
    \\  /    A nd           | Version:  10
     \\/     M anipulation  |
\*---------------------------------------------------------------------------*/
FoamFile
{
    format      ascii;
    class       volScalarField;
    location    "0.02";
    object      p;
}
// * * * * * * * * * * * * * * * * * * * * * * * * * * * * * * * * * * * * * //

dimensions      [0 2 -2 0 0 0 0];

internalField   nonuniform List<scalar> 
6820
(
8.50592
-5.82727
-7.83212
-8.01937
-8.18201
-8.1301
-8.10691
-8.1362
-8.19131
-8.26236
-8.34287
-8.42915
-8.5196
-8.61352
-8.7106
-8.81037
-8.91385
-9.02004
-9.12966
-9.24235
-9.35831
-9.47785
-9.6014
-9.72943
-9.86258
-10.0016
-10.1476
-10.3017
-10.4665
-10.6411
-10.8387
-11.031
-11.3253
3.12973
-5.62298
-7.63554
-7.89655
-8.1114
-8.12344
-8.12184
-8.15769
-8.21309
-8.28141
-8.35875
-8.4422
-8.5303
-8.6224
-8.7181
-8.81722
-8.91911
-9.02473
-9.13402
-9.24628
-9.36178
-9.48089
-9.60401
-9.73161
-9.86429
-10.0028
-10.1481
-10.3013
-10.4644
-10.6378
-10.8299
-11.0268
-11.2944
1.05219
-4.40801
-6.8388
-7.43808
-7.82803
-7.98312
-8.04375
-8.10665
-8.1778
-8.25583
-8.33994
-8.42845
-8.52031
-8.61508
-8.71257
-8.81269
-8.91559
-9.02156
-9.13028
-9.24254
-9.35785
-9.47651
-9.59887
-9.72539
-9.85669
-9.9934
-10.1364
-10.2864
-10.4449
-10.6111
-10.7882
-10.9594
-11.1247
-0.512665
-4.22189
-6.53774
-7.19443
-7.58494
-7.80263
-7.91296
-8.00736
-8.101
-8.19357
-8.28677
-8.38129
-8.47728
-8.57505
-8.6748
-8.77662
-8.88055
-8.98689
-9.09548
-9.20669
-9.3202
-9.43725
-9.55779
-9.68203
-9.81037
-9.94323
-10.0811
-10.2243
-10.3732
-10.5261
-10.6819
-10.8273
-10.9529
-1.79449
-4.26236
-6.22593
-6.91536
-7.33355
-7.61629
-7.77967
-7.9036
-8.01556
-8.11992
-8.22086
-8.32085
-8.42074
-8.52095
-8.622
-8.72434
-8.82821
-8.93387
-9.04124
-9.15066
-9.26258
-9.37679
-9.49371
-9.6136
-9.73674
-9.86336
-9.99366
-10.1275
-10.2643
-10.4021
-10.538
-10.6624
-10.7661
-2.74819
-4.38123
-6.03712
-6.75717
-7.18442
-7.48878
-7.67755
-7.81717
-7.94023
-8.053
-8.1598
-8.26375
-8.36629
-8.46823
-8.57019
-8.67262
-8.77589
-8.88034
-8.98627
-9.09461
-9.20457
-9.31604
-9.42958
-9.54547
-9.66389
-9.7849
-9.90847
-10.0341
-10.161
-10.287
-10.409
-10.5206
-10.6152
-3.48927
-4.58859
-5.94419
-6.63404
-7.0471
-7.35942
-7.57153
-7.72973
-7.86589
-7.98817
-8.10147
-8.20981
-8.3153
-8.41909
-8.52203
-8.62477
-8.72782
-8.83159
-8.93652
-9.04229
-9.14935
-9.25767
-9.36762
-9.47935
-9.5929
-9.70823
-9.82511
-9.94297
-10.0608
-10.1767
-10.2881
-10.3906
-10.4802
-4.06826
-4.81324
-5.90062
-6.54341
-6.94467
-7.25869
-7.48482
-7.65479
-7.79895
-7.92735
-8.04514
-8.15663
-8.26424
-8.36935
-8.47291
-8.57566
-8.67813
-8.78069
-8.88368
-8.98728
-9.09181
-9.19724
-9.30372
-9.41136
-9.52016
-9.63001
-9.7406
-9.85134
-9.96127
-10.0689
-10.1721
-10.2684
-10.3553
-4.5261
-5.0393
-5.9043
-6.48717
-6.86755
-7.1718
-7.40252
-7.58024
-7.73105
-7.86517
-7.98755
-8.10237
-8.21228
-8.31884
-8.42313
-8.52595
-8.62789
-8.72939
-8.83082
-8.93239
-9.03426
-9.13651
-9.23928
-9.34266
-9.44661
-9.55098
-9.65545
-9.75946
-9.8622
-9.96251
-10.059
-10.1503
-10.2351
-4.8926
-5.25265
-5.93592
-6.45246
-6.80834
-7.09985
-7.33115
-7.51398
-7.66939
-7.80745
-7.93299
-8.05008
-8.16148
-8.26886
-8.37337
-8.47585
-8.57692
-8.67705
-8.77659
-8.87576
-8.97478
-9.07376
-9.1728
-9.27193
-9.37111
-9.47016
-9.5688
-9.66656
-9.76281
-9.85676
-9.94753
-10.0345
-10.1172
-5.18901
-5.44694
-5.9859
-6.43706
-6.76624
-7.04173
-7.26833
-7.4522
-7.6097
-7.75012
-7.87794
-7.99686
-8.10953
-8.21763
-8.3223
-8.42442
-8.52463
-8.62338
-8.72105
-8.81789
-8.9141
-9.00979
-9.10505
-9.1999
-9.29429
-9.3881
-9.48107
-9.57286
-9.66302
-9.75104
-9.83648
-9.91912
-9.99914
-5.43083
-5.61984
-6.04565
-6.43517
-6.73621
-6.99405
-7.21313
-7.39583
-7.55406
-7.69582
-7.82513
-7.94524
-8.05867
-8.16705
-8.27153
-8.37297
-8.47201
-8.56913
-8.6647
-8.75898
-8.85216
-8.94438
-9.03572
-9.12622
-9.21584
-9.30447
-9.39193
-9.47798
-9.56234
-9.64473
-9.72499
-9.80317
-9.87969
-5.62935
-5.77106
-6.10907
-6.44301
-6.71608
-6.95578
-7.16528
-7.34447
-7.50163
-7.64331
-7.77304
-7.89362
-8.0073
-8.11561
-8.21965
-8.32024
-8.41801
-8.51341
-8.60681
-8.69848
-8.78862
-8.87735
-8.96478
-9.05093
-9.1358
-9.21932
-9.30137
-9.38181
-9.4605
-9.53731
-9.61228
-9.6856
-9.75778
-5.79289
-5.90155
-6.1718
-6.45702
-6.70304
-6.92461
-7.12327
-7.29739
-7.45229
-7.59303
-7.72253
-7.8431
-7.95666
-8.06462
-8.16797
-8.26749
-8.36378
-8.45727
-8.54834
-8.63723
-8.72416
-8.80927
-8.89266
-8.97438
-9.05446
-9.13285
-9.20952
-9.2844
-9.35743
-9.42862
-9.49809
-9.5661
-9.63315
-5.92761
-6.01271
-6.2308
-6.47424
-6.69495
-6.89902
-7.08634
-7.2543
-7.40589
-7.54479
-7.67329
-7.79321
-7.90617
-8.01338
-8.11574
-8.21395
-8.30857
-8.40001
-8.48861
-8.57464
-8.65829
-8.73972
-8.81904
-8.89632
-8.9716
-9.04489
-9.1162
-9.1855
-9.25284
-9.31828
-9.38199
-9.44425
-9.50546
-6.03809
-6.1061
-6.28405
-6.49227
-6.68983
-6.87736
-7.05329
-7.2144
-7.36195
-7.49838
-7.62534
-7.74421
-7.85626
-7.96248
-8.06365
-8.16038
-8.25318
-8.34242
-8.42844
-8.51148
-8.59174
-8.66939
-8.74455
-8.8173
-8.88772
-8.95585
-9.02174
-9.08542
-9.14696
-9.20648
-9.26415
-9.32023
-9.37503
-6.1278
-6.1832
-6.33022
-6.50914
-6.68599
-6.85823
-7.02315
-7.17714
-7.3202
-7.45369
-7.57867
-7.69608
-7.80686
-7.91179
-8.01153
-8.10657
-8.19737
-8.28427
-8.36757
-8.44751
-8.5243
-8.59809
-8.66903
-8.73721
-8.80273
-8.86567
-8.9261
-8.98408
-9.03973
-9.09316
-9.14454
-9.1941
-9.24207
-6.19935
-6.2453
-6.36845
-6.52328
-6.68196
-6.84033
-6.99489
-7.1418
-7.28013
-7.4104
-7.5331
-7.64878
-7.75806
-7.86152
-7.95965
-8.05287
-8.14154
-8.22599
-8.30647
-8.38322
-8.45643
-8.52628
-8.59291
-8.65645
-8.71701
-8.77468
-8.82957
-8.88177
-8.93139
-8.97857
-9.02346
-9.06623
-9.10705
-6.25468
-6.29348
-6.3982
-6.53343
-6.67646
-6.8225
-6.96758
-7.10773
-7.24138
-7.36832
-7.4886
-7.60238
-7.71001
-7.81184
-7.90823
-7.9995
-8.08594
-8.16782
-8.24539
-8.31886
-8.38843
-8.45427
-8.51654
-8.57538
-8.63092
-8.68327
-8.73256
-8.7789
-8.82241
-8.86321
-8.90144
-8.93725
-8.97073
-6.29524
-6.32861
-6.41911
-6.53856
-6.66839
-6.80372
-6.94036
-7.07426
-7.20344
-7.32713
-7.44494
-7.55675
-7.66262
-7.76273
-7.85728
-7.94649
-8.0306
-8.10983
-8.18439
-8.25449
-8.32032
-8.38207
-8.43989
-8.49396
-8.5444
-8.59137
-8.63499
-8.67539
-8.71269
-8.74702
-8.7785
-8.80726
-8.83333
-6.32205
-6.35129
-6.4309
-6.53785
-6.65679
-6.78307
-6.91243
-7.04083
-7.16597
-7.28666
-7.40218
-7.5121
-7.61627
-7.71468
-7.8074
-7.89456
-7.97632
-8.05287
-8.1244
-8.19111
-8.25317
-8.31079
-8.36413
-8.41338
-8.4587
-8.50023
-8.53813
-8.57254
-8.60359
-8.6314
-8.65608
-8.67775
-8.69641
-6.33579
-6.36193
-6.4333
-6.53056
-6.64078
-6.75968
-6.88301
-7.00676
-7.12842
-7.24648
-7.35991
-7.46807
-7.57059
-7.66729
-7.75815
-7.8432
-7.92255
-7.99635
-8.06476
-8.12797
-8.18618
-8.23958
-8.28836
-8.33271
-8.37281
-8.40884
-8.44097
-8.46934
-8.49409
-8.51537
-8.53326
-8.5479
-8.55927
-6.3368
-6.36069
-6.42603
-6.51605
-6.61963
-6.73285
-6.85154
-6.97172
-7.09071
-7.20677
-7.31862
-7.4254
-7.52658
-7.62185
-7.71105
-7.79415
-7.87122
-7.94235
-8.00771
-8.06748
-8.12185
-8.17104
-8.21525
-8.2547
-8.28959
-8.32011
-8.34644
-8.36877
-8.38724
-8.40199
-8.41314
-8.4208
-8.42497
-6.32519
-6.34751
-6.40867
-6.49363
-6.59254
-6.70174
-6.81717
-6.93485
-7.05198
-7.1666
-7.27728
-7.38296
-7.48297
-7.57687
-7.66445
-7.74559
-7.82032
-7.88872
-7.95094
-8.00717
-8.05761
-8.10248
-8.14202
-8.17647
-8.20604
-8.23097
-8.25145
-8.26769
-8.27986
-8.28812
-8.2926
-8.29345
-8.29068
-6.30072
-6.32209
-6.38075
-6.46272
-6.55895
-6.66601
-6.77986
-6.89651
-7.01305
-7.12734
-7.23775
-7.34311
-7.4426
-7.5357
-7.62209
-7.70164
-7.77432
-7.84021
-7.89947
-7.95228
-7.99888
-8.03951
-8.07443
-8.10391
-8.1282
-8.14755
-8.16222
-8.17241
-8.17833
-8.18017
-8.17807
-8.17219
-8.16255
-6.26284
-6.28383
-6.34151
-6.42238
-6.51777
-6.62434
-6.73806
-6.85484
-6.97168
-7.0863
-7.19696
-7.30235
-7.40156
-7.49399
-7.57927
-7.65724
-7.72785
-7.79118
-7.84738
-7.89667
-7.93929
-7.97553
-8.00568
-8.03003
-8.04889
-8.06255
-8.07127
-8.07533
-8.07496
-8.07039
-8.0618
-8.0494
-8.03325
-6.21068
-6.2319
-6.29025
-6.37219
-6.46906
-6.57753
-6.69343
-6.81253
-6.93164
-7.04834
-7.16074
-7.26742
-7.3674
-7.46002
-7.5449
-7.62184
-7.69082
-7.75192
-7.80534
-7.85131
-7.89012
-7.92209
-7.94757
-7.96688
-7.98038
-7.98841
-7.99127
-7.98928
-7.9827
-7.97181
-7.95681
-7.93792
-7.91521
-6.1429
-6.16488
-6.22536
-6.31014
-6.41019
-6.52204
-6.64137
-6.7638
-6.886
-7.00543
-7.12009
-7.22849
-7.32957
-7.42264
-7.50729
-7.58332
-7.6507
-7.70957
-7.76011
-7.80262
-7.83744
-7.86492
-7.88546
-7.89946
-7.90731
-7.90941
-7.90614
-7.89786
-7.8849
-7.86758
-7.84618
-7.821
-7.7922
-6.05775
-6.08141
-6.14639
-6.23727
-6.34414
-6.4632
-6.58973
-6.71893
-6.84723
-6.97195
-7.09097
-7.20278
-7.3063
-7.40086
-7.48609
-7.56182
-7.62811
-7.6851
-7.73308
-7.77239
-7.80341
-7.82659
-7.84237
-7.85121
-7.85357
-7.84989
-7.84063
-7.82619
-7.80695
-7.78329
-7.75551
-7.7239
-7.68865
-5.95247
-5.97815
-6.04887
-6.14708
-6.26164
-6.38859
-6.52296
-6.65965
-6.79483
-6.92568
-7.04994
-7.166
-7.27273
-7.36945
-7.45578
-7.5316
-7.597
-7.65221
-7.69756
-7.73346
-7.76038
-7.77883
-7.78935
-7.79246
-7.78872
-7.77865
-7.76278
-7.74161
-7.71562
-7.68526
-7.65094
-7.61308
-7.57197
-5.82429
-5.85441
-5.9363
-6.04887
-6.17853
-6.32042
-6.4688
-6.61795
-6.76388
-6.90372
-7.03531
-7.15709
-7.26807
-7.36767
-7.45564
-7.53197
-7.59683
-7.65056
-7.69357
-7.72636
-7.74948
-7.76352
-7.76907
-7.76677
-7.75721
-7.74102
-7.71878
-7.69106
-7.65841
-7.62133
-7.58028
-7.53564
-7.48774
-5.66674
-5.69975
-5.79164
-5.91675
-6.05968
-6.21584
-6.37887
-6.54214
-6.7011
-6.85256
-6.99408
-7.124
-7.24131
-7.34549
-7.43637
-7.51405
-7.57886
-7.63123
-7.67174
-7.70099
-7.71967
-7.72846
-7.72809
-7.71928
-7.70275
-7.67924
-7.64946
-7.61411
-7.57386
-7.52937
-7.48122
-7.42999
-7.37617
-5.4778
-5.52371
-5.64272
-5.79818
-5.96905
-6.15019
-6.33483
-6.51621
-6.69018
-6.85396
-7.00544
-7.14321
-7.2665
-7.37498
-7.46864
-7.54771
-7.61263
-7.66397
-7.70237
-7.72856
-7.7433
-7.74738
-7.7416
-7.72677
-7.7037
-7.6732
-7.63606
-7.59309
-7.54504
-7.49262
-7.43652
-7.37728
-7.31548
-5.23588
-5.28095
-5.41382
-5.58979
-5.78558
-5.99542
-6.20919
-6.41764
-6.61571
-6.80015
-6.96864
-7.11988
-7.25337
-7.36911
-7.46743
-7.54891
-7.61428
-7.66436
-7.70003
-7.72222
-7.73182
-7.72979
-7.71703
-7.69448
-7.66308
-7.62379
-7.57758
-7.52541
-7.46825
-7.40703
-7.34264
-7.2759
-7.20759
-4.95917
-5.0521
-5.25325
-5.48303
-5.71694
-5.95733
-6.19606
-6.42488
-6.64017
-6.83938
-7.0204
-7.18207
-7.32397
-7.44613
-7.54896
-7.63311
-7.69944
-7.7489
-7.78251
-7.80132
-7.80637
-7.79872
-7.77939
-7.7494
-7.70975
-7.66146
-7.60556
-7.54314
-7.4753
-7.4031
-7.32762
-7.24977
-7.17057
-4.53758
-4.60466
-4.83681
-5.12418
-5.42591
-5.7347
-6.03364
-6.31258
-6.56851
-6.79947
-7.00445
-7.18367
-7.33796
-7.46838
-7.57618
-7.66269
-7.72925
-7.77716
-7.8077
-7.82209
-7.82151
-7.80709
-7.77992
-7.74108
-7.69166
-7.63283
-7.56585
-7.49207
-7.41286
-7.32955
-7.24351
-7.1561
-7.06881
-4.17565
-4.42751
-4.7816
-5.09699
-5.41195
-5.74065
-6.05936
-6.35892
-6.63721
-6.89027
-7.11545
-7.31207
-7.48043
-7.62137
-7.73621
-7.82655
-7.89406
-7.94045
-7.96735
-7.97634
-7.96887
-7.94628
-7.9098
-7.86052
-7.79944
-7.72751
-7.64576
-7.55571
-7.45906
-7.35747
-7.2526
-7.14618
-7.04031
-3.12486
-3.39038
-3.99912
-4.54183
-5.03867
-5.50822
-5.92573
-6.29332
-6.61813
-6.9025
-7.14904
-7.3607
-7.53993
-7.68898
-7.80989
-7.90459
-7.97487
-8.02241
-8.04885
-8.05568
-8.04429
-8.01593
-7.97169
-7.91257
-7.83957
-7.75375
-7.6568
-7.55055
-7.43645
-7.31647
-7.19241
-7.0672
-6.94086
-3.17769
-3.73764
-4.17928
-4.5434
-5.01857
-5.5119
-5.97279
-6.40344
-6.79482
-7.13804
-7.43237
-7.6799
-7.88341
-8.04635
-8.1725
-8.26555
-8.32895
-8.36581
-8.37891
-8.3707
-8.34329
-8.29848
-8.23753
-8.16112
-8.06885
-7.95856
-7.83003
-7.68897
-7.53742
-7.37704
-7.20821
-7.03408
-6.843
1.75724
-1.93449
-3.26058
-3.93106
-4.7296
-5.40547
-5.94653
-6.41823
-6.82742
-7.17481
-7.46751
-7.71098
-7.90953
-8.06754
-8.18913
-8.27805
-8.33766
-8.371
-8.38071
-8.36911
-8.33818
-8.28962
-8.22475
-8.14437
-8.04945
-7.93954
-7.81413
-7.67439
-7.52427
-7.36718
-7.2069
-7.04483
-6.8864
-11.3208
-11.3564
-10.7258
-10.2902
-10.2429
-10.7904
-11.8781
-13.4906
-15.5928
-18.0379
-20.6187
-23.006
-24.8107
-25.6368
-25.2531
-23.6899
-21.2373
-18.2946
-15.2064
-12.2111
-9.46619
-7.06065
-5.01805
-3.31667
-1.91646
-0.774939
0.147789
0.887704
1.47635
1.94064
2.30308
2.58217
2.79308
2.9482
3.05769
3.12991
3.17177
3.18906
3.18659
3.1684
3.13787
3.09778
3.05041
2.9976
2.94087
2.88143
2.82025
2.75812
2.69564
2.63327
2.57138
2.51022
2.44999
2.39079
2.3327
2.27575
2.21993
2.16522
2.11157
2.05892
2.00719
1.9563
1.90618
1.85674
1.8079
1.75957
1.71167
1.66412
1.61684
1.56977
1.52283
1.47596
1.42911
1.3822
1.33519
1.28804
1.24069
1.19309
1.14523
1.09704
1.04851
0.999594
0.950271
0.900512
0.850292
0.799588
0.748377
0.696642
0.644359
0.591521
0.53809
0.484096
0.42943
0.374279
0.318209
0.2621
0.204079
0.148027
0.0859056
0.0344116
-11.3815
-11.274
-10.7122
-10.3879
-10.4579
-11.0352
-12.0928
-13.5969
-15.4868
-17.6621
-19.8855
-21.8612
-23.2558
-23.7613
-23.2415
-21.7795
-19.6171
-17.0458
-14.3205
-11.6384
-9.14328
-6.92249
-5.00737
-3.38909
-2.04021
-0.92797
-0.0195688
0.715933
1.30655
1.77678
2.14749
2.43612
2.65712
2.82243
2.94194
3.0238
3.07484
3.10076
3.10633
3.09561
3.07197
3.0382
2.99662
2.9491
2.8972
2.84215
2.78496
2.72644
2.66723
2.60783
2.54861
2.48987
2.43181
2.37457
2.31824
2.26287
2.20847
2.15503
2.10251
2.05087
2.00005
1.94998
1.90059
1.85179
1.80352
1.7557
1.70826
1.66111
1.6142
1.56744
1.52079
1.47417
1.42753
1.38082
1.33398
1.28698
1.23976
1.19228
1.14451
1.09642
1.04796
0.999119
0.949856
0.900149
0.849974
0.79931
0.748134
0.696429
0.644172
0.591357
0.537946
0.483971
0.429319
0.374186
0.318124
0.262037
0.204013
0.148
0.0858563
0.0344237
-11.1743
-11.1235
-10.795
-10.5895
-10.6961
-11.2211
-12.1675
-13.5037
-15.1674
-17.0333
-18.8852
-20.4661
-21.513
-21.818
-21.3031
-20.028
-18.1619
-15.9204
-13.5092
-11.1017
-8.83071
-6.78041
-4.98673
-3.45033
-2.1538
-1.07275
-0.180757
0.548416
1.13939
1.61427
1.99226
2.28968
2.52023
2.69537
2.82462
2.91598
2.9761
3.0106
3.02424
3.02103
3.00433
2.97696
2.94126
2.89913
2.85214
2.80158
2.74848
2.69367
2.63782
2.58146
2.525
2.46874
2.41292
2.3577
2.30319
2.24946
2.19653
2.14441
2.09307
2.04249
1.99262
1.94339
1.89476
1.84664
1.79897
1.75169
1.70472
1.65799
1.61145
1.56503
1.51867
1.47232
1.42591
1.3794
1.33275
1.2859
1.23882
1.19146
1.1438
1.0958
1.04743
0.998656
0.949456
0.899804
0.849677
0.799054
0.747914
0.696241
0.644012
0.591221
0.537831
0.483875
0.429239
0.374124
0.318071
0.262006
0.203982
0.148005
0.0858426
0.0344609
-11.0223
-11.0129
-10.8203
-10.7114
-10.8712
-11.3742
-12.2206
-13.3762
-14.7748
-16.3055
-17.7974
-19.0505
-19.8666
-20.0818
-19.6169
-18.5078
-16.8806
-14.9065
-12.76
-10.5936
-8.5258
-6.63413
-4.95638
-3.50039
-2.25694
-1.2088
-0.335192
0.385769
0.975465
1.45365
1.83787
2.14328
2.38278
2.56729
2.70599
2.80662
2.8757
2.91873
2.94041
2.94471
2.935
2.9141
2.88435
2.84769
2.80571
2.75972
2.71079
2.65977
2.60738
2.55415
2.50052
2.44682
2.39332
2.34018
2.28755
2.23551
2.1841
2.13335
2.08324
2.03376
1.98487
1.93652
1.88867
1.84125
1.79421
1.74748
1.70101
1.65473
1.60858
1.56251
1.51645
1.47037
1.4242
1.3779
1.33143
1.28475
1.23782
1.19059
1.14304
1.09514
1.04685
0.998152
0.949017
0.899422
0.849345
0.798765
0.747663
0.696023
0.643823
0.591057
0.537689
0.483753
0.429133
0.374036
0.317993
0.26195
0.203927
0.147982
0.0858073
0.0344699
-10.8373
-10.8562
-10.7859
-10.7854
-10.9896
-11.4544
-12.187
-13.1636
-14.3296
-15.5921
-16.8124
-17.8245
-18.4616
-18.5903
-18.149
-17.1627
-15.7271
-13.9795
-12.065
-10.1141
-8.23044
-6.48539
-4.91756
-3.53999
-2.34991
-1.33603
-0.482567
0.228414
0.815243
1.2954
1.68476
1.99729
2.24509
2.43849
2.58628
2.69594
2.7738
2.82526
2.85494
2.86675
2.86406
2.84966
2.82593
2.79481
2.75792
2.71659
2.67191
2.62478
2.57591
2.52589
2.47517
2.42411
2.37299
2.32201
2.27132
2.22103
2.17119
2.12185
2.07301
2.02467
1.9768
1.92937
1.88233
1.83565
1.78926
1.74311
1.69715
1.65133
1.60559
1.55988
1.51415
1.46835
1.42243
1.37636
1.33008
1.28357
1.23679
1.1897
1.14226
1.09446
1.04626
0.997644
0.948578
0.899043
0.849018
0.798484
0.747421
0.695816
0.643645
0.590906
0.537561
0.483646
0.429043
0.373964
0.317933
0.26191
0.20389
0.147975
0.0857918
0.0344906
-10.6951
-10.7489
-10.7602
-10.8251
-11.0454
-11.4711
-12.1113
-12.9451
-13.9225
-14.9616
-15.9465
-16.7427
-17.2192
-17.2715
-16.8475
-15.9614
-14.6869
-13.1337
-11.4216
-9.66151
-7.94427
-6.33468
-4.87094
-3.56958
-2.43281
-1.45429
-0.622541
0.0767981
0.659208
1.13998
1.53336
1.85213
2.10751
2.30926
2.46574
2.58414
2.67059
2.73035
2.76794
2.78725
2.79157
2.78371
2.76604
2.74052
2.70879
2.67219
2.63185
2.58868
2.54342
2.49669
2.44895
2.4006
2.35193
2.30316
2.25448
2.20599
2.15778
2.1099
2.06238
2.01522
1.96841
1.92192
1.87574
1.82981
1.7841
1.73855
1.69313
1.64779
1.60247
1.55714
1.51174
1.46623
1.42058
1.37473
1.32867
1.28233
1.23571
1.18875
1.14144
1.09375
1.04564
0.997105
0.94811
0.898638
0.848667
0.79818
0.747159
0.695589
0.64345
0.590739
0.537416
0.483524
0.428938
0.373878
0.317859
0.261856
0.203841
0.147954
0.0857658
0.0344947
-10.5654
-10.6404
-10.6999
-10.8081
-11.0385
-11.4296
-11.9872
-12.6929
-13.5036
-14.3504
-15.1393
-15.7615
-16.1102
-16.1002
-15.6884
-14.8848
-13.7462
-12.3601
-10.825
-9.23448
-7.66769
-6.18307
-4.81754
-3.58985
-2.50599
-1.5636
-0.754904
-0.0687325
0.507777
0.987838
1.3841
1.70817
1.97041
2.17992
2.34465
2.47145
2.56625
2.63415
2.67957
2.7063
2.71762
2.71632
2.70475
2.68488
2.65836
2.62657
2.59063
2.55149
2.50992
2.46655
2.42187
2.37629
2.33014
2.28366
2.23703
2.1904
2.14387
2.09751
2.05135
2.00541
1.95969
1.91419
1.86888
1.82374
1.77873
1.73381
1.68895
1.6441
1.59923
1.55429
1.50924
1.46404
1.41866
1.37305
1.3272
1.28105
1.23459
1.18778
1.1406
1.09301
1.04501
0.996555
0.947634
0.898226
0.848312
0.797875
0.746897
0.695365
0.643258
0.590575
0.537278
0.483408
0.42884
0.3738
0.317793
0.261811
0.203801
0.14794
0.0857506
0.0345033
-10.445
-10.5371
-10.6297
-10.7655
-10.9954
-11.3486
-11.8302
-12.4242
-13.0935
-13.7796
-14.4044
-14.8793
-15.1184
-15.0543
-14.6522
-13.9179
-12.8947
-11.6524
-10.2717
-8.83175
-7.40084
-6.03132
-4.75821
-3.60146
-2.56978
-1.66401
-0.879497
-0.207871
0.361335
0.839388
1.23741
1.56583
1.83413
2.0508
2.22328
2.35813
2.461
2.53685
2.58995
2.62404
2.64232
2.64757
2.64211
2.62793
2.60668
2.57974
2.54828
2.51324
2.47543
2.43548
2.39393
2.35119
2.30762
2.26348
2.21898
2.17427
2.12947
2.08466
2.0399
1.99522
1.95064
1.90616
1.86176
1.81743
1.77315
1.72888
1.6846
1.64027
1.59586
1.55132
1.50663
1.46175
1.41666
1.3713
1.32567
1.27972
1.23343
1.18677
1.13972
1.09225
1.04434
0.995978
0.947135
0.897795
0.84794
0.797554
0.74662
0.695127
0.643054
0.590402
0.53713
0.483283
0.428735
0.373714
0.317721
0.261758
0.203756
0.147917
0.0857308
0.034502
-10.3274
-10.4296
-10.5402
-10.6885
-10.9101
-11.2265
-11.6404
-12.1372
-12.6848
-13.2338
-13.7205
-14.0733
-14.2232
-14.116
-13.7227
-13.0468
-12.1219
-11.0037
-9.75829
-8.45213
-7.14396
-5.88028
-4.69388
-3.60513
-2.62462
-1.75569
-0.996249
-0.340388
0.220214
0.695012
1.09367
1.42547
1.69905
1.92221
2.10194
2.24442
2.35506
2.43862
2.49926
2.54059
2.56578
2.57754
2.5782
2.56973
2.55378
2.53176
2.50482
2.47395
2.43995
2.4035
2.36514
2.32531
2.28439
2.24265
2.20032
2.15758
2.11456
2.07136
2.02805
1.98467
1.94126
1.89783
1.85438
1.81089
1.76736
1.72377
1.68009
1.63629
1.59236
1.54824
1.50393
1.45938
1.41458
1.36949
1.32408
1.27833
1.23222
1.18572
1.13881
1.09146
1.04366
0.995386
0.946623
0.897354
0.84756
0.797227
0.74634
0.694888
0.64285
0.590228
0.536983
0.48316
0.428632
0.373631
0.317653
0.261708
0.203716
0.147897
0.0857172
0.0345018
-10.2102
-10.3177
-10.4373
-10.5894
-10.798
-11.0781
-11.4304
-11.8416
-12.2844
-12.7176
-13.0888
-13.34
-13.4156
-13.2722
-12.8864
-12.2602
-11.4195
-10.4087
-9.28194
-8.09463
-6.89717
-5.73067
-4.62541
-3.60159
-2.67099
-1.83884
-1.10516
-0.46611
0.0846956
0.555054
0.953253
1.28748
1.56551
1.79448
1.98091
2.13058
2.24866
2.33968
2.40766
2.45611
2.48812
2.50636
2.51312
2.51036
2.49974
2.48266
2.4603
2.43365
2.40353
2.37063
2.33552
2.29867
2.26044
2.22116
2.18107
2.14035
2.09916
2.05761
2.01579
1.97376
1.93155
1.88921
1.84673
1.80411
1.76137
1.71847
1.67541
1.63217
1.58872
1.54505
1.50113
1.45693
1.41243
1.3676
1.32244
1.2769
1.23097
1.18463
1.13786
1.09064
1.04295
0.99477
0.946092
0.896895
0.847165
0.796888
0.746049
0.694639
0.642638
0.590048
0.53683
0.483032
0.428525
0.373544
0.317581
0.261655
0.203673
0.147873
0.0857017
0.0344954
-10.0908
-10.1991
-10.3203
-10.4686
-10.66
-10.9043
-11.2007
-11.5372
-11.8903
-12.2255
-12.5
-12.6669
-12.6816
-12.5094
-12.1313
-11.5481
-10.7801
-9.86256
-8.83984
-7.75819
-6.66059
-5.58317
-4.55364
-3.59158
-2.70943
-1.91376
-1.20629
-0.584934
-0.0449932
0.419818
0.816505
1.15221
1.43385
1.66795
1.86049
2.0169
2.14203
2.24023
2.31534
2.37075
2.40948
2.43412
2.44695
2.4499
2.44462
2.43252
2.41477
2.39238
2.36618
2.3369
2.30509
2.27126
2.2358
2.19904
2.16122
2.12258
2.08326
2.04341
2.00313
1.96248
1.92152
1.88029
1.83881
1.7971
1.75516
1.71298
1.67057
1.6279
1.58496
1.54174
1.49822
1.45438
1.4102
1.36566
1.32073
1.27541
1.22968
1.18351
1.13688
1.08979
1.04221
0.994137
0.945545
0.896424
0.84676
0.796541
0.745752
0.694386
0.642423
0.589866
0.536677
0.482905
0.428419
0.373459
0.317512
0.261604
0.203633
0.14785
0.08569
0.0344887
-9.96827
-10.074
-10.1917
-10.3314
-10.5032
-10.7133
-10.9593
-11.2304
-11.5064
-11.7587
-11.9523
-12.0494
-12.0143
-11.819
-11.4482
-10.9023
-10.1971
-9.36081
-8.42957
-7.44187
-6.43428
-5.4384
-4.47938
-3.57585
-2.74049
-1.9808
-1.29977
-0.696815
-0.168679
0.289563
0.683733
1.01998
1.30443
1.54293
1.74099
1.90364
2.03544
2.1405
2.22249
2.28469
2.33
2.36097
2.37982
2.38845
2.38851
2.38139
2.36828
2.35019
2.32797
2.30233
2.27389
2.24314
2.21049
2.17628
2.14081
2.10428
2.06689
2.02878
1.99007
1.95084
1.91116
1.87108
1.83064
1.78985
1.74874
1.70731
1.66556
1.62348
1.58108
1.53832
1.49522
1.45175
1.40789
1.36364
1.31897
1.27388
1.22834
1.18234
1.13587
1.08892
1.04146
0.993483
0.944981
0.895938
0.846343
0.796183
0.745446
0.694125
0.642201
0.589679
0.53652
0.482773
0.42831
0.373371
0.31744
0.26155
0.203592
0.147824
0.0856774
0.0344777
-9.8417
-9.94192
-10.0525
-10.1799
-10.3307
-10.5078
-10.7083
-10.9221
-11.132
-11.3145
-11.4407
-11.4803
-11.4046
-11.1914
-10.8283
-10.3153
-9.66482
-8.89952
-8.04881
-7.1447
-6.21823
-5.2969
-4.40336
-3.55512
-2.76477
-2.04033
-1.3858
-0.801771
-0.286245
0.164503
0.555213
0.89111
1.17754
1.41975
1.62271
1.79109
1.92913
2.04071
2.12932
2.1981
2.24985
2.28704
2.31183
2.3261
2.33148
2.32935
2.3209
2.30713
2.28892
2.26698
2.24194
2.21431
2.18452
2.15293
2.11983
2.08547
2.05005
2.01372
1.97662
1.93885
1.90048
1.86159
1.82221
1.78238
1.74212
1.70146
1.66039
1.61893
1.57706
1.53479
1.49212
1.44903
1.40551
1.36156
1.31716
1.27229
1.22696
1.18114
1.13483
1.08802
1.04068
0.992811
0.944402
0.895441
0.845916
0.795818
0.745135
0.69386
0.641977
0.58949
0.536362
0.482643
0.428203
0.373284
0.317371
0.261498
0.203554
0.147799
0.085668
0.0344666
-9.71108
-9.80371
-9.90441
-10.0175
-10.1466
-10.2927
-10.4522
-10.616
-10.7695
-10.8929
-10.9631
-10.9554
-10.847
-10.6201
-10.2648
-9.78091
-9.17829
-8.47516
-7.69547
-6.8658
-6.0124
-5.15914
-4.32629
-3.53013
-2.78285
-2.09279
-1.46462
-0.899875
-0.397626
0.0448042
0.431183
0.765874
1.0535
1.29869
1.50594
1.67952
1.82337
1.94111
2.03606
2.11119
2.1692
2.21247
2.24312
2.26299
2.27365
2.2765
2.2727
2.26328
2.2491
2.23089
2.20929
2.18482
2.15794
2.129
2.09833
2.06617
2.03276
1.99825
1.9628
1.92652
1.8895
1.85182
1.81353
1.77468
1.7353
1.69543
1.65506
1.61422
1.57292
1.53115
1.48892
1.44622
1.40306
1.35941
1.31528
1.27066
1.22554
1.17991
1.13376
1.08709
1.03988
0.992118
0.943805
0.894928
0.845477
0.795442
0.744815
0.693588
0.641747
0.589297
0.5362
0.482508
0.428092
0.373195
0.317301
0.261444
0.203515
0.147771
0.0856574
0.0344515
-9.57633
-9.65978
-9.74888
-9.84625
-9.95369
-10.0707
-10.1934
-10.3135
-10.4187
-10.4926
-10.5163
-10.47
-10.3354
-10.0984
-9.75115
-9.29341
-8.73296
-8.08451
-7.3676
-6.60426
-5.81669
-5.02553
-4.24883
-3.50154
-2.79536
-2.13863
-1.53651
-0.991254
-0.502811
-0.0694123
0.311839
0.644522
0.932573
1.18005
1.39098
1.56922
1.71842
1.84195
1.94291
2.02415
2.08823
2.13745
2.17385
2.19922
2.21513
2.22292
2.22378
2.2187
2.20857
2.19412
2.17599
2.15472
2.13077
2.10453
2.07631
2.04641
2.01504
1.98239
1.94862
1.91386
1.87822
1.84178
1.80461
1.76677
1.72829
1.68922
1.64958
1.60939
1.56866
1.52741
1.48564
1.44334
1.40053
1.3572
1.31336
1.26898
1.22408
1.17864
1.13266
1.08614
1.03905
0.991411
0.943197
0.894407
0.845031
0.795062
0.744492
0.693315
0.641517
0.589104
0.53604
0.482377
0.427986
0.37311
0.317234
0.261393
0.20348
0.147746
0.085651
0.0344375
-9.43802
-9.51118
-9.58756
-9.66864
-9.75489
-9.84493
-9.93466
-10.0168
-10.0808
-10.1131
-10.0983
-10.0206
-9.86538
-9.62136
-9.28231
-8.8481
-8.32495
-7.72472
-7.0634
-6.35925
-5.63099
-4.89642
-4.17155
-3.47003
-2.80288
-2.17833
-1.6018
-1.07608
-0.601836
-0.178073
0.197339
0.52727
0.815022
1.06411
1.27809
1.46046
1.61454
1.74346
1.85012
1.9372
2.00713
2.06213
2.10416
2.13495
2.15603
2.16874
2.17422
2.17349
2.16741
2.15673
2.14209
2.12405
2.10307
2.07955
2.05383
2.0262
1.99691
1.96615
1.9341
1.9009
1.86666
1.83149
1.79546
1.75865
1.7211
1.68285
1.64395
1.60443
1.56429
1.52356
1.48225
1.44038
1.39794
1.35493
1.31137
1.26726
1.22258
1.17734
1.13153
1.08516
1.03821
0.990682
0.942571
0.893869
0.844571
0.79467
0.744159
0.693033
0.641279
0.588905
0.535875
0.48224
0.427874
0.37302
0.317164
0.261339
0.203442
0.147715
0.0856414
0.0344179
-9.29659
-9.35873
-9.42182
-9.48649
-9.5524
-9.61755
-9.67793
-9.72706
-9.75594
-9.75344
-9.70704
-9.60396
-9.43262
-9.1841
-8.85347
-8.44065
-7.95069
-7.39318
-6.78121
-6.12992
-5.4551
-4.77209
-4.095
-3.4362
-2.80602
-2.21239
-1.66084
-1.15457
-0.694788
-0.281151
0.0878015
0.414301
0.701071
0.951116
1.16756
1.35351
1.512
1.6459
1.75792
1.85055
1.92612
1.98671
2.03421
2.07032
2.0965
2.11407
2.12415
2.12774
2.12571
2.11881
2.10767
2.09287
2.07488
2.05411
2.03092
2.0056
1.97841
1.94957
1.91927
1.88764
1.85484
1.82096
1.7861
1.75034
1.71373
1.67633
1.63819
1.59934
1.55981
1.51962
1.4788
1.43735
1.39528
1.35262
1.30935
1.26549
1.22105
1.17601
1.13038
1.08416
1.03735
0.989946
0.941939
0.893329
0.84411
0.794279
0.743828
0.692755
0.641047
0.588712
0.535716
0.482111
0.427771
0.372939
0.317103
0.261292
0.203413
0.147692
0.0856399
0.0344029
-9.15274
-9.20347
-9.25308
-9.30164
-9.34828
-9.39069
-9.42501
-9.44552
-9.44461
-9.41306
-9.34072
-9.21735
-9.03372
-8.78279
-8.46069
-8.06743
-7.60712
-7.08757
-6.51951
-5.9155
-5.28886
-4.65277
-4.01965
-3.40066
-2.80534
-2.2413
-1.71403
-1.22698
-0.781792
-0.378661
-0.0166984
0.305763
0.590919
0.841301
1.05962
1.24863
1.41105
1.54953
1.66654
1.76444
1.84538
1.91137
1.9642
2.00549
2.03668
2.05904
2.07367
2.08156
2.08356
2.08042
2.0728
2.06125
2.04627
2.02827
2.00762
1.98463
1.95958
1.93268
1.90414
1.87412
1.84277
1.81021
1.77654
1.74184
1.7062
1.66966
1.6323
1.59414
1.55522
1.51559
1.47525
1.43424
1.39256
1.35023
1.30727
1.26368
1.21947
1.17464
1.1292
1.08314
1.03647
0.989184
0.941285
0.892769
0.843632
0.793872
0.743482
0.692463
0.640802
0.588508
0.535547
0.481972
0.427659
0.372848
0.317033
0.261236
0.203375
0.147657
0.0856299
0.034377
-9.00737
-9.04656
-9.08278
-9.11578
-9.14435
-9.16608
-9.17733
-9.17308
-9.14691
-9.0912
-8.99773
-8.85827
-8.66551
-8.41388
-8.10039
-7.72513
-7.29146
-6.80577
-6.27688
-5.71523
-5.13204
-4.53864
-3.94593
-3.36394
-2.80143
-2.26558
-1.76177
-1.2936
-0.863016
-0.47066
-0.116124
0.201766
0.484734
0.734875
0.954509
1.14606
1.31196
1.45459
1.57624
1.67909
1.76516
1.83633
1.89431
1.94065
1.97674
2.0038
2.02292
2.03506
2.04106
2.04168
2.03756
2.02927
2.0173
2.00208
1.984
1.96336
1.94045
1.91552
1.88877
1.86038
1.83051
1.79928
1.76681
1.7332
1.69853
1.66288
1.6263
1.58885
1.55056
1.51149
1.47165
1.43108
1.3898
1.34782
1.30517
1.26186
1.21788
1.17327
1.12801
1.08211
1.03559
0.988428
0.940639
0.892218
0.843165
0.793477
0.743151
0.692187
0.640573
0.588321
0.535395
0.481851
0.427565
0.372776
0.316982
0.261198
0.203356
0.147639
0.0856369
0.0343629
-8.86091
-8.88866
-8.91184
-8.93004
-8.94188
-8.94494
-8.93587
-8.91031
-8.86282
-8.78714
-8.67658
-8.52457
-8.32529
-8.07439
-7.76954
-7.41091
-7.00128
-6.5459
-6.05205
-5.52839
-4.98442
-4.42985
-3.87424
-3.32655
-2.79481
-2.28572
-1.80448
-1.35473
-0.938663
-0.557244
-0.210476
0.102388
0.382654
0.632022
0.852449
1.04604
1.21495
1.36133
1.48726
1.59474
1.68566
1.76179
1.82473
1.87597
1.91683
1.9485
1.97203
1.98837
1.99834
2.00268
2.00205
1.997
1.98804
1.97562
1.9601
1.94182
1.92108
1.89812
1.87317
1.84642
1.81804
1.78816
1.75691
1.7244
1.69072
1.65596
1.62018
1.58344
1.5458
1.50729
1.46796
1.42785
1.38697
1.34535
1.30301
1.25997
1.21625
1.17184
1.12678
1.08105
1.03467
0.987637
0.939959
0.891636
0.842668
0.793055
0.742794
0.691885
0.640321
0.58811
0.535221
0.481708
0.42745
0.372682
0.31691
0.261137
0.203316
0.147597
0.0856241
0.0343261
-8.71494
-8.73144
-8.74205
-8.74626
-8.74266
-8.7289
-8.70196
-8.65804
-8.59258
-8.50042
-8.37613
-8.21445
-8.01079
-7.76172
-7.46547
-7.12226
-6.73442
-6.30628
-5.84383
-5.35433
-4.84576
-4.32651
-3.80491
-3.28898
-2.786
-2.30222
-1.84259
-1.41073
-1.00897
-0.638547
-0.299796
0.00767062
0.284787
0.532899
0.753634
0.948796
1.12028
1.27
1.39984
1.51164
1.60713
1.68797
1.75568
1.81165
1.85715
1.89332
1.92117
1.94164
1.95552
1.96355
1.96638
1.96456
1.95861
1.94896
1.93601
1.9201
1.90153
1.88056
1.85743
1.83233
1.80545
1.77693
1.74691
1.71552
1.68284
1.64898
1.61401
1.578
1.541
1.50308
1.46426
1.42461
1.38413
1.34288
1.30086
1.2581
1.21463
1.17044
1.12557
1.08001
1.03378
0.986876
0.939312
0.891089
0.842207
0.792669
0.742473
0.691622
0.640106
0.587938