/*--------------------------------*- C++ -*----------------------------------*\
  =========                 |
  \\      /  F ield         | OpenFOAM: The Open Source CFD Toolbox
   \\    /   O peration     | Website:  https://openfoam.org
    \\  /    A nd           | Version:  10
     \\/     M anipulation  |
\*---------------------------------------------------------------------------*/
FoamFile
{
    format      ascii;
    class       surfaceScalarField;
    location    "0.02";
    object      phi;
}
// * * * * * * * * * * * * * * * * * * * * * * * * * * * * * * * * * * * * * //

dimensions      [0 3 -1 0 0 0 0];

internalField   nonuniform List<scalar> 
13452
(
4.01978e-05
2.00707e-05
2.59514e-05
1.42464e-05
1.85638e-05
7.38761e-06
1.52113e-05
3.3525e-06
1.38211e-05
1.39021e-06
1.31421e-05
6.78948e-07
1.27221e-05
4.20042e-07
1.24094e-05
3.12716e-07
1.21548e-05
2.54609e-07
1.19468e-05
2.07948e-07
1.1782e-05
1.64856e-07
1.1657e-05
1.24951e-07
1.15686e-05
8.8469e-08
1.15133e-05
5.52537e-08
1.14886e-05
2.47022e-08
1.14926e-05
-4.01599e-09
1.15225e-05
-2.9897e-08
1.15778e-05
-5.53242e-08
1.16578e-05
-7.99935e-08
1.17631e-05
-1.05318e-07
1.18946e-05
-1.31459e-07
1.20533e-05
-1.58657e-07
1.22406e-05
-1.87342e-07
1.24586e-05
-2.18014e-07
1.27099e-05
-2.51252e-07
1.29975e-05
-2.87639e-07
1.33258e-05
-3.28309e-07
1.36995e-05
-3.73693e-07
1.4128e-05
-4.2849e-07
1.46153e-05
-4.87334e-07
1.51997e-05
-5.84339e-07
1.58363e-05
-6.36617e-07
-1.05254e-06
1.68888e-05
6.59072e-05
1.61538e-05
6.1917e-05
1.82366e-05
5.56841e-05
1.36205e-05
4.98539e-05
9.18274e-06
4.5405e-05
5.83909e-06
4.22479e-05
3.83599e-06
4.00066e-05
2.66135e-06
3.8383e-05
1.93629e-06
3.7173e-05
1.46468e-06
3.62466e-05
1.13429e-06
3.55249e-05
8.8656e-07
3.49587e-05
6.91178e-07
3.45164e-05
5.30798e-07
3.4177e-05
3.94656e-07
3.3926e-05
2.75642e-07
3.3753e-05
1.68995e-07
3.36519e-05
7.12182e-08
3.36181e-05
-2.152e-08
3.36477e-05
-1.09606e-07
3.37384e-05
-1.96052e-07
3.3889e-05
-2.81998e-07
3.40989e-05
-3.68594e-07
3.43685e-05
-4.5694e-07
3.46987e-05
-5.4817e-07
3.50909e-05
-6.43504e-07
3.55476e-05
-7.44291e-07
3.60718e-05
-8.52505e-07
3.66681e-05
-9.70049e-07
3.73424e-05
-1.1028e-06
3.81064e-05
-1.25125e-06
3.89685e-05
-1.4465e-06
4e-05
-1.66811e-06
-2.08942e-06
4.10369e-05
6.91821e-05
1.07332e-05
7.25149e-05
1.49037e-05
7.30851e-05
1.30504e-05
7.17407e-05
1.05271e-05
6.95392e-05
8.04057e-06
6.72169e-05
6.1583e-06
6.5057e-05
4.8213e-06
6.31503e-05
3.84296e-06
6.1508e-05
3.10692e-06
6.01091e-05
2.53319e-06
5.89256e-05
2.07006e-06
5.79308e-05
1.68598e-06
5.71013e-05
1.36029e-06
5.64174e-05
1.07857e-06
5.58628e-05
8.30303e-07
5.54242e-05
6.07604e-07
5.5091e-05
4.04423e-07
5.48535e-05
2.15889e-07
5.47066e-05
3.73746e-08
5.46468e-05
-1.3631e-07
5.46707e-05
-3.0592e-07
5.47746e-05
-4.72461e-07
5.49555e-05
-6.37805e-07
5.52111e-05
-8.0382e-07
5.554e-05
-9.72396e-07
5.59413e-05
-1.14555e-06
5.64146e-05
-1.32586e-06
5.69608e-05
-1.51619e-06
5.75802e-05
-1.72218e-06
5.82766e-05
-1.9477e-06
5.90418e-05
-2.21171e-06
5.98835e-05
-2.50979e-06
-2.90007e-06
6.06941e-05
6.88465e-05
7.46976e-06
7.21631e-05
1.15871e-05
7.45408e-05
1.06726e-05
7.59577e-05
9.11029e-06
7.65492e-05
7.44898e-06
7.6635e-05
6.07254e-06
7.64246e-05
5.03169e-06
7.6045e-05
4.22254e-06
7.55781e-05
3.57385e-06
7.50738e-05
3.03752e-06
7.45639e-05
2.57997e-06
7.40697e-05
2.18014e-06
7.36059e-05
1.82412e-06
7.31827e-05
1.50174e-06
7.28073e-05
1.20576e-06
7.2484e-05
9.30902e-07
7.22155e-05
6.72877e-07
7.20035e-05
4.27888e-07
7.18478e-05
1.93061e-07
7.17454e-05
-3.38674e-08
7.1695e-05
-2.55491e-07
7.1696e-05
-4.7348e-07
7.17482e-05
-6.89987e-07
7.18509e-05
-9.06561e-07
7.20033e-05
-1.12484e-06
7.22044e-05
-1.3466e-06
7.24526e-05
-1.5741e-06
7.27464e-05
-1.80991e-06
7.30826e-05
-2.05843e-06
7.34581e-05
-2.32323e-06
7.38607e-05
-2.61424e-06
7.4281e-05
-2.9301e-06
-3.2841e-06
7.4665e-05
6.95599e-05
5.36661e-06
7.18394e-05
9.3076e-06
7.3544e-05
8.96807e-06
7.4817e-05
7.83732e-06
7.57115e-05
6.55448e-06
7.63653e-05
5.41864e-06
7.68657e-05
4.53138e-06
7.7255e-05
3.8332e-06
7.75623e-05
3.2666e-06
7.78067e-05
2.79309e-06
7.80019e-05
2.38476e-06
7.81588e-05
2.02322e-06
7.82864e-05
1.69657e-06
7.83914e-05
1.39673e-06
7.84797e-05
1.11743e-06
7.85569e-05
8.53676e-07
7.86279e-05
6.01906e-07
7.86968e-05
3.59032e-07
7.87662e-05
1.23623e-07
7.88374e-05
-1.05034e-07
7.89112e-05
-3.29348e-07
7.8989e-05
-5.51262e-07
7.90716e-05
-7.72585e-07
7.91597e-05
-9.94681e-07
7.92538e-05
-1.21887e-06
7.93537e-05
-1.44657e-06
7.94592e-05
-1.67952e-06
7.9569e-05
-1.91974e-06
7.96807e-05
-2.17017e-06
7.97906e-05
-2.4331e-06
7.98892e-05
-2.71291e-06
7.99663e-05
-3.00711e-06
-3.31503e-06
7.99972e-05
7.08413e-05
3.9093e-06
7.26321e-05
7.5168e-06
7.39446e-05
7.65558e-06
7.48822e-05
6.89971e-06
7.55209e-05
5.91581e-06
7.59794e-05
4.96018e-06
7.63443e-05
4.16639e-06
7.66559e-05
3.52162e-06
7.69342e-05
2.98835e-06
7.71887e-05
2.53856e-06
7.74235e-05
2.14994e-06
7.76406e-05
1.80609e-06
7.78415e-05
1.49568e-06
7.80276e-05
1.21062e-06
7.82001e-05
9.44955e-07
7.83597e-05
6.94139e-07
7.85069e-05
4.54617e-07
7.86424e-05
2.23536e-07
7.87677e-05
-1.67105e-09
7.88854e-05
-2.22717e-07
7.89979e-05
-4.41788e-07
7.91061e-05
-6.59517e-07
7.92107e-05
-8.77184e-07
7.9312e-05
-1.09599e-06
7.94103e-05
-1.31713e-06
7.95056e-05
-1.54186e-06
7.95977e-05
-1.77163e-06
7.96859e-05
-2.00795e-06
7.97684e-05
-2.25269e-06
7.98423e-05
-2.50696e-06
7.99014e-05
-2.77205e-06
7.99391e-05
-3.04481e-06
-3.32065e-06
7.99447e-05
7.23899e-05
2.8857e-06
7.38458e-05
6.06093e-06
7.49797e-05
6.52167e-06
7.58067e-05
6.07278e-06
7.6376e-05
5.34648e-06
7.67713e-05
4.56482e-06
7.70689e-05
3.86883e-06
7.73106e-05
3.27989e-06
7.75197e-05
2.77926e-06
7.77093e-05
2.34895e-06
7.78863e-05
1.97294e-06
7.80543e-05
1.6381e-06
7.82153e-05
1.33468e-06
7.83705e-05
1.05546e-06
7.85205e-05
7.94901e-07
7.8666e-05
5.48684e-07
7.88073e-05
3.13358e-07
7.89448e-05
8.6032e-08
7.90789e-05
-1.35827e-07
7.92103e-05
-3.54141e-07
7.93392e-05
-5.70641e-07
7.94659e-05
-7.86269e-07
7.95909e-05
-1.00213e-06
7.97142e-05
-1.21934e-06
7.98361e-05
-1.43896e-06
7.99563e-05
-1.66208e-06
8.00745e-05
-1.88984e-06
8.01898e-05
-2.12329e-06
8.03006e-05
-2.36341e-06
8.0404e-05
-2.61045e-06
8.0496e-05
-2.86397e-06
8.05718e-05
-3.12066e-06
-3.37519e-06
8.06264e-05
7.41263e-05
2.16464e-06
7.52971e-05
4.89015e-06
7.62844e-05
5.53435e-06
7.70445e-05
5.3127e-06
7.76004e-05
4.79062e-06
7.80014e-05
4.16378e-06
7.83053e-05
3.56491e-06
7.85496e-05
3.03566e-06
7.87566e-05
2.57226e-06
7.89404e-05
2.16515e-06
7.91092e-05
1.80409e-06
7.9268e-05
1.47933e-06
7.94197e-05
1.18297e-06
7.95663e-05
9.08866e-07
7.97091e-05
6.52109e-07
7.9849e-05
4.08772e-07
7.99867e-05
1.75639e-07
8.01227e-05
-4.9959e-08
8.02572e-05
-2.70299e-07
8.03903e-05
-4.87278e-07
8.05222e-05
-7.02482e-07
8.06529e-05
-9.16989e-07
8.07826e-05
-1.13186e-06
8.09114e-05
-1.34812e-06
8.10392e-05
-1.56673e-06
8.11656e-05
-1.78856e-06
8.12903e-05
-2.01445e-06
8.1412e-05
-2.24502e-06
8.15292e-05
-2.48062e-06
8.16396e-05
-2.72091e-06
8.17403e-05
-2.96466e-06
8.18284e-05
-3.20877e-06
-3.44844e-06
8.19017e-05
7.60177e-05
1.64936e-06
7.69574e-05
3.95051e-06
7.78114e-05
4.68031e-06
7.85001e-05
4.62401e-06
7.90299e-05
4.26079e-06
7.94294e-05
3.76431e-06
7.97407e-05
3.25365e-06
7.9995e-05
2.78134e-06
8.0212e-05
2.35528e-06
8.04043e-05
1.97276e-06
8.05802e-05
1.62826e-06
8.07444e-05
1.31506e-06
8.09004e-05
1.02702e-06
8.10502e-05
7.59042e-07
8.11954e-05
5.06895e-07
8.13371e-05
2.67079e-07
8.14761e-05
3.66678e-08
8.16129e-05
-1.86785e-07
8.1748e-05
-4.05348e-07
8.18815e-05
-6.20787e-07
8.20136e-05
-8.3458e-07
8.21444e-05
-1.04785e-06
8.22742e-05
-1.26161e-06
8.24028e-05
-1.47676e-06
8.25302e-05
-1.69411e-06
8.2656e-05
-1.91435e-06
8.27796e-05
-2.13802e-06
8.29e-05
-2.36544e-06
8.30159e-05
-2.59654e-06
8.31256e-05
-2.83066e-06
8.32273e-05
-3.06629e-06
8.33193e-05
-3.30077e-06
-3.53026e-06
8.34011e-05
7.80339e-05
1.27502e-06
7.8788e-05
3.19645e-06
7.95244e-05
3.94387e-06
8.0146e-05
4.0024e-06
8.06464e-05
3.76041e-06
8.10393e-05
3.37144e-06
8.13534e-05
2.9395e-06
8.16139e-05
2.52085e-06
8.18377e-05
2.13154e-06
8.20363e-05
1.77417e-06
8.22175e-05
1.44706e-06
8.23863e-05
1.14623e-06
8.25461e-05
8.6722e-07
8.26991e-05
6.06e-07
8.2847e-05
3.59031e-07
8.29908e-05
1.23254e-07
8.31315e-05
-1.03949e-07
8.32695e-05
-3.24805e-07
8.34053e-05
-5.41215e-07
8.35394e-05
-7.54816e-07
8.36718e-05
-9.6697e-07
8.38027e-05
-1.17875e-06
8.39321e-05
-1.39108e-06
8.40601e-05
-1.60476e-06
8.41865e-05
-1.82045e-06
8.43108e-05
-2.03869e-06
8.44326e-05
-2.25979e-06
8.4551e-05
-2.48384e-06
8.4665e-05
-2.71054e-06
8.47734e-05
-2.93908e-06
8.48751e-05
-3.16802e-06
8.49696e-05
-3.3952e-06
-3.61773e-06
8.5057e-05
8.01555e-05
9.97859e-07
8.07624e-05
2.58951e-06
8.13969e-05
3.30939e-06
8.19571e-05
3.44219e-06
8.24266e-05
3.29091e-06
8.28089e-05
2.9891e-06
8.31225e-05
2.62597e-06
8.33866e-05
2.25671e-06
8.36157e-05
1.9025e-06
8.38198e-05
1.57003e-06
8.40062e-05
1.26068e-06
8.41796e-05
9.7278e-07
8.43434e-05
7.03426e-07
8.44998e-05
4.49577e-07
8.46505e-05
2.08362e-07
8.47966e-05
-2.28367e-08
8.4939e-05
-2.46319e-07
8.50782e-05
-4.64093e-07
8.52149e-05
-6.77887e-07
8.53493e-05
-8.89188e-07
8.54816e-05
-1.09924e-06
8.56119e-05
-1.30905e-06
8.57402e-05
-1.51946e-06
8.58667e-05
-1.73117e-06
8.59909e-05
-1.94472e-06
8.61127e-05
-2.16049e-06
8.62316e-05
-2.37866e-06
8.63469e-05
-2.59914e-06
8.64579e-05
-2.82152e-06
8.65638e-05
-3.04502e-06
8.66642e-05
-3.26836e-06
8.67589e-05
-3.48988e-06
-3.70751e-06
8.68486e-05
8.23699e-05
7.88366e-07
8.28608e-05
2.09864e-06
8.34069e-05
2.76334e-06
8.39106e-05
2.93844e-06
8.4349e-05
2.85257e-06
8.47186e-05
2.6195e-06
8.50297e-05
2.31486e-06
8.52963e-05
1.99002e-06
8.55301e-05
1.66878e-06
8.57395e-05
1.36065e-06
8.59309e-05
1.06926e-06
8.61088e-05
7.94807e-07
8.62765e-05
5.3573e-07
8.64362e-05
2.899e-07
8.65895e-05
5.50727e-08
8.67376e-05
-1.70925e-07
8.68814e-05
-3.90083e-07
8.70214e-05
-6.04181e-07
8.71583e-05
-8.14775e-07
8.72924e-05
-1.02321e-06
8.74237e-05
-1.23062e-06
8.75526e-05
-1.43793e-06
8.76791e-05
-1.6459e-06
8.7803e-05
-1.8551e-06
8.79243e-05
-2.066e-06
8.80426e-05
-2.27883e-06
8.81576e-05
-2.49368e-06
8.82689e-05
-2.71038e-06
8.83758e-05
-2.92849e-06
8.84781e-05
-3.14729e-06
8.85755e-05
-3.36574e-06
8.86683e-05
-3.58264e-06
-3.79652e-06
8.87573e-05
8.46695e-05
6.2662e-07
8.50692e-05
1.69893e-06
8.55395e-05
2.29309e-06
8.59921e-05
2.48586e-06
8.63999e-05
2.44472e-06
8.6755e-05
2.2644e-06
8.70615e-05
2.00841e-06
8.73287e-05
1.72276e-06
8.75656e-05
1.43189e-06
8.77792e-05
1.14704e-06
8.79751e-05
8.73422e-07
8.81572e-05
6.12664e-07
8.83286e-05
3.64335e-07
8.84914e-05
1.27105e-07
8.86472e-05
-1.00703e-07
8.87971e-05
-3.20846e-07
8.8942e-05
-5.3502e-07
8.90826e-05
-7.44784e-07
8.92194e-05
-9.51525e-07
8.93526e-05
-1.15645e-06
8.94826e-05
-1.36058e-06
8.96094e-05
-1.56475e-06
8.97331e-05
-1.76963e-06
8.98537e-05
-1.97571e-06
8.99711e-05
-2.18336e-06
9.0085e-05
-2.39274e-06
9.01952e-05
-2.60385e-06
9.03013e-05
-2.8165e-06
9.04031e-05
-3.03026e-06
9.05003e-05
-3.24452e-06
9.0593e-05
-3.45847e-06
9.06816e-05
-3.67126e-06
-3.88186e-06
9.0767e-05
8.70497e-05
4.99067e-07
8.7378e-05
1.37066e-06
8.77838e-05
1.88733e-06
8.81902e-05
2.07936e-06
8.85687e-05
2.06623e-06
8.89082e-05
1.92492e-06
8.92084e-05
1.70825e-06
8.94748e-05
1.45636e-06
8.97138e-05
1.19289e-06
8.99309e-05
9.29908e-07
9.01307e-05
6.73621e-07
9.03167e-05
4.26666e-07
9.04915e-05
1.89493e-07
9.06572e-05
-3.85653e-08
9.08152e-05
-2.58691e-07
9.09666e-05
-4.72273e-07
9.11123e-05
-6.80735e-07
9.1253e-05
-8.85431e-07
9.13891e-05
-1.08759e-06
9.15209e-05
-1.28828e-06
9.16487e-05
-1.48842e-06
9.17727e-05
-1.68875e-06
9.18929e-05
-1.88986e-06
9.20094e-05
-2.09217e-06
9.2122e-05
-2.29597e-06
9.22306e-05
-2.50135e-06
9.2335e-05
-2.70828e-06
9.24351e-05
-2.91654e-06
9.25306e-05
-3.12577e-06
9.26215e-05
-3.33544e-06
9.2708e-05
-3.54496e-06
9.27905e-05
-3.75373e-06
-3.961e-06
9.28696e-05
8.95082e-05
3.96397e-07
8.97806e-05
1.09831e-06
9.01319e-05
1.53594e-06
9.04974e-05
1.71389e-06
9.08483e-05
1.71533e-06
9.11718e-05
1.6014e-06
9.14645e-05
1.41558e-06
9.17287e-05
1.19214e-06
9.19686e-05
9.52985e-07
9.21883e-05
7.10267e-07
9.23912e-05
4.7066e-07
9.25804e-05
2.37448e-07
9.27582e-05
1.172e-08
9.29263e-05
-2.06667e-07
9.30861e-05
-4.18485e-07
9.32387e-05
-6.24809e-07
9.33847e-05
-8.26822e-07
9.3525e-05
-1.02569e-06
9.36599e-05
-1.22249e-06
9.37898e-05
-1.41817e-06
9.39149e-05
-1.61356e-06
9.40355e-05
-1.8093e-06
9.41515e-05
-2.00592e-06
9.42631e-05
-2.20376e-06
9.43702e-05
-2.40304e-06
9.44727e-05
-2.60383e-06
9.45704e-05
-2.80605e-06
9.46634e-05
-3.00951e-06
9.47515e-05
-3.21387e-06
9.48348e-05
-3.41873e-06
9.49135e-05
-3.62361e-06
9.49878e-05
-3.82811e-06
-4.03166e-06
9.50585e-05
9.20441e-05
3.12118e-07
9.22727e-05
8.69753e-07
9.25786e-05
1.23e-06
9.2908e-05
1.38455e-06
9.32334e-05
1.38994e-06
9.35411e-05
1.29369e-06
9.38255e-05
1.13116e-06
9.40865e-05
9.31092e-07
9.43264e-05
7.13115e-07
9.45478e-05
4.88879e-07
9.47533e-05
2.65124e-07
9.49453e-05
4.54577e-08
9.51257e-05
-1.6862e-07
9.52959e-05
-3.76871e-07
9.54571e-05
-5.79755e-07
9.56104e-05
-7.78095e-07
9.57565e-05
-9.72872e-07
9.58959e-05
-1.16509e-06
9.60291e-05
-1.3557e-06
9.61565e-05
-1.54555e-06
9.62783e-05
-1.73536e-06
9.63947e-05
-1.92571e-06
9.65058e-05
-2.11705e-06
9.66117e-05
-2.30968e-06
9.67124e-05
-2.50375e-06
9.68079e-05
-2.69931e-06
9.68981e-05
-2.89626e-06
9.6983e-05
-3.09441e-06
9.70626e-05
-3.29347e-06
9.7137e-05
-3.4931e-06
9.72063e-05
-3.69293e-06
9.72709e-05
-3.89268e-06
-4.09185e-06
9.73311e-05
9.46576e-05
2.41626e-07
9.48519e-05
6.75499e-07
9.51201e-05
9.6177e-07
9.54181e-05
1.08664e-06
9.57203e-05
1.0877e-06
9.60129e-05
1.0011e-06
9.62888e-05
8.55244e-07
9.65461e-05
6.73844e-07
9.67852e-05
4.73997e-07
9.70076e-05
2.66434e-07
9.72151e-05
5.76313e-08
9.74093e-05
-1.4876e-07
9.75917e-05
-3.51033e-07
9.77636e-05
-5.48716e-07
9.79259e-05
-7.42052e-07
9.80795e-05
-9.31677e-07
9.8225e-05
-1.11841e-06
9.83631e-05
-1.30314e-06
9.84941e-05
-1.4867e-06
9.86183e-05
-1.66984e-06
9.87362e-05
-1.85321e-06
9.88478e-05
-2.03733e-06
9.89533e-05
-2.22258e-06
9.90529e-05
-2.4092e-06
9.91464e-05
-2.59732e-06
9.92341e-05
-2.78695e-06
9.93158e-05
-2.97798e-06
9.93916e-05
-3.17023e-06
9.94616e-05
-3.36344e-06
9.95258e-05
-3.5573e-06
9.95843e-05
-3.75151e-06
9.96375e-05
-3.94584e-06
-4.13983e-06
9.96855e-05
9.73496e-05
1.81581e-07
9.7517e-05
5.08104e-07
9.77542e-05
7.24515e-07
9.80252e-05
8.15688e-07
9.83068e-05
8.06038e-07
9.85854e-05
7.22556e-07
9.88529e-05
5.87686e-07
9.91061e-05
4.207e-07
9.9344e-05
2.36101e-07
9.9567e-05
4.3433e-08
9.9776e-05
-1.51358e-07
9.9972e-05
-3.44794e-07
0.000100156
-5.35149e-07
0.000100329
-7.21849e-07
0.000100492
-9.05017e-07
0.000100646
-1.08517e-06
0.00010079
-1.26303e-06
0.000100927
-1.43937e-06
0.000101055
-1.61496e-06
0.000101175
-1.79047e-06
0.000101289
-1.96649e-06
0.000101395
-2.14348e-06
0.000101494
-2.32176e-06
0.000101586
-2.50155e-06
0.000101672
-2.68293e-06
0.000101751
-2.86589e-06
0.000101823
-3.0503e-06
0.000101889
-3.23599e-06
0.000101948
-3.42269e-06
0.000102001
-3.61015e-06
0.000102048
-3.79805e-06
0.000102088
-3.98621e-06
-4.17413e-06
0.000102122
0.000100121
1.29504e-07
0.000100268
3.61682e-07
0.00010048
5.12439e-07
0.000100728
5.6748e-07
0.000100992
5.42283e-07
0.000101258
4.56609e-07
0.000101517
3.2791e-07
0.000101766
1.7157e-07
0.000102003
-4.2353e-10
0.000102226
-1.79873e-07
0.000102436
-3.61553e-07
0.000102634
-5.42342e-07
0.00010282
-7.20653e-07
0.000102994
-8.95938e-07
0.000103157
-1.06829e-06
0.00010331
-1.23819e-06
0.000103453
-1.40629e-06
0.000103587
-1.57331e-06
0.000103712
-1.73995e-06
0.000103829
-1.90686e-06
0.000103937
-2.07457e-06
0.000104037
-2.24348e-06
0.000104129
-2.41388e-06
0.000104213
-2.58596e-06
0.00010429
-2.75976e-06
0.000104359
-2.93525e-06
0.000104421
-3.11228e-06
0.000104476
-3.29067e-06
0.000104523
-3.47017e-06
0.000104564
-3.65049e-06
0.000104597
-3.83134e-06
0.000104623
-4.0125e-06
-4.19345e-06
0.000104643
0.000102974
8.35006e-08
0.000103104
2.31516e-07
0.000103296
3.20517e-07
0.000103526
3.38045e-07
0.000103774
2.93653e-07
0.000104029
2.01529e-07
0.000104282
7.49808e-08
0.000104528
-7.39692e-08
0.000104763
-2.35694e-07
0.000104987
-4.03435e-07
0.000105198
-5.72811e-07
0.000105397
-7.41208e-07
0.000105583
-9.07312e-07
0.000105758
-1.07071e-06
0.000105921
-1.23157e-06
0.000106074
-1.39037e-06
0.000106215
-1.54777e-06
0.000106346
-1.70447e-06
0.000106467
-1.86117e-06
0.000106579
-2.01845e-06
0.000106681
-2.17681e-06
0.000106774
-2.33665e-06
0.000106859
-2.49822e-06
0.000106935
-2.66166e-06
0.000107002
-2.827e-06
0.000107061
-2.99418e-06
0.000107111
-3.16304e-06
0.000107154
-3.33336e-06
0.000107189
-3.50489e-06
0.000107216
-3.67732e-06
0.000107235
-3.85033e-06
0.000107246
-4.02369e-06
-4.19682e-06
0.000107249
0.00010591
4.20854e-08
0.000106028
1.13755e-07
0.000106204
1.44341e-07
0.000106419
1.23602e-07
0.000106655
5.72583e-08
0.000106901
-4.47188e-08
0.000107149
-1.72435e-07
0.000107391
-3.16758e-07
0.000107626
-4.70239e-07
0.00010785
-6.27569e-07
0.000108063
-7.85314e-07
0.000108263
-9.41473e-07
0.000108451
-1.09512e-06
0.000108626
-1.24609e-06
0.000108789
-1.39468e-06
0.00010894
-1.54147e-06
0.00010908
-1.68716e-06
0.000109208
-1.83248e-06
0.000109325
-1.97811e-06
0.000109431
-2.12466e-06
0.000109527
-2.27261e-06
0.000109612
-2.42232e-06
0.000109688
-2.57402e-06
0.000109754
-2.72785e-06
0.000109811
-2.8838e-06
0.000109859
-3.04178e-06
0.000109897
-3.20161e-06
0.000109927
-3.36306e-06
0.000109948
-3.52582e-06
0.00010996
-3.68959e-06
0.000109964
-3.85399e-06
0.000109959
-4.01874e-06
-4.18322e-06
0.000109945
0.000108931
4.04412e-09
0.00010904
5.18118e-09
0.000109204
-2.00044e-08
0.000109407
-7.94557e-08
0.000109635
-1.69863e-07
0.000109874
-2.84405e-07
0.000110118
-4.15982e-07
0.000110359
-5.57941e-07
0.000110594
-7.04831e-07
0.000110819
-8.52779e-07
0.000111033
-9.99359e-07
0.000111235
-1.14328e-06
0.000111424
-1.2841e-06
0.000111599
-1.42199e-06
0.000111762
-1.55745e-06
0.000111912
-1.69122e-06
0.000112049
-1.82411e-06
0.000112173
-1.95689e-06
0.000112286
-2.0903e-06
0.000112386
-2.22495e-06
0.000112475
-2.36133e-06
0.000112552
-2.4998e-06
0.000112619
-2.64058e-06
0.000112675
-2.78377e-06
0.00011272
-2.92936e-06
0.000112756
-3.07723e-06
0.000112781
-3.22717e-06
0.000112797
-3.37892e-06
0.000112803
-3.53214e-06
0.0001128
-3.68648e-06
0.000112788
-3.84154e-06
0.000112766
-3.99697e-06
-4.15212e-06
0.000112735
0.00011204
-3.16848e-08
0.000112142
-9.70411e-08
0.000112299
-1.76146e-07
0.000112494
-2.74722e-07
0.000112715
-3.90901e-07
0.000112951
-5.20204e-07
0.000113193
-6.57812e-07
0.000113434
-7.99224e-07
0.00011367
-9.40815e-07
0.000113897
-1.08013e-06
0.000114114
-1.21578e-06
0.000114318
-1.34727e-06
0.000114508
-1.47472e-06
0.000114685
-1.5987e-06
0.000114847
-1.72003e-06
0.000114996
-1.83963e-06
0.00011513
-1.95848e-06
0.000115251
-2.07745e-06
0.000115358
-2.19734e-06
0.000115452
-2.3188e-06
0.000115533
-2.44236e-06
0.000115601
-2.56838e-06
0.000115658
-2.69709e-06
0.000115703
-2.82856e-06
0.000115736
-2.96276e-06
0.000115758
-3.09956e-06
0.00011577
-3.23871e-06
0.000115771
-3.37991e-06
0.000115762
-3.52281e-06
0.000115742
-3.66698e-06
0.000115712
-3.81198e-06
0.000115673
-3.95741e-06
-4.10255e-06
0.000115623
0.000115239
-6.59971e-08
0.000115337
-1.95427e-07
0.000115488
-3.27471e-07
0.000115679
-4.65717e-07
0.000115898
-6.09116e-07
0.000116132
-7.54938e-07
0.000116375
-9.00259e-07
0.000116618
-1.04247e-06
0.000116857
-1.17965e-06
0.000117088
-1.31072e-06
0.000117307
-1.43539e-06
0.000117514
-1.55401e-06
0.000117707
-1.66733e-06
0.000117884
-1.77642e-06
0.000118047
-1.88244e-06
0.000118194
-1.9866e-06
0.000118325
-2.09004e-06
0.000118442
-2.19381e-06
0.000118543
-2.29879e-06
0.00011863
-2.40571e-06
0.000118703
-2.51513e-06
0.000118762
-2.62743e-06
0.000118807
-2.74285e-06
0.00011884
-2.86147e-06
0.000118861
-2.98324e-06
0.000118869
-3.10798e-06
0.000118866
-3.23545e-06
0.000118851
-3.3653e-06
0.000118826
-3.49711e-06
0.000118789
-3.63044e-06
0.000118742
-3.76478e-06
0.000118684
-3.89968e-06
-4.03439e-06
0.000118616
0.00011853
-9.97794e-08
0.000118627
-2.92458e-07
0.000118777
-4.77457e-07
0.000118967
-6.56297e-07
0.000119186
-8.28352e-07
0.000119424
-9.92228e-07
0.00011967
-1.14661e-06
0.000119918
-1.2906e-06
0.000120162
-1.42386e-06
0.000120398
-1.54672e-06
0.000120623
-1.66001e-06
0.000120834
-1.76497e-06
0.00012103
-1.8631e-06
0.000121209
-1.956e-06
0.000121372
-2.04527e-06
0.000121518
-2.13244e-06
0.000121647
-2.2189e-06
0.000121759
-2.30587e-06
0.000121855
-2.39436e-06
0.000121934
-2.48519e-06
0.000121998
-2.57899e-06
0.000122047
-2.67617e-06
0.000122081
-2.77699e-06
0.000122101
-2.88154e-06
0.000122107
-2.98974e-06
0.000122101
-3.10141e-06
0.000122082
-3.21626e-06
0.00012205
-3.3339e-06
0.000122007
-3.45388e-06
0.000121952
-3.5757e-06
0.000121886
-3.69879e-06
0.000121809
-3.82262e-06
-3.9464e-06
0.000121721
0.000121915
-1.33907e-07
0.000122014
-3.90579e-07
0.000122166
-6.29549e-07
0.00012236
-8.50296e-07
0.000122584
-1.05239e-06
0.000122827
-1.23555e-06
0.00012308
-1.39989e-06
0.000123336
-1.54615e-06
0.000123588
-1.67556e-06
0.000123831
-1.78983e-06
0.000124062
-1.89098e-06
0.000124278
-1.98123e-06
0.000124478
-2.06283e-06
0.00012466
-2.13803e-06
0.000124823
-2.20891e-06
0.000124968
-2.27737e-06
0.000125094
-2.34508e-06
0.000125202
-2.41349e-06
0.000125291
-2.48376e-06
0.000125363
-2.55684e-06
0.000125417
-2.63342e-06
0.000125455
-2.71399e-06
0.000125477
-2.79882e-06
0.000125484
-2.888e-06
0.000125475
-2.98147e-06
0.000125453
-3.07903e-06
0.000125417
-3.18034e-06
0.000125368
-3.28498e-06
0.000125307
-3.39247e-06
0.000125233
-3.50223e-06
0.000125148
-3.61366e-06
0.000125052
-3.72618e-06
-3.83895e-06
0.000124944
0.000125399
-1.69391e-07
0.000125501
-4.92651e-07
0.000125659
-7.87994e-07
0.000125862
-1.05279e-06
0.000126096
-1.2867e-06
0.000126351
-1.49039e-06
0.000126617
-1.66538e-06
0.000126884
-1.81398e-06
0.000127148
-1.93906e-06
0.000127402
-2.04378e-06
0.000127642
-2.13143e-06
0.000127866
-2.2053e-06
0.000128072
-2.26851e-06
0.000128258
-2.32399e-06
0.000128423
-2.37438e-06
0.000128568
-2.42201e-06
0.000128692
-2.46887e-06
0.000128795
-2.51666e-06
0.000128878
-2.56673e-06
0.000128941
-2.62015e-06
0.000128986
-2.67773e-06
0.000129012
-2.74001e-06
0.00012902
-2.8073e-06
0.000129012
-2.87972e-06
0.000128988
-2.95719e-06
0.000128948
-3.0395e-06
0.000128894
-3.12629e-06
0.000128826
-3.21709e-06
0.000128745
-3.31135e-06
0.000128651
-3.40847e-06
0.000128545
-3.50774e-06
0.000128428
-3.60852e-06
-3.70988e-06
0.000128299
0.000128983
-2.07206e-07
0.000129092
-6.01468e-07
0.00012926
-9.56714e-07
0.000129476
-1.26813e-06
0.000129725
-1.53556e-06
0.000129995
-1.76076e-06
0.000130276
-1.94668e-06
0.00013056
-2.09731e-06
0.000130838
-2.21723e-06
0.000131105
-2.31112e-06
0.000131357
-2.38363e-06
0.000131591
-2.43917e-06
0.000131805
-2.48183e-06
0.000131996
-2.5153e-06
0.000132164
-2.54281e-06
0.000132309
-2.56719e-06
0.000132431
-2.59081e-06
0.00013253
-2.61563e-06
0.000132607
-2.64324e-06
0.000132662
-2.67487e-06
0.000132695
-2.71143e-06
0.000132709
-2.75356e-06
0.000132703
-2.80161e-06
0.000132679
-2.85574e-06
0.000132638
-2.91587e-06
0.00013258
-2.98178e-06
0.000132507
-3.05308e-06
0.000132419
-3.12928e-06
0.000132318
-3.20977e-06
0.000132203
-3.29387e-06
0.000132076
-3.38085e-06
0.000131938
-3.47e-06
-3.56034e-06
0.000131788
0.000132671
-2.49069e-07
0.000132791
-7.21731e-07
0.000132977
-1.1428e-06
0.000133214
-1.50496e-06
0.000133487
-1.80839e-06
0.000133782
-2.05606e-06
0.000134088
-2.25259e-06
0.000134395
-2.40397e-06
0.000134694
-2.51673e-06
0.000134981
-2.59732e-06
0.000135249
-2.65191e-06
0.000135496
-2.68619e-06
0.000135719
-2.70528e-06
0.000135918
-2.71371e-06
0.00013609
-2.71538e-06
0.000136237
-2.71361e-06
0.000136357
-2.71119e-06
0.000136452
-2.71038e-06
0.000136522
-2.713e-06
0.000136567
-2.72045e-06
0.000136589
-2.73378e-06
0.00013659
-2.7537e-06
0.000136569
-2.78065e-06
0.000136528
-2.81478e-06
0.000136468
-2.85607e-06
0.00013639
-2.90427e-06
0.000136296
-2.95897e-06
0.000136187
-3.01963e-06
0.000136062
-3.08559e-06
0.000135925
-3.15609e-06
0.000135774
-3.23031e-06
0.000135612
-3.30742e-06
-3.38632e-06
0.000135438
0.000136465
-2.95841e-07
0.0001366
-8.56393e-07
0.000136807
-1.35009e-06
0.000137069
-1.76731e-06
0.00013737
-2.10925e-06
0.000137695
-2.3805e-06
0.00013803
-2.58761e-06
0.000138364
-2.73871e-06
0.00013869
-2.84246e-06
0.000139
-2.90726e-06
0.000139289
-2.94096e-06
0.000139554
-2.95068e-06
0.000139791
-2.94271e-06
0.00014
-2.92251e-06
0.000140179
-2.89474e-06
0.000140329
-2.8633e-06
0.000140449
-2.83142e-06
0.00014054
-2.80171e-06
0.000140604
-2.77625e-06
0.00014064
-2.75664e-06
0.00014065
-2.74405e-06
0.000140636
-2.73932e-06
0.000140598
-2.74296e-06
0.000140539
-2.75518e-06
0.000140458
-2.77596e-06
0.000140359
-2.80508e-06
0.000140242
-2.84212e-06
0.000140109
-2.88649e-06
0.000139961
-2.93747e-06
0.000139799
-2.99425e-06
0.000139625
-3.05593e-06
0.000139439
-3.12164e-06
-3.19015e-06
0.000139243
0.000140372
-3.52229e-07
0.000140533
-1.01683e-06
0.000140777
-1.59475e-06
0.000141083
-2.07346e-06
0.00014143
-2.45623e-06
0.0001418
-2.7503e-06
0.000142178
-2.96513e-06
0.000142551
-3.11198e-06
0.000142911
-3.20225e-06
0.00014325
-3.24659e-06
0.000143564
-3.25472e-06
0.000143848
-3.23532e-06
0.000144102
-3.19588e-06
0.000144322
-3.14285e-06
0.000144509
-3.08162e-06
0.000144662
-3.01669e-06
0.000144783
-2.95173e-06
0.000144871
-2.88969e-06
0.000144927
-2.83291e-06
0.000144954
-2.78319e-06
0.000144952
-2.74187e-06
0.000144922
-2.70987e-06
0.000144867
-2.6878e-06
0.000144788
-2.67592e-06
0.000144686
-2.67427e-06
0.000144564
-2.68263e-06
0.000144422
-2.70055e-06
0.000144263
-2.72743e-06
0.000144088
-2.76249e-06
0.000143899
-2.80481e-06
0.000143696
-2.85337e-06
0.000143481
-2.90712e-06
-2.96466e-06
0.000143256
0.000144388
-4.16089e-07
0.000144574
-1.20202e-06
0.000144855
-1.87578e-06
0.000145205
-2.42385e-06
0.000145602
-2.8528e-06
0.000146024
-3.17237e-06
0.000146454
-3.39498e-06
0.000146877
-3.53544e-06
0.000147283
-3.60843e-06
0.000147664
-3.62739e-06
0.000148014
-3.60438e-06
0.000148328
-3.54996e-06
0.000148606
-3.47312e-06
0.000148844
-3.38144e-06
0.000149044
-3.28117e-06
0.000149204
-3.17746e-06
0.000149327
-3.07445e-06
0.000149413
-2.97544e-06
0.000149463
-2.88304e-06
0.000149479
-2.79924e-06
0.000149463
-2.72551e-06
0.000149416
-2.66292e-06
0.00014934
-2.61214e-06
0.000149238
-2.57356e-06
0.000149111
-2.54725e-06
0.000148961
-2.53304e-06
0.000148791
-2.53053e-06
0.000148603
-2.53908e-06
0.000148398
-2.55789e-06
0.000148179
-2.58595e-06
0.000147948
-2.62213e-06
0.000147706
-2.66533e-06
-2.71391e-06
0.000147456
0.000148539
-5.06951e-07
0.000148786
-1.44897e-06
0.000149146
-2.23643e-06
0.00014958
-2.85766e-06
0.000150057
-3.3291e-06
0.000150551
-3.66693e-06
0.000151045
-3.88907e-06
0.000151525
-4.01516e-06
0.00015198
-4.06346e-06
0.000152403
-4.0502e-06
0.000152788
-3.98968e-06
0.000153132
-3.89425e-06
0.000153434
-3.77432e-06
0.000153691
-3.63855e-06
0.000153904
-3.49404e-06
0.000154073
-3.34656e-06
0.000154199
-3.20075e-06
0.000154284
-3.06025e-06
0.000154329
-2.92793e-06
0.000154335
-2.80597e-06
0.000154306
-2.69601e-06
0.000154242
-2.59923e-06
0.000154146
-2.51641e-06
0.000154021
-2.44801e-06
0.000153868
-2.3942e-06
0.00015369
-2.35489e-06
0.000153489
-2.3297e-06
0.000153268
-2.31804e-06
0.000153029
-2.31904e-06
0.000152775
-2.33161e-06
0.000152507
-2.35446e-06
0.000152228
-2.38625e-06
-2.42502e-06
0.000151939
0.000152782
-6.00255e-07
0.000153066
-1.73214e-06
0.000153488
-2.6586e-06
0.000154005
-3.37461e-06
0.000154579
-3.90309e-06
0.000155176
-4.26407e-06
0.00015577
-4.4829e-06
0.000156341
-4.58692e-06
0.000156878
-4.60005e-06
0.000157371
-4.54281e-06
0.000157814
-4.43282e-06
0.000158204
-4.28489e-06
0.000158541
-4.11115e-06
0.000158824
-3.92149e-06
0.000159054
-3.72388e-06
0.000159232
-3.52469e-06
0.00015936
-3.3289e-06
0.000159441
-3.14044e-06
0.000159475
-2.96232e-06
0.000159466
-2.79684e-06
0.000159415
-2.64572e-06
0.000159326
-2.51021e-06
0.000159201
-2.3912e-06
0.000159043
-2.28929e-06
0.000158853
-2.2048e-06
0.000158636
-2.13777e-06
0.000158394
-2.08801e-06
0.000158131
-2.05498e-06
0.00015785
-2.03783e-06
0.000157554
-2.03543e-06
0.000157246
-2.04635e-06
0.000156929
-2.06912e-06
-2.1014e-06
0.000156605
0.000157244
-7.92957e-07
0.000157689
-2.17694e-06
0.000158271
-3.2409e-06
0.000158924
-4.02707e-06
0.00015961
-4.58927e-06
0.000160301
-4.95477e-06
0.000160974
-5.15619e-06
0.000161614
-5.22699e-06
0.000162209
-5.1952e-06
0.000162751
-5.08494e-06
0.000163235
-4.91699e-06
0.000163659
-4.7085e-06
0.000164021
-4.4734e-06
0.000164323
-4.22286e-06
0.000164565
-3.96573e-06
0.000164749
-3.70892e-06
0.000164878
-3.45777e-06
0.000164954
-3.21637e-06
0.000164979
-2.98784e-06
0.000164957
-2.77449e-06
0.000164889
-2.57805e-06
0.000164779
-2.39981e-06
0.000164628
-2.24069e-06
0.00016444
-2.10135e-06
0.000164218
-1.98228e-06
0.000163964
-1.88374e-06
0.000163681
-1.80584e-06
0.000163375
-1.7483e-06
0.000163047
-1.71042e-06
0.000162703
-1.69108e-06
0.000162345
-1.68875e-06
0.000161978
-1.70175e-06
-1.72719e-06
0.000161604
0.000161691
-9.45144e-07
0.000162209
-2.69489e-06
0.00016294
-3.97249e-06
0.000163792
-4.87858e-06
0.000164686
-5.48362e-06
0.000165566
-5.83482e-06
0.000166402
-5.99183e-06
0.000167179
-6.00392e-06
0.00016789
-5.90662e-06
0.000168534
-5.72852e-06
0.000169109
-5.49266e-06
0.000169618
-5.21706e-06
0.00017006
-4.91595e-06
0.000170438
-4.60053e-06
0.000170752
-4.2796e-06
0.000171003
-3.96008e-06
0.000171193
-3.64734e-06
0.000171322
-3.3456e-06
0.000171392
-3.05812e-06
0.000171405
-2.78742e-06
0.000171363
-2.53546e-06
0.000171267
-2.3038e-06
0.00017112
-2.09369e-06
0.000170924
-1.90626e-06
0.000170685
-1.74256e-06
0.000170405
-1.60361e-06
0.000170089
-1.49022e-06
0.000169743
-1.40256e-06
0.000169373
-1.34018e-06
0.000168984
-1.30216e-06
0.000168582
-1.28712e-06
0.000168174
-1.29323e-06
-1.31742e-06
0.000167764
0.000166689
-1.4802e-06
0.000167544
-3.55013e-06
0.000168482
-4.9108e-06
0.000169494
-5.89044e-06
0.000170579
-6.56852e-06
0.000171714
-6.97029e-06
0.000172879
-7.15595e-06
0.000174046
-7.17126e-06
0.000175189