/*--------------------------------*- C++ -*----------------------------------*\
  =========                 |
  \\      /  F ield         | OpenFOAM: The Open Source CFD Toolbox
   \\    /   O peration     | Website:  https://openfoam.org
    \\  /    A nd           | Version:  10
     \\/     M anipulation  |
\*---------------------------------------------------------------------------*/
FoamFile
{
    format      ascii;
    class       volVectorField;
    location    "0.02";
    object      U;
}
// * * * * * * * * * * * * * * * * * * * * * * * * * * * * * * * * * * * * * //

dimensions      [0 1 -1 0 0 0 0];

internalField   nonuniform List<vector> 
6820
(
(5.57375 0.459075 0)
(3.88398 0.24581 0)
(2.5917 0.00865418 0)
(1.96168 -0.0643972 0)
(1.73864 -0.0597799 0)
(1.6304 -0.0343568 0)
(1.56887 -0.0156932 0)
(1.52694 -0.00560546 0)
(1.493 -0.00099769 0)
(1.46498 0.000514417 0)
(1.44239 0.000569967 0)
(1.42485 5.54417e-05 0)
(1.41195 -0.000619011 0)
(1.40328 -0.00127458 0)
(1.39846 -0.00181985 0)
(1.39727 -0.00225103 0)
(1.39936 -0.00283864 0)
(1.40455 -0.00321258 0)
(1.41276 -0.00345172 0)
(1.424 -0.00370959 0)
(1.43836 -0.0040126 0)
(1.45596 -0.00435591 0)
(1.47694 -0.00473385 0)
(1.50151 -0.00515308 0)
(1.52995 -0.00563496 0)
(1.56262 -0.00620663 0)
(1.5999 -0.00691988 0)
(1.64251 -0.00779409 0)
(1.69066 -0.00904682 0)
(1.74717 -0.0103383 0)
(1.80782 -0.0137612 0)
(1.89367 -0.0116786 0)
(1.94595 -0.0509009 0)
(7.66982 0.86363 0)
(7.71813 0.890143 0)
(7.00314 0.597449 0)
(6.2039 0.346253 0)
(5.59474 0.178001 0)
(5.1552 0.0910925 0)
(4.84431 0.0502601 0)
(4.62278 0.0312429 0)
(4.45975 0.0221692 0)
(4.33611 0.0171762 0)
(4.2403 0.0137849 0)
(4.16517 0.0110455 0)
(4.10618 0.00857705 0)
(4.06038 0.00620898 0)
(4.02577 0.00384565 0)
(4.0009 0.00147413 0)
(3.98477 -0.00105601 0)
(3.97686 -0.00370568 0)
(3.97668 -0.00654751 0)
(3.98381 -0.00954207 0)
(3.99807 -0.0127312 0)
(4.01935 -0.0161707 0)
(4.04766 -0.01994 0)
(4.08306 -0.0241145 0)
(4.1257 -0.0287706 0)
(4.17579 -0.0339909 0)
(4.23366 -0.0399145 0)
(4.29975 -0.0466473 0)
(4.3746 -0.0546839 0)
(4.4594 -0.0638187 0)
(4.55462 -0.0769869 0)
(4.66539 -0.0908011 0)
(4.78951 -0.121417 0)
(7.56351 0.519951 0)
(8.22536 0.662421 0)
(8.46609 0.574168 0)
(8.36759 0.455784 0)
(8.13567 0.340914 0)
(7.8642 0.255224 0)
(7.60093 0.194685 0)
(7.36572 0.150854 0)
(7.16191 0.118532 0)
(6.98766 0.0940055 0)
(6.83984 0.0747627 0)
(6.7152 0.0592046 0)
(6.61082 0.0462586 0)
(6.52422 0.0351768 0)
(6.45334 0.0254246 0)
(6.39649 0.016596 0)
(6.35232 0.00842622 0)
(6.31971 0.000624108 0)
(6.29761 -0.00713448 0)
(6.28577 -0.0149349 0)
(6.28378 -0.0229362 0)
(6.29118 -0.0312073 0)
(6.30758 -0.0398413 0)
(6.33269 -0.0489569 0)
(6.36629 -0.0586914 0)
(6.40825 -0.0692042 0)
(6.4585 -0.0807063 0)
(6.51706 -0.093446 0)
(6.58397 -0.10791 0)
(6.65952 -0.124458 0)
(6.74361 -0.145004 0)
(6.83582 -0.169382 0)
(6.93435 -0.206492 0)
(7.4334 0.34073 0)
(7.8848 0.513335 0)
(8.24369 0.487435 0)
(8.44271 0.426452 0)
(8.5434 0.353931 0)
(8.57542 0.291921 0)
(8.56354 0.244259 0)
(8.52752 0.207038 0)
(8.47856 0.177209 0)
(8.42321 0.152473 0)
(8.36579 0.131205 0)
(8.30916 0.112408 0)
(8.25525 0.0954386 0)
(8.20539 0.0798291 0)
(8.16057 0.0652304 0)
(8.12137 0.0513878 0)
(8.08821 0.0380737 0)
(8.06126 0.0250986 0)
(8.04074 0.0122649 0)
(8.02637 -0.000660234 0)
(8.0178 -0.0137964 0)
(8.01501 -0.0272685 0)
(8.01797 -0.0411849 0)
(8.02662 -0.0556659 0)
(8.04088 -0.0708538 0)
(8.06065 -0.0869133 0)
(8.08578 -0.104059 0)
(8.11611 -0.122547 0)
(8.15137 -0.142817 0)
(8.19127 -0.165273 0)
(8.23504 -0.191075 0)
(8.28132 -0.220356 0)
(8.3282 -0.255374 0)
(7.39684 0.250632 0)
(7.68019 0.419821 0)
(7.9239 0.401791 0)
(8.07811 0.350687 0)
(8.18876 0.294653 0)
(8.27116 0.247449 0)
(8.3322 0.21174 0)
(8.37932 0.183823 0)
(8.4166 0.160909 0)
(8.4462 0.141311 0)
(8.46979 0.123896 0)
(8.48867 0.10796 0)
(8.50394 0.0930522 0)
(8.51643 0.0788476 0)
(8.52679 0.0650936 0)
(8.53565 0.0515848 0)
(8.54359 0.0381643 0)
(8.55108 0.0246728 0)
(8.55857 0.0110297 0)
(8.56618 -0.00280063 0)
(8.57403 -0.0168639 0)
(8.58224 -0.0313396 0)
(8.59093 -0.0463738 0)
(8.60019 -0.0620856 0)
(8.61008 -0.078595 0)
(8.62063 -0.0960361 0)
(8.6318 -0.114581 0)
(8.64354 -0.134439 0)
(8.65564 -0.155928 0)
(8.66782 -0.179349 0)
(8.67938 -0.205296 0)
(8.68928 -0.233763 0)
(8.69587 -0.26513 0)
(7.37404 0.180247 0)
(7.57432 0.334778 0)
(7.76145 0.339984 0)
(7.87648 0.309691 0)
(7.95329 0.269266 0)
(8.00928 0.229669 0)
(8.05132 0.196659 0)
(8.08603 0.169663 0)
(8.11682 0.147163 0)
(8.14485 0.12798 0)
(8.17063 0.111117 0)
(8.19448 0.0958345 0)
(8.21654 0.081622 0)
(8.23695 0.0681247 0)
(8.25589 0.0550746 0)
(8.27343 0.04225 0)
(8.28962 0.0294772 0)
(8.30457 0.0166068 0)
(8.31829 0.00355383 0)
(8.33104 -0.00977343 0)
(8.34318 -0.0234852 0)
(8.35482 -0.0376912 0)
(8.36606 -0.0524981 0)
(8.37694 -0.068005 0)
(8.38748 -0.0843167 0)
(8.39771 -0.101552 0)
(8.40762 -0.119859 0)
(8.41717 -0.139408 0)
(8.42624 -0.160432 0)
(8.4346 -0.183125 0)
(8.44179 -0.207758 0)
(8.44711 -0.234187 0)
(8.44972 -0.262206 0)
(7.35907 0.132289 0)
(7.50349 0.271711 0)
(7.65623 0.292499 0)
(7.75678 0.274572 0)
(7.82356 0.243689 0)
(7.87133 0.210288 0)
(7.9057 0.180892 0)
(7.93238 0.15621 0)
(7.95506 0.135222 0)
(7.97533 0.117015 0)
(7.99403 0.100818 0)
(8.01169 0.0860277 0)
(8.02855 0.0722138 0)
(8.04478 0.0590555 0)
(8.06044 0.0463045 0)
(8.07561 0.0337663 0)
(8.09034 0.0212806 0)
(8.10465 0.00871046 0)
(8.11859 -0.00407118 0)
(8.13223 -0.017248 0)
(8.1456 -0.0309172 0)
(8.15872 -0.0451349 0)
(8.17164 -0.0599748 0)
(8.1844 -0.0755262 0)
(8.19699 -0.0918914 0)
(8.20943 -0.109185 0)
(8.22169 -0.127538 0)
(8.23371 -0.147086 0)
(8.24538 -0.167984 0)
(8.25646 -0.190338 0)
(8.26661 -0.214228 0)
(8.27535 -0.239463 0)
(8.28223 -0.265666 0)
(7.34966 0.0985539 0)
(7.45358 0.218995 0)
(7.57696 0.247708 0)
(7.66614 0.239759 0)
(7.72855 0.218717 0)
(7.77502 0.193005 0)
(7.80934 0.168377 0)
(7.83584 0.146433 0)
(7.85788 0.12693 0)
(7.87715 0.109466 0)
(7.89461 0.093615 0)
(7.91088 0.0789617 0)
(7.92632 0.0651677 0)
(7.94119 0.0519629 0)
(7.95561 0.0391284 0)
(7.96972 0.0264796 0)
(7.98357 0.0138581 0)
(7.99723 0.00111853 0)
(8.01074 -0.0118792 0)
(8.0241 -0.0252353 0)
(8.03734 -0.0390411 0)
(8.05045 -0.0533721 0)
(8.06345 -0.0683214 0)
(8.07636 -0.0839865 0)
(8.08918 -0.100464 0)
(8.10189 -0.117854 0)
(8.11445 -0.136259 0)
(8.12678 -0.15578 0)
(8.13876 -0.176512 0)
(8.15019 -0.198501 0)
(8.16082 -0.221724 0)
(8.17032 -0.245977 0)
(8.17848 -0.270876 0)
(7.34382 0.0745606 0)
(7.41935 0.176931 0)
(7.51844 0.210096 0)
(7.59624 0.20968 0)
(7.65329 0.19567 0)
(7.6974 0.175376 0)
(7.73129 0.154156 0)
(7.75806 0.134317 0)
(7.7805 0.116184 0)
(7.80015 0.0996279 0)
(7.81788 0.0843919 0)
(7.8343 0.0701634 0)
(7.84979 0.056661 0)
(7.86459 0.0436516 0)
(7.87889 0.0309389 0)
(7.8928 0.0183556 0)
(7.90641 0.00575528 0)
(7.9198 -0.00698974 0)
(7.93299 -0.0199922 0)
(7.94603 -0.0333611 0)
(7.95893 -0.0472043 0)
(7.97169 -0.0616096 0)
(7.98435 -0.0766599 0)
(7.99689 -0.0924371 0)
(8.00933 -0.109024 0)
(8.02164 -0.126505 0)
(8.03376 -0.144963 0)
(8.04563 -0.164469 0)
(8.05715 -0.185074 0)
(8.06815 -0.206782 0)
(8.07847 -0.229525 0)
(8.0879 -0.253114 0)
(8.09639 -0.277225 0)
(7.34018 0.0572812 0)
(7.39565 0.143149 0)
(7.47505 0.17733 0)
(7.54234 0.181814 0)
(7.59409 0.173073 0)
(7.63554 0.157559 0)
(7.66851 0.139896 0)
(7.6951 0.122511 0)
(7.71758 0.106036 0)
(7.73731 0.0905622 0)
(7.7551 0.076012 0)
(7.77152 0.0622108 0)
(7.78698 0.0489654 0)
(7.8017 0.0360984 0)
(7.81588 0.0234491 0)
(7.82963 0.0108731 0)
(7.84304 -0.00176069 0)
(7.85619 -0.0145721 0)
(7.86911 -0.0276723 0)
(7.88185 -0.0411644 0)
(7.89442 -0.0551398 0)
(7.90685 -0.0696767 0)
(7.91914 -0.0848521 0)
(7.9313 -0.100745 0)
(7.94331 -0.11743 0)
(7.95516 -0.134981 0)
(7.96679 -0.153462 0)
(7.97815 -0.17292 0)
(7.98915 -0.193381 0)
(7.99968 -0.214827 0)
(8.00964 -0.237179 0)
(8.01891 -0.260277 0)
(8.02751 -0.283877 0)
(7.33789 0.0445954 0)
(7.37916 0.115963 0)
(7.44282 0.149134 0)
(7.50074 0.156913 0)
(7.54744 0.152208 0)
(7.58605 0.140536 0)
(7.61774 0.125793 0)
(7.64386 0.110396 0)
(7.66617 0.095255 0)
(7.68587 0.0806696 0)
(7.70366 0.0667105 0)
(7.72009 0.0533077 0)
(7.73551 0.0403323 0)
(7.75016 0.0276453 0)
(7.76423 0.0151112 0)
(7.77783 0.00260163 0)
(7.79105 -0.0100031 0)
(7.80397 -0.0228126 0)
(7.81663 -0.0359289 0)
(7.82906 -0.0494471 0)
(7.8413 -0.0634557 0)
(7.85335 -0.0780349 0)
(7.86523 -0.0932607 0)
(7.87692 -0.109205 0)
(7.88844 -0.125934 0)
(7.89974 -0.143507 0)
(7.9108 -0.161973 0)
(7.92157 -0.181365 0)
(7.93197 -0.201692 0)
(7.94195 -0.222926 0)
(7.95143 -0.244995 0)
(7.96038 -0.267776 0)
(7.96884 -0.291092 0)
(7.33644 0.0350985 0)
(7.36756 0.0940234 0)
(7.41872 0.124859 0)
(7.46835 0.134441 0)
(7.51027 0.132525 0)
(7.54604 0.123802 0)
(7.57627 0.111554 0)
(7.60179 0.0980431 0)
(7.62386 0.0842963 0)
(7.64347 0.0707237 0)
(7.66125 0.0574859 0)
(7.67765 0.0445913 0)
(7.69302 0.0319701 0)
(7.70758 0.0195251 0)
(7.72152 0.0071504 0)
(7.73495 -0.00526129 0)
(7.74796 -0.0178149 0)
(7.76061 -0.0306094 0)
(7.77297 -0.0437385 0)
(7.78505 -0.0572906 0)
(7.79689 -0.0713475 0)
(7.80851 -0.0859829 0)
(7.8199 -0.101265 0)
(7.83108 -0.117258 0)
(7.84202 -0.134019 0)
(7.85272 -0.151597 0)
(7.86315 -0.170032 0)
(7.87326 -0.189347 0)
(7.88301 -0.209541 0)
(7.89236 -0.23059 0)
(7.90127 -0.252435 0)
(7.90975 -0.27499 0)
(7.91785 -0.298135 0)
(7.33549 0.0278375 0)
(7.35933 0.0762061 0)
(7.40061 0.103958 0)
(7.44305 0.114258 0)
(7.48053 0.11424 0)
(7.5135 0.107788 0)
(7.54216 0.0976137 0)
(7.56687 0.08573 0)
(7.58855 0.0731963 0)
(7.60796 0.0605054 0)
(7.62563 0.047895 0)
(7.64196 0.0354441 0)
(7.65724 0.0231369 0)
(7.67171 0.0109134 0)
(7.6855 -0.00130698 0)
(7.69874 -0.013613 0)
(7.71152 -0.0260955 0)
(7.7239 -0.0388445 0)
(7.73592 -0.0519462 0)
(7.74763 -0.0654821 0)
(7.75905 -0.0795285 0)
(7.77019 -0.0941552 0)
(7.78106 -0.109427 0)
(7.79166 -0.125402 0)
(7.80199 -0.142132 0)
(7.81203 -0.15966 0)
(7.82176 -0.178017 0)
(7.83116 -0.19722 0)
(7.84019 -0.217269 0)
(7.84883 -0.238142 0)
(7.85707 -0.259797 0)
(7.86493 -0.28218 0)
(7.87246 -0.305212 0)
(7.33487 0.022167 0)
(7.35341 0.0616277 0)
(7.38692 0.085943 0)
(7.42319 0.0961327 0)
(7.45661 0.0972397 0)
(7.48688 0.0924061 0)
(7.51388 0.0838589 0)
(7.53768 0.0733502 0)
(7.55886 0.0619128 0)
(7.57799 0.0500779 0)
(7.5955 0.0381252 0)
(7.61171 0.0261769 0)
(7.62689 0.0142542 0)
(7.64122 0.00232516 0)
(7.65485 -0.00966916 0)
(7.66788 -0.021802 0)
(7.6804 -0.0341525 0)
(7.69247 -0.0468008 0)
(7.70413 -0.0598254 0)
(7.71543 -0.0733012 0)
(7.72638 -0.0872986 0)
(7.737 -0.101882 0)
(7.7473 -0.117111 0)
(7.75729 -0.133037 0)
(7.76695 -0.149705 0)
(7.77629 -0.167152 0)
(7.78528 -0.185405 0)
(7.79391 -0.204476 0)
(7.80217 -0.224367 0)
(7.81003 -0.245063 0)
(7.81752 -0.266539 0)
(7.82464 -0.288763 0)
(7.83144 -0.311688 0)
(7.33444 0.0176458 0)
(7.34909 0.049587 0)
(7.37651 0.0703694 0)
(7.40755 0.0798475 0)
(7.43732 0.081479 0)
(7.46504 0.0777443 0)
(7.49037 0.0704527 0)
(7.51317 0.0610882 0)
(7.53375 0.0506063 0)
(7.55252 0.0395403 0)
(7.56979 0.0281909 0)
(7.58583 0.0167104 0)
(7.60084 0.00515055 0)
(7.61499 -0.00649553 0)
(7.62842 -0.018267 0)
(7.64121 -0.0302216 0)
(7.65344 -0.0424266 0)
(7.66518 -0.054953 0)
(7.67646 -0.067872 0)
(7.68731 -0.0812523 0)
(7.69777 -0.0951591 0)
(7.70784 -0.109652 0)
(7.71755 -0.124785 0)
(7.72688 -0.140607 0)
(7.73585 -0.157159 0)
(7.74445 -0.174472 0)
(7.75267 -0.192571 0)
(7.76049 -0.211468 0)
(7.76792 -0.231168 0)
(7.77495 -0.251662 0)
(7.78159 -0.272938 0)
(7.78786 -0.294982 0)
(7.7938 -0.317766 0)
(7.33414 0.0139683 0)
(7.34591 0.0395348 0)
(7.36854 0.0568459 0)
(7.39521 0.0651925 0)
(7.42172 0.0668698 0)
(7.44708 0.0637867 0)
(7.47078 0.057396 0)
(7.49253 0.0489332 0)
(7.51245 0.0392547 0)
(7.53079 0.0288743 0)
(7.54777 0.0180967 0)
(7.56358 0.00708906 0)
(7.5784 -0.00407811 0)
(7.59235 -0.0153948 0)
(7.60555 -0.0268865 0)
(7.61808 -0.0385999 0)
(7.63 -0.0505937 0)
(7.64137 -0.0629317 0)
(7.65224 -0.075679 0)
(7.66262 -0.088899 0)
(7.67256 -0.102652 0)
(7.68205 -0.116994 0)
(7.69113 -0.131974 0)
(7.69978 -0.147636 0)
(7.70802 -0.164018 0)
(7.71585 -0.181148 0)
(7.72325 -0.199048 0)
(7.73024 -0.21773 0)
(7.7368 -0.237201 0)
(7.74294 -0.257459 0)
(7.74867 -0.278499 0)
(7.754 -0.300321 0)
(7.75897 -0.322906 0)
(7.33393 0.0109195 0)
(7.34354 0.031041 0)
(7.36242 0.0450295 0)
(7.38544 0.0519635 0)
(7.40909 0.0533151 0)
(7.4323 0.0505192 0)
(7.45445 0.0447281 0)
(7.47516 0.0369533 0)
(7.49438 0.0279395 0)
(7.51224 0.0181602 0)
(7.52888 0.00790793 0)
(7.54443 -0.00264804 0)
(7.55901 -0.0134276 0)
(7.57272 -0.0244093 0)
(7.58566 -0.0356081 0)
(7.59789 -0.0470616 0)
(7.60948 -0.0588202 0)
(7.62046 -0.0709411 0)
(7.63089 -0.0834836 0)
(7.64078 -0.0965061 0)
(7.65016 -0.110064 0)
(7.65906 -0.12421 0)
(7.66748 -0.138988 0)
(7.67543 -0.154441 0)
(7.68291 -0.170601 0)
(7.68994 -0.187495 0)
(7.69651 -0.205143 0)
(7.70261 -0.22356 0)
(7.70827 -0.242752 0)
(7.71347 -0.262722 0)
(7.71823 -0.283471 0)
(7.72256 -0.305006 0)
(7.72648 -0.327314 0)
(7.33377 0.00834505 0)
(7.34175 0.0237688 0)
(7.3577 0.0346223 0)
(7.37771 0.0399659 0)
(7.39889 0.0407073 0)
(7.42017 0.0378998 0)
(7.44088 0.0324446 0)
(7.46056 0.0251569 0)
(7.47908 0.0166682 0)
(7.49644 0.00740174 0)
(7.51271 -0.00237214 0)
(7.52796 -0.0124908 0)
(7.54227 -0.022872 0)
(7.55572 -0.0334888 0)
(7.56837 -0.0443505 0)
(7.58029 -0.0554889 0)
(7.59152 -0.0669496 0)
(7.6021 -0.0787853 0)
(7.61206 -0.0910514 0)
(7.62144 -0.103803 0)
(7.63025 -0.117092 0)
(7.63852 -0.130967 0)
(7.64626 -0.145471 0)
(7.65348 -0.160642 0)
(7.66019 -0.176511 0)
(7.66639 -0.193103 0)
(7.67209 -0.210437 0)
(7.6773 -0.228526 0)
(7.68201 -0.247378 0)
(7.68624 -0.266999 0)
(7.68998 -0.287392 0)
(7.69326 -0.308566 0)
(7.69608 -0.330509 0)
(7.33365 0.00613168 0)
(7.34039 0.0174529 0)
(7.35404 0.025368 0)
(7.3716 0.029017 0)
(7.39068 0.0289333 0)
(7.41025 0.0258732 0)
(7.42965 0.0205306 0)
(7.44837 0.013553 0)
(7.46619 0.00546335 0)
(7.48305 -0.00337339 0)
(7.49893 -0.0127168 0)
(7.51387 -0.0224193 0)
(7.5279 -0.0324041 0)
(7.54107 -0.0426447 0)
(7.55342 -0.0531484 0)
(7.565 -0.0639441 0)
(7.57585 -0.075074 0)
(7.58601 -0.0865877 0)
(7.59549 -0.0985371 0)
(7.60433 -0.110974 0)
(7.61255 -0.123948 0)
(7.62018 -0.137505 0)
(7.62722 -0.151684 0)
(7.63368 -0.166521 0)
(7.63959 -0.182044 0)
(7.64495 -0.198278 0)
(7.64976 -0.215239 0)
(7.65404 -0.23294 0)
(7.65779 -0.251389 0)
(7.661 -0.270593 0)
(7.6637 -0.290554 0)
(7.66589 -0.311283 0)
(7.66757 -0.332763 0)
(7.33356 0.00419398 0)
(7.33935 0.0118812 0)
(7.35122 0.017043 0)
(7.36679 0.0189422 0)
(7.3841 0.0178733 0)
(7.40221 0.014368 0)
(7.42044 0.00895199 0)
(7.43828 0.0021311 0)
(7.45545 -0.005672 0)
(7.47182 -0.0141519 0)
(7.48732 -0.0231033 0)
(7.50194 -0.0323993 0)
(7.51567 -0.0419736 0)
(7.52854 -0.0518048 0)
(7.54058 -0.061902 0)
(7.55182 -0.0722946 0)
(7.56227 -0.0830243 0)
(7.57198 -0.0941396 0)
(7.58097 -0.105691 0)
(7.58926 -0.11773 0)
(7.59688 -0.130303 0)
(7.60384 -0.143454 0)
(7.61016 -0.157223 0)
(7.61586 -0.171641 0)
(7.62095 -0.186737 0)
(7.62545 -0.202532 0)
(7.62936 -0.219042 0)
(7.63269 -0.236279 0)
(7.63545 -0.25425 0)
(7.63764 -0.272959 0)
(7.63928 -0.292409 0)
(7.64035 -0.312607 0)
(7.64088 -0.333533 0)
(7.33349 0.00246606 0)
(7.33856 0.00688443 0)
(7.34905 0.00945608 0)
(7.36303 0.00958 0)
(7.37889 0.00740565 0)
(7.39577 0.00329974 0)
(7.413 -0.0023467 0)
(7.43007 -0.00914657 0)
(7.44666 -0.0167681 0)
(7.46258 -0.0249652 0)
(7.47772 -0.0335717 0)
(7.49203 -0.0424855 0)
(7.50547 -0.0516557 0)
(7.51806 -0.06107 0)
(7.52978 -0.0707429 0)
(7.54066 -0.0807065 0)
(7.55072 -0.0910039 0)
(7.55998 -0.101684 0)
(7.56846 -0.112797 0)
(7.57619 -0.124393 0)
(7.58319 -0.136517 0)
(7.58947 -0.149214 0)
(7.59506 -0.162518 0)
(7.59998 -0.176463 0)
(7.60424 -0.191073 0)
(7.60785 -0.206369 0)
(7.61084 -0.222364 0)
(7.6132 -0.239069 0)
(7.61496 -0.25649 0)
(7.61611 -0.274628 0)
(7.61666 -0.293483 0)
(7.61662 -0.313059 0)
(7.61599 -0.33333 0)
(7.33344 0.000893526 0)
(7.33797 0.00231818 0)
(7.3474 0.00243391 0)
(7.36016 0.000773356 0)
(7.37486 -0.00259511 0)
(7.39073 -0.00742193 0)
(7.40713 -0.0134215 0)
(7.42355 -0.0203044 0)
(7.43963 -0.0278184 0)
(7.45516 -0.0357748 0)
(7.46998 -0.0440476 0)
(7.484 -0.052563 0)
(7.49717 -0.0612897 0)
(7.50946 -0.0702286 0)
(7.52087 -0.0794035 0)
(7.5314 -0.0888528 0)
(7.54105 -0.098624 0)
(7.54985 -0.108769 0)
(7.55782 -0.119339 0)
(7.56497 -0.130386 0)
(7.57133 -0.141957 0)
(7.57693 -0.154093 0)
(7.58178 -0.166831 0)
(7.5859 -0.180201 0)
(7.58931 -0.194229 0)
(7.59204 -0.208932 0)
(7.5941 -0.224323 0)
(7.59549 -0.240411 0)
(7.59624 -0.257197 0)
(7.59635 -0.274683 0)
(7.59583 -0.292863 0)
(7.59467 -0.311736 0)
(7.59291 -0.331274 0)
(7.3334 -0.000565828 0)
(7.33754 -0.00193522 0)
(7.34619 -0.00417646 0)
(7.35803 -0.00762999 0)
(7.37185 -0.012267 0)
(7.38695 -0.0179196 0)
(7.40272 -0.0243852 0)
(7.41863 -0.031456 0)
(7.43432 -0.0389513 0)
(7.44954 -0.0467371 0)
(7.46411 -0.0547281 0)
(7.47789 -0.0628805 0)
(7.49083 -0.0711846 0)
(7.50287 -0.079657 0)
(7.51398 -0.0883321 0)
(7.52417 -0.0972565 0)
(7.53342 -0.106483 0)
(7.54177 -0.116067 0)
(7.54922 -0.126064 0)
(7.5558 -0.136526 0)
(7.56152 -0.147501 0)
(7.56642 -0.15903 0)
(7.57051 -0.171152 0)
(7.57382 -0.183894 0)
(7.57638 -0.197281 0)
(7.57821 -0.21133 0)
(7.57931 -0.226051 0)
(7.57972 -0.241451 0)
(7.57945 -0.257529 0)
(7.57851 -0.274283 0)
(7.57691 -0.291703 0)
(7.57464 -0.309783 0)
(7.57174 -0.328491 0)
(7.33337 -0.00195062 0)
(7.33724 -0.00598263 0)
(7.34536 -0.0105172 0)
(7.35654 -0.015774 0)
(7.36974 -0.0217343 0)
(7.3843 -0.0282829 0)
(7.39961 -0.035279 0)
(7.41517 -0.0425817 0)
(7.43059 -0.0500727 0)
(7.44559 -0.0576707 0)
(7.45996 -0.0653321 0)
(7.47356 -0.0730467 0)
(7.48629 -0.080831 0)
(7.49809 -0.0887217 0)
(7.50893 -0.0967688 0)
(7.51878 -0.105031 0)
(7.52765 -0.11357 0)
(7.53554 -0.122449 0)
(7.54247 -0.131726 0)
(7.54847 -0.14146 0)
(7.55355 -0.151698 0)
(7.55774 -0.162487 0)
(7.56107 -0.173862 0)
(7.56357 -0.185854 0)
(7.56527 -0.198484 0)
(7.56619 -0.21177 0)
(7.56635 -0.22572 0)
(7.56578 -0.240339 0)
(7.5645 -0.255622 0)
(7.56252 -0.271565 0)
(7.55986 -0.288153 0)
(7.55651 -0.305377 0)
(7.55252 -0.323198 0)
(7.33336 -0.00329839 0)
(7.33706 -0.00992841 0)
(7.34485 -0.0167356 0)
(7.35566 -0.0238285 0)
(7.3685 -0.0311841 0)
(7.38276 -0.0387235 0)
(7.39786 -0.0463566 0)
(7.41326 -0.054 0)
(7.42858 -0.0615915 0)
(7.4435 -0.0690979 0)
(7.4578 -0.0765153 0)
(7.47131 -0.0838656 0)
(7.48393 -0.0911908 0)
(7.49556 -0.0985476 0)
(7.50617 -0.106002 0)
(7.51573 -0.113624 0)
(7.52423 -0.121487 0)
(7.53169 -0.12966 0)
(7.53811 -0.138209 0)
(7.54353 -0.147195 0)
(7.54796 -0.156671 0)
(7.55144 -0.166683 0)
(7.554 -0.177271 0)
(7.55568 -0.188465 0)
(7.5565 -0.200287 0)
(7.55649 -0.212752 0)
(7.55569 -0.225869 0)
(7.55412 -0.239639 0)
(7.55181 -0.254056 0)
(7.54878 -0.269111 0)
(7.54505 -0.284786 0)
(7.54062 -0.301065 0)
(7.53552 -0.317906 0)
(7.33335 -0.00464217 0)
(7.33699 -0.0138654 0)
(7.34466 -0.0229591 0)
(7.35532 -0.0319195 0)
(7.36806 -0.0407015 0)
(7.38225 -0.0492439 0)
(7.39732 -0.0574939 0)
(7.41274 -0.0654185 0)
(7.42808 -0.0730101 0)
(7.44303 -0.0802872 0)
(7.45735 -0.0872919 0)
(7.47084 -0.0940856 0)
(7.48339 -0.100743 0)
(7.49489 -0.107346 0)
(7.5053 -0.113984 0)
(7.5146 -0.120743 0)
(7.52276 -0.127709 0)
(7.52979 -0.134961 0)
(7.53572 -0.142574 0)
(7.54056 -0.150613 0)
(7.54435 -0.159137 0)
(7.54712 -0.168195 0)
(7.54891 -0.177828 0)
(7.54976 -0.188068 0)
(7.5497 -0.198938 0)
(7.54878 -0.210452 0)
(7.54702 -0.222617 0)
(7.54446 -0.235434 0)
(7.54114 -0.248895 0)
(7.53708 -0.262985 0)
(7.53231 -0.277687 0)
(7.52684 -0.292979 0)
(7.52072 -0.308816 0)
(7.33336 -0.00601948 0)
(7.33703 -0.0179079 0)
(7.34479 -0.0293749 0)
(7.3556 -0.0403135 0)
(7.36854 -0.0506594 0)
(7.38298 -0.0603685 0)
(7.39833 -0.0694207 0)
(7.41405 -0.0778255 0)
(7.42968 -0.0856202 0)
(7.44488 -0.0928657 0)
(7.4594 -0.0996421 0)
(7.47303 -0.106044 0)
(7.48563 -0.112176 0)
(7.49711 -0.118146 0)
(7.5074 -0.124062 0)
(7.51648 -0.13003 0)
(7.52434 -0.136149 0)
(7.53098 -0.142513 0)
(7.53642 -0.149205 0)
(7.5407 -0.1563 0)
(7.54384 -0.163863 0)
(7.54589 -0.171948 0)
(7.5469 -0.180599 0)
(7.5469 -0.189852 0)
(7.54594 -0.19973 0)
(7.54407 -0.210248 0)
(7.54132 -0.221413 0)
(7.53775 -0.233223 0)
(7.53339 -0.245667 0)
(7.52827 -0.258728 0)
(7.52243 -0.272384 0)
(7.51588 -0.286607 0)
(7.50867 -0.301348 0)
(7.33337 -0.00746875 0)
(7.33718 -0.0221513 0)
(7.34522 -0.0360809 0)
(7.3564 -0.0490245 0)
(7.36977 -0.0608814 0)
(7.38468 -0.071616 0)
(7.4005 -0.0812448 0)
(7.41668 -0.0898344 0)
(7.43274 -0.0974861 0)
(7.44833 -0.104322 0)
(7.46316 -0.110478 0)
(7.47703 -0.116096 0)
(7.48978 -0.121317 0)
(7.50131 -0.126281 0)
(7.51156 -0.131121 0)
(7.52048 -0.135962 0)
(7.52809 -0.140918 0)
(7.53437 -0.146094 0)
(7.53936 -0.151583 0)
(7.54309 -0.157468 0)
(7.54559 -0.163818 0)
(7.54693 -0.170694 0)
(7.54715 -0.178144 0)
(7.5463 -0.186204 0)
(7.54443 -0.194902 0)
(7.54161 -0.204254 0)
(7.53788 -0.214267 0)
(7.53329 -0.224938 0)
(7.5279 -0.236257 0)
(7.52174 -0.248205 0)
(7.51487 -0.260758 0)
(7.50732 -0.273887 0)
(7.49913 -0.28754 0)
(7.3334 -0.00904429 0)
(7.3375 -0.0267876 0)
(7.34613 -0.0434655 0)
(7.35811 -0.058741 0)
(7.37238 -0.0724968 0)
(7.38824 -0.0847022 0)
(7.40502 -0.0953882 0)
(7.42208 -0.104649 0)
(7.43894 -0.112623 0)
(7.45521 -0.119472 0)
(7.47061 -0.125375 0)
(7.4849 -0.130515 0)
(7.49794 -0.135073 0)
(7.50963 -0.139224 0)
(7.5199 -0.143133 0)
(7.52873 -0.14695 0)
(7.53611 -0.150813 0)
(7.54206 -0.154846 0)
(7.5466 -0.159158 0)
(7.54979 -0.163844 0)
(7.55166 -0.168984 0)
(7.55227 -0.174646 0)
(7.55169 -0.180884 0)
(7.54997 -0.18774 0)
(7.54717 -0.195244 0)
(7.54337 -0.203414 0)
(7.53861 -0.212256 0)
(7.53297 -0.221767 0)
(7.5265 -0.231933 0)
(7.51925 -0.242733 0)
(7.51127 -0.254135 0)
(7.5026 -0.266106 0)
(7.4933 -0.278585 0)
(7.33343 -0.0107918 0)
(7.33789 -0.0318603 0)
(7.34727 -0.0513568 0)
(7.36022 -0.06878 0)
(7.37556 -0.0840012 0)
(7.39253 -0.0970444 0)
(7.41042 -0.108028 0)
(7.42856 -0.117148 0)
(7.44642 -0.124636 0)
(7.46359 -0.130733 0)
(7.47976 -0.135679 0)
(7.49469 -0.139704 0)
(7.50822 -0.143029 0)
(7.52024 -0.145856 0)
(7.53069 -0.148371 0)
(7.53954 -0.150744 0)
(7.5468 -0.153125 0)
(7.55248 -0.15565 0)
(7.55664 -0.158438 0)
(7.5593 -0.161593 0)
(7.56054 -0.165203 0)
(7.56042 -0.169342 0)
(7.55901 -0.174072 0)
(7.55638 -0.179441 0)
(7.55262 -0.185484 0)
(7.54778 -0.192223 0)
(7.54196 -0.199671 0)
(7.53523 -0.207825 0)
(7.52766 -0.216676 0)
(7.51931 -0.226203 0)
(7.51027 -0.236374 0)
(7.50057 -0.247159 0)
(7.49031 -0.258492 0)
(7.33351 -0.012833 0)
(7.33871 -0.0379263 0)
(7.34954 -0.0610992 0)
(7.36434 -0.0817251 0)
(7.38165 -0.0996308 0)
(7.40057 -0.114786 0)
(7.42028 -0.127281 0)
(7.44005 -0.137332 0)
(7.45932 -0.145222 0)
(7.47767 -0.151262 0)
(7.49481 -0.155766 0)
(7.51049 -0.159039 0)
(7.52458 -0.161368 0)
(7.53698 -0.163012 0)
(7.54763 -0.164208 0)
(7.55653 -0.165164 0)
(7.56369 -0.166064 0)
(7.56913 -0.167068 0)
(7.5729 -0.168315 0)
(7.57507 -0.169924 0)
(7.57569 -0.171996 0)
(7.57486 -0.174616 0)
(7.57263 -0.177853 0)
(7.56911 -0.18176 0)
(7.56436 -0.186378 0)
(7.55849 -0.191732 0)
(7.55157 -0.197833 0)
(7.5437 -0.204679 0)
(7.53496 -0.212258 0)
(7.52542 -0.220541 0)
(7.51517 -0.229491 0)
(7.50426 -0.239067 0)
(7.49275 -0.249194 0)
(7.33354 -0.0151771 0)
(7.33934 -0.0444899 0)
(7.35148 -0.0707695 0)
(7.36799 -0.0932892 0)
(7.38722 -0.112108 0)
(7.40823 -0.127452 0)
(7.43009 -0.13962 0)
(7.45194 -0.148984 0)
(7.47314 -0.155931 0)
(7.49324 -0.160831 0)
(7.51187 -0.164037 0)
(7.5288 -0.165882 0)
(7.54387 -0.166668 0)
(7.557 -0.166674 0)
(7.56814 -0.166149 0)
(7.5773 -0.165314 0)
(7.5845 -0.164369 0)
(7.58979 -0.163486 0)
(7.59324 -0.162816 0)
(7.59491 -0.162493 0)
(7.59489 -0.162628 0)
(7.59326 -0.163319 0)
(7.59013 -0.164647 0)
(7.58559 -0.166676 0)
(7.57974 -0.169459 0)
(7.5727 -0.173032 0)
(7.56456 -0.177419 0)
(7.55543 -0.182627 0)
(7.54543 -0.188651 0)
(7.53465 -0.195472 0)
(7.52319 -0.203055 0)
(7.51115 -0.211363 0)
(7.49863 -0.220315 0)
(7.3338 -0.0182776 0)
(7.34158 -0.0540369 0)
(7.3571 -0.0864511 0)
(7.37737 -0.114394 0)
(7.40017 -0.137621 0)
(7.42438 -0.156149 0)
(7.44902 -0.17028 0)
(7.47324 -0.180541 0)
(7.49644 -0.187509 0)
(7.51822 -0.191748 0)
(7.53824 -0.193788 0)
(7.55631 -0.194107 0)
(7.57229 -0.193125 0)
(7.5861 -0.191207 0)
(7.59772 -0.188665 0)
(7.60716 -0.185768 0)
(7.61445 -0.182746 0)
(7.61966 -0.179793 0)
(7.62285 -0.177077 0)
(7.62412 -0.174741 0)
(7.62354 -0.172909 0)
(7.62122 -0.171683 0)
(7.61727 -0.171154 0)
(7.61178 -0.171393 0)
(7.60488 -0.172458 0)
(7.59668 -0.174393 0)
(7.58729 -0.177221 0)
(7.57685 -0.180952 0)
(7.56546 -0.185576 0)
(7.55326 -0.191066 0)
(7.54034 -0.197378 0)
(7.52682 -0.204462 0)
(7.51277 -0.212221 0)
(7.33369 -0.0216411 0)
(7.34192 -0.0621848 0)
(7.35941 -0.096515 0)
(7.38271 -0.124564 0)
(7.40929 -0.147219 0)
(7.43774 -0.164969 0)
(7.46665 -0.178267 0)
(7.49485 -0.187659 0)
(7.52161 -0.193675 0)
(7.54642 -0.196816 0)
(7.56896 -0.19757 0)
(7.58903 -0.196398 0)
(7.60652 -0.193718 0)
(7.62141 -0.189913 0)
(7.63373 -0.185318 0)
(7.64352 -0.18023 0)
(7.65087 -0.174908 0)
(7.65586 -0.169574 0)
(7.65859 -0.16442 0)
(7.65919 -0.159612 0)
(7.65774 -0.155293 0)
(7.65438 -0.151585 0)
(7.64921 -0.148595 0)
(7.64237 -0.146415 0)
(7.63398 -0.145125 0)
(7.62419 -0.144788 0)
(7.61314 -0.145456 0)
(7.60099 -0.147161 0)
(7.58789 -0.149914 0)
(7.57399 -0.153706 0)
(7.55945 -0.158503 0)
(7.5444 -0.164262 0)
(7.52899 -0.17087 0)
(7.33481 -0.0279391 0)
(7.34937 -0.0826774 0)
(7.3747 -0.130068 0)
(7.40451 -0.168213 0)
(7.43603 -0.197422 0)
(7.46841 -0.218461 0)
(7.50052 -0.232553 0)
(7.53137 -0.241011 0)
(7.56033 -0.244964 0)
(7.58697 -0.245371 0)
(7.611 -0.243041 0)
(7.63223 -0.238642 0)
(7.65059 -0.23272 0)
(7.66609 -0.225725 0)
(7.67877 -0.218026 0)
(7.68871 -0.209933 0)
(7.69601 -0.201703 0)
(7.70077 -0.193554 0)
(7.70313 -0.185672 0)
(7.70318 -0.178218 0)
(7.70106 -0.171333 0)
(7.69689 -0.165143 0)
(7.69078 -0.15976 0)
(7.68285 -0.155286 0)
(7.67324 -0.151813 0)
(7.66209 -0.149417 0)
(7.64954 -0.148161 0)
(7.63576 -0.14808 0)
(7.62091 -0.149186 0)
(7.60519 -0.151466 0)
(7.58876 -0.15488 0)
(7.57181 -0.159371 0)
(7.55444 -0.164803 0)
(7.33378 -0.0316647 0)
(7.34753 -0.08601 0)
(7.37736 -0.128581 0)
(7.41488 -0.163429 0)
(7.45516 -0.191777 0)
(7.4959 -0.213263 0)
(7.53517 -0.228298 0)
(7.5719 -0.237625 0)
(7.60575 -0.241976 0)
(7.63654 -0.242138 0)
(7.66423 -0.238914 0)
(7.68885 -0.233042 0)
(7.71044 -0.225176 0)
(7.72906 -0.215875 0)
(7.74476 -0.205611 0)
(7.75759 -0.194772 0)
(7.7676 -0.183676 0)
(7.77483 -0.172586 0)
(7.77936 -0.161716 0)
(7.78124 -0.151248 0)
(7.78056 -0.141333 0)
(7.7774 -0.132107 0)
(7.77187 -0.123693 0)
(7.76408 -0.11621 0)
(7.75418 -0.109777 0)
(7.74235 -0.104514 0)
(7.72877 -0.100549 0)
(7.71371 -0.0979816 0)
(7.6974 -0.0968764 0)
(7.68011 -0.0972596 0)
(7.6621 -0.0991186 0)
(7.64366 -0.10242 0)
(7.625 -0.107001 0)
(7.33891 -0.0541425 0)
(7.3718 -0.150774 0)
(7.41428 -0.219299 0)
(7.45739 -0.265342 0)
(7.50321 -0.295031 0)
(7.5525 -0.31228 0)
(7.60363 -0.320736 0)
(7.65535 -0.32304 0)
(7.70664 -0.320852 0)
(7.75632 -0.315302 0)
(7.80338 -0.307187 0)
(7.84702 -0.297081 0)
(7.88668 -0.285429 0)
(7.92196 -0.2726 0)
(7.95264 -0.258908 0)
(7.97863 -0.244634 0)
(7.99994 -0.230031 0)
(8.01666 -0.215332 0)
(8.02895 -0.200749 0)
(8.03698 -0.186478 0)
(8.04094 -0.1727 0)
(8.04106 -0.159588 0)
(8.03755 -0.147313 0)
(8.03061 -0.136046 0)
(8.02045 -0.125965 0)
(8.00732 -0.117253 0)
(7.99148 -0.110077 0)
(7.97333 -0.104562 0)
(7.95329 -0.100815 0)
(7.93178 -0.0988967 0)
(7.90923 -0.0988414 0)
(7.88611 -0.100609 0)
(7.86276 -0.104127 0)
(7.33755 -0.0401767 0)
(7.38839 -0.104961 0)
(7.47726 -0.161914 0)
(7.57819 -0.216516 0)
(7.685 -0.262412 0)
(7.7925 -0.297183 0)
(7.89467 -0.321414 0)
(7.98802 -0.335756 0)
(8.07061 -0.341266 0)
(8.14142 -0.3394 0)
(8.20033 -0.331623 0)
(8.24783 -0.319264 0)
(8.28476 -0.303487 0)
(8.31217 -0.285266 0)
(8.33122 -0.265396 0)
(8.34303 -0.244514 0)
(8.34868 -0.223122 0)
(8.34911 -0.201616 0)
(8.34516 -0.180306 0)
(8.33755 -0.159433 0)
(8.32684 -0.139187 0)
(8.31351 -0.11972 0)
(8.29789 -0.101171 0)
(8.28025 -0.0836834 0)
(8.26077 -0.0674524 0)
(8.23962 -0.0527888 0)
(8.217 -0.0402103 0)
(8.1931 -0.0300035 0)
(8.1681 -0.0223533 0)
(8.14219 -0.0173901 0)
(8.11567 -0.0152938 0)
(8.08863 -0.0160214 0)
(8.06167 -0.0201185 0)
(7.39939 -0.196481 0)
(7.59526 -0.37516 0)
(7.76763 -0.457227 0)
(7.89453 -0.509941 0)
(7.97811 -0.53711 0)
(8.01671 -0.54455 0)
(8.01477 -0.538885 0)
(7.98091 -0.523476 0)
(7.92301 -0.500841 0)
(7.84791 -0.47326 0)
(7.76157 -0.442549 0)
(7.66891 -0.410119 0)
(7.5738 -0.377065 0)
(7.47921 -0.344208 0)
(7.38732 -0.312133 0)
(7.29971 -0.281238 0)
(7.21744 -0.25177 0)
(7.14118 -0.223868 0)
(7.07129 -0.197587 0)
(7.00792 -0.172927 0)
(6.95101 -0.149853 0)
(6.90037 -0.128307 0)
(6.85567 -0.108231 0)
(6.81642 -0.089582 0)
(6.78191 -0.0723413 0)
(6.75121 -0.0566514 0)
(6.72306 -0.0426101 0)
(6.69719 -0.030509 0)
(6.67321 -0.0206091 0)
(6.65045 -0.0130389 0)
(6.62868 -0.00792383 0)
(6.60646 -0.0047601 0)
(6.58484 -0.00589366 0)
(7.16021 -0.185674 0)
(6.91153 -0.344577 0)
(6.5015 -0.391477 0)
(6.03962 -0.392484 0)
(5.60211 -0.363864 0)
(5.18938 -0.319441 0)
(4.80566 -0.270132 0)
(4.45786 -0.221559 0)
(4.14665 -0.176707 0)
(3.87046 -0.137052 0)
(3.62739 -0.102987 0)
(3.41492 -0.074314 0)
(3.23031 -0.0505492 0)
(3.0708 -0.03107 0)
(2.93377 -0.0152247 0)
(2.81678 -0.00239846 0)
(2.71761 0.00795541 0)
(2.63422 0.0163038 0)
(2.56484 0.0230361 0)
(2.50785 0.0284788 0)
(2.46185 0.0329215 0)
(2.42559 0.0366577 0)
(2.39803 0.0400373 0)
(2.37831 0.0435344 0)
(2.36575 0.0476927 0)
(2.36018 0.0526898 0)
(2.36102 0.0580372 0)
(2.36699 0.0622837 0)
(2.377 0.0649494 0)
(2.39 0.0663449 0)
(2.40473 0.0665636 0)
(2.4207 0.0685023 0)
(2.43816 0.0579796 0)
(2.21141 -0.104769 0)
(2.55898 -0.151406 0)
(2.80558 -0.129476 0)
(3.06895 -0.101603 0)
(3.36896 -0.0496875 0)
(3.71816 0.00701623 0)
(4.12152 0.0581972 0)
(4.59487 0.085307 0)
(5.14752 0.0599748 0)
(5.77658 -0.0455859 0)
(6.47109 -0.265379 0)