# y+ ()       
# Time        	patch         	min           	max           	average       
1900          	lowerWall	3.988008e-01	6.501382e+01	3.730041e+01
1900          	upperWall	3.125910e+01	5.508446e+01	4.627213e+01
