/*--------------------------------*- C++ -*----------------------------------*\
  =========                 |
  \\      /  F ield         | OpenFOAM: The Open Source CFD Toolbox
   \\    /   O peration     | Website:  https://openfoam.org
    \\  /    A nd           | Version:  10
     \\/     M anipulation  |
\*---------------------------------------------------------------------------*/
FoamFile
{
    format      ascii;
    class       volScalarField;
    location    "0.165";
    object      epsilon;
}
// * * * * * * * * * * * * * * * * * * * * * * * * * * * * * * * * * * * * * //

dimensions      [0 2 -3 0 0 0 0];

internalField   nonuniform List<scalar> 
6820
(
23.2969
22.5752
21.9094
21.2853
20.7019
20.1632
19.6734
19.2344
18.8457
18.505
18.2093
17.9547
17.7375
17.5538
17.4002
17.2733
17.1702
17.0882
17.0248
16.9779
16.9455
16.9259
16.9175
16.919
16.9291
16.9469
16.9708
17.0028
17.0288
17.1113
16.955
17.9381
13.602
5.03386
6.81831
7.83933
8.46759
8.89802
9.23142
9.5216
9.795
10.0636
10.3325
10.6035
10.877
11.1526
11.4299
11.7084
11.9874
12.2663
12.5445
12.8215
13.0968
13.3701
13.6409
13.9091
14.1745
14.4373
14.6979
14.9573
15.2177
15.4816
15.7687
16.0435
16.5841
16.5967
3.7036
4.14719
4.56526
4.91422
5.19794
5.4312
5.62806
5.79972
5.95463
6.0989
6.23681
6.37129
6.50424
6.63689
6.76998
6.90391
7.03887
7.17491
7.31198
7.44995
7.58868
7.72803
7.86784
8.008
8.14844
8.2892
8.4304
8.57273
8.71617
8.86499
9.01416
9.18483
9.35047
3.54009
3.61093
3.72473
3.85372
3.98117
4.09942
4.20621
4.30198
4.3882
4.46666
4.53907
4.60694
4.6715
4.73376
4.79449
4.85428
4.91356
4.97266
5.0318
5.09114
5.15077
5.21077
5.27116
5.33198
5.39325
5.45503
5.51739
5.58055
5.64466
5.71051
5.77822
5.84914
5.92535
3.52064
3.50151
3.50498
3.52611
3.55868
3.59721
3.6378
3.67803
3.71664
3.75307
3.78724
3.81928
3.84947
3.87811
3.90549
3.9319
3.95758
3.98274
4.00755
4.03216
4.05667
4.08119
4.10578
4.1305
4.15542
4.18058
4.20605
4.23193
4.25831
4.2854
4.31337
4.34234
4.37263
3.5194
3.48247
3.45303
3.43232
3.41995
3.4145
3.41422
3.4175
3.42307
3.42997
3.43757
3.44544
3.45335
3.46115
3.46879
3.47626
3.48358
3.49079
3.49791
3.50501
3.51212
3.51928
3.52653
3.5339
3.54142
3.54912
3.55705
3.56524
3.57376
3.58266
3.59202
3.60187
3.61226
3.51943
3.47974
3.44283
3.40949
3.38025
3.35523
3.3342
3.31668
3.30212
3.28998
3.27976
3.27106
3.26354
3.25697
3.25115
3.24594
3.24123
3.23695
3.23304
3.22948
3.22623
3.22328
3.22061
3.21822
3.21611
3.21427
3.21272
3.21147
3.21053
3.20992
3.20967
3.20978
3.21026
3.51947
3.47943
3.44109
3.40466
3.37041
3.33852
3.30907
3.28205
3.25735
3.23479
3.21417
3.19529
3.17792
3.1619
3.14705
3.13322
3.12031
3.1082
3.09681
3.08606
3.07591
3.0663
3.05719
3.04854
3.04034
3.03255
3.02516
3.01817
3.01155
3.00532
2.99946
2.99398
2.98886
3.51948
3.47941
3.44085
3.40382
3.36835
3.33448
3.30225
3.27168
3.24279
3.21552
3.18982
3.16561
3.14281
3.12132
3.10103
3.08186
3.06372
3.04653
3.0302
3.01468
2.99991
2.98582
2.97237
2.95953
2.94724
2.93549
2.92424
2.91347
2.90316
2.8933
2.88386
2.87485
2.86623
3.51948
3.4794
3.44082
3.40368
3.36796
3.33361
3.30062
3.26897
3.23864
3.2096
3.18183
3.1553
3.12996
3.10576
3.08266
3.06059
3.03951
3.01937
3.0001
2.98166
2.96401
2.94709
2.93087
2.9153
2.90036
2.88601
2.87221
2.85896
2.84621
2.83395
2.82217
2.81084
2.79995
3.51948
3.4794
3.44081
3.40365
3.36788
3.33344
3.30027
3.26833
3.23758
3.20799
3.17951
3.15211
3.12577
3.10044
3.07609
3.05268
3.03017
3.00854
2.98773
2.96772
2.94847
2.92994
2.91211
2.89494
2.87839
2.86245
2.84709
2.83228
2.818
2.80423
2.79095
2.77815
2.7658
3.51948
3.4794
3.4408
3.40364
3.36786
3.33339
3.30019
3.26818
3.23732
3.20757
3.17889
3.15122
3.12453
3.0988
3.07397
3.05002
3.02692
3.00463
2.98313
2.96238
2.94236
2.92302
2.90436
2.88634
2.86894
2.85213
2.83589
2.8202
2.80503
2.79038
2.77622
2.76254
2.74931
3.51948
3.4794
3.44079
3.40363
3.36784
3.33337
3.30015
3.26813
3.23725
3.20746
3.17871
3.15097
3.12418
3.09832
3.07333
3.0492
3.02588
3.00335
2.98157
2.96051
2.94016
2.92048
2.90144
2.88303
2.86521
2.84798
2.8313
2.81516
2.79954
2.78443
2.76979
2.75563
2.74192
3.51948
3.47939
3.44079
3.40362
3.36783
3.33336
3.30013
3.2681
3.23721
3.20741
3.17865
3.15088
3.12407
3.09816
3.07313
3.04894
3.02555
3.00293
2.98106
2.95989
2.93942
2.9196
2.90041
2.88184
2.86385
2.84643
2.82956
2.81322
2.79739
2.78206
2.7672
2.7528
2.73884
3.51947
3.47939
3.44079
3.40362
3.36782
3.33334
3.30011
3.26808
3.23718
3.20738
3.17861
3.15083
3.12401
3.09809
3.07305
3.04884
3.02543
3.00278
2.98087
2.95967
2.93915
2.91929
2.90005
2.88142
2.86337
2.84588
2.82893
2.81251
2.79659
2.78116
2.7662
2.75169
2.73763
3.51947
3.47939
3.44078
3.40361
3.36781
3.33333
3.3001
3.26806
3.23716
3.20735
3.17858
3.1508
3.12397
3.09805
3.07299
3.04878
3.02536
3.0027
2.98078
2.95957
2.93904
2.91915
2.8999
2.88124
2.86317
2.84566
2.82868
2.81223
2.79627
2.7808
2.7658
2.75125
2.73714
3.51947
3.47939
3.44078
3.40361
3.36781
3.33332
3.30009
3.26804
3.23714
3.20732
3.17855
3.15076
3.12393
3.098
3.07295
3.04873
3.0253
3.00264
2.98072
2.9595
2.93896
2.91907
2.89981
2.88115
2.86306
2.84554
2.82855
2.81209
2.79612
2.78063
2.76561
2.75104
2.7369
3.51947
3.47939
3.44078
3.4036
3.3678
3.33331
3.30007
3.26803
3.23712
3.2073
3.17852
3.15074
3.1239
3.09797
3.07291
3.04868
3.02526
3.00259
2.98067
2.95945
2.9389
2.91901
2.89974
2.88107
2.86298
2.84545
2.82846
2.81199
2.79601
2.78052
2.76549
2.75091
2.73675
3.51947
3.47939
3.44078
3.4036
3.3678
3.33331
3.30006
3.26802
3.23711
3.20728
3.1785
3.15071
3.12387
3.09794
3.07287
3.04864
3.02521
3.00255
2.98062
2.95939
2.93884
2.91895
2.89968
2.881
2.86291
2.84538
2.82838
2.8119
2.79592
2.78042
2.76538
2.75079
2.73663
3.51947
3.47939
3.44077
3.4036
3.36779
3.3333
3.30006
3.268
3.23709
3.20727
3.17848
3.15069
3.12384
3.09791
3.07284
3.04861
3.02517
3.00251
2.98057
2.95934
2.93879
2.91889
2.89962
2.88094
2.86285
2.84531
2.82831
2.81182
2.79583
2.78033
2.76528
2.75068
2.73652
3.51947
3.47939
3.44077
3.40359
3.36779
3.33329
3.30005
3.268
3.23708
3.20725
3.17846
3.15067
3.12382
3.09788
3.07281
3.04858
3.02514
3.00247
2.98053
2.9593
2.93874
2.91884
2.89956
2.88088
2.86278
2.84524
2.82823
2.81174
2.79575
2.78024
2.76519
2.75058
2.73641
3.51947
3.47938
3.44077
3.40359
3.36779
3.33329
3.30004
3.26799
3.23707
3.20724
3.17845
3.15065
3.1238
3.09786
3.07279
3.04855
3.02511
3.00243
2.98049
2.95926
2.9387
2.91879
2.89951
2.88083
2.86272
2.84518
2.82817
2.81167
2.79567
2.78015
2.7651
2.75048
2.7363
3.51947
3.47938
3.44077
3.40359
3.36778
3.33329
3.30004
3.26798
3.23706
3.20723
3.17844
3.15063
3.12378
3.09784
3.07276
3.04852
3.02508
3.0024
2.98046
2.95922
2.93866
2.91875
2.89946
2.88078
2.86267
2.84512
2.8281
2.8116
2.7956
2.78007
2.76501
2.75039
2.7362
3.51947
3.47938
3.44077
3.40359
3.36778
3.33328
3.30003
3.26797
3.23705
3.20722
3.17842
3.15062
3.12377
3.09782
3.07274
3.0485
3.02505
3.00237
2.98043
2.95919
2.93862
2.91871
2.89942
2.88073
2.86262
2.84506
2.82804
2.81153
2.79552
2.77999
2.76492
2.7503
2.7361
3.51947
3.47938
3.44077
3.40359
3.36778
3.33328
3.30003
3.26797
3.23705
3.20721
3.17841
3.15061
3.12375
3.0978
3.07272
3.04848
3.02503
3.00235
2.9804
2.95915
2.93859
2.91867
2.89938
2.88068
2.86257
2.84501
2.82798
2.81147
2.79546
2.77992
2.76484
2.75021
2.73601
3.51947
3.47938
3.44077
3.40359
3.36778
3.33328
3.30003
3.26797
3.23704
3.20721
3.17841
3.1506
3.12374
3.09779
3.07271
3.04846
3.02501
3.00233
2.98038
2.95913
2.93856
2.91864
2.89934
2.88064
2.86252
2.84496
2.82793
2.81141
2.79539
2.77985
2.76477
2.75013
2.73592
3.51947
3.47938
3.44077
3.40359
3.36778
3.33328
3.30002
3.26796
3.23704
3.2072
3.1784
3.15059
3.12373
3.09778
3.07269
3.04844
3.02499
3.0023
2.98035
2.9591
2.93853
2.9186
2.8993
2.8806
2.86248
2.84491
2.82788
2.81136
2.79533
2.77979
2.7647
2.75005
2.73584
3.51947
3.47938
3.44077
3.40359
3.36778
3.33328
3.30002
3.26796
3.23704
3.2072
3.1784
3.15059
3.12373
3.09777
3.07269
3.04844
3.02498
3.00229
2.98034
2.95908
2.93851
2.91858
2.89928
2.88057
2.86245
2.84487
2.82784
2.81131
2.79528
2.77973
2.76464
2.74999
2.73576
3.51947
3.47938
3.44077
3.40359
3.36778
3.33327
3.30002
3.26796
3.23703
3.20719
3.17839
3.15058
3.12371
3.09776
3.07267
3.04842
3.02497
3.00227
2.98032
2.95906
2.93848
2.91855
2.89925
2.88054
2.86241
2.84484
2.82779
2.81127
2.79523
2.77968
2.76458
2.74993
2.7357
3.51947
3.47938
3.44077
3.40359
3.36778
3.33328
3.30003
3.26797
3.23704
3.2072
3.1784
3.15059
3.12373
3.09777
3.07269
3.04843
3.02497
3.00228
2.98032
2.95906
2.93848
2.91855
2.89924
2.88053
2.8624
2.84482
2.82778
2.81124
2.79521
2.77965
2.76454
2.74989
2.73565
3.51947
3.47939
3.44077
3.40359
3.36778
3.33328
3.30002
3.26796
3.23703
3.20719
3.17839
3.15058
3.12371
3.09776
3.07267
3.04842
3.02496
3.00227
2.98031
2.95905
2.93847
2.91854
2.89923
2.88052
2.86239
2.84481
2.82776
2.81123
2.79519
2.77963
2.76453
2.74987
2.73564
3.51947
3.47938
3.44077
3.40359
3.36779
3.3333
3.30006
3.268
3.23708
3.20725
3.17845
3.15064
3.12378
3.09783
3.07274
3.04849
3.02503
3.00234
2.98038
2.95912
2.93854
2.91861
2.89931
2.8806
2.86247
2.8449
2.82785
2.81133
2.7953
2.77974
2.76465
2.75
2.73578
3.51948
3.4794
3.44079
3.40362
3.36782
3.33332
3.30007
3.26801
3.23709
3.20725
3.17845
3.15065
3.1238
3.09786
3.07278
3.04855
3.02511
3.00244
2.9805
2.95927
2.93872
2.91883
2.89956
2.88089
2.8628
2.84527
2.82828
2.8118
2.79582
2.78033
2.76529
2.75071
2.73655
3.51947
3.47939
3.44079
3.40365
3.36789
3.33344
3.30023
3.26821
3.23733
3.20754
3.17878
3.15103
3.12423
3.09834
3.07334
3.04919
3.02584
3.00328
2.98146
2.96037
2.93997
2.92023
2.90114
2.88265
2.86477
2.84745
2.83067
2.81443
2.79869
2.78345
2.76867
2.75434
2.74045
3.51949
3.47947
3.44095
3.40384
3.36811
3.33369
3.30054
3.26862
3.23789
3.2083
3.17981
3.15237
3.12595
3.1005
3.07599
3.05239
3.02964
3.00773
2.98661
2.96626
2.94664
2.92771
2.90946
2.89185
2.87486
2.85846
2.84262
2.82732
2.81254
2.79826
2.78445
2.7711
2.75819
3.5195
3.47953
3.44117
3.40446
3.36933
3.33572
3.30359
3.27291
3.24363
3.21572
3.18913
3.1638
3.13969
3.11673
3.09487
3.07406
3.05422
3.03532
3.01729
3.00008
2.98365
2.96794
2.95292
2.93855
2.92478
2.91158
2.89892
2.88676
2.87508
2.86384
2.85303
2.84262
2.83259
3.51969
3.48122
3.44561
3.41286
3.38296
3.35588
3.33151
3.30966
3.29014
3.27272
3.25718
3.24333
3.23097
3.21994
3.21006
3.2012
3.19324
3.18605
3.17955
3.17364
3.16824
3.16329
3.15873
3.15451
3.15057
3.14689
3.14342
3.14013
3.13699
3.134
3.13111
3.12832
3.12562
3.52527
3.51369
3.51622
3.5295
3.55075
3.57794
3.60945
3.644
3.68063
3.71859
3.75731
3.79633
3.83529
3.87392
3.91199
3.94936
3.98589
4.0215
4.05612
4.08972
4.12226
4.15373
4.18414
4.21347
4.24176
4.26902
4.29526
4.32052
4.34481
4.36818
4.39065
4.41224
4.43302
3.83318
4.36506
4.84912
5.31402
5.7743
6.22537
6.66295
7.08517
7.49167
7.88284
8.25945
8.62239
8.97256
9.31079
9.63782
9.95432
10.2609
10.558
10.8461
11.1256
11.3969
11.6603
11.916
12.1645
12.4059
12.6405
12.8685
13.0902
13.3058
13.5155
13.7195
13.918
14.1112
30.2663
32.7713
35.3126
37.865
40.4147
42.9529
45.4713
47.9623
50.4191
52.8355
55.2058
57.5253
59.79
61.9963
64.1416
66.2237
68.2408
70.192
72.0766
73.8941
75.6449
77.3292
78.9478
80.5015
81.9915
83.4191
84.7858
86.093
87.3424
88.5357
89.6748
90.761
91.7976
83.1905
235.814
417.504
584.913
711.287
787.412
817.575
812.928
785.868
746.812
703.128
659.351
617.879
579.716
545.067
513.749
485.442
459.808
436.548
415.406
396.16
378.607
362.557
347.827
334.243
321.639
309.858
298.756
288.2
278.072
268.262
258.676
249.231
239.853
230.48
221.061
211.555
201.933
192.177
182.283
172.259
162.127
151.92
141.686
131.484
121.379
111.447
101.769
92.4252
83.4963
75.0569
67.1727
59.8969
53.2676
47.3058
42.0149
37.3821
33.3797
29.9687
27.1023
24.7291
22.7969
21.2552
20.0566
19.1585
18.5219
18.1116
17.8946
17.8387
17.9109
18.0768
18.2997
18.5412
18.7614
18.9208
18.9821
18.912
18.6831
18.2752
17.6767
16.8854
15.9089
14.7646
13.48
12.092
10.6457
9.19275
7.7878
6.48345
5.32422
4.34022
3.54305
2.92563
2.46654
2.13693
1.90677
1.7501
1.64442
1.57808
1.52101
19.7942
29.104
46.2765
71.9752
105.18
143.718
184.772
225.464
263.112
295.574
321.461
340.188
351.908
357.337
357.525
353.65
346.846
338.094
328.178
317.675
306.979
296.339
285.897
275.724
265.844
256.255
246.938
237.862
228.988
220.276
211.681
203.162
194.679
186.196
177.684
169.119
160.487
151.782
143.008
134.178
125.318
116.464
107.662
98.9653
90.4369
82.1424
74.1501
66.5269
59.3358
52.6319
46.4602
40.8522
35.8248
31.3793
27.5016
24.1647
21.3309
18.9553
16.9895
15.3846
14.0944
13.0765
12.2942
11.7163
11.3168
11.0746
10.9718
10.9927
11.1219
11.3429
11.6368
11.9811
12.3492
12.7111
13.034
13.2846
13.4309
13.445
13.305
12.9966
12.5149
11.865
11.0618
10.1307
9.10574
8.02884
6.94642
5.90573
4.94968
4.11147
3.41031
2.84993
2.42058
2.10363
1.87705
1.71918
1.61208
1.54
1.4954
1.45767
9.51719
9.87001
10.8296
12.8043
16.0934
20.8612
27.1906
35.0154
44.3005
54.9878
66.9034
79.716
92.9805
106.186
118.812
130.377
140.489
148.875
155.402
160.062
162.958
164.265
164.198
162.978
160.815
157.892
154.36
150.338
145.917
141.164
136.126
130.841
125.336
119.634
113.758
107.728
101.569
95.3072
88.9749
82.609
76.252
69.9519
63.7611
57.7346
51.9279
46.3951
41.1854
36.3417
31.8973
27.8749
24.2848
21.1255
18.3833
16.0347
14.0484
12.388
11.0149
9.89086
8.98023
8.25102
7.67574
7.23158
6.90024
6.66753
6.52281
6.45835
6.46857
6.54918
6.6962
6.9048
7.16809
7.47596
7.81409
8.16358
8.50123
8.8007
9.0344
9.17593
9.20266
9.09807
8.85365
8.47017
7.9582
7.33784
6.63766
5.8926
5.14083
4.41978
3.7616
3.18929
2.71436
2.33711
2.04908
1.8367
1.68489
1.57912
1.50764
1.45965
1.4306
1.40652
6.00773
6.09015
6.19374
6.37237
6.69032
7.2068
7.9695
9.01049
10.3595
12.0252
14.0142
16.3499
19.054
22.1367
25.5896
29.3789
33.4414
37.685
41.9937
46.2368
50.2806
53.9991
57.284
60.0513
62.2444
63.8348
64.819
65.2135
65.0499
64.369
63.217
61.6425
59.6943
57.4206
54.8686
52.084
49.1117
45.9962
42.7822
39.5145
36.2384
32.9989
29.8396
26.8017
23.9221
21.2317
18.7549
16.5078
14.4983
12.7263
11.1843
9.85882
8.73197
7.78325
6.9911
6.3344
5.79345
5.35068
4.99094
4.70156
4.47225
4.29491
4.16337
4.07322
4.02153
4.0067
4.02813
4.08598
4.1807
4.31251
4.48065
4.68253
4.91278
5.16244
5.4185
5.6641
5.87943
6.04346
6.13619
6.14114
6.04754
5.85205
5.55969
5.1838
4.745
4.26916
3.78443
3.31779
2.89165
2.5213
2.21395
1.96946
1.7823
1.64386
1.54471
1.47558
1.42914
1.39808
1.37989
1.36515
4.40809
4.44658
4.48466
4.5272
4.58286
4.66347
4.78209
4.95058
5.17955
5.47573
5.83856
6.26991
6.77249
7.34926
8.00288
8.73514
9.5461
10.4332
11.3905
12.4079
13.4706
14.5589
15.6488
16.7122
17.7189
18.6381
19.4407
20.1006
20.5968
20.9141
21.0435
20.9828
20.736
20.3127
19.7275
18.9988
18.1479
17.1982
16.174
15.1006
14.0024
12.9032
11.8247
10.786
9.80282
8.88728
8.0475
7.28782
6.60915
6.00958
5.485
5.02985
4.63772
4.3019
4.01575
3.77303
3.56805
3.39579
3.25194
3.13288
3.03567
2.95805
2.89834
2.85546
2.8289
2.81866
2.82522
2.84947
2.89256
2.95568
3.03978
3.14506
3.27041
3.41274
3.56641
3.72285
3.87064
3.99628
4.08548
4.12501
4.10469
4.01911
3.86885
3.66077
3.40743
3.1255
2.83351
2.54925
2.28747
2.05829
1.86672
1.71322
1.59493
1.50697
1.44382
1.39981
1.37053
1.35101
1.34019
1.33158
3.6248
3.63896
3.65301
3.66731
3.68273
3.70105
3.72498
3.75778
3.80301
3.86349
3.94087
4.0362
4.15
4.28243
4.43335
4.60234
4.78871
4.99138
5.20889
5.43923
5.67984
5.92749
6.17824
6.4274
6.66958
6.89882
7.10881
7.29313
7.44557
7.56052
7.63322
7.66017
7.63931
7.57023
7.45417
7.29395
7.09377
6.859
6.59585
6.31109
6.01171
5.70462
5.39634
5.09274
4.79883
4.51863
4.25517
4.01046
3.78562
3.58099
3.3963
3.2308
3.0834
2.95281
2.83763
2.73643
2.64783
2.57052
2.50334
2.44527
2.39546
2.35327
2.31823
2.2901
2.26888
2.25476
2.24821
2.24988
2.26063
2.2814
2.31314
2.35656
2.41184
2.4783
2.55395
2.63512
2.71633
2.79035
2.84876
2.88297
2.88549
2.85121
2.77857
2.67006
2.53205
2.3739
2.20658
2.04091
1.88615
1.74891
1.63287
1.53893
1.46594
1.41135
1.37212
1.34481
1.32691
1.31501
1.30898
1.30413
3.21122
3.2125
3.21383
3.21524
3.21678
3.21864
3.22125
3.22529
3.23168
3.24134
3.25514
3.27382
3.29791
3.32772
3.36333
3.40465
3.45137
3.50304
3.55903
3.61856
3.68072
3.74443
3.80851
3.87161
3.93227
3.98893
4.03997
4.08374
4.11863
4.14317
4.15604
4.15618
4.14287
4.11574
4.07485
4.02065
3.95402
3.87614
3.78851
3.69286
3.59105
3.48499
3.3766
3.2677
3.15992
3.05472
2.95329
2.85658
2.76527
2.6798
2.6004
2.5271
2.4598
2.39825
2.34213
2.29108
2.24468
2.20253
2.16423
2.12944
2.09784
2.0692
2.04336
2.02027
1.99996
1.98258
1.9684
1.95783
1.95135
1.94958
1.95315
1.96265
1.9785
2.00074
2.02884
2.06144
2.09619
2.12966
2.15754
2.17502
2.17751
2.16137
2.12473
2.06796
1.99377
1.90684
1.81308
1.71865
1.62905
1.54847
1.47947
1.42301
1.37879
1.34554
1.32165
1.30507
1.29443
1.28732
1.28422
1.28145
2.98331
2.97722
2.97121
2.96525
2.95936
2.95353
2.94781
2.94233
2.93725
2.93279
2.92922
2.92683
2.92588
2.92658
2.92909
2.93349
2.93976
2.9478
2.95745
2.96843
2.98042
2.99301
3.00576
3.01818
3.02972
3.03983
3.04794
3.05345
3.05584
3.05457
3.04921
3.03937
3.02479
3.0053
2.98087
2.95162
2.91778
2.8797
2.83785
2.79278
2.74511
2.6955
2.64463
2.59316
2.54172
2.49089
2.44117
2.39298
2.34665
2.30242
2.26043
2.22075
2.18338
2.14824
2.11523
2.08419
2.05494
2.02731
2.00112
1.97619
1.95238
1.92957
1.90769
1.8867
1.86663
1.84755
1.8296
1.81302
1.79807
1.78512
1.77455
1.76676
1.76212
1.76083
1.76289
1.76788
1.77493
1.78256
1.78876
1.79113
1.78718
1.77472
1.75232
1.7197
1.67779
1.62874
1.5755
1.52136
1.46942
1.42219
1.3813
1.34754
1.3209
1.30078
1.28634
1.27633
1.27008
1.26578
1.26432
1.26244
2.85666
2.84601
2.83546
2.82498
2.81456
2.8042
2.79388
2.78363
2.77345
2.76339
2.75351
2.74387
2.73456
2.72566
2.71724
2.70937
2.70207
2.69537
2.68922
2.68357
2.67832
2.67334
2.66846
2.66351
2.65828
2.65254
2.64608
2.63864
2.63002
2.61999
2.60837
2.59501
2.57977
2.56259
2.54344
2.52234
2.49938
2.47468
2.44842
2.42081
2.3921
2.36254
2.33243
2.30203
2.27161
2.24142
2.21167
2.18256
2.15422
2.12676
2.10024
2.07468
2.05007
2.02635
2.00345
1.98129
1.95974
1.93871
1.91808
1.89774
1.8776
1.8576
1.83766
1.81778
1.79795
1.77821
1.75865
1.73937
1.72054
1.70237
1.68509
1.66895
1.65423
1.64114
1.6298
1.6202
1.61207
1.60487
1.59779
1.58972
1.57947
1.56586
1.54805
1.52567
1.49899
1.4689
1.43681
1.40436
1.37321
1.34475
1.31996
1.29934
1.28297
1.27053
1.2616
1.25537
1.25156
1.24873
1.24802
1.24624
2.78777
2.77415
2.76063
2.74719
2.73382
2.72052
2.70727
2.69408
2.68095
2.66786
2.65484
2.64188
2.62901
2.61623
2.60356
2.59104
2.57866
2.56645
2.55439
2.54249
2.53072
2.51905
2.50742
2.49577
2.48404
2.47213
2.45997
2.44745
2.4345
2.42101
2.40692
2.39215
2.37665
2.36039
2.34334
2.32551
2.30695
2.28769
2.26781
2.24741
2.22659
2.20546
2.18414
2.16275
2.14141
2.12022
2.09927
2.07863
2.05836
2.03849
2.01903
1.99997
1.98128
1.9629
1.94477
1.92682
1.90896
1.89111
1.87319
1.85512
1.83684
1.81828
1.79942
1.78021
1.76067
1.74081
1.72068
1.70035
1.67991
1.6595
1.63925
1.61935
1.59998
1.58132
1.56352
1.54668
1.53079
1.51573
1.50124
1.48689
1.47217
1.45657
1.43965
1.42118
1.4012
1.38008
1.35846
1.33711
1.31687
1.29846
1.2824
1.26898
1.25825
1.25002
1.24405
1.23977
1.23714
1.2349
1.23438
1.23219
2.75194
2.7364
2.72094
2.70557
2.69027
2.67504
2.65987
2.64476
2.62971
2.61472
2.59978
2.5849
2.57007
2.55529
2.54057
2.52589
2.51127
2.4967
2.48218
2.46771
2.45329
2.43889
2.42452
2.41015
2.39576
2.38133
2.36682
2.35221
2.33746
2.32254
2.30742
2.29208
2.2765
2.26066
2.24456
2.2282
2.21161
2.19479
2.1778
2.16066
2.14343
2.12615
2.10887
2.09165
2.07453
2.05754
2.04071
2.02407
2.00763
1.99137
1.97529
1.95935
1.9435
1.9277
1.91189
1.89599
1.87994
1.86367
1.84711
1.8302
1.81289
1.79512
1.77687
1.75812
1.73886
1.7191
1.69888
1.67825
1.65727
1.63602
1.61463
1.59321
1.57189
1.55083
1.53016
1.51001
1.49047
1.47158
1.45331
1.43557
1.41821
1.40104
1.3839
1.3667
1.34945
1.33231
1.31555
1.29955
1.28469
1.27131
1.25968
1.24992
1.24203
1.23586
1.23128
1.22783
1.22557
1.22336
1.22267
1.21977
2.73442
2.7177
2.70105
2.68446
2.66793
2.65146
2.63505
2.6187
2.60241
2.58618
2.57
2.55389
2.53784
2.52185
2.50592
2.49003
2.4742
2.45842
2.44268
2.42698
2.41133
2.39571
2.38012
2.36456
2.34903
2.33351
2.318
2.3025
2.28699
2.27146
2.25592
2.24035
2.22476
2.20914
2.19349
2.17782
2.16215
2.14647
2.13082
2.11521
2.09966
2.08419
2.06882
2.05356
2.03843
2.02343
2.00857
1.99383
1.9792
1.96467
1.9502
1.93574
1.92126
1.9067
1.89199
1.87709
1.86192
1.84643
1.83055
1.81423
1.79743
1.78011
1.76223
1.74379
1.72477
1.7052
1.68508
1.66447
1.64342
1.62199
1.60027
1.57837
1.55639
1.53444
1.51267
1.4912
1.47013
1.44957
1.4296
1.41025
1.39153
1.37343
1.35594
1.33905
1.32281
1.30729
1.29263
1.279
1.26657
1.2555
1.24588
1.23775
1.23109
1.22574
1.22161
1.2183
1.21594
1.21345
1.21238
1.20861
2.72646
2.70907
2.69172
2.67441
2.65715
2.63994
2.62277
2.60565
2.58859
2.57158
2.55462
2.53773
2.5209
2.50413
2.48743
2.47079
2.45421
2.4377
2.42125
2.40485
2.38852
2.37224
2.35603
2.33987
2.32376
2.30771
2.29173
2.2758
2.25993
2.24412
2.22838
2.21271
2.19711
2.18158
2.16613
2.15078
2.13552
2.12036
2.10532
2.0904
2.07562
2.06097
2.04647
2.03211
2.01789
2.0038
1.98983
1.97596
1.96216
1.94841
1.93466
1.92088
1.90701
1.89301
1.87881
1.86435
1.84959
1.83446
1.81892
1.8029
1.78637
1.7693
1.75166
1.73344
1.71463
1.69525
1.67531
1.65485
1.63392
1.61258
1.5909
1.56898
1.5469
1.52477
1.50272
1.48085
1.45929
1.43816
1.41755
1.39756
1.37827
1.35975
1.34204
1.32519
1.30928
1.29435
1.28049
1.26779
1.25631
1.24612
1.23725
1.22967
1.22334
1.21811
1.21391
1.21037
1.20765
1.20469
1.20313
1.19842
2.72309
2.70535
2.68763
2.66994
2.65227
2.63464
2.61705
2.59949
2.58197
2.56449
2.54706
2.52969
2.51238
2.49513
2.47794
2.46082
2.44376
2.42678
2.40987
2.39304
2.37627
2.35959
2.34298
2.32645
2.31
2.29364
2.27736
2.26118
2.2451
2.22911
2.21323
2.19747
2.18182
2.1663
2.15091
2.13566
2.12055
2.10559
2.09079
2.07615
2.06167
2.04736
2.03321
2.01921
2.00536
1.99163
1.97802
1.96449
1.95102
1.93757
1.92411
1.91058
1.89695
1.88315
1.86915
1.85487
1.84027
1.8253
1.8099
1.79403
1.77765
1.76073
1.74325
1.7252
1.70657
1.68737
1.66762
1.64736
1.62662
1.60548
1.58399
1.56223
1.5403
1.5183
1.49632
1.47448
1.45289
1.43168
1.41096
1.39082
1.37139
1.35274
1.33496
1.31812
1.30229
1.28754
1.27391
1.26147
1.25024
1.24025
1.23149
1.22391
1.21746
1.21199
1.20745
1.20348
1.20026
1.19675
1.19466
1.189
2.72174
2.70382
2.68592
2.66804
2.65017
2.63232
2.61449
2.59669
2.57892
2.56119
2.5435
2.52585
2.50825
2.4907
2.47322
2.45579
2.43844
2.42116
2.40395
2.38682
2.36977
2.3528
2.33592
2.31914
2.30245
2.28586
2.26938
2.253
2.23675
2.22061
2.2046
2.18873
2.173
2.15742
2.14199
2.12672
2.11162
2.09668
2.08193
2.06735
2.05294
2.03871
2.02465
2.01074
1.99698
1.98335
1.96982
1.95637
1.94297
1.92959
1.91618
1.9027
1.88911
1.87535
1.86138
1.84714
1.83258
1.81765
1.80231
1.78651
1.77021
1.75339
1.73603
1.71811
1.69963
1.68061
1.66105
1.641
1.62049
1.59958
1.57833
1.55682
1.53513
1.51336
1.4916
1.46996
1.44855
1.42748
1.40687
1.38682
1.36744
1.34882
1.33107
1.31425
1.29844
1.2837
1.27009
1.25763
1.24634
1.23623
1.22728
1.21944
1.21265
1.20677
1.20176
1.19728
1.19349
1.1894
1.18678
1.18019
2.72119
2.70319
2.68521
2.66723
2.64925
2.6313
2.61335
2.59543
2.57753
2.55965
2.54181
2.52401
2.50624
2.48853
2.47086
2.45326
2.43571
2.41824
2.40083
2.38351
2.36626
2.3491
2.33203
2.31505
2.29818
2.28141
2.26476
2.24822
2.23181
2.21554
2.1994
2.1834
2.16756
2.15187
2.13635
2.121
2.10582
2.09082
2.076
2.06137
2.04691
2.03263
2.01853
2.00457
1.99077
1.97709
1.96351
1.95001
1.93656
1.92312
1.90966
1.89612
1.88248
1.86868
1.85466
1.84039
1.82581
1.81088
1.79555
1.77977
1.76353
1.74678
1.72951
1.71171
1.69337
1.67451
1.65514
1.6353
1.61501
1.59435
1.57336
1.55212
1.53071
1.50921
1.48772
1.46634
1.44518
1.42434
1.40393
1.38405
1.36481
1.34631
1.32863
1.31185
1.29604
1.28127
1.26757
1.25498
1.2435
1.23315
1.22389
1.21567
1.20845
1.20209
1.19656
1.19152
1.18717
1.18251
1.17935
1.17189
2.72092
2.70289
2.68486
2.66683
2.64881
2.63079
2.61279
2.5948
2.57683
2.55887
2.54095
2.52305
2.50519
2.48738
2.4696
2.45188
2.43422
2.41662
2.39908
2.38162
2.36423
2.34693
2.32972
2.3126
2.29558
2.27867
2.26188
2.2452
2.22865
2.21224
2.19596
2.17984
2.16387
2.14806
2.13242
2.11695
2.10165
2.08654
2.07161
2.05687
2.0423
2.02791
2.01369
1.99963
1.98571
1.97191
1.95822
1.94461
1.93104
1.91749
1.90392
1.89029
1.87655
1.86265
1.84857
1.83423
1.8196
1.80464
1.7893
1.77353
1.75732
1.74063
1.72344
1.70575
1.68754
1.66884
1.64965
1.63001
1.60995
1.58953
1.5688
1.54783
1.52669
1.50548
1.48428
1.46318
1.44229
1.4217
1.40152
1.38185
1.36279
1.34442
1.32683
1.3101
1.29429
1.27946
1.26565
1.25288
1.24118
1.23052
1.2209
1.21228
1.20459
1.19773
1.19166
1.18608
1.18117
1.17595
1.17229
1.16402
2.72076
2.7027
2.68465
2.66659
2.64854
2.63049
2.61245
2.59441
2.5764
2.5584
2.54042
2.52247
2.50455
2.48666
2.46882
2.45102
2.43327
2.41558
2.39795
2.38039
2.3629
2.34549
2.32817
2.31094
2.2938
2.27677
2.25985
2.24305
2.22638
2.20984
2.19343
2.17718
2.16108
2.14514
2.12937
2.11376
2.09834
2.08309
2.06803
2.05315
2.03844
2.02391
2.00955
1.99534
1.98128
1.96734
1.95351
1.93975
1.92605
1.91236
1.89866
1.8849
1.87105
1.85705
1.84287
1.82846
1.81378
1.79877
1.78341
1.76765
1.75146
1.73482
1.7177
1.70011
1.68203
1.66347
1.64446
1.62501
1.60517
1.58499
1.56451
1.54381
1.52295
1.50202
1.4811
1.46028
1.43966
1.41933
1.39939
1.37993
1.36104
1.34281
1.32532
1.30863
1.29282
1.27793
1.26399
1.25104
1.23908
1.22812
1.21813
1.20908
1.20093
1.19357
1.18697
1.18086
1.17541
1.16965
1.16553
1.15651
2.72062
2.70255
2.68448
2.6664
2.64832
2.63025
2.61218
2.59412
2.57607
2.55803
2.54002
2.52202
2.50406
2.48612
2.46822
2.45037
2.43256
2.4148
2.39709
2.37945
2.36188
2.34439
2.32697
2.30964
2.29241
2.27527
2.25825
2.24134
2.22455
2.20789
2.19137
2.17499
2.15876
2.14269
2.12679
2.11105
2.09549
2.0801
2.06489
2.04986
2.03501
2.02033
2.00582
1.99146
1.97724
1.96315
1.94916
1.93525
1.9214
1.90757
1.89373
1.87984
1.86587
1.85176
1.83749
1.82299
1.80824
1.7932
1.77781
1.76204
1.74588
1.72928
1.71224
1.69474
1.67678
1.65836
1.63952
1.62026
1.60063
1.58067
1.56044
1.53999
1.5194
1.49875
1.4781
1.45756
1.4372
1.41711
1.3974
1.37814
1.35943
1.34133
1.32393
1.30729
1.29147
1.27651
1.26245
1.2493
1.23709
1.22582
1.21546
1.20599
1.19738
1.18952
1.18242
1.17579
1.16983
1.16357
1.159
1.1493
2.72049
2.70241
2.68432
2.66623
2.64813
2.63004
2.61194
2.59386
2.57578
2.55772
2.53967
2.52164
2.50363
2.48566
2.46771
2.44981
2.43194
2.41412
2.39636
2.37865
2.36101
2.34344
2.32594
2.30853
2.2912
2.27398
2.25685
2.23984
2.22295
2.20618
2.18954
2.17305
2.1567
2.1405
2.12447
2.1086
2.0929
2.07738
2.06203
2.04685
2.03185
2.01702
2.00235
1.98783
1.97346
1.95921
1.94507
1.93101
1.91701
1.90303
1.88905
1.87504
1.86094
1.84673
1.83235
1.81778
1.80297
1.78787
1.77246
1.75669
1.74054
1.72399
1.70701
1.6896
1.67176
1.65348
1.6348
1.61572
1.59629
1.57656
1.55656
1.53636
1.51603
1.49563
1.47525
1.45496
1.43486
1.41501
1.39552
1.37645
1.3579
1.33993
1.32262
1.30601
1.29017
1.27514
1.26094
1.24761
1.23515
1.22356
1.21283
1.20295
1.19388
1.18555
1.17794
1.17082
1.16437
1.15764
1.15266
1.14235
2.72037
2.70228
2.68418
2.66606
2.64795
2.62984
2.61172
2.59361
2.57551
2.55742
2.53934
2.52128
2.50324
2.48523
2.46724
2.44929
2.43138
2.41351
2.39569
2.37792
2.36021
2.34257
2.325
2.30751
2.29011
2.27279
2.25558
2.23847
2.22148
2.20461
2.18787
2.17126
2.1548
2.13848
2.12232
2.10633
2.0905
2.07484
2.05935
2.04403
2.02888
2.0139
1.99908
1.98442
1.96989
1.95549
1.94119
1.92698
1.91284
1.89872
1.88461
1.87046
1.85625
1.84193
1.82746
1.81281
1.79793
1.78279
1.76735
1.75158
1.73545
1.71894
1.70202
1.6847
1.66696
1.64882
1.63029
1.61139
1.59215
1.57263
1.55286
1.5329
1.51281
1.49267
1.47254
1.4525
1.43263
1.41301
1.39373
1.37484
1.35644
1.33859
1.32135
1.30477
1.28891
1.2738
1.25946
1.24593
1.23321
1.22131
1.21022
1.19992
1.19041
1.1816
1.17351
1.1659
1.15898
1.15181
1.14645
1.1356
2.72026
2.70215
2.68403
2.66591
2.64778
2.62965
2.61151
2.59338
2.57526
2.55714
2.53903
2.52094
2.50287
2.48482
2.4668
2.4488
2.43084
2.41293
2.39505
2.37723
2.35946
2.34176
2.32412
2.30656
2.28908
2.27169
2.25439
2.2372
2.22011
2.20314
2.1863
2.16959
2.15301
2.13659
2.12031
2.10419
2.08824
2.07244
2.05682
2.04137
2.02608
2.01096
1.99599
1.98118
1.96651
1.95196
1.93751
1.92316
1.90887
1.89462
1.88037
1.8661
1.85177
1.83735
1.82279
1.80807
1.79313
1.77795
1.76248
1.74671
1.73059
1.71411
1.69726
1.68002
1.66239
1.64437
1.62599
1.60726
1.58821
1.56889
1.54933
1.5296
1.50975
1.48985
1.46996
1.45016
1.43052
1.41112
1.39203
1.37332
1.35506
1.33731
1.32013
1.30357
1.28768
1.27248
1.258
1.24426
1.23128
1.21905
1.20759
1.19687
1.1869
1.17762
1.16904
1.16096
1.15359
1.14601
1.1403
1.12901
2.72015
2.70203
2.6839
2.66576
2.64761
2.62946
2.61131
2.59316
2.57501
2.55687
2.53874
2.52062
2.50252
2.48443
2.46637
2.44834
2.43034
2.41238
2.39446
2.37658
2.35876
2.341
2.3233
2.30567
2.28812
2.27065
2.25327
2.23599
2.21882
2.20176
2.18482
2.16801
2.15133
2.1348
2.11841
2.10218
2.0861
2.07019
2.05444
2.03885
2.02343
2.00817
1.99307
1.97811
1.9633
1.94861
1.93402
1.91953
1.90511
1.89072
1.87635
1.86196
1.84753
1.833
1.81836
1.80356
1.78856
1.77334
1.75785
1.74207
1.72597
1.70953
1.69273
1.67557
1.65804
1.64015
1.62191
1.60334
1.58448
1.56535
1.54601
1.52649
1.50687
1.4872
1.46755
1.44798
1.42856
1.40936
1.39045
1.3719
1.35377
1.33611
1.31898
1.30243
1.28649
1.27118
1.25654
1.24258
1.22932
1.21676
1.2049
1.19374
1.1833
1.17353
1.16446
1.1559
1.14811
1.14015
1.13415
1.12252
2.72004
2.70191
2.68377
2.66562
2.64746
2.62929
2.61112
2.59295
2.57478
2.55662
2.53846
2.52032
2.50218
2.48407
2.46597
2.44791
2.42987
2.41186
2.39389
2.37597
2.35809
2.34028
2.32252
2.30482
2.28721
2.26967
2.25222
2.23486
2.21761
2.20046
2.18343
2.16653
2.14975
2.13311
2.11662
2.10028
2.08409
2.06805
2.05218
2.03647
2.02093
2.00554
1.9903
1.97522
1.96026
1.94544
1.93072
1.9161
1.90154
1.88703
1.87254
1.85804
1.8435
1.82888
1.81415
1.79928
1.78423
1.76897
1.75346
1.73768
1.72159
1.70519
1.68845
1.67137
1.65394
1.63617
1.61807
1.59967
1.58098
1.56204
1.54291
1.52361
1.50421
1.48477
1.46534
1.44598
1.42677
1.40777
1.38903
1.37063
1.35261
1.33503
1.31794
1.30137
1.28536
1.26993
1.2551
1.24089
1.2273
1.21436
1.20207
1.19044
1.17949
1.1692
1.15963
1.15061
1.14242
1.13414