/*--------------------------------*- C++ -*----------------------------------*\
  =========                 |
  \\      /  F ield         | OpenFOAM: The Open Source CFD Toolbox
   \\    /   O peration     | Website:  https://openfoam.org
    \\  /    A nd           | Version:  10
     \\/     M anipulation  |
\*---------------------------------------------------------------------------*/
FoamFile
{
    format      ascii;
    class       volScalarField;
    location    "0.165";
    object      k;
}
// * * * * * * * * * * * * * * * * * * * * * * * * * * * * * * * * * * * * * //

dimensions      [0 2 -2 0 0 0 0];

internalField   nonuniform List<scalar> 
6820
(
0.196709
0.190616
0.184994
0.179724
0.174798
0.17025
0.166114
0.162407
0.159125
0.156249
0.153752
0.151602
0.149768
0.148217
0.14692
0.145849
0.144978
0.144286
0.143751
0.143354
0.143081
0.142915
0.142844
0.142857
0.142942
0.143092
0.143294
0.143565
0.143784
0.144481
0.143161
0.151461
0.114866
0.201954
0.200832
0.197543
0.193922
0.19084
0.188584
0.187155
0.18643
0.186261
0.186515
0.187087
0.187895
0.188881
0.189997
0.191212
0.192499
0.193837
0.195211
0.196608
0.198017
0.19943
0.200842
0.202246
0.203642
0.205027
0.206403
0.207778
0.209164
0.21058
0.21216
0.213671
0.216901
0.217616
0.200488
0.200474
0.199118
0.19707
0.194841
0.19269
0.190724
0.188986
0.187488
0.186231
0.185205
0.184393
0.183776
0.183336
0.183051
0.182905
0.182879
0.18296
0.183132
0.183385
0.183707
0.184089
0.184523
0.185002
0.185521
0.186075
0.186662
0.187284
0.187934
0.188657
0.189369
0.190291
0.191013
0.199662
0.199121
0.198219
0.196983
0.195545
0.194012
0.192458
0.190931
0.189463
0.188073
0.186776
0.185577
0.184479
0.183482
0.182583
0.181779
0.181064
0.180433
0.17988
0.179401
0.178988
0.178638
0.178345
0.178106
0.177915
0.17777
0.177669
0.17761
0.177593
0.177626
0.177701
0.177843
0.178038
0.199429
0.198466
0.197531
0.196513
0.195399
0.194214
0.192986
0.19174
0.190495
0.189267
0.188069
0.186908
0.185793
0.184727
0.183713
0.182752
0.181846
0.180992
0.180191
0.17944
0.178739
0.178084
0.177474
0.176907
0.176381
0.175894
0.175444
0.175031
0.174655
0.174315
0.174012
0.173746
0.173515
0.199398
0.198267
0.197202
0.196166
0.195133
0.194088
0.193029
0.191958
0.190884
0.189812
0.18875
0.187704
0.186678
0.185677
0.184703
0.18376
0.182849
0.18197
0.181125
0.180314
0.179536
0.178791
0.178079
0.177398
0.176749
0.176129
0.175539
0.174979
0.174446
0.173943
0.173467
0.173019
0.172598
0.199395
0.19822
0.197098
0.196021
0.194978
0.193957
0.192952
0.191958
0.190973
0.189997
0.189032
0.188079
0.18714
0.186218
0.185314
0.18443
0.183567
0.182726
0.181908
0.181113
0.180342
0.179595
0.178872
0.178172
0.177497
0.176844
0.176214
0.175607
0.175023
0.17446
0.173921
0.173403
0.172906
0.199395
0.198211
0.197069
0.195969
0.194908
0.193881
0.192884
0.191912
0.190961
0.190029
0.189115
0.188218
0.187337
0.186472
0.185625
0.184794
0.183982
0.183187
0.182411
0.181653
0.180914
0.180194
0.179493
0.178811
0.178147
0.177503
0.176876
0.176269
0.175679
0.175108
0.174555
0.174021
0.173504
0.199395
0.198209
0.197063
0.195955
0.194884
0.19385
0.192848
0.191877
0.190934
0.190017
0.189123
0.188251
0.1874
0.186568
0.185756
0.184961
0.184185
0.183426
0.182685
0.181961
0.181254
0.180564
0.179891
0.179234
0.178594
0.17797
0.177362
0.176771
0.176195
0.175635
0.175091
0.174562
0.17405
0.199395
0.198209
0.197061
0.195951
0.194877
0.193838
0.192833
0.191859
0.190916
0.190001
0.189113
0.18825
0.187411
0.186594
0.185798
0.185023
0.184267
0.183531
0.182812
0.182111
0.181428
0.180761
0.18011
0.179476
0.178857
0.178254
0.177665
0.177092
0.176534
0.17599
0.17546
0.174945
0.174445
0.199395
0.198209
0.197061
0.19595
0.194875
0.193834
0.192827
0.191852
0.190907
0.189992
0.189104
0.188243
0.187407
0.186595
0.185806
0.18504
0.184294
0.183568
0.182861
0.182174
0.181504
0.180851
0.180215
0.179596
0.178992
0.178404
0.177831
0.177272
0.176728
0.176198
0.175682
0.17518
0.174692
0.199395
0.198209
0.19706
0.195949
0.194874
0.193833
0.192825
0.191849
0.190903
0.189987
0.189099
0.188237
0.187402
0.186591
0.185804
0.18504
0.184298
0.183577
0.182876
0.182194
0.181531
0.180886
0.180258
0.179647
0.179052
0.178473
0.177909
0.17736
0.176826
0.176306
0.1758
0.175307
0.174827
0.199395
0.198209
0.19706
0.195949
0.194873
0.193832
0.192824
0.191847
0.190901
0.189984
0.189096
0.188234
0.187398
0.186588
0.185801
0.185038
0.184296
0.183576
0.182877
0.182198
0.181537
0.180896
0.180271
0.179664
0.179074
0.1785
0.177941
0.177397
0.176869
0.176354
0.175853
0.175366
0.174893
0.199395
0.198209
0.19706
0.195949
0.194873
0.193831
0.192823
0.191846
0.1909
0.189983
0.189094
0.188232
0.187396
0.186585
0.185798
0.185035
0.184293
0.183574
0.182875
0.182196
0.181537
0.180896
0.180273
0.179668
0.17908
0.178507
0.177951
0.17741
0.176883
0.176372
0.175874
0.17539
0.174919
0.199395
0.198208
0.19706
0.195948
0.194872
0.193831
0.192822
0.191845
0.190899
0.189981
0.189092
0.18823
0.187394
0.186583
0.185796
0.185032
0.184291
0.183571
0.182873
0.182194
0.181535
0.180894
0.180272
0.179667
0.179079
0.178507
0.177952
0.177412
0.176886
0.176376
0.175879
0.175396
0.174926
0.199395
0.198208
0.19706
0.195948
0.194872
0.19383
0.192822
0.191844
0.190898
0.18998
0.189091
0.188229
0.187392
0.186581
0.185794
0.18503
0.184289
0.183569
0.18287
0.182191
0.181532
0.180891
0.180269
0.179664
0.179077
0.178505
0.17795
0.17741
0.176885
0.176374
0.175878
0.175395
0.174926
0.199395
0.198208
0.19706
0.195948
0.194872
0.19383
0.192821
0.191844
0.190897
0.189979
0.18909
0.188227
0.187391
0.18658
0.185792
0.185028
0.184287
0.183567
0.182868
0.182189
0.18153
0.180889
0.180267
0.179662
0.179074
0.178502
0.177947
0.177407
0.176882
0.176371
0.175875
0.175392
0.174923
0.199395
0.198208
0.19706
0.195948
0.194872
0.19383
0.192821
0.191843
0.190896
0.189979
0.189089
0.188226
0.18739
0.186578
0.185791
0.185027
0.184285
0.183565
0.182866
0.182187
0.181527
0.180887
0.180264
0.179659
0.179071
0.1785
0.177944
0.177404
0.176879
0.176368
0.175871
0.175388
0.174918
0.199395
0.198208
0.197059
0.195948
0.194871
0.193829
0.19282
0.191843
0.190896
0.189978
0.189088
0.188225
0.187389
0.186577
0.18579
0.185025
0.184284
0.183563
0.182864
0.182185
0.181525
0.180884
0.180262
0.179657
0.179068
0.178497
0.177941
0.177401
0.176875
0.176364
0.175867
0.175384
0.174914
0.199395
0.198208
0.197059
0.195948
0.194871
0.193829
0.19282
0.191842
0.190895
0.189977
0.189087
0.188225
0.187388
0.186576
0.185788
0.185024
0.184282
0.183562
0.182862
0.182183
0.181523
0.180882
0.18026
0.179654
0.179066
0.178494
0.177938
0.177398
0.176872
0.176361
0.175864
0.17538
0.17491
0.199395
0.198208
0.197059
0.195947
0.194871
0.193829
0.19282
0.191842
0.190895
0.189977
0.189087
0.188224
0.187387
0.186575
0.185787
0.185023
0.184281
0.183561
0.182861
0.182182
0.181522
0.180881
0.180258
0.179652
0.179064
0.178492
0.177936
0.177395
0.176869
0.176358
0.17586
0.175376
0.174905
0.199395
0.198208
0.197059
0.195947
0.194871
0.193829
0.19282
0.191842
0.190894
0.189976
0.189086
0.188223
0.187386
0.186574
0.185786
0.185022
0.18428
0.183559
0.18286
0.18218
0.18152
0.180879
0.180256
0.17965
0.179062
0.178489
0.177933
0.177392
0.176866
0.176354
0.175857
0.175372
0.174901
0.199395
0.198208
0.197059
0.195947
0.194871
0.193829
0.192819
0.191842
0.190894
0.189976
0.189086
0.188223
0.187386
0.186574
0.185786
0.185021
0.184279
0.183558
0.182858
0.182179
0.181519
0.180877
0.180254
0.179648
0.179059
0.178487
0.177931
0.177389
0.176863
0.176351
0.175853
0.175369
0.174897
0.199395
0.198208
0.197059
0.195947
0.194871
0.193829
0.192819
0.191841
0.190894
0.189976
0.189085
0.188222
0.187385
0.186573
0.185785
0.18502
0.184278
0.183557
0.182857
0.182177
0.181517
0.180876
0.180252
0.179646
0.179057
0.178485
0.177928
0.177387
0.17686
0.176348
0.17585
0.175365
0.174894
0.199395
0.198208
0.197059
0.195947
0.194871
0.193829
0.192819
0.191841
0.190894
0.189975
0.189085
0.188222
0.187385
0.186572
0.185784
0.185019
0.184277
0.183556
0.182856
0.182176
0.181516
0.180874
0.180251
0.179645
0.179056
0.178483
0.177926
0.177385
0.176858
0.176345
0.175847
0.175362
0.17489
0.199395
0.198208
0.197059
0.195947
0.194871
0.193828
0.192819
0.191841
0.190894
0.189975
0.189085
0.188221
0.187384
0.186572
0.185784
0.185019
0.184276
0.183555
0.182855
0.182175
0.181515
0.180873
0.180249
0.179643
0.179054
0.178481
0.177924
0.177382
0.176855
0.176343
0.175844
0.175359
0.174887
0.199395
0.198208
0.197059
0.195947
0.194871
0.193828
0.192819
0.191841
0.190893
0.189975
0.189085
0.188221
0.187384
0.186571
0.185783
0.185018
0.184276
0.183555
0.182854
0.182174
0.181514
0.180872
0.180248
0.179642
0.179052
0.178479
0.177922
0.17738
0.176853
0.17634
0.175841
0.175356
0.174883
0.199395
0.198208
0.197059
0.195947
0.194871
0.193828
0.192819
0.191841
0.190893
0.189975
0.189084
0.188221
0.187384
0.186571
0.185783
0.185018
0.184275
0.183554
0.182854
0.182174
0.181513
0.180871
0.180247
0.179641
0.179051
0.178478
0.177921
0.177378
0.176851
0.176338
0.175839
0.175353
0.174881
0.199395
0.198208
0.197059
0.195947
0.194871
0.193828
0.192819
0.191841
0.190893
0.189975
0.189084
0.188221
0.187383
0.186571
0.185783
0.185017
0.184275
0.183554
0.182853
0.182173
0.181512
0.18087
0.180246
0.17964
0.17905
0.178477
0.177919
0.177377
0.176849
0.176336
0.175837
0.175351
0.174878
0.199395
0.198208
0.197059
0.195947
0.194871
0.193828
0.192819
0.191841
0.190894
0.189975
0.189085
0.188221
0.187384
0.186571
0.185783
0.185018
0.184275
0.183554
0.182854
0.182173
0.181512
0.18087
0.180246
0.179639
0.17905
0.178476
0.177918
0.177376
0.176848
0.176335
0.175836
0.175349
0.174876
0.199395
0.198208
0.197059
0.195947
0.194871
0.193828
0.192819
0.191841
0.190893
0.189975
0.189084
0.188221
0.187383
0.186571
0.185783
0.185018
0.184275
0.183554
0.182853
0.182173
0.181512
0.18087
0.180246
0.179639
0.179049
0.178476
0.177918
0.177375
0.176848
0.176334
0.175835
0.175348
0.174875
0.199395
0.198208
0.197059
0.195948
0.194871
0.193829
0.19282
0.191843
0.190895
0.189977
0.189087
0.188224
0.187386
0.186574
0.185785
0.18502
0.184277
0.183556
0.182856
0.182175
0.181514
0.180872
0.180248
0.179641
0.179051
0.178477
0.177919
0.177376
0.176848
0.176335
0.175835
0.175348
0.174875
0.199395
0.198209
0.19706
0.195949
0.194872
0.19383
0.192821
0.191843
0.190896
0.189978
0.189087
0.188224
0.187387
0.186575
0.185787
0.185022
0.184279
0.183558
0.182857
0.182177
0.181516
0.180874
0.180249
0.179642
0.179052
0.178478
0.17792
0.177376
0.176848
0.176334
0.175833
0.175346
0.174871
0.199395
0.198208
0.19706
0.19595
0.194875
0.193835
0.192827
0.191851
0.190905
0.189987
0.189097
0.188234
0.187397
0.186585
0.185796
0.185031
0.184288
0.183566
0.182865
0.182184
0.181522
0.180878
0.180252
0.179644
0.179052
0.178476
0.177916
0.177371
0.17684
0.176324
0.175821
0.175331
0.174854
0.199396
0.198212
0.197066
0.195957
0.194883
0.193842
0.192834
0.191857
0.190911
0.189993
0.189104
0.188241
0.187404
0.186591
0.185801
0.185035
0.18429
0.183566
0.182862
0.182178
0.181512
0.180865
0.180234
0.179621
0.179024
0.178443
0.177876
0.177325
0.176787
0.176264
0.175754
0.175256
0.174771
0.199396
0.198213
0.197071
0.195969
0.194902
0.193869
0.192866
0.191893
0.190947
0.190029
0.189137
0.18827
0.187426
0.186606
0.185808
0.185032
0.184276
0.18354
0.182824
0.182126
0.181446
0.180783
0.180137
0.179507
0.178894
0.178295
0.177711
0.177142
0.176586
0.176044
0.175515
0.174999
0.174495
0.199402
0.19824
0.197114
0.196018
0.194952
0.193916
0.192908
0.191927
0.190972
0.19004
0.189131
0.188245
0.18738
0.186536
0.185712
0.184908
0.184123
0.183357
0.182609
0.181879
0.181167
0.180471
0.179792
0.179128
0.17848
0.177848
0.17723
0.176626
0.176036
0.17546
0.174897
0.174347
0.17381
0.199421
0.198284
0.197214
0.196182
0.195158
0.194136
0.193118
0.19211
0.191117
0.190141
0.189187
0.188255
0.187347
0.186461
0.185599
0.184759
0.18394
0.183143
0.182365
0.181607
0.180868
0.180147
0.179443
0.178756
0.178085
0.17743
0.17679
0.176165
0.175555
0.174958
0.174376
0.173806
0.17325
0.199655
0.198884
0.198077
0.197302
0.196603
0.195976
0.195405
0.194881
0.194397
0.193952
0.193542
0.193167
0.192827
0.192519
0.192243
0.191998
0.191781
0.191592
0.191429
0.191291
0.191175
0.191081
0.191007
0.190952
0.190914
0.190892
0.190886
0.190894
0.190916
0.19095
0.190995
0.191052
0.191119
0.205419
0.216602
0.227661
0.238503
0.249093
0.259416
0.269459
0.279212
0.288668
0.297818
0.30666
0.315191
0.32341
0.331318
0.338918
0.346213
0.353208
0.359909
0.366323
0.372456
0.378316
0.383911
0.389249
0.39434
0.399191
0.403811
0.40821
0.412395
0.416375
0.420159
0.423755
0.42717
0.430417
0.317821
0.636803
0.961056
1.24989
1.48326
1.65371
1.76491
1.82784
1.85608
1.86209
1.85544
1.84245
1.82685
1.81058
1.7945
1.77902
1.76434
1.75065
1.73812
1.72691
1.71713
1.7088
1.70185
1.69612
1.69139
1.6874
1.68383
1.68031
1.67648
1.67193
1.66626
1.65907
1.64995
1.63853
1.62443
1.60731
1.58686
1.56283
1.53499
1.5032
1.4674
1.42761
1.38392
1.33655
1.28581
1.2321
1.17593
1.11791
1.05872
0.999104
0.93986
0.881791
0.825687
0.772286
0.722242
0.676097
0.634266
0.597023
0.564508
0.53674
0.513636
0.495037
0.480736
0.470497
0.464068
0.461186
0.461571
0.464913
0.470851
0.47896
0.488732
0.499572
0.5108
0.521667
0.531383
0.539148
0.544192
0.545817
0.543427
0.536564
0.524938
0.508448
0.487202
0.461543
0.432056
0.399582
0.365205
0.330216
0.296027
0.264037
0.235447
0.211078
0.191263
0.175854
0.16436
0.1561
0.150413
0.146628
0.144363
0.142956
0.232374
0.262912
0.308896
0.37107
0.448739
0.53982
0.640577
0.746056
0.850735
0.949474
1.03824
1.11454
1.17745
1.22742
1.26585
1.29461
1.31566
1.33079
1.34151
1.34898
1.35403
1.35724
1.35902
1.35961
1.35915
1.35771
1.35528
1.3518
1.34714
1.34111
1.3335
1.32408
1.31258
1.29876
1.28238
1.26319
1.24102
1.21569
1.1871
1.15521
1.12006
1.08176
1.04053
0.996669
0.950567
0.902707
0.853646
0.804007
0.754458
0.705689
0.658385
0.613193
0.570693
0.531368
0.49558
0.463565
0.435429
0.411162
0.390659
0.37375
0.360224
0.349859
0.342442
0.33778
0.335709
0.336087
0.338786
0.34367
0.350574
0.359279
0.369484
0.380793
0.3927
0.404599
0.415802
0.425572
0.433167
0.437883
0.439106
0.436351
0.429299
0.417828
0.402039
0.38227
0.359107
0.333382
0.306139
0.278575
0.251936
0.227368
0.205764
0.18764
0.173112
0.161949
0.153713
0.147864
0.143913
0.141357
0.139919
0.139262
0.192035
0.194392
0.199284
0.207356
0.21889
0.234178
0.253656
0.277796
0.307172
0.342202
0.382873
0.428585
0.478218
0.530256
0.582967
0.634601
0.683587
0.728684
0.769073
0.80436
0.834522
0.859802
0.880601
0.897375
0.910572
0.920579
0.927707
0.93218
0.93414
0.933661
0.930764
0.925428
0.91761
0.907253
0.894299
0.878695
0.860408
0.839436
0.815818
0.789649
0.761089
0.730367
0.697787
0.663721
0.628605
0.592927
0.557209
0.52199
0.487796
0.455125
0.424413
0.396018
0.370197
0.347105
0.326793
0.309216
0.294259
0.281757
0.27152
0.263355
0.257079
0.252538
0.249609
0.248202
0.248264
0.249768
0.252709
0.257085
0.262885
0.27006
0.278504
0.288023
0.29832
0.30898
0.31948
0.329206
0.337495
0.34368
0.34715
0.347396
0.344063
0.336988
0.326228
0.312075
0.295061
0.275937
0.255631
0.235165
0.215548
0.197645
0.182074
0.169143
0.158866
0.15103
0.145303
0.141291
0.138654
0.137025
0.136205
0.136094
0.178203
0.178385
0.178791
0.179616
0.18101
0.18309
0.185951
0.1897
0.194487
0.200468
0.207838
0.216851
0.227766
0.240802
0.256102
0.273686
0.293422
0.315015
0.338016
0.361861
0.38592
0.409556
0.432173
0.453257
0.472399
0.489302
0.503774
0.515708
0.525062
0.531837
0.536061
0.537778
0.537041
0.533913
0.528463
0.520771
0.510934
0.499069
0.485324
0.469882
0.452969
0.434848
0.415825
0.396232
0.376422
0.35675
0.33756
0.319164
0.301831
0.285772
0.271135
0.258002
0.246392
0.236272
0.227569
0.220182
0.213999
0.208905
0.204795
0.201575
0.19917
0.197527
0.196612
0.196411
0.196934
0.198208
0.200274
0.203183
0.206988
0.211725
0.2174
0.223968
0.231306
0.239197
0.247318
0.255241
0.262456
0.268406
0.272541
0.274373
0.273529
0.269801
0.263178
0.253868
0.24229
0.229051
0.214893
0.200611
0.186959
0.174555
0.163816
0.154933
0.147903
0.142575
0.138725
0.136081
0.134421
0.133475
0.133108
0.133381
0.173248
0.172927
0.172633
0.172414
0.172305
0.172342
0.172552
0.172957
0.173583
0.17445
0.175577
0.176999
0.178769
0.180944
0.183592
0.186778
0.190563
0.194994
0.2001
0.205882
0.212305
0.219296
0.226742
0.234492
0.242365
0.250159
0.257662
0.26467
0.270988
0.276448
0.280909
0.284262
0.286434
0.287386
0.287111
0.285633
0.283003
0.279298
0.27462
0.269093
0.262861
0.256083
0.248929
0.241573
0.234181
0.22691
0.219893
0.213241
0.207037
0.201336
0.196168
0.191541
0.187445
0.183857
0.180747
0.178079
0.175817
0.173926
0.172378
0.171148
0.170221
0.169588
0.16925
0.16922
0.169518
0.170177
0.17124
0.172756
0.17478
0.177364
0.180551
0.184356
0.188756
0.193669
0.198936
0.204316
0.209484
0.214052
0.217599
0.219721
0.220079
0.21845
0.214763
0.209123
0.20181
0.193252
0.183982
0.174565
0.165529
0.157301
0.15017
0.144272
0.139617
0.136117
0.133632
0.131984
0.13103
0.130576
0.13053
0.131058
0.172128
0.171592
0.171061
0.170545
0.170054
0.169599
0.169193
0.168845
0.168565
0.168357
0.168222
0.168166
0.168191
0.168308
0.168527
0.16886
0.16932
0.169922
0.170676
0.171592
0.172676
0.173925
0.175332
0.176881
0.178547
0.180295
0.182083
0.18386
0.185574
0.187166
0.188581
0.189767
0.190676
0.191273
0.191533
0.19144
0.190995
0.190206
0.189096
0.187697
0.186047
0.184195
0.182189
0.180083
0.177926
0.175766
0.173643
0.171593
0.169641
0.167809
0.166108
0.164547
0.163126
0.161843
0.160693
0.15967
0.158764
0.157969
0.157278
0.156686
0.156193
0.155799
0.155513
0.155344
0.155312
0.155438
0.155754
0.156294
0.157099
0.158212
0.159671
0.161508
0.163733
0.166327
0.169229
0.172322
0.175431
0.178325
0.180733
0.182371
0.182979
0.182361
0.180423
0.177189
0.172814
0.167562
0.161777
0.155831
0.150078
0.144808
0.140223
0.13643
0.133453
0.131245
0.129728
0.128783
0.128325
0.128212
0.128382
0.129065
0.17235
0.171724
0.171098
0.170477
0.169863
0.169258
0.168666
0.168093
0.167542
0.167018
0.16652
0.166052
0.165615
0.165209
0.164835
0.164497
0.164196
0.163935
0.163717
0.163544
0.163418
0.16334
0.16331
0.163325
0.163383
0.163476
0.163597
0.163736
0.163879
0.164015
0.164127
0.164203
0.164228
0.16419
0.16408
0.163889
0.163613
0.163251
0.162805
0.162281
0.161686
0.16103
0.160326
0.159587
0.158825
0.158054
0.157286
0.15653
0.155796
0.15509
0.154417
0.153778
0.153173
0.152603
0.152065
0.151555
0.15107
0.150607
0.150163
0.149737
0.149327
0.148937
0.148569
0.148233
0.147937
0.147698
0.147533
0.147466
0.147522
0.147732
0.148125
0.148727
0.149559
0.150624
0.151904
0.153352
0.154883
0.156374
0.15767
0.158596
0.158982
0.158682
0.157609
0.155749
0.153171
0.15002
0.146501
0.142844
0.139276
0.135989
0.133123
0.130761
0.128931
0.12761
0.126757
0.126293
0.126172
0.126282
0.126589
0.12735
0.172923
0.172267
0.17161
0.170953
0.170296
0.169642
0.168992
0.168347
0.16771
0.167081
0.166464
0.165858
0.165265
0.164687
0.164122
0.163573
0.16304
0.162523
0.162024
0.161542
0.161079
0.160634
0.160209
0.159803
0.159417
0.159048
0.158696
0.158358
0.158031
0.157713
0.1574
0.157089
0.156774
0.156454
0.156124
0.155783
0.155428
0.155059
0.154676
0.154279
0.15387
0.153452
0.153028
0.1526
0.152172
0.151747
0.151328
0.150916
0.150514
0.150122
0.149739
0.149365
0.148998
0.148634
0.148271
0.147905
0.147532
0.14715
0.146754
0.146344
0.145918
0.145475
0.145018
0.14455
0.144077
0.143608
0.143153
0.142726
0.142344
0.142027
0.141794
0.141667
0.141663
0.141794
0.14206
0.142447
0.142918
0.143415
0.143856
0.144145
0.144179
0.143865
0.143138
0.141973
0.140395
0.138477
0.136333
0.134099
0.131914
0.1299
0.128153
0.126731
0.125658
0.124925
0.124511
0.124361
0.124453
0.1247
0.125084
0.125865
0.17347
0.172816
0.172159
0.1715
0.17084
0.170178
0.169516
0.168855
0.168195
0.167537
0.166883
0.166234
0.16559
0.164952
0.164322
0.163699
0.163084
0.162478
0.16188
0.161293
0.160715
0.160147
0.159591
0.159045
0.158511
0.157988
0.157477
0.156978
0.156489
0.156012
0.155544
0.155087
0.154638
0.154198
0.153765
0.153339
0.15292
0.152507
0.152102
0.151703
0.151312
0.150929
0.150555
0.150189
0.149833
0.149487
0.149149
0.14882
0.148498
0.148182
0.14787
0.147558
0.147244
0.146924
0.146594
0.146251
0.145889
0.145506
0.145098
0.144662
0.144196
0.1437
0.143172
0.142615
0.14203
0.141423
0.1408
0.140168
0.139539
0.138925
0.138339
0.137797
0.137312
0.136898
0.136562
0.136303
0.136111
0.135961
0.135815
0.135626
0.135337
0.134895
0.134259
0.133405
0.132342
0.131104
0.129751
0.12836
0.127014
0.125786
0.124738
0.123908
0.123315
0.122954
0.122815
0.122858
0.123074
0.123393
0.123809
0.124569
0.173877
0.173236
0.172591
0.171944
0.171293
0.170641
0.169986
0.16933
0.168673
0.168015
0.167359
0.166703
0.166049
0.165398
0.164749
0.164105
0.163465
0.16283
0.1622
0.161576
0.160958
0.160347
0.159743
0.159147
0.15856
0.15798
0.15741
0.15685
0.1563
0.15576
0.155231
0.154713
0.154207
0.153712
0.153229
0.152758
0.152299
0.151854
0.151421
0.151001
0.150595
0.150203
0.149823
0.149457
0.149103
0.14876
0.148427
0.148103
0.147785
0.147471
0.147159
0.146844
0.146524
0.146195
0.145852
0.145491
0.145109
0.144701
0.144265
0.143796
0.143293
0.142753
0.142176
0.14156
0.140908
0.140222
0.139504
0.138761
0.137998
0.137223
0.136447
0.135679
0.134931
0.134213
0.133535
0.132903
0.132317
0.131771
0.131251
0.130737
0.130202
0.12962
0.128968
0.128232
0.127412
0.126526
0.125605
0.12469
0.123828
0.123063
0.122431
0.121956
0.12165
0.12151
0.121529
0.121677
0.121955
0.122299
0.122716
0.123427
0.174138
0.17351
0.17288
0.172247
0.171611
0.170972
0.17033
0.169686
0.169041
0.168394
0.167746
0.167097
0.166449
0.165802
0.165156
0.164511
0.163869
0.16323
0.162594
0.161961
0.161333
0.16071
0.160092
0.159479
0.158874
0.158275
0.157683
0.1571
0.156526
0.155961
0.155406
0.154862
0.154329
0.153807
0.153299
0.152803
0.15232
0.151851
0.151397
0.150957
0.150531
0.150119
0.149722
0.149338
0.148966
0.148606
0.148256
0.147913
0.147576
0.147241
0.146907
0.14657
0.146226
0.145871
0.145503
0.145115
0.144706
0.14427
0.143804
0.143306
0.142772
0.1422
0.141589
0.140938
0.140247
0.139516
0.138748
0.137946
0.137115
0.136259
0.135385
0.134502
0.133617
0.13274
0.13188
0.131044
0.130238
0.129464
0.128721
0.128003
0.127302
0.126607
0.125908
0.1252
0.124483
0.123765
0.123064
0.122401
0.121803
0.121293
0.120893
0.120615
0.120466
0.120443
0.120541
0.120735
0.12103
0.121368
0.121765
0.122407
0.174284
0.173668
0.17305
0.172429
0.171805
0.171178
0.170549
0.169918
0.169284
0.168649
0.168012
0.167374
0.166736
0.166098
0.16546
0.164823
0.164187
0.163553
0.162921
0.162291
0.161665
0.161042
0.160422
0.159808
0.159198
0.158594
0.157997
0.157406
0.156823
0.156249
0.155683
0.155127
0.154582
0.154047
0.153524
0.153013
0.152515
0.15203
0.151559
0.151101
0.150657
0.150227
0.14981
0.149406
0.149013
0.148631
0.148257
0.147891
0.147529
0.147169
0.146809
0.146445
0.146075
0.145693
0.145297
0.144884
0.144448
0.143987
0.143497
0.142975
0.142418
0.141823
0.14119
0.140517
0.139803
0.139049
0.138256
0.137427
0.136563
0.135669
0.134751
0.133814
0.132865
0.131912
0.130962
0.130023
0.129104
0.128209
0.127343
0.126508
0.125705
0.124932
0.124189
0.123474
0.122791
0.122144
0.121545
0.121004
0.120536
0.120154
0.11987
0.119688
0.119614
0.11964
0.119764
0.119964
0.120247
0.120559
0.120922
0.121485
0.174355
0.173747
0.173137
0.172524
0.171909
0.171291
0.170671
0.170049
0.169425
0.168799
0.168172
0.167544
0.166915
0.166286
0.165657
0.165028
0.164399
0.163772
0.163146
0.162523
0.161901
0.161282
0.160666
0.160054
0.159446
0.158843
0.158245
0.157653
0.157068
0.15649
0.155921
0.155359
0.154807
0.154265
0.153733
0.153213
0.152704
0.152207
0.151723
0.151251
0.150791
0.150345
0.14991
0.149487
0.149074
0.148671
0.148276
0.147886
0.147501
0.147118
0.146733
0.146345
0.14595
0.145544
0.145125
0.144688
0.14423
0.143748
0.143239
0.142699
0.142125
0.141515
0.140868
0.140182
0.139457
0.138692
0.137888
0.137047
0.136171
0.135264
0.134329
0.133372
0.132398
0.131413
0.130425
0.129442
0.12847
0.127518
0.126591
0.125696
0.124837
0.124017
0.123242
0.122513
0.121834
0.121212
0.120651
0.120161
0.119748
0.119419
0.119181
0.119035
0.118982
0.119016
0.119134
0.119315
0.119568
0.11984
0.120161
0.120641
0.174385
0.173781
0.173175
0.172567
0.171957
0.171344
0.17073
0.170114
0.169496
0.168876
0.168256
0.167634
0.167012
0.166389
0.165766
0.165143
0.164521
0.163899
0.163279
0.16266
0.162043
0.161428
0.160816
0.160207
0.159602
0.159
0.158404
0.157812
0.157227
0.156648
0.156076
0.155512
0.154956
0.154409
0.153871
0.153343
0.152826
0.15232
0.151825
0.151341
0.150869
0.150408
0.149959
0.149519
0.149089
0.148668
0.148253
0.147844
0.147439
0.147035
0.146629
0.14622
0.145804
0.145379
0.14494
0.144484
0.144009
0.143511
0.142986
0.142433
0.141847
0.141228
0.140572
0.13988
0.139149
0.13838
0.137574
0.136731
0.135854
0.134945
0.134009
0.133048
0.132069
0.131078
0.13008
0.129082
0.128093
0.127118
0.126167
0.125245
0.124359
0.123516
0.122721
0.12198
0.121296
0.120676
0.120124
0.119647
0.119248
0.118932
0.1187
0.118554
0.118493
0.118509
0.118601
0.118748
0.11896
0.119186
0.119461
0.119856
0.174394
0.173792
0.173187
0.172581
0.171973
0.171363
0.170752
0.170139
0.169524
0.168908
0.168291
0.167672
0.167054
0.166434
0.165815
0.165196
0.164577
0.163959
0.163341
0.162726
0.162111
0.161499
0.160889
0.160282
0.159678
0.159078
0.158482
0.157891
0.157305
0.156725
0.156151
0.155584
0.155025
0.154473
0.153931
0.153397
0.152873
0.152359
0.151855
0.151362
0.150879
0.150406
0.149943
0.14949
0.149045
0.148608
0.148178
0.147752
0.14733
0.146908
0.146486
0.146059
0.145627
0.145184
0.14473
0.144259
0.14377
0.143259
0.142724
0.14216
0.141567
0.140941
0.140281
0.139585
0.138853
0.138085
0.13728
0.136441
0.135568
0.134665
0.133734
0.13278
0.131807
0.13082
0.129825
0.12883
0.12784
0.126863
0.125906
0.124977
0.124083
0.12323
0.122426
0.121676
0.120985
0.120359
0.119803
0.11932
0.118915
0.118589
0.118344
0.118178
0.118091
0.118076
0.11813
0.118236
0.118401
0.118577
0.118806
0.119116
0.174394
0.173792
0.173188
0.172582
0.171975
0.171366
0.170755
0.170143
0.169529
0.168914
0.168298
0.167682
0.167064
0.166446
0.165828
0.16521
0.164592
0.163975
0.163359
0.162744
0.162131
0.161519
0.16091
0.160303
0.159699
0.159098
0.158501
0.157909
0.157322
0.156739
0.156163
0.155593
0.15503
0.154474
0.153927
0.153388
0.152857
0.152336
0.151824
0.151322
0.150829
0.150346
0.149872
0.149407
0.14895
0.1485
0.148055
0.147616
0.147179
0.146743
0.146306
0.145865
0.145419
0.144963
0.144495
0.144013
0.143513
0.142993
0.142449
0.141878
0.141279
0.14065
0.139987
0.139291
0.138561
0.137795
0.136995
0.136162
0.135296
0.134402
0.13348
0.132536
0.131574
0.130598
0.129613
0.128627
0.127645
0.126675
0.125723
0.124797
0.123904
0.12305
0.122243
0.121488
0.120791
0.120157
0.11959
0.119094
0.118673
0.118326
0.118056
0.117861
0.11774
0.117685
0.117697
0.117756
0.117874
0.117999
0.11818
0.118412
0.17439
0.173788
0.173184
0.172578
0.17197
0.171361
0.17075
0.170138
0.169524
0.168909
0.168293
0.167676
0.167058
0.16644
0.165822
0.165204
0.164585
0.163968
0.163351
0.162735
0.162121
0.161508
0.160898
0.160289
0.159684
0.159081
0.158483
0.157888
0.157298
0.156712
0.156133
0.155559
0.154992
0.154431
0.153878
0.153333
0.152796
0.152268
0.151749
0.151238
0.150737
0.150244
0.14976
0.149284
0.148816
0.148354
0.147898
0.147447
0.146997
0.146549
0.1461
0.145647
0.145189
0.144722
0.144244
0.143752
0.143243
0.142715
0.142165
0.141589
0.140986
0.140355
0.139692
0.138997
0.138269
0.137508
0.136714
0.135888
0.135031
0.134147
0.133236
0.132305
0.131355
0.130392
0.129421
0.128447
0.127478
0.126518
0.125576
0.124658
0.12377
0.122919
0.122112
0.121354
0.120652
0.120009
0.119429
0.118917
0.118475
0.118103
0.117803
0.117574
0.117413
0.117316
0.117283
0.117294
0.117363
0.117439
0.117575
0.117733
0.174386
0.173783
0.173178
0.172572
0.171964
0.171354
0.170742
0.170129
0.169514
0.168899
0.168282
0.167664
0.167045
0.166426
0.165807
0.165187
0.164567
0.163948
0.16333
0.162712
0.162096
0.161481
0.160868
0.160257
0.159649
0.159044
0.158442
0.157844
0.15725
0.156661
0.156077
0.155499
0.154927
0.154361
0.153802
0.153251
0.152708
0.152173
0.151646
0.151127
0.150617
0.150116
0.149623
0.149137
0.148659
0.148187
0.14772
0.147257
0.146797
0.146338
0.145878
0.145415
0.144946
0.14447
0.143983
0.143483
0.142967
0.142432
0.141876
0.141297
0.140692
0.140059
0.139397
0.138703
0.137979
0.137223
0.136435
0.135617
0.13477
0.133896
0.132998
0.132079
0.131143
0.130193
0.129236
0.128277
0.127321
0.126374
0.125443
0.124534
0.123653
0.122807
0.122002
0.121243
0.120535
0.119882
0.11929
0.118759
0.118294
0.117894
0.117562
0.117295
0.117094
0.116953
0.116873
0.116838
0.116859
0.116887
0.116982
0.117071
0.174381
0.173778
0.173172
0.172565
0.171956
0.171345
0.170733
0.170119
0.169504
0.168887
0.168269
0.16765
0.16703
0.166409
0.165788
0.165166
0.164545
0.163924
0.163303
0.162683
0.162064
0.161447
0.160831
0.160217
0.159606
0.158997
0.158391
0.157789
0.157191
0.156598
0.156009
0.155426
0.154848
0.154277
0.153712
0.153155
0.152605
0.152062
0.151528
0.151002
0.150484
0.149974
0.149471
0.148977
0.148489
0.148007
0.147531
0.147058
0.146588
0.146119
0.145649
0.145176
0.144699
0.144213
0.143719
0.143211
0.142689
0.142149
0.141589
0.141007
0.1404
0.139766
0.139105
0.138414
0.137693
0.136943
0.136162
0.135352
0.134514
0.133651
0.132764
0.131858
0.130935
0.129999
0.129057
0.128111
0.127168
0.126234
0.125314
0.124415
0.123542
0.1227
0.121897
0.121136
0.120422
0.119759
0.119152
0.118602
0.118111
0.117683
0.117316
0.117011
0.116769
0.116584
0.116458
0.116377
0.116353
0.116337
0.116392
0.116421
0.174376
0.173772
0.173166
0.172559
0.171949
0.171337
0.170724
0.170109
0.169492
0.168874
0.168255
0.167635
0.167013
0.166391
0.165768
0.165145
0.164522
0.163898
0.163275
0.162652
0.162031
0.16141
0.160791
0.160174
0.159559
0.158946
0.158337
0.15773
0.157128
0.15653
0.155936
0.155347
0.154764
0.154187
0.153617
0.153053
0.152496
0.151946
0.151405
0.150871
0.150345
0.149826
0.149316
0.148812
0.148315
0.147824
0.147338
0.146856
0.146377
0.145899
0.14542
0.144938
0.144452
0.143959
0.143457
0.142943
0.142415
0.14187
0.141306
0.140721
0.140113
0.139479
0.138819
0.138131
0.137414
0.136668
0.135894
0.135092
0.134264
0.133411
0.132535
0.131641
0.13073
0.129808
0.128878
0.127946
0.127016
0.126093
0.125184
0.124293
0.123427
0.122589
0.121786
0.121022
0.120301
0.119627
0.119003