/*--------------------------------*- C++ -*----------------------------------*\
  =========                 |
  \\      /  F ield         | OpenFOAM: The Open Source CFD Toolbox
   \\    /   O peration     | Website:  https://openfoam.org
    \\  /    A nd           | Version:  10
     \\/     M anipulation  |
\*---------------------------------------------------------------------------*/
FoamFile
{
    format      ascii;
    class       volScalarField;
    location    "0.165";
    object      nut;
}
// * * * * * * * * * * * * * * * * * * * * * * * * * * * * * * * * * * * * * //

dimensions      [0 2 -1 0 0 0 0];

internalField   nonuniform List<scalar> 
6820
(
0.000149484
0.000144853
0.000140581
0.000136577
0.000132833
0.000129377
0.000126234
0.000123417
0.000120923
0.000118737
0.000116839
0.000115206
0.000113812
0.000112634
0.000111648
0.000110834
0.000110172
0.000109646
0.000109239
0.000108938
0.00010873
0.000108605
0.000108551
0.00010856
0.000108625
0.000108739
0.000108893
0.000109098
0.000109265
0.000109794
0.000108792
0.000115098
8.73018e-05
0.000729198
0.00053239
0.000448009
0.000399703
0.000368375
0.000346725
0.000331081
0.000319351
0.000310264
0.000303015
0.000297084
0.000292124
0.000287899
0.000284246
0.000281045
0.000278212
0.00027568
0.000273401
0.000271335
0.000269451
0.000267726
0.000266137
0.00026467
0.00026331
0.000262046
0.000260868
0.000259769
0.000258742
0.000257787
0.000256907
0.000256115
0.000255314
0.000256806
0.000976776
0.000872181
0.000781621
0.000711261
0.000657314
0.000615271
0.000581697
0.000554234
0.000531294
0.000511794
0.000494975
0.000480289
0.000467331
0.000455797
0.000445452
0.000436112
0.000427631
0.000419892
0.000412799
0.000406273
0.000400247
0.000394667
0.000389484
0.000384657
0.000380149
0.00037593
0.000371967
0.000368235
0.000364694
0.000361335
0.000358044
0.000354819
0.000351183
0.00101349
0.00098823
0.000949374
0.000906192
0.000864422
0.000826378
0.000792544
0.000762653
0.000736213
0.000712713
0.000691699
0.000672786
0.00065566
0.000640061
0.000625778
0.000612637
0.000600494
0.000589229
0.000578743
0.000568951
0.000559783
0.000551175
0.000543076
0.000535439
0.000528222
0.00052139
0.000514908
0.000508747
0.00050287
0.000497259
0.000491846
0.000486659
0.00048145
0.00101671
0.00101241
0.00100191
0.00098566
0.000965602
0.000943709
0.000921417
0.000899604
0.000878736
0.000859025
0.000840529
0.000823224
0.00080705
0.000791924
0.000777762
0.000764481
0.000752001
0.000740253
0.00072917
0.000718695
0.000708776
0.000699366
0.000690424
0.000681913
0.000673798
0.000666049
0.000658636
0.000651533
0.000644711
0.00063815
0.000631807
0.000625675
0.000619689
0.00101676
0.00101592
0.0010136
0.00100903
0.00100204
0.000992918
0.000982189
0.000970393
0.000957999
0.000945366
0.000932751
0.000920329
0.000908214
0.000896473
0.000885145
0.000874245
0.000863776
0.00085373
0.000844096
0.000834856
0.000825992
0.000817486
0.000809318
0.000801469
0.000793921
0.000786655
0.000779654
0.000772901
0.000766376
0.000760064
0.000753943
0.000748002
0.000742222
0.00101671
0.00101623
0.00101553
0.00101428
0.00101219
0.0010091
0.00100497
0.00099989
0.000994017
0.000987516
0.000980552
0.000973273
0.0009658
0.000958234
0.000950652
0.000943114
0.000935665
0.000928338
0.000921155
0.000914132
0.00090728
0.000900604
0.000894106
0.000887786
0.000881641
0.000875669
0.000869863
0.000864217
0.000858725
0.00085338
0.000848173
0.000843097
0.00083815
0.0010167
0.00101622
0.00101574
0.00101518
0.00101442
0.00101335
0.00101188
0.00100995
0.00100755
0.0010047
0.00100144
0.000997822
0.000993903
0.000989743
0.000985395
0.000980908
0.000976324
0.00097168
0.000967006
0.000962327
0.000957665
0.000953035
0.000948451
0.000943924
0.000939462
0.000935069
0.00093075
0.000926508
0.000922344
0.000918259
0.000914252
0.000910324
0.000906478
0.0010167
0.00101621
0.00101575
0.00101528
0.0010148
0.00101425
0.00101359
0.00101279
0.00101179
0.00101059
0.00100917
0.00100753
0.00100569
0.00100364
0.00100143
0.000999057
0.000996553
0.000993938
0.000991232
0.000988454
0.00098562
0.000982745
0.000979843
0.000976925
0.000974001
0.000971081
0.00096817
0.000965276
0.000962403
0.000959556
0.000956739
0.000953956
0.000951211
0.0010167
0.00101621
0.00101574
0.00101529
0.00101484
0.00101439
0.00101393
0.00101344
0.0010129
0.00101229
0.0010116
0.00101082
0.00100993
0.00100895
0.00100786
0.00100667
0.00100539
0.00100402
0.00100258
0.00100105
0.000999471
0.000997832
0.000996146
0.000994422
0.000992665
0.000990882
0.000989081
0.000987265
0.000985441
0.000983614
0.000981787
0.000979965
0.000978153
0.0010167
0.00101621
0.00101574
0.00101528
0.00101484
0.00101441
0.00101398
0.00101356
0.00101313
0.0010127
0.00101224
0.00101176
0.00101125
0.0010107
0.0010101
0.00100946
0.00100878
0.00100805
0.00100727
0.00100645
0.00100558
0.00100468
0.00100373
0.00100276
0.00100175
0.00100072
0.000999667
0.000998592
0.000997501
0.000996396
0.000995282
0.000994161
0.000993037
0.0010167
0.00101621
0.00101574
0.00101528
0.00101484
0.0010144
0.00101398
0.00101357
0.00101317
0.00101277
0.00101238
0.00101199
0.00101159
0.00101119
0.00101078
0.00101035
0.00100991
0.00100945
0.00100898
0.00100849
0.00100797
0.00100744
0.00100689
0.00100632
0.00100573
0.00100512
0.0010045
0.00100387
0.00100322
0.00100256
0.0010019
0.00100123
0.00100055
0.0010167
0.00101621
0.00101574
0.00101528
0.00101483
0.0010144
0.00101398
0.00101357
0.00101317
0.00101278
0.0010124
0.00101203
0.00101167
0.00101131
0.00101095
0.00101059
0.00101024
0.00100988
0.00100952
0.00100916
0.0010088
0.00100843
0.00100805
0.00100767
0.00100728
0.00100689
0.00100649
0.00100608
0.00100567
0.00100526
0.00100484
0.00100442
0.00100399
0.0010167
0.00101621
0.00101574
0.00101528
0.00101483
0.0010144
0.00101398
0.00101357
0.00101317
0.00101278
0.0010124
0.00101204
0.00101168
0.00101133
0.00101098
0.00101065
0.00101032
0.00100999
0.00100967
0.00100936
0.00100905
0.00100874
0.00100843
0.00100813
0.00100782
0.00100752
0.00100722
0.00100692
0.00100662
0.00100632
0.00100602
0.00100572
0.00100542
0.0010167
0.00101621
0.00101574
0.00101528
0.00101483
0.0010144
0.00101398
0.00101357
0.00101317
0.00101278
0.0010124
0.00101203
0.00101167
0.00101133
0.00101099
0.00101065
0.00101033
0.00101002
0.00100971
0.00100941
0.00100911
0.00100882
0.00100854
0.00100826
0.00100799
0.00100772
0.00100745
0.00100719
0.00100694
0.00100669
0.00100644
0.00100619
0.00100595
0.0010167
0.00101621
0.00101574
0.00101528
0.00101483
0.0010144
0.00101397
0.00101356
0.00101316
0.00101278
0.0010124
0.00101203
0.00101167
0.00101132
0.00101098
0.00101065
0.00101033
0.00101002
0.00100971
0.00100941
0.00100912
0.00100884
0.00100856
0.00100829
0.00100803
0.00100777
0.00100752
0.00100727
0.00100703
0.0010068
0.00100657
0.00100635
0.00100613
0.0010167
0.00101621
0.00101574
0.00101528
0.00101483
0.0010144
0.00101397
0.00101356
0.00101316
0.00101277
0.0010124
0.00101203
0.00101167
0.00101132
0.00101098
0.00101065
0.00101033
0.00101001
0.00100971
0.00100941
0.00100912
0.00100884
0.00100856
0.0010083
0.00100803
0.00100778
0.00100753
0.00100729
0.00100706
0.00100683
0.0010066
0.00100639
0.00100618
0.0010167
0.00101621
0.00101574
0.00101528
0.00101483
0.0010144
0.00101397
0.00101356
0.00101316
0.00101277
0.00101239
0.00101203
0.00101167
0.00101132
0.00101098
0.00101065
0.00101032
0.00101001
0.00100971
0.00100941
0.00100912
0.00100884
0.00100856
0.00100829
0.00100803
0.00100778
0.00100753
0.00100729
0.00100706
0.00100683
0.00100661
0.00100639
0.00100618
0.0010167
0.00101621
0.00101574
0.00101528
0.00101483
0.00101439
0.00101397
0.00101356
0.00101316
0.00101277
0.00101239
0.00101202
0.00101166
0.00101132
0.00101098
0.00101064
0.00101032
0.00101001
0.0010097
0.0010094
0.00100911
0.00100883
0.00100856
0.00100829
0.00100803
0.00100777
0.00100753
0.00100729
0.00100705
0.00100682
0.0010066
0.00100639
0.00100618
0.0010167
0.00101621
0.00101574
0.00101528
0.00101483
0.00101439
0.00101397
0.00101356
0.00101316
0.00101277
0.00101239
0.00101202
0.00101166
0.00101131
0.00101097
0.00101064
0.00101032
0.00101001
0.0010097
0.0010094
0.00100911
0.00100883
0.00100855
0.00100828
0.00100802
0.00100777
0.00100752
0.00100728
0.00100705
0.00100682
0.0010066
0.00100638
0.00100617
0.0010167
0.00101621
0.00101574
0.00101528
0.00101483
0.00101439
0.00101397
0.00101356
0.00101316
0.00101277
0.00101239
0.00101202
0.00101166
0.00101131
0.00101097
0.00101064
0.00101032
0.00101
0.0010097
0.0010094
0.00100911
0.00100883
0.00100855
0.00100828
0.00100802
0.00100777
0.00100752
0.00100728
0.00100704
0.00100681
0.00100659
0.00100637
0.00100616
0.0010167
0.00101621
0.00101574
0.00101528
0.00101483
0.00101439
0.00101397
0.00101356
0.00101316
0.00101277
0.00101239
0.00101202
0.00101166
0.00101131
0.00101097
0.00101064
0.00101032
0.00101
0.00100969
0.0010094
0.00100911
0.00100882
0.00100855
0.00100828
0.00100802
0.00100776
0.00100751
0.00100727
0.00100704
0.00100681
0.00100658
0.00100637
0.00100615
0.0010167
0.00101621
0.00101574
0.00101528
0.00101483
0.00101439
0.00101397
0.00101356
0.00101316
0.00101277
0.00101239
0.00101202
0.00101166
0.00101131
0.00101097
0.00101064
0.00101031
0.00101
0.00100969
0.00100939
0.0010091
0.00100882
0.00100854
0.00100827
0.00100801
0.00100776
0.00100751
0.00100727
0.00100703
0.0010068
0.00100658
0.00100636
0.00100615
0.0010167
0.00101621
0.00101574
0.00101528
0.00101483
0.00101439
0.00101397
0.00101356
0.00101316
0.00101277
0.00101239
0.00101202
0.00101166
0.00101131
0.00101097
0.00101064
0.00101031
0.00101
0.00100969
0.00100939
0.0010091
0.00100882
0.00100854
0.00100827
0.00100801
0.00100775
0.0010075
0.00100726
0.00100703
0.00100679
0.00100657
0.00100635
0.00100614
0.0010167
0.00101621
0.00101574
0.00101528
0.00101483
0.00101439
0.00101397
0.00101356
0.00101316
0.00101277
0.00101239
0.00101202
0.00101166
0.00101131
0.00101097
0.00101063
0.00101031
0.00101
0.00100969
0.00100939
0.0010091
0.00100881
0.00100854
0.00100827
0.00100801
0.00100775
0.0010075
0.00100726
0.00100702
0.00100679
0.00100656
0.00100635
0.00100613
0.0010167
0.00101621
0.00101574
0.00101528
0.00101483
0.00101439
0.00101397
0.00101356
0.00101316
0.00101277
0.00101239
0.00101202
0.00101166
0.00101131
0.00101097
0.00101063
0.00101031
0.00100999
0.00100969
0.00100939
0.0010091
0.00100881
0.00100854
0.00100827
0.001008
0.00100775
0.0010075
0.00100725
0.00100702
0.00100678
0.00100656
0.00100634
0.00100613
0.0010167
0.00101621
0.00101574
0.00101528
0.00101483
0.00101439
0.00101397
0.00101356
0.00101316
0.00101277
0.00101239
0.00101202
0.00101166
0.00101131
0.00101096
0.00101063
0.00101031
0.00100999
0.00100969
0.00100939
0.00100909
0.00100881
0.00100853
0.00100826
0.001008
0.00100774
0.00100749
0.00100725
0.00100701
0.00100678
0.00100655
0.00100633
0.00100612
0.0010167
0.00101621
0.00101574
0.00101528
0.00101483
0.00101439
0.00101397
0.00101356
0.00101316
0.00101277
0.00101239
0.00101202
0.00101166
0.00101131
0.00101096
0.00101063
0.00101031
0.00100999
0.00100968
0.00100939
0.00100909
0.00100881
0.00100853
0.00100826
0.001008
0.00100774
0.00100749
0.00100725
0.00100701
0.00100678
0.00100655
0.00100633
0.00100611
0.0010167
0.00101621
0.00101574
0.00101528
0.00101483
0.00101439
0.00101397
0.00101356
0.00101316
0.00101277
0.00101239
0.00101202
0.00101166
0.00101131
0.00101096
0.00101063
0.00101031
0.00100999
0.00100968
0.00100938
0.00100909
0.00100881
0.00100853
0.00100826
0.001008
0.00100774
0.00100749
0.00100724
0.00100701
0.00100677
0.00100655
0.00100632
0.00100611
0.0010167
0.00101621
0.00101574
0.00101528
0.00101483
0.00101439
0.00101397
0.00101356
0.00101316
0.00101277
0.00101239
0.00101202
0.00101166
0.00101131
0.00101097
0.00101063
0.00101031
0.00100999
0.00100969
0.00100939
0.00100909
0.00100881
0.00100853
0.00100826
0.001008
0.00100774
0.00100749
0.00100724
0.001007
0.00100677
0.00100654
0.00100632
0.00100611
0.0010167
0.00101621
0.00101574
0.00101528
0.00101483
0.00101439
0.00101397
0.00101356
0.00101316
0.00101277
0.00101239
0.00101202
0.00101166
0.00101131
0.00101097
0.00101063
0.00101031
0.00100999
0.00100969
0.00100939
0.00100909
0.00100881
0.00100853
0.00100826
0.001008
0.00100774
0.00100749
0.00100724
0.001007
0.00100677
0.00100654
0.00100631
0.0010061
0.0010167
0.00101621
0.00101574
0.00101528
0.00101483
0.0010144
0.00101397
0.00101356
0.00101316
0.00101277
0.00101239
0.00101202
0.00101167
0.00101131
0.00101097
0.00101064
0.00101032
0.00101
0.00100969
0.00100939
0.00100909
0.00100881
0.00100853
0.00100825
0.00100798
0.00100772
0.00100747
0.00100722
0.00100697
0.00100673
0.0010065
0.00100626
0.00100604
0.0010167
0.00101621
0.00101574
0.00101528
0.00101483
0.0010144
0.00101398
0.00101357
0.00101317
0.00101278
0.0010124
0.00101203
0.00101167
0.00101132
0.00101097
0.00101064
0.00101031
0.00100998
0.00100967
0.00100936
0.00100905
0.00100875
0.00100846
0.00100817
0.00100788
0.0010076
0.00100732
0.00100705
0.00100678
0.00100651
0.00100624
0.00100598
0.00100572
0.0010167
0.00101621
0.00101574
0.00101529
0.00101484
0.00101441
0.00101399
0.00101358
0.00101318
0.00101279
0.0010124
0.00101202
0.00101164
0.00101127
0.0010109
0.00101053
0.00101016
0.00100979
0.00100942
0.00100906
0.00100869
0.00100832
0.00100794
0.00100757
0.00100719
0.00100681
0.00100643
0.00100605
0.00100566
0.00100527
0.00100488
0.00100448
0.00100409
0.0010167
0.00101622
0.00101575
0.0010153
0.00101485
0.00101441
0.00101397
0.00101352
0.00101307
0.00101262
0.00101214
0.00101166
0.00101115
0.00101063
0.00101008
0.00100951
0.00100891
0.0010083
0.00100765
0.00100699
0.0010063
0.00100559
0.00100486
0.00100411
0.00100334
0.00100255
0.00100175
0.00100094
0.00100011
0.000999266
0.000998415
0.000997555
0.000996689
0.00101671
0.00101622
0.00101574
0.00101524
0.00101469
0.00101407
0.00101337
0.00101257
0.00101167
0.00101066
0.00100954
0.00100831
0.00100697
0.00100553
0.00100399
0.00100236
0.00100065
0.000998853
0.000996991
0.000995067
0.000993089
0.000991065
0.000989
0.000986903
0.000984778
0.000982633
0.000980473
0.000978302
0.000976126
0.000973948
0.000971772
0.000969603
0.000967444
0.00101671
0.001016
0.00101488
0.00101325
0.00101112
0.00100847
0.00100532
0.00100169
0.000997623
0.000993172
0.000988388
0.000983326
0.000978036
0.000972567
0.000966961
0.000961259
0.000955494
0.000949696
0.000943893
0.000938106
0.000932354
0.000926653
0.000921018
0.000915458
0.000909984
0.000904602
0.000899319
0.000894139
0.000889065
0.0008841
0.000879246
0.000874503
0.000869873
0.0010153
0.00100706
0.000995505
0.000981401
0.000965371
0.000948027
0.000929926
0.000911517
0.000893135
0.000875017
0.000857329
0.00084018
0.000823637
0.000807736
0.000792492
0.000777904
0.00076396
0.000750643
0.000737931
0.000725798
0.000714218
0.000703165
0.000692611
0.000682532
0.000672901
0.000663696
0.000654892
0.00064647
0.000638407
0.000630684
0.000623284
0.000616189
0.000609381
0.000935928
0.000815558
0.000728196
0.000659301
0.000602456
0.000555242
0.00051576
0.000482426
0.000453988
0.000429484
0.00040817
0.000389477
0.000372958
0.000358264
0.000345116
0.00033329
0.000322605
0.000312909
0.000304079
0.000296011
0.000288615
0.000281818
0.000275555
0.00026977
0.000264416
0.000259451
0.000254837
0.000250542
0.000246539
0.0002428
0.000239304
0.000236032
0.000232962
0.000125477
0.000128847
0.000132096
0.000135204
0.000138173
0.000141007
0.000143711
0.000146289
0.000148745
0.000151085
0.000153311
0.000155429
0.000157442
0.000159355
0.000161173
0.000162898
0.000164535
0.000166089
0.000167562
0.000168959
0.000170283
0.000171538
0.000172726
0.000173852
0.000174918
0.000175927
0.000176883
0.000177787
0.000178643
0.000179453
0.00018022
0.000180944
0.000181631
0.000109278
0.000154768
0.000199103
0.00024038
0.000278376
0.000312578
0.000342893
0.000369885
0.000394534
0.000417864
0.000440656
0.000463358
0.000486124
0.000508935
0.000531719
0.000554439
0.000577126
0.000599878
0.000622828
0.000646115
0.000669854
0.000694125
0.000718965
0.000744372
0.000770316
0.00079673
0.00082352
0.00085056
0.000877693
0.000904734
0.00093147
0.000957666
0.000983068
0.00100741
0.00103041
0.00105179
0.00107127
0.00108857
0.00110344
0.00111566
0.00112502
0.00113137
0.00113462
0.00113471
0.00113168
0.00112561
0.0011167
0.0011052
0.00109147
0.00107596
0.0010592
0.00104179
0.0010244
0.00100771
0.000992416
0.000979168
0.000968549
0.000961041
0.000957006
0.000956676
0.000960163
0.000967479
0.000978569
0.000993339
0.00101168
0.0010335
0.00105868
0.00108708
0.00111853
0.00115272
0.00118922
0.00122742
0.0012665
0.00130546
0.00134313
0.0013782
0.00140932
0.00143512
0.00145433
0.00146583
0.00146875
0.0014625
0.0014469
0.00142225
0.00138939
0.00134984
0.00130578
0.00126016
0.00121646
0.00117846
0.00114952
0.00113175
0.00112534
0.00112839
0.00113775
0.00115014
0.00116346
0.00117669
0.00118857
0.00120925
0.000245516
0.000213753
0.00018557
0.000172175
0.000172305
0.000182486
0.00019987
0.000222182
0.000247566
0.000274499
0.000301795
0.000328634
0.000354564
0.000379449
0.00040337
0.000426527
0.000449149
0.000471438
0.00049354
0.000515548
0.000537512
0.000559461
0.000581413
0.000603385
0.000625386
0.000647413
0.000669444
0.000691424
0.000713269
0.000734858
0.000756043
0.000776649
0.000796481
0.000815327
0.000832963
0.00084916
0.000863687
0.000876322
0.00088686
0.000895122
0.000900968
0.000904303
0.000905091
0.00090336
0.000899212
0.000892829
0.000884477
0.00087451
0.000863369
0.000851569
0.000839694
0.000828364
0.000818208
0.000809822
0.000803733
0.000800353
0.000799958
0.000802669
0.00080846
0.000817179
0.000828593
0.000842435
0.000858449
0.000876437
0.00089628
0.000917949
0.000941487
0.000966988
0.000994545
0.00102419
0.00105584
0.00108924
0.00112389
0.00115907
0.00119382
0.00122699
0.00125732
0.0012835
0.00130427
0.00131851
0.00132536
0.00132426
0.00131508
0.00129821
0.0012746
0.00124587
0.00121428
0.00118264
0.00115411
0.00113163
0.00111734
0.00111188
0.00111424
0.00112209
0.0011329
0.00114458
0.00115626
0.00116777
0.00117826
0.00119743
0.000348735
0.000344575
0.000330045
0.000302219
0.000267944
0.000236589
0.000212968
0.000198352
0.000191689
0.000191664
0.000197199
0.000207382
0.000221361
0.000238311
0.000257436
0.000277999
0.000299356
0.000320995
0.000342549
0.000363795
0.00038463
0.000405036
0.000425043
0.000444694
0.000464028
0.000483065
0.0005018
0.000520204
0.000538221
0.000555774
0.000572768
0.000589091
0.00060462
0.000619218
0.000632742
0.000645046
0.000655981
0.000665413
0.000673226
0.000679334
0.000683695
0.000686319
0.000687278
0.000686716
0.000684852
0.000681982
0.000678477
0.000674778
0.000671375
0.000668793
0.000667553
0.000668137
0.000670942
0.000676244
0.000684161
0.000694646
0.000707492
0.000722368
0.000738856
0.000756514
0.000774919
0.000793714
0.00081264
0.000831551
0.000850423
0.000869352
0.000888538
0.000908261
0.000928851
0.000950634
0.000973871
0.000998689
0.00102501
0.0010525
0.00108056
0.00110831
0.00113469
0.00115851
0.00117859
0.00119383
0.00120336
0.00120665
0.00120357
0.00119451
0.00118046
0.00116294
0.00114403
0.00112613
0.00111162
0.00110235
0.00109919
0.00110172
0.00110852
0.00111771
0.00112776
0.00113777
0.00114765
0.00115769
0.00116711
0.00118516
0.000475732
0.00047025
0.000464494
0.00045565
0.000440758
0.000418627
0.000390488
0.000359441
0.000328613
0.000300774
0.00027741
0.00025885
0.000245038
0.00023575
0.000230678
0.000229463
0.00023171
0.000236994
0.000244869
0.000254881
0.000266585
0.000279564
0.000293443
0.0003079
0.000322671
0.000337551
0.00035238
0.000367039
0.000381432
0.000395478
0.000409107
0.000422248
0.000434835
0.000446802
0.000458086
0.000468632
0.000478395
0.00048735
0.000495499
0.00050288
0.000509577
0.000515726
0.000521519
0.000527204
0.000533082
0.000539494
0.000546802
0.000555368
0.000565524
0.000577535
0.000591567
0.000607662
0.000625723
0.000645514
0.000666688
0.000688813
0.000711424
0.000734061
0.000756306
0.000777807
0.0007983
0.000817605
0.000835635
0.00085239
0.000867949
0.000882464
0.000896162
0.000909332
0.000922323
0.000935525
0.000949338
0.000964125
0.000980143
0.000997473
0.00101596
0.00103517
0.00105443
0.00107286
0.00108945
0.00110326
0.00111345
0.00111949
0.00112122
0.00111895
0.00111346
0.00110602
0.00109821
0.0010917
0.0010879
0.00108764
0.0010909
0.00109694
0.00110462
0.00111292
0.00112125
0.00112947
0.00113788
0.00114687
0.0011556
0.00117287
0.000612813
0.000605262
0.000598083
0.000590956
0.000583047
0.000573212
0.000560355
0.000543832
0.000523557
0.000500199
0.000475194
0.000449702
0.000424694
0.000400949
0.000379057
0.000359438
0.000342367
0.000327994
0.000316369
0.000307453
0.000301144
0.000297285
0.000295683
0.00029612
0.000298365
0.000302184
0.00030735
0.000313647
0.00032088
0.000328875
0.000337486
0.000346591
0.000356097
0.000365938
0.000376072
0.000386486
0.00039719
0.000408223
0.000419652
0.000431574
0.00044411
0.000457409
0.000471632
0.000486944
0.000503497
0.000521412
0.000540761
0.00056155
0.000583706
0.000607075
0.000631426
0.000656462
0.000681842
0.000707201
0.00073218
0.000756444
0.000779706
0.000801735
0.000822362
0.000841481
0.00085904
0.000875038
0.000889515
0.000902545
0.000914232
0.000924703
0.000934111
0.000942633
0.000950478
0.000957892
0.000965158
0.000972587
0.000980491
0.000989141
0.000998705
0.00100919
0.00102038
0.00103187
0.00104307
0.00105332
0.00106199
0.0010686
0.00107295
0.00107516
0.00107572
0.00107541
0.00107515
0.00107583
0.00107803
0.00108193
0.00108725
0.00109344
0.00109997
0.00110653
0.00111315
0.00111999
0.00112745
0.00113583
0.00114418
0.00116092
0.000735632
0.000728218
0.000720931
0.000713796
0.000706721
0.000699467
0.000691644
0.000682793
0.000672433
0.000660272
0.000646276
0.000630586
0.000613483
0.000595338
0.000576567
0.000557592
0.000538818
0.000520618
0.000503318
0.000487192
0.000472463
0.000459298
0.000447818
0.000438099
0.00043018
0.000424068
0.000419743
0.000417163
0.000416273
0.00041701
0.000419307
0.000423101
0.000428332
0.000434953
0.000442924
0.000452217
0.000462816
0.000474713
0.000487908
0.000502402
0.000518192
0.000535266
0.00055359
0.000573108
0.000593728
0.000615326
0.000637737
0.000660763
0.000684177
0.000707731
0.00073117
0.000754242
0.000776707
0.000798353
0.000818999
0.000838502
0.000856758
0.000873706
0.000889319
0.000903602
0.000916587
0.00092833
0.000938898
0.000948373
0.000956843
0.000964402
0.000971144
0.000977166
0.000982569
0.00098746
0.000991961
0.000996212
0.00100038
0.00100465
0.0010092
0.00101419
0.0010197
0.00102567
0.00103196
0.00103827
0.0010443
0.00104973
0.0010544
0.00105827
0.00106152
0.00106446
0.00106747
0.00107085
0.00107473
0.00107909
0.00108375
0.00108854
0.0010934
0.00109843
0.00110387
0.00110993
0.00111693
0.00112505
0.00113323
0.00114958
0.00083252
0.000826152
0.000819805
0.000813506
0.000807265
0.000801062
0.00079483
0.000788448
0.000781742
0.000774537
0.000766668
0.000758015
0.000748516
0.000738178
0.000727066
0.000715298
0.000703035
0.000690465
0.000677795
0.000665234
0.000652993
0.00064127
0.000630249
0.000620096
0.00061096
0.00060297
0.000596235
0.000590842
0.000586864
0.000584352
0.000583344
0.000583862
0.000585918
0.000589508
0.000594621
0.000601233
0.000609309
0.000618806
0.000629667
0.000641822
0.000655188
0.000669663
0.000685129
0.000701447
0.000718463
0.000736007
0.000753901
0.000771956
0.000789986
0.00080781
0.00082526
0.000842181
0.000858441
0.00087393
0.000888564
0.000902282
0.00091505
0.000926855
0.000937704
0.000947619
0.00095664
0.000964815
0.0009722
0.000978861
0.000984866
0.000990285
0.000995191
0.000999653
0.00100374
0.00100751
0.00101102
0.00101433
0.00101749
0.00102056
0.00102361
0.00102672
0.00102996
0.00103338
0.00103701
0.0010408
0.00104467
0.0010485
0.00105221
0.00105572
0.00105905
0.00106225
0.00106538
0.00106852
0.00107167
0.00107485
0.00107807
0.00108142
0.00108507
0.00108922
0.00109414
0.00109995
0.00110684
0.00111491
0.00112304
0.00113904
0.000902084
0.000897086
0.000892058
0.000887016
0.000881973
0.00087694
0.000871916
0.000866888
0.000861823
0.000856677
0.00085139
0.000845896
0.000840136
0.000834063
0.000827648
0.000820888
0.000813806
0.000806447
0.000798882
0.0007912
0.000783504
0.000775908
0.000768533
0.0007615
0.000754931
0.000748943
0.000743646
0.000739143
0.000735526
0.000732872
0.000731251
0.000730714
0.000731302
0.000733039
0.000735934
0.000739981
0.000745159
0.000751431
0.000758747
0.000767041
0.000776233
0.00078623
0.000796927
0.000808206
0.000819943
0.000832008
0.000844268
0.000856592
0.000868855
0.000880939
0.000892736
0.000904152
0.000915109
0.000925541
0.000935399
0.00094465
0.000953273
0.000961261
0.000968619
0.00097536
0.000981508
0.000987092
0.000992151
0.000996727
0.00100087
0.00100462
0.00100806
0.00101122
0.00101418
0.00101698
0.00101969
0.00102235
0.00102499
0.00102764
0.0010303
0.00103299
0.0010357
0.00103845
0.00104123
0.00104403
0.00104683
0.0010496
0.0010523
0.00105488
0.00105732
0.00105961
0.00106176
0.0010638
0.0010658
0.00106784
0.00107007
0.00107267
0.00107585
0.00107979
0.00108468
0.00109056
0.00109755
0.00110565
0.00111375
0.00112939
0.000948054
0.000944433
0.000940758
0.000937035
0.000933274
0.000929484
0.000925674
0.000921848
0.000918011
0.000914163
0.000910296
0.000906397
0.00090245
0.000898438
0.000894343
0.000890153
0.000885863
0.000881477
0.00087701
0.000872487
0.000867946
0.000863434
0.000859007
0.000854729
0.000850667
0.000846894
0.00084348
0.000840499
0.000838017
0.000836099
0.0008348
0.00083417
0.000834248
0.000835062
0.000836632
0.000838963
0.00084205
0.000845873
0.000850404
0.000855602
0.000861414
0.000867779
0.000874627
0.00088188
0.000889456
0.000897271
0.000905237
0.00091327
0.000921289
0.000929218
0.000936988
0.000944537
0.000951814
0.000958772
0.000965378
0.000971605
0.000977435
0.000982855
0.000987864
0.000992462
0.000996658
0.00100047
0.00100391
0.001007
0.00100978
0.00101228
0.00101453
0.0010166
0.00101852
0.00102034
0.00102214
0.00102394
0.00102581
0.00102776
0.00102983
0.00103202
0.00103429
0.00103664
0.00103901
0.00104137
0.00104368
0.00104588
0.00104795
0.00104985
0.00105157
0.00105313
0.00105455
0.00105591
0.00105732
0.00105893
0.00106092
0.00106346
0.00106674
0.00107089
0.00107603
0.00108213
0.00108925
0.00109738
0.00110541
0.00112063
0.00097605
0.000973615
0.000971117
0.00096856
0.000965948
0.000963289
0.000960587
0.000957851
0.000955089
0.000952307
0.000949511
0.000946706
0.000943894
0.000941078
0.000938258
0.000935434
0.000932606
0.000929776
0.00092695
0.000924137
0.000921349
0.000918606
0.00091593
0.00091335
0.000910898
0.00090861
0.000906526
0.000904686
0.00090313
0.000901897
0.000901026
0.00090055
0.000900497
0.000900893
0.000901754
0.000903089
0.000904902
0.000907186
0.000909929
0.000913109
0.000916698
0.000920661
0.000924956
0.000929539
0.000934358
0.000939363
0.000944498
0.000949712
0.000954953
0.00096017
0.00096532
0.000970358
0.000975248
0.000979957
0.000984457
0.000988723
0.000992738
0.000996486
0.000999958
0.00100315
0.00100605
0.00100868
0.00101102
0.0010131
0.00101493
0.00101653
0.00101793
0.00101915
0.00102024
0.00102123
0.00102217
0.00102312
0.00102412
0.00102521
0.00102644
0.00102781
0.00102933
0.00103099
0.00103276
0.00103457
0.00103638
0.00103814
0.00103979
0.00104132
0.00104271
0.001044
0.00104523
0.0010465
0.00104795
0.00104972
0.00105197
0.00105486
0.00105853
0.00106304
0.00106847
0.00107478
0.00108198
0.00109008
0.00109799
0.00111272
0.00099172
0.00099018
0.000988584
0.000986933
0.000985228
0.000983473
0.000981671
0.000979829
0.00097795
0.000976042
0.000974109
0.000972159
0.000970199
0.000968234
0.000966271
0.000964316
0.000962374
0.000960451
0.000958554
0.000956689
0.000954865
0.000953092
0.000951381
0.000949746
0.000948203
0.000946771
0.000945469
0.000944318
0.000943341
0.00094256
0.000941996
0.000941671
0.000941602
0.000941807
0.000942298
0.000943084
0.000944169
0.000945556
0.000947238
0.000949207
0.000951449
0.000953945
0.000956674
0.000959609
0.000962722
0.000965981
0.000969354
0.000972808
0.00097631
0.000979826
0.000983327
0.000986782
0.000990163
0.000993444
0.000996602
0.000999615
0.00100246
0.00100514
0.00100761
0.00100989
0.00101195
0.0010138
0.00101543
0.00101684
0.00101804
0.00101903
0.00101984
0.00102048
0.00102098
0.00102137
0.00102167
0.00102194
0.00102222
0.00102255
0.00102297
0.00102352
0.00102422
0.00102508
0.00102608
0.00102721
0.00102843
0.00102969
0.00103097
0.00103224
0.00103349
0.00103475
0.00103609
0.00103758
0.00103935
0.00104151
0.0010442
0.00104752
0.00105158
0.00105642
0.00106207
0.00106849
0.00107569
0.00108367
0.00109138
0.00110555
0.000999746
0.000998804
0.00099782
0.000996794
0.000995725
0.000994614
0.000993465
0.000992278
0.000991057
0.000989806
0.000988528
0.000987228
0.000985912
0.000984584
0.00098325
0.000981917
0.00098059
0.000979275
0.000977981
0.000976712
0.000975476
0.000974281
0.000973134
0.000972046
0.000971024
0.000970081
0.000969226
0.000968473
0.000967833
0.00096732
0.000966946
0.000966723
0.000966664
0.000966778
0.000967075
0.000967561
0.000968241
0.000969118
0.000970192
0.000971458
0.000972912
0.000974545
0.000976344
0.000978295
0.000980382
0.000982587
0.00098489
0.000987269
0.000989703
0.000992171
0.00099465
0.000997117
0.000999552
0.00100193
0.00100424
0.00100646
0.00100857
0.00101055
0.00101238
0.00101407
0.00101559
0.00101693
0.0010181
0.00101908
0.00101987
0.00102048
0.00102092
0.00102119
0.00102132
0.00102131
0.0010212
0.00102103
0.00102081
0.0010206
0.00102044
0.00102035
0.00102038
0.00102056
0.00102088
0.00102137
0.00102201
0.00102278
0.00102368
0.0010247
0.00102583
0.00102711
0.00102858
0.00103032
0.0010324
0.00103492
0.00103797
0.00104163
0.00104596
0.00105098
0.00105673
0.00106314
0.00107024
0.001078
0.00108546
0.00109902
0.00100349
0.0010029
0.00100229
0.00100164
0.00100097
0.00100027
0.000999546
0.000998792
0.000998011
0.000997206
0.000996379
0.000995533
0.000994671
0.000993795
0.000992911
0.000992021
0.000991131
0.000990246
0.000989371
0.00098851
0.00098767
0.000986857
0.000986077
0.000985337
0.000984643
0.000984003
0.000983424
0.000982915
0.000982482
0.000982136
0.000981883
0.000981731
0.000981689
0.000981764
0.000981961
0.000982287
0.000982745
0.000983338
0.000984068
0.000984935
0.000985936
0.000987067
0.000988323
0.000989695
0.000991175
0.000992751
0.000994411
0.00099614
0.000997925
0.00099975
0.0010016
0.00100345
0.0010053
0.00100712
0.00100889
0.0010106
0.00101223
0.00101377
0.0010152
0.00101651
0.00101768
0.0010187
0.00101957