/*--------------------------------*- C++ -*----------------------------------*\
  =========                 |
  \\      /  F ield         | OpenFOAM: The Open Source CFD Toolbox
   \\    /   O peration     | Website:  https://openfoam.org
    \\  /    A nd           | Version:  10
     \\/     M anipulation  |
\*---------------------------------------------------------------------------*/
FoamFile
{
    format      ascii;
    class       volScalarField;
    location    "0.165";
    object      p;
}
// * * * * * * * * * * * * * * * * * * * * * * * * * * * * * * * * * * * * * //

dimensions      [0 2 -2 0 0 0 0];

internalField   nonuniform List<scalar> 
6820
(
-8.57788
-9.94192
-10.3554
-10.4507
-10.5315
-10.5828
-10.6136
-10.6378
-10.6586
-10.6769
-10.6937
-10.7096
-10.7248
-10.7395
-10.7537
-10.7675
-10.781
-10.7941
-10.8069
-10.8193
-10.8312
-10.8427
-10.8535
-10.8634
-10.8722
-10.8793
-10.8838
-10.8845
-10.8788
-10.8602
-10.8223
-10.7383
-10.5272
-11.378
-10.9737
-10.6797
-10.5842
-10.5856
-10.6022
-10.6202
-10.6397
-10.6589
-10.6769
-10.6937
-10.7096
-10.7246
-10.7389
-10.7528
-10.7662
-10.7792
-10.7918
-10.8042
-10.8162
-10.8278
-10.839
-10.8496
-10.8594
-10.8684
-10.876
-10.8818
-10.8856
-10.8848
-10.8858
-10.8699
-10.9074
-10.8994
-10.235
-10.1068
-10.3317
-10.4693
-10.5308
-10.5751
-10.607
-10.6322
-10.6537
-10.6725
-10.6897
-10.7057
-10.721
-10.7356
-10.7498
-10.7635
-10.7769
-10.79
-10.8028
-10.8152
-10.8272
-10.8388
-10.8498
-10.8602
-10.8696
-10.878
-10.8849
-10.89
-10.8923
-10.894
-10.8894
-10.8995
-10.8923
-10.6016
-10.6183
-10.5939
-10.571
-10.5791
-10.5994
-10.6194
-10.6385
-10.657
-10.6744
-10.6909
-10.7066
-10.7216
-10.7361
-10.7501
-10.7638
-10.777
-10.79
-10.8026
-10.8149
-10.8269
-10.8385
-10.8496
-10.8602
-10.8701
-10.8793
-10.8874
-10.8948
-10.9009
-10.9087
-10.9159
-10.9396
-10.9694
-10.4917
-10.4377
-10.4815
-10.5262
-10.5613
-10.5912
-10.6157
-10.637
-10.6563
-10.6741
-10.6906
-10.7062
-10.7212
-10.7356
-10.7496
-10.7632
-10.7765
-10.7895
-10.8023
-10.8147
-10.8268
-10.8387
-10.8501
-10.8612
-10.8717
-10.8818
-10.8914
-10.9008
-10.9101
-10.9215
-10.935
-10.9594
-10.9915
-10.5324
-10.5255
-10.5439
-10.5609
-10.5791
-10.6004
-10.6209
-10.64
-10.6582
-10.6752
-10.6913
-10.7067
-10.7215
-10.7359
-10.7498
-10.7633
-10.7766
-10.7896
-10.8024
-10.8148
-10.8271
-10.8391
-10.8508
-10.8622
-10.8734
-10.8844
-10.8952
-10.9065
-10.9184
-10.9329
-10.9506
-10.9765
-11.0106
-10.5317
-10.5209
-10.5356
-10.5571
-10.579
-10.6013
-10.622
-10.641
-10.6589
-10.6757
-10.6917
-10.7069
-10.7216
-10.7359
-10.7497
-10.7632
-10.7765
-10.7895
-10.8023
-10.8149
-10.8273
-10.8395
-10.8515
-10.8634
-10.8752
-10.887
-10.8991
-10.9119
-10.9258
-10.9423
-10.9623
-10.9882
-11.0208
-10.5413
-10.5382
-10.5513
-10.5692
-10.5873
-10.6065
-10.6253
-10.6432
-10.6603
-10.6766
-10.6922
-10.7073
-10.7218
-10.7359
-10.7497
-10.7631
-10.7764
-10.7894
-10.8022
-10.8149
-10.8274
-10.8398
-10.8521
-10.8644
-10.8768
-10.8894
-10.9025
-10.9165
-10.9319
-10.9497
-10.9707
-10.9962
-11.0268
-10.5498
-10.5487
-10.5591
-10.5749
-10.5918
-10.6099
-10.6278
-10.645
-10.6616
-10.6775
-10.6928
-10.7076
-10.7219
-10.7359
-10.7496
-10.763
-10.7762
-10.7892
-10.8021
-10.8148
-10.8275
-10.84
-10.8526
-10.8653
-10.8782
-10.8915
-10.9053
-10.9202
-10.9366
-10.9551
-10.9764
-11.001
-11.0294
-10.5584
-10.5589
-10.5682
-10.5823
-10.5977
-10.6142
-10.6309
-10.6472
-10.6631
-10.6785
-10.6934
-10.7079
-10.7221
-10.7359
-10.7495
-10.7628
-10.7759
-10.7889
-10.8018
-10.8146
-10.8274
-10.8402
-10.853
-10.866
-10.8793
-10.893
-10.9075
-10.923
-10.9399
-10.9587
-10.9797
-11.0034
-11.0297
-10.5667
-10.568
-10.5763
-10.5888
-10.6029
-10.6181
-10.6338
-10.6493
-10.6646
-10.6795
-10.6941
-10.7083
-10.7222
-10.7359
-10.7493
-10.7625
-10.7756
-10.7886
-10.8015
-10.8143
-10.8272
-10.8401
-10.8531
-10.8664
-10.88
-10.8941
-10.9089
-10.9248
-10.9419
-10.9606
-10.9812
-11.0037
-11.0282
-10.5746
-10.5764
-10.5838
-10.5951
-10.608
-10.6221
-10.6368
-10.6516
-10.6662
-10.6806
-10.6948
-10.7087
-10.7224
-10.7358
-10.7491
-10.7622
-10.7752
-10.7882
-10.801
-10.8139
-10.8268
-10.8398
-10.853
-10.8664
-10.8802
-10.8946
-10.9096
-10.9256
-10.9427
-10.9611
-10.981
-11.0024
-11.0252
-10.5822
-10.5841
-10.5909
-10.601
-10.6129
-10.626
-10.6398
-10.6538
-10.6678
-10.6817
-10.6955
-10.7091
-10.7225
-10.7357
-10.7489
-10.7619
-10.7748
-10.7876
-10.8005
-10.8133
-10.8262
-10.8393
-10.8525
-10.8661
-10.88
-10.8944
-10.9095
-10.9255
-10.9424
-10.9603
-10.9795
-10.9997
-11.021
-10.5892
-10.5911
-10.5974
-10.6066
-10.6175
-10.6297
-10.6426
-10.6559
-10.6694
-10.6828
-10.6962
-10.7094
-10.7226
-10.7356
-10.7485
-10.7614
-10.7742
-10.787
-10.7997
-10.8125
-10.8254
-10.8385
-10.8518
-10.8653
-10.8792
-10.8937
-10.9087
-10.9244
-10.941
-10.9584
-10.9767
-10.9958
-11.0157
-10.5957
-10.5976
-10.6034
-10.6118
-10.6219
-10.6332
-10.6454
-10.658
-10.6709
-10.6838
-10.6968
-10.7097
-10.7226
-10.7354
-10.7481
-10.7608
-10.7735
-10.7861
-10.7988
-10.8116
-10.8244
-10.8374
-10.8506
-10.8641
-10.878
-10.8923
-10.9071
-10.9225
-10.9386
-10.9554
-10.9729
-10.9909
-11.0095
-10.6018
-10.6035
-10.6089
-10.6166
-10.626
-10.6366
-10.648
-10.66
-10.6723
-10.6848
-10.6974
-10.7099
-10.7225
-10.7351
-10.7476
-10.7601
-10.7726
-10.7852
-10.7977
-10.8103
-10.8231
-10.836
-10.8491
-10.8625
-10.8762
-10.8902
-10.9048
-10.9198
-10.9354
-10.9515
-10.9681
-10.9851
-11.0025
-10.6072
-10.6089
-10.6139
-10.621
-10.6297
-10.6396
-10.6504
-10.6618
-10.6736
-10.6856
-10.6978
-10.7101
-10.7224
-10.7347
-10.747
-10.7593
-10.7716
-10.784
-10.7964
-10.8089
-10.8215
-10.8342
-10.8472
-10.8604
-10.8738
-10.8876
-10.9018
-10.9163
-10.9313
-10.9467
-10.9624
-10.9785
-10.9948
-10.6122
-10.6138
-10.6184
-10.625
-10.6331
-10.6424
-10.6526
-10.6635
-10.6748
-10.6864
-10.6982
-10.7101
-10.7221
-10.7341
-10.7462
-10.7583
-10.7704
-10.7826
-10.7948
-10.8071
-10.8196
-10.8321
-10.8448
-10.8578
-10.8709
-10.8844
-10.8981
-10.9121
-10.9265
-10.9411
-10.956
-10.9711
-10.9863
-10.6166
-10.6181
-10.6224
-10.6285
-10.6361
-10.6449
-10.6546
-10.6649
-10.6757
-10.6869
-10.6983
-10.7099
-10.7216
-10.7334
-10.7452
-10.7571
-10.769
-10.781
-10.793
-10.8051
-10.8173
-10.8296
-10.8421
-10.8547
-10.8675
-10.8806
-10.8938
-10.9073
-10.921
-10.9349
-10.9489
-10.9631
-10.9772
-10.6204
-10.6218
-10.6258
-10.6316
-10.6387
-10.647
-10.6562
-10.6661
-10.6765
-10.6873
-10.6983
-10.7096
-10.721
-10.7325
-10.7441
-10.7557
-10.7674
-10.7791
-10.7909
-10.8028
-10.8147
-10.8268
-10.8389
-10.8512
-10.8636
-10.8762
-10.8889
-10.9018
-10.9148
-10.928
-10.9412
-10.9544
-10.9676
-10.6237
-10.625
-10.6288
-10.6342
-10.6409
-10.6488
-10.6575
-10.667
-10.677
-10.6874
-10.6981
-10.709
-10.7202
-10.7314
-10.7427
-10.7541
-10.7655
-10.777
-10.7886
-10.8002
-10.8118
-10.8235
-10.8354
-10.8472
-10.8592
-10.8713
-10.8835
-10.8958
-10.9081
-10.9205
-10.9329
-10.9452
-10.9575
-10.6265
-10.6277
-10.6312
-10.6363
-10.6427
-10.6501
-10.6585
-10.6676
-10.6772
-10.6872
-10.6976
-10.7083
-10.7191
-10.73
-10.7411
-10.7522
-10.7634
-10.7746
-10.7859
-10.7972
-10.8085
-10.8199
-10.8314
-10.8429
-10.8544
-10.866
-10.8776
-10.8892
-10.9009
-10.9125
-10.9241
-10.9355
-10.9469
-10.6286
-10.6297
-10.6331
-10.6379
-10.644
-10.6511
-10.6591
-10.6678
-10.6771
-10.6868
-10.6969
-10.7073
-10.7178
-10.7285
-10.7393
-10.7501
-10.761
-10.772
-10.783
-10.794
-10.805
-10.816
-10.827
-10.8381
-10.8491
-10.8602
-10.8712
-10.8822
-10.8932
-10.904
-10.9148
-10.9254
-10.9359
-10.6301
-10.6312
-10.6344
-10.639
-10.6447
-10.6515
-10.6592
-10.6676
-10.6766
-10.686
-10.6958
-10.7059
-10.7162
-10.7266
-10.7371
-10.7477
-10.7583
-10.769
-10.7797
-10.7904
-10.801
-10.8117
-10.8223
-10.8329
-10.8435
-10.854
-10.8644
-10.8748
-10.885
-10.8952
-10.9052
-10.915
-10.9246
-10.631
-10.6321
-10.6351
-10.6395
-10.645
-10.6516
-10.659
-10.6671
-10.6758
-10.685
-10.6946
-10.7044
-10.7144
-10.7246
-10.7348
-10.7452
-10.7555
-10.7659
-10.7762
-10.7866
-10.7969
-10.8071
-10.8173
-10.8275
-10.8375
-10.8475
-10.8573
-10.867
-10.8766
-10.886
-10.8952
-10.9043
-10.913
-10.6313
-10.6323
-10.6351
-10.6393
-10.6446
-10.6509
-10.658
-10.6659
-10.6744
-10.6833
-10.6926
-10.7022
-10.712
-10.7219
-10.732
-10.742
-10.7521
-10.7622
-10.7723
-10.7823
-10.7922
-10.8021
-10.8119
-10.8215
-10.8311
-10.8405
-10.8498
-10.8589
-10.8678
-10.8765
-10.885
-10.8932
-10.9012
-10.6309
-10.6319
-10.6347
-10.6388
-10.6439
-10.6501
-10.6571
-10.6648
-10.6731
-10.6819
-10.691
-10.7004
-10.7099
-10.7196
-10.7294
-10.7392
-10.749
-10.7588
-10.7685
-10.7781
-10.7877
-10.7971
-10.8065
-10.8156
-10.8247
-10.8335
-10.8422
-10.8507
-10.8589
-10.867
-10.8747
-10.8822
-10.8894
-10.6298
-10.6306
-10.6331
-10.6369
-10.6417
-10.6476
-10.6544
-10.6619
-10.67
-10.6786
-10.6876
-10.6969
-10.7063
-10.7158
-10.7254
-10.7351
-10.7447
-10.7542
-10.7637
-10.773
-10.7822
-10.7913
-10.8003
-10.809
-10.8176
-10.8259
-10.8341
-10.842
-10.8496
-10.857
-10.8641
-10.8709
-10.8774
-10.6281
-10.6292
-10.6319
-10.6359
-10.6409
-10.6468
-10.6536
-10.6611
-10.6691
-10.6775
-10.6863
-10.6953
-10.7045
-10.7138
-10.7231
-10.7324
-10.7417
-10.7509
-10.7599
-10.7689
-10.7777
-10.7863
-10.7948
-10.803
-10.8111
-10.8189
-10.8264
-10.8337
-10.8407
-10.8474
-10.8538
-10.8599
-10.8657
-10.6252
-10.6254
-10.6272
-10.6303
-10.6347
-10.6403
-10.647
-10.6545
-10.6626
-10.6711
-10.6801
-10.6892
-10.6985
-10.7079
-10.7172
-10.7265
-10.7358
-10.7449
-10.7538
-10.7626
-10.7712
-10.7796
-10.7877
-10.7956
-10.8033
-10.8107
-10.8178
-10.8246
-10.8311
-10.8372
-10.8431
-10.8485
-10.8537
-10.6232
-10.6252
-10.6284
-10.6324
-10.6373
-10.6431
-10.6497
-10.6569
-10.6646
-10.6728
-10.6813
-10.6899
-10.6987
-10.7076
-10.7164
-10.7252
-10.734
-10.7426
-10.751
-10.7593
-10.7674
-10.7752
-10.7828
-10.7902
-10.7973
-10.8041
-10.8106
-10.8167
-10.8226
-10.8281
-10.8333
-10.8381
-10.8425
-10.6152
-10.6131
-10.6129
-10.6152
-10.6196
-10.6258
-10.6331
-10.6413
-10.6501
-10.6593
-10.6687
-10.6783
-10.6879
-10.6974
-10.7068
-10.7161
-10.7252
-10.7341
-10.7428
-10.7512
-10.7593
-10.7671
-10.7746
-10.7818
-10.7887
-10.7953
-10.8015
-10.8073
-10.8128
-10.8179
-10.8226
-10.827
-10.8309
-10.621
-10.6264
-10.6307
-10.6338
-10.6375
-10.6423
-10.648
-10.6545
-10.6616
-10.6692
-10.6771
-10.6852
-10.6935
-10.7018
-10.7101
-10.7184
-10.7265
-10.7345
-10.7423
-10.7499
-10.7572
-10.7643
-10.7711
-10.7776
-10.7838
-10.7897
-10.7952
-10.8004
-10.8052
-10.8097
-10.8137
-10.8174
-10.8207
-10.5915
-10.5804
-10.5772
-10.5811
-10.5885
-10.5977
-10.6079
-10.6187
-10.6298
-10.6409
-10.652
-10.6629
-10.6736
-10.6839
-10.694
-10.7037
-10.713
-10.722
-10.7307
-10.739
-10.7468
-10.7543
-10.7615
-10.7682
-10.7745
-10.7804
-10.7859
-10.791
-10.7957
-10.7999
-10.8038
-10.8072
-10.8102
-10.6392
-10.6555
-10.6568
-10.6512
-10.6488
-10.6498
-10.6527
-10.657
-10.6623
-10.6685
-10.6752
-10.6823
-10.6897
-10.6972
-10.7048
-10.7123
-10.7197
-10.727
-10.7341
-10.741
-10.7476
-10.754
-10.76
-10.7657
-10.7711
-10.7762
-10.7808
-10.7851
-10.7891
-10.7926
-10.7957
-10.7985
-10.8008
-10.5294
-10.4913
-10.4856
-10.5094
-10.5297
-10.5479
-10.5659
-10.5832
-10.5996
-10.6149
-10.6293
-10.6429
-10.6557
-10.6677
-10.6791
-10.6898
-10.7
-10.7095
-10.7185
-10.727
-10.735
-10.7424
-10.7494
-10.7559
-10.7619
-10.7674
-10.7725
-10.777
-10.7811
-10.7848
-10.7879
-10.7906
-10.7928
-10.7418
-10.7664
-10.7373
-10.7005
-10.6771
-10.6692
-10.666
-10.6653
-10.667
-10.6705
-10.6752
-10.6807
-10.6867
-10.693
-10.6996
-10.7062
-10.7128
-10.7193
-10.7257
-10.7319
-10.7378
-10.7435
-10.7489
-10.754
-10.7587
-10.7631
-10.7671
-10.7708
-10.774
-10.7769
-10.7793
-10.7814
-10.783
-10.3262
-10.2444
-10.3015
-10.3823
-10.4387
-10.4771
-10.5105
-10.5397
-10.5647
-10.5866
-10.606
-10.6233
-10.639
-10.6533
-10.6664
-10.6785
-10.6896
-10.6999
-10.7095
-10.7183
-10.7265
-10.734
-10.741
-10.7473
-10.7532
-10.7584
-10.7632
-10.7674
-10.7711
-10.7742
-10.7769
-10.7791
-10.7807
-11.3027
-11.0246
-10.8189
-10.7277
-10.6906
-10.6699
-10.6572
-10.6516
-10.6509
-10.653
-10.657
-10.6624
-10.6685
-10.6751
-10.682
-10.6891
-10.6961
-10.7029
-10.7097
-10.7161
-10.7224
-10.7283
-10.7338
-10.739
-10.7439
-10.7483
-10.7523
-10.7559
-10.7591
-10.7619
-10.7642
-10.7662
-10.7676
-9.34467
-9.90625
-10.2109
-10.327
-10.4085
-10.4719
-10.517
-10.551
-10.5784
-10.6008
-10.6197
-10.636
-10.6504
-10.6633
-10.675
-10.6857
-10.6956
-10.7047
-10.7131
-10.7209
-10.7281
-10.7347
-10.7408
-10.7464
-10.7515
-10.756
-10.7601
-10.7637
-10.7667
-10.7693
-10.7714
-10.773
-10.7742
-10.4542
-11.0835
-11.1346
-11.1877
-11.2937
-11.3708
-11.4292
-11.4825
-11.5362
-11.592
-11.6515
-11.7146
-11.7801
-11.8463
-11.9117
-11.9746
-12.0337
-12.088
-12.1366
-12.179
-12.2146
-12.2432
-12.2644
-12.2779
-12.2833
-12.2801
-12.2677
-12.2457
-12.2132
-12.1697
-12.1143
-12.0464
-11.9651
-11.8699
-11.76
-11.6347
-11.4936
-11.3361
-11.1618
-10.9703
-10.7615
-10.5354
-10.292
-10.0318
-9.7553
-9.46328
-9.15674
-8.83694
-8.50532
-8.16357
-7.81354
-7.45729
-7.09698
-6.73489
-6.37335
-6.01472
-5.6613
-5.31531
-4.97886
-4.65388
-4.34207
-4.04493
-3.76365
-3.49919
-3.25217
-3.02295
-2.81159
-2.61791
-2.44145
-2.28152
-2.13724
-2.00752
-1.89115
-1.78677
-1.69293
-1.60809
-1.5307
-1.45917
-1.39194
-1.32749
-1.26439
-1.20132
-1.13712
-1.07083
-1.00169
-0.929278
-0.853443
-0.774413
-0.692764
-0.609502
-0.525843
-0.44361
-0.364072
-0.290229
-0.221009
-0.163962
-0.1054
-0.0784248
-0.0061916
-0.0631668
-11.2834
-11.5654
-11.4628
-11.4008
-11.3905
-11.3941
-11.4079
-11.4359
-11.4782
-11.5318
-11.5941
-11.6621
-11.7325
-11.8027
-11.8706
-11.9346
-11.9937
-12.0471
-12.0943
-12.1351
-12.1691
-12.1962
-12.216
-12.2282
-12.2323
-12.2279
-12.2144
-12.1912
-12.1578
-12.1133
-12.057
-11.9884
-11.9066
-11.811
-11.7009
-11.5757
-11.4349
-11.2779
-11.1045
-10.9142
-10.7069
-10.4826
-10.2415
-9.98393
-9.7104
-9.42172
-9.11888
-8.80309
-8.47578
-8.13856
-7.79325
-7.44182
-7.08639
-6.72916
-6.3724
-6.01839
-5.66938
-5.32753
-4.9949
-4.67336
-4.36461
-4.07007
-3.79096
-3.52816
-3.28234
-3.05383
-2.84273
-2.64887
-2.47183
-2.31097
-2.16547
-2.0343
-1.9163
-1.81017
-1.71451
-1.62784
-1.54864
-1.47536
-1.40647
-1.34046
-1.27593
-1.21156
-1.1462
-1.07889
-1.0089
-0.935785
-0.859401
-0.779976
-0.698068
-0.614689
-0.530998
-0.448872
-0.369357
-0.295744
-0.226116
-0.169453
-0.108907
-0.0837235
-0.004956
-0.0705629
-10.9638
-11.0964
-11.1407
-11.1888
-11.2595
-11.3234
-11.3758
-11.4255
-11.4745
-11.5261
-11.581
-11.6393
-11.6999
-11.7618
-11.8234
-11.8833
-11.9402
-11.9927
-12.0398
-12.0808
-12.1151
-12.1421
-12.1616
-12.1732
-12.1765
-12.1711
-12.1565
-12.1322
-12.0977
-12.0522
-11.9951
-11.9257
-11.8433
-11.7474
-11.6371
-11.5121
-11.3717
-11.2154
-11.043
-10.8541
-10.6485
-10.4263
-10.1876
-9.93288
-9.66255
-9.37742
-9.07846
-8.76684
-8.44395
-8.11136
-7.77085
-7.42432
-7.07385
-6.72157
-6.3697
-6.02046
-5.67604
-5.33855
-5.00998
-4.69215
-4.38671
-4.09505
-3.81834
-3.55746
-3.31305
-3.08546
-2.87479
-2.68089
-2.50339
-2.34168
-2.19498
-2.06234
-1.94265
-1.83467
-1.73707
-1.64842
-1.56725
-1.49205
-1.42132
-1.35358
-1.28746
-1.22165
-1.15501
-1.0866
-1.01568
-0.941812
-0.864861
-0.785055
-0.702934
-0.61952
-0.535904
-0.454004
-0.374626
-0.301319
-0.231341
-0.175045
-0.112583
-0.0890179
-0.00410581
-0.0775159
-11.0735
-11.2465
-11.3101
-11.327
-11.353
-11.3793
-11.4042
-11.4341
-11.4712
-11.5151
-11.5655
-11.6209
-11.679
-11.7378
-11.7958
-11.8513
-11.9032
-11.9507
-11.9931
-12.0299
-12.0605
-12.0846
-12.1018
-12.1116
-12.1135
-12.1069
-12.0914
-12.0663
-12.0309
-11.9847
-11.927
-11.8572
-11.7745
-11.6783
-11.5681
-11.4433
-11.3034
-11.148
-10.9767
-10.7892
-10.5854
-10.3654
-10.1293
-9.87742
-9.61036
-9.32884
-9.03381
-8.72644
-8.40807
-8.08025
-7.7447
-7.40329
-7.05802
-6.71098
-6.36431
-6.02016
-5.68066
-5.34784
-5.02363
-4.70981
-4.40795
-4.11941
-3.84533
-3.58657
-3.34376
-3.11726
-2.90718
-2.71339
-2.53555
-2.37309
-2.22529
-2.09123
-1.96986
-1.86001
-1.76041
-1.66968
-1.58641
-1.50915
-1.43643
-1.36683
-1.29897
-1.23159
-1.16357
-1.09396
-1.02205
-0.947414
-0.869903
-0.789755
-0.707494
-0.624139
-0.540706
-0.459132
-0.379968
-0.307002
-0.236698
-0.180728
-0.116408
-0.094287
-0.0036072
-0.0840235
-11.0561
-11.1498
-11.1933
-11.2226
-11.2658
-11.3115
-11.3545
-11.3981
-11.4436
-11.4928
-11.5439
-11.5969
-11.6512
-11.7058
-11.7596
-11.8113
-11.8601
-11.905
-11.945
-11.9797
-12.0082
-12.0302
-12.0451
-12.0526
-12.0522
-12.0435
-12.0258
-11.9988
-11.9617
-11.9141
-11.8551
-11.7843
-11.7009
-11.6043
-11.4939
-11.3692
-11.2298
-11.0751
-10.9049
-10.7189
-10.517
-10.2992
-10.0657
-9.81687
-9.55323
-9.27552
-8.98467
-8.6818
-8.36825
-8.0455
-7.71523
-7.37927
-7.03953
-6.69805
-6.3569
-6.01816
-5.68386
-5.35599
-5.0364
-4.72679
-4.4287
-4.14345
-3.87213
-3.61561
-3.37449
-3.14916
-2.93973
-2.74612
-2.568
-2.40486
-2.25601
-2.12058
-1.99757
-1.88587
-1.78425
-1.69141
-1.60599
-1.52658
-1.45177
-1.38019
-1.31049
-1.24144
-1.17195
-1.10108
-1.02815
-0.952728
-0.874681
-0.794244
-0.711919
-0.628709
-0.545542
-0.464353
-0.385438
-0.312811
-0.242182
-0.186481
-0.120365
-0.0995028
-0.00343631
-0.0900732
-11.0659
-11.1487
-11.2079
-11.2483
-11.2882
-11.3266
-11.3624
-11.3991
-11.4389
-11.4805
-11.5265
-11.5751
-11.6253
-11.676
-11.7258
-11.7738
-11.8187
-11.8598
-11.8963
-11.9275
-11.9528
-11.972
-11.9844
-11.9895
-11.9871
-11.9764
-11.957
-11.9284
-11.8898
-11.8408
-11.7806
-11.7088
-11.6245
-11.5274
-11.4167
-11.2921
-11.153
-10.999
-10.8298
-10.6453
-10.4452
-10.2297
-9.99895
-9.75325
-9.49316
-9.21942
-8.93292
-8.63476
-8.32624
-8.00881
-7.68409
-7.35383
-7.0199
-6.68425
-6.34887
-6.01574
-5.68685
-5.36407
-5.04921
-4.7439
-4.44964
-4.16771
-3.89917
-3.6449
-3.40549
-3.18133
-2.97256
-2.77913
-2.60075
-2.43693
-2.28703
-2.15024
-2.0256
-1.91205
-1.80842
-1.71345
-1.62584
-1.54424
-1.4673
-1.39366
-1.32205
-1.25127
-1.18025
-1.10809
-1.03412
-0.95793
-0.879381
-0.798707
-0.716377
-0.63337
-0.55051
-0.469723
-0.391058
-0.318741
-0.247778
-0.192282
-0.124436
-0.104648
-0.00357279
-0.0956696
-11.0673
-11.1313
-11.1817
-11.2192
-11.2571
-11.2961
-11.3343
-11.373
-11.4139
-11.4573
-11.5023
-11.5489
-11.5962
-11.6436
-11.6898
-11.7341
-11.7756
-11.8133
-11.8466
-11.8749
-11.8976
-11.9141
-11.9239
-11.9267
-11.9219
-11.909
-11.8875
-11.8568
-11.8165
-11.7658
-11.7043
-11.6313
-11.5462
-11.4485
-11.3375
-11.2129
-11.0742
-10.9209
-10.7529
-10.5699
-10.3718
-10.1587
-9.93073
-9.68832
-9.43196
-9.16236
-8.88042
-8.58719
-8.28392
-7.97201
-7.65302
-7.32864
-7.00064
-6.67091
-6.34134
-6.01386
-5.69036
-5.37266
-5.06249
-4.76145
-4.47098
-4.19233
-3.92656
-3.6745
-3.43678
-3.21378
-3.00567
-2.81242
-2.63376
-2.46927
-2.31833
-2.18017
-2.05391
-1.93851
-1.83285
-1.73575
-1.64594
-1.56212
-1.483
-1.40729
-1.33374
-1.26119
-1.18862
-1.11516
-1.04015
-0.963202
-0.884179
-0.8033
-0.720996
-0.638209
-0.555661
-0.475259
-0.396821
-0.324773
-0.253466
-0.198112
-0.128607
-0.109707
-0.00399405
-0.100823
-11.0675
-11.1211
-11.1691
-11.209
-11.2476
-11.2859
-11.3231
-11.3605
-11.3988
-11.439
-11.4807
-11.5238
-11.5676
-11.6112
-11.6539
-11.6946
-11.7326
-11.767
-11.7971
-11.8223
-11.842
-11.8558
-11.863
-11.8633
-11.8562
-11.8411
-11.8176
-11.7851
-11.743
-11.6908
-11.628
-11.5539
-11.4679
-11.3696
-11.2583
-11.1338
-10.9954
-10.843
-10.6761
-10.4947
-10.2986
-10.088
-9.863
-9.62398
-9.37144
-9.10609
-8.82877
-8.54052
-8.24253
-7.93615
-7.62288
-7.30432
-6.9822
-6.65831
-6.33449
-6.01257
-5.69438
-5.38168
-5.07613
-4.77929
-4.49256
-4.21715
-3.9541
-3.70424
-3.46819
-3.24635
-3.03891
-2.84583
-2.66692
-2.50176
-2.3498
-2.2103
-2.08241
-1.96517
-1.85751
-1.75827
-1.66626
-1.58023
-1.49894
-1.42113
-1.34562
-1.2713
-1.19717
-1.12241
-1.04637
-0.968677
-0.88919
-0.808114
-0.725835
-0.643257
-0.560998
-0.48095
-0.402708
-0.330888
-0.259228
-0.203953
-0.132864
-0.114672
-0.0046774
-0.105551
-11.0657
-11.1118
-11.1554
-11.1939
-11.2308
-11.2675
-11.3037
-11.3401
-11.3774
-11.4161
-11.4558
-11.4964
-11.5373
-11.5777
-11.617
-11.6544
-11.689
-11.7202
-11.7472
-11.7694
-11.7864
-11.7974
-11.8022
-11.8001
-11.7907
-11.7735
-11.7479
-11.7136
-11.6698
-11.6161
-11.552
-11.4768
-11.39
-11.2912
-11.1798
-11.0553
-10.9174
-10.7658
-10.6002
-10.4205
-10.2265
-10.0184
-9.79636
-9.56074
-9.31203
-9.05091
-8.77819
-8.49487
-8.2021
-7.90118
-7.59353
-7.28071
-6.96438
-6.64624
-6.32806
-6.01161
-5.69865
-5.39087
-5.08988
-4.79718
-4.51414
-4.24194
-3.98159
-3.73393
-3.49955
-3.27887
-3.0721
-2.87923
-2.70008
-2.53428
-2.38132
-2.2405
-2.11102
-1.99197
-1.88231
-1.78097
-1.68677
-1.59855
-1.51509
-1.4352
-1.35775
-1.28166
-1.20598
-1.12991
-1.05285
-0.974409
-0.894455
-0.813171
-0.7309
-0.648506
-0.566505
-0.486773
-0.408698
-0.337065
-0.265049
-0.209795
-0.137198
-0.119536
-0.00560034
-0.109873
-11.0625
-11.1031
-11.1432
-11.1803
-11.2161
-11.2516
-11.2868
-11.3219
-11.3575
-11.394
-11.4313
-11.469
-11.5067
-11.544
-11.5799
-11.614
-11.6453
-11.6733
-11.6972
-11.7165
-11.7307
-11.7391
-11.7414
-11.7369
-11.7253
-11.7059
-11.6785
-11.6423
-11.5969
-11.5418
-11.4765
-11.4003
-11.3128
-11.2135
-11.1019
-10.9776
-10.8403
-10.6896
-10.5253
-10.3472
-10.1553
-9.94979
-9.73072
-9.49849
-9.25359
-8.99665
-8.72848
-8.45004
-8.16241
-7.86686
-7.56476
-7.25759
-6.94694
-6.63446
-6.32184
-6.01078
-5.70297
-5.40004
-5.10355
-4.81495
-4.53556
-4.26655
-4.00889
-3.76341
-3.53071
-3.3112
-3.10512
-2.91248
-2.73312
-2.56672
-2.41278
-2.27068
-2.13964
-2.0188
-1.90719
-1.80376
-1.70742
-1.61702
-1.53141
-1.44947
-1.37008
-1.29224
-1.21502
-1.13767
-1.05958
-0.980392
-0.899962
-0.818456
-0.736171
-0.653931
-0.572159
-0.492709
-0.414777
-0.343295
-0.270921
-0.21563
-0.1416
-0.124298
-0.0067409
-0.113814
-11.0581
-11.0946
-11.1313
-11.1665
-11.2007
-11.2347
-11.2683
-11.3019
-11.3359
-11.3704
-11.4054
-11.4405
-11.4754
-11.5096
-11.5424
-11.5732
-11.6014
-11.6263
-11.6472
-11.6637
-11.675
-11.6809
-11.6806
-11.6738
-11.66
-11.6386
-11.6093
-11.5714
-11.5244
-11.4679
-11.4014
-11.3243
-11.2361
-11.1364
-11.0247
-10.9007
-10.7639
-10.6141
-10.4511
-10.2748
-10.0851
-9.88206
-9.66595
-9.43709
-9.19595
-8.94316
-8.67948
-8.40584
-8.1233
-7.83304
-7.5364
-7.23479
-6.92975
-6.62284
-6.31569
-6.00994
-5.70721
-5.40907
-5.11703
-4.83249
-4.55673
-4.29087
-4.0359
-3.7926
-3.56158
-3.34327
-3.13789
-2.9455
-2.76597
-2.59899
-2.44412
-2.30077
-2.16821
-2.04562
-1.93208
-1.8266
-1.72813
-1.63559
-1.54787
-1.46389
-1.3826
-1.30302
-1.22428
-1.14564
-1.06654
-0.986602
-0.905687
-0.823944
-0.741626
-0.659515
-0.577946
-0.498748
-0.420936
-0.349571
-0.276839
-0.221456
-0.146065
-0.12896
-0.00807773
-0.117402
-11.0527
-11.0859
-11.1197
-11.1529
-11.1854
-11.2177
-11.2498
-11.2819
-11.3141
-11.3465
-11.3791
-11.4116
-11.4437
-11.4748
-11.5046
-11.5323
-11.5574
-11.5792
-11.5972
-11.6109
-11.6195
-11.6228
-11.6201
-11.611
-11.595
-11.5716
-11.5404
-11.5007
-11.4523
-11.3945
-11.3268
-11.2488
-11.16
-11.0599
-10.9482
-10.8244
-10.6883
-10.5394
-10.3778
-10.2032
-10.0156
-9.81511
-9.60195
-9.37644
-9.13903
-8.89033
-8.63109
-8.36219
-8.08465
-7.79961
-7.50835
-7.21222
-6.91269
-6.61127
-6.30952
-6.00901
-5.71129
-5.41789
-5.13025
-4.84973
-4.57756
-4.31485
-4.06255
-3.82143
-3.59211
-3.375
-3.17036
-2.97825
-2.79856
-2.63105
-2.47528
-2.33071
-2.19666
-2.07236
-1.95694
-1.84944
-1.74889
-1.65423
-1.56442
-1.47844
-1.39527
-1.31398
-1.23373
-1.15382
-1.0737
-0.993017
-0.911613
-0.829621
-0.747252
-0.665249
-0.58386
-0.504886
-0.427173
-0.355893
-0.282804
-0.227274
-0.150591
-0.133526
-0.00959032
-0.120665
-11.0464
-11.0768
-11.1081
-11.1392
-11.1699
-11.2005
-11.2309
-11.2612
-11.2915
-11.3218
-11.3521
-11.3821
-11.4114
-11.4398
-11.4665
-11.4913
-11.5133
-11.5322
-11.5474
-11.5582
-11.5642
-11.5649
-11.5598
-11.5485
-11.5303
-11.5049
-11.4718
-11.4305
-11.3806
-11.3215
-11.2527
-11.1739
-11.0845
-10.9841
-10.8724
-10.7489
-10.6133
-10.4655
-10.3052
-10.1323
-9.94688
-9.74893
-9.53869
-9.31649
-9.08277
-8.83813
-8.58327
-8.31904
-8.04643
-7.76653
-7.48056
-7.18983
-6.89573
-6.59972
-6.30329
-6.00794
-5.71517
-5.42645
-5.14316
-4.86662
-4.59802
-4.33843
-4.08879
-3.84985
-3.62223
-3.40634
-3.20246
-3.01065
-2.83086
-2.66283
-2.5062
-2.36046
-2.22496
-2.09899
-1.98172
-1.87225
-1.76964
-1.67291
-1.58105
-1.49309
-1.40806
-1.32508
-1.24335
-1.16218
-1.08106
-0.999629
-0.917733
-0.835481
-0.753047
-0.671132
-0.5899
-0.511124
-0.433491
-0.362263
-0.288816
-0.233085
-0.155174
-0.138001
-0.011259
-0.123633
-11.0394
-11.0674
-11.0963
-11.1253
-11.1542
-11.183
-11.2116
-11.2401
-11.2685
-11.2967
-11.3247
-11.3522
-11.3789
-11.4044
-11.4283
-11.4501
-11.4693
-11.4853
-11.4976
-11.5058
-11.5092
-11.5074
-11.4999
-11.4862
-11.466
-11.4386
-11.4037
-11.3608
-11.3094
-11.249
-11.1792
-11.0996
-11.0096
-10.909
-10.7972
-10.6741
-10.5392
-10.3923
-10.2334
-10.0623
-9.87895
-9.68351
-9.47617
-9.25725
-9.02718
-8.78653
-8.53599
-8.27637
-8.00861
-7.73377
-7.45301
-7.16759
-6.87884
-6.58815
-6.29696
-6.0067
-5.71881
-5.4347
-5.15571
-4.88311
-4.61804
-4.36156
-4.11457
-3.87782
-3.6519
-3.43725
-3.23414
-3.04267
-2.8628
-2.6943
-2.53685
-2.38997
-2.25308
-2.12548
-2.0064
-1.89499
-1.79037
-1.6916
-1.59773
-1.50782
-1.42097
-1.33633
-1.25313
-1.17073
-1.0886
-1.00644
-0.924045
-0.841526
-0.759012
-0.677165
-0.59607
-0.517465
-0.439893
-0.368685
-0.294879
-0.238895
-0.159811
-0.142392
-0.0130653
-0.126334
-11.0315
-11.0575
-11.0842
-11.1113
-11.1383
-11.1652
-11.192
-11.2187
-11.2451
-11.2712
-11.2969
-11.3219
-11.3461
-11.3689
-11.39
-11.409
-11.4253
-11.4385
-11.4481
-11.4536
-11.4544
-11.4501
-11.4403
-11.4245
-11.4021
-11.3729
-11.3362
-11.2917
-11.2388
-11.1772
-11.1064
-11.026
-10.9355
-10.8346
-10.7229
-10.6
-10.4658
-10.32
-10.1625
-9.99306
-9.81184
-9.61889
-9.41443
-9.19874
-8.97228
-8.73556
-8.48927
-8.23418
-7.9712
-7.70134
-7.4257
-7.1455
-6.86201
-6.57655
-6.29051
-6.00526
-5.72219
-5.44263
-5.16788
-4.89917
-4.63761
-4.38421
-4.13985
-3.90528
-3.68107
-3.46768
-3.26537
-3.07427
-2.89434
-2.72541
-2.56718
-2.41921
-2.28096
-2.15177
-2.03093
-1.91764
-1.81105
-1.71028
-1.61443
-1.52262
-1.43398
-1.34771
-1.26307
-1.17944
-1.09634
-1.01344
-0.930549
-0.847755
-0.765149
-0.683352
-0.602373
-0.523913
-0.446382
-0.375163
-0.300996
-0.244707
-0.164502
-0.146709
-0.0149919
-0.128798
-11.023
-11.047
-11.0718
-11.0969
-11.1221
-11.1472
-11.1722
-11.1969
-11.2213
-11.2453
-11.2688
-11.2914
-11.313
-11.3332
-11.3517
-11.3679
-11.3815
-11.392
-11.3989
-11.4017
-11.4
-11.3933
-11.3812
-11.3632
-11.3388
-11.3076
-11.2692
-11.2231
-11.1689
-11.1061
-11.0343
-10.9531
-10.8622
-10.761
-10.6494
-10.5269
-10.3934
-10.2486
-10.0924
-9.92472
-9.7456
-9.55512
-9.35349
-9.14101
-8.91808
-8.68525
-8.44314
-8.1925
-7.93422
-7.66924
-7.39864
-7.12356
-6.84523
-6.56492
-6.28394
-6.00362
-5.72528
-5.4502
-5.17964
-4.91477
-4.65667
-4.40633
-4.16459
-3.93219
-3.70971
-3.49758
-3.29609
-3.10538
-2.92544
-2.75612
-2.59715
-2.44813
-2.30856
-2.17784
-2.05529
-1.94015
-1.83164
-1.72892
-1.63114
-1.53746
-1.44707
-1.35919
-1.27314
-1.18832
-1.10425
-1.02062
-0.937241
-0.854167
-0.771458
-0.689692
-0.60881
-0.53047
-0.452962
-0.3817
-0.307169
-0.250528
-0.169246
-0.150961
-0.0170229
-0.131052
-11.0138
-11.0361
-11.0591
-11.0823
-11.1057
-11.1289
-11.152
-11.1748
-11.1973
-11.2192
-11.2404
-11.2607
-11.2798
-11.2975
-11.3133
-11.3269
-11.3378
-11.3456
-11.3499
-11.3502
-11.3461
-11.337
-11.3227
-11.3025
-11.2761
-11.2431
-11.203
-11.1553
-11.0997
-11.0358
-10.9631
-10.8812
-10.7897
-10.6884
-10.5768
-10.4547
-10.3219
-10.1781
-10.0233
-9.85733
-9.68028
-9.49225
-9.29341
-9.08408
-8.86465
-8.63562
-8.39762
-8.15136
-7.89768
-7.63749
-7.37183
-7.10178
-6.82851
-6.55325
-6.27724
-6.00176
-5.72807
-5.45741
-5.19097
-4.92989
-4.67521
-4.42789
-4.18876
-3.95852
-3.73776
-3.52691
-3.32626
-3.13596
-2.95604
-2.78637
-2.6267
-2.47668
-2.33585
-2.20364
-2.07942
-1.96249
-1.85211
-1.74748
-1.64782
-1.55232
-1.46022
-1.37078
-1.28334
-1.19735
-1.11233
-1.02799
-0.944114
-0.860756
-0.777933
-0.696184
-0.615381
-0.537139
-0.459635
-0.388303
-0.313404
-0.256364
-0.174042
-0.155157
-0.0191437
-0.133125
-11.0041
-11.0247
-11.0459
-11.0674
-11.0889
-11.1104
-11.1316
-11.1525
-11.1729
-11.1927
-11.2118
-11.2298
-11.2465
-11.2617
-11.275
-11.286
-11.2943
-11.2996
-11.3014
-11.2992
-11.2926
-11.2813
-11.2647
-11.2424
-11.2141
-11.1793
-11.1375
-11.0883
-11.0314
-10.9664
-10.8927
-10.8101
-10.7182
-10.6167
-10.5052
-10.3835
-10.2514
-10.1087
-9.9552
-9.79096
-9.61597
-9.43034
-9.23426
-9.02803
-8.81202
-8.58674
-8.35276
-8.11079
-7.86162
-7.60613
-7.34529
-7.08017
-6.81187
-6.54155
-6.27041
-5.99968
-5.73055
-5.46422
-5.20184
-4.9445
-4.6932
-4.44886
-4.21231
-3.98423
-3.76518
-3.55562
-3.35583
-3.16598
-2.98611
-2.81612
-2.6558
-2.50483
-2.36277
-2.22913
-2.1033
-1.98463
-1.87242
-1.76594
-1.66444
-1.56717
-1.47339
-1.38243
-1.29364
-1.2065
-1.12056
-1.03551
-0.951156
-0.867513
-0.78457
-0.702825
-0.622085
-0.543918
-0.466405
-0.394975
-0.319705
-0.262223
-0.178893
-0.159311
-0.0213412
-0.135044
-10.9937
-11.0129
-11.0324
-11.0522
-11.0719
-11.0916
-11.111
-11.13
-11.1484
-11.1662
-11.183
-11.1988
-11.2132
-11.226
-11.2368
-11.2453
-11.2512
-11.2539
-11.2532
-11.2487
-11.2398
-11.2262
-11.2074
-11.1831
-11.1529
-11.1163
-11.0729
-11.0223
-10.9641
-10.8979
-10.8234
-10.7401
-10.6478
-10.5461
-10.4348
-10.3135
-10.1821
-10.0404
-9.88824
-9.72568
-9.55272
-9.36946
-9.17609
-8.9729
-8.76026
-8.53863
-8.3086
-8.07083
-7.82607
-7.57517
-7.31906
-7.05875
-6.7953
-6.52982
-6.26346
-5.99737
-5.73272
-5.47064
-5.21224
-4.95857
-4.7106
-4.46921
-4.23521
-4.00927
-3.79194
-3.58366
-3.38475
-3.19537
-3.01558
-2.84531
-2.68439
-2.5325
-2.38928
-2.25425
-2.12686
-2.00651
-1.89254
-1.78426
-1.68097
-1.58197
-1.48657
-1.39412
-1.30402
-1.21576
-1.12892
-1.04318
-0.958353
-0.874427
-0.79136
-0.709607
-0.628918
-0.55081
-0.473272
-0.401721
-0.326077
-0.268113
-0.183801
-0.163435
-0.0236034
-0.136836
-10.9829
-11.0005
-11.0185
-11.0366
-11.0547
-11.0726
-11.0902
-11.1073
-11.1238
-11.1395
-11.1543
-11.1678
-11.18
-11.1904
-11.1989
-11.205
-11.2084
-11.2087
-11.2056
-11.1987
-11.1876
-11.1718
-11.1509
-11.1247
-11.0926
-11.0542
-11.0092
-10.9572
-10.8978
-10.8305
-10.7552
-10.6713
-10.5786
-10.4768
-10.3655
-10.2447
-10.114
-9.97326
-9.82248
-9.66159
-9.49062
-9.30969
-9.11898