/*--------------------------------*- C++ -*----------------------------------*\
  =========                 |
  \\      /  F ield         | OpenFOAM: The Open Source CFD Toolbox
   \\    /   O peration     | Website:  https://openfoam.org
    \\  /    A nd           | Version:  10
     \\/     M anipulation  |
\*---------------------------------------------------------------------------*/
FoamFile
{
    format      ascii;
    class       volVectorField;
    location    "0.165";
    object      U;
}
// * * * * * * * * * * * * * * * * * * * * * * * * * * * * * * * * * * * * * //

dimensions      [0 1 -1 0 0 0 0];

internalField   nonuniform List<vector> 
6820
(
(7.33663 -0.25471 0)
(7.37112 -0.152742 0)
(7.32901 -0.0594701 0)
(7.25216 -0.0117202 0)
(7.17477 0.00796783 0)
(7.10491 0.0139719 0)
(7.04387 0.0144599 0)
(6.99102 0.0130827 0)
(6.94493 0.0113315 0)
(6.90419 0.00975385 0)
(6.86773 0.00849001 0)
(6.83472 0.00752725 0)
(6.80458 0.00680927 0)
(6.77683 0.00627681 0)
(6.75114 0.0058803 0)
(6.72723 0.00558213 0)
(6.70489 0.00535495 0)
(6.68394 0.00517964 0)
(6.66424 0.00504335 0)
(6.64564 0.00493799 0)
(6.62803 0.00485935 0)
(6.61131 0.00480676 0)
(6.59535 0.00478347 0)
(6.58003 0.00479826 0)
(6.5652 0.00486809 0)
(6.55068 0.00502692 0)
(6.53618 0.00534319 0)
(6.52127 0.00590993 0)
(6.50495 0.00728274 0)
(6.48598 0.00875948 0)
(6.46075 0.0176771 0)
(6.41685 0.0200277 0)
(6.36953 0.0475713 0)
(7.32387 0.121387 0)
(7.3044 0.123276 0)
(7.30895 0.0779708 0)
(7.32918 0.0527911 0)
(7.34726 0.0391902 0)
(7.35531 0.0313833 0)
(7.35433 0.0269291 0)
(7.34723 0.0241809 0)
(7.33628 0.022281 0)
(7.32307 0.0208382 0)
(7.30865 0.0196569 0)
(7.2937 0.0186369 0)
(7.2786 0.0177279 0)
(7.26361 0.0169039 0)
(7.24888 0.0161499 0)
(7.23448 0.0154573 0)
(7.22047 0.0148201 0)
(7.20686 0.0142344 0)
(7.19365 0.0136979 0)
(7.18086 0.0132097 0)
(7.16846 0.0127707 0)
(7.15644 0.0123844 0)
(7.14478 0.0120583 0)
(7.13346 0.0118062 0)
(7.12246 0.0116522 0)
(7.11174 0.011645 0)
(7.10134 0.0118568 0)
(7.09108 0.0124946 0)
(7.08173 0.0137732 0)
(7.07182 0.0166746 0)
(7.06819 0.0223628 0)
(7.06251 0.0337988 0)
(7.09206 0.0630533 0)
(7.32565 -0.0437917 0)
(7.32324 -0.0517308 0)
(7.33516 -0.0261991 0)
(7.343 -0.00271816 0)
(7.34792 0.0104311 0)
(7.3521 0.0168819 0)
(7.35511 0.0199533 0)
(7.35664 0.0212394 0)
(7.3567 0.0215821 0)
(7.35539 0.0214549 0)
(7.35297 0.0211047 0)
(7.34965 0.0206583 0)
(7.34564 0.0201818 0)
(7.34111 0.0197083 0)
(7.33618 0.0192534 0)
(7.33098 0.0188238 0)
(7.32558 0.0184223 0)
(7.32004 0.01805 0)
(7.31442 0.0177079 0)
(7.30874 0.0173979 0)
(7.30305 0.0171234 0)
(7.29734 0.0168903 0)
(7.29163 0.0167086 0)
(7.28592 0.0165943 0)
(7.2802 0.0165752 0)
(7.27443 0.0166899 0)
(7.26863 0.017028 0)
(7.26267 0.017649 0)
(7.25676 0.0189623 0)
(7.25044 0.0206249 0)
(7.24523 0.0249751 0)
(7.23985 0.0275032 0)
(7.23882 0.0377198 0)
(7.33338 0.0117892 0)
(7.33034 0.0329197 0)
(7.32954 0.0333515 0)
(7.33254 0.0276459 0)
(7.33795 0.0242607 0)
(7.34347 0.0227878 0)
(7.34808 0.0222292 0)
(7.35174 0.0220051 0)
(7.35455 0.0218591 0)
(7.35656 0.0217093 0)
(7.35787 0.0215304 0)
(7.35858 0.0213168 0)
(7.35876 0.0210725 0)
(7.3585 0.0208052 0)
(7.35786 0.0205226 0)
(7.35692 0.0202322 0)
(7.35571 0.0199408 0)
(7.35429 0.0196547 0)
(7.35269 0.0193802 0)
(7.35095 0.0191243 0)
(7.34907 0.0188953 0)
(7.34708 0.018704 0)
(7.34498 0.0185657 0)
(7.34279 0.0185019 0)
(7.3405 0.0185469 0)
(7.3381 0.0187481 0)
(7.33561 0.0191933 0)
(7.333 0.0199784 0)
(7.33042 0.0213708 0)
(7.3278 0.0234224 0)
(7.32603 0.0270952 0)
(7.32526 0.0313884 0)
(7.32749 0.0391595 0)
(7.33122 -0.00352092 0)
(7.33003 -0.0043239 0)
(7.33358 0.0012819 0)
(7.33716 0.00873492 0)
(7.34044 0.014104 0)
(7.3437 0.0171134 0)
(7.34685 0.0187556 0)
(7.34983 0.0196734 0)
(7.35258 0.0201715 0)
(7.35503 0.0204206 0)
(7.35716 0.0205166 0)
(7.359 0.0205131 0)
(7.36054 0.0204433 0)
(7.36182 0.0203295 0)
(7.36285 0.0201867 0)
(7.36366 0.0200257 0)
(7.36428 0.0198553 0)
(7.36473 0.0196829 0)
(7.36502 0.0195161 0)
(7.36517 0.0193627 0)
(7.36519 0.0192323 0)
(7.3651 0.0191372 0)
(7.3649 0.019094 0)
(7.36459 0.0191257 0)
(7.36419 0.0192664 0)
(7.36369 0.019561 0)
(7.36313 0.0200865 0)
(7.36251 0.0209171 0)
(7.36199 0.0222414 0)
(7.36162 0.0240589 0)
(7.36193 0.0268455 0)
(7.36326 0.0298177 0)
(7.36629 0.0337004 0)
(7.33264 0.00208498 0)
(7.33223 0.00991315 0)
(7.33391 0.0141152 0)
(7.3364 0.0159942 0)
(7.33938 0.0171086 0)
(7.34255 0.0178894 0)
(7.34559 0.0185039 0)
(7.34843 0.0189718 0)
(7.35107 0.0192921 0)
(7.35353 0.0194939 0)
(7.35581 0.0196073 0)
(7.35792 0.0196532 0)
(7.35986 0.0196476 0)
(7.36166 0.0196028 0)
(7.3633 0.0195287 0)
(7.36481 0.0194337 0)
(7.3662 0.0193253 0)
(7.36746 0.0192107 0)
(7.36862 0.0190976 0)
(7.36967 0.0189945 0)
(7.37062 0.0189118 0)
(7.37148 0.0188626 0)
(7.37226 0.0188639 0)
(7.37296 0.0189387 0)
(7.37359 0.019119 0)
(7.37416 0.0194454 0)
(7.37471 0.0199794 0)
(7.37529 0.0207803 0)
(7.376 0.0219622 0)
(7.37699 0.0235292 0)
(7.37857 0.0256575 0)
(7.38107 0.0279345 0)
(7.38477 0.0304038 0)
(7.33258 0.000835427 0)
(7.33242 0.00453098 0)
(7.33426 0.0080906 0)
(7.33684 0.0112994 0)
(7.33962 0.0138908 0)
(7.34243 0.01567 0)
(7.34512 0.0168273 0)
(7.34768 0.0175768 0)
(7.35012 0.0180536 0)
(7.35244 0.0183508 0)
(7.35465 0.0185286 0)
(7.35676 0.0186232 0)
(7.35878 0.0186582 0)
(7.36071 0.01865 0)
(7.36255 0.0186105 0)
(7.36431 0.0185489 0)
(7.36599 0.0184733 0)
(7.3676 0.0183911 0)
(7.36914 0.0183099 0)
(7.37061 0.0182384 0)
(7.37201 0.0181868 0)
(7.37335 0.0181677 0)
(7.37464 0.0181975 0)
(7.37588 0.0182969 0)
(7.37709 0.0184938 0)
(7.37828 0.0188213 0)
(7.37949 0.0193247 0)
(7.38078 0.0200439 0)
(7.38224 0.0210395 0)
(7.38401 0.0222977 0)
(7.38629 0.0238474 0)
(7.38931 0.0254171 0)
(7.39316 0.0268215 0)
(7.33284 0.00133888 0)
(7.333 0.00537077 0)
(7.33456 0.00893407 0)
(7.33677 0.0116299 0)
(7.33924 0.0136121 0)
(7.34184 0.014982 0)
(7.3444 0.0159251 0)
(7.34685 0.0165818 0)
(7.3492 0.0170286 0)
(7.35145 0.0173223 0)
(7.3536 0.0175066 0)
(7.35568 0.0176114 0)
(7.35768 0.0176576 0)
(7.35962 0.0176609 0)
(7.36151 0.0176326 0)
(7.36334 0.017582 0)
(7.36513 0.017517 0)
(7.36687 0.017445 0)
(7.36857 0.0173735 0)
(7.37022 0.017311 0)
(7.37184 0.0172672 0)
(7.37342 0.017254 0)
(7.37497 0.017286 0)
(7.37651 0.0173812 0)
(7.37804 0.017562 0)
(7.37959 0.0178538 0)
(7.38119 0.0182867 0)
(7.38291 0.0188837 0)
(7.38482 0.0196691 0)
(7.38703 0.0206162 0)
(7.38968 0.02169 0)
(7.3929 0.0227032 0)
(7.39671 0.0234564 0)
(7.33291 0.00133869 0)
(7.3332 0.00469451 0)
(7.33459 0.00774417 0)
(7.33661 0.0102205 0)
(7.3389 0.0121898 0)
(7.34132 0.0136504 0)
(7.34373 0.0146904 0)
(7.34607 0.0154192 0)
(7.34832 0.0159162 0)
(7.3505 0.0162443 0)
(7.3526 0.0164517 0)
(7.35463 0.0165715 0)
(7.35661 0.0166272 0)
(7.35853 0.0166357 0)
(7.36042 0.0166098 0)
(7.36226 0.0165596 0)
(7.36408 0.0164935 0)
(7.36586 0.0164192 0)
(7.36762 0.0163443 0)
(7.36935 0.016277 0)
(7.37107 0.0162263 0)
(7.37277 0.0162029 0)
(7.37446 0.0162194 0)
(7.37615 0.0162905 0)
(7.37787 0.0164329 0)
(7.37963 0.0166643 0)
(7.38147 0.0170022 0)
(7.38344 0.0174558 0)
(7.3856 0.0180264 0)
(7.38805 0.0186793 0)
(7.39085 0.019357 0)
(7.39409 0.0199229 0)
(7.39774 0.0202133 0)
(7.33297 0.00131594 0)
(7.33334 0.00434103 0)
(7.3346 0.00714803 0)
(7.33641 0.00945841 0)
(7.3385 0.011291 0)
(7.34074 0.0126632 0)
(7.34301 0.0136552 0)
(7.34524 0.0143632 0)
(7.34742 0.0148569 0)
(7.34954 0.0151896 0)
(7.35159 0.015403 0)
(7.35359 0.0155275 0)
(7.35554 0.0155853 0)
(7.35744 0.0155932 0)
(7.35932 0.0155641 0)
(7.36116 0.0155083 0)
(7.36298 0.0154345 0)
(7.36477 0.0153505 0)
(7.36655 0.0152637 0)
(7.36832 0.0151818 0)
(7.37007 0.0151132 0)
(7.37183 0.0150671 0)
(7.3736 0.0150537 0)
(7.37538 0.0150843 0)
(7.3772 0.0151705 0)
(7.37909 0.015323 0)
(7.38106 0.0155496 0)
(7.38317 0.0158493 0)
(7.38547 0.0162104 0)
(7.38801 0.0165953 0)
(7.39084 0.0169439 0)
(7.39401 0.0171551 0)
(7.39748 0.0171088 0)
(7.333 0.00125495 0)
(7.3334 0.00396016 0)
(7.33454 0.00647577 0)
(7.33618 0.00858159 0)
(7.3381 0.0102825 0)
(7.34018 0.0115935 0)
(7.34231 0.0125673 0)
(7.34444 0.0132756 0)
(7.34654 0.0137767 0)
(7.34859 0.0141179 0)
(7.3506 0.0143379 0)
(7.35256 0.014466 0)
(7.35448 0.0145241 0)
(7.35636 0.0145291 0)
(7.35822 0.0144941 0)
(7.36005 0.0144296 0)
(7.36186 0.0143443 0)
(7.36366 0.014246 0)
(7.36544 0.0141419 0)
(7.36722 0.0140391 0)
(7.369 0.0139451 0)
(7.37079 0.0138674 0)
(7.3726 0.013814 0)
(7.37443 0.0137929 0)
(7.37632 0.0138113 0)
(7.37827 0.013874 0)
(7.38032 0.0139817 0)
(7.3825 0.0141269 0)
(7.38485 0.0142912 0)
(7.38741 0.0144379 0)
(7.3902 0.014513 0)
(7.39325 0.0144409 0)
(7.39651 0.0141377 0)
(7.33302 0.00117215 0)
(7.33343 0.00360382 0)
(7.33446 0.00587122 0)
(7.33596 0.00780006 0)
(7.33772 0.00937698 0)
(7.33964 0.0106118 0)
(7.34165 0.0115431 0)
(7.34367 0.0122282 0)
(7.34569 0.0127178 0)
(7.34767 0.0130538 0)
(7.34963 0.0132707 0)
(7.35155 0.0133954 0)
(7.35344 0.0134489 0)
(7.3553 0.0134471 0)
(7.35714 0.0134029 0)
(7.35895 0.0133265 0)
(7.36076 0.0132265 0)
(7.36255 0.0131104 0)
(7.36433 0.0129849 0)
(7.36612 0.0128566 0)
(7.36791 0.0127316 0)
(7.36971 0.0126159 0)
(7.37154 0.0125155 0)
(7.37341 0.0124352 0)
(7.37532 0.0123785 0)
(7.37731 0.0123459 0)
(7.37939 0.0123333 0)
(7.3816 0.0123293 0)
(7.38395 0.0123131 0)
(7.38648 0.0122513 0)
(7.38919 0.0120985 0)
(7.39209 0.0117983 0)
(7.39516 0.0112935 0)
(7.33303 0.00107896 0)
(7.33343 0.00326405 0)
(7.33438 0.00530043 0)
(7.33574 0.0070533 0)
(7.33735 0.00850168 0)
(7.33914 0.0096523 0)
(7.34103 0.0105334 0)
(7.34295 0.0111893 0)
(7.34488 0.0116621 0)
(7.3468 0.0119877 0)
(7.3487 0.0121968 0)
(7.35058 0.0123142 0)
(7.35244 0.0123593 0)
(7.35427 0.0123474 0)
(7.35608 0.012291 0)
(7.35789 0.0121999 0)
(7.35967 0.0120823 0)
(7.36146 0.0119454 0)
(7.36324 0.0117953 0)
(7.36502 0.0116376 0)
(7.36681 0.0114774 0)
(7.36862 0.0113192 0)
(7.37046 0.0111669 0)
(7.37234 0.0110228 0)
(7.37427 0.0108876 0)
(7.37627 0.0107585 0)
(7.37836 0.0106285 0)
(7.38056 0.0104844 0)
(7.38288 0.0103057 0)
(7.38535 0.0100633 0)
(7.38796 0.0097203 0)
(7.39072 0.00923486 0)
(7.39359 0.00856833 0)
(7.33303 0.00098173 0)
(7.33341 0.00294083 0)
(7.33428 0.00476478 0)
(7.33553 0.00635015 0)
(7.33702 0.00767255 0)
(7.33869 0.00873488 0)
(7.34046 0.00955749 0)
(7.34228 0.0101746 0)
(7.34413 0.010621 0)
(7.34599 0.010928 0)
(7.34783 0.0111224 0)
(7.34966 0.0112267 0)
(7.35148 0.0112588 0)
(7.35328 0.011233 0)
(7.35507 0.011161 0)
(7.35685 0.0110521 0)
(7.35863 0.0109141 0)
(7.36039 0.0107535 0)
(7.36216 0.0105757 0)
(7.36394 0.0103855 0)
(7.36573 0.0101868 0)
(7.36754 0.00998281 0)
(7.36938 0.00977553 0)
(7.37126 0.00956542 0)
(7.37319 0.00935083 0)
(7.37518 0.00912704 0)
(7.37725 0.00888547 0)
(7.37942 0.00861259 0)
(7.3817 0.00828939 0)
(7.38408 0.0078913 0)
(7.38658 0.00738922 0)
(7.38919 0.0067521 0)
(7.39188 0.00595394 0)
(7.33303 0.000884294 0)
(7.33339 0.00263322 0)
(7.3342 0.00425951 0)
(7.33534 0.0056834 0)
(7.33672 0.00688017 0)
(7.33827 0.00784973 0)
(7.33994 0.00860676 0)
(7.34167 0.00917756 0)
(7.34344 0.00959074 0)
(7.34523 0.00987274 0)
(7.34702 0.010047 0)
(7.3488 0.0101335 0)
(7.35058 0.0101485 0)
(7.35235 0.0101052 0)
(7.35411 0.0100145 0)
(7.35587 0.00988497 0)
(7.35762 0.0097238 0)
(7.35937 0.00953682 0)
(7.36113 0.00932879 0)
(7.36289 0.00910357 0)
(7.36467 0.00886405 0)
(7.36647 0.00861211 0)
(7.3683 0.00834836 0)
(7.37017 0.00807174 0)
(7.37208 0.00777909 0)
(7.37405 0.00746453 0)
(7.3761 0.00711889 0)
(7.37822 0.00672926 0)
(7.38043 0.0062788 0)
(7.38273 0.00574723 0)
(7.38511 0.00511189 0)
(7.38757 0.00434977 0)
(7.39009 0.00344349 0)
(7.33303 0.000788745 0)
(7.33337 0.00234027 0)
(7.33411 0.00378137 0)
(7.33516 0.00504982 0)
(7.33644 0.00612231 0)
(7.33789 0.00699642 0)
(7.33947 0.00768244 0)
(7.34111 0.00820048 0)
(7.34281 0.00857374 0)
(7.34453 0.00882451 0)
(7.34626 0.00897303 0)
(7.348 0.00903683 0)
(7.34973 0.00903053 0)
(7.35147 0.00896616 0)
(7.3532 0.00885354 0)
(7.35493 0.0087006 0)
(7.35666 0.00851375 0)
(7.35839 0.00829813 0)
(7.36013 0.00805776 0)
(7.36187 0.00779562 0)
(7.36363 0.00751367 0)
(7.36542 0.00721273 0)
(7.36723 0.00689227 0)
(7.36907 0.00655018 0)
(7.37096 0.00618234 0)
(7.3729 0.00578236 0)
(7.3749 0.00534118 0)
(7.37697 0.004847 0)
(7.3791 0.00428536 0)
(7.3813 0.0036398 0)
(7.38357 0.00289281 0)
(7.38589 0.00202736 0)
(7.38825 0.00103193 0)
(7.33303 0.000696133 0)
(7.33335 0.00206095 0)
(7.33403 0.00332724 0)
(7.33501 0.0044457 0)
(7.3362 0.00539516 0)
(7.33756 0.0061716 0)
(7.33904 0.00678199 0)
(7.34061 0.0072416 0)
(7.34223 0.00756908 0)
(7.34388 0.00778304 0)
(7.34556 0.00790074 0)
(7.34725 0.0079374 0)
(7.34895 0.00790595 0)
(7.35064 0.00781714 0)
(7.35234 0.00767974 0)
(7.35404 0.00750085 0)
(7.35574 0.00728612 0)
(7.35745 0.00703996 0)
(7.35916 0.00676563 0)
(7.36089 0.00646533 0)
(7.36263 0.0061402 0)
(7.36439 0.00579019 0)
(7.36617 0.00541396 0)
(7.36799 0.00500865 0)
(7.36984 0.00456969 0)
(7.37174 0.00409061 0)
(7.37368 0.00356292 0)
(7.37568 0.00297615 0)
(7.37773 0.00231815 0)
(7.37983 0.00157571 0)
(7.38198 0.000735424 0)
(7.38416 -0.000215348 0)
(7.38637 -0.0012841 0)
(7.33303 0.000606876 0)
(7.33332 0.00179415 0)
(7.33396 0.00289436 0)
(7.33486 0.00386778 0)
(7.33598 0.00469561 0)
(7.33725 0.00537283 0)
(7.33866 0.00590388 0)
(7.34015 0.00630028 0)
(7.3417 0.00657685 0)
(7.3433 0.00674895 0)
(7.34492 0.00683114 0)
(7.34656 0.0068365 0)
(7.34821 0.00677628 0)
(7.34987 0.00665988 0)
(7.35154 0.00649504 0)
(7.35321 0.00628795 0)
(7.35488 0.00604349 0)
(7.35656 0.00576531 0)
(7.35824 0.00545596 0)
(7.35994 0.00511694 0)
(7.36165 0.00474867 0)
(7.36338 0.00435043 0)
(7.36513 0.00392032 0)
(7.36691 0.00345505 0)
(7.36872 0.00294992 0)
(7.37057 0.00239871 0)
(7.37245 0.0017937 0)
(7.37437 0.00112585 0)
(7.37633 0.000385106 0)
(7.37833 -0.000439037 0)
(7.38036 -0.00135681 0)
(7.38241 -0.00237758 0)
(7.38447 -0.00350604 0)
(7.33302 0.000521023 0)
(7.3333 0.00153873 0)
(7.33389 0.00248022 0)
(7.33474 0.003313 0)
(7.33578 0.00402058 0)
(7.33698 0.00459742 0)
(7.33831 0.00504607 0)
(7.33973 0.0053751 0)
(7.34122 0.00559619 0)
(7.34276 0.00572188 0)
(7.34433 0.0057643 0)
(7.34592 0.00573451 0)
(7.34753 0.00564214 0)
(7.34915 0.00549529 0)
(7.35078 0.00530062 0)
(7.35242 0.0050634 0)
(7.35406 0.00478772 0)
(7.35571 0.00447649 0)
(7.35736 0.0041316 0)
(7.35903 0.00375392 0)
(7.36071 0.00334328 0)
(7.3624 0.00289847 0)
(7.36411 0.00241721 0)
(7.36585 0.00189605 0)
(7.3676 0.00133037 0)
(7.36939 0.000714383 0)
(7.3712 4.12696e-05 0)
(7.37304 -0.000696661 0)
(7.37491 -0.00150762 0)
(7.3768 -0.00239989 0)
(7.37871 -0.00338124 0)
(7.38064 -0.00445861 0)
(7.38256 -0.00563476 0)
(7.33302 0.000438414 0)
(7.33328 0.00129351 0)
(7.33384 0.00208256 0)
(7.33463 0.00277859 0)
(7.33561 0.00336727 0)
(7.33674 0.00384293 0)
(7.338 0.00420673 0)
(7.33936 0.00446496 0)
(7.34079 0.00462672 0)
(7.34227 0.00470209 0)
(7.34379 0.00470104 0)
(7.34534 0.00463277 0)
(7.34691 0.00450537 0)
(7.34849 0.00432564 0)
(7.35008 0.00409917 0)
(7.35168 0.00383034 0)
(7.35329 0.00352242 0)
(7.3549 0.00317765 0)
(7.35652 0.00279728 0)
(7.35815 0.00238164 0)
(7.35979 0.00193008 0)
(7.36144 0.00144107 0)
(7.36311 0.000912093 0)
(7.3648 0.000339694 0)
(7.3665 -0.0002805 0)
(7.36822 -0.000953715 0)
(7.36996 -0.00168589 0)
(7.37171 -0.00248346 0)
(7.37349 -0.00335308 0)
(7.37527 -0.00430122 0)
(7.37707 -0.00533375 0)
(7.37886 -0.00645581 0)
(7.38065 -0.00766877 0)
(7.33302 0.000358784 0)
(7.33327 0.00105736 0)
(7.33378 0.00169925 0)
(7.33453 0.00226189 0)
(7.33545 0.00273284 0)
(7.33653 0.00310659 0)
(7.33773 0.00338331 0)
(7.33903 0.00356755 0)
(7.3404 0.00366634 0)
(7.34183 0.00368766 0)
(7.3433 0.00363959 0)
(7.3448 0.00352965 0)
(7.34633 0.00336445 0)
(7.34787 0.00314959 0)
(7.34942 0.00288959 0)
(7.35099 0.00258794 0)
(7.35256 0.00224715 0)
(7.35414 0.00186879 0)
(7.35572 0.00145353 0)
(7.35731 0.00100123 0)
(7.35891 0.000510889 0)
(7.36052 -1.92974e-05 0)
(7.36213 -0.00059192 0)
(7.36376 -0.00121033 0)
(7.3654 -0.00187857 0)
(7.36705 -0.00260128 0)
(7.36871 -0.00338356 0)
(7.37038 -0.00423074 0)
(7.37206 -0.00514814 0)
(7.37374 -0.00614081 0)
(7.37542 -0.00721316 0)
(7.37709 -0.00836896 0)
(7.37875 -0.00960858 0)
(7.33302 0.000281821 0)
(7.33325 0.000829171 0)
(7.33374 0.00132845 0)
(7.33444 0.00176068 0)
(7.33531 0.00211518 0)
(7.33634 0.0023868 0)
(7.33748 0.00257511 0)
(7.33873 0.00268328 0)
(7.34005 0.00271664 0)
(7.34143 0.00268139 0)
(7.34285 0.00258389 0)
(7.34431 0.00243011 0)
(7.3458 0.00222529 0)
(7.3473 0.00197384 0)
(7.34882 0.00167928 0)
(7.35034 0.00134425 0)
(7.35188 0.000970517 0)
(7.35342 0.000559036 0)
(7.35496 0.000109982 0)
(7.35651 -0.000377206 0)
(7.35806 -0.000903802 0)
(7.35962 -0.00147176 0)
(7.36118 -0.00208366 0)
(7.36275 -0.00274269 0)
(7.36433 -0.00345252 0)
(7.3659 -0.0042172 0)
(7.36748 -0.00504106 0)
(7.36907 -0.00592847 0)
(7.37065 -0.00688368 0)
(7.37222 -0.00791058 0)
(7.37379 -0.00901244 0)
(7.37534 -0.010192 0)
(7.37687 -0.011449 0)
(7.33302 0.000207192 0)
(7.33324 0.000607828 0)
(7.3337 0.000968129 0)
(7.33436 0.00127198 0)
(7.33519 0.00151027 0)
(7.33617 0.0016784 0)
(7.33726 0.00177566 0)
(7.33846 0.00180441 0)
(7.33973 0.00176865 0)
(7.34107 0.00167315 0)
(7.34245 0.00152279 0)
(7.34387 0.00132231 0)
(7.34532 0.00107559 0)
(7.34678 0.000785915 0)
(7.34826 0.000455841 0)
(7.34975 8.71626e-05 0)
(7.35124 -0.000319082 0)
(7.35274 -0.000762537 0)
(7.35424 -0.00124351 0)
(7.35574 -0.00176292 0)
(7.35725 -0.00232228 0)
(7.35875 -0.00292365 0)
(7.36026 -0.00356956 0)
(7.36177 -0.00426299 0)
(7.36327 -0.00500724 0)
(7.36478 -0.00580585 0)
(7.36627 -0.00666243 0)
(7.36777 -0.00758057 0)
(7.36925 -0.00856364 0)
(7.37072 -0.0096146 0)
(7.37218 -0.0107359 0)
(7.37361 -0.0119294 0)
(7.37502 -0.0131944 0)
(7.33302 0.000134605 0)
(7.33322 0.000392594 0)
(7.33366 0.000617538 0)
(7.33429 0.000795949 0)
(7.33508 0.000920363 0)
(7.33602 0.000986792 0)
(7.33707 0.000994112 0)
(7.33822 0.000944012 0)
(7.33945 0.000839361 0)
(7.34075 0.000683594 0)
(7.34209 0.000480299 0)
(7.34347 0.00023257 0)
(7.34488 -5.65636e-05 0)
(7.3463 -0.000384822 0)
(7.34774 -0.000750572 0)
(7.34919 -0.00115278 0)
(7.35065 -0.00159105 0)
(7.35211 -0.00206553 0)
(7.35356 -0.00257692 0)
(7.35502 -0.00312643 0)
(7.35648 -0.00371574 0)
(7.35793 -0.00434694 0)
(7.35938 -0.00502247 0)
(7.36082 -0.00574508 0)
(7.36225 -0.0065177 0)
(7.36368 -0.00734339 0)
(7.3651 -0.00822519 0)
(7.3665 -0.009166 0)
(7.36789 -0.0101685 0)
(7.36926 -0.0112348 0)
(7.3706 -0.0123669 0)
(7.37192 -0.013566 0)
(7.37321 -0.014831 0)
(7.33302 6.36723e-05 0)
(7.33321 0.000181694 0)
(7.33363 0.000272123 0)
(7.33423 0.00032328 0)
(7.33499 0.00032918 0)
(7.33589 0.000287272 0)
(7.3369 0.000197693 0)
(7.33802 6.16362e-05 0)
(7.33921 -0.000118584 0)
(7.34047 -0.000340356 0)
(7.34177 -0.000601176 0)
(7.34312 -0.000899133 0)
(7.34449 -0.00123236 0)
(7.34588 -0.00159967 0)
(7.34728 -0.00200043 0)
(7.34869 -0.00243447 0)
(7.35011 -0.00290209 0)
(7.35152 -0.00340404 0)
(7.35293 -0.00394146 0)
(7.35434 -0.0045159 0)
(7.35575 -0.00512922 0)
(7.35714 -0.00578356 0)
(7.35853 -0.0064813 0)
(7.3599 -0.00722499 0)
(7.36127 -0.00801727 0)
(7.36262 -0.00886077 0)
(7.36395 -0.00975805 0)
(7.36527 -0.0107114 0)
(7.36656 -0.0117231 0)
(7.36783 -0.0127946 0)
(7.36907 -0.0139272 0)
(7.37028 -0.0151219 0)
(7.37145 -0.0163773 0)
(7.33302 -5.48719e-06 0)
(7.3332 -2.2511e-05 0)
(7.3336 -5.96035e-05 0)
(7.33417 -0.000126389 0)
(7.3349 -0.000227769 0)
(7.33576 -0.000366167 0)
(7.33675 -0.000541993 0)
(7.33783 -0.000754934 0)
(7.33899 -0.00100365 0)
(7.34022 -0.00128652 0)
(7.34149 -0.00160205 0)
(7.3428 -0.0019488 0)
(7.34414 -0.00232602 0)
(7.3455 -0.00273325 0)
(7.34687 -0.00317046 0)
(7.34824 -0.00363799 0)
(7.34962 -0.00413661 0)
(7.35099 -0.00466741 0)
(7.35236 -0.00523183 0)
(7.35372 -0.00583157 0)
(7.35507 -0.00646857 0)
(7.35641 -0.00714497 0)
(7.35773 -0.00786303 0)
(7.35904 -0.00862511 0)
(7.36034 -0.00943355 0)
(7.36161 -0.0102906 0)
(7.36286 -0.0111985 0)
(7.36409 -0.0121591 0)
(7.36529 -0.0131741 0)
(7.36646 -0.0142447 0)
(7.36759 -0.0153717 0)
(7.3687 -0.0165559 0)
(7.36976 -0.0177957 0)
(7.33302 -7.43723e-05 0)
(7.3332 -0.000230962 0)
(7.33358 -0.000408932 0)
(7.33413 -0.000615845 0)
(7.33484 -0.00085207 0)
(7.33568 -0.00111567 0)
(7.33663 -0.00140454 0)
(7.33769 -0.00171643 0)
(7.33882 -0.00204997 0)
(7.34001 -0.00240447 0)
(7.34126 -0.00277984 0)
(7.34254 -0.00317641 0)
(7.34384 -0.00359492 0)
(7.34516 -0.00403638 0)
(7.3465 -0.00450205 0)
(7.34784 -0.00499339 0)
(7.34917 -0.00551206 0)
(7.3505 -0.00605986 0)
(7.35183 -0.00663875 0)
(7.35314 -0.0072508 0)
(7.35444 -0.00789816 0)
(7.35572 -0.00858305 0)
(7.35699 -0.00930771 0)
(7.35823 -0.0100743 0)
(7.35945 -0.010885 0)
(7.36065 -0.0117418 0)
(7.36182 -0.0126465 0)
(7.36296 -0.0136007 0)
(7.36407 -0.0146056 0)
(7.36514 -0.0156621 0)
(7.36618 -0.0167708 0)
(7.36718 -0.0179322 0)
(7.36814 -0.0191444 0)
(7.33301 -0.000138077 0)
(7.33318 -0.000409774 0)
(7.33353 -0.000686971 0)
(7.33406 -0.000980121 0)
(7.33473 -0.00129397 0)
(7.33555 -0.00163028 0)
(7.33649 -0.00198888 0)
(7.33753 -0.00236835 0)
(7.33864 -0.00276719 0)
(7.33982 -0.00318426 0)
(7.34105 -0.00361896 0)
(7.34231 -0.00407122 0)
(7.34359 -0.00454151 0)
(7.34489 -0.00503074 0)
(7.3462 -0.00554018 0)
(7.3475 -0.00607137 0)
(7.34881 -0.00662608 0)
(7.3501 -0.00720626 0)
(7.35138 -0.00781399 0)
(7.35265 -0.00845141 0)
(7.35389 -0.00912074 0)
(7.35512 -0.00982419 0)
(7.35632 -0.0105639 0)
(7.3575 -0.0113421 0)
(7.35865 -0.0121606 0)
(7.35977 -0.0130213 0)
(7.36086 -0.0139258 0)
(7.36192 -0.0148754 0)
(7.36294 -0.0158712 0)
(7.36392 -0.0169139 0)
(7.36487 -0.0180039 0)
(7.36577 -0.0191415 0)
(7.36662 -0.0203251 0)
(7.33302 -0.000214657 0)
(7.3332 -0.000665452 0)
(7.33356 -0.00114799 0)
(7.33408 -0.00165569 0)
(7.33475 -0.00217275 0)
(7.33554 -0.00268716 0)
(7.33645 -0.0031932 0)
(7.33746 -0.00368947 0)
(7.33855 -0.00417732 0)
(7.33969 -0.00465967 0)
(7.34089 -0.0051402 0)
(7.34212 -0.00562284 0)
(7.34338 -0.00611153 0)
(7.34464 -0.00661002 0)
(7.34592 -0.00712186 0)
(7.34719 -0.00765035 0)
(7.34846 -0.00819856 0)
(7.34971 -0.00876938 0)
(7.35095 -0.00936551 0)
(7.35217 -0.00998953 0)
(7.35337 -0.0106438 0)
(7.35454 -0.0113307 0)
(7.35569 -0.0120522 0)
(7.3568 -0.0128104 0)
(7.35789 -0.0136068 0)
(7.35894 -0.0144432 0)
(7.35995 -0.0153209 0)
(7.36093 -0.0162407 0)
(7.36187 -0.0172036 0)
(7.36276 -0.01821 0)
(7.36361 -0.01926 0)
(7.36442 -0.0203538 0)
(7.36518 -0.0214896 0)
(7.333 -0.000239662 0)
(7.3331 -0.000679487 0)
(7.33339 -0.0011107 0)
(7.33387 -0.00156807 0)
(7.33452 -0.002062 0)
(7.33533 -0.00258859 0)
(7.33626 -0.00313886 0)
(7.3373 -0.00370378 0)
(7.33841 -0.00427653 0)
(7.33958 -0.00485294 0)
(7.34079 -0.00543101 0)
(7.34202 -0.00601046 0)
(7.34328 -0.00659226 0)
(7.34453 -0.00717824 0)
(7.34579 -0.00777075 0)
(7.34704 -0.00837248 0)
(7.34827 -0.00898627 0)
(7.34949 -0.009615 0)
(7.35069 -0.0102615 0)
(7.35187 -0.0109286 0)
(7.35301 -0.011619 0)
(7.35413 -0.012335 0)
(7.35522 -0.0130792 0)
(7.35627 -0.0138535 0)
(7.35729 -0.0146599 0)
(7.35826 -0.0155001 0)
(7.3592 -0.0163753 0)
(7.3601 -0.0172869 0)
(7.36095 -0.0182355 0)
(7.36176 -0.0192217 0)
(7.36252 -0.0202458 0)
(7.36324 -0.0213079 0)
(7.3639 -0.0224065 0)
(7.33305 -0.000415861 0)
(7.33329 -0.00131865 0)
(7.33365 -0.00227563 0)
(7.33413 -0.00321922 0)
(7.33473 -0.00409871 0)
(7.33546 -0.004898 0)
(7.33632 -0.00562076 0)
(7.33729 -0.00627767 0)
(7.33834 -0.00688154 0)
(7.33946 -0.0074452 0)
(7.34063 -0.00798047 0)
(7.34183 -0.00849772 0)
(7.34305 -0.00900577 0)
(7.34428 -0.009512 0)
(7.34552 -0.0100226 0)
(7.34674 -0.0105427 0)
(7.34795 -0.0110767 0)
(7.34914 -0.0116282 0)
(7.3503 -0.0122005 0)
(7.35144 -0.0127963 0)
(7.35255 -0.013418 0)
(7.35363 -0.0140676 0)
(7.35466 -0.0147471 0)
(7.35567 -0.0154581 0)
(7.35663 -0.0162017 0)
(7.35754 -0.0169793 0)
(7.35842 -0.0177916 0)
(7.35925 -0.0186393 0)
(7.36003 -0.0195228 0)
(7.36076 -0.0204423 0)
(7.36145 -0.0213976 0)
(7.36208 -0.0223887 0)
(7.36266 -0.0234139 0)
(7.33293 -0.000155555 0)
(7.33282 -0.000382498 0)
(7.33297 -0.000671335 0)
(7.33343 -0.00114759 0)
(7.33415 -0.00179889 0)
(7.33504 -0.00256438 0)
(7.33606 -0.00338934 0)
(7.33717 -0.00423568 0)
(7.33834 -0.00507941 0)
(7.33955 -0.00590651 0)
(7.34079 -0.0067101 0)
(7.34203 -0.00748831 0)
(7.34327 -0.00824241 0)
(7.3445 -0.00897554 0)
(7.34572 -0.00969191 0)
(7.34692 -0.0103962 0)
(7.3481 -0.011093 0)
(7.34925 -0.0117872 0)
(7.35037 -0.012483 0)
(7.35145 -0.0131846 0)
(7.35251 -0.0138957 0)
(7.35352 -0.0146196 0)
(7.35449 -0.0153594 0)
(7.35543 -0.0161177 0)
(7.35631 -0.0168967 0)
(7.35716 -0.0176985 0)
(7.35796 -0.0185247 0)
(7.35871 -0.0193765 0)
(7.35941 -0.0202549 0)
(7.36005 -0.0211606 0)
(7.36065 -0.022094 0)
(7.3612 -0.0230552 0)
(7.36169 -0.0240433 0)
(7.33316 -0.000864103 0)
(7.33362 -0.00287935 0)
(7.33392 -0.00485238 0)
(7.33419 -0.00652142 0)
(7.33459 -0.00784437 0)
(7.33518 -0.00888406 0)
(7.33596 -0.00970996 0)
(7.33688 -0.0103793 0)
(7.33792 -0.0109384 0)
(7.33904 -0.0114233 0)
(7.34022 -0.0118614 0)
(7.34143 -0.012273 0)
(7.34266 -0.012673 0)
(7.34389 -0.0130722 0)
(7.34511 -0.0134784 0)
(7.34632 -0.0138974 0)
(7.3475 -0.0143335 0)
(7.34865 -0.0147898 0)
(7.34977 -0.0152687 0)
(7.35086 -0.0157721 0)
(7.3519 -0.0163015 0)
(7.3529 -0.0168581 0)
(7.35385 -0.0174427 0)
(7.35476 -0.0180562 0)
(7.35562 -0.0186991 0)
(7.35642 -0.0193717 0)
(7.35718 -0.0200744 0)
(7.35788 -0.0208072 0)
(7.35853 -0.02157 0)
(7.35913 -0.0223627 0)
(7.35967 -0.0231849 0)
(7.36016 -0.0240363 0)
(7.36059 -0.0249155 0)
(7.33266 0.000532371 0)
(7.33187 0.0017866 0)
(7.3319 0.00242517 0)
(7.33262 0.0021141 0)
(7.33367 0.00115439 0)
(7.33486 -0.000129011 0)
(7.33612 -0.00153786 0)
(7.3374 -0.00296677 0)
(7.3387 -0.00435676 0)
(7.33998 -0.00567591 0)
(7.34125 -0.00691134 0)
(7.3425 -0.00806181 0)
(7.34372 -0.00913235 0)
(7.34492 -0.0101312 0)
(7.34608 -0.0110679 0)
(7.34722 -0.0119524 0)
(7.34832 -0.0127942 0)
(7.34939 -0.0136019 0)
(7.35042 -0.0143837 0)
(7.35141 -0.0151465 0)
(7.35236 -0.0158967 0)
(7.35327 -0.0166396 0)
(7.35413 -0.0173801 0)
(7.35494 -0.0181222 0)
(7.35571 -0.0188694 0)
(7.35643 -0.0196246 0)
(7.3571 -0.0203902 0)
(7.35772 -0.0211682 0)
(7.35828 -0.0219603 0)
(7.3588 -0.0227674 0)
(7.35925 -0.0235906 0)
(7.35966 -0.0244304 0)
(7.36 -0.0252864 0)
(7.33353 -0.00201722 0)
(7.33443 -0.00683006 0)
(7.33403 -0.0113201 0)
(7.33331 -0.0141323 0)
(7.33308 -0.0157498 0)
(7.3334 -0.0166782 0)
(7.3341 -0.0171745 0)
(7.33505 -0.0174098 0)
(7.33618 -0.0175021 0)
(7.33741 -0.0175275 0)
(7.33872 -0.0175335 0)
(7.34005 -0.0175492 0)
(7.3414 -0.0175913 0)
(7.34273 -0.0176689 0)
(7.34403 -0.0177866 0)
(7.3453 -0.0179461 0)
(7.34654 -0.0181472 0)
(7.34773 -0.018389 0)
(7.34887 -0.0186701 0)
(7.34996 -0.018989 0)
(7.351 -0.0193441 0)
(7.35199 -0.019734 0)
(7.35292 -0.0201572 0)
(7.3538 -0.0206126 0)
(7.35462 -0.0210989 0)
(7.35538 -0.0216152 0)
(7.35609 -0.0221605 0)
(7.35673 -0.0227337 0)
(7.35732 -0.0233341 0)
(7.35785 -0.0239608 0)
(7.35833 -0.024613 0)
(7.35874 -0.0252901 0)
(7.3591 -0.0259904 0)
(7.33179 0.00339856 0)
(7.329 0.0092209 0)
(7.32947 0.0118603 0)
(7.33182 0.0115841 0)
(7.33392 0.00950146 0)
(7.33569 0.00681504 0)
(7.33728 0.00402655 0)
(7.33872 0.00132439 0)
(7.34004 -0.0011903 0)
(7.34129 -0.00347529 0)
(7.34247 -0.0055277 0)
(7.34362 -0.00736267 0)
(7.34473 -0.00900247 0)
(7.34581 -0.0104717 0)
(7.34687 -0.0117946 0)
(7.34791 -0.0129936 0)
(7.34893 -0.0140888 0)
(7.34993 -0.0150977 0)
(7.3509 -0.0160357 0)
(7.35184 -0.0169157 0)
(7.35276 -0.017749 0)
(7.35363 -0.0185449 0)
(7.35448 -0.0193117 0)
(7.35528 -0.0200559 0)
(7.35604 -0.0207835 0)
(7.35675 -0.0214992 0)
(7.35742 -0.022207 0)
(7.35804 -0.0229103 0)
(7.35861 -0.0236118 0)
(7.35913 -0.0243137 0)
(7.3596 -0.0250178 0)
(7.36001 -0.0257252 0)
(7.36036 -0.0264366 0)
(7.33408 -0.00612367 0)
(7.33405 -0.0189489 0)
(7.33029 -0.0269854 0)
(7.32663 -0.0304923 0)
(7.32506 -0.0312582 0)
(7.32529 -0.0308199 0)
(7.32636 -0.0298489 0)
(7.32787 -0.0286695 0)
(7.32965 -0.027479 0)
(7.33158 -0.0263807 0)
(7.33359 -0.0254188 0)
(7.33561 -0.0246075 0)
(7.33762 -0.0239456 0)
(7.3396 -0.0234241 0)
(7.34153 -0.0230302 0)
(7.34341 -0.0227504 0)
(7.34523 -0.0225714 0)
(7.34699 -0.022481 0)
(7.34868 -0.0224685 0)
(7.3503 -0.0225243 0)
(7.35186 -0.0226403 0)
(7.35334 -0.0228096 0)
(7.35476 -0.0230261 0)
(7.3561 -0.0232849 0)
(7.35737 -0.0235818 0)
(7.35857 -0.0239131 0)
(7.35969 -0.0242758 0)
(7.36074 -0.0246672 0)
(7.36172 -0.0250851 0)
(7.36263 -0.0255275 0)
(7.36347 -0.0259928 0)
(7.36423 -0.0264797 0)
(7.36493 -0.0269863 0)
(7.32967 0.0198605 0)
(7.32498 0.037006 0)
(7.32932 0.0376952 0)
(7.33513 0.0322916 0)
(7.33879 0.0258793 0)
(7.34099 0.0195737 0)
(7.34283 0.0136815 0)
(7.34459 0.00840462 0)
(7.34637 0.00378865 0)
(7.34822 -0.000212865 0)
(7.35017 -0.00366908 0)
(7.3522 -0.0066515 0)
(7.35431 -0.00922899 0)
(7.35647 -0.011464 0)
(7.35867 -0.0134109 0)
(7.36087 -0.0151162 0)
(7.36308 -0.0166191 0)
(7.36526 -0.0179527 0)
(7.36742 -0.0191448 0)
(7.36953 -0.0202184 0)
(7.37158 -0.0211932 0)
(7.37358 -0.0220853 0)
(7.37551 -0.0229083 0)
(7.37736 -0.0236738 0)
(7.37914 -0.0243913 0)
(7.38084 -0.0250689 0)
(7.38245 -0.0257135 0)
(7.38398 -0.026331 0)
(7.38542 -0.0269262 0)
(7.38678 -0.0275033 0)
(7.38805 -0.0280661 0)
(7.38923 -0.028617 0)
(7.39031 -0.0291599 0)
(7.32507 -0.0330784 0)
(7.29738 -0.0587615 0)
(7.27808 -0.0616898 0)
(7.27377 -0.0593143 0)
(7.28038 -0.0558097 0)
(7.29183 -0.0517632 0)
(7.30509 -0.0478195 0)
(7.31883 -0.0443104 0)
(7.33229 -0.0412846 0)
(7.34506 -0.0387241 0)
(7.35697 -0.0365914 0)
(7.36796 -0.0348348 0)
(7.37806 -0.0334003 0)
(7.38729 -0.0322386 0)
(7.39571 -0.0313062 0)
(7.40338 -0.0305659 0)
(7.41036 -0.0299862 0)
(7.4167 -0.029541 0)
(7.42246 -0.0292086 0)
(7.42768 -0.0289711 0)
(7.4324 -0.0288136 0)
(7.43667 -0.0287242 0)
(7.44052 -0.0286928 0)
(7.44399 -0.0287111 0)
(7.44709 -0.0287722 0)
(7.44986 -0.0288704 0)
(7.45233 -0.0290009 0)
(7.4545 -0.0291598 0)
(7.45641 -0.0293435 0)
(7.45807 -0.0295491 0)
(7.4595 -0.029774 0)
(7.46071 -0.0300156 0)
(7.46173 -0.030271 0)
(7.33915 0.134726 0)
(7.37621 0.127075 0)
(7.39343 0.0872083 0)