# y+ ()       
# Time        	patch         	min           	max           	average       
1600          	lowerWall	5.009632e+00	7.734037e+01	4.315304e+01
1600          	upperWall	3.060454e+01	4.713968e+01	4.147246e+01
