/*--------------------------------*- C++ -*----------------------------------*\
  =========                 |
  \\      /  F ield         | OpenFOAM: The Open Source CFD Toolbox
   \\    /   O peration     | Website:  https://openfoam.org
    \\  /    A nd           | Version:  10
     \\/     M anipulation  |
\*---------------------------------------------------------------------------*/
FoamFile
{
    format      ascii;
    class       volScalarField;
    location    "0.175";
    object      k;
}
// * * * * * * * * * * * * * * * * * * * * * * * * * * * * * * * * * * * * * //

dimensions      [0 2 -2 0 0 0 0];

internalField   nonuniform List<scalar> 
6820
(
0.196709
0.190616
0.184994
0.179724
0.174798
0.17025
0.166114
0.162407
0.159125
0.156249
0.153752
0.151603
0.149769
0.148219
0.146922
0.145852
0.144982
0.14429
0.143756
0.143361
0.143089
0.142925
0.142856
0.14287
0.142958
0.14311
0.143315
0.143589
0.143812
0.144513
0.143192
0.151536
0.114731
0.201954
0.200832
0.197543
0.193922
0.190841
0.188585
0.187155
0.186431
0.186263
0.186519
0.187092
0.187902
0.188889
0.190008
0.191225
0.192515
0.193856
0.195234
0.196634
0.198048
0.199467
0.200884
0.202295
0.203698
0.205091
0.206477
0.207863
0.209263
0.210697
0.212301
0.213843
0.217121
0.217901
0.200488
0.200474
0.199117
0.19707
0.194841
0.19269
0.190724
0.188986
0.187488
0.186232
0.185205
0.184394
0.183778
0.183338
0.183054
0.182909
0.182884
0.182966
0.18314
0.183394
0.183718
0.184102
0.184538
0.18502
0.185541
0.186099
0.186689
0.187317
0.187973
0.188704
0.189427
0.190362
0.191111
0.199662
0.199121
0.198219
0.196983
0.195545
0.194012
0.192458
0.190931
0.189463
0.188073
0.186776
0.185577
0.184479
0.183482
0.182583
0.181779
0.181064
0.180434
0.179882
0.179402
0.178991
0.178641
0.178349
0.178111
0.177921
0.177778
0.177678
0.177622
0.177607
0.177645
0.177725
0.177873
0.178078
0.199429
0.198466
0.197531
0.196513
0.195399
0.194214
0.192986
0.19174
0.190495
0.189267
0.188068
0.186908
0.185793
0.184727
0.183713
0.182752
0.181845
0.180992
0.180191
0.17944
0.178739
0.178084
0.177474
0.176908
0.176382
0.175895
0.175446
0.175035
0.174659
0.174322
0.174021
0.173758
0.173532
0.199398
0.198267
0.197202
0.196166
0.195133
0.194088
0.193029
0.191958
0.190884
0.189812
0.18875
0.187703
0.186677
0.185676
0.184703
0.18376
0.182848
0.18197
0.181124
0.180313
0.179535
0.17879
0.178078
0.177397
0.176748
0.176128
0.175539
0.174978
0.174447
0.173944
0.173469
0.173023
0.172603
0.199395
0.19822
0.197098
0.196021
0.194978
0.193957
0.192952
0.191958
0.190973
0.189997
0.189032
0.188079
0.18714
0.186217
0.185313
0.184429
0.183566
0.182725
0.181907
0.181112
0.180341
0.179594
0.17887
0.178171
0.177495
0.176842
0.176212
0.175605
0.175021
0.174459
0.173919
0.173402
0.172906
0.199395
0.198211
0.197069
0.195969
0.194908
0.193881
0.192884
0.191912
0.190961
0.190029
0.189115
0.188217
0.187336
0.186472
0.185624
0.184794
0.183981
0.183186
0.18241
0.181652
0.180913
0.180193
0.179491
0.178809
0.178145
0.1775
0.176874
0.176266
0.175676
0.175105
0.174552
0.174018
0.173501
0.199395
0.198209
0.197063
0.195955
0.194884
0.19385
0.192848
0.191877
0.190934
0.190017
0.189123
0.188251
0.1874
0.186568
0.185755
0.184961
0.184184
0.183425
0.182684
0.18196
0.181252
0.180562
0.179889
0.179232
0.178592
0.177968
0.17736
0.176768
0.176192
0.175631
0.175087
0.174559
0.174046
0.199395
0.198209
0.197061
0.195951
0.194877
0.193838
0.192833
0.191859
0.190916
0.190001
0.189113
0.18825
0.18741
0.186593
0.185798
0.185023
0.184267
0.18353
0.182811
0.18211
0.181426
0.180759
0.180109
0.179474
0.178855
0.178251
0.177663
0.177089
0.176531
0.175986
0.175457
0.174942
0.174441
0.199395
0.198209
0.197061
0.19595
0.194875
0.193834
0.192827
0.191852
0.190907
0.189992
0.189104
0.188243
0.187407
0.186595
0.185806
0.185039
0.184293
0.183567
0.182861
0.182173
0.181503
0.18085
0.180214
0.179594
0.17899
0.178402
0.177828
0.17727
0.176725
0.176195
0.175679
0.175177
0.174688
0.199395
0.198209
0.19706
0.195949
0.194874
0.193833
0.192825
0.191849
0.190903
0.189987
0.189098
0.188237
0.187402
0.186591
0.185804
0.18504
0.184297
0.183576
0.182875
0.182193
0.18153
0.180885
0.180257
0.179645
0.17905
0.178471
0.177907
0.177358
0.176823
0.176303
0.175796
0.175303
0.174824
0.199395
0.198209
0.19706
0.195949
0.194873
0.193832
0.192824
0.191847
0.190901
0.189984
0.189095
0.188234
0.187398
0.186587
0.185801
0.185037
0.184296
0.183576
0.182876
0.182197
0.181536
0.180894
0.18027
0.179663
0.179072
0.178498
0.177939
0.177395
0.176866
0.176351
0.17585
0.175363
0.174889
0.199395
0.198209
0.19706
0.195949
0.194873
0.193831
0.192823
0.191846
0.1909
0.189982
0.189093
0.188231
0.187395
0.186585
0.185798
0.185034
0.184293
0.183573
0.182874
0.182196
0.181536
0.180895
0.180272
0.179667
0.179078
0.178506
0.177949
0.177408
0.176881
0.176369
0.175871
0.175387
0.174916
0.199395
0.198208
0.19706
0.195948
0.194872
0.193831
0.192822
0.191845
0.190899
0.189981
0.189092
0.18823
0.187394
0.186582
0.185796
0.185032
0.18429
0.183571
0.182872
0.182193
0.181534
0.180893
0.180271
0.179666
0.179078
0.178506
0.17795
0.17741
0.176884
0.176373
0.175877
0.175393
0.174923
0.199395
0.198208
0.19706
0.195948
0.194872
0.19383
0.192822
0.191844
0.190898
0.18998
0.189091
0.188228
0.187392
0.186581
0.185794
0.18503
0.184288
0.183568
0.182869
0.182191
0.181531
0.180891
0.180268
0.179663
0.179075
0.178504
0.177948
0.177408
0.176883
0.176372
0.175876
0.175393
0.174923
0.199395
0.198208
0.19706
0.195948
0.194872
0.19383
0.192821
0.191844
0.190897
0.189979
0.18909
0.188227
0.187391
0.186579
0.185792
0.185028
0.184286
0.183566
0.182867
0.182188
0.181529
0.180888
0.180266
0.179661
0.179073
0.178501
0.177945
0.177405
0.17688
0.176369
0.175873
0.17539
0.17492
0.199395
0.198208
0.19706
0.195948
0.194872
0.19383
0.192821
0.191843
0.190896
0.189979
0.189089
0.188226
0.18739
0.186578
0.185791
0.185026
0.184285
0.183565
0.182865
0.182186
0.181527
0.180886
0.180263
0.179658
0.17907
0.178498
0.177943
0.177402
0.176877
0.176366
0.175869
0.175386
0.174916
0.199395
0.198208
0.197059
0.195948
0.194871
0.193829
0.19282
0.191843
0.190896
0.189978
0.189088
0.188225
0.187389
0.186577
0.185789
0.185025
0.184283
0.183563
0.182864
0.182184
0.181525
0.180884
0.180261
0.179656
0.179068
0.178496
0.17794
0.177399
0.176874
0.176363
0.175866
0.175382
0.174912
0.199395
0.198208
0.197059
0.195948
0.194871
0.193829
0.19282
0.191842
0.190895
0.189977
0.189087
0.188225
0.187388
0.186576
0.185788
0.185024
0.184282
0.183562
0.182862
0.182183
0.181523
0.180882
0.180259
0.179654
0.179065
0.178493
0.177937
0.177397
0.176871
0.17636
0.175862
0.175379
0.174908
0.199395
0.198208
0.197059
0.195947
0.194871
0.193829
0.19282
0.191842
0.190895
0.189977
0.189087
0.188224
0.187387
0.186575
0.185787
0.185023
0.184281
0.18356
0.182861
0.182181
0.181521
0.18088
0.180257
0.179652
0.179063
0.178491
0.177935
0.177394
0.176868
0.176356
0.175859
0.175375
0.174904
0.199395
0.198208
0.197059
0.195947
0.194871
0.193829
0.19282
0.191842
0.190894
0.189976
0.189086
0.188223
0.187386
0.186574
0.185786
0.185022
0.18428
0.183559
0.182859
0.18218
0.18152
0.180878
0.180255
0.17965
0.179061
0.178489
0.177932
0.177391
0.176865
0.176353
0.175856
0.175371
0.1749
0.199395
0.198208
0.197059
0.195947
0.194871
0.193829
0.192819
0.191842
0.190894
0.189976
0.189086
0.188223
0.187386
0.186573
0.185786
0.185021
0.184279
0.183558
0.182858
0.182179
0.181518
0.180877
0.180254
0.179648
0.179059
0.178487
0.17793
0.177389
0.176862
0.176351
0.175852
0.175368
0.174896
0.199395
0.198208
0.197059
0.195947
0.194871
0.193829
0.192819
0.191841
0.190894
0.189976
0.189085
0.188222
0.187385
0.186573
0.185785
0.18502
0.184278
0.183557
0.182857
0.182177
0.181517
0.180875
0.180252
0.179646
0.179057
0.178485
0.177928
0.177386
0.17686
0.176348
0.175849
0.175365
0.174893
0.199395
0.198208
0.197059
0.195947
0.194871
0.193829
0.192819
0.191841
0.190894
0.189975
0.189085
0.188222
0.187385
0.186572
0.185784
0.185019
0.184277
0.183556
0.182856
0.182176
0.181516
0.180874
0.180251
0.179645
0.179055
0.178483
0.177926
0.177384
0.176858
0.176345
0.175847
0.175362
0.17489
0.199395
0.198208
0.197059
0.195947
0.194871
0.193828
0.192819
0.191841
0.190894
0.189975
0.189085
0.188221
0.187384
0.186572
0.185784
0.185019
0.184276
0.183555
0.182855
0.182175
0.181515
0.180873
0.180249
0.179643
0.179054
0.178481
0.177924
0.177382
0.176855
0.176343
0.175844
0.175359
0.174886
0.199395
0.198208
0.197059
0.195947
0.194871
0.193828
0.192819
0.191841
0.190893
0.189975
0.189085
0.188221
0.187384
0.186571
0.185783
0.185018
0.184276
0.183555
0.182855
0.182174
0.181514
0.180872
0.180248
0.179642
0.179052
0.178479
0.177922
0.17738
0.176853
0.17634
0.175841
0.175356
0.174883
0.199395
0.198208
0.197059
0.195947
0.194871
0.193828
0.192819
0.191841
0.190893
0.189975
0.189084
0.188221
0.187384
0.186571
0.185783
0.185018
0.184275
0.183554
0.182854
0.182174
0.181513
0.180871
0.180247
0.179641
0.179051
0.178478
0.177921
0.177379
0.176851
0.176338
0.175839
0.175354
0.174881
0.199395
0.198208
0.197059
0.195947
0.194871
0.193828
0.192819
0.191841
0.190893
0.189975
0.189084
0.188221
0.187383
0.186571
0.185783
0.185018
0.184275
0.183554
0.182853
0.182173
0.181512
0.18087
0.180246
0.17964
0.17905
0.178477
0.177919
0.177377
0.17685
0.176337
0.175837
0.175351
0.174879
0.199395
0.198208
0.197059
0.195947
0.194871
0.193828
0.192819
0.191841
0.190894
0.189975
0.189085
0.188221
0.187384
0.186571
0.185783
0.185018
0.184275
0.183554
0.182854
0.182173
0.181513
0.18087
0.180246
0.17964
0.17905
0.178476
0.177919
0.177376
0.176849
0.176336
0.175836
0.17535
0.174877
0.199395
0.198208
0.197059
0.195947
0.194871
0.193828
0.192819
0.191841
0.190893
0.189975
0.189084
0.188221
0.187384
0.186571
0.185783
0.185018
0.184275
0.183554
0.182854
0.182173
0.181512
0.18087
0.180246
0.179639
0.17905
0.178476
0.177918
0.177376
0.176848
0.176335
0.175835
0.175349
0.174876
0.199395
0.198208
0.197059
0.195948
0.194871
0.193829
0.19282
0.191843
0.190895
0.189977
0.189087
0.188224
0.187386
0.186574
0.185786
0.18502
0.184278
0.183556
0.182856
0.182176
0.181515
0.180872
0.180248
0.179641
0.179051
0.178478
0.17792
0.177377
0.176849
0.176335
0.175836
0.175349
0.174875
0.199395
0.198209
0.19706
0.195949
0.194872
0.19383
0.192821
0.191843
0.190896
0.189978
0.189087
0.188224
0.187387
0.186575
0.185787
0.185022
0.184279
0.183558
0.182858
0.182177
0.181516
0.180874
0.18025
0.179643
0.179053
0.178479
0.17792
0.177377
0.176849
0.176335
0.175834
0.175347
0.174873
0.199395
0.198208
0.19706
0.19595
0.194876
0.193835
0.192827
0.191851
0.190905
0.189987
0.189097
0.188234
0.187397
0.186585
0.185797
0.185031
0.184288
0.183566
0.182865
0.182184
0.181522
0.180879
0.180253
0.179645
0.179053
0.178477
0.177917
0.177372
0.176841
0.176325
0.175822
0.175332
0.174855
0.199395
0.198212
0.197066
0.195957
0.194882
0.193842
0.192834
0.191857
0.190911
0.189993
0.189104
0.188241
0.187404
0.186591
0.185802
0.185035
0.18429
0.183566
0.182863
0.182178
0.181513
0.180865
0.180235
0.179622
0.179025
0.178443
0.177877
0.177326
0.176789
0.176265
0.175755
0.175258
0.174773
0.199396
0.198213
0.197071
0.195969
0.194902
0.193869
0.192866
0.191893
0.190947
0.190029
0.189137
0.18827
0.187427
0.186606
0.185809
0.185032
0.184277
0.183541
0.182824
0.182126
0.181446
0.180784
0.180138
0.179508
0.178895
0.178296
0.177712
0.177143
0.176588
0.176046
0.175517
0.175001
0.174497
0.199402
0.19824
0.197114
0.196018
0.194952
0.193916
0.192908
0.191927
0.190972
0.19004
0.189132
0.188245
0.18738
0.186536
0.185712
0.184908
0.184124
0.183358
0.18261
0.18188
0.181168
0.180472
0.179793
0.17913
0.178482
0.177849
0.177232
0.176628
0.176039
0.175463
0.1749
0.17435
0.173813
0.199421
0.198284
0.197214
0.196182
0.195158
0.194136
0.193118
0.19211
0.191117
0.190142
0.189188
0.188256
0.187347
0.186462
0.1856
0.18476
0.183941
0.183144
0.182366
0.181609
0.180869
0.180148
0.179444
0.178757
0.178086
0.177431
0.176792
0.176167
0.175556
0.17496
0.174377
0.173807
0.173251
0.199655
0.198884
0.198077
0.197302
0.196603
0.195976
0.195405
0.19488
0.194397
0.193951
0.19354
0.193165
0.192824
0.192516
0.192239
0.191992
0.191775
0.191584
0.19142
0.191279
0.191162
0.191066
0.190989
0.190931
0.190891
0.190866
0.190857
0.190862
0.19088
0.19091
0.190951
0.191004
0.191066
0.205419
0.216602
0.227661
0.238503
0.249093
0.259416
0.269459
0.279212
0.288668
0.297819
0.306661
0.315192
0.323411
0.33132
0.33892
0.346216
0.353212
0.359914
0.366329
0.372463
0.378324
0.383921
0.389261
0.394354
0.399207
0.40383
0.408231
0.412419
0.416403
0.42019
0.42379
0.427209
0.430459
0.319
0.6403
0.967267
1.25682
1.48815
1.65536
1.76368
1.82458
1.85147
1.85659
1.84936
1.83608
1.82042
1.80425
1.78839
1.77321
1.75888
1.74555
1.73338
1.7225
1.71301
1.70493
1.69821
1.69273
1.68828
1.68462
1.68147
1.67852
1.67542
1.67185
1.66743
1.66182
1.65464
1.64553
1.63414
1.62014
1.6032
1.58306
1.55946
1.53222
1.50119
1.46631
1.42756
1.38502
1.33886
1.28931
1.23674
1.18155
1.12429
1.06555
1.00598
0.946319
0.887302
0.82968
0.774177
0.721462
0.672116
0.626612
0.585294
0.548374
0.515934
0.487943
0.464279
0.444759
0.42916
0.417251
0.408804
0.403613
0.401493
0.402277
0.405809
0.411923
0.420427
0.431075
0.443552
0.457454
0.472283
0.487452
0.502299
0.516114
0.528169
0.537756
0.544213
0.546958
0.545514
0.539526
0.528781
0.513222
0.492967
0.468321
0.439798
0.408123
0.374245
0.339313
0.30463
0.271543
0.241343
0.214802
0.193762
0.169996
0.232901
0.26413
0.311327
0.374767
0.453248
0.544496
0.644918
0.749733
0.853571
0.951385
1.03924
1.11473
1.17705
1.2267
1.26508
1.29405
1.31554
1.33128
1.34273
1.351
1.35689
1.36097
1.36364
1.36514
1.36564
1.36521
1.36385
1.36153
1.35813
1.35353
1.34754
1.33997
1.33059
1.31916
1.30544
1.28921
1.27024
1.24837
1.22344
1.19535
1.16407
1.12962
1.0921
1.05167
1.00859
0.963202
0.915914
0.867222
0.817681
0.767902
0.718522
0.670193
0.623546
0.579169
0.537575
0.499181
0.464288
0.433071
0.405584
0.381771
0.361486
0.344528
0.330658
0.319637
0.311236
0.305258
0.301542
0.29997
0.30046
0.302965
0.307458
0.313916
0.322303
0.332539
0.344479
0.357888
0.372421
0.387618
0.402911
0.417648
0.43112
0.442608
0.451417
0.456921
0.458593
0.456034
0.448997
0.437408
0.421381
0.401231
0.377491
0.35091
0.322444
0.293224
0.264476
0.237405
0.213076
0.192043
0.175621
0.157376
0.192182
0.194621
0.199656
0.207946
0.21974
0.235288
0.255003
0.279362
0.308924
0.344077
0.384826
0.430576
0.480234
0.532339
0.58522
0.637183
0.686699
0.732546
0.773892
0.810308
0.841724
0.868344
0.890546
0.908776
0.923475
0.935027
0.943738
0.949834
0.953467
0.95473
0.953668
0.950284
0.944549
0.936412
0.925807
0.912667
0.896933
0.878571
0.857575
0.833982
0.807877
0.779403
0.748764
0.716225
0.682119
0.646837
0.610822
0.574556
0.538548
0.503307
0.469325
0.437052
0.406872
0.379087
0.353903
0.331425
0.31166
0.294532
0.279899
0.267575
0.257355
0.249032
0.242414
0.237335
0.23366
0.231291
0.230164
0.230249
0.23155
0.234099
0.23795
0.243172
0.249828
0.257966
0.267585
0.278617
0.290891
0.30412
0.317889
0.331662
0.344809
0.356643
0.366465
0.373618
0.377526
0.377739
0.37396
0.366074
0.354165
0.338533
0.319693
0.298377
0.275498
0.252104
0.229283
0.20804
0.1892
0.173114
0.160703
0.147056
0.17826
0.178458
0.178878
0.179725
0.181158
0.18329
0.186213
0.190031
0.194896
0.200987
0.208475
0.217609
0.228654
0.241848
0.257355
0.275222
0.295346
0.317464
0.341156
0.365877
0.390997
0.415872
0.439888
0.46251
0.483304
0.501943
0.518204
0.531951
0.543124
0.551712
0.557742
0.56126
0.562318
0.560972
0.557273
0.55128
0.543058
0.532693
0.520293
0.505998
0.489983
0.472461
0.453681
0.433929
0.413521
0.392793
0.372091
0.351756
0.332108
0.313431
0.29596
0.27987
0.265274
0.25222
0.240698
0.230654
0.221997
0.214614
0.208384
0.203187
0.19891
0.195454
0.192736
0.190695
0.189285
0.188482
0.188282
0.188701
0.189773
0.191553
0.194115
0.197545
0.201941
0.207397
0.21399
0.221761
0.230683
0.240641
0.251402
0.26261
0.273787
0.284357
0.293687
0.30114
0.306126
0.308155
0.30688
0.302131
0.293941
0.282554
0.268431
0.25223
0.234764
0.216938
0.199655
0.183697
0.169672
0.157785
0.148689
0.138738
0.173273
0.172961
0.172671
0.172453
0.172348
0.172392
0.172613
0.173036
0.173684
0.174588
0.175758
0.177226
0.179044
0.181276
0.183994
0.18727
0.191175
0.195766
0.201087
0.207152
0.213942
0.221396
0.229412
0.237848
0.246522
0.255231
0.26375
0.271855
0.279332
0.285987
0.291658
0.296215
0.299564
0.301643
0.30242
0.301895
0.300095
0.297072
0.292908
0.287709
0.281603
0.27474
0.267282
0.259404
0.251284
0.243096
0.235002
0.227149
0.219657
0.212622
0.206111
0.200163
0.194793
0.189996
0.185751
0.182027
0.178785
0.175984
0.173585
0.171547
0.169838
0.16843
0.1673
0.166434
0.165826
0.165479
0.165407
0.16563
0.166185
0.167118
0.168488
0.170366
0.172835
0.175984
0.179901
0.184662
0.190312
0.196843
0.204171
0.212115
0.220383
0.228574
0.236199
0.242723
0.247608
0.250376
0.250657
0.248233
0.243072
0.235339
0.225397
0.213784
0.201163
0.188257
0.175766
0.164267
0.154202
0.145687
0.139206
0.132129
0.172136
0.171605
0.171075
0.17056
0.170069
0.169615
0.16921
0.168866
0.168593
0.168396
0.168276
0.168235
0.168279
0.168416
0.168658
0.169019
0.169515
0.17016
0.170969
0.171956
0.173128
0.174491
0.176039
0.177761
0.179636
0.181633
0.183709
0.185814
0.18789
0.189875
0.191706
0.193321
0.194666
0.195692
0.196361
0.196644
0.196529
0.196013
0.19511
0.193843
0.192248
0.190371
0.188262
0.185976
0.183572
0.181103
0.178622
0.176175
0.1738
0.171528
0.169383
0.167381
0.165531
0.163836
0.162294
0.160901
0.159648
0.158526
0.157526
0.156639
0.155855
0.155168
0.154575
0.154073
0.153665
0.153359
0.153166
0.153105
0.153199
0.153482
0.153993
0.154782
0.155907
0.157433
0.159432
0.161972
0.16511
0.168881
0.173276
0.178227
0.183591
0.189134
0.194539
0.199423
0.203368
0.205971
0.206889
0.205893
0.202895
0.197977
0.191385
0.183512
0.17485
0.165933
0.157273
0.149282
0.142285
0.13635
0.131854
0.126946
0.172351
0.171726
0.171102
0.170481
0.169866
0.16926
0.168669
0.168095
0.167546
0.167024
0.166531
0.166068
0.165636
0.165237
0.164872
0.164543
0.164253
0.164006
0.163804
0.16365
0.163548
0.163499
0.163505
0.163563
0.163673
0.163828
0.16402
0.164241
0.164477
0.164714
0.164937
0.16513
0.165276
0.16536
0.165369
0.165291
0.165118
0.164845
0.164471
0.163997
0.163429
0.162777
0.162051
0.161266
0.160435
0.159573
0.158696
0.157816
0.156946
0.156097
0.155276
0.154489
0.153741
0.153032
0.152365
0.151735
0.151143
0.150582
0.150052
0.149546
0.149063
0.1486
0.148155
0.147729
0.147325
0.146947
0.146603
0.146306
0.14607
0.145915
0.145867
0.145959
0.146227
0.146717
0.147476
0.148557
0.150008
0.151867
0.154154
0.156855
0.159908
0.163196
0.16654
0.169699
0.172392
0.174326
0.175229
0.174898
0.173224
0.170223
0.166037
0.160921
0.155208
0.149268
0.143457
0.138062
0.133325
0.129286
0.126245
0.122933
0.17292
0.172265
0.171608
0.170951
0.170294
0.16964
0.168989
0.168343
0.167705
0.167076
0.166459
0.165853
0.165261
0.164683
0.164121
0.163573
0.163042
0.162528
0.162032
0.161555
0.161097
0.160659
0.160242
0.159846
0.15947
0.159115
0.158779
0.15846
0.158155
0.157861
0.157574
0.157289
0.157003
0.156712
0.15641
0.156095
0.155763
0.155413
0.155042
0.154652
0.154242
0.153815
0.153372
0.152918
0.152456
0.151989
0.151522
0.151058
0.150601
0.150152
0.149713
0.149286
0.14887
0.148465
0.148068
0.147677
0.147291
0.146904
0.146515
0.146121
0.145717
0.145302
0.144876
0.144436
0.143985
0.143525
0.143059
0.142595
0.142142
0.141711
0.141319
0.140984
0.14073
0.140587
0.140586
0.140762
0.141152
0.141787
0.142693
0.143875
0.145315
0.146959
0.148714
0.150444
0.151979
0.153126
0.153697
0.153536
0.152543
0.150699
0.148073
0.144812
0.141126
0.137255
0.13344
0.129872
0.12673
0.124038
0.122032
0.119861
0.173466
0.172812
0.172155
0.171496
0.170835
0.170173
0.16951
0.168848
0.168187
0.167528
0.166872
0.166221
0.165576
0.164937
0.164304
0.163679
0.163062
0.162454
0.161855
0.161266
0.160686
0.160117
0.159559
0.159012
0.158476
0.157952
0.157441
0.156941
0.156452
0.155974
0.155507
0.155049
0.1546
0.154158
0.153723
0.153294
0.152869
0.15245
0.152034
0.151623
0.151217
0.150815
0.150418
0.150028
0.149644
0.149268
0.1489
0.14854
0.148189
0.147846
0.147509
0.147179
0.146853
0.146528
0.146202
0.145873
0.145535
0.145188
0.144825
0.144446
0.144045
0.143622
0.143173
0.142699
0.142197
0.141669
0.141118
0.140545
0.139956
0.139358
0.138761
0.138174
0.137615
0.137098
0.136647
0.136283
0.136032
0.135919
0.135965
0.136183
0.136573
0.137115
0.137766
0.138455
0.139085
0.139543
0.139707
0.139472
0.138759
0.13754
0.135839
0.133737
0.131358
0.128847
0.126363
0.124029
0.121976
0.120207
0.118915
0.117534
0.173873
0.173231
0.172586
0.171939
0.171288
0.170635
0.169979
0.169322
0.168663
0.168004
0.167345
0.166688
0.166031
0.165377
0.164726
0.164078
0.163434
0.162795
0.162161
0.161532
0.16091
0.160294
0.159684
0.159083
0.158489
0.157903
0.157326
0.156758
0.1562
0.155652
0.155114
0.154586
0.154069
0.153563
0.153067
0.152582
0.152108
0.151646
0.151195
0.150756
0.150329
0.149913
0.14951
0.149119
0.14874
0.148372
0.148016
0.14767
0.147333
0.147004
0.146681
0.146362
0.146044
0.145726
0.145403
0.145072
0.14473
0.144374
0.143999
0.143603
0.143182
0.142733
0.142255
0.141745
0.141202
0.140625
0.140016
0.139375
0.138705
0.13801
0.137294
0.136565
0.135832
0.135105
0.134397
0.133724
0.133103
0.13255
0.132083
0.131715
0.131454
0.131296
0.131226
0.13121
0.131198
0.131128
0.130928
0.130533
0.129889
0.128969
0.127778
0.126357
0.124776
0.123119
0.121487
0.119954
0.118615
0.117459
0.11664
0.115785
0.174133
0.173506
0.172875
0.172242
0.171605
0.170966
0.170323
0.169678
0.169031
0.168382
0.167732
0.167081
0.166431
0.16578
0.165131
0.164482
0.163836
0.163192
0.16255
0.161912
0.161278
0.160648
0.160023
0.159403
0.158789
0.158182
0.157581
0.156988
0.156403
0.155827
0.15526
0.154703
0.154156
0.153619
0.153094
0.152581
0.15208
0.151592
0.151117
0.150655
0.150207
0.149772
0.149351
0.148944
0.14855
0.148168
0.147797
0.147437
0.147086
0.146743
0.146404
0.146069
0.145734
0.145397
0.145054
0.144703
0.144339
0.14396
0.143561
0.14314
0.142694
0.142219
0.141712
0.141173
0.140599
0.139989
0.139343
0.13866
0.137943
0.137193
0.136412
0.135606
0.134779
0.133938
0.133092
0.132249
0.131423
0.130624
0.129866
0.129159
0.128514
0.127934
0.127416
0.126949
0.126511
0.126069
0.125588
0.125028
0.124358
0.123558
0.122627
0.121583
0.120465
0.11932
0.118209
0.117174
0.116284
0.115517
0.114998
0.114473
0.17428
0.173664
0.173045
0.172424
0.171799
0.171172
0.170542
0.169909
0.169274
0.168637
0.167999
0.167359
0.166718
0.166077
0.165436
0.164795
0.164155
0.163516
0.162878
0.162242
0.161609
0.160979
0.160353
0.15973
0.159112
0.158499
0.157892
0.157291
0.156696
0.15611
0.155531
0.154961
0.154401
0.15385
0.15331
0.152782
0.152265
0.15176
0.151268
0.150789
0.150323
0.149871
0.149432
0.149006
0.148593
0.148191
0.1478
0.14742
0.147047
0.146681
0.14632
0.145961
0.145602
0.145241
0.144873
0.144497
0.144108
0.143704
0.143281
0.142836
0.142366
0.141868
0.141339
0.140777
0.140181
0.139548
0.138879
0.138172
0.137428
0.136648
0.135833
0.134987
0.134113
0.133214
0.132297
0.131368
0.130436
0.129507
0.128593
0.127702
0.126843
0.126022
0.125243
0.124505
0.1238
0.123116
0.122437
0.121743
0.121017
0.120249
0.119436
0.118586
0.117721
0.116865
0.116057
0.115316
0.114694
0.114158
0.113817
0.113484
0.174352
0.173743
0.173133
0.172519
0.171904
0.171285
0.170665
0.170041
0.169416
0.168789
0.16816
0.16753
0.166898
0.166266
0.165634
0.165001
0.164369
0.163737
0.163106
0.162476
0.161848
0.161223
0.1606
0.15998
0.159363
0.158751
0.158144
0.157542
0.156945
0.156355
0.155773
0.155198
0.154631
0.154073
0.153525
0.152987
0.15246
0.151944
0.15144
0.150948
0.150468
0.150001
0.149546
0.149103
0.148671
0.148251
0.14784
0.147439
0.147045
0.146657
0.146273
0.145891
0.145509
0.145124
0.144733
0.144333
0.143922
0.143495
0.143051
0.142585
0.142095
0.141578
0.141032
0.140454
0.139842
0.139195
0.138511
0.13779
0.137032
0.136237
0.135406
0.134541
0.133645
0.13272
0.131771
0.130802
0.129819
0.128829
0.127838
0.126854
0.125884
0.124936
0.124014
0.123124
0.122265
0.121434
0.120628
0.119839
0.119059
0.118285
0.117517
0.116758
0.11602
0.115317
0.114673
0.114092
0.113617
0.113209
0.112963
0.112727
0.174382
0.173777
0.173171
0.172562
0.171952
0.171339
0.170724
0.170106
0.169487
0.168867
0.168244
0.167621
0.166996
0.166371
0.165745
0.165118
0.164492
0.163866
0.163241
0.162617
0.161994
0.161373
0.160754
0.160138
0.159524
0.158915
0.158309
0.157707
0.157111
0.156521
0.155937
0.155359
0.15479
0.154228
0.153674
0.15313
0.152596
0.152072
0.151559
0.151056
0.150565
0.150085
0.149616
0.149159
0.148712
0.148275
0.147847
0.147427
0.147014
0.146607
0.146203
0.1458
0.145398
0.144992
0.144581
0.144161
0.14373
0.143285
0.142823
0.142341
0.141835
0.141304
0.140745
0.140155
0.139532
0.138875
0.138183
0.137454
0.136689
0.135888
0.135051
0.13418
0.133276
0.132343
0.131382
0.130398
0.129396
0.12838
0.127356
0.12633
0.12531
0.1243
0.123309
0.12234
0.121399
0.120488
0.119607
0.118757
0.117938
0.117148
0.11639
0.115667
0.114986
0.114356
0.11379
0.113289
0.112884
0.112536
0.112332
0.112131
0.174391
0.173788
0.173184
0.172577
0.171969
0.171358
0.170746
0.170132
0.169516
0.168899
0.16828
0.16766
0.167039
0.166418
0.165796
0.165173
0.164551
0.163929
0.163307
0.162686
0.162067
0.161449
0.160833
0.160219
0.159607
0.158999
0.158394
0.157794
0.157198
0.156607
0.156022
0.155443
0.15487
0.154305
0.153748
0.153199
0.152659
0.152128
0.151607
0.151096
0.150595
0.150105
0.149624
0.149154
0.148694
0.148243
0.1478
0.147365
0.146936
0.146512
0.146091
0.145672
0.145252
0.144829
0.144401
0.143965
0.143518
0.143058
0.142582
0.142086
0.141569
0.141026
0.140457
0.139859
0.139229
0.138566
0.137869
0.137138
0.13637
0.135568
0.13473
0.133859
0.132955
0.132022
0.131061
0.130075
0.129069
0.128047
0.127014
0.125975
0.124936
0.123903
0.122882
0.121879
0.120899
0.119948
0.119029
0.118145
0.1173
0.116495
0.115734
0.115021
0.11436
0.113757
0.113222
0.112751
0.112371
0.112042
0.111847
0.111641
0.174391
0.173789
0.173185
0.172579
0.171971
0.171361
0.17075
0.170137
0.169522
0.168906
0.168289
0.16767
0.167051
0.166431
0.16581
0.16519
0.164569
0.163948
0.163328
0.162708
0.16209
0.161473
0.160858
0.160245
0.159634
0.159026
0.158421
0.15782
0.157223
0.156631
0.156044
0.155462
0.154887
0.154319
0.153757
0.153204
0.152658
0.152121
0.151593
0.151075
0.150566
0.150066
0.149576
0.149095
0.148623
0.14816
0.147705
0.147257
0.146814
0.146376
0.145941
0.145507
0.145073
0.144636
0.144194
0.143745
0.143285
0.142812
0.142325
0.141818
0.141291
0.140741
0.140164
0.13956
0.138925
0.138259
0.13756
0.136828
0.136061
0.13526
0.134425
0.133557
0.132658
0.131729
0.130773
0.129792
0.128791
0.127773
0.126742
0.125704
0.124663
0.123626
0.122597
0.121583
0.12059
0.119623
0.118687
0.117788
0.116928
0.116113
0.115345
0.11463
0.113972
0.113373
0.112842
0.112374
0.111993
0.111658
0.111453
0.111217
0.174388
0.173785
0.173181
0.172575
0.171967
0.171357
0.170745
0.170132
0.169517
0.168901
0.168284
0.167666
0.167046
0.166426
0.165806
0.165185
0.164564
0.163943
0.163323
0.162703
0.162084
0.161466
0.16085
0.160236
0.159624
0.159015
0.158409
0.157806
0.157207
0.156612
0.156023
0.155438
0.154859
0.154287
0.153721
0.153163
0.152612
0.152069
0.151534
0.151009
0.150492
0.149984
0.149485
0.148994
0.148513
0.148039
0.147573
0.147113
0.146658
0.146208
0.145761
0.145316
0.144869
0.14442
0.143966
0.143505
0.143035
0.142552
0.142055
0.14154
0.141006
0.140449
0.139867
0.139258
0.138621
0.137953
0.137253
0.136521
0.135756
0.134958
0.134127
0.133265
0.132372
0.13145
0.130502
0.129529
0.128537
0.127527
0.126505
0.125474
0.12444
0.123408
0.122383
0.121371
0.120377
0.119407
0.118467
0.117561
0.116695
0.115873
0.115099
0.114378
0.113713
0.113106
0.112566
0.112086
0.11169
0.111336
0.111108
0.11083
0.174383
0.17378
0.173176
0.172569
0.17196
0.17135
0.170737
0.170124
0.169508
0.168892
0.168274
0.167654
0.167034
0.166413
0.165792
0.16517
0.164548
0.163926
0.163304
0.162683
0.162062
0.161443
0.160825
0.160209
0.159595
0.158983
0.158374
0.157769
0.157167
0.156569
0.155976
0.155387
0.154804
0.154227
0.153657
0.153093
0.152536
0.151987
0.151446
0.150914
0.150389
0.149873
0.149366
0.148867
0.148376
0.147893
0.147416
0.146946
0.146481
0.146021
0.145563
0.145106
0.144649
0.14419
0.143726
0.143255
0.142776
0.142284
0.141779
0.141257
0.140716
0.140154
0.139568
0.138956
0.138316
0.137648
0.136949
0.136218
0.135456
0.134662
0.133836
0.132979
0.132093
0.13118
0.13024
0.129278
0.128295
0.127296
0.126285
0.125265
0.124241
0.123218
0.122202
0.121197
0.120208
0.119242
0.118304
0.117398
0.11653
0.115703
0.114923
0.114193
0.113517
0.112897
0.112341
0.111842
0.111421
0.111041
0.110785
0.110458
0.174379
0.173775
0.17317
0.172562
0.171953
0.171342
0.170729
0.170114
0.169498
0.16888
0.168261
0.167641
0.16702
0.166398
0.165775
0.165151
0.164527
0.163904
0.16328
0.162657
0.162034
0.161412
0.160792
0.160173
0.159556
0.158941
0.158329
0.15772
0.157115
0.156513
0.155915
0.155323
0.154735
0.154153
0.153577
0.153008
0.152445
0.15189
0.151342
0.150803
0.150271
0.149747
0.149232
0.148724
0.148225
0.147732
0.147247
0.146767
0.146293
0.145822
0.145355
0.144889
0.144422
0.143953
0.14348
0.143001
0.142513
0.142014
0.141502
0.140973
0.140427
0.13986
0.139271
0.138656
0.138015
0.137347
0.136648
0.13592
0.13516
0.13437
0.13355
0.1327
0.131821
0.130916
0.129986
0.129033
0.128061
0.127073
0.126073
0.125065
0.124052
0.123041
0.122034
0.121038
0.120058
0.119098
0.118164
0.11726
0.116391
0.115561
0.114774
0.114034
0.113346
0.112709
0.112133
0.111609
0.111161
0.11075
0.110464
0.110085
0.174374
0.17377
0.173164
0.172556
0.171946
0.171334
0.17072
0.170105
0.169487
0.168869
0.168249
0.167627
0.167004
0.166381
0.165756
0.165131
0.164506
0.16388
0.163254
0.162628
0.162003
0.161379
0.160756
0.160134
0.159514
0.158896
0.15828
0.157667
0.157058
0.156452
0.15585
0.155252
0.15466
0.154073
0.153491
0.152916
0.152348
0.151786
0.151232
0.150685
0.150146
0.149615
0.149092
0.148576
0.148068
0.147567
0.147073
0.146584
0.146101
0.145621
0.145144
0.144669
0.144194
0.143716
0.143235
0.142747
0.142252
0.141746
0.141227
0.140693
0.140142
0.139571
0.138979
0.138362
0.13772
0.137051
0.136354
0.135627
0.134871
0.134085
0.13327
0.132426
0.131555
0.130657
0.129736
0.128793
0.127832
0.126855
0.125866
0.124868
0.123867
0.122866
0.12187
0.120884
0.119911