/*--------------------------------*- C++ -*----------------------------------*\
  =========                 |
  \\      /  F ield         | OpenFOAM: The Open Source CFD Toolbox
   \\    /   O peration     | Website:  https://openfoam.org
    \\  /    A nd           | Version:  10
     \\/     M anipulation  |
\*---------------------------------------------------------------------------*/
FoamFile
{
    format      ascii;
    class       volScalarField;
    location    "0.175";
    object      nut;
}
// * * * * * * * * * * * * * * * * * * * * * * * * * * * * * * * * * * * * * //

dimensions      [0 2 -1 0 0 0 0];

internalField   nonuniform List<scalar> 
6820
(
0.000149484
0.000144853
0.000140581
0.000136577
0.000132833
0.000129377
0.000126234
0.000123417
0.000120923
0.000118737
0.00011684
0.000115206
0.000113813
0.000112635
0.000111649
0.000110836
0.000110175
0.000109649
0.000109243
0.000108943
0.000108737
0.000108612
0.000108559
0.00010857
0.000108637
0.000108753
0.000108908
0.000109116
0.000109286
0.000109819
0.000108814
0.000115156
8.71974e-05
0.000729198
0.000532389
0.000448008
0.000399701
0.000368372
0.000346722
0.000331078
0.000319347
0.00031026
0.000303011
0.000297079
0.000292119
0.000287894
0.00028424
0.00028104
0.000278206
0.000275675
0.000273395
0.000271329
0.000269445
0.000267719
0.000266131
0.000264663
0.000263303
0.000262039
0.000260861
0.000259762
0.000258734
0.00025778
0.000256901
0.000256115
0.000255305
0.00025686
0.000976776
0.000872181
0.000781621
0.00071126
0.000657311
0.000615267
0.000581692
0.000554227
0.000531286
0.000511784
0.000494963
0.000480274
0.000467314
0.000455777
0.000445429
0.000436086
0.000427601
0.000419858
0.000412761
0.00040623
0.0004002
0.000394614
0.000389425
0.000384591
0.000380077
0.000375849
0.000371877
0.000368135
0.000364581
0.000361208
0.000357901
0.00035465
0.000350986
0.00101349
0.000988231
0.000949374
0.000906192
0.000864421
0.000826375
0.00079254
0.000762648
0.000736206
0.000712704
0.000691687
0.000672772
0.000655643
0.00064004
0.000625754
0.000612608
0.00060046
0.000589191
0.000578699
0.000568902
0.000559726
0.000551112
0.000543005
0.000535359
0.000528133
0.00052129
0.000514796
0.000508622
0.00050273
0.000497101
0.000491668
0.000486456
0.000481216
0.00101671
0.00101241
0.00100191
0.00098566
0.000965602
0.000943708
0.000921415
0.0008996
0.000878731
0.000859018
0.000840519
0.000823213
0.000807035
0.000791906
0.00077774
0.000764455
0.000751971
0.000740218
0.000729129
0.000718648
0.000708722
0.000699305
0.000690355
0.000681835
0.00067371
0.000665949
0.000658524
0.000651407
0.000644569
0.000637989
0.000631625
0.000625467
0.000619453
0.00101676
0.00101592
0.0010136
0.00100903
0.00100204
0.000992918
0.000982188
0.000970391
0.000957996
0.000945361
0.000932744
0.000920321
0.000908203
0.000896459
0.000885128
0.000874225
0.000863752
0.000853702
0.000844062
0.000834817
0.000825947
0.000817434
0.000809258
0.000801401
0.000793843
0.000786567
0.000779554
0.000772787
0.000766247
0.000759918
0.000753777
0.000747812
0.000742006
0.00101671
0.00101623
0.00101553
0.00101428
0.00101219
0.0010091
0.00100496
0.000999889
0.000994015
0.000987514
0.000980549
0.000973268
0.000965793
0.000958225
0.000950641
0.0009431
0.000935648
0.000928317
0.00092113
0.000914103
0.000907246
0.000900564
0.00089406
0.000887732
0.00088158
0.000875598
0.000869782
0.000864125
0.00085862
0.00085326
0.000848036
0.000842942
0.000837973
0.0010167
0.00101622
0.00101574
0.00101518
0.00101442
0.00101335
0.00101188
0.00100995
0.00100755
0.0010047
0.00100144
0.000997819
0.0009939
0.000989738
0.000985389
0.0009809
0.000976314
0.000971667
0.00096699
0.000962308
0.000957641
0.000953008
0.000948419
0.000943887
0.000939418
0.000935018
0.000930692
0.000926441
0.000922266
0.00091817
0.00091415
0.000910208
0.000906345
0.0010167
0.00101621
0.00101575
0.00101528
0.0010148
0.00101425
0.00101359
0.00101279
0.00101179
0.00101059
0.00100917
0.00100753
0.00100568
0.00100364
0.00100142
0.000999052
0.000996547
0.000993931
0.000991223
0.000988442
0.000985605
0.000982728
0.000979822
0.000976901
0.000973973
0.000971047
0.000968131
0.00096523
0.00096235
0.000959495
0.000956669
0.000953876
0.00095112
0.0010167
0.00101621
0.00101574
0.00101529
0.00101484
0.00101439
0.00101393
0.00101344
0.0010129
0.00101229
0.0010116
0.00101082
0.00100993
0.00100895
0.00100786
0.00100667
0.00100539
0.00100402
0.00100257
0.00100105
0.000999462
0.000997822
0.000996134
0.000994407
0.000992647
0.000990862
0.000989056
0.000987237
0.000985408
0.000983575
0.000981743
0.000979914
0.000978096
0.0010167
0.00101621
0.00101574
0.00101528
0.00101484
0.00101441
0.00101398
0.00101356
0.00101313
0.0010127
0.00101224
0.00101176
0.00101125
0.0010107
0.0010101
0.00100946
0.00100878
0.00100804
0.00100727
0.00100644
0.00100558
0.00100467
0.00100373
0.00100275
0.00100174
0.00100071
0.000999652
0.000998575
0.000997481
0.000996373
0.000995255
0.00099413
0.000993002
0.0010167
0.00101621
0.00101574
0.00101528
0.00101484
0.0010144
0.00101398
0.00101357
0.00101317
0.00101277
0.00101238
0.00101199
0.00101159
0.00101119
0.00101078
0.00101035
0.00100991
0.00100945
0.00100898
0.00100848
0.00100797
0.00100743
0.00100688
0.00100631
0.00100572
0.00100512
0.00100449
0.00100386
0.00100321
0.00100255
0.00100188
0.00100121
0.00100053
0.0010167
0.00101621
0.00101574
0.00101528
0.00101483
0.0010144
0.00101398
0.00101357
0.00101317
0.00101278
0.0010124
0.00101203
0.00101167
0.0010113
0.00101095
0.00101059
0.00101024
0.00100988
0.00100952
0.00100916
0.0010088
0.00100842
0.00100805
0.00100767
0.00100728
0.00100688
0.00100648
0.00100608
0.00100566
0.00100525
0.00100483
0.0010044
0.00100398
0.0010167
0.00101621
0.00101574
0.00101528
0.00101483
0.0010144
0.00101398
0.00101357
0.00101317
0.00101278
0.0010124
0.00101203
0.00101168
0.00101132
0.00101098
0.00101065
0.00101032
0.00100999
0.00100967
0.00100936
0.00100905
0.00100874
0.00100843
0.00100812
0.00100782
0.00100751
0.00100721
0.00100691
0.00100661
0.00100631
0.00100601
0.00100571
0.00100541
0.0010167
0.00101621
0.00101574
0.00101528
0.00101483
0.0010144
0.00101398
0.00101357
0.00101317
0.00101278
0.0010124
0.00101203
0.00101167
0.00101133
0.00101099
0.00101065
0.00101033
0.00101001
0.00100971
0.0010094
0.00100911
0.00100882
0.00100854
0.00100826
0.00100798
0.00100771
0.00100745
0.00100719
0.00100693
0.00100668
0.00100643
0.00100619
0.00100595
0.0010167
0.00101621
0.00101574
0.00101528
0.00101483
0.0010144
0.00101397
0.00101356
0.00101316
0.00101278
0.0010124
0.00101203
0.00101167
0.00101132
0.00101098
0.00101065
0.00101033
0.00101002
0.00100971
0.00100941
0.00100912
0.00100884
0.00100856
0.00100829
0.00100802
0.00100777
0.00100752
0.00100727
0.00100703
0.00100679
0.00100657
0.00100634
0.00100612
0.0010167
0.00101621
0.00101574
0.00101528
0.00101483
0.0010144
0.00101397
0.00101356
0.00101316
0.00101277
0.0010124
0.00101203
0.00101167
0.00101132
0.00101098
0.00101065
0.00101033
0.00101001
0.00100971
0.00100941
0.00100912
0.00100884
0.00100856
0.00100829
0.00100803
0.00100778
0.00100753
0.00100729
0.00100705
0.00100682
0.0010066
0.00100638
0.00100617
0.0010167
0.00101621
0.00101574
0.00101528
0.00101483
0.00101439
0.00101397
0.00101356
0.00101316
0.00101277
0.00101239
0.00101203
0.00101167
0.00101132
0.00101098
0.00101065
0.00101032
0.00101001
0.0010097
0.00100941
0.00100912
0.00100883
0.00100856
0.00100829
0.00100803
0.00100778
0.00100753
0.00100729
0.00100705
0.00100683
0.0010066
0.00100639
0.00100618
0.0010167
0.00101621
0.00101574
0.00101528
0.00101483
0.00101439
0.00101397
0.00101356
0.00101316
0.00101277
0.00101239
0.00101202
0.00101166
0.00101132
0.00101098
0.00101064
0.00101032
0.00101001
0.0010097
0.0010094
0.00100911
0.00100883
0.00100855
0.00100829
0.00100803
0.00100777
0.00100752
0.00100728
0.00100705
0.00100682
0.0010066
0.00100638
0.00100617
0.0010167
0.00101621
0.00101574
0.00101528
0.00101483
0.00101439
0.00101397
0.00101356
0.00101316
0.00101277
0.00101239
0.00101202
0.00101166
0.00101131
0.00101097
0.00101064
0.00101032
0.00101
0.0010097
0.0010094
0.00100911
0.00100883
0.00100855
0.00100828
0.00100802
0.00100777
0.00100752
0.00100728
0.00100704
0.00100682
0.00100659
0.00100638
0.00100617
0.0010167
0.00101621
0.00101574
0.00101528
0.00101483
0.00101439
0.00101397
0.00101356
0.00101316
0.00101277
0.00101239
0.00101202
0.00101166
0.00101131
0.00101097
0.00101064
0.00101032
0.00101
0.0010097
0.0010094
0.00100911
0.00100882
0.00100855
0.00100828
0.00100802
0.00100776
0.00100752
0.00100727
0.00100704
0.00100681
0.00100659
0.00100637
0.00100616
0.0010167
0.00101621
0.00101574
0.00101528
0.00101483
0.00101439
0.00101397
0.00101356
0.00101316
0.00101277
0.00101239
0.00101202
0.00101166
0.00101131
0.00101097
0.00101064
0.00101031
0.00101
0.00100969
0.0010094
0.0010091
0.00100882
0.00100855
0.00100828
0.00100801
0.00100776
0.00100751
0.00100727
0.00100703
0.0010068
0.00100658
0.00100636
0.00100615
0.0010167
0.00101621
0.00101574
0.00101528
0.00101483
0.00101439
0.00101397
0.00101356
0.00101316
0.00101277
0.00101239
0.00101202
0.00101166
0.00101131
0.00101097
0.00101064
0.00101031
0.00101
0.00100969
0.00100939
0.0010091
0.00100882
0.00100854
0.00100827
0.00100801
0.00100776
0.00100751
0.00100726
0.00100703
0.0010068
0.00100657
0.00100636
0.00100614
0.0010167
0.00101621
0.00101574
0.00101528
0.00101483
0.00101439
0.00101397
0.00101356
0.00101316
0.00101277
0.00101239
0.00101202
0.00101166
0.00101131
0.00101097
0.00101064
0.00101031
0.00101
0.00100969
0.00100939
0.0010091
0.00100882
0.00100854
0.00100827
0.00100801
0.00100775
0.0010075
0.00100726
0.00100702
0.00100679
0.00100657
0.00100635
0.00100614
0.0010167
0.00101621
0.00101574
0.00101528
0.00101483
0.00101439
0.00101397
0.00101356
0.00101316
0.00101277
0.00101239
0.00101202
0.00101166
0.00101131
0.00101097
0.00101063
0.00101031
0.00101
0.00100969
0.00100939
0.0010091
0.00100881
0.00100854
0.00100827
0.001008
0.00100775
0.0010075
0.00100726
0.00100702
0.00100679
0.00100656
0.00100634
0.00100613
0.0010167
0.00101621
0.00101574
0.00101528
0.00101483
0.00101439
0.00101397
0.00101356
0.00101316
0.00101277
0.00101239
0.00101202
0.00101166
0.00101131
0.00101097
0.00101063
0.00101031
0.00100999
0.00100969
0.00100939
0.0010091
0.00100881
0.00100853
0.00100827
0.001008
0.00100775
0.0010075
0.00100725
0.00100702
0.00100678
0.00100656
0.00100634
0.00100612
0.0010167
0.00101621
0.00101574
0.00101528
0.00101483
0.00101439
0.00101397
0.00101356
0.00101316
0.00101277
0.00101239
0.00101202
0.00101166
0.00101131
0.00101096
0.00101063
0.00101031
0.00100999
0.00100969
0.00100939
0.00100909
0.00100881
0.00100853
0.00100826
0.001008
0.00100774
0.00100749
0.00100725
0.00100701
0.00100678
0.00100655
0.00100633
0.00100612
0.0010167
0.00101621
0.00101574
0.00101528
0.00101483
0.00101439
0.00101397
0.00101356
0.00101316
0.00101277
0.00101239
0.00101202
0.00101166
0.00101131
0.00101096
0.00101063
0.00101031
0.00100999
0.00100968
0.00100939
0.00100909
0.00100881
0.00100853
0.00100826
0.001008
0.00100774
0.00100749
0.00100725
0.00100701
0.00100678
0.00100655
0.00100633
0.00100611
0.0010167
0.00101621
0.00101574
0.00101528
0.00101483
0.00101439
0.00101397
0.00101356
0.00101316
0.00101277
0.00101239
0.00101202
0.00101166
0.00101131
0.00101096
0.00101063
0.00101031
0.00100999
0.00100968
0.00100938
0.00100909
0.00100881
0.00100853
0.00100826
0.001008
0.00100774
0.00100749
0.00100724
0.00100701
0.00100677
0.00100655
0.00100632
0.00100611
0.0010167
0.00101621
0.00101574
0.00101528
0.00101483
0.00101439
0.00101397
0.00101356
0.00101316
0.00101277
0.00101239
0.00101202
0.00101166
0.00101131
0.00101097
0.00101063
0.00101031
0.00100999
0.00100969
0.00100939
0.00100909
0.00100881
0.00100853
0.00100826
0.001008
0.00100774
0.00100749
0.00100724
0.001007
0.00100677
0.00100654
0.00100632
0.00100611
0.0010167
0.00101621
0.00101574
0.00101528
0.00101483
0.00101439
0.00101397
0.00101356
0.00101316
0.00101277
0.00101239
0.00101202
0.00101166
0.00101131
0.00101097
0.00101063
0.00101031
0.00101
0.00100969
0.00100939
0.0010091
0.00100881
0.00100853
0.00100826
0.001008
0.00100774
0.00100749
0.00100724
0.001007
0.00100677
0.00100654
0.00100631
0.0010061
0.0010167
0.00101621
0.00101574
0.00101528
0.00101483
0.0010144
0.00101397
0.00101356
0.00101316
0.00101277
0.00101239
0.00101203
0.00101167
0.00101131
0.00101097
0.00101064
0.00101032
0.00101
0.00100969
0.00100939
0.00100909
0.00100881
0.00100853
0.00100825
0.00100799
0.00100772
0.00100747
0.00100722
0.00100697
0.00100673
0.0010065
0.00100627
0.00100604
0.0010167
0.00101621
0.00101574
0.00101528
0.00101483
0.0010144
0.00101398
0.00101357
0.00101317
0.00101278
0.0010124
0.00101203
0.00101167
0.00101132
0.00101097
0.00101064
0.00101031
0.00100998
0.00100967
0.00100936
0.00100905
0.00100875
0.00100846
0.00100817
0.00100788
0.0010076
0.00100732
0.00100705
0.00100678
0.00100651
0.00100624
0.00100598
0.00100572
0.0010167
0.00101621
0.00101574
0.00101529
0.00101484
0.00101441
0.00101399
0.00101358
0.00101318
0.00101279
0.0010124
0.00101202
0.00101164
0.00101127
0.0010109
0.00101053
0.00101016
0.00100979
0.00100942
0.00100906
0.00100869
0.00100832
0.00100794
0.00100757
0.00100719
0.00100681
0.00100643
0.00100605
0.00100566
0.00100527
0.00100488
0.00100448
0.00100409
0.0010167
0.00101622
0.00101575
0.0010153
0.00101485
0.00101441
0.00101397
0.00101352
0.00101307
0.00101262
0.00101214
0.00101166
0.00101115
0.00101063
0.00101008
0.00100951
0.00100891
0.00100829
0.00100765
0.00100699
0.0010063
0.00100559
0.00100486
0.00100411
0.00100334
0.00100255
0.00100175
0.00100093
0.0010001
0.000999263
0.000998412
0.000997552
0.000996686
0.00101671
0.00101622
0.00101574
0.00101524
0.00101469
0.00101407
0.00101337
0.00101257
0.00101167
0.00101066
0.00100954
0.00100831
0.00100697
0.00100553
0.00100399
0.00100236
0.00100064
0.000998846
0.000996983
0.000995058
0.000993079
0.000991054
0.000988988
0.00098689
0.000984764
0.000982618
0.000980456
0.000978284
0.000976107
0.000973928
0.000971751
0.000969581
0.00096742
0.00101671
0.001016
0.00101488
0.00101325
0.00101112
0.00100847
0.00100532
0.00100168
0.000997616
0.000993163
0.000988378
0.000983313
0.000978021
0.000972549
0.00096694
0.000961235
0.000955466
0.000949666
0.000943859
0.000938067
0.000932311
0.000926607
0.000920967
0.000915402
0.000909923
0.000904536
0.000899248
0.000894062
0.000888982
0.000884011
0.000879151
0.000874402
0.000869764
0.0010153
0.00100706
0.000995502
0.000981396
0.000965363
0.000948016
0.000929912
0.000911501
0.000893116
0.000874996
0.000857305
0.000840154
0.000823609
0.000807706
0.000792459
0.000777868
0.000763923
0.000750604
0.000737889
0.000725754
0.000714172
0.000703116
0.000692561
0.000682479
0.000672847
0.000663639
0.000654834
0.00064641
0.000638345
0.000630621
0.00062322
0.000616124
0.000609315
0.000935928
0.000815559
0.000728199
0.000659309
0.000602471
0.000555262
0.000515786
0.000482457
0.000454025
0.000429525
0.000408217
0.000389529
0.000373015
0.000358325
0.000345182
0.000333362
0.000322681
0.000312991
0.000304166
0.000296102
0.000288711
0.000281919
0.000275661
0.000269881
0.000264532
0.000259571
0.000254962
0.000250672
0.000246672
0.000242938
0.000239447
0.000236178
0.000233113
0.000125477
0.000128847
0.000132096
0.000135204
0.000138173
0.000141007
0.000143711
0.000146289
0.000148745
0.000151085
0.000153311
0.000155429
0.000157442
0.000159356
0.000161173
0.000162899
0.000164536
0.00016609
0.000167564
0.000168961
0.000170285
0.00017154
0.000172729
0.000173855
0.000174922
0.000175932
0.000176888
0.000177793
0.000178649
0.00017946
0.000180227
0.000180952
0.00018164
0.000109719
0.000155789
0.000200448
0.000241599
0.000278997
0.000312426
0.00034207
0.000368561
0.000392821
0.000415817
0.00043831
0.000460743
0.000483269
0.000505866
0.00052846
0.000551013
0.000573553
0.000596169
0.000618985
0.00064213
0.000665714
0.000689815
0.000714474
0.000739697
0.000765459
0.000791706
0.000818358
0.000845311
0.000872436
0.000899581
0.000926567
0.000953193
0.000979234
0.00100445
0.00102858
0.00105137
0.00107254
0.00109184
0.00110901
0.0011238
0.00113599
0.0011454
0.00115185
0.00115523
0.00115548
0.00115258
0.00114659
0.00113763
0.00112591
0.00111171
0.00109541
0.00107747
0.00105841
0.00103883
0.00101939
0.00100076
0.000983609
0.000968553
0.000956139
0.000946797
0.000940832
0.00093841
0.00093957
0.000944248
0.000952312
0.000963598
0.000977954
0.000995265
0.00101547
0.00103858
0.00106464
0.00109373
0.00112589
0.0011611
0.00119921
0.00123991
0.00128266
0.00132672
0.00137114
0.00141475
0.00145628
0.00149434
0.00152754
0.00155453
0.00157407
0.00158506
0.00158668
0.00157837
0.00155995
0.00153166
0.00149426
0.0014491
0.00139818
0.00134422
0.00129062
0.00124113
0.00119971
0.00116873
0.0011514
0.00114445
0.000245489
0.00021357
0.000185583
0.000172672
0.000173111
0.000183342
0.000200604
0.000222713
0.000247838
0.000274475
0.00030146
0.000328006
0.000353683
0.000378365
0.000402142
0.000425213
0.000447804
0.000470111
0.00049227
0.000514363
0.000536434
0.000558509
0.000580605
0.000602741
0.000624927
0.000647163
0.000669432
0.000691691
0.000713873
0.000735881
0.000757594
0.000778864
0.000799521
0.000819372
0.000838213
0.000855826
0.000871992
0.000886492
0.000899116
0.00090967
0.00091798
0.000923905
0.000927341
0.000928234
0.000926584
0.000922456
0.000915988
0.000907396
0.000896978
0.000885114
0.000872265
0.000858961
0.00084579
0.000833369
0.000822316
0.00081321
0.000806546
0.000802704
0.000801909
0.000804225
0.000809561
0.000817694
0.000828311
0.000841064
0.000855612
0.000871671
0.000889041
0.000907632
0.000927466
0.000948678
0.000971492
0.000996197
0.0010231
0.00105247
0.00108447
0.00111911
0.00115615
0.00119513
0.00123527
0.00127558
0.00131484
0.0013517
0.00138475
0.00141258
0.0014339
0.00144759
0.00145277
0.00144889
0.0014358
0.00141381
0.0013838
0.00134722
0.00130624
0.00126362
0.00122266
0.00118671
0.0011589
0.00114052
0.0011328
0.0011347
0.000348551
0.000344721
0.000330716
0.000303033
0.000268576
0.000237015
0.000213307
0.00019859
0.000191907
0.000191912
0.000197459
0.000207625
0.000221562
0.000238461
0.000257548
0.000278108
0.000299515
0.000321267
0.000342998
0.000364479
0.0003856
0.000406335
0.000426712
0.000446774
0.000466561
0.000486091
0.000505357
0.000524332
0.000542966
0.000561193
0.000578935
0.000596096
0.000612567
0.000628224
0.000642929
0.000656537
0.000668899
0.000679873
0.000689324
0.000697141
0.000703235
0.000707558
0.000710104
0.000710924
0.000710129
0.000707902
0.000704497
0.000700246
0.000695548
0.000690868
0.000686711
0.000683604
0.000682063
0.00068255
0.000685435
0.000690956
0.00069919
0.000710045
0.000723269
0.000738482
0.000755228
0.000773021
0.0007914
0.000809965
0.000828408
0.000846521
0.000864212
0.000881499
0.000898509
0.000915473
0.000932716
0.000950645
0.000969722
0.000990426
0.0010132
0.00103836
0.00106608
0.00109622
0.00112837
0.00116181
0.00119551
0.00122824
0.00125861
0.00128521
0.0013067
0.0013219
0.00132987
0.00133006
0.0013223
0.00130694
0.0012849
0.00125771
0.00122751
0.00119691
0.00116884
0.00114589
0.00113017
0.00112183
0.00112074
0.00112728
0.000475448
0.00047001
0.00046451
0.000456038
0.000441455
0.000419417
0.000391154
0.000359839
0.000328848
0.000300685
0.000277142
0.000258503
0.000244663
0.000235373
0.000230317
0.000229138
0.000231445
0.000236827
0.000244851
0.000255074
0.000267058
0.000280388
0.000294686
0.000309626
0.000324939
0.000340408
0.000355865
0.000371181
0.000386256
0.000401008
0.000415367
0.000429268
0.000442644
0.000455423
0.000467535
0.000478907
0.000489476
0.00049919
0.000508017
0.000515955
0.000523031
0.000529317
0.000534932
0.000540045
0.000544883
0.000549724
0.000554893
0.000560749
0.000567667
0.000576009
0.000586095
0.000598169
0.000612368
0.000628699
0.00064703
0.000667096
0.000688526
0.000710875
0.000733668
0.000756443
0.000778781
0.000800333
0.000820834
0.000840101
0.000858035
0.00087461
0.000889866
0.000903903
0.000916878
0.000929003
0.000940548
0.000951848
0.000963303
0.000975372
0.000988555
0.00100335
0.00102017
0.0010393
0.00106075
0.00108425
0.00110916
0.00113456
0.00115928
0.00118199
0.0012014
0.0012163
0.00122572
0.00122903
0.00122606
0.00121711
0.00120305
0.00118531
0.00116582
0.00114678
0.00113045
0.00111849
0.00111195
0.00111024
0.0011126
0.00112036
0.000612528
0.000604914
0.000597705
0.000590616
0.000582816
0.000573125
0.000560387
0.000543908
0.000523692
0.000500152
0.000474861
0.000449064
0.000423764
0.000399751
0.000377616
0.000357774
0.000340491
0.000325914
0.000314094
0.000305003
0.000298549
0.000294589
0.000292938
0.000293382
0.000295692
0.000299629
0.000304958
0.000311454
0.000318908
0.000327132
0.000335962
0.00034526
0.000354913
0.000364833
0.000374955
0.000385235
0.000395657
0.000406229
0.000416986
0.000427993
0.000439344
0.000451161
0.00046359
0.000476801
0.000490969
0.000506271
0.000522862
0.00054086
0.000560327
0.000581253
0.00060355
0.000627043
0.000651486
0.000676569
0.000701945
0.000727252
0.000752136
0.000776274
0.000799393
0.000821274
0.000841764
0.000860767
0.000878242
0.000894195
0.00090867
0.000921736
0.000933487
0.000944031
0.00095349
0.000962
0.000969715
0.000976813
0.000983509
0.000990064
0.000996799
0.00100409
0.00101236
0.00102202
0.00103337
0.00104659
0.00106155
0.00107783
0.00109471
0.00111122
0.00112629
0.00113882
0.00114789
0.00115286
0.00115345
0.00114989
0.00114285
0.00113348
0.00112328
0.00111382
0.00110652
0.00110221
0.00110118
0.00110264
0.00110586
0.00111275
0.000735376
0.000727904
0.000720553
0.000713365
0.000706264
0.000699013
0.000691216
0.000682392
0.00067209
0.000659911
0.000645828
0.000629979
0.00061265
0.000594222
0.00057512
0.000555772
0.000536582
0.000517918
0.000500105
0.000483421
0.000468094
0.0004543
0.00044217
0.000431785
0.000423192
0.000416398
0.000411387
0.000408118
0.000406534
0.000406566
0.000408138
0.000411174
0.000415599
0.00042135
0.000428371
0.000436623
0.000446079
0.000456727
0.000468565
0.000481601
0.000495849
0.000511318
0.000528014
0.000545925
0.000565019
0.000585236
0.00060648
0.00062862
0.000651485
0.000674874
0.000698557
0.000722287
0.000745814
0.000768892
0.000791295
0.000812825
0.000833316
0.000852642
0.000870715
0.000887486
0.000902942
0.000917098
0.000929994
0.000941692
0.000952265
0.000961795
0.000970371
0.000978081
0.000985015
0.000991261
0.000996903
0.00100202
0.00100671
0.00101107
0.0010152
0.00101927
0.00102348
0.00102807
0.00103333
0.00103952
0.00104683
0.00105526
0.00106463
0.00107448
0.00108416
0.00109294
0.00110008
0.00110502
0.00110747
0.00110747
0.00110544
0.00110211
0.00109842
0.00109526
0.00109335
0.00109294
0.00109405
0.00109608
0.00109865
0.00110394
0.000832312
0.000825901
0.000819505
0.000813156
0.000806868
0.000800626
0.000794364
0.00078796
0.000781243
0.000774015
0.000766105
0.00075738
0.000747769
0.000737272
0.000725949
0.000713916
0.000701327
0.000688365
0.000675233
0.000662139
0.000649292
0.000636893
0.000625127
0.000614167
0.000604163
0.000595248
0.000587535
0.000581121
0.000576081
0.000572475
0.000570345
0.000569716
0.000570601
0.000573001
0.000576906
0.000582299
0.000589157
0.000597449
0.000607132
0.000618158
0.000630463
0.000643971
0.00065859
0.00067421
0.000690706
0.000707935
0.000725738
0.000743946
0.000762379
0.000780857
0.000799199
0.000817234
0.000834805
0.000851771
0.000868015
0.000883443
0.000897984
0.000911594
0.000924249
0.000935948
0.000946707
0.000956556
0.000965539
0.000973708
0.000981123
0.000987848
0.000993949
0.000999496
0.00100456
0.0010092
0.00101349
0.00101749
0.00102126
0.00102483
0.00102825
0.00103156
0.0010348
0.00103802
0.00104131
0.00104479
0.00104859
0.00105284
0.00105757
0.00106273
0.00106808
0.00107332
0.00107802
0.00108184
0.00108453
0.00108603
0.00108651
0.0010863
0.00108583
0.0010855
0.0010856
0.00108616
0.00108725
0.00108857
0.00109011
0.00109411
0.00090193
0.000896902
0.000891841
0.000886763
0.000881682
0.000876611
0.00087155
0.000866486
0.000861385
0.000856199
0.000850866
0.000845317
0.000839485
0.000833317
0.000826779
0.000819862
0.00081258
0.000804975
0.000797111
0.000789073
0.000780961
0.000772887
0.00076497
0.000757334
0.000750101
0.000743388
0.000737311
0.000731976
0.000727481
0.000723913
0.000721347
0.000719844
0.000719452
0.000720202
0.000722115
0.000725196
0.000729437
0.000734815
0.000741296
0.000748828
0.000757348
0.000766777
0.000777025
0.000787988
0.000799553
0.000811598
0.000823996
0.000836617
0.000849333
0.000862017
0.000874553
0.000886832
0.000898756
0.000910245
0.00092123
0.000931659
0.000941494
0.000950712
0.000959302
0.000967265
0.000974612
0.000981362
0.000987542
0.000993184
0.000998326
0.00100301
0.00100728
0.00101118
0.00101477
0.0010181
0.00102124
0.00102422
0.00102712
0.00102999
0.00103287
0.00103578
0.00103875
0.00104177
0.00104483
0.00104792
0.00105103
0.00105419
0.00105739
0.00106065
0.00106393
0.00106714
0.00107015
0.00107278
0.00107491
0.00107647
0.00107748
0.00107804
0.00107831
0.00107842
0.00107852
0.00107863
0.00107897
0.0010795
0.00108034
0.00108379
0.000947948
0.000944309
0.000940611
0.000936864
0.000933077
0.000929259
0.000925418
0.00092156
0.000917688
0.000913801
0.00090989
0.000905942
0.000901938
0.000897857
0.000893679
0.000889389
0.000884975
0.000880438
0.000875789
0.00087105
0.000866255
0.000861447
0.000856683
0.000852022
0.000847534
0.00084329
0.000839363
0.000835828
0.000832757
0.000830217
0.000828271
0.000826975
0.000826373
0.000826504
0.000827393
0.000829056
0.000831497
0.000834708
0.00083867
0.000843354
0.000848717
0.000854707
0.000861263
0.000868313
0.000875783
0.000883589
0.000891647
0.000899873
0.000908182
0.000916494
0.000924732
0.000932829
0.000940722
0.000948359
0.000955696
0.000962696
0.000969332
0.000975587
0.000981447
0.000986908
0.000991971
0.000996642
0.00100093
0.00100486
0.00100844
0.00101169
0.00101465
0.00101734
0.00101979
0.00102206
0.00102418
0.0010262
0.00102819
0.00103018
0.00103225
0.00103444
0.00103679
0.00103932
0.00104203
0.0010449
0.00104787
0.00105089
0.00105389
0.00105681
0.0010596
0.00106219
0.00106452
0.00106652
0.00106813
0.0010693
0.00107003
0.00107034
0.00107031
0.00107002
0.00106961
0.0010692
0.00106907
0.00106931
0.00107002
0.00107367
0.000975983
0.000973536
0.000971024
0.000968451
0.000965822
0.000963143
0.000960421
0.000957661
0.000954871
0.000952058
0.000949227
0.000946382
0.000943525
0.000940657
0.000937776
0.00093488
0.000931969
0.000929041
0.0009261
0.000923152
0.000920208
0.000917284
0.000914402
0.00091159
0.000908877
0.000906301
0.0009039
0.000901716
0.000899791
0.000898166
0.000896883
0.00089598
0.000895488
0.000895438
0.000895852
0.000896745
0.000898127
0.0009
0.000902355
0.000905181
0.000908454
0.000912146
0.000916221
0.000920638
0.000925351
0.00093031
0.000935464
0.000940759
0.000946144
0.000951568
0.000956982
0.000962342
0.000967606
0.000972739
0.000977708
0.000982486
0.000987051
0.000991384
0.000995473
0.000999305
0.00100288
0.00100618
0.00100923
0.00101201
0.00101453
0.00101681
0.00101886
0.00102069
0.00102233
0.00102379
0.00102512
0.00102634
0.00102751
0.00102866
0.00102986
0.00103116
0.00103262
0.00103428
0.00103617
0.0010383
0.00104066
0.0010432
0.00104584
0.00104849
0.00105106
0.00105345
0.00105557
0.00105734
0.0010587
0.00105962
0.0010601
0.00106017
0.0010599
0.00105941
0.00105887
0.00105843
0.00105842
0.00105894
0.00106
0.0010643
0.000991679
0.000990132
0.000988528
0.000986867
0.000985151
0.000983384
0.000981568
0.000979708
0.00097781
0.000975879
0.000973921
0.000971942
0.000969948
0.000967944
0.000965937
0.00096393
0.000961929
0.000959939
0.000957964
0.00095601
0.000954085
0.000952197
0.000950356
0.000948576
0.000946872
0.000945261
0.000943763
0.000942399
0.000941192
0.000940166
0.000939343
0.000938747
0.000938397
0.000938314
0.000938513
0.000939007
0.000939805
0.000940911
0.000942325
0.000944042
0.000946053
0.000948344
0.000950895
0.000953686
0.000956688
0.000959875
0.000963216
0.00096668
0.000970233
0.000973845
0.000977484
0.00098112
0.000984726
0.000988274
0.000991741
0.000995106
0.000998348
0.00100145
0.0010044
0.00100718
0.00100978
0.0010122
0.00101442
0.00101645
0.00101828
0.00101991
0.00102135
0.0010226
0.00102367
0.00102457
0.00102534
0.00102598
0.00102652
0.00102702
0.0010275
0.00102802
0.00102862
0.00102937
0.0010303
0.00103146
0.00103286
0.00103449
0.00103632
0.00103828
0.00104029
0.00104224
0.00104403
0.00104556
0.00104677
0.00104761
0.00104808
0.0010482
0.00104808
0.00104782
0.00104763
0.00104765
0.00104818
0.00104932
0.00105095
0.00105605
0.000999722
0.000998776
0.000997787
0.000996755
0.000995679
0.000994561
0.000993402
0.000992203
0.000990969
0.000989703
0.000988407
0.000987087
0.000985746
0.000984391
0.000983025
0.000981655
0.000980286
0.000978924
0.000977575
0.000976245
0.00097494
0.000973668
0.000972435
0.000971251
0.000970124
0.000969065
0.000968084
0.000967194
0.000966406
0.000965735
0.000965193
0.000964794
0.00096455
0.000964473
0.000964574
0.000964861
0.000965343
0.000966023
0.000966905
0.000967987
0.000969266
0.000970736
0.000972389
0.000974212
0.000976192
0.000978314
0.000980559
0.000982909
0.000985343
0.000987843
0.000990387
0.000992955
0.000995527
0.000998083
0.00100061
0.00100308
0.00100548
0.00100779
0.00101001
0.00101211
0.00101408
0.00101592
0.00101761
0.00101914
0.00102052
0.00102172
0.00102276
0.00102363
0.00102433
0.00102487
0.00102526
0.00102552
0.00102566
0.0010257
0.00102568
0.00102563
0.0010256
0.00102562
0.00102576
0.00102604
0.0010265
0.00102717
0.00102805
0.00102911
0.0010303
0.00103155
0.00103279
0.00103393
0.0010349
0.00103566
0.00103619
0.00103653
0.00103676
0.00103698
0.00103736
0.00103802
0.00103922
0.00104103
0.00104324
0.00104904
0.00100348
0.00100288
0.00100227
0.00100162
0.00100095
0.00100024
0.000999507
0.000998745
0.000997955
0.00099714
0.000996301
0.00099544
0.000994561
0.000993666
0.000992759
0.000991843
0.000990923
0.000990004
0.00098909
0.000988186
0.000987298
0.00098643
0.000985591
0.000984784
0.000984017
0.000983298
0.000982633
0.00098203
0.000981497
0.000981043
0.000980675
0.000980402
0.000980232
0.000980173
0.000980233
0.000980417
0.000980731
0.000981179
0.000981765
0.00098249
0.000983353
0.000984353
0.000985486
0.000986745
0.000988125
0.000989616
0.000991208
0.000992889
0.000994649
0.000996472
0.000998346
0.00100026
0.00100219
0.00100413
0.00100605
0.00100796
0.00100983
0.00101164
0.00101338
0.00101505
0.00101661
0.00101807