/*--------------------------------*- C++ -*----------------------------------*\
  =========                 |
  \\      /  F ield         | OpenFOAM: The Open Source CFD Toolbox
   \\    /   O peration     | Website:  https://openfoam.org
    \\  /    A nd           | Version:  10
     \\/     M anipulation  |
\*---------------------------------------------------------------------------*/
FoamFile
{
    format      ascii;
    class       volScalarField;
    location    "0.175";
    object      p;
}
// * * * * * * * * * * * * * * * * * * * * * * * * * * * * * * * * * * * * * //

dimensions      [0 2 -2 0 0 0 0];

internalField   nonuniform List<scalar> 
6820
(
-8.36432
-9.72835
-10.1418
-10.2371
-10.3178
-10.369
-10.3996
-10.4238
-10.4444
-10.4625
-10.4792
-10.4949
-10.5099
-10.5243
-10.5382
-10.5518
-10.5649
-10.5777
-10.59
-10.602
-10.6135
-10.6244
-10.6346
-10.6439
-10.652
-10.6583
-10.662
-10.6616
-10.6549
-10.635
-10.5958
-10.5097
-10.2987
-11.1645
-10.7601
-10.4661
-10.3706
-10.3718
-10.3884
-10.4062
-10.4256
-10.4448
-10.4626
-10.4792
-10.4948
-10.5096
-10.5237
-10.5373
-10.5504
-10.5631
-10.5754
-10.5873
-10.5989
-10.61
-10.6207
-10.6307
-10.64
-10.6482
-10.6551
-10.66
-10.663
-10.6611
-10.6609
-10.6437
-10.6792
-10.6694
-10.0215
-9.89325
-10.1181
-10.2557
-10.3171
-10.3613
-10.3931
-10.4182
-10.4395
-10.4582
-10.4752
-10.491
-10.506
-10.5204
-10.5343
-10.5478
-10.5609
-10.5736
-10.5859
-10.5979
-10.6094
-10.6205
-10.631
-10.6407
-10.6495
-10.6572
-10.6632
-10.6674
-10.6687
-10.6692
-10.6635
-10.6721
-10.6641
-10.3881
-10.4048
-10.3803
-10.3574
-10.3654
-10.3856
-10.4055
-10.4245
-10.4428
-10.4601
-10.4764
-10.4919
-10.5067
-10.5209
-10.5347
-10.548
-10.561
-10.5736
-10.5858
-10.5977
-10.6092
-10.6203
-10.6309
-10.6409
-10.6501
-10.6586
-10.6659
-10.6724
-10.6776
-10.6844
-10.6905
-10.7128
-10.7416
-10.2782
-10.2242
-10.268
-10.3126
-10.3476
-10.3774
-10.4018
-10.423
-10.4422
-10.4598
-10.4761
-10.4916
-10.5063
-10.5205
-10.5342
-10.5475
-10.5605
-10.5732
-10.5855
-10.5975
-10.6092
-10.6205
-10.6315
-10.6419
-10.6518
-10.6612
-10.67
-10.6786
-10.6871
-10.6976
-10.7101
-10.7333
-10.7647
-10.3189
-10.312
-10.3303
-10.3472
-10.3654
-10.3866
-10.407
-10.426
-10.444
-10.4609
-10.4769
-10.4921
-10.5067
-10.5207
-10.5344
-10.5477
-10.5606
-10.5733
-10.5856
-10.5977
-10.6095
-10.621
-10.6322
-10.6431
-10.6537
-10.664
-10.6741
-10.6846
-10.6958
-10.7094
-10.7262
-10.7512
-10.7846
-10.3182
-10.3074
-10.3221
-10.3435
-10.3653
-10.3876
-10.4082
-10.4271
-10.4448
-10.4615
-10.4772
-10.4923
-10.5068
-10.5208
-10.5344
-10.5476
-10.5606
-10.5732
-10.5857
-10.5979
-10.6098
-10.6215
-10.6331
-10.6444
-10.6556
-10.6668
-10.6783
-10.6903
-10.7036
-10.7193
-10.7385
-10.7637
-10.7956
-10.3278
-10.3247
-10.3377
-10.3556
-10.3737
-10.3928
-10.4115
-10.4293
-10.4462
-10.4624
-10.4778
-10.4927
-10.507
-10.5209
-10.5344
-10.5476
-10.5605
-10.5732
-10.5857
-10.598
-10.6101
-10.622
-10.6339
-10.6457
-10.6575
-10.6695
-10.682
-10.6953
-10.7101
-10.7272
-10.7475
-10.7724
-10.8024
-10.3364
-10.3352
-10.3456
-10.3613
-10.3782
-10.3962
-10.414
-10.4311
-10.4475
-10.4633
-10.4784
-10.493
-10.5072
-10.5209
-10.5344
-10.5475
-10.5604
-10.5731
-10.5857
-10.598
-10.6103
-10.6224
-10.6346
-10.6468
-10.6591
-10.6718
-10.6852
-10.6995
-10.7152
-10.7331
-10.7538
-10.7779
-10.8058
-10.3449
-10.3454
-10.3547
-10.3687
-10.3841
-10.4005
-10.4171
-10.4333
-10.4491
-10.4644
-10.4791
-10.4934
-10.5074
-10.521
-10.5343
-10.5474
-10.5603
-10.573
-10.5855
-10.598
-10.6104
-10.6227
-10.6351
-10.6477
-10.6605
-10.6738
-10.6877
-10.7027
-10.719
-10.7372
-10.7578
-10.7809
-10.8068
-10.3533
-10.3546
-10.3628
-10.3753
-10.3893
-10.4045
-10.4201
-10.4355
-10.4507
-10.4654
-10.4798
-10.4939
-10.5076
-10.5211
-10.5343
-10.5473
-10.5601
-10.5728
-10.5854
-10.5979
-10.6104
-10.6229
-10.6355
-10.6483
-10.6615
-10.6752
-10.6895
-10.7049
-10.7215
-10.7398
-10.7599
-10.7819
-10.806
-10.3613
-10.363
-10.3704
-10.3816
-10.3945
-10.4085
-10.4231
-10.4378
-10.4523
-10.4666
-10.4806
-10.4944
-10.5079
-10.5211
-10.5342
-10.5471
-10.5598
-10.5725
-10.5851
-10.5976
-10.6102
-10.6228
-10.6356
-10.6487
-10.6621
-10.676
-10.6906
-10.7062
-10.7228
-10.7408
-10.7603
-10.7813
-10.8037
-10.3688
-10.3707
-10.3775
-10.3876
-10.3994
-10.4124
-10.4261
-10.44
-10.4539
-10.4678
-10.4814
-10.4948
-10.5081
-10.5211
-10.5341
-10.5468
-10.5595
-10.5721
-10.5847
-10.5972
-10.6098
-10.6226
-10.6355
-10.6486
-10.6622
-10.6763
-10.691
-10.7065
-10.723
-10.7406
-10.7594
-10.7793
-10.8002
-10.3759
-10.3778
-10.3841
-10.3933
-10.4041
-10.4162
-10.4291
-10.4423
-10.4556
-10.4689
-10.4821
-10.4953
-10.5083
-10.5211
-10.5339
-10.5465
-10.5591
-10.5716
-10.5841
-10.5967
-10.6093
-10.6221
-10.635
-10.6482
-10.6618
-10.6759
-10.6906
-10.706
-10.7222
-10.7393
-10.7573
-10.7761
-10.7957
-10.3825
-10.3843
-10.3901
-10.3985
-10.4085
-10.4198
-10.4319
-10.4444
-10.4572
-10.47
-10.4829
-10.4957
-10.5084
-10.521
-10.5336
-10.5461
-10.5586
-10.571
-10.5834
-10.5959
-10.6085
-10.6213
-10.6342
-10.6474
-10.6609
-10.6749
-10.6895
-10.7046
-10.7204
-10.7369
-10.7541
-10.7719
-10.7902
-10.3886
-10.3903
-10.3956
-10.4034
-10.4127
-10.4232
-10.4346
-10.4465
-10.4587
-10.4711
-10.4835
-10.496
-10.5085
-10.5209
-10.5332
-10.5456
-10.5579
-10.5702
-10.5826
-10.595
-10.6075
-10.6201
-10.633
-10.6461
-10.6596
-10.6734
-10.6876
-10.7024
-10.7177
-10.7336
-10.7499
-10.7668
-10.784
-10.3941
-10.3958
-10.4007
-10.4078
-10.4165
-10.4263
-10.4371
-10.4484
-10.4601
-10.472
-10.4841
-10.4963
-10.5084
-10.5206
-10.5328
-10.5449
-10.5571
-10.5693
-10.5815
-10.5938
-10.6062
-10.6187
-10.6314
-10.6444
-10.6576
-10.6712
-10.6851
-10.6995
-10.7142
-10.7294
-10.745
-10.7608
-10.7769
-10.3991
-10.4007
-10.4052
-10.4119
-10.4199
-10.4292
-10.4393
-10.4501
-10.4614
-10.4729
-10.4846
-10.4964
-10.5083
-10.5202
-10.5321
-10.5441
-10.5561
-10.5681
-10.5802
-10.5923
-10.6046
-10.6169
-10.6295
-10.6422
-10.6552
-10.6685
-10.682
-10.6959
-10.71
-10.7245
-10.7392
-10.7542
-10.7693
-10.4036
-10.405
-10.4093
-10.4155
-10.423
-10.4317
-10.4414
-10.4517
-10.4624
-10.4735
-10.4849
-10.4964
-10.508
-10.5196
-10.5314
-10.5431
-10.5549
-10.5667
-10.5786
-10.5906
-10.6026
-10.6148
-10.6271
-10.6396
-10.6523
-10.6651
-10.6782
-10.6916
-10.7051
-10.7189
-10.7328
-10.7469
-10.761
-10.4075
-10.4089
-10.4129
-10.4186
-10.4257
-10.4339
-10.4431
-10.4529
-10.4633
-10.474
-10.485
-10.4962
-10.5075
-10.5189
-10.5304
-10.5419
-10.5535
-10.5651
-10.5768
-10.5886
-10.6004
-10.6123
-10.6244
-10.6365
-10.6488
-10.6613
-10.6739
-10.6867
-10.6996
-10.7127
-10.7258
-10.739
-10.7521
-10.4109
-10.4122
-10.4159
-10.4213
-10.428
-10.4358
-10.4445
-10.4539
-10.4639
-10.4743
-10.4849
-10.4958
-10.5068
-10.518
-10.5292
-10.5405
-10.5519
-10.5633
-10.5748
-10.5863
-10.5978
-10.6095
-10.6212
-10.633
-10.6449
-10.6569
-10.6691
-10.6813
-10.6935
-10.7059
-10.7182
-10.7305
-10.7428
-10.4137
-10.4149
-10.4184
-10.4235
-10.4298
-10.4373
-10.4456
-10.4546
-10.4642
-10.4742
-10.4846
-10.4952
-10.5059
-10.5168
-10.5278
-10.5389
-10.55
-10.5612
-10.5724
-10.5836
-10.5949
-10.6063
-10.6177
-10.6291
-10.6406
-10.6521
-10.6637
-10.6753
-10.6869
-10.6986
-10.7101
-10.7216
-10.733
-10.4159
-10.417
-10.4204
-10.4252
-10.4312
-10.4383
-10.4463
-10.455
-10.4643
-10.474
-10.484
-10.4943
-10.5048
-10.5155
-10.5262
-10.5371
-10.5479
-10.5589
-10.5698
-10.5808
-10.5917
-10.6027
-10.6138
-10.6248
-10.6358
-10.6469
-10.6579
-10.6689
-10.6799
-10.6908
-10.7016
-10.7123
-10.7228
-10.4175
-10.4186
-10.4217
-10.4263
-10.4321
-10.4389
-10.4465
-10.4549
-10.4639
-10.4733
-10.4831
-10.4931
-10.5034
-10.5138
-10.5243
-10.5349
-10.5455
-10.5562
-10.5668
-10.5775
-10.5882
-10.5988
-10.6095
-10.6201
-10.6307
-10.6412
-10.6517
-10.6621
-10.6724
-10.6826
-10.6927
-10.7026
-10.7123
-10.4185
-10.4195
-10.4226
-10.427
-10.4325
-10.439
-10.4464
-10.4546
-10.4633
-10.4725
-10.482
-10.4918
-10.5018
-10.512
-10.5223
-10.5326
-10.543
-10.5534
-10.5637
-10.5741
-10.5844
-10.5947
-10.6049
-10.6151
-10.6252
-10.6353
-10.6452
-10.655
-10.6647
-10.6742
-10.6835
-10.6927
-10.7016
-10.4189
-10.4198
-10.4227
-10.4269
-10.4321
-10.4384
-10.4456
-10.4535
-10.462
-10.4709
-10.4802
-10.4898
-10.4996
-10.5096
-10.5196
-10.5297
-10.5399
-10.55
-10.5601
-10.5702
-10.5802
-10.5901
-10.5999
-10.6097
-10.6193
-10.6288
-10.6382
-10.6474
-10.6565
-10.6654
-10.674
-10.6824
-10.6906
-10.4186
-10.4195
-10.4223
-10.4264
-10.4316
-10.4378
-10.4448
-10.4525
-10.4608
-10.4696
-10.4788
-10.4882
-10.4978
-10.5075
-10.5173
-10.5272
-10.537
-10.5469
-10.5566
-10.5664
-10.576
-10.5856
-10.595
-10.6043
-10.6134
-10.6224
-10.6313
-10.6399
-10.6483
-10.6565
-10.6645
-10.6722
-10.6796
-10.4175
-10.4184
-10.4209
-10.4247
-10.4295
-10.4354
-10.4422
-10.4498
-10.4579
-10.4666
-10.4756
-10.4849
-10.4943
-10.5039
-10.5136
-10.5233
-10.533
-10.5426
-10.5522
-10.5616
-10.571
-10.5802
-10.5892
-10.5981
-10.6069
-10.6154
-10.6237
-10.6318
-10.6396
-10.6472
-10.6546
-10.6616
-10.6683
-10.416
-10.417
-10.4198
-10.4238
-10.4288
-10.4348
-10.4416
-10.4491
-10.4571
-10.4656
-10.4745
-10.4835
-10.4928
-10.5021
-10.5115
-10.5209
-10.5303
-10.5396
-10.5488
-10.5579
-10.5668
-10.5756
-10.5842
-10.5926
-10.6009
-10.6089
-10.6166
-10.6241
-10.6314
-10.6384
-10.645
-10.6514
-10.6574
-10.4131
-10.4134
-10.4151
-10.4182
-10.4227
-10.4284
-10.4351
-10.4426
-10.4507
-10.4594
-10.4684
-10.4776
-10.487
-10.4964
-10.5059
-10.5153
-10.5246
-10.5339
-10.543
-10.5519
-10.5607
-10.5693
-10.5776
-10.5857
-10.5936
-10.6012
-10.6085
-10.6156
-10.6224
-10.6288
-10.6349
-10.6408
-10.6462
-10.4112
-10.4132
-10.4165
-10.4205
-10.4255
-10.4313
-10.4379
-10.4452
-10.453
-10.4612
-10.4697
-10.4785
-10.4874
-10.4964
-10.5053
-10.5143
-10.5231
-10.5319
-10.5405
-10.549
-10.5572
-10.5653
-10.5731
-10.5807
-10.588
-10.5951
-10.6019
-10.6083
-10.6145
-10.6203
-10.6258
-10.631
-10.6358
-10.4033
-10.4012
-10.401
-10.4033
-10.4078
-10.414
-10.4214
-10.4296
-10.4385
-10.4478
-10.4574
-10.467
-10.4767
-10.4864
-10.496
-10.5054
-10.5147
-10.5237
-10.5326
-10.5412
-10.5495
-10.5576
-10.5653
-10.5728
-10.58
-10.5868
-10.5933
-10.5995
-10.6053
-10.6107
-10.6158
-10.6206
-10.6249
-10.4092
-10.4147
-10.419
-10.4221
-10.4259
-10.4307
-10.4365
-10.443
-10.4502
-10.4579
-10.4659
-10.4741
-10.4825
-10.491
-10.4995
-10.5079
-10.5162
-10.5244
-10.5324
-10.5402
-10.5478
-10.5551
-10.5622
-10.569
-10.5755
-10.5817
-10.5875
-10.5931
-10.5982
-10.6031
-10.6075
-10.6116
-10.6153
-10.3797
-10.3686
-10.3654
-10.3694
-10.3769
-10.3861
-10.3964
-10.4073
-10.4185
-10.4298
-10.441
-10.452
-10.4628
-10.4733
-10.4835
-10.4934
-10.503
-10.5122
-10.5211
-10.5296
-10.5377
-10.5455
-10.5529
-10.5599
-10.5666
-10.5728
-10.5787
-10.5842
-10.5892
-10.5939
-10.5982
-10.602
-10.6054
-10.4277
-10.4439
-10.4453
-10.4397
-10.4374
-10.4384
-10.4414
-10.4458
-10.4512
-10.4574
-10.4643
-10.4716
-10.4791
-10.4868
-10.4945
-10.5022
-10.5099
-10.5174
-10.5247
-10.5319
-10.5388
-10.5454
-10.5518
-10.5578
-10.5636
-10.569
-10.574
-10.5787
-10.5831
-10.587
-10.5906
-10.5938
-10.5966
-10.3178
-10.2797
-10.274
-10.2978
-10.3182
-10.3365
-10.3547
-10.3721
-10.3885
-10.404
-10.4185
-10.4323
-10.4452
-10.4574
-10.469
-10.48
-10.4903
-10.5001
-10.5094
-10.5182
-10.5264
-10.5342
-10.5415
-10.5483
-10.5547
-10.5606
-10.5661
-10.571
-10.5756
-10.5797
-10.5833
-10.5865
-10.5892
-10.5304
-10.5549
-10.5259
-10.4891
-10.4658
-10.4579
-10.4548
-10.4542
-10.4561
-10.4597
-10.4645
-10.4701
-10.4763
-10.4828
-10.4896
-10.4964
-10.5033
-10.5101
-10.5167
-10.5232
-10.5295
-10.5355
-10.5412
-10.5467
-10.5518
-10.5566
-10.561
-10.5651
-10.5688
-10.5721
-10.575
-10.5776
-10.5798
-10.1147
-10.0329
-10.09
-10.1708
-10.2273
-10.2659
-10.2994
-10.3287
-10.3538
-10.3758
-10.3954
-10.4129
-10.4288
-10.4433
-10.4566
-10.4689
-10.4803
-10.4909
-10.5007
-10.5098
-10.5183
-10.5262
-10.5335
-10.5403
-10.5465
-10.5522
-10.5573
-10.562
-10.5661
-10.5698
-10.573
-10.5757
-10.5778
-11.0913
-10.8132
-10.6075
-10.5164
-10.4794
-10.4587
-10.4461
-10.4406
-10.44
-10.4423
-10.4465
-10.4519
-10.4583
-10.4651
-10.4722
-10.4795
-10.4867
-10.4939
-10.5009
-10.5077
-10.5143
-10.5205
-10.5264
-10.532
-10.5373
-10.5421
-10.5466
-10.5506
-10.5543
-10.5576
-10.5604
-10.5629
-10.5649
-9.13327
-9.69486
-9.99957
-10.1157
-10.1973
-10.2608
-10.306
-10.3401
-10.3676
-10.3902
-10.4092
-10.4257
-10.4403
-10.4534
-10.4654
-10.4763
-10.4864
-10.4958
-10.5045
-10.5127
-10.5202
-10.5272
-10.5337
-10.5397
-10.5452
-10.5501
-10.5547
-10.5587
-10.5622
-10.5653
-10.5679
-10.5701
-10.5718
-10.2178
-10.8522
-10.9035
-10.9562
-11.0686
-11.1475
-11.2054
-11.2561
-11.3054
-11.3561
-11.41
-11.4673
-11.527
-11.5876
-11.6479
-11.7066
-11.7625
-11.8147
-11.8624
-11.9049
-11.9419
-11.9729
-11.9974
-12.0151
-12.0256
-12.0283
-12.0227
-12.008
-11.9836
-11.9488
-11.9028
-11.8449
-11.7745
-11.6907
-11.593
-11.4807
-11.3533
-11.2103
-11.0513
-10.8759
-10.6839
-10.4752
-10.2498
-10.008
-9.75013
-9.47669
-9.18846
-8.88638
-8.57158
-8.24539
-7.90931
-7.56502
-7.21434
-6.85921
-6.50167
-6.14382
-5.78777
-5.43565
-5.0895
-4.75129
-4.42285
-4.10587
-3.80184
-3.51203
-3.23751
-2.97908
-2.73734
-2.51264
-2.3051
-2.11463
-1.94097
-1.78366
-1.64209
-1.51552
-1.40308
-1.30379
-1.21658
-1.1403
-1.07375
-1.01566
-0.964747
-0.919688
-0.879166
-0.841875
-0.806542
-0.771945
-0.736943
-0.70049
-0.661689
-0.619791
-0.574262
-0.52483
-0.471295
-0.414378
-0.353148
-0.291982
-0.22234
-0.168061
-0.0729233
-0.0778163
-11.0455
-11.3353
-11.2315
-11.1729
-11.1626
-11.1686
-11.1825
-11.2089
-11.2473
-11.2964
-11.3536
-11.4161
-11.481
-11.5459
-11.6089
-11.6689
-11.7249
-11.7764
-11.8228
-11.8638
-11.8992
-11.9286
-11.9517
-11.9681
-11.9774
-11.9789
-11.972
-11.9562
-11.9308
-11.895
-11.8481
-11.7894
-11.7182
-11.634
-11.536
-11.4236
-11.2963
-11.1537
-10.9953
-10.8208
-10.63
-10.4229
-10.1994
-9.95973
-9.70434
-9.43375
-9.14868
-8.85008
-8.53904
-8.21687
-7.88501
-7.54511
-7.19893
-6.84835
-6.49534
-6.14196
-5.79027
-5.44232
-5.10012
-4.76561
-4.44057
-4.12666
-3.82534
-3.53787
-3.26529
-3.0084
-2.76779
-2.5438
-2.33658
-2.14606
-1.97198
-1.81392
-1.67131
-1.54345
-1.4295
-1.32853
-1.23954
-1.16141
-1.09298
-1.03303
-0.980291
-0.933478
-0.891291
-0.852439
-0.815657
-0.779729
-0.743515
-0.705974
-0.666194
-0.623452
-0.57715
-0.527133
-0.472934
-0.415788
-0.353667
-0.293163
-0.2211
-0.170899
-0.0663326
-0.0902967
-10.734
-10.8694
-10.9133
-10.9614
-11.0332
-11.0985
-11.1505
-11.1975
-11.2435
-11.2909
-11.341
-11.3945
-11.4502
-11.5072
-11.5644
-11.6206
-11.6745
-11.7251
-11.7715
-11.8128
-11.8485
-11.8779
-11.9007
-11.9164
-11.9248
-11.9252
-11.9172
-11.9002
-11.8736
-11.8367
-11.7888
-11.7293
-11.6575
-11.5728
-11.4745
-11.3621
-11.235
-11.0929
-10.9352
-10.7618
-10.5724
-10.3669
-10.1455
-9.90822
-9.65555
-9.388
-9.1063
-8.81134
-8.5042
-8.18615
-7.8586
-7.52315
-7.1815
-6.8355
-6.48708
-6.13823
-5.79098
-5.44734
-5.10927
-4.77865
-4.45724
-4.14664
-3.84828
-3.56338
-3.29297
-3.03784
-2.79856
-2.57548
-2.36875
-2.17831
-2.00395
-1.84525
-1.70169
-1.57259
-1.45716
-1.35452
-1.2637
-1.18365
-1.11323
-1.05129
-0.99658
-0.947861
-0.903854
-0.863286
-0.824908
-0.787512
-0.74996
-0.711222
-0.670371
-0.626711
-0.57958
-0.528939
-0.474065
-0.416691
-0.353726
-0.293905
-0.21959
-0.173377
-0.0600627
-0.101825
-10.843
-11.0161
-11.0796
-11.0975
-11.1248
-11.1522
-11.177
-11.2053
-11.2397
-11.2808
-11.3265
-11.3776
-11.4312
-11.4857
-11.5397
-11.5918
-11.6411
-11.6869
-11.7286
-11.7657
-11.7977
-11.8241
-11.8445
-11.8583
-11.8651
-11.8643
-11.8553
-11.8374
-11.8099
-11.7723
-11.7237
-11.6636
-11.5913
-11.5063
-11.4079
-11.2956
-11.1689
-11.0273
-10.8705
-10.6983
-10.5104
-10.3067
-10.0874
-9.85257
-9.60268
-9.33823
-9.05993
-8.76865
-8.46546
-8.15159
-7.82844
-7.49754
-7.16059
-6.81937
-6.47577
-6.13174
-5.78923
-5.45021
-5.11658
-4.79016
-4.47266
-4.16564
-3.87049
-3.5884
-3.32037
-3.06717
-2.82937
-2.60734
-2.40123
-2.211
-2.03646
-1.87723
-1.73281
-1.60255
-1.48571
-1.38144
-1.28881
-1.20681
-1.13436
-1.07033
-1.01356
-0.962802
-0.916836
-0.87441
-0.834293
-0.795294
-0.756283
-0.716238
-0.674225
-0.629574
-0.581565
-0.530271
-0.474721
-0.417131
-0.353387
-0.294284
-0.217904
-0.175564
-0.0542333
-0.112356
-10.8281
-10.9226
-10.9668
-10.9965
-11.04
-11.0858
-11.1281
-11.1699
-11.213
-11.2577
-11.3062
-11.3551
-11.4054
-11.4562
-11.5064
-11.5552
-11.6017
-11.6452
-11.6847
-11.7198
-11.7497
-11.7739
-11.792
-11.8035
-11.8079
-11.8048
-11.7935
-11.7735
-11.7442
-11.7049
-11.655
-11.5938
-11.5207
-11.4351
-11.3364
-11.224
-11.0975
-10.9565
-10.8006
-10.6295
-10.4431
-10.2413
-10.0241
-9.79185
-9.54485
-9.28363
-9.00889
-8.72149
-8.42248
-8.11306
-7.79458
-7.46855
-7.13661
-6.8005
-6.46206
-6.12316
-5.78573
-5.45163
-5.12273
-4.80079
-4.48745
-4.18422
-3.89246
-3.61332
-3.34778
-3.09661
-2.86038
-2.63946
-2.43402
-2.24405
-2.06938
-1.90966
-1.76441
-1.63304
-1.51483
-1.40897
-1.31456
-1.23063
-1.15614
-1.09001
-1.0311
-0.978232
-0.930203
-0.885802
-0.843825
-0.803104
-0.762518
-0.721066
-0.677806
-0.632098
-0.583168
-0.531198
-0.474983
-0.4172
-0.352754
-0.294398
-0.216155
-0.177523
-0.0489489
-0.121851
-10.8389
-10.9215
-10.9806
-11.021
-11.061
-11.0995
-11.1347
-11.1699
-11.2073
-11.2471
-11.2898
-11.3348
-11.3815
-11.4288
-11.4756
-11.5209
-11.564
-11.6039
-11.64
-11.6717
-11.6985
-11.7199
-11.7355
-11.7446
-11.7469
-11.7418
-11.7286
-11.7069
-11.676
-11.6352
-11.5839
-11.5216
-11.4475
-11.3612
-11.262
-11.1494
-11.0231
-10.8825
-10.7273
-10.5573
-10.3724
-10.1724
-9.95746
-9.72781
-9.4838
-9.22594
-8.95493
-8.6716
-8.37697
-8.07221
-7.75865
-7.43775
-7.1111
-6.78038
-6.44737
-6.11389
-5.78176
-5.45281
-5.12883
-4.8115
-4.50242
-4.20307
-3.91474
-3.63859
-3.37557
-3.12645
-2.8918
-2.67199
-2.46722
-2.27751
-2.1027
-1.94249
-1.79643
-1.66395
-1.54437
-1.43693
-1.34074
-1.25489
-1.17837
-1.11013
-1.04906
-0.994032
-0.943879
-0.897424
-0.853497
-0.810956
-0.768704
-0.725759
-0.68118
-0.63436
-0.584478
-0.531823
-0.474963
-0.417015
-0.351946
-0.294357
-0.214446
-0.179304
-0.0442758
-0.130292
-10.8414
-10.9052
-10.9556
-10.9932
-11.0312
-11.0699
-11.1074
-11.1449
-11.1835
-11.2244
-11.2666
-11.3101
-11.3544
-11.3988
-11.4425
-11.4846
-11.5244
-11.5612
-11.5944
-11.6233
-11.6475
-11.6663
-11.6793
-11.6859
-11.6858
-11.6783
-11.6629
-11.6391
-11.6063
-11.5637
-11.511
-11.4473
-11.3722
-11.2851
-11.1854
-11.0727
-10.9464
-10.8063
-10.6519
-10.4831
-10.2997
-10.1016
-9.88905
-9.66213
-9.42124
-9.16691
-8.8998
-8.62073
-8.3307
-8.03083
-7.72241
-7.40685
-7.08567
-6.76051
-6.43306
-6.10507
-5.77831
-5.45454
-5.13546
-4.82274
-4.51791
-4.2224
-3.93749
-3.6643
-3.40377
-3.15668
-2.92358
-2.70488
-2.50078
-2.31132
-2.13638
-1.97567
-1.82879
-1.6952
-1.57426
-1.46522
-1.36726
-1.27948
-1.20092
-1.13055
-1.06731
-1.0101
-0.957784
-0.909229
-0.863293
-0.81887
-0.774885
-0.730386
-0.684438
-0.63647
-0.585618
-0.532275
-0.474795
-0.416706
-0.351088
-0.294256
-0.212861
-0.180935
-0.0402417
-0.137671
-10.8425
-10.8958
-10.9436
-10.9833
-11.0217
-11.0597
-11.0961
-11.1321
-11.169
-11.2068
-11.2462
-11.2867
-11.3278
-11.369
-11.4093
-11.4482
-11.4849
-11.5186
-11.5488
-11.5748
-11.5961
-11.6121
-11.6225
-11.6267
-11.6241
-11.6144
-11.5969
-11.5711
-11.5364
-11.4922
-11.4379
-11.373
-11.2968
-11.2089
-11.1087
-10.9958
-10.8696
-10.73
-10.5764
-10.4088
-10.227
-10.031
-9.82078
-9.59669
-9.35905
-9.10835
-8.84525
-8.57054
-8.28517
-7.99025
-7.687
-7.37679
-7.06108
-6.74144
-6.4195
-6.09695
-5.7755
-5.45683
-5.1426
-4.83442
-4.53377
-4.24206
-3.96052
-3.69026
-3.4322
-3.18712
-2.95557
-2.73797
-2.53454
-2.34534
-2.17027
-2.00908
-1.86139
-1.7267
-1.60439
-1.49377
-1.39404
-1.30433
-1.22372
-1.15121
-1.08579
-1.02638
-0.971879
-0.921196
-0.873219
-0.826875
-0.781119
-0.735029
-0.68768
-0.638543
-0.586714
-0.532685
-0.474606
-0.416388
-0.350276
-0.29416
-0.211448
-0.182426
-0.0368404
-0.144004
-10.8415
-10.8872
-10.9307
-10.9689
-11.0056
-11.0419
-11.0773
-11.1125
-11.1484
-11.185
-11.2227
-11.261
-11.2996
-11.3379
-11.3753
-11.4111
-11.4447
-11.4754
-11.5027
-11.5258
-11.5444
-11.5579
-11.5657
-11.5675
-11.5626
-11.5506
-11.531
-11.5032
-11.4667
-11.4208
-11.3651
-11.2989
-11.2218
-11.1332
-11.0325
-10.9194
-10.7935
-10.6543
-10.5017
-10.3353
-10.1552
-9.96119
-9.75348
-9.53225
-9.29787
-9.05081
-8.79171
-8.52134
-8.24061
-7.95059
-7.65246
-7.34753
-7.03721
-6.72302
-6.40651
-6.08933
-5.77309
-5.45946
-5.15001
-4.84631
-4.5498
-4.26183
-3.98363
-3.71627
-3.46068
-3.21759
-2.9876
-2.77111
-2.56836
-2.37943
-2.20424
-2.04259
-1.8941
-1.75833
-1.63468
-1.52249
-1.42099
-1.32936
-1.2467
-1.17206
-1.10445
-1.04283
-0.986144
-0.933319
-0.883285
-0.835003
-0.787456
-0.739757
-0.690994
-0.640676
-0.587868
-0.533152
-0.474488
-0.416133
-0.349564
-0.294098
-0.210224
-0.183769
-0.0340424
-0.14932
-10.8391
-10.8794
-10.9191
-10.9559
-10.9914
-11.0265
-11.0609
-11.0949
-11.1292
-11.1641
-11.1995
-11.2353
-11.2711
-11.3066
-11.341
-11.3738
-11.4044
-11.4321
-11.4564
-11.4768
-11.4927
-11.5035
-11.5089
-11.5082
-11.5011
-11.4869
-11.4653
-11.4355
-11.3973
-11.3498
-11.2927
-11.2254
-11.1473
-11.058
-10.957
-10.8438
-10.7181
-10.5795
-10.4278
-10.2627
-10.0843
-9.89236
-9.68712
-9.46876
-9.23762
-8.99418
-8.73905
-8.47298
-8.19684
-7.91166
-7.61858
-7.31886
-7.01386
-6.70503
-6.39388
-6.08198
-5.7709
-5.46222
-5.1575
-4.85822
-4.56581
-4.28156
-4.00667
-3.7422
-3.48906
-3.24797
-3.01954
-2.80416
-2.60211
-2.41347
-2.23819
-2.07609
-1.92684
-1.79
-1.66502
-1.55128
-1.44803
-1.35449
-1.2698
-1.19304
-1.12325
-1.05943
-1.00055
-0.945583
-0.89349
-0.843267
-0.793924
-0.744611
-0.694429
-0.642926
-0.589137
-0.533729
-0.474483
-0.415971
-0.34897
-0.294074
-0.209184
-0.184956
-0.0318053
-0.153672
-10.8355
-10.8716
-10.908
-10.9429
-10.9767
-11.0102
-11.0431
-11.0758
-11.1086
-11.1417
-11.1751
-11.2086
-11.2419
-11.2746
-11.3061
-11.336
-11.3637
-11.3886
-11.4101
-11.4277
-11.4409
-11.4492
-11.452
-11.449
-11.4396
-11.4233
-11.3997
-11.3681
-11.3281
-11.2791
-11.2207
-11.1523
-11.0733
-10.9834
-10.882
-10.7688
-10.6434
-10.5054
-10.3546
-10.1909
-10.0142
-9.82435
-9.62158
-9.40607
-9.17816
-8.93832
-8.68712
-8.42529
-8.15369
-7.87329
-7.5852
-7.29062
-6.99086
-6.68732
-6.38146
-6.07477
-5.76878
-5.46501
-5.16495
-4.87006
-4.5817
-4.30114
-4.02955
-3.76796
-3.51726
-3.27818
-3.0513
-2.83706
-2.63572
-2.44739
-2.27205
-2.10952
-1.95952
-1.82164
-1.69536
-1.58008
-1.47511
-1.37968
-1.29297
-1.2141
-1.14214
-1.07612
-1.01506
-0.957961
-0.903815
-0.851655
-0.800521
-0.749595
-0.697995
-0.645306
-0.590535
-0.534425
-0.474597
-0.415901
-0.348489
-0.294079
-0.208317
-0.185981
-0.0300819
-0.157122
-10.8309
-10.8636
-10.8972
-10.93
-10.9621
-10.994
-11.0254
-11.0566
-11.0878
-11.119
-11.1503
-11.1815
-11.2123
-11.2423
-11.2711
-11.2981
-11.3229
-11.3449
-11.3637
-11.3786
-11.3891
-11.3949
-11.3953
-11.39
-11.3783
-11.36
-11.3343
-11.3009
-11.2593
-11.2088
-11.1491
-11.0796
-10.9998
-10.9093
-10.8076
-10.6944
-10.5693
-10.432
-10.2822
-10.1199
-9.94481
-9.75708
-9.55677
-9.3441
-9.1194
-8.88311
-8.63581
-8.37818
-8.11106
-7.83538
-7.55221
-7.2627
-6.96812
-6.6698
-6.36915
-6.06761
-5.76665
-5.46773
-5.1723
-4.88175
-4.59741
-4.32051
-4.0522
-3.79347
-3.54521
-3.30814
-3.08284
-2.86975
-2.66913
-2.48114
-2.30574
-2.14282
-1.99209
-1.85319
-1.72563
-1.60884
-1.50216
-1.40486
-1.31616
-1.23519
-1.16107
-1.09288
-1.02965
-0.970427
-0.914238
-0.860148
-0.80723
-0.754697
-0.701683
-0.647807
-0.592054
-0.535234
-0.474822
-0.415916
-0.348115
-0.294105
-0.207611
-0.186844
-0.0288247
-0.159748
-10.8253
-10.8554
-10.8863
-10.9171
-10.9474
-10.9775
-11.0074
-11.0369
-11.0664
-11.0957
-11.1249
-11.1538
-11.1822
-11.2096
-11.2357
-11.26
-11.282
-11.3013
-11.3173
-11.3295
-11.3375
-11.3407
-11.3388
-11.3311
-11.3173
-11.2969
-11.2693
-11.2341
-11.1908
-11.139
-11.078
-11.0074
-10.9269
-10.8358
-10.7339
-10.6207
-10.4959
-10.3593
-10.2105
-10.0495
-9.87616
-9.69051
-9.49266
-9.28282
-9.06129
-8.82853
-8.58507
-8.3316
-8.0689
-7.79788
-7.51956
-7.23506
-6.94559
-6.65242
-6.35692
-6.06046
-5.76447
-5.47034
-5.17948
-4.89323
-4.61288
-4.33962
-4.07457
-3.8187
-3.57287
-3.33781
-3.1141
-2.90216
-2.7023
-2.51465
-2.33923
-2.17593
-2.02451
-1.88462
-1.7558
-1.63752
-1.52916
-1.43001
-1.33932
-1.25628
-1.18003
-1.10967
-1.04429
-0.982958
-0.924738
-0.868731
-0.814037
-0.759904
-0.705482
-0.650421
-0.593686
-0.536148
-0.475153
-0.41601
-0.34784
-0.294151
-0.207059
-0.187557
-0.0279873
-0.161631
-10.819
-10.8467
-10.8753
-10.904
-10.9326
-10.9609
-10.9891
-11.017
-11.0446
-11.0721
-11.0992
-11.1258
-11.1517
-11.1766
-11.2001
-11.2217
-11.241
-11.2576
-11.2709
-11.2806
-11.286
-11.2868
-11.2825
-11.2725
-11.2566
-11.2341
-11.2046
-11.1677
-11.1228
-11.0696
-11.0074
-10.9358
-10.8545
-10.7629
-10.6608
-10.5476
-10.4232
-10.2872
-10.1395
-9.97986
-9.80824
-9.62468
-9.42926
-9.22221
-9.00384
-8.77456
-8.5349
-8.28553
-8.0272
-7.76078
-7.48725
-7.20768
-6.92324
-6.63516
-6.34473
-6.05329
-5.7622
-5.47281
-5.18647
-4.90448
-4.62808
-4.35843
-4.09661
-3.84359
-3.60019
-3.36715
-3.14502
-2.93426
-2.73516
-2.54788
-2.37247
-2.20882
-2.05672
-1.91586
-1.78581
-1.66607
-1.55605
-1.45508
-1.36243
-1.27734
-1.19897
-1.12647
-1.05896
-0.995534
-0.935299
-0.877388
-0.820932
-0.765209
-0.709385
-0.653143
-0.595428
-0.537165
-0.475587
-0.416183
-0.347667
-0.294221
-0.206655
-0.188133
-0.0275248
-0.162855
-10.8119
-10.8376
-10.8641
-10.8908
-10.9175
-10.9441
-10.9705
-10.9967
-11.0225
-11.048
-11.073
-11.0974
-11.121
-11.1434
-11.1643
-11.1834
-11.2001
-11.214
-11.2247
-11.2318
-11.2347
-11.2331
-11.2264
-11.2143
-11.1962
-11.1718
-11.1404
-11.1018
-11.0554
-11.0007
-10.9373
-10.8649
-10.7828
-10.6908
-10.5884
-10.4753
-10.3513
-10.216
-10.0693
-9.911
-9.7411
-9.55959
-9.3666
-9.16232
-8.94706
-8.72122
-8.48532
-8.23999
-7.98597
-7.72408
-7.45526
-7.18056
-6.90108
-6.61801
-6.33258
-6.04609
-5.75984
-5.47512
-5.19325
-4.91546
-4.64297
-4.3769
-4.1183
-3.8681
-3.62713
-3.3961
-3.17557
-2.96599
-2.76767
-2.58079
-2.40539
-2.24142
-2.08868
-1.94688
-1.81563
-1.69446
-1.5828
-1.48003
-1.38546
-1.29833
-1.21788
-1.14326
-1.07363
-1.00813
-0.945905
-0.886109
-0.827906
-0.770604
-0.713389
-0.65597
-0.597281
-0.538288
-0.476129
-0.416442
-0.347599
-0.294321
-0.206397
-0.188589
-0.0273937
-0.163505
-10.8042
-10.828
-10.8525
-10.8774
-10.9023
-10.9271
-10.9517
-10.9761
-11.0001
-11.0236
-11.0466
-11.0688
-11.0901
-11.1101
-11.1285
-11.145
-11.1591
-11.1705
-11.1787
-11.1832
-11.1837
-11.1797
-11.1708
-11.1565
-11.1363
-11.1099
-11.0768
-11.0364
-10.9885
-10.9325
-10.868
-10.7946
-10.7118
-10.6193
-10.5168
-10.4038
-10.2802
-10.1456
-9.99989
-9.84297
-9.67477
-9.49532
-9.30472
-9.10318
-8.89099
-8.66855
-8.43636
-8.19501
-7.94522
-7.68779
-7.42362
-7.15371
-6.87911
-6.60096
-6.32047
-6.03885
-5.75736
-5.47726
-5.19979
-4.92616
-4.65753
-4.39501
-4.13959
-3.8922
-3.65364
-3.42462
-3.20569
-2.99731
-2.79978
-2.61331
-2.43797
-2.27369
-2.12033
-1.97762
-1.8452
-1.72262
-1.60936
-1.50483
-1.40835
-1.31923
-1.23671
-1.16
-1.08828
-1.02074
-0.956539
-0.894878
-0.834947
-0.776084
-0.717491
-0.658903
-0.599244
-0.539519
-0.476783
-0.41679
-0.347639
-0.294461
-0.206279
-0.188947
-0.0275513
-0.163664
-10.7958
-10.8179
-10.8407
-10.8637
-10.8868
-10.9099
-10.9327
-10.9553
-10.9774
-10.999
-11.0199
-11.04
-11.059
-11.0766
-11.0926
-11.1067
-11.1183
-11.1272
-11.1329
-11.135
-11.1331
-11.1268
-11.1156
-11.0991
-11.077
-11.0486
-11.0137
-10.9717
-10.9223
-10.865
-10.7994
-10.7251
-10.6417
-10.5488
-10.446
-10.3332
-10.2099
-10.0761
-9.93141
-9.77585
-9.60934
-9.43191
-9.24368
-9.04484
-8.83569
-8.61659
-8.38804
-8.15062
-7.905
-7.65195
-7.39235
-7.12714
-6.85733
-6.58404
-6.30839
-6.03156
-5.75476
-5.4792
-5.20607
-4.93654
-4.67174
-4.41271
-4.16045
-3.91585
-3.67969
-3.45267
-3.23534
-3.02816
-2.83145
-2.64541
-2.47013
-2.30558
-2.15163
-2.00804
-1.87448
-1.75053
-1.6357
-1.52942
-1.43108
-1.33999
-1.25543
-1.17666
-1.10289
-1.03333
-0.967181
-0.903681
-0.842044
-0.781638
-0.721682
-0.661937
-0.601317
-0.540858
-0.477549
-0.417233
-0.347791
-0.294648
-0.206295
-0.189226
-0.0279559
-0.163409
-10.7868
-10.8074
-10.8284
-10.8497
-10.8711
-10.8924
-10.9135
-10.9342
-10.9545
-10.9741
-10.993
-11.011
-11.0278
-11.0432
-11.0568
-11.0684
-11.0776
-11.0841
-11.0874
-11.0871
-11.0829
-11.0743
-11.0609
-11.0424
-11.0182
-10.988
-10.9513
-10.9078
-10.8569
-10.7983
-10.7317
-10.6565
-10.5724
-10.4791
-10.3762
-10.2635
-10.1407
-10.0075
-9.86391
-9.70969
-9.54486
-9.36944
-9.18355
-8.98737
-8.7812
-8.5654
-8.34043
-8.10686
-7.86533
-7.61659
-7.36147
-7.10087
-6.83578
-6.56724
-6.29635
-6.02423
-5.75204
-5.48095
-5.21209
-4.9466
-4.68556
-4.42999
-4.18085
-3.93901
-3.70523
-3.4802
-3.26448
-3.0585
-2.86261
-2.67702
-2.50183
-2.33704
-2.18253
-2.03809
-1.90342
-1.77813
-1.66176
-1.55378
-1.4536
-1.36057
-1.27402
-1.19321
-1.11742
-1.04587
-0.977808
-0.912496
-0.849179
-0.787252
-0.725953
-0.665064
-0.603494
-0.542304
-0.478427
-0.417771
-0.348052
-0.294887
-0.206436
-0.189445
-0.0285663
-0.162816
-10.7773
-10.7964
-10.8158
-10.8355
-10.8552
-10.8748
-10.8941
-10.913
-10.9314
-10.9492
-10.9661
-10.9819
-10.9966
-11.0097
-11.0211
-11.0303
-11.0372
-11.0413
-11.0422
-11.0396
-11.0331
-11.0224
-11.0069
-10.9863
-10.9601
-10.9281
-10.8897
-10.8446
-10.7924
-10.7326
-10.6649
-10.5888
-10.5042
-10.4105
-10.3075
-10.1949
-10.0725
-9.94008
-9.79747
-9.64459
-9.48141
-9.30797
-9.12438
-8.93083
-8.72759
-8.51502
-8.29357
-8.06378
-7.82626
-7.58174
-7.33101
-7.07494
-6.81447
-6.55059
-6.28436
-6.01686
-5.7492
-5.48249
-5.21783
-4.95632
-4.69898
-4.44682
-4.20076
-3.96165
-3.73023
-3.50718
-3.29305
-3.08829
-2.89323
-2.7081
-2.53303
-2.36801
-2.21297
-2.06771
-1.93196
-1.80537
-1.6875
-1.57785
-1.47587
-1.38094
-1.29242
-1.20963
-1.13184
-1.05834
-0.988394
-0.9213
-0.856332
-0.792911
-0.73029
-0.668274
-0.605767
-0.54385
-0.479412
-0.418404
-0.34842
-0.295184
-0.20669
-0.189625
-0.0293416
-0.16196
-10.7673
-10.7849
-10.8029
-10.821
-10.839
-10.8569
-10.8745
-10.8917
-10.9083
-10.9241
-10.939
-10.9529
-10.9654
-10.9763
-10.9855
-10.9925
-10.997
-10.9988
-10.9975
-10.9927
-10.984
-10.971
-10.9535
-10.9309
-10.9029
-10.869
-10.829
-10.7824
-10.7288
-10.6678
-10.5991
-10.5223
-10.437
-10.343
-10.2399
-10.1275
-10.0055
-9.87378
-9.73219