/*--------------------------------*- C++ -*----------------------------------*\
  =========                 |
  \\      /  F ield         | OpenFOAM: The Open Source CFD Toolbox
   \\    /   O peration     | Website:  https://openfoam.org
    \\  /    A nd           | Version:  10
     \\/     M anipulation  |
\*---------------------------------------------------------------------------*/
FoamFile
{
    format      ascii;
    class       volVectorField;
    location    "0.175";
    object      U;
}
// * * * * * * * * * * * * * * * * * * * * * * * * * * * * * * * * * * * * * //

dimensions      [0 1 -1 0 0 0 0];

internalField   nonuniform List<vector> 
6820
(
(7.33663 -0.254709 0)
(7.37111 -0.15274 0)
(7.329 -0.059469 0)
(7.25213 -0.011718 0)
(7.17473 0.00797168 0)
(7.10485 0.0139774 0)
(7.04378 0.0144669 0)
(6.9909 0.0130912 0)
(6.94478 0.0113415 0)
(6.904 0.00976541 0)
(6.86749 0.00850326 0)
(6.83444 0.00754236 0)
(6.80424 0.00682645 0)
(6.77644 0.00629628 0)
(6.75068 0.00590235 0)
(6.7267 0.00560709 0)
(6.70428 0.00538321 0)
(6.68324 0.00521166 0)
(6.66343 0.00507968 0)
(6.64473 0.00497935 0)
(6.627 0.00490659 0)
(6.61014 0.004861 0)
(6.59402 0.0048462 0)
(6.57853 0.00487147 0)
(6.56351 0.00495458 0)
(6.54876 0.00513075 0)
(6.53399 0.00547038 0)
(6.51876 0.00607006 0)
(6.50205 0.00749074 0)
(6.48259 0.00903551 0)
(6.45665 0.0180737 0)
(6.41206 0.0205236 0)
(6.36307 0.0480866 0)
(7.32387 0.121388 0)
(7.3044 0.123278 0)
(7.30895 0.0779767 0)
(7.32917 0.0527989 0)
(7.34725 0.0391996 0)
(7.35529 0.0313946 0)
(7.3543 0.0269424 0)
(7.34717 0.0241965 0)
(7.33621 0.0222992 0)
(7.32298 0.0208591 0)
(7.30854 0.0196809 0)
(7.29355 0.0186643 0)
(7.27842 0.0177591 0)
(7.2634 0.0169392 0)
(7.24863 0.0161899 0)
(7.23418 0.0155024 0)
(7.22012 0.014871 0)
(7.20645 0.0142919 0)
(7.19319 0.0137629 0)
(7.18033 0.0132833 0)
(7.16786 0.0128543 0)
(7.15576 0.0124797 0)
(7.14401 0.0121674 0)
(7.1326 0.011932 0)
(7.1215 0.0117988 0)
(7.11066 0.0118177 0)
(7.10014 0.0120637 0)
(7.08974 0.0127475 0)
(7.08025 0.014089 0)
(7.07019 0.0170864 0)
(7.06639 0.0228883 0)
(7.06058 0.0345943 0)
(7.08965 0.0639344 0)
(7.32565 -0.0437908 0)
(7.32324 -0.0517276 0)
(7.33516 -0.0261941 0)
(7.34298 -0.00271012 0)
(7.3479 0.0104424 0)
(7.35207 0.0168967 0)
(7.35506 0.0199717 0)
(7.35658 0.0212616 0)
(7.35661 0.0216084 0)
(7.35528 0.0214856 0)
(7.35283 0.0211402 0)
(7.34948 0.0206991 0)
(7.34544 0.0202284 0)
(7.34087 0.0197613 0)
(7.3359 0.0193135 0)
(7.33065 0.0188918 0)
(7.3252 0.0184991 0)
(7.31961 0.0181368 0)
(7.31392 0.0178059 0)
(7.30818 0.0175086 0)
(7.3024 0.0172486 0)
(7.29661 0.0170323 0)
(7.29081 0.0168702 0)
(7.28499 0.0167791 0)
(7.27915 0.0167877 0)
(7.27326 0.0169362 0)
(7.26731 0.0173166 0)
(7.26119 0.0179909 0)
(7.2551 0.0193754 0)
(7.24858 0.0211326 0)
(7.24313 0.0256122 0)
(7.23755 0.0283716 0)
(7.23629 0.0388178 0)
(7.33338 0.0117907 0)
(7.33034 0.0329248 0)
(7.32953 0.0333592 0)
(7.33252 0.0276577 0)
(7.33793 0.0242769 0)
(7.34343 0.0228084 0)
(7.34803 0.0222546 0)
(7.35167 0.0220355 0)
(7.35446 0.0218949 0)
(7.35644 0.021751 0)
(7.35773 0.0215786 0)
(7.3584 0.0213721 0)
(7.35855 0.0211357 0)
(7.35825 0.020877 0)
(7.35757 0.0206041 0)
(7.35658 0.0203244 0)
(7.35532 0.0200449 0)
(7.35385 0.0197723 0)
(7.35218 0.019513 0)
(7.35036 0.0192743 0)
(7.34841 0.0190649 0)
(7.34634 0.0188962 0)
(7.34415 0.0187841 0)
(7.34185 0.0187514 0)
(7.33945 0.0188333 0)
(7.33693 0.0190792 0)
(7.3343 0.01958 0)
(7.33153 0.0204344 0)
(7.32878 0.0219166 0)
(7.32597 0.0240869 0)
(7.32398 0.0279121 0)
(7.32301 0.0324335 0)
(7.32498 0.040435 0)
(7.33122 -0.00351911 0)
(7.33003 -0.00431848 0)
(7.33357 0.00129349 0)
(7.33714 0.00875122 0)
(7.34041 0.0141251 0)
(7.34366 0.01714 0)
(7.3468 0.0187881 0)
(7.34976 0.0197122 0)
(7.35248 0.0202171 0)
(7.35491 0.0204737 0)
(7.35702 0.0205778 0)
(7.35882 0.0205833 0)
(7.36033 0.0205235 0)
(7.36156 0.0204206 0)
(7.36256 0.0202899 0)
(7.36332 0.0201424 0)
(7.36389 0.0199871 0)
(7.36428 0.0198317 0)
(7.36451 0.0196838 0)
(7.36459 0.0195519 0)
(7.36454 0.0194459 0)
(7.36436 0.0193788 0)
(7.36407 0.0193681 0)
(7.36367 0.0194376 0)
(7.36315 0.0196231 0)
(7.36254 0.0199712 0)
(7.36184 0.0205618 0)
(7.36109 0.0214722 0)
(7.3604 0.0228967 0)
(7.35987 0.0248418 0)
(7.36001 0.0277883 0)
(7.36117 0.0309813 0)
(7.36404 0.0351139 0)
(7.33264 0.00208757 0)
(7.33222 0.00992027 0)
(7.33391 0.0141275 0)
(7.33639 0.0160129 0)
(7.33935 0.017134 0)
(7.34251 0.0179218 0)
(7.34554 0.0185436 0)
(7.34835 0.0190192 0)
(7.35098 0.0193478 0)
(7.35341 0.0195587 0)
(7.35566 0.019682 0)
(7.35774 0.0197389 0)
(7.35965 0.0197452 0)
(7.3614 0.0197137 0)
(7.36301 0.0196543 0)
(7.36447 0.0195756 0)
(7.36581 0.0194854 0)
(7.36702 0.0193911 0)
(7.36811 0.0193007 0)
(7.36909 0.0192234 0)
(7.36997 0.0191699 0)
(7.37076 0.0191539 0)
(7.37145 0.0191936 0)
(7.37205 0.0193128 0)
(7.37258 0.0195452 0)
(7.37304 0.019933 0)
(7.37347 0.0205407 0)
(7.37391 0.0214305 0)
(7.37449 0.0227212 0)
(7.37533 0.0244223 0)
(7.37677 0.0267143 0)
(7.37914 0.0291997 0)
(7.38272 0.0319031 0)
(7.33258 0.000838584 0)
(7.33242 0.0045408 0)
(7.33425 0.00810708 0)
(7.33683 0.0113229 0)
(7.33959 0.0139217 0)
(7.34239 0.0157088 0)
(7.34507 0.0168746 0)
(7.3476 0.0176332 0)
(7.35002 0.0181198 0)
(7.35232 0.0184277 0)
(7.35451 0.0186172 0)
(7.35659 0.0187246 0)
(7.35857 0.0187737 0)
(7.36046 0.018781 0)
(7.36226 0.0187587 0)
(7.36398 0.0187162 0)
(7.36561 0.0186618 0)
(7.36716 0.0186033 0)
(7.36864 0.0185486 0)
(7.37004 0.018507 0)
(7.37138 0.018489 0)
(7.37264 0.0185082 0)
(7.37385 0.0185818 0)
(7.375 0.0187316 0)
(7.37611 0.0189868 0)
(7.37719 0.0193826 0)
(7.37829 0.0199664 0)
(7.37946 0.020781 0)
(7.38081 0.0218902 0)
(7.38245 0.0232846 0)
(7.38461 0.0249958 0)
(7.38753 0.0267598 0)
(7.39129 0.0283805 0)
(7.33284 0.00134218 0)
(7.333 0.00538125 0)
(7.33455 0.0089523 0)
(7.33675 0.0116565 0)
(7.33922 0.0136477 0)
(7.3418 0.0150269 0)
(7.34434 0.0159799 0)
(7.34678 0.0166473 0)
(7.34911 0.0171053 0)
(7.35133 0.0174113 0)
(7.35346 0.0176091 0)
(7.3555 0.0177286 0)
(7.35747 0.0177911 0)
(7.35938 0.0178122 0)
(7.36123 0.0178036 0)
(7.36302 0.0177748 0)
(7.36475 0.017734 0)
(7.36644 0.017689 0)
(7.36808 0.0176477 0)
(7.36967 0.017619 0)
(7.37122 0.0176132 0)
(7.37273 0.0176429 0)
(7.3742 0.0177237 0)
(7.37565 0.0178746 0)
(7.37709 0.0181194 0)
(7.37855 0.018485 0)
(7.38005 0.0190036 0)
(7.38166 0.0197005 0)
(7.38347 0.0206024 0)
(7.38557 0.0216854 0)
(7.38812 0.0229159 0)
(7.39125 0.0241098 0)
(7.39499 0.0250603 0)
(7.33291 0.00134262 0)
(7.3332 0.00470682 0)
(7.33458 0.00776541 0)
(7.33659 0.0102512 0)
(7.33887 0.0122306 0)
(7.34128 0.0137018 0)
(7.34368 0.014753 0)
(7.346 0.0154937 0)
(7.34823 0.0160036 0)
(7.35039 0.0163457 0)
(7.35246 0.0165682 0)
(7.35446 0.0167047 0)
(7.35641 0.0167786 0)
(7.3583 0.0168073 0)
(7.36014 0.0168036 0)
(7.36195 0.016778 0)
(7.36371 0.016739 0)
(7.36545 0.0166949 0)
(7.36715 0.0166536 0)
(7.36882 0.0166238 0)
(7.37047 0.0166151 0)
(7.3721 0.016639 0)
(7.37372 0.0167088 0)
(7.37533 0.0168403 0)
(7.37696 0.0170515 0)
(7.37864 0.0173612 0)
(7.38038 0.0177888 0)
(7.38226 0.0183451 0)
(7.38433 0.0190331 0)
(7.38668 0.0198198 0)
(7.3894 0.0206481 0)
(7.39257 0.021382 0)
(7.39617 0.0218525 0)
(7.33297 0.00132037 0)
(7.33334 0.0043548 0)
(7.33459 0.0071718 0)
(7.3364 0.00949288 0)
(7.33848 0.0113368 0)
(7.3407 0.0127209 0)
(7.34296 0.0137255 0)
(7.34517 0.0144468 0)
(7.34733 0.0149549 0)
(7.34943 0.0153032 0)
(7.35146 0.0155336 0)
(7.35342 0.0156766 0)
(7.35534 0.0157547 0)
(7.35722 0.015785 0)
(7.35905 0.0157806 0)
(7.36085 0.015752 0)
(7.36262 0.0157082 0)
(7.36437 0.0156574 0)
(7.3661 0.0156074 0)
(7.3678 0.0155666 0)
(7.3695 0.0155438 0)
(7.37119 0.0155488 0)
(7.37289 0.0155928 0)
(7.3746 0.0156879 0)
(7.37634 0.0158468 0)
(7.37815 0.0160812 0)
(7.38004 0.0164003 0)
(7.38207 0.0168042 0)
(7.38428 0.0172824 0)
(7.38674 0.017798 0)
(7.38951 0.0182907 0)
(7.39262 0.0186587 0)
(7.39604 0.0187776 0)
(7.333 0.00125988 0)
(7.3334 0.00397546 0)
(7.33453 0.0065022 0)
(7.33617 0.00861989 0)
(7.33808 0.0103333 0)
(7.34014 0.0116574 0)
(7.34226 0.0126452 0)
(7.34438 0.0133683 0)
(7.34645 0.0138852 0)
(7.34848 0.0142437 0)
(7.35047 0.0144823 0)
(7.3524 0.0146308 0)
(7.35429 0.0147113 0)
(7.35614 0.0147409 0)
(7.35796 0.0147329 0)
(7.35975 0.0146981 0)
(7.36152 0.0146455 0)
(7.36327 0.0145834 0)
(7.36501 0.0145192 0)
(7.36674 0.0144608 0)
(7.36846 0.0144159 0)
(7.37019 0.014393 0)
(7.37193 0.0144005 0)
(7.37369 0.0144474 0)
(7.37551 0.0145416 0)
(7.37739 0.0146888 0)
(7.37936 0.0148909 0)
(7.38147 0.0151409 0)
(7.38375 0.015421 0)
(7.38624 0.015695 0)
(7.38898 0.0159078 0)
(7.39197 0.0159827 0)
(7.3952 0.0158325 0)
(7.33302 0.00117758 0)
(7.33343 0.00362063 0)
(7.33446 0.00590024 0)
(7.33594 0.0078421 0)
(7.33769 0.00943274 0)
(7.33961 0.010682 0)
(7.3416 0.0116285 0)
(7.34361 0.0123298 0)
(7.3456 0.0128368 0)
(7.34757 0.0131915 0)
(7.3495 0.0134288 0)
(7.3514 0.0135758 0)
(7.35326 0.0136536 0)
(7.35509 0.0136784 0)
(7.35689 0.0136634 0)
(7.35867 0.0136192 0)
(7.36044 0.0135545 0)
(7.36218 0.0134773 0)
(7.36392 0.0133947 0)
(7.36566 0.0133137 0)
(7.36739 0.013241 0)
(7.36914 0.0131831 0)
(7.37091 0.0131466 0)
(7.37271 0.0131371 0)
(7.37457 0.0131588 0)
(7.37649 0.0132127 0)
(7.37851 0.0132954 0)
(7.38065 0.013396 0)
(7.38294 0.013494 0)
(7.38541 0.0135557 0)
(7.38808 0.0135348 0)
(7.39094 0.0133735 0)
(7.39397 0.0130117 0)
(7.33303 0.00108487 0)
(7.33343 0.00328235 0)
(7.33437 0.00533201 0)
(7.33572 0.00709904 0)
(7.33733 0.0085623 0)
(7.33911 0.00972857 0)
(7.34098 0.0106262 0)
(7.34289 0.0112997 0)
(7.3448 0.0117912 0)
(7.34671 0.0121371 0)
(7.34858 0.0123683 0)
(7.35044 0.0125097 0)
(7.35227 0.012581 0)
(7.35407 0.0125978 0)
(7.35585 0.0125727 0)
(7.35762 0.012516 0)
(7.35937 0.0124362 0)
(7.36111 0.0123407 0)
(7.36285 0.0122361 0)
(7.36459 0.0121284 0)
(7.36633 0.0120232 0)
(7.36809 0.0119255 0)
(7.36988 0.0118397 0)
(7.3717 0.0117687 0)
(7.37357 0.0117136 0)
(7.37552 0.0116723 0)
(7.37755 0.0116381 0)
(7.37969 0.011598 0)
(7.38196 0.0115315 0)
(7.38438 0.0114089 0)
(7.38695 0.0111926 0)
(7.38967 0.0108392 0)
(7.39251 0.0103078 0)
(7.33303 0.000988114 0)
(7.33341 0.00296058 0)
(7.33428 0.00479886 0)
(7.33552 0.00639949 0)
(7.337 0.00773792 0)
(7.33866 0.00881709 0)
(7.34042 0.00965746 0)
(7.34223 0.0102934 0)
(7.34406 0.01076 0)
(7.34589 0.0110888 0)
(7.34772 0.0113068 0)
(7.34953 0.0114368 0)
(7.35132 0.0114969 0)
(7.3531 0.0115017 0)
(7.35486 0.0114631 0)
(7.3566 0.0113907 0)
(7.35834 0.0112926 0)
(7.36007 0.0111757 0)
(7.3618 0.0110458 0)
(7.36354 0.010908 0)
(7.36528 0.0107667 0)
(7.36705 0.0106255 0)
(7.36884 0.0104867 0)
(7.37067 0.0103515 0)
(7.37255 0.0102184 0)
(7.37449 0.0100831 0)
(7.37652 0.0099373 0)
(7.37864 0.00976739 0)
(7.38087 0.00955419 0)
(7.38321 0.0092726 0)
(7.38568 0.00889261 0)
(7.38826 0.00838187 0)
(7.39092 0.00771262 0)
(7.33303 0.000891135 0)
(7.33339 0.00265437 0)
(7.33419 0.00429601 0)
(7.33533 0.00573622 0)
(7.3367 0.00695013 0)
(7.33824 0.00793769 0)
(7.3399 0.00871368 0)
(7.34162 0.0093046 0)
(7.34337 0.00973928 0)
(7.34514 0.0100445 0)
(7.34691 0.0102439 0)
(7.34868 0.0103576 0)
(7.35043 0.0104023 0)
(7.35217 0.0103914 0)
(7.35391 0.0103359 0)
(7.35564 0.0102448 0)
(7.35736 0.0101256 0)
(7.35907 0.00998442 0)
(7.36079 0.00982635 0)
(7.36252 0.0096556 0)
(7.36426 0.00947543 0)
(7.36602 0.0092881 0)
(7.36781 0.00909455 0)
(7.36963 0.00889409 0)
(7.3715 0.00868383 0)
(7.37343 0.00845808 0)
(7.37543 0.00820776 0)
(7.37752 0.00791985 0)
(7.37969 0.00757722 0)
(7.38195 0.00715903 0)
(7.38431 0.00664177 0)
(7.38675 0.00600135 0)
(7.38925 0.00521899 0)
(7.33303 0.000796025 0)
(7.33337 0.00236277 0)
(7.33411 0.00382017 0)
(7.33515 0.00510597 0)
(7.33643 0.00619667 0)
(7.33787 0.00708987 0)
(7.33943 0.007796 0)
(7.34106 0.00833535 0)
(7.34274 0.00873136 0)
(7.34445 0.00900662 0)
(7.34616 0.00918164 0)
(7.34788 0.00927418 0)
(7.3496 0.00929912 0)
(7.35131 0.00926872 0)
(7.35301 0.00919305 0)
(7.35472 0.00908032 0)
(7.35642 0.00893724 0)
(7.35812 0.00876922 0)
(7.35982 0.00858061 0)
(7.36154 0.00837468 0)
(7.36326 0.00815372 0)
(7.36501 0.00791885 0)
(7.36678 0.00766984 0)
(7.36859 0.00740479 0)
(7.37045 0.0071198 0)
(7.37235 0.00680855 0)
(7.37432 0.00646199 0)
(7.37635 0.00606813 0)
(7.37845 0.00561218 0)
(7.38062 0.00507712 0)
(7.38287 0.00444473 0)
(7.38517 0.00369707 0)
(7.38751 0.00282151 0)
(7.33303 0.00070383 0)
(7.33335 0.00208473 0)
(7.33403 0.00336824 0)
(7.335 0.00450501 0)
(7.33618 0.00547368 0)
(7.33753 0.00627024 0)
(7.33901 0.00690181 0)
(7.34056 0.00738384 0)
(7.34217 0.00773525 0)
(7.34381 0.00797491 0)
(7.34547 0.00812039 0)
(7.34715 0.00818715 0)
(7.34882 0.00818836 0)
(7.3505 0.00813497 0)
(7.35217 0.00803603 0)
(7.35385 0.0078989 0)
(7.35553 0.0077295 0)
(7.35721 0.00753249 0)
(7.35889 0.00731142 0)
(7.36059 0.00706876 0)
(7.3623 0.00680591 0)
(7.36403 0.00652307 0)
(7.36578 0.00621911 0)
(7.36757 0.00589136 0)
(7.36939 0.00553534 0)
(7.37126 0.00514462 0)
(7.37317 0.00471062 0)
(7.37514 0.00422266 0)
(7.37717 0.00366826 0)
(7.37925 0.0030337 0)
(7.38138 0.00230493 0)
(7.38355 0.00146861 0)
(7.38574 0.00051637 0)
(7.33303 0.000614963 0)
(7.33332 0.00181913 0)
(7.33396 0.00293741 0)
(7.33486 0.00393003 0)
(7.33596 0.004778 0)
(7.33723 0.0054763 0)
(7.33863 0.00602952 0)
(7.34011 0.00644937 0)
(7.34165 0.00675093 0)
(7.34323 0.00694985 0)
(7.34484 0.00706099 0)
(7.34647 0.00709765 0)
(7.3481 0.00707133 0)
(7.34974 0.00699165 0)
(7.35139 0.00686659 0)
(7.35304 0.00670259 0)
(7.35469 0.00650476 0)
(7.35634 0.00627701 0)
(7.35801 0.00602214 0)
(7.35968 0.00574186 0)
(7.36136 0.00543681 0)
(7.36307 0.00510649 0)
(7.36479 0.00474913 0)
(7.36655 0.00436158 0)
(7.36833 0.00393918 0)
(7.37015 0.00347569 0)
(7.37201 0.00296325 0)
(7.37392 0.00239262 0)
(7.37586 0.0017534 0)
(7.37784 0.00103467 0)
(7.37986 0.000225649 0)
(7.3819 -0.00068359 0)
(7.38395 -0.00169844 0)
(7.33302 0.000529469 0)
(7.3333 0.00156481 0)
(7.33389 0.00252516 0)
(7.33473 0.00337796 0)
(7.33577 0.00410651 0)
(7.33696 0.0047053 0)
(7.33829 0.00517702 0)
(7.3397 0.00553043 0)
(7.34118 0.00577746 0)
(7.3427 0.00593096 0)
(7.34426 0.00600334 0)
(7.34584 0.00600591 0)
(7.34744 0.00594853 0)
(7.34904 0.00583951 0)
(7.35065 0.00568572 0)
(7.35227 0.00549268 0)
(7.35389 0.00526469 0)
(7.35552 0.00500489 0)
(7.35716 0.00471539 0)
(7.3588 0.00439723 0)
(7.36046 0.00405044 0)
(7.36213 0.00367396 0)
(7.36383 0.0032656 0)
(7.36554 0.002822 0)
(7.36728 0.00233854 0)
(7.36905 0.00180939 0)
(7.37084 0.00122757 0)
(7.37267 0.000585177 0)
(7.37453 -0.000126299 0)
(7.37641 -0.000915514 0)
(7.37832 -0.00179067 0)
(7.38023 -0.00275918 0)
(7.38215 -0.00382431 0)
(7.33302 0.000447183 0)
(7.33328 0.00132059 0)
(7.33383 0.00212918 0)
(7.33462 0.00284596 0)
(7.33559 0.00345637 0)
(7.33673 0.00395475 0)
(7.33798 0.00434242 0)
(7.33933 0.00462583 0)
(7.34075 0.00481436 0)
(7.34222 0.00491839 0)
(7.34373 0.00494818 0)
(7.34527 0.00491316 0)
(7.34682 0.00482165 0)
(7.34839 0.00468065 0)
(7.34997 0.00449595 0)
(7.35156 0.00427215 0)
(7.35315 0.00401272 0)
(7.35475 0.0037201 0)
(7.35635 0.00339573 0)
(7.35797 0.00304008 0)
(7.35959 0.00265267 0)
(7.36123 0.00223207 0)
(7.36288 0.00177582 0)
(7.36455 0.00128053 0)
(7.36624 0.000741791 0)
(7.36795 0.0001543 0)
(7.36967 -0.000488024 0)
(7.37142 -0.00119183 0)
(7.37319 -0.00196402 0)
(7.37497 -0.0028114 0)
(7.37677 -0.00374021 0)
(7.37856 -0.00475593 0)
(7.38035 -0.00586035 0)
(7.33302 0.000367835 0)
(7.33327 0.00108529 0)
(7.33378 0.00174734 0)
(7.33452 0.00233135 0)
(7.33544 0.00282468 0)
(7.33651 0.0032218 0)
(7.33771 0.00352307 0)
(7.339 0.00373317 0)
(7.34037 0.0038594 0)
(7.34179 0.00391009 0)
(7.34325 0.00389357 0)
(7.34475 0.00381758 0)
(7.34626 0.00368898 0)
(7.34779 0.00351353 0)
(7.34934 0.00329596 0)
(7.35089 0.00303995 0)
(7.35245 0.00274818 0)
(7.35402 0.0024224 0)
(7.35559 0.00206346 0)
(7.35717 0.00167132 0)
(7.35875 0.0012451 0)
(7.36035 0.000783086 0)
(7.36196 0.000282731 0)
(7.36358 -0.000259309 0)
(7.36521 -0.000847118 0)
(7.36685 -0.00148543 0)
(7.36851 -0.00217946 0)
(7.37018 -0.00293475 0)
(7.37186 -0.00375687 0)
(7.37354 -0.0046511 0)
(7.37522 -0.00562215 0)
(7.3769 -0.00667409 0)
(7.37856 -0.00780764 0)
(7.33302 0.000291107 0)
(7.33325 0.000857823 0)
(7.33374 0.00137776 0)
(7.33443 0.00183187 0)
(7.33531 0.00220927 0)
(7.33633 0.0025048 0)
(7.33747 0.00271822 0)
(7.33871 0.00285281 0)
(7.34002 0.00291416 0)
(7.3414 0.00290882 0)
(7.34282 0.00284339 0)
(7.34427 0.00272407 0)
(7.34575 0.00255638 0)
(7.34724 0.0023448 0)
(7.34875 0.00209307 0)
(7.35027 0.00180403 0)
(7.3518 0.00147956 0)
(7.35333 0.00112081 0)
(7.35486 0.000728083 0)
(7.3564 0.000300911 0)
(7.35795 -0.00016189 0)
(7.3595 -0.000662216 0)
(7.36106 -0.00120262 0)
(7.36263 -0.0017863 0)
(7.3642 -0.00241697 0)
(7.36578 -0.00309878 0)
(7.36736 -0.00383619 0)
(7.36894 -0.00463375 0)
(7.37053 -0.00549589 0)
(7.37211 -0.00642674 0)
(7.37369 -0.00742981 0)
(7.37525 -0.00850808 0)
(7.37679 -0.00966152 0)
(7.33302 0.000216663 0)
(7.33324 0.000637038 0)
(7.3337 0.00101837 0)
(7.33436 0.0013445 0)
(7.33519 0.00160608 0)
(7.33616 0.00179851 0)
(7.33725 0.00192127 0)
(7.33845 0.00197672 0)
(7.33972 0.00196933 0)
(7.34105 0.00190413 0)
(7.34243 0.00178626 0)
(7.34384 0.00162039 0)
(7.34528 0.00141111 0)
(7.34674 0.0011616 0)
(7.34821 0.000874539 0)
(7.3497 0.000551899 0)
(7.35119 0.000194928 0)
(7.35268 -0.00019592 0)
(7.35418 -0.000620842 0)
(7.35568 -0.00108068 0)
(7.35719 -0.00157687 0)
(7.35869 -0.00211144 0)
(7.3602 -0.00268691 0)
(7.3617 -0.00330628 0)
(7.36321 -0.0039729 0)
(7.36472 -0.00469039 0)
(7.36623 -0.00546252 0)
(7.36773 -0.006293 0)
(7.36922 -0.00718536 0)
(7.3707 -0.00814278 0)
(7.37217 -0.00916787 0)
(7.37363 -0.0102628 0)
(7.37505 -0.0114269 0)
(7.33302 0.000144202 0)
(7.33322 0.000422187 0)
(7.33366 0.000668424 0)
(7.33429 0.000869367 0)
(7.33508 0.00101728 0)
(7.33601 0.00110825 0)
(7.33706 0.0011417 0)
(7.33822 0.00111853 0)
(7.33944 0.00104235 0)
(7.34074 0.000916987 0)
(7.34208 0.000746203 0)
(7.34346 0.000533649 0)
(7.34486 0.000281832 0)
(7.34629 -6.42788e-06 0)
(7.34772 -0.000329307 0)
(7.34917 -0.000685697 0)
(7.35063 -0.00107501 0)
(7.35208 -0.00149733 0)
(7.35354 -0.00195328 0)
(7.355 -0.00244398 0)
(7.35646 -0.00297106 0)
(7.35791 -0.0035366 0)
(7.35937 -0.00414304 0)
(7.36082 -0.00479315 0)
(7.36226 -0.00548993 0)
(7.36369 -0.00623652 0)
(7.36512 -0.00703606 0)
(7.36654 -0.00789159 0)
(7.36794 -0.00880591 0)
(7.36933 -0.00978144 0)
(7.3707 -0.0108201 0)
(7.37204 -0.0119234 0)
(7.37335 -0.0130904 0)
(7.33302 7.33337e-05 0)
(7.33321 0.000211463 0)
(7.33363 0.000323279 0)
(7.33423 0.000397055 0)
(7.33499 0.000426613 0)
(7.33589 0.000409293 0)
(7.3369 0.000344907 0)
(7.33802 0.000236075 0)
(7.33921 8.46157e-05 0)
(7.34047 -0.000106672 0)
(7.34177 -0.000334988 0)
(7.34312 -0.000597836 0)
(7.34449 -0.000893902 0)
(7.34588 -0.00122146 0)
(7.34728 -0.00157967 0)
(7.3487 -0.0019683 0)
(7.35011 -0.00238755 0)
(7.35153 -0.00283807 0)
(7.35295 -0.00332092 0)
(7.35437 -0.00383759 0)
(7.35578 -0.00438991 0)
(7.35718 -0.00498001 0)
(7.35858 -0.0056103 0)
(7.35996 -0.00628333 0)
(7.36134 -0.00700181 0)
(7.3627 -0.00776845 0)
(7.36405 -0.00858591 0)
(7.36539 -0.00945664 0)
(7.3667 -0.0103829 0)
(7.36799 -0.0113664 0)
(7.36926 -0.0124087 0)
(7.3705 -0.0135107 0)
(7.3717 -0.0146712 0)
(7.33302 4.17918e-06 0)
(7.3332 7.30502e-06 0)
(7.3336 -8.32442e-06 0)
(7.33417 -5.24036e-05 0)
(7.3349 -0.000130061 0)
(7.33577 -0.000243855 0)
(7.33675 -0.000394556 0)
(7.33783 -0.000580402 0)
(7.339 -0.000800546 0)
(7.34022 -0.00105318 0)
(7.3415 -0.00133643 0)
(7.34281 -0.00164896 0)
(7.34416 -0.00198935 0)
(7.34552 -0.00235727 0)
(7.34689 -0.00275257 0)
(7.34827 -0.00317548 0)
(7.34965 -0.00362663 0)
(7.35104 -0.00410705 0)
(7.35241 -0.00461811 0)
(7.35378 -0.00516146 0)
(7.35515 -0.00573903 0)
(7.3565 -0.00635294 0)
(7.35784 -0.00700549 0)
(7.35916 -0.00769905 0)
(7.36047 -0.00843603 0)
(7.36177 -0.00921879 0)
(7.36304 -0.0100496 0)
(7.36429 -0.0109304 0)
(7.36551 -0.011863 0)
(7.36671 -0.0128487 0)
(7.36788 -0.0138886 0)
(7.36902 -0.0149835 0)
(7.37012 -0.0161318 0)
(7.33302 -6.48203e-05 0)
(7.3332 -0.000201587 0)
(7.33358 -0.000358549 0)
(7.33414 -0.000543274 0)
(7.33484 -0.000756357 0)
(7.33568 -0.000995777 0)
(7.33664 -0.00125892 0)
(7.3377 -0.00154431 0)
(7.33883 -0.00184988 0)
(7.34003 -0.00217463 0)
(7.34128 -0.00251826 0)
(7.34256 -0.00288097 0)
(7.34388 -0.00326329 0)
(7.34521 -0.0036662 0)
(7.34655 -0.00409083 0)
(7.34789 -0.00453854 0)
(7.34924 -0.00501087 0)
(7.35058 -0.00550958 0)
(7.35192 -0.00603657 0)
(7.35325 -0.00659387 0)
(7.35456 -0.00718362 0)
(7.35586 -0.00780804 0)
(7.35714 -0.00846939 0)
(7.35841 -0.00916989 0)
(7.35965 -0.00991174 0)
(7.36087 -0.010697 0)
(7.36207 -0.0115275 0)
(7.36324 -0.012405 0)
(7.36438 -0.0133308 0)
(7.36549 -0.0143059 0)
(7.36656 -0.015331 0)
(7.3676 -0.0164066 0)
(7.3686 -0.0175311 0)
(7.33301 -0.000128586 0)
(7.33318 -0.000380402 0)
(7.33353 -0.000636465 0)
(7.33406 -0.000907371 0)
(7.33474 -0.00119814 0)
(7.33556 -0.00151055 0)
(7.3365 -0.00184429 0)
(7.33754 -0.00219788 0)
(7.33867 -0.0025694 0)
(7.33985 -0.00295749 0)
(7.34108 -0.00336132 0)
(7.34235 -0.0037807 0)
(7.34365 -0.00421592 0)
(7.34495 -0.00466779 0)
(7.34627 -0.00513749 0)
(7.34759 -0.00562646 0)
(7.3489 -0.0061364 0)
(7.35021 -0.0066692 0)
(7.35151 -0.00722688 0)
(7.35279 -0.00781159 0)
(7.35406 -0.00842552 0)
(7.35531 -0.0090709 0)
(7.35653 -0.00974992 0)
(7.35774 -0.0104647 0)
(7.35892 -0.0112173 0)
(7.36007 -0.0120096 0)
(7.36119 -0.0128432 0)
(7.36228 -0.0137195 0)
(7.36334 -0.0146398 0)
(7.36436 -0.0156048 0)
(7.36534 -0.0166151 0)
(7.36628 -0.0176709 0)
(7.36718 -0.0187708 0)
(7.33302 -0.000205738 0)
(7.3332 -0.000638068 0)
(7.33356 -0.00110098 0)
(7.33409 -0.00158774 0)
(7.33476 -0.00208272 0)
(7.33555 -0.00257401 0)
(7.33647 -0.00305577 0)
(7.33748 -0.0035266 0)
(7.33858 -0.00398766 0)
(7.33973 -0.00444165 0)
(7.34094 -0.00489205 0)
(7.34218 -0.00534264 0)
(7.34345 -0.00579724 0)
(7.34473 -0.00625951 0)
(7.34601 -0.00673291 0)
(7.3473 -0.00722064 0)
(7.34858 -0.00772572 0)
(7.34986 -0.00825098 0)
(7.35112 -0.0087991 0)
(7.35236 -0.00937262 0)
(7.35358 -0.00997393 0)
(7.35478 -0.0106053 0)
(7.35595 -0.0112689 0)
(7.3571 -0.0119667 0)
(7.35821 -0.0127004 0)
(7.3593 -0.0134717 0)
(7.36035 -0.014282 0)
(7.36136 -0.0151323 0)
(7.36234 -0.0160235 0)
(7.36328 -0.0169562 0)
(7.36418 -0.0179306 0)
(7.36503 -0.0189468 0)
(7.36584 -0.0200033 0)
(7.333 -0.00023023 0)
(7.3331 -0.000650387 0)
(7.33339 -0.00106114 0)
(7.33387 -0.00149739 0)
(7.33453 -0.00196971 0)
(7.33534 -0.00247415 0)
(7.33629 -0.00300149 0)
(7.33733 -0.00354248 0)
(7.33845 -0.00409007 0)
(7.33963 -0.0046398 0)
(7.34085 -0.00518948 0)
(7.3421 -0.00573867 0)
(7.34336 -0.00628825 0)
(7.34463 -0.00683996 0)
(7.34591 -0.00739608 0)
(7.34718 -0.00795922 0)
(7.34843 -0.00853216 0)
(7.34967 -0.00911775 0)
(7.35089 -0.00971883 0)
(7.35209 -0.0103382 0)
(7.35327 -0.0109784 0)
(7.35442 -0.0116421 0)
(7.35553 -0.0123315 0)
(7.35662 -0.0130489 0)
(7.35767 -0.0137961 0)
(7.35869 -0.014575 0)
(7.35967 -0.0153868 0)
(7.36061 -0.0162329 0)
(7.36151 -0.0171141 0)
(7.36236 -0.018031 0)
(7.36317 -0.0189839 0)
(7.36394 -0.0199731 0)
(7.36466 -0.0209973 0)
(7.33305 -0.000408635 0)
(7.33329 -0.0012957 0)
(7.33366 -0.00223552 0)
(7.33413 -0.00316014 0)
(7.33474 -0.00401926 0)
(7.33548 -0.00479708 0)
(7.33635 -0.00549731 0)
(7.33732 -0.00613063 0)
(7.33839 -0.00670974 0)
(7.33952 -0.0072473 0)
(7.3407 -0.00775496 0)
(7.34192 -0.00824296 0)
(7.34315 -0.00872 0)
(7.3444 -0.00919342 0)
(7.34565 -0.00966928 0)
(7.3469 -0.0101527 0)
(7.34813 -0.010648 0)
(7.34935 -0.0111587 0)
(7.35054 -0.0116881 0)
(7.35171 -0.0122389 0)
(7.35285 -0.0128134 0)
(7.35396 -0.0134139 0)
(7.35503 -0.0140421 0)
(7.35607 -0.0146996 0)
(7.35707 -0.0153879 0)
(7.35803 -0.0161081 0)
(7.35895 -0.0168611 0)
(7.35983 -0.0176477 0)
(7.36066 -0.0184682 0)
(7.36144 -0.019323 0)
(7.36218 -0.0202119 0)
(7.36287 -0.021135 0)
(7.36351 -0.0220908 0)
(7.33293 -0.000146006 0)
(7.33282 -0.000354124 0)
(7.33298 -0.000624224 0)
(7.33344 -0.00108122 0)
(7.33416 -0.00171331 0)
(7.33506 -0.00245944 0)
(7.33609 -0.00326441 0)
(7.33722 -0.00408986 0)
(7.3384 -0.00491158 0)
(7.33962 -0.00571531 0)
(7.34087 -0.00649402 0)
(7.34213 -0.00724568 0)
(7.34339 -0.00797151 0)
(7.34464 -0.0086746 0)
(7.34588 -0.00935907 0)
(7.34711 -0.0100295 0)
(7.34831 -0.0106907 0)
(7.34949 -0.0113472 0)
(7.35064 -0.0120035 0)
(7.35176 -0.0126635 0)
(7.35284 -0.0133311 0)
(7.35389 -0.0140095 0)
(7.35491 -0.0147019 0)
(7.35588 -0.015411 0)
(7.35681 -0.016139 0)
(7.3577 -0.0168879 0)
(7.35855 -0.0176594 0)
(7.35935 -0.0184548 0)
(7.3601 -0.0192752 0)
(7.36081 -0.0201213 0)
(7.36147 -0.0209935 0)
(7.36207 -0.0218922 0)
(7.36263 -0.0228163 0)
(7.33316 -0.000857256 0)
(7.33362 -0.00285881 0)
(7.33393 -0.00481885 0)
(7.3342 -0.00647205 0)
(7.3346 -0.00777739 0)
(7.3352 -0.00879832 0)
(7.33599 -0.00960448 0)
(7.33693 -0.0102532 0)
(7.33798 -0.0107907 0)
(7.33911 -0.0112528 0)
(7.34031 -0.011667 0)
(7.34154 -0.0120533 0)
(7.34279 -0.0124266 0)
(7.34404 -0.0127976 0)
(7.34529 -0.013174 0)
(7.34652 -0.0135617 0)
(7.34773 -0.0139647 0)
(7.34892 -0.0143862 0)
(7.35007 -0.0148286 0)
(7.35119 -0.0152939 0)
(7.35227 -0.0157833 0)
(7.35331 -0.0162982 0)
(7.35431 -0.0168395 0)
(7.35526 -0.0174079 0)
(7.35616 -0.018004 0)
(7.35702 -0.0186283 0)
(7.35783 -0.0192811 0)
(7.35859 -0.0199624 0)
(7.3593 -0.0206723 0)
(7.35995 -0.0214106 0)
(7.36056 -0.0221771 0)
(7.36111 -0.0229715 0)
(7.36161 -0.0237924 0)
(7.33266 0.000537977 0)
(7.33187 0.00180503 0)
(7.33191 0.00246031 0)
(7.33263 0.00216807 0)
(7.33369 0.001225 0)
(7.33489 -4.22474e-05 0)
(7.33616 -0.00143443 0)
(7.33746 -0.00284595 0)
(7.33877 -0.00421763 0)
(7.34007 -0.00551737 0)
(7.34135 -0.00673213 0)
(7.34262 -0.00786058 0)
(7.34387 -0.0089077 0)
(7.34509 -0.00988167 0)
(7.34628 -0.0107921 0)
(7.34745 -0.0116487 0)
(7.34858 -0.012461 0)
(7.34968 -0.0132378 0)
(7.35075 -0.013987 0)
(7.35178 -0.0147157 0)
(7.35277 -0.0154302 0)
(7.35372 -0.0161359 0)
(7.35463 -0.0168377 0)
(7.35549 -0.0175395 0)
(7.35631 -0.018245 0)
(7.35708 -0.018957 0)
(7.35781 -0.0196781 0)
(7.35849 -0.0204102 0)
(7.35911 -0.0211549 0)
(7.35969 -0.0219136 0)
(7.36021 -0.0226871 0)
(7.36068 -0.023476 0)
(7.3611 -0.02428 0)
(7.33353 -0.00201067 0)
(7.33444 -0.00681033 0)
(7.33404 -0.0112875 0)
(7.33332 -0.0140893 0)
(7.3331 -0.0156933 0)
(7.33343 -0.0166069 0)
(7.33414 -0.0170878 0)
(7.3351 -0.0173069 0)
(7.33624 -0.0173822 0)
(7.3375 -0.0173897 0)
(7.33883 -0.0173769 0)
(7.34019 -0.0173727 0)
(7.34155 -0.0173937 0)
(7.34291 -0.0174492 0)
(7.34424 -0.0175434 0)
(7.34555 -0.0176781 0)
(7.34682 -0.0178531 0)
(7.34804 -0.0180675 0)
(7.34922 -0.0183199 0)
(7.35035 -0.0186087 0)
(7.35144 -0.0189323 0)
(7.35247 -0.0192894 0)
(7.35345 -0.0196785 0)
(7.35438 -0.0200983 0)
(7.35525 -0.0205479 0)
(7.35607 -0.0210262 0)
(7.35684 -0.0215322 0)
(7.35755 -0.022065 0)
(7.3582 -0.0226238 0)
(7.3588 -0.0232078 0)
(7.35934 -0.0238162 0)
(7.35983 -0.0244485 0)
(7.36026 -0.0251031 0)
(7.33179 0.00340321 0)
(7.329 0.00923479 0)
(7.32947 0.0118846 0)
(7.33183 0.0116169 0)
(7.33395 0.00954712 0)
(7.33573 0.00687357 0)
(7.33733 0.00409788 0)
(7.33878 0.00140913 0)
(7.34013 -0.00109139 0)
(7.34139 -0.00336141 0)
(7.3426 -0.00539797 0)
(7.34376 -0.00721612 0)
(7.3449 -0.00883811 0)
(7.34601 -0.0102885 0)
(7.3471 -0.0115915 0)
(7.34818 -0.0127695 0)
(7.34923 -0.0138426 0)
(7.35027 -0.0148283 0)
(7.35128 -0.0157419 0)
(7.35227 -0.0165964 0)
(7.35322 -0.0174031 0)
(7.35415 -0.0181713 0)
(7.35504 -0.0189091 0)
(7.3559 -0.0196234 0)
(7.35671 -0.0203199 0)
(7.35749 -0.0210034 0)
(7.35822 -0.0216781 0)
(7.3589 -0.0223472 0)
(7.35954 -0.0230135 0)
(7.36012 -0.0236793 0)
(7.36066 -0.0243463 0)
(7.36114 -0.0250158 0)
(7.36157 -0.0256885 0)
(7.33408 -0.00611885 0)
(7.33406 -0.0189338 0)
(7.3303 -0.0269577 0)
(7.32665 -0.0304525 0)
(7.32508 -0.0312103 0)
(7.32532 -0.0307625 0)
(7.32641 -0.0297812 0)
(7.32793 -0.0285912 0)
(7.32973 -0.0273896 0)
(7.33168 -0.0262796 0)
(7.33371 -0.0253052 0)
(7.33575 -0.0244806 0)
(7.33779 -0.0238046 0)
(7.3398 -0.023268 0)
(7.34176 -0.0228581 0)
(7.34368 -0.0225613 0)
(7.34553 -0.0223643 0)
(7.34733 -0.0222549 0)
(7.34906 -0.0222224 0)
(7.35073 -0.0222573 0)
(7.35233 -0.0223513 0)
(7.35387 -0.0224976 0)
(7.35533 -0.0226902 0)
(7.35673 -0.0229241 0)
(7.35805 -0.0231952 0)
(7.35931 -0.0234998 0)
(7.3605 -0.0238349 0)
(7.36161 -0.0241978 0)
(7.36266 -0.0245864 0)
(7.36363 -0.0249988 0)
(7.36454 -0.0254332 0)
(7.36538 -0.0258886 0)
(7.36615 -0.0263629 0)
(7.32967 0.0198625 0)
(7.32498 0.0370125 0)
(7.32932 0.0377032 0)
(7.33513 0.0323048 0)
(7.33881 0.0258964 0)
(7.34103 0.019597 0)
(7.34288 0.0137128 0)
(7.34466 0.00844456 0)
(7.34645 0.00383787 0)
(7.34832 -0.000153776 0)
(7.35029 -0.00359955 0)
(7.35235 -0.00657096 0)
(7.35448 -0.00913685 0)
(7.35667 -0.0113597 0)
(7.35889 -0.0132938 0)
(7.36113 -0.0149856 0)
(7.36336 -0.0164743 0)
(7.36558 -0.0177931 0)
(7.36777 -0.0189697 0)
(7.36992 -0.0200271 0)
(7.37202 -0.0209849 0)
(7.37406 -0.0218594 0)
(7.37603 -0.022664 0)
(7.37793 -0.0234104 0)
(7.37976 -0.0241081 0)
(7.38151 -0.0247652 0)
(7.38318 -0.0253886 0)
(7.38476 -0.0259841 0)
(7.38626 -0.0265567 0)
(7.38768 -0.0271106 0)
(7.38901 -0.0276495 0)
(7.39025 -0.028176 0)
(7.3914 -0.0286938 0)
(7.32507 -0.0330758 0)
(7.29738 -0.0587532 0)
(7.27809 -0.0616739 0)
(7.27378 -0.0592898 0)
(7.28039 -0.0557755 0)
(7.29184 -0.0517219 0)
(7.3051 -0.0477722 0)
(7.31884 -0.0442572 0)
(7.33231 -0.0412252 0)
(7.34508 -0.0386581 0)
(7.35699 -0.0365184 0)
(7.368 -0.0347542 0)
(7.3781 -0.0333114 0)
(7.38734 -0.0321408 0)
(7.39578 -0.0311988 0)
(7.40346 -0.0304483 0)
(7.41045 -0.0298577 0)
(7.41681 -0.029401 0)
(7.42258 -0.0290563 0)
(7.42782 -0.0288058 0)
(7.43257 -0.0286348 0)
(7.43686 -0.0285311 0)
(7.44073 -0.0284848 0)
(7.44422 -0.0284876 0)
(7.44735 -0.0285326 0)
(7.45015 -0.0286141 0)
(7.45265 -0.0287274 0)
(7.45485 -0.0288684 0)
(7.4568 -0.0290338 0)
(7.45849 -0.0292204 0)
(7.45996 -0.0294258 0)
(7.46121 -0.0296475 0)
(7.46227 -0.0298824 0)
(7.33915 0.134726 0)
(7.37621 0.127076 0)
(7.39343 0.0872132 0)