/*--------------------------------*- C++ -*----------------------------------*\
  =========                 |
  \\      /  F ield         | OpenFOAM: The Open Source CFD Toolbox
   \\    /   O peration     | Website:  https://openfoam.org
    \\  /    A nd           | Version:  10
     \\/     M anipulation  |
\*---------------------------------------------------------------------------*/
FoamFile
{
    format      ascii;
    class       volScalarField;
    location    "0.02";
    object      epsilon;
}
// * * * * * * * * * * * * * * * * * * * * * * * * * * * * * * * * * * * * * //

dimensions      [0 2 -3 0 0 0 0];

internalField   nonuniform List<scalar> 
6820
(
23.2969
22.5752
21.9095
21.2858
20.7028
20.1645
19.6749
19.2356
18.8459
18.5034
18.2048
17.9462
17.7235
17.5328
17.3703
17.2327
17.1168
17.0196
16.9387
16.8716
16.8164
16.7709
16.7337
16.7039
16.6803
16.6623
16.6487
16.6423
16.6276
16.6746
16.4608
17.469
12.8542
5.03375
6.81725
7.83688
8.46313
8.89039
9.21878
9.50156
9.76467
10.0196
10.2711
10.5203
10.7673
11.0113
11.2513
11.4862
11.7149
11.9361
12.1488
12.3517
12.544
12.7246
12.8929
13.0492
13.1944
13.3298
13.4565
13.5754
13.6872
13.7907
13.8941
13.9608
14.1452
13.9282
3.70361
4.14734
4.56522
4.91368
5.19645
5.42821
5.62284
5.79143
5.94224
6.08123
6.21248
6.33873
6.46168
6.58234
6.70122
6.8185
6.93414
7.04793
7.15959
7.26873
7.37497
7.47796
7.57728
7.67275
7.76385
7.8502
7.93142
8.00751
8.07744
8.14296
8.19753
8.25187
8.2738
3.54005
3.61085
3.72454
3.85338
3.98058
4.09836
4.20441
4.29911
4.3839
4.46048
4.53052
4.59545
4.65643
4.71439
4.76999
4.82375
4.87599
4.92692
4.97667
5.02528
5.07281
5.11916
5.16407
5.2074
5.249
5.28871
5.32632
5.36167
5.39444
5.42457
5.45123
5.47419
5.49247
3.52064
3.50153
3.505
3.5261
3.55856
3.5969
3.63718
3.67697
3.71495
3.75057
3.7837
3.81446
3.84309
3.86984
3.89499
3.91878
3.9414
3.96302
3.98379
4.00382
4.02309
4.04162
4.05942
4.07648
4.09276
4.10824
4.12286
4.13655
4.14923
4.1608
4.17113
4.17977
4.18703
3.5194
3.48244
3.45299
3.43229
3.41993
3.41446
3.4141
3.41723
3.42256
3.42913
3.43628
3.44359
3.45079
3.45773
3.46435
3.47061
3.47653
3.48214
3.48742
3.49241
3.49711
3.50155
3.50574
3.50967
3.51337
3.51682
3.52003
3.52301
3.52574
3.52819
3.53038
3.53209
3.53352
3.51943
3.47973
3.44284
3.40953
3.38033
3.35535
3.33434
3.31682
3.30224
3.29002
3.27968
3.2708
3.26305
3.25617
3.24997
3.2443
3.23906
3.23415
3.22952
3.22513
3.22095
3.21695
3.21314
3.20949
3.20601
3.20271
3.1996
3.19669
3.19401
3.19156
3.18937
3.18737
3.18568
3.51947
3.47942
3.44108
3.40469
3.37048
3.33866
3.30929
3.28236
3.25774
3.23527
3.21472
3.19589
3.17857
3.16258
3.14773
3.1339
3.12096
3.10881
3.09736
3.08656
3.07634
3.06668
3.05753
3.04889
3.04075
3.0331
3.02595
3.01932
3.01324
3.00773
3.00283
2.99853
2.99491
3.51947
3.4794
3.44085
3.40385
3.36842
3.33463
3.30249
3.27205
3.24328
3.21617
3.19064
3.16662
3.14403
3.12276
3.10271
3.08381
3.06596
3.04909
3.03313
3.01802
3.00373
2.9902
2.97742
2.96535
2.954
2.94336
2.93344
2.92426
2.91584
2.90821
2.90142
2.89549
2.8905
3.51947
3.4794
3.44081
3.4037
3.36802
3.33375
3.30086
3.26933
3.23915
3.21029
3.18274
3.15645
3.13139
3.10752
3.08478
3.06313
3.04253
3.02292
3.00427
2.98654
2.96969
2.95371
2.93857
2.92426
2.91078
2.89813
2.88632
2.87537
2.86532
2.85619
2.84804
2.8409
2.83486
3.51947
3.47939
3.44081
3.40367
3.36795
3.33357
3.30049
3.26867
3.23807
3.20866
3.18041
3.15328
3.12725
3.10228
3.07835
3.05542
3.03348
3.01249
2.99243
2.97328
2.95501
2.93762
2.9211
2.90545
2.89066
2.87675
2.86374
2.85164
2.84049
2.83033
2.82121
2.81319
2.80634
3.51947
3.47939
3.4408
3.40366
3.36792
3.33351
3.30039
3.2685
3.23779
3.20822
3.17975
3.15235
3.12598
3.10061
3.07622
3.05278
3.03027
3.00867
2.98796
2.96812
2.94916
2.93105
2.91381
2.89742
2.8819
2.86727
2.85353
2.84073
2.82888
2.81805
2.80827
2.79961
2.79214
3.51947
3.47939
3.44079
3.40365
3.3679
3.33348
3.30035
3.26843
3.23769
3.20807
3.17954
3.15205
3.12557
3.10006
3.07551
3.05188
3.02914
3.0073
2.98631
2.96618
2.9469
2.92846
2.91085
2.8941
2.8782
2.86316
2.84902
2.83579
2.82352
2.81223
2.802
2.79287
2.78491
3.51947
3.47939
3.44079
3.40364
3.36788
3.33346
3.30031
3.26838
3.23762
3.20799
3.17943
3.1519
3.12538
3.09983
3.07521
3.0515
3.02868
3.00673
2.98563
2.96537
2.94594
2.92734
2.90956
2.89261
2.87649
2.86123
2.84685
2.83335
2.82079
2.8092
2.79862
2.78912
2.78076
3.51947
3.47939
3.44079
3.40363
3.36787
3.33344
3.30028
3.26834
3.23757
3.20792
3.17934
3.1518
3.12525
3.09967
3.07501
3.05127
3.0284
3.0064
2.98524
2.9649
2.94539
2.9267
2.90881
2.89174
2.8755
2.86008
2.84552
2.83184
2.81906
2.80722
2.79636
2.78654
2.77781
3.51947
3.47939
3.44079
3.40363
3.36786
3.33342
3.30026
3.26831
3.23752
3.20785
3.17926
3.1517
3.12513
3.09952
3.07485
3.05107
3.02817
3.00612
2.98492
2.96453
2.94496
2.92619
2.90822
2.89106
2.87471
2.85917
2.84447
2.83062
2.81764
2.80558
2.79446
2.78434
2.77525
3.51947
3.47939
3.44078
3.40363
3.36785
3.33341
3.30023
3.26827
3.23748
3.2078
3.17919
3.15161
3.12502
3.09939
3.07469
3.05088
3.02794
3.00586
2.98461
2.96418
2.94455
2.92571
2.90767
2.89042
2.87397
2.85831
2.84347
2.82947
2.81631
2.80403
2.79266
2.78225
2.77282
3.51947
3.47939
3.44078
3.40362
3.36785
3.3334
3.30021
3.26824
3.23744
3.20774
3.17912
3.15152
3.12491
3.09926
3.07453
3.05069
3.02773
3.0056
2.98431
2.96383
2.94414
2.92524
2.90712
2.88979
2.87323
2.85747
2.84249
2.82833
2.81499
2.8025
2.79089
2.78018
2.77042
3.51947
3.47939
3.44078
3.40362
3.36784
3.33339
3.3002
3.26822
3.2374
3.20769
3.17905
3.15144
3.12481
3.09913
3.07438
3.05051
3.02751
3.00535
2.98401
2.96348
2.94373
2.92477
2.90658
2.88916
2.8725
2.85662
2.84151
2.82719
2.81368
2.80098
2.78913
2.77814
2.76804
3.51947
3.47939
3.44078
3.40362
3.36784
3.33338
3.30018
3.26819
3.23737
3.20765
3.17899
3.15136
3.12471
3.09901
3.07423
3.05033
3.0273
3.0051
2.98371
2.96313
2.94333
2.9243
2.90603
2.88852
2.87177
2.85577
2.84054
2.82607
2.81238
2.79948
2.78738
2.77612
2.76571
3.51947
3.47939
3.44079
3.40362
3.36784
3.33337
3.30017
3.26817
3.23733
3.2076
3.17893
3.15128
3.12461
3.09889
3.07408
3.05016
3.02709
3.00485
2.98342
2.96279
2.94293
2.92383
2.90549
2.8879
2.87105
2.85494
2.83957
2.82495
2.81109
2.798
2.78568
2.77415
2.76344
3.51947
3.47939
3.44079
3.40362
3.36783
3.33337
3.30016
3.26815
3.2373
3.20756
3.17888
3.15121
3.12452
3.09878
3.07394
3.04999
3.02688
3.00461
2.98314
2.96245
2.94254
2.92338
2.90496
2.88729
2.87034
2.85412
2.83863
2.82387
2.80984
2.79655
2.78402
2.77224
2.76124
3.51947
3.47939
3.44079
3.40362
3.36783
3.33336
3.30015
3.26814
3.23728
3.20752
3.17882
3.15114
3.12444
3.09867
3.07381
3.04982
3.02669
3.00437
2.98286
2.96213
2.94216
2.92293
2.90445
2.88669
2.86965
2.85332
2.83771
2.82281
2.80862
2.79516
2.78241
2.77041
2.75913
3.51948
3.47939
3.44079
3.40362
3.36783
3.33335
3.30014
3.26812
3.23725
3.20749
3.17878
3.15108
3.12435
3.09856
3.07368
3.04967
3.0265
3.00415
2.98259
2.96181
2.94179
2.9225
2.90395
2.88611
2.86898
2.85255
2.83682
2.82179
2.80745
2.79381
2.78088
2.76865
2.75713
3.51948
3.47939
3.44079
3.40362
3.36783
3.33335
3.30013
3.2681
3.23723
3.20745
3.17873
3.15102
3.12427
3.09846
3.07355
3.04951
3.02631
3.00393
2.98233
2.9615
2.94143
2.92208
2.90346
2.88555
2.86833
2.85181
2.83597
2.82081
2.80633
2.79254
2.77942
2.76698
2.75523
3.51948
3.4794
3.44079
3.40362
3.36783
3.33335
3.30012
3.26809
3.23721
3.20742
3.17868
3.15096
3.1242
3.09837
3.07344
3.04937
3.02614
3.00372
2.98208
2.96121
2.94109
2.92169
2.903
2.88501
2.86772
2.8511
2.83516
2.81988
2.80527
2.79133
2.77804
2.76541
2.75344
3.51948
3.4794
3.44079
3.40362
3.36783
3.33334
3.30011
3.26808
3.23719
3.20739
3.17864
3.1509
3.12412
3.09828
3.07332
3.04923
3.02597
3.00352
2.98184
2.96093
2.94076
2.92131
2.90256
2.88451
2.86713
2.85043
2.83439
2.81901
2.80427
2.79019
2.77674
2.76394
2.75178
3.51948
3.4794
3.44079
3.40362
3.36782
3.33334
3.3001
3.26806
3.23716
3.20736
3.1786
3.15085
3.12406
3.09819
3.07321
3.0491
3.02581
3.00333
2.98162
2.96067
2.94045
2.92095
2.90215
2.88403
2.86659
2.8498
2.83367
2.81819
2.80334
2.78913
2.77554
2.76258
2.75024
3.51948
3.4794
3.44079
3.40362
3.36782
3.33334
3.3001
3.26805
3.23715
3.20733
3.17856
3.1508
3.12399
3.09811
3.07311
3.04897
3.02566
3.00315
2.98141
2.96042
2.94016
2.92061
2.90176
2.88358
2.86607
2.84922
2.83301
2.81743
2.80248
2.78815
2.77443
2.76133
2.74882
3.51948
3.4794
3.44079
3.40362
3.36782
3.33333
3.30009
3.26804
3.23713
3.20731
3.17853
3.15075
3.12393
3.09803
3.07302
3.04886
3.02553
3.00299
2.98122
2.96019
2.9399
2.92031
2.90141
2.88318
2.86561
2.84869
2.8324
2.81674
2.8017
2.78726
2.77343
2.76019
2.74754
3.51948
3.4794
3.4408
3.40363
3.36783
3.33334
3.30009
3.26804
3.23712
3.20729
3.1785
3.15071
3.12388
3.09797
3.07294
3.04876
3.0254
3.00284
2.98104
2.95999
2.93966
2.92004
2.90109
2.88282
2.8652
2.84822
2.83186
2.81613
2.801
2.78648
2.77254
2.75919
2.74641
3.51948
3.47939
3.44079
3.40361
3.36781
3.33332
3.30008
3.26802
3.23711
3.20728
3.17849
3.15069
3.12385
3.09793
3.07289
3.04869
3.02532
3.00274
2.98092
2.95985
2.93949
2.91983
2.90086
2.88255
2.86488
2.84786
2.83145
2.81566
2.80047
2.78586
2.77185
2.7584
2.74552
3.51948
3.47941
3.44083
3.40367
3.36788
3.3334
3.30015
3.2681
3.23717
3.20734
3.17854
3.15074
3.12389
3.09796
3.07291
3.04872
3.02534
3.00275
2.98093
2.95985
2.93949
2.91983
2.90084
2.88253
2.86485
2.84781
2.83139
2.81558
2.80036
2.78573
2.77168
2.75819
2.74526
3.51947
3.47939
3.44079
3.40364
3.36788
3.33342
3.3002
3.26818
3.23729
3.20748
3.17871
3.15095
3.12414
3.09826
3.07326
3.04913
3.02582
3.00331
2.98158
2.9606
2.94034
2.92079
2.90193
2.88373
2.86619
2.84928
2.833
2.81733
2.80225
2.78775
2.77383
2.76047
2.74766
3.5195
3.47951
3.44101
3.40394
3.36823
3.33383
3.30068
3.26875
3.23799
3.20836
3.17981
3.15231
3.12582
3.1003
3.07572
3.05203
3.02922
3.00725
2.98608
2.9657
2.94607
2.92717
2.90898
2.89146
2.87461
2.8584
2.8428
2.82781
2.8134
2.79956
2.78627
2.77353
2.7613
3.5195
3.47951
3.44115
3.40443
3.36926
3.3356
3.30338
3.27257
3.24314
3.21504
3.18822
3.16263
3.13821
3.11491
3.09267
3.07144
3.05116
3.03177
3.01322
2.99547
2.97847
2.96217
2.94653
2.93151
2.91708
2.90319
2.88983
2.87697
2.86457
2.85261
2.84108
2.82995
2.81921
3.51971
3.48133
3.44571
3.41281
3.38266
3.35522
3.33034
3.30786
3.28755
3.26921
3.2526
3.23754
3.22382
3.21127
3.19973
3.18906
3.17912
3.1698
3.161
3.15263
3.14461
3.13688
3.12937
3.12204
3.11486
3.10779
3.10081
3.09391
3.0871
3.08036
3.07371
3.06717
3.06076
3.52531
3.51322
3.51475
3.52701
3.54703
3.5728
3.60268
3.63545
3.67019
3.7062
3.74293
3.77996
3.81697
3.85373
3.89006
3.92586
3.96106
3.99562
4.02956
4.06291
4.09574
4.12812
4.16015
4.19194
4.22362
4.25531
4.28715
4.31926
4.35178
4.38481
4.41847
4.45285
4.48797
3.83322
4.3662
4.85142
5.32246
5.7916
6.25416
6.70605
7.14582
7.5735
7.98992
8.3963
8.79403
9.18446
9.56892
9.94861
10.3246
10.698
11.0696
11.4402
11.8105
12.181
12.5521
12.9242
13.2974
13.6719
14.0474
14.4238
14.8007
15.1776
15.5539
15.9288
16.3014
16.6706
30.2663
32.7713
35.3132
37.8658
40.4154
42.953
45.4701
47.959
50.4123
52.8234
55.1864
57.496
59.7474
61.9367
64.0605
66.1158
68.1003
70.0122
71.8498
73.6122
75.2985
76.9084
78.4415
79.8981
81.2784
82.5829
83.8123
84.9675
86.0495
87.0594
87.9988
88.8686
89.6726
78.3874
236.239
452.39
667.709
823.216
891.309
880.094
817.324
730.735
636.294
538.342
435.415
326.675
217.434
121.442
54.6283
22.2721
13.2623
13.0501
14.7346
16.3489
17.4489
18.0298
18.2256
18.1897
18.0394
17.8403
17.6099
17.3307
16.9632
16.4587
15.7718
14.8737
13.7643
12.4789
11.0863
9.67679
8.34176
7.15341
6.15149
5.34201
4.70624
4.21368
3.83281
3.53683
3.30496
3.12164
2.97531
2.85744
2.76178
2.6838
2.62011
2.56814
2.52582
2.49148
2.46372
2.44139
2.42352
2.40931
2.39808
2.38927
2.38242
2.37715
2.37313
2.37011
2.36787
2.36625
2.3651
2.36431
2.3638
2.36349
2.36333
2.36327
2.36329
2.36335
2.36343
2.36353
2.36362
2.36371
2.36378
2.36384
2.36389
2.36391
2.36392
2.3639
2.36387
2.36383
2.36377
2.36369
2.36361
2.36351
2.36341
2.3633
2.36318
2.36305
2.36292
2.36278
2.36264
2.36252
2.36227
14.9825
21.4753
37.8435
69.7352
120
178.978
233.691
271.977
284.71
269.8
231.424
177.697
119.121
67.4245
32.2397
15.5887
10.9102
10.8764
12.1107
13.5246
14.7126
15.5206
15.9507
16.0938
16.0628
15.9488
15.8046
15.6451
15.4553
15.2002
14.8348
14.3145
13.6073
12.7054
11.6324
10.4435
9.21504
8.02871
6.95257
6.02844
5.2689
4.66344
4.18889
3.81903
3.53021
3.30331
3.12362
2.97999
2.86413
2.76992
2.69289
2.62974
2.57794
2.53549
2.5008
2.47252
2.44957
2.43101
2.41607
2.40413
2.39462
2.38711
2.38121
2.37661
2.37306
2.37034
2.36828
2.36674
2.3656
2.36477
2.36418
2.36377
2.36349
2.36331
2.36319
2.36312
2.36308
2.36306
2.36304
2.36302
2.363
2.36297
2.36293
2.36288
2.36282
2.36275
2.36266
2.36257
2.36247
2.36236
2.36224
2.36211
2.36198
2.36185
2.36171
2.36157
2.36142
2.36127
2.36114
2.36088
8.25817
8.48899
9.44636
11.3841
14.8311
21.0138
28.6763
36.0808
40.9625
41.251
36.2987
27.6314
18.5263
12.1322
9.2495
8.63533
9.03393
9.92651
11.058
12.1883
13.1204
13.754
14.0936
14.2099
14.1919
14.1126
14.0155
13.9132
13.794
13.628
13.375
12.993
12.4485
11.7274
10.8433
9.83802
8.77542
7.72714
6.75663
5.90683
5.19572
4.61998
4.16319
3.80411
3.52219
3.30002
3.12376
2.98272
2.86885
2.77615
2.70022
2.6378
2.58639
2.54406
2.50923
2.48064
2.45723
2.43812
2.42258
2.41
2.39986
2.39172
2.38522
2.38005
2.37596
2.37274
2.37023
2.36827
2.36675
2.36558
2.36468
2.36399
2.36347
2.36306
2.36275
2.3625
2.36231
2.36214
2.362
2.36187
2.36175
2.36164
2.36152
2.36141
2.36129
2.36116
2.36103
2.3609
2.36076
2.36062
2.36048
2.36033
2.36018
2.36003
2.35987
2.35972
2.35956
2.3594
2.35926
2.35899
5.49599
5.51421
5.59379
5.77776
6.12133
6.70055
7.46311
8.23457
8.7699
8.86375
8.49198
7.86635
7.30159
7.00229
7.02725
7.39176
8.07203
8.97878
9.97671
10.9156
11.6709
12.1822
12.4602
12.5627
12.5609
12.5138
12.4566
12.4003
12.3356
12.2381
12.0731
11.8025
11.3928
10.8258
10.1061
9.26423
8.352
7.43135
6.56052
5.78242
5.11911
4.57337
4.1348
3.78682
3.51193
3.29448
3.1216
2.98311
2.87122
2.7801
2.70539
2.64387
2.59306
2.55106
2.51634
2.48765
2.464
2.44453
2.42855
2.41548
2.4048
2.39613
2.38909
2.3834
2.37881
2.37512
2.37217
2.3698
2.3679
2.36639
2.36518
2.3642
2.36342
2.36278
2.36226
2.36182
2.36146
2.36115
2.36087
2.36063
2.3604
2.3602
2.36
2.35981
2.35962
2.35944
2.35927
2.35909
2.35892
2.35874
2.35857
2.35839
2.35822
2.35805
2.35788
2.3577
2.35753
2.35736
2.35722
2.35693
4.18945
4.192
4.20867
4.25152
4.32622
4.43734
4.58186
4.74428
4.90003
5.02879
5.13091
5.23453
5.38708
5.63992
6.03564
6.59649
7.31329
8.13904
8.99046
9.76695
10.3845
10.8043
11.0387
11.135
11.1504
11.1323
11.1092
11.0896
11.0665
11.0201
10.9219
10.7381
10.4372
9.99823
9.41913
8.72044
7.94301
7.13944
6.36233
5.65343
5.03756
4.52242
4.10285
3.76657
3.49906
3.28649
3.11702
2.98107
2.87117
2.78164
2.70823
2.64771
2.59767
2.55619
2.52177
2.49322
2.46953
2.4499
2.43366
2.42026
2.4092
2.40011
2.39264
2.38652
2.38151
2.37741
2.37406
2.37132
2.36908
2.36725
2.36574
2.36449
2.36346
2.3626
2.36187
2.36126
2.36073
2.36026
2.35986
2.35949
2.35917
2.35886
2.35858
2.35832
2.35807
2.35784
2.35761
2.35739
2.35717
2.35696
2.35676
2.35656
2.35636
2.35617
2.35598
2.3558
2.35561
2.35543
2.35527
2.35497
3.53315
3.53195
3.53575
3.55053
3.58123
3.63182
3.70436
3.79885
3.91428
4.05119
4.21506
4.41853
4.68105
5.02525
5.47028
6.02436
6.677
7.39161
8.10626
8.74817
9.25752
9.60787
9.81108
9.90569
9.93789
9.94566
9.95123
9.96113
9.96944
9.96069
9.91162
9.79374
9.57824
9.2434
8.7822
8.20698
7.5489
6.85173
6.16209
5.51964
4.9507
4.46675
4.06705
3.74321
3.48355
3.2761
3.11014
2.97674
2.86881
2.78087
2.70876
2.64932
2.60012
2.5593
2.52535
2.49709
2.47355
2.45395
2.43763
2.42406
2.41279
2.40343
2.39566
2.38922
2.38389
2.37946
2.3758
2.37275
2.37022
2.36811
2.36634
2.36486
2.36361
2.36254
2.36164
2.36085
2.36017
2.35958
2.35905
2.35857
2.35815
2.35776
2.3574
2.35707
2.35676
2.35647
2.3562
2.35593
2.35568
2.35544
2.35521
2.35499
2.35477
2.35456
2.35435
2.35415
2.35395
2.35376
2.35359
2.35328
3.18347
3.18131
3.18322
3.19405
3.21785
3.25767
3.31612
3.39597
3.50062
3.63468
3.80474
4.01988
4.29149
4.63174
5.05034
5.54947
6.11752
6.72421
7.32167
7.85503
8.2798
8.57706
8.75753
8.85278
8.90022
8.93017
8.95973
8.9932
9.02535
9.04385
9.03027
8.96113
8.81119
8.55928
8.19521
7.72489
7.17116
6.56964
5.96088
5.38172
4.85888
4.4065
4.02745
3.71679
3.46552
3.26352
3.10122
2.97042
2.86444
2.77805
2.70722
2.64884
2.60053
2.56042
2.52702
2.49918
2.47593
2.4565
2.44026
2.42668
2.41533
2.40584
2.39791
2.39128
2.38573
2.38108
2.37718
2.37391
2.37116
2.36884
2.36687
2.3652
2.36377
2.36254
2.36149
2.36056
2.35976
2.35905
2.35842
2.35785
2.35734
2.35688
2.35646
2.35607
2.35571
2.35537
2.35505
2.35476
2.35447
2.3542
2.35395
2.3537
2.35347
2.35324
2.35302
2.3528
2.3526
2.35239
2.35222
2.3519
2.99138
2.98858
2.98945
2.99764
3.01686
3.05056
3.10204
3.17464
3.27204
3.39867
3.56006
3.76306
4.01562
4.32563
4.69858
5.13387
5.62041
6.13316
6.63424
7.08099
7.43931
7.69527
7.85837
7.95473
8.01489
8.06305
8.11206
8.16421
8.21441
8.25262
8.2643
8.23056
8.12997
7.94291
7.65759
7.27514
6.8115
6.29502
5.7603
5.24084
4.76282
4.34209
3.98432
3.68754
3.44521
3.249
3.09056
2.96242
2.85841
2.77354
2.70394
2.64658
2.59913
2.55974
2.52694
2.49957
2.47669
2.45753
2.44148
2.42801
2.41671
2.40721
2.39923
2.39251
2.38685
2.38208
2.37805
2.37464
2.37174
2.36927
2.36717
2.36536
2.36381
2.36246
2.36129
2.36027
2.35937
2.35857
2.35786
2.35723
2.35665
2.35613
2.35566
2.35522
2.35482
2.35445
2.3541
2.35377
2.35347
2.35318
2.3529
2.35264
2.35239
2.35215
2.35191
2.35169
2.35148
2.35126
2.35108
2.35075
2.88591
2.8825
2.88273
2.88945
2.90584
2.93505
2.98019
3.0445
3.13151
3.24527
3.39045
3.57247
3.79717
4.07005
4.39449
4.76895
5.18354
5.61745
6.04007
6.41749
6.72288
6.94575
7.09457
7.19125
7.26099
7.32319
7.38731
7.45387
7.51765
7.5701
7.59966
7.59133
7.52736
7.39032
7.16797
6.85819
6.47145
6.02975
5.56212
5.09839
4.6635
4.27413
3.93805
3.65572
3.42285
3.23282
3.07845
2.95311
2.85108
2.76771
2.69929
2.64291
2.59627
2.55757
2.52536
2.49847
2.476
2.45716
2.44136
2.42808
2.4169
2.40749
2.39955
2.39284
2.38716
2.38235
2.37826
2.37478
2.37181
2.36927
2.36708
2.3652
2.36357
2.36215
2.36091
2.35982
2.35885
2.358
2.35724
2.35655
2.35594
2.35538
2.35487
2.3544
2.35397
2.35357
2.3532
2.35286
2.35253
2.35223
2.35194
2.35166
2.3514
2.35115
2.35091
2.35068
2.35046
2.35024
2.35006
2.34972
2.82933
2.8252
2.82464
2.82986
2.84349
2.86825
2.90699
2.96266
3.0384
3.13768
3.2644
3.42291
3.61784
3.85346
4.1322
4.4524
4.80547
5.17399
5.53273
5.85407
6.11646
6.31189
6.44802
6.54355
6.61956
6.69174
6.76689
6.84408
6.91783
6.9805
7.02271
7.03254
6.99554
6.89668
6.72418
6.47389
6.15211
5.77553
5.36806
4.95581
4.56196
4.20332
3.88906
3.62165
3.3987
3.21521
3.06518
2.94277
2.84279
2.76092
2.69366
2.6382
2.59233
2.55427
2.5226
2.49619
2.47411
2.45561
2.44008
2.42703
2.41603
2.40676
2.39892
2.39228
2.38665
2.38186
2.37778
2.3743
2.37131
2.36875
2.36653
2.36461
2.36295
2.36149
2.36022
2.35909
2.3581
2.35721
2.35642
2.35571
2.35507
2.35449
2.35396
2.35348
2.35303
2.35262
2.35223
2.35187
2.35154
2.35122
2.35093
2.35065
2.35038
2.35012
2.34988
2.34964
2.34942
2.3492
2.34901
2.34867
2.8
2.79507
2.79359
2.79727
2.80825
2.82883
2.86143
2.9086
2.97307
3.05779
3.16606
3.30156
3.46819
3.66955
3.90769
4.18115
4.48254
4.79708
5.10356
5.379
5.60574
5.77767
5.90186
5.99457
6.07373
6.15218
6.23468
6.3192
6.39993
6.4698
6.52091
6.54371
6.52655
6.45671
6.32341
6.12143
5.85407
5.53368
5.17967
4.8145
4.45929
4.1304
3.83786
3.58563
3.37299
3.19639
3.05096
2.93165
2.83382
2.75349
2.68737
2.6328
2.58765
2.55019
2.51903
2.49305
2.47134
2.45317
2.43792
2.4251
2.4143
2.40519
2.39748
2.39095
2.38541
2.38069
2.37666
2.37321
2.37025
2.3677
2.3655
2.36358
2.36192
2.36046
2.35918
2.35805
2.35704
2.35615
2.35535
2.35463
2.35398
2.35339
2.35285
2.35236
2.35191
2.35149
2.3511
2.35074
2.3504
2.35008
2.34978
2.34949
2.34922
2.34896
2.34872
2.34848
2.34825
2.34803
2.34784
2.3475
2.78511
2.77938
2.77688
2.77899
2.7874
2.80402
2.83087
2.87012
2.92407
2.99524
3.08648
3.20099
3.34226
3.51355
3.7168
3.95082
4.20925
4.4793
4.74276
4.98017
5.17684
5.32812
5.44074
5.52911
5.60874
5.69029
5.777
5.86598
5.9512
6.0259
6.08319
6.11528
6.11272
6.06496
5.96238
5.79947
5.57741
5.30515
4.99824
4.67573
4.35652
4.05613
3.78493
3.54799
3.34595
3.17654
3.03595
2.91993
2.82436
2.74563
2.68068
2.627
2.58254
2.54564
2.51495
2.48936
2.468
2.45012
2.43513
2.42254
2.41194
2.403
2.39544
2.38904
2.3836
2.37898
2.37502
2.37164
2.36873
2.36622
2.36405
2.36216
2.36052
2.35908
2.35781
2.35669
2.3557
2.35481
2.35402
2.3533
2.35265
2.35207
2.35153
2.35104
2.35059
2.35017
2.34978
2.34941
2.34907
2.34876
2.34845
2.34817
2.3479
2.34764
2.34739
2.34716
2.34693
2.3467
2.34652
2.34617
2.77728
2.77077
2.76723
2.76778
2.77377
2.78674
2.80837
2.84046
2.88495
2.94402
3.02017
3.11629
3.23564
3.38129
3.55518
3.75637
3.97926
4.21258
4.44042
4.64597
4.8169
4.94978
5.05111
5.13393
5.21191
5.29401
5.38234
5.47342
5.56105
5.63868
5.7001
5.73879
5.74704
5.7161
5.63765
5.50625
5.32175
5.09049
4.82478
4.54061
4.25463
3.98124
3.73079
3.50905
3.31778
3.1558
3.0203
2.90774
2.81457
2.73752
2.67378
2.62099
2.57722
2.54086
2.51061
2.4854
2.46435
2.44675
2.432
2.41962
2.40921
2.40043
2.39302
2.38675
2.38142
2.37689
2.37303
2.36972
2.36687
2.36442
2.3623
2.36045
2.35885
2.35744
2.3562
2.3551
2.35412
2.35325
2.35247
2.35177
2.35114
2.35056
2.35003
2.34954
2.3491
2.34868
2.3483
2.34794
2.3476
2.34728
2.34698
2.3467
2.34643
2.34617
2.34593
2.34569
2.34546
2.34524
2.34505
2.34471
2.77259
2.76532
2.76075
2.75978
2.7635
2.77316
2.79013
2.8159
2.85211
2.90066
2.96379
3.04421
3.145
3.26917
3.41863
3.59266
3.7862
3.98911
4.18722
4.36585
4.51453
4.63086
4.72126
4.79771
4.87245
4.95315
5.04109
5.13238
5.22072
5.29974
5.3637
5.40699
5.42324
5.40521
5.34575
5.23979
5.08637
4.88989
4.66002
4.41006
4.15448
3.90642
3.67592
3.46916
3.2887
3.13434
3.00411
2.89519
2.80453
2.72925
2.66678
2.61492
2.57185
2.53603
2.50621
2.48135
2.4606
2.44325
2.42872
2.41654
2.4063
2.39768
2.39041
2.38426
2.37905
2.37462
2.37084
2.36761
2.36483
2.36244
2.36038
2.35858
2.35702
2.35564
2.35444
2.35337
2.35242
2.35157
2.35081
2.35013
2.34951
2.34894
2.34842
2.34795
2.34751
2.3471
2.34672
2.34637
2.34604
2.34572
2.34543
2.34514
2.34488
2.34462
2.34438
2.34414
2.34392
2.34369
2.34351
2.34316
2.76912
2.76111
2.75552
2.75311
2.75474
2.76143
2.77429
2.79455
2.82362
2.86316
2.91524
2.98242
3.06771
3.17403
3.3033
3.45489
3.62415
3.80175
3.97491
4.13062
4.25993
4.36137
4.44129
4.51092
4.58134
4.65924
4.74527
4.83529
4.92299
5.00214
5.06738
5.11375
5.13591
5.1278
5.08337
4.998
4.87029
4.70325
4.50442
4.28478
4.05681
3.83231
3.62081
3.42862
3.25892
3.11227
2.98746
2.88233
2.79432
2.7209
2.65976
2.60887
2.56652
2.53125
2.50186
2.47735
2.45688
2.43977
2.42545
2.41345
2.40338
2.3949
2.38776
2.38173
2.37662
2.37229
2.3686
2.36544
2.36274
2.36041
2.3584
2.35666
2.35514
2.35381
2.35264
2.3516
2.35068
2.34986
2.34912
2.34845
2.34785
2.3473
2.34679
2.34633
2.3459
2.3455
2.34513
2.34478
2.34445
2.34415
2.34385
2.34358
2.34331
2.34306
2.34281
2.34258
2.34236
2.34213
2.34195
2.3416
2.76607
2.75734
2.75077
2.74699
2.7467
2.75073
2.75999
2.77549
2.79843
2.83033
2.8731
2.92922
3.00161
3.09318
3.20577
3.33881
3.48789
3.64433
3.79641
3.93249
4.04491
4.13294
4.20297
4.2656
4.33103
4.40517
4.48822
4.57587
4.66189
4.74019
4.8057
4.85396
4.88041
4.87996
4.84745
4.77879
4.67238
4.53022
4.35819
4.16531
3.96224
3.75949
3.5659
3.38778
3.22866
3.08974
2.97046
2.86923
2.78397
2.71251
2.65276
2.60289
2.56129
2.52658
2.49763
2.47346
2.45328
2.4364
2.42229
2.41046
2.40054
2.3922
2.38518
2.37926
2.37425
2.37001
2.3664
2.36332
2.36069
2.35843
2.35647
2.35478
2.3533
2.35201
2.35088
2.34987
2.34898
2.34818
2.34747
2.34682
2.34623
2.3457
2.34521
2.34476
2.34434
2.34395
2.34358
2.34324
2.34292
2.34262
2.34233
2.34205
2.34179
2.34154
2.3413
2.34107
2.34084
2.34062
2.34044
2.34009
2.76315
2.75371
2.7462
2.74114
2.73911
2.74077
2.74686
2.75825
2.77597
2.80139
2.83635
2.88324
2.94494
3.02429
3.12308
3.24073
3.37298
3.51163
3.64583
3.76504
3.86268
3.93868
3.99948
4.05518
4.11528
4.18506
4.26438
4.34889
4.43244
4.50913
4.5741
4.62331
4.65279
4.65822
4.63522
4.58016
4.49143
4.3703
4.22136
4.05199
3.87126
3.68843
3.51162
3.34693
3.19814
3.06689
2.95318
2.85594
2.77353
2.70409
2.64581
2.59699
2.55617
2.52205
2.49355
2.46973
2.44983
2.43319
2.41927
2.40761
2.39783
2.38963
2.38272
2.37691
2.372
2.36784
2.36432
2.36131
2.35874
2.35654
2.35464
2.35299
2.35156
2.35031
2.34921
2.34824
2.34737
2.3466
2.34591
2.34528
2.34471
2.34419
2.34371
2.34327
2.34286
2.34248
2.34213
2.34179
2.34148
2.34118
2.34089
2.34062
2.34036
2.34011
2.33987
2.33964
2.33942
2.3392
2.33902
2.33867
2.76027
2.75015
2.74175
2.7355
2.73188
2.73143
2.73476
2.74259
2.75585
2.7758
2.80418
2.84337
2.89619
2.96541
3.05276
3.15759
3.27574
3.39936
3.5183
3.62298
3.70769
3.77295
3.82522
3.87424
3.92889
3.99397
4.06911
4.14996
4.23048
4.30496
4.36878
4.4182
4.44971
4.45964
4.44421
4.40027
4.32623
4.22288
4.0938
3.94503
3.78425
3.61956
3.45833
3.30637
3.16755
3.04385
2.93572
2.84252
2.76302
2.69568
2.6389
2.59119
2.55118
2.51767
2.48962
2.46617
2.44655
2.43015
2.41642
2.40492
2.39529
2.38721
2.38042
2.37471
2.36989
2.36582
2.36237
2.35943
2.35692
2.35477
2.35293
2.35133
2.34994
2.34872
2.34766
2.34672
2.34588
2.34513
2.34446
2.34385
2.3433
2.3428
2.34233
2.3419
2.3415
2.34113
2.34078
2.34046
2.34015
2.33985
2.33957
2.3393
2.33905
2.3388
2.33856
2.33833
2.33811
2.33789
2.33771
2.33737
2.75744
2.74667
2.73743
2.73008
2.72501
2.72269
2.72359
2.72836
2.7378
2.75309
2.77595
2.8087
2.85411
2.91492
2.99274
3.08685
3.19312
3.30399
3.4099
3.50202
3.57544
3.63112
3.67561
3.71828
3.76754
3.8278
3.89851
3.97535
4.05248
4.12434
4.18652
4.23555
4.26832
4.28162
4.27223
4.23738
4.17558
4.08729
3.97527
3.8445
3.70146
3.5532
3.40636
3.26638
3.13711
3.02077
2.91816
2.82902
2.75248
2.68728
2.63206
2.58549
2.54631
2.51343
2.48586
2.46277
2.44345
2.42728
2.41374
2.40241
2.39292
2.38496
2.37828
2.37267
2.36794
2.36394
2.36056
2.35769
2.35524
2.35315
2.35135
2.3498
2.34845
2.34727
2.34624
2.34533
2.34452
2.34379
2.34314
2.34255
2.34202
2.34153
2.34107
2.34066
2.34027
2.3399
2.33956
2.33924
2.33893
2.33864
2.33837
2.3381
2.33785
2.33761
2.33737
2.33714
2.33692
2.3367
2.33652
2.33618
2.75467
2.74328
2.73326
2.7249
2.71853
2.71453
2.71332
2.71541
2.72158
2.73292
2.75112
2.77846
2.81769
2.87147
2.94132
3.02642
3.12266
3.22268
3.31741
3.39869
3.46224
3.50944
3.54686
3.58359
3.62764
3.68308
3.74926
3.82194
3.89543
3.96438
4.02457
4.07276
4.10615
4.12194
4.11735
4.08995
4.03836
3.9628
3.86546
3.75039
3.62307
3.48962
3.35598
3.22719
3.10702
2.99779
2.90059
2.81551
2.74194
2.67892
2.62529
2.57988
2.54157
2.50933
2.48225
2.45954
2.44051
2.42457
2.41123
2.40006
2.39071
2.38287
2.3763
2.37078
2.36613
2.36221
2.3589
2.35609
2.3537
2.35166
2.34991
2.3484
2.34709
2.34594
2.34494
2.34406
2.34327
2.34257
2.34194
2.34137
2.34085
2.34037
2.33993
2.33952
2.33914
2.33879
2.33845
2.33814
2.33784
2.33755
2.33728
2.33702
2.33677
2.33652
2.33629
2.33606
2.33585
2.33563
2.33545
2.3351
2.75199
2.74002
2.72926
2.71998
2.71244
2.70696
2.70387
2.70366
2.707
2.71498
2.72923
2.75202
2.78607
2.83396
2.89712
2.97462
3.06234
3.15311
3.23824
3.31014
3.36508
3.40479
3.43584
3.46708
3.50616
3.5569
3.61856
3.68702
3.75676
3.82263
3.88058
3.92758
3.96109
3.97866
3.97785
3.95655
3.91349
3.84873
3.76398
3.66258
3.54917
3.42902
3.30743
3.18903
3.07744
2.97504
2.88313
2.80203
2.73144
2.67061
2.6186
2.57438
2.53695
2.50537
2.47879
2.45645
2.43772
2.42202
2.40888
2.39787
2.38865
2.38093
2.37446
2.36903
2.36446
2.36062
2.35737
2.35462
2.35229
2.3503
2.34859
2.34712
2.34584
2.34473
2.34376
2.34291
2.34214
2.34146
2.34085
2.3403
2.33979
2.33933
2.3389
2.3385
2.33813
2.33778
2.33745
2.33714
2.33685
2.33657
2.3363
2.33604
2.33579
2.33555
2.33532
2.33509
2.33487
2.33466
2.33448
2.33413
2.7494
2.73689
2.72547
2.71534
2.70675
2.69994
2.69522
2.693
2.69391
2.69901
2.7099
2.72885
2.75853
2.80148
2.859
2.93006
3.01053
3.09339
3.17027
3.23406
3.28152
3.31462
3.33996
3.36616
3.40057
3.44678
3.50404
3.56831
3.63427
3.69696
3.75251
3.79806
3.83131
3.85008
3.85223
3.83591
3.79997
3.74436
3.67043
3.58093
3.47978
3.37154
3.2609
3.15209
3.04854
2.95266
2.86585
2.78867
2.72102
2.66239
2.612
2.56899
2.53245
2.50153
2.47546
2.45351
2.43508
2.41962
2.40666
2.39582
2.38673
2.37913
2.37275
2.36741
2.36292
2.35915
2.35597
2.35328
2.35099
2.34905
2.34738
2.34595
2.34471
2.34363
2.34269
2.34185
2.34112
2.34046
2.33986
2.33932
2.33883
2.33838
2.33796
2.33757
2.33721
2.33687
2.33655
2.33624
2.33595
2.33568
2.33541
2.33515
2.33491
2.33467
2.33444
2.33421
2.334
2.33378
2.3336
2.33326
2.74693
2.73393
2.72188
2.711
2.70146
2.69348
2.68731
2.68334
2.68215
2.68478
2.69281
2.70851
2.73451
2.77327
2.82602
2.89162
2.9659
3.04197
3.11175
3.16856
3.2095
3.23682
3.25707
3.27867
3.30872
3.35064
3.40365
3.46383
3.52606
3.58554
3.63859
3.68252
3.71521
3.73471
3.73915
3.72689
3.6969
3.64904
3.5844
3.50524
3.41487
3.31725
3.21652
3.11653
3.02048
2.93076
2.84885
2.77547
2.71072
2.65427
2.60551
2.56371
2.52807
2.49783
2.47226
2.45071
2.43258
2.41735
2.40459
2.3939
2.38494
2.37745
2.37117
2.36591
2.3615
2.35779
2.35467
2.35203
2.3498
2.3479
2.34627
2.34488
2.34367
2.34262
2.3417
2.3409
2.34018
2.33954
2.33896
2.33844
2.33796
2.33752
2.33711
2.33673
2.33638
2.33604
2.33573
2.33543
2.33514
2.33487
2.3346
2.33435
2.33411
2.33387
2.33364
2.33342
2.3332
2.33299
2.33281
2.33247
2.74458
2.73112
2.71852
2.70695
2.69656
2.68754
2.68011
2.6746
2.6716
2.6721
2.6777
2.69062
2.7135
2.74872
2.79741
2.85834
2.92734
2.99758
3.06127
3.11204
3.14735
3.1696
3.18533
3.20278
3.2288
3.26668
3.31564
3.37188
3.43047
3.48679
3.5373
3.57948
3.61137
3.63124
3.63741
3.62845
3.60342
3.56214
3.50546
3.43528
3.35439
3.26621
3.17441
3.08247
2.99339
2.90946
2.83223
2.76252
2.7006
2.64629
2.59915
2.55855
2.52381
2.49425
2.46919
2.44803
2.4302
2.41521
2.40264
2.3921
2.38327
2.37589
2.3697
2.36453
2.36019
2.35654
2.35348
2.35089
2.3487
2.34684
2.34526
2.34389
2.34272
2.3417
2.3408
2.34002
2.33932
2.3387
2.33814
2.33763
2.33716
2.33673
2.33634
2.33596
2.33562
2.33529
2.33498
2.33469
2.3344
2.33413
2.33387
2.33362
2.33338
2.33315
2.33292
2.3327
2.33248
2.33227