/*--------------------------------*- C++ -*----------------------------------*\
  =========                 |
  \\      /  F ield         | OpenFOAM: The Open Source CFD Toolbox
   \\    /   O peration     | Website:  https://openfoam.org
    \\  /    A nd           | Version:  10
     \\/     M anipulation  |
\*---------------------------------------------------------------------------*/
FoamFile
{
    format      ascii;
    class       volScalarField;
    location    "0.02";
    object      nut;
}
// * * * * * * * * * * * * * * * * * * * * * * * * * * * * * * * * * * * * * //

dimensions      [0 2 -1 0 0 0 0];

internalField   nonuniform List<scalar> 
6820
(
0.000149484
0.000144853
0.000140582
0.00013658
0.000132839
0.000129385
0.000126243
0.000123424
0.000120924
0.000118727
0.000116811
0.000115152
0.000113723
0.000112499
0.000111457
0.000110575
0.000109831
0.000109209
0.00010869
0.000108261
0.000107907
0.000107617
0.00010738
0.000107189
0.000107039
0.000106925
0.000106839
0.000106798
0.000106705
0.000107007
0.000105636
0.000112103
8.24994e-05
0.000729193
0.000532461
0.000448157
0.000399925
0.000368666
0.000347077
0.000331486
0.000319801
0.000310752
0.000303536
0.000297633
0.000292699
0.000288499
0.000284869
0.000281693
0.000278885
0.000276382
0.000274134
0.000272103
0.000270259
0.000268579
0.000267043
0.000265628
0.000264309
0.000263087
0.000261966
0.00026095
0.000260039
0.000259229
0.00025854
0.000257885
0.00025754
0.000257472
0.000976782
0.000872198
0.00078169
0.000711411
0.000657569
0.000615656
0.000582236
0.000554952
0.000532219
0.000512955
0.000496401
0.000482011
0.000469384
0.000458215
0.000448272
0.000439372
0.000431373
0.00042416
0.000417638
0.000411732
0.000406379
0.000401523
0.000397108
0.000393094
0.00038944
0.000386115
0.000383092
0.000380356
0.000377881
0.000375684
0.000373688
0.000371997
0.000370293
0.00101348
0.000988223
0.000949379
0.000906249
0.000864566
0.000826644
0.000792964
0.000763262
0.000737045
0.000713805
0.000693089
0.000674518
0.000657779
0.000642615
0.000628818
0.000616218
0.000604675
0.000594073
0.000584317
0.000575327
0.000567027
0.000559366
0.000552311
0.000545819
0.000539852
0.000534377
0.000529364
0.000524794
0.000520645
0.000516921
0.00051358
0.000510706
0.000508093
0.00101671
0.00101241
0.00100191
0.000985683
0.000965674
0.000943862
0.000921686
0.000900026
0.00087935
0.000859869
0.000841645
0.000824657
0.000808847
0.000794136
0.000780443
0.00076769
0.000755802
0.000744713
0.000734359
0.000724687
0.000715663
0.000707249
0.000699412
0.000692124
0.00068536
0.000679101
0.00067333
0.000668035
0.000663206
0.000658846
0.00065494
0.000651529
0.000648536
0.00101676
0.00101591
0.00101359
0.00100903
0.00100206
0.000992988
0.000982328
0.000970634
0.000958375
0.000945914
0.000933512
0.000921345
0.000909531
0.000898142
0.000887217
0.000876779
0.000866831
0.00085737
0.000848395
0.000839895
0.000831863
0.000824286
0.000817155
0.000810462
0.0008042
0.000798364
0.00079295
0.000787959
0.000783391
0.000779254
0.00077555
0.000772295
0.000769472
0.00101671
0.00101623
0.00101553
0.00101429
0.0010122
0.00100913
0.00100503
0.00100001
0.000994216
0.000987824
0.000981002
0.000973901
0.000966646
0.000959343
0.00095207
0.000944892
0.000937859
0.00093101
0.000924374
0.000917973
0.000911826
0.000905945
0.000900341
0.000895025
0.000890006
0.000885292
0.000880893
0.00087682
0.000873082
0.000869693
0.000866664
0.000864007
0.000861727
0.0010167
0.00101622
0.00101574
0.00101518
0.00101443
0.00101337
0.00101192
0.00101001
0.00100766
0.00100487
0.00100169
0.00099818
0.000994402
0.000990416
0.000986279
0.000982047
0.000977767
0.000973479
0.000969221
0.000965022
0.000960912
0.000956912
0.000953047
0.000949334
0.000945792
0.000942438
0.00093929
0.000936364
0.000933678
0.000931248
0.000929092
0.000927225
0.00092566
0.0010167
0.00101621
0.00101575
0.00101529
0.0010148
0.00101426
0.00101362
0.00101283
0.00101186
0.00101069
0.00100932
0.00100775
0.00100598
0.00100405
0.00100197
0.000999767
0.00099747
0.000995103
0.000992691
0.00099026
0.000987832
0.000985428
0.00098307
0.000980778
0.000978571
0.000976467
0.000974486
0.000972647
0.000970968
0.000969468
0.000968167
0.000967082
0.000966232
0.0010167
0.00101621
0.00101574
0.00101529
0.00101484
0.0010144
0.00101395
0.00101347
0.00101295
0.00101237
0.00101171
0.00101096
0.00101014
0.00100922
0.00100822
0.00100715
0.001006
0.0010048
0.00100356
0.00100228
0.00100099
0.000999696
0.000998412
0.000997156
0.000995942
0.000994787
0.000993707
0.000992719
0.000991841
0.00099109
0.000990485
0.000990044
0.000989788
0.0010167
0.00101621
0.00101574
0.00101528
0.00101484
0.00101442
0.001014
0.00101359
0.00101318
0.00101276
0.00101233
0.00101189
0.00101141
0.00101091
0.00101038
0.00100983
0.00100924
0.00100863
0.001008
0.00100735
0.0010067
0.00100605
0.00100541
0.0010048
0.00100421
0.00100366
0.00100317
0.00100275
0.00100242
0.00100218
0.00100206
0.00100207
0.00100223
0.0010167
0.00101621
0.00101574
0.00101528
0.00101484
0.00101441
0.001014
0.0010136
0.00101321
0.00101284
0.00101247
0.0010121
0.00101174
0.00101138
0.00101102
0.00101066
0.0010103
0.00100994
0.00100959
0.00100924
0.00100889
0.00100856
0.00100825
0.00100797
0.00100771
0.0010075
0.00100734
0.00100725
0.00100722
0.00100729
0.00100745
0.00100773
0.00100814
0.0010167
0.00101621
0.00101574
0.00101528
0.00101484
0.00101441
0.001014
0.0010136
0.00101321
0.00101284
0.00101248
0.00101214
0.00101181
0.00101149
0.00101118
0.00101088
0.0010106
0.00101033
0.00101007
0.00100984
0.00100962
0.00100942
0.00100925
0.00100912
0.00100902
0.00100896
0.00100896
0.00100902
0.00100915
0.00100936
0.00100966
0.00101007
0.0010106
0.0010167
0.00101621
0.00101574
0.00101528
0.00101484
0.00101441
0.00101399
0.00101359
0.00101321
0.00101284
0.00101248
0.00101214
0.00101181
0.0010115
0.0010112
0.00101092
0.00101066
0.00101041
0.00101019
0.00100999
0.00100981
0.00100966
0.00100955
0.00100946
0.00100942
0.00100942
0.00100948
0.0010096
0.00100978
0.00101004
0.0010104
0.00101085
0.00101142
0.0010167
0.00101621
0.00101574
0.00101528
0.00101484
0.00101441
0.00101399
0.00101359
0.0010132
0.00101283
0.00101247
0.00101213
0.0010118
0.00101149
0.00101119
0.00101092
0.00101066
0.00101042
0.0010102
0.00101
0.00100984
0.0010097
0.00100959
0.00100952
0.00100949
0.00100951
0.00100958
0.00100971
0.0010099
0.00101017
0.00101052
0.00101097
0.00101153
0.0010167
0.00101621
0.00101574
0.00101528
0.00101483
0.0010144
0.00101399
0.00101359
0.0010132
0.00101283
0.00101247
0.00101212
0.00101179
0.00101148
0.00101118
0.0010109
0.00101064
0.0010104
0.00101018
0.00100998
0.00100981
0.00100967
0.00100956
0.00100949
0.00100946
0.00100947
0.00100953
0.00100965
0.00100984
0.00101009
0.00101042
0.00101085
0.00101138
0.0010167
0.00101621
0.00101574
0.00101528
0.00101483
0.0010144
0.00101399
0.00101358
0.0010132
0.00101282
0.00101246
0.00101211
0.00101178
0.00101147
0.00101117
0.00101088
0.00101062
0.00101037
0.00101015
0.00100995
0.00100978
0.00100963
0.00100952
0.00100944
0.00100939
0.0010094
0.00100944
0.00100955
0.00100971
0.00100994
0.00101025
0.00101064
0.00101112
0.0010167
0.00101621
0.00101574
0.00101528
0.00101483
0.0010144
0.00101399
0.00101358
0.00101319
0.00101282
0.00101245
0.00101211
0.00101177
0.00101145
0.00101115
0.00101087
0.0010106
0.00101035
0.00101012
0.00100992
0.00100974
0.00100959
0.00100946
0.00100937
0.00100932
0.00100931
0.00100934
0.00100943
0.00100957
0.00100978
0.00101005
0.0010104
0.00101084
0.0010167
0.00101621
0.00101574
0.00101528
0.00101483
0.0010144
0.00101398
0.00101358
0.00101319
0.00101281
0.00101245
0.0010121
0.00101176
0.00101144
0.00101114
0.00101085
0.00101058
0.00101033
0.0010101
0.00100989
0.0010097
0.00100954
0.00100941
0.00100931
0.00100925
0.00100922
0.00100924
0.00100931
0.00100943
0.0010096
0.00100985
0.00101016
0.00101056
0.0010167
0.00101621
0.00101574
0.00101528
0.00101483
0.0010144
0.00101398
0.00101358
0.00101319
0.00101281
0.00101244
0.00101209
0.00101176
0.00101143
0.00101113
0.00101084
0.00101056
0.00101031
0.00101007
0.00100986
0.00100966
0.0010095
0.00100936
0.00100925
0.00100917
0.00100913
0.00100914
0.00100918
0.00100928
0.00100943
0.00100965
0.00100993
0.00101028
0.0010167
0.00101621
0.00101574
0.00101528
0.00101483
0.0010144
0.00101398
0.00101358
0.00101318
0.00101281
0.00101244
0.00101209
0.00101175
0.00101142
0.00101112
0.00101082
0.00101054
0.00101029
0.00101004
0.00100982
0.00100963
0.00100945
0.00100931
0.00100919
0.0010091
0.00100905
0.00100904
0.00100907
0.00100914
0.00100927
0.00100945
0.0010097
0.00101001
0.0010167
0.00101621
0.00101574
0.00101528
0.00101483
0.0010144
0.00101398
0.00101358
0.00101318
0.0010128
0.00101244
0.00101208
0.00101174
0.00101142
0.0010111
0.00101081
0.00101053
0.00101026
0.00101002
0.00100979
0.00100959
0.00100941
0.00100925
0.00100913
0.00100903
0.00100897
0.00100894
0.00100895
0.00100901
0.00100911
0.00100927
0.00100948
0.00100975
0.0010167
0.00101621
0.00101574
0.00101528
0.00101483
0.0010144
0.00101398
0.00101358
0.00101318
0.0010128
0.00101243
0.00101208
0.00101174
0.00101141
0.00101109
0.0010108
0.00101051
0.00101025
0.00101
0.00100977
0.00100956
0.00100937
0.00100921
0.00100907
0.00100896
0.00100889
0.00100884
0.00100884
0.00100888
0.00100896
0.00100909
0.00100927
0.00100951
0.0010167
0.00101621
0.00101574
0.00101528
0.00101483
0.0010144
0.00101398
0.00101357
0.00101318
0.0010128
0.00101243
0.00101207
0.00101173
0.0010114
0.00101108
0.00101078
0.0010105
0.00101023
0.00100997
0.00100974
0.00100952
0.00100933
0.00100916
0.00100902
0.0010089
0.00100881
0.00100875
0.00100873
0.00100875
0.00100881
0.00100892
0.00100907
0.00100928
0.0010167
0.00101621
0.00101574
0.00101528
0.00101483
0.0010144
0.00101398
0.00101357
0.00101318
0.0010128
0.00101243
0.00101207
0.00101172
0.00101139
0.00101108
0.00101077
0.00101048
0.00101021
0.00100995
0.00100971
0.00100949
0.00100929
0.00100912
0.00100896
0.00100884
0.00100874
0.00100867
0.00100863
0.00100864
0.00100867
0.00100876
0.00100888
0.00100906
0.0010167
0.00101621
0.00101574
0.00101528
0.00101483
0.0010144
0.00101398
0.00101357
0.00101318
0.00101279
0.00101242
0.00101207
0.00101172
0.00101139
0.00101107
0.00101076
0.00101047
0.00101019
0.00100993
0.00100969
0.00100947
0.00100926
0.00100908
0.00100892
0.00100878
0.00100867
0.00100859
0.00100854
0.00100853
0.00100855
0.00100861
0.00100871
0.00100886
0.0010167
0.00101621
0.00101574
0.00101528
0.00101483
0.0010144
0.00101398
0.00101357
0.00101318
0.00101279
0.00101242
0.00101206
0.00101171
0.00101138
0.00101106
0.00101075
0.00101046
0.00101018
0.00100991
0.00100967
0.00100944
0.00100923
0.00100904
0.00100887
0.00100873
0.00100861
0.00100852
0.00100845
0.00100842
0.00100843
0.00100847
0.00100855
0.00100867
0.0010167
0.00101621
0.00101574
0.00101528
0.00101483
0.0010144
0.00101398
0.00101357
0.00101318
0.00101279
0.00101242
0.00101206
0.00101171
0.00101137
0.00101105
0.00101074
0.00101045
0.00101016
0.0010099
0.00100965
0.00100941
0.0010092
0.001009
0.00100883
0.00100868
0.00100855
0.00100845
0.00100838
0.00100833
0.00100832
0.00100834
0.0010084
0.0010085
0.0010167
0.00101621
0.00101574
0.00101528
0.00101483
0.0010144
0.00101398
0.00101357
0.00101317
0.00101279
0.00101242
0.00101206
0.00101171
0.00101137
0.00101105
0.00101073
0.00101044
0.00101015
0.00100988
0.00100963
0.00100939
0.00100917
0.00100897
0.00100879
0.00100863
0.0010085
0.00100839
0.0010083
0.00100825
0.00100822
0.00100823
0.00100827
0.00100835
0.0010167
0.00101621
0.00101574
0.00101528
0.00101483
0.0010144
0.00101398
0.00101357
0.00101317
0.00101279
0.00101242
0.00101205
0.0010117
0.00101137
0.00101104
0.00101073
0.00101043
0.00101014
0.00100987
0.00100961
0.00100937
0.00100915
0.00100895
0.00100876
0.0010086
0.00100845
0.00100833
0.00100824
0.00100817
0.00100814
0.00100813
0.00100816
0.00100822
0.0010167
0.00101621
0.00101574
0.00101528
0.00101483
0.0010144
0.00101398
0.00101357
0.00101317
0.00101279
0.00101242
0.00101205
0.0010117
0.00101136
0.00101104
0.00101072
0.00101042
0.00101013
0.00100986
0.0010096
0.00100936
0.00100913
0.00100892
0.00100873
0.00100856
0.00100841
0.00100829
0.00100819
0.00100811
0.00100806
0.00100804
0.00100805
0.00100809
0.0010167
0.00101621
0.00101574
0.00101528
0.00101484
0.0010144
0.00101398
0.00101357
0.00101318
0.00101279
0.00101242
0.00101206
0.0010117
0.00101137
0.00101104
0.00101072
0.00101042
0.00101013
0.00100985
0.00100959
0.00100935
0.00100912
0.0010089
0.00100871
0.00100853
0.00100837
0.00100824
0.00100813
0.00100804
0.00100798
0.00100794
0.00100793
0.00100795
0.0010167
0.00101621
0.00101574
0.00101528
0.00101484
0.00101441
0.00101399
0.00101358
0.00101318
0.0010128
0.00101243
0.00101206
0.00101171
0.00101137
0.00101104
0.00101072
0.00101041
0.00101012
0.00100983
0.00100956
0.00100931
0.00100907
0.00100884
0.00100863
0.00100843
0.00100826
0.0010081
0.00100796
0.00100784
0.00100774
0.00100767
0.00100762
0.00100759
0.0010167
0.00101621
0.00101574
0.00101529
0.00101485
0.00101442
0.001014
0.0010136
0.0010132
0.00101281
0.00101243
0.00101206
0.00101169
0.00101133
0.00101098
0.00101063
0.00101029
0.00100996
0.00100964
0.00100932
0.001009
0.0010087
0.0010084
0.00100811
0.00100783
0.00100756
0.0010073
0.00100706
0.00100682
0.0010066
0.0010064
0.00100621
0.00100604
0.0010167
0.00101622
0.00101576
0.00101531
0.00101487
0.00101443
0.00101399
0.00101356
0.00101312
0.00101267
0.00101222
0.00101175
0.00101127
0.00101078
0.00101027
0.00100974
0.0010092
0.00100864
0.00100807
0.00100748
0.00100688
0.00100627
0.00100565
0.00100502
0.00100438
0.00100374
0.0010031
0.00100246
0.00100182
0.00100119
0.00100057
0.000999952
0.000999352
0.0010167
0.00101622
0.00101574
0.00101524
0.00101471
0.00101411
0.00101344
0.00101268
0.00101183
0.00101088
0.00100983
0.00100868
0.00100744
0.00100611
0.0010047
0.00100322
0.00100166
0.00100004
0.000998378
0.00099667
0.000994929
0.000993164
0.000991383
0.000989595
0.000987807
0.000986029
0.000984266
0.000982525
0.000980815
0.000979139
0.000977505
0.000975916
0.000974378
0.00101671
0.00101601
0.00101492
0.00101336
0.00101132
0.00100879
0.00100578
0.00100233
0.000998477
0.000994273
0.000989772
0.000985028
0.000980096
0.000975023
0.000969855
0.000964634
0.000959395
0.000954172
0.000948992
0.000943881
0.000938859
0.000933944
0.000929151
0.000924492
0.000919975
0.000915608
0.000911394
0.000907337
0.000903436
0.000899689
0.000896092
0.000892641
0.000889327
0.00101528
0.00100718
0.000995884
0.000982033
0.000966286
0.000949245
0.000931461
0.000913371
0.000895301
0.000877488
0.000860095
0.000843228
0.000826954
0.000811306
0.000796297
0.000781924
0.00076817
0.000755012
0.000742423
0.000730371
0.000718823
0.000707743
0.000697096
0.000686849
0.000676966
0.000667417
0.000658169
0.000649195
0.000640466
0.00063196
0.000623655
0.000615533
0.000607583
0.000935938
0.000815397
0.0007279
0.000658317
0.00060075
0.000552829
0.000512657
0.00047864
0.000449521
0.000424334
0.000402334
0.000382949
0.000365733
0.000350339
0.000336489
0.000323962
0.000312577
0.00030219
0.000292679
0.000283943
0.0002759
0.000268478
0.000261619
0.000255272
0.000249393
0.000243945
0.000238895
0.000234216
0.000229881
0.00022587
0.000222161
0.000218736
0.000215578
0.000125477
0.000128848
0.000132096
0.000135205
0.000138174
0.000141008
0.00014371
0.000146286
0.000148739
0.000151073
0.000153293
0.000155402
0.000157405
0.000159305
0.000161105
0.00016281
0.000164424
0.000165949
0.000167388
0.000168746
0.000170026
0.000171229
0.00017236
0.000173421
0.000174415
0.000175344
0.000176211
0.000177018
0.000177768
0.000178462
0.000179103
0.000179692
0.000180234
0.000116728
0.000167851
0.00023256
0.000311724
0.000398041
0.000482717
0.000560186
0.00062811
0.000683702
0.000720015
0.000727506
0.000697697
0.00062689
0.000521834
0.000411483
0.000366959
0.000539709
0.00100667
0.00139762
0.00165035
0.00184336
0.00199313
0.0021051
0.00218652
0.00224483
0.00228589
0.0023131
0.00232721
0.00232688
0.00230974
0.00227371
0.00221799
0.00214364
0.00205355
0.00195213
0.00184476
0.00173692
0.00163338
0.00153748
0.00145103
0.00137471
0.00130867
0.00125279
0.0012065
0.00116875
0.00113815
0.00111329
0.00109298
0.0010763
0.00106261
0.00105138
0.00104219
0.0010347
0.0010286
0.00102365
0.00101966
0.00101644
0.00101386
0.00101181
0.00101019
0.00100891
0.00100791
0.00100714
0.00100655
0.0010061
0.00100577
0.00100553
0.00100536
0.00100525
0.00100518
0.00100513
0.00100512
0.00100512
0.00100513
0.00100515
0.00100517
0.0010052
0.00100523
0.00100526
0.00100529
0.00100531
0.00100534
0.00100536
0.00100538
0.0010054
0.00100542
0.00100543
0.00100545
0.00100546
0.00100547
0.00100548
0.00100548
0.00100549
0.00100549
0.0010055
0.0010055
0.0010055
0.0010055
0.00100551
0.0010055
0.000252248
0.000220132
0.000183588
0.000169068
0.000181211
0.000216031
0.000264256
0.00031557
0.000359568
0.000387339
0.000392813
0.00037433
0.000338326
0.000308017
0.00034119
0.000544784
0.000902709
0.00120944
0.00144919
0.00164992
0.00181356
0.00194009
0.00203393
0.0021019
0.00215071
0.0021856
0.00220972
0.00222385
0.00222665
0.00221553
0.0021879
0.00214223
0.00207872
0.00199946
0.00190818
0.00180976
0.00170944
0.00161201
0.00152107
0.00143877
0.00136602
0.00130301
0.0012495
0.00120489
0.00116822
0.00113827
0.0011138
0.00109373
0.00107722
0.00106363
0.00105244
0.00104326
0.00103574
0.00102959
0.00102458
0.00102052
0.00101723
0.00101459
0.00101247
0.00101078
0.00100944
0.00100838
0.00100756
0.00100692
0.00100643
0.00100606
0.00100578
0.00100558
0.00100543
0.00100533
0.00100527
0.00100522
0.0010052
0.0010052
0.0010052
0.00100521
0.00100523
0.00100524
0.00100526
0.00100528
0.0010053
0.00100532
0.00100534
0.00100535
0.00100537
0.00100538
0.00100539
0.0010054
0.00100541
0.00100542
0.00100542
0.00100543
0.00100543
0.00100544
0.00100544
0.00100544
0.00100544
0.00100544
0.00100544
0.00100544
0.000369141
0.000364455
0.000345284
0.000314526
0.000276626
0.000235705
0.000214056
0.000209366
0.000215786
0.000228521
0.000246179
0.000275386
0.000338074
0.000469785
0.000670475
0.000884397
0.00109413
0.00130005
0.00148996
0.00165324
0.00178555
0.0018876
0.00196346
0.00201868
0.00205869
0.00208787
0.00210897
0.00212278
0.00212806
0.00212221
0.0021023
0.00206619
0.0020133
0.0019449
0.001864
0.00177489
0.0016825
0.00159152
0.00150574
0.00142759
0.00135825
0.001298
0.00124662
0.00120352
0.00116783
0.00113848
0.00111439
0.00109456
0.00107822
0.00106472
0.00105358
0.0010444
0.00103685
0.00103066
0.00102559
0.00102145
0.00101809
0.00101537
0.00101317
0.00101141
0.00101
0.00100888
0.001008
0.0010073
0.00100676
0.00100635
0.00100603
0.00100579
0.00100561
0.00100547
0.00100538
0.00100531
0.00100527
0.00100524
0.00100523
0.00100522
0.00100522
0.00100523
0.00100524
0.00100525
0.00100526
0.00100527
0.00100528
0.00100529
0.0010053
0.0010053
0.00100531
0.00100532
0.00100532
0.00100533
0.00100533
0.00100533
0.00100534
0.00100534
0.00100534
0.00100534
0.00100534
0.00100534
0.00100534
0.00100533
0.00050598
0.000504397
0.000501013
0.000492679
0.000477121
0.00045226
0.000425185
0.000405314
0.00039976
0.000413493
0.000451108
0.000517079
0.000613214
0.000737096
0.000884088
0.0010462
0.00121276
0.00137392
0.00152137
0.00164865
0.00175236
0.00183279
0.00189297
0.00193717
0.00196963
0.00199385
0.00201221
0.00202544
0.00203253
0.00203103
0.00201789
0.00199053
0.00194769
0.00188986
0.0018193
0.00173968
0.00165548
0.00157126
0.00149084
0.00141691
0.00135088
0.00129324
0.00124382
0.00120211
0.00116735
0.0011386
0.00111488
0.00109532
0.00107914
0.00106576
0.00105469
0.00104553
0.00103797
0.00103173
0.00102661
0.0010224
0.00101897
0.00101617
0.0010139
0.00101206
0.00101058
0.00100939
0.00100844
0.00100769
0.0010071
0.00100663
0.00100627
0.00100598
0.00100577
0.0010056
0.00100548
0.00100538
0.00100532
0.00100527
0.00100523
0.00100521
0.0010052
0.00100519
0.00100518
0.00100518
0.00100518
0.00100518
0.00100519
0.00100519
0.00100519
0.00100519
0.0010052
0.0010052
0.0010052
0.0010052
0.0010052
0.0010052
0.0010052
0.0010052
0.0010052
0.0010052
0.0010052
0.0010052
0.0010052
0.00100519
0.000645738
0.000643432
0.000641877
0.000640703
0.000639299
0.000637006
0.00063472
0.000635545
0.000644148
0.000665462
0.000703498
0.000760654
0.000837516
0.000932963
0.00104422
0.00116663
0.00129366
0.00141787
0.00153215
0.00163108
0.00171194
0.00177495
0.00182248
0.00185781
0.00188422
0.00190447
0.00192052
0.00193309
0.00194141
0.0019433
0.00193582
0.00191613
0.00188247
0.00183462
0.00177409
0.00170389
0.00162801
0.00155073
0.00147586
0.00140623
0.00134352
0.0012884
0.00124085
0.00120049
0.00116663
0.00113848
0.00111516
0.00109587
0.00107989
0.00106665
0.00105566
0.00104654
0.00103899
0.00103273
0.00102757
0.00102331
0.00101982
0.00101695
0.00101461
0.0010127
0.00101115
0.0010099
0.00100889
0.00100807
0.00100742
0.00100691
0.0010065
0.00100617
0.00100591
0.00100571
0.00100556
0.00100544
0.00100534
0.00100527
0.00100522
0.00100517
0.00100514
0.00100512
0.0010051
0.00100509
0.00100508
0.00100507
0.00100507
0.00100506
0.00100506
0.00100506
0.00100505
0.00100505
0.00100505
0.00100505
0.00100504
0.00100504
0.00100504
0.00100504
0.00100504
0.00100503
0.00100503
0.00100503
0.00100503
0.00100502
0.000766734
0.000764321
0.000762864
0.000762738
0.00076443
0.000768477
0.000775608
0.000787028
0.000804571
0.000830519
0.000867165
0.000916327
0.000978965
0.00105487
0.00114236
0.00123815
0.00133749
0.00143466
0.0015241
0.00160156
0.001665
0.00171471
0.00175259
0.00178121
0.00180311
0.00182042
0.00183473
0.0018467
0.0018558
0.0018602
0.00185721
0.00184399
0.00181841
0.00177968
0.00172861
0.00166754
0.00159991
0.00152965
0.00146045
0.00139523
0.00133587
0.00128326
0.00123756
0.00119851
0.00116557
0.00113803
0.00111514
0.00109614
0.00108038
0.00106729
0.00105641
0.00104736
0.00103984
0.0010336
0.00102842
0.00102413
0.00102059
0.00101767
0.00101527
0.0010133
0.00101169
0.00101037
0.0010093
0.00100844
0.00100773
0.00100717
0.00100671
0.00100634
0.00100605
0.00100581
0.00100562
0.00100547
0.00100535
0.00100526
0.00100518
0.00100512
0.00100507
0.00100503
0.001005
0.00100498
0.00100496
0.00100494
0.00100493
0.00100492
0.00100491
0.0010049
0.00100489
0.00100488
0.00100488
0.00100487
0.00100487
0.00100486
0.00100486
0.00100485
0.00100485
0.00100484
0.00100484
0.00100484
0.00100483
0.00100482
0.000859533
0.00085765
0.000856741
0.000857353
0.000860098
0.000865632
0.000874702
0.00088821
0.00090725
0.000933066
0.000966933
0.00100995
0.00106276
0.00112528
0.00119634
0.00127348
0.00135299
0.00143044
0.00150154
0.00156306
0.00161359
0.00165346
0.00168428
0.0017081
0.00172686
0.0017422
0.00175535
0.00176689
0.00177647
0.00178265
0.00178308
0.00177507
0.00175635
0.00172569
0.00168329
0.00163084
0.00157121
0.00150791
0.00144443
0.0013837
0.00132775
0.00127768
0.00123384
0.00119613
0.00116412
0.00113722
0.00111477
0.00109609
0.00108056
0.00106764
0.0010569
0.00104794
0.00104048
0.00103427
0.0010291
0.0010248
0.00102124
0.00101828
0.00101584
0.00101382
0.00101216
0.0010108
0.00100968
0.00100876
0.00100801
0.0010074
0.0010069
0.00100649
0.00100616
0.00100589
0.00100567
0.0010055
0.00100535
0.00100523
0.00100514
0.00100506
0.00100499
0.00100494
0.00100489
0.00100486
0.00100483
0.0010048
0.00100478
0.00100476
0.00100474
0.00100473
0.00100471
0.0010047
0.00100469
0.00100468
0.00100468
0.00100467
0.00100466
0.00100466
0.00100465
0.00100464
0.00100464
0.00100463
0.00100463
0.00100462
0.000924221
0.000923117
0.000922886
0.000924045
0.000927189
0.000932957
0.000942032
0.000955148
0.000973091
0.000996691
0.00102678
0.00106406
0.00110896
0.00116136
0.00122027
0.00128368
0.00134863
0.00141158
0.00146918
0.00151902
0.0015601
0.00159287
0.00161869
0.00163922
0.00165594
0.0016701
0.00168259
0.00169391
0.00170383
0.00171123
0.00171415
0.00171018
0.00169706
0.00167331
0.00163864
0.00159414
0.00154209
0.00148555
0.00142775
0.00137155
0.00131907
0.00127159
0.00122966
0.00119331
0.00116226
0.00113603
0.00111405
0.0010957
0.00108042
0.0010677
0.00105709
0.00104825
0.00104087
0.00103471
0.00102957
0.00102528
0.00102172
0.00101875
0.00101628
0.00101424
0.00101254
0.00101114
0.00100998
0.00100903
0.00100824
0.00100759
0.00100705
0.00100661
0.00100625
0.00100595
0.0010057
0.0010055
0.00100533
0.00100519
0.00100507
0.00100498
0.0010049
0.00100483
0.00100477
0.00100473
0.00100468
0.00100465
0.00100462
0.00100459
0.00100457
0.00100455
0.00100453
0.00100452
0.0010045
0.00100449
0.00100448
0.00100447
0.00100446
0.00100445
0.00100445
0.00100444
0.00100443
0.00100443
0.00100442
0.00100441
0.000965556
0.000965258
0.000965722
0.000967388
0.000970772
0.000976422
0.000984918
0.000996871
0.00101292
0.00103373
0.00105993
0.00109205
0.00113038
0.00117477
0.00122435
0.00127741
0.00133148
0.00138369
0.00143135
0.00147262
0.00150686
0.00153454
0.00155686
0.00157519
0.00159066
0.00160418
0.00161642
0.00162771
0.0016379
0.00164613
0.0016508
0.00164986
0.00164118
0.00162317
0.0015952
0.00155783
0.00151281
0.00146272
0.00141047
0.00135879
0.00130982
0.00126498
0.001225
0.00119006
0.00116002
0.00113449
0.001113
0.00109501
0.00107999
0.00106746
0.001057
0.00104828
0.00104099
0.0010349
0.00102981
0.00102556
0.00102201
0.00101904
0.00101657
0.00101452
0.0010128
0.00101138
0.00101019
0.00100921
0.00100839
0.00100771
0.00100715
0.00100668
0.00100629
0.00100597
0.0010057
0.00100548
0.00100529
0.00100513
0.001005
0.00100489
0.00100479
0.00100471
0.00100465
0.00100459
0.00100454
0.00100449
0.00100446
0.00100443
0.0010044
0.00100437
0.00100435
0.00100433
0.00100431
0.0010043
0.00100429
0.00100427
0.00100426
0.00100425
0.00100424
0.00100423
0.00100423
0.00100422
0.00100421
0.0010042
0.000989752
0.000990125
0.000991158
0.000993203
0.000996684
0.00100206
0.00100983
0.0010205
0.00103463
0.00105275
0.00107541
0.00110307
0.00113596
0.00117394
0.00121623
0.00126135
0.00130717
0.00135131
0.00139157
0.00142652
0.00145575
0.00147975
0.00149961
0.00151644
0.00153115
0.00154438
0.00155658
0.00156797
0.00157841
0.00158722
0.00159312
0.00159438
0.00158912
0.00157576
0.00155344
0.00152234
0.00148371
0.00143965
0.00139272
0.00134547
0.00130002
0.00125788
0.0012199
0.00118642
0.00115742
0.00113264
0.00111167
0.00109404
0.00107929
0.00106696
0.00105666
0.00104806
0.00104087
0.00103485
0.00102982
0.00102562
0.0010221
0.00101916
0.0010167
0.00101464
0.00101292
0.00101149
0.00101029
0.00100929
0.00100846
0.00100776
0.00100718
0.00100669
0.00100629
0.00100594
0.00100566
0.00100542
0.00100521
0.00100504
0.0010049
0.00100478
0.00100467
0.00100458
0.0010045
0.00100444
0.00100438
0.00100433
0.00100429
0.00100425
0.00100422
0.00100419
0.00100417
0.00100414
0.00100412
0.00100411
0.00100409
0.00100408
0.00100406
0.00100405
0.00100404
0.00100403
0.00100402
0.00100402
0.00100401
0.001004
0.00100265
0.00100349
0.00100491
0.00100719
0.00101065
0.00101569
0.00102272
0.00103217
0.00104452
0.00106026
0.00107987
0.00110377
0.0011322
0.00116501
0.00120152
0.00124043
0.00127989
0.00131785
0.00135248
0.00138265
0.00140811
0.00142937
0.00144739
0.00146314
0.00147734
0.00149043
0.0015027
0.00151425
0.00152492
0.00153414
0.00154089
0.00154374
0.00154107
0.00153139
0.00151376
0.00148805
0.00145509
0.00141657
0.00137467
0.00133172
0.00128975
0.00125032
0.00121438
0.00118242
0.00115451
0.00113051
0.00111009
0.00109285
0.00107837
0.00106625
0.00105611
0.00104763
0.00104054
0.0010346
0.00102964
0.00102548
0.001022
0.00101909
0.00101665
0.00101461
0.0010129
0.00101147
0.00101027
0.00100927
0.00100843
0.00100772
0.00100713
0.00100663
0.00100622
0.00100586
0.00100557
0.00100532
0.0010051
0.00100492
0.00100477
0.00100464
0.00100453
0.00100443
0.00100435
0.00100427
0.00100421
0.00100416
0.00100411
0.00100407
0.00100403
0.001004
0.00100398
0.00100395
0.00100393
0.00100391
0.00100389
0.00100388
0.00100386
0.00100385
0.00100384
0.00100383
0.00100382
0.00100381
0.0010038
0.00100379
0.00100883
0.00100994
0.00101157
0.00101392
0.00101727
0.00102193
0.00102824
0.00103659
0.00104738
0.00106106
0.0010781
0.00109888
0.00112362
0.00115224
0.00118411
0.00121807
0.00125248
0.00128557
0.00131579
0.00134222
0.00136471
0.0013838
0.00140037
0.00141525
0.00142902
0.001442
0.00145432
0.00146601
0.00147687
0.00148639
0.00149374
0.00149773
0.001497
0.00149021
0.00147639
0.00145524
0.00142725
0.00139372
0.00135651
0.00131766
0.0012791
0.00124237
0.00120851
0.0011781
0.00115133
0.00112815
0.0011083
0.00109148
0.00107729
0.00106538
0.0010554
0.00104704
0.00104004
0.00103419
0.00102929
0.00102518
0.00102175
0.00101887
0.00101646
0.00101444
0.00101275
0.00101133
0.00101014
0.00100914
0.0010083
0.00100759
0.001007
0.0010065
0.00100608
0.00100572
0.00100542
0.00100516
0.00100495
0.00100476
0.0010046
0.00100447
0.00100435
0.00100425
0.00100416
0.00100409
0.00100402
0.00100397
0.00100392
0.00100387
0.00100384
0.0010038
0.00100377
0.00100375
0.00100372
0.0010037
0.00100368
0.00100367
0.00100365
0.00100364
0.00100363
0.00100362
0.00100361
0.0010036
0.00100359
0.00100358
0.00101141
0.00101264
0.00101432
0.00101664
0.0010198
0.00102405
0.00102969
0.00103705
0.00104649
0.00105842
0.00107328
0.00109145
0.00111316
0.00113832
0.0011664
0.00119632
0.00122664
0.00125578
0.00128242
0.00130579
0.00132585
0.00134313
0.00135843
0.00137251
0.00138585
0.00139864
0.00141096
0.00142273
0.00143371
0.00144344
0.00145121
0.00145602
0.00145674
0.00145219
0.00144146
0.00142411
0.00140042
0.00137135
0.00133842
0.00130344
0.00126817
0.00123411
0.00120234
0.00117351
0.00114792
0.00112558
0.00110635
0.00108996
0.00107608
0.00106439
0.00105457
0.00104633
0.00103943
0.00103365
0.00102881
0.00102476
0.00102137
0.00101853
0.00101615
0.00101415
0.00101248
0.00101108
0.0010099
0.00100891
0.00100808
0.00100738
0.00100679
0.0010063
0.00100588
0.00100552
0.00100522
0.00100496
0.00100475
0.00100456
0.0010044
0.00100426
0.00100414
0.00100404
0.00100395
0.00100388
0.00100381
0.00100375
0.0010037
0.00100366
0.00100362
0.00100359
0.00100356
0.00100353
0.00100351
0.00100348
0.00100347
0.00100345
0.00100343
0.00100342
0.00100341
0.0010034
0.00100339
0.00100338
0.00100337
0.00100335
0.00101225
0.00101349
0.00101514
0.00101733
0.00102025
0.0010241
0.00102913
0.00103561
0.00104388
0.00105432
0.00106735
0.00108333
0.0011025
0.00112479
0.00114971
0.00117629
0.00120321
0.00122906
0.0012527
0.00127349
0.00129145
0.00130712
0.00132127
0.00133456
0.00134739
0.00135992
0.00137213
0.00138388
0.00139491
0.00140477