/*--------------------------------*- C++ -*----------------------------------*\
  =========                 |
  \\      /  F ield         | OpenFOAM: The Open Source CFD Toolbox
   \\    /   O peration     | Website:  https://openfoam.org
    \\  /    A nd           | Version:  10
     \\/     M anipulation  |
\*---------------------------------------------------------------------------*/
FoamFile
{
    format      ascii;
    class       volScalarField;
    location    "0.02";
    object      p;
}
// * * * * * * * * * * * * * * * * * * * * * * * * * * * * * * * * * * * * * //

dimensions      [0 2 -2 0 0 0 0];

internalField   nonuniform List<scalar> 
6820
(
-7.44612
-8.81168
-9.22916
-9.33125
-9.42022
-9.48175
-9.52484
-9.56347
-9.60081
-9.63789
-9.67584
-9.71534
-9.75673
-9.80033
-9.84638
-9.89513
-9.94683
-10.0017
-10.06
-10.1219
-10.1877
-10.2574
-10.3314
-10.4108
-10.4962
-10.5878
-10.6859
-10.7912
-10.9046
-11.0252
-11.1576
-11.2827
-11.3885
-10.2458
-9.84297
-9.55448
-9.46426
-9.47369
-9.50069
-9.53103
-9.56499
-9.60089
-9.63774
-9.67571
-9.71518
-9.75643
-9.79977
-9.84548
-9.89385
-9.94515
-9.99963
-10.0576
-10.1192
-10.1849
-10.2552
-10.3305
-10.4107
-10.4964
-10.588
-10.6859
-10.7915
-10.9037
-11.0298
-11.1556
-11.3459
-11.5141
-9.10245
-8.97549
-9.20299
-9.34895
-9.41887
-9.47344
-9.5177
-9.55729
-9.59531
-9.63293
-9.67117
-9.71075
-9.75212
-9.79561
-9.84151
-9.89008
-9.94158
-9.99625
-10.0543
-10.1161
-10.1819
-10.2519
-10.3265
-10.4061
-10.4911
-10.5822
-10.6796
-10.7842
-10.896
-11.0183
-11.1457
-11.2978
-11.4189
-9.46838
-9.48686
-9.46886
-9.45028
-9.46635
-9.49692
-9.52914
-9.56258
-9.59753
-9.63366
-9.67112
-9.71023
-9.75124
-9.79439
-9.83995
-9.88815
-9.93924
-9.99346
-10.0511
-10.1124
-10.1776
-10.2471
-10.3213
-10.4004
-10.4849
-10.5752
-10.6716
-10.7749
-10.8849
-11.0044
-11.1284
-11.2705
-11.3976
-9.35717
-9.30376
-9.35159
-9.4036
-9.44716
-9.48736
-9.52409
-9.5596
-9.59531
-9.6316
-9.66894
-9.7078
-9.7485
-9.79132
-9.83653
-9.88436
-9.93507
-9.98888
-10.0461
-10.1068
-10.1715
-10.2404
-10.3137
-10.3919
-10.4753
-10.5643
-10.6592
-10.7606
-10.8684
-10.9843
-11.1051
-11.237
-11.3608
-9.39713
-9.39222
-9.41431
-9.43733
-9.46346
-9.49477
-9.52736
-9.56058
-9.59484
-9.6302
-9.66689
-9.70521
-9.74542
-9.78777
-9.83248
-9.87978
-9.9299
-9.98308
-10.0395
-10.0995
-10.1633
-10.2312
-10.3035
-10.3805
-10.4625
-10.5498
-10.6428
-10.742
-10.8472
-10.9593
-11.0766
-11.2019
-11.3253
-9.39375
-9.38449
-9.40327
-9.43116
-9.46109
-9.49338
-9.52599
-9.55886
-9.59262
-9.62746
-9.66363
-9.70142
-9.74108
-9.78284
-9.82693
-9.87356
-9.92295
-9.97533
-10.0309
-10.0899
-10.1527
-10.2193
-10.2902
-10.3657
-10.4459
-10.5312
-10.6218
-10.7182
-10.8204
-10.9287
-11.0423
-11.1625
-11.2847
-9.40167
-9.40014
-9.41713
-9.44102
-9.46695
-9.49586
-9.5263
-9.55774
-9.5904
-9.62437
-9.65977
-9.69683
-9.73578
-9.7768
-9.82011
-9.86591
-9.9144
-9.96578
-10.0203
-10.0781
-10.1395
-10.2046
-10.2739
-10.3474
-10.4255
-10.5084
-10.5963
-10.6896
-10.7883
-10.8926
-11.0023
-11.1179
-11.2378
-9.40756
-9.40779
-9.42208
-9.44374
-9.46834
-9.49589
-9.52519
-9.55564
-9.58737
-9.62046
-9.65504
-9.6913
-9.72941
-9.76957
-9.81196
-9.85676
-9.90416
-9.95436
-10.0075
-10.0639
-10.1237
-10.1871
-10.2543
-10.3257
-10.4012
-10.4814
-10.5662
-10.6559
-10.7508
-10.8509
-10.9562
-11.0671
-11.1834
-9.41313
-9.41499
-9.42808
-9.44788
-9.47072
-9.49642
-9.52413
-9.55329
-9.58388
-9.61596
-9.64958
-9.68489
-9.72203
-9.76118
-9.8025
-9.84614
-9.89229
-9.94111
-9.99279
-10.0475
-10.1054
-10.1668
-10.2317
-10.3005
-10.3733
-10.4502
-10.5316
-10.6174
-10.708
-10.8034
-10.9039
-11.0096
-11.121
-9.41801
-9.42061
-9.43253
-9.45056
-9.47181
-9.49595
-9.52227
-9.55021
-9.57968
-9.61068
-9.64326
-9.67752
-9.71359
-9.75159
-9.79169
-9.83402
-9.87874
-9.926
-9.97595
-10.0288
-10.0846
-10.1437
-10.2061
-10.272
-10.3416
-10.4151
-10.4925
-10.5741
-10.66
-10.7503
-10.8453
-10.9451
-11.0503
-9.42205
-9.42501
-9.43603
-9.45258
-9.47237
-9.49502
-9.51991
-9.54656
-9.57482
-9.60465
-9.63609
-9.66918
-9.70404
-9.74077
-9.77951
-9.82036
-9.86348
-9.90899
-9.95703
-10.0077
-10.0613
-10.1177
-10.1773
-10.2401
-10.3062
-10.3758
-10.4491
-10.526
-10.6068
-10.6916
-10.7804
-10.8737
-10.9717
-9.42518
-9.42823
-9.43845
-9.45366
-9.47208
-9.4933
-9.51682
-9.54216
-9.56917
-9.59778
-9.62797
-9.6598
-9.69334
-9.72867
-9.7659
-9.80513
-9.84648
-9.89006
-9.93598
-9.98437
-10.0353
-10.089
-10.1454
-10.2048
-10.2672
-10.3326
-10.4013
-10.4732
-10.5485
-10.6272
-10.7095
-10.7955
-10.8855
-9.42731
-9.43033
-9.43981
-9.45384
-9.47097
-9.49083
-9.51299
-9.53701
-9.56271
-9.59001
-9.61889
-9.64934
-9.68144
-9.71524
-9.75082
-9.78828
-9.82769
-9.86916
-9.91277
-9.95863
-10.0068
-10.0574
-10.1105
-10.1662
-10.2245
-10.2855
-10.3493
-10.4159
-10.4853
-10.5575
-10.6328
-10.711
-10.7923
-9.42842
-9.43131
-9.44011
-9.45306
-9.46897
-9.48753
-9.50834
-9.53102
-9.55538
-9.58131
-9.60878
-9.63776
-9.66831
-9.70045
-9.73425
-9.76978
-9.80709
-9.84628
-9.8874
-9.93052
-9.97571
-10.023
-10.0725
-10.1243
-10.1783
-10.2346
-10.2931
-10.354
-10.4173
-10.4828
-10.5505
-10.6205
-10.6927
-9.42846
-9.4312
-9.43935
-9.4513
-9.46605
-9.48335
-9.50284
-9.52416
-9.54713
-9.57163
-9.5976
-9.62503
-9.65391
-9.68427
-9.71616
-9.74961
-9.78467
-9.8214
-9.85985
-9.90005
-9.94204
-9.98587
-10.0316
-10.0791
-10.1286
-10.1799
-10.233
-10.288
-10.3448
-10.4032
-10.4633
-10.5248
-10.5877
-9.42744
-9.42999
-9.43752
-9.44853
-9.46218
-9.47825
-9.49642
-9.51637
-9.53791
-9.56092
-9.58533
-9.6111
-9.63822
-9.66669
-9.69653
-9.72777
-9.76043
-9.79455
-9.83014
-9.86725
-9.90586
-9.94601
-9.98768
-10.0309
-10.0756
-10.1217
-10.1692
-10.218
-10.2681
-10.3193
-10.3715
-10.4245
-10.478
-9.42532
-9.42769
-9.43462
-9.44475
-9.45733
-9.4722
-9.48906
-9.50762
-9.5277
-9.54916
-9.57194
-9.59597
-9.62122
-9.64768
-9.67536
-9.70426
-9.73438
-9.76574
-9.79834
-9.83217
-9.86725
-9.90354
-9.94102
-9.97966
-10.0194
-10.0602
-10.1019
-10.1445
-10.1877
-10.2316
-10.2758
-10.3202
-10.3644
-9.42212
-9.4243
-9.43065
-9.43993
-9.45148
-9.46517
-9.48072
-9.49788
-9.51646
-9.53633
-9.55741
-9.57962
-9.60291
-9.62727
-9.65268
-9.67911
-9.70656
-9.73503
-9.76449
-9.79492
-9.8263
-9.85858
-9.89173
-9.92568
-9.96035
-9.99565
-10.0315
-10.0677
-10.1041
-10.1406
-10.1769
-10.2127
-10.2479
-9.41781
-9.4198
-9.4256
-9.43406
-9.44461
-9.45713
-9.47139
-9.48713
-9.50418
-9.52242
-9.54173
-9.56205
-9.58331
-9.60547
-9.6285
-9.65237
-9.67704
-9.70249
-9.72869
-9.75559
-9.78315
-9.81131
-9.84001
-9.86916
-9.89866
-9.92841
-9.95825
-9.98806
-10.0176
-10.0468
-10.0753
-10.1029
-10.1292
-9.41242
-9.41422
-9.41947
-9.42714
-9.43671
-9.44808
-9.46105
-9.47536
-9.49086
-9.50742
-9.52493
-9.54329
-9.56245
-9.58233
-9.60289
-9.6241
-9.64589
-9.66823
-9.69106
-9.71433
-9.73798
-9.76193
-9.7861
-9.81038
-9.83466
-9.85882
-9.8827
-9.90614
-9.92895
-9.95092
-9.97181
-9.99138
-10.0093
-9.40593
-9.40756
-9.41228
-9.41917
-9.42778
-9.43802
-9.44969
-9.46257
-9.4765
-9.49135
-9.507
-9.52336
-9.54034
-9.55788
-9.57591
-9.59437
-9.6132
-9.63235
-9.65174
-9.67131
-9.69098
-9.71065
-9.73024
-9.74962
-9.76868
-9.78727
-9.80523
-9.8224
-9.83857
-9.85355
-9.86709
-9.87896
-9.88881
-9.39838
-9.39983
-9.40403
-9.41016
-9.41783
-9.42695
-9.43733
-9.44878
-9.46113
-9.47425
-9.48802
-9.50233
-9.5171
-9.53224
-9.54768
-9.56333
-9.57915
-9.59504
-9.61094
-9.62675
-9.64239
-9.65777
-9.67276
-9.68726
-9.70112
-9.71421
-9.72635
-9.73738
-9.74711
-9.75533
-9.76182
-9.76636
-9.76864
-9.38978
-9.39105
-9.39474
-9.40013
-9.40687
-9.41488
-9.42398
-9.43399
-9.44474
-9.45611
-9.46797
-9.48021
-9.49273
-9.50543
-9.51823
-9.53105
-9.5438
-9.55641
-9.56878
-9.58082
-9.59244
-9.60352
-9.61395
-9.62361
-9.63235
-9.64004
-9.64651
-9.65159
-9.6551
-9.65686
-9.65665
-9.65429
-9.64947
-9.38016
-9.38126
-9.38445
-9.38912
-9.39495
-9.40187
-9.40972
-9.41831
-9.42749
-9.43712
-9.44707
-9.45723
-9.46748
-9.47772
-9.48787
-9.49783
-9.5075
-9.51681
-9.52565
-9.53392
-9.54153
-9.54835
-9.55427
-9.55917
-9.5629
-9.56533
-9.56631
-9.56566
-9.56323
-9.55885
-9.55231
-9.54347
-9.53206
-9.36955
-9.37048
-9.37317
-9.3771
-9.38202
-9.38785
-9.39443
-9.40159
-9.40918
-9.41706
-9.42509
-9.43316
-9.44114
-9.44893
-9.45643
-9.46353
-9.47015
-9.47618
-9.48152
-9.48608
-9.48974
-9.49238
-9.4939
-9.49417
-9.49305
-9.49042
-9.48613
-9.48002
-9.47196
-9.46179
-9.44934
-9.43448
-9.41698
-9.35801
-9.35878
-9.361
-9.36427
-9.36836
-9.37319
-9.3786
-9.38442
-9.39049
-9.39667
-9.40283
-9.40883
-9.41456
-9.4199
-9.42475
-9.42901
-9.43258
-9.43535
-9.43723
-9.43811
-9.43788
-9.43643
-9.43365
-9.42942
-9.42362
-9.41612
-9.40679
-9.3955
-9.38212
-9.36652
-9.34855
-9.32813
-9.30503
-9.34557
-9.34614
-9.3478
-9.35027
-9.35339
-9.35709
-9.36123
-9.36565
-9.37018
-9.37467
-9.37897
-9.38296
-9.3865
-9.38947
-9.39177
-9.39329
-9.39391
-9.39355
-9.39209
-9.38944
-9.38548
-9.38012
-9.37324
-9.36474
-9.35449
-9.3424
-9.32834
-9.31221
-9.29388
-9.27326
-9.25023
-9.22472
-9.19656
-9.33238
-9.33289
-9.33425
-9.33627
-9.3388
-9.34173
-9.34488
-9.34809
-9.35121
-9.35409
-9.35657
-9.35854
-9.35987
-9.36044
-9.36014
-9.35887
-9.35653
-9.35302
-9.34823
-9.34208
-9.33445
-9.32525
-9.31438
-9.30174
-9.28723
-9.27075
-9.25221
-9.23151
-9.20855
-9.18326
-9.15555
-9.12537
-9.09257
-9.31829
-9.31827
-9.31858
-9.31936
-9.32063
-9.32231
-9.32421
-9.32614
-9.3279
-9.32931
-9.33021
-9.33043
-9.32984
-9.32833
-9.32576
-9.32204
-9.31706
-9.31072
-9.30293
-9.2936
-9.28263
-9.26993
-9.25542
-9.239
-9.2206
-9.20013
-9.17751
-9.15267
-9.12553
-9.09605
-9.06415
-9.02981
-8.99292
-9.30421
-9.30499
-9.30595
-9.30709
-9.30835
-9.30958
-9.31065
-9.31142
-9.31173
-9.31145
-9.31044
-9.30855
-9.30568
-9.30171
-9.29653
-9.29004
-9.28215
-9.27276
-9.26179
-9.24914
-9.23474
-9.2185
-9.20034
-9.1802
-9.15799
-9.13366
-9.10713
-9.07836
-9.04729
-9.01388
-8.97809
-8.93992
-8.89928
-9.28758
-9.28542
-9.28303
-9.28163
-9.28126
-9.28146
-9.28183
-9.28203
-9.2818
-9.28088
-9.27907
-9.27622
-9.27217
-9.26681
-9.26002
-9.2517
-9.24178
-9.23016
-9.21678
-9.20154
-9.1844
-9.16528
-9.14411
-9.12085
-9.09544
-9.06784
-9.038
-9.00588
-8.97146
-8.93472
-8.89564
-8.85425
-8.81047
-9.27769
-9.2814
-9.28282
-9.28293
-9.28247
-9.28155
-9.28019
-9.27828
-9.27566
-9.27218
-9.26769
-9.26206
-9.25517
-9.2469
-9.23716
-9.22583
-9.21285
-9.19812
-9.18156
-9.16311
-9.14271
-9.12028
-9.09579
-9.06917
-9.04039
-9.00941
-8.9762
-8.94074
-8.90301
-8.86302
-8.82076
-8.77626
-8.72948
-9.2465
-9.23702
-9.22965
-9.22752
-9.22804
-9.22921
-9.23028
-9.23079
-9.23035
-9.22868
-9.22559
-9.22091
-9.21455
-9.20641
-9.1964
-9.18449
-9.17059
-9.15467
-9.13668
-9.11657
-9.09432
-9.06989
-9.04325
-9.01439
-8.98327
-8.9499
-8.91427
-8.87637
-8.83622
-8.79384
-8.74924
-8.70248
-8.65352
-9.2751
-9.28587
-9.28431
-9.27763
-9.27117
-9.2655
-9.26
-9.25419
-9.24779
-9.24058
-9.23234
-9.22288
-9.21204
-9.19969
-9.18571
-9.16999
-9.15244
-9.13299
-9.11158
-9.08813
-9.06261
-9.03497
-9.00518
-8.9732
-8.93904
-8.90267
-8.8641
-8.82332
-8.78037
-8.73526
-8.68803
-8.63872
-8.58735
-9.1673
-9.13142
-9.1267
-9.13842
-9.14933
-9.15802
-9.16499
-9.17001
-9.17271
-9.17297
-9.17078
-9.16615
-9.1591
-9.14963
-9.13776
-9.1235
-9.10685
-9.08783
-9.06644
-9.04269
-9.01658
-8.98812
-8.95733
-8.92423
-8.88883
-8.85116
-8.81125
-8.76914
-8.72487
-8.67847
-8.63
-8.57953
-8.52706
-9.36455
-9.38547
-9.34853
-9.30689
-9.28309
-9.26816
-9.25501
-9.2428
-9.23116
-9.21942
-9.20703
-9.19365
-9.17901
-9.16291
-9.14518
-9.12569
-9.10432
-9.08101
-9.05566
-9.02824
-8.99869
-8.96698
-8.9331
-8.89704
-8.85879
-8.81838
-8.77581
-8.73112
-8.68435
-8.63554
-8.58475
-8.53206
-8.4775
-8.94893
-8.86721
-8.92192
-9.00089
-9.04182
-9.06833
-9.09021
-9.10596
-9.11591
-9.12111
-9.12215
-9.11942
-9.11322
-9.10378
-9.09129
-9.07587
-9.05765
-9.03671
-9.01312
-8.98695
-8.95827
-8.92713
-8.89359
-8.85771
-8.81956
-8.77919
-8.73666
-8.69205
-8.6454
-8.5968
-8.54629
-8.49395
-8.4398
-9.91905
-9.63901
-9.43036
-9.33082
-9.28997
-9.26105
-9.23732
-9.21901
-9.20366
-9.1893
-9.17496
-9.16003
-9.14403
-9.12662
-9.10754
-9.08663
-9.06375
-9.03879
-9.01168
-8.98237
-8.95082
-8.91701
-8.88095
-8.84265
-8.80212
-8.75941
-8.71455
-8.66761
-8.61865
-8.56775
-8.51495
-8.46041
-8.40404
-7.95865
-8.51868
-8.8172
-8.92799
-8.99942
-9.05258
-9.08578
-9.10579
-9.11729
-9.12199
-9.1212
-9.11591
-9.10677
-9.09416
-9.07837
-9.05961
-9.03802
-9.01373
-8.98682
-8.95739
-8.9255
-8.89124
-8.85469
-8.81594
-8.77507
-8.73216
-8.68732
-8.64063
-8.59217
-8.54205
-8.49033
-8.43711
-8.3824
-11.6083
-10.6988
-10.6804
-11.4436
-12.6523
-14.0737
-15.5395
-16.9802
-18.3306
-19.5355
-20.5324
-21.2478
-21.5992
-21.5045
-20.9013
-19.7811
-18.2009
-16.2458
-14.0979
-11.9746
-10.0073
-8.25903
-6.74587
-5.44888
-4.34217
-3.40201
-2.60667
-1.93683
-1.3756
-0.908125
-0.521475
-0.204429
0.0527419
0.258524
0.420381
0.544925
0.638053
0.705047
0.75064
0.779041
0.793886
0.798175
0.79428
0.784063
0.769017
0.75038
0.729179
0.706259
0.682292
0.657807
0.633212
0.608818
0.584861
0.561513
0.538895
0.517088
0.49614
0.476073
0.45689
0.438577
0.421109
0.404452
0.388565
0.373405
0.358924
0.345074
0.331807
0.319074
0.306829
0.295027
0.283624
0.272579
0.261852
0.251407
0.24121
0.231229
0.221434
0.211796
0.202292
0.192897
0.18359
0.174351
0.165162
0.156007
0.14687
0.137738
0.128598
0.11944
0.110252
0.101025
0.0917506
0.0824211
0.0730274
0.0635668
0.054025
0.0444124
0.0346908
0.0249208
0.0149675
0.00508249
-12.0095
-11.6852
-11.612
-12.0159
-12.8353
-13.956
-15.1925
-16.4715
-17.7015
-18.8017
-19.6929
-20.2971
-20.5395
-20.3608
-19.7385
-18.6804
-17.215
-15.4434
-13.5265
-11.6045
-9.78912
-8.15323
-6.71838
-5.47447
-4.40339
-3.4865
-2.70562
-2.04399
-1.48645
-1.01944
-0.630917
-0.310306
-0.0483634
0.163019
0.331003
0.461955
0.561575
0.634984
0.686782
0.721067
0.74139
0.750714
0.751416
0.745387
0.734161
0.719006
0.700975
0.680934
0.659574
0.637446
0.614977
0.592498
0.570265
0.548466
0.527239
0.506681
0.486854
0.467793
0.449511
0.432005
0.41526
0.399251
0.383944
0.369302
0.355285
0.341849
0.328952
0.316549
0.304599
0.293059
0.281889
0.271051
0.260508
0.250228
0.240176
0.230323
0.220641
0.211104
0.201688
0.192371
0.183132
0.173954
0.164818
0.155709
0.146613
0.137517
0.128408
0.119277
0.110113
0.100907
0.0916507
0.0823372
0.0729577
0.0635094
0.0539793
0.0443758
0.0346658
0.0248995
0.0149649
0.00506481
-11.6228
-11.4003
-11.3818
-11.8877
-12.744
-13.7714
-14.8896
-16.0173
-17.0869
-18.0287
-18.7753
-19.2607
-19.4264
-19.2281
-18.6374
-17.6508
-16.3127
-14.7238
-12.9943
-11.2411
-9.56861
-8.04187
-6.68448
-5.49434
-4.46007
-3.56765
-2.8023
-2.14972
-1.59658
-1.13057
-0.740613
-0.416801
-0.150392
0.0663425
0.24026
0.377482
0.483508
0.563289
0.621286
0.661476
0.687325
0.701751
0.70713
0.705379
0.698063
0.68648
0.671706
0.654627
0.635955
0.616259
0.595988
0.575493
0.555046
0.534856
0.515076
0.495818
0.477158
0.459144
0.441802
0.425139
0.40915
0.393816
0.379115
0.365015
0.351482
0.338479
0.325968
0.31391
0.302267
0.291001
0.280075
0.269454
0.259105
0.248995
0.239094
0.229375
0.219812
0.21038
0.201056
0.191821
0.182654
0.173539
0.164458
0.155398
0.146344
0.137285
0.12821
0.119107
0.109968
0.100784
0.0915463
0.0822495
0.072885
0.0634495
0.0539317
0.0443376
0.0346396
0.0248772
0.014962
0.00504683
-11.5956
-11.6325
-11.7772
-12.2258
-12.8954
-13.7257
-14.6517
-15.5985
-16.5034
-17.3014
-17.9284
-18.3238
-18.4328
-18.2103
-17.6304
-16.7084
-15.4944
-14.057
-12.488
-10.8898
-9.35014
-7.9265
-6.64459
-5.50831
-4.51169
-3.64481
-2.89604
-2.25346
-1.70547
-1.24109
-0.850202
-0.523603
-0.253069
-0.0312612
0.148369
0.291697
0.404012
0.490095
0.554256
0.600351
0.631754
0.651334
0.661459
0.664064
0.660741
0.652813
0.641378
0.62734
0.611431
0.594241
0.576238
0.557793
0.539196
0.520674
0.502395
0.484488
0.467042
0.450119
0.433756
0.417971
0.402768
0.388141
0.374071
0.360536
0.347509
0.334958
0.322851
0.311153
0.299832
0.288852
0.278181
0.267786
0.257638
0.247706
0.237964
0.228386
0.218946
0.209624
0.200397
0.191247
0.182155
0.173105
0.164082
0.155073
0.146064
0.137044
0.128002
0.118929
0.109816
0.100655
0.0914374
0.082158
0.0728091
0.063387
0.0538819
0.0442977
0.0346122
0.0248541
0.0149586
0.00502868
-11.525
-11.619
-11.7782
-12.1695
-12.7708
-13.5133
-14.3316
-15.1617
-15.9456
-16.6254
-17.1446
-17.4503
-17.4965
-17.2506
-16.6987
-15.85
-14.7419
-13.4362
-12.0119
-10.5535
-9.13509
-7.80815
-6.5992
-5.5163
-4.55782
-3.71739
-2.98622
-2.35457
-1.81256
-1.3505
-0.959235
-0.630314
-0.356037
-0.129473
0.055613
0.204842
0.323293
0.415569
0.485827
0.537795
0.574755
0.599521
0.614444
0.621472
0.622215
0.618017
0.609996
0.599074
0.586002
0.571389
0.555722
0.539391
0.522706
0.505909
0.489186
0.47268
0.456495
0.440706
0.425361
0.41049
0.396108
0.382215
0.368804
0.355859
0.34336
0.331281
0.319595
0.308274
0.297287
0.286607
0.276201
0.266044
0.256105
0.246361
0.236784
0.227352
0.218042
0.208834
0.199708
0.190647
0.181633
0.172652
0.16369
0.154733
0.145771
0.136792
0.127785
0.118744
0.109658
0.10052
0.0913236
0.0820625
0.0727298
0.0633218
0.0538299
0.0442561
0.0345836
0.0248301
0.0149546
0.00501054
-11.4818
-11.6322
-11.8414
-12.2159
-12.7447
-13.3778
-14.0693
-14.7688
-15.4251
-15.9871
-16.4051
-16.6331
-16.6321
-16.3741
-15.847
-15.0604
-14.0476
-12.8606
-11.5651
-10.2319
-8.92411
-7.68757
-6.54867
-5.5183
-4.59819
-3.78494
-3.07229
-2.45252
-1.91734
-1.45834
-1.06733
-0.736601
-0.459008
-0.22804
-0.0377877
0.117109
0.241514
0.339845
0.416106
0.473895
0.516396
0.546362
0.566124
0.577628
0.582501
0.582102
0.577565
0.569829
0.559663
0.547695
0.53443
0.520278
0.505564
0.49055
0.475436
0.460382
0.445505
0.430893
0.416606
0.402687
0.389158
0.376031
0.363307
0.350977
0.339027
0.32744
0.316194
0.305266
0.29463
0.284261
0.274134
0.264223
0.254504
0.244955
0.235551
0.226272
0.217097
0.208009
0.198988
0.19002
0.181088
0.172179
0.16328
0.154379
0.145465
0.136528
0.127559
0.11855
0.109492
0.100379
0.0912048
0.0819627
0.072647
0.0632536
0.0537757
0.0442126
0.0345535
0.0248051
0.01495
0.00499252
-11.4367
-11.6097
-11.8317
-12.1713
-12.6297
-13.1735
-13.7647
-14.3595
-14.9122
-15.3775
-15.7116
-15.8749
-15.8341
-15.5668
-15.0641
-14.3352
-13.408
-12.3262
-11.1453
-9.92448
-8.71754
-7.56533
-6.49339
-5.51439
-4.6326
-3.84711
-3.15382
-2.54684
-2.01936
-1.5642
-1.17411
-0.842132
-0.561689
-0.326705
-0.131607
0.0286953
0.158843
0.263068
0.345214
0.408749
0.456755
0.49192
0.516544
0.532569
0.541625
0.545085
0.544096
0.539611
0.532417
0.523158
0.512359
0.500446
0.487764
0.474588
0.461138
0.447585
0.434062
0.42067
0.407482
0.394551
0.38191
0.36958
0.35757
0.34588
0.334504
0.323431
0.312643
0.302124
0.291854
0.281811
0.271973
0.262321
0.252832
0.243485
0.234262
0.225143
0.21611
0.207146
0.198236
0.189365
0.180518
0.171685
0.162852
0.154008
0.145145
0.136253
0.127322
0.118347
0.109319
0.100232
0.0910806
0.0818585
0.0725605
0.0631824
0.0537189
0.0441672
0.034522
0.0247791
0.0149445
0.00497477
-11.3864
-11.5686
-11.7947
-12.1067
-12.5082
-12.9747
-13.475
-13.973
-14.4299
-14.8065
-15.065
-15.1714
-15.0974
-14.8242
-14.3452
-13.6683
-12.8173
-11.8292
-10.7503
-9.63047
-8.51559
-7.44191
-6.43373
-5.50473
-4.66102
-3.90367
-3.23046
-2.63712
-2.11822
-1.66768
-1.27921
-0.946582
-0.66379
-0.425209
-0.225615
-0.0601981
0.0754562
0.185388
0.273279
0.342463
0.395919
0.436266
0.465762
0.486336
0.49962
0.50699
0.509605
0.508431
0.50427
0.497782
0.489509
0.479895
0.4693
0.458018
0.446283
0.434281
0.422159
0.41003
0.397981
0.386074
0.374355
0.362853
0.351587
0.340564
0.329785
0.319246
0.308936
0.298844
0.288955
0.279252
0.269717
0.260334
0.251084
0.24195
0.232916
0.223963
0.215078
0.206245
0.19745
0.18868
0.179923
0.171168
0.162404
0.153621
0.144811
0.135965
0.127075
0.118135
0.109138
0.100079
0.0909509
0.0817495
0.07247
0.063108
0.0536596
0.0441198
0.0344889
0.0247522
0.014938
0.00495739
-11.3273
-11.509
-11.7287
-12.0114
-12.3601
-12.7573
-13.1779
-13.5919
-13.9659
-14.2662
-14.4601
-14.5182
-14.4169
-14.1404
-13.6836
-13.0537
-12.2709
-11.3661
-10.3783
-9.34929
-8.31844
-7.3178
-6.37016
-5.4896
-4.68351
-3.95453
-3.302
-2.72307
-2.21355
-1.76843
-1.3823
-1.04963
-0.765024
-0.523295
-0.319583
-0.149366
-0.00846547
0.106963
0.200438
0.275156
0.333989
0.37948
0.413843
0.438984
0.456526
0.467849
0.474117
0.476308
0.475235
0.471575
0.465885
0.458626
0.450175
0.440839
0.430869
0.420466
0.40979
0.398968
0.388097
0.377252
0.366489
0.355846
0.345351
0.335021
0.324864
0.31488
0.305069
0.295422
0.285929
0.276581
0.267362
0.25826
0.24926
0.240348
0.231509
0.222731
0.214
0.205303
0.196628
0.187965
0.179301
0.170628
0.161936
0.153216
0.144461
0.135664
0.126817
0.117914
0.10895
0.0999184
0.0908153
0.0816357
0.0723755
0.0630302
0.0535975
0.0440703
0.0344541
0.0247241
0.0149304
0.0049405
-11.2585
-11.4336
-11.641
-11.8948
-12.1965
-12.5332
-12.8841
-13.2242
-13.5253
-13.7585
-13.8958
-13.9124
-13.7881
-13.51
-13.0741
-12.4867
-11.7647
-10.9341
-10.0276
-9.08043
-8.1263
-7.19351
-6.30319
-5.46937
-4.70027
-3.99971
-3.3683
-2.80446
-2.30509
-1.86614
-1.48305
-1.15099
-0.865111
-0.620707
-0.413279
-0.2386
-0.092735
0.0279611
0.126838
0.206955
0.271074
0.321656
0.360864
0.390573
0.412393
0.427701
0.437664
0.443266
0.445332
0.444552
0.441499
0.436648
0.430391
0.423053
0.414897
0.40614
0.396955
0.38748
0.377826
0.36808
0.358306
0.348554
0.33886
0.329249
0.319737
0.310332
0.301037
0.291853
0.282774
0.273794
0.264905
0.256095
0.247355
0.238675
0.230041
0.221445
0.212875
0.20432
0.195771
0.187218
0.178652
0.170064
0.161447
0.152794
0.144097
0.13535
0.126547
0.117683
0.108752
0.0997508
0.0906737
0.0815168
0.0722768
0.062949
0.0535326
0.0440185
0.0344175
0.024695
0.0149217
0.00492416
-11.1799
-11.3444
-11.5355
-11.7606
-12.0197
-12.3025
-12.5921
-12.8674
-13.1049
-13.2799
-13.3685
-13.3498
-13.2067
-12.9285
-12.512
-11.9628
-11.2951
-10.5306
-9.69685
-8.8235
-7.93943
-7.06959
-6.2334
-5.4445
-4.71157
-4.0393
-3.42935
-2.88115
-2.39261
-1.96055
-1.58119
-1.25036
-0.963783
-0.717193
-0.506469
-0.327688
-0.177159
-0.0514453
0.0526346
0.137997
0.207292
0.262895
0.30691
0.341175
0.367281
0.386595
0.400284
0.409336
0.414585
0.416732
0.416365
0.413971
0.409959
0.404666
0.398372
0.391305
0.383653
0.375567
0.367169
0.358557
0.349806
0.340975
0.332111
0.323245
0.314401
0.305597
0.29684
0.288137
0.279488
0.270891
0.262344
0.253839
0.24537
0.23693
0.228511
0.220104
0.211701
0.203295
0.194876
0.186438
0.177974
0.169476
0.160937
0.152353
0.143716
0.135022
0.126265
0.117442
0.108547
0.0995758
0.0905258
0.0813926
0.0721737
0.0628641
0.0534648
0.0439644
0.0343791
0.0246648
0.0149116
0.00490841
-11.0918
-11.2432
-11.4158
-11.6129
-11.8332
-12.0682
-12.304
-12.5229
-12.7049
-12.8294
-12.8761
-12.8272
-12.6686
-12.3914
-11.9931
-11.4783
-10.859
-10.1536
-9.38492
-8.57819
-7.7581
-6.9466
-6.16137
-5.41549
-4.71777
-4.07352
-3.48518
-2.95308
-2.47595
-2.05145
-1.67647
-1.3475
-1.06078
-0.812506
-0.598923
-0.416414
-0.261541
-0.131075
-0.0220099
0.0684282
0.142772
0.203309
0.252076
0.290871
0.321257
0.344588
0.362024
0.374557
0.383027
0.388143
0.390505
0.390614
0.388892
0.385691
0.381302
0.375969
0.369891
0.363233
0.356128
0.348684
0.340989
0.33311
0.325103
0.317008
0.308858
0.300675
0.292475
0.284271
0.276068
0.26787
0.259678
0.25149
0.243303
0.235113
0.226916
0.218707
0.210478
0.202226
0.193944
0.185626
0.177267
0.168862
0.160406
0.151893
0.143319
0.13468
0.125972
0.11719
0.108332
0.0993934
0.0903716
0.0812631
0.0720661
0.0627756
0.0533939
0.043908
0.0343387
0.0246334
0.0149002
0.00489327
-10.9951
-11.1317
-11.2847
-11.4548
-11.6397
-11.8323
-12.0207
-12.1903
-12.3242
-12.405
-12.4158
-12.3415
-12.1704
-11.895
-11.5134
-11.0297
-10.4538
-9.80107
-9.09081
-8.34425
-7.58259
-6.82507
-6.08773
-5.38288
-4.71929
-4.10261
-3.53591
-3.02022
-2.55502
-2.13865
-1.76868
-1.44216
-1.15586
-0.906405
-0.690409
-0.50456
-0.345677
-0.210742
-0.0969242
-0.0015973
0.0776526
0.143019
0.196469
0.239752
0.274399
0.301744
0.322941
0.338977
0.350697
0.358817
0.363947
0.3666
0.36721
0.366142
0.3637
0.360141
0.355677
0.350484
0.344707
0.338466
0.331858
0.324961
0.317838
0.31054
0.303106
0.295566
0.287944
0.280256
0.272516
0.264731
0.256907
0.249048
0.241154
0.233224
0.225258
0.217253
0.209206
0.201114
0.192974
0.184781
0.176532
0.168224
0.159852
0.151414
0.142906
0.134324
0.125666
0.116928
0.108108
0.0992034
0.090211
0.0811283
0.0719541
0.0626834
0.05332
0.0438493
0.0342965
0.0246008
0.0148875
0.00487869
-10.8906
-11.0117
-11.1447
-11.289
-11.4416
-11.5964
-11.7432
-11.8698
-11.9621
-12.0054
-11.9855
-11.8898
-11.7086
-11.4358
-11.0698
-10.6141
-10.077
-9.47148
-8.81363
-8.12146
-7.41315
-6.70554
-6.01306
-5.34722
-4.71654
-4.12687
-3.5817
-3.08263
-2.62975
-2.22203
-1.85763
-1.53414
-1.2488
-0.998659
-0.780699
-0.59191
-0.429362
-0.290253
-0.17193
-0.0719167
0.01208
0.0821555
0.140204
0.187918
0.226793
0.25814
0.283098
0.302651
0.317642
0.328795
0.336725
0.341958
0.344937
0.34604
0.345584
0.343837
0.341024
0.337332
0.332917
0.327911
0.32242
0.316533
0.310322
0.303845
0.297149
0.290273
0.283247
0.276094
0.268832
0.261474
0.254033
0.246514
0.238923
0.231263
0.223536
0.215744
0.207885
0.199959
0.191966
0.183903
0.175768
0.167561
0.159277
0.150917
0.142476
0.133954
0.125348
0.116656
0.107876
0.0990059
0.0900441
0.0809881
0.0718375
0.0625875
0.0532431
0.0437881
0.0342523
0.0245671
0.0148735
0.00486464
-10.7794
-10.8846
-10.9978
-11.1177
-11.2409
-11.3619
-11.4723
-11.5615
-11.6177
-11.6288
-11.5829
-11.4695
-11.2804
-11.0107
-10.6592
-10.2288
-9.72658
-9.16332
-8.55259
-7.90962
-7.25
-6.58845
-5.93792
-5.30904
-4.70999
-4.14663
-3.62275
-3.14037
-2.70012
-2.30149
-1.94317
-1.62323
-1.33937
-1.08905
-0.869573
-0.678245
-0.512388
-0.369411
-0.246845
-0.14236
-0.0537906
0.0208591
0.0834044
0.135479
0.178536
0.213859
0.242569
0.265641
0.283917
0.298123
0.30888
0.316723
0.322104
0.325413
0.326977
0.327076
0.325947
0.323789
0.320769
0.317028
0.312684
0.307834
0.302559
0.296927
0.290992
0.284801
0.278389
0.271787
0.265018
0.258103
0.251056
0.243889
0.236611
0.22923
0.221752
0.214179
0.206515
0.198762
0.190921
0.182992
0.174976
0.166873
0.158681
0.150401
0.142031
0.133571
0.125018
0.116374
0.107635
0.0988009
0.0898708
0.0808425
0.0717165
0.0624879
0.0531632
0.0437247
0.0342062
0.0245322
0.0148583
0.00485103
-10.6624
-10.7518
-10.8459
-10.9428
-11.0393
-11.1303
-11.2085
-11.2652
-11.2905
-11.2741
-11.2062
-11.0781
-10.883
-10.6169
-10.2789
-9.87146
-9.40059
-8.87527
-8.30694
-7.70849
-7.0933
-6.47424
-5.86284
-5.26887
-4.70007
-4.16222
-3.65927
-3.19358
-2.76616
-2.37698
-2.02517
-1.70928
-1.42739
-1.17735
-0.956813
-0.763351
-0.594545
-0.448017
-0.321478
-0.212751
-0.119796
-0.0407221
0.0262046
0.0825542
0.129734
0.168994
0.201435
0.22802
0.249585
0.266856
0.28046
0.290936
0.298747
0.30429
0.307905
0.309882
0.310469
0.309875
0.308279
0.305832
0.302661
0.298873
0.294559
0.289794
0.284641
0.279153
0.273374
0.267339
0.26108
0.254619
0.247979
0.241175
0.234221
0.227129
0.219906
0.21256
0.205098
0.197523
0.189839
0.18205
0.174156
0.16616
0.158064
0.149867
0.14157
0.133173
0.124677
0.116081
0.107385
0.0985887
0.0896914
0.0806918
0.0715912
0.0623847
0.0530804
0.0436589
0.0341582
0.0244963
0.0148419
0.00483776
-10.5409
-10.6147
-10.6904
-10.7659
-10.8382
-10.9025
-10.9526
-10.9811
-10.9798
-10.94
-10.8536
-10.7134
-10.514
-10.2519
-9.92648
-9.53995
-9.09731
-8.6061
-8.07596
-7.51783
-6.94318
-6.36324
-5.78828
-5.22718
-4.68722
-4.174
-3.69153
-3.24239
-2.82792
-2.44846
-2.10355
-1.79213
-1.51269
-1.26339
-1.04221
-0.847018
-0.675625
-0.525868
-0.395636
-0.282907
-0.185767
-0.102432
-0.0312529
0.0292727
0.0805022
0.123649
0.159788
0.189868
0.214717
0.235058
0.25152
0.264647
0.274908
0.28271
0.288402
0.292283
0.294613
0.295611
0.295465
0.294338
0.292365
0.289664
0.286333
0.282456
0.278105
0.273339
0.268209
0.262757
0.25702
0.251028
0.244807
0.238377
0.231756
0.22496
0.218001
0.21089
0.203635
0.196244
0.188723
0.181076
0.173309
0.165425
0.157426
0.149315
0.141093
0.132763
0.124324
0.115779
0.107127
0.0983694
0.089506
0.080536
0.0714617
0.0622781
0.0529947
0.043591
0.0341085
0.0244592
0.0148244
0.00482474
-10.4157
-10.4745
-10.5328
-10.5886
-10.6389
-10.6794
-10.7049
-10.7091
-10.6849
-10.6253
-10.5235
-10.3736
-10.1712
-9.91337
-9.5998
-9.23232
-8.81516
-8.35467
-7.85897
-7.33737
-6.79971
-6.25577
-5.71465
-5.18444
-4.67187
-4.18233
-3.71979
-3.28697
-2.88547
-2.51593
-2.17825
-1.87169
-1.5951
-1.34697
-1.12558
-0.929041
-0.755423
-0.602761
-0.469124
-0.35264
-0.251527
-0.164106
-0.0888172
-0.0242279
0.0309649
0.0779346
0.117729
0.151275
0.179393
0.202799
0.222123
0.23791
0.250636
0.260715
0.268505
0.274314
0.27841
0.281023
0.282352
0.282567
0.281815
0.280222
0.277894
0.274925
0.271393
0.267366
0.262901
0.258047
0.252847
0.247335
0.241543
0.235497
0.229219
0.222728
0.21604
0.20917
0.202128
0.194926
0.187572
0.180074
0.172437
0.164667
0.156769
0.148746
0.140602
0.13234
0.123961
0.115468
0.106861
0.0981433
0.0893148
0.0803755
0.0713281
0.0621682
0.0529063
0.0435209
0.034057
0.0244211
0.014806
0.00481187
-10.2878
-10.3323
-10.3743
-10.4119
-10.4424
-10.4619
-10.4659
-10.449
-10.4053
-10.329
-10.2145
-10.0569
-9.85261
-9.59937
-9.2969
-8.94682
-8.5527
-8.11992
-7.65533
-7.16684
-6.66291
-6.15206
-5.64235
-5.14106
-4.65443
-4.18756
-3.74433
-3.32753
-2.93893
-2.57943
-2.24921
-1.94785
-1.6745
-1.42794
-1.20672
-1.00922
-0.833735
-0.678494
-0.541742
-0.42176
-0.316893
-0.225573
-0.146329
-0.0778009
-0.0187434
0.0319736
0.075366
0.11234
0.143701
0.170159
0.192339
0.210788
0.225988
0.238357
0.248259
0.256012
0.261894
0.266142
0.268965
0.270543
0.271032
0.270565
0.26926
0.267216
0.26452
0.261247
0.257461
0.253218
0.248566
0.243546
0.238194
0.232541
0.226614
0.220436
0.214026
0.207403
0.200581
0.193573
0.186391
0.179044
0.17154
0.163888
0.156094
0.148162
0.140097
0.131905
0.123587
0.115147
0.106588
0.097911
0.0891183
0.0802104
0.0711908
0.0620552
0.0528154
0.0434489
0.0340039
0.0243821
0.0147867
0.00479908
-10.1583
-10.1892
-10.216
-10.237
-10.2497
-10.2507
-10.2359
-10.2008
-10.1406
-10.0503
-9.92533
-9.76175
-9.55655
-9.30803
-9.01599
-8.68184
-8.30863
-7.90088
-7.46441
-7.00595
-6.53278
-6.05232
-5.57169
-5.09744
-4.63529
-4.19003
-3.76543
-3.36426
-2.98843
-2.63902
-2.31644
-2.02056
-1.75077
-1.50614
-1.28547