/*--------------------------------*- C++ -*----------------------------------*\
  =========                 |
  \\      /  F ield         | OpenFOAM: The Open Source CFD Toolbox
   \\    /   O peration     | Website:  https://openfoam.org
    \\  /    A nd           | Version:  10
     \\/     M anipulation  |
\*---------------------------------------------------------------------------*/
FoamFile
{
    format      ascii;
    class       surfaceScalarField;
    location    "0.02";
    object      phi;
}
// * * * * * * * * * * * * * * * * * * * * * * * * * * * * * * * * * * * * * //

dimensions      [0 3 -1 0 0 0 0];

internalField   nonuniform List<scalar> 
13452
(
6.05787e-05
-3.10267e-07
6.03781e-05
2.00633e-07
5.99159e-05
4.6215e-07
5.93154e-05
6.00547e-07
5.87269e-05
5.88537e-07
5.82106e-05
5.16259e-07
5.77694e-05
4.41176e-07
5.73934e-05
3.76053e-07
5.70713e-05
3.22077e-07
5.67935e-05
2.77835e-07
5.65524e-05
2.41103e-07
5.63425e-05
2.09879e-07
5.61598e-05
1.82641e-07
5.60016e-05
1.5828e-07
5.58656e-05
1.35991e-07
5.57504e-05
1.15195e-07
5.56549e-05
9.54693e-08
5.55784e-05
7.65069e-08
5.55203e-05
5.81022e-08
5.54801e-05
4.02215e-08
5.54572e-05
2.28664e-08
5.54498e-05
7.38839e-09
5.54548e-05
-5.02419e-09
5.54708e-05
-1.59889e-08
5.54982e-05
-2.73696e-08
5.5538e-05
-3.97578e-08
5.55914e-05
-5.34641e-08
5.566e-05
-6.85634e-08
5.57441e-05
-8.41511e-08
5.58506e-05
-1.06465e-07
5.59491e-05
-9.84849e-08
5.61044e-05
-1.55299e-07
-3.32187e-08
5.61376e-05
6.18033e-05
-1.23193e-07
6.17652e-05
2.38735e-07
6.18846e-05
3.42747e-07
6.20512e-05
4.33885e-07
6.21653e-05
4.74488e-07
6.22044e-05
4.77168e-07
6.21831e-05
4.62476e-07
6.21223e-05
4.36824e-07
6.20387e-05
4.0572e-07
6.19435e-05
3.72957e-07
6.18443e-05
3.4031e-07
6.17457e-05
3.08481e-07
6.16507e-05
2.77687e-07
6.15611e-05
2.47904e-07
6.1478e-05
2.18994e-07
6.14025e-05
1.90777e-07
6.13349e-05
1.63068e-07
6.12757e-05
1.35692e-07
6.12253e-05
1.08493e-07
6.11842e-05
8.13599e-08
6.11529e-05
5.41625e-08
6.11334e-05
2.6813e-08
6.11289e-05
-4.71803e-10
6.11408e-05
-2.78723e-08
6.11691e-05
-5.56748e-08
6.12138e-05
-8.45019e-08
6.12751e-05
-1.1475e-07
6.13538e-05
-1.4728e-07
6.14512e-05
-1.8154e-07
6.15682e-05
-2.23461e-07
6.17292e-05
-2.59531e-07
6.19261e-05
-3.52156e-07
-3.90479e-07
6.22834e-05
6.36622e-05
-2.40353e-08
6.37567e-05
1.44258e-07
6.38253e-05
2.74123e-07
6.38857e-05
3.73549e-07
6.39385e-05
4.21643e-07
6.39823e-05
4.33439e-07
6.40173e-05
4.27395e-07
6.40424e-05
4.11763e-07
6.4058e-05
3.90108e-07
6.40661e-05
3.64917e-07
6.40687e-05
3.37639e-07
6.40681e-05
3.09072e-07
6.40661e-05
2.79684e-07
6.40643e-05
2.49723e-07
6.4064e-05
2.19298e-07
6.40664e-05
1.88431e-07
6.40723e-05
1.57091e-07
6.40828e-05
1.25219e-07
6.40986e-05
9.27388e-08
6.41204e-05
5.9567e-08
6.41489e-05
2.56277e-08
6.41849e-05
-9.23664e-09
6.42297e-05
-4.52476e-08
6.42845e-05
-8.26475e-08
6.43504e-05
-1.216e-07
6.44285e-05
-1.62545e-07
6.45195e-05
-2.05829e-07
6.46248e-05
-2.52565e-07
6.47456e-05
-3.0233e-07
6.48832e-05
-3.61062e-07
6.50431e-05
-4.19401e-07
6.52077e-05
-5.16817e-07
-5.83469e-07
6.54007e-05
6.55775e-05
-1.84401e-08
6.55597e-05
1.62077e-07
6.55756e-05
2.58223e-07
6.56251e-05
3.24038e-07
6.56853e-05
3.61399e-07
6.57442e-05
3.74556e-07
6.57981e-05
3.73497e-07
6.58468e-05
3.63022e-07
6.58912e-05
3.45789e-07
6.5932e-05
3.2403e-07
6.59705e-05
2.99158e-07
6.60076e-05
2.71976e-07
6.60443e-05
2.42978e-07
6.60816e-05
2.12466e-07
6.61203e-05
1.80607e-07
6.61612e-05
1.47481e-07
6.62052e-05
1.1311e-07
6.62529e-05
7.74741e-08
6.63052e-05
4.05229e-08
6.63625e-05
2.18764e-09
6.64258e-05
-3.76373e-08
6.64957e-05
-7.9138e-08
6.6573e-05
-1.22552e-07
6.66585e-05
-1.6814e-07
6.67531e-05
-2.16163e-07
6.68576e-05
-2.67083e-07
6.69731e-05
-3.21316e-07
6.71005e-05
-3.79924e-07
6.72411e-05
-4.42955e-07
6.73947e-05
-5.14664e-07
6.75658e-05
-5.90501e-07
6.77413e-05
-6.92361e-07
-7.8346e-07
6.79413e-05
6.74275e-05
1.0847e-08
6.74566e-05
1.32964e-07
6.74922e-05
2.22672e-07
6.75324e-05
2.83787e-07
6.75749e-05
3.18864e-07
6.76192e-05
3.30336e-07
6.76651e-05
3.27533e-07
6.77123e-05
3.15896e-07
6.776e-05
2.98025e-07
6.78083e-05
2.75745e-07
6.78573e-05
2.50194e-07
6.79072e-05
2.22012e-07
6.79586e-05
1.91595e-07
6.80119e-05
1.59186e-07
6.80676e-05
1.2492e-07
6.81262e-05
8.88582e-08
6.81883e-05
5.10088e-08
6.82544e-05
1.13426e-08
6.83252e-05
-3.02009e-08
6.84011e-05
-7.37213e-08
6.84828e-05
-1.19347e-07
6.85709e-05
-1.67271e-07
6.86661e-05
-2.17747e-07
6.8769e-05
-2.71072e-07
6.88804e-05
-3.27563e-07
6.90011e-05
-3.87694e-07
6.91317e-05
-4.51923e-07
6.92729e-05
-5.21199e-07
6.94258e-05
-5.95811e-07
6.95898e-05
-6.78628e-07
6.97666e-05
-7.67304e-07
6.99471e-05
-8.72916e-07
-9.75103e-07
7.01388e-05
6.93784e-05
1.64798e-08
6.93919e-05
1.1949e-07
6.9417e-05
1.97507e-07
6.94528e-05
2.48031e-07
6.94949e-05
2.7671e-07
6.95397e-05
2.85618e-07
6.95858e-05
2.81393e-07
6.96332e-05
2.68498e-07
6.9682e-05
2.49248e-07
6.97324e-05
2.25329e-07
6.97847e-05
1.97853e-07
6.98393e-05
1.67455e-07
6.98964e-05
1.3451e-07
6.99563e-05
9.92356e-08
7.00195e-05
6.17414e-08
7.00863e-05
2.20635e-08
7.01571e-05
-1.98133e-08
7.02324e-05
-6.39439e-08
7.03126e-05
-1.10417e-07
7.03983e-05
-1.59356e-07
7.04898e-05
-2.10922e-07
7.05879e-05
-2.65327e-07
7.0693e-05
-3.22841e-07
7.08057e-05
-3.83778e-07
7.09266e-05
-4.4849e-07
7.10564e-05
-5.17447e-07
7.11956e-05
-5.91128e-07
7.13447e-05
-6.70337e-07
7.15044e-05
-7.55467e-07
7.16741e-05
-8.48322e-07
7.18545e-05
-9.47696e-07
7.20403e-05
-1.05874e-06
-1.17035e-06
7.22355e-05
7.13608e-05
2.19755e-08
7.13767e-05
1.03666e-07
7.14048e-05
1.69377e-07
7.14405e-05
2.12347e-07
7.14806e-05
2.3656e-07
7.1523e-05
2.43228e-07
7.15673e-05
2.37154e-07
7.16135e-05
2.22303e-07
7.16618e-05
2.00947e-07
7.17124e-05
1.74692e-07
7.17656e-05
1.44613e-07
7.18217e-05
1.11336e-07
7.1881e-05
7.5228e-08
7.19438e-05
3.6495e-08
7.20103e-05
-4.76866e-09
7.20809e-05
-4.8545e-08
7.21559e-05
-9.48698e-08
7.22358e-05
-1.43821e-07
7.23209e-05
-1.95512e-07
7.24117e-05
-2.50092e-07
7.25085e-05
-3.07748e-07
7.26119e-05
-3.68713e-07
7.27223e-05
-4.33272e-07
7.28403e-05
-5.01753e-07
7.29663e-05
-5.74524e-07
7.31009e-05
-6.52043e-07
7.32446e-05
-7.3478e-07
7.33976e-05
-8.23404e-07
7.35605e-05
-9.18322e-07
7.37328e-05
-1.02063e-06
7.39148e-05
-1.12972e-06
7.41038e-05
-1.24776e-06
-1.36875e-06
7.43022e-05
7.34049e-05
2.23713e-08
7.34198e-05
8.87884e-08
7.34455e-05
1.43675e-07
7.34786e-05
1.79159e-07
7.35172e-05
1.98054e-07
7.35588e-05
2.01542e-07
7.36029e-05
1.93135e-07
7.3649e-05
1.76115e-07
7.36975e-05
1.52508e-07
7.37484e-05
1.2376e-07
7.38021e-05
9.08799e-08
7.3859e-05
5.44899e-08
7.39193e-05
1.49595e-08
7.39833e-05
-2.75034e-08
7.40513e-05
-7.28063e-08
7.41237e-05
-1.20938e-07
7.42008e-05
-1.71946e-07
7.42829e-05
-2.25923e-07
7.43704e-05
-2.83001e-07
7.44636e-05
-3.43348e-07
7.4563e-05
-4.07171e-07
7.4669e-05
-4.7472e-07
7.47821e-05
-5.46286e-07
7.49025e-05
-6.22206e-07
7.50308e-05
-7.02852e-07
7.51675e-05
-7.8866e-07
7.53128e-05
-8.80078e-07
7.5467e-05
-9.77662e-07
7.56305e-05
-1.0818e-06
7.5803e-05
-1.19318e-06
7.59848e-05
-1.31151e-06
7.61747e-05
-1.43768e-06
-1.56851e-06
7.63745e-05
7.55037e-05
2.11143e-08
7.5518e-05
7.4526e-08
7.55427e-05
1.18931e-07
7.55748e-05
1.47081e-07
7.56122e-05
1.60681e-07
7.5653e-05
1.60715e-07
7.56965e-05
1.49682e-07
7.57424e-05
1.30227e-07
7.57907e-05
1.04139e-07
7.58418e-05
7.27199e-08
7.58957e-05
3.69011e-08
7.5953e-05
-2.72029e-09
7.60137e-05
-4.57827e-08
7.60783e-05
-9.20814e-08
7.6147e-05
-1.41526e-07
7.62202e-05
-1.9411e-07
7.62981e-05
-2.49885e-07
7.63811e-05
-3.08956e-07
7.64696e-05
-3.71464e-07
7.65638e-05
-4.3759e-07
7.66642e-05
-5.07554e-07
7.67711e-05
-5.81612e-07
7.68849e-05
-6.6006e-07
7.70059e-05
-7.43234e-07
7.71346e-05
-8.31498e-07
7.72712e-05
-9.25264e-07
7.7416e-05
-1.02495e-06
7.75694e-05
-1.13103e-06
7.77315e-05
-1.24387e-06
7.79022e-05
-1.36393e-06
7.80819e-05
-1.49115e-06
7.82701e-05
-1.62593e-06
-1.76673e-06
7.84683e-05
7.76622e-05
1.8509e-08
7.7676e-05
6.0693e-08
7.76995e-05
9.54031e-08
7.77301e-05
1.16485e-07
7.77661e-05
1.24718e-07
7.78059e-05
1.20901e-07
7.78488e-05
1.06847e-07
7.78943e-05
8.46597e-08
7.79426e-05
5.58841e-08
7.79936e-05
2.16583e-08
7.80477e-05
-1.71826e-08
7.81051e-05
-6.00859e-08
7.8166e-05
-1.0671e-07
7.82308e-05
-1.56859e-07
7.82997e-05
-2.10447e-07
7.83731e-05
-2.67473e-07
7.84512e-05
-3.27992e-07
7.85343e-05
-3.92114e-07
7.86229e-05
-4.59988e-07
7.87171e-05
-5.318e-07
7.88173e-05
-6.07774e-07
7.89238e-05
-6.88168e-07
7.90371e-05
-7.73276e-07
7.91573e-05
-8.63422e-07
7.92847e-05
-9.58961e-07
7.94197e-05
-1.06027e-06
7.95625e-05
-1.16775e-06
7.97133e-05
-1.2818e-06
7.98722e-05
-1.40277e-06
8.00393e-05
-1.53102e-06
8.02148e-05
-1.66665e-06
8.03988e-05
-1.80996e-06
-1.96029e-06
8.05924e-05
7.98816e-05
1.51986e-08
7.9895e-05
4.7363e-08
7.99173e-05
7.30238e-08
7.99466e-05
8.71941e-08
7.99813e-05
9.00195e-08
8.00201e-05
8.21068e-08
8.00622e-05
6.476e-08
8.01072e-05
3.96164e-08
8.01552e-05
7.97547e-09
8.0206e-05
-2.91813e-08
8.02599e-05
-7.11191e-08
8.03172e-05
-1.17338e-07
8.0378e-05
-1.67522e-07
8.04426e-05
-2.21494e-07
8.05114e-05
-2.79176e-07
8.05845e-05
-3.40569e-07
8.06622e-05
-4.05737e-07
8.07449e-05
-4.7479e-07
8.08328e-05
-5.47881e-07
8.09262e-05
-6.25197e-07
8.10254e-05
-7.06961e-07
8.11306e-05
-7.93426e-07
8.12422e-05
-8.84877e-07
8.13604e-05
-9.81623e-07
8.14855e-05
-1.084e-06
8.16175e-05
-1.19236e-06
8.17568e-05
-1.30705e-06
8.19035e-05
-1.42846e-06
8.20576e-05
-1.55689e-06
8.22193e-05
-1.69269e-06
8.23887e-05
-1.83605e-06
8.2566e-05
-1.98727e-06
-2.14621e-06
8.27519e-05
8.21641e-05
1.15176e-08
8.2177e-05
3.45037e-08
8.21983e-05
5.17076e-08
8.22263e-05
5.91627e-08
8.22598e-05
5.66019e-08
8.22974e-05
4.44276e-08
8.23386e-05
2.35669e-08
8.2383e-05
-4.72736e-09
8.24303e-05
-3.93842e-08
8.24807e-05
-7.95717e-08
8.25343e-05
-1.24657e-07
8.25911e-05
-1.74197e-07
8.26515e-05
-2.27913e-07
8.27157e-05
-2.85645e-07
8.27838e-05
-3.47328e-07
8.28562e-05
-4.12969e-07
8.29331e-05
-4.82635e-07
8.30148e-05
-5.56438e-07
8.31014e-05
-6.3453e-07
8.31933e-05
-7.17096e-07
8.32907e-05
-8.04353e-07
8.33938e-05
-8.96543e-07
8.35029e-05
-9.93936e-07
8.36181e-05
-1.09682e-06
8.37396e-05
-1.20551e-06
8.38676e-05
-1.32033e-06
8.40021e-05
-1.44159e-06
8.41433e-05
-1.56963e-06
8.42911e-05
-1.70475e-06
8.44457e-05
-1.84727e-06
8.46071e-05
-1.99744e-06
8.47754e-05
-2.1556e-06
-2.3218e-06
8.4951e-05
8.45116e-05
7.68879e-09
8.4524e-05
2.21321e-08
8.45443e-05
3.14037e-08
8.45711e-05
3.23441e-08
8.46033e-05
2.44399e-08
8.46398e-05
7.90311e-09
8.468e-05
-1.66258e-08
8.47235e-05
-4.82094e-08
8.47701e-05
-8.59875e-08
8.48198e-05
-1.2927e-07
8.48726e-05
-1.77522e-07
8.49288e-05
-2.30364e-07
8.49884e-05
-2.87553e-07
8.50517e-05
-3.4895e-07
8.51189e-05
-4.14505e-07
8.51902e-05
-4.84232e-07
8.52657e-05
-5.58199e-07
8.53458e-05
-6.3652e-07
8.54306e-05
-7.19341e-07
8.55204e-05
-8.06841e-07
8.56153e-05
-8.99226e-07
8.57154e-05
-9.96725e-07
8.58211e-05
-1.09959e-06
8.59323e-05
-1.20808e-06
8.60493e-05
-1.32248e-06
8.6172e-05
-1.44307e-06
8.63006e-05
-1.57015e-06
8.6435e-05
-1.70401e-06
8.65752e-05
-1.84493e-06
8.67211e-05
-1.99318e-06
8.68727e-05
-2.14905e-06
8.703e-05
-2.31288e-06
-2.48477e-06
8.71929e-05
8.6926e-05
3.84822e-09
8.69379e-05
1.02573e-08
8.69572e-05
1.20608e-08
8.69829e-05
6.70088e-09
8.70138e-05
-6.47005e-09
8.70491e-05
-2.74089e-08
8.70882e-05
-5.57005e-08
8.71306e-05
-9.06642e-08
8.71763e-05
-1.31628e-07
8.7225e-05
-1.78034e-07
8.72769e-05
-2.29442e-07
8.73321e-05
-2.85533e-07
8.73907e-05
-3.46102e-07
8.74527e-05
-4.11037e-07
8.75185e-05
-4.80298e-07
8.75882e-05
-5.53907e-07
8.7662e-05
-6.31935e-07
8.77399e-05
-7.14491e-07
8.78223e-05
-8.01715e-07
8.79092e-05
-8.93776e-07
8.80009e-05
-9.90865e-07
8.80973e-05
-1.09319e-06
8.81987e-05
-1.20098e-06
8.83051e-05
-1.31447e-06
8.84166e-05
-1.4339e-06
8.8533e-05
-1.55953e-06
8.86545e-05
-1.6916e-06
8.87808e-05
-1.83037e-06
8.8912e-05
-1.97607e-06
8.90477e-05
-2.12896e-06
8.9188e-05
-2.28928e-06
8.93324e-05
-2.45733e-06
-2.63319e-06
8.94808e-05
8.94093e-05
7.9089e-11
8.94207e-05
-1.10878e-09
8.94391e-05
-6.35472e-09
8.94636e-05
-1.77872e-08
8.94932e-05
-3.61192e-08
8.95273e-05
-6.14498e-08
8.95651e-05
-9.35441e-08
8.96064e-05
-1.3193e-07
8.96508e-05
-1.76102e-07
8.96984e-05
-2.25621e-07
8.97491e-05
-2.80135e-07
8.9803e-05
-3.39388e-07
8.98601e-05
-4.03211e-07
8.99206e-05
-4.71517e-07
8.99846e-05
-5.4428e-07
9.00522e-05
-6.21527e-07
9.01236e-05
-7.0333e-07
9.01989e-05
-7.89792e-07
9.02782e-05
-8.81044e-07
9.03617e-05
-9.7724e-07
9.04494e-05
-1.07855e-06
9.05413e-05
-1.18517e-06
9.06376e-05
-1.29728e-06
9.07383e-05
-1.4151e-06
9.08432e-05
-1.53883e-06
9.09523e-05
-1.66868e-06
9.10656e-05
-1.80484e-06
9.11827e-05
-1.94753e-06
9.13036e-05
-2.09694e-06
9.14279e-05
-2.25326e-06
9.15553e-05
-2.41668e-06
9.16854e-05
-2.58744e-06
-2.76552e-06
9.18177e-05
9.19635e-05
-3.57184e-09
9.19744e-05
-1.19522e-08
9.19919e-05
-2.3864e-08
9.20152e-05
-4.11283e-08
9.20436e-05
-6.44862e-08
9.20763e-05
-9.4152e-08
9.21128e-05
-1.30037e-07
9.21527e-05
-1.71839e-07
9.21958e-05
-2.19196e-07
9.22419e-05
-2.71778e-07
9.22911e-05
-3.29313e-07
9.23433e-05
-3.91603e-07
9.23986e-05
-4.58517e-07
9.24571e-05
-5.2999e-07
9.25188e-05
-6.06011e-07
9.25839e-05
-6.86611e-07
9.26524e-05
-7.71859e-07
9.27245e-05
-8.61851e-07
9.28002e-05
-9.56706e-07
9.28795e-05
-1.05656e-06
9.29625e-05
-1.16157e-06
9.30492e-05
-1.27188e-06
9.31396e-05
-1.38767e-06
9.32336e-05
-1.50909e-06
9.33311e-05
-1.63632e-06
9.34319e-05
-1.76951e-06
9.35359e-05
-1.90883e-06
9.36428e-05
-2.0544e-06
9.37522e-05
-2.20637e-06
9.38638e-05
-2.36487e-06
9.39771e-05
-2.53001e-06
9.40916e-05
-2.70194e-06
-2.88053e-06
9.42066e-05
9.45907e-05
-7.07119e-09
9.4601e-05
-2.22638e-08
9.46176e-05
-4.04763e-08
9.46398e-05
-6.33177e-08
9.46668e-05
-9.15367e-08
9.46981e-05
-1.25439e-07
9.47331e-05
-1.65055e-07
9.47715e-05
-2.1022e-07
9.4813e-05
-2.60695e-07
9.48575e-05
-3.16247e-07
9.49048e-05
-3.76679e-07
9.49551e-05
-4.41843e-07
9.50082e-05
-5.11646e-07
9.50643e-05
-5.86044e-07
9.51233e-05
-6.65038e-07
9.51853e-05
-7.48662e-07
9.52505e-05
-8.36983e-07
9.53187e-05
-9.30085e-07
9.53901e-05
-1.02807e-06
9.54646e-05
-1.13106e-06
9.55422e-05
-1.23918e-06
9.56229e-05
-1.35255e-06
9.57065e-05
-1.47131e-06
9.5793e-05
-1.59557e-06
9.58821e-05
-1.72546e-06
9.59737e-05
-1.86109e-06
9.60674e-05
-2.00256e-06
9.6163e-05
-2.14994e-06
9.62599e-05
-2.30332e-06
9.63578e-05
-2.46273e-06
9.6456e-05
-2.62822e-06
9.65539e-05
-2.79982e-06
-2.9773e-06
9.66507e-05
9.72928e-05
-1.04004e-08
9.73026e-05
-3.20312e-08
9.73183e-05
-5.61897e-08
9.73393e-05
-8.43385e-08
9.7365e-05
-1.17225e-07
9.73948e-05
-1.55225e-07
9.74282e-05
-1.98465e-07
9.74649e-05
-2.46894e-07
9.75046e-05
-3.00377e-07
9.75471e-05
-3.58764e-07
9.75924e-05
-4.21926e-07
9.76403e-05
-4.89762e-07
9.76908e-05
-5.62212e-07
9.7744e-05
-6.39253e-07
9.77999e-05
-7.20895e-07
9.78584e-05
-8.07175e-07
9.79196e-05
-8.98152e-07
9.79834e-05
-9.93902e-07
9.80498e-05
-1.09451e-06
9.81188e-05
-1.20007e-06
9.81903e-05
-1.31068e-06
9.82642e-05
-1.42643e-06
9.83403e-05
-1.54741e-06
9.84185e-05
-1.67371e-06
9.84984e-05
-1.80539e-06
9.85798e-05
-1.94252e-06
9.86624e-05
-2.08513e-06
9.87457e-05
-2.23324e-06
9.88292e-05
-2.38685e-06
9.89124e-05
-2.54593e-06
9.89946e-05
-2.71044e-06
9.90751e-05
-2.8803e-06
-3.05518e-06
9.9153e-05
0.000100072
-1.35472e-08
0.000100081
-4.12403e-08
0.000100096
-7.09922e-08
0.000100116
-1.04163e-07
0.00010014
-1.41493e-07
0.000100169
-1.83414e-07
0.0001002
-2.3013e-07
0.000100235
-2.81679e-07
0.000100273
-3.38014e-07
0.000100313
-3.99059e-07
0.000100356
-4.64743e-07
0.000100401
-5.35008e-07
0.000100449
-6.09824e-07
0.000100499
-6.89185e-07
0.000100551
-7.73111e-07
0.000100605
-8.61637e-07
0.000100662
-9.54815e-07
0.000100721
-1.05271e-06
0.000100782
-1.15538e-06
0.000100844
-1.26291e-06
0.000100909
-1.37534e-06
0.000100975
-1.49276e-06
0.000101043
-1.6152e-06
0.000101112
-1.7427e-06
0.000101182
-1.87528e-06
0.000101252
-2.01295e-06
0.000101323
-2.15569e-06
0.000101393
-2.30345e-06
0.000101463
-2.45616e-06
0.00010153
-2.61371e-06
0.000101596
-2.77598e-06
0.000101658
-2.94279e-06
-3.11373e-06
0.000101717
0.000102931
-1.65023e-08
0.00010294
-4.98752e-08
0.000102954
-8.48635e-08
0.000102972
-1.22752e-07
0.000102995
-1.64276e-07
0.000103021
-2.09904e-07
0.000103051
-2.59903e-07
0.000103084
-3.14385e-07
0.000103119
-3.73374e-07
0.000103157
-4.36858e-07
0.000103197
-5.04815e-07
0.000103239
-5.77225e-07
0.000103284
-6.54085e-07
0.00010333
-7.35405e-07
0.000103378
-8.21209e-07
0.000103428
-9.11532e-07
0.000103479
-1.00642e-06
0.000103533
-1.10591e-06
0.000103587
-1.21007e-06
0.000103643
-1.31891e-06
0.0001037
-1.43249e-06
0.000103759
-1.55083e-06
0.000103817
-1.67393e-06
0.000103876
-1.80179e-06
0.000103935
-1.93438e-06
0.000103994
-2.07164e-06
0.000104052
-2.21351e-06
0.000104108
-2.35987e-06
0.000104163
-2.51058e-06
0.000104215
-2.66547e-06
0.000104263
-2.82433e-06
0.000104307
-2.98692e-06
-3.15274e-06
0.000104346
0.000105871
-1.92576e-08
0.00010588
-5.79176e-08
0.000105892
-9.7776e-08
0.00010591
-1.40061e-07
0.000105931
-1.85499e-07
0.000105956
-2.34586e-07
0.000105983
-2.87637e-07
0.000106014
-3.44822e-07
0.000106047
-4.06225e-07
0.000106082
-4.71886e-07
0.000106119
-5.41825e-07
0.000106158
-6.16057e-07
0.000106198
-6.946e-07
0.00010624
-7.77477e-07
0.000106284
-8.64717e-07
0.000106328
-9.56354e-07
0.000106374
-1.05242e-06
0.000106421
-1.15294e-06
0.000106469
-1.25795e-06
0.000106518
-1.36746e-06
0.000106567
-1.48147e-06
0.000106616
-1.59997e-06
0.000106665
-1.72293e-06
0.000106714
-1.85029e-06
0.000106761
-1.98199e-06
0.000106807
-2.11791e-06
0.000106852
-2.25793e-06
0.000106894
-2.40189e-06
0.000106933
-2.54957e-06
0.000106968
-2.70076e-06
0.000106999
-2.85516e-06
0.000107025
-3.01247e-06
-3.17215e-06
0.000107044
0.000108896
-2.18052e-08
0.000108903
-6.53463e-08
0.000108915
-1.09696e-07
0.000108931
-1.56035e-07
0.000108951
-2.05081e-07
0.000108974
-2.57346e-07
0.000108999
-3.1318e-07
0.000109027
-3.72799e-07
0.000109057
-4.36334e-07
0.000109089
-5.03869e-07
0.000109123
-5.75459e-07
0.000109158
-6.5115e-07
0.000109194
-7.30976e-07
0.000109232
-8.14973e-07
0.00010927
-9.03173e-07
0.00010931
-9.95604e-07
0.000109349
-1.09229e-06
0.00010939
-1.19324e-06
0.00010943
-1.29846e-06
0.000109471
-1.40794e-06
0.000109511
-1.52165e-06
0.00010955
-1.63955e-06
0.000109589
-1.76156e-06
0.000109626
-1.88759e-06
0.000109662
-2.01751e-06
0.000109695
-2.15119e-06
0.000109726
-2.28844e-06
0.000109753
-2.42904e-06
0.000109776
-2.57274e-06
0.000109794
-2.71926e-06
0.000109808
-2.86826e-06
0.000109815
-3.0194e-06
-3.17209e-06
0.000109814
0.000112007
-2.4137e-08
0.000112014
-7.21383e-08
0.000112025
-1.20585e-07
0.000112039
-1.70618e-07
0.000112057
-2.22939e-07
0.000112078
-2.7807e-07
0.000112101
-3.36383e-07
0.000112126
-3.98128e-07
0.000112153
-4.63474e-07
0.000112182
-5.3254e-07
0.000112212
-6.05413e-07
0.000112243
-6.82159e-07
0.000112275
-7.62834e-07
0.000112307
-8.47478e-07
0.00011234
-9.36128e-07
0.000112373
-1.0288e-06
0.000112407
-1.12552e-06
0.00011244
-1.22627e-06
0.000112472
-1.33105e-06
0.000112504
-1.4398e-06
0.000112535
-1.55248e-06
0.000112564
-1.669e-06
0.000112592
-1.78926e-06
0.000112618
-1.91312e-06
0.000112641
-2.04043e-06
0.00011266
-2.17099e-06
0.000112677
-2.30459e-06
0.000112688
-2.44096e-06
0.000112696
-2.57981e-06
0.000112697
-2.72081e-06
0.000112692
-2.86361e-06
0.000112681
-3.00779e-06
-3.1528e-06
0.000112662
0.000115207
-2.62435e-08
0.000115213
-7.82663e-08
0.000115223
-1.30398e-07
0.000115236
-1.83743e-07
0.000115252
-2.38984e-07
0.00011527
-2.96638e-07
0.000115291
-3.57094e-07
0.000115313
-4.20623e-07
0.000115337
-4.87424e-07
0.000115363
-5.57643e-07
0.000115388
-6.31392e-07
0.000115415
-7.08759e-07
0.000115442
-7.89812e-07
0.000115469
-8.746e-07
0.000115496
-9.63159e-07
0.000115523
-1.05551e-06
0.000115549
-1.15165e-06
0.000115574
-1.25156e-06
0.000115598
-1.3552e-06
0.000115621
-1.46252e-06
0.000115642
-1.57343e-06
0.000115661
-1.68781e-06
0.000115677
-1.80554e-06
0.000115691
-1.92644e-06
0.0001157
-2.05032e-06
0.000115706
-2.17695e-06
0.000115708
-2.30608e-06
0.000115704
-2.43742e-06
0.000115695
-2.57064e-06
0.00011568
-2.70539e-06
0.000115657
-2.84127e-06
0.000115628
-2.97787e-06
-3.11463e-06
0.000115589
0.000118498
-2.81163e-08
0.000118503
-8.37046e-08
0.000118512
-1.39096e-07
0.000118523
-1.95355e-07
0.000118538
-2.53139e-07
0.000118554
-3.12951e-07
0.000118572
-3.75181e-07
0.000118592
-4.40118e-07
0.000118612
-5.07979e-07
0.000118633
-5.78934e-07
0.000118655
-6.53118e-07
0.000118677
-7.30635e-07
0.000118699
-8.11563e-07
0.00011872
-8.95961e-07
0.000118741
-9.83865e-07
0.000118761
-1.07529e-06
0.000118779
-1.17022e-06
0.000118796
-1.26864e-06
0.000118812
-1.37047e-06
0.000118825
-1.47565e-06
0.000118835
-1.58406e-06
0.000118843
-1.69556e-06
0.000118847
-1.81e-06
0.000118848
-1.92717e-06
0.000118845
-2.04685e-06
0.000118837
-2.1688e-06
0.000118823
-2.29272e-06
0.000118804
-2.41831e-06
0.000118779
-2.54521e-06
0.000118746
-2.67305e-06
0.000118707
-2.80144e-06
0.000118659
-2.92996e-06
-3.05804e-06
0.000118602
0.000121883
-2.97389e-08
0.000121888
-8.84091e-08
0.000121895
-1.46609e-07
0.000121905
-2.05367e-07
0.000121917
-2.653e-07
0.000121931
-3.26887e-07
0.000121947
-3.90508e-07
0.000121963
-4.56455e-07
0.00012198
-5.2496e-07
0.000121997
-5.9621e-07
0.000122014
-6.70358e-07
0.000122031
-7.47524e-07
0.000122048
-8.27799e-07
0.000122063
-9.11248e-07
0.000122077
-9.97908e-07
0.000122089
-1.08779e-06
0.0001221
-1.18088e-06
0.000122109
-1.27713e-06
0.000122115
-1.37647e-06
0.000122118
-1.4788e-06
0.000122118
-1.584e-06
0.000122114
-1.6919e-06
0.000122106
-1.80231e-06
0.000122094
-1.91503e-06
0.000122077
-2.02981e-06
0.000122055
-2.14637e-06
0.000122026
-2.26441e-06
0.000121992
-2.3836e-06
0.00012195
-2.50359e-06
0.000121901
-2.624e-06
0.000121844
-2.74443e-06
0.000121778
-2.86446e-06
-2.98357e-06
0.000121704
0.000125365
-3.11165e-08
0.000125369
-9.23775e-08
0.000125375
-1.52937e-07
0.000125384
-2.13775e-07
0.000125394
-2.75447e-07
0.000125405
-3.38392e-07
0.000125418
-4.02976e-07
0.000125431
-4.69492e-07
0.000125444
-5.3818e-07
0.000125457
-6.09243e-07
0.000125469
-6.82851e-07
0.000125481
-7.59138e-07
0.000125491
-8.38206e-07
0.0001255
-9.20128e-07
0.000125507
-1.00494e-06
0.000125512
-1.09266e-06
0.000125515
-1.18326e-06
0.000125514
-1.27669e-06
0.000125511
-1.37286e-06
0.000125503
-1.47166e-06
0.000125492
-1.57295e-06
0.000125477
-1.67655e-06
0.000125457
-1.78227e-06
0.000125432
-1.88985e-06
0.000125401
-1.99906e-06
0.000125364
-2.1096e-06
0.000125321
-2.22116e-06
0.000125271
-2.33341e-06
0.000125213
-2.44599e-06
0.000125148
-2.55852e-06
0.000125074
-2.67061e-06
0.000124991
-2.78187e-06
-2.8918e-06
0.0001249
0.000128946
-3.21673e-08
0.000128949
-9.54493e-08
0.000128954
-1.57875e-07
0.000128961
-2.20376e-07
0.000128969
-2.83414e-07
0.000128978
-3.47354e-07
0.000128987
-4.1252e-07
0.000128997
-4.79189e-07
0.000129006
-5.47607e-07
0.000129015
-6.17992e-07
0.000129023
-6.90532e-07
0.000129029
-7.65381e-07
0.000129033
-8.42656e-07
0.000129036
-9.22441e-07
0.000129036
-1.00478e-06
0.000129033
-1.08969e-06
0.000129027
-1.17714e-06
0.000129017
-1.26707e-06
0.000129003
-1.3594e-06
0.000128986
-1.454e-06
0.000128964
-1.55071e-06
0.000128936
-1.64935e-06
0.000128904
-1.74971e-06
0.000128865
-1.85154e-06
0.000128821
-1.95458e-06
0.00012877
-2.05853e-06
0.000128712
-2.16309e-06
0.000128646
-2.26792e-06
0.000128573
-2.37267e-06
0.000128491
-2.47697e-06
0.000128401
-2.58046e-06
0.000128302
-2.68274e-06
-2.78338e-06
0.000128194
0.00013263
-3.30787e-08
0.000132632
-9.78822e-08
0.000132636
-1.61711e-07
0.000132641
-2.25405e-07
0.000132647
-2.89311e-07
0.000132654
-3.53734e-07
0.00013266
-4.1897e-07
0.000132666
-4.85281e-07
0.000132671
-5.52914e-07
0.000132676
-6.22098e-07
0.000132678
-6.93033e-07
0.000132679
-7.6589e-07
0.000132677
-8.408e-07
0.000132672
-9.17856e-07
0.000132664
-9.97115e-07
0.000132653
-1.07859e-06
0.000132638
-1.16226e-06
0.000132619
-1.24806e-06
0.000132596
-1.3359e-06
0.000132568
-1.42565e-06
0.000132534
-1.51716e-06
0.000132495
-1.61022e-06
0.00013245
-1.70462e-06
0.000132398
-1.80012e-06
0.00013234
-1.89645e-06
0.000132275
-1.99332e-06
0.000132202
-2.09042e-06
0.000132122
-2.18743e-06
0.000132033
-2.28401e-06
0.000131936
-2.37982e-06
0.00013183
-2.4745e-06
0.000131715
-2.5677e-06
-2.65901e-06
0.000131591
0.000136418
-3.31324e-08
0.000136419
-9.86762e-08
0.000136421
-1.63507e-07
0.000136424
-2.28275e-07
0.000136427
-2.92988e-07
0.000136431
-3.57753e-07
0.000136435
-4.22786e-07
0.000136438
-4.88338e-07
0.00013644
-5.54682e-07
0.00013644
-6.22086e-07
0.000136438
-6.90791e-07
0.000136433
-7.60998e-07
0.000136425
-8.32868e-07
0.000136414
-9.06513e-07
0.000136399
-9.82003e-07
0.000136379
-1.05936e-06
0.000136356
-1.13857e-06
0.000136327
-1.21957e-06
0.000136294
-1.30228e-06
0.000136254
-1.38655e-06
0.00013621
-1.47222e-06
0.000136158
-1.55912e-06
0.000136101
-1.64701e-06
0.000136036
-1.73565e-06
0.000135965
-1.82479e-06
0.000135885
-1.91414e-06
0.000135798
-2.0034e-06
0.000135703
-2.09227e-06
0.0001356
-2.18042e-06
0.000135487
-2.26753e-06
0.000135366
-2.35329e-06
0.000135236
-2.43735e-06
-2.51938e-06
0.000135096
0.000140317
-3.43054e-08
0.000140318
-9.99105e-08
0.000140319
-1.64826e-07
0.000140321
-2.29597e-07
0.000140322
-2.94147e-07
0.000140323
-3.58489e-07
0.000140323
-4.22728e-07
0.000140321
-4.87036e-07
0.000140318
-5.51652e-07
0.000140313
-6.16845e-07
0.000140305
-6.8287e-07
0.000140294
-7.49953e-07
0.00014028
-8.18279e-07
0.000140261
-8.87981e-07
0.000140238
-9.59147e-07
0.000140211
-1.03182e-06
0.000140178
-1.10598e-06
0.00014014
-1.1816e-06
0.000140096
-1.25857e-06
0.000140047
-1.33679e-06
0.00013999
-1.41608e-06
0.000139928
-1.49626e-06
0.000139858
-1.57714e-06
0.000139781
-1.65846e-06
0.000139696
-1.73998e-06
0.000139603
-1.82142e-06
0.000139502
-1.90252e-06
0.000139393
-1.98297e-06
0.000139275
-2.06249e-06
0.000139148
-2.14077e-06
0.000139012
-2.21752e-06
0.000138867
-2.29246e-06
-2.36526e-06
0.000138713
0.000144321
-3.07301e-08
0.000144317
-9.60715e-08
0.000144315
-1.62468e-07
0.000144314
-2.29103e-07
0.000144315
-2.94669e-07
0.000144315
-3.58933e-07
0.000144315
-4.22096e-07
0.000144312
-4.84501e-07
0.000144307
-5.46535e-07
0.000144299
-6.08578e-07
0.000144287
-6.70969e-07
0.000144271
-7.33994e-07
0.00014425
-7.97878e-07
0.000144225
-8.62787e-07
0.000144195
-9.28826e-07
0.000144159
-9.96049e-07
0.000144118
-1.06446e-06
0.00014407
-1.13401e-06
0.000144016
-1.20463e-06
0.000143956
-1.2762e-06
0.000143888
-1.34856e-06
0.000143813
-1.42154e-06
0.000143731
-1.49493e-06
0.000143641
-1.56852e-06
0.000143543
-1.64206e-06
0.000143437
-1.71531e-06
0.000143323
-1.78799e-06
0.0001432
-1.85985e-06
0.000143068
-1.9306e-06
0.000142927
-2e-06
0.000142777
-2.06776e-06
0.000142618
-2.13363e-06
-2.19735e-06
0.00014245
0.000148454
-3.64261e-08
0.000148455
-9.69744e-08
0.000148452
-1.59985e-07
0.000148447
-2.24337e-07
0.000148441
-2.88825e-07
0.000148435
-3.52386e-07
0.000148427
-4.14522e-07
0.000148418
-4.75279e-07
0.000148407
-5.34976e-07
0.000148392
-5.94012e-07
0.000148374
-6.52778e-07
0.000148351
-7.1162e-07
0.000148324
-7.7082e-07
0.000148292
-8.30593e-07
0.000148254
-8.91088e-07
0.000148211
-9.52394e-07
0.000148161
-1.01454e-06
0.000148104
-1.07752e-06
0.000148041
-1.14125e-06
0.00014797
-1.20565e-06
0.000147892
-1.27058e-06
0.000147807
-1.33588e-06
0.000147713
-1.40137e-06
0.000147612
-1.46683e-06
0.000147502
-1.53205e-06
0.000147383
-1.5968e-06
0.000147256
-1.66083e-06
0.00014712
-1.72391e-06
0.000146975
-1.7858e-06
0.000146821
-1.84625e-06
0.000146659
-1.90502e-06
0.000146487
-1.96191e-06
-2.01668e-06
0.000146306
0.000152672
-1.96436e-08
0.000152659
-8.33465e-08
0.000152653
-1.5442e-07
0.000152653
-2.24612e-07
0.000152655
-2.90851e-07
0.000152656
-3.53193e-07
0.000152654
-4.12413e-07
0.000152648
-4.69255e-07
0.000152638
-5.24366e-07
0.000152622
-5.78331e-07
0.000152601
-6.31658e-07
0.000152574
-6.84757e-07
0.000152541
-7.37946e-07
0.000152502
-7.91455e-07
0.000152456
-8.45444e-07
0.000152404
-9.00006e-07
0.000152344
-9.55179e-07
0.000152278
-1.01095e-06
0.000152204
-1.06727e-06
0.000152122
-1.12404e-06
0.000152033
-1.18114e-06
0.000151935
-1.23842e-06
0.00015183
-1.29572e-06
0.000151716
-1.35283e-06
0.000151593
-1.40957e-06
0.000151462
-1.46571e-06
0.000151322
-1.52105e-06
0.000151174
-1.57536e-06
0.000151016
-1.62843e-06
0.00015085
-1.68004e-06
0.000150675
-1.73e-06
0.000150491
-1.77811e-06
-1.82418e-06
0.000150299
0.000157068
-3.60368e-08
0.000157061
-7.63549e-08
0.000157043
-1.36292e-07
0.000157022
-2.03986e-07
0.000157004
-2.7284e-07
0.000156989
-3.37826e-07
0.000156974
-3.97889e-07
0.000156959
-4.53794e-07
0.000156941
-5.06511e-07
0.000156919
-5.56897e-07
0.000156893
-6.05688e-07
0.000156862
-6.53484e-07
0.000156825
-7.00756e-07
0.000156781
-7.47849e-07
0.000156731
-7.9501e-07
0.000156673
-8.424e-07
0.000156608
-8.90106e-07
0.000156536
-9.38157e-07
0.000156455
-9.86533e-07
0.000156366
-1.03517e-06
0.000156269
-1.08397e-06
0.000156163
-1.1328e-06
0.000156049
-1.18153e-06
0.000155926
-1.22998e-06
0.000155794
-1.27797e-06
0.000155654
-1.32531e-06
0.000155505
-1.37182e-06
0.000155347
-1.4173e-06
0.00015518
-1.46156e-06
0.000155004
-1.50442e-06
0.00015482
-1.54571e-06
0.000154627
-1.58525e-06
-1.6229e-06
0.000154426
0.000161474
2.8555e-08
0.000161457
-5.99086e-08
0.000161468
-1.47246e-07
0.000161486
-2.22007e-07
0.0001615
-2.86464e-07
0.000161505
-3.43334e-07
0.000161503
-3.95355e-07
0.000161493
-4.43517e-07
0.000161475
-4.88708e-07
0.00016145
-5.31789e-07
0.000161418
-5.73442e-07
0.000161378
-6.14186e-07
0.000161332
-6.54409e-07
0.000161278
-6.94399e-07
0.000161218
-7.34359e-07
0.00016115
-7.74424e-07
0.000161074
-8.14665e-07
0.000160991
-8.55108e-07
0.000160901
-8.95734e-07
0.000160802
-9.36489e-07
0.000160695
-9.77288e-07
0.00016058
-1.01802e-06
0.000160457
-1.05856e-06
0.000160326
-1.09876e-06
0.000160187
-1.13846e-06
0.000160039
-1.17749e-06
0.000159883
-1.21568e-06
0.000159718
-1.25287e-06
0.000159546
-1.28888e-06
0.000159365
-1.32355e-06
0.000159176
-1.35673e-06
0.000158979
-1.38828e-06
-1.41807e-06
0.000158774
0.000166183
-5.57034e-10
0.000166103
2.00021e-08
0.00016601
-5.45881e-08