/*--------------------------------*- C++ -*----------------------------------*\
  =========                 |
  \\      /  F ield         | OpenFOAM: The Open Source CFD Toolbox
   \\    /   O peration     | Website:  https://openfoam.org
    \\  /    A nd           | Version:  10
     \\/     M anipulation  |
\*---------------------------------------------------------------------------*/
FoamFile
{
    format      ascii;
    class       volVectorField;
    location    "0.02";
    object      U;
}
// * * * * * * * * * * * * * * * * * * * * * * * * * * * * * * * * * * * * * //

dimensions      [0 1 -1 0 0 0 0];

internalField   nonuniform List<vector> 
6820
(
(7.33662 -0.254748 0)
(7.37155 -0.15294 0)
(7.33044 -0.0595809 0)
(7.25506 -0.0119557 0)
(7.17959 0.00753644 0)
(7.11212 0.0133456 0)
(7.05396 0.0136484 0)
(7.0045 0.012089 0)
(6.96233 0.0101509 0)
(6.92607 0.0083753 0)
(6.89466 0.00689756 0)
(6.86735 0.00570086 0)
(6.84355 0.00472528 0)
(6.82287 0.00390805 0)
(6.80501 0.00319611 0)
(6.78975 0.00254818 0)
(6.77695 0.00193336 0)
(6.76649 0.00132893 0)
(6.75831 0.000718863 0)
(6.75233 9.89029e-05 0)
(6.74849 -0.000536874 0)
(6.74675 -0.00110795 0)
(6.74669 -0.00149174 0)
(6.74795 -0.00173611 0)
(6.75056 -0.00196578 0)
(6.7546 -0.00225535 0)
(6.76022 -0.00262241 0)
(6.7676 -0.00316079 0)
(6.77684 -0.00345195 0)
(6.78819 -0.00532462 0)
(6.80217 -0.00134649 0)
(6.81234 -0.0124705 0)
(6.84244 0.00198277 0)
(7.3239 0.121298 0)
(7.30456 0.122992 0)
(7.3094 0.0772927 0)
(7.3301 0.051912 0)
(7.34897 0.0381349 0)
(7.35812 0.0301211 0)
(7.35852 0.0254248 0)
(7.35311 0.022402 0)
(7.34419 0.0201969 0)
(7.33336 0.0184176 0)
(7.3217 0.0168666 0)
(7.30989 0.0154404 0)
(7.29837 0.0140849 0)
(7.2874 0.0127694 0)
(7.27716 0.0114743 0)
(7.26775 0.0101852 0)
(7.25927 0.00889062 0)
(7.25175 0.00758037 0)
(7.24525 0.00624602 0)
(7.23982 0.00488478 0)
(7.23551 0.00349388 0)
(7.2324 0.00212025 0)
(7.23089 0.000811044 0)
(7.23131 -0.000488347 0)
(7.23369 -0.00187698 0)
(7.23798 -0.00339587 0)
(7.24427 -0.00508422 0)
(7.25242 -0.0069294 0)
(7.26304 -0.00908133 0)
(7.275 -0.0112849 0)
(7.29235 -0.0139928 0)
(7.30987 -0.0165396 0)
(7.3467 -0.012941 0)
(7.32567 -0.0438982 0)
(7.32346 -0.052099 0)
(7.33595 -0.0267609 0)
(7.34467 -0.00361068 0)
(7.35063 0.00917217 0)
(7.35611 0.0152376 0)
(7.36071 0.0178979 0)
(7.36416 0.0187424 0)
(7.36646 0.0186072 0)
(7.36776 0.0179594 0)
(7.36832 0.0170399 0)
(7.36838 0.0159696 0)
(7.36818 0.0148081 0)
(7.36792 0.0135818 0)
(7.36776 0.0122988 0)
(7.36785 0.010958 0)
(7.3683 0.00955302 0)
(7.36922 0.00807541 0)
(7.3707 0.00651522 0)
(7.37284 0.00486186 0)
(7.37571 0.0031051 0)
(7.37939 0.00121677 0)
(7.38399 -0.000840175 0)
(7.38968 -0.00306263 0)
(7.39658 -0.00545235 0)
(7.40482 -0.00803463 0)
(7.41453 -0.0108374 0)
(7.42574 -0.0139716 0)
(7.4388 -0.017355 0)
(7.45333 -0.021664 0)
(7.47092 -0.0256194 0)
(7.48856 -0.0344942 0)
(7.51163 -0.0412923 0)
(7.33341 0.0116153 0)
(7.33071 0.0323298 0)
(7.33048 0.0324756 0)
(7.33426 0.0263223 0)
(7.34082 0.0224626 0)
(7.3478 0.0204915 0)
(7.35416 0.0193974 0)
(7.35987 0.0185922 0)
(7.36505 0.0178118 0)
(7.36979 0.0169672 0)
(7.3742 0.016026 0)
(7.3784 0.0149751 0)
(7.3825 0.0138105 0)
(7.38661 0.0125308 0)
(7.39083 0.011134 0)
(7.39526 0.00961661 0)
(7.39999 0.00797351 0)
(7.40509 0.00619751 0)
(7.41066 0.00428005 0)
(7.41676 0.00221107 0)
(7.42348 -2.10177e-05 0)
(7.4309 -0.00243155 0)
(7.43911 -0.00503649 0)
(7.44818 -0.00786279 0)
(7.45822 -0.0109434 0)
(7.46932 -0.0143281 0)
(7.48159 -0.0180631 0)
(7.49511 -0.0222393 0)
(7.51012 -0.0268831 0)
(7.5264 -0.0323543 0)
(7.5448 -0.0383174 0)
(7.56374 -0.0468379 0)
(7.58582 -0.0541875 0)
(7.33122 -0.00373037 0)
(7.33029 -0.00494141 0)
(7.33448 -3.38472e-05 0)
(7.339 0.00690957 0)
(7.34345 0.0117499 0)
(7.34818 0.0141603 0)
(7.3531 0.0151379 0)
(7.35816 0.015326 0)
(7.36333 0.0150242 0)
(7.36855 0.0143966 0)
(7.37383 0.0135306 0)
(7.37919 0.0124706 0)
(7.38469 0.0112397 0)
(7.39036 0.00984884 0)
(7.39627 0.00830084 0)
(7.40247 0.00659315 0)
(7.40901 0.00471931 0)
(7.41596 0.00267019 0)
(7.42338 0.000433716 0)
(7.43134 -0.00200427 0)
(7.43988 -0.0046606 0)
(7.44909 -0.00755923 0)
(7.45904 -0.01073 0)
(7.46978 -0.0142066 0)
(7.48141 -0.0180229 0)
(7.49399 -0.022226 0)
(7.50763 -0.0268646 0)
(7.52236 -0.0320345 0)
(7.53836 -0.0377772 0)
(7.5555 -0.0443902 0)
(7.57416 -0.0516765 0)
(7.59344 -0.0608825 0)
(7.61425 -0.0700529 0)
(7.33267 0.00177362 0)
(7.33253 0.0090894 0)
(7.33479 0.0127263 0)
(7.33818 0.0139125 0)
(7.34234 0.0142841 0)
(7.347 0.0142871 0)
(7.35183 0.0140739 0)
(7.35677 0.0136477 0)
(7.36185 0.0129946 0)
(7.36708 0.0121321 0)
(7.3725 0.0110793 0)
(7.37814 0.00984544 0)
(7.38403 0.00843391 0)
(7.39021 0.00684379 0)
(7.3967 0.00507023 0)
(7.40356 0.00310535 0)
(7.41081 0.000938611 0)
(7.41852 -0.00144279 0)
(7.42672 -0.00405446 0)
(7.43547 -0.00691458 0)
(7.44482 -0.0100446 0)
(7.45482 -0.0134708 0)
(7.46554 -0.0172241 0)
(7.47703 -0.0213405 0)
(7.48935 -0.0258615 0)
(7.50258 -0.0308408 0)
(7.51677 -0.0363362 0)
(7.53198 -0.0424377 0)
(7.5483 -0.0492051 0)
(7.56567 -0.0568407 0)
(7.58424 -0.0652716 0)
(7.60355 -0.0751086 0)
(7.62393 -0.0852605 0)
(7.33261 0.000457419 0)
(7.33272 0.00338407 0)
(7.33515 0.00621206 0)
(7.33863 0.00866576 0)
(7.34257 0.010449 0)
(7.34684 0.011348 0)
(7.35131 0.011544 0)
(7.35594 0.0112445 0)
(7.36079 0.0105756 0)
(7.36587 0.00961939 0)
(7.3712 0.00842395 0)
(7.37681 0.0070123 0)
(7.38273 0.00539368 0)
(7.38898 0.00356893 0)
(7.39561 0.00153295 0)
(7.40265 -0.000723743 0)
(7.41012 -0.00321398 0)
(7.41807 -0.00595377 0)
(7.42653 -0.00896177 0)
(7.43555 -0.01226 0)
(7.44517 -0.015874 0)
(7.45544 -0.0198339 0)
(7.46641 -0.0241754 0)
(7.47813 -0.0289391 0)
(7.49065 -0.0341714 0)
(7.50402 -0.0399281 0)
(7.5183 -0.0462697 0)
(7.53352 -0.0532787 0)
(7.54975 -0.0610203 0)
(7.56695 -0.069636 0)
(7.58519 -0.0791089 0)
(7.60424 -0.0897341 0)
(7.62423 -0.100938 0)
(7.33287 0.000954766 0)
(7.3333 0.00416246 0)
(7.33543 0.00687043 0)
(7.33851 0.00864918 0)
(7.34213 0.0096528 0)
(7.34617 0.00997709 0)
(7.35046 0.00979514 0)
(7.35497 0.0092336 0)
(7.35969 0.00835452 0)
(7.36464 0.0072007 0)
(7.36986 0.00580115 0)
(7.37538 0.00417036 0)
(7.38122 0.00231291 0)
(7.38741 0.000226535 0)
(7.394 -0.0020965 0)
(7.401 -0.00466819 0)
(7.40846 -0.0075041 0)
(7.4164 -0.010623 0)
(7.42486 -0.0140466 0)
(7.43387 -0.0178005 0)
(7.44348 -0.0219135 0)
(7.45373 -0.0264192 0)
(7.46466 -0.0313563 0)
(7.4763 -0.0367685 0)
(7.48871 -0.0427052 0)
(7.50193 -0.049224 0)
(7.516 -0.0563871 0)
(7.53095 -0.0642714 0)
(7.54682 -0.0729436 0)
(7.56359 -0.0825076 0)
(7.5813 -0.0929777 0)
(7.59986 -0.104501 0)
(7.61932 -0.11679 0)
(7.33293 0.000873806 0)
(7.33348 0.00326568 0)
(7.33543 0.00532991 0)
(7.3383 0.00677241 0)
(7.34172 0.00764322 0)
(7.34554 0.00792574 0)
(7.34965 0.00769309 0)
(7.35399 0.00704062 0)
(7.35856 0.00603372 0)
(7.36338 0.00472028 0)
(7.36847 0.00313245 0)
(7.37386 0.00128656 0)
(7.37958 -0.000812274 0)
(7.38566 -0.00316666 0)
(7.39212 -0.00578521 0)
(7.399 -0.00868128 0)
(7.40633 -0.0118722 0)
(7.41414 -0.0153789 0)
(7.42246 -0.0192256 0)
(7.43132 -0.0234405 0)
(7.44076 -0.0280554 0)
(7.45081 -0.0331067 0)
(7.46151 -0.0386358 0)
(7.4729 -0.0446889 0)
(7.48501 -0.0513178 0)
(7.49788 -0.058581 0)
(7.51154 -0.0665414 0)
(7.52601 -0.0752711 0)
(7.54132 -0.0848372 0)
(7.55748 -0.095323 0)
(7.57449 -0.106764 0)
(7.59235 -0.119249 0)
(7.61109 -0.132657 0)
(7.33299 0.000793444 0)
(7.33362 0.00274652 0)
(7.33542 0.00444906 0)
(7.33806 0.00559646 0)
(7.34123 0.00619117 0)
(7.34483 0.00623698 0)
(7.34875 0.005799 0)
(7.35293 0.00495775 0)
(7.35736 0.00376691 0)
(7.36204 0.00226283 0)
(7.367 0.000469406 0)
(7.37225 -0.00160173 0)
(7.37783 -0.00394833 0)
(7.38375 -0.00657512 0)
(7.39006 -0.00949244 0)
(7.39676 -0.0127154 0)
(7.40391 -0.0162631 0)
(7.41151 -0.0201584 0)
(7.41961 -0.0244279 0)
(7.42822 -0.0291018 0)
(7.43739 -0.0342143 0)
(7.44714 -0.0398042 0)
(7.45751 -0.0459145 0)
(7.46852 -0.0525936 0)
(7.4802 -0.0598945 0)
(7.49258 -0.0678761 0)
(7.50569 -0.0766013 0)
(7.51954 -0.0861392 0)
(7.53415 -0.0965572 0)
(7.54954 -0.10793 0)
(7.56571 -0.120307 0)
(7.58267 -0.133764 0)
(7.60046 -0.148274 0)
(7.33302 0.000673137 0)
(7.33367 0.00218678 0)
(7.33533 0.00347251 0)
(7.33777 0.00428655 0)
(7.34074 0.00461569 0)
(7.34413 0.00445845 0)
(7.34786 0.00385021 0)
(7.35186 0.00284503 0)
(7.35613 0.00148369 0)
(7.36066 -0.000204797 0)
(7.36546 -0.00220101 0)
(7.37056 -0.00449587 0)
(7.37597 -0.00708894 0)
(7.38172 -0.00998652 0)
(7.38783 -0.0132005 0)
(7.39433 -0.0167473 0)
(7.40125 -0.0206479 0)
(7.4086 -0.0249267 0)
(7.41642 -0.029612 0)
(7.42474 -0.0347359 0)
(7.43357 -0.0403344 0)
(7.44294 -0.0464479 0)
(7.45289 -0.0531209 0)
(7.46343 -0.0604027 0)
(7.47458 -0.0683473 0)
(7.48638 -0.0770133 0)
(7.49883 -0.0864635 0)
(7.51195 -0.0967651 0)
(7.52575 -0.107986 0)
(7.54024 -0.120197 0)
(7.55543 -0.13346 0)
(7.57133 -0.147851 0)
(7.58798 -0.163399 0)
(7.33304 0.000531961 0)
(7.33368 0.0016554 0)
(7.33523 0.00257215 0)
(7.33748 0.00308319 0)
(7.34025 0.00315529 0)
(7.34344 0.00277991 0)
(7.34697 0.00197703 0)
(7.35079 0.000785261 0)
(7.35489 -0.000763751 0)
(7.35924 -0.00264791 0)
(7.36388 -0.00485331 0)
(7.3688 -0.00737465 0)
(7.37402 -0.0102142 0)
(7.37958 -0.0133805 0)
(7.38547 -0.016887 0)
(7.39174 -0.0207521 0)
(7.39839 -0.0249979 0)
(7.40546 -0.0296506 0)
(7.41296 -0.0347399 0)
(7.42092 -0.0402993 0)
(7.42936 -0.0463662 0)
(7.4383 -0.052982 0)
(7.44776 -0.0601922 0)
(7.45776 -0.0680465 0)
(7.46832 -0.0765989 0)
(7.47945 -0.0859077 0)
(7.49116 -0.0960348 0)
(7.50346 -0.107046 0)
(7.51635 -0.119009 0)
(7.52985 -0.131995 0)
(7.54394 -0.146073 0)
(7.55865 -0.161323 0)
(7.57398 -0.177802 0)
(7.33305 0.000381502 0)
(7.33367 0.00114273 0)
(7.3351 0.00170879 0)
(7.33719 0.001919 0)
(7.33977 0.00173136 0)
(7.34276 0.0011326 0)
(7.3461 0.000130869 0)
(7.34974 -0.00124976 0)
(7.35365 -0.00298768 0)
(7.35783 -0.00506792 0)
(7.36227 -0.0074818 0)
(7.367 -0.0102276 0)
(7.37202 -0.0133102 0)
(7.37735 -0.01674 0)
(7.383 -0.0205322 0)
(7.389 -0.0247066 0)
(7.39536 -0.0292867 0)
(7.40211 -0.0342999 0)
(7.40926 -0.0397771 0)
(7.41682 -0.0457528 0)
(7.42483 -0.0522653 0)
(7.43328 -0.0593565 0)
(7.44221 -0.0670722 0)
(7.45161 -0.075462 0)
(7.46151 -0.0845794 0)
(7.47191 -0.0944816 0)
(7.48281 -0.10523 0)
(7.49421 -0.116887 0)
(7.50612 -0.129522 0)
(7.51854 -0.143204 0)
(7.53144 -0.158006 0)
(7.54485 -0.17401 0)
(7.55873 -0.191285 0)
(7.33305 0.000228391 0)
(7.33364 0.000650357 0)
(7.33497 0.000887272 0)
(7.33691 0.000808337 0)
(7.33931 0.000366832 0)
(7.34211 -0.000455935 0)
(7.34526 -0.00166112 0)
(7.34871 -0.00323598 0)
(7.35242 -0.00516728 0)
(7.35641 -0.00744619 0)
(7.36065 -0.0100688 0)
(7.36516 -0.013037 0)
(7.36996 -0.0163582 0)
(7.37504 -0.0200448 0)
(7.38043 -0.0241137 0)
(7.38614 -0.0285861 0)
(7.39218 -0.0334865 0)
(7.39857 -0.0388435 0)
(7.40533 -0.0446887 0)
(7.41247 -0.0510572 0)
(7.42 -0.0579878 0)
(7.42793 -0.0655223 0)
(7.43627 -0.0737062 0)
(7.44503 -0.0825886 0)
(7.45422 -0.0922218 0)
(7.46383 -0.102661 0)
(7.47386 -0.113966 0)
(7.48431 -0.126199 0)
(7.49518 -0.139424 0)
(7.50644 -0.15371 0)
(7.51808 -0.169129 0)
(7.53009 -0.185764 0)
(7.54245 -0.203681 0)
(7.33305 7.64859e-05 0)
(7.33361 0.000178444 0)
(7.33484 0.000104582 0)
(7.33663 -0.000253778 0)
(7.33886 -0.000944833 0)
(7.34149 -0.00199163 0)
(7.34445 -0.00340227 0)
(7.34769 -0.00517306 0)
(7.35121 -0.00729824 0)
(7.35499 -0.0097747 0)
(7.35902 -0.0126031 0)
(7.3633 -0.0157887 0)
(7.36785 -0.0193414 0)
(7.37267 -0.0232755 0)
(7.37777 -0.0276095 0)
(7.38316 -0.0323655 0)
(7.38886 -0.0375693 0)
(7.39487 -0.0432499 0)
(7.4012 -0.0494394 0)
(7.40788 -0.0561733 0)
(7.41489 -0.0634899 0)
(7.42226 -0.0714309 0)
(7.42998 -0.0800408 0)
(7.43805 -0.0893674 0)
(7.44648 -0.0994612 0)
(7.45526 -0.110376 0)
(7.46438 -0.122167 0)
(7.47383 -0.134895 0)
(7.4836 -0.14862 0)
(7.49366 -0.163408 0)
(7.50398 -0.179328 0)
(7.51455 -0.196456 0)
(7.52532 -0.214852 0)
(7.33305 -7.11447e-05 0)
(7.33357 -0.000272403 0)
(7.33471 -0.000640157 0)
(7.33636 -0.00126709 0)
(7.33844 -0.00220118 0)
(7.34088 -0.00346902 0)
(7.34365 -0.00508427 0)
(7.3467 -0.00705048 0)
(7.35001 -0.00936828 0)
(7.35357 -0.0120397 0)
(7.35737 -0.0150693 0)
(7.36141 -0.0184656 0)
(7.3657 -0.0222408 0)
(7.37023 -0.026411 0)
(7.37502 -0.0309959 0)
(7.38007 -0.0360187 0)
(7.3854 -0.0415058 0)
(7.391 -0.0474865 0)
(7.39689 -0.0539932 0)
(7.40306 -0.0610609 0)
(7.40953 -0.0687275 0)
(7.4163 -0.0770337 0)
(7.42336 -0.0860227 0)
(7.43071 -0.0957401 0)
(7.43835 -0.106234 0)
(7.44626 -0.117556 0)
(7.45442 -0.129757 0)
(7.46284 -0.142894 0)
(7.47147 -0.157023 0)
(7.48029 -0.172204 0)
(7.48926 -0.1885 0)
(7.49836 -0.205978 0)
(7.50752 -0.224689 0)
(7.33304 -0.000212986 0)
(7.33353 -0.000701753 0)
(7.33458 -0.0013476 0)
(7.33611 -0.00223186 0)
(7.33803 -0.00340147 0)
(7.3403 -0.00488574 0)
(7.34288 -0.00670266 0)
(7.34573 -0.00886154 0)
(7.34882 -0.0113684 0)
(7.35216 -0.0142297 0)
(7.35572 -0.0174537 0)
(7.3595 -0.0210516 0)
(7.36351 -0.0250378 0)
(7.36774 -0.02943 0)
(7.37219 -0.0342491 0)
(7.37689 -0.0395189 0)
(7.38181 -0.0452661 0)
(7.38698 -0.0515202 0)
(7.39239 -0.0583133 0)
(7.39804 -0.0656797 0)
(7.40394 -0.0736563 0)
(7.41008 -0.0822824 0)
(7.41645 -0.091599 0)
(7.42304 -0.10165 0)
(7.42985 -0.112479 0)
(7.43686 -0.124135 0)
(7.44405 -0.136666 0)
(7.45139 -0.150121 0)
(7.45886 -0.164552 0)
(7.46642 -0.180013 0)
(7.47403 -0.196557 0)
(7.48165 -0.214243 0)
(7.48921 -0.233107 0)
(7.33304 -0.000348691 0)
(7.33349 -0.00110932 0)
(7.33446 -0.0020179 0)
(7.33586 -0.00314756 0)
(7.33763 -0.00454382 0)
(7.33973 -0.00623792 0)
(7.34212 -0.00825127 0)
(7.34476 -0.0105977 0)
(7.34764 -0.0132878 0)
(7.35074 -0.0163317 0)
(7.35405 -0.0197409 0)
(7.35756 -0.0235292 0)
(7.36127 -0.0277127 0)
(7.36518 -0.0323104 0)
(7.36929 -0.0373442 0)
(7.3736 -0.0428383 0)
(7.37811 -0.0488196 0)
(7.38282 -0.0553172 0)
(7.38773 -0.0623625 0)
(7.39283 -0.0699889 0)
(7.39813 -0.0782319 0)
(7.40361 -0.0871286 0)
(7.40926 -0.0967178 0)
(7.41508 -0.10704 0)
(7.42104 -0.118137 0)
(7.42713 -0.13005 0)
(7.43331 -0.142825 0)
(7.43957 -0.156505 0)
(7.44587 -0.171136 0)
(7.45216 -0.186761 0)
(7.45841 -0.203427 0)
(7.46456 -0.22118 0)
(7.47054 -0.240046 0)
(7.33304 -0.000477347 0)
(7.33345 -0.00149447 0)
(7.33434 -0.00265074 0)
(7.33562 -0.00401324 0)
(7.33725 -0.00562603 0)
(7.33917 -0.00752164 0)
(7.34137 -0.00972411 0)
(7.34381 -0.0122508 0)
(7.34647 -0.015116 0)
(7.34933 -0.018333 0)
(7.35237 -0.021916 0)
(7.3556 -0.0258809 0)
(7.359 -0.0302455 0)
(7.36258 -0.0350298 0)
(7.36632 -0.0402561 0)
(7.37023 -0.0459491 0)
(7.3743 -0.0521353 0)
(7.37853 -0.0588434 0)
(7.38292 -0.0661037 0)
(7.38745 -0.0739482 0)
(7.39212 -0.0824105 0)
(7.39693 -0.0915253 0)
(7.40184 -0.101329 0)
(7.40686 -0.111858 0)
(7.41195 -0.12315 0)
(7.4171 -0.135243 0)
(7.42228 -0.148175 0)
(7.42744 -0.161985 0)
(7.43257 -0.176709 0)
(7.4376 -0.192386 0)
(7.4425 -0.20905 0)
(7.44721 -0.226738 0)
(7.45167 -0.245462 0)
(7.33303 -0.000598554 0)
(7.33341 -0.00185666 0)
(7.33422 -0.00324544 0)
(7.33539 -0.00482746 0)
(7.33687 -0.00664537 0)
(7.33863 -0.00873245 0)
(7.34064 -0.0111147 0)
(7.34287 -0.0138121 0)
(7.3453 -0.0168419 0)
(7.34791 -0.0202202 0)
(7.35069 -0.0239632 0)
(7.35362 -0.0280886 0)
(7.3567 -0.0326155 0)
(7.35992 -0.0375646 0)
(7.36328 -0.0429588 0)
(7.36677 -0.0488224 0)
(7.37039 -0.0551817 0)
(7.37413 -0.0620643 0)
(7.37797 -0.0694993 0)
(7.38192 -0.0775169 0)
(7.38595 -0.0861485 0)
(7.39006 -0.0954263 0)
(7.39422 -0.105383 0)
(7.39843 -0.116051 0)
(7.40264 -0.127465 0)
(7.40685 -0.139657 0)
(7.41101 -0.152659 0)
(7.41509 -0.166503 0)
(7.41905 -0.18122 0)
(7.42284 -0.196837 0)
(7.42642 -0.213382 0)
(7.42973 -0.230878 0)
(7.43272 -0.24933 0)
(7.33303 -0.000711979 0)
(7.33337 -0.00219517 0)
(7.3341 -0.00380099 0)
(7.33516 -0.00558846 0)
(7.3365 -0.00759885 0)
(7.3381 -0.00986574 0)
(7.33992 -0.0124165 0)
(7.34194 -0.0152732 0)
(7.34414 -0.0184552 0)
(7.34649 -0.0219806 0)
(7.34899 -0.0258677 0)
(7.35162 -0.0301352 0)
(7.35436 -0.0348033 0)
(7.35723 -0.0398933 0)
(7.36019 -0.045428 0)
(7.36325 -0.0514315 0)
(7.3664 -0.0579293 0)
(7.36962 -0.0649478 0)
(7.37291 -0.0725145 0)
(7.37626 -0.0806577 0)
(7.37964 -0.0894062 0)
(7.38304 -0.0987892 0)
(7.38645 -0.108836 0)
(7.38983 -0.119575 0)
(7.39316 -0.131035 0)
(7.39642 -0.143245 0)
(7.39958 -0.15623 0)
(7.40258 -0.170015 0)
(7.4054 -0.184624 0)
(7.40798 -0.200077 0)
(7.41029 -0.21639 0)
(7.41225 -0.23358 0)
(7.41384 -0.25164 0)
(7.33303 -0.000817309 0)
(7.33333 -0.00250921 0)
(7.33399 -0.0043161 0)
(7.33494 -0.00629403 0)
(7.33615 -0.0084829 0)
(7.33758 -0.0109162 0)
(7.33921 -0.0136221 0)
(7.34101 -0.0166241 0)
(7.34297 -0.0199432 0)
(7.34507 -0.0235992 0)
(7.34728 -0.0276115 0)
(7.3496 -0.0320001 0)
(7.35201 -0.0367857 0)
(7.3545 -0.0419898 0)
(7.35706 -0.0476351 0)
(7.35967 -0.0537451 0)
(7.36234 -0.0603442 0)
(7.36504 -0.0674576 0)
(7.36777 -0.0751109 0)
(7.3705 -0.08333 0)
(7.37322 -0.092141 0)
(7.37591 -0.10157 0)
(7.37855 -0.111642 0)
(7.38111 -0.122382 0)
(7.38357 -0.133815 0)
(7.3859 -0.145962 0)
(7.38806 -0.158844 0)
(7.39001 -0.17248 0)
(7.39172 -0.186886 0)
(7.39313 -0.202074 0)
(7.39421 -0.218054 0)
(7.3949 -0.234832 0)
(7.39516 -0.252395 0)
(7.33302 -0.000914228 0)
(7.3333 -0.00279791 0)
(7.33388 -0.00478933 0)
(7.33473 -0.00694203 0)
(7.33579 -0.00929451 0)
(7.33706 -0.0118799 0)
(7.3385 -0.0147265 0)
(7.3401 -0.0178589 0)
(7.34182 -0.021299 0)
(7.34365 -0.0250676 0)
(7.34557 -0.0291852 0)
(7.34757 -0.0336723 0)
(7.34963 -0.0385499 0)
(7.35174 -0.0438396 0)
(7.35389 -0.0495635 0)
(7.35606 -0.0557445 0)
(7.35824 -0.0624057 0)
(7.36041 -0.0695707 0)
(7.36256 -0.077263 0)
(7.36468 -0.0855063 0)
(7.36673 -0.0943236 0)
(7.36871 -0.103738 0)
(7.37059 -0.11377 0)
(7.37234 -0.124442 0)
(7.37393 -0.135772 0)
(7.37534 -0.147777 0)
(7.37653 -0.160473 0)
(7.37746 -0.173873 0)
(7.37809 -0.187985 0)
(7.37839 -0.202816 0)
(7.3783 -0.218368 0)
(7.37778 -0.234639 0)
(7.37679 -0.251611 0)
(7.33302 -0.00100239 0)
(7.33326 -0.00306017 0)
(7.33377 -0.00521867 0)
(7.33451 -0.00752901 0)
(7.33545 -0.0100281 0)
(7.33655 -0.0127482 0)
(7.33781 -0.0157177 0)
(7.33919 -0.0189613 0)
(7.34067 -0.0225019 0)
(7.34224 -0.0263611 0)
(7.34387 -0.0305598 0)
(7.34554 -0.035119 0)
(7.34725 -0.0400598 0)
(7.34898 -0.0454034 0)
(7.3507 -0.0511715 0)
(7.35242 -0.0573858 0)
(7.3541 -0.064068 0)
(7.35574 -0.0712399 0)
(7.35732 -0.078923 0)
(7.35882 -0.0871381 0)
(7.36022 -0.0959055 0)
(7.36149 -0.105244 0)
(7.36261 -0.115173 0)
(7.36356 -0.125708 0)
(7.36431 -0.136863 0)
(7.36482 -0.148651 0)
(7.36507 -0.161082 0)
(7.36502 -0.174163 0)
(7.36462 -0.187898 0)
(7.36385 -0.202288 0)
(7.36266 -0.217326 0)
(7.36101 -0.233008 0)
(7.35887 -0.249308 0)
(7.33302 -0.00108145 0)
(7.33323 -0.00329518 0)
(7.33367 -0.00560337 0)
(7.3343 -0.00805513 0)
(7.33511 -0.0106857 0)
(7.33605 -0.013526 0)
(7.33712 -0.0166037 0)
(7.33829 -0.0199432 0)
(7.33954 -0.0235671 0)
(7.34083 -0.0274972 0)
(7.34217 -0.0317547 0)
(7.34352 -0.0363605 0)
(7.34488 -0.0413356 0)
(7.34622 -0.0467007 0)
(7.34752 -0.0524768 0)
(7.34878 -0.0586844 0)
(7.34997 -0.065344 0)
(7.35108 -0.0724755 0)
(7.35209 -0.080098 0)
(7.35297 -0.08823 0)
(7.35371 -0.0968888 0)
(7.35429 -0.10609 0)
(7.35467 -0.115849 0)
(7.35484 -0.126177 0)
(7.35476 -0.137086 0)
(7.35441 -0.148582 0)
(7.35376 -0.160672 0)
(7.35276 -0.173357 0)
(7.3514 -0.186637 0)
(7.34962 -0.200505 0)
(7.3474 -0.214954 0)
(7.34469 -0.229971 0)
(7.34148 -0.245529 0)
(7.33302 -0.00115087 0)
(7.33319 -0.00350061 0)
(7.33356 -0.00593774 0)
(7.3341 -0.00850876 0)
(7.33477 -0.0112467 0)
(7.33556 -0.0141813 0)
(7.33644 -0.0173395 0)
(7.3374 -0.0207461 0)
(7.33841 -0.0244238 0)
(7.33944 -0.0283947 0)
(7.34049 -0.0326799 0)
(7.34152 -0.0373003 0)
(7.34252 -0.0422763 0)
(7.34347 -0.0476279 0)
(7.34436 -0.0533749 0)
(7.34516 -0.0595366 0)
(7.34586 -0.0661316 0)
(7.34645 -0.0731777 0)
(7.34689 -0.0806919 0)
(7.34717 -0.0886899 0)
(7.34727 -0.0971861 0)
(7.34716 -0.106193 0)
(7.34683 -0.115722 0)
(7.34624 -0.125782 0)
(7.34537 -0.136378 0)
(7.34419 -0.147516 0)
(7.34268 -0.159196 0)
(7.34079 -0.171416 0)
(7.33851 -0.184171 0)
(7.33579 -0.197451 0)
(7.33261 -0.211244 0)
(7.32893 -0.225535 0)
(7.32474 -0.240294 0)
(7.33301 -0.00121061 0)
(7.33316 -0.00367877 0)
(7.33346 -0.00623163 0)
(7.3339 -0.008914 0)
(7.33444 -0.0117557 0)
(7.33508 -0.0147827 0)
(7.33579 -0.018019 0)
(7.33654 -0.0214869 0)
(7.33731 -0.0252079 0)
(7.33809 -0.0292034 0)
(7.33884 -0.0334943 0)
(7.33955 -0.0381014 0)
(7.3402 -0.043045 0)
(7.34077 -0.0483447 0)
(7.34124 -0.0540197 0)
(7.34159 -0.0600883 0)
(7.34181 -0.0665676 0)
(7.34187 -0.0734739 0)
(7.34176 -0.0808221 0)
(7.34145 -0.0886255 0)
(7.34093 -0.0968959 0)
(7.34016 -0.105643 0)
(7.33913 -0.114875 0)
(7.33782 -0.124597 0)
(7.33619 -0.134812 0)
(7.33423 -0.145521 0)
(7.33189 -0.156721 0)
(7.32917 -0.168406 0)
(7.32603 -0.180568 0)
(7.32244 -0.193195 0)
(7.31837 -0.20627 0)
(7.3138 -0.219776 0)
(7.30872 -0.233684 0)
(7.33301 -0.00125847 0)
(7.33312 -0.0038154 0)
(7.33335 -0.00644526 0)
(7.33368 -0.00919024 0)
(7.3341 -0.0120793 0)
(7.33458 -0.0151394 0)
(7.33512 -0.0183957 0)
(7.33567 -0.0218714 0)
(7.33622 -0.0255878 0)
(7.33674 -0.0295658 0)
(7.33721 -0.0338253 0)
(7.33762 -0.0383857 0)
(7.33793 -0.0432659 0)
(7.33812 -0.0484839 0)
(7.33819 -0.054057 0)
(7.33811 -0.0600016 0)
(7.33785 -0.066333 0)
(7.33741 -0.0730651 0)
(7.33676 -0.0802103 0)
(7.33588 -0.0877796 0)
(7.33476 -0.0957819 0)
(7.33336 -0.104224 0)
(7.33166 -0.113112 0)
(7.32966 -0.122447 0)
(7.32731 -0.13223 0)
(7.3246 -0.142458 0)
(7.32151 -0.153126 0)
(7.318 -0.164225 0)
(7.31406 -0.175744 0)
(7.30966 -0.187669 0)
(7.30479 -0.199982 0)
(7.29941 -0.212663 0)
(7.29353 -0.225684 0)
(7.33301 -0.00129935 0)
(7.3331 -0.00394932 0)
(7.33327 -0.00668884 0)
(7.33352 -0.00955276 0)
(7.33383 -0.0125553 0)
(7.33417 -0.0157099 0)
(7.33453 -0.0190332 0)
(7.33488 -0.0225438 0)
(7.3352 -0.0262624 0)
(7.33547 -0.0302103 0)
(7.33566 -0.0344092 0)
(7.33575 -0.0388802 0)
(7.33572 -0.0436433 0)
(7.33554 -0.0487178 0)
(7.33521 -0.0541211 0)
(7.3347 -0.0598694 0)
(7.33399 -0.0659773 0)
(7.33306 -0.0724575 0)
(7.33189 -0.079321 0)
(7.33046 -0.0865768 0)
(7.32876 -0.0942317 0)
(7.32675 -0.102291 0)
(7.32443 -0.110756 0)
(7.32177 -0.119627 0)
(7.31875 -0.128902 0)
(7.31535 -0.138576 0)
(7.31154 -0.148641 0)
(7.30732 -0.159087 0)
(7.30265 -0.169899 0)
(7.29752 -0.181063 0)
(7.29191 -0.192559 0)
(7.2858 -0.204367 0)
(7.2792 -0.216458 0)
(7.333 -0.00131162 0)
(7.33301 -0.00394611 0)
(7.33308 -0.00663062 0)
(7.3332 -0.00941585 0)
(7.33338 -0.0123332 0)
(7.3336 -0.0154082 0)
(7.33382 -0.018661 0)
(7.33401 -0.0221081 0)
(7.33415 -0.0257651 0)
(7.3342 -0.0296481 0)
(7.33415 -0.0337732 0)
(7.33396 -0.0381565 0)
(7.33362 -0.0428139 0)
(7.33311 -0.0477609 0)
(7.3324 -0.0530118 0)
(7.33149 -0.0585802 0)
(7.33034 -0.0644779 0)
(7.32894 -0.0707156 0)
(7.32728 -0.077302 0)
(7.32533 -0.0842438 0)
(7.32308 -0.091546 0)
(7.3205 -0.0992112 0)
(7.31759 -0.10724 0)
(7.31431 -0.11563 0)
(7.31066 -0.124377 0)
(7.30661 -0.133475 0)
(7.30215 -0.142914 0)
(7.29726 -0.152682 0)
(7.29193 -0.162765 0)
(7.28613 -0.173146 0)
(7.27986 -0.183807 0)
(7.2731 -0.194726 0)
(7.26586 -0.205877 0)
(7.33302 -0.00136617 0)
(7.33309 -0.00420498 0)
(7.33316 -0.0071787 0)
(7.33323 -0.0102649 0)
(7.3333 -0.0134307 0)
(7.33335 -0.0166708 0)
(7.33337 -0.0199994 0)
(7.33334 -0.02344 0)
(7.33324 -0.0270195 0)
(7.33303 -0.0307656 0)
(7.33269 -0.0347048 0)
(7.3322 -0.0388617 0)
(7.33154 -0.0432583 0)
(7.33068 -0.0479143 0)
(7.3296 -0.0528468 0)
(7.32829 -0.0580704 0)
(7.32673 -0.0635972 0)
(7.32489 -0.0694372 0)
(7.32276 -0.075598 0)
(7.32033 -0.0820848 0)
(7.31756 -0.0889006 0)
(7.31446 -0.096046 0)
(7.311 -0.103519 0)
(7.30716 -0.111317 0)
(7.30293 -0.119432 0)
(7.2983 -0.127856 0)
(7.29325 -0.136578 0)
(7.28776 -0.145586 0)
(7.28183 -0.154863 0)
(7.27544 -0.164393 0)
(7.26859 -0.174157 0)
(7.26125 -0.184133 0)
(7.25345 -0.194296 0)
(7.33294 -0.00120419 0)
(7.33272 -0.00352888 0)
(7.33254 -0.00592198 0)
(7.33247 -0.00850037 0)
(7.33248 -0.0112937 0)
(7.33252 -0.0142969 0)
(7.33253 -0.0174944 0)
(7.33246 -0.0208748 0)
(7.33227 -0.0244347 0)
(7.33194 -0.0281772 0)
(7.33143 -0.03211 0)
(7.33073 -0.0362438 0)
(7.32982 -0.0405907 0)
(7.32866 -0.0451636 0)
(7.32726 -0.0499747 0)
(7.32558 -0.0550355 0)
(7.32363 -0.060356 0)
(7.32137 -0.0659447 0)
(7.31879 -0.0718081 0)
(7.31589 -0.0779506 0)
(7.31264 -0.0843747 0)
(7.30903 -0.0910806 0)
(7.30505 -0.0980661 0)
(7.30068 -0.105327 0)
(7.29592 -0.112857 0)
(7.29074 -0.120647 0)
(7.28514 -0.128686 0)
(7.27911 -0.136962 0)
(7.27263 -0.14546 0)
(7.26571 -0.154163 0)
(7.25833 -0.163053 0)
(7.25049 -0.172111 0)
(7.2422 -0.181314 0)
(7.33312 -0.00163887 0)
(7.33335 -0.00514159 0)
(7.33331 -0.00876964 0)
(7.33311 -0.0122945 0)
(7.33283 -0.0156397 0)
(7.33253 -0.0188455 0)
(7.33219 -0.0219789 0)
(7.33178 -0.0251035 0)
(7.33128 -0.0282752 0)
(7.33064 -0.0315421 0)
(7.32984 -0.0349441 0)
(7.32884 -0.0385135 0)
(7.32763 -0.0422763 0)
(7.32617 -0.0462532 0)
(7.32445 -0.0504604 0)
(7.32245 -0.0549105 0)
(7.32014 -0.0596129 0)
(7.31752 -0.0645742 0)
(7.31456 -0.0697982 0)
(7.31126 -0.0752866 0)
(7.3076 -0.0810387 0)
(7.30356 -0.0870516 0)
(7.29914 -0.0933205 0)
(7.29432 -0.0998382 0)
(7.2891 -0.106596 0)
(7.28346 -0.113583 0)
(7.27739 -0.120787 0)
(7.2709 -0.128194 0)
(7.26397 -0.135788 0)
(7.2566 -0.143553 0)
(7.24878 -0.15147 0)
(7.24052 -0.15952 0)
(7.23183 -0.167683 0)
(7.33272 -0.000296693 0)
(7.33184 -0.000934058 0)
(7.3313 -0.00219835 0)
(7.33121 -0.00427468 0)
(7.33133 -0.00698164 0)
(7.33143 -0.0100865 0)
(7.33141 -0.0134356 0)
(7.33123 -0.0169461 0)
(7.33083 -0.0205751 0)
(7.33021 -0.0243038 0)
(7.32933 -0.0281296 0)
(7.32818 -0.0320596 0)
(7.32676 -0.0361059 0)
(7.32503 -0.040283 0)
(7.323 -0.0446051 0)
(7.32065 -0.0490858 0)
(7.31797 -0.0537371 0)
(7.31495 -0.0585689 0)
(7.31158 -0.0635886 0)
(7.30785 -0.0688016 0)
(7.30375 -0.0742106 0)
(7.29926 -0.0798162 0)
(7.29439 -0.0856163 0)
(7.28912 -0.0916071 0)
(7.28344 -0.0977821 0)
(7.27736 -0.104133 0)
(7.27086 -0.110651 0)
(7.26394 -0.117322 0)
(7.25659 -0.124135 0)
(7.24883 -0.131074 0)
(7.24064 -0.138125 0)
(7.23202 -0.145269 0)
(7.22299 -0.152489 0)
(7.33338 -0.0027164 0)
(7.33382 -0.00896777 0)
(7.33316 -0.0145393 0)
(7.33211 -0.018768 0)
(7.33117 -0.0220129 0)
(7.33041 -0.0246822 0)
(7.32973 -0.0270357 0)
(7.32905 -0.0292448 0)
(7.32829 -0.0314323 0)
(7.32739 -0.0336845 0)
(7.32629 -0.0360599 0)
(7.32497 -0.0385969 0)
(7.32338 -0.0413212 0)
(7.3215 -0.0442496 0)
(7.31931 -0.0473926 0)
(7.31679 -0.0507561 0)
(7.31393 -0.0543431 0)
(7.31072 -0.0581537 0)
(7.30714 -0.0621861 0)
(7.30318 -0.0664365 0)
(7.29884 -0.0708994 0)
(7.29411 -0.0755678 0)
(7.28898 -0.0804332 0)
(7.28345 -0.0854858 0)
(7.27751 -0.0907143 0)
(7.27117 -0.0961063 0)
(7.26441 -0.101648 0)
(7.25724 -0.107326 0)
(7.24965 -0.113124 0)
(7.24166 -0.119027 0)
(7.23326 -0.125019 0)
(7.22445 -0.131083 0)
(7.21526 -0.137201 0)
(7.33185 0.00286951 0)
(7.32927 0.00775556 0)
(7.32918 0.00918388 0)
(7.3302 0.00735939 0)
(7.33104 0.00388898 0)
(7.33147 -0.000180562 0)
(7.33153 -0.00444974 0)
(7.33124 -0.00874096 0)
(7.33061 -0.0129614 0)
(7.32963 -0.0170785 0)
(7.32833 -0.0210967 0)
(7.32671 -0.0250371 0)
(7.32477 -0.0289269 0)
(7.3225 -0.0327952 0)
(7.31992 -0.0366697 0)
(7.317 -0.0405753 0)
(7.31375 -0.0445337 0)
(7.31016 -0.0485629 0)
(7.30621 -0.0526771 0)
(7.30192 -0.0568874 0)
(7.29726 -0.0612014 0)
(7.29223 -0.0656238 0)
(7.28684 -0.0701562 0)
(7.28107 -0.0747979 0)
(7.27493 -0.0795459 0)
(7.26841 -0.0843948 0)
(7.26152 -0.0893375 0)
(7.25424 -0.0943652 0)
(7.24659 -0.0994676 0)
(7.23857 -0.104633 0)
(7.23017 -0.10985 0)
(7.22141 -0.115105 0)
(7.2123 -0.120383 0)
(7.334 -0.00669187 0)
(7.33342 -0.0207194 0)
(7.3289 -0.0302225 0)
(7.32482 -0.0345322 0)
(7.32276 -0.0363097 0)
(7.32187 -0.0370655 0)
(7.32141 -0.0373422 0)
(7.3211 -0.0374789 0)
(7.32078 -0.0376963 0)
(7.32033 -0.0381064 0)
(7.31968 -0.0387619 0)
(7.31878 -0.0396854 0)
(7.31759 -0.0408822 0)
(7.31609 -0.042348 0)
(7.31426 -0.0440737 0)
(7.31208 -0.0460476 0)
(7.30956 -0.0482572 0)
(7.30667 -0.0506896 0)
(7.30342 -0.0533319 0)
(7.2998 -0.0561711 0)
(7.29581 -0.0591943 0)
(7.29144 -0.0623882 0)
(7.28671 -0.0657392 0)
(7.2816 -0.0692335 0)
(7.27612 -0.072857 0)
(7.27027 -0.0765949 0)
(7.26407 -0.0804324 0)
(7.2575 -0.0843545 0)
(7.25059 -0.088346 0)
(7.24333 -0.0923919 0)
(7.23574 -0.0964778 0)
(7.22781 -0.10059 0)
(7.21958 -0.104714 0)
(7.32969 0.0196143 0)
(7.32486 0.036271 0)
(7.32895 0.036712 0)
(7.3338 0.0308878 0)
(7.33581 0.0237715 0)
(7.33649 0.0166099 0)
(7.3368 0.00976886 0)
(7.33687 0.00345566 0)
(7.33675 -0.00228012 0)
(7.33651 -0.00748312 0)
(7.33615 -0.0122248 0)
(7.33567 -0.0165806 0)
(7.33504 -0.0206234 0)
(7.33424 -0.0244202 0)
(7.33326 -0.0280295 0)
(7.33206 -0.0315015 0)
(7.33064 -0.0348787 0)
(7.32899 -0.0381964 0)
(7.32708 -0.0414837 0)
(7.32492 -0.044764 0)
(7.3225 -0.0480558 0)
(7.31981 -0.0513733 0)
(7.31686 -0.0547265 0)
(7.31364 -0.0581218 0)
(7.31015 -0.0615628 0)
(7.3064 -0.0650496 0)
(7.30237 -0.0685801 0)
(7.29809 -0.0721496 0)
(7.29353 -0.0757517 0)
(7.2887 -0.0793778 0)
(7.28359 -0.083019 0)
(7.2782 -0.0866632 0)
(7.27253 -0.0903035 0)
(7.32502 -0.0333866 0)
(7.29714 -0.0597491 0)
(7.27708 -0.0635402 0)
(7.27275 -0.0622981 0)
(7.27966 -0.0596656 0)
(7.29121 -0.0563385 0)
(7.30442 -0.0531164 0)
(7.31801 -0.0503757 0)
(7.33124 -0.0481841 0)
(7.3437 -0.0465391 0)
(7.35523 -0.0454144 0)
(7.36578 -0.044765 0)
(7.37535 -0.0445417 0)
(7.38397 -0.0446984 0)
(7.39171 -0.0451938 0)
(7.39859 -0.0459918 0)
(7.40469 -0.0470607 0)
(7.41004 -0.048373 0)
(7.41467 -0.0499045 0)
(7.41863 -0.0516331 0)
(7.42193 -0.0535385 0)
(7.4246 -0.0556011 0)
(7.42664 -0.057802 0)
(7.42806 -0.060122 0)
(7.42887 -0.0625416 0)
(7.42906 -0.0650408 0)
(7.42862 -0.0675989 0)
(7.42754 -0.0701945 0)
(7.4258 -0.0728058 0)
(7.42339 -0.0754103 0)
(7.4203 -0.077986 0)
(7.41648 -0.0805096 0)
(7.41196 -0.0829635 0)
(7.33915 0.134634 0)
(7.37582 0.126867 0)
(7.39258 0.0866344 0)
(7.38732 0.0525813 0)
(7.37009 0.0270914 0)
(7.34639 0.00867535 0)