/*--------------------------------*- C++ -*----------------------------------*\
  =========                 |
  \\      /  F ield         | OpenFOAM: The Open Source CFD Toolbox
   \\    /   O peration     | Website:  https://openfoam.org
    \\  /    A nd           | Version:  10
     \\/     M anipulation  |
\*---------------------------------------------------------------------------*/
FoamFile
{
    format      ascii;
    class       volScalarField;
    location    "1200";
    object      epsilon;
}
// * * * * * * * * * * * * * * * * * * * * * * * * * * * * * * * * * * * * * //

dimensions      [0 2 -3 0 0 0 0];

internalField   nonuniform List<scalar> 
6820
(
23.3479
22.8004
22.2986
21.7955
21.2906
20.7982
20.3323
19.9018
19.5114
19.1623
18.8535
18.583
18.348
18.1455
17.9725
17.8262
17.7037
17.6027
17.5207
17.4558
17.406
17.3696
17.3451
17.3312
17.3265
17.3302
17.3401
17.3623
17.3683
17.4299
17.4503
17.9068
11.7346
5.2475
7.40635
8.54778
9.16328
9.54931
9.84035
10.0943
10.3368
10.5786
10.8235
11.0726
11.326
11.5828
11.8426
12.1043
12.3674
12.6312
12.895
13.1583
13.4205
13.6813
13.9404
14.1974
14.4524
14.7053
14.9566
15.2074
15.4605
15.7118
15.994
16.2792
16.8253
15.7342
3.71892
4.27986
4.80505
5.21574
5.52677
5.76834
5.96437
6.13126
6.27983
6.41715
6.54789
6.6751
6.80077
6.92618
7.05208
7.17892
7.30691
7.43611
7.56648
7.69794
7.83034
7.96355
8.09744
8.23188
8.36683
8.50233
8.63849
8.77613
8.91489
9.05849
9.20765
9.38414
9.43071
3.53759
3.62335
3.7716
3.93761
4.09553
4.23609
4.35828
4.4643
4.55718
4.6398
4.71462
4.78365
4.84847
4.91031
4.97009
5.02854
5.08619
5.14343
5.20053
5.25771
5.31509
5.37278
5.43084
5.48932
5.54827
5.60775
5.66787
5.72885
5.79091
5.85458
5.92065
5.99285
6.05966
3.52015
3.50151
3.51115
3.54398
3.59068
3.64317
3.69615
3.74679
3.79386
3.83707
3.87661
3.91288
3.94637
3.97753
4.00683
4.03465
4.06132
4.08712
4.11229
4.13702
4.16146
4.18575
4.20997
4.23422
4.25859
4.28313
4.30795
4.33315
4.35887
4.38529
4.41267
4.44178
4.47196
3.51931
3.48209
3.45345
3.43537
3.42736
3.42745
3.43325
3.44263
3.45397
3.46613
3.47842
3.4904
3.50188
3.51276
3.52304
3.53276
3.54198
3.55079
3.55927
3.56749
3.57552
3.58343
3.59128
3.59913
3.60701
3.61499
3.62312
3.63145
3.64005
3.64902
3.65844
3.66848
3.67916
3.51943
3.47964
3.44271
3.40975
3.38151
3.35816
3.33935
3.32445
3.31275
3.30353
3.2962
3.29027
3.28537
3.28122
3.27762
3.27443
3.27155
3.26893
3.26651
3.26427
3.2622
3.2603
3.25857
3.25701
3.25564
3.25445
3.25348
3.25274
3.25226
3.25207
3.2522
3.2527
3.25356
3.51947
3.47942
3.44105
3.40466
3.37057
3.33905
3.31022
3.28406
3.26044
3.23914
3.21989
3.20245
3.18657
3.17201
3.15859
3.14616
3.13456
3.12371
3.1135
3.10386
3.09473
3.08608
3.07785
3.07003
3.06258
3.0555
3.04876
3.04236
3.0363
3.03058
3.02521
3.02019
3.0155
3.51948
3.47941
3.44084
3.40381
3.36835
3.33454
3.30244
3.27211
3.24353
3.21669
3.19152
3.16791
3.14578
3.125
3.10546
3.08706
3.06968
3.05326
3.03768
3.0229
3.00883
2.99543
2.98265
2.97043
2.95875
2.94757
2.93686
2.9266
2.91678
2.90738
2.89839
2.88979
2.88157
3.51948
3.4794
3.44081
3.40368
3.36795
3.33361
3.30064
3.26903
3.23878
3.20986
3.18225
3.15592
3.13082
3.10691
3.08412
3.06241
3.0417
3.02194
3.00307
2.98503
2.96779
2.95128
2.93546
2.92029
2.90574
2.89177
2.87834
2.86545
2.85305
2.84113
2.82968
2.81866
2.80807
3.51948
3.4794
3.4408
3.40365
3.36788
3.33343
3.30026
3.26833
3.23759
3.20802
3.17958
3.15224
3.12597
3.10073
3.07649
3.05321
3.03085
3.00937
2.98874
2.96892
2.94986
2.93154
2.91391
2.89694
2.88061
2.86489
2.84974
2.83514
2.82107
2.80751
2.79443
2.78183
2.76966
3.51948
3.4794
3.4408
3.40364
3.36785
3.33339
3.30018
3.26817
3.23731
3.20757
3.17888
3.15122
3.12455
3.09884
3.07404
3.05013
3.02708
3.00485
2.9834
2.96272
2.94277
2.92352
2.90495
2.88702
2.86971
2.853
2.83686
2.82127
2.80621
2.79166
2.77761
2.76402
2.75089
3.51948
3.4794
3.44079
3.40363
3.36784
3.33337
3.30015
3.26812
3.23724
3.20744
3.1787
3.15095
3.12416
3.0983
3.07332
3.04919
3.02588
3.00336
2.9816
2.96056
2.94023
2.92057
2.90156
2.88318
2.8654
2.8482
2.83156
2.81545
2.79987
2.7848
2.7702
2.75608
2.7424
3.51948
3.47939
3.44079
3.40362
3.36783
3.33335
3.30012
3.26809
3.2372
3.2074
3.17863
3.15086
3.12404
3.09814
3.0731
3.04891
3.02552
3.0029
2.98102
2.95986
2.93938
2.91956
2.90038
2.88181
2.86383
2.84641
2.82955
2.81321
2.79739
2.78205
2.7672
2.7528
2.73885
3.51947
3.47939
3.44079
3.40362
3.36782
3.33334
3.30011
3.26807
3.23717
3.20736
3.17859
3.15081
3.12399
3.09807
3.07302
3.0488
3.02538
3.00274
2.98082
2.95962
2.93909
2.91922
2.89997
2.88133
2.86328
2.84578
2.82883
2.81239
2.79647
2.78103
2.76605
2.75154
2.73745
3.51947
3.47939
3.44078
3.40361
3.36781
3.33333
3.30009
3.26805
3.23715
3.20734
3.17856
3.15078
3.12395
3.09802
3.07296
3.04874
3.02532
3.00266
2.98073
2.95951
2.93897
2.91908
2.89982
2.88115
2.86307
2.84554
2.82856
2.81209
2.79612
2.78064
2.76562
2.75105
2.73691
3.51947
3.47939
3.44078
3.40361
3.36781
3.33332
3.30008
3.26804
3.23713
3.20731
3.17853
3.15075
3.12391
3.09798
3.07292
3.0487
3.02527
3.0026
2.98067
2.95945
2.9389
2.919
2.89973
2.88106
2.86296
2.84543
2.82843
2.81195
2.79596
2.78046
2.76542
2.75083
2.73667
3.51947
3.47939
3.44078
3.4036
3.3678
3.33331
3.30007
3.26802
3.23712
3.20729
3.17851
3.15072
3.12388
3.09795
3.07289
3.04865
3.02522
3.00256
2.98062
2.95939
2.93884
2.91894
2.89966
2.88099
2.86289
2.84535
2.82835
2.81186
2.79587
2.78036
2.76531
2.7507
2.73653
3.51947
3.47939
3.44078
3.4036
3.3678
3.3333
3.30006
3.26801
3.2371
3.20728
3.17849
3.1507
3.12385
3.09792
3.07285
3.04862
3.02518
3.00251
2.98058
2.95935
2.93879
2.91889
2.89961
2.88093
2.86283
2.84528
2.82827
2.81178
2.79579
2.78027
2.76521
2.7506
2.73642
3.51947
3.47939
3.44077
3.4036
3.36779
3.3333
3.30005
3.268
3.23709
3.20726
3.17847
3.15068
3.12383
3.09789
3.07282
3.04859
3.02515
3.00248
2.98054
2.9593
2.93875
2.91884
2.89956
2.88087
2.86277
2.84522
2.82821
2.81171
2.79571
2.78019
2.76513
2.75051
2.73633
3.51947
3.47939
3.44077
3.40359
3.36779
3.33329
3.30005
3.26799
3.23708
3.20725
3.17846
3.15066
3.12381
3.09787
3.0728
3.04856
3.02512
3.00244
2.9805
2.95926
2.9387
2.91879
2.89951
2.88082
2.86272
2.84517
2.82815
2.81165
2.79564
2.78012
2.76505
2.75043
2.73624
3.51947
3.47938
3.44077
3.40359
3.36779
3.33329
3.30004
3.26798
3.23707
3.20724
3.17844
3.15064
3.12379
3.09785
3.07277
3.04853
3.02509
3.00241
2.98047
2.95923
2.93867
2.91875
2.89946
2.88078
2.86267
2.84511
2.82809
2.81159
2.79558
2.78005
2.76498
2.75035
2.73615
3.51947
3.47938
3.44077
3.40359
3.36778
3.33328
3.30004
3.26798
3.23706
3.20723
3.17843
3.15063
3.12377
3.09783
3.07275
3.04851
3.02506
3.00238
2.98044
2.9592
2.93863
2.91872
2.89942
2.88073
2.86262
2.84506
2.82804
2.81153
2.79552
2.77998
2.76491
2.75028
2.73607
3.51947
3.47938
3.44077
3.40359
3.36778
3.33328
3.30003
3.26797
3.23705
3.20722
3.17842
3.15062
3.12376
3.09781
3.07273
3.04849
3.02504
3.00236
2.98041
2.95917
2.9386
2.91868
2.89939
2.88069
2.86258
2.84501
2.82799
2.81148
2.79546
2.77992
2.76484
2.7502
2.736
3.51947
3.47938
3.44077
3.40359
3.36778
3.33328
3.30003
3.26797
3.23705
3.20721
3.17841
3.15061
3.12375
3.0978
3.07272
3.04847
3.02502
3.00234
2.98039
2.95914
2.93857
2.91865
2.89935
2.88066
2.86254
2.84497
2.82794
2.81143
2.79541
2.77986
2.76478
2.75014
2.73592
3.51947
3.47938
3.44077
3.40359
3.36778
3.33328
3.30003
3.26796
3.23704
3.2072
3.1784
3.1506
3.12374
3.09779
3.07271
3.04846
3.025
3.00232
2.98037
2.95912
2.93855
2.91862
2.89932
2.88062
2.8625
2.84493
2.8279
2.81138
2.79536
2.77981
2.76472
2.75008
2.73586
3.51947
3.47938
3.44077
3.40359
3.36778
3.33328
3.30002
3.26796
3.23704
3.2072
3.1784
3.15059
3.12373
3.09778
3.07269
3.04844
3.02499
3.0023
2.98035
2.9591
2.93852
2.9186
2.8993
2.8806
2.86247
2.8449
2.82786
2.81134
2.79531
2.77976
2.76467
2.75002
2.7358
3.51947
3.47938
3.44077
3.40359
3.36778
3.33328
3.30002
3.26796
3.23703
3.2072
3.17839
3.15058
3.12372
3.09777
3.07269
3.04843
3.02498
3.00229
2.98033
2.95908
2.93851
2.91858
2.89928
2.88057
2.86244
2.84487
2.82783
2.81131
2.79527
2.77972
2.76463
2.74998
2.73575
3.51947
3.47938
3.44077
3.40359
3.36778
3.33327
3.30002
3.26796
3.23703
3.20719
3.17839
3.15058
3.12372
3.09777
3.07268
3.04843
3.02497
3.00228
2.98032
2.95907
2.93849
2.91856
2.89926
2.88055
2.86242
2.84485
2.8278
2.81128
2.79524
2.77968
2.76459
2.74993
2.7357
3.51947
3.47938
3.44077
3.40359
3.36778
3.33327
3.30002
3.26796
3.23703
3.20719
3.17839
3.15058
3.12372
3.09776
3.07268
3.04842
3.02497
3.00227
2.98032
2.95906
2.93848
2.91855
2.89925
2.88054
2.86241
2.84483
2.82778
2.81125
2.79522
2.77966
2.76456
2.7499
2.73567
3.51947
3.47938
3.44077
3.40359
3.36778
3.33327
3.30002
3.26796
3.23703
3.20719
3.17839
3.15058
3.12372
3.09776
3.07267
3.04842
3.02496
3.00227
2.98031
2.95906
2.93848
2.91855
2.89924
2.88053
2.8624
2.84482
2.82778
2.81125
2.79521
2.77965
2.76455
2.7499
2.73566
3.51947
3.47938
3.44077
3.40359
3.36778
3.33327
3.30002
3.26796
3.23703
3.20719
3.17839
3.15058
3.12372
3.09777
3.07269
3.04843
3.02498
3.00229
2.98033
2.95908
2.93851
2.91858
2.89928
2.88058
2.86245
2.84488
2.82784
2.81132
2.7953
2.77975
2.76466
2.75002
2.7358
3.51947
3.47938
3.44077
3.40359
3.36778
3.33328
3.30002
3.26796
3.23704
3.2072
3.1784
3.1506
3.12374
3.0978
3.07272
3.04849
3.02505
3.00238
2.98044
2.95922
2.93867
2.91878
2.89951
2.88085
2.86277
2.84524
2.82826
2.81179
2.79582
2.78033
2.7653
2.75072
2.73657
3.51947
3.47938
3.44077
3.40359
3.36778
3.33329
3.30005
3.268
3.23711
3.2073
3.17855
3.15079
3.124
3.09813
3.07314
3.049
3.02567
3.00312
2.98133
2.96025
2.93986
2.92014
2.90106
2.8826
2.86473
2.84742
2.83067
2.81444
2.79872
2.78349
2.76872
2.75442
2.74054
3.51947
3.47938
3.44078
3.40362
3.36785
3.33343
3.30029
3.26838
3.23767
3.2081
3.17963
3.15221
3.12582
3.10039
3.07591
3.05233
3.02961
3.00773
2.98664
2.96631
2.94671
2.92782
2.90959
2.89201
2.87504
2.85866
2.84285
2.82758
2.81282
2.79857
2.78479
2.77146
2.75857
3.51947
3.47942
3.44096
3.40413
3.36893
3.33532
3.30325
3.27266
3.2435
3.21571
3.18924
3.16402
3.14001
3.11715
3.09537
3.07462
3.05485
3.036
3.01802
3.00086
2.98447
2.96881
2.95383
2.93949
2.92576
2.9126
2.89998
2.88786
2.87622
2.86503
2.85427
2.84391
2.83392
3.5195
3.48076
3.44539
3.41321
3.38397
3.35746
3.33351
3.31194
3.29257
3.27522
3.2597
3.24582
3.23341
3.22231
3.21237
3.20346
3.19545
3.18824
3.18172
3.17581
3.17044
3.16552
3.16101
3.15686
3.153
3.14941
3.14605
3.14289
3.1399
3.13706
3.13434
3.13173
3.12922
3.52507
3.51486
3.52102
3.53648
3.55832
3.58502
3.61555
3.64898
3.68453
3.72149
3.75932
3.79758
3.83592
3.87403
3.91171
3.94878
3.9851
4.02058
4.05515
4.08875
4.12135
4.15292
4.18348
4.213
4.2415
4.269
4.29551
4.32105
4.34565
4.36933
4.39212
4.41404
4.43515
3.84201
4.38784
4.87755
5.34291
5.7954
6.23648
6.6641
7.0769
7.47487
7.8586
8.22882
8.58628
8.93174
9.2659
9.5894
9.90278
10.2065
10.5011
10.7867
11.0639
11.3329
11.594
11.8474
12.0934
12.3322
12.5641
12.7891
13.0077
13.2199
13.426
13.6261
13.8205
14.0093
30.2673
32.7691
35.3054
37.8488
40.3863
42.91
45.413
47.8883
50.3292
52.7298
55.0849
57.3897
59.6403
61.8335
63.9664
66.037
68.0437
69.9854
71.8613
73.6713
75.4155
77.0941
78.7079
80.2578
81.7449
83.1705
84.536
85.843
87.0929
88.2876
89.4289
90.5181
91.5584
155.319
280.527
356.914
455.136
594.515
720.853
786.294
792.845
765.3
724.975
683.285
644.464
609.222
577.03
547.181
519.178
492.812
468.101
445.178
424.176
405.139
387.988
372.52
358.451
345.464
333.26
321.588
310.263
299.165
288.234
277.465
266.898
256.605
246.675
237.2
228.257
219.894
212.124
204.923
198.233
191.974
186.056
180.387
174.88
169.456
164.04
158.566
152.971
147.2
141.216
135.004
128.578
121.986
115.309
108.655
102.151
95.9251
90.0964
84.7572
79.9619
75.7195
71.9934
68.7086
65.7648
63.0527
60.4693
57.9299
55.3753
52.7734
50.1179
47.424
44.7231
42.0577
39.4768
37.0316
34.7733
32.75
31.0033
29.5641
28.4449
27.6323
27.0827
26.7255
26.4744
26.243
25.9632
25.6007
25.1733
24.7675
24.5348
24.6346
25.1322
25.9463
26.901
27.8205
28.5838
29.1345
29.4476
29.5933
29.3223
25.1406
46.4538
62.7221
74.9148
93.9002
129.402
179.472
232.868
279.432
314.988
339.925
356.214
365.658
369.511
368.731
364.252
357.082
348.253
338.701
329.155
320.071
311.619
303.73
296.181
288.688
280.986
272.885
264.288
255.194
245.681
235.889
225.993
216.184
206.644
197.532
188.968
181.023
173.718
167.029
160.89
155.214
149.899
144.846
139.961
135.166
130.388
125.565
120.643
115.574
110.327
104.892
99.2861
93.5574
87.7839
82.0677
76.5256
71.2758
66.4247
62.0538
58.2089
54.8941
52.0721
49.6698
47.5906
45.7288
43.984
42.273
40.5363
38.7409
36.8781
34.96
33.0145
31.0796
29.1993
27.4201
25.7877
24.3455
23.1322
22.1774
21.4954
21.0777
20.8881
20.8646
20.9291
21.0032
21.0245
20.964
20.8438
20.7528
20.8402
21.2552
22.0489
23.1284
24.3145
25.4343
26.3725
27.0783
27.5311
27.7973
27.6845
9.86301
11.7127
14.0119
15.8483
17.54
20.5077
26.3412
35.8
48.4803
63.2647
78.9808
94.7149
109.806
123.755
136.194
146.921
155.934
163.42
169.69
175.065
179.779
183.908
187.367
189.952
191.416
191.545
190.211
187.4
183.216
177.856
171.59
164.718
157.543
150.34
143.339
136.709
130.559
124.935
119.83
115.193
110.946
106.999
103.259
99.6429
96.0796
92.5099
88.8844
85.1616
81.3085
77.3038
73.1434
68.8459
64.455
60.0388
55.6847
51.4902
47.5527
43.958
40.7706
38.0262
35.7276
33.8443
32.317
31.0657
30.001
29.0359
28.0959
27.1258
26.0926
24.9849
23.8097
22.5883
21.3514
20.1353
18.9782
17.9184
16.9928
16.2353
15.6744
15.3282
15.1972
15.2583
15.4644
15.751
16.05
16.3053
16.4895
16.6232
16.7904
17.1316
17.7863
18.7995
20.0788
21.4485
22.7397
23.8394
24.6975
25.2947
25.6886
25.7524
6.1328
6.32311
6.63859
6.96217
7.21264
7.49345
8.04845
9.1169
10.8153
13.1458
16.0428
19.4125
23.1535
27.1658
31.3599
35.6716
40.0785
44.6125
49.3575
54.4287
59.9282
65.8837
72.1892
78.5783
84.6516
89.9581
94.0966
96.8003
97.9774
97.7037
96.1841
93.6994
90.5553
87.0416
83.4061
79.8395
76.4722
73.3762
70.5736
68.046
65.7473
63.6162
61.5875
59.6007
57.6052
55.5614
53.4388
51.2141
48.8706
46.3994
43.8031
41.0989
38.3216
35.5222
32.7642
30.117
27.6479
25.4149
23.4606
21.8089
20.4626
19.4042
18.5973
17.9906
17.5237
17.1347
16.7673
16.3767
15.9335
15.4237
14.8484
14.22
13.5593
12.892
12.2462
11.6502
11.1323
10.7196
10.4377
10.3071
10.3379
10.5228
10.8339
11.2252
11.6423
12.0363
12.3798
12.6865
13.0285
13.5339
14.3348
15.4782
16.8814
18.3776
19.8019
21.0404
22.0397
22.7787
23.3015
23.5539
4.5053
4.54858
4.60845
4.6792
4.74098
4.79022
4.85967
5.00194
5.26024
5.65314
6.17745
6.81737
7.55256
8.36314
9.23314
10.1539
11.1277
12.1706
13.315
14.6105
16.1196
17.9082
20.0253
22.4763
25.1971
28.0458
30.8197
33.2978
35.2907
36.6801
37.4346
37.602
37.2859
36.6173
35.729
34.7377
33.7341
32.779
31.9044
31.1172
30.4049
29.7417
29.0959
28.4358
27.7336
26.9683
26.1253
25.1953
24.1737
23.06
21.8595
20.5847
19.2566
17.9047
16.5645
15.274
14.0693
12.9808
12.0311
11.2334
10.5917
10.101
9.74749
9.50919
9.35768
9.26056
9.18517
9.10251
8.99044
8.83563
8.63385
8.389
8.11131
7.81525
7.51771
7.23667
6.99064
6.79861
6.68009
6.65403
6.7355
6.93025
7.22931
7.60754
8.02811
8.45228
8.85343
9.23545
9.65306
10.217
11.0537
12.2216
13.6568
15.2073
16.712
18.0537
19.1719
20.0405
20.6855
21.1303
3.69184
3.70586
3.72105
3.73869
3.75625
3.77033
3.78347
3.80568
3.84978
3.92544
4.03623
4.18027
4.35243
4.5465
4.75683
4.97954
5.21346
5.46069
5.72703
6.02215
6.3594
6.7548
7.22457
7.78067
8.42476
9.14263
9.90185
10.6551
11.3489
11.9352
12.3812
12.6744
12.8223
12.8477
12.7815
12.6566
12.5029
12.3436
12.1942
12.0621
11.947
11.8424
11.7381
11.6216
11.4809
11.3061
11.0899
10.8282
10.5193
10.1636
9.76416
9.32628
8.85844
8.37209
7.88096
7.39984
6.94308
6.5232
6.15012
5.83078
5.56922
5.36663
5.22123
5.12803
5.07864
5.06156
5.06317
5.06938
5.06754
5.04805
5.00542
4.93845
4.84985
4.74538
4.63291
4.52164
4.42171
4.3442
4.30143
4.30702
4.37469
4.51528
4.73229
5.01825
5.35467
5.71663
6.08223
6.44746
6.84662
7.36689
8.1267
9.20244
10.5617
12.0757
13.5905
14.9836
16.1842
17.1581
17.909
18.5386
3.25499
3.25647
3.25768
3.25913
3.26083
3.26202
3.26245
3.26354
3.26828
3.28002
3.30112
3.33231
3.37289
3.42132
3.47584
3.53497
3.59796
3.6649
3.7369
3.81595
3.90492
4.00721
4.12634
4.26506
4.42423
4.60166
4.7914
4.98404
5.16804
5.3319
5.46629
5.56575
5.62917
5.65947
5.66245
5.6454
5.61582
5.58041
5.54432
5.51082
5.48114
5.4546
5.42891
5.40068
5.36604
5.32126
5.26328
5.18992
5.10004
4.99344
4.87077
4.7335
4.58399
4.42541
4.2617
4.09728
3.93667
3.78419
3.64363
3.51813
3.41014
3.32142
3.25297
3.20475
3.17552
3.16253
3.16165
3.16769
3.17514
3.17896
3.1753
3.162
3.13869
3.10669
3.06872
3.02854
2.99075
2.96078
2.94511
2.95154
2.98919
3.06737
3.19329
3.36906
3.5897
3.84378
4.11777
4.40516
4.72263
5.1292
5.7257
6.60449
7.77553
9.14833
10.5847
11.9595
13.1895
14.23
15.0586
15.8513
3.01046
3.00481
2.99899
2.99308
2.98723
2.98138
2.97538
2.96935
2.96383
2.95969
2.95781
2.95873
2.96259
2.96915
2.97801
2.98873
3.00108
3.01505
3.03094
3.04931
3.07095
3.09676
3.12761
3.16415
3.2065
3.25403
3.30513
3.35733
3.4075
3.45245
3.48936
3.51632
3.53251
3.53823
3.53468
3.52368
3.5073
3.48757
3.46624
3.44458
3.42334
3.4027
3.38232
3.36139
3.33887
3.31358
3.28442
3.25054
3.21138
3.16671
3.11667
3.06164
3.0023
2.93956
2.8745
2.80838
2.74254
2.67829
2.61688
2.55948
2.50709
2.46064
2.42089
2.38842
2.36343
2.34566
2.33426
2.32774
2.32421
2.32161
2.318
2.31193
2.30257
2.28984
2.27433
2.25726
2.24039
2.22602
2.21706
2.21733
2.23171
2.26599
2.32608
2.4164
2.53823
2.68884
2.86251
3.05462
3.2711
3.54462
3.94743
4.57158
5.46758
6.59821
7.85846
9.13003
10.3205
11.3736
12.2389
13.156
2.87244
2.86224
2.85201
2.84173
2.83145
2.82123
2.81103
2.80085
2.79075
2.78092
2.77159
2.76295
2.75513
2.74811
2.74184
2.73621
2.73117
2.72677
2.72312
2.72045
2.71905
2.71925
2.72133
2.72549
2.73173
2.73983
2.74925
2.75917
2.76857
2.77634
2.78149
2.78326
2.78119
2.77523
2.76562
2.75285
2.73758
2.72049
2.70224
2.68335
2.66419
2.64497
2.6257
2.60622
2.58624
2.56543
2.54341
2.51987
2.49457
2.46741
2.43841
2.4077
2.37552
2.34217
2.30801
2.27341
2.23876
2.20444
2.1708
2.13819
2.10693
2.07738
2.04986
2.02474
2.00231
1.98276
1.9661
1.95208
1.94024
1.92991
1.92035
1.91086
1.9009
1.89017
1.87867
1.86665
1.85467
1.84355
1.83447
1.82904
1.82955
1.83897
1.8609
1.89888
1.95555
2.0318
2.12654
2.23793
2.36747
2.52963
2.76595
3.1475
3.74294
4.56756
5.56702
6.64833
7.72046
8.71937
9.56851
10.5535
2.79622
2.78296
2.76974
2.75652
2.74333
2.73019
2.71711
2.70409
2.69113
2.67825
2.66549
2.65292
2.64055
2.62841
2.61646
2.60468
2.59307
2.58164
2.57048
2.55967
2.54937
2.53972
2.53084
2.52284
2.51573
2.50941
2.50371
2.4983
2.4928
2.48679
2.47984
2.47161
2.46186
2.45049
2.43752
2.42308
2.40739
2.39072
2.37332
2.35543
2.33726
2.31894
2.30054
2.28206
2.26344
2.24461
2.22543
2.2058
2.18564
2.16491
2.1436
2.12176
2.09947
2.07685
2.05399
2.03102
2.00801
1.98506
1.9622
1.93952
1.91707
1.89493
1.87324
1.85214
1.83183
1.81249
1.79426
1.77724
1.76141
1.74666
1.73278
1.71954
1.7067
1.69406
1.68152
1.66907
1.65681
1.64499
1.634
1.62445
1.61727
1.61381
1.61592
1.62574
1.6454
1.67651
1.71982
1.77532
1.84346
1.92952
2.05255
2.25477
2.595
3.11669
3.81606
4.64223
5.52301
6.39734
7.17065
8.15158
2.75601
2.74071
2.72546
2.71025
2.69507
2.67995
2.6649
2.64991
2.63498
2.62011
2.60531
2.59058
2.57592
2.56134
2.5468
2.53231
2.51784
2.50342
2.48906
2.47483
2.4608
2.44704
2.43364
2.42064
2.40808
2.39593
2.38412
2.37252
2.36096
2.34925
2.3372
2.32462
2.31139
2.29742
2.28267
2.26719
2.25104
2.23433
2.21718
2.19971
2.18205
2.16429
2.1465
2.12872
2.11096
2.09322
2.07547
2.05769
2.03985
2.02193
2.00394
1.98589
1.96778
1.94966
1.93153
1.91339
1.89525
1.87706
1.85879
1.84041
1.8219
1.80324
1.78448
1.76567
1.74692
1.72835
1.71009
1.69227
1.675
1.65832
1.64223
1.62672
1.6117
1.5971
1.58285
1.5689
1.55523
1.54187
1.52891
1.51653
1.50507
1.49507
1.48737
1.48307
1.48346
1.48985
1.50331
1.52451
1.55398
1.59349
1.65023
1.74407
1.91153
2.19511
2.61933
3.17449
3.82055
4.51356
5.1561
6.05443
2.73612
2.71951
2.70296
2.68645
2.66998
2.65355
2.63718
2.62086
2.6046
2.5884
2.57226
2.55616
2.54012
2.52412
2.50815
2.4922
2.47626
2.46033
2.44442
2.42856
2.41279
2.39717
2.38173
2.36653
2.35159
2.3369
2.32245
2.30817
2.29397
2.27976
2.26544
2.25089
2.23603
2.22079
2.20515
2.1891
2.17265
2.15587
2.13882
2.12158
2.10421
2.08679
2.06939
2.05206
2.03482
2.01771
2.00073
1.98388
1.96716
1.95058
1.93412
1.91778
1.90157
1.88545
1.86942
1.85342
1.83742
1.82133
1.80511
1.78869
1.77201
1.75504
1.73778
1.72026
1.70254
1.68469
1.66683
1.64905
1.63146
1.61416
1.59719
1.58059
1.56438
1.54854
1.53303
1.51783
1.50289
1.48818
1.47369
1.45945
1.44555
1.43219
1.41969
1.40858
1.39952
1.39331
1.39078
1.39266
1.39953
1.41215
1.43289
1.46944
1.53952
1.67095
1.8917
2.21501
2.63062
3.11915
3.59705
4.34431
2.72698
2.70962
2.6923
2.67501
2.65774
2.64051
2.62331
2.60616
2.58905
2.57199
2.55498
2.53801
2.52108
2.5042
2.48734
2.4705
2.45368
2.43688
2.42009
2.40334
2.38666
2.37008
2.35363
2.33735
2.32126
2.30537
2.28966
2.27412
2.25869
2.2433
2.2279
2.21241
2.19676
2.18091
2.16482
2.14848
2.1319
2.11509
2.09812
2.08101
2.06384
2.04665
2.02951
2.01245
1.99553
1.97877
1.9622
1.94582
1.92965
1.91368
1.89793
1.88237
1.86699
1.85176
1.83663
1.82157
1.80649
1.79133
1.77602
1.76048
1.74465
1.7285
1.71202
1.69522
1.67813
1.66082
1.64337
1.62585
1.60835
1.59096
1.57374
1.55675
1.54
1.52352
1.5073
1.4913
1.4755
1.45987
1.44435
1.42894
1.41364
1.3985
1.38365
1.36931
1.35579
1.34352
1.333
1.32476
1.31927
1.31701
1.31876
1.32709
1.34901
1.39846
1.49477
1.65556
1.88679
2.18896
2.50167
3.05922
2.72309
2.70534
2.6876
2.66988
2.65217
2.63448
2.61681
2.59917
2.58156
2.56398
2.54644
2.52893
2.51146
2.49402
2.47661
2.45923
2.44187
2.42452
2.40721
2.38993
2.37272
2.35559
2.33857
2.32169
2.30497
2.28843
2.27205
2.25584
2.23974
2.22373
2.20776
2.19176
2.17569
2.15951
2.14319
2.1267
2.11006
2.09326
2.07635
2.05935
2.04232
2.02529
2.00832
1.99145
1.97471
1.95815
1.94178
1.92563
1.9097
1.89401
1.87854
1.86329
1.84824
1.83335
1.81858
1.80387
1.78915
1.77436
1.75941
1.74424
1.7288
1.71304
1.69696
1.68055
1.66385
1.6469
1.62976
1.6125
1.59519
1.57791
1.5607
1.54361
1.52668
1.50992
1.49334
1.47691
1.46061
1.44441
1.42827
1.41216
1.39606
1.37997
1.36394
1.34806
1.33249
1.31742
1.30313
1.28993
1.27813
1.26804
1.25999
1.25477
1.25474
1.26553
1.29709
1.36221
1.47054
1.63206
1.80893
2.17837
2.72154
2.7036
2.68565
2.66771
2.64978
2.63185
2.61394
2.59603
2.57815
2.56028
2.54244
2.52463
2.50684
2.48907
2.47134
2.45362
2.43593
2.41827
2.40063
2.38303
2.36549
2.34803
2.33067
2.31343
2.29633
2.27939
2.2626
2.24597
2.22947
2.21306
2.19673
2.18041
2.16407
2.14768
2.13121
2.11463
2.09795
2.08117
2.06431
2.04739
2.03045
2.01354
1.99668
1.97992
1.9633
1.94684
1.93057
1.91451
1.89868
1.88307
1.86769
1.85253
1.83756
1.82275
1.80806
1.79342
1.77879
1.76409
1.74925
1.7342
1.71891
1.70333
1.68744
1.67126
1.65479
1.63807
1.62117
1.60412
1.587
1.56985
1.55273
1.53567
1.51871
1.50185
1.48511
1.46846
1.4519
1.43538
1.41888
1.40237
1.38582
1.36922
1.3526
1.33599
1.31947
1.30314
1.28714
1.27164
1.25682
1.24284
1.22989
1.21822
1.20854
1.20278
1.20501
1.22195
1.26072
1.33218
1.41536
1.62987
2.72093
2.7029
2.68486
2.66682
2.64878
2.63073
2.61269
2.59466
2.57664
2.55862
2.54062
2.52264
2.50468
2.48674
2.46882
2.45092
2.43304
2.41518
2.39736
2.37957
2.36183
2.34417
2.32659
2.30913
2.29178
2.27458
2.25752
2.2406
2.22381
2.20713
2.19053
2.17397
2.15743
2.14088
2.12428
2.10763
2.09091
2.07413
2.0573
2.04044
2.02357
2.00672
1.98994
1.97325
1.95669
1.94028
1.92405
1.90802
1.8922
1.87659
1.8612
1.84601
1.831
1.81615
1.80141
1.78672
1.77205
1.75731
1.74245
1.72742
1.71216
1.69665
1.68086
1.66479
1.64847
1.63192
1.61518
1.5983
1.58132
1.5643
1.54728
1.53029
1.51335
1.49648
1.47968
1.46294
1.44623
1.42954
1.41284
1.39611
1.37931
1.36245
1.34553
1.32857
1.31161
1.29472
1.27797
1.26144
1.24524
1.22945
1.21414
1.19944
1.18554
1.17304
1.16334
1.15925
1.16435
1.18626
1.21458
1.31961
2.72066
2.70259
2.68451
2.66642
2.64833
2.63023
2.61213
2.59403
2.57594
2.55785
2.53977
2.52171
2.50365
2.48561
2.46759
2.44959
2.4316
2.41364
2.39571
2.37781
2.35996
2.34217
2.32447
2.30685
2.28934
2.27196
2.25471
2.23758
2.22058
2.20368
2.18687
2.17013
2.15342
2.13672
2.12002
2.10329
2.08653
2.06973
2.05291
2.03607
2.01924
2.00244
1.98571
1.96906
1.95253
1.93614
1.91991
1.90387
1.88802
1.87237
1.85692
1.84165
1.82656
1.8116
1.79676
1.78197
1.76719
1.75237
1.73744
1.72236
1.70708
1.69158
1.67584
1.65984
1.64361
1.62718
1.61056
1.59381
1.57696
1.56005
1.54312
1.5262
1.50931
1.49245
1.47564
1.45885
1.44208
1.4253
1.40849
1.39163
1.37471
1.3577
1.34063
1.3235
1.30635
1.28921
1.27214
1.25517
1.23836
1.22175
1.20537
1.18927
1.17352
1.15831
1.14405
1.13176
1.12281
1.12122
1.12254
1.16023
2.7205
2.70241
2.68431
2.6662
2.64808
2.62995
2.61182
2.59369
2.57556
2.55744
2.53931
2.5212
2.5031
2.48501
2.46693
2.44887
2.43082
2.4128
2.3948
2.37684
2.35892
2.34106
2.32327
2.30555
2.28793
2.27042
2.25302
2.23574
2.21857
2.20151
2.18453
2.16763
2.15078
2.13396
2.11715
2.10035
2.08353
2.06671
2.04987
2.03304
2.01623
1.99946
1.98274
1.96612
1.9496
1.93321
1.91697
1.9009
1.885
1.86929
1.85376
1.8384
1.82319
1.80812
1.79315
1.77824
1.76335
1.74841
1.73339
1.71824
1.70293
1.68741
1.67168
1.65573
1.63957
1.62321
1.60669
1.59004
1.5733
1.55649
1.53964
1.52279
1.50594
1.48911
1.4723
1.45549
1.43869
1.42186
1.405
1.38807
1.37108
1.35401
1.33687
1.31967
1.30243
1.28519
1.26798
1.25083
1.23376
1.21679
1.19995
1.18323
1.16668
1.15035
1.13438
1.1191
1.10497
1.09361
1.08393
1.08566
2.72038
2.70228
2.68416
2.66604
2.6479
2.62976
2.61161
2.59346
2.57531
2.55715
2.53901
2.52087
2.50273
2.48461
2.46649
2.4484
2.43032
2.41226
2.39422
2.37622
2.35825
2.34034
2.32248
2.3047
2.287
2.26939
2.25188
2.23448
2.21718
2.19997
2.18286
2.16582
2.14884
2.13191
2.11501
2.09813
2.08126
2.0644
2.04754
2.03071
2.0139
1.99713
1.98043
1.96381
1.94729
1.93089
1.91463
1.89851
1.88257
1.86678
1.85117
1.83571
1.8204
1.80521
1.79011
1.77508
1.76006
1.74501
1.72989
1.71467
1.6993
1.68376
1.66803
1.6521
1.63599
1.6197
1.60326
1.58669
1.57003
1.5533
1.53653
1.51974
1.50293
1.48613
1.46933
1.45253
1.43571
1.41886
1.40196
1.38501
1.36798
1.35088
1.33371
1.31648
1.29922
1.28194
1.26468
1.24745
1.23028
1.21317
1.19613
1.17915
1.16226
1.14549
1.12887
1.11254
1.09664
1.08159
1.06822
1.05328
2.72028
2.70217
2.68404
2.6659
2.64775
2.62959
2.61143
2.59326
2.57509
2.55692
2.53876
2.5206
2.50244
2.48429
2.46615
2.44803
2.42992
2.41183
2.39377
2.37573
2.35773
2.33978
2.32187
2.30404
2.28627
2.26859
2.25099
2.23349
2.21608
2.19876
2.18153
2.16438
2.14729
2.13025
2.11326
2.09631
2.07938
2.06247
2.04559
2.02873
2.01192
1.99515
1.97844
1.96182
1.94529
1.92887
1.91258
1.89643
1.88043
1.86458
1.84888
1.83333
1.81791
1.80261
1.78739
1.77223
1.7571
1.74194
1.72673
1.71143
1.69601
1.68043
1.66469
1.64878
1.63271
1.61647
1.60009
1.5836
1.56701
1.55035
1.53364
1.5169
1.50015
1.48338
1.46659
1.4498
1.43297
1.41611
1.3992
1.38223
1.36519
1.34808
1.33091
1.31368
1.29641
1.27913
1.26186
1.24461
1.22741
1.21024
1.19312
1.17605
1.15903
1.14208
1.12523
1.10852
1.09207
1.07571
1.06131
1.03957
2.72018
2.70206
2.68392
2.66577
2.64761
2.62944
2.61127
2.59308
2.5749
2.55672
2.53853
2.52035
2.50218
2.48401
2.46585
2.4477
2.42957
2.41146
2.39337
2.37531
2.35728
2.33929
2.32135
2.30346
2.28564
2.26789
2.25022
2.23263
2.21513
2.19772
2.18039
2.16313
2.14594
2.12882
2.11174
2.09472
2.07773
2.06077
2.04385
2.02697
2.01014
1.99336
1.97664
1.96
1.94346
1.92702
1.9107
1.89451
1.87845
1.86254
1.84677
1.83112
1.81561
1.8002
1.78487
1.7696
1.75435
1.7391
1.7238
1.70843
1.69295
1.67734
1.66159
1.64569
1.62964
1.61345
1.59712
1.58069
1.56416
1.54756
1.53091
1.51422
1.49751
1.48077
1.46401
1.44722
1.4304
1.41354
1.39663
1.37965
1.36261
1.34551
1.32834
1.31112
1.29387
1.2766
1.25934
1.2421
1.22489
1.20771
1.19057
1.17347
1.15641
1.13941
1.12249
1.10566
1.08904
1.07224
1.05762
1.03339
2.72009
2.70196
2.68381
2.66565
2.64748
2.6293
2.61111
2.59292
2.57472
2.55652
2.53832
2.52013
2.50193
2.48375
2.46557
2.4474
2.42925
2.41112
2.393
2.37491
2.35685
2.33883
2.32085
2.30293
2.28506
2.26725
2.24952
2.23186
2.21428
2.19678
2.17936
2.16201
2.14473
2.12752
2.11037
2.09327
2.07622
2.05922
2.04226
2.02535
2.00849
1.99169
1.97495
1.9583
1.94174
1.92527
1.90892
1.89269
1.87658
1.86061
1.84476
1.82904
1.81343
1.79792
1.7825
1.76712
1.75178
1.73643
1.72105
1.70561
1.69008
1.67444
1.65867
1.64278
1.62675
1.61059
1.59431
1.57793
1.56146
1.54491
1.52831
1.51167
1.49499
1.47828
1.46154
1.44477
1.42796
1.41111
1.3942
1.37724
1.3602
1.34311
1.32596
1.30876
1.29153
1.27429
1.25705
1.23982
1.22262
1.20546
1.18832
1.17123
1.15417
1.13717
1.12024
1.10339
1.08673
1.0698
1.05515
1.0301
2.72
2.70186
2.68371
2.66554
2.64736
2.62917
2.61097
2.59276
2.57455
2.55634
2.53813
2.51991
2.50171
2.4835
2.46531
2.44712
2.42895
2.41079
2.39265
2.37454
2.35645
2.3384
2.32039
2.30242
2.28451
2.26665
2.24886
2.23113
2.21348
2.19591
2.17841
2.16098
2.14363
2.12634
2.10911
2.09195
2.07484
2.05778
2.04078
2.02383
2.00694
1.99011
1.97336
1.95668
1.94009
1.9236
1.90722
1.89094
1.87479
1.85876
1.84285
1.82705
1.81136
1.79576
1.78024
1.76478
1.74934
1.73391
1.71846
1.70295
1.68737
1.6717
1.65592
1.64002
1.62401
1.60788
1.59164
1.57531
1.55888
1.54239
1.52584
1.50924
1.4926
1.47592
1.45921
1.44246
1.42567
1.40883
1.39193
1.37498
1.35797
1.34089
1.32377
1.30659
1.28939
1.27218
1.25497
1.23777
1.22059
1.20344
1.18633
1.16925
1.15222
1.13524
1.11833
1.10149
1.08485
1.06789
1.05326
1.02797
2.71992
2.70177
2.68361
2.66543
2.64724
2.62904
2.61083
2.59261
2.57439
2.55617
2.53794
2.51971
2.50149
2.48327
2.46506
2.44685
2.42866
2.41048
2.39232
2.37418
2.35607
2.33799
2.31994
2.30194
2.28399
2.26608
2.24824
2.23046
2.21274
2.1951
2.17753
2.16003
2.1426
2.12524
2.10795
2.09072
2.07355
2.05644
2.03939
2.0224
2.00548
1.98862
1.97184
1.95514
1.93852
1.922
1.90558
1.88927
1.87307
1.85698
1.84101
1.82515
1.80938
1.79371
1.7781
1.76256
1.74704
1.73153
1.71601
1.70045
1.68482
1.66912
1.65333
1.63744
1.62144
1.60533
1.58913
1.57284
1.55646
1.54002
1.52352
1.50696
1.49036
1.47372
1.45704
1.44032
1.42355
1.40673
1.38986
1.37293
1.35594
1.33889
1.32179
1.30466
1.28749
1.27031
1.25313
1.23596
1.21882
1.2017
1.18461
1.16756
1.15055
1.1336
1.11672
1.09991