/*--------------------------------*- C++ -*----------------------------------*\
  =========                 |
  \\      /  F ield         | OpenFOAM: The Open Source CFD Toolbox
   \\    /   O peration     | Website:  https://openfoam.org
    \\  /    A nd           | Version:  10
     \\/     M anipulation  |
\*---------------------------------------------------------------------------*/
FoamFile
{
    format      ascii;
    class       volScalarField;
    location    "1200";
    object      k;
}
// * * * * * * * * * * * * * * * * * * * * * * * * * * * * * * * * * * * * * //

dimensions      [0 2 -2 0 0 0 0];

internalField   nonuniform List<scalar> 
6820
(
0.19714
0.192517
0.18828
0.184033
0.179769
0.175612
0.171677
0.168043
0.164747
0.161799
0.159192
0.156907
0.154923
0.153213
0.151753
0.150517
0.149483
0.14863
0.147938
0.14739
0.14697
0.146662
0.146456
0.146338
0.146299
0.146331
0.146414
0.146595
0.146708
0.147011
0.146859
0.156338
0.0742581
0.207249
0.212376
0.210056
0.205416
0.200993
0.197547
0.195136
0.193606
0.192768
0.192458
0.192549
0.192941
0.193562
0.194357
0.195285
0.196314
0.197419
0.19858
0.199783
0.201015
0.202266
0.203528
0.204797
0.206067
0.207338
0.208609
0.209887
0.211189
0.212497
0.214009
0.215384
0.219838
0.210494
0.200993
0.203847
0.204551
0.203319
0.201178
0.198804
0.196517
0.19445
0.192647
0.191111
0.18983
0.188785
0.187954
0.187314
0.186844
0.186525
0.186338
0.186268
0.186298
0.186418
0.186616
0.186881
0.187205
0.18758
0.188002
0.188465
0.188965
0.189508
0.190086
0.190729
0.191389
0.19248
0.192275
0.199593
0.199508
0.199518
0.199121
0.198258
0.197061
0.195675
0.194212
0.192747
0.191324
0.189972
0.188706
0.187534
0.18646
0.185483
0.184599
0.183806
0.183098
0.18247
0.181917
0.181433
0.181014
0.180655
0.180351
0.180098
0.179894
0.179736
0.179624
0.179556
0.179539
0.179567
0.179708
0.179821
0.199411
0.198475
0.197748
0.197076
0.196333
0.195471
0.194494
0.193431
0.192315
0.191174
0.190031
0.188903
0.187803
0.18674
0.185719
0.184745
0.183819
0.182943
0.182116
0.181337
0.180605
0.17992
0.179278
0.17868
0.178121
0.177603
0.177122
0.176679
0.176272
0.175905
0.175575
0.175293
0.175051
0.199394
0.198255
0.197227
0.19629
0.195404
0.194526
0.193631
0.192711
0.191765
0.190801
0.189826
0.188848
0.187877
0.186918
0.185976
0.185056
0.184161
0.183293
0.182453
0.181643
0.180864
0.180115
0.179396
0.178707
0.178047
0.177417
0.176815
0.176242
0.175697
0.17518
0.174692
0.174233
0.173802
0.199394
0.198216
0.197096
0.196039
0.195039
0.194083
0.193155
0.192245
0.191343
0.190447
0.189554
0.188666
0.187784
0.186911
0.186049
0.185201
0.184369
0.183553
0.182756
0.181979
0.181222
0.180485
0.179771
0.179077
0.178406
0.177755
0.177127
0.176519
0.175934
0.175369
0.174827
0.174306
0.173806
0.199395
0.19821
0.197068
0.19597
0.194919
0.193911
0.192942
0.192005
0.191095
0.190207
0.189337
0.188483
0.187644
0.186819
0.186008
0.185211
0.184428
0.183661
0.182909
0.182172
0.181453
0.180749
0.180063
0.179393
0.178741
0.178105
0.177487
0.176886
0.176302
0.175736
0.175187
0.174655
0.174141
0.199395
0.198209
0.197062
0.195954
0.194885
0.193855
0.192862
0.191903
0.190976
0.190077
0.189205
0.188357
0.18753
0.186722
0.185934
0.185163
0.184409
0.183672
0.18295
0.182245
0.181556
0.180882
0.180223
0.17958
0.178952
0.17834
0.177742
0.177159
0.176592
0.176039
0.175501
0.174979
0.174471
0.199395
0.198209
0.197061
0.195951
0.194877
0.193839
0.192835
0.191865
0.190927
0.190019
0.189139
0.188286
0.187458
0.186654
0.185871
0.18511
0.184368
0.183645
0.18294
0.182252
0.181581
0.180926
0.180287
0.179664
0.179055
0.178462
0.177882
0.177318
0.176767
0.17623
0.175708
0.175199
0.174704
0.199395
0.198209
0.197061
0.19595
0.194875
0.193834
0.192827
0.191853
0.190909
0.189996
0.189111
0.188253
0.187422
0.186615
0.185832
0.185072
0.184333
0.183615
0.182916
0.182235
0.181573
0.180928
0.1803
0.179688
0.179091
0.17851
0.177943
0.177391
0.176853
0.176329
0.175818
0.175321
0.174837
0.199395
0.198209
0.19706
0.195949
0.194874
0.193833
0.192825
0.191848
0.190903
0.189987
0.1891
0.188239
0.187405
0.186597
0.185812
0.18505
0.184311
0.183593
0.182895
0.182217
0.181558
0.180917
0.180293
0.179686
0.179096
0.178521
0.177961
0.177416
0.176885
0.176369
0.175866
0.175376
0.1749
0.199395
0.198209
0.19706
0.195949
0.194873
0.193832
0.192823
0.191847
0.190901
0.189984
0.189095
0.188234
0.187398
0.186588
0.185802
0.18504
0.184299
0.183581
0.182883
0.182205
0.181546
0.180906
0.180283
0.179678
0.17909
0.178517
0.17796
0.177419
0.176892
0.176379
0.17588
0.175395
0.174922
0.199395
0.198209
0.19706
0.195948
0.194873
0.193831
0.192823
0.191846
0.190899
0.189982
0.189093
0.188231
0.187395
0.186584
0.185797
0.185034
0.184293
0.183574
0.182875
0.182197
0.181538
0.180898
0.180275
0.179671
0.179083
0.178511
0.177955
0.177415
0.176889
0.176378
0.17588
0.175397
0.174926
0.199395
0.198208
0.19706
0.195948
0.194872
0.193831
0.192822
0.191845
0.190898
0.189981
0.189092
0.188229
0.187393
0.186582
0.185795
0.185031
0.18429
0.18357
0.182871
0.182192
0.181533
0.180892
0.18027
0.179665
0.179077
0.178506
0.17795
0.17741
0.176884
0.176373
0.175876
0.175393
0.174923
0.199395
0.198208
0.19706
0.195948
0.194872
0.19383
0.192821
0.191844
0.190897
0.18998
0.18909
0.188228
0.187392
0.18658
0.185793
0.185029
0.184287
0.183567
0.182868
0.182189
0.18153
0.180889
0.180266
0.179661
0.179073
0.178501
0.177946
0.177405
0.17688
0.176369
0.175872
0.175388
0.174918
0.199395
0.198208
0.19706
0.195948
0.194872
0.19383
0.192821
0.191844
0.190897
0.189979
0.189089
0.188227
0.18739
0.186579
0.185791
0.185027
0.184285
0.183565
0.182866
0.182187
0.181527
0.180886
0.180264
0.179658
0.17907
0.178498
0.177942
0.177402
0.176876
0.176365
0.175868
0.175384
0.174914
0.199395
0.198208
0.19706
0.195948
0.194872
0.19383
0.192821
0.191843
0.190896
0.189978
0.189089
0.188226
0.187389
0.186578
0.18579
0.185026
0.184284
0.183564
0.182864
0.182185
0.181525
0.180884
0.180261
0.179656
0.179067
0.178495
0.177939
0.177399
0.176873
0.176361
0.175864
0.17538
0.174909
0.199395
0.198208
0.197059
0.195948
0.194871
0.193829
0.19282
0.191843
0.190896
0.189978
0.189088
0.188225
0.187388
0.186576
0.185789
0.185024
0.184282
0.183562
0.182863
0.182183
0.181523
0.180882
0.180259
0.179654
0.179065
0.178493
0.177937
0.177396
0.17687
0.176358
0.175861
0.175377
0.174905
0.199395
0.198208
0.197059
0.195948
0.194871
0.193829
0.19282
0.191842
0.190895
0.189977
0.189087
0.188224
0.187387
0.186575
0.185788
0.185023
0.184281
0.183561
0.182861
0.182182
0.181522
0.18088
0.180257
0.179652
0.179063
0.178491
0.177934
0.177393
0.176867
0.176355
0.175857
0.175373
0.174902
0.199395
0.198208
0.197059
0.195947
0.194871
0.193829
0.19282
0.191842
0.190895
0.189977
0.189087
0.188224
0.187387
0.186575
0.185787
0.185022
0.18428
0.18356
0.18286
0.18218
0.18152
0.180879
0.180256
0.17965
0.179061
0.178489
0.177932
0.177391
0.176865
0.176353
0.175855
0.17537
0.174898
0.199395
0.198208
0.197059
0.195947
0.194871
0.193829
0.192819
0.191842
0.190894
0.189976
0.189086
0.188223
0.187386
0.186574
0.185786
0.185021
0.184279
0.183558
0.182859
0.182179
0.181519
0.180877
0.180254
0.179648
0.179059
0.178487
0.17793
0.177389
0.176862
0.17635
0.175852
0.175367
0.174895
0.199395
0.198208
0.197059
0.195947
0.194871
0.193829
0.192819
0.191842
0.190894
0.189976
0.189086
0.188222
0.187385
0.186573
0.185785
0.18502
0.184278
0.183557
0.182858
0.182178
0.181517
0.180876
0.180252
0.179646
0.179057
0.178485
0.177928
0.177386
0.17686
0.176347
0.175849
0.175364
0.174892
0.199395
0.198208
0.197059
0.195947
0.194871
0.193829
0.192819
0.191841
0.190894
0.189976
0.189085
0.188222
0.187385
0.186573
0.185785
0.18502
0.184277
0.183557
0.182857
0.182177
0.181516
0.180875
0.180251
0.179645
0.179056
0.178483
0.177926
0.177384
0.176858
0.176345
0.175847
0.175361
0.174889
0.199395
0.198208
0.197059
0.195947
0.194871
0.193828
0.192819
0.191841
0.190894
0.189975
0.189085
0.188222
0.187384
0.186572
0.185784
0.185019
0.184277
0.183556
0.182856
0.182176
0.181515
0.180873
0.18025
0.179644
0.179054
0.178482
0.177924
0.177383
0.176856
0.176343
0.175844
0.175359
0.174886
0.199395
0.198208
0.197059
0.195947
0.194871
0.193828
0.192819
0.191841
0.190893
0.189975
0.189085
0.188221
0.187384
0.186572
0.185784
0.185019
0.184276
0.183555
0.182855
0.182175
0.181514
0.180872
0.180249
0.179642
0.179053
0.17848
0.177923
0.177381
0.176854
0.176341
0.175842
0.175357
0.174884
0.199395
0.198208
0.197059
0.195947
0.194871
0.193828
0.192819
0.191841
0.190893
0.189975
0.189085
0.188221
0.187384
0.186571
0.185783
0.185018
0.184276
0.183555
0.182854
0.182174
0.181514
0.180872
0.180248
0.179641
0.179052
0.178479
0.177921
0.177379
0.176852
0.176339
0.17584
0.175354
0.174882
0.199395
0.198208
0.197059
0.195947
0.194871
0.193828
0.192819
0.191841
0.190893
0.189975
0.189084
0.188221
0.187384
0.186571
0.185783
0.185018
0.184275
0.183554
0.182854
0.182174
0.181513
0.180871
0.180247
0.17964
0.179051
0.178478
0.17792
0.177378
0.176851
0.176338
0.175838
0.175353
0.17488
0.199395
0.198208
0.197059
0.195947
0.194871
0.193828
0.192819
0.191841
0.190893
0.189975
0.189084
0.188221
0.187383
0.186571
0.185783
0.185018
0.184275
0.183554
0.182853
0.182173
0.181512
0.18087
0.180246
0.17964
0.17905
0.178477
0.177919
0.177377
0.176849
0.176336
0.175837
0.175351
0.174878
0.199395
0.198208
0.197059
0.195947
0.194871
0.193828
0.192819
0.191841
0.190893
0.189975
0.189084
0.188221
0.187383
0.186571
0.185783
0.185017
0.184275
0.183554
0.182853
0.182173
0.181512
0.18087
0.180246
0.179639
0.17905
0.178476
0.177918
0.177376
0.176849
0.176335
0.175836
0.17535
0.174877
0.199395
0.198208
0.197059
0.195947
0.194871
0.193828
0.192819
0.191841
0.190893
0.189975
0.189084
0.188221
0.187383
0.186571
0.185783
0.185017
0.184275
0.183553
0.182853
0.182173
0.181512
0.18087
0.180246
0.179639
0.179049
0.178476
0.177918
0.177376
0.176848
0.176334
0.175835
0.175349
0.174875
0.199395
0.198208
0.197059
0.195947
0.194871
0.193828
0.192819
0.191841
0.190893
0.189975
0.189084
0.188221
0.187384
0.186571
0.185783
0.185018
0.184275
0.183554
0.182854
0.182173
0.181512
0.18087
0.180246
0.179639
0.17905
0.178476
0.177918
0.177376
0.176848
0.176334
0.175835
0.175348
0.174875
0.199395
0.198208
0.197059
0.195947
0.194871
0.193828
0.192819
0.191841
0.190893
0.189975
0.189085
0.188221
0.187384
0.186572
0.185784
0.185019
0.184276
0.183555
0.182855
0.182174
0.181513
0.180871
0.180247
0.17964
0.17905
0.178477
0.177919
0.177376
0.176848
0.176334
0.175834
0.175347
0.174873
0.199395
0.198208
0.197059
0.195947
0.194871
0.193829
0.19282
0.191842
0.190895
0.189977
0.189088
0.188225
0.187388
0.186577
0.185789
0.185024
0.184282
0.183561
0.18286
0.18218
0.181519
0.180876
0.180251
0.179643
0.179052
0.178477
0.177918
0.177374
0.176844
0.176328
0.175826
0.175337
0.174861
0.199395
0.198208
0.197059
0.195948
0.194872
0.193831
0.192824
0.191848
0.190902
0.189985
0.189097
0.188235
0.187399
0.186588
0.1858
0.185034
0.184291
0.183569
0.182866
0.182184
0.18152
0.180874
0.180245
0.179633
0.179038
0.178458
0.177893
0.177343
0.176808
0.176286
0.175777
0.175281
0.174798
0.199395
0.198209
0.197062
0.195955
0.194886
0.193853
0.192853
0.191885
0.190945
0.190032
0.189145
0.188283
0.187445
0.186629
0.185836
0.185063
0.184311
0.183579
0.182866
0.182171
0.181494
0.180834
0.180191
0.179564
0.178953
0.178357
0.177776
0.177209
0.176656
0.176116
0.17559
0.175076
0.174575
0.199395
0.198223
0.197107
0.196032
0.194988
0.193971
0.192978
0.192008
0.191061
0.190136
0.189233
0.188352
0.187492
0.186652
0.185832
0.185033
0.184252
0.18349
0.182747
0.182021
0.181313
0.180621
0.179946
0.179287
0.178643
0.178014
0.1774
0.1768
0.176214
0.175641
0.175082
0.174535
0.174001
0.19941
0.198318
0.197296
0.1963
0.195309
0.194317
0.193327
0.192344
0.191371
0.190415
0.189476
0.188558
0.187661
0.186785
0.185931
0.185098
0.184286
0.183493
0.18272
0.181966
0.18123
0.180511
0.17981
0.179125
0.178456
0.177802
0.177164
0.17654
0.17593
0.175335
0.174753
0.174184
0.173628
0.199716
0.19914
0.198471
0.197765
0.197073
0.196421
0.195815
0.195254
0.194739
0.194267
0.193837
0.193447
0.193096
0.192782
0.192502
0.192255
0.192038
0.19185
0.191688
0.191551
0.191436
0.191343
0.191269
0.191214
0.191174
0.19115
0.191141
0.191144
0.191159
0.191186
0.191222
0.191269
0.191324
0.205424
0.216593
0.22763
0.238434
0.248976
0.259243
0.269229
0.278925
0.288324
0.297421
0.306213
0.314696
0.32287
0.330738
0.338301
0.345563
0.352528
0.359203
0.365594
0.371707
0.377551
0.383132
0.388461
0.393544
0.39839
0.403009
0.407408
0.411596
0.415582
0.419373
0.422979
0.426407
0.429668
0.676537
1.16402
1.27405
1.296
1.42432
1.61628
1.76923
1.8517
1.88268
1.88785
1.8832
1.87559
1.86683
1.85668
1.84459
1.83043
1.81478
1.79878
1.78389
1.77141
1.7622
1.75647
1.75373
1.75296
1.75287
1.75211
1.74952
1.74428
1.73596
1.72452
1.71034
1.69409
1.67666
1.65904
1.64218
1.62686
1.61364
1.60276
1.59412
1.58737
1.58195
1.5772
1.57244
1.567
1.56024
1.55152
1.54016
1.5255
1.50691
1.48389
1.45619
1.4239
1.38752
1.34795
1.30644
1.2645
1.2237
1.18556
1.15129
1.12163
1.09674
1.07615
1.05885
1.04348
1.02856
1.01271
0.994882
0.974381
0.950948
0.924705
0.896101
0.865838
0.834802
0.804013
0.774579
0.747668
0.724473
0.706137
0.693591
0.687291
0.686933
0.691319
0.698513
0.706263
0.712547
0.716098
0.716989
0.7174
0.722195
0.737836
0.768471
0.81192
0.860441
0.905609
0.942063
0.967947
0.983725
0.990584
0.991375
0.979886
0.254911
0.369497
0.447965
0.478574
0.501829
0.561547
0.668072
0.798755
0.926327
1.03624
1.12593
1.1979
1.25505
1.29941
1.3326
1.35642
1.37312
1.38526
1.39535
1.40546
1.41689
1.42996
1.44412
1.45817
1.47057
1.47982
1.48472
1.48454
1.4791
1.46874
1.45422
1.43664
1.41725
1.39731
1.37799
1.36023
1.34467
1.33159
1.32094
1.31238
1.30534
1.29915
1.29312
1.2866
1.27898
1.26968
1.2581
1.24367
1.22581
1.20409
1.17825
1.14837
1.11489
1.07862
1.04073
1.00262
0.965778
0.931652
0.901427
0.875877
0.855231
0.839124
0.826651
0.816526
0.807305
0.797611
0.786326
0.7727
0.756388
0.737429
0.716186
0.693277
0.669503
0.64579
0.62315
0.60265
0.585393
0.572461
0.564779
0.562877
0.566594
0.574909
0.586047
0.597869
0.608405
0.616391
0.621863
0.626954
0.636524
0.657096
0.692814
0.741282
0.794446
0.843704
0.883714
0.912731
0.931327
0.940763
0.943872
0.935275
0.194297
0.206688
0.222638
0.23386
0.239945
0.24703
0.262343
0.290218
0.33063
0.380431
0.435699
0.493156
0.550391
0.605646
0.657706
0.705957
0.750476
0.791969
0.831538
0.870301
0.908989
0.947664
0.985633
1.02158
1.05386
1.08083
1.10117
1.11415
1.11965
1.11822
1.11092
1.09912
1.08439
1.06823
1.05202
1.03684
1.02344
1.0122
1.00317
0.99607
0.990413
0.985582
0.98093
0.975849
0.969794
0.962275
0.952824
0.940982
0.926308
0.908436
0.887162
0.862531
0.834899
0.804954
0.773681
0.742279
0.712047
0.684241
0.659928
0.639847
0.624295
0.613065
0.605467
0.600428
0.596672
0.592919
0.588075
0.581349
0.572313
0.560895
0.547333
0.532113
0.515895
0.499462
0.483672
0.469439
0.457717
0.449477
0.445617
0.446764
0.452999
0.463628
0.477201
0.491813
0.505601
0.517266
0.52667
0.535642
0.548714
0.572321
0.610912
0.662511
0.719211
0.772263
0.816099
0.84881
0.870886
0.883564
0.889574
0.884642
0.17982
0.180634
0.18264
0.18492
0.186527
0.187642
0.189398
0.193008
0.199192
0.208153
0.219744
0.233645
0.249482
0.266903
0.285646
0.305594
0.326847
0.349756
0.374908
0.403012
0.434671
0.470069
0.508663
0.549054
0.589121
0.626431
0.658741
0.684429
0.702714
0.713672
0.718078
0.717179
0.712451
0.705386
0.697332
0.689386
0.682338
0.676651
0.67247
0.669666
0.667897
0.666689
0.665521
0.663893
0.661369
0.657575
0.652188
0.644906
0.635448
0.623579
0.609164
0.592243
0.573078
0.552179
0.53028
0.508278
0.48714
0.467801
0.451072
0.437543
0.427515
0.420944
0.417431
0.416258
0.416491
0.41712
0.417208
0.416017
0.413077
0.408209
0.401503
0.393272
0.383989
0.374244
0.364694
0.356047
0.349056
0.344521
0.343246
0.345919
0.352876
0.363847
0.377854
0.393383
0.408781
0.422746
0.434893
0.446552
0.461621
0.48622
0.525267
0.577771
0.636475
0.692597
0.740158
0.776837
0.802841
0.819274
0.828658
0.828094
0.174742
0.174396
0.174227
0.174241
0.174263
0.174199
0.174176
0.174447
0.175233
0.176642
0.178676
0.181271
0.184338
0.1878
0.191615
0.195799
0.200438
0.205706
0.211878
0.219326
0.228503
0.239873
0.253789
0.270315
0.289066
0.309153
0.329299
0.348098
0.36433
0.377205
0.386462
0.392335
0.395413
0.396471
0.39632
0.395687
0.395145
0.39508
0.395678
0.396943
0.398722
0.400751
0.402706
0.404258
0.405111
0.405019
0.403788
0.401259
0.397296
0.391791
0.384691
0.376029
0.365967
0.354808
0.342987
0.331033
0.319511
0.30897
0.299889
0.292639
0.287452
0.284394
0.283339
0.283962
0.285765
0.288141
0.290454
0.292141
0.292781
0.292139
0.290174
0.287017
0.282937
0.278303
0.273548
0.269153
0.265643
0.263601
0.263664
0.266475
0.272526
0.281937
0.294268
0.308531
0.323436
0.337786
0.350987
0.363775
0.379166
0.402635
0.439521
0.490259
0.54883
0.606687
0.657357
0.697876
0.727964
0.748457
0.761541
0.765937
0.173318
0.172753
0.172203
0.171701
0.171229
0.170757
0.170295
0.169896
0.169625
0.169529
0.169621
0.169881
0.170276
0.17077
0.171339
0.171976
0.172698
0.173547
0.174591
0.175924
0.177666
0.179954
0.182925
0.186683
0.191255
0.196549
0.202339
0.208287
0.214006
0.219144
0.223458
0.226852
0.229377
0.231196
0.232534
0.233632
0.234707
0.235926
0.237391
0.239132
0.241111
0.243229
0.245345
0.2473
0.248935
0.250113
0.250725
0.250689
0.249948
0.248462
0.246213
0.243217
0.239541
0.235306
0.230691
0.225918
0.221229
0.216868
0.213054
0.209978
0.207785
0.206568
0.206347
0.207053
0.208517
0.210481
0.212628
0.214628
0.216194
0.217119
0.217298
0.216738
0.21554
0.213882
0.212001
0.210172
0.208714
0.207994
0.208445
0.21056
0.214824
0.221567
0.23078
0.242015
0.254464
0.2672
0.279567
0.29178
0.305845
0.326231
0.358365
0.404312
0.459935
0.517421
0.569891
0.613579
0.647504
0.67207
0.688969
0.698739
0.173247
0.17261
0.171968
0.171335
0.170713
0.170097
0.169486
0.16889
0.16833
0.167825
0.167385
0.167009
0.166686
0.166402
0.166145
0.165907
0.16569
0.165505
0.165369
0.165307
0.165353
0.165541
0.165908
0.166482
0.167276
0.168277
0.169442
0.170703
0.171972
0.173162
0.174205
0.17506
0.175724
0.176224
0.17661
0.176942
0.177282
0.177682
0.178179
0.178792
0.179517
0.180328
0.181182
0.182023
0.182788
0.183418
0.183863
0.184082
0.184049
0.183747
0.183168
0.182316
0.181206
0.17987
0.178359
0.176741
0.175092
0.173497
0.17204
0.170802
0.169857
0.16927
0.169087
0.169324
0.169956
0.170908
0.172061
0.173269
0.17438
0.175261
0.175821
0.17602
0.175871
0.175437
0.174821
0.174159
0.173616
0.173394
0.173748
0.174993
0.177491
0.181582
0.187463
0.195066
0.204034
0.213808
0.223855
0.234081
0.24558
0.261548
0.286921
0.325155
0.374534
0.428741
0.480877
0.526362
0.563331
0.591581
0.612111
0.627398
0.173562
0.172906
0.172245
0.171582
0.17092
0.17026
0.169601
0.168946
0.168299
0.167669
0.16706
0.166476
0.165914
0.16537
0.164839
0.164318
0.163805
0.163304
0.162819
0.16236
0.161936
0.16156
0.161242
0.160993
0.160815
0.160707
0.160658
0.160649
0.160658
0.16066
0.160635
0.160569
0.160459
0.160308
0.160128
0.159937
0.159753
0.159593
0.159471
0.159396
0.15937
0.159389
0.159441
0.159508
0.159571
0.159606
0.159595
0.15952
0.159371
0.159139
0.158823
0.158423
0.157942
0.157389
0.156773
0.15611
0.155419
0.154723
0.154045
0.153414
0.152859
0.152412
0.152103
0.151956
0.151984
0.152179
0.15251
0.152926
0.153363
0.153755
0.154046
0.154198
0.154197
0.154056
0.153811
0.153517
0.153251
0.153113
0.153233
0.153787
0.154999
0.157121
0.160371
0.164852
0.17049
0.177042
0.184189
0.191754
0.200197
0.211452
0.229355
0.257965
0.298022
0.345555
0.394428
0.439539
0.478083
0.509095
0.532678
0.553226
0.173897
0.173248
0.172593
0.171933
0.17127
0.170605
0.16994
0.169274
0.168608
0.167946
0.16729
0.166641
0.166
0.165365
0.164737
0.164112
0.163491
0.162874
0.162264
0.161664
0.161079
0.160514
0.159974
0.159463
0.158983
0.158535
0.158114
0.157717
0.157334
0.156957
0.156578
0.15619
0.155791
0.155379
0.154957
0.15453
0.154104
0.153686
0.153282
0.152897
0.152535
0.152195
0.151877
0.151577
0.151287
0.151001
0.150711
0.150411
0.150096
0.149764
0.149413
0.149044
0.148658
0.148256
0.147839
0.147409
0.146966
0.146511
0.146049
0.145583
0.145121
0.144676
0.14426
0.143892
0.143585
0.143349
0.143184
0.14308
0.143017
0.142969
0.14291
0.142816
0.142673
0.142477
0.142237
0.14197
0.141709
0.141496
0.141391
0.141483
0.141893
0.142775
0.144295
0.146585
0.149696
0.153573
0.158079
0.163081
0.16871
0.175931
0.18722
0.206191
0.235233
0.273097
0.315416
0.357295
0.395232
0.427456
0.45302
0.478036
0.174142
0.173506
0.172866
0.17222
0.17157
0.170916
0.17026
0.169601
0.168941
0.168279
0.167618
0.166957
0.166297
0.165639
0.164981
0.164323
0.163666
0.163009
0.162354
0.161703
0.161059
0.160426
0.159805
0.1592
0.158613
0.158045
0.157495
0.15696
0.156437
0.155922
0.15541
0.154897
0.154379
0.153856
0.153326
0.152791
0.152252
0.151714
0.15118
0.150654
0.150138
0.149635
0.149147
0.148673
0.148214
0.147766
0.147329
0.1469
0.146476
0.146059
0.145646
0.145238
0.144835
0.144436
0.144039
0.143642
0.14324
0.142829
0.142405
0.141964
0.141505
0.141031
0.140547
0.140061
0.139584
0.139125
0.138694
0.138295
0.137925
0.13758
0.13725
0.136925
0.136598
0.136262
0.135916
0.135563
0.135215
0.134885
0.134599
0.134395
0.134333
0.134496
0.134988
0.135915
0.137355
0.139337
0.141835
0.144787
0.148206
0.152484
0.158939
0.170092
0.188667
0.215516
0.248621
0.284272
0.318918
0.350214
0.376162
0.404201
0.174288
0.173665
0.173039
0.172408
0.171772
0.171132
0.170489
0.169844
0.169195
0.168544
0.167891
0.167237
0.166581
0.165923
0.165264
0.164603
0.16394
0.163275
0.162609
0.161945
0.161284
0.160628
0.15998
0.159343
0.158719
0.158107
0.157509
0.156923
0.156346
0.155776
0.15521
0.154644
0.154076
0.153502
0.152922
0.152336
0.151745
0.15115
0.150555
0.149961
0.149373
0.148793
0.148224
0.147667
0.147123
0.146594
0.146078
0.145577
0.145089
0.144614
0.144153
0.143704
0.143267
0.142841
0.142422
0.142007
0.14159
0.141165
0.140727
0.14027
0.139791
0.139286
0.138758
0.138209
0.137648
0.13708
0.136515
0.13596
0.13542
0.134897
0.134392
0.133902
0.133424
0.132956
0.132493
0.132035
0.131583
0.131141
0.130715
0.130321
0.129983
0.129743
0.129657
0.129794
0.130219
0.130985
0.132113
0.133597
0.135432
0.137745
0.141123
0.146987
0.157458
0.174224
0.197224
0.224515
0.253323
0.281285
0.30564
0.334608
0.174359
0.173747
0.17313
0.17251
0.171887
0.171259
0.170628
0.169994
0.169358
0.168718
0.168076
0.167432
0.166785
0.166136
0.165484
0.16483
0.164173
0.163513
0.162851
0.162189
0.161528
0.16087
0.160218
0.159573
0.158937
0.158312
0.157697
0.157092
0.156495
0.155903
0.155314
0.154726
0.154134
0.153538
0.152936
0.152327
0.151712
0.151092
0.150468
0.149845
0.149224
0.148608
0.148
0.147402
0.146816
0.146244
0.145686
0.145144
0.144617
0.144105
0.143609
0.143128
0.14266
0.142203
0.141756
0.141312
0.140868
0.140417
0.139953
0.139472
0.138967
0.138436
0.137879
0.137296
0.136692
0.136073
0.135443
0.134811
0.134183
0.133564
0.132956
0.132362
0.131782
0.131214
0.130658
0.13011
0.129568
0.129033
0.128503
0.127984
0.127482
0.127017
0.126615
0.126315
0.126162
0.1262
0.126464
0.126973
0.127735
0.128784
0.130341
0.133072
0.138261
0.147441
0.161505
0.180044
0.201512
0.224137
0.244965
0.272372
0.174386
0.17378
0.17317
0.172557
0.171941
0.171321
0.170699
0.170073
0.169446
0.168815
0.168182
0.167547
0.166909
0.166268
0.165625
0.164979
0.164331
0.163679
0.163025
0.162371
0.161716
0.161063
0.160414
0.159771
0.159135
0.158507
0.157887
0.157275
0.15667
0.15607
0.155472
0.154873
0.154273
0.153667
0.153056
0.152438
0.151813
0.151183
0.15055
0.149914
0.149279
0.148648
0.148022
0.147405
0.146799
0.146204
0.145624
0.145057
0.144506
0.14397
0.143449
0.142942
0.142449
0.141967
0.141493
0.141022
0.140551
0.140074
0.139585
0.13908
0.138553
0.138002
0.137425
0.136823
0.136198
0.135553
0.134895
0.134228
0.133557
0.132889
0.132226
0.131573
0.130929
0.130297
0.129674
0.12906
0.128451
0.127846
0.127242
0.126638
0.126037
0.125444
0.124871
0.124338
0.123871
0.1235
0.123255
0.123161
0.123232
0.123484
0.123988
0.125009
0.127182
0.131514
0.139004
0.150074
0.164263
0.180657
0.196675
0.220225
0.174392
0.173788
0.173182
0.172572
0.17196
0.171345
0.170727
0.170107
0.169485
0.16886
0.168233
0.167603
0.166971
0.166337
0.165701
0.165062
0.16442
0.163776
0.16313
0.162483
0.161835
0.161189
0.160545
0.159905
0.159272
0.158644
0.158024
0.15741
0.156801
0.156197
0.155594
0.154992
0.154387
0.153778
0.153163
0.152543
0.151916
0.151285
0.150648
0.15001
0.149371
0.148735
0.148103
0.147477
0.146861
0.146255
0.145662
0.145081
0.144514
0.143961
0.143423
0.142897
0.142383
0.14188
0.141383
0.14089
0.140397
0.139897
0.139387
0.138861
0.138317
0.13775
0.13716
0.136547
0.135911
0.135256
0.134585
0.133903
0.133214
0.132523
0.131834
0.131149
0.13047
0.129798
0.129133
0.128474
0.127819
0.127165
0.126509
0.12585
0.125186
0.124519
0.123853
0.123197
0.122566
0.121977
0.12145
0.121006
0.12066
0.120424
0.120321
0.120442
0.121052
0.122676
0.126026
0.131721
0.139927
0.150466
0.161428
0.179696
0.17439
0.173787
0.173181
0.172573
0.171962
0.171349
0.170734
0.170116
0.169496
0.168874
0.16825
0.167624
0.166996
0.166365
0.165733
0.165098
0.164461
0.163822
0.163182
0.16254
0.161897
0.161256
0.160616
0.15998
0.159348
0.158722
0.158101
0.157485
0.156874
0.156267
0.155661
0.155056
0.154449
0.153838
0.153223
0.152603
0.151977
0.151347
0.150712
0.150075
0.149437
0.1488
0.148167
0.147539
0.146919
0.146307
0.145706
0.145117
0.144539
0.143975
0.143423
0.142882
0.142353
0.141832
0.141317
0.140806
0.140293
0.139775
0.139248
0.138707
0.138149
0.137571
0.136972
0.136351
0.135711
0.135051
0.134377
0.13369
0.132995
0.132295
0.131594
0.130893
0.130196
0.129502
0.128812
0.128125
0.12744
0.126753
0.126063
0.125367
0.124663
0.123952
0.123234
0.122514
0.121798
0.121096
0.120422
0.119787
0.119204
0.118683
0.118234
0.117884
0.117729
0.117998
0.119078
0.121446
0.125451
0.131341
0.137897
0.150613
0.174385
0.173782
0.173176
0.172568
0.171958
0.171345
0.17073
0.170114
0.169495
0.168874
0.168251
0.167626
0.166999
0.16637
0.16574
0.165107
0.164473
0.163837
0.163199
0.16256
0.161921
0.161282
0.160645
0.160011
0.15938
0.158753
0.158131
0.157513
0.156899
0.156288
0.15568
0.155071
0.154462
0.15385
0.153235
0.152615
0.151991
0.151362
0.15073
0.150095
0.14946
0.148825
0.148193
0.147565
0.146943
0.146329
0.145724
0.145128
0.144544
0.14397
0.143408
0.142856
0.142314
0.141779
0.14125
0.140723
0.140195
0.139662
0.139121
0.138568
0.137999
0.137413
0.136808
0.136184
0.135541
0.134881
0.134206
0.13352
0.132824
0.132122
0.131416
0.13071
0.130003
0.129298
0.128594
0.12789
0.127185
0.126478
0.125765
0.125045
0.124317
0.123579
0.122831
0.122076
0.121316
0.120558
0.119808
0.119074
0.118365
0.117686
0.117043
0.116446
0.115924
0.115565
0.115541
0.116122
0.117589
0.120294
0.123561
0.131362
0.17438
0.173776
0.17317
0.172562
0.171951
0.171339
0.170724
0.170107
0.169488
0.168867
0.168244
0.167619
0.166993
0.166364
0.165734
0.165102
0.164469
0.163834
0.163197
0.16256
0.161922
0.161285
0.160648
0.160014
0.159382
0.158754
0.158129
0.157508
0.156891
0.156277
0.155664
0.155052
0.15444
0.153826
0.153209
0.152589
0.151966
0.151339
0.150709
0.150077
0.149444
0.148812
0.148181
0.147554
0.146932
0.146316
0.145708
0.145109
0.144519
0.143939
0.143368
0.142807
0.142254
0.141708
0.141166
0.140626
0.140086
0.139541
0.138989
0.138426
0.137849
0.137257
0.136648
0.136022
0.135379
0.13472
0.134047
0.133362
0.132668
0.131967
0.131261
0.130553
0.129843
0.129131
0.128419
0.127706
0.126989
0.126268
0.125541
0.124807
0.124062
0.123307
0.122542
0.121767
0.120985
0.120198
0.11941
0.118627
0.117852
0.11709
0.116343
0.115615
0.114917
0.114276
0.11376
0.113495
0.113636
0.114459
0.115625
0.119636
0.174375
0.173771
0.173165
0.172556
0.171945
0.171332
0.170716
0.170099
0.169479
0.168858
0.168235
0.16761
0.166983
0.166354
0.165723
0.165091
0.164458
0.163823
0.163186
0.162549
0.161911
0.161274
0.160637
0.160002
0.159368
0.158738
0.15811
0.157486
0.156864
0.156245
0.155628
0.155012
0.154396
0.153779
0.153161
0.15254
0.151916
0.15129
0.150662
0.150032
0.149401
0.14877
0.148141
0.147514
0.146892
0.146276
0.145666
0.145063
0.144469
0.143883
0.143306
0.142736
0.142174
0.141618
0.141066
0.140516
0.139965
0.13941
0.138848
0.138278
0.137695
0.137098
0.136486
0.135858
0.135215
0.134558
0.133887
0.133205
0.132514
0.131815
0.131111
0.130403
0.129692
0.128978
0.128262
0.127542
0.126818
0.126089
0.125353
0.124608
0.123854
0.123088
0.122312
0.121526
0.120731
0.119929
0.119123
0.118315
0.117507
0.116702
0.115901
0.115106
0.11432
0.113553
0.112828
0.112196
0.111728
0.111581
0.111616
0.113079
0.174371
0.173766
0.173159
0.17255
0.171939
0.171325
0.170709
0.170091
0.169471
0.168849
0.168225
0.167599
0.166971
0.166342
0.165711
0.165078
0.164444
0.163808
0.163171
0.162534
0.161895
0.161257
0.160619
0.159982
0.159347
0.158713
0.158082
0.157454
0.156828
0.156204
0.155583
0.154962
0.154342
0.153722
0.1531
0.152478
0.151853
0.151227
0.150598
0.149969
0.149339
0.14871
0.148081
0.147456
0.146833
0.146216
0.145604
0.144999
0.144401
0.14381
0.143226
0.14265
0.14208
0.141516
0.140954
0.140395
0.139835
0.139271
0.138702
0.138124
0.137536
0.136935
0.136321
0.135692
0.13505
0.134394
0.133726
0.133047
0.132359
0.131663
0.130961
0.130254
0.129542
0.128828
0.128109
0.127386
0.126657
0.125923
0.12518
0.124429
0.123667
0.122895
0.122112
0.121319
0.120517
0.119707
0.11889
0.118069
0.117245
0.116418
0.115589
0.11476
0.113931
0.113105
0.112292
0.11151
0.110787
0.110194
0.10971
0.109686
0.174367
0.173762
0.173155
0.172545
0.171933
0.171318
0.170702
0.170083
0.169463
0.16884
0.168215
0.167589
0.16696
0.16633
0.165698
0.165065
0.16443
0.163793
0.163155
0.162517
0.161877
0.161238
0.160598
0.15996
0.159322
0.158686
0.158051
0.157419
0.156789
0.156161
0.155534
0.154909
0.154284
0.15366
0.153036
0.15241
0.151784
0.151156
0.150528
0.149898
0.149268
0.148639
0.148011
0.147385
0.146763
0.146144
0.145531
0.144923
0.144321
0.143726
0.143137
0.142554
0.141977
0.141405
0.140836
0.140268
0.1397
0.139129
0.138553
0.137969
0.137376
0.136771
0.136155
0.135526
0.134884
0.13423
0.133564
0.132887
0.132202
0.131508
0.130808
0.130103
0.129392
0.128677
0.127956
0.127231
0.126499
0.12576
0.125013
0.124257
0.123491
0.122714
0.121926
0.121128
0.120321
0.119506
0.118683
0.117855
0.117021
0.116183
0.11534