/*--------------------------------*- C++ -*----------------------------------*\
  =========                 |
  \\      /  F ield         | OpenFOAM: The Open Source CFD Toolbox
   \\    /   O peration     | Website:  https://openfoam.org
    \\  /    A nd           | Version:  10
     \\/     M anipulation  |
\*---------------------------------------------------------------------------*/
FoamFile
{
    format      ascii;
    class       volScalarField;
    location    "1200";
    object      nut;
}
// * * * * * * * * * * * * * * * * * * * * * * * * * * * * * * * * * * * * * //

dimensions      [0 2 -1 0 0 0 0];

internalField   nonuniform List<scalar> 
6820
(
0.000149811
0.000146298
0.000143078
0.000139851
0.000136611
0.000133451
0.000130461
0.0001277
0.000125195
0.000122955
0.000120973
0.000119238
0.00011773
0.000116431
0.000115321
0.000114382
0.000113596
0.000112948
0.000112422
0.000112006
0.000111686
0.000111453
0.000111296
0.000111206
0.000111177
0.000111202
0.000111264
0.000111398
0.00011153
0.000111596
0.000111235
0.000122845
4.22925e-05
0.000736675
0.000548088
0.000464579
0.000414439
0.000380742
0.000356923
0.000339501
0.000326355
0.000316144
0.000307999
0.00030135
0.000295812
0.000291117
0.000287078
0.000283557
0.000280456
0.000277699
0.000275228
0.000272999
0.000270974
0.000269127
0.000267434
0.000265876
0.000264436
0.000263103
0.000261864
0.000260711
0.000259633
0.000258655
0.000257721
0.000256471
0.000258515
0.000253442
0.000977664
0.000873823
0.0007837
0.000713315
0.000659069
0.000616652
0.000582746
0.000555023
0.000531886
0.000512236
0.000495303
0.000480529
0.000467505
0.000455921
0.000445539
0.000436173
0.000427674
0.000419924
0.000412826
0.000406298
0.000400274
0.000394697
0.000389518
0.000384697
0.000380195
0.000375981
0.000372023
0.000368294
0.000364776
0.000361428
0.000358035
0.000355318
0.000352812
0.0010135
0.000988678
0.000949905
0.000906244
0.000863764
0.000825044
0.000790675
0.000760401
0.000733702
0.000710037
0.000688926
0.000669967
0.000652829
0.000637245
0.000622997
0.000609904
0.000597819
0.000586621
0.000576207
0.000566491
0.000557399
0.000548869
0.000540848
0.000533287
0.000526145
0.000519384
0.000512972
0.000506875
0.000501066
0.000495521
0.000490145
0.000485001
0.000480259
0.00101667
0.00101251
0.00100235
0.000986318
0.000966166
0.000943902
0.000921099
0.000898746
0.000877379
0.000857232
0.000838372
0.000820772
0.000804359
0.000789046
0.000774739
0.000761347
0.000748786
0.00073698
0.000725859
0.000715363
0.000705436
0.000696029
0.000687099
0.000678607
0.000670517
0.000662796
0.000655415
0.000648346
0.000641561
0.000635036
0.000628731
0.000622611
0.000616696
0.00101674
0.0010159
0.00101373
0.00100941
0.00100265
0.00099363
0.000982852
0.000970879
0.000958219
0.000945273
0.000932331
0.000919588
0.000907169
0.000895148
0.000883566
0.000872439
0.000861768
0.000851545
0.000841753
0.000832376
0.000823392
0.000814782
0.000806523
0.000798596
0.00079098
0.000783656
0.000776604
0.000769805
0.000763241
0.000756894
0.000750741
0.000744759
0.000738934
0.00101671
0.00101621
0.00101554
0.00101439
0.00101245
0.00100952
0.00100553
0.00100054
0.000994676
0.000988125
0.000981058
0.000973636
0.000965995
0.000958246
0.000950474
0.000942746
0.000935109
0.0009276
0.000920244
0.000913057
0.000906049
0.000899227
0.000892592
0.000886144
0.000879879
0.000873795
0.000867883
0.000862139
0.000856554
0.000851119
0.000845826
0.000840665
0.000835632
0.0010167
0.00101622
0.00101574
0.0010152
0.00101449
0.0010135
0.00101214
0.00101032
0.00100801
0.00100523
0.00100201
0.000998403
0.000994467
0.000990263
0.000985852
0.000981284
0.000976608
0.000971862
0.00096708
0.00096229
0.000957514
0.00095277
0.000948074
0.000943434
0.000938861
0.000934361
0.000929936
0.000925591
0.000921326
0.000917142
0.000913038
0.000909015
0.000905075
0.0010167
0.00101621
0.00101574
0.00101528
0.00101481
0.00101429
0.00101367
0.00101292
0.001012
0.00101087
0.00100951
0.00100793
0.00100613
0.00100412
0.00100192
0.000999553
0.00099704
0.000994405
0.000991668
0.00098885
0.000985969
0.000983041
0.000980081
0.000977101
0.000974112
0.000971123
0.000968142
0.000965176
0.00096223
0.000959309
0.000956418
0.00095356
0.00095074
0.0010167
0.00101621
0.00101574
0.00101528
0.00101484
0.0010144
0.00101395
0.00101348
0.00101297
0.00101239
0.00101175
0.00101101
0.00101017
0.00100922
0.00100818
0.00100702
0.00100577
0.00100442
0.00100298
0.00100147
0.000999885
0.00099824
0.000996544
0.000994802
0.000993024
0.000991217
0.000989386
0.000987538
0.000985679
0.000983813
0.000981945
0.000980081
0.000978224
0.0010167
0.00101621
0.00101574
0.00101528
0.00101484
0.00101441
0.00101398
0.00101357
0.00101315
0.00101273
0.00101229
0.00101183
0.00101134
0.00101082
0.00101025
0.00100964
0.00100898
0.00100828
0.00100752
0.00100672
0.00100587
0.00100498
0.00100405
0.00100309
0.00100209
0.00100106
0.001
0.000998921
0.000997822
0.000996707
0.00099558
0.000994443
0.000993301
0.0010167
0.00101621
0.00101574
0.00101528
0.00101483
0.0010144
0.00101398
0.00101357
0.00101317
0.00101278
0.00101239
0.00101201
0.00101162
0.00101123
0.00101083
0.00101042
0.00101
0.00100956
0.0010091
0.00100863
0.00100813
0.00100761
0.00100708
0.00100652
0.00100594
0.00100535
0.00100474
0.00100411
0.00100347
0.00100282
0.00100215
0.00100148
0.0010008
0.0010167
0.00101621
0.00101574
0.00101528
0.00101483
0.0010144
0.00101398
0.00101357
0.00101317
0.00101278
0.0010124
0.00101204
0.00101167
0.00101132
0.00101097
0.00101062
0.00101027
0.00100992
0.00100957
0.00100922
0.00100887
0.00100851
0.00100814
0.00100777
0.00100739
0.00100701
0.00100662
0.00100622
0.00100582
0.00100541
0.001005
0.00100458
0.00100416
0.0010167
0.00101621
0.00101574
0.00101528
0.00101483
0.0010144
0.00101398
0.00101357
0.00101317
0.00101278
0.0010124
0.00101203
0.00101168
0.00101133
0.00101099
0.00101065
0.00101033
0.00101
0.00100969
0.00100938
0.00100907
0.00100877
0.00100846
0.00100816
0.00100787
0.00100757
0.00100727
0.00100698
0.00100668
0.00100639
0.00100609
0.0010058
0.0010055
0.0010167
0.00101621
0.00101574
0.00101528
0.00101483
0.0010144
0.00101398
0.00101356
0.00101317
0.00101278
0.0010124
0.00101203
0.00101167
0.00101132
0.00101098
0.00101065
0.00101033
0.00101002
0.00100971
0.00100941
0.00100911
0.00100883
0.00100854
0.00100827
0.001008
0.00100773
0.00100747
0.00100721
0.00100696
0.00100671
0.00100646
0.00100622
0.00100598
0.0010167
0.00101621
0.00101574
0.00101528
0.00101483
0.0010144
0.00101397
0.00101356
0.00101316
0.00101278
0.0010124
0.00101203
0.00101167
0.00101132
0.00101098
0.00101065
0.00101033
0.00101001
0.00100971
0.00100941
0.00100912
0.00100884
0.00100856
0.00100829
0.00100803
0.00100777
0.00100752
0.00100727
0.00100703
0.0010068
0.00100657
0.00100634
0.00100613
0.0010167
0.00101621
0.00101574
0.00101528
0.00101483
0.0010144
0.00101397
0.00101356
0.00101316
0.00101277
0.00101239
0.00101203
0.00101167
0.00101132
0.00101098
0.00101065
0.00101032
0.00101001
0.0010097
0.00100941
0.00100912
0.00100883
0.00100856
0.00100829
0.00100803
0.00100777
0.00100752
0.00100728
0.00100705
0.00100682
0.00100659
0.00100637
0.00100616
0.0010167
0.00101621
0.00101574
0.00101528
0.00101483
0.00101439
0.00101397
0.00101356
0.00101316
0.00101277
0.00101239
0.00101202
0.00101167
0.00101132
0.00101098
0.00101064
0.00101032
0.00101001
0.0010097
0.0010094
0.00100911
0.00100883
0.00100855
0.00100829
0.00100802
0.00100777
0.00100752
0.00100728
0.00100704
0.00100681
0.00100659
0.00100637
0.00100616
0.0010167
0.00101621
0.00101574
0.00101528
0.00101483
0.00101439
0.00101397
0.00101356
0.00101316
0.00101277
0.00101239
0.00101202
0.00101166
0.00101131
0.00101097
0.00101064
0.00101032
0.00101001
0.0010097
0.0010094
0.00100911
0.00100883
0.00100855
0.00100828
0.00100802
0.00100777
0.00100752
0.00100727
0.00100704
0.00100681
0.00100659
0.00100637
0.00100616
0.0010167
0.00101621
0.00101574
0.00101528
0.00101483
0.00101439
0.00101397
0.00101356
0.00101316
0.00101277
0.00101239
0.00101202
0.00101166
0.00101131
0.00101097
0.00101064
0.00101032
0.00101
0.0010097
0.0010094
0.00100911
0.00100882
0.00100855
0.00100828
0.00100802
0.00100776
0.00100751
0.00100727
0.00100703
0.0010068
0.00100658
0.00100636
0.00100615
0.0010167
0.00101621
0.00101574
0.00101528
0.00101483
0.00101439
0.00101397
0.00101356
0.00101316
0.00101277
0.00101239
0.00101202
0.00101166
0.00101131
0.00101097
0.00101064
0.00101032
0.00101
0.00100969
0.0010094
0.0010091
0.00100882
0.00100854
0.00100828
0.00100801
0.00100776
0.00100751
0.00100727
0.00100703
0.0010068
0.00100658
0.00100636
0.00100614
0.0010167
0.00101621
0.00101574
0.00101528
0.00101483
0.00101439
0.00101397
0.00101356
0.00101316
0.00101277
0.00101239
0.00101202
0.00101166
0.00101131
0.00101097
0.00101064
0.00101031
0.00101
0.00100969
0.00100939
0.0010091
0.00100882
0.00100854
0.00100827
0.00100801
0.00100775
0.00100751
0.00100726
0.00100703
0.0010068
0.00100657
0.00100635
0.00100614
0.0010167
0.00101621
0.00101574
0.00101528
0.00101483
0.00101439
0.00101397
0.00101356
0.00101316
0.00101277
0.00101239
0.00101202
0.00101166
0.00101131
0.00101097
0.00101064
0.00101031
0.00101
0.00100969
0.00100939
0.0010091
0.00100882
0.00100854
0.00100827
0.00100801
0.00100775
0.0010075
0.00100726
0.00100702
0.00100679
0.00100657
0.00100635
0.00100613
0.0010167
0.00101621
0.00101574
0.00101528
0.00101483
0.00101439
0.00101397
0.00101356
0.00101316
0.00101277
0.00101239
0.00101202
0.00101166
0.00101131
0.00101097
0.00101063
0.00101031
0.00101
0.00100969
0.00100939
0.0010091
0.00100881
0.00100854
0.00100827
0.001008
0.00100775
0.0010075
0.00100726
0.00100702
0.00100679
0.00100656
0.00100634
0.00100613
0.0010167
0.00101621
0.00101574
0.00101528
0.00101483
0.00101439
0.00101397
0.00101356
0.00101316
0.00101277
0.00101239
0.00101202
0.00101166
0.00101131
0.00101097
0.00101063
0.00101031
0.00100999
0.00100969
0.00100939
0.0010091
0.00100881
0.00100854
0.00100827
0.001008
0.00100775
0.0010075
0.00100725
0.00100701
0.00100678
0.00100656
0.00100634
0.00100612
0.0010167
0.00101621
0.00101574
0.00101528
0.00101483
0.00101439
0.00101397
0.00101356
0.00101316
0.00101277
0.00101239
0.00101202
0.00101166
0.00101131
0.00101096
0.00101063
0.00101031
0.00100999
0.00100969
0.00100939
0.00100909
0.00100881
0.00100853
0.00100826
0.001008
0.00100774
0.00100749
0.00100725
0.00100701
0.00100678
0.00100655
0.00100633
0.00100612
0.0010167
0.00101621
0.00101574
0.00101528
0.00101483
0.00101439
0.00101397
0.00101356
0.00101316
0.00101277
0.00101239
0.00101202
0.00101166
0.00101131
0.00101096
0.00101063
0.00101031
0.00100999
0.00100969
0.00100939
0.00100909
0.00100881
0.00100853
0.00100826
0.001008
0.00100774
0.00100749
0.00100725
0.00100701
0.00100678
0.00100655
0.00100633
0.00100611
0.0010167
0.00101621
0.00101574
0.00101528
0.00101483
0.00101439
0.00101397
0.00101356
0.00101316
0.00101277
0.00101239
0.00101202
0.00101166
0.00101131
0.00101096
0.00101063
0.00101031
0.00100999
0.00100968
0.00100938
0.00100909
0.00100881
0.00100853
0.00100826
0.001008
0.00100774
0.00100749
0.00100724
0.00100701
0.00100677
0.00100655
0.00100632
0.00100611
0.0010167
0.00101621
0.00101574
0.00101528
0.00101483
0.00101439
0.00101397
0.00101356
0.00101316
0.00101277
0.00101239
0.00101202
0.00101166
0.00101131
0.00101096
0.00101063
0.00101031
0.00100999
0.00100968
0.00100938
0.00100909
0.00100881
0.00100853
0.00100826
0.00100799
0.00100774
0.00100749
0.00100724
0.001007
0.00100677
0.00100654
0.00100632
0.00100611
0.0010167
0.00101621
0.00101574
0.00101528
0.00101483
0.00101439
0.00101397
0.00101356
0.00101316
0.00101277
0.00101239
0.00101202
0.00101166
0.00101131
0.00101096
0.00101063
0.00101031
0.00100999
0.00100968
0.00100938
0.00100909
0.00100881
0.00100853
0.00100826
0.00100799
0.00100774
0.00100748
0.00100724
0.001007
0.00100677
0.00100654
0.00100632
0.0010061
0.0010167
0.00101621
0.00101574
0.00101528
0.00101483
0.00101439
0.00101397
0.00101356
0.00101316
0.00101277
0.00101239
0.00101202
0.00101166
0.00101131
0.00101096
0.00101063
0.00101031
0.00100999
0.00100968
0.00100938
0.00100909
0.00100881
0.00100853
0.00100826
0.00100799
0.00100773
0.00100748
0.00100724
0.001007
0.00100676
0.00100653
0.00100631
0.00100609
0.0010167
0.00101621
0.00101574
0.00101528
0.00101483
0.00101439
0.00101397
0.00101356
0.00101316
0.00101277
0.00101239
0.00101202
0.00101166
0.00101131
0.00101096
0.00101063
0.00101031
0.00100999
0.00100968
0.00100938
0.00100909
0.0010088
0.00100852
0.00100825
0.00100798
0.00100772
0.00100746
0.00100721
0.00100697
0.00100673
0.00100649
0.00100626
0.00100604
0.0010167
0.00101621
0.00101574
0.00101528
0.00101483
0.00101439
0.00101397
0.00101356
0.00101316
0.00101277
0.00101239
0.00101202
0.00101166
0.0010113
0.00101096
0.00101062
0.00101029
0.00100997
0.00100965
0.00100935
0.00100904
0.00100874
0.00100845
0.00100816
0.00100788
0.00100759
0.00100732
0.00100704
0.00100677
0.00100651
0.00100624
0.00100598
0.00100573
0.0010167
0.00101621
0.00101574
0.00101528
0.00101483
0.00101439
0.00101397
0.00101356
0.00101315
0.00101276
0.00101237
0.00101199
0.00101162
0.00101125
0.00101088
0.00101051
0.00101015
0.00100978
0.00100942
0.00100906
0.00100869
0.00100832
0.00100795
0.00100758
0.00100721
0.00100683
0.00100645
0.00100607
0.00100569
0.0010053
0.00100491
0.00100452
0.00100413
0.0010167
0.00101621
0.00101574
0.00101527
0.00101482
0.00101438
0.00101394
0.0010135
0.00101305
0.00101259
0.00101213
0.00101165
0.00101115
0.00101063
0.00101009
0.00100952
0.00100894
0.00100833
0.00100769
0.00100704
0.00100636
0.00100566
0.00100493
0.00100419
0.00100343
0.00100265
0.00100186
0.00100105
0.00100023
0.000999402
0.00099856
0.000997709
0.000996851
0.0010167
0.00101621
0.00101571
0.00101519
0.00101464
0.00101403
0.00101334
0.00101256
0.00101168
0.00101069
0.00100959
0.00100838
0.00100707
0.00100565
0.00100413
0.00100252
0.00100082
0.00099905
0.000997208
0.000995304
0.000993345
0.000991339
0.000989293
0.000987213
0.000985105
0.000982976
0.00098083
0.000978674
0.00097651
0.000974345
0.000972181
0.000970022
0.000967872
0.00101669
0.00101596
0.00101486
0.00101329
0.00101119
0.00100857
0.00100544
0.00100184
0.000997818
0.000993417
0.000988691
0.000983691
0.000978466
0.000973061
0.000967519
0.000961878
0.00095617
0.000950426
0.000944671
0.000938927
0.000933212
0.000927544
0.000921935
0.000916396
0.000910938
0.000905567
0.00090029
0.000895111
0.000890034
0.000885061
0.000880195
0.000875437
0.000870786
0.00101524
0.00100707
0.000994969
0.000980645
0.000964812
0.000947926
0.000930368
0.000912485
0.00089457
0.000876851
0.000859493
0.000842607
0.000826269
0.000810523
0.000795391
0.00078088
0.000766985
0.000753692
0.000740985
0.000728841
0.000717237
0.00070615
0.000695556
0.000685429
0.000675746
0.000666485
0.000657623
0.000649141
0.000641017
0.000633234
0.000625773
0.000618619
0.000611753
0.000934352
0.000813407
0.000726831
0.000658817
0.000603135
0.000556774
0.000517835
0.000484842
0.000456608
0.000432209
0.000410939
0.000392249
0.000375711
0.000360982
0.000347793
0.000335923
0.000325191
0.000315451
0.000306578
0.00029847
0.000291038
0.000284207
0.000277913
0.000272101
0.000266723
0.000261735
0.000257103
0.000252792
0.000248774
0.000245023
0.000241517
0.000238236
0.000235159
0.000125479
0.000128845
0.000132087
0.000135185
0.000138141
0.000140961
0.00014365
0.000146214
0.000148657
0.000150984
0.000153199
0.000155307
0.000157311
0.000159216
0.000161026
0.000162745
0.000164377
0.000165926
0.000167396
0.000168789
0.000170111
0.000171364
0.000172551
0.000173677
0.000174743
0.000175753
0.000176709
0.000177615
0.000178473
0.000179285
0.000180054
0.000180782
0.000181472
0.000265216
0.000434703
0.000409309
0.000332134
0.000307111
0.000326161
0.000358284
0.00038922
0.000416836
0.000442438
0.000467124
0.000491272
0.000514845
0.000537674
0.000559643
0.00058081
0.000601463
0.000622102
0.000643344
0.000665784
0.000689842
0.000715657
0.000743046
0.000771537
0.000800455
0.000829049
0.000856606
0.000882564
0.000906587
0.000928612
0.000948853
0.000967766
0.000985985
0.00100423
0.00102322
0.00104357
0.00106572
0.0010899
0.00111607
0.00114399
0.00117324
0.0012033
0.00123364
0.0012637
0.00129292
0.0013207
0.00134637
0.00136918
0.00138839
0.00140334
0.00141362
0.00141918
0.00142041
0.00141817
0.00141375
0.00140875
0.00140495
0.00140405
0.00140746
0.00141599
0.0014297
0.00144776
0.0014686
0.00149011
0.00151006
0.00152644
0.00153774
0.00154307
0.0015422
0.00153552
0.00152391
0.00150863
0.0014913
0.00147376
0.00145815
0.00144682
0.00144237
0.00144748
0.00146448
0.00149458
0.00153693
0.00158821
0.0016431
0.0016957
0.00174122
0.00177758
0.00180724
0.00184003
0.00189526
0.00199701
0.00215751
0.00236068
0.00256808
0.00274382
0.00287102
0.00295003
0.00298939
0.00299899
0.002989
0.00294711
0.000232619
0.000264511
0.000287945
0.000275153
0.000241372
0.000219318
0.000223817
0.000246582
0.000276373
0.00030681
0.000335649
0.000362555
0.000387693
0.000411251
0.000433441
0.000454597
0.000475214
0.000495916
0.000517359
0.000540108
0.000564502
0.00059056
0.000617962
0.000646102
0.000674194
0.000701413
0.000727024
0.000750493
0.000771554
0.000790239
0.000806857
0.000821949
0.000836201
0.000850364
0.000865161
0.000881211
0.000898955
0.000918619
0.000940192
0.000963449
0.000987998
0.00101335
0.00103901
0.00106445
0.00108919
0.00111273
0.00113449
0.00115385
0.00117012
0.0011827
0.00119118
0.00119542
0.00119572
0.0011928
0.00118781
0.00118224
0.00117776
0.00117603
0.00117851
0.00118615
0.00119918
0.001217
0.00123821
0.00126084
0.00128271
0.00130176
0.00131639
0.00132562
0.00132911
0.00132713
0.00132045
0.00131024
0.00129799
0.00128544
0.00127456
0.00126754
0.00126683
0.00127502
0.00129446
0.00132655
0.00137076
0.0014241
0.00148149
0.00153711
0.00158615
0.00162641
0.00166019
0.00169721
0.00175709
0.00186465
0.0020324
0.00224296
0.00245598
0.00263487
0.00276342
0.002843
0.00288288
0.00289321
0.00288447
0.00284371
0.000344481
0.000328257
0.000318379
0.00031058
0.000295417
0.000267809
0.00023515
0.000211742
0.000202938
0.000205889
0.000216319
0.000231096
0.000248289
0.000266758
0.000285857
0.000305293
0.00032507
0.000345424
0.000366734
0.000389388
0.000413639
0.000439491
0.000466637
0.000494476
0.000522191
0.000548888
0.000573743
0.000596151
0.000615808
0.000632748
0.000647311
0.000660074
0.000671756
0.000683124
0.000694909
0.000707728
0.000722029
0.000738057
0.000755832
0.000775171
0.000795725
0.000817051
0.000838669
0.000860124
0.000880988
0.00090085
0.000919269
0.000935753
0.000949766
0.000960793
0.000968441
0.000972555
0.000973317
0.000971299
0.000967454
0.000963058
0.000959589
0.000958569
0.000961366
0.000968973
0.000981789
0.000999472
0.00102092
0.00104444
0.00106802
0.00108968
0.00110781
0.00112133
0.00112978
0.00113326
0.00113238
0.00112815
0.00112186
0.00111504
0.00110941
0.00110688
0.00110961
0.00111995
0.00114018
0.00117195
0.00121527
0.00126787
0.00132529
0.00138208
0.00143345
0.00147687
0.00151395
0.00155337
0.00161389
0.00172078
0.00188849
0.00210127
0.00231856
0.00250251
0.00263598
0.00271999
0.00276384
0.00277772
0.00277246
0.00273502
0.000474524
0.00046442
0.000452229
0.000442043
0.000434142
0.000422885
0.000401125
0.000367744
0.00033018
0.000296634
0.000270894
0.00025309
0.000241937
0.000236009
0.000234166
0.000235619
0.000239895
0.000246784
0.000256294
0.000268565
0.000283748
0.000301847
0.000322575
0.000345279
0.000368991
0.000392598
0.000415048
0.000435534
0.000453602
0.000469169
0.000482484
0.000494039
0.000504474
0.000514481
0.000524716
0.000535735
0.000547947
0.000561586
0.000576694
0.000593138
0.000610636
0.000628811
0.000647252
0.000665561
0.000683389
0.000700422
0.00071636
0.00073088
0.000743628
0.000754245
0.000762442
0.000768089
0.000771304
0.000772507
0.000772422
0.000772031
0.000772481
0.000774957
0.000780539
0.000790044
0.000803866
0.000821854
0.000843258
0.000866806
0.000890897
0.000913875
0.000934296
0.000951122
0.000963815
0.000972339
0.000977105
0.000978877
0.000978688
0.000977758
0.000977461
0.000979316
0.00098503
0.000996538
0.00101589
0.00104485
0.00108407
0.00113227
0.00118606
0.00124074
0.00129177
0.00133631
0.00137497
0.00141464
0.00147204
0.00157212
0.00173226
0.00194103
0.00215972
0.00234917
0.00248991
0.00258136
0.00263207
0.00265199
0.00265223
0.00262023
0.000609979
0.000601783
0.000592816
0.000583942
0.000576478
0.000570136
0.000561843
0.000547562
0.000525375
0.000496754
0.000465122
0.000433792
0.000404928
0.000379545
0.000357893
0.000339803
0.000324934
0.000312916
0.000303439
0.000296318
0.000291521
0.000289171
0.000289474
0.000292589
0.000298459
0.000306706
0.000316662
0.000327515
0.000338511
0.000349113
0.000359073
0.000368423
0.000377398
0.000386349
0.000395652
0.000405643
0.000416569
0.000428565
0.000441648
0.00045572
0.000470587
0.000485988
0.000501633
0.000517243
0.000532578
0.000547444
0.000561681
0.000575139
0.000587662
0.000599091
0.000609292
0.000618217
0.000625961
0.000632795
0.000639176
0.000645702
0.000653045
0.000661873
0.000672759
0.000686113
0.000702112
0.000720639
0.000741244
0.000763164
0.000785405
0.000806891
0.000826628
0.000843852
0.000858119
0.000869332
0.000877721
0.000883789
0.000888244
0.000891938
0.000895824
0.000900949
0.000908496
0.000919848
0.000936619
0.000960441
0.000992407
0.00103228
0.00107803
0.00112615
0.00117275
0.00121493
0.00125231
0.00128959
0.0013404
0.00142804
0.00157287
0.00176997
0.00198504
0.00217832
0.0023271
0.00242791
0.0024877
0.00251575
0.00252327
0.00249875
0.0007323
0.000724778
0.000717232
0.000709686
0.000702492
0.000696021
0.000689854
0.000682613
0.000672643
0.000658936
0.000641541
0.000621338
0.000599538
0.000577283
0.000555439
0.000534549
0.000514861
0.000496396
0.000479022
0.000462531
0.00044672
0.000431474
0.000416849
0.000403122
0.00039076
0.000380288
0.000372123
0.000366447
0.000363197
0.000362137
0.000362972
0.000365429
0.000369298
0.000374437
0.000380745
0.00038814
0.000396538
0.000405838
0.000415925
0.000426672
0.000437943
0.000449605
0.000461532
0.000473617
0.00048578
0.00049797
0.000510161
0.000522343
0.000534511
0.000546654
0.000558764
0.000570852
0.000582967
0.000595214
0.000607748
0.000620755
0.000634419
0.00064889
0.000664261
0.000680552
0.000697712
0.000715595
0.00073395
0.00075241
0.00077051
0.000787742
0.000803636
0.000817826
0.000830107
0.000840451
0.000849013
0.000856095
0.000862124
0.000867605
0.000873099
0.000879219
0.000886658
0.00089626
0.000909099
0.000926438
0.000949428
0.000978519
0.0010129
0.00105045
0.00108833
0.00112402
0.00115652
0.0011884
0.00122962
0.00130019
0.00142226
0.00159872
0.00180262
0.00199534
0.00215075
0.00226134
0.0023315
0.0023692
0.00238545
0.00237026
0.000829896
0.000823425
0.000817015
0.000810649
0.000804355
0.000798269
0.000792439
0.000786618
0.000780276
0.000772822
0.000763863
0.000753316
0.000741377
0.000728393
0.000714752
0.000700785
0.000686721
0.000672668
0.000658623
0.000644501
0.000630166
0.000615481
0.000600364
0.000584863
0.000569208
0.000553829
0.000539291
0.00052619
0.000515027
0.000506135
0.000499653
0.000495556
0.000493697
0.000493852
0.000495756
0.000499125
0.000503683
0.000509169
0.000515357
0.000522063
0.000529152
0.000536544
0.000544203
0.000552138
0.000560384
0.000569002
0.00057806
0.000587628
0.000597769
0.000608529
0.000619933
0.000631988
0.000644677
0.00065797
0.000671818
0.000686153
0.000700884
0.000715903
0.000731085
0.000746305
0.000761443
0.000776388
0.000791015
0.000805169
0.000818654
0.000831247
0.000842742
0.000852989
0.000861933
0.000869621
0.000876194
0.000881871
0.000886919
0.000891638
0.000896343
0.000901364
0.000907069
0.000913917
0.000922535
0.00093376
0.000948513
0.000967441
0.000990451
0.00101648
0.00104374
0.00107037
0.00109526
0.00111947
0.00114933
0.00120032
0.00129401
0.00144074
0.00162366
0.00180838
0.00196621
0.00208497
0.00216542
0.00221343
0.00223933
0.00223494
0.000900572
0.00089546
0.000890352
0.000885253
0.000880154
0.000875081
0.000870072
0.000865116
0.000860108
0.00085487
0.000849217
0.000843023
0.00083625
0.000828939
0.000821178
0.000813064
0.000804676
0.000796051
0.000787184
0.000778032
0.000768523
0.000758581
0.00074815
0.000737222
0.00072588
0.000714317
0.000702841
0.000691841
0.000681729
0.000672873
0.000665547
0.000659903
0.000655972
0.00065368
0.000652872
0.00065335
0.000654891
0.000657277
0.000660314
0.00066384
0.000667741
0.000671946
0.000676434
0.000681221
0.000686355
0.000691904
0.000697947
0.000704562
0.000711817
0.000719761
0.000728416
0.000737775
0.000747799
0.000758415
0.000769522
0.000780991
0.00079268
0.000804438
0.000816121
0.000827605
0.000838797
0.000849636
0.000860083
0.000870099
0.000879622
0.000888557
0.000896789
0.000904215
0.000910772
0.000916463
0.000921363
0.000925604
0.000929358
0.00093282
0.000936189
0.000939666
0.000943465
0.000947844
0.000953165
0.000959953
0.000968869
0.000980519
0.000995112
0.00101219
0.00103064
0.00104913
0.00106665
0.00108336
0.00110272
0.00113526
0.00119935
0.00131008
0.00146199
0.00162873
0.00178172
0.00190443
0.00199319
0.00205089
0.00208655
0.00209374
0.000947496
0.000943779
0.000940018
0.000936219
0.000932384
0.000928516
0.000924627
0.000920728
0.000916809
0.000912839
0.000908768
0.000904548
0.00090015
0.000895565
0.000890802
0.000885878
0.000880806
0.000875587
0.000870205
0.000864631
0.000858824
0.000852747
0.000846369
0.000839686
0.000832733
0.000825594
0.00081841
0.000811371
0.000804696
0.000798602
0.000793277
0.000788856
0.000785407
0.000782937
0.000781398
0.000780701
0.000780734
0.00078138
0.000782528
0.000784086
0.000785983
0.000788177
0.00079065
0.000793411
0.000796485
0.000799912
0.000803742
0.000808025
0.000812804
0.000818114
0.000823969
0.000830362
0.000837258
0.000844595
0.000852288
0.000860228
0.000868297
0.000876372
0.00088434
0.000892108
0.000899609
0.000906812
0.000913716
0.000920335
0.00092668
0.000932743
0.000938487
0.000943853
0.000948777
0.000953218
0.000957165
0.000960652
0.000963752
0.000966564
0.000969204
0.000971798
0.000974478
0.000977403
0.000980792
0.000984976
0.000990418
0.000997636
0.00100699
0.00101842
0.00103132
0.0010447
0.00105758
0.00106955
0.00108203
0.00110121
0.00114051
0.00121568
0.00133053
0.00146958
0.00160838
0.00172816
0.00182098
0.001886
0.00193034
0.0019488
0.000976068
0.000973569
0.000971007
0.000968385
0.000965706
0.000962973
0.000960191
0.000957366
0.000954501
0.000951596
0.000948645
0.000945641
0.000942577
0.00093945
0.00093626
0.000933012
0.000929706
0.00092634
0.000922904
0.000919384
0.000915761
0.00091202
0.000908148
0.000904147
0.000900033
0.000895845
0.000891644
0.000887515
0.000883556
0.000879869
0.000876549
0.00087367
0.00087128
0.000869398
0.000868014
0.000867099
0.000866611
0.000866499
0.000866717
0.000867224
0.000867989
0.000868997
0.000870241
0.000871728
0.000873471
0.000875494
0.000877819
0.000880474
0.000883483
0.000886864
0.000890624
0.000894759
0.000899245
0.000904041
0.000909086
0.000914305
0.000919612
0.000924917
0.000930135
0.000935196
0.000940048
0.000944668
0.000949056
0.000953239
0.000957252
0.000961127
0.000964883
0.000968515
0.000972002
0.000975312
0.000978413
0.000981291
0.00098395
0.000986416
0.000988732
0.000990954
0.000993153
0.000995415
0.000997864
0.00100069
0.00100421
0.00100881
0.00101488
0.00102265
0.00103195
0.00104225
0.00105275
0.00106274
0.00107236
0.00108454
0.00110768
0.0011548
0.00123452
0.00134124
0.00145782
0.0015667
0.00165739
0.00172548
0.00177596
0.00180383
0.000991961
0.00099039
0.000988758
0.000987066
0.000985316
0.00098351
0.00098165
0.00097974
0.000977782
0.00097578
0.000973735
0.000971649
0.000969525
0.000967364
0.000965168
0.000962941
0.000960685
0.000958401
0.000956088
0.000953744
0.000951366
0.00094895
0.000946499
0.000944017
0.000941515
0.000939012
0.000936537
0.000934124
0.000931812
0.000929644
0.000927658
0.000925886
0.00092435
0.00092306
0.000922017
0.000921213
0.000920634
0.000920265
0.000920091
0.000920101
0.000920286
0.000920647
0.000921187
0.000921913
0.000922838
0.000923973
0.000925333
0.000926931
0.000928781
0.00093089
0.000933263
0.000935895
0.000938771
0.000941866
0.000945139
0.000948539
0.000952007
0.000955479
0.000958891
0.000962188
0.000965327
0.000968285
0.000971058
0.000973662
0.000976129
0.000978498
0.000980809
0.000983089
0.000985352
0.000987597
0.000989813
0.000991984
0.000994097
0.000996145
0.000998129
0.00100006
0.00100196
0.00100385
0.0010058
0.0010079
0.00101032
0.00101332
0.00101722
0.00102233
0.00102877
0.00103643
0.00104492
0.00105367
0.00106227
0.00107164
0.00108616
0.0011149
0.00116732
0.00124453
0.00133651
0.00142909
0.0015117
0.00157767
0.00163058
0.00166434
0.000999993
0.000999042
0.000998044
0.000996998
0.000995906
0.000994766
0.000993582
0.000992354
0.000991082
0.00098977
0.000988418
0.000987028
0.000985603
0.000984145
0.000982657
0.00098114
0.000979598
0.000978033
0.000976448
0.000974848
0.000973236
0.000971617
0.000969997
0.000968386
0.000966792
0.000965227
0.000963704
0.000962239
0.000960845
0.000959536
0.000958326
0.000957222
0.000956233
0.00095536
0.000954604
0.000953963
0.000953434
0.000953015
0.000952705
0.000952506
0.000952421
0.000952457
0.000952621
0.000952923
0.000953373
0.000953981
0.000954757
0.000955708
0.000956842
0.000958163
0.000959673
0.000961368
0.000963238
0.000965265
0.000967423
0.000969677
0.000971984
0.000974299
0.000976575
0.000978768
0.000980843
0.000982777
0.000984561
0.000986202
0.000987722
0.000989151
0.000990527
0.000991885
0.000993255
0.000994657
0.000996101
0.000997587
0.000999108
0.00100065
0.00100221
0.00100378
0.00100534
0.0010069
0.00100848
0.00101009
0.00101183
0.00101382
0.00101629
0.00101946
0.00102358
0.00102876
0.00103494
0.00104189
0.00104924
0.00105704
0.00106707
0.00108459
0.00111753
0.00117089
0.00124098
0.00131711
0.00138926
0.00144954
0.00150143
0.0015369
0.00100366
0.00100307
0.00100245
0.0010018
0.00100112
0.00100041
0.000999661
0.000998882
0.000998072
0.00099723
0.000996357
0.000995453
0.00099452
0.000993558
0.000992569
0.000991554
0.000990514
0.000989453
0.000988374
0.000987281
0.000986181
0.000985081
0.000983988
0.000982911
0.000981859
0.000980839
0.00097986
0.000978928
0.000978047
0.00097722
0.000976448
0.000975733
0.000975073
0.000974466
0.000973913
0.000973411
0.000972963
0.00097257
0.000972237
0.000971969
0.000971774
0.000971662
0.000971641
0.000971722
0.000971914
0.000972226
0.000972665
0.000973238
0.000973948
0.0009748
0.000975793