/*--------------------------------*- C++ -*----------------------------------*\
  =========                 |
  \\      /  F ield         | OpenFOAM: The Open Source CFD Toolbox
   \\    /   O peration     | Website:  https://openfoam.org
    \\  /    A nd           | Version:  10
     \\/     M anipulation  |
\*---------------------------------------------------------------------------*/
FoamFile
{
    format      ascii;
    class       volScalarField;
    location    "1200";
    object      p;
}
// * * * * * * * * * * * * * * * * * * * * * * * * * * * * * * * * * * * * * //

dimensions      [0 2 -2 0 0 0 0];

internalField   nonuniform List<scalar> 
6820
(
-8.06554
-8.83706
-9.28457
-9.43173
-9.51047
-9.57575
-9.62151
-9.65202
-9.67567
-9.69619
-9.71441
-9.73086
-9.7461
-9.76051
-9.77427
-9.78748
-9.80019
-9.81244
-9.82424
-9.83557
-9.84638
-9.85658
-9.86604
-9.87456
-9.88183
-9.88738
-9.89047
-9.88962
-9.88306
-9.86572
-9.82786
-9.76975
-9.57155
-9.61996
-9.76516
-9.74119
-9.67254
-9.64504
-9.65055
-9.66368
-9.67683
-9.69087
-9.7058
-9.72066
-9.73499
-9.74881
-9.76218
-9.77511
-9.78763
-9.79975
-9.81148
-9.82281
-9.83373
-9.84417
-9.85407
-9.8633
-9.87171
-9.87904
-9.88494
-9.8888
-9.89023
-9.88684
-9.88135
-9.86141
-9.86707
-9.82098
-9.62362
-9.48827
-9.4887
-9.52308
-9.55894
-9.59646
-9.62887
-9.65429
-9.67566
-9.6949
-9.71244
-9.72851
-9.7435
-9.75771
-9.77128
-9.78432
-9.79688
-9.809
-9.82071
-9.83199
-9.84279
-9.85306
-9.86271
-9.87158
-9.87949
-9.88617
-9.89121
-9.89436
-9.89463
-9.89363
-9.8884
-9.89808
-9.8967
-9.55399
-9.47648
-9.52097
-9.56833
-9.59432
-9.61903
-9.64326
-9.66386
-9.682
-9.69904
-9.71514
-9.73031
-9.74472
-9.75854
-9.77185
-9.78471
-9.79715
-9.80921
-9.82087
-9.83214
-9.84297
-9.85333
-9.86313
-9.87229
-9.88066
-9.8881
-9.89442
-9.89964
-9.90358
-9.9079
-9.91294
-9.92847
-9.95267
-9.54748
-9.51806
-9.54788
-9.57955
-9.59898
-9.62043
-9.64337
-9.66375
-9.68185
-9.69883
-9.7149
-9.73006
-9.74445
-9.75826
-9.77156
-9.78442
-9.79687
-9.80895
-9.82067
-9.83202
-9.84299
-9.85354
-9.86364
-9.87321
-9.88222
-9.89061
-9.89837
-9.90574
-9.91304
-9.92181
-9.93354
-9.95406
-9.98638
-9.5554
-9.54137
-9.5576
-9.58319
-9.60339
-9.62421
-9.64587
-9.66553
-9.68321
-9.69981
-9.71559
-9.73054
-9.7448
-9.7585
-9.77173
-9.78455
-9.79699
-9.80909
-9.82085
-9.83229
-9.84339
-9.85415
-9.86455
-9.87458
-9.88425
-9.89359
-9.90275
-9.91208
-9.92215
-9.93434
-9.95032
-9.97365
-10.0073
-9.56318
-9.55571
-9.56721
-9.58971
-9.60951
-9.62876
-9.64866
-9.66738
-9.68454
-9.70074
-9.71622
-9.73097
-9.74509
-9.7587
-9.77187
-9.78465
-9.79709
-9.80921
-9.82103
-9.83257
-9.84383
-9.85482
-9.86555
-9.87605
-9.88638
-9.89666
-9.9071
-9.91812
-9.93036
-9.94499
-9.96345
-9.98792
-10.0204
-9.57114
-9.56808
-9.57771
-9.59689
-9.61525
-9.63305
-9.6515
-9.66933
-9.68597
-9.70176
-9.7169
-9.73143
-9.7454
-9.7589
-9.772
-9.78474
-9.79717
-9.80931
-9.8212
-9.83284
-9.84426
-9.85549
-9.86656
-9.87752
-9.88848
-9.8996
-9.91114
-9.92352
-9.93736
-9.95358
-9.97327
-9.99776
-10.0281
-9.57951
-9.57913
-9.58756
-9.60381
-9.6207
-9.63733
-9.65453
-9.67145
-9.68752
-9.70286
-9.71767
-9.73195
-9.74574
-9.75911
-9.77212
-9.78481
-9.79722
-9.80939
-9.82132
-9.83307
-9.84465
-9.85611
-9.86749
-9.87889
-9.89041
-9.90225
-9.91468
-9.92808
-9.94299
-9.96011
-9.9802
-10.004
-10.0321
-9.58794
-9.58898
-9.59659
-9.61059
-9.62606
-9.64163
-9.65769
-9.67371
-9.68917
-9.70406
-9.7185
-9.73251
-9.7461
-9.75933
-9.77224
-9.78487
-9.79725
-9.80942
-9.82141
-9.83325
-9.84497
-9.85664
-9.86831
-9.88008
-9.89208
-9.90449
-9.91759
-9.93169
-9.94724
-9.96474
-9.98468
-10.0075
-10.0332
-9.59618
-9.59792
-9.60495
-9.61721
-9.63132
-9.64586
-9.66089
-9.67606
-9.6909
-9.70533
-9.7194
-9.73312
-9.7465
-9.75956
-9.77236
-9.78491
-9.79725
-9.80942
-9.82144
-9.83335
-9.8452
-9.85704
-9.86895
-9.88103
-9.8934
-9.90625
-9.9198
-9.93433
-9.95017
-9.96767
-9.98712
-10.0087
-10.0323
-9.60409
-9.60613
-9.61267
-9.62356
-9.63643
-9.64999
-9.66409
-9.67846
-9.69269
-9.70664
-9.72034
-9.73376
-9.74691
-9.7598
-9.77246
-9.78492
-9.79721
-9.80936
-9.8214
-9.83336
-9.84531
-9.85729
-9.86938
-9.88169
-9.89433
-9.90747
-9.92129
-9.93601
-9.95187
-9.9691
-9.98786
-10.0082
-10.0299
-9.61159
-9.61372
-9.61981
-9.6296
-9.64136
-9.65401
-9.66726
-9.68087
-9.6945
-9.70798
-9.72129
-9.73441
-9.74732
-9.76002
-9.77254
-9.7849
-9.79712
-9.80923
-9.82127
-9.83326
-9.84527
-9.85735
-9.86957
-9.88203
-9.89483
-9.90812
-9.92205
-9.93677
-9.95246
-9.96924
-9.98719
-10.0063
-10.0264
-9.61864
-9.62074
-9.62641
-9.6353
-9.64608
-9.65787
-9.67035
-9.68325
-9.6963
-9.70932
-9.72225
-9.73505
-9.74771
-9.76022
-9.77259
-9.78483
-9.79696
-9.80902
-9.82102
-9.83302
-9.84506
-9.85718
-9.86947
-9.88201
-9.89488
-9.9082
-9.92209
-9.93667
-9.95203
-9.96826
-9.98536
-10.0033
-10.0218
-9.6252
-9.62722
-9.6325
-9.64063
-9.65056
-9.66157
-9.67332
-9.68557
-9.69807
-9.71063
-9.72318
-9.73567
-9.74807
-9.76037
-9.77257
-9.78468
-9.79671
-9.80869
-9.82065
-9.83262
-9.84464
-9.85677
-9.86907
-9.8816
-9.89445
-9.90771
-9.92145
-9.93576
-9.9507
-9.9663
-9.98254
-9.99934
-10.0166
-9.63127
-9.63318
-9.63809
-9.64557
-9.65476
-9.66505
-9.67615
-9.68779
-9.69976
-9.71188
-9.72405
-9.73623
-9.74837
-9.76046
-9.77248
-9.78444
-9.79636
-9.80824
-9.82012
-9.83203
-9.84401
-9.85609
-9.86834
-9.8808
-9.89355
-9.90665
-9.92015
-9.93411
-9.94856
-9.96349
-9.97888
-9.99464
-10.0106
-9.63683
-9.63862
-9.64319
-9.65012
-9.65865
-9.6683
-9.67879
-9.68988
-9.70135
-9.71304
-9.72485
-9.73671
-9.74859
-9.76045
-9.77229
-9.78409
-9.79587
-9.80764
-9.81942
-9.83124
-9.84313
-9.85512
-9.86727
-9.8796
-9.89218
-9.90505
-9.91824
-9.93179
-9.9457
-9.95995
-9.97451
-9.98929
-10.0042
-9.64188
-9.64355
-9.64781
-9.65426
-9.66221
-9.67129
-9.68122
-9.69179
-9.70279
-9.71408
-9.72553
-9.73709
-9.74871
-9.76034
-9.77198
-9.78361
-9.79524
-9.80688
-9.81853
-9.83023
-9.842
-9.85386
-9.86585
-9.878
-9.89035
-9.90293
-9.91576
-9.92885
-9.94219
-9.95577
-9.96953
-9.98339
-9.99728
-9.6464
-9.64797
-9.65195
-9.65797
-9.66542
-9.67398
-9.68341
-9.6935
-9.70407
-9.71497
-9.72608
-9.73735
-9.7487
-9.7601
-9.77154
-9.78299
-9.79445
-9.80593
-9.81744
-9.82898
-9.84059
-9.85228
-9.86408
-9.876
-9.88808
-9.90032
-9.91275
-9.92535
-9.93812
-9.95102
-9.96401
-9.97702
-9.98998
-9.65039
-9.65187
-9.65559
-9.66124
-9.66825
-9.67634
-9.68532
-9.69498
-9.70515
-9.71568
-9.72647
-9.73744
-9.74854
-9.75971
-9.77094
-9.7822
-9.79348
-9.80479
-9.81612
-9.82749
-9.83891
-9.8504
-9.86196
-9.87362
-9.88538
-9.89726
-9.90926
-9.92136
-9.93354
-9.94578
-9.95803
-9.97024
-9.98234
-9.65384
-9.65523
-9.65873
-9.66405
-9.67067
-9.67835
-9.68692
-9.69619
-9.70598
-9.71618
-9.72666
-9.73736
-9.7482
-9.75914
-9.77016
-9.78122
-9.79231
-9.80343
-9.81457
-9.82574
-9.83695
-9.8482
-9.85951
-9.87087
-9.88229
-9.89378
-9.90532
-9.91691
-9.92851
-9.94011
-9.95166
-9.96311
-9.97441
-9.65673
-9.65805
-9.66136
-9.66638
-9.67266
-9.67998
-9.68818
-9.69709
-9.70655
-9.71643
-9.72663
-9.73706
-9.74766
-9.75838
-9.76918
-9.78004
-9.79093
-9.80185
-9.81278
-9.82374
-9.83471
-9.84571
-9.85672
-9.86776
-9.87883
-9.8899
-9.90099
-9.91206
-9.92309
-9.93407
-9.94494
-9.95568
-9.96623
-9.65906
-9.66031
-9.66344
-9.66821
-9.6742
-9.6812
-9.68907
-9.69766
-9.70682
-9.71642
-9.72635
-9.73653
-9.7469
-9.7574
-9.76799
-9.77864
-9.78932
-9.80003
-9.81075
-9.82147
-9.8322
-9.84292
-9.85363
-9.86433
-9.87502
-9.88567
-9.89629
-9.90685
-9.91733
-9.9277
-9.93793
-9.94799
-9.95784
-9.66081
-9.66199
-9.66497
-9.66952
-9.67524
-9.68196
-9.68955
-9.69787
-9.70676
-9.7161
-9.72579
-9.73574
-9.74589
-9.75618
-9.76657
-9.77701
-9.78749
-9.79798
-9.80847
-9.81895
-9.82941
-9.83984
-9.85024
-9.86059
-9.87089
-9.88113
-9.89128
-9.90134
-9.91127
-9.92106
-9.93068
-9.9401
-9.94928
-9.66194
-9.66308
-9.66592
-9.67027
-9.67577
-9.68225
-9.6896
-9.69767
-9.70633
-9.71544
-9.72492
-9.73467
-9.74462
-9.75471
-9.76489
-9.77514
-9.78541
-9.79568
-9.80594
-9.81617
-9.82636
-9.8365
-9.84657
-9.85658
-9.86649
-9.8763
-9.886
-9.89556
-9.90497
-9.9142
-9.92323
-9.93204
-9.9406
-9.66245
-9.66353
-9.66626
-9.67043
-9.67574
-9.68202
-9.68916
-9.69704
-9.7055
-9.71442
-9.72372
-9.73328
-9.74305
-9.75296
-9.76296
-9.77301
-9.78308
-9.79314
-9.80317
-9.81315
-9.82307
-9.83291
-9.84266
-9.8523
-9.86183
-9.87123
-9.88048
-9.88956
-9.89846
-9.90716
-9.91563
-9.92387
-9.93183
-9.6623
-9.66334
-9.66595
-9.66997
-9.67511
-9.68122
-9.68821
-9.69592
-9.70423
-9.71301
-9.72215
-9.73157
-9.74118
-9.75093
-9.76076
-9.77063
-9.7805
-9.79036
-9.80016
-9.80989
-9.81954
-9.82909
-9.83852
-9.84782
-9.85697
-9.86596
-9.87478
-9.8834
-9.89182
-9.90001
-9.90795
-9.91564
-9.92304
-9.66147
-9.66246
-9.66496
-9.66884
-9.67384
-9.67983
-9.6867
-9.6943
-9.7025
-9.71117
-9.7202
-9.72949
-9.73898
-9.74859
-9.75828
-9.76798
-9.77768
-9.78733
-9.79691
-9.80641
-9.81579
-9.82505
-9.83416
-9.84312
-9.85191
-9.86051
-9.86891
-9.87709
-9.88504
-9.89274
-9.90018
-9.90735
-9.91423
-9.65992
-9.66087
-9.66325
-9.66698
-9.67186
-9.67777
-9.68457
-9.69212
-9.70026
-9.70886
-9.71783
-9.72705
-9.73645
-9.74596
-9.75552
-9.76509
-9.77463
-9.7841
-9.79349
-9.80276
-9.81189
-9.82088
-9.8297
-9.83834
-9.84678
-9.85501
-9.86301
-9.87077
-9.87829
-9.88553
-9.8925
-9.89919
-9.90557
-9.65764
-9.65852
-9.66075
-9.66433
-9.66912
-9.67499
-9.68179
-9.68933
-9.69747
-9.70608
-9.71502
-9.72421
-9.73355
-9.74297
-9.75243
-9.76187
-9.77126
-9.78056
-9.78975
-9.79881
-9.8077
-9.81642
-9.82495
-9.83328
-9.84138
-9.84925
-9.85688
-9.86425
-9.87135
-9.87816
-9.88469
-9.89093
-9.89685
-9.65462
-9.6554
-9.65741
-9.66079
-9.66552
-9.67142
-9.67827
-9.68588
-9.6941
-9.70279
-9.7118
-9.72104
-9.7304
-9.73983
-9.74926
-9.75864
-9.76794
-9.77713
-9.78617
-9.79505
-9.80374
-9.81223
-9.82051
-9.82855
-9.83635
-9.84389
-9.85117
-9.85817
-9.86488
-9.8713
-9.87741
-9.88321
-9.88868
-9.65086
-9.65147
-9.65312
-9.65623
-9.66094
-9.66698
-9.67398
-9.68172
-9.69005
-9.69881
-9.70786
-9.7171
-9.72645
-9.73583
-9.74519
-9.75448
-9.76366
-9.77271
-9.78159
-9.79029
-9.79879
-9.80706
-9.8151
-9.82288
-9.83041
-9.83766
-9.84463
-9.8513
-9.85768
-9.86374
-9.8695
-9.87494
-9.88007
-9.64646
-9.64674
-9.64775
-9.65045
-9.65518
-9.66147
-9.66882
-9.67701
-9.68584
-9.69507
-9.70452
-9.71409
-9.72368
-9.73323
-9.7427
-9.75203
-9.7612
-9.77019
-9.77897
-9.78752
-9.79583
-9.80389
-9.81169
-9.81921
-9.82644
-9.83338
-9.84002
-9.84634
-9.85235
-9.85804
-9.86339
-9.86841
-9.87307
-9.64165
-9.64117
-9.641
-9.64335
-9.64835
-9.6547
-9.66182
-9.66977
-9.67845
-9.6876
-9.69701
-9.70656
-9.71617
-9.72576
-9.73527
-9.74465
-9.75386
-9.76287
-9.77167
-9.78022
-9.78851
-9.79652
-9.80425
-9.81169
-9.81882
-9.82564
-9.83213
-9.8383
-9.84414
-9.84965
-9.85482
-9.85967
-9.86421
-9.63711
-9.6348
-9.63172
-9.63368
-9.6407
-9.64969
-9.65922
-9.66915
-9.67937
-9.68961
-9.69976
-9.70977
-9.7196
-9.72924
-9.73866
-9.74784
-9.75678
-9.76546
-9.77388
-9.78203
-9.78989
-9.79746
-9.80474
-9.8117
-9.81836
-9.82469
-9.8307
-9.83638
-9.84173
-9.84673
-9.85138
-9.85567
-9.85958
-9.63404
-9.62884
-9.62108
-9.61846
-9.62064
-9.62571
-9.63325
-9.64272
-9.65322
-9.66412
-9.6752
-9.6863
-9.69732
-9.70813
-9.71869
-9.72896
-9.73892
-9.74855
-9.75784
-9.76677
-9.77536
-9.78358
-9.79144
-9.79893
-9.80604
-9.81279
-9.81916
-9.82516
-9.83079
-9.83604
-9.84094
-9.8455
-9.84974
-9.63406
-9.61406
-9.61665
-9.63611
-9.65242
-9.66283
-9.67209
-9.68189
-9.69153
-9.70067
-9.70949
-9.71816
-9.72668
-9.73503
-9.74321
-9.75121
-9.75902
-9.76664
-9.77404
-9.78121
-9.78814
-9.79482
-9.80123
-9.80736
-9.8132
-9.81875
-9.82399
-9.82892
-9.83353
-9.8378
-9.84174
-9.84532
-9.84853
-9.6712
-9.54787
-9.48456
-9.48787
-9.50979
-9.53101
-9.55176
-9.57291
-9.59341
-9.61264
-9.6306
-9.64743
-9.66319
-9.67796
-9.69183
-9.70488
-9.71718
-9.72878
-9.73974
-9.75008
-9.75983
-9.76904
-9.77771
-9.78587
-9.79354
-9.80072
-9.80742
-9.81367
-9.81947
-9.82483
-9.82977
-9.83429
-9.83843
-9.83089
-9.84396
-9.80248
-9.76003
-9.73563
-9.72461
-9.71954
-9.717
-9.71651
-9.71808
-9.72128
-9.72557
-9.73059
-9.73615
-9.7421
-9.74831
-9.75466
-9.76107
-9.76748
-9.77382
-9.78005
-9.78613
-9.79202
-9.79771
-9.80316
-9.80836
-9.81329
-9.81793
-9.82228
-9.82633
-9.83006
-9.83348
-9.83656
-8.66651
-8.96673
-9.23148
-9.35702
-9.4216
-9.47725
-9.52626
-9.56407
-9.59319
-9.61751
-9.63877
-9.65749
-9.6741
-9.68908
-9.70279
-9.71544
-9.72718
-9.73812
-9.74836
-9.75796
-9.76697
-9.77543
-9.78336
-9.79079
-9.79775
-9.80423
-9.81027
-9.81586
-9.82102
-9.82575
-9.83007
-9.83398
-9.83749
-9.98648
-10.4021
-10.319
-10.3047
-10.3821
-10.4507
-10.4759
-10.4697
-10.4519
-10.4377
-10.4358
-10.449
-10.4754
-10.5112
-10.5522
-10.5955
-10.6389
-10.6811
-10.7218
-10.7612
-10.8004
-10.8412
-10.8848
-10.9319
-10.9817
-11.0319
-11.0791
-11.1193
-11.148
-11.1614
-11.1562
-11.1302
-11.0824
-11.0131
-10.9235
-10.8155
-10.6916
-10.5542
-10.4055
-10.2476
-10.0818
-9.90893
-9.72957
-9.54373
-9.35115
-9.15134
-8.9436
-8.72712
-8.50098
-8.26431
-8.01639
-7.75681
-7.4856
-7.20342
-6.91154
-6.61196
-6.30722
-6.00032
-5.69441
-5.3926
-5.09762
-4.81165
-4.53617
-4.27193
-4.01901
-3.77698
-3.54503
-3.3222
-3.10747
-2.89993
-2.6988
-2.50354
-2.31382
-2.12957
-1.95099
-1.77852
-1.61285
-1.45489
-1.30565
-1.16614
-1.03706
-0.918675
-0.810619
-0.711908
-0.621027
-0.536197
-0.455697
-0.378487
-0.304872
-0.236885
-0.177567
-0.129409
-0.0929658
-0.0668386
-0.0485796
-0.0358786
-0.0258076
-0.020923
-0.00450822
-0.02975
-9.9901
-10.3781
-10.3653
-10.3462
-10.399
-10.4399
-10.4429
-10.4247
-10.4037
-10.3916
-10.3945
-10.4134
-10.445
-10.4844
-10.5271
-10.5702
-10.6123
-10.6529
-10.6922
-10.7305
-10.769
-10.8091
-10.8521
-10.8983
-10.9468
-10.9955
-11.041
-11.0791
-11.1056
-11.1168
-11.1094
-11.0816
-11.0324
-10.9621
-10.872
-10.7641
-10.6406
-10.5041
-10.3567
-10.2002
-10.036
-9.86493
-9.68745
-9.50357
-9.31302
-9.11532
-8.90978
-8.69559
-8.47187
-8.23773
-7.99244
-7.73559
-7.46719
-7.18787
-6.89891
-6.60225
-6.30043
-5.9964
-5.69331
-5.39422
-5.10184
-4.81836
-4.54523
-4.2832
-4.03233
-3.79216
-3.56186
-3.34045
-3.12688
-2.92023
-2.71972
-2.5248
-2.33516
-2.15076
-1.9718
-1.79874
-1.6323
-1.4734
-1.32312
-1.18251
-1.05235
-0.932969
-0.824009
-0.724466
-0.632727
-0.546834
-0.464835
-0.385508
-0.309208
-0.238352
-0.176553
-0.126717
-0.0894181
-0.0629739
-0.04459
-0.0318322
-0.0215778
-0.0168188
-0.000219442
-0.0268789
-10.0066
-10.2537
-10.3084
-10.3177
-10.3668
-10.4082
-10.4171
-10.4052
-10.389
-10.3792
-10.3821
-10.3991
-10.4277
-10.4637
-10.5028
-10.5426
-10.5818
-10.6204
-10.6585
-10.6964
-10.7347
-10.7746
-10.8169
-10.8619
-10.9087
-10.9551
-10.998
-11.0334
-11.0573
-11.0659
-11.0565
-11.0271
-10.977
-10.9065
-10.8167
-10.7095
-10.5873
-10.4523
-10.3065
-10.1519
-9.9896
-9.82048
-9.64491
-9.46294
-9.2743
-9.07854
-8.875
-8.66291
-8.44142
-8.20967
-7.96697
-7.71289
-7.44747
-7.17131
-6.88565
-6.5924
-6.29403
-5.9934
-5.69359
-5.39759
-5.10807
-4.82718
-4.55636
-4.29636
-4.04728
-3.80865
-3.57968
-3.35937
-3.14669
-2.94072
-2.74069
-2.54606
-2.35654
-2.17209
-1.99293
-1.81951
-1.65255
-1.49299
-1.34191
-1.20037
-1.06922
-0.948803
-0.838823
-0.73827
-0.645489
-0.558406
-0.474913
-0.393646
-0.31498
-0.241599
-0.177552
-0.126083
-0.0878045
-0.0608255
-0.0420757
-0.0290261
-0.0184078
-0.0135049
0.00319787
-0.0240837
-10.0335
-10.2
-10.2829
-10.3082
-10.347
-10.3833
-10.3953
-10.389
-10.3784
-10.3734
-10.379
-10.3965
-10.4238
-10.4572
-10.4929
-10.5288
-10.5641
-10.5988
-10.6334
-10.6681
-10.7036
-10.7408
-10.7802
-10.8222
-10.8658
-10.9089
-10.9484
-10.9804
-11.0013
-11.0075
-10.9963
-10.9659
-10.9156
-10.8455
-10.7569
-10.6515
-10.5313
-10.3985
-10.255
-10.1027
-9.94255
-9.77549
-9.60188
-9.42175
-9.23489
-9.04088
-8.83913
-8.6289
-8.40941
-8.17987
-7.93963
-7.68832
-7.42597
-7.15319
-6.87117
-6.58176
-6.28731
-5.99058
-5.69452
-5.40201
-5.11563
-4.83747
-4.56896
-4.31088
-4.06335
-3.82598
-3.598
-3.37848
-3.16642
-2.96092
-2.76124
-2.56687
-2.37751
-2.19313
-2.01396
-1.84045
-1.67329
-1.51339
-1.3618
-1.21958
-1.08757
-0.966166
-0.855092
-0.753377
-0.659377
-0.57099
-0.486032
-0.403054
-0.322417
-0.246942
-0.180946
-0.127929
-0.0885662
-0.060855
-0.041522
-0.0279705
-0.0168156
-0.0115349
0.00532166
-0.0219648
-10.0515
-10.1701
-10.2512
-10.2839
-10.316
-10.348
-10.364
-10.3657
-10.3632
-10.3642
-10.3729
-10.3906
-10.4159
-10.4463
-10.479
-10.5123
-10.5455
-10.5787
-10.6118
-10.6451
-10.6788
-10.7133
-10.7494
-10.7871
-10.8257
-10.8634
-10.8975
-10.9245
-10.9411
-10.944
-10.9306
-10.8991
-10.8488
-10.7798
-10.693
-10.5899
-10.4723
-10.3423
-10.2016
-10.0518
-9.89409
-9.72921
-9.55757
-9.37924
-9.19405
-9.00164
-8.80147
-8.59289
-8.3752
-8.14768
-7.90978
-7.66117
-7.40193
-7.13266
-6.85452
-6.56926
-6.27911
-5.9867
-5.69481
-5.40616
-5.12323
-4.84801
-4.58193
-4.32577
-4.07972
-3.84344
-3.61627
-3.39734
-3.18572
-2.98056
-2.78115
-2.58701
-2.39787
-2.21369
-2.03469
-1.86132
-1.69423
-1.53428
-1.38248
-1.23983
-1.10714
-0.984822
-0.872635
-0.769667
-0.674333
-0.584568
-0.498203
-0.413755
-0.331535
-0.254364
-0.186666
-0.132112
-0.0915004
-0.062821
-0.0426794
-0.0284309
-0.0165912
-0.0107441
0.0063342
-0.020475
-10.0626
-10.1509
-10.2221
-10.2596
-10.2899
-10.3195
-10.3387
-10.3467
-10.3503
-10.3554
-10.3658
-10.3828
-10.4059
-10.4334
-10.4633
-10.4943
-10.5255
-10.5568
-10.5882
-10.6196
-10.6513
-10.6835
-10.7165
-10.7504
-10.7845
-10.8171
-10.8458
-10.8677
-10.8798
-10.879
-10.8631
-10.8303
-10.7798
-10.7118
-10.6267
-10.526
-10.4112
-10.284
-10.1462
-9.99902
-9.84372
-9.68099
-9.51126
-9.33464
-9.15101
-8.96006
-8.76135
-8.55429
-8.33827
-8.11267
-7.87703
-7.6311
-7.375
-7.10933
-6.83522
-6.55431
-6.26873
-5.98092
-5.69349
-5.409
-5.12979
-4.85775
-4.59428
-4.34016
-4.09563
-3.86045
-3.63405
-3.41565
-3.20441
-2.99955
-2.8004
-2.60652
-2.41764
-2.23376
-2.05507
-1.882
-1.71518
-1.55541
-1.40363
-1.26076
-1.12758
-1.00446
-0.891205
-0.786968
-0.690256
-0.599106
-0.511433
-0.425776
-0.342369
-0.263898
-0.194726
-0.138616
-0.0965341
-0.0665929
-0.0453746
-0.0302117
-0.0175301
-0.0109373
0.00645116
-0.0194579
-10.0681
-10.1367
-10.1977
-10.2366
-10.2665
-10.2943
-10.3151
-10.3275
-10.3354
-10.3437
-10.3555
-10.3721
-10.3936
-10.4189
-10.4467
-10.4756
-10.505
-10.5345
-10.5639
-10.5934
-10.6229
-10.6526
-10.6825
-10.7126
-10.7422
-10.7697
-10.7931
-10.8099
-10.8173
-10.8128
-10.7942
-10.7599
-10.7091
-10.6418
-10.5584
-10.4599
-10.3478
-10.2234
-10.0883
-9.94386
-9.79098
-9.63043
-9.46262
-9.28772
-9.10566
-8.91619
-8.71894
-8.51341
-8.29907
-8.07542
-7.84207
-7.59885
-7.34594
-7.08395
-6.81395
-6.53751
-6.2566
-5.97353
-5.6907
-5.41053
-5.1352
-4.86651
-4.60579
-4.35384
-4.11095
-3.87695
-3.65138
-3.43355
-3.22271
-3.01816
-2.81929
-2.62569
-2.43713
-2.25359
-2.07528
-1.9026
-1.73615
-1.57668
-1.42504
-1.28211
-1.14856
-1.02476
-0.910514
-0.805047
-0.706979
-0.614488
-0.52563
-0.439021
-0.354813
-0.275453
-0.205076
-0.147423
-0.103659
-0.0721379
-0.0495381
-0.0332117
-0.0195096
-0.0119851
0.00581749
-0.0187783
-10.0697
-10.1253
-10.1773
-10.2154
-10.2451
-10.2717
-10.2933
-10.3085
-10.3197
-10.3304
-10.3432
-10.3596
-10.3799
-10.4035
-10.4294
-10.4564
-10.4839
-10.5114
-10.5389
-10.5662
-10.5935
-10.6206
-10.6476
-10.6741
-10.6994
-10.7223
-10.7407
-10.7526
-10.7556
-10.7473
-10.7259
-10.6899
-10.6386
-10.5716
-10.4895
-10.3929
-10.2831
-10.1614
-10.0289
-9.887
-9.73651
-9.57813
-9.4123
-9.23918
-9.05878
-8.87089
-8.6752
-8.47131
-8.25877
-8.03717
-7.80622
-7.56581
-7.31617
-7.05791
-6.79208
-6.52013
-6.24393
-5.9656
-5.68741
-5.41159
-5.14018
-4.87488
-4.61699
-4.36729
-4.1261
-3.89336
-3.66868
-3.45146
-3.24107
-3.03686
-2.83829
-2.64499
-2.45675
-2.27358
-2.09567
-1.92339
-1.75733
-1.59818
-1.44673
-1.30377
-1.16993
-1.04551
-0.930338
-0.823695
-0.724319
-0.630549
-0.540622
-0.453274
-0.368596
-0.28874
-0.217475
-0.158385
-0.112804
-0.0794192
-0.0551273
-0.0373673
-0.0224462
-0.0137946
0.0045306
-0.018325
-10.0687
-10.1151
-10.16
-10.1961
-10.2252
-10.2509
-10.2727
-10.2897
-10.3032
-10.3157
-10.3295
-10.3458
-10.3652
-10.3873
-10.4114
-10.4366
-10.4621
-10.4875
-10.5129
-10.5381
-10.5631
-10.5877
-10.6118
-10.6348
-10.6562
-10.6747
-10.6886
-10.696
-10.6948
-10.6831
-10.659
-10.6213
-10.5692
-10.5024
-10.4212
-10.3263
-10.2186
-10.0992
-9.96927
-9.82978
-9.68161
-9.5254
-9.36156
-9.1903
-9.01163
-8.82542
-8.63142
-8.42929
-8.21867
-7.99925
-7.77078
-7.53326
-7.28694
-7.03244
-6.77074
-6.50324
-6.23168
-5.95802
-5.68438
-5.41284
-5.1453
-4.88338
-4.62831
-4.38087
-4.14144
-3.91
-3.68625
-3.4697
-3.25978
-3.05594
-2.85769
-2.66471
-2.4768
-2.29399
-2.11646
-1.94458
-1.77888
-1.62003
-1.46876
-1.32578
-1.19165
-1.06664
-0.950574
-0.8428
-0.742163
-0.64717
-0.556251
-0.468295
-0.383372
-0.303336
-0.231506
-0.171179
-0.123776
-0.0883364
-0.0620817
-0.0426199
-0.0262689
-0.016287
0.00266595
-0.0179966
-10.0658
-10.1056
-10.1448
-10.1785
-10.2067
-10.2315
-10.2532
-10.2712
-10.2862
-10.3001
-10.3146
-10.3309
-10.3495
-10.3703
-10.3927
-10.4159
-10.4395
-10.4629
-10.4862
-10.5093
-10.5319
-10.5539
-10.5751
-10.5948
-10.6125
-10.6269
-10.6366
-10.6399
-10.635
-10.62
-10.5934
-10.554
-10.5011
-10.4344
-10.3541
-10.2606
-10.1548
-10.0376
-9.90993
-9.77276
-9.62685
-9.47278
-9.31097
-9.14161
-8.96476
-8.78032
-8.58811
-8.38786
-8.17928
-7.96211
-7.73622
-7.50163
-7.25864
-7.00786
-6.75024
-6.4871
-6.22006
-5.95096
-5.68175
-5.41437
-5.15062
-4.89202
-4.63975
-4.39458
-4.15692
-3.92682
-3.70405
-3.48821
-3.27882
-3.07538
-2.87749
-2.68483
-2.49727
-2.31482
-2.13766
-1.96617
-1.80082
-1.64225
-1.49113
-1.34811
-1.21369
-1.0881
-0.971176
-0.862311
-0.760461
-0.664292
-0.572428
-0.48392
-0.398851
-0.318818
-0.246679
-0.185355
-0.136244
-0.0986932
-0.0702936
-0.0488983
-0.0309114
-0.0193935
0.000284229
-0.0177045
-10.0615
-10.0965
-10.1311
-10.1622
-10.1892
-10.2132
-10.2345
-10.253
-10.269
-10.2838
-10.2989
-10.315
-10.3328
-10.3523
-10.3731
-10.3946
-10.4162
-10.4377
-10.4589
-10.4798
-10.5
-10.5195
-10.5377
-10.5543
-10.5684
-10.579
-10.5849
-10.5844
-10.5759
-10.5579
-10.5289
-10.488
-10.4343
-10.3676
-10.288
-10.1958
-10.0917
-9.97646
-9.85098
-9.71603
-9.57231
-9.42036
-9.26057
-9.09315
-8.91817
-8.73559
-8.54525
-8.34696
-8.1405
-7.92567
-7.7024
-7.47078
-7.23112
-6.98402
-6.73042
-6.47155
-6.20892
-5.94425
-5.67935
-5.41604
-5.156
-4.90066
-4.65115
-4.40825
-4.17239
-3.94366
-3.72192
-3.50684
-3.29802
-3.09503
-2.89752
-2.70523
-2.51803
-2.33595
-2.15917
-1.98805
-1.82305
-1.66474
-1.51375
-1.37068
-1.23597
-1.10982
-0.992072
-0.882166
-0.779162
-0.681873
-0.589103
-0.500059
-0.414852
-0.334872
-0.262561
-0.200441
-0.149796
-0.110196
-0.0795846
-0.0560984
-0.0363011
-0.0230532
-0.00256427
-0.0173829
-10.0563
-10.0874
-10.1184
-10.147
-10.1727
-10.1957
-10.2165
-10.2351
-10.2516
-10.267
-10.2823
-10.2983
-10.3153
-10.3336
-10.3528
-10.3725
-10.3923
-10.4119
-10.4311
-10.4497
-10.4676
-10.4844
-10.4998
-10.5133
-10.524
-10.5311
-10.5333
-10.5292
-10.5175
-10.4967
-10.4656
-10.4231
-10.3687
-10.3019
-10.2229
-10.1318
-10.0292
-9.91589
-9.79244
-9.6596
-9.51799
-9.36812
-9.21034
-9.04487
-8.8718
-8.69112
-8.50272
-8.30646
-8.10218
-7.88975
-7.66916
-7.44052
-7.20418
-6.96074
-6.71109
-6.45639
-6.19807
-5.93772
-5.67703
-5.41769
-5.16128
-4.90915
-4.66238
-4.42175
-4.1877
-3.96038
-3.73971
-3.52544
-3.31724
-3.11475
-2.91766
-2.72576
-2.53894
-2.35725
-2.18086
-2.01012
-1.84545
-1.68739
-1.53653
-1.3934
-1.2584
-1.13171
-1.01318
-0.902283
-0.79819
-0.699846
-0.606216
-0.516644
-0.431269
-0.351312
-0.278858
-0.216057
-0.164037
-0.122507
-0.0897135
-0.0640672
-0.0423419
-0.0272016
-0.00582901
-0.0169991
-10.0503
-10.0783
-10.1063
-10.1327
-10.1569
-10.179
-10.1991
-10.2175
-10.2342
-10.2498
-10.2652
-10.2808
-10.2971
-10.3141
-10.3319
-10.3499
-10.3679
-10.3856
-10.4027
-10.4192
-10.4347
-10.4489
-10.4615
-10.4719
-10.4794
-10.4831
-10.4819
-10.4746
-10.4599
-10.4365
-10.4033
-10.3594
-10.3041
-10.2373
-10.1587
-10.0686
-9.96749
-9.85585
-9.73431
-9.60348
-9.46391
-9.31606
-9.16027
-8.99675
-8.82562
-8.64688
-8.46047
-8.26629
-8.06424
-7.85426
-7.63636
-7.41071
-7.17768
-6.93786
-6.6921
-6.4415
-6.18739
-5.93125
-5.67467
-5.41922
-5.16637
-4.9174
-4.67336
-4.435
-4.20279
-3.97691
-3.75736
-3.54395
-3.33641
-3.13445
-2.93782
-2.74633
-2.55992
-2.37863
-2.20265
-2.03228
-1.86794
-1.71013
-1.55939
-1.4162
-1.28092
-1.15371
-1.03442
-0.92259
-0.81747
-0.718134
-0.623691
-0.533599
-0.448018
-0.368022
-0.295393
-0.231954
-0.17867
-0.135331
-0.10043
-0.0726197
-0.0489074
-0.0317575
-0.00943881
-0.0165558
-10.0438
-10.0692
-10.0947
-10.119
-10.1417
-10.1628
-10.1822
-10.2001
-10.2167
-10.2323
-10.2475
-10.2626
-10.2781
-10.294
-10.3103
-10.3267
-10.343
-10.3588
-10.3739
-10.3882
-10.4013
-10.4131
-10.4229
-10.4304
-10.4348
-10.4353
-10.4309
-10.4205
-10.4029
-10.3771
-10.3419
-10.2966
-10.2407
-10.1736
-10.0954
-10.0063
-9.90642
-9.79637
-9.67661
-9.54769
-9.41009
-9.26422
-9.11039
-8.94882
-8.77963
-8.60285
-8.41846
-8.22641
-8.02663
-7.81912
-7.60394
-7.3813
-7.15155
-6.91531
-6.67337
-6.42678
-6.17679
-5.92477
-5.67221
-5.42056
-5.17121
-4.92536
-4.68403
-4.44794
-4.21759
-3.9932
-3.7748
-3.56229
-3.35546
-3.15408
-2.95795
-2.76691
-2.58092
-2.40004
-2.22446
-2.05447
-1.89047
-1.7329
-1.58227
-1.43902
-1.30347
-1.17575
-1.05575
-0.94303
-0.836941
-0.73667
-0.641454
-0.550849
-0.465023
-0.384919
-0.312057
-0.24798
-0.193501
-0.148455
-0.11153
-0.0815867
-0.0558665
-0.0366302
-0.0132938
-0.0160921
-10.0367
-10.06
-10.0833
-10.1058
-10.1271
-10.147
-10.1657
-10.183
-10.1992
-10.2146
-10.2293
-10.2439
-10.2585
-10.2733
-10.2882
-10.303
-10.3175
-10.3315
-10.3446
-10.3568
-10.3676
-10.3769
-10.3841
-10.3888
-10.3902
-10.3877
-10.3802
-10.3669
-10.3467
-10.3185
-10.2816
-10.235
-10.1782
-10.111
-10.0331
-9.94475
-9.84607
-9.73748
-9.61941
-9.4923
-9.35658
-9.21263
-9.06073
-8.9011
-8.73385
-8.55906
-8.37672
-8.18682
-7.98936
-7.78435
-7.5719
-7.35224
-7.12577
-6.89305
-6.65487
-6.41221
-6.16624
-5.91825
-5.66961
-5.42168
-5.17576
-4.933
-4.69436
-4.46055
-4.23208
-4.0092
-3.79201
-3.58045
-3.37438
-3.17362
-2.97801
-2.78744
-2.6019
-2.42145
-2.24628
-2.07667
-1.91299
-1.75566
-1.60514
-1.46182
-1.32601
-1.19781
-1.07712
-0.963564
-0.85656
-0.755405
-0.659448
-0.56833
-0.482219
-0.401936
-0.328776
-0.264039
-0.208404
-0.161731
-0.122867
-0.0908373
-0.0631116
-0.0417435
-0.0172834
-0.0156831
-10.0293
-10.0507
-10.0721
-10.0929
-10.1128
-10.1317
-10.1494
-10.1661
-10.1817
-10.1966
-10.2108
-10.2247
-10.2385
-10.2521
-10.2656
-10.2789
-10.2917
-10.3038
-10.315
-10.3251
-10.3337
-10.3405
-10.3451
-10.3471
-10.3457
-10.3403
-10.33
-10.314
-10.2913
-10.2609
-10.2222
-10.1744
-10.1169
-10.0494
-9.9718
-9.88411
-9.78649
-9.67925
-9.56275
-9.43736
-9.30345
-9.16137
-9.01136
-8.85364
-8.68835
-8.51554
-8.33528
-8.14756
-7.95242
-7.74993
-7.54022
-7.32355
-7.10031
-6.87107
-6.63658
-6.39777
-6.15573
-5.91166
-5.66685
-5.42256
-5.18002
-4.9403
-4.70432
-4.47279
-4.24622
-4.0249
-3.80896
-3.5984
-3.39312
-3.19302
-2.99797
-2.80791
-2.62283
-2.44282
-2.26807
-2.09883
-1.93547
-1.77837
-1.62795
-1.48457
-1.3485
-1.21985
-1.09851
-0.984159
-0.87629
-0.774296
-0.677626
-0.58599
-0.499551
-0.419022
-0.345496
-0.280067
-0.223295
-0.175055
-0.134327
-0.100266
-0.0705543
-0.0470381
-0.0213153
-0.0154302
-10.0215
-10.0412
-10.061
-10.0803
-10.0989
-10.1166
-10.1334
-10.1493
-10.1643
-10.1785
-10.1921
-10.2052
-10.218
-10.2305
-10.2427
-10.2544
-10.2656
-10.2759
-10.2851
-10.2931
-10.2995
-10.3039
-10.3061
-10.3054
-10.3014
-10.2932
-10.2803
-10.2617
-10.2366
-10.2043
-10.1639
-10.1149
-10.0566
-9.98889
-9.91148
-9.82439
-9.72773
-9.62174
-9.5067
-9.38294
-9.25077
-9.11049
-8.96235
-8.80652
-8.64316
-8.47236
-8.29418
-8.10866
-7.91587
-7.7159
-7.50892
-7.29522
-7.07518
-6.84936
-6.61849
-6.38344
-6.14524
-5.905
-5.66393
-5.4232
-5.18397
-4.94724
-4.71391
-4.48466
-4.26001
-4.04027
-3.82562
-3.61609
-3.41167
-3.21226
-3.01781
-2.82828
-2.64368
-2.46413
-2.28979
-2.12093
-1.95788
-1.801
-1.65068
-1.50724
-1.37092
-1.24183
-1.11988
-1.00478
-0.896093
-0.793302
-0.695942
-0.603781
-0.516975
-0.436132
-0.362177
-0.296019
-0.238117
-0.188354
-0.145822
-0.109783
-0.0781107
-0.0524534
-0.0253147
-0.0154208
-10.0133
-10.0316
-10.0499
-10.0678
-10.0851
-10.1017
-10.1175
-10.1325
-10.1468
-10.1603
-10.1731
-10.1854
-10.1971
-10.2085
-10.2193
-10.2296
-10.2391
-10.2476
-10.255
-10.2609
-10.2652
-10.2674
-10.2671
-10.2639
-10.2573
-10.2466
-10.2311
-10.2102
-10.1829
-10.1486
-10.1067
-10.0565
-9.99752
-9.9295
-9.85222
-9.76566
-9.66986
-9.56502
-9.45135
-9.32913
-9.19863
-9.06009
-8.91376
-8.75981
-8.59838
-8.42957
-8.25347
-8.07016
-7.87972
-7.68228
-7.47803
-7.26726
-7.05039
-6.82794
-6.60061
-6.36924
-6.13478
-5.89827
-5.66085
-5.4236
-5.18761
-4.95383
-4.72312
-4.49615
-4.27342
-4.05529
-3.84196
-3.63352
-3.42998
-3.23131
-3.03749
-2.84851
-2.66442
-2.48533
-2.31141
-2.14293
-1.98018
-1.82352
-1.67329
-1.52978
-1.39324
-1.26373
-1.1412
-1.02539
-0.915933
-0.812383
-0.714355
-0.621661
-0.534446
-0.453231
-0.378786
-0.311864
-0.252833
-0.20158
-0.15729
-0.119317
-0.0857072
-0.0579265
-0.0292186
-0.0156953
-10.0049
-10.0218
-10.0388
-10.0554
-10.0715
-10.087
-10.1018
-10.1159
-10.1293
-10.142
-10.154
-10.1653
-10.176
-10.1862
-10.1957
-10.2045
-10.2124
-10.2192
-10.2247
-10.2287
-10.2308
-10.2308
-10.2282
-10.2227
-10.2136
-10.2005
-10.1826
-10.1594
-10.1301
-10.094
-10.0506
-9.99926
-9.93959
-9.87126
-9.79408
-9.70796
-9.61295
-9.50916
-9.39678
-9.27601
-9.14709
-9.01025
-8.86569
-8.71357
-8.55405
-8.38724
-8.21323
-8.03212
-7.84403
-7.64911
-7.44757
-7.23972
-7.02596
-6.80682
-6.58296
-6.35517
-6.12435
-5.89149
-5.65761
-5.42376
-5.19094
-4.96007
-4.73195
-4.50724
-4.28645
-4.06995
-3.85798
-3.65066
-3.44804
-3.25015
-3.05699
-2.86859
-2.68502
-2.50639
-2.33291
-2.16479
-2.00235
-1.84589
-1.69574
-1.55218
-1.41541
-1.28551
-1.16243
-1.04596
-0.935769
-0.831496
-0.732816
-0.639583
-0.551924
-0.470282
-0.395293
-0.327574
-0.267413
-0.214695
-0.168689
-0.12882
-0.0932885
-0.0634052
-0.032981
-0.0162433
-9.99621
-10.0119
-10.0276
-10.043
-10.058
-10.0724
-10.0862
-10.0994
-10.1119
-10.1236
-10.1347
-10.1451
-10.1547
-10.1637
-10.1719
-10.1792
-10.1855
-10.1907
-10.1944
-10.1964
-10.1965
-10.1944
-10.1896
-10.1818
-10.1704