/*--------------------------------*- C++ -*----------------------------------*\
  =========                 |
  \\      /  F ield         | OpenFOAM: The Open Source CFD Toolbox
   \\    /   O peration     | Website:  https://openfoam.org
    \\  /    A nd           | Version:  10
     \\/     M anipulation  |
\*---------------------------------------------------------------------------*/
FoamFile
{
    format      ascii;
    class       surfaceScalarField;
    location    "1200";
    object      phi;
}
// * * * * * * * * * * * * * * * * * * * * * * * * * * * * * * * * * * * * * //

dimensions      [0 3 -1 0 0 0 0];

internalField   nonuniform List<scalar> 
13452
(
6.0292e-05
-2.35835e-08
5.99941e-05
2.97968e-07
5.95904e-05
4.03685e-07
5.91169e-05
4.73494e-07
5.86134e-05
5.03543e-07
5.81332e-05
4.80193e-07
5.76984e-05
4.34806e-07
5.73093e-05
3.89096e-07
5.69604e-05
3.48842e-07
5.6646e-05
3.14377e-07
5.63609e-05
2.85183e-07
5.61003e-05
2.60534e-07
5.58607e-05
2.39602e-07
5.56391e-05
2.21635e-07
5.54331e-05
2.06041e-07
5.52407e-05
1.92373e-07
5.50604e-05
1.80296e-07
5.48908e-05
1.69559e-07
5.47308e-05
1.59978e-07
5.45794e-05
1.51425e-07
5.44356e-05
1.43823e-07
5.42985e-05
1.37143e-07
5.4167e-05
1.31415e-07
5.40403e-05
1.26755e-07
5.39169e-05
1.23394e-07
5.37951e-05
1.21822e-07
5.3672e-05
1.23024e-07
5.35436e-05
1.28433e-07
5.34012e-05
1.42384e-07
5.32296e-05
1.71603e-07
5.29605e-05
2.69081e-07
5.27334e-05
2.2716e-07
5.54237e-07
5.21791e-05
6.21472e-05
-1.80473e-07
6.21733e-05
2.71856e-07
6.21954e-05
3.81607e-07
6.22121e-05
4.56824e-07
6.22125e-05
5.03104e-07
6.21829e-05
5.09828e-07
6.21218e-05
4.95898e-07
6.20354e-05
4.75455e-07
6.19315e-05
4.5282e-07
6.18164e-05
4.29428e-07
6.16952e-05
4.0642e-07
6.15712e-05
3.84538e-07
6.14467e-05
3.64072e-07
6.13233e-05
3.45065e-07
6.12018e-05
3.27468e-07
6.1083e-05
3.11206e-07
6.09671e-05
2.96188e-07
6.08543e-05
2.82332e-07
6.07448e-05
2.69565e-07
6.06383e-05
2.57837e-07
6.0535e-05
2.47126e-07
6.04347e-05
2.37444e-07
6.03373e-05
2.28853e-07
6.02426e-05
2.21488e-07
6.01504e-05
2.15604e-07
6.00606e-05
2.11603e-07
5.99732e-05
2.1044e-07
5.98887e-05
2.12859e-07
5.98088e-05
2.22291e-07
5.97394e-05
2.41046e-07
5.97139e-05
2.94542e-07
5.96976e-05
2.43489e-07
5.03245e-07
5.97486e-05
6.36687e-05
-8.78047e-08
6.37278e-05
2.12823e-07
6.37882e-05
3.21174e-07
6.38521e-05
3.92886e-07
6.39075e-05
4.47727e-07
6.39449e-05
4.72427e-07
6.39642e-05
4.76576e-07
6.39683e-05
4.71444e-07
6.39596e-05
4.61477e-07
6.39406e-05
4.48394e-07
6.39135e-05
4.33582e-07
6.38799e-05
4.18095e-07
6.38414e-05
4.02543e-07
6.37993e-05
3.87252e-07
6.37543e-05
3.72417e-07
6.37073e-05
3.58162e-07
6.3659e-05
3.44564e-07
6.36096e-05
3.3167e-07
6.35597e-05
3.19518e-07
6.35094e-05
3.08152e-07
6.34589e-05
2.97628e-07
6.34083e-05
2.88032e-07
6.33576e-05
2.79497e-07
6.33069e-05
2.72229e-07
6.32559e-05
2.66565e-07
6.32046e-05
2.6297e-07
6.31526e-05
2.62435e-07
6.30997e-05
2.65763e-07
6.30462e-05
2.75796e-07
6.29933e-05
2.93916e-07
6.29583e-05
3.29574e-07
6.28633e-05
3.38418e-07
4.7661e-07
6.289e-05
6.55169e-05
-2.16453e-08
6.55581e-05
1.71608e-07
6.55955e-05
2.83838e-07
6.5637e-05
3.5139e-07
6.568e-05
4.04687e-07
6.57178e-05
4.34676e-07
6.57486e-05
4.45749e-07
6.57728e-05
4.47263e-07
6.57906e-05
4.43651e-07
6.58025e-05
4.36514e-07
6.5809e-05
4.27049e-07
6.58109e-05
4.1624e-07
6.58087e-05
4.04721e-07
6.58031e-05
3.92873e-07
6.57945e-05
3.80955e-07
6.57835e-05
3.6916e-07
6.57705e-05
3.57631e-07
6.57556e-05
3.4648e-07
6.57394e-05
3.35806e-07
6.57218e-05
3.25705e-07
6.57031e-05
3.16286e-07
6.56835e-05
3.07685e-07
6.56629e-05
3.00085e-07
6.56414e-05
2.9374e-07
6.56189e-05
2.89024e-07
6.55955e-05
2.86442e-07
6.5571e-05
2.86878e-07
6.55456e-05
2.91186e-07
6.552e-05
3.01397e-07
6.54954e-05
3.18544e-07
6.54782e-05
3.46792e-07
6.54415e-05
3.75097e-07
4.54708e-07
6.54634e-05
6.74276e-05
7.57561e-09
6.74481e-05
1.51039e-07
6.7472e-05
2.59964e-07
6.75006e-05
3.22759e-07
6.75345e-05
3.70798e-07
6.7568e-05
4.01193e-07
6.75985e-05
4.15258e-07
6.76257e-05
4.20114e-07
6.76494e-05
4.19866e-07
6.76699e-05
4.16046e-07
6.76872e-05
4.09726e-07
6.77016e-05
4.01823e-07
6.77134e-05
3.92953e-07
6.77228e-05
3.83501e-07
6.773e-05
3.73738e-07
6.77353e-05
3.63873e-07
6.77388e-05
3.54071e-07
6.77409e-05
3.44467e-07
6.77415e-05
3.35184e-07
6.77408e-05
3.26346e-07
6.7739e-05
3.18088e-07
6.77362e-05
3.10571e-07
6.77322e-05
3.04e-07
6.77273e-05
2.98643e-07
6.77215e-05
2.94874e-07
6.77148e-05
2.93174e-07
6.77074e-05
2.94276e-07
6.76996e-05
2.98929e-07
6.76925e-05
3.08467e-07
6.76874e-05
3.2365e-07
6.76879e-05
3.46308e-07
6.76888e-05
3.7424e-07
4.21293e-07
6.77222e-05
6.937e-05
2.16367e-08
6.93828e-05
1.38167e-07
6.94047e-05
2.38064e-07
6.94295e-05
2.98036e-07
6.94581e-05
3.42196e-07
6.94872e-05
3.72008e-07
6.95149e-05
3.87609e-07
6.95407e-05
3.94301e-07
6.95647e-05
3.95875e-07
6.95868e-05
3.93904e-07
6.96072e-05
3.89404e-07
6.96257e-05
3.83241e-07
6.96427e-05
3.76013e-07
6.96581e-05
3.68103e-07
6.9672e-05
3.59782e-07
6.96847e-05
3.51261e-07
6.9696e-05
3.42709e-07
6.97062e-05
3.3427e-07
6.97153e-05
3.26076e-07
6.97234e-05
3.18258e-07
6.97305e-05
3.10962e-07
6.97368e-05
3.04355e-07
6.97421e-05
2.98642e-07
6.97467e-05
2.94083e-07
6.97505e-05
2.91015e-07
6.97538e-05
2.89856e-07
6.9757e-05
2.91167e-07
6.97604e-05
2.95516e-07
6.97651e-05
3.03696e-07
6.97727e-05
3.16125e-07
6.97856e-05
3.33404e-07
6.98051e-05
3.54742e-07
3.81345e-07
6.9845e-05
7.13589e-05
2.91034e-08
7.13697e-05
1.27345e-07
7.13909e-05
2.16878e-07
7.14141e-05
2.74834e-07
7.14398e-05
3.16475e-07
7.14663e-05
3.4549e-07
7.14919e-05
3.62004e-07
7.15163e-05
3.69929e-07
7.15395e-05
3.72686e-07
7.15615e-05
3.71899e-07
7.15823e-05
3.68564e-07
7.16021e-05
3.63509e-07
7.16207e-05
3.57328e-07
7.16384e-05
3.50412e-07
7.16552e-05
3.43035e-07
7.1671e-05
3.35413e-07
7.1686e-05
3.27718e-07
7.17002e-05
3.20096e-07
7.17136e-05
3.12682e-07
7.17262e-05
3.0561e-07
7.17382e-05
2.99022e-07
7.17495e-05
2.9308e-07
7.17601e-05
2.87977e-07
7.17703e-05
2.83944e-07
7.178e-05
2.81264e-07
7.17896e-05
2.80267e-07
7.17994e-05
2.81347e-07
7.18101e-05
2.84872e-07
7.18225e-05
2.91233e-07
7.18381e-05
3.00514e-07
7.1859e-05
3.12589e-07
7.18873e-05
3.26437e-07
3.39704e-07
7.19289e-05
7.3402e-05
3.23911e-08
7.34118e-05
1.17523e-07
7.34314e-05
1.97291e-07
7.34535e-05
2.52765e-07
7.34776e-05
2.92355e-07
7.35026e-05
3.20434e-07
7.35271e-05
3.37504e-07
7.35507e-05
3.46409e-07
7.35732e-05
3.50113e-07
7.35949e-05
3.50241e-07
7.36157e-05
3.47782e-07
7.36356e-05
3.43537e-07
7.36549e-05
3.38101e-07
7.36734e-05
3.31876e-07
7.36913e-05
3.25151e-07
7.37086e-05
3.18145e-07
7.37252e-05
3.11037e-07
7.37414e-05
3.03977e-07
7.37569e-05
2.971e-07
7.3772e-05
2.90537e-07
7.37866e-05
2.84426e-07
7.38008e-05
2.78916e-07
7.38146e-05
2.74176e-07
7.38281e-05
2.70399e-07
7.38416e-05
2.67805e-07
7.38552e-05
2.66632e-07
7.38694e-05
2.67123e-07
7.38849e-05
2.69463e-07
7.39023e-05
2.73755e-07
7.3923e-05
2.79823e-07
7.39485e-05
2.87136e-07
7.39805e-05
2.94419e-07
2.98886e-07
7.40213e-05
7.55018e-05
3.30164e-08
7.5511e-05
1.08409e-07
7.55288e-05
1.79446e-07
7.55498e-05
2.31778e-07
7.55727e-05
2.69413e-07
7.55967e-05
2.96432e-07
7.56205e-05
3.1372e-07
7.56436e-05
3.23367e-07
7.56658e-05
3.27856e-07
7.56873e-05
3.28754e-07
7.57081e-05
3.27032e-07
7.57281e-05
3.23462e-07
7.57476e-05
3.18631e-07
7.57665e-05
3.12953e-07
7.57849e-05
3.06726e-07
7.58029e-05
3.0018e-07
7.58205e-05
2.93499e-07
7.58376e-05
2.86837e-07
7.58544e-05
2.80328e-07
7.58708e-05
2.74102e-07
7.58869e-05
2.68286e-07
7.59028e-05
2.63013e-07
7.59186e-05
2.58426e-07
7.59343e-05
2.54675e-07
7.59502e-05
2.51918e-07
7.59665e-05
2.50303e-07
7.59837e-05
2.49951e-07
7.60023e-05
2.50899e-07
7.6023e-05
2.53057e-07
7.60467e-05
2.56082e-07
7.60746e-05
2.59271e-07
7.61077e-05
2.61335e-07
2.59975e-07
7.61466e-05
7.76605e-05
3.21027e-08
7.76691e-05
9.97623e-08
7.76855e-05
1.63134e-07
7.77053e-05
2.11909e-07
7.77272e-05
2.47548e-07
7.77502e-05
2.73386e-07
7.77734e-05
2.90559e-07
7.77961e-05
3.00676e-07
7.78182e-05
3.05773e-07
7.78396e-05
3.07304e-07
7.78604e-05
3.06214e-07
7.78807e-05
3.03231e-07
7.79004e-05
2.98929e-07
7.79196e-05
2.93723e-07
7.79384e-05
2.87918e-07
7.79568e-05
2.81749e-07
7.79749e-05
2.75405e-07
7.79927e-05
2.69042e-07
7.80103e-05
2.62795e-07
7.80276e-05
2.56787e-07
7.80447e-05
2.51136e-07
7.80618e-05
2.45955e-07
7.80789e-05
2.4136e-07
7.80961e-05
2.3746e-07
7.81136e-05
2.34355e-07
7.81318e-05
2.32118e-07
7.8151e-05
2.30774e-07
7.81716e-05
2.30254e-07
7.81943e-05
2.30354e-07
7.82198e-05
2.30651e-07
7.82486e-05
2.30422e-07
7.82814e-05
2.28536e-07
2.23327e-07
7.83181e-05
7.98801e-05
3.03519e-08
7.98884e-05
9.14519e-08
7.99034e-05
1.4813e-07
7.99221e-05
1.93168e-07
7.9943e-05
2.26706e-07
7.99651e-05
2.51247e-07
7.99876e-05
2.68022e-07
8.001e-05
2.78336e-07
8.00319e-05
2.83845e-07
8.00534e-05
2.85864e-07
8.00743e-05
2.8529e-07
8.00947e-05
2.82809e-07
8.01147e-05
2.78969e-07
8.01342e-05
2.74178e-07
8.01534e-05
2.68743e-07
8.01722e-05
2.62899e-07
8.01908e-05
2.56838e-07
8.02091e-05
2.50713e-07
8.02273e-05
2.44659e-07
8.02453e-05
2.3879e-07
8.02632e-05
2.33211e-07
8.02811e-05
2.2802e-07
8.02992e-05
2.23303e-07
8.03175e-05
2.19133e-07
8.03363e-05
2.15561e-07
8.03558e-05
2.12601e-07
8.03764e-05
2.10209e-07
8.03984e-05
2.0825e-07
8.04223e-05
2.06465e-07
8.04485e-05
2.04417e-07
8.04775e-05
2.01456e-07
8.05093e-05
1.96673e-07
1.88941e-07
8.05437e-05
8.21626e-05
2.81762e-08
8.21706e-05
8.34399e-08
8.21845e-05
1.34235e-07
8.22022e-05
1.7551e-07
8.22221e-05
2.0683e-07
8.22433e-05
2.29966e-07
8.22653e-05
2.46113e-07
8.22872e-05
2.56375e-07
8.2309e-05
2.62102e-07
8.23304e-05
2.64456e-07
8.23514e-05
2.64275e-07
8.2372e-05
2.62202e-07
8.23922e-05
2.58751e-07
8.24121e-05
2.54318e-07
8.24316e-05
2.49204e-07
8.24509e-05
2.43641e-07
8.24699e-05
2.37818e-07
8.24887e-05
2.31886e-07
8.25074e-05
2.25973e-07
8.2526e-05
2.20185e-07
8.25446e-05
2.14616e-07
8.25633e-05
2.09343e-07
8.25821e-05
2.04428e-07
8.26014e-05
1.99913e-07
8.26211e-05
1.95811e-07
8.26416e-05
1.92093e-07
8.26632e-05
1.8867e-07
8.2686e-05
1.85375e-07
8.27106e-05
1.81934e-07
8.2737e-05
1.77944e-07
8.27656e-05
1.72863e-07
8.27963e-05
1.66007e-07
1.56652e-07
8.28286e-05
8.45101e-05
2.58159e-08
8.45178e-05
7.57254e-08
8.45308e-05
1.21277e-07
8.45475e-05
1.58854e-07
8.45664e-05
1.87857e-07
8.45869e-05
2.09491e-07
8.46082e-05
2.24824e-07
8.46298e-05
2.34816e-07
8.46513e-05
2.40576e-07
8.46726e-05
2.43115e-07
8.46937e-05
2.43203e-07
8.47145e-05
2.41438e-07
8.47349e-05
2.38298e-07
8.47551e-05
2.3416e-07
8.4775e-05
2.29315e-07
8.47946e-05
2.23988e-07
8.48141e-05
2.18361e-07
8.48334e-05
2.12581e-07
8.48526e-05
2.06766e-07
8.48718e-05
2.01016e-07
8.4891e-05
1.95409e-07
8.49103e-05
1.90005e-07
8.49299e-05
1.84846e-07
8.49498e-05
1.79949e-07
8.49704e-05
1.75298e-07
8.49916e-05
1.70835e-07
8.50138e-05
1.66451e-07
8.50372e-05
1.61967e-07
8.50621e-05
1.57125e-07
8.50884e-05
1.51578e-07
8.51164e-05
1.44899e-07
8.51458e-05
1.36599e-07
1.26235e-07
8.51762e-05
8.69246e-05
2.34078e-08
8.6932e-05
6.8314e-08
8.69441e-05
1.09115e-07
8.69599e-05
1.43109e-07
8.6978e-05
1.69725e-07
8.69978e-05
1.89762e-07
8.70184e-05
2.0413e-07
8.70396e-05
2.13665e-07
8.70609e-05
2.19288e-07
8.70821e-05
2.21869e-07
8.71032e-05
2.22106e-07
8.71241e-05
2.20548e-07
8.71448e-05
2.17639e-07
8.71652e-05
2.13731e-07
8.71854e-05
2.09099e-07
8.72055e-05
2.03961e-07
8.72253e-05
1.98489e-07
8.72451e-05
1.92822e-07
8.72648e-05
1.8707e-07
8.72845e-05
1.8132e-07
8.73042e-05
1.7564e-07
8.73242e-05
1.70075e-07
8.73444e-05
1.6465e-07
8.7365e-05
1.5936e-07
8.73861e-05
1.54173e-07
8.74079e-05
1.49017e-07
8.74306e-05
1.43773e-07
8.74543e-05
1.38271e-07
8.74791e-05
1.32282e-07
8.75052e-05
1.25525e-07
8.75324e-05
1.1768e-07
8.75606e-05
1.0841e-07
9.74607e-08
8.75894e-05
8.94079e-05
2.1026e-08
8.9415e-05
6.12072e-08
8.94265e-05
9.76346e-08
8.94414e-05
1.28178e-07
8.94588e-05
1.52365e-07
8.94778e-05
1.70724e-07
8.9498e-05
1.83999e-07
8.95187e-05
1.92917e-07
8.95398e-05
1.98247e-07
8.95609e-05
2.00736e-07
8.9582e-05
2.01007e-07
8.9603e-05
1.9956e-07
8.96238e-05
1.96801e-07
8.96445e-05
1.93056e-07
8.9665e-05
1.88584e-07
8.96854e-05
1.83588e-07
8.97056e-05
1.78231e-07
8.97258e-05
1.72641e-07
8.9746e-05
1.6692e-07
8.97661e-05
1.61143e-07
8.97864e-05
1.55367e-07
8.98069e-05
1.49625e-07
8.98276e-05
1.43927e-07
8.98487e-05
1.38258e-07
8.98703e-05
1.32574e-07
8.98925e-05
1.26797e-07
8.99155e-05
1.20813e-07
8.99393e-05
1.14469e-07
8.9964e-05
1.07575e-07
8.99896e-05
9.99119e-08
9.0016e-05
9.12491e-08
9.00431e-05
8.13636e-08
7.01248e-08
9.00704e-05
9.19622e-05
1.87078e-08
9.1969e-05
5.43985e-08
9.19799e-05
8.67446e-08
9.19941e-05
1.13969e-07
9.20107e-05
1.35707e-07
9.20292e-05
1.52317e-07
9.20488e-05
1.64392e-07
9.20691e-05
1.72553e-07
9.20899e-05
1.77453e-07
9.21109e-05
1.79726e-07
9.2132e-05
1.79923e-07
9.21531e-05
1.78494e-07
9.21741e-05
1.75807e-07
9.2195e-05
1.72161e-07
9.22158e-05
1.67795e-07
9.22364e-05
1.62897e-07
9.22571e-05
1.57617e-07
9.22776e-05
1.52073e-07
9.22982e-05
1.46356e-07
9.23188e-05
1.40532e-07
9.23395e-05
1.34648e-07
9.23604e-05
1.28725e-07
9.23816e-05
1.22766e-07
9.24031e-05
1.16748e-07
9.2425e-05
1.10622e-07
9.24475e-05
1.04314e-07
9.24706e-05
9.7718e-08
9.24944e-05
9.07057e-08
9.25188e-05
8.31251e-08
9.25439e-05
7.48126e-08
9.25696e-05
6.561e-08
9.25956e-05
5.53758e-08
4.40575e-08
9.26216e-05
9.45894e-05
1.64689e-08
9.45959e-05
4.78743e-08
9.46063e-05
7.63688e-08
9.46199e-05
1.00394e-07
9.46359e-05
1.19682e-07
9.46537e-05
1.34483e-07
9.46729e-05
1.45264e-07
9.46929e-05
1.52552e-07
9.47134e-05
1.56897e-07
9.47343e-05
1.5884e-07
9.47554e-05
1.58862e-07
9.47765e-05
1.57364e-07
9.47976e-05
1.54675e-07
9.48187e-05
1.51067e-07
9.48398e-05
1.46755e-07
9.48607e-05
1.41914e-07
9.48817e-05
1.36678e-07
9.49026e-05
1.31153e-07
9.49235e-05
1.25421e-07
9.49445e-05
1.19539e-07
9.49656e-05
1.13544e-07
9.49869e-05
1.07451e-07
9.50084e-05
1.01255e-07
9.50302e-05
9.49311e-08
9.50524e-05
8.84311e-08
9.50751e-05
8.16862e-08
9.50982e-05
7.46076e-08
9.51218e-05
6.70899e-08
9.51459e-05
5.9017e-08
9.51704e-05
5.02719e-08
9.51953e-05
4.07508e-08
9.52203e-05
3.03698e-08
1.9124e-08
9.52452e-05
9.72917e-05
1.43133e-08
9.72979e-05
4.16152e-08
9.73079e-05
6.64423e-08
9.73209e-05
8.73748e-08
9.73363e-05
1.04221e-07
9.73537e-05
1.17165e-07
9.73724e-05
1.26572e-07
9.7392e-05
1.32883e-07
9.74124e-05
1.36564e-07
9.74331e-05
1.38074e-07
9.74542e-05
1.37828e-07
9.74753e-05
1.36178e-07
9.74966e-05
1.33419e-07
9.75179e-05
1.2979e-07
9.75391e-05
1.25487e-07
9.75604e-05
1.20664e-07
9.75816e-05
1.15443e-07
9.76029e-05
1.09918e-07
9.76241e-05
1.0416e-07
9.76454e-05
9.82161e-08
9.76669e-05
9.21172e-08
9.76884e-05
8.58732e-08
9.77102e-05
7.94759e-08
9.77323e-05
7.28993e-08
9.77546e-05
6.60999e-08
9.77773e-05
5.90185e-08
9.78003e-05
5.1582e-08
9.78237e-05
4.37087e-08
9.78474e-05
3.53133e-08
9.78713e-05
2.63161e-08
9.78954e-05
1.66532e-08
9.79195e-05
6.28021e-09
-4.78004e-09
9.79434e-05
0.000100071
1.22381e-08
0.000100077
3.55983e-08
0.000100087
5.6908e-08
0.000100099
7.48389e-08
0.000100114
8.92566e-08
0.000100131
1.00305e-07
0.000100149
1.08268e-07
0.000100169
1.13515e-07
0.000100189
1.16435e-07
0.00010021
1.17418e-07
0.000100231
1.16819e-07
0.000100252
1.14943e-07
0.000100273
1.12049e-07
0.000100295
1.08347e-07
0.000100316
1.0401e-07
0.000100338
9.91734e-08
0.000100359
9.3944e-08
0.000100381
8.8404e-08
0.000100402
8.26135e-08
0.000100424
7.66136e-08
0.000100445
7.04272e-08
0.000100467
6.4061e-08
0.000100489
5.75056e-08
0.000100511
5.07369e-08
0.000100534
4.37175e-08
0.000100556
3.63985e-08
0.000100579
2.8723e-08
0.000100602
2.06297e-08
0.000100626
1.20595e-08
0.000100649
2.96049e-09
0.000100672
-6.70145e-09
0.000100695
-1.69457e-08
-2.7733e-08
0.000100718
0.00010293
1.02373e-08
0.000102936
2.97986e-08
0.000102945
4.77142e-08
0.000102957
6.27201e-08
0.000102972
7.47239e-08
0.000102988
8.38438e-08
0.000103006
9.03048e-08
0.000103025
9.4409e-08
0.000103045
9.64841e-08
0.000103066
9.68562e-08
0.000103087
9.58264e-08
0.000103108
9.36575e-08
0.00010313
9.0571e-08
0.000103151
8.67496e-08
0.000103173
8.23414e-08
0.000103194
7.74639e-08
0.000103216
7.22089e-08
0.000103238
6.6646e-08
0.00010326
6.08257e-08
0.000103282
5.47814e-08
0.000103304
4.85312e-08
0.000103325
4.20789e-08
0.000103348
3.54153e-08
0.00010337
2.85196e-08
0.000103392
2.13609e-08
0.000103415
1.3901e-08
0.000103437
6.09709e-09
0.00010346
-2.09405e-09
0.000103483
-1.07115e-08
0.000103506
-1.97853e-08
0.000103528
-2.93303e-08
0.000103551
-3.93484e-08
-4.97931e-08
0.000103573
0.000105871
8.30316e-09
0.000105876
2.41902e-08
0.000105885
3.88136e-08
0.000105897
5.09571e-08
0.000105911
6.056e-08
0.000105927
6.77249e-08
0.000105945
7.26306e-08
0.000105964
7.55247e-08
0.000105984
7.66797e-08
0.000106004
7.6367e-08
0.000106025
7.48387e-08
0.000106046
7.23163e-08
0.000106068
6.8987e-08
0.00010609
6.5005e-08
0.000106112
6.04952e-08
0.000106133
5.55562e-08
0.000106155
5.02645e-08
0.000106177
4.46774e-08
0.000106199
3.88359e-08
0.000106221
3.27665e-08
0.000106243
2.64827e-08
0.000106266
1.99863e-08
0.000106288
1.32692e-08
0.00010631
6.31399e-09
0.000106332
-9.03449e-10
0.000106354
-8.41162e-09
0.000106377
-1.62413e-08
0.000106399
-2.44209e-08
0.000106421
-3.29743e-08
0.000106444
-4.19156e-08
0.000106465
-5.12465e-08
0.000106487
-6.09585e-08
-7.10028e-08
0.000106508
0.000108895
6.42744e-09
0.000108901
1.87479e-08
0.000108909
3.01623e-08
0.000108921
3.94931e-08
0.000108935
4.67043e-08
0.000108951
5.18894e-08
0.000108968
5.51926e-08
0.000108987
5.68167e-08
0.000109006
5.69859e-08
0.000109027
5.59234e-08
0.000109048
5.38368e-08
0.000109069
5.09088e-08
0.000109091
4.72933e-08
0.000109113
4.31172e-08
0.000109135
3.84819e-08
0.000109157
3.34673e-08
0.000109179
2.81344e-08
0.000109201
2.25285e-08
0.000109223
1.6681e-08
0.000109245
1.06118e-08
0.000109268
4.33027e-09
0.00010929
-2.16328e-09
0.000109312
-8.87604e-09
0.000109334
-1.5822e-08
0.000109356
-2.30189e-08
0.000109378
-3.04875e-08
0.0001094
-3.8248e-08
0.000109422
-4.63181e-08
0.000109444
-5.47094e-08
0.000109465
-6.3426e-08
0.000109487
-7.24604e-08
0.000109507
-8.17988e-08
-9.13921e-08
0.000109528
0.000112006
4.60191e-09
0.000112012
1.34471e-08
0.00011202
2.17193e-08
0.000112031
2.82742e-08
0.000112045
3.30971e-08
0.000112061
3.62775e-08
0.000112078
3.79348e-08
0.000112096
3.8235e-08
0.000112116
3.73604e-08
0.000112136
3.54915e-08
0.000112157
3.27952e-08
0.000112179
2.94175e-08
0.000112201
2.54807e-08
0.000112223
2.10842e-08
0.000112245
1.63068e-08
0.000112267
1.12096e-08
0.00011229
5.83795e-09
0.000112312
2.25072e-10
0.000112334
-5.6069e-09
0.000112356
-1.16447e-08
0.000112379
-1.78831e-08
0.000112401
-2.43231e-08
0.000112423
-3.09716e-08
0.000112445
-3.78389e-08
0.000112467
-4.49385e-08
0.000112489
-5.22839e-08
0.00011251
-5.9888e-08
0.000112532
-6.77595e-08
0.000112553
-7.59024e-08
0.000112574
-8.43133e-08
0.000112594
-9.29799e-08
0.000112614
-1.01885e-07
-1.10982e-07
0.000112634
0.000115206
2.81891e-09
0.000115211
8.26521e-09
0.00011522
1.34466e-08
0.000115231
1.72497e-08
0.000115244
1.96793e-08
0.00011526
2.08273e-08
0.000115277
2.07967e-08
0.000115295
1.97236e-08
0.000115315
1.77538e-08
0.000115335
1.50296e-08
0.000115356
1.16804e-08
0.000115378
7.81748e-09
0.0001154
3.5322e-09
0.000115422
-1.10262e-09
0.000115445
-6.03083e-09
0.000115467
-1.12105e-08
0.000115489
-1.66113e-08
0.000115512
-2.22126e-08
0.000115534
-2.80014e-08
0.000115557
-3.39714e-08
0.000115579
-4.01213e-08
0.000115601
-4.64543e-08
0.000115623
-5.29765e-08
0.000115645
-5.96966e-08
0.000115666
-6.6624e-08
0.000115688
-7.37674e-08
0.000115709
-8.11335e-08
0.00011573
-8.87258e-08
0.000115751
-9.65422e-08
0.000115771
-1.04575e-07
0.000115791
-1.1281e-07
0.00011581
-1.21229e-07
-1.29788e-07
0.000115829
0.000118498
1.07172e-09
0.000118503
3.18238e-09
0.000118511
5.31014e-09
0.000118522
6.37107e-09
0.000118535
6.39167e-09
0.00011855
5.4739e-09
0.000118567
3.71225e-09
0.000118586
1.21901e-09
0.000118606
-1.89194e-09
0.000118626
-5.51313e-09
0.000118647
-9.55021e-09
0.000118669
-1.39254e-08
0.000118691
-1.85774e-08
0.000118714
-2.346e-08
0.000118736
-2.85397e-08
0.000118759
-3.37934e-08
0.000118781
-3.92067e-08
0.000118804
-4.47711e-08
0.000118826
-5.04833e-08
0.000118849
-5.63439e-08
0.000118871
-6.23562e-08
0.000118893
-6.85256e-08
0.000118915
-7.48589e-08
0.000118937
-8.13635e-08
0.000118958
-8.8046e-08
0.000118979
-9.49121e-08
0.000119
-1.01964e-07
0.00011902
-1.09203e-07
0.00011904
-1.16622e-07
0.00011906
-1.24211e-07
0.000119079
-1.31956e-07
0.000119098
-1.39839e-07
-1.47819e-07
0.000119116
0.000121883
-6.44699e-10
0.000121888
-1.81668e-09
0.000121896
-2.71949e-09
0.000121907
-4.40759e-09
0.00012192
-6.82635e-09
0.000121935
-9.85269e-09
0.000121952
-1.33922e-08
0.000121971
-1.73517e-08
0.000121991
-2.16457e-08
0.000122011
-2.6199e-08
0.000122033
-3.09507e-08
0.000122055
-3.5856e-08
0.000122077
-4.08838e-08
0.0001221
-4.60144e-08
0.000122122
-5.12372e-08
0.000122145
-5.65485e-08
0.000122168
-6.19497e-08
0.000122191
-6.7445e-08
0.000122213
-7.30412e-08
0.000122236
-7.87459e-08
0.000122258
-8.45677e-08
0.00012228
-9.05148e-08
0.000122301
-9.65954e-08
0.000122323
-1.02816e-07
0.000122344
-1.09183e-07
0.000122365
-1.157e-07
0.000122385
-1.22367e-07
0.000122405
-1.29181e-07
0.000122425
-1.36137e-07
0.000122444
-1.43223e-07
0.000122462
-1.50423e-07
0.00012248
-1.57723e-07
-1.65085e-07
0.000122497
0.000125365
-2.33249e-09
0.00012537
-6.73967e-09
0.000125378
-1.06637e-08
0.000125389
-1.51288e-08
0.000125402
-2.00379e-08
0.000125417
-2.52296e-08
0.000125435
-3.06007e-08
0.000125453
-3.60739e-08
0.000125473
-4.15899e-08
0.000125494
-4.7104e-08
0.000125516
-5.25887e-08
0.000125538
-5.80324e-08
0.00012556
-6.3435e-08
0.000125583
-6.8804e-08
0.000125606
-7.41522e-08
0.000125629
-7.94958e-08
0.000125652
-8.48522e-08
0.000125675
-9.02394e-08
0.000125697
-9.56739e-08
0.00012572
-1.01172e-07
0.000125742
-1.06746e-07
0.000125764
-1.1241e-07
0.000125786
-1.18172e-07
0.000125807
-1.24042e-07
0.000125828
-1.30024e-07
0.000125848
-1.36122e-07
0.000125868
-1.42334e-07
0.000125887
-1.48659e-07
0.000125906
-1.55089e-07
0.000125925
-1.61613e-07
0.000125943
-1.68217e-07
0.00012596
-1.74887e-07
-1.81591e-07
0.000125976
0.000128947
-3.98861e-09
0.000128952
-1.15806e-08
0.000128959
-1.8531e-08
0.00012897
-2.58304e-08
0.000128983
-3.33103e-08
0.000128999
-4.0744e-08
0.000129016
-4.80111e-08
0.000129035
-5.50494e-08
0.000129056
-6.18247e-08
0.000129077
-6.83219e-08
0.000129099
-7.45482e-08
0.000129121
-8.05276e-08
0.000129144
-8.62924e-08
0.000129167
-9.18787e-08
0.00012919
-9.73237e-08
0.000129214
-1.02664e-07
0.000129237
-1.07935e-07
0.00012926
-1.13167e-07
0.000129282
-1.18388e-07
0.000129305
-1.23622e-07
0.000129327
-1.28889e-07
0.000129349
-1.34206e-07
0.00012937
-1.39584e-07
0.000129391
-1.45035e-07
0.000129412
-1.50564e-07
0.000129432
-1.56175e-07
0.000129451
-1.61867e-07
0.00012947
-1.67638e-07
0.000129489
-1.73482e-07
0.000129506
-1.7939e-07
0.000129523
-1.85349e-07
0.00012954
-1.91347e-07
-1.97358e-07
0.000129556
0.000132631
-5.60022e-09
0.000132635
-1.63086e-08
0.000132643
-2.63073e-08
0.000132654
-3.65435e-08
0.000132667
-4.67182e-08
0.000132683
-5.64982e-08
0.000132701
-6.57404e-08
0.00013272
-7.44013e-08
0.000132741
-8.24716e-08
0.000132762
-8.99677e-08
0.000132785
-9.69351e-08
0.000132808
-1.03436e-07
0.000132831
-1.09539e-07
0.000132854
-1.1531e-07
0.000132878
-1.20811e-07
0.000132901
-1.26103e-07
0.000132925
-1.31236e-07
0.000132948
-1.36258e-07
0.000132971
-1.41206e-07
0.000132993
-1.46114e-07
0.000133015
-1.51009e-07
0.000133037
-1.55911e-07
0.000133058
-1.60837e-07
0.000133079
-1.65799e-07
0.000133099
-1.70807e-07
0.000133119
-1.75863e-07
0.000133138
-1.80971e-07
0.000133156
-1.86127e-07
0.000133174
-1.91326e-07
0.000133191
-1.96562e-07
0.000133208
-2.01824e-07
0.000133224
-2.07101e-07
-2.12368e-07
0.000133239
0.00013642
-7.13524e-09
0.000136424
-2.08447e-08
0.000136432
-3.39399e-08
0.000136443
-4.72891e-08
0.000136456
-6.03469e-08
0.000136472
-7.26161e-08
0.000136491
-8.39348e-08
0.000136511
-9.42842e-08
0.000136532
-1.0368e-07
0.000136554
-1.12176e-07
0.000136577
-1.19866e-07
0.0001366
-1.26858e-07
0.000136624
-1.33258e-07
0.000136648
-1.39166e-07
0.000136672
-1.44672e-07
0.000136696
-1.49858e-07
0.000136719
-1.54795e-07
0.000136742
-1.59544e-07
0.000136765
-1.64155e-07
0.000136788
-1.68671e-07
0.00013681
-1.73124e-07
0.000136832
-1.77543e-07
0.000136853
-1.81947e-07
0.000136873
-1.86353e-07
0.000136893
-1.9077e-07
0.000136913
-1.95206e-07
0.000136931
-1.99664e-07
0.000136949
-2.04144e-07
0.000136967
-2.08643e-07
0.000136983
-2.13156e-07
0.000136999
-2.17675e-07
0.000137014
-2.22196e-07
-2.26699e-07
0.000137028
0.000140317
-8.52115e-09
0.000140321
-2.50155e-08
0.000140329
-4.13121e-08
0.000140339
-5.80813e-08
0.000140353
-7.42976e-08
0.00014037
-8.92414e-08
0.000140389
-1.0277e-07
0.00014041
-1.149e-07
0.000140431
-1.25664e-07
0.000140454
-1.35159e-07
0.000140478
-1.4354e-07
0.000140502
-1.5097e-07
0.000140527
-1.57602e-07
0.000140551
-1.63573e-07
0.000140575
-1.69007e-07
0.0001406
-1.74009e-07
0.000140623
-1.78671e-07
0.000140647
-1.83069e-07
0.00014067
-1.87265e-07
0.000140693
-1.91311e-07
0.000140715
-1.95247e-07
0.000140736
-1.99108e-07
0.000140757
-2.02917e-07
0.000140778
-2.06695e-07
0.000140797
-2.10453e-07
0.000140816
-2.14202e-07
0.000140835
-2.17947e-07
0.000140852
-2.21691e-07
0.000140869
-2.25431e-07
0.000140885
-2.29164e-07
0.0001409
-2.32885e-07
0.000140915
-2.36584e-07
-2.40245e-07
0.000140928
0.000144326
-9.59963e-09
0.000144329
-2.84524e-08
0.000144336
-4.81897e-08
0.000144347
-6.89411e-08
0.000144361
-8.87352e-08
0.000144379
-1.06579e-07
0.000144398
-1.22439e-07
0.00014442
-1.364e-07
0.000144443
-1.48531e-07
0.000144466
-1.58996e-07
0.000144491
-1.68026e-07
0.000144516
-1.75844e-07
0.000144541
-1.82649e-07
0.000144566
-1.88618e-07
0.000144591
-1.93907e-07
0.000144615
-1.98651e-07
0.00014464
-2.0296e-07
0.000144664
-2.06927e-07
0.000144687
-2.10628e-07
0.00014471
-2.14123e-07
0.000144732
-2.17464e-07
0.000144754
-2.20687e-07
0.000144775
-2.23824e-07
0.000144795
-2.26898e-07
0.000144814
-2.29925e-07
0.000144833
-2.32918e-07
0.000144851
-2.35885e-07
0.000144868
-2.3883e-07
0.000144884
-2.41756e-07
0.0001449
-2.44663e-07
0.000144914
-2.47551e-07
0.000144928
-2.50421e-07
-2.53263e-07
0.000144941
0.000148448
-1.00105e-08
0.00014845
-3.04291e-08
0.000148456
-5.4143e-08
0.000148467
-7.97902e-08
0.000148482
-1.0382e-07
0.000148501
-1.25048e-07
0.000148522
-1.43575e-07
0.000148545
-1.59488e-07
0.000148569
-1.72926e-07
0.000148595
-1.8421e-07
0.00014862
-1.93706e-07
0.000148646
-2.01725e-07
0.000148672
-2.08525e-07
0.000148698
-2.14332e-07
0.000148723
-2.19337e-07
0.000148748
-2.23699e-07
0.000148773
-2.27548e-07
0.000148797
-2.30988e-07
0.00014882
-2.34107e-07
0.000148843
-2.36974e-07
0.000148865
-2.39644e-07
0.000148887
-2.42162e-07
0.000148908
-2.44562e-07
0.000148928
-2.46871e-07
0.000148947
-2.49108e-07
0.000148965
-2.51289e-07
0.000148983
-2.53423e-07
0.000148999
-2.55519e-07
0.000149015
-2.57578e-07
0.00014903
-2.59602e-07
0.000149044
-2.61586e-07
0.000149057
-2.63522e-07
-2.654e-07
0.000149069
0.000152688
-8.74088e-09
0.000152687
-2.95041e-08
0.000152692
-5.89442e-08
0.000152703
-9.06985e-08
0.000152718
-1.1912e-07
0.000152737
-1.43863e-07
0.000152759
-1.65388e-07
0.000152783
-1.83582e-07
0.000152808
-1.98565e-07
0.000152835
-2.10812e-07
0.000152862
-2.20832e-07
0.000152889
-2.29035e-07
0.000152917
-2.3576e-07
0.000152944
-2.41299e-07
0.00015297
-2.45894e-07
0.000152996
-2.4974e-07
0.000153022
-2.5299e-07
0.000153046
-2.5577e-07
0.00015307
-2.5818e-07
0.000153094
-2.60299e-07
0.000153116
-2.62189e-07
0.000153138
-2.63899e-07
0.000153159
-2.65469e-07
0.000153179
-2.66927e-07
0.000153198
-2.68297e-07
0.000153217
-2.69596e-07
0.000153234
-2.70837e-07
0.00015325
-2.72029e-07
0.000153266
-2.7318e-07
0.000153281
-2.74297e-07
0.000153295
-2.75386e-07
0.000153307
-2.76459e-07
-2.77511e-07
0.00015332
0.000157046
-3.31675e-09
0.000157038
-2.13829e-08
0.000157041
-6.21609e-08
0.000157055
-1.04277e-07
0.000157074
-1.38641e-07
0.000157097
-1.66971e-07
0.000157123
-1.90698e-07
0.000157149
-2.10065e-07
0.000157176
-2.25616e-07
0.000157204
-2.38124e-07
0.000157231
-2.48203e-07
0.000157258
-2.56304e-07
0.000157285
-2.62802e-07
0.000157312
-2.68019e-07
0.000157338
-2.72212e-07
0.000157364
-2.75585e-07
0.000157389
-2.78302e-07
0.000157414
-2.80493e-07
0.000157438
-2.82264e-07
0.000157462
-2.837e-07
0.000157484
-2.84867e-07
0.000157506
-2.8582e-07
0.000157527
-2.86599e-07
0.000157548
-2.87239e-07
0.000157567
-2.87765e-07
0.000157586
-2.88198e-07
0.000157603
-2.88552e-07
0.00015762
-2.88838e-07
0.000157636
-2.89064e-07
0.000157651
-2.89232e-07
0.000157665
-2.89339e-07
0.000157678
-2.89375e-07
-2.89339e-07
0.00015769
0.000161526
9.35123e-09
0.000161505
-3.71884e-10
0.000161496
-5.38884e-08
0.0001615
-1.07638e-07
0.000161514
-1.52568e-07
0.000161537
-1.89932e-07
0.000161566
-2.19574e-07
0.000161598
-2.41989e-07
0.000161631
-2.58846e-07
0.000161664
-2.71712e-07
0.000161698
-2.81589e-07
0.000161731
-2.89156e-07
0.000161763
-2.94946e-07
0.000161794
-2.99377e-07
0.000161825
-3.02751e-07
0.000161854
-3.05296e-07
0.000161883
-3.07181e-07
0.000161911
-3.08539e-07
0.000161938
-3.09474e-07
0.000161965
-3.10067e-07
0.00016199
-3.1038e-07
0.000162015
-3.10466e-07
0.000162039
-3.10363e-07
0.000162062
-3.10104e-07
0.000162084
-3.09716e-07
0.000162105
-3.09218e-07
0.000162125
-3.08627e-07
0.000162144
-3.0796e-07
0.000162162
-3.07227e-07
0.000162179
-3.06442e-07
0.000162195
-3.0562e-07
0.000162211
-3.04785e-07
-3.03929e-07
0.000162225
0.0001661
6.33857e-08
0.000166096
3.62989e-09
0.000166112
-7.02181e-08
0.000166127
-1.2278e-07
0.000166142
-1.67306e-07
0.000166159
-2.07254e-07
0.00016618
-2.40134e-07
0.000166203
-2.65737e-07
0.00016623
-2.85647e-07
0.00016626
-3.01228e-07
0.000166291
-3.13341e-07
0.000166325
-3.22658e-07
0.00016636
-3.29758e-07
0.000166396
-3.35104e-07
0.000166432
-3.39042e-07
0.000166468
-3.41842e-07
0.000166505
-3.4372e-07
0.000166541
-3.44845e-07
0.000166577
-3.45357e-07
0.000166612
-3.45364e-07
0.000166647
-3.44957e-07
0.000166681
-3.44206e-07
0.000166713
-3.43172e-07
0.000166745
-3.41903e-07
0.000166776
-3.40438e-07