/*--------------------------------*- C++ -*----------------------------------*\
  =========                 |
  \\      /  F ield         | OpenFOAM: The Open Source CFD Toolbox
   \\    /   O peration     | Website:  https://openfoam.org
    \\  /    A nd           | Version:  10
     \\/     M anipulation  |
\*---------------------------------------------------------------------------*/
FoamFile
{
    format      ascii;
    class       volVectorField;
    location    "1200";
    object      U;
}
// * * * * * * * * * * * * * * * * * * * * * * * * * * * * * * * * * * * * * //

dimensions      [0 1 -1 0 0 0 0];

internalField   nonuniform List<vector> 
6820
(
(7.31669 -0.387303 0)
(7.31541 -0.335169 0)
(7.28425 -0.203525 0)
(7.22641 -0.111125 0)
(7.16222 -0.056806 0)
(7.10133 -0.027052 0)
(7.04574 -0.0113293 0)
(6.99564 -0.00314465 0)
(6.95079 0.00106557 0)
(6.91056 0.00318277 0)
(6.87422 0.00420694 0)
(6.84111 0.00467171 0)
(6.81075 0.00485821 0)
(6.78274 0.00491216 0)
(6.75676 0.00490806 0)
(6.73255 0.00488326 0)
(6.70989 0.00485576 0)
(6.68861 0.0048337 0)
(6.66856 0.00482057 0)
(6.6496 0.00481805 0)
(6.63162 0.00482768 0)
(6.61449 0.00485201 0)
(6.59812 0.00489559 0)
(6.58236 0.00496694 0)
(6.56707 0.00508289 0)
(6.55209 0.00524982 0)
(6.53707 0.00560349 0)
(6.52166 0.00606001 0)
(6.50533 0.00666249 0)
(6.48476 0.00982626 0)
(6.46344 0.01801 0)
(6.40798 -0.00775367 0)
(6.43878 0.0219355 0)
(7.33961 0.100774 0)
(7.3543 0.149911 0)
(7.3585 0.123222 0)
(7.35878 0.0898138 0)
(7.35946 0.0659869 0)
(7.35825 0.0500495 0)
(7.35305 0.0394519 0)
(7.34411 0.0324747 0)
(7.3326 0.0278135 0)
(7.31948 0.0245767 0)
(7.30539 0.0222294 0)
(7.2908 0.0204564 0)
(7.27604 0.0190635 0)
(7.26133 0.0179276 0)
(7.24681 0.0169715 0)
(7.23257 0.0161466 0)
(7.21865 0.0154221 0)
(7.2051 0.0147781 0)
(7.19192 0.0142022 0)
(7.17911 0.013687 0)
(7.16667 0.0132296 0)
(7.15459 0.0128307 0)
(7.14284 0.012496 0)
(7.13141 0.0122376 0)
(7.12027 0.012077 0)
(7.10938 0.0120593 0)
(7.09878 0.0122433 0)
(7.08827 0.0128143 0)
(7.07835 0.0140004 0)
(7.06846 0.0162442 0)
(7.06291 0.0222833 0)
(7.04757 0.0272522 0)
(7.08601 0.0617768 0)
(7.32714 0.00611587 0)
(7.32431 -0.00161496 0)
(7.33136 -0.00621891 0)
(7.33983 -0.0008425 0)
(7.34694 0.00696 0)
(7.35237 0.0126589 0)
(7.35569 0.0161363 0)
(7.35697 0.0181953 0)
(7.3566 0.0193366 0)
(7.35493 0.0198614 0)
(7.35223 0.019996 0)
(7.34868 0.0199 0)
(7.34449 0.0196731 0)
(7.33981 0.0193754 0)
(7.33477 0.0190441 0)
(7.32945 0.0187029 0)
(7.32394 0.0183667 0)
(7.31829 0.0180451 0)
(7.31254 0.0177446 0)
(7.30675 0.0174713 0)
(7.30091 0.0172311 0)
(7.29506 0.0170319 0)
(7.28919 0.016885 0)
(7.2833 0.0168075 0)
(7.27738 0.0168275 0)
(7.27141 0.0169848 0)
(7.26536 0.0173713 0)
(7.25915 0.0180574 0)
(7.25286 0.0193901 0)
(7.24633 0.0214712 0)
(7.24087 0.0258392 0)
(7.23347 0.028848 0)
(7.23302 0.0438766 0)
(7.32977 -0.00402017 0)
(7.32632 0.00242086 0)
(7.33117 0.0106208 0)
(7.33689 0.0167267 0)
(7.3416 0.0202459 0)
(7.34602 0.0217156 0)
(7.34993 0.022155 0)
(7.35303 0.0222303 0)
(7.35534 0.022159 0)
(7.35697 0.0219945 0)
(7.35798 0.0217721 0)
(7.35843 0.0215198 0)
(7.35839 0.0212529 0)
(7.35793 0.0209788 0)
(7.35711 0.0207029 0)
(7.356 0.0204301 0)
(7.35463 0.0201645 0)
(7.35304 0.0199107 0)
(7.35128 0.0196732 0)
(7.34936 0.0194581 0)
(7.3473 0.0192729 0)
(7.34512 0.0191281 0)
(7.34283 0.0190386 0)
(7.34043 0.019026 0)
(7.33791 0.019124 0)
(7.33527 0.0193805 0)
(7.33251 0.0198833 0)
(7.3296 0.0207317 0)
(7.32664 0.0221743 0)
(7.32367 0.0243659 0)
(7.32127 0.0280482 0)
(7.31923 0.0320853 0)
(7.31993 0.0409796 0)
(7.33182 -0.00101176 0)
(7.33003 0.00667517 0)
(7.33266 0.0122459 0)
(7.33623 0.0149907 0)
(7.33961 0.0169644 0)
(7.34322 0.0184056 0)
(7.34678 0.019327 0)
(7.34995 0.0199235 0)
(7.3527 0.0203129 0)
(7.35509 0.0205396 0)
(7.35714 0.0206426 0)
(7.35885 0.0206598 0)
(7.36026 0.0206179 0)
(7.36139 0.0205345 0)
(7.36228 0.0204227 0)
(7.36294 0.0202931 0)
(7.3634 0.0201549 0)
(7.36369 0.0200161 0)
(7.36381 0.0198846 0)
(7.36378 0.0197688 0)
(7.36362 0.0196789 0)
(7.36334 0.0196277 0)
(7.36294 0.0196325 0)
(7.36242 0.0197171 0)
(7.36179 0.0199162 0)
(7.36105 0.0202783 0)
(7.36022 0.0208808 0)
(7.35932 0.0218148 0)
(7.35847 0.0232529 0)
(7.35779 0.0253161 0)
(7.35768 0.0283189 0)
(7.35856 0.0319551 0)
(7.36148 0.0372065 0)
(7.33247 0.000666925 0)
(7.33168 0.00627684 0)
(7.33354 0.0104776 0)
(7.33642 0.0130574 0)
(7.33929 0.0152806 0)
(7.34231 0.0170049 0)
(7.34536 0.0181093 0)
(7.34822 0.0188073 0)
(7.35084 0.0192705 0)
(7.35326 0.0195683 0)
(7.3555 0.0197436 0)
(7.35755 0.0198341 0)
(7.35942 0.019866 0)
(7.36112 0.0198562 0)
(7.36266 0.0198167 0)
(7.36405 0.0197577 0)
(7.3653 0.0196878 0)
(7.36642 0.0196148 0)
(7.36743 0.0195469 0)
(7.36831 0.0194931 0)
(7.3691 0.0194638 0)
(7.36978 0.0194727 0)
(7.37036 0.0195374 0)
(7.37085 0.0196816 0)
(7.37126 0.0199383 0)
(7.3716 0.0203514 0)
(7.37191 0.020984 0)
(7.37222 0.0219085 0)
(7.37265 0.0232341 0)
(7.37337 0.0250318 0)
(7.37466 0.0274106 0)
(7.37698 0.0301985 0)
(7.38082 0.0333154 0)
(7.33271 0.00108853 0)
(7.33244 0.00543336 0)
(7.33404 0.00934273 0)
(7.33661 0.0120715 0)
(7.33921 0.0142431 0)
(7.34186 0.0158779 0)
(7.34457 0.0169563 0)
(7.34716 0.0176657 0)
(7.34959 0.0181573 0)
(7.3519 0.0184936 0)
(7.3541 0.0187122 0)
(7.35618 0.0188472 0)
(7.35814 0.0189233 0)
(7.36 0.018957 0)
(7.36176 0.0189603 0)
(7.36343 0.0189429 0)
(7.365 0.0189137 0)
(7.36648 0.0188805 0)
(7.36789 0.0188517 0)
(7.36921 0.0188364 0)
(7.37045 0.0188452 0)
(7.37163 0.0188916 0)
(7.37273 0.0189925 0)
(7.37378 0.0191699 0)
(7.37477 0.0194528 0)
(7.37574 0.0198775 0)
(7.37672 0.0204915 0)
(7.37777 0.0213451 0)
(7.379 0.022498 0)
(7.38054 0.0239753 0)
(7.38264 0.025776 0)
(7.38561 0.0277349 0)
(7.38966 0.0295331 0)
(7.33286 0.00124904 0)
(7.3329 0.00497374 0)
(7.33431 0.00856598 0)
(7.33659 0.0111851 0)
(7.33899 0.0131952 0)
(7.34143 0.0147391 0)
(7.34392 0.0158201 0)
(7.34634 0.0165594 0)
(7.34864 0.0170793 0)
(7.35084 0.0174423 0)
(7.35295 0.0176867 0)
(7.35498 0.0178454 0)
(7.35693 0.0179435 0)
(7.35881 0.017998 0)
(7.36062 0.0180212 0)
(7.36236 0.0180234 0)
(7.36405 0.0180133 0)
(7.36568 0.0179992 0)
(7.36725 0.0179893 0)
(7.36877 0.0179925 0)
(7.37023 0.0180193 0)
(7.37165 0.0180822 0)
(7.37303 0.0181964 0)
(7.37438 0.0183812 0)
(7.37572 0.0186601 0)
(7.37706 0.0190609 0)
(7.37845 0.0196157 0)
(7.37995 0.0203539 0)
(7.38165 0.0212995 0)
(7.38368 0.0224434 0)
(7.38619 0.0237313 0)
(7.38938 0.025 0)
(7.39332 0.0259398 0)
(7.33295 0.00131431 0)
(7.33318 0.00460454 0)
(7.33443 0.00781369 0)
(7.33645 0.0102693 0)
(7.33867 0.012165 0)
(7.34095 0.0136494 0)
(7.34328 0.0147304 0)
(7.34557 0.0154881 0)
(7.34777 0.0160257 0)
(7.34988 0.0164056 0)
(7.35193 0.0166662 0)
(7.3539 0.0168391 0)
(7.35582 0.0169488 0)
(7.35767 0.017013 0)
(7.35948 0.0170446 0)
(7.36124 0.017054 0)
(7.36295 0.0170503 0)
(7.36463 0.017042 0)
(7.36626 0.017037 0)
(7.36786 0.0170443 0)
(7.36943 0.0170734 0)
(7.37098 0.0171356 0)
(7.3725 0.0172442 0)
(7.37402 0.0174147 0)
(7.37555 0.017665 0)
(7.37712 0.0180143 0)
(7.37876 0.0184811 0)
(7.38053 0.0190779 0)
(7.3825 0.0198044 0)
(7.38478 0.0206304 0)
(7.38745 0.0214819 0)
(7.39065 0.0222116 0)
(7.39434 0.0225798 0)
(7.333 0.00130549 0)
(7.33333 0.00424509 0)
(7.33446 0.00710648 0)
(7.33626 0.00940024 0)
(7.3383 0.0111953 0)
(7.34043 0.0126125 0)
(7.34262 0.0136725 0)
(7.34479 0.0144339 0)
(7.34691 0.014981 0)
(7.34896 0.0153721 0)
(7.35095 0.015644 0)
(7.35288 0.0158263 0)
(7.35476 0.015943 0)
(7.35659 0.0160118 0)
(7.35838 0.0160458 0)
(7.36013 0.016056 0)
(7.36185 0.0160515 0)
(7.36353 0.0160408 0)
(7.36519 0.0160319 0)
(7.36683 0.0160331 0)
(7.36845 0.0160532 0)
(7.37005 0.0161019 0)
(7.37166 0.0161901 0)
(7.37327 0.0163297 0)
(7.37492 0.0165329 0)
(7.37661 0.0168111 0)
(7.3784 0.0171723 0)
(7.38032 0.0176161 0)
(7.38244 0.0181276 0)
(7.38482 0.0186665 0)
(7.38752 0.0191576 0)
(7.3906 0.0194783 0)
(7.39401 0.0194599 0)
(7.33302 0.00125038 0)
(7.3334 0.00389892 0)
(7.33443 0.0064597 0)
(7.33604 0.00858519 0)
(7.33792 0.0102737 0)
(7.33991 0.0116155 0)
(7.34196 0.0126408 0)
(7.34403 0.0133944 0)
(7.34607 0.013943 0)
(7.34805 0.0143388 0)
(7.34999 0.0146166 0)
(7.35189 0.0148041 0)
(7.35374 0.0149242 0)
(7.35554 0.0149941 0)
(7.35731 0.0150272 0)
(7.35905 0.0150343 0)
(7.36076 0.0150247 0)
(7.36245 0.0150067 0)
(7.36412 0.0149879 0)
(7.36577 0.0149761 0)
(7.36741 0.0149791 0)
(7.36905 0.015005 0)
(7.3707 0.0150621 0)
(7.37237 0.0151588 0)
(7.37408 0.0153023 0)
(7.37586 0.0154977 0)
(7.37773 0.0157449 0)
(7.37973 0.0160351 0)
(7.3819 0.0163459 0)
(7.38429 0.0166348 0)
(7.38693 0.0168344 0)
(7.38986 0.0168486 0)
(7.39298 0.0165642 0)
(7.33303 0.00117111 0)
(7.33343 0.00356704 0)
(7.33438 0.00586384 0)
(7.33583 0.00781722 0)
(7.33755 0.00939416 0)
(7.3394 0.0106567 0)
(7.34134 0.0116374 0)
(7.3433 0.0123721 0)
(7.34526 0.0129131 0)
(7.34718 0.0133061 0)
(7.34907 0.0135838 0)
(7.35092 0.0137718 0)
(7.35274 0.0138914 0)
(7.35452 0.0139592 0)
(7.35628 0.0139883 0)
(7.358 0.0139894 0)
(7.3597 0.0139714 0)
(7.36139 0.0139424 0)
(7.36306 0.0139096 0)
(7.36472 0.0138799 0)
(7.36637 0.01386 0)
(7.36803 0.0138563 0)
(7.36971 0.0138748 0)
(7.37142 0.0139206 0)
(7.37317 0.013997 0)
(7.37498 0.014104 0)
(7.37689 0.0142361 0)
(7.37892 0.0143798 0)
(7.38109 0.0145099 0)
(7.38345 0.0145865 0)
(7.38599 0.0145536 0)
(7.38873 0.0143387 0)
(7.3916 0.0138685 0)
(7.33304 0.00108052 0)
(7.33343 0.00324812 0)
(7.3343 0.00530977 0)
(7.33562 0.00709298 0)
(7.3372 0.00855505 0)
(7.33893 0.00973477 0)
(7.34075 0.0106625 0)
(7.34261 0.0113679 0)
(7.34449 0.0118926 0)
(7.34635 0.0122758 0)
(7.34818 0.0125473 0)
(7.35 0.0127306 0)
(7.35178 0.0128455 0)
(7.35354 0.0129077 0)
(7.35527 0.0129297 0)
(7.35698 0.0129217 0)
(7.35868 0.0128924 0)
(7.36035 0.0128492 0)
(7.36202 0.0127989 0)
(7.36368 0.0127474 0)
(7.36535 0.0127001 0)
(7.36702 0.012662 0)
(7.36871 0.0126369 0)
(7.37044 0.0126271 0)
(7.37221 0.0126328 0)
(7.37404 0.0126506 0)
(7.37596 0.0126716 0)
(7.37798 0.0126803 0)
(7.38013 0.0126519 0)
(7.38241 0.0125516 0)
(7.38484 0.0123346 0)
(7.3874 0.0119484 0)
(7.39003 0.0113463 0)
(7.33304 0.000985751 0)
(7.33341 0.00294181 0)
(7.33422 0.00479117 0)
(7.33542 0.00640911 0)
(7.33688 0.00775383 0)
(7.33849 0.00884724 0)
(7.34021 0.00971504 0)
(7.34198 0.0103826 0)
(7.34377 0.0108829 0)
(7.34557 0.0112493 0)
(7.34735 0.0115086 0)
(7.34912 0.0116822 0)
(7.35087 0.011788 0)
(7.3526 0.0118407 0)
(7.35431 0.0118522 0)
(7.356 0.0118321 0)
(7.35768 0.0117885 0)
(7.35935 0.0117283 0)
(7.36102 0.0116573 0)
(7.36268 0.0115807 0)
(7.36434 0.0115027 0)
(7.36602 0.0114268 0)
(7.36772 0.0113549 0)
(7.36945 0.0112874 0)
(7.37123 0.0112219 0)
(7.37306 0.0111529 0)
(7.37497 0.0110701 0)
(7.37696 0.0109576 0)
(7.37906 0.0107928 0)
(7.38126 0.0105468 0)
(7.38356 0.0101851 0)
(7.38595 0.00967011 0)
(7.38838 0.00897332 0)
(7.33304 0.000890781 0)
(7.33339 0.00264812 0)
(7.33414 0.00430293 0)
(7.33525 0.00576158 0)
(7.33659 0.00698748 0)
(7.3381 0.00799142 0)
(7.33971 0.00879372 0)
(7.34139 0.00941589 0)
(7.34311 0.00988467 0)
(7.34484 0.0102279 0)
(7.34657 0.0104691 0)
(7.3483 0.0106279 0)
(7.35001 0.0107203 0)
(7.35171 0.0107598 0)
(7.3534 0.0107575 0)
(7.35507 0.0107222 0)
(7.35674 0.0106614 0)
(7.35839 0.0105813 0)
(7.36005 0.0104869 0)
(7.3617 0.0103825 0)
(7.36336 0.0102713 0)
(7.36504 0.0101554 0)
(7.36674 0.0100352 0)
(7.36846 0.00990953 0)
(7.37023 0.00977463 0)
(7.37205 0.00962365 0)
(7.37393 0.00944597 0)
(7.37589 0.00922662 0)
(7.37792 0.00894618 0)
(7.38002 0.0085812 0)
(7.3822 0.00810593 0)
(7.38444 0.00749393 0)
(7.38669 0.00672839 0)
(7.33304 0.000797701 0)
(7.33337 0.00236681 0)
(7.33406 0.00384088 0)
(7.33508 0.00514635 0)
(7.33633 0.00625296 0)
(7.33774 0.00716472 0)
(7.33926 0.00789686 0)
(7.34086 0.00846736 0)
(7.34251 0.00889802 0)
(7.34418 0.00921198 0)
(7.34585 0.00942985 0)
(7.34753 0.00956889 0)
(7.34921 0.00964366 0)
(7.35088 0.00966634 0)
(7.35254 0.00964691 0)
(7.35419 0.00959348 0)
(7.35584 0.00951275 0)
(7.35748 0.00941017 0)
(7.35912 0.00929011 0)
(7.36077 0.00915587 0)
(7.36242 0.00900969 0)
(7.36408 0.00885252 0)
(7.36577 0.00868383 0)
(7.36749 0.00850124 0)
(7.36924 0.00830016 0)
(7.37103 0.00807336 0)
(7.37287 0.00781061 0)
(7.37477 0.0074986 0)
(7.37673 0.00712109 0)
(7.37874 0.00665971 0)
(7.38079 0.00609553 0)
(7.38289 0.00541019 0)
(7.38498 0.00459447 0)
(7.33303 0.000707497 0)
(7.33335 0.0020974 0)
(7.33399 0.00340156 0)
(7.33494 0.00455962 0)
(7.3361 0.00554721 0)
(7.33742 0.00636457 0)
(7.33886 0.00702256 0)
(7.34038 0.007536 0)
(7.34196 0.00792273 0)
(7.34356 0.00820193 0)
(7.34519 0.00839132 0)
(7.34683 0.0085061 0)
(7.34847 0.00855918 0)
(7.3501 0.00856141 0)
(7.35173 0.00852172 0)
(7.35336 0.00844738 0)
(7.35499 0.00834428 0)
(7.35661 0.00821712 0)
(7.35824 0.0080695 0)
(7.35987 0.00790392 0)
(7.3615 0.00772178 0)
(7.36315 0.0075232 0)
(7.36482 0.00730685 0)
(7.36652 0.00706971 0)
(7.36824 0.00680683 0)
(7.37 0.00651114 0)
(7.37179 0.0061733 0)
(7.37363 0.00578189 0)
(7.37551 0.00532372 0)
(7.37742 0.00478471 0)
(7.37937 0.00415115 0)
(7.38133 0.00341046 0)
(7.38328 0.0025582 0)
(7.33303 0.000620517 0)
(7.33332 0.00183913 0)
(7.33393 0.00298207 0)
(7.3348 0.00399789 0)
(7.33589 0.0048672 0)
(7.33713 0.00558836 0)
(7.3385 0.00616883 0)
(7.33995 0.00662058 0)
(7.34146 0.00695823 0)
(7.34301 0.00719762 0)
(7.34459 0.00735383 0)
(7.34618 0.00744007 0)
(7.34778 0.00746764 0)
(7.34938 0.00744606 0)
(7.35099 0.0073832 0)
(7.35259 0.00728541 0)
(7.35419 0.00715779 0)
(7.35579 0.00700427 0)
(7.3574 0.00682772 0)
(7.35901 0.00662994 0)
(7.36063 0.00641162 0)
(7.36225 0.00617227 0)
(7.3639 0.00591003 0)
(7.36556 0.00562159 0)
(7.36725 0.00530201 0)
(7.36897 0.00494471 0)
(7.37071 0.00454152 0)
(7.37248 0.00408289 0)
(7.37428 0.00355836 0)
(7.3761 0.0029573 0)
(7.37793 0.00226996 0)
(7.37977 0.00148782 0)
(7.38159 0.000609388 0)
(7.33303 0.000536761 0)
(7.3333 0.00159109 0)
(7.33386 0.00257986 0)
(7.33469 0.00345796 0)
(7.3357 0.00420996 0)
(7.33688 0.00483352 0)
(7.33817 0.00533358 0)
(7.33956 0.00571964 0)
(7.34101 0.00600364 0)
(7.3425 0.00619868 0)
(7.34403 0.0063174 0)
(7.34558 0.00637115 0)
(7.34714 0.00636966 0)
(7.34871 0.00632118 0)
(7.35029 0.00623247 0)
(7.35186 0.00610901 0)
(7.35344 0.00595506 0)
(7.35502 0.00577381 0)
(7.3566 0.00556746 0)
(7.35819 0.00533719 0)
(7.35978 0.00508314 0)
(7.36139 0.00480437 0)
(7.363 0.00449875 0)
(7.36463 0.00416288 0)
(7.36628 0.00379213 0)
(7.36794 0.00338059 0)
(7.36963 0.00292131 0)
(7.37133 0.00240648 0)
(7.37305 0.00182797 0)
(7.37478 0.00117789 0)
(7.37651 0.000449397 0)
(7.37823 -0.000363219 0)
(7.37993 -0.00125962 0)
(7.33303 0.000456038 0)
(7.33328 0.00135226 0)
(7.33381 0.00219269 0)
(7.33458 0.00293688 0)
(7.33554 0.00357262 0)
(7.33665 0.00409748 0)
(7.33788 0.00451462 0)
(7.33921 0.00483152 0)
(7.3406 0.00505789 0)
(7.34205 0.00520446 0)
(7.34353 0.00528179 0)
(7.34504 0.00529943 0)
(7.34656 0.00526567 0)
(7.3481 0.00518748 0)
(7.34964 0.00507059 0)
(7.35119 0.00491953 0)
(7.35274 0.0047378 0)
(7.3543 0.00452789 0)
(7.35585 0.00429136 0)
(7.35741 0.00402887 0)
(7.35898 0.00374013 0)
(7.36055 0.0034239 0)
(7.36213 0.00307793 0)
(7.36372 0.00269897 0)
(7.36532 0.00228277 0)
(7.36693 0.00182423 0)
(7.36856 0.00131752 0)
(7.37019 0.00075642 0)
(7.37183 0.000134695 0)
(7.37347 -0.000553443 0)
(7.3751 -0.0013127 0)
(7.37672 -0.00214685 0)
(7.37831 -0.00305449 0)
(7.33303 0.000378066 0)
(7.33327 0.0011216 0)
(7.33376 0.00181848 0)
(7.33449 0.00243197 0)
(7.3354 0.00295241 0)
(7.33645 0.00337766 0)
(7.33762 0.00370971 0)
(7.3389 0.00395441 0)
(7.34024 0.00411961 0)
(7.34164 0.00421408 0)
(7.34308 0.00424649 0)
(7.34455 0.0042248 0)
(7.34604 0.00415588 0)
(7.34754 0.00404552 0)
(7.34905 0.00389842 0)
(7.35057 0.00371823 0)
(7.35209 0.00350767 0)
(7.35362 0.00326858 0)
(7.35514 0.00300196 0)
(7.35667 0.00270801 0)
(7.35821 0.00238614 0)
(7.35975 0.0020349 0)
(7.36129 0.00165206 0)
(7.36284 0.00123459 0)
(7.36439 0.000778733 0)
(7.36595 0.000280148 0)
(7.36751 -0.000265926 0)
(7.36907 -0.000864383 0)
(7.37063 -0.00151994 0)
(7.37218 -0.00223677 0)
(7.37372 -0.00301807 0)
(7.37524 -0.00386625 0)
(7.37673 -0.00477936 0)
(7.33303 0.000302522 0)
(7.33325 0.000898023 0)
(7.33372 0.00145534 0)
(7.33441 0.00194073 0)
(7.33527 0.00234664 0)
(7.33627 0.00267148 0)
(7.3374 0.0029165 0)
(7.33862 0.00308631 0)
(7.33992 0.00318724 0)
(7.34127 0.00322637 0)
(7.34267 0.00321075 0)
(7.3441 0.00314686 0)
(7.34555 0.00304028 0)
(7.34703 0.00289566 0)
(7.34851 0.0027167 0)
(7.35 0.00250621 0)
(7.35149 0.00226617 0)
(7.35298 0.00199781 0)
(7.35448 0.00170164 0)
(7.35598 0.00137746 0)
(7.35748 0.00102443 0)
(7.35898 0.000641022 0)
(7.36048 0.000225076 0)
(7.36198 -0.000226162 0)
(7.36348 -0.000715945 0)
(7.36498 -0.0012479 0)
(7.36648 -0.00182587 0)
(7.36797 -0.00245365 0)
(7.36945 -0.00313476 0)
(7.37092 -0.00387216 0)
(7.37237 -0.00466798 0)
(7.3738 -0.00552372 0)
(7.37519 -0.00643719 0)
(7.33302 0.000229074 0)
(7.33324 0.000680507 0)
(7.33368 0.00110148 0)
(7.33433 0.00146078 0)
(7.33516 0.00175271 0)
(7.33612 0.00197631 0)
(7.3372 0.00213252 0)
(7.33837 0.00222502 0)
(7.33963 0.00225891 0)
(7.34094 0.00223985 0)
(7.34231 0.00217348 0)
(7.3437 0.00206492 0)
(7.34512 0.00191856 0)
(7.34656 0.00173796 0)
(7.34801 0.00152589 0)
(7.34947 0.00128433 0)
(7.35093 0.00101459 0)
(7.3524 0.000717301 0)
(7.35387 0.000392527 0)
(7.35533 3.97534e-05 0)
(7.35679 -0.000342071 0)
(7.35825 -0.000754507 0)
(7.35971 -0.0011996 0)
(7.36117 -0.0016798 0)
(7.36261 -0.0021979 0)
(7.36406 -0.00275689 0)
(7.36549 -0.00335983 0)
(7.36691 -0.00400964 0)
(7.36832 -0.00470892 0)
(7.3697 -0.00545975 0)
(7.37107 -0.00626349 0)
(7.37241 -0.00712106 0)
(7.37371 -0.00803016 0)
(7.33302 0.000157403 0)
(7.33323 0.000468074 0)
(7.33365 0.000755247 0)
(7.33427 0.000989927 0)
(7.33506 0.00116803 0)
(7.33598 0.00128946 0)
(7.33702 0.00135514 0)
(7.33816 0.00136811 0)
(7.33938 0.00133247 0)
(7.34066 0.00125273 0)
(7.34198 0.00113325 0)
(7.34335 0.000977958 0)
(7.34474 0.000790094 0)
(7.34615 0.000572213 0)
(7.34757 0.000326176 0)
(7.349 5.32003e-05 0)
(7.35043 -0.000246078 0)
(7.35186 -0.000571545 0)
(7.3533 -0.000923564 0)
(7.35473 -0.00130294 0)
(7.35615 -0.00171086 0)
(7.35757 -0.00214892 0)
(7.35899 -0.00261903 0)
(7.36039 -0.00312336 0)
(7.36179 -0.00366428 0)
(7.36317 -0.00424426 0)
(7.36454 -0.0048657 0)
(7.36589 -0.00553083 0)
(7.36723 -0.00624158 0)
(7.36854 -0.00699938 0)
(7.36982 -0.00780507 0)
(7.37107 -0.00865916 0)
(7.37229 -0.00955943 0)
(7.33302 8.72207e-05 0)
(7.33322 0.000259842 0)
(7.33362 0.00041513 0)
(7.33422 0.000526033 0)
(7.33497 0.000590056 0)
(7.33586 0.000608138 0)
(7.33687 0.000581497 0)
(7.33797 0.000512813 0)
(7.33916 0.00040541 0)
(7.34041 0.000262789 0)
(7.34171 8.82246e-05 0)
(7.34304 -0.000115491 0)
(7.3444 -0.000346163 0)
(7.34578 -0.000602209 0)
(7.34717 -0.000882631 0)
(7.34857 -0.00118696 0)
(7.34998 -0.00151518 0)
(7.35138 -0.00186769 0)
(7.35278 -0.00224525 0)
(7.35417 -0.0026489 0)
(7.35556 -0.00308 0)
(7.35694 -0.00354013 0)
(7.35831 -0.00403107 0)
(7.35966 -0.00455477 0)
(7.361 -0.00511323 0)
(7.36233 -0.00570848 0)
(7.36364 -0.00634242 0)
(7.36492 -0.00701677 0)
(7.36619 -0.00773291 0)
(7.36742 -0.00849184 0)
(7.36863 -0.00929405 0)
(7.3698 -0.0101398 0)
(7.37094 -0.0110269 0)
(7.33302 1.8292e-05 0)
(7.33321 5.50704e-05 0)
(7.33359 7.97781e-05 0)
(7.33417 6.70836e-05 0)
(7.33489 1.61772e-05 0)
(7.33576 -7.06367e-05 0)
(7.33674 -0.000191536 0)
(7.33782 -0.000343983 0)
(7.33897 -0.000525244 0)
(7.3402 -0.000732665 0)
(7.34147 -0.000963959 0)
(7.34277 -0.00121738 0)
(7.34411 -0.00149174 0)
(7.34546 -0.0017864 0)
(7.34683 -0.00210119 0)
(7.3482 -0.00243634 0)
(7.34958 -0.00279246 0)
(7.35095 -0.00317043 0)
(7.35231 -0.00357137 0)
(7.35367 -0.00399658 0)
(7.35502 -0.00444755 0)
(7.35636 -0.00492587 0)
(7.35768 -0.00543323 0)
(7.35899 -0.00597138 0)
(7.36028 -0.00654205 0)
(7.36155 -0.00714691 0)
(7.36279 -0.00778749 0)
(7.36401 -0.00846511 0)
(7.36521 -0.00918079 0)
(7.36637 -0.00993522 0)
(7.36751 -0.0107286 0)
(7.36861 -0.0115612 0)
(7.36967 -0.0124309 0)
(7.33302 -4.95283e-05 0)
(7.3332 -0.000146747 0)
(7.33357 -0.000251914 0)
(7.33412 -0.000388827 0)
(7.33483 -0.000556285 0)
(7.33567 -0.000750098 0)
(7.33663 -0.000967502 0)
(7.33768 -0.00120591 0)
(7.33882 -0.00146304 0)
(7.34002 -0.00173694 0)
(7.34127 -0.00202624 0)
(7.34255 -0.00233023 0)
(7.34387 -0.00264872 0)
(7.3452 -0.002982 0)
(7.34654 -0.00333073 0)
(7.34789 -0.00369587 0)
(7.34923 -0.00407861 0)
(7.35057 -0.00448031 0)
(7.35191 -0.00490245 0)
(7.35323 -0.00534657 0)
(7.35454 -0.00581428 0)
(7.35584 -0.0063072 0)
(7.35712 -0.00682695 0)
(7.35838 -0.00737514 0)
(7.35961 -0.00795327 0)
(7.36083 -0.00856275 0)
(7.36201 -0.00920484 0)
(7.36317 -0.00988055 0)
(7.3643 -0.0105907 0)
(7.3654 -0.0113356 0)
(7.36646 -0.0121156 0)
(7.36749 -0.0129306 0)
(7.36848 -0.0137787 0)
(7.33302 -0.000116225 0)
(7.33319 -0.000345717 0)
(7.33355 -0.000580655 0)
(7.33408 -0.000843455 0)
(7.33477 -0.00113016 0)
(7.33559 -0.00143386 0)
(7.33653 -0.00175046 0)
(7.33757 -0.00207722 0)
(7.33869 -0.0024122 0)
(7.33988 -0.0027541 0)
(7.34111 -0.0031024 0)
(7.34238 -0.00345739 0)
(7.34367 -0.00381986 0)
(7.34498 -0.00419102 0)
(7.3463 -0.00457234 0)
(7.34763 -0.00496554 0)
(7.34895 -0.0053724 0)
(7.35026 -0.0057948 0)
(7.35156 -0.00623458 0)
(7.35285 -0.00669358 0)
(7.35413 -0.00717354 0)
(7.35538 -0.00767618 0)
(7.35662 -0.00820309 0)
(7.35783 -0.00875579 0)
(7.35902 -0.00933564 0)
(7.36018 -0.00994388 0)
(7.36131 -0.0105815 0)
(7.36241 -0.0112495 0)
(7.36348 -0.0119483 0)
(7.36451 -0.0126783 0)
(7.36551 -0.0134396 0)
(7.36647 -0.0142322 0)
(7.36738 -0.0150545 0)
(7.33302 -0.000181486 0)
(7.33318 -0.000541221 0)
(7.33352 -0.000906488 0)
(7.33404 -0.00129832 0)
(7.33471 -0.0017085 0)
(7.33552 -0.0021261 0)
(7.33645 -0.00254529 0)
(7.33748 -0.00296307 0)
(7.33859 -0.00337778 0)
(7.33977 -0.00378881 0)
(7.34099 -0.00419679 0)
(7.34225 -0.00460317 0)
(7.34353 -0.00500989 0)
(7.34482 -0.00541909 0)
(7.34613 -0.00583307 0)
(7.34743 -0.0062542 0)
(7.34873 -0.00668483 0)
(7.35001 -0.00712726 0)
(7.35129 -0.00758364 0)
(7.35255 -0.00805603 0)
(7.35379 -0.00854634 0)
(7.355 -0.00905632 0)
(7.3562 -0.00958759 0)
(7.35736 -0.0101416 0)
(7.3585 -0.0107196 0)
(7.35961 -0.0113228 0)
(7.36069 -0.011952 0)
(7.36173 -0.012608 0)
(7.36274 -0.0132912 0)
(7.36371 -0.014002 0)
(7.36465 -0.0147404 0)
(7.36554 -0.0155063 0)
(7.36639 -0.0162983 0)
(7.33302 -0.000244428 0)
(7.33317 -0.000731294 0)
(7.33349 -0.00122835 0)
(7.33398 -0.00175468 0)
(7.33464 -0.00229464 0)
(7.33545 -0.00283153 0)
(7.33638 -0.00335782 0)
(7.33741 -0.00387029 0)
(7.33852 -0.00436703 0)
(7.33969 -0.0048477 0)
(7.34091 -0.00531385 0)
(7.34216 -0.00576826 0)
(7.34343 -0.00621423 0)
(7.34472 -0.00665521 0)
(7.34601 -0.00709465 0)
(7.34729 -0.00753593 0)
(7.34857 -0.00798219 0)
(7.34983 -0.00843634 0)
(7.35108 -0.00890103 0)
(7.35231 -0.00937861 0)
(7.35351 -0.00987122 0)
(7.35469 -0.0103807 0)
(7.35585 -0.0109088 0)
(7.35697 -0.0114568 0)
(7.35807 -0.012026 0)
(7.35913 -0.0126174 0)
(7.36016 -0.0132318 0)
(7.36115 -0.0138699 0)
(7.3621 -0.014532 0)
(7.36301 -0.0152185 0)
(7.36389 -0.0159293 0)
(7.36472 -0.0166647 0)
(7.36552 -0.0174233 0)
(7.33301 -0.000303011 0)
(7.33315 -0.000911315 0)
(7.33344 -0.00154319 0)
(7.33391 -0.0022137 0)
(7.33456 -0.00289316 0)
(7.33537 -0.00355589 0)
(7.33631 -0.0041934 0)
(7.33734 -0.00480401 0)
(7.33846 -0.00538722 0)
(7.33964 -0.00594394 0)
(7.34087 -0.00647691 0)
(7.34213 -0.00698973 0)
(7.3434 -0.00748628 0)
(7.34468 -0.0079705 0)
(7.34596 -0.00844638 0)
(7.34723 -0.00891774 0)
(7.34849 -0.0093882 0)
(7.34973 -0.00986107 0)
(7.35095 -0.0103393 0)
(7.35215 -0.0108258 0)
(7.35333 -0.0113227 0)
(7.35448 -0.0118322 0)
(7.35559 -0.0123561 0)
(7.35668 -0.012896 0)
(7.35773 -0.0134532 0)
(7.35874 -0.0140287 0)
(7.35972 -0.0146235 0)
(7.36066 -0.0152382 0)
(7.36156 -0.0158732 0)
(7.36242 -0.0165289 0)
(7.36324 -0.0172053 0)
(7.36401 -0.0179024 0)
(7.36474 -0.0186189 0)
(7.33301 -0.000352809 0)
(7.33312 -0.00107175 0)
(7.33336 -0.00184395 0)
(7.33381 -0.00267446 0)
(7.33445 -0.00351029 0)
(7.33527 -0.00431285 0)
(7.33622 -0.0050687 0)
(7.33727 -0.00577283 0)
(7.33841 -0.00642449 0)
(7.3396 -0.00702835 0)
(7.34084 -0.00759236 0)
(7.3421 -0.00812471 0)
(7.34337 -0.00863274 0)
(7.34465 -0.00912299 0)
(7.34592 -0.00960128 0)
(7.34719 -0.0100727 0)
(7.34843 -0.0105415 0)
(7.34966 -0.0110114 0)
(7.35087 -0.0114856 0)
(7.35204 -0.0119667 0)
(7.35319 -0.0124569 0)
(7.35431 -0.0129583 0)
(7.35539 -0.0134723 0)
(7.35644 -0.0140003 0)
(7.35745 -0.0145434 0)
(7.35843 -0.0151024 0)
(7.35936 -0.0156782 0)
(7.36026 -0.0162711 0)
(7.36111 -0.0168816 0)
(7.36192 -0.0175099 0)
(7.36269 -0.0181562 0)
(7.36342 -0.0188208 0)
(7.3641 -0.019503 0)
(7.33301 -0.00038339 0)
(7.33305 -0.00119472 0)
(7.33322 -0.00212321 0)
(7.33362 -0.00313305 0)
(7.33427 -0.00413349 0)
(7.33511 -0.00509272 0)
(7.3361 -0.00601114 0)
(7.3372 -0.00688109 0)
(7.33839 -0.00769168 0)
(7.33962 -0.00844007 0)
(7.34088 -0.00913045 0)
(7.34216 -0.00976942 0)
(7.34345 -0.0103642 0)
(7.34473 -0.0109222 0)
(7.346 -0.0114509 0)
(7.34725 -0.0119572 0)
(7.34848 -0.0124474 0)
(7.34968 -0.0129268 0)
(7.35086 -0.0134004 0)
(7.35201 -0.0138722 0)
(7.35313 -0.0143456 0)
(7.35421 -0.0148235 0)
(7.35525 -0.0153084 0)
(7.35626 -0.0158022 0)
(7.35723 -0.0163066 0)
(7.35817 -0.0168228 0)
(7.35906 -0.0173519 0)
(7.3599 -0.0178946 0)
(7.36071 -0.0184516 0)
(7.36147 -0.0190232 0)
(7.36219 -0.0196094 0)
(7.36286 -0.0202102 0)
(7.36349 -0.0208246 0)
(7.33299 -0.000368568 0)
(7.33292 -0.00123131 0)
(7.33296 -0.00237688 0)
(7.33331 -0.00364727 0)
(7.33395 -0.00481706 0)
(7.3348 -0.00582446 0)
(7.33579 -0.00669965 0)
(7.33689 -0.00747494 0)
(7.3381 -0.00817298 0)
(7.33936 -0.0088135 0)
(7.34066 -0.00941243 0)
(7.34198 -0.00998088 0)
(7.34329 -0.0105267 0)
(7.3446 -0.0110557 0)
(7.34589 -0.0115727 0)
(7.34716 -0.0120813 0)
(7.3484 -0.0125843 0)
(7.34961 -0.0130844 0)
(7.35079 -0.0135836 0)
(7.35193 -0.0140838 0)
(7.35303 -0.0145868 0)
(7.3541 -0.0150939 0)
(7.35513 -0.0156064 0)
(7.35611 -0.0161254 0)
(7.35706 -0.0166519 0)
(7.35796 -0.0171866 0)
(7.35882 -0.0177302 0)
(7.35964 -0.0182832 0)
(7.36041 -0.0188461 0)
(7.36114 -0.0194194 0)
(7.36183 -0.0200034 0)
(7.36247 -0.0205986 0)
(7.36307 -0.021205 0)
(7.33295 -0.000264161 0)
(7.3326 -0.00107203 0)
(7.33236 -0.00242138 0)
(7.33269 -0.00412507 0)
(7.33351 -0.00593922 0)
(7.33457 -0.00771164 0)
(7.33572 -0.00932945 0)
(7.33694 -0.0107297 0)
(7.3382 -0.0119101 0)
(7.33947 -0.0128997 0)
(7.34075 -0.013731 0)
(7.34204 -0.0144332 0)
(7.34331 -0.0150329 0)
(7.34457 -0.0155538 0)
(7.34581 -0.0160159 0)
(7.34703 -0.0164351 0)
(7.34823 -0.016824 0)
(7.3494 -0.0171928 0)
(7.35054 -0.0175495 0)
(7.35166 -0.0179002 0)
(7.35274 -0.0182498 0)
(7.35378 -0.018602 0)
(7.35479 -0.0189597 0)
(7.35576 -0.0193251 0)
(7.35669 -0.0196998 0)
(7.35758 -0.020085 0)
(7.35843 -0.0204816 0)
(7.35924 -0.0208901 0)
(7.36001 -0.0213109 0)
(7.36073 -0.0217441 0)
(7.3614 -0.0221896 0)
(7.36203 -0.0226472 0)
(7.36261 -0.0231159 0)
(7.33289 7.63327e-05 0)
(7.33205 -0.00101436 0)
(7.3312 -0.00239423 0)
(7.331 -0.00313218 0)
(7.33144 -0.00347831 0)
(7.33232 -0.00389107 0)
(7.33352 -0.0044813 0)
(7.33493 -0.00518646 0)
(7.33643 -0.00595939 0)
(7.33796 -0.00678052 0)
(7.33949 -0.00763076 0)
(7.341 -0.00848974 0)
(7.34248 -0.00934213 0)
(7.34393 -0.0101785 0)
(7.34534 -0.0109933 0)
(7.34671 -0.0117835 0)
(7.34804 -0.0125479 0)
(7.34934 -0.0132869 0)
(7.35059 -0.0140018 0)
(7.35181 -0.0146942 0)
(7.35299 -0.0153663 0)
(7.35414 -0.0160202 0)
(7.35524 -0.0166581 0)
(7.3563 -0.0172821 0)
(7.35732 -0.0178941 0)
(7.3583 -0.018496 0)
(7.35923 -0.0190894 0)
(7.36012 -0.0196758 0)
(7.36097 -0.0202567 0)
(7.36177 -0.0208332 0)
(7.36254 -0.0214065 0)
(7.36326 -0.0219777 0)
(7.36394 -0.0225474 0)
(7.33241 0.00203757 0)
(7.33044 -0.000680007 0)
(7.33026 -0.00744235 0)
(7.33131 -0.0139254 0)
(7.33224 -0.0186707 0)
(7.33291 -0.0218786 0)
(7.33366 -0.0239655 0)
(7.33463 -0.0252361 0)
(7.33577 -0.0259282 0)
(7.33703 -0.0262312 0)
(7.33838 -0.0262844 0)
(7.33983 -0.0261854 0)
(7.34134 -0.0260016 0)
(7.34291 -0.0257788 0)
(7.3445 -0.0255469 0)
(7.34612 -0.0253254 0)
(7.34773 -0.0251264 0)
(7.34935 -0.0249571 0)
(7.35095 -0.0248214 0)
(7.35252 -0.0247211 0)
(7.35407 -0.0246562 0)
(7.35558 -0.0246263 0)
(7.35705 -0.0246301 0)
(7.35848 -0.0246661 0)
(7.35986 -0.0247325 0)
(7.3612 -0.0248278 0)
(7.36248 -0.02495 0)
(7.36371 -0.0250976 0)
(7.36488 -0.0252689 0)
(7.366 -0.0254625 0)
(7.36706 -0.0256772 0)
(7.36807 -0.0259121 0)
(7.369 -0.0261661 0)
(7.32877 0.00625789 0)
(7.31723 0.0178873 0)
(7.31237 0.025055 0)
(7.31386 0.0270674 0)
(7.31764 0.0257167 0)
(7.32175 0.0228604 0)
(7.3259 0.019456 0)
(7.33004 0.0158616 0)
(7.3341 0.0122604 0)
(7.33802 0.00879134 0)
(7.34179 0.00553948 0)
(7.34542 0.00253709 0)
(7.34892 -0.000213136 0)
(7.35228 -0.00272061 0)
(7.35552 -0.00500038 0)
(7.35865 -0.00707087 0)
(7.36165 -0.00895179 0)
(7.36453 -0.0106626 0)
(7.36731 -0.0122216 0)
(7.36997 -0.0136456 0)
(7.37253 -0.01495 0)
(7.37498 -0.0161484 0)
(7.37732 -0.0172531 0)
(7.37956 -0.0182749 0)
(7.38169 -0.0192235 0)
(7.38373 -0.0201072 0)
(7.38567 -0.0209337 0)
(7.38751 -0.0217093 0)
(7.38926 -0.0224399 0)
(7.39092 -0.0231303 0)
(7.39248 -0.0237848 0)
(7.39397 -0.0244065 0)
(7.39536 -0.0249988 0)
(7.33378 -0.0333103 0)
(7.33299 -0.0723425 0)
(7.32808 -0.085742 0)
(7.32651 -0.0872088 0)
(7.33007 -0.0848491 0)
(7.33728 -0.0809136 0)
(7.34623 -0.0761044 0)
(7.35571 -0.0710779 0)
(7.36518 -0.0662903 0)
(7.37438 -0.061914 0)
(7.38316 -0.0579774 0)
(7.39142 -0.0544714 0)
(7.39912 -0.0513739 0)
(7.40625 -0.0486518 0)
(7.41284 -0.0462663 0)
(7.4189 -0.0441791 0)
(7.42447 -0.0423552 0)
(7.42957 -0.0407629 0)
(7.43423 -0.0393741 0)
(7.43848 -0.0381639 0)
(7.44235 -0.0371108 0)
(7.44586 -0.0361959 0)
(7.44904 -0.0354029 0)
(7.45191 -0.0347175 0)
(7.45449 -0.0341273 0)
(7.4568 -0.0336217 0)
(7.45885 -0.0331913 0)
(7.46067 -0.0328279 0)
(7.46227 -0.0325244 0)
(7.46366 -0.0322745 0)
(7.46486 -0.032073 0)
(7.46587 -0.0319158 0)
(7.46672 -0.0317971 0)
(7.33141 0.164993 0)