/*--------------------------------*- C++ -*----------------------------------*\
  =========                 |
  \\      /  F ield         | OpenFOAM: The Open Source CFD Toolbox
   \\    /   O peration     | Website:  https://openfoam.org
    \\  /    A nd           | Version:  10
     \\/     M anipulation  |
\*---------------------------------------------------------------------------*/
FoamFile
{
    format      ascii;
    class       volScalarField;
    location    "1200";
    object      yPlus;
}
// * * * * * * * * * * * * * * * * * * * * * * * * * * * * * * * * * * * * * //

dimensions      [0 0 0 0 0 0 0];

internalField   uniform 0;

boundaryField
{
    outlet
    {
        type            calculated;
        value           uniform 0;
    }
    inlet
    {
        type            calculated;
        value           uniform 0;
    }
    lowerWall
    {
        type            calculated;
        value           nonuniform List<scalar> 
148
(
9.9937
9.87583
9.76655
9.65577
9.54325
9.43227
9.32599
9.22676
9.13583
9.05372
8.98048
8.9158
8.85925
8.81022
8.76814
8.73236
8.70232
8.67745
8.65723
8.64118
8.62886
8.61981
8.61376
8.61029
8.60914
8.61008
8.61252
8.61784
8.62117
8.63006
8.6256
8.89962
6.13354
4.80522
6.87995
8.5842
9.8407
10.7544
11.3376
11.5149
11.6853
11.2237
11.492
11.6101
11.6488
11.2767
12.5017
20.419
4.80522
11.4136
11.5306
11.6674
11.743
11.6944
11.5807
11.5051
11.5749
11.8089
12.3158
13.53
16.0487
19.3431
22.798
26.1732
29.3892
32.4243
35.2804
37.9684
40.5021
42.8954
45.1608
47.3099
49.3531
51.3
53.1587
54.9364
56.6386
58.2702
59.834
61.332
62.7649
64.1329
65.4355
66.6724
67.8447
68.9557
70.0128
71.0239
71.9741
72.8715
73.7185
74.5162
75.2652
75.9654
76.6164
77.2173
77.7665
78.2623
78.7021
79.0831
79.4019
79.655
79.8386
79.9494
79.9842
79.9403
79.8167
79.6129
79.3301
78.971
78.5396
78.0411
77.4824
76.8709
76.2148
75.5227
74.807
74.0956
73.4984
73.0544
72.6567
72.274
71.8986
71.5273
71.1557
70.7779
70.387
69.9757
69.5372
69.0663
68.5595
68.0162
67.4392
66.8342
66.21
65.577
64.9471
64.3326
63.746
63.1998
62.7048
62.2671
61.8857
61.5501
61.2455
60.9409
60.6741
60.1826
)
;
    }
    upperWall
    {
        type            calculated;
        value           nonuniform List<scalar> 
133
(
30.6045
31.4255
32.2163
32.9719
33.693
34.3806
35.0365
35.6619
36.2577
36.8253
37.3656
37.8796
38.3684
38.8331
39.2746
39.6939
40.0919
40.4697
40.8282
41.1681
41.4904
41.796
42.0856
42.3601
42.6201
42.8665
43.0998
43.3207
43.53
43.7281
43.9157
44.0933
44.2616
44.4464
44.6484
44.8436
45.0316
45.2122
45.3854
45.551
45.7089
45.8589
46.0009
46.1349
46.2607
46.3783
46.4875
46.5882
46.6804
46.7639
46.8386
46.9046
46.9616
47.0096
47.0484
47.0781
47.0984
47.1092
47.1106
47.1021
47.0838
47.0555
47.0172
46.9685
46.9092
46.8394
46.7587
46.6669
46.564
46.4497
46.3238
46.1861
46.0365
45.8749
45.7011
45.5151
45.3166
45.1059
44.8828
44.6474
44.4
44.1407
43.87
43.5883
43.2961
42.9942
42.6836
42.3652
42.0404
41.7106
41.3775
41.043
40.7092
40.3783
40.0526
39.7347
39.4271
39.1323
38.8528
38.5907
38.3479
38.1261
37.9264
37.7494
37.595
37.4629
37.3516
37.2599
37.1853
37.1252
37.0772
37.0381
37.0049
36.9748
36.9453
36.914
36.8789
36.8385
36.7918
36.7378
36.6765
36.6077
36.5316
36.4485
36.3594
36.2649
36.1656
36.0622
35.955
35.8466
35.7303
35.6344
35.4513
)
;
    }
    frontAndBack
    {
        type            empty;
    }
}


// ************************************************************************* //
