/*--------------------------------*- C++ -*----------------------------------*\
  =========                 |
  \\      /  F ield         | OpenFOAM: The Open Source CFD Toolbox
   \\    /   O peration     | Website:  https://openfoam.org
    \\  /    A nd           | Version:  10
     \\/     M anipulation  |
\*---------------------------------------------------------------------------*/
FoamFile
{
    format      ascii;
    class       volScalarField;
    location    "900";
    object      omega;
}
// * * * * * * * * * * * * * * * * * * * * * * * * * * * * * * * * * * * * * //

dimensions      [0 0 -1 0 0 0 0];

internalField   nonuniform List<scalar> 
6820
(
6119.65
8495.53
9975.17
10745.8
11095.1
11205.2
11181.5
11085.3
10953.1
10806.8
10658.4
10514.8
10379.1
10252.8
10136.1
10028.7
9930.08
9839.51
9756.26
9679.64
9608.98
9543.69
9483.25
9427.16
9375.01
9326.4
9280.98
9238.47
9198.43
9161.24
9122.87
9103.57
9007.86
563.863
1593.66
2119
2485.29
2810.04
3047.21
3202.64
3297.98
3354.17
3382.65
3395.36
3394.5
3390.56
3382.3
3371.9
3361.06
3350.53
3340.71
3331.86
3324.04
3317.32
3311.61
3306.91
3303.08
3300.14
3297.93
3296.47
3295.75
3295.92
3296.77
3298.45
3302.57
3315.67
97.8512
383.672
612.514
783.212
925.913
1044.15
1139.72
1215.41
1275.18
1321.46
1357.38
1384.54
1405.16
1420.61
1432.05
1440.37
1446.35
1450.52
1453.37
1455.22
1456.39
1457.03
1457.37
1457.5
1457.54
1457.57
1457.64
1457.83
1458.15
1458.64
1459.55
1460.65
1463.01
35.0872
109.689
194.406
270.891
340.03
401.751
456.059
503.312
544.328
579.676
610.093
636.129
658.406
677.424
693.681
707.537
719.396
729.497
738.175
745.563
751.954
757.387
762.146
766.173
769.78
772.798
775.614
777.918
780.218
782.045
784.063
785.628
787.635
22.8645
46.9745
78.9736
111.645
143.697
174.308
202.955
229.406
253.676
275.804
295.908
314.101
330.539
345.356
358.716
370.737
381.575
391.322
400.123
408.039
415.21
421.659
427.53
432.81
437.649
441.998
446.023
449.635
453.023
456.066
458.967
461.59
464.149
19.4482
28.8211
42.7198
57.8276
73.3612
88.8416
103.932
118.422
132.214
145.248
157.503
168.976
179.69
189.667
198.948
207.564
215.565
222.981
229.865
236.24
242.162
247.646
252.748
257.474
261.88
265.965
269.786
273.333
276.664
279.764
282.691
285.427
288.028
18.2937
22.3026
29.0894
36.8342
45.0409
53.4276
61.8037
70.042
78.0649
85.8189
93.2711
100.401
107.199
113.664
119.8
125.611
131.112
136.309
141.22
145.855
150.231
154.358
158.255
161.93
165.402
168.678
171.776
174.701
177.472
180.092
182.581
184.94
187.187
17.8628
19.6407
23.1435
27.4253
32.1054
36.9869
41.946
46.901
51.7981
56.5996
61.2795
65.8192
70.2077
74.4371
78.5045
82.408
86.1494
89.7301
93.1547
96.4264
99.5513
102.534
105.38
108.095
110.686
113.156
115.515
117.764
119.913
121.965
123.926
125.801
127.595
17.6921
18.5022
20.2904
22.7591
25.5623
28.5575
31.6531
34.789
37.925
41.0328
44.0924
47.0892
50.0134
52.8576
55.6175
58.2898
60.8734
63.3674
65.7727
68.09
70.321
72.4674
74.5318
76.5161
78.4234
80.256
82.017
83.7089
85.3348
86.8973
88.3993
89.8433
91.2321
17.6213
17.9912
18.8824
20.3079
22.0195
23.9107
25.9093
27.9667
30.05
32.1359
34.208
36.254
38.2654
40.2358
42.1608
44.037
45.8624
47.6357
49.3561
51.0236
52.6384
54.2009
55.712
57.1727
58.5841
59.9474
61.264
62.5353
63.7627
64.9477
66.0918
67.1963
68.2627
17.591
17.7573
18.1874
18.9891
20.029
21.2312
22.54
23.916
25.3312
26.7655
28.2045
29.6375
31.0565
32.4559
33.8312
35.1794
36.498
37.7854
39.0407
40.263
41.452
42.6077
43.7302
44.8198
45.8768
46.902
47.8959
48.8591
49.7925
50.6968
51.5728
52.4212
53.2428
17.5777
17.6499
17.8528
18.2782
18.8974
19.6531
20.5077
21.4311
22.4002
23.3977
24.4109
25.43
26.4478
27.4588
28.4588
29.4446
30.4138
31.3647
32.296
33.2067
34.0961
34.9639
35.8098
36.6339
37.436
38.2165
38.9756
39.7135
40.4307
41.1274
41.8042
42.4614
43.0995
17.5717
17.6008
17.6934
17.9051
18.2597
18.7223
19.2706
19.8837
20.5439
21.2371
21.9523
22.6808
23.416
24.1527
24.8868
25.6153
26.3357
27.0462
27.7452
28.4318
29.105
29.7643
30.4092
31.0396
31.6551
32.2558
32.8416
33.4127
33.9692
34.5112
35.0389
35.5526
36.0523
17.5685
17.5785
17.6181
17.7167
17.9085
18.1807
18.5221
18.92
19.3623
19.8384
20.3392
20.8575
21.3874
21.9242
22.4641
23.0041
23.5418
24.0753
24.6031
25.124
25.6371
26.1416
26.6369
27.1227
27.5987
28.0645
28.5202
28.9656
29.4007
29.8255
30.24
30.6444
31.0387
17.5667
17.5684
17.5829
17.6262
17.7205
17.8733
18.0775
18.3273
18.6156
18.9354
19.2799
19.6435
20.0213
20.4092
20.8038
21.2024
21.6026
22.0027
22.4011
22.7965
23.1881
23.5749
23.9563
24.3318
24.7011
25.0637
25.4195
25.7683
26.11
26.4444
26.7716
27.0915
27.4042
17.5661
17.5629
17.5666
17.5833
17.6249
17.7047
17.8205
17.9706
18.1518
18.3599
18.5907
18.8401
19.1043
19.38
19.6645
19.9553
20.2503
20.5479
20.8466
21.1452
21.4427
21.7383
22.0312
22.321
22.6071
22.8892
23.167
23.4402
23.7087
23.9723
24.2309
24.4843
24.7326
17.5661
17.5601
17.5585
17.5631
17.5791
17.6155
17.6769
17.7623
17.8709
18.001
18.1502
18.3159
18.4957
18.6871
18.8878
19.096
19.31
19.5281
19.7492
19.9721
20.1959
20.4197
20.643
20.865
21.0854
21.3038
21.5197
21.7329
21.9431
22.1503
22.3541
22.5545
22.7515
17.5661
17.5591
17.5541
17.5533
17.5575
17.5711
17.5997
17.6448
17.7061
17.7833
17.8755
17.9813
18.0994
18.228
18.3657
18.511
18.6625
18.8191
18.9796
19.1431
19.3088
19.476
19.6439
19.8121
19.98
20.1473
20.3136
20.4787
20.6422
20.8039
20.9636
21.1213
21.2767
17.5662
17.5588
17.5523
17.5479
17.5469
17.5501
17.5603
17.5811
17.6128
17.6556
17.7093
17.7736
17.8477
17.9307
18.0218
18.1198
18.224
18.3333
18.4469
18.5641
18.6842
18.8066
18.9306
19.0559
19.1819
19.3083
19.4348
19.561
19.6867
19.8117
19.9357
20.0587
20.1804
17.5662
17.5587
17.5517
17.5456
17.5413
17.5397
17.5415
17.5482
17.5621
17.5834
17.6122
17.6487
17.6926
17.7435
17.801
17.8645
17.9334
18.0072
18.0851
18.1667
18.2515
18.3389
18.4285
18.5198
18.6126
18.7064
18.801
18.8961
18.9915
19.0869
19.1821
19.277
19.3714
17.5662
17.5587
17.5515
17.5447
17.5388
17.5344
17.5319
17.5324
17.5359
17.5442
17.5577
17.5764
17.6003
17.6295
17.6637
17.7028
17.7463
17.794
17.8455
17.9005
17.9585
18.0192
18.0822
18.1473
18.2142
18.2825
18.3521
18.4226
18.4938
18.5657
18.6379
18.7104
18.7829
17.5662
17.5587
17.5514
17.5444
17.5378
17.532
17.5272
17.5241
17.5231
17.5243
17.5283
17.5362
17.5475
17.5627
17.5815
17.604
17.63
17.6595
17.6921
17.7278
17.7663
17.8073
17.8507
17.8961
17.9434
17.9923
18.0428
18.0944
18.1472
18.2009
18.2553
18.3103
18.3659
17.5662
17.5587
17.5514
17.5442
17.5374
17.531
17.5251
17.5202
17.5164
17.5141
17.5138
17.5151
17.5189
17.5255
17.5347
17.5466
17.5613
17.5787
17.5987
17.6213
17.6464
17.6737
17.7032
17.7347
17.7681
17.8031
17.8398
17.8778
17.917
17.9574
17.9988
18.0411
18.084
17.5662
17.5587
17.5514
17.5442
17.5372
17.5306
17.5243
17.5185
17.5135
17.5094
17.5065
17.505
17.5052
17.5068
17.5105
17.5164
17.5245
17.5348
17.5473
17.5619
17.5787
17.5975
17.6184
17.6411
17.6656
17.6917
17.7195
17.7486
17.7791
17.8108
17.8436
17.8775
17.9121
17.5662
17.5587
17.5513
17.5442
17.5372
17.5304
17.524
17.518
17.5126
17.5078
17.5041
17.5014
17.5002
17.5004
17.5018
17.5051
17.5104
17.5177
17.5269
17.5381
17.5511
17.5661
17.583
17.6016
17.622
17.644
17.6675
17.6924
17.7187
17.7462
17.7749
17.8046
17.8352
17.5662
17.5587
17.5513
17.5442
17.5372
17.5305
17.5242
17.5183
17.5132
17.5088
17.5055
17.5034
17.5028
17.5035
17.5056
17.5097
17.5158
17.5238
17.5337
17.5456
17.5594
17.575
17.5925
17.6117
17.6326
17.6551
17.6791
17.7045
17.7311
17.759
17.788
17.8181
17.849
17.5662
17.5587
17.5513
17.5442
17.5374
17.5309
17.5251
17.52
17.5159
17.5131
17.5117
17.5122
17.5141
17.5183
17.5246
17.5331
17.5437
17.5566
17.5716
17.5888
17.608
17.6292
17.6522
17.677
17.7035
17.7316
17.7611
17.7919
17.824
17.8572
17.8913
17.9264
17.9624
17.5662
17.5587
17.5514
17.5444
17.5379
17.5322
17.5276
17.5243
17.523
17.5238
17.5267
17.5327
17.5416
17.5534
17.5681
17.5857
17.6061
17.6292
17.6549
17.6831
17.7135
17.7461
17.7806
17.817
17.855
17.8944
17.9353
17.9773
18.0204
18.0644
18.1093
18.1548
18.201
17.5662
17.5587
17.5516
17.5451
17.5396
17.5357
17.5342
17.5354
17.5395
17.5482
17.5612
17.5785
17.6003
17.6263
17.6565
17.6905
17.7282
17.7692
17.8134
17.8603
17.9097
17.9613
18.015
18.0703
18.1272
18.1853
18.2446
18.3048
18.3657
18.4273
18.4893
18.5516
18.6142
17.5662
17.5589
17.5522
17.5473
17.5446
17.5455
17.5504
17.5615
17.5798
17.605
17.6371
17.6761
17.7215
17.7729
17.8299
17.8918
17.9581
18.0284
18.102
18.1786
18.2577
18.3389
18.4218
18.506
18.5914
18.6776
18.7644
18.8516
18.939
19.0265
19.1138
19.2008
19.2875
17.5662
17.5594
17.5546
17.5542
17.558
17.5696
17.5932
17.6282
17.6749
17.7329
17.8016
17.8801
17.9674
18.0624
18.164
18.2714
18.3835
18.4996
18.6189
18.7408
18.8645
18.9897
19.1159
19.2426
19.3696
19.4965
19.6231
19.7491
19.8744
19.9987
20.122
20.2442
20.3651
17.5663
17.5617
17.563
17.5718
17.595
17.6401
17.7055
17.7911
17.8954
18.0165
18.1523
18.3006
18.4593
18.6266
18.8007
18.9802
19.1638
19.3502
19.5387
19.7283
19.9185
20.1085
20.2979
20.4864
20.6735
20.859
21.0426
21.2241
21.4034
21.5803
21.7548
21.9268
22.0961
17.5672
17.57
17.5859
17.6276
17.7109
17.8336
17.9919
18.1815
18.3976
18.6351
18.8897
19.1574
19.435
19.7198
20.0094
20.302
20.596
20.8902
21.1836
21.4753
21.7646
22.0511
22.3342
22.6137
22.8892
23.1606
23.4277
23.6903
23.9484
24.2019
24.4508
24.6951
24.9348
17.5716
17.5953
17.6662
17.8177
18.053
18.3543
18.7087
19.1036
19.5285
19.9745
20.4349
20.9044
21.3787
21.8548
22.3301
22.8027
23.2712
23.7345
24.1917
24.6422
25.0854
25.521
25.9488
26.3685
26.7802
27.1836
27.5788
27.9659
28.3448
28.7157
29.0787
29.4338
29.7811
17.5854
17.6974
17.9699
18.4419
19.0443
19.7381
20.4917
21.2821
22.0933
22.9141
23.7366
24.5557
25.3673
26.1688
26.9583
27.7344
28.4962
29.243
29.9745
30.6904
31.3907
32.0753
32.7443
33.3978
34.0361
34.6594
35.2678
35.8618
36.4415
37.0072
37.5593
38.0981
38.6239
17.6522
18.1438
19.1451
20.4574
21.9286
23.4776
25.0548
26.6331
28.1966
29.7371
31.25
32.7322
34.182
35.5983
36.9807
38.3291
39.6436
40.9246
42.1725
43.3878
44.5711
45.723
46.8442
47.9354
48.9974
50.0307
51.0362
52.0146
52.9666
53.893
54.7945
55.6718
56.5255
18.0423
20.3419
23.6954
27.3243
30.967
34.5342
37.9952
41.351
44.6032
47.7618
50.8283
53.8045
56.6925
59.4942
62.2115
64.8462
67.4002
69.8754
72.2738
74.5972
76.8479
79.0277
81.1387
83.183
85.1628
87.0799
88.9366
90.7348
92.4764
94.1636
95.7981
97.3818
98.9167
21.0783
32.2377
43.8847
55.0827
65.2654
74.7229
83.6608
92.2514
100.529
108.499
116.169
123.546
130.634
137.44
143.973
150.24
156.249
162.01
167.532
172.822
177.893
182.751
187.407
191.869
196.147
200.248
204.182
207.956
211.578
215.055
218.394
221.602
224.685
63.2893
131.146
179.994
220.948
253.72
286.903
320.749
353.551
384.645
413.765
440.836
465.898
489.06
510.454
530.221
548.493
565.404
581.067
595.602
609.099
621.661
633.357
644.278
654.474
664.026
672.968
681.374
689.264
696.707
703.708
710.34
716.59
722.536
1672.14
1819.15
1960.96
2086.92
2197.23
2294.25
2379.79
2455.18
2521.53
2579.87
2631.09
2676.01
2715.34
2749.72
2779.71
2805.83
2828.53
2848.19
2865.18
2879.82
2892.37
2903.08
2912.17
2919.82
2926.22
2931.5
2935.79
2939.22
2941.89
2943.89
2945.3
2946.18
2946.62
8815.65
8377.94
7887.04
7367.3
6861.01
6388.15
5953.14
5557.33
5197.79
4870.15
4574.36
4306.77
4064.04
3843.67
3642.93
3459.63
3291.46
3137.02
2994.52
2863.01
2741.39
2628.8
2524.2
2426.79
2335.72
2250.15
2169.47
2093.06
2020.42
1951.02
1884.46
1820.38
1758.03
1697.37
1638.22
1580.37
1523.62
1467.78
1412.78
1358.4
1304.55
1251.21
1198.39
1146.11
1094.42
1043.37
993.049
943.576
895.082
847.713
801.621
756.962
713.891
672.555
633.087
595.601
560.188
526.912
495.811
466.894
440.144
415.519
392.952
372.362
353.651
336.711
321.427
307.68
295.35
284.32
274.472
265.7
257.892
250.96
244.795
239.329
234.459
230.128
226.262
222.793
219.666
216.832
214.24
211.842
209.603
207.486
205.46
203.497
201.578
199.682
197.803
195.912
194.047
192.118
190.269
188.239
186.478
184.187
182.748
179.709
3314.92
3344.49
3425.81
3494.04
3565.38
3641.89
3710.28
3766.9
3790.09
3781.98
3754.3
3694.81
3608.41
3503.88
3386.68
3262.23
3134.32
3007.24
2882.06
2762.09
2647.56
2538.75
2435.13
2336.9
2243.56
2154.66
2070.06
1989.35
1912.19
1838.18
1767
1698.39
1632.01
1567.58
1504.94
1443.88
1384.28
1325.99
1268.92
1212.99
1158.13
1104.31
1051.54
999.844
949.275
899.901
851.805
805.084
759.843
716.195
674.249
634.111
595.877
559.627
525.427
493.32
463.326
435.446
409.655
385.908
364.144
344.284
326.235
309.897
295.164
281.925
270.067
259.484
250.065
241.71
234.317
227.798
222.06
217.032
212.62
208.775
205.403
202.469
199.905
197.653
195.67
193.916
192.345
190.913
189.592
188.35
187.158
185.991
184.833
183.665
182.479
181.257
180.025
178.712
177.43
175.98
174.704
172.998
171.905
169.566
1464.82
1469.91
1482.08
1495.14
1508.51
1526.22
1550.29
1583.11
1625.35
1675.05
1731.55
1790.93
1850.27
1906.91
1956.97
1996.91
2024.49
2037.54
2034.58
2023.41
1998.79
1963.28
1919.12
1870.32
1816.92
1761.06
1704.3
1646.85
1589.2
1531.65
1474.58
1418.16
1362.51
1307.69
1253.75
1200.71
1148.58
1097.38
1047.13
997.852
949.593
902.392
856.304
811.394
767.734
725.406
684.494
645.082
607.253
571.085
536.648
504.002
473.191
444.245
417.177
391.982
368.637
347.105
327.332
309.253
292.789
277.858
264.37
252.232
241.349
231.629
222.979
215.315
208.547
202.602
197.398
192.872
188.95
185.581
182.689
180.244
178.159
176.429
174.981
173.774
172.778
171.96
171.274
170.684
170.172
169.705
169.257
168.807
168.338
167.837
167.29
166.69
166.048
165.315
164.569
163.674
162.859
161.718
160.962
159.303
789.448
792.134
795.863
799.351
801.906
804.338
806.997
810.699
815.67
822.967
832.951
846.722
864.128
886.095
911.606
941.077
972.06
1004.69
1034.93
1063.69
1087.84
1108.83
1122.11
1132.12
1132.03
1128.92
1120.86
1106.17
1086.64
1063.25
1037.03
1008.31
977.684
945.561
912.312
878.255
843.671
808.8
773.858
739.035
704.501
670.413
636.912
604.129
572.186
541.195
511.256
482.462
454.89
428.609
403.672
380.118
357.974
337.25
317.943
300.036
283.501
268.297
254.377
241.685
230.16
219.736
210.348
201.927
194.406
187.722
181.808
176.608
172.06
168.114
164.714
161.818
159.374
157.348
155.68
154.361
153.305
152.544
151.989
151.622
151.425
151.368
151.404
151.508
151.67
151.853
152.037
152.202
152.332
152.414
152.433
152.391
152.283
152.079
151.826
151.444
151.058
150.452
150.017
149.002
466.877
469.974
473.165
476.149
478.581
480.644
482.328
483.874
485.21
486.688
488.269
490.453
493.16
496.966
501.656
507.864
515.153
524.154
534.097
545.42
557.034
569.399
580.974
592.259
601.604
609.359
614.515
618.616
618.867
617.66
614.403
608.126
599.594
588.807
576.048
561.596
545.726
528.695
510.75
492.117
473.008
453.617
434.121
414.683
395.448
376.546
358.093
340.189
322.921
306.361
290.566
275.582
261.439
248.157
235.745
224.199
213.509
203.656
194.617
186.36
178.853
172.059
165.94
160.46
155.578
151.258
147.461
144.156
141.304
138.879
136.841
135.172
133.833
132.805
132.044
131.555
131.257
131.216
131.313
131.566
131.968
132.475
133.062
133.701
134.381
135.074
135.761
136.424
137.044
137.613
138.113
138.544
138.899
139.161
139.345
139.425
139.426
139.312
139.176
138.754
290.879
294.018
297.09
300.017
302.65
305.027
307.121
309.01
310.642
312.128
313.428
314.693
315.867
317.121
318.366
319.786
321.271
323.016
324.894
327.153
329.592
332.422
335.371
338.585
341.71
344.831
347.479
349.854
351.444
352.306
352.135
351.323
349.49
346.602
342.754
337.949
332.223
325.636
318.271
310.223
301.595
292.496
283.035
273.322
263.458
253.541
243.663
233.905
224.34
215.033
206.038
197.402
189.16
181.341
173.966
167.047
160.591
154.599
149.068
143.99
139.354
135.147
131.353
127.958
124.943
122.291
119.984
118.007
116.339
114.97
113.873
113.048
112.462
112.108
111.955
112.016
112.221
112.639
113.188
113.86
114.651
115.536
116.493
117.502
118.545
119.604
120.658
121.692
122.688
123.636
124.518
125.333
126.068
126.72
127.277
127.754
128.106
128.403
128.556
128.652
189.676
192.42
195.095
197.676
200.103
202.375
204.478
206.433
208.22
209.871
211.369
212.757
214.013
215.179
216.219
217.177
218.008
218.763
219.395
219.969
220.442
220.877
221.235
221.556
221.806
222.015
222.117
222.093
221.979
221.716
221.175
220.38
219.282
217.829
216.038
213.886
211.361
208.459
205.186
201.559
197.604
193.353
188.844
184.122
179.233
174.223
169.142
164.034
158.945
153.915
148.982
144.18
139.537
135.079
130.827
126.797
123.002
119.451
116.149
113.101
110.306
107.764
105.472
103.425
101.619
100.048
98.704
97.5827
96.674
95.9786
95.4759
95.1788
95.0542
95.1058
95.2969
95.6895
96.2052
96.8755
97.6699
98.5744
99.5823
100.678
101.847
103.07
104.332
105.617
106.906
108.187
109.44
110.656
111.816
112.921
113.947
114.908
115.763
116.566
117.209
117.861
118.249
118.815
129.598
131.816
133.991
136.109
138.146
140.095
141.947
143.708
145.367
146.933
148.4
149.778
151.058
152.249
153.333
154.319
155.183
155.935
156.553
157.052
157.41
157.653
157.75
157.719
157.605
157.362
157.007
156.537
155.961
155.285
154.496
153.589
152.559
151.394
150.092
148.646
147.052
145.308
143.411
141.364
139.171
136.84
134.383
131.814
129.149
126.409
123.613
120.782
117.939
115.105
112.301
109.547
106.861
104.259
101.758
99.3692
97.1045
94.973
92.9822
91.1379
89.4443
87.9047
86.5207
85.2934
84.2227
83.3082
82.5486
81.9435
81.49
81.1921
81.0342
81.0379
81.1444
81.4082
81.8046
82.3427
82.9958
83.7729
84.6628
85.6548
86.7423
87.9153
89.1623
90.4698
91.8245
93.2128
94.6192
96.0306
97.43
98.8089
100.147
101.445
102.675
103.858
104.935
105.989
106.858
107.8
108.372
109.341
92.79
94.5246
96.2345
97.9135
99.5498
101.138
102.672
104.151
105.571
106.933
108.234
109.474
110.65
111.761
112.798
113.76
114.634
115.42
116.104
116.687
117.157
117.52
117.762
117.895
117.883
117.803
117.611
117.294
116.881
116.367
115.762
115.066
114.283
113.414
112.462
111.428
110.315
109.124
107.858
106.519
105.11
103.635
102.1
100.511
98.8754
97.2016
95.4993
93.7786
92.0504
90.3258
88.616
86.9321
85.2849
83.6846
82.1407
80.6621
79.2568
77.9317
76.6931
75.5462
74.4953
73.5446
72.6964
71.9537
71.3181
70.7909
70.3735
70.0673
69.8743
69.797
69.8234
69.946
70.1953
70.5539
71.0187
71.5968
72.2776
73.0628
73.9486
74.9288
75.9987
77.1517
78.3799
79.6738
81.0228
82.4162
83.8407
85.2857
86.7351
88.182
89.6051
91.0076
92.3557
93.6792
94.9015
96.1306
97.1604
98.3245
99.0301
100.325
69.4634
70.8067
72.1375
73.4521
74.7447
76.0112
77.2481
78.4534
79.6246
80.7604
81.8588
82.9189
83.9376
84.9131
85.8401
86.7156
87.5324
88.2871
88.9716
89.5837
90.1145
90.5651
90.9248
91.2015
91.3771
91.4685
91.4536
91.3811
91.2126
90.9489
90.6102
90.1907
89.6993
89.1377
88.5097
87.8196
87.0708
86.267
85.4122
84.5099
83.564
82.5785
81.5576
80.5061
79.4287
78.331
77.2185
76.0974
74.9739
73.8548
72.7465
71.656
70.5897
69.5542
68.5556
67.5999
66.6926
65.8386
65.0425
64.3085
63.6404
63.0414
62.5139
62.0612
61.6848
61.3869
61.1697
61.036
60.9903
61.0204
61.1258
61.3297
61.6215
62.0018
62.4693
63.0285
63.6762
64.4129
65.2379
66.1485
67.142
68.2145
69.3613
70.576
71.8511
73.1787
74.5482
75.9515
77.3743
78.8113
80.242
81.6712
83.062
84.4499
85.7473
87.0796
88.2071
89.5224
90.3172
91.8541
54.1708
55.2129
56.2496
57.2785
58.2966
59.3012
60.2898
61.2606
62.2118
63.1421
64.0498
64.9337
65.7916
66.6215
67.4202
68.1848
68.9109
69.5952
70.2325
70.82
71.3519
71.8269
72.2382
72.5881
72.8673
73.0827
73.2206
73.2999
73.2926
73.2433
73.1236
72.9284
72.679
72.368
72.002
71.5847
71.1182
70.6067
70.0539
69.4633
68.8385
68.1834
67.502
66.7981
66.0757
65.3392
64.5927
63.8406
63.0875
62.3379
61.5965
60.8678
60.1564
59.4669
58.8034
58.1702
57.571
57.0098
56.4897
56.0139
55.5857
55.2074
54.8808
54.6097
54.3943
54.2375
54.1425
54.1128
54.1393
54.2244
54.3834
54.6106
54.9073
55.2752
55.7144
56.228
56.8159
57.4792
58.2184
59.0331
59.9224
60.8846
61.9171
63.0165
64.1777
65.3957
66.6626
67.9727
69.314
70.6833
72.0613
73.455
74.8261
76.2143
77.5251
78.896
80.0648
81.4635
82.3086
84.0017
43.8219
44.6358
45.4483
46.2578
47.0626
47.8609
48.6509
49.4314
50.2009
50.9583
51.7023
52.4317
53.145
53.8405
54.5161
55.1696
55.798
56.3987
56.9683
57.5042
58.0027
58.4618
58.8772
59.2487
59.5711
59.8466
60.0676
60.2424
60.3571
60.431
60.438
60.4111
60.3389
60.2054
60.0318
59.8154
59.5569
59.2612
58.931
58.5683
58.1766
57.7593
57.3197
56.8609
56.3865
55.8997
55.4041
54.9032
54.4006
53.8999
53.4044
52.9177
52.4433
51.9845
51.5445
51.1265
50.7333
50.3679
50.0326
49.73
49.463
49.2325
49.0406
48.8909
48.7824
48.7193
48.7052
48.7312
48.8042
48.9313
49.11
49.3419
49.6287
49.9722
50.3733
50.8345
51.357
51.9421
52.5912
53.305
54.084
54.928
55.8361
56.8068
57.8374
58.925
60.0643
61.2518
62.478
63.7419
65.0258
66.339
67.6433
68.9815
70.2561
71.6111
72.7735
74.1946
75.0584
76.8248
36.6194
37.2602
37.9017
38.543
39.1829
39.8203
40.454
41.083
41.7062
42.3227
42.9315
43.5317
44.1221
44.7015
45.2683
45.8209
46.3574
46.8757
47.3735
47.8489
48.2991
48.7225
49.1162
49.4791
49.808
50.1033
50.3607
50.583
50.7641
50.9105
51.0138
51.0816
51.1117
51.1018
51.0658
50.9885
50.8759
50.7354
50.5655
50.3675
50.1452
49.9014
49.6381
49.3579
49.0637
48.7583
48.4443
48.1248
47.8026
47.4806
47.1614
46.8481
46.543
46.2493
45.969
45.7049
45.4589
45.2337
45.0307
44.8527
44.7015
44.577
44.4823
44.4204
44.3883
44.394
44.4273
44.5006
44.6109
44.7601
44.9495
45.1804
45.4543
45.7729
46.1376
46.5503
47.0125
47.526
48.0923
48.7127
49.3885
50.1204
50.9086
51.7532
52.6529
53.6066
54.611
55.6648
56.7605
57.8992
59.0653
60.2698
61.4761
62.7286
63.9306
65.2278
66.3464
67.7391
68.5942
70.3636
31.4871
31.995
32.505
33.0163
33.5282
34.0399
34.5505
35.0593
35.5656
36.0685
36.5674
37.0615
37.5499
38.0317
38.5059
38.9711
39.4261
39.8694
40.2994
40.7145
41.113
41.4933
41.8536
42.1926
42.5085
42.8004
43.0662
43.3062
43.5178
43.7025
43.8577
43.9845
44.0837
44.1526
44.1981
44.2117
44.202
44.172
44.114
44.0323
43.9323
43.8149
43.6803
43.5312
43.37
43.1986
43.0194
42.8348
42.647
42.4583
42.2709
42.087
41.9088
41.7388
41.5785
41.4299
41.2949
41.1757
41.0729
40.9898
40.9268
40.8828
40.8634
40.8693
40.894
40.9491
41.0295
41.138
41.275
41.4419
41.6398
41.87
42.1336
42.4322
42.767
43.1397
43.552
44.0053
44.5014
45.0419
45.6281
46.2614
46.9428
47.673
48.4518
49.2797
50.1545
51.0766
52.0404
53.0486
54.0877
55.1701
56.2616
57.4071
58.5131
59.7233
60.7714
62.0974
62.9204
64.6385
27.7604
28.165
28.5724
28.9821
29.3934
29.806
30.2191
30.6322
31.0447
31.4561
31.8658
32.2732
32.6777
33.0785
33.4749
33.866
34.2509
34.6284
34.9975
35.357
35.7057
36.0423
36.3656
36.6745
36.9677
37.2443
37.5029
37.7433
37.964
38.1649
38.3453
38.5046
38.6436
38.7607
38.8586
38.935
38.9916
39.0308
39.0521
39.0513
39.0406
39.0144
38.9728
38.9198
38.8569
38.7853
38.7071
38.6244
38.5384
38.4511
38.3643
38.2798
38.1993
38.1251
38.0576
37.9989
37.9507
37.9147
37.8909
37.8838
37.8902
37.9102
37.9508
38.0105
38.0865
38.1835
38.3008
38.4394
38.6001
38.7837
38.9911
39.2232
39.4812
39.7662
40.0794
40.4221
40.7958
41.202
41.6421
42.1177
42.6304
43.1817
43.7727
44.4048
45.0784
45.7947
46.5527
47.3537
48.1936
49.0764
49.9904
50.949
51.9208
52.95
53.9485
55.0547
56.0159
57.2494
58.0228
59.6497
25.0162
25.3392
25.6655
25.9946
26.326
26.6595
26.9946
27.3308
27.6677
28.0049
28.342
28.6784
29.0138
29.3475
29.6791
30.0079
30.3331
30.6541
30.97
31.28
31.5832
31.8787
32.1655
32.4429
32.7099
32.9657
33.2095
33.4406
33.6582
33.862
34.0515
34.2261
34.3861
34.5306
34.6606
34.7756
34.8759
34.9623
35.036
35.095
35.1432
35.1807
35.2075
35.2251
35.2352
35.2378
35.236
35.2309
35.2225
35.2132
35.2043
35.1972
35.1935
35.1947
35.2004
35.2133
35.235
35.266
35.3067
35.3594
35.424
35.4999
35.5899
35.6948
35.8136
35.9477
36.0977
36.264
36.4472
36.6478
36.8666
37.1043
37.3617
37.6397
37.9393
38.2616
38.6078
38.9791
39.3769
39.8025
40.2575
40.7434
41.2613
41.8128
42.3987
43.0206
43.678
44.3731
45.1028
45.8717
46.67
47.5114
48.3671
49.2806
50.1694
51.1651
52.0319
53.1586
53.8713
55.3811
22.9769
23.2347
23.4959
23.7603
24.0274
24.2971
24.5691
24.8429
25.1183
25.395
25.6725
25.9507
26.229
26.5072
26.7847
27.0612
27.336
27.6088
27.8789
28.1457
28.4085
28.6668
28.9198
29.1668
29.4073
29.6407
29.8662
30.0834
30.2917
30.4907
30.68
30.8593
31.0284
31.1871
31.3355
31.4735
31.6013
31.7191
31.8277
31.9267
32.0173
32.1002
32.1759
32.2451
32.3089
32.3678
32.4233
32.4766
32.5283
32.5797
32.6318
32.6857
32.7425
32.8036
32.8693
32.9407
33.019
33.1051
33.1992
33.3026
33.4157
33.5383
33.6716
33.8164
33.9724
34.1403
34.3203
34.5129
34.7182
34.9369
35.1693
35.4159
35.6774
35.9544
36.2477
36.5581
36.8865
37.234
37.6017
37.9908
38.4026
38.8384
39.2995
39.7873
40.3028
40.8477
41.422
42.0281
42.6636
43.3338
44.0297
44.7656
45.5151
46.32
47.104
47.9907
48.763
49.7783
50.4251
51.804
21.4552
21.6602
21.8686
22.0804
22.2954
22.5132
22.7336
22.9565
23.1815
23.4084
23.637
23.8669
24.098
24.33
24.5624
24.7951
25.0276
25.2595
25.4904
25.72
25.9476
26.173
26.3955
26.6148
26.8303
27.0416
27.2482
27.4497
27.6458
27.8361
28.0202
28.198
28.3693
28.5339
28.6917
28.8429
28.9874
29.1254
29.2573
29.3832
29.5036
29.619
29.7299
29.8368
29.9406
30.0417
30.141
30.2394
30.3376
30.4364
30.5367
30.6393
30.745
30.8547
30.969
31.0886
31.2141
31.3463
31.4855
31.6323
31.7871
31.9502
32.1217
32.3023
32.492
32.6909
32.8994
33.1174
33.345
33.5828
33.8308
34.0896
34.3593
34.6405
34.9337
35.2395
35.5585
35.8917
36.2398
36.6039
36.9851
37.3845
37.8033
38.2428
38.7038
39.1882
39.6961
40.23
40.7881
41.3755
41.9847
42.6294
43.2855
43.9932
44.6819
45.4671
46.15
47.0566
47.6372
48.8822
20.3208
20.4827
20.6482
20.8171
20.9893
21.1646
21.3429
21.5239
21.7074
21.8934
22.0815
22.2716
22.4636
22.6571
22.852
23.048
23.2449
23.4424
23.6402
23.838
24.0355
24.2323
24.4282
24.6227
24.8156
25.0064
25.195
25.381
25.5641
25.7441
25.9208
26.0939
26.2634
26.4291
26.591
26.7492
26.9036
27.0544
27.2018
27.346
27.4874
27.6262
27.7628
27.8978
28.0317
28.1649
28.298
28.4316
28.5663
28.7029
28.8418
28.9838
29.1295
29.2793
29.434
29.5938
29.7594
29.931
30.1089
30.2935
30.4851
30.6839
30.8898
31.1032
31.324
31.5522
31.788
32.031
32.2813
32.5393
32.805
33.0786
33.3602
33.65
33.9483
34.2556
34.5724
34.8992
35.2367
35.5858
35.9472
36.322
36.711
37.1155
37.5363
37.975
38.4318
38.9093
39.4057
39.9264
40.4643
41.0331
41.6102
42.2342
42.8397
43.5343
44.1364
44.9427
45.4604
46.5764
19.4808
19.6077
19.7382
19.8722
20.0095
20.1501
20.2938
20.4404
20.59
20.7422
20.8971
21.0544
21.214
21.3758
21.5396
21.7052
21.8725
22.0413
22.2113
22.3824
22.5544
22.7269
22.8999
23.0731
23.2462
23.419
23.5913
23.763
23.9337
24.1035
24.272
24.4393
24.6052
24.7697
24.9327
25.0944
25.2546
25.4137
25.5716
25.7287
25.8852
26.0412
26.1973
26.3536
26.5107
26.6689
26.8286
26.9904
27.1546
27.3218
27.4925
27.6672
27.8462
28.0299
28.2188
28.4132
28.6134
28.8194
29.0314
29.2496
29.4744
29.7056
29.9433
30.1873
30.4375
30.6939
30.9564
31.2241
31.4977
31.7773
32.0625
32.3535
32.65
32.9522
33.2603
33.5744
33.8949
34.2222
34.5567
34.899
35.2498
35.6099
35.98
36.3611
36.7539
37.16
37.5793
38.0144
38.4637
38.9325
39.414
39.9217
40.4343
40.9888
41.5242
42.1411
42.6731
43.3905
43.8512
44.8489
18.8675
18.9663
19.0687
19.1745
19.2837
19.3961
19.5118
19.6307
19.7526
19.8775
20.0053
20.1359
20.2692
20.4051
20.5435
20.6843
20.8273
20.9725
21.1198
21.2689
21.4198
21.5723
21.7262
21.8815
22.038
22.1955
22.354
22.5132
22.6732
22.8338
22.9949
23.1564
23.3185
23.481
23.6439
23.8074
23.9715
24.1363
24.302
24.4687
24.6367
24.8063
24.9776
25.151
25.3268
25.5054
25.6869
25.8719
26.0607
26.2538
26.4514
26.654
26.8618
27.075
27.294
27.5188
27.7498
27.9867
28.2293
28.4784
28.7339
28.9956
29.2632
29.5365
29.8153
30.0993
30.3883
30.6826
30.9819
31.2859
31.5938
31.9056
32.221
32.5399
32.8625
33.1887
33.5186
33.8526
34.1908
34.5338
34.8819
35.2358
35.596
35.9635
36.3386
36.7228
37.116
37.5208
37.9352
38.3648
38.8027
39.2625
39.7235
40.2216
40.6992
41.251
41.7233
42.364
42.7745
43.6681
18.431
18.5079
18.5882
18.6719
18.7589
18.8492
18.9429
19.0398
19.1399
19.2432
19.3495
19.459
19.5714
19.6868
19.8051
19.9262
20.05
20.1765
20.3057
20.4374
20.5715
20.7081
20.8469
20.988
21.1313
21.2766
21.424
21.5734
21.7247
21.878
22.0331
22.1902
22.3491
22.5101
22.6731
22.8382
23.0055
23.1752
23.3474
23.5224
23.7002
23.8812
24.0655
24.2536
24.4455
24.6416
24.8419
25.0472
25.2576
25.4735
25.6952
25.9227
26.1563
26.3963
26.6426
26.8955
27.1548
27.421
27.6941
27.9744
28.2609
28.5535
28.8517
29.1553
29.464
29.7773
30.0948
30.4166
30.7413
31.0683
31.398
31.7302
32.0647
32.4014
32.7402
33.0809
33.4235
33.7682
34.115
34.4642
34.816
35.171
35.5294
35.892
36.2591
36.632
37.0103
37.3966
37.7888
38.1925
38.6005
39.0268
39.4505
39.9074
40.3415
40.8439
41.2699
41.8491
42.2176
43.0227
18.1349
18.1955
18.2594
18.3265
18.397
18.4709
18.548
18.6285
18.7123
18.7993
18.8897
18.9832
19.0801
19.1801
19.2833
19.3897
19.4992
19.6118
19.7276
19.8463
19.9681
20.0929
20.2207
20.3514
20.4851
20.6217
20.7612
20.9037
21.0491
21.1975
21.3489
21.5034
21.661
21.8219
21.9861
22.1537
22.3249
22.4999
22.6787
22.8617
23.0491
23.241
23.4377
23.6394
23.8464
24.0592
24.2779
24.5032
24.7351
24.9737
25.219
25.4714
25.7309
25.9976
26.2716
26.5528
26.8412
27.1368
27.4393
27.7472
28.061
28.3808
28.7062
29.0369
29.3725
29.7125
30.0564
30.4039
30.7547
31.1081
31.4636
31.8207
32.1791
32.5385
32.8985
33.259
33.6199
33.981
34.3423
34.704
35.0661
35.4289
35.7927
36.158
36.5249
36.8947
37.2667
37.6437
38.0229
38.4105
38.7987
39.2019
39.5988
40.0255
40.4265
40.891
41.2801
41.8123
42.1484
42.8855
17.9535
18.0033
18.0563
18.1125
18.172
18.2348
18.3009
18.3704
18.4432
18.5195
18.5991
18.6821
18.7686
18.8584
18.9517
19.0484
19.1486
19.2522
19.3593
19.4698
19.5838
19.7013
19.8224
19.9469
20.0751
20.2069
20.3424
20.4816
20.6246
20.7714
20.9223
21.0772
21.2363
21.3997
21.5676
21.7402
21.9175
22.0998
22.2873
22.4803
22.6789
22.8833
23.094
23.311
23.5346
23.7651
24.003
24.2475
24.4992
24.7583
25.0251
25.2998
25.5825
25.8731
26.1717
26.4782
26.7926
27.1146
27.4441
27.781
28.1247
28.4747
28.8306
29.192
29.5583
29.929
30.3035
30.6812
31.0618
31.4445
31.8287
32.214
32.5997
32.9855
33.3709
33.7555
34.1392
34.5217
34.9027
35.2824
35.6606
36.0376
36.4132
36.7882
37.1622
37.5366
37.9104
38.2865
38.6616
39.0426
39.4204
39.8108
40.191
40.5986
40.9768
41.4154
41.7777
42.275
42.5858
43.27
17.872
17.9164