/*--------------------------------*- C++ -*----------------------------------*\
  =========                 |
  \\      /  F ield         | OpenFOAM: The Open Source CFD Toolbox
   \\    /   O peration     | Website:  https://openfoam.org
    \\  /    A nd           | Version:  10
     \\/     M anipulation  |
\*---------------------------------------------------------------------------*/
FoamFile
{
    format      ascii;
    class       volScalarField;
    location    "900";
    object      p;
}
// * * * * * * * * * * * * * * * * * * * * * * * * * * * * * * * * * * * * * //

dimensions      [0 2 -2 0 0 0 0];

internalField   nonuniform List<scalar> 
6820
(
6.39903
-4.49078
-8.01
-8.74358
-9.14489
-9.48343
-9.6759
-9.77237
-9.8378
-9.89227
-9.93649
-9.97223
-10.0028
-10.0302
-10.0551
-10.078
-10.0994
-10.1195
-10.1386
-10.1569
-10.1744
-10.1913
-10.2075
-10.2232
-10.2383
-10.2528
-10.2666
-10.2795
-10.2912
-10.3013
-10.3081
-10.3131
-10.2983
-15.4889
-11.811
-11.0661
-10.2969
-9.93208
-9.86569
-9.86395
-9.86779
-9.88587
-9.91506
-9.94582
-9.97448
-10.0013
-10.0267
-10.0507
-10.0731
-10.0943
-10.1145
-10.1337
-10.152
-10.1697
-10.1867
-10.2032
-10.2191
-10.2344
-10.2492
-10.2633
-10.2766
-10.289
-10.3003
-10.3096
-10.319
-10.3228
-13.3403
-9.76623
-9.51093
-9.51283
-9.50659
-9.60502
-9.7057
-9.77345
-9.82794
-9.87781
-9.9211
-9.95771
-9.9896
-10.0182
-10.0443
-10.0682
-10.0903
-10.1111
-10.1308
-10.1496
-10.1675
-10.1848
-10.2014
-10.2174
-10.233
-10.2479
-10.2623
-10.2761
-10.2891
-10.3014
-10.3127
-10.3249
-10.3355
-10.8512
-9.39211
-9.5428
-9.65891
-9.64355
-9.69887
-9.76944
-9.81814
-9.85817
-9.8971
-9.93289
-9.96457
-9.99318
-10.0196
-10.0441
-10.0669
-10.0884
-10.1088
-10.1282
-10.1468
-10.1646
-10.1819
-10.1986
-10.2147
-10.2304
-10.2456
-10.2603
-10.2745
-10.2883
-10.3017
-10.3149
-10.3291
-10.3438
-10.3918
-9.69444
-9.73491
-9.75113
-9.70688
-9.73454
-9.78687
-9.82795
-9.8641
-9.90022
-9.93424
-9.96498
-9.99305
-10.0191
-10.0433
-10.066
-10.0874
-10.1077
-10.127
-10.1456
-10.1634
-10.1806
-10.1973
-10.2136
-10.2293
-10.2447
-10.2597
-10.2744
-10.2888
-10.3032
-10.3179
-10.3337
-10.3508
-10.3265
-9.8513
-9.80519
-9.78322
-9.74442
-9.76294
-9.80465
-9.84114
-9.87465
-9.90813
-9.93997
-9.96919
-9.99613
-10.0213
-10.0448
-10.067
-10.0879
-10.1079
-10.1269
-10.1453
-10.163
-10.1801
-10.1968
-10.213
-10.2288
-10.2444
-10.2596
-10.2747
-10.2897
-10.3049
-10.3206
-10.3376
-10.3562
-10.2111
-9.8851
-9.83298
-9.81022
-9.78131
-9.79394
-9.82638
-9.85769
-9.88775
-9.9181
-9.9474
-9.97479
-10.0004
-10.0245
-10.0472
-10.0687
-10.0892
-10.1088
-10.1276
-10.1457
-10.1632
-10.1802
-10.1968
-10.213
-10.2289
-10.2446
-10.26
-10.2754
-10.2909
-10.3068
-10.3233
-10.341
-10.3604
-10.105
-9.89998
-9.8575
-9.83729
-9.81499
-9.82327
-9.84825
-9.87473
-9.90142
-9.9288
-9.95568
-9.98126
-10.0055
-10.0285
-10.0504
-10.0713
-10.0912
-10.1103
-10.1288
-10.1466
-10.164
-10.1808
-10.1973
-10.2135
-10.2294
-10.2451
-10.2608
-10.2765
-10.2923
-10.3086
-10.3256
-10.3438
-10.3634
-10.0361
-9.91321
-9.87767
-9.85963
-9.84282
-9.84879
-9.8685
-9.8911
-9.91489
-9.93966
-9.96435
-9.98823
-10.0111
-10.0331
-10.0541
-10.0743
-10.0937
-10.1124
-10.1305
-10.148
-10.1651
-10.1818
-10.1982
-10.2143
-10.2302
-10.246
-10.2618
-10.2776
-10.2937
-10.3103
-10.3276
-10.3459
-10.3655
-9.99374
-9.92184
-9.89241
-9.87728
-9.86542
-9.87048
-9.88664
-9.90628
-9.92766
-9.9502
-9.97296
-9.99528
-10.0169
-10.0379
-10.0581
-10.0776
-10.0964
-10.1147
-10.1324
-10.1497
-10.1665
-10.1831
-10.1993
-10.2153
-10.2312
-10.247
-10.2628
-10.2788
-10.295
-10.3117
-10.3291
-10.3473
-10.3667
-9.96792
-9.92688
-9.90372
-9.89173
-9.88396
-9.88879
-9.90258
-9.91998
-9.93938
-9.96005
-9.98115
-10.0021
-10.0226
-10.0426
-10.062
-10.0809
-10.0992
-10.117
-10.1344
-10.1514
-10.168
-10.1843
-10.2004
-10.2164
-10.2322
-10.248
-10.2638
-10.2798
-10.2961
-10.3128
-10.33
-10.348
-10.3669
-9.95311
-9.93047
-9.91312
-9.90403
-9.89941
-9.90431
-9.91647
-9.93215
-9.94992
-9.96902
-9.98869
-10.0084
-10.0279
-10.047
-10.0658
-10.084
-10.1018
-10.1193
-10.1363
-10.153
-10.1694
-10.1855
-10.2014
-10.2173
-10.233
-10.2487
-10.2645
-10.2804
-10.2966
-10.3132
-10.3303
-10.3479
-10.3663
-9.94577
-9.93382
-9.92138
-9.91481
-9.91256
-9.91761
-9.9286
-9.94292
-9.95933
-9.97708
-9.99551
-10.0142
-10.0327
-10.0511
-10.0691
-10.0868
-10.1042
-10.1212
-10.1379
-10.1543
-10.1705
-10.1864
-10.2022
-10.2179
-10.2335
-10.2491
-10.2648
-10.2806
-10.2967
-10.313
-10.3298
-10.347
-10.3647
-9.94338
-9.93742
-9.92891
-9.92449
-9.92398
-9.92919
-9.93929
-9.95248
-9.96771
-9.98428
-10.0016
-10.0193
-10.037
-10.0546
-10.0721
-10.0893
-10.1062
-10.1228
-10.1392
-10.1553
-10.1712
-10.187
-10.2026
-10.2181
-10.2335
-10.249
-10.2645
-10.2802
-10.296
-10.3121
-10.3285
-10.3452
-10.3622
-9.9442
-9.94147
-9.93595
-9.93332
-9.9341
-9.93942
-9.94882
-9.96104
-9.97521
-9.99073
-10.0071
-10.0238
-10.0408
-10.0577
-10.0746
-10.0912
-10.1077
-10.124
-10.14
-10.1559
-10.1715
-10.1871
-10.2025
-10.2178
-10.2331
-10.2484
-10.2637
-10.2791
-10.2947
-10.3104
-10.3263
-10.3425
-10.3589
-9.94703
-9.94598
-9.94268
-9.94147
-9.9432
-9.94859
-9.9574
-9.96875
-9.98197
-9.99651
-10.0119
-10.0278
-10.044
-10.0603
-10.0766
-10.0928
-10.1088
-10.1247
-10.1404
-10.156
-10.1714
-10.1867
-10.2019
-10.217
-10.2321
-10.2471
-10.2622
-10.2773
-10.2925
-10.3079
-10.3234
-10.3389
-10.3546
-9.95112
-9.95087
-9.94916
-9.94906
-9.95146
-9.95687
-9.96516
-9.97575
-9.9881
-10.0017
-10.0163
-10.0314
-10.0468
-10.0625
-10.0782
-10.0939
-10.1095
-10.125
-10.1404
-10.1557
-10.1708
-10.1858
-10.2008
-10.2156
-10.2305
-10.2452
-10.26
-10.2748
-10.2897
-10.3046
-10.3196
-10.3346
-10.3496
-9.95593
-9.95605
-9.95543
-9.95616
-9.95901
-9.96438
-9.97221
-9.98211
-9.99365
-10.0064
-10.0202
-10.0345
-10.0493
-10.0643
-10.0794
-10.0946
-10.1098
-10.1249
-10.1399
-10.1549
-10.1697
-10.1845
-10.1992
-10.2137
-10.2283
-10.2428
-10.2572
-10.2717
-10.2861
-10.3006
-10.315
-10.3294
-10.3438
-9.96114
-9.96139
-9.96151
-9.96281
-9.96595
-9.97122
-9.97862
-9.98788
-9.99867
-10.0107
-10.0236
-10.0372
-10.0513
-10.0657
-10.0803
-10.095
-10.1097
-10.1244
-10.1391
-10.1537
-10.1682
-10.1827
-10.1971
-10.2113
-10.2256
-10.2397
-10.2538
-10.2679
-10.2819
-10.2958
-10.3097
-10.3235
-10.3372
-9.96652
-9.9668
-9.96738
-9.96905
-9.97232
-9.97744
-9.98442
-9.99308
-10.0032
-10.0144
-10.0266
-10.0395
-10.053
-10.0668
-10.0808
-10.095
-10.1093
-10.1236
-10.1379
-10.1521
-10.1663
-10.1805
-10.1945
-10.2085
-10.2224
-10.2362
-10.2499
-10.2635
-10.2771
-10.2905
-10.3038
-10.3171
-10.3301
-9.97193
-9.97221
-9.97304
-9.97491
-9.97818
-9.98308
-9.98963
-9.99772
-10.0072
-10.0177
-10.0292
-10.0415
-10.0543
-10.0675
-10.081
-10.0947
-10.1085
-10.1224
-10.1363
-10.1502
-10.1641
-10.1778
-10.1915
-10.2052
-10.2187
-10.2321
-10.2454
-10.2586
-10.2717
-10.2846
-10.2974
-10.31
-10.3225
-9.97729
-9.97753
-9.97847
-9.98038
-9.98355
-9.98816
-9.99427
-10.0018
-10.0106
-10.0205
-10.0314
-10.043
-10.0552
-10.0678
-10.0808
-10.094
-10.1074
-10.1209
-10.1344
-10.1479
-10.1614
-10.1749
-10.1882
-10.2015
-10.2146
-10.2276
-10.2405
-10.2533
-10.2659
-10.2783
-10.2905
-10.3026
-10.3144
-9.98253
-9.98275
-9.98368
-9.9855
-9.98844
-9.9927
-9.99833
-10.0053
-10.0135
-10.0228
-10.033
-10.044
-10.0557
-10.0678
-10.0803
-10.093
-10.106
-10.1191
-10.1322
-10.1453
-10.1585
-10.1715
-10.1845
-10.1974
-10.2101
-10.2227
-10.2352
-10.2475
-10.2596
-10.2715
-10.2832
-10.2947
-10.3059
-9.98764
-9.98784
-9.98866
-9.99026
-9.99287
-9.99669
-10.0018
-10.0082
-10.0158
-10.0245
-10.0341
-10.0446
-10.0557
-10.0673
-10.0793
-10.0916
-10.1042
-10.1169
-10.1296
-10.1424
-10.1552
-10.1679
-10.1805
-10.193
-10.2053
-10.2175
-10.2296
-10.2414
-10.2531
-10.2645
-10.2756
-10.2866
-10.2972
-9.99264
-9.99281
-9.99343
-9.99467
-9.99683
-10.0001
-10.0047
-10.0105
-10.0175
-10.0256
-10.0347
-10.0446
-10.0552
-10.0663
-10.0779
-10.0898
-10.102
-10.1143
-10.1267
-10.1391
-10.1515
-10.1639
-10.1761
-10.1883
-10.2002
-10.212
-10.2236
-10.235
-10.2462
-10.2571
-10.2678
-10.2782
-10.2882
-9.99757
-9.99772
-9.99802
-9.99876
-10.0003
-10.003
-10.0069
-10.0121
-10.0185
-10.026
-10.0345
-10.044
-10.0541
-10.0648
-10.076
-10.0876
-10.0994
-10.1113
-10.1234
-10.1355
-10.1476
-10.1596
-10.1715
-10.1832
-10.1948
-10.2062
-10.2174
-10.2284
-10.2391
-10.2495
-10.2597
-10.2695
-10.2791
-10.0025
-10.0027
-10.0025
-10.0025
-10.0033
-10.0052
-10.0084
-10.0129
-10.0187
-10.0257
-10.0337
-10.0427
-10.0524
-10.0627
-10.0736
-10.0848
-10.0963
-10.1079
-10.1197
-10.1315
-10.1432
-10.1549
-10.1665
-10.1779
-10.1891
-10.2002
-10.211
-10.2215
-10.2318
-10.2418
-10.2514
-10.2608
-10.2698
-10.0077
-10.0078
-10.007
-10.006
-10.0059
-10.0068
-10.0091
-10.0129
-10.018
-10.0245
-10.032
-10.0406
-10.0499
-10.06
-10.0705
-10.0814
-10.0926
-10.104
-10.1155
-10.127
-10.1385
-10.1499
-10.1612
-10.1723
-10.1832
-10.1938
-10.2042
-10.2144
-10.2242
-10.2338
-10.243
-10.2519
-10.2604
-10.0133
-10.0133
-10.0116
-10.0093
-10.0078
-10.0076
-10.009
-10.0119
-10.0164
-10.0223
-10.0294
-10.0376
-10.0467
-10.0564
-10.0667
-10.0774
-10.0884
-10.0996
-10.1109
-10.1221
-10.1334
-10.1445
-10.1555
-10.1663
-10.1768
-10.1872
-10.1972
-10.207
-10.2165
-10.2256
-10.2344
-10.2428
-10.2509
-10.0198
-10.0197
-10.0164
-10.0123
-10.0091
-10.0075
-10.0077
-10.0097
-10.0136
-10.019
-10.0257
-10.0336
-10.0425
-10.052
-10.0622
-10.0727
-10.0835
-10.0945
-10.1056
-10.1167
-10.1277
-10.1386
-10.1493
-10.1599
-10.1702
-10.1802
-10.1899
-10.1993
-10.2084
-10.2172
-10.2256
-10.2336
-10.2413
-10.0278
-10.0275
-10.0219
-10.015
-10.0095
-10.0062
-10.005
-10.0062
-10.0093
-10.0143
-10.0208
-10.0285
-10.0372
-10.0466
-10.0566
-10.0671
-10.0778
-10.0887
-10.0996
-10.1106
-10.1214
-10.1321
-10.1426
-10.153
-10.163
-10.1728
-10.1822
-10.1913
-10.2001
-10.2085
-10.2165
-10.2242
-10.2315
-10.0389
-10.0377
-10.0282
-10.0173
-10.0089
-10.0033
-10.0007
-10.0008
-10.0034
-10.008
-10.0142
-10.0218
-10.0304
-10.0399
-10.0499
-10.0603
-10.071
-10.0818
-10.0927
-10.1035
-10.1143
-10.1249
-10.1352
-10.1454
-10.1552
-10.1647
-10.174
-10.1828
-10.1913
-10.1994
-10.2072
-10.2145
-10.2215
-10.0554
-10.0517
-10.0353
-10.0187
-10.0066
-9.99839
-9.99399
-9.99316
-9.9952
-9.99952
-10.0057
-10.0133
-10.0219
-10.0314
-10.0415
-10.052
-10.0628
-10.0737
-10.0846
-10.0954
-10.1061
-10.1166
-10.1269
-10.1369
-10.1467
-10.1561
-10.1651
-10.1738
-10.1821
-10.19
-10.1975
-10.2045
-10.2112
-10.0835
-10.0724
-10.0428
-10.0177
-10.0011
-9.98987
-9.9838
-9.9822
-9.98393
-9.98817
-9.9944
-10.0022
-10.011
-10.0207
-10.031
-10.0417
-10.0526
-10.0636
-10.0746
-10.0855
-10.0963
-10.1069
-10.1172
-10.1272
-10.1369
-10.1462
-10.1552
-10.1638
-10.1719
-10.1797
-10.1871
-10.1941
-10.2006
-10.1356
-10.1074
-10.0537
-10.015
-9.99087
-9.97523
-9.96732
-9.96538
-9.96733
-9.97209
-9.97905
-9.98759
-9.99724
-10.0077
-10.0186
-10.0298
-10.0412
-10.0527
-10.064
-10.0752
-10.0862
-10.0969
-10.1073
-10.1174
-10.1271
-10.1364
-10.1454
-10.1539
-10.162
-10.1696
-10.1769
-10.1837
-10.1901
-10.2149
-10.1521
-10.0699
-10.0192
-9.98289
-9.95685
-9.94361
-9.93897
-9.93914
-9.94299
-9.94983
-9.95883
-9.96927
-9.9807
-9.99278
-10.0052
-10.0179
-10.0305
-10.0431
-10.0554
-10.0675
-10.0792
-10.0906
-10.1015
-10.112
-10.1221
-10.1316
-10.1407
-10.1494
-10.1575
-10.1651
-10.1723
-10.1789
-10.3592
-10.126
-10.0006
-9.99354
-9.9837
-9.96949
-9.96603
-9.96774
-9.97004
-9.97338
-9.97839
-9.98477
-9.99217
-10.0004
-10.0094
-10.0188
-10.0287
-10.0388
-10.049
-10.0592
-10.0694
-10.0794
-10.0892
-10.0988
-10.1081
-10.1171
-10.1257
-10.1339
-10.1418
-10.1493
-10.1563
-10.163
-10.1693
-11.3081
-10.0747
-9.48344
-9.41075
-9.42986
-9.47103
-9.52913
-9.58834
-9.64271
-9.69286
-9.73914
-9.78119
-9.81912
-9.85341
-9.88454
-9.91287
-9.93872
-9.96239
-9.98413
-10.0042
-10.0226
-10.0398
-10.0556
-10.0703
-10.084
-10.0967
-10.1085
-10.1195
-10.1296
-10.139
-10.1477
-10.1557
-10.1629
-15.0739
-12.8634
-11.8504
-11.2308
-10.8131
-10.5652
-10.4023
-10.2787
-10.1867
-10.123
-10.0805
-10.0524
-10.0346
-10.0246
-10.0205
-10.0206
-10.0238
-10.0291
-10.0361
-10.0441
-10.0529
-10.062
-10.0714
-10.0809
-10.0903
-10.0995
-10.1084
-10.117
-10.1253
-10.1333
-10.1408
-10.148
-10.1547
-1.21404
-5.30089
-7.41267
-8.17585
-8.6072
-8.96782
-9.23589
-9.41498
-9.54152
-9.63988
-9.71814
-9.78003
-9.82975
-9.87089
-9.90576
-9.93578
-9.96197
-9.98514
-10.0059
-10.0246
-10.0417
-10.0573
-10.0717
-10.085
-10.0973
-10.1087
-10.1193
-10.1291
-10.1382
-10.1466
-10.1544
-10.1615
-10.168
-10.3046
-10.0556
-10.3669
-10.6664
-10.7907
-10.8304
-10.8468
-10.8528
-10.8551
-10.8627
-10.8818
-10.9143
-10.9587
-11.0133
-11.0753
-11.1418
-11.2099
-11.277
-11.3407
-11.3989
-11.4504
-11.494
-11.5286
-11.5537
-11.5691
-11.5745
-11.57
-11.5557
-11.5315
-11.4975
-11.4538
-11.4004
-11.3373
-11.2644
-11.1816
-11.0886
-10.9854
-10.8717
-10.7474
-10.6122
-10.4659
-10.3084
-10.1395
-9.95918
-9.76726
-9.56384
-9.34905
-9.12315
-8.88639
-8.63919
-8.38217
-8.11597
-7.84138
-7.55931
-7.2708
-6.97695
-6.67899
-6.37819
-6.07589
-5.77345
-5.47226
-5.17367
-4.87902
-4.58958
-4.30651
-4.03091
-3.76374
-3.50584
-3.2579
-3.02048
-2.79401
-2.57877
-2.37491
-2.1825
-2.00146
-1.83164
-1.67277
-1.52451
-1.3865
-1.25825
-1.13929
-1.02912
-0.927217
-0.833055
-0.746115
-0.665909
-0.59195
-0.523801
-0.461007
-0.403232
-0.349976
-0.30113
-0.255844
-0.214818
-0.175504
-0.141999
-0.104609
-0.0816876
-0.0342481
-0.041157
-10.3514
-10.3385
-10.5395
-10.6975
-10.7405
-10.7416
-10.7427
-10.7469
-10.7554
-10.7736
-10.8044
-10.8471
-10.8995
-10.9596
-11.0249
-11.0932
-11.162
-11.2293
-11.2927
-11.3506
-11.4018
-11.4451
-11.4795
-11.5046
-11.52
-11.5254
-11.521
-11.5068
-11.4828
-11.449
-11.4054
-11.3522
-11.2893
-11.2166
-11.134
-11.0412
-10.9383
-10.825
-10.7011
-10.5664
-10.4206
-10.2638
-10.0957
-9.91626
-9.72541
-9.52322
-9.30983
-9.08549
-8.85047
-8.60521
-8.35027
-8.08633
-7.81414
-7.53461
-7.24874
-6.95761
-6.66243
-6.36443
-6.06492
-5.76524
-5.46672
-5.17071
-4.87851
-4.59134
-4.31038
-4.0367
-3.77123
-3.51482
-3.26816
-3.03181
-2.80619
-2.5916
-2.38822
-2.1961
-2.0152
-1.84537
-1.68636
-1.53784
-1.39949
-1.27081
-1.15136
-1.04065
-0.938174
-0.843408
-0.755847
-0.675008
-0.600409
-0.531615
-0.468171
-0.409746
-0.35583
-0.306332
-0.260365
-0.218703
-0.178633
-0.144651
-0.106154
-0.0837473
-0.0331567
-0.0462673
-10.3636
-10.3733
-10.4643
-10.5791
-10.65
-10.6888
-10.7167
-10.7374
-10.7531
-10.7705
-10.7949
-10.8282
-10.8707
-10.9217
-10.9798
-11.0428
-11.1083
-11.1735
-11.236
-11.2937
-11.3449
-11.3882
-11.4227
-11.448
-11.4637
-11.4694
-11.4654
-11.4516
-11.4281
-11.3947
-11.3516
-11.2988
-11.2362
-11.1639
-11.0817
-10.9894
-10.8869
-10.7742
-10.6508
-10.5167
-10.3718
-10.2158
-10.0487
-9.87037
-9.6808
-9.48005
-9.26827
-9.0457
-8.81264
-8.56951
-8.31688
-8.05539
-7.78579
-7.50897
-7.22591
-6.93767
-6.64541
-6.35034
-6.05375
-5.75694
-5.46121
-5.16787
-4.8782
-4.59341
-4.31464
-4.04294
-3.77924
-3.52439
-3.27906
-3.04382
-2.81911
-2.60521
-2.40233
-2.21053
-2.02977
-1.85993
-1.70078
-1.552
-1.41328
-1.28415
-1.16418
-1.0529
-0.949809
-0.854398
-0.766174
-0.684658
-0.609373
-0.539889
-0.475753
-0.416633
-0.362018
-0.311825
-0.265142
-0.222797
-0.181953
-0.147427
-0.107854
-0.0858189
-0.0322706
-0.0511559
-10.3694
-10.3933
-10.4651
-10.5696
-10.6445
-10.683
-10.7055
-10.7223
-10.737
-10.7548
-10.7798
-10.8132
-10.8548
-10.9036
-10.958
-11.0159
-11.0754
-11.1344
-11.1912
-11.244
-11.2912
-11.3315
-11.3641
-11.3882
-11.4033
-11.4091
-11.4053
-11.3917
-11.3685
-11.3355
-11.2929
-11.2406
-11.1786
-11.1068
-11.0251
-10.9335
-10.8316
-10.7195
-10.5969
-10.4637
-10.3196
-10.1647
-9.99874
-9.82171
-9.63361
-9.43448
-9.22449
-9.00388
-8.77295
-8.53212
-8.28194
-8.02306
-7.7562
-7.48224
-7.20212
-6.91689
-6.62768
-6.33568
-6.04212
-5.74828
-5.45544
-5.16488
-4.87784
-4.59552
-4.31903
-4.0494
-3.78758
-3.53436
-3.29044
-3.05639
-2.83263
-2.61949
-2.41715
-2.22571
-2.04512
-1.8753
-1.716
-1.56697
-1.42787
-1.29827
-1.17776
-1.06588
-0.96214
-0.866047
-0.777121
-0.694883
-0.618868
-0.548648
-0.483773
-0.423913
-0.368557
-0.317627
-0.270189
-0.227117
-0.185473
-0.150349
-0.10971
-0.0879418
-0.0315574
-0.0558678
-10.3764
-10.4087
-10.4689
-10.5499
-10.6126
-10.6496
-10.6753
-10.6975
-10.7183
-10.7406
-10.7676
-10.8008
-10.8403
-10.8856
-10.9357
-10.989
-11.0439
-11.0985
-11.151
-11.1998
-11.2434
-11.2805
-11.3104
-11.3322
-11.3454
-11.3498
-11.3451
-11.3309
-11.3073
-11.2743
-11.2319
-11.1798
-11.1181
-11.0468
-10.9656
-10.8745
-10.7733
-10.6618
-10.54
-10.4077
-10.2647
-10.1109
-9.94618
-9.77057
-9.58403
-9.38665
-9.17856
-8.96003
-8.73135
-8.49294
-8.24533
-7.98917
-7.72517
-7.45417
-7.17711
-6.895
-6.60894
-6.3201
-6.02968
-5.73893
-5.44909
-5.16142
-4.87712
-4.59738
-4.32328
-4.05584
-3.79598
-3.54451
-3.30209
-3.06932
-2.84661
-2.63429
-2.43256
-2.24152
-2.06116
-1.89137
-1.73196
-1.58269
-1.4432
-1.31314
-1.19209
-1.07959
-0.975167
-0.878361
-0.788695
-0.705697
-0.628908
-0.557908
-0.492251
-0.431606
-0.375466
-0.323754
-0.275523
-0.231679
-0.18921
-0.153429
-0.111735
-0.0901193
-0.0310398
-0.0603506
-10.3821
-10.4167
-10.4678
-10.5326
-10.5888
-10.6279
-10.6572
-10.6824
-10.7054
-10.7288
-10.7557
-10.7876
-10.8248
-10.867
-10.9134
-10.9625
-11.013
-11.0632
-11.1114
-11.1562
-11.1962
-11.2303
-11.2574
-11.277
-11.2884
-11.2913
-11.2853
-11.2703
-11.246
-11.2127
-11.17
-11.1179
-11.0562
-10.985
-10.9041
-10.8134
-10.7127
-10.6019
-10.4809
-10.3494
-10.2074
-10.0547
-9.89131
-9.71715
-9.53222
-9.33662
-9.1305
-8.9141
-8.68773
-8.45181
-8.20686
-7.95349
-7.69243
-7.42448
-7.15057
-6.87167
-6.58888
-6.3033
-6.01613
-5.72858
-5.44186
-5.1572
-4.87578
-4.59873
-4.32715
-4.06203
-3.80425
-3.55463
-3.31384
-3.08244
-2.86087
-2.64946
-2.44842
-2.25785
-2.07775
-1.90805
-1.74857
-1.59908
-1.45924
-1.32872
-1.20712
-1.09398
-0.988871
-0.891328
-0.800892
-0.717098
-0.6395
-0.567681
-0.5012
-0.439728
-0.382761
-0.330223
-0.28116
-0.2365
-0.193177
-0.15668
-0.113946
-0.0923483
-0.0307487
-0.0645354
-10.3861
-10.4205
-10.4656
-10.5199
-10.5701
-10.6088
-10.6391
-10.6655
-10.6901
-10.7149
-10.7422
-10.7734
-10.8089
-10.8485
-10.8915
-10.9368
-10.9831
-11.0289
-11.0729
-11.1137
-11.15
-11.1807
-11.205
-11.2221
-11.2314
-11.2326
-11.2253
-11.2092
-11.1842
-11.1502
-11.1071
-11.0547
-10.993
-10.9218
-10.8411
-10.7507
-10.6504
-10.5402
-10.4198
-10.2891
-10.148
-9.99643
-9.83429
-9.66155
-9.47823
-9.28442
-9.08028
-8.86605
-8.64203
-8.40864
-8.1664
-7.9159
-7.65784
-7.39302
-7.12234
-6.84676
-6.56731
-6.28511
-6.00131
-5.71707
-5.4336
-5.15207
-4.87364
-4.59943
-4.33049
-4.0678
-3.81224
-3.56459
-3.32553
-3.09561
-2.87529
-2.66489
-2.46461
-2.27458
-2.09481
-1.92526
-1.76576
-1.61609
-1.47592
-1.34496
-1.2228
-1.10904
-1.00322
-0.904927
-0.813696
-0.729081
-0.650641
-0.577967
-0.510625
-0.448287
-0.390453
-0.337046
-0.287116
-0.241592
-0.197389
-0.160115
-0.116354
-0.0946264
-0.0307096
-0.0683691
-10.3888
-10.422
-10.4626
-10.5093
-10.5541
-10.5913
-10.622
-10.6494
-10.6751
-10.7008
-10.7282
-10.7586
-10.7924
-10.8295
-10.8694
-10.911
-10.9534
-10.9952
-11.0351
-11.0721
-11.1048
-11.1322
-11.1535
-11.1681
-11.1752
-11.1744
-11.1655
-11.1482
-11.1221
-11.0873
-11.0436
-10.9908
-10.9288
-10.8575
-10.7768
-10.6865
-10.5866
-10.4767
-10.3569
-10.227
-10.0868
-9.93626
-9.77534
-9.604
-9.42228
-9.23026
-9.02811
-8.81605
-8.59441
-8.36359
-8.12409
-7.8765
-7.62152
-7.3599
-7.09253
-6.82033
-6.54434
-6.26561
-5.98527
-5.70446
-5.42433
-5.14605
-4.87073
-4.59947
-4.33329
-4.07314
-3.8199
-3.57433
-3.33711
-3.10879
-2.8898
-2.68048
-2.48103
-2.29162
-2.11227
-1.94293
-1.78345
-1.63363
-1.49317
-1.36178
-1.2391
-1.1247
-1.01819
-0.919128
-0.827088
-0.741629
-0.662321
-0.588763
-0.520526
-0.457285
-0.398548
-0.344232
-0.293397
-0.246967
-0.201857
-0.163744
-0.118972
-0.0969523
-0.0309439
-0.071812
-10.3902
-10.4219
-10.4589
-10.5
-10.5402
-10.5755
-10.6061
-10.6338
-10.6601
-10.6861
-10.7134
-10.7429
-10.7751
-10.8098
-10.8467
-10.885
-10.9236
-10.9616
-10.9978
-11.031
-11.0602
-11.0844
-11.1028
-11.1148
-11.1196
-11.1169
-11.1063
-11.0875
-11.0603
-11.0245
-10.98
-10.9266
-10.8642
-10.7927
-10.7118
-10.6216
-10.5218
-10.4123
-10.293
-10.1637
-10.0243
-9.87475
-9.715
-9.54503
-9.36488
-9.17463
-8.97445
-8.76457
-8.54532
-8.31709
-8.08036
-7.83572
-7.58384
-7.32547
-7.06146
-6.79272
-6.52024
-6.24506
-5.96826
-5.69095
-5.41426
-5.1393
-4.86719
-4.59896
-4.33563
-4.07812
-3.8273
-3.5839
-3.34861
-3.12196
-2.90438
-2.6962
-2.49768
-2.30896
-2.13009
-1.961
-1.80159
-1.65166
-1.51094
-1.37916
-1.25595
-1.14094
-1.03373
-0.933902
-0.841042
-0.754724
-0.674527
-0.600058
-0.530898
-0.466723
-0.407048
-0.351785
-0.300012
-0.252632
-0.206588
-0.167575
-0.121809
-0.0993249
-0.031469
-0.074828
-10.3906
-10.4206
-10.4546
-10.4914
-10.5278
-10.5611
-10.591
-10.6186
-10.645
-10.671
-10.6979
-10.7264
-10.7569
-10.7894
-10.8235
-10.8585
-10.8937
-10.9281
-10.9606
-10.9902
-11.0161
-11.0371
-11.0526
-11.0619
-11.0645
-11.0598
-11.0474
-11.0272
-10.9987
-10.9619
-10.9165
-10.8625
-10.7995
-10.7276
-10.6466
-10.5563
-10.4566
-10.3474
-10.2284
-10.0997
-9.9611
-9.8125
-9.65388
-9.48524
-9.30662
-9.11812
-8.9199
-8.71219
-8.49532
-8.26968
-8.03573
-7.79406
-7.5453
-7.29021
-7.02959
-6.76434
-6.49541
-6.22382
-5.9506
-5.67685
-5.40365
-5.13209
-4.86323
-4.5981
-4.33768
-4.08288
-3.83454
-3.59339
-3.36009
-3.13516
-2.91904
-2.7121
-2.51457
-2.32659
-2.14824
-1.97946
-1.82015
-1.67015
-1.5292
-1.39704
-1.27334
-1.15772
-1.04981
-0.949219
-0.855533
-0.768343
-0.68724
-0.61184
-0.541731
-0.476593
-0.415951
-0.359706
-0.306963
-0.258592
-0.21159
-0.171612
-0.124873
-0.101745
-0.0322975
-0.0773868
-10.3899
-10.4184
-10.4497
-10.4831
-10.5164
-10.5477
-10.5766
-10.6037
-10.6298
-10.6555
-10.6818
-10.7092
-10.738
-10.7683
-10.7997
-10.8317
-10.8636
-10.8945
-10.9235
-10.9497
-10.9722
-10.9901
-11.0028
-11.0095
-11.0097
-11.003
-10.9889
-10.9671
-10.9373
-10.8994
-10.8532
-10.7984
-10.7349
-10.6626
-10.5813
-10.4909
-10.3913
-10.2822
-10.1637
-10.0355
-9.89761
-9.74992
-9.59241
-9.42507
-9.24797
-9.06119
-8.86492
-8.65938
-8.44489
-8.22182
-7.99066
-7.75195
-7.50633
-7.25452
-6.99731
-6.73556
-6.47021
-6.20222
-5.93262
-5.66245
-5.39277
-5.12463
-4.85907
-4.59709
-4.33963
-4.08758
-3.84177
-3.60291
-3.37164
-3.14848
-2.9339
-2.72823
-2.53173
-2.34454
-2.16674
-1.99829
-1.83913
-1.68909
-1.54793
-1.41541
-1.29122
-1.17501
-1.06642
-0.965055
-0.870538
-0.782466
-0.700444
-0.624093
-0.553014
-0.486888
-0.42525
-0.367993
-0.31425
-0.264849
-0.216864
-0.17586
-0.128168
-0.104213
-0.0334362
-0.0794657
-10.3884
-10.4153
-10.4444
-10.4749
-10.5055
-10.5349
-10.5627
-10.589
-10.6144
-10.6396
-10.665
-10.6912
-10.7183
-10.7464
-10.7753
-10.8044
-10.8331
-10.8607
-10.8863
-10.9092
-10.9285
-10.9434
-10.9533
-10.9574
-10.9553
-10.9465
-10.9306
-10.9072
-10.8761
-10.8371
-10.7899
-10.7343
-10.6703
-10.5975
-10.516
-10.4255
-10.3259
-10.217
-10.0989
-9.97122
-9.83403
-9.68725
-9.53084
-9.36481
-9.18921
-9.00417
-8.80984
-8.60646
-8.39434
-8.17385
-7.94547
-7.70973
-7.46725
-7.21872
-6.96492
-6.70669
-6.44491
-6.18054
-5.91457
-5.64799
-5.38185
-5.11716
-4.85492
-4.5961
-4.34162
-4.09236
-3.84911
-3.61256
-3.38335
-3.16202
-2.949
-2.74465
-2.5492
-2.36283
-2.18561
-2.01754
-1.85854
-1.70847
-1.56713
-1.43427
-1.3096
-1.1928
-1.08352
-0.981392
-0.886038
-0.797077
-0.714121
-0.636805
-0.564736
-0.497599
-0.434941
-0.376643
-0.32187
-0.271403
-0.222413
-0.180321
-0.131695
-0.106733
-0.034886
-0.0810508
-10.3858
-10.4113
-10.4384
-10.4666
-10.4949
-10.5225
-10.5489
-10.5743
-10.5989
-10.6232
-10.6476
-10.6724
-10.6979
-10.7239
-10.7503
-10.7766
-10.8023
-10.8267
-10.8491
-10.8688
-10.885
-10.8969
-10.904
-10.9056
-10.9012
-10.8904
-10.8726
-10.8477
-10.8152
-10.775
-10.7268
-10.6705
-10.6058
-10.5326
-10.4508
-10.3601
-10.2606
-10.1519
-10.0341
-9.907
-9.77054
-9.62467
-9.46936
-9.30464
-9.13056
-8.94725
-8.75487
-8.55365
-8.34391
-8.12601
-7.90041
-7.66764
-7.42829
-7.18305
-6.93266
-6.67793
-6.41973
-6.15899
-5.89664
-5.63367
-5.37107
-5.10983
-4.85092
-4.59528
-4.34381
-4.09735
-3.85666
-3.62245
-3.39534
-3.17585
-2.96443
-2.7614
-2.56704
-2.3815
-2.20489
-2.0372
-1.87838
-1.72831
-1.58679
-1.4536
-1.32847
-1.21109
-1.10112
-0.998219
-0.902022
-0.812161
-0.728261
-0.649963
-0.576886
-0.508716
-0.445015
-0.385649
-0.329821
-0.278254
-0.228234
-0.184998
-0.135452
-0.109308
-0.0366407
-0.0821386
-10.3824
-10.4065
-10.4318
-10.458
-10.4843
-10.5101
-10.5352
-10.5594
-10.5831
-10.6064
-10.6296
-10.653
-10.6768
-10.7007
-10.7247
-10.7483
-10.7711
-10.7925
-10.8119
-10.8285
-10.8417
-10.8508
-10.8551
-10.8542
-10.8476
-10.8346
-10.815
-10.7885
-10.7546
-10.7132
-10.664
-10.6069
-10.5416
-10.4679
-10.3858
-10.295
-10.1955
-10.087
-9.96958
-9.84302
-9.70729
-9.56234
-9.40814
-9.24474
-9.0722
-8.89062
-8.7002
-8.50116
-8.2938
-8.07849
-7.85567
-7.62587
-7.38965
-7.14769
-6.90071
-6.64948
-6.39486
-6.13773
-5.879
-5.61964
-5.36058
-5.10279
-4.84721
-4.59475
-4.34628
-4.10263
-3.86453
-3.63268
-3.40768
-3.19005
-2.98022
-2.77855
-2.58528
-2.4006
-2.2246
-2.05732
-1.8987
-1.74863
-1.60694
-1.47342
-1.34783
-1.22986
-1.1192
-1.01553
-0.918482
-0.827711
-0.742853
-0.663558
-0.589455
-0.520232
-0.455465
-0.395007
-0.338097
-0.285399
-0.234326
-0.189891
-0.139434
-0.111941
-0.0386874
-0.0827385
-10.3781
-10.4009
-10.4246
-10.449
-10.4735
-10.4977
-10.5214
-10.5444
-10.567
-10.5891
-10.6111
-10.633
-10.655
-10.6769
-10.6986
-10.7197
-10.7397
-10.7582
-10.7746
-10.7883
-10.7986
-10.8049
-10.8066
-10.8033
-10.7943
-10.7794
-10.758
-10.7298
-10.6945
-10.6519
-10.6017
-10.5437
-10.4778
-10.4036
-10.3212
-10.2303
-10.1308
-10.0225
-9.90545
-9.77945
-9.64446
-9.50043
-9.34737
-9.1853
-9.0143
-8.83448
-8.64602
-8.44916
-8.24418
-8.03147
-7.81144
-7.58459
-7.35151
-7.11283
-6.86924
-6.62151
-6.37045
-6.11692
-5.86181
-5.60603
-5.35051
-5.09616
-4.84391
-4.59462
-4.34916
-4.10831
-3.8728
-3.64331
-3.42043
-3.20466
-2.99645
-2.79613
-2.60396
-2.42015
-2.24479
-2.07791
-1.91949
-1.76943
-1.62757
-1.49374
-1.36768
-1.24912
-1.13778
-1.03332
-0.935411
-0.84372
-0.757891
-0.677583
-0.602436
-0.53214
-0.466285
-0.40471
-0.346694
-0.292835
-0.240685
-0.194999
-0.143636
-0.114634
-0.0410078
-0.0828715
-10.373
-10.3945
-10.4168
-10.4395
-10.4624
-10.4851
-10.5074
-10.5292
-10.5505
-10.5714
-10.5921
-10.6125
-10.6327
-10.6526
-10.672
-10.6906
-10.7081
-10.7238
-10.7374
-10.7482
-10.7557
-10.7594
-10.7586
-10.7528
-10.7417
-10.7247
-10.7015
-10.6717
-10.635
-10.5912
-10.54
-10.4812
-10.4146
-10.34
-10.2572
-10.1661
-10.0667
-9.95862
-9.84192
-9.71648
-9.58224
-9.43916
-9.28724
-9.12651
-8.95706
-8.779
-8.59252
-8.39784
-8.19526
-7.98514
-7.76789
-7.54401
-7.31405
-7.07862
-6.83842
-6.59417
-6.34666
-6.09672
-5.8452
-5.59299
-5.34098
-5.09006
-4.84112
-4.595
-4.35253
-4.11448
-3.88156
-3.65442
-3.43365
-3.21975
-3.01315
-2.81418
-2.62313
-2.44018
-2.26545
-2.09899
-1.94077
-1.79072
-1.64871
-1.51454
-1.38802
-1.26887
-1.15683
-1.05158
-0.952805
-0.86018
-0.773366
-0.692029
-0.615821
-0.544433
-0.477469
-0.414755
-0.355608
-0.300557
-0.247307
-0.20032
-0.148052
-0.117391
-0.0435786
-0.0825685
-10.3671
-10.3874
-10.4083
-10.4296
-10.451
-10.4723
-10.4932
-10.5137
-10.5337
-10.5533
-10.5726
-10.5914
-10.6099
-10.6278
-10.6451
-10.6614
-10.6763
-10.6894
-10.7003
-10.7084
-10.7133
-10.7143
-10.7111
-10.703
-10.6897
-10.6707
-10.6457
-10.6144
-10.5763
-10.5313
-10.4791
-10.4194
-10.3521
-10.277
-10.194
-10.1028
-10.0033
-9.89552
-9.77921
-9.65435
-9.52086
-9.37874
-9.22797
-9.0686
-8.90071
-8.72442
-8.53992
-8.34743
-8.14724
-7.9397
-7.72523
-7.5043
-7.27744
-7.04527
-6.80843
-6.56764
-6.32365
-6.07727
-5.82933
-5.58066
-5.33214
-5.08463
-4.83897
-4.59599
-4.3565
-4.12123
-3.89087
-3.66608
-3.44741
-3.23537
-3.03037
-2.83276
-2.64282
-2.46073
-2.28663
-2.12058
-1.96256
-1.81252
-1.67034
-1.53585
-1.40885
-1.28911
-1.17636
-1.07031
-0.970655
-0.877084
-0.78927
-0.706889
-0.629601
-0.557102
-0.489008
-0.425132
-0.36483
-0.308562
-0.254185
-0.205853
-0.152673
-0.120212
-0.0463719
-0.0818682
-10.3604
-10.3796
-10.3993
-10.4193
-10.4393
-10.4591
-10.4787
-10.4979
-10.5166
-10.5349
-10.5527
-10.57
-10.5867
-10.6027
-10.6179
-10.6319
-10.6444
-10.655
-10.6634
-10.6689
-10.6712
-10.6698
-10.6642
-10.6539
-10.6385
-10.6176
-10.5909
-10.558
-10.5185
-10.4723
-10.4191
-10.3586
-10.2907
-10.2151
-10.1318
-10.0405
-9.94106
-9.83345
-9.71755
-9.59327
-9.46056
-9.3194
-9.16979
-9.01179
-8.84547
-8.67096
-8.48844
-8.29813
-8.10033
-7.89537
-7.68366
-7.46567
-7.2419
-7.01295
-6.77945
-6.54209
-6.3016
-6.05875
-5.81434
-5.56919
-5.32412
-5.07998
-4.83758
-4.59771
-4.36116
-4.12864
-3.90084
-3.67837
-3.46178
-3.25158
-3.04817
-2.8519
-2.66305
-2.48182
-2.30835
-2.1427
-1.98488
-1.83484
-1.69248
-1.55765
-1.43018
-1.30983
-1.19636
-1.0895
-0.988951
-0.894421
-0.805592
-0.72215
-0.643765
-0.570136
-0.500892
-0.435832
-0.374353
-0.316841
-0.261312
-0.211591
-0.157487
-0.1231
-0.0493557
-0.0808155
-10.353
-10.3712
-10.3898
-10.4085
-10.4272
-10.4457
-10.464
-10.4818
-10.4992
-10.5161
-10.5325
-10.5482
-10.5632
-10.5774
-10.5905
-10.6023
-10.6126
-10.6208
-10.6267
-10.6299
-10.6298
-10.626
-10.6181
-10.6057
-10.5883
-10.5656
-10.5371
-10.5027
-10.4619
-10.4145
-10.3603
-10.299
-10.2305
-10.1544
-10.0708
-9.97936
-9.88002
-9.77265
-9.65716
-9.53348
-9.40156
-9.26138
-9.11295
-8.95632
-8.79158
-8.61885
-8.43831
-8.25019
-8.05477
-7.85238
-7.64342
-7.42834
-7.20764
-6.98188
-6.75169
-6.51773
-6.28069
-6.04133
-5.80041
-5.55872
-5.31707
-5.07625
-4.83706
-4.60027
-4.36663
-4.13683
-3.91154
-3.69135
-3.47682
-3.26843
-3.06659
-2.87165
-2.68388
-2.50349
-2.33062
-2.16536
-2.00772
-1.85767
-1.71512
-1.57995
-1.45198
-1.33102
-1.21682
-1.10913
-1.00768
-0.912176
-0.822317
-0.737797
-0.658298
-0.583521
-0.513106
-0.446844
-0.384163
-0.325383
-0.268676
-0.217528
-0.162482
-0.126057
-0.052495
-0.0794592
-10.3451
-10.3623
-10.3797
-10.3972
-10.4147
-10.432
-10.449
-10.4656
-10.4816
-10.4972
-10.512
-10.5262
-10.5395
-10.5519
-10.5631
-10.5728
-10.5809
-10.5869
-10.5905
-10.5913
-10.589
-10.5829
-10.5729
-10.5584
-10.5391
-10.5146
-10.4845
-10.4486
-10.4065
-10.3581
-10.3029
-10.2408
-10.1716
-10.0952
-10.0113
-9.91974
-9.82047
-9.71336
-9.59831