/*--------------------------------*- C++ -*----------------------------------*\
  =========                 |
  \\      /  F ield         | OpenFOAM: The Open Source CFD Toolbox
   \\    /   O peration     | Website:  https://openfoam.org
    \\  /    A nd           | Version:  10
     \\/     M anipulation  |
\*---------------------------------------------------------------------------*/
FoamFile
{
    format      ascii;
    class       surfaceScalarField;
    location    "900";
    object      phi;
}
// * * * * * * * * * * * * * * * * * * * * * * * * * * * * * * * * * * * * * //

dimensions      [0 3 -1 0 0 0 0];

internalField   nonuniform List<scalar> 
13452
(
6.29962e-05
-2.72774e-06
6.37618e-05
-7.65572e-07
6.45325e-05
-7.70738e-07
6.38572e-05
6.75277e-07
6.25158e-05
1.34143e-06
6.1081e-05
1.43482e-06
5.97494e-05
1.33156e-06
5.85557e-05
1.19371e-06
5.74948e-05
1.06085e-06
5.65537e-05
9.41141e-07
5.57166e-05
8.37082e-07
5.49681e-05
7.48506e-07
5.42946e-05
6.7347e-07
5.36852e-05
6.09445e-07
5.31309e-05
5.54327e-07
5.26243e-05
5.06524e-07
5.21596e-05
4.64768e-07
5.17315e-05
4.28038e-07
5.1336e-05
3.95522e-07
5.09694e-05
3.66578e-07
5.06287e-05
3.40699e-07
5.03113e-05
3.17482e-07
5.00146e-05
2.96607e-07
4.97368e-05
2.77833e-07
4.94758e-05
2.60987e-07
4.92299e-05
2.45975e-07
4.8997e-05
2.32809e-07
4.87754e-05
2.21619e-07
4.85625e-05
2.12923e-07
4.83551e-05
2.07362e-07
4.81454e-05
2.09721e-07
4.79222e-05
2.23184e-07
2.85524e-07
4.76367e-05
6.28938e-05
-3.63116e-06
6.27372e-05
-6.09054e-07
6.21167e-05
-1.50153e-07
6.23911e-05
4.00844e-07
6.2873e-05
8.59527e-07
6.32659e-05
1.0419e-06
6.35103e-05
1.08712e-06
6.36211e-05
1.08299e-06
6.36284e-05
1.05354e-06
6.35614e-05
1.00813e-06
6.34431e-05
9.55392e-07
6.32901e-05
9.01447e-07
6.31144e-05
8.49168e-07
6.29242e-05
7.99639e-07
6.27253e-05
7.5322e-07
6.25218e-05
7.10015e-07
6.23166e-05
6.69955e-07
6.21118e-05
6.32856e-07
6.19089e-05
5.98502e-07
6.17088e-05
5.66676e-07
6.15123e-05
5.37181e-07
6.13199e-05
5.09842e-07
6.1132e-05
4.84512e-07
6.09488e-05
4.6108e-07
6.07703e-05
4.39483e-07
6.05965e-05
4.19711e-07
6.04275e-05
4.01866e-07
6.0263e-05
3.86124e-07
6.01027e-05
3.7317e-07
5.99464e-05
3.63646e-07
5.97945e-05
3.61663e-07
5.96549e-05
3.62725e-07
3.94824e-07
5.95456e-05
6.23344e-05
-2.20418e-06
6.26284e-05
-9.02994e-07
6.27865e-05
-3.08312e-07
6.30959e-05
9.14742e-08
6.34471e-05
5.08334e-07
6.37491e-05
7.3988e-07
6.39951e-05
8.41111e-07
6.419e-05
8.88115e-07
6.43382e-05
9.05379e-07
6.44459e-05
9.00369e-07
6.45203e-05
8.80976e-07
6.45677e-05
8.54041e-07
6.45934e-05
8.23517e-07
6.46016e-05
7.91427e-07
6.45958e-05
7.58977e-07
6.45789e-05
7.26966e-07
6.4553e-05
6.95877e-07
6.45198e-05
6.65969e-07
6.4481e-05
6.37368e-07
6.44375e-05
6.10136e-07
6.43904e-05
5.84294e-07
6.43404e-05
5.59844e-07
6.42881e-05
5.36786e-07
6.42341e-05
5.15131e-07
6.41786e-05
4.94918e-07
6.41221e-05
4.76231e-07
6.40647e-05
4.59249e-07
6.40066e-05
4.44226e-07
6.3948e-05
4.31807e-07
6.38891e-05
4.22571e-07
6.3832e-05
4.18708e-07
6.37772e-05
4.17517e-07
4.28659e-07
6.37434e-05
6.47916e-05
-1.41266e-06
6.47391e-05
-8.50552e-07
6.47873e-05
-3.56497e-07
6.48994e-05
-2.06635e-08
6.50724e-05
3.35331e-07
6.52454e-05
5.66886e-07
6.54026e-05
6.83887e-07
6.55431e-05
7.4769e-07
6.56657e-05
7.82736e-07
6.57705e-05
7.9555e-07
6.58588e-05
7.92706e-07
6.59323e-05
7.80497e-07
6.5993e-05
7.62828e-07
6.60426e-05
7.41845e-07
6.60826e-05
7.18934e-07
6.61145e-05
6.95088e-07
6.61394e-05
6.7098e-07
6.61584e-05
6.47038e-07
6.61722e-05
6.23542e-07
6.61816e-05
6.00683e-07
6.61873e-05
5.78594e-07
6.61898e-05
5.57375e-07
6.61895e-05
5.37106e-07
6.61867e-05
5.17869e-07
6.61819e-05
4.99766e-07
6.61752e-05
4.82929e-07
6.61669e-05
4.67564e-07
6.61572e-05
4.53942e-07
6.61464e-05
4.42567e-07
6.61351e-05
4.33858e-07
6.6125e-05
4.28844e-07
6.61164e-05
4.2614e-07
4.2905e-07
6.6116e-05
6.70182e-05
-9.74091e-07
6.6871e-05
-7.03312e-07
6.68448e-05
-3.30372e-07
6.68727e-05
-4.85514e-08
6.69616e-05
2.46477e-07
6.70705e-05
4.57995e-07
6.71772e-05
5.77131e-07
6.72776e-05
6.47351e-07
6.73702e-05
6.90103e-07
6.74541e-05
7.11646e-07
6.75291e-05
7.17688e-07
6.75958e-05
7.13831e-07
6.76549e-05
7.03742e-07
6.77072e-05
6.89549e-07
6.77534e-05
6.72681e-07
6.77943e-05
6.54184e-07
6.78305e-05
6.34792e-07
6.78625e-05
6.15007e-07
6.78909e-05
5.95177e-07
6.7916e-05
5.75553e-07
6.79383e-05
5.56324e-07
6.7958e-05
5.37637e-07
6.79755e-05
5.19617e-07
6.7991e-05
5.0238e-07
6.80047e-05
4.86054e-07
6.80169e-05
4.70789e-07
6.80276e-05
4.56783e-07
6.80373e-05
4.44273e-07
6.80463e-05
4.33609e-07
6.80551e-05
4.25051e-07
6.80649e-05
4.19016e-07
6.80763e-05
4.14789e-07
4.13347e-07
6.8092e-05
6.9089e-05
-6.79046e-07
6.89436e-05
-5.57892e-07
6.89005e-05
-2.87308e-07
6.89039e-05
-5.19318e-08
6.89553e-05
1.95006e-07
6.90296e-05
3.83729e-07
6.91068e-05
4.99945e-07
6.91816e-05
5.72524e-07
6.92529e-05
6.18846e-07
6.93195e-05
6.4504e-07
6.93809e-05
6.56277e-07
6.94372e-05
6.57516e-07
6.94888e-05
6.52154e-07
6.95361e-05
6.42283e-07
6.95794e-05
6.29339e-07
6.96192e-05
6.1438e-07
6.96558e-05
5.98164e-07
6.96896e-05
5.81225e-07
6.97208e-05
5.63945e-07
6.97498e-05
5.4661e-07
6.97767e-05
5.29434e-07
6.98017e-05
5.12591e-07
6.98251e-05
4.96226e-07
6.9847e-05
4.8047e-07
6.98676e-05
4.65458e-07
6.98871e-05
4.51336e-07
6.99056e-05
4.38271e-07
6.99234e-05
4.26448e-07
6.99409e-05
4.16084e-07
6.99587e-05
4.07304e-07
6.99775e-05
4.00216e-07
6.99979e-05
3.94371e-07
3.89831e-07
7.00214e-05
7.11537e-05
-4.66376e-07
7.10276e-05
-4.31873e-07
7.09799e-05
-2.39534e-07
7.09725e-05
-4.45901e-08
7.10041e-05
1.63445e-07
7.10575e-05
3.30306e-07
7.11166e-05
4.40867e-07
7.11757e-05
5.13404e-07
7.12333e-05
5.61204e-07
7.12884e-05
5.90012e-07
7.13401e-05
6.04548e-07
7.13884e-05
6.09188e-07
7.14335e-05
6.07049e-07
7.14757e-05
6.00164e-07
7.1515e-05
5.89961e-07
7.15519e-05
5.77495e-07
7.15865e-05
5.63533e-07
7.16191e-05
5.48627e-07
7.16499e-05
5.33181e-07
7.1679e-05
5.17499e-07
7.17066e-05
5.01814e-07
7.17329e-05
4.86311e-07
7.1758e-05
4.71146e-07
7.1782e-05
4.56455e-07
7.18051e-05
4.42367e-07
7.18274e-05
4.29012e-07
7.18492e-05
4.16523e-07
7.18706e-05
4.05027e-07
7.1892e-05
3.94637e-07
7.1914e-05
3.8538e-07
7.1937e-05
3.77205e-07
7.19616e-05
3.69756e-07
3.62754e-07
7.19887e-05
7.32523e-05
-3.13423e-07
7.31445e-05
-3.24098e-07
7.30947e-05
-1.897e-07
7.30807e-05
-3.06012e-08
7.31e-05
1.44183e-07
7.31397e-05
2.90581e-07
7.31868e-05
3.93779e-07
7.32357e-05
4.64528e-07
7.32844e-05
5.1247e-07
7.33317e-05
5.42679e-07
7.33769e-05
5.59388e-07
7.34197e-05
5.66432e-07
7.34601e-05
5.66646e-07
7.34982e-05
5.61978e-07
7.35344e-05
5.53831e-07
7.35686e-05
5.43244e-07
7.36012e-05
5.30986e-07
7.36322e-05
5.17619e-07
7.36618e-05
5.03561e-07
7.36902e-05
4.89128e-07
7.37174e-05
4.74565e-07
7.37437e-05
4.60064e-07
7.3769e-05
4.45783e-07
7.37936e-05
4.31858e-07
7.38176e-05
4.18408e-07
7.38411e-05
4.05543e-07
7.38642e-05
3.9336e-07
7.38873e-05
3.81934e-07
7.39106e-05
3.71307e-07
7.39346e-05
3.61439e-07
7.39596e-05
3.52197e-07
7.39861e-05
3.43263e-07
3.34253e-07
7.40146e-05
7.53941e-05
-2.05058e-07
7.53032e-05
-2.33192e-07
7.52536e-05
-1.40146e-07
7.52353e-05
-1.22954e-08
7.52461e-05
1.33414e-07
7.5276e-05
2.60723e-07
7.53143e-05
3.55457e-07
7.53558e-05
4.2305e-07
7.53981e-05
4.70098e-07
7.544e-05
5.00815e-07
7.54805e-05
5.18885e-07
7.55193e-05
5.27633e-07
7.55563e-05
5.2961e-07
7.55917e-05
5.26652e-07
7.56254e-05
5.20114e-07
7.56576e-05
5.11012e-07
7.56885e-05
5.00106e-07
7.57181e-05
4.87963e-07
7.57467e-05
4.75006e-07
7.57743e-05
4.61559e-07
7.58009e-05
4.47874e-07
7.58269e-05
4.34147e-07
7.58521e-05
4.20535e-07
7.58768e-05
4.07169e-07
7.59011e-05
3.94157e-07
7.5925e-05
3.81588e-07
7.59488e-05
3.69528e-07
7.59728e-05
3.58014e-07
7.5997e-05
3.47037e-07
7.6022e-05
3.36516e-07
7.60479e-05
3.26285e-07
7.60751e-05
3.16051e-07
3.05432e-07
7.61039e-05
7.7584e-05
-1.29462e-07
7.75093e-05
-1.5856e-07
7.74625e-05
-9.33278e-08
7.74418e-05
8.4228e-09
7.74464e-05
1.28824e-07
7.74687e-05
2.38438e-07
7.75001e-05
3.24042e-07
7.75357e-05
3.87411e-07
7.75731e-05
4.32692e-07
7.76108e-05
4.63168e-07
7.76477e-05
4.8193e-07
7.76836e-05
4.91816e-07
7.77181e-05
4.95092e-07
7.77513e-05
4.93457e-07
7.77832e-05
4.88197e-07
7.78139e-05
4.80294e-07
7.78435e-05
4.70491e-07
7.78721e-05
4.59347e-07
7.78999e-05
4.47291e-07
7.79268e-05
4.34648e-07
7.7953e-05
4.21671e-07
7.79786e-05
4.08559e-07
7.80036e-05
3.95465e-07
7.80283e-05
3.82515e-07
7.80526e-05
3.69803e-07
7.80768e-05
3.57401e-07
7.8101e-05
3.45351e-07
7.81254e-05
3.33661e-07
7.81501e-05
3.22292e-07
7.81755e-05
3.11143e-07
7.82017e-05
3.00042e-07
7.8229e-05
2.88725e-07
2.76856e-07
7.82576e-05
7.98265e-05
-7.75975e-08
7.97671e-05
-9.91955e-08
7.97251e-05
-5.12947e-08
7.97037e-05
2.97487e-08
7.9704e-05
1.28589e-07
7.97203e-05
2.22056e-07
7.97461e-05
2.98267e-07
7.97769e-05
3.56632e-07
7.98102e-05
3.99414e-07
7.98443e-05
4.28993e-07
7.98784e-05
4.47862e-07
7.99118e-05
4.58395e-07
7.99444e-05
4.62567e-07
7.99759e-05
4.61925e-07
8.00064e-05
4.57671e-07
8.0036e-05
4.50735e-07
8.00646e-05
4.41834e-07
8.00925e-05
4.31519e-07
8.01195e-05
4.20211e-07
8.01459e-05
4.08234e-07
8.01718e-05
3.95841e-07
8.01971e-05
3.83227e-07
8.0222e-05
3.70544e-07
8.02466e-05
3.57907e-07
8.0271e-05
3.45402e-07
8.02954e-05
3.33085e-07
8.03197e-05
3.20982e-07
8.03443e-05
3.09081e-07
8.03693e-05
2.97328e-07
8.03948e-05
2.85618e-07
8.0421e-05
2.73787e-07
8.04482e-05
2.61609e-07
2.48807e-07
8.04762e-05
8.21255e-05
-4.26636e-08
8.20798e-05
-5.34699e-08
8.20439e-05
-1.53989e-08
8.20236e-05
5.00229e-08
8.20212e-05
1.3105e-07
8.20331e-05
2.1014e-07
8.20542e-05
2.77093e-07
8.20809e-05
3.29973e-07
8.21106e-05
3.69683e-07
8.21418e-05
3.97807e-07
8.21734e-05
4.16268e-07
8.22048e-05
4.27006e-07
8.22357e-05
4.31712e-07
8.22658e-05
4.31767e-07
8.22952e-05
4.28272e-07
8.23238e-05
4.221e-07
8.23517e-05
4.13933e-07
8.2379e-05
4.043e-07
8.24056e-05
3.93614e-07
8.24316e-05
3.82193e-07
8.24572e-05
3.70285e-07
8.24823e-05
3.58081e-07
8.25071e-05
3.45728e-07
8.25317e-05
3.33333e-07
8.25561e-05
3.20973e-07
8.25805e-05
3.08694e-07
8.2605e-05
2.9651e-07
8.26297e-05
2.84398e-07
8.26547e-05
2.72302e-07
8.26802e-05
2.60119e-07
8.27063e-05
2.47707e-07
8.2733e-05
2.34878e-07
2.21412e-07
8.27604e-05
8.44847e-05
-1.95955e-08
8.44506e-05
-1.93725e-08
8.44214e-05
1.37752e-08
8.44035e-05
6.7917e-08
8.43999e-05
1.34701e-07
8.44087e-05
2.01362e-07
8.44262e-05
2.59556e-07
8.44494e-05
3.0677e-07
8.44761e-05
3.43016e-07
8.45046e-05
3.69235e-07
8.45341e-05
3.86847e-07
8.45637e-05
3.97398e-07
8.45931e-05
4.02308e-07
8.4622e-05
4.02786e-07
8.46505e-05
3.99827e-07
8.46784e-05
3.94233e-07
8.47056e-05
3.86645e-07
8.47324e-05
3.77566e-07
8.47586e-05
3.67393e-07
8.47844e-05
3.56435e-07
8.48097e-05
3.44931e-07
8.48347e-05
3.33067e-07
8.48595e-05
3.20982e-07
8.4884e-05
3.08779e-07
8.49085e-05
2.96527e-07
8.49329e-05
2.84264e-07
8.49574e-05
2.71996e-07
8.49821e-05
2.597e-07
8.50071e-05
2.47319e-07
8.50324e-05
2.34764e-07
8.50582e-05
2.21915e-07
8.50845e-05
2.08622e-07
1.9472e-07
8.51112e-05
8.69073e-05
-4.69655e-09
8.68827e-05
5.19838e-09
8.68602e-05
3.63083e-08
8.68455e-05
8.25581e-08
8.68419e-05
1.38283e-07
8.68488e-05
1.9451e-07
8.68636e-05
2.44727e-07
8.6884e-05
2.86371e-07
8.69081e-05
3.18951e-07
8.69344e-05
3.42942e-07
8.69619e-05
3.59349e-07
8.69899e-05
3.69376e-07
8.7018e-05
3.74195e-07
8.70459e-05
3.74848e-07
8.70736e-05
3.72216e-07
8.71008e-05
3.67028e-07
8.71275e-05
3.59877e-07
8.71539e-05
3.51235e-07
8.71798e-05
3.41477e-07
8.72053e-05
3.30899e-07
8.72305e-05
3.19731e-07
8.72554e-05
3.0815e-07
8.72801e-05
2.96289e-07
8.73046e-05
2.84245e-07
8.73291e-05
2.72079e-07
8.73535e-05
2.59827e-07
8.7378e-05
2.47491e-07
8.74027e-05
2.35051e-07
8.74275e-05
2.22455e-07
8.74527e-05
2.0963e-07
8.74781e-05
1.9648e-07
8.75038e-05
1.82891e-07
1.68739e-07
8.75298e-05
8.93962e-05
4.67015e-09
8.93791e-05
2.22313e-08
8.93627e-05
5.27614e-08
8.93517e-05
9.35517e-08
8.93491e-05
1.40859e-07
8.93551e-05
1.88548e-07
8.93681e-05
2.31737e-07
8.93863e-05
2.68128e-07
8.94082e-05
2.97021e-07
8.94326e-05
3.18591e-07
8.94584e-05
3.33528e-07
8.9485e-05
3.42758e-07
8.9512e-05
3.47234e-07
8.9539e-05
3.47839e-07
8.95659e-05
3.45346e-07
8.95925e-05
3.40406e-07
8.96188e-05
3.33561e-07
8.96448e-05
3.25247e-07
8.96704e-05
3.15816e-07
8.96958e-05
3.05546e-07
8.97209e-05
2.94656e-07
8.97457e-05
2.83312e-07
8.97704e-05
2.71642e-07
8.97949e-05
2.59734e-07
8.98193e-05
2.47649e-07
8.98437e-05
2.35417e-07
8.98682e-05
2.23042e-07
8.98927e-05
2.10507e-07
8.99174e-05
1.97771e-07
8.99422e-05
1.84776e-07
8.99673e-05
1.71449e-07
8.99925e-05
1.57704e-07
1.43459e-07
9.00177e-05
9.19542e-05
1.03438e-08
9.19429e-05
3.34762e-08
9.19317e-05
6.39676e-08
9.19244e-05
1.00911e-07
9.19234e-05
1.41853e-07
9.19293e-05
1.82671e-07
9.19412e-05
2.19827e-07
9.19579e-05
2.51428e-07
9.19781e-05
2.76762e-07
9.20009e-05
2.95841e-07
9.20253e-05
3.0914e-07
9.20507e-05
3.17366e-07
9.20766e-05
3.21291e-07
9.21028e-05
3.21658e-07
9.2129e-05
3.19137e-07
9.21551e-05
3.14304e-07
9.2181e-05
3.07645e-07
9.22067e-05
2.99562e-07
9.22321e-05
2.90378e-07
9.22573e-05
2.80352e-07
9.22823e-05
2.6969e-07
9.2307e-05
2.58547e-07
9.23316e-05
2.47043e-07
9.23561e-05
2.35263e-07
9.23805e-05
2.23261e-07
9.24049e-05
2.11068e-07
9.24292e-05
1.9869e-07
9.24536e-05
1.86116e-07
9.24781e-05
1.73315e-07
9.25026e-05
1.60245e-07
9.25272e-05
1.4685e-07
9.25518e-05
1.33075e-07
1.18862e-07
9.25764e-05
9.45839e-05
1.35843e-08
9.4577e-05
4.03958e-08
9.45701e-05
7.08628e-08
9.45661e-05
1.04944e-07
9.45669e-05
1.41018e-07
9.45732e-05
1.76335e-07
9.45847e-05
2.08395e-07
9.46004e-05
2.35736e-07
9.46194e-05
2.57738e-07
9.46409e-05
2.74358e-07
9.46641e-05
2.85934e-07
9.46884e-05
2.93016e-07
9.47135e-05
2.96232e-07
9.47389e-05
2.96206e-07
9.47645e-05
2.93514e-07
9.47902e-05
2.88663e-07
9.48157e-05
2.82086e-07
9.48412e-05
2.74146e-07
9.48664e-05
2.65139e-07
9.48915e-05
2.55302e-07
9.49163e-05
2.44826e-07
9.4941e-05
2.33857e-07
9.49655e-05
2.22505e-07
9.499e-05
2.10849e-07
9.50143e-05
1.98942e-07
9.50385e-05
1.86814e-07
9.50627e-05
1.74476e-07
9.50869e-05
1.6192e-07
9.51111e-05
1.49127e-07
9.51353e-05
1.36067e-07
9.51594e-05
1.22707e-07
9.51835e-05
1.09006e-07
9.49319e-08
9.52074e-05
9.72879e-05
1.52425e-08
9.72841e-05
4.41668e-08
9.72806e-05
7.43662e-08
9.72794e-05
1.06135e-07
9.7282e-05
1.38377e-07
9.72891e-05
1.69252e-07
9.73005e-05
1.97028e-07
9.73156e-05
2.20629e-07
9.73337e-05
2.39579e-07
9.73543e-05
2.5384e-07
9.73765e-05
2.63676e-07
9.74e-05
2.69531e-07
9.74243e-05
2.71925e-07
9.74491e-05
2.71385e-07
9.74742e-05
2.68406e-07
9.74995e-05
2.63432e-07
9.75247e-05
2.56847e-07
9.75499e-05
2.48975e-07
9.75749e-05
2.40083e-07
9.75998e-05
2.3039e-07
9.76246e-05
2.20067e-07
9.76492e-05
2.0925e-07
9.76737e-05
1.98042e-07
9.7698e-05
1.86516e-07
9.77222e-05
1.74722e-07
9.77463e-05
1.62691e-07
9.77704e-05
1.50436e-07
9.77944e-05
1.37955e-07
9.78182e-05
1.25241e-07
9.7842e-05
1.12274e-07
9.78657e-05
9.90352e-08
9.78892e-05
8.55e-08
7.16545e-08
9.79125e-05
0.000100068
1.58873e-08
0.000100067
4.571e-08
0.000100066
7.53148e-08
0.000100067
1.05049e-07
0.000100071
1.34142e-07
0.000100079
1.61353e-07
0.000100091
1.85499e-07
0.000100105
2.05825e-07
0.000100123
2.22004e-07
0.000100143
2.34039e-07
0.000100164
2.42164e-07
0.000100187
2.46755e-07
0.000100211
2.48253e-07
0.000100235
2.47108e-07
0.00010026
2.43751e-07
0.000100285
2.38568e-07
0.00010031
2.31899e-07
0.000100335
2.24031e-07
0.000100359
2.15204e-07
0.000100384
2.05615e-07
0.000100409
1.9542e-07
0.000100433
1.84742e-07
0.000100458
1.73676e-07
0.000100482
1.62289e-07
0.000100506
1.50631e-07
0.00010053
1.3873e-07
0.000100554
1.26604e-07
0.000100577
1.14257e-07
0.000100601
1.01687e-07
0.000100624
8.88878e-08
0.000100648
7.58473e-08
0.000100671
6.25598e-08
4.90159e-08
0.000100693
0.000102928
1.58988e-08
0.000102928
4.57358e-08
0.000102929
7.44372e-08
0.000102932
1.02264e-07
0.000102937
1.28648e-07
0.000102946
1.52741e-07
0.000102958
1.73751e-07
0.000102972
1.91181e-07
0.000102989
2.04842e-07
0.000103009
2.14788e-07
0.00010303
2.21251e-07
0.000103052
2.24567e-07
0.000103075
2.25122e-07
0.000103099
2.23308e-07
0.000103123
2.19501e-07
0.000103147
2.1404e-07
0.000103172
2.07223e-07
0.000103197
1.99306e-07
0.000103222
1.90502e-07
0.000103246
1.80986e-07
0.000103271
1.70899e-07
0.000103295
1.60352e-07
0.000103319
1.49431e-07
0.000103343
1.38199e-07
0.000103367
1.267e-07
0.000103391
1.14965e-07
0.000103415
1.03013e-07
0.000103438
9.0854e-08
0.000103461
7.84909e-08
0.000103484
6.59256e-08
0.000103507
5.31565e-08
0.000103529
4.01833e-08
2.70057e-08
0.000103551
0.000105869
1.5534e-08
0.00010587
4.47917e-08
0.000105872
7.2355e-08
0.000105876
9.83362e-08
0.000105882
1.22292e-07
0.000105891
1.43641e-07
0.000105903
1.61873e-07
0.000105918
1.76692e-07
0.000105935
1.88034e-07
0.000105953
1.9601e-07
0.000105974
2.0086e-07
0.000105996
2.02901e-07
0.000106018
2.0248e-07
0.000106042
1.99947e-07
0.000106065
1.95632e-07
0.00010609
1.89835e-07
0.000106114
1.82818e-07
0.000106138
1.74806e-07
0.000106163
1.65988e-07
0.000106187
1.5652e-07
0.000106212
1.46525e-07
0.000106236
1.36105e-07
0.00010626
1.25335e-07
0.000106284
1.14271e-07
0.000106308
1.02959e-07
0.000106331
9.14249e-08
0.000106355
7.96926e-08
0.000106378
6.7771e-08
0.000106401
5.56741e-08
0.000106423
4.34024e-08
0.000106445
3.09667e-08
0.000106467
1.8366e-08
5.61138e-09
0.000106489
0.000108894
1.49723e-08
0.000108895
4.33083e-08
0.000108898
6.96016e-08
0.000108903
9.37911e-08
0.00010891
1.1551e-07
0.000108919
1.34366e-07
0.000108931
1.50062e-07
0.000108945
1.62471e-07
0.000108961
1.71634e-07
0.00010898
1.77721e-07
0.000108999
1.80992e-07
0.000109021
1.81752e-07
0.000109043
1.80325e-07
0.000109066
1.77027e-07
0.000109089
1.72152e-07
0.000109113
1.65966e-07
0.000109137
1.587e-07
0.000109161
1.50552e-07
0.000109186
1.41687e-07
0.00010921
1.32242e-07
0.000109234
1.22327e-07
0.000109258
1.12029e-07
0.000109282
1.01414e-07
0.000109306
9.05375e-08
0.000109329
7.94347e-08
0.000109353
6.8137e-08
0.000109376
5.66626e-08
0.000109398
4.50296e-08
0.000109421
3.32461e-08
0.000109443
2.13255e-08
0.000109465
9.27319e-09
0.000109486
-2.89962e-09
-1.51844e-08
0.000109507
0.000112005
1.43477e-08
0.000112007
4.16422e-08
0.00011201
6.66527e-08
0.000112014
8.9132e-08
0.000112021
1.0876e-07
0.00011203
1.25297e-07
0.000112042
1.38615e-07
0.000112055
1.48736e-07
0.000112071
1.55799e-07
0.000112089
1.60036e-07
0.000112108
1.6173e-07
0.000112129
1.61186e-07
0.00011215
1.58711e-07
0.000112173
1.54595e-07
0.000112196
1.49104e-07
0.000112219
1.42474e-07
0.000112243
1.34908e-07
0.000112267
1.2658e-07
0.000112291
1.17634e-07
0.000112315
1.08186e-07
0.000112339
9.83342e-08
0.000112363
8.81513e-08
0.000112387
7.76984e-08
0.00011241
6.70193e-08
0.000112434
5.61502e-08
0.000112457
4.51168e-08
0.000112479
3.39393e-08
0.000112502
2.2633e-08
0.000112524
1.12112e-08
0.000112545
-3.14763e-10
0.000112567
-1.19333e-08
0.000112587
-2.36346e-08
-3.54068e-08
0.000112608
0.000115205
1.37729e-08
0.000115207
4.01163e-08
0.000115209
6.39644e-08
0.000115214
8.48679e-08
0.00011522
1.02542e-07
0.000115228
1.16879e-07
0.000115239
1.27912e-07
0.000115252
1.35799e-07
0.000115267
1.40784e-07
0.000115284
1.43159e-07
0.000115302
1.43239e-07
0.000115322
1.41337e-07
0.000115343
1.37748e-07
0.000115365
1.32744e-07
0.000115387
1.26566e-07
0.00011541
1.19425e-07
0.000115434
1.115e-07
0.000115457
1.02939e-07
0.000115481
9.38684e-08
0.000115505
8.43866e-08
0.000115529
7.45751e-08
0.000115552
6.4497e-08
0.000115576
5.42032e-08
0.000115599
4.37309e-08
0.000115622
3.31121e-08
0.000115645
2.23672e-08
0.000115667
1.15165e-08
0.000115689
5.72677e-10
0.000115711
-1.04493e-08
0.000115732
-2.15392e-08
0.000115753
-3.26835e-08
0.000115773
-4.38733e-08
-5.50943e-08
0.000115793
0.000118496
1.33591e-08
0.000118497
3.90646e-08
0.000118499
6.20233e-08
0.000118503
8.15586e-08
0.000118508
9.74228e-08
0.000118515
1.09648e-07
0.000118524
1.1843e-07
0.000118536
1.24074e-07
0.00011855
1.26935e-07
0.000118566
1.27379e-07
0.000118583
1.25759e-07
0.000118602
1.22399e-07
0.000118622
1.17595e-07
0.000118643
1.11601e-07
0.000118665
1.04641e-07
0.000118688
9.69006e-08
0.000118711
8.85367e-08
0.000118734
7.96771e-08
0.000118758
7.04251e-08
0.000118781
6.08657e-08
0.000118805
5.10624e-08
0.000118828
4.10701e-08
0.000118851
3.0925e-08
0.000118874
2.06627e-08
0.000118897
1.03016e-08
0.00011892
-1.35009e-10
0.000118942
-1.06372e-08
0.000118964
-2.11873e-08
0.000118985
-3.17788e-08
0.000119006
-4.23958e-08
0.000119026
-5.30321e-08
0.000119046
-6.3673e-08
-7.4312e-08
0.000119065
0.000121881
1.32372e-08
0.000121882
3.88841e-08
0.000121882
6.14131e-08
0.000121884
7.98787e-08
0.000121887
9.40931e-08
0.000121893
1.0426e-07
0.0001219
1.10764e-07
0.00012191
1.14082e-07
0.000121922
1.14699e-07
0.000121937
1.13068e-07
0.000121953
1.09591e-07
0.000121971
1.04617e-07
0.00012199
9.84419e-08
0.00012201
9.13134e-08
0.000122031
8.34358e-08
0.000122053
7.49759e-08
0.000122076
6.60679e-08
0.000122099
5.68178e-08
0.000122122
4.7312e-08
0.000122145
3.76139e-08
0.000122168
2.77767e-08
0.000122192
1.78365e-08
0.000122215
7.82531e-09
0.000122238
-2.23858e-09
0.00012226
-1.23357e-08
0.000122282
-2.2457e-08
0.000122304
-3.25887e-08
0.000122326
-4.27253e-08
0.000122347
-5.28548e-08
0.000122368
-6.2972e-08
0.000122388
-7.3065e-08
0.000122407
-8.31284e-08
-9.31518e-08
0.000122426
0.000125363
1.35869e-08
0.000125362
4.01136e-08
0.00012536
6.29126e-08
0.00012536
8.07141e-08
0.00012536
9.34504e-08
0.000125363
1.0156e-07
0.000125368
1.0567e-07
0.000125376
1.06473e-07
0.000125386
1.04617e-07
0.000125398
1.00663e-07
0.000125413
9.50798e-08
0.000125429
8.82492e-08
0.000125447
8.04772e-08
0.000125466
7.20061e-08
0.000125487
6.30258e-08
0.000125508
5.36832e-08
0.00012553
4.40904e-08
0.000125552
3.43336e-08
0.000125575
2.44754e-08
0.000125598
1.45639e-08
0.000125621
4.63221e-09
0.000125645
-5.29559e-09
0.000125668
-1.52036e-08
0.00012569
-2.50808e-08
0.000125713
-3.49203e-08
0.000125735
-4.4717e-08
0.000125757
-5.4467e-08
0.000125779
-6.41666e-08
0.0001258
-7.38118e-08
0.00012582
-8.33978e-08
0.00012584
-9.29197e-08
0.000125859
-1.02372e-07
-1.1175e-07
0.000125878
0.000128944
1.46848e-08
0.000128941
4.35562e-08
0.000128936
6.76446e-08
0.000128931
8.53035e-08
0.000128928
9.67119e-08
0.000128927
1.02659e-07
0.000128928
1.04108e-07
0.000128933
1.02038e-07
0.00012894
9.73136e-08
0.00012895
9.06369e-08
0.000128963
8.25626e-08
0.000128977
7.35182e-08
0.000128994
6.38266e-08
0.000129012
5.37274e-08
0.000129032
4.33953e-08
0.000129053
3.29577e-08
0.000129074
2.25018e-08
0.000129097
1.20906e-08
0.000129119
1.76226e-09
0.000129142
-8.45555e-09
0.000129165
-1.85519e-08
0.000129189
-2.85179e-08
0.000129212
-3.83552e-08
0.000129235
-4.80639e-08
0.000129258
-5.76503e-08
0.00012928
-6.71171e-08
0.000129302
-7.64704e-08
0.000129324
-8.57121e-08
0.000129345
-9.48456e-08
0.000129365
-1.03871e-07
0.000129385
-1.12788e-07
0.000129404
-1.21596e-07
-1.30295e-07
0.000129423
0.000132627
1.69954e-08
0.00013262
5.04966e-08
0.00013261
7.73187e-08
0.0001326
9.54484e-08
0.000132591
1.0557e-07
0.000132585
1.09024e-07
0.000132582
1.07267e-07
0.000132582
1.01689e-07
0.000132586
9.34442e-08
0.000132593
8.342e-08
0.000132603
7.22822e-08
0.000132616
6.05154e-08
0.000132632
4.84621e-08
0.000132649
3.63568e-08
0.000132668
2.43571e-08
0.000132688
1.25608e-08
0.00013271
1.03011e-09
0.000132732
-1.02079e-08
0.000132755
-2.11373e-08
0.000132778
-3.17653e-08
0.000132802
-4.20973e-08
0.000132826
-5.21538e-08
0.000132849
-6.19479e-08
0.000132873
-7.15032e-08
0.000132896
-8.08332e-08
0.000132919
-8.99594e-08
0.000132941
-9.88924e-08
0.000132963
-1.07649e-07
0.000132984
-1.16235e-07
0.000133005
-1.24662e-07
0.000133025
-1.32933e-07
0.000133045
-1.41057e-07
-1.49032e-07
0.000133064
0.000136414
2.13545e-08
0.000136401
6.30909e-08
0.000136384
9.46212e-08
0.000136366
1.13812e-07
0.000136349
1.22374e-07
0.000136335
1.22543e-07
0.000136326
1.16541e-07
0.000136321
1.06362e-07
0.000136321
9.35561e-08
0.000136325
7.92466e-08
0.000136334
6.42304e-08
0.000136345
4.90513e-08
0.000136359
3.4064e-08
0.000136376
1.94853e-08
0.000136395
5.44055e-09
0.000136416
-8.01112e-09
0.000136438
-2.08514e-08
0.00013646
-3.30904e-08
0.000136484
-4.47556e-08
0.000136508
-5.58832e-08
0.000136533
-6.65155e-08
0.000136557
-7.66938e-08
0.000136582
-8.64612e-08
0.000136606
-9.58553e-08
0.00013663
-1.04914e-07
0.000136654
-1.13666e-07
0.000136677
-1.22143e-07
0.0001367
-1.30366e-07
0.000136722
-1.38358e-07
0.000136743
-1.46132e-07
0.000136764
-1.53704e-07
0.000136784
-1.61084e-07
-1.68282e-07
0.000136803
0.000140308
2.93527e-08
0.000140286
8.50916e-08
0.000140257
1.23841e-07
0.000140226
1.44311e-07
0.000140198
1.50279e-07
0.000140175
1.45474e-07
0.000140158
1.33339e-07
0.000140148
1.16765e-07
0.000140144
9.78179e-08
0.000140145
7.78909e-08
0.000140151
5.79062e-08
0.000140162
3.8445e-08
0.000140176
1.98389e-08
0.000140193
2.25962e-09
0.000140213
-1.42335e-08
0.000140235
-2.96397e-08
0.000140258
-4.40081e-08
0.000140282
-5.74011e-08
0.000140307
-6.99022e-08
0.000140333
-8.15884e-08
0.000140359
-9.25454e-08
0.000140385
-1.02845e-07
0.000140411
-1.12563e-07
0.000140437
-1.21758e-07
0.000140463
-1.30492e-07
0.000140488
-1.38812e-07
0.000140513
-1.46764e-07
0.000140537
-1.54382e-07
0.00014056
-1.61702e-07
0.000140583
-1.68747e-07
0.000140604
-1.75541e-07
0.000140625
-1.82102e-07
-1.88447e-07
0.000140646
0.00014431
4.41949e-08
0.000144272
1.23178e-07
0.000144224
1.71798e-07
0.000144175
1.92525e-07
0.000144133
1.93218e-07
0.000144098
1.80109e-07
0.000144073
1.58612e-07
0.000144057
1.32879e-07
0.000144049
1.0556e-07
0.000144048
7.82706e-08
0.000144054
5.19905e-08
0.000144066
2.72565e-08
0.000144081
4.31048e-09
0.0001441
-1.67911e-08
0.000144122
-3.60914e-08
0.000144146
-5.36981e-08
0.000144172
-6.97428e-08
0.000144199
-8.43752e-08
0.000144227
-9.77382e-08
0.000144255
-1.09975e-07
0.000144284
-1.21213e-07
0.000144312
-1.31573e-07
0.000144341
-1.41157e-07
0.000144369
-1.50063e-07
0.000144397
-1.58369e-07
0.000144424
-1.6615e-07
0.000144451
-1.73464e-07
0.000144477
-1.80368e-07
0.000144502
-1.86901e-07
0.000144527
-1.93106e-07
0.00014455
-1.99011e-07
0.000144573
-2.04646e-07
-2.10032e-07
0.000144594
0.000148419
7.27448e-08
0.000148353
1.89351e-07
0.000148276
2.4899e-07
0.000148203
2.6579e-07
0.000148141
2.55334e-07
0.000148093
2.27896e-07
0.00014806
1.91934e-07
0.000148039
1.53162e-07
0.00014803
1.14633e-07
0.000148031
7.79517e-08
0.000148039
4.39596e-08
0.000148053
1.29949e-08
0.000148072
-1.49233e-08
0.000148095
-3.99398e-08
0.000148121
-6.22758e-08
0.00014815
-8.21842e-08
0.00014818
-9.99245e-08
0.000148211
-1.15747e-07
0.000148244
-1.29884e-07
0.000148276
-1.42546e-07
0.000148309
-1.53923e-07
0.000148341
-1.64182e-07
0.000148374
-1.73468e-07
0.000148406
-1.81909e-07
0.000148437
-1.89614e-07
0.000148467
-1.9668e-07
0.000148497
-2.03186e-07
0.000148526
-2.09202e-07
0.000148554
-2.14787e-07
0.000148581
-2.19989e-07
0.000148607
-2.24852e-07
0.000148631
-2.29411e-07
-2.33697e-07
0.000148655
0.000152632
1.29956e-07
0.000152516
3.0534e-07
0.000152394
3.70775e-07
0.000152288
3.72335e-07
0.000152204
3.39268e-07
0.000152144
2.87629e-07
0.000152106
2.30012e-07
0.000152086
1.73442e-07
0.00015208
1.20612e-07
0.000152085
7.25592e-08
0.000152099
2.96394e-08
0.000152121
-8.25258e-09
0.000152147
-4.14961e-08
0.000152178
-7.05528e-08
0.000152211
-9.58968e-08
0.000152247
-1.17977e-07
0.000152284
-1.37214e-07
0.000152323
-1.53984e-07
0.000152361
-1.68624e-07
0.0001524
-1.81428e-07
0.000152439
-1.92651e-07
0.000152477
-2.02515e-07
0.000152515
-2.11212e-07
0.000152552
-2.18903e-07
0.000152588
-2.25729e-07
0.000152623
-2.3181e-07
0.000152657
-2.37248e-07
0.00015269
-2.42127e-07
0.000152722
-2.46523e-07
0.000152753
-2.50495e-07
0.000152782
-2.54097e-07
0.00015281
-2.57372e-07
-2.60359e-07
0.000152836
0.000156935
2.46102e-07
0.00015673
5.11035e-07
0.000156542
5.58882e-07
0.000156395
5.19179e-07
0.000156291
4.42981e-07
0.000156226
3.52514e-07
0.000156192
2.64493e-07
0.00015618
1.85334e-07
0.000156185
1.15563e-07
0.000156203
5.4741e-08
0.00015623
2.28585e-09
0.000156264
-4.26602e-08
0.000156304
-8.1061e-08
0.000156347
-1.13824e-07
0.000156393
-1.4173e-07
0.00015644
-1.6548e-07
0.000156489
-1.85676e-07
0.000156538
-2.02849e-07
0.000156587
-2.17446e-07
0.000156635
-2.29857e-07
0.000156683
-2.40405e-07
0.00015673
-2.49375e-07
0.000156775
-2.56999e-07
0.00015682
-2.63483e-07
0.000156863
-2.68991e-07
0.000156905
-2.73673e-07
0.000156946
-2.77645e-07
0.000156984
-2.81015e-07
0.000157022
-2.83864e-07
0.000157058
-2.86271e-07
0.000157092
-2.88292e-07
0.000157124
-2.89984e-07
-2.91392e-07
0.000157155
0.000161294
4.90865e-07
0.000160931
8.74033e-07
0.000160653
8.36673e-07
0.000160464
7.07627e-07
0.000160352
5.55819e-07
0.000160297
4.06779e-07
0.000160282
2.79342e-07
0.000160294
1.73955e-07
0.000160324
8.57042e-08
0.000160367
1.17044e-08
0.000160419
-4.99706e-08
0.000160478
-1.01217e-07
0.00016054
-1.43813e-07
0.000160606
-1.79198e-07
0.000160672
-2.08541e-07
0.00016074
-2.32809e-07
0.000160807
-2.52834e-07
0.000160873
-2.69304e-07
0.000160939
-2.82803e-07
0.000161003
-2.93808e-07
0.000161065
-3.02728e-07
0.000161126
-3.09896e-07
0.000161184
-3.15599e-07
0.000161241
-3.2007e-07
0.000161295
-3.2351e-07
0.000161348
-3.26081e-07
0.000161398
-3.27927e-07
0.000161446
-3.29158e-07
0.000161492
-3.29877e-07
0.000161536
-3.30159e-07
0.000161578
-3.30076e-07
0.000161618
-3.29679e-07
-3.29021e-07
0.000161655
0.000165516
1.12869e-06
0.000164915
1.47511e-06
0.000164579
1.17257e-06
0.000164389
8.97034e-07
0.000164311
6.34678e-07
0.000164306
4.11004e-07
0.000164344
2.41732e-07
0.000164407
1.11119e-07
0.000164487
5.77473e-09
0.000164578
-7.9818e-08
0.000164677
-1.48815e-07
0.00016478
-2.04267e-07
0.000164885
-2.48852e-07
0.000164991
-2.84611e-07
0.000165095
-3.13116e-07
0.000165198
-3.35664e-07
0.000165298
-3.53333e-07
0.000165396
-3.67004e-07
0.000165491
-3.77396e-07
0.000165582
-3.85095e-07
0.00016567
-3.90585e-07
0.000165754
-3.9426e-07
0.000165835
-3.96447e-07
0.000165912
-3.97414e-07
0.000165986
-3.97383e-07
0.000166057
-3.96537e-07
0.000166124
-3.95028e-07
0.000166188
-3.92981e-07
0.000166248
-3.90503e-07
0.000166306
-3.87683e-07
0.00016636
-3.84599e-07
0.000166412
-3.81319e-07
-3.77915e-07