/*--------------------------------*- C++ -*----------------------------------*\
  =========                 |
  \\      /  F ield         | OpenFOAM: The Open Source CFD Toolbox
   \\    /   O peration     | Website:  https://openfoam.org
    \\  /    A nd           | Version:  10
     \\/     M anipulation  |
\*---------------------------------------------------------------------------*/
FoamFile
{
    format      ascii;
    class       volVectorField;
    location    "900";
    object      U;
}
// * * * * * * * * * * * * * * * * * * * * * * * * * * * * * * * * * * * * * //

dimensions      [0 1 -1 0 0 0 0];

internalField   nonuniform List<vector> 
6820
(
(7.13228 -2.83247 0)
(7.73434 -2.22097 0)
(7.93448 -1.24474 0)
(7.85772 -0.6306 0)
(7.69324 -0.300931 0)
(7.51791 -0.135203 0)
(7.34936 -0.053497 0)
(7.19462 -0.0130607 0)
(7.05693 0.00686792 0)
(6.93548 0.0163327 0)
(6.82782 0.0203895 0)
(6.73174 0.0216665 0)
(6.64552 0.0215373 0)
(6.56772 0.020717 0)
(6.49713 0.0195836 0)
(6.43276 0.0183402 0)
(6.37381 0.0170943 0)
(6.31962 0.0158999 0)
(6.26961 0.0147821 0)
(6.22334 0.0137502 0)
(6.18038 0.0128055 0)
(6.14041 0.0119454 0)
(6.10311 0.0111657 0)
(6.06822 0.0104622 0)
(6.0355 0.00983205 0)
(6.00472 0.00927426 0)
(5.97566 0.00879214 0)
(5.9481 0.00839328 0)
(5.92182 0.00810766 0)
(5.89638 0.00795292 0)
(5.87192 0.00815378 0)
(5.84458 0.00916892 0)
(5.82415 0.0086862 0)
(7.57676 0.619468 0)
(7.41857 0.759315 0)
(7.35518 0.51949 0)
(7.35368 0.338999 0)
(7.40446 0.233424 0)
(7.46266 0.167015 0)
(7.50279 0.124257 0)
(7.52295 0.0970551 0)
(7.52874 0.0793576 0)
(7.52454 0.0672668 0)
(7.51317 0.0586464 0)
(7.49675 0.0523024 0)
(7.47703 0.0474922 0)
(7.4552 0.0437281 0)
(7.43205 0.0406901 0)
(7.40816 0.0381728 0)
(7.38392 0.0360405 0)
(7.35962 0.0341998 0)
(7.33547 0.0325855 0)
(7.3116 0.0311516 0)
(7.28813 0.0298656 0)
(7.26512 0.0287039 0)
(7.24263 0.02765 0)
(7.22068 0.0266929 0)
(7.19929 0.0258267 0)
(7.17846 0.0250507 0)
(7.15821 0.0243725 0)
(7.1385 0.0238055 0)
(7.11936 0.0233985 0)
(7.10067 0.0231843 0)
(7.08274 0.0234634 0)
(7.06438 0.0237942 0)
(7.05094 0.0280275 0)
(7.26194 -0.0479142 0)
(7.1598 -0.071898 0)
(7.1968 -0.0845011 0)
(7.23914 -0.0533675 0)
(7.27631 -0.0172215 0)
(7.31445 0.00633873 0)
(7.34735 0.0206583 0)
(7.37268 0.0300124 0)
(7.39197 0.0360124 0)
(7.40649 0.0394945 0)
(7.41686 0.0412607 0)
(7.42372 0.0419574 0)
(7.42778 0.0419941 0)
(7.42963 0.0416152 0)
(7.42969 0.0409795 0)
(7.42832 0.0401948 0)
(7.42581 0.0393315 0)
(7.42237 0.0384338 0)
(7.4182 0.03753 0)
(7.41344 0.0366382 0)
(7.40822 0.0357706 0)
(7.40262 0.0349354 0)
(7.39673 0.034139 0)
(7.39061 0.0333871 0)
(7.38431 0.0326865 0)
(7.37788 0.0320462 0)
(7.37134 0.0314816 0)
(7.36471 0.0310121 0)
(7.35803 0.0306873 0)
(7.35127 0.030541 0)
(7.34462 0.0307704 0)
(7.33779 0.0312044 0)
(7.33217 0.0331448 0)
(7.29243 -0.088725 0)
(7.22392 -0.0614714 0)
(7.23482 -0.0268986 0)
(7.25115 -0.00103283 0)
(7.2656 0.018911 0)
(7.28496 0.0304714 0)
(7.30449 0.0362747 0)
(7.32129 0.0394572 0)
(7.33581 0.041242 0)
(7.3485 0.0420204 0)
(7.3593 0.0421322 0)
(7.36831 0.0418693 0)
(7.37577 0.0413998 0)
(7.38189 0.0408074 0)
(7.38687 0.0401425 0)
(7.39086 0.0394407 0)
(7.39401 0.0387253 0)
(7.39644 0.0380105 0)
(7.39825 0.0373054 0)
(7.39954 0.0366163 0)
(7.40038 0.0359484 0)
(7.40083 0.0353059 0)
(7.40094 0.0346933 0)
(7.40077 0.0341159 0)
(7.40035 0.0335812 0)
(7.3997 0.0330995 0)
(7.39887 0.0326872 0)
(7.39786 0.0323659 0)
(7.39672 0.0321788 0)
(7.39547 0.0321612 0)
(7.39421 0.0324368 0)
(7.39292 0.0329267 0)
(7.39212 0.0341641 0)
(7.31244 -0.0515026 0)
(7.26793 -0.0318744 0)
(7.26467 -0.0126182 0)
(7.26769 -5.73089e-05 0)
(7.27322 0.0130539 0)
(7.28435 0.0226488 0)
(7.2969 0.0282846 0)
(7.30832 0.0318848 0)
(7.31872 0.0343775 0)
(7.32832 0.0359806 0)
(7.33699 0.0369021 0)
(7.34469 0.0373717 0)
(7.3515 0.0375427 0)
(7.35754 0.0375026 0)
(7.36288 0.0373112 0)
(7.36761 0.0370144 0)
(7.37178 0.036646 0)
(7.37548 0.0362296 0)
(7.37876 0.0357825 0)
(7.38166 0.0353178 0)
(7.38423 0.0348462 0)
(7.38651 0.0343766 0)
(7.38853 0.0339174 0)
(7.39032 0.0334771 0)
(7.39191 0.0330657 0)
(7.39331 0.0326955 0)
(7.39456 0.0323832 0)
(7.39567 0.0321502 0)
(7.39667 0.0320301 0)
(7.3976 0.0320533 0)
(7.39854 0.0322874 0)
(7.39954 0.0327065 0)
(7.40084 0.0335048 0)
(7.3203 -0.0314398 0)
(7.28849 -0.0238365 0)
(7.28204 -0.0120228 0)
(7.2814 -0.00207132 0)
(7.28395 0.00926813 0)
(7.29102 0.0182384 0)
(7.2996 0.0239853 0)
(7.30775 0.0278602 0)
(7.31544 0.0306276 0)
(7.32274 0.0325034 0)
(7.32954 0.0336889 0)
(7.33576 0.0344012 0)
(7.34145 0.0347907 0)
(7.34667 0.034948 0)
(7.35145 0.0349359 0)
(7.35584 0.0348021 0)
(7.35987 0.0345818 0)
(7.36359 0.0343003 0)
(7.36702 0.033976 0)
(7.37019 0.0336233 0)
(7.37314 0.0332539 0)
(7.37589 0.0328777 0)
(7.37844 0.0325038 0)
(7.38084 0.0321413 0)
(7.38308 0.0318004 0)
(7.3852 0.031493 0)
(7.3872 0.0312341 0)
(7.38911 0.0310419 0)
(7.39096 0.0309406 0)
(7.39279 0.0309518 0)
(7.39466 0.0311097 0)
(7.39663 0.0314015 0)
(7.39885 0.0318818 0)
(7.32446 -0.021666 0)
(7.30104 -0.0195796 0)
(7.29416 -0.0109316 0)
(7.2922 -0.00220128 0)
(7.29331 0.00755326 0)
(7.29804 0.0155724 0)
(7.30422 0.0210663 0)
(7.3104 0.0249147 0)
(7.3164 0.0277098 0)
(7.32221 0.0296657 0)
(7.32771 0.0309703 0)
(7.33286 0.0318141 0)
(7.33765 0.032333 0)
(7.34213 0.0326138 0)
(7.34631 0.0327178 0)
(7.35023 0.0326918 0)
(7.3539 0.0325703 0)
(7.35735 0.0323787 0)
(7.3606 0.032136 0)
(7.36368 0.0318572 0)
(7.36659 0.0315545 0)
(7.36936 0.0312382 0)
(7.372 0.0309177 0)
(7.37452 0.0306021 0)
(7.37694 0.0303012 0)
(7.37927 0.0300259 0)
(7.38153 0.0297885 0)
(7.38373 0.029603 0)
(7.38591 0.0294854 0)
(7.38811 0.0294482 0)
(7.39037 0.0295044 0)
(7.39275 0.0296394 0)
(7.39535 0.029849 0)
(7.32737 -0.014994 0)
(7.31004 -0.015174 0)
(7.30324 -0.00892234 0)
(7.30059 -0.00165157 0)
(7.30082 0.00656113 0)
(7.30407 0.0136092 0)
(7.3087 0.0187457 0)
(7.31359 0.0224827 0)
(7.31849 0.0252487 0)
(7.32331 0.027237 0)
(7.32795 0.0286152 0)
(7.33235 0.0295468 0)
(7.3365 0.0301539 0)
(7.34042 0.0305187 0)
(7.34413 0.0307012 0)
(7.34765 0.030747 0)
(7.35098 0.0306901 0)
(7.35415 0.0305563 0)
(7.35718 0.0303649 0)
(7.36007 0.0301315 0)
(7.36285 0.0298683 0)
(7.36552 0.029586 0)
(7.3681 0.0292939 0)
(7.37059 0.029001 0)
(7.37302 0.0287159 0)
(7.37538 0.0284481 0)
(7.3777 0.028207 0)
(7.38 0.0280024 0)
(7.3823 0.0278433 0)
(7.38463 0.0277346 0)
(7.38704 0.027676 0)
(7.38957 0.0276491 0)
(7.39228 0.0276274 0)
(7.3294 -0.00997751 0)
(7.31672 -0.011121 0)
(7.3103 -0.00679719 0)
(7.30731 -0.000925219 0)
(7.30696 0.00594548 0)
(7.30917 0.0121052 0)
(7.31272 0.0168464 0)
(7.31668 0.0204222 0)
(7.32079 0.0231222 0)
(7.3249 0.0251076 0)
(7.32892 0.0265237 0)
(7.33278 0.0275104 0)
(7.33646 0.0281761 0)
(7.33998 0.0285985 0)
(7.34333 0.028835 0)
(7.34653 0.0289299 0)
(7.34959 0.0289168 0)
(7.35253 0.0288212 0)
(7.35536 0.0286629 0)
(7.35808 0.0284574 0)
(7.36071 0.0282172 0)
(7.36327 0.0279529 0)
(7.36575 0.0276735 0)
(7.36817 0.0273873 0)
(7.37055 0.0271022 0)
(7.37288 0.0268256 0)
(7.3752 0.0265643 0)
(7.3775 0.0263243 0)
(7.37983 0.0261091 0)
(7.38219 0.0259179 0)
(7.38464 0.0257428 0)
(7.38719 0.025563 0)
(7.38988 0.0253459 0)
(7.33075 -0.00639557 0)
(7.32164 -0.00775408 0)
(7.31591 -0.00477654 0)
(7.31286 -8.41819e-05 0)
(7.31212 0.0056296 0)
(7.31358 0.0109715 0)
(7.3163 0.0152882 0)
(7.31955 0.0186566 0)
(7.32303 0.0212535 0)
(7.32661 0.023203 0)
(7.33015 0.0246266 0)
(7.33359 0.0256418 0)
(7.33691 0.026344 0)
(7.34011 0.0268046 0)
(7.34319 0.0270782 0)
(7.34614 0.027207 0)
(7.34899 0.0272239 0)
(7.35174 0.027154 0)
(7.3544 0.0270168 0)
(7.35697 0.0268278 0)
(7.35948 0.0265996 0)
(7.36192 0.0263425 0)
(7.36431 0.0260652 0)
(7.36666 0.0257752 0)
(7.36897 0.0254791 0)
(7.37126 0.0251827 0)
(7.37353 0.0248906 0)
(7.37581 0.0246053 0)
(7.37812 0.0243268 0)
(7.38047 0.0240501 0)
(7.38288 0.0237637 0)
(7.3854 0.0234463 0)
(7.38802 0.0230662 0)
(7.33162 -0.00393038 0)
(7.32523 -0.00505919 0)
(7.32037 -0.00292527 0)
(7.31748 0.000820632 0)
(7.31653 0.00554129 0)
(7.31743 0.0101324 0)
(7.31951 0.014009 0)
(7.32218 0.0171332 0)
(7.32517 0.0195941 0)
(7.32829 0.0214786 0)
(7.33144 0.022883 0)
(7.33455 0.0239041 0)
(7.33758 0.024624 0)
(7.34052 0.0251071 0)
(7.34337 0.0254042 0)
(7.34613 0.0255552 0)
(7.3488 0.0255916 0)
(7.35139 0.0255378 0)
(7.35391 0.0254129 0)
(7.35637 0.0252324 0)
(7.35876 0.0250083 0)
(7.36111 0.0247508 0)
(7.36342 0.0244679 0)
(7.36569 0.0241666 0)
(7.36793 0.0238522 0)
(7.37016 0.023529 0)
(7.37239 0.0231995 0)
(7.37463 0.0228641 0)
(7.37689 0.02252 0)
(7.3792 0.0221601 0)
(7.38156 0.0217715 0)
(7.384 0.021334 0)
(7.38652 0.0208195 0)
(7.33218 -0.00226162 0)
(7.32778 -0.00295598 0)
(7.32388 -0.00130448 0)
(7.32132 0.0017159 0)
(7.3203 0.00560519 0)
(7.32082 0.00952103 0)
(7.32241 0.0129591 0)
(7.32461 0.0158147 0)
(7.32717 0.0181132 0)
(7.32991 0.0199073 0)
(7.33273 0.0212689 0)
(7.33556 0.0222754 0)
(7.33834 0.0229959 0)
(7.34107 0.0234873 0)
(7.34372 0.023796 0)
(7.34631 0.023959 0)
(7.34884 0.024006 0)
(7.3513 0.0239605 0)
(7.3537 0.023841 0)
(7.35605 0.0236623 0)
(7.35835 0.0234364 0)
(7.36061 0.0231726 0)
(7.36284 0.0228787 0)
(7.36504 0.0225607 0)
(7.36722 0.022223 0)
(7.36939 0.0218685 0)
(7.37157 0.0214983 0)
(7.37375 0.0211111 0)
(7.37596 0.0207027 0)
(7.37821 0.0202649 0)
(7.3805 0.0197849 0)
(7.38285 0.0192448 0)
(7.38526 0.0186207 0)
(7.33252 -0.00114994 0)
(7.32957 -0.00136375 0)
(7.32658 4.38656e-05 0)
(7.32445 0.00253453 0)
(7.32349 0.00575128 0)
(7.32378 0.00907661 0)
(7.325 0.0120945 0)
(7.32682 0.0146705 0)
(7.32902 0.0167874 0)
(7.33145 0.0184699 0)
(7.33398 0.0197681 0)
(7.33656 0.0207414 0)
(7.33912 0.0214468 0)
(7.34166 0.0219334 0)
(7.34415 0.0222426 0)
(7.3466 0.0224082 0)
(7.34899 0.0224579 0)
(7.35133 0.0224137 0)
(7.35363 0.0222935 0)
(7.35589 0.0221113 0)
(7.3581 0.0218785 0)
(7.36029 0.021604 0)
(7.36244 0.0212949 0)
(7.36458 0.0209564 0)
(7.3667 0.0205921 0)
(7.36882 0.020204 0)
(7.37094 0.0197919 0)
(7.37306 0.0193536 0)
(7.37521 0.0188842 0)
(7.37739 0.0183753 0)
(7.3796 0.0178154 0)
(7.38186 0.0171888 0)
(7.38415 0.0164762 0)
(7.33273 -0.000424436 0)
(7.3308 -0.000198456 0)
(7.32861 0.00110946 0)
(7.32695 0.00322871 0)
(7.32615 0.00591856 0)
(7.32632 0.00874267 0)
(7.32729 0.0113728 0)
(7.32882 0.0136706 0)
(7.33073 0.015595 0)
(7.33288 0.0171502 0)
(7.33516 0.0183677 0)
(7.33752 0.0192917 0)
(7.33989 0.0199677 0)
(7.34226 0.0204373 0)
(7.34461 0.0207366 0)
(7.34692 0.0208961 0)
(7.3492 0.020941 0)
(7.35144 0.0208919 0)
(7.35364 0.0207655 0)
(7.35581 0.020575 0)
(7.35795 0.0203312 0)
(7.36006 0.0200423 0)
(7.36215 0.0197148 0)
(7.36423 0.0193532 0)
(7.36629 0.0189604 0)
(7.36835 0.0185376 0)
(7.37041 0.0180841 0)
(7.37248 0.017597 0)
(7.37456 0.0170711 0)
(7.37666 0.0164989 0)
(7.37879 0.0158699 0)
(7.38095 0.0151714 0)
(7.38312 0.0143877 0)
(7.33285 3.74568e-05 0)
(7.33162 0.000623714 0)
(7.3301 0.00190776 0)
(7.32889 0.00377202 0)
(7.3283 0.00605883 0)
(7.32845 0.00846874 0)
(7.32926 0.0107528 0)
(7.33058 0.0127849 0)
(7.33225 0.0145145 0)
(7.33417 0.0159322 0)
(7.33625 0.0170559 0)
(7.33841 0.017917 0)
(7.34061 0.0185511 0)
(7.34283 0.0189927 0)
(7.34504 0.0192726 0)
(7.34724 0.0194178 0)
(7.34941 0.0194511 0)
(7.35156 0.0193912 0)
(7.35367 0.0192536 0)
(7.35577 0.0190506 0)
(7.35783 0.0187921 0)
(7.35988 0.0184858 0)
(7.36191 0.0181375 0)
(7.36392 0.0177511 0)
(7.36592 0.017329 0)
(7.36792 0.0168717 0)
(7.36992 0.0163782 0)
(7.37193 0.0158454 0)
(7.37394 0.0152685 0)
(7.37597 0.0146406 0)
(7.37801 0.013953 0)
(7.38007 0.0131952 0)
(7.38214 0.012355 0)
(7.33292 0.000322334 0)
(7.33217 0.00117915 0)
(7.33117 0.00246981 0)
(7.33036 0.00415742 0)
(7.32999 0.00613931 0)
(7.33019 0.00821354 0)
(7.33092 0.0101971 0)
(7.33209 0.0119841 0)
(7.33358 0.0135235 0)
(7.33531 0.0147997 0)
(7.33721 0.0158208 0)
(7.3392 0.0166086 0)
(7.34126 0.0171904 0)
(7.34334 0.0175942 0)
(7.34543 0.0178461 0)
(7.34752 0.0179696 0)
(7.3496 0.0179849 0)
(7.35166 0.0179088 0)
(7.35369 0.0177555 0)
(7.35571 0.0175362 0)
(7.35771 0.01726 0)
(7.35969 0.016934 0)
(7.36166 0.0165631 0)
(7.36361 0.016151 0)
(7.36556 0.0156994 0)
(7.3675 0.0152086 0)
(7.36944 0.0146774 0)
(7.37138 0.0141028 0)
(7.37332 0.0134804 0)
(7.37527 0.0128044 0)
(7.37723 0.0120676 0)
(7.37919 0.0112615 0)
(7.38115 0.0103769 0)
(7.33296 0.000489992 0)
(7.33253 0.00153303 0)
(7.33192 0.00283378 0)
(7.33145 0.00439305 0)
(7.33129 0.00614272 0)
(7.33157 0.00794713 0)
(7.33227 0.0096747 0)
(7.33334 0.0112409 0)
(7.3347 0.0126006 0)
(7.33628 0.0137361 0)
(7.33803 0.01465 0)
(7.33988 0.0153573 0)
(7.3418 0.0158786 0)
(7.34377 0.0162366 0)
(7.34575 0.0164531 0)
(7.34774 0.0165483 0)
(7.34973 0.0165398 0)
(7.3517 0.0164427 0)
(7.35367 0.0162696 0)
(7.35561 0.0160307 0)
(7.35755 0.0157343 0)
(7.35947 0.0153866 0)
(7.36138 0.0149921 0)
(7.36327 0.0145538 0)
(7.36516 0.0140733 0)
(7.36704 0.0135506 0)
(7.36892 0.0129845 0)
(7.37079 0.0123722 0)
(7.37266 0.0117101 0)
(7.37454 0.0109932 0)
(7.37641 0.0102157 0)
(7.37827 0.00937098 0)
(7.38013 0.00845208 0)
(7.33299 0.000580997 0)
(7.33276 0.00173851 0)
(7.33244 0.00303899 0)
(7.33222 0.00449688 0)
(7.33226 0.00606504 0)
(7.33262 0.0076514 0)
(7.33332 0.00916236 0)
(7.33433 0.0105331 0)
(7.33559 0.0117263 0)
(7.33706 0.0127258 0)
(7.33868 0.0135315 0)
(7.34042 0.0141539 0)
(7.34222 0.0146088 0)
(7.34408 0.0149147 0)
(7.34596 0.0150896 0)
(7.34786 0.0151508 0)
(7.34977 0.0151136 0)
(7.35167 0.0149912 0)
(7.35356 0.0147948 0)
(7.35545 0.0145336 0)
(7.35732 0.0142148 0)
(7.35918 0.013844 0)
(7.36102 0.0134253 0)
(7.36286 0.0129611 0)
(7.36469 0.0124527 0)
(7.36651 0.0119002 0)
(7.36832 0.0113023 0)
(7.37013 0.0106568 0)
(7.37193 0.00996041 0)
(7.37373 0.00920924 0)
(7.37552 0.00839874 0)
(7.37729 0.00752385 0)
(7.37905 0.00657927 0)
(7.333 0.000622553 0)
(7.33291 0.00183759 0)
(7.33278 0.00312227 0)
(7.33276 0.00449203 0)
(7.33294 0.00591225 0)
(7.33338 0.00731898 0)
(7.33409 0.00864574 0)
(7.33506 0.00984409 0)
(7.33626 0.010885 0)
(7.33764 0.0117552 0)
(7.33916 0.0124542 0)
(7.34079 0.0129897 0)
(7.3425 0.0133745 0)
(7.34426 0.0136235 0)
(7.34606 0.013752 0)
(7.34787 0.0137746 0)
(7.3497 0.0137044 0)
(7.35153 0.0135532 0)
(7.35335 0.0133306 0)
(7.35517 0.0130446 0)
(7.35698 0.0127018 0)
(7.35879 0.0123071 0)
(7.36058 0.0118639 0)
(7.36235 0.0113744 0)
(7.36412 0.0108397 0)
(7.36588 0.0102597 0)
(7.36763 0.00963336 0)
(7.36937 0.0089589 0)
(7.3711 0.00823366 0)
(7.37282 0.00745454 0)
(7.37453 0.006618 0)
(7.37622 0.00572029 0)
(7.37789 0.00475743 0)
(7.333 0.000632805 0)
(7.333 0.0018628 0)
(7.33301 0.00311613 0)
(7.33312 0.00440325 0)
(7.3334 0.00569687 0)
(7.3339 0.00695118 0)
(7.33462 0.00811877 0)
(7.33557 0.00916416 0)
(7.33671 0.0100658 0)
(7.33801 0.0108142 0)
(7.33945 0.0114093 0)
(7.34099 0.0118577 0)
(7.34261 0.0121701 0)
(7.34429 0.012359 0)
(7.346 0.0124372 0)
(7.34774 0.0124175 0)
(7.34949 0.012311 0)
(7.35126 0.0121278 0)
(7.35302 0.0118765 0)
(7.35477 0.011564 0)
(7.35653 0.0111961 0)
(7.35827 0.0107768 0)
(7.36 0.0103093 0)
(7.36172 0.00979547 0)
(7.36343 0.00923614 0)
(7.36513 0.00863129 0)
(7.36681 0.00798006 0)
(7.36849 0.00728097 0)
(7.37015 0.00653195 0)
(7.37179 0.00573066 0)
(7.37341 0.00487439 0)
(7.37502 0.00396039 0)
(7.3766 0.00298567 0)
(7.33301 0.000623914 0)
(7.33305 0.00183911 0)
(7.33314 0.0030484 0)
(7.33333 0.00425479 0)
(7.33368 0.00543522 0)
(7.33421 0.00655578 0)
(7.33494 0.00758251 0)
(7.33585 0.00849008 0)
(7.33694 0.00926349 0)
(7.33818 0.00989677 0)
(7.33954 0.0103912 0)
(7.341 0.010753 0)
(7.34254 0.0109917 0)
(7.34414 0.011118 0)
(7.34578 0.0111433 0)
(7.34745 0.0110782 0)
(7.34913 0.0109325 0)
(7.35083 0.010715 0)
(7.35252 0.010433 0)
(7.35422 0.0100926 0)
(7.35591 0.00969857 0)
(7.3576 0.00925463 0)
(7.35927 0.00876334 0)
(7.36093 0.00822631 0)
(7.36258 0.00764429 0)
(7.36422 0.00701725 0)
(7.36584 0.00634454 0)
(7.36745 0.00562497 0)
(7.36904 0.00485702 0)
(7.37061 0.00403885 0)
(7.37215 0.00316855 0)
(7.37368 0.00224403 0)
(7.37517 0.00126315 0)
(7.33301 0.000604205 0)
(7.33307 0.0017859 0)
(7.33321 0.00294275 0)
(7.33344 0.00406956 0)
(7.33382 0.00514557 0)
(7.33435 0.00614503 0)
(7.33506 0.00704379 0)
(7.33594 0.00782455 0)
(7.33698 0.00847793 0)
(7.33815 0.0090014 0)
(7.33944 0.00939779 0)
(7.34082 0.00967363 0)
(7.34228 0.0098377 0)
(7.34381 0.00989974 0)
(7.34537 0.00986961 0)
(7.34697 0.00975669 0)
(7.34858 0.00956951 0)
(7.35021 0.00931555 0)
(7.35185 0.00900116 0)
(7.35349 0.00863156 0)
(7.35512 0.00821087 0)
(7.35674 0.00774221 0)
(7.35836 0.00722775 0)
(7.35996 0.00666883 0)
(7.36156 0.00606609 0)
(7.36313 0.00541953 0)
(7.36469 0.00472865 0)
(7.36623 0.00399255 0)
(7.36775 0.00321009 0)
(7.36925 0.00237992 0)
(7.37072 0.00150066 0)
(7.37217 0.000570814 0)
(7.37359 -0.000411165 0)
(7.33301 0.000579664 0)
(7.33308 0.0017187 0)
(7.33322 0.00281973 0)
(7.33346 0.00386912 0)
(7.33383 0.00484728 0)
(7.33435 0.00573441 0)
(7.33502 0.00651397 0)
(7.33584 0.00717539 0)
(7.33681 0.00771427 0)
(7.33791 0.00813138 0)
(7.33913 0.00843131 0)
(7.34043 0.00862117 0)
(7.34182 0.00870952 0)
(7.34326 0.00870536 0)
(7.34476 0.00861758 0)
(7.34628 0.00845446 0)
(7.34783 0.00822347 0)
(7.3494 0.00793106 0)
(7.35097 0.00758269 0)
(7.35254 0.00718278 0)
(7.35412 0.00673483 0)
(7.35568 0.00624144 0)
(7.35724 0.0057044 0)
(7.35879 0.00512484 0)
(7.36032 0.00450326 0)
(7.36184 0.00383968 0)
(7.36333 0.0031337 0)
(7.36481 0.00238468 0)
(7.36626 0.00159174 0)
(7.36769 0.000753955 0)
(7.3691 -0.000129698 0)
(7.37047 -0.00106023 0)
(7.37181 -0.00203881 0)
(7.33301 0.000555011 0)
(7.33307 0.00165089 0)
(7.3332 0.00269821 0)
(7.33341 0.00367457 0)
(7.33374 0.00456085 0)
(7.3342 0.00534213 0)
(7.33481 0.00600833 0)
(7.33556 0.00655493 0)
(7.33645 0.00698229 0)
(7.33747 0.00729445 0)
(7.3386 0.00749791 0)
(7.33982 0.00760068 0)
(7.34113 0.00761139 0)
(7.34249 0.00753862 0)
(7.34391 0.00739052 0)
(7.34536 0.00717453 0)
(7.34684 0.0068972 0)
(7.34834 0.00656412 0)
(7.34985 0.00617994 0)
(7.35136 0.0057484 0)
(7.35288 0.0052724 0)
(7.35439 0.00475406 0)
(7.35589 0.00419487 0)
(7.35738 0.00359566 0)
(7.35885 0.00295687 0)
(7.36031 0.00227845 0)
(7.36175 0.00156013 0)
(7.36316 0.000801372 0)
(7.36455 1.56927e-06 0)
(7.36592 -0.000839981 0)
(7.36725 -0.00172395 0)
(7.36856 -0.00265109 0)
(7.36983 -0.00362222 0)
(7.33301 0.000534533 0)
(7.33305 0.00159538 0)
(7.33313 0.00259717 0)
(7.33329 0.00350801 0)
(7.33354 0.00430893 0)
(7.33392 0.0049896 0)
(7.33443 0.0055461 0)
(7.33509 0.0059799 0)
(7.33588 0.00629622 0)
(7.3368 0.00650258 0)
(7.33784 0.00660767 0)
(7.33897 0.00662063 0)
(7.34018 0.00655042 0)
(7.34146 0.00640549 0)
(7.34279 0.00619348 0)
(7.34417 0.00592114 0)
(7.34558 0.00559426 0)
(7.34701 0.00521768 0)
(7.34846 0.00479534 0)
(7.34991 0.00433035 0)
(7.35137 0.00382506 0)
(7.35282 0.00328117 0)
(7.35427 0.00269979 0)
(7.3557 0.00208158 0)
(7.35712 0.00142677 0)
(7.35852 0.000735309 0)
(7.35991 6.90608e-06 0)
(7.36126 -0.000758836 0)
(7.3626 -0.00156243 0)
(7.3639 -0.00240434 0)
(7.36518 -0.00328511 0)
(7.36642 -0.00420522 0)
(7.36763 -0.00516532 0)
(7.333 0.000522857 0)
(7.33301 0.00156642 0)
(7.33303 0.00253805 0)
(7.33309 0.0033948 0)
(7.33323 0.00411807 0)
(7.33348 0.00470264 0)
(7.33387 0.0051512 0)
(7.3344 0.00547171 0)
(7.33507 0.00567478 0)
(7.33587 0.00577184 0)
(7.33679 0.00577415 0)
(7.33782 0.00569231 0)
(7.33893 0.00553594 0)
(7.34012 0.00531354 0)
(7.34137 0.00503247 0)
(7.34267 0.00469896 0)
(7.34401 0.00431815 0)
(7.34537 0.00389421 0)
(7.34676 0.00343046 0)
(7.34815 0.00292941 0)
(7.34956 0.00239289 0)
(7.35096 0.00182218 0)
(7.35235 0.00121804 0)
(7.35373 0.000580882 0)
(7.3551 -8.92551e-05 0)
(7.35646 -0.000792508 0)
(7.35779 -0.0015292 0)
(7.3591 -0.00229972 0)
(7.36038 -0.00310449 0)
(7.36163 -0.00394391 0)
(7.36286 -0.00481837 0)
(7.36404 -0.00572827 0)
(7.3652 -0.00667416 0)
(7.333 0.000525887 0)
(7.33296 0.00158218 0)
(7.33286 0.00254796 0)
(7.33278 0.00336687 0)
(7.33276 0.00402168 0)
(7.33285 0.00451377 0)
(7.33308 0.00485373 0)
(7.33345 0.00505727 0)
(7.33396 0.00514133 0)
(7.33462 0.005122 0)
(7.33541 0.00501368 0)
(7.33632 0.00482888 0)
(7.33733 0.0045782 0)
(7.33842 0.0042705 0)
(7.33958 0.003913 0)
(7.34081 0.00351154 0)
(7.34207 0.00307073 0)
(7.34338 0.00259415 0)
(7.3447 0.0020845 0)
(7.34605 0.00154371 0)
(7.3474 0.000973119 0)
(7.34875 0.000373523 0)
(7.3501 -0.000254651 0)
(7.35145 -0.000911347 0)
(7.35278 -0.00159669 0)
(7.35409 -0.00231102 0)
(7.35538 -0.00305473 0)
(7.35665 -0.00382828 0)
(7.35789 -0.00463207 0)
(7.3591 -0.00546655 0)
(7.36028 -0.00633202 0)
(7.36142 -0.00722891 0)
(7.36253 -0.00815765 0)
(7.33299 0.000552225 0)
(7.33287 0.00166847 0)
(7.33262 0.00266454 0)
(7.33233 0.0034675 0)
(7.33209 0.00406415 0)
(7.33196 0.0044653 0)
(7.33197 0.00469201 0)
(7.33213 0.00476984 0)
(7.33247 0.00472376 0)
(7.33296 0.00457562 0)
(7.33361 0.00434381 0)
(7.33438 0.00404334 0)
(7.33528 0.00368621 0)
(7.33628 0.00328184 0)
(7.33736 0.00283753 0)
(7.33851 0.00235882 0)
(7.33971 0.00184984 0)
(7.34096 0.00131357 0)
(7.34224 0.00075206 0)
(7.34354 0.000166675 0)
(7.34486 -0.000441858 0)
(7.34618 -0.00107321 0)
(7.3475 -0.00172744 0)
(7.34881 -0.0024048 0)
(7.35011 -0.00310577 0)
(7.3514 -0.00383089 0)
(7.35266 -0.00458074 0)
(7.3539 -0.00535591 0)
(7.35511 -0.00615693 0)
(7.35629 -0.00698427 0)
(7.35744 -0.00783834 0)
(7.35855 -0.00871957 0)
(7.35962 -0.00962844 0)
(7.33299 0.000615706 0)
(7.33274 0.00186518 0)
(7.33225 0.0029436 0)
(7.33167 0.00375859 0)
(7.33112 0.00430669 0)
(7.33069 0.00461337 0)
(7.33042 0.00471452 0)
(7.33034 0.0046493 0)
(7.33045 0.00445323 0)
(7.33076 0.00415573 0)
(7.33125 0.00378024 0)
(7.33189 0.00334501 0)
(7.33268 0.00286385 0)
(7.33359 0.00234697 0)
(7.3346 0.0018018 0)
(7.3357 0.00123358 0)
(7.33686 0.000645883 0)
(7.33807 4.09936e-05 0)
(7.33932 -0.00057974 0)
(7.3406 -0.00121573 0)
(7.3419 -0.00186689 0)
(7.3432 -0.00253355 0)
(7.34451 -0.00321627 0)
(7.34581 -0.00391584 0)
(7.3471 -0.00463308 0)
(7.34837 -0.00536891 0)
(7.34963 -0.00612416 0)
(7.35085 -0.00689968 0)
(7.35205 -0.00769616 0)
(7.35322 -0.00851426 0)
(7.35435 -0.0093545 0)
(7.35545 -0.0102174 0)
(7.3565 -0.0111036 0)
(7.33297 0.000740264 0)
(7.33253 0.00223752 0)
(7.33168 0.00347159 0)
(7.33067 0.00433126 0)
(7.32969 0.00483494 0)
(7.32886 0.00503188 0)
(7.32823 0.00498058 0)
(7.32785 0.00474004 0)
(7.32773 0.00436031 0)
(7.32784 0.00388064 0)
(7.32817 0.00333098 0)
(7.3287 0.0027335 0)
(7.3294 0.00210406 0)
(7.33025 0.00145363 0)
(7.33121 0.000789595 0)
(7.33228 0.000116643 0)
(7.33342 -0.000562454 0)
(7.33463 -0.00124638 0)
(7.33588 -0.00193476 0)
(7.33717 -0.00262798 0)
(7.33848 -0.00332684 0)
(7.33979 -0.00403247 0)
(7.34111 -0.00474617 0)
(7.34243 -0.00546933 0)
(7.34373 -0.00620333 0)
(7.34502 -0.00694954 0)
(7.34628 -0.0077092 0)
(7.34752 -0.00848348 0)
(7.34872 -0.00927338 0)
(7.34989 -0.0100798 0)
(7.35103 -0.0109035 0)
(7.35213 -0.0117451 0)
(7.35318 -0.0126055 0)
(7.33295 0.000969967 0)
(7.33217 0.0028961 0)
(7.33075 0.00438501 0)
(7.32911 0.00532053 0)
(7.32754 0.00576723 0)
(7.32618 0.00581432 0)
(7.32513 0.00555694 0)
(7.32442 0.00508407 0)
(7.32404 0.0044659 0)
(7.32397 0.00375424 0)
(7.32418 0.0029867 0)
(7.32463 0.00218958 0)
(7.32529 0.00138043 0)
(7.32612 0.00057039 0)
(7.32709 -0.000233884 0)
(7.32817 -0.00102886 0)
(7.32934 -0.00181324 0)
(7.33059 -0.00258711 0)
(7.33188 -0.0033516 0)
(7.33322 -0.00410834 0)
(7.33457 -0.00485942 0)
(7.33594 -0.005607 0)
(7.3373 -0.00635336 0)
(7.33866 -0.00710067 0)
(7.34001 -0.00785108 0)
(7.34134 -0.00860649 0)
(7.34264 -0.00936876 0)
(7.34391 -0.0101394 0)
(7.34515 -0.01092 0)
(7.34635 -0.0117115 0)
(7.34751 -0.0125152 0)
(7.34863 -0.0133319 0)
(7.34971 -0.0141626 0)
(7.3329 0.00139284 0)
(7.33153 0.00403598 0)
(7.32919 0.00590055 0)
(7.32663 0.00692135 0)
(7.32425 0.00725771 0)
(7.32226 0.00706675 0)
(7.32072 0.00650425 0)
(7.31968 0.00570474 0)
(7.31908 0.0047648 0)
(7.31889 0.00375053 0)
(7.31904 0.00270697 0)
(7.31948 0.00166336 0)
(7.32017 0.000637264 0)
(7.32106 -0.000361646 0)
(7.32211 -0.00132889 0)
(7.32328 -0.00226334 0)
(7.32455 -0.00316611 0)
(7.32589 -0.00403958 0)
(7.32729 -0.00488694 0)
(7.32872 -0.00571172 0)
(7.33017 -0.00651759 0)
(7.33163 -0.00730817 0)
(7.33309 -0.00808693 0)
(7.33454 -0.00885713 0)
(7.33597 -0.00962178 0)
(7.33737 -0.0103836 0)
(7.33875 -0.0111451 0)
(7.34008 -0.0119083 0)
(7.34139 -0.0126752 0)
(7.34265 -0.0134475 0)
(7.34386 -0.0142265 0)
(7.34503 -0.0150135 0)
(7.34615 -0.0158098 0)
(7.33278 0.00219615 0)
(7.33032 0.00601919 0)
(7.32651 0.00837045 0)
(7.32261 0.00940711 0)
(7.3192 0.00948465 0)
(7.31647 0.00887763 0)
(7.31447 0.00784042 0)
(7.31316 0.00657094 0)
(7.31246 0.00519424 0)
(7.31226 0.00378761 0)
(7.31249 0.00239952 0)
(7.31305 0.00105792 0)
(7.31389 -0.000223435 0)
(7.31495 -0.00143946 0)
(7.31618 -0.00259017 0)
(7.31753 -0.00367868 0)
(7.31899 -0.00470981 0)
(7.32051 -0.0056893 0)
(7.32209 -0.00662315 0)
(7.32369 -0.00751736 0)
(7.3253 -0.00837766 0)
(7.32692 -0.00920946 0)
(7.32853 -0.0100177 0)
(7.33011 -0.010807 0)
(7.33167 -0.0115813 0)
(7.3332 -0.0123443 0)
(7.33469 -0.0130992 0)
(7.33613 -0.013849 0)
(7.33754 -0.0145959 0)
(7.33889 -0.0153423 0)
(7.34019 -0.0160899 0)
(7.34144 -0.0168403 0)
(7.34264 -0.0175951 0)
(7.33249 0.00374112 0)
(7.32795 0.00949347 0)
(7.32175 0.012376 0)
(7.31603 0.0131808 0)
(7.31142 0.012656 0)
(7.30798 0.0112928 0)
(7.30567 0.00950494 0)
(7.30431 0.00756273 0)
(7.30371 0.00560469 0)
(7.30373 0.00370479 0)
(7.30423 0.00190375 0)
(7.3051 0.000219203 0)
(7.30626 -0.00134594 0)
(7.30765 -0.00279614 0)
(7.3092 -0.00413938 0)
(7.31088 -0.00538536 0)
(7.31264 -0.00654441 0)
(7.31446 -0.00762676 0)
(7.31631 -0.00864219 0)
(7.31818 -0.00959971 0)
(7.32004 -0.0105076 0)
(7.3219 -0.0113733 0)
(7.32373 -0.0122036 0)
(7.32552 -0.0130043 0)
(7.32728 -0.0137807 0)
(7.32899 -0.0145375 0)
(7.33065 -0.0152787 0)
(7.33226 -0.0160078 0)
(7.33382 -0.0167279 0)
(7.33531 -0.0174416 0)
(7.33675 -0.0181513 0)
(7.33812 -0.0188588 0)
(7.33943 -0.0195659 0)
(7.33193 0.00664086 0)
(7.32329 0.0152948 0)
(7.31325 0.018486 0)
(7.30522 0.0185741 0)
(7.29944 0.0168825 0)
(7.29558 0.0142389 0)
(7.29334 0.0113092 0)
(7.29234 0.00842525 0)
(7.29224 0.00569742 0)
(7.29281 0.00317025 0)
(7.29389 0.000862778 0)
(7.29536 -0.00122788 0)
(7.2971 -0.00311775 0)
(7.29905 -0.00482659 0)
(7.30114 -0.00637415 0)
(7.30333 -0.00777958 0)
(7.30558 -0.00906088 0)
(7.30786 -0.0102346 0)
(7.31014 -0.0113155 0)
(7.31241 -0.0123168 0)
(7.31466 -0.0132502 0)
(7.31687 -0.014126 0)
(7.31904 -0.0149529 0)
(7.32115 -0.0157391 0)
(7.3232 -0.0164911 0)
(7.32519 -0.017215 0)
(7.32711 -0.0179158 0)
(7.32896 -0.0185979 0)
(7.33074 -0.0192653 0)
(7.33245 -0.0199212 0)
(7.33408 -0.0205685 0)
(7.33564 -0.0212096 0)
(7.33713 -0.0218471 0)
(7.33069 0.0134357 0)
(7.31368 0.0252103 0)
(7.29797 0.0267177 0)
(7.28753 0.0249976 0)
(7.28098 0.0216517 0)
(7.27735 0.0175215 0)
(7.27593 0.0134398 0)
(7.27598 0.00969819 0)
(7.27699 0.00629772 0)
(7.27869 0.0032191 0)
(7.28089 0.00045028 0)
(7.28343 -0.00203162 0)
(7.28621 -0.00425718 0)
(7.28913 -0.00625585 0)
(7.29214 -0.00805384 0)
(7.29519 -0.00967514 0)
(7.29825 -0.0111418 0)
(7.30129 -0.0124736 0)
(7.30429 -0.0136882 0)
(7.30722 -0.0148013 0)
(7.31009 -0.0158265 0)
(7.31288 -0.0167759 0)
(7.31559 -0.0176601 0)
(7.3182 -0.0184885 0)
(7.32072 -0.019269 0)
(7.32315 -0.0200088 0)
(7.32548 -0.0207139 0)
(7.32772 -0.0213898 0)
(7.32985 -0.0220409 0)
(7.3319 -0.0226713 0)
(7.33384 -0.0232843 0)
(7.33569 -0.0238824 0)
(7.33744 -0.024468 0)
(7.32456 0.0347135 0)
(7.28958 0.0467069 0)
(7.26765 0.0370851 0)
(7.25765 0.0262602 0)
(7.25264 0.0167268 0)
(7.25096 0.00874837 0)
(7.25187 0.00250363 0)
(7.25427 -0.00234145 0)
(7.25751 -0.00618167 0)
(7.26132 -0.00925406 0)
(7.26556 -0.0117278 0)
(7.27004 -0.0137432 0)
(7.27466 -0.0154106 0)
(7.27931 -0.0168091 0)
(7.28396 -0.0179966 0)
(7.28854 -0.0190169 0)
(7.29304 -0.0199051 0)
(7.29741 -0.020688 0)
(7.30166 -0.0213871 0)
(7.30576 -0.0220191 0)
(7.30972 -0.0225974 0)
(7.31352 -0.0231328 0)
(7.31717 -0.0236339 0)
(7.32066 -0.0241076 0)
(7.32399 -0.0245599 0)
(7.32718 -0.0249951 0)
(7.33021 -0.0254173 0)
(7.3331 -0.0258296 0)
(7.33585 -0.0262348 0)
(7.33846 -0.0266351 0)
(7.34093 -0.0270328 0)
(7.34327 -0.0274302 0)
(7.34549 -0.0278302 0)
(7.29575 0.0823967 0)
(7.21822 0.127208 0)
(7.1868 0.128808 0)
(7.18645 0.114379 0)
(7.19338 0.0947861 0)
(7.20248 0.0767469 0)
(7.21296 0.0615391 0)
(7.22375 0.0483342 0)
(7.23444 0.036709 0)
(7.24497 0.0265743 0)
(7.25523 0.0178515 0)
(7.26511 0.010386 0)
(7.27454 0.00401019 0)
(7.28351 -0.00142451 0)
(7.29201 -0.00605002 0)
(7.30005 -0.00998553 0)
(7.30764 -0.0133364 0)
(7.31479 -0.0161933 0)
(7.32153 -0.0186332 0)
(7.32788 -0.0207214 0)
(7.33385 -0.0225133 0)
(7.33947 -0.0240553 0)
(7.34475 -0.0253868 0)
(7.34971 -0.026541 0)
(7.35437 -0.0275457 0)
(7.35874 -0.0284245 0)
(7.36284 -0.029197 0)
(7.36668 -0.0298801 0)
(7.37028 -0.0304877 0)
(7.37364 -0.0310316 0)
(7.37678 -0.0315215 0)
(7.37971 -0.0319648 0)
(7.38243 -0.0323701 0)
(7.32909 -0.158987 0)
(7.19612 -0.292898 0)
(7.13085 -0.292311 0)
(7.10899 -0.259648 0)
(7.10972 -0.226679 0)
(7.13037 -0.19575 0)
(7.16108 -0.167839 0)
(7.19443 -0.144105 0)
(7.22758 -0.124635 0)
(7.25931 -0.108755 0)
(7.28885 -0.0957758 0)
(7.31577 -0.0851749 0)
(7.34003 -0.0765315 0)
(7.36178 -0.0694802 0)
(7.38118 -0.0637141 0)
(7.39843 -0.058986 0)
(7.41373 -0.0550989 0)
(7.42727 -0.0518947 0)
(7.43924 -0.0492458 0)
(7.44979 -0.0470494 0)
(7.45908 -0.0452233 0)
(7.46724 -0.0437008 0)
(7.47438 -0.0424285 0)
(7.48062 -0.0413629 0)
(7.48604 -0.0404689 0)
(7.49073 -0.0397179 0)
(7.49477 -0.0390865 0)
(7.49821 -0.0385557 0)
(7.50113 -0.0381097 0)
(7.50356 -0.0377356 0)
(7.50557 -0.0374221 0)
(7.50719 -0.0371605 0)
(7.50849 -0.0369388 0)
(7.33045 1.21807 0)
(7.6376 1.24116 0)
(7.81729 0.934087 0)
(7.87343 0.662121 0)
(7.88532 0.46234 0)
(7.87662 0.320594 0)
(7.85215 0.220101 0)
(7.81688 0.148063 0)
(7.77613 0.0958196 0)
(7.7334 0.0576538 0)
(7.69028 0.0296476 0)
(7.64756 0.009026 0)
(7.60576 -0.0061893 0)
(7.56523 -0.0174092 0)
(7.52615 -0.0256505 0)
(7.48857 -0.0316572 0)
(7.45251 -0.0359797 0)
(7.41793 -0.0390281 0)