/*--------------------------------*- C++ -*----------------------------------*\
  =========                 |
  \\      /  F ield         | OpenFOAM: The Open Source CFD Toolbox
   \\    /   O peration     | Website:  https://openfoam.org
    \\  /    A nd           | Version:  10
     \\/     M anipulation  |
\*---------------------------------------------------------------------------*/
FoamFile
{
    format      ascii;
    class       volScalarField;
    location    "0.11";
    object      epsilon;
}
// * * * * * * * * * * * * * * * * * * * * * * * * * * * * * * * * * * * * * //

dimensions      [0 2 -3 0 0 0 0];

internalField   nonuniform List<scalar> 
6820
(
23.2969
22.5752
21.9094
21.2853
20.7019
20.1633
19.6735
19.2344
18.8457
18.505
18.2092
17.9545
17.7372
17.5534
17.3996
17.2725
17.1692
17.0869
17.0232
16.976
16.9432
16.9232
16.9144
16.9154
16.9249
16.9421
16.9653
16.9965
17.0216
17.1029
16.9451
17.9276
13.5837
5.03385
6.81826
7.83923
8.46742
8.89776
9.23099
9.52095
9.79405
10.0623
10.3307
10.6012
10.874
11.1489
11.4253
11.7028
11.9807
12.2583
12.5351
12.8106
13.0841
13.3553
13.6238
13.8892
14.1514
14.4103
14.666
14.9192
15.1711
15.4236
15.6908
15.9432
16.4044
16.4039
3.7036
4.1472
4.56525
4.9142
5.19789
5.4311
5.62788
5.79946
5.95425
6.09837
6.2361
6.37037
6.50307
6.63543
6.76818
6.90172
7.03624
7.17178
7.30826
7.44557
7.58355
7.72202
7.86081
7.99976
8.13874
8.2777
8.41662
8.55591
8.69534
8.83798
8.97884
9.13423
9.27407
3.54009
3.61093
3.72473
3.85371
3.98115
4.09938
4.20615
4.30188
4.38806
4.46647
4.53881
4.6066
4.67107
4.73322
4.79382
4.85346
4.91257
4.97148
5.03039
5.08947
5.1488
5.20844
5.26842
5.32875
5.38942
5.45045
5.51186
5.57378
5.63623
5.69973
5.76416
5.83048
5.89936
3.52064
3.50151
3.50498
3.52611
3.55867
3.5972
3.63778
3.678
3.71658
3.75299
3.78712
3.81913
3.84928
3.87786
3.90518
3.93152
3.95712
3.98219
4.00689
4.03138
4.05575
4.0801
4.10449
4.12897
4.1536
4.1784
4.20341
4.22871
4.25432
4.28038
4.30693
4.33403
4.36173
3.5194
3.48247
3.45303
3.43232
3.41995
3.4145
3.41421
3.41749
3.42305
3.42994
3.43752
3.44538
3.45326
3.46104
3.46865
3.47608
3.48336
3.49051
3.49758
3.50462
3.51165
3.51872
3.52586
3.5331
3.54047
3.54798
3.55567
3.56357
3.57169
3.58008
3.58878
3.59779
3.60709
3.51943
3.47974
3.44283
3.40949
3.38025
3.35524
3.3342
3.31668
3.30212
3.28997
3.27975
3.27104
3.26351
3.25693
3.25109
3.24586
3.24113
3.23682
3.23289
3.22929
3.226
3.223
3.22027
3.21781
3.21562
3.21368
3.21201
3.21059
3.20945
3.20858
3.208
3.20769
3.20766
3.51947
3.47943
3.44109
3.40466
3.37041
3.33852
3.30907
3.28206
3.25735
3.2348
3.21418
3.19529
3.17793
3.1619
3.14704
3.13321
3.12029
3.10816
3.09676
3.086
3.07583
3.06619
3.05705
3.04837
3.04012
3.03228
3.02483
3.01775
3.01103
3.00466
2.99863
2.99294
2.98755
3.51948
3.47941
3.44085
3.40382
3.36835
3.33448
3.30225
3.27169
3.2428
3.21553
3.18983
3.16563
3.14283
3.12134
3.10105
3.08189
3.06374
3.04655
3.03022
3.01469
2.99991
2.98581
2.97236
2.9595
2.94719
2.93542
2.92414
2.91333
2.90296
2.89303
2.88351
2.87438
2.86563
3.51948
3.4794
3.44082
3.40368
3.36796
3.33361
3.30063
3.26898
3.23865
3.20961
3.18185
3.15532
3.12998
3.10579
3.08269
3.06063
3.03956
3.01941
3.00015
2.98172
2.96406
2.94714
2.93092
2.91536
2.90041
2.88605
2.87224
2.85897
2.8462
2.83391
2.82208
2.8107
2.79973
3.51948
3.4794
3.44081
3.40365
3.36788
3.33344
3.30028
3.26834
3.23759
3.208
3.17953
3.15214
3.1258
3.10047
3.07612
3.05272
3.03022
3.00859
2.98779
2.96779
2.94855
2.93003
2.9122
2.89503
2.87849
2.86255
2.84719
2.83237
2.81809
2.8043
2.79101
2.77817
2.76579
3.51948
3.4794
3.4408
3.40364
3.36786
3.3334
3.30019
3.26819
3.23734
3.20759
3.1789
3.15124
3.12456
3.09883
3.07401
3.05007
3.02697
3.00469
2.9832
2.96246
2.94244
2.92312
2.90446
2.88645
2.86905
2.85225
2.83602
2.82033
2.80517
2.79051
2.77634
2.76265
2.7494
3.51948
3.4794
3.44079
3.40363
3.36785
3.33337
3.30016
3.26814
3.23726
3.20747
3.17873
3.15099
3.12421
3.09835
3.07337
3.04924
3.02593
3.00341
2.98163
2.96059
2.94024
2.92057
2.90154
2.88314
2.86533
2.84811
2.83144
2.8153
2.79969
2.78457
2.76994
2.75577
2.74205
3.51947
3.47939
3.44079
3.40362
3.36783
3.33336
3.30014
3.26811
3.23722
3.20742
3.17866
3.1509
3.12409
3.09819
3.07317
3.04898
3.0256
3.00299
2.98112
2.95996
2.93949
2.91968
2.90051
2.88194
2.86397
2.84656
2.8297
2.81336
2.79754
2.78221
2.76735
2.75295
2.73899
3.51947
3.47939
3.44079
3.40362
3.36782
3.33334
3.30012
3.26808
3.23719
3.20739
3.17862
3.15085
3.12403
3.09812
3.07308
3.04888
3.02547
3.00283
2.98093
2.95974
2.93923
2.91937
2.90014
2.88151
2.86347
2.84599
2.82905
2.81264
2.79672
2.7813
2.76634
2.75184
2.73777
3.51947
3.47939
3.44078
3.40361
3.36782
3.33333
3.3001
3.26806
3.23717
3.20736
3.17859
3.15081
3.12399
3.09807
3.07302
3.04881
3.0254
3.00275
2.98084
2.95963
2.9391
2.91923
2.89998
2.88133
2.86327
2.84576
2.82879
2.81235
2.7964
2.78093
2.76594
2.75139
2.73728
3.51947
3.47939
3.44078
3.40361
3.36781
3.33332
3.30009
3.26805
3.23715
3.20733
3.17856
3.15078
3.12395
3.09803
3.07298
3.04876
3.02534
3.00269
2.98077
2.95956
2.93902
2.91914
2.89988
2.88123
2.86315
2.84563
2.82866
2.81219
2.79623
2.78075
2.76574
2.75117
2.73704
3.51947
3.47939
3.44078
3.4036
3.3678
3.33331
3.30008
3.26803
3.23713
3.20731
3.17853
3.15075
3.12391
3.09799
3.07293
3.04871
3.02529
3.00263
2.98071
2.95949
2.93895
2.91907
2.8998
2.88114
2.86306
2.84554
2.82855
2.81208
2.79611
2.78063
2.7656
2.75103
2.73688
3.51947
3.47939
3.44078
3.4036
3.3678
3.33331
3.30007
3.26802
3.23711
3.20729
3.17851
3.15072
3.12388
3.09795
3.07289
3.04867
3.02524
3.00258
2.98065
2.95943
2.93889
2.919
2.89973
2.88107
2.86298
2.84545
2.82846
2.81199
2.79601
2.78052
2.76548
2.7509
2.73675
3.51947
3.47939
3.44077
3.4036
3.36779
3.3333
3.30006
3.26801
3.2371
3.20727
3.17849
3.1507
3.12385
3.09792
3.07286
3.04863
3.0252
3.00253
2.9806
2.95938
2.93883
2.91894
2.89967
2.881
2.86291
2.84537
2.82838
2.8119
2.79591
2.78041
2.76537
2.75078
2.73662
3.51947
3.47938
3.44077
3.40359
3.36779
3.33329
3.30005
3.268
3.23708
3.20726
3.17847
3.15067
3.12383
3.09789
3.07283
3.04859
3.02516
3.00249
2.98056
2.95933
2.93878
2.91888
2.8996
2.88093
2.86284
2.8453
2.82829
2.81181
2.79582
2.78031
2.76527
2.75067
2.7365
3.51947
3.47938
3.44077
3.40359
3.36779
3.33329
3.30004
3.26799
3.23707
3.20724
3.17845
3.15066
3.12381
3.09787
3.0728
3.04856
3.02512
3.00245
2.98052
2.95928
2.93873
2.91882
2.89954
2.88087
2.86277
2.84522
2.82822
2.81173
2.79573
2.78022
2.76517
2.75056
2.73638
3.51947
3.47938
3.44077
3.40359
3.36778
3.33329
3.30004
3.26798
3.23706
3.20723
3.17844
3.15064
3.12379
3.09784
3.07277
3.04853
3.02509
3.00242
2.98048
2.95924
2.93868
2.91877
2.89949
2.88081
2.8627
2.84515
2.82814
2.81164
2.79564
2.78012
2.76506
2.75045
2.73627
3.51947
3.47938
3.44077
3.40359
3.36778
3.33328
3.30003
3.26798
3.23706
3.20722
3.17843
3.15062
3.12377
3.09782
3.07275
3.04851
3.02506
3.00238
2.98044
2.9592
2.93864
2.91872
2.89944
2.88075
2.86264
2.84509
2.82807
2.81157
2.79556
2.78003
2.76497
2.75035
2.73616
3.51947
3.47938
3.44077
3.40359
3.36778
3.33328
3.30003
3.26797
3.23705
3.20721
3.17842
3.15061
3.12375
3.09781
3.07273
3.04848
3.02504
3.00235
2.98041
2.95916
2.9386
2.91868
2.89939
2.8807
2.86258
2.84502
2.828
2.81149
2.79548
2.77995
2.76488
2.75025
2.73605
3.51947
3.47938
3.44077
3.40359
3.36778
3.33328
3.30003
3.26797
3.23704
3.20721
3.17841
3.1506
3.12374
3.09779
3.07271
3.04846
3.02501
3.00233
2.98038
2.95913
2.93856
2.91864
2.89934
2.88065
2.86253
2.84497
2.82794
2.81142
2.79541
2.77987
2.76479
2.75015
2.73595
3.51947
3.47938
3.44077
3.40359
3.36778
3.33328
3.30002
3.26796
3.23704
3.2072
3.1784
3.15059
3.12373
3.09778
3.07269
3.04844
3.02499
3.0023
2.98035
2.9591
2.93852
2.9186
2.8993
2.8806
2.86248
2.84491
2.82788
2.81136
2.79533
2.77979
2.7647
2.75006
2.73585
3.51947
3.47938
3.44077
3.40359
3.36778
3.33328
3.30002
3.26796
3.23704
3.2072
3.17839
3.15058
3.12372
3.09777
3.07268
3.04843
3.02498
3.00229
2.98033
2.95908
2.9385
2.91857
2.89927
2.88056
2.86244
2.84486
2.82782
2.8113
2.79527
2.77972
2.76463
2.74998
2.73576
3.51947
3.47938
3.44077
3.40359
3.36778
3.33327
3.30002
3.26796
3.23703
3.20719
3.17838
3.15057
3.12371
3.09775
3.07267
3.04841
3.02496
3.00226
2.9803
2.95905
2.93847
2.91854
2.89923
2.88052
2.86239
2.84482
2.82777
2.81125
2.79521
2.77966
2.76456
2.74991
2.73568
3.51947
3.47938
3.44077
3.40359
3.36778
3.33328
3.30003
3.26796
3.23704
3.2072
3.1784
3.15058
3.12372
3.09776
3.07268
3.04842
3.02496
3.00227
2.9803
2.95905
2.93846
2.91853
2.89922
2.88051
2.86237
2.84479
2.82774
2.81121
2.79517
2.77961
2.76451
2.74985
2.73562
3.51947
3.47939
3.44077
3.40359
3.36778
3.33328
3.30002
3.26796
3.23703
3.20719
3.17838
3.15057
3.12371
3.09775
3.07266
3.0484
3.02495
3.00225
2.98029
2.95903
2.93845
2.91851
2.8992
2.88049
2.86235
2.84477
2.82772
2.81119
2.79515
2.77959
2.76448
2.74982
2.73559
3.51947
3.47938
3.44077
3.40359
3.36779
3.3333
3.30005
3.268
3.23708
3.20724
3.17844
3.15063
3.12377
3.09781
3.07273
3.04847
3.02501
3.00232
2.98035
2.95909
2.93851
2.91858
2.89927
2.88056
2.86243
2.84485
2.8278
2.81128
2.79524
2.77969
2.76459
2.74994
2.73571
3.51948
3.4794
3.4408
3.40362
3.36782
3.33332
3.30007
3.26801
3.23708
3.20725
3.17845
3.15064
3.12379
3.09784
3.07277
3.04853
3.02509
3.00241
2.98047
2.95924
2.93869
2.91879
2.89951
2.88084
2.86275
2.84521
2.82822
2.81174
2.79576
2.78026
2.76522
2.75063
2.73647
3.51947
3.47939
3.44079
3.40365
3.36789
3.33343
3.30023
3.26821
3.23733
3.20753
3.17877
3.15102
3.12421
3.09833
3.07332
3.04916
3.02581
3.00325
2.98143
2.96033
2.93992
2.92018
2.90108
2.88259
2.8647
2.84738
2.8306
2.81435
2.79861
2.78336
2.76858
2.75425
2.74036
3.51949
3.47947
3.44095
3.40385
3.36811
3.33369
3.30054
3.26862
3.23789
3.2083
3.1798
3.15236
3.12593
3.10048
3.07597
3.05235
3.02961
3.00769
2.98656
2.9662
2.94657
2.92764
2.90938
2.89176
2.87476
2.85835
2.84251
2.8272
2.81242
2.79813
2.78432
2.77096
2.75804
3.5195
3.47952
3.44117
3.40446
3.36933
3.33572
3.30359
3.2729
3.24361
3.21569
3.18909
3.16376
3.13964
3.11667
3.0948
3.07397
3.05413
3.03521
3.01716
2.99994
2.98349
2.96777
2.95274
2.93835
2.92456
2.91134
2.89866
2.88648
2.87478
2.86353
2.8527
2.84227
2.83221
3.51969
3.48122
3.44561
3.41286
3.38295
3.35586
3.33147
3.3096
3.29006
3.27261
3.25705
3.24316
3.23077
3.21969
3.20978
3.20088
3.19287
3.18563
3.17908
3.17311
3.16766
3.16265
3.15803
3.15373
3.14972
3.14596
3.14241
3.13903
3.13581
3.13272
3.12973
3.12684
3.12402
3.52527
3.51368
3.51617
3.52942
3.55062
3.57776
3.60922
3.64372
3.68029
3.71819
3.75685
3.7958
3.8347
3.87325
3.91126
3.94855
3.98501
4.02054
4.05508
4.08858
4.12103
4.15241
4.18271
4.21194
4.24012
4.26726
4.29338
4.31851
4.34268
4.36591
4.38824
4.4097
4.43033
3.83318
4.3651
4.84921
5.3143
5.77486
6.22628
6.66425
7.08694
7.49397
7.88574
8.26301
8.6267
8.97769
9.31683
9.64485
9.96244
10.2702
10.5685
10.858
11.139
11.4119
11.677
11.9346
12.185
12.4285
12.6653
12.8957
13.1199
13.3381
13.5505
13.7575
13.9591
14.1556
30.2663
32.7713
35.3126
37.865
40.4148
42.9529
45.4712
47.9622
50.4189
52.8351
55.2052
57.5244
59.7887
61.9945
64.1393
66.2206
68.237
70.1873
72.0708
73.8872
75.6366
77.3194
78.9363
80.4882
81.9763
83.4018
84.7661
86.0708
87.3175
88.508
89.644
90.727
91.7602
85.4616
233.14
409.424
576.122
706.97
790.541
828.579
830.38
807.405
770.149
726.434
681.395
637.996
597.66
560.856
527.556
497.529
470.503
446.224
424.463
404.996
387.598
372.033
358.062
345.45
333.974
323.427
313.621
304.389
295.578
287.056
278.705
270.42
262.112
253.699
245.11
236.279
227.147
217.656
207.752
197.385
186.505
175.071
163.052
150.431
137.215
123.443
109.2
94.6325
79.962
65.5031
51.67
38.9646
27.9252
19.0154
12.4649
8.14104
5.57965
4.19493
3.49759
3.17141
3.03865
3.00422
3.01726
3.05025
3.08827
3.12347
3.15204
3.17251
3.18483
3.18969
3.18823
3.18175
3.17161
3.1591
3.14539
3.1315
3.11823
3.10619
3.09575
3.08705
3.08006
3.07453
3.07013
3.06642
3.06299
3.05942
3.05537
3.05056
3.04478
3.03785
3.02957
3.01969
3.00784
2.99351
2.97592
2.95441
2.92639
2.89839
2.82914
18.9859
27.2905
43.1067
67.3676
99.8372
139.11
182.819
228.032
271.594
310.634
342.842
366.774
382.002
389.061
389.206
384.054
375.246
364.208
352.045
339.521
327.121
315.119
303.652
292.775
282.492
272.78
263.593
254.874
246.552
238.553
230.796
223.2
215.688
208.187
200.626
192.943
185.078
176.974
168.58
159.846
150.729
141.193
131.21
120.772
109.887
98.5976
86.9844
75.1796
63.3778
51.8449
40.9169
30.9824
22.4332
15.5777
10.5345
7.16441
5.11319
3.95825
3.34698
3.04471
2.91333
2.87479
2.8847
2.91742
2.95804
2.99804
3.03276
3.05995
3.07886
3.08971
3.09323
3.09052
3.08279
3.07127
3.05718
3.0416
3.02552
3.00974
2.9949
2.98144
2.96962
2.9595
2.95097
2.94381
2.93769
2.93225
2.92713
2.922
2.91657
2.91061
2.90391
2.89624
2.88733
2.8768
2.86412
2.84855
2.82945
2.80437
2.77929
2.71628
9.41437
9.77836
10.725
12.6074
15.7136
20.2747
26.5113
34.6551
44.8693
57.1824
71.4349
87.2071
103.928
120.785
136.882
151.382
163.634
173.246
180.108
184.358
186.307
186.36
184.936
182.419
179.128
175.316
171.164
166.801
162.307
157.731
153.089
148.383
143.598
138.709
133.685
128.493
123.093
117.449
111.524
105.285
98.7053
91.7674
84.4678
76.8222
68.8721
60.692
52.3964
44.1451
36.145
28.6427
21.9029
16.1685
11.6034
8.23704
5.94641
4.49962
3.64079
3.15805
2.90463
2.78783
2.75091
2.75903
2.79054
2.83195
2.87486
2.91425
2.94725
2.9725
2.98964
2.99898
3.00127
2.99748
2.98872
2.97612
2.96078
2.94372
2.92587
2.908
2.89076
2.87465
2.85998
2.84691
2.83546
2.8255
2.8168
2.80909
2.80205
2.7954
2.78886
2.78219
2.77517
2.76755
2.75905
2.74927
2.73772
2.72367
2.7065
2.68393
2.66141
2.6042
5.97437
6.05902
6.17205
6.35993
6.67657
7.17266
7.89435
8.89027
10.2203
11.9565
14.1785
16.965
20.3176
24.2549
28.7638
33.7784
39.1739
44.7723
50.3614
55.7204
60.6471
64.9799
68.6105
71.4869
73.6091
75.0176
75.7815
75.9844
75.7125
75.0457
74.0513
72.7812
71.2714
69.5427
67.603
65.4496
63.0719
60.4545
57.58
54.4327
51.0021
47.287
43.2999
39.0724
34.6585
30.1393
25.6231
21.2433
17.1487
13.4869
10.3792
7.8938
6.02799
4.71139
3.8329
3.27539
2.93973
2.75224
2.66151
2.63244
2.64119
2.67151
2.71239
2.75639
2.79861
2.83592
2.86652
2.88953
2.9048
2.91265
2.91376
2.90903
2.89942
2.88598
2.86968
2.85147
2.83221
2.81265
2.79341
2.77502
2.75783
2.74208
2.72786
2.71516
2.70384
2.6937
2.6845
2.676
2.66794
2.66011
2.65227
2.64419
2.63556
2.62602
2.61507
2.60203
2.58632
2.56579
2.54544
2.49348
4.39352
4.42916
4.46657
4.51055
4.56877
4.65104
4.76791
4.92985
5.14792
5.43497
5.80574
6.28389
6.86583
7.55599
8.35931
9.27817
10.3108
11.4501
12.6826
13.9878
15.3386
16.7024
18.0433
19.3245
20.5115
21.575
22.493
23.2518
23.846
24.2772
24.5517
24.6785
24.6666
24.5236
24.2541
23.8589
23.3351
22.6763
21.8746
20.9218
19.8125
18.5466
17.1328
15.5908
13.9538
12.2683
10.5922
8.98933
7.5216
6.23939
5.17307
4.32902
3.69217
3.23353
2.91904
2.71598
2.59623
2.53694
2.52014
2.53188
2.56154
2.60112
2.6447
2.68797
2.72788
2.76239
2.79026
2.81091
2.82426
2.83064
2.83064
2.82505
2.81475
2.80063
2.7836
2.76452
2.74418
2.72327
2.70241
2.6821
2.66274
2.64461
2.62787
2.61258
2.59868
2.58607
2.57457
2.56399
2.55412
2.54476
2.5357
2.5267
2.51748
2.50768
2.49684
2.48433
2.46958
2.45063
2.43202
2.38472
3.6181
3.63072
3.6437
3.65745
3.67293
3.69187
3.71661
3.7499
3.7947
3.85423
3.93221
4.03219
4.156
4.30467
4.47848
4.67699
4.89891
5.14215
5.40378
5.68005
5.96645
6.25785
6.5486
6.83274
7.10425
7.3573
7.58663
7.78785
7.95767
8.09398
8.19575
8.26283
8.29565
8.29481
8.26069
8.19312
8.09105
7.95253
7.77473
7.5544
7.28853
6.97529
6.61522
6.21225
5.77452
5.31447
4.84805
4.39313
3.96718
3.5849
3.2565
2.98697
2.77639
2.6211
2.51496
2.45058
2.42021
2.41636
2.43214
2.46152
2.49934
2.54135
2.58411
2.62492
2.66175
2.69314
2.7182
2.73648
2.74796
2.75291
2.75185
2.74548
2.73456
2.71991
2.70233
2.68259
2.66143
2.63948
2.61733
2.59546
2.57428
2.5541
2.53511
2.51744
2.50112
2.48609
2.47226
2.45948
2.4476
2.43645
2.42583
2.41555
2.40533
2.39484
2.38366
2.37121
2.35697
2.33912
2.32183
2.27853
3.20789
3.20834
3.20898
3.20986
3.21113
3.21302
3.21599
3.22063
3.22769
3.23811
3.25281
3.27277
3.29886
3.3317
3.3716
3.41854
3.47213
3.53169
3.59621
3.66446
3.73498
3.80621
3.8765
3.94417
4.00762
4.06529
4.11582
4.15801
4.19095
4.21398
4.22672
4.22906
4.22104
4.20288
4.17481
4.13706
4.08972
4.03275
3.96588
3.88869
3.80066
3.70139
3.59078
3.4694
3.33871
3.20122
3.06056
2.92121
2.78809
2.66603
2.55924
2.47086
2.4027
2.35523
2.32767
2.31825
2.3245
2.34353
2.37231
2.40786
2.44737
2.48833
2.52853
2.5661
2.59956
2.62779
2.65009
2.66609
2.67577
2.67935
2.67731
2.67021
2.65876
2.64367
2.62566
2.60544
2.58367
2.56094
2.53778
2.51467
2.492
2.47009
2.44917
2.42939
2.41084
2.39354
2.37743
2.36243
2.34845
2.33533
2.32294
2.31109
2.29954
2.288
2.27609
2.26327
2.2491
2.23191
2.21551
2.17556
2.98164
2.9751
2.96867
2.96236
2.9562
2.95025
2.94459
2.93936
2.93472
2.93088
2.92806
2.92655
2.9266
2.92847
2.93232
2.93827
2.9463
2.95627
2.96791
2.98086
2.99464
3.0087
3.02245
3.0353
3.04664
3.05589
3.06254
3.06613
3.06627
3.06269
3.05518
3.04367
3.02812
3.00859
2.98519
2.95805
2.92733
2.89318
2.85574
2.81513
2.7715
2.72498
2.67582
2.62437
2.57123
2.51727
2.46368
2.41193
2.36376
2.32095
2.28523
2.25805
2.24044
2.23291
2.23538
2.24725
2.26749
2.2947
2.32727
2.36347
2.40155
2.43982
2.4767
2.51076
2.54084
2.56603
2.5857
2.59955
2.60754
2.60985
2.60687
2.59912
2.5872
2.57174
2.55341
2.53284
2.51062
2.48731
2.4634
2.43933
2.41547
2.39214
2.36959
2.348
2.32748
2.30809
2.28984
2.27271
2.25661
2.24147
2.22717
2.21356
2.20044
2.18757
2.1746
2.16106
2.14656
2.12959
2.1137
2.07639
2.85586
2.84496
2.83415
2.82344
2.81284
2.80236
2.79202
2.78186
2.77191
2.76222
2.75283
2.74381
2.73522
2.72712
2.71955
2.71256
2.70616
2.70034
2.69504
2.69016
2.68557
2.68109
2.67652
2.67164
2.66623
2.66005
2.65289
2.64454
2.63483
2.62361
2.61079
2.59629
2.5801
2.56221
2.54267
2.52156
2.49897
2.47504
2.4499
2.42374
2.39676
2.36921
2.34137
2.31358
2.28628
2.25999
2.23534
2.21305
2.19392
2.17878
2.16843
2.16353
2.16458
2.17183
2.18524
2.20447
2.22893
2.25777
2.28995
2.32431
2.3596
2.39453
2.42786
2.45844
2.48528
2.50759
2.52482
2.53667
2.54309
2.54422
2.54039
2.53204
2.51971
2.50396
2.48539
2.46457
2.44204
2.41832
2.39385
2.36905
2.34427
2.31982
2.29593
2.27281
2.25059
2.22937
2.20918
2.19004
2.17193
2.15478
2.13853
2.12307
2.10824
2.09382
2.07954
2.06499
2.04984
2.03272
2.01695
1.98163
2.78744
2.77367
2.76
2.74641
2.73292
2.71953
2.70624
2.69309
2.68007
2.66722
2.65453
2.64202
2.6297
2.61756
2.6056
2.59383
2.58223
2.57079
2.5595
2.54831
2.53719
2.52608
2.51492
2.50364
2.49214
2.48035
2.46818
2.45555
2.44239
2.42862
2.4142
2.39911
2.38332
2.36685
2.34972
2.33198
2.31371
2.295
2.27598
2.25679
2.23762
2.21869
2.20024
2.18258
2.16604
2.15099
2.13787
2.12714
2.11926
2.1147
2.11391
2.11724
2.12495
2.13714
2.15375
2.17453
2.19906
2.22673
2.25676
2.28828
2.32028
2.35172
2.38156
2.40882
2.43263
2.45227
2.46724
2.47725
2.48223
2.48228
2.47767
2.46879
2.45611
2.44013
2.42138
2.4004
2.37768
2.35368
2.32882
2.30349
2.27802
2.25269
2.22774
2.20338
2.17974
2.15694
2.13505
2.11411
2.09412
2.07508
2.05693
2.03961
2.023
2.00693
1.99117
1.97539
1.95932
1.94172
1.92577
1.89179
2.75186
2.73624
2.72069
2.70523
2.68985
2.67455
2.65936
2.64427
2.62931
2.61448
2.59979
2.58526
2.57087
2.55662
2.54251
2.52853
2.51465
2.50086
2.48714
2.47348
2.45984
2.44621
2.43256
2.41886
2.40508
2.3912
2.37718
2.36299
2.34861
2.334
2.31917
2.3041
2.2888
2.27328
2.25757
2.24172
2.22579
2.20986
2.19403
2.17843
2.16321
2.14856
2.13468
2.12181
2.11022
2.10021
2.0921
2.0862
2.08285
2.08237
2.08503
2.09107
2.10064
2.11379
2.13043
2.15039
2.1733
2.1987
2.22595
2.25432
2.28298
2.31103
2.33757
2.36173
2.38272
2.3999
2.4128
2.42112
2.42478
2.42384
2.41853
2.40918
2.3962
2.38004
2.36119
2.34012
2.31728
2.29312
2.26801
2.24231
2.21634
2.19035
2.16459
2.13924
2.11445
2.09035
2.06701
2.0445
2.02285
2.00207
1.98214
1.96303
1.94467
1.92691
1.9096
1.89245
1.87527
1.85695
1.84054
1.80733
2.73448
2.71771
2.701
2.68435
2.66778
2.65127
2.63485
2.61853
2.60231
2.58622
2.57025
2.55443
2.53875
2.52322
2.50784
2.49258
2.47745
2.46243
2.44751
2.43266
2.41788
2.40314
2.38843
2.37374
2.35906
2.34436
2.32965
2.3149
2.30012
2.2853
2.27043
2.25553
2.24062
2.2257
2.21083
2.19603
2.18138
2.16693
2.15278
2.13905
2.12585
2.11335
2.10172
2.09116
2.08188
2.07413
2.06815
2.06419
2.06252
2.06336
2.06693
2.07338
2.08283
2.09529
2.11071
2.12891
2.1496
2.17237
2.1967
2.22195
2.2474
2.27226
2.29573
2.31702
2.33542
2.35034
2.36133
2.3681
2.37055
2.36872
2.36278
2.35302
2.33979
2.32351
2.3046
2.2835
2.26063
2.23639
2.21114
2.18521
2.15889
2.13244
2.10607
2.07997
2.05428
2.02912
2.0046
1.98076
1.95768
1.93537
1.91384
1.89309
1.87306
1.85368
1.83481
1.81625
1.79784
1.77861
1.76156
1.72861
2.72657
2.70915
2.69178
2.67444
2.65715
2.63993
2.62277
2.60568
2.58869
2.5718
2.55503
2.53839
2.52189
2.50553
2.48932
2.47326
2.45733
2.44154
2.42587
2.41032
2.39487
2.37952
2.36425
2.34904
2.33391
2.31883
2.3038
2.28882
2.27389
2.25901
2.24419
2.22943
2.21477
2.20021
2.1858
2.17158
2.1576
2.14393
2.13065
2.11786
2.10567
2.09421
2.08364
2.07412
2.06584
2.05899
2.05379
2.05043
2.04912
2.05005
2.0534
2.05928
2.06778
2.07892
2.09263
2.10876
2.12707
2.1472
2.16868
2.19097
2.21341
2.23531
2.25594
2.27459
2.29062
2.30346
2.31269
2.31804
2.31939
2.31673
2.31023
2.3001
2.28668
2.27031
2.25139
2.23032
2.20748
2.18324
2.15795
2.1319
2.10537
2.07861
2.05181
2.02515
1.99878
1.97281
1.94734
1.92243
1.89816
1.87455
1.85164
1.82943
1.8079
1.78701
1.76666
1.7467
1.72704
1.7068
1.68897
1.65589
2.72323
2.70547
2.68774
2.67003
2.65236
2.63473
2.61715
2.59964
2.58219
2.56483
2.54758
2.53044
2.51342
2.49653
2.47979
2.46319
2.44673
2.43042
2.41425
2.39821
2.38231
2.36653
2.35087
2.33532
2.31987
2.30453
2.28929
2.27415
2.2591
2.24417
2.22934
2.21464
2.20009
2.18571
2.17152
2.15758
2.14393
2.13064
2.11777
2.10542
2.09368
2.08268
2.07254
2.06341
2.05545
2.04883
2.04372
2.0403
2.03874
2.03921
2.04184
2.04674
2.05397
2.06355
2.07541
2.08944
2.1054
2.12299
2.14179
2.16131
2.18097
2.20013
2.21815
2.23437
2.24821
2.25913
2.26675
2.27079
2.27112
2.26772
2.2607
2.25026
2.23667
2.22026
2.20138
2.18038
2.15762
2.13345
2.10819
2.08211
2.05549
2.02854
2.00146
1.97442
1.94755
1.92097
1.89478
1.86904
1.84381
1.81914
1.79508
1.77163
1.7488
1.72656
1.70487
1.6836
1.66273
1.64146
1.62279
1.58929
2.72188
2.70397
2.68606
2.66817
2.6503
2.63247
2.61467
2.59692
2.57923
2.5616
2.54407
2.52663
2.5093
2.49208
2.475
2.45805
2.44124
2.42457
2.40804
2.39166
2.37542
2.35932
2.34335
2.32752
2.31182
2.29626
2.28082
2.26551
2.25034
2.2353
2.22042
2.20569
2.19114
2.1768
2.16269
2.14884
2.13532
2.12216
2.10945
2.09725
2.08566
2.07479
2.06474
2.05566
2.04767
2.04093
2.03559
2.0318
2.02971
2.02945
2.03116
2.03492
2.04078
2.04875
2.05879
2.07077
2.0845
2.0997
2.116
2.13295
2.15003
2.16668
2.18229
2.19628
2.20809
2.21725
2.22338
2.22621
2.22559
2.22151
2.21402
2.20331
2.1896
2.17318
2.15436
2.13347
2.11085
2.0868
2.06163
2.0356
2.00896
1.98194
1.9547
1.92742
1.90022
1.87322
1.8465
1.82013
1.79417
1.76868
1.74369
1.71923
1.69532
1.67194
1.64908
1.62665
1.60468
1.58241
1.56292
1.52881
2.72133
2.70334
2.68535
2.66738
2.64942
2.63148
2.61357
2.5957
2.57787
2.56011
2.54241
2.5248
2.50728
2.48986
2.47256
2.45538
2.43833
2.42141
2.40463
2.38799
2.37149
2.35514
2.33894
2.32287
2.30695
2.29118
2.27555
2.26008
2.24475
2.22959
2.21459
2.19978
2.18517
2.17078
2.15664
2.14278
2.12925
2.1161
2.10339
2.09119
2.07959
2.06867
2.05854
2.04932
2.04112
2.03409
2.02835
2.02404
2.02129
2.02022
2.02093
2.02351
2.02799
2.0344
2.04268
2.05272
2.06435
2.07732
2.0913
2.10587
2.12058
2.13491
2.1483
2.16023
2.17018
2.17771
2.18245
2.18416
2.18267
2.17795
2.17005
2.15909
2.14529
2.12888
2.11016
2.08942
2.06696
2.04308
2.01805
1.99214
1.96557
1.93855
1.91126
1.88386
1.85646
1.82918
1.8021
1.77528
1.7488
1.72269
1.697
1.67175
1.64698
1.62268
1.59886
1.57545
1.55252
1.52936
1.50912
1.4743
2.72106
2.70304
2.68501
2.66699
2.64899
2.631
2.61303
2.59509
2.57719
2.55935
2.54156
2.52384
2.5062
2.48865
2.4712
2.45387
2.43665
2.41955
2.40258
2.38575
2.36906
2.3525
2.3361
2.31983
2.30372
2.28776
2.27196
2.25631
2.24083
2.22552
2.2104
2.19547
2.18075
2.16626
2.15203
2.1381
2.1245
2.11127
2.09848
2.08619
2.07448
2.06342
2.05311
2.04366
2.03517
2.02777
2.02156
2.01667
2.01321
2.01129
2.011
2.01242
2.01557
2.02048
2.02709
2.03531
2.04498
2.05588
2.0677
2.08008
2.0926
2.10478
2.11613
2.12615
2.13437
2.14039
2.14385
2.14451
2.14222
2.13692
2.12862
2.11746
2.10358
2.08722
2.06862
2.04805
2.02579
2.00211
1.97727
1.95153
1.92509
1.89815
1.87089
1.84346
1.81597
1.78854
1.76123
1.73413
1.70729
1.68075
1.65455
1.62873
1.60331
1.57831
1.55373
1.52954
1.50582
1.48192
1.46103
1.42552
2.72089
2.70284
2.6848
2.66676
2.64872
2.6307
2.6127
2.59472
2.57678
2.55887
2.54102
2.52323
2.50551
2.48787
2.47032
2.45286
2.43552
2.41828
2.40117
2.38418
2.36733
2.35061
2.33403
2.3176
2.30132
2.28519
2.26922
2.25341
2.23778
2.22232
2.20705
2.19199
2.17714
2.16254
2.14819
2.13415
2.12043
2.10709
2.09418
2.08175
2.06988
2.05863
2.0481
2.03837
2.02954
2.02173
2.01502
2.00953
2.00536
2.0026
2.00134
2.00163
2.00352
2.007
2.01204
2.01855
2.0264
2.03537
2.04519
2.05554
2.06603
2.07623
2.08569
2.09394
2.10057
2.10518
2.10746
2.10715
2.10411
2.09826
2.08962
2.07827
2.06434
2.04804
2.02958
2.0092
1.98716
1.96372
1.93911
1.91358
1.88732
1.86052
1.83336
1.80598
1.7785
1.75101
1.7236
1.69634
1.66928
1.64247
1.61594
1.58972
1.56385
1.53835
1.51322
1.48844
1.46413
1.43963
1.41823
1.38212
2.72074
2.70269
2.68462
2.66656
2.64851
2.63046
2.61243
2.59443
2.57645
2.5585
2.5406
2.52276
2.50497
2.48726
2.46962
2.45208
2.43462
2.41728
2.40004
2.38293
2.36593
2.34907
2.33235
2.31577
2.29933
2.28305
2.26692
2.25097
2.23518
2.21958
2.20417
2.18896
2.17398
2.15925
2.14477
2.1306
2.11675
2.10328
2.09022
2.07763
2.06557
2.05411
2.04333
2.0333
2.02412
2.01588
2.00867
2.00259
1.99772
1.99414
1.99194
1.99116
1.99184
1.99399
1.99755
2.00247
2.00861
2.01579
2.02376
2.03223
2.04085
2.04921
2.05691
2.06354
2.06868
2.07199
2.07316
2.07196
2.06822
2.06187
2.05291
2.04139
2.02743
2.0112
1.9929
1.97273
1.95094
1.92776
1.90342
1.87813
1.85209
1.8255
1.79849
1.77123
1.74382
1.71637
1.68895
1.66163
1.63447
1.60751
1.58079
1.55434
1.52818
1.50235
1.47685
1.45168
1.42695
1.40203
1.38026
1.34368
2.72061
2.70254
2.68446
2.66638
2.64831
2.63025
2.61219
2.59416
2.57615
2.55817
2.54023
2.52234
2.5045
2.48672
2.46901
2.45138
2.43384
2.4164
2.39906
2.38183
2.36471
2.34773
2.33087
2.31415
2.29757
2.28115
2.26488
2.24878
2.23285
2.21711
2.20156
2.18621
2.1711
2.15622
2.14162
2.1273
2.11332
2.09969
2.08648
2.07371
2.06146
2.04978
2.03874
2.02841
2.01887
2.01021
2.0025
1.99584
1.99029
1.98593
1.98283
1.98104
1.98058
1.98146
1.98364
1.98707
1.99162
1.99714
2.00339
2.01011
2.01699
2.02365
2.02973
2.03485
2.03862
2.04072
2.04086
2.03882
2.03443
2.02762
2.01836
2.0067
1.99273
1.97659
1.95845
1.93852
1.917
1.8941
1.87005
1.84504
1.81927
1.79291
1.76612
1.73903
1.71176
1.68441
1.65705
1.62977
1.6026
1.5756
1.5488
1.52224
1.49594
1.46993
1.44422
1.41882
1.39384
1.36865
1.34666
1.30976
2.72048
2.70239
2.6843
2.66621
2.64812
2.63004
2.61196
2.5939
2.57587
2.55785
2.53988
2.52194
2.50405
2.48621
2.46844
2.45074
2.43312
2.41559
2.39815
2.38082
2.3636
2.34649
2.32951
2.31267
2.29596
2.2794
2.263
2.24676
2.2307
2.21482
2.19913
2.18365
2.1684
2.15339
2.13865
2.1242
2.11006
2.09629
2.08291
2.06997
2.05751
2.04561
2.0343
2.02367
2.01378
2.00471
1.99652
1.98929
1.98309
1.97798
1.97402
1.97126
1.96973
1.96942
1.97031
1.97234
1.97542
1.97938
1.98404
1.98914
1.9944
1.9995
2.00408
2.00778
2.01029
2.01126
2.01045
2.00763
2.00265
1.99541
1.98588
1.97409
1.96012
1.94408
1.92613
1.90644
1.88521
1.86262
1.83889
1.8142
1.78873
1.76265
1.73612
1.70925
1.68217
1.65498
1.62776
1.60057
1.57347
1.54651
1.51973
1.49316
1.46682
1.44075
1.41497
1.38946
1.36437
1.33906
1.31696
1.27992
2.72035
2.70225
2.68415
2.66604
2.64794
2.62983
2.61174
2.59366
2.57559
2.55755
2.53953
2.52155
2.50362
2.48573
2.4679
2.45013
2.43244
2.41483
2.3973
2.37988
2.36255
2.34534
2.32825
2.31129
2.29446
2.27778
2.26125
2.24488
2.22868
2.21267
2.19685
2.18124
2.16586
2.15072
2.13584
2.12124
2.10697
2.09304
2.07949
2.06637
2.05372
2.04159
2.03003
2.0191
2.00886
1.99938
1.99072
1.98295
1.97612
1.9703
1.96553
1.96186
1.9593
1.95788
1.95755
1.95828
1.95997
1.96249
1.96567
1.96927
1.97304
1.97668
1.97987
1.98228
1.98361
1.98355
1.98185
1.97831
1.97277
1.96513
1.95536
1.94346
1.9295
1.91357
1.89581
1.87639
1.85546
1.83321
1.80983
1.78549
1.76037
1.73462
1.70838
1.68179
1.65495
1.62797
1.60093
1.5739
1.54694
1.52009
1.4934
1.46689
1.44061
1.41457
1.38881
1.36331
1.33821
1.3129
1.2908
1.25376
2.72022
2.70212
2.684
2.66588
2.64776
2.62964
2.61152
2.59341
2.57532
2.55725
2.5392
2.52118
2.5032
2.48527
2.46738
2.44955
2.43179
2.41411
2.3965
2.37899
2.36157
2.34426
2.32707
2.30999
2.29305
2.27625
2.2596
2.24311
2.22679
2.21065
2.19471
2.17897
2.16346
2.14818
2.13317
2.11844
2.10402
2.08994
2.07623
2.06293
2.05008
2.03773
2.02591
2.01469
2.00412
1.99425
1.98514
1.97684
1.96941
1.9629
1.95736
1.95282
1.94931
1.94683
1.94536
1.94487
1.94527
1.94645
1.94825
1.95046
1.95285
1.95515
1.95706
1.95828
1.95851
1.95749
1.95498
1.95076
1.9447
1.93669
1.92668
1.91468
1.90073
1.88493
1.86738
1.84823
1.82764
1.80576
1.78277
1.75883
1.7341
1.70872
1.68283
1.65657
1.63003
1.60332
1.57652
1.5497
1.52292
1.49624
1.46969
1.44332
1.41715
1.39122
1.36555
1.34013
1.31512
1.28988
1.26787
1.23093
2.7201
2.70199
2.68386
2.66572
2.64758
2.62944
2.61131
2.59318
2.57506
2.55696
2.53888
2.52082
2.5028
2.48482
2.46689
2.449
2.43118
2.41343
2.39575
2.37815
2.36065
2.34325
2.32596
2.30878
2.29174
2.27483
2.25806
2.24146
2.22502
2.20876
2.19269
2.17683
2.16119
2.14579
2.13064
2.11578
2.10122
2.08699
2.07312
2.05965
2.0466
2.03403
2.02197
2.01046
1.99956
1.98931
1.97976
1.97096
1.96296
1.9558
1.94952
1.94416
1.93974
1.93626
1.93373
1.93209
1.93129
1.93123
1.93175
1.93268
1.93381
1.93487
1.9356
1.93572
1.93496
1.93305
1.92976
1.92491
1.91834
1.90996
1.89971
1.88761
1.87368
1.858
1.84068
1.82184
1.80161
1.78016
1.75761
1.73412
1.70984
1.6849
1.65944
1.63356
1.60738
1.581
1.55449
1.52794
1.5014
1.47494
1.44859
1.4224
1.3964
1.37062
1.34509
1.31982
1.29494
1.26984