/*--------------------------------*- C++ -*----------------------------------*\
  =========                 |
  \\      /  F ield         | OpenFOAM: The Open Source CFD Toolbox
   \\    /   O peration     | Website:  https://openfoam.org
    \\  /    A nd           | Version:  10
     \\/     M anipulation  |
\*---------------------------------------------------------------------------*/
FoamFile
{
    format      ascii;
    class       volScalarField;
    location    "0.11";
    object      k;
}
// * * * * * * * * * * * * * * * * * * * * * * * * * * * * * * * * * * * * * //

dimensions      [0 2 -2 0 0 0 0];

internalField   nonuniform List<scalar> 
6820
(
0.196709
0.190616
0.184994
0.179725
0.174798
0.17025
0.166115
0.162408
0.159125
0.156249
0.153751
0.151601
0.149766
0.148214
0.146915
0.145842
0.14497
0.144275
0.143737
0.143338
0.143062
0.142893
0.142818
0.142826
0.142907
0.143052
0.143248
0.143511
0.143723
0.14441
0.143077
0.151373
0.114696
0.201954
0.200831
0.197543
0.193922
0.19084
0.188583
0.187152
0.186425
0.186253
0.186504
0.187072
0.187875
0.188855
0.189965
0.191173
0.192452
0.193782
0.195146
0.196532
0.197929
0.199329
0.200725
0.202112
0.203487
0.204847
0.206192
0.207526
0.208856
0.210199
0.211646
0.213008
0.215704
0.21619
0.200488
0.200475
0.199118
0.19707
0.194842
0.192691
0.190724
0.188985
0.187487
0.186229
0.185202
0.184389
0.183771
0.183329
0.183042
0.182893
0.182865
0.182943
0.183112
0.183361
0.183678
0.184055
0.184483
0.184954
0.185464
0.186006
0.186578
0.18718
0.187803
0.188479
0.189135
0.189931
0.190477
0.199661
0.199121
0.198219
0.196983
0.195545
0.194012
0.192458
0.190931
0.189463
0.188074
0.186776
0.185577
0.184479
0.183481
0.182582
0.181777
0.181061
0.18043
0.179876
0.179395
0.178981
0.178629
0.178334
0.178092
0.177897
0.177747
0.177638
0.177569
0.177538
0.177549
0.177592
0.177687
0.177811
0.199429
0.198466
0.197531
0.196513
0.195399
0.194214
0.192987
0.19174
0.190495
0.189268
0.18807
0.186909
0.185794
0.184728
0.183714
0.182754
0.181847
0.180993
0.180192
0.179441
0.178739
0.178084
0.177473
0.176905
0.176377
0.175888
0.175435
0.175018
0.174634
0.174285
0.173966
0.17368
0.173418
0.199398
0.198267
0.197202
0.196166
0.195133
0.194088
0.193029
0.191959
0.190884
0.189813
0.188751
0.187705
0.186679
0.185678
0.184705
0.183762
0.182851
0.181973
0.181128
0.180317
0.179539
0.178795
0.178082
0.177402
0.176752
0.176132
0.175541
0.174978
0.174443
0.173935
0.173453
0.172996
0.172562
0.199395
0.19822
0.197098
0.196021
0.194978
0.193957
0.192953
0.191959
0.190974
0.189998
0.189033
0.18808
0.187142
0.18622
0.185316
0.184432
0.183569
0.182729
0.181911
0.181117
0.180346
0.1796
0.178877
0.178178
0.177502
0.17685
0.17622
0.175613
0.175027
0.174464
0.173921
0.1734
0.172898
0.199395
0.198211
0.197069
0.195969
0.194908
0.193881
0.192884
0.191912
0.190962
0.19003
0.189116
0.188219
0.187338
0.186474
0.185627
0.184797
0.183984
0.18319
0.182414
0.181657
0.180919
0.180199
0.179498
0.178817
0.178154
0.17751
0.176884
0.176277
0.175687
0.175116
0.174562
0.174026
0.173507
0.199395
0.198209
0.197063
0.195955
0.194884
0.19385
0.192848
0.191877
0.190935
0.190017
0.189124
0.188252
0.187401
0.18657
0.185757
0.184963
0.184187
0.183429
0.182688
0.181965
0.181258
0.180569
0.179896
0.17924
0.178601
0.177977
0.17737
0.176779
0.176204
0.175644
0.1751
0.174571
0.174057
0.199395
0.198209
0.197061
0.195951
0.194877
0.193838
0.192833
0.19186
0.190917
0.190002
0.189114
0.188251
0.187412
0.186595
0.1858
0.185025
0.18427
0.183533
0.182815
0.182115
0.181432
0.180765
0.180115
0.179482
0.178863
0.178261
0.177673
0.1771
0.176542
0.175999
0.175469
0.174954
0.174453
0.199395
0.198209
0.197061
0.19595
0.194875
0.193834
0.192827
0.191852
0.190908
0.189992
0.189105
0.188244
0.187408
0.186597
0.185808
0.185041
0.184296
0.18357
0.182864
0.182177
0.181507
0.180855
0.18022
0.179601
0.178998
0.17841
0.177838
0.17728
0.176736
0.176207
0.175691
0.175188
0.174699
0.199395
0.198209
0.19706
0.195949
0.194874
0.193833
0.192825
0.191849
0.190903
0.189987
0.189099
0.188238
0.187403
0.186593
0.185806
0.185042
0.1843
0.183579
0.182878
0.182197
0.181534
0.18089
0.180262
0.179652
0.179058
0.178479
0.177916
0.177367
0.176833
0.176313
0.175807
0.175314
0.174835
0.199395
0.198209
0.19706
0.195949
0.194873
0.193832
0.192824
0.191847
0.190901
0.189985
0.189096
0.188235
0.187399
0.186589
0.185802
0.185039
0.184298
0.183579
0.18288
0.182201
0.181541
0.180899
0.180276
0.179669
0.179079
0.178505
0.177947
0.177404
0.176875
0.176361
0.17586
0.175373
0.174899
0.199395
0.198209
0.19706
0.195949
0.194873
0.193831
0.192823
0.191846
0.1909
0.189983
0.189094
0.188232
0.187397
0.186586
0.185799
0.185036
0.184295
0.183576
0.182878
0.182199
0.18154
0.1809
0.180277
0.179672
0.179084
0.178512
0.177956
0.177415
0.176889
0.176378
0.17588
0.175396
0.174925
0.199395
0.198208
0.19706
0.195948
0.194872
0.193831
0.192822
0.191845
0.190899
0.189982
0.189093
0.188231
0.187395
0.186584
0.185797
0.185034
0.184293
0.183573
0.182875
0.182196
0.181537
0.180897
0.180275
0.179671
0.179083
0.178512
0.177957
0.177417
0.176892
0.176381
0.175885
0.175402
0.174932
0.199395
0.198208
0.19706
0.195948
0.194872
0.19383
0.192822
0.191845
0.190898
0.189981
0.189091
0.188229
0.187393
0.186582
0.185795
0.185031
0.18429
0.183571
0.182872
0.182194
0.181535
0.180894
0.180272
0.179668
0.17908
0.178509
0.177954
0.177415
0.17689
0.17638
0.175883
0.175401
0.174932
0.199395
0.198208
0.19706
0.195948
0.194872
0.19383
0.192821
0.191844
0.190897
0.18998
0.18909
0.188228
0.187392
0.18658
0.185793
0.18503
0.184288
0.183569
0.18287
0.182191
0.181532
0.180892
0.180269
0.179665
0.179077
0.178506
0.177951
0.177411
0.176886
0.176376
0.17588
0.175397
0.174928
0.199395
0.198208
0.19706
0.195948
0.194872
0.19383
0.192821
0.191843
0.190897
0.189979
0.189089
0.188227
0.18739
0.186579
0.185792
0.185028
0.184286
0.183567
0.182868
0.182189
0.181529
0.180889
0.180267
0.179662
0.179074
0.178503
0.177948
0.177408
0.176883
0.176372
0.175876
0.175393
0.174923
0.199395
0.198208
0.197059
0.195948
0.194871
0.193829
0.19282
0.191843
0.190896
0.189978
0.189088
0.188226
0.187389
0.186578
0.18579
0.185026
0.184285
0.183565
0.182866
0.182187
0.181527
0.180886
0.180264
0.179659
0.179071
0.1785
0.177944
0.177404
0.176879
0.176368
0.175872
0.175389
0.174919
0.199395
0.198208
0.197059
0.195948
0.194871
0.193829
0.19282
0.191843
0.190895
0.189978
0.189088
0.188225
0.187388
0.186577
0.185789
0.185025
0.184283
0.183563
0.182864
0.182185
0.181525
0.180884
0.180262
0.179656
0.179068
0.178497
0.177941
0.177401
0.176875
0.176364
0.175867
0.175384
0.174914
0.199395
0.198208
0.197059
0.195947
0.194871
0.193829
0.19282
0.191842
0.190895
0.189977
0.189087
0.188224
0.187387
0.186576
0.185788
0.185024
0.184282
0.183561
0.182862
0.182183
0.181523
0.180882
0.180259
0.179654
0.179066
0.178494
0.177938
0.177397
0.176872
0.176361
0.175863
0.17538
0.174909
0.199395
0.198208
0.197059
0.195947
0.194871
0.193829
0.19282
0.191842
0.190895
0.189976
0.189086
0.188223
0.187387
0.186575
0.185787
0.185022
0.18428
0.18356
0.18286
0.182181
0.181521
0.18088
0.180257
0.179652
0.179063
0.178491
0.177935
0.177394
0.176868
0.176357
0.17586
0.175376
0.174905
0.199395
0.198208
0.197059
0.195947
0.194871
0.193829
0.192819
0.191842
0.190894
0.189976
0.189086
0.188223
0.187386
0.186574
0.185786
0.185021
0.184279
0.183559
0.182859
0.182179
0.181519
0.180878
0.180255
0.179649
0.179061
0.178489
0.177932
0.177391
0.176865
0.176353
0.175856
0.175371
0.1749
0.199395
0.198208
0.197059
0.195947
0.194871
0.193829
0.192819
0.191841
0.190894
0.189976
0.189086
0.188222
0.187385
0.186573
0.185785
0.18502
0.184278
0.183558
0.182858
0.182178
0.181518
0.180876
0.180253
0.179647
0.179058
0.178486
0.17793
0.177388
0.176862
0.17635
0.175852
0.175368
0.174896
0.199395
0.198208
0.197059
0.195947
0.194871
0.193829
0.192819
0.191841
0.190894
0.189975
0.189085
0.188222
0.187385
0.186572
0.185784
0.18502
0.184277
0.183556
0.182856
0.182177
0.181516
0.180875
0.180251
0.179645
0.179056
0.178484
0.177927
0.177386
0.176859
0.176347
0.175848
0.175364
0.174892
0.199395
0.198208
0.197059
0.195947
0.194871
0.193828
0.192819
0.191841
0.190894
0.189975
0.189085
0.188222
0.187384
0.186572
0.185784
0.185019
0.184276
0.183555
0.182855
0.182176
0.181515
0.180873
0.18025
0.179644
0.179054
0.178482
0.177925
0.177383
0.176856
0.176344
0.175845
0.17536
0.174888
0.199395
0.198208
0.197059
0.195947
0.194871
0.193828
0.192819
0.191841
0.190893
0.189975
0.189085
0.188221
0.187384
0.186571
0.185783
0.185018
0.184276
0.183555
0.182854
0.182174
0.181514
0.180872
0.180248
0.179642
0.179052
0.178479
0.177922
0.17738
0.176853
0.176341
0.175842
0.175357
0.174884
0.199395
0.198208
0.197059
0.195947
0.194871
0.193828
0.192819
0.191841
0.190893
0.189975
0.189084
0.188221
0.187384
0.186571
0.185783
0.185018
0.184275
0.183554
0.182854
0.182174
0.181513
0.180871
0.180247
0.17964
0.179051
0.178478
0.17792
0.177378
0.176851
0.176338
0.175839
0.175354
0.174881
0.199395
0.198208
0.197059
0.195947
0.194871
0.193828
0.192819
0.191841
0.190893
0.189975
0.189084
0.188221
0.187383
0.186571
0.185782
0.185017
0.184274
0.183553
0.182853
0.182173
0.181512
0.18087
0.180246
0.179639
0.179049
0.178476
0.177918
0.177376
0.176849
0.176336
0.175836
0.175351
0.174878
0.199395
0.198208
0.197059
0.195947
0.194871
0.193828
0.192819
0.191841
0.190893
0.189975
0.189085
0.188221
0.187384
0.186571
0.185783
0.185017
0.184275
0.183553
0.182853
0.182173
0.181512
0.180869
0.180245
0.179638
0.179049
0.178475
0.177917
0.177375
0.176847
0.176334
0.175835
0.175349
0.174875
0.199395
0.198208
0.197059
0.195947
0.194871
0.193828
0.192819
0.191841
0.190893
0.189975
0.189084
0.188221
0.187383
0.186571
0.185782
0.185017
0.184274
0.183553
0.182853
0.182172
0.181511
0.180869
0.180245
0.179638
0.179048
0.178474
0.177917
0.177374
0.176846
0.176333
0.175833
0.175347
0.174874
0.199395
0.198208
0.197059
0.195948
0.194871
0.193829
0.19282
0.191843
0.190895
0.189977
0.189087
0.188223
0.187386
0.186573
0.185785
0.18502
0.184277
0.183555
0.182855
0.182174
0.181513
0.180871
0.180246
0.179639
0.179049
0.178475
0.177917
0.177375
0.176847
0.176333
0.175833
0.175346
0.174873
0.199395
0.198209
0.19706
0.195949
0.194872
0.19383
0.192821
0.191843
0.190896
0.189977
0.189087
0.188224
0.187387
0.186574
0.185786
0.185021
0.184278
0.183557
0.182856
0.182176
0.181515
0.180872
0.180248
0.179641
0.17905
0.178476
0.177918
0.177374
0.176846
0.176331
0.175831
0.175343
0.174869
0.199395
0.198208
0.19706
0.19595
0.194875
0.193835
0.192827
0.191851
0.190904
0.189987
0.189097
0.188234
0.187397
0.186584
0.185796
0.18503
0.184287
0.183565
0.182864
0.182182
0.18152
0.180877
0.180251
0.179642
0.17905
0.178474
0.177914
0.177369
0.176838
0.176321
0.175818
0.175328
0.174851
0.199396
0.198212
0.197066
0.195957
0.194883
0.193842
0.192834
0.191857
0.190911
0.189993
0.189104
0.188241
0.187403
0.18659
0.185801
0.185034
0.184289
0.183565
0.182861
0.182176
0.181511
0.180863
0.180232
0.179619
0.179022
0.17844
0.177874
0.177322
0.176784
0.17626
0.17575
0.175252
0.174767
0.199396
0.198213
0.197071
0.195969
0.194902
0.193869
0.192866
0.191892
0.190947
0.190029
0.189137
0.188269
0.187426
0.186606
0.185808
0.185031
0.184275
0.183539
0.182822
0.182124
0.181444
0.180781
0.180134
0.179505
0.17889
0.178291
0.177707
0.177137
0.176581
0.176039
0.17551
0.174993
0.174489
0.199402
0.198241
0.197115
0.196019
0.194953
0.193916
0.192909
0.191928
0.190972
0.19004
0.189131
0.188244
0.187379
0.186535
0.185711
0.184906
0.184121
0.183355
0.182606
0.181876
0.181163
0.180467
0.179787
0.179123
0.178474
0.177841
0.177222
0.176618
0.176028
0.175451
0.174887
0.174336
0.173798
0.199421
0.198284
0.197214
0.196182
0.195157
0.194135
0.193117
0.192109
0.191115
0.19014
0.189185
0.188253
0.187344
0.186458
0.185595
0.184755
0.183936
0.183138
0.18236
0.181602
0.180862
0.180141
0.179436
0.178749
0.178077
0.177422
0.176781
0.176156
0.175544
0.174947
0.174363
0.173793
0.173236
0.199655
0.198885
0.198077
0.197303
0.196604
0.195977
0.195406
0.194883
0.1944
0.193955
0.193547
0.193173
0.192835
0.192529
0.192256
0.192013
0.1918
0.191615
0.191456
0.191322
0.191211
0.191122
0.191054
0.191005
0.190974
0.190959
0.190961
0.190977
0.191008
0.191051
0.191106
0.191174
0.191251
0.205419
0.216602
0.227661
0.238503
0.249093
0.259416
0.269459
0.279212
0.288667
0.297817
0.306658
0.315188
0.323405
0.331312
0.338909
0.346202
0.353195
0.359893
0.366303
0.372432
0.378288
0.383878
0.389211
0.394296
0.399141
0.403755
0.408146
0.412324
0.416296
0.420071
0.423658
0.427063
0.430299
0.318055
0.624317
0.942583
1.23917
1.49114
1.68507
1.81966
1.90303
1.94755
1.96603
1.96869
1.96266
1.95238
1.94031
1.92776
1.9155
1.90414
1.89426
1.88643
1.88113
1.87868
1.87921
1.88268
1.88888
1.89752
1.90817
1.92036
1.93355
1.94715
1.96054
1.97307
1.98411
1.99301
1.99911
2.00175
2.00027
1.99395
1.98208
1.96387
1.93852
1.90517
1.86294
1.81096
1.74837
1.67443
1.58851
1.49028
1.37975
1.25749
1.12487
0.984293
0.839571
0.696195
0.561348
0.443162
0.348754
0.281406
0.238945
0.215319
0.20395
0.199839
0.199783
0.201855
0.204908
0.208266
0.21154
0.214518
0.217102
0.21927
0.221039
0.222459
0.22359
0.2245
0.225258
0.225926
0.226562
0.22721
0.227904
0.228662
0.229489
0.230377
0.231308
0.232255
0.23319
0.234084
0.234908
0.235642
0.236268
0.236776
0.237162
0.237422
0.237555
0.237559
0.237426
0.237145
0.236692
0.236046
0.235118
0.23413
0.231534
0.227754
0.254515
0.29672
0.35598
0.433385
0.528396
0.638166
0.757761
0.880703
1.00019
1.11002
1.20559
1.28446
1.34644
1.39315
1.42728
1.45177
1.46936
1.48226
1.49211
1.50012
1.50712
1.51371
1.52032
1.52723
1.53459
1.54242
1.55062
1.55896
1.56713
1.57472
1.58126
1.58623
1.58907
1.58917
1.58591
1.57862
1.56658
1.54905
1.52525
1.49438
1.45563
1.40823
1.35149
1.28486
1.20803
1.12104
1.02444
0.919466
0.808289
0.694214
0.581827
0.476841
0.385356
0.312338
0.259779
0.225905
0.206403
0.196608
0.192867
0.192729
0.194632
0.197585
0.200956
0.20435
0.207529
0.210362
0.212791
0.214808
0.216437
0.217723
0.218723
0.2195
0.220116
0.220631
0.221099
0.221568
0.222071
0.222634
0.223267
0.22397
0.224732
0.225534
0.226352
0.227158
0.227928
0.228638
0.22927
0.229811
0.230253
0.230589
0.230816
0.230926
0.230912
0.230758
0.230441
0.229939
0.229168
0.228328
0.225999
0.191148
0.193164
0.197525
0.204857
0.215618
0.230414
0.250129
0.275904
0.308855
0.349848
0.399148
0.456105
0.519261
0.586174
0.65388
0.719399
0.780206
0.83455
0.881588
0.921304
0.954297
0.981517
1.00403
1.02284
1.03883
1.05269
1.06496
1.07598
1.08599
1.09505
1.10313
1.11008
1.11563
1.11944
1.1211
1.1201
1.11589
1.10786
1.09534
1.07766
1.05412
1.02405
0.98687
0.942112
0.889537
0.829224
0.761692
0.68805
0.610133
0.530612
0.452968
0.381228
0.319308
0.270024
0.234188
0.210482
0.196304
0.188901
0.186026
0.186057
0.18787
0.190693
0.193993
0.197409
0.200701
0.203718
0.206375
0.208636
0.210501
0.211994
0.213156
0.214039
0.214697
0.215188
0.215569
0.215889
0.216195
0.216522
0.2169
0.217344
0.217861
0.218446
0.219087
0.219766
0.220459
0.221144
0.221797
0.222402
0.222942
0.223406
0.223786
0.224075
0.224263
0.224339
0.224289
0.224086
0.22371
0.223078
0.222373
0.2203
0.177926
0.178113
0.178497
0.179236
0.180488
0.182402
0.185133
0.18887
0.193874
0.200486
0.209114
0.220194
0.234058
0.251059
0.271411
0.295085
0.321748
0.350767
0.381277
0.412291
0.442834
0.472065
0.499347
0.524284
0.546706
0.566636
0.584233
0.599737
0.613409
0.625485
0.636145
0.645487
0.653517
0.660146
0.665186
0.668361
0.66931
0.667604
0.662761
0.654268
0.641616
0.624341
0.60208
0.574636
0.54206
0.504738
0.463474
0.419552
0.37474
0.331192
0.291192
0.256745
0.229124
0.208601
0.194539
0.185792
0.181119
0.179425
0.179827
0.181637
0.184327
0.187495
0.19084
0.194146
0.197259
0.200077
0.202543
0.204633
0.206348
0.207711
0.208758
0.209533
0.210086
0.210469
0.210731
0.210922
0.211083
0.211252
0.211459
0.211724
0.212058
0.212464
0.212935
0.213459
0.214018
0.214592
0.21516
0.215706
0.216212
0.216666
0.217057
0.217376
0.217612
0.217751
0.217778
0.217666
0.217394
0.216883
0.216299
0.214466
0.173117
0.172783
0.172493
0.172281
0.172175
0.172206
0.172402
0.172797
0.173428
0.174349
0.175628
0.177369
0.179611
0.182437
0.185941
0.190217
0.195349
0.201391
0.208362
0.216229
0.224907
0.234259
0.244102
0.254228
0.26442
0.274474
0.284218
0.293523
0.302303
0.310512
0.318129
0.325145
0.331546
0.337294
0.342317
0.346498
0.349666
0.351603
0.352045
0.3507
0.347274
0.341504
0.333201
0.322302
0.308917
0.293376
0.276242
0.2583
0.240484
0.223757
0.208959
0.196668
0.187138
0.180325
0.175981
0.173753
0.173257
0.174117
0.175985
0.178551
0.181546
0.184748
0.187976
0.19109
0.193986
0.196591
0.198862
0.200781
0.202351
0.20359
0.204529
0.205206
0.205665
0.205953
0.206113
0.20619
0.206225
0.206254
0.206305
0.206404
0.206564
0.206793
0.207092
0.207452
0.207861
0.208304
0.208763
0.209222
0.209664
0.210076
0.210448
0.210766
0.211019
0.211193
0.211269
0.211223
0.211031
0.21062
0.21014
0.208527
0.172077
0.171534
0.171004
0.170493
0.170007
0.169558
0.169158
0.168816
0.168544
0.168352
0.168252
0.168258
0.168381
0.168633
0.169028
0.169583
0.170314
0.171236
0.172362
0.173698
0.175246
0.177
0.178945
0.181061
0.183316
0.185676
0.188104
0.190563
0.193019
0.195444
0.197815
0.200112
0.202318
0.204415
0.206376
0.208166
0.209732
0.211004
0.211893
0.212293
0.212087
0.211163
0.20943
0.206838
0.203401
0.199213
0.194452
0.189371
0.184272
0.179466
0.175238
0.171809
0.169323
0.167842
0.167356
0.167794
0.169044
0.170965
0.173402
0.176196
0.179199
0.182274
0.185304
0.188191
0.190858
0.193248
0.195329
0.197084
0.198514
0.199634
0.200472
0.201059
0.201434
0.201637
0.201708
0.201687
0.201613
0.201517
0.201431
0.201378
0.201376
0.201437
0.201565
0.201759
0.20201
0.202307
0.202637
0.202985
0.203338
0.203681
0.204002
0.20429
0.204531
0.20471
0.204808
0.204801
0.204665
0.204333
0.203936
0.20252
0.172334
0.171701
0.171073
0.170451
0.169839
0.16924
0.168655
0.168091
0.16755
0.167038
0.166557
0.166113
0.165708
0.165346
0.165029
0.164762
0.164546
0.164385
0.164281
0.164236
0.16425
0.164325
0.164458
0.164646
0.164885
0.165169
0.165491
0.165842
0.166216
0.166605
0.167003
0.167404
0.167803
0.168195
0.168575
0.168935
0.169265
0.169549
0.16977
0.169901
0.169913
0.169774
0.169456
0.168937
0.168211
0.167295
0.166233
0.165094
0.163972
0.162976
0.162218
0.161801
0.161807
0.162289
0.163268
0.16473
0.166631
0.168906
0.17147
0.17423
0.177094
0.179967
0.182766
0.185416
0.187857
0.190041
0.19194
0.193539
0.194837
0.195847
0.196589
0.197093
0.197391
0.197518
0.197512
0.197406
0.197237
0.197034
0.196826
0.196638
0.19649
0.196394
0.196359
0.196387
0.196477
0.196621
0.196808
0.197028
0.197269
0.197518
0.197763
0.197993
0.198193
0.198349
0.198441
0.198446
0.198342
0.198064
0.19773
0.196482
0.172921
0.172261
0.1716
0.17094
0.170283
0.16963
0.168983
0.168344
0.167715
0.167097
0.166494
0.165906
0.165337
0.164786
0.164255
0.163746
0.16326
0.162797
0.162358
0.161944
0.161554
0.16119
0.160851
0.160536
0.160245
0.159976
0.159729
0.159501
0.159289
0.159093
0.15891
0.158739
0.158578
0.158428
0.158285
0.158151
0.158024
0.157902
0.157783
0.157665
0.157544
0.157416
0.157279
0.157133
0.15698
0.156832
0.156708
0.156637
0.156658
0.156817
0.157164
0.157746
0.158603
0.159763
0.161236
0.163015
0.165075
0.167373
0.169857
0.172462
0.175121
0.177765
0.180327
0.182747
0.184973
0.186964
0.188693
0.190146
0.191321
0.192226
0.19288
0.193307
0.193535
0.193595
0.19352
0.193341
0.193089
0.192793
0.192481
0.192174
0.191894
0.191655
0.191468
0.191339
0.19127
0.191257
0.191295
0.191375
0.191488
0.191622
0.191769
0.191916
0.19205
0.192156
0.192216
0.192208
0.192109
0.191859
0.191566
0.190457
0.173475
0.172817
0.172157
0.171495
0.170833
0.170171
0.16951
0.168852
0.168198
0.16755
0.166909
0.166276
0.165653
0.16504
0.16444
0.163851
0.163275
0.162713
0.162165
0.161631
0.161111
0.160605
0.160115
0.159639
0.159177
0.158731
0.158298
0.157879
0.157474
0.157082
0.156702
0.156335
0.155981
0.15564
0.155313
0.155001
0.154705
0.154428
0.154171
0.153939
0.153734
0.153563
0.153429
0.153342
0.15331
0.153347
0.153467
0.15369
0.154039
0.154539
0.155216
0.156095
0.157194
0.158526
0.160094
0.16189
0.163893
0.166072
0.168387
0.170789
0.173224
0.175637
0.17797
0.180173
0.182199
0.184011
0.185583
0.186902
0.187962
0.188772
0.189344
0.1897
0.189864
0.189863
0.189727
0.189484
0.189161
0.188786
0.188383
0.187973
0.187577
0.187211
0.186886
0.18661
0.18639
0.186223
0.186109
0.186043
0.186017
0.186023
0.186053
0.186097
0.186142
0.186175
0.186178
0.186131
0.186012
0.185767
0.185492
0.184488
0.173884
0.17324
0.172592
0.171943
0.17129
0.170637
0.169982
0.169328
0.168676
0.168026
0.167381
0.166741
0.166107
0.16548
0.164861
0.16425
0.163648
0.163055
0.162472
0.161898
0.161334
0.16078
0.160237
0.159704
0.159182
0.158671
0.158171
0.157682
0.157204
0.156737
0.156282
0.155839
0.155408
0.154992
0.154591
0.154208
0.153843
0.153502
0.153187
0.152903
0.152657
0.152454
0.152304
0.152216
0.152201
0.152273
0.152444
0.152731
0.153151
0.153722
0.154458
0.155376
0.156486
0.157793
0.159297
0.160988
0.162849
0.164856
0.166973
0.169162
0.171376
0.173568
0.175689
0.17769
0.179532
0.18118
0.182609
0.183803
0.184759
0.185479
0.185976
0.186267
0.186373
0.186318
0.186128
0.185828
0.185445
0.185001
0.18452
0.184023
0.183526
0.183048
0.182599
0.182191
0.18183
0.181518
0.181256
0.181042
0.180873
0.180742
0.180643
0.180568
0.180506
0.180445
0.18037
0.180261
0.1801
0.179835
0.179556
0.178622
0.174144
0.173515
0.172883
0.172248
0.171611
0.170971
0.170329
0.169687
0.169046
0.168406
0.167768
0.167134
0.166505
0.16588
0.165262
0.16465
0.164044
0.163446
0.162855
0.162271
0.161696
0.161128
0.160568
0.160016
0.159473
0.158939
0.158414
0.157898
0.157391
0.156895
0.156409
0.155934
0.155472
0.155023
0.15459
0.154174
0.153779
0.153408
0.153064
0.152754
0.152484
0.15226
0.152091
0.151987
0.15196
0.15202
0.152181
0.152456
0.15286
0.153405
0.154105
0.154969
0.156004
0.157214
0.158597
0.160143
0.161838
0.16366
0.16558
0.167563
0.169569
0.171556
0.17348
0.175298
0.176972
0.178469
0.179766
0.180847
0.181706
0.182345
0.182772
0.183004
0.183057
0.182953
0.182716
0.182367
0.181931
0.181429
0.180882
0.180309
0.179727
0.179152
0.178595
0.178069
0.17758
0.177133
0.176731
0.176375
0.176063
0.175792
0.175558
0.175354
0.175172
0.175002
0.174831
0.17464
0.174415
0.174108
0.173803
0.172906
0.17429
0.173673
0.173054
0.172431
0.171807
0.171179
0.170551
0.169921
0.169291
0.168663
0.168035
0.167411
0.16679
0.166173
0.165561
0.164954
0.164353
0.163757
0.163168
0.162585
0.162009
0.161439
0.160876
0.16032
0.159772
0.15923
0.158697
0.158171
0.157654
0.157146
0.156647
0.156159
0.155682
0.155219
0.15477
0.154339
0.153928
0.15354
0.15318
0.152854
0.152566
0.152324
0.152137
0.152012
0.151962
0.151995
0.152125
0.152363
0.15272
0.153209
0.153839
0.154619
0.155555
0.156648
0.157895
0.15929
0.160819
0.162463
0.164196
0.165988
0.167803
0.169603
0.171347
0.172997
0.174517
0.175876
0.177052
0.178029
0.178799
0.179363
0.179727
0.179904
0.17991
0.179763
0.179483
0.179093
0.178611
0.17806
0.177457
0.17682
0.176165
0.175507
0.174857
0.174228
0.173626
0.173058
0.172528
0.172038
0.171589
0.171181
0.17081
0.170473
0.170164
0.169874
0.169592
0.169305
0.168997
0.168629
0.16828
0.167385
0.174362
0.173753
0.173142
0.172528
0.171912
0.171295
0.170675
0.170055
0.169435
0.168815
0.168197
0.167581
0.166967
0.166357
0.165751
0.16515
0.164554
0.163962
0.163377
0.162797
0.162223
0.161654
0.161092
0.160536
0.159987
0.159444
0.158908
0.158379
0.157858
0.157344
0.15684
0.156346
0.155863
0.155392
0.154935
0.154495
0.154074
0.153676
0.153305
0.152966
0.152664
0.152407
0.152201
0.152055
0.151979
0.151981
0.152074
0.152266
0.15257
0.152994
0.153548
0.154238
0.15507
0.156046
0.157162
0.158413
0.159786
0.161265
0.162826
0.164443
0.166084
0.167712
0.169292
0.170788
0.172167
0.1734
0.174465
0.175345
0.176033
0.176528
0.176835
0.176962
0.176925
0.176739
0.176423
0.175995
0.175476
0.174882
0.174231
0.173541
0.172825
0.172097
0.171369
0.17065
0.16995
0.169276
0.168631
0.16802
0.167444
0.166905
0.166402
0.165933
0.165494
0.165079
0.16468
0.164284
0.163882
0.163436
0.163025
0.162102
0.174391
0.173787
0.17318
0.172572
0.171961
0.171349
0.170736
0.170122
0.169508
0.168894
0.168281
0.167671
0.167062
0.166457
0.165855
0.165257
0.164663
0.164075
0.163491
0.162913
0.16234
0.161772
0.161211
0.160655
0.160105
0.159561
0.159024
0.158493
0.15797
0.157454
0.156947
0.156449
0.155961
0.155486
0.155024
0.154578
0.154151
0.153745
0.153365
0.153016
0.152702
0.15243
0.152206
0.152039
0.151937
0.151908
0.151963
0.152111
0.15236
0.15272
0.1532
0.153804
0.154538
0.155403
0.156398
0.157515
0.158745
0.160073
0.161478
0.162935
0.164416
0.165888
0.167318
0.168674
0.169923
0.171039
0.172
0.172792
0.173404
0.173836
0.174088
0.174171
0.174095
0.173874
0.173526
0.173067
0.172514
0.171885
0.171195
0.170459
0.169692
0.168906
0.168112
0.167319
0.166536
0.165769
0.165024
0.164306
0.163616
0.162957
0.162331
0.161736
0.16117
0.16063
0.16011
0.159601
0.159095
0.158559
0.158075
0.157095
0.1744
0.173797
0.173193
0.172587
0.171979
0.17137
0.17076
0.170149
0.169538
0.168927
0.168317
0.167709
0.167102
0.166499
0.165898
0.165302
0.164709
0.16412
0.163537
0.162958
0.162384
0.161815
0.161252
0.160695
0.160143
0.159597
0.159058
0.158525
0.157999
0.157481
0.156971
0.156469
0.155978
0.155499
0.155033
0.154582
0.154149
0.153737
0.153349
0.15299
0.152665
0.15238
0.15214
0.151953
0.151826
0.151768
0.151786
0.151891
0.152089
0.15239
0.1528
0.153324
0.153967
0.154731
0.155613
0.156608
0.157707
0.158897
0.160159
0.161471
0.162806
0.164135
0.165427
0.166653
0.167782
0.16879
0.169656
0.170365
0.170907
0.171279
0.171482
0.171523
0.171412
0.171161
0.170784
0.170298
0.169717
0.169058
0.168335
0.167563
0.166754
0.165919
0.16507
0.164216
0.163363
0.162519
0.161689
0.160877
0.160087
0.159322
0.158584
0.157873
0.157188
0.156529
0.155891
0.155268
0.154654
0.154021
0.153456
0.152397
0.1744
0.173798
0.173194
0.172589
0.171982
0.171374
0.170764
0.170155
0.169545
0.168935
0.168325
0.167717
0.167111
0.166507
0.165906
0.165308
0.164714
0.164124
0.163538
0.162957
0.16238
0.161809
0.161242
0.160682
0.160127
0.159577
0.159034
0.158498
0.157968
0.157446
0.156932
0.156427
0.155932
0.155448
0.154978
0.154522
0.154083
0.153665
0.15327
0.152902
0.152566
0.152268
0.152013
0.151806
0.151657
0.151571
0.151556
0.15162
0.151771
0.152016
0.152361
0.152812
0.153371
0.154042
0.154821
0.155704
0.156684
0.157747
0.158878
0.160056
0.161257
0.162454
0.16362
0.164725
0.165744
0.166651
0.167428
0.16806
0.168536
0.168852
0.169009
0.169012
0.168869
0.16859
0.168189
0.167679
0.167075
0.166391
0.165641
0.164839
0.163995
0.163122
0.162229
0.161323
0.160413
0.159505
0.158604
0.157714
0.156839
0.155982
0.155145
0.154331
0.153539
0.15277
0.15202
0.151287
0.150568
0.149836
0.149187
0.148033
0.174396
0.173794
0.17319
0.172585
0.171978
0.17137
0.17076
0.17015
0.16954
0.16893
0.16832
0.167711
0.167104
0.166498
0.165895
0.165295
0.164698
0.164104
0.163515
0.162929
0.162349
0.161773
0.161202
0.160637
0.160077
0.159523
0.158975
0.158434
0.157899
0.157372
0.156854
0.156344
0.155844
0.155355
0.154879
0.154418
0.153973
0.153548
0.153146
0.152769
0.152424
0.152113
0.151842
0.151618
0.151447
0.151334
0.151288
0.151315
0.151421
0.151614
0.1519
0.152282
0.152765
0.153349
0.154033
0.154814
0.155683
0.156631
0.157641
0.158696
0.159773
0.160848
0.161896
0.16289
0.163805
0.164619
0.165313
0.165871
0.166285
0.166549
0.166663
0.16663
0.166457
0.166153
0.16573
0.1652
0.164577
0.163873
0.163102
0.162276
0.161405
0.1605
0.159571
0.158625
0.157669
0.156709
0.155749
0.154795
0.153849
0.152915
0.151995
0.151092
0.150206
0.149338
0.148489
0.147655
0.146836
0.146008
0.145274
0.144016
0.174391
0.173789
0.173185
0.172579
0.171971
0.171363
0.170753
0.170142
0.169531
0.16892
0.168308
0.167698
0.167089
0.166481
0.165875
0.165272
0.164671
0.164074
0.16348
0.16289
0.162304
0.161723
0.161147
0.160576
0.160011
0.159451
0.158897
0.15835
0.15781
0.157277
0.156753
0.156237
0.155732
0.155238
0.154756
0.154288
0.153837
0.153405
0.152995
0.15261
0.152254
0.151931
0.151646
0.151404
0.151212
0.151074
0.150998
0.150989
0.151055
0.151199
0.151429
0.151748
0.152159
0.152663
0.15326
0.153945
0.154713
0.155552
0.156451
0.157392
0.158354
0.159317
0.160255
0.161145
0.161963
0.162689
0.163304
0.163794
0.164149
0.164363
0.164436
0.164369
0.164169
0.163842
0.1634
0.162853
0.162214
0.161495
0.160707
0.159862
0.15897
0.158041
0.157084
0.156107
0.155114
0.154113
0.153107
0.152101
0.151098
0.1501
0.149112
0.148134
0.147168
0.146217
0.14528
0.144356
0.143447
0.14253
0.141717
0.140353
0.174386
0.173783
0.173178
0.172572
0.171964
0.171355
0.170744
0.170132
0.16952
0.168907
0.168295
0.167682
0.167071
0.16646
0.165852
0.165245
0.16464
0.164039
0.163441
0.162846
0.162255
0.161669
0.161087
0.16051
0.159938
0.159372
0.158812
0.158259
0.157712
0.157173
0.156643
0.156121
0.155609
0.155109
0.15462
0.154146
0.153689
0.153249
0.152831
0.152436
0.15207
0.151734
0.151435
0.151177
0.150964
0.150802
0.150698
0.150656
0.150682
0.150781
0.150958
0.151218
0.151562
0.151991
0.152506
0.153103
0.153776
0.154516
0.15531
0.156145
0.157001
0.157858
0.158694
0.159486
0.160214
0.160856
0.161396
0.161821
0.16212
0.162287
0.16232
0.162222
0.161995
0.161648
0.161189
0.160628
0.159976
0.159245
0.158445
0.157586
0.15668
0.155733
0.154756
0.153754
0.152734
0.151701
0.15066
0.149613
0.148564
0.147517
0.146473
0.145435
0.144404
0.143383
0.142372
0.141371
0.140384
0.139388
0.138505
0.137038
0.174381
0.173778
0.173172
0.172565
0.171957
0.171346
0.170735
0.170122
0.169509
0.168895
0.16828
0.167666
0.167052
0.166439
0.165827
0.165217
0.164609
0.164004
0.163401
0.162801
0.162205
0.161613
0.161026
0.160443
0.159865
0.159293
0.158726
0.158166
0.157613
0.157068
0.156531
0.156002
0.155484
0.154977
0.154482
0.154001
0.153536
0.153089
0.152662
0.152258
0.151881
0.151534
0.15122
0.150945
0.150713
0.150528
0.150396
0.150322
0.15031
0.150366
0.150494
0.150698
0.150979
0.151339
0.151777
0.152291
0.152875
0.153522
0.15422
0.154955
0.155711
0.156469
0.157209
0.15791
0.158551
0.159114
0.159583
0.159945
0.160189
0.160311
0.160306
0.160177
0.159926
0.15956
0.159087
0.158515
0.157854
0.157114
0.156307
0.15544
0.154524
0.153567
0.152575
0.151557
0.150517
0.149461
0.148393
0.147315
0.146232