/*--------------------------------*- C++ -*----------------------------------*\
  =========                 |
  \\      /  F ield         | OpenFOAM: The Open Source CFD Toolbox
   \\    /   O peration     | Website:  https://openfoam.org
    \\  /    A nd           | Version:  10
     \\/     M anipulation  |
\*---------------------------------------------------------------------------*/
FoamFile
{
    format      ascii;
    class       volScalarField;
    location    "0.11";
    object      nut;
}
// * * * * * * * * * * * * * * * * * * * * * * * * * * * * * * * * * * * * * //

dimensions      [0 2 -1 0 0 0 0];

internalField   nonuniform List<scalar> 
6820
(
0.000149484
0.000144853
0.000140581
0.000136577
0.000132833
0.000129377
0.000126234
0.000123417
0.000120923
0.000118737
0.000116839
0.000115205
0.00011381
0.000112631
0.000111644
0.000110829
0.000110166
0.000109638
0.000109229
0.000108926
0.000108716
0.000108587
0.000108531
0.000108537
0.000108598
0.000108708
0.000108857
0.000109057
0.000109218
0.00010974
0.000108727
0.000115031
8.71615e-05
0.000729198
0.000532393
0.000448014
0.000399711
0.000368385
0.000346737
0.000331095
0.000319366
0.000310279
0.000303032
0.000297101
0.000292141
0.000287917
0.000284264
0.000281064
0.000278232
0.000275701
0.000273422
0.000271357
0.000269475
0.00026775
0.000266163
0.000264697
0.000263339
0.000262076
0.0002609
0.000259803
0.000258775
0.000257821
0.00025693
0.00025613
0.000255269
0.000256429
0.000976777
0.000872181
0.000781624
0.000711267
0.000657323
0.000615284
0.000581715
0.000554257
0.000531323
0.000511829
0.000495017
0.000480338
0.000467388
0.000455863
0.000445527
0.000436196
0.000427725
0.000419997
0.000412916
0.000406403
0.000400391
0.000394826
0.00038966
0.000384853
0.000380368
0.000376174
0.000372242
0.000368548
0.000365056
0.000361756
0.000358562
0.000355438
0.000352092
0.00101348
0.00098823
0.000949374
0.000906194
0.000864427
0.000826387
0.000792558
0.000762673
0.000736239
0.000712747
0.00069174
0.000672836
0.00065572
0.000640131
0.00062586
0.00061273
0.0006006
0.00058935
0.000578879
0.000569104
0.000559954
0.000551367
0.00054329
0.000535678
0.00052849
0.000521691
0.000515247
0.00050913
0.000503309
0.000497763
0.000492441
0.000487357
0.00048234
0.00101671
0.00101241
0.00100191
0.000985661
0.000965605
0.000943715
0.000921426
0.000899617
0.000878756
0.000859051
0.000840562
0.000823266
0.000807101
0.000791985
0.000777835
0.000764565
0.0007521
0.000740366
0.000729299
0.000718842
0.000708942
0.000699554
0.000690636
0.000682152
0.000674068
0.000666354
0.000658982
0.000651928
0.000645164
0.000638672
0.000632418
0.000626395
0.000620543
0.00101676
0.00101592
0.0010136
0.00100903
0.00100204
0.000992921
0.000982193
0.000970401
0.000958011
0.000945383
0.000932773
0.000920358
0.000908251
0.000896519
0.000885201
0.000874312
0.000863855
0.000853823
0.000844203
0.00083498
0.000826134
0.000817648
0.000809503
0.00080168
0.000794162
0.00078693
0.000779968
0.00077326
0.000766789
0.000760542
0.000754499
0.000748651
0.00074298
0.00101671
0.00101623
0.00101553
0.00101428
0.00101219
0.0010091
0.00100497
0.000999893
0.000994023
0.000987525
0.000980565
0.00097329
0.000965823
0.000958264
0.000950689
0.00094316
0.000935721
0.000928405
0.000921234
0.000914225
0.000907388
0.000900729
0.000894251
0.000887953
0.000881833
0.000875889
0.000870116
0.000864509
0.000859061
0.000853768
0.000848621
0.000843617
0.000838749
0.0010167
0.00101622
0.00101574
0.00101518
0.00101442
0.00101335
0.00101188
0.00100995
0.00100756
0.00100471
0.00100145
0.000997832
0.000993916
0.00098976
0.000985417
0.000980936
0.000976359
0.000971723
0.000967057
0.000962389
0.000957738
0.000953122
0.000948553
0.000944043
0.000939599
0.000935229
0.000930935
0.000926721
0.00092259
0.000918542
0.000914578
0.000910698
0.000906903
0.0010167
0.00101621
0.00101575
0.00101528
0.0010148
0.00101425
0.00101359
0.00101279
0.00101179
0.00101059
0.00100918
0.00100754
0.00100569
0.00100365
0.00100144
0.000999073
0.000996573
0.000993963
0.000991263
0.000988491
0.000985665
0.000982799
0.000979907
0.000977001
0.000974091
0.000971186
0.000968292
0.000965417
0.000962566
0.000959744
0.000956954
0.000954201
0.000951487
0.0010167
0.00101621
0.00101574
0.00101529
0.00101484
0.00101439
0.00101393
0.00101344
0.0010129
0.00101229
0.0010116
0.00101082
0.00100994
0.00100895
0.00100787
0.00100668
0.0010054
0.00100404
0.00100259
0.00100108
0.000999497
0.000997864
0.000996185
0.000994468
0.000992719
0.000990946
0.000989155
0.000987352
0.000985542
0.000983729
0.000981918
0.000980113
0.000978319
0.0010167
0.00101621
0.00101574
0.00101528
0.00101484
0.00101441
0.00101398
0.00101356
0.00101313
0.0010127
0.00101224
0.00101176
0.00101125
0.0010107
0.00101011
0.00100947
0.00100879
0.00100806
0.00100728
0.00100646
0.0010056
0.00100469
0.00100376
0.00100279
0.00100179
0.00100076
0.000999711
0.000998643
0.000997559
0.000996463
0.000995358
0.000994245
0.00099313
0.0010167
0.00101621
0.00101574
0.00101528
0.00101484
0.0010144
0.00101398
0.00101357
0.00101317
0.00101277
0.00101238
0.00101199
0.00101159
0.00101119
0.00101078
0.00101036
0.00100992
0.00100946
0.00100899
0.00100849
0.00100798
0.00100745
0.0010069
0.00100633
0.00100575
0.00100515
0.00100453
0.0010039
0.00100326
0.0010026
0.00100194
0.00100127
0.0010006
0.0010167
0.00101621
0.00101574
0.00101528
0.00101483
0.0010144
0.00101398
0.00101357
0.00101317
0.00101278
0.0010124
0.00101203
0.00101167
0.00101131
0.00101095
0.0010106
0.00101024
0.00100989
0.00100953
0.00100917
0.00100881
0.00100844
0.00100806
0.00100768
0.0010073
0.0010069
0.00100651
0.0010061
0.00100569
0.00100528
0.00100486
0.00100444
0.00100402
0.0010167
0.00101621
0.00101574
0.00101528
0.00101483
0.0010144
0.00101398
0.00101357
0.00101317
0.00101278
0.0010124
0.00101204
0.00101168
0.00101133
0.00101099
0.00101065
0.00101032
0.00101
0.00100968
0.00100937
0.00100905
0.00100875
0.00100844
0.00100814
0.00100783
0.00100753
0.00100723
0.00100693
0.00100663
0.00100633
0.00100603
0.00100574
0.00100544
0.0010167
0.00101621
0.00101574
0.00101528
0.00101483
0.0010144
0.00101398
0.00101357
0.00101317
0.00101278
0.0010124
0.00101203
0.00101168
0.00101133
0.00101099
0.00101066
0.00101034
0.00101002
0.00100971
0.00100941
0.00100912
0.00100883
0.00100855
0.00100827
0.001008
0.00100773
0.00100747
0.00100721
0.00100695
0.0010067
0.00100645
0.00100621
0.00100597
0.0010167
0.00101621
0.00101574
0.00101528
0.00101483
0.0010144
0.00101397
0.00101356
0.00101317
0.00101278
0.0010124
0.00101203
0.00101167
0.00101133
0.00101099
0.00101066
0.00101033
0.00101002
0.00100972
0.00100942
0.00100913
0.00100885
0.00100857
0.0010083
0.00100804
0.00100778
0.00100753
0.00100728
0.00100705
0.00100681
0.00100658
0.00100636
0.00100614
0.0010167
0.00101621
0.00101574
0.00101528
0.00101483
0.0010144
0.00101397
0.00101356
0.00101316
0.00101277
0.0010124
0.00101203
0.00101167
0.00101132
0.00101098
0.00101065
0.00101033
0.00101002
0.00100971
0.00100942
0.00100913
0.00100884
0.00100857
0.0010083
0.00100804
0.00100779
0.00100754
0.0010073
0.00100707
0.00100684
0.00100662
0.0010064
0.00100619
0.0010167
0.00101621
0.00101574
0.00101528
0.00101483
0.0010144
0.00101397
0.00101356
0.00101316
0.00101277
0.00101239
0.00101203
0.00101167
0.00101132
0.00101098
0.00101065
0.00101033
0.00101001
0.00100971
0.00100941
0.00100912
0.00100884
0.00100857
0.0010083
0.00100804
0.00100779
0.00100754
0.0010073
0.00100707
0.00100684
0.00100662
0.0010064
0.0010062
0.0010167
0.00101621
0.00101574
0.00101528
0.00101483
0.00101439
0.00101397
0.00101356
0.00101316
0.00101277
0.00101239
0.00101202
0.00101167
0.00101132
0.00101098
0.00101065
0.00101032
0.00101001
0.00100971
0.00100941
0.00100912
0.00100884
0.00100856
0.00100829
0.00100803
0.00100778
0.00100753
0.00100729
0.00100706
0.00100683
0.00100661
0.0010064
0.00100619
0.0010167
0.00101621
0.00101574
0.00101528
0.00101483
0.00101439
0.00101397
0.00101356
0.00101316
0.00101277
0.00101239
0.00101202
0.00101166
0.00101131
0.00101097
0.00101064
0.00101032
0.00101001
0.0010097
0.0010094
0.00100911
0.00100883
0.00100856
0.00100829
0.00100803
0.00100778
0.00100753
0.00100729
0.00100705
0.00100683
0.00100661
0.00100639
0.00100618
0.0010167
0.00101621
0.00101574
0.00101528
0.00101483
0.00101439
0.00101397
0.00101356
0.00101316
0.00101277
0.00101239
0.00101202
0.00101166
0.00101131
0.00101097
0.00101064
0.00101032
0.00101
0.0010097
0.0010094
0.00100911
0.00100883
0.00100855
0.00100829
0.00100802
0.00100777
0.00100752
0.00100728
0.00100705
0.00100682
0.0010066
0.00100638
0.00100617
0.0010167
0.00101621
0.00101574
0.00101528
0.00101483
0.00101439
0.00101397
0.00101356
0.00101316
0.00101277
0.00101239
0.00101202
0.00101166
0.00101131
0.00101097
0.00101064
0.00101032
0.00101
0.0010097
0.0010094
0.00100911
0.00100883
0.00100855
0.00100828
0.00100802
0.00100777
0.00100752
0.00100728
0.00100704
0.00100681
0.00100659
0.00100637
0.00100616
0.0010167
0.00101621
0.00101574
0.00101528
0.00101483
0.00101439
0.00101397
0.00101356
0.00101316
0.00101277
0.00101239
0.00101202
0.00101166
0.00101131
0.00101097
0.00101064
0.00101031
0.00101
0.00100969
0.0010094
0.0010091
0.00100882
0.00100855
0.00100828
0.00100802
0.00100776
0.00100751
0.00100727
0.00100704
0.00100681
0.00100658
0.00100637
0.00100616
0.0010167
0.00101621
0.00101574
0.00101528
0.00101483
0.00101439
0.00101397
0.00101356
0.00101316
0.00101277
0.00101239
0.00101202
0.00101166
0.00101131
0.00101097
0.00101064
0.00101031
0.00101
0.00100969
0.00100939
0.0010091
0.00100882
0.00100854
0.00100827
0.00100801
0.00100776
0.00100751
0.00100727
0.00100703
0.0010068
0.00100658
0.00100636
0.00100615
0.0010167
0.00101621
0.00101574
0.00101528
0.00101483
0.00101439
0.00101397
0.00101356
0.00101316
0.00101277
0.00101239
0.00101202
0.00101166
0.00101131
0.00101097
0.00101063
0.00101031
0.00101
0.00100969
0.00100939
0.0010091
0.00100882
0.00100854
0.00100827
0.00100801
0.00100775
0.0010075
0.00100726
0.00100702
0.00100679
0.00100657
0.00100635
0.00100614
0.0010167
0.00101621
0.00101574
0.00101528
0.00101483
0.00101439
0.00101397
0.00101356
0.00101316
0.00101277
0.00101239
0.00101202
0.00101166
0.00101131
0.00101097
0.00101063
0.00101031
0.00100999
0.00100969
0.00100939
0.0010091
0.00100881
0.00100854
0.00100827
0.001008
0.00100775
0.0010075
0.00100726
0.00100702
0.00100679
0.00100656
0.00100634
0.00100613
0.0010167
0.00101621
0.00101574
0.00101528
0.00101483
0.00101439
0.00101397
0.00101356
0.00101316
0.00101277
0.00101239
0.00101202
0.00101166
0.00101131
0.00101096
0.00101063
0.00101031
0.00100999
0.00100969
0.00100939
0.00100909
0.00100881
0.00100853
0.00100826
0.001008
0.00100774
0.00100749
0.00100725
0.00100701
0.00100678
0.00100656
0.00100634
0.00100612
0.0010167
0.00101621
0.00101574
0.00101528
0.00101483
0.00101439
0.00101397
0.00101356
0.00101316
0.00101277
0.00101239
0.00101202
0.00101166
0.00101131
0.00101096
0.00101063
0.00101031
0.00100999
0.00100968
0.00100939
0.00100909
0.00100881
0.00100853
0.00100826
0.001008
0.00100774
0.00100749
0.00100725
0.00100701
0.00100678
0.00100655
0.00100633
0.00100612
0.0010167
0.00101621
0.00101574
0.00101528
0.00101483
0.00101439
0.00101397
0.00101356
0.00101316
0.00101277
0.00101239
0.00101202
0.00101166
0.00101131
0.00101096
0.00101063
0.00101031
0.00100999
0.00100968
0.00100938
0.00100909
0.00100881
0.00100853
0.00100826
0.001008
0.00100774
0.00100749
0.00100724
0.00100701
0.00100677
0.00100655
0.00100633
0.00100611
0.0010167
0.00101621
0.00101574
0.00101528
0.00101483
0.00101439
0.00101397
0.00101356
0.00101316
0.00101277
0.00101239
0.00101202
0.00101166
0.00101131
0.00101097
0.00101063
0.00101031
0.00100999
0.00100968
0.00100938
0.00100909
0.00100881
0.00100853
0.00100826
0.00100799
0.00100774
0.00100749
0.00100724
0.001007
0.00100677
0.00100654
0.00100632
0.00100611
0.0010167
0.00101621
0.00101574
0.00101528
0.00101483
0.00101439
0.00101397
0.00101356
0.00101316
0.00101277
0.00101239
0.00101202
0.00101166
0.00101131
0.00101097
0.00101063
0.00101031
0.00100999
0.00100969
0.00100939
0.00100909
0.00100881
0.00100853
0.00100826
0.00100799
0.00100774
0.00100748
0.00100724
0.001007
0.00100677
0.00100654
0.00100631
0.0010061
0.0010167
0.00101621
0.00101574
0.00101528
0.00101483
0.0010144
0.00101397
0.00101356
0.00101316
0.00101277
0.00101239
0.00101202
0.00101166
0.00101131
0.00101097
0.00101064
0.00101031
0.00101
0.00100969
0.00100939
0.00100909
0.00100881
0.00100853
0.00100825
0.00100798
0.00100772
0.00100747
0.00100721
0.00100697
0.00100673
0.00100649
0.00100626
0.00100604
0.0010167
0.00101621
0.00101574
0.00101528
0.00101483
0.0010144
0.00101398
0.00101357
0.00101317
0.00101278
0.0010124
0.00101203
0.00101167
0.00101132
0.00101097
0.00101064
0.00101031
0.00100998
0.00100967
0.00100936
0.00100905
0.00100875
0.00100846
0.00100817
0.00100788
0.0010076
0.00100732
0.00100705
0.00100677
0.00100651
0.00100624
0.00100598
0.00100572
0.0010167
0.00101621
0.00101574
0.00101529
0.00101484
0.00101441
0.00101399
0.00101358
0.00101318
0.00101279
0.0010124
0.00101202
0.00101164
0.00101127
0.00101089
0.00101053
0.00101016
0.00100979
0.00100942
0.00100906
0.00100869
0.00100832
0.00100794
0.00100757
0.00100719
0.00100681
0.00100643
0.00100605
0.00100566
0.00100527
0.00100488
0.00100448
0.00100409
0.0010167
0.00101622
0.00101575
0.0010153
0.00101485
0.00101441
0.00101397
0.00101352
0.00101308
0.00101262
0.00101215
0.00101166
0.00101115
0.00101063
0.00101008
0.00100951
0.00100892
0.0010083
0.00100766
0.00100699
0.00100631
0.0010056
0.00100487
0.00100412
0.00100335
0.00100256
0.00100176
0.00100094
0.00100011
0.000999273
0.000998421
0.000997561
0.000996693
0.00101671
0.00101622
0.00101574
0.00101524
0.00101469
0.00101407
0.00101337
0.00101257
0.00101167
0.00101067
0.00100955
0.00100832
0.00100698
0.00100554
0.00100401
0.00100238
0.00100066
0.000998875
0.000997015
0.000995094
0.000993118
0.000991096
0.000989034
0.000986939
0.000984817
0.000982674
0.000980516
0.000978348
0.000976173
0.000973998
0.000971825
0.000969657
0.0009675
0.00101671
0.001016
0.00101488
0.00101326
0.00101113
0.00100848
0.00100533
0.00100171
0.000997648
0.000993203
0.000988427
0.000983372
0.00097809
0.000972629
0.000967032
0.000961338
0.000955583
0.000949796
0.000944003
0.000938227
0.000932486
0.000926798
0.000921175
0.000915629
0.000910169
0.000904802
0.000899534
0.000894369
0.000889312
0.000884365
0.000879529
0.000874806
0.000870196
0.0010153
0.00100706
0.000995519
0.000981424
0.000965403
0.000948068
0.000929977
0.000911578
0.000893204
0.000875095
0.000857416
0.000840276
0.000823741
0.000807848
0.000792611
0.000778031
0.000764095
0.000750786
0.000738082
0.000725957
0.000714385
0.00070334
0.000692795
0.000682724
0.000673102
0.000663906
0.000655111
0.000646697
0.000638643
0.00063093
0.000623538
0.000616452
0.000609653
0.000935928
0.000815552
0.000728186
0.000659268
0.000602401
0.000555166
0.000515665
0.000482314
0.000453861
0.000429341
0.000408014
0.000389307
0.000372776
0.000358069
0.00034491
0.000333073
0.000322376
0.000312669
0.000303828
0.000295749
0.000288343
0.000281535
0.000275261
0.000269466
0.000264101
0.000259124
0.000254499
0.000250194
0.000246179
0.000242429
0.000238921
0.000235636
0.000232554
0.000125477
0.000128847
0.000132096
0.000135204
0.000138173
0.000141007
0.000143711
0.000146289
0.000148745
0.000151084
0.00015331
0.000155428
0.000157441
0.000159354
0.000161171
0.000162896
0.000164532
0.000166085
0.000167558
0.000168954
0.000170277
0.00017153
0.000172718
0.000173842
0.000174907
0.000175915
0.000176869
0.000177772
0.000178626
0.000179434
0.000180199
0.000180921
0.000181606
0.000106531
0.000150465
0.000195303
0.000239876
0.000283061
0.00032326
0.000359657
0.000392514
0.000422795
0.000451699
0.000480177
0.000508786
0.000537716
0.000566933
0.000596345
0.000625948
0.000655872
0.000686368
0.000717746
0.000750312
0.000784329
0.000819997
0.000857457
0.000896798
0.000938057
0.000981218
0.0010262
0.00107287
0.00112102
0.00117036
0.00122057
0.00127125
0.00132197
0.00137223
0.00142149
0.00146912
0.00151442
0.0015566
0.00159478
0.00162794
0.001655
0.00167476
0.00168595
0.00168727
0.0016774
0.0016551
0.00161924
0.00156898
0.00150388
0.00142418
0.00133116
0.00122777
0.00111953
0.00101557
0.000929524
0.000878196
0.000875446
0.000920939
0.000994674
0.00107034
0.00113332
0.00118217
0.00122064
0.00125241
0.00127981
0.0013041
0.00132596
0.0013458
0.00136394
0.00138069
0.00139635
0.00141123
0.00142564
0.00143986
0.00145416
0.00146873
0.0014837
0.00149913
0.00151497
0.00153109
0.00154731
0.00156338
0.00157904
0.00159407
0.00160825
0.00162141
0.00163346
0.00164433
0.00165401
0.00166255
0.00167
0.00167645
0.00168199
0.00168673
0.00169079
0.00169429
0.00169732
0.00170013
0.00170215
0.00170537
0.000245892
0.000213628
0.000183819
0.000169295
0.000169316
0.000180635
0.000200488
0.000226627
0.000257028
0.000289838
0.000323453
0.00035665
0.000388701
0.00041937
0.000448809
0.000477384
0.000505504
0.00053352
0.000561684
0.000590172
0.000619135
0.000648728
0.000679129
0.000710526
0.000743099
0.000776994
0.0008123
0.000849041
0.000887166
0.000926549
0.00096699
0.00100822
0.0010499
0.00109163
0.00113291
0.0011732
0.00121183
0.00124806
0.00128106
0.00130986
0.00133342
0.00135062
0.00136026
0.00136114
0.00135209
0.00133208
0.00130029
0.00125635
0.00120054
0.00113415
0.00106005
0.000983363
0.000912218
0.000857953
0.000833443
0.000847754
0.000898261
0.000968662
0.00103942
0.00109954
0.00114748
0.00118595
0.00121801
0.00124579
0.00127054
0.0012929
0.00131323
0.00133179
0.00134881
0.00136454
0.00137923
0.00139315
0.00140659
0.00141979
0.00143303
0.00144649
0.00146035
0.00147468
0.00148951
0.00150475
0.00152027
0.00153587
0.00155133
0.0015664
0.00158086
0.00159454
0.0016073
0.00161904
0.00162972
0.00163934
0.00164793
0.00165554
0.00166224
0.00166811
0.00167326
0.00167779
0.00168177
0.00168544
0.00168821
0.00169232
0.000349295
0.000343421
0.000327406
0.000299583
0.000266279
0.000235671
0.000212392
0.000197692
0.000191338
0.000192637
0.000200725
0.000214694
0.000233497
0.000256025
0.000281121
0.000307686
0.000334801
0.000361812
0.000388365
0.000414369
0.000439926
0.000465248
0.000490581
0.000516166
0.00054221
0.000568889
0.000596342
0.000624678
0.000653965
0.000684221
0.000715408
0.000747418
0.000780069
0.000813096
0.000846146
0.000878776
0.000910442
0.000940504
0.000968219
0.000992748
0.00101317
0.00102849
0.0010377
0.00103983
0.00103402
0.00101966
0.000996552
0.000965162
0.000926923
0.000884674
0.000843095
0.000808987
0.000790819
0.000796665
0.000830075
0.000886126
0.000952589
0.00101693
0.00107226
0.00111756
0.00115473
0.00118619
0.00121374
0.00123849
0.00126103
0.00128166
0.00130059
0.00131796
0.00133393
0.0013487
0.00136249
0.00137553
0.00138806
0.00140033
0.00141256
0.00142497
0.00143773
0.00145096
0.0014647
0.00147895
0.00149361
0.00150854
0.00152354
0.0015384
0.0015529
0.00156684
0.00158008
0.00159248
0.00160398
0.00161453
0.00162412
0.0016328
0.00164058
0.00164754
0.00165374
0.00165927
0.00166419
0.00166872
0.00167223
0.00167725
0.000476904
0.000471225
0.000464598
0.000454613
0.000439121
0.000417466
0.000390743
0.000361122
0.000330992
0.000302555
0.000277576
0.000257217
0.000242669
0.000233881
0.000230491
0.000232005
0.000237836
0.000247327
0.000259793
0.000274559
0.000291014
0.00030865
0.000327083
0.000346058
0.000365442
0.000385201
0.00040537
0.00042603
0.000447275
0.000469192
0.000491838
0.000515226
0.000539314
0.000563989
0.000589065
0.000614267
0.000639236
0.000663517
0.000686569
0.000707772
0.000726448
0.0007419
0.000753466
0.000760603
0.000763004
0.000760749
0.000754502
0.000745746
0.000737005
0.000731966
0.000735257
0.000751552
0.000783811
0.000831237
0.000888647
0.000948498
0.0010043
0.00105274
0.00109351
0.00112796
0.00115776
0.0011843
0.00120846
0.00123072
0.00125133
0.00127041
0.00128802
0.00130426
0.00131925
0.00133313
0.00134609
0.00135831
0.00137002
0.00138142
0.00139273
0.00140416
0.00141587
0.00142801
0.00144065
0.00145384
0.00146752
0.0014816
0.00149594
0.00151034
0.00152462
0.00153858
0.00155204
0.00156488
0.00157697
0.00158827
0.00159872
0.00160832
0.00161709
0.00162505
0.00163225
0.00163874
0.00164458
0.00164995
0.0016542
0.00166017
0.000613918
0.000606631
0.000599531
0.000592225
0.000583961
0.000573835
0.000561048
0.000545104
0.000525833
0.000503365
0.000478159
0.000450576
0.00042288
0.000396439
0.000372238
0.000350979
0.000333098
0.000318796
0.000308084
0.00030083
0.000296801
0.000295703
0.000297215
0.00030101
0.000306784
0.000314263
0.000323221
0.000333481
0.000344915
0.000357438
0.000370994
0.000385549
0.000401071
0.000417518
0.000434825
0.000452889
0.000471564
0.000490654
0.000509915
0.000529071
0.000547832
0.000565938
0.000583214
0.000599654
0.000615511
0.000631403
0.000648389
0.000667981
0.000691997
0.000722194
0.000759656
0.000804121
0.000853661
0.000905058
0.000954846
0.00100042
0.0010406
0.00107551
0.00110604
0.00113324
0.00115801
0.00118098
0.00120246
0.00122263
0.00124153
0.00125917
0.00127556
0.00129075
0.00130482
0.00131786
0.00133004
0.00134152
0.00135246
0.00136308
0.00137356
0.00138407
0.00139481
0.0014059
0.00141746
0.00142956
0.00144219
0.0014553
0.0014688
0.00148254
0.00149636
0.00151007
0.00152351
0.00153652
0.00154899
0.00156081
0.00157193
0.0015823
0.00159192
0.00160077
0.00160887
0.00161627
0.00162297
0.00162917
0.00163416
0.00164108
0.000736563
0.000729377
0.000722292
0.000715279
0.000708213
0.000700864
0.000692913
0.000683993
0.00067374
0.000661821
0.000647928
0.000631908
0.000613977
0.000594546
0.000574153
0.000553401
0.000532897
0.000513203
0.000494797
0.000478057
0.000463257
0.000450571
0.000440084
0.000431812
0.00042572
0.000421731
0.000419748
0.000419662
0.000421362
0.000424742
0.000429706
0.000436174
0.000444082
0.000453379
0.000464029
0.000476004
0.000489288
0.00050387
0.000519746
0.000536924
0.000555432
0.00057533
0.000596727
0.000619802
0.00064481
0.000672076
0.000701942
0.000734678
0.000770335
0.000808597
0.000848689
0.000889417
0.000929383
0.000967301
0.00100229
0.00103402
0.00106265
0.00108867
0.00111265
0.0011351
0.00115635
0.0011766
0.00119592
0.0012143
0.00123167
0.001248
0.00126327
0.00127747
0.00129066
0.00130293
0.00131439
0.00132517
0.00133542
0.00134532
0.00135503
0.00136473
0.00137456
0.00138468
0.0013952
0.00140621
0.00141776
0.00142983
0.00144237
0.00145528
0.00146843
0.00148165
0.00149481
0.00150775
0.00152033
0.00153245
0.00154402
0.00155497
0.00156526
0.00157486
0.00158376
0.00159197
0.00159948
0.00160645
0.00161213
0.00162002
0.000833229
0.000827003
0.000820799
0.000814623
0.000808466
0.000802292
0.000796029
0.000789571
0.000782782
0.000775496
0.000767557
0.00075881
0.000749143
0.00073852
0.00072699
0.000714686
0.000701813
0.000688627
0.000675415
0.000662471
0.000650079
0.000638493
0.000627932
0.000618572
0.00061055
0.000603962
0.000598873
0.000595317
0.000593303
0.000592825
0.000593862
0.000596387
0.000600371
0.000605789
0.000612619
0.000620854
0.000630494
0.000641555
0.00065407
0.000668083
0.000683653
0.000700844
0.000719724
0.000740346
0.000762733
0.000786855
0.000812596
0.000839731
0.000867908
0.000896649
0.000925395
0.000953575
0.0009807
0.00100644
0.00103068
0.00105348
0.00107504
0.00109562
0.00111544
0.00113464
0.00115332
0.00117144
0.00118896
0.00120577
0.00122179
0.00123694
0.00125116
0.00126446
0.00127684
0.00128838
0.00129916
0.0013093
0.00131892
0.00132816
0.00133718
0.00134612
0.00135513
0.00136435
0.0013739
0.00138388
0.00139435
0.00140535
0.00141685
0.0014288
0.00144111
0.00145365
0.0014663
0.00147891
0.00149135
0.00150351
0.00151529
0.0015266
0.00153737
0.00154755
0.0015571
0.001566
0.00157421
0.00158189
0.00158823
0.00159705
0.000902577
0.000897663
0.000892721
0.000887759
0.000882782
0.000877791
0.00087278
0.000867731
0.000862617
0.000857401
0.000852038
0.000846473
0.000840652
0.000834528
0.000828072
0.000821282
0.000814185
0.000806845
0.000799351
0.000791823
0.000784394
0.000777211
0.000770421
0.000764161
0.00075856
0.000753732
0.00074977
0.000746753
0.00074474
0.000743775
0.000743888
0.000745096
0.000747408
0.000750829
0.000755358
0.000760995
0.000767743
0.000775606
0.000784595
0.000794719
0.000805993
0.000818424
0.000832013
0.00084674
0.000862559
0.000879387
0.000897097
0.000915515
0.000934427
0.000953597
0.000972788
0.000991799
0.00101049
0.00102878
0.00104668
0.00106426
0.00108158
0.00109873
0.00111574
0.00113261
0.00114928
0.00116567
0.00118166
0.00119712
0.00121194
0.00122602
0.0012393
0.00125175
0.00126339
0.00127424
0.0012844
0.00129393
0.00130296
0.00131161
0.00131999
0.00132825
0.00133652
0.00134492
0.00135357
0.00136258
0.00137203
0.00138196
0.00139239
0.00140331
0.00141466
0.00142635
0.00143828
0.00145034
0.0014624
0.00147436
0.0014861
0.00149752
0.00150855
0.00151911
0.00152913
0.00153857
0.00154737
0.00155565
0.00156256
0.00157227
0.000948369
0.000944796
0.000941168
0.000937492
0.000933772
0.000930014
0.000926224
0.000922403
0.000918558
0.00091469
0.000910796
0.000906874
0.000902917
0.000898917
0.000894867
0.000890762
0.000886606
0.000882409
0.000878196
0.000874001
0.000869872
0.000865868
0.000862054
0.0008585
0.000855279
0.000852461
0.000850111
0.00084829
0.000847051
0.000846438
0.000846489
0.000847234
0.000848694
0.000850886
0.000853823
0.000857514
0.000861966
0.000867184
0.000873174
0.000879939
0.000887482
0.000895798
0.000904879
0.000914705
0.000925245
0.000936451
0.000948262
0.000960601
0.000973382
0.00098652
0.000999937
0.00101358
0.0010274
0.0010414
0.00105559
0.00106998
0.00108459
0.0010994
0.00111438
0.00112945
0.00114451
0.00115945
0.00117413
0.0011884
0.00120215
0.00121527
0.0012277
0.00123938
0.00125033
0.00126055
0.00127012
0.0012791
0.00128759
0.00129568
0.00130348
0.00131113
0.00131872
0.00132638
0.00133422
0.00134233
0.00135081
0.00135972
0.0013691
0.00137896
0.00138928
0.0014
0.00141107
0.00142238
0.00143384
0.00144535
0.0014568
0.0014681
0.00147915
0.00148985
0.00150014
0.00150994
0.00151917
0.00152794
0.00153532
0.00154582
0.000976237
0.000973826
0.000971353
0.00096882
0.000966232
0.000963593
0.000960909
0.000958187
0.000955436
0.000952663
0.000949878
0.00094709
0.000944307
0.00094154
0.000938794
0.000936079
0.000933403
0.000930773
0.000928202
0.000925704
0.000923297
0.000921003
0.000918848
0.000916863
0.00091508
0.000913534
0.000912258
0.000911287
0.000910652
0.000910384
0.000910509
0.00091105
0.00091203
0.000913465
0.00091537
0.000917759
0.000920642
0.00092403
0.000927932
0.000932359
0.000937316
0.00094281
0.000948845
0.00095542
0.00096253
0.000970168
0.000978319
0.000986968
0.000996097
0.00100569
0.00101573
0.00102622
0.00103716
0.00104854
0.00106038
0.00107266
0.00108537
0.00109846
0.00111186
0.00112548
0.00113921
0.00115292
0.00116645
0.00117968
0.00119248
0.00120475
0.00121639
0.00122738
0.00123769
0.00124733
0.00125636
0.00126482
0.0012728
0.00128038
0.00128766
0.00129474
0.00130173
0.00130872
0.00131582
0.00132312
0.00133071
0.00133866
0.00134703
0.00135584
0.00136511
0.00137481
0.0013849
0.00139532
0.001406
0.00141686
0.00142779
0.00143872
0.00144954
0.00146016
0.00147049
0.00148045
0.00148992
0.00149901
0.00150673
0.0015179
0.000991823
0.000990295
0.000988711
0.000987071
0.000985378
0.000983636
0.000981848
0.000980021
0.000978159
0.000976272
0.000974367
0.000972455
0.000970544
0.000968646
0.000966771
0.00096493
0.000963134
0.000961393
0.000959716
0.000958116
0.000956603
0.000955189
0.000953886
0.00095271
0.000951676
0.000950799
0.000950096
0.000949584
0.00094928
0.000949201
0.000949363
0.000949781
0.00095047
0.000951445
0.000952718
0.000954303
0.000956212
0.000958459
0.000961057
0.00096402
0.000967364
0.000971104
0.000975254
0.000979831
0.000984851
0.000990328
0.000996278
0.00100271
0.00100965
0.00101711
0.00102509
0.00103362
0.00104271
0.00105236
0.00106258
0.00107335
0.00108463
0.00109638
0.00110851
0.00112094
0.00113354
0.00114618
0.00115872
0.00117103
0.00118298
0.00119447
0.00120541
0.00121576
0.00122549
0.00123459
0.00124312
0.0012511
0.00125861
0.00126572
0.00127252
0.00127909
0.00128552
0.00129191
0.00129834
0.00130491
0.0013117
0.00131877
0.0013262
0.00133401
0.00134224
0.0013509
0.00135996
0.0013694
0.00137917
0.0013892
0.00139943
0.00140977
0.00142013
0.00143043
0.00144057
0.00145046
0.00145997
0.0014692
0.00147711
0.00148876
0.000999801
0.000998864
0.000997885
0.000996863
0.0009958
0.000994698
0.000993558
0.000992385
0.000991182
0.000989954
0.000988709
0.000987452
0.000986191
0.000984934
0.00098369
0.000982467
0.000981275
0.000980121
0.000979016
0.000977967
0.000976983
0.000976073
0.000975247
0.000974512
0.000973877
0.000973352
0.000972946
0.000972668
0.000972527
0.000972534
0.000972698
0.000973029
0.000973537
0.000974233
0.000975128
0.000976235
0.000977565
0.000979133
0.000980954
0.000983045
0.000985426
0.000988117
0.00099114
0.000994522
0.000998286
0.00100246
0.00100708
0.00101216
0.00101774
0.00102385
0.00103051
0.00103775
0.00104558
0.00105401
0.00106305
0.00107267
0.00108283
0.0010935
0.00110459
0.001116
0.00112762
0.00113934
0.001151
0.00116249
0.00117369
0.00118448
0.00119478
0.00120454
0.00121373
0.00122234
0.0012304
0.00123794
0.00124502
0.00125169
0.00125804
0.00126415
0.00127008
0.00127593
0.00128177
0.00128769
0.00129375
0.00130003
0.00130659
0.00131347
0.00132072
0.00132836
0.00133639
0.0013448
0.00135357
0.00136267
0.00137203
0.0013816
0.00139131
0.00140107
0.00141079
0.00142038
0.00142972
0.00143889
0.0014468
0.00145874
0.00100352
0.00100293
0.00100232
0.00100168
0.00100101
0.00100032
0.000999597
0.000998853
0.000998089
0.000997307
0.000996511
0.000995706
0.000994897
0.00099409
0.000993289
0.0009925
0.000991731
0.000990986
0.000990274
0.000989599
0.000988968
0.000988389
0.000987866
0.000987408
0.000987019
0.000986706
0.000986475
0.000986333
0.000986286
0.000986341
0.000986503
0.000986782
0.000987184
0.000987718
0.000988395
0.000989225
0.000990219
0.000991393
0.000992761
0.000994343
0.000996159
0.000998231
0.00100059
0.00100325
0.00100626
0.00100964
0.00101343
0.00101767
0.00102238
0.0010276
0.00103337
0.00103971
0.00104664
0.00105417
0.0010623
0.00107101
0.00108029
0.00109006
0.00110026
0.00111081
0.00112159
0.00113249
0.00114338
0.00115413
0.00116464
0.00117479
0.00118451
0.00119373
0.00120243
0.00121058
0.00121821
0.00122534
0.00123201
0.00123829
0.00124423
0.00124991
0.00125539
0.00126075
0.00126606
0.00127139
0.00127681