/*--------------------------------*- C++ -*----------------------------------*\
  =========                 |
  \\      /  F ield         | OpenFOAM: The Open Source CFD Toolbox
   \\    /   O peration     | Website:  https://openfoam.org
    \\  /    A nd           | Version:  10
     \\/     M anipulation  |
\*---------------------------------------------------------------------------*/
FoamFile
{
    format      ascii;
    class       volScalarField;
    location    "0.11";
    object      p;
}
// * * * * * * * * * * * * * * * * * * * * * * * * * * * * * * * * * * * * * //

dimensions      [0 2 -2 0 0 0 0];

internalField   nonuniform List<scalar> 
6820
(
-8.82273
-10.1868
-10.6005
-10.6962
-10.7773
-10.8291
-10.8604
-10.8854
-10.907
-10.9262
-10.944
-10.9611
-10.9776
-10.9937
-11.0095
-11.0251
-11.0406
-11.0559
-11.0712
-11.0863
-11.1014
-11.1163
-11.1311
-11.1457
-11.1599
-11.1734
-11.1858
-11.1962
-11.2037
-11.2023
-11.193
-11.144
-11.0369
-11.6229
-11.2186
-10.9248
-10.8296
-10.8314
-10.8485
-10.867
-10.8872
-10.9073
-10.9262
-10.944
-10.961
-10.9773
-10.9931
-11.0085
-11.0237
-11.0387
-11.0536
-11.0684
-11.0831
-11.0978
-11.1125
-11.127
-11.1414
-11.1555
-11.1693
-11.1824
-11.195
-11.2054
-11.2196
-11.2237
-11.2782
-11.3126
-10.4798
-10.3517
-10.5767
-10.7147
-10.7766
-10.8213
-10.8539
-10.8798
-10.902
-10.9218
-10.9399
-10.9571
-10.9737
-10.9897
-11.0055
-11.021
-11.0364
-11.0516
-11.0668
-11.0819
-11.097
-11.112
-11.1269
-11.1416
-11.1562
-11.1704
-11.1841
-11.1974
-11.2096
-11.2226
-11.2323
-11.2526
-11.2546
-10.8464
-10.8632
-10.839
-10.8164
-10.8249
-10.8457
-10.8662
-10.886
-10.9052
-10.9236
-10.9411
-10.9579
-10.9742
-10.9901
-11.0057
-11.0211
-11.0363
-11.0514
-11.0664
-11.0814
-11.0963
-11.1112
-11.1261
-11.1409
-11.1555
-11.1701
-11.1844
-11.1988
-11.213
-11.2292
-11.2453
-11.2739
-11.3041
-10.7364
-10.6825
-10.7265
-10.7715
-10.8069
-10.8374
-10.8625
-10.8844
-10.9045
-10.9232
-10.9407
-10.9575
-10.9737
-10.9895
-11.005
-11.0204
-11.0356
-11.0507
-11.0657
-11.0807
-11.0957
-11.1107
-11.1257
-11.1407
-11.1557
-11.1707
-11.1858
-11.2011
-11.2168
-11.2344
-11.2532
-11.279
-11.3063
-10.7771
-10.7703
-10.7888
-10.8061
-10.8247
-10.8464
-10.8675
-10.8874
-10.9062
-10.9242
-10.9413
-10.9578
-10.9738
-10.9895
-11.0049
-11.0202
-11.0353
-11.0503
-11.0653
-11.0803
-11.0953
-11.1103
-11.1254
-11.1405
-11.1557
-11.171
-11.1866
-11.2027
-11.2196
-11.2382
-11.2587
-11.2841
-11.3125
-10.7762
-10.7655
-10.7805
-10.8023
-10.8245
-10.8473
-10.8686
-10.8882
-10.9068
-10.9245
-10.9414
-10.9578
-10.9737
-10.9892
-11.0046
-11.0197
-11.0348
-11.0498
-11.0647
-11.0797
-11.0947
-11.1097
-11.1248
-11.1401
-11.1555
-11.1712
-11.1872
-11.2039
-11.2216
-11.2408
-11.2619
-11.2864
-11.3134
-10.7858
-10.7828
-10.796
-10.8142
-10.8327
-10.8524
-10.8717
-10.8902
-10.9081
-10.9252
-10.9418
-10.9578
-10.9735
-10.9889
-11.0041
-11.0192
-11.0342
-11.0491
-11.064
-11.0789
-11.0938
-11.1089
-11.1241
-11.1394
-11.155
-11.1709
-11.1873
-11.2044
-11.2225
-11.242
-11.2632
-11.2868
-11.3125
-10.7942
-10.7931
-10.8037
-10.8197
-10.837
-10.8556
-10.874
-10.8919
-10.9091
-10.9258
-10.942
-10.9578
-10.9733
-10.9885
-11.0036
-11.0185
-11.0334
-11.0482
-11.063
-11.0779
-11.0928
-11.1078
-11.123
-11.1384
-11.1541
-11.1702
-11.1868
-11.2041
-11.2223
-11.2419
-11.2628
-11.2856
-11.31
-10.8026
-10.8032
-10.8126
-10.827
-10.8428
-10.8597
-10.8769
-10.8938
-10.9104
-10.9266
-10.9424
-10.9579
-10.9731
-10.9881
-11.003
-11.0177
-11.0325
-11.0472
-11.0619
-11.0766
-11.0915
-11.1065
-11.1217
-11.1371
-11.1528
-11.1689
-11.1856
-11.203
-11.2212
-11.2405
-11.2611
-11.283
-11.3061
-10.8107
-10.8121
-10.8205
-10.8333
-10.8477
-10.8634
-10.8796
-10.8957
-10.9116
-10.9273
-10.9427
-10.9578
-10.9728
-10.9876
-11.0022
-11.0168
-11.0314
-11.046
-11.0605
-11.0752
-11.09
-11.1049
-11.12
-11.1353
-11.151
-11.1671
-11.1838
-11.201
-11.2191
-11.2381
-11.2581
-11.2791
-11.301
-10.8185
-10.8203
-10.8279
-10.8394
-10.8527
-10.8672
-10.8823
-10.8976
-10.9129
-10.928
-10.943
-10.9578
-10.9724
-10.987
-11.0014
-11.0158
-11.0302
-11.0446
-11.059
-11.0735
-11.0882
-11.103
-11.118
-11.1332
-11.1488
-11.1648
-11.1813
-11.1984
-11.2161
-11.2347
-11.254
-11.2741
-11.295
-10.8258
-10.8278
-10.8348
-10.8452
-10.8573
-10.8708
-10.885
-10.8995
-10.9141
-10.9287
-10.9433
-10.9577
-10.972
-10.9863
-11.0005
-11.0147
-11.0288
-11.043
-11.0573
-11.0716
-11.0861
-11.1007
-11.1156
-11.1307
-11.1461
-11.1619
-11.1781
-11.1949
-11.2122
-11.2303
-11.2489
-11.2682
-11.2881
-10.8326
-10.8346
-10.841
-10.8505
-10.8617
-10.8742
-10.8876
-10.9013
-10.9153
-10.9294
-10.9435
-10.9575
-10.9715
-10.9855
-10.9994
-11.0133
-11.0273
-11.0413
-11.0553
-11.0695
-11.0837
-11.0982
-11.1128
-11.1277
-11.1428
-11.1584
-11.1743
-11.1907
-11.2076
-11.225
-11.2429
-11.2613
-11.2802
-10.8389
-10.8408
-10.8468
-10.8554
-10.8658
-10.8774
-10.89
-10.903
-10.9164
-10.9299
-10.9436
-10.9572
-10.9709
-10.9845
-10.9982
-11.0118
-11.0255
-11.0393
-11.0531
-11.067
-11.081
-11.0952
-11.1096
-11.1242
-11.1391
-11.1543
-11.1698
-11.1857
-11.2021
-11.2188
-11.236
-11.2535
-11.2714
-10.8447
-10.8465
-10.852
-10.8599
-10.8695
-10.8804
-10.8922
-10.9046
-10.9174
-10.9304
-10.9436
-10.9568
-10.9701
-10.9834
-10.9968
-11.0102
-11.0236
-11.0371
-11.0506
-11.0643
-11.078
-11.0919
-11.106
-11.1203
-11.1348
-11.1496
-11.1647
-11.1801
-11.1958
-11.2119
-11.2283
-11.2449
-11.2619
-10.8499
-10.8516
-10.8566
-10.864
-10.8729
-10.8831
-10.8942
-10.906
-10.9182
-10.9307
-10.9434
-10.9562
-10.9692
-10.9822
-10.9952
-11.0083
-11.0214
-11.0346
-11.0479
-11.0612
-11.0747
-11.0882
-11.102
-11.1159
-11.13
-11.1443
-11.1589
-11.1737
-11.1888
-11.2041
-11.2197
-11.2355
-11.2515
-10.8545
-10.8561
-10.8608
-10.8676
-10.8759
-10.8854
-10.8959
-10.9071
-10.9188
-10.9308
-10.9431
-10.9555
-10.9681
-10.9807
-10.9934
-11.0062
-11.019
-11.0319
-11.0448
-11.0578
-11.0709
-11.0842
-11.0975
-11.111
-11.1246
-11.1385
-11.1525
-11.1667
-11.1811
-11.1957
-11.2104
-11.2253
-11.2403
-10.8585
-10.86
-10.8644
-10.8707
-10.8785
-10.8875
-10.8974
-10.908
-10.9192
-10.9307
-10.9426
-10.9546
-10.9668
-10.979
-10.9914
-11.0038
-11.0163
-11.0288
-11.0414
-11.0541
-11.0668
-11.0797
-11.0926
-11.1056
-11.1188
-11.1321
-11.1455
-11.159
-11.1727
-11.1865
-11.2004
-11.2143
-11.2284
-10.862
-10.8634
-10.8675
-10.8734
-10.8807
-10.8891
-10.8985
-10.9087
-10.9193
-10.9304
-10.9418
-10.9534
-10.9652
-10.9771
-10.9891
-11.0012
-11.0133
-11.0255
-11.0378
-11.05
-11.0624
-11.0748
-11.0873
-11.0998
-11.1124
-11.1251
-11.1379
-11.1507
-11.1637
-11.1767
-11.1897
-11.2027
-11.2157
-10.8649
-10.8662
-10.87
-10.8756
-10.8824
-10.8904
-10.8993
-10.909
-10.9192
-10.9298
-10.9408
-10.9521
-10.9635
-10.975
-10.9866
-10.9984
-11.0101
-11.0219
-11.0338
-11.0457
-11.0576
-11.0695
-11.0815
-11.0935
-11.1056
-11.1176
-11.1298
-11.1419
-11.1541
-11.1662
-11.1783
-11.1904
-11.2025
-10.8672
-10.8684
-10.872
-10.8772
-10.8837
-10.8912
-10.8997
-10.9089
-10.9187
-10.929
-10.9395
-10.9504
-10.9614
-10.9726
-10.9839
-10.9952
-11.0066
-11.018
-11.0295
-11.0409
-11.0524
-11.0638
-11.0753
-11.0868
-11.0982
-11.1097
-11.1211
-11.1325
-11.1439
-11.1552
-11.1664
-11.1776
-11.1886
-10.8689
-10.8701
-10.8734
-10.8783
-10.8844
-10.8916
-10.8997
-10.9085
-10.9179
-10.9278
-10.938
-10.9485
-10.9591
-10.9699
-10.9808
-10.9918
-11.0028
-11.0138
-11.0248
-11.0358
-11.0468
-11.0578
-11.0687
-11.0796
-11.0905
-11.1012
-11.112
-11.1226
-11.1332
-11.1436
-11.154
-11.1642
-11.1742
-10.87
-10.8711
-10.8742
-10.8789
-10.8847
-10.8915
-10.8992
-10.9077
-10.9167
-10.9262
-10.936
-10.9462
-10.9565
-10.9669
-10.9774
-10.988
-10.9986
-11.0093
-11.0198
-11.0304
-11.0409
-11.0514
-11.0617
-11.072
-11.0823
-11.0924
-11.1024
-11.1123
-11.122
-11.1316
-11.1411
-11.1503
-11.1594
-10.8704
-10.8714
-10.8745
-10.8789
-10.8844
-10.8909
-10.8983
-10.9065
-10.9152
-10.9244
-10.9339
-10.9437
-10.9536
-10.9637
-10.9739
-10.9841
-10.9943
-11.0045
-11.0147
-11.0248
-11.0348
-11.0447
-11.0545
-11.0642
-11.0738
-11.0832
-11.0925
-11.1016
-11.1105
-11.1193
-11.1278
-11.1361
-11.1442
-10.8702
-10.8712
-10.874
-10.8782
-10.8834
-10.8896
-10.8968
-10.9046
-10.913
-10.9218
-10.931
-10.9405
-10.9502
-10.9599
-10.9698
-10.9796
-10.9895
-10.9993
-11.009
-11.0186
-11.0281
-11.0375
-11.0468
-11.0559
-11.0648
-11.0736
-11.0821
-11.0905
-11.0986
-11.1065
-11.1142
-11.1216
-11.1287
-10.8693
-10.8702
-10.873
-10.877
-10.8821
-10.8882
-10.8951
-10.9028
-10.9109
-10.9195
-10.9285
-10.9376
-10.947
-10.9564
-10.9659
-10.9754
-10.9848
-10.9942
-11.0035
-11.0126
-11.0216
-11.0304
-11.0391
-11.0476
-11.0559
-11.0639
-11.0718
-11.0793
-11.0867
-11.0937
-11.1005
-11.1069
-11.1131
-10.8677
-10.8685
-10.8709
-10.8746
-10.8794
-10.8851
-10.8918
-10.8991
-10.9071
-10.9155
-10.9242
-10.9332
-10.9423
-10.9515
-10.9607
-10.9699
-10.979
-10.988
-10.9969
-11.0056
-11.0142
-11.0225
-11.0307
-11.0386
-11.0463
-11.0537
-11.0608
-11.0677
-11.0742
-11.0805
-11.0864
-11.092
-11.0972
-10.8654
-10.8665
-10.8691
-10.873
-10.8779
-10.8837
-10.8903
-10.8976
-10.9053
-10.9135
-10.922
-10.9306
-10.9394
-10.9482
-10.9571
-10.9659
-10.9745
-10.9831
-10.9915
-10.9997
-11.0077
-11.0155
-11.023
-11.0303
-11.0373
-11.044
-11.0504
-11.0565
-11.0622
-11.0677
-11.0727
-11.0774
-11.0818
-10.862
-10.8623
-10.864
-10.867
-10.8712
-10.8767
-10.8831
-10.8903
-10.8981
-10.9063
-10.9148
-10.9236
-10.9324
-10.9412
-10.95
-10.9586
-10.9672
-10.9755
-10.9837
-10.9916
-10.9993
-11.0067
-11.0138
-11.0206
-11.0271
-11.0332
-11.039
-11.0445
-11.0496
-11.0543
-11.0586
-11.0625
-11.066
-10.8594
-10.8613
-10.8645
-10.8684
-10.8731
-10.8787
-10.885
-10.8919
-10.8993
-10.9071
-10.9151
-10.9233
-10.9315
-10.9398
-10.9479
-10.956
-10.964
-10.9717
-10.9793
-10.9866
-10.9936
-11.0003
-11.0068
-11.0129
-11.0187
-11.0241
-11.0291
-11.0338
-11.0381
-11.042
-11.0455
-11.0486
-11.0512
-10.8512
-10.8491
-10.8488
-10.8509
-10.8551
-10.8609
-10.8679
-10.8757
-10.8841
-10.8928
-10.9018
-10.9107
-10.9197
-10.9285
-10.9372
-10.9457
-10.9539
-10.9618
-10.9694
-10.9767
-10.9837
-10.9903
-10.9965
-11.0024
-11.0078
-11.0128
-11.0175
-11.0217
-11.0254
-11.0288
-11.0316
-11.0341
-11.036
-10.856
-10.8615
-10.8656
-10.8685
-10.8721
-10.8766
-10.882
-10.8882
-10.8948
-10.9019
-10.9092
-10.9167
-10.9243
-10.9319
-10.9393
-10.9467
-10.9539
-10.9608
-10.9675
-10.9739
-10.98
-10.9857
-10.9911
-10.9961
-11.0007
-11.005
-11.0088
-11.0122
-11.0151
-11.0176
-11.0197
-11.0213
-11.0224
-10.8267
-10.8157
-10.8123
-10.8159
-10.823
-10.8318
-10.8416
-10.8519
-10.8625
-10.873
-10.8835
-10.8937
-10.9035
-10.913
-10.9222
-10.9309
-10.9392
-10.9471
-10.9545
-10.9615
-10.968
-10.974
-10.9796
-10.9847
-10.9894
-10.9935
-10.9972
-11.0003
-11.003
-11.0052
-11.0068
-11.008
-11.0087
-10.8735
-10.8895
-10.8907
-10.8848
-10.8824
-10.8831
-10.8857
-10.8895
-10.8943
-10.8998
-10.9059
-10.9123
-10.9188
-10.9254
-10.932
-10.9385
-10.9448
-10.9509
-10.9567
-10.9622
-10.9673
-10.9721
-10.9766
-10.9806
-10.9842
-10.9873
-10.99
-10.9923
-10.9941
-10.9954
-10.9962
-10.9966
-10.9964
-10.7638
-10.7257
-10.7201
-10.7436
-10.7633
-10.7811
-10.7987
-10.8154
-10.8311
-10.8458
-10.8594
-10.8722
-10.8841
-10.8952
-10.9055
-10.9151
-10.924
-10.9323
-10.9399
-10.9469
-10.9534
-10.9592
-10.9644
-10.9691
-10.9732
-10.9767
-10.9797
-10.9821
-10.9839
-10.9852
-10.986
-10.9861
-10.9858
-10.9756
-10.9999
-10.9705
-10.9336
-10.9099
-10.9017
-10.8981
-10.8969
-10.8981
-10.9009
-10.9048
-10.9094
-10.9145
-10.9198
-10.9253
-10.9307
-10.9361
-10.9413
-10.9462
-10.9509
-10.9552
-10.9592
-10.9628
-10.966
-10.9687
-10.9711
-10.9729
-10.9743
-10.9752
-10.9756
-10.9755
-10.975
-10.9739
-10.5599
-10.4781
-10.535
-10.6157
-10.6717
-10.7096
-10.7424
-10.771
-10.7953
-10.8165
-10.835
-10.8515
-10.8663
-10.8795
-10.8915
-10.9023
-10.9121
-10.921
-10.9291
-10.9363
-10.9428
-10.9486
-10.9537
-10.9581
-10.9619
-10.965
-10.9675
-10.9694
-10.9706
-10.9713
-10.9713
-10.9707
-10.9696
-11.5361
-11.258
-11.0521
-10.9605
-10.9232
-10.9022
-10.8889
-10.8828
-10.8814
-10.8828
-10.886
-10.8904
-10.8956
-10.9012
-10.9069
-10.9127
-10.9183
-10.9238
-10.929
-10.9339
-10.9384
-10.9425
-10.9461
-10.9494
-10.9521
-10.9543
-10.9561
-10.9573
-10.958
-10.9582
-10.9579
-10.9571
-10.9557
-9.57799
-10.1395
-10.4439
-10.5598
-10.6409
-10.7039
-10.7485
-10.7819
-10.8086
-10.8303
-10.8483
-10.8637
-10.8771
-10.8889
-10.8994
-10.9088
-10.9173
-10.9249
-10.9318
-10.9379
-10.9434
-10.9482
-10.9523
-10.9558
-10.9588
-10.9611
-10.9627
-10.9638
-10.9644
-10.9643
-10.9636
-10.9624
-10.9605
-10.8727
-11.1197
-11.2606
-11.3674
-11.4599
-11.5324
-11.5985
-11.6728
-11.765
-11.8731
-11.9947
-12.1269
-12.264
-12.4
-12.5297
-12.6488
-12.7536
-12.8419
-12.9122
-12.9638
-12.9967
-13.0112
-13.0081
-12.988
-12.9517
-12.8999
-12.8333
-12.7527
-12.6587
-12.5521
-12.4335
-12.3035
-12.1628
-12.0121
-11.8519
-11.6827
-11.505
-11.3188
-11.1244
-10.9215
-10.7096
-10.4882
-10.2561
-10.012
-9.75435
-9.48132
-9.19082
-8.88066
-8.5486
-8.19247
-7.81037
-7.40079
-6.96285
-6.49649
-6.00285
-5.48461
-4.94646
-4.39552
-3.84158
-3.29623
-2.771
-2.27595
-1.81941
-1.40782
-1.04537
-0.733801
-0.472472
-0.258735
-0.0884587
0.0433835
0.142181
0.213277
0.261676
0.291888
0.307841
0.312878
0.309777
0.300805
0.28777
0.272092
0.254858
0.236879
0.218743
0.200858
0.183495
0.166818
0.150924
0.135828
0.121557
0.108029
0.0953048
0.0831178
0.071844
0.0605388
0.0509029
0.0393333
0.0328076
0.0173231
0.0202658
-0.0123063
-11.6481
-11.7527
-11.6796
-11.6116
-11.5805
-11.5717
-11.5877
-11.633
-11.7074
-11.8099
-11.9311
-12.0653
-12.2045
-12.3417
-12.4712
-12.5885
-12.6908
-12.7761
-12.8435
-12.8927
-12.9237
-12.937
-12.9331
-12.9125
-12.876
-12.8241
-12.7577
-12.6774
-12.5839
-12.4778
-12.3599
-12.2309
-12.0913
-11.9417
-11.7828
-11.6149
-11.4385
-11.2538
-11.0607
-10.8591
-10.6486
-10.4283
-10.1973
-9.95433
-9.69771
-9.42564
-9.13607
-8.82687
-8.49585
-8.1409
-7.76015
-7.35216
-6.9161
-6.45212
-5.96175
-5.44829
-4.91715
-4.37607
-3.8346
-3.30295
-2.79095
-2.30761
-1.86081
-1.45678
-1.09962
-0.791129
-0.530865
-0.316484
-0.144218
-0.00940559
0.0930054
0.168074
0.220581
0.254868
0.274746
0.283481
0.283806
0.277965
0.267764
0.254629
0.239661
0.223691
0.20733
0.191009
0.175021
0.159552
0.144718
0.130551
0.117093
0.104274
0.0921694
0.0805176
0.0697109
0.0588016
0.0495173
0.0382374
0.0319762
0.016731
0.0198241
-0.0123344
-11.28
-11.2902
-11.3231
-11.3839
-11.4526
-11.515
-11.5747
-11.6407
-11.721
-11.8128
-11.919
-12.0352
-12.1572
-12.2798
-12.3986
-12.5093
-12.6081
-12.6922
-12.7598
-12.8097
-12.8416
-12.8556
-12.8522
-12.832
-12.7957
-12.7442
-12.6782
-12.5984
-12.5055
-12.4003
-12.2832
-12.1552
-12.0166
-11.8682
-11.7105
-11.5439
-11.3688
-11.1852
-10.9933
-10.7928
-10.5833
-10.364
-10.1338
-9.8915
-9.63549
-9.36397
-9.07491
-8.76621
-8.43571
-8.08136
-7.7014
-7.29455
-6.86035
-6.39947
-5.91399
-5.4077
-4.88636
-4.35746
-3.82951
-3.31141
-2.81208
-2.34
-1.90268
-1.50606
-1.15415
-0.848762
-0.58964
-0.374721
-0.200576
-0.0628956
0.0430462
0.122029
0.178611
0.216963
0.240777
0.253238
0.257029
0.25437
0.247058
0.236523
0.223881
0.20998
0.195451
0.180748
0.166187
0.151972
0.138239
0.125039
0.112427
0.100349
0.0888905
0.0777987
0.0674795
0.0569879
0.0480683
0.0371031
0.0311045
0.0161451
0.0193407
-0.0122847
-11.3887
-11.4951
-11.5423
-11.556
-11.5698
-11.5889
-11.6181
-11.6636
-11.7277
-11.8091
-11.9063
-12.0144
-12.1274
-12.2414
-12.351
-12.4521
-12.5418
-12.6179
-12.679
-12.7242
-12.753
-12.7654
-12.7616
-12.7419
-12.7067
-12.6565
-12.5919
-12.5135
-12.4221
-12.3182
-12.2026
-12.0759
-11.9387
-11.7917
-11.6352
-11.4698
-11.2958
-11.1133
-10.9223
-10.7226
-10.5137
-10.2948
-10.065
-9.82285
-9.56689
-9.2953
-9.00612
-8.69729
-8.36678
-8.01275
-7.63371
-7.22879
-6.7979
-6.34207
-5.86369
-5.36679
-4.85694
-4.34089
-3.82626
-3.32121
-2.83409
-2.37294
-1.94487
-1.55556
-1.20886
-0.906611
-0.648715
-0.433367
-0.257461
-0.117023
-0.00764231
0.0751874
0.135802
0.178201
0.205954
0.222161
0.229452
0.230019
0.225648
0.21777
0.207512
0.195737
0.183097
0.170066
0.156981
0.144068
0.131479
0.119284
0.107555
0.0962476
0.0854632
0.0749568
0.0651468
0.0550951
0.0465551
0.0359284
0.0301951
0.0155614
0.018826
-0.0121633
-11.3515
-11.3933
-11.4139
-11.4408
-11.4817
-11.5285
-11.5802
-11.6403
-11.7117
-11.794
-11.8864
-11.9863
-12.0901
-12.1939
-12.294
-12.3873
-12.4707
-12.5421
-12.5995
-12.642
-12.6687
-12.6795
-12.6745
-12.654
-12.6184
-12.5682
-12.504
-12.4264
-12.3359
-12.2332
-12.1189
-11.9935
-11.8576
-11.7118
-11.5566
-11.3922
-11.2191
-11.0374
-10.8469
-10.6476
-10.4388
-10.2199
-9.98978
-9.74728
-9.49084
-9.21877
-8.92922
-8.62031
-8.2902
-7.93731
-7.5604
-7.15885
-6.73287
-6.28375
-5.81406
-5.3277
-4.82974
-4.32634
-3.82458
-3.33212
-2.85685
-2.40634
-1.98733
-1.6052
-1.26368
-0.964605
-0.708014
-0.492347
-0.314799
-0.171716
-0.058993
0.0276093
0.0922064
0.138628
0.170315
0.190282
0.201103
0.204935
0.203551
0.198383
0.190562
0.180969
0.170273
0.158966
0.147407
0.13584
0.124439
0.113288
0.102475
0.0919703
0.0818877
0.0719922
0.0627127
0.0531229
0.0449773
0.0347127
0.0292469
0.0149781
0.0182772
-0.0119746
-11.3541
-11.4066
-11.4497
-11.4861
-11.5219
-11.5591
-11.601
-11.652
-11.7142
-11.7876
-11.8703
-11.9607
-12.055
-12.1495
-12.2409
-12.326
-12.4019
-12.4666
-12.5185
-12.5565
-12.5799
-12.5885
-12.5822
-12.5611
-12.5255
-12.4758
-12.4124
-12.3358
-12.2465
-12.1451
-12.0321
-11.908
-11.7735
-11.6289
-11.4748
-11.3114
-11.139
-10.9578
-10.7677
-10.5684
-10.3595
-10.1403
-9.90978
-9.66676
-9.40984
-9.13743
-8.84784
-8.53935
-8.21033
-7.85938
-7.48554
-7.08844
-6.66851
-6.22714
-5.76679
-5.29108
-4.80474
-4.31358
-3.82424
-3.34399
-2.88023
-2.44011
-2.02997
-1.65493
-1.31855
-1.02268
-0.767473
-0.551595
-0.372525
-0.226915
-0.110952
-0.0206574
0.0478663
0.0982772
0.133889
0.157624
0.171997
0.179129
0.180776
0.178365
0.173034
0.165676
0.156976
0.147445
0.137461
0.127287
0.117115
0.107047
0.0971853
0.0875148
0.0781619
0.0689031
0.060176
0.0510705
0.0433342
0.0334554
0.0282596
0.0143942
0.0176951
-0.0117221
-11.3491
-11.3916
-11.4269
-11.4586
-11.4941
-11.5347
-11.5809
-11.6344
-11.6962
-11.7673
-11.8457
-11.9294
-12.0159
-12.1023
-12.1857
-12.2631
-12.3322
-12.3911
-12.4381
-12.4721
-12.4925
-12.4987
-12.4907
-12.4685
-12.4323
-12.3823
-12.3191
-12.243
-12.1544
-12.0539
-11.942
-11.8191
-11.6857
-11.5423
-11.3893
-11.2268
-11.0553
-10.8747
-10.685
-10.486
-10.2771
-10.0577
-9.8269
-9.5836
-9.32649
-9.0541
-8.76491
-8.45736
-8.13005
-7.78179
-7.41182
-7.0199
-6.60655
-6.17315
-5.72205
-5.25672
-4.78165
-4.30234
-3.82509
-3.3567
-2.90417
-2.4742
-2.07276
-1.70469
-1.37342
-1.08077
-0.827024
-0.611043
-0.430573
-0.282556
-0.16346
-0.0695604
0.00282669
0.0571879
0.0967071
0.124212
0.142154
0.152616
0.157332
0.157724
0.154933
0.149861
0.143208
0.135504
0.127143
0.118407
0.109506
0.100559
0.091684
0.0828796
0.0742845
0.0656886
0.057536
0.0489371
0.0416255
0.0321558
0.0272336
0.0138084
0.0170811
-0.0114097
-11.3449
-11.384
-11.4208
-11.4561
-11.4936
-11.534
-11.5785
-11.6289
-11.6867
-11.751
-11.8225
-11.8985
-11.977
-12.0554
-12.1309
-12.201
-12.2636
-12.3166
-12.3586
-12.3885
-12.4055
-12.4092
-12.3993
-12.3759
-12.3389
-12.2888
-12.2257
-12.15
-12.0621
-11.9624
-11.8515
-11.7296
-11.5973
-11.4549
-11.3028
-11.1413
-10.9705
-10.7905
-10.6012
-10.4024
-10.1936
-9.97419
-9.74334
-9.50002
-9.24302
-8.97103
-8.68265
-8.37652
-8.05139
-7.70623
-7.34042
-6.95385
-6.5471
-6.12154
-5.67951
-5.2243
-4.76022
-4.29248
-3.82699
-3.37019
-2.92861
-2.50855
-2.11562
-1.75442
-1.42821
-1.13882
-0.8866
-0.670622
-0.488875
-0.338575
-0.216457
-0.119045
-0.0428636
0.0154018
0.0588042
0.0900749
0.111599
0.125415
0.133236
0.136472
0.136266
0.133529
0.128973
0.123143
0.116452
0.1092
0.101611
0.0938238
0.0859705
0.0780641
0.0702552
0.0623482
0.0547923
0.0467226
0.0398511
0.0308137
0.0261692
0.0132193
0.0164369
-0.011043
-11.3398
-11.3757
-11.4109
-11.4454
-11.4817
-11.5211
-11.5646
-11.6134
-11.6682
-11.7289
-11.795
-11.8647
-11.9362
-12.0072
-12.0755
-12.1388
-12.195
-12.2425
-12.2797
-12.3056
-12.3194
-12.3206
-12.3089
-12.2841
-12.2464
-12.1959
-12.1327
-12.0573
-11.97
-11.8711
-11.761
-11.6401
-11.5087
-11.3674
-11.2162
-11.0555
-10.8855
-10.7061
-10.5173
-10.3188
-10.1102
-9.89098
-9.66026
-9.41712
-9.16047
-8.88912
-8.60182
-8.29733
-7.97457
-7.63267
-7.27112
-6.88995
-6.48977
-6.072
-5.63889
-5.19364
-4.74033
-4.28388
-3.82989
-3.38438
-2.95348
-2.5431
-2.15852
-1.80407
-1.48288
-1.19675
-0.946136
-0.730265
-0.547363
-0.394903
-0.269879
-0.169052
-0.0891531
-0.0270362
0.0202189
0.0552446
0.0803559
0.0975469
0.108502
0.114621
0.117044
0.116688
0.114276
0.110368
0.105393
0.0996666
0.0934317
0.0868424
0.0800453
0.0730684
0.0660739
0.058882
0.051945
0.0444268
0.0380113
0.0294286
0.0250669
0.0126253
0.0157651
-0.0106281
-11.334
-11.3675
-11.4014
-11.4356
-11.4716
-11.5103
-11.5525
-11.599
-11.6504
-11.7065
-11.7669
-11.8303
-11.8949
-11.959
-12.0203
-12.077
-12.1272
-12.1692
-12.2018
-12.2237
-12.2342
-12.2329
-12.2192
-12.193
-12.1544
-12.1035
-12.0402
-11.965
-11.8782
-11.7799
-11.6706
-11.5506
-11.4202
-11.2797
-11.1295
-10.9697
-10.8004
-10.6216
-10.4333
-10.2353
-10.027
-9.808
-9.57755
-9.33477
-9.07867
-8.80816
-8.52213
-8.21949
-7.89929
-7.5608
-7.20365
-6.82794
-6.43436
-6.02434
-5.60007
-5.16462
-4.72187
-4.27649
-3.83373
-3.39923
-2.97875
-2.57782
-2.2014
-1.85358
-1.53737
-1.25452
-1.00557
-0.789904
-0.605967
-0.451474
-0.323662
-0.219522
-0.135987
-0.0700781
-0.0190074
0.0197564
0.0484559
0.0690363
0.0831524
0.0921876
0.0972793
0.0993474
0.0991246
0.0971838
0.0939687
0.0898119
0.084971
0.0796167
0.07391
0.067894
0.0617421
0.0552911
0.0489952
0.0420506
0.0361068
0.0280007
0.0239275
0.0120248
0.0150682
-0.010172
-11.3273
-11.3588
-11.3913
-11.4246
-11.4594
-11.4968
-11.5372
-11.5813
-11.6293
-11.6813
-11.7366
-11.7942
-11.8526
-11.9102
-11.9651
-12.0156
-12.06
-12.0968
-12.1247
-12.1427
-12.15
-12.1461
-12.1304
-12.1028
-12.0632
-12.0116
-11.9482
-11.8731
-11.7866
-11.6889
-11.5803
-11.4611
-11.3316
-11.192
-11.0426
-10.8836
-10.7151
-10.537
-10.3492
-10.1516
-9.94376
-9.72514
-9.4951
-9.25285
-8.99747
-8.72801
-8.44345
-8.14286
-7.8254
-7.49049
-7.13786
-6.76771
-6.38078
-5.97848
-5.56297
-5.13718
-4.70481
-4.27025
-3.83845
-3.41469
-3.00437
-2.61266
-2.24422
-1.90292
-1.59162
-1.31206
-1.06483
-0.849472
-0.66462
-0.508219
-0.37774
-0.270394
-0.18331
-0.113673
-0.0588303
-0.0163514
0.015931
0.0399103
0.0572083
0.0691904
0.0769872
0.0815203
0.0835295
0.0835994
0.0821874
0.0796411
0.0762333
0.0721505
0.0675679
0.0625437
0.0572618
0.0515772
0.0459444
0.0395951
0.0341388
0.0265304
0.0227524
0.0114163
0.0143495
-0.00968257
-11.3199
-11.3496
-11.3806
-11.4127
-11.4463
-11.4822
-11.5207
-11.5622
-11.607
-11.6548
-11.7052
-11.7573
-11.8098
-11.8612
-11.91
-11.9546
-11.9934
-12.0252
-12.0487
-12.0628
-12.0669
-12.0602
-12.0425
-12.0133
-11.9727
-11.9204
-11.8567
-11.7816
-11.6953
-11.5981
-11.4901
-11.3716
-11.2429
-11.1041
-10.9556
-10.7973
-10.6295
-10.4521
-10.2649
-10.0679
-9.8605
-9.64238
-9.41289
-9.17132
-8.91686
-8.64863
-8.36575
-8.0674
-7.75288
-7.42171
-7.07374
-6.70923
-6.32898
-5.93439
-5.52756
-5.1113
-4.68911
-4.26513
-3.84402
-3.43073
-3.03029
-2.64757
-2.28693
-1.95202
-1.64558
-1.36931
-1.12386
-0.908903
-0.723253
-0.56507
-0.432046
-0.321603
-0.231061
-0.157768
-0.0992021
-0.0530372
-0.0171829
0.0101995
0.030696
0.0456511
0.0561861
0.0632217
0.0675034
0.0696254
0.0700576
0.0691617
0.067225
0.0644495
0.0610237
0.0570213
0.0526367
0.0477435
0.0427951
0.0370622
0.0321091
0.0250183
0.0215428
0.0107983
0.0136124
-0.00916831
-11.3116
-11.3397
-11.3692
-11.3999
-11.4321
-11.4662
-11.5025
-11.5414
-11.5828
-11.6267
-11.6725
-11.7194
-11.7663
-11.812
-11.855
-11.894
-11.9276
-11.9545
-11.9736
-11.9839
-11.9848
-11.9755
-11.9556
-11.9248
-11.8829
-11.8299
-11.7658
-11.6906
-11.6044
-11.5075
-11.4
-11.2822
-11.1542
-11.0162
-10.8684
-10.7109
-10.5438
-10.367
-10.1805
-9.98404
-9.77726
-9.55975
-9.33096
-9.09024
-8.83686
-8.57006
-8.28905
-7.99314
-7.68173
-7.35446
-7.01127
-6.6525
-6.27896
-5.89206
-5.49382
-5.08693
-4.67472
-4.26109
-3.8504
-3.44729
-3.05649
-2.68252
-2.32949
-2.00085
-1.6992
-1.42622
-1.1826
-0.968132
-0.781798
-0.621957
-0.486511
-0.373084
-0.279181
-0.202307
-0.140073
-0.0902566
-0.0508472
-0.0200628
0.00364416
0.0215943
0.0348969
0.0444697
0.0510616
0.0552749
0.0575906
0.0583835
0.0579547
0.0565208
0.0542838
0.0513326
0.0478716
0.043794
0.0395509
0.0344549
0.03002
0.0234658
0.0203007
0.0101696
0.0128608
-0.00863794
-11.3025
-11.3291
-11.357
-11.3861
-11.4167
-11.4489
-11.483
-11.5192
-11.5574
-11.5973
-11.6387
-11.6807
-11.7224
-11.7626
-11.8002
-11.8339
-11.8624
-11.8846
-11.8995
-11.9062
-11.9038
-11.8918
-11.8697
-11.8372
-11.7941
-11.7402
-11.6755
-11.6001
-11.514
-11.4173
-11.3102
-11.1929
-11.0655
-10.9282
-10.7812
-10.6244
-10.458
-10.2819
-10.0961
-9.90024
-9.69413
-9.47734
-9.24937
-9.00966
-8.75754
-8.49235
-8.21341
-7.92011
-7.61199
-7.28877
-6.95048
-6.59751
-6.23071
-5.85145
-5.46172
-5.06405
-4.66162
-4.25809
-3.85756
-3.46436
-3.08292
-2.71747
-2.37186
-2.04935
-1.75244
-1.48274
-1.24099
-1.02709
-0.840186
-0.67881
-0.541066
-0.42477
-0.327604
-0.24723
-0.181388
-0.127962
-0.0850195
-0.0508394
-0.0239151
-0.00295244
0.0131435
0.0252848
0.0342219
0.0405634
0.0448
0.0473185
0.0484328
0.0483738
0.0473563
0.0454847
0.0429727
0.0397342
0.0362166
0.0317768
0.027875
0.0218748
0.0190285
0.00952913
0.0120984
-0.00810067
-11.2926
-11.3176
-11.344
-11.3715
-11.4003
-11.4305
-11.4623
-11.4956
-11.5306
-11.5668
-11.6039
-11.6413
-11.678
-11.7131
-11.7456
-11.7742
-11.7979
-11.8157
-11.8265
-11.8295
-11.8239
-11.8092
-11.7849
-11.7507
-11.7062
-11.6513
-11.586
-11.5102
-11.424
-11.3275
-11.2207
-11.1039
-10.977
-10.8404
-10.694
-10.5379
-10.3722
-10.1968
-10.0117
-9.81654
-9.61118
-9.39522
-9.16822
-8.92966
-8.67897
-8.41556
-8.13887
-7.84837
-7.5437
-7.22467
-6.89138
-6.54427
-6.18422
-5.81258
-5.43123
-5.04264
-4.64978
-4.2561
-3.86546
-3.4819
-3.10955
-2.75238
-2.41401
-2.0975
-1.80524
-1.53881
-1.29897
-1.08573
-0.89835
-0.73556
-0.59564
-0.476592
-0.376266
-0.292477
-0.223093
-0.166102
-0.119655
-0.0820903
-0.0519466
-0.0279581
-0.00904709
0.00569074
0.0170051
0.0255092
0.0317019
0.0359809
0.0386719
0.0400197
0.0402513
0.0394865
0.0379479
0.0355708
0.0327979
0.0290328
0.0256781
0.0202481
0.0177291
0.0088765
0.0113298
-0.00756524
-11.2818
-11.3054
-11.3301
-11.3559
-11.3829
-11.411
-11.4404
-11.471
-11.5027
-11.5353
-11.5684
-11.6013
-11.6334
-11.6637
-11.6912
-11.7151
-11.7342
-11.7476
-11.7545
-11.7539
-11.7452
-11.7279
-11.7013
-11.6652
-11.6193
-11.5634
-11.4974
-11.4211
-11.3347
-11.2382
-11.1317
-11.0152
-10.8888
-10.7527
-10.6069
-10.4515
-10.2865
-10.1118
-9.9274
-9.73305
-9.52852
-9.3135
-9.08759
-8.85033
-8.60123
-8.33978
-8.0655
-7.77796
-7.47689
-7.16218
-6.83399
-6.4928
-6.1395
-5.77541
-5.40236
-5.02267
-4.63917
-4.2551
-3.87407
-3.49987
-3.13635
-2.78723
-2.4559
-2.14525
-1.85757
-1.59438
-1.35649
-1.14396
-0.956223
-0.792136
-0.650163
-0.528479
-0.425098
-0.337983
-0.265127
-0.204623
-0.154703
-0.113772
-0.0804114
-0.0533882
-0.0316444
-0.0142856
-0.000564965
0.0101334
0.0183151
0.0243874
0.0286872
0.031472
0.0329807
0.0333486
0.0328066
0.0313122
0.0293022
0.026229
0.0234344
0.0185891
0.0164059
0.00821164
0.010559
-0.00704039
-11.2702
-11.2923
-11.3154
-11.3395
-11.3645
-11.3905
-11.4174
-11.4452
-11.4738
-11.5029
-11.5321
-11.5609
-11.5885
-11.6142
-11.6372
-11.6565
-11.6712
-11.6805
-11.6835
-11.6795
-11.6677
-11.6477
-11.6189
-11.5809
-11.5335
-11.4765
-11.4096
-11.3329
-11.2462
-11.1496
-11.0432
-10.927
-10.801
-10.6654
-10.5202
-10.3654
-10.201
-10.0271
-9.84342
-9.64989
-9.44627
-9.23229
-9.00758
-8.77176
-8.5244
-8.26507
-7.99336
-7.70895
-7.41162
-7.10134
-6.77833
-6.4431
-6.09654
-5.73995
-5.37507
-5.00413
-4.62977
-4.25506
-3.88337
-3.51824
-3.16328
-2.82197
-2.49749
-2.19257
-1.90937
-1.6494
-1.41348
-1.20175
-1.01374
-0.848467
-0.704562
-0.58036
-0.474032
-0.383682
-0.307429
-0.243467
-0.190114
-0.145837
-0.109267
-0.0792051
-0.0546147
-0.0346141
-0.0184614
-0.00553987
0.00466123
0.0125575
0.0184959
0.0227463
0.0255587
0.0270837
0.0275602
0.0269683
0.025738
0.0233726
0.0211502
0.0169024
0.0150632
0.00753543
0.00979055
-0.00653369
-11.2578
-11.2784
-11.2999
-11.3222
-11.3452
-11.369
-11.3935
-11.4186
-11.4441
-11.4698
-11.4953
-11.5201
-11.5435
-11.5649
-11.5835
-11.5985
-11.6091
-11.6144
-11.6137
-11.6063
-11.5915
-11.5688
-11.5377
-11.4979
-11.4489
-11.3907
-11.3229
-11.2455
-11.1585
-11.0618
-10.9554
-10.8393
-10.7137
-10.5785
-10.4338
-10.2796
-10.1159
-9.9427
-9.75983
-9.56717
-9.36454
-9.15168
-8.9283
-8.69405
-8.44857
-8.19151
-7.92253
-7.64138
-7.34792
-7.04218
-6.72442
-6.39518
-6.05535
-5.70618
-5.34936
-4.98698
-4.62155
-4.25595
-3.89332
-3.53699
-3.19033
-2.85659
-2.53875
-2.23941
-1.96061
-1.70383
-1.4699
-1.25901
-1.07082
-0.904484
-0.758765
-0.632162
-0.522995
-0.429506
-0.349933
-0.282575
-0.225831
-0.178235
-0.138468
-0.105367
-0.0779205
-0.0552611
-0.036654
-0.0214834
-0.00923514
0.000513421
0.00811818
0.0138607
0.0180015
0.0207064
0.0222217
0.0225506
0.0221155
0.0204722
0.0188327
0.0151934
0.0137057
0.00684935
0.00902869
-0.00605203
-11.2447
-11.2638
-11.2836
-11.3041
-11.3252
-11.3468
-11.3688
-11.3912
-11.4137
-11.4361
-11.458
-11.479
-11.4984
-11.5157
-11.5302
-11.5411
-11.5477
-11.5492
-11.545
-11.5343
-11.5166
-11.4913
-11.4579
-11.4161
-11.3656
-11.306
-11.2373
-11.1592
-11.0717
-10.9748
-10.8683
-10.7524
-10.627
-10.4922
-10.348
-10.1944
-10.0313
-9.85882
-9.67676
-9.48502
-9.28344
-9.0718
-8.84985
-8.61729
-8.37383
-8.11917
-7.85306
-7.57531
-7.28583
-6.98473
-6.67228
-6.34905
-6.01592
-5.67411
-5.32521
-4.97122
-4.6145
-4.25775
-3.90392
-3.55611
-3.21747
-2.89105
-2.57966
-2.28574
-2.01126
-1.75762
-1.52568
-1.3157
-1.12742
-0.960114
-0.812698
-0.683811
-0.571915
-0.475384
-0.392573
-0.321882
-0.261794
-0.21091
-0.167964
-0.131829
-0.101521
-0.0761891
-0.0551087
-0.0376663
-0.0233462
-0.0117197
-0.00242312
0.00483595
0.0103277
0.0142333
0.0168059
0.0180723
0.0184462
0.0175378
0.0164903
0.0134688
0.0123389
0.0061561
0.00827781
-0.00560045
-11.2309
-11.2485
-11.2666
-11.2853
-11.3044
-11.3238
-11.3434
-11.3631
-11.3827
-11.402
-11.4205
-11.4378
-11.4535