/*--------------------------------*- C++ -*----------------------------------*\
  =========                 |
  \\      /  F ield         | OpenFOAM: The Open Source CFD Toolbox
   \\    /   O peration     | Website:  https://openfoam.org
    \\  /    A nd           | Version:  10
     \\/     M anipulation  |
\*---------------------------------------------------------------------------*/
FoamFile
{
    format      ascii;
    class       surfaceScalarField;
    location    "0.11";
    object      phi;
}
// * * * * * * * * * * * * * * * * * * * * * * * * * * * * * * * * * * * * * //

dimensions      [0 3 -1 0 0 0 0];

internalField   nonuniform List<scalar> 
13452
(
6.05771e-05
-3.08624e-07
6.03707e-05
2.06386e-07
5.98987e-05
4.72001e-07
5.92848e-05
6.13876e-07
5.86792e-05
6.05639e-07
5.8142e-05
5.37194e-07
5.76759e-05
4.66107e-07
5.72707e-05
4.05136e-07
5.69152e-05
3.55498e-07
5.65994e-05
3.15822e-07
5.63155e-05
2.8393e-07
5.60576e-05
2.57861e-07
5.58215e-05
2.36134e-07
5.56038e-05
2.17678e-07
5.54021e-05
2.0173e-07
5.52143e-05
1.87749e-07
5.5039e-05
1.75351e-07
5.48747e-05
1.6426e-07
5.47205e-05
1.54274e-07
5.45752e-05
1.45253e-07
5.44381e-05
1.371e-07
5.43083e-05
1.29762e-07
5.41851e-05
1.23234e-07
5.40675e-05
1.17579e-07
5.39546e-05
1.12946e-07
5.38448e-05
1.09749e-07
5.37363e-05
1.08555e-07
5.36249e-05
1.11411e-07
5.35036e-05
1.21223e-07
5.33594e-05
1.44228e-07
5.31418e-05
2.17578e-07
5.28269e-05
3.14983e-07
5.94887e-07
5.2232e-05
6.18026e-05
-1.20915e-07
6.17625e-05
2.46551e-07
6.18792e-05
3.55275e-07
6.20405e-05
4.52548e-07
6.2147e-05
4.99195e-07
6.2176e-05
5.08146e-07
6.21422e-05
4.99927e-07
6.20663e-05
4.81049e-07
6.19647e-05
4.57077e-07
6.18487e-05
4.31854e-07
6.17254e-05
4.07202e-07
6.15994e-05
3.83874e-07
6.14734e-05
3.62137e-07
6.1349e-05
3.42022e-07
6.12273e-05
3.23443e-07
6.11088e-05
3.0628e-07
6.09937e-05
2.90405e-07
6.08823e-05
2.75702e-07
6.07745e-05
2.62073e-07
6.06703e-05
2.4944e-07
6.05697e-05
2.3775e-07
6.04724e-05
2.2698e-07
6.03785e-05
2.17146e-07
6.02878e-05
2.08324e-07
6.02e-05
2.00675e-07
6.01153e-05
1.9451e-07
6.00334e-05
1.9044e-07
5.99555e-05
1.89308e-07
5.98827e-05
1.94022e-07
5.98234e-05
2.03553e-07
5.98031e-05
2.37857e-07
5.98588e-05
2.59294e-07
3.70487e-07
6.00832e-05
6.36612e-05
-2.07384e-08
6.37528e-05
1.55027e-07
6.38148e-05
2.93263e-07
6.38675e-05
3.99845e-07
6.39105e-05
4.56206e-07
6.39421e-05
4.76548e-07
6.39624e-05
4.79548e-07
6.39701e-05
4.73427e-07
6.39653e-05
4.61802e-07
6.395e-05
4.47231e-07
6.39259e-05
4.3123e-07
6.38951e-05
4.14667e-07
6.38592e-05
3.98079e-07
6.38194e-05
3.81786e-07
6.37769e-05
3.65971e-07
6.37324e-05
3.50735e-07
6.36867e-05
3.36133e-07
6.36402e-05
3.22193e-07
6.35934e-05
3.08932e-07
6.35464e-05
2.96367e-07
6.34997e-05
2.84523e-07
6.34532e-05
2.73446e-07
6.34071e-05
2.63216e-07
6.33615e-05
2.53963e-07
6.33163e-05
2.45916e-07
6.32714e-05
2.39408e-07
6.32267e-05
2.35136e-07
6.31823e-05
2.33692e-07
6.31385e-05
2.37823e-07
6.3096e-05
2.46022e-07
6.3062e-05
2.71847e-07
6.30284e-05
2.92951e-07
3.62501e-07
6.30363e-05
6.55759e-05
-1.36084e-08
6.55537e-05
1.77298e-07
6.55644e-05
2.82489e-07
6.56052e-05
3.59047e-07
6.56543e-05
4.07143e-07
6.56994e-05
4.3145e-07
6.57369e-05
4.42022e-07
6.57666e-05
4.43792e-07
6.57889e-05
4.39511e-07
6.58046e-05
4.31492e-07
6.58146e-05
4.21227e-07
6.58197e-05
4.09603e-07
6.58205e-05
3.97201e-07
6.58179e-05
3.84414e-07
6.58124e-05
3.71504e-07
6.58045e-05
3.58653e-07
6.57946e-05
3.45992e-07
6.57832e-05
3.33619e-07
6.57705e-05
3.21612e-07
6.57568e-05
3.10045e-07
6.57424e-05
2.98992e-07
6.57273e-05
2.88546e-07
6.57116e-05
2.78829e-07
6.56956e-05
2.70006e-07
6.56792e-05
2.62335e-07
6.56624e-05
2.56153e-07
6.56455e-05
2.52087e-07
6.56285e-05
2.50642e-07
6.56127e-05
2.53639e-07
6.55985e-05
2.60218e-07
6.55939e-05
2.7651e-07
6.55963e-05
2.9052e-07
3.1834e-07
6.56404e-05
6.74265e-05
1.66683e-08
6.74515e-05
1.5232e-07
6.74799e-05
2.54095e-07
6.75109e-05
3.28017e-07
6.75418e-05
3.76291e-07
6.75717e-05
4.01541e-07
6.76005e-05
4.13155e-07
6.76277e-05
4.16672e-07
6.76524e-05
4.14798e-07
6.76744e-05
4.09468e-07
6.76937e-05
4.01927e-07
6.77104e-05
3.9292e-07
6.77246e-05
3.82951e-07
6.77367e-05
3.72374e-07
6.77467e-05
3.6144e-07
6.7755e-05
3.50336e-07
6.77618e-05
3.39202e-07
6.77673e-05
3.28156e-07
6.77716e-05
3.17296e-07
6.77749e-05
3.06716e-07
6.77774e-05
2.96515e-07
6.77792e-05
2.86805e-07
6.77803e-05
2.77725e-07
6.77808e-05
2.69453e-07
6.77809e-05
2.6224e-07
6.77807e-05
2.56395e-07
6.77803e-05
2.52423e-07
6.77803e-05
2.50706e-07
6.77816e-05
2.52351e-07
6.7785e-05
2.56762e-07
6.7795e-05
2.66524e-07
6.78104e-05
2.75137e-07
2.87604e-07
6.78411e-05
6.93768e-05
2.38532e-08
6.93865e-05
1.42658e-07
6.94049e-05
2.35666e-07
6.94312e-05
3.01726e-07
6.94612e-05
3.46352e-07
6.94909e-05
3.7177e-07
6.95193e-05
3.84774e-07
6.9546e-05
3.89972e-07
6.9571e-05
3.89813e-07
6.95944e-05
3.86113e-07
6.96162e-05
3.80106e-07
6.96365e-05
3.72553e-07
6.96555e-05
3.63956e-07
6.96732e-05
3.54663e-07
6.96898e-05
3.44922e-07
6.97052e-05
3.34913e-07
6.97196e-05
3.24778e-07
6.97331e-05
3.14635e-07
6.97458e-05
3.04588e-07
6.97578e-05
2.94735e-07
6.97692e-05
2.85181e-07
6.97799e-05
2.76041e-07
6.97902e-05
2.67455e-07
6.98001e-05
2.59592e-07
6.98096e-05
2.52675e-07
6.98191e-05
2.46958e-07
6.98287e-05
2.42809e-07
6.98389e-05
2.40481e-07
6.98507e-05
2.40539e-07
6.9865e-05
2.42503e-07
6.98844e-05
2.47096e-07
6.99089e-05
2.50596e-07
2.53431e-07
6.99431e-05
7.13593e-05
3.08531e-08
7.1371e-05
1.30944e-07
7.13922e-05
2.14498e-07
7.14183e-05
2.75662e-07
7.14461e-05
3.18547e-07
7.14733e-05
3.44531e-07
7.14995e-05
3.58598e-07
7.15246e-05
3.64872e-07
7.15486e-05
3.65779e-07
7.15717e-05
3.63074e-07
7.15938e-05
3.57978e-07
7.16151e-05
3.51264e-07
7.16356e-05
3.43444e-07
7.16554e-05
3.34875e-07
7.16745e-05
3.25807e-07
7.1693e-05
3.16426e-07
7.17109e-05
3.06873e-07
7.17283e-05
2.97267e-07
7.17451e-05
2.87711e-07
7.17616e-05
2.78303e-07
7.17776e-05
2.69146e-07
7.17933e-05
2.60348e-07
7.18087e-05
2.5204e-07
7.18239e-05
2.44369e-07
7.18391e-05
2.37516e-07
7.18544e-05
2.31675e-07
7.18701e-05
2.27084e-07
7.18867e-05
2.23875e-07
7.1905e-05
2.22262e-07
7.19257e-05
2.21806e-07
7.19504e-05
2.22411e-07
7.19791e-05
2.21825e-07
2.19231e-07
7.20133e-05
7.34033e-05
3.27843e-08
7.34141e-05
1.20199e-07
7.34329e-05
1.95725e-07
7.34564e-05
2.52153e-07
7.34824e-05
2.92523e-07
7.35087e-05
3.1819e-07
7.35345e-05
3.32875e-07
7.35593e-05
3.40047e-07
7.35832e-05
3.41909e-07
7.36062e-05
3.40077e-07
7.36284e-05
3.35727e-07
7.365e-05
3.29644e-07
7.36711e-05
3.22362e-07
7.36917e-05
3.14258e-07
7.37119e-05
3.05598e-07
7.37318e-05
2.9658e-07
7.37513e-05
2.87351e-07
7.37705e-05
2.78035e-07
7.37895e-05
2.68735e-07
7.38083e-05
2.59549e-07
7.38268e-05
2.50573e-07
7.38453e-05
2.4191e-07
7.38636e-05
2.33672e-07
7.3882e-05
2.25979e-07
7.39006e-05
2.1897e-07
7.39195e-05
2.12775e-07
7.3939e-05
2.07527e-07
7.39596e-05
2.0326e-07
7.39819e-05
1.99977e-07
7.40065e-05
1.97268e-07
7.40342e-05
1.9473e-07
7.4065e-05
1.90935e-07
1.84927e-07
7.40993e-05
7.55023e-05
3.29705e-08
7.55124e-05
1.10118e-07
7.55301e-05
1.77965e-07
7.55525e-05
2.29823e-07
7.55773e-05
2.67689e-07
7.56027e-05
2.92768e-07
7.56278e-05
3.07791e-07
7.56522e-05
3.15613e-07
7.56759e-05
3.18221e-07
7.56989e-05
3.17101e-07
7.57212e-05
3.13371e-07
7.57431e-05
3.07806e-07
7.57645e-05
3.00951e-07
7.57856e-05
2.93195e-07
7.58063e-05
2.84818e-07
7.58269e-05
2.76028e-07
7.58473e-05
2.66984e-07
7.58675e-05
2.57813e-07
7.58876e-05
2.48622e-07
7.59076e-05
2.39507e-07
7.59276e-05
2.3056e-07
7.59477e-05
2.21872e-07
7.59678e-05
2.13537e-07
7.59881e-05
2.05651e-07
7.60088e-05
1.98308e-07
7.603e-05
1.91585e-07
7.6052e-05
1.85536e-07
7.60751e-05
1.80123e-07
7.60999e-05
1.75239e-07
7.61266e-05
1.70508e-07
7.61559e-05
1.6547e-07
7.61876e-05
1.59183e-07
1.50885e-07
7.62217e-05
7.76607e-05
3.18067e-08
7.76704e-05
1.0047e-07
7.7687e-05
1.61394e-07
7.77078e-05
2.08947e-07
7.77313e-05
2.44242e-07
7.77557e-05
2.68339e-07
7.77802e-05
2.83303e-07
7.78043e-05
2.91472e-07
7.7828e-05
2.94607e-07
7.7851e-05
2.9405e-07
7.78735e-05
2.90837e-07
7.78956e-05
2.85717e-07
7.79174e-05
2.79227e-07
7.79388e-05
2.7176e-07
7.796e-05
2.63607e-07
7.7981e-05
2.54983e-07
7.8002e-05
2.46054e-07
7.80228e-05
2.36952e-07
7.80437e-05
2.27785e-07
7.80645e-05
2.1865e-07
7.80855e-05
2.09632e-07
7.81065e-05
2.0081e-07
7.81278e-05
1.92264e-07
7.81494e-05
1.84061e-07
7.81714e-05
1.76262e-07
7.81941e-05
1.68901e-07
7.82177e-05
1.61975e-07
7.82424e-05
1.55405e-07
7.82686e-05
1.49032e-07
7.82966e-05
1.42528e-07
7.83266e-05
1.35476e-07
7.83585e-05
1.27243e-07
1.17297e-07
7.83921e-05
7.98802e-05
2.99139e-08
7.98894e-05
9.13015e-08
7.99048e-05
1.45925e-07
7.99245e-05
1.89313e-07
7.99467e-05
2.21979e-07
7.99703e-05
2.44824e-07
7.99941e-05
2.59432e-07
8.00179e-05
2.67694e-07
8.00414e-05
2.71144e-07
8.00644e-05
2.70986e-07
8.00871e-05
2.6817e-07
8.01094e-05
2.63406e-07
8.01314e-05
2.57215e-07
8.01532e-05
2.49988e-07
8.01748e-05
2.42016e-07
8.01963e-05
2.33517e-07
8.02176e-05
2.24663e-07
8.0239e-05
2.15586e-07
8.02604e-05
2.06396e-07
8.02819e-05
1.97185e-07
8.03035e-05
1.88033e-07
8.03253e-05
1.7901e-07
8.03474e-05
1.70177e-07
8.03698e-05
1.61581e-07
8.03928e-05
1.53256e-07
8.04165e-05
1.45202e-07
8.04411e-05
1.37382e-07
8.04668e-05
1.29697e-07
8.04939e-05
1.21976e-07
8.05225e-05
1.13943e-07
8.05527e-05
1.05256e-07
8.05845e-05
9.54863e-08
8.42915e-08
8.06175e-05
8.21627e-05
2.76275e-08
8.21715e-05
8.25594e-08
8.2186e-05
1.31434e-07
8.22045e-05
1.70819e-07
8.22256e-05
2.00839e-07
8.22482e-05
2.22228e-07
8.22714e-05
2.36214e-07
8.22948e-05
2.44324e-07
8.2318e-05
2.47883e-07
8.23411e-05
2.47959e-07
8.23638e-05
2.45415e-07
8.23863e-05
2.40913e-07
8.24086e-05
2.34953e-07
8.24307e-05
2.27913e-07
8.24526e-05
2.2008e-07
8.24744e-05
2.11673e-07
8.24962e-05
2.02861e-07
8.2518e-05
1.93779e-07
8.25399e-05
1.84533e-07
8.25619e-05
1.75211e-07
8.2584e-05
1.65887e-07
8.26064e-05
1.5662e-07
8.26291e-05
1.47457e-07
8.26523e-05
1.38429e-07
8.2676e-05
1.29546e-07
8.27004e-05
1.20789e-07
8.27257e-05
1.12104e-07
8.2752e-05
1.03382e-07
8.27795e-05
9.44656e-08
8.28083e-05
8.51293e-08
8.28385e-05
7.51087e-08
8.28699e-05
6.41124e-08
5.19338e-08
8.29022e-05
8.45102e-05
2.51638e-08
8.45186e-05
7.42322e-08
8.45322e-05
1.17829e-07
8.45496e-05
1.53358e-07
8.45697e-05
1.80723e-07
8.45915e-05
2.00495e-07
8.46141e-05
2.13639e-07
8.4637e-05
2.21388e-07
8.466e-05
2.24869e-07
8.46829e-05
2.25024e-07
8.47057e-05
2.22629e-07
8.47283e-05
2.18294e-07
8.47508e-05
2.12491e-07
8.47731e-05
2.05582e-07
8.47954e-05
1.97844e-07
8.48176e-05
1.89493e-07
8.48397e-05
1.80695e-07
8.48619e-05
1.71581e-07
8.48842e-05
1.62253e-07
8.49066e-05
1.52796e-07
8.49292e-05
1.43275e-07
8.49521e-05
1.3374e-07
8.49753e-05
1.24227e-07
8.4999e-05
1.14751e-07
8.50232e-05
1.0531e-07
8.50482e-05
9.58727e-08
8.50739e-05
8.63759e-08
8.51006e-05
7.67184e-08
8.51283e-05
6.67603e-08
8.51571e-05
5.63247e-08
8.5187e-05
4.52148e-08
8.52178e-05
3.32334e-08
2.02645e-08
8.52495e-05
8.69247e-05
2.26513e-08
8.69326e-05
6.6301e-08
8.69454e-05
1.05013e-07
8.6962e-05
1.36829e-07
8.69811e-05
1.61541e-07
8.70021e-05
1.79577e-07
8.7024e-05
1.917e-07
8.70465e-05
1.989e-07
8.70692e-05
2.02134e-07
8.7092e-05
2.02223e-07
8.71148e-05
1.99859e-07
8.71375e-05
1.95598e-07
8.71601e-05
1.89878e-07
8.71826e-05
1.83042e-07
8.72051e-05
1.75356e-07
8.72276e-05
1.67026e-07
8.72501e-05
1.58213e-07
8.72726e-05
1.49043e-07
8.72953e-05
1.39614e-07
8.7318e-05
1.30003e-07
8.7341e-05
1.2027e-07
8.73643e-05
1.10457e-07
8.7388e-05
1.00587e-07
8.74121e-05
9.06699e-08
8.74367e-05
8.06919e-08
8.74619e-05
7.06168e-08
8.74879e-05
6.03821e-08
8.75147e-05
4.98975e-08
8.75425e-05
3.90469e-08
8.75711e-05
2.76942e-08
8.76006e-05
1.56971e-08
8.76309e-05
2.92416e-09
-1.06823e-08
8.76619e-05
8.9408e-05
2.01638e-08
8.94156e-05
5.87466e-08
8.94277e-05
9.29026e-08
8.94434e-05
1.21141e-07
8.94617e-05
1.43209e-07
8.94819e-05
1.59419e-07
8.95032e-05
1.7037e-07
8.95252e-05
1.76862e-07
8.95477e-05
1.79697e-07
8.95703e-05
1.79587e-07
8.9593e-05
1.77142e-07
8.96158e-05
1.72864e-07
8.96385e-05
1.67158e-07
8.96612e-05
1.6034e-07
8.96839e-05
1.52661e-07
8.97066e-05
1.44318e-07
8.97293e-05
1.35464e-07
8.97522e-05
1.26218e-07
8.97751e-05
1.16672e-07
8.97982e-05
1.06897e-07
8.98215e-05
9.69464e-08
8.98451e-05
8.68536e-08
8.98691e-05
7.66374e-08
8.98935e-05
6.62986e-08
8.99183e-05
5.58202e-08
8.99438e-05
4.51651e-08
8.99699e-05
3.42762e-08
8.99967e-05
2.30766e-08
9.00243e-05
1.14737e-08
9.00526e-05
-6.32558e-10
9.00816e-05
-1.33461e-08
9.01113e-05
-2.67497e-08
-4.08644e-08
9.01415e-05
9.19623e-05
1.77408e-08
9.19695e-05
5.15471e-08
9.1981e-05
8.14206e-08
9.19959e-05
1.06208e-07
9.20135e-05
1.2565e-07
9.20329e-05
1.39965e-07
9.20537e-05
1.49623e-07
9.20753e-05
1.55268e-07
9.20974e-05
1.57569e-07
9.21198e-05
1.57138e-07
9.21425e-05
1.54509e-07
9.21652e-05
1.50131e-07
9.2188e-05
1.44368e-07
9.22108e-05
1.37515e-07
9.22337e-05
1.29804e-07
9.22566e-05
1.21417e-07
9.22795e-05
1.12499e-07
9.23026e-05
1.0316e-07
9.23258e-05
9.34878e-08
9.23491e-05
8.35455e-08
9.23727e-05
7.33792e-08
9.23965e-05
6.3018e-08
9.24207e-05
5.2475e-08
9.24452e-05
4.17477e-08
9.24702e-05
3.08175e-08
9.24958e-05
1.96503e-08
9.25218e-05
8.19647e-09
9.25485e-05
-3.60613e-09
9.25758e-05
-1.58288e-08
9.26037e-05
-2.85452e-08
9.26322e-05
-4.18237e-08
9.26612e-05
-5.57188e-08
-7.02259e-08
9.26905e-05
9.45895e-05
1.5401e-08
9.45964e-05
4.46782e-08
9.46073e-05
7.04992e-08
9.46215e-05
9.19521e-08
9.46384e-05
1.08791e-07
9.46572e-05
1.21159e-07
9.46774e-05
1.29425e-07
9.46986e-05
1.34105e-07
9.47204e-05
1.35754e-07
9.47426e-05
1.34893e-07
9.47652e-05
1.31985e-07
9.47879e-05
1.27427e-07
9.48107e-05
1.21546e-07
9.48336e-05
1.14608e-07
9.48566e-05
1.06826e-07
9.48796e-05
9.83683e-08
9.49027e-05
8.93675e-08
9.4926e-05
7.99265e-08
9.49493e-05
7.01237e-08
9.49729e-05
6.0017e-08
9.49966e-05
4.96467e-08
9.50206e-05
3.90372e-08
9.50449e-05
2.81982e-08
9.50695e-05
1.71256e-08
9.50945e-05
5.80183e-09
9.512e-05
-5.80274e-09
9.51459e-05
-1.77286e-08
9.51723e-05
-3.00243e-08
9.51992e-05
-4.27426e-08
9.52266e-05
-5.59347e-08
9.52544e-05
-6.96449e-08
9.52826e-05
-8.39063e-08
-9.86976e-08
9.53111e-05
9.72918e-05
1.31505e-08
9.72983e-05
3.8114e-08
9.73088e-05
6.00772e-08
9.73224e-05
7.83025e-08
9.73386e-05
9.25637e-08
9.73568e-05
1.02948e-07
9.73765e-05
1.09742e-07
9.73973e-05
1.13356e-07
9.74188e-05
1.1425e-07
9.74408e-05
1.12861e-07
9.74632e-05
1.0959e-07
9.74859e-05
1.0478e-07
9.75087e-05
9.87229e-08
9.75316e-05
9.16554e-08
9.75547e-05
8.37697e-08
9.75778e-05
7.52184e-08
9.76011e-05
6.61219e-08
9.76244e-05
5.65733e-08
9.76479e-05
4.66432e-08
9.76715e-05
3.63833e-08
9.76954e-05
2.58287e-08
9.77194e-05
1.5e-08
9.77437e-05
3.90492e-09
9.77683e-05
-7.46097e-09
9.77932e-05
-1.91126e-08
9.78185e-05
-3.10743e-08
9.78441e-05
-4.33775e-08
9.78702e-05
-5.60582e-08
9.78966e-05
-6.91536e-08
9.79233e-05
-8.26976e-08
9.79504e-05
-9.67163e-08
9.79777e-05
-1.11227e-07
-1.26199e-07
9.80052e-05
0.000100071
1.09883e-08
0.000100078
3.1828e-08
0.000100088
5.00998e-08
0.000100101
6.51939e-08
0.000100116
7.69049e-08
0.000100134
8.52796e-08
0.000100153
9.0535e-08
0.000100174
9.30005e-08
0.000100195
9.30489e-08
0.000100217
9.10482e-08
0.000100239
8.73372e-08
0.000100261
8.22126e-08
0.000100284
7.59278e-08
0.000100307
6.86919e-08
0.00010033
6.06752e-08
0.000100353
5.20133e-08
0.000100377
4.28135e-08
0.0001004
3.31587e-08
0.000100424
2.31115e-08
0.000100447
1.27171e-08
0.000100471
2.00595e-09
0.000100495
-9.00435e-09
0.000100519
-2.03075e-08
0.000100544
-3.1907e-08
0.000100569
-4.38147e-08
0.000100593
-5.60493e-08
0.000100619
-6.86337e-08
0.000100644
-8.15931e-08
0.00010067
-9.4952e-08
0.000100696
-1.0873e-07
0.000100722
-1.22941e-07
0.000100749
-1.37591e-07
-1.52641e-07
0.000100775
0.00010293
8.90959e-09
0.000102936
2.57934e-08
0.000102946
4.05171e-08
0.000102958
5.25663e-08
0.000102974
6.17553e-08
0.000102991
6.81014e-08
0.000103009
7.17671e-08
0.000103029
7.3013e-08
0.00010305
7.21408e-08
0.000103072
6.94541e-08
0.000103094
6.52379e-08
0.000103117
5.97426e-08
0.000103139
5.31865e-08
0.000103162
4.57501e-08
0.000103185
3.75811e-08
0.000103209
2.87979e-08
0.000103232
1.94938e-08
0.000103255
9.74117e-09
0.000103279
-4.05943e-10
0.000103302
-1.09085e-08
0.000103326
-2.17406e-08
0.00010335
-3.28872e-08
0.000103374
-4.43429e-08
0.000103398
-5.61099e-08
0.000103423
-6.81968e-08
0.000103447
-8.06166e-08
0.000103472
-9.33851e-08
0.000103497
-1.06518e-07
0.000103522
-1.2003e-07
0.000103547
-1.3393e-07
0.000103572
-1.48222e-07
0.000103598
-1.62903e-07
-1.7793e-07
0.000103623
0.000105871
6.90772e-09
0.000105877
1.99845e-08
0.000105886
3.12836e-08
0.000105898
4.03641e-08
0.000105913
4.70584e-08
0.000105929
5.13631e-08
0.000105948
5.33973e-08
0.000105967
5.33655e-08
0.000105988
5.15086e-08
0.000106009
4.80738e-08
0.000106031
4.32971e-08
0.000106054
3.73845e-08
0.000106076
3.05214e-08
0.000106099
2.28595e-08
0.000106122
1.45247e-08
0.000106146
5.61626e-09
0.000106169
-3.78598e-09
0.000106192
-1.36211e-08
0.000106216
-2.38434e-08
0.000106239
-3.44203e-08
0.000106263
-4.53303e-08
0.000106286
-5.65607e-08
0.00010631
-6.81067e-08
0.000106334
-7.99694e-08
0.000106358
-9.21541e-08
0.000106382
-1.04669e-07
0.000106406
-1.17524e-07
0.00010643
-1.30727e-07
0.000106455
-1.44283e-07
0.000106479
-1.58196e-07
0.000106503
-1.72459e-07
0.000106527
-1.87066e-07
-2.0197e-07
0.000106551
0.000108895
4.97523e-09
0.000108901
1.43766e-08
0.00010891
2.23579e-08
0.000108922
2.85366e-08
0.000108936
3.27614e-08
0.000108952
3.50157e-08
0.00010897
3.53843e-08
0.00010899
3.40269e-08
0.00010901
3.11319e-08
0.000109031
2.68973e-08
0.000109053
2.15143e-08
0.000109075
1.51459e-08
0.000109098
7.94973e-09
0.000109121
4.48516e-11
0.000109144
-8.46136e-09
0.000109167
-1.74911e-08
0.00010919
-2.69779e-08
0.000109213
-3.68723e-08
0.000109236
-4.71375e-08
0.00010926
-5.77474e-08
0.000109283
-6.86849e-08
0.000109307
-7.99398e-08
0.00010933
-9.15079e-08
0.000109353
-1.03389e-07
0.000109377
-1.15586e-07
0.0001094
-1.28104e-07
0.000109424
-1.40946e-07
0.000109447
-1.54114e-07
0.00010947
-1.67609e-07
0.000109494
-1.81426e-07
0.000109517
-1.95555e-07
0.00010954
-2.09984e-07
-2.24664e-07
0.000109562
0.000112006
3.10443e-09
0.000112012
8.94581e-09
0.00011202
1.37007e-08
0.000112032
1.70336e-08
0.000112046
1.881e-08
0.000112062
1.9006e-08
0.00011208
1.76812e-08
0.000112099
1.49597e-08
0.000112119
1.09823e-08
0.00011214
5.90564e-09
0.000112161
-1.11651e-10
0.000112184
-6.96852e-09
0.000112206
-1.45159e-08
0.000112229
-2.26695e-08
0.000112252
-3.13466e-08
0.000112275
-4.04851e-08
0.000112298
-5.00347e-08
0.000112321
-5.99575e-08
0.000112344
-7.02258e-08
0.000112367
-8.08201e-08
0.00011239
-9.17278e-08
0.000112413
-1.02942e-07
0.000112436
-1.14458e-07
0.000112459
-1.26276e-07
0.000112482
-1.38398e-07
0.000112504
-1.50823e-07
0.000112527
-1.63552e-07
0.000112549
-1.76583e-07
0.000112572
-1.8991e-07
0.000112594
-2.03525e-07
0.000112616
-2.17414e-07
0.000112637
-2.31562e-07
-2.45918e-07
0.000112659
0.000115206
1.28928e-09
0.000115212
3.67335e-09
0.00011522
5.28118e-09
0.000115231
5.81573e-09
0.000115245
5.16012e-09
0.000115261
3.28972e-09
0.000115278
2.41358e-10
0.000115297
-3.87587e-09
0.000115317
-8.97057e-09
0.000115338
-1.49207e-08
0.000115359
-2.16162e-08
0.000115381
-2.89648e-08
0.000115403
-3.6873e-08
0.000115426
-4.52743e-08
0.000115449
-5.41106e-08
0.000115472
-6.3337e-08
0.000115495
-7.2919e-08
0.000115517
-8.28308e-08
0.00011554
-9.3054e-08
0.000115563
-1.03576e-07
0.000115586
-1.1439e-07
0.000115608
-1.2549e-07
0.000115631
-1.36876e-07
0.000115653
-1.48545e-07
0.000115675
-1.60498e-07
0.000115697
-1.72734e-07
0.000115719
-1.85249e-07
0.00011574
-1.98038e-07
0.000115761
-2.11092e-07
0.000115782
-2.244e-07
0.000115803
-2.37945e-07
0.000115823
-2.5171e-07
-2.65644e-07
0.000115843
0.000118498
-4.79941e-10
0.000118503
-1.46664e-09
0.000118511
-2.94405e-09
0.000118522
-5.17563e-09
0.000118535
-8.25649e-09
0.000118551
-1.22038e-08
0.000118568
-1.69855e-08
0.000118587
-2.25314e-08
0.000118607
-2.87682e-08
0.000118627
-3.56145e-08
0.000118649
-4.29945e-08
0.000118671
-5.08473e-08
0.000118693
-5.91148e-08
0.000118715
-6.77531e-08
0.000118738
-7.67278e-08
0.000118761
-8.60128e-08
0.000118783
-9.55889e-08
0.000118806
-1.05443e-07
0.000118828
-1.15566e-07
0.000118851
-1.25954e-07
0.000118873
-1.36603e-07
0.000118895
-1.47513e-07
0.000118917
-1.58683e-07
0.000118938
-1.70114e-07
0.00011896
-1.81804e-07
0.000118981
-1.93751e-07
0.000119001
-2.0595e-07
0.000119022
-2.18393e-07
0.000119042
-2.31069e-07
0.000119061
-2.43965e-07
0.00011908
-2.57062e-07
0.000119099
-2.70342e-07
-2.83754e-07
0.000119117
0.000121883
-2.19482e-09
0.000121888
-6.46301e-09
0.000121896
-1.09656e-08
0.000121907
-1.59415e-08
0.00012192
-2.14567e-08
0.000121935
-2.75092e-08
0.000121952
-3.40657e-08
0.000121971
-4.10733e-08
0.000121991
-4.84811e-08
0.000122011
-5.62418e-08
0.000122033
-6.43147e-08
0.000122054
-7.26698e-08
0.000122077
-8.12815e-08
0.000122099
-9.01325e-08
0.000122121
-9.92118e-08
0.000122144
-1.08513e-07
0.000122166
-1.18032e-07
0.000122189
-1.2777e-07
0.000122211
-1.37727e-07
0.000122233
-1.47908e-07
0.000122255
-1.58313e-07
0.000122276
-1.68948e-07
0.000122297
-1.79813e-07
0.000122318
-1.90911e-07
0.000122338
-2.0224e-07
0.000122358
-2.13796e-07
0.000122378
-2.25575e-07
0.000122397
-2.37568e-07
0.000122416
-2.49761e-07
0.000122434
-2.62141e-07
0.000122452
-2.74688e-07
0.000122469
-2.87384e-07
-3.00178e-07
0.000122485
0.000125365
-3.90261e-09
0.00012537
-1.13989e-08
0.000125378
-1.88971e-08
0.000125389
-2.6607e-08
0.000125402
-3.45553e-08
0.000125417
-4.27162e-08
0.000125434
-5.10538e-08
0.000125452
-5.95301e-08
0.000125472
-6.81163e-08
0.000125493
-7.6795e-08
0.000125514
-8.55578e-08
0.000125536
-9.44051e-08
0.000125558
-1.03342e-07
0.00012558
-1.12379e-07
0.000125602
-1.21526e-07
0.000125625
-1.30798e-07
0.000125647
-1.40207e-07
0.000125669
-1.49768e-07
0.00012569
-1.59491e-07
0.000125712
-1.69388e-07
0.000125733
-1.79469e-07
0.000125754
-1.89741e-07
0.000125774
-2.00209e-07
0.000125794
-2.10877e-07
0.000125814
-2.21744e-07
0.000125833
-2.32807e-07
0.000125851
-2.44062e-07
0.000125869
-2.55498e-07
0.000125887
-2.67104e-07
0.000125903
-2.78863e-07
0.000125919
-2.90757e-07
0.000125935
-3.02766e-07
-3.14845e-07
0.000125949
0.000128947
-5.4509e-09
0.000128951
-1.60497e-08
0.000128959
-2.65124e-08
0.000128969
-3.70249e-08
0.000128982
-4.75234e-08
0.000128997
-5.79111e-08
0.000129015
-6.81236e-08
0.000129033
-7.81273e-08
0.000129053
-8.79177e-08
0.000129074
-9.75124e-08
0.000129095
-1.06941e-07
0.000129117
-1.16242e-07
0.000129139
-1.25452e-07
0.000129161
-1.34613e-07
0.000129183
-1.4376e-07
0.000129206
-1.52929e-07
0.000129228
-1.62149e-07
0.000129249
-1.71448e-07
0.000129271
-1.80849e-07
0.000129292
-1.90372e-07
0.000129312
-2.00033e-07
0.000129332
-2.09844e-07
0.000129352
-2.19814e-07
0.000129371
-2.29949e-07
0.000129389
-2.40249e-07
0.000129407
-2.50714e-07
0.000129425
-2.61338e-07
0.000129441
-2.72112e-07
0.000129457
-2.83025e-07
0.000129472
-2.94061e-07
0.000129487
-3.05202e-07
0.0001295
-3.16431e-07
-3.27701e-07
0.000129513
0.000132631
-7.30285e-09
0.000132636
-2.09768e-08
0.000132644
-3.43223e-08
0.000132654
-4.75213e-08
0.000132667
-6.04662e-08
0.000132682
-7.30145e-08
0.000132699
-8.50754e-08
0.000132718
-9.66073e-08
0.000132737
-1.07615e-07
0.000132758
-1.18141e-07
0.000132779
-1.28244e-07
0.000132801
-1.37995e-07
0.000132823
-1.47465e-07
0.000132845
-1.56722e-07
0.000132867
-1.6583e-07
0.000132889
-1.74845e-07
0.000132911
-1.83815e-07
0.000132932
-1.92782e-07
0.000132953
-2.01783e-07
0.000132974
-2.10847e-07
0.000132993
-2.19996e-07
0.000133013
-2.2925e-07
0.000133032
-2.38622e-07
0.00013305
-2.48119e-07
0.000133067
-2.57747e-07
0.000133084
-2.67506e-07
0.0001331
-2.77392e-07
0.000133116
-2.87397e-07
0.00013313
-2.9751e-07
0.000133144
-3.07718e-07
0.000133156
-3.18002e-07
0.000133168
-3.28347e-07
-3.3871e-07
0.000133179
0.000136419
-8.05676e-09
0.000136423
-2.46691e-08
0.00013643
-4.12375e-08
0.00013644
-5.77437e-08
0.000136453
-7.36985e-08
0.000136469
-8.87826e-08
0.000136487
-1.02879e-07
0.000136506
-1.15983e-07
0.000136527
-1.28161e-07
0.000136548
-1.39515e-07
0.00013657
-1.50161e-07
0.000136592
-1.6022e-07
0.000136614
-1.69804e-07
0.000136637
-1.79017e-07
0.000136659
-1.87949e-07
0.000136681
-1.96679e-07
0.000136702
-2.05273e-07
0.000136723
-2.13788e-07
0.000136744
-2.22271e-07
0.000136764
-2.3076e-07
0.000136783
-2.39286e-07
0.000136801
-2.47871e-07
0.000136819
-2.56533e-07
0.000136837
-2.65284e-07
0.000136853
-2.74131e-07
0.000136869
-2.83076e-07
0.000136883
-2.92117e-07
0.000136897
-3.01248e-07
0.00013691
-3.1046e-07
0.000136922
-3.19741e-07
0.000136933
-3.29074e-07
0.000136943
-3.38446e-07
-3.47817e-07
0.000136952
0.000140319
-1.13207e-08
0.000140325
-3.02109e-08
0.000140332
-4.89348e-08
0.000140342
-6.77135e-08
0.000140355
-8.60938e-08
0.000140369
-1.03537e-07
0.000140386
-1.19733e-07
0.000140405
-1.34582e-07
0.000140425
-1.48127e-07
0.000140446
-1.6049e-07
0.000140467
-1.71825e-07
0.00014049
-1.82295e-07
0.000140512
-1.92057e-07
0.000140534
-2.01251e-07
0.000140556
-2.10001e-07
0.000140578
-2.18413e-07
0.000140599
-2.26578e-07
0.00014062
-2.3457e-07
0.00014064
-2.42451e-07
0.00014066
-2.50271e-07
0.000140678
-2.58069e-07
0.000140696
-2.65877e-07
0.000140714
-2.73718e-07
0.00014073
-2.81608e-07
0.000140745
-2.89558e-07
0.00014076
-2.97573e-07
0.000140773
-3.05654e-07
0.000140786
-3.13797e-07
0.000140797
-3.21995e-07
0.000140808
-3.30238e-07
0.000140817
-3.38512e-07
0.000140826
-3.46804e-07
-3.55079e-07
0.000140833
0.000144322
-8.32878e-09
0.000144322
-3.08451e-08
0.000144328
-5.47632e-08
0.000144339
-7.88043e-08
0.000144354
-1.01322e-07
0.000144373
-1.21719e-07
0.000144393
-1.39958e-07
0.000144414
-1.56176e-07
0.000144437
-1.7059e-07
0.00014446
-1.83443e-07
0.000144483
-1.94978e-07
0.000144506
-2.05427e-07
0.000144529
-2.14992e-07
0.000144552
-2.23849e-07
0.000144574
-2.3215e-07
0.000144595
-2.40019e-07
0.000144616
-2.47562e-07
0.000144637
-2.54864e-07
0.000144656
-2.61996e-07
0.000144675
-2.69015e-07
0.000144693
-2.75965e-07
0.00014471
-2.82882e-07
0.000144726
-2.89794e-07
0.000144741
-2.96719e-07
0.000144755
-3.03672e-07
0.000144768
-3.1066e-07
0.00014478
-3.17686e-07
0.000144791
-3.24749e-07
0.000144801
-3.31844e-07
0.00014481
-3.38964e-07
0.000144817
-3.46097e-07
0.000144824
-3.53232e-07
-3.6034e-07
0.000144829
0.000148457
-1.70742e-08
0.000148463
-3.73975e-08
0.000148468
-5.99754e-08
0.000148475
-8.5296e-08
0.000148485
-1.10921e-07
0.000148498
-1.34894e-07
0.000148514
-1.56297e-07
0.000148533
-1.75018e-07
0.000148554
-1.91287e-07
0.000148576
-2.0542e-07
0.000148598
-2.17748e-07
0.000148622
-2.2859e-07
0.000148645
-2.38227e-07
0.000148668
-2.46902e-07
0.00014869
-2.54816e-07
0.000148713
-2.62138e-07
0.000148734
-2.69006e-07
0.000148755
-2.75529e-07
0.000148775
-2.81799e-07
0.000148793
-2.87887e-07
0.000148811
-2.93849e-07
0.000148828
-2.99731e-07
0.000148844
-3.05565e-07
0.000148859
-3.11378e-07
0.000148872
-3.17188e-07
0.000148884
-3.23005e-07
0.000148896
-3.28838e-07
0.000148905
-3.34686e-07
0.000148914
-3.4055e-07
0.000148922
-3.46422e-07
0.000148928
-3.52295e-07
0.000148933
-3.5816e-07
-3.63993e-07
0.000148936
0.000152671
1.03273e-09
0.000152666
-3.212e-08
0.000152673
-6.7655e-08
0.000152691
-1.02774e-07
0.000152713
-1.33283e-07
0.000152738
-1.59461e-07
0.000152763
-1.81757e-07
0.000152789
-2.00711e-07
0.000152815
-2.16834e-07
0.00015284
-2.30585e-07
0.000152864
-2.42391e-07
0.000152888
-2.52621e-07
0.000152912
-2.6158e-07
0.000152934
-2.69523e-07
0.000152956
-2.76656e-07
0.000152977
-2.83152e-07
0.000152997
-2.89148e-07
0.000153017
-2.94756e-07
0.000153035
-3.00069e-07
0.000153052
-3.0516e-07
0.000153068
-3.10086e-07
0.000153084
-3.14894e-07
0.000153098
-3.19621e-07
0.00015311
-3.24294e-07
0.000153122
-3.28932e-07
0.000153133
-3.33552e-07
0.000153142
-3.3816e-07
0.00015315
-3.42763e-07
0.000153157
-3.4736e-07
0.000153163
-3.51949e-07
0.000153167
-3.56524e-07
0.00015317
-3.61079e-07
-3.65593e-07
0.000153171
0.000157077
-2.43641e-08
0.000157076
-3.10553e-08
0.000157063
-5.46652e-08
0.000157054
-9.40696e-08
0.000157055
-1.33966e-07
0.000157065
-1.69404e-07
0.000157081
-1.98271e-07
0.000157102
-2.2167e-07
0.000157126
-2.40703e-07
0.000157152
-2.56195e-07
0.000157178
-2.68873e-07
0.000157205
-2.79342e-07
0.000157231
-2.88084e-07
0.000157257
-2.95483e-07
0.000157283
-3.01841e-07
0.000157307
-3.07394e-07
0.00015733
-3.12328e-07
0.000157352
-3.16787e-07
0.000157373
-3.20886e-07
0.000157392
-3.24714e-07
0.000157411
-3.28341e-07
0.000157428
-3.3182e-07
0.000157443
-3.35193e-07
0.000157457
-3.38491e-07
0.00015747
-3.4174e-07
0.000157482
-3.44955e-07
0.000157492
-3.48148e-07
0.0001575
-3.51326e-07
0.000157507
-3.54492e-07
0.000157513
-3.57648e-07
0.000157517
-3.6079e-07
0.00015752
-3.63917e-07
-3.6701e-07
0.000157521
0.00016147
4.43568e-08
0.000161456
-1.73052e-08
0.000161492
-9.02986e-08
0.000161534
-1.36349e-07
0.000161575
-1.75355e-07
0.000161611
-2.05522e-07
0.000161643
-2.30234e-07
0.000161672
-2.50697e-07
0.000161699
-2.67457e-07
0.000161724
-2.81222e-07
0.000161748
-2.9261e-07
0.000161771
-3.02088e-07
0.000161793
-3.10024e-07
0.000161814
-3.16721e-07
0.000161834
-3.22421e-07
0.000161854
-3.27319e-07
0.000161874
-3.31572e-07
0.000161892
-3.35306e-07
0.00016191
-3.38624e-07
0.000161927
-3.41609e-07
0.000161943
-3.44327e-07
0.000161958
-3.46834e-07
0.000161972
-3.49172e-07
0.000161985
-3.51377e-07
0.000161996
-3.53476e-07
0.000162007
-3.5549e-07
0.000162016
-3.57437e-07
0.000162024
-3.59327e-07
0.000162031
-3.61168e-07
0.000162036
-3.62964e-07
0.00016204
-3.64716e-07
0.000162043
-3.66423e-07
-3.68077e-07
0.000162044
0.00016619
7.62085e-09
0.000166126
4.69556e-08
0.000166045
-9.60545e-09
0.000165989
-7.96778e-08
0.000165975
-1.62069e-07
0.000165988
-2.18041e-07
0.000166016
-2.57858e-07
0.000166051
-2.86543e-07
0.000166092
-3.07827e-07
0.000166134
-3.2389e-07
0.000166178
-3.36117e-07
0.000166221
-3.45503e-07
0.000166264
-3.52759e-07
0.000166306
-3.58398e-07
0.000166346
-3.62795e-07
0.000166385
-3.66228e-07
0.000166422
-3.68907e-07
0.000166458
-3.70992e-07
0.000166492
-3.72606e-07
0.000166524
-3.73848e-07
0.000166555
-3.74791e-07