/*--------------------------------*- C++ -*----------------------------------*\
  =========                 |
  \\      /  F ield         | OpenFOAM: The Open Source CFD Toolbox
   \\    /   O peration     | Website:  https://openfoam.org
    \\  /    A nd           | Version:  10
     \\/     M anipulation  |
\*---------------------------------------------------------------------------*/
FoamFile
{
    format      ascii;
    class       volScalarField;
    location    "1400";
    object      epsilon;
}
// * * * * * * * * * * * * * * * * * * * * * * * * * * * * * * * * * * * * * //

dimensions      [0 2 -3 0 0 0 0];

internalField   nonuniform List<scalar> 
6820
(
23.348
22.8004
22.2986
21.7956
21.2906
20.7982
20.3323
19.9019
19.5116
19.1626
18.854
18.5837
18.3491
18.147
17.9746
17.8289
17.7072
17.607
17.526
17.4623
17.4138
17.3789
17.3561
17.3441
17.3416
17.348
17.3611
17.3861
17.39
17.4908
17.5163
17.06
17.4613
5.24755
7.40663
8.54825
9.16396
9.55029
9.84174
10.0963
10.3396
10.5824
10.8286
11.0794
11.3347
11.5939
11.8564
12.1214
12.3882
12.6563
12.9251
13.1942
13.4633
13.7321
14.0007
14.2691
14.5377
14.8075
15.08
15.357
15.6453
15.9463
16.2918
16.7213
17.1632
17.1816
3.71892
4.27986
4.80508
5.21584
5.52697
5.76868
5.96492
6.13208
6.281
6.41877
6.55005
6.67794
6.80443
6.9308
7.05786
7.18607
7.31567
7.44677
7.57938
7.71349
7.84904
7.98603
8.12448
8.26454
8.40647
8.55094
8.69856
8.8521
9.01422
9.18615
9.39993
9.68994
9.81883
3.5376
3.62335
3.77161
3.93765
4.09562
4.23623
4.3585
4.46463
4.55764
4.64043
4.71547
4.78476
4.84989
4.91209
4.97232
5.0313
5.08958
5.14755
5.20554
5.26377
5.32241
5.38162
5.44154
5.50232
5.56414
5.62731
5.6922
5.75969
5.83114
5.90661
5.99279
6.11015
6.2022
3.52015
3.50151
3.51115
3.54399
3.59071
3.64322
3.69624
3.74693
3.79406
3.83736
3.877
3.9134
3.94703
3.97838
4.0079
4.03597
4.06294
4.0891
4.11469
4.13993
4.16498
4.19
4.21512
4.24049
4.26626
4.29259
4.31973
4.34804
4.37808
4.41021
4.44553
4.48959
4.53647
3.51931
3.48209
3.45346
3.43537
3.42736
3.42746
3.43328
3.44268
3.45405
3.46625
3.47859
3.49064
3.5022
3.51318
3.52357
3.53343
3.54282
3.55182
3.56053
3.56902
3.57738
3.58569
3.59403
3.60248
3.61112
3.62006
3.62943
3.63939
3.65019
3.66207
3.6753
3.69098
3.70926
3.51943
3.47964
3.44271
3.40975
3.38151
3.35815
3.33935
3.32446
3.31276
3.30356
3.29625
3.29035
3.28549
3.28139
3.27786
3.27474
3.27195
3.26943
3.26714
3.26505
3.26317
3.26149
3.26004
3.25882
3.25786
3.25722
3.25694
3.25709
3.25779
3.25913
3.26124
3.26431
3.26854
3.51947
3.47942
3.44105
3.40466
3.37057
3.33904
3.31021
3.28405
3.26042
3.23912
3.21989
3.20245
3.18658
3.17205
3.15866
3.14625
3.1347
3.1239
3.11375
3.1042
3.09517
3.08664
3.07856
3.07092
3.06371
3.05692
3.05057
3.04467
3.03926
3.03438
3.03007
3.02637
3.02333
3.51948
3.47941
3.44084
3.4038
3.36834
3.33453
3.30243
3.27209
3.24351
3.21666
3.19148
3.16788
3.14574
3.12496
3.10543
3.08703
3.06968
3.05327
3.03772
3.02297
3.00895
2.99561
2.9829
2.97078
2.95922
2.9482
2.9377
2.92772
2.91826
2.90932
2.90092
2.89305
2.88573
3.51948
3.4794
3.44081
3.40367
3.36795
3.3336
3.30063
3.26901
3.23875
3.20982
3.18221
3.15587
3.13076
3.10684
3.08405
3.06233
3.04161
3.02185
3.00299
2.98496
2.96773
2.95124
2.93545
2.92032
2.90583
2.89194
2.87863
2.86588
2.85368
2.84203
2.83092
2.82033
2.81025
3.51948
3.4794
3.44081
3.40365
3.36787
3.33342
3.30025
3.26831
3.23757
3.20799
3.17954
3.15219
3.1259
3.10065
3.0764
3.05311
3.03074
3.00925
2.98861
2.96878
2.94972
2.93139
2.91377
2.89682
2.88051
2.86483
2.84973
2.83522
2.82126
2.80785
2.79499
2.78264
2.7708
3.51948
3.4794
3.4408
3.40364
3.36785
3.33338
3.30017
3.26815
3.23729
3.20753
3.17884
3.15117
3.12449
3.09876
3.07395
3.05003
3.02696
3.00472
2.98326
2.96257
2.9426
2.92335
2.90476
2.88684
2.86953
2.85284
2.83673
2.82119
2.8062
2.79175
2.77783
2.76441
2.7515
3.51948
3.4794
3.44079
3.40363
3.36784
3.33336
3.30014
3.26811
3.23722
3.20742
3.17866
3.1509
3.12411
3.09823
3.07324
3.0491
3.02577
3.00324
2.98146
2.96041
2.94006
2.92039
2.90137
2.88299
2.8652
2.84801
2.83139
2.81532
2.79979
2.78478
2.77028
2.75628
2.74276
3.51948
3.47939
3.44079
3.40362
3.36783
3.33335
3.30012
3.26808
3.23718
3.20737
3.1786
3.15082
3.12399
3.09807
3.07303
3.04882
3.02542
3.00278
2.98089
2.95972
2.93923
2.9194
2.90021
2.88163
2.86365
2.84624
2.82939
2.81308
2.7973
2.78202
2.76724
2.75294
2.7391
3.51948
3.47939
3.44079
3.40362
3.36782
3.33334
3.3001
3.26806
3.23716
3.20734
3.17856
3.15078
3.12394
3.09801
3.07295
3.04872
3.0253
3.00264
2.98071
2.95949
2.93896
2.91908
2.89982
2.88118
2.86313
2.84564
2.8287
2.81229
2.7964
2.781
2.76609
2.75165
2.73767
3.51947
3.47939
3.44078
3.40361
3.36781
3.33333
3.30009
3.26804
3.23714
3.20732
3.17854
3.15075
3.12391
3.09797
3.07291
3.04867
3.02524
3.00257
2.98064
2.95941
2.93886
2.91896
2.89969
2.88103
2.86295
2.84543
2.82846
2.81202
2.79608
2.78064
2.76567
2.75117
2.73712
3.51947
3.47939
3.44078
3.40361
3.36781
3.33332
3.30008
3.26803
3.23712
3.2073
3.17851
3.15072
3.12388
3.09794
3.07287
3.04864
3.0252
3.00253
2.98059
2.95936
2.93881
2.91891
2.89963
2.88096
2.86288
2.84535
2.82837
2.81191
2.79595
2.78049
2.7655
2.75097
2.73688
3.51947
3.47939
3.44078
3.4036
3.3678
3.33331
3.30007
3.26802
3.23711
3.20728
3.17849
3.1507
3.12385
3.09791
3.07285
3.04861
3.02517
3.0025
2.98056
2.95933
2.93877
2.91887
2.89959
2.88092
2.86283
2.8453
2.82831
2.81185
2.79589
2.78041
2.76541
2.75086
2.73674
3.51947
3.47939
3.44078
3.4036
3.3678
3.3333
3.30006
3.26801
3.23709
3.20727
3.17848
3.15068
3.12383
3.09789
3.07282
3.04858
3.02514
3.00247
2.98053
2.9593
2.93874
2.91884
2.89956
2.88089
2.86279
2.84526
2.82827
2.8118
2.79583
2.78035
2.76533
2.75077
2.73664
3.51947
3.47939
3.44077
3.4036
3.36779
3.3333
3.30005
3.268
3.23708
3.20725
3.17846
3.15066
3.12381
3.09787
3.0728
3.04856
3.02512
3.00244
2.9805
2.95927
2.93871
2.91881
2.89953
2.88086
2.86276
2.84523
2.82823
2.81176
2.79578
2.78029
2.76527
2.75069
2.73655
3.51947
3.47939
3.44077
3.40359
3.36779
3.33329
3.30005
3.26799
3.23707
3.20724
3.17845
3.15065
3.1238
3.09785
3.07278
3.04854
3.0251
3.00242
2.98048
2.95925
2.93869
2.91878
2.8995
2.88083
2.86273
2.84519
2.82819
2.81171
2.79573
2.78023
2.7652
2.75062
2.73646
3.51947
3.47939
3.44077
3.40359
3.36779
3.33329
3.30004
3.26798
3.23707
3.20723
3.17844
3.15064
3.12378
3.09784
3.07276
3.04852
3.02508
3.0024
2.98046
2.95923
2.93867
2.91876
2.89948
2.8808
2.8627
2.84516
2.82816
2.81167
2.79568
2.78018
2.76514
2.75054
2.73638
3.51947
3.47938
3.44077
3.40359
3.36778
3.33329
3.30004
3.26798
3.23706
3.20722
3.17843
3.15063
3.12377
3.09783
3.07275
3.04851
3.02506
3.00239
2.98044
2.95921
2.93865
2.91874
2.89945
2.88077
2.86267
2.84513
2.82812
2.81163
2.79564
2.78013
2.76508
2.75048
2.7363
3.51947
3.47938
3.44077
3.40359
3.36778
3.33328
3.30003
3.26797
3.23705
3.20722
3.17842
3.15062
3.12376
3.09782
3.07274
3.0485
3.02505
3.00237
2.98043
2.95919
2.93863
2.91872
2.89943
2.88075
2.86264
2.8451
2.82809
2.81159
2.79559
2.78008
2.76502
2.75041
2.73623
3.51947
3.47938
3.44077
3.40359
3.36778
3.33328
3.30003
3.26797
3.23705
3.20721
3.17842
3.15061
3.12375
3.09781
3.07273
3.04849
3.02504
3.00236
2.98041
2.95917
2.93861
2.9187
2.89941
2.88073
2.86262
2.84507
2.82805
2.81155
2.79555
2.78003
2.76496
2.75035
2.73616
3.51947
3.47938
3.44077
3.40359
3.36778
3.33328
3.30003
3.26797
3.23704
3.20721
3.17841
3.15061
3.12375
3.0978
3.07272
3.04848
3.02503
3.00235
2.9804
2.95916
2.9386
2.91868
2.89939
2.88071
2.8626
2.84504
2.82802
2.81152
2.79551
2.77998
2.76491
2.75029
2.73609
3.51947
3.47938
3.44077
3.40359
3.36778
3.33328
3.30003
3.26797
3.23704
3.20721
3.17841
3.1506
3.12374
3.0978
3.07272
3.04847
3.02502
3.00234
2.98039
2.95915
2.93859
2.91867
2.89938
2.88069
2.86258
2.84502
2.82799
2.81149
2.79547
2.77994
2.76486
2.75023
2.73603
3.51947
3.47938
3.44077
3.40359
3.36778
3.33328
3.30002
3.26796
3.23704
3.2072
3.1784
3.1506
3.12374
3.09779
3.07271
3.04847
3.02502
3.00234
2.98039
2.95914
2.93858
2.91866
2.89937
2.88067
2.86256
2.845
2.82797
2.81146
2.79544
2.7799
2.76482
2.75019
2.73597
3.51947
3.47938
3.44077
3.40359
3.36778
3.33328
3.30002
3.26796
3.23704
3.2072
3.1784
3.1506
3.12374
3.09779
3.07271
3.04846
3.02502
3.00233
2.98038
2.95914
2.93857
2.91865
2.89936
2.88066
2.86254
2.84498
2.82795
2.81143
2.79541
2.77987
2.76478
2.75014
2.73593
3.51947
3.47938
3.44077
3.40359
3.36778
3.33328
3.30002
3.26796
3.23704
3.2072
3.1784
3.1506
3.12374
3.09779
3.07271
3.04847
3.02502
3.00233
2.98038
2.95914
2.93857
2.91865
2.89935
2.88065
2.86253
2.84497
2.82794
2.81142
2.79539
2.77985
2.76476
2.75011
2.73589
3.51947
3.47938
3.44077
3.40359
3.36778
3.33328
3.30002
3.26796
3.23704
3.2072
3.17841
3.1506
3.12374
3.09779
3.07271
3.04847
3.02502
3.00233
2.98038
2.95914
2.93857
2.91865
2.89935
2.88065
2.86253
2.84497
2.82793
2.81141
2.79539
2.77984
2.76475
2.7501
2.73588
3.51947
3.47938
3.44077
3.40359
3.36778
3.33328
3.30002
3.26796
3.23704
3.20721
3.17841
3.15061
3.12375
3.0978
3.07273
3.04848
3.02504
3.00236
2.98041
2.95917
2.9386
2.91869
2.8994
2.88071
2.86259
2.84503
2.82801
2.81149
2.79548
2.77994
2.76486
2.75022
2.73601
3.51947
3.47938
3.44077
3.40359
3.36778
3.33328
3.30003
3.26797
3.23705
3.20721
3.17842
3.15062
3.12377
3.09784
3.07277
3.04854
3.02511
3.00245
2.98052
2.95931
2.93877
2.91889
2.89963
2.88098
2.86291
2.84539
2.82842
2.81196
2.796
2.78052
2.7655
2.75093
2.73678
3.51947
3.47938
3.44077
3.40359
3.36778
3.33329
3.30005
3.26801
3.23712
3.20732
3.17857
3.15082
3.12404
3.09818
3.0732
3.04906
3.02575
3.00321
2.98142
2.96035
2.93998
2.92027
2.9012
2.88275
2.86489
2.84759
2.83085
2.81463
2.79891
2.78369
2.76893
2.75463
2.74076
3.51947
3.47938
3.44078
3.40362
3.36785
3.33343
3.30029
3.26839
3.23768
3.20811
3.17965
3.15224
3.12585
3.10044
3.07597
3.0524
3.0297
3.00783
2.98675
2.96643
2.94685
2.92797
2.90975
2.89218
2.87523
2.85886
2.84306
2.82779
2.81305
2.7988
2.78502
2.7717
2.75882
3.51947
3.47942
3.44096
3.40413
3.36894
3.33534
3.30327
3.27269
3.24355
3.21577
3.18932
3.16412
3.14013
3.11729
3.09553
3.07481
3.05507
3.03624
3.01829
3.00115
2.98478
2.96914
2.95418
2.93987
2.92615
2.91301
2.9004
2.88829
2.87666
2.86548
2.85472
2.84436
2.83438
3.5195
3.48076
3.44539
3.41322
3.38399
3.3575
3.33357
3.31204
3.29272
3.27541
3.25994
3.24612
3.23378
3.22275
3.21288
3.20404
3.19611
3.18897
3.18253
3.17669
3.17138
3.16654
3.16209
3.158
3.1542
3.15066
3.14735
3.14422
3.14126
3.13844
3.13574
3.13313
3.13062
3.52507
3.51485
3.52111
3.53666
3.5586
3.58541
3.61604
3.64959
3.68525
3.72233
3.76027
3.79865
3.83709
3.87532
3.9131
3.95027
3.9867
4.02227
4.05692
4.0906
4.12327
4.15491
4.18551
4.21508
4.2436
4.27111
4.29761
4.32313
4.34769
4.37131
4.39402
4.41585
4.43683
3.84199
4.38774
4.87728
5.3422
5.79413
6.23452
6.66134
7.07321
7.47013
7.85269
8.22162
8.57769
8.92166
9.25425
9.5761
9.88778
10.1898
10.4826
10.7665
11.0419
11.3092
11.5686
11.8204
12.0648
12.3021
12.5325
12.7563
12.9737
13.1848
13.3898
13.589
13.7826
13.9708
30.2673
32.7691
35.3054
37.8487
40.3863
42.91
45.4131
47.8885
50.3297
52.7306
55.0861
57.3915
59.6429
61.8369
63.971
66.0429
68.051
69.9944
71.8723
73.6844
75.4308
77.112
78.7286
80.2814
81.7715
83.2003
84.5692
85.8796
87.1331
88.3314
89.4763
90.5693
91.6133
113.275
202.919
339.11
628.171
943.906
1095.75
1085.99
1001.32
899.833
805.077
723.913
656.775
601.757
556.317
518.065
485.089
456.03
430.038
406.676
385.808
367.469
351.723
338.541
327.705
318.804
311.284
304.558
298.107
291.544
284.628
277.25
269.407
261.172
252.672
244.057
235.474
227.045
218.858
210.968
203.407
196.198
189.349
182.857
176.696
170.813
165.123
159.52
153.885
148.107
142.095
135.792
129.176
122.269
115.135
107.871
100.61
93.5049
86.7281
80.4575
74.8682
70.1202
66.3401
63.5949
61.8633
61.0173
60.8305
61.0166
61.2846
61.3863
61.1449
60.4598
59.2986
57.6802
55.6601
53.3163
50.7402
48.03
45.2881
42.6199
40.1343
37.9433
36.1542
34.8506
34.0638
33.7521
33.8062
34.0813
34.4357
34.7567
34.9692
35.0318
34.9282
34.6587
34.233
33.6659
32.9713
32.1708
31.2528
30.3535
28.7478
48.2118
71.0117
78.9737
87.9662
147.816
274.845
412.17
503.834
539.579
537.367
516.798
490.006
462.71
436.988
413.247
391.307
370.921
351.991
334.604
318.995
305.453
294.211
285.338
278.656
273.726
269.912
266.497
262.822
258.386
252.902
246.289
238.644
230.189
221.215
212.026
202.891
194.013
185.521
177.481
169.914
162.817
156.177
149.969
144.157
138.682
133.459
128.383
123.34
118.218
112.926
107.402
101.626
95.6168
89.433
83.1687
76.9459
70.9056
65.1996
59.9809
55.3968
51.5799
48.6374
46.6316
45.5536
45.301
45.6769
46.4194
47.2519
47.9315
48.2798
48.1916
47.629
46.6063
45.1752
43.4113
41.4038
39.2491
37.0474
34.9011
32.9156
31.198
29.8505
28.9521
28.5323
28.5512
28.9045
29.4538
30.063
30.6237
31.063
31.3408
31.4411
31.364
31.1189
30.7206
30.1833
29.5286
28.7471
27.9693
26.5259
13.6441
18.4683
21.1665
19.3609
17.0264
24.4173
56.1696
107.965
163.687
209.482
239.881
256.24
262.342
261.741
257.002
249.81
241.288
232.257
223.401
215.324
208.554
203.496
200.364
199.099
199.345
200.474
201.708
202.271
201.545
199.158
195.018
189.278
182.265
174.402
166.12
157.796
149.713
142.049
134.887
128.246
122.108
116.443
111.212
106.371
101.867
97.6269
93.5603
89.5668
85.5467
81.4151
77.1139
72.6193
67.9455
63.1425
58.2912
53.4955
48.8727
44.5443
40.628
37.2319
34.452
32.3686
31.038
30.4734
30.6207
31.343
32.4332
33.6512
34.7703
35.6128
36.0648
36.0758
35.6476
34.8204
33.6602
32.2481
30.6732
29.0284
27.409
25.9126
24.6392
23.6849
23.1271
22.9996
23.2727
23.8553
24.6207
25.4408
26.211
26.8591
27.3439
27.6474
27.7678
27.7127
27.4958
27.1308
26.6385
26.0117
25.3722
24.1221
6.49854
7.17357
8.14668
8.36696
6.96549
5.46557
6.3782
12.7763
25.9973
43.9234
63.2848
80.8878
94.7976
104.444
110.143
112.634
112.778
111.418
109.32
107.159
105.509
104.846
105.514
107.666
111.194
115.68
120.449
124.707
127.727
129.001
128.323
125.777
121.676
116.462
110.609
104.539
98.5773
92.9324
87.7075
82.9278
78.5728
74.6032
70.9765
67.6517
64.5865
61.7305
59.0224
56.3909
53.7621
51.0695
48.2647
45.3253
42.2584
39.1003
35.9111
32.7676
29.7543
26.955
24.4459
22.2925
20.5502
19.2675
18.4873
18.2401
18.5249
19.2857
20.4005
21.6966
22.9857
24.1009
24.9207
25.3773
25.4519
25.165
24.5647
23.7166
22.6962
21.5838
20.4622
19.4169
18.5362
17.9088
17.6115
17.6875
18.1244
18.8513
19.7587
20.729
21.6617
22.4843
23.1527
23.6452
23.9562
24.0902
24.0582
23.8726
23.5523
23.0927
22.6029
21.5703
4.58135
4.66725
4.89267
5.13941
4.98936
4.34197
3.75764
3.98053
5.56051
8.70013
13.1219
18.3344
23.6714
28.5045
32.4138
35.2328
37.0096
37.9364
38.2817
38.3388
38.3958
38.7227
39.5666
41.138
43.5705
46.8522
50.7631
54.8719
58.6234
61.4866
63.0954
63.3224
62.2714
60.2096
57.4781
54.4114
51.2826
48.2792
45.5034
42.99
40.73
38.6936
36.8469
35.1596
33.6058
32.1603
30.7941
29.4727
28.1572
26.8097
25.3998
23.9111
22.3447
20.72
19.0715
17.4439
15.8855
14.4423
13.1539
12.0517
11.161
10.5042
10.1068
9.99843
10.2065
10.7385
11.5609
12.5908
13.7074
14.7794
15.6916
16.3633
16.7532
16.8561
16.6952
16.3135
15.7665
15.1159
14.4272
13.7685
13.212
12.8335
12.7066
12.8849
13.379
14.1459
15.0994
16.1366
17.1628
18.1047
18.914
19.5637
20.0429
20.3512
20.4958
20.4862
20.3387
20.0503
19.715
18.9142
3.72752
3.74336
3.7874
3.87018
3.90989
3.79936
3.5726
3.41807
3.52825
4.01131
4.85422
5.97228
7.25793
8.58036
9.81236
10.8587
11.671
12.2484
12.6274
12.869
13.0467
13.2384
13.5232
13.9804
14.6849
15.6912
17.0061
18.5592
20.1953
21.7036
22.8763
23.5687
23.7328
23.4147
22.7256
21.8019
20.773
19.7396
18.7661
17.8832
17.0958
16.3934
15.7596
15.1783
14.6368
14.1249
13.6338
13.1533
12.6716
12.1752
11.6521
11.0942
10.5001
9.87578
9.23431
8.59362
7.97367
7.39369
6.87027
6.41663
6.04327
5.76002
5.57906
5.51801
5.60047
5.85058
6.28064
6.87699
7.5934
8.35777
9.08871
9.71349
10.1804
10.4635
10.5611
10.4908
10.284
9.9807
9.62539
9.26593
8.95404
8.74719
8.70775
8.89332
9.33702
10.029
10.9151
11.9142
12.9411
13.9237
14.8092
15.5641
16.1705
16.6219
16.9199
17.0701
17.0846
16.9613
16.7766
16.2104
3.27384
3.27718
3.28386
3.30212
3.32301
3.31758
3.269
3.202
3.17119
3.22635
3.3842
3.63212
3.94649
4.29667
4.64987
4.97709
5.25789
5.48262
5.65217
5.77595
5.86919
5.9504
6.03952
6.15707
6.32332
6.5559
6.86459
7.24415
7.66897
8.09455
8.46733
8.73949
8.88175
8.88898
8.77759
8.57769
8.32401
8.04848
7.77563
7.52084
7.29083
7.0856
6.90108
6.7316
6.57172
6.41713
6.26463
6.11166
5.95566
5.7938
5.62311
5.44119
5.247
5.04145
4.82764
4.6105
4.39609
4.19077
4.00052
3.83052
3.68525
3.56896
3.48678
3.44625
3.45876
3.53943
3.70376
3.96067
4.30501
4.71396
5.15004
5.56949
5.93199
6.20803
6.3824
6.45405
6.43371
6.34058
6.19939
6.03841
5.88933
5.78892
5.78115
5.9153
6.2348
6.75914
7.47125
8.32115
9.24221
10.1685
11.0453
11.8332
12.5069
13.0523
13.4644
13.7433
13.8958
13.9195
13.8716
13.529
3.02052
3.01683
3.01328
3.0121
3.01352
3.01233
3.00153
2.98063
2.95933
2.95273
2.97172
3.01906
3.09164
3.18236
3.28206
3.38149
3.47299
3.55149
3.61498
3.66426
3.70243
3.73407
3.76458
3.79963
3.84475
3.90474
3.98264
4.07818
4.1865
4.2981
4.40047
4.48109
4.53055
4.5445
4.52395
4.47424
4.40325
4.31957
4.23099
4.14352
4.06096
3.9849
3.91517
3.85044
3.78891
3.72878
3.66862
3.60739
3.54435
3.47897
3.41075
3.33931
3.26447
3.18641
3.10582
3.02391
2.94228
2.86278
2.78729
2.71762
2.65539
2.60221
2.55992
2.53117
2.52018
2.5333
2.57872
2.66444
2.79492
2.96767
3.17176
3.38937
3.59954
3.78268
3.92425
4.01664
4.05941
4.05828
4.02358
3.96894
3.91066
3.86855
3.86789
3.94125
4.12578
4.45308
4.93521
5.55685
6.27951
7.05343
7.82939
8.56602
9.23234
9.80743
10.279
10.6409
10.8939
11.0338
11.0983
10.9533
2.87786
2.86907
2.86033
2.85206
2.84464
2.83748
2.82889
2.81758
2.80436
2.79231
2.78502
2.78489
2.79271
2.80766
2.82771
2.85022
2.87256
2.89259
2.90904
2.92152
2.93054
2.93726
2.94326
2.95028
2.96003
2.97397
2.993
3.01711
3.04509
3.07442
3.10165
3.12308
3.13559
3.13721
3.12741
3.10702
3.07791
3.04248
3.00329
2.96264
2.9223
2.88337
2.8463
2.81097
2.7769
2.74346
2.71002
2.67608
2.64133
2.60559
2.56883
2.53108
2.49244
2.45311
2.41333
2.3735
2.33405
2.2955
2.25839
2.22322
2.19048
2.16062
2.13417
2.11194
2.09526
2.08638
2.08864
2.10612
2.14263
2.20004
2.27695
2.36822
2.46572
2.56007
2.64254
2.70668
2.7492
2.77007
2.77218
2.76074
2.74282
2.72754
2.72716
2.75888
2.84584
3.01443
3.28657
3.67041
4.15569
4.7165
5.31863
5.92701
6.51074
7.04529
7.51299
7.90203
8.20693
8.42103
8.56362
8.57556
2.79915
2.78681
2.77461
2.76258
2.75085
2.73943
2.728
2.71613
2.70361
2.69079
2.6784
2.66727
2.65798
2.65076
2.64539
2.64134
2.63791
2.63441
2.6303
2.62533
2.61951
2.61316
2.60677
2.60094
2.59627
2.59327
2.59223
2.59314
2.59559
2.59876
2.60149
2.60248
2.60053
2.59474
2.58462
2.57018
2.55182
2.53027
2.5064
2.48115
2.45531
2.42952
2.40416
2.37937
2.3551
2.33116
2.30733
2.28339
2.25918
2.23464
2.20977
2.18465
2.15938
2.13411
2.10898
2.08414
2.05973
2.03587
2.01267
1.99021
1.96853
1.94767
1.9277
1.90878
1.89128
1.8759
1.86386
1.85687
1.85696
1.86589
1.88446
1.91198
1.94613
1.98335
2.01959
2.05113
2.07527
2.09067
2.09743
2.09696
2.09182
2.08567
2.08369
2.0936
2.12695
2.19941
2.32859
2.52892
2.80609
3.15446
3.55834
3.99599
4.44382
4.87974
5.28504
5.645
5.94974
6.19046
6.37086
6.48737
2.75762
2.74291
2.72836
2.71395
2.69971
2.68566
2.67177
2.65791
2.64395
2.62983
2.61558
2.60136
2.58733
2.57364
2.56035
2.54742
2.53472
2.52212
2.50945
2.49666
2.48375
2.47082
2.45809
2.4458
2.43421
2.42356
2.41397
2.40545
2.39783
2.39079
2.38385
2.37647
2.36809
2.35824
2.34659
2.33299
2.31749
2.30028
2.28167
2.26207
2.24185
2.22136
2.20086
2.18051
2.16037
2.14044
2.12066
2.10095
2.08126
2.06157
2.04189
2.02226
2.00276
1.98346
1.96444
1.94575
1.92741
1.90943
1.89176
1.87433
1.85706
1.83984
1.8226
1.80529
1.78797
1.77085
1.75433
1.73911
1.72608
1.71626
1.71051
1.70924
1.71219
1.71839
1.72638
1.73447
1.74113
1.74524
1.74626
1.74426
1.73991
1.73443
1.72976
1.72896
1.73695
1.76129
1.81215
1.90067
2.0359
2.22178
2.45559
2.72852
3.02758
3.33783
3.64439
3.93374
4.1949
4.41857
4.59794
4.76298
2.73703
2.72084
2.70478
2.68884
2.67302
2.65734
2.64179
2.62633
2.61092
2.59547
2.57993
2.56427
2.54851
2.53267
2.51678
2.50086
2.48491
2.46892
2.45289
2.43682
2.42075
2.40476
2.38895
2.37348
2.35849
2.34414
2.33052
2.31765
2.30547
2.29384
2.28253
2.27125
2.25968
2.24756
2.23464
2.22077
2.20588
2.19003
2.17331
2.1559
2.13801
2.11981
2.10149
2.08317
2.06495
2.04687
2.02894
2.01116
1.99353
1.97605
1.95875
1.94165
1.92479
1.90821
1.89192
1.87592
1.8602
1.8447
1.82933
1.81397
1.7985
1.78278
1.76669
1.75013
1.73308
1.71558
1.69778
1.67997
1.66254
1.64602
1.63094
1.61776
1.60673
1.59781
1.59066
1.58471
1.57931
1.57384
1.56784
1.56107
1.55355
1.54555
1.53767
1.53095
1.52726
1.52974
1.54319
1.57394
1.62877
1.71323
1.82993
1.97772
2.15185
2.34482
2.54762
2.75069
2.94504
3.12291
3.27295
3.43825
2.72756
2.7105
2.69354
2.67667
2.65989
2.6432
2.62661
2.6101
2.59365
2.5772
2.56071
2.54414
2.52746
2.51066
2.49373
2.47667
2.45951
2.44225
2.42491
2.40751
2.3901
2.37275
2.35554
2.33857
2.32195
2.3058
2.2902
2.2752
2.2608
2.2469
2.2334
2.22012
2.20685
2.1934
2.17959
2.16529
2.15041
2.13494
2.11891
2.10239
2.0855
2.06835
2.05107
2.03375
2.01647
1.99929
1.98225
1.96539
1.94872
1.93226
1.91605
1.9001
1.88443
1.86905
1.85396
1.83913
1.8245
1.81002
1.79556
1.78102
1.76624
1.7511
1.73547
1.71924
1.70238
1.68487
1.66679
1.64828
1.62955
1.61086
1.59254
1.57489
1.5582
1.54263
1.52822
1.5149
1.50246
1.49067
1.47927
1.46807
1.45694
1.44584
1.43489
1.42436
1.41485
1.40751
1.4043
1.40819
1.42297
1.4527
1.5007
1.56869
1.65627
1.76093
1.87845
2.00348
2.13016
2.25327
2.36166
2.49674
2.72352
2.70599
2.68853
2.67113
2.6538
2.63653
2.61932
2.60217
2.58506
2.56796
2.55084
2.53367
2.51643
2.49908
2.48162
2.46404
2.44635
2.42856
2.41068
2.39275
2.37478
2.35685
2.33902
2.32136
2.30397
2.28694
2.27036
2.25426
2.23868
2.22357
2.20886
2.19444
2.18017
2.16589
2.15147
2.13679
2.12176
2.10635
2.09055
2.07441
2.05799
2.04136
2.0246
2.0078
1.99101
1.97431
1.95772
1.94131
1.92509
1.9091
1.89337
1.87791
1.86273
1.84784
1.83321
1.81881
1.80458
1.79043
1.77626
1.76196
1.74738
1.73241
1.71692
1.70082
1.68407
1.66664
1.64859
1.62999
1.611
1.59177
1.5725
1.55341
1.53469
1.51652
1.49903
1.48227
1.46625
1.4509
1.43614
1.42184
1.40791
1.39426
1.38085
1.36769
1.35493
1.34292
1.33238
1.3245
1.32105
1.32424
1.33646
1.35968
1.39503
1.44246
1.50069
1.56737
1.63936
1.71375
1.782
1.87597
2.72189
2.70413
2.68641
2.66873
2.65109
2.63349
2.61593
2.59841
2.58091
2.56342
2.54592
2.52838
2.51079
2.49312
2.47536
2.45751
2.43957
2.42153
2.40343
2.38526
2.36707
2.3489
2.3308
2.31284
2.29509
2.27762
2.26052
2.24382
2.22756
2.21173
2.19628
2.18114
2.16619
2.15134
2.13645
2.12144
2.10623
2.09076
2.07503
2.05905
2.04286
2.02649
2.01003
1.99351
1.97701
1.96056
1.94423
1.92805
1.91205
1.89627
1.88073
1.86545
1.85044
1.83569
1.82118
1.80686
1.79268
1.77856
1.76439
1.75007
1.73547
1.72048
1.705
1.68893
1.67224
1.65491
1.63697
1.61848
1.59956
1.58033
1.56093
1.54151
1.52223
1.50321
1.48459
1.46644
1.44881
1.43172
1.41514
1.39903
1.38332
1.36793
1.3528
1.33787
1.32316
1.30875
1.29485
1.2819
1.2706
1.26197
1.2573
1.25793
1.26504
1.27938
1.30102
1.32936
1.3631
1.4009
1.43744
1.4928
2.72125
2.70337
2.68551
2.66768
2.64988
2.6321
2.61434
2.59661
2.57889
2.56117
2.54344
2.52568
2.50788
2.49003
2.47211
2.45411
2.43604
2.4179
2.3997
2.38145
2.36319
2.34493
2.32673
2.30864
2.29072
2.27303
2.25564
2.23859
2.22191
2.2056
2.18964
2.17398
2.15854
2.14323
2.12797
2.11267
2.09725
2.08168
2.06593
2.05
2.03391
2.01769
2.00138
1.98504
1.9687
1.95242
1.93623
1.92017
1.90428
1.88858
1.87311
1.85787
1.84288
1.82811
1.81356
1.79918
1.78491
1.77067
1.75638
1.74193
1.72722
1.71214
1.6966
1.68052
1.66387
1.64662
1.62881
1.6105
1.59175
1.57269
1.55342
1.53407
1.51476
1.49559
1.47666
1.45805
1.43982
1.42198
1.40454
1.38749
1.37078
1.35436
1.33816
1.32214
1.30626
1.29052
1.27498
1.25978
1.24517
1.23156
1.21954
1.20981
1.20313
1.20021
1.20149
1.20713
1.21683
1.23015
1.24459
1.26953
2.72096
2.70302
2.68508
2.66717
2.64927
2.63139
2.61352
2.59566
2.57781
2.55996
2.54209
2.52421
2.50629
2.48833
2.47032
2.45225
2.43412
2.41594
2.39771
2.37945
2.36117
2.3429
2.32468
2.30655
2.28856
2.27076
2.25319
2.23592
2.21895
2.20231
2.18597
2.16992
2.15408
2.13841
2.12281
2.10724
2.09162
2.07591
2.06009
2.04415
2.02809
2.01194
1.99572
1.97948
1.96324
1.94706
1.93095
1.91496
1.89912
1.88345
1.86798
1.85272
1.83768
1.82284
1.80819
1.79367
1.77925
1.76485
1.75039
1.73578
1.72092
1.70573
1.69011
1.67401
1.65738
1.64022
1.62254
1.6044
1.58586
1.56701
1.54796
1.5288
1.50963
1.49056
1.47164
1.45296
1.43456
1.41646
1.39868
1.38119
1.36398
1.347
1.33021
1.31355
1.29699
1.28051
1.26413
1.24788
1.23185
1.21619
1.20114
1.18701
1.1742
1.16314
1.15421
1.1477
1.14375
1.14224
1.14278
1.14638
2.7208
2.70281
2.68483
2.66686
2.6489
2.63095
2.61301
2.59508
2.57714
2.5592
2.54125
2.52329
2.5053
2.48727
2.46921
2.45111
2.43296
2.41477
2.39655
2.3783
2.36004
2.34179
2.32358
2.30545
2.28743
2.26956
2.2519
2.23447
2.2173
2.20041
2.18379
2.16742
2.15126
2.13527
2.11939
2.10356
2.08774
2.07188
2.05596
2.03996
2.02389
2.00776
1.99159
1.9754
1.95922
1.94308
1.92702
1.91107
1.89525
1.87958
1.86409
1.84878
1.83366
1.81873
1.80395
1.78929
1.77471
1.76013
1.7455
1.73072
1.71572
1.7004
1.68471
1.66858
1.65197
1.63489
1.61734
1.59936
1.58102
1.56239
1.54357
1.52463
1.50566
1.48676
1.46797
1.44936
1.43098
1.41283
1.39494
1.37728
1.35984
1.34259
1.32548
1.30847
1.29154
1.27467
1.25784
1.24108
1.22441
1.20789
1.19162
1.17573
1.16039
1.14582
1.13225
1.11988
1.10895
1.09932
1.092
1.08208
2.72067
2.70266
2.68465
2.66664
2.64863
2.63063
2.61264
2.59464
2.57665
2.55865
2.54064
2.52262
2.50458
2.48652
2.46843
2.4503
2.43215
2.41396
2.39575
2.37752
2.35929
2.34107
2.32289
2.30477
2.28674
2.26884
2.25111
2.23358
2.21626
2.19918
2.18233
2.16571
2.14928
2.13302
2.11688
2.10082
2.0848
2.06879
2.05275
2.03668
2.02057
2.00443
1.98826
1.97209
1.95594
1.93983
1.92379
1.90785
1.89203
1.87634
1.86081
1.84545
1.83025
1.81521
1.8003
1.7855
1.77076
1.75602
1.74122
1.72628
1.71114
1.69572
1.67995
1.6638
1.64722
1.6302
1.61277
1.59495
1.5768
1.55838
1.53977
1.52105
1.5023
1.48358
1.46495
1.44647
1.42816
1.41006
1.39215
1.37445
1.35692
1.33954
1.32228
1.3051
1.28797
1.27089
1.25383
1.23682
1.21986
1.20298
1.18622
1.16964
1.15331
1.13732
1.12181
1.10688
1.09273
1.07909
1.06779
1.05014
2.72056
2.70253
2.68448
2.66644
2.6484
2.63037
2.61233
2.59429
2.57625
2.5582
2.54015
2.52209
2.50401
2.48592
2.4678
2.44967
2.43151
2.41333
2.39513
2.37692
2.35871
2.34052
2.32236
2.30425
2.28623
2.26831
2.25053
2.23292
2.21548
2.19825
2.18122
2.16439
2.14774
2.13125
2.11489
2.09862
2.08242
2.06625
2.05009
2.03393
2.01776
2.00157
1.98539
1.96921
1.95307
1.93697
1.92093
1.90499
1.88915
1.87344
1.85787
1.84244
1.82716
1.81201
1.79699
1.78205
1.76716
1.75226
1.73731
1.72224
1.70697
1.69145
1.67563
1.65945
1.64289
1.62594
1.60862
1.59094
1.57296
1.55474
1.53634
1.51783
1.49927
1.48074
1.46227
1.44393
1.42572
1.40769
1.38983
1.37213
1.35458
1.33715
1.31981
1.30255
1.28533
1.26814
1.25098
1.23384
1.21675
1.19971
1.18276
1.16591
1.1492
1.13269
1.11643
1.10046
1.08494
1.06951
1.05639
1.03477
2.72046
2.7024
2.68434
2.66627
2.6482
2.63013
2.61206
2.59398
2.5759
2.55782
2.53973
2.52163
2.50353
2.48541
2.46727
2.44912
2.43096
2.41278
2.39459
2.37639
2.35821
2.34003
2.32189
2.3038
2.28577
2.26784
2.25002
2.23234
2.21482
2.19746
2.18028
2.16328
2.14644
2.12976
2.1132
2.09675
2.08037
2.06406
2.04777
2.03151
2.01527
1.99903
1.98281
1.96661
1.95045
1.93434
1.9183
1.90234
1.88648
1.87074
1.85512
1.83963
1.82426
1.80902
1.79388
1.77882
1.76379
1.74876
1.73367
1.71847
1.70309
1.68749
1.67161
1.65542
1.63888
1.622
1.60477
1.58723
1.56941
1.55137
1.53316
1.51484
1.49647
1.47811
1.4598
1.44159
1.4235
1.40554
1.38774
1.37007
1.35252
1.33508
1.31772
1.30042
1.28316
1.26593
1.24872
1.23153
1.21439
1.19729
1.18026
1.16332
1.14648
1.12978
1.11324
1.09689
1.08085
1.06467
1.05081
1.02733
2.72036
2.70229
2.6842
2.66611
2.64802
2.62992
2.61181
2.59371
2.5756
2.55748
2.53936
2.52123
2.5031
2.48495
2.4668
2.44864
2.43046
2.41228
2.3941
2.37591
2.35774
2.33958
2.32145
2.30336
2.28533
2.26738
2.24953
2.2318
2.21419
2.19674
2.17944
2.16229
2.14529
2.12844
2.11171
2.09509
2.07856
2.06211
2.0457
2.02934
2.01301
1.99671
1.98045
1.96421
1.94803
1.9319
1.91583
1.89985
1.88396
1.86818
1.85251
1.83696
1.82152
1.80618
1.79094
1.77576
1.76061
1.74545
1.73024
1.71493
1.69946
1.68378
1.66786
1.65165
1.63514
1.61831
1.60118
1.58376
1.56608
1.5482
1.53017
1.51202
1.49383
1.47563
1.45747
1.43939
1.42141
1.40354
1.3858
1.36817
1.35065
1.33322
1.31586
1.29855
1.28127
1.26402
1.2468
1.22961
1.21245
1.19534
1.17829
1.16132
1.14445
1.12769
1.11107
1.09459
1.07836
1.06191
1.04777
1.0235
2.72027
2.70218
2.68408
2.66597
2.64785
2.62972
2.61159
2.59346
2.57532
2.55718
2.53903
2.52088
2.50272
2.48455
2.46638
2.4482
2.43002
2.41183
2.39365
2.37546
2.35729
2.33914
2.32101
2.30292
2.28489
2.26692
2.24904
2.23126
2.21359
2.19605
2.17864
2.16138
2.14425
2.12725
2.11037
2.0936
2.07693
2.06034
2.04382
2.02736
2.01095
1.99458
1.97826
1.96198
1.94576
1.92959
1.9135
1.89749
1.88157
1.86574
1.85002
1.83441
1.81889
1.80347
1.78813
1.77285
1.75759
1.74232
1.727
1.71158
1.69603
1.68029
1.66433
1.64811
1.63162
1.61485
1.5978
1.5805
1.56296
1.54523
1.52735
1.50938
1.49134
1.4733
1.45528
1.43732
1.41945
1.40167
1.38399
1.36641
1.34892
1.33151
1.31417
1.29686
1.27959
1.26235
1.24514
1.22795
1.2108
1.1937
1.17666
1.1597
1.14283
1.12607
1.10943
1.09292
1.07664
1.0601
1.04587
1.02129
2.72019
2.70208
2.68396
2.66583
2.64769
2.62955
2.6114
2.59324
2.57507
2.55691
2.53873
2.52056
2.50237
2.48419
2.466
2.44781
2.42961
2.41142
2.39323
2.37504
2.35687
2.33871
2.32059
2.30249
2.28445
2.26646
2.24855
2.23073
2.213
2.19539
2.17789
2.16052
2.14328
2.12615
2.10915
2.09225
2.07545
2.05874
2.04211
2.02555
2.00905
1.99261
1.97622
1.95989
1.94363
1.92743
1.9113
1.89525
1.87929
1.86342
1.84765
1.83197
1.81639
1.80089
1.78546
1.77008
1.75472
1.73935
1.72394
1.70844
1.69281
1.67701
1.66102
1.6448
1.62834
1.61162
1.59465
1.57745
1.56004
1.54246
1.52473
1.50691
1.48903
1.47113
1.45325
1.43541
1.41764
1.39995
1.38234
1.36482
1.34737
1.32999
1.31267
1.29539
1.27814
1.26091
1.24371
1.22655
1.20942
1.19234
1.17532
1.15838
1.14153