/*--------------------------------*- C++ -*----------------------------------*\
  =========                 |
  \\      /  F ield         | OpenFOAM: The Open Source CFD Toolbox
   \\    /   O peration     | Website:  https://openfoam.org
    \\  /    A nd           | Version:  10
     \\/     M anipulation  |
\*---------------------------------------------------------------------------*/
FoamFile
{
    format      ascii;
    class       volScalarField;
    location    "1400";
    object      k;
}
// * * * * * * * * * * * * * * * * * * * * * * * * * * * * * * * * * * * * * //

dimensions      [0 2 -2 0 0 0 0];

internalField   nonuniform List<scalar> 
6820
(
0.19714
0.192517
0.18828
0.184032
0.179769
0.175611
0.171677
0.168043
0.164747
0.1618
0.159195
0.156913
0.154931
0.153225
0.151769
0.150539
0.149512
0.148666
0.147983
0.147445
0.147035
0.146741
0.146549
0.146448
0.146427
0.146481
0.14659
0.146804
0.146881
0.147312
0.148441
0.146191
0.0797663
0.20725
0.212378
0.210058
0.205418
0.200995
0.197552
0.195145
0.193619
0.192789
0.192489
0.192591
0.192998
0.193635
0.19445
0.195401
0.196455
0.197589
0.198785
0.200026
0.201303
0.202606
0.20393
0.205271
0.206629
0.208005
0.209409
0.210848
0.212363
0.213977
0.215818
0.218091
0.221652
0.202574
0.200993
0.203847
0.204551
0.203318
0.201177
0.198803
0.196518
0.194452
0.19265
0.191116
0.189839
0.188797
0.187971
0.187337
0.186874
0.186564
0.186387
0.186328
0.186373
0.18651
0.186727
0.187016
0.18737
0.187782
0.18825
0.188773
0.18935
0.190003
0.190742
0.191587
0.192712
0.194719
0.193589
0.199593
0.199508
0.199518
0.199121
0.198258
0.197061
0.195675
0.194212
0.192747
0.191324
0.189972
0.188707
0.187537
0.186464
0.185488
0.184607
0.183817
0.183112
0.182489
0.181942
0.181466
0.181057
0.18071
0.180422
0.18019
0.180014
0.179894
0.179836
0.17985
0.179943
0.18017
0.180734
0.181064
0.199411
0.198475
0.197748
0.197076
0.196333
0.195471
0.194494
0.193431
0.192314
0.191173
0.190029
0.188901
0.187801
0.186738
0.185718
0.184744
0.183819
0.182943
0.182117
0.18134
0.180611
0.179929
0.179293
0.178701
0.178153
0.177648
0.177186
0.176771
0.176407
0.176099
0.175863
0.175749
0.17569
0.199395
0.198255
0.197227
0.19629
0.195403
0.194525
0.193631
0.19271
0.191764
0.190799
0.189824
0.188846
0.187874
0.186915
0.185972
0.185052
0.184156
0.183288
0.182448
0.181639
0.18086
0.180111
0.179394
0.178708
0.178052
0.177428
0.176836
0.176276
0.175752
0.175267
0.174825
0.174439
0.174102
0.199395
0.198216
0.197096
0.196039
0.195039
0.194082
0.193155
0.192244
0.191342
0.190445
0.189552
0.188663
0.187781
0.186908
0.186045
0.185197
0.184363
0.183547
0.182749
0.181971
0.181214
0.180477
0.179762
0.179069
0.178399
0.177751
0.177126
0.176526
0.175951
0.175403
0.174885
0.174399
0.173948
0.199395
0.19821
0.197068
0.19597
0.194919
0.193911
0.192941
0.192004
0.191094
0.190205
0.189335
0.188481
0.187641
0.186816
0.186004
0.185206
0.184423
0.183654
0.182901
0.182164
0.181444
0.180739
0.180052
0.179382
0.17873
0.178095
0.177478
0.17688
0.176302
0.175745
0.175209
0.174698
0.17421
0.199395
0.198209
0.197062
0.195954
0.194885
0.193855
0.192861
0.191902
0.190974
0.190076
0.189203
0.188354
0.187527
0.186719
0.18593
0.185158
0.184404
0.183665
0.182943
0.182237
0.181547
0.180872
0.180213
0.179569
0.17894
0.178328
0.17773
0.17715
0.176585
0.176038
0.175509
0.174999
0.174508
0.199395
0.198209
0.197061
0.195951
0.194877
0.193838
0.192835
0.191864
0.190926
0.190017
0.189137
0.188284
0.187456
0.186651
0.185868
0.185105
0.184363
0.183639
0.182933
0.182244
0.181572
0.180917
0.180277
0.179653
0.179044
0.17845
0.177871
0.177307
0.176759
0.176226
0.17571
0.17521
0.174726
0.199395
0.198209
0.197061
0.19595
0.194874
0.193834
0.192827
0.191852
0.190908
0.189994
0.189109
0.188251
0.187419
0.186612
0.185829
0.185068
0.184328
0.183609
0.182909
0.182228
0.181565
0.18092
0.180291
0.179678
0.179081
0.178499
0.177933
0.177382
0.176846
0.176325
0.175819
0.175328
0.174853
0.199395
0.198209
0.19706
0.195949
0.194874
0.193832
0.192824
0.191848
0.190902
0.189986
0.189098
0.188238
0.187403
0.186594
0.185809
0.185046
0.184307
0.183588
0.18289
0.182211
0.181551
0.180909
0.180285
0.179677
0.179086
0.178511
0.177952
0.177408
0.176879
0.176365
0.175866
0.175382
0.174913
0.199395
0.198209
0.19706
0.195949
0.194873
0.193832
0.192823
0.191846
0.1909
0.189983
0.189094
0.188232
0.187396
0.186586
0.185799
0.185036
0.184295
0.183576
0.182877
0.182199
0.181539
0.180899
0.180276
0.17967
0.179082
0.178509
0.177953
0.177412
0.176887
0.176377
0.175881
0.1754
0.174934
0.199395
0.198209
0.19706
0.195949
0.194873
0.193831
0.192822
0.191845
0.190899
0.189981
0.189092
0.188229
0.187393
0.186582
0.185795
0.185031
0.184289
0.183569
0.18287
0.182192
0.181532
0.180891
0.180269
0.179664
0.179076
0.178504
0.177949
0.17741
0.176886
0.176377
0.175882
0.175402
0.174936
0.199395
0.198208
0.19706
0.195948
0.194872
0.193831
0.192822
0.191845
0.190898
0.18998
0.18909
0.188228
0.187391
0.18658
0.185792
0.185028
0.184286
0.183566
0.182867
0.182188
0.181528
0.180887
0.180264
0.179659
0.179072
0.1785
0.177945
0.177406
0.176882
0.176373
0.175879
0.175399
0.174933
0.199395
0.198208
0.19706
0.195948
0.194872
0.19383
0.192821
0.191844
0.190897
0.189979
0.189089
0.188227
0.18739
0.186578
0.185791
0.185026
0.184284
0.183564
0.182865
0.182185
0.181526
0.180885
0.180262
0.179657
0.179069
0.178497
0.177942
0.177403
0.176879
0.17637
0.175875
0.175395
0.174928
0.199395
0.198208
0.19706
0.195948
0.194872
0.19383
0.192821
0.191843
0.190896
0.189978
0.189089
0.188226
0.187389
0.186577
0.18579
0.185025
0.184283
0.183563
0.182863
0.182184
0.181524
0.180883
0.18026
0.179655
0.179067
0.178495
0.17794
0.177401
0.176876
0.176367
0.175872
0.175391
0.174923
0.199395
0.198208
0.19706
0.195948
0.194872
0.19383
0.19282
0.191843
0.190896
0.189978
0.189088
0.188225
0.187388
0.186576
0.185789
0.185024
0.184282
0.183561
0.182862
0.182182
0.181523
0.180881
0.180259
0.179653
0.179065
0.178494
0.177938
0.177399
0.176874
0.176364
0.175869
0.175387
0.174919
0.199395
0.198208
0.19706
0.195948
0.194871
0.193829
0.19282
0.191843
0.190895
0.189977
0.189087
0.188224
0.187387
0.186575
0.185788
0.185023
0.184281
0.18356
0.182861
0.182181
0.181521
0.18088
0.180257
0.179652
0.179064
0.178492
0.177937
0.177397
0.176872
0.176362
0.175866
0.175384
0.174915
0.199395
0.198208
0.197059
0.195948
0.194871
0.193829
0.19282
0.191842
0.190895
0.189977
0.189087
0.188224
0.187387
0.186575
0.185787
0.185022
0.18428
0.18356
0.18286
0.18218
0.18152
0.180879
0.180256
0.179651
0.179063
0.178491
0.177935
0.177395
0.17687
0.17636
0.175863
0.175381
0.174911
0.199395
0.198208
0.197059
0.195947
0.194871
0.193829
0.19282
0.191842
0.190895
0.189976
0.189086
0.188223
0.187386
0.186574
0.185786
0.185022
0.184279
0.183559
0.182859
0.18218
0.18152
0.180878
0.180255
0.17965
0.179062
0.17849
0.177934
0.177394
0.176868
0.176357
0.175861
0.175378
0.174908
0.199395
0.198208
0.197059
0.195947
0.194871
0.193829
0.192819
0.191842
0.190894
0.189976
0.189086
0.188223
0.187386
0.186574
0.185786
0.185021
0.184279
0.183558
0.182858
0.182179
0.181519
0.180877
0.180254
0.179649
0.179061
0.178489
0.177933
0.177392
0.176866
0.176355
0.175858
0.175375
0.174904
0.199395
0.198208
0.197059
0.195947
0.194871
0.193829
0.192819
0.191842
0.190894
0.189976
0.189086
0.188222
0.187385
0.186573
0.185785
0.18502
0.184278
0.183558
0.182858
0.182178
0.181518
0.180877
0.180254
0.179648
0.179059
0.178487
0.177931
0.17739
0.176865
0.176353
0.175856
0.175372
0.174901
0.199395
0.198208
0.197059
0.195947
0.194871
0.193829
0.192819
0.191841
0.190894
0.189976
0.189085
0.188222
0.187385
0.186573
0.185785
0.18502
0.184278
0.183557
0.182857
0.182178
0.181517
0.180876
0.180253
0.179647
0.179058
0.178486
0.17793
0.177389
0.176863
0.176351
0.175854
0.175369
0.174898
0.199395
0.198208
0.197059
0.195947
0.194871
0.193829
0.192819
0.191841
0.190894
0.189975
0.189085
0.188222
0.187385
0.186572
0.185784
0.18502
0.184277
0.183557
0.182857
0.182177
0.181517
0.180875
0.180252
0.179646
0.179057
0.178485
0.177929
0.177387
0.176861
0.176349
0.175851
0.175367
0.174895
0.199395
0.198208
0.197059
0.195947
0.194871
0.193828
0.192819
0.191841
0.190894
0.189975
0.189085
0.188222
0.187384
0.186572
0.185784
0.185019
0.184277
0.183556
0.182856
0.182177
0.181516
0.180875
0.180251
0.179646
0.179057
0.178484
0.177927
0.177386
0.17686
0.176348
0.175849
0.175365
0.174893
0.199395
0.198208
0.197059
0.195947
0.194871
0.193828
0.192819
0.191841
0.190893
0.189975
0.189085
0.188222
0.187384
0.186572
0.185784
0.185019
0.184277
0.183556
0.182856
0.182176
0.181516
0.180874
0.180251
0.179645
0.179056
0.178483
0.177926
0.177385
0.176858
0.176346
0.175847
0.175362
0.17489
0.199395
0.198208
0.197059
0.195947
0.194871
0.193828
0.192819
0.191841
0.190893
0.189975
0.189085
0.188221
0.187384
0.186572
0.185784
0.185019
0.184277
0.183556
0.182856
0.182176
0.181515
0.180874
0.18025
0.179644
0.179055
0.178482
0.177925
0.177384
0.176857
0.176344
0.175846
0.17536
0.174888
0.199395
0.198208
0.197059
0.195947
0.194871
0.193828
0.192819
0.191841
0.190893
0.189975
0.189085
0.188221
0.187384
0.186572
0.185784
0.185019
0.184276
0.183556
0.182856
0.182176
0.181515
0.180874
0.18025
0.179644
0.179055
0.178482
0.177925
0.177383
0.176856
0.176343
0.175844
0.175359
0.174886
0.199395
0.198208
0.197059
0.195947
0.194871
0.193828
0.192819
0.191841
0.190893
0.189975
0.189085
0.188221
0.187384
0.186572
0.185784
0.185019
0.184276
0.183556
0.182856
0.182176
0.181515
0.180873
0.18025
0.179644
0.179054
0.178481
0.177924
0.177382
0.176855
0.176342
0.175843
0.175357
0.174885
0.199395
0.198208
0.197059
0.195947
0.194871
0.193828
0.192819
0.191841
0.190893
0.189975
0.189085
0.188222
0.187384
0.186572
0.185784
0.185019
0.184277
0.183556
0.182856
0.182176
0.181515
0.180873
0.18025
0.179643
0.179054
0.178481
0.177924
0.177382
0.176854
0.176341
0.175842
0.175356
0.174883
0.199395
0.198208
0.197059
0.195947
0.194871
0.193828
0.192819
0.191841
0.190894
0.189975
0.189085
0.188222
0.187385
0.186572
0.185784
0.18502
0.184277
0.183556
0.182856
0.182176
0.181516
0.180874
0.18025
0.179644
0.179055
0.178481
0.177924
0.177382
0.176854
0.176341
0.175842
0.175356
0.174883
0.199395
0.198208
0.197059
0.195947
0.194871
0.193829
0.192819
0.191841
0.190894
0.189976
0.189085
0.188222
0.187385
0.186573
0.185785
0.18502
0.184278
0.183557
0.182857
0.182177
0.181517
0.180875
0.180251
0.179645
0.179055
0.178482
0.177924
0.177382
0.176854
0.17634
0.175841
0.175354
0.17488
0.199395
0.198208
0.197059
0.195947
0.194871
0.193829
0.19282
0.191842
0.190896
0.189978
0.189088
0.188226
0.18739
0.186578
0.185791
0.185026
0.184284
0.183563
0.182863
0.182183
0.181522
0.18088
0.180256
0.179648
0.179058
0.178483
0.177924
0.17738
0.17685
0.176335
0.175833
0.175344
0.174868
0.199395
0.198208
0.197059
0.195948
0.194872
0.193831
0.192824
0.191848
0.190902
0.189986
0.189097
0.188236
0.1874
0.186589
0.185801
0.185036
0.184293
0.183571
0.182869
0.182187
0.181523
0.180877
0.180249
0.179638
0.179043
0.178463
0.177899
0.177349
0.176814
0.176292
0.175784
0.175288
0.174805
0.199395
0.198209
0.197062
0.195955
0.194886
0.193853
0.192854
0.191885
0.190945
0.190033
0.189146
0.188285
0.187447
0.186631
0.185838
0.185066
0.184315
0.183583
0.18287
0.182176
0.181499
0.18084
0.180197
0.17957
0.17896
0.178364
0.177783
0.177217
0.176664
0.176124
0.175598
0.175085
0.174583
0.199395
0.198223
0.197106
0.196031
0.194988
0.19397
0.192977
0.192007
0.19106
0.190136
0.189233
0.188352
0.187492
0.186653
0.185834
0.185035
0.184255
0.183494
0.182751
0.182026
0.181318
0.180627
0.179952
0.179294
0.17865
0.178022
0.177408
0.176809
0.176223
0.175651
0.175092
0.174545
0.174011
0.19941
0.198319
0.197296
0.196301
0.195311
0.194319
0.19333
0.192347
0.191375
0.190419
0.189481
0.188564
0.187667
0.186792
0.185938
0.185106
0.184294
0.183502
0.182729
0.181975
0.181239
0.180521
0.17982
0.179135
0.178466
0.177813
0.177174
0.17655
0.175941
0.175345
0.174763
0.174193
0.173637
0.199716
0.199139
0.19847
0.197764
0.197071
0.196418
0.195811
0.195249
0.194732
0.194258
0.193826
0.193434
0.19308
0.192762
0.192478
0.192226
0.192005
0.191812
0.191646
0.191503
0.191384
0.191286
0.191207
0.191146
0.191102
0.191073
0.191059
0.191057
0.191068
0.191091
0.191123
0.191166
0.191217
0.205424
0.216593
0.227629
0.238434
0.248975
0.259243
0.269229
0.278925
0.288326
0.297424
0.306216
0.314702
0.322879
0.330749
0.338316
0.345582
0.352553
0.359233
0.365631
0.371751
0.377603
0.383193
0.38853
0.393623
0.398479
0.403108
0.407518
0.411718
0.415715
0.419519
0.423137
0.426577
0.429849
1.163
1.8211
1.6343
1.70786
2.08779
2.41469
2.57093
2.6089
2.58393
2.52679
2.45478
2.37787
2.30133
2.22743
2.15689
2.08984
2.02641
1.96715
1.91315
1.866
1.82754
1.79943
1.7826
1.77685
1.78063
1.79122
1.80519
1.81903
1.82972
1.83512
1.83419
1.82697
1.81436
1.79782
1.77897
1.75926
1.73976
1.7211
1.70363
1.68749
1.67277
1.65955
1.6478
1.6373
1.62747
1.6174
1.60589
1.59157
1.57312
1.54945
1.5198
1.48388
1.44187
1.39445
1.34276
1.28836
1.23321
1.17957
1.12998
1.08716
1.05386
1.03252
1.02469
1.03035
1.0474
1.07184
1.09865
1.12293
1.14083
1.14996
1.14934
1.13909
1.12012
1.09381
1.0618
1.02591
0.988027
0.95021
0.91473
0.884174
0.861409
0.84915
0.849056
0.860703
0.881312
0.906615
0.932302
0.955097
0.97309
0.985529
0.992416
0.994152
0.991296
0.984422
0.974066
0.960654
0.94465
0.926036
0.906877
0.874512
0.575128
0.834346
0.834941
0.711424
0.70829
0.938436
1.27646
1.56678
1.75234
1.84891
1.88687
1.88908
1.86977
1.83747
1.79739
1.7529
1.70659
1.66082
1.61801
1.58069
1.55133
1.53198
1.52381
1.52665
1.53881
1.5572
1.5779
1.59683
1.61053
1.61664
1.6142
1.60354
1.58609
1.56386
1.53901
1.51346
1.48857
1.46514
1.44352
1.42376
1.40584
1.38971
1.37531
1.36245
1.35067
1.33921
1.32701
1.3128
1.29534
1.27351
1.24655
1.21411
1.1763
1.13372
1.08741
1.03881
0.98971
0.942155
0.898408
0.86088
0.832037
0.81418
0.808992
0.816854
0.836251
0.863714
0.894512
0.923773
0.947481
0.962996
0.969089
0.965696
0.953581
0.93403
0.908634
0.87915
0.847449
0.815526
0.785582
0.760125
0.741965
0.733849
0.73758
0.752944
0.777329
0.806528
0.8362
0.862996
0.884935
0.901204
0.911761
0.916979
0.917401
0.913592
0.906089
0.895329
0.881781
0.865464
0.848414
0.818683
0.233695
0.297223
0.336934
0.328491
0.298197
0.291386
0.375096
0.549783
0.760603
0.951475
1.09513
1.18963
1.24375
1.26791
1.27098
1.25989
1.24007
1.21598
1.19149
1.17008
1.15483
1.14822
1.15183
1.16586
1.1889
1.21794
1.24883
1.27707
1.29871
1.31103
1.31286
1.30464
1.28803
1.26546
1.23955
1.21262
1.18641
1.16195
1.13966
1.11956
1.10151
1.08533
1.07089
1.05802
1.04638
1.03543
1.02432
1.01204
0.997458
0.979567
0.957598
0.931155
0.900267
0.865405
0.827455
0.787657
0.747531
0.708792
0.673288
0.642946
0.619748
0.605648
0.602316
0.610608
0.629903
0.657736
0.690143
0.722588
0.751002
0.772454
0.785351
0.789282
0.784733
0.772781
0.75486
0.732605
0.707774
0.682235
0.658034
0.637496
0.623279
0.618129
0.624099
0.641444
0.668031
0.699939
0.732865
0.763337
0.789195
0.809466
0.823985
0.833044
0.837134
0.836797
0.832558
0.824862
0.814181
0.800572
0.786007
0.75948
0.183327
0.191045
0.202279
0.209834
0.205905
0.196821
0.196515
0.221093
0.280407
0.367455
0.465367
0.556616
0.630244
0.6826
0.714909
0.730803
0.734729
0.731129
0.724097
0.717274
0.713832
0.716445
0.72712
0.746851
0.775188
0.809991
0.847622
0.883633
0.913725
0.934646
0.944734
0.944032
0.934023
0.917116
0.896051
0.873369
0.851039
0.830298
0.811697
0.795284
0.780841
0.768082
0.756768
0.746706
0.737682
0.729358
0.721208
0.712515
0.702447
0.690186
0.675063
0.656684
0.635001
0.61034
0.583369
0.555047
0.526533
0.499103
0.474071
0.452757
0.436489
0.426647
0.424616
0.431525
0.447695
0.472056
0.502
0.533884
0.56394
0.589074
0.607283
0.617687
0.620337
0.615954
0.60569
0.590952
0.573294
0.554379
0.536013
0.520234
0.509425
0.506212
0.512886
0.530341
0.557228
0.590201
0.625151
0.658495
0.687831
0.711929
0.730422
0.743456
0.75143
0.754832
0.75416
0.749852
0.742373
0.731821
0.720062
0.697254
0.17558
0.175951
0.177549
0.179686
0.180019
0.177338
0.174331
0.175586
0.184587
0.203071
0.230088
0.262502
0.29572
0.325483
0.349069
0.365541
0.375405
0.38008
0.381427
0.381414
0.381943
0.384787
0.391565
0.403636
0.421824
0.445974
0.474595
0.504882
0.533286
0.55643
0.571952
0.578961
0.578015
0.570735
0.559266
0.545766
0.532015
0.51922
0.507991
0.498449
0.49041
0.483571
0.477645
0.472417
0.46773
0.463421
0.45925
0.45486
0.449786
0.443521
0.435606
0.425735
0.413821
0.400031
0.384775
0.368656
0.352403
0.336792
0.322591
0.310527
0.301312
0.29571
0.294616
0.299027
0.309779
0.327046
0.349871
0.376119
0.402953
0.427546
0.447673
0.461983
0.46999
0.471915
0.468484
0.460748
0.449951
0.437463
0.424766
0.413527
0.405712
0.403639
0.409665
0.425317
0.450268
0.4821
0.517181
0.551944
0.583733
0.610994
0.63307
0.649891
0.661706
0.668907
0.671934
0.671198
0.667144
0.659898
0.65118
0.632514
0.173702
0.173239
0.173034
0.173114
0.172954
0.171944
0.170391
0.169521
0.170537
0.174133
0.180306
0.188514
0.197876
0.207302
0.215773
0.222583
0.227445
0.230459
0.232013
0.23266
0.233024
0.233741
0.235444
0.238756
0.244245
0.252297
0.262909
0.275484
0.288803
0.301261
0.311304
0.317871
0.32063
0.319957
0.316716
0.311971
0.306719
0.301728
0.297454
0.29406
0.291488
0.289554
0.288047
0.286789
0.285656
0.284568
0.283446
0.282182
0.280615
0.278541
0.275748
0.272068
0.267422
0.261855
0.255532
0.248724
0.241766
0.23502
0.228836
0.223546
0.219468
0.216954
0.216458
0.218594
0.224098
0.233597
0.247243
0.264395
0.283609
0.302966
0.320553
0.334864
0.344994
0.350651
0.352052
0.349789
0.3447
0.337774
0.330114
0.322952
0.317751
0.316325
0.320792
0.333046
0.353793
0.381863
0.414511
0.448475
0.480958
0.51007
0.534797
0.554768
0.570014
0.580774
0.587387
0.590206
0.58963
0.585797
0.580232
0.565997
0.173444
0.172854
0.172305
0.171844
0.171373
0.170695
0.169773
0.168888
0.168473
0.168857
0.170118
0.172121
0.17462
0.177303
0.179855
0.182017
0.183634
0.184663
0.185163
0.185264
0.185141
0.184984
0.184989
0.18535
0.18625
0.18784
0.19019
0.193234
0.19673
0.200282
0.203428
0.205765
0.20706
0.207294
0.206636
0.205376
0.203838
0.202312
0.201009
0.200037
0.199411
0.199073
0.198931
0.198887
0.19886
0.198797
0.198663
0.198434
0.198074
0.197536
0.19676
0.195685
0.194273
0.192519
0.19046
0.188177
0.185781
0.1834
0.181166
0.179209
0.177658
0.176659
0.176406
0.17719
0.17942
0.183579
0.190062
0.198954
0.209863
0.221929
0.234012
0.244965
0.25387
0.260171
0.263693
0.264598
0.263299
0.260383
0.256554
0.25262
0.249539
0.24854
0.251218
0.259374
0.27437
0.296305
0.323704
0.354067
0.384766
0.413693
0.439479
0.461397
0.479185
0.492866
0.50262
0.508698
0.511417
0.510906
0.508444
0.498738
0.173667
0.173048
0.172431
0.171836
0.17125
0.170624
0.169921
0.169182
0.168532
0.168109
0.167989
0.168167
0.168575
0.169113
0.169665
0.170128
0.170428
0.170529
0.17043
0.170163
0.169779
0.169341
0.168915
0.168566
0.168357
0.168336
0.168532
0.168937
0.169499
0.170125
0.170697
0.171102
0.171258
0.171134
0.170752
0.170174
0.169486
0.16878
0.168133
0.167598
0.167196
0.166922
0.166744
0.166622
0.166517
0.166395
0.166235
0.166027
0.165763
0.16544
0.165047
0.164576
0.164014
0.163358
0.162614
0.161798
0.16094
0.160074
0.159242
0.158484
0.157845
0.157376
0.157148
0.157276
0.157941
0.159396
0.161922
0.165727
0.170829
0.176988
0.183723
0.190413
0.196441
0.201314
0.204735
0.206621
0.207083
0.206382
0.20489
0.203064
0.201455
0.200784
0.202054
0.206594
0.215811
0.230592
0.250733
0.27488
0.301044
0.327241
0.351899
0.373972
0.392878
0.408367
0.420409
0.429099
0.434634
0.437096
0.437473
0.432144
0.173958
0.173337
0.172713
0.172093
0.171477
0.170856
0.170218
0.169561
0.16891
0.168309
0.167795
0.167384
0.16707
0.166825
0.166612
0.166389
0.166122
0.165789
0.165381
0.164903
0.164371
0.163807
0.163236
0.162685
0.16218
0.161739
0.161377
0.161093
0.160876
0.1607
0.16053
0.16033
0.16007
0.159732
0.15931
0.158818
0.158276
0.157715
0.157164
0.156649
0.156185
0.155776
0.155416
0.15509
0.154781
0.154473
0.154152
0.153811
0.15345
0.153071
0.152675
0.152266
0.151847
0.151417
0.150979
0.150536
0.150093
0.149654
0.149227
0.148819
0.148438
0.148096
0.147811
0.147621
0.147598
0.147851
0.148531
0.14979
0.151727
0.154332
0.157461
0.160854
0.164191
0.16716
0.16952
0.171132
0.171966
0.172098
0.171686
0.170949
0.170171
0.169726
0.170156
0.172257
0.17706
0.185575
0.198333
0.215056
0.234705
0.255844
0.277046
0.297147
0.315329
0.331083
0.344147
0.354425
0.361958
0.366748
0.369449
0.368024
0.174182
0.173568
0.172953
0.172336
0.17172
0.171105
0.170488
0.169864
0.169236
0.168613
0.168005
0.167422
0.166868
0.166339
0.165825
0.165314
0.164792
0.164248
0.163678
0.163079
0.162457
0.16182
0.161181
0.160551
0.159943
0.159369
0.158835
0.158344
0.157894
0.157475
0.157075
0.156679
0.156271
0.155839
0.155375
0.154878
0.154352
0.153806
0.153254
0.152707
0.152178
0.151672
0.15119
0.150729
0.150283
0.149844
0.149406
0.148965
0.14852
0.148074
0.14763
0.147195
0.146771
0.146363
0.14597
0.145595
0.145234
0.144885
0.144543
0.144203
0.143861
0.14351
0.143153
0.142795
0.142461
0.142193
0.142062
0.142152
0.142547
0.143293
0.144378
0.145721
0.14719
0.148624
0.149873
0.150823
0.151414
0.15164
0.15155
0.151233
0.150818
0.15048
0.150483
0.151236
0.153346
0.157557
0.164537
0.174584
0.187459
0.202447
0.218585
0.234891
0.250526
0.264852
0.277433
0.287997
0.296423
0.302612
0.306881
0.308538
0.174317
0.173712
0.173106
0.172499
0.171891
0.171283
0.170676
0.170067
0.169454
0.168837
0.168217
0.167595
0.166975
0.166357
0.16574
0.16512
0.164493
0.163858
0.16321
0.16255
0.16188
0.161205
0.16053
0.159863
0.159213
0.158587
0.157991
0.157428
0.156896
0.156393
0.155911
0.155442
0.154975
0.1545
0.15401
0.153498
0.152965
0.152413
0.151847
0.151276
0.150706
0.150145
0.149595
0.149057
0.148531
0.148014
0.147504
0.146998
0.146498
0.146005
0.145523
0.145055
0.144605
0.144177
0.14377
0.143383
0.143015
0.142658
0.142306
0.141949
0.141579
0.141186
0.140763
0.140307
0.139822
0.139324
0.138843
0.138421
0.138109
0.137951
0.137974
0.13817
0.138501
0.138902
0.139296
0.139613
0.1398
0.139833
0.139712
0.139463
0.139137
0.138807
0.138589
0.138672
0.139362
0.141099
0.144386
0.149641
0.157024
0.166362
0.177196
0.188906
0.200845
0.212428
0.223178
0.232735
0.240863
0.247379
0.252307
0.255938
0.174382
0.173784
0.173185
0.172585
0.171984
0.171382
0.170781
0.170179
0.169574
0.168964
0.168348
0.167725
0.167095
0.166458
0.165814
0.165163
0.164504
0.163838
0.163163
0.162481
0.161793
0.161103
0.160415
0.159734
0.159068
0.158421
0.1578
0.157207
0.156642
0.156104
0.155588
0.155086
0.154591
0.154093
0.153585
0.153062
0.152521
0.151962
0.151387
0.150802
0.150211
0.149621
0.149035
0.148456
0.147886
0.147324
0.146771
0.146226
0.145691
0.145167
0.144656
0.144162
0.143687
0.143233
0.1428
0.142386
0.141987
0.141599
0.141213
0.140819
0.140408
0.139969
0.139493
0.138975
0.138411
0.137808
0.137176
0.136537
0.135918
0.13535
0.13486
0.134463
0.134159
0.133932
0.133752
0.133587
0.133403
0.133177
0.132898
0.132565
0.132191
0.131803
0.131443
0.131191
0.131185
0.131646
0.132877
0.135203
0.138877
0.143985
0.150415
0.15788
0.16599
0.174328
0.182499
0.19016
0.197043
0.202932
0.207658
0.21207
0.174406
0.173811
0.173215
0.172619
0.172021
0.171423
0.170825
0.170225
0.169623
0.169017
0.168406
0.167787
0.16716
0.166524
0.16588
0.165227
0.164566
0.163896
0.163219
0.162536
0.161848
0.161158
0.16047
0.159788
0.159119
0.158466
0.157835
0.157228
0.156648
0.156091
0.155556
0.155035
0.154522
0.154009
0.153489
0.152958
0.152411
0.151847
0.151268
0.150677
0.150078
0.149476
0.148873
0.148274
0.147681
0.147095
0.146517
0.145948
0.145391
0.144845
0.144314
0.1438
0.143303
0.142825
0.142366
0.141924
0.141495
0.141072
0.14065
0.140218
0.139768
0.13929
0.138775
0.138216
0.137609
0.136955
0.136259
0.135532
0.134788
0.134047
0.133328
0.132649
0.132021
0.131448
0.130924
0.130437
0.129975
0.129522
0.129067
0.128604
0.12813
0.127651
0.127178
0.12674
0.126392
0.126232
0.126415
0.127139
0.128608
0.130974
0.13429
0.138484
0.143382
0.148742
0.154296
0.159781
0.164962
0.169643
0.173574
0.177775
0.17441
0.173815
0.17322
0.172624
0.172027
0.17143
0.170831
0.170232
0.16963
0.169025
0.168415
0.167799
0.167177
0.166546
0.165907
0.165259
0.164604
0.16394
0.16327
0.162594
0.161913
0.161231
0.160549
0.159873
0.159206
0.158554
0.157919
0.157306
0.156715
0.156146
0.155596
0.155061
0.154534
0.154009
0.153479
0.152941
0.15239
0.151824
0.151245
0.150653
0.150052
0.149446
0.148838
0.14823
0.147627
0.147028
0.146437
0.145855
0.145284
0.144724
0.144178
0.143648
0.143134
0.142636
0.142155
0.141687
0.14123
0.140778
0.140323
0.139859
0.139377
0.138867
0.138323
0.137737
0.137105
0.136427
0.135704
0.134943
0.134154
0.133347
0.132537
0.131738
0.130961
0.130215
0.129505
0.12883
0.128186
0.127569
0.126971
0.126385
0.125807
0.125233
0.124664
0.124105
0.123576
0.123115
0.122791
0.122706
0.122987
0.123758
0.125114
0.127087
0.129638
0.132663
0.136012
0.139515
0.142998
0.146308
0.149202
0.152596
0.174406
0.17381
0.173214
0.172617
0.172019
0.17142
0.17082
0.170219
0.169615
0.169009
0.168399
0.167784
0.167163
0.166536
0.165901
0.16526
0.164611
0.163955
0.163292
0.162625
0.161953
0.161279
0.160606
0.159937
0.159276
0.158625
0.15799
0.157372
0.156773
0.156194
0.155631
0.155082
0.154542
0.154005
0.153467
0.152921
0.152366
0.151799
0.15122
0.15063
0.150032
0.149426
0.148818
0.148209
0.147601
0.146998
0.146401
0.145812
0.145232
0.144663
0.144106
0.143564
0.143035
0.142522
0.142022
0.141533
0.141052
0.140574
0.140094
0.139603
0.139094
0.138561
0.137995
0.13739
0.136744
0.136054
0.135322
0.134552
0.13375
0.132924
0.132085
0.131242
0.130405
0.129584
0.128785
0.128011
0.127264
0.126543
0.125846
0.125167
0.124503
0.123849
0.1232
0.122557
0.121921
0.121307
0.120741
0.120269
0.119957
0.119882
0.120122
0.120734
0.121741
0.123124
0.124823
0.126747
0.12879
0.130845
0.13272
0.135089
0.1744
0.173803
0.173205
0.172606
0.172006
0.171405
0.170802
0.170199
0.169593
0.168984
0.168373
0.167757
0.167136
0.16651
0.165879
0.165241
0.164597
0.163946
0.163291
0.162631
0.161967
0.161301
0.160635
0.159973
0.159316
0.158668
0.158031
0.15741
0.156804
0.156215
0.155641
0.155079
0.154525
0.153977
0.153428
0.152875
0.152315
0.151746
0.151168
0.15058
0.149983
0.149381
0.148775
0.148167
0.14756
0.146955
0.146356
0.145763
0.145178
0.144603
0.144039
0.143487
0.142948
0.142421
0.141905
0.141399
0.140899
0.1404
0.139897
0.139385
0.138856
0.138304
0.137722
0.137105
0.13645
0.135755
0.135022
0.134252
0.133452
0.132626
0.131783
0.130931
0.130077
0.129229
0.128394
0.127575
0.126776
0.125998
0.12524
0.124501
0.123776
0.123061
0.122353
0.121649
0.120945
0.120246
0.119561
0.118907
0.118315
0.117825
0.117484
0.117339
0.117426
0.117762
0.118338
0.119122
0.120063
0.121096
0.122104
0.123465
0.174394
0.173795
0.173196
0.172595
0.171993
0.171389
0.170784
0.170178
0.169569
0.168958
0.168345
0.167727
0.167106
0.16648
0.165849
0.165214
0.164573
0.163926
0.163276
0.162621
0.161963
0.161303
0.160643
0.159985
0.159332
0.158685
0.158048
0.157423
0.156811
0.156212
0.155626
0.155052
0.154486
0.153925
0.153365
0.152804
0.152239
0.151666
0.151087
0.150499
0.149905
0.149305
0.148702
0.148096
0.14749
0.146887
0.146287
0.145692
0.145105
0.144526
0.143956
0.143397
0.142849
0.142311
0.141783
0.141262
0.140745
0.140229
0.139709
0.139179
0.138634
0.138067
0.137473
0.136847
0.136187
0.135491
0.13476
0.133996
0.133202
0.132384
0.131548
0.130701
0.129848
0.128996
0.12815
0.127315
0.126493
0.125687
0.124897
0.124122
0.123358
0.122604
0.121855
0.121107
0.120359
0.11961
0.118861
0.11812
0.117398
0.116714
0.116093
0.115563
0.115152
0.114883
0.114767
0.114802
0.114974
0.115249
0.115585
0.116076
0.174388
0.173789
0.173187
0.172585
0.171981
0.171375
0.170768
0.170159
0.169548
0.168934
0.168318
0.167699
0.167076
0.16645
0.16582
0.165185
0.164545
0.163902
0.163254
0.162603
0.161949
0.161294
0.160638
0.159983
0.159332
0.158686
0.158048
0.157419
0.1568
0.156193
0.155597
0.15501
0.154432
0.153859
0.153289
0.152719
0.152146
0.151569
0.150987
0.150399
0.149805
0.149207
0.148605
0.148002
0.147398
0.146795
0.146196
0.145601
0.145011
0.144429
0.143855
0.14329
0.142735
0.142188
0.141649
0.141115
0.140585
0.140055
0.13952
0.138976
0.138417
0.137838
0.137235
0.136603
0.13594
0.135245
0.134518
0.13376
0.132975
0.132168
0.131342
0.130504
0.12966
0.128813
0.127969
0.127131
0.126303
0.125486
0.12468
0.123885
0.123099
0.12232
0.121544
0.120769
0.119991
0.119211
0.118426
0.11764
0.116857
0.116085
0.115335
0.114622
0.113964
0.113376
0.112873
0.112462
0.112148
0.111912
0.111775
0.111585
0.174384
0.173783
0.17318
0.172576
0.17197
0.171362
0.170753
0.170142
0.169528
0.168913
0.168295
0.167674
0.16705
0.166423
0.165792
0.165157
0.164519
0.163877
0.163231
0.162583
0.161932
0.161279
0.160626
0.159973
0.159323
0.158677
0.158037
0.157405
0.15678
0.156165
0.155559
0.154962
0.154372
0.153788
0.153207
0.152628
0.152047
0.151464
0.150878
0.150288
0.149693
0.149095
0.148495
0.147892
0.14729
0.146688
0.146089
0.145493
0.144902
0.144318
0.14374
0.14317
0.142608
0.142053
0.141505
0.140961
0.140419
0.139877
0.139329
0.138773
0.138203
0.137615
0.137004
0.136368
0.135704
0.13501
0.134287
0.133536
0.132761
0.131964
0.131149
0.130323
0.129488
0.12865
0.127813
0.126979
0.126151
0.125331
0.124519
0.123714
0.122916
0.122122
0.12133
0.120536
0.11974
0.11894
0.118134
0.117324
0.11651
0.115697
0.114889
0.114093
0.113319
0.112576
0.111875
0.111223
0.110629
0.11008
0.109644
0.108972
0.174379
0.173777
0.173173
0.172568
0.17196
0.171351
0.17074
0.170127
0.169512
0.168894
0.168274
0.167652
0.167027
0.166398
0.165767
0.165132
0.164494
0.163853
0.163209
0.162562
0.161913
0.161262
0.16061
0.159959
0.15931
0.158664
0.158022
0.157385
0.156756
0.156134
0.15552
0.154913
0.154313
0.153718
0.153127
0.152538
0.151949
0.15136
0.150769
0.150175
0.149578
0.148979
0.148378
0.147776
0.147174
0.146572
0.145973
0.145376
0.144784
0.144197
0.143616
0.143042
0.142474
0.141912
0.141356
0.140803
0.140251
0.139698
0.13914
0.138573
0.137993
0.137397
0.136781
0.136141
0.135476
0.134784
0.134065
0.133321
0.132554
0.131767
0.130964
0.130148
0.129324
0.128496
0.127666
0.126838
0.126013
0.125194
0.12438
0.123571
0.122766
0.121964
0.121161
0.120357
0.119549
0.118735
0.117916
0.117092
0.116262
0.115428
0.114593
0.113761
0.112935
0.11212
0.111324
0.110551