/*--------------------------------*- C++ -*----------------------------------*\
  =========                 |
  \\      /  F ield         | OpenFOAM: The Open Source CFD Toolbox
   \\    /   O peration     | Website:  https://openfoam.org
    \\  /    A nd           | Version:  10
     \\/     M anipulation  |
\*---------------------------------------------------------------------------*/
FoamFile
{
    format      ascii;
    class       volScalarField;
    location    "1400";
    object      nut;
}
// * * * * * * * * * * * * * * * * * * * * * * * * * * * * * * * * * * * * * //

dimensions      [0 2 -1 0 0 0 0];

internalField   nonuniform List<scalar> 
6820
(
0.000149811
0.000146298
0.000143078
0.00013985
0.00013661
0.000133451
0.000130461
0.000127699
0.000125195
0.000122955
0.000120975
0.000119241
0.000117735
0.000116439
0.000115333
0.000114398
0.000113617
0.000112975
0.000112456
0.000112047
0.000111736
0.000111513
0.000111367
0.00011129
0.000111274
0.000111315
0.000111397
0.000111563
0.000111654
0.000111662
0.000113217
0.000112748
3.27947e-05
0.000736673
0.000548075
0.000464561
0.000414415
0.000380713
0.000356889
0.000339463
0.000326314
0.000316098
0.000307951
0.000301299
0.000295758
0.00029106
0.000287017
0.000283493
0.000280389
0.000277628
0.000275152
0.000272918
0.000270889
0.000269036
0.000267335
0.000265769
0.000264319
0.000262972
0.000261717
0.000260541
0.000259428
0.000258413
0.000257305
0.000256006
0.000257624
0.000214954
0.000977662
0.000873818
0.000783688
0.000713295
0.000659039
0.000616613
0.000582695
0.000554957
0.000531805
0.000512138
0.000495184
0.000480388
0.00046734
0.000455729
0.000445317
0.000435918
0.000427384
0.000419595
0.000412453
0.000405877
0.000399798
0.000394158
0.000388908
0.000384003
0.000379401
0.000375065
0.00037096
0.000367042
0.000363253
0.000359616
0.000355579
0.000352159
0.000343514
0.0010135
0.000988678
0.000949902
0.000906236
0.000863748
0.000825017
0.000790635
0.000760346
0.000733628
0.000709943
0.000688808
0.000669822
0.000652655
0.000637038
0.000622753
0.00060962
0.00059749
0.000586243
0.000575773
0.000565995
0.000556833
0.000548224
0.000540112
0.000532445
0.000525178
0.000518269
0.000511676
0.000505356
0.000499239
0.000493369
0.000487504
0.00048114
0.000475731
0.00101667
0.00101251
0.00100235
0.000986315
0.000966158
0.000943887
0.000921073
0.000898707
0.000877324
0.000857158
0.000838276
0.00082065
0.000804209
0.000788864
0.00077452
0.000761087
0.000748481
0.000736624
0.000725447
0.000714887
0.000704887
0.000695398
0.000686373
0.000677769
0.000669548
0.000661671
0.000654102
0.000646803
0.00063972
0.000632843
0.000626135
0.000619188
0.000612377
0.00101674
0.0010159
0.00101373
0.00100941
0.00100264
0.000993624
0.00098284
0.000970858
0.000958186
0.000945227
0.000932267
0.000919503
0.00090706
0.000895011
0.000883398
0.000872235
0.000861524
0.000851255
0.000841412
0.000831976
0.000822926
0.000814239
0.000805892
0.000797862
0.000790125
0.000782657
0.000775432
0.000768425
0.000761603
0.000754945
0.000748443
0.00074197
0.000735467
0.00101671
0.00101621
0.00101554
0.00101439
0.00101245
0.00100952
0.00100552
0.00100053
0.00099466
0.0009881
0.000981022
0.000973586
0.000965929
0.000958159
0.000950364
0.000942608
0.00093494
0.000927395
0.000919997
0.000912762
0.0009057
0.000898815
0.000892108
0.000885575
0.000879212
0.00087301
0.00086696
0.00086105
0.000855267
0.000849599
0.000844042
0.000838573
0.000833156
0.0010167
0.00101622
0.00101574
0.0010152
0.00101449
0.0010135
0.00101213
0.00101031
0.001008
0.00100522
0.00100199
0.000998378
0.000994431
0.000990216
0.000985789
0.000981203
0.000976506
0.000971735
0.000966924
0.0009621
0.000957285
0.000952495
0.000947746
0.000943045
0.0009384
0.000933814
0.000929291
0.000924829
0.000920429
0.000916089
0.000911812
0.000907599
0.000903448
0.0010167
0.00101621
0.00101574
0.00101528
0.00101481
0.00101429
0.00101367
0.00101292
0.00101199
0.00101086
0.0010095
0.00100792
0.00100611
0.0010041
0.00100189
0.00099951
0.000996985
0.000994335
0.00099158
0.000988741
0.000985835
0.000982878
0.000979883
0.000976863
0.000973828
0.000970785
0.000967741
0.000964702
0.000961674
0.00095866
0.000955668
0.000952702
0.000949771
0.0010167
0.00101621
0.00101574
0.00101528
0.00101484
0.0010144
0.00101395
0.00101348
0.00101296
0.00101239
0.00101174
0.001011
0.00101016
0.00100921
0.00100816
0.001007
0.00100574
0.00100438
0.00100294
0.00100141
0.000999813
0.000998152
0.000996436
0.000994672
0.000992867
0.000991029
0.000989163
0.000987275
0.000985372
0.000983458
0.00098154
0.000979622
0.000977715
0.0010167
0.00101621
0.00101574
0.00101528
0.00101484
0.0010144
0.00101398
0.00101357
0.00101315
0.00101273
0.00101229
0.00101183
0.00101134
0.00101081
0.00101024
0.00100963
0.00100897
0.00100826
0.0010075
0.00100669
0.00100584
0.00100494
0.001004
0.00100302
0.00100201
0.00100096
0.000999888
0.00099879
0.000997672
0.000996537
0.00099539
0.000994234
0.000993076
0.0010167
0.00101621
0.00101574
0.00101528
0.00101483
0.0010144
0.00101398
0.00101357
0.00101317
0.00101278
0.00101239
0.00101201
0.00101162
0.00101123
0.00101083
0.00101041
0.00100999
0.00100955
0.00100909
0.00100861
0.00100811
0.00100759
0.00100705
0.00100649
0.0010059
0.0010053
0.00100469
0.00100405
0.00100341
0.00100275
0.00100208
0.00100141
0.00100073
0.0010167
0.00101621
0.00101574
0.00101528
0.00101483
0.0010144
0.00101398
0.00101357
0.00101317
0.00101278
0.0010124
0.00101203
0.00101167
0.00101131
0.00101096
0.00101061
0.00101026
0.00100991
0.00100956
0.00100921
0.00100885
0.00100849
0.00100812
0.00100775
0.00100737
0.00100698
0.00100659
0.0010062
0.00100579
0.00100539
0.00100498
0.00100457
0.00100416
0.0010167
0.00101621
0.00101574
0.00101528
0.00101483
0.0010144
0.00101398
0.00101357
0.00101317
0.00101278
0.0010124
0.00101203
0.00101167
0.00101132
0.00101098
0.00101065
0.00101032
0.00101
0.00100968
0.00100937
0.00100906
0.00100875
0.00100845
0.00100815
0.00100785
0.00100756
0.00100726
0.00100697
0.00100667
0.00100638
0.0010061
0.00100581
0.00100553
0.0010167
0.00101621
0.00101574
0.00101528
0.00101483
0.0010144
0.00101397
0.00101356
0.00101316
0.00101278
0.0010124
0.00101203
0.00101167
0.00101132
0.00101098
0.00101065
0.00101032
0.00101001
0.0010097
0.0010094
0.0010091
0.00100882
0.00100853
0.00100826
0.00100799
0.00100772
0.00100746
0.00100721
0.00100696
0.00100671
0.00100648
0.00100624
0.00100602
0.0010167
0.00101621
0.00101574
0.00101528
0.00101483
0.0010144
0.00101397
0.00101356
0.00101316
0.00101277
0.0010124
0.00101203
0.00101167
0.00101132
0.00101098
0.00101065
0.00101032
0.00101001
0.0010097
0.0010094
0.00100911
0.00100883
0.00100855
0.00100828
0.00100802
0.00100776
0.00100751
0.00100727
0.00100704
0.00100681
0.00100658
0.00100637
0.00100616
0.0010167
0.00101621
0.00101574
0.00101528
0.00101483
0.0010144
0.00101397
0.00101356
0.00101316
0.00101277
0.00101239
0.00101202
0.00101167
0.00101132
0.00101097
0.00101064
0.00101032
0.00101001
0.0010097
0.0010094
0.00100911
0.00100883
0.00100855
0.00100828
0.00100802
0.00100777
0.00100752
0.00100728
0.00100705
0.00100683
0.00100661
0.0010064
0.00100619
0.0010167
0.00101621
0.00101574
0.00101528
0.00101483
0.00101439
0.00101397
0.00101356
0.00101316
0.00101277
0.00101239
0.00101202
0.00101166
0.00101131
0.00101097
0.00101064
0.00101032
0.00101
0.0010097
0.0010094
0.00100911
0.00100883
0.00100855
0.00100828
0.00100802
0.00100777
0.00100752
0.00100728
0.00100705
0.00100683
0.00100661
0.0010064
0.00100619
0.0010167
0.00101621
0.00101574
0.00101528
0.00101483
0.00101439
0.00101397
0.00101356
0.00101316
0.00101277
0.00101239
0.00101202
0.00101166
0.00101131
0.00101097
0.00101064
0.00101032
0.00101
0.0010097
0.0010094
0.00100911
0.00100882
0.00100855
0.00100828
0.00100802
0.00100777
0.00100752
0.00100728
0.00100705
0.00100682
0.0010066
0.00100639
0.00100619
0.0010167
0.00101621
0.00101574
0.00101528
0.00101483
0.00101439
0.00101397
0.00101356
0.00101316
0.00101277
0.00101239
0.00101202
0.00101166
0.00101131
0.00101097
0.00101064
0.00101032
0.00101
0.00100969
0.0010094
0.0010091
0.00100882
0.00100855
0.00100828
0.00100802
0.00100776
0.00100752
0.00100728
0.00100704
0.00100682
0.0010066
0.00100638
0.00100618
0.0010167
0.00101621
0.00101574
0.00101528
0.00101483
0.00101439
0.00101397
0.00101356
0.00101316
0.00101277
0.00101239
0.00101202
0.00101166
0.00101131
0.00101097
0.00101064
0.00101031
0.00101
0.00100969
0.00100939
0.0010091
0.00100882
0.00100854
0.00100828
0.00100802
0.00100776
0.00100751
0.00100727
0.00100704
0.00100681
0.00100659
0.00100638
0.00100617
0.0010167
0.00101621
0.00101574
0.00101528
0.00101483
0.00101439
0.00101397
0.00101356
0.00101316
0.00101277
0.00101239
0.00101202
0.00101166
0.00101131
0.00101097
0.00101064
0.00101031
0.00101
0.00100969
0.00100939
0.0010091
0.00100882
0.00100854
0.00100827
0.00100801
0.00100776
0.00100751
0.00100727
0.00100704
0.00100681
0.00100659
0.00100637
0.00100616
0.0010167
0.00101621
0.00101574
0.00101528
0.00101483
0.00101439
0.00101397
0.00101356
0.00101316
0.00101277
0.00101239
0.00101202
0.00101166
0.00101131
0.00101097
0.00101064
0.00101031
0.00101
0.00100969
0.00100939
0.0010091
0.00100882
0.00100854
0.00100827
0.00100801
0.00100776
0.00100751
0.00100727
0.00100703
0.0010068
0.00100658
0.00100636
0.00100615
0.0010167
0.00101621
0.00101574
0.00101528
0.00101483
0.00101439
0.00101397
0.00101356
0.00101316
0.00101277
0.00101239
0.00101202
0.00101166
0.00101131
0.00101097
0.00101063
0.00101031
0.00101
0.00100969
0.00100939
0.0010091
0.00100882
0.00100854
0.00100827
0.00100801
0.00100775
0.00100751
0.00100726
0.00100703
0.0010068
0.00100658
0.00100636
0.00100615
0.0010167
0.00101621
0.00101574
0.00101528
0.00101483
0.00101439
0.00101397
0.00101356
0.00101316
0.00101277
0.00101239
0.00101202
0.00101166
0.00101131
0.00101097
0.00101063
0.00101031
0.00101
0.00100969
0.00100939
0.0010091
0.00100882
0.00100854
0.00100827
0.00100801
0.00100775
0.0010075
0.00100726
0.00100703
0.0010068
0.00100657
0.00100635
0.00100614
0.0010167
0.00101621
0.00101574
0.00101528
0.00101483
0.00101439
0.00101397
0.00101356
0.00101316
0.00101277
0.00101239
0.00101202
0.00101166
0.00101131
0.00101097
0.00101063
0.00101031
0.00101
0.00100969
0.00100939
0.0010091
0.00100881
0.00100854
0.00100827
0.00100801
0.00100775
0.0010075
0.00100726
0.00100702
0.00100679
0.00100657
0.00100635
0.00100613
0.0010167
0.00101621
0.00101574
0.00101528
0.00101483
0.00101439
0.00101397
0.00101356
0.00101316
0.00101277
0.00101239
0.00101202
0.00101166
0.00101131
0.00101097
0.00101063
0.00101031
0.00100999
0.00100969
0.00100939
0.0010091
0.00100881
0.00100854
0.00100827
0.001008
0.00100775
0.0010075
0.00100726
0.00100702
0.00100679
0.00100656
0.00100634
0.00100613
0.0010167
0.00101621
0.00101574
0.00101528
0.00101483
0.00101439
0.00101397
0.00101356
0.00101316
0.00101277
0.00101239
0.00101202
0.00101166
0.00101131
0.00101097
0.00101063
0.00101031
0.00100999
0.00100969
0.00100939
0.0010091
0.00100881
0.00100854
0.00100827
0.001008
0.00100775
0.0010075
0.00100725
0.00100702
0.00100678
0.00100656
0.00100634
0.00100612
0.0010167
0.00101621
0.00101574
0.00101528
0.00101483
0.00101439
0.00101397
0.00101356
0.00101316
0.00101277
0.00101239
0.00101202
0.00101166
0.00101131
0.00101097
0.00101063
0.00101031
0.00100999
0.00100969
0.00100939
0.0010091
0.00100881
0.00100854
0.00100827
0.001008
0.00100775
0.00100749
0.00100725
0.00100701
0.00100678
0.00100655
0.00100633
0.00100612
0.0010167
0.00101621
0.00101574
0.00101528
0.00101483
0.00101439
0.00101397
0.00101356
0.00101316
0.00101277
0.00101239
0.00101202
0.00101166
0.00101131
0.00101097
0.00101063
0.00101031
0.00100999
0.00100969
0.00100939
0.0010091
0.00100881
0.00100853
0.00100826
0.001008
0.00100774
0.00100749
0.00100725
0.00100701
0.00100678
0.00100655
0.00100633
0.00100611
0.0010167
0.00101621
0.00101574
0.00101528
0.00101483
0.00101439
0.00101397
0.00101356
0.00101316
0.00101277
0.00101239
0.00101202
0.00101166
0.00101131
0.00101097
0.00101063
0.00101031
0.00100999
0.00100969
0.00100939
0.0010091
0.00100881
0.00100853
0.00100826
0.001008
0.00100774
0.00100749
0.00100724
0.001007
0.00100677
0.00100654
0.00100632
0.0010061
0.0010167
0.00101621
0.00101574
0.00101528
0.00101483
0.00101439
0.00101397
0.00101356
0.00101316
0.00101277
0.00101239
0.00101202
0.00101166
0.00101131
0.00101097
0.00101063
0.00101031
0.00100999
0.00100969
0.00100939
0.00100909
0.00100881
0.00100853
0.00100825
0.00100799
0.00100772
0.00100747
0.00100722
0.00100697
0.00100673
0.0010065
0.00100627
0.00100605
0.0010167
0.00101621
0.00101574
0.00101528
0.00101483
0.00101439
0.00101397
0.00101356
0.00101316
0.00101277
0.00101239
0.00101202
0.00101166
0.0010113
0.00101096
0.00101062
0.0010103
0.00100997
0.00100966
0.00100935
0.00100905
0.00100875
0.00100845
0.00100817
0.00100788
0.0010076
0.00100732
0.00100705
0.00100678
0.00100652
0.00100625
0.00100599
0.00100573
0.0010167
0.00101621
0.00101574
0.00101528
0.00101483
0.00101439
0.00101397
0.00101356
0.00101315
0.00101276
0.00101237
0.00101199
0.00101162
0.00101125
0.00101088
0.00101051
0.00101015
0.00100979
0.00100942
0.00100906
0.00100869
0.00100833
0.00100796
0.00100758
0.00100721
0.00100684
0.00100646
0.00100608
0.00100569
0.00100531
0.00100492
0.00100453
0.00100414
0.0010167
0.00101621
0.00101574
0.00101527
0.00101482
0.00101438
0.00101394
0.0010135
0.00101305
0.00101259
0.00101213
0.00101164
0.00101114
0.00101062
0.00101008
0.00100952
0.00100893
0.00100832
0.00100769
0.00100703
0.00100635
0.00100565
0.00100492
0.00100418
0.00100342
0.00100265
0.00100185
0.00100105
0.00100023
0.000999395
0.000998554
0.000997703
0.000996847
0.0010167
0.00101621
0.00101571
0.00101519
0.00101464
0.00101403
0.00101334
0.00101256
0.00101167
0.00101068
0.00100958
0.00100837
0.00100705
0.00100562
0.0010041
0.00100249
0.00100079
0.00099901
0.000997164
0.000995257
0.000993294
0.000991285
0.000989236
0.000987154
0.000985044
0.000982913
0.000980767
0.00097861
0.000976446
0.000974281
0.000972118
0.00096996
0.000967811
0.00101669
0.00101596
0.00101486
0.00101328
0.00101118
0.00100855
0.00100541
0.0010018
0.000997768
0.000993355
0.000988615
0.0009836
0.00097836
0.00097294
0.000967383
0.000961725
0.000956002
0.000950243
0.000944472
0.000938714
0.000932986
0.000927305
0.000921685
0.000916136
0.000910669
0.00090529
0.000900006
0.000894822
0.000889742
0.000884767
0.000879901
0.000875143
0.000870495
0.00101524
0.00100708
0.000994948
0.000980602
0.000964749
0.000947842
0.000930265
0.000912363
0.000894431
0.000876696
0.000859322
0.000842422
0.00082607
0.000810312
0.00079517
0.000780649
0.000766745
0.000753445
0.000740732
0.000728584
0.000716978
0.00070589
0.000695295
0.00068517
0.000675491
0.000666235
0.00065738
0.000648906
0.000640792
0.00063302
0.000625572
0.000618431
0.000611581
0.000934355
0.000813419
0.000726863
0.000658895
0.000603255
0.000556933
0.000518031
0.000485071
0.000456867
0.000432497
0.000411254
0.000392588
0.000376071
0.000361362
0.000348189
0.000336333
0.000325614
0.000315884
0.00030702
0.000298918
0.000291489
0.000284661
0.000278368
0.000272554
0.000267173
0.000262182
0.000257543
0.000253226
0.0002492
0.000245441
0.000241925
0.000238634
0.000235546
0.000125478
0.000128845
0.000132086
0.000135185
0.000138141
0.00014096
0.000143649
0.000146213
0.000148657
0.000150984
0.0001532
0.000155308
0.000157312
0.000159218
0.000161029
0.000162749
0.000164383
0.000165933
0.000167404
0.0001688
0.000170123
0.000171378
0.000172568
0.000173695
0.000174764
0.000175777
0.000176736
0.000177645
0.000178505
0.000179321
0.000180093
0.000180824
0.000181517
0.00107465
0.00147091
0.000708869
0.000417897
0.00041561
0.000478909
0.000547765
0.000611769
0.000667793
0.000713748
0.000749173
0.000774825
0.000792096
0.000802653
0.000808193
0.000810299
0.000810407
0.000809864
0.000810017
0.000812263
0.000818008
0.000828532
0.000844769
0.000867079
0.000895086
0.000927646
0.000962983
0.000998968
0.00103349
0.00106486
0.00109209
0.00111505
0.00113439
0.00115128
0.00116706
0.00118294
0.00119979
0.00121813
0.00123816
0.00125996
0.00128357
0.00130906
0.00133642
0.00136543
0.00139555
0.00142584
0.00145499
0.00148149
0.00150381
0.00152061
0.00153088
0.00153411
0.0015303
0.00151999
0.00150429
0.00148483
0.00146379
0.00144387
0.00142829
0.0014208
0.0014255
0.00144631
0.00148595
0.00154446
0.00161812
0.00169973
0.00178038
0.00185182
0.00190817
0.00194648
0.00196639
0.0019693
0.00195768
0.00193455
0.00190314
0.00186684
0.00182923
0.00179431
0.00176691
0.00175308
0.00176005
0.00179495
0.00186168
0.00195729
0.0020711
0.00218823
0.0022953
0.00238412
0.00245194
0.00249975
0.00253028
0.00254667
0.00255174
0.00254777
0.00253647
0.00251907
0.00249644
0.0024695
0.00243855
0.00239425
0.000617474
0.000882277
0.000794459
0.000517826
0.000305452
0.00028838
0.000355778
0.0004385
0.000512179
0.000572537
0.000620021
0.00065545
0.000679999
0.000695369
0.000703584
0.000706707
0.000706677
0.000705274
0.000704163
0.000704937
0.000709096
0.000717945
0.000732397
0.000752758
0.000778564
0.000808554
0.000840829
0.000873172
0.000903464
0.000930077
0.000952161
0.000969735
0.000983586
0.000994994
0.0010054
0.00101606
0.0010279
0.00104138
0.00105666
0.00107371
0.00109248
0.00111295
0.00113512
0.0011589
0.00118392
0.00120947
0.00123447
0.00125758
0.00127739
0.00129257
0.00130211
0.00130542
0.0013024
0.00129346
0.00127958
0.00126221
0.0012433
0.0012253
0.00121109
0.00120405
0.00120794
0.00122663
0.00126314
0.00131828
0.00138934
0.00146989
0.00155137
0.00162537
0.00168563
0.00172873
0.00175387
0.00176219
0.00175595
0.00173806
0.00171166
0.00168007
0.00164679
0.0016157
0.00159143
0.00157983
0.00158811
0.00162369
0.00169114
0.00178827
0.00190471
0.00202543
0.00213659
0.0022296
0.00230148
0.00235312
0.00238723
0.00240693
0.00241507
0.00241392
0.00240522
0.00239023
0.00236985
0.00234502
0.0023162
0.00227407
0.000360243
0.000430508
0.000482707
0.000501608
0.000470031
0.000312955
0.000225438
0.000251966
0.000318086
0.000388947
0.000449964
0.000497067
0.000530687
0.000552775
0.0005657
0.000571875
0.000573592
0.000572965
0.000571929
0.000572249
0.00057552
0.000583094
0.000595936
0.00061442
0.00063816
0.000665941
0.000695864
0.000725669
0.00075318
0.000776726
0.000795434
0.000809324
0.000819202
0.0008264
0.000832434
0.000838686
0.000846165
0.000855423
0.000866609
0.00087962
0.000894276
0.000910448
0.00092808
0.000947113
0.000967356
0.00098835
0.00100931
0.00102918
0.00104672
0.00106073
0.00107023
0.00107457
0.00107355
0.00106748
0.00105713
0.00104376
0.00102904
0.00101505
0.0010042
0.000999255
0.00100336
0.0010199
0.00105196
0.00110115
0.0011662
0.00124224
0.00132169
0.00139645
0.00145988
0.00150793
0.00153917
0.00155414
0.00155474
0.00154355
0.00152355
0.00149788
0.00146985
0.00144307
0.00142183
0.00141152
0.001419
0.00145188
0.00151575
0.00161005
0.00172579
0.00184833
0.00196332
0.00206131
0.00213859
0.00219557
0.00223471
0.00225904
0.00227139
0.00227406
0.00226885
0.00225706
0.00223962
0.00221755
0.00219148
0.00215209
0.000465455
0.000457909
0.000452028
0.000473617
0.000547805
0.000637897
0.000544926
0.000344341
0.000272202
0.000276665
0.000307988
0.000344724
0.000377105
0.000401507
0.000417624
0.000426749
0.000430796
0.000431793
0.000431654
0.000432101
0.000434654
0.000440612
0.000450969
0.000466263
0.00048638
0.000510441
0.00053684
0.000563501
0.00058829
0.000609456
0.000625976
0.0006377
0.000645289
0.00064999
0.00065331
0.000656691
0.000661248
0.000667641
0.000676073
0.000686416
0.000698385
0.000711706
0.000726196
0.00074176
0.000758297
0.000775576
0.000793134
0.000810254
0.000826026
0.000839484
0.000849768
0.000856277
0.000858773
0.000857444
0.000852906
0.000846169
0.000838578
0.000831732
0.000827417
0.000827587
0.000834397
0.000850263
0.00087773
0.000918813
0.000973756
0.00103991
0.00111176
0.00118235
0.00124524
0.00129584
0.00133188
0.00135311
0.00136075
0.00135688
0.0013441
0.00132524
0.0013033
0.00128153
0.00126369
0.00125447
0.00126004
0.00128778
0.00134427
0.00143115
0.00154186
0.00166303
0.00178014
0.00188265
0.00196569
0.00202878
0.0020739
0.00210383
0.0021213
0.00212865
0.00212768
0.00211979
0.00210598
0.00208726
0.00206452
0.00202847
0.000605619
0.000596988
0.000579872
0.0005654
0.000584567
0.000651867
0.000727907
0.00069708
0.000551478
0.000426594
0.000363107
0.000338252
0.000332491
0.000334492
0.000338326
0.000341325
0.000342711
0.000342718
0.000342038
0.000341505
0.000341945
0.000344126
0.000348755
0.000356435
0.000367547
0.00038206
0.000399338
0.000418092
0.000436609
0.000453193
0.000466621
0.000476413
0.000482872
0.000486906
0.000489754
0.000492681
0.000496729
0.000502557
0.0005104
0.000520135
0.000531431
0.000543907
0.000557253
0.00057128
0.000585893
0.000601
0.000616416
0.000631799
0.000646645
0.000660357
0.000672358
0.000682218
0.000689754
0.000695091
0.000698667
0.000701197
0.000703589
0.000706854
0.000712022
0.000720098
0.000732106
0.000749225
0.000772934
0.000804878
0.000846189
0.00089643
0.000952942
0.00101121
0.00106609
0.00111314
0.00114947
0.00117388
0.00118665
0.00118909
0.00118315
0.00117117
0.00115568
0.00113944
0.00112554
0.0011178
0.00112127
0.00114257
0.0011887
0.00126354
0.00136383
0.00147872
0.00159429
0.0016991
0.00178683
0.00185577
0.00190705
0.00194299
0.00196613
0.00197871
0.00198258
0.00197917
0.00196951
0.00195468
0.00193575
0.00190368
0.0007285
0.000721559
0.000711481
0.000696912
0.000688554
0.000700338
0.000731394
0.000756674
0.000741861
0.000680331
0.000602762
0.000535538
0.000485531
0.000450758
0.000427034
0.000410631
0.000398922
0.000390259
0.000383666
0.000378566
0.000374578
0.00037143
0.000368926
0.000366971
0.000365615
0.000365099
0.000365803
0.000368023
0.000371704
0.000376354
0.000381264
0.000385841
0.000389853
0.000393491
0.000397254
0.000401767
0.000407591
0.000415084
0.000424334
0.00043518
0.000447294
0.00046029
0.000473832
0.000487689
0.000501748
0.000515974
0.000530355
0.000544836
0.000559288
0.000573517
0.000587306
0.000600481
0.000612977
0.000624874
0.000636397
0.000647889
0.000659743
0.00067234
0.000685992
0.000700925
0.000717323
0.000735451
0.000755836
0.000779358
0.000807036
0.000839421
0.000875967
0.000914853
0.000953337
0.000988415
0.00101751
0.00103897
0.0010522
0.00105758
0.00105621
0.00104966
0.00103982
0.00102881
0.00101895
0.00101305
0.00101484
0.00102953
0.00106361
0.0011225
0.00120651
0.00130857
0.00141672
0.00151934
0.00160874
0.0016817
0.00173816
0.00177968
0.00180838
0.00182631
0.00183524
0.0018366
0.00183145
0.00182086
0.0018061
0.00177859
0.000826991
0.000820539
0.000813681
0.000804859
0.000795422
0.000790429
0.000793536
0.000801717
0.000805531
0.000795371
0.00076964
0.000734089
0.000695372
0.000658479
0.000626104
0.000599091
0.000577216
0.000559776
0.000545927
0.000534813
0.000525615
0.000517564
0.000509955
0.000502173
0.000493731
0.000484379
0.000474244
0.000463896
0.0004542
0.000446
0.000439862
0.000436012
0.000434447
0.000435075
0.000437805
0.00044256
0.000449241
0.000457693
0.00046767
0.000478848
0.000490865
0.000503373
0.000516095
0.000528853
0.000541574
0.000554268
0.000567
0.000579849
0.000592882
0.000606141
0.000619639
0.000633381
0.000647378
0.000661657
0.000676262
0.000691239
0.000706608
0.000722347
0.000738378
0.000754577
0.000770806
0.000786992
0.000803237
0.000819921
0.000837653
0.000856947
0.000877789
0.000899454
0.000920748
0.000940342
0.000956992
0.000969693
0.000977833
0.000981308
0.000980521
0.000976301
0.000969794
0.000962361
0.000955548
0.000951167
0.000951601
0.000960367
0.000982496
0.00102357
0.00108666
0.00116904
0.00126225
0.00135591
0.00144165
0.00151476
0.00157377
0.00161915
0.00165234
0.00167498
0.00168863
0.00169461
0.00169398
0.00168772
0.00167726
0.00165471
0.000898661
0.000893354
0.000888046
0.000882264
0.00087585
0.000869804
0.00086575
0.00086426
0.000863802
0.000861392
0.000854668
0.000843043
0.000827259
0.000808811
0.000789369
0.000770345
0.0007527
0.000736932
0.000723154
0.000711194
0.00070069
0.000691169
0.000682119
0.000673042
0.000663494
0.000653139
0.000641854
0.000629831
0.000617625
0.00060604
0.00059593
0.000587986
0.000582629
0.000580004
0.000580041
0.00058252
0.000587136
0.00059353
0.000601318
0.00061011
0.000619538
0.00062929
0.000639134
0.000648931
0.000658635
0.000668275
0.000677931
0.00068771
0.000697722
0.000708062
0.000718802
0.000729988
0.000741637
0.000753742
0.000766268
0.000779152
0.000792294
0.000805561
0.000818794
0.000831815
0.000844458
0.000856599
0.000868228
0.000879516
0.000890839
0.000902633
0.000915063
0.00092773
0.000939716
0.000949987
0.000957784
0.000962752
0.000964849
0.000964254
0.000961327
0.000956599
0.000950754
0.000944592
0.000939015
0.000935048
0.000934004
0.000937894
0.000949958
0.000974642
0.00101597
0.00107466
0.00114646
0.00122377
0.00129891
0.0013664
0.00142347
0.00146941
0.00150469
0.00153034
0.00154752
0.00155732
0.00156065
0.00155838
0.00155199
0.00153445
0.000946375
0.000942503
0.000938595
0.000934564
0.000930304
0.000925917
0.0009218
0.000918368
0.000915633
0.000913049
0.000909856
0.000905449
0.000899526
0.000892117
0.000883526
0.000874203
0.000864626
0.000855196
0.000846182
0.000837706
0.000829746
0.000822172
0.000814789
0.000807375
0.000799721
0.000791658
0.000783102
0.000774114
0.000764935
0.000755979
0.00074776
0.000740781
0.000735435
0.000731949
0.000730376
0.000730628
0.00073252
0.000735805
0.000740208
0.000745451
0.000751268
0.000757428
0.00076375
0.000770112
0.000776459
0.000782793
0.000789162
0.000795646
0.000802336
0.000809319
0.000816664
0.000824414
0.000832583
0.000841154
0.000850079
0.000859283
0.000868663
0.000878095
0.000887441
0.000896556
0.000905306
0.000913585
0.00092135
0.000928667
0.000935758
0.000942972
0.000950636
0.000958787
0.000966983
0.00097437
0.000980023
0.000983297
0.000983999
0.000982328
0.000978735
0.000973791
0.000968104
0.00096229
0.00095695
0.000952689
0.000950207
0.000950537
0.000955488
0.000967967
0.000991459
0.0010282
0.00107718
0.00113405
0.00119301
0.00124903
0.00129881
0.00134076
0.00137448
0.00140028
0.00141878
0.00143071
0.00143674
0.00143752
0.00143448
0.00142145
0.00097549
0.000972914
0.000970276
0.000967564
0.000964756
0.000961853
0.00095892
0.000956081
0.000953424
0.000950924
0.000948445
0.000945807
0.000942836
0.000939418
0.00093552
0.000931185
0.000926516
0.00092164
0.000916675
0.000911707
0.000906774
0.000901869
0.000896946
0.000891943
0.000886796
0.000881457
0.000875913
0.000870204
0.000864442
0.000858816
0.000853563
0.000848938
0.000845157
0.000842369
0.000840641
0.000839962
0.000840265
0.000841441
0.00084336
0.000845882
0.000848865
0.000852178
0.000855706
0.00085936
0.000863085
0.000866859
0.000870697
0.000874638
0.000878738
0.00088306
0.00088766
0.000892578
0.000897831
0.000903412
0.000909286
0.000915394
0.000921657
0.000927978
0.00093425
0.000940361
0.000946204
0.00095169
0.000956762
0.000961425
0.00096578
0.000970042
0.000974505
0.000979419
0.000984815
0.000990386
0.000995531
0.000999552
0.00100191
0.00100235
0.00100098
0.000998123
0.000994254
0.000989887
0.000985522
0.00098162
0.000978635
0.00097714
0.000978102
0.000983237
0.000995014
0.00101581
0.00104635
0.00108472
0.00112708
0.00116934
0.00120846
0.00124266
0.00127114
0.00129376
0.00131072
0.00132237
0.00132913
0.00133135
0.00133041
0.00132066
0.000991715
0.000990122
0.000988471
0.00098676
0.000984987
0.000983153
0.000981268
0.000979354
0.000977442
0.000975549
0.00097367
0.000971778
0.00096983
0.000967782
0.000965595
0.000963251
0.000960747
0.000958101
0.000955339
0.000952486
0.000949562
0.000946577
0.00094353
0.000940413
0.000937221
0.000933955
0.000930628
0.000927274
0.00092395
0.000920738
0.000917739
0.000915058
0.000912786
0.000910991
0.000909708
0.000908944
0.000908679
0.000908879
0.000909501
0.000910493
0.0009118
0.000913364
0.00091513
0.000917044
0.000919069
0.000921179
0.000923371
0.000925658
0.000928068
0.00093064
0.000933414
0.000936423
0.000939687
0.00094321
0.000946974
0.000950941
0.000955057
0.000959248
0.000963435
0.000967527
0.00097144
0.000975093
0.000978428
0.000981417
0.000984087
0.000986541
0.000988957
0.000991562
0.000994545
0.000997956
0.00100164
0.00100524
0.00100832
0.0010105
0.00101153
0.0010114
0.00101025
0.00100834
0.001006
0.00100358
0.00100139
0.000999793
0.000999342
0.001001
0.00100634
0.00101732
0.00103538
0.00106032
0.00108998
0.00112112
0.00115079
0.00117709
0.00119914
0.00121675
0.00123004
0.00123926
0.00124469
0.00124648
0.00124605
0.00123775
0.000999925
0.000998982
0.000997997
0.000996968
0.000995897
0.000994783
0.000993629
0.000992437
0.00099121
0.000989952
0.000988666
0.000987353
0.000986009
0.000984625
0.000983191
0.000981698
0.000980138
0.000978508
0.000976809
0.000975046
0.000973226
0.000971357
0.000969446
0.000967504
0.000965542
0.000963574
0.000961621
0.000959706
0.000957859
0.000956114
0.000954506
0.000953071
0.000951836
0.000950818
0.000950027
0.000949461
0.000949118
0.000948989
0.000949068
0.000949347
0.000949813
0.000950453
0.000951246
0.000952171
0.000953206
0.000954336
0.000955553
0.000956859
0.000958266
0.000959796
0.000961475
0.000963327
0.000965371
0.000967614
0.00097005
0.000972657
0.000975398
0.000978222
0.000981066
0.00098386
0.000986534
0.000989019
0.000991258
0.000993212
0.000994873
0.000996278
0.000997514
0.00099872
0.00100006
0.00100168
0.00100363
0.00100585
0.00100818
0.00101038
0.00101221
0.00101349
0.00101416
0.00101424
0.00101385
0.00101315
0.00101233
0.0010116
0.00101124
0.00101178
0.00101413
0.00101963
0.00102973
0.00104527
0.00106571
0.00108909
0.00111273
0.0011343
0.00115238
0.00116646
0.0011766
0.00118315
0.00118651
0.00118682
0.00118578
0.00117724
0.00100367
0.00100311
0.00100251
0.0010019
0.00100125
0.00100058
0.000999881
0.000999154
0.000998395
0.000997601
0.000996771
0.000995903
0.000994998
0.000994056
0.000993076
0.000992058
0.000991
0.000989901
0.000988761
0.000987582
0.00098637
0.00098513
0.000983874
0.000982614
0.000981367
0.000980149
0.000978979
0.000977875
0.000976851
0.000975922
0.000975094
0.000974371
0.000973751
0.00097323
0.0009728
0.000972455
0.000972191
0.000972008
0.000971911
0.000971908
0.000972004
0.000972204
0.00097251
0.000972916
0.000973416
0.000974003
0.000974672
0.000975424
0.000976264
0.000977205
0.000978261
0.00097945
0.000980786
0.000982275
0.000983917
0.000985698
0.000987593
0.000989564
0.000991564
0.000993538
0.000995428
0.000997174
0.000998726
0.00100004
0.00100111