/*--------------------------------*- C++ -*----------------------------------*\
  =========                 |
  \\      /  F ield         | OpenFOAM: The Open Source CFD Toolbox
   \\    /   O peration     | Website:  https://openfoam.org
    \\  /    A nd           | Version:  10
     \\/     M anipulation  |
\*---------------------------------------------------------------------------*/
FoamFile
{
    format      ascii;
    class       volScalarField;
    location    "1400";
    object      p;
}
// * * * * * * * * * * * * * * * * * * * * * * * * * * * * * * * * * * * * * //

dimensions      [0 2 -2 0 0 0 0];

internalField   nonuniform List<scalar> 
6820
(
-7.79195
-8.56328
-9.01034
-9.15678
-9.23453
-9.29858
-9.34283
-9.37157
-9.39315
-9.41127
-9.42672
-9.43999
-9.45161
-9.46189
-9.47094
-9.47878
-9.48538
-9.49066
-9.49446
-9.49659
-9.49676
-9.49459
-9.48956
-9.48095
-9.46776
-9.44856
-9.42118
-9.38228
-9.32684
-9.24612
-9.11981
-8.94835
-8.67842
-9.34641
-9.49143
-9.46701
-9.39762
-9.36914
-9.3734
-9.38503
-9.39641
-9.40838
-9.42091
-9.43302
-9.44419
-9.45439
-9.46363
-9.47189
-9.47907
-9.48512
-9.48992
-9.49332
-9.49513
-9.49507
-9.49278
-9.48779
-9.47944
-9.46685
-9.44881
-9.42345
-9.38865
-9.33903
-9.27318
-9.16927
-9.03898
-8.74379
-9.35013
-9.2146
-9.21457
-9.24822
-9.28309
-9.31938
-9.3503
-9.37396
-9.39327
-9.41013
-9.42492
-9.43786
-9.44926
-9.45939
-9.46832
-9.47608
-9.48265
-9.48794
-9.49184
-9.49417
-9.49469
-9.49306
-9.48886
-9.48153
-9.47031
-9.4542
-9.43177
-9.40143
-9.36002
-9.30669
-9.23324
-9.15752
-9.06903
-9.2806
-9.20291
-9.24694
-9.29357
-9.31858
-9.34206
-9.36481
-9.38367
-9.39978
-9.41446
-9.42785
-9.43992
-9.45079
-9.46059
-9.46935
-9.47703
-9.4836
-9.48898
-9.49304
-9.49562
-9.4965
-9.49542
-9.49201
-9.48582
-9.47627
-9.46269
-9.44418
-9.42
-9.38896
-9.35252
-9.31165
-9.28609
-9.30015
-9.27422
-9.24463
-9.274
-9.30494
-9.3234
-9.34364
-9.36513
-9.38378
-9.39988
-9.41454
-9.42795
-9.44007
-9.451
-9.46087
-9.46972
-9.47754
-9.48429
-9.4899
-9.49429
-9.49731
-9.49878
-9.4985
-9.49618
-9.49153
-9.48417
-9.47373
-9.45989
-9.44267
-9.42251
-9.40239
-9.38738
-9.39391
-9.44436
-9.28232
-9.26812
-9.2839
-9.30879
-9.32804
-9.34767
-9.3679
-9.38588
-9.40159
-9.41593
-9.4291
-9.44109
-9.45197
-9.46186
-9.47078
-9.47873
-9.48568
-9.49159
-9.49636
-9.49991
-9.50209
-9.50276
-9.50174
-9.49887
-9.49398
-9.48702
-9.47813
-9.46796
-9.45795
-9.45169
-9.45513
-9.48021
-9.54227
-9.29032
-9.28269
-9.29375
-9.31556
-9.33443
-9.35252
-9.37103
-9.38811
-9.40337
-9.41737
-9.43031
-9.4422
-9.45306
-9.46299
-9.47202
-9.48015
-9.48737
-9.49362
-9.49887
-9.50303
-9.50604
-9.5078
-9.50825
-9.50734
-9.50511
-9.50176
-9.49777
-9.4942
-9.49295
-9.49751
-9.51323
-9.54819
-9.6117
-9.29855
-9.29532
-9.30453
-9.32304
-9.3405
-9.35718
-9.37428
-9.39052
-9.40532
-9.41898
-9.4317
-9.44347
-9.45432
-9.46431
-9.47347
-9.48181
-9.48932
-9.49598
-9.50176
-9.50663
-9.51055
-9.5135
-9.51551
-9.51665
-9.5171
-9.51727
-9.51786
-9.52009
-9.52593
-9.53844
-9.56182
-9.6013
-9.66203
-9.30722
-9.30668
-9.31471
-9.33031
-9.34633
-9.36189
-9.37779
-9.39319
-9.40748
-9.42079
-9.43328
-9.44493
-9.45576
-9.46581
-9.47512
-9.48369
-9.49153
-9.49862
-9.50498
-9.5106
-9.51548
-9.51968
-9.52329
-9.52646
-9.52952
-9.53297
-9.53761
-9.54468
-9.55599
-9.57401
-9.6018
-9.6426
-9.699
-9.316
-9.3169
-9.32412
-9.3375
-9.35214
-9.36667
-9.38149
-9.39606
-9.40983
-9.42279
-9.43503
-9.44656
-9.45737
-9.46749
-9.47695
-9.48577
-9.49395
-9.50152
-9.50848
-9.51488
-9.52075
-9.5262
-9.53138
-9.53651
-9.54199
-9.54836
-9.55644
-9.56738
-9.58271
-9.60433
-9.63433
-9.67461
-9.72631
-9.32465
-9.32625
-9.3329
-9.34457
-9.3579
-9.37145
-9.3853
-9.39909
-9.41234
-9.42495
-9.43696
-9.44836
-9.45915
-9.46934
-9.47896
-9.48804
-9.49658
-9.50463
-9.51221
-9.51939
-9.52625
-9.53292
-9.53959
-9.54654
-9.55418
-9.56307
-9.57398
-9.58789
-9.60603
-9.62978
-9.66054
-9.69932
-9.74646
-9.33301
-9.33492
-9.34111
-9.35144
-9.36357
-9.3762
-9.38919
-9.40226
-9.415
-9.42726
-9.43904
-9.45032
-9.46108
-9.47135
-9.48114
-9.49047
-9.49938
-9.50791
-9.51611
-9.52406
-9.53187
-9.53969
-9.54775
-9.55634
-9.56586
-9.57685
-9.58997
-9.60605
-9.62603
-9.65088
-9.68145
-9.71824
-9.76119
-9.34102
-9.34303
-9.34879
-9.35806
-9.36912
-9.3809
-9.39312
-9.40553
-9.41778
-9.4297
-9.44125
-9.45241
-9.46315
-9.47349
-9.48345
-9.49304
-9.50232
-9.51132
-9.52012
-9.52881
-9.53751
-9.5464
-9.55571
-9.56572
-9.57683
-9.58949
-9.6043
-9.62188
-9.64295
-9.66813
-9.69795
-9.73255
-9.77171
-9.34863
-9.35061
-9.35599
-9.36438
-9.37452
-9.38551
-9.39704
-9.40884
-9.42063
-9.43222
-9.44356
-9.4546
-9.46533
-9.47574
-9.48586
-9.49571
-9.50534
-9.5148
-9.52417
-9.53355
-9.54308
-9.55293
-9.56333
-9.57455
-9.58694
-9.6009
-9.61691
-9.63545
-9.65702
-9.68203
-9.71074
-9.74313
-9.77889
-9.35581
-9.35772
-9.36272
-9.3704
-9.37974
-9.39002
-9.40091
-9.41217
-9.42353
-9.43481
-9.44594
-9.45687
-9.46758
-9.47807
-9.48835
-9.49845
-9.50841
-9.5183
-9.5282
-9.53821
-9.54848
-9.55917
-9.57049
-9.5827
-9.5961
-9.61102
-9.62782
-9.64689
-9.66853
-9.69301
-9.72042
-9.75065
-9.78339
-9.36255
-9.36436
-9.36902
-9.3761
-9.38475
-9.39439
-9.40471
-9.41547
-9.42643
-9.43743
-9.44836
-9.45919
-9.46989
-9.48044
-9.49087
-9.5012
-9.51148
-9.52176
-9.53214
-9.54272
-9.55363
-9.56503
-9.57711
-9.5901
-9.60424
-9.61981
-9.63709
-9.65633
-9.67774
-9.70145
-9.72748
-9.75566
-9.7857
-9.36883
-9.37054
-9.37488
-9.38145
-9.38951
-9.39859
-9.4084
-9.41871
-9.42931
-9.44004
-9.45079
-9.46153
-9.47221
-9.48283
-9.49339
-9.50393
-9.51449
-9.52513
-9.53594
-9.547
-9.55845
-9.57044
-9.58312
-9.59669
-9.61135
-9.62731
-9.64478
-9.66393
-9.68488
-9.70769
-9.73231
-9.75856
-9.78617
-9.37465
-9.37626
-9.38032
-9.38646
-9.39401
-9.40258
-9.41194
-9.42185
-9.43212
-9.44261
-9.4532
-9.46384
-9.47451
-9.48518
-9.49587
-9.5066
-9.51741
-9.52836
-9.53952
-9.551
-9.56289
-9.57533
-9.58846
-9.60243
-9.61741
-9.63355
-9.651
-9.66986
-9.6902
-9.71201
-9.73523
-9.75968
-9.78512
-9.38
-9.38151
-9.38533
-9.39109
-9.3982
-9.40634
-9.4153
-9.42486
-9.43484
-9.44509
-9.45553
-9.4661
-9.47675
-9.48747
-9.49826
-9.50915
-9.52018
-9.53139
-9.54285
-9.55466
-9.56689
-9.57967
-9.5931
-9.60732
-9.62244
-9.63858
-9.65583
-9.67426
-9.69388
-9.71466
-9.73652
-9.75929
-9.78277
-9.38487
-9.3863
-9.3899
-9.39533
-9.40207
-9.40983
-9.41844
-9.42768
-9.4374
-9.44746
-9.45777
-9.46825
-9.47889
-9.48964
-9.50053
-9.51155
-9.52276
-9.53418
-9.54588
-9.55793
-9.57041
-9.58341
-9.59703
-9.61135
-9.62647
-9.64247
-9.65939
-9.67728
-9.69612
-9.71586
-9.7364
-9.75761
-9.77931
-9.38925
-9.3906
-9.39401
-9.39916
-9.40558
-9.41302
-9.42132
-9.43029
-9.43979
-9.44967
-9.45985
-9.47027
-9.48089
-9.49167
-9.50263
-9.51376
-9.5251
-9.53669
-9.54856
-9.56079
-9.57343
-9.58655
-9.60024
-9.61455
-9.62955
-9.64529
-9.66179
-9.67906
-9.69708
-9.71578
-9.73508
-9.75483
-9.77491
-9.39311
-9.3944
-9.39764
-9.40256
-9.40871
-9.41587
-9.42391
-9.43265
-9.44195
-9.45168
-9.46176
-9.47211
-9.48271
-9.49351
-9.50452
-9.51574
-9.52718
-9.53887
-9.55086
-9.56319
-9.57591
-9.58908
-9.60273
-9.61693
-9.63172
-9.64711
-9.66312
-9.67973
-9.69691
-9.7146
-9.7327
-9.75111
-9.76971
-9.39645
-9.39769
-9.40078
-9.40549
-9.41142
-9.41835
-9.42616
-9.43471
-9.44384
-9.45344
-9.46343
-9.47373
-9.48431
-9.49512
-9.50617
-9.51744
-9.52895
-9.54071
-9.55276
-9.56514
-9.57786
-9.59099
-9.60454
-9.61855
-9.63304
-9.64802
-9.66348
-9.67941
-9.69575
-9.71245
-9.72943
-9.74658
-9.76382
-9.39924
-9.40042
-9.4034
-9.40794
-9.41367
-9.42041
-9.42804
-9.43643
-9.44542
-9.45492
-9.46484
-9.47509
-9.48565
-9.49647
-9.50754
-9.51884
-9.53038
-9.54218
-9.55424
-9.5666
-9.57927
-9.59229
-9.60567
-9.61942
-9.63356
-9.64809
-9.66298
-9.6782
-9.69372
-9.70947
-9.72538
-9.74137
-9.75736
-9.40145
-9.40259
-9.40546
-9.40986
-9.41543
-9.42201
-9.4295
-9.43776
-9.44665
-9.45607
-9.46593
-9.47616
-9.4867
-9.49752
-9.50859
-9.51991
-9.53146
-9.54324
-9.55528
-9.56758
-9.58015
-9.59301
-9.60616
-9.61961
-9.63336
-9.6474
-9.6617
-9.67622
-9.69093
-9.70578
-9.72069
-9.73559
-9.75042
-9.40305
-9.40416
-9.40693
-9.4112
-9.41665
-9.42311
-9.4305
-9.43866
-9.44749
-9.45685
-9.46667
-9.47688
-9.48741
-9.49823
-9.50931
-9.52062
-9.53215
-9.5439
-9.55588
-9.56808
-9.5805
-9.59316
-9.60605
-9.61917
-9.6325
-9.64603
-9.65973
-9.67356
-9.6875
-9.70148
-9.71544
-9.72934
-9.7431
-9.404
-9.40508
-9.40777
-9.41194
-9.41728
-9.42366
-9.43097
-9.43909
-9.44787
-9.45722
-9.46703
-9.47723
-9.48777
-9.49859
-9.50965
-9.52095
-9.53245
-9.54415
-9.55603
-9.5681
-9.58036
-9.59279
-9.60538
-9.61814
-9.63104
-9.64406
-9.65717
-9.67034
-9.68352
-9.69668
-9.70977
-9.72273
-9.73551
-9.40428
-9.40532
-9.40794
-9.412
-9.41727
-9.4236
-9.43088
-9.43898
-9.44777
-9.45712
-9.46695
-9.47717
-9.48772
-9.49855
-9.50961
-9.52088
-9.53234
-9.54396
-9.55574
-9.56766
-9.57972
-9.59189
-9.60418
-9.61657
-9.62902
-9.64153
-9.65407
-9.66659
-9.67906
-9.69145
-9.70371
-9.7158
-9.72767
-9.40384
-9.40485
-9.40736
-9.41133
-9.41654
-9.42285
-9.43015
-9.43829
-9.44712
-9.45652
-9.4664
-9.47667
-9.48725
-9.49811
-9.50918
-9.52043
-9.53185
-9.54339
-9.55506
-9.56682
-9.57867
-9.5906
-9.60257
-9.61459
-9.62662
-9.63863
-9.65061
-9.66252
-9.67433
-9.68599
-9.69749
-9.70877
-9.7198
-9.40265
-9.4036
-9.406
-9.40985
-9.41501
-9.42136
-9.42873
-9.43695
-9.44587
-9.45537
-9.46534
-9.47568
-9.48632
-9.4972
-9.50828
-9.51951
-9.53086
-9.54232
-9.55385
-9.56545
-9.57708
-9.58873
-9.60039
-9.61204
-9.62364
-9.63518
-9.64662
-9.65795
-9.66913
-9.68012
-9.69091
-9.70145
-9.71172
-9.40069
-9.40155
-9.40375
-9.40744
-9.4126
-9.41904
-9.42653
-9.43489
-9.44398
-9.45365
-9.46378
-9.47427
-9.48503
-9.49601
-9.50715
-9.51841
-9.52975
-9.54115
-9.55259
-9.56403
-9.57547
-9.58688
-9.59825
-9.60954
-9.62075
-9.63184
-9.64279
-9.65357
-9.66417
-9.67454
-9.68467
-9.69452
-9.70406
-9.39796
-9.39866
-9.40051
-9.40397
-9.40915
-9.41579
-9.4235
-9.43206
-9.44133
-9.45116
-9.46141
-9.47199
-9.48281
-9.49382
-9.50497
-9.5162
-9.52749
-9.5388
-9.55011
-9.5614
-9.57263
-9.58381
-9.59489
-9.60586
-9.61669
-9.62737
-9.63787
-9.64817
-9.65824
-9.66807
-9.67762
-9.68689
-9.69585
-9.39453
-9.39491
-9.39614
-9.39922
-9.40447
-9.4114
-9.41952
-9.4286
-9.43843
-9.4488
-9.45953
-9.4705
-9.48165
-9.4929
-9.50422
-9.51555
-9.52687
-9.53816
-9.54938
-9.56053
-9.57157
-9.5825
-9.59329
-9.60392
-9.61438
-9.62464
-9.63468
-9.64448
-9.65402
-9.66329
-9.67225
-9.68089
-9.68917
-9.39063
-9.39024
-9.39032
-9.39309
-9.39863
-9.40567
-9.41361
-9.4225
-9.43225
-9.4426
-9.45334
-9.46437
-9.47559
-9.48694
-9.49835
-9.50977
-9.52117
-9.53251
-9.54376
-9.5549
-9.56591
-9.57676
-9.58743
-9.59792
-9.60819
-9.61822
-9.62801
-9.63752
-9.64675
-9.65568
-9.66429
-9.67259
-9.68056
-9.38691
-9.3847
-9.38189
-9.38428
-9.39188
-9.40161
-9.412
-9.42293
-9.43427
-9.44577
-9.4573
-9.46883
-9.48033
-9.49177
-9.50313
-9.51439
-9.52554
-9.53657
-9.54745
-9.55818
-9.56874
-9.57911
-9.58928
-9.59924
-9.60895
-9.61841
-9.62761
-9.63651
-9.64512
-9.6534
-9.66135
-9.66893
-9.67611
-9.38457
-9.37947
-9.37199
-9.36982
-9.37261
-9.37845
-9.38689
-9.3974
-9.40907
-9.42127
-9.43377
-9.44645
-9.45917
-9.47182
-9.48435
-9.49673
-9.50892
-9.52091
-9.53267
-9.54418
-9.55544
-9.56644
-9.57715
-9.58757
-9.59768
-9.60748
-9.61695
-9.62607
-9.63485
-9.64327
-9.65133
-9.65905
-9.66643
-9.3852
-9.36532
-9.3682
-9.38812
-9.40508
-9.41627
-9.42647
-9.43734
-9.44818
-9.45866
-9.46895
-9.47922
-9.48947
-9.49969
-9.50987
-9.51999
-9.53005
-9.54003
-9.54989
-9.55963
-9.56922
-9.57863
-9.58786
-9.59687
-9.60565
-9.61418
-9.62244
-9.63041
-9.63807
-9.64541
-9.65241
-9.65903
-9.66526
-9.42283
-9.29962
-9.23659
-9.24039
-9.26298
-9.28502
-9.30673
-9.32897
-9.35071
-9.3713
-9.39076
-9.40921
-9.42673
-9.44339
-9.45928
-9.47446
-9.48902
-9.50298
-9.51639
-9.52929
-9.54168
-9.5536
-9.56506
-9.57606
-9.58662
-9.59673
-9.60639
-9.61562
-9.6244
-9.63275
-9.64066
-9.64814
-9.6552
-9.58286
-9.59605
-9.55482
-9.51282
-9.48908
-9.47888
-9.47479
-9.47336
-9.47412
-9.47706
-9.48177
-9.4877
-9.49449
-9.50195
-9.50993
-9.51828
-9.52689
-9.53567
-9.54453
-9.55342
-9.56227
-9.57105
-9.5797
-9.5882
-9.59652
-9.60461
-9.61246
-9.62004
-9.62733
-9.63431
-9.64098
-9.6473
-9.65327
-8.41868
-8.71904
-8.98417
-9.11028
-9.17555
-9.23202
-9.28201
-9.32093
-9.35129
-9.37699
-9.39976
-9.42011
-9.43849
-9.45536
-9.47109
-9.48588
-9.49986
-9.51315
-9.52583
-9.53796
-9.54957
-9.56069
-9.57135
-9.58156
-9.59133
-9.60067
-9.60958
-9.61805
-9.6261
-9.63371
-9.6409
-9.64765
-9.65398
-9.22118
-9.95397
-10.1345
-10.3915
-10.5866
-10.6851
-10.7253
-10.7429
-10.7475
-10.7401
-10.7261
-10.7126
-10.7047
-10.7043
-10.7111
-10.723
-10.736
-10.7457
-10.7485
-10.7434
-10.7326
-10.7206
-10.7132
-10.7158
-10.7323
-10.7643
-10.8101
-10.8654
-10.923
-10.9747
-11.0121
-11.0279
-11.017
-10.9767
-10.9069
-10.8091
-10.6863
-10.542
-10.3798
-10.2029
-10.0142
-9.81609
-9.61059
-9.39914
-9.18265
-8.96149
-8.73542
-8.50367
-8.26505
-8.01808
-7.76126
-7.49319
-7.21287
-6.91977
-6.61409
-6.29679
-5.96967
-5.63542
-5.2976
-4.96055
-4.62922
-4.30882
-4.00437
-3.72001
-3.45847
-3.22068
-3.00589
-2.81201
-2.63617
-2.47526
-2.32625
-2.18638
-2.05323
-1.92473
-1.79914
-1.67506
-1.55141
-1.42753
-1.3033
-1.17922
-1.0566
-0.93753
-0.824589
-0.720274
-0.626346
-0.543474
-0.471261
-0.40865
-0.354295
-0.306899
-0.265287
-0.228519
-0.195655
-0.166152
-0.138832
-0.113931
-0.0887731
-0.065811
-0.0387052
-0.0130551
-9.03872
-10.1699
-10.4832
-10.5503
-10.5877
-10.5994
-10.6078
-10.6281
-10.6515
-10.6671
-10.6737
-10.6762
-10.6788
-10.6837
-10.6916
-10.7019
-10.7124
-10.7197
-10.7205
-10.7141
-10.7023
-10.6897
-10.6821
-10.6849
-10.7016
-10.7335
-10.7788
-10.8329
-10.8888
-10.9384
-10.9734
-10.9866
-10.9733
-10.9309
-10.8594
-10.7604
-10.6371
-10.4929
-10.3312
-10.1553
-9.96792
-9.77145
-9.56775
-9.35825
-9.14387
-8.92495
-8.70128
-8.47207
-8.23613
-7.99196
-7.73803
-7.47292
-7.19557
-6.90548
-6.60281
-6.28849
-5.96433
-5.63298
-5.29792
-4.96342
-4.63435
-4.31586
-4.01299
-3.72997
-3.46967
-3.23319
-3.01984
-2.82754
-2.65337
-2.49411
-2.34658
-2.20794
-2.07568
-1.94766
-1.82213
-1.69767
-1.57321
-1.44812
-1.32227
-1.19623
-1.07139
-0.949956
-0.83467
-0.728198
-0.632423
-0.548068
-0.47473
-0.411304
-0.356394
-0.308653
-0.266863
-0.230044
-0.197222
-0.167829
-0.140618
-0.115912
-0.0906478
-0.0682729
-0.0394337
-0.0178744
-9.32546
-10.0818
-10.4212
-10.5066
-10.5342
-10.5352
-10.5336
-10.5495
-10.578
-10.6054
-10.6257
-10.6398
-10.6502
-10.659
-10.6677
-10.6769
-10.6855
-10.6913
-10.6914
-10.6848
-10.6733
-10.6611
-10.6537
-10.6563
-10.6725
-10.7032
-10.7465
-10.7978
-10.8505
-10.8965
-10.928
-10.9381
-10.9221
-10.8778
-10.8051
-10.7058
-10.5828
-10.4395
-10.2793
-10.1052
-9.91992
-9.72563
-9.52416
-9.31689
-9.10472
-8.888
-8.66654
-8.43962
-8.20605
-7.96439
-7.7131
-7.45079
-7.17642
-6.88948
-6.59013
-6.2793
-5.95875
-5.6311
-5.29973
-4.96877
-4.64293
-4.32723
-4.0266
-3.74528
-3.48623
-3.25072
-3.03821
-2.84673
-2.6734
-2.51495
-2.36816
-2.23009
-2.09818
-1.97025
-1.84451
-1.71954
-1.59428
-1.46813
-1.34096
-1.21339
-1.08681
-0.963514
-0.846323
-0.738006
-0.640544
-0.554727
-0.480176
-0.41578
-0.360121
-0.311822
-0.269638
-0.232558
-0.199575
-0.170096
-0.142814
-0.11812
-0.0926005
-0.0706386
-0.0399281
-0.0224335
-9.49548
-9.97421
-10.285
-10.4099
-10.4628
-10.4849
-10.4941
-10.5102
-10.5366
-10.5655
-10.5903
-10.6095
-10.6239
-10.6347
-10.6434
-10.6512
-10.6578
-10.6618
-10.6611
-10.6548
-10.6441
-10.6329
-10.6262
-10.6287
-10.6438
-10.6721
-10.7119
-10.7589
-10.8065
-10.8475
-10.8744
-10.8807
-10.8621
-10.8163
-10.7432
-10.6445
-10.523
-10.3817
-10.224
-10.0526
-9.87012
-9.67864
-9.47986
-9.27511
-9.06526
-8.8507
-8.63127
-8.40632
-8.17476
-7.93523
-7.68625
-7.42651
-7.15502
-6.87129
-6.57549
-6.26857
-5.95225
-5.62906
-5.30227
-4.97586
-4.65429
-4.34236
-4.04478
-3.7657
-3.5081
-3.27337
-3.0612
-2.86981
-2.69645
-2.53792
-2.39101
-2.25275
-2.12055
-1.99221
-1.86592
-1.74027
-1.61421
-1.48715
-1.359
-1.23035
-1.10261
-0.978044
-0.859487
-0.749748
-0.650874
-0.56372
-0.48796
-0.422505
-0.365944
-0.316893
-0.274092
-0.23651
-0.203118
-0.173302
-0.145708
-0.120778
-0.094792
-0.0729822
-0.0402745
-0.0265384
-9.60021
-9.92449
-10.1831
-10.3136
-10.3825
-10.4256
-10.452
-10.4753
-10.5034
-10.5329
-10.5587
-10.5788
-10.5938
-10.605
-10.6142
-10.6222
-10.629
-10.6333
-10.6335
-10.6286
-10.6196
-10.6098
-10.6034
-10.6049
-10.6172
-10.6413
-10.6754
-10.7158
-10.7566
-10.791
-10.8123
-10.8144
-10.7931
-10.7462
-10.6736
-10.5764
-10.4573
-10.3191
-10.1647
-9.99688
-9.81791
-9.62978
-9.43412
-9.23217
-9.02479
-8.81239
-8.59486
-8.37166
-8.1418
-7.90405
-7.65707
-7.39966
-7.13089
-6.85036
-6.55827
-6.25557
-5.94393
-5.62579
-5.30432
-4.98326
-4.66686
-4.3596
-4.06592
-3.78974
-3.53397
-3.3001
-3.08802
-2.89622
-2.72215
-2.5628
-2.41504
-2.27593
-2.14288
-2.01368
-1.88654
-1.76004
-1.63317
-1.50535
-1.37649
-1.24719
-1.11879
-0.993491
-0.87406
-0.763279
-0.663234
-0.574852
-0.497884
-0.431297
-0.373709
-0.323742
-0.280136
-0.241847
-0.207833
-0.177459
-0.149338
-0.123947
-0.0973116
-0.0753911
-0.0406631
-0.0301989
-9.67192
-9.90396
-10.114
-10.2425
-10.32
-10.3736
-10.4102
-10.4393
-10.4688
-10.4982
-10.5238
-10.544
-10.5592
-10.571
-10.5808
-10.5894
-10.5967
-10.6016
-10.6029
-10.5999
-10.5934
-10.5859
-10.5811
-10.5824
-10.5925
-10.6121
-10.6398
-10.6724
-10.7048
-10.7313
-10.7457
-10.7427
-10.7183
-10.6702
-10.5981
-10.503
-10.3868
-10.2522
-10.1017
-9.9378
-9.76269
-9.57821
-9.3859
-9.18693
-8.98213
-8.77192
-8.55625
-8.33468
-8.10636
-7.8702
-7.62504
-7.3698
-7.10369
-6.82639
-6.53814
-6.23987
-5.93324
-5.62058
-5.3049
-4.98975
-4.67911
-4.37718
-4.08806
-3.81542
-3.56199
-3.32928
-3.11734
-2.92491
-2.74976
-2.58908
-2.43992
-2.29944
-2.16509
-2.03469
-1.90645
-1.77899
-1.65131
-1.52286
-1.39356
-1.26397
-1.13537
-1.00983
-0.889976
-0.778505
-0.677503
-0.587975
-0.509779
-0.441971
-0.383224
-0.332185
-0.287599
-0.248417
-0.213587
-0.182456
-0.153617
-0.12756
-0.100125
-0.0778403
-0.0411626
-0.0333604
-9.72127
-9.89561
-10.0665
-10.1881
-10.269
-10.3272
-10.3694
-10.4023
-10.4325
-10.4612
-10.4863
-10.5066
-10.5226
-10.5356
-10.5465
-10.5559
-10.5635
-10.5688
-10.5708
-10.5691
-10.5646
-10.5591
-10.5555
-10.5567
-10.5647
-10.5802
-10.6018
-10.627
-10.6513
-10.6698
-10.6772
-10.6688
-10.641
-10.5916
-10.5199
-10.4266
-10.3133
-10.1823
-10.0357
-9.87579
-9.70459
-9.52381
-9.33488
-9.13895
-8.93679
-8.72882
-8.51507
-8.29517
-8.06841
-7.83386
-7.59052
-7.33748
-7.07408
-6.80008
-6.51578
-6.22212
-5.92067
-5.6137
-5.30403
-4.99503
-4.69042
-4.39411
-4.1099
-3.84116
-3.59047
-3.35925
-3.14768
-2.95471
-2.77838
-2.61615
-2.46529
-2.3231
-2.18713
-2.05528
-1.92577
-1.79727
-1.66879
-1.53981
-1.41026
-1.28068
-1.15225
-1.02689
-0.907037
-0.795229
-0.693504
-0.602928
-0.523491
-0.454371
-0.394331
-0.342062
-0.296328
-0.256074
-0.220248
-0.188175
-0.158442
-0.131529
-0.103165
-0.0802711
-0.0417816
-0.0359365
-9.7556
-9.89231
-10.0325
-10.1436
-10.224
-10.2842
-10.3297
-10.3653
-10.3962
-10.4244
-10.4492
-10.4699
-10.487
-10.501
-10.5127
-10.5224
-10.53
-10.5351
-10.5374
-10.5367
-10.5337
-10.5298
-10.5272
-10.5282
-10.5344
-10.546
-10.5622
-10.5804
-10.5972
-10.6082
-10.6089
-10.5951
-10.5637
-10.5125
-10.4408
-10.3491
-10.2384
-10.1106
-9.96771
-9.81166
-9.64426
-9.46713
-9.28159
-9.08871
-8.88926
-8.68365
-8.47195
-8.25387
-8.02883
-7.79606
-7.55471
-7.30401
-7.04345
-6.77288
-6.49265
-6.20368
-5.90751
-5.60628
-5.30266
-4.99982
-4.70123
-4.41054
-4.13127
-3.86653
-3.6187
-3.38917
-3.17815
-2.98478
-2.80734
-2.64354
-2.49088
-2.34684
-2.2091
-2.07564
-1.94476
-1.81514
-1.68585
-1.55639
-1.4267
-1.2973
-1.16928
-1.0444
-0.924887
-0.813074
-0.71089
-0.619424
-0.538785
-0.468303
-0.406861
-0.353221
-0.30618
-0.26469
-0.227698
-0.194513
-0.163723
-0.135781
-0.106372
-0.0826401
-0.0425205
-0.0378621
-9.77967
-9.89057
-10.0069
-10.1066
-10.184
-10.2442
-10.2913
-10.3286
-10.3601
-10.3882
-10.4131
-10.4344
-10.4523
-10.4671
-10.4792
-10.4888
-10.4961
-10.5009
-10.5033
-10.5033
-10.5013
-10.4985
-10.4965
-10.4971
-10.5013
-10.5096
-10.5209
-10.533
-10.5431
-10.5473
-10.5418
-10.5231
-10.4881
-10.4351
-10.3631
-10.2724
-10.1639
-10.0391
-9.89954
-9.74707
-9.58329
-9.40967
-9.22746
-9.03764
-8.84094
-8.63778
-8.42826
-8.21216
-7.98903
-7.75823
-7.51904
-7.27086
-7.01327
-6.74624
-6.47013
-6.18589
-5.89497
-5.59941
-5.30174
-5.00493
-4.71223
-4.42701
-4.15255
-3.89173
-3.64676
-3.41895
-3.20856
-3.0149
-2.83643
-2.67113
-2.51668
-2.37077
-2.23121
-2.09608
-1.96376
-1.83299
-1.70287
-1.57293
-1.44313
-1.31394
-1.18642
-1.06216
-0.943185
-0.831604
-0.7292
-0.637035
-0.555305
-0.483482
-0.420586
-0.365476
-0.317002
-0.274134
-0.235829
-0.20138
-0.169387
-0.14026
-0.109706
-0.0849272
-0.0433812
-0.039115
-9.7965
-9.88889
-9.98683
-10.0754
-10.1483
-10.2071
-10.2544
-10.2926
-10.3247
-10.3529
-10.378
-10.3997
-10.4181
-10.4332
-10.4455
-10.455
-10.462
-10.4666
-10.469
-10.4692
-10.4678
-10.4656
-10.4637
-10.4636
-10.4659
-10.471
-10.4779
-10.4848
-10.4889
-10.4872
-10.4762
-10.4529
-10.4146
-10.3598
-10.2874
-10.1975
-10.0909
-9.96863
-9.83217
-9.68303
-9.52268
-9.35244
-9.17345
-8.98665
-8.79272
-8.59207
-8.38483
-8.17086
-7.94979
-7.7211
-7.48423
-7.2387
-6.98419
-6.72074
-6.44878
-6.16922
-5.88347
-5.59347
-5.3016
-5.01063
-4.72362
-4.44369
-4.17388
-3.91686
-3.67468
-3.4486
-3.23891
-3.04504
-2.86565
-2.69892
-2.54276
-2.39502
-2.25365
-2.11685
-1.98309
-1.85114
-1.72018
-1.58975
-1.45981
-1.33084
-1.2038
-1.08016
-0.961762
-0.850514
-0.748035
-0.655328
-0.572636
-0.499548
-0.435213
-0.378594
-0.328608
-0.28426
-0.244526
-0.208687
-0.175367
-0.144922
-0.113137
-0.0871313
-0.0443652
-0.0397218
-9.80807
-9.88665
-9.97024
-10.0488
-10.1164
-10.1728
-10.2194
-10.2578
-10.2902
-10.3185
-10.3435
-10.3654
-10.3839
-10.3992
-10.4115
-10.4209
-10.4277
-10.4321
-10.4345
-10.4348
-10.4336
-10.4315
-10.4294
-10.4282
-10.4287
-10.4308
-10.4337
-10.4357
-10.4346
-10.4275
-10.4116
-10.3842
-10.343
-10.2864
-10.2136
-10.1244
-10.0194
-9.89944
-9.76579
-9.61976
-9.46264
-9.29562
-9.11977
-8.93593
-8.74475
-8.54664
-8.34176
-8.13001
-7.91113
-7.6847
-7.45027
-7.20748
-6.95613
-6.69631
-6.42849
-6.15356
-5.87289
-5.58832
-5.30208
-5.01679
-4.73527
-4.46045
-4.19513
-3.9418
-3.70236
-3.478
-3.26906
-3.07506
-2.89486
-2.72682
-2.56904
-2.41955
-2.27644
-2.13802
-2.00284
-1.86975
-1.73795
-1.60702
-1.47693
-1.34813
-1.22151
-1.09845
-0.980594
-0.86968
-0.767175
-0.674009
-0.59045
-0.516174
-0.450443
-0.392318
-0.34079
-0.294904
-0.253662
-0.216341
-0.181599
-0.149731
-0.116645
-0.0892666
-0.0454705
-0.0397581
-9.8157
-9.88362
-9.95586
-10.0255
-10.0877
-10.1411
-10.1863
-10.2243
-10.2567
-10.2849
-10.3097
-10.3313
-10.3498
-10.3651
-10.3773
-10.3866
-10.3933
-10.3976
-10.3998
-10.4
-10.3988
-10.3965
-10.3938
-10.3915
-10.39
-10.3892
-10.3884
-10.386
-10.3802
-10.3683
-10.3481
-10.317
-10.273
-10.2148
-10.1415
-10.0528
-9.94923
-9.83139
-9.70034
-9.5572
-9.40313
-9.2392
-9.06637
-8.88543
-8.69698
-8.50143
-8.29895
-8.08951
-7.87291
-7.64884
-7.41696
-7.177
-6.92887
-6.6727
-6.40901
-6.13867
-5.863
-5.58373
-5.30299
-5.0232
-4.74701
-4.47713
-4.21617
-3.96642
-3.72966
-3.50702
-3.29887
-3.10483
-2.92392
-2.75467
-2.59538
-2.44423
-2.29946
-2.15949
-2.02294
-1.88875
-1.75614
-1.62472
-1.49447
-1.36581
-1.23958
-1.11702
-0.999656
-0.889042
-0.786511
-0.692923
-0.608553
-0.533146
-0.466059
-0.406447
-0.353368
-0.305914
-0.263116
-0.224255
-0.188023
-0.154655
-0.120219
-0.091358
-0.0466933
-0.0393419
-9.8203
-9.87975
-9.94287
-10.0048
-10.0616
-10.1118
-10.1551
-10.1922
-10.2242
-10.252
-10.2764
-10.2977
-10.3159
-10.331
-10.343
-10.3522
-10.3587
-10.3629
-10.3648
-10.3649
-10.3633
-10.3606
-10.3572
-10.3537
-10.3502
-10.3466
-10.3423
-10.336
-10.3257
-10.3096
-10.2853
-10.2509
-10.2045
-10.1447
-10.0709
-9.98269
-9.88032
-9.76439
-9.63572
-9.49529
-9.3441
-9.18312
-9.01321
-8.8351
-8.64936
-8.45638
-8.25634
-8.04927
-7.83503
-7.61341
-7.38417
-7.14712
-6.90225
-6.64976
-6.39018
-6.12438
-5.85362
-5.57955
-5.30416
-5.02973
-4.75871
-4.49363
-4.23689
-3.99062
-3.75649
-3.53558
-3.32825
-3.13425
-2.95272
-2.78237
-2.62166
-2.46894
-2.3226
-2.18114
-2.04329
-1.90802
-1.77464
-1.64275
-1.51234
-1.38381
-1.25792
-1.13582
-1.01888
-0.908528
-0.805957
-0.711964
-0.626823
-0.550332
-0.48193
-0.420851
-0.366225
-0.317186
-0.272803
-0.232361
-0.194596
-0.159677
-0.123859
-0.0934376
-0.048028
-0.0386175
-9.82249
-9.87507
-9.93073
-9.98603
-10.0378
-10.0845
-10.1257
-10.1615
-10.1926
-10.2198
-10.2437
-10.2644
-10.2822
-10.297
-10.3088
-10.3178
-10.3241
-10.3279
-10.3296
-10.3293
-10.3274
-10.3241
-10.3198
-10.3149
-10.3094
-10.3033
-10.2957
-10.2856
-10.2714
-10.2514
-10.2235
-10.186
-10.1372
-10.0761
-10.0017
-9.91384
-9.81258
-9.69838
-9.57191
-9.43401
-9.28555
-9.12739
-8.9603
-8.78496
-8.60189
-8.41146
-8.2139
-8.00925
-7.79745
-7.57836
-7.35182
-7.11775
-6.87618
-6.62738
-6.3719
-6.11058
-5.84465
-5.57566
-5.3055
-5.03627
-4.77027
-4.50984
-4.2572
-4.01434
-3.7828
-3.5636
-3.35716
-3.16327
-2.98121
-2.80986
-2.64783
-2.49364
-2.34578
-2.2029
-2.06379
-1.9275
-1.79337
-1.66102
-1.53046
-1.40203
-1.27645
-1.15476
-1.0382
-0.928062
-0.825432
-0.731041
-0.645159
-0.567628
-0.497952
-0.435439
-0.379279
-0.328654
-0.282671
-0.240623
-0.201295
-0.164792
-0.127573
-0.0955421
-0.0494704
-0.037734
-9.82273
-9.86961
-9.91907
-9.96862
-10.0158
-10.0591
-10.0979
-10.1321
-10.1621
-10.1885
-10.2116
-10.2317
-10.2489
-10.2633
-10.2747
-10.2834
-10.2894
-10.2929
-10.2942
-10.2934
-10.291
-10.287
-10.2817
-10.2753
-10.2679
-10.2593
-10.2487
-10.2352
-10.2174
-10.1937
-10.1625
-10.1222
-10.0713
-10.0088
-9.93388
-9.84628
-9.74599
-9.63336
-9.50893
-9.37339
-9.22751
-9.07203
-8.90767
-8.73502
-8.55458
-8.36672
-8.17165
-7.96947
-7.76017
-7.54367
-7.3199
-7.08885
-6.85062
-6.60552
-6.3541
-6.09721
-5.83602
-5.57201
-5.30693
-5.04276
-4.78163
-4.52571
-4.27706
-4.03752
-3.80852
-3.59105
-3.38553
-3.19183
-3.00934
-2.8371
-2.67385
-2.51827
-2.36898
-2.22473
-2.08442
-1.94714
-1.81227
-1.67948
-1.54875
-1.4204
-1.29509
-1.17377
-1.05754
-0.947584
-0.844874
-0.750087
-0.663485
-0.584947
-0.514037
-0.450124
-0.392456
-0.340257
-0.292675
-0.249012
-0.208106
-0.17
-0.131373
-0.0977054
-0.0510127
-0.0368218
-9.82137
-9.86345
-9.90768
-9.95223
-9.99514
-10.0351
-10.0714
-10.1039
-10.1326
-10.1579
-10.1801
-10.1995
-10.2161
-10.2298
-10.2408
-10.2491
-10.2546
-10.2577
-10.2585
-10.2573
-10.2542
-10.2493
-10.243
-10.2352
-10.2258
-10.2148
-10.2014
-10.1847
-10.1636
-10.1366
-10.1024
-10.0595
-10.0066
-9.94283
-9.8674
-9.78
-9.68057
-9.56936
-9.4468
-9.31347
-9.17002
-9.01712
-8.85537
-8.68535
-8.50751
-8.32219
-8.12963
-7.92995
-7.72319
-7.50935
-7.28841
-7.06042
-6.82555
-6.58414
-6.33675
-6.08423
-5.8277
-5.56854
-5.30841
-5.04915
-4.79275
-4.54121
-4.29643
-4.06012
-3.83363
-3.61789
-3.41333
-3.2199
-3.03708
-2.86404
-2.69968
-2.5428
-2.39217
-2.24662
-2.10514
-1.96691
-1.83133
-1.6981
-1.56719
-1.4389
-1.31382
-1.1928
-1.07687
-0.967047
-0.864236
-0.76905
-0.681746
-0.60223
-0.530118
-0.464837
-0.405688
-0.351936
-0.302764
-0.25749
-0.215004
-0.175293
-0.135256
-0.0999448
-0.052635
-0.0359761
-9.81865
-9.85663
-9.89639
-9.93657
-9.97562
-10.0124
-10.0462
-10.0768
-10.104
-10.1282
-10.1494
-10.1679
-10.1837
-10.1968
-10.2071
-10.2148
-10.2199
-10.2225
-10.2228
-10.2209
-10.2171
-10.2113
-10.2038
-10.1945
-10.1833
-10.17
-10.1539
-10.1343
-10.1101
-10.0802
-10.0432
-9.99793
-9.94324
-9.87824
-9.80228
-9.71502
-9.61634
-9.50642
-9.38559
-9.25432
-9.11317
-8.96271
-8.80349
-8.63602
-8.46072
-8.27794
-8.08789
-7.89074
-7.68657
-7.47543
-7.25735
-7.03246
-6.80095
-6.56322
-6.31984
-6.07162
-5.81964
-5.56522
-5.3099
-5.05542
-4.80359
-4.55629
-4.31528
-4.08212
-3.8581
-3.64409
-3.44054
-3.24743
-3.06438
-2.89064
-2.72528
-2.5672
-2.4153
-2.26853
-2.12594
-1.98679
-1.85052
-1.71684
-1.58574
-1.45747
-1.33258
-1.21184
-1.09614
-0.986415
-0.883481
-0.787895
-0.699902
-0.619432
-0.546149
-0.479529
-0.418924
-0.363638
-0.312892
-0.266017
-0.221957
-0.180646
-0.139201
-0.102259
-0.0543037
-0.0352526
-9.81479
-9.84922
-9.88511
-9.92145
-9.95699
-9.99077
-10.0221
-10.0507
-10.0764
-10.0992
-10.1193
-10.1368
-10.1517
-10.1641
-10.1737
-10.1808
-10.1853
-10.1873
-10.187
-10.1844
-10.1797
-10.173
-10.1643
-10.1535
-10.1405
-10.1249
-10.1064
-10.0841
-10.0572
-10.0245
-9.98498
-9.93753
-9.88114
-9.81501
-9.73854
-9.65137
-9.55336
-9.4446
-9.32536
-9.19601
-9.05702
-8.90889
-8.7521
-8.58712
-8.41432
-8.23404
-8.04651
-7.85191
-7.65035
-7.44193
-7.22676
-7.00498
-6.77685
-6.54278
-6.30334
-6.05935
-5.81183
-5.56203
-5.31139
-5.06152
-4.81413
-4.57094
-4.33357
-4.10349
-3.8819
-3.66962
-3.4671
-3.2744
-3.0912
-2.91688
-2.75061
-2.59143
-2.43835
-2.29042
-2.14678
-2.00675
-1.8698
-1.73569
-1.60438
-1.47611
-1.35137
-1.23083
-1.11532
-1.00566
-0.90258
-0.806589
-0.717919
-0.636519
-0.562092
-0.494162
-0.432127
-0.375329
-0.323024
-0.274563
-0.228937
-0.186038
-0.143188
-0.104637
-0.0559846
-0.0346768
-9.80995
-9.84127
-9.87378
-9.90671
-9.93907
-9.97004
-9.999
-10.0256
-10.0496
-10.0711
-10.09
-10.1064
-10.1203
-10.1318
-10.1407
-10.1471
-10.1509
-10.1523
-10.1512
-10.1479
-10.1423
-10.1345
-10.1245
-10.1122
-10.0974
-10.0799
-10.059
-10.0343
-10.0048
-9.96958
-9.92775
-9.8783
-9.82036
-9.75318
-9.67621
-9.58908
-9.49166
-9.38396
-9.26618
-9.13862
-9.00167
-8.85576
-8.70131
-8.53873
-8.36838
-8.19057
-8.00555
-7.81351
-7.61458
-7.40892
-7.19666
-6.978
-6.75324
-6.5228
-6.28727
-6.04743
-5.80426
-5.55894
-5.31284
-5.06745
-4.82435
-4.58513
-4.3513
-4.12422
-3.905
-3.69445
-3.49301
-3.30077
-3.11751
-2.9427
-2.77562
-2.61545
-2.46128
-2.31227
-2.16764
-2.02675
-1.88916
-1.75461
-1.62308
-1.49477
-1.37013
-1.24976
-1.13439
-1.02475
-0.921502
-0.825102
-0.735765
-0.653458
-0.577915
-0.508704
-0.445265
-0.386978
-0.333135
-0.283103
-0.235923
-0.191452
-0.1472
-0.10707
-0.0576536
-0.0342553
-9.80428
-9.83285
-9.86237
-9.89227
-9.92173
-9.95006
-9.97673
-10.0013
-10.0237
-10.0437
-10.0613
-10.0766
-10.0895
-10.1
-10.1081
-10.1137
-10.1168
-10.1174
-10.1155
-10.1113
-10.1048
-10.0959
-10.0847
-10.0709
-10.0544
-10.0349
-10.0119
-9.98483
-9.95297
-9.9155
-9.87156
-9.82029
-9.76092
-9.69276
-9.61531