/*--------------------------------*- C++ -*----------------------------------*\
  =========                 |
  \\      /  F ield         | OpenFOAM: The Open Source CFD Toolbox
   \\    /   O peration     | Website:  https://openfoam.org
    \\  /    A nd           | Version:  10
     \\/     M anipulation  |
\*---------------------------------------------------------------------------*/
FoamFile
{
    format      ascii;
    class       surfaceScalarField;
    location    "1400";
    object      phi;
}
// * * * * * * * * * * * * * * * * * * * * * * * * * * * * * * * * * * * * * //

dimensions      [0 3 -1 0 0 0 0];

internalField   nonuniform List<scalar> 
13452
(
6.02916e-05
-2.31815e-08
5.99926e-05
2.99088e-07
5.95875e-05
4.05085e-07
5.91123e-05
4.75208e-07
5.86067e-05
5.05596e-07
5.81241e-05
4.82606e-07
5.76864e-05
4.37604e-07
5.72941e-05
3.92308e-07
5.69416e-05
3.52505e-07
5.66231e-05
3.18535e-07
5.63332e-05
2.89895e-07
5.60673e-05
2.65868e-07
5.58217e-05
2.45644e-07
5.55932e-05
2.2849e-07
5.53794e-05
2.13838e-07
5.51781e-05
2.01271e-07
5.49876e-05
1.90495e-07
5.48063e-05
1.8131e-07
5.46327e-05
1.73605e-07
5.44653e-05
1.67347e-07
5.43027e-05
1.62595e-07
5.41432e-05
1.59512e-07
5.39848e-05
1.5841e-07
5.3825e-05
1.59828e-07
5.36603e-05
1.64676e-07
5.34858e-05
1.7451e-07
5.32937e-05
1.9211e-07
5.30717e-05
2.21956e-07
5.2796e-05
2.75726e-07
5.24195e-05
3.76462e-07
5.18637e-05
5.55829e-07
5.10908e-05
7.72874e-07
2.70624e-06
4.83846e-05
6.21469e-05
-1.79787e-07
6.21723e-05
2.7368e-07
6.21936e-05
3.83847e-07
6.22092e-05
4.59557e-07
6.22084e-05
5.06391e-07
6.21773e-05
5.13723e-07
6.21145e-05
5.00454e-07
6.2026e-05
4.8073e-07
6.19197e-05
4.58885e-07
6.18018e-05
4.36364e-07
6.16774e-05
4.14323e-07
6.15497e-05
3.93525e-07
6.14211e-05
3.74284e-07
6.12929e-05
3.56671e-07
6.11661e-05
3.40678e-07
6.10411e-05
3.26273e-07
6.09181e-05
3.13431e-07
6.07973e-05
3.0215e-07
6.06784e-05
2.92466e-07
6.05613e-05
2.84478e-07
6.04455e-05
2.78371e-07
6.03306e-05
2.74451e-07
6.02158e-05
2.73206e-07
6.01002e-05
2.75406e-07
5.99826e-05
2.82319e-07
5.98612e-05
2.95928e-07
5.97334e-05
3.19883e-07
5.95958e-05
3.59585e-07
5.94427e-05
4.2879e-07
5.92683e-05
5.50832e-07
5.90502e-05
7.73908e-07
5.86952e-05
1.12796e-06
2.67755e-06
5.87239e-05
6.36684e-05
-8.6812e-08
6.37267e-05
2.15392e-07
6.37862e-05
3.24349e-07
6.3849e-05
3.96758e-07
6.3903e-05
4.52379e-07
6.39388e-05
4.77935e-07
6.39562e-05
4.83018e-07
6.39581e-05
4.78911e-07
6.39469e-05
4.7007e-07
6.3925e-05
4.58231e-07
6.38945e-05
4.44805e-07
6.38572e-05
4.30869e-07
6.38144e-05
4.17068e-07
6.37673e-05
4.03769e-07
6.37168e-05
3.91217e-07
6.36634e-05
3.79602e-07
6.36078e-05
3.69086e-07
6.35501e-05
3.59829e-07
6.34905e-05
3.52017e-07
6.34291e-05
3.45895e-07
6.33657e-05
3.41798e-07
6.33e-05
3.402e-07
6.32314e-05
3.41795e-07
6.31592e-05
3.47612e-07
6.30822e-05
3.59259e-07
6.2999e-05
3.79167e-07
6.29073e-05
4.11547e-07
6.28043e-05
4.62611e-07
6.26872e-05
5.45837e-07
6.2557e-05
6.81102e-07
6.24249e-05
9.05929e-07
6.22982e-05
1.25474e-06
2.01296e-06
6.29628e-05
6.55166e-05
-2.03426e-08
6.55571e-05
1.74936e-07
6.55934e-05
2.87969e-07
6.56338e-05
3.56438e-07
6.56754e-05
4.10754e-07
6.57115e-05
4.41856e-07
6.57403e-05
4.54143e-07
6.57623e-05
4.56986e-07
6.57775e-05
4.54834e-07
6.57864e-05
4.49312e-07
6.57896e-05
4.41641e-07
6.57876e-05
4.3284e-07
6.57811e-05
4.23584e-07
6.57705e-05
4.14304e-07
6.57564e-05
4.05325e-07
6.57391e-05
3.96922e-07
6.57189e-05
3.89342e-07
6.56959e-05
3.82837e-07
6.56702e-05
3.77687e-07
6.56418e-05
3.74233e-07
6.56107e-05
3.72916e-07
6.55766e-05
3.74333e-07
6.55391e-05
3.79317e-07
6.54976e-05
3.89055e-07
6.54516e-05
4.05314e-07
6.54001e-05
4.30683e-07
6.53423e-05
4.69288e-07
6.52779e-05
5.27054e-07
6.52091e-05
6.14605e-07
6.51449e-05
7.45317e-07
6.51123e-05
9.3853e-07
6.5165e-05
1.20198e-06
1.56141e-06
6.56166e-05
6.74273e-05
9.18703e-09
6.7447e-05
1.55144e-07
6.74699e-05
2.65069e-07
6.74974e-05
3.29005e-07
6.75298e-05
3.78305e-07
6.75616e-05
4.10074e-07
6.75901e-05
4.25633e-07
6.7615e-05
4.32122e-07
6.76361e-05
4.33666e-07
6.76536e-05
4.31823e-07
6.76676e-05
4.27696e-07
6.76782e-05
4.22242e-07
6.76856e-05
4.16127e-07
6.76901e-05
4.09795e-07
6.76919e-05
4.03593e-07
6.7691e-05
3.97826e-07
6.76875e-05
3.92781e-07
6.76816e-05
3.88752e-07
6.76732e-05
3.86071e-07
6.76623e-05
3.85134e-07
6.76488e-05
3.86444e-07
6.76325e-05
3.90662e-07
6.76131e-05
3.98681e-07
6.75904e-05
4.11731e-07
6.75642e-05
4.31553e-07
6.75343e-05
4.60585e-07
6.75012e-05
5.02382e-07
6.74666e-05
5.61688e-07
6.74357e-05
6.45491e-07
6.74204e-05
7.60635e-07
6.74463e-05
9.12555e-07
6.75556e-05
1.0927e-06
1.27036e-06
6.78467e-05
6.93697e-05
2.3555e-08
6.93817e-05
1.43068e-07
6.94026e-05
2.44161e-07
6.94261e-05
3.05497e-07
6.94533e-05
3.51164e-07
6.94808e-05
3.82609e-07
6.95064e-05
3.99985e-07
6.95299e-05
4.0861e-07
6.95513e-05
4.12302e-07
6.95704e-05
4.12662e-07
6.95874e-05
4.10744e-07
6.96022e-05
4.07456e-07
6.96148e-05
4.03453e-07
6.96255e-05
3.99186e-07
6.9634e-05
3.9501e-07
6.96406e-05
3.91242e-07
6.96452e-05
3.88188e-07
6.96478e-05
3.86164e-07
6.96483e-05
3.85525e-07
6.96468e-05
3.86692e-07
6.9643e-05
3.90193e-07
6.9637e-05
3.96701e-07
6.96286e-05
4.07099e-07
6.96178e-05
4.22555e-07
6.96047e-05
4.44638e-07
6.95898e-05
4.7541e-07
6.95746e-05
5.17593e-07
6.95619e-05
5.74407e-07
6.95578e-05
6.49562e-07
6.95734e-05
7.45029e-07
6.96274e-05
8.58633e-07
6.97434e-05
9.76697e-07
1.06763e-06
6.99461e-05
7.13586e-05
3.13267e-08
7.13686e-05
1.33055e-07
7.13888e-05
2.23981e-07
7.14107e-05
2.83526e-07
7.1435e-05
3.26915e-07
7.14598e-05
3.57824e-07
7.14833e-05
3.7639e-07
7.15054e-05
3.86546e-07
7.1526e-05
3.91741e-07
7.1545e-05
3.93631e-07
7.15625e-05
3.93252e-07
7.15785e-05
3.91481e-07
7.1593e-05
3.88972e-07
7.16059e-05
3.86189e-07
7.16175e-05
3.835e-07
7.16275e-05
3.81232e-07
7.1636e-05
3.79701e-07
7.16429e-05
3.79233e-07
7.16482e-05
3.80192e-07
7.16519e-05
3.83004e-07
7.16539e-05
3.88186e-07
7.16542e-05
3.96386e-07
7.16529e-05
4.08417e-07
7.16502e-05
4.25309e-07
7.16464e-05
4.48359e-07
7.16427e-05
4.79138e-07
7.16408e-05
5.19473e-07
7.16441e-05
5.71139e-07
7.16583e-05
6.35399e-07
7.1692e-05
7.11263e-07
7.17572e-05
7.93499e-07
7.18647e-05
8.69182e-07
9.16386e-07
7.20159e-05
7.34017e-05
3.4917e-08
7.34107e-05
1.2405e-07
7.34293e-05
2.05409e-07
7.34501e-05
2.62692e-07
7.34727e-05
3.04273e-07
7.34961e-05
3.34503e-07
7.35185e-05
3.539e-07
7.35398e-05
3.65328e-07
7.35597e-05
3.71782e-07
7.35784e-05
3.74922e-07
7.35959e-05
3.75779e-07
7.36122e-05
3.75206e-07
7.36273e-05
3.73862e-07
7.36412e-05
3.72228e-07
7.36541e-05
3.70685e-07
7.36657e-05
3.69572e-07
7.36762e-05
3.69212e-07
7.36855e-05
3.69936e-07
7.36936e-05
3.72104e-07
7.37005e-05
3.76128e-07
7.37062e-05
3.82497e-07
7.37107e-05
3.91794e-07
7.37144e-05
4.04728e-07
7.37176e-05
4.22138e-07
7.3721e-05
4.45003e-07
7.37257e-05
4.74384e-07
7.37339e-05
5.11295e-07
7.37487e-05
5.56361e-07
7.37748e-05
6.09268e-07
7.38185e-05
6.67599e-07
7.38863e-05
7.2563e-07
7.39823e-05
7.73197e-07
7.96979e-07
7.41017e-05
7.55015e-05
3.58414e-08
7.55098e-05
1.15759e-07
7.55267e-05
1.88581e-07
7.55464e-05
2.4294e-07
7.55679e-05
2.82803e-07
7.55902e-05
3.12226e-07
7.56119e-05
3.32108e-07
7.56327e-05
3.44563e-07
7.56524e-05
3.52105e-07
7.5671e-05
3.56336e-07
7.56885e-05
3.58274e-07
7.57049e-05
3.58741e-07
7.57204e-05
3.58393e-07
7.57349e-05
3.57721e-07
7.57485e-05
3.57121e-07
7.57611e-05
3.56938e-07
7.57728e-05
3.575e-07
7.57836e-05
3.59134e-07
7.57935e-05
3.62188e-07
7.58026e-05
3.67048e-07
7.5811e-05
3.74154e-07
7.58188e-05
3.84008e-07
7.58263e-05
3.97183e-07
7.58341e-05
4.14314e-07
7.58431e-05
4.36057e-07
7.58544e-05
4.6301e-07
7.58702e-05
4.95537e-07
7.58931e-05
5.33462e-07
7.59267e-05
5.75616e-07
7.59752e-05
6.19161e-07
7.60418e-05
6.5904e-07
7.6127e-05
6.87971e-07
6.98375e-07
7.62256e-05
7.76602e-05
3.52218e-08
7.7668e-05
1.07932e-07
7.76833e-05
1.7328e-07
7.7702e-05
2.24296e-07
7.77224e-05
2.62394e-07
7.77437e-05
2.90882e-07
7.77649e-05
3.1091e-07
7.77854e-05
3.24108e-07
7.78049e-05
3.32546e-07
7.78235e-05
3.37717e-07
7.78412e-05
3.40607e-07
7.78579e-05
3.42001e-07
7.78738e-05
3.42537e-07
7.78888e-05
3.42709e-07
7.7903e-05
3.42916e-07
7.79165e-05
3.43507e-07
7.79291e-05
3.44804e-07
7.79412e-05
3.47127e-07
7.79525e-05
3.50801e-07
7.79634e-05
3.56176e-07
7.79739e-05
3.63629e-07
7.79844e-05
3.73569e-07
7.79951e-05
3.86428e-07
7.80068e-05
4.02634e-07
7.80203e-05
4.22559e-07
7.80369e-05
4.46417e-07
7.80583e-05
4.74111e-07
7.80868e-05
5.04982e-07
7.81249e-05
5.37516e-07
7.81751e-05
5.69009e-07
7.82387e-05
5.95437e-07
7.83148e-05
6.11847e-07
6.14107e-07
7.8399e-05
7.98798e-05
3.37587e-08
7.98873e-05
1.00435e-07
7.99013e-05
1.59276e-07
7.99188e-05
2.06762e-07
7.99382e-05
2.42983e-07
7.99587e-05
2.7041e-07
7.99793e-05
2.90287e-07
7.99995e-05
3.03943e-07
8.0019e-05
3.13066e-07
8.00377e-05
3.19009e-07
8.00556e-05
3.22711e-07
8.00726e-05
3.24914e-07
8.0089e-05
3.26228e-07
8.01045e-05
3.27138e-07
8.01194e-05
3.28038e-07
8.01336e-05
3.2927e-07
8.01473e-05
3.31148e-07
8.01605e-05
3.33971e-07
8.01732e-05
3.38037e-07
8.01857e-05
3.43649e-07
8.01983e-05
3.51117e-07
8.02111e-05
3.60751e-07
8.02247e-05
3.72847e-07
8.02396e-05
3.87648e-07
8.02569e-05
4.0529e-07
8.02776e-05
4.25705e-07
8.03032e-05
4.48501e-07
8.03354e-05
4.72791e-07
8.03759e-05
4.97028e-07
8.0426e-05
5.18896e-07
8.04861e-05
5.35375e-07
8.05547e-05
5.43202e-07
5.40208e-07
8.06286e-05
8.21623e-05
3.18621e-08
8.21696e-05
9.32221e-08
8.21825e-05
1.46362e-07
8.21989e-05
1.90281e-07
8.22174e-05
2.24498e-07
8.22371e-05
2.50746e-07
8.22571e-05
2.7023e-07
8.2277e-05
2.84077e-07
8.22964e-05
2.93671e-07
8.23152e-05
3.00208e-07
8.23333e-05
3.04571e-07
8.23508e-05
3.07452e-07
8.23676e-05
3.09427e-07
8.23838e-05
3.10961e-07
8.23994e-05
3.12438e-07
8.24145e-05
3.14184e-07
8.24291e-05
3.16496e-07
8.24434e-05
3.19647e-07
8.24576e-05
3.23901e-07
8.24717e-05
3.29508e-07
8.24861e-05
3.3671e-07
8.25012e-05
3.45723e-07
8.25173e-05
3.56719e-07
8.25351e-05
3.69787e-07
8.25555e-05
3.84884e-07
8.25795e-05
4.01759e-07
8.26081e-05
4.1986e-07
8.26427e-05
4.38243e-07
8.26842e-05
4.555e-07
8.27333e-05
4.69768e-07
8.27898e-05
4.78864e-07
8.28524e-05
4.80681e-07
4.74133e-07
8.29184e-05
8.45099e-05
2.97704e-08
8.45168e-05
8.62876e-08
8.45288e-05
1.34356e-07
8.45443e-05
1.74766e-07
8.45619e-05
2.06868e-07
8.45809e-05
2.31823e-07
8.46004e-05
2.50711e-07
8.46199e-05
2.64514e-07
8.46392e-05
2.7437e-07
8.46581e-05
2.81325e-07
8.46765e-05
2.8619e-07
8.46944e-05
2.8961e-07
8.47117e-05
2.92119e-07
8.47285e-05
2.94157e-07
8.47448e-05
2.96086e-07
8.47608e-05
2.98215e-07
8.47765e-05
3.00816e-07
8.4792e-05
3.04133e-07
8.48075e-05
3.08387e-07
8.48232e-05
3.13781e-07
8.48394e-05
3.20486e-07
8.48565e-05
3.28633e-07
8.4875e-05
3.38292e-07
8.48953e-05
3.49434e-07
8.49183e-05
3.61892e-07
8.49447e-05
3.7531e-07
8.49755e-05
3.8908e-07
8.50115e-05
4.02306e-07
8.50532e-05
4.13792e-07
8.51008e-05
4.22097e-07
8.5154e-05
4.25685e-07
8.52115e-05
4.23212e-07
4.1418e-07
8.52714e-05
8.69243e-05
2.7618e-08
8.6931e-05
7.96289e-08
8.69422e-05
1.23109e-07
8.69569e-05
1.60113e-07
8.69737e-05
1.90014e-07
8.6992e-05
2.13568e-07
8.7011e-05
2.31691e-07
8.70303e-05
2.45239e-07
8.70495e-05
2.5516e-07
8.70684e-05
2.62359e-07
8.70871e-05
2.67571e-07
8.71053e-05
2.71386e-07
8.71231e-05
2.74297e-07
8.71406e-05
2.76712e-07
8.71577e-05
2.78968e-07
8.71745e-05
2.81349e-07
8.71913e-05
2.84097e-07
8.7208e-05
2.87426e-07
8.72248e-05
2.91515e-07
8.72421e-05
2.96516e-07
8.726e-05
3.0254e-07
8.7279e-05
3.09645e-07
8.72995e-05
3.1782e-07
8.7322e-05
3.26953e-07
8.73471e-05
3.36805e-07
8.73754e-05
3.46971e-07
8.74076e-05
3.56858e-07
8.74443e-05
3.65673e-07
8.74856e-05
3.72443e-07
8.75316e-05
3.7609e-07
8.75818e-05
3.75546e-07
8.7635e-05
3.69969e-07
3.5917e-07
8.769e-05
8.94077e-05
2.54769e-08
8.94141e-05
7.32402e-08
8.94247e-05
1.12499e-07
8.94386e-05
1.46213e-07
8.94547e-05
1.73857e-07
8.94724e-05
1.95909e-07
8.9491e-05
2.13117e-07
8.951e-05
2.26225e-07
8.95291e-05
2.36029e-07
8.95482e-05
2.43306e-07
8.9567e-05
2.48709e-07
8.95856e-05
2.52778e-07
8.9604e-05
2.55958e-07
8.96221e-05
2.58623e-07
8.96399e-05
2.61079e-07
8.96577e-05
2.63582e-07
8.96755e-05
2.66345e-07
8.96933e-05
2.69546e-07
8.97115e-05
2.73326e-07
8.97303e-05
2.77789e-07
8.97498e-05
2.82994e-07
8.97705e-05
2.88943e-07
8.97928e-05
2.95565e-07
8.9817e-05
3.02696e-07
8.98438e-05
3.10061e-07
8.98735e-05
3.17256e-07
8.99066e-05
3.23739e-07
8.99434e-05
3.28839e-07
8.99841e-05
3.31792e-07
9.00284e-05
3.31808e-07
9.00757e-05
3.28158e-07
9.01254e-05
3.20321e-07
3.08271e-07
9.01763e-05
9.1962e-05
2.33815e-08
9.19681e-05
6.71067e-08
9.19782e-05
1.02422e-07
9.19914e-05
1.32964e-07
9.2007e-05
1.58313e-07
9.20241e-05
1.78771e-07
9.20423e-05
1.94933e-07
9.20611e-05
2.07437e-07
9.20801e-05
2.16955e-07
9.20993e-05
2.24148e-07
9.21184e-05
2.29596e-07
9.21374e-05
2.33778e-07
9.21563e-05
2.37096e-07
9.2175e-05
2.39885e-07
9.21937e-05
2.42419e-07
9.22123e-05
2.44923e-07
9.22311e-05
2.47579e-07
9.22501e-05
2.50529e-07
9.22695e-05
2.53881e-07
9.22896e-05
2.57695e-07
9.23106e-05
2.6199e-07
9.23329e-05
2.66724e-07
9.23566e-05
2.71787e-07
9.23823e-05
2.7699e-07
9.24103e-05
2.82051e-07
9.2441e-05
2.86592e-07
9.24746e-05
2.90142e-07
9.25113e-05
2.92156e-07
9.2551e-05
2.92047e-07
9.25936e-05
2.89247e-07
9.26385e-05
2.83265e-07
9.2685e-05
2.73789e-07
2.60876e-07
9.27324e-05
9.45892e-05
2.13452e-08
9.45951e-05
6.12074e-08
9.46047e-05
9.27945e-08
9.46174e-05
1.20266e-07
9.46324e-05
1.43299e-07
9.46491e-05
1.62081e-07
9.4667e-05
1.77079e-07
9.46856e-05
1.88831e-07
9.47046e-05
1.97907e-07
9.47239e-05
2.04867e-07
9.47433e-05
2.10216e-07
9.47627e-05
2.14377e-07
9.47821e-05
2.17706e-07
9.48015e-05
2.20499e-07
9.48209e-05
2.22995e-07
9.48404e-05
2.25388e-07
9.48602e-05
2.27828e-07
9.48803e-05
2.30427e-07
9.49009e-05
2.33257e-07
9.49222e-05
2.36347e-07
9.49445e-05
2.39681e-07
9.49681e-05
2.43189e-07
9.49931e-05
2.4674e-07
9.502e-05
2.50138e-07
9.50489e-05
2.53113e-07
9.50802e-05
2.55331e-07
9.51139e-05
2.56396e-07
9.51502e-05
2.55876e-07
9.51889e-05
2.53334e-07
9.52298e-05
2.48366e-07
9.52724e-05
2.4065e-07
9.53162e-05
2.30008e-07
2.16536e-07
9.53605e-05
9.72915e-05
1.93694e-08
9.72972e-05
5.55137e-08
9.73064e-05
8.35405e-08
9.73187e-05
1.0803e-07
9.73332e-05
1.28732e-07
9.73496e-05
1.45767e-07
9.73671e-05
1.59493e-07
9.73856e-05
1.70361e-07
9.74047e-05
1.78851e-07
9.74241e-05
1.85437e-07
9.74438e-05
1.90552e-07
9.74636e-05
1.94565e-07
9.74835e-05
1.97785e-07
9.75035e-05
2.00468e-07
9.75237e-05
2.0282e-07
9.75441e-05
2.05002e-07
9.75648e-05
2.07135e-07
9.75859e-05
2.093e-07
9.76076e-05
2.11542e-07
9.76301e-05
2.13863e-07
9.76535e-05
2.16224e-07
9.76782e-05
2.18536e-07
9.77043e-05
2.20661e-07
9.7732e-05
2.22409e-07
9.77616e-05
2.23537e-07
9.77932e-05
2.23758e-07
9.78268e-05
2.2275e-07
9.78625e-05
2.2018e-07
9.79001e-05
2.15728e-07
9.79394e-05
2.09114e-07
9.79799e-05
2.00134e-07
9.80212e-05
1.88696e-07
1.74913e-07
9.80628e-05
0.000100071
1.74486e-08
0.000100077
4.99951e-08
0.000100085
7.45937e-08
0.000100097
9.61707e-08
0.000100112
1.14533e-07
0.000100128
1.29755e-07
0.000100145
1.42113e-07
0.000100163
1.51977e-07
0.000100182
1.5975e-07
0.000100202
1.6583e-07
0.000100222
1.70584e-07
0.000100242
1.74328e-07
0.000100263
1.77327e-07
0.000100283
1.79797e-07
0.000100304
1.8191e-07
0.000100325
1.83796e-07
0.000100347
1.85547e-07
0.000100369
1.8722e-07
0.000100392
1.88833e-07
0.000100415
1.9037e-07
0.00010044
1.91776e-07
0.000100465
1.92954e-07
0.000100492
1.93768e-07
0.000100521
1.94043e-07
0.000100551
1.93568e-07
0.000100582
1.92103e-07
0.000100616
1.89396e-07
0.000100651
1.85195e-07
0.000100687
1.7927e-07
0.000100725
1.71437e-07
0.000100763
1.61567e-07
0.000100802
1.49632e-07
1.35744e-07
0.000100841
0.00010293
1.55743e-08
0.000102935
4.46176e-08
0.000102944
6.58922e-08
0.000102956
8.46115e-08
0.000102969
1.00624e-07
0.000102985
1.13974e-07
0.000103002
1.24874e-07
0.000103021
1.33625e-07
0.00010304
1.40561e-07
0.00010306
1.46015e-07
0.00010308
1.50291e-07
0.000103101
1.53657e-07
0.000103122
1.56332e-07
0.000103143
1.58496e-07
0.000103165
1.60287e-07
0.000103187
1.61806e-07
0.000103209
1.63119e-07
0.000103232
1.6426e-07
0.000103256
1.65229e-07
0.00010328
1.65993e-07
0.000103305
1.66489e-07
0.000103332
1.6662e-07
0.000103359
1.66257e-07
0.000103388
1.65246e-07
0.000103418
1.63408e-07
0.00010345
1.60551e-07
0.000103483
1.5648e-07
0.000103517
1.5101e-07
0.000103552
1.43982e-07
0.000103588
1.35279e-07
0.000103625
1.24828e-07
0.000103662
1.12639e-07
9.88215e-08
0.000103699
0.000105871
1.37364e-08
0.000105876
3.93482e-08
0.000105884
5.73799e-08
0.000105896
7.32808e-08
0.000105909
8.69306e-08
0.000105925
9.83536e-08
0.000105942
1.07713e-07
0.000105961
1.15251e-07
0.00010598
1.21241e-07
0.000106
1.25958e-07
0.000106021
1.2965e-07
0.000106042
1.32537e-07
0.000106063
1.34798e-07
0.000106085
1.36575e-07
0.000106107
1.37976e-07
0.00010613
1.39073e-07
0.000106153
1.39911e-07
0.000106177
1.40501e-07
0.000106202
1.4083e-07
0.000106227
1.40854e-07
0.000106253
1.40507e-07
0.00010628
1.39695e-07
0.000106308
1.38302e-07
0.000106337
1.36194e-07
0.000106367
1.33227e-07
0.000106398
1.29248e-07
0.00010643
1.24113e-07
0.000106464
1.17688e-07
0.000106498
1.09871e-07
0.000106533
1.00589e-07
0.000106568
8.98134e-08
0.000106603
7.75725e-08
6.39755e-08
0.000106637
0.000108895
1.19244e-08
0.0001089
3.41533e-08
0.000108909
4.90035e-08
0.00010892
6.21113e-08
0.000108933
7.33809e-08
0.000108949
8.28236e-08
0.000108966
9.05645e-08
0.000108985
9.67973e-08
0.000109004
1.01743e-07
0.000109024
1.05622e-07
0.000109045
1.08635e-07
0.000109067
1.10955e-07
0.000109089
1.12722e-07
0.000109112
1.14046e-07
0.000109135
1.15002e-07
0.000109158
1.1564e-07
0.000109182
1.1598e-07
0.000109206
1.1602e-07
0.000109232
1.15732e-07
0.000109257
1.15069e-07
0.000109284
1.13961e-07
0.000109311
1.12323e-07
0.00010934
1.10051e-07
0.000109369
1.07037e-07
0.000109399
1.03161e-07
0.00010943
9.83098e-08
0.000109461
9.23763e-08
0.000109494
8.52727e-08
0.000109527
7.69315e-08
0.00010956
6.73194e-08
0.000109593
5.64308e-08
0.000109627
4.43129e-08
3.10655e-08
0.00010966
0.000112006
1.01279e-08
0.000112011
2.90017e-08
0.00011202
4.07143e-08
0.000112031
5.10407e-08
0.000112044
5.99058e-08
0.00011206
6.73144e-08
0.000112077
7.33632e-08
0.000112096
7.82054e-08
0.000112115
8.20159e-08
0.000112136
8.49675e-08
0.000112157
8.72161e-08
0.000112179
8.88933e-08
0.000112202
9.01022e-08
0.000112225
9.09187e-08
0.000112249
9.13918e-08
0.000112273
9.15466e-08
0.000112297
9.13858e-08
0.000112323
9.08916e-08
0.000112348
9.00282e-08
0.000112375
8.87433e-08
0.000112402
8.69702e-08
0.000112429
8.46299e-08
0.000112458
8.16362e-08
0.000112487
7.7897e-08
0.000112517
7.33218e-08
0.000112547
6.78252e-08
0.000112578
6.13331e-08
0.00011261
5.37882e-08
0.000112641
4.51544e-08
0.000112673
3.54214e-08
0.000112705
2.46041e-08
0.000112737
1.2757e-08
-2.57912e-11
0.000112768
0.000115206
8.33762e-09
0.000115211
2.38639e-08
0.00011522
3.24669e-08
0.000115231
4.00098e-08
0.000115244
4.64378e-08
0.00011526
5.17556e-08
0.000115277
5.60404e-08
0.000115296
5.94118e-08
0.000115316
6.20049e-08
0.000115337
6.39499e-08
0.000115359
6.53616e-08
0.000115381
6.63323e-08
0.000115404
6.69304e-08
0.000115428
6.72009e-08
0.000115452
6.71668e-08
0.000115477
6.68316e-08
0.000115502
6.61809e-08
0.000115528
6.5185e-08
0.000115554
6.38005e-08
0.000115581
6.19725e-08
0.000115608
5.96379e-08
0.000115636
5.67257e-08
0.000115665
5.31635e-08
0.000115694
4.88765e-08
0.000115723
4.37973e-08
0.000115753
3.78621e-08
0.000115784
3.10242e-08
0.000115814
2.32484e-08
0.000115845
1.45224e-08
0.000115875
4.85104e-09
0.000115906
-5.73695e-09
0.000115936
-1.71842e-08
-2.94014e-08
0.000115965
0.000118498
6.545e-09
0.000118503
1.87147e-08
0.000118511
2.42207e-08
0.000118522
2.89636e-08
0.000118536
3.29109e-08
0.000118551
3.60756e-08
0.000118569
3.85239e-08
0.000118588
4.03486e-08
0.000118608
4.16492e-08
0.00011863
4.25182e-08
0.000118652
4.30316e-08
0.000118675
4.32453e-08
0.000118699
4.31944e-08
0.000118723
4.28946e-08
0.000118748
4.23444e-08
0.000118773
4.15269e-08
0.000118799
4.04125e-08
0.000118825
3.89605e-08
0.000118852
3.71208e-08
0.000118879
3.48387e-08
0.000118907
3.2052e-08
0.000118935
2.87008e-08
0.000118963
2.47204e-08
0.000118992
2.00561e-08
0.000119021
1.46523e-08
0.00011905
8.46989e-09
0.00011908
1.47539e-09
0.00011911
-6.34293e-09
0.000119139
-1.49874e-08
0.000119168
-2.44364e-08
0.000119197
-3.46589e-08
0.000119226
-4.55914e-08
-5.71555e-08
0.000119253
0.000121883
4.74389e-09
0.000121888
1.35335e-08
0.000121897
1.59409e-08
0.000121908
1.78506e-08
0.000121921
1.92589e-08
0.000121937
2.01995e-08
0.000121955
2.07363e-08
0.000121974
2.09404e-08
0.000121995
2.088e-08
0.000122017
2.06127e-08
0.00012204
2.01785e-08
0.000122064
1.95981e-08
0.000122088
1.88742e-08
0.000122113
1.79946e-08
0.000122138
1.6934e-08
0.000122164
1.56566e-08
0.00012219
1.41182e-08
0.000122217
1.22672e-08
0.000122244
1.00501e-08
0.000122272
7.40838e-09
0.000122299
4.28617e-09
0.000122327
6.26105e-10
0.000122356
-3.62196e-09
0.000122384
-8.50629e-09
0.000122413
-1.4063e-08
0.000122442
-2.03224e-08
0.000122471
-2.72983e-08
0.000122499
-3.49957e-08
0.000122528
-4.34009e-08
0.000122556
-5.24903e-08
0.000122583
-6.22235e-08
0.00012261
-7.25432e-08
-8.33735e-08
0.000122636
0.000125365
2.93098e-09
0.00012537
8.30893e-09
0.000125379
7.602e-09
0.00012539
6.62387e-09
0.000125404
5.415e-09
0.00012542
4.04716e-09
0.000125438
2.59178e-09
0.000125458
1.10173e-09
0.000125479
-3.82938e-10
0.000125502
-1.83736e-09
0.000125525
-3.25642e-09
0.000125549
-4.65452e-09
0.000125574
-6.06064e-09
0.0001256
-7.51478e-09
0.000125626
-9.06523e-09
0.000125652
-1.07666e-08
0.000125679
-1.26775e-08
0.000125706
-1.48576e-08
0.000125734
-1.73675e-08
0.000125761
-2.02655e-08
0.000125789
-2.36069e-08
0.000125817
-2.74426e-08
0.000125845
-3.1817e-08
0.000125874
-3.67674e-08
0.000125902
-4.23216e-08
0.00012593
-4.84972e-08
0.000125958
-5.53003e-08
0.000125986
-6.27253e-08
0.000126013
-7.07541e-08
0.00012604
-7.93569e-08
0.000126066
-8.84938e-08
0.000126092
-9.81077e-08
-1.0813e-07
0.000126117
0.000128947
1.10877e-09
0.000128952
3.04358e-09
0.000128961
-8.07782e-10
0.000128972
-4.75711e-09
0.000128986
-8.69046e-09
0.000129003
-1.24698e-08
0.000129021
-1.60073e-08
0.000129042
-1.9267e-08
0.000129063
-2.22351e-08
0.000129086
-2.4918e-08
0.000129111
-2.73464e-08
0.000129135
-2.95707e-08
0.000129161
-3.16525e-08
0.000129187
-3.36599e-08
0.000129214
-3.56652e-08
0.000129241
-3.77404e-08
0.000129268
-3.99592e-08
0.000129296
-4.23897e-08
0.000129323
-4.50993e-08
0.000129351
-4.81464e-08
0.000129379
-5.15881e-08
0.000129407
-5.54695e-08
0.000129435
-5.98321e-08
0.000129463
-6.47044e-08
0.000129491
-7.01087e-08
0.000129519
-7.6054e-08
0.000129546
-8.25415e-08
0.000129573
-8.95587e-08
0.000129599
-9.70857e-08
0.000129625
-1.0509e-07
0.00012965
-1.13533e-07
0.000129674
-1.22362e-07
-1.31515e-07
0.000129697
0.000132631
-7.10551e-10
0.000132636
-2.23335e-09
0.000132645
-9.27615e-09
0.000132656
-1.63247e-08
0.000132671
-2.31327e-08
0.000132688
-2.9453e-08
0.000132707
-3.51759e-08
0.000132728
-4.02845e-08
0.00013275
-4.47916e-08
0.000132774
-4.87351e-08
0.000132799
-5.21847e-08
0.000132825
-5.52293e-08
0.000132851
-5.79653e-08
0.000132878
-6.04899e-08
0.000132905
-6.28987e-08
0.000132933
-6.5285e-08
0.00013296
-6.77335e-08
0.000132988
-7.03265e-08
0.000133016
-7.31327e-08
0.000133044
-7.62194e-08
0.000133072
-7.96382e-08
0.0001331
-8.34383e-08
0.000133128
-8.76525e-08
0.000133156
-9.23102e-08
0.000133183
-9.74244e-08
0.00013321
-1.03004e-07
0.000133237
-1.09043e-07
0.000133263
-1.15529e-07
0.000133288
-1.22438e-07
0.000133313
-1.29741e-07
0.000133336
-1.37398e-07
0.000133359
-1.45362e-07
-1.53573e-07
0.000133382
0.00013642
-2.4947e-09
0.000136425
-7.44432e-09
0.000136434
-1.7751e-08
0.000136446
-2.81002e-08
0.00013646
-3.79958e-08
0.000136478
-4.70242e-08
0.000136498
-5.50562e-08
0.00013652
-6.21e-08
0.000136543
-6.81937e-08
0.000136568
-7.34128e-08
0.000136593
-7.78743e-08
0.00013662
-8.1713e-08
0.000136647
-8.50619e-08
0.000136675
-8.80502e-08
0.000136702
-9.07979e-08
0.000136731
-9.34183e-08
0.000136759
-9.60119e-08
0.000136787
-9.86693e-08
0.000136816
-1.01469e-07
0.000136844
-1.0448e-07
0.000136872
-1.07757e-07
0.0001369
-1.11348e-07
0.000136927
-1.15286e-07
0.000136955
-1.19595e-07
0.000136982
-1.24291e-07
0.000137008
-1.29375e-07
0.000137034
-1.34845e-07
0.000137059
-1.40684e-07
0.000137083
-1.46872e-07
0.000137107
-1.53379e-07
0.00013713
-1.60173e-07
0.000137152
-1.67209e-07
-1.74442e-07
0.000137172
0.000140317
-4.17118e-09
0.000140322
-1.24157e-08
0.000140331
-2.61151e-08
0.000140343
-4.0096e-08
0.000140358
-5.33788e-08
0.000140376
-6.53234e-08
0.000140397
-7.58188e-08
0.00014042
-8.49076e-08
0.000140444
-9.26456e-08
0.00014047
-9.91508e-08
0.000140497
-1.04601e-07
0.000140524
-1.09183e-07
0.000140552
-1.13078e-07
0.000140581
-1.16447e-07
0.000140609
-1.19443e-07
0.000140638
-1.22196e-07
0.000140667
-1.24829e-07
0.000140696
-1.27439e-07
0.000140724
-1.30115e-07
0.000140753
-1.32928e-07
0.000140781
-1.35939e-07
0.000140809
-1.39193e-07
0.000140836
-1.42727e-07
0.000140863
-1.46562e-07
0.00014089
-1.50713e-07
0.000140916
-1.55183e-07
0.000140941
-1.59969e-07
0.000140965
-1.65054e-07
0.000140989
-1.70421e-07
0.000141011
-1.76042e-07
0.000141033
-1.81886e-07
0.000141054
-1.87909e-07
-1.9407e-07
0.000141073
0.000144326
-5.58088e-09
0.00014433
-1.67778e-08
0.000144338
-3.41326e-08
0.000144351
-5.23305e-08
0.000144367
-6.94427e-08
0.000144386
-8.45497e-08
0.000144408
-9.76489e-08
0.000144432
-1.0885e-07
0.000144457
-1.18244e-07
0.000144484
-1.26017e-07
0.000144512
-1.32418e-07
0.00014454
-1.37696e-07
0.000144569
-1.42071e-07
0.000144599
-1.45746e-07
0.000144628
-1.48901e-07
0.000144658
-1.51694e-07
0.000144687
-1.54259e-07
0.000144716
-1.56712e-07
0.000144745
-1.59146e-07
0.000144774
-1.61641e-07
0.000144802
-1.64259e-07
0.00014483
-1.67052e-07
0.000144858
-1.70053e-07
0.000144884
-1.7329e-07
0.00014491
-1.76774e-07
0.000144936
-1.80514e-07
0.00014496
-1.84504e-07
0.000144984
-1.88736e-07
0.000145007
-1.9319e-07
0.000145029
-1.97848e-07
0.000145049
-2.02683e-07
0.000145069
-2.07669e-07
-2.12769e-07
0.000145088
0.000148449
-6.36295e-09
0.000148452
-1.98025e-08
0.000148459
-4.13706e-08
0.000148471
-6.47218e-08
0.000148488
-8.63432e-08
0.000148509
-1.05118e-07
0.000148532
-1.21174e-07
0.000148558
-1.34624e-07
0.000148586
-1.45627e-07
0.000148614
-1.54521e-07
0.000148643
-1.61695e-07
0.000148673
-1.67478e-07
0.000148703
-1.72152e-07
0.000148733
-1.75962e-07
0.000148764
-1.79121e-07
0.000148794
-1.81809e-07
0.000148824
-1.84175e-07
0.000148853
-1.86342e-07
0.000148883
-1.88414e-07
0.000148911
-1.90473e-07
0.00014894
-1.92586e-07
0.000148967
-1.94804e-07
0.000148995
-1.97165e-07
0.000149021
-1.99697e-07
0.000149047
-2.02414e-07
0.000149071
-2.05325e-07
0.000149095
-2.08429e-07
0.000149118
-2.11718e-07
0.00014914
-2.15177e-07
0.000149161
-2.18788e-07
0.000149181
-2.22524e-07
0.0001492
-2.26352e-07
-2.30238e-07
0.000149217
0.000152688
-5.50321e-09
0.000152689
-2.00453e-08
0.000152695
-4.7597e-08
0.000152707
-7.73336e-08
0.000152725
-1.0364e-07
0.000152746
-1.26231e-07
0.00015277
-1.45592e-07
0.000152797
-1.61633e-07
0.000152826
-1.74492e-07
0.000152856
-1.84662e-07
0.000152887
-1.92669e-07
0.000152919
-1.9894e-07
0.00015295
-2.03836e-07
0.000152982
-2.07665e-07
0.000153014
-2.10688e-07
0.000153045
-2.13116e-07
0.000153076
-2.15121e-07
0.000153106
-2.16843e-07
0.000153136
-2.18393e-07
0.000153166
-2.19863e-07
0.000153194
-2.21322e-07
0.000153222
-2.22826e-07
0.00015325
-2.24414e-07
0.000153276
-2.26116e-07
0.000153302
-2.27951e-07
0.000153326
-2.29927e-07
0.00015335
-2.32048e-07
0.000153372
-2.34311e-07
0.000153394
-2.36706e-07
0.000153414
-2.39224e-07
0.000153434
-2.41852e-07
0.000153452
-2.4458e-07
-2.47382e-07
0.000153469
0.000157046
-5.26427e-10
0.00015704
-1.32081e-08
0.000157044
-5.2376e-08
0.00015706
-9.2775e-08
0.000157082
-1.25339e-07
0.000157107
-1.51835e-07
0.000157135
-1.7372e-07
0.000157165
-1.91255e-07
0.000157195
-2.05001e-07
0.000157227
-2.15748e-07
0.000157258
-2.24124e-07
0.00015729
-2.30597e-07
0.000157321
-2.35555e-07
0.000157353
-2.39339e-07
0.000157385
-2.42218e-07
0.000157416
-2.44414e-07
0.000157447
-2.46099e-07
0.000157477
-2.47421e-07
0.000157507
-2.48493e-07
0.000157537
-2.49409e-07
0.000157566
-2.5024e-07
0.000157594
-2.51046e-07
0.000157622
-2.51868e-07
0.000157648
-2.5274e-07
0.000157674
-2.53681e-07
0.000157699
-2.54708e-07
0.000157723
-2.55824e-07
0.000157745
-2.57032e-07
0.000157767
-2.58322e-07
0.000157787
-2.59687e-07
0.000157807
-2.61105e-07
0.000157825
-2.62548e-07
-2.64e-07
0.000157841
0.000161526
1.16585e-08
0.000161507
6.41254e-09
0.0001615
-4.57869e-08
0.000161505
-9.8141e-08
0.000161522
-1.41607e-07
0.000161547
-1.77474e-07
0.000161579
-2.0561e-07
0.000161614
-2.26526e-07
0.000161651
-2.41908e-07
0.000161689
-2.53333e-07
0.000161727
-2.6182e-07
0.000161764
-2.68057e-07
0.000161801
-2.72593e-07
0.000161838
-2.75856e-07
0.000161874
-2.78164e-07
0.000161909
-2.79751e-07
0.000161944
-2.80803e-07
0.000161978
-2.81457e-07
0.000162011
-2.81829e-07
0.000162044
-2.82004e-07
0.000162075
-2.8205e-07
0.000162106
-2.82021e-07
0.000162136
-2.81958e-07
0.000162166
-2.81891e-07
0.000162194
-2.81843e-07
0.000162221
-2.81829e-07
0.000162247
-2.81861e-07
0.000162272
-2.81941e-07
0.000162296
-2.82076e-07
0.000162318
-2.82264e-07
0.00016234
-2.82512e-07
0.00016236
-2.82825e-07
-2.83187e-07
0.000162379
0.0001661
6.51719e-08
0.000166098
8.91585e-09
0.000166116
-6.39279e-08
0.000166133
-1.15438e-07
0.00016615
-1.58849e-07
0.00016617
-1.97644e-07
0.000166194
-2.29356e-07
0.000166221
-2.53793e-07
0.000166252
-2.7255e-07
0.000166286
-2.87004e-07
0.000166322
-2.98028e-07
0.00016636
-3.06304e-07
0.0001664
-3.12422e-07
0.000166441
-3.16854e-07
0.000166483
-3.19957e-07
0.000166525
-3.22009e-07
0.000166568
-3.23234e-07
0.00016661
-3.23809e-07
0.000166652
-3.23879e-07
0.000166693
-3.23558e-07
0.000166734
-3.22938e-07
0.000166774
-3.22093e-07
0.000166814
-3.21083e-07
0.000166852
-3.19955e-07
0.000166889
-3.18746e-07
0.000166924
-3.17483e-07
0.000166958
-3.16188e-07
0.000166991
-3.14875e-07
0.000167023
-3.13555e-07
0.000167053
-3.12231e-07