/*--------------------------------*- C++ -*----------------------------------*\
  =========                 |
  \\      /  F ield         | OpenFOAM: The Open Source CFD Toolbox
   \\    /   O peration     | Website:  https://openfoam.org
    \\  /    A nd           | Version:  10
     \\/     M anipulation  |
\*---------------------------------------------------------------------------*/
FoamFile
{
    format      ascii;
    class       volVectorField;
    location    "1400";
    object      U;
}
// * * * * * * * * * * * * * * * * * * * * * * * * * * * * * * * * * * * * * //

dimensions      [0 1 -1 0 0 0 0];

internalField   nonuniform List<vector> 
6820
(
(7.31669 -0.387299 0)
(7.31536 -0.335153 0)
(7.2841 -0.2035 0)
(7.22613 -0.111089 0)
(7.16177 -0.0567599 0)
(7.10067 -0.0269951 0)
(7.04483 -0.011261 0)
(6.99445 -0.00306376 0)
(6.94927 0.00116056 0)
(6.90865 0.00329372 0)
(6.87187 0.00433611 0)
(6.83827 0.00482176 0)
(6.80735 0.00503236 0)
(6.77871 0.0051143 0)
(6.752 0.00514296 0)
(6.72697 0.00515677 0)
(6.70337 0.00517514 0)
(6.68103 0.00520805 0)
(6.65974 0.00526145 0)
(6.63936 0.00534034 0)
(6.61972 0.00545084 0)
(6.60065 0.00560195 0)
(6.58195 0.00580749 0)
(6.56341 0.00608862 0)
(6.54473 0.00648248 0)
(6.52551 0.00704489 0)
(6.50514 0.00791475 0)
(6.48291 0.00887637 0)
(6.45704 0.0110444 0)
(6.42331 0.01759 0)
(6.3839 0.0175044 0)
(6.32949 -0.0158751 0)
(6.24629 0.328571 0)
(7.33961 0.100785 0)
(7.35427 0.149941 0)
(7.35843 0.123266 0)
(7.35864 0.0898749 0)
(7.35924 0.0660665 0)
(7.35793 0.0501497 0)
(7.35259 0.039575 0)
(7.3435 0.0326234 0)
(7.33179 0.0279908 0)
(7.31844 0.0247859 0)
(7.30409 0.0224744 0)
(7.28919 0.020742 0)
(7.27407 0.0193953 0)
(7.25896 0.0183127 0)
(7.24398 0.0174187 0)
(7.22921 0.0166667 0)
(7.21471 0.0160287 0)
(7.20048 0.0154883 0)
(7.18654 0.0150376 0)
(7.17286 0.0146759 0)
(7.15942 0.0144086 0)
(7.14618 0.0142489 0)
(7.1331 0.0142198 0)
(7.1201 0.0143591 0)
(7.10712 0.0147279 0)
(7.09402 0.0154261 0)
(7.08073 0.0166237 0)
(7.06684 0.0186473 0)
(7.05271 0.0219337 0)
(7.03721 0.0276414 0)
(7.02075 0.039208 0)
(6.98915 0.0543689 0)
(7.04778 0.122364 0)
(7.32713 0.00613171 0)
(7.32427 -0.00156965 0)
(7.33127 -0.00615195 0)
(7.33966 -0.000750424 0)
(7.34667 0.00708025 0)
(7.35197 0.0128104 0)
(7.35515 0.0163225 0)
(7.35625 0.0184203 0)
(7.35567 0.019605 0)
(7.35376 0.0201786 0)
(7.35078 0.020368 0)
(7.34691 0.0203341 0)
(7.34235 0.0201779 0)
(7.33726 0.0199614 0)
(7.33173 0.0197243 0)
(7.32587 0.0194931 0)
(7.31975 0.0192864 0)
(7.3134 0.0191184 0)
(7.30686 0.0190025 0)
(7.30014 0.018953 0)
(7.29326 0.0189879 0)
(7.28619 0.0191313 0)
(7.2789 0.019418 0)
(7.27135 0.0198985 0)
(7.26346 0.0206522 0)
(7.25512 0.0217955 0)
(7.24621 0.0235406 0)
(7.23645 0.0261595 0)
(7.22577 0.0304369 0)
(7.21378 0.0371106 0)
(7.20111 0.0487154 0)
(7.18562 0.0665765 0)
(7.19673 0.120456 0)
(7.32977 -0.00399788 0)
(7.32628 0.0024823 0)
(7.33107 0.0107106 0)
(7.33671 0.0168497 0)
(7.34132 0.0204068 0)
(7.3456 0.021919 0)
(7.34936 0.0224057 0)
(7.35227 0.022534 0)
(7.35437 0.0225219 0)
(7.35576 0.0224238 0)
(7.35649 0.022276 0)
(7.35661 0.0221082 0)
(7.3562 0.0219375 0)
(7.35532 0.0217738 0)
(7.35404 0.0216257 0)
(7.35239 0.0215018 0)
(7.35042 0.0214112 0)
(7.34815 0.0213646 0)
(7.34561 0.0213753 0)
(7.3428 0.0214604 0)
(7.33974 0.0216426 0)
(7.3364 0.0219534 0)
(7.33276 0.022437 0)
(7.3288 0.0231571 0)
(7.32446 0.0242089 0)
(7.31967 0.0257322 0)
(7.31438 0.0279581 0)
(7.30847 0.0312105 0)
(7.30202 0.0361618 0)
(7.2952 0.0435985 0)
(7.28906 0.0553685 0)
(7.28558 0.0727105 0)
(7.29421 0.103587 0)
(7.33182 -0.000982721 0)
(7.32999 0.00675509 0)
(7.33256 0.0123631 0)
(7.33605 0.015151 0)
(7.33932 0.0171733 0)
(7.3428 0.0186683 0)
(7.3462 0.0196495 0)
(7.34919 0.0203125 0)
(7.35173 0.0207762 0)
(7.35387 0.0210861 0)
(7.35564 0.0212826 0)
(7.35703 0.0214056 0)
(7.35808 0.0214843 0)
(7.3588 0.0215392 0)
(7.35923 0.021587 0)
(7.35938 0.0216431 0)
(7.35926 0.0217225 0)
(7.35889 0.0218409 0)
(7.35827 0.0220162 0)
(7.35741 0.0222702 0)
(7.35631 0.0226308 0)
(7.35494 0.0231349 0)
(7.35331 0.0238331 0)
(7.35138 0.0247958 0)
(7.34914 0.0261246 0)
(7.34655 0.0279639 0)
(7.34362 0.030535 0)
(7.34039 0.0341427 0)
(7.33706 0.0393069 0)
(7.33408 0.0466017 0)
(7.33256 0.0569873 0)
(7.33464 0.0707682 0)
(7.34367 0.0883189 0)
(7.33247 0.000702751 0)
(7.33164 0.00637542 0)
(7.33344 0.0106223 0)
(7.33624 0.0132549 0)
(7.339 0.0155373 0)
(7.34189 0.0173272 0)
(7.34479 0.018504 0)
(7.34746 0.0192823 0)
(7.34987 0.0198351 0)
(7.35205 0.0202329 0)
(7.35402 0.0205207 0)
(7.35575 0.0207382 0)
(7.35727 0.0209146 0)
(7.35857 0.02107 0)
(7.35967 0.021221 0)
(7.36056 0.0213828 0)
(7.36126 0.021571 0)
(7.36177 0.0218021 0)
(7.36207 0.0220956 0)
(7.36218 0.0224751 0)
(7.36209 0.0229709 0)
(7.36178 0.0236225 0)
(7.36126 0.0244827 0)
(7.36051 0.0256233 0)
(7.35953 0.0271435 0)
(7.35833 0.0291789 0)
(7.35698 0.0319213 0)
(7.35557 0.0356198 0)
(7.3544 0.0406275 0)
(7.35397 0.0472755 0)
(7.3552 0.0559074 0)
(7.35959 0.0662474 0)
(7.36827 0.0771249 0)
(7.33271 0.00113113 0)
(7.3324 0.00555084 0)
(7.33394 0.00951521 0)
(7.33643 0.0123069 0)
(7.33893 0.0145488 0)
(7.34146 0.0162609 0)
(7.344 0.0174246 0)
(7.34642 0.0182283 0)
(7.34864 0.0188246 0)
(7.35072 0.0192777 0)
(7.35264 0.0196274 0)
(7.35442 0.01991 0)
(7.35604 0.0201538 0)
(7.35752 0.0203788 0)
(7.35886 0.0206018 0)
(7.36005 0.0208386 0)
(7.3611 0.0211053 0)
(7.362 0.0214194 0)
(7.36275 0.0218014 0)
(7.36335 0.0222761 0)
(7.36379 0.0228746 0)
(7.36408 0.0236369 0)
(7.36421 0.0246149 0)
(7.36418 0.0258771 0)
(7.36401 0.0275136 0)
(7.36375 0.0296414 0)
(7.36349 0.0324122 0)
(7.36336 0.0360053 0)
(7.36367 0.0406278 0)
(7.36487 0.0464163 0)
(7.36764 0.0533734 0)
(7.37289 0.0610309 0)
(7.38088 0.0682277 0)
(7.33286 0.0012984 0)
(7.33286 0.00511032 0)
(7.33422 0.00876651 0)
(7.33642 0.0114586 0)
(7.33872 0.01355 0)
(7.34104 0.0151832 0)
(7.34337 0.0163622 0)
(7.34562 0.0172096 0)
(7.34771 0.0178494 0)
(7.34968 0.0183458 0)
(7.35154 0.0187394 0)
(7.35327 0.019066 0)
(7.3549 0.0193541 0)
(7.35641 0.0196247 0)
(7.35782 0.0198954 0)
(7.35912 0.0201827 0)
(7.36031 0.0205035 0)
(7.36139 0.0208758 0)
(7.36236 0.0213204 0)
(7.36322 0.0218624 0)
(7.36397 0.0225326 0)
(7.3646 0.0233693 0)
(7.36514 0.0244211 0)
(7.36558 0.0257492 0)
(7.36598 0.0274303 0)
(7.36638 0.0295577 0)
(7.36688 0.0322405 0)
(7.36767 0.0355913 0)
(7.36898 0.0397067 0)
(7.37119 0.0445951 0)
(7.37476 0.0501055 0)
(7.38021 0.0557693 0)
(7.38746 0.0607259 0)
(7.33295 0.0013704 0)
(7.33314 0.0047603 0)
(7.33434 0.0080423 0)
(7.33629 0.0105809 0)
(7.3384 0.0125688 0)
(7.34056 0.0141542 0)
(7.34275 0.0153458 0)
(7.34487 0.0162254 0)
(7.34688 0.0168977 0)
(7.34877 0.0174273 0)
(7.35057 0.0178549 0)
(7.35226 0.0182151 0)
(7.35387 0.0185361 0)
(7.35538 0.01884 0)
(7.3568 0.0191449 0)
(7.35814 0.019468 0)
(7.3594 0.0198266 0)
(7.36057 0.020239 0)
(7.36166 0.0207262 0)
(7.36267 0.0213124 0)
(7.3636 0.022027 0)
(7.36446 0.0229053 0)
(7.36528 0.0239906 0)
(7.36606 0.0253346 0)
(7.36686 0.0269983 0)
(7.36774 0.0290501 0)
(7.36881 0.0315601 0)
(7.37023 0.0345861 0)
(7.3722 0.0381497 0)
(7.37501 0.0421876 0)
(7.37895 0.0465004 0)
(7.38429 0.0506907 0)
(7.39085 0.0541752 0)
(7.33299 0.00136825 0)
(7.33329 0.00442 0)
(7.33438 0.007363 0)
(7.3361 0.00974949 0)
(7.33804 0.0116475 0)
(7.34006 0.0131772 0)
(7.34211 0.0143604 0)
(7.34413 0.0152571 0)
(7.34606 0.0159534 0)
(7.3479 0.0165098 0)
(7.34965 0.0169657 0)
(7.35132 0.0173539 0)
(7.3529 0.017702 0)
(7.35441 0.0180323 0)
(7.35584 0.0183634 0)
(7.35721 0.018713 0)
(7.3585 0.0190983 0)
(7.35973 0.0195378 0)
(7.3609 0.0200517 0)
(7.36201 0.0206631 0)
(7.36308 0.0213988 0)
(7.36411 0.0222903 0)
(7.36513 0.023374 0)
(7.36618 0.0246913 0)
(7.36728 0.0262874 0)
(7.36853 0.0282072 0)
(7.37001 0.0304889 0)
(7.37187 0.0331494 0)
(7.37427 0.036165 0)
(7.3774 0.0394399 0)
(7.38145 0.0427779 0)
(7.38655 0.0458665 0)
(7.39249 0.048322 0)
(7.33302 0.0013197 0)
(7.33337 0.00409282 0)
(7.33435 0.00674382 0)
(7.33589 0.00897158 0)
(7.33767 0.0107735 0)
(7.33955 0.012239 0)
(7.34148 0.0133996 0)
(7.3434 0.0143014 0)
(7.34526 0.0150132 0)
(7.34705 0.0155893 0)
(7.34876 0.0160673 0)
(7.35041 0.016478 0)
(7.35198 0.0168481 0)
(7.35349 0.0171995 0)
(7.35494 0.0175509 0)
(7.35632 0.0179198 0)
(7.35765 0.0183234 0)
(7.35893 0.0187795 0)
(7.36017 0.0193071 0)
(7.36137 0.0199276 0)
(7.36254 0.0206647 0)
(7.36372 0.0215451 0)
(7.36491 0.0225979 0)
(7.36616 0.0238542 0)
(7.36751 0.0253443 0)
(7.36903 0.0270937 0)
(7.37082 0.0291156 0)
(7.37297 0.0314001 0)
(7.37562 0.033899 0)
(7.3789 0.0365087 0)
(7.38292 0.039057 0)
(7.38773 0.0413077 0)
(7.39312 0.0430088 0)
(7.33303 0.00124686 0)
(7.33339 0.00377964 0)
(7.3343 0.00617502 0)
(7.33568 0.00823992 0)
(7.33732 0.00994033 0)
(7.33907 0.0113375 0)
(7.34088 0.012465 0)
(7.3427 0.0133603 0)
(7.34449 0.0140777 0)
(7.34623 0.0146652 0)
(7.34791 0.0151582 0)
(7.34954 0.0155854 0)
(7.35111 0.0159719 0)
(7.35262 0.0163389 0)
(7.35407 0.0167048 0)
(7.35548 0.0170866 0)
(7.35684 0.0175006 0)
(7.35817 0.0179639 0)
(7.35947 0.0184938 0)
(7.36075 0.0191094 0)
(7.36203 0.0198307 0)
(7.36332 0.0206794 0)
(7.36466 0.0216776 0)
(7.36608 0.0228465 0)
(7.36763 0.0242037 0)
(7.36936 0.0257593 0)
(7.37136 0.0275091 0)
(7.37371 0.0294268 0)
(7.3765 0.0314544 0)
(7.37982 0.0334934 0)
(7.38372 0.0354013 0)
(7.38821 0.0370029 0)
(7.39313 0.038131 0)
(7.33303 0.0011625 0)
(7.3334 0.00347897 0)
(7.33423 0.00564728 0)
(7.33548 0.00755088 0)
(7.33698 0.0091461 0)
(7.33861 0.0104708 0)
(7.34032 0.0115563 0)
(7.34205 0.0124341 0)
(7.34378 0.0131475 0)
(7.34546 0.0137382 0)
(7.34711 0.0142387 0)
(7.34872 0.0146757 0)
(7.35027 0.0150725 0)
(7.35179 0.0154492 0)
(7.35325 0.0158233 0)
(7.35469 0.0162111 0)
(7.35608 0.016628 0)
(7.35746 0.0170894 0)
(7.35882 0.017611 0)
(7.36017 0.0182089 0)
(7.36154 0.0188997 0)
(7.36294 0.0196998 0)
(7.36441 0.0206245 0)
(7.36597 0.0216868 0)
(7.36767 0.0228939 0)
(7.36956 0.0242446 0)
(7.37171 0.0257234 0)
(7.37417 0.0272958 0)
(7.37702 0.0289025 0)
(7.3803 0.0304563 0)
(7.38404 0.031843 0)
(7.38824 0.0329337 0)
(7.39273 0.0336155 0)
(7.33304 0.00107372 0)
(7.33338 0.00319031 0)
(7.33415 0.00515403 0)
(7.3353 0.0069008 0)
(7.33668 0.00838782 0)
(7.3382 0.00963596 0)
(7.33981 0.0106719 0)
(7.34146 0.0115226 0)
(7.34312 0.0122231 0)
(7.34476 0.0128089 0)
(7.34637 0.0133094 0)
(7.34795 0.0137492 0)
(7.3495 0.0141497 0)
(7.35101 0.0145297 0)
(7.35249 0.0149056 0)
(7.35394 0.0152925 0)
(7.35538 0.0157045 0)
(7.35679 0.0161553 0)
(7.35821 0.0166586 0)
(7.35963 0.0172275 0)
(7.36108 0.0178749 0)
(7.36258 0.0186124 0)
(7.36415 0.0194497 0)
(7.36582 0.0203925 0)
(7.36764 0.0214404 0)
(7.36965 0.0225842 0)
(7.37189 0.0238022 0)
(7.37441 0.0250571 0)
(7.37725 0.0262933 0)
(7.38046 0.0274365 0)
(7.38402 0.0283971 0)
(7.38793 0.0290804 0)
(7.39204 0.0294085 0)
(7.33304 0.000984434 0)
(7.33337 0.0029135 0)
(7.33408 0.00468995 0)
(7.33513 0.00628533 0)
(7.33641 0.00766208 0)
(7.33783 0.00882979 0)
(7.33935 0.00980974 0)
(7.34092 0.0106249 0)
(7.34251 0.0113041 0)
(7.34411 0.0118772 0)
(7.34569 0.0123705 0)
(7.34725 0.0128061 0)
(7.34878 0.0132037 0)
(7.35029 0.0135804 0)
(7.35179 0.0139514 0)
(7.35326 0.0143303 0)
(7.35472 0.0147298 0)
(7.35618 0.0151617 0)
(7.35764 0.0156374 0)
(7.35913 0.0161673 0)
(7.36065 0.0167607 0)
(7.36222 0.0174251 0)
(7.36388 0.018165 0)
(7.36564 0.0189808 0)
(7.36754 0.0198666 0)
(7.36962 0.0208084 0)
(7.37191 0.0217815 0)
(7.37445 0.0227494 0)
(7.37726 0.0236625 0)
(7.38035 0.0244593 0)
(7.38373 0.02507 0)
(7.38736 0.025425 0)
(7.39114 0.0254697 0)
(7.33303 0.000896688 0)
(7.33335 0.00264813 0)
(7.33401 0.00425059 0)
(7.33498 0.00570011 0)
(7.33616 0.00696542 0)
(7.3375 0.0080492 0)
(7.33894 0.00896754 0)
(7.34044 0.0097399 0)
(7.34197 0.0103899 0)
(7.34352 0.0109429 0)
(7.34507 0.0114217 0)
(7.34661 0.0118463 0)
(7.34813 0.0122344 0)
(7.34964 0.0126013 0)
(7.35114 0.0129607 0)
(7.35263 0.0133247 0)
(7.35412 0.0137044 0)
(7.35561 0.0141097 0)
(7.35712 0.0145497 0)
(7.35866 0.0150321 0)
(7.36023 0.0155631 0)
(7.36187 0.0161465 0)
(7.36359 0.016783 0)
(7.36542 0.0174688 0)
(7.36738 0.0181945 0)
(7.3695 0.0189436 0)
(7.37181 0.019691 0)
(7.37433 0.0204027 0)
(7.37707 0.021036 0)
(7.38004 0.021541 0)
(7.38322 0.0218634 0)
(7.38661 0.0219523 0)
(7.39009 0.0217684 0)
(7.33303 0.000811404 0)
(7.33332 0.00239353 0)
(7.33394 0.00383227 0)
(7.33484 0.00514099 0)
(7.33595 0.00629435 0)
(7.33721 0.00729107 0)
(7.33857 0.00814282 0)
(7.34001 0.00886578 0)
(7.34149 0.0094795 0)
(7.34299 0.0100052 0)
(7.34451 0.0104627 0)
(7.34603 0.0108696 0)
(7.34754 0.0112415 0)
(7.34905 0.0115921 0)
(7.35056 0.0119335 0)
(7.35206 0.0122761 0)
(7.35357 0.0126293 0)
(7.35509 0.0130011 0)
(7.35664 0.0133984 0)
(7.35822 0.0138265 0)
(7.35984 0.0142888 0)
(7.36153 0.0147862 0)
(7.3633 0.0153164 0)
(7.36517 0.0158729 0)
(7.36716 0.0164442 0)
(7.3693 0.0170129 0)
(7.37159 0.0175552 0)
(7.37406 0.0180405 0)
(7.37672 0.018433 0)
(7.37955 0.0186924 0)
(7.38255 0.018777 0)
(7.3857 0.0186493 0)
(7.38891 0.0182807 0)
(7.33303 0.000728873 0)
(7.3333 0.00214878 0)
(7.33388 0.0034318 0)
(7.33472 0.00460415 0)
(7.33576 0.00564541 0)
(7.33695 0.00655229 0)
(7.33825 0.00733297 0)
(7.33963 0.00800061 0)
(7.34106 0.00857144 0)
(7.34253 0.00906312 0)
(7.34401 0.00949267 0)
(7.34551 0.00987541 0)
(7.34701 0.0102249 0)
(7.34852 0.0105531 0)
(7.35003 0.0108702 0)
(7.35155 0.0111853 0)
(7.35307 0.0115059 0)
(7.35462 0.0118382 0)
(7.35619 0.0121871 0)
(7.3578 0.0125556 0)
(7.35946 0.0129451 0)
(7.36119 0.0133539 0)
(7.36299 0.0137778 0)
(7.36488 0.0142086 0)
(7.36688 0.0146338 0)
(7.36901 0.0150364 0)
(7.37127 0.0153943 0)
(7.37368 0.0156813 0)
(7.37623 0.0158674 0)
(7.37893 0.0159207 0)
(7.38175 0.0158092 0)
(7.38468 0.0155052 0)
(7.38764 0.0149877 0)
(7.33303 0.000649032 0)
(7.33329 0.00191276 0)
(7.33383 0.0030464 0)
(7.33462 0.00408602 0)
(7.3356 0.00501521 0)
(7.33672 0.0058298 0)
(7.33796 0.00653528 0)
(7.33929 0.00714226 0)
(7.34068 0.00766412 0)
(7.34211 0.00811553 0)
(7.34357 0.00851088 0)
(7.34505 0.00886326 0)
(7.34654 0.00918431 0)
(7.34804 0.00948416 0)
(7.34955 0.00977146 0)
(7.35108 0.0100535 0)
(7.35262 0.0103362 0)
(7.35419 0.010624 0)
(7.35578 0.0109199 0)
(7.35742 0.0112254 0)
(7.3591 0.0115397 0)
(7.36084 0.0118596 0)
(7.36266 0.0121795 0)
(7.36456 0.0124902 0)
(7.36655 0.0127793 0)
(7.36865 0.0130308 0)
(7.37087 0.013225 0)
(7.3732 0.0133395 0)
(7.37565 0.0133498 0)
(7.3782 0.0132309 0)
(7.38085 0.012958 0)
(7.38357 0.012511 0)
(7.3863 0.0118743 0)
(7.33303 0.000571635 0)
(7.33327 0.00168429 0)
(7.33378 0.00267355 0)
(7.33452 0.00358337 0)
(7.33545 0.00440049 0)
(7.33653 0.00512051 0)
(7.33772 0.00574704 0)
(7.339 0.00628847 0)
(7.34035 0.00675577 0)
(7.34174 0.00716105 0)
(7.34318 0.0075163 0)
(7.34464 0.00783255 0)
(7.34612 0.00811953 0)
(7.34762 0.00838563 0)
(7.34913 0.00863789 0)
(7.35066 0.00888199 0)
(7.35222 0.00912224 0)
(7.35379 0.00936158 0)
(7.3554 0.00960149 0)
(7.35705 0.00984175 0)
(7.35875 0.0100803 0)
(7.3605 0.0103128 0)
(7.36231 0.0105327 0)
(7.36421 0.0107307 0)
(7.36618 0.0108948 0)
(7.36824 0.0110104 0)
(7.37039 0.0110606 0)
(7.37264 0.0110264 0)
(7.37497 0.010888 0)
(7.37739 0.0106258 0)
(7.37987 0.0102211 0)
(7.3824 0.00965906 0)
(7.38492 0.00892816 0)
(7.33303 0.000496339 0)
(7.33326 0.00146212 0)
(7.33374 0.00231095 0)
(7.33445 0.00309317 0)
(7.33533 0.00379808 0)
(7.33636 0.00442142 0)
(7.3375 0.00496547 0)
(7.33874 0.00543683 0)
(7.34006 0.00584442 0)
(7.34143 0.00619814 0)
(7.34284 0.00650783 0)
(7.34428 0.00678256 0)
(7.34575 0.00703029 0)
(7.34724 0.00725775 0)
(7.34875 0.00747039 0)
(7.35029 0.00767238 0)
(7.35185 0.0078666 0)
(7.35343 0.00805458 0)
(7.35505 0.00823645 0)
(7.3567 0.00841079 0)
(7.3584 0.00857447 0)
(7.36015 0.00872251 0)
(7.36196 0.0088479 0)
(7.36383 0.00894157 0)
(7.36577 0.00899241 0)
(7.36778 0.00898741 0)
(7.36986 0.00891205 0)
(7.37201 0.00875075 0)
(7.37423 0.00848768 0)
(7.37651 0.00810747 0)
(7.37883 0.007596 0)
(7.38119 0.00694262 0)
(7.38351 0.00613882 0)
(7.33302 0.000422767 0)
(7.33325 0.00124501 0)
(7.3337 0.00195644 0)
(7.33438 0.00261262 0)
(7.33522 0.00320494 0)
(7.33621 0.00372951 0)
(7.33732 0.00418776 0)
(7.33853 0.00458485 0)
(7.33981 0.00492796 0)
(7.34115 0.00522511 0)
(7.34254 0.0054842 0)
(7.34397 0.00571252 0)
(7.34543 0.00591634 0)
(7.34691 0.00610081 0)
(7.34842 0.0062699 0)
(7.34996 0.00642639 0)
(7.35152 0.00657184 0)
(7.3531 0.00670656 0)
(7.35472 0.00682957 0)
(7.35637 0.0069385 0)
(7.35807 0.00702952 0)
(7.35981 0.00709722 0)
(7.36159 0.00713459 0)
(7.36343 0.00713304 0)
(7.36533 0.00708251 0)
(7.36728 0.00697164 0)
(7.36928 0.00678821 0)
(7.37134 0.0065195 0)
(7.37345 0.00615294 0)
(7.37559 0.00567669 0)
(7.37776 0.00508014 0)
(7.37995 0.00435577 0)
(7.3821 0.00349739 0)
(7.33302 0.000350538 0)
(7.33324 0.00103177 0)
(7.33367 0.00160804 0)
(7.33432 0.00213908 0)
(7.33513 0.00261812 0)
(7.33609 0.00304177 0)
(7.33716 0.00341102 0)
(7.33834 0.00372988 0)
(7.33959 0.00400412 0)
(7.34091 0.00424009 0)
(7.34229 0.00444402 0)
(7.3437 0.00462152 0)
(7.34515 0.0047773 0)
(7.34663 0.00491505 0)
(7.34813 0.00503737 0)
(7.34966 0.00514575 0)
(7.35122 0.00524057 0)
(7.3528 0.00532111 0)
(7.35442 0.00538547 0)
(7.35606 0.00543058 0)
(7.35774 0.00545215 0)
(7.35946 0.00544461 0)
(7.36122 0.00540118 0)
(7.36302 0.00531391 0)
(7.36486 0.00517386 0)
(7.36675 0.00497129 0)
(7.36868 0.00469599 0)
(7.37064 0.00433773 0)
(7.37263 0.00388658 0)
(7.37465 0.00333356 0)
(7.37668 0.00267075 0)
(7.3787 0.00189304 0)
(7.38069 0.000995991 0)
(7.33302 0.000279285 0)
(7.33323 0.000821278 0)
(7.33365 0.00126389 0)
(7.33427 0.0016701 0)
(7.33506 0.00203476 0)
(7.33598 0.00235521 0)
(7.33703 0.00263226 0)
(7.33818 0.00286914 0)
(7.33941 0.0030704 0)
(7.34072 0.00324099 0)
(7.34207 0.00338563 0)
(7.34347 0.00350843 0)
(7.34491 0.00361265 0)
(7.34638 0.00370062 0)
(7.34788 0.00377365 0)
(7.34941 0.00383209 0)
(7.35096 0.00387529 0)
(7.35254 0.00390163 0)
(7.35414 0.0039085 0)
(7.35577 0.00389232 0)
(7.35743 0.00384851 0)
(7.35913 0.00377156 0)
(7.36085 0.00365505 0)
(7.3626 0.00349175 0)
(7.36439 0.00327385 0)
(7.36621 0.00299305 0)
(7.36805 0.00264097 0)
(7.36992 0.00220939 0)
(7.3718 0.00169062 0)
(7.37369 0.00107785 0)
(7.37559 0.00036535 0)
(7.37747 -0.000450263 0)
(7.3793 -0.001372 0)
(7.33302 0.000208678 0)
(7.33322 0.000612512 0)
(7.33363 0.000922282 0)
(7.33423 0.00120332 0)
(7.33499 0.00145204 0)
(7.3359 0.00166674 0)
(7.33692 0.00184836 0)
(7.33805 0.00199961 0)
(7.33927 0.00212406 0)
(7.34055 0.00222544 0)
(7.34189 0.00230715 0)
(7.34329 0.0023719 0)
(7.34472 0.00242164 0)
(7.34618 0.00245741 0)
(7.34767 0.00247938 0)
(7.34919 0.00248684 0)
(7.35073 0.00247824 0)
(7.3523 0.00245121 0)
(7.35389 0.00240257 0)
(7.3555 0.00232837 0)
(7.35714 0.00222393 0)
(7.3588 0.0020839 0)
(7.36049 0.00190227 0)
(7.36219 0.00167261 0)
(7.36392 0.00138808 0)
(7.36567 0.00104175 0)
(7.36743 0.00062674 0)
(7.3692 0.000136552 0)
(7.37098 -0.000434739 0)
(7.37275 -0.00109217 0)
(7.37451 -0.00183984 0)
(7.37626 -0.00267977 0)
(7.37794 -0.00361391 0)
(7.33302 0.000138447 0)
(7.33321 0.000404618 0)
(7.33361 0.000581728 0)
(7.33419 0.000736544 0)
(7.33494 0.000867166 0)
(7.33582 0.000973168 0)
(7.33683 0.00105597 0)
(7.33795 0.00111798 0)
(7.33915 0.00116199 0)
(7.34042 0.0011907 0)
(7.34175 0.00120628 0)
(7.34314 0.00121021 0)
(7.34456 0.00120317 0)
(7.34602 0.00118502 0)
(7.3475 0.00115488 0)
(7.34901 0.00111111 0)
(7.35055 0.00105136 0)
(7.3521 0.000972621 0)
(7.35367 0.000871268 0)
(7.35526 0.00074312 0)
(7.35687 0.000583471 0)
(7.3585 0.000387185 0)
(7.36014 0.00014874 0)
(7.36179 -0.000137602 0)
(7.36346 -0.000477733 0)
(7.36513 -0.000877453 0)
(7.36681 -0.00134235 0)
(7.36849 -0.00187751 0)
(7.37016 -0.00248746 0)
(7.37183 -0.00317586 0)
(7.37347 -0.00394553 0)
(7.37508 -0.00479753 0)
(7.37664 -0.00573299 0)
(7.33302 6.84175e-05 0)
(7.33321 0.000196992 0)
(7.33359 0.000240998 0)
(7.33416 0.00026773 0)
(7.33489 0.000277301 0)
(7.33576 0.000271116 0)
(7.33676 0.000251428 0)
(7.33787 0.000220536 0)
(7.33906 0.000180632 0)
(7.34032 0.00013352 0)
(7.34165 8.02858e-05 0)
(7.34303 2.11893e-05 0)
(7.34444 -4.42951e-05 0)
(7.34589 -0.000117401 0)
(7.34737 -0.000200026 0)
(7.34887 -0.000294672 0)
(7.3504 -0.000404395 0)
(7.35193 -0.000532738 0)
(7.35349 -0.000683664 0)
(7.35505 -0.00086152 0)
(7.35663 -0.00107094 0)
(7.35822 -0.00131683 0)
(7.35981 -0.00160422 0)
(7.36142 -0.00193823 0)
(7.36302 -0.00232388 0)
(7.36462 -0.00276603 0)
(7.36622 -0.00326915 0)
(7.36781 -0.00383726 0)
(7.36939 -0.00447371 0)
(7.37094 -0.00518114 0)
(7.37247 -0.00596136 0)
(7.37397 -0.00681475 0)
(7.3754 -0.00774174 0)
(7.33302 -1.41549e-06 0)
(7.3332 -1.05467e-05 0)
(7.33357 -0.000100712 0)
(7.33413 -0.000204985 0)
(7.33485 -0.000320489 0)
(7.33571 -0.000443122 0)
(7.33671 -0.000569399 0)
(7.3378 -0.000696991 0)
(7.33899 -0.000824196 0)
(7.34026 -0.000949998 0)
(7.34158 -0.00107433 0)
(7.34295 -0.00119806 0)
(7.34437 -0.00132286 0)
(7.34581 -0.001451 0)
(7.34729 -0.00158531 0)
(7.34878 -0.00172912 0)
(7.35029 -0.00188613 0)
(7.35181 -0.00206037 0)
(7.35334 -0.00225612 0)
(7.35488 -0.00247783 0)
(7.35643 -0.0027301 0)
(7.35798 -0.00301759 0)
(7.35953 -0.00334493 0)
(7.36107 -0.00371665 0)
(7.36262 -0.00413711 0)
(7.36415 -0.00461031 0)
(7.36567 -0.00513989 0)
(7.36717 -0.00572896 0)
(7.36866 -0.00638001 0)
(7.37011 -0.00709486 0)
(7.37153 -0.00787464 0)
(7.37292 -0.00871924 0)
(7.37424 -0.00962868 0)
(7.33302 -7.07564e-05 0)
(7.33319 -0.000217435 0)
(7.33355 -0.000443506 0)
(7.3341 -0.000683187 0)
(7.33481 -0.00092931 0)
(7.33567 -0.00117375 0)
(7.33666 -0.00141137 0)
(7.33776 -0.00163968 0)
(7.33895 -0.00185738 0)
(7.34022 -0.00206427 0)
(7.34155 -0.00226152 0)
(7.34292 -0.00245133 0)
(7.34434 -0.00263656 0)
(7.34578 -0.00282054 0)
(7.34725 -0.00300695 0)
(7.34873 -0.00319982 0)
(7.35023 -0.00340339 0)
(7.35173 -0.00362203 0)
(7.35324 -0.00386021 0)
(7.35476 -0.00412245 0)
(7.35627 -0.00441323 0)
(7.35778 -0.00473695 0)
(7.35928 -0.00509785 0)
(7.36078 -0.0055 0)
(7.36226 -0.00594711 0)
(7.36372 -0.00644258 0)
(7.36517 -0.00698933 0)
(7.36659 -0.00758979 0)
(7.36799 -0.00824579 0)
(7.36935 -0.00895855 0)
(7.37067 -0.00972866 0)
(7.37196 -0.0105556 0)
(7.37317 -0.0114391 0)
(7.33302 -0.000138727 0)
(7.33318 -0.000421734 0)
(7.33353 -0.00078635 0)
(7.33406 -0.00116814 0)
(7.33476 -0.00155248 0)
(7.33563 -0.00192545 0)
(7.33662 -0.00228024 0)
(7.33773 -0.00261422 0)
(7.33893 -0.00292594 0)
(7.34021 -0.00321556 0)
(7.34154 -0.00348525 0)
(7.34292 -0.00373861 0)
(7.34434 -0.00397994 0)
(7.34578 -0.00421389 0)
(7.34725 -0.00444532 0)
(7.34872 -0.00467924 0)
(7.35021 -0.00492059 0)
(7.3517 -0.00517429 0)
(7.35319 -0.00544509 0)
(7.35468 -0.00573766 0)
(7.35616 -0.0060564 0)
(7.35763 -0.00640553 0)
(7.35909 -0.00678897 0)
(7.36053 -0.00721034 0)
(7.36195 -0.00767286 0)
(7.36335 -0.00817938 0)
(7.36473 -0.00873226 0)
(7.36608 -0.00933337 0)
(7.36739 -0.00998403 0)
(7.36866 -0.010685 0)
(7.3699 -0.0114366 0)
(7.37109 -0.0122383 0)
(7.3722 -0.0130894 0)
(7.33302 -0.000203288 0)
(7.33317 -0.000618829 0)
(7.33349 -0.00112618 0)
(7.334 -0.00166099 0)
(7.3347 -0.00219456 0)
(7.33557 -0.00270387 0)
(7.33658 -0.00318121 0)
(7.33771 -0.00362555 0)
(7.33893 -0.0040369 0)
(7.34022 -0.00441675 0)
(7.34157 -0.00476851 0)
(7.34297 -0.00509664 0)
(7.34439 -0.00540602 0)
(7.34584 -0.00570181 0)
(7.34731 -0.00598936 0)
(7.34878 -0.00627404 0)
(7.35026 -0.00656119 0)
(7.35173 -0.00685594 0)
(7.3532 -0.0071633 0)
(7.35466 -0.00748796 0)
(7.35611 -0.0078344 0)
(7.35754 -0.0082067 0)
(7.35896 -0.00860867 0)
(7.36035 -0.00904363 0)
(7.36172 -0.0095146 0)
(7.36306 -0.010024 0)
(7.36436 -0.0105741 0)
(7.36564 -0.0111661 0)
(7.36687 -0.0118014 0)
(7.36807 -0.0124802 0)
(7.36921 -0.0132027 0)
(7.37031 -0.0139679 0)
(7.37134 -0.0147751 0)
(7.33301 -0.000260005 0)
(7.33314 -0.000799174 0)
(7.33341 -0.00145592 0)
(7.3339 -0.00216077 0)
(7.33461 -0.00286166 0)
(7.33549 -0.00352254 0)
(7.33653 -0.00413071 0)
(7.33768 -0.00468186 0)
(7.33892 -0.00517579 0)
(7.34023 -0.00561778 0)
(7.3416 -0.00601647 0)
(7.34301 -0.00638094 0)
(7.34445 -0.0067195 0)
(7.34591 -0.00703987 0)
(7.34737 -0.00734918 0)
(7.34884 -0.00765395 0)
(7.35031 -0.00796009 0)
(7.35178 -0.00827296 0)
(7.35323 -0.00859749 0)
(7.35467 -0.00893812 0)
(7.35609 -0.00929893 0)
(7.35749 -0.00968353 0)
(7.35886 -0.0100952 0)
(7.36021 -0.0105368 0)
(7.36153 -0.0110106 0)
(7.36281 -0.0115188 0)
(7.36406 -0.0120629 0)
(7.36527 -0.0126439 0)
(7.36643 -0.0132628 0)
(7.36755 -0.0139196 0)
(7.36863 -0.0146143 0)
(7.36965 -0.0153464 0)
(7.3706 -0.0161153 0)
(7.33301 -0.000298427 0)
(7.33308 -0.000944834 0)
(7.33328 -0.00176804 0)
(7.33373 -0.00266344 0)
(7.33443 -0.00354113 0)
(7.33535 -0.00437167 0)
(7.33643 -0.00515621 0)
(7.33764 -0.00588778 0)
(7.33894 -0.00655603 0)
(7.3403 -0.00715876 0)
(7.34171 -0.00770083 0)
(7.34314 -0.00818967 0)
(7.3446 -0.0086334 0)
(7.34606 -0.00904059 0)
(7.34753 -0.00941987 0)
(7.349 -0.00977952 0)
(7.35045 -0.0101272 0)
(7.3519 -0.0104698 0)
(7.35332 -0.0108137 0)
(7.35473 -0.0111646 0)
(7.35612 -0.0115275 0)
(7.35748 -0.0119068 0)
(7.35881 -0.0123062 0)
(7.36011 -0.0127291 0)
(7.36138 -0.013178 0)
(7.3626 -0.0136552 0)
(7.36379 -0.0141623 0)
(7.36494 -0.0147005 0)
(7.36603 -0.0152706 0)
(7.36708 -0.0158728 0)
(7.36808 -0.0165069 0)
(7.36903 -0.017172 0)
(7.3699 -0.0178669 0)
(7.33299 -0.000292345 0)
(7.33294 -0.00100683 0)
(7.33302 -0.00205839 0)
(7.33342 -0.00322663 0)
(7.33413 -0.00428687 0)
(7.33506 -0.00517939 0)
(7.33614 -0.00593513 0)
(7.33736 -0.00658703 0)
(7.33868 -0.00715838 0)
(7.34009 -0.00766949 0)
(7.34153 -0.008137 0)
(7.34301 -0.0085728 0)
(7.34451 -0.00898562 0)
(7.34601 -0.00938239 0)
(7.3475 -0.00976885 0)
(7.34899 -0.0101498 0)
(7.35046 -0.0105294 0)
(7.35191 -0.0109115 0)
(7.35333 -0.0112997 0)
(7.35474 -0.011697 0)
(7.35611 -0.0121066 0)
(7.35745 -0.012531 0)
(7.35876 -0.0129728 0)
(7.36002 -0.013434 0)
(7.36125 -0.0139164 0)
(7.36244 -0.0144214 0)
(7.36359 -0.0149503 0)
(7.36468 -0.0155038 0)
(7.36573 -0.0160824 0)
(7.36673 -0.0166864 0)
(7.36768 -0.0173159 0)
(7.36858 -0.0179704 0)
(7.3694 -0.0186501 0)
(7.33295 -0.00019754 0)
(7.33263 -0.000875581 0)
(7.33243 -0.00214328 0)
(7.33281 -0.00375855 0)
(7.3337 -0.00547806 0)
(7.33485 -0.00715141 0)
(7.3361 -0.0086663 0)
(7.33743 -0.00996032 0)
(7.33881 -0.0110318 0)
(7.34023 -0.0119102 0)
(7.34167 -0.0126287 0)
(7.34312 -0.0132173 0)
(7.34458 -0.0137032 0)
(7.34603 -0.0141113 0)
(7.34749 -0.0144621 0)
(7.34893 -0.0147727 0)
(7.35036 -0.0150569 0)
(7.35177 -0.0153258 0)
(7.35317 -0.0155886 0)
(7.35454 -0.0158526 0)
(7.35588 -0.0161238 0)
(7.35719 -0.0164069 0)
(7.35847 -0.0167058 0)
(7.35972 -0.0170234 0)
(7.36093 -0.0173622 0)
(7.36209 -0.0177237 0)
(7.36321 -0.0181094 0)
(7.36429 -0.0185199 0)
(7.36531 -0.0189557 0)
(7.36629 -0.0194167 0)
(7.36721 -0.0199025 0)
(7.36808 -0.0204121 0)
(7.36886 -0.0209446 0)
(7.3329 0.000132532 0)
(7.33208 -0.000848377 0)
(7.33127 -0.00215953 0)
(7.33113 -0.00282291 0)
(7.33164 -0.00308901 0)
(7.33261 -0.00341781 0)
(7.33391 -0.00392071 0)
(7.33544 -0.00453572 0)
(7.33708 -0.00521619 0)
(7.33876 -0.00594307 0)
(7.34045 -0.00669791 0)
(7.34213 -0.00746101 0)
(7.3438 -0.00821773 0)
(7.34544 -0.00895942 0)
(7.34706 -0.0096813 0)
(7.34866 -0.0103812 0)
(7.35023 -0.0110588 0)
(7.35176 -0.0117153 0)
(7.35327 -0.012353 0)
(7.35475 -0.0129744 0)
(7.35619 -0.0135826 0)
(7.35759 -0.0141804 0)
(7.35896 -0.0147709 0)
(7.36029 -0.0153568 0)
(7.36158 -0.0159405 0)
(7.36282 -0.0165244 0)
(7.36402 -0.0171103 0)
(7.36516 -0.0176999 0)
(7.36626 -0.0182946 0)
(7.3673 -0.0188956 0)
(7.3683 -0.0195036 0)
(7.36924 -0.0201193 0)
(7.37011 -0.0207433 0)
(7.33241 0.00208251 0)
(7.33047 -0.000546907 0)
(7.33033 -0.00725561 0)
(7.33144 -0.0136812 0)
(7.33245 -0.0183645 0)
(7.33321 -0.0215071 0)
(7.33407 -0.023526 0)
(7.33516 -0.0247263 0)
(7.33644 -0.0253462 0)
(7.33784 -0.0255754 0)
(7.33936 -0.0255536 0)
(7.34098 -0.025379 0)
(7.34268 -0.0251195 0)
(7.34444 -0.0248213 0)
(7.34625 -0.0245153 0)
(7.34808 -0.0242214 0)
(7.34993 -0.0239526 0)
(7.35178 -0.0237167 0)
(7.35363 -0.0235184 0)
(7.35545 -0.0233602 0)
(7.35725 -0.023243 0)
(7.35902 -0.0231668 0)
(7.36075 -0.0231311 0)
(7.36244 -0.0231348 0)
(7.36408 -0.0231767 0)
(7.36567 -0.0232554 0)
(7.36721 -0.0233694 0)
(7.36868 -0.0235171 0)
(7.3701 -0.0236971 0)
(7.37145 -0.0239078 0)
(7.37273 -0.0241478 0)
(7.37395 -0.024416 0)
(7.37507 -0.0247115 0)
(7.32878 0.00629097 0)
(7.31726 0.0179857 0)
(7.31244 0.0251928 0)
(7.31399 0.0272457 0)
(7.31785 0.0259392 0)
(7.32205 0.0231309 0)
(7.3263 0.0197778 0)
(7.33056 0.0162374 0)
(7.33474 0.0126921 0)
(7.33879 0.00928033 0)
(7.34271 0.00608673 0)
(7.3465 0.00314304 0)
(7.35017 0.000451525 0)
(7.35372 -0.00199773 0)
(7.35715 -0.00422029 0)
(7.36048 -0.00623506 0)
(7.36369 -0.00806234 0)
(7.3668 -0.00972213 0)
(7.3698 -0.0112333 0)
(7.3727 -0.0126133 0)
(7.37549 -0.0138778 0)
(7.37818 -0.0150412 0)
(7.38077 -0.016116 0)
(7.38326 -0.0171135 0)
(7.38564 -0.0180435 0)
(7.38792 -0.0189147 0)
(7.3901 -0.0197348 0)
(7.39218 -0.0205102 0)
(7.39416 -0.0212468 0)
(7.39604 -0.0219494 0)
(7.39783 -0.0226221 0)
(7.39951 -0.0232674 0)
(7.40109 -0.0238896 0)
(7.33379 -0.0332895 0)
(7.33302 -0.0722784 0)
(7.32815 -0.0856462 0)
(7.32661 -0.0870751 0)
(7.33019 -0.0846749 0)
(7.33743 -0.0806988 0)
(7.34641 -0.075849 0)
(7.35593 -0.0707817 0)
(7.36545 -0.0659535 0)
(7.37472 -0.0615369 0)
(7.38358 -0.0575605 0)
(7.39193 -0.0540154 0)
(7.39973 -0.0508798 0)
(7.40698 -0.0481207 0)
(7.41371 -0.0456996 0)
(7.41992 -0.0435785 0)
(7.42565 -0.0417226 0)
(7.43093 -0.0401004 0)
(7.43578 -0.0386841 0)
(7.44024 -0.0374492 0)
(7.44432 -0.0363743 0)
(7.44805 -0.0354408 0)
(7.45146 -0.0346324 0)
(7.45457 -0.0339352 0)
(7.45738 -0.0333367 0)
(7.45993 -0.0328263 0)
(7.46223 -0.0323947 0)
(7.46429 -0.0320337 0)
(7.46612 -0.031736 0)
(7.46774 -0.0314955 0)
(7.46916 -0.0313066 0)
(7.47039 -0.031165 0)
(7.47143 -0.0310649 0)
(7.33141 0.165 0)
(7.34788 0.185196 0)
(7.36038 0.152166 0)
(7.35685 0.118074 0)
(7.3428 0.0898456 0)
(7.32404 0.0674402 0)
(7.30271 0.0499327 0)
(7.27964 0.0361921 0)
(7.25559 0.0252448 0)