/*--------------------------------*- C++ -*----------------------------------*\
  =========                 |
  \\      /  F ield         | OpenFOAM: The Open Source CFD Toolbox
   \\    /   O peration     | Website:  https://openfoam.org
    \\  /    A nd           | Version:  10
     \\/     M anipulation  |
\*---------------------------------------------------------------------------*/
FoamFile
{
    format      ascii;
    class       volScalarField;
    location    "1400";
    object      yPlus;
}
// * * * * * * * * * * * * * * * * * * * * * * * * * * * * * * * * * * * * * //

dimensions      [0 0 0 0 0 0 0];

internalField   uniform 0;

boundaryField
{
    outlet
    {
        type            calculated;
        value           uniform 0;
    }
    inlet
    {
        type            calculated;
        value           uniform 0;
    }
    lowerWall
    {
        type            calculated;
        value           nonuniform List<scalar> 
148
(
9.9937
9.87583
9.76655
9.65574
9.54325
9.43224
9.32599
9.22676
9.13583
9.05375
8.98057
8.91597
8.85948
8.81057
8.76861
8.733
8.70316
8.6785
8.65855
8.64279
8.63077
8.62213
8.61649
8.61352
8.6129
8.61449
8.6177
8.62399
8.62625
8.63889
8.67193
8.60596
6.35695
4.89954
7.21149
9.09507
10.5107
11.4165
10.9704
11.6639
11.5709
11.8608
11.8107
11.9674
12.394
14.0372
29.025
37.4801
4.89954
11.6611
11.9875
11.8621
12.0925
11.9438
11.7349
11.7541
12.3888
13.9677
16.3907
19.2936
22.398
25.5381
28.62
31.594
34.4374
37.1436
39.7135
42.1528
44.4685
46.6686
48.7614
50.7554
52.6588
54.4796
56.2249
57.9006
59.5114
61.0604
62.5491
63.9773
65.3441
66.6477
67.8861
69.0584
70.1651
71.2098
72.1988
73.1322
74.0008
74.8107
75.5637
76.2619
76.9067
77.4998
78.0429
78.5373
78.9837
79.3826
79.7331
80.0342
80.2831
80.4768
80.6108
80.6798
80.6781
80.5994
80.4374
80.186
79.84
79.3951
78.8494
78.2046
77.4665
76.6474
75.7748
74.9151
74.1603
73.4347
72.6835
71.9183
71.1612
70.434
69.7554
69.1401
68.5985
68.136
67.7533
67.4462
67.2053
67.0166
66.8614
66.7182
66.5632
66.3734
66.1285
65.8134
65.4193
64.9442
64.3928
63.7743
63.1014
62.3888
61.6513
60.904
60.1606
59.4323
58.7734
57.8814
)
;
    }
    upperWall
    {
        type            calculated;
        value           nonuniform List<scalar> 
133
(
30.6045
31.4255
32.2162
32.9719
33.6929
34.3806
35.0365
35.6619
36.2579
36.8255
37.3658
37.88
38.369
38.8338
39.2755
39.695
40.0934
40.4714
40.8302
41.1705
41.4933
41.7993
42.0894
42.3644
42.6249
42.8717
43.1056
43.3272
43.537
43.7357
43.9239
44.1021
44.2709
44.4565
44.6595
44.8556
45.0446
45.2263
45.4006
45.5674
45.7265
45.8778
46.0211
46.1565
46.2837
46.4026
46.5132
46.6154
46.709
46.794
46.8702
46.9375
46.9959
47.0452
47.0854
47.1163
47.1377
47.1496
47.1519
47.1443
47.1267
47.099
47.0609
47.0123
46.9529
46.8826
46.801
46.7081
46.6034
46.4869
46.3581
46.217
46.0634
45.897
45.7177
45.5253
45.3199
45.1014
44.8698
44.6254
44.3682
44.0988
43.8175
43.5249
43.2219
42.9093
42.5883
42.2602
41.9266
41.5892
41.2501
40.9114
40.5756
40.2452
39.9228
39.6112
39.3129
39.0304
38.7661
38.5218
38.2991
38.099
37.9219
37.7678
37.6358
37.5248
37.4328
37.3577
37.2972
37.2483
37.2085
37.1748
37.1449
37.1163
37.0869
37.055
37.0191
36.9781
36.9312
36.8781
36.8182
36.7518
36.6788
36.5996
36.5143
36.4235
36.3275
36.2267
36.1212
36.013
35.8955
35.7968
35.6047
)
;
    }
    frontAndBack
    {
        type            empty;
    }
}


// ************************************************************************* //
