/*--------------------------------*- C++ -*----------------------------------*\
  =========                 |
  \\      /  F ield         | OpenFOAM: The Open Source CFD Toolbox
   \\    /   O peration     | Website:  https://openfoam.org
    \\  /    A nd           | Version:  10
     \\/     M anipulation  |
\*---------------------------------------------------------------------------*/
FoamFile
{
    format      ascii;
    class       volScalarField;
    location    "0.165";
    object      nut;
}
// * * * * * * * * * * * * * * * * * * * * * * * * * * * * * * * * * * * * * //

dimensions      [0 2 -1 0 0 0 0];

internalField   nonuniform List<scalar> 
6820
(
0.000503209
0.000397066
0.000324483
0.000269312
0.000236414
0.000213996
0.000197345
0.000184593
0.000174276
0.0001656
0.000158115
0.000151527
0.000145639
0.000140313
0.000135446
0.00013096
0.000126797
0.000122909
0.000119258
0.000115813
0.000112548
0.00010944
0.00010647
0.00010362
0.000100876
9.8223e-05
9.56468e-05
9.31419e-05
9.0678e-05
8.83064e-05
8.58708e-05
8.36857e-05
8.05807e-05
8.18531e-05
0.000143728
0.000196421
0.000210837
0.000206409
0.000197547
0.000187287
0.000177385
0.00016843
0.000160407
0.000153212
0.00014673
0.000140849
0.000135482
0.000130555
0.000126008
0.000121791
0.000117863
0.000114188
0.000110737
0.000107484
0.000104408
0.000101491
9.87163e-05
9.60709e-05
9.35422e-05
9.11209e-05
8.87926e-05
8.65599e-05
8.43739e-05
8.23043e-05
8.00985e-05
7.83547e-05
3.85893e-05
2.73899e-05
4.30521e-05
7.44754e-05
9.58861e-05
0.000109249
0.000116497
0.000119797
0.000120728
0.000120191
0.000118748
0.000116749
0.000114415
0.00011189
0.000109267
0.000106607
0.000103951
0.000101326
9.87486e-05
9.62313e-05
9.37806e-05
9.14006e-05
8.9093e-05
8.68586e-05
8.4697e-05
8.26071e-05
8.05872e-05
7.86351e-05
7.67476e-05
7.4914e-05
7.31319e-05
7.13305e-05
6.96271e-05
1.99671e-05
2.35256e-05
2.20659e-05
1.27812e-05
2.90762e-06
1.24266e-05
2.29503e-05
3.16055e-05
3.85767e-05
4.41169e-05
4.84676e-05
5.18432e-05
5.44181e-05
5.63306e-05
5.77011e-05
5.8628e-05
5.91921e-05
5.94597e-05
5.94857e-05
5.93151e-05
5.89854e-05
5.85275e-05
5.79674e-05
5.73267e-05
5.66237e-05
5.58738e-05
5.50901e-05
5.42832e-05
5.34627e-05
5.26341e-05
5.18055e-05
5.09899e-05
5.02396e-05
1.32447e-05
1.50803e-05
1.99311e-05
2.2026e-05
2.1473e-05
1.95267e-05
1.68963e-05
1.39494e-05
1.09027e-05
7.88525e-06
4.98069e-06
2.26197e-06
6.57158e-07
2.77294e-06
4.88218e-06
6.79307e-06
8.50334e-06
1.00222e-05
1.13625e-05
1.25384e-05
1.35644e-05
1.44549e-05
1.52243e-05
1.58859e-05
1.64528e-05
1.69372e-05
1.73507e-05
1.77045e-05
1.80092e-05
1.82769e-05
1.85202e-05
1.87704e-05
1.90599e-05
1.01914e-05
1.10203e-05
1.18479e-05
1.26511e-05
1.32888e-05
1.38332e-05
1.42291e-05
1.44422e-05
1.44848e-05
1.43791e-05
1.4147e-05
1.38115e-05
1.33943e-05
1.29099e-05
1.23772e-05
1.18118e-05
1.12271e-05
1.06339e-05
1.0041e-05
9.45514e-06
8.88115e-06
8.32248e-06
7.78126e-06
7.25852e-06
6.75434e-06
6.26809e-06
5.79817e-06
5.34262e-06
4.89741e-06
4.45756e-06
4.01279e-06
3.54064e-06
3.01936e-06
7.53619e-06
8.25267e-06
8.67927e-06
8.9162e-06
8.81572e-06
8.61539e-06
8.45818e-06
8.37484e-06
8.35852e-06
8.38447e-06
8.42559e-06
8.46318e-06
8.48769e-06
8.49713e-06
8.48836e-06
8.46015e-06
8.41281e-06
8.34738e-06
8.2653e-06
8.16815e-06
8.05755e-06
7.93505e-06
7.80208e-06
7.65994e-06
7.50967e-06
7.35214e-06
7.18777e-06
7.01674e-06
6.83791e-06
6.64962e-06
6.44691e-06
6.225e-06
5.97304e-06
5.75395e-06
6.61516e-06
7.01447e-06
7.12808e-06
6.8784e-06
6.51976e-06
6.19293e-06
5.92224e-06
5.70607e-06
5.53519e-06
5.39744e-06
5.28311e-06
5.18502e-06
5.09782e-06
5.01799e-06
4.94308e-06
4.87107e-06
4.80029e-06
4.72945e-06
4.65755e-06
4.58385e-06
4.50781e-06
4.42898e-06
4.34704e-06
4.26164e-06
4.17246e-06
4.07899e-06
3.98061e-06
3.87598e-06
3.76368e-06
3.64049e-06
3.5065e-06
3.3536e-06
4.48022e-06
5.25355e-06
5.55301e-06
5.70825e-06
5.62832e-06
5.42262e-06
5.18154e-06
4.93934e-06
4.71536e-06
4.51755e-06
4.34422e-06
4.19102e-06
4.05395e-06
3.92971e-06
3.81562e-06
3.70952e-06
3.60966e-06
3.51468e-06
3.42351e-06
3.33525e-06
3.24913e-06
3.16446e-06
3.08059e-06
2.99691e-06
2.9128e-06
2.82761e-06
2.74058e-06
2.65087e-06
2.55731e-06
2.45895e-06
2.35417e-06
2.24532e-06
2.12864e-06
3.55154e-06
4.2448e-06
4.52841e-06
4.69337e-06
4.66126e-06
4.50263e-06
4.30496e-06
4.10688e-06
3.92491e-06
3.76371e-06
3.62077e-06
3.49229e-06
3.37526e-06
3.2673e-06
3.16657e-06
3.07171e-06
2.9817e-06
2.89568e-06
2.81292e-06
2.73277e-06
2.65463e-06
2.57795e-06
2.50222e-06
2.42697e-06
2.3517e-06
2.27593e-06
2.19915e-06
2.1209e-06
2.04068e-06
1.95855e-06
1.87456e-06
1.79284e-06
1.71237e-06
2.8616e-06
3.4684e-06
3.73266e-06
3.88514e-06
3.88843e-06
3.78653e-06
3.6432e-06
3.48854e-06
3.33703e-06
3.1959e-06
3.06677e-06
2.94893e-06
2.84117e-06
2.74207e-06
2.65028e-06
2.56461e-06
2.48402e-06
2.40759e-06
2.33456e-06
2.26426e-06
2.19612e-06
2.12966e-06
2.06443e-06
2.00006e-06
1.9362e-06
1.8726e-06
1.80906e-06
1.74557e-06
1.68233e-06
1.62035e-06
1.56093e-06
1.50911e-06
1.4654e-06
2.33563e-06
2.8618e-06
3.12289e-06
3.27939e-06
3.31452e-06
3.25105e-06
3.13798e-06
3.00573e-06
2.87137e-06
2.74409e-06
2.62685e-06
2.51964e-06
2.42157e-06
2.33147e-06
2.24814e-06
2.17053e-06
2.09774e-06
2.02902e-06
1.96373e-06
1.90131e-06
1.84129e-06
1.78328e-06
1.72696e-06
1.67205e-06
1.61841e-06
1.56599e-06
1.51493e-06
1.46564e-06
1.41891e-06
1.37636e-06
1.34002e-06
1.31492e-06
1.3019e-06
1.92498e-06
2.38281e-06
2.64438e-06
2.80357e-06
2.85831e-06
2.82451e-06
2.74107e-06
2.63541e-06
2.5231e-06
2.41273e-06
2.30798e-06
2.21005e-06
2.11911e-06
2.03483e-06
1.95663e-06
1.8839e-06
1.81599e-06
1.75232e-06
1.69237e-06
1.63566e-06
1.5818e-06
1.53048e-06
1.48146e-06
1.43463e-06
1.39e-06
1.34772e-06
1.30821e-06
1.2722e-06
1.24082e-06
1.21594e-06
1.19968e-06
1.19631e-06
1.20621e-06
1.59685e-06
1.99936e-06
2.26305e-06
2.42902e-06
2.50214e-06
2.49442e-06
2.43562e-06
2.35008e-06
2.2531e-06
2.15407e-06
2.05793e-06
1.96695e-06
1.88199e-06
1.80315e-06
1.73011e-06
1.66241e-06
1.59954e-06
1.541e-06
1.48635e-06
1.43523e-06
1.38733e-06
1.34244e-06
1.30045e-06
1.26136e-06
1.22531e-06
1.19267e-06
1.16398e-06
1.14014e-06
1.12234e-06
1.11234e-06
1.11191e-06
1.12422e-06
1.14908e-06
1.3288e-06
1.68901e-06
1.95566e-06
2.12998e-06
2.21785e-06
2.23035e-06
2.19161e-06
2.12379e-06
2.04179e-06
1.95493e-06
1.86849e-06
1.78522e-06
1.70645e-06
1.63271e-06
1.56404e-06
1.50031e-06
1.44123e-06
1.38652e-06
1.33588e-06
1.28908e-06
1.24591e-06
1.20627e-06
1.17014e-06
1.13762e-06
1.10895e-06
1.08455e-06
1.06502e-06
1.05122e-06
1.04421e-06
1.04539e-06
1.05599e-06
1.07815e-06
1.11126e-06
1.10515e-06
1.43513e-06
1.70534e-06
1.88904e-06
1.99045e-06
2.0207e-06
1.99993e-06
1.94788e-06
1.87871e-06
1.80174e-06
1.72274e-06
1.64512e-06
1.57082e-06
1.5008e-06
1.4355e-06
1.37497e-06
1.31914e-06
1.26784e-06
1.22086e-06
1.17806e-06
1.1393e-06
1.10453e-06
1.0738e-06
1.04725e-06
1.02513e-06
1.00786e-06
9.95974e-07
9.90179e-07
9.91272e-07
1.00023e-06
1.01779e-06
1.04525e-06
1.08184e-06
9.14795e-07
1.22559e-06
1.50037e-06
1.69391e-06
1.8077e-06
1.8531e-06
1.84761e-06
1.80909e-06
1.7512e-06
1.6833e-06
1.61147e-06
1.53954e-06
1.46979e-06
1.40353e-06
1.34142e-06
1.28377e-06
1.23066e-06
1.18208e-06
1.13795e-06
1.09821e-06
1.06281e-06
1.03177e-06
1.00514e-06
9.8309e-07
9.65849e-07
9.5375e-07
9.47207e-07
9.46721e-07
9.5281e-07
9.66067e-07
9.86847e-07
1.01587e-06
1.05233e-06
7.49715e-07
1.05165e-06
1.33238e-06
1.53577e-06
1.66112e-06
1.72001e-06
1.7282e-06
1.70199e-06
1.65441e-06
1.59471e-06
1.52921e-06
1.46208e-06
1.39599e-06
1.33259e-06
1.27285e-06
1.2173e-06
1.16621e-06
1.11969e-06
1.07777e-06
1.04046e-06
1.00773e-06
9.79637e-07
9.56229e-07
9.37626e-07
9.23994e-07
9.15554e-07
9.12566e-07
9.15323e-07
9.24098e-07
9.39183e-07
9.60663e-07
9.88854e-07
1.02306e-06
6.04247e-07
9.07337e-07
1.19556e-06
1.40852e-06
1.54466e-06
1.61557e-06
1.63585e-06
1.62049e-06
1.58195e-06
1.52943e-06
1.46944e-06
1.40645e-06
1.34347e-06
1.2824e-06
1.22447e-06
1.17039e-06
1.12059e-06
1.07529e-06
1.03461e-06
9.98607e-07
9.67325e-07
9.40795e-07
9.19065e-07
9.02205e-07
8.90309e-07
8.83491e-07
8.81871e-07
8.85574e-07
8.94684e-07
9.09284e-07
9.29287e-07
9.54755e-07
9.85124e-07
4.74819e-07
7.89112e-07
1.08612e-06
1.30809e-06
1.45418e-06
1.53594e-06
1.56713e-06
1.56168e-06
1.53152e-06
1.48575e-06
1.43099e-06
1.37194e-06
1.31186e-06
1.25291e-06
1.19651e-06
1.14356e-06
1.09464e-06
1.05009e-06
1.01008e-06
9.74737e-07
9.4411e-07
9.18233e-07
8.97129e-07
8.80818e-07
8.69321e-07
8.62656e-07
8.60833e-07
8.63846e-07
8.71651e-07
8.84189e-07
9.01279e-07
9.22807e-07
9.48399e-07
3.6055e-07
6.95782e-07
1.00186e-06
1.23185e-06
1.38686e-06
1.47822e-06
1.51897e-06
1.52213e-06
1.4991e-06
1.45884e-06
1.40808e-06
1.35173e-06
1.29326e-06
1.23511e-06
1.1789e-06
1.12573e-06
1.07629e-06
1.03103e-06
9.90198e-07
9.53957e-07
9.22383e-07
8.95504e-07
8.73322e-07
8.55818e-07
8.42956e-07
8.34688e-07
8.30944e-07
8.31637e-07
8.3664e-07
8.45811e-07
8.58922e-07
8.7577e-07
8.96099e-07
2.66043e-07
6.28489e-07
9.42023e-07
1.17861e-06
1.34149e-06
1.44153e-06
1.4911e-06
1.50243e-06
1.48643e-06
1.45188e-06
1.40554e-06
1.35243e-06
1.29621e-06
1.23946e-06
1.18396e-06
1.13092e-06
1.08115e-06
1.03516e-06
9.93284e-07
9.55708e-07
9.22534e-07
8.93802e-07
8.69509e-07
8.49619e-07
8.34074e-07
8.22793e-07
8.15674e-07
8.1259e-07
8.13385e-07
8.17884e-07
8.25858e-07
8.37045e-07
8.51377e-07
2.08566e-07
5.90123e-07
9.06759e-07
1.14772e-06
1.3168e-06
1.42389e-06
1.48043e-06
1.49791e-06
1.48674e-06
1.45558e-06
1.41123e-06
1.35888e-06
1.3024e-06
1.24456e-06
1.18735e-06
1.13212e-06
1.0798e-06
1.031e-06
9.86098e-07
9.45313e-07
9.08764e-07
8.76493e-07
8.4849e-07
8.24709e-07
8.05076e-07
7.89498e-07
7.77858e-07
7.70024e-07
7.65837e-07
7.65124e-07
7.67673e-07
7.73226e-07
7.8178e-07
2.16781e-07
5.84185e-07
8.97312e-07
1.14039e-06
1.31477e-06
1.42874e-06
1.49273e-06
1.51744e-06
1.51275e-06
1.487e-06
1.44687e-06
1.39756e-06
1.34298e-06
1.28598e-06
1.22866e-06
1.17247e-06
1.11844e-06
1.06724e-06
1.01933e-06
9.74994e-07
9.34389e-07
8.97597e-07
8.64642e-07
8.35507e-07
8.10148e-07
7.885e-07
7.70482e-07
7.56e-07
7.4494e-07
7.37173e-07
7.32553e-07
7.30842e-07
7.32209e-07
2.89196e-07
6.12647e-07
9.14484e-07
1.15612e-06
1.33279e-06
1.45022e-06
1.51756e-06
1.54478e-06
1.54141e-06
1.51576e-06
1.47464e-06
1.4234e-06
1.36615e-06
1.30593e-06
1.24496e-06
1.18478e-06
1.12647e-06
1.07076e-06
1.01809e-06
9.68751e-07
9.22897e-07
8.80599e-07
8.41874e-07
8.06706e-07
7.75064e-07
7.46908e-07
7.22195e-07
7.00882e-07
6.8292e-07
6.68255e-07
6.56822e-07
6.48479e-07
6.43417e-07
3.99436e-07
6.75538e-07
9.61169e-07
1.20052e-06
1.38099e-06
1.50525e-06
1.58077e-06
1.61636e-06
1.62071e-06
1.60152e-06
1.56531e-06
1.51731e-06
1.46164e-06
1.40145e-06
1.3391e-06
1.27631e-06
1.21431e-06
1.15398e-06
1.09589e-06
1.04043e-06
9.87823e-07
9.38211e-07
8.91655e-07
8.4818e-07
8.07793e-07
7.70495e-07
7.36292e-07
7.05204e-07
6.7726e-07
6.525e-07
6.30978e-07
6.12667e-07
5.97932e-07
5.34059e-07
7.70962e-07
1.0362e-06
1.26765e-06
1.44433e-06
1.56552e-06
1.63757e-06
1.66909e-06
1.66893e-06
1.64505e-06
1.60413e-06
1.55153e-06
1.4914e-06
1.42686e-06
1.36019e-06
1.29304e-06
1.22656e-06
1.16152e-06
1.09845e-06
1.03767e-06
9.79364e-07
9.23644e-07
8.70552e-07
8.20103e-07
7.72308e-07
7.27183e-07
6.84765e-07
6.45121e-07
6.08355e-07
5.74608e-07
5.44057e-07
5.16878e-07
4.9345e-07
6.90918e-07
8.998e-07
1.14881e-06
1.37979e-06
1.56512e-06
1.69956e-06
1.78626e-06
1.83159e-06
1.84288e-06
1.82733e-06
1.79143e-06
1.74073e-06
1.67974e-06
1.61206e-06
1.54044e-06
1.46692e-06
1.39301e-06
1.31975e-06
1.24785e-06
1.17778e-06
1.10982e-06
1.0441e-06
9.8071e-07
9.19652e-07
8.60923e-07
8.04513e-07
7.50427e-07
6.98699e-07
6.494e-07
6.02651e-07
5.5863e-07
5.17577e-07
4.79866e-07
8.73328e-07
1.06161e-06
1.28811e-06
1.50079e-06
1.66805e-06
1.78412e-06
1.85356e-06
1.88423e-06
1.88422e-06
1.86068e-06
1.81958e-06
1.76577e-06
1.70303e-06
1.6343e-06
1.56181e-06
1.48724e-06
1.41184e-06
1.33653e-06
1.26195e-06
1.18856e-06
1.11665e-06
1.04641e-06
9.7793e-07
9.11267e-07
8.46436e-07
7.83435e-07
7.22267e-07
6.62945e-07
6.05504e-07
5.50013e-07
4.96564e-07
4.45379e-07
3.96405e-07
1.08746e-06
1.26702e-06
1.49356e-06
1.72764e-06
1.92909e-06
2.08117e-06
2.18114e-06
2.23351e-06
2.24573e-06
2.22592e-06
2.18181e-06
2.12007e-06
2.04613e-06
1.96425e-06
1.87761e-06
1.78856e-06
1.69876e-06
1.60933e-06
1.52104e-06
1.43436e-06
1.34958e-06
1.26683e-06
1.18617e-06
1.10761e-06
1.03111e-06
9.56635e-07
8.84136e-07
8.13578e-07
7.44936e-07
6.78192e-07
6.13326e-07
5.50408e-07
4.8905e-07
1.34451e-06
1.51269e-06
1.69845e-06
1.87578e-06
2.01737e-06
2.11855e-06
2.18332e-06
2.21704e-06
2.22428e-06
2.209e-06
2.17491e-06
2.12549e-06
2.06396e-06
1.9932e-06
1.91572e-06
1.83367e-06
1.74879e-06
1.66245e-06
1.57575e-06
1.48947e-06
1.40419e-06
1.32031e-06
1.2381e-06
1.15771e-06
1.07925e-06
1.00279e-06
9.28358e-07
8.56006e-07
7.85787e-07
7.17781e-07
6.52056e-07
5.88915e-07
5.2763e-07
1.65677e-06
1.84594e-06
2.09579e-06
2.38148e-06
2.63066e-06
2.80707e-06
2.90884e-06
2.94789e-06
2.93826e-06
2.89296e-06
2.82286e-06
2.73628e-06
2.63922e-06
2.53589e-06
2.42919e-06
2.32106e-06
2.21281e-06
2.10533e-06
1.99921e-06
1.89485e-06
1.79255e-06
1.69248e-06
1.59477e-06
1.49953e-06
1.4068e-06
1.31665e-06
1.22913e-06
1.14431e-06
1.06227e-06
9.83099e-07
9.069e-07
8.33837e-07
7.63536e-07
2.05466e-06
2.20127e-06
2.28911e-06
2.37953e-06
2.48172e-06
2.58785e-06
2.68565e-06
2.76342e-06
2.81292e-06
2.831e-06
2.81877e-06
2.77994e-06
2.71929e-06
2.64174e-06
2.5518e-06
2.45333e-06
2.34945e-06
2.2426e-06
2.13462e-06
2.02686e-06
1.9203e-06
1.8156e-06
1.71323e-06
1.61348e-06
1.51657e-06
1.42261e-06
1.33173e-06
1.24404e-06
1.15969e-06
1.07891e-06
1.00189e-06
9.29322e-07
8.60081e-07
2.55801e-06
2.87807e-06
3.31124e-06
3.74271e-06
4.02967e-06
4.16099e-06
4.18346e-06
4.13781e-06
4.05039e-06
3.93834e-06
3.81179e-06
3.67624e-06
3.53479e-06
3.3895e-06
3.24196e-06
3.09359e-06
2.9457e-06
2.79952e-06
2.65612e-06
2.51641e-06
2.3811e-06
2.25071e-06
2.12562e-06
2.00604e-06
1.89206e-06
1.78372e-06
1.68098e-06
1.58376e-06
1.49203e-06
1.40579e-06
1.32508e-06
1.25028e-06
1.18086e-06
3.26405e-06
3.18566e-06
2.9289e-06
2.90098e-06
3.09964e-06
3.37861e-06
3.63259e-06
3.81455e-06
3.91451e-06
3.94405e-06
3.92299e-06
3.87083e-06
3.80329e-06
3.73164e-06
3.6629e-06
3.60078e-06
3.54662e-06
3.50028e-06
3.46088e-06
3.42717e-06
3.3979e-06
3.3719e-06
3.34818e-06
3.32593e-06
3.30449e-06
3.28331e-06
3.262e-06
3.24022e-06
3.21779e-06
3.19474e-06
3.17122e-06
3.14894e-06
3.12579e-06
4.30309e-06
5.54411e-06
6.31187e-06
6.56651e-06
6.47023e-06
6.25527e-06
6.11212e-06
6.125e-06
6.30159e-06
6.60414e-06
6.97976e-06
7.38134e-06
7.77435e-06
8.13638e-06
8.45479e-06
8.72394e-06
8.94279e-06
9.11315e-06
9.23843e-06
9.32283e-06
9.37081e-06
9.38677e-06
9.37486e-06
9.33882e-06
9.28195e-06
9.20707e-06
9.11655e-06
9.01219e-06
8.89568e-06
8.76772e-06
8.63034e-06
8.48441e-06
8.3334e-06
5.63135e-06
3.58372e-06
2.77379e-06
4.63718e-06
7.35537e-06
9.92388e-06
1.21066e-05
1.38384e-05
1.51309e-05
1.60253e-05
1.65682e-05
1.68076e-05
1.67916e-05
1.65651e-05
1.61695e-05
1.56415e-05
1.5013e-05
1.43115e-05
1.35598e-05
1.27768e-05
1.19778e-05
1.11748e-05
1.03771e-05
9.59175e-06
8.82394e-06
8.07708e-06
7.3533e-06
6.65305e-06
5.97663e-06
5.32041e-06
4.68726e-06
4.06259e-06
3.46802e-06
1.14397e-05
1.65194e-05
1.82842e-05
1.97903e-05
2.02519e-05
1.94911e-05
1.77303e-05
1.5246e-05
1.24006e-05
9.7532e-06
8.22753e-06
8.74725e-06
1.09814e-05
1.39571e-05
1.70997e-05
2.01589e-05
2.30265e-05
2.56567e-05
2.8034e-05
3.01594e-05
3.2042e-05
3.36961e-05
3.51378e-05
3.63841e-05
3.74519e-05
3.83574e-05
3.91163e-05
3.97434e-05
4.0254e-05
4.06632e-05
4.09917e-05
4.12584e-05
4.15151e-05
2.48877e-05
2.86667e-05
3.90272e-05
5.34847e-05
6.77709e-05
8.1723e-05
9.46049e-05
0.00010581
0.00011529
0.000123122
0.000129411
0.00013431
0.000137989
0.00014061
0.000142327
0.000143278
0.000143583
0.000143352
0.000142676
0.000141634
0.000140294
0.000138713
0.000136938
0.00013501
0.000132961
0.000130819
0.000128605
0.000126337
0.000124032
0.000121691
0.000119333
0.000116967
0.000114809
0.000543324
0.000510575
0.00049159
0.000467878
0.000443821
0.000421438
0.000399889
0.000379239
0.000359758
0.000341465
0.000324346
0.000308389
0.000293551
0.000279769
0.000266975
0.000255096
0.000244058
0.000233788
0.000224218
0.000215282
0.000206921
0.000199081
0.000191712
0.000184769
0.000178213
0.000172007
0.000166118
0.000160518
0.000155161
0.000150055
0.000145025
0.000140646
0.000136584
7.27781e-05
6.80591e-05
6.38435e-05
6.14982e-05
6.00433e-05
5.92756e-05
5.8402e-05
5.71397e-05
5.54447e-05
5.24105e-05
4.66766e-05
3.84903e-05
3.07637e-05
2.98648e-05
3.6834e-05
4.4795e-05
4.53462e-05
4.09631e-05
4.17164e-05
4.4043e-05
4.25427e-05
3.89692e-05
3.67212e-05
3.91744e-05
3.99111e-05
3.617e-05
3.35478e-05
3.05316e-05
2.52672e-05
1.98906e-05
1.59556e-05
1.3012e-05
1.007e-05
7.01606e-06
2.28977e-06
7.78295e-06
1.95829e-05
2.4429e-05
2.19842e-05
2.01598e-05
2.00599e-05
2.1901e-05
2.42361e-05
2.40902e-05
2.1948e-05
1.94953e-05
1.73827e-05
1.55625e-05
1.40007e-05
1.27581e-05
1.19106e-05
1.14925e-05
1.13483e-05
1.14878e-05
1.28515e-05
1.6074e-05
2.47528e-05
4.03096e-05
5.1198e-05
5.0858e-05
4.27518e-05
3.27368e-05
2.34042e-05
1.50674e-05
7.95338e-06
3.76074e-06
7.22034e-06
1.48972e-05
2.68748e-05
3.99488e-05
4.68644e-05
4.43782e-05
3.60245e-05
2.72702e-05
2.08921e-05
1.675e-05
1.38836e-05
1.16803e-05
9.88919e-06
8.43419e-06
7.30992e-06
6.52746e-06
6.08526e-06
6.00064e-06
6.33175e-06
7.19801e-06
9.09234e-06
1.33216e-05
2.13853e-05
3.21149e-05
4.0805e-05
4.34069e-05
3.93494e-05
3.01999e-05
1.81271e-05
1.11365e-05
2.43392e-05
3.46852e-05
4.83389e-05
3.17682e-05
9.9842e-05
9.69087e-05
9.35812e-05
9.08549e-05
8.81656e-05
8.51846e-05
8.12732e-05
7.59009e-05
6.91088e-05
6.13922e-05
5.29289e-05
4.42401e-05
3.88326e-05
4.12842e-05
4.76027e-05
4.76e-05
3.78964e-05
3.16822e-05
3.61416e-05
3.85304e-05
3.59378e-05
3.24079e-05
3.01777e-05
3.13991e-05
3.39653e-05
3.34984e-05
3.08308e-05
2.91821e-05
2.6453e-05
2.17968e-05
1.68369e-05
1.25679e-05
8.88852e-06
5.36669e-06
6.11023e-06
1.59047e-05
2.32312e-05
2.2483e-05
1.9561e-05
1.93849e-05
2.08933e-05
2.3806e-05
2.51076e-05
2.37813e-05
2.13741e-05
1.91091e-05
1.71708e-05
1.54672e-05
1.40142e-05
1.28744e-05
1.20999e-05
1.17329e-05
1.16497e-05
1.17581e-05
1.29242e-05
1.60339e-05
2.36228e-05
3.92547e-05
5.22227e-05
5.36097e-05
4.58931e-05
3.53007e-05
2.51284e-05
1.60203e-05
7.99668e-06
1.47064e-06
6.18126e-06
1.51204e-05
2.82708e-05
4.1802e-05
4.81446e-05
4.46974e-05
3.57967e-05
2.70781e-05
2.09546e-05
1.69816e-05
1.41705e-05
1.19651e-05
1.01481e-05
8.65582e-06
7.48716e-06
6.66437e-06
6.19967e-06
6.10175e-06
6.41297e-06
7.24334e-06
9.05561e-06
1.31091e-05
2.09944e-05
3.19182e-05
4.1323e-05
4.48117e-05
4.14388e-05
3.28798e-05
2.21016e-05
1.74153e-05
2.86558e-05
3.73627e-05
4.94904e-05
3.19947e-05
9.11104e-05
9.1706e-05
9.2134e-05
9.30396e-05
9.41832e-05
9.50392e-05
9.45992e-05
9.17517e-05
8.58566e-05
7.74424e-05
6.80347e-05
5.97629e-05
5.55379e-05
5.43163e-05
4.97476e-05
3.68319e-05
2.40389e-05
2.84852e-05
3.54346e-05
3.54931e-05
3.18723e-05
2.8763e-05
2.72487e-05
2.75834e-05
2.94426e-05
2.99882e-05
2.84518e-05
2.64997e-05
2.5396e-05
2.3452e-05
2.00919e-05
1.63084e-05
1.31772e-05
1.22387e-05
1.62022e-05
2.19266e-05
2.24203e-05
1.88122e-05
1.79683e-05
1.98538e-05
2.32081e-05
2.56842e-05
2.53284e-05
2.31269e-05
2.07226e-05
1.86876e-05
1.69267e-05
1.53588e-05
1.40252e-05
1.29848e-05
1.22744e-05
1.1943e-05
1.19126e-05
1.20251e-05
1.29593e-05
1.58671e-05
2.24026e-05
3.75193e-05
5.25211e-05
5.61583e-05
4.93246e-05
3.84354e-05
2.7554e-05
1.77862e-05
9.17507e-06
1.93569e-06
6.17168e-06
1.6128e-05
3.04206e-05
4.41542e-05
4.95177e-05
4.48336e-05
3.53566e-05
2.67735e-05
2.0983e-05
1.72109e-05
1.44675e-05
1.22634e-05
1.04188e-05
8.88599e-06
7.66753e-06
6.78656e-06
6.27196e-06
6.15074e-06
6.45824e-06
7.27248e-06
8.99928e-06
1.28392e-05
2.04603e-05
3.14874e-05
4.16383e-05
4.62117e-05
4.38491e-05
3.62313e-05
2.6933e-05
2.36509e-05
3.33648e-05
4.01649e-05
5.04878e-05
3.21129e-05
6.65041e-05
6.81682e-05
7.00921e-05
7.26186e-05
7.57302e-05
7.91865e-05
8.23256e-05
8.40729e-05
8.32418e-05
7.92398e-05
7.25946e-05
6.49899e-05
5.68004e-05
4.59518e-05
3.0263e-05
1.58901e-05
2.28558e-05
3.27984e-05
3.49301e-05
3.21772e-05
2.8779e-05
2.66806e-05
2.59827e-05
2.59642e-05
2.74223e-05
2.80478e-05
2.66464e-05
2.44356e-05
2.27587e-05
2.20262e-05
2.12021e-05
1.99092e-05
1.89247e-05
1.94036e-05
2.13149e-05
2.11762e-05
1.76465e-05
1.59559e-05
1.83147e-05
2.24923e-05
2.60077e-05
2.66134e-05
2.47536e-05
2.22434e-05
2.0086e-05
1.82939e-05
1.66922e-05
1.52527e-05
1.40333e-05
1.30861e-05
1.24364e-05
1.21344e-05
1.215e-05
1.22962e-05
1.30383e-05
1.56944e-05
2.12807e-05
3.52709e-05
5.21594e-05
5.86482e-05
5.33061e-05
4.24205e-05
3.08983e-05
2.0488e-05
1.15147e-05
5.18686e-06
7.78743e-06
1.81492e-05
3.33462e-05
4.68374e-05
5.07489e-05
4.46367e-05
3.46859e-05
2.64029e-05
2.1016e-05
1.74559e-05
1.4782e-05
1.25802e-05
1.07075e-05
9.13139e-06
7.86209e-06
6.92491e-06
6.35083e-06
6.18459e-06
6.47888e-06
7.29044e-06
8.94548e-06
1.25568e-05
1.98487e-05
3.08977e-05
4.18183e-05
4.76465e-05
4.65466e-05
4.01089e-05
3.23234e-05
3.00931e-05
3.83043e-05
4.28463e-05
5.11194e-05
3.20485e-05
2.62626e-05
2.82364e-05
3.05957e-05
3.35495e-05
3.71083e-05
4.11287e-05
4.52365e-05
4.87378e-05
5.06338e-05
4.98337e-05
4.57485e-05
3.80782e-05
2.6541e-05
1.19193e-05
9.25034e-06
2.33629e-05
3.21108e-05
3.39162e-05
3.15272e-05
2.8448e-05
2.63554e-05
2.51845e-05
2.47741e-05
2.47596e-05
2.55486e-05
2.72137e-05
2.67591e-05
2.42028e-05
2.14036e-05
1.94451e-05
1.85526e-05
1.82648e-05
1.83413e-05
1.8553e-05
1.78095e-05
1.52623e-05
1.38455e-05
1.66132e-05
2.18052e-05
2.63247e-05
2.77685e-05
2.62706e-05
2.367e-05
2.13399e-05
1.94971e-05
1.7909e-05
1.64502e-05
1.51371e-05
1.40275e-05
1.31657e-05
1.25714e-05
1.22916e-05
1.23407e-05
1.25355e-05
1.31241e-05
1.54686e-05
2.03207e-05
3.25747e-05
5.07865e-05
6.06239e-05
5.75604e-05
4.71789e-05
3.52097e-05
2.42344e-05
1.50773e-05
9.43065e-06
1.11704e-05
2.15452e-05
3.72366e-05
4.98239e-05
5.17022e-05
4.40005e-05
3.37458e-05
2.59464e-05
2.10274e-05
1.76938e-05
1.50967e-05
1.29007e-05
1.09992e-05
9.37589e-06
8.04893e-06
7.04842e-06
6.41087e-06
6.19275e-06
6.46665e-06
7.28242e-06
8.8824e-06
1.22588e-05
1.91433e-05
3.00634e-05
4.16783e-05
4.88678e-05
4.92729e-05
4.42738e-05
3.80628e-05
3.6535e-05
4.30907e-05
4.5133e-05
5.1249e-05
3.17394e-05
3.14329e-06
2.16275e-06
1.15089e-06
1.56359e-06
3.62322e-06
6.29349e-06
9.17908e-06
1.17813e-05
1.3411e-05
1.33946e-05
1.14575e-05
9.65297e-06
1.34953e-05
2.13835e-05
2.8408e-05
3.19241e-05
3.16902e-05
2.93529e-05
2.68832e-05
2.51383e-05
2.39964e-05
2.32072e-05
2.2803e-05
2.29352e-05
2.34046e-05
2.50711e-05
2.67755e-05
2.59685e-05
2.30468e-05
1.97788e-05
1.71844e-05
1.54343e-05
1.43603e-05
1.36116e-05
1.26843e-05
1.27861e-05
1.61063e-05
2.18504e-05
2.69335e-05
2.88867e-05
2.76523e-05
2.49776e-05
2.24526e-05
2.05214e-05
1.89569e-05
1.75357e-05
1.62092e-05
1.50162e-05
1.40073e-05
1.32213e-05
1.26778e-05
1.24168e-05
1.24862e-05
1.27386e-05
1.32305e-05
1.51989e-05
1.95125e-05
2.96655e-05
4.82037e-05
6.16097e-05
6.17473e-05
5.26371e-05
4.06167e-05
2.92451e-05
2.00099e-05
1.47856e-05
1.62152e-05
2.65722e-05
4.2137e-05
5.29162e-05
5.21424e-05
4.28208e-05
3.25522e-05
2.54387e-05
2.10348e-05
1.79349e-05
1.54191e-05
1.32308e-05
1.1299e-05
9.62384e-06
8.2324e-06
7.16089e-06
6.45256e-06
6.17509e-06
6.42192e-06
7.24669e-06
8.81125e-06
1.19595e-05
1.83688e-05
2.89722e-05
4.11165e-05
4.97021e-05
5.18283e-05
4.84958e-05
4.3818e-05
4.26337e-05
4.7336e-05
4.67372e-05
5.07234e-05
3.11397e-05
7.61098e-06
7.46353e-06
7.2902e-06
7.17661e-06
7.35303e-06
8.16018e-06
9.80559e-06
1.21818e-05
1.4982e-05
1.7913e-05
2.09105e-05
2.38876e-05
2.65728e-05
2.83152e-05
2.85758e-05
2.74927e-05
2.58446e-05
2.43801e-05
2.3266e-05
2.23088e-05
2.14366e-05
2.07736e-05
2.04381e-05
2.06081e-05
2.11703e-05
2.2293e-05
2.4527e-05
2.63704e-05
2.60005e-05
2.3672e-05
2.06846e-05
1.79933e-05
1.60349e-05
1.51222e-05
1.57816e-05
1.88413e-05
2.37804e-05
2.8225e-05
2.99725e-05
2.87676e-05
2.60559e-05
2.33915e-05
2.13646e-05
1.98108e-05
1.84514e-05
1.71676e-05
1.59645e-05
1.48838e-05
1.39665e-05
1.32483e-05
1.27521e-05
1.25091e-05
1.25854e-05
1.28922e-05
1.33483e-05
1.49194e-05
1.87802e-05
2.68671e-05
4.44281e-05
6.11523e-05
6.5414e-05
5.86054e-05
4.71702e-05
3.56875e-05
2.64589e-05
2.15143e-05
2.29777e-05
3.33303e-05
4.78889e-05
5.57507e-05
5.17824e-05
4.10255e-05
3.11486e-05
2.49067e-05
2.10416e-05
1.81791e-05
1.57495e-05
1.35708e-05
1.16067e-05
9.87478e-06
8.41137e-06
7.25845e-06
6.46816e-06
6.12215e-06
6.33655e-06
7.17573e-06
8.72795e-06
1.16692e-05
1.75609e-05
2.76505e-05
4.00733e-05
4.99745e-05
5.39389e-05
5.24109e-05
4.91677e-05
4.79773e-05
5.06206e-05
4.73672e-05
4.94231e-05
3.02408e-05
4.26256e-06
4.2004e-06
4.20213e-06
4.39497e-06
4.98721e-06
6.17908e-06
8.03597e-06
1.04684e-05
1.3259e-05
1.61059e-05
1.86779e-05
2.07712e-05
2.21253e-05
2.2638e-05
2.25041e-05
2.20831e-05
2.16099e-05
2.10818e-05
2.04196e-05
1.96535e-05
1.89311e-05
1.8424e-05
1.82341e-05
1.842e-05
1.90063e-05
1.98934e-05
2.14491e-05
2.38739e-05
2.59916e-05
2.66273e-05
2.5858e-05
2.45184e-05
2.34862e-05
2.34198e-05
2.48468e-05
2.75075e-05
2.99941e-05
3.07246e-05
2.93026e-05
2.6665e-05
2.40382e-05
2.19993e-05
2.04644e-05
1.91694e-05
1.7958e-05
1.67979e-05
1.57123e-05
1.47358e-05
1.39021e-05
1.32455e-05
1.27931e-05
1.25692e-05
1.26413e-05
1.29877e-05
1.34601e-05
1.46786e-05
1.80447e-05
2.4454e-05
3.97006e-05
5.8794e-05
6.78554e-05
6.45875e-05
5.4683e-05
4.359e-05
3.45508e-05
2.98446e-05
3.15463e-05
4.1663e-05
5.4011e-05
5.77598e-05
5.03142e-05
3.86098e-05
2.96154e-05
2.43821e-05
2.10566e-05
1.84317e-05
1.60916e-05
1.39237e-05
1.1925e-05
1.01307e-05
8.58741e-06
7.34332e-06
6.45948e-06
6.03343e-06
6.20751e-06
7.06433e-06
8.62819e-06
1.13949e-05
1.67551e-05
2.61427e-05
3.85072e-05
4.94911e-05
5.52662e-05
5.55798e-05
5.36106e-05
5.20733e-05
5.25207e-05
4.67682e-05
4.72873e-05
2.90865e-05
2.69142e-06
2.67349e-06
2.76495e-06
3.07844e-06
3.73728e-06
4.81303e-06
6.30489e-06
8.15765e-06
1.02674e-05
1.2473e-05
1.45387e-05
1.62423e-05
1.74812e-05
1.82831e-05
1.87249e-05
1.88626e-05
1.87279e-05
1.83606e-05
1.78301e-05
1.72407e-05
1.67152e-05
1.63664e-05
1.62833e-05
1.65057e-05
1.70474e-05
1.78722e-05
1.89633e-05
2.06429e-05
2.29651e-05
2.52473e-05
2.6833e-05
2.77171e-05
2.83101e-05
2.90091e-05
2.99204e-05
3.05918e-05
3.03034e-05
2.87799e-05
2.6495e-05
2.42081e-05
2.23482e-05
2.09001e-05
1.96789e-05
1.85489e-05
1.74627e-05
1.64225e-05
1.54488e-05
1.45686e-05
1.38122e-05
1.32128e-05
1.28005e-05
1.25966e-05
1.26575e-05
1.30194e-05
1.35387e-05
1.45056e-05
1.72858e-05
2.25245e-05
3.4568e-05
5.42776e-05
6.81883e-05
6.9715e-05
6.26066e-05
5.27159e-05
4.4228e-05
3.98259e-05
4.18098e-05
5.09927e-05
5.9607e-05
5.82155e-05
4.75061e-05
3.56819e-05
2.8059e-05
2.38909e-05
2.10856e-05
1.8696e-05
1.64486e-05
1.42924e-05
1.22563e-05
1.03937e-05
8.76185e-06
7.41514e-06
6.42402e-06
5.90506e-06
6.03083e-06
6.90815e-06
8.50821e-06
1.11431e-05
1.59905e-05
2.45284e-05
3.64431e-05
4.81126e-05
5.54878e-05
5.75396e-05
5.66081e-05
5.44301e-05
5.2671e-05
4.4767e-05
4.43559e-05
2.77846e-05
2.2014e-06
2.25572e-06
2.43417e-06
2.81489e-06
3.46355e-06
4.4102e-06
5.64478e-06
7.12502e-06
8.77647e-06
1.04908e-05
1.21382e-05
1.36039e-05
1.47909e-05
1.56297e-05
1.6109e-05
1.62753e-05
1.61976e-05
1.59368e-05
1.55505e-05
1.51146e-05
1.47266e-05
1.44827e-05
1.44612e-05
1.47128e-05
1.52364e-05
1.60247e-05
1.70101e-05
1.81954e-05
1.97652e-05
2.173e-05
2.37534e-05
2.54998e-05
2.68644e-05
2.781e-05
2.82209e-05
2.79299e-05
2.69005e-05
2.53789e-05
2.37608e-05
2.23113e-05
2.10688e-05
1.99606e-05
1.89217e-05
1.79242e-05
1.69621e-05
1.60399e-05
1.51719e-05
1.43814e-05
1.36976e-05
1.31517e-05
1.2775e-05
1.25901e-05
1.26378e-05
1.29882e-05
1.35575e-05
1.43941e-05
1.6562e-05
2.09616e-05
2.97893e-05
4.78163e-05
6.55741e-05
7.27601e-05
6.98825e-05
6.23327e-05
5.49906e-05
5.10982e-05
5.31175e-05
6.01054e-05
6.33656e-05
5.63877e-05
4.33397e-05
3.24793e-05
2.65865e-05
2.3451e-05
2.11343e-05
1.89768e-05
1.6825e-05
1.46814e-05
1.26046e-05
1.06672e-05
8.93751e-06
7.47602e-06
6.36281e-06
5.73626e-06
5.80489e-06
6.70513e-06
8.36501e-06
1.09186e-05
1.53032e-05
2.29135e-05
3.39932e-05
4.58099e-05
5.43654e-05
5.78756e-05
5.76731e-05
5.46427e-05
5.08306e-05
4.13272e-05
4.08097e-05
2.64956e-05
1.93507e-06
2.05738e-06
2.30029e-06
2.71202e-06
3.32726e-06
4.16066e-06
5.20387e-06
6.42581e-06
7.77114e-06
9.16811e-06
1.05236e-05
1.17311e-05
1.27035e-05
1.34025e-05
1.38348e-05
1.40272e-05
1.40127e-05
1.38314e-05
1.35365e-05
1.31993e-05
1.29053e-05
1.27387e-05
1.27664e-05
1.30345e-05
1.355e-05
1.42957e-05
1.52438e-05
1.6319e-05
1.75052e-05
1.88552e-05
2.03394e-05
2.17879e-05
2.30273e-05
2.38855e-05
2.42486e-05
2.40985e-05
2.35343e-05
2.27286e-05
2.18273e-05
2.09002e-05
1.997e-05
1.90519e-05
1.81592e-05
1.72957e-05
1.64587e-05
1.56497e-05
1.48811e-05
1.41751e-05
1.35594e-05
1.30632e-05
1.27175e-05
1.2548e-05
1.25838e-05
1.29006e-05
1.3496e-05
1.43006e-05
1.59585e-05
1.95875e-05
2.59767e-05
4.02865e-05
5.95951e-05
7.23213e-05
7.48844e-05
7.09885e-05
6.56019e-05
6.2489e-05
6.39188e-05
6.70545e-05
6.3781e-05
5.18506e-05
3.81456e-05
2.93283e-05
2.52756e-05
2.30701e-05
2.12064e-05
1.92792e-05
1.72267e-05
1.50963e-05
1.29755e-05
1.09562e-05
9.11819e-06
7.52815e-06
6.27563e-06
5.52419e-06
5.52699e-06
6.45435e-06
8.19637e-06
1.07242e-05
1.47219e-05
2.14106e-05
3.13521e-05
4.27081e-05
5.18347e-05
5.63363e-05
5.64992e-05
5.25103e-05
4.69675e-05
3.661e-05
3.69933e-05
2.5387e-05
1.76485e-06
1.93029e-06
2.20061e-06
2.6052e-06
3.16363e-06
3.88454e-06
4.7615e-06
5.77062e-06
6.87204e-06
8.0077e-06
9.10668e-06
1.00974e-05
1.0921e-05
1.1538e-05
1.19334e-05
1.21181e-05
1.21222e-05
1.19851e-05
1.17534e-05
1.14868e-05
1.12587e-05
1.11443e-05
1.12045e-05
1.14795e-05
1.19806e-05
1.26884e-05
1.358e-05
1.46089e-05
1.57119e-05
1.68475e-05
1.79978e-05
1.91083e-05
2.00847e-05
2.08339e-05
2.12887e-05
2.14283e-05
2.12793e-05
2.08938e-05
2.03284e-05
1.96432e-05
1.88987e-05
1.81429e-05
1.73994e-05
1.66709e-05
1.59543e-05
1.52522e-05
1.45774e-05