/*--------------------------------*- C++ -*----------------------------------*\
  =========                 |
  \\      /  F ield         | OpenFOAM: The Open Source CFD Toolbox
   \\    /   O peration     | Website:  https://openfoam.org
    \\  /    A nd           | Version:  10
     \\/     M anipulation  |
\*---------------------------------------------------------------------------*/
FoamFile
{
    format      ascii;
    class       volScalarField;
    location    "0.165";
    object      p;
}
// * * * * * * * * * * * * * * * * * * * * * * * * * * * * * * * * * * * * * //

dimensions      [0 2 -2 0 0 0 0];

internalField   nonuniform List<scalar> 
6820
(
11.7763
-2.55389
-4.55048
-4.72816
-4.87902
-4.81291
-4.77291
-4.78238
-4.81463
-4.85973
-4.91114
-4.96501
-5.01963
-5.07409
-5.12785
-5.18054
-5.23184
-5.28147
-5.32916
-5.37468
-5.41777
-5.45821
-5.49579
-5.53026
-5.56145
-5.58911
-5.61317
-5.63317
-5.64992
-5.66062
-5.6737
-5.66542
-5.70446
6.39867
-2.35118
-4.3556
-4.60677
-4.8096
-4.80709
-4.78842
-4.80429
-4.83674
-4.87908
-4.92731
-4.97838
-5.0307
-5.0834
-5.13586
-5.18761
-5.23825
-5.28743
-5.33485
-5.3802
-5.42322
-5.46367
-5.5013
-5.53588
-5.5672
-5.59504
-5.61925
-5.6395
-5.65619
-5.6677
-5.67916
-5.67722
-5.70814
4.31876
-1.13895
-3.5622
-4.15158
-4.52943
-4.66981
-4.71326
-4.75625
-4.80457
-4.85682
-4.91205
-4.96844
-5.02478
-5.08042
-5.13496
-5.18816
-5.2398
-5.28969
-5.33759
-5.38331
-5.42663
-5.46735
-5.50526
-5.54014
-5.57181
-5.60005
-5.62469
-5.64538
-5.66226
-5.67364
-5.68128
-5.67327
-5.65363
2.75161
-0.955488
-3.26488
-3.91259
-4.29182
-4.4955
-4.58927
-4.66437
-4.73584
-4.80332
-4.86841
-4.93169
-4.99326
-5.05322
-5.11147
-5.16789
-5.22237
-5.27481
-5.32505
-5.37296
-5.41836
-5.4611
-5.50102
-5.53795
-5.57173
-5.60216
-5.62909
-5.65216
-5.67117
-5.68472
-5.69217
-5.68636
-5.66131
1.46707
-0.998945
-2.9567
-3.63777
-4.04544
-4.31513
-4.46301
-4.56894
-4.66024
-4.74123
-4.81596
-4.88676
-4.95419
-5.01868
-5.08071
-5.1404
-5.19778
-5.25281
-5.30545
-5.35563
-5.40326
-5.44826
-5.49052
-5.52995
-5.56643
-5.59984
-5.63004
-5.65673
-5.67958
-5.69748
-5.70919
-5.71082
-5.6965
0.510271
-1.12104
-2.77158
-3.48372
-3.90098
-4.19298
-4.36706
-4.48965
-4.59321
-4.68395
-4.76609
-4.84266
-4.91499
-4.98372
-5.04927
-5.11199
-5.17205
-5.22956
-5.28456
-5.33707
-5.38707
-5.43454
-5.47945
-5.52176
-5.56144
-5.59843
-5.63266
-5.66396
-5.69211
-5.71644
-5.7363
-5.75008
-5.75701
-0.234322
-1.33204
-2.68277
-3.36531
-3.76905
-4.06981
-4.26812
-4.41029
-4.52812
-4.6297
-4.71984
-4.80247
-4.87956
-4.95211
-5.02089
-5.08643
-5.14905
-5.20893
-5.26619
-5.3209
-5.37311
-5.42286
-5.47018
-5.51511
-5.55767
-5.59789
-5.63579
-5.67134
-5.70449
-5.73502
-5.76278
-5.78754
-5.81012
-0.817247
-1.56074
-2.64367
-3.27967
-3.67221
-3.97541
-4.18861
-4.34358
-4.47062
-4.57968
-4.67588
-4.76342
-4.84465
-4.92082
-4.9928
-5.06122
-5.12645
-5.18875
-5.24831
-5.30528
-5.35977
-5.41188
-5.46171
-5.50935
-5.55491
-5.59849
-5.64022
-5.68021
-5.7186
-5.75552
-5.79131
-5.82645
-5.8626
-1.27947
-1.79128
-2.65221
-3.22884
-3.60117
-3.89544
-4.11421
-4.27805
-4.41301
-4.52926
-4.63168
-4.7244
-4.80999
-4.88991
-4.96515
-5.03644
-5.10428
-5.16902
-5.23091
-5.29017
-5.34696
-5.40145
-5.45379
-5.50414
-5.55268
-5.59959
-5.6451
-5.68946
-5.733
-5.77611
-5.81949
-5.86401
-5.91164
-1.6508
-2.00957
-2.68914
-3.19998
-3.54848
-3.83083
-4.05114
-4.22121
-4.36207
-4.48374
-4.59102
-4.68791
-4.77713
-4.86027
-4.93843
-5.01239
-5.08271
-5.14981
-5.21399
-5.27551
-5.33459
-5.39145
-5.4463
-5.49936
-5.55087
-5.6011
-5.65036
-5.69903
-5.74759
-5.79663
-5.84704
-5.89991
-5.95728
-1.95249
-2.20926
-2.74486
-3.19087
-3.51336
-3.78055
-3.9972
-4.16952
-4.31386
-4.43947
-4.55081
-4.65153
-4.74426
-4.83062
-4.91172
-4.9884
-5.06126
-5.13075
-5.19725
-5.26106
-5.32245
-5.3817
-5.43905
-5.49478
-5.5492
-5.60265
-5.65552
-5.70827
-5.7615
-5.81592
-5.87253
-5.93248
-5.99774
-2.20005
-2.38801
-2.81083
-3.19576
-3.49081
-3.74123
-3.95143
-4.12379
-4.27028
-4.39884
-4.5135
-4.61748
-4.71326
-4.80247
-4.88624
-4.96542
-5.04064
-5.11242
-5.18114
-5.24716
-5.31079
-5.37234
-5.4321
-5.49041
-5.54762
-5.60412
-5.66036
-5.71688
-5.77434
-5.83351
-5.89542
-5.96119
-6.03264
-2.40479
-2.54556
-2.88093
-3.21085
-3.47866
-3.71185
-3.91355
-4.08371
-4.2306
-4.36078
-4.47777
-4.58437
-4.68281
-4.77464
-4.86094
-4.94254
-5.02011
-5.09415
-5.16509
-5.2333
-5.29915
-5.36296
-5.42507
-5.48586
-5.54572
-5.60507
-5.66442
-5.72433
-5.78549
-5.84869
-5.91493
-5.98524
-6.06123
-2.57499
-2.68284
-2.95082
-3.23258
-3.4741
-3.69009
-3.88208
-4.04849
-4.19464
-4.32563
-4.44435
-4.55314
-4.65393
-4.74813
-4.83677
-4.92066
-5.00043
-5.07662
-5.14967
-5.21998
-5.28792
-5.35387
-5.41819
-5.48128
-5.54356
-5.60548
-5.66756
-5.7304
-5.79466
-5.86112
-5.93069
-6.00429
-6.08333
-2.71681
-2.80124
-3.01744
-3.25801
-3.47498
-3.67442
-3.85623
-4.01785
-4.16227
-4.29321
-4.41296
-4.52338
-4.62612
-4.7224
-4.81317
-4.89918
-4.98105
-5.0593
-5.13438
-5.20671
-5.27667
-5.34465
-5.41105
-5.47626
-5.54073
-5.60493
-5.66939
-5.73467
-5.80142
-5.87036
-5.94232
-6.01808
-6.09882
-2.83484
-2.90231
-3.07875
-3.2847
-3.4793
-3.66319
-3.8348
-3.99096
-4.13296
-4.26327
-4.38356
-4.49526
-4.59966
-4.69783
-4.79057
-4.87858
-4.96244
-5.04265
-5.11965
-5.19387
-5.26571
-5.33556
-5.40382
-5.47092
-5.5373
-5.60342
-5.6698
-5.73699
-5.80559
-5.87624
-5.94966
-6.02651
-6.10774
-2.9325
-2.9875
-3.13341
-3.31066
-3.48535
-3.65495
-3.81676
-3.96723
-4.10639
-4.23564
-4.35608
-4.4687
-4.57449
-4.6743
-4.76883
-4.85868
-4.9444
-5.02644
-5.10525
-5.18125
-5.25482
-5.32638
-5.39633
-5.46508
-5.53308
-5.60078
-5.66866
-5.73725
-5.80709
-5.87874
-5.95281
-6.02983
-6.11054
-3.01237
-3.05807
-3.18052
-3.33429
-3.49163
-3.64837
-3.80106
-3.9459
-4.08202
-4.20996
-4.33028
-4.44358
-4.55056
-4.65185
-4.74803
-4.8396
-4.92705
-5.01081
-5.0913
-5.16892
-5.24406
-5.31712
-5.38851
-5.45864
-5.52792
-5.5968
-5.66574
-5.73519
-5.80565
-5.87761
-5.95155
-6.02791
-6.10725
-3.07637
-3.11507
-3.2195
-3.35429
-3.4968
-3.64225
-3.78672
-3.92626
-4.05939
-4.18595
-4.30604
-4.41989
-4.52792
-4.63058
-4.72829
-4.82149
-4.91057
-4.99594
-5.07799
-5.1571
-5.23365
-5.30804
-5.38066
-5.4519
-5.52217
-5.59188
-5.66144
-5.7313
-5.80185
-5.87352
-5.9467
-6.02172
-6.09899
-3.12589
-3.1593
-3.24993
-3.36959
-3.49972
-3.6355
-3.77278
-3.90757
-4.03794
-4.16319
-4.28302
-4.39735
-4.50635
-4.61027
-4.70942
-4.80411
-4.8947
-4.98154
-5.06499
-5.14541
-5.22318
-5.29866
-5.37223
-5.44427
-5.51517
-5.58531
-5.65507
-5.72483
-5.79495
-5.86577
-5.93761
-6.0107
-6.08537
-3.16189
-3.19133
-3.27149
-3.37928
-3.49935
-3.62712
-3.75838
-3.88915
-4.0172
-4.14142
-4.26115
-4.37607
-4.48609
-4.59131
-4.69189
-4.78808
-4.88014
-4.9684
-5.05317
-5.1348
-5.21363
-5.29002
-5.36434
-5.43695
-5.5082
-5.57845
-5.64804
-5.71732
-5.78657
-5.85609
-5.92613
-5.99686
-6.06848
-3.18499
-3.21147
-3.28383
-3.38255
-3.49473
-3.61616
-3.74264
-3.87025
-3.99652
-4.12005
-4.23989
-4.35548
-4.46656
-4.57304
-4.675
-4.77257
-4.86599
-4.9555
-5.04141
-5.12403
-5.20369
-5.28074
-5.35552
-5.42836
-5.49961
-5.5696
-5.63862
-5.70699
-5.77496
-5.84276
-5.9106
-5.9786
-6.0469
-3.19547
-3.21984
-3.28657
-3.37868
-3.48504
-3.60181
-3.72489
-3.85038
-3.97568
-4.09914
-4.21957
-4.33621
-4.44863
-4.55661
-4.66011
-4.75919
-4.85402
-4.94482
-5.03185
-5.1154
-5.1958
-5.27337
-5.34842
-5.4213
-5.49231
-5.56176
-5.62994
-5.69709
-5.76346
-5.82924
-5.89457
-5.95957
-6.0243
-3.19332
-3.21626
-3.27922
-3.36688
-3.46936
-3.58312
-3.70415
-3.82856
-3.95365
-4.07756
-4.19894
-4.31686
-4.43073
-4.54023
-4.64523
-4.74573
-4.84184
-4.93375
-5.02171
-5.10597
-5.18685
-5.26466
-5.3397
-5.41229
-5.48274
-5.55131
-5.61828
-5.68389
-5.74833
-5.81178
-5.87436
-5.93617
-5.99726
-3.17821
-3.20035
-3.26119
-3.34645
-3.44702
-3.55959
-3.68022
-3.805
-3.9311
-4.05651
-4.17971
-4.29962
-4.41554
-4.52704
-4.63391
-4.7361
-4.83369
-4.92683
-5.01576
-5.10073
-5.18203
-5.25997
-5.33486
-5.407
-5.47668
-5.54417
-5.60971
-5.67354
-5.73583
-5.79675
-5.85639
-5.91483
-5.9721
-3.1495
-3.17139
-3.23162
-3.31634
-3.41679
-3.52979
-3.65139
-3.77762
-3.90556
-4.03307
-4.15851
-4.28068
-4.3988
-4.51236
-4.62109
-4.72491
-4.82386
-4.91809
-5.0078
-5.09325
-5.17474
-5.25256
-5.32702
-5.39842
-5.46703
-5.53314
-5.59697
-5.65875
-5.71865
-5.77683
-5.8334
-5.88844
-5.94199
-3.10619
-3.12844
-3.18967
-3.27597
-3.37858
-3.49433
-3.61916
-3.74895
-3.88061
-4.01187
-4.14093
-4.26652
-4.38776
-4.5041
-4.61525
-4.72109
-4.82167
-4.91714
-5.00771
-5.09365
-5.17526
-5.25286
-5.32674
-5.39722
-5.46459
-5.52912
-5.59105
-5.65058
-5.70792
-5.7632
-5.81653
-5.86798
-5.9176
-3.04681
-3.06993
-3.1336
-3.2232
-3.32959
-3.4495
-3.57872
-3.71298
-3.84908
-3.98463
-4.11775
-4.24709
-4.3717
-4.491
-4.60467
-4.71259
-4.8148
-4.91145
-5.00278
-5.08907
-5.17062
-5.24778
-5.32086
-5.39019
-5.45607
-5.51878
-5.57856
-5.63565
-5.69025
-5.74251
-5.79258
-5.84056
-5.88652
-2.96951
-2.9944
-3.06282
-3.1589
-3.27265
-3.40044
-3.53769
-3.67973
-3.82312
-3.96533
-4.10441
-4.23895
-4.36802
-4.49106
-4.60778
-4.71809
-4.8221
-4.91999
-5.01203
-5.09856
-5.1799
-5.25643
-5.3285
-5.39645
-5.46059
-5.52124
-5.57865
-5.63307
-5.68471
-5.73374
-5.7803
-5.8245
-5.86639
-2.87136
-2.89833
-2.9727
-3.07643
-3.19829
-3.33453
-3.48035
-3.63076
-3.78213
-3.93176
-4.07758
-4.21811
-4.35238
-4.47979
-4.60009
-4.71323
-4.81934
-4.91865
-5.01151
-5.09827
-5.17934
-5.25513
-5.32602
-5.39241
-5.45463
-5.51303
-5.5679
-5.61951
-5.6681
-5.71388
-5.75702
-5.79771
-5.83604
-2.74948
-2.78094
-2.86661
-2.9849
-3.12215
-3.27371
-3.43403
-3.59754
-3.76041
-3.91998
-4.07423
-4.2218
-4.36182
-4.49385
-4.61774
-4.73356
-4.84151
-4.94195
-5.03527
-5.12192
-5.20234
-5.277
-5.34633
-5.41076
-5.47068
-5.52644
-5.57839
-5.6268
-5.67194
-5.71405
-5.7533
-5.78986
-5.82384
-2.59726
-2.63165
-2.72737
-2.85832
-3.00902
-3.17514
-3.35052
-3.5287
-3.70532
-3.8774
-4.0427
-4.19974
-4.34768
-4.48613
-4.61504
-4.73462
-4.84521
-4.94729
-5.04139
-5.12807
-5.20787
-5.28136
-5.34905
-5.41142
-5.46892
-5.52196
-5.57092
-5.61612
-5.65788
-5.69647
-5.73214
-5.76513
-5.79562
-2.41259
-2.45985
-2.58264
-2.74385
-2.92241
-3.11344
-3.31041
-3.50673
-3.6985
-3.88316
-4.05882
-4.22428
-4.37896
-4.52268
-4.65555
-4.77792
-4.89028
-4.99321
-5.08735
-5.17333
-5.25182
-5.32342
-5.38874
-5.44831
-5.50263
-5.55218
-5.59735
-5.63852
-5.67604
-5.71019
-5.74125
-5.76944
-5.79496
-2.1738
-2.22016
-2.35669
-2.53827
-2.74163
-2.96129
-3.18738
-3.41086
-3.62693
-3.83261
-4.02581
-4.20548
-4.37135
-4.52359
-4.6627
-4.78939
-4.90447
-5.00881
-5.10328
-5.18873
-5.26597
-5.33576
-5.39879
-5.45569
-5.50704
-5.55333
-5.59504
-5.63257
-5.66631
-5.69661
-5.72381
-5.74827
-5.77025
-1.89898
-1.99308
-2.19754
-2.4324
-2.67324
-2.92271
-3.17294
-3.41598
-3.64848
-3.86819
-4.07329
-4.26289
-4.43682
-4.59533
-4.73901
-4.86868
-4.9853
-5.08988
-5.18346
-5.26705
-5.34162
-5.40805
-5.46715
-5.51968
-5.56627
-5.60752
-5.64393
-5.67597
-5.70402
-5.72848
-5.74971
-5.76804
-5.78389
-1.4781
-1.54621
-1.78132
-2.07332
-2.38148
-2.69883
-3.00871
-3.30129
-3.57389
-3.82487
-4.05354
-4.26046
-4.44675
-4.61378
-4.76302
-4.89601
-5.01424
-5.11914
-5.21206
-5.29423
-5.36678
-5.43075
-5.48704
-5.53645
-5.5797
-5.61739
-5.65005
-5.67813
-5.70205
-5.72219
-5.73896
-5.7529
-5.76454
-1.11576
-1.36841
-1.72467
-2.04346
-2.36329
-2.6987
-3.02635
-3.33745
-3.63028
-3.90128
-4.14815
-4.37058
-4.5692
-4.74517
-4.90011
-5.03585
-5.15428
-5.25725
-5.34652
-5.42371
-5.49027
-5.54751
-5.59658
-5.63845
-5.67397
-5.70383
-5.7286
-5.74872
-5.76451
-5.77629
-5.78419
-5.78885
-5.79031
-0.0634174
-0.329325
-0.939717
-1.48528
-1.98634
-2.46175
-2.88708
-3.26482
-3.60248
-3.90283
-4.16891
-4.40414
-4.61146
-4.79349
-4.95268
-5.09128
-5.2114
-5.31501
-5.40398
-5.48
-5.54465
-5.59931
-5.64525
-5.68352
-5.71506
-5.74059
-5.76069
-5.77575
-5.78588
-5.79119
-5.79101
-5.78639
-5.77342
-0.115048
-0.67488
-1.11616
-1.48004
-1.95547
-2.44992
-2.91326
-3.34823
-3.74634
-4.09927
-4.40688
-4.67181
-4.89732
-5.08739
-5.24627
-5.37811
-5.48678
-5.57573
-5.64804
-5.70635
-5.75296
-5.78979
-5.8185
-5.84043
-5.85671
-5.86824
-5.87564
-5.87927
-5.87902
-5.87421
-5.86263
-5.84204
-5.80139
4.82556
1.13392
-0.190579
-0.859381
-1.65664
-2.33199
-2.87394
-3.34857
-3.76329
-4.11948
-4.42483
-4.68536
-4.90593
-5.09141
-5.2464
-5.37505
-5.48114
-5.56802
-5.63866
-5.6956
-5.74107
-5.77696
-5.80487
-5.82617
-5.84201
-5.85332
-5.86097
-5.86544
-5.86767
-5.86712
-5.86616
-5.86038
-5.85933
-5.54155
-5.46003
-5.42579
-5.29894
-5.15724
-5.13049
-5.47146
-6.51115
-8.58022
-11.8298
-15.999
-20.2657
-23.4948
-24.9518
-24.6213
-22.7165
-19.1182
-13.7028
-7.28518
-1.46734
2.62376
4.78242
5.22858
4.12128
1.61751
-2.0114
-6.43936
-11.2837
-16.1731
-20.7968
-24.9099
-28.3043
-30.7601
-32.028
-31.8734
-30.1765
-27.0802
-23.0511
-18.7086
-14.504
-10.6242
-7.11827
-4.02432
-1.3904
0.758688
2.4434
3.72143
4.6655
5.34669
5.82656
6.15362
6.36274
6.47715
6.5084
6.45916
6.31822
6.06467
5.55678
4.26325
1.29171
-3.99761
-11.2925
-19.5443
-27.2658
-32.8867
-35.309
-34.171
-29.4109
-21.8009
-13.2296
-6.03556
-1.2898
1.4537
3.01987
3.95667
4.53896
4.90344
5.12698
5.25818
5.32896
5.35961
5.36173
5.34005
5.29404
5.21775
5.09745
4.91026
4.6136
4.11243
3.14782
1.14422
-2.57262
-7.92198
-13.6668
-17.5287
-18.0471
-14.5088
-9.8057
-3.33735
-2.76462
-5.59756
-5.47163
-5.40968
-5.27408
-5.14207
-5.16691
-5.59194
-6.70094
-8.75139
-11.8298
-15.6635
-19.5274
-22.4691
-23.83
-23.4697
-21.4932
-17.8789
-12.7652
-7.0276
-1.96144
1.61655
3.55525
3.9978
3.08501
0.896699
-2.34006
-6.32621
-10.7275
-15.2142
-19.5005
-23.3404
-26.5119
-28.7875
-29.9328
-29.7508
-28.1769
-25.3772
-21.7515
-17.7861
-13.8619
-10.1864
-6.85482
-3.92217
-1.42378
0.629565
2.25869
3.51204
4.45163
5.14011
5.63307
5.97515
6.19891
6.32629
6.36838
6.32707
6.19053
5.93662
5.45925
4.29153
1.58799
-3.31184
-10.1846
-18.0377
-25.4254
-30.8346
-33.1966
-32.1576
-27.6441
-20.429
-12.3622
-5.64224
-1.20894
1.38993
2.91129
3.84566
4.43973
4.81961
5.05862
5.20415
5.28758
5.32891
5.33964
5.32448
5.28296
5.20925
5.08982
4.90203
4.60506
4.11193
3.19208
1.32932
-2.09714
-7.02813
-12.3451
-15.9321
-16.4854
-13.2642
-9.06131
-2.9607
-2.77663
-5.55737
-5.47879
-5.42877
-5.3335
-5.26435
-5.36451
-5.85509
-6.99514
-8.99436
-11.882
-15.37
-18.8227
-21.4179
-22.5446
-22.0204
-19.9345
-16.4054
-11.7555
-6.78094
-2.44291
0.668825
2.40981
2.83781
2.07089
0.171519
-2.69209
-6.2671
-10.2527
-14.3414
-18.2652
-21.7927
-24.7075
-26.7845
-27.8128
-27.6352
-26.223
-23.7298
-20.4728
-16.8419
-13.1828
-9.724
-6.58595
-3.82364
-1.46014
0.50033
2.07493
3.30278
4.23632
4.93044
5.43506
5.79104
6.02861
6.16834
6.22085
6.1874
6.05591
5.80184
5.34561
4.29087
1.8556
-2.62572
-9.0244
-16.4256
-23.44
-28.6142
-30.9077
-29.9689
-25.7218
-18.9452
-11.4378
-5.23247
-1.12823
1.32241
2.79868
3.73059
4.33648
4.73199
4.98691
5.1473
5.24392
5.29645
5.3162
5.30801
5.27142
5.20073
5.08265
4.89494
4.59848
4.11366
3.2368
1.5111
-1.62714
-6.13691
-11.021
-14.3334
-14.9244
-12.0281
-8.32349
-2.60505
-2.76819
-5.60353
-5.55448
-5.51433
-5.46171
-5.46249
-5.65002
-6.21483
-7.3659
-9.25754
-11.8812
-14.9621
-17.9351
-20.0804
-20.8761
-20.1695
-18.0829
-14.8392
-10.8039
-6.59652
-2.90952
-0.204568
1.3564
1.77039
1.11631
-0.537797
-3.06066
-6.24531
-9.83266
-13.5402
-17.1097
-20.3186
-22.9638
-24.8409
-25.7712
-25.6232
-24.3791
-22.1578
-19.2102
-15.8738
-12.4783
-9.25574
-6.32507
-3.73357
-1.49933
0.372518
1.89349
3.09465
4.02025
4.71815
5.23287
5.60151
5.85201
6.00348
6.06592
6.04023
5.91422
5.66112
5.22017
4.26859
2.10004
-1.94053
-7.81944
-14.7199
-21.3245
-26.243
-28.4615
-27.6263
-23.67
-17.3784
-10.4806
-4.81916
-1.05123
1.25161
2.68308
3.61212
4.22947
4.64065
4.91187
5.08771
5.19813
5.26244
5.29178
5.29102
5.25977
5.19254
5.07642
4.8896
4.59464
4.1189
3.28397
1.69114
-1.16467
-5.25781
-9.71272
-12.7574
-13.3899
-10.8226
-7.60583
-2.27633
-2.73961
-5.66761
-5.64868
-5.64581
-5.66045
-5.74694
-6.01408
-6.61287
-7.70514
-9.40026
-11.6662
-14.2462
-16.6431
-18.3001
-18.8103
-18.0642
-16.189
-13.4025
-10.0117
-6.48443
-3.35119
-1.0028
0.386352
0.780363
0.223419
-1.21871
-3.43371
-6.25023
-9.45275
-12.7943
-16.0304
-18.9423
-21.3359
-23.0325
-23.8794
-23.756
-22.6432
-20.6347
-17.9481
-14.8921
-11.7717
-8.79827
-6.07708
-3.65093
-1.53991
0.246545
1.71436
2.88774
3.80367
4.50353
5.02671
5.40669
5.66914
5.83166
5.90357
5.88551
5.76544
5.5151
5.08536
4.22583
2.3162
-1.27276
-6.59588
-12.9512
-19.1095
-23.7491
-25.8826
-25.1549
-21.5163
-15.7563
-9.51143
-4.41264
-0.981183
1.17671
2.56415
3.48992
4.1184
4.54538
4.83337
5.02525
5.15012
5.22681
5.26625
5.27344
5.24804
5.1848
5.07126
4.88618
4.59381
4.12796
3.33363
1.86752
-0.716766
-4.40577
-8.44234
-11.2298
-11.9051
-9.66429
-6.91749
-1.97679
-2.69271
-5.76101
-5.77816
-5.81881
-5.89446
-6.05065
-6.37236
-6.97133
-7.96021
-9.40497
-11.2597
-13.3058
-15.1708
-16.4407
-16.8009
-16.1532
-14.5758
-12.2391
-9.39997
-6.43415
-3.76875
-1.73731
-0.51149
-0.144379
-0.614597
-1.86881
-3.80706
-6.28287
-9.11545
-12.0964
-15.0075
-17.6401
-19.8069
-21.3405
-22.1006
-21.98
-20.9608
-19.1312
-16.6933
-13.9245
-11.0885
-8.36438
-5.84503
-3.57522
-1.58101
0.123051
1.53812
2.68259
3.58705
4.28696
4.81689
5.20684
5.48021
5.6531
5.73402
5.72342
5.60967
5.36406
4.94299
4.16095
2.49296
-0.647508
-5.38958
-11.1586
-16.8327
-21.1672
-23.2049
-22.591
-19.3001
-14.1162
-8.55605
-4.02427
-0.920873
1.09775
2.44222
3.3641
4.00325
4.4461
4.75134
4.95995
5.09996
5.18971
5.23988
5.25557
5.23651
5.17778
5.06746
4.88499
4.59629
4.14109
3.38546
2.03791
-0.290387
-3.59437
-7.22969
-9.77385
-10.4926
-8.56989
-6.2677
-1.70838
-2.6298
-5.83671
-5.88086
-5.95513
-6.07574
-6.28068
-6.63441
-7.21655
-8.10099
-9.32177
-10.8278
-12.457
-13.9315
-14.9239
-15.1839
-14.6185
-13.2793
-11.3074
-8.91941
-6.42136
-4.15798
-2.40953
-1.33615
-1.00079
-1.39724
-2.4844
-4.17615
-6.34344
-8.83045
-11.4594
-14.0425
-16.3926
-18.3328
-19.6992
-20.3641
-20.2371
-19.3077
-17.6633
-15.4851
-13.0077
-10.4485
-7.95929
-5.62788
-3.50461
-1.62167
0.00240645
1.36498
2.47946
3.37071
4.06878
4.60373
5.00223
5.28543
5.46798
5.55748
5.55416
5.44709
5.20806
4.79543
4.07596
2.62483
-0.0852924
-4.23644
-9.38634
-14.5402
-18.5429
-20.4733
-19.9814
-17.0693
-12.4994
-7.63969
-3.66364
-0.872231
1.01463
2.31724
3.23447
3.88378
4.34264
4.66569
4.89174
5.04766
5.15118
5.21271
5.23749
5.22534
5.17171
5.06528
4.88634
4.60244
4.15868
3.43978
2.20138
0.109912
-2.83439
-6.09228
-8.41024
-9.17205
-7.55233
-5.66288
-1.47115
-2.55392
-5.90841
-5.97725
-6.07965
-6.23257
-6.46737
-6.83306
-7.38671
-8.17654
-9.21678
-10.458
-11.7655
-12.9198
-13.6751
-13.8416
-13.3405
-12.2027
-10.54
-8.5333
-6.43247
-4.51604
-3.01826
-2.08497
-1.78332
-2.11878
-3.05879
-4.53193
-6.42463
-8.59962
-10.9013
-13.1659
-15.2292
-16.9325
-18.1275
-18.7004
-18.5753
-17.7477
-16.2958
-14.3713
-12.1655
-9.85785
-7.58175
-5.42347
-3.43798
-1.66146
-0.115163
1.1952
2.27868
3.15503
3.84937
4.38761
4.79322
5.08515
5.27661
5.3743
5.37812
5.27806
5.04712
4.64455
3.97457
2.71064
0.398068
-3.17226
-7.68472
-12.2885
-15.9339
-17.7464
-17.3862
-14.8813
-10.9505
-6.78634
-3.3383
-0.836288
0.927545
2.18922
3.10085
3.75979
4.23484
4.57632
4.82064
4.99331
5.11139
5.18499
5.21949
5.21483
5.16689
5.06506
4.89054
4.61258
4.1811
3.49697
2.35768
0.481165
-2.13404
-5.04411
-7.15524
-7.95825
-6.62089
-5.10733
-1.26396
-2.4686
-5.973
-6.06137
-6.18465
-6.35906
-6.61023
-6.97483
-7.49266
-8.19325
-9.07766
-10.0969
-11.1407
-12.044
-12.6208
-12.7216
-12.2778
-11.3089
-9.90674
-8.22213
-6.45828
-4.84025
-3.5633
-2.75785
-2.49074
-2.77556
-3.58682
-4.86599
-6.5152
-8.41321
-10.4225
-12.3979
-14.194
-15.6729
-16.7078
-17.1973
-17.0776
-16.3467
-15.0692
-13.3681
-11.3988
-9.31222
-7.22803
-5.22995
-3.37463
-1.70015
-0.229534
1.02894
2.08049
2.94033
3.62911
4.16892
4.5802
4.87974
5.07935
5.18489
5.19577
5.10301
4.88141
4.49144
3.8612
2.75243
0.792152
-2.22996
-6.10717
-10.1426
-13.4094
-15.0953
-14.8766
-12.7996
-9.51334
-6.01524
-3.05263
-0.813078
0.836632
2.05793
2.96288
3.63096
4.12248
4.48313
4.74662
4.93698
5.07047
5.15692
5.20181
5.20527
5.16366
5.06712
4.89795
4.62706
4.20874
3.55755
2.50722
0.822281
-1.49796
-4.09409
-6.01933
-6.86028
-5.78004
-4.60252
-1.08426
-2.37769
-6.03128
-6.13526
-6.27423
-6.4624
-6.72001
-7.07389
-7.55088
-8.16755
-8.91704
-9.75469
-10.5913
-11.2981
-11.7322
-11.7787
-11.3829
-10.5587
-9.3796
-7.96893
-6.4916
-5.13014
-4.0471
-3.35726
-3.12445
-3.36709
-4.06615
-5.17338
-6.60573
-8.25753
-10.0078
-11.7279
-13.289
-14.5704
-15.4624
-15.8753
-15.7574
-15.1067
-13.9753
-12.4626
-10.6964
-8.80507
-6.8954
-5.04653
-3.31443
-1.73775
-0.340673
0.866323
1.88512
2.72693
3.40841
3.94811
4.36364
4.66969
4.8767
4.98973
5.00771
4.92256
4.71129
4.33656
3.74046
2.75599
1.09461
-1.43354
-4.70355
-8.17081
-11.0471
-12.6001
-12.5304
-10.8877
-8.22464
-5.33845
-2.80752
-0.801858
0.741952
1.92297
2.8201
3.49693
4.00531
4.38598
4.66969
4.87877
5.02864
5.1288
5.18477
5.19703
5.1624
5.07187
4.90893
4.64623
4.24197
3.62219
2.65114
1.13429
-0.926672
-3.24517
-5.00614
-5.88056
-5.02943
-4.14747
-0.928611
-2.28511
-6.08157
-6.197
-6.34619
-6.54095
-6.79693
-7.13334
-7.5675
-8.10708
-8.74066
-9.42825
-10.0972
-10.6477
-10.9715
-10.9804
-10.6304
-9.93091
-8.94099
-7.76179
-6.52738
-5.38592
-4.47217
-3.88584
-3.68605
-3.89355
-4.49506
-5.45056
-6.68999
-8.12203
-9.6412
-11.1343
-12.488
-13.5949
-14.3582
-14.7026
-14.5838
-13.999
-12.9899
-11.6379
-10.0491
-8.33253
-6.58274
-4.87302
-3.25739
-1.77428
-0.448585
0.707419
1.69276
2.51515
3.18768
3.72566
4.14404
4.45552
4.66919
4.78939
4.81462
4.73743
4.53738
4.18008
3.6162
2.72991
1.31188
-0.79314
-3.51172
-6.43596
-8.92484
-10.344
-10.4236
-9.19922
-7.108
-4.75892
-2.60061
-0.801438
0.643278
1.78366
2.67186
3.3572
3.88301
4.2847
4.58983
4.81882
4.98611
5.10091
5.16874
5.19049
5.16352
5.07972
4.92387
4.67045
4.28119
3.69163
2.79115
1.42009
-0.416748
-2.49423
-4.11221
-5.01495
-4.36417
-3.73904
-0.793019
-2.19465
-6.12377
-6.24706
-6.40204
-6.59812
-6.847
-7.16196
-7.55347
-8.02322
-8.5576
-9.12156
-9.65645
-10.0846
-10.3233
-10.3048
-9.99515
-9.40186
-8.57262
-7.58967
-6.56154
-5.60842
-4.84178
-4.34731
-4.17852
-4.35679
-4.87353
-5.69545
-6.76379
-7.99998
-9.31246
-10.6023
-11.7699
-12.7202
-13.3696
-13.6527
-13.5309
-13.0009
-12.0963
-10.8841
-9.45205
-7.89283
-6.28953
-4.70933
-3.20357
-1.80984
-0.553335
0.552263
1.50358
2.30531
2.96734
3.50206
3.92196
4.23784
4.45747
4.58454
4.61723
4.5485
4.36045
4.02226
3.49091
2.68377
1.45761
-0.302427
-2.54857
-4.98262
-7.10686
-8.3974
-8.61493
-7.76639
-6.16873
-4.27057
-2.42717
-0.810689
0.539961
1.63903
2.51738
3.21117
3.75514
4.1791
4.50703
4.75729
4.94318
5.07365
5.15416
5.18611
5.16748
5.09113
4.94319
4.70006
4.32677
3.76664
2.92933
1.68399
0.0385796
-1.83262
-3.32769
-4.25367
-3.77588
-3.37266
-0.673525
-2.10969
-6.15738
-6.28532
-6.44222
-6.6353
-6.87296
-7.16404
-7.51405
-7.921
-8.37061
-8.83263
-9.2597
-9.59145
-9.76481
-9.72853
-9.45658
-8.95508
-8.26243
-7.44532
-6.59167
-5.79906
-5.1594
-4.74562
-4.60526
-4.75913
-5.20223
-5.9069
-6.82404
-7.88639
-9.01476
-10.1232
-11.1243
-11.935
-12.4825
-12.7097
-12.5834
-12.0996
-11.2854
-10.1952
-8.90202
-7.48443
-6.0152
-4.55532
-3.15303
-1.84455
-0.655031
0.400848
1.31773
2.09768
2.74781
3.27784
3.69798
4.01729
4.24225
4.37591
4.41631
4.35672
4.18149
3.86368
3.36586
2.62622
1.54973
0.0599985
-1.80429
-3.82388
-5.626
-6.79821
-7.12889
-6.59074
-5.39314
-3.86041
-2.28155
-0.829068
0.430841
1.48784
2.3556
3.05805
3.6212
4.06891
4.4213
4.69437
4.90018
5.04741
5.14149
5.18439
5.17481
5.10658
4.96734
4.73545
4.37904
3.84791
3.06784
1.9311
0.448319
-1.24765
-2.63808
-3.58309
-3.25415
-3.04327
-0.566735
-2.03305
-6.18246
-6.3123
-6.46803
-6.65493
-6.87881
-7.14513
-7.45603
-7.80723
-8.18489
-8.56315
-8.90394
-9.16038
-9.28439
-9.2372
-8.9993
-8.57616
-7.99898
-7.32176
-6.61552
-5.95933
-5.4287
-5.08519
-4.97034
-5.10368
-5.48274
-6.08477
-6.86861
-7.77714
-8.74214
-9.6891
-10.542
-11.2283
-11.6845
-11.8614
-11.7299
-11.2853
-10.549
-9.56566
-8.39568
-7.10566
-5.75905
-4.41087
-3.10588
-1.87863
-0.75384
0.253123
1.1353
1.89254
2.5295
3.05351
3.47274
3.79455
4.0243
4.16435
4.21271
4.16305
4.00156
3.70519
3.24186
2.56352
1.60648
0.324939
-1.24426
-2.93479
-4.47033
-5.53564
-5.94554
-5.64264
-4.75309
-3.51228
-2.15882
-0.857003
0.314255
1.3285
2.18523
2.89681
3.48048
3.95379
4.33259
4.63028
4.85754
5.02271
5.13129
5.18591
5.18604
5.12661
4.99677
4.77694
4.43828
3.93604
3.20869
2.16664
0.82234
-0.725284
-2.0267
-2.98792
-2.78818
-2.74623
-0.470289
-1.96685
-6.19916
-6.32862
-6.48072
-6.65915
-6.86765
-7.10921
-7.38374
-7.68576
-8.00238
-8.31178
-8.58347
-8.78108
-8.86807
-8.81536
-8.60864
-8.25294
-7.77359
-7.21419
-6.63206
-6.09122
-5.65354
-5.37053
-5.27806
-5.39389
-5.71721
-6.22954
-6.89632
-7.66921
-8.48974
-9.29358
-10.0147
-10.5905
-10.9656
-11.0973
-10.9599
-10.5486
-9.88005
-8.99047
-7.93
-6.75496
-5.52052
-4.27591
-3.06231
-1.91232
-0.849973
0.10899
0.956353
1.69012
2.31279
2.82962
3.24685
3.57037
3.80442
3.95076
4.00737
3.96843
3.8218
3.54787
3.11974
2.49951
1.64285
0.52444
-0.819551
-2.2588
-3.58409
-4.55184
-5.00693
-4.87117
-4.2147
-3.21139
-2.05617
-0.895955
0.188073
1.15906
2.00458
2.72615
3.33211
3.8333
4.24086
4.56525
4.81572
5.00011
5.1242
5.1913
5.20179
5.15177
5.03197
4.82491
4.50474
4.03143
3.3535
2.39529
1.17011
-0.251544
-1.47724
-2.45361
-2.36844
-2.47815
-0.383097
-1.91262
-6.2078
-6.33502
-6.48162
-6.65003
-6.84241
-7.06003
-7.30133
-7.56038
-7.82553
-8.07857
-8.29515
-8.44713
-8.50681
-8.45251
-8.27394
-7.97583
-7.57887
-7.11828
-6.64026
-6.19652
-5.83755
-5.60617
-5.53291
-5.63357
-5.90836
-6.34234
-6.90661
-7.56024
-8.25337
-8.93074
-9.53551
-10.0134
-10.3165
-10.4078
-10.2646
-9.88175
-9.27214
-8.46513
-7.5022
-6.43091
-5.29905
-4.15039
-3.02252
-1.94591
-0.94369
-0.0316965
0.780909
1.4906
2.09806
2.60666
3.02098
3.3455
3.58345
3.73606
3.8013
3.77386
3.64323
3.39282
3.00047
2.43642
1.66891
0.684556
-0.482233
-1.72737
-2.88737
-3.76814
-4.24011
-4.22174
-3.74871
-2.94812
-1.97326
-0.948188
0.0497101
0.977073
1.81153
2.54439
3.17497
3.70687
4.14604
4.49958
4.77523
4.98028
5.12092
5.20126
5.22271
5.18264
5.07341
4.87969
4.57858
4.13428
3.50336
2.6207
1.49959
0.185667
-0.97579
-1.9682
-1.98786
-2.23734
-0.305303
-1.8715
-6.20906
-6.33259
-6.47236
-6.62981
-6.80596
-7.00085
-7.21209
-7.43378
-7.65561
-7.86252
-8.03518
-8.15185
-8.19162
-8.13846
-7.98522
-7.73633
-7.40874
-7.03086
-6.63984
-6.27739
-5.98457
-5.7967
-5.73951
-5.82677
-6.05925
-6.42486
-6.89949
-7.44863
-8.0299
-8.59608
-9.09835
-9.4899
-9.72946
-9.78484
-9.63607
-9.27775
-8.71969
-7.98562
-7.10975
-6.13218
-5.09412
-4.0343
-2.98675
-1.97974
-1.0353
-0.169132
0.608933
1.29413
1.88562
2.38513
2.79575
3.12068
3.36227
3.52121
3.59551
3.58039
3.46687
3.24106
2.88497
2.37564
1.69031
0.822309
-0.196999
-1.28359
-2.3068
-3.11002
-3.5845
-3.65622
-3.33841
-2.71861
-1.91136
-1.01645
-0.103938
0.779489
1.60336
2.3494
3.00761
3.57378
4.04796
4.43362
4.73665
4.96397
5.12224
5.21655
5.24949
5.21982
5.12158
4.94164
4.65998
4.24469
3.65889
2.84532
1.81653
0.595708
-0.512034
-1.5233
-1.64219
-2.02365
-0.23806
-1.84473
-6.20325
-6.32197
-6.454
-6.60005
-6.7603
-6.93402
-7.11839
-7.3078
-7.49334
-7.66265
-7.80042
-7.88995
-7.9155
-7.86536
-7.73468
-7.52765
-7.25816
-6.94914
-6.63046
-6.33564
-6.09795
-5.94634
-5.90226
-5.97746
-6.17299
-6.47901
-6.87546
-7.33334
-7.81678
-8.28556
-8.69795
-9.01377
-9.1975
-9.22123
-9.06736
-8.73041
-8.21771
-7.54828
-6.7503
-5.85748
-4.90524
-3.92763
-2.95527
-2.01418
-1.12515
-0.303569
0.440329
1.10082
1.67576
2.16549
2.57177
2.89668
3.14173
3.30717
3.39105
3.38906
3.29372
3.09353
2.77409
2.31807
1.70959
0.946243
0.0556391
-0.894297
-1.799
-2.53436
-3.00872
-3.15713
-2.97656
-2.52159
-1.87219
-1.10389
-0.276647
0.562487
1.37665
2.13845
2.82822
3.43308
3.94647
4.36773
4.7007
4.95203
5.12907
5.23803
5.28289
5.26393
5.17697
5.01107
4.74905
4.3626
3.82024
3.0706
2.12441
0.984495
-0.0793436
-1.11377
-1.32947
-1.83811
-0.18338
-1.83396
-6.19166
-6.30479
-6.42854
-6.56311
-6.70812
-6.86233
-7.02282
-7.18446
-7.33963
-7.47827
-7.58833
-7.65702
-7.67258
-7.62652
-7.51575
-7.34414
-7.12315
-6.87125
-6.61238
-6.37346
-6.1813
-6.05949
-6.02572
-6.08987
-6.25303
-6.50717
-6.83561
-7.21406
-7.61224
-7.99605
-8.32997
-8.57966
-8.71462
-8.71071
-8.55242
-8.23434
-7.76174
-7.14983
-6.42171
-5.60565
-4.73195
-3.83039
-2.92837
-2.04964
-1.21366
-0.43532
0.274936
0.910667
1.46868
1.94813
2.34961
2.6742
2.92268
3.09488
3.18893
3.20095
3.12482
2.95113
2.6686
2.2644
1.72794
1.05966
0.283365
-0.546709
-1.34825
-2.02474
-2.49941
-2.71537
-2.65837
-2.3561
-1.8577
-1.21429
-0.473064
0.321268
1.12704
1.90809
2.63447
3.28358
3.84135
4.30229
4.66816
4.94545
5.1424
5.26662
5.32371
5.31562
5.24008
5.08833
4.84597
4.48802
3.98748
3.29738
2.42538
1.35587
0.326602
-0.736346
-1.04913
-1.68258
-0.144277
-1.84154
-6.17416
-6.28117
-6.3964
-6.5197
-6.65033
-6.7868
-6.92625
-7.0641
-7.19394
-7.30763
-7.39576
-7.44854
-7.45726
-7.41585
-7.32249
-7.18073
-7
-6.7952
-6.58548
-6.39239
-6.23747
-6.1398
-6.1138
-6.16769
-6.30243
-6.51144
-6.78086
-7.09039
-7.41458
-7.72463
-7.99041
-8.18268
-8.27535
-8.24759
-8.08574
-7.78456
-7.3477
-6.7872
-6.12195
-5.37553
-4.57379
-3.74263
-2.90637
-2.08656
-1.30127
-0.564769
0.112513
0.723621
1.26452
1.73339
2.12978
2.45393
2.70594
2.88529
2.99014
3.0171
2.96115
2.81478
2.56929
2.21544
1.7465
1.1647
0.490085
-0.234884
-0.946454
-1.57111
-2.04612
-2.32277
-2.37921
-2.22132
-1.87026
-1.35223
-0.698972
0.049776
0.849008
1.65397
2.42347
3.12383
3.7323
4.2378
4.63999
4.94536
5.16335
5.30333
5.37276
5.37552
5.31131
5.17363
4.95078
4.62088
4.16061
3.52623
2.72123
1.713
0.709377
-0.388438
-0.801486
-1.55999
-0.125225
-1.87067
-6.15292
-6.25349
-6.36016
-6.47256
-6.58978
-6.7102
-6.83115
-6.94862
-7.0573
-7.15064
-7.22131
-7.26189
-7.26597
-7.22929
-7.1509
-7.03405
-6.8865
-6.72025
-6.55061
-6.39475
-6.26991
-6.19139
-6.1709
-6.2151
-6.32479
-6.49453
-6.71283
-6.96274
-7.22294
-7.46921
-7.6761
-7.81881
-7.87508
-7.827
-7.66257
-7.37677
-6.97198
-6.45765
-5.84915
-5.16608
-4.43035
-3.66437
-2.8896
-2.12544
-1.38853
-0.69238