/*--------------------------------*- C++ -*----------------------------------*\
  =========                 |
  \\      /  F ield         | OpenFOAM: The Open Source CFD Toolbox
   \\    /   O peration     | Website:  https://openfoam.org
    \\  /    A nd           | Version:  10
     \\/     M anipulation  |
\*---------------------------------------------------------------------------*/
FoamFile
{
    format      ascii;
    class       surfaceScalarField;
    location    "0.165";
    object      phi;
}
// * * * * * * * * * * * * * * * * * * * * * * * * * * * * * * * * * * * * * //

dimensions      [0 3 -1 0 0 0 0];

internalField   nonuniform List<scalar> 
13452
(
4.01917e-05
2.00768e-05
2.59329e-05
1.42588e-05
1.85281e-05
7.40483e-06
1.51543e-05
3.37373e-06
1.37384e-05
1.41595e-06
1.30287e-05
7.09676e-07
1.25729e-05
4.55779e-07
1.22191e-05
3.53847e-07
1.19174e-05
3.01667e-07
1.16559e-05
2.61578e-07
1.143e-05
2.25813e-07
1.1236e-05
1.94059e-07
1.10694e-05
1.66614e-07
1.09259e-05
1.43443e-07
1.08018e-05
1.24127e-07
1.06937e-05
1.08107e-07
1.05988e-05
9.4848e-08
1.05149e-05
8.39036e-08
1.044e-05
7.49269e-08
1.03723e-05
6.76621e-08
1.03104e-05
6.193e-08
1.02528e-05
5.76151e-08
1.01982e-05
5.46483e-08
1.01451e-05
5.30114e-08
1.00925e-05
5.2677e-08
1.00387e-05
5.37538e-08
9.98275e-06
5.59614e-08
9.9226e-06
6.01509e-08
9.8591e-06
6.34982e-08
9.78566e-06
7.34466e-08
9.71947e-06
6.61898e-08
9.61049e-06
1.08973e-07
-6.60712e-08
9.67657e-06
6.59025e-05
1.61646e-05
6.18959e-05
1.82654e-05
5.56349e-05
1.36658e-05
4.97671e-05
9.24157e-06
4.52726e-05
5.91048e-06
4.20617e-05
3.92051e-06
3.97576e-05
2.75988e-06
3.8061e-05
2.05042e-06
3.67664e-05
1.59631e-06
3.57425e-05
1.2855e-06
3.49087e-05
1.05955e-06
3.42145e-05
8.88306e-07
3.36265e-05
7.54597e-07
3.3122e-05
6.47911e-07
3.26848e-05
5.61341e-07
3.23028e-05
4.9014e-07
3.19667e-05
4.30959e-07
3.16692e-05
3.814e-07
3.14044e-05
3.3974e-07
3.11673e-05
3.04732e-07
3.09538e-05
2.75479e-07
3.076e-05
2.51349e-07
3.05828e-05
2.319e-07
3.04189e-05
2.16853e-07
3.02656e-05
2.06019e-07
3.012e-05
1.99369e-07
2.99793e-05
1.96625e-07
2.98412e-05
1.98309e-07
2.97027e-05
2.01972e-07
2.9564e-05
2.12084e-07
2.94215e-05
2.08691e-07
2.93124e-05
2.1813e-07
1.41864e-07
2.91044e-05
6.91811e-05
1.07449e-05
7.25067e-05
1.49398e-05
7.30589e-05
1.31137e-05
7.1683e-05
1.06175e-05
6.94363e-05
8.15712e-06
6.70558e-05
6.30107e-06
6.48246e-05
4.99101e-06
6.28337e-05
4.04134e-06
6.10935e-05
3.33653e-06
5.95819e-05
2.79714e-06
5.82695e-05
2.3719e-06
5.71282e-05
2.02963e-06
5.61327e-05
1.7501e-06
5.52614e-05
1.51921e-06
5.4496e-05
1.32671e-06
5.38212e-05
1.16497e-06
5.32239e-05
1.02822e-06
5.26933e-05
9.12036e-07
5.222e-05
8.13054e-07
5.1796e-05
7.28672e-07
5.14146e-05
6.56902e-07
5.10697e-05
5.96238e-07
5.07561e-05
5.45551e-07
5.04689e-05
5.04024e-07
5.02039e-05
4.71068e-07
4.99569e-05
4.46331e-07
4.97241e-05
4.29414e-07
4.9502e-05
4.20427e-07
4.92861e-05
4.17875e-07
4.90745e-05
4.23662e-07
4.88548e-05
4.28419e-07
4.86296e-05
4.43271e-07
4.43658e-07
4.83278e-05
6.88454e-05
7.48253e-06
7.21597e-05
1.16255e-05
7.45334e-05
1.074e-05
7.59415e-05
9.20926e-06
7.65168e-05
7.58191e-06
7.65758e-05
6.24198e-06
7.63267e-05
5.24012e-06
7.58951e-05
4.47302e-06
7.53615e-05
3.87011e-06
7.47748e-05
3.38381e-06
7.41657e-05
2.98103e-06
7.35542e-05
2.64108e-06
7.29543e-05
2.35e-06
7.23753e-05
2.09819e-06
7.18228e-05
1.87924e-06
7.12997e-05
1.68806e-06
7.08073e-05
1.5206e-06
7.03457e-05
1.37365e-06
6.99141e-05
1.24464e-06
6.95113e-05
1.13152e-06
6.91355e-05
1.03268e-06
6.87849e-05
9.46876e-07
6.84573e-05
8.73155e-07
6.81505e-05
8.10829e-07
6.78621e-05
7.59418e-07
6.75898e-05
7.18658e-07
6.73309e-05
6.88331e-07
6.70827e-05
6.68567e-07
6.68418e-05
6.58849e-07
6.66051e-05
6.60318e-07
6.6363e-05
6.7057e-07
6.61112e-05
6.95051e-07
7.38394e-07
6.58164e-05
6.95584e-05
5.38091e-06
7.18341e-05
9.34981e-06
7.35345e-05
9.03963e-06
7.48034e-05
7.94032e-06
7.5694e-05
6.69132e-06
7.63435e-05
5.59256e-06
7.68376e-05
4.74598e-06
7.7218e-05
4.09261e-06
7.75126e-05
3.57555e-06
7.77396e-05
3.15679e-06
7.79117e-05
2.80887e-06
7.8039e-05
2.51383e-06
7.81284e-05
2.26056e-06
7.81856e-05
2.04105e-06
7.82159e-05
1.84888e-06
7.82245e-05
1.6795e-06
7.82155e-05
1.5296e-06
7.81925e-05
1.39663e-06
7.81585e-05
1.27864e-06
7.81159e-05
1.17411e-06
7.80667e-05
1.08193e-06
7.80123e-05
1.00124e-06
7.7954e-05
9.31455e-07
7.78926e-05
8.72214e-07
7.78287e-05
8.23329e-07
7.77626e-05
7.84808e-07
7.76941e-05
7.56763e-07
7.76231e-05
7.3959e-07
7.75483e-05
7.33608e-07
7.74686e-05
7.40106e-07
7.73789e-05
7.60184e-07
7.72754e-05
7.98562e-07
8.6428e-07
7.71495e-05
7.08398e-05
3.9251e-06
7.26262e-05
7.56344e-06
7.39321e-05
7.73372e-06
7.48617e-05
7.01078e-06
7.54914e-05
6.06162e-06
7.59406e-05
5.14337e-06
7.62963e-05
4.39028e-06
7.65988e-05
3.7901e-06
7.68683e-05
3.30598e-06
7.71147e-05
2.91041e-06
7.7342e-05
2.58155e-06
7.75525e-05
2.30338e-06
7.77481e-05
2.06497e-06
7.79304e-05
1.85869e-06
7.81004e-05
1.67887e-06
7.82588e-05
1.52118e-06
7.84061e-05
1.3823e-06
7.8543e-05
1.2597e-06
7.86702e-05
1.15141e-06
7.87884e-05
1.05593e-06
7.88982e-05
9.72137e-07
7.90002e-05
8.99198e-07
7.90952e-05
8.36541e-07
7.91836e-05
7.83815e-07
7.9266e-05
7.40863e-07
7.93431e-05
7.07722e-07
7.94153e-05
6.84586e-07
7.94829e-05
6.71921e-07
7.95462e-05
6.70358e-07
7.96051e-05
6.81248e-07
7.96588e-05
7.06434e-07
7.97074e-05
7.49967e-07
8.16948e-07
7.97547e-05
7.23885e-05
2.90293e-06
7.38401e-05
6.11182e-06
7.49673e-05
6.60651e-06
7.57852e-05
6.19289e-06
7.63433e-05
5.50354e-06
7.67254e-05
4.7613e-06
7.70078e-05
4.10786e-06
7.72327e-05
3.5652e-06
7.74235e-05
3.11519e-06
7.75935e-05
2.74039e-06
7.77498e-05
2.42527e-06
7.7896e-05
2.15711e-06
7.80344e-05
1.92659e-06
7.81662e-05
1.72689e-06
7.82923e-05
1.55281e-06
7.84131e-05
1.40035e-06
7.8529e-05
1.26638e-06
7.86403e-05
1.14845e-06
7.8747e-05
1.04465e-06
7.88494e-05
9.53505e-07
7.89477e-05
8.73871e-07
7.9042e-05
8.04904e-07
7.91325e-05
7.46006e-07
7.92196e-05
6.96795e-07
7.93033e-05
6.57081e-07
7.93842e-05
6.26868e-07
7.94624e-05
6.06336e-07
7.95384e-05
5.95924e-07
7.96125e-05
5.96304e-07
7.9685e-05
6.08703e-07
7.97567e-05
6.34808e-07
7.98289e-05
6.77782e-07
7.40048e-07
7.99058e-05
7.4125e-05
2.18325e-06
7.52916e-05
4.94512e-06
7.62725e-05
5.62569e-06
7.70238e-05
5.44158e-06
7.75686e-05
4.95873e-06
7.79563e-05
4.37357e-06
7.82447e-05
3.81951e-06
7.84711e-05
3.33881e-06
7.8658e-05
2.92828e-06
7.88195e-05
2.57892e-06
7.89638e-05
2.28097e-06
7.90957e-05
2.02512e-06
7.92185e-05
1.80387e-06
7.93339e-05
1.61148e-06
7.94433e-05
1.44342e-06
7.95475e-05
1.29607e-06
7.96474e-05
1.16656e-06
7.97432e-05
1.05263e-06
7.98354e-05
9.52462e-07
7.99242e-05
8.64642e-07
8.001e-05
7.88071e-07
8.0093e-05
7.21919e-07
8.01734e-05
6.65589e-07
8.02516e-05
6.18685e-07
8.03276e-05
5.80998e-07
8.0402e-05
5.525e-07
8.0475e-05
5.33339e-07
8.0547e-05
5.23889e-07
8.06186e-05
5.24753e-07
8.06904e-05
5.36929e-07
8.07634e-05
5.6172e-07
8.08399e-05
6.01322e-07
6.56661e-07
8.09233e-05
7.60164e-05
1.66932e-06
7.69521e-05
4.00943e-06
7.77998e-05
4.77796e-06
7.848e-05
4.76138e-06
7.89992e-05
4.43954e-06
7.9386e-05
3.98683e-06
7.96824e-05
3.52309e-06
7.99198e-05
3.10144e-06
8.01176e-05
2.73038e-06
8.02888e-05
2.40776e-06
8.04413e-05
2.12853e-06
8.058e-05
1.88641e-06
8.07082e-05
1.67568e-06
8.0828e-05
1.49163e-06
8.0941e-05
1.33038e-06
8.10483e-05
1.18877e-06
8.11507e-05
1.06421e-06
8.12487e-05
9.54602e-07
8.13429e-05
8.58271e-07
8.14337e-05
7.73877e-07
8.15214e-05
7.00363e-07
8.16064e-05
6.36922e-07
8.1689e-05
5.82955e-07
8.17696e-05
5.38054e-07
8.18487e-05
5.01977e-07
8.19265e-05
4.74651e-07
8.20037e-05
4.56159e-07
8.20808e-05
4.46766e-07
8.21586e-05
4.4692e-07
8.22383e-05
4.57319e-07
8.23212e-05
4.78806e-07
8.24098e-05
5.12704e-07
5.59003e-07
8.25075e-05
7.80326e-05
1.29625e-06
7.8783e-05
3.25912e-06
7.95134e-05
4.04755e-06
8.01268e-05
4.14793e-06
8.0617e-05
3.9494e-06
8.09976e-05
3.60621e-06
8.12975e-05
3.22317e-06
8.15418e-05
2.85716e-06
8.17473e-05
2.52481e-06
8.19258e-05
2.22929e-06
8.20849e-05
1.9694e-06
8.22297e-05
1.74161e-06
8.23635e-05
1.54187e-06
8.24886e-05
1.36653e-06
8.26066e-05
1.21241e-06
8.27186e-05
1.07676e-06
8.28255e-05
9.57311e-07
8.2928e-05
8.52151e-07
8.30265e-05
7.59724e-07
8.31216e-05
6.78762e-07
8.32138e-05
6.08251e-07
8.33033e-05
5.47397e-07
8.33906e-05
4.95595e-07
8.34763e-05
4.52411e-07
8.35607e-05
4.1756e-07
8.36445e-05
3.909e-07
8.37282e-05
3.72419e-07
8.38127e-05
3.6224e-07
8.3899e-05
3.60604e-07
8.39885e-05
3.67887e-07
8.40828e-05
3.84473e-07
8.41845e-05
4.10963e-07
4.46705e-07
8.42968e-05
8.01543e-05
1.0203e-06
8.07577e-05
2.65572e-06
8.13864e-05
3.41878e-06
8.19389e-05
3.59545e-06
8.23988e-05
3.48956e-06
8.27695e-05
3.23544e-06
8.30697e-05
2.92305e-06
8.33186e-05
2.60824e-06
8.35306e-05
2.3128e-06
8.37159e-05
2.04397e-06
8.38817e-05
1.80362e-06
8.40328e-05
1.59052e-06
8.41725e-05
1.40218e-06
8.43031e-05
1.23593e-06
8.44262e-05
1.08925e-06
8.45432e-05
9.59845e-07
8.46548e-05
8.45704e-07
8.47618e-05
7.45123e-07
8.48648e-05
6.56666e-07
8.49645e-05
5.79141e-07
8.50611e-05
5.11573e-07
8.51554e-05
4.5318e-07
8.52476e-05
4.03346e-07
8.53384e-05
3.61604e-07
8.54284e-05
3.27614e-07
8.55181e-05
3.01154e-07
8.56084e-05
2.82099e-07
8.57003e-05
2.70411e-07
8.57947e-05
2.66113e-07
8.58934e-05
2.6927e-07
8.5998e-05
2.79863e-07
8.6111e-05
2.97923e-07
3.22378e-07
8.62353e-05
8.23688e-05
8.11935e-07
8.28564e-05
2.16813e-06
8.33972e-05
2.87801e-06
8.38938e-05
3.09886e-06
8.43231e-05
3.06017e-06
8.46821e-05
2.87651e-06
8.49808e-05
2.62429e-06
8.52335e-05
2.35555e-06
8.54516e-05
2.09468e-06
8.56438e-05
1.85177e-06
8.58165e-05
1.63092e-06
8.59743e-05
1.43279e-06
8.61202e-05
1.2562e-06
8.62568e-05
1.09941e-06
8.63855e-05
9.6049e-07
8.65078e-05
8.37578e-07
8.66245e-05
7.28955e-07
8.67366e-05
6.33103e-07
8.68445e-05
5.48709e-07
8.6949e-05
4.74655e-07
8.70506e-05
4.10005e-07
8.71498e-05
3.53986e-07
8.72471e-05
3.05967e-07
8.73433e-05
2.65442e-07
8.74389e-05
2.32014e-07
8.75347e-05
2.05369e-07
8.76315e-05
1.85267e-07
8.77304e-05
1.7151e-07
8.78326e-05
1.63913e-07
8.79396e-05
1.62269e-07
8.80533e-05
1.66232e-07
8.81758e-05
1.75414e-07
1.88501e-07
8.83096e-05
8.46685e-05
6.51218e-07
8.50652e-05
1.7714e-06
8.55307e-05
2.41257e-06
8.59767e-05
2.65277e-06
8.63765e-05
2.66041e-06
8.6722e-05
2.53103e-06
8.70174e-05
2.32891e-06
8.72722e-05
2.10077e-06
8.74952e-05
1.87163e-06
8.76937e-05
1.6533e-06
8.78731e-05
1.45149e-06
8.80376e-05
1.26826e-06
8.81903e-05
1.10358e-06
8.83332e-05
9.5647e-07
8.84681e-05
8.25572e-07
8.85963e-05
7.09406e-07
8.87187e-05
6.06522e-07
8.88362e-05
5.1558e-07
8.89496e-05
4.35383e-07
8.90593e-05
3.64884e-07
8.91662e-05
3.03181e-07
8.92706e-05
2.49508e-07
8.93734e-05
2.03217e-07
8.94751e-05
1.63763e-07
8.95764e-05
1.30687e-07
8.96782e-05
1.03591e-07
8.97813e-05
8.21192e-08
8.98869e-05
6.59308e-08
8.99962e-05
5.46581e-08
9.01106e-05
4.78763e-08
9.02318e-05
4.4997e-08
9.03619e-05
4.53431e-08
4.7497e-08
9.05029e-05
8.70488e-05
5.24582e-07
8.73744e-05
1.44577e-06
8.77759e-05
2.01105e-06
8.81767e-05
2.25199e-06
8.85481e-05
2.289e-06
8.88792e-05
2.19991e-06
8.91698e-05
2.03833e-06
8.94255e-05
1.84508e-06
8.96527e-05
1.64442e-06
8.9857e-05
1.44897e-06
9.00431e-05
1.26543e-06
9.02145e-05
1.09687e-06
9.03739e-05
9.44131e-07
9.05235e-05
8.06881e-07
9.06649e-05
6.84237e-07
9.07992e-05
5.75062e-07
9.09276e-05
4.78146e-07
9.10508e-05
3.92312e-07
9.11698e-05
3.16473e-07
9.1285e-05
2.49645e-07
9.13972e-05
1.9096e-07
9.15071e-05
1.39656e-07
9.16152e-05
9.50686e-08
9.17224e-05
5.66161e-08
9.18293e-05
2.37799e-08
9.19368e-05
-3.91485e-09
9.20458e-05
-2.69233e-08
9.21575e-05
-4.57079e-08
9.22729e-05
-6.07786e-08
9.23935e-05
-7.27218e-08
9.25208e-05
-8.22867e-08
9.26564e-05
-9.03288e-08
-9.82616e-08
9.28022e-05
8.95074e-05
4.227e-07
8.97775e-05
1.17569e-06
9.01253e-05
1.66327e-06
9.04859e-05
1.89135e-06
9.08309e-05
1.94405e-06
9.11474e-05
1.88335e-06
9.14322e-05
1.75354e-06
9.16877e-05
1.58957e-06
9.19182e-05
1.41398e-06
9.21277e-05
1.23945e-06
9.232e-05
1.07316e-06
9.2498e-05
9.18815e-07
9.26643e-05
7.77885e-07
9.28206e-05
6.50551e-07
9.29685e-05
5.36316e-07
9.31093e-05
4.34331e-07
9.32438e-05
3.43594e-07
9.33731e-05
2.63072e-07
9.34978e-05
1.91772e-07
9.36186e-05
1.28767e-07
9.37364e-05
7.32177e-08
9.38517e-05
2.43659e-08
9.39652e-05
-1.84683e-08
9.40777e-05
-5.59004e-08
9.419e-05
-8.8498e-08
9.43029e-05
-1.16801e-07
9.44173e-05
-1.41344e-07
9.45343e-05
-1.62683e-07
9.46549e-05
-1.81429e-07
9.47805e-05
-1.98274e-07
9.49123e-05
-2.14054e-07
9.50516e-05
-2.2971e-07
-2.46574e-07
9.52e-05
9.20435e-05
3.39069e-07
9.22702e-05
9.48966e-07
9.25732e-05
1.36024e-06
9.28987e-05
1.56585e-06
9.32195e-05
1.62331e-06
9.35218e-05
1.58101e-06
9.38003e-05
1.47508e-06
9.40549e-05
1.33498e-06
9.42879e-05
1.18095e-06
9.45022e-05
1.02518e-06
9.47004e-05
8.74911e-07
9.48851e-05
7.34158e-07
9.50582e-05
6.04792e-07
9.52213e-05
4.87359e-07
9.5376e-05
3.81652e-07
9.55233e-05
2.87049e-07
9.56642e-05
2.02713e-07
9.57995e-05
1.2773e-07
9.59301e-05
6.11856e-08
9.60567e-05
2.20222e-09
9.61799e-05
-5.00377e-08
9.63006e-05
-9.62862e-08
9.64193e-05
-1.37236e-07
9.6537e-05
-1.7353e-07
9.66542e-05
-2.05773e-07
9.6772e-05
-2.34556e-07
9.68911e-05
-2.60469e-07
9.70126e-05
-2.84132e-07
9.71374e-05
-3.06214e-07
9.72665e-05
-3.2746e-07
9.74012e-05
-3.48733e-07
9.75425e-05
-3.70988e-07
-3.95423e-07
9.76914e-05
9.46572e-05
2.69066e-07
9.485e-05
7.56079e-07
9.51162e-05
1.09413e-06
9.54113e-05
1.27068e-06
9.57103e-05
1.3243e-06
9.59993e-05
1.29202e-06
9.62714e-05
1.20301e-06
9.65247e-05
1.0817e-06
9.67599e-05
9.45783e-07
9.69785e-05
8.06549e-07
9.71824e-05
6.70948e-07
9.73736e-05
5.43048e-07
9.75534e-05
4.24904e-07
9.77235e-05
3.17284e-07
9.7885e-05
2.20178e-07
9.80389e-05
1.33121e-07
9.81862e-05
5.54017e-08
9.83278e-05
-1.38031e-08
9.84643e-05
-7.53483e-08
9.85966e-05
-1.30072e-07
9.87253e-05
-1.78772e-07
9.88512e-05
-2.22197e-07
9.8975e-05
-2.61049e-07
9.90975e-05
-2.95988e-07
9.92194e-05
-3.27647e-07
9.93415e-05
-3.56647e-07
9.94646e-05
-3.83612e-07
9.95897e-05
-4.09191e-07
9.97175e-05
-4.34079e-07
9.98491e-05
-4.59026e-07
9.99852e-05
-4.84872e-07
0.000100127
-5.1253e-07
-5.43031e-07
0.000100274
9.73492e-05
2.09336e-07
9.75158e-05
5.89535e-07
9.77518e-05
8.58134e-07
9.80212e-05
1.00127e-06
9.83012e-05
1.04432e-06
9.8578e-05
1.01515e-06
9.88441e-05
9.36981e-07
9.9096e-05
8.29785e-07
9.93331e-05
7.08677e-07
9.95559e-05
5.8374e-07
9.97655e-05
4.61394e-07
9.9963e-05
3.45523e-07
0.00010015
2.38192e-07
0.000100327
1.40252e-07
0.000100495
5.17934e-08
0.000100656
-2.75535e-08
0.00010081
-9.84224e-08
0.000100957
-1.61578e-07
0.0001011
-2.17833e-07
0.000101238
-2.68e-07
0.000101372
-3.12863e-07
0.000101503
-3.53166e-07
0.000101631
-3.89616e-07
0.000101758
-4.22882e-07
0.000101884
-4.53611e-07
0.00010201
-4.82435e-07
0.000102136
-5.09991e-07
0.000102264
-5.3693e-07
0.000102394
-5.63936e-07
0.000102527
-5.91732e-07
0.000102663
-6.21098e-07
0.000102803
-6.52868e-07
-6.87893e-07
0.000102948
0.000100121
1.57386e-07
0.000100267
4.43404e-07
0.000100479
6.46393e-07
0.000100727
7.53296e-07
0.000100991
7.80553e-07
0.000101257
7.48783e-07
0.000101518
6.76216e-07
0.000101769
5.78929e-07
0.000102008
4.6952e-07
0.000102235
3.56712e-07
0.00010245
2.46205e-07
0.000102654
1.41515e-07
0.000102848
4.45574e-08
0.000103032
-4.38547e-08
0.000103207
-1.23621e-07
0.000103375
-1.95084e-07
0.000103535
-2.58846e-07
0.000103689
-3.15645e-07
0.000103838
-3.66274e-07
0.000103981
-4.1153e-07
0.00010412
-4.5219e-07
0.000104256
-4.88994e-07
0.000104389
-5.22648e-07
0.00010452
-5.53824e-07
0.00010465
-5.83165e-07
0.000104779
-6.11303e-07
0.000104908
-6.38862e-07
0.000105037
-6.66474e-07
0.000105168
-6.94785e-07
0.000105301
-7.24462e-07
0.000105436
-7.562e-07
0.000105574
-7.90724e-07
-8.28701e-07
0.000105714
0.000102974
1.11309e-07
0.000103105
3.1293e-07
0.000103297
4.53804e-07
0.000103528
5.22692e-07
0.000103778
5.30088e-07
0.000104036
4.91031e-07
0.000104293
4.19595e-07
0.000104543
3.28487e-07
0.000104785
2.27937e-07
0.000105016
1.25231e-07
0.000105237
2.52084e-08
0.000105448
-6.91244e-08
0.000105648
-1.56135e-07
0.00010584
-2.35157e-07
0.000106022
-3.06166e-07
0.000106197
-3.69542e-07
0.000106364
-4.25903e-07
0.000106524
-4.7599e-07
0.000106679
-5.20598e-07
0.000106828
-5.60524e-07
0.000106972
-5.96541e-07
0.000107112
-6.29388e-07
0.000107249
-6.59766e-07
0.000107384
-6.88337e-07
0.000107516
-7.15736e-07
0.000107648
-7.42574e-07
0.000107778
-7.69447e-07
0.000107909
-7.96947e-07
0.00010804
-8.25663e-07
0.000108171
-8.56189e-07
0.000108304
-8.89118e-07
0.000108439
-9.2506e-07
-9.64513e-07
0.000108574
0.00010591
6.96003e-08
0.000106029
1.9422e-07
0.000106207
2.75901e-07
0.000106424
3.05589e-07
0.000106664
2.89925e-07
0.000106916
2.39714e-07
0.00010717
1.65607e-07
0.000107421
7.74106e-08
0.000107665
-1.68336e-08
0.000107902
-1.11296e-07
0.000108129
-2.02086e-07
0.000108347
-2.8682e-07
0.000108555
-3.64261e-07
0.000108754
-4.33986e-07
0.000108944
-4.96127e-07
0.000109126
-5.51158e-07
0.000109299
-5.99759e-07
0.000109466
-6.4271e-07
0.000109626
-6.80828e-07
0.000109781
-7.14923e-07
0.00010993
-7.45772e-07
0.000110075
-7.74113e-07
0.000110216
-8.00638e-07
0.000110353
-8.25997e-07
0.000110488
-8.508e-07
0.000110621
-8.75627e-07
0.000110753
-9.01033e-07
0.000110884
-9.27554e-07
0.000111014
-9.55711e-07
0.000111143
-9.86006e-07
0.000111273
-1.01892e-06
0.000111403
-1.05495e-06
-1.09442e-06
0.000111533
0.000108932
3.10345e-08
0.000109042
8.40136e-08
0.000109209
1.087e-07
0.000109417
9.82879e-08
0.00010965
5.69868e-08
0.000109897
-7.57563e-09
0.00011015
-8.75479e-08
0.000110403
-1.75627e-07
0.000110652
-2.65774e-07
0.000110894
-3.53603e-07
0.000111128
-4.36238e-07
0.000111354
-5.12005e-07
0.00011157
-5.80152e-07
0.000111776
-6.40589e-07
0.000111974
-6.93672e-07
0.000112163
-7.40029e-07
0.000112343
-7.80443e-07
0.000112516
-8.15764e-07
0.000112682
-8.46851e-07
0.000112842
-8.7454e-07
0.000112996
-8.99621e-07
0.000113145
-9.2283e-07
0.000113289
-9.4485e-07
0.000113429
-9.66309e-07
0.000113566
-9.87788e-07
0.0001137
-1.00983e-06
0.000113832
-1.03293e-06
0.000113962
-1.05756e-06
0.000114091
-1.08417e-06
0.000114218
-1.11316e-06
0.000114344
-1.14492e-06
0.000114469
-1.1798e-06
-1.21802e-06
0.000114592
0.000112041
-5.43408e-09
0.000112146
-2.05294e-08
0.000112306
-5.14584e-08
0.000112507
-1.02855e-07
0.000112736
-1.71993e-07
0.000112982
-2.53609e-07
0.000113236
-3.42163e-07
0.000113493
-4.32509e-07
0.000113748
-5.20448e-07
0.000113997
-6.03009e-07
0.00011424
-6.7837e-07
0.000114473
-7.45637e-07
0.000114698
-8.04626e-07
0.000114913
-8.55653e-07
0.000115118
-8.99365e-07
0.000115315
-9.36598e-07
0.000115503
-9.68279e-07
0.000115682
-9.95357e-07
0.000115854
-1.01876e-06
0.000116019
-1.03935e-06
0.000116177
-1.05796e-06
0.00011633
-1.07531e-06
0.000116477
-1.09207e-06
0.00011662
-1.10885e-06
0.000116758
-1.12619e-06
0.000116893
-1.14459e-06
0.000117024
-1.16449e-06
0.000117153
-1.18628e-06
0.000117279
-1.21033e-06
0.000117403
-1.23694e-06
0.000117525
-1.2664e-06
0.000117644
-1.29895e-06
-1.33464e-06
0.00011776
0.00011524
-4.0743e-08
0.000115341
-1.21973e-07
0.000115498
-2.08016e-07
0.000115696
-3.01432e-07
0.000115925
-4.00358e-07
0.000116172
-5.01312e-07
0.000116431
-6.00677e-07
0.000116694
-6.95216e-07
0.000116956
-7.82439e-07
0.000117213
-8.60765e-07
0.000117464
-9.29464e-07
0.000117707
-9.88481e-07
0.000117941
-1.03827e-06
0.000118165
-1.07961e-06
0.000118379
-1.11352e-06
0.000118584
-1.14106e-06
0.000118779
-1.16336e-06
0.000118965
-1.18149e-06
0.000119142
-1.19647e-06
0.000119312
-1.2092e-06
0.000119475
-1.22054e-06
0.000119631
-1.23123e-06
0.000119781
-1.24191e-06
0.000119925
-1.25318e-06
0.000120064
-1.26553e-06
0.000120199
-1.2794e-06
0.00012033
-1.29517e-06
0.000120457
-1.31317e-06
0.00012058
-1.33367e-06
0.0001207
-1.3569e-06
0.000120817
-1.38303e-06
0.00012093
-1.41222e-06
-1.44442e-06
0.00012104
0.000118531
-7.57742e-08
0.000118632
-2.22802e-07
0.000118788
-3.64461e-07
0.000118988
-5.01322e-07
0.00011922
-6.31993e-07
0.000119473
-7.54367e-07
0.000119739
-8.66464e-07
0.00012001
-9.66774e-07
0.000120282
-1.05442e-06
0.000120551
-1.12921e-06
0.000120813
-1.19154e-06
0.000121066
-1.24225e-06
0.000121311
-1.28251e-06
0.000121545
-1.31364e-06
0.000121768
-1.33705e-06
0.000121981
-1.35412e-06
0.000122184
-1.36619e-06
0.000122377
-1.37449e-06
0.000122561
-1.38012e-06
0.000122736
-1.38409e-06
0.000122902
-1.38724e-06
0.000123061
-1.39034e-06
0.000123214
-1.39404e-06
0.000123359
-1.39886e-06
0.000123499
-1.40529e-06
0.000123633
-1.41369e-06
0.000123763
-1.42439e-06
0.000123887
-1.43763e-06
0.000124007
-1.4536e-06
0.000124122
-1.47245e-06
0.000124234
-1.49424e-06
0.00012434
-1.51904e-06
-1.54668e-06
0.000124443
0.000121917
-1.11399e-07
0.00012202
-3.25462e-07
0.000122179
-5.24246e-07
0.000122384
-7.06367e-07
0.000122623
-8.70689e-07
0.000122885
-1.01625e-06
0.000123161
-1.14257e-06
0.000123444
-1.24976e-06
0.000123728
-1.33854e-06
0.000124009
-1.41011e-06
0.000124284
-1.46604e-06
0.000124549
-1.50813e-06
0.000124805
-1.53832e-06
0.00012505
-1.55851e-06
0.000125284
-1.57058e-06
0.000125506
-1.57625e-06
0.000125717
-1.57711e-06
0.000125917
-1.57456e-06
0.000126107
-1.56984e-06
0.000126286
-1.56401e-06
0.000126457
-1.55797e-06
0.000126619
-1.55249e-06
0.000126773
-1.5482e-06
0.00012692
-1.54562e-06
0.00012706
-1.54515e-06
0.000127194
-1.54713e-06
0.000127321
-1.5518e-06
0.000127443
-1.55934e-06
0.000127559
-1.56986e-06
0.00012767
-1.58342e-06
0.000127776
-1.60003e-06
0.000127876
-1.61965e-06
-1.64208e-06
0.000127972
0.000125401
-1.48628e-07
0.000125508
-4.32804e-07
0.000125675
-6.91597e-07
0.000125891
-9.21619e-07
0.000126142
-1.12188e-06
0.000126418
-1.29245e-06
0.00012671
-1.43425e-06
0.000127009
-1.54903e-06
0.00012731
-1.63913e-06
0.000127607
-1.70722e-06
0.000127897
-1.75614e-06
0.000128177
-1.78873e-06
0.000128447
-1.80776e-06
0.000128704
-1.81583e-06
0.000128949
-1.8153e-06
0.000129181
-1.80828e-06
0.0001294
-1.79664e-06
0.000129608
-1.78199e-06
0.000129804
-1.76567e-06
0.000129989
-1.74885e-06
0.000130163
-1.73247e-06
0.000130328
-1.7173e-06
0.000130484
-1.70394e-06
0.000130631
-1.6929e-06
0.00013077
-1.68452e-06
0.000130902
-1.67908e-06
0.000131027
-1.67677e-06
0.000131145
-1.67767e-06
0.000131257
-1.68183e-06
0.000131363
-1.68922e-06
0.000131463
-1.69976e-06
0.000131557
-1.71334e-06
-1.72966e-06
0.000131644
0.000128985
-1.88423e-07
0.0001291
-5.47587e-07
0.000129278
-8.70381e-07
0.000129508
-1.15135e-06
0.000129776
-1.38978e-06
0.00013007
-1.58686e-06
0.000130381
-1.74501e-06
0.0001307
-1.8677e-06
0.00013102
-1.95898e-06
0.000131336
-2.02305e-06
0.000131644
-2.06409e-06
0.000131941
-2.08607e-06
0.000132226
-2.09266e-06
0.000132497
-2.08719e-06
0.000132754
-2.07258e-06
0.000132998
-2.05137e-06
0.000133227
-2.02574e-06
0.000133442
-1.99751e-06
0.000133645
-1.9682e-06
0.000133835
-1.93903e-06
0.000134013
-1.911e-06
0.000134181
-1.88489e-06
0.000134338
-1.8613e-06
0.000134486
-1.84067e-06
0.000134625
-1.82332e-06
0.000134755
-1.80945e-06
0.000134878
-1.79919e-06
0.000134993
-1.79255e-06
0.0001351
-1.78951e-06
0.000135201
-1.78997e-06
0.000135295
-1.79379e-06
0.000135382
-1.8008e-06
-1.81066e-06
0.000135463
0.000132673
-2.32485e-07
0.0001328
-6.74462e-07
0.000132997
-1.06761e-06
0.00013325
-1.4041e-06
0.000133544
-1.68364e-06
0.000133866
-1.90871e-06
0.000134204
-2.08346e-06
0.00013455
-2.21339e-06
0.000134895
-2.30451e-06
0.000135235
-2.36281e-06
0.000135565
-2.39397e-06
0.000135882
-2.40321e-06
0.000136185
-2.39522e-06
0.000136472
-2.37409e-06
0.000136742
-2.34336e-06
0.000136997
-2.30601e-06
0.000137236
-2.26455e-06
0.000137459
-2.22102e-06
0.000137668
-2.17708e-06
0.000137863
-2.13405e-06
0.000138045
-2.09296e-06
0.000138215
-2.05459e-06
0.000138373
-2.01951e-06
0.000138521
-1.98814e-06
0.000138658
-1.96073e-06
0.000138786
-1.93742e-06
0.000138905
-1.91825e-06
0.000139016
-1.90318e-06
0.000139118
-1.89211e-06
0.000139213
-1.88485e-06
0.000139301
-1.88118e-06
0.000139381
-1.88086e-06
-1.88347e-06
0.000139453
0.000136467
-2.81647e-07
0.000136609
-8.16299e-07
0.000136829
-1.28698e-06
0.000137108
-1.68371e-06
0.000137432
-2.00732e-06
0.000137785
-2.26201e-06
0.000138156
-2.45388e-06
0.000138533
-2.59064e-06
0.000138909
-2.68047e-06
0.000139277
-2.73129e-06
0.000139634
-2.75044e-06
0.000139975
-2.74455e-06
0.000140299
-2.71944e-06
0.000140605
-2.6801e-06
0.000140893
-2.63072e-06
0.000141162
-2.57481e-06
0.000141412
-2.51522e-06
0.000141645
-2.45423e-06
0.000141862
-2.39368e-06
0.000142063
-2.33495e-06
0.000142249
-2.27911e-06
0.000142421
-2.22693e-06
0.000142581
-2.17897e-06
0.000142728
-2.13557e-06
0.000142864
-2.09692e-06
0.00014299
-2.06311e-06
0.000143106
-2.03408e-06
0.000143213
-2.00974e-06
0.00014331
-1.98989e-06
0.0001434
-1.9743e-06
0.000143481
-1.96268e-06
0.000143555
-1.95477e-06
-1.95009e-06
0.000143622
0.000140375
-3.40579e-07
0.000140543
-9.84358e-07
0.0001408
-1.54447e-06
0.000141125
-2.00819e-06
0.000141496
-2.37854e-06
0.000141896
-2.66246e-06
0.000142312
-2.86907e-06
0.00014273
-3.00923e-06
0.000143144
-3.09388e-06
0.000143546
-3.13322e-06
0.000143932
-3.13647e-06
0.000144299
-3.11175e-06
0.000144645
-3.06606e-06
0.000144971
-3.00528e-06
0.000145274
-2.93431e-06
0.000145556
-2.85711e-06
0.000145818
-2.7769e-06
0.00014606
-2.6962e-06
0.000146283
-2.61696e-06
0.000146489
-2.54064e-06
0.000146678
-2.46834e-06
0.000146852
-2.4008e-06
0.000147012
-2.33853e-06
0.000147158
-2.28182e-06
0.000147292
-2.23077e-06
0.000147414
-2.18539e-06
0.000147526
-2.14556e-06
0.000147627
-2.11108e-06
0.000147719
-2.08169e-06
0.000147802
-2.05707e-06
0.000147876
-2.03685e-06
0.000147942
-2.02066e-06
-2.00795e-06
0.000147999
0.000144391
-4.07091e-07
0.000144584
-1.17748e-06
0.000144879
-1.83886e-06
0.000145248
-2.37772e-06
0.00014567
-2.8005e-06
0.000146124
-3.11676e-06
0.000146594
-3.33865e-06
0.000147065
-3.48064e-06
0.000147529
-3.557e-06
0.000147976
-3.58073e-06
0.000148403
-3.56336e-06
0.000148806
-3.51491e-06
0.000149184
-3.4438e-06
0.000149536
-3.35698e-06
0.000149861
-3.26013e-06
0.000150162
-3.15776e-06
0.000150439
-3.05343e-06
0.000150692
-2.9499e-06
0.000150924
-2.84922e-06
0.000151137
-2.7529e-06
0.00015133
-2.66201e-06
0.000151507
-2.57726e-06
0.000151667
-2.49905e-06
0.000151813
-2.42758e-06
0.000151945
-2.36289e-06
0.000152065
-2.30485e-06
0.000152172
-2.25327e-06
0.000152269
-2.20786e-06
0.000152356
-2.16828e-06
0.000152433
-2.13416e-06
0.000152501
-2.10505e-06
0.000152561
-2.08059e-06
-2.06013e-06
0.000152613
0.000148541
-5.00628e-07
0.000148796
-1.43242e-06
0.000149171
-2.21296e-06
0.000149624
-2.83079e-06
0.000150126
-3.30241e-06
0.000150653
-3.64392e-06
0.000151187
-3.87308e-06
0.000151716
-4.00929e-06
0.000152229
-4.07045e-06
0.000152721
-4.07233e-06
0.000153186
-4.02873e-06
0.000153623
-3.95142e-06
0.000154029
-3.85018e-06
0.000154405
-3.73298e-06
0.000154751
-3.60624e-06
0.000155068
-3.47501e-06
0.000155358
-3.34319e-06
0.000155622
-3.21374e-06
0.000155862
-3.08882e-06
0.000156079
-2.96998e-06
0.000156275
-2.85824e-06
0.000156452
-2.75423e-06
0.000156611
-2.65828e-06
0.000156754
-2.57046e-06
0.000156882
-2.49069e-06
0.000156996
-2.41875e-06
0.000157097
-2.35431e-06
0.000157186
-2.29699e-06
0.000157264
-2.24636e-06
0.000157332
-2.20195e-06
0.00015739
-2.16325e-06
0.000157439
-2.12976e-06
-2.10074e-06
0.00015748
0.000152785
-5.96588e-07
0.000153076
-1.72352e-06
0.000153512
-2.64851e-06
0.000154048
-3.36701e-06
0.000154648
-3.90214e-06
0.000155278
-4.27402e-06
0.000155913
-4.50793e-06
0.000156534
-4.63106e-06
0.000157131
-4.66703e-06
0.000157695
-4.63593e-06
0.000158221
-4.55491e-06
0.000158707
-4.43815e-06
0.000159154
-4.2971e-06
0.000159562
-4.14094e-06
0.000159933
-3.97682e-06
0.000160268
-3.81029e-06
0.000160571
-3.6455e-06
0.000160842
-3.48549e-06
0.000161086
-3.33245e-06
0.000161304
-3.18781e-06
0.000161498
-3.05248e-06
0.000161671
-2.92693e-06
0.000161824
-2.81131e-06
0.000161959
-2.70553e-06
0.000162077
-2.60933e-06
0.000162181
-2.52233e-06
0.000162271
-2.44409e-06
0.000162348
-2.3741e-06
0.000162413
-2.31187e-06
0.000162468
-2.25686e-06
0.000162514
-2.20853e-06
0.00016255
-2.16639e-06
-2.12957e-06
0.000162579
0.000157247
-7.91728e-07
0.000157699
-2.17558e-06
0.000158293
-3.24306e-06
0.000158963
-4.03715e-06
0.000159673
-4.61212e-06
0.000160395
-4.99544e-06
0.000161107
-5.21982e-06
0.000161794
-5.31864e-06
0.000162447
-5.31968e-06
0.000163058
-5.24671e-06
0.000163623
-5.12002e-06
0.000164141
-4.95618e-06
0.000164612
-4.76845e-06
0.000165038
-4.56723e-06
0.000165422
-4.36052e-06
0.000165766
-4.15432e-06
0.000166074
-3.953e-06
0.000166348
-3.75966e-06
0.000166592
-3.57637e-06
0.000166808
-3.40442e-06
0.000167
-3.24447e-06
0.00016717
-3.09677e-06
0.00016732
-2.9612e-06
0.000167452
-2.83745e-06
0.000167568
-2.725e-06
0.000167669
-2.62329e-06
0.000167756
-2.53169e-06
0.000167832
-2.44956e-06
0.000167896
-2.37629e-06
0.000167951
-2.31128e-06
0.000167996
-2.254e-06
0.000168034
-2.20392e-06
-2.16014e-06
0.000168064
0.000161693
-9.46116e-07
0.000162217
-2.70013e-06
0.00016296
-3.98587e-06
0.000163828
-4.90496e-06
0.000164744
-5.52842e-06
0.000165653
-5.90397e-06
0.000166525
-6.09164e-06
0.000167347
-6.1409e-06
0.000168115
-6.08734e-06
0.000168827
-5.9594e-06
0.000169487
-5.77984e-06
0.000170097
-5.56622e-06
0.000170661
-5.33205e-06
0.000171181
-5.08771e-06
0.000171662
-4.84101e-06
0.000172105
-4.59772e-06
0.000172514
-4.36204e-06
0.000172891
-4.13689e-06
0.000173239
-3.92421e-06
0.00017356
-3.72513e-06
0.000173856
-3.5402e-06
0.000174128
-3.3695e-06
0.00017438
-3.21278e-06
0.000174612
-3.06953e-06
0.000174826
-2.93912e-06
0.000175024
-2.8208e-06
0.000175206
-2.71382e-06
0.000175374
-2.61745e-06
0.000175528
-2.53106e-06
0.000175671
-2.45407e-06
0.000175804
-2.38628e-06
0.000175927
-2.32719e-06
-2.27702e-06
0.000176044
0.00016669
-1.48287e-06
0.00016755
-3.56013e-06
0.000168497
-4.9323e-06
0.000169521
-5.92936e-06
0.000170625
-6.63207e-06
0.000171788
-7.06679e-06
0.000172991
-7.29457e-06
0.000174211
-7.36161e-06
0.000175426
-7.30195e-06
0.000176613
-7.14666e-06
0.000177756
-6.92248e-06
0.000178841
-6.65133e-06
0.00017986
-6.35096e-06
0.000180807
-6.03538e-06
0.000181682
-5.71546e-06
0.000182484
-5.39938e-06
0.000183215
-5.0931e-06
0.000183879
-4.80077e-06
0.000184479
-4.52506e-06