/*--------------------------------*- C++ -*----------------------------------*\
  =========                 |
  \\      /  F ield         | OpenFOAM: The Open Source CFD Toolbox
   \\    /   O peration     | Website:  https://openfoam.org
    \\  /    A nd           | Version:  10
     \\/     M anipulation  |
\*---------------------------------------------------------------------------*/
FoamFile
{
    format      ascii;
    class       volScalarField;
    location    "0.195";
    object      epsilon;
}
// * * * * * * * * * * * * * * * * * * * * * * * * * * * * * * * * * * * * * //

dimensions      [0 2 -3 0 0 0 0];

internalField   nonuniform List<scalar> 
6820
(
23.2969
22.5752
21.9094
21.2853
20.7018
20.1632
19.6734
19.2344
18.8457
18.5051
18.2094
17.9549
17.7377
17.5542
17.4007
17.274
17.1712
17.0894
17.0263
16.9797
16.9477
16.9285
16.9206
16.9226
16.9333
16.9517
16.9763
17.0091
17.036
17.1193
16.9647
17.9466
13.6188
5.03386
6.81833
7.83937
8.46766
8.89816
9.23164
9.52194
9.79552
10.0644
10.3336
10.605
10.8789
11.155
11.433
11.7122
11.992
12.2718
12.5511
12.8294
13.1061
13.3809
13.6535
13.9235
14.1911
14.4561
14.7192
14.9814
15.2448
15.5119
15.802
16.0801
16.6182
16.6353
3.7036
4.14719
4.56526
4.91423
5.19797
5.43126
5.62815
5.79987
5.95485
6.09921
6.23724
6.37185
6.50498
6.63784
6.77117
6.90539
7.04068
7.17711
7.3146
7.45307
7.59236
7.73234
7.87285
8.01379
8.15509
8.2968
8.43905
8.5825
8.72717
8.87719
9.02772
9.19914
9.36581
3.54009
3.61094
3.72474
3.85373
3.98118
4.09944
4.20625
4.30203
4.38828
4.46677
4.53922
4.60714
4.67177
4.7341
4.79492
4.85481
4.91422
4.97346
5.03277
5.09229
5.15214
5.21237
5.27304
5.33416
5.39577
5.45793
5.52071
5.58432
5.64892
5.71528
5.78354
5.85498
5.93173
3.52064
3.50151
3.50498
3.52611
3.55868
3.59721
3.63781
3.67805
3.71667
3.75312
3.7873
3.81937
3.84959
3.87826
3.90568
3.93214
3.95787
3.9831
4.00799
4.03268
4.05729
4.08192
4.10664
4.1315
4.15657
4.18191
4.20757
4.23366
4.26028
4.28763
4.31587
4.34514
4.37575
3.5194
3.48247
3.45303
3.43232
3.41995
3.4145
3.41422
3.41751
3.42308
3.42999
3.43759
3.44548
3.4534
3.46122
3.46888
3.47638
3.48373
3.49096
3.49813
3.50527
3.51243
3.51965
3.52696
3.53441
3.54201
3.5498
3.55783
3.56614
3.57478
3.58382
3.59333
3.60335
3.61392
3.51943
3.47974
3.44283
3.40949
3.38025
3.35523
3.3342
3.31668
3.30212
3.28998
3.27976
3.27107
3.26356
3.257
3.25119
3.24598
3.24129
3.23703
3.23314
3.2296
3.22638
3.22346
3.22082
3.21847
3.21641
3.21462
3.21313
3.21194
3.21107
3.21054
3.21037
3.21058
3.21116
3.51947
3.47943
3.44109
3.40466
3.37041
3.33851
3.30907
3.28204
3.25734
3.23478
3.21417
3.19528
3.17792
3.1619
3.14705
3.13323
3.12032
3.10822
3.09684
3.08611
3.07597
3.06637
3.05728
3.04865
3.04047
3.03271
3.02535
3.01839
3.01181
3.00562
2.9998
2.99437
2.9893
3.51948
3.47941
3.44085
3.40382
3.36835
3.33447
3.30224
3.27168
3.24278
3.21551
3.18981
3.1656
3.1428
3.1213
3.10102
3.08185
3.06371
3.04652
3.03019
3.01468
2.9999
2.98582
2.97238
2.95954
2.94727
2.93553
2.92429
2.91354
2.90324
2.8934
2.88398
2.87499
2.86639
3.51948
3.47941
3.44082
3.40368
3.36796
3.33361
3.30062
3.26897
3.23863
3.20959
3.18182
3.15528
3.12994
3.10574
3.08263
3.06057
3.03949
3.01934
3.00007
2.98163
2.96398
2.94706
2.93083
2.91527
2.90033
2.88597
2.87218
2.85893
2.84618
2.83393
2.82215
2.81083
2.79994
3.51948
3.4794
3.44081
3.40365
3.36788
3.33344
3.30027
3.26833
3.23758
3.20798
3.1795
3.1521
3.12575
3.10042
3.07606
3.05265
3.03014
3.0085
2.98769
2.96768
2.94842
2.92989
2.91205
2.89487
2.87832
2.86238
2.84701
2.8322
2.81791
2.80414
2.79085
2.77804
2.76568
3.51948
3.4794
3.4408
3.40364
3.36786
3.33339
3.30018
3.26818
3.23732
3.20757
3.17888
3.15121
3.12452
3.09878
3.07395
3.04999
3.02689
3.0046
2.98309
2.96233
2.9423
2.92296
2.90429
2.88627
2.86886
2.85204
2.83579
2.82009
2.80491
2.79025
2.77608
2.76238
2.74914
3.51948
3.4794
3.44079
3.40363
3.36784
3.33337
3.30015
3.26813
3.23724
3.20745
3.1787
3.15096
3.12417
3.0983
3.07331
3.04917
3.02585
3.00331
2.98153
2.96047
2.9401
2.92041
2.90137
2.88295
2.86513
2.84788
2.83119
2.81504
2.79941
2.78428
2.76964
2.75546
2.74173
3.51948
3.47939
3.44079
3.40362
3.36783
3.33335
3.30013
3.2681
3.23721
3.2074
3.17864
3.15087
3.12405
3.09815
3.07311
3.04892
3.02552
3.0029
2.98102
2.95985
2.93936
2.91954
2.90034
2.88176
2.86377
2.84634
2.82946
2.81311
2.79726
2.78191
2.76704
2.75262
2.73865
3.51947
3.47939
3.44079
3.40362
3.36782
3.33334
3.30011
3.26808
3.23718
3.20737
3.1786
3.15082
3.124
3.09808
3.07303
3.04881
3.0254
3.00275
2.98084
2.95963
2.9391
2.91923
2.89998
2.88134
2.86328
2.84579
2.82883
2.81239
2.79646
2.78102
2.76604
2.75153
2.73744
3.51947
3.47939
3.44078
3.40361
3.36781
3.33333
3.3001
3.26806
3.23716
3.20734
3.17857
3.15079
3.12395
3.09803
3.07298
3.04875
3.02533
3.00267
2.98075
2.95953
2.93899
2.9191
2.89984
2.88118
2.86309
2.84557
2.82859
2.81212
2.79616
2.78067
2.76566
2.7511
2.73696
3.51947
3.47939
3.44078
3.40361
3.36781
3.33332
3.30008
3.26804
3.23714
3.20732
3.17854
3.15076
3.12392
3.09799
3.07293
3.04871
3.02528
3.00262
2.98069
2.95947
2.93892
2.91902
2.89975
2.88108
2.86299
2.84546
2.82847
2.81199
2.79601
2.78051
2.76548
2.7509
2.73675
3.51947
3.47939
3.44078
3.4036
3.3678
3.33331
3.30007
3.26803
3.23712
3.2073
3.17852
3.15073
3.12389
3.09796
3.07289
3.04867
3.02523
3.00257
2.98064
2.95941
2.93886
2.91896
2.89969
2.88102
2.86292
2.84538
2.82838
2.8119
2.79591
2.78041
2.76537
2.75077
2.73661
3.51947
3.47939
3.44078
3.4036
3.3678
3.3333
3.30006
3.26801
3.2371
3.20728
3.1785
3.1507
3.12386
3.09793
3.07286
3.04863
3.02519
3.00253
2.98059
2.95936
2.93881
2.91891
2.89963
2.88095
2.86286
2.84532
2.82831
2.81182
2.79583
2.78032
2.76528
2.75067
2.7365
3.51947
3.47939
3.44077
3.4036
3.36779
3.3333
3.30005
3.268
3.23709
3.20726
3.17848
3.15068
3.12384
3.0979
3.07283
3.0486
3.02516
3.00249
2.98055
2.95932
2.93876
2.91886
2.89958
2.8809
2.8628
2.84525
2.82824
2.81175
2.79576
2.78024
2.76519
2.75058
2.7364
3.51947
3.47939
3.44077
3.40359
3.36779
3.33329
3.30005
3.26799
3.23708
3.20725
3.17846
3.15066
3.12381
3.09787
3.0728
3.04857
3.02513
3.00245
2.98051
2.95928
2.93872
2.91881
2.89953
2.88085
2.86274
2.84519
2.82818
2.81169
2.79569
2.78017
2.76511
2.75049
2.73631
3.51947
3.47938
3.44077
3.40359
3.36779
3.33329
3.30004
3.26799
3.23707
3.20724
3.17845
3.15065
3.12379
3.09785
3.07278
3.04854
3.0251
3.00242
2.98048
2.95924
2.93868
2.91877
2.89948
2.8808
2.86269
2.84514
2.82812
2.81162
2.79562
2.78009
2.76503
2.75041
2.73622
3.51947
3.47938
3.44077
3.40359
3.36778
3.33329
3.30004
3.26798
3.23706
3.20723
3.17843
3.15063
3.12378
3.09783
3.07276
3.04851
3.02507
3.00239
2.98045
2.95921
2.93864
2.91873
2.89944
2.88075
2.86264
2.84509
2.82807
2.81156
2.79555
2.78002
2.76495
2.75033
2.73613
3.51947
3.47938
3.44077
3.40359
3.36778
3.33328
3.30003
3.26797
3.23705
3.20722
3.17842
3.15062
3.12376
3.09782
3.07274
3.04849
3.02505
3.00237
2.98042
2.95918
2.93861
2.91869
2.8994
2.88071
2.8626
2.84504
2.82801
2.81151
2.79549
2.77996
2.76488
2.75025
2.73605
3.51947
3.47938
3.44077
3.40359
3.36778
3.33328
3.30003
3.26797
3.23705
3.20721
3.17841
3.15061
3.12375
3.0978
3.07272
3.04848
3.02503
3.00234
2.98039
2.95915
2.93858
2.91866
2.89937
2.88067
2.86255
2.84499
2.82796
2.81145
2.79543
2.7799
2.76482
2.75018
2.73597
3.51947
3.47938
3.44077
3.40359
3.36778
3.33328
3.30003
3.26797
3.23704
3.20721
3.17841
3.1506
3.12374
3.09779
3.07271
3.04846
3.02501
3.00232
2.98037
2.95913
2.93855
2.91863
2.89934
2.88064
2.86252
2.84495
2.82792
2.8114
2.79538
2.77984
2.76476
2.75012
2.7359
3.51947
3.47938
3.44077
3.40359
3.36778
3.33328
3.30002
3.26796
3.23704
3.2072
3.1784
3.15059
3.12373
3.09778
3.0727
3.04845
3.02499
3.00231
2.98035
2.9591
2.93853
2.91861
2.89931
2.8806
2.86248
2.84491
2.82788
2.81136
2.79533
2.77979
2.7647
2.75005
2.73583
3.51947
3.47938
3.44077
3.40359
3.36778
3.33328
3.30002
3.26796
3.23704
3.2072
3.1784
3.15059
3.12373
3.09777
3.07269
3.04844
3.02499
3.0023
2.98034
2.95909
2.93851
2.91859
2.89928
2.88058
2.86246
2.84488
2.82785
2.81132
2.79529
2.77974
2.76465
2.75
2.73578
3.51947
3.47938
3.44077
3.40359
3.36778
3.33327
3.30002
3.26796
3.23703
3.20719
3.17839
3.15058
3.12372
3.09776
3.07268
3.04843
3.02497
3.00228
2.98032
2.95907
2.93849
2.91857
2.89926
2.88056
2.86243
2.84485
2.82781
2.81129
2.79525
2.7797
2.7646
2.74995
2.73572
3.51947
3.47938
3.44077
3.40359
3.36778
3.33328
3.30003
3.26797
3.23704
3.2072
3.1784
3.15059
3.12373
3.09778
3.07269
3.04844
3.02498
3.00229
2.98033
2.95908
2.9385
2.91857
2.89926
2.88055
2.86242
2.84484
2.8278
2.81127
2.79524
2.77968
2.76458
2.74992
2.73569
3.51947
3.47939
3.44077
3.40359
3.36778
3.33328
3.30002
3.26796
3.23703
3.20719
3.17839
3.15058
3.12372
3.09776
3.07268
3.04843
3.02497
3.00228
2.98032
2.95907
2.93849
2.91856
2.89925
2.88055
2.86242
2.84484
2.8278
2.81127
2.79523
2.77967
2.76457
2.74992
2.73569
3.51947
3.47938
3.44077
3.40359
3.36779
3.3333
3.30006
3.268
3.23708
3.20725
3.17845
3.15065
3.12379
3.09783
3.07275
3.0485
3.02504
3.00235
2.9804
2.95914
2.93857
2.91864
2.89934
2.88063
2.8625
2.84493
2.8279
2.81137
2.79535
2.7798
2.76471
2.75006
2.73584
3.51948
3.4794
3.44079
3.40362
3.36782
3.33332
3.30007
3.26801
3.23709
3.20725
3.17846
3.15066
3.1238
3.09786
3.07279
3.04856
3.02512
3.00245
2.98052
2.9593
2.93875
2.91886
2.89959
2.88092
2.86284
2.84531
2.82833
2.81185
2.79588
2.78039
2.76536
2.75078
2.73662
3.51947
3.47939
3.44079
3.40365
3.36789
3.33344
3.30023
3.26822
3.23734
3.20754
3.17879
3.15103
3.12423
3.09835
3.07335
3.0492
3.02586
3.0033
2.98149
2.9604
2.94
2.92027
2.90118
2.8827
2.86482
2.8475
2.83074
2.8145
2.79876
2.78352
2.76875
2.75443
2.74055
3.51949
3.47947
3.44095
3.40384
3.3681
3.33368
3.30054
3.26862
3.23789
3.2083
3.17981
3.15238
3.12596
3.10051
3.07601
3.05241
3.02967
3.00776
2.98665
2.9663
2.94668
2.92777
2.90952
2.89192
2.87494
2.85854
2.84271
2.82742
2.81265
2.79837
2.78458
2.77123
2.75833
3.5195
3.47953
3.44117
3.40446
3.36934
3.33573
3.3036
3.27292
3.24364
3.21573
3.18914
3.16383
3.13972
3.11677
3.09492
3.07411
3.05429
3.0354
3.01738
3.00018
2.98377
2.96808
2.95307
2.93871
2.92496
2.91178
2.89913
2.887
2.87533
2.86412
2.85333
2.84294
2.83293
3.51968
3.48122
3.44561
3.41286
3.38296
3.35589
3.33153
3.3097
3.29019
3.27278
3.25727
3.24344
3.2311
3.22009
3.21024
3.20142
3.19349
3.18634
3.17988
3.17401
3.16867
3.16377
3.15926
3.15509
3.15122
3.14759
3.14419
3.14097
3.13791
3.13499
3.13218
3.12948
3.12686
3.52527
3.5137
3.51625
3.52955
3.55082
3.57804
3.60957
3.64416
3.68082
3.71882
3.75758
3.79664
3.83564
3.87431
3.91243
3.94984
3.98642
4.02208
4.05675
4.0904
4.12299
4.15451
4.18496
4.21435
4.24269
4.26999
4.29628
4.32159
4.34593
4.36934
4.39184
4.41348
4.43429
3.83318
4.36503
4.84908
5.31387
5.774
6.22487
6.66219
7.0841
7.49023
7.88097
8.25707
8.61942
8.96891
9.30636
9.63251
9.94803
10.2535
10.5494
10.8361
11.1142
11.3839
11.6455
11.8994
12.1459
12.3851
12.6174
12.843
13.0621
13.2749
13.4817
13.6827
13.878
14.0679
30.2663
32.7713
35.3126
37.865
40.4147
42.9529
45.4713
47.9624
50.4193
52.8357
55.2061
57.5259
59.7907
61.9974
64.143
66.2255
68.2433
70.1951
72.0804
73.8989
75.6507
77.3362
78.9562
80.5115
82.0032
83.4327
84.8015
86.111
87.363
88.5591
89.7011
90.7906
91.8307
84.1431
235.634
415.408
580.698
705.496
780.95
811.135
806.889
780.388
741.982
699.025
656.03
615.36
577.98
544.067
513.416
485.696
460.566
437.731
416.94
397.984
380.674
364.831
350.286
336.873
324.44
312.845
301.965
291.693
281.936
272.612
263.647
254.967
246.502
238.182
229.945
221.732
213.498
205.208
196.838
188.374
179.811
171.148
162.395
153.566
144.681
135.772
126.876
118.039
109.312
100.75
92.4123
84.3565
76.6386
69.3098
62.4151
55.9908
50.0632
44.648
39.7495
35.3614
31.4679
28.0449
25.0618
22.484
20.2743
18.395
16.8093
15.4823
14.3825
13.4814
12.7543
12.1802
11.7413
11.4229
11.2129
11.1014
11.08
11.1412
11.2781
11.4836
11.7501
12.0687
12.4291
12.8194
13.2258
13.633
14.0243
14.3824
14.6898
14.9294
15.0853
15.1436
15.092
14.9218
14.6249
14.2032
13.6343
13.0377
11.7846
19.7984
29.1387
46.2369
71.6261
104.363
142.3
182.682
222.674
259.787
291.994
317.976
337.161
349.647
356.049
357.312
354.525
348.765
340.99
331.975
322.301
312.367
302.426
292.623
283.028
273.666
264.539
255.639
246.956
238.481
230.205
222.117
214.2
206.429
198.771
191.185
183.63
176.068
168.469
160.815
153.098
145.322
137.497
129.64
121.771
113.917
106.105
98.3721
90.7575
83.3064
76.0669
69.0881
62.4181
56.1014
50.1771
44.6767
39.6231
35.029
30.897
27.2195
23.9798
21.1535
18.7103
16.6161
14.8349
13.3308
12.0691
11.0179
10.1482
9.43478
8.85597
8.39358
8.03273
7.76145
7.5704
7.45248
7.40244
7.41652
7.49206
7.62707
7.81983
8.06831
8.36974
8.72001
9.11323
9.54126
9.99351
10.4569
10.9162
11.3544
11.7534
12.095
12.3615
12.537
12.6073
12.5617
12.3911
12.0955
11.6548
11.1758
10.1095
9.53427
9.8836
10.8201
12.7484
15.9671
20.6577
26.9038
34.6984
43.9394
54.5491
66.3915
79.2094
92.6152
106.138
119.275
131.542
142.523
151.913
159.537
165.347
169.403
171.843
172.85
172.621
171.347
169.204
166.346
162.907
159.005
154.739
150.192
145.429
140.496
135.42
130.214
124.879
119.412
113.816
108.098
102.275
96.3729
90.4233
84.4599
78.5177
72.632
66.8385
61.1742
55.6775
50.3872
45.3418
40.5767
36.123
32.0054
28.2409
24.838
21.7967
19.1086
16.7579
14.7226
12.9764
11.4901
10.234
9.17848
8.2961
7.56172
6.95322
6.4515
6.0405
5.70687
5.43981
5.23072
5.07293
4.96147
4.89286
4.86488
4.87645
4.92741
5.01839
5.15056
5.32536
5.54422
5.80805
6.11678
6.46876
6.8602
7.28462
7.73256
8.19152
8.64625
9.07935
9.47219
9.80589
10.0625
10.2257
10.2825
10.222
10.0417
9.72343
9.35895
8.48424
6.01548
6.0992
6.20146
6.37419
6.67961
7.1784
7.92077
8.94476
10.2773
11.9491
13.9641
16.3399
19.1068
22.2897
25.8968
29.9121
34.2897
38.9529
43.7972
48.6966
53.5134
58.1073
62.3449
66.1081
69.3012
71.8562
73.7371
74.9402
75.4917
75.4415
74.8543
73.7997
72.3435
70.5413
68.4364
66.0616
63.443
60.6057
57.578
54.3937
51.0913
47.7129
44.3002
40.8933
37.5291
34.2415
31.0617
28.0184
25.1377
22.4423
19.9498
17.6727
15.617
13.7827
12.1641
10.7505
9.52758
8.47813
7.58374
6.82573
6.18602
5.64789
5.19628
4.81804
4.50191
4.23842
4.01972
3.83942
3.69239
3.57457
3.4829
3.41512
3.36978
3.34608
3.34392
3.36379
3.40678
3.47453
3.5692
3.69331
3.84966
4.04103
4.26982
4.53755
4.84426
5.18783
5.56335
5.96266
6.37419
6.78324
7.17263
7.52372
7.81764
8.03663
8.16519
8.19073
8.10764
7.89899
7.6401
6.95355
4.41175
4.45113
4.49009
4.53308
4.58809
4.66656
4.78153
4.94556
5.16933
5.46231
5.83174
6.27563
6.79707
7.40107
8.09339
8.87973
9.76503
10.7526
11.8431
13.0334
14.3156
15.6752
17.0907
18.5327
19.9646
21.3446
22.6288
23.7755
24.7492
25.5241
26.0854
26.4283
26.5557
26.4751
26.1958
25.7274
25.0809
24.2691
23.3088
22.2214
21.0325
19.7699
18.4621
17.1356
15.8145
14.5196
13.2688
12.077
10.9563
9.91609
8.96231
8.09794
7.32294
6.63472
6.02867
5.49877
5.03817
4.63967
4.29613
4.00071
3.74713
3.52974
3.34353
3.1842
3.04805
2.932
2.83348
2.75039
2.68108
2.62428
2.57904
2.54481
2.52131
2.50861
2.50711
2.51756
2.54109
2.57918
2.63375
2.70712
2.80195
2.92119
3.06791
3.24495
3.45455
3.69773
3.9736
4.27864
4.60616
4.94602
5.28476
5.60631
5.89299
6.12701
6.29175
6.37311
6.36267
6.2444
6.0764
5.56511
3.62673
3.64133
3.65596
3.67091
3.68692
3.70562
3.72959
3.76206
3.80655
3.86653
3.94501
4.04315
4.16183
4.30166
4.46309
4.64644
4.85193
5.07962
5.32937
5.60073
5.89277
6.20387
6.53143
6.87158
7.21901
7.56687
7.90697
8.23025
8.52748
8.79005
9.01061
9.18341
9.30433
9.37057
9.38023
9.33217
9.22605
9.06278
8.84505
8.57766
8.26749
7.92297
7.55334
7.16779
6.77486
6.38209
5.99597
5.62192
5.26437
4.92677
4.61157
4.32027
4.05347
3.81102
3.59219
3.39579
3.22034
3.06419
2.92561
2.80288
2.69436
2.59848
2.51383
2.43913
2.37327
2.31526
2.2643
2.21971
2.18097
2.14767
2.11958
2.0966
2.07876
2.06627
2.05953
2.05912
2.06586
2.0808
2.1053
2.14101
2.18993
2.25437
2.33691
2.4403
2.56718
2.71982
2.89953
3.10607
3.33695
3.58684
3.84721
4.10645
4.35036
4.56336
4.72965
4.83497
4.86917
4.81709
4.72041
4.3618
3.21225
3.21374
3.21536
3.21713
3.2191
3.2214
3.22444
3.22885
3.2355
3.24549
3.25985
3.27949
3.30513
3.33729
3.37626
3.42217
3.47497
3.53447
3.60037
3.67225
3.74955
3.83156
3.91738
4.00588
4.09563
4.18492
4.27177
4.35402
4.42945
4.49593
4.55155
4.59475
4.62427
4.63913
4.63859
4.62206
4.58912
4.53963
4.47386
4.39263
4.29735
4.18996
4.07278
3.94825
3.81884
3.68681
3.55423
3.42291
3.29444
3.17016
3.05116
2.93826
2.83203
2.7328
2.64069
2.55562
2.47741
2.40573
2.34021
2.28041
2.22589
2.17618
2.13084
2.08946
2.05164
2.01705
1.98539
1.95643
1.92997
1.90589
1.88413
1.86469
1.84766
1.8332
1.82159
1.81321
1.80857
1.80837
1.81344
1.82487
1.84396
1.87228
1.91166
1.96414
2.03193
2.11719
2.22177
2.34683
2.49226
2.65615
2.83422
3.01954
3.20245
3.3713
3.51314
3.61531
3.66758
3.65632
3.60906
3.3729
2.98382
2.97783
2.97196
2.96619
2.96053
2.95497
2.94955
2.94437
2.9396
2.93549
2.93233
2.93045
2.93018
2.93182
2.9356
2.9417
2.9502
2.96112
2.97437
2.98981
3.00722
3.02632
3.04673
3.068
3.08962
3.11096
3.13134
3.15004
3.16631
3.17943
3.18878
3.19382
3.19412
3.18935
3.17927
3.16369
3.14248
3.11558
3.08304
3.04503
3.00192
2.95422
2.90262
2.84789
2.79081
2.73219
2.67277
2.61324
2.55422
2.49625
2.43982
2.38532
2.33303
2.28318
2.23589
2.19122
2.14915
2.10961
2.07251
2.03771
2.00504
1.97433
1.94542
1.91813
1.89231
1.8678
1.84449
1.82226
1.80104
1.78078
1.76146
1.74311
1.72577
1.70958
1.69468
1.68131
1.66978
1.66049
1.65397
1.65085
1.65195
1.65826
1.67095
1.69138
1.72111
1.76177
1.81495
1.88201
1.9637
2.05982
2.1687
2.28685
2.40866
2.52657
2.63141
2.71343
2.76392
2.77156
2.75323
2.60615
2.85685
2.84624
2.83574
2.82535
2.81504
2.80481
2.79465
2.78457
2.77458
2.76474
2.7551
2.74575
2.73678
2.72831
2.72044
2.71326
2.70686
2.70129
2.69656
2.69265
2.68952
2.68708
2.68521
2.68373
2.68245
2.68113
2.6795
2.67725
2.67411
2.66976
2.66394
2.65642
2.64703
2.63561
2.62207
2.60634
2.58838
2.56818
2.54575
2.52115
2.49448
2.46592
2.4357
2.40411
2.37145
2.33805
2.30422
2.27025
2.23642
2.20297
2.17011
2.13802
2.10684
2.07666
2.04754
2.01953
1.99262
1.96677
1.94195
1.91808
1.89508
1.87289
1.85139
1.83052
1.81019
1.79032
1.77085
1.75172
1.73289
1.71434
1.69606
1.67805
1.66037
1.64306
1.62624
1.61003
1.59461
1.58021
1.56713
1.55576
1.54656
1.54013
1.53717
1.53857
1.54529
1.55846
1.57923
1.60871
1.64777
1.69678
1.75536
1.822
1.8938
1.96641
2.03406
2.09012
2.12818
2.13967
2.13448
2.04565
2.78775
2.77414
2.76063
2.74722
2.73389
2.72064
2.70746
2.69434
2.68129
2.66831
2.65539
2.64256
2.62983
2.61724
2.6048
2.59255
2.58052
2.56874
2.55723
2.546
2.53505
2.52436
2.51391
2.50364
2.49348
2.48335
2.47314
2.46273
2.452
2.44082
2.42906
2.41662
2.40342
2.38938
2.37448
2.35867
2.34197
2.32435
2.30583
2.28644
2.2662
2.24518
2.22348
2.20118
2.17844
2.15539
2.13216
2.10891
2.08575
2.06279
2.04013
2.01783
1.99596
1.97456
1.95364
1.9332
1.91324
1.89373
1.87463
1.8559
1.83748
1.81932
1.80138
1.78359
1.76591
1.74829
1.73068
1.71306
1.69539
1.67766
1.65987
1.64202
1.62413
1.60623
1.58839
1.57068
1.5532
1.53608
1.51949
1.50365
1.48883
1.47536
1.46367
1.45427
1.44777
1.44486
1.44631
1.45292
1.46539
1.48421
1.50951
1.54075
1.57661
1.61478
1.65195
1.68404
1.70684
1.71435
1.71248
1.65779
2.75181
2.73625
2.72079
2.70541
2.69011
2.67488
2.65972
2.64462
2.62959
2.61461
2.5997
2.58484
2.57004
2.5553
2.54062
2.52601
2.51148
2.49703
2.48267
2.4684
2.45423
2.44016
2.42618
2.41228
2.39845
2.38465
2.37085
2.357
2.34306
2.32896
2.31465
2.30009
2.28524
2.27008
2.25458
2.23875
2.22259
2.2061
2.18929
2.17218
2.15478
2.1371
2.11917
2.10105
2.08278
2.06442
2.04605
2.02773
2.0095
1.99142
1.97353
1.95584
1.93838
1.92114
1.90413
1.88733
1.87073
1.85428
1.83796
1.82173
1.80555
1.78938
1.77319
1.75692
1.74056
1.72405
1.70738
1.69052
1.67345
1.65615
1.63863
1.62087
1.60291
1.58474
1.56642
1.54797
1.52947
1.51099
1.49262
1.47448
1.45674
1.43958
1.42325
1.40803
1.39428
1.38241
1.37292
1.36631
1.36309
1.36369
1.36836
1.37703
1.38917
1.40368
1.41879
1.43218
1.44133
1.44228
1.43891
1.4021
2.73423
2.71749
2.70081
2.68419
2.66764
2.65115
2.63472
2.61834
2.60202
2.58576
2.56956
2.55341
2.53732
2.52128
2.5053
2.48937
2.4735
2.45768
2.44191
2.42619
2.41053
2.39492
2.37937
2.36388
2.34843
2.33303
2.31766
2.30231
2.28695
2.27156
2.25613
2.24062
2.22504
2.20937
2.19361
2.17777
2.16186
2.1459
2.12988
2.11382
2.09771
2.08158
2.06541
2.04924
2.03307
2.01694
2.00087
1.98489
1.96903
1.95329
1.93768
1.92222
1.90688
1.89167
1.87656
1.86153
1.84655
1.8316
1.81664
1.80164
1.78656
1.77137
1.75604
1.74054
1.72483
1.70889
1.6927
1.67623
1.65948
1.64242
1.62505
1.60738
1.5894
1.57114
1.55262
1.53385
1.51489
1.49577
1.47655
1.45731
1.43814
1.41915
1.40048
1.38228
1.36477
1.34818
1.33281
1.31896
1.30698
1.29717
1.28978
1.28489
1.28237
1.28176
1.2822
1.28246
1.28117
1.27579
1.2693
1.2407
2.72625
2.70882
2.69144
2.67411
2.65681
2.63956
2.62236
2.60519
2.58808
2.57101
2.554
2.53703
2.52012
2.50327
2.48647
2.46973
2.45304
2.43641
2.41983
2.40331
2.38685
2.37044
2.35409
2.3378
2.32157
2.3054
2.28928
2.27322
2.2572
2.24121
2.22525
2.2093
2.19338
2.17747
2.16159
2.14574
2.12995
2.11422
2.09855
2.08297
2.06746
2.05202
2.03667
2.0214
2.00621
1.99112
1.97613
1.96126
1.94651
1.93188
1.91736
1.90294
1.88861
1.87436
1.86014
1.84595
1.83175
1.8175
1.80319
1.78877
1.77422
1.75951
1.74459
1.72946
1.71408
1.69842
1.68247
1.66621
1.64962
1.6327
1.61544
1.59783
1.57989
1.56162
1.54304
1.52416
1.50501
1.48563
1.46605
1.44633
1.42651
1.40668
1.3869
1.36727
1.34792
1.32899
1.31064
1.29307
1.27647
1.26106
1.24702
1.23448
1.22345
1.21379
1.20513
1.19688
1.18838
1.17801
1.16843
1.14289
2.72287
2.7051
2.68735
2.66962
2.65192
2.63425
2.6166
2.59899
2.58141
2.56387
2.54637
2.52892
2.51151
2.49415
2.47684
2.45959
2.4424
2.42526
2.40818
2.39117
2.37421
2.35733
2.34051
2.32376
2.30709
2.29049
2.27397
2.25752
2.24114
2.22483
2.20858
2.1924
2.17629
2.16024
2.14428
2.12841
2.11264
2.09698
2.08146
2.06606
2.05079
2.03565
2.02064
2.00576
1.991
1.97636
1.96185
1.94746
1.9332
1.91905
1.90501
1.89105
1.87717
1.86332
1.8495
1.83567
1.8218
1.80787
1.79384
1.77967
1.76535
1.75085
1.73612
1.72115
1.70592
1.6904
1.67457
1.65842
1.64193
1.62509
1.6079
1.59036
1.57246
1.55422
1.53565
1.51676
1.49757
1.47812
1.45842
1.43852
1.41845
1.39827
1.37802
1.35777
1.3376
1.31758
1.29783
1.27846
1.25959
1.24136
1.22389
1.20731
1.19166
1.17694
1.16303
1.14967
1.13662
1.1228
1.11079
1.08595
2.72153
2.70359
2.68566
2.66773
2.64983
2.63194
2.61406
2.59621
2.57838
2.56058
2.5428
2.52507
2.50737
2.48971
2.4721
2.45454
2.43704
2.41958
2.40219
2.38487
2.3676
2.35041
2.3333
2.31626
2.2993
2.28243
2.26564
2.24894
2.23233
2.21581
2.19937
2.18303
2.16678
2.15062
2.13457
2.11864
2.10284
2.08718
2.07167
2.05631
2.0411
2.02605
2.01114
1.99638
1.98176
1.96729
1.95294
1.93873
1.92465
1.91067
1.89679
1.883
1.86926
1.85556
1.84187
1.82817
1.81441
1.80058
1.78664
1.77257
1.75832
1.74389
1.72923
1.71433
1.69916
1.6837
1.66793
1.65184
1.6354
1.61862
1.60149
1.584
1.56615
1.54796
1.52943
1.51058
1.49142
1.47198
1.45228
1.43235
1.41222
1.39194
1.37153
1.35106
1.33057
1.31012
1.28977
1.26961
1.24972
1.23017
1.21108
1.19251
1.17455
1.15721
1.1405
1.1243
1.10862
1.09264
1.07901
1.05399
2.72099
2.70297
2.68496
2.66694
2.64894
2.63094
2.61295
2.59497
2.57701
2.55907
2.54115
2.52326
2.5054
2.48758
2.46979
2.45205
2.43436
2.41672
2.39913
2.38161
2.36415
2.34675
2.32944
2.3122
2.29505
2.27798
2.26101
2.24413
2.22735
2.21066
2.19408
2.17759
2.16122
2.14495
2.12881
2.1128
2.09693
2.0812
2.06564
2.05023
2.03499
2.01991
2.00499
1.99023
1.97561
1.96115
1.94682
1.93262
1.91855
1.90459
1.89073
1.87694
1.86321
1.84952
1.83583
1.82213
1.80837
1.79454
1.7806
1.76653
1.75229
1.73786
1.72322
1.70833
1.69318
1.67774
1.66199
1.64593
1.62954
1.6128
1.59571
1.57827
1.56048
1.54235
1.52387
1.50508
1.48598
1.46659
1.44694
1.42706
1.40696
1.38669
1.36629
1.34578
1.32521
1.30463
1.28409
1.26365
1.24335
1.22328
1.20349
1.18405
1.16502
1.14645
1.12836
1.11074
1.09367
1.0765
1.0619
1.03654
2.72074
2.70269
2.68463
2.66658
2.64852
2.63047
2.61242
2.59438
2.57635
2.55834
2.54034
2.52237
2.50442
2.4865
2.46861
2.45076
2.43296
2.4152
2.39749
2.37984
2.36224
2.34472
2.32727
2.30989
2.2926
2.27539
2.25827
2.24125
2.22433
2.20751
2.1908
2.1742
2.1577
2.14133
2.12509
2.10898
2.09301
2.0772
2.06154
2.04606
2.03073
2.01557
2.00058
1.98574
1.97105
1.95652
1.94213
1.92787
1.91373
1.89971
1.88578
1.87194
1.85815
1.84439
1.83065
1.81688
1.80307
1.78919
1.77521
1.7611
1.74683
1.73237
1.71771
1.70281
1.68765
1.67222
1.65648
1.64044
1.62407
1.60737
1.59032
1.57293
1.55519
1.53712
1.51872
1.49999
1.48096
1.46165
1.44208
1.42227
1.40225
1.38205
1.36171
1.34125
1.32072
1.30016
1.27962
1.25912
1.23873
1.2185
1.19848
1.17872
1.15928
1.1402
1.12153
1.10327
1.08554
1.06779
1.0527
1.02706
2.7206
2.70252
2.68444
2.66636
2.64827
2.63019
2.61211
2.59403
2.57597
2.55791
2.53987
2.52184
2.50384
2.48586
2.46791
2.44999
2.43212
2.41428
2.39649
2.37875
2.36107
2.34345
2.3259
2.30842
2.29102
2.2737
2.25648
2.23934
2.22231
2.20537
2.18855
2.17183
2.15523
2.13875
2.1224
2.10619
2.09012
2.0742
2.05844
2.04285
2.02742
2.01216
1.99705
1.98211
1.96733
1.95269
1.9382
1.92384
1.9096
1.89548
1.88146
1.86751
1.85363
1.83978
1.82595
1.8121
1.79821
1.78426
1.77021
1.75604
1.74172
1.72722
1.71252
1.6976
1.68243
1.66699
1.65126
1.63523
1.61888
1.60221
1.5852
1.56786
1.55018
1.53216
1.51383
1.49518
1.47623
1.457
1.43752
1.4178
1.39788
1.37777
1.35753
1.33717
1.31673
1.29625
1.27578
1.25535
1.235
1.21479
1.19475
1.17494
1.15539
1.13617
1.1173
1.09881
1.08084
1.06285
1.04754
1.02177
2.72048
2.70239
2.68429
2.66619
2.64809
2.62998
2.61188
2.59378
2.57568
2.5576
2.53952
2.52146
2.50342
2.4854
2.46741
2.44944
2.43151
2.41362
2.39577
2.37797
2.36022
2.34253
2.3249
2.30734
2.28985
2.27245
2.25513
2.2379
2.22076
2.20373
2.1868
2.16998
2.15328
2.1367
2.12024
2.10393
2.08775
2.07173
2.05586
2.04016
2.02461
2.00923
1.99401
1.97896
1.96405
1.9493
1.93469
1.92021
1.90587
1.89163
1.87749
1.86344
1.84944
1.83549
1.82155
1.80761
1.79363
1.77959
1.76547
1.75123
1.73685
1.72231
1.70757
1.69262
1.67743
1.66198
1.64625
1.63023
1.6139
1.59726
1.58029
1.56299
1.54537
1.52742
1.50915
1.49058
1.47172
1.45258
1.43319
1.41357
1.39374
1.37375
1.35361
1.33336
1.31304
1.29268
1.27232
1.25199
1.23175
1.21163
1.19167
1.17192
1.15242
1.13321
1.11434
1.09582
1.07781
1.05976
1.04439
1.01858
2.72037
2.70227
2.68416
2.66605
2.64793
2.6298
2.61168
2.59356
2.57544
2.55733
2.53923
2.52114
2.50307
2.48502
2.46699
2.44898
2.43101
2.41307
2.39517
2.37731
2.35951
2.34176
2.32406
2.30643
2.28887
2.27139
2.25399
2.23668
2.21946
2.20233
2.18531
2.1684
2.1516
2.13492
2.11837
2.10195
2.08567
2.06954
2.05357
2.03775
2.02209
2.00659
1.99125
1.97607
1.96105
1.94617
1.93144
1.91685
1.90238
1.88802
1.87377
1.85959
1.84549
1.83142
1.81738
1.80334
1.78927
1.77514
1.76094
1.74663
1.7322
1.7176
1.70282
1.68784
1.67262
1.65716
1.64143
1.62542
1.60911
1.5925
1.57557
1.55832
1.54075
1.52286
1.50466
1.48617
1.46739
1.44834
1.42905
1.40953
1.38981
1.36993
1.34991
1.32978
1.30958
1.28935
1.26911
1.24892
1.2288
1.2088
1.18897
1.16933
1.14993
1.13081
1.11202
1.09355
1.07558
1.05756
1.0422
1.01641
2.72027
2.70216
2.68404
2.66591
2.64777
2.62963
2.61149
2.59335
2.57522
2.55708
2.53896
2.52085
2.50275
2.48466
2.4666
2.44856
2.43055
2.41257
2.39463
2.37673
2.35887
2.34106
2.32331
2.30562
2.288
2.27044
2.25297
2.23558
2.21828
2.20107
2.18397
2.16696
2.15008
2.1333
2.11666
2.10014
2.08377
2.06753
2.05145
2.03552
2.01975
2.00413
1.98868
1.97338
1.95824
1.94324
1.92839
1.91367
1.89908
1.88461
1.87023
1.85594
1.84172
1.82755
1.8134
1.79926
1.78509
1.77088
1.7566
1.74222
1.72772
1.71307
1.69825
1.68323
1.668
1.65253
1.6368
1.62079
1.6045
1.58792
1.57102
1.55382
1.5363
1.51848
1.50035
1.48194
1.46324
1.44429
1.42509
1.40568
1.38607
1.3663
1.3464
1.3264
1.30633
1.28622
1.26612
1.24606
1.22608
1.20622
1.18651
1.167
1.14773
1.12872
1.11003
1.09166
1.07376
1.0558
1.04048
1.01472
2.72017
2.70205
2.68392
2.66578
2.64763
2.62948
2.61132
2.59316
2.575
2.55685
2.53871
2.52057
2.50244
2.48433
2.46624
2.44817
2.43012
2.4121
2.39412
2.37617
2.35827
2.34041
2.32261
2.30486
2.28718
2.26956
2.25202
2.23456
2.21718
2.1999
2.18271
2.16563
2.14866
2.1318
2.11506
2.09845
2.08198
2.06565
2.04946
2.03342
2.01754
2.00182
1.98625
1.97084
1.95557
1.94046
1.92549
1.91065
1.89595
1.88135
1.86686
1.85246
1.83812
1.82384
1.80959
1.79535
1.78109
1.7668
1.75244
1.73799
1.72343
1.70872
1.69386
1.67881
1.66356
1.64807
1.63234
1.61635
1.60007
1.58351
1.56666
1.5495
1.53204
1.51428
1.49623
1.47789
1.45928
1.44042
1.42133
1.40202
1.38253
1.36288
1.3431
1.32322
1.30328
1.28331
1.26334
1.24342
1.22357
1.20385
1.18427
1.16489
1.14575
1.12686
1.10828
1.09
1.07218
1.05428
1.03901
1.01327
2.72007
2.70195
2.6838
2.66565
2.64749
2.62932
2.61115
2.59298
2.5748
2.55663
2.53846
2.5203
2.50215
2.48402
2.4659
2.44779
2.42971
2.41166
2.39364
2.37565
2.35771
2.3398
2.32195
2.30415
2.28641
2.26873
2.25113
2.2336
2.21616
2.1988
2.18154
2.16437
2.14732
2.13038
2.11355
2.09686
2.08029
2.06386
2.04758
2.03144
2.01546
1.99963
1.98395
1.96842
1.95305
1.93782
1.92274
1.90779
1.89296
1.87825
1.86365
1.84914
1.83469
1.82031
1.80595
1.79162
1.77727
1.76289
1.74845
1.73393
1.71931
1.70456
1.68966
1.67458
1.6593
1.64381
1.62807
1.61209
1.59584
1.57931
1.56249
1.54539
1.52799
1.51029
1.49232
1.47406
1.45555
1.43678
1.41779
1.39859
1.37921
1.35968
1.34002
1.32027
1.30046
1.28062
1.26078
1.24099
1.22128
1.20169
1.18225
1.163
1.14397
1.12519
1.10671
1.08852
1.07077
1.05293
1.03769
1.01196
2.71999
2.70185
2.6837
2.66553
2.64736
2.62918
2.61099
2.5928
2.57461
2.55642
2.53823
2.52005
2.50188
2.48372
2.46557
2.44744
2.42933
2.41124
2.39319
2.37516
2.35717
2.33923
2.32132
2.30347
2.28568
2.26795
2.25029
2.2327
2.21519
2.19776
2.18043
2.16319
2.14606
2.12904
2.11213
2.09535
2.0787
2.06218
2.0458
2.02957
2.01349
1.99755
1.98177
1.96614
1.95066
1.93532
1.92012
1.90506
1.89013
1.87531
1.8606
1.84598
1.83143
1.81694
1.80249
1.78806
1.77363
1.75916
1.74465
1.73007
1.71539
1.70059
1.68565
1.67055
1.65525
1.63975
1.62402
1.60805
1.59183
1.57533
1.55856
1.54151
1.52417
1.50656
1.48866
1.47049
1.45207
1.43341
1.41452
1.39543
1.37617
1.35676
1.33722
1.3176
1.29791
1.2782
1.2585
1.23884
1.21926
1.19979
1.18047
1.16133
1.14241
1.12373