/*--------------------------------*- C++ -*----------------------------------*\
  =========                 |
  \\      /  F ield         | OpenFOAM: The Open Source CFD Toolbox
   \\    /   O peration     | Website:  https://openfoam.org
    \\  /    A nd           | Version:  10
     \\/     M anipulation  |
\*---------------------------------------------------------------------------*/
FoamFile
{
    format      ascii;
    class       volScalarField;
    location    "0.195";
    object      nut;
}
// * * * * * * * * * * * * * * * * * * * * * * * * * * * * * * * * * * * * * //

dimensions      [0 2 -1 0 0 0 0];

internalField   nonuniform List<scalar> 
6820
(
0.000149484
0.000144853
0.000140581
0.000136577
0.000132833
0.000129376
0.000126234
0.000123417
0.000120923
0.000118737
0.00011684
0.000115207
0.000113814
0.000112636
0.000111651
0.000110838
0.000110178
0.000109654
0.000109249
0.00010895
0.000108744
0.000108621
0.00010857
0.000108583
0.000108652
0.00010877
0.000108928
0.000109139
0.000109311
0.000109846
0.000108853
0.000115154
8.73853e-05
0.000729198
0.000532388
0.000448006
0.000399699
0.00036837
0.000346719
0.000331074
0.000319344
0.000310256
0.000303007
0.000297075
0.000292114
0.000287889
0.000284236
0.000281035
0.000278201
0.00027567
0.00027339
0.000271324
0.00026944
0.000267714
0.000266126
0.000264659
0.000263299
0.000262035
0.000260857
0.000259758
0.000258731
0.000257777
0.000256896
0.000256112
0.000255273
0.000256873
0.000976776
0.00087218
0.00078162
0.000711258
0.000657309
0.000615264
0.000581688
0.000554221
0.000531278
0.000511774
0.000494951
0.000480259
0.000467297
0.000455757
0.000445405
0.000436058
0.00042757
0.000419822
0.000412721
0.000406185
0.00040015
0.000394559
0.000389364
0.000384525
0.000380005
0.000375772
0.000371795
0.000368048
0.000364492
0.000361115
0.000357813
0.000354564
0.000350944
0.00101349
0.000988231
0.000949374
0.000906191
0.00086442
0.000826373
0.000792536
0.000762643
0.000736199
0.000712695
0.000691675
0.000672757
0.000655625
0.000640019
0.000625728
0.000612578
0.000600425
0.00058915
0.000578653
0.000568849
0.000559667
0.000551045
0.000542931
0.000535277
0.000528043
0.000521192
0.00051469
0.000508508
0.000502608
0.000496973
0.000491536
0.000486322
0.000481092
0.00101671
0.00101241
0.00100191
0.00098566
0.000965601
0.000943707
0.000921413
0.000899596
0.000878726
0.000859011
0.00084051
0.000823201
0.00080702
0.000791887
0.000777718
0.000764428
0.00075194
0.000740181
0.000729087
0.000718599
0.000708667
0.000699243
0.000690285
0.000681756
0.000673623
0.000665854
0.00065842
0.000651294
0.000644448
0.00063786
0.000631491
0.000625328
0.000619312
0.00101676
0.00101592
0.0010136
0.00100903
0.00100204
0.000992917
0.000982186
0.00097039
0.000957993
0.000945357
0.000932738
0.000920312
0.000908192
0.000896446
0.000885111
0.000874204
0.000863727
0.000853672
0.000844028
0.000834776
0.0008259
0.000817381
0.000809198
0.000801334
0.000793768
0.000786484
0.000779463
0.000772687
0.000766139
0.000759802
0.000753654
0.000747682
0.000741869
0.00101671
0.00101623
0.00101553
0.00101428
0.00101219
0.00100909
0.00100496
0.000999888
0.000994014
0.000987511
0.000980545
0.000973263
0.000965786
0.000958216
0.000950629
0.000943086
0.000935631
0.000928296
0.000921105
0.000914074
0.000907211
0.000900524
0.000894014
0.00088768
0.000881521
0.000875532
0.000869709
0.000864044
0.000858531
0.000853163
0.000847931
0.000842828
0.00083785
0.0010167
0.00101622
0.00101574
0.00101518
0.00101442
0.00101335
0.00101188
0.00100995
0.00100755
0.0010047
0.00100144
0.000997817
0.000993896
0.000989733
0.000985382
0.000980891
0.000976303
0.000971653
0.000966973
0.000962288
0.000957618
0.00095298
0.000948387
0.00094385
0.000939375
0.00093497
0.000930637
0.00092638
0.000922199
0.000918094
0.000914067
0.000910116
0.000906244
0.0010167
0.00101621
0.00101575
0.00101528
0.0010148
0.00101425
0.00101359
0.00101278
0.00101179
0.00101059
0.00100917
0.00100753
0.00100568
0.00100364
0.00100142
0.000999047
0.000996541
0.000993923
0.000991213
0.00098843
0.000985591
0.00098271
0.000979801
0.000976876
0.000973944
0.000971015
0.000968094
0.000965188
0.000962302
0.000959441
0.000956608
0.000953807
0.000951043
0.0010167
0.00101621
0.00101574
0.00101529
0.00101484
0.00101439
0.00101393
0.00101344
0.0010129
0.00101229
0.0010116
0.00101081
0.00100993
0.00100895
0.00100786
0.00100667
0.00100539
0.00100402
0.00100256
0.00100104
0.000999454
0.000997811
0.000996122
0.000994392
0.000992629
0.000990841
0.000989032
0.000987209
0.000985376
0.000983539
0.000981701
0.000979866
0.00097804
0.0010167
0.00101621
0.00101574
0.00101528
0.00101484
0.0010144
0.00101398
0.00101356
0.00101313
0.0010127
0.00101224
0.00101176
0.00101125
0.00101069
0.0010101
0.00100946
0.00100877
0.00100804
0.00100726
0.00100644
0.00100557
0.00100466
0.00100372
0.00100274
0.00100173
0.0010007
0.000999637
0.000998557
0.00099746
0.000996349
0.000995227
0.000994097
0.000992964
0.0010167
0.00101621
0.00101574
0.00101528
0.00101484
0.0010144
0.00101398
0.00101357
0.00101317
0.00101277
0.00101238
0.00101199
0.00101159
0.00101119
0.00101077
0.00101035
0.00100991
0.00100945
0.00100897
0.00100848
0.00100796
0.00100743
0.00100688
0.0010063
0.00100571
0.00100511
0.00100448
0.00100385
0.0010032
0.00100253
0.00100186
0.00100118
0.0010005
0.0010167
0.00101621
0.00101574
0.00101528
0.00101483
0.0010144
0.00101398
0.00101357
0.00101317
0.00101278
0.0010124
0.00101203
0.00101166
0.0010113
0.00101095
0.00101059
0.00101024
0.00100988
0.00100952
0.00100916
0.00100879
0.00100842
0.00100804
0.00100766
0.00100727
0.00100688
0.00100647
0.00100607
0.00100565
0.00100524
0.00100481
0.00100439
0.00100396
0.0010167
0.00101621
0.00101574
0.00101528
0.00101483
0.0010144
0.00101398
0.00101357
0.00101317
0.00101278
0.0010124
0.00101203
0.00101167
0.00101132
0.00101098
0.00101065
0.00101032
0.00100999
0.00100967
0.00100936
0.00100904
0.00100873
0.00100842
0.00100812
0.00100781
0.00100751
0.00100721
0.0010069
0.0010066
0.0010063
0.001006
0.0010057
0.0010054
0.0010167
0.00101621
0.00101574
0.00101528
0.00101483
0.0010144
0.00101398
0.00101357
0.00101317
0.00101278
0.0010124
0.00101203
0.00101167
0.00101132
0.00101098
0.00101065
0.00101033
0.00101001
0.0010097
0.0010094
0.00100911
0.00100882
0.00100853
0.00100825
0.00100798
0.00100771
0.00100744
0.00100718
0.00100693
0.00100667
0.00100642
0.00100618
0.00100593
0.0010167
0.00101621
0.00101574
0.00101528
0.00101483
0.0010144
0.00101397
0.00101356
0.00101316
0.00101278
0.0010124
0.00101203
0.00101167
0.00101132
0.00101098
0.00101065
0.00101033
0.00101001
0.00100971
0.00100941
0.00100912
0.00100883
0.00100856
0.00100829
0.00100802
0.00100776
0.00100751
0.00100726
0.00100702
0.00100679
0.00100656
0.00100633
0.00100611
0.0010167
0.00101621
0.00101574
0.00101528
0.00101483
0.0010144
0.00101397
0.00101356
0.00101316
0.00101277
0.0010124
0.00101203
0.00101167
0.00101132
0.00101098
0.00101065
0.00101033
0.00101001
0.00100971
0.00100941
0.00100912
0.00100883
0.00100856
0.00100829
0.00100803
0.00100777
0.00100752
0.00100728
0.00100705
0.00100682
0.00100659
0.00100637
0.00100616
0.0010167
0.00101621
0.00101574
0.00101528
0.00101483
0.00101439
0.00101397
0.00101356
0.00101316
0.00101277
0.00101239
0.00101202
0.00101167
0.00101132
0.00101098
0.00101065
0.00101032
0.00101001
0.0010097
0.0010094
0.00100911
0.00100883
0.00100856
0.00100829
0.00100803
0.00100777
0.00100752
0.00100728
0.00100705
0.00100682
0.0010066
0.00100638
0.00100617
0.0010167
0.00101621
0.00101574
0.00101528
0.00101483
0.00101439
0.00101397
0.00101356
0.00101316
0.00101277
0.00101239
0.00101202
0.00101166
0.00101131
0.00101097
0.00101064
0.00101032
0.00101001
0.0010097
0.0010094
0.00100911
0.00100883
0.00100855
0.00100828
0.00100802
0.00100777
0.00100752
0.00100728
0.00100704
0.00100681
0.00100659
0.00100638
0.00100616
0.0010167
0.00101621
0.00101574
0.00101528
0.00101483
0.00101439
0.00101397
0.00101356
0.00101316
0.00101277
0.00101239
0.00101202
0.00101166
0.00101131
0.00101097
0.00101064
0.00101032
0.00101
0.0010097
0.0010094
0.00100911
0.00100883
0.00100855
0.00100828
0.00100802
0.00100776
0.00100752
0.00100727
0.00100704
0.00100681
0.00100659
0.00100637
0.00100616
0.0010167
0.00101621
0.00101574
0.00101528
0.00101483
0.00101439
0.00101397
0.00101356
0.00101316
0.00101277
0.00101239
0.00101202
0.00101166
0.00101131
0.00101097
0.00101064
0.00101032
0.00101
0.00100969
0.0010094
0.00100911
0.00100882
0.00100855
0.00100828
0.00100802
0.00100776
0.00100751
0.00100727
0.00100703
0.0010068
0.00100658
0.00100636
0.00100615
0.0010167
0.00101621
0.00101574
0.00101528
0.00101483
0.00101439
0.00101397
0.00101356
0.00101316
0.00101277
0.00101239
0.00101202
0.00101166
0.00101131
0.00101097
0.00101064
0.00101031
0.00101
0.00100969
0.00100939
0.0010091
0.00100882
0.00100854
0.00100827
0.00100801
0.00100776
0.00100751
0.00100727
0.00100703
0.0010068
0.00100658
0.00100636
0.00100615
0.0010167
0.00101621
0.00101574
0.00101528
0.00101483
0.00101439
0.00101397
0.00101356
0.00101316
0.00101277
0.00101239
0.00101202
0.00101166
0.00101131
0.00101097
0.00101064
0.00101031
0.00101
0.00100969
0.00100939
0.0010091
0.00100882
0.00100854
0.00100827
0.00100801
0.00100775
0.0010075
0.00100726
0.00100703
0.00100679
0.00100657
0.00100635
0.00100614
0.0010167
0.00101621
0.00101574
0.00101528
0.00101483
0.00101439
0.00101397
0.00101356
0.00101316
0.00101277
0.00101239
0.00101202
0.00101166
0.00101131
0.00101097
0.00101063
0.00101031
0.00101
0.00100969
0.00100939
0.0010091
0.00100882
0.00100854
0.00100827
0.00100801
0.00100775
0.0010075
0.00100726
0.00100702
0.00100679
0.00100657
0.00100635
0.00100613
0.0010167
0.00101621
0.00101574
0.00101528
0.00101483
0.00101439
0.00101397
0.00101356
0.00101316
0.00101277
0.00101239
0.00101202
0.00101166
0.00101131
0.00101097
0.00101063
0.00101031
0.00100999
0.00100969
0.00100939
0.0010091
0.00100881
0.00100854
0.00100827
0.001008
0.00100775
0.0010075
0.00100725
0.00100702
0.00100679
0.00100656
0.00100634
0.00100613
0.0010167
0.00101621
0.00101574
0.00101528
0.00101483
0.00101439
0.00101397
0.00101356
0.00101316
0.00101277
0.00101239
0.00101202
0.00101166
0.00101131
0.00101097
0.00101063
0.00101031
0.00100999
0.00100969
0.00100939
0.0010091
0.00100881
0.00100853
0.00100826
0.001008
0.00100774
0.00100749
0.00100725
0.00100701
0.00100678
0.00100656
0.00100634
0.00100612
0.0010167
0.00101621
0.00101574
0.00101528
0.00101483
0.00101439
0.00101397
0.00101356
0.00101316
0.00101277
0.00101239
0.00101202
0.00101166
0.00101131
0.00101096
0.00101063
0.00101031
0.00100999
0.00100969
0.00100939
0.00100909
0.00100881
0.00100853
0.00100826
0.001008
0.00100774
0.00100749
0.00100725
0.00100701
0.00100678
0.00100655
0.00100633
0.00100612
0.0010167
0.00101621
0.00101574
0.00101528
0.00101483
0.00101439
0.00101397
0.00101356
0.00101316
0.00101277
0.00101239
0.00101202
0.00101166
0.00101131
0.00101096
0.00101063
0.00101031
0.00100999
0.00100968
0.00100939
0.00100909
0.00100881
0.00100853
0.00100826
0.001008
0.00100774
0.00100749
0.00100725
0.00100701
0.00100678
0.00100655
0.00100633
0.00100611
0.0010167
0.00101621
0.00101574
0.00101528
0.00101483
0.00101439
0.00101397
0.00101356
0.00101316
0.00101277
0.00101239
0.00101202
0.00101166
0.00101131
0.00101096
0.00101063
0.00101031
0.00100999
0.00100968
0.00100938
0.00100909
0.00100881
0.00100853
0.00100826
0.001008
0.00100774
0.00100749
0.00100724
0.00100701
0.00100677
0.00100655
0.00100632
0.00100611
0.0010167
0.00101621
0.00101574
0.00101528
0.00101483
0.00101439
0.00101397
0.00101356
0.00101316
0.00101277
0.00101239
0.00101202
0.00101166
0.00101131
0.00101097
0.00101063
0.00101031
0.00100999
0.00100969
0.00100939
0.00100909
0.00100881
0.00100853
0.00100826
0.001008
0.00100774
0.00100749
0.00100724
0.001007
0.00100677
0.00100654
0.00100632
0.00100611
0.0010167
0.00101621
0.00101574
0.00101528
0.00101483
0.00101439
0.00101397
0.00101356
0.00101316
0.00101277
0.00101239
0.00101202
0.00101166
0.00101131
0.00101097
0.00101063
0.00101031
0.00101
0.00100969
0.00100939
0.0010091
0.00100881
0.00100853
0.00100826
0.001008
0.00100774
0.00100749
0.00100724
0.001007
0.00100677
0.00100654
0.00100631
0.0010061
0.0010167
0.00101621
0.00101574
0.00101528
0.00101483
0.0010144
0.00101397
0.00101356
0.00101316
0.00101277
0.00101239
0.00101203
0.00101167
0.00101131
0.00101097
0.00101064
0.00101032
0.00101
0.00100969
0.00100939
0.0010091
0.00100881
0.00100853
0.00100825
0.00100799
0.00100772
0.00100747
0.00100722
0.00100697
0.00100673
0.0010065
0.00100627
0.00100604
0.0010167
0.00101621
0.00101574
0.00101528
0.00101483
0.0010144
0.00101398
0.00101357
0.00101317
0.00101278
0.0010124
0.00101203
0.00101167
0.00101132
0.00101097
0.00101064
0.00101031
0.00100998
0.00100967
0.00100936
0.00100905
0.00100875
0.00100846
0.00100817
0.00100788
0.0010076
0.00100732
0.00100705
0.00100678
0.00100651
0.00100624
0.00100598
0.00100572
0.0010167
0.00101621
0.00101574
0.00101529
0.00101484
0.00101441
0.00101399
0.00101358
0.00101318
0.00101279
0.0010124
0.00101202
0.00101164
0.00101127
0.0010109
0.00101053
0.00101016
0.00100979
0.00100942
0.00100906
0.00100869
0.00100832
0.00100794
0.00100757
0.00100719
0.00100681
0.00100643
0.00100604
0.00100566
0.00100527
0.00100488
0.00100448
0.00100409
0.0010167
0.00101622
0.00101575
0.0010153
0.00101485
0.00101441
0.00101397
0.00101352
0.00101307
0.00101262
0.00101214
0.00101166
0.00101115
0.00101062
0.00101008
0.00100951
0.00100891
0.00100829
0.00100765
0.00100698
0.0010063
0.00100559
0.00100485
0.0010041
0.00100333
0.00100255
0.00100175
0.00100093
0.0010001
0.000999259
0.000998407
0.000997547
0.000996681
0.00101671
0.00101622
0.00101574
0.00101524
0.00101469
0.00101407
0.00101337
0.00101257
0.00101167
0.00101066
0.00100954
0.0010083
0.00100697
0.00100552
0.00100398
0.00100235
0.00100063
0.000998836
0.000996972
0.000995046
0.000993065
0.000991038
0.000988971
0.000986871
0.000984744
0.000982596
0.000980432
0.000978258
0.000976079
0.000973898
0.000971719
0.000969547
0.000967384
0.00101671
0.001016
0.00101488
0.00101325
0.00101112
0.00100847
0.00100531
0.00100168
0.000997609
0.000993153
0.000988365
0.000983298
0.000978002
0.000972527
0.000966914
0.000961204
0.000955431
0.000949626
0.000943813
0.000938017
0.000932254
0.000926543
0.000920896
0.000915325
0.000909838
0.000904443
0.000899146
0.000893951
0.000888862
0.000883882
0.000879011
0.000874251
0.000869603
0.0010153
0.00100706
0.000995498
0.00098139
0.000965355
0.000948005
0.000929898
0.000911484
0.000893096
0.000874972
0.000857279
0.000840124
0.000823576
0.000807669
0.00079242
0.000777826
0.000763877
0.000750554
0.000737836
0.000725698
0.000714112
0.000703053
0.000692494
0.000682409
0.000672774
0.000663563
0.000654754
0.000646327
0.000638259
0.000630532
0.000623128
0.00061603
0.000609219
0.000935928
0.00081556
0.000728202
0.000659318
0.000602486
0.000555285
0.000515816
0.000482493
0.000454068
0.000429575
0.000408274
0.000389593
0.000373086
0.000358405
0.00034527
0.000333457
0.000322784
0.000313101
0.000304284
0.000296229
0.000288847
0.000282063
0.000275813
0.000270041
0.0002647
0.000259748
0.000255147
0.000250865
0.000246874
0.000243148
0.000239665
0.000236404
0.000233346
0.000125477
0.000128847
0.000132096
0.000135204
0.000138173
0.000141007
0.000143711
0.000146289
0.000148745
0.000151085
0.000153311
0.000155429
0.000157443
0.000159356
0.000161174
0.0001629
0.000164537
0.000166091
0.000167565
0.000168963
0.000170287
0.000171543
0.000172732
0.000173859
0.000174926
0.000175937
0.000176894
0.0001778
0.000178657
0.000179469
0.000180237
0.000180964
0.000181652
0.000108348
0.000153116
0.000196392
0.000236433
0.000273233
0.000306456
0.000336017
0.000362415
0.000386572
0.000409492
0.000431964
0.000454443
0.000477082
0.000499846
0.00052264
0.000545398
0.000568128
0.000590907
0.00061386
0.000637123
0.000660809
0.00068499
0.000709692
0.000734895
0.000760548
0.000786588
0.000812949
0.000839573
0.000866409
0.000893407
0.000920499
0.000947583
0.000974511
0.00100109
0.00102708
0.00105222
0.00107625
0.0010989
0.00111996
0.00113921
0.00115645
0.00117152
0.00118423
0.00119442
0.00120194
0.00120667
0.00120853
0.00120749
0.00120359
0.00119691
0.00118761
0.00117591
0.00116208
0.00114649
0.00112951
0.0011116
0.00109324
0.00107493
0.00105719
0.00104049
0.00102531
0.00101203
0.001001
0.000992463
0.000986588
0.000983446
0.00098303
0.000985263
0.00099002
0.000997148
0.00100649
0.00101791
0.00103129
0.00104658
0.00106375
0.00108286
0.00110398
0.00112722
0.00115274
0.00118068
0.00121116
0.00124427
0.00128004
0.00131839
0.00135914
0.00140196
0.00144637
0.00149175
0.00153731
0.00158212
0.00162513
0.00166516
0.00170102
0.00173143
0.0017552
0.00177112
0.00177826
0.00177533
0.00176448
0.00172573
0.000245237
0.000212879
0.000184512
0.000170892
0.000170569
0.000180177
0.000196912
0.000218584
0.00024337
0.000269798
0.000296728
0.000323371
0.000349278
0.000374291
0.000398462
0.000421963
0.000445007
0.000467788
0.000490448
0.000513082
0.000535734
0.000558424
0.000581147
0.000603889
0.000626625
0.00064933
0.000671977
0.000694546
0.000717027
0.000739408
0.000761669
0.000783764
0.000805603
0.000827048
0.000847912
0.000867974
0.000887003
0.000904771
0.000921078
0.000935749
0.000948633
0.000959598
0.00096852
0.000975282
0.000979787
0.000981965
0.00098179
0.000979289
0.000974556
0.000967747
0.000959088
0.000948869
0.000937441
0.000925208
0.000912621
0.000900156
0.000888303
0.000877536
0.000868291
0.000860946
0.000855794
0.00085303
0.000852745
0.000854925
0.000859462
0.000866174
0.000874822
0.000885145
0.00089688
0.00090979
0.000923678
0.000938408
0.000953905
0.000970166
0.000987254
0.0010053
0.00102448
0.00104504
0.00106725
0.00109138
0.00111772
0.00114651
0.00117794
0.0012121
0.00124894
0.00128828
0.00132973
0.00137275
0.00141659
0.00146034
0.00150292
0.00154314
0.00157974
0.00161143
0.00163692
0.001655
0.00166467
0.00166466
0.00165705
0.00162349
0.000348484
0.000344479
0.000330456
0.000303279
0.000269441
0.000237985
0.000214008
0.000198676
0.000191428
0.000190938
0.000196071
0.000205912
0.000219653
0.000236517
0.000255743
0.000276611
0.000298479
0.000320823
0.000343259
0.000365546
0.000387561
0.000409267
0.00043067
0.000451784
0.000472615
0.000493144
0.000513345
0.000533187
0.000552649
0.000571728
0.000590424
0.000608732
0.00062662
0.000644013
0.00066079
0.000676793
0.00069184
0.000705756
0.000718386
0.00072961
0.000739337
0.000747504
0.000754062
0.000758977
0.000762233
0.000763843
0.000763869
0.000762426
0.000759696
0.000755927
0.000751427
0.000746558
0.00074172
0.000737341
0.000733854
0.00073167
0.000731154
0.000732599
0.000736199
0.000742036
0.000750079
0.000760184
0.000772118
0.00078558
0.000800235
0.000815737
0.000831759
0.000848014
0.000864264
0.000880333
0.000896113
0.000911556
0.000926682
0.000941569
0.000956353
0.000971228
0.000986437
0.00100227
0.00101908
0.00103722
0.00105709
0.00107908
0.00110353
0.00113073
0.00116083
0.00119384
0.00122955
0.00126755
0.0013072
0.00134764
0.00138782
0.00142654
0.00146248
0.0014943
0.00152066
0.00154028
0.00155212
0.00155491
0.00155052
0.00152277
0.000475349
0.000469862
0.000464261
0.000455871
0.00044178
0.00042052
0.00039305
0.000362187
0.00033128
0.00030278
0.000278608
0.00025938
0.000245024
0.000235298
0.000229902
0.000228503
0.00023074
0.000236219
0.000244523
0.000255219
0.000267869
0.000282049
0.000297362
0.000313445
0.000329978
0.000346692
0.000363375
0.000379869
0.00039607
0.000411925
0.000427412
0.000442522
0.000457244
0.00047154
0.000485338
0.00049854
0.000511028
0.00052269
0.00053344
0.000543227
0.000552039
0.000559898
0.00056685
0.000572961
0.000578317
0.000583034
0.000587268
0.000591222
0.00059515
0.000599342
0.000604119
0.000609805
0.00061671
0.000625101
0.000635186
0.000647086
0.000660821
0.000676309
0.000693367
0.000711731
0.000731077
0.000751054
0.000771305
0.000791499
0.000811342
0.00083059
0.000849057
0.000866611
0.000883174
0.000898717
0.000913253
0.000926834
0.000939546
0.000951504
0.000962857
0.00097378
0.000984487
0.000995231
0.00100631
0.00101806
0.00103088
0.00104519
0.00106145
0.00108007
0.00110144
0.00112578
0.00115317
0.00118345
0.00121619
0.0012507
0.00128604
0.00132106
0.00135443
0.00138478
0.00141072
0.0014309
0.00144421
0.00144939
0.00144799
0.00142644
0.000612395
0.000604781
0.000597545
0.000590424
0.000582656
0.000573134
0.000560746
0.000544741
0.000524989
0.000501914
0.000476461
0.000450286
0.000424491
0.000399895
0.000377112
0.00035659
0.00033863
0.000323415
0.000311025
0.000301455
0.000294636
0.000290444
0.000288713
0.000289241
0.000291801
0.00029614
0.000301996
0.000309108
0.000317228
0.000326136
0.000335646
0.000345609
0.000355904
0.000366427
0.000377089
0.000387807
0.000398506
0.000409132
0.00041966
0.000430097
0.000440488
0.000450907
0.00046145
0.000472227
0.00048336
0.000494986
0.000507257
0.000520332
0.000534377
0.000549538
0.000565931
0.000583619
0.000602605
0.00062282
0.000644128
0.000666328
0.000689169
0.000712369
0.000735629
0.000758657
0.000781184
0.000802974
0.000823837
0.00084363
0.000862256
0.00087966
0.000895824
0.000910765
0.000924521
0.000937151
0.00094873
0.000959344
0.000969084
0.000978054
0.00098636
0.000994121
0.00100147
0.00100855
0.00101554
0.00102266
0.00103018
0.00103842
0.00104777
0.00105865
0.00107154
0.00108684
0.00110491
0.00112589
0.00114971
0.00117601
0.00120412
0.00123306
0.00126167
0.00128858
0.00131241
0.00133178
0.00134553
0.00135239
0.00135349
0.00133818
0.000735235
0.000727757
0.000720389
0.000713167
0.000706017
0.000698729
0.000690942
0.000682196
0.000672024
0.000660034
0.000646005
0.000630087
0.000612554
0.000593775
0.000574168
0.000554163
0.000534177
0.000514596
0.00049576
0.000477961
0.000461443
0.000446401
0.000432993
0.000421332
0.000411501
0.000403543
0.000397462
0.000393226
0.000390769
0.000389994
0.000390784
0.000393016
0.000396567
0.000401326
0.000407199
0.000414113
0.000422016
0.000430879
0.000440693
0.000451462
0.000463205
0.000475939
0.000489685
0.000504455
0.000520258
0.000537092
0.00055495
0.000573807
0.000593617
0.000614305
0.000635759
0.000657834
0.000680352
0.00070311
0.000725892
0.000748478
0.000770655
0.000792228
0.000813024
0.000832902
0.000851754
0.000869505
0.000886113
0.000901566
0.000915875
0.000929074
0.000941211
0.000952348
0.000962552
0.000971898
0.000980462
0.000988322
0.000995552
0.00100223
0.00100843
0.00101421
0.00101966
0.00102484
0.00102983
0.00103473
0.00103964
0.00104473
0.0010502
0.00105633
0.00106345
0.00107196
0.00108228
0.00109478
0.00110971
0.00112709
0.00114668
0.00116788
0.00118984
0.00121142
0.00123136
0.00124835
0.00126121
0.00126874
0.00127153
0.001262
0.000832178
0.000825752
0.000819335
0.000812952
0.000806616
0.000800315
0.000793991
0.000787534
0.000780781
0.000773528
0.000765583
0.000756794
0.000747067
0.000736375
0.000724759
0.000712314
0.000699183
0.000685544
0.00067159
0.000657528
0.000643563
0.000629896
0.000616724
0.000604233
0.000592602
0.000581995
0.00057256
0.00056442
0.00055767
0.00055237
0.000548549
0.000546208
0.000545325
0.000545872
0.000547818
0.000551141
0.000555827
0.000561868
0.000569259
0.000577988
0.000588028
0.000599334
0.000611844
0.000625477
0.00064014
0.000655731
0.00067214
0.000689247
0.000706925
0.00072503
0.000743412
0.000761909
0.000780358
0.000798599
0.000816479
0.000833863
0.000850629
0.00086668
0.000881938
0.00089635
0.000909884
0.000922528
0.000934288
0.000945185
0.000955252
0.000964532
0.000973075
0.000980936
0.00098817
0.000994839
0.001001
0.00100671
0.00101204
0.00101703
0.00102175
0.00102625
0.00103057
0.00103477
0.00103888
0.00104294
0.001047
0.00105109
0.00105528
0.00105966
0.00106435
0.00106957
0.00107556
0.00108265
0.00109116
0.00110133
0.00111327
0.00112684
0.00114162
0.00115688
0.00117169
0.00118497
0.00119566
0.00120269
0.00120617
0.00120132
0.000901815
0.00089677
0.000891687
0.000886579
0.000881459
0.000876338
0.000871218
0.000866088
0.000860919
0.000855659
0.000850245
0.000844604
0.000838658
0.000832344
0.000825614
0.000818444
0.000810835
0.000802816
0.000794441
0.000785782
0.000776932
0.000767997
0.000759093
0.000750346
0.000741888
0.000733854
0.000726379
0.000719589
0.000713599
0.000708508
0.000704392
0.000701306
0.000699288
0.000698361
0.00069854
0.000699836
0.000702259
0.000705815
0.000710506
0.000716318
0.000723222
0.000731169
0.000740089
0.000749896
0.000760494
0.000771775
0.000783632
0.000795951
0.000808616
0.00082151
0.000834516
0.000847516
0.000860397
0.000873055
0.000885396
0.000897336
0.000908809
0.000919762
0.000930154
0.000939963
0.000949176
0.000957794
0.000965825
0.000973289
0.00098021
0.000986618
0.000992547
0.000998032
0.00100311
0.00100783
0.00101223
0.00101634
0.00102022
0.0010239
0.00102745
0.00103089
0.00103427
0.00103765
0.00104107
0.00104456
0.00104815
0.00105188
0.00105575
0.00105977
0.00106397
0.00106837
0.00107302
0.00107804
0.00108357
0.00108982
0.00109695
0.00110505
0.00111407
0.0011237
0.00113346
0.00114261
0.00115041
0.00115604
0.00115925
0.00115749
0.000947859
0.000944203
0.000940485
0.000936714
0.000932896
0.00092904
0.000925155
0.000921245
0.000917314
0.000913358
0.00090937
0.000905334
0.000901228
0.000897028
0.000892707
0.000888243
0.000883619
0.000878826
0.000873867
0.000868755
0.000863518
0.000858192
0.000852827
0.000847484
0.000842232
0.000837148
0.000832314
0.000827814
0.000823728
0.000820132
0.000817094
0.000814669
0.000812902
0.000811831
0.000811483
0.000811882
0.000813046
0.000814988
0.000817714
0.000821219
0.000825485
0.000830479
0.000836156
0.000842455
0.00084931
0.000856646
0.000864385
0.000872447
0.000880754
0.000889223
0.000897776
0.000906337
0.000914832
0.000923195
0.000931366
0.000939293
0.000946934
0.000954255
0.000961231
0.000967845
0.000974089
0.000979961
0.000985465
0.000990609
0.000995407
0.000999874
0.00100403
0.00100789
0.00101149
0.00101484
0.00101797
0.00102091
0.0010237
0.00102635
0.00102891
0.00103143
0.00103393
0.00103646
0.00103908
0.00104182
0.00104475
0.00104789
0.00105129
0.00105496
0.00105891
0.00106312
0.00106757
0.00107223
0.00107709
0.00108215
0.00108745
0.00109304
0.00109894
0.00110508
0.00111128
0.00111718
0.00112237
0.00112635
0.00112877
0.00112847
0.000975918
0.000973458
0.00097093
0.000968338
0.000965686
0.00096298
0.000960226
0.000957429
0.000954595
0.000951731
0.00094884
0.000945926
0.00094299
0.000940029
0.000937041
0.000934022
0.000930965
0.000927868
0.000924729
0.000921549
0.000918336
0.000915101
0.000911863
0.000908647
0.000905482
0.000902406
0.000899459
0.000896686
0.000894133
0.000891844
0.000889863
0.000888227
0.000886973
0.00088613
0.000885725
0.000885781
0.000886316
0.000887344
0.000888874
0.000890906
0.000893433
0.000896438
0.000899895
0.000903771
0.000908025
0.000912614
0.000917489
0.0009226
0.000927899
0.000933333
0.000938853
0.00094441
0.000949957
0.000955453
0.000960857
0.000966135
0.000971257
0.000976201
0.000980946
0.000985479
0.000989791
0.000993876
0.000997732
0.00100136
0.00100477
0.00100796
0.00101093
0.00101371
0.0010163
0.00101871
0.00102096
0.00102307
0.00102505
0.00102692
0.00102871
0.00103045
0.00103218
0.00103392
0.00103573
0.00103765
0.00103973
0.00104203
0.00104461
0.00104751
0.00105077
0.00105441
0.00105843
0.00106278
0.00106742
0.00107225
0.0010772
0.00108218
0.00108712
0.00109194
0.00109655
0.00110078
0.00110442
0.00110723
0.00110896
0.00110902
0.000991634
0.000990077
0.000988461
0.000986785
0.000985053
0.000983267
0.00098143
0.000979544
0.000977616
0.000975649
0.000973648
0.00097162
0.000969568
0.000967498
0.000965414
0.000963319
0.000961217
0.00095911
0.000957003
0.000954898
0.000952801
0.000950717
0.000948657
0.000946632
0.000944655
0.000942744
0.000940919
0.000939201
0.000937612
0.000936176
0.000934917
0.000933857
0.000933019
0.000932423
0.000932088
0.000932032
0.00093227
0.000932815
0.000933674
0.00093485
0.000936343
0.000938145
0.000940242
0.000942618
0.000945251
0.000948117
0.000951189
0.000954439
0.000957836
0.00096135
0.00096495
0.000968606
0.000972287
0.000975966
0.000979617
0.000983214
0.000986738
0.00099017
0.000993494
0.000996697
0.000999771
0.00100271
0.0010055
0.00100815
0.00101065
0.001013
0.0010152
0.00101726
0.00101917
0.00102095
0.0010226
0.00102412
0.00102554
0.00102685
0.00102807
0.00102923
0.00103035
0.00103145
0.00103257
0.00103375
0.00103503
0.00103647
0.00103812
0.00104004
0.0010423
0.00104494
0.00104801
0.00105151
0.00105544
0.00105971
0.00106425
0.00106893
0.0010736
0.00107811
0.00108231
0.00108605
0.00108917
0.00109154
0.00109299
0.00109308
0.00099969
0.000998737
0.000997739
0.000996697
0.00099561
0.000994479
0.000993305
0.000992089
0.000990834
0.000989543
0.000988218
0.000986863
0.000985483
0.000984081
0.000982662
0.00098123
0.000979791
0.00097835
0.00097691
0.000975478
0.000974058
0.000972658
0.000971284
0.000969943
0.000968644
0.000967397
0.000966212
0.0009651
0.000964073
0.000963144
0.000962323
0.000961625
0.000961061
0.000960645
0.00096039
0.000960308
0.00096041
0.000960706
0.000961203
0.000961904
0.00096281
0.000963919
0.000965225
0.000966719
0.000968391
0.000970229
0.000972218
0.000974342
0.000976585
0.000978928
0.000981353
0.000983839
0.000986369
0.000988923
0.000991482
0.000994031
0.000996552
0.000999032
0.00100146
0.00100382
0.0010061
0.0010083
0.00101041
0.00101242
0.00101433
0.00101613
0.00101783
0.00101941
0.00102088
0.00102223
0.00102348
0.00102461
0.00102564
0.00102657
0.00102741
0.00102816
0.00102885
0.00102949
0.0010301
0.00103071
0.00103135
0.00103207
0.00103291
0.00103393
0.00103518
0.00103674
0.00103865
0.00104098
0.00104374
0.00104692
0.0010505
0.00105437
0.00105842
0.00106247
0.00106635
0.00106987
0.00107284
0.00107511
0.00107657
0.00107679
0.00100345
0.00100286
0.00100223
0.00100158
0.0010009
0.00100018
0.000999438
0.000998663
0.000997859
0.000997027
0.000996168
0.000995284
0.000994377
0.00099345
0.000992506
0.000991548
0.000990579
0.000989605
0.000988628
0.000987654
0.000986687
0.000985733
0.000984797
0.000983885
0.000983004
0.000982161
0.000981361
0.000980612
0.00097992
0.000979293
0.000978738
0.000978262
0.000977873
0.00097758
0.00097739
0.000977313
0.000977358
0.00097753
0.000977836
0.000978279
0.000978862
0.000979583
0.00098044
0.000981429
0.000982547
0.000983786
0.000985139
0.000986598
0.000988154
0.000989796
0.000991512
0.000993291
0.000995118
0.000996982
0.000998869
0.00100077
0.00100266
0.00100455
0.0010064