/*--------------------------------*- C++ -*----------------------------------*\
  =========                 |
  \\      /  F ield         | OpenFOAM: The Open Source CFD Toolbox
   \\    /   O peration     | Website:  https://openfoam.org
    \\  /    A nd           | Version:  10
     \\/     M anipulation  |
\*---------------------------------------------------------------------------*/
FoamFile
{
    format      ascii;
    class       volScalarField;
    location    "0.195";
    object      p;
}
// * * * * * * * * * * * * * * * * * * * * * * * * * * * * * * * * * * * * * //

dimensions      [0 2 -2 0 0 0 0];

internalField   nonuniform List<scalar> 
6820
(
-8.04628
-9.4103
-9.82368
-9.91896
-9.99958
-10.0507
-10.0813
-10.1053
-10.1258
-10.1439
-10.1604
-10.1759
-10.1907
-10.205
-10.2187
-10.2321
-10.245
-10.2575
-10.2697
-10.2814
-10.2927
-10.3034
-10.3135
-10.3227
-10.3308
-10.3372
-10.3412
-10.3414
-10.3358
-10.3178
-10.2829
-10.2016
-10.0112
-10.8465
-10.442
-10.148
-10.0524
-10.0537
-10.0701
-10.0879
-10.1072
-10.1262
-10.1439
-10.1604
-10.1758
-10.1905
-10.2044
-10.2178
-10.2307
-10.2431
-10.2552
-10.267
-10.2783
-10.2893
-10.2997
-10.3096
-10.3187
-10.3269
-10.3338
-10.339
-10.3423
-10.3412
-10.3419
-10.3271
-10.3623
-10.3599
-9.70345
-9.57521
-9.80006
-9.93754
-9.99888
-10.043
-10.0748
-10.0997
-10.121
-10.1395
-10.1563
-10.172
-10.1869
-10.2011
-10.2148
-10.2281
-10.2409
-10.2534
-10.2656
-10.2773
-10.2887
-10.2995
-10.3098
-10.3194
-10.3282
-10.3358
-10.3419
-10.3464
-10.3482
-10.3494
-10.3449
-10.3533
-10.3467
-10.07
-10.0867
-10.0622
-10.0393
-10.0472
-10.0674
-10.0871
-10.106
-10.1242
-10.1414
-10.1575
-10.1729
-10.1875
-10.2016
-10.2152
-10.2283
-10.241
-10.2534
-10.2654
-10.2771
-10.2884
-10.2993
-10.3097
-10.3195
-10.3286
-10.337
-10.3443
-10.3509
-10.3563
-10.3632
-10.3694
-10.3907
-10.4181
-9.96014
-9.90614
-9.94992
-9.99448
-10.0294
-10.0592
-10.0835
-10.1045
-10.1236
-10.1411
-10.1573
-10.1726
-10.1872
-10.2012
-10.2147
-10.2278
-10.2406
-10.253
-10.2651
-10.2769
-10.2884
-10.2995
-10.3102
-10.3204
-10.3302
-10.3394
-10.3481
-10.3566
-10.3649
-10.3751
-10.3872
-10.409
-10.4381
-10.0008
-9.99396
-10.0122
-10.0291
-10.0472
-10.0684
-10.0887
-10.1076
-10.1255
-10.1423
-10.1581
-10.1731
-10.1875
-10.2014
-10.2149
-10.228
-10.2407
-10.2532
-10.2653
-10.2771
-10.2887
-10.2999
-10.3109
-10.3215
-10.3318
-10.3419
-10.3518
-10.362
-10.3728
-10.3858
-10.4018
-10.4251
-10.456
-10.0002
-9.98936
-10.004
-10.0255
-10.0472
-10.0693
-10.0899
-10.1087
-10.1263
-10.1428
-10.1585
-10.1734
-10.1877
-10.2015
-10.2149
-10.228
-10.2407
-10.2531
-10.2653
-10.2773
-10.2889
-10.3004
-10.3117
-10.3227
-10.3336
-10.3445
-10.3556
-10.3672
-10.3799
-10.3949
-10.4129
-10.4364
-10.4659
-10.0098
-10.0067
-10.0197
-10.0375
-10.0555
-10.0746
-10.0932
-10.1109
-10.1277
-10.1438
-10.1591
-10.1738
-10.1879
-10.2016
-10.215
-10.228
-10.2407
-10.2531
-10.2654
-10.2774
-10.2892
-10.3009
-10.3124
-10.3239
-10.3354
-10.347
-10.359
-10.3718
-10.3859
-10.402
-10.4211
-10.4442
-10.472
-10.0184
-10.0172
-10.0276
-10.0432
-10.0601
-10.078
-10.0958
-10.1128
-10.1291
-10.1447
-10.1597
-10.1742
-10.1881
-10.2017
-10.215
-10.2279
-10.2406
-10.2531
-10.2653
-10.2774
-10.2894
-10.3013
-10.3131
-10.3249
-10.3369
-10.3492
-10.3619
-10.3756
-10.3906
-10.4075
-10.4268
-10.4493
-10.4751
-10.027
-10.0275
-10.0367
-10.0507
-10.066
-10.0824
-10.0989
-10.115
-10.1307
-10.1458
-10.1604
-10.1746
-10.1884
-10.2018
-10.215
-10.2278
-10.2405
-10.253
-10.2653
-10.2774
-10.2895
-10.3016
-10.3136
-10.3258
-10.3382
-10.3509
-10.3643
-10.3785
-10.3941
-10.4112
-10.4305
-10.4521
-10.4761
-10.0354
-10.0367
-10.0448
-10.0573
-10.0713
-10.0864
-10.1019
-10.1172
-10.1323
-10.1469
-10.1612
-10.1751
-10.1887
-10.2019
-10.215
-10.2278
-10.2404
-10.2528
-10.2651
-10.2774
-10.2895
-10.3017
-10.314
-10.3264
-10.3391
-10.3522
-10.366
-10.3806
-10.3964
-10.4136
-10.4324
-10.453
-10.4754
-10.0434
-10.0451
-10.0525
-10.0637
-10.0765
-10.0905
-10.105
-10.1195
-10.1339
-10.1481
-10.162
-10.1756
-10.189
-10.2021
-10.2149
-10.2276
-10.2402
-10.2526
-10.2649
-10.2772
-10.2894
-10.3017
-10.3141
-10.3267
-10.3397
-10.353
-10.367
-10.3818
-10.3976
-10.4146
-10.4329
-10.4525
-10.4734
-10.051
-10.0528
-10.0596
-10.0697
-10.0814
-10.0944
-10.108
-10.1218
-10.1356
-10.1493
-10.1628
-10.1761
-10.1892
-10.2021
-10.2149
-10.2275
-10.2399
-10.2523
-10.2646
-10.2769
-10.2891
-10.3015
-10.314
-10.3268
-10.3398
-10.3533
-10.3674
-10.3822
-10.3979
-10.4145
-10.4321
-10.4508
-10.4704
-10.0581
-10.06
-10.0662
-10.0754
-10.0862
-10.0982
-10.111
-10.1241
-10.1373
-10.1506
-10.1637
-10.1767
-10.1895
-10.2022
-10.2148
-10.2272
-10.2396
-10.2519
-10.2641
-10.2764
-10.2887
-10.3011
-10.3136
-10.3264
-10.3395
-10.3531
-10.3671
-10.3818
-10.3972
-10.4133
-10.4303
-10.448
-10.4664
-10.0647
-10.0666
-10.0723
-10.0807
-10.0906
-10.1019
-10.1139
-10.1263
-10.139
-10.1517
-10.1645
-10.1771
-10.1897
-10.2022
-10.2146
-10.2269
-10.2391
-10.2513
-10.2635
-10.2758
-10.288
-10.3004
-10.313
-10.3257
-10.3388
-10.3523
-10.3662
-10.3806
-10.3956
-10.4112
-10.4275
-10.4443
-10.4615
-10.0708
-10.0726
-10.0779
-10.0856
-10.0948
-10.1053
-10.1166
-10.1284
-10.1406
-10.1529
-10.1652
-10.1775
-10.1899
-10.2021
-10.2143
-10.2265
-10.2386
-10.2507
-10.2628
-10.2749
-10.2871
-10.2995
-10.3119
-10.3246
-10.3376
-10.3509
-10.3646
-10.3787
-10.3933
-10.4083
-10.4239
-10.4398
-10.456
-10.0764
-10.0781
-10.083
-10.0901
-10.0987
-10.1085
-10.1192
-10.1304
-10.142
-10.1539
-10.1659
-10.1779
-10.1899
-10.2019
-10.214
-10.2259
-10.2379
-10.2499
-10.2619
-10.2739
-10.286
-10.2982
-10.3106
-10.3231
-10.3359
-10.349
-10.3624
-10.3761
-10.3902
-10.4047
-10.4195
-10.4345
-10.4497
-10.0815
-10.083
-10.0876
-10.0942
-10.1022
-10.1114
-10.1215
-10.1322
-10.1434
-10.1548
-10.1664
-10.1781
-10.1899
-10.2017
-10.2135
-10.2253
-10.2371
-10.2489
-10.2607
-10.2726
-10.2846
-10.2967
-10.3089
-10.3212
-10.3338
-10.3466
-10.3596
-10.3729
-10.3865
-10.4003
-10.4144
-10.4286
-10.4429
-10.086
-10.0875
-10.0917
-10.0978
-10.1054
-10.114
-10.1236
-10.1338
-10.1445
-10.1556
-10.1668
-10.1782
-10.1897
-10.2012
-10.2128
-10.2244
-10.236
-10.2477
-10.2594
-10.2711
-10.2829
-10.2948
-10.3068
-10.3189
-10.3312
-10.3436
-10.3563
-10.3691
-10.3822
-10.3954
-10.4087
-10.4221
-10.4355
-10.09
-10.0913
-10.0953
-10.1011
-10.1081
-10.1163
-10.1254
-10.1352
-10.1455
-10.1561
-10.167
-10.1781
-10.1894
-10.2007
-10.212
-10.2234
-10.2348
-10.2463
-10.2578
-10.2693
-10.2809
-10.2926
-10.3043
-10.3162
-10.3281
-10.3402
-10.3525
-10.3648
-10.3773
-10.3898
-10.4024
-10.4151
-10.4277
-10.0934
-10.0947
-10.0984
-10.1038
-10.1105
-10.1183
-10.1269
-10.1363
-10.1462
-10.1565
-10.1671
-10.1779
-10.1888
-10.1999
-10.211
-10.2222
-10.2334
-10.2447
-10.256
-10.2673
-10.2786
-10.2901
-10.3015
-10.3131
-10.3247
-10.3364
-10.3481
-10.36
-10.3719
-10.3838
-10.3957
-10.4076
-10.4193
-10.0963
-10.0975
-10.101
-10.1061
-10.1124
-10.1198
-10.1281
-10.1371
-10.1466
-10.1566
-10.1669
-10.1774
-10.1881
-10.1989
-10.2098
-10.2208
-10.2318
-10.2428
-10.2539
-10.265
-10.2761
-10.2872
-10.2984
-10.3096
-10.3208
-10.3321
-10.3434
-10.3547
-10.366
-10.3773
-10.3885
-10.3996
-10.4106
-10.0986
-10.0997
-10.103
-10.1079
-10.1139
-10.1209
-10.1289
-10.1376
-10.1468
-10.1565
-10.1665
-10.1767
-10.1872
-10.1977
-10.2084
-10.2192
-10.2299
-10.2407
-10.2516
-10.2624
-10.2732
-10.2841
-10.2949
-10.3057
-10.3166
-10.3274
-10.3382
-10.349
-10.3597
-10.3704
-10.3809
-10.3913
-10.4016
-10.1003
-10.1014
-10.1045
-10.1091
-10.1148
-10.1216
-10.1292
-10.1376
-10.1465
-10.1559
-10.1657
-10.1757
-10.1859
-10.1963
-10.2067
-10.2172
-10.2278
-10.2383
-10.2489
-10.2595
-10.27
-10.2806
-10.2911
-10.3015
-10.312
-10.3223
-10.3326
-10.3429
-10.353
-10.3631
-10.3729
-10.3827
-10.3922
-10.1014
-10.1024
-10.1054
-10.1098
-10.1153
-10.1218
-10.1292
-10.1374
-10.1461
-10.1552
-10.1647
-10.1745
-10.1845
-10.1947
-10.2049
-10.2152
-10.2255
-10.2358
-10.2461
-10.2564
-10.2667
-10.2769
-10.287
-10.2971
-10.3071
-10.317
-10.3268
-10.3365
-10.3461
-10.3555
-10.3648
-10.3738
-10.3826
-10.1018
-10.1028
-10.1056
-10.1098
-10.1151
-10.1214
-10.1285
-10.1364
-10.1449
-10.1538
-10.1631
-10.1727
-10.1825
-10.1925
-10.2025
-10.2126
-10.2227
-10.2328
-10.2428
-10.2529
-10.2628
-10.2727
-10.2825
-10.2922
-10.3018
-10.3113
-10.3206
-10.3298
-10.3388
-10.3476
-10.3562
-10.3646
-10.3728
-10.1016
-10.1026
-10.1054
-10.1095
-10.1146
-10.1208
-10.1278
-10.1356
-10.1439
-10.1527
-10.1618
-10.1712
-10.1808
-10.1906
-10.2004
-10.2103
-10.2201
-10.23
-10.2397
-10.2495
-10.2591
-10.2686
-10.2781
-10.2874
-10.2965
-10.3055
-10.3144
-10.323
-10.3315
-10.3397
-10.3477
-10.3555
-10.363
-10.1007
-10.1015
-10.104
-10.1078
-10.1126
-10.1185
-10.1254
-10.1329
-10.1411
-10.1498
-10.1588
-10.1681
-10.1776
-10.1872
-10.1969
-10.2067
-10.2164
-10.226
-10.2356
-10.2451
-10.2545
-10.2637
-10.2729
-10.2818
-10.2906
-10.2992
-10.3076
-10.3157
-10.3237
-10.3314
-10.3388
-10.346
-10.3529
-10.0992
-10.1002
-10.103
-10.107
-10.112
-10.118
-10.1249
-10.1324
-10.1405
-10.149
-10.1579
-10.167
-10.1763
-10.1857
-10.1951
-10.2046
-10.214
-10.2233
-10.2326
-10.2418
-10.2508
-10.2597
-10.2684
-10.2769
-10.2852
-10.2934
-10.3012
-10.3089
-10.3163
-10.3234
-10.3303
-10.3369
-10.3431
-10.0964
-10.0967
-10.0984
-10.1016
-10.106
-10.1117
-10.1185
-10.126
-10.1342
-10.1429
-10.1519
-10.1612
-10.1707
-10.1802
-10.1897
-10.1992
-10.2087
-10.218
-10.2272
-10.2362
-10.2451
-10.2538
-10.2623
-10.2706
-10.2786
-10.2864
-10.2939
-10.3012
-10.3081
-10.3148
-10.3212
-10.3273
-10.3331
-10.0946
-10.0967
-10.0999
-10.104
-10.109
-10.1148
-10.1215
-10.1288
-10.1366
-10.1449
-10.1535
-10.1623
-10.1713
-10.1804
-10.1895
-10.1985
-10.2075
-10.2164
-10.2251
-10.2337
-10.2421
-10.2504
-10.2584
-10.2661
-10.2737
-10.281
-10.288
-10.2947
-10.3011
-10.3073
-10.3131
-10.3186
-10.3237
-10.0867
-10.0847
-10.0844
-10.0868
-10.0914
-10.0976
-10.105
-10.1133
-10.1223
-10.1317
-10.1413
-10.1511
-10.1609
-10.1706
-10.1803
-10.1899
-10.1993
-10.2085
-10.2175
-10.2263
-10.2348
-10.2431
-10.2511
-10.2588
-10.2662
-10.2733
-10.2801
-10.2866
-10.2927
-10.2986
-10.304
-10.3092
-10.3139
-10.0929
-10.0984
-10.1027
-10.1058
-10.1096
-10.1144
-10.1203
-10.1269
-10.1342
-10.1419
-10.15
-10.1584
-10.1669
-10.1755
-10.1841
-10.1927
-10.2011
-10.2095
-10.2177
-10.2257
-10.2335
-10.2411
-10.2485
-10.2555
-10.2623
-10.2688
-10.275
-10.2809
-10.2865
-10.2917
-10.2966
-10.3011
-10.3053
-10.0633
-10.0522
-10.049
-10.053
-10.0606
-10.0699
-10.0802
-10.0912
-10.1025
-10.1139
-10.1252
-10.1364
-10.1473
-10.158
-10.1684
-10.1784
-10.1882
-10.1976
-10.2067
-10.2155
-10.2239
-10.232
-10.2397
-10.247
-10.254
-10.2606
-10.2669
-10.2727
-10.2782
-10.2834
-10.2881
-10.2924
-10.2964
-10.1114
-10.1277
-10.1292
-10.1237
-10.1213
-10.1223
-10.1254
-10.1299
-10.1354
-10.1418
-10.1487
-10.1561
-10.1638
-10.1717
-10.1796
-10.1875
-10.1954
-10.2031
-10.2107
-10.2181
-10.2253
-10.2323
-10.239
-10.2454
-10.2515
-10.2573
-10.2628
-10.2679
-10.2727
-10.2772
-10.2813
-10.285
-10.2884
-10.0016
-9.96341
-9.9577
-9.98155
-10.0021
-10.0205
-10.0387
-10.0562
-10.0728
-10.0884
-10.1031
-10.117
-10.1301
-10.1425
-10.1543
-10.1655
-10.1761
-10.1861
-10.1957
-10.2047
-10.2133
-10.2214
-10.2291
-10.2363
-10.2431
-10.2494
-10.2554
-10.2608
-10.2659
-10.2705
-10.2747
-10.2785
-10.2818
-10.2143
-10.2389
-10.2099
-10.1732
-10.1499
-10.142
-10.139
-10.1385
-10.1405
-10.1442
-10.1492
-10.1549
-10.1613
-10.168
-10.175
-10.1821
-10.1892
-10.1963
-10.2032
-10.21
-10.2166
-10.223
-10.2291
-10.235
-10.2405
-10.2457
-10.2507
-10.2552
-10.2595
-10.2634
-10.2669
-10.2701
-10.2729
-9.79861
-9.71683
-9.77391
-9.85478
-9.91131
-9.95003
-9.98364
-10.013
-10.0383
-10.0605
-10.0802
-10.0979
-10.114
-10.1287
-10.1423
-10.1548
-10.1665
-10.1773
-10.1875
-10.1969
-10.2058
-10.2141
-10.2218
-10.229
-10.2357
-10.2418
-10.2475
-10.2527
-10.2574
-10.2617
-10.2655
-10.2688
-10.2717
-10.7752
-10.4972
-10.2915
-10.2005
-10.1634
-10.1429
-10.1303
-10.125
-10.1245
-10.1269
-10.1312
-10.1369
-10.1434
-10.1505
-10.1578
-10.1654
-10.1729
-10.1803
-10.1877
-10.1948
-10.2017
-10.2084
-10.2147
-10.2208
-10.2265
-10.2318
-10.2368
-10.2414
-10.2457
-10.2496
-10.253
-10.2562
-10.2589
-8.81723
-9.37884
-9.6836
-9.79973
-9.88145
-9.94505
-9.99033
-10.0246
-10.0522
-10.075
-10.0942
-10.1109
-10.1257
-10.139
-10.1512
-10.1624
-10.1728
-10.1825
-10.1916
-10.2001
-10.208
-10.2155
-10.2224
-10.2288
-10.2348
-10.2403
-10.2454
-10.25
-10.2542
-10.2579
-10.2612
-10.2641
-10.2665
-9.91217
-10.4672
-10.5362
-10.5981
-10.7093
-10.7881
-10.8458
-10.8943
-10.9388
-10.9824
-11.0273
-11.0748
-11.125
-11.1772
-11.2303
-11.2832
-11.3348
-11.3843
-11.431
-11.4745
-11.5142
-11.5499
-11.581
-11.6069
-11.6269
-11.64
-11.6452
-11.6416
-11.6284
-11.6049
-11.5705
-11.5247
-11.4673
-11.3976
-11.3153
-11.2197
-11.1102
-10.9863
-10.8474
-10.6932
-10.5233
-10.3379
-10.1368
-9.92033
-9.68874
-9.44242
-9.18193
-8.90792
-8.62123
-8.32286
-8.01394
-7.69578
-7.3698
-7.03755
-6.70064
-6.36077
-6.01966
-5.67906
-5.34066
-5.00616
-4.67713
-4.3551
-4.04145
-3.73747
-3.44429
-3.16288
-2.89408
-2.63856
-2.3968
-2.16917
-1.95584
-1.75687
-1.57218
-1.40157
-1.24473
-1.10128
-0.970747
-0.852608
-0.746294
-0.651199
-0.566695
-0.492138
-0.426875
-0.370242
-0.32158
-0.280205
-0.24546
-0.216599
-0.193005
-0.173739
-0.158396
-0.145421
-0.135342
-0.12447
-0.117031
-0.101694
-0.0966505
-0.062871
-0.0703072
0.0201697
-10.7119
-10.97
-10.879
-10.8252
-10.8097
-10.8134
-10.8259
-10.8489
-10.8819
-10.9234
-10.9718
-11.0249
-11.0809
-11.1378
-11.1942
-11.2489
-11.301
-11.35
-11.3956
-11.4376
-11.4758
-11.5099
-11.5395
-11.564
-11.5827
-11.5944
-11.5984
-11.5937
-11.5794
-11.5548
-11.5194
-11.4728
-11.4146
-11.3444
-11.2617
-11.1658
-11.0564
-10.9327
-10.7942
-10.6407
-10.4718
-10.2875
-10.0879
-9.8732
-9.64363
-9.39962
-9.14171
-8.87056
-8.58698
-8.29194
-7.98656
-7.67212
-7.34999
-7.02167
-6.68874
-6.35286
-6.01568
-5.67891
-5.34421
-5.01322
-4.68749
-4.36852
-4.05768
-3.75623
-3.46529
-3.18583
-2.91869
-2.66451
-2.42382
-2.19696
-1.98412
-1.78538
-1.60067
-1.4298
-1.27249
-1.12837
-0.996988
-0.877851
-0.770405
-0.674069
-0.588235
-0.512279
-0.445569
-0.387461
-0.337315
-0.294464
-0.258266
-0.227993
-0.20303
-0.182469
-0.165874
-0.151769
-0.140537
-0.12879
-0.120152
-0.104519
-0.0976069
-0.0655209
-0.0676146
0.012572
-10.4056
-10.5181
-10.5603
-10.609
-10.6775
-10.741
-10.7917
-10.8359
-10.8777
-10.919
-10.9615
-11.0064
-11.0539
-11.1034
-11.1541
-11.2051
-11.2553
-11.3037
-11.3494
-11.3917
-11.4301
-11.4642
-11.4934
-11.5171
-11.5347
-11.5453
-11.5479
-11.5419
-11.5263
-11.5006
-11.4642
-11.4168
-11.3579
-11.2871
-11.204
-11.108
-10.9986
-10.8752
-10.7373
-10.5845
-10.4167
-10.2338
-10.0359
-9.82309
-9.59574
-9.35425
-9.09913
-8.83103
-8.55074
-8.25921
-7.95753
-7.64692
-7.32874
-7.00443
-6.67554
-6.34366
-6.01044
-5.67752
-5.34654
-5.01911
-4.69675
-4.38094
-4.07302
-3.77423
-3.48568
-3.20833
-2.94299
-2.69033
-2.45085
-2.2249
-2.01269
-1.8143
-1.62967
-1.45863
-1.30093
-1.15621
-1.02405
-0.90397
-0.795435
-0.697886
-0.610738
-0.533385
-0.465215
-0.405604
-0.35393
-0.309544
-0.271822
-0.240055
-0.213633
-0.19168
-0.173732
-0.158396
-0.14591
-0.133196
-0.123266
-0.107273
-0.0984031
-0.0680196
-0.064638
0.00501031
-10.5117
-10.6682
-10.729
-10.7478
-10.7726
-10.7976
-10.8202
-10.8454
-10.8752
-10.9099
-10.9492
-10.9925
-11.0387
-11.0865
-11.1346
-11.1821
-11.228
-11.2717
-11.3127
-11.3507
-11.3853
-11.4162
-11.4426
-11.4642
-11.4799
-11.489
-11.4905
-11.4835
-11.4671
-11.4406
-11.4036
-11.3556
-11.2962
-11.225
-11.1417
-11.0457
-10.9364
-10.8134
-10.6762
-10.5244
-10.3578
-10.1764
-9.98022
-9.7695
-9.5445
-9.30563
-9.05338
-8.7884
-8.51147
-8.22349
-7.92553
-7.6188
-7.3046
-6.98435
-6.65957
-6.3318
-6.00266
-5.67375
-5.34668
-5.02302
-4.70426
-4.39183
-4.08706
-3.79116
-3.50522
-3.23019
-2.96685
-2.71587
-2.47776
-2.25286
-2.04139
-1.84345
-1.65899
-1.48788
-1.32985
-1.1846
-1.05171
-0.930732
-0.821152
-0.722431
-0.634
-0.555275
-0.485659
-0.424545
-0.371327
-0.325376
-0.286081
-0.252757
-0.2248
-0.201368
-0.181973
-0.165309
-0.15147
-0.137693
-0.126379
-0.109949
-0.0990519
-0.0703341
-0.0614445
-0.00239273
-10.4957
-10.5792
-10.6195
-10.648
-10.6886
-10.7317
-10.7715
-10.8102
-10.8492
-10.889
-10.9302
-10.973
-11.0168
-11.0616
-11.1066
-11.1513
-11.1948
-11.2364
-11.2756
-11.3118
-11.3444
-11.373
-11.3969
-11.4157
-11.4286
-11.4349
-11.4338
-11.4244
-11.406
-11.3779
-11.3395
-11.2905
-11.2303
-11.1585
-11.0749
-10.9787
-10.8695
-10.7469
-10.6103
-10.4595
-10.2941
-10.1143
-9.91996
-9.71136
-9.48877
-9.25258
-9.00328
-8.74151
-8.46803
-8.18373
-7.88965
-7.58697
-7.27696
-6.96101
-6.64058
-6.31719
-5.9924
-5.66779
-5.34491
-5.02529
-4.7104
-4.40161
-4.10024
-3.80746
-3.52433
-3.25177
-2.99059
-2.74142
-2.50478
-2.28101
-2.07036
-1.87293
-1.68869
-1.51753
-1.35922
-1.21346
-1.07987
-0.95801
-0.847407
-0.747534
-0.657843
-0.577766
-0.506723
-0.44412
-0.389365
-0.341843
-0.300956
-0.266039
-0.236495
-0.211517
-0.190596
-0.172516
-0.157232
-0.142302
-0.129518
-0.112572
-0.0995884
-0.0724772
-0.0581137
-0.00954816
-10.5057
-10.5804
-10.6351
-10.6735
-10.711
-10.7467
-10.7792
-10.8112
-10.8445
-10.8797
-10.9166
-10.9559
-10.9968
-11.0387
-11.081
-11.1227
-11.1631
-11.2016
-11.2376
-11.2706
-11.3001
-11.3258
-11.347
-11.3632
-11.3737
-11.3777
-11.3745
-11.3632
-11.343
-11.3134
-11.2737
-11.2235
-11.1623
-11.0898
-11.0055
-10.909
-10.7997
-10.6773
-10.5412
-10.3911
-10.2269
-10.0486
-9.85607
-9.64961
-9.42948
-9.19604
-8.94979
-8.69136
-8.42147
-8.14102
-7.85102
-7.55259
-7.24699
-6.93557
-6.61974
-6.30099
-5.98081
-5.66075
-5.34231
-5.02697
-4.71614
-4.41119
-4.11337
-3.82383
-3.54361
-3.27363
-3.01466
-2.76735
-2.53221
-2.3096
-2.09979
-1.90287
-1.71886
-1.54766
-1.38906
-1.24279
-1.1085
-0.985765
-0.874137
-0.773111
-0.682161
-0.600734
-0.528267
-0.464181
-0.407894
-0.358805
-0.316323
-0.279799
-0.248641
-0.222076
-0.199573
-0.180009
-0.163203
-0.147036
-0.132704
-0.115162
-0.100046
-0.07446
-0.0547261
-0.0163505
-10.5079
-10.5657
-10.6121
-10.6473
-10.6826
-10.7186
-10.7533
-10.7877
-10.8227
-10.8586
-10.8961
-10.9344
-10.9736
-11.0133
-11.053
-11.0919
-11.1295
-11.1653
-11.1986
-11.2289
-11.2559
-11.2789
-11.2974
-11.3109
-11.3187
-11.3201
-11.3143
-11.3006
-11.2784
-11.2469
-11.2057
-11.1542
-11.092
-11.0187
-10.9339
-10.837
-10.7276
-10.6053
-10.4697
-10.3205
-10.1575
-9.98064
-9.79001
-9.58575
-9.36814
-9.13756
-8.89448
-8.63951
-8.37338
-8.09695
-7.8112
-7.51723
-7.21625
-6.90956
-6.59854
-6.2846
-5.96921
-5.65383
-5.33994
-5.02896
-4.72228
-4.4212
-4.12695
-3.84067
-3.56337
-3.29595
-3.03919
-2.79374
-2.56009
-2.33865
-2.12966
-1.93326
-1.74948
-1.57823
-1.41935
-1.27257
-1.13757
-1.01395
-0.901293
-0.799108
-0.706889
-0.624105
-0.550206
-0.484629
-0.426805
-0.376143
-0.33206
-0.293922
-0.261138
-0.232964
-0.208845
-0.187751
-0.169369
-0.1519
-0.135957
-0.117744
-0.100466
-0.0763042
-0.0513724
-0.0227021
-10.5089
-10.5576
-10.6017
-10.6387
-10.6745
-10.7097
-10.7433
-10.7762
-10.8094
-10.8434
-10.8784
-10.9142
-10.9509
-10.988
-11.0249
-11.0611
-11.0959
-11.1289
-11.1594
-11.187
-11.2112
-11.2314
-11.2472
-11.258
-11.2631
-11.262
-11.2538
-11.2379
-11.2137
-11.1804
-11.1376
-11.0848
-11.0215
-10.9474
-10.8618
-10.7645
-10.655
-10.5328
-10.3977
-10.2493
-10.0875
-9.91224
-9.72353
-9.52154
-9.30654
-9.0789
-8.83909
-8.58771
-8.32544
-8.05314
-7.77174
-7.48232
-7.18603
-6.88413
-6.57794
-6.26883
-5.95822
-5.64752
-5.33816
-5.03152
-4.72894
-4.43169
-4.14099
-3.85793
-3.58352
-3.31865
-3.06408
-2.82046
-2.58831
-2.36802
-2.15986
-1.96398
-1.78043
-1.60914
-1.44997
-1.30268
-1.16698
-1.04249
-0.928797
-0.825451
-0.73196
-0.647811
-0.572473
-0.505395
-0.446021
-0.393775
-0.34808
-0.308316
-0.273892
-0.244093
-0.218339
-0.195687
-0.175693
-0.156877
-0.139281
-0.120337
-0.100887
-0.0780375
-0.0481457
-0.0285251
-10.5081
-10.55
-10.5901
-10.6257
-10.6598
-10.6934
-10.7261
-10.7584
-10.7908
-10.8239
-10.8576
-10.8919
-10.9266
-10.9614
-10.9958
-11.0294
-11.0616
-11.0918
-11.1196
-11.1445
-11.166
-11.1836
-11.1968
-11.205
-11.2076
-11.204
-11.1935
-11.1754
-11.1491
-11.1141
-11.0698
-11.0157
-10.9513
-10.8762
-10.7901
-10.6924
-10.5828
-10.4609
-10.3263
-10.1788
-10.0182
-9.84452
-9.65776
-9.45807
-9.24572
-9.02106
-8.78454
-8.53674
-8.27835
-8.01017
-7.73311
-7.4482
-7.15656
-6.8594
-6.558
-6.25367
-5.94778
-5.6417
-5.33681
-5.03445
-4.73593
-4.44248
-4.15528
-3.87542
-3.60387
-3.34153
-3.08914
-2.84736
-2.61669
-2.39756
-2.19023
-1.99488
-1.81156
-1.64025
-1.48081
-1.33303
-1.19663
-1.07127
-0.956557
-0.852055
-0.757296
-0.671782
-0.595
-0.526416
-0.465484
-0.411642
-0.364322
-0.322918
-0.28684
-0.255401
-0.227994
-0.203765
-0.182138
-0.161945
-0.142673
-0.122952
-0.101345
-0.0796887
-0.0451332
-0.0337724
-10.506
-10.5431
-10.5799
-10.614
-10.647
-10.6795
-10.7113
-10.7426
-10.7738
-10.8054
-10.8373
-10.8696
-10.9021
-10.9345
-10.9664
-10.9974
-11.0269
-11.0545
-11.0796
-11.1018
-11.1207
-11.1357
-11.1462
-11.1519
-11.152
-11.146
-11.1332
-11.113
-11.0848
-11.0481
-11.0023
-10.9469
-10.8815
-10.8057
-10.7189
-10.6209
-10.5113
-10.3896
-10.2556
-10.109
-9.94969
-9.77762
-9.59282
-9.39544
-9.18574
-8.96404
-8.7308
-8.48658
-8.23203
-7.96793
-7.69516
-7.41472
-7.12768
-6.8352
-6.53852
-6.23891
-5.93768
-5.63617
-5.3357
-5.03758
-4.74306
-4.45338
-4.16966
-3.89297
-3.62428
-3.36445
-3.11424
-2.87429
-2.64512
-2.42715
-2.22067
-2.02586
-1.8428
-1.67147
-1.51177
-1.36351
-1.22644
-1.10022
-0.984494
-0.878845
-0.782822
-0.695949
-0.617725
-0.547632
-0.485138
-0.429693
-0.380739
-0.337684
-0.299939
-0.266845
-0.237772
-0.211949
-0.188675
-0.167086
-0.146132
-0.125599
-0.101874
-0.0812846
-0.0424065
-0.0384325
-10.5028
-10.5362
-10.57
-10.6023
-10.6338
-10.6648
-10.6953
-10.7253
-10.7554
-10.7855
-10.8159
-10.8463
-10.8768
-10.9069
-10.9364
-10.9648
-10.9918
-11.0167
-11.0393
-11.0589
-11.0752
-11.0875
-11.0956
-11.0987
-11.0964
-11.088
-11.0731
-11.0508
-11.0208
-10.9824
-10.9352
-10.8785
-10.8121
-10.7355
-10.6483
-10.55
-10.4404
-10.319
-10.1856
-10.0399
-9.8819
-9.71145
-9.52862
-9.33355
-9.12648
-8.90773
-8.67775
-8.43706
-8.18631
-7.92625
-7.65773
-7.3817
-7.0992
-6.81135
-6.51934
-6.22439
-5.92777
-5.63078
-5.33468
-5.04075
-4.75022
-4.46427
-4.18401
-3.91048
-3.64463
-3.38732
-3.13929
-2.90118
-2.67352
-2.45672
-2.2511
-2.05685
-1.87406
-1.70274
-1.5428
-1.39408
-1.25633
-1.12927
-1.01255
-0.90576
-0.808482
-0.720253
-0.64059
-0.56899
-0.504933
-0.447883
-0.397288
-0.352575
-0.313154
-0.278395
-0.247646
-0.220218
-0.195289
-0.17229
-0.149658
-0.128287
-0.102503
-0.0828478
-0.0400129
-0.0425253
-10.4987
-10.5291
-10.5603
-10.5908
-10.6207
-10.6503
-10.6794
-10.7082
-10.7369
-10.7655
-10.7941
-10.8227
-10.851
-10.8789
-10.9061
-10.932
-10.9564
-10.9788
-10.9988
-11.0158
-11.0295
-11.0394
-11.0449
-11.0456
-11.0409
-11.0303
-11.0131
-10.9889
-10.9571
-10.9171
-10.8684
-10.8106
-10.7432
-10.6659
-10.5781
-10.4796
-10.37
-10.2489
-10.1162
-9.97149
-9.81476
-9.64594
-9.46508
-9.2723
-9.06785
-8.85203
-8.62527
-8.38809
-8.1411
-7.88504
-7.62071
-7.34904
-7.07103
-6.78775
-6.50035
-6.21001
-5.91796
-5.62543
-5.33367
-5.0439
-4.75733
-4.47508
-4.19826
-3.92788
-3.66487
-3.41007
-3.16422
-2.92796
-2.70182
-2.48622
-2.28147
-2.08779
-1.90529
-1.734
-1.57383
-1.42466
-1.28627
-1.15838
-1.04067
-0.932753
-0.834227
-0.74465
-0.663553
-0.590447
-0.524828
-0.466171
-0.413934
-0.367558
-0.326456
-0.290026
-0.257594
-0.228555
-0.201969
-0.177553
-0.153256
-0.131023
-0.103252
-0.0843932
-0.0379714
-0.0460901
-10.4938
-10.5218
-10.5506
-10.5792
-10.6075
-10.6355
-10.6632
-10.6906
-10.7178
-10.7449
-10.7718
-10.7985
-10.8248
-10.8505
-10.8753
-10.8989
-10.9208
-10.9407
-10.9582
-10.9727
-10.9839
-10.9912
-10.9943
-10.9926
-10.9856
-10.9727
-10.9535
-10.9273
-10.8937
-10.8521
-10.8021
-10.7431
-10.6748
-10.5967
-10.5085
-10.4098
-10.3002
-10.1795
-10.0474
-9.90369
-9.74825
-9.58106
-9.40215
-9.21166
-9.0098
-8.79688
-8.57332
-8.3396
-8.09634
-7.84422
-7.58405
-7.31669
-7.04311
-6.76435
-6.48151
-6.19573
-5.90819
-5.62008
-5.33262
-5.04698
-4.76433
-4.48577
-4.21238
-3.94513
-3.68495
-3.43267
-3.189
-2.9546
-2.72998
-2.51559
-2.31173
-2.11864
-1.93645
-1.7652
-1.60483
-1.45524
-1.31621
-1.18751
-1.06882
-0.959784
-0.86002
-0.7691
-0.686574
-0.611967
-0.544787
-0.484523
-0.430643
-0.382603
-0.339818
-0.301714
-0.267599
-0.236944
-0.208704
-0.182868
-0.156923
-0.133808
-0.104131
-0.0859267
-0.0362739
-0.0491736
-10.4882
-10.5141
-10.5408
-10.5676
-10.5942
-10.6207
-10.6469
-10.6728
-10.6985
-10.724
-10.7491
-10.774
-10.7982
-10.8218
-10.8443
-10.8656
-10.8851
-10.9025
-10.9175
-10.9295
-10.9382
-10.9431
-10.9438
-10.9398
-10.9305
-10.9155
-10.8942
-10.8661
-10.8307
-10.7876
-10.7362
-10.6761
-10.6069
-10.5281
-10.4395
-10.3406
-10.2311
-10.1107
-9.97927
-9.83653
-9.68239
-9.51681
-9.33985
-9.15161
-8.95232
-8.74228
-8.52188
-8.2916
-8.05201
-7.8038
-7.54771
-7.28461
-7.01541
-6.74112
-6.46278
-6.18151
-5.89843
-5.61471
-5.33151
-5.04996
-4.7712
-4.49631
-4.22631
-3.96219
-3.70484
-3.45506
-3.21359
-2.98104
-2.75797
-2.54479
-2.34184
-2.14936
-1.9675
-1.79631
-1.63576
-1.48575
-1.34611
-1.2166
-1.09695
-0.986814
-0.885822
-0.793569
-0.70962
-0.633516
-0.564778
-0.502909
-0.447387
-0.397682
-0.353215
-0.313438
-0.277639
-0.245371
-0.215483
-0.188226
-0.160655
-0.13664
-0.105138
-0.0874486
-0.0348956
-0.0518237
-10.4819
-10.506
-10.5308
-10.5558
-10.5808
-10.6057
-10.6304
-10.6548
-10.6789
-10.7027
-10.7261
-10.7491
-10.7713
-10.7928
-10.8131
-10.832
-10.8492
-10.8642
-10.8767
-10.8864
-10.8927
-10.8952
-10.8935
-10.8872
-10.8757
-10.8585
-10.8352
-10.8053
-10.7683
-10.7236
-10.6709
-10.6097
-10.5395
-10.4601
-10.371
-10.272
-10.1626
-10.0426
-9.91181
-9.77005
-9.6172
-9.45324
-9.2782
-9.0922
-8.89546
-8.68825
-8.47097
-8.24408
-8.00813
-7.76376
-7.51172
-7.25282
-6.98794
-6.71806
-6.44417
-6.16735
-5.88869
-5.6093
-5.33031
-5.05281
-4.77791
-4.50666
-4.24005
-3.97903
-3.72449
-3.47722
-3.23794
-3.00726
-2.78573
-2.57378
-2.37176
-2.1799
-1.99839
-1.82727
-1.66655
-1.51615
-1.37592
-1.24563
-1.12503
-1.0138
-0.911596
-0.818019
-0.732655
-0.65506
-0.58477
-0.521299
-0.464138
-0.412771
-0.366623
-0.325174
-0.287698
-0.253818
-0.222292
-0.193616
-0.164446
-0.139513
-0.106268
-0.0889578
-0.033805
-0.0540898
-10.475
-10.4974
-10.5205
-10.5438
-10.5672
-10.5905
-10.6137
-10.6365
-10.659
-10.6812
-10.7028
-10.7239
-10.7442
-10.7636
-10.7817
-10.7984
-10.8132
-10.8259
-10.8361
-10.8433
-10.8472
-10.8474
-10.8435
-10.8349
-10.8212
-10.802
-10.7768
-10.745
-10.7063
-10.6602
-10.6062
-10.5439
-10.4729
-10.3928
-10.3033
-10.2041
-10.0948
-9.97521
-9.8451
-9.70432
-9.55275
-9.39038
-9.21725
-9.03346
-8.83923
-8.63483
-8.42063
-8.19708
-7.96471
-7.72414
-7.47609
-7.22133
-6.96071
-6.69517
-6.42568
-6.15325
-5.87895
-5.60384
-5.32901
-5.05553
-4.78445
-4.5168
-4.25355
-3.99563
-3.74389
-3.49911
-3.26202
-3.03321
-2.81323
-2.60253
-2.40144
-2.21023
-2.02907
-1.85805
-1.69719
-1.54641
-1.4056
-1.27455
-1.15302
-1.04071
-0.937302
-0.842413
-0.755643
-0.676566
-0.604729
-0.539663
-0.480867
-0.427842
-0.380018
-0.336903
-0.297755
-0.262271
-0.229119
-0.199029
-0.168286
-0.142422
-0.107513
-0.0904543
-0.0329702
-0.056022
-10.4676
-10.4884
-10.5099
-10.5317
-10.5535
-10.5752
-10.5967
-10.618
-10.6389
-10.6594
-10.6793
-10.6985
-10.7169
-10.7342
-10.7502
-10.7647
-10.7772
-10.7876
-10.7955
-10.8004
-10.802
-10.8
-10.7937
-10.783
-10.7672
-10.746
-10.7188
-10.6853
-10.645
-10.5974
-10.5421
-10.4788
-10.4069
-10.3262
-10.2364
-10.137
-10.0278
-9.90863
-9.77921
-9.63939
-9.4891
-9.32831
-9.15706
-8.97546
-8.7837
-8.58207
-8.3709
-8.15064
-7.9218
-7.68497
-7.44084
-7.19016
-6.93374
-6.67248
-6.40731
-6.13922
-5.86922
-5.59834
-5.32762
-5.05811
-4.79081
-4.52673
-4.26681
-4.01195
-3.76299
-3.52071
-3.28579
-3.05886
-2.84044
-2.63098
-2.43084
-2.24028
-2.0595
-1.8886
-1.72761
-1.57648
-1.4351
-1.3033
-1.18086
-1.0675
-0.962898
-0.86671
-0.778546
-0.697996
-0.624622
-0.557968
-0.497544
-0.442869
-0.393376
-0.348601
-0.30779
-0.270709
-0.235946
-0.204451
-0.172164
-0.145358
-0.10886
-0.091939
-0.0323599
-0.0576709
-10.4596
-10.4791
-10.499
-10.5192
-10.5395
-10.5597
-10.5797
-10.5993
-10.6186
-10.6374
-10.6555
-10.6729
-10.6894
-10.7047
-10.7186
-10.7309
-10.7413
-10.7495
-10.7551
-10.7577
-10.7571
-10.7528
-10.7444
-10.7315
-10.7137
-10.6905
-10.6615
-10.6263
-10.5844
-10.5354
-10.4789
-10.4145
-10.3418
-10.2605
-10.1703
-10.0708
-9.96175
-9.84295
-9.7142
-9.57535
-9.42632
-9.26709
-9.09769
-8.91824
-8.72893
-8.53001
-8.32183
-8.10481
-7.87944
-7.64629
-7.40601
-7.15934
-6.90705
-6.65001
-6.3891
-6.12527
-5.8595
-5.59279
-5.32613
-5.06053
-4.79697
-4.53642
-4.2798
-4.02798
-3.78179
-3.54198
-3.30923
-3.08416
-2.8673
-2.6591
-2.45991
-2.27002
-2.08963
-1.91887
-1.75776
-1.6063
-1.46438
-1.33185
-1.20852
-1.09411
-0.98834
-0.890867
-0.801323
-0.719313
-0.644412
-0.57618
-0.514138
-0.457821
-0.406668
-0.360243
-0.317781
-0.279116
-0.242757
-0.209868
-0.176066
-0.148313
-0.110296
-0.0934137
-0.0319423
-0.0590858
-10.4512
-10.4693
-10.4878
-10.5065
-10.5253
-10.5439
-10.5624
-10.5805
-10.5982
-10.6153
-10.6317
-10.6472
-10.6618
-10.6751
-10.687
-10.6973
-10.7055
-10.7115
-10.7149
-10.7154
-10.7125
-10.7061
-10.6955
-10.6806
-10.6607
-10.6356
-10.6048
-10.568
-10.5245
-10.4742
-10.4165
-10.3511
-10.2776
-10.1958
-10.1052
-10.0055
-9.89664
-9.77824
-9.65016
-9.51227
-9.36449
-9.20679
-9.03922
-8.86189
-8.67497
-8.47873
-8.27349
-8.05964
-7.83767
-7.60813
-7.37165
-7.12891
-6.88068
-6.62777
-6.37105
-6.11142
-5.84982
-5.5872
-5.32454
-5.0628
-4.80293
-4.54587
-4.2925
-4.04369
-3.80024
-3.56288
-3.3323
-3.10909
-2.89379
-2.68684
-2.48861
-2.2994
-2.11942
-1.9488
-1.7876
-1.63582
-1.49338
-1.36015
-1.23594
-1.12051
-1.01358
-0.914839
-0.823931
-0.740475
-0.664061
-0.594263
-0.530615
-0.472667
-0.419866
-0.371803
-0.327704
-0.287468
-0.249534
-0.215263
-0.179977
-0.151275
-0.111802
-0.0948795
-0.0316839
-0.0603151
-10.4423
-10.4591
-10.4763
-10.4936
-10.5109
-10.5281
-10.545
-10.5616
-10.5776
-10.5931
-10.6077
-10.6215
-10.6342
-10.6456
-10.6555
-10.6637
-10.6699
-10.6738
-10.675
-10.6734
-10.6684
-10.6598
-10.6472
-10.6302
-10.6085
-10.5815