/*--------------------------------*- C++ -*----------------------------------*\
  =========                 |
  \\      /  F ield         | OpenFOAM: The Open Source CFD Toolbox
   \\    /   O peration     | Website:  https://openfoam.org
    \\  /    A nd           | Version:  10
     \\/     M anipulation  |
\*---------------------------------------------------------------------------*/
FoamFile
{
    format      ascii;
    class       surfaceScalarField;
    location    "0.195";
    object      phi;
}
// * * * * * * * * * * * * * * * * * * * * * * * * * * * * * * * * * * * * * //

dimensions      [0 3 -1 0 0 0 0];

internalField   nonuniform List<scalar> 
13452
(
6.0577e-05
-3.08523e-07
6.03703e-05
2.06725e-07
5.98977e-05
4.72565e-07
5.92831e-05
6.14622e-07
5.86765e-05
6.06573e-07
5.81382e-05
5.38312e-07
5.76708e-05
4.67411e-07
5.72642e-05
4.06629e-07
5.6907e-05
3.57184e-07
5.65893e-05
3.1771e-07
5.63032e-05
2.8603e-07
5.6043e-05
2.60187e-07
5.58043e-05
2.38702e-07
5.55838e-05
2.20509e-07
5.5379e-05
2.04849e-07
5.51878e-05
1.91185e-07
5.50087e-05
1.79139e-07
5.48402e-05
1.68442e-07
5.46813e-05
1.58906e-07
5.45309e-05
1.50402e-07
5.4388e-05
1.42856e-07
5.42518e-05
1.36245e-07
5.41212e-05
1.30607e-07
5.39951e-05
1.26074e-07
5.38722e-05
1.22906e-07
5.37505e-05
1.21693e-07
5.36272e-05
1.23338e-07
5.34968e-05
1.30395e-07
5.33497e-05
1.47088e-07
5.3169e-05
1.80685e-07
5.28927e-05
2.7633e-07
5.24896e-05
4.03089e-07
7.86403e-07
5.17032e-05
6.18026e-05
-1.20773e-07
6.17623e-05
2.47021e-07
6.18788e-05
3.56014e-07
6.20398e-05
4.53625e-07
6.21458e-05
5.00592e-07
6.21743e-05
5.09864e-07
6.21397e-05
5.01967e-07
6.20629e-05
4.83417e-07
6.19603e-05
4.59785e-07
6.18431e-05
4.34917e-07
6.17185e-05
4.10637e-07
6.1591e-05
3.87703e-07
6.14633e-05
3.66387e-07
6.13371e-05
3.46723e-07
6.12133e-05
3.28632e-07
6.10925e-05
3.12e-07
6.09749e-05
2.96708e-07
6.08607e-05
2.82651e-07
6.07499e-05
2.69744e-07
6.06424e-05
2.57929e-07
6.0538e-05
2.47178e-07
6.04368e-05
2.37506e-07
6.03384e-05
2.28981e-07
6.02427e-05
2.21755e-07
6.01495e-05
2.16116e-07
6.00587e-05
2.12542e-07
5.997e-05
2.1201e-07
5.98847e-05
2.15702e-07
5.98038e-05
2.27981e-07
5.97365e-05
2.47924e-07
5.97093e-05
3.03603e-07
5.97607e-05
3.51692e-07
5.35308e-07
6.00118e-05
6.36612e-05
-2.05313e-08
6.37525e-05
1.55678e-07
6.38141e-05
2.94393e-07
6.38664e-05
4.01372e-07
6.39088e-05
4.58176e-07
6.39397e-05
4.78963e-07
6.39592e-05
4.82421e-07
6.39659e-05
4.76771e-07
6.396e-05
4.65635e-07
6.39434e-05
4.51574e-07
6.39179e-05
4.3611e-07
6.38855e-05
4.20116e-07
6.38478e-05
4.04134e-07
6.3806e-05
3.88492e-07
6.37612e-05
3.7338e-07
6.37143e-05
3.58908e-07
6.36659e-05
3.45142e-07
6.36164e-05
3.32125e-07
6.35663e-05
3.19892e-07
6.35157e-05
3.08486e-07
6.34649e-05
2.97966e-07
6.3414e-05
2.88424e-07
6.3363e-05
2.80009e-07
6.33118e-05
2.72943e-07
6.32603e-05
2.67607e-07
6.32083e-05
2.64532e-07
6.31555e-05
2.64805e-07
6.31018e-05
2.69403e-07
6.30475e-05
2.82336e-07
6.2993e-05
3.02368e-07
6.29488e-05
3.47835e-07
6.29074e-05
3.93084e-07
5.02356e-07
6.29403e-05
6.55758e-05
-1.33077e-08
6.55533e-05
1.78214e-07
6.55638e-05
2.83927e-07
6.56041e-05
3.61082e-07
6.56525e-05
4.09754e-07
6.56968e-05
4.34643e-07
6.57334e-05
4.45808e-07
6.5762e-05
4.48188e-07
6.57831e-05
4.44543e-07
6.57975e-05
4.37189e-07
6.5806e-05
4.27626e-07
6.58093e-05
4.16746e-07
6.58083e-05
4.05138e-07
6.58036e-05
3.93202e-07
6.57958e-05
3.8121e-07
6.57853e-05
3.69356e-07
6.57727e-05
3.57784e-07
6.57582e-05
3.4661e-07
6.57422e-05
3.35937e-07
6.57248e-05
3.25867e-07
6.57062e-05
3.16516e-07
6.56866e-05
3.08031e-07
6.5666e-05
3.0061e-07
6.56444e-05
2.94527e-07
6.56219e-05
2.902e-07
6.55982e-05
2.88174e-07
6.55736e-05
2.89446e-07
6.55481e-05
2.94909e-07
6.55231e-05
3.07325e-07
6.54992e-05
3.26252e-07
6.54867e-05
3.60301e-07
6.54834e-05
3.96446e-07
4.53194e-07
6.55325e-05
6.74264e-05
1.70338e-08
6.74512e-05
1.53485e-07
6.74791e-05
2.55953e-07
6.75096e-05
3.30586e-07
6.75398e-05
3.79569e-07
6.75689e-05
4.05539e-07
6.75969e-05
4.17888e-07
6.76229e-05
4.22162e-07
6.76463e-05
4.21075e-07
6.7667e-05
4.16569e-07
6.76847e-05
4.09895e-07
6.76996e-05
4.01808e-07
6.7712e-05
3.92819e-07
6.77219e-05
3.83293e-07
6.77296e-05
3.73493e-07
6.77353e-05
3.63616e-07
6.77393e-05
3.53822e-07
6.77416e-05
3.44247e-07
6.77426e-05
3.35017e-07
6.77422e-05
3.2626e-07
6.77406e-05
3.18119e-07
6.77378e-05
3.10766e-07
6.7734e-05
3.04422e-07
6.77292e-05
2.99374e-07
6.77233e-05
2.96032e-07
6.77166e-05
2.94905e-07
6.77092e-05
2.96814e-07
6.77017e-05
3.02481e-07
6.76954e-05
3.13647e-07
6.76915e-05
3.30054e-07
6.76965e-05
3.55333e-07
6.77106e-05
3.8238e-07
4.1498e-07
6.77488e-05
6.93767e-05
2.43142e-08
6.93862e-05
1.44054e-07
6.94042e-05
2.37922e-07
6.943e-05
3.04843e-07
6.94592e-05
3.50325e-07
6.94881e-05
3.76604e-07
6.95155e-05
3.90487e-07
6.95411e-05
3.96589e-07
6.95648e-05
3.97369e-07
6.95867e-05
3.94652e-07
6.96069e-05
3.8968e-07
6.96255e-05
3.83223e-07
6.96426e-05
3.75794e-07
6.96581e-05
3.67751e-07
6.96722e-05
3.59355e-07
6.9685e-05
3.50802e-07
6.96966e-05
3.42252e-07
6.9707e-05
3.33845e-07
6.97163e-05
3.25713e-07
6.97246e-05
3.17992e-07
6.97319e-05
3.10832e-07
6.97382e-05
3.04411e-07
6.97437e-05
2.98949e-07
6.97484e-05
2.9472e-07
6.97523e-05
2.92089e-07
6.97557e-05
2.9149e-07
6.9759e-05
2.93538e-07
6.97627e-05
2.98745e-07
6.97683e-05
3.08062e-07
6.97772e-05
3.21188e-07
6.97934e-05
3.39145e-07
6.98181e-05
3.57686e-07
3.75545e-07
6.98575e-05
7.13592e-05
3.14051e-08
7.13707e-05
1.32587e-07
7.13915e-05
2.17164e-07
7.1417e-05
2.79335e-07
7.14441e-05
3.23222e-07
7.14705e-05
3.50213e-07
7.14957e-05
3.65307e-07
7.15196e-05
3.72636e-07
7.15423e-05
3.74637e-07
7.15639e-05
3.73076e-07
7.15844e-05
3.69183e-07
7.16039e-05
3.63742e-07
7.16224e-05
3.57276e-07
7.164e-05
3.50155e-07
7.16567e-05
3.42643e-07
7.16726e-05
3.34941e-07
7.16876e-05
3.27212e-07
7.17019e-05
3.19597e-07
7.17153e-05
3.12228e-07
7.17281e-05
3.05242e-07
7.17401e-05
2.98787e-07
7.17515e-05
2.93032e-07
7.17623e-05
2.8818e-07
7.17725e-05
2.84476e-07
7.17824e-05
2.82222e-07
7.17921e-05
2.81753e-07
7.18022e-05
2.8349e-07
7.18132e-05
2.87734e-07
7.18264e-05
2.94897e-07
7.1843e-05
3.04575e-07
7.18655e-05
3.16592e-07
7.1895e-05
3.28173e-07
3.36979e-07
7.19336e-05
7.34032e-05
3.34297e-08
7.34137e-05
1.22089e-07
7.34321e-05
1.98798e-07
7.34551e-05
2.56386e-07
7.34804e-05
2.97907e-07
7.35059e-05
3.2473e-07
7.35306e-05
3.4059e-07
7.35542e-05
3.48969e-07
7.35768e-05
3.52082e-07
7.35983e-05
3.51556e-07
7.36189e-05
3.48578e-07
7.36387e-05
3.43944e-07
7.36578e-05
3.38202e-07
7.36762e-05
3.31741e-07
7.3694e-05
3.24844e-07
7.37112e-05
3.17723e-07
7.37279e-05
3.10548e-07
7.3744e-05
3.03466e-07
7.37596e-05
2.96611e-07
7.37748e-05
2.90115e-07
7.37894e-05
2.84121e-07
7.38037e-05
2.78783e-07
7.38176e-05
2.7428e-07
7.38312e-05
2.70815e-07
7.38448e-05
2.6862e-07
7.38587e-05
2.67933e-07
7.38732e-05
2.69002e-07
7.38889e-05
2.71953e-07
7.3907e-05
2.76853e-07
7.39283e-05
2.83224e-07
7.39545e-05
2.9042e-07
7.39862e-05
2.9651e-07
2.99373e-07
7.40238e-05
7.55022e-05
3.37047e-08
7.5512e-05
1.1226e-07
7.55294e-05
1.81449e-07
7.55511e-05
2.34619e-07
7.55753e-05
2.73785e-07
7.55998e-05
3.00169e-07
7.56239e-05
3.16517e-07
7.56472e-05
3.25699e-07
7.56695e-05
3.29713e-07
7.5691e-05
3.30061e-07
7.57117e-05
3.2787e-07
7.57317e-05
3.23931e-07
7.57512e-05
3.18799e-07
7.577e-05
3.12878e-07
7.57884e-05
3.06464e-07
7.58063e-05
2.99783e-07
7.58239e-05
2.93015e-07
7.5841e-05
2.86309e-07
7.58578e-05
2.79801e-07
7.58743e-05
2.73622e-07
7.58905e-05
2.67903e-07
7.59065e-05
2.62783e-07
7.59224e-05
2.58411e-07
7.59383e-05
2.54945e-07
7.59544e-05
2.52552e-07
7.59709e-05
2.51376e-07
7.59884e-05
2.51533e-07
7.60073e-05
2.53017e-07
7.60285e-05
2.55694e-07
7.60526e-05
2.5906e-07
7.60807e-05
2.62362e-07
7.6113e-05
2.64208e-07
2.62993e-07
7.61494e-05
7.76607e-05
3.26294e-08
7.76701e-05
1.02862e-07
7.76862e-05
1.65288e-07
7.77065e-05
2.14304e-07
7.77293e-05
2.51048e-07
7.77528e-05
2.76598e-07
7.77763e-05
2.93037e-07
7.77993e-05
3.02718e-07
7.78216e-05
3.07415e-07
7.78432e-05
3.08486e-07
7.78641e-05
3.06979e-07
7.78843e-05
3.03656e-07
7.79041e-05
2.99069e-07
7.79233e-05
2.93625e-07
7.79422e-05
2.8763e-07
7.79606e-05
2.81317e-07
7.79788e-05
2.74873e-07
7.79966e-05
2.68453e-07
7.80142e-05
2.6219e-07
7.80316e-05
2.56211e-07
7.80489e-05
2.50637e-07
7.80661e-05
2.45586e-07
7.80833e-05
2.41179e-07
7.81007e-05
2.37533e-07
7.81185e-05
2.34752e-07
7.8137e-05
2.32907e-07
7.81565e-05
2.32015e-07
7.81776e-05
2.31981e-07
7.82007e-05
2.32571e-07
7.82265e-05
2.333e-07
7.82553e-05
2.33465e-07
7.82875e-05
2.32052e-07
2.2794e-07
7.83226e-05
7.98801e-05
3.08236e-08
7.9889e-05
9.3943e-08
7.99041e-05
1.50224e-07
7.99232e-05
1.95228e-07
7.99447e-05
2.2949e-07
7.99674e-05
2.53936e-07
7.99903e-05
2.70166e-07
8.00129e-05
2.80089e-07
8.00351e-05
2.85256e-07
8.00567e-05
2.86883e-07
8.00777e-05
2.85936e-07
8.00982e-05
2.83137e-07
8.01183e-05
2.79024e-07
8.01379e-05
2.74e-07
8.01572e-05
2.68372e-07
8.01761e-05
2.62378e-07
8.01948e-05
2.56206e-07
8.02132e-05
2.5001e-07
8.02315e-05
2.43924e-07
8.02496e-05
2.38065e-07
8.02677e-05
2.32542e-07
8.02858e-05
2.27455e-07
8.03041e-05
2.22896e-07
8.03227e-05
2.18944e-07
8.03418e-05
2.15653e-07
8.03617e-05
2.13037e-07
8.03827e-05
2.11047e-07
8.04051e-05
2.09536e-07
8.04294e-05
2.08236e-07
8.0456e-05
2.06707e-07
8.04851e-05
2.04357e-07
8.05167e-05
2.00446e-07
1.94228e-07
8.05504e-05
8.21626e-05
2.86228e-08
8.21711e-05
8.54472e-08
8.21852e-05
1.36134e-07
8.22032e-05
1.77283e-07
8.22236e-05
2.09046e-07
8.22454e-05
2.3218e-07
8.22676e-05
2.47933e-07
8.22898e-05
2.57853e-07
8.23118e-05
2.63277e-07
8.23334e-05
2.65293e-07
8.23546e-05
2.64775e-07
8.23753e-05
2.62402e-07
8.23956e-05
2.58687e-07
8.24156e-05
2.54023e-07
8.24353e-05
2.48712e-07
8.24547e-05
2.42989e-07
8.24738e-05
2.37043e-07
8.24928e-05
2.31024e-07
8.25117e-05
2.2506e-07
8.25305e-05
2.19261e-07
8.25493e-05
2.13721e-07
8.25682e-05
2.08522e-07
8.25874e-05
2.03731e-07
8.2607e-05
1.99393e-07
8.26271e-05
1.95525e-07
8.2648e-05
1.92099e-07
8.267e-05
1.89028e-07
8.26934e-05
1.86143e-07
8.27185e-05
1.83177e-07
8.27454e-05
1.79754e-07
8.27744e-05
1.75398e-07
8.28053e-05
1.69577e-07
1.61806e-07
8.28377e-05
8.45102e-05
2.62429e-08
8.45182e-05
7.73617e-08
8.45315e-05
1.22922e-07
8.45484e-05
1.60361e-07
8.45678e-05
1.89611e-07
8.45887e-05
2.1127e-07
8.46103e-05
2.26324e-07
8.46322e-05
2.36025e-07
8.46539e-05
2.41517e-07
8.46754e-05
2.43761e-07
8.46967e-05
2.43544e-07
8.47176e-05
2.41494e-07
8.47382e-05
2.38096e-07
8.47585e-05
2.33726e-07
8.47785e-05
2.28676e-07
8.47983e-05
2.23177e-07
8.4818e-05
2.17411e-07
8.48375e-05
2.11524e-07
8.48569e-05
2.05636e-07
8.48763e-05
1.99847e-07
8.48958e-05
1.94239e-07
8.49154e-05
1.88874e-07
8.49354e-05
1.83798e-07
8.49557e-05
1.7903e-07
8.49767e-05
1.7456e-07
8.49984e-05
1.70333e-07
8.50212e-05
1.66244e-07
8.50453e-05
1.62121e-07
8.50707e-05
1.57721e-07
8.50977e-05
1.52732e-07
8.51263e-05
1.4679e-07
8.51564e-05
1.39513e-07
1.30597e-07
8.51876e-05
8.69246e-05
2.38118e-08
8.69323e-05
6.96657e-08
8.69447e-05
1.10488e-07
8.69607e-05
1.44356e-07
8.69792e-05
1.71092e-07
8.69994e-05
1.91153e-07
8.70204e-05
2.05322e-07
8.70418e-05
2.14613e-07
8.70633e-05
2.19998e-07
8.70847e-05
2.22317e-07
8.7106e-05
2.22277e-07
8.71271e-05
2.20448e-07
8.71479e-05
2.17284e-07
8.71685e-05
2.1314e-07
8.71888e-05
2.08295e-07
8.7209e-05
2.0297e-07
8.72291e-05
1.97339e-07
8.72491e-05
1.91542e-07
8.7269e-05
1.85689e-07
8.7289e-05
1.7987e-07
8.73091e-05
1.74152e-07
8.73294e-05
1.68584e-07
8.735e-05
1.63193e-07
8.73711e-05
1.57979e-07
8.73927e-05
1.52913e-07
8.74151e-05
1.47927e-07
8.74384e-05
1.42911e-07
8.74629e-05
1.37702e-07
8.74885e-05
1.32093e-07
8.75154e-05
1.25833e-07
8.75435e-05
1.18649e-07
8.75728e-05
1.10272e-07
1.00518e-07
8.76028e-05
8.94079e-05
2.14028e-08
8.94153e-05
6.23385e-08
8.9427e-05
9.87465e-08
8.94422e-05
1.29174e-07
8.94599e-05
1.534e-07
8.94793e-05
1.71765e-07
8.94997e-05
1.84895e-07
8.95207e-05
1.93609e-07
8.9542e-05
1.98729e-07
8.95633e-05
2.00983e-07
8.95846e-05
2.00999e-07
8.96057e-05
1.99293e-07
8.96267e-05
1.96281e-07
8.96476e-05
1.92295e-07
8.96683e-05
1.87598e-07
8.96889e-05
1.82398e-07
8.97093e-05
1.7686e-07
8.97298e-05
1.71113e-07
8.97502e-05
1.6526e-07
8.97707e-05
1.59377e-07
8.97913e-05
1.53522e-07
8.98122e-05
1.47729e-07
8.98334e-05
1.42011e-07
8.9855e-05
1.36357e-07
8.98772e-05
1.30725e-07
8.99001e-05
1.25044e-07
8.99238e-05
1.19206e-07
8.99484e-05
1.1307e-07
8.9974e-05
1.06462e-07
9.00007e-05
9.91867e-08
9.00283e-05
9.10436e-08
9.00567e-05
8.18484e-08
7.14955e-08
9.00857e-05
9.19622e-05
1.90547e-08
9.19692e-05
5.53558e-08
9.19803e-05
8.76165e-08
9.19948e-05
1.14723e-07
9.20117e-05
1.36451e-07
9.20304e-05
1.53046e-07
9.20503e-05
1.65007e-07
9.20709e-05
1.72999e-07
9.2092e-05
1.7771e-07
9.21132e-05
1.7977e-07
9.21344e-05
1.79728e-07
9.21557e-05
1.78049e-07
9.21769e-05
1.7511e-07
9.21979e-05
1.71216e-07
9.22189e-05
1.66612e-07
9.22398e-05
1.61491e-07
9.22607e-05
1.56005e-07
9.22815e-05
1.50274e-07
9.23024e-05
1.4439e-07
9.23233e-05
1.3842e-07
9.23445e-05
1.3241e-07
9.23658e-05
1.26384e-07
9.23875e-05
1.20345e-07
9.24096e-05
1.14273e-07
9.24322e-05
1.08124e-07
9.24554e-05
1.01825e-07
9.24793e-05
9.52818e-08
9.2504e-05
8.83721e-08
9.25295e-05
8.0957e-08
9.25558e-05
7.28887e-08
9.25828e-05
6.40235e-08
9.26104e-05
5.42371e-08
4.34773e-08
9.26385e-05
9.45894e-05
1.67854e-08
9.45961e-05
4.86913e-08
9.46067e-05
7.70269e-08
9.46205e-05
1.00922e-07
9.46368e-05
1.20165e-07
9.46549e-05
1.34932e-07
9.46743e-05
1.45617e-07
9.46945e-05
1.5276e-07
9.47153e-05
1.56934e-07
9.47364e-05
1.5868e-07
9.47576e-05
1.58476e-07
9.47789e-05
1.56733e-07
9.48003e-05
1.53791e-07
9.48216e-05
1.49926e-07
9.48428e-05
1.45361e-07
9.4864e-05
1.40275e-07
9.48852e-05
1.34806e-07
9.49064e-05
1.29062e-07
9.49277e-05
1.23125e-07
9.49491e-05
1.17053e-07
9.49706e-05
1.10881e-07
9.49923e-05
1.04627e-07
9.50144e-05
9.82861e-08
9.50368e-05
9.18344e-08
9.50597e-05
8.52271e-08
9.50832e-05
7.83991e-08
9.51072e-05
7.12668e-08
9.51318e-05
6.37312e-08
9.51571e-05
5.56839e-08
9.5183e-05
4.70156e-08
9.52094e-05
3.76267e-08
9.52362e-05
2.74361e-08
1.64268e-08
9.52632e-05
9.72917e-05
1.46004e-08
9.72981e-05
4.23169e-08
9.73082e-05
6.69128e-08
9.73214e-05
8.76937e-08
9.73371e-05
1.0447e-07
9.73547e-05
1.17361e-07
9.73736e-05
1.2668e-07
9.73935e-05
1.32863e-07
9.74141e-05
1.36388e-07
9.7435e-05
1.37711e-07
9.74563e-05
1.37247e-07
9.74776e-05
1.35356e-07
9.74991e-05
1.32339e-07
9.75206e-05
1.28444e-07
9.75421e-05
1.23871e-07
9.75636e-05
1.1878e-07
9.75851e-05
1.13296e-07
9.76066e-05
1.07517e-07
9.76282e-05
1.01512e-07
9.76499e-05
9.53308e-08
9.76718e-05
8.90019e-08
9.76939e-05
8.25353e-08
9.77163e-05
7.59232e-08
9.7739e-05
6.91401e-08
9.77621e-05
6.21444e-08
9.77856e-05
5.48791e-08
9.78096e-05
4.72745e-08
9.78341e-05
3.92523e-08
9.7859e-05
3.07305e-08
9.78844e-05
2.16311e-08
9.79101e-05
1.18873e-08
9.79361e-05
1.44947e-09
-9.67637e-09
9.79622e-05
0.000100071
1.24978e-08
0.000100077
3.62035e-08
0.000100087
5.72155e-08
0.0001001
7.49682e-08
0.000100115
8.92938e-08
0.000100132
1.00273e-07
0.000100151
1.0815e-07
0.00010017
1.13279e-07
0.00010019
1.16052e-07
0.000100211
1.16855e-07
0.000100232
1.16043e-07
0.000100254
1.13926e-07
0.000100276
1.10768e-07
0.000100297
1.06787e-07
0.000100319
1.02162e-07
0.000100341
9.70321e-08
0.000100362
9.15095e-08
0.000100384
8.56779e-08
0.000100406
7.95981e-08
0.000100428
7.33106e-08
0.00010045
6.68375e-08
0.000100473
6.01845e-08
0.000100495
5.33414e-08
0.000100518
4.62841e-08
0.000100541
3.89753e-08
0.000100565
3.13673e-08
0.000100589
2.34042e-08
0.000100613
1.50257e-08
0.000100637
6.17229e-09
0.000100662
-3.20971e-09
0.000100687
-1.31622e-08
0.000100713
-2.37129e-08
-3.48402e-08
0.000100738
0.00010293
1.04719e-08
0.000102936
3.03221e-08
0.000102945
4.78809e-08
0.000102958
6.26797e-08
0.000102972
7.45713e-08
0.000102989
8.36074e-08
0.000103007
8.99788e-08
0.000103026
9.39702e-08
0.000103047
9.59024e-08
0.000103067
9.60982e-08
0.000103089
9.48572e-08
0.00010311
9.24442e-08
0.000103132
8.90859e-08
0.000103154
8.49713e-08
0.000103175
8.02546e-08
0.000103197
7.50582e-08
0.000103219
6.94778e-08
0.000103242
6.35849e-08
0.000103264
5.74305e-08
0.000103286
5.10474e-08
0.000103308
4.44523e-08
0.000103331
3.76472e-08
0.000103354
3.06216e-08
0.000103377
2.33533e-08
0.0001034
1.58108e-08
0.000103423
7.95517e-09
0.000103447
-2.56697e-10
0.000103471
-8.86957e-09
0.000103495
-1.79248e-08
0.000103519
-2.74572e-08
0.000103543
-3.74902e-08
0.000103568
-4.8036e-08
-5.90633e-08
0.000103592
0.000105871
8.51521e-09
0.000105876
2.46441e-08
0.000105885
3.88593e-08
0.000105897
5.0767e-08
0.000105912
6.02384e-08
0.000105928
6.73052e-08
0.000105946
7.21154e-08
0.000105965
7.48979e-08
0.000105985
7.59106e-08
0.000106006
7.54217e-08
0.000106027
7.36808e-08
0.000106048
7.0909e-08
0.00010607
6.72978e-08
0.000106092
6.30074e-08
0.000106114
5.8168e-08
0.000106136
5.28832e-08
0.000106159
4.72331e-08
0.000106181
4.12769e-08
0.000106203
3.5056e-08
0.000106226
2.85959e-08
0.000106248
2.19084e-08
0.000106271
1.49932e-08
0.000106294
7.83962e-09
0.000106317
4.28576e-10
0.00010634
-7.26652e-09
0.000106363
-1.52755e-08
0.000106386
-2.36308e-08
0.00010641
-3.2364e-08
0.000106433
-4.15023e-08
0.000106457
-5.10659e-08
0.00010648
-6.10652e-08
0.000106504
-7.15011e-08
-8.23367e-08
0.000106527
0.000108895
6.61928e-09
0.000108901
1.91421e-08
0.00010891
3.01051e-08
0.000108921
3.91732e-08
0.000108935
4.62347e-08
0.000108951
5.13085e-08
0.000108969
5.45087e-08
0.000108988
5.60197e-08
0.000109008
5.60426e-08
0.000109028
5.48005e-08
0.000109049
5.2497e-08
0.000109071
4.93123e-08
0.000109093
4.54033e-08
0.000109115
4.09024e-08
0.000109137
3.59159e-08
0.00010916
3.05282e-08
0.000109182
2.48039e-08
0.000109204
1.87898e-08
0.000109227
1.2518e-08
0.00010925
6.00707e-09
0.000109272
-7.35927e-10
0.000109295
-7.71303e-09
0.000109318
-1.49348e-08
0.000109341
-2.24176e-08
0.000109363
-3.01823e-08
0.000109386
-3.82519e-08
0.000109409
-4.66495e-08
0.000109432
-5.53961e-08
0.000109455
-6.4508e-08
0.000109478
-7.39945e-08
0.000109501
-8.38566e-08
0.000109524
-9.40878e-08
-1.04648e-07
0.000109546
0.000112006
4.77545e-09
0.000112012
1.37896e-08
0.00011202
2.15742e-08
0.000112032
2.7842e-08
0.000112045
3.2498e-08
0.000112061
3.55544e-08
0.000112078
3.71e-08
0.000112097
3.72864e-08
0.000112117
3.62585e-08
0.000112138
3.4205e-08
0.000112159
3.12854e-08
0.00011218
2.76418e-08
0.000112202
2.33986e-08
0.000112225
1.86611e-08
0.000112247
1.35105e-08
0.00011227
8.01287e-09
0.000112292
2.21756e-09
0.000112315
-3.84159e-09
0.000112337
-1.01416e-08
0.00011236
-1.66707e-08
0.000112383
-2.34259e-08
0.000112406
-3.04117e-08
0.000112428
-3.76378e-08
0.000112451
-4.51185e-08
0.000112474
-5.287e-08
0.000112496
-6.09094e-08
0.000112519
-6.92524e-08
0.000112541
-7.79117e-08
0.000112564
-8.68953e-08
0.000112586
-9.62049e-08
0.000112608
-1.05835e-07
0.00011263
-1.15773e-07
-1.25979e-07
0.000112651
0.000115206
2.97687e-09
0.000115211
8.56516e-09
0.00011522
1.3232e-08
0.000115231
1.67283e-08
0.000115244
1.89768e-08
0.00011526
1.99888e-08
0.000115277
1.98383e-08
0.000115296
1.86468e-08
0.000115316
1.65046e-08
0.000115336
1.35919e-08
0.000115358
1.00121e-08
0.000115379
5.8731e-09
0.000115401
1.26569e-09
0.000115424
-3.7255e-09
0.000115446
-9.04794e-09
0.000115469
-1.46536e-08
0.000115492
-2.05091e-08
0.000115515
-2.65922e-08
0.000115537
-3.28899e-08
0.00011556
-3.93971e-08
0.000115583
-4.61154e-08
0.000115605
-5.30511e-08
0.000115628
-6.02142e-08
0.00011565
-6.76169e-08
0.000115673
-7.52722e-08
0.000115695
-8.31922e-08
0.000115717
-9.13871e-08
0.000115739
-9.98635e-08
0.000115761
-1.08623e-07
0.000115782
-1.17663e-07
0.000115804
-1.26972e-07
0.000115824
-1.36537e-07
-1.46316e-07
0.000115845
0.000118498
1.21218e-09
0.000118503
3.43902e-09
0.000118511
5.02897e-09
0.000118522
5.76613e-09
0.000118535
5.5951e-09
0.000118551
4.52951e-09
0.000118568
2.63809e-09
0.000118587
6.54649e-11
0.000118606
-3.26172e-09
0.000118627
-7.07489e-09
0.000118648
-1.13538e-08
0.00011867
-1.60152e-08
0.000118692
-2.1e-08
0.000118715
-2.62576e-08
0.000118738
-3.17526e-08
0.000118761
-3.74575e-08
0.000118783
-4.33546e-08
0.000118806
-4.94342e-08
0.000118829
-5.56932e-08
0.000118852
-6.21333e-08
0.000118874
-6.87608e-08
0.000118897
-7.55843e-08
0.000118919
-8.26145e-08
0.000118942
-8.98626e-08
0.000118964
-9.7339e-08
0.000118986
-1.05053e-07
0.000119007
-1.13009e-07
0.000119028
-1.21212e-07
0.00011905
-1.29657e-07
0.00011907
-1.38339e-07
0.00011909
-1.47245e-07
0.00011911
-1.56358e-07
-1.65638e-07
0.00011913
0.000121883
-5.08542e-10
0.000121888
-1.57647e-09
0.000121896
-3.02561e-09
0.000121907
-5.04741e-09
0.00012192
-7.66821e-09
0.000121936
-1.08516e-08
0.000121953
-1.45341e-08
0.000121971
-1.86358e-08
0.000121991
-2.31208e-08
0.000122012
-2.78808e-08
0.000122034
-3.28828e-08
0.000122056
-3.8086e-08
0.000122078
-4.34591e-08
0.000122101
-4.89797e-08
0.000122124
-5.46347e-08
0.000122147
-6.04172e-08
0.00012217
-6.63259e-08
0.000122193
-7.23639e-08
0.000122215
-7.8538e-08
0.000122238
-8.48574e-08
0.000122261
-9.13331e-08
0.000122283
-9.79768e-08
0.000122305
-1.048e-07
0.000122327
-1.11815e-07
0.000122349
-1.19029e-07
0.00012237
-1.2645e-07
0.000122391
-1.34081e-07
0.000122412
-1.41921e-07
0.000122432
-1.49967e-07
0.000122452
-1.58208e-07
0.000122472
-1.66631e-07
0.000122491
-1.7522e-07
-1.83936e-07
0.000122509
0.000125365
-2.24231e-09
0.00012537
-6.57801e-09
0.000125378
-1.10584e-08
0.000125389
-1.58478e-08
0.000125402
-2.09365e-08
0.000125418
-2.62663e-08
0.000125435
-3.17743e-08
0.000125454
-3.7392e-08
0.000125474
-4.30922e-08
0.000125495
-4.88263e-08
0.000125516
-5.45756e-08
0.000125539
-6.03331e-08
0.000125561
-6.60981e-08
0.000125584
-7.18759e-08
0.000125607
-7.76769e-08
0.00012563
-8.35142e-08
0.000125653
-8.94029e-08
0.000125676
-9.53593e-08
0.000125699
-1.01401e-07
0.000125722
-1.07544e-07
0.000125744
-1.13805e-07
0.000125767
-1.20201e-07
0.000125788
-1.26744e-07
0.00012581
-1.33446e-07
0.000125831
-1.40316e-07
0.000125852
-1.4736e-07
0.000125873
-1.54579e-07
0.000125893
-1.61973e-07
0.000125912
-1.69535e-07
0.000125931
-1.77255e-07
0.00012595
-1.85119e-07
0.000125968
-1.93111e-07
-2.01195e-07
0.000125985
0.000128947
-3.81454e-09
0.000128951
-1.132e-08
0.000128959
-1.8834e-08
0.00012897
-2.64941e-08
0.000128983
-3.41981e-08
0.000128999
-4.18186e-08
0.000129016
-4.9265e-08
0.000129035
-5.64804e-08
0.000129056
-6.34509e-08
0.000129077
-7.01732e-08
0.000129099
-7.66655e-08
0.000129122
-8.29584e-08
0.000129145
-8.90855e-08
0.000129168
-9.50821e-08
0.000129191
-1.00984e-07
0.000129214
-1.06824e-07
0.000129238
-1.12636e-07
0.000129261
-1.1845e-07
0.000129284
-1.24293e-07
0.000129306
-1.3019e-07
0.000129329
-1.36163e-07
0.000129351
-1.42233e-07
0.000129372
-1.48415e-07
0.000129394
-1.54723e-07
0.000129415
-1.61165e-07
0.000129435
-1.67747e-07
0.000129455
-1.74471e-07
0.000129474
-1.81336e-07
0.000129493
-1.88334e-07
0.000129511
-1.95457e-07
0.000129529
-2.0269e-07
0.000129546
-2.1002e-07
-2.17412e-07
0.000129562
0.000132631
-5.74946e-09
0.000132636
-1.64122e-08
0.000132644
-2.68829e-08
0.000132655
-3.73014e-08
0.000132668
-4.75316e-08
0.000132684
-5.74006e-08
0.000132701
-6.6788e-08
0.000132721
-7.56282e-08
0.000132741
-8.39123e-08
0.000132762
-9.16654e-08
0.000132785
-9.89371e-08
0.000132808
-1.0579e-07
0.000132831
-1.12291e-07
0.000132854
-1.18504e-07
0.000132878
-1.24491e-07
0.000132901
-1.30308e-07
0.000132925
-1.36006e-07
0.000132948
-1.41629e-07
0.000132971
-1.47218e-07
0.000132993
-1.52807e-07
0.000133016
-1.58423e-07
0.000133037
-1.64094e-07
0.000133059
-1.69837e-07
0.00013308
-1.75668e-07
0.0001331
-1.81599e-07
0.00013312
-1.87636e-07
0.000133139
-1.93782e-07
0.000133158
-2.00034e-07
0.000133176
-2.06389e-07
0.000133194
-2.12836e-07
0.00013321
-2.19364e-07
0.000133226
-2.25959e-07
-2.32592e-07
0.000133241
0.000136419
-6.51982e-09
0.000136423
-2.02713e-08
0.00013643
-3.41163e-08
0.000136441
-4.79737e-08
0.000136455
-6.13289e-08
0.000136471
-7.38423e-08
0.00013649
-8.53716e-08
0.00013651
-9.58941e-08
0.000136531
-1.05461e-07
0.000136554
-1.14161e-07
0.000136577
-1.22101e-07
0.000136601
-1.29392e-07
0.000136625
-1.36144e-07
0.000136649
-1.42456e-07
0.000136672
-1.48416e-07
0.000136696
-1.54104e-07
0.00013672
-1.59587e-07
0.000136743
-1.64924e-07
0.000136766
-1.70167e-07
0.000136789
-1.75356e-07
0.000136811
-1.80528e-07
0.000136832
-1.85711e-07
0.000136853
-1.90929e-07
0.000136874
-1.962e-07
0.000136894
-2.01536e-07
0.000136913
-2.06945e-07
0.000136932
-2.12432e-07
0.00013695
-2.17996e-07
0.000136967
-2.23633e-07
0.000136984
-2.29336e-07
0.000136999
-2.35093e-07
0.000137014
-2.40896e-07
-2.46715e-07
0.000137028
0.000140319
-9.96028e-09
0.000140325
-2.60752e-08
0.000140333
-4.21761e-08
0.000140344
-5.84161e-08
0.000140357
-7.4336e-08
0.000140372
-8.93626e-08
0.00014039
-1.03148e-07
0.000140409
-1.15568e-07
0.000140431
-1.26655e-07
0.000140453
-1.36517e-07
0.000140476
-1.45301e-07
0.0001405
-1.53164e-07
0.000140524
-1.60258e-07
0.000140548
-1.66719e-07
0.000140573
-1.72672e-07
0.000140597
-1.78223e-07
0.000140621
-1.83462e-07
0.000140644
-1.88467e-07
0.000140667
-1.93302e-07
0.00014069
-1.98022e-07
0.000140712
-2.02671e-07
0.000140734
-2.07283e-07
0.000140755
-2.11889e-07
0.000140775
-2.1651e-07
0.000140795
-2.21161e-07
0.000140813
-2.25853e-07
0.000140832
-2.30592e-07
0.000140849
-2.35381e-07
0.000140866
-2.40216e-07
0.000140881
-2.45093e-07
0.000140896
-2.50003e-07
0.00014091
-2.54936e-07
-2.59869e-07
0.000140923
0.000144322
-7.01597e-09
0.000144323
-2.6999e-08
0.000144329
-4.85483e-08
0.000144341
-7.02155e-08
0.000144357
-9.04208e-08
0.000144376
-1.08546e-07
0.000144397
-1.24518e-07
0.00014442
-1.38462e-07
0.000144444
-1.50579e-07
0.000144469
-1.611e-07
0.000144494
-1.70262e-07
0.000144519
-1.78286e-07
0.000144544
-1.85372e-07
0.000144569
-1.91694e-07
0.000144594
-1.974e-07
0.000144618
-2.02615e-07
0.000144642
-2.07446e-07
0.000144666
-2.1198e-07
0.000144689
-2.1629e-07
0.000144711
-2.20436e-07
0.000144733
-2.24468e-07
0.000144754
-2.28425e-07
0.000144774
-2.32339e-07
0.000144794
-2.36234e-07
0.000144813
-2.40128e-07
0.000144831
-2.44034e-07
0.000144849
-2.47961e-07
0.000144865
-2.51911e-07
0.000144881
-2.55885e-07
0.000144896
-2.5988e-07
0.000144909
-2.6389e-07
0.000144922
-2.67907e-07
-2.71912e-07
0.000144934
0.000148457
-1.59144e-08
0.000148464
-3.38397e-08
0.000148469
-5.42107e-08
0.000148476
-7.73053e-08
0.000148487
-1.00857e-07
0.000148501
-1.22808e-07
0.000148519
-1.42175e-07
0.000148539
-1.58837e-07
0.000148562
-1.73018e-07
0.000148586
-1.85025e-07
0.00014861
-1.95185e-07
0.000148636
-2.03811e-07
0.000148662
-2.11182e-07
0.000148688
-2.17539e-07
0.000148713
-2.23082e-07
0.000148739
-2.2798e-07
0.000148764
-2.32371e-07
0.000148788
-2.36367e-07
0.000148812
-2.40061e-07
0.000148835
-2.43528e-07
0.000148857
-2.46828e-07
0.000148879
-2.50008e-07
0.0001489
-2.53107e-07
0.000148919
-2.56154e-07
0.000148939
-2.59172e-07
0.000148957
-2.62177e-07
0.000148974
-2.65179e-07
0.00014899
-2.68186e-07
0.000149005
-2.71198e-07
0.00014902
-2.74216e-07
0.000149033
-2.77237e-07
0.000149046
-2.80255e-07
-2.83255e-07
0.000149057
0.000152671
2.37554e-09
0.000152666
-2.90229e-08
0.000152675
-6.2834e-08
0.000152693
-9.58539e-08
0.000152717
-1.24451e-07
0.000152743
-1.48739e-07
0.00015277
-1.69163e-07
0.000152797
-1.86246e-07
0.000152825
-2.00485e-07
0.000152852
-2.12328e-07
0.000152879
-2.22194e-07
0.000152906
-2.30445e-07
0.000152932
-2.37384e-07
0.000152957
-2.4326e-07
0.000152983
-2.4828e-07
0.000153007
-2.52615e-07
0.000153031
-2.56403e-07
0.000153055
-2.59758e-07
0.000153077
-2.62774e-07
0.000153099
-2.65527e-07
0.000153121
-2.68077e-07
0.000153141
-2.70474e-07
0.000153161
-2.72758e-07
0.00015318
-2.7496e-07
0.000153198
-2.77105e-07
0.000153215
-2.79209e-07
0.000153231
-2.81287e-07
0.000153246
-2.83347e-07
0.00015326
-2.85393e-07
0.000153273
-2.87427e-07
0.000153285
-2.89448e-07
0.000153297
-2.91453e-07
-2.93429e-07
0.000153307
0.000157077
-2.35893e-08
0.000157077
-2.86007e-08
0.000157065
-5.04982e-08
0.000157056
-8.75075e-08
0.000157058
-1.26029e-07
0.000157069
-1.59964e-07
0.000157087
-1.87324e-07
0.00015711
-2.09156e-07
0.000157136
-2.2658e-07
0.000157164
-2.4043e-07
0.000157194
-2.51428e-07
0.000157223
-2.60178e-07
0.000157253
-2.67163e-07
0.000157283
-2.72763e-07
0.000157312
-2.77281e-07
0.00015734
-2.80953e-07
0.000157368
-2.83964e-07
0.000157394
-2.86462e-07
0.00015742
-2.88562e-07
0.000157445
-2.90355e-07
0.000157469
-2.91912e-07
0.000157492
-2.93291e-07
0.000157513
-2.94537e-07
0.000157534
-2.95683e-07
0.000157554
-2.96758e-07
0.000157572
-2.97781e-07
0.00015759
-2.98767e-07
0.000157606
-2.99727e-07
0.000157621
-3.00669e-07
0.000157636
-3.01596e-07
0.000157649
-3.0251e-07
0.000157661
-3.03412e-07
-3.04294e-07
0.000157671
0.00016147
4.53262e-08
0.000161456
-1.47641e-08
0.000161492
-8.71068e-08
0.000161536
-1.31577e-07
0.000161579
-1.69112e-07
0.000161617
-1.97919e-07
0.000161651
-2.21252e-07
0.000161683
-2.4034e-07
0.000161712
-2.55727e-07
0.000161739
-2.68105e-07
0.000161766
-2.78084e-07
0.000161792
-2.86126e-07
0.000161817
-2.92597e-07
0.000161842
-2.97794e-07
0.000161867
-3.0196e-07
0.000161891
-3.05288e-07
0.000161915
-3.07936e-07
0.000161939
-3.10031e-07
0.000161962
-3.11676e-07
0.000161985
-3.12958e-07
0.000162007
-3.13943e-07
0.000162028
-3.14689e-07
0.000162049
-3.15242e-07
0.000162069
-3.15639e-07
0.000162088
-3.15911e-07
0.000162106
-3.16081e-07
0.000162124
-3.1617e-07
0.00016214
-3.16191e-07
0.000162156
-3.16155e-07
0.00016217
-3.16069e-07
0.000162183
-3.15938e-07
0.000162196
-3.15763e-07
-3.15544e-07
0.000162207
0.000166191
8.1265e-09
0.000166127
4.85807e-08
0.000166047
-7.0146e-09
0.000165992
-7.59431e-08
0.000165979
-1.5667e-07
0.000165993
-2.11913e-07
0.000166023
-2.50781e-07
0.000166061
-2.78476e-07
0.000166104
-2.9872e-07
0.00016615
-3.13702e-07
0.000166196
-3.2482e-07
0.000166243
-3.33066e-07
0.00016629
-3.39153e-07
0.000166336
-3.43593e-07
0.00016638
-3.46762e-07
0.000166424
-3.48937e-07
0.000166466
-3.50329e-07
0.000166507
-3.51099e-07
0.000166547
-3.51371e-07
0.000166585
-3.51244e-07
0.000166622
-3.50796e-07
0.000166658
-3.50088e-07
0.000166692
-3.49171e-07
0.000166724
-3.48086e-07
0.000166755
-3.46867e-07