/*--------------------------------*- C++ -*----------------------------------*\
  =========                 |
  \\      /  F ield         | OpenFOAM: The Open Source CFD Toolbox
   \\    /   O peration     | Website:  https://openfoam.org
    \\  /    A nd           | Version:  10
     \\/     M anipulation  |
\*---------------------------------------------------------------------------*/
FoamFile
{
    format      ascii;
    class       volVectorField;
    location    "0.195";
    object      U;
}
// * * * * * * * * * * * * * * * * * * * * * * * * * * * * * * * * * * * * * //

dimensions      [0 1 -1 0 0 0 0];

internalField   nonuniform List<vector> 
6820
(
(7.33663 -0.254709 0)
(7.37111 -0.152738 0)
(7.32899 -0.0594681 0)
(7.25211 -0.011716 0)
(7.17469 0.00797532 0)
(7.10479 0.0139826 0)
(7.04369 0.0144738 0)
(6.99079 0.0130996 0)
(6.94464 0.0113515 0)
(6.90382 0.00977701 0)
(6.86727 0.00851657 0)
(6.83417 0.00755749 0)
(6.80392 0.00684351 0)
(6.77606 0.0063154 0)
(6.75024 0.00592364 0)
(6.72619 0.00563066 0)
(6.7037 0.00540915 0)
(6.68258 0.00524003 0)
(6.6627 0.00511049 0)
(6.6439 0.0050125 0)
(6.62608 0.00494186 0)
(6.60913 0.00489794 0)
(6.59292 0.00488397 0)
(6.57734 0.00490863 0)
(6.56223 0.00498859 0)
(6.54742 0.00515707 0)
(6.53261 0.00548088 0)
(6.51739 0.00604879 0)
(6.50078 0.00740604 0)
(6.48166 0.00883277 0)
(6.45628 0.0175204 0)
(6.41373 0.0197671 0)
(6.365 0.044096 0)
(7.32387 0.121388 0)
(7.30439 0.123281 0)
(7.30895 0.0779822 0)
(7.32917 0.052806 0)
(7.34723 0.0392081 0)
(7.35527 0.0314048 0)
(7.35426 0.0269547 0)
(7.34713 0.0242111 0)
(7.33615 0.0223163 0)
(7.3229 0.020879 0)
(7.30843 0.0197037 0)
(7.29342 0.0186902 0)
(7.27827 0.0177883 0)
(7.26321 0.0169719 0)
(7.2484 0.0162263 0)
(7.23392 0.0155427 0)
(7.21982 0.0149154 0)
(7.2061 0.0143403 0)
(7.19279 0.0138153 0)
(7.17987 0.0133394 0)
(7.16735 0.0129137 0)
(7.15519 0.0125417 0)
(7.14338 0.0122305 0)
(7.13191 0.0119937 0)
(7.12074 0.0118549 0)
(7.10985 0.0118613 0)
(7.09926 0.012082 0)
(7.08881 0.0127187 0)
(7.07925 0.0139683 0)
(7.06918 0.0167937 0)
(7.06508 0.0222116 0)
(7.05944 0.033326 0)
(7.08639 0.0603754 0)
(7.32565 -0.04379 0)
(7.32324 -0.0517247 0)
(7.33515 -0.0261894 0)
(7.34297 -0.00270287 0)
(7.34787 0.0104526 0)
(7.35204 0.0169099 0)
(7.35501 0.0199883 0)
(7.35652 0.0212819 0)
(7.35653 0.0216326 0)
(7.35519 0.021514 0)
(7.35271 0.0211731 0)
(7.34933 0.0207369 0)
(7.34526 0.0202714 0)
(7.34065 0.0198098 0)
(7.33565 0.0193678 0)
(7.33036 0.0189522 0)
(7.32487 0.0185659 0)
(7.31922 0.01821 0)
(7.31349 0.0178856 0)
(7.30769 0.0175946 0)
(7.30186 0.0173404 0)
(7.29601 0.0171289 0)
(7.29015 0.01697 0)
(7.28427 0.0168791 0)
(7.27837 0.0168832 0)
(7.27242 0.0170198 0)
(7.26642 0.0173748 0)
(7.26026 0.0180047 0)
(7.25413 0.0193009 0)
(7.24761 0.0209287 0)
(7.24209 0.0251012 0)
(7.23648 0.0275816 0)
(7.23464 0.0369043 0)
(7.33338 0.011792 0)
(7.33034 0.0329295 0)
(7.32952 0.0333663 0)
(7.33251 0.0276683 0)
(7.3379 0.0242913 0)
(7.3434 0.0228269 0)
(7.34798 0.0222774 0)
(7.35161 0.0220631 0)
(7.35437 0.0219277 0)
(7.35634 0.0217894 0)
(7.3576 0.021623 0)
(7.35824 0.021423 0)
(7.35836 0.0211935 0)
(7.35802 0.0209421 0)
(7.35731 0.0206769 0)
(7.35627 0.0204054 0)
(7.35497 0.0201343 0)
(7.35345 0.0198703 0)
(7.35174 0.0196196 0)
(7.34986 0.0193893 0)
(7.34785 0.0191876 0)
(7.34572 0.0190253 0)
(7.34347 0.0189175 0)
(7.34111 0.0188854 0)
(7.33864 0.0189621 0)
(7.33605 0.0191939 0)
(7.33336 0.0196651 0)
(7.33053 0.020468 0)
(7.32772 0.0218577 0)
(7.32485 0.0238846 0)
(7.32273 0.0274549 0)
(7.32157 0.0316646 0)
(7.32309 0.039072 0)
(7.33122 -0.0035175 0)
(7.33003 -0.00431345 0)
(7.33357 0.00130417 0)
(7.33712 0.00876596 0)
(7.34038 0.0141441 0)
(7.34363 0.0171638 0)
(7.34675 0.0188172 0)
(7.34969 0.0197473 0)
(7.35239 0.0202588 0)
(7.3548 0.0205224 0)
(7.35688 0.0206342 0)
(7.35865 0.0206478 0)
(7.36013 0.0205967 0)
(7.36133 0.0205031 0)
(7.36229 0.0203821 0)
(7.36301 0.020245 0)
(7.36354 0.0201003 0)
(7.36388 0.0199558 0)
(7.36405 0.0198189 0)
(7.36408 0.0196978 0)
(7.36397 0.0196019 0)
(7.36373 0.0195435 0)
(7.36338 0.0195391 0)
(7.3629 0.0196112 0)
(7.36232 0.0197931 0)
(7.36164 0.0201285 0)
(7.36087 0.0206919 0)
(7.36003 0.0215549 0)
(7.35926 0.0228987 0)
(7.35862 0.0247243 0)
(7.35858 0.0274841 0)
(7.35949 0.0304617 0)
(7.36193 0.0342913 0)
(7.33264 0.00208989 0)
(7.33222 0.0099269 0)
(7.3339 0.0141388 0)
(7.33637 0.0160297 0)
(7.33933 0.0171568 0)
(7.34248 0.0179508 0)
(7.34549 0.0185794 0)
(7.34828 0.0190623 0)
(7.35089 0.0193988 0)
(7.3533 0.0196183 0)
(7.35552 0.0197508 0)
(7.35757 0.0198176 0)
(7.35945 0.0198345 0)
(7.36117 0.0198142 0)
(7.36274 0.0197667 0)
(7.36416 0.0197005 0)
(7.36545 0.0196232 0)
(7.36661 0.0195422 0)
(7.36765 0.0194654 0)
(7.36858 0.0194014 0)
(7.3694 0.0193605 0)
(7.37012 0.0193559 0)
(7.37074 0.0194045 0)
(7.37128 0.0195289 0)
(7.37173 0.0197606 0)
(7.37211 0.0201392 0)
(7.37246 0.0207248 0)
(7.3728 0.0215752 0)
(7.37327 0.0228012 0)
(7.37397 0.0244095 0)
(7.37521 0.0265717 0)
(7.37731 0.0289134 0)
(7.3805 0.0314648 0)
(7.33258 0.000841424 0)
(7.33241 0.00454996 0)
(7.33424 0.00812228 0)
(7.33681 0.0113442 0)
(7.33957 0.0139494 0)
(7.34235 0.0157437 0)
(7.34502 0.0169173 0)
(7.34754 0.0176845 0)
(7.34993 0.0181805 0)
(7.35221 0.0184985 0)
(7.35437 0.0186988 0)
(7.35642 0.0188179 0)
(7.35837 0.0188794 0)
(7.36023 0.0189001 0)
(7.36199 0.0188918 0)
(7.36366 0.0188641 0)
(7.36525 0.0188251 0)
(7.36676 0.0187825 0)
(7.36818 0.018744 0)
(7.36953 0.0187185 0)
(7.3708 0.0187161 0)
(7.372 0.0187497 0)
(7.37314 0.0188355 0)
(7.37422 0.0189942 0)
(7.37525 0.0192532 0)
(7.37625 0.0196454 0)
(7.37725 0.0202151 0)
(7.37831 0.0210023 0)
(7.37953 0.0220669 0)
(7.38101 0.0233991 0)
(7.38297 0.0250313 0)
(7.38561 0.0267169 0)
(7.38902 0.0282801 0)
(7.33284 0.00134515 0)
(7.333 0.00539103 0)
(7.33454 0.00896913 0)
(7.33674 0.0116807 0)
(7.33919 0.0136797 0)
(7.34177 0.0150674 0)
(7.3443 0.0160295 0)
(7.34671 0.0167069 0)
(7.34902 0.0171758 0)
(7.35122 0.0174935 0)
(7.35332 0.0177039 0)
(7.35534 0.0178369 0)
(7.35728 0.0179138 0)
(7.35915 0.0179502 0)
(7.36096 0.017958 0)
(7.36271 0.0179464 0)
(7.3644 0.0179235 0)
(7.36604 0.0178971 0)
(7.36762 0.0178748 0)
(7.36916 0.0178652 0)
(7.37065 0.0178783 0)
(7.37209 0.017926 0)
(7.37349 0.018023 0)
(7.37487 0.0181874 0)
(7.37623 0.0184416 0)
(7.37759 0.0188108 0)
(7.37899 0.0193254 0)
(7.38048 0.0200091 0)
(7.38215 0.0208872 0)
(7.38408 0.0219377 0)
(7.38642 0.0231316 0)
(7.38929 0.0242981 0)
(7.39272 0.0252499 0)
(7.33291 0.00134618 0)
(7.33319 0.00471834 0)
(7.33457 0.00778506 0)
(7.33658 0.0102792 0)
(7.33885 0.0122674 0)
(7.34125 0.0137481 0)
(7.34363 0.0148098 0)
(7.34593 0.0155618 0)
(7.34815 0.016084 0)
(7.35028 0.0164395 0)
(7.35233 0.0166764 0)
(7.3543 0.0168282 0)
(7.35621 0.0169186 0)
(7.35807 0.0169648 0)
(7.35988 0.0169797 0)
(7.36164 0.0169737 0)
(7.36336 0.0169553 0)
(7.36505 0.0169326 0)
(7.3667 0.0169134 0)
(7.36831 0.016906 0)
(7.3699 0.0169199 0)
(7.37146 0.0169657 0)
(7.37301 0.0170564 0)
(7.37455 0.0172068 0)
(7.37609 0.0174339 0)
(7.37767 0.0177558 0)
(7.37931 0.0181906 0)
(7.38106 0.0187488 0)
(7.38299 0.0194339 0)
(7.38517 0.0202156 0)
(7.38768 0.0210424 0)
(7.39061 0.0217891 0)
(7.39393 0.0223016 0)
(7.33297 0.00132438 0)
(7.33334 0.0043677 0)
(7.33458 0.00719383 0)
(7.33639 0.00952428 0)
(7.33846 0.0113781 0)
(7.34067 0.012773 0)
(7.34291 0.0137893 0)
(7.34511 0.0145235 0)
(7.34725 0.0150454 0)
(7.34932 0.0154087 0)
(7.35133 0.0156552 0)
(7.35327 0.0158155 0)
(7.35516 0.0159122 0)
(7.357 0.0159622 0)
(7.35879 0.0159787 0)
(7.36055 0.0159723 0)
(7.36228 0.0159518 0)
(7.36398 0.0159254 0)
(7.36565 0.0159008 0)
(7.36731 0.015886 0)
(7.36894 0.0158895 0)
(7.37057 0.015921 0)
(7.37219 0.0159909 0)
(7.37382 0.016111 0)
(7.37548 0.0162933 0)
(7.37718 0.0165491 0)
(7.37897 0.0168872 0)
(7.38087 0.0173084 0)
(7.38294 0.0178032 0)
(7.38523 0.0183383 0)
(7.3878 0.0188587 0)
(7.39068 0.0192707 0)
(7.39385 0.0194608 0)
(7.333 0.00126435 0)
(7.3334 0.00398983 0)
(7.33453 0.00652675 0)
(7.33616 0.00865488 0)
(7.33806 0.0103793 0)
(7.34011 0.0117154 0)
(7.34222 0.0127163 0)
(7.34431 0.0134535 0)
(7.34637 0.0139859 0)
(7.34838 0.014361 0)
(7.35034 0.0146176 0)
(7.35225 0.0147853 0)
(7.35411 0.0148863 0)
(7.35593 0.0149379 0)
(7.35771 0.0149533 0)
(7.35946 0.0149432 0)
(7.36119 0.0149169 0)
(7.36289 0.0148822 0)
(7.36458 0.0148468 0)
(7.36625 0.0148181 0)
(7.36791 0.0148038 0)
(7.36957 0.014812 0)
(7.37124 0.014851 0)
(7.37293 0.0149294 0)
(7.37465 0.0150548 0)
(7.37643 0.0152331 0)
(7.3783 0.0154662 0)
(7.38028 0.0157482 0)
(7.38242 0.0160632 0)
(7.38475 0.0163779 0)
(7.3873 0.0166424 0)
(7.39009 0.016786 0)
(7.39309 0.0167287 0)
(7.33302 0.00118251 0)
(7.33342 0.00363645 0)
(7.33445 0.00592728 0)
(7.33593 0.00788062 0)
(7.33767 0.00948342 0)
(7.33958 0.0107458 0)
(7.34156 0.0117067 0)
(7.34355 0.0124236 0)
(7.34553 0.0129475 0)
(7.34747 0.0133206 0)
(7.34938 0.0135775 0)
(7.35125 0.0137457 0)
(7.35308 0.0138462 0)
(7.35488 0.0138953 0)
(7.35665 0.0139061 0)
(7.35839 0.0138893 0)
(7.36011 0.0138538 0)
(7.36181 0.0138072 0)
(7.3635 0.0137569 0)
(7.36518 0.0137095 0)
(7.36686 0.0136717 0)
(7.36854 0.0136501 0)
(7.37024 0.0136509 0)
(7.37196 0.0136796 0)
(7.37373 0.0137406 0)
(7.37555 0.0138353 0)
(7.37746 0.0139607 0)
(7.37948 0.0141073 0)
(7.38164 0.0142564 0)
(7.38395 0.0143774 0)
(7.38645 0.0144278 0)
(7.38912 0.0143546 0)
(7.39195 0.0141026 0)
(7.33303 0.00109025 0)
(7.33342 0.00329961 0)
(7.33436 0.00536152 0)
(7.33571 0.00714107 0)
(7.33731 0.0086176 0)
(7.33908 0.00979823 0)
(7.34094 0.0107115 0)
(7.34283 0.011402 0)
(7.34473 0.011912 0)
(7.34661 0.0122779 0)
(7.34847 0.0125305 0)
(7.3503 0.012695 0)
(7.3521 0.0127911 0)
(7.35387 0.0128344 0)
(7.35562 0.0128377 0)
(7.35735 0.0128112 0)
(7.35906 0.0127634 0)
(7.36075 0.0127019 0)
(7.36244 0.012633 0)
(7.36413 0.012563 0)
(7.36581 0.0124973 0)
(7.36751 0.012441 0)
(7.36922 0.0123983 0)
(7.37097 0.0123725 0)
(7.37276 0.0123649 0)
(7.3746 0.0123738 0)
(7.37653 0.0123934 0)
(7.37856 0.0124121 0)
(7.3807 0.0124111 0)
(7.38297 0.0123636 0)
(7.38539 0.0122348 0)
(7.38794 0.0119851 0)
(7.3906 0.0115767 0)
(7.33303 0.000993948 0)
(7.33341 0.00297927 0)
(7.33427 0.0048308 0)
(7.3355 0.00644498 0)
(7.33698 0.00779777 0)
(7.33863 0.00889247 0)
(7.34037 0.00974975 0)
(7.34217 0.0104041 0)
(7.34399 0.0108907 0)
(7.3458 0.0112411 0)
(7.34761 0.0114824 0)
(7.34939 0.0116374 0)
(7.35116 0.0117244 0)
(7.3529 0.011758 0)
(7.35463 0.0117501 0)
(7.35634 0.0117107 0)
(7.35804 0.0116477 0)
(7.35973 0.011568 0)
(7.36141 0.0114775 0)
(7.3631 0.0113814 0)
(7.36478 0.0112842 0)
(7.36649 0.0111895 0)
(7.36821 0.0110999 0)
(7.36996 0.0110166 0)
(7.37176 0.0109389 0)
(7.37361 0.0108628 0)
(7.37554 0.0107811 0)
(7.37755 0.0106815 0)
(7.37966 0.0105466 0)
(7.38187 0.0103534 0)
(7.38419 0.0100743 0)
(7.38662 0.00967965 0)
(7.38912 0.00914382 0)
(7.33303 0.00089741 0)
(7.33339 0.00267446 0)
(7.33418 0.00433033 0)
(7.33531 0.00578511 0)
(7.33668 0.00701445 0)
(7.33821 0.00801868 0)
(7.33986 0.00881283 0)
(7.34157 0.00942352 0)
(7.34331 0.00987968 0)
(7.34506 0.0102081 0)
(7.34681 0.0104325 0)
(7.34855 0.0105732 0)
(7.35028 0.0106468 0)
(7.35199 0.0106669 0)
(7.3537 0.0106447 0)
(7.35539 0.0105892 0)
(7.35707 0.010508 0)
(7.35875 0.0104073 0)
(7.36042 0.0102923 0)
(7.3621 0.0101674 0)
(7.36378 0.0100358 0)
(7.36548 0.00990017 0)
(7.3672 0.00976158 0)
(7.36896 0.00961972 0)
(7.37075 0.00947224 0)
(7.3726 0.00931416 0)
(7.3745 0.00913735 0)
(7.37648 0.00893004 0)
(7.37854 0.00867661 0)
(7.38069 0.00835799 0)
(7.38291 0.00795261 0)
(7.38521 0.00743828 0)
(7.38757 0.00679761 0)
(7.33303 0.000802729 0)
(7.33337 0.00238422 0)
(7.3341 0.00385682 0)
(7.33514 0.00515817 0)
(7.33641 0.00626532 0)
(7.33784 0.00717632 0)
(7.33939 0.00790182 0)
(7.34102 0.00846227 0)
(7.34268 0.0088812 0)
(7.34437 0.00918126 0)
(7.34606 0.00938302 0)
(7.34776 0.00950435 0)
(7.34945 0.00956024 0)
(7.35114 0.0095631 0)
(7.35281 0.00952311 0)
(7.35448 0.00944862 0)
(7.35615 0.00934644 0)
(7.35781 0.00922214 0)
(7.35947 0.00908017 0)
(7.36114 0.00892401 0)
(7.36281 0.00875612 0)
(7.36451 0.00857788 0)
(7.36622 0.00838939 0)
(7.36796 0.0081892 0)
(7.36974 0.00797396 0)
(7.37156 0.00773809 0)
(7.37344 0.00747345 0)
(7.37538 0.00716916 0)
(7.37738 0.00681175 0)
(7.37945 0.00638561 0)
(7.38157 0.005874 0)
(7.38375 0.00526037 0)
(7.38597 0.00453303 0)
(7.33303 0.000710948 0)
(7.33334 0.00210749 0)
(7.33402 0.00340712 0)
(7.33499 0.00456038 0)
(7.33617 0.00554651 0)
(7.33751 0.00636195 0)
(7.33897 0.00701405 0)
(7.34052 0.00751847 0)
(7.34211 0.00789419 0)
(7.34374 0.00816017 0)
(7.34538 0.00833403 0)
(7.34703 0.00843137 0)
(7.34869 0.00846548 0)
(7.35034 0.00844748 0)
(7.35199 0.00838657 0)
(7.35363 0.00829025 0)
(7.35528 0.00816457 0)
(7.35692 0.00801439 0)
(7.35857 0.00784342 0)
(7.36022 0.00765435 0)
(7.36188 0.00744882 0)
(7.36356 0.00722733 0)
(7.36525 0.00698914 0)
(7.36698 0.00673203 0)
(7.36873 0.00645213 0)
(7.37053 0.0061437 0)
(7.37236 0.00579899 0)
(7.37425 0.00540833 0)
(7.37618 0.00496029 0)
(7.37817 0.00444231 0)
(7.38019 0.00384147 0)
(7.38226 0.00314543 0)
(7.38435 0.0023464 0)
(7.33303 0.000622476 0)
(7.33332 0.00184314 0)
(7.33395 0.00297841 0)
(7.33485 0.00398843 0)
(7.33595 0.0048548 0)
(7.33721 0.00557301 0)
(7.3386 0.00614789 0)
(7.34007 0.00659133 0)
(7.34159 0.00691853 0)
(7.34316 0.00714521 0)
(7.34476 0.0072863 0)
(7.34636 0.00735525 0)
(7.34798 0.0073637 0)
(7.3496 0.00732145 0)
(7.35122 0.00723665 0)
(7.35284 0.0071159 0)
(7.35446 0.0069645 0)
(7.35608 0.00678655 0)
(7.3577 0.00658504 0)
(7.35934 0.00636195 0)
(7.36098 0.00611821 0)
(7.36264 0.00585363 0)
(7.36431 0.00556686 0)
(7.36601 0.00525521 0)
(7.36773 0.0049146 0)
(7.36949 0.00453944 0)
(7.37128 0.00412266 0)
(7.3731 0.00365581 0)
(7.37496 0.00312941 0)
(7.37686 0.00253343 0)
(7.37879 0.00185792 0)
(7.38074 0.00109371 0)
(7.38271 0.000235738 0)
(7.33302 0.000537353 0)
(7.3333 0.00158999 0)
(7.33389 0.00256815 0)
(7.33472 0.00343919 0)
(7.33575 0.00418704 0)
(7.33694 0.0048067 0)
(7.33826 0.00530112 0)
(7.33966 0.00567927 0)
(7.34113 0.00595318 0)
(7.34264 0.00613578 0)
(7.34418 0.00623958 0)
(7.34575 0.00627605 0)
(7.34733 0.00625519 0)
(7.34891 0.00618551 0)
(7.3505 0.00607408 0)
(7.35209 0.00592659 0)
(7.35369 0.00574755 0)
(7.35528 0.00554032 0)
(7.35689 0.00530722 0)
(7.3585 0.00504959 0)
(7.36011 0.00476774 0)
(7.36174 0.00446099 0)
(7.36339 0.00412754 0)
(7.36505 0.00376448 0)
(7.36674 0.00336776 0)
(7.36845 0.00293212 0)
(7.37018 0.00245126 0)
(7.37195 0.00191798 0)
(7.37374 0.00132448 0)
(7.37555 0.000662803 0)
(7.37738 -7.46297e-05 0)
(7.37922 -0.000894685 0)
(7.38106 -0.00180047 0)
(7.33302 0.000455411 0)
(7.33328 0.00134685 0)
(7.33383 0.00217401 0)
(7.33461 0.0029098 0)
(7.33558 0.00354033 0)
(7.33671 0.00406047 0)
(7.33796 0.00447179 0)
(7.3393 0.00478101 0)
(7.34071 0.00499756 0)
(7.34217 0.00513194 0)
(7.34366 0.00519451 0)
(7.34519 0.00519487 0)
(7.34673 0.00514148 0)
(7.34828 0.00504158 0)
(7.34983 0.00490116 0)
(7.3514 0.00472502 0)
(7.35296 0.00451684 0)
(7.35454 0.0042793 0)
(7.35611 0.00401408 0)
(7.3577 0.00372195 0)
(7.35929 0.00340275 0)
(7.36088 0.00305537 0)
(7.3625 0.00267779 0)
(7.36412 0.00226704 0)
(7.36576 0.0018192 0)
(7.36742 0.0013295 0)
(7.3691 0.000792438 0)
(7.37079 0.00020194 0)
(7.3725 -0.000448336 0)
(7.37423 -0.00116465 0)
(7.37596 -0.00195277 0)
(7.37769 -0.00281782 0)
(7.37942 -0.00376154 0)
(7.33302 0.000376373 0)
(7.33326 0.00111252 0)
(7.33378 0.00179382 0)
(7.33452 0.00239754 0)
(7.33543 0.00291172 0)
(7.3365 0.00333139 0)
(7.33769 0.00365717 0)
(7.33897 0.00389404 0)
(7.34033 0.00404928 0)
(7.34174 0.00413139 0)
(7.34319 0.00414887 0)
(7.34468 0.00410959 0)
(7.34618 0.00402056 0)
(7.34769 0.00388779 0)
(7.34922 0.00371622 0)
(7.35075 0.00350975 0)
(7.35229 0.00327128 0)
(7.35383 0.0030028 0)
(7.35538 0.00270543 0)
(7.35693 0.00237942 0)
(7.35849 0.0020242 0)
(7.36006 0.00163841 0)
(7.36163 0.00121987 0)
(7.36321 0.000765645 0)
(7.36481 0.000272107 0)
(7.36641 -0.00026502 0)
(7.36802 -0.000850494 0)
(7.36965 -0.00148936 0)
(7.37128 -0.00218674 0)
(7.37291 -0.00294753 0)
(7.37455 -0.00377611 0)
(7.37618 -0.00467628 0)
(7.3778 -0.0056488 0)
(7.33302 0.000299917 0)
(7.33325 0.000885898 0)
(7.33373 0.00142567 0)
(7.33443 0.0019001 0)
(7.3353 0.00229899 0)
(7.33631 0.00261777 0)
(7.33745 0.00285643 0)
(7.33868 0.00301872 0)
(7.33999 0.00311 0)
(7.34136 0.00313705 0)
(7.34277 0.00310666 0)
(7.34421 0.00302516 0)
(7.34568 0.00289822 0)
(7.34716 0.00273069 0)
(7.34866 0.00252644 0)
(7.35016 0.00228851 0)
(7.35167 0.00201909 0)
(7.35318 0.00171952 0)
(7.35469 0.00139038 0)
(7.35621 0.0010315 0)
(7.35774 0.000641998 0)
(7.35926 0.000220307 0)
(7.36079 -0.000235784 0)
(7.36233 -0.000729089 0)
(7.36387 -0.00126293 0)
(7.36542 -0.00184109 0)
(7.36697 -0.0024676 0)
(7.36852 -0.00314665 0)
(7.37007 -0.00388234 0)
(7.37162 -0.00467848 0)
(7.37316 -0.00553837 0)
(7.37469 -0.00646481 0)
(7.3762 -0.00745788 0)
(7.33302 0.0002257 0)
(7.33324 0.000665811 0)
(7.33369 0.00106746 0)
(7.33435 0.0014144 0)
(7.33518 0.00169799 0)
(7.33615 0.00191422 0)
(7.33724 0.00206283 0)
(7.33843 0.00214662 0)
(7.33969 0.00216957 0)
(7.34102 0.00213757 0)
(7.34239 0.00205571 0)
(7.3438 0.00192881 0)
(7.34523 0.00176124 0)
(7.34668 0.00155685 0)
(7.34814 0.0013185 0)
(7.34961 0.00104832 0)
(7.35109 0.000747774 0)
(7.35257 0.000417601 0)
(7.35405 5.78715e-05 0)
(7.35554 -0.000331984 0)
(7.35702 -0.000753116 0)
(7.35851 -0.00120724 0)
(7.35999 -0.00169656 0)
(7.36148 -0.00222373 0)
(7.36297 -0.0027918 0)
(7.36445 -0.00340404 0)
(7.36593 -0.0040639 0)
(7.36741 -0.00477479 0)
(7.36888 -0.00554 0)
(7.37034 -0.00636248 0)
(7.37179 -0.00724469 0)
(7.37322 -0.0081887 0)
(7.37463 -0.00919407 0)
(7.33302 0.000153416 0)
(7.33322 0.000451504 0)
(7.33366 0.000718441 0)
(7.33429 0.000940597 0)
(7.33508 0.00111093 0)
(7.33601 0.00122613 0)
(7.33706 0.00128572 0)
(7.3382 0.00129265 0)
(7.33943 0.00124725 0)
(7.34072 0.00115527 0)
(7.34205 0.00102087 0)
(7.34342 0.000847547 0)
(7.34482 0.00063852 0)
(7.34624 0.000396263 0)
(7.34767 0.000122912 0)
(7.34911 -0.000180097 0)
(7.35056 -0.000512 0)
(7.35201 -0.000872589 0)
(7.35345 -0.00126223 0)
(7.3549 -0.0016818 0)
(7.35635 -0.00213266 0)
(7.35779 -0.00261659 0)
(7.35923 -0.00313576 0)
(7.36066 -0.00369265 0)
(7.36209 -0.00428998 0)
(7.36352 -0.00493061 0)
(7.36493 -0.00561744 0)
(7.36633 -0.00635327 0)
(7.36773 -0.00714072 0)
(7.3691 -0.00798207 0)
(7.37046 -0.00887914 0)
(7.37179 -0.00983343 0)
(7.3731 -0.0108442 0)
(7.33302 8.26643e-05 0)
(7.33321 0.000241111 0)
(7.33363 0.000373825 0)
(7.33423 0.000469005 0)
(7.33499 0.00052124 0)
(7.33588 0.000528327 0)
(7.3369 0.000490726 0)
(7.33801 0.000409124 0)
(7.3392 0.000289951 0)
(7.34045 0.000133412 0)
(7.34176 -5.78241e-05 0)
(7.3431 -0.000280864 0)
(7.34447 -0.000533554 0)
(7.34585 -0.000814532 0)
(7.34726 -0.00112264 0)
(7.34866 -0.0014573 0)
(7.35008 -0.00181848 0)
(7.35149 -0.00220661 0)
(7.35291 -0.00262253 0)
(7.35431 -0.00306745 0)
(7.35572 -0.00354296 0)
(7.35712 -0.00405095 0)
(7.35851 -0.00459354 0)
(7.35989 -0.00517308 0)
(7.36126 -0.00579203 0)
(7.36262 -0.00645287 0)
(7.36397 -0.00715806 0)
(7.3653 -0.00790991 0)
(7.36661 -0.00871049 0)
(7.3679 -0.00956154 0)
(7.36917 -0.0104644 0)
(7.37041 -0.0114202 0)
(7.37162 -0.0124278 0)
(7.33302 1.35772e-05 0)
(7.3332 3.71936e-05 0)
(7.3336 4.26972e-05 0)
(7.33417 2.02912e-05 0)
(7.3349 -3.44324e-05 0)
(7.33577 -0.000123594 0)
(7.33675 -0.000247309 0)
(7.33783 -0.000405818 0)
(7.339 -0.000593571 0)
(7.34022 -0.000811336 0)
(7.3415 -0.00105737 0)
(7.34281 -0.00132965 0)
(7.34416 -0.00162693 0)
(7.34552 -0.00194826 0)
(7.34689 -0.00229329 0)
(7.34827 -0.00266209 0)
(7.34965 -0.00305506 0)
(7.35103 -0.00347302 0)
(7.35241 -0.00391708 0)
(7.35378 -0.00438869 0)
(7.35515 -0.00488953 0)
(7.3565 -0.00542153 0)
(7.35784 -0.00598673 0)
(7.35917 -0.00658733 0)
(7.36048 -0.00722553 0)
(7.36178 -0.00790353 0)
(7.36306 -0.00862339 0)
(7.36431 -0.00938704 0)
(7.36555 -0.0101961 0)
(7.36676 -0.011052 0)
(7.36794 -0.0119557 0)
(7.36909 -0.012908 0)
(7.37021 -0.0139077 0)
(7.33302 -5.54795e-05 0)
(7.3332 -0.000171985 0)
(7.33358 -0.000308147 0)
(7.33414 -0.000471552 0)
(7.33485 -0.00066207 0)
(7.33569 -0.000877059 0)
(7.33665 -0.00111378 0)
(7.3377 -0.00136878 0)
(7.33884 -0.00164314 0)
(7.34004 -0.00193405 0)
(7.34129 -0.0022408 0)
(7.34258 -0.0025636 0)
(7.34389 -0.00290287 0)
(7.34523 -0.0032593 0)
(7.34657 -0.00363384 0)
(7.34792 -0.00402765 0)
(7.34927 -0.00444209 0)
(7.35062 -0.00487868 0)
(7.35196 -0.00533911 0)
(7.3533 -0.00582521 0)
(7.35462 -0.00633892 0)
(7.35593 -0.00688226 0)
(7.35722 -0.0074573 0)
(7.35849 -0.00806611 0)
(7.35975 -0.00871071 0)
(7.36098 -0.00939304 0)
(7.36219 -0.0101149 0)
(7.36338 -0.0108778 0)
(7.36454 -0.0116831 0)
(7.36567 -0.0125318 0)
(7.36677 -0.0134247 0)
(7.36783 -0.0143621 0)
(7.36886 -0.015343 0)
(7.33301 -0.000119233 0)
(7.33318 -0.000350598 0)
(7.33353 -0.000585587 0)
(7.33406 -0.000834943 0)
(7.33474 -0.00110303 0)
(7.33557 -0.0013911 0)
(7.33651 -0.00169848 0)
(7.33756 -0.00202336 0)
(7.33868 -0.00236407 0)
(7.33987 -0.00271849 0)
(7.34111 -0.00308582 0)
(7.34238 -0.00346581 0)
(7.34368 -0.00385858 0)
(7.345 -0.00426468 0)
(7.34632 -0.00468507 0)
(7.34765 -0.00512099 0)
(7.34897 -0.00557396 0)
(7.35029 -0.00604565 0)
(7.3516 -0.00653791 0)
(7.3529 -0.00705269 0)
(7.35418 -0.00759202 0)
(7.35544 -0.00815794 0)
(7.35668 -0.00875251 0)
(7.3579 -0.00937771 0)
(7.3591 -0.0100355 0)
(7.36027 -0.0107275 0)
(7.36142 -0.0114555 0)
(7.36254 -0.0122208 0)
(7.36362 -0.0130245 0)
(7.36468 -0.0138675 0)
(7.36569 -0.0147504 0)
(7.36667 -0.0156734 0)
(7.36762 -0.0166355 0)
(7.33302 -0.000196935 0)
(7.3332 -0.000610204 0)
(7.33357 -0.00105346 0)
(7.33409 -0.00151981 0)
(7.33476 -0.00199297 0)
(7.33556 -0.00246051 0)
(7.33648 -0.00291639 0)
(7.3375 -0.00335884 0)
(7.3386 -0.00378917 0)
(7.33976 -0.00420991 0)
(7.34098 -0.00462439 0)
(7.34223 -0.00503626 0)
(7.3435 -0.00544912 0)
(7.34479 -0.00586643 0)
(7.34609 -0.00629144 0)
(7.34739 -0.00672719 0)
(7.34869 -0.0071765 0)
(7.34998 -0.00764202 0)
(7.35125 -0.00812626 0)
(7.35251 -0.00863159 0)
(7.35375 -0.00916026 0)
(7.35497 -0.00971441 0)
(7.35617 -0.010296 0)
(7.35734 -0.010907 0)
(7.35849 -0.011549 0)
(7.3596 -0.0122236 0)
(7.36069 -0.012932 0)
(7.36174 -0.0136755 0)
(7.36275 -0.0144549 0)
(7.36373 -0.0152707 0)
(7.36468 -0.0161232 0)
(7.36558 -0.0170128 0)
(7.36644 -0.017938 0)
(7.333 -0.000220766 0)
(7.3331 -0.000620425 0)
(7.33339 -0.00101053 0)
(7.33388 -0.00142604 0)
(7.33454 -0.00187683 0)
(7.33536 -0.00235834 0)
(7.3363 -0.00286093 0)
(7.33735 -0.003375 0)
(7.33848 -0.00389339 0)
(7.33967 -0.00441146 0)
(7.3409 -0.00492683 0)
(7.34216 -0.00543894 0)
(7.34344 -0.00594849 0)
(7.34472 -0.00645701 0)
(7.34601 -0.00696662 0)
(7.3473 -0.00747975 0)
(7.34857 -0.00799903 0)
(7.34983 -0.00852715 0)
(7.35108 -0.00906678 0)
(7.3523 -0.00962056 0)
(7.3535 -0.010191 0)
(7.35468 -0.0107806 0)
(7.35582 -0.0113914 0)
(7.35694 -0.0120257 0)
(7.35803 -0.0126852 0)
(7.35909 -0.0133717 0)
(7.36011 -0.0140865 0)
(7.36109 -0.0148309 0)
(7.36204 -0.0156058 0)
(7.36295 -0.0164119 0)
(7.36381 -0.0172495 0)
(7.36464 -0.018119 0)
(7.36542 -0.0190192 0)
(7.33305 -0.000401469 0)
(7.3333 -0.00127216 0)
(7.33366 -0.00219454 0)
(7.33414 -0.0031004 0)
(7.33475 -0.00393906 0)
(7.3355 -0.00469454 0)
(7.33637 -0.00537038 0)
(7.33736 -0.00597711 0)
(7.33843 -0.00652739 0)
(7.33957 -0.00703379 0)
(7.34076 -0.00750788 0)
(7.34199 -0.00795975 0)
(7.34325 -0.00839794 0)
(7.34451 -0.00882958 0)
(7.34578 -0.00926058 0)
(7.34705 -0.00969587 0)
(7.34831 -0.0101396 0)
(7.34955 -0.0105953 0)
(7.35077 -0.0110659 0)
(7.35196 -0.011554 0)
(7.35314 -0.012062 0)
(7.35428 -0.0125919 0)
(7.35539 -0.0131454 0)
(7.35647 -0.0137241 0)
(7.35751 -0.0143292 0)
(7.35852 -0.0149621 0)
(7.35949 -0.0156235 0)
(7.36042 -0.0163142 0)
(7.36131 -0.0170347 0)
(7.36215 -0.0177852 0)
(7.36296 -0.0185659 0)
(7.36371 -0.0193768 0)
(7.36442 -0.0202167 0)
(7.33293 -0.000136314 0)
(7.33282 -0.000324601 0)
(7.33298 -0.000575575 0)
(7.33345 -0.00101346 0)
(7.33418 -0.00162616 0)
(7.33508 -0.00235194 0)
(7.33612 -0.00313496 0)
(7.33726 -0.0039365 0)
(7.33845 -0.00473215 0)
(7.33969 -0.00550755 0)
(7.34095 -0.00625553 0)
(7.34222 -0.00697393 0)
(7.3435 -0.00766381 0)
(7.34478 -0.0083281 0)
(7.34604 -0.00897079 0)
(7.34729 -0.00959635 0)
(7.34852 -0.0102094 0)
(7.34973 -0.0108144 0)
(7.35091 -0.0114156 0)
(7.35206 -0.012017 0)
(7.35319 -0.0126224 0)
(7.35428 -0.0132348 0)
(7.35534 -0.0138575 0)
(7.35636 -0.0144929 0)
(7.35734 -0.0151433 0)
(7.35829 -0.0158109 0)
(7.35919 -0.0164972 0)
(7.36005 -0.0172035 0)
(7.36087 -0.0179311 0)
(7.36164 -0.0186806 0)
(7.36237 -0.0194526 0)
(7.36305 -0.0202475 0)
(7.36369 -0.0210646 0)
(7.33316 -0.000850282 0)
(7.33362 -0.00283729 0)
(7.33393 -0.00478396 0)
(7.3342 -0.00642134 0)
(7.33461 -0.00770883 0)
(7.33522 -0.00871001 0)
(7.33602 -0.00949451 0)
(7.33697 -0.0101197 0)
(7.33803 -0.0106316 0)
(7.33918 -0.0110663 0)
(7.3404 -0.0114508 0)
(7.34165 -0.0118053 0)
(7.34292 -0.0121444 0)
(7.3442 -0.0124788 0)
(7.34547 -0.0128159 0)
(7.34673 -0.0131614 0)
(7.34798 -0.0135194 0)
(7.3492 -0.0138928 0)
(7.35039 -0.0142841 0)
(7.35154 -0.0146948 0)
(7.35267 -0.0151265 0)
(7.35375 -0.0155803 0)
(7.3548 -0.016057 0)
(7.35581 -0.0165574 0)
(7.35677 -0.017082 0)
(7.35769 -0.0176313 0)
(7.35856 -0.0182057 0)
(7.35939 -0.0188051 0)
(7.36017 -0.0194298 0)
(7.3609 -0.0200796 0)
(7.36159 -0.0207544 0)
(7.36222 -0.0214539 0)
(7.36281 -0.022177 0)
(7.33266 0.000543618 0)
(7.33187 0.00182407 0)
(7.33191 0.00249658 0)
(7.33264 0.00222344 0)
(7.33371 0.00129748 0)
(7.33492 4.74869e-05 0)
(7.3362 -0.00132616 0)
(7.33752 -0.00271753 0)
(7.33884 -0.00406725 0)
(7.34016 -0.00534309 0)
(7.34146 -0.00653192 0)
(7.34275 -0.00763229 0)
(7.34402 -0.00864907 0)
(7.34527 -0.00959031 0)
(7.34649 -0.0104655 0)
(7.34769 -0.0112843 0)
(7.34886 -0.012056 0)
(7.35 -0.0127895 0)
(7.3511 -0.0134925 0)
(7.35218 -0.0141722 0)
(7.35322 -0.0148346 0)
(7.35422 -0.0154852 0)
(7.35518 -0.0161288 0)
(7.35611 -0.0167694 0)
(7.35699 -0.0174105 0)
(7.35783 -0.0180551 0)
(7.35863 -0.0187057 0)
(7.35938 -0.0193643 0)
(7.36008 -0.0200326 0)
(7.36074 -0.0207119 0)
(7.36135 -0.0214032 0)
(7.36192 -0.0221072 0)
(7.36243 -0.0228237 0)
(7.33353 -0.00200381 0)
(7.33444 -0.00678925 0)
(7.33405 -0.0112523 0)
(7.33334 -0.0140441 0)
(7.33312 -0.0156347 0)
(7.33346 -0.0165325 0)
(7.33418 -0.0169961 0)
(7.33516 -0.0171964 0)
(7.33631 -0.0172514 0)
(7.33759 -0.0172368 0)
(7.33894 -0.0172003 0)
(7.34032 -0.0171706 0)
(7.34171 -0.0171642 0)
(7.3431 -0.0171901 0)
(7.34447 -0.0172527 0)
(7.34581 -0.0173535 0)
(7.34712 -0.0174923 0)
(7.34839 -0.017668 0)
(7.34961 -0.0178792 0)
(7.35079 -0.0181242 0)
(7.35193 -0.0184015 0)
(7.35302 -0.0187095 0)
(7.35406 -0.0190469 0)
(7.35505 -0.0194123 0)
(7.356 -0.0198048 0)
(7.35689 -0.0202232 0)
(7.35773 -0.0206668 0)
(7.35852 -0.0211345 0)
(7.35926 -0.0216256 0)
(7.35995 -0.0221395 0)
(7.36059 -0.0226753 0)
(7.36117 -0.0232327 0)
(7.3617 -0.0238103 0)
(7.33179 0.00340785 0)
(7.32899 0.00924919 0)
(7.32947 0.011909 0)
(7.33184 0.0116503 0)
(7.33397 0.00959416 0)
(7.33576 0.00693439 0)
(7.33738 0.00417294 0)
(7.33885 0.00149976 0)
(7.34021 -0.000983753 0)
(7.3415 -0.0032353 0)
(7.34273 -0.00525185 0)
(7.34392 -0.00704841 0)
(7.34508 -0.0086471 0)
(7.34623 -0.0100724 0)
(7.34736 -0.0113485 0)
(7.34847 -0.0124976 0)
(7.34957 -0.0135398 0)
(7.35065 -0.0144926 0)
(7.35171 -0.0153711 0)
(7.35274 -0.0161884 0)
(7.35376 -0.0169556 0)
(7.35474 -0.0176821 0)
(7.3557 -0.018376 0)
(7.35662 -0.0190441 0)
(7.35751 -0.0196921 0)
(7.35836 -0.0203249 0)
(7.35918 -0.0209465 0)
(7.35994 -0.0215604 0)
(7.36067 -0.0221694 0)
(7.36135 -0.0227757 0)
(7.36198 -0.0233811 0)
(7.36257 -0.0239871 0)
(7.36311 -0.0245943 0)
(7.33408 -0.00611393 0)
(7.33406 -0.0189181 0)
(7.33032 -0.0269295 0)
(7.32667 -0.0304114 0)
(7.32511 -0.0311603 0)
(7.32535 -0.0307021 0)
(7.32645 -0.0297088 0)
(7.32799 -0.0285061 0)
(7.32981 -0.0272908 0)
(7.33178 -0.0261658 0)
(7.33383 -0.0251752 0)
(7.33591 -0.0243331 0)
(7.33798 -0.0236381 0)
(7.34002 -0.0230809 0)
(7.34202 -0.0226489 0)
(7.34397 -0.0223282 0)
(7.34587 -0.0221057 0)
(7.34772 -0.0219689 0)
(7.3495 -0.0219072 0)
(7.35122 -0.021911 0)
(7.35288 -0.021972 0)
(7.35447 -0.0220834 0)
(7.356 -0.0222391 0)
(7.35747 -0.0224343 0)
(7.35887 -0.0226647 0)
(7.3602 -0.0229267 0)
(7.36147 -0.0232173 0)
(7.36267 -0.0235339 0)
(7.36381 -0.0238744 0)
(7.36488 -0.0242369 0)
(7.36588 -0.0246198 0)
(7.36682 -0.025022 0)
(7.3677 -0.0254417 0)
(7.32967 0.0198647 0)
(7.32498 0.0370196 0)
(7.32933 0.0377127 0)
(7.33514 0.0323191 0)
(7.33883 0.0259141 0)
(7.34107 0.0196212 0)
(7.34293 0.0137456 0)
(7.34473 0.00848716 0)
(7.34654 0.00389131 0)
(7.34843 -8.83917e-05 0)
(7.35042 -0.0035212 0)
(7.3525 -0.0064786 0)
(7.35466 -0.00902941 0)
(7.35688 -0.011236 0)
(7.35913 -0.0131528 0)
(7.3614 -0.0148259 0)
(7.36368 -0.0162949 0)
(7.36594 -0.0175925 0)
(7.36817 -0.0187465 0)
(7.37037 -0.01978 0)
(7.37251 -0.0207125 0)
(7.3746 -0.0215601 0)
(7.37663 -0.0223365 0)
(7.3786 -0.0230531 0)
(7.38049 -0.0237196 0)
(7.3823 -0.024344 0)
(7.38404 -0.0249332 0)
(7.3857 -0.0254931 0)
(7.38728 -0.0260287 0)
(7.38877 -0.0265441 0)
(7.39019 -0.0270432 0)
(7.39152 -0.0275285 0)
(7.39276 -0.0280039 0)
(7.32507 -0.0330732 0)
(7.29738 -0.0587446 0)
(7.2781 -0.0616573 0)
(7.27379 -0.0592642 0)
(7.2804 -0.0557394 0)
(7.29184 -0.0516775 0)
(7.30511 -0.0477204 0)
(7.31885 -0.0441974 0)
(7.33231 -0.041157 0)
(7.34509 -0.0385807 0)
(7.357 -0.0364309 0)
(7.36801 -0.0346557 0)
(7.37812 -0.033201 0)
(7.38736 -0.0320172 0)
(7.3958 -0.0310611 0)
(7.4035 -0.0302952 0)
(7.4105 -0.0296881 0)
(7.41686 -0.0292135 0)
(7.42265 -0.0288499 0)
(7.4279 -0.0285792 0)
(7.43266 -0.0283867 0)
(7.43697 -0.0282604 0)
(7.44087 -0.0281902 0)
(7.44438 -0.0281678 0)
(7.44753 -0.0281864 0)
(7.45036 -0.0282403 0)
(7.45288 -0.0283248 0)
(7.45513 -0.0284359 0)
(7.4571 -0.0285701 0)
(7.45884 -0.0287246 0)
(7.46035 -0.0288967 0)
(7.46164 -0.029084 0)
(7.46275 -0.0292835 0)
(7.33915 0.134727 0)
(7.37621 0.127078 0)
(7.39344 0.0872191 0)
(7.38983 0.0533446 0)