/*--------------------------------*- C++ -*----------------------------------*\
  =========                 |
  \\      /  F ield         | OpenFOAM: The Open Source CFD Toolbox
   \\    /   O peration     | Website:  https://openfoam.org
    \\  /    A nd           | Version:  10
     \\/     M anipulation  |
\*---------------------------------------------------------------------------*/
FoamFile
{
    format      ascii;
    class       volScalarField;
    location    "0.09";
    object      nut;
}
// * * * * * * * * * * * * * * * * * * * * * * * * * * * * * * * * * * * * * //

dimensions      [0 2 -1 0 0 0 0];

internalField   nonuniform List<scalar> 
6820
(
0.000503208
0.000397092
0.00032456
0.000269449
0.000236608
0.000214242
0.000197635
0.000184919
0.000174634
0.000165984
0.000158524
0.000151963
0.000146106
0.000140818
0.000136001
0.000131582
0.000127507
0.000123734
0.000120232
0.000116975
0.000113943
0.000111131
0.000108525
0.000106118
0.00010391
0.000101899
0.000100085
9.84844e-05
9.70814e-05
9.59546e-05
9.49778e-05
9.44186e-05
9.33399e-05
8.18454e-05
0.00014371
0.000196398
0.000210824
0.000206413
0.000197567
0.000187317
0.000177418
0.000168456
0.000160415
0.000153194
0.000146674
0.000140748
0.000135328
0.00013034
0.000125727
0.000121438
0.000117434
0.000113679
0.000110147
0.000106812
0.000103648
0.000100646
9.77876e-05
9.5063e-05
9.2463e-05
8.99814e-05
8.76105e-05
8.53601e-05
8.31993e-05
8.12504e-05
7.93213e-05
7.84978e-05
3.85925e-05
2.74042e-05
4.30216e-05
7.44185e-05
9.58206e-05
0.00010919
0.000116457
0.000119782
0.00012074
0.000120231
0.000118811
0.00011683
0.000114507
0.000111986
0.000109359
0.000106686
0.000104008
0.000101351
9.8732e-05
9.61622e-05
9.36493e-05
9.11932e-05
8.87959e-05
8.64567e-05
8.41701e-05
8.1936e-05
7.97456e-05
7.75972e-05
7.54931e-05
7.34302e-05
7.1408e-05
6.9416e-05
6.74991e-05
1.9968e-05
2.35383e-05
2.20885e-05
1.28228e-05
2.94411e-06
1.23755e-05
2.28967e-05
3.15685e-05
3.85727e-05
4.41604e-05
4.85703e-05
5.20134e-05
5.46601e-05
5.66457e-05
5.80872e-05
5.90801e-05
5.97021e-05
6.00169e-05
6.00762e-05
5.99226e-05
5.95898e-05
5.91064e-05
5.84933e-05
5.77693e-05
5.69453e-05
5.60332e-05
5.50406e-05
5.39525e-05
5.27746e-05
5.15095e-05
5.01514e-05
4.86863e-05
4.7084e-05
1.32431e-05
1.50968e-05
1.99443e-05
2.20353e-05
2.14828e-05
1.9541e-05
1.6916e-05
1.39715e-05
1.09208e-05
7.89062e-06
4.96536e-06
2.23126e-06
8.43138e-07
2.98068e-06
5.1475e-06
7.12698e-06
8.909e-06
1.04979e-05
1.19017e-05
1.31299e-05
1.41919e-05
1.50966e-05
1.58515e-05
1.64634e-05
1.69384e-05
1.72769e-05
1.74888e-05
1.75815e-05
1.75398e-05
1.73612e-05
1.70333e-05
1.65404e-05
1.58127e-05
1.01877e-05
1.10393e-05
1.18698e-05
1.26661e-05
1.32952e-05
1.38334e-05
1.42276e-05
1.44437e-05
1.44934e-05
1.43974e-05
1.41765e-05
1.38524e-05
1.34453e-05
1.29691e-05
1.24423e-05
1.18808e-05
1.12985e-05
1.07077e-05
1.01189e-05
9.54112e-06
8.98223e-06
8.44924e-06
7.94838e-06
7.48529e-06
7.06442e-06
6.69088e-06
6.36728e-06
6.09603e-06
5.87946e-06
5.73176e-06
5.65707e-06
5.69725e-06
5.85169e-06
7.52966e-06
8.27187e-06
8.70731e-06
8.94394e-06
8.83941e-06
8.63402e-06
8.47278e-06
8.38792e-06
8.3735e-06
8.40534e-06
8.45676e-06
8.50921e-06
8.55352e-06
8.58741e-06
8.60758e-06
8.61262e-06
8.6027e-06
8.57879e-06
8.54236e-06
8.49521e-06
8.43931e-06
8.37681e-06
8.30989e-06
8.24069e-06
8.17119e-06
8.10512e-06
8.04418e-06
7.99874e-06
7.97094e-06
7.9689e-06
7.99733e-06
8.07971e-06
8.22864e-06
5.74424e-06
6.6336e-06
7.04525e-06
7.16134e-06
6.91058e-06
6.54991e-06
6.22174e-06
5.9513e-06
5.73737e-06
5.57092e-06
5.4401e-06
5.33548e-06
5.25016e-06
5.17919e-06
5.11945e-06
5.06886e-06
5.02578e-06
4.98891e-06
4.95736e-06
4.93059e-06
4.90832e-06
4.89056e-06
4.87758e-06
4.86979e-06
4.86853e-06
4.87518e-06
4.89241e-06
4.9215e-06
4.96496e-06
5.02917e-06
5.11879e-06
5.24386e-06
5.41965e-06
4.46704e-06
5.27018e-06
5.58572e-06
5.7459e-06
5.66671e-06
5.46052e-06
5.21942e-06
4.97856e-06
4.75765e-06
4.56476e-06
4.39839e-06
4.2544e-06
4.12903e-06
4.01928e-06
3.92282e-06
3.83786e-06
3.7631e-06
3.6977e-06
3.64114e-06
3.59319e-06
3.55376e-06
3.52299e-06
3.50115e-06
3.48866e-06
3.48629e-06
3.49403e-06
3.51335e-06
3.54577e-06
3.59344e-06
3.65955e-06
3.74786e-06
3.86071e-06
4.01491e-06
3.53469e-06
4.25891e-06
4.5622e-06
4.73492e-06
4.70546e-06
4.54756e-06
4.35064e-06
4.15449e-06
3.9762e-06
3.82065e-06
3.68551e-06
3.56712e-06
3.46263e-06
3.36988e-06
3.28728e-06
3.21382e-06
3.14884e-06
3.09195e-06
3.04291e-06
3.0016e-06
2.96805e-06
2.9424e-06
2.92485e-06
2.91574e-06
2.91545e-06
2.9245e-06
2.94393e-06
2.97444e-06
3.0171e-06
3.0733e-06
3.14589e-06
3.23274e-06
3.34981e-06
2.84099e-06
3.47931e-06
3.76625e-06
3.92928e-06
3.93738e-06
3.83791e-06
3.69659e-06
3.54476e-06
3.39754e-06
3.26247e-06
3.1414e-06
3.03382e-06
2.9387e-06
2.85488e-06
2.78124e-06
2.71687e-06
2.66103e-06
2.61316e-06
2.57283e-06
2.53978e-06
2.51387e-06
2.49503e-06
2.48329e-06
2.47876e-06
2.48162e-06
2.49207e-06
2.51045e-06
2.537e-06
2.57233e-06
2.61671e-06
2.67211e-06
2.73416e-06
2.81726e-06
2.31121e-06
2.86906e-06
3.15525e-06
3.32491e-06
3.36696e-06
3.30761e-06
3.19783e-06
3.06931e-06
2.93988e-06
2.81911e-06
2.71025e-06
2.61348e-06
2.52809e-06
2.45307e-06
2.38742e-06
2.33028e-06
2.28099e-06
2.23902e-06
2.20396e-06
2.17552e-06
2.15347e-06
2.1376e-06
2.12781e-06
2.124e-06
2.12609e-06
2.13402e-06
2.14782e-06
2.16741e-06
2.19292e-06
2.22378e-06
2.26123e-06
2.30019e-06
2.35341e-06
1.89677e-06
2.38621e-06
2.67456e-06
2.84908e-06
2.91262e-06
2.88454e-06
2.80565e-06
2.70466e-06
2.59789e-06
2.49437e-06
2.3981e-06
2.31043e-06
2.23172e-06
2.16177e-06
2.10016e-06
2.0464e-06
2e-06
1.96049e-06
1.92746e-06
1.90054e-06
1.87934e-06
1.8636e-06
1.853e-06
1.84724e-06
1.84606e-06
1.84915e-06
1.85623e-06
1.8669e-06
1.88091e-06
1.89731e-06
1.91697e-06
1.93493e-06
1.96238e-06
1.56491e-06
1.99885e-06
2.29035e-06
2.47332e-06
2.55682e-06
2.55621e-06
2.50307e-06
2.42297e-06
2.33199e-06
2.23998e-06
2.15219e-06
2.07107e-06
1.99762e-06
1.93204e-06
1.87409e-06
1.82335e-06
1.77935e-06
1.74161e-06
1.70967e-06
1.68309e-06
1.66144e-06
1.64434e-06
1.63135e-06
1.62205e-06
1.61602e-06
1.61281e-06
1.61193e-06
1.61281e-06
1.61503e-06
1.61753e-06
1.62094e-06
1.62088e-06
1.62707e-06
1.29324e-06
1.68475e-06
1.97962e-06
2.17199e-06
2.2714e-06
2.29204e-06
2.25982e-06
2.19802e-06
2.12227e-06
2.04236e-06
1.96387e-06
1.88969e-06
1.82126e-06
1.75915e-06
1.70345e-06
1.65398e-06
1.61042e-06
1.5724e-06
1.53949e-06
1.51126e-06
1.48726e-06
1.46698e-06
1.44996e-06
1.43567e-06
1.42358e-06
1.41312e-06
1.40371e-06
1.39465e-06
1.38546e-06
1.37507e-06
1.36401e-06
1.34864e-06
1.33735e-06
1.06618e-06
1.42748e-06
1.72577e-06
1.92794e-06
2.04152e-06
2.08057e-06
2.06684e-06
2.02108e-06
1.95814e-06
1.88776e-06
1.81598e-06
1.74634e-06
1.68085e-06
1.62047e-06
1.56559e-06
1.5162e-06
1.47206e-06
1.43285e-06
1.39814e-06
1.36746e-06
1.34032e-06
1.31617e-06
1.29449e-06
1.27468e-06
1.25615e-06
1.23826e-06
1.22039e-06
1.20181e-06
1.18202e-06
1.16008e-06
1.13651e-06
1.10843e-06
1.08315e-06
8.72706e-07
1.21515e-06
1.51736e-06
1.72911e-06
1.85516e-06
1.90954e-06
1.9112e-06
1.8789e-06
1.82689e-06
1.76489e-06
1.69923e-06
1.63382e-06
1.57097e-06
1.51192e-06
1.45726e-06
1.40713e-06
1.36146e-06
1.31997e-06
1.2823e-06
1.24801e-06
1.21661e-06
1.18759e-06
1.16037e-06
1.13438e-06
1.10898e-06
1.08353e-06
1.05739e-06
1.02987e-06
1.00049e-06
9.68477e-07
9.34325e-07
8.95902e-07
8.59535e-07
7.05022e-07
1.03929e-06
1.34624e-06
1.56693e-06
1.70408e-06
1.77163e-06
1.78666e-06
1.76621e-06
1.7238e-06
1.669e-06
1.60829e-06
1.54589e-06
1.48447e-06
1.42557e-06
1.37002e-06
1.31818e-06
1.27008e-06
1.22554e-06
1.18426e-06
1.14584e-06
1.10981e-06
1.07564e-06
1.04277e-06
1.01062e-06
9.7855e-07
9.45933e-07
9.12142e-07
8.76537e-07
8.38667e-07
7.97906e-07
7.54755e-07
7.07689e-07
6.6233e-07
5.57838e-07
8.94308e-07
1.20686e-06
1.43557e-06
1.58246e-06
1.66122e-06
1.68759e-06
1.67714e-06
1.64272e-06
1.59377e-06
1.53691e-06
1.47663e-06
1.41584e-06
1.35636e-06
1.29923e-06
1.24495e-06
1.19368e-06
1.14537e-06
1.09977e-06
1.05656e-06
1.01531e-06
9.75543e-07
9.36746e-07
8.98356e-07
8.59789e-07
8.20441e-07
7.79726e-07
7.37059e-07
6.9202e-07
6.441e-07
5.93747e-07
5.39957e-07
4.87638e-07
4.28396e-07
7.77119e-07
1.09562e-06
1.33111e-06
1.48638e-06
1.57472e-06
1.61081e-06
1.60906e-06
1.58164e-06
1.53784e-06
1.48431e-06
1.42572e-06
1.36523e-06
1.30486e-06
1.24585e-06
1.18887e-06
1.13423e-06
1.08197e-06
1.03195e-06
9.83909e-07
9.37497e-07
8.92289e-07
8.47815e-07
8.03563e-07
7.58993e-07
7.13547e-07
6.66673e-07
6.17823e-07
5.66578e-07
5.12457e-07
4.55759e-07
3.95683e-07
3.36524e-07
3.17899e-07
6.87096e-07
1.01051e-06
1.25111e-06
1.41321e-06
1.50945e-06
1.55355e-06
1.55887e-06
1.53695e-06
1.49685e-06
1.44529e-06
1.3871e-06
1.32566e-06
1.26322e-06
1.20122e-06
1.14054e-06
1.08162e-06
1.02464e-06
9.6957e-07
9.16249e-07
8.64408e-07
8.13707e-07
7.63751e-07
7.14099e-07
6.6428e-07
6.13798e-07
5.62153e-07
5.08834e-07
4.53404e-07
3.95364e-07
3.34726e-07
2.70666e-07
2.06104e-07
2.36196e-07
6.25728e-07
9.50803e-07
1.19443e-06
1.36183e-06
1.46468e-06
1.51573e-06
1.5274e-06
1.51064e-06
1.47429e-06
1.42503e-06
1.36781e-06
1.30613e-06
1.24241e-06
1.17826e-06
1.11468e-06
1.05226e-06
9.9131e-07
9.31911e-07
8.74008e-07
8.17438e-07
7.61964e-07
7.07291e-07
6.53079e-07
5.9896e-07
5.44537e-07
4.89406e-07
4.33148e-07
3.7539e-07
3.15691e-07
2.53939e-07
1.89346e-07
1.23604e-07
2.0836e-07
5.95722e-07
9.16541e-07
1.16042e-06
1.33108e-06
1.43858e-06
1.49451e-06
1.51036e-06
1.49654e-06
1.46165e-06
1.4124e-06
1.35388e-06
1.28981e-06
1.22281e-06
1.1547e-06
1.08669e-06
1.01953e-06
9.53669e-07
8.8933e-07
8.26577e-07
7.65363e-07
7.05566e-07
6.47012e-07
5.89491e-07
5.32777e-07
4.76642e-07
4.2088e-07
3.65344e-07
3.10033e-07
2.55185e-07
2.01823e-07
1.52385e-07
1.14645e-07
2.51085e-07
5.99591e-07
9.08755e-07
1.1502e-06
1.32289e-06
1.43462e-06
1.49568e-06
1.51665e-06
1.50731e-06
1.47592e-06
1.42904e-06
1.37174e-06
1.30782e-06
1.24001e-06
1.17028e-06
1.09997e-06
1.03002e-06
9.61027e-07
8.93363e-07
8.27258e-07
7.62832e-07
7.00136e-07
6.39188e-07
5.79993e-07
5.22579e-07
4.67033e-07
4.13567e-07
3.62608e-07
3.14988e-07
2.7219e-07
2.36838e-07
2.12828e-07
2.04419e-07
3.42531e-07
6.37421e-07
9.27783e-07
1.16314e-06
1.33472e-06
1.4472e-06
1.50932e-06
1.53079e-06
1.521e-06
1.48809e-06
1.43874e-06
1.3782e-06
1.31046e-06
1.23848e-06
1.16439e-06
1.08971e-06
1.0155e-06
9.42497e-07
8.71194e-07
8.01941e-07
7.3499e-07
6.70538e-07
6.08772e-07
5.49897e-07
4.94182e-07
4.42009e-07
3.93936e-07
3.5079e-07
3.13754e-07
2.84412e-07
2.64607e-07
2.56088e-07
2.59045e-07
4.60799e-07
7.07773e-07
9.75951e-07
1.20443e-06
1.37629e-06
1.49271e-06
1.56058e-06
1.58839e-06
1.5846e-06
1.55679e-06
1.51131e-06
1.45331e-06
1.38683e-06
1.31496e-06
1.24005e-06
1.16385e-06
1.08766e-06
1.01246e-06
9.38969e-07
8.67771e-07
7.99327e-07
7.34047e-07
6.72323e-07
6.14568e-07
5.61246e-07
5.12902e-07
4.70178e-07
4.33815e-07
4.04606e-07
3.83287e-07
3.70363e-07
3.6603e-07
3.69229e-07
5.98767e-07
8.08305e-07
1.05189e-06
1.26839e-06
1.43317e-06
1.54393e-06
1.60625e-06
1.62835e-06
1.61879e-06
1.58534e-06
1.53455e-06
1.47168e-06
1.40086e-06
1.32519e-06
1.24702e-06
1.1681e-06
1.08974e-06
1.01293e-06
9.38445e-07
8.66903e-07
7.98843e-07
7.34745e-07
6.75073e-07
6.20286e-07
5.70853e-07
5.27249e-07
4.89933e-07
4.59306e-07
4.35659e-07
4.19099e-07
4.0947e-07
4.06553e-07
4.08812e-07
7.56654e-07
9.39739e-07
1.16392e-06
1.37602e-06
1.54606e-06
1.66734e-06
1.74227e-06
1.77675e-06
1.77784e-06
1.7525e-06
1.70708e-06
1.64703e-06
1.57684e-06
1.5001e-06
1.41965e-06
1.33769e-06
1.25591e-06
1.17561e-06
1.09781e-06
1.02332e-06
9.52781e-07
8.86746e-07
8.25674e-07
7.69963e-07
7.19949e-07
6.75896e-07
6.37984e-07
6.06272e-07
5.80696e-07
5.61021e-07
5.46869e-07
5.37841e-07
5.32435e-07
9.38601e-07
1.10231e-06
1.30211e-06
1.49306e-06
1.64248e-06
1.74334e-06
1.79945e-06
1.81823e-06
1.80742e-06
1.77396e-06
1.72371e-06
1.66141e-06
1.59085e-06
1.51501e-06
1.43624e-06
1.35641e-06
1.277e-06
1.1992e-06
1.12397e-06
1.05211e-06
9.84256e-07
9.20943e-07
8.62583e-07
8.0949e-07
7.61871e-07
7.19825e-07
6.83335e-07
6.52268e-07
6.26383e-07
6.0534e-07
5.88708e-07
5.76228e-07
5.66162e-07
1.15111e-06
1.30621e-06
1.50351e-06
1.7124e-06
1.89319e-06
2.02822e-06
2.11402e-06
2.15451e-06
2.15668e-06
2.12836e-06
2.07704e-06
2.00925e-06
1.93039e-06
1.84471e-06
1.75551e-06
1.66526e-06
1.57583e-06
1.4886e-06
1.40458e-06
1.32453e-06
1.24898e-06
1.17833e-06
1.11282e-06
1.0526e-06
9.97678e-07
9.48008e-07
9.03434e-07
8.6371e-07
8.28537e-07
7.97512e-07
7.70233e-07
7.46323e-07
7.24296e-07
1.40543e-06
1.54968e-06
1.70589e-06
1.85681e-06
1.9761e-06
2.05864e-06
2.10807e-06
2.12938e-06
2.12674e-06
2.10378e-06
2.06392e-06
2.01046e-06
1.94648e-06
1.87484e-06
1.79809e-06
1.71845e-06
1.63781e-06
1.55773e-06
1.47945e-06
1.40394e-06
1.33192e-06
1.26391e-06
1.20022e-06
1.14101e-06
1.08629e-06
1.03597e-06
9.89867e-07
9.47733e-07
9.0929e-07
8.7422e-07
8.42216e-07
8.13192e-07
7.85278e-07
1.71401e-06
1.87741e-06
2.09373e-06
2.34999e-06
2.57597e-06
2.73442e-06
2.82241e-06
2.85108e-06
2.83392e-06
2.78353e-06
2.71046e-06
2.6228e-06
2.52637e-06
2.42531e-06
2.32248e-06
2.21983e-06
2.11876e-06
2.02023e-06
1.92494e-06
1.83338e-06
1.74589e-06
1.66269e-06
1.58388e-06
1.50948e-06
1.43941e-06
1.37354e-06
1.31167e-06
1.25355e-06
1.19895e-06
1.14755e-06
1.09913e-06
1.05342e-06
1.00912e-06
2.10708e-06
2.22941e-06
2.2862e-06
2.3472e-06
2.42411e-06
2.51024e-06
2.59352e-06
2.66157e-06
2.70522e-06
2.72051e-06
2.70795e-06
2.67083e-06
2.61366e-06
2.54122e-06
2.45794e-06
2.36765e-06
2.27347e-06
2.17787e-06
2.08269e-06
1.98928e-06
1.89858e-06
1.81118e-06
1.72742e-06
1.64744e-06
1.57122e-06
1.49864e-06
1.42953e-06
1.36367e-06
1.30088e-06
1.24101e-06
1.18398e-06
1.13002e-06
1.07717e-06
2.6047e-06
2.89411e-06
3.29021e-06
3.69304e-06
3.959e-06
4.07479e-06
4.08633e-06
4.03376e-06
3.94292e-06
3.83043e-06
3.70597e-06
3.5746e-06
3.43912e-06
3.30134e-06
3.16267e-06
3.0244e-06
2.88775e-06
2.75385e-06
2.62368e-06
2.49804e-06
2.37751e-06
2.26247e-06
2.15308e-06
2.04935e-06
1.95115e-06
1.85819e-06
1.77017e-06
1.68669e-06
1.60744e-06
1.53207e-06
1.4605e-06
1.39273e-06
1.32769e-06
3.30399e-06
3.2018e-06
2.91325e-06
2.85343e-06
3.02679e-06
3.28963e-06
3.53477e-06
3.713e-06
3.81301e-06
3.84563e-06
3.83003e-06
3.78503e-06
3.72565e-06
3.66238e-06
3.6016e-06
3.54643e-06
3.49782e-06
3.45538e-06
3.41808e-06
3.38468e-06
3.35397e-06
3.32488e-06
3.29652e-06
3.26819e-06
3.23933e-06
3.20949e-06
3.17835e-06
3.14562e-06
3.11125e-06
3.07527e-06
3.03808e-06
3.00125e-06
2.96269e-06
4.33393e-06
5.53683e-06
6.27347e-06
6.50598e-06
6.39294e-06
6.16764e-06
6.02169e-06
6.03833e-06
6.22227e-06
6.5321e-06
6.91218e-06
7.31405e-06
7.70297e-06
8.0569e-06
8.36389e-06
8.61907e-06
8.82221e-06
8.97583e-06
9.08396e-06
9.15134e-06
9.18287e-06
9.18329e-06
9.15698e-06
9.10785e-06
9.0393e-06
8.95416e-06
8.85482e-06
8.74299e-06
8.6203e-06
8.48735e-06
8.34613e-06
8.1974e-06
8.04411e-06
5.65578e-06
3.58392e-06
2.73408e-06
4.58278e-06
7.30341e-06
9.87451e-06
1.20574e-05
1.37871e-05
1.50761e-05
1.59669e-05
1.65075e-05
1.67473e-05
1.67355e-05
1.65183e-05
1.61375e-05
1.56304e-05
1.50289e-05
1.43604e-05
1.36473e-05
1.29081e-05
1.21571e-05
1.14057e-05
1.06624e-05
9.93334e-06
9.22287e-06
8.53356e-06
7.86673e-06
7.22207e-06
6.59925e-06
5.99401e-06
5.40873e-06
4.82884e-06
4.27408e-06
1.14409e-05
1.64932e-05
1.82446e-05
1.9743e-05
2.01991e-05
1.94339e-05
1.76691e-05
1.51792e-05
1.232e-05
9.63404e-06
8.02378e-06
8.43972e-06
1.05888e-05
1.34816e-05
1.65321e-05
1.94894e-05
2.22472e-05
2.47624e-05
2.70221e-05
2.9029e-05
3.07946e-05
3.23348e-05
3.36673e-05
3.48105e-05
3.57824e-05
3.66004e-05
3.72809e-05
3.78396e-05
3.82924e-05
3.8655e-05
3.89483e-05
3.91914e-05
3.94353e-05
2.48957e-05
2.86581e-05
3.90107e-05
5.346e-05
6.77294e-05
8.16533e-05
9.44937e-05
0.000105644
0.00011506
0.000122818
0.000129029
0.000133848
0.000137448
0.000139994
0.00014164
0.000142526
0.000142775
0.000142494
0.000141778
0.000140704
0.000139341
0.000137744
0.000135961
0.000134032
0.00013199
0.000129861
0.000127667
0.000125423
0.000123148
0.000120842
0.000118526
0.000116202
0.000114091
0.00054333
0.000510569
0.000491565
0.000467827
0.000443747
0.000421348
0.000399792
0.000379151
0.000359693
0.00034144
0.000324377
0.000308491
0.000293736
0.00028005
0.00026736
0.000255593
0.000244673
0.000234525
0.000225079
0.000216269
0.000208033
0.000200316
0.000193067
0.000186242
0.000179798
0.0001737
0.000167911
0.000162405
0.000157136
0.000152108
0.000147151
0.000142834
0.000138839
8.36826e-05
7.51247e-05
6.74951e-05
6.37344e-05
6.58412e-05
7.22779e-05
8.03598e-05
8.76118e-05
9.26509e-05
8.6325e-05
6.15863e-05
5.11859e-05
5.08306e-05
4.86154e-05
4.46748e-05
3.85299e-05
3.06166e-05
2.23584e-05
1.49392e-05
8.60057e-06
3.30559e-06
2.16319e-06
7.83918e-06
1.35456e-05
1.64039e-05
2.08745e-05
3.07951e-05
4.12269e-05
4.58114e-05
4.42025e-05
4.05556e-05
3.79486e-05
3.77291e-05
4.04009e-05
4.39025e-05
4.8913e-05
5.16088e-05
4.80999e-05
4.06247e-05
3.25466e-05
2.55304e-05
1.96589e-05
1.43409e-05
9.15832e-06
4.28113e-06
2.70364e-06
9.52961e-06
2.03254e-05
3.11328e-05
3.66798e-05
3.56945e-05
3.11994e-05
2.64906e-05
2.27439e-05
1.97846e-05
1.73004e-05
1.51447e-05
1.32549e-05
1.15872e-05
1.01036e-05
8.77401e-06
7.57702e-06
6.49861e-06
5.52986e-06
4.66515e-06
3.90055e-06
3.23245e-06
2.65643e-06
2.16683e-06
1.75667e-06
1.41814e-06
1.14309e-06
9.23382e-07
7.50553e-07
6.16041e-07
5.11438e-07
4.29408e-07
3.64477e-07
3.13288e-07
2.74004e-07
2.45401e-07
2.26063e-07
2.1416e-07
2.07788e-07
2.0567e-07
2.07765e-07
2.15537e-07
2.3149e-07
2.57957e-07
2.95545e-07
3.42318e-07
3.94199e-07
4.46532e-07
4.95787e-07
5.41633e-07
5.82012e-07
6.17836e-07
6.36201e-07
6.6746e-07
6.36062e-07
0.000100739
9.26937e-05
8.24217e-05
7.45371e-05
7.11005e-05
7.23275e-05
7.67242e-05
8.21212e-05
8.76168e-05
9.37356e-05
8.46984e-05
5.8175e-05
4.99775e-05
4.98243e-05
4.64601e-05
4.06191e-05
3.30989e-05
2.4928e-05
1.71684e-05
1.02452e-05
4.46083e-06
2.10253e-06
8.56476e-06
1.36771e-05
1.53531e-05
2.09562e-05
3.22241e-05
4.24409e-05
4.57038e-05
4.31521e-05
3.93625e-05
3.69903e-05
3.65132e-05
3.87051e-05
4.21055e-05
4.64367e-05
5.04806e-05
4.91461e-05
4.27099e-05
3.45204e-05
2.68239e-05
2.01645e-05
1.41788e-05
8.54856e-06
3.31453e-06
5.01358e-06
1.45204e-05
2.62316e-05
3.52777e-05
3.78945e-05
3.4985e-05
3.0122e-05
2.57643e-05
2.23604e-05
1.96e-05
1.72388e-05
1.5172e-05
1.33454e-05
1.1717e-05
1.02528e-05
8.92789e-06
7.72615e-06
6.63723e-06
5.65477e-06
4.77479e-06
3.99437e-06
3.31057e-06
2.71955e-06
2.21614e-06
1.7939e-06
1.4455e-06
1.16321e-06
9.3891e-07
7.64054e-07
6.29644e-07
5.26536e-07
4.46502e-07
3.83283e-07
3.33008e-07
2.93656e-07
2.6408e-07
2.43132e-07
2.29385e-07
2.21434e-07
2.18515e-07
2.20972e-07
2.30295e-07
2.48522e-07
2.77176e-07
3.16142e-07
3.63048e-07
4.13714e-07
4.63565e-07
5.09674e-07
5.52718e-07
5.92057e-07
6.29632e-07
6.51796e-07
6.88835e-07
6.60142e-07
8.80332e-05
8.41459e-05
7.6257e-05
6.82042e-05
6.28197e-05
6.16855e-05
6.4349e-05
6.90378e-05
7.41873e-05
8.13225e-05
8.88061e-05
7.68971e-05
5.3109e-05
4.80133e-05
4.74434e-05
4.26535e-05
3.55307e-05
2.766e-05
1.99526e-05
1.29645e-05
7.41097e-06
5.23597e-06
1.0522e-05
1.33206e-05
1.39093e-05
2.16121e-05
3.4307e-05
4.37399e-05
4.52402e-05
4.17536e-05
3.79573e-05
3.58526e-05
3.53211e-05
3.67489e-05
3.98576e-05
4.35607e-05
4.81936e-05
4.93847e-05
4.4938e-05
3.73279e-05
2.93001e-05
2.20492e-05
1.56814e-05
1.03957e-05
7.71774e-06
1.20128e-05
2.20343e-05
3.25402e-05
3.8414e-05
3.79684e-05
3.36921e-05
2.8893e-05
2.50052e-05
2.19553e-05
1.94059e-05
1.71816e-05
1.52109e-05
1.34495e-05
1.18605e-05
1.04154e-05
9.09529e-06
7.88854e-06
6.78838e-06
5.79099e-06
4.89422e-06
4.09645e-06
3.39565e-06
2.78862e-06
2.27065e-06
1.83561e-06
1.47633e-06
1.18516e-06
9.54092e-07
7.74585e-07
6.37403e-07
5.32931e-07
4.52286e-07
3.88629e-07
3.37755e-07
2.97618e-07
2.67279e-07
2.45934e-07
2.32511e-07
2.25881e-07
2.25362e-07
2.31092e-07
2.44006e-07
2.65348e-07
2.95877e-07
3.35103e-07
3.80742e-07
4.29117e-07
4.7628e-07
5.20069e-07
5.61896e-07
6.01823e-07
6.42167e-07
6.68574e-07
7.10603e-07
6.85261e-07
6.02349e-05
5.65124e-05
4.98539e-05
4.28378e-05
3.83997e-05
3.83313e-05
4.16512e-05
4.64771e-05
5.22674e-05
5.96745e-05
7.12805e-05
7.9808e-05
6.71945e-05
4.80022e-05
4.50625e-05
4.39046e-05
3.83033e-05
3.08055e-05
2.32008e-05
1.64206e-05
1.10259e-05
9.63466e-06
1.28215e-05
1.13603e-05
1.24641e-05
2.32932e-05
3.7052e-05
4.46995e-05
4.41069e-05
3.99457e-05
3.6386e-05
3.45577e-05
3.40851e-05
3.49451e-05
3.74408e-05
4.05766e-05
4.49365e-05
4.83217e-05
4.68069e-05
4.09141e-05
3.33334e-05
2.59989e-05
1.98071e-05
1.56992e-05
1.55493e-05
2.12666e-05
3.04574e-05
3.78554e-05
3.97949e-05
3.67927e-05
3.19658e-05
2.76445e-05
2.42865e-05
2.15634e-05
1.92112e-05
1.71239e-05
1.52527e-05
1.35593e-05
1.20115e-05
1.05872e-05
9.27289e-06
8.06155e-06
6.9499e-06
5.93683e-06
5.02221e-06
4.20593e-06
3.487e-06
2.86298e-06
2.32968e-06
1.88138e-06
1.51122e-06
1.21178e-06
9.75089e-07
7.92442e-07
6.54231e-07
5.50234e-07
4.70824e-07
4.08488e-07
3.58562e-07
3.18811e-07
2.88327e-07
2.66498e-07
2.52541e-07
2.45633e-07
2.45332e-07
2.51851e-07
2.65958e-07
2.88526e-07
3.1987e-07
3.59166e-07
4.03913e-07
4.50392e-07
4.94654e-07
5.3493e-07
5.73338e-07
6.11239e-07
6.52223e-07
6.81593e-07
7.28528e-07
7.08005e-07
1.96228e-05
1.67391e-05
1.20178e-05
8.97169e-06
1.1952e-05
1.70739e-05
2.10697e-05
2.3874e-05
2.72327e-05
3.31546e-05
4.36245e-05
5.96535e-05
6.88433e-05
5.79769e-05
4.30773e-05
4.06719e-05
3.93581e-05
3.41766e-05
2.73428e-05
2.08784e-05
1.57736e-05
1.46412e-05
1.27179e-05
6.97279e-06
1.23244e-05
2.68028e-05
4.02961e-05
4.49054e-05
4.22231e-05
3.7808e-05
3.46574e-05
3.30602e-05
3.26117e-05
3.31232e-05
3.4955e-05
3.75933e-05
4.11214e-05
4.5472e-05
4.70867e-05
4.4201e-05
3.84267e-05
3.20639e-05
2.68032e-05
2.41369e-05
2.5561e-05
3.11653e-05
3.76419e-05
4.0749e-05
3.91046e-05
3.46839e-05
3.01124e-05
2.64714e-05
2.36012e-05
2.11649e-05
1.90028e-05
1.70566e-05
1.52891e-05
1.36665e-05
1.21626e-05
1.07614e-05
9.45485e-06
8.24005e-06
7.11728e-06
6.0883e-06
5.15525e-06
4.31969e-06
3.58187e-06
2.94016e-06
2.39095e-06
1.92888e-06
1.54732e-06
1.23892e-06
9.95764e-07
8.09028e-07
6.68774e-07
5.6419e-07
4.8493e-07
4.22868e-07
3.72994e-07
3.33019e-07
3.02205e-07
2.80238e-07
2.66649e-07
2.60849e-07
2.62438e-07
2.71422e-07
2.88111e-07
3.12802e-07
3.45279e-07
3.84427e-07
4.27681e-07
4.71532e-07
5.12295e-07
5.48753e-07
5.83765e-07
6.19817e-07
6.61656e-07
6.94151e-07
7.45834e-07
7.30669e-07
8.56375e-06
1.04717e-05
1.29589e-05
1.54411e-05
1.72172e-05
1.76964e-05
1.67205e-05
1.48191e-05
1.33943e-05
1.48956e-05
2.089e-05
3.19422e-05
4.82955e-05
5.74043e-05
4.9941e-05
3.82222e-05
3.45661e-05
3.30802e-05
2.94025e-05
2.42779e-05
1.9583e-05
1.52136e-05
7.36795e-06
2.64165e-06
1.54219e-05
3.26011e-05
4.31378e-05
4.38223e-05
3.96255e-05
3.54709e-05
3.28171e-05
3.14075e-05
3.09424e-05
3.12798e-05
3.25678e-05
3.46923e-05
3.73586e-05
4.12576e-05
4.48946e-05
4.54848e-05
4.28283e-05
3.86996e-05
3.5086e-05
3.36968e-05
3.53897e-05
3.90357e-05
4.15162e-05
4.05599e-05
3.67234e-05
3.2178e-05
2.83691e-05
2.54084e-05
2.29453e-05
2.07615e-05
1.87848e-05
1.69822e-05
1.53211e-05
1.37722e-05
1.23154e-05
1.09402e-05
9.6433e-06
8.42608e-06
7.29241e-06
6.24714e-06
5.29491e-06
4.43916e-06
3.68146e-06
3.02111e-06
2.45511e-06
1.97853e-06
1.58504e-06
1.26754e-06
1.0182e-06
8.28135e-07
6.86999e-07
5.8328e-07
5.05773e-07
4.45601e-07
3.97281e-07
3.58349e-07
3.28118e-07
3.06459e-07
2.93136e-07
2.87753e-07
2.89993e-07
2.99795e-07
3.1727e-07
3.42452e-07
3.74876e-07
4.1326e-07
4.54907e-07
4.96256e-07
5.33523e-07
5.6573e-07
5.96319e-07
6.29091e-07
6.7033e-07
7.04757e-07
7.60545e-07
7.51422e-07
1.14943e-05
1.27815e-05
1.41695e-05
1.51564e-05
1.54025e-05
1.48428e-05
1.36577e-05
1.22444e-05
1.11242e-05
1.11246e-05
1.40403e-05
1.92294e-05
2.61317e-05
3.81168e-05
4.62154e-05
4.28082e-05
3.4032e-05
2.78261e-05
2.40509e-05
1.97423e-05
1.50905e-05
1.05608e-05
6.05633e-06
5.0459e-06
2.39449e-05
3.92545e-05
4.40674e-05
4.12167e-05
3.65821e-05
3.30802e-05
3.08931e-05
2.96333e-05
2.91413e-05
2.93819e-05
3.03328e-05
3.19753e-05
3.40046e-05
3.67914e-05
4.05693e-05
4.3517e-05
4.41446e-05
4.29241e-05
4.13581e-05
4.08477e-05
4.1622e-05
4.2338e-05
4.1175e-05
3.7805e-05
3.35566e-05
2.97956e-05
2.68541e-05
2.44405e-05
2.22997e-05
2.03457e-05
1.85539e-05
1.6898e-05
1.53469e-05
1.38758e-05
1.24699e-05
1.11239e-05
9.83881e-06
8.62028e-06
7.47599e-06
6.4141e-06
5.44194e-06
4.565e-06
3.78632e-06
3.10623e-06
2.52241e-06
2.03042e-06
1.62426e-06
1.29704e-06
1.041e-06
8.4717e-07
7.04798e-07
6.01628e-07
5.25548e-07
4.66907e-07
4.19781e-07
3.81597e-07
3.51795e-07
3.30499e-07
3.17738e-07
3.13296e-07
3.16877e-07
3.28256e-07
3.47232e-07
3.73472e-07
4.06167e-07
4.43819e-07
4.83617e-07
5.22047e-07
5.55363e-07
5.8288e-07
6.08593e-07
6.37487e-07
6.77591e-07
7.13648e-07
7.73445e-07
7.71139e-07
7.65575e-06
8.55206e-06
9.52991e-06
1.03218e-05
1.07751e-05
1.09121e-05
1.08922e-05
1.09267e-05
1.12612e-05
1.20148e-05
1.34732e-05
1.71857e-05
2.15912e-05
2.40799e-05
2.90493e-05
3.45554e-05
3.46043e-05
3.01409e-05
2.45764e-05
1.96882e-05
1.66612e-05
1.24181e-05
1.48894e-06
1.80412e-05
3.5432e-05
4.32079e-05
4.20566e-05
3.75105e-05
3.34801e-05
3.07334e-05
2.89154e-05
2.77873e-05
2.72963e-05
2.74615e-05
2.82217e-05
2.9495e-05
3.10932e-05
3.29571e-05
3.56481e-05
3.88887e-05
4.1374e-05
4.24615e-05
4.26298e-05
4.25352e-05
4.20857e-05
4.05629e-05
3.76273e-05
3.39539e-05
3.05462e-05
2.78042e-05
2.5543e-05
2.35194e-05
2.16465e-05
1.99147e-05
1.83102e-05
1.68042e-05
1.53671e-05
1.39784e-05
1.26278e-05
1.13142e-05
1.00431e-05
8.82428e-06
7.66952e-06
6.5905e-06
5.59744e-06
4.69807e-06
3.89706e-06
3.19586e-06
2.59297e-06
2.08449e-06
1.66482e-06
1.32736e-06
1.06453e-06
8.67308e-07
7.24507e-07
6.22994e-07
5.4958e-07
4.93709e-07
4.48922e-07
4.12466e-07
3.83834e-07
3.63328e-07
3.51183e-07
3.47331e-07
3.51511e-07
3.63416e-07
3.82685e-07
4.08803e-07
4.40803e-07
4.77091e-07
5.14766e-07
5.50263e-07
5.79681e-07
6.02393e-07
6.22756e-07
6.46904e-07
6.8473e-07
7.21264e-07
7.8419e-07
7.89066e-07
5.68744e-06
6.34104e-06
7.07657e-06
7.74199e-06
8.2541e-06
8.6356e-06
9.00065e-06
9.50441e-06
1.02982e-05
1.15088e-05
1.30959e-05
1.54131e-05
1.98251e-05
2.4304e-05
2.51378e-05
2.39212e-05
2.3643e-05
2.31332e-05
2.0936e-05
1.75202e-05
1.20303e-05
6.63174e-06
1.95764e-05
3.46117e-05
4.22981e-05
4.19461e-05
3.77611e-05
3.36086e-05
3.06074e-05
2.84659e-05
2.69189e-05
2.59172e-05
2.54571e-05
2.55508e-05
2.61691e-05
2.71906e-05
2.85032e-05
2.98935e-05
3.15385e-05
3.37639e-05
3.61775e-05
3.80097e-05
3.89352e-05
3.89581e-05
3.79457e-05
3.58718e-05
3.31555e-05
3.04608e-05
2.81519e-05
2.61664e-05
2.43366e-05
2.26026e-05
2.0978e-05
1.94689e-05
1.80539e-05
1.67012e-05
1.5383e-05
1.40818e-05
1.27909e-05
1.15129e-05
1.02578e-05
9.03973e-06
7.87452e-06
6.77767e-06
5.76251e-06
4.8392e-06
4.01424e-06
3.29035e-06
2.66693e-06
2.1407e-06
1.70653e-06
1.35813e-06
1.08814e-06
8.87451e-07
7.44396e-07
6.44842e-07
5.7439e-07
5.21495e-07
4.7916e-07
4.44481e-07
4.17052e-07
3.97396e-07
3.85981e-07
3.829e-07
3.87931e-07
4.00675e-07
4.20577e-07
4.46891e-07
4.78421e-07
5.13407e-07
5.48831e-07
5.81083e-07
6.06149e-07
6.23424e-07
6.37533e-07
6.55674e-07
6.90119e-07
7.26411e-07
7.92279e-07
8.05187e-07
4.70437e-06
5.16913e-06
5.69218e-06
6.18392e-06
6.60567e-06
6.98766e-06
7.42112e-06
8.03677e-06
8.94616e-06
1.02254e-05
1.19223e-05
1.3961e-05
1.68193e-05
2.15063e-05
2.63406e-05
2.82228e-05
2.67368e-05
2.36766e-05
2.08331e-05
1.93253e-05
2.14584e-05
2.87999e-05
3.72568e-05
4.16374e-05
4.06968e-05
3.68978e-05
3.30726e-05
3.01978e-05
2.80179e-05
2.62698e-05
2.49356e-05
2.40563e-05
2.36346e-05
2.36673e-05
2.41508e-05
2.49866e-05
2.60876e-05
2.72861e-05
2.84613e-05
2.97702e-05
3.1277e-05
3.26524e-05
3.34733e-05
3.35224e-05
3.27113e-05
3.12537e-05
2.9543e-05
2.78658e-05
2.62681e-05
2.46972e-05
2.31511e-05
2.16742e-05
2.02963e-05
1.90103e-05
1.77864e-05
1.65908e-05
1.53967e-05
1.41883e-05
1.29615e-05
1.17225e-05
1.04853e-05
9.26868e-06
8.09279e-06
6.9771e-06
5.93833e-06
4.98929e-06
4.13847e-06
3.39005e-06
2.74442e-06
2.19902e-06
1.74924e-06
1.38918e-06
1.11175e-06
9.07838e-07
7.65239e-07
6.68648e-07
6.02234e-07
5.53319e-07
5.1429e-07
4.82065e-07
4.56312e-07
4.37745e-07
4.27046e-07
4.24466e-07
4.29844e-07
4.4274e-07
4.6249e-07
4.88217e-07
5.18609e-07
5.51829e-07
5.84786e-07
6.13788e-07
6.34612e-07
6.46489e-07
6.54139e-07
6.6562e-07
6.95586e-07
7.30388e-07
7.98181e-07
8.19345e-07
3.91856e-06
4.2456e-06
4.61284e-06
4.96862e-06
5.30531e-06
5.66337e-06
6.12333e-06
6.78507e-06
7.72993e-06
8.99455e-06
1.05974e-05
1.25179e-05
1.4712e-05
1.76571e-05
2.20007e-05
2.67914e-05
3.02317e-05
3.18259e-05
3.24802e-05
3.36944e-05
3.61196e-05
3.87112e-05
3.95116e-05
3.77754e-05
3.46417e-05
3.16322e-05
2.92757e-05
2.7338e-05
2.56156e-05
2.41357e-05
2.29884e-05
2.22183e-05
2.18262e-05
2.18092e-05
2.21721e-05
2.28562e-05
2.37819e-05
2.48514e-05
2.59111e-05
2.68904e-05
2.78192e-05
2.86371e-05
2.91668e-05
2.92407e-05
2.88259e-05
2.80378e-05
2.70213e-05
2.58574e-05
2.4585e-05
2.32616e-05
2.19621e-05
2.07396e-05
1.96061e-05
1.85412e-05
1.75095e-05
1.64754e-05
1.54109e-05
1.43007e-05
1.31424e-05
1.19455e-05
1.07281e-05
9.5134e-06
8.32631e-06
7.19047e-06
6.12621e-06
5.14929e-06
4.27039e-06
3.4953e-06
2.82551e-06
2.25926e-06
1.79254e-06
1.41991e-06
1.13462e-06
9.27627e-07
7.86086e-07
6.93313e-07
6.31799e-07
5.87584e-07
5.52418e-07
5.23062e-07
4.99293e-07
4.82045e-07
4.72238e-07
4.70304e-07
4.76161e-07
4.89344e-07
5.0908e-07
5.3434e-07
5.63655e-07
5.95056e-07
6.25345e-07
6.50728e-07
6.66769e-07
6.72438e-07
6.72395e-07
6.75499e-07
6.99387e-07
7.31492e-07
8.00767e-07
8.30994e-07
3.24006e-06
3.46401e-06
3.71744e-06
3.97423e-06
4.24906e-06
4.5898e-06
5.06636e-06
5.75168e-06
6.69309e-06
7.90598e-06
9.38938e-06
1.11441e-05
1.31164e-05
1.5279e-05
1.79375e-05
2.14156e-05
2.53036e-05
2.87492e-05
3.13204e-05
3.31882e-05
3.42912e-05
3.42478e-05
3.3011e-05
3.11605e-05
2.93525e-05
2.77747e-05
2.62759e-05
2.4767e-05
2.33255e-05
2.20738e-05
2.10908e-05
2.04097e-05
2.00388e-05
1.99836e-05
2.02517e-05
2.08095e-05
2.15917e-05
2.25271e-05
2.35175e-05
2.44494e-05
2.5251e-05
2.58812e-05
2.63004e-05
2.64256e-05
2.62321e-05
2.57332e-05