/*--------------------------------*- C++ -*----------------------------------*\
  =========                 |
  \\      /  F ield         | OpenFOAM: The Open Source CFD Toolbox
   \\    /   O peration     | Website:  https://openfoam.org
    \\  /    A nd           | Version:  10
     \\/     M anipulation  |
\*---------------------------------------------------------------------------*/
FoamFile
{
    format      ascii;
    class       volScalarField;
    location    "0.09";
    object      p;
}
// * * * * * * * * * * * * * * * * * * * * * * * * * * * * * * * * * * * * * //

dimensions      [0 2 -2 0 0 0 0];

internalField   nonuniform List<scalar> 
6820
(
6.46289
-7.86874
-9.8692
-10.0519
-10.2094
-10.1519
-10.1227
-10.1453
-10.1933
-10.257
-10.33
-10.4088
-10.4918
-10.5786
-10.669
-10.763
-10.8608
-10.9624
-11.0683
-11.1786
-11.2937
-11.4143
-11.5403
-11.6724
-11.8112
-11.9568
-12.1098
-12.2699
-12.4384
-12.6119
-12.7986
-12.9701
-13.1953
1.08578
-7.66543
-9.6737
-9.92998
-10.1395
-10.1457
-10.1378
-10.1669
-10.2151
-10.2759
-10.3457
-10.4215
-10.5021
-10.587
-10.676
-10.7688
-10.8657
-10.9667
-11.072
-11.1819
-11.2968
-11.4165
-11.5422
-11.6739
-11.8125
-11.9578
-12.1105
-12.2704
-12.4387
-12.6139
-12.8026
-12.9937
-13.2567
-0.993194
-6.4522
-8.87923
-9.47387
-9.85851
-10.0076
-10.0618
-10.1179
-10.1818
-10.2524
-10.329
-10.4099
-10.4943
-10.5818
-10.6724
-10.7663
-10.8636
-10.9646
-11.0696
-11.1789
-11.2928
-11.4118
-11.5364
-11.6671
-11.8035
-11.9472
-12.0984
-12.2566
-12.4237
-12.5986
-12.7878
-12.9841
-13.2268
-2.55939
-6.26769
-8.58065
-9.23358
-9.61963
-9.83206
-9.93658
-10.0246
-10.1115
-10.197
-10.2829
-10.3702
-10.4591
-10.5502
-10.6435
-10.7395
-10.8382
-10.9402
-11.0456
-11.1548
-11.2682
-11.386
-11.5088
-11.6369
-11.7706
-11.9103
-12.0569
-12.2093
-12.3708
-12.5408
-12.7244
-12.9216
-13.159
-3.84275
-6.30989
-8.27109
-8.95732
-9.37177
-9.65013
-9.80868
-9.92741
-10.0338
-10.1325
-10.2276
-10.3217
-10.4156
-10.51
-10.6057
-10.7032
-10.8028
-10.9047
-11.0095
-11.1173
-11.2286
-11.3435
-11.4625
-11.5859
-11.7137
-11.8463
-11.9835
-12.1272
-12.2767
-12.4334
-12.6012
-12.7812
-12.9891
-4.79813
-6.43055
-8.08444
-8.80168
-9.22563
-9.52614
-9.71068
-9.84577
-9.96407
-10.0719
-10.1738
-10.2728
-10.3706
-10.468
-10.5657
-10.6643
-10.7642
-10.8658
-10.9695
-11.0755
-11.1841
-11.2954
-11.4099
-11.5275
-11.6484
-11.7724
-11.9011
-12.0339
-12.1702
-12.3112
-12.4593
-12.6151
-12.7864
-5.54107
-6.63987
-7.99383
-8.68133
-9.09161
-9.4007
-9.60923
-9.76359
-9.89573
-10.0139
-10.123
-10.2273
-10.3287
-10.4286
-10.5279
-10.6273
-10.7274
-10.8285
-10.931
-11.0351
-11.1411
-11.249
-11.359
-11.4713
-11.5859
-11.7032
-11.8221
-11.9433
-12.0663
-12.1913
-12.3192
-12.4495
-12.5841
-6.12206
-6.86661
-7.95266
-8.59348
-8.99239
-9.30368
-9.52679
-9.69353
-9.83435
-9.95933
-10.0737
-10.1818
-10.2862
-10.3883
-10.489
-10.5892
-10.6894
-10.79
-10.8912
-10.9934
-11.0966
-11.2011
-11.3067
-11.4136
-11.5217
-11.6307
-11.7401
-11.8501
-11.9599
-12.0692
-12.1772
-12.2828
-12.3838
-6.58206
-7.0949
-7.95883
-8.54011
-8.91859
-9.22065
-9.44894
-9.6241
-9.77225
-9.9037
-10.0234
-10.1356
-10.2431
-10.3473
-10.4494
-10.5502
-10.6503
-10.7502
-10.85
-10.9501
-11.0505
-11.1513
-11.2525
-11.3539
-11.4553
-11.5564
-11.6568
-11.7559
-11.8529
-11.9467
-12.0359
-12.1183
-12.19
-6.95086
-7.31063
-7.99308
-8.50837
-8.86276
-9.15256
-9.38197
-9.56281
-9.71621
-9.85225
-9.97582
-10.091
-10.2007
-10.3064
-10.4094
-10.5105
-10.6104
-10.7093
-10.8076
-10.9054
-11.0029
-11.1
-11.1966
-11.2925
-11.3874
-11.4809
-11.5722
-11.6608
-11.7453
-11.8246
-11.8965
-11.9586
-12.0061
-7.2497
-7.50743
-8.04577
-8.49602
-8.8241
-9.09836
-9.32363
-9.50612
-9.66225
-9.80134
-9.92791
-10.0457
-10.1573
-10.2645
-10.3683
-10.4697
-10.5691
-10.667
-10.7637
-10.8593
-10.9538
-11.0471
-11.1392
-11.2297
-11.3182
-11.4042
-11.4869
-11.5654
-11.6385
-11.7046
-11.7614
-11.8064
-11.8347
-7.49408
-7.68294
-8.10836
-8.49728
-8.7976
-9.05467
-9.27293
-9.45482
-9.6123
-9.75337
-9.88211
-10.0018
-10.1148
-10.223
-10.3272
-10.4285
-10.5273
-10.6241
-10.719
-10.8122
-10.9036
-10.9932
-11.0808
-11.166
-11.2483
-11.3272
-11.4018
-11.4712
-11.5339
-11.5884
-11.6323
-11.6634
-11.6773
-7.69527
-7.8369
-8.17471
-8.50835
-8.78107
-9.02044
-9.22963
-9.40859
-9.56561
-9.70727
-9.83712
-9.95795
-10.072
-10.1808
-10.2853
-10.3864
-10.4845
-10.58
-10.6731
-10.7638
-10.8523
-10.9382
-11.0214
-11.1015
-11.178
-11.2502
-11.3174
-11.3784
-11.432
-11.4766
-11.5101
-11.5304
-11.534
-7.86157
-7.97022
-8.24045
-8.52565
-8.7717
-8.99337
-9.19221
-9.36666
-9.52202
-9.66339
-9.79369
-9.9152
-10.0298
-10.1389
-10.2435
-10.3441
-10.4413
-10.5355
-10.6267
-10.715
-10.8004
-10.8828
-10.9617
-11.037
-11.108
-11.1741
-11.2345
-11.2882
-11.334
-11.3704
-11.3956
-11.408
-11.4048
-7.99913
-8.08429
-8.30255
-8.54625
-8.76733
-8.97192
-9.15991
-9.32875
-9.48141
-9.62159
-9.75157
-9.87315
-9.98792
-10.097
-10.2013
-10.3013
-10.3976
-10.4903
-10.5796
-10.6655
-10.748
-10.8269
-10.9019
-10.9727
-11.0386
-11.0992
-11.1537
-11.201
-11.2403
-11.2701
-11.2892
-11.2961
-11.2887
-8.11251
-8.18065
-8.35894
-8.56769
-8.76596
-8.95443
-9.13152
-9.29405
-9.44327
-9.58163
-9.71076
-9.83201
-9.9466
-10.0555
-10.1593
-10.2587
-10.3538
-10.445
-10.5324
-10.616
-10.6956
-10.7713
-10.8425
-10.9091
-10.9705
-11.0261
-11.0754
-11.1174
-11.1513
-11.1762
-11.1908
-11.1942
-11.1849
-8.20517
-8.26075
-8.40829
-8.588
-8.7659
-8.93947
-9.10603
-9.26198
-9.40731
-9.54339
-9.67124
-9.79177
-9.90588
-10.0143
-10.1175
-10.216
-10.31
-10.3997
-10.4852
-10.5665
-10.6435
-10.716
-10.7839
-10.8466
-10.904
-10.9554
-11.0002
-11.0379
-11.0676
-11.0887
-11.1004
-11.1019
-11.0924
-8.27966
-8.32586
-8.44971
-8.60558
-8.76564
-8.92574
-9.08242
-9.23182
-9.37303
-9.50654
-9.63282
-9.75239
-9.86581
-9.97358
-10.0761
-10.1737
-10.2665
-10.3547
-10.4383
-10.5174
-10.5919
-10.6616
-10.7262
-10.7856
-10.8393
-10.887
-10.9281
-10.9623
-10.9888
-11.0073
-11.0171
-11.018
-11.0094
-8.33793
-8.37704
-8.48262
-8.61914
-8.76387
-8.91205
-9.05971
-9.20289
-9.34001
-9.47087
-9.59545
-9.71392
-9.82653
-9.93358
-10.0353
-10.1319
-10.2236
-10.3103
-10.3923
-10.4693
-10.5415
-10.6085
-10.6704
-10.7267
-10.7773
-10.8219
-10.8601
-10.8914
-10.9157
-10.9325
-10.9415
-10.9426
-10.9356
-8.38138
-8.41511
-8.50665
-8.62764
-8.75947
-8.89733
-9.03701
-9.17448
-9.30773
-9.436
-9.55888
-9.67618
-9.78792
-9.8942
-9.99512
-10.0908
-10.1813
-10.2666
-10.3469
-10.422
-10.492
-10.5566
-10.6159
-10.6696
-10.7175
-10.7594
-10.7951
-10.8243
-10.8469
-10.8626
-10.8714
-10.8734
-10.8684
-8.41099
-8.44065
-8.52146
-8.63018
-8.75143
-8.88062
-9.01348
-9.14598
-9.2758
-9.40176
-9.52311
-9.63938
-9.75035
-9.85595
-9.95614
-10.051
-10.1404
-10.2245
-10.3033
-10.3767
-10.4447
-10.5073
-10.5644
-10.6158
-10.6615
-10.7012
-10.735
-10.7627
-10.7841
-10.7994
-10.8085
-10.8116
-10.8088
-8.42741
-8.45403
-8.52675
-8.62601
-8.73885
-8.86102
-8.9883
-9.11667
-9.24362
-9.36764
-9.48768
-9.60305
-9.71334
-9.8183
-9.91781
-10.0118
-10.1003
-10.1832
-10.2605
-10.3323
-10.3986
-10.4592
-10.5143
-10.5637
-10.6073
-10.6453
-10.6775
-10.7039
-10.7246
-10.7396
-10.7492
-10.7536
-10.753
-8.43095
-8.45535
-8.52218
-8.61443
-8.72092
-8.83777
-8.96084
-9.08616
-9.21106
-9.33377
-9.45302
-9.56793
-9.67789
-9.78255
-9.88168
-9.97513
-10.0629
-10.1448
-10.221
-10.2915
-10.3562
-10.4153
-10.4687
-10.5164
-10.5585
-10.595
-10.6259
-10.6515
-10.6717
-10.6868
-10.6971
-10.7027
-10.7041
-8.42163
-8.44452
-8.50731
-8.59471
-8.69679
-8.80997
-8.93021
-9.05353
-9.17715
-9.29913
-9.418
-9.53272
-9.64255
-9.74703
-9.84585
-9.93882
-10.0259
-10.1069
-10.182
-10.2512
-10.3146
-10.3721
-10.4239
-10.4701
-10.5107
-10.5459
-10.5758
-10.6005
-10.6204
-10.6355
-10.6463
-10.6531
-10.6562
-8.39919
-8.42118
-8.4816
-8.56619
-8.66584
-8.7772
-8.89627
-9.01905
-9.14266
-9.265
-9.38443
-9.49976
-9.61015
-9.71505
-9.81408
-9.90703
-9.9938
-10.0743
-10.1487
-10.2169
-10.2792
-10.3355
-10.386
-10.4309
-10.4703
-10.5044
-10.5335
-10.5576
-10.5772
-10.5924
-10.6037
-10.6114
-10.6158
-8.36303
-8.38469
-8.44423
-8.52789
-8.62693
-8.73809
-8.85738
-8.98076
-9.10523
-9.22857
-9.34903
-9.46532
-9.57652
-9.68201
-9.78137
-9.87438
-9.96092
-10.041
-10.1146
-10.1819
-10.243
-10.2982
-10.3474
-10.3911
-10.4293
-10.4623
-10.4904
-10.5139
-10.533
-10.5482
-10.5596
-10.5679
-10.5733
-8.31222
-8.33414
-8.39443
-8.4793
-8.58002
-8.69334
-8.81515
-8.94126
-9.06853
-9.19458
-9.31755
-9.43606
-9.54911
-9.65605
-9.75647
-9.85012
-9.93694
-10.0169
-10.0902
-10.1569
-10.2172
-10.2713
-10.3195
-10.362
-10.3992
-10.4312
-10.4585
-10.4813
-10.4999
-10.5148
-10.5262
-10.5346
-10.5403
-8.24535
-8.26805
-8.33054
-8.41837
-8.52241
-8.63932
-8.76485
-8.89466
-9.02549
-9.15487
-9.28084
-9.40197
-9.5172
-9.62588
-9.72756
-9.82205
-9.90926
-9.98927
-10.0622
-10.1283
-10.1878
-10.2409
-10.288
-10.3293
-10.3653
-10.3962
-10.4224
-10.4443
-10.4622
-10.4765
-10.4876
-10.4959
-10.5017
-8.16063
-8.18502
-8.25204
-8.34602
-8.45698
-8.58124
-8.71417
-8.85104
-8.98836
-9.12352
-9.25451
-9.37984
-9.4985
-9.60985
-9.71352
-9.80936
-9.89737
-9.97769
-10.0505
-10.1162
-10.1749
-10.2271
-10.2731
-10.3133
-10.348
-10.3777
-10.4027
-10.4235
-10.4404
-10.4538
-10.464
-10.4716
-10.4767
-8.05524
-8.08164
-8.15441
-8.25573
-8.37442
-8.50665
-8.64757
-8.79215
-8.93669
-9.07845
-9.21529
-9.34567
-9.46855
-9.58329
-9.68956
-9.78726
-9.87646
-9.95738
-10.0303
-10.0956
-10.1536
-10.2049
-10.2497
-10.2885
-10.3219
-10.3502
-10.3738
-10.3931
-10.4087
-10.4209
-10.4301
-10.4368
-10.4412
-7.92636
-7.95718
-8.04106
-8.15666
-8.29037
-8.43748
-8.59238
-8.74947
-8.90487
-9.05586
-9.20039
-9.33702
-9.46485
-9.5834
-9.69247
-9.79209
-9.88245
-9.96387
-10.0368
-10.1015
-10.1587
-10.2088
-10.2522
-10.2895
-10.3211
-10.3476
-10.3694
-10.3869
-10.4007
-10.411
-10.4184
-10.4232
-10.4256
-7.76749
-7.80119
-7.89498
-8.023
-8.16987
-8.33115
-8.50064
-8.67185
-8.84038
-9.00321
-9.15806
-9.30341
-9.43839
-9.5626
-9.67595
-9.77862
-9.87098
-9.95349
-10.0267
-10.0912
-10.1475
-10.1964
-10.2383
-10.2739
-10.3036
-10.3281
-10.3479
-10.3634
-10.3751
-10.3835
-10.389
-10.3921
-10.393
-7.57658
-7.62308
-7.74378
-7.90186
-8.07632
-8.26219
-8.4529
-8.64184
-8.82506
-8.99996
-9.16462
-9.31783
-9.45897
-9.58786
-9.70462
-9.80957
-9.90323
-9.98619
-10.0591
-10.1227
-10.1777
-10.2247
-10.2645
-10.2976
-10.3248
-10.3465
-10.3633
-10.3758
-10.3844
-10.3897
-10.392
-10.3917
-10.3892
-7.3321
-7.37771
-7.51207
-7.69037
-7.8894
-8.10361
-8.32307
-8.53874
-8.74578
-8.94118
-9.12285
-9.28972
-9.44149
-9.57837
-9.70084
-9.80963
-9.90558
-9.9896
-10.0626
-10.1255
-10.1791
-10.2244
-10.262
-10.2928
-10.3174
-10.3364
-10.3504
-10.3601
-10.3658
-10.3682
-10.3677
-10.3649
-10.36
-7.05214
-7.14541
-7.34761
-7.57911
-7.81551
-8.0594
-8.30284
-8.53785
-8.76107
-8.97021
-9.16343
-9.33984
-9.49929
-9.64204
-9.7687
-9.88012
-9.9773
-10.0613
-10.1332
-10.1942
-10.2451
-10.2871
-10.321
-10.3476
-10.3678
-10.3822
-10.3915
-10.3962
-10.397
-10.3942
-10.3885
-10.3803
-10.37
-6.62697
-6.69428
-6.92708
-7.21561
-7.51919
-7.83074
-8.13359
-8.41787
-8.68087
-8.92096
-9.13743
-9.33084
-9.50234
-9.65329
-9.78522
-9.89969
-9.99824
-10.0824
-10.1535
-10.2128
-10.2617
-10.3012
-10.3323
-10.356
-10.373
-10.3841
-10.3899
-10.391
-10.3879
-10.3813
-10.3715
-10.3593
-10.3454
-6.26082
-6.5127
-6.86674
-7.18216
-7.49751
-7.82726
-8.14797
-8.45082
-8.73403
-8.99402
-9.22849
-9.43717
-9.6207
-9.78029
-9.91761
-10.0346
-10.1331
-10.2151
-10.2824
-10.3367
-10.3795
-10.4123
-10.4363
-10.4526
-10.462
-10.4655
-10.4636
-10.457
-10.4461
-10.4314
-10.4129
-10.3917
-10.3677
-5.20594
-5.47097
-6.07914
-6.62132
-7.11782
-7.58743
-8.00567
-8.37502
-8.70298
-8.9923
-9.24601
-9.46754
-9.65982
-9.82554
-9.96716
-10.087
-10.1872
-10.2699
-10.3369
-10.39
-10.431
-10.4612
-10.482
-10.4946
-10.5
-10.499
-10.4924
-10.4805
-10.4636
-10.442
-10.4152
-10.3843
-10.3456
-5.25555
-5.81459
-6.25366
-6.61436
-7.08572
-7.57505
-8.03205
-8.45937
-8.84837
-9.1907
-9.4862
-9.73755
-9.94807
-10.1218
-10.2631
-10.3761
-10.4648
-10.5327
-10.5831
-10.6185
-10.6413
-10.6537
-10.6572
-10.6533
-10.6433
-10.6281
-10.6084
-10.5847
-10.5569
-10.5244
-10.485
-10.4368
-10.3681
-0.313223
-4.00442
-5.32712
-5.99318
-6.78675
-7.45725
-7.99307
-8.46015
-8.86582
-9.21139
-9.50456
-9.75138
-9.95677
-10.1257
-10.2628
-10.3724
-10.4582
-10.5238
-10.5722
-10.606
-10.6275
-10.6386
-10.6412
-10.6365
-10.626
-10.6105
-10.591
-10.5682
-10.5429
-10.515
-10.4866
-10.4538
-10.4258
-13.1708
-14.4037
-16.3582
-17.6521
-17.2402
-14.819
-10.949
-6.74712
-3.34042
-1.41053
-1.13573
-2.38321
-4.88958
-8.52707
-13.3585
-19.3008
-25.9183
-32.5104
-38.3298
-42.749
-45.3007
-45.7563
-44.0134
-40.2575
-34.8698
-28.1613
-20.5824
-13.1923
-7.16376
-2.86062
0.0283432
1.89897
2.96597
3.25402
2.66463
0.840198
-2.61762
-7.7979
-14.2835
-21.2876
-28.0012
-33.7654
-38.0752
-40.542
-40.9774
-39.3191
-35.8203
-30.9571
-25.3956
-19.8728
-14.9537
-10.8846
-7.66074
-5.16923
-3.27897
-1.86986
-0.838163
-0.0973862
0.42233
0.776159
1.00695
1.14759
1.22308
1.25233
1.24951
1.22523
1.18727
1.14133
1.09143
1.04031
0.989746
0.940811
0.894017
0.849489
0.807092
0.766525
0.727402
0.689337
0.652
0.615158
0.578703
0.542647
0.507106
0.47226
0.438296
0.40537
0.373549
0.342851
0.313136
0.284394
0.256207
0.22893
0.201292
0.175352
0.146403
0.123602
0.0881395
0.077834
0.0162853
0.0580816
-13.4782
-14.5241
-16.194
-17.2027
-16.618
-14.2266
-10.5478
-6.5822
-3.35721
-1.51127
-1.24909
-2.36474
-4.73761
-8.19179
-12.7203
-18.2551
-24.4289
-30.6204
-36.1321
-40.3538
-42.8207
-43.3026
-41.7108
-38.2273
-33.1587
-26.7642
-19.5517
-12.6173
-7.01695
-3.0008
-0.266772
1.51986
2.53599
2.79512
2.21081
0.512359
-2.63562
-7.3453
-13.2965
-19.8083
-26.1198
-31.5758
-35.6692
-38.0186
-38.4485
-36.9046
-33.6437
-29.1466
-24.0546
-19.0219
-14.5153
-10.7362
-7.69194
-5.30223
-3.464
-2.07589
-1.04629
-0.296609
0.237915
0.609296
0.858494
1.01732
1.11017
1.15562
1.16769
1.15686
1.13089
1.09548
1.05465
1.01124
0.967104
0.923427
0.880853
0.839647
0.799818
0.761209
0.723566
0.686624
0.650148
0.613984
0.578079
0.542478
0.507315
0.472775
0.439046
0.406285
0.374563
0.343907
0.314189
0.285406
0.257148
0.229778
0.202023
0.17597
0.146881
0.123997
0.0883619
0.0781008
0.0161521
0.0585434
-13.5113
-14.4376
-15.7514
-16.4303
-15.7132
-13.4626
-10.1507
-6.61872
-3.70409
-1.96405
-1.65965
-2.67263
-4.84526
-8.08005
-12.2796
-17.3655
-23.0442
-28.774
-33.9154
-37.889
-40.2388
-40.7371
-39.3085
-36.1059
-31.3492
-25.2759
-18.4771
-12.0588
-6.91816
-3.19767
-0.622153
1.07774
2.04011
2.27202
1.69677
0.108157
-2.75563
-7.0066
-12.4031
-18.3761
-24.2337
-29.3408
-33.1926
-35.4151
-35.8399
-34.428
-31.4406
-27.3516
-22.7535
-18.2064
-14.0934
-10.5888
-7.71731
-5.42862
-3.64409
-2.27917
-1.25361
-0.496519
0.0517984
0.440129
0.707455
0.88441
0.99472
1.05657
1.08375
1.08662
1.0729
1.04824
1.01671
0.981195
0.943643
0.905353
0.867105
0.829309
0.792121
0.755528
0.719411
0.683624
0.648034
0.612569
0.577232
0.542106
0.507344
0.473139
0.439675
0.40711
0.375513
0.344918
0.315202
0.286379
0.258044
0.230579
0.202712
0.176552
0.147343
0.124386
0.0886017
0.0783706
0.0160736
0.058957
-13.4818
-14.2033
-15.0981
-15.4353
-14.648
-12.6608
-9.85911
-6.88971
-4.396
-2.81373
-2.42855
-3.28943
-5.25569
-8.20066
-12.0463
-16.6603
-21.7998
-27.0171
-31.7384
-35.422
-37.625
-38.1326
-36.8703
-33.9332
-29.4637
-23.7198
-17.3923
-11.5416
-6.87272
-3.44458
-1.02756
0.583052
1.48973
1.69582
1.13517
-0.353654
-2.95971
-6.77567
-11.6185
-17.0243
-22.3862
-27.1071
-30.6937
-32.7802
-33.2052
-31.95
-29.2744
-25.6247
-21.523
-17.4376
-13.6898
-10.4414
-7.73594
-5.54778
-3.81876
-2.47925
-1.45971
-0.696756
-0.13573
0.268879
0.553995
0.748985
0.876819
0.95523
0.997744
1.01457
1.01334
0.999667
0.977652
0.950225
0.919437
0.886696
0.852917
0.818654
0.784211
0.74972
0.715199
0.680622
0.645961
0.611222
0.576467
0.541819
0.507451
0.473563
0.440346
0.407957
0.37647
0.345927
0.316216
0.287359
0.258958
0.231405
0.203428
0.177156
0.147819
0.124769
0.0888381
0.0786066
0.0160192
0.0592897
-13.2641
-13.7493
-14.2744
-14.3557
-13.5983
-11.9544
-9.70668
-7.32813
-5.29695
-3.96846
-3.53253
-4.17912
-5.89731
-8.544
-12.0131
-16.1634
-20.7508
-25.4143
-29.6707
-33.0255
-35.0539
-35.5579
-34.4451
-31.7324
-27.5156
-22.1227
-16.3326
-11.0824
-6.87896
-3.73351
-1.47421
0.0444511
0.894746
1.07636
0.535887
-0.856258
-3.23111
-6.6488
-10.9635
-15.7987
-20.6379
-24.9409
-28.2388
-30.1815
-30.6169
-29.5441
-27.207
-24.0033
-20.3762
-16.7167
-13.3036
-10.2946
-7.7488
-5.66035
-3.98819
-2.67606
-1.66444
-0.89716
-0.324526
0.0956729
0.398222
0.611139
0.756557
0.851697
0.909767
0.940792
0.952286
0.949838
0.937547
0.918397
0.894528
0.867464
0.838257
0.807611
0.775979
0.743642
0.710756
0.677418
0.643704
0.609705
0.575542
0.541381
0.507418
0.473864
0.440912
0.408721
0.377365
0.346891
0.317195
0.288308
0.259843
0.232201
0.204116
0.177735
0.148279
0.125138
0.0890811
0.0788273
0.0160166
0.059548
-13.0011
-13.3088
-13.5778
-13.4974
-12.8009
-11.4544
-9.66148
-7.76995
-6.14879
-5.08605
-4.7346
-5.23699
-6.68039
-9.02506
-12.1313
-15.843
-19.9205
-24.0347
-27.7928
-30.7751
-32.6092
-33.0957
-32.0823
-29.5194
-25.519
-20.5277
-15.3397
-10.695
-6.93273
-4.05538
-1.95207
-0.527451
0.266835
0.426566
-0.0899784
-1.38589
-3.55197
-6.6144
-10.4457
-14.735
-19.0491
-22.9168
-25.9104
-27.7071
-28.1645
-27.2889
-25.2929
-22.5132
-19.3192
-16.0426
-12.9339
-10.1484
-7.75622
-5.7665
-4.15235
-2.86944
-1.8676
-1.09753
-0.514404
-0.0793303
0.240272
0.470988
0.634039
0.746064
0.819909
0.865371
0.889837
0.898838
0.896475
0.885782
0.868991
0.84774
0.823223
0.796293
0.767555
0.737439
0.706242
0.674186
0.641452
0.608215
0.574658
0.540988
0.507427
0.474199
0.4415
0.409493
0.378258
0.347848
0.318165
0.289252
0.260729
0.233003
0.204816
0.178323
0.148749
0.125504
0.0893302
0.0790199
0.0160562
0.0597092
-12.7403
-12.9222
-13.0251
-12.8483
-12.2142
-11.1011
-9.6586
-8.14654
-6.85275
-6.01915
-5.78188
-6.24064
-7.47702
-9.51826
-12.2844
-15.6013
-19.2323
-22.8713
-26.1679
-28.7787
-30.4071
-30.8163
-29.7808
-27.2677
-23.4959
-18.9964
-14.4509
-10.3833
-7.02607
-4.40093
-2.45165
-1.12222
-0.38295
-0.241718
-0.731419
-1.9312
-3.90457
-6.6518
-10.053
-13.8445
-17.6615
-21.1021
-23.792
-25.4456
-25.9282
-25.2423
-23.5608
-21.1596
-18.3472
-15.411
-12.5794
-10.0033
-7.75905
-5.86675
-4.31145
-3.05944
-2.06912
-1.29776
-0.705248
-0.256017
0.080252
0.328637
0.509368
0.638438
0.728278
0.788421
0.826101
0.846775
0.854539
0.852476
0.842904
0.827583
0.807845
0.784699
0.758908
0.731054
0.701575
0.670821
0.639078
0.606609
0.573661
0.540486
0.507331
0.474436
0.442002
0.410195
0.379095
0.348762
0.319105
0.290173
0.261595
0.233786
0.205499
0.178893
0.149207
0.125851
0.0895809
0.0791836
0.0161496
0.0597696
-12.4903
-12.5844
-12.5829
-12.3555
-11.7862
-10.8638
-9.7002
-8.49165
-7.46093
-6.80443
-6.65288
-7.09319
-8.18246
-9.94878
-12.3627
-15.2985
-18.5295
-21.7636
-24.6768
-26.9649
-28.3346
-28.5317
-27.3781
-24.9397
-21.52
-17.6033
-13.6894
-10.1427
-7.14981
-4.76147
-2.96353
-1.7291
-1.04333
-0.917036
-1.37732
-2.48223
-4.27503
-6.73985
-9.76231
-13.114
-16.4838
-19.5305
-21.9345
-23.45
-23.948
-23.4232
-22.01
-19.9326
-17.4512
-14.8179
-12.2398
-9.86025
-7.7581
-5.96165
-4.46577
-3.24613
-2.269
-1.49778
-0.896962
-0.434285
-0.0817317
0.184194
0.382657
0.528939
0.634999
0.71007
0.761205
0.793774
0.811859
0.818587
0.816368
0.807084
0.792214
0.772924
0.750135
0.724586
0.69686
0.667433
0.636701
0.605012
0.572681
0.540002
0.507251
0.474682
0.442505
0.410888
0.379918
0.349657
0.320025
0.291076
0.262448
0.234562
0.206181
0.179463
0.149671
0.126194
0.0898442
0.0793191
0.0163009
0.0597131
-12.2555
-12.2878
-12.2217
-11.9731
-11.4687
-10.7054
-9.76841
-8.80674
-7.99356
-7.48658
-7.40209
-7.81763
-8.77769
-10.2995
-12.3616
-14.8799
-17.6803
-20.5012
-23.0374
-24.9757
-26.0255
-26.0065
-24.8497
-22.6643
-19.7274
-16.4053
-13.0562
-9.96166
-7.29471
-5.12904
-3.47875
-2.33806
-1.70402
-1.58976
-2.01822
-3.03027
-4.65316
-6.86144
-9.548
-12.5135
-15.4909
-18.1884
-20.3331
-21.7151
-22.2119
-21.8119
-20.6185
-18.8149
-16.6222
-14.2603
-11.9151
-9.72016
-7.75434
-6.05185
-4.61571
-3.42972
-2.46729
-1.69759
-1.08951
-0.614075
-0.245601
0.0377559
0.25402
0.417695
0.540214
0.630467
0.695301
0.739982
0.768574
0.784245
0.789497
0.78634
0.776402
0.761013
0.741257
0.718033
0.692071
0.663977
0.634257
0.603348
0.57163
0.539445
0.507097
0.474857
0.442943
0.411526
0.380696
0.350521
0.320923
0.291964
0.263292
0.235329
0.206855
0.180022
0.150127
0.126516
0.0901091
0.0794153
0.0165124
0.0595284
-12.0398
-12.0302
-11.9278
-11.6785
-11.2378
-10.6087
-9.85681
-9.09636
-8.46232
-8.08034
-8.0492
-8.43712
-9.28083
-10.5874
-12.3303
-14.436
-16.768
-19.1168
-21.2192
-22.7887
-23.5942
-23.513
-22.5093
-20.6726
-18.2147
-15.4083
-12.5326
-9.82633
-7.45282
-5.4965
-3.98905
-2.93998
-2.35576
-2.25125
-2.64614
-3.56782
-5.03106
-7.00443
-9.38937
-12.0123
-14.6435
-17.033
-18.9429
-20.1964
-20.6779
-20.3727
-19.3606
-17.7918
-15.8538
-13.7368
-11.6059
-9.58409
-7.74874
-6.13809
-4.76176
-3.61053
-2.66419
-1.89727
-1.28293
-0.795367
-0.411301
-0.110591
0.123574
0.304846
0.44408
0.549782
0.628564
0.685575
0.72485
0.749601
0.762428
0.765472
0.760517
0.749063
0.732363
0.711477
0.687287
0.66053
0.631823
0.601692
0.570584
0.538887
0.506937
0.475019
0.44336
0.412137
0.381442
0.351348
0.321785
0.29282
0.264108
0.236075
0.207516
0.180571
0.150584
0.126831
0.0903904
0.0794786
0.0167965
0.0592025
-11.8449
-11.8085
-11.6884
-11.4511
-11.0708
-10.5546
-9.95416
-9.35746
-8.86966
-8.59116
-8.60407
-8.96582
-9.70697
-10.8288
-12.3007
-14.0531
-15.9676
-17.8751
-19.5677
-20.8335
-21.4883
-21.4094
-20.5665
-19.0316
-16.9634
-14.5744
-12.0936
-9.72536
-7.61785
-5.85769
-4.48727
-3.52705
-2.9906
-2.89404
-3.25439
-4.08863
-5.40233
-7.16031
-9.27253
-11.5881
-13.9099
-16.0232
-17.7245
-18.851
-19.3092
-19.0781
-18.2187
-16.8543
-15.1424
-13.2466
-11.3127
-9.45305
-7.74231
-6.22124
-4.90456
-3.78897
-2.85996
-2.09701
-1.4773
-0.978197
-0.578813
-0.260778
-0.00857119
0.190542
0.346776
0.46821
0.561197
0.630751
0.680877
0.714832
0.735315
0.744611
0.744666
0.737155
0.723508
0.704952
0.682521
0.657088
0.629382
0.600017
0.569509
0.538293
0.506735
0.475138
0.443738
0.412714
0.382164
0.352161
0.322641
0.293674
0.264927
0.236824
0.20818
0.181117
0.151039
0.127126
0.0906774
0.0794939
0.0171519
0.0587184
-11.6711
-11.6189
-11.4941
-11.2764
-10.9525
-10.5317
-10.0554
-9.59166
-9.22259
-9.02791
-9.07498
-9.41136
-10.0618
-11.0251
-12.2708
-13.7349
-15.3157
-16.8739
-18.2456
-19.2637
-19.7807
-19.6904
-18.9686
-17.6681
-15.9102
-13.8654
-11.7218
-9.65124
-7.7849
-6.20744
-4.96738
-4.0926
-3.60173
-3.51162
-3.83699
-4.58749
-5.76158
-7.32246
-9.18803
-11.2272
-13.2705
-15.1341
-16.6415
-17.6536
-18.0844
-17.9119
-17.1825
-15.9962
-14.485
-12.7889
-11.036
-9.32803
-7.73614
-6.30223
-5.04484
-3.96562
-3.05503
-2.29709
-1.67282
-1.16267
-0.748161
-0.412758
-0.142304
0.0749436
0.2485
0.385976
0.493434
0.575746
0.636881
0.680144
0.708347
0.723921
0.728989
0.725409
0.714793
0.69854
0.677842
0.653707
0.626979
0.59836
0.568435
0.537685
0.506507
0.47522
0.444069
0.413238
0.382827
0.352914
0.323439
0.294475
0.2657
0.237535
0.208818
0.181642
0.15149
0.127407
0.0909833
0.079468
0.017595
0.0580629
-11.5172
-11.4574
-11.3363
-11.1422
-10.8698
-10.5295
-10.1546
-9.79848
-9.52494
-9.39724
-9.46977
-9.78122
-10.351
-11.1764
-12.2292
-13.4531
-14.7613
-16.0388
-17.1522
-17.9638
-18.3593
-18.2551
-17.6269
-16.5138
-15.0123
-13.2588
-11.4063
-9.59823
-7.9498
-6.54147
-5.42447
-4.63115
-4.18346
-4.09859
-4.3892
-5.06014
-6.10442
-7.48532
-9.12823
-10.9191
-12.7127
-14.3512
-15.6832
-16.5882
-16.9886
-16.862
-16.2428
-15.2118
-13.8787
-12.3629
-10.776
-9.20999
-7.73136
-6.38211
-5.18351
-4.14118
-3.24995
-2.49794
-1.86979
-1.34897
-0.919426
-0.566515
-0.277524
-0.0417791
0.149474
0.303332
0.425545
0.520827
0.593114
0.645769
0.681724
0.703574
0.713627
0.713935
0.706302
0.692304
0.673295
0.650419
0.624636
0.596739
0.567377
0.53708
0.506273
0.475293
0.444393
0.413759
0.383495
0.353678
0.324254
0.295298
0.266497
0.238267
0.209474
0.182175
0.151948
0.127673
0.0913023
0.0793861
0.0181258
0.0572142
-11.3819
-11.3204
-11.2082
-11.0392
-10.8132
-10.5406
-10.2487
-9.97917
-9.78185
-9.7066
-9.79676
-10.0833
-10.581
-11.286
-12.1728
-13.1923
-14.2713
-15.3149
-16.2141
-16.8584
-17.1552
-17.0379
-16.486
-15.5297
-14.2445
-12.7392
-11.1381
-9.56123
-8.10907
-6.85642
-5.85465
-5.13833
-4.7313
-4.65071
-4.90744
-5.50336
-6.42744
-7.64425
-9.08645
-10.6548
-12.2248
-13.661
-14.8343
-15.6396
-16.0081
-15.9171
-15.3913
-14.4955
-13.3205
-11.9675
-10.5333
-9.09992
-7.72916
-6.46205
-5.32159
-4.31654
-3.44544
-2.70013
-2.06863
-1.53738
-1.09275
-0.722068
-0.414139
-0.159443
0.0499465
0.22057
0.35784
0.466308
0.549879
0.611987
0.655699
0.683789
0.698765
0.702885
0.698154
0.686335
0.668942
0.647264
0.622373
0.595153
0.56632
0.536447
0.50599
0.475299
0.444636
0.414192
0.38407
0.354349
0.324981
0.296039
0.267223
0.23894
0.210089
0.182676
0.152395
0.127917
0.0916424
0.0792512
0.0187618
0.0561554
-11.2634
-11.2043
-11.1039
-10.96
-10.775
-10.5591
-10.3346
-10.1344
-9.9972
-9.96215
-10.0634
-10.3253
-10.7587
-11.3589
-12.1031
-12.949
-13.8351
-14.6834
-15.4053
-15.912
-16.1283
-16.0015
-15.5144
-14.6897
-13.5869
-12.2931
-10.9093
-9.53587
-8.25992
-7.14974
-6.25503
-5.6109
-5.24188
-5.16483
-5.38912
-5.91466
-6.72803
-7.79561
-9.05711
-10.4262
-11.7962
-13.0513
-14.0811
-14.7944
-15.1304
-15.0666
-14.62
-13.8422
-12.8078
-11.6019
-10.308
-8.99882
-7.73079
-6.54334
-5.46029
-4.49277
-3.64242
-2.9044
-2.26994
-1.72831
-1.26837
-0.879481
-0.552071
-0.277856
-0.049805
0.13802
0.290674
0.41254
0.507508
0.579097
0.630531
0.664784
0.684582
0.692404
0.690466
0.680723
0.664861
0.644308
0.620254
0.593669
0.565334
0.535867
0.505747
0.475342
0.444917
0.414665
0.38469
0.355071
0.325762
0.296834
0.268001
0.239658
0.210741
0.183198
0.152862
0.12815
0.0920064
0.0790519
0.0195081
0.0548598
-11.1597
-11.1055
-11.0184
-10.8983
-10.7491
-10.5805
-10.4106
-10.2654
-10.1749
-10.1697
-10.2765
-10.514
-10.8899
-11.3989
-12.0209
-12.7197
-13.4441
-14.1299
-14.7051
-15.0988
-15.2498
-15.1163
-14.684
-13.9702
-13.0219
-11.9088
-10.7131
-9.51856
-8.40025
-7.41965
-6.62367
-6.04664
-5.71294
-5.6388
-5.83243
-6.29232
-7.00425
-7.93657
-9.03568
-10.2267
-11.4181
-12.5112
-13.4116
-14.0406
-14.3443
-14.301
-13.9218
-13.2471
-12.3378
-11.2652
-10.1006
-8.90766
-7.73757
-6.62738
-5.60099
-4.67115
-3.84203
-3.11173
-2.47446
-1.9223
-1.44661
-1.03887
-0.691255
-0.396807
-0.149464
0.056067
0.224464
0.35995
0.466411
0.547478
0.606558
0.64685
0.671318
0.68268
0.683377
0.675566
0.661105
0.641569
0.61826
0.592237
0.564343
0.535236
0.50542
0.475275
0.445071
0.415001
0.38517
0.355653
0.32641
0.29751
0.268677
0.240293
0.211335
0.183675
0.153312
0.128353
0.0923944
0.0787845
0.0203821
0.0533033
-11.069
-11.0214
-10.9478
-10.8497
-10.7314
-10.6018
-10.4758
-10.3737
-10.319
-10.3353
-10.4432
-10.6567
-10.9812
-11.411
-11.9285
-12.5029
-13.0918
-13.6425
-14.0967
-14.3975
-14.4957
-14.3579
-13.9725
-13.3527
-12.5356
-11.577
-10.544
-9.50639
-8.52853
-7.66511
-6.95946
-6.44429
-6.14315
-6.07142
-6.23632
-6.63554
-7.25489
-8.06499
-9.01849
-10.0505
-11.0828
-12.0314
-12.8155
-13.3674
-13.6399
-13.6118
-13.29
-12.7057
-11.9082
-10.9565
-9.91119
-8.82745
-7.75089
-6.71576
-5.7453
-4.85322
-4.04568
-3.32334
-2.68318
-2.12007
-1.6279
-1.20043
-0.83165
-0.516073
-0.248678
-0.0248602
0.159672
0.308993
0.427015
0.517511
0.584109
0.630261
0.6592
0.6739
0.677044
0.670996
0.657796
0.639163
0.616513
0.59099
0.563495
0.534722
0.505196
0.475306
0.445323
0.415438
0.385753
0.356341
0.327164
0.298285
0.269443
0.241002
0.211991
0.184191
0.153799
0.128553
0.0928212
0.0784431
0.021397
0.051453
-10.989
-10.9487
-10.8882
-10.8097
-10.7177
-10.6201
-10.5288
-10.4601
-10.4322
-10.4631
-10.5685
-10.7588
-11.0373
-11.3983
-11.8264
-12.2959
-12.7714
-13.21
-13.5647
-13.7897
-13.8456
-13.7058
-13.3608
-12.8209
-12.1154
-11.2893
-10.3972
-9.49694
-8.64372
-7.88562
-7.26201
-6.80341
-6.53203
-6.46228
-6.60053
-6.94406
-7.47925
-8.17929
-9.00252
-9.89292
-10.7838
-11.6036
-12.2836
-12.7655
-13.008
-12.9913
-12.7187
-12.2139
-11.5165
-10.6749
-9.74009
-8.75918
-7.77223
-6.81021
-5.89508
-5.04084
-4.25511
-3.54075
-2.89736
-2.32254
-1.81285
-1.3644
-0.973232
-0.635401
-0.347029
-0.104239
0.0968724
0.260251
0.389873
0.489703
0.563626
0.61539
0.648524
0.666288
0.671618
0.667101
0.65496
0.637061
0.614933
0.589801
0.56262
0.534117
0.504835
0.475166
0.445383
0.415671
0.38613
0.356829
0.327732
0.298893
0.27007
0.241602
0.212569
0.184648
0.154262
0.128714
0.0932756
0.0780143
0.0225691
0.0492728
-10.9188
-10.886
-10.8377
-10.7764
-10.7065
-10.6346
-10.5708
-10.5276
-10.5191
-10.5591
-10.6594
-10.8274
-11.0648
-11.3662
-11.7182
-12.0992
-12.48
-12.8258
-13.0986
-13.2618
-13.284
-13.1439
-12.8339
-12.3622
-11.7519
-11.0391
-10.2686
-9.48838
-8.74525
-8.08122
-7.53158
-7.12427
-6.87987
-6.81169
-6.92539
-7.21813
-7.67718
-8.27844
-8.98542
-9.74998
-10.5153
-11.2206
-11.8076
-12.2263
-12.4407
-12.4324
-12.2021
-11.7676
-11.1603
-10.4195
-9.58744
-8.70385
-7.80316
-6.91268
-6.05247
-5.23621
-4.47243
-3.76587
-3.11858
-2.53092
-2.00222
-1.53117
-1.11602
-0.754533
-0.444067
-0.181508
0.0366681
0.214319
0.355542
0.464545
0.545533
0.602592
0.639589
0.660094
0.667317
0.664077
0.652786
0.635457
0.613729
0.588902
0.561979
0.533713
0.504657
0.475204
0.445619
0.416082
0.386687
0.357494
0.328469
0.299657
0.270843
0.242312
0.21324
0.185168
0.154784
0.128883
0.0937885
0.0775009
0.0239233
0.0467228
-10.8555
-10.8299
-10.7926
-10.746
-10.6942
-10.6429
-10.6003
-10.576
-10.5811
-10.6258
-10.7189
-10.8656
-11.0664
-11.3162
-11.6034
-11.91
-12.2121
-12.4813
-12.6873
-12.8005
-12.7962
-12.6575
-12.3782
-11.9648
-11.4358
-10.8204
-10.1548
-9.47911
-8.83282
-8.25232
-7.76888
-7.40768
-7.18753
-7.12054
-7.21177
-7.45842
-7.84889
-8.36178
-8.96533
-9.61829
-10.2724
-10.8763
-11.3804
-11.7422
-11.9305
-11.9285
-11.735
-11.3631
-10.8373
-10.1893
-9.45334
-8.66245
-7.84537
-7.02536
-6.22
-5.44199
-4.70025
-4.00107
-3.34883
-2.7467
-2.19698
-1.7012
-1.26002
-0.873132
-0.539209
-0.255935