/*--------------------------------*- C++ -*----------------------------------*\
  =========                 |
  \\      /  F ield         | OpenFOAM: The Open Source CFD Toolbox
   \\    /   O peration     | Website:  https://openfoam.org
    \\  /    A nd           | Version:  10
     \\/     M anipulation  |
\*---------------------------------------------------------------------------*/
FoamFile
{
    format      ascii;
    class       volVectorField;
    location    "0.09";
    object      U;
}
// * * * * * * * * * * * * * * * * * * * * * * * * * * * * * * * * * * * * * //

dimensions      [0 1 -1 0 0 0 0];

internalField   nonuniform List<vector> 
6820
(
(5.5736 0.459139 0)
(3.88319 0.245904 0)
(2.58965 0.00878207 0)
(1.95798 -0.0642104 0)
(1.73287 -0.0595273 0)
(1.62196 -0.0340751 0)
(1.55718 -0.0154312 0)
(1.51139 -0.00538334 0)
(1.47293 -0.000819866 0)
(1.4397 0.00064677 0)
(1.41116 0.00065564 0)
(1.38688 9.151e-05 0)
(1.36641 -0.000636415 0)
(1.34929 -0.00134767 0)
(1.33509 -0.00197451 0)
(1.32348 -0.00250438 0)
(1.31419 -0.00294918 0)
(1.30706 -0.00332885 0)
(1.30199 -0.00366219 0)
(1.29891 -0.00396746 0)
(1.29793 -0.00420637 0)
(1.29903 -0.00462103 0)
(1.30232 -0.00503458 0)
(1.30802 -0.00548932 0)
(1.31632 -0.00597547 0)
(1.32751 -0.00652345 0)
(1.34184 -0.00717381 0)
(1.35993 -0.00789997 0)
(1.3815 -0.00879706 0)
(1.40881 -0.00924059 0)
(1.4362 -0.010374 0)
(1.47878 -0.00276523 0)
(1.47734 -0.0251908 0)
(7.66982 0.863854 0)
(7.71746 0.8907 0)
(7.00066 0.598305 0)
(6.19854 0.347392 0)
(5.58554 0.179483 0)
(5.14109 0.093011 0)
(4.82414 0.0526865 0)
(4.59524 0.0342463 0)
(4.42339 0.0258178 0)
(4.28932 0.0215365 0)
(4.18135 0.0189248 0)
(4.09219 0.0170358 0)
(4.01719 0.015486 0)
(3.95327 0.0141004 0)
(3.89829 0.0127837 0)
(3.85074 0.0114798 0)
(3.80953 0.0101513 0)
(3.77384 0.00876902 0)
(3.74311 0.00730673 0)
(3.71692 0.00573154 0)
(3.69496 0.00404518 0)
(3.67709 0.00210311 0)
(3.66328 -4.68449e-05 0)
(3.65359 -0.00244825 0)
(3.64818 -0.00524629 0)
(3.64726 -0.00842903 0)
(3.65116 -0.0120836 0)
(3.66039 -0.0162469 0)
(3.67536 -0.0211552 0)
(3.69719 -0.0261321 0)
(3.72574 -0.0327043 0)
(3.76596 -0.0346369 0)
(3.81653 -0.0426961 0)
(7.56353 0.520237 0)
(8.22527 0.663362 0)
(8.46522 0.5759 0)
(8.36485 0.458358 0)
(8.12969 0.34437 0)
(7.85347 0.259634 0)
(7.58387 0.200147 0)
(7.34061 0.157495 0)
(7.12698 0.126503 0)
(6.94098 0.103466 0)
(6.77939 0.0858818 0)
(6.63882 0.0721585 0)
(6.51622 0.0612425 0)
(6.40899 0.0524069 0)
(6.31492 0.0451161 0)
(6.23222 0.0389612 0)
(6.15939 0.0336273 0)
(6.09523 0.0288676 0)
(6.03875 0.0244828 0)
(5.98919 0.0203046 0)
(5.94595 0.0161728 0)
(5.9086 0.012004 0)
(5.87684 0.00763121 0)
(5.85048 0.00292517 0)
(5.82946 -0.00230446 0)
(5.81385 -0.0081871 0)
(5.80398 -0.0148463 0)
(5.80026 -0.0225287 0)
(5.80308 -0.0313837 0)
(5.81328 -0.0412688 0)
(5.83132 -0.0530414 0)
(5.85969 -0.0646721 0)
(5.89903 -0.0819518 0)
(7.43338 0.341005 0)
(7.88473 0.514255 0)
(8.24359 0.489256 0)
(8.44246 0.42943 0)
(8.54263 0.358305 0)
(8.57336 0.297934 0)
(8.55913 0.252136 0)
(8.51944 0.217009 0)
(8.46524 0.189514 0)
(8.40286 0.167358 0)
(8.33642 0.148928 0)
(8.26864 0.133233 0)
(8.20129 0.119621 0)
(8.13571 0.107631 0)
(8.07277 0.0969436 0)
(8.01298 0.0873093 0)
(7.95667 0.0785116 0)
(7.90404 0.0703563 0)
(7.85519 0.0626645 0)
(7.81019 0.0552663 0)
(7.76907 0.047999 0)
(7.73188 0.0406991 0)
(7.69869 0.0331826 0)
(7.66956 0.0252614 0)
(7.64462 0.0167682 0)
(7.62411 0.00744716 0)
(7.60799 -0.00302976 0)
(7.5967 -0.0148023 0)
(7.5907 -0.0283101 0)
(7.59066 -0.0436797 0)
(7.59717 -0.0616802 0)
(7.612 -0.0817644 0)
(7.63674 -0.106713 0)
(7.39683 0.250934 0)
(7.68006 0.420787 0)
(7.92363 0.403601 0)
(8.07781 0.35358 0)
(8.18864 0.298912 0)
(8.27142 0.253398 0)
(8.33299 0.219715 0)
(8.3807 0.194179 0)
(8.4185 0.174022 0)
(8.44844 0.157568 0)
(8.47203 0.143692 0)
(8.49047 0.131696 0)
(8.50468 0.121133 0)
(8.5152 0.111673 0)
(8.52264 0.103055 0)
(8.52759 0.0950673 0)
(8.53055 0.0875304 0)
(8.532 0.0802861 0)
(8.53234 0.0731867 0)
(8.53194 0.0660884 0)
(8.53113 0.0588441 0)
(8.53021 0.0513043 0)
(8.52948 0.0432987 0)
(8.5292 0.0346418 0)
(8.52963 0.0251311 0)
(8.531 0.0145257 0)
(8.53366 0.0025406 0)
(8.53749 -0.010958 0)
(8.54263 -0.0264981 0)
(8.54953 -0.0444598 0)
(8.55846 -0.0655921 0)
(8.57037 -0.0902438 0)
(8.58554 -0.120631 0)
(7.37403 0.180572 0)
(7.57421 0.335812 0)
(7.76112 0.341869 0)
(7.87588 0.312614 0)
(7.95248 0.273445 0)
(8.00835 0.235367 0)
(8.05044 0.204173 0)
(8.08544 0.179317 0)
(8.1168 0.15931 0)
(8.14571 0.142988 0)
(8.17273 0.129373 0)
(8.1982 0.117737 0)
(8.22231 0.107594 0)
(8.2453 0.0985981 0)
(8.26728 0.0904578 0)
(8.28833 0.0829375 0)
(8.30852 0.075844 0)
(8.32791 0.0690086 0)
(8.34659 0.0622757 0)
(8.36462 0.0554946 0)
(8.38206 0.0485127 0)
(8.39897 0.0411727 0)
(8.41541 0.0333003 0)
(8.43144 0.0247062 0)
(8.44705 0.0151876 0)
(8.46234 0.00452767 0)
(8.47718 -0.0075079 0)
(8.49187 -0.0212465 0)
(8.50638 -0.0370565 0)
(8.52076 -0.0553793 0)
(8.53491 -0.0769455 0)
(8.54901 -0.102411 0)
(8.56265 -0.133421 0)
(7.35906 0.132634 0)
(7.50339 0.272804 0)
(7.65595 0.29448 0)
(7.75624 0.27763 0)
(7.82272 0.248044 0)
(7.87014 0.216196 0)
(7.90413 0.188634 0)
(7.93043 0.16609 0)
(7.95275 0.147564 0)
(7.97272 0.132163 0)
(7.9912 0.119129 0)
(8.00874 0.107867 0)
(8.02563 0.0979482 0)
(8.04203 0.0890527 0)
(8.05807 0.0809347 0)
(8.07383 0.0733932 0)
(8.08935 0.0662535 0)
(8.10468 0.0593565 0)
(8.11985 0.0525518 0)
(8.13486 0.0456929 0)
(8.14973 0.0386316 0)
(8.16447 0.0312151 0)
(8.17907 0.0232787 0)
(8.1935 0.0146454 0)
(8.20775 0.00511875 0)
(8.22176 -0.00550264 0)
(8.23558 -0.0175028 0)
(8.24913 -0.0312236 0)
(8.26228 -0.0469983 0)
(8.27495 -0.0652274 0)
(8.28692 -0.0865404 0)
(8.29795 -0.111635 0)
(8.30745 -0.14168 0)
(7.34965 0.0989152 0)
(7.45351 0.220141 0)
(7.57673 0.249772 0)
(7.6657 0.242924 0)
(7.72785 0.2232 0)
(7.774 0.199053 0)
(7.80796 0.176269 0)
(7.83404 0.156471 0)
(7.8556 0.139438 0)
(7.87435 0.124784 0)
(7.89123 0.112097 0)
(7.90686 0.100972 0)
(7.92163 0.0910766 0)
(7.93578 0.0821508 0)
(7.94947 0.0739742 0)
(7.96281 0.0663536 0)
(7.97588 0.0591168 0)
(7.98875 0.0521069 0)
(8.00146 0.0451765 0)
(8.01405 0.0381821 0)
(8.02653 0.0309798 0)
(8.03892 0.0234211 0)
(8.05122 0.0153482 0)
(8.06341 0.00658955 0)
(8.07547 -0.00304364 0)
(8.08733 -0.0137769 0)
(8.09892 -0.025842 0)
(8.11013 -0.0395264 0)
(8.1208 -0.0551305 0)
(8.13071 -0.0730262 0)
(8.13959 -0.0937273 0)
(8.14695 -0.117837 0)
(8.15215 -0.146059 0)
(7.34382 0.0749364 0)
(7.41928 0.178122 0)
(7.51825 0.212228 0)
(7.59587 0.212934 0)
(7.65271 0.200265 0)
(7.69657 0.181566 0)
(7.73017 0.162226 0)
(7.7566 0.144575 0)
(7.77866 0.128959 0)
(7.79787 0.115266 0)
(7.81512 0.10325 0)
(7.83098 0.0926086 0)
(7.84586 0.0830642 0)
(7.85999 0.0743856 0)
(7.87356 0.0663728 0)
(7.88668 0.0588497 0)
(7.89944 0.0516588 0)
(7.91191 0.0446552 0)
(7.92414 0.0377005 0)
(7.93615 0.0306593 0)
(7.94797 0.023395 0)
(7.9596 0.015767 0)
(7.97104 0.00762715 0)
(7.98225 -0.00118403 0)
(7.9932 -0.0108386 0)
(8.00381 -0.0215264 0)
(8.01397 -0.0334523 0)
(8.02354 -0.0468618 0)
(8.03232 -0.062025 0)
(8.04003 -0.0792492 0)
(8.04633 -0.098911 0)
(8.05061 -0.121451 0)
(8.05224 -0.147206 0)
(7.34018 0.0576691 0)
(7.3956 0.144377 0)
(7.4749 0.17952 0)
(7.54205 0.185148 0)
(7.59363 0.177766 0)
(7.63487 0.163864 0)
(7.6676 0.148096 0)
(7.69392 0.132912 0)
(7.71607 0.118969 0)
(7.73543 0.106372 0)
(7.7528 0.0950583 0)
(7.76875 0.0848615 0)
(7.78367 0.0755946 0)
(7.79781 0.0670828 0)
(7.81133 0.0591645 0)
(7.82436 0.0516888 0)
(7.83698 0.0445142 0)
(7.84926 0.0375059 0)
(7.86123 0.030534 0)
(7.87292 0.02347 0)
(7.88433 0.0161854 0)
(7.89548 0.00854852 0)
(7.90632 0.000422602 0)
(7.91683 -0.0083364 0)
(7.92694 -0.0178813 0)
(7.93656 -0.0283778 0)
(7.94557 -0.0400058 0)
(7.95379 -0.0529642 0)
(7.961 -0.0674629 0)
(7.96688 -0.0837258 0)
(7.97106 -0.101992 0)
(7.97289 -0.122524 0)
(7.97181 -0.145386 0)
(7.33789 0.0449929 0)
(7.37912 0.117219 0)
(7.44271 0.151371 0)
(7.50053 0.160306 0)
(7.5471 0.156976 0)
(7.58556 0.146933 0)
(7.61706 0.134105 0)
(7.64297 0.120936 0)
(7.66503 0.108359 0)
(7.68443 0.0966885 0)
(7.70189 0.0860089 0)
(7.71791 0.076259 0)
(7.73287 0.0673153 0)
(7.747 0.0590408 0)
(7.76047 0.0512979 0)
(7.7734 0.0439515 0)
(7.78587 0.036872 0)
(7.79793 0.0299345 0)
(7.80963 0.0230181 0)
(7.82097 0.0160037 0)
(7.83198 0.00877243 0)
(7.84262 0.00120385 0)
(7.85288 -0.00682493 0)
(7.8627 -0.0154404 0)
(7.872 -0.0247743 0)
(7.88068 -0.0349643 0)
(7.88861 -0.046153 0)
(7.89559 -0.0584871 0)
(7.9014 -0.072112 0)
(7.90569 -0.0871682 0)
(7.9081 -0.103773 0)
(7.90802 -0.122034 0)
(7.90497 -0.141823 0)
(7.33643 0.0355029 0)
(7.36754 0.0953004 0)
(7.41865 0.127129 0)
(7.46822 0.137879 0)
(7.51006 0.137349 0)
(7.54572 0.130268 0)
(7.57585 0.11995 0)
(7.60122 0.108684 0)
(7.62312 0.0975193 0)
(7.64252 0.0868827 0)
(7.66004 0.0769481 0)
(7.67613 0.0677333 0)
(7.69113 0.0591743 0)
(7.70527 0.0511767 0)
(7.7187 0.043634 0)
(7.73155 0.0364348 0)
(7.74388 0.0294673 0)
(7.75575 0.0226211 0)
(7.7672 0.0157871 0)
(7.77823 0.00885768 0)
(7.78885 0.0017253 0)
(7.79903 -0.00571692 0)
(7.80874 -0.0135766 0)
(7.81792 -0.021962 0)
(7.82648 -0.0309813 0)
(7.83432 -0.0407422 0)
(7.84129 -0.0513496 0)
(7.84719 -0.0629025 0)
(7.85179 -0.0754859 0)
(7.85479 -0.0891631 0)
(7.85583 -0.103951 0)
(7.85438 -0.119828 0)
(7.85007 -0.136553 0)
(7.33549 0.0282461 0)
(7.35932 0.0774952 0)
(7.40057 0.106246 0)
(7.44299 0.11772 0)
(7.48044 0.119093 0)
(7.51337 0.114291 0)
(7.54198 0.106056 0)
(7.56663 0.096432 0)
(7.58823 0.0864994 0)
(7.60753 0.0767695 0)
(7.62505 0.0674939 0)
(7.64118 0.0587612 0)
(7.65622 0.050562 0)
(7.67038 0.0428394 0)
(7.6838 0.0355132 0)
(7.69659 0.0284914 0)
(7.70881 0.0216762 0)
(7.72053 0.0149688 0)
(7.73176 0.00827105 0)
(7.74251 0.00148548 0)
(7.75278 -0.00548361 0)
(7.76255 -0.0127294 0)
(7.77176 -0.0203436 0)
(7.78037 -0.0284153 0)
(7.78827 -0.0370288 0)
(7.79536 -0.0462629 0)
(7.8015 -0.0561861 0)
(7.80649 -0.0668523 0)
(7.81013 -0.0782915 0)
(7.81213 -0.0905012 0)
(7.81219 -0.103421 0)
(7.80987 -0.11694 0)
(7.80491 -0.130753 0)
(7.33487 0.022577 0)
(7.35341 0.06292 0)
(7.38692 0.088235 0)
(7.42321 0.0995977 0)
(7.45665 0.102097 0)
(7.48694 0.0989144 0)
(7.51396 0.0923117 0)
(7.53778 0.0840697 0)
(7.55897 0.0752445 0)
(7.5781 0.0663855 0)
(7.59557 0.0577866 0)
(7.61172 0.04958 0)
(7.62678 0.0417941 0)
(7.64095 0.0344013 0)
(7.65435 0.0273443 0)
(7.66708 0.0205493 0)
(7.67921 0.0139339 0)
(7.69078 0.00741286 0)
(7.7018 0.000900039 0)
(7.7123 -0.00568926 0)
(7.72225 -0.0124374 0)
(7.73163 -0.0194241 0)
(7.7404 -0.0267241 0)
(7.74849 -0.0344065 0)
(7.75582 -0.0425328 0)
(7.76227 -0.0511536 0)
(7.76772 -0.0603044 0)
(7.77199 -0.0700001 0)
(7.7749 -0.0802256 0)
(7.77619 -0.0909279 0)
(7.77564 -0.101993 0)
(7.77289 -0.113254 0)
(7.76779 -0.124385 0)
(7.33444 0.0180541 0)
(7.34911 0.0508732 0)
(7.37655 0.0726495 0)
(7.40765 0.0832939 0)
(7.43748 0.086311 0)
(7.46528 0.0842218 0)
(7.49071 0.0788713 0)
(7.51362 0.0717733 0)
(7.53431 0.0639073 0)
(7.55318 0.0558258 0)
(7.57055 0.0478446 0)
(7.58665 0.040127 0)
(7.60171 0.0327329 0)
(7.61587 0.0256611 0)
(7.62924 0.0188755 0)
(7.64192 0.0123195 0)
(7.65396 0.00592502 0)
(7.66539 -0.000381012 0)
(7.67623 -0.00667315 0)
(7.68649 -0.0130244 0)
(7.69616 -0.0195051 0)
(7.7052 -0.0261807 0)
(7.71358 -0.0331107 0)
(7.72122 -0.0403458 0)
(7.72806 -0.0479264 0)
(7.73399 -0.0558784 0)
(7.73889 -0.0642093 0)
(7.74262 -0.0729021 0)
(7.74501 -0.0819077 0)
(7.74588 -0.0911373 0)
(7.74503 -0.100445 0)
(7.74221 -0.109635 0)
(7.73735 -0.118385 0)
(7.33414 0.0143718 0)
(7.34594 0.0408052 0)
(7.36862 0.0590979 0)
(7.39537 0.0685972 0)
(7.422 0.0716462 0)
(7.44751 0.0701956 0)
(7.47138 0.0657349 0)
(7.49333 0.0595298 0)
(7.51347 0.0524619 0)
(7.53203 0.0450646 0)
(7.54924 0.0376582 0)
(7.56527 0.0304218 0)
(7.58029 0.023435 0)
(7.59443 0.0167149 0)
(7.60777 0.0102409 0)
(7.62039 0.00396991 0)
(7.63233 -0.00215372 0)
(7.64364 -0.00819205 0)
(7.65431 -0.0142084 0)
(7.66436 -0.0202647 0)
(7.67377 -0.0264192 0)
(7.68251 -0.0327239 0)
(7.69055 -0.0392234 0)
(7.69782 -0.0459516 0)
(7.70426 -0.05293 0)
(7.70977 -0.0601636 0)
(7.71427 -0.0676371 0)
(7.71762 -0.0753097 0)
(7.7197 -0.0831084 0)
(7.72036 -0.0909232 0)
(7.71949 -0.0985929 0)
(7.71689 -0.105914 0)
(7.71256 -0.11259 0)
(7.33393 0.0113149 0)
(7.34358 0.0322856 0)
(7.36254 0.047236 0)
(7.38568 0.0553015 0)
(7.4095 0.058003 0)
(7.43292 0.0568178 0)
(7.45532 0.0529359 0)
(7.47631 0.0473999 0)
(7.49586 0.0409803 0)
(7.51407 0.0341712 0)
(7.53108 0.0272816 0)
(7.54701 0.020494 0)
(7.56197 0.0138987 0)
(7.57606 0.00752593 0)
(7.58936 0.00136752 0)
(7.60192 -0.00460785 0)
(7.61378 -0.0104448 0)
(7.62496 -0.016195 0)
(7.63548 -0.0219115 0)
(7.64535 -0.0276458 0)
(7.65453 -0.0334448 0)
(7.66302 -0.0393487 0)
(7.67077 -0.0453887 0)
(7.67774 -0.0515846 0)
(7.68387 -0.0579422 0)
(7.68909 -0.06445 0)
(7.6933 -0.0710759 0)
(7.69643 -0.077763 0)
(7.69838 -0.0844243 0)
(7.69905 -0.0909401 0)
(7.69836 -0.0971482 0)
(7.69619 -0.102852 0)
(7.6926 -0.107789 0)
(7.33377 0.00872904 0)
(7.3418 0.0249771 0)
(7.35785 0.0367656 0)
(7.37802 0.0432117 0)
(7.39942 0.0452725 0)
(7.42098 0.0440448 0)
(7.44201 0.0404677 0)
(7.46208 0.0353888 0)
(7.48102 0.029466 0)
(7.49886 0.0231437 0)
(7.51565 0.01671 0)
(7.53145 0.0103416 0)
(7.54633 0.00413233 0)
(7.56037 -0.00188076 0)
(7.57362 -0.00769761 0)
(7.58612 -0.0133412 0)
(7.5979 -0.0188483 0)
(7.60898 -0.0242619 0)
(7.61936 -0.0296266 0)
(7.62906 -0.034985 0)
(7.63806 -0.0403744 0)
(7.64633 -0.0458247 0)
(7.65386 -0.0513559 0)
(7.66059 -0.0569762 0)
(7.66649 -0.0626791 0)
(7.6715 -0.0684413 0)
(7.67555 -0.0742193 0)
(7.67859 -0.0799469 0)
(7.68056 -0.0855316 0)
(7.68138 -0.0908531 0)
(7.68102 -0.0957576 0)
(7.67944 -0.100066 0)
(7.67671 -0.103553 0)
(7.33365 0.00650066 0)
(7.34045 0.0186137 0)
(7.35423 0.0274288 0)
(7.37198 0.0321428 0)
(7.39133 0.0333386 0)
(7.41124 0.0318168 0)
(7.43105 0.02831 0)
(7.45025 0.0234983 0)
(7.46862 0.0179318 0)
(7.48608 0.0119981 0)
(7.50264 0.00595558 0)
(7.5183 -3.29805e-05 0)
(7.53311 -0.00587752 0)
(7.54709 -0.0115397 0)
(7.56029 -0.0170155 0)
(7.57273 -0.0223224 0)
(7.58444 -0.0274909 0)
(7.59543 -0.0325574 0)
(7.6057 -0.0375591 0)
(7.61527 -0.0425307 0)
(7.62411 -0.0475015 0)
(7.63222 -0.0524927 0)
(7.63958 -0.0575153 0)
(7.64614 -0.0625685 0)
(7.65189 -0.067637 0)
(7.65679 -0.0726898 0)
(7.66079 -0.0776771 0)
(7.66385 -0.0825295 0)
(7.66595 -0.0871552 0)
(7.66705 -0.0914404 0)
(7.66715 -0.0952461 0)
(7.66624 -0.0984162 0)
(7.66441 -0.100762 0)
(7.33356 0.00454431 0)
(7.33942 0.0129838 0)
(7.35144 0.0190026 0)
(7.36724 0.0219203 0)
(7.38487 0.0220812 0)
(7.40338 0.0200616 0)
(7.4221 0.0164264 0)
(7.44052 0.0117147 0)
(7.45835 0.00637705 0)
(7.47547 0.000742035 0)
(7.4918 -0.00496607 0)
(7.50733 -0.0106038 0)
(7.52205 -0.0160903 0)
(7.53598 -0.0213903 0)
(7.54913 -0.0264996 0)
(7.56152 -0.0314338 0)
(7.57317 -0.0362196 0)
(7.58408 -0.0408892 0)
(7.59426 -0.0454748 0)
(7.60371 -0.0500056 0)
(7.61243 -0.0545048 0)
(7.62042 -0.0589873 0)
(7.62764 -0.0634581 0)
(7.6341 -0.06791 0)
(7.63977 -0.0723227 0)
(7.64462 -0.0766612 0)
(7.64864 -0.080874 0)
(7.65181 -0.084893 0)
(7.65412 -0.0886322 0)
(7.65557 -0.0919888 0)
(7.65619 -0.0948418 0)
(7.65599 -0.0970608 0)
(7.65509 -0.098492 0)
(7.3335 0.00279376 0)
(7.33865 0.00791607 0)
(7.3493 0.0112931 0)
(7.36356 0.0123797 0)
(7.37978 0.011375 0)
(7.39712 0.00869025 0)
(7.41492 0.00475597 0)
(7.43266 -7.11045e-06 0)
(7.45003 -0.00523871 0)
(7.46684 -0.0106693 0)
(7.48299 -0.0161124 0)
(7.4984 -0.0214486 0)
(7.51306 -0.0266112 0)
(7.52695 -0.0315724 0)
(7.54007 -0.0363314 0)
(7.55243 -0.0409043 0)
(7.56404 -0.0453168 0)
(7.57489 -0.0495984 0)
(7.58501 -0.053778 0)
(7.59439 -0.0578807 0)
(7.60303 -0.0619254 0)
(7.61093 -0.0659226 0)
(7.61809 -0.0698728 0)
(7.62449 -0.0737656 0)
(7.63013 -0.077578 0)
(7.63501 -0.0812741 0)
(7.63912 -0.0848044 0)
(7.64247 -0.0881054 0)
(7.64506 -0.0911 0)
(7.64692 -0.0936991 0)
(7.64809 -0.0958012 0)
(7.6486 -0.0973011 0)
(7.64858 -0.0980767 0)
(7.33344 0.0011955 0)
(7.33807 0.00326849 0)
(7.34769 0.00412874 0)
(7.36075 0.00336475 0)
(7.37586 0.00109411 0)
(7.39226 -0.00238907 0)
(7.40931 -0.00675967 0)
(7.4265 -0.0116945 0)
(7.44348 -0.0169126 0)
(7.46004 -0.022201 0)
(7.47603 -0.0274128 0)
(7.49136 -0.0324556 0)
(7.50597 -0.0372806 0)
(7.51983 -0.0418718 0)
(7.53294 -0.0462355 0)
(7.54528 -0.0503919 0)
(7.55685 -0.0543687 0)
(7.56768 -0.0581956 0)
(7.57774 -0.0619007 0)
(7.58707 -0.0655079 0)
(7.59565 -0.0690338 0)
(7.6035 -0.0724871 0)
(7.61061 -0.0758667 0)
(7.61699 -0.0791611 0)
(7.62266 -0.0823476 0)
(7.6276 -0.0853924 0)
(7.63184 -0.08825 0)
(7.6354 -0.0908643 0)
(7.6383 -0.0931689 0)
(7.64057 -0.0950895 0)
(7.64228 -0.096544 0)
(7.64348 -0.097451 0)
(7.64428 -0.0977155 0)
(7.33341 -0.000294104 0)
(7.33764 -0.0010794 0)
(7.34651 -0.00264563 0)
(7.35868 -0.00527866 0)
(7.37296 -0.00890122 0)
(7.38864 -0.0133015 0)
(7.40514 -0.0182376 0)
(7.42192 -0.0234682 0)
(7.43864 -0.0287836 0)
(7.45504 -0.0340254 0)
(7.47095 -0.0390869 0)
(7.48624 -0.0439049 0)
(7.50086 -0.0484513 0)
(7.51474 -0.052724 0)
(7.52787 -0.0567388 0)
(7.54023 -0.0605219 0)
(7.55182 -0.0641045 0)
(7.56264 -0.0675183 0)
(7.5727 -0.0707923 0)
(7.582 -0.0739499 0)
(7.59057 -0.0770078 0)
(7.5984 -0.0799742 0)
(7.60551 -0.0828479 0)
(7.61192 -0.0856186 0)
(7.61765 -0.0882656 0)
(7.6227 -0.090759 0)
(7.62711 -0.0930595 0)
(7.6309 -0.0951194 0)
(7.63412 -0.096884 0)
(7.63681 -0.0982935 0)
(7.63904 -0.0992839 0)
(7.64087 -0.0997945 0)
(7.6424 -0.0997531 0)
(7.33338 -0.0017136 0)
(7.33736 -0.00523443 0)
(7.34571 -0.00917234 0)
(7.35726 -0.013695 0)
(7.37096 -0.0187363 0)
(7.38616 -0.024138 0)
(7.40227 -0.0297209 0)
(7.4188 -0.0353106 0)
(7.43536 -0.0407597 0)
(7.45168 -0.045962 0)
(7.46757 -0.0508518 0)
(7.48289 -0.0553985 0)
(7.49754 -0.059599 0)
(7.51147 -0.0634701 0)
(7.52464 -0.0670412 0)
(7.53704 -0.070349 0)
(7.54865 -0.0734317 0)
(7.55948 -0.0763261 0)
(7.56954 -0.0790646 0)
(7.57884 -0.0816733 0)
(7.5874 -0.0841704 0)
(7.59524 -0.0865658 0)
(7.60237 -0.0888604 0)
(7.60882 -0.0910464 0)
(7.61462 -0.093107 0)
(7.61979 -0.0950172 0)
(7.62437 -0.0967447 0)
(7.62839 -0.0982509 0)
(7.63192 -0.0994924 0)
(7.635 -0.100423 0)
(7.63769 -0.100995 0)
(7.64007 -0.101166 0)
(7.64224 -0.100882 0)
(7.33337 -0.00309918 0)
(7.33718 -0.00929844 0)
(7.34523 -0.0155968 0)
(7.35643 -0.0220532 0)
(7.36981 -0.0285984 0)
(7.38477 -0.035112 0)
(7.40074 -0.0414665 0)
(7.41721 -0.0475459 0)
(7.43378 -0.0532596 0)
(7.45018 -0.0585497 0)
(7.46617 -0.06339 0)
(7.48161 -0.0677817 0)
(7.4964 -0.0717461 0)
(7.51045 -0.0753191 0)
(7.52373 -0.0785448 0)
(7.53621 -0.0814705 0)
(7.5479 -0.084143 0)
(7.55879 -0.0866053 0)
(7.56889 -0.0888945 0)
(7.57822 -0.0910406 0)
(7.58681 -0.0930653 0)
(7.59468 -0.0949817 0)
(7.60185 -0.0967942 0)
(7.60837 -0.0984989 0)
(7.61426 -0.100084 0)
(7.61956 -0.101531 0)
(7.62431 -0.102815 0)
(7.62857 -0.103906 0)
(7.63238 -0.104772 0)
(7.6358 -0.105378 0)
(7.6389 -0.105691 0)
(7.64175 -0.105683 0)
(7.64443 -0.105313 0)
(7.33336 -0.00448479 0)
(7.33712 -0.0133664 0)
(7.34506 -0.0220486 0)
(7.35614 -0.0304806 0)
(7.36945 -0.0385736 0)
(7.3844 -0.0462267 0)
(7.40041 -0.0533511 0)
(7.41697 -0.0598823 0)
(7.43369 -0.0657847 0)
(7.45025 -0.0710522 0)
(7.46643 -0.0757045 0)
(7.48206 -0.0797813 0)
(7.49702 -0.0833359 0)
(7.51123 -0.0864294 0)
(7.52465 -0.0891257 0)
(7.53725 -0.0914876 0)
(7.54903 -0.0935734 0)
(7.55999 -0.0954349 0)
(7.57015 -0.0971162 0)
(7.57953 -0.0986524 0)
(7.58816 -0.10007 0)
(7.59607 -0.101385 0)
(7.60329 -0.102607 0)
(7.60987 -0.103737 0)
(7.61585 -0.104767 0)
(7.62126 -0.105684 0)
(7.62617 -0.106472 0)
(7.63062 -0.107109 0)
(7.63467 -0.107571 0)
(7.63838 -0.107835 0)
(7.64182 -0.107878 0)
(7.64505 -0.107685 0)
(7.64817 -0.107224 0)
(7.33337 -0.00590743 0)
(7.33717 -0.0175505 0)
(7.34521 -0.0287116 0)
(7.35646 -0.0392401 0)
(7.37 -0.0490312 0)
(7.38524 -0.0580034 0)
(7.4016 -0.0661028 0)
(7.41854 -0.0733091 0)
(7.43565 -0.079633 0)
(7.4526 -0.0851117 0)
(7.46915 -0.0898032 0)
(7.48512 -0.0937808 0)
(7.50038 -0.0971265 0)
(7.51486 -0.0999255 0)
(7.5285 -0.102262 0)
(7.54128 -0.104215 0)
(7.55321 -0.105857 0)
(7.56428 -0.107251 0)
(7.57452 -0.108449 0)
(7.58397 -0.109496 0)
(7.59265 -0.110423 0)
(7.60061 -0.111254 0)
(7.60789 -0.112003 0)
(7.61453 -0.112677 0)
(7.62059 -0.113274 0)
(7.6261 -0.113789 0)
(7.63114 -0.114211 0)
(7.63574 -0.114527 0)
(7.63998 -0.11472 0)
(7.64391 -0.114777 0)
(7.6476 -0.114681 0)
(7.65111 -0.114427 0)
(7.65451 -0.11399 0)
(7.33338 -0.00740523 0)
(7.33732 -0.0219457 0)
(7.34565 -0.0356834 0)
(7.3573 -0.048346 0)
(7.37129 -0.0597957 0)
(7.38703 -0.0699625 0)
(7.40391 -0.0788318 0)
(7.42139 -0.0864422 0)
(7.43902 -0.0928699 0)
(7.45648 -0.0982146 0)
(7.4735 -0.10259 0)
(7.4899 -0.106115 0)
(7.50555 -0.108911 0)
(7.52035 -0.111093 0)
(7.53428 -0.112768 0)
(7.5473 -0.114033 0)
(7.55941 -0.114975 0)
(7.57063 -0.115667 0)
(7.58099 -0.116171 0)
(7.59053 -0.116535 0)
(7.59928 -0.116798 0)
(7.6073 -0.116988 0)
(7.61463 -0.117125 0)
(7.62133 -0.117219 0)
(7.62744 -0.117274 0)
(7.63304 -0.11729 0)
(7.63816 -0.117262 0)
(7.64288 -0.117182 0)
(7.64726 -0.117041 0)
(7.65135 -0.116832 0)
(7.65522 -0.116545 0)
(7.65893 -0.116181 0)
(7.66257 -0.115721 0)
(7.33341 -0.00903186 0)
(7.33764 -0.0267418 0)
(7.34657 -0.0433479 0)
(7.35902 -0.0584793 0)
(7.37394 -0.0719855 0)
(7.39066 -0.0838053 0)
(7.40853 -0.0939421 0)
(7.42695 -0.102465 0)
(7.44546 -0.109489 0)
(7.46371 -0.115157 0)
(7.48143 -0.119625 0)
(7.49844 -0.123055 0)
(7.51459 -0.125607 0)
(7.52983 -0.127429 0)
(7.54409 -0.12866 0)
(7.55739 -0.129423 0)
(7.56971 -0.129823 0)
(7.58109 -0.129953 0)
(7.59157 -0.129886 0)
(7.60118 -0.129683 0)
(7.60999 -0.129393 0)
(7.61805 -0.129051 0)
(7.6254 -0.128682 0)
(7.63212 -0.128303 0)
(7.63826 -0.127925 0)
(7.64388 -0.127551 0)
(7.64905 -0.127182 0)
(7.65381 -0.126815 0)
(7.65825 -0.126446 0)
(7.6624 -0.126071 0)
(7.66634 -0.125686 0)
(7.67012 -0.125293 0)
(7.67381 -0.124874 0)
(7.33344 -0.0108323 0)
(7.33803 -0.0319807 0)
(7.34771 -0.0515325 0)
(7.36113 -0.0689587 0)
(7.37712 -0.0841027 0)
(7.39497 -0.0969627 0)
(7.41398 -0.107634 0)
(7.43352 -0.116289 0)
(7.4531 -0.123141 0)
(7.47234 -0.128411 0)
(7.49096 -0.13232 0)
(7.50876 -0.135078 0)
(7.52561 -0.136882 0)
(7.54143 -0.13791 0)
(7.55618 -0.138321 0)
(7.56987 -0.138255 0)
(7.5825 -0.13783 0)
(7.59412 -0.137146 0)
(7.60477 -0.136288 0)
(7.61452 -0.135322 0)
(7.62341 -0.134301 0)
(7.63152 -0.133267 0)
(7.6389 -0.132249 0)
(7.64564 -0.131269 0)
(7.65178 -0.13034 0)
(7.65741 -0.129472 0)
(7.66257 -0.128669 0)
(7.66735 -0.127931 0)
(7.67179 -0.127259 0)
(7.67596 -0.126652 0)
(7.67993 -0.126108 0)
(7.68374 -0.125633 0)
(7.68748 -0.125209 0)
(7.33352 -0.0129271 0)
(7.33885 -0.038214 0)
(7.34997 -0.0615693 0)
(7.36522 -0.0823451 0)
(7.38318 -0.100346 0)
(7.40297 -0.115522 0)
(7.4238 -0.127944 0)
(7.44499 -0.13781 0)
(7.46601 -0.14539 0)
(7.48648 -0.150974 0)
(7.50616 -0.154861 0)
(7.52483 -0.157336 0)
(7.5424 -0.158663 0)
(7.5588 -0.159077 0)
(7.57402 -0.158785 0)
(7.58806 -0.157962 0)
(7.60096 -0.156758 0)
(7.61277 -0.155295 0)
(7.62355 -0.153673 0)
(7.63336 -0.151971 0)
(7.64228 -0.150252 0)
(7.65039 -0.148562 0)
(7.65774 -0.146937 0)
(7.66442 -0.145401 0)
(7.6705 -0.143972 0)
(7.67605 -0.14266 0)
(7.68113 -0.141471 0)
(7.68581 -0.14041 0)
(7.69016 -0.139476 0)
(7.69423 -0.13867 0)
(7.69808 -0.137991 0)
(7.70175 -0.137442 0)
(7.70532 -0.137003 0)
(7.33355 -0.0153245 0)
(7.33947 -0.0449465 0)
(7.35189 -0.0715419 0)
(7.36884 -0.094372 0)
(7.3887 -0.113481 0)
(7.41056 -0.12908 0)
(7.43353 -0.141456 0)
(7.4568 -0.150969 0)
(7.47977 -0.157993 0)
(7.50203 -0.162885 0)
(7.52326 -0.165984 0)
(7.54329 -0.167604 0)
(7.562 -0.168029 0)
(7.57933 -0.16751 0)
(7.5953 -0.166269 0)
(7.60993 -0.164496 0)
(7.62327 -0.162349 0)
(7.63541 -0.159965 0)
(7.64641 -0.157451 0)
(7.65637 -0.154895 0)
(7.66537 -0.152368 0)
(7.6735 -0.149922 0)
(7.68084 -0.147598 0)
(7.68747 -0.145424 0)
(7.69348 -0.143421 0)
(7.69894 -0.141604 0)
(7.70392 -0.139981 0)
(7.70849 -0.138557 0)
(7.71272 -0.137335 0)
(7.71667 -0.136316 0)
(7.72041 -0.135498 0)
(7.72397 -0.134886 0)
(7.72744 -0.134455 0)
(7.33381 -0.0184746 0)
(7.34169 -0.0546477 0)
(7.35746 -0.0874957 0)
(7.37813 -0.115888 0)
(7.4015 -0.139573 0)
(7.42651 -0.158562 0)
(7.4522 -0.17315 0)
(7.47777 -0.183857 0)
(7.5027 -0.191256 0)
(7.5266 -0.1959 0)
(7.54923 -0.198308 0)
(7.57041 -0.198942 0)
(7.59007 -0.198202 0)
(7.60817 -0.196428 0)
(7.62475 -0.193902 0)
(7.63985 -0.190855 0)
(7.65354 -0.187478 0)
(7.6659 -0.183921 0)
(7.67704 -0.180304 0)
(7.68705 -0.176719 0)
(7.69603 -0.173237 0)
(7.70407 -0.169913 0)
(7.71128 -0.166785 0)
(7.71774 -0.163881 0)
(7.72354 -0.16122 0)
(7.72876 -0.158814 0)
(7.73348 -0.156672 0)
(7.73776 -0.154796 0)
(7.74169 -0.153189 0)
(7.74531 -0.151851 0)
(7.74869 -0.150777 0)
(7.75187 -0.149968 0)
(7.75492 -0.149398 0)
(7.33369 -0.0218852 0)
(7.34202 -0.0629484 0)
(7.35973 -0.0978415 0)
(7.38339 -0.126505 0)
(7.41049 -0.149829 0)
(7.43968 -0.168304 0)
(7.46957 -0.182387 0)
(7.49907 -0.192622 0)
(7.52749 -0.19954 0)
(7.55439 -0.20364 0)
(7.57951 -0.205402 0)
(7.60269 -0.205275 0)
(7.62391 -0.203664 0)
(7.64319 -0.200925 0)
(7.66061 -0.197366 0)
(7.67627 -0.19325 0)
(7.69029 -0.188791 0)
(7.7028 -0.184167 0)
(7.71393 -0.179518 0)
(7.72381 -0.174953 0)
(7.73257 -0.170555 0)
(7.74033 -0.166388 0)
(7.74719 -0.162496 0)
(7.75326 -0.158911 0)
(7.75864 -0.155653 0)
(7.76342 -0.152736 0)
(7.76767 -0.150167 0)
(7.77147 -0.147949 0)
(7.77491 -0.146084 0)
(7.77803 -0.144571 0)
(7.78092 -0.143404 0)
(7.78361 -0.142583 0)
(7.78621 -0.142074 0)
(7.33481 -0.0282173 0)
(7.34943 -0.0835469 0)
(7.37492 -0.131584 0)
(7.405 -0.170446 0)
(7.43691 -0.200454 0)
(7.46988 -0.222385 0)
(7.50282 -0.237475 0)
(7.53478 -0.247048 0)
(7.56521 -0.252239 0)
(7.59373 -0.254011 0)
(7.62012 -0.253172 0)
(7.64426 -0.250381 0)
(7.66615 -0.246168 0)
(7.68586 -0.240961 0)
(7.70351 -0.235101 0)
(7.71922 -0.228857 0)
(7.73316 -0.222444 0)
(7.74549 -0.216027 0)
(7.75637 -0.209735 0)
(7.76595 -0.203665 0)
(7.77437 -0.197889 0)
(7.78178 -0.192458 0)
(7.78829 -0.187407 0)
(7.79401 -0.182759 0)
(7.79906 -0.178529 0)
(7.80351 -0.174725 0)
(7.80746 -0.171349 0)
(7.81098 -0.168403 0)
(7.81414 -0.165888 0)
(7.817 -0.163801 0)
(7.81963 -0.16214 0)
(7.82208 -0.160906 0)
(7.82442 -0.160055 0)
(7.33379 -0.0319732 0)
(7.34757 -0.0869781 0)
(7.37751 -0.130294 0)
(7.4152 -0.166013 0)
(7.45577 -0.195376 0)
(7.49695 -0.218041 0)
(7.53687 -0.234437 0)
(7.57455 -0.245326 0)
(7.60969 -0.251454 0)
(7.64224 -0.253623 0)
(7.67225 -0.252642 0)
(7.69983 -0.249255 0)
(7.72516 -0.244109 0)
(7.74839 -0.237751 0)
(7.76966 -0.230626 0)
(7.78912 -0.223092 0)
(7.80691 -0.215424 0)
(7.82315 -0.207831 0)
(7.83796 -0.200469 0)
(7.85148 -0.193451 0)
(7.86382 -0.186854 0)
(7.87508 -0.180728 0)
(7.88537 -0.175105 0)
(7.89479 -0.17 0)
(7.90344 -0.16542 0)
(7.9114 -0.161363 0)
(7.91875 -0.157826 0)
(7.92556 -0.154803 0)
(7.93192 -0.152294 0)
(7.93788 -0.150298 0)
(7.94353 -0.148825 0)
(7.94896 -0.147883 0)
(7.95426 -0.147445 0)
(7.33891 -0.0544594 0)
(7.37179 -0.151773 0)
(7.41426 -0.221054 0)
(7.4574 -0.267961 0)
(7.50335 -0.298663 0)
(7.55299 -0.317123 0)
(7.60478 -0.327038 0)
(7.65759 -0.331096 0)
(7.71051 -0.330997 0)
(7.76251 -0.327905 0)
(7.81268 -0.322643 0)
(7.86037 -0.315797 0)
(7.90513 -0.307816 0)
(7.94666 -0.299054 0)
(7.98484 -0.289801 0)
(8.01968 -0.280301 0)
(8.05126 -0.27076 0)
(8.07975 -0.261346 0)
(8.10535 -0.252199 0)
(8.12828 -0.243427 0)
(8.14879 -0.235114 0)
(8.16711 -0.227319 0)
(8.18345 -0.220084 0)
(8.19805 -0.213434 0)
(8.21108 -0.207382 0)
(8.22273 -0.201933 0)
(8.23315 -0.197088 0)
(8.24247 -0.192847 0)
(8.25083 -0.189221 0)
(8.2583 -0.186218 0)
(8.26502 -0.183895 0)
(8.27106 -0.182261 0)
(8.27661 -0.181481 0)
(7.33754 -0.0404479 0)
(7.38834 -0.10586 0)
(7.47726 -0.163635 0)
(7.57839 -0.219331 0)
(7.68563 -0.266652 0)
(7.7938 -0.303231 0)
(7.89691 -0.329706 0)
(7.99148 -0.346778 0)
(8.07558 -0.355544 0)
(8.14817 -0.357496 0)
(8.20911 -0.354124 0)
(8.25884 -0.346771 0)
(8.29819 -0.336601 0)
(8.3282 -0.324574 0)
(8.34999 -0.311457 0)
(8.36468 -0.297849 0)
(8.37334 -0.284206 0)
(8.37693 -0.270861 0)
(8.37632 -0.258056 0)
(8.37226 -0.245951 0)
(8.36538 -0.234652 0)
(8.35624 -0.224215 0)
(8.34527 -0.214663 0)
(8.33286 -0.205994 0)
(8.31931 -0.198187 0)
(8.30484 -0.191207 0)
(8.28966 -0.185015 0)
(8.27387 -0.179568 0)
(8.2576 -0.174837 0)
(8.24083 -0.170803 0)
(8.22369 -0.16756 0)
(8.20586 -0.165072 0)
(8.18801 -0.16427 0)
(7.39945 -0.196864 0)
(7.59543 -0.376303 0)
(7.76776 -0.459272 0)
(7.89433 -0.513097 0)
(7.97716 -0.541615 0)
(8.01444 -0.550675 0)
(8.01046 -0.546921 0)
(7.97367 -0.533736 0)
(7.91181 -0.513658 0)
(7.83153 -0.488983 0)
(7.73865 -0.461536 0)
(7.63794 -0.432734 0)
(7.53311 -0.403674 0)
(7.427 -0.375176 0)
(7.32169 -0.347815 0)
(7.21864 -0.321976 0)
(7.11886 -0.297887 0)
(7.02296 -0.27566 0)
(6.9313 -0.255322 0)
(6.84401 -0.23684 0)
(6.76109 -0.220139 0)
(6.68243 -0.20512 0)
(6.60786 -0.191666 0)
(6.53715 -0.179652 0)
(6.47005 -0.168948 0)
(6.40631 -0.159426 0)
(6.34566 -0.150947 0)
(6.28781 -0.143382 0)
(6.23247 -0.136573 0)
(6.17922 -0.130382 0)
(6.12773 -0.124708 0)
(6.07692 -0.118788 0)
(6.02722 -0.115884 0)
(7.1601 -0.185936 0)
(6.9108 -0.345296 0)
(6.49946 -0.392635 0)
(6.03559 -0.394079 0)
(5.59537 -0.365908 0)
(5.17909 -0.321967 0)
(4.79087 -0.273193 0)
(4.43751 -0.225225 0)
(4.11955 -0.18106 0)
(3.8353 -0.142182 0)
(3.58272 -0.108987 0)
(3.35921 -0.0812779 0)
(3.16187 -0.0585624 0)
(2.98787 -0.0402093 0)
(2.83452 -0.0255575 0)
(2.69928 -0.0139835 0)
(2.57988 -0.00493207 0)
(2.47426 0.00207388 0)
(2.38062 0.00743368 0)
(2.29734 0.0114762 0)
(2.22304 0.0144693 0)
(2.15648 0.0166299 0)
(2.09661 0.0181335 0)
(2.04251 0.0191233 0)
(1.9934 0.0197213 0)
(1.94861 0.0200329 0)
(1.90755 0.0201748 0)
(1.86983 0.0202658 0)
(1.83494 0.0205217 0)
(1.80304 0.0212458 0)
(1.77324 0.0227441 0)
(1.74747 0.0275683 0)
(1.72391 0.0228307 0)
(1.64484 0.0579505 0)
(2.14148 0.16869 0)
(2.71138 0.0527072 0)
(3.1576 -0.305119 0)
(3.40495 -0.782535 0)