/*--------------------------------*- C++ -*----------------------------------*\
  =========                 |
  \\      /  F ield         | OpenFOAM: The Open Source CFD Toolbox
   \\    /   O peration     | Website:  https://openfoam.org
    \\  /    A nd           | Version:  10
     \\/     M anipulation  |
\*---------------------------------------------------------------------------*/
FoamFile
{
    format      ascii;
    class       volScalarField;
    location    "400";
    object      epsilon;
}
// * * * * * * * * * * * * * * * * * * * * * * * * * * * * * * * * * * * * * //

dimensions      [0 2 -3 0 0 0 0];

internalField   nonuniform List<scalar> 
6820
(
23.348
22.8004
22.2986
21.7956
21.2906
20.7982
20.3323
19.9019
19.5116
19.1626
18.854
18.5838
18.3491
18.1471
17.9748
17.8293
17.7078
17.6079
17.5274
17.4641
17.4161
17.3819
17.36
17.3489
17.3477
17.3555
17.3698
17.3957
17.425
17.4524
17.2682
19.908
7.01405
5.24751
7.40638
8.54786
9.16348
9.5497
9.84105
10.0955
10.3387
10.5813
10.8273
11.0779
11.333
11.5921
11.8544
12.1194
12.3863
12.6546
12.9237
13.1933
13.4629
13.7323
14.0016
14.2707
14.54
14.8104
15.0831
15.3598
15.6477
15.9471
16.2748
16.5846
17.8044
16.3416
3.71892
4.27985
4.80504
5.21575
5.52683
5.76848
5.96466
6.13176
6.28061
6.41829
6.54948
6.67726
6.80363
6.92989
7.05683
7.18493
7.31442
7.44542
7.57793
7.71191
7.84729
7.98403
8.12209
8.26153
8.40248
8.5453
8.69044
8.83939
8.99333
9.15719
9.3187
9.58919
9.81557
3.53759
3.62335
3.7716
3.93762
4.09556
4.23615
4.3584
4.4645
4.55748
4.64024
4.71524
4.78448
4.84957
4.91172
4.97191
5.03083
5.08906
5.14698
5.20491
5.26307
5.32162
5.3807
5.44042
5.50091
5.56228
5.62474
5.68854
5.75415
5.82224
5.89438
5.96846
6.05547
6.17683
3.52015
3.50151
3.51115
3.54398
3.59069
3.64319
3.69619
3.74687
3.79399
3.83727
3.87689
3.91327
3.94688
3.9782
4.00769
4.03574
4.06269
4.08882
4.11439
4.1396
4.16461
4.18957
4.21461
4.23985
4.26541
4.29142
4.31806
4.34555
4.3742
4.40457
4.43662
4.47137
4.51515
3.51931
3.48209
3.45346
3.43537
3.42736
3.42745
3.43326
3.44266
3.45401
3.46621
3.47854
3.49058
3.50212
3.51308
3.52346
3.53331
3.54268
3.55168
3.56037
3.56885
3.5772
3.58549
3.59379
3.60218
3.61073
3.61952
3.62865
3.63824
3.64843
3.65947
3.6715
3.68469
3.70027
3.51943
3.47964
3.44271
3.40975
3.38151
3.35815
3.33934
3.32445
3.31275
3.30354
3.29623
3.29032
3.28545
3.28135
3.2778
3.27468
3.27188
3.26935
3.26705
3.26496
3.26307
3.26139
3.25991
3.25866
3.25767
3.25695
3.25656
3.25654
3.25697
3.25793
3.25954
3.26187
3.26514
3.51947
3.47942
3.44105
3.40466
3.37057
3.33904
3.31021
3.28405
3.26042
3.23912
3.21988
3.20245
3.18657
3.17203
3.15863
3.14622
3.13467
3.12386
3.1137
3.10414
3.09511
3.08657
3.07848
3.07083
3.0636
3.05677
3.05036
3.04438
3.03884
3.03378
3.02925
3.02528
3.02191
3.51948
3.47941
3.44084
3.40381
3.36835
3.33453
3.30243
3.27209
3.24351
3.21667
3.19148
3.16788
3.14574
3.12496
3.10542
3.08702
3.06966
3.05324
3.03769
3.02293
3.00891
2.99556
2.98283
2.9707
2.95912
2.94808
2.93755
2.92752
2.91799
2.90896
2.90044
2.89244
2.88496
3.51948
3.4794
3.44081
3.40368
3.36795
3.33361
3.30063
3.26902
3.23876
3.20983
3.18221
3.15587
3.13077
3.10684
3.08405
3.06232
3.0416
3.02184
3.00296
2.98493
2.96769
2.95119
2.93539
2.92025
2.90574
2.89183
2.87849
2.8657
2.85346
2.84174
2.83054
2.81987
2.80969
3.51948
3.4794
3.44081
3.40365
3.36788
3.33343
3.30025
3.26832
3.23757
3.20799
3.17954
3.15219
3.12591
3.10066
3.0764
3.05311
3.03073
3.00924
2.98859
2.96875
2.94968
2.93135
2.91371
2.89674
2.88042
2.86471
2.84959
2.83503
2.82103
2.80757
2.79464
2.78221
2.77029
3.51948
3.4794
3.4408
3.40364
3.36785
3.33338
3.30017
3.26816
3.2373
3.20754
3.17885
3.15118
3.1245
3.09877
3.07396
3.05003
3.02696
3.00471
2.98324
2.96254
2.94257
2.9233
2.9047
2.88676
2.86943
2.85271
2.83658
2.821
2.80597
2.79147
2.77748
2.764
2.751
3.51948
3.4794
3.44079
3.40363
3.36784
3.33336
3.30014
3.26811
3.23722
3.20742
3.17867
3.15091
3.12411
3.09823
3.07324
3.0491
3.02577
3.00323
2.98144
2.96038
2.94003
2.92034
2.90131
2.88291
2.86511
2.84789
2.83124
2.81513
2.79956
2.7845
2.76995
2.75588
2.74228
3.51948
3.47939
3.44079
3.40362
3.36783
3.33335
3.30012
3.26808
3.23719
3.20738
3.1786
3.15082
3.124
3.09808
3.07303
3.04882
3.02541
3.00277
2.98088
2.95969
2.93919
2.91935
2.90015
2.88155
2.86355
2.84612
2.82924
2.8129
2.79708
2.78175
2.76692
2.75256
2.73866
3.51947
3.47939
3.44079
3.40362
3.36782
3.33334
3.3001
3.26806
3.23716
3.20735
3.17857
3.15078
3.12394
3.09801
3.07295
3.04872
3.02529
3.00263
2.9807
2.95947
2.93893
2.91903
2.89977
2.88111
2.86303
2.84552
2.82856
2.81212
2.79619
2.78076
2.7658
2.75132
2.73728
3.51947
3.47939
3.44078
3.40361
3.36781
3.33333
3.30009
3.26805
3.23714
3.20732
3.17854
3.15075
3.12391
3.09797
3.07291
3.04867
3.02524
3.00256
2.98062
2.95939
2.93883
2.91892
2.89964
2.88096
2.86286
2.84533
2.82833
2.81186
2.79589
2.78042
2.76541
2.75087
2.73677
3.51947
3.47939
3.44078
3.40361
3.36781
3.33332
3.30008
3.26803
3.23712
3.2073
3.17852
3.15072
3.12388
3.09794
3.07287
3.04864
3.0252
3.00252
2.98058
2.95934
2.93878
2.91887
2.89958
2.8809
2.8628
2.84525
2.82825
2.81177
2.79579
2.7803
2.76527
2.75071
2.73658
3.51947
3.47939
3.44078
3.4036
3.3678
3.33331
3.30007
3.26802
3.23711
3.20728
3.1785
3.1507
3.12385
3.09792
3.07284
3.04861
3.02517
3.00249
2.98055
2.95931
2.93875
2.91883
2.89955
2.88086
2.86276
2.84522
2.82821
2.81172
2.79574
2.78024
2.76521
2.75063
2.73649
3.51947
3.47939
3.44078
3.4036
3.3678
3.3333
3.30006
3.26801
3.2371
3.20727
3.17848
3.15068
3.12383
3.09789
3.07282
3.04858
3.02514
3.00246
2.98052
2.95928
2.93872
2.91881
2.89952
2.88084
2.86273
2.84519
2.82818
2.81169
2.79571
2.7802
2.76517
2.75059
2.73644
3.51947
3.47939
3.44077
3.4036
3.36779
3.3333
3.30005
3.268
3.23708
3.20725
3.17846
3.15066
3.12381
3.09787
3.0728
3.04856
3.02511
3.00244
2.98049
2.95925
2.93869
2.91878
2.8995
2.88081
2.86271
2.84516
2.82816
2.81167
2.79568
2.78017
2.76513
2.75054
2.73639
3.51947
3.47939
3.44077
3.40359
3.36779
3.33329
3.30005
3.26799
3.23707
3.20724
3.17845
3.15065
3.1238
3.09785
3.07278
3.04854
3.02509
3.00241
2.98047
2.95923
2.93867
2.91876
2.89947
2.88079
2.86269
2.84514
2.82813
2.81164
2.79565
2.78014
2.7651
2.7505
2.73634
3.51947
3.47938
3.44077
3.40359
3.36779
3.33329
3.30004
3.26798
3.23707
3.20723
3.17844
3.15064
3.12378
3.09784
3.07276
3.04852
3.02507
3.0024
2.98045
2.95921
2.93865
2.91874
2.89945
2.88077
2.86266
2.84512
2.82811
2.81162
2.79562
2.78011
2.76506
2.75046
2.7363
3.51947
3.47938
3.44077
3.40359
3.36778
3.33329
3.30004
3.26798
3.23706
3.20722
3.17843
3.15062
3.12377
3.09782
3.07275
3.0485
3.02506
3.00238
2.98043
2.95919
2.93863
2.91872
2.89943
2.88075
2.86264
2.8451
2.82808
2.81159
2.7956
2.78008
2.76503
2.75043
2.73625
3.51947
3.47938
3.44077
3.40359
3.36778
3.33328
3.30003
3.26797
3.23705
3.20722
3.17842
3.15062
3.12376
3.09781
3.07274
3.04849
3.02504
3.00236
2.98042
2.95918
2.93862
2.9187
2.89942
2.88073
2.86262
2.84508
2.82806
2.81157
2.79557
2.78005
2.765
2.75039
2.73621
3.51947
3.47938
3.44077
3.40359
3.36778
3.33328
3.30003
3.26797
3.23705
3.20721
3.17841
3.15061
3.12375
3.0978
3.07273
3.04848
3.02503
3.00235
2.98041
2.95917
2.9386
2.91869
2.8994
2.88072
2.86261
2.84506
2.82804
2.81154
2.79554
2.78002
2.76496
2.75035
2.73617
3.51947
3.47938
3.44077
3.40359
3.36778
3.33328
3.30003
3.26797
3.23704
3.20721
3.17841
3.1506
3.12374
3.0978
3.07272
3.04847
3.02502
3.00234
2.9804
2.95915
2.93859
2.91868
2.89939
2.8807
2.86259
2.84504
2.82802
2.81152
2.79552
2.78
2.76493
2.75032
2.73613
3.51947
3.47938
3.44077
3.40359
3.36778
3.33328
3.30002
3.26796
3.23704
3.2072
3.1784
3.1506
3.12374
3.09779
3.07271
3.04847
3.02502
3.00234
2.98039
2.95915
2.93858
2.91867
2.89938
2.88069
2.86258
2.84503
2.82801
2.8115
2.7955
2.77997
2.7649
2.75028
2.73609
3.51947
3.47938
3.44077
3.40359
3.36778
3.33328
3.30002
3.26796
3.23704
3.2072
3.1784
3.15059
3.12374
3.09779
3.07271
3.04846
3.02501
3.00233
2.98038
2.95914
2.93858
2.91866
2.89937
2.88068
2.86257
2.84501
2.82799
2.81149
2.79548
2.77995
2.76488
2.75025
2.73606
3.51947
3.47938
3.44077
3.40359
3.36778
3.33328
3.30002
3.26796
3.23704
3.2072
3.1784
3.15059
3.12373
3.09779
3.07271
3.04846
3.02501
3.00233
2.98038
2.95914
2.93857
2.91865
2.89936
2.88067
2.86256
2.845
2.82798
2.81147
2.79546
2.77993
2.76486
2.75023
2.73603
3.51947
3.47938
3.44077
3.40359
3.36778
3.33327
3.30002
3.26796
3.23704
3.2072
3.1784
3.15059
3.12374
3.09779
3.07271
3.04846
3.02501
3.00233
2.98038
2.95914
2.93857
2.91865
2.89936
2.88067
2.86256
2.845
2.82798
2.81147
2.79545
2.77992
2.76484
2.75021
2.73601
3.51947
3.47938
3.44077
3.40359
3.36778
3.33327
3.30002
3.26796
3.23704
3.2072
3.1784
3.15059
3.12374
3.09779
3.07271
3.04846
3.02501
3.00233
2.98038
2.95914
2.93857
2.91866
2.89937
2.88068
2.86256
2.845
2.82798
2.81147
2.79546
2.77992
2.76485
2.75022
2.73601
3.51947
3.47938
3.44077
3.40359
3.36778
3.33327
3.30002
3.26796
3.23704
3.2072
3.17841
3.1506
3.12375
3.0978
3.07272
3.04848
3.02503
3.00236
2.98041
2.95917
2.93861
2.9187
2.89942
2.88073
2.86263
2.84508
2.82806
2.81156
2.79556
2.78003
2.76497
2.75035
2.73616
3.51947
3.47938
3.44077
3.40359
3.36778
3.33328
3.30002
3.26796
3.23704
3.20721
3.17842
3.15062
3.12377
3.09783
3.07276
3.04853
3.02511
3.00245
2.98053
2.95931
2.93878
2.9189
2.89966
2.88101
2.86295
2.84544
2.82848
2.81203
2.79609
2.78062
2.76562
2.75107
2.73694
3.51947
3.47938
3.44077
3.40359
3.36778
3.33329
3.30005
3.26801
3.23711
3.20731
3.17856
3.15082
3.12403
3.09817
3.07319
3.04906
3.02574
3.00321
2.98142
2.96036
2.93999
2.92029
2.90123
2.88279
2.86494
2.84765
2.83092
2.81472
2.79902
2.78381
2.76908
2.7548
2.74095
3.51947
3.47938
3.44078
3.40361
3.36785
3.33342
3.30029
3.26838
3.23767
3.20811
3.17964
3.15223
3.12585
3.10044
3.07597
3.0524
3.0297
3.00783
2.98675
2.96645
2.94687
2.928
2.90979
2.89224
2.8753
2.85895
2.84316
2.82792
2.8132
2.79897
2.78522
2.77192
2.75906
3.51947
3.47942
3.44096
3.40413
3.36893
3.33533
3.30326
3.27268
3.24353
3.21576
3.1893
3.16411
3.14012
3.11728
3.09553
3.07481
3.05507
3.03626
3.01831
3.00119
2.98484
2.96922
2.95429
2.94
2.92632
2.91321
2.90064
2.88858
2.87699
2.86585
2.85514
2.84483
2.83489
3.5195
3.48076
3.44539
3.41321
3.38397
3.35747
3.33354
3.312
3.29267
3.27536
3.25989
3.24608
3.23374
3.22271
3.21286
3.20403
3.19612
3.18901
3.18259
3.1768
3.17154
3.16675
3.16237
3.15835
3.15463
3.15119
3.14797
3.14496
3.14211
3.13941
3.13683
3.13436
3.13199
3.52507
3.51485
3.52104
3.53654
3.55844
3.58522
3.61583
3.64938
3.68503
3.72211
3.76006
3.79844
3.83688
3.87511
3.9129
3.95007
3.98649
4.02206
4.05672
4.09041
4.12309
4.15474
4.18536
4.21495
4.24351
4.27105
4.29759
4.32316
4.34776
4.37144
4.3942
4.41609
4.43713
3.84201
4.38782
4.8775
5.34265
5.79478
6.23532
6.66223
7.07414
7.47102
7.85346
8.22217
8.57791
8.92143
9.25341
9.57448
9.88519
10.186
10.4774
10.7597
11.0332
11.2983
11.5554
11.8046
12.0462
12.2805
12.5077
12.7282
12.9421
13.1496
13.351
13.5466
13.7365
13.921
30.2673
32.7691
35.3054
37.8488
40.3863
42.9101
45.4132
47.8886
50.3297
52.7307
55.0862
57.3916
59.6431
61.8372
63.9714
66.0436
68.0521
69.996
71.8745
73.6874
75.4349
77.1174
78.7355
80.2903
81.7827
83.2142
84.5861
85.8999
87.1573
88.3599
89.5096
90.6077
91.6574
133.772
426.302
643.327
742.487
798.177
855.847
891.31
883.562
844.662
794.538
744.748
698.938
657.037
618.018
581.113
546.122
513.319
483.195
456.176
432.407
411.654
393.376
376.885
361.522
346.763
332.238
317.72
303.103
288.415
273.829
259.655
246.3
234.189
223.674
214.958
208.043
202.737
198.695
195.502
192.751
190.111
187.357
184.363
181.073
177.457
173.473
169.042
164.046
158.35
151.831
144.41
136.076
126.901
117.035
106.704
96.1864
85.7934
75.8378
66.6058
58.3321
51.1837
45.2587
40.6032
37.2558
35.3221
35.0416
36.7264
40.4977
46.0147
52.5074
59.0855
65.0312
69.9117
73.5494
75.941
77.1809
77.4082
76.7743
75.4252
73.4942
71.0988
68.3407
65.3074
62.0736
58.7029
55.2495
51.7586
48.2673
44.8049
41.3941
38.0516
34.7881
31.6045
28.4952
25.4492
22.395
19.1555
15.9047
13.7059
14.1429
18.1007
54.1
117.074
168.462
199.513
228.447
275.054
339.199
403.924
454.146
485.222
499.454
500.789
492.586
477.584
458.244
436.887
415.543
395.722
378.237
363.188
350.112
338.231
326.728
314.933
302.42
289.005
274.73
259.83
244.701
229.855
215.845
203.192
192.296
183.38
176.45
171.303
167.573
164.803
162.537
160.387
158.079
155.453
152.441
149.024
145.186
140.884
136.039
130.548
124.314
117.279
109.449
100.909
91.8263
82.4346
73.017
63.8753
55.2985
47.5322
40.7559
35.0721
30.5121
27.0579
24.6866
23.4441
23.5328
25.2995
28.9935
34.4375
40.9749
47.7508
54.0283
59.3334
63.4464
66.3291
68.0506
68.7334
68.5193
67.5508
65.9612
63.8713
61.3877
58.6036
55.6
52.4463
49.2019
45.9165
42.6313
39.3786
36.1837
33.0656
30.0378
27.1055
24.2651
21.503
18.7625
15.9362
13.257
11.6728
12.6703
9.1249
9.93617
16.0136
25.2409
33.2372
38.9821
45.4867
58.1786
81.5013
115.533
155.842
196.14
230.984
257.142
273.681
281.453
282.691
280.071
275.943
271.886
268.553
265.791
262.942
259.192
253.852
246.515
237.101
225.823
213.136
199.656
186.079
173.096
161.312
151.181
142.96
136.691
132.206
129.169
127.139
125.652
124.295
122.757
120.85
118.488
115.655
112.359
108.595
104.328
99.4975
94.0418
87.9273
81.1767
73.8852
66.2209
58.4125
50.7242
43.4238
36.7487
30.8779
25.9151
21.8886
18.7658
16.4791
14.9619
14.2051
14.3445
15.7183
18.7193
23.4339
29.4352
35.9668
42.2787
47.832
52.3344
55.6859
57.9101
59.0982
59.3727
58.8653
57.7051
56.0124
53.8964
51.4542
48.7714
45.922
42.9698
39.9686
36.9626
33.9876
31.0711
28.2343
25.4935
22.8585
20.3285
17.8889
15.5
13.1119
10.9677
9.85043
11.191
6.19353
6.02286
6.28619
7.35686
8.82304
10.0035
10.7262
11.6137
13.8057
18.7429
27.6599
40.6908
56.5642
73.1593
88.4982
101.585
112.292
121.153
129.079
136.866
144.833
152.71
159.783
165.161
168.064
168.014
164.917
159.048
150.975
141.446
131.272
121.224
111.949
103.927
97.4426
92.5872
89.2696
87.2426
86.1491
85.5843
85.1627
84.5733
83.6091
82.168
80.2284
77.8116
74.9455
71.6398
67.8818
63.6503
58.941
53.7913
48.2962
42.609
36.927
31.4651
26.4239
21.9601
18.1668
15.0702
12.6399
10.8098
9.50131
8.645
8.20796
8.2495
9.00881
10.907
14.2922
19.0926
24.7825
30.6624
36.1346
40.8125
44.5081
47.1755
48.8565
49.6402
49.6375
48.9655
47.7386
46.0642
44.0402
41.7543
39.2834
36.6942
34.0435
31.3783
28.7369
26.1492
23.6384
21.223
18.9164
16.7225
14.6288
12.6066
10.6361
8.94862
8.16831
9.68876
4.56289
4.57013
4.57857
4.70127
4.96521
5.25954
5.43799
5.47185
5.51025
5.83605
6.77946
8.6254
11.4982
15.2667
19.5816
24.0336
28.381
32.6971
37.2717
42.5505
48.9331
56.5054
64.8547
73.1091
80.203
85.215
87.6125
87.3304
84.7065
80.3415
74.9421
69.1902
63.6576
58.7665
54.7842
51.8358
49.9184
48.917
48.623
48.7668
49.0613
49.2487
49.1371
48.6155
47.6485
46.253
44.4697
42.3386
39.8866
37.1305
34.0918
30.8144
27.3767
23.8919
20.4949
17.3207
14.4803
12.0438
10.0349
8.43688
7.20663
6.2901
5.63512
5.19985
4.95999
4.92866
5.21369
6.09469
7.9764
11.1155
15.3656
20.2364
25.152
29.6499
33.4412
36.3901
38.4682
39.7146
40.2059
40.0367
39.3078
38.1186
36.5633
34.7279
32.6898
30.5165
28.2663
25.9881
23.7221
21.5001
19.3471
17.2829
15.3235
13.4771
11.7375
10.0823
8.49614
7.17671
6.61493
8.18049
3.72098
3.73898
3.74907
3.76929
3.82058
3.89785
3.9653
3.98641
3.96125
3.93819
3.9956
4.21479
4.65527
5.33521
6.22753
7.2646
8.34674
9.44022
10.6003
11.9517
13.6827
15.9962
19.0069
22.6205
26.4842
30.0686
32.8457
34.4636
34.8311
34.0968
32.5614
30.5761
28.4646
26.4823
24.8066
23.5437
22.7389
22.3827
22.4127
22.719
23.1588
23.5804
23.8506
23.8757
23.61
23.0504
22.2228
21.1651
19.915
18.5052
16.9661
15.3339
13.6558
11.991
10.4032
8.95006
7.6727
6.59096
5.70434
4.99754
4.44759
4.02998
3.72293
3.50975
3.38012
3.33434
3.40398
3.7054
4.4903
6.07754
8.63774
12.0324
15.8789
19.74
23.262
26.2194
28.5013
30.0807
30.9853
31.2752
31.0274
30.3256
29.2539
27.8924
26.3147
24.587
22.767
20.9037
19.0383
17.2037
15.4262
13.7263
12.1208
10.6212
9.22817
7.92613
6.69201
5.66691
5.22011
6.70866
3.27024
3.27625
3.28031
3.28398
3.29281
3.31021
3.33133
3.34472
3.34169
3.32555
3.31342
3.33005
3.39818
3.53104
3.73017
3.98433
4.26637
4.55699
4.85765
5.18736
5.58491
6.10509
6.80261
7.70329
8.77397
9.91172
10.9669
11.7925
12.2923
12.4447
12.2943
11.9266
11.4387
10.9195
10.4397
10.0508
9.78615
9.66258
9.67881
9.81358
10.026
10.261
10.4596
10.5706
10.5597
10.4128
10.1339
9.73895
9.24943
8.68749
8.07396
7.42897
6.7733
6.12868
5.51638
4.95449
4.45556
4.02558
3.66453
3.36802
3.12927
2.94082
2.79586
2.68908
2.61712
2.57922
2.58213
2.6601
2.91439
3.53441
4.73612
6.62673
9.11194
11.9331
14.7827
17.3988
19.6033
21.3011
22.4615
23.099
23.2567
22.9939
22.3774
21.4753
20.3536
19.0729
17.6878
16.2457
14.7867
13.3439
11.9436
10.6064
9.34843
8.18209
7.11327
6.13433
5.21696
4.43804
4.03403
5.33346
3.01873
3.01568
3.01244
3.00877
3.00571
3.00476
3.00609
3.0075
3.0056
2.99862
2.98863
2.98163
2.98532
3.0061
3.04732
3.10803
3.18197
3.26294
3.34847
3.44065
3.54723
3.68116
3.85723
4.08568
4.36488
4.677
4.9902
5.26729
5.47696
5.60209
5.64206
5.60961
5.52517
5.41133
5.28923
5.17677
5.08802
5.03298
5.01681
5.03869
5.09094
5.15949
5.2261
5.27197
5.2815
5.2449
5.15904
5.02659
4.85421
4.65054
4.4247
4.18544
3.94102
3.69913
3.46675
3.24978
3.05259
2.87777
2.72616
2.59718
2.48928
2.40044
2.32865
2.27224
2.23011
2.20186
2.18863
2.19837
2.26191
2.45577
2.90466
3.73861
5.02077
6.69873
8.6179
10.5805
12.4042
13.9546
15.1515
15.9628
16.3916
16.4659
16.2285
15.7296
15.0221
14.1574
13.1836
12.1434
11.0741
10.0067
8.96624
7.97229
7.03947
6.17884
5.39811
4.69674
4.0496
3.48497
3.09899
4.12141
2.87685
2.86807
2.85942
2.85071
2.84207
2.83392
2.82663
2.82003
2.81334
2.80563
2.79662
2.78721
2.77931
2.77514
2.77649
2.78396
2.79648
2.81257
2.83118
2.85238
2.87799
2.91159
2.95772
3.02002
3.09917
3.19149
3.2891
3.38176
3.45954
3.51532
3.546
3.55243
3.53848
3.50972
3.47231
3.43221
3.39472
3.36416
3.34355
3.33412
3.33496
3.34286
3.35275
3.35861
3.35464
3.33635
3.30116
3.24856
3.17988
3.09773
3.00544
2.9066
2.8047
2.70297
2.60425
2.51087
2.42459
2.34654
2.27718
2.21647
2.16394
2.1189
2.0806
2.04837
2.0217
2.00033
1.98434
1.97522
1.98062
2.025
2.15994
2.45969
2.99551
3.80106
4.8495
6.05665
7.30684
8.48435
9.49596
10.2805
10.8083
11.0761
11.0998
10.908
10.5363
10.0229
9.40586
8.72049
7.99836
7.2664
6.54664
5.8562
5.20755
4.60962
4.0694
3.59049
3.15628
2.77272
2.42193
3.12819
2.79841
2.78593
2.77362
2.76138
2.74921
2.73722
2.72556
2.71434
2.70346
2.69268
2.68173
2.67058
2.65949
2.64897
2.63959
2.63172
2.6253
2.62008
2.61586
2.61267
2.61109
2.61232
2.61799
2.62961
2.64785
2.67203
2.69995
2.72838
2.75377
2.77306
2.78425
2.78659
2.78052
2.76734
2.74888
2.72723
2.70446
2.68246
2.66275
2.6463
2.63334
2.62325
2.61465
2.60564
2.59412
2.57819
2.5565
2.52836
2.49382
2.45355
2.40872
2.3608
2.31133
2.26181
2.21359
2.16774
2.12502
2.08591
2.05056
2.01887
1.99056
1.96524
1.94249
1.92191
1.90315
1.88594
1.87015
1.85594
1.8449
1.84355
1.86916
1.95344
2.13742
2.45741
2.92918
3.53817
4.24052
4.97354
5.67064
6.27418
6.74309
7.05498
7.20458
7.20009
7.05916
6.805
6.46326
6.05951
5.61758
5.15837
4.69935
4.25426
3.83308
3.44269
3.08859
2.77571
2.49575
2.25155
1.96599
2.37993
2.75696
2.7421
2.72737
2.71275
2.69821
2.68379
2.66956
2.65558
2.64189
2.62846
2.61521
2.60204
2.58888
2.57578
2.56279
2.55001
2.53743
2.52507
2.51294
2.50113
2.48992
2.47979
2.47142
2.46548
2.46241
2.46219
2.46422
2.46739
2.47033
2.47165
2.47021
2.4653
2.45665
2.44443
2.42916
2.41159
2.39259
2.37307
2.35384
2.33553
2.3185
2.3028
2.28811
2.27384
2.25923
2.24351
2.22602
2.20631
2.18422
2.15989
2.13372
2.10628
2.07827
2.05041
2.02333
1.99755
1.9734
1.95107
1.93052
1.91163
1.89414
1.87776
1.86218
1.84709
1.8322
1.81724
1.80201
1.78642
1.77074
1.75651
1.74862
1.75814
1.80317
1.90522
2.08189
2.33963
2.66981
3.04948
3.44608
3.82409
4.1515
4.40433
4.56859
4.64012
4.62304
4.52747
4.36728
4.15792
3.91485
3.65229
3.38256
3.11563
2.85899
2.61787
2.39638
2.19917
2.02322
1.87469
1.66912
1.86354
2.73641
2.72007
2.70383
2.68768
2.67161
2.65563
2.63979
2.62411
2.60864
2.59339
2.57835
2.56348
2.54869
2.53393
2.51915
2.50431
2.48939
2.4744
2.45938
2.44443
2.42972
2.41551
2.40211
2.38983
2.37892
2.36945
2.36124
2.35388
2.34679
2.3393
2.33078
2.32073
2.30883
2.29499
2.2793
2.26205
2.24363
2.22454
2.20524
2.18619
2.16771
2.14999
2.13305
2.11674
2.10083
2.08498
2.06889
2.05232
2.03511
2.01727
1.99891
1.98026
1.96163
1.94333
1.92566
1.90883
1.89297
1.87809
1.86412
1.85089
1.83818
1.82574
1.81332
1.80064
1.78747
1.77355
1.75867
1.7427
1.72565
1.70789
1.6907
1.67742
1.67459
1.69195
1.74038
1.82818
1.95773
2.12391
2.31464
2.51329
2.70176
2.86357
2.98617
3.06203
3.0888
3.06859
3.00686
2.91112
2.78979
2.65121
2.50306
2.35186
2.20282
2.05974
1.92566
1.80425
1.69489
1.60565
1.47276
1.53406
2.72698
2.70979
2.69266
2.6756
2.6586
2.64168
2.62485
2.60814
2.59157
2.57517
2.55894
2.54286
2.52689
2.51098
2.49506
2.47908
2.463
2.44682
2.43058
2.41436
2.39828
2.38248
2.36716
2.35249
2.33858
2.32548
2.31311
2.30128
2.28969
2.27797
2.26576
2.25272
2.23861
2.2233
2.20677
2.18914
2.17061
2.15147
2.13205
2.11267
2.09361
2.07509
2.05722
2.04003
2.02346
2.00739
1.9917
1.97623
1.96091
1.9457
1.93061
1.91574
1.9012
1.88712
1.87361
1.86074
1.84851
1.83687
1.8257
1.81483
1.80406
1.79318
1.78195
1.77017
1.7576
1.74403
1.72926
1.71315
1.69568
1.67696
1.65738
1.63793
1.62068
1.60928
1.60876
1.62445
1.66025
1.71704
1.79198
1.8789
1.96944
2.05464
2.12636
2.17841
2.20705
2.21114
2.19173
2.15157
2.09442
2.02451
1.94603
1.86284
1.77823
1.6948
1.61465
1.5404
1.4722
1.41715
1.33747
1.33472
2.72299
2.70535
2.68775
2.67019
2.65268
2.63521
2.61782
2.60051
2.5833
2.56621
2.54925
2.5324
2.51566
2.49897
2.48231
2.46561
2.44886
2.43204
2.41518
2.39834
2.3816
2.36509
2.34892
2.3332
2.31799
2.30331
2.28912
2.27528
2.26161
2.24786
2.2338
2.21919
2.20384
2.18766
2.17059
2.15269
2.13408
2.11497
2.09557
2.07615
2.05694
2.03814
2.0199
2.0023
1.98538
1.96909
1.9534
1.93822
1.92352
1.90926
1.89542
1.88204
1.86914
1.85677
1.84495
1.83365
1.82284
1.81241
1.80223
1.79214
1.78196
1.77149
1.76052
1.74888
1.73636
1.72277
1.70794
1.69174
1.67415
1.65521
1.63512
1.61423
1.59324
1.5734
1.55663
1.54547
1.54247
1.54947
1.56684
1.59319
1.6255
1.65975
1.69158
1.71708
1.73324
1.73825
1.73153
1.71356
1.68561
1.64946
1.60714
1.56068
1.51195
1.46258
1.41395
1.36775
1.32428
1.28824
1.24165
1.21606
2.72142
2.70357
2.68573
2.66792
2.65014
2.6324
2.6147
2.59706
2.5795
2.56202
2.54463
2.52733
2.5101
2.49293
2.47579
2.45865
2.44148
2.42428
2.40706
2.38988
2.3728
2.3559
2.33926
2.32296
2.30706
2.29156
2.27641
2.26153
2.24678
2.23197
2.21694
2.20151
2.18553
2.16891
2.15162
2.13367
2.11515
2.0962
2.07699
2.05773
2.03861
2.01982
2.0015
1.98375
1.96663
1.95017
1.93435
1.91915
1.90453
1.89048
1.87699
1.86404
1.85164
1.83979
1.82846
1.81759
1.80712
1.79693
1.78688
1.77683
1.76658
1.75598
1.74484
1.73299
1.72026
1.70647
1.69149
1.6752
1.65758
1.63867
1.61858
1.59754
1.57585
1.55397
1.53264
1.51287
1.4959
1.48296
1.47492
1.47198
1.47352
1.47817
1.48408
1.4892
1.49169
1.49011
1.48355
1.47169
1.45471
1.43314
1.40781
1.37963
1.34958
1.31856
1.28741
1.25713
1.228
1.20239
1.17396
1.14418
2.72084
2.70288
2.68494
2.66701
2.6491
2.63121
2.61336
2.59555
2.57779
2.56009
2.54246
2.5249
2.50739
2.48993
2.4725
2.45508
2.43765
2.42022
2.4028
2.38542
2.36812
2.35098
2.33405
2.31739
2.30104
2.285
2.26925
2.25372
2.23829
2.22284
2.20723
2.19133
2.17501
2.1582
2.14085
2.12299
2.10465
2.08596
2.06703
2.04804
2.02915
2.0105
1.99225
1.9745
1.9573
1.94072
1.92476
1.90942
1.89469
1.88056
1.86701
1.85403
1.84161
1.82972
1.81833
1.80736
1.79673
1.78632
1.77601
1.76564
1.75505
1.74409
1.73258
1.72038
1.70733
1.69328
1.67811
1.66173
1.64411
1.6253
1.60538
1.58452
1.56292
1.54084
1.51858
1.49657
1.47537
1.45558
1.43779
1.42244
1.40965
1.39917
1.39042
1.3826
1.37479
1.36613
1.35595
1.34379
1.32946
1.313
1.29462
1.27467
1.25356
1.23176
1.2097
1.18794
1.1667
1.14677
1.12735
1.09929
2.72061
2.70261
2.68461
2.66662
2.64865
2.63069
2.61276
2.59485
2.57699
2.55917
2.5414
2.52368
2.506
2.48837
2.47076
2.45317
2.43559
2.41802
2.40047
2.38296
2.36553
2.34823
2.33109
2.31418
2.29751
2.28109
2.2649
2.24889
2.23298
2.21708
2.20107
2.18485
2.16831
2.1514
2.13408
2.11633
2.09821
2.07979
2.06118
2.04249
2.02386
2.00544
1.98733
1.96964
1.95244
1.93579
1.91971
1.90421
1.8893
1.87497
1.86122
1.84802
1.83536
1.82321
1.81152
1.80021
1.78921
1.7784
1.76765
1.75683
1.74579
1.73438
1.72244
1.70985
1.69645
1.68212
1.66676
1.65029
1.63269
1.61399
1.59429
1.5737
1.5524
1.53057
1.5084
1.48612
1.46399
1.44232
1.42142
1.40158
1.38304
1.36586
1.34997
1.33515
1.32106
1.30729
1.29348
1.2793
1.26454
1.24907
1.23289
1.21608
1.19876
1.18114
1.16342
1.14586
1.12864
1.11165
1.09635
1.07066
2.72051
2.70248
2.68445
2.66643
2.64842
2.63042
2.61244
2.59448
2.57655
2.55866
2.5408
2.52298
2.5052
2.48745
2.46973
2.45202
2.43434
2.41668
2.39904
2.38145
2.36393
2.34651
2.32923
2.31212
2.29521
2.2785
2.26198
2.24561
2.22933
2.21308
2.19676
2.18029
2.1636
2.14662
2.12932
2.1117
2.09378
2.07561
2.05728
2.03888
2.02052
2.00232
1.98438
1.96679
1.94963
1.93294
1.91677
1.90113
1.88603
1.87148
1.85747
1.84399
1.83101
1.81851
1.80644
1.79472
1.78327
1.77199
1.76076
1.74945
1.73793
1.72605
1.71369
1.7007
1.68697
1.67238
1.65684
1.64029
1.62271
1.60414
1.58464
1.56435
1.54339
1.52191
1.50008
1.47806
1.456
1.43408
1.41249
1.3914
1.37096
1.35129
1.33246
1.31444
1.29715
1.28046
1.26421
1.24822
1.23236
1.21651
1.20062
1.18465
1.16864
1.15264
1.13673
1.12101
1.10559
1.08999
1.07641
1.05228
2.72044
2.70239
2.68435
2.6663
2.64826
2.63023
2.61222
2.59422
2.57625
2.5583
2.54038
2.5225
2.50464
2.48681
2.46901
2.45123
2.43347
2.41573
2.39803
2.38037
2.36278
2.34527
2.32788
2.31062
2.29352
2.27658
2.2598
2.24314
2.22657
2.21003
2.19346
2.1768
2.15997
2.14294
2.12566
2.10814
2.09038
2.07242
2.05433
2.03619
2.01808
2.00009
1.98232
1.96484
1.94772
1.93102
1.91477
1.89901
1.88374
1.86897
1.85471
1.84093
1.82763
1.81476
1.80229
1.79014
1.77824
1.76649
1.75478
1.74299
1.731
1.71868
1.70591
1.69255
1.67851
1.66368
1.64798
1.63137
1.61382
1.59537
1.57608
1.55606
1.53543
1.51432
1.49287
1.47122
1.44949
1.42781
1.40631
1.38508
1.36425
1.3439
1.3241
1.30489
1.28627
1.26822
1.25068
1.23359
1.21686
1.20045
1.18428
1.16834
1.15259
1.13706
1.12175
1.10667
1.09191
1.07683
1.06388
1.0405
2.72038
2.70232
2.68426
2.6662
2.64814
2.63008
2.61204
2.59401
2.576
2.55801
2.54005
2.52211
2.50419
2.4863
2.46843
2.45059
2.43277
2.41497
2.39721
2.3795
2.36184
2.34425
2.32676
2.30938
2.29213
2.27501
2.25801
2.24113
2.22432
2.20755
2.19078
2.17394
2.157
2.13991
2.12264
2.10519
2.08756
2.06977
2.05189
2.03395
2.01605
1.99825
1.98063
1.96325
1.94619
1.92949
1.91319
1.89732
1.8819
1.86693
1.85243
1.83837
1.82475
1.81153
1.79867
1.78611
1.77378
1.76158
1.74941
1.73718
1.72475
1.71202
1.69886
1.68518
1.67086
1.65582
1.63998
1.62331
1.60579
1.58746
1.56836
1.5486
1.52828
1.50752
1.48645
1.46518
1.44382
1.42249
1.40128
1.38028
1.35956
1.3392
1.31925
1.29974
1.28072
1.26218
1.24411
1.22649
1.2093
1.1925
1.17605
1.15993
1.14413
1.12862
1.11341
1.09845
1.08384
1.06886
1.05606
1.03293
2.72033
2.70226
2.68418
2.6661
2.64802
2.62995
2.61188
2.59383
2.57579
2.55776
2.53975
2.52176
2.5038
2.48585
2.46793
2.45003
2.43216
2.41431
2.3965
2.37872
2.361
2.34335
2.32577
2.30829
2.2909
2.27363
2.25647
2.23939
2.22239
2.20544
2.18849
2.17151
2.15446
2.13731
2.12004
2.10264
2.0851
2.06745
2.04972
2.03196
2.01423
1.99659
1.9791
1.96182
1.94481
1.92811
1.91177
1.89581
1.88025
1.86511
1.85039
1.83607
1.82216
1.80861
1.79539
1.78245
1.76971
1.75709
1.74451
1.73185
1.71903
1.70592
1.69242
1.67844
1.66387
1.64864
1.63269
1.61597
1.59849
1.58027
1.56136
1.54184
1.5218
1.50137
1.48064
1.45973
1.43874
1.41777
1.39689
1.37619
1.35573
1.33557
1.31575
1.29631
1.27727
1.25865
1.24045
1.22266
1.20529
1.18831
1.1717
1.15544
1.13953
1.12394
1.10866
1.09365
1.07897
1.06393
1.0511
1.02799
2.72027
2.70219
2.6841
2.66601
2.64791
2.62982
2.61173
2.59365
2.57558
2.55752
2.53948
2.52145
2.50344
2.48545
2.46748
2.44953
2.43161
2.41371
2.39585
2.37802
2.36024
2.34251
2.32486
2.30728
2.28979
2.27239
2.25508
2.23785
2.22069
2.20358
2.18648
2.16938
2.15224
2.13503
2.11775
2.10037
2.0829
2.06534
2.04774
2.03012
2.01253
1.99502
1.97764
1.96044
1.94348
1.92679
1.91041
1.89438
1.8787
1.8634
1.84848
1.83394
1.81975
1.80591
1.79236
1.77906
1.76595
1.75295
1.73998
1.72695
1.71376
1.70031
1.6865
1.67224
1.65745
1.64206
1.62601
1.60927
1.59183
1.57371
1.55497
1.53567
1.51591
1.49577
1.47537
1.4548
1.43415
1.41351
1.39296
1.37257
1.35239
1.33248
1.31288
1.29361
1.27469
1.25616
1.238
1.22022
1.20282
1.1858
1.16913
1.15281
1.13682
1.12115
1.10579
1.09068
1.07589
1.06074
1.04784
1.02466
2.72022
2.70213
2.68403
2.66592
2.64781
2.6297
2.61159
2.59349
2.57539
2.55731
2.53923
2.52117
2.50312
2.48509
2.46707
2.44908
2.43111
2.41316
2.39525
2.37737
2.35953
2.34174
2.32401
2.30635
2.28876
2.27125
2.25382
2.23646
2.21916
2.20192
2.1847
2.16749
2.15026
2.133
2.11569
2.09832
2.08089
2.06342
2.04591
2.02839
2.01091
1.99351
1.97622
1.95909
1.94217
1.92549
1.90908
1.89298
1.87721
1.86177
1.84667
1.83192
1.81749
1.80337
1.78952
1.7759
1.76245
1.74911
1.73579
1.72241
1.70889
1.69513
1.68104
1.66654
1.65156
1.63603
1.61989
1.60313
1.58573
1.56772
1.54914
1.53005
1.51054
1.49068
1.47058
1.45032
1.42999
1.40966
1.38942
1.36932
1.34942
1.32976
1.31039
1.29132
1.27257
1.25417
1.23612
1.21842
1.20107
1.18407
1.1674
1.15106
1.13504
1.11932
1.1039
1.0887
1.07381
1.05856
1.04558
1.02232
2.72017
2.70207
2.68396
2.66584
2.64771
2.62959
2.61146
2.59334
2.57521
2.5571
2.53899
2.5209
2.50282
2.48475
2.46669
2.44866
2.43064
2.41265
2.39469
2.37676
2.35887
2.34102
2.32322
2.30549
2.28781
2.27021
2.25267
2.2352
2.21779
2.20042
2.1831
2.16579
2.14849
2.13117
2.11384
2.09647
2.07906
2.06163
2.04419
2.02676
2.00937
1.99205
1.97483
1.95776
1.94087
1.9242
1.90777
1.89161
1.87575
1.86018
1.84493
1.82999
1.81534
1.80098
1.78686
1.77295
1.7592
1.74553
1.7319
1.71821
1.70439
1.69035
1.67602
1.66131
1.64616
1.6305
1.6143
1.59753
1.58018
1.56227
1.54385
1.52496
1.50568
1.48609
1.46627
1.4463
1.42626
1.40623
1.38628
1.36645
1.34681
1.32739
1.30823
1.28936
1.27079
1.25254
1.23461
1.21701
1.19973
1.18278
1.16615
1.14982
1.13379
1.11804
1.10257