/*--------------------------------*- C++ -*----------------------------------*\
  =========                 |
  \\      /  F ield         | OpenFOAM: The Open Source CFD Toolbox
   \\    /   O peration     | Website:  https://openfoam.org
    \\  /    A nd           | Version:  10
     \\/     M anipulation  |
\*---------------------------------------------------------------------------*/
FoamFile
{
    format      ascii;
    class       volScalarField;
    location    "400";
    object      k;
}
// * * * * * * * * * * * * * * * * * * * * * * * * * * * * * * * * * * * * * //

dimensions      [0 2 -2 0 0 0 0];

internalField   nonuniform List<scalar> 
6820
(
0.19714
0.192517
0.18828
0.184033
0.179769
0.175612
0.171677
0.168043
0.164748
0.161801
0.159195
0.156913
0.154932
0.153226
0.151771
0.150542
0.149516
0.148672
0.147991
0.147456
0.14705
0.146761
0.146575
0.146481
0.146469
0.146534
0.146656
0.146854
0.147124
0.147679
0.144008
0.168605
0.080683
0.207249
0.212377
0.210057
0.205417
0.200994
0.19755
0.195142
0.193616
0.192784
0.192483
0.192584
0.192989
0.193627
0.194442
0.195393
0.196449
0.197585
0.198784
0.200029
0.201311
0.20262
0.203951
0.205299
0.206665
0.20805
0.209463
0.210913
0.212445
0.214058
0.215995
0.217382
0.224782
0.221694
0.200993
0.203847
0.204551
0.203318
0.201177
0.198803
0.196518
0.194452
0.192649
0.191115
0.189837
0.188795
0.187968
0.187333
0.186869
0.186558
0.18638
0.18632
0.186363
0.186498
0.186713
0.186999
0.187348
0.187754
0.188213
0.188721
0.18928
0.189897
0.190572
0.191387
0.192119
0.193697
0.195359
0.199593
0.199508
0.199518
0.199121
0.198258
0.197061
0.195675
0.194212
0.192747
0.191324
0.189972
0.188707
0.187536
0.186463
0.185487
0.184606
0.183815
0.183109
0.182485
0.181937
0.181459
0.181047
0.180696
0.180404
0.180167
0.179982
0.17985
0.179773
0.179754
0.179816
0.179924
0.180183
0.180733
0.199411
0.198475
0.197748
0.197076
0.196333
0.195471
0.194494
0.193431
0.192314
0.191173
0.190029
0.188902
0.187802
0.186738
0.185718
0.184744
0.183818
0.182942
0.182116
0.181338
0.180608
0.179925
0.179287
0.178692
0.178141
0.177631
0.177163
0.176738
0.176358
0.176029
0.175749
0.17553
0.175421
0.199395
0.198255
0.197227
0.19629
0.195403
0.194525
0.193631
0.19271
0.191764
0.190799
0.189824
0.188846
0.187874
0.186915
0.185973
0.185052
0.184156
0.183288
0.182448
0.181638
0.180858
0.180109
0.17939
0.178703
0.178045
0.177419
0.176823
0.176258
0.175726
0.175229
0.174768
0.174345
0.173972
0.199394
0.198216
0.197096
0.196039
0.195039
0.194082
0.193155
0.192244
0.191343
0.190445
0.189552
0.188663
0.187781
0.186908
0.186045
0.185196
0.184363
0.183547
0.182749
0.18197
0.181212
0.180475
0.179759
0.179066
0.178394
0.177744
0.177117
0.176514
0.175934
0.175379
0.174851
0.17435
0.173878
0.199395
0.19821
0.197068
0.19597
0.194919
0.193911
0.192942
0.192004
0.191094
0.190206
0.189335
0.188481
0.187642
0.186816
0.186004
0.185206
0.184422
0.183654
0.182901
0.182163
0.181442
0.180737
0.180049
0.179379
0.178725
0.178089
0.177471
0.17687
0.176289
0.175727
0.175185
0.174663
0.174164
0.199395
0.198209
0.197062
0.195954
0.194885
0.193855
0.192861
0.191902
0.190975
0.190076
0.189204
0.188355
0.187527
0.186719
0.18593
0.185158
0.184403
0.183665
0.182942
0.182236
0.181545
0.18087
0.18021
0.179565
0.178936
0.178322
0.177723
0.17714
0.176573
0.176022
0.175488
0.174971
0.174472
0.199395
0.198209
0.197061
0.195951
0.194877
0.193839
0.192835
0.191865
0.190926
0.190018
0.189138
0.188284
0.187456
0.186651
0.185868
0.185105
0.184362
0.183638
0.182932
0.182243
0.181571
0.180914
0.180274
0.179649
0.179039
0.178444
0.177864
0.177298
0.176747
0.176211
0.175691
0.175185
0.174695
0.199395
0.198209
0.197061
0.19595
0.194874
0.193834
0.192827
0.191852
0.190908
0.189995
0.189109
0.188251
0.187419
0.186612
0.185829
0.185068
0.184328
0.183608
0.182908
0.182227
0.181563
0.180917
0.180288
0.179674
0.179076
0.178493
0.177926
0.177373
0.176834
0.17631
0.175801
0.175306
0.174826
0.199395
0.198209
0.19706
0.195949
0.194874
0.193832
0.192824
0.191848
0.190902
0.189986
0.189098
0.188238
0.187403
0.186594
0.185809
0.185046
0.184306
0.183587
0.182889
0.182209
0.181549
0.180907
0.180282
0.179674
0.179082
0.178506
0.177945
0.177399
0.176868
0.176352
0.17585
0.175362
0.174889
0.199395
0.198209
0.19706
0.195949
0.194873
0.193832
0.192823
0.191846
0.1909
0.189983
0.189094
0.188232
0.187396
0.186586
0.185799
0.185036
0.184295
0.183575
0.182876
0.182197
0.181538
0.180896
0.180273
0.179667
0.179077
0.178504
0.177946
0.177404
0.176877
0.176364
0.175866
0.175382
0.174912
0.199395
0.198209
0.19706
0.195949
0.194873
0.193831
0.192822
0.191845
0.190899
0.189981
0.189092
0.18823
0.187393
0.186582
0.185795
0.185031
0.184289
0.183569
0.18287
0.18219
0.181531
0.180889
0.180266
0.17966
0.179072
0.178499
0.177943
0.177402
0.176876
0.176365
0.175869
0.175386
0.174918
0.199395
0.198208
0.19706
0.195948
0.194872
0.193831
0.192822
0.191845
0.190898
0.18998
0.189091
0.188228
0.187391
0.18658
0.185792
0.185028
0.184286
0.183566
0.182866
0.182187
0.181526
0.180885
0.180262
0.179656
0.179068
0.178495
0.177939
0.177399
0.176873
0.176363
0.175867
0.175385
0.174916
0.199395
0.198208
0.19706
0.195948
0.194872
0.19383
0.192821
0.191844
0.190897
0.189979
0.18909
0.188227
0.18739
0.186578
0.185791
0.185026
0.184284
0.183564
0.182864
0.182184
0.181524
0.180883
0.180259
0.179654
0.179065
0.178493
0.177937
0.177396
0.176871
0.176361
0.175864
0.175382
0.174914
0.199395
0.198208
0.19706
0.195948
0.194872
0.19383
0.192821
0.191843
0.190896
0.189979
0.189089
0.188226
0.187389
0.186577
0.18579
0.185025
0.184283
0.183562
0.182862
0.182183
0.181523
0.180881
0.180258
0.179652
0.179063
0.178491
0.177935
0.177395
0.176869
0.176359
0.175862
0.17538
0.174911
0.199395
0.198208
0.19706
0.195948
0.194872
0.19383
0.192821
0.191843
0.190896
0.189978
0.189088
0.188225
0.187388
0.186576
0.185788
0.185024
0.184282
0.183561
0.182861
0.182182
0.181521
0.18088
0.180257
0.179651
0.179062
0.17849
0.177934
0.177394
0.176868
0.176357
0.175861
0.175378
0.174909
0.199395
0.198208
0.19706
0.195948
0.194871
0.193829
0.19282
0.191843
0.190895
0.189977
0.189087
0.188224
0.187387
0.186575
0.185788
0.185023
0.184281
0.18356
0.18286
0.182181
0.18152
0.180879
0.180256
0.17965
0.179061
0.178489
0.177933
0.177393
0.176867
0.176356
0.175859
0.175376
0.174907
0.199395
0.198208
0.197059
0.195948
0.194871
0.193829
0.19282
0.191842
0.190895
0.189977
0.189087
0.188224
0.187387
0.186575
0.185787
0.185022
0.18428
0.183559
0.182859
0.18218
0.18152
0.180878
0.180255
0.179649
0.179061
0.178488
0.177932
0.177392
0.176866
0.176355
0.175858
0.175375
0.174905
0.199395
0.198208
0.197059
0.195947
0.194871
0.193829
0.19282
0.191842
0.190895
0.189976
0.189086
0.188223
0.187386
0.186574
0.185786
0.185021
0.184279
0.183558
0.182859
0.182179
0.181519
0.180877
0.180254
0.179648
0.17906
0.178488
0.177931
0.177391
0.176865
0.176354
0.175857
0.175373
0.174903
0.199395
0.198208
0.197059
0.195947
0.194871
0.193829
0.192819
0.191842
0.190894
0.189976
0.189086
0.188223
0.187386
0.186574
0.185786
0.185021
0.184278
0.183558
0.182858
0.182178
0.181518
0.180877
0.180253
0.179648
0.179059
0.178487
0.177931
0.17739
0.176864
0.176353
0.175855
0.175372
0.174901
0.199395
0.198208
0.197059
0.195947
0.194871
0.193829
0.192819
0.191842
0.190894
0.189976
0.189086
0.188222
0.187385
0.186573
0.185785
0.18502
0.184278
0.183557
0.182857
0.182178
0.181517
0.180876
0.180253
0.179647
0.179058
0.178486
0.17793
0.177389
0.176863
0.176352
0.175854
0.17537
0.1749
0.199395
0.198208
0.197059
0.195947
0.194871
0.193829
0.192819
0.191841
0.190894
0.189976
0.189085
0.188222
0.187385
0.186573
0.185785
0.18502
0.184277
0.183557
0.182857
0.182177
0.181517
0.180875
0.180252
0.179646
0.179058
0.178485
0.177929
0.177388
0.176862
0.17635
0.175853
0.175369
0.174898
0.199395
0.198208
0.197059
0.195947
0.194871
0.193829
0.192819
0.191841
0.190894
0.189975
0.189085
0.188222
0.187385
0.186572
0.185784
0.185019
0.184277
0.183556
0.182856
0.182177
0.181516
0.180875
0.180252
0.179646
0.179057
0.178485
0.177928
0.177387
0.176861
0.176349
0.175852
0.175367
0.174896
0.199395
0.198208
0.197059
0.195947
0.194871
0.193828
0.192819
0.191841
0.190894
0.189975
0.189085
0.188222
0.187384
0.186572
0.185784
0.185019
0.184277
0.183556
0.182856
0.182176
0.181516
0.180875
0.180251
0.179645
0.179057
0.178484
0.177928
0.177387
0.17686
0.176348
0.17585
0.175366
0.174895
0.199395
0.198208
0.197059
0.195947
0.194871
0.193828
0.192819
0.191841
0.190893
0.189975
0.189085
0.188221
0.187384
0.186572
0.185784
0.185019
0.184277
0.183556
0.182856
0.182176
0.181516
0.180874
0.180251
0.179645
0.179056
0.178484
0.177927
0.177386
0.176859
0.176347
0.175849
0.175365
0.174893
0.199395
0.198208
0.197059
0.195947
0.194871
0.193828
0.192819
0.191841
0.190893
0.189975
0.189085
0.188221
0.187384
0.186572
0.185784
0.185019
0.184276
0.183556
0.182856
0.182176
0.181516
0.180874
0.180251
0.179645
0.179056
0.178483
0.177927
0.177385
0.176859
0.176346
0.175848
0.175363
0.174892
0.199395
0.198208
0.197059
0.195947
0.194871
0.193828
0.192819
0.191841
0.190893
0.189975
0.189085
0.188221
0.187384
0.186572
0.185784
0.185019
0.184276
0.183555
0.182856
0.182176
0.181515
0.180874
0.18025
0.179644
0.179055
0.178483
0.177926
0.177385
0.176858
0.176346
0.175847
0.175362
0.17489
0.199395
0.198208
0.197059
0.195947
0.194871
0.193828
0.192819
0.191841
0.190893
0.189975
0.189085
0.188221
0.187384
0.186572
0.185784
0.185019
0.184276
0.183556
0.182856
0.182176
0.181515
0.180874
0.18025
0.179644
0.179055
0.178483
0.177926
0.177384
0.176858
0.176345
0.175847
0.175362
0.17489
0.199395
0.198208
0.197059
0.195947
0.194871
0.193828
0.192819
0.191841
0.190893
0.189975
0.189085
0.188221
0.187384
0.186572
0.185784
0.185019
0.184276
0.183556
0.182856
0.182176
0.181515
0.180874
0.18025
0.179644
0.179055
0.178483
0.177926
0.177384
0.176857
0.176345
0.175846
0.175361
0.174889
0.199395
0.198208
0.197059
0.195947
0.194871
0.193828
0.192819
0.191841
0.190893
0.189975
0.189085
0.188222
0.187384
0.186572
0.185784
0.185019
0.184277
0.183556
0.182856
0.182177
0.181516
0.180875
0.180251
0.179645
0.179056
0.178483
0.177926
0.177385
0.176858
0.176345
0.175846
0.175361
0.174889
0.199395
0.198208
0.197059
0.195947
0.194871
0.193828
0.192819
0.191841
0.190894
0.189975
0.189085
0.188222
0.187385
0.186573
0.185785
0.18502
0.184278
0.183557
0.182857
0.182178
0.181517
0.180876
0.180252
0.179646
0.179057
0.178484
0.177927
0.177385
0.176858
0.176345
0.175845
0.175359
0.174886
0.199395
0.198208
0.197059
0.195947
0.194871
0.193829
0.19282
0.191842
0.190895
0.189978
0.189088
0.188226
0.187389
0.186578
0.18579
0.185026
0.184284
0.183563
0.182864
0.182184
0.181523
0.180881
0.180257
0.17965
0.179059
0.178485
0.177927
0.177383
0.176854
0.176339
0.175838
0.17535
0.174875
0.199395
0.198208
0.197059
0.195948
0.194872
0.193831
0.192824
0.191848
0.190902
0.189986
0.189097
0.188236
0.1874
0.186588
0.185801
0.185036
0.184293
0.183571
0.182869
0.182187
0.181524
0.180878
0.18025
0.179639
0.179045
0.178466
0.177902
0.177353
0.176818
0.176297
0.175789
0.175294
0.174812
0.199395
0.198209
0.197062
0.195955
0.194886
0.193853
0.192854
0.191885
0.190945
0.190033
0.189146
0.188284
0.187446
0.186631
0.185838
0.185066
0.184315
0.183583
0.18287
0.182176
0.181499
0.18084
0.180198
0.179572
0.178962
0.178367
0.177786
0.17722
0.176668
0.176129
0.175604
0.175091
0.174591
0.199395
0.198223
0.197106
0.196032
0.194988
0.19397
0.192977
0.192007
0.19106
0.190136
0.189233
0.188352
0.187492
0.186652
0.185833
0.185034
0.184254
0.183493
0.18275
0.182025
0.181317
0.180627
0.179952
0.179294
0.17865
0.178022
0.177409
0.17681
0.176225
0.175653
0.175095
0.174549
0.174016
0.19941
0.198319
0.197296
0.1963
0.19531
0.194319
0.193329
0.192346
0.191374
0.190418
0.18948
0.188562
0.187666
0.18679
0.185936
0.185103
0.184291
0.183498
0.182725
0.18197
0.181233
0.180514
0.179812
0.179127
0.178457
0.177803
0.177164
0.176539
0.175929
0.175332
0.174749
0.17418
0.173623
0.199716
0.199139
0.19847
0.197765
0.197072
0.196419
0.195812
0.195251
0.194733
0.194259
0.193826
0.193433
0.193078
0.192758
0.192472
0.192218
0.191993
0.191796
0.191624
0.191476
0.19135
0.191244
0.191157
0.191087
0.191033
0.190994
0.190968
0.190955
0.190955
0.190965
0.190985
0.191015
0.191054
0.205424
0.216593
0.22763
0.238434
0.248976
0.259243
0.269229
0.278926
0.288326
0.297424
0.306217
0.314702
0.322879
0.33075
0.338317
0.345584
0.352555
0.359237
0.365635
0.371758
0.377612
0.383205
0.388547
0.393644
0.398507
0.403143
0.407561
0.41177
0.415778
0.419593
0.423224
0.426678
0.429967
0.339934
1.12875
1.72451
1.92291
1.95118
2.00538
2.08678
2.14797
2.18217
2.20143
2.21379
2.221
2.22167
2.21387
2.19699
2.17258
2.14412
2.11603
2.09234
2.07545
2.06549
2.06045
2.05701
2.0514
2.0403
2.02125
1.99295
1.95539
1.90991
1.85919
1.80689
1.75721
1.71422
1.68123
1.66016
1.65128
1.65319
1.66316
1.67784
1.69395
1.70886
1.72093
1.72937
1.73397
1.73458
1.73072
1.72132
1.70481
1.67937
1.64339
1.5958
1.53638
1.46581
1.38567
1.29827
1.20651
1.11361
1.0229
0.937574
0.860481
0.793986
0.739947
0.699956
0.676097
0.672497
0.696628
0.757073
0.856155
0.984008
1.12188
1.25124
1.36003
1.44328
1.50098
1.53562
1.55055
1.54916
1.53447
1.50906
1.47507
1.43427
1.38811
1.33782
1.28441
1.22872
1.17147
1.11325
1.05453
0.99566
0.936905
0.878426
0.82035
0.762836
0.705779
0.647257
0.581849
0.509616
0.464628
0.497768
0.623641
0.214702
0.328764
0.550849
0.726715
0.811136
0.863002
0.954679
1.10487
1.28076
1.4444
1.57827
1.68029
1.75297
1.79915
1.82229
1.82748
1.82147
1.81157
1.80405
1.80274
1.8083
1.81846
1.82907
1.83541
1.83331
1.81989
1.79392
1.75585
1.70775
1.65302
1.59597
1.54125
1.49323
1.45541
1.4299
1.41714
1.41584
1.42332
1.4361
1.45065
1.46405
1.47433
1.48051
1.48237
1.47991
1.47297
1.46087
1.44236
1.41589
1.37995
1.33354
1.27641
1.20923
1.13356
1.05174
0.966645
0.881492
0.799515
0.723716
0.656627
0.600166
0.555625
0.523884
0.506088
0.505171
0.527726
0.583045
0.676187
0.800371
0.938339
1.07127
1.18596
1.27629
1.34138
1.38318
1.40474
1.40931
1.39987
1.37903
1.34901
1.31166
1.26854
1.22098
1.17007
1.11676
1.06184
1.00596
0.949642
0.893307
0.83725
0.781678
0.726766
0.672747
0.619645
0.56569
0.505576
0.440029
0.405883
0.453711
0.591082
0.192535
0.196252
0.224763
0.268871
0.307051
0.331546
0.351686
0.388071
0.460491
0.573622
0.714489
0.861994
0.997209
1.10839
1.19132
1.24796
1.28528
1.31223
1.33703
1.36516
1.39833
1.43461
1.46958
1.49787
1.51468
1.51671
1.50265
1.47326
1.43112
1.38019
1.32525
1.27128
1.22292
1.18386
1.1565
1.14161
1.1383
1.1442
1.15602
1.17017
1.18348
1.19365
1.19941
1.20037
1.19663
1.18831
1.17515
1.1564
1.13092
1.09749
1.0552
1.00384
0.944019
0.877234
0.805734
0.732302
0.659964
0.59166
0.529946
0.476755
0.433294
0.400111
0.377323
0.365135
0.365049
0.381971
0.425042
0.50267
0.613489
0.743953
0.875743
0.994135
1.09109
1.16418
1.21433
1.24398
1.25609
1.2535
1.23882
1.2143
1.18187
1.1432
1.09969
1.05256
1.00281
0.951332
0.898832
0.845906
0.793018
0.740522
0.688673
0.637688
0.587854
0.53937
0.49091
0.437544
0.379071
0.351118
0.405279
0.549571
0.180711
0.179738
0.181207
0.18732
0.196288
0.204486
0.210205
0.215642
0.22574
0.246824
0.284478
0.339846
0.408156
0.481029
0.550658
0.613064
0.667923
0.718101
0.768068
0.8216
0.880029
0.94158
1.00185
1.05513
1.09588
1.12006
1.12584
1.11376
1.08645
1.04804
1.00345
0.95777
0.915603
0.880679
0.855531
0.841302
0.83766
0.842898
0.854266
0.86851
0.882493
0.89372
0.900618
0.902534
0.89948
0.891738
0.879472
0.862475
0.84015
0.81172
0.776561
0.734548
0.686271
0.6331
0.577075
0.520659
0.466407
0.416616
0.37304
0.336731
0.308064
0.286904
0.272858
0.26561
0.265579
0.275528
0.302588
0.356808
0.443308
0.555385
0.67756
0.794172
0.894775
0.974638
1.03303
1.07136
1.09199
1.09746
1.09024
1.07256
1.0464
1.01349
0.975307
0.933145
0.888107
0.841131
0.793005
0.744383
0.695791
0.647638
0.600232
0.55383
0.508743
0.465333
0.422889
0.377154
0.326093
0.30058
0.353483
0.500183
0.175288
0.174804
0.174332
0.174611
0.175912
0.17778
0.179473
0.180716
0.182131
0.185055
0.191024
0.201279
0.216281
0.235361
0.256984
0.279574
0.302564
0.326801
0.354377
0.388177
0.430598
0.481938
0.539386
0.597378
0.649217
0.689022
0.713131
0.720615
0.713022
0.693684
0.666869
0.637006
0.608098
0.583381
0.565149
0.554686
0.552226
0.556952
0.567113
0.580319
0.593978
0.60577
0.614007
0.617781
0.616883
0.611556
0.602179
0.588988
0.571955
0.550849
0.525446
0.495809
0.462488
0.426595
0.389696
0.353574
0.319923
0.290074
0.264832
0.244468
0.228835
0.21756
0.210228
0.206528
0.206475
0.211181
0.224618
0.254821
0.310472
0.393232
0.49441
0.600087
0.698055
0.780877
0.845494
0.891705
0.920829
0.934833
0.935862
0.926
0.907174
0.881113
0.849352
0.813231
0.773915
0.732406
0.689552
0.646064
0.602527
0.559409
0.517075
0.475817
0.435947
0.397926
0.361661
0.323888
0.280779
0.255627
0.300605
0.444636
0.173578
0.173068
0.172489
0.17199
0.171728
0.171711
0.171796
0.171837
0.171867
0.172136
0.173006
0.174807
0.177721
0.181713
0.186563
0.191965
0.197629
0.203664
0.210692
0.219814
0.232517
0.250273
0.273775
0.302108
0.332484
0.360918
0.383526
0.397736
0.402844
0.399869
0.390956
0.378695
0.365573
0.35367
0.344543
0.339222
0.338207
0.341448
0.348312
0.357635
0.36789
0.377472
0.384997
0.389529
0.39065
0.388385
0.383035
0.374972
0.36449
0.351762
0.336907
0.320124
0.301825
0.28268
0.263549
0.245332
0.2288
0.214471
0.202573
0.19309
0.185851
0.18063
0.177225
0.175504
0.175451
0.17741
0.182989
0.196543
0.225219
0.275139
0.345953
0.429807
0.515779
0.594686
0.660962
0.71226
0.748369
0.770266
0.779485
0.777762
0.766832
0.748339
0.723787
0.694527
0.661752
0.626503
0.589675
0.552029
0.514198
0.476705
0.439968
0.404318
0.370052
0.337641
0.30746
0.27743
0.242782
0.217934
0.249972
0.385393
0.173361
0.172771
0.172153
0.17153
0.17095
0.170445
0.169995
0.169559
0.169126
0.168751
0.168542
0.16861
0.169018
0.169759
0.170771
0.171963
0.173225
0.174536
0.176031
0.177986
0.180816
0.185019
0.19103
0.198985
0.208503
0.218618
0.228
0.235382
0.239956
0.241562
0.240612
0.237875
0.234232
0.230511
0.227404
0.225445
0.225001
0.226253
0.229154
0.233395
0.238419
0.243503
0.247902
0.250992
0.25238
0.251932
0.249729
0.24599
0.240974
0.234916
0.228017
0.220465
0.212481
0.20434
0.196361
0.188859
0.182093
0.176229
0.171333
0.167392
0.16434
0.162098
0.160599
0.159812
0.159741
0.160482
0.162554
0.167744
0.179944
0.204428
0.244882
0.300341
0.365018
0.431141
0.491993
0.543251
0.582878
0.610464
0.626592
0.632374
0.629156
0.618347
0.601321
0.57936
0.553635
0.525188
0.494931
0.463655
0.432026
0.400607
0.369859
0.340145
0.311747
0.285068
0.260709
0.237709
0.211508
0.188521
0.205388
0.325677
0.173606
0.172979
0.172341
0.171692
0.171047
0.17042
0.169814
0.169221
0.168634
0.168062
0.167539
0.167107
0.166798
0.166619
0.166549
0.166552
0.166583
0.166625
0.166708
0.166916
0.167377
0.168245
0.169659
0.171684
0.174257
0.17716
0.180054
0.18257
0.18441
0.185425
0.185626
0.185158
0.184235
0.183102
0.181993
0.181117
0.180649
0.180711
0.181357
0.182545
0.18413
0.185876
0.187498
0.188716
0.189315
0.189173
0.18827
0.186668
0.184483
0.18185
0.178896
0.175741
0.172492
0.169254
0.166131
0.163223
0.160606
0.158333
0.156423
0.154869
0.153646
0.152723
0.152077
0.151698
0.151594
0.151793
0.152435
0.154126
0.158532
0.168624
0.187774
0.217939
0.258206
0.304839
0.35276
0.397291
0.435125
0.464464
0.484721
0.496131
0.499425
0.495594
0.485739
0.470972
0.452357
0.43088
0.407427
0.382781
0.357614
0.332502
0.307921
0.28425
0.261756
0.240741
0.2218
0.204783
0.186182
0.16704
0.170106
0.269262
0.17391
0.173277
0.172638
0.171992
0.17134
0.170691
0.170049
0.169414
0.168785
0.168162
0.167554
0.166975
0.166438
0.16595
0.165504
0.165088
0.164684
0.164283
0.163895
0.163551
0.163304
0.163216
0.163341
0.163708
0.164301
0.165056
0.165867
0.166612
0.167181
0.1675
0.167539
0.167311
0.166863
0.166263
0.16559
0.164925
0.164345
0.163917
0.163682
0.163653
0.163797
0.164048
0.164307
0.164468
0.164435
0.16414
0.163553
0.162683
0.161566
0.16026
0.158833
0.157349
0.155868
0.154441
0.15311
0.151909
0.150859
0.149968
0.149234
0.148642
0.148172
0.147801
0.147513
0.147299
0.147157
0.147093
0.147138
0.147465
0.148674
0.152107
0.159767
0.173603
0.194531
0.221843
0.253296
0.285809
0.316347
0.342545
0.362937
0.376882
0.384377
0.385848
0.381982
0.373597
0.361555
0.346704
0.32984
0.311685
0.292874
0.273955
0.255383
0.237525
0.220623
0.204887
0.190775
0.178559
0.166032
0.151878
0.145569
0.219903
0.174141
0.173516
0.172887
0.172252
0.171612
0.170969
0.170328
0.169689
0.169056
0.168427
0.167805
0.167192
0.166592
0.166005
0.165431
0.164863
0.164294
0.163723
0.163153
0.162601
0.162094
0.161662
0.161335
0.16113
0.161047
0.161062
0.161136
0.161217
0.161252
0.161201
0.161032
0.160734
0.160311
0.15978
0.159168
0.158511
0.157848
0.157215
0.156645
0.156155
0.155746
0.155403
0.155096
0.154783
0.154426
0.15399
0.153454
0.152815
0.152081
0.151278
0.150436
0.149593
0.148781
0.148032
0.147366
0.146796
0.146327
0.145953
0.145662
0.145435
0.14525
0.145088
0.144931
0.144765
0.144582
0.144377
0.144151
0.143943
0.143939
0.144652
0.147039
0.152338
0.161595
0.175182
0.192572
0.212444
0.233009
0.252431
0.269174
0.282181
0.290906
0.295244
0.295419
0.291881
0.285203
0.276018
0.26496
0.252631
0.239575
0.226264
0.213099
0.200397
0.188375
0.177176
0.167103
0.158541
0.150361
0.141009
0.130754
0.180421
0.174282
0.173667
0.17305
0.172427
0.171801
0.171171
0.17054
0.169911
0.169285
0.168662
0.168043
0.167429
0.166817
0.166208
0.165597
0.164982
0.164361
0.163731
0.163098
0.162471
0.161866
0.161302
0.160797
0.160365
0.160008
0.15972
0.159482
0.159267
0.159046
0.158792
0.158478
0.15809
0.157618
0.157064
0.156438
0.155757
0.155044
0.154322
0.153614
0.15294
0.152309
0.151725
0.151179
0.15066
0.15015
0.149633
0.149096
0.148535
0.14795
0.147351
0.146753
0.146175
0.145638
0.145159
0.14475
0.144416
0.144156
0.14396
0.143815
0.143703
0.143603
0.143495
0.143362
0.143188
0.142962
0.142671
0.142309
0.141878
0.141428
0.141129
0.141369
0.142769
0.146049
0.151747
0.159986
0.170389
0.182168
0.194294
0.205708
0.21549
0.222971
0.227776
0.229802
0.229172
0.226168
0.221172
0.214615
0.206931
0.198533
0.189788
0.181009
0.172455
0.164303
0.156663
0.14972
0.143815
0.138489
0.132839
0.122838
0.151842
0.174352
0.173746
0.173137
0.172524
0.171909
0.171291
0.170671
0.170052
0.169434
0.168819
0.168207
0.167597
0.166988
0.166377
0.165762
0.16514
0.164508
0.163868
0.163222
0.162577
0.161943
0.161333
0.16076
0.160234
0.159758
0.159331
0.158943
0.158579
0.15822
0.157845
0.157436
0.156976
0.156455
0.155869
0.155222
0.154522
0.153784
0.153024
0.152262
0.151514
0.150793
0.150108
0.14946
0.148848
0.148266
0.147705
0.147159
0.146624
0.146098
0.145585
0.145091
0.144628
0.144207
0.143836
0.143522
0.143268
0.14307
0.142918
0.142799
0.142697
0.142595
0.142474
0.142318
0.142111
0.14184
0.14149
0.141052
0.140519
0.139901
0.13925
0.138705
0.138529
0.139101
0.140821
0.143963
0.148554
0.154342
0.160858
0.167508
0.173692
0.178888
0.18271
0.184939
0.185515
0.184512
0.182108
0.178541
0.174081
0.169
0.163553
0.157963
0.15242
0.147066
0.14199
0.137304
0.133258
0.129715
0.126452
0.118743
0.133174
0.17438
0.173778
0.173174
0.172568
0.17196
0.171349
0.170737
0.170125
0.169514
0.168905
0.168298
0.167692
0.167086
0.166478
0.165866
0.165247
0.16462
0.163985
0.163344
0.162702
0.162067
0.161446
0.16085
0.160286
0.159756
0.159262
0.158798
0.158353
0.157914
0.157465
0.156993
0.156483
0.155926
0.155317
0.154657
0.153949
0.153205
0.152436
0.151658
0.150886
0.150132
0.149406
0.148715
0.148061
0.147443
0.146858
0.146302
0.145771
0.145265
0.144785
0.144333
0.143915
0.143536
0.143202
0.142916
0.142676
0.142479
0.142316
0.142176
0.142044
0.141906
0.141745
0.141548
0.141298
0.140982
0.140587
0.140101
0.139516
0.138832
0.138064
0.13726
0.13652
0.136012
0.135956
0.136569
0.137991
0.140221
0.143106
0.146374
0.149688
0.15271
0.155151
0.1568
0.157539
0.157342
0.156256
0.154389
0.151883
0.148896
0.145584
0.142096
0.13856
0.135081
0.13173
0.128581
0.125797
0.123357
0.12142
0.11629
0.12205
0.174387
0.173787
0.173186
0.172582
0.171977
0.17137
0.170762
0.170154
0.169547
0.16894
0.168335
0.167731
0.167127
0.166521
0.165911
0.165297
0.164675
0.164048
0.163416
0.162783
0.162153
0.161534
0.160932
0.160352
0.159797
0.159268
0.158761
0.158268
0.157781
0.157286
0.156774
0.156232
0.155653
0.155031
0.154366
0.153661
0.152922
0.15216
0.151386
0.150613
0.149853
0.149115
0.148408
0.147736
0.147099
0.146499
0.145932
0.145397
0.144893
0.144419
0.143978
0.143571
0.143201
0.14287
0.142579
0.142326
0.142106
0.141912
0.141733
0.141558
0.141373
0.141165
0.140921
0.140627
0.140269
0.139837
0.139318
0.138704
0.137993
0.137189
0.136309
0.135394
0.134511
0.133762
0.133271
0.133155
0.133485
0.134258
0.13539
0.136731
0.138094
0.139295
0.140175
0.14062
0.140569
0.140008
0.13897
0.137513
0.135719
0.133676
0.131471
0.129188
0.126897
0.124654
0.122506
0.120557
0.118809
0.117524
0.114404
0.115807
0.174386
0.173786
0.173185
0.172582
0.171978
0.171373
0.170766
0.17016
0.169553
0.168947
0.168342
0.167737
0.167132
0.166526
0.165917
0.165304
0.164687
0.164066
0.16344
0.162814
0.162191
0.161575
0.160972
0.160384
0.159815
0.159264
0.15873
0.158207
0.157688
0.157163
0.156624
0.156062
0.15547
0.154844
0.154181
0.153485
0.152758
0.152011
0.15125
0.150488
0.149735
0.148999
0.148289
0.14761
0.146964
0.146353
0.145776
0.145232
0.144721
0.144242
0.143796
0.143383
0.143004
0.142661
0.142351
0.142073
0.141822
0.14159
0.141369
0.141148
0.140917
0.140662
0.140372
0.140036
0.139641
0.139177
0.138632
0.138001
0.137278
0.136466
0.135574
0.134618
0.133628
0.132649
0.131741
0.130974
0.130409
0.130086
0.130005
0.130121
0.130357
0.130616
0.130799
0.130822
0.130622
0.130167
0.12945
0.128487
0.127311
0.125964
0.124496
0.122953
0.121382
0.119821
0.118303
0.116889
0.115582
0.114596
0.112747
0.11232
0.174383
0.173783
0.173181
0.172578
0.171973
0.171368
0.170761
0.170154
0.169547
0.16894
0.168333
0.167726
0.167119
0.166511
0.165901
0.165289
0.164673
0.164054
0.163433
0.162811
0.162192
0.161578
0.160972
0.160379
0.159799
0.159233
0.158679
0.158134
0.157592
0.157046
0.156488
0.155913
0.155314
0.154686
0.154029
0.153344
0.152633
0.151903
0.15116
0.150414
0.149674
0.148947
0.148241
0.147561
0.146911
0.146292
0.145706
0.145152
0.14463
0.14414
0.143681
0.143254
0.14286
0.142496
0.142163
0.141856
0.141571
0.141301
0.141039
0.140775
0.140499
0.140202
0.139871
0.139497
0.139069
0.138577
0.138012
0.137367
0.13664
0.13583
0.134944
0.133991
0.132986
0.131951
0.130915
0.129914
0.128987
0.128168
0.12748
0.126923
0.126478
0.126108
0.125764
0.125396
0.124959
0.124421
0.123764
0.122982
0.122083
0.121084
0.120007
0.118877
0.11772
0.116561
0.115421
0.114336
0.113307
0.112457
0.111296
0.110255
0.17438
0.173779
0.173176
0.172572
0.171967
0.17136
0.170753
0.170145
0.169536
0.168927
0.168318
0.167709
0.167099
0.166488
0.165876
0.165262
0.164646
0.164028
0.163408
0.162788
0.16217
0.161555
0.160947
0.160348
0.159759
0.159181
0.158611
0.158048
0.157488
0.156925
0.156353
0.155768
0.155163
0.154536
0.153886
0.153211
0.152516
0.151803
0.151079
0.15035
0.149624
0.148909
0.14821
0.147533
0.146881
0.146258
0.145664
0.1451
0.144566
0.144062
0.143588
0.143144
0.14273
0.142344
0.141984
0.141648
0.14133
0.141025
0.140724
0.140421
0.140106
0.13977
0.139403
0.138995
0.138538
0.138022
0.13744
0.136786
0.136057
0.135253
0.134378
0.13344
0.132449
0.131416
0.130359
0.129296
0.128249
0.127242
0.126293
0.125416
0.124613
0.123878
0.123193
0.122536
0.121882
0.121209
0.1205
0.119744
0.118938
0.118085
0.117193
0.116272
0.115335
0.114398
0.113472
0.112577
0.111713
0.110929
0.110095
0.108915
0.174377
0.173775
0.173172
0.172567
0.171961
0.171353
0.170744
0.170135
0.169524
0.168913
0.168302
0.16769
0.167077
0.166464
0.165849
0.165233
0.164615
0.163996
0.163376
0.162755
0.162136
0.16152
0.160909
0.160304
0.159706
0.159117
0.158534
0.157957
0.157381
0.156804
0.15622
0.155626
0.155017
0.154391
0.153745
0.15308
0.152398
0.151701
0.150993
0.150281
0.14957
0.148866
0.148176
0.147503
0.146852
0.146225
0.145625
0.145051
0.144506
0.143988
0.143499
0.143037
0.142602
0.142194
0.141808
0.141443
0.141094
0.140756
0.140421
0.140083
0.139732
0.139362
0.138962
0.138525
0.138043
0.137506
0.136909
0.136247
0.135517
0.13472
0.133858
0.132938
0.131967
0.130954
0.12991
0.128847
0.127779
0.126718
0.12568
0.124675
0.123714
0.122798
0.121926
0.121092
0.120284
0.119493
0.118706
0.117916
0.117116
0.116305
0.115483
0.114653
0.113821
0.112992
0.112176
0.111379
0.110605
0.109853
0.109155
0.107973
0.174374
0.173772
0.173168
0.172562
0.171955
0.171346
0.170736
0.170125
0.169513
0.1689
0.168287
0.167672
0.167057
0.166441
0.165823
0.165205
0.164585
0.163964
0.163342
0.16272
0.162099
0.16148
0.160865
0.160254
0.159649
0.15905
0.158456
0.157866
0.157277
0.156688
0.156093
0.155491
0.154878
0.154252
0.15361
0.152952
0.15228
0.151596
0.150903
0.150205
0.149508
0.148815
0.148133
0.147465
0.146816
0.146187
0.145581
0.145
0.144443
0.143913
0.143408
0.142929
0.142474
0.142043
0.141634
0.141242
0.140864
0.140495
0.140129
0.139759
0.139377
0.138976
0.138548
0.138085
0.13758
0.137026
0.136416
0.135748
0.135017
0.134226
0.133376
0.132473
0.131523
0.130533
0.129512
0.128468
0.127412
0.126351
0.125296
0.124257
0.123239
0.122251
0.121293
0.120368
0.119473
0.118603
0.117754
0.11692
0.116097
0.115283
0.114475
0.113674
0.11288
0.112097
0.111327
0.110573
0.109837
0.109097
0.108446
0.107279
0.174372
0.173769
0.173165
0.172558
0.17195
0.17134
0.170729
0.170117
0.169503
0.168888
0.168272
0.167656
0.167038
0.166419
0.165799
0.165178
0.164556
0.163933
0.163309
0.162685
0.162062
0.16144
0.16082
0.160204
0.159592
0.158984
0.15838
0.157779
0.15718
0.15658
0.155977
0.155367
0.15475
0.154122
0.153482
0.15283
0.152166
0.151492
0.150811
0.150125
0.149439
0.148756
0.148082
0.147419
0.146771
0.146141
0.145531
0.144943
0.144377
0.143835
0.143316
0.14282
0.142347
0.141895
0.141462
0.141046
0.140642
0.140245
0.13985
0.139451
0.139041
0.138613
0.138159
0.137674
0.137149
0.136579
0.135958
0.135284
0.134554
0.133768
0.132928
0.132041
0.131109
0.130142
0.129144
0.128124
0.127089
0.126046
0.125003
0.123965
0.12294
0.121932
0.120946
0.119984
0.119048
0.118136
0.117249
0.116383
0.115535
0.114705
0.11389
0.113089
0.112302
0.111529
0.110771
0.110028
0.109301
0.108559