/*--------------------------------*- C++ -*----------------------------------*\
  =========                 |
  \\      /  F ield         | OpenFOAM: The Open Source CFD Toolbox
   \\    /   O peration     | Website:  https://openfoam.org
    \\  /    A nd           | Version:  10
     \\/     M anipulation  |
\*---------------------------------------------------------------------------*/
FoamFile
{
    format      ascii;
    class       surfaceScalarField;
    location    "400";
    object      phi;
}
// * * * * * * * * * * * * * * * * * * * * * * * * * * * * * * * * * * * * * //

dimensions      [0 3 -1 0 0 0 0];

internalField   nonuniform List<scalar> 
13452
(
6.0292e-05
-2.35696e-08
5.9994e-05
2.98068e-07
5.959e-05
4.04007e-07
5.91159e-05
4.74072e-07
5.86115e-05
5.04393e-07
5.81302e-05
4.81321e-07
5.7694e-05
4.36219e-07
5.73032e-05
3.90803e-07
5.69523e-05
3.50862e-07
5.66356e-05
3.16731e-07
5.63477e-05
2.87903e-07
5.6084e-05
2.63657e-07
5.58408e-05
2.43174e-07
5.56151e-05
2.25715e-07
5.54044e-05
2.10696e-07
5.52067e-05
1.97686e-07
5.50204e-05
1.86364e-07
5.48439e-05
1.76502e-07
5.46759e-05
1.67944e-07
5.45153e-05
1.60598e-07
5.43609e-05
1.54439e-07
5.42114e-05
1.49507e-07
5.40654e-05
1.45932e-07
5.39215e-05
1.43973e-07
5.37774e-05
1.44084e-07
5.36304e-05
1.47034e-07
5.3476e-05
1.5431e-07
5.33075e-05
1.68542e-07
5.3113e-05
1.94528e-07
5.28869e-05
2.26113e-07
5.24988e-05
3.88076e-07
5.2108e-05
3.9075e-07
5.46795e-07
5.15612e-05
6.21472e-05
-1.80442e-07
6.21733e-05
2.71977e-07
6.21953e-05
3.81971e-07
6.22119e-05
4.5752e-07
6.22121e-05
5.04195e-07
6.21821e-05
5.11358e-07
6.21204e-05
4.97894e-07
6.20332e-05
4.77941e-07
6.19283e-05
4.55822e-07
6.1812e-05
4.32976e-07
6.16894e-05
4.10553e-07
6.15637e-05
3.8931e-07
6.14374e-05
3.69548e-07
6.13117e-05
3.51327e-07
6.11878e-05
3.34615e-07
6.10662e-05
3.19353e-07
6.0947e-05
3.05477e-07
6.08306e-05
2.92926e-07
6.07169e-05
2.81664e-07
6.06058e-05
2.71683e-07
6.04972e-05
2.63021e-07
6.0391e-05
2.55767e-07
6.02868e-05
2.50094e-07
6.01845e-05
2.46288e-07
6.00837e-05
2.44831e-07
5.99844e-05
2.4641e-07
5.98862e-05
2.52474e-07
5.97901e-05
2.64651e-07
5.96969e-05
2.87745e-07
5.96069e-05
3.16062e-07
5.9569e-05
4.26038e-07
5.95213e-05
4.38458e-07
6.0491e-07
5.94631e-05
6.36687e-05
-8.77422e-08
6.37276e-05
2.13038e-07
6.37879e-05
3.21726e-07
6.38515e-05
3.9389e-07
6.39064e-05
4.4927e-07
6.39432e-05
4.74576e-07
6.39617e-05
4.79378e-07
6.39647e-05
4.74937e-07
6.39549e-05
4.65697e-07
6.39345e-05
4.53384e-07
6.39056e-05
4.39399e-07
6.38701e-05
4.24812e-07
6.38294e-05
4.10253e-07
6.37847e-05
3.9607e-07
6.37368e-05
3.82482e-07
6.36865e-05
3.69637e-07
6.36344e-05
3.57642e-07
6.35807e-05
3.46579e-07
6.35258e-05
3.36531e-07
6.34699e-05
3.27598e-07
6.3413e-05
3.19911e-07
6.33551e-05
3.13658e-07
6.32961e-05
3.09111e-07
6.32357e-05
3.06662e-07
6.31736e-05
3.06924e-07
6.31093e-05
3.1072e-07
6.30422e-05
3.19594e-07
6.29717e-05
3.3522e-07
6.28975e-05
3.61898e-07
6.28148e-05
3.98772e-07
6.27622e-05
4.78628e-07
6.26687e-05
5.31947e-07
6.62801e-07
6.26108e-05
6.55169e-05
-2.1545e-08
6.5558e-05
1.71941e-07
6.55951e-05
2.84635e-07
6.56362e-05
3.52789e-07
6.56786e-05
4.06793e-07
6.57156e-05
4.37572e-07
6.57455e-05
4.49498e-07
6.57686e-05
4.51912e-07
6.5785e-05
4.49248e-07
6.57953e-05
4.43117e-07
6.57999e-05
4.34731e-07
6.57996e-05
4.25098e-07
6.5795e-05
4.14878e-07
6.57866e-05
4.04478e-07
6.57749e-05
3.9419e-07
6.57603e-05
3.84236e-07
6.57432e-05
3.74796e-07
6.57237e-05
3.66027e-07
6.57022e-05
3.58081e-07
6.56786e-05
3.51123e-07
6.56532e-05
3.45356e-07
6.56258e-05
3.41037e-07
6.55964e-05
3.38513e-07
6.55648e-05
3.38256e-07
6.55308e-05
3.40952e-07
6.5494e-05
3.47513e-07
6.54542e-05
3.59417e-07
6.5411e-05
3.78341e-07
6.53653e-05
4.07626e-07
6.53157e-05
4.48431e-07
6.528e-05
5.14276e-07
6.52285e-05
5.83489e-07
6.97726e-07
6.51935e-05
6.74275e-05
7.71536e-09
6.7448e-05
1.51496e-07
6.74716e-05
2.6103e-07
6.74998e-05
3.24594e-07
6.7533e-05
3.73524e-07
6.75657e-05
4.04909e-07
6.75952e-05
4.20035e-07
6.76211e-05
4.26012e-07
6.76434e-05
4.26942e-07
6.76621e-05
4.24371e-07
6.76775e-05
4.19392e-07
6.76896e-05
4.12952e-07
6.76988e-05
4.05697e-07
6.77052e-05
3.98047e-07
6.77091e-05
3.90306e-07
6.77106e-05
3.82723e-07
6.77099e-05
3.75504e-07
6.77071e-05
3.68836e-07
6.77023e-05
3.62906e-07
6.76955e-05
3.57916e-07
6.76867e-05
3.54107e-07
6.7676e-05
3.51777e-07
6.76632e-05
3.51313e-07
6.76482e-05
3.53223e-07
6.7631e-05
3.58205e-07
6.76113e-05
3.67164e-07
6.75893e-05
3.81416e-07
6.75652e-05
4.0247e-07
6.75401e-05
4.32764e-07
6.75146e-05
4.73896e-07
6.74971e-05
5.3176e-07
6.74801e-05
6.00456e-07
6.94011e-07
6.74839e-05
6.93699e-05
2.1817e-08
6.93827e-05
1.38751e-07
6.94043e-05
2.39408e-07
6.94286e-05
3.00325e-07
6.94565e-05
3.45572e-07
6.94848e-05
3.76581e-07
6.95114e-05
3.93463e-07
6.95359e-05
4.01502e-07
6.95584e-05
4.04492e-07
6.95787e-05
4.04021e-07
6.9597e-05
4.01133e-07
6.96132e-05
3.96726e-07
6.96275e-05
3.91436e-07
6.96398e-05
3.85686e-07
6.96504e-05
3.79785e-07
6.96591e-05
3.73988e-07
6.96661e-05
3.68512e-07
6.96714e-05
3.63557e-07
6.96749e-05
3.59325e-07
6.96768e-05
3.56037e-07
6.9677e-05
3.53949e-07
6.96754e-05
3.53377e-07
6.9672e-05
3.54716e-07
6.96667e-05
3.58472e-07
6.96596e-05
3.65305e-07
6.96507e-05
3.76043e-07
6.96404e-05
3.91786e-07
6.96291e-05
4.13777e-07
6.96181e-05
4.43709e-07
6.96091e-05
4.82879e-07
6.96072e-05
5.33743e-07
6.96132e-05
5.94373e-07
6.67393e-07
6.96399e-05
7.13588e-05
2.93253e-08
7.13695e-05
1.28055e-07
7.13904e-05
2.18502e-07
7.14132e-05
2.77585e-07
7.14382e-05
3.20511e-07
7.14639e-05
3.50936e-07
7.14884e-05
3.68955e-07
7.15114e-05
3.78461e-07
7.1533e-05
3.82878e-07
7.15532e-05
3.83848e-07
7.15719e-05
3.82399e-07
7.15893e-05
3.79397e-07
7.16052e-05
3.7548e-07
7.16198e-05
3.71081e-07
7.16331e-05
3.66521e-07
7.1645e-05
3.62059e-07
7.16556e-05
3.57922e-07
7.16649e-05
3.54317e-07
7.16727e-05
3.51451e-07
7.16792e-05
3.49551e-07
7.16843e-05
3.48879e-07
7.16879e-05
3.49745e-07
7.16901e-05
3.52533e-07
7.16909e-05
3.57713e-07
7.16903e-05
3.65875e-07
7.16886e-05
3.77725e-07
7.16863e-05
3.94131e-07
7.1684e-05
4.16026e-07
7.16832e-05
4.44487e-07
7.16858e-05
4.80271e-07
7.16955e-05
5.24091e-07
7.17153e-05
5.74582e-07
6.30338e-07
7.17523e-05
7.34019e-05
3.26556e-08
7.34116e-05
1.18359e-07
7.34309e-05
1.99196e-07
7.34526e-05
2.55976e-07
7.3476e-05
2.97051e-07
7.35002e-05
3.26754e-07
7.35236e-05
3.45556e-07
7.35458e-05
3.56278e-07
7.35668e-05
3.61889e-07
7.35866e-05
3.64034e-07
7.36052e-05
3.63737e-07
7.36228e-05
3.61842e-07
7.36393e-05
3.58993e-07
7.36547e-05
3.55639e-07
7.36691e-05
3.52116e-07
7.36825e-05
3.48695e-07
7.36948e-05
3.4561e-07
7.37061e-05
3.43072e-07
7.37162e-05
3.41294e-07
7.37253e-05
3.40501e-07
7.37332e-05
3.40946e-07
7.374e-05
3.42927e-07
7.37457e-05
3.46794e-07
7.37505e-05
3.52967e-07
7.37544e-05
3.6194e-07
7.37579e-05
3.74281e-07
7.37614e-05
3.90625e-07
7.37658e-05
4.11601e-07
7.37725e-05
4.37794e-07
7.37833e-05
4.69453e-07
7.3801e-05
5.06381e-07
7.38285e-05
5.47083e-07
5.89127e-07
7.38697e-05
7.55018e-05
3.33242e-08
7.55108e-05
1.0937e-07
7.55284e-05
1.8163e-07
7.55489e-05
2.35447e-07
7.55712e-05
2.74763e-07
7.55943e-05
3.03618e-07
7.5617e-05
3.22863e-07
7.56387e-05
3.34564e-07
7.56594e-05
3.41208e-07
7.56791e-05
3.44381e-07
7.56977e-05
3.45095e-07
7.57154e-05
3.44167e-07
7.57321e-05
3.42238e-07
7.5748e-05
3.39773e-07
7.5763e-05
3.37121e-07
7.57771e-05
3.34565e-07
7.57904e-05
3.32344e-07
7.58028e-05
3.30677e-07
7.58143e-05
3.29774e-07
7.58249e-05
3.29855e-07
7.58347e-05
3.3116e-07
7.58437e-05
3.33962e-07
7.58519e-05
3.3857e-07
7.58595e-05
3.45337e-07
7.58668e-05
3.54657e-07
7.58742e-05
3.66955e-07
7.58821e-05
3.82654e-07
7.58916e-05
4.02114e-07
7.59039e-05
4.2555e-07
7.59205e-05
4.52833e-07
7.59435e-05
4.83315e-07
7.59752e-05
5.15407e-07
5.46779e-07
7.60176e-05
7.76604e-05
3.24544e-08
7.7669e-05
1.00846e-07
7.7685e-05
1.65592e-07
7.77044e-05
2.16029e-07
7.77256e-05
2.53541e-07
7.77478e-05
2.81424e-07
7.77699e-05
3.00776e-07
7.77913e-05
3.1318e-07
7.78119e-05
3.20674e-07
7.78315e-05
3.24736e-07
7.78502e-05
3.26348e-07
7.78681e-05
3.26293e-07
7.78852e-05
3.25196e-07
7.79014e-05
3.23529e-07
7.79169e-05
3.2165e-07
7.79316e-05
3.19848e-07
7.79456e-05
3.1837e-07
7.79588e-05
3.17433e-07
7.79713e-05
3.17245e-07
7.79832e-05
3.18015e-07
7.79944e-05
3.19966e-07
7.8005e-05
3.23336e-07
7.80152e-05
3.2839e-07
7.80251e-05
3.35408e-07
7.80351e-05
3.44688e-07
7.80455e-05
3.56516e-07
7.8057e-05
3.71138e-07
7.80705e-05
3.88697e-07
7.80869e-05
4.09147e-07
7.81076e-05
4.32123e-07
7.81341e-05
4.56792e-07
7.81679e-05
4.81628e-07
5.04758e-07
7.82099e-05
7.988e-05
3.07477e-08
7.98882e-05
9.26556e-08
7.99029e-05
1.50859e-07
7.99212e-05
1.97729e-07
7.99415e-05
2.33329e-07
7.99628e-05
2.60116e-07
7.99843e-05
2.79285e-07
8.00053e-05
2.92114e-07
8.00257e-05
3.00257e-07
8.00454e-05
3.05054e-07
8.00643e-05
3.07441e-07
8.00825e-05
3.08159e-07
8.00998e-05
3.07811e-07
8.01165e-05
3.06865e-07
8.01325e-05
3.05681e-07
8.01478e-05
3.04551e-07
8.01624e-05
3.03719e-07
8.01765e-05
3.03403e-07
8.01899e-05
3.038e-07
8.02028e-05
3.05107e-07
8.02153e-05
3.07521e-07
8.02273e-05
3.11248e-07
8.02392e-05
3.16499e-07
8.02512e-05
3.23488e-07
8.02634e-05
3.32418e-07
8.02765e-05
3.43461e-07
8.02909e-05
3.56716e-07
8.03074e-05
3.72165e-07
8.0327e-05
3.896e-07
8.03506e-05
4.08531e-07
8.03793e-05
4.281e-07
8.04139e-05
4.46957e-07
4.63725e-07
8.0455e-05
8.21626e-05
2.86161e-08
8.21705e-05
8.47605e-08
8.21841e-05
1.37227e-07
8.22013e-05
1.80501e-07
8.22206e-05
2.14063e-07
8.22411e-05
2.39642e-07
8.2262e-05
2.5839e-07
8.22827e-05
2.71386e-07
8.2303e-05
2.79976e-07
8.23227e-05
2.85344e-07
8.23418e-05
2.88371e-07
8.23602e-05
2.89751e-07
8.23779e-05
2.9006e-07
8.2395e-05
2.89752e-07
8.24115e-05
2.89183e-07
8.24274e-05
2.88642e-07
8.24428e-05
2.88369e-07
8.24576e-05
2.88573e-07
8.2472e-05
2.8944e-07
8.24859e-05
2.91149e-07
8.24996e-05
2.93869e-07
8.25131e-05
2.97769e-07
8.25266e-05
3.03012e-07
8.25403e-05
3.09748e-07
8.25546e-05
3.18097e-07
8.25699e-05
3.28135e-07
8.25868e-05
3.39855e-07
8.26058e-05
3.53129e-07
8.26278e-05
3.67655e-07
8.26534e-05
3.82909e-07
8.26834e-05
3.98092e-07
8.27183e-05
4.12079e-07
4.23918e-07
8.27581e-05
8.45101e-05
2.62995e-08
8.45177e-05
7.7159e-08
8.45304e-05
1.24524e-07
8.45466e-05
1.6426e-07
8.4565e-05
1.95679e-07
8.45847e-05
2.1994e-07
8.4605e-05
2.38074e-07
8.46254e-05
2.51009e-07
8.46455e-05
2.59849e-07
8.46653e-05
2.65626e-07
8.46845e-05
2.69153e-07
8.47032e-05
2.71078e-07
8.47213e-05
2.71942e-07
8.47388e-05
2.7218e-07
8.47559e-05
2.72141e-07
8.47724e-05
2.72102e-07
8.47885e-05
2.72297e-07
8.48042e-05
2.72922e-07
8.48194e-05
2.74149e-07
8.48345e-05
2.76133e-07
8.48493e-05
2.79019e-07
8.48641e-05
2.82938e-07
8.48791e-05
2.88005e-07
8.48946e-05
2.94312e-07
8.49108e-05
3.01915e-07
8.49281e-05
3.10814e-07
8.4947e-05
3.20927e-07
8.49681e-05
3.32058e-07
8.49919e-05
3.43872e-07
8.50189e-05
3.55858e-07
8.50497e-05
3.67322e-07
8.50844e-05
3.77362e-07
3.85357e-07
8.5123e-05
8.69245e-05
2.39343e-08
8.69318e-05
6.98557e-08
8.69438e-05
1.12606e-07
8.69591e-05
1.48912e-07
8.69767e-05
1.78107e-07
8.69957e-05
2.00949e-07
8.70154e-05
2.18304e-07
8.70355e-05
2.30978e-07
8.70554e-05
2.39885e-07
8.70751e-05
2.45913e-07
8.70945e-05
2.49801e-07
8.71134e-05
2.5215e-07
8.71319e-05
2.53463e-07
8.71499e-05
2.54152e-07
8.71675e-05
2.5455e-07
8.71847e-05
2.54923e-07
8.72015e-05
2.55492e-07
8.7218e-05
2.56439e-07
8.72342e-05
2.57919e-07
8.72503e-05
2.60064e-07
8.72663e-05
2.6299e-07
8.72825e-05
2.66794e-07
8.72989e-05
2.71549e-07
8.73159e-05
2.77299e-07
8.73338e-05
2.84048e-07
8.73529e-05
2.9174e-07
8.73736e-05
3.00245e-07
8.73963e-05
3.09339e-07
8.74215e-05
3.18682e-07
8.74495e-05
3.27812e-07
8.74807e-05
3.36152e-07
8.7515e-05
3.42998e-07
3.47971e-07
8.75524e-05
8.94079e-05
2.15942e-08
8.94149e-05
6.28511e-08
8.94261e-05
1.01357e-07
8.94407e-05
1.34356e-07
8.94575e-05
1.61276e-07
8.94759e-05
1.82603e-07
8.94951e-05
1.9904e-07
8.95148e-05
2.11278e-07
8.95346e-05
2.2008e-07
8.95543e-05
2.26209e-07
8.95738e-05
2.30324e-07
8.9593e-05
2.32976e-07
8.96118e-05
2.34629e-07
8.96303e-05
2.3567e-07
8.96484e-05
2.36411e-07
8.96663e-05
2.37104e-07
8.96838e-05
2.37954e-07
8.97011e-05
2.39126e-07
8.97183e-05
2.40757e-07
8.97354e-05
2.42957e-07
8.97526e-05
2.45814e-07
8.977e-05
2.49393e-07
8.97878e-05
2.53731e-07
8.98062e-05
2.58835e-07
8.98256e-05
2.64667e-07
8.98462e-05
2.71137e-07
8.98684e-05
2.78089e-07
8.98924e-05
2.85291e-07
8.99187e-05
2.92425e-07
8.99474e-05
2.99092e-07
8.99787e-05
3.04824e-07
9.00127e-05
3.09084e-07
3.11663e-07
9.0049e-05
9.19621e-05
1.93161e-08
9.19689e-05
5.61378e-08
9.19795e-05
9.06829e-08
9.19934e-05
1.20496e-07
9.20096e-05
1.4511e-07
9.20273e-05
1.64838e-07
9.20461e-05
1.80233e-07
9.20655e-05
1.91881e-07
9.20852e-05
2.00423e-07
9.21049e-05
2.06507e-07
9.21245e-05
2.10718e-07
9.21439e-05
2.13555e-07
9.21631e-05
2.15442e-07
9.2182e-05
2.16736e-07
9.22007e-05
2.17726e-07
9.22192e-05
2.18647e-07
9.22374e-05
2.19687e-07
9.22556e-05
2.20993e-07
9.22736e-05
2.22682e-07
9.22918e-05
2.24842e-07
9.231e-05
2.27537e-07
9.23286e-05
2.30803e-07
9.23477e-05
2.34649e-07
9.23675e-05
2.39051e-07
9.23882e-05
2.43944e-07
9.24101e-05
2.49218e-07
9.24335e-05
2.54707e-07
9.24586e-05
2.60187e-07
9.24857e-05
2.65376e-07
9.25148e-05
2.69937e-07
9.25461e-05
2.73503e-07
9.25796e-05
2.75669e-07
2.76339e-07
9.26149e-05
9.45894e-05
1.71151e-08
9.45958e-05
4.97011e-08
9.4606e-05
8.05058e-08
9.46192e-05
1.07242e-07
9.46348e-05
1.29535e-07
9.46521e-05
1.47589e-07
9.46705e-05
1.61831e-07
9.46896e-05
1.72753e-07
9.47091e-05
1.80891e-07
9.47288e-05
1.86795e-07
9.47486e-05
1.90978e-07
9.47682e-05
1.93884e-07
9.47878e-05
1.959e-07
9.48072e-05
1.97348e-07
9.48264e-05
1.98496e-07
9.48455e-05
1.99557e-07
9.48645e-05
2.007e-07
9.48834e-05
2.02054e-07
9.49024e-05
2.03718e-07
9.49215e-05
2.05758e-07
9.49408e-05
2.08215e-07
9.49605e-05
2.11103e-07
9.49807e-05
2.14408e-07
9.50017e-05
2.18084e-07
9.50236e-05
2.22048e-07
9.50466e-05
2.26182e-07
9.5071e-05
2.30321e-07
9.50969e-05
2.34261e-07
9.51246e-05
2.37757e-07
9.5154e-05
2.40535e-07
9.51852e-05
2.42309e-07
9.5218e-05
2.42779e-07
2.41922e-07
9.52525e-05
9.72916e-05
1.49947e-08
9.72978e-05
4.35207e-08
9.73076e-05
7.07583e-08
9.73203e-05
9.45112e-08
9.73354e-05
1.14475e-07
9.73522e-05
1.3079e-07
9.73702e-05
1.43783e-07
9.73891e-05
1.53855e-07
9.74085e-05
1.61457e-07
9.74283e-05
1.67055e-07
9.74482e-05
1.71089e-07
9.74681e-05
1.73955e-07
9.7488e-05
1.75997e-07
9.75078e-05
1.77506e-07
9.75276e-05
1.78723e-07
9.75473e-05
1.79839e-07
9.7567e-05
1.81005e-07
9.75868e-05
1.82332e-07
9.76066e-05
1.83898e-07
9.76266e-05
1.85751e-07
9.76469e-05
1.87913e-07
9.76676e-05
1.90379e-07
9.76889e-05
1.93118e-07
9.77109e-05
1.96067e-07
9.77338e-05
1.99139e-07
9.77578e-05
2.0221e-07
9.7783e-05
2.05128e-07
9.78095e-05
2.0771e-07
9.78375e-05
2.09751e-07
9.7867e-05
2.11032e-07
9.7898e-05
2.11333e-07
9.79304e-05
2.10433e-07
2.08357e-07
9.79639e-05
0.000100071
1.29516e-08
0.000100077
3.75725e-08
0.000100086
6.13807e-08
0.000100099
8.22267e-08
0.000100113
9.98589e-08
0.00010013
1.14378e-07
0.000100148
1.2603e-07
0.000100166
1.35143e-07
0.000100186
1.4209e-07
0.000100205
1.47261e-07
0.000100225
1.51034e-07
0.000100246
1.53755e-07
0.000100266
1.55726e-07
0.000100286
1.57206e-07
0.000100307
1.58408e-07
0.000100327
1.59503e-07
0.000100347
1.6062e-07
0.000100368
1.61852e-07
0.000100388
1.63259e-07
0.000100409
1.64873e-07
0.00010043
1.667e-07
0.000100452
1.68719e-07
0.000100474
1.70886e-07
0.000100497
1.73133e-07
0.000100521
1.75365e-07
0.000100546
1.77467e-07
0.000100572
1.79298e-07
0.000100599
1.80702e-07
0.000100627
1.81509e-07
0.000100656
1.81545e-07
0.000100687
1.80646e-07
0.000100719
1.78649e-07
1.75607e-07
0.000100752
0.00010293
1.09793e-08
0.000102936
3.18305e-08
0.000102945
5.2319e-08
0.000102957
7.03186e-08
0.000102971
8.56161e-08
0.000102987
9.82871e-08
0.000103005
1.08518e-07
0.000103023
1.16571e-07
0.000103043
1.22752e-07
0.000103062
1.27386e-07
0.000103083
1.30793e-07
0.000103103
1.33269e-07
0.000103124
1.35077e-07
0.000103145
1.36444e-07
0.000103165
1.37556e-07
0.000103186
1.38559e-07
0.000103207
1.39563e-07
0.000103229
1.40643e-07
0.00010325
1.41844e-07
0.000103272
1.43181e-07
0.000103294
1.44648e-07
0.000103316
1.46213e-07
0.000103339
1.47822e-07
0.000103363
1.49405e-07
0.000103388
1.50867e-07
0.000103413
1.52102e-07
0.000103439
1.52984e-07
0.000103467
1.53382e-07
0.000103495
1.53156e-07
0.000103524
1.52172e-07
0.000103555
1.50307e-07
0.000103586
1.47444e-07
1.4365e-07
0.000103618
0.000105871
9.06934e-09
0.000105876
2.6268e-08
0.000105885
4.35236e-08
0.000105897
5.87221e-08
0.000105911
7.16785e-08
0.000105926
8.24532e-08
0.000105944
9.11873e-08
0.000105962
9.80867e-08
0.000105982
1.034e-07
0.000106002
1.07395e-07
0.000106022
1.10338e-07
0.000106043
1.12477e-07
0.000106064
1.14039e-07
0.000106085
1.15217e-07
0.000106106
1.16168e-07
0.000106128
1.17017e-07
0.00010615
1.17855e-07
0.000106172
1.18737e-07
0.000106194
1.19696e-07
0.000106216
1.20733e-07
0.000106239
1.2183e-07
0.000106262
1.22948e-07
0.000106286
1.24029e-07
0.00010631
1.25e-07
0.000106336
1.25772e-07
0.000106361
1.26248e-07
0.000106388
1.26318e-07
0.000106416
1.25872e-07
0.000106444
1.24798e-07
0.000106473
1.22995e-07
0.000106503
1.2037e-07
0.000106534
1.1684e-07
1.12478e-07
0.000106565
0.000108895
7.21311e-09
0.000108901
2.08585e-08
0.000108909
3.49482e-08
0.000108921
4.73766e-08
0.000108934
5.79804e-08
0.00010895
6.68113e-08
0.000108967
7.39769e-08
0.000108986
7.96371e-08
0.000109005
8.39902e-08
0.000109025
8.72518e-08
0.000109046
8.96392e-08
0.000109067
9.13588e-08
0.000109088
9.25974e-08
0.00010911
9.35161e-08
0.000109132
9.42466e-08
0.000109154
9.48898e-08
0.000109176
9.55164e-08
0.000109199
9.6168e-08
0.000109222
9.68608e-08
0.000109245
9.7587e-08
0.000109269
9.83192e-08
0.000109292
9.90121e-08
0.000109317
9.96059e-08
0.000109342
1.00028e-07
0.000109367
1.00197e-07
0.000109394
1.00023e-07
0.000109421
9.94142e-08
0.000109448
9.82784e-08
0.000109476
9.65281e-08
0.000109505
9.40838e-08
0.000109535
9.08808e-08
0.000109565
8.68582e-08
8.20918e-08
0.000109595
0.000112006
5.40186e-09
0.000112012
1.55765e-08
0.00011202
2.65497e-08
0.000112031
3.62248e-08
0.000112045
4.44573e-08
0.00011206
5.12959e-08
0.000112077
5.68239e-08
0.000112096
6.11637e-08
0.000112115
6.44699e-08
0.000112136
6.6912e-08
0.000112157
6.86622e-08
0.000112178
6.98858e-08
0.0001122
7.0733e-08
0.000112222
7.13332e-08
0.000112245
7.17915e-08
0.000112267
7.21863e-08
0.00011229
7.25694e-08
0.000112313
7.29674e-08
0.000112337
7.33835e-08
0.000112361
7.38009e-08
0.000112385
7.41845e-08
0.000112409
7.44858e-08
0.000112434
7.46433e-08
0.00011246
7.45881e-08
0.000112486
7.42438e-08
0.000112512
7.35323e-08
0.000112539
7.23742e-08
0.000112567
7.06943e-08
0.000112595
6.8423e-08
0.000112624
6.5501e-08
0.000112653
6.18816e-08
0.000112682
5.75229e-08
5.24985e-08
0.000112711
0.000115206
3.62742e-09
0.000115211
1.03987e-08
0.00011522
1.82881e-08
0.000115231
2.52127e-08
0.000115244
3.1046e-08
0.00011526
3.58397e-08
0.000115277
3.96616e-08
0.000115295
4.26037e-08
0.000115315
4.47825e-08
0.000115336
4.6326e-08
0.000115357
4.73652e-08
0.000115379
4.80258e-08
0.000115401
4.84228e-08
0.000115424
4.86545e-08
0.000115447
4.87996e-08
0.00011547
4.89144e-08
0.000115494
4.90326e-08
0.000115517
4.91659e-08
0.000115541
4.93064e-08
0.000115566
4.94283e-08
0.00011559
4.94915e-08
0.000115615
4.9444e-08
0.000115641
4.92256e-08
0.000115667
4.87695e-08
0.000115693
4.80069e-08
0.00011572
4.68679e-08
0.000115747
4.52857e-08
0.000115774
4.3198e-08
0.000115802
4.05509e-08
0.00011583
3.72992e-08
0.000115859
3.3411e-08
0.000115887
2.88573e-08
2.37082e-08
0.000115916
0.000118498
1.88264e-09
0.000118503
5.3042e-09
0.000118511
1.01272e-08
0.000118522
1.42887e-08
0.000118535
1.76833e-08
0.000118551
2.03731e-08
0.000118568
2.24185e-08
0.000118587
2.38877e-08
0.000118606
2.48635e-08
0.000118627
2.54367e-08
0.000118649
2.56993e-08
0.000118671
2.57395e-08
0.000118694
2.56375e-08
0.000118717
2.54612e-08
0.000118741
2.52631e-08
0.000118765
2.50776e-08
0.000118789
2.49207e-08
0.000118813
2.47901e-08
0.000118838
2.4667e-08
0.000118863
2.45181e-08
0.000118888
2.42986e-08
0.000118913
2.39546e-08
0.000118939
2.34266e-08
0.000118965
2.26515e-08
0.000118992
2.15661e-08
0.000119019
2.0109e-08
0.000119046
1.8223e-08
0.000119073
1.58571e-08
0.000119101
1.29687e-08
0.000119128
9.5243e-09
0.000119156
5.50218e-09
0.000119184
8.8337e-10
-4.26676e-09
0.000119212
0.000121883
1.6204e-10
0.000121888
2.77171e-10
0.000121896
2.03628e-09
0.000121907
3.4047e-09
0.00012192
4.30521e-09
0.000121936
4.82195e-09
0.000121953
5.01641e-09
0.000121972
4.93769e-09
0.000121993
4.63915e-09
0.000122014
4.17701e-09
0.000122036
3.60637e-09
0.000122059
2.97867e-09
0.000122082
2.33979e-09
0.000122106
1.72734e-09
0.00012213
1.16761e-09
0.000122154
6.73423e-10
0.000122179
2.43074e-10
0.000122204
-1.39257e-10
0.000122229
-5.02839e-10
0.000122254
-8.87637e-10
0.00012228
-1.34302e-09
0.000122306
-1.92381e-09
0.000122332
-2.68913e-09
0.000122358
-3.69814e-09
0.000122385
-5.00944e-09
0.000122412
-6.67725e-09
0.000122439
-8.751e-09
0.000122466
-1.12726e-08
0.000122493
-1.42761e-08
0.00012252
-1.77861e-08
0.000122548
-2.18174e-08
0.000122575
-2.63816e-08
-3.14192e-08
0.000122602
0.000125365
-1.53688e-09
0.00012537
-4.69078e-09
0.000125378
-6.00763e-09
0.000125389
-7.48418e-09
0.000125403
-9.15411e-09
0.000125418
-1.08939e-08
0.000125436
-1.26322e-08
0.000125455
-1.43352e-08
0.000125476
-1.59765e-08
0.000125497
-1.75321e-08
0.00012552
-1.89833e-08
0.000125543
-2.03154e-08
0.000125567
-2.15174e-08
0.000125592
-2.25821e-08
0.000125616
-2.35096e-08
0.000125641
-2.43089e-08
0.000125666
-2.49991e-08
0.000125692
-2.56099e-08
0.000125718
-2.61799e-08
0.000125743
-2.67565e-08
0.000125769
-2.73921e-08
0.000125796
-2.81436e-08
0.000125822
-2.90686e-08
0.000125849
-3.02241e-08
0.000125875
-3.16638e-08
0.000125902
-3.34369e-08
0.000125929
-3.5586e-08
0.000125956
-3.81467e-08
0.000125983
-4.1146e-08
0.000126009
-4.46028e-08
0.000126036
-4.85259e-08
0.000126063
-5.29221e-08
-5.77368e-08
0.000126089
0.000128947
-3.21139e-09
0.000128952
-9.59417e-09
0.00012896
-1.4014e-08
0.000128971
-1.84174e-08
0.000128984
-2.27642e-08
0.000129
-2.68643e-08
0.000129018
-3.06278e-08
0.000129038
-3.40353e-08
0.000129059
-3.70853e-08
0.000129081
-3.97855e-08
0.000129104
-4.21539e-08
0.000129128
-4.42148e-08
0.000129153
-4.59925e-08
0.000129178
-4.75118e-08
0.000129203
-4.87995e-08
0.000129229
-4.98871e-08
0.000129254
-5.08115e-08
0.00012928
-5.16156e-08
0.000129307
-5.23483e-08
0.000129333
-5.3063e-08
0.000129359
-5.38164e-08
0.000129386
-5.46662e-08
0.000129412
-5.56699e-08
0.000129439
-5.6882e-08
0.000129466
-5.8353e-08
0.000129492
-6.01276e-08
0.000129519
-6.22438e-08
0.000129546
-6.47318e-08
0.000129572
-6.76143e-08
0.000129598
-7.09055e-08
0.000129625
-7.46116e-08
0.00012965
-7.8736e-08
-8.32311e-08
0.000129676
0.000132631
-4.84892e-09
0.000132636
-1.44024e-08
0.000132643
-2.19697e-08
0.000132654
-2.94273e-08
0.000132668
-3.6601e-08
0.000132685
-4.31929e-08
0.000132703
-4.90887e-08
0.000132723
-5.42864e-08
0.000132745
-5.88096e-08
0.000132768
-6.26979e-08
0.000132792
-6.60099e-08
0.000132816
-6.8811e-08
0.000132842
-7.11637e-08
0.000132867
-7.31256e-08
0.000132893
-7.47519e-08
0.000132919
-7.60971e-08
0.000132946
-7.72166e-08
0.000132972
-7.81669e-08
0.000132999
-7.90071e-08
0.000133026
-7.97968e-08
0.000133053
-8.05971e-08
0.000133079
-8.14669e-08
0.000133106
-8.24638e-08
0.000133133
-8.36405e-08
0.00013316
-8.50451e-08
0.000133186
-8.67188e-08
0.000133213
-8.86963e-08
0.000133239
-9.10042e-08
0.000133265
-9.36616e-08
0.000133291
-9.66798e-08
0.000133316
-1.00062e-07
0.000133341
-1.03809e-07
-1.07877e-07
0.000133366
0.00013642
-6.41754e-09
0.000136424
-1.90367e-08
0.000136432
-2.98224e-08
0.000136443
-4.05354e-08
0.000136458
-5.07506e-08
0.000136474
-6.00042e-08
0.000136493
-6.81613e-08
0.000136514
-7.5243e-08
0.000136537
-8.12975e-08
0.000136561
-8.6402e-08
0.000136585
-9.06641e-08
0.000136611
-9.41976e-08
0.000136637
-9.71061e-08
0.000136663
-9.94824e-08
0.00013669
-1.01411e-07
0.000136717
-1.02971e-07
0.000136744
-1.04235e-07
0.000136771
-1.05276e-07
0.000136798
-1.0616e-07
0.000136825
-1.06955e-07
0.000136852
-1.07726e-07
0.000136879
-1.08534e-07
0.000136906
-1.09436e-07
0.000136933
-1.10485e-07
0.00013696
-1.11726e-07
0.000136986
-1.13199e-07
0.000137012
-1.14935e-07
0.000137038
-1.16959e-07
0.000137064
-1.19289e-07
0.000137089
-1.21934e-07
0.000137114
-1.24897e-07
0.000137138
-1.28182e-07
-1.31751e-07
0.000137162
0.000140317
-7.84483e-09
0.000140321
-2.33237e-08
0.000140329
-3.74553e-08
0.00014034
-5.1756e-08
0.000140355
-6.53141e-08
0.000140372
-7.74416e-08
0.000140392
-8.80208e-08
0.000140414
-9.71053e-08
0.000140438
-1.0476e-07
0.000140462
-1.11106e-07
0.000140488
-1.16311e-07
0.000140514
-1.20547e-07
0.000140541
-1.23965e-07
0.000140568
-1.267e-07
0.000140596
-1.28867e-07
0.000140623
-1.30573e-07
0.000140651
-1.31911e-07
0.000140679
-1.32965e-07
0.000140706
-1.33815e-07
0.000140734
-1.34533e-07
0.000140761
-1.3519e-07
0.000140789
-1.35847e-07
0.000140816
-1.36562e-07
0.000140843
-1.37388e-07
0.000140869
-1.38368e-07
0.000140896
-1.39541e-07
0.000140922
-1.40936e-07
0.000140947
-1.42577e-07
0.000140973
-1.44478e-07
0.000140997
-1.46649e-07
0.000141021
-1.49091e-07
0.000141045
-1.518e-07
-1.54745e-07
0.000141068
0.000144326
-8.9725e-09
0.000144329
-2.68945e-08
0.000144336
-4.46341e-08
0.000144348
-6.31093e-08
0.000144363
-8.04555e-08
0.000144381
-9.5708e-08
0.000144402
-1.08857e-07
0.000144425
-1.20021e-07
0.00014445
-1.29301e-07
0.000144475
-1.36883e-07
0.000144502
-1.43012e-07
0.000144529
-1.4792e-07
0.000144557
-1.51808e-07
0.000144585
-1.54848e-07
0.000144614
-1.57196e-07
0.000144642
-1.58981e-07
0.000144671
-1.60319e-07
0.000144699
-1.6131e-07
0.000144727
-1.62042e-07
0.000144755
-1.62598e-07
0.000144783
-1.63049e-07
0.000144811
-1.63462e-07
0.000144838
-1.63895e-07
0.000144865
-1.644e-07
0.000144892
-1.6502e-07
0.000144918
-1.65793e-07
0.000144944
-1.66748e-07
0.000144969
-1.67907e-07
0.000144994
-1.69287e-07
0.000145018
-1.70896e-07
0.000145042
-1.72741e-07
0.000145065
-1.74827e-07
-1.77129e-07
0.000145087
0.000148448
-9.4403e-09
0.000148451
-2.90224e-08
0.000148457
-5.09279e-08
0.000148468
-7.45163e-08
0.000148484
-9.63342e-08
0.000148504
-1.15222e-07
0.000148526
-1.31303e-07
0.000148551
-1.44694e-07
0.000148577
-1.55562e-07
0.000148604
-1.64252e-07
0.000148633
-1.71142e-07
0.000148661
-1.76554e-07
0.00014869
-1.80749e-07
0.000148719
-1.83951e-07
0.000148748
-1.86347e-07
0.000148777
-1.88096e-07
0.000148806
-1.8933e-07
0.000148835
-1.9016e-07
0.000148864
-1.90685e-07
0.000148892
-1.90991e-07
0.00014892
-1.91153e-07
0.000148948
-1.91238e-07
0.000148976
-1.91306e-07
0.000149003
-1.91407e-07
0.000149029
-1.91584e-07
0.000149055
-1.91874e-07
0.000149081
-1.92305e-07
0.000149106
-1.92897e-07
0.00014913
-1.93667e-07
0.000149154
-1.94621e-07
0.000149177
-1.9576e-07
0.000149199
-1.97079e-07
-1.98553e-07
0.000149221
0.000152688
-8.23515e-09
0.000152687
-2.82652e-08
0.000152692
-5.61074e-08
0.000152704
-8.60437e-08
0.00015272
-1.12513e-07
0.00015274
-1.35192e-07
0.000152763
-1.54558e-07
0.000152789
-1.70529e-07
0.000152817
-1.83248e-07
0.000152846
-1.93212e-07
0.000152876
-2.00943e-07
0.000152906
-2.0686e-07
0.000152936
-2.11307e-07
0.000152967
-2.14574e-07
0.000152998
-2.16904e-07
0.000153028
-2.18487e-07
0.000153058
-2.19482e-07
0.000153088
-2.20018e-07
0.000153118
-2.20204e-07
0.000153147
-2.20133e-07
0.000153175
-2.19885e-07
0.000153204
-2.19527e-07
0.000153231
-2.19119e-07
0.000153259
-2.1871e-07
0.000153286
-2.18344e-07
0.000153312
-2.18055e-07
0.000153337
-2.17871e-07
0.000153362
-2.17813e-07
0.000153386
-2.17899e-07
0.00015341
-2.18142e-07
0.000153433
-2.1855e-07
0.000153455
-2.19139e-07
-2.19891e-07
0.000153476
0.000157046
-2.88266e-09
0.000157038
-2.03278e-08
0.000157042
-5.97405e-08
0.000157056
-1.00305e-07
0.000157077
-1.33004e-07
0.000157101
-1.59568e-07
0.000157128
-1.81448e-07
0.000157156
-1.98912e-07
0.000157185
-2.12525e-07
0.000157215
-2.23079e-07
0.000157246
-2.31202e-07
0.000157276
-2.37353e-07
0.000157307
-2.41912e-07
0.000157337
-2.452e-07
0.000157368
-2.47475e-07
0.000157398
-2.4894e-07
0.000157429
-2.4976e-07
0.000157459
-2.5007e-07
0.000157488
-2.49982e-07
0.000157518
-2.49591e-07
0.000157547
-2.48978e-07
0.000157576
-2.48212e-07
0.000157604
-2.47351e-07
0.000157632
-2.46446e-07
0.000157659
-2.45537e-07
0.000157685
-2.44661e-07
0.000157711
-2.43843e-07
0.000157737
-2.43106e-07
0.000157761
-2.42463e-07
0.000157785
-2.41922e-07
0.000157808
-2.41482e-07
0.00015783
-2.41134e-07
-2.40868e-07
0.000157851
0.000161526
9.70723e-09
0.000161505
4.88942e-10
0.000161497
-5.19094e-08
0.000161501
-1.04397e-07
0.000161516
-1.47973e-07
0.000161541
-1.83895e-07
0.000161571
-2.12026e-07
0.000161605
-2.3288e-07
0.000161641
-2.48146e-07
0.000161677
-2.59405e-07
0.000161714
-2.67672e-07
0.00016175
-2.73635e-07
0.000161786
-2.77832e-07
0.000161821
-2.80681e-07
0.000161856
-2.82487e-07
0.000161891
-2.83475e-07
0.000161925
-2.83816e-07
0.000161958
-2.83646e-07
0.000161992
-2.83074e-07
0.000162024
-2.82189e-07
0.000162056
-2.81064e-07
0.000162088
-2.79761e-07
0.000162119
-2.78334e-07
0.000162149
-2.76829e-07
0.000162179
-2.75283e-07
0.000162208
-2.7373e-07
0.000162236
-2.72196e-07
0.000162264
-2.70703e-07
0.000162291
-2.6927e-07
0.000162317
-2.67914e-07
0.000162342
-2.66652e-07
0.000162366
-2.65506e-07
-2.64463e-07
0.00016239
0.0001661
6.36552e-08
0.000166096
4.27786e-09
0.000166113
-6.87186e-08
0.000166129
-1.20325e-07
0.000166144
-1.63819e-07
0.000166163
-2.02661e-07
0.000166186
-2.34375e-07
0.000166211
-2.58766e-07
0.000166241
-2.77431e-07
0.000166273
-2.9175e-07
0.000166308
-3.02593e-07
0.000166345
-3.10643e-07
0.000166384
-3.16484e-07
0.000166424
-3.20581e-07
0.000166464
-3.23281e-07
0.000166506
-3.24855e-07
0.000166547
-3.25517e-07
0.000166589
-3.25443e-07
0.000166631
-3.24772e-07
0.000166672
-3.23622e-07
0.000166713
-3.22089e-07
0.000166754
-3.20253e-07
0.000166794
-3.18185e-07
0.000166833
-3.15942e-07
0.000166871
-3.13574e-07
0.000166909
-3.11122e-07
0.000166945
-3.0862e-07
0.00016698
-3.06095e-07
0.000167015
-3.03567e-07