/*--------------------------------*- C++ -*----------------------------------*\
  =========                 |
  \\      /  F ield         | OpenFOAM: The Open Source CFD Toolbox
   \\    /   O peration     | Website:  https://openfoam.org
    \\  /    A nd           | Version:  10
     \\/     M anipulation  |
\*---------------------------------------------------------------------------*/
FoamFile
{
    format      ascii;
    class       volVectorField;
    location    "400";
    object      U;
}
// * * * * * * * * * * * * * * * * * * * * * * * * * * * * * * * * * * * * * //

dimensions      [0 1 -1 0 0 0 0];

internalField   nonuniform List<vector> 
6820
(
(7.31669 -0.387302 0)
(7.3154 -0.335163 0)
(7.2842 -0.203512 0)
(7.2263 -0.111104 0)
(7.16201 -0.0567757 0)
(7.10099 -0.027012 0)
(7.04523 -0.0112789 0)
(6.99493 -0.00308291 0)
(6.94984 0.00113994 0)
(6.90934 0.0032713 0)
(6.87266 0.00431153 0)
(6.83919 0.00479465 0)
(6.8084 0.0050023 0)
(6.77991 0.00508076 0)
(6.75337 0.00510528 0)
(6.72852 0.00511409 0)
(6.70514 0.00512633 0)
(6.68303 0.00515164 0)
(6.66202 0.00519546 0)
(6.64197 0.00526215 0)
(6.62272 0.00535692 0)
(6.60413 0.00548754 0)
(6.58602 0.00566632 0)
(6.56821 0.00591193 0)
(6.55047 0.00626182 0)
(6.53248 0.00674971 0)
(6.51381 0.00747601 0)
(6.49351 0.00884228 0)
(6.47103 0.0105475 0)
(6.44422 0.00969478 0)
(6.40647 0.0383977 0)
(6.34374 0.0134807 0)
(6.32385 -0.0053069 0)
(7.33961 0.100776 0)
(7.35429 0.149919 0)
(7.35848 0.123239 0)
(7.35873 0.0898422 0)
(7.35939 0.0660295 0)
(7.35813 0.0501088 0)
(7.35287 0.0395301 0)
(7.34384 0.0325736 0)
(7.33221 0.0279352 0)
(7.31895 0.0247235 0)
(7.3047 0.0224041 0)
(7.28991 0.0206626 0)
(7.27492 0.0193053 0)
(7.25995 0.0182104 0)
(7.24513 0.0173017 0)
(7.23055 0.0165322 0)
(7.21625 0.0158728 0)
(7.20225 0.0153058 0)
(7.18857 0.014822 0)
(7.1752 0.0144178 0)
(7.16212 0.0140959 0)
(7.1493 0.0138646 0)
(7.13671 0.0137405 0)
(7.12433 0.0137524 0)
(7.1121 0.0139462 0)
(7.09996 0.0144054 0)
(7.08791 0.015261 0)
(7.07576 0.0167457 0)
(7.06397 0.0194612 0)
(7.05057 0.0237609 0)
(7.04618 0.0331488 0)
(7.02379 0.0462977 0)
(7.03893 0.0854942 0)
(7.32714 0.0061191 0)
(7.3243 -0.00160483 0)
(7.33132 -0.00619702 0)
(7.33976 -0.000803615 0)
(7.34682 0.00702036 0)
(7.35217 0.0127444 0)
(7.35541 0.0162498 0)
(7.35657 0.0183395 0)
(7.35606 0.0195144 0)
(7.35424 0.0200761 0)
(7.35134 0.0202517 0)
(7.34757 0.0202019 0)
(7.34313 0.0200274 0)
(7.33815 0.0197897 0)
(7.33277 0.0195279 0)
(7.32708 0.0192674 0)
(7.32113 0.0190256 0)
(7.31498 0.0188147 0)
(7.30868 0.0186453 0)
(7.30223 0.0185278 0)
(7.29566 0.0184749 0)
(7.28896 0.0185032 0)
(7.28212 0.0186365 0)
(7.27511 0.0189097 0)
(7.2679 0.0193778 0)
(7.2604 0.0201182 0)
(7.25257 0.0212853 0)
(7.24425 0.0230558 0)
(7.23554 0.0259483 0)
(7.22572 0.030042 0)
(7.21771 0.0391034 0)
(7.20859 0.0476565 0)
(7.20359 0.0697465 0)
(7.32977 -0.0040148 0)
(7.32631 0.00243709 0)
(7.33112 0.0106537 0)
(7.3368 0.0167826 0)
(7.34146 0.0203306 0)
(7.34579 0.0218342 0)
(7.3496 0.0223116 0)
(7.35258 0.0224286 0)
(7.35474 0.022403 0)
(7.3562 0.0222887 0)
(7.357 0.0221221 0)
(7.35721 0.0219325 0)
(7.3569 0.0217369 0)
(7.35613 0.0215446 0)
(7.35496 0.0213634 0)
(7.35345 0.0212004 0)
(7.35163 0.0210633 0)
(7.34953 0.02096 0)
(7.34718 0.0209002 0)
(7.3446 0.0208959 0)
(7.34179 0.0209631 0)
(7.33875 0.0211237 0)
(7.33548 0.0214083 0)
(7.33195 0.0218607 0)
(7.32814 0.0225464 0)
(7.32401 0.0235586 0)
(7.31953 0.0250556 0)
(7.31464 0.0272386 0)
(7.30945 0.0305372 0)
(7.30391 0.0352136 0)
(7.29919 0.0429457 0)
(7.29556 0.0516928 0)
(7.2938 0.065522 0)
(7.33182 -0.0010039 0)
(7.33001 0.00669881 0)
(7.33262 0.0122926 0)
(7.33614 0.0150682 0)
(7.33946 0.0170794 0)
(7.34298 0.0185639 0)
(7.34644 0.0195335 0)
(7.34948 0.0201828 0)
(7.35207 0.02063 0)
(7.35428 0.0209202 0)
(7.35611 0.0210939 0)
(7.35759 0.0211905 0)
(7.35872 0.0212391 0)
(7.35954 0.0212595 0)
(7.36007 0.0212676 0)
(7.36033 0.0212772 0)
(7.36033 0.0213011 0)
(7.3601 0.0213518 0)
(7.35964 0.0214428 0)
(7.35895 0.0215901 0)
(7.35805 0.0218135 0)
(7.35692 0.0221389 0)
(7.35556 0.0226011 0)
(7.35395 0.0232484 0)
(7.35209 0.0241495 0)
(7.34996 0.0253993 0)
(7.34757 0.027143 0)
(7.34493 0.0295629 0)
(7.34218 0.0329679 0)
(7.33949 0.0375845 0)
(7.33751 0.0440816 0)
(7.33685 0.0516786 0)
(7.3383 0.061434 0)
(7.33247 0.000677382 0)
(7.33166 0.00630799 0)
(7.3335 0.0105382 0)
(7.33633 0.0131564 0)
(7.33913 0.0154257 0)
(7.34207 0.0172032 0)
(7.34502 0.0183667 0)
(7.34774 0.0191293 0)
(7.3502 0.0196632 0)
(7.35244 0.0200386 0)
(7.35447 0.0203002 0)
(7.35628 0.0204877 0)
(7.35787 0.02063 0)
(7.35925 0.0207468 0)
(7.36043 0.0208533 0)
(7.36142 0.0209632 0)
(7.36222 0.0210894 0)
(7.36283 0.0212449 0)
(7.36326 0.0214444 0)
(7.36351 0.0217049 0)
(7.36356 0.0220479 0)
(7.36343 0.022501 0)
(7.3631 0.0231008 0)
(7.36257 0.0238962 0)
(7.36184 0.0249537 0)
(7.36092 0.0263621 0)
(7.35983 0.0282448 0)
(7.35864 0.03075 0)
(7.3575 0.0340851 0)
(7.35664 0.0384021 0)
(7.3565 0.0439618 0)
(7.35768 0.0504587 0)
(7.36089 0.0580125 0)
(7.33271 0.00110163 0)
(7.33242 0.00547219 0)
(7.334 0.00941748 0)
(7.33652 0.0121927 0)
(7.33906 0.0144197 0)
(7.34163 0.0161179 0)
(7.34423 0.0172666 0)
(7.34669 0.0180528 0)
(7.34897 0.0186282 0)
(7.35109 0.0190565 0)
(7.35308 0.0193773 0)
(7.35492 0.0196272 0)
(7.35661 0.019834 0)
(7.35816 0.0200172 0)
(7.35957 0.0201925 0)
(7.36084 0.0203737 0)
(7.36197 0.0205742 0)
(7.36295 0.0208077 0)
(7.3638 0.0210894 0)
(7.3645 0.0214374 0)
(7.36505 0.0218738 0)
(7.36545 0.0224266 0)
(7.3657 0.0231318 0)
(7.3658 0.0240361 0)
(7.36576 0.0252005 0)
(7.3656 0.0267019 0)
(7.36537 0.0286389 0)
(7.36516 0.0311224 0)
(7.3651 0.0342828 0)
(7.36543 0.0382066 0)
(7.3665 0.0429709 0)
(7.36877 0.0483849 0)
(7.37273 0.0542274 0)
(7.33286 0.00126485 0)
(7.33289 0.00502039 0)
(7.33427 0.00865517 0)
(7.33651 0.0113288 0)
(7.33885 0.0134035 0)
(7.34121 0.0150211 0)
(7.34359 0.0161837 0)
(7.34588 0.0170121 0)
(7.34803 0.0176292 0)
(7.35005 0.0180989 0)
(7.35195 0.0184617 0)
(7.35375 0.0187534 0)
(7.35543 0.0190023 0)
(7.35701 0.0192291 0)
(7.35848 0.01945 0)
(7.35984 0.0196797 0)
(7.3611 0.019932 0)
(7.36225 0.0202212 0)
(7.36329 0.0205629 0)
(7.36422 0.0209753 0)
(7.36503 0.0214802 0)
(7.36574 0.022105 0)
(7.36633 0.0228835 0)
(7.36682 0.0238581 0)
(7.36722 0.0250814 0)
(7.36758 0.0266164 0)
(7.36794 0.0285373 0)
(7.3684 0.0309206 0)
(7.36909 0.0338404 0)
(7.37021 0.0373304 0)
(7.37203 0.0413742 0)
(7.37487 0.0457947 0)
(7.37905 0.0503051 0)
(7.33295 0.00133287 0)
(7.33316 0.00465907 0)
(7.33439 0.00791735 0)
(7.33637 0.0104355 0)
(7.33853 0.012405 0)
(7.34073 0.0139733 0)
(7.34296 0.0151471 0)
(7.34512 0.0160064 0)
(7.34718 0.0166547 0)
(7.34912 0.017156 0)
(7.35096 0.0175511 0)
(7.35271 0.0178748 0)
(7.35437 0.0181553 0)
(7.35594 0.018414 0)
(7.35742 0.0186682 0)
(7.35881 0.0189331 0)
(7.36012 0.019223 0)
(7.36134 0.0195525 0)
(7.36248 0.0199374 0)
(7.36353 0.0203955 0)
(7.3645 0.020948 0)
(7.36538 0.0216204 0)
(7.3662 0.0224432 0)
(7.36695 0.0234532 0)
(7.36767 0.0246937 0)
(7.36839 0.0262133 0)
(7.36917 0.0280642 0)
(7.3701 0.0302937 0)
(7.37131 0.0329357 0)
(7.37294 0.0359858 0)
(7.37521 0.0393825 0)
(7.37831 0.0429563 0)
(7.38245 0.0464587 0)
(7.333 0.00132683 0)
(7.33331 0.00430751 0)
(7.33442 0.00722455 0)
(7.33618 0.00958867 0)
(7.33816 0.0114666 0)
(7.34022 0.0129778 0)
(7.34231 0.0141419 0)
(7.34437 0.0150171 0)
(7.34634 0.0156882 0)
(7.34823 0.0162152 0)
(7.35003 0.0166375 0)
(7.35174 0.016988 0)
(7.35338 0.0172948 0)
(7.35493 0.0175795 0)
(7.35641 0.01786 0)
(7.35782 0.018152 0)
(7.35916 0.0184702 0)
(7.36042 0.0188293 0)
(7.36162 0.0192449 0)
(7.36275 0.0197341 0)
(7.36382 0.0203169 0)
(7.36484 0.021016 0)
(7.36581 0.0218582 0)
(7.36675 0.0228739 0)
(7.3677 0.024097 0)
(7.36869 0.0255628 0)
(7.36978 0.0273045 0)
(7.37106 0.0293468 0)
(7.37262 0.0316958 0)
(7.37458 0.0343234 0)
(7.3771 0.0371515 0)
(7.38028 0.0400273 0)
(7.38426 0.0427628 0)
(7.33302 0.00127452 0)
(7.33339 0.00396921 0)
(7.3344 0.00659207 0)
(7.33597 0.00879563 0)
(7.33779 0.0105757 0)
(7.33971 0.0120214 0)
(7.34167 0.0131618 0)
(7.34363 0.0140413 0)
(7.34553 0.0147269 0)
(7.34736 0.0152727 0)
(7.34912 0.0157163 0)
(7.35081 0.0160889 0)
(7.35243 0.0164173 0)
(7.35397 0.0167235 0)
(7.35546 0.0170253 0)
(7.35688 0.0173387 0)
(7.35824 0.0176783 0)
(7.35954 0.0180588 0)
(7.36078 0.0184952 0)
(7.36198 0.0190035 0)
(7.36313 0.0196018 0)
(7.36425 0.0203102 0)
(7.36535 0.0211508 0)
(7.36645 0.0221479 0)
(7.36758 0.0233263 0)
(7.36878 0.0247096 0)
(7.37011 0.0263163 0)
(7.37163 0.0281537 0)
(7.37343 0.0302108 0)
(7.3756 0.0324472 0)
(7.37823 0.0347834 0)
(7.38139 0.0370896 0)
(7.38517 0.0392328 0)
(7.33303 0.00119805 0)
(7.33341 0.00364511 0)
(7.33434 0.00601028 0)
(7.33576 0.00804924 0)
(7.33743 0.0097263 0)
(7.33921 0.0111023 0)
(7.34106 0.0122087 0)
(7.34292 0.0130808 0)
(7.34475 0.0137715 0)
(7.34652 0.0143282 0)
(7.34825 0.0147864 0)
(7.34991 0.0151754 0)
(7.35151 0.0155206 0)
(7.35305 0.0158434 0)
(7.35454 0.0161617 0)
(7.35597 0.016491 0)
(7.35736 0.016846 0)
(7.35869 0.0172407 0)
(7.35998 0.0176891 0)
(7.36124 0.0182061 0)
(7.36247 0.0188074 0)
(7.36368 0.01951 0)
(7.36489 0.0203316 0)
(7.36612 0.0212905 0)
(7.3674 0.0224036 0)
(7.36877 0.0236848 0)
(7.37028 0.0251411 0)
(7.37198 0.0267683 0)
(7.37394 0.0285454 0)
(7.37622 0.0304278 0)
(7.37889 0.0323428 0)
(7.38198 0.0341842 0)
(7.38554 0.0358621 0)
(7.33304 0.00111022 0)
(7.33341 0.00333382 0)
(7.33427 0.00546997 0)
(7.33555 0.007346 0)
(7.33709 0.00891639 0)
(7.33875 0.0102187 0)
(7.34049 0.0112823 0)
(7.34226 0.0121364 0)
(7.34401 0.0128228 0)
(7.34574 0.0133826 0)
(7.34742 0.0138484 0)
(7.34905 0.0142476 0)
(7.35064 0.0146041 0)
(7.35218 0.0149383 0)
(7.35367 0.0152677 0)
(7.35512 0.0156075 0)
(7.35652 0.0159716 0)
(7.35789 0.0163733 0)
(7.35923 0.0168256 0)
(7.36054 0.0173416 0)
(7.36183 0.0179346 0)
(7.36313 0.0186185 0)
(7.36443 0.0194068 0)
(7.36578 0.0203122 0)
(7.36718 0.0213451 0)
(7.36869 0.0225116 0)
(7.37033 0.0238106 0)
(7.37216 0.0252307 0)
(7.37422 0.026746 0)
(7.37657 0.0283131 0)
(7.37922 0.029869 0)
(7.38221 0.0313291 0)
(7.38557 0.0326354 0)
(7.33304 0.00101817 0)
(7.3334 0.00303495 0)
(7.33419 0.00496469 0)
(7.33536 0.00668239 0)
(7.33677 0.00814323 0)
(7.33833 0.00936798 0)
(7.33997 0.0103813 0)
(7.34165 0.0112079 0)
(7.34333 0.0118814 0)
(7.345 0.0124365 0)
(7.34664 0.012903 0)
(7.34825 0.0133061 0)
(7.34982 0.0136679 0)
(7.35135 0.0140079 0)
(7.35285 0.0143428 0)
(7.35431 0.0146871 0)
(7.35573 0.015054 0)
(7.35713 0.0154557 0)
(7.35851 0.0159039 0)
(7.35987 0.0164098 0)
(7.36123 0.0169845 0)
(7.3626 0.0176386 0)
(7.36399 0.0183819 0)
(7.36543 0.0192222 0)
(7.36694 0.0201647 0)
(7.36855 0.0212097 0)
(7.3703 0.0223507 0)
(7.37222 0.0235721 0)
(7.37434 0.0248471 0)
(7.3767 0.0261357 0)
(7.37931 0.0273854 0)
(7.38219 0.0285303 0)
(7.38536 0.0295346 0)
(7.33304 0.000925835 0)
(7.33338 0.00274841 0)
(7.33411 0.00448923 0)
(7.33519 0.0060542 0)
(7.33649 0.00740357 0)
(7.33795 0.00854701 0)
(7.33949 0.00950386 0)
(7.34109 0.0102949 0)
(7.34271 0.0109473 0)
(7.34433 0.0114905 0)
(7.34593 0.0119508 0)
(7.34751 0.0123512 0)
(7.34906 0.0127124 0)
(7.35059 0.0130524 0)
(7.35208 0.0133869 0)
(7.35355 0.0137297 0)
(7.355 0.0140929 0)
(7.35643 0.0144877 0)
(7.35784 0.0149241 0)
(7.35925 0.0154116 0)
(7.36067 0.0159591 0)
(7.3621 0.0165741 0)
(7.36356 0.017263 0)
(7.36508 0.01803 0)
(7.36668 0.0188758 0)
(7.36837 0.0197968 0)
(7.37019 0.0207832 0)
(7.37216 0.0218177 0)
(7.37431 0.0228744 0)
(7.37666 0.0239183 0)
(7.37921 0.0249066 0)
(7.38198 0.0257884 0)
(7.38497 0.0265429 0)
(7.33303 0.000835287 0)
(7.33336 0.00247391 0)
(7.33404 0.00403927 0)
(7.33503 0.00545721 0)
(7.33624 0.00669412 0)
(7.3376 0.00775292 0)
(7.33906 0.00864789 0)
(7.34059 0.00939627 0)
(7.34215 0.0100202 0)
(7.34371 0.0105442 0)
(7.34528 0.0109916 0)
(7.34683 0.0113832 0)
(7.34836 0.0117377 0)
(7.34988 0.0120718 0)
(7.35138 0.0124001 0)
(7.35286 0.0127354 0)
(7.35432 0.0130886 0)
(7.35577 0.0134697 0)
(7.35722 0.0138872 0)
(7.35867 0.014349 0)
(7.36013 0.0148614 0)
(7.36162 0.0154297 0)
(7.36315 0.0160573 0)
(7.36473 0.0167452 0)
(7.36638 0.0174913 0)
(7.36813 0.0182891 0)
(7.37 0.0191273 0)
(7.372 0.0199882 0)
(7.37415 0.0208483 0)
(7.37647 0.0216776 0)
(7.37896 0.0224417 0)
(7.38161 0.0231016 0)
(7.38445 0.0236464 0)
(7.33303 0.000747481 0)
(7.33334 0.00221089 0)
(7.33397 0.00361124 0)
(7.33489 0.00488743 0)
(7.33602 0.00601154 0)
(7.3373 0.00698277 0)
(7.33868 0.00781108 0)
(7.34014 0.00851047 0)
(7.34164 0.00909902 0)
(7.34316 0.00959723 0)
(7.34469 0.0100253 0)
(7.34621 0.0104018 0)
(7.34773 0.0107436 0)
(7.34924 0.0110661 0)
(7.35073 0.0113824 0)
(7.35222 0.0117042 0)
(7.35369 0.0120415 0)
(7.35517 0.0124026 0)
(7.35665 0.0127949 0)
(7.35813 0.0132243 0)
(7.35963 0.0136952 0)
(7.36117 0.0142109 0)
(7.36274 0.0147722 0)
(7.36437 0.0153779 0)
(7.36607 0.0160237 0)
(7.36786 0.0167017 0)
(7.36975 0.0173996 0)
(7.37176 0.0181011 0)
(7.3739 0.0187848 0)
(7.37617 0.0194258 0)
(7.37858 0.0199969 0)
(7.38112 0.0204678 0)
(7.38381 0.0208343 0)
(7.33303 0.000662737 0)
(7.33332 0.00195852 0)
(7.3339 0.0032021 0)
(7.33476 0.00434115 0)
(7.33582 0.00535255 0)
(7.33703 0.00623363 0)
(7.33834 0.00699099 0)
(7.33974 0.00763575 0)
(7.34118 0.00818262 0)
(7.34266 0.00864866 0)
(7.34415 0.00905119 0)
(7.34565 0.0094066 0)
(7.34715 0.00973002 0)
(7.34865 0.0100351 0)
(7.35014 0.0103339 0)
(7.35163 0.0106367 0)
(7.35312 0.0109523 0)
(7.35462 0.0112879 0)
(7.35611 0.0116492 0)
(7.35763 0.0120406 0)
(7.35916 0.012465 0)
(7.36073 0.0129235 0)
(7.36234 0.0134155 0)
(7.364 0.0139378 0)
(7.36573 0.0144848 0)
(7.36754 0.0150478 0)
(7.36944 0.0156148 0)
(7.37145 0.0161705 0)
(7.37356 0.0166967 0)
(7.37578 0.0171727 0)
(7.37811 0.0175766 0)
(7.38053 0.0178855 0)
(7.38309 0.0180988 0)
(7.33303 0.000581022 0)
(7.3333 0.00171581 0)
(7.33385 0.00280918 0)
(7.33465 0.00381497 0)
(7.33564 0.00471389 0)
(7.33679 0.00550256 0)
(7.33804 0.0061851 0)
(7.33938 0.00677011 0)
(7.34078 0.00726952 0)
(7.34221 0.00769743 0)
(7.34368 0.00806855 0)
(7.34515 0.00839714 0)
(7.34663 0.00869654 0)
(7.34812 0.00897887 0)
(7.34961 0.00925478 0)
(7.35111 0.00953335 0)
(7.3526 0.00982208 0)
(7.35411 0.0101269 0)
(7.35563 0.0104524 0)
(7.35716 0.0108014 0)
(7.35872 0.0111753 0)
(7.36031 0.0115738 0)
(7.36195 0.0119948 0)
(7.36363 0.0124342 0)
(7.36538 0.0128853 0)
(7.3672 0.0133395 0)
(7.36909 0.0137852 0)
(7.37107 0.0142088 0)
(7.37314 0.0145946 0)
(7.3753 0.0149256 0)
(7.37755 0.0151846 0)
(7.37987 0.0153536 0)
(7.3823 0.0154345 0)
(7.33303 0.000502116 0)
(7.33328 0.00148167 0)
(7.3338 0.00243008 0)
(7.33455 0.00330576 0)
(7.33549 0.00409242 0)
(7.33658 0.00478666 0)
(7.33778 0.00539081 0)
(7.33907 0.0059114 0)
(7.34042 0.00635802 0)
(7.34182 0.00674222 0)
(7.34325 0.00707635 0)
(7.3447 0.00737267 0)
(7.34617 0.00764276 0)
(7.34765 0.00789718 0)
(7.34913 0.00814523 0)
(7.35063 0.00839473 0)
(7.35213 0.00865197 0)
(7.35365 0.00892172 0)
(7.35518 0.00920724 0)
(7.35673 0.00951024 0)
(7.35831 0.0098309 0)
(7.35991 0.0101678 0)
(7.36156 0.0105178 0)
(7.36326 0.0108759 0)
(7.36501 0.0112354 0)
(7.36682 0.0115875 0)
(7.3687 0.0119218 0)
(7.37065 0.0122261 0)
(7.37267 0.0124871 0)
(7.37476 0.012691 0)
(7.37692 0.0128239 0)
(7.37914 0.0128719 0)
(7.38145 0.0128381 0)
(7.33303 0.000425705 0)
(7.33326 0.00125495 0)
(7.33375 0.00206261 0)
(7.33447 0.00281062 0)
(7.33536 0.00348512 0)
(7.33639 0.004083 0)
(7.33755 0.00460546 0)
(7.33879 0.00505732 0)
(7.3401 0.0054462 0)
(7.34147 0.00578149 0)
(7.34287 0.00607342 0)
(7.34431 0.00633234 0)
(7.34576 0.00656814 0)
(7.34723 0.00678989 0)
(7.34871 0.00700552 0)
(7.3502 0.00722161 0)
(7.35171 0.0074433 0)
(7.35323 0.00767425 0)
(7.35477 0.00791662 0)
(7.35633 0.00817108 0)
(7.35791 0.00843684 0)
(7.35953 0.00871157 0)
(7.36118 0.00899147 0)
(7.36288 0.00927122 0)
(7.36462 0.00954394 0)
(7.36642 0.00980139 0)
(7.36827 0.010034 0)
(7.37018 0.0102311 0)
(7.37215 0.0103816 0)
(7.37417 0.010474 0)
(7.37625 0.0104974 0)
(7.37836 0.0104406 0)
(7.38056 0.0103075 0)
(7.33302 0.000351435 0)
(7.33325 0.00103451 0)
(7.33371 0.00170472 0)
(7.33439 0.00232686 0)
(7.33524 0.00288904 0)
(7.33623 0.00338869 0)
(7.33735 0.00382632 0)
(7.33855 0.00420543 0)
(7.33983 0.00453198 0)
(7.34116 0.00481351 0)
(7.34254 0.00505837 0)
(7.34396 0.00527512 0)
(7.34539 0.00547206 0)
(7.34685 0.00565678 0)
(7.34833 0.00583589 0)
(7.34982 0.00601478 0)
(7.35133 0.00619749 0)
(7.35285 0.00638666 0)
(7.35439 0.00658348 0)
(7.35596 0.00678776 0)
(7.35755 0.0069979 0)
(7.35916 0.00721098 0)
(7.36081 0.00742275 0)
(7.3625 0.00762771 0)
(7.36423 0.00781918 0)
(7.366 0.00798943 0)
(7.36782 0.00812986 0)
(7.36968 0.00823128 0)
(7.37159 0.00828421 0)
(7.37354 0.0082793 0)
(7.37553 0.00820775 0)
(7.37755 0.00806072 0)
(7.37963 0.00784211 0)
(7.33302 0.000278946 0)
(7.33324 0.000819253 0)
(7.33368 0.00135451 0)
(7.33433 0.00185193 0)
(7.33514 0.00230133 0)
(7.3361 0.00270081 0)
(7.33717 0.00305055 0)
(7.33834 0.0033531 0)
(7.33959 0.00361305 0)
(7.3409 0.00383632 0)
(7.34226 0.0040296 0)
(7.34365 0.00419982 0)
(7.34508 0.00435372 0)
(7.34653 0.00449751 0)
(7.348 0.00463652 0)
(7.34948 0.00477501 0)
(7.35099 0.00491597 0)
(7.35251 0.0050611 0)
(7.35405 0.00521077 0)
(7.35562 0.00536406 0)
(7.3572 0.00551877 0)
(7.35881 0.00567153 0)
(7.36046 0.00581786 0)
(7.36213 0.00595227 0)
(7.36383 0.00606836 0)
(7.36558 0.006159 0)
(7.36735 0.00621654 0)
(7.36917 0.00623298 0)
(7.37101 0.00620037 0)
(7.37289 0.00611095 0)
(7.37479 0.00595763 0)
(7.37672 0.00573327 0)
(7.37869 0.00544168 0)
(7.33302 0.00020789 0)
(7.33323 0.000608126 0)
(7.33365 0.00101021 0)
(7.33427 0.00138344 0)
(7.33506 0.00171919 0)
(7.33598 0.00201638 0)
(7.33702 0.00227521 0)
(7.33816 0.00249753 0)
(7.33939 0.00268684 0)
(7.34068 0.00284769 0)
(7.34201 0.00298526 0)
(7.34339 0.00310498 0)
(7.34481 0.00321214 0)
(7.34625 0.0033116 0)
(7.34771 0.00340749 0)
(7.34919 0.00350296 0)
(7.35069 0.00360005 0)
(7.35221 0.00369962 0)
(7.35375 0.0038013 0)
(7.3553 0.00390359 0)
(7.35688 0.00400383 0)
(7.35848 0.00409836 0)
(7.36011 0.0041826 0)
(7.36176 0.00425117 0)
(7.36344 0.00429804 0)
(7.36515 0.00431669 0)
(7.36688 0.00430029 0)
(7.36864 0.00424197 0)
(7.37042 0.00413494 0)
(7.37222 0.00397278 0)
(7.37404 0.00374971 0)
(7.37587 0.00345992 0)
(7.37774 0.00310698 0)
(7.33302 0.000137952 0)
(7.33322 0.000400183 0)
(7.33362 0.000670188 0)
(7.33422 0.000919119 0)
(7.33498 0.00113985 0)
(7.33588 0.00133237 0)
(7.3369 0.00149716 0)
(7.33801 0.00163567 0)
(7.33922 0.00175052 0)
(7.34049 0.00184507 0)
(7.34181 0.00192318 0)
(7.34318 0.00198886 0)
(7.34458 0.00204606 0)
(7.34601 0.00209833 0)
(7.34746 0.00214864 0)
(7.34894 0.00219911 0)
(7.35044 0.00225089 0)
(7.35195 0.00230405 0)
(7.35348 0.00235763 0)
(7.35503 0.0024096 0)
(7.35659 0.00245699 0)
(7.35818 0.00249595 0)
(7.35978 0.0025219 0)
(7.36141 0.00252964 0)
(7.36306 0.00251355 0)
(7.36472 0.00246766 0)
(7.3664 0.00238596 0)
(7.36811 0.00226242 0)
(7.36982 0.0020913 0)
(7.37155 0.00186722 0)
(7.37329 0.00158542 0)
(7.37502 0.00124115 0)
(7.37679 0.000837673 0)
(7.33302 6.8873e-05 0)
(7.33321 0.000194623 0)
(7.3336 0.000332999 0)
(7.33418 0.000456799 0)
(7.33492 0.000560546 0)
(7.33579 0.000645588 0)
(7.33679 0.000713029 0)
(7.33789 0.000764138 0)
(7.33908 0.000800838 0)
(7.34033 0.000825509 0)
(7.34164 0.000840775 0)
(7.343 0.000849345 0)
(7.34439 0.000853846 0)
(7.34582 0.000856624 0)
(7.34727 0.000859519 0)
(7.34874 0.000863672 0)
(7.35022 0.000869387 0)
(7.35173 0.000876065 0)
(7.35325 0.000882175 0)
(7.35479 0.000885297 0)
(7.35634 0.000882197 0)
(7.3579 0.000868932 0)
(7.35948 0.000840979 0)
(7.36108 0.000793372 0)
(7.36269 0.000720862 0)
(7.36431 0.000618049 0)
(7.36594 0.00047955 0)
(7.36759 0.000300125 0)
(7.36924 7.48386e-05 0)
(7.37089 -0.000200837 0)
(7.37255 -0.000530865 0)
(7.37419 -0.000919168 0)
(7.37587 -0.00136282 0)
(7.33302 4.85499e-07 0)
(7.3332 -9.11214e-06 0)
(7.33358 -2.54713e-06 0)
(7.33414 -5.54082e-06 0)
(7.33486 -2.15612e-05 0)
(7.33572 -4.73725e-05 0)
(7.3367 -8.09136e-05 0)
(7.33779 -0.000120894 0)
(7.33897 -0.000165917 0)
(7.34021 -0.00021446 0)
(7.34152 -0.000265018 0)
(7.34287 -0.000316151 0)
(7.34425 -0.000366515 0)
(7.34567 -0.000414975 0)
(7.34711 -0.000460784 0)
(7.34858 -0.000503752 0)
(7.35006 -0.000544364 0)
(7.35155 -0.00058386 0)
(7.35306 -0.000624252 0)
(7.35458 -0.000668288 0)
(7.35612 -0.000719388 0)
(7.35766 -0.000781523 0)
(7.35921 -0.000859112 0)
(7.36078 -0.000956862 0)
(7.36235 -0.00107966 0)
(7.36392 -0.00123241 0)
(7.36551 -0.00141993 0)
(7.36709 -0.00164682 0)
(7.36867 -0.00191732 0)
(7.37025 -0.0022353 0)
(7.37183 -0.00260406 0)
(7.37339 -0.00302686 0)
(7.37497 -0.00350109 0)
(7.33302 -6.72131e-05 0)
(7.33319 -0.000211172 0)
(7.33356 -0.000337231 0)
(7.33411 -0.000469754 0)
(7.33481 -0.000609418 0)
(7.33566 -0.000750257 0)
(7.33663 -0.000888866 0)
(7.33771 -0.00102381 0)
(7.33888 -0.0011541 0)
(7.34012 -0.00127899 0)
(7.34142 -0.001398 0)
(7.34277 -0.00151092 0)
(7.34416 -0.00161764 0)
(7.34557 -0.00171819 0)
(7.34701 -0.00181288 0)
(7.34847 -0.00190246 0)
(7.34994 -0.00198821 0)
(7.35143 -0.00207197 0)
(7.35292 -0.00215623 0)
(7.35443 -0.00224405 0)
(7.35594 -0.00233898 0)
(7.35746 -0.00244504 0)
(7.35898 -0.0025665 0)
(7.36051 -0.00270787 0)
(7.36204 -0.00287368 0)
(7.36357 -0.00306842 0)
(7.3651 -0.00329642 0)
(7.36663 -0.00356174 0)
(7.36815 -0.00386808 0)
(7.36966 -0.00421874 0)
(7.37115 -0.00461656 0)
(7.37263 -0.00506426 0)
(7.37412 -0.00555964 0)
(7.33302 -0.000133926 0)
(7.33319 -0.000410974 0)
(7.33354 -0.000671151 0)
(7.33407 -0.000937441 0)
(7.33476 -0.00120617 0)
(7.33561 -0.00146734 0)
(7.33658 -0.00171579 0)
(7.33765 -0.00194983 0)
(7.33882 -0.0021688 0)
(7.34007 -0.00237274 0)
(7.34137 -0.00256247 0)
(7.34272 -0.00273916 0)
(7.3441 -0.00290405 0)
(7.34552 -0.00305834 0)
(7.34695 -0.00320337 0)
(7.34841 -0.00334075 0)
(7.34987 -0.00347243 0)
(7.35135 -0.00360077 0)
(7.35283 -0.00372863 0)
(7.35432 -0.00385924 0)
(7.35581 -0.00399629 0)
(7.35731 -0.0041437 0)
(7.3588 -0.00430566 0)
(7.36029 -0.0044864 0)
(7.36178 -0.00469017 0)
(7.36327 -0.00492107 0)
(7.36474 -0.00518302 0)
(7.36621 -0.00547963 0)
(7.36767 -0.00581417 0)
(7.36911 -0.00618949 0)
(7.37053 -0.00660799 0)
(7.37193 -0.00707193 0)
(7.37333 -0.00757933 0)
(7.33302 -0.00019878 0)
(7.33317 -0.000606575 0)
(7.33351 -0.00100328 0)
(7.33402 -0.00140989 0)
(7.33471 -0.00181518 0)
(7.33555 -0.00220336 0)
(7.33653 -0.00256755 0)
(7.33761 -0.00290579 0)
(7.33879 -0.00321723 0)
(7.34004 -0.00350222 0)
(7.34135 -0.00376264 0)
(7.34271 -0.00400116 0)
(7.34409 -0.00422058 0)
(7.34551 -0.00442362 0)
(7.34695 -0.00461295 0)
(7.3484 -0.00479133 0)
(7.34985 -0.00496163 0)
(7.35132 -0.00512689 0)
(7.35279 -0.00529042 0)
(7.35426 -0.00545577 0)
(7.35573 -0.0056267 0)
(7.3572 -0.00580714 0)
(7.35866 -0.00600112 0)
(7.36012 -0.00621266 0)
(7.36157 -0.00644569 0)
(7.36301 -0.00670397 0)
(7.36444 -0.00699103 0)
(7.36585 -0.00731007 0)
(7.36724 -0.00766398 0)
(7.36862 -0.00805524 0)
(7.36997 -0.00848596 0)
(7.37129 -0.00895815 0)
(7.37262 -0.0094703 0)
(7.33302 -0.000259742 0)
(7.33316 -0.000793367 0)
(7.33346 -0.00133058 0)
(7.33396 -0.00188829 0)
(7.33464 -0.00244106 0)
(7.33549 -0.00296408 0)
(7.33647 -0.00344946 0)
(7.33757 -0.00389679 0)
(7.33877 -0.00430659 0)
(7.34004 -0.00468058 0)
(7.34137 -0.00502186 0)
(7.34274 -0.00533411 0)
(7.34414 -0.00562085 0)
(7.34556 -0.00588547 0)
(7.347 -0.00613134 0)
(7.34845 -0.00636181 0)
(7.3499 -0.00658025 0)
(7.35136 -0.00679019 0)
(7.35282 -0.00699525 0)
(7.35427 -0.00719923 0)
(7.35572 -0.00740604 0)
(7.35716 -0.00761967 0)
(7.35859 -0.00784411 0)
(7.36002 -0.00808329 0)
(7.36142 -0.00834097 0)
(7.36282 -0.00862072 0)
(7.36419 -0.00892583 0)
(7.36555 -0.00925927 0)
(7.36688 -0.00962364 0)
(7.36819 -0.0100212 0)
(7.36948 -0.0104537 0)
(7.37073 -0.0109228 0)
(7.37197 -0.0114269 0)
(7.33301 -0.000312388 0)
(7.33312 -0.000961821 0)
(7.33339 -0.001646 0)
(7.33386 -0.00237173 0)
(7.33454 -0.00309002 0)
(7.3354 -0.00376309 0)
(7.33641 -0.00437805 0)
(7.33753 -0.00493109 0)
(7.33875 -0.00542249 0)
(7.34004 -0.00585771 0)
(7.34138 -0.00624519 0)
(7.34277 -0.00659327 0)
(7.34418 -0.0069091 0)
(7.34561 -0.00719882 0)
(7.34706 -0.0074678 0)
(7.34851 -0.00772071 0)
(7.34996 -0.00796174 0)
(7.35142 -0.00819475 0)
(7.35286 -0.00842348 0)
(7.3543 -0.0086516 0)
(7.35573 -0.00888274 0)
(7.35715 -0.00912052 0)
(7.35856 -0.0093685 0)
(7.35995 -0.00963013 0)
(7.36132 -0.00990871 0)
(7.36267 -0.0102073 0)
(7.364 -0.0105288 0)
(7.36531 -0.0108758 0)
(7.36659 -0.0112504 0)
(7.36784 -0.0116547 0)
(7.36906 -0.0120902 0)
(7.37025 -0.0125587 0)
(7.37142 -0.0130592 0)
(7.33301 -0.000346284 0)
(7.33306 -0.00109403 0)
(7.33325 -0.00194208 0)
(7.33368 -0.00285624 0)
(7.33436 -0.00374949 0)
(7.33525 -0.00459079 0)
(7.33631 -0.00538104 0)
(7.33748 -0.00611373 0)
(7.33876 -0.00677893 0)
(7.34009 -0.0073746 0)
(7.34148 -0.00790544 0)
(7.34289 -0.00837825 0)
(7.34432 -0.00880016 0)
(7.34577 -0.00917836 0)
(7.34721 -0.00951994 0)
(7.34866 -0.00983153 0)
(7.35011 -0.0101192 0)
(7.35155 -0.0103887 0)
(7.35298 -0.0106453 0)
(7.3544 -0.0108938 0)
(7.3558 -0.0111391 0)
(7.35719 -0.0113856 0)
(7.35856 -0.0116373 0)
(7.35991 -0.0118981 0)
(7.36124 -0.0121716 0)
(7.36255 -0.0124611 0)
(7.36383 -0.0127695 0)
(7.36508 -0.0130993 0)
(7.36631 -0.0134526 0)
(7.3675 -0.0138314 0)
(7.36866 -0.0142369 0)
(7.36978 -0.0146703 0)
(7.37088 -0.0151303 0)
(7.33299 -0.000335234 0)
(7.33293 -0.00114107 0)
(7.33299 -0.00221468 0)
(7.33337 -0.00339948 0)
(7.33406 -0.00447336 0)
(7.33496 -0.00537515 0)
(7.33601 -0.00613551 0)
(7.3372 -0.00678781 0)
(7.3385 -0.00735569 0)
(7.33987 -0.00785963 0)
(7.3413 -0.00831611 0)
(7.34275 -0.00873657 0)
(7.34422 -0.00912885 0)
(7.3457 -0.00949874 0)
(7.34718 -0.00985064 0)
(7.34865 -0.010188 0)
(7.35012 -0.0105135 0)
(7.35157 -0.0108301 0)
(7.353 -0.0111402 0)
(7.35442 -0.0114464 0)
(7.35582 -0.0117516 0)
(7.3572 -0.0120584 0)
(7.35855 -0.0123696 0)
(7.35988 -0.0126879 0)
(7.36119 -0.0130159 0)
(7.36246 -0.0133561 0)
(7.36371 -0.0137107 0)
(7.36493 -0.0140819 0)
(7.36611 -0.0144715 0)
(7.36726 -0.0148811 0)
(7.36838 -0.0153122 0)
(7.36945 -0.0157662 0)
(7.37052 -0.016243 0)
(7.33295 -0.000235039 0)
(7.33261 -0.000993398 0)
(7.3324 -0.00228026 0)
(7.33275 -0.00390984 0)
(7.33362 -0.00564116 0)
(7.33474 -0.00732247 0)
(7.33596 -0.00884126 0)
(7.33726 -0.0101355 0)
(7.33862 -0.0112037 0)
(7.34001 -0.0120756 0)
(7.34143 -0.0127842 0)
(7.34285 -0.0133589 0)
(7.34429 -0.0138267 0)
(7.34573 -0.0142111 0)
(7.34717 -0.0145318 0)
(7.3486 -0.0148046 0)
(7.35003 -0.0150422 0)
(7.35144 -0.0152547 0)
(7.35285 -0.0154506 0)
(7.35424 -0.0156367 0)
(7.35561 -0.0158186 0)
(7.35697 -0.0160013 0)
(7.35831 -0.0161887 0)
(7.35962 -0.0163844 0)
(7.36091 -0.0165916 0)
(7.36217 -0.0168128 0)
(7.3634 -0.0170502 0)
(7.3646 -0.0173057 0)
(7.36577 -0.017581 0)
(7.3669 -0.017877 0)
(7.368 -0.0181947 0)
(7.36905 -0.0185345 0)
(7.37007 -0.0188953 0)
(7.3329 0.000100825 0)
(7.33206 -0.00094837 0)
(7.33123 -0.00227566 0)
(7.33107 -0.00295103 0)
(7.33155 -0.00322696 0)
(7.33249 -0.0035624 0)
(7.33377 -0.00406867 0)
(7.33527 -0.0046841 0)
(7.33688 -0.00536219 0)
(7.33853 -0.00608394 0)
(7.34019 -0.00683076 0)
(7.34185 -0.0075826 0)
(7.3435 -0.00832428 0)
(7.34513 -0.00904637 0)
(7.34674 -0.00974321 0)
(7.34833 -0.0104117 0)
(7.34989 -0.0110506 0)
(7.35144 -0.0116603 0)
(7.35296 -0.0122425 0)
(7.35446 -0.0127992 0)
(7.35593 -0.0133334 0)
(7.35738 -0.0138478 0)
(7.35881 -0.0143459 0)
(7.36021 -0.0148306 0)
(7.36158 -0.0153052 0)
(7.36292 -0.0157726 0)
(7.36422 -0.0162355 0)
(7.3655 -0.0166965 0)
(7.36674 -0.017158 0)
(7.36794 -0.017622 0)
(7.3691 -0.0180904 0)
(7.37023 -0.0185649 0)
(7.37134 -0.019046 0)
(7.33241 0.002057 0)
(7.33045 -0.000627798 0)
(7.33029 -0.00734933 0)
(7.33138 -0.013784 0)
(7.33236 -0.0184739 0)
(7.33309 -0.0216197 0)
(7.33392 -0.023639 0)
(7.33498 -0.0248375 0)
(7.33623 -0.0254535 0)
(7.3376 -0.0256767 0)
(7.3391 -0.0256469 0)
(7.34069 -0.0254619 0)
(7.34238 -0.0251893 0)
(7.34412 -0.0248747 0)
(7.34591 -0.0245483 0)
(7.34774 -0.0242293 0)
(7.34958 -0.0239299 0)
(7.35143 -0.0236574 0)
(7.35329 -0.0234158 0)
(7.35513 -0.0232073 0)
(7.35696 -0.0230326 0)
(7.35876 -0.0228918 0)
(7.36054 -0.0227844 0)
(7.36229 -0.0227098 0)
(7.36401 -0.0226672 0)
(7.36568 -0.0226558 0)
(7.36731 -0.0226748 0)
(7.3689 -0.0227232 0)
(7.37044 -0.0228003 0)
(7.37193 -0.0229052 0)
(7.37337 -0.0230374 0)
(7.37475 -0.0231962 0)
(7.37609 -0.0233805 0)
(7.32878 0.00627219 0)
(7.31725 0.0179256 0)
(7.3124 0.0251213 0)
(7.31393 0.0271638 0)
(7.31776 0.0258475 0)
(7.32193 0.0230317 0)
(7.32615 0.0196739 0)
(7.33037 0.0161314 0)
(7.33452 0.0125863 0)
(7.33854 0.00917699 0)
(7.34243 0.00598769 0)
(7.34619 0.00305028 0)
(7.34983 0.000367223 0)
(7.35335 -0.00207095 0)
(7.35675 -0.00427928 0)
(7.36005 -0.00627606 0)
(7.36324 -0.00808095 0)
(7.36632 -0.00971342 0)
(7.3693 -0.0111919 0)
(7.37219 -0.0125334 0)
(7.37497 -0.0137537 0)
(7.37766 -0.0148669 0)
(7.38025 -0.0158858 0)
(7.38275 -0.0168221 0)
(7.38516 -0.0176858 0)
(7.38747 -0.0184862 0)
(7.3897 -0.0192314 0)
(7.39184 -0.0199286 0)
(7.39389 -0.020584 0)
(7.39585 -0.0212032 0)
(7.39773 -0.021791 0)
(7.39953 -0.0223504 0)
(7.40127 -0.022885 0)
(7.33379 -0.0333008 0)
(7.333 -0.0723155 0)
(7.32811 -0.0856868 0)
(7.32654 -0.0871156 0)
(7.33009 -0.0847153 0)
(7.3373 -0.0807392 0)
(7.34624 -0.0758885 0)
(7.35571 -0.070818 0)
(7.36518 -0.0659837 0)
(7.37439 -0.0615579 0)
(7.38317 -0.0575694 0)
(7.39145 -0.054009 0)
(7.39916 -0.050855 0)
(7.40632 -0.0480744 0)
(7.41294 -0.0456289 0)
(7.41905 -0.0434802 0)
(7.42466 -0.0415936 0)
(7.42982 -0.0399377 0)
(7.43455 -0.0384847 0)
(7.43888 -0.0372103 0)
(7.44284 -0.0360932 0)
(7.44645 -0.035115 0)
(7.44975 -0.0342599 0)
(7.45275 -0.0335141 0)
(7.45547 -0.0328657 0)
(7.45794 -0.0323044 0)
(7.46016 -0.0318212 0)
(7.46217 -0.0314082 0)
(7.46397 -0.0310587 0)
(7.46557 -0.0307665 0)
(7.467 -0.0305265 0)
(7.46825 -0.0303347 0)
(7.46938 -0.0301848 0)
(7.33141 0.164997 0)
(7.34786 0.185183 0)
(7.36035 0.152155 0)
(7.35678 0.118069 0)
(7.34269 0.0898492 0)
(7.32389 0.067453 0)
(7.30254 0.0499556 0)
(7.27944 0.036227 0)