/*--------------------------------*- C++ -*----------------------------------*\
  =========                 |
  \\      /  F ield         | OpenFOAM: The Open Source CFD Toolbox
   \\    /   O peration     | Website:  https://openfoam.org
    \\  /    A nd           | Version:  10
     \\/     M anipulation  |
\*---------------------------------------------------------------------------*/
FoamFile
{
    format      ascii;
    class       volScalarField;
    location    "400";
    object      yPlus;
}
// * * * * * * * * * * * * * * * * * * * * * * * * * * * * * * * * * * * * * //

dimensions      [0 0 0 0 0 0 0];

internalField   uniform 0;

boundaryField
{
    outlet
    {
        type            calculated;
        value           uniform 0;
    }
    inlet
    {
        type            calculated;
        value           uniform 0;
    }
    lowerWall
    {
        type            calculated;
        value           nonuniform List<scalar> 
148
(
9.9937
9.87583
9.76655
9.65577
9.54325
9.43227
9.32599
9.22676
9.13585
9.05377
8.98057
8.91597
8.85951
8.8106
8.76866
8.73309
8.70328
8.67868
8.65878
8.64311
8.63121
8.62272
8.61726
8.61449
8.61414
8.61605
8.61964
8.62545
8.63338
8.64965
8.54147
9.24218
6.39337
5.56248
8.2627
9.90253
10.7914
10.9242
11.537
11.861
12.0491
12.1187
11.4824
11.8572
11.9552
11.8151
12.3879
12.6841
5.56248
12.3777
12.8795
13.0466
12.9613
12.717
12.4347
12.2013
12.0984
12.3467
13.8689
17.4531
21.5938
25.519
29.131
32.4453
35.4961
38.318
40.9415
43.3914
45.6882
47.8484
49.8857
51.8119
53.6363
55.3671
57.0107
58.5722
60.0552
61.4624
62.7955
64.0557
65.2442
66.3629
67.4152
68.4078
69.3487
70.2278
71.0506
71.8313
72.5789
73.2991
73.9965
74.6748
75.3363
75.9822
76.6128
77.2268
77.8225
78.397
78.9463
79.4658
79.95
80.3928
80.7875
81.127
81.4039
81.6106
81.7399
81.785
81.7396
81.5969
81.3503
80.997
80.5458
80.0205
79.4761
79.0296
78.615
78.0185
77.2176
76.2377
75.1114
73.8743
72.5635
71.2153
69.8634
68.5384
67.2666
66.07
64.9659
63.9673
63.0822
62.3145
61.6637
61.1252
60.6901
60.3467
60.0809
59.877
59.7188
59.5908
59.4801
59.3772
59.2797
59.1917
59.1296
59.124
59.1096
59.5301
)
;
    }
    upperWall
    {
        type            calculated;
        value           nonuniform List<scalar> 
133
(
30.6045
31.4255
32.2163
32.9719
33.693
34.3806
35.0365
35.6619
36.2579
36.8255
37.3659
37.88
38.369
38.8338
39.2755
39.6951
40.0935
40.4716
40.8305
41.1709
41.4938
41.8
42.0903
42.3655
42.6264
42.8736
43.1079
43.3299
43.5403
43.7396
43.9284
44.1073
44.277
44.4634
44.6674
44.8647
45.055
45.2382
45.4141
45.5825
45.7434
45.8966
46.0421
46.1797
46.3092
46.4307
46.5439
46.6487
46.7451
46.8329
46.9119
46.9821
47.0433
47.0955
47.1383
47.1717
47.1955
47.2096
47.2138
47.2078
47.1916
47.1649
47.1274
47.0792
47.0199
46.9493
46.8672
46.7736
46.6681
46.5507
46.4211
46.2792
46.1248
45.9578
45.7781
45.5855
45.38
45.1616
44.9301
44.6856
44.4282
44.1581
43.8754
43.5807
43.2746
42.9576
42.631
42.2958
41.9537
41.6065
41.2564
40.9059
40.5579
40.2153
39.8815
39.5599
39.2537
38.9661
38.7002
38.4581
38.2419
38.0524
37.89
37.7542
37.6436
37.5561
37.489
37.4391
37.4032
37.3775
37.3587
37.3433
37.3284
37.3113
37.2896
37.2614
37.2253
37.18
37.125
37.0596
36.9838
36.8975
36.8011
36.6951
36.5801
36.4567
36.3258
36.1886
36.0451
35.8989
35.7419
35.6102
35.3623
)
;
    }
    frontAndBack
    {
        type            empty;
    }
}


// ************************************************************************* //
