# y+ ()       
# Time        	patch         	min           	max           	average       
1000          	lowerWall	4.781475e+00	7.789294e+01	4.304811e+01
1000          	upperWall	3.060454e+01	4.718990e+01	4.150094e+01
