/*--------------------------------*- C++ -*----------------------------------*\
  =========                 |
  \\      /  F ield         | OpenFOAM: The Open Source CFD Toolbox
   \\    /   O peration     | Website:  https://openfoam.org
    \\  /    A nd           | Version:  10
     \\/     M anipulation  |
\*---------------------------------------------------------------------------*/
FoamFile
{
    format      ascii;
    class       volScalarField;
    location    "1800";
    object      k;
}
// * * * * * * * * * * * * * * * * * * * * * * * * * * * * * * * * * * * * * //

dimensions      [0 2 -2 0 0 0 0];

internalField   nonuniform List<scalar> 
6820
(
0.318932
0.614648
0.847396
0.983377
1.04836
1.06927
1.06475
1.0465
1.0217
0.994572
0.967459
0.941556
0.917413
0.895216
0.874952
0.856514
0.839751
0.824502
0.81061
0.797926
0.786319
0.775671
0.765876
0.756843
0.748492
0.74075
0.733553
0.726847
0.72056
0.714749
0.708759
0.705452
0.690281
0.838908
1.45739
1.5306
1.40689
1.25037
1.11087
0.996111
0.903238
0.827886
0.76631
0.715544
0.673419
0.638187
0.608546
0.583483
0.562195
0.544041
0.528503
0.515164
0.503681
0.493772
0.485205
0.477785
0.471352
0.465769
0.460922
0.456717
0.453075
0.449927
0.447244
0.444936
0.443286
0.441553
0.379893
0.662258
0.793338
0.827975
0.818186
0.790403
0.756381
0.72117
0.686891
0.654427
0.624111
0.596043
0.570195
0.546474
0.524757
0.504903
0.486769
0.470214
0.4551
0.441303
0.428702
0.417191
0.406671
0.397051
0.388251
0.380196
0.37282
0.366064
0.359874
0.354206
0.34901
0.344275
0.339915
0.246132
0.3393
0.411878
0.458885
0.485704
0.49888
0.503287
0.502158
0.497536
0.490704
0.482486
0.473435
0.46393
0.45424
0.44455
0.434992
0.425659
0.41661
0.407888
0.399515
0.391503
0.383859
0.376578
0.369655
0.363079
0.356841
0.350925
0.34532
0.340011
0.334984
0.330225
0.325725
0.321456
0.216724
0.25341
0.285799
0.312244
0.332455
0.347125
0.357302
0.364011
0.368096
0.370197
0.370789
0.37023
0.368792
0.366686
0.364075
0.361089
0.357829
0.354377
0.350798
0.347142
0.343452
0.33976
0.336091
0.332465
0.328898
0.325403
0.321987
0.318659
0.315422
0.31228
0.309236
0.306291
0.303443
0.2067
0.22375
0.239981
0.254416
0.266684
0.276738
0.28477
0.291069
0.295924
0.299585
0.302262
0.304127
0.305322
0.305962
0.306143
0.305944
0.305432
0.304663
0.303682
0.302531
0.301241
0.299841
0.298355
0.296804
0.295205
0.293571
0.291916
0.29025
0.288581
0.286918
0.285267
0.283633
0.282021
0.202776
0.211442
0.220463
0.228911
0.236465
0.243012
0.248579
0.253259
0.257158
0.260378
0.263012
0.265139
0.26683
0.268145
0.269136
0.269846
0.270314
0.270573
0.270652
0.270576
0.270366
0.270042
0.26962
0.269115
0.26854
0.267906
0.267222
0.266498
0.265741
0.264959
0.264156
0.263339
0.262513
0.201168
0.205683
0.210952
0.216189
0.221064
0.22544
0.229296
0.232659
0.235575
0.238089
0.240245
0.242083
0.243642
0.244952
0.246043
0.246939
0.247664
0.248237
0.248676
0.248995
0.249208
0.249329
0.249367
0.249333
0.249234
0.24908
0.248877
0.248631
0.248347
0.248032
0.24769
0.247325
0.246942
0.200484
0.202809
0.205913
0.20924
0.212483
0.215494
0.218222
0.220663
0.222834
0.224755
0.226448
0.227934
0.229235
0.230369
0.231352
0.232201
0.232928
0.233546
0.234066
0.234497
0.234849
0.23513
0.235347
0.235506
0.235613
0.235673
0.235693
0.235675
0.235624
0.235544
0.235438
0.23531
0.235162
0.200184
0.20134
0.203132
0.205234
0.207404
0.209501
0.211457
0.21325
0.214879
0.216349
0.217669
0.218852
0.219908
0.220849
0.221684
0.222423
0.223075
0.223648
0.224148
0.224583
0.224958
0.225279
0.225551
0.225778
0.225964
0.226113
0.226229
0.226315
0.226373
0.226407
0.226419
0.226411
0.226386
0.200051
0.200588
0.201579
0.202869
0.204298
0.205746
0.207146
0.208465
0.209689
0.210815
0.211845
0.212781
0.213631
0.214399
0.215093
0.215717
0.216278
0.216781
0.217229
0.217628
0.217983
0.218295
0.21857
0.21881
0.219018
0.219197
0.219349
0.219477
0.219583
0.219669
0.219737
0.219789
0.219826
0.199992
0.200208
0.200718
0.201471
0.202377
0.203351
0.204335
0.205293
0.206205
0.207061
0.207858
0.208595
0.209273
0.209895
0.210464
0.210983
0.211456
0.211885
0.212274
0.212626
0.212943
0.213229
0.213485
0.213714
0.213918
0.214099
0.214259
0.2144
0.214523
0.21463
0.214722
0.214801
0.214867
0.199966
0.200017
0.200248
0.200654
0.201196
0.201823
0.202489
0.203165
0.203829
0.204469
0.205076
0.205648
0.206182
0.206679
0.20714
0.207565
0.207957
0.208317
0.208647
0.208949
0.209225
0.209477
0.209707
0.209915
0.210103
0.210274
0.210428
0.210566
0.21069
0.210802
0.210901
0.21099
0.211068
0.199954
0.199924
0.199997
0.200187
0.200483
0.200858
0.201286
0.201741
0.202206
0.202669
0.203119
0.203552
0.203964
0.204353
0.204718
0.20506
0.205379
0.205675
0.20595
0.206204
0.206439
0.206655
0.206855
0.207038
0.207206
0.207359
0.2075
0.207629
0.207746
0.207854
0.207951
0.20804
0.208121
0.199949
0.199879
0.199866
0.199926
0.200061
0.200262
0.200513
0.200799
0.201107
0.201425
0.201744
0.20206
0.202367
0.202662
0.202944
0.203212
0.203464
0.203702
0.203925
0.204134
0.204329
0.20451
0.204678
0.204835
0.20498
0.205114
0.205239
0.205354
0.20546
0.205558
0.205649
0.205733
0.20581
0.199947
0.199858
0.199799
0.199785
0.19982
0.199903
0.200029
0.200189
0.200374
0.200577
0.200789
0.201006
0.201223
0.201437
0.201646
0.201847
0.202041
0.202225
0.202401
0.202566
0.202723
0.20287
0.203009
0.203138
0.20326
0.203373
0.20348
0.203579
0.203672
0.203758
0.203839
0.203915
0.203985
0.199947
0.199848
0.199766
0.19971
0.199685
0.199693
0.199734
0.199804
0.199898
0.20001
0.200137
0.200273
0.200415
0.20056
0.200704
0.200848
0.200988
0.201124
0.201256
0.201382
0.201503
0.201618
0.201727
0.201831
0.201929
0.202021
0.202109
0.202191
0.202269
0.202343
0.202412
0.202478
0.202539
0.199946
0.199843
0.19975
0.199672
0.199612
0.199575
0.19956
0.199568
0.199596
0.199642
0.199702
0.199774
0.199855
0.199941
0.200032
0.200125
0.200219
0.200312
0.200404
0.200494
0.200582
0.200667
0.200749
0.200827
0.200903
0.200975
0.201044
0.20111
0.201172
0.201232
0.201289
0.201344
0.201396
0.199946
0.199841
0.199743
0.199652
0.199574
0.199509
0.19946
0.199428
0.199411
0.199409
0.19942
0.199443
0.199475
0.199515
0.199562
0.199612
0.199666
0.199723
0.19978
0.199838
0.199896
0.199954
0.20001
0.200066
0.20012
0.200172
0.200223
0.200273
0.200321
0.200367
0.200412
0.200455
0.200497
0.199946
0.199841
0.199739
0.199643
0.199554
0.199474
0.199405
0.199347
0.199301
0.199266
0.199243
0.19923
0.199226
0.19923
0.199241
0.199257
0.199279
0.199304
0.199332
0.199363
0.199395
0.199428
0.199462
0.199497
0.199532
0.199567
0.199601
0.199635
0.199669
0.199703
0.199736
0.199768
0.1998
0.199946
0.19984
0.199737
0.199638
0.199544
0.199456
0.199375
0.199302
0.199237
0.199181
0.199135
0.199097
0.199067
0.199044
0.199029
0.199019
0.199015
0.199016
0.19902
0.199028
0.199039
0.199052
0.199067
0.199084
0.199102
0.199121
0.199141
0.199162
0.199183
0.199205
0.199227
0.19925
0.199272
0.199946
0.19984
0.199736
0.199636
0.199539
0.199446
0.199359
0.199277
0.199202
0.199133
0.199071
0.199017
0.19897
0.198929
0.198895
0.198866
0.198843
0.198825
0.198812
0.198802
0.198796
0.198793
0.198793
0.198796
0.1988
0.198807
0.198815
0.198825
0.198836
0.198848
0.198861
0.198875
0.19889
0.199946
0.19984
0.199736
0.199635
0.199536
0.199441
0.19935
0.199264
0.199182
0.199106
0.199036
0.198972
0.198914
0.198861
0.198815
0.198774
0.198739
0.198708
0.198682
0.198661
0.198643
0.198629
0.198618
0.19861
0.198605
0.198602
0.198602
0.198603
0.198607
0.198611
0.198618
0.198625
0.198634
0.199946
0.19984
0.199736
0.199634
0.199535
0.199439
0.199346
0.199257
0.199173
0.199093
0.199019
0.19895
0.198886
0.198828
0.198775
0.198728
0.198686
0.198648
0.198616
0.198587
0.198563
0.198543
0.198526
0.198512
0.198501
0.198493
0.198488
0.198484
0.198483
0.198483
0.198485
0.198489
0.198494
0.199946
0.19984
0.199735
0.199633
0.199534
0.199438
0.199345
0.199255
0.19917
0.19909
0.199015
0.198945
0.19888
0.198821
0.198767
0.198719
0.198676
0.198637
0.198603
0.198574
0.198549
0.198527
0.198509
0.198494
0.198482
0.198473
0.198466
0.198462
0.198459
0.198459
0.19846
0.198462
0.198466
0.199946
0.199839
0.199735
0.199633
0.199534
0.199438
0.199346
0.199258
0.199175
0.199097
0.199024
0.198958
0.198897
0.198842
0.198793
0.198749
0.19871
0.198676
0.198647
0.198622
0.198601
0.198584
0.19857
0.198559
0.198551
0.198545
0.198541
0.198539
0.19854
0.198541
0.198544
0.198549
0.198554
0.199946
0.19984
0.199735
0.199634
0.199536
0.199442
0.199352
0.199268
0.19919
0.199118
0.199053
0.198995
0.198944
0.198899
0.198861
0.198828
0.198801
0.198778
0.19876
0.198746
0.198736
0.198728
0.198724
0.198722
0.198722
0.198724
0.198728
0.198733
0.198739
0.198747
0.198755
0.198764
0.198774
0.199946
0.19984
0.199736
0.199636
0.199541
0.199451
0.199368
0.199292
0.199225
0.199167
0.199117
0.199075
0.199042
0.199016
0.198996
0.198983
0.198975
0.198971
0.198971
0.198975
0.198981
0.19899
0.199001
0.199013
0.199026
0.199041
0.199056
0.199072
0.199087
0.199104
0.19912
0.199136
0.199153
0.199946
0.199841
0.199739
0.199643
0.199554
0.199475
0.199405
0.199348
0.199302
0.199268
0.199245
0.199232
0.199229
0.199233
0.199243
0.19926
0.19928
0.199304
0.199331
0.19936
0.19939
0.199421
0.199452
0.199483
0.199514
0.199544
0.199574
0.199603
0.199631
0.199658
0.199684
0.19971
0.199734
0.199947
0.199843
0.199747
0.19966
0.199587
0.19953
0.199491
0.199468
0.199463
0.199472
0.199495
0.199529
0.199572
0.199622
0.199677
0.199736
0.199796
0.199858
0.199919
0.19998
0.20004
0.200098
0.200154
0.200208
0.200259
0.200308
0.200354
0.200398
0.20044
0.200478
0.200515
0.200549
0.200582
0.199948
0.19985
0.199767
0.199705
0.199669
0.199661
0.19968
0.199725
0.199791
0.199875
0.199971
0.200078
0.200189
0.200304
0.20042
0.200534
0.200645
0.200753
0.200857
0.200955
0.201049
0.201137
0.20122
0.201298
0.20137
0.201438
0.201501
0.201559
0.201612
0.201662
0.201708
0.20175
0.201788
0.199951
0.199869
0.199823
0.199821
0.199868
0.199962
0.200096
0.200262
0.200449
0.20065
0.200858
0.201067
0.201273
0.201472
0.201663
0.201844
0.202015
0.202175
0.202324
0.202462
0.202589
0.202707
0.202815
0.202914
0.203005
0.203088
0.203164
0.203232
0.203295
0.203351
0.203402
0.203447
0.203488
0.199959
0.199926
0.199977
0.200121
0.200351
0.200649
0.200993
0.201362
0.201739
0.202113
0.202473
0.202816
0.203137
0.203435
0.20371
0.203963
0.204193
0.204403
0.204593
0.204765
0.204921
0.205061
0.205187
0.205301
0.205402
0.205492
0.205573
0.205644
0.205707
0.205762
0.205811
0.205853
0.205889
0.199987
0.200103
0.200415
0.200903
0.201515
0.202193
0.20289
0.203572
0.204217
0.204816
0.205363
0.205858
0.206302
0.206698
0.207052
0.207365
0.207643
0.207888
0.208104
0.208295
0.208463
0.208609
0.208738
0.208849
0.208946
0.209029
0.2091
0.20916
0.20921
0.209252
0.209285
0.209311
0.20933
0.200091
0.200674
0.201674
0.202931
0.204281
0.205607
0.206838
0.207945
0.208922
0.209772
0.210508
0.211141
0.211683
0.212148
0.212546
0.212885
0.213174
0.213421
0.213629
0.213806
0.213954
0.214077
0.214179
0.214261
0.214327
0.214377
0.214415
0.21444
0.214455
0.21446
0.214457
0.214446
0.214429
0.200506
0.202612
0.20538
0.20823
0.210863
0.213156
0.215082
0.216669
0.217964
0.219015
0.219866
0.220552
0.221105
0.22155
0.221907
0.222191
0.222416
0.222592
0.222726
0.222824
0.222893
0.222937
0.222958
0.22296
0.222946
0.222917
0.222875
0.222821
0.222758
0.222686
0.222606
0.222518
0.222425
0.202133
0.209235
0.216717
0.222799
0.227378
0.23075
0.233208
0.234988
0.236273
0.237193
0.237847
0.238306
0.238619
0.238825
0.238946
0.239003
0.239008
0.238971
0.2389
0.238799
0.238674
0.238527
0.238362
0.238181
0.237986
0.237778
0.237559
0.237331
0.237094
0.23685
0.236599
0.236343
0.236082
0.208298
0.22678
0.244129
0.257372
0.266317
0.271773
0.274802
0.276302
0.276882
0.276921
0.276649
0.276201
0.275653
0.275051
0.274417
0.273765
0.273101
0.272428
0.271747
0.27106
0.270365
0.269665
0.268959
0.268248
0.267533
0.266815
0.266095
0.265374
0.264653
0.263933
0.263215
0.2625
0.261789
0.245774
0.310442
0.343758
0.358932
0.365581
0.368297
0.368993
0.368462
0.367138
0.3653
0.363136
0.360774
0.358305
0.355793
0.353284
0.350808
0.348387
0.346036
0.343763
0.341573
0.339469
0.337451
0.33552
0.333674
0.33191
0.330227
0.328621
0.32709
0.32563
0.32424
0.322916
0.321656
0.320455
0.214305
0.253643
0.294732
0.333812
0.370031
0.403432
0.434077
0.462012
0.487322
0.510132
0.530592
0.548864
0.565116
0.579516
0.592228
0.603409
0.613209
0.621766
0.629207
0.635651
0.641203
0.64596
0.650011
0.653433
0.656298
0.658669
0.660601
0.662147
0.66335
0.664251
0.664886
0.665285
0.665484
0.73623
0.841538
0.998887
1.19209
1.38912
1.5743
1.74125
1.88582
2.0038
2.09316
2.15497
2.19322
2.21343
2.22097
2.22031
2.2146
2.20591
2.19534
2.18352
2.17076
2.1573
2.14331
2.12895
2.11436
2.09959
2.08467
2.06954
2.05412
2.03824
2.02177
2.00452
1.98631
1.96696
1.94627
1.92404
1.90014
1.87445
1.84686
1.8173
1.78576
1.75221
1.71669
1.67926
1.64004
1.59917
1.55686
1.51333
1.46886
1.42374
1.37829
1.33287
1.28783
1.24354
1.20033
1.15856
1.11853
1.08053
1.0448
1.01156
0.980954
0.95311
0.928098
0.905951
0.886664
0.870199
0.856488
0.845441
0.836946
0.830875
0.82709
0.825442
0.825772
0.827918
0.831711
0.836979
0.843545
0.851229
0.859852
0.869234
0.879194
0.889555
0.900147
0.910803
0.921362
0.931678
0.941612
0.951038
0.959843
0.967925
0.975199
0.981587
0.98703
0.991471
0.994883
0.997215
0.998477
0.998651
0.997684
0.99613
0.992174
0.441208
0.450532
0.471727
0.507241
0.557335
0.621323
0.698649
0.788411
0.889261
0.998001
1.10889
1.21681
1.31755
1.40802
1.4865
1.55238
1.606
1.64817
1.68026
1.70371
1.71992
1.73013
1.73545
1.73674
1.73468
1.7298
1.7225
1.71308
1.70172
1.68857
1.67372
1.65721
1.63907
1.6193
1.59786
1.57475
1.54995
1.52346
1.49531
1.46555
1.43423
1.40144
1.36732
1.332
1.29565
1.25849
1.22076
1.18269
1.14457
1.10667
1.06928
1.03269
0.997185
0.963019
0.930437
0.899658
0.870867
0.844219
0.819831
0.797789
0.778145
0.76092
0.746106
0.733672
0.723566
0.715719
0.710046
0.706454
0.704841
0.705095
0.707104
0.710746
0.7159
0.722436
0.730222
0.739123
0.748995
0.759697
0.771079
0.782991
0.795283
0.807805
0.820406
0.832941
0.845271
0.857264
0.868796
0.879753
0.890031
0.899539
0.908193
0.915928
0.922676
0.928405
0.933053
0.936623
0.939089
0.940405
0.940976
0.940054
0.335314
0.330831
0.32715
0.324982
0.325374
0.329267
0.337481
0.350944
0.370904
0.39873
0.435206
0.480565
0.534344
0.595362
0.661879
0.731765
0.802607
0.871932
0.937629
0.997558
1.05057
1.09622
1.13454
1.16589
1.19078
1.20992
1.22391
1.23328
1.23855
1.24014
1.23846
1.2338
1.22644
1.21658
1.20442
1.19011
1.1738
1.15561
1.13569
1.11418
1.09123
1.06698
1.04163
1.01534
0.98831
0.960755
0.932892
0.904948
0.877154
0.84974
0.822933
0.796949
0.771993
0.748249
0.725885
0.705042
0.685837
0.668363
0.652686
0.638852
0.626881
0.616775
0.608519
0.602083
0.597427
0.594498
0.593238
0.593585
0.595468
0.598815
0.603552
0.609598
0.616873
0.625288
0.634752
0.645168
0.656431
0.668436
0.681065
0.694198
0.707714
0.721482
0.735372
0.749254
0.762999
0.776483
0.789585
0.802191
0.814195
0.825503
0.836023
0.845682
0.854407
0.86215
0.868846
0.874485
0.879031
0.882444
0.884982
0.886903
0.316778
0.311662
0.306659
0.301817
0.297287
0.293242
0.289875
0.287416
0.286201
0.286559
0.288965
0.293945
0.302045
0.313761
0.329537
0.349668
0.374308
0.403283
0.436234
0.472285
0.51041
0.549302
0.587851
0.624759
0.659301
0.690673
0.718343
0.742217
0.762255
0.77858
0.791351
0.800749
0.80699
0.810293
0.810879
0.808966
0.804759
0.79846
0.790264
0.780365
0.768952
0.756216
0.742351
0.727549
0.712006
0.695919
0.679482
0.66289
0.646333
0.629994
0.614047
0.598656
0.583968
0.570117
0.557221
0.545378
0.53467
0.52516
0.516897
0.509912
0.504224
0.49984
0.496755
0.494958
0.494431
0.495148
0.497081
0.500199
0.504467
0.509849
0.516305
0.523793
0.532267
0.541675
0.551963
0.563069
0.574924
0.587455
0.600574
0.614193
0.628215
0.642532
0.657033
0.671607
0.686136
0.700505
0.714598
0.728306
0.741519
0.75414
0.766073
0.777237
0.787549
0.796952
0.805373
0.812787
0.819152
0.824426
0.828729
0.833241
0.300242
0.296666
0.293116
0.289575
0.28605
0.282568
0.279171
0.275906
0.272838
0.270049
0.267635
0.265704
0.264401
0.263888
0.264363
0.266036
0.269146
0.273916
0.280573
0.289256
0.300046
0.312854
0.327545
0.343764
0.361188
0.379327
0.39768
0.415718
0.433057
0.449288
0.464068
0.477215
0.488587
0.498117
0.505792
0.511643
0.515732
0.518144
0.518984
0.518371
0.516434
0.513312
0.509148
0.504088
0.498284
0.491885
0.485042
0.4779
0.470604
0.463289
0.456084
0.44911
0.442478
0.436287
0.430625
0.425568
0.421181
0.417518
0.414623
0.412528
0.41126
0.410836
0.411267
0.41256
0.414718
0.417737
0.421616
0.426347
0.431924
0.438335
0.445569
0.453612
0.462447
0.47205
0.482397
0.493453
0.505182
0.517536
0.530459
0.543887
0.557747
0.571954
0.58642
0.601052
0.615746
0.630396
0.644896
0.659141
0.673024
0.686445
0.699303
0.711515
0.722986
0.733651
0.74343
0.752283
0.760161
0.767013
0.772839
0.779631
0.280169
0.278053
0.275914
0.273738
0.271516
0.269252
0.26696
0.264656
0.262357
0.260086
0.257866
0.255724
0.253694
0.251815
0.250138
0.24872
0.247633
0.246957
0.246785
0.247213
0.24834
0.250247
0.253007
0.25665
0.261189
0.266586
0.272776
0.27962
0.286988
0.294698
0.302551
0.310354
0.317925
0.325107
0.331764
0.337789
0.343104
0.34766
0.351433
0.354423
0.356649
0.35815
0.358976
0.359192
0.358868
0.358085
0.356926
0.355477
0.353824
0.352055
0.350251
0.348494
0.346858
0.345413
0.344225
0.343349
0.342837
0.342734
0.34308
0.343906
0.345241
0.347108
0.349528
0.352516
0.356086
0.36025
0.365018
0.3704
0.376402
0.383032
0.390296
0.398196
0.406734
0.415908
0.425715
0.436143
0.447181
0.458796
0.470963
0.483642
0.496779
0.510316
0.524183
0.538307
0.5526
0.566973
0.581328
0.595567
0.60959
0.623297
0.636588
0.649374
0.661557
0.67306
0.683801
0.69372
0.702769
0.710882
0.717949
0.726666
0.261539
0.260399
0.259217
0.257988
0.256704
0.255363
0.25397
0.252533
0.25106
0.249559
0.248038
0.246506
0.244974
0.243453
0.241957
0.240503
0.239111
0.237806
0.236616
0.235576
0.234723
0.234099
0.233745
0.2337
0.234001
0.234677
0.235748
0.23722
0.239087
0.241325
0.243898
0.246752
0.249822
0.25304
0.256332
0.259625
0.262853
0.265954
0.268879
0.271589
0.274057
0.276267
0.278216
0.279907
0.281358
0.28259
0.283635
0.284526
0.285304
0.28601
0.286689
0.287383
0.288138
0.288995
0.289994
0.291174
0.29257
0.294215
0.296137
0.298364
0.300919
0.303823
0.307097
0.310757
0.314821
0.319303
0.324218
0.329582
0.335408
0.341711
0.348505
0.355802
0.363615
0.371956
0.380836
0.390255
0.400221
0.410719
0.421741
0.433269
0.445272
0.457712
0.47054
0.483701
0.497128
0.510745
0.524472
0.53822
0.551897
0.56541
0.57866
0.591558
0.604007
0.615921
0.627213
0.637813
0.647665
0.656699
0.664701
0.674943
0.246472
0.245903
0.245294
0.244642
0.243941
0.243188
0.242384
0.241535
0.240643
0.239712
0.238748
0.237753
0.236733
0.235691
0.234633
0.233565
0.232494
0.231427
0.230374
0.229347
0.228359
0.227427
0.226569
0.225803
0.225151
0.224634
0.22427
0.224079
0.224074
0.224265
0.224657
0.22525
0.226036
0.227001
0.228127
0.22939
0.230766
0.232227
0.233747
0.2353
0.236866
0.238425
0.239965
0.241477
0.242955
0.244403
0.245824
0.247229
0.248632
0.250048
0.251496
0.252997
0.254573
0.256245
0.258036
0.259967
0.262059
0.264333
0.266807
0.269499
0.272425
0.275601
0.279041
0.28276
0.28677
0.291087
0.295722
0.300692
0.306011
0.311695
0.317759
0.32422
0.331098
0.338409
0.346173
0.354397
0.363099
0.372282
0.381949
0.3921
0.402721
0.413793
0.425288
0.437168
0.449386
0.461885
0.474601
0.487458
0.500379
0.513278
0.526065
0.538652
0.550947
0.56286
0.574305
0.585199
0.595484
0.605087
0.613706
0.625044
0.234967
0.234715
0.23443
0.23411
0.23375
0.233348
0.232905
0.232421
0.2319
0.231342
0.230752
0.23013
0.229479
0.228802
0.228101
0.22738
0.226642
0.225888
0.225123
0.224351
0.223577
0.222807
0.22205
0.221313
0.220608
0.219944
0.219334
0.21879
0.218323
0.217945
0.217667
0.217497
0.217441
0.217503
0.217685
0.217986
0.218402
0.218928
0.219557
0.220281
0.221092
0.221982
0.222945
0.223975
0.225068
0.226221
0.227436
0.228715
0.230061
0.23148
0.232981
0.234571
0.236262
0.238062
0.239984
0.242039
0.244236
0.246588
0.249104
0.251795
0.254669
0.257735
0.261004
0.264483
0.268182
0.272111
0.27628
0.280701
0.285386
0.290348
0.295605
0.301172
0.307069
0.313315
0.31993
0.32693
0.334336
0.342162
0.35042
0.35912
0.368264
0.37785
0.387863
0.398286
0.40909
0.420235
0.431675
0.443352
0.455202
0.467154
0.479129
0.491045
0.502818
0.51436
0.525587
0.536412
0.546774
0.556596
0.565518
0.577514
0.226336
0.226256
0.226149
0.226016
0.225852
0.225655
0.225426
0.225164
0.224871
0.224548
0.224196
0.223817
0.223413
0.222985
0.222536
0.222067
0.22158
0.221076
0.220556
0.220023
0.219479
0.218925
0.218367
0.217807
0.217251
0.216704
0.216173
0.215665
0.215187
0.214748
0.214355
0.214017
0.213742
0.213535
0.213405
0.213355
0.213391
0.213515
0.213729
0.214035
0.214434
0.214924
0.215507
0.216182
0.216949
0.217808
0.218761
0.219809
0.220955
0.222202
0.223553
0.225013
0.226586
0.228278
0.230094
0.232038
0.234116
0.236333
0.238692
0.241199
0.243858
0.246672
0.249645
0.252783
0.25609
0.259571
0.263234
0.267086
0.271135
0.275394
0.279876
0.284596
0.28957
0.294816
0.300355
0.306206
0.31239
0.318928
0.325836
0.333131
0.340828
0.348932
0.357445
0.366363
0.375673
0.385354
0.395374
0.405696
0.416271
0.427042
0.437946
0.448912
0.459865
0.470726
0.481416
0.491847
0.501961
0.511678
0.520603
0.532828
0.219852
0.219862
0.219853
0.219823
0.21977
0.219693
0.21959
0.219461
0.219308
0.21913
0.218929
0.218707
0.218464
0.218202
0.217922
0.217627
0.217316
0.216991
0.216652
0.216302
0.21594
0.215568
0.215188
0.214802
0.214413
0.214023
0.213637
0.213258
0.21289
0.212541
0.212213
0.211915
0.211652
0.21143
0.211255
0.211135
0.211074
0.211078
0.211152
0.211302
0.211531
0.211843
0.212242
0.21273
0.213311
0.213988
0.214763
0.21564
0.21662
0.217707
0.218904
0.220214
0.221638
0.22318
0.224842
0.226625
0.228532
0.230564
0.232721
0.235005
0.237416
0.239954
0.242619
0.245414
0.248338
0.251394
0.254585
0.257915
0.261391
0.265021
0.268815
0.272784
0.276943
0.281308
0.285897
0.290729
0.295825
0.301206
0.306893
0.312906
0.319264
0.325982
0.33307
0.340536
0.348378
0.35659
0.365158
0.374057
0.383257
0.392716
0.402388
0.412214
0.422134
0.432077
0.441976
0.451745
0.461334
0.470659
0.479318
0.491376
0.214931
0.214988
0.215031
0.215058
0.215067
0.215058
0.215029
0.214981
0.214913
0.214826
0.214721
0.214599
0.214461
0.214308
0.214142
0.213964
0.213774
0.213574
0.213364
0.213145
0.212918
0.212684
0.212443
0.212197
0.211948
0.211697
0.211447
0.2112
0.21096
0.210729
0.210512
0.210312
0.210135
0.209986
0.209869
0.209791
0.209756
0.209771
0.20984
0.209969
0.210165
0.210431
0.210772
0.211194
0.2117
0.212295
0.212983
0.213767
0.214651
0.215637
0.216728
0.217927
0.219234
0.220653
0.222182
0.223824
0.225576
0.227439
0.229411
0.231491
0.233677
0.235966
0.238356
0.240846
0.243435
0.24612
0.248904
0.251787
0.254772
0.257866
0.261075
0.264407
0.267875
0.271491
0.275272
0.279234
0.283396
0.28778
0.292406
0.297296
0.30247
0.307948
0.313746
0.319877
0.326352
0.333173
0.340339
0.347839
0.355657
0.363766
0.372136
0.380722
0.38948
0.398349
0.407277
0.416184
0.425029
0.43373
0.441893
0.453439
0.211149
0.211228
0.211297
0.211354
0.211397
0.211426
0.211441
0.21144
0.211425
0.211395
0.21135
0.211293
0.211224
0.211144
0.211054
0.210955
0.210849
0.210735
0.210615
0.21049
0.21036
0.210226
0.210089
0.209949
0.209809
0.209669
0.209531
0.209396
0.209268
0.209148
0.209039
0.208944
0.208867
0.208813
0.208784
0.208785
0.208822
0.208899
0.209021
0.209194
0.209422
0.209711
0.210065
0.210491
0.210992
0.211573
0.212238
0.212991
0.213835
0.214774
0.21581
0.216944
0.218179
0.219514
0.22095
0.222485
0.224119
0.225849
0.227672
0.229586
0.231586
0.233669
0.235831
0.238067
0.240376
0.242754
0.245199
0.24771
0.250289
0.252939
0.255663
0.258468
0.261363
0.264358
0.267467
0.270704
0.274086
0.277632
0.281362
0.285296
0.289455
0.293859
0.29853
0.303483
0.308733
0.314292
0.320165
0.326355
0.332854
0.339652
0.346728
0.354055
0.3616
0.369318
0.377169
0.385083
0.393032
0.400936
0.408427
0.419177
0.208206
0.208294
0.208373
0.208444
0.208504
0.208554
0.208593
0.208621
0.208637
0.208642
0.208636
0.208621
0.208597
0.208565
0.208526
0.208482
0.208432
0.208379
0.208322
0.208264
0.208203
0.208142
0.20808
0.20802
0.207962
0.207906
0.207856
0.207811
0.207774
0.207746
0.207731
0.207729
0.207745
0.207782
0.207842
0.20793
0.208049
0.208203
0.208398
0.208638
0.208927
0.20927
0.209672
0.210137
0.21067
0.211275
0.211957
0.212718
0.213563
0.214493
0.215511
0.216618
0.217816
0.219103
0.22048
0.221944
0.223494
0.225127
0.226838
0.228623
0.230478
0.232398
0.234376
0.236409
0.238491
0.240619
0.242788
0.244997
0.247244
0.249531
0.251859
0.254234
0.256661
0.259148
0.261707
0.264348
0.267088
0.269943
0.272929
0.276066
0.279374
0.282873
0.286583
0.290523
0.29471
0.299161
0.303885
0.308892
0.314185
0.319761
0.325613
0.331723
0.338074
0.344631
0.351369
0.358229
0.365193
0.372191
0.378885
0.388632
0.205893
0.20598
0.206062
0.206137
0.206204
0.206264
0.206316
0.206359
0.206393
0.20642
0.206438
0.20645
0.206455
0.206455
0.206451
0.206443
0.206433
0.206422
0.206409
0.206398
0.206387
0.206378
0.206372
0.20637
0.206373
0.206382
0.206398
0.206423
0.206458
0.206504
0.206565
0.206642
0.206736
0.206852
0.206992
0.207159
0.207356
0.207588
0.207857
0.208168
0.208525
0.208933
0.209394
0.209914
0.210497
0.211145
0.211864
0.212655
0.213522
0.214467
0.215492
0.216597
0.217782
0.219048
0.220393
0.221814
0.223308
0.224872
0.226501
0.228191
0.229934
0.231726
0.23356
0.235431
0.237332
0.239258
0.241204
0.243168
0.245147
0.24714
0.249148
0.251173
0.25322
0.255295
0.257406
0.259564
0.261781
0.26407
0.266448
0.26893
0.271535
0.274282
0.27719
0.280278
0.283564
0.287064
0.290794
0.294767
0.29899
0.303468
0.308202
0.313185
0.318408
0.32385
0.329494
0.335296
0.341248
0.347288
0.353118
0.361726
0.204062
0.204144
0.204222
0.204295
0.204363
0.204426
0.204482
0.204533
0.204578
0.204616
0.204649
0.204678
0.204702
0.204723
0.204742
0.204759
0.204776
0.204793
0.204812
0.204834
0.204858
0.204888
0.204922
0.204963
0.205011
0.205068
0.205135
0.205213
0.205304
0.205408
0.205529
0.205668
0.205828
0.20601
0.206217
0.206452
0.206717
0.207017
0.207355
0.207733
0.208156
0.208626
0.209149
0.209726
0.210363
0.211061
0.211824
0.212655
0.213556
0.214527
0.215572
0.216689
0.217878
0.219138
0.220468
0.221864
0.223323
0.22484
0.22641
0.228027
0.229685
0.231378
0.233099
0.23484
0.236596
0.23836
0.240127
0.241893
0.243654
0.245409
0.247157
0.2489
0.250639
0.25238
0.25413
0.255896
0.257688
0.259519
0.261402
0.263351
0.265382
0.267512
0.26976
0.272141
0.274675
0.277377
0.280265
0.283352
0.286651
0.290169
0.293914
0.297884
0.30208
0.306489
0.311104
0.315891
0.320851
0.325933
0.330881
0.338285
0.202607
0.202681
0.202752
0.20282
0.202885
0.202946
0.203002
0.203055
0.203104
0.203149
0.20319
0.203228
0.203264
0.203298
0.203332
0.203366
0.203401
0.203438
0.203479
0.203524
0.203574
0.20363
0.203694
0.203766
0.203847
0.20394
0.204045
0.204163
0.204296
0.204445
0.204614
0.204802
0.205012
0.205247
0.205509
0.2058
0.206123
0.206481
0.206877
0.207313
0.207794
0.208322
0.2089
0.209532
0.210219
0.210966
0.211774
0.212646
0.213582
0.214584
0.215653
0.216789
0.217989
0.219253
0.220577
0.221959
0.223395
0.224878
0.226405
0.227967
0.229559
0.231173
0.232803
0.23444
0.236079
0.237712
0.239333
0.240938
0.242522
0.244084
0.245621
0.247133
0.248623
0.250094
0.25155
0.252999
0.254449
0.25591
0.257392
0.258909
0.260475
0.262103
0.263811
0.265614
0.267529
0.269571
0.271756
0.2741
0.276615
0.279312
0.282202
0.285287
0.288574
0.292055
0.295732
0.29958
0.303605
0.30777
0.311856
0.318055
0.201453
0.201517
0.201579
0.20164
0.201698
0.201754
0.201808
0.20186
0.201909
0.201955
0.202
0.202043
0.202086
0.202128
0.202171
0.202216
0.202263
0.202314
0.202369
0.20243
0.202497
0.202572
0.202657
0.202751
0.202857
0.202975
0.203108
0.203255
0.20342
0.203604
0.203808
0.204033
0.204284
0.20456
0.204865
0.2052
0.205569
0.205974
0.206418
0.206903
0.207432
0.208008
0.208634
0.209312
0.210045
0.210834
0.211683
0.212591
0.213561
0.214592
0.215685
0.216839
0.218052
0.219321
0.220645
0.222018
0.223437
0.224894
0.226386
0.227904
0.229442
0.230992
0.232547
0.234099
0.23564
0.237165
0.238666
0.240138
0.241577
0.242979
0.244343
0.245668
0.246955
0.248206
0.249425
0.250617
0.251789
0.25295
0.25411
0.255278
0.256468
0.257691
0.258962
0.260295
0.261705
0.263206
0.264813
0.266541
0.268403
0.27041
0.272574
0.274902
0.277401
0.280071
0.282916
0.285921
0.289094
0.292408
0.295686
0.300725
0.200544
0.200596
0.200649
0.2007
0.200751
0.200801
0.20085
0.200898
0.200945
0.20099
0.201036
0.201081
0.201126
0.201173
0.201221
0.201272
0.201327
0.201386
0.20145
0.201522
0.201601
0.201689
0.201787
0.201897
0.202019
0.202156
0.202308
0.202477
0.202665
0.202873
0.203103
0.203357
0.203636
0.203944
0.204281
0.204651
0.205055
0.205497
0.205977
0.2065
0.207068
0.207682
0.208346
0.209062
0.209831
0.210655
0.211536
0.212475
0.213471
0.214526
0.215639
0.216808
0.21803
0.219304
0.220626
0.221991
0.223394
0.224829
0.22629
0.227769
0.22926
0.230755
0.232245
0.233723
0.235182
0.236614
0.238014
0.239374
0.240691
0.241961
0.243182
0.244352
0.245472
0.246542
0.247567
0.248551
0.249499
0.250418
0.251317
0.252204
0.25309
0.253987
0.254905
0.255859
0.25686
0.257922
0.259058
0.260282
0.261606
0.263042
0.2646
0.266291
0.268122
0.270095
0.27222
0.274485
0.276902
0.27945
0.281993
0.285954
0.199836
0.199878
0.19992
0.199962
0.200005
0.200048
0.200091
0.200134
0.200177
0.20022
0.200264
0.200308
0.200354
0.200402
0.200453
0.200507
0.200566
0.200629
0.2007
0.200777
0.200864
0.20096
0.201067
0.201187
0.20132
0.201468
0.201633
0.201817
0.20202
0.202244
0.202492
0.202765
0.203066
0.203395
0.203756
0.20415
0.204579
0.205047
0.205555
0.206106
0.206701
0.207344
0.208036
0.208779
0.209574
0.210424
0.211328
0.212289
0.213305
0.214375
0.2155
0.216678
0.217904
0.219178
0.220493
0.221846
0.223231
0.224643
0.226073
0.227515
0.228962
0.230405
0.231836
0.233249
0.234634
0.235985
0.237296
0.23856
0.239772
0.24093
0.24203
0.24307
0.244051
0.244973
0.245838
0.246651
0.247416
0.248138
0.248826
0.249486
0.250129
0.250762
0.251398
0.252046
0.252718
0.253426
0.254182
0.254996
0.255882
0.25685
0.25791
0.259072
0.260344
0.261732
0.263244
0.264874