/*--------------------------------*- C++ -*----------------------------------*\
  =========                 |
  \\      /  F ield         | OpenFOAM: The Open Source CFD Toolbox
   \\    /   O peration     | Website:  https://openfoam.org
    \\  /    A nd           | Version:  10
     \\/     M anipulation  |
\*---------------------------------------------------------------------------*/
FoamFile
{
    format      ascii;
    class       volScalarField;
    location    "1800";
    object      nut;
}
// * * * * * * * * * * * * * * * * * * * * * * * * * * * * * * * * * * * * * //

dimensions      [0 2 -1 0 0 0 0];

internalField   nonuniform List<scalar> 
6820
(
5.21161e-05
7.23496e-05
8.49505e-05
9.1513e-05
9.44881e-05
9.54259e-05
9.52239e-05
9.44044e-05
9.3279e-05
9.20324e-05
9.07693e-05
8.95459e-05
8.83904e-05
8.73145e-05
8.63206e-05
8.54062e-05
8.45664e-05
8.3795e-05
8.30861e-05
8.24335e-05
8.18317e-05
8.12757e-05
8.07609e-05
8.02833e-05
7.98391e-05
7.94251e-05
7.90383e-05
7.86762e-05
7.83352e-05
7.80189e-05
7.76905e-05
7.74919e-05
7.66306e-05
0.00148779
0.000914493
0.000722323
0.000566085
0.000444964
0.000364553
0.000311028
0.000273876
0.000246823
0.000226541
0.000210742
0.000198385
0.000188225
0.000179921
0.000173043
0.000167267
0.000162375
0.000158201
0.000154617
0.000151526
0.000148846
0.000146516
0.000144481
0.0001427
0.000141136
0.000139761
0.000138547
0.000137472
0.00013651
0.000135659
0.000134891
0.000134219
0.000133164
0.00388235
0.00172611
0.00129522
0.00105715
0.000883653
0.000756982
0.000663655
0.000593355
0.000538662
0.00049523
0.000459793
0.0004305
0.000405787
0.000384675
0.000366437
0.000350536
0.000336549
0.000324169
0.000313133
0.000303254
0.00029436
0.000286329
0.000279043
0.000272418
0.000266374
0.00026084
0.000255769
0.000251102
0.000246801
0.000242832
0.00023912
0.000235696
0.000232336
0.00701486
0.0030933
0.00211865
0.00169399
0.00142842
0.00124177
0.00110356
0.000997707
0.000914036
0.000846515
0.000790841
0.000744244
0.000704627
0.000670539
0.000640856
0.000614798
0.000591689
0.000571092
0.000552562
0.000535856
0.000520648
0.00050682
0.000494101
0.000482469
0.000471665
0.000461751
0.000452447
0.000443902
0.000435788
0.000428342
0.000421169
0.0004146
0.000408123
0.00947863
0.00539463
0.00361892
0.00279676
0.00231358
0.00199145
0.00176049
0.00158676
0.00145105
0.00134224
0.00125305
0.0011787
0.00111573
0.00106176
0.00101494
0.000973976
0.000937767
0.00090559
0.000876723
0.000850758
0.000827177
0.000805768
0.00078612
0.000768154
0.000751509
0.000736208
0.000721906
0.000708704
0.000696258
0.000684723
0.000673761
0.00066355
0.000653755
0.0106282
0.0077634
0.00561755
0.00439956
0.00363522
0.00311496
0.00273997
0.0024579
0.00223821
0.00206258
0.00191909
0.00179982
0.00169916
0.00161315
0.00153881
0.00147397
0.00141689
0.00136632
0.00132113
0.00128061
0.00124396
0.00121076
0.00118045
0.00115275
0.00112725
0.00110379
0.00108202
0.00106189
0.00104307
0.00102557
0.00100911
0.000993708
0.000979137
0.0110845
0.00948062
0.00757881
0.00621461
0.00525
0.00454844
0.00402207
0.00361581
0.00329415
0.00303404
0.00281986
0.00264081
0.0024891
0.0023591
0.00224655
0.00214826
0.00206171
0.001985
0.00191652
0.0018551
0.00179967
0.00174945
0.0017037
0.00166192
0.00162355
0.00158827
0.00155564
0.00152545
0.00149737
0.00147123
0.00144678
0.00142391
0.00140241
0.0112619
0.0104723
0.00911496
0.00788286
0.00688557
0.00609514
0.00546645
0.00496065
0.00454794
0.00420654
0.00392047
0.003678
0.0034703
0.00329072
0.00313412
0.00299655
0.00287482
0.00276649
0.00266949
0.00258222
0.00250331
0.00243168
0.00236636
0.00230661
0.00225173
0.0022012
0.0021545
0.00211125
0.00207105
0.00203363
0.00199868
0.001966
0.00193534
0.0113319
0.0109613
0.0101483
0.00919368
0.00831236
0.00754597
0.00689415
0.00634289
0.00587564
0.00547744
0.00513576
0.00484048
0.00458348
0.00435829
0.00415971
0.00398356
0.00382644
0.00368558
0.0035587
0.00344393
0.00333968
0.00324463
0.00315767
0.00307785
0.00300436
0.00293651
0.0028737
0.0028154
0.00276116
0.00271059
0.00266334
0.0026191
0.00257761
0.0113604
0.011191
0.0107577
0.0101061
0.00941912
0.00876179
0.00816143
0.00762514
0.00715071
0.00673229
0.00636312
0.00603663
0.00574691
0.00548885
0.00525806
0.00505082
0.004864
0.00469496
0.00454144
0.00440155
0.00427365
0.00415637
0.00404851
0.00394905
0.00385709
0.00377186
0.00369269
0.00361899
0.00355024
0.00348598
0.00342581
0.00336938
0.00331638
0.0113724
0.0112961
0.0110835
0.0106835
0.0102001
0.00969075
0.00919015
0.00871655
0.00827791
0.00787637
0.00751101
0.00717947
0.00687877
0.00660587
0.00635782
0.00613193
0.00592576
0.00573714
0.00556417
0.00540517
0.00525867
0.00512337
0.00499814
0.00488199
0.00477404
0.0046735
0.00457971
0.00449204
0.00440996
0.00433299
0.00426071
0.00419273
0.00412873
0.0113776
0.0113432
0.0112429
0.0110225
0.0107093
0.010347
0.00996381
0.0095792
0.00920549
0.00884962
0.00851496
0.00820269
0.00791267
0.007644
0.0073954
0.00716543
0.00695261
0.00675551
0.00657276
0.0064031
0.00624537
0.00609853
0.00596162
0.00583378
0.00571422
0.00560226
0.00549726
0.00539866
0.00530594
0.00521865
0.00513636
0.00505871
0.00498536
0.01138
0.0113641
0.0113177
0.0112066
0.0110186
0.0107798
0.0105077
0.0102177
0.00992164
0.00962789
0.0093419
0.00906704
0.00880518
0.0085572
0.00832327
0.00810316
0.00789638
0.00770227
0.00752011
0.00734915
0.00718865
0.00703787
0.00689614
0.00676281
0.00663726
0.00651895
0.00640734
0.00630197
0.00620239
0.00610821
0.00601905
0.00593457
0.00585448
0.0113814
0.0113732
0.0113518
0.0112994
0.0111948
0.0110479
0.0108673
0.0106628
0.0104433
0.010216
0.00998659
0.00975918
0.00953663
0.00932089
0.00911314
0.00891408
0.00872401
0.00854299
0.00837088
0.00820745
0.00805235
0.00790523
0.0077657
0.00763336
0.00750781
0.00738866
0.00727555
0.00716812
0.00706604
0.00696899
0.00687668
0.00678883
0.00670518
0.0113823
0.0113772
0.011367
0.0113426
0.0112898
0.0112045
0.0110919
0.0109563
0.0108031
0.0106375
0.010464
0.0102863
0.0101076
0.00992993
0.00975512
0.00958437
0.0094185
0.00925805
0.00910337
0.0089546
0.0088118
0.00867491
0.00854383
0.00841839
0.00829842
0.00818371
0.00807405
0.00796922
0.007869
0.00777319
0.00768158
0.00759397
0.00751016
0.0113826
0.0113796
0.0113738
0.0113622
0.0113373
0.011291
0.0112247
0.0111398
0.0110388
0.0109247
0.0108005
0.0106691
0.0105329
0.0103941
0.0102543
0.010115
0.00997716
0.00984165
0.00970904
0.00957979
0.00945418
0.00933241
0.0092146
0.00910078
0.00899097
0.00888512
0.00878316
0.00868501
0.00859057
0.00849973
0.00841237
0.00832837
0.00824761
0.0113825
0.0113808
0.0113772
0.011371
0.0113592
0.0113362
0.0112992
0.0112488
0.0111857
0.0111111
0.0110267
0.0109344
0.0108358
0.0107325
0.0106261
0.0105178
0.0104085
0.0102992
0.0101906
0.0100832
0.00997743
0.00987368
0.00977219
0.00967315
0.00957669
0.0094829
0.00939182
0.00930348
0.00921788
0.009135
0.0090548
0.00897723
0.00890226
0.0113825
0.0113812
0.0113791
0.0113752
0.0113691
0.0113581
0.0113388
0.0113103
0.0112727
0.0112264
0.0111719
0.0111101
0.0110421
0.0109689
0.0108916
0.0108111
0.0107284
0.0106441
0.0105589
0.0104734
0.0103881
0.0103033
0.0102194
0.0101366
0.0100552
0.00997526
0.00989698
0.00982043
0.0097457
0.00967282
0.00960183
0.00953274
0.00946555
0.0113825
0.0113813
0.0113798
0.0113776
0.0113737
0.011368
0.0113586
0.0113433
0.0113219
0.0112944
0.0112608
0.0112213
0.0111765
0.011127
0.0110734
0.0110162
0.0109562
0.010894
0.01083
0.0107647
0.0106987
0.0106321
0.0105654
0.0104989
0.0104327
0.0103672
0.0103023
0.0102384
0.0101754
0.0101136
0.0100529
0.00999341
0.00993522
0.0113824
0.0113813
0.01138
0.0113785
0.0113762
0.0113727
0.0113676
0.0113599
0.0113483
0.0113326
0.0113127
0.0112886
0.0112604
0.0112283
0.0111927
0.0111538
0.0111121
0.011068
0.0110219
0.0109741
0.0109249
0.0108746
0.0108236
0.0107721
0.0107203
0.0106683
0.0106165
0.0105649
0.0105136
0.0104628
0.0104126
0.010363
0.0103142
0.0113824
0.0113813
0.0113801
0.0113788
0.0113773
0.0113751
0.0113721
0.0113676
0.0113616
0.0113531
0.0113418
0.0113275
0.0113104
0.0112904
0.0112677
0.0112423
0.0112145
0.0111844
0.0111524
0.0111186
0.0110833
0.0110467
0.011009
0.0109704
0.0109311
0.0108913
0.0108512
0.0108108
0.0107702
0.0107297
0.0106894
0.0106492
0.0106092
0.0113824
0.0113812
0.0113801
0.0113789
0.0113776
0.0113761
0.0113742
0.0113716
0.011368
0.0113633
0.0113572
0.0113489
0.0113389
0.0113268
0.0113127
0.0112967
0.0112787
0.0112588
0.0112373
0.0112141
0.0111895
0.0111636
0.0111365
0.0111083
0.0110793
0.0110495
0.0110191
0.0109882
0.0109568
0.0109252
0.0108933
0.0108613
0.0108293
0.0113824
0.0113812
0.0113801
0.0113789
0.0113778
0.0113765
0.0113751
0.0113734
0.0113712
0.0113684
0.0113646
0.01136
0.0113543
0.011347
0.0113384
0.0113284
0.0113169
0.0113039
0.0112896
0.0112739
0.0112569
0.0112387
0.0112193
0.011199
0.0111776
0.0111555
0.0111325
0.011109
0.0110848
0.0110601
0.011035
0.0110096
0.010984
0.0113824
0.0113812
0.0113801
0.0113789
0.0113778
0.0113766
0.0113754
0.0113741
0.0113726
0.0113707
0.0113683
0.0113653
0.0113615
0.0113571
0.0113517
0.0113452
0.0113376
0.0113288
0.0113189
0.0113078
0.0112957
0.0112824
0.0112681
0.0112528
0.0112366
0.0112195
0.0112017
0.0111831
0.0111638
0.011144
0.0111236
0.0111028
0.0110815
0.0113824
0.0113812
0.0113801
0.0113789
0.0113778
0.0113767
0.0113755
0.0113743
0.011373
0.0113715
0.0113696
0.0113674
0.0113644
0.0113609
0.011357
0.0113521
0.0113461
0.0113392
0.0113314
0.0113225
0.0113126
0.0113017
0.0112898
0.011277
0.0112633
0.0112488
0.0112334
0.0112173
0.0112006
0.0111832
0.0111652
0.0111467
0.0111278
0.0113824
0.0113812
0.0113801
0.0113789
0.0113778
0.0113766
0.0113755
0.0113742
0.0113729
0.0113712
0.0113693
0.0113668
0.0113637
0.0113601
0.011356
0.0113507
0.0113446
0.0113375
0.0113294
0.0113204
0.0113103
0.0112992
0.0112872
0.0112743
0.0112604
0.0112458
0.0112303
0.0112141
0.0111972
0.0111797
0.0111617
0.0111431
0.0111241
0.0113824
0.0113812
0.0113801
0.0113789
0.0113778
0.0113766
0.0113753
0.0113738
0.0113719
0.0113697
0.0113669
0.0113633
0.0113591
0.0113538
0.0113475
0.0113402
0.0113317
0.0113221
0.0113114
0.0112996
0.0112867
0.0112727
0.0112577
0.0112418
0.011225
0.0112073
0.0111889
0.0111698
0.0111501
0.0111298
0.011109
0.0110878
0.0110661
0.0113824
0.0113812
0.0113801
0.0113789
0.0113777
0.0113763
0.0113745
0.0113723
0.0113693
0.0113655
0.0113608
0.0113545
0.0113468
0.0113377
0.0113272
0.0113151
0.0113015
0.0112865
0.01127
0.0112523
0.0112333
0.0112132
0.011192
0.0111699
0.0111468
0.0111231
0.0110986
0.0110735
0.0110479
0.0110219
0.0109955
0.0109688
0.0109419
0.0113824
0.0113813
0.0113801
0.0113789
0.0113773
0.0113753
0.0113724
0.0113683
0.011363
0.0113555
0.0113458
0.0113338
0.0113196
0.0113031
0.0112845
0.0112637
0.0112409
0.0112163
0.01119
0.0111622
0.0111331
0.0111028
0.0110715
0.0110393
0.0110063
0.0109728
0.0109388
0.0109044
0.0108698
0.0108349
0.0108
0.0107651
0.0107302
0.0113825
0.0113813
0.0113801
0.0113784
0.011376
0.0113722
0.0113667
0.0113583
0.0113461
0.0113304
0.0113111
0.0112881
0.0112616
0.0112318
0.011199
0.0111635
0.0111257
0.0110857
0.011044
0.0110009
0.0109565
0.0109111
0.0108651
0.0108185
0.0107716
0.0107245
0.0106773
0.0106303
0.0105834
0.0105368
0.0104906
0.0104448
0.0103996
0.0113825
0.0113814
0.0113798
0.0113765
0.011372
0.011364
0.0113499
0.0113298
0.0113037
0.0112714
0.0112333
0.0111899
0.0111418
0.0110896
0.0110339
0.0109753
0.0109144
0.0108517
0.0107878
0.0107229
0.0106575
0.0105919
0.0105263
0.010461
0.0103962
0.010332
0.0102686
0.010206
0.0101444
0.0100837
0.0100242
0.0099658
0.00990853
0.0113826
0.011381
0.0113775
0.0113716
0.0113594
0.0113357
0.0113013
0.0112563
0.0112012
0.0111371
0.0110652
0.0109869
0.0109036
0.0108164
0.0107263
0.0106345
0.0105415
0.0104482
0.010355
0.0102625
0.0101709
0.0100807
0.00999191
0.00990485
0.0098196
0.00973626
0.0096549
0.00957556
0.00949825
0.00942298
0.00934974
0.00927851
0.00920925
0.0113825
0.0113788
0.0113715
0.0113527
0.0113123
0.0112512
0.0111713
0.0110751
0.0109656
0.0108458
0.0107187
0.0105868
0.0104521
0.0103163
0.0101807
0.0100464
0.0099142
0.00978462
0.0096581
0.00953494
0.00941533
0.00929938
0.00918713
0.0090786
0.00897374
0.0088725
0.00877479
0.00868053
0.0085896
0.00850191
0.00841733
0.00833576
0.00825708
0.0113813
0.0113725
0.0113446
0.0112755
0.0111624
0.0110161
0.0108447
0.0106562
0.0104574
0.0102539
0.0100496
0.00984759
0.00964987
0.00945783
0.00927233
0.00909388
0.00892271
0.00875888
0.00860229
0.00845278
0.00831011
0.00817402
0.00804421
0.00792039
0.00780227
0.00768953
0.00758191
0.00747912
0.00738091
0.00728701
0.0071972
0.00711125
0.00702895
0.0113782
0.0113392
0.0112229
0.0110038
0.0107266
0.0104167
0.0100938
0.00977089
0.00945631
0.00915473
0.00886847
0.00859844
0.00834473
0.0081069
0.00788423
0.00767584
0.00748081
0.00729817
0.00712704
0.00696653
0.00681584
0.00667422
0.00654096
0.00641543
0.00629704
0.00618527
0.00607962
0.00597963
0.00588492
0.0057951
0.00570983
0.0056288
0.00555172
0.0113586
0.011167
0.0107276
0.0101788
0.00961591
0.00907913
0.00858445
0.00813533
0.00773015
0.00736507
0.00703571
0.00673806
0.00646846
0.00622361
0.00600061
0.00579694
0.0056104
0.00543907
0.0052813
0.00513565
0.00500086
0.00487582
0.00475957
0.00465127
0.00455016
0.0044556
0.004367
0.00428383
0.00420563
0.004132
0.00406256
0.00399698
0.00393495
0.0112033
0.010286
0.00914597
0.00815386
0.00734259
0.00668178
0.00613782
0.00568278
0.00529723
0.00496618
0.00467943
0.0044291
0.00420901
0.00401425
0.00384087
0.00368569
0.0035461
0.00341996
0.00330548
0.00320118
0.0031058
0.00301828
0.00293771
0.00286334
0.00279448
0.00273057
0.00267111
0.00261566
0.00256384
0.00251531
0.00246977
0.00242698
0.00238668
0.00988212
0.00703463
0.00556295
0.00467247
0.00408052
0.00363708
0.00328471
0.0029951
0.00275426
0.00255229
0.00238143
0.00223562
0.00211013
0.00200124
0.00190603
0.00182219
0.00174786
0.00168155
0.00162207
0.00156843
0.00151982
0.00147559
0.00143516
0.00139808
0.00136394
0.00133242
0.00130323
0.00127611
0.00125086
0.00122729
0.00120523
0.00118456
0.00116514
0.00388335
0.00236715
0.00190983
0.00162451
0.00144089
0.0012837
0.00115041
0.00104218
0.000954484
0.000882868
0.000823744
0.000774364
0.00073264
0.000697014
0.000666296
0.000639586
0.000616175
0.000595518
0.000577169
0.000560784
0.000546068
0.000532798
0.00052077
0.000509835
0.000499846
0.000490702
0.000482292
0.00047455
0.000467386
0.000460761
0.000454595
0.000448871
0.000443515
0.000128162
0.00013943
0.0001503
0.000159954
0.000168408
0.000175845
0.000182401
0.000188179
0.000193265
0.000197736
0.000201662
0.000205105
0.00020812
0.000210755
0.000213053
0.000215055
0.000216795
0.000218302
0.000219604
0.000220726
0.000221688
0.000222509
0.000223205
0.000223792
0.000224282
0.000224687
0.000225016
0.000225279
0.000225484
0.000225637
0.000225745
0.000225813
0.000225846
8.35087e-05
0.00010044
0.000126641
0.000161804
0.000202472
0.000246456
0.000292513
0.000339363
0.00038554
0.000429828
0.000471131
0.000509282
0.000544665
0.000577852
0.000609511
0.000640157
0.000670228
0.000699857
0.000729213
0.000758252
0.000786975
0.00081535
0.000843449
0.000871282
0.00089893
0.000926482
0.000953967
0.000981421
0.00100885
0.00103629
0.00106373
0.00109117
0.00111886
0.00114666
0.00117449
0.00120236
0.00123028
0.00125829
0.00128635
0.00131463
0.00134318
0.00137204
0.00140129
0.00143099
0.00146125
0.00149219
0.00152398
0.00155676
0.0015907
0.00162599
0.00166283
0.00170145
0.00174206
0.00178489
0.00183019
0.00187817
0.00192907
0.00198309
0.00204043
0.00210124
0.00216567
0.00223381
0.00230572
0.00238139
0.00246079
0.00254383
0.00263037
0.00272022
0.00281316
0.0029089
0.00300719
0.00310764
0.00320998
0.00331373
0.0034187
0.00352427
0.00363034
0.00373634
0.00384192
0.00394681
0.00405059
0.00415293
0.00425341
0.00435191
0.00444804
0.00454155
0.00463219
0.00471982
0.00480413
0.00488521
0.00496248
0.00503664
0.00510629
0.0051735
0.00523436
0.00529605
0.00534581
0.00540607
0.00543975
0.00550925
0.000133076
0.000134681
0.000137665
0.000145159
0.000156322
0.000170618
0.000188317
0.000209304
0.000234631
0.000263882
0.000295356
0.000329319
0.000365122
0.000401831
0.000438908
0.000475853
0.000512388
0.000548073
0.000583018
0.000616835
0.000649642
0.000681505
0.000712684
0.00074319
0.00077319
0.000802826
0.000832114
0.000861133
0.000889943
0.000918618
0.000947219
0.00097576
0.00100434
0.001033
0.00106175
0.00109064
0.00111969
0.00114894
0.00117843
0.00120822
0.00123842
0.00126909
0.00130033
0.00133223
0.00136492
0.00139853
0.0014332
0.0014691
0.0015064
0.00154531
0.00158601
0.00162871
0.00167363
0.001721
0.00177101
0.00182389
0.00187982
0.00193897
0.00200151
0.00206754
0.00213715
0.00221039
0.00228725
0.00236767
0.00245159
0.00253883
0.00262924
0.00272256
0.0028186
0.002917
0.00301753
0.00311979
0.00322356
0.00332833
0.00343402
0.00353997
0.00364625
0.00375217
0.00385753
0.00396215
0.00406557
0.00416749
0.00426754
0.00436573
0.00446157
0.00455488
0.00464543
0.00473308
0.00481754
0.00489888
0.00497654
0.00505121
0.00512155
0.00518928
0.00525126
0.0053133
0.00536506
0.00542465
0.00546208
0.00553157
0.0002289
0.000225055
0.000220722
0.000217357
0.000215704
0.000215755
0.000217694
0.000221674
0.000228181
0.000238015
0.00025131
0.000268306
0.000288765
0.000312182
0.000338175
0.000366402
0.000396406
0.000427896
0.000460813
0.000492982
0.000525595
0.000558354
0.000591167
0.000623351
0.000655369
0.000687028
0.000718118
0.000748867
0.000779347
0.000809674
0.000839868
0.000869999
0.000900128
0.000930323
0.000960648
0.00099117
0.00102195
0.00105307
0.00108458
0.00111659
0.00114916
0.00118241
0.00121644
0.00125138
0.00128734
0.00132448
0.00136295
0.00140292
0.00144455
0.00148805
0.0015336
0.00158139
0.00163163
0.0016845
0.0017402
0.00179887
0.00186069
0.00192577
0.0019942
0.00206604
0.00214131
0.00221998
0.002302
0.00238723
0.00247555
0.00256674
0.0026606
0.00275685
0.00285527
0.0029555
0.00305733
0.00316036
0.00326441
0.00336899
0.00347416
0.00357914
0.00368437
0.0037888
0.00389261
0.00399564
0.00409736
0.00419752
0.00429588
0.00439259
0.00448695
0.00457894
0.00466834
0.00475502
0.00483869
0.00491941
0.00499665
0.00507108
0.0051414
0.00520894
0.00527149
0.00533326
0.00538667
0.00544489
0.00548586
0.00555468
0.000401255
0.000393433
0.000385307
0.000377578
0.000370732
0.000364582
0.000359199
0.000354514
0.000350854
0.000348175
0.000346889
0.000347129
0.000349509
0.000354064
0.000361454
0.00037152
0.000385022
0.000401356
0.000421469
0.000443972
0.000469164
0.000495364
0.000523851
0.000551822
0.000582382
0.00061177
0.000640858
0.000670955
0.000701452
0.000732241
0.00076307
0.000794127
0.000825389
0.000856923
0.000888798
0.000921087
0.000953861
0.000987201
0.00102119
0.00105592
0.00109148
0.00112799
0.00116556
0.00120431
0.00124439
0.00128594
0.0013291
0.00137405
0.00142095
0.00146997
0.00152129
0.00157507
0.00163149
0.00169068
0.00175279
0.00181793
0.00188619
0.00195762
0.00203225
0.00211007
0.002191
0.00227496
0.00236182
0.00245138
0.00254346
0.0026378
0.00273418
0.00283227
0.00293189
0.00303263
0.00313436
0.00323665
0.00333942
0.00344219
0.0035452
0.00364753
0.00375008
0.00385122
0.00395187
0.00405171
0.00415003
0.0042468
0.00434195
0.00443573
0.00452714
0.00461645
0.00470341
0.00478789
0.00486964
0.00494866
0.00502449
0.0050978
0.00516717
0.00523368
0.00529616
0.00535692
0.00541153
0.00546754
0.0055117
0.00557914
0.000643076
0.000631225
0.000619469
0.000608157
0.000597705
0.000587893
0.00057879
0.000570182
0.000562283
0.000554843
0.0005481
0.000541723
0.000536105
0.000530966
0.000526945
0.000523795
0.00052242
0.00052255
0.000525288
0.000530304
0.000538618
0.000549416
0.000563756
0.000580399
0.000600345
0.000622469
0.000647114
0.000671979
0.000699728
0.000727373
0.000755285
0.000784699
0.000814831
0.000845945
0.000878009
0.000911023
0.000945012
0.000980019
0.0010161
0.00105333
0.0010918
0.0011316
0.00117283
0.00121561
0.00126008
0.00130635
0.00135457
0.00140488
0.00145743
0.00151234
0.00156977
0.00162983
0.00169264
0.0017583
0.00182686
0.00189839
0.00197289
0.00205034
0.0021307
0.00221385
0.00229967
0.002388
0.00247862
0.00257131
0.00266583
0.00276189
0.00285924
0.00295755
0.00305665
0.00315612
0.00325593
0.00335557
0.00345512
0.00355415
0.00365304
0.00375076
0.00384876
0.00394441
0.00404015
0.00413488
0.00422778
0.00431942
0.00440953
0.00449837
0.0045853
0.00467034
0.00475335
0.00483419
0.00491265
0.00498869
0.00506195
0.00513278
0.0052004
0.00526509
0.00532649
0.00538537
0.0054406
0.00549341
0.00554019
0.00560565
0.000963169
0.000945689
0.00092871
0.000912401
0.000897124
0.000882708
0.000869219
0.000856441
0.000844537
0.000833234
0.000822695
0.000812579
0.000803129
0.000794029
0.000785655
0.000777732
0.000770755
0.000764503
0.000759557
0.000755622
0.000753452
0.000752773
0.000754382
0.00075798
0.000764331
0.000773062
0.000784985
0.000799218
0.000816566
0.000836453
0.000859161
0.000883356
0.000909651
0.000937952
0.000967904
0.000999496
0.00103273
0.00106761
0.00110417
0.00114246
0.00118253
0.00122446
0.00126831
0.00131418
0.00136217
0.00141237
0.00146489
0.00151982
0.00157727
0.00163732
0.00170006
0.00176555
0.00183384
0.00190495
0.00197889
0.00205561
0.00213507
0.00221715
0.00230173
0.00238863
0.00247767
0.0025686
0.00266118
0.00275512
0.00285015
0.00294595
0.00304228
0.00313879
0.00323535
0.00333146
0.00342729
0.00352215
0.0036164
0.00370965
0.00380235
0.00389342
0.00398485
0.00407345
0.00416146
0.00424867
0.0043344
0.00441891
0.00450207
0.00458408
0.0046646
0.00474358
0.00482091
0.00489647
0.00497009
0.00504167
0.00511099
0.00517807
0.00524271
0.00530442
0.00536379
0.00541982
0.00547429
0.00552397
0.00557185
0.00563518
0.00137886
0.00135327
0.00132866
0.00130509
0.00128285
0.00126181
0.00124202
0.00122329
0.00120571
0.00118907
0.00117345
0.00115859
0.00114463
0.00113135
0.00111899
0.00110736
0.00109676
0.00108702
0.00107847
0.00107092
0.00106476
0.00105983
0.00105652
0.00105479
0.00105496
0.001057
0.00106134
0.00106809
0.00107704
0.00108842
0.00110271
0.00111964
0.00113924
0.00116161
0.00118648
0.00121382
0.00124359
0.00127579
0.0013104
0.00134742
0.00138689
0.00142882
0.00147326
0.00152024
0.00156981
0.00162204
0.00167696
0.00173462
0.00179507
0.00185834
0.00192444
0.00199337
0.00206511
0.00213961
0.0022168
0.00229657
0.00237878
0.00246327
0.00254984
0.00263824
0.00272823
0.00281953
0.00291182
0.00300481
0.00309818
0.0031916
0.00328481
0.00337746
0.00346942
0.00356017
0.00365002
0.00373805
0.00382513
0.00391075
0.00399614
0.00407827
0.00416014
0.00423998
0.00431863
0.00439634
0.00447281
0.00454817
0.00462238
0.00469563
0.0047678
0.00483881
0.00490863
0.00497712
0.00504421
0.00510971
0.00517357
0.00523547
0.00529573
0.00535317
0.00540936
0.00546145
0.00551425
0.00555953
0.00560837
0.00566763
0.0019018
0.00186548
0.00183067
0.00179739
0.00176581
0.00173586
0.00170754
0.00168071
0.00165538
0.0016314
0.00160877
0.00158732
0.00156711
0.00154801
0.00153017
0.00151348
0.00149816
0.00148409
0.00147151
0.0014603
0.00145071
0.00144256
0.00143622
0.00143165
0.00142855
0.00142746
0.00142838
0.00143145
0.00143671
0.00144419
0.0014541
0.00146656
0.0014816
0.00149937
0.00151989
0.00154318
0.00156926
0.00159815
0.00162989
0.00166449
0.00170198
0.00174237
0.00178569
0.00183197
0.00188123
0.00193347
0.00198872
0.00204697
0.00210822
0.00217244
0.0022396
0.00230962
0.00238243
0.00245792
0.00253595
0.00261635
0.00269892
0.00278343
0.00286963
0.00295724
0.00304594
0.0031354
0.0032253
0.00331528
0.00340502
0.00349417
0.00358244
0.0036695
0.00375514
0.00383887
0.00392115
0.00400067
0.00408017
0.00415676
0.00423157
0.0043039
0.00437501
0.00444429
0.00451205
0.00457865
0.00464409
0.00470852
0.00477199
0.0048347
0.00489667
0.0049579
0.00501839
0.00507804
0.00513686
0.00519459
0.00525136
0.00530656
0.00536096
0.0054127
0.00546446
0.00551135
0.00556148
0.00560102
0.00565041
0.00570376
0.00253223
0.00248309
0.00243601
0.00239097
0.00234805
0.00230721
0.00226841
0.00223154
0.00219658
0.00216338
0.00213193
0.00210208
0.00207387
0.0020472
0.00202216
0.00199873
0.00197705
0.00195706
0.00193895
0.00192264
0.00190832
0.00189588
0.00188555
0.00187717
0.00187139
0.00186702
0.00186489
0.00186527
0.00186789
0.00187288
0.00188027
0.00189017
0.00190263
0.00191776
0.00193562
0.00195627
0.00197979
0.00200621
0.0020356
0.002068
0.00210344
0.00214197
0.00218361
0.00222838
0.00227631
0.00232739
0.00238161
0.00243895
0.00249938
0.00256282
0.00262922
0.00269845
0.0027704
0.00284491
0.00292178
0.00300081
0.00308175
0.00316433
0.00324824
0.00333316
0.00341875
0.00350463
0.00359047
0.00367586
0.00376047
0.00384394
0.00392594
0.00400614
0.00408422
0.0041598
0.00423348
0.00430563
0.00437434
0.00444065
0.00450478
0.00456627
0.00462586
0.00468347
0.00473931
0.00479374
0.00484694
0.00489915
0.00495051
0.00500125
0.00505152
0.00510139
0.00515095
0.00520014
0.00524906
0.00529741
0.00534551
0.00539245
0.00543951
0.00548409
0.00553005
0.00557042
0.00561676
0.00564922
0.00569844
0.00574416
0.00325834
0.00319538
0.00313496
0.00307703
0.00302162
0.00296868
0.00291818
0.00287
0.0028241
0.00278037
0.00273876
0.00269918
0.0026616
0.00262599
0.0025924
0.00256082
0.00253136
0.00250401
0.00247891
0.00245602
0.00243552
0.00241729
0.00240158
0.00238816
0.00237748
0.00236914
0.00236372
0.00236003
0.00235916
0.00236117
0.00236566
0.00237292
0.00238285
0.00239555
0.00241107
0.00242945
0.00245076
0.00247503
0.00250232
0.00253267
0.00256611
0.00260268
0.00264241
0.00268532
0.00273141
0.00278066
0.00283308
0.0028886
0.00294718
0.00300873
0.00307315
0.0031403
0.00321004
0.00328216
0.00335645
0.00343267
0.00351053
0.00358973
0.00366993
0.0037508
0.00383195
0.00391298
0.00399356
0.00407323
0.00415167
0.0042285
0.00430336
0.00437585
0.0044455
0.00451307
0.00457858
0.0046403
0.00469904
0.00475485
0.00480799
0.00485825
0.00490609
0.00495165
0.00499516
0.00503697
0.00507739
0.0051167
0.00515517
0.00519307
0.00523065
0.00526806
0.0053055
0.00534294
0.00538063
0.0054182
0.00545621
0.0054935
0.00553178
0.0055678
0.00560662
0.00563915
0.0056805
0.00570464
0.00575264
0.00578914
0.00405848
0.00398206
0.00390851
0.00383777
0.00376984
0.00370467
0.00364221
0.00358238
0.00352513
0.00347038
0.00341806
0.00336811
0.00332049
0.0032752
0.00323225
0.00319167
0.00315353
0.00311785
0.00308474
0.0030542
0.00302637
0.00300118
0.00297883
0.00295916
0.00294248
0.00292847
0.00291768
0.00290935
0.00290463
0.00290181
0.00290209
0.00290577
0.00291212
0.00292157
0.002934
0.00294942
0.00296791
0.00298948
0.00301414
0.00304193
0.00307287
0.00310697
0.00314425
0.0031847
0.00322832
0.00327508
0.00332494
0.00337785
0.00343373
0.00349247
0.00355395
0.00361801
0.00368448
0.00375314
0.00382375
0.00389603
0.0039697
0.00404442
0.00411984
0.0041956
0.00427128
0.00434651
0.00442094
0.00449404
0.00456557
0.00463509
0.00470214
0.00476624
0.00482809
0.00488742
0.00494287
0.00499498
0.00504374
0.00508916
0.00513145
0.0051706
0.0052069
0.00524059
0.00527194
0.00530129
0.00532899
0.0053554
0.00538084
0.00540566
0.00543017
0.00545461
0.00547928
0.0055042
0.00552975
0.00555556
0.00558238
0.00560888
0.00563721
0.00566345
0.00569388
0.00571738
0.0057525
0.00576728
0.00581269
0.00583865
0.00490462
0.00481648
0.00473131
0.00464909
0.00456978
0.00449337
0.0044198
0.00434904
0.00428101
0.00421568
0.00415298
0.00409288
0.00403534
0.00398038
0.003928
0.00387825
0.00383117
0.00378682
0.00374527
0.00370656
0.00367079
0.00363796
0.0036082
0.00358143
0.00355786
0.0035373
0.00352012
0.00350581
0.00349516
0.00348707
0.00348308
0.00348133
0.00348256
0.00348781
0.00349595
0.00350729
0.00352194
0.00353976
0.00356077
0.00358504
0.00361254
0.00364325
0.00367715
0.00371425
0.00375449
0.00379783
0.00384423
0.00389359
0.00394581
0.00400078
0.00405833
0.00411831
0.00418051
0.00424469
0.0043106
0.00437795
0.00444642
0.00451567
0.00458535
0.00465507
0.00472438
0.00479299
0.00486047
0.00492627
0.00499027
0.00505184
0.00511042
0.00516684
0.00522028
0.00526992
0.00531607
0.00535861
0.00539753
0.00543281
0.00546463
0.00549307
0.00551834
0.00554071
0.00556046
0.00557792
0.00559347
0.00560748
0.00562034
0.0056324
0.00564408
0.00565565
0.0056675
0.00567971
0.00569278
0.00570634
0.00572137
0.00573634
0.00575388
0.00576945
0.00579049
0.00580402
0.00583176
0.00583643
0.00587753
0.00589214
0.00576601
0.005669
0.00557485
0.00548356
0.0053951
0.00530948
0.00522666
0.00514663
0.00506935
0.00499479
0.00492292
0.00485373
0.00478721
0.00472337
0.00466224
0.00460385
0.00454828
0.00449557
0.0044458
0.00439902
0.00435532
0.00431472
0.00427734
0.00424315
0.00421231
0.00418469
0.00416056
0.00413962
0.00412232
0.00410811
0.00409766
0.00409037
0.00408646
0.00408618
0.0040885
0.00409474
0.00410453
0.00411742
0.00413367
0.00415335
0.00417632
0.00420252
0.00423196
0.00426461
0.0043004
0.00433926
0.00438112
0.00442586
0.00447336
0.00452349
0.00457606
0.00463089
0.00468777
0.00474641
0.00480658
0.00486796
0.00493024
0.00499302
0.00505602
0.00511874
0.0051808
0.00524199
0.00530174
0.00535947
0.00541535
0.0054682
0.00551912
0.00556644
0.00561049
0.00565096
0.00568775
0.00572077
0.00575
0.00577542
0.00579719
0.00581539
0.00583023
0.00584196
0.00585086
0.00585724
0.00586148
0.00586395
0.00586505
0.00586517
0.00586473
0.00586404
0.00586358
0.00586345
0.00586427
0.00586566
0.00586879
0.00587203
0.00587839
0.00588284
0.00589383
0.0058968
0.00591619
0.00591038
0.00594546
0.00594818
0.0066124
0.00651017
0.00641048
0.00631333
0.00621875
0.00612674
0.00603731
0.00595048
0.00586623
0.00578456
0.00570549
0.00562901
0.00555515
0.00548393
0.0054154
0.0053496
0.00528661
0.0052265
0.00516933
0.00511518
0.00506413
0.00501623
0.00497158
0.0049302
0.0048922
0.00485755
0.00482639
0.0047986
0.00477442
0.00475362
0.00473644
0.00472276
0.0047125
0.00470597
0.00470249
0.00470303
0.00470676
0.00471346
0.00472408
0.0047383
0.00475566
0.00477624
0.00480015
0.00482729
0.00485753
0.00489082
0.00492705
0.00496606
0.00500773
0.00505191
0.00509839
0.00514698
0.00519743
0.00524945
0.00530281
0.00535718
0.00541223
0.00546755
0.00552289
0.00557763
0.00563154
0.00568455
0.00573566
0.00578457
0.00583197
0.00587607
0.00591741
0.0059555
0.00599017
0.00602122
0.00604852
0.00607198
0.0060916
0.00610738
0.00611941
0.00612783
0.0061328
0.00613456
0.00613337
0.00612954
0.0061234
0.00611533
0.00610571
0.00609492
0.0060834
0.00607146
0.00605961
0.00604797
0.00603724
0.00602704
0.00601872
0.00601052