/*--------------------------------*- C++ -*----------------------------------*\
  =========                 |
  \\      /  F ield         | OpenFOAM: The Open Source CFD Toolbox
   \\    /   O peration     | Website:  https://openfoam.org
    \\  /    A nd           | Version:  10
     \\/     M anipulation  |
\*---------------------------------------------------------------------------*/
FoamFile
{
    format      ascii;
    class       volScalarField;
    location    "1800";
    object      omega;
}
// * * * * * * * * * * * * * * * * * * * * * * * * * * * * * * * * * * * * * //

dimensions      [0 0 -1 0 0 0 0];

internalField   nonuniform List<scalar> 
6820
(
6119.65
8495.53
9975.17
10745.8
11095.1
11205.2
11181.5
11085.3
10953.1
10806.8
10658.4
10514.8
10379.1
10252.8
10136.1
10028.7
9930.08
9839.51
9756.26
9679.64
9608.98
9543.69
9483.25
9427.16
9375
9326.39
9280.98
9238.46
9198.42
9161.23
9122.86
9103.56
9007.91
563.863
1593.66
2119
2485.29
2810.04
3047.21
3202.64
3297.99
3354.17
3382.65
3395.36
3394.5
3390.56
3382.3
3371.9
3361.06
3350.53
3340.71
3331.86
3324.05
3317.32
3311.61
3306.91
3303.09
3300.14
3297.94
3296.48
3295.77
3295.93
3296.81
3298.48
3302.71
3315.85
97.8512
383.672
612.514
783.212
925.913
1044.15
1139.72
1215.41
1275.18
1321.46
1357.38
1384.54
1405.16
1420.61
1432.05
1440.37
1446.35
1450.52
1453.38
1455.22
1456.39
1457.04
1457.38
1457.51
1457.54
1457.58
1457.64
1457.83
1458.16
1458.64
1459.56
1460.67
1463.03
35.0872
109.689
194.406
270.891
340.03
401.751
456.059
503.312
544.328
579.676
610.093
636.129
658.406
677.424
693.681
707.538
719.396
729.498
738.175
745.563
751.955
757.387
762.147
766.174
769.782
772.8
775.616
777.92
780.221
782.048
784.068
785.636
787.644
22.8645
46.9745
78.9736
111.645
143.697
174.308
202.955
229.406
253.676
275.805
295.908
314.101
330.539
345.356
358.716
370.737
381.575
391.322
400.124
408.039
415.21
421.659
427.531
432.81
437.65
441.999
446.024
449.636
453.025
456.068
458.97
461.594
464.154
19.4482
28.8211
42.7198
57.8276
73.3612
88.8416
103.932
118.422
132.214
145.248
157.503
168.976
179.69
189.667
198.948
207.564
215.566
222.981
229.865
236.24
242.162
247.646
252.748
257.474
261.881
265.966
269.787
273.334
276.665
279.765
282.692
285.429
288.03
18.2937
22.3026
29.0894
36.8342
45.0409
53.4276
61.8037
70.042
78.0649
85.8189
93.2712
100.401
107.2
113.664
119.8
125.611
131.112
136.309
141.22
145.855
150.231
154.358
158.256
161.93
165.403
168.678
171.776
174.701
177.472
180.093
182.582
184.941
187.188
17.8628
19.6407
23.1435
27.4253
32.1054
36.9869
41.946
46.901
51.7981
56.5997
61.2795
65.8193
70.2077
74.4371
78.5045
82.408
86.1494
89.7301
93.1547
96.4265
99.5514
102.534
105.38
108.095
110.686
113.157
115.515
117.765
119.914
121.965
123.927
125.801
127.596
17.6921
18.5022
20.2904
22.7591
25.5623
28.5575
31.6531
34.789
37.925
41.0328
44.0924
47.0892
50.0134
52.8576
55.6175
58.2898
60.8734
63.3675
65.7728
68.09
70.321
72.4675
74.5318
76.5162
78.4236
80.2562
82.0172
83.7091
85.3351
86.8975
88.3997
89.8437
91.2326
17.6213
17.9912
18.8824
20.3079
22.0195
23.9107
25.9093
27.9667
30.05
32.1359
34.208
36.254
38.2654
40.2359
42.1608
44.037
45.8624
47.6357
49.3562
51.0237
52.6384
54.201
55.7121
57.1728
58.5842
59.9475
61.2641
62.5354
63.7629
64.9479
66.092
67.1966
68.263
17.591
17.7573
18.1874
18.9891
20.029
21.2312
22.54
23.916
25.3312
26.7655
28.2045
29.6375
31.0566
32.4559
33.8312
35.1794
36.498
37.7854
39.0407
40.263
41.452
42.6077
43.7302
44.8198
45.8769
46.9021
47.8959
48.8592
49.7926
50.6969
51.5729
52.4214
53.243
17.5777
17.6499
17.8528
18.2782
18.8974
19.6531
20.5077
21.4311
22.4002
23.3977
24.4109
25.43
26.4478
27.4588
28.4588
29.4446
30.4138
31.3647
32.296
33.2067
34.0961
34.9639
35.8099
36.6339
37.4361
38.2166
38.9756
39.7136
40.4307
41.1275
41.8043
42.4615
43.0996
17.5717
17.6008
17.6934
17.9051
18.2597
18.7223
19.2706
19.8837
20.5439
21.2371
21.9523
22.6808
23.416
24.1527
24.8868
25.6153
26.3357
27.0462
27.7452
28.4318
29.105
29.7643
30.4092
31.0396
31.6551
32.2558
32.8417
33.4128
33.9692
34.5112
35.039
35.5526
36.0524
17.5685
17.5785
17.6181
17.7167
17.9085
18.1807
18.5221
18.92
19.3623
19.8384
20.3392
20.8575
21.3874
21.9242
22.4641
23.0041
23.5418
24.0753
24.6031
25.124
25.6371
26.1416
26.6369
27.1227
27.5987
28.0646
28.5202
28.9656
29.4007
29.8255
30.2401
30.6445
31.0388
17.5667
17.5684
17.5829
17.6262
17.7205
17.8733
18.0775
18.3273
18.6156
18.9354
19.2799
19.6435
20.0213
20.4092
20.8038
21.2024
21.6026
22.0027
22.4011
22.7965
23.1881
23.5749
23.9563
24.3318
24.7011
25.0637
25.4196
25.7684
26.11
26.4445
26.7717
27.0916
27.4042
17.5661
17.5629
17.5666
17.5833
17.6249
17.7047
17.8205
17.9706
18.1518
18.3599
18.5907
18.8401
19.1043
19.38
19.6645
19.9553
20.2503
20.5479
20.8466
21.1452
21.4427
21.7383
22.0312
22.321
22.6071
22.8892
23.167
23.4403
23.7087
23.9723
24.2309
24.4843
24.7326
17.5661
17.5601
17.5585
17.5631
17.5791
17.6155
17.6769
17.7623
17.8709
18.001
18.1502
18.3159
18.4957
18.6871
18.8878
19.096
19.31
19.5281
19.7492
19.9721
20.1959
20.4197
20.643
20.865
21.0854
21.3038
21.5197
21.7329
21.9431
22.1503
22.3541
22.5546
22.7515
17.5661
17.5591
17.5541
17.5533
17.5575
17.5711
17.5997
17.6448
17.7061
17.7833
17.8755
17.9813
18.0994
18.228
18.3657
18.511
18.6625
18.8191
18.9796
19.1431
19.3088
19.476
19.6439
19.8121
19.98
20.1473
20.3137
20.4787
20.6422
20.8039
20.9636
21.1213
21.2767
17.5662
17.5588
17.5523
17.5479
17.5469
17.5501
17.5603
17.5811
17.6128
17.6556
17.7093
17.7736
17.8477
17.9307
18.0218
18.1198
18.224
18.3333
18.4469
18.5641
18.6842
18.8066
18.9306
19.0559
19.1819
19.3083
19.4348
19.561
19.6867
19.8117
19.9358
20.0587
20.1804
17.5662
17.5587
17.5517
17.5456
17.5413
17.5397
17.5415
17.5482
17.5621
17.5834
17.6122
17.6487
17.6926
17.7435
17.801
17.8645
17.9334
18.0072
18.0851
18.1667
18.2515
18.3389
18.4285
18.5198
18.6126
18.7064
18.801
18.8961
18.9915
19.0869
19.1821
19.277
19.3714
17.5662
17.5587
17.5515
17.5447
17.5388
17.5344
17.5319
17.5324
17.5359
17.5442
17.5577
17.5764
17.6003
17.6295
17.6637
17.7028
17.7463
17.794
17.8455
17.9005
17.9585
18.0192
18.0822
18.1473
18.2142
18.2825
18.3521
18.4226
18.4938
18.5657
18.6379
18.7104
18.7829
17.5662
17.5587
17.5514
17.5444
17.5378
17.532
17.5272
17.5241
17.5231
17.5243
17.5283
17.5362
17.5475
17.5627
17.5815
17.604
17.63
17.6595
17.6921
17.7278
17.7663
17.8073
17.8507
17.8961
17.9434
17.9923
18.0428
18.0944
18.1472
18.2009
18.2553
18.3103
18.3659
17.5662
17.5587
17.5514
17.5442
17.5374
17.531
17.5251
17.5202
17.5164
17.5141
17.5138
17.5151
17.5189
17.5255
17.5347
17.5466
17.5613
17.5787
17.5987
17.6213
17.6464
17.6737
17.7032
17.7347
17.7681
17.8031
17.8398
17.8778
17.917
17.9574
17.9988
18.0411
18.084
17.5662
17.5587
17.5514
17.5442
17.5372
17.5306
17.5243
17.5185
17.5135
17.5094
17.5065
17.505
17.5052
17.5068
17.5105
17.5164
17.5245
17.5348
17.5473
17.5619
17.5787
17.5975
17.6184
17.6411
17.6656
17.6917
17.7195
17.7486
17.7791
17.8108
17.8436
17.8775
17.9121
17.5662
17.5587
17.5513
17.5442
17.5372
17.5304
17.524
17.518
17.5126
17.5078
17.5041
17.5014
17.5002
17.5004
17.5018
17.5051
17.5104
17.5177
17.5269
17.5381
17.5511
17.5661
17.583
17.6016
17.622
17.644
17.6675
17.6924
17.7187
17.7462
17.7749
17.8046
17.8352
17.5662
17.5587
17.5513
17.5442
17.5372
17.5305
17.5242
17.5183
17.5132
17.5088
17.5055
17.5034
17.5028
17.5035
17.5056
17.5097
17.5158
17.5238
17.5337
17.5456
17.5594
17.575
17.5925
17.6117
17.6326
17.6551
17.6791
17.7045
17.7311
17.759
17.788
17.8181
17.849
17.5662
17.5587
17.5513
17.5442
17.5374
17.5309
17.5251
17.52
17.5159
17.5131
17.5117
17.5122
17.5141
17.5183
17.5246
17.5331
17.5437
17.5566
17.5716
17.5888
17.608
17.6292
17.6522
17.677
17.7035
17.7316
17.7611
17.7919
17.824
17.8571
17.8913
17.9264
17.9624
17.5662
17.5587
17.5514
17.5444
17.5379
17.5322
17.5276
17.5243
17.523
17.5238
17.5267
17.5327
17.5416
17.5534
17.5681
17.5857
17.6061
17.6292
17.6549
17.6831
17.7135
17.7461
17.7806
17.817
17.855
17.8944
17.9353
17.9773
18.0204
18.0644
18.1092
18.1548
18.201
17.5662
17.5587
17.5516
17.5451
17.5396
17.5357
17.5342
17.5354
17.5395
17.5482
17.5612
17.5785
17.6003
17.6263
17.6565
17.6905
17.7282
17.7692
17.8134
17.8603
17.9097
17.9613
18.015
18.0703
18.1272
18.1853
18.2446
18.3048
18.3657
18.4273
18.4893
18.5516
18.6142
17.5662
17.5589
17.5522
17.5473
17.5446
17.5455
17.5504
17.5615
17.5798
17.605
17.6371
17.6761
17.7215
17.7729
17.8299
17.8918
17.9581
18.0284
18.102
18.1786
18.2577
18.3389
18.4217
18.506
18.5914
18.6776
18.7644
18.8516
18.939
19.0264
19.1138
19.2008
19.2875
17.5662
17.5594
17.5546
17.5542
17.558
17.5696
17.5932
17.6282
17.6749
17.7329
17.8016
17.8801
17.9674
18.0624
18.164
18.2714
18.3835
18.4996
18.6189
18.7408
18.8645
18.9897
19.1159
19.2426
19.3696
19.4965
19.6231
19.7491
19.8743
19.9987
20.122
20.2442
20.3651
17.5663
17.5617
17.563
17.5718
17.595
17.6401
17.7055
17.7911
17.8954
18.0165
18.1523
18.3006
18.4593
18.6266
18.8007
18.9802
19.1638
19.3502
19.5387
19.7283
19.9185
20.1085
20.2979
20.4864
20.6735
20.859
21.0426
21.2241
21.4034
21.5803
21.7548
21.9267
22.0961
17.5672
17.57
17.5859
17.6276
17.7109
17.8336
17.9919
18.1815
18.3976
18.6351
18.8897
19.1574
19.435
19.7198
20.0094
20.302
20.596
20.8902
21.1836
21.4753
21.7646
22.0511
22.3342
22.6137
22.8892
23.1606
23.4276
23.6903
23.9484
24.2019
24.4508
24.6951
24.9348
17.5716
17.5953
17.6662
17.8177
18.053
18.3543
18.7087
19.1036
19.5285
19.9745
20.4349
20.9044
21.3787
21.8548
22.33
22.8027
23.2712
23.7345
24.1917
24.6422
25.0854
25.521
25.9488
26.3685
26.7801
27.1836
27.5788
27.9659
28.3448
28.7157
29.0786
29.4337
29.7811
17.5854
17.6974
17.9699
18.4419
19.0443
19.7381
20.4917
21.2821
22.0933
22.9141
23.7366
24.5557
25.3673
26.1688
26.9583
27.7344
28.4962
29.243
29.9745
30.6904
31.3907
32.0753
32.7443
33.3978
34.0361
34.6594
35.2678
35.8617
36.4414
37.0072
37.5593
38.0981
38.6238
17.6522
18.1438
19.1451
20.4574
21.9286
23.4776
25.0548
26.6331
28.1966
29.7371
31.25
32.7322
34.182
35.5983
36.9807
38.3291
39.6436
40.9246
42.1725
43.3878
44.5711
45.723
46.8442
47.9354
48.9973
50.0307
51.0362
52.0146
52.9666
53.893
54.7944
55.6717
56.5255
18.0423
20.3419
23.6954
27.3243
30.967
34.5342
37.9952
41.351
44.6032
47.7618
50.8282
53.8045
56.6925
59.4942
62.2115
64.8462
67.4002
69.8754
72.2737
74.5972
76.8478
79.0276
81.1386
83.1829
85.1627
87.0798
88.9365
90.7346
92.4763
94.1634
95.7979
97.3817
98.9165
21.0783
32.2377
43.8847
55.0827
65.2654
74.7229
83.6608
92.2514
100.529
108.499
116.169
123.546
130.634
137.44
143.973
150.24
156.249
162.01
167.531
172.822
177.893
182.751
187.407
191.869
196.147
200.248
204.182
207.956
211.577
215.054
218.393
221.602
224.685
63.2893
131.146
179.994
220.948
253.72
286.903
320.749
353.551
384.645
413.765
440.836
465.897
489.06
510.453
530.221
548.492
565.403
581.067
595.601
609.098
621.66
633.356
644.277
654.473
664.025
672.967
681.373
689.262
696.705
703.706
710.338
716.588
722.534
1672.14
1819.15
1960.96
2086.92
2197.23
2294.25
2379.79
2455.18
2521.53
2579.87
2631.09
2676.01
2715.34
2749.72
2779.71
2805.83
2828.53
2848.19
2865.18
2879.82
2892.37
2903.08
2912.17
2919.82
2926.22
2931.5
2935.79
2939.23
2941.89
2943.89
2945.3
2946.18
2946.62
8816.21
8378.55
7887.57
7367.48
6860.8
6387.77
5952.73
5556.93
5197.38
4869.76
4574.03
4306.5
4063.83
3843.5
3642.77
3459.47
3291.28
3136.84
2994.35
2862.85
2741.26
2628.7
2524.11
2426.72
2335.65
2250.09
2169.41
2093
2020.37
1950.98
1884.42
1820.35
1758
1697.34
1638.19
1580.34
1523.6
1467.76
1412.76
1358.38
1304.53
1251.19
1198.37
1146.08
1094.39
1043.33
993.014
943.536
895.038
847.664
801.567
756.905
713.831
672.494
633.026
595.541
560.129
526.856
495.758
466.845
440.099
415.477
392.915
372.331
353.626
336.693
321.415
307.676
295.353
284.331
274.49
265.723
257.92
250.989
244.824
239.353
234.476
230.132
226.25
222.761
219.611
216.75
214.135
211.714
209.458
207.333
205.311
203.364
201.478
199.623
197.802
195.97
194.167
192.304
190.513
188.532
186.81
184.549
183.121
180.092
3315.44
3345.17
3426.62
3494.39
3565.3
3641.6
3709.97
3766.83
3790.04
3782
3754.41
3694.92
3608.52
3504
3386.81
3262.32
3134.35
3007.22
2882
2762.02
2647.49
2538.69
2435.09
2336.86
2243.53
2154.64
2070.03
1989.33
1912.16
1838.16
1766.98
1698.38
1631.99
1567.57
1504.92
1443.87
1384.27
1325.98
1268.91
1212.97
1158.11
1104.29
1051.52
999.822
949.25
899.872
851.771
805.045
759.8
716.147
674.197
634.056
595.82
559.57
525.37
493.264
463.273
435.395
409.607
385.864
364.104
344.247
326.203
309.87
295.142
281.909
270.058
259.481
250.068
241.72
234.332
227.819
222.084
217.057
212.643
208.794
205.415
202.468
199.889
197.618
195.614
193.835
192.243
190.791
189.456
188.208
187.022
185.873
184.748
183.621
182.495
181.328
180.156
178.908
177.682
176.279
175.038
173.358
172.274
169.943
1464.89
1470
1482.18
1495.15
1508.43
1526.12
1550.25
1583.15
1625.48
1675.23
1731.75
1791.11
1850.45
1907.1
1957.21
1997.16
2024.71
2037.72
2034.73
2023.52
1998.82
1963.3
1919.16
1870.36
1816.96
1761.09
1704.33
1646.87
1589.21
1531.66
1474.59
1418.17
1362.52
1307.7
1253.76
1200.72
1148.58
1097.38
1047.12
997.848
949.586
902.382
856.291
811.377
767.714
725.382
684.465
645.048
607.214
571.043
536.603
503.954
473.142
444.196
417.128
391.935
368.592
347.063
327.293
309.216
292.756
277.829
264.344
252.21
241.331
231.616
222.972
215.313
208.55
202.611
197.411
192.889
188.969
185.601
182.707
180.258
178.167
176.424
174.964
173.739
172.724
171.883
171.181
170.572
170.049
169.577
169.136
168.704
168.268
167.805
167.317
166.766
166.182
165.514
164.82
163.968
163.186
162.068
161.32
159.668
789.467
792.16
795.883
799.352
801.891
804.325
807.005
810.733
815.726
823.032
833.02
846.789
864.197
886.17
911.697
941.183
972.174
1004.8
1035.03
1063.77
1087.91
1108.89
1122.17
1132.17
1132.08
1128.97
1120.91
1106.21
1086.68
1063.28
1037.06
1008.34
977.708
945.584
912.332
878.273
843.685
808.811
773.866
739.039
704.502
670.41
636.905
604.119
572.172
541.177
511.234
482.436
454.86
428.576
403.636
380.081
357.936
337.212
317.905
300
283.466
268.264
254.347
241.657
230.134
219.713
210.327
201.91
194.393
187.712
181.803
176.607
172.062
168.121
164.724
161.832
159.389
157.363
155.693
154.37
153.31
152.537
151.972
151.589
151.376
151.298
151.322
151.408
151.561
151.741
151.932
152.114
152.274
152.393
152.468
152.465
152.414
152.274
152.067
151.727
151.372
150.786
150.358
149.349
466.884
469.984
473.172
476.151
478.58
480.645
482.335
483.89
485.233
486.713
488.295
490.48
493.188
496.997
501.69
507.9
515.191
524.191
534.132
545.453
557.066
569.429
581.005
592.29
601.635
609.39
614.545
618.647
618.893
617.686
614.428
608.15
599.617
588.829
576.067
561.614
545.741
528.708
510.759
492.123
473.012
453.618
434.12
414.678
395.44
376.535
358.078
340.171
322.901
306.338
290.542
275.556
261.413
248.131
235.718
224.173
213.484
203.633
194.595
186.34
178.834
172.042
165.926
160.447
155.568
151.251
147.457
144.156
141.306
138.884
136.849
135.182
133.844
132.817
132.053
131.561
131.258
131.207
131.297
131.536
131.924
132.415
132.989
133.615
134.287
134.978
135.672
136.35
136.998
137.6
138.149
138.622
139.025
139.343
139.572
139.69
139.72
139.624
139.497
139.079
290.882
294.022
297.094
300.019
302.652
305.03
307.126
309.018
310.652
312.14
313.44
314.706
315.881
317.136
318.382
319.802
321.286
323.029
324.906
327.165
329.603
332.434
335.383
338.597
341.723
344.844
347.492
349.867
351.457
352.319
352.148
351.335
349.503
346.614
342.765
337.96
332.232
325.644
318.278
310.228
301.598
292.497
283.035
273.319
263.453
253.535
243.654
233.894
224.328
215.019
206.023
197.386
189.143
181.324
173.949
167.03
160.574
154.583
149.053
143.976
139.341
135.135
131.343
127.949
124.936
122.286
119.982
118.007
116.341
114.974
113.879
113.055
112.469
112.115
111.961
112.02
112.22
112.631
113.173
113.834
114.613
115.484
116.432
117.43
118.467
119.524
120.585
121.632
122.652
123.629
124.553
125.408
126.186
126.887
127.485
127.997
128.376
128.69
128.853
128.952
189.678
192.422
195.097
197.678
200.105
202.377
204.481
206.438
208.225
209.877
211.375
212.765
214.021
215.188
216.228
217.185
218.015
218.769
219.401
219.975
220.447
220.882
221.241
221.561
221.812
222.021
222.122
222.098
221.986
221.72
221.182
220.385
219.287
217.835
216.043
213.891
211.365
208.462
205.189
201.562
197.605
193.353
188.844
184.121
179.23
174.219
169.137
164.028
158.937
153.906
148.972
144.169
139.526
135.069
130.816
126.787
122.992
119.441
116.14
113.092
110.298
107.757
105.465
103.42
101.615
100.045
98.7024
97.5827
96.6756
95.9818
95.4802
95.184
95.0596
95.1111
95.301
95.6912
96.2038
96.868
97.6561
98.5522
99.5509
100.637
101.796
103.011
104.268
105.552
106.847
108.139
109.412
110.654
111.849
112.99
114.055
115.057
115.95
116.785
117.453
118.121
118.519
119.087
129.599
131.818
133.992
136.11
138.147
140.096
141.949
143.71
145.37
146.937
148.404
149.783
151.063
152.254
153.338
154.323
155.187
155.939
156.556
157.055
157.413
157.656
157.753
157.722
157.608
157.366
157.01
156.54
155.964
155.288
154.499
153.591
152.561
151.397
150.094
148.648
147.054
145.309
143.412
141.365
139.171
136.84
134.382
131.812
129.147
126.406
123.609
120.778
117.934
115.1
112.295
109.541
106.854
104.253
101.751
99.3625
97.0979
94.9666
92.9761
91.1321
89.4389
87.8998
86.5163
85.2897
84.2198
83.3063
82.5477
81.9437
81.4913
81.1944
81.0372
81.0413
81.1481
81.4118
81.8072
82.3432
82.9938
83.7664
84.651
85.6365
86.7168
87.8818
89.1216
90.4229
91.7737
93.1616
94.5723
95.9935
97.4095
98.8101
100.177
101.507
102.77
103.989
105.098
106.181
107.073
108.031
108.613
109.585
92.7905
94.5253
96.2353
97.9142
99.5507
101.139
102.673
104.153
105.573
106.935
108.236
109.477
110.653
111.763
112.801
113.762
114.636
115.422
116.106
116.689
117.159
117.522
117.764
117.897
117.885
117.805
117.612
117.296
116.882
116.369
115.764
115.067
114.284
113.415
112.463
111.429
110.316
109.125
107.859
106.519
105.11
103.635
102.1
100.51
98.8739
97.1997
95.4969
93.7758
92.0472
90.3223
88.6122
86.928
85.2806
83.6802
82.1363
80.6578
79.2525
77.9276
76.6891
75.5424
74.4918
73.5414
72.6936
71.9514
71.3162
70.7897
70.373
70.0676
69.8753
69.7986
69.8254
69.9483
70.1979
70.5561
71.0202
71.5967
72.2754
73.0572
73.939
74.9143
75.9786
77.1256
78.3482
79.6374
80.9835
82.3766
83.8048
85.2578
86.7207
88.1854
89.6321
91.0615
92.4382
93.7914
95.0421
96.2965
97.3469
98.5261
99.2407
100.539
69.4638
70.8071
72.138
73.4526
74.7452
76.0119
77.2489
78.4545
79.6257
80.7618
81.8602
82.9204
83.9392
84.9148
85.8418
86.7172
87.534
88.2886
88.973
89.5851
90.1158
90.5664
90.9261
91.2028
91.3784
91.4697
91.4548
91.3822
91.2137
90.95
90.6113
90.1916
89.7002
89.1385
88.5104
87.8201
87.0712
86.2673
85.4123
84.5099
83.5638
82.5781
81.557
80.5052
79.4277
78.3296
77.2169
76.0955
74.9718
73.8524
72.744
71.6533
70.5869
69.5513
68.5527
67.5971
66.6897
65.8358
65.0399
64.306
63.638
63.0393
62.512
62.0597
61.6836
61.3861
61.1694
61.0363
60.991
61.0214
61.1273
61.3313
61.6231
62.0032
62.4701
63.028
63.674
64.4084
65.2303
66.1372
67.1265
68.1946
69.3372
70.5485
71.8215
73.149
74.5216
75.9312
77.3646
78.8162
80.2656
81.7169
83.1315
84.5443
85.8657
87.22
88.3657
89.695
90.498
92.0392
54.171
55.2132
56.2499
57.2789
58.297
59.3016
60.2903
61.2612
62.2126
63.143
64.0508
64.9347
65.7926
66.6226
67.4212
68.1858
68.9119
69.5962
70.2335
70.8209
71.3528
71.8278
72.2391
72.589
72.8682
73.0835
73.2214
73.3007
73.2934
73.2441
73.1243
72.929
72.6796
72.3685
72.0025
71.585
71.1185
70.6068
70.054
69.4632
68.8383
68.1831
67.5015
66.7974
66.0749
65.3382
64.5915
63.8393
63.086
62.3363
61.5948
60.866
60.1546
59.4649
58.8014
58.1682
57.5691
57.0079
56.4879
56.0123
55.5842
55.206
54.8796
54.6086
54.3935
54.2371
54.1423
54.1129
54.1397
54.2251
54.3844
54.6116
54.9083
55.276
55.7147
56.2273
56.814
57.4756
58.2126
59.0246
59.9108
60.8698
61.8993
62.9962
64.156
65.3742
66.6434
67.9585
69.3081
70.6889
72.0817
73.4931
74.8835
76.2922
77.623
79.0125
80.197
81.6086
82.4606
84.1592
43.8221
44.636
45.4485
46.2581
47.0629
47.8612
48.6513
49.4318
50.2014
50.9588
51.7029
52.4323
53.1457
53.8412
54.5168
55.1703
55.7987
56.3994
56.9689
57.5049
58.0033
58.4624
58.8779
59.2493
59.5717
59.8472
60.0682
60.2429
60.3577
60.4316
60.4384
60.4115
60.3393
60.2057
60.0321
59.8156
59.557
59.2613
58.931
58.5683
58.1764
57.7591
57.3193
56.8605
56.3859
55.899
55.4033
54.9023
54.3996
53.8988
53.4032
52.9165
52.442
51.9832
51.5432
51.1252
50.732
50.3666
50.0314
49.7289
49.4619
49.2315
49.0397
48.8902
48.7818
48.7189
48.7051
48.7312
48.8044
48.9317
49.1105
49.3425
49.6292
49.9725
50.3733
50.8338
51.3553
51.9392
52.5867
53.2987
54.0756
54.9173
55.8233
56.7923
57.822
58.9099
60.051
61.2424
62.475
63.7478
65.0432
66.3702
67.69
69.0445
70.3355
71.7061
72.8817
74.3142
75.1835
76.9566
36.6195
37.2603
37.9018
38.5431
39.1831
39.8205
40.4543
41.0833
41.7065
42.323
42.9319
43.5321
44.1226
44.702
45.2688
45.8214
46.3579
46.8762
47.374
47.8493
48.2996
48.723
49.1167
49.4795
49.8085
50.1037
50.3611
50.5834
50.7645
50.9108
51.0141
51.082
51.112
51.1021
51.066
50.9887
50.876
50.7355
50.5655
50.3675
50.1451
49.9012
49.6379
49.3576
49.0634
48.7578
48.4437
48.1242
47.8019
47.4798
47.1607
46.8472
46.5422
46.2484
45.9682
45.704
45.458
45.2328
45.0299
44.8519
44.7008
44.5763
44.4817
44.4199
44.3879
44.3937
44.4271
44.5006
44.611
44.7603
44.9497
45.1806
45.4545
45.7729
46.1374
46.5496
47.0112
47.5238
48.089
48.7082
49.3825
50.1129
50.8998
51.7432
52.6423
53.5964
54.6024
55.6591
56.7597
57.9051
59.0799
60.2951
61.5134
62.7789
63.9939
65.3038
66.4332
67.836
68.6956
70.4715
31.4872
31.9951
32.5051
33.0164
33.5283
34.04
34.5507
35.0595
35.5658
36.0688
36.5677
37.0618
37.5502
38.0321
38.5062
38.9715
39.4264
39.8697
40.2997
40.7148
41.1133
41.4936
41.8539
42.193
42.5088
42.8007
43.0665
43.3065
43.5181
43.7027
43.858
43.9848
44.0839
44.1528
44.1983
44.2119
44.2021
44.1721
44.1141
44.0323
43.9323
43.8148
43.6802
43.531
43.3698
43.1983
43.019
42.8344
42.6466
42.4578
42.2704
42.0865
41.9083
41.7383
41.5779
41.4293
41.2943
41.1751
41.0724
40.9893
40.9263
40.8823
40.863
40.8689
40.8937
40.9489
41.0294
41.1379
41.275
41.4419
41.6399
41.87
42.1335
42.432
42.7666
43.139
43.5508
44.0036
44.499
45.0387
45.624
46.2564
46.9369
47.6664
48.4451
49.2733
50.1493
51.0737
52.0412
53.0544
54.1
55.1905
56.2911
57.4466
58.5628
59.7831
60.8399
62.1744
63.0011
64.7251
27.7604
28.1651
28.5725
28.9821
29.3935
29.8061
30.2192
30.6323
31.0449
31.4563
31.866
32.2734
32.6779
33.0787
33.4751
33.8662
34.2511
34.6286
34.9977
35.3572
35.7059
36.0426
36.3659
36.6748
36.9679
37.2445
37.5032
37.7435
37.9642
38.1651
38.3455
38.5048
38.6438
38.7609
38.8587
38.9351
38.9918
39.0309
39.0521
39.0514
39.0406
39.0144
38.9728
38.9197
38.8568
38.7851
38.7069
38.6242
38.5382
38.4508
38.364
38.2795
38.199
38.1247
38.0572
37.9985
37.9504
37.9143
37.8906
37.8834
37.8899
37.91
37.9506
38.0102
38.0863
38.1833
38.3006
38.4393
38.6
38.7836
38.9909
39.223
39.481
39.7659
40.0789
40.4214
40.7949
41.2007
41.6404
42.1155
42.6277
43.1784
43.769
44.4008
45.0744
45.7911
46.5501
47.3528
48.1955
49.082
50.0008
50.9653
51.9439
52.9807
53.9869
55.101
56.069
57.3093
58.0858
59.7179
25.0162
25.3393
25.6656
25.9946
26.3261
26.6596
26.9947
27.3309
27.6678
28.005
28.3421
28.6786
29.0139
29.3477
29.6793
30.008
30.3333
30.6543
30.9702
31.2802
31.5834
31.8789
32.1657
32.4431
32.7101
32.9659
33.2096
33.4408
33.6584
33.8622
34.0517
34.2263
34.3862
34.5308
34.6608
34.7757
34.876
34.9624
35.0361
35.0951
35.1432
35.1807
35.2075
35.2251
35.2351
35.2378
35.236
35.2308
35.2224
35.2131
35.2042
35.197
35.1933
35.1945
35.2002
35.2132
35.2348
35.2658
35.3066
35.3592
35.4238
35.4997
35.5897
35.6947
35.8134
35.9476
36.0975
36.2638
36.447
36.6476
36.8663
37.104
37.3613
37.6392
37.9388
38.261
38.607
38.9781
39.3757
39.8011
40.2559
40.7415
41.2592
41.8107
42.3968
43.0191
43.6774
44.3738
45.1055
45.8771
46.6788
47.5245
48.3852
49.3042
50.1988
51.2004
52.0724
53.2044
53.9196
55.4336
22.977
23.2348
23.496
23.7603
24.0275
24.2972
24.5692
24.843
25.1184
25.3951
25.6726
25.9508
26.2291
26.5073
26.7848
27.0613
27.3362
27.609
27.879
28.1458
28.4087
28.6669
28.9199
29.167
29.4075
29.6408
29.8663
30.0835
30.2918
30.4908
30.6802
30.8594
31.0286
31.1872
31.3356
31.4736
31.6014
31.7192
31.8278
31.9268
32.0173
32.1002
32.1759
32.2451
32.3089
32.3678
32.4233
32.4766
32.5283
32.5796
32.6317
32.6856
32.7425
32.8036
32.8692
32.9406
33.019
33.105
33.1991
33.3025
33.4156
33.5383
33.6715
33.8163
33.9723
34.1401
34.3202
34.5127
34.718
34.9366
35.1689
35.4155
35.6769
35.9539
36.2471
36.5574
36.8858
37.2332
37.6008
37.9899
38.4016
38.8375
39.2986
39.7865
40.3023
40.8477
41.4227
42.0298
42.6668
43.3389
44.0373
44.7762
45.5292
46.3381
47.1262
48.0173
48.7934
49.8126
50.4613
51.8437
21.4552
21.6602
21.8687
22.0805
22.2954
22.5132
22.7336
22.9565
23.1815
23.4085
23.637
23.867
24.0981
24.3301
24.5625
24.7952
25.0277
25.2596
25.4905
25.7201
25.9477
26.1731
26.3956
26.6149
26.8304
27.0417
27.2483
27.4499
27.6459
27.8362
28.0204
28.1981
28.3694
28.534
28.6918
28.843
28.9875
29.1255
29.2574
29.3833
29.5036
29.619
29.73
29.8369
29.9407
30.0418
30.1411
30.2395
30.3377
30.4365
30.5368
30.6394
30.7451
30.8548
30.9691
31.0886
31.2142
31.3464
31.4856
31.6323
31.7871
31.9502
32.1217
32.3023
32.4919
32.6908
32.8992
33.1171
33.3448
33.5824
33.8304
34.0891
34.3588
34.6399
34.933
35.2388
35.5578
35.891
36.2392
36.6034
36.9847
37.3843
37.8032
38.2429
38.7044
39.1892
39.6977
40.2325
40.7916
41.3805
41.9913
42.6381
43.2967
44.0071
44.6987
45.4869
46.1725
47.082
47.6639
48.9114
20.3208
20.4827
20.6482
20.8172
20.9894
21.1647
21.3429
21.5239
21.7075
21.8934
22.0816
22.2717
22.4637
22.6572
22.8521
23.0481
23.245
23.4425
23.6403
23.8381
24.0356
24.2324
24.4283
24.6228
24.8157
25.0065
25.1951
25.3811
25.5642
25.7442
25.9209
26.094
26.2635
26.4292
26.5911
26.7493
26.9037
27.0545
27.2019
27.3461
27.4874
27.6262
27.7629
27.8979
28.0318
28.165
28.2981
28.4317
28.5665
28.703
28.842
28.984
29.1296
29.2795
29.4341
29.5939
29.7595
29.9311
30.109
30.2936
30.4852
30.6839
30.8899
31.1032
31.324
31.5522
31.7879
32.0308
32.281
32.5389
32.8046
33.0781
33.3596
33.6493
33.9476
34.2549
34.5717
34.8986
35.2362
35.5855
35.9471
36.3221
36.7114
37.1163
37.5375
37.9767
38.434
38.9122
39.4094
39.9311
40.4702
41.0404
41.6192
42.2449
42.8524
43.5489
44.1529
44.9611
45.4796
46.5974
19.4808
19.6077
19.7382
19.8722
20.0095
20.1501
20.2938
20.4405
20.59
20.7423
20.8971
21.0545
21.2141
21.3759
21.5397
21.7053
21.8726
22.0413
22.2114
22.3825
22.5544
22.727
22.9
23.0731
23.2462
23.4191
23.5914
23.763
23.9338
24.1036
24.2721
24.4394
24.6053
24.7698
24.9328
25.0944
25.2547
25.4138
25.5717
25.7288
25.8853
26.0413
26.1974
26.3537
26.5108
26.6691
26.8288
26.9905
27.1548
27.322
27.4927
27.6673
27.8463
28.0301
28.219
28.4134
28.6135
28.8196
29.0315
29.2498
29.4745
29.7057
29.9433
30.1873
30.4375
30.6939
30.9563
31.224
31.4974
31.7769
32.0621
32.3529
32.6494
32.9516
33.2596
33.5737
33.8943
34.2216
34.5563
34.8988
35.2499
35.6103
35.9807
36.3622
36.7555
37.162
37.5819
38.0176
38.4675
38.9371
39.4193
39.928
40.4417
40.9973
41.5339
42.152
42.6851
43.4037
43.8649
44.8637
18.8675
18.9663
19.0687
19.1745
19.2837
19.3961
19.5119
19.6307
19.7526
19.8775
20.0053
20.1359
20.2692
20.4051
20.5435
20.6843
20.8274
20.9726
21.1198
21.2689
21.4198
21.5723
21.7263
21.8816
22.038
22.1956
22.354
22.5133
22.6733
22.8338
22.9949
23.1565
23.3186
23.481
23.644
23.8075
23.9716
24.1364
24.3021
24.4688
24.6368
24.8064
24.9777
25.1511
25.327
25.5055
25.6871
25.872
26.0609
26.254
26.4516
26.6542
26.862
27.0752
27.2942
27.5191
27.75
27.9869
28.2295
28.4786
28.7341
28.9958
29.2633
29.5366
29.8153
30.0993
30.3882
30.6825
30.9817
31.2856
31.5934
31.9051
32.2204
32.5393
32.8618
33.188
33.518
33.852
34.1905
34.5336
34.882
35.2363
35.5969
35.9648
36.3403
36.725
37.1188
37.524
37.939
38.3691
38.8076
39.268
39.7297
40.2285
40.7067
41.2592
41.732
42.3734
42.784
43.6781
18.4311
18.5079
18.5882
18.6719
18.7589
18.8493
18.9429
19.0398
19.1399
19.2432
19.3496
19.459
19.5714
19.6868
19.8051
19.9262
20.05
20.1766
20.3057
20.4374
20.5716
20.7081
20.847
20.9881
21.1313
21.2767
21.4241
21.5734
21.7248
21.878
22.0332
22.1902
22.3492
22.5102
22.6732
22.8383
23.0056
23.1753
23.3475
23.5225
23.7003
23.8813
24.0657
24.2537
24.4457
24.6417
24.8421
25.0473
25.2578
25.4738
25.6954
25.9229
26.1566
26.3965
26.6429
26.8957
27.1551
27.4212
27.6944
27.9746
28.2612
28.5537
28.8519
29.1555
29.4641
29.7773
30.0948
30.4165
30.7411
31.068
31.3976
31.7297
32.0642
32.4008
32.7395
33.0802
33.4229
33.7676
34.1146
34.464
34.8161
35.1714
35.5302
35.8933
36.2608
36.6342
37.013
37.3998
37.7924
38.1966
38.605
39.0317
39.4559
39.9131
40.3475
40.8502
41.2765
41.8557
42.2241
43.0294
18.1349
18.1955
18.2594
18.3265
18.3971
18.4709
18.548
18.6285
18.7123
18.7993
18.8897
18.9833
19.0801
19.1801
19.2833
19.3897
19.4992
19.6119
19.7276
19.8464
19.9681
20.0929
20.2207
20.3514
20.4851
20.6217
20.7613
20.9037
21.0492
21.1976
21.349
21.5035
21.6611
21.8219
21.9861
22.1538
22.325
22.4999
22.6788
22.8618
23.0492
23.2411
23.4378
23.6395
23.8466
24.0593
24.2781
24.5034
24.7353
24.9739
25.2193
25.4717
25.7312
25.9979
26.2719
26.5531
26.8415
27.1371
27.4397
27.7475
28.0613
28.3811
28.7064
29.0371
29.3726
29.7126
30.0565
30.4039
30.7546
31.1079
31.4633
31.8203
32.1786
32.5379
32.8979
33.2584
33.6193
33.9805
34.3419
34.7038
35.0661
35.4293
35.7934
36.1592
36.5266
36.8969
37.2693
37.6467
38.0264
38.4144
38.8029
39.2064
39.6036
40.0304
40.4315
40.896
41.2852
41.8171
42.153
42.8899
17.9535
18.0033
18.0563
18.1125
18.172
18.2348
18.3009
18.3704
18.4433
18.5195
18.5991
18.6821
18.7686
18.8585
18.9517
19.0485
19.1486
19.2522
19.3593
19.4698
19.5838
19.7013
19.8224
19.947
20.0751
20.2069
20.3424
20.4816
20.6246
20.7715
20.9223
21.0773
21.2364
21.3998
21.5677
21.7402
21.9176
22.0999
22.2874
22.4804
22.679
22.8835
23.0941
23.3111
23.5348
23.7653
24.0032
24.2477
24.4994
24.7585
25.0254
25.3001
25.5828
25.8734
26.172
26.4786
26.7929
27.1149
27.4445
27.7814
28.1251
28.475
28.8309
29.1923
29.5585
29.9292
30.3036
30.6813
31.0617
31.4443
31.8285
32.2136
32.5992
32.9849
33.3703
33.7549
34.1386
34.5211
34.9023
35.2822
35.6606
36.0379
36.4138
36.7892
37.1637
37.5386
37.9128
38.2893
38.6649
39.0462
39.4243
39.8149
40.1953
40.6029
40.9812
41.4196
41.7818
42.2787
42.5892
43.2729