/*--------------------------------*- C++ -*----------------------------------*\
  =========                 |
  \\      /  F ield         | OpenFOAM: The Open Source CFD Toolbox
   \\    /   O peration     | Website:  https://openfoam.org
    \\  /    A nd           | Version:  10
     \\/     M anipulation  |
\*---------------------------------------------------------------------------*/
FoamFile
{
    format      ascii;
    class       volScalarField;
    location    "1800";
    object      p;
}
// * * * * * * * * * * * * * * * * * * * * * * * * * * * * * * * * * * * * * //

dimensions      [0 2 -2 0 0 0 0];

internalField   nonuniform List<scalar> 
6820
(
6.39936
-4.49045
-8.00966
-8.74324
-9.14455
-9.48309
-9.67556
-9.77202
-9.83745
-9.89191
-9.93614
-9.97187
-10.0024
-10.0298
-10.0547
-10.0776
-10.099
-10.1191
-10.1382
-10.1565
-10.174
-10.1908
-10.2071
-10.2227
-10.2378
-10.2523
-10.2661
-10.2789
-10.2906
-10.3007
-10.3074
-10.3122
-10.2973
-15.4886
-11.8106
-11.0658
-10.2965
-9.93175
-9.86535
-9.86361
-9.86744
-9.88552
-9.91471
-9.94546
-9.97412
-10.0009
-10.0264
-10.0503
-10.0727
-10.0939
-10.114
-10.1332
-10.1516
-10.1693
-10.1863
-10.2027
-10.2186
-10.2339
-10.2486
-10.2627
-10.2761
-10.2884
-10.2997
-10.3089
-10.3182
-10.3219
-13.34
-9.7659
-9.51059
-9.5125
-9.50625
-9.60468
-9.70536
-9.7731
-9.82759
-9.87746
-9.92075
-9.95735
-9.98924
-10.0179
-10.0439
-10.0678
-10.0899
-10.1107
-10.1304
-10.1491
-10.1671
-10.1843
-10.2009
-10.217
-10.2325
-10.2474
-10.2618
-10.2755
-10.2885
-10.3008
-10.312
-10.3241
-10.3347
-10.8509
-9.39178
-9.54247
-9.65858
-9.64321
-9.69853
-9.7691
-9.81779
-9.85782
-9.89674
-9.93253
-9.96421
-9.99281
-10.0192
-10.0437
-10.0666
-10.088
-10.1084
-10.1278
-10.1464
-10.1642
-10.1814
-10.1981
-10.2142
-10.2299
-10.245
-10.2597
-10.2739
-10.2877
-10.3011
-10.3142
-10.3285
-10.3431
-10.3915
-9.69411
-9.73458
-9.75079
-9.70655
-9.7342
-9.78653
-9.82761
-9.86375
-9.89987
-9.93388
-9.96462
-9.99269
-10.0187
-10.0429
-10.0656
-10.087
-10.1073
-10.1266
-10.1451
-10.163
-10.1802
-10.1969
-10.2131
-10.2289
-10.2442
-10.2592
-10.2739
-10.2883
-10.3026
-10.3172
-10.333
-10.3502
-10.3261
-9.85097
-9.80486
-9.78289
-9.74409
-9.76261
-9.80431
-9.8408
-9.8743
-9.90778
-9.93962
-9.96883
-9.99577
-10.0209
-10.0444
-10.0666
-10.0875
-10.1075
-10.1265
-10.1449
-10.1625
-10.1797
-10.1963
-10.2125
-10.2284
-10.2439
-10.2591
-10.2741
-10.2891
-10.3043
-10.32
-10.337
-10.3557
-10.2108
-9.88477
-9.83265
-9.80989
-9.78098
-9.79361
-9.82604
-9.85735
-9.88741
-9.91775
-9.94704
-9.97443
-10
-10.0241
-10.0468
-10.0683
-10.0888
-10.1084
-10.1271
-10.1452
-10.1628
-10.1798
-10.1964
-10.2125
-10.2284
-10.2441
-10.2595
-10.2749
-10.2904
-10.3062
-10.3227
-10.3405
-10.3599
-10.1047
-9.89965
-9.85717
-9.83697
-9.81466
-9.82294
-9.84792
-9.87439
-9.90108
-9.92845
-9.95533
-9.9809
-10.0051
-10.0281
-10.05
-10.0709
-10.0908
-10.1099
-10.1284
-10.1462
-10.1635
-10.1804
-10.1969
-10.213
-10.2289
-10.2447
-10.2603
-10.276
-10.2918
-10.3081
-10.3251
-10.3433
-10.363
-10.0357
-9.91288
-9.87734
-9.85931
-9.84249
-9.84846
-9.86817
-9.89076
-9.91455
-9.93932
-9.964
-9.98788
-10.0108
-10.0327
-10.0537
-10.0739
-10.0933
-10.112
-10.1301
-10.1476
-10.1647
-10.1814
-10.1978
-10.2139
-10.2298
-10.2456
-10.2613
-10.2772
-10.2933
-10.3098
-10.3271
-10.3455
-10.3651
-9.99342
-9.92152
-9.89209
-9.87695
-9.86509
-9.87015
-9.88631
-9.90595
-9.92732
-9.94986
-9.97262
-9.99493
-10.0166
-10.0375
-10.0577
-10.0772
-10.0961
-10.1143
-10.132
-10.1493
-10.1661
-10.1826
-10.1989
-10.2149
-10.2308
-10.2466
-10.2624
-10.2783
-10.2946
-10.3113
-10.3287
-10.3469
-10.3663
-9.96761
-9.92657
-9.9034
-9.89141
-9.88364
-9.88847
-9.90226
-9.91965
-9.93904
-9.95971
-9.98081
-10.0017
-10.0223
-10.0422
-10.0617
-10.0805
-10.0988
-10.1167
-10.134
-10.151
-10.1676
-10.1839
-10.2
-10.2159
-10.2317
-10.2475
-10.2634
-10.2793
-10.2956
-10.3123
-10.3296
-10.3477
-10.3666
-9.95279
-9.93016
-9.91281
-9.90371
-9.89909
-9.90399
-9.91615
-9.93183
-9.94959
-9.96869
-9.98835
-10.0081
-10.0276
-10.0467
-10.0654
-10.0837
-10.1015
-10.1189
-10.1359
-10.1526
-10.169
-10.1851
-10.201
-10.2168
-10.2326
-10.2483
-10.2641
-10.28
-10.2962
-10.3128
-10.3299
-10.3476
-10.366
-9.94546
-9.93351
-9.92107
-9.9145
-9.91224
-9.91729
-9.92828
-9.9426
-9.959
-9.97675
-9.99518
-10.0138
-10.0324
-10.0507
-10.0688
-10.0865
-10.1038
-10.1208
-10.1375
-10.1539
-10.1701
-10.186
-10.2018
-10.2175
-10.2331
-10.2487
-10.2644
-10.2802
-10.2963
-10.3127
-10.3295
-10.3467
-10.3645
-9.94308
-9.93712
-9.9286
-9.92418
-9.92367
-9.92887
-9.93898
-9.95216
-9.96738
-9.98396
-10.0013
-10.0189
-10.0367
-10.0543
-10.0717
-10.0889
-10.1058
-10.1224
-10.1388
-10.1549
-10.1708
-10.1866
-10.2022
-10.2177
-10.2331
-10.2486
-10.2642
-10.2798
-10.2957
-10.3118
-10.3282
-10.3449
-10.362
-9.94389
-9.94117
-9.93565
-9.93301
-9.93379
-9.93911
-9.94851
-9.96072
-9.97489
-9.9904
-10.0067
-10.0235
-10.0404
-10.0574
-10.0742
-10.0909
-10.1074
-10.1236
-10.1397
-10.1555
-10.1712
-10.1867
-10.2021
-10.2174
-10.2327
-10.248
-10.2633
-10.2788
-10.2943
-10.3101
-10.3261
-10.3423
-10.3587
-9.94673
-9.94568
-9.94237
-9.94117
-9.94289
-9.94828
-9.95709
-9.96844
-9.98166
-9.9962
-10.0116
-10.0275
-10.0437
-10.06
-10.0763
-10.0924
-10.1085
-10.1243
-10.1401
-10.1556
-10.171
-10.1863
-10.2015
-10.2166
-10.2317
-10.2468
-10.2619
-10.277
-10.2922
-10.3076
-10.3231
-10.3387
-10.3545
-9.95082
-9.95057
-9.94886
-9.94876
-9.95116
-9.95656
-9.96486
-9.97545
-9.98779
-10.0014
-10.016
-10.0311
-10.0465
-10.0622
-10.0779
-10.0936
-10.1092
-10.1247
-10.1401
-10.1553
-10.1705
-10.1855
-10.2004
-10.2153
-10.2301
-10.2449
-10.2597
-10.2745
-10.2894
-10.3043
-10.3193
-10.3344
-10.3494
-9.95564
-9.95575
-9.95514
-9.95586
-9.95872
-9.96408
-9.97191
-9.98181
-9.99334
-10.0061
-10.0198
-10.0342
-10.0489
-10.064
-10.0791
-10.0943
-10.1095
-10.1246
-10.1396
-10.1546
-10.1694
-10.1842
-10.1988
-10.2134
-10.228
-10.2425
-10.2569
-10.2714
-10.2859
-10.3003
-10.3148
-10.3292
-10.3436
-9.96085
-9.9611
-9.96121
-9.96252
-9.96566
-9.97093
-9.97832
-9.98758
-9.99837
-10.0104
-10.0233
-10.0369
-10.051
-10.0654
-10.08
-10.0947
-10.1094
-10.1241
-10.1388
-10.1534
-10.1679
-10.1824
-10.1967
-10.211
-10.2253
-10.2394
-10.2536
-10.2676
-10.2816
-10.2956
-10.3095
-10.3234
-10.3371
-9.96624
-9.96652
-9.96709
-9.96876
-9.97204
-9.97715
-9.98413
-9.99278
-10.0029
-10.0141
-10.0263
-10.0392
-10.0527
-10.0665
-10.0805
-10.0947
-10.109
-10.1233
-10.1376
-10.1518
-10.166
-10.1802
-10.1942
-10.2082
-10.2221
-10.2359
-10.2496
-10.2633
-10.2768
-10.2903
-10.3037
-10.3169
-10.33
-9.97165
-9.97192
-9.97275
-9.97462
-9.9779
-9.98279
-9.98934
-9.99743
-10.0069
-10.0174
-10.0289
-10.0412
-10.054
-10.0672
-10.0807
-10.0944
-10.1082
-10.1221
-10.136
-10.1499
-10.1638
-10.1776
-10.1913
-10.2049
-10.2184
-10.2318
-10.2452
-10.2584
-10.2715
-10.2844
-10.2972
-10.3099
-10.3223
-9.977
-9.97725
-9.97819
-9.9801
-9.98327
-9.98788
-9.99399
-10.0015
-10.0103
-10.0202
-10.0311
-10.0427
-10.0549
-10.0675
-10.0805
-10.0938
-10.1071
-10.1206
-10.1341
-10.1477
-10.1612
-10.1746
-10.1879
-10.2012
-10.2143
-10.2274
-10.2403
-10.253
-10.2656
-10.2781
-10.2904
-10.3024
-10.3142
-9.98225
-9.98247
-9.9834
-9.98522
-9.98816
-9.99242
-9.99805
-10.005
-10.0132
-10.0225
-10.0327
-10.0438
-10.0554
-10.0675
-10.08
-10.0928
-10.1057
-10.1188
-10.1319
-10.1451
-10.1582
-10.1713
-10.1842
-10.1971
-10.2099
-10.2225
-10.235
-10.2473
-10.2594
-10.2714
-10.2831
-10.2946
-10.3058
-9.98737
-9.98756
-9.98838
-9.98998
-9.9926
-9.99642
-10.0015
-10.0079
-10.0155
-10.0242
-10.0339
-10.0443
-10.0554
-10.067
-10.079
-10.0914
-10.1039
-10.1166
-10.1294
-10.1421
-10.1549
-10.1676
-10.1802
-10.1927
-10.2051
-10.2173
-10.2294
-10.2412
-10.2529
-10.2643
-10.2755
-10.2864
-10.2971
-9.99237
-9.99254
-9.99316
-9.9944
-9.99656
-9.99986
-10.0044
-10.0102
-10.0172
-10.0253
-10.0344
-10.0443
-10.0549
-10.0661
-10.0776
-10.0896
-10.1017
-10.114
-10.1264
-10.1389
-10.1513
-10.1636
-10.1759
-10.188
-10.2
-10.2118
-10.2234
-10.2348
-10.246
-10.257
-10.2676
-10.278
-10.2881
-9.99731
-9.99746
-9.99776
-9.99849
-10.0001
-10.0027
-10.0066
-10.0118
-10.0182
-10.0257
-10.0343
-10.0437
-10.0538
-10.0646
-10.0758
-10.0873
-10.0991
-10.1111
-10.1231
-10.1352
-10.1473
-10.1593
-10.1712
-10.183
-10.1946
-10.206
-10.2172
-10.2282
-10.2389
-10.2494
-10.2595
-10.2694
-10.279
-10.0023
-10.0024
-10.0022
-10.0023
-10.0031
-10.005
-10.0082
-10.0126
-10.0184
-10.0254
-10.0334
-10.0424
-10.0521
-10.0625
-10.0733
-10.0845
-10.096
-10.1077
-10.1194
-10.1312
-10.143
-10.1547
-10.1663
-10.1777
-10.1889
-10.2
-10.2108
-10.2213
-10.2316
-10.2416
-10.2513
-10.2606
-10.2697
-10.0074
-10.0075
-10.0067
-10.0058
-10.0056
-10.0066
-10.0089
-10.0126
-10.0178
-10.0242
-10.0318
-10.0403
-10.0497
-10.0597
-10.0703
-10.0812
-10.0924
-10.1038
-10.1153
-10.1268
-10.1383
-10.1497
-10.1609
-10.1721
-10.183
-10.1936
-10.2041
-10.2142
-10.2241
-10.2336
-10.2428
-10.2517
-10.2603
-10.013
-10.0131
-10.0113
-10.009
-10.0075
-10.0074
-10.0087
-10.0116
-10.0161
-10.022
-10.0292
-10.0374
-10.0464
-10.0562
-10.0665
-10.0772
-10.0882
-10.0994
-10.1106
-10.1219
-10.1331
-10.1443
-10.1553
-10.1661
-10.1767
-10.187
-10.1971
-10.2068
-10.2163
-10.2254
-10.2342
-10.2427
-10.2508
-10.0195
-10.0194
-10.0162
-10.012
-10.0088
-10.0072
-10.0074
-10.0095
-10.0133
-10.0187
-10.0255
-10.0334
-10.0422
-10.0518
-10.0619
-10.0725
-10.0833
-10.0943
-10.1054
-10.1165
-10.1275
-10.1384
-10.1491
-10.1597
-10.17
-10.18
-10.1897
-10.1992
-10.2083
-10.217
-10.2254
-10.2335
-10.2412
-10.0276
-10.0272
-10.0216
-10.0147
-10.0093
-10.0059
-10.0048
-10.0059
-10.0091
-10.0141
-10.0205
-10.0282
-10.0369
-10.0464
-10.0564
-10.0668
-10.0776
-10.0884
-10.0994
-10.1103
-10.1212
-10.1319
-10.1425
-10.1528
-10.1628
-10.1726
-10.182
-10.1912
-10.1999
-10.2084
-10.2164
-10.2241
-10.2314
-10.0386
-10.0374
-10.028
-10.017
-10.0086
-10.0031
-10.0004
-10.0006
-10.0031
-10.0077
-10.014
-10.0216
-10.0302
-10.0396
-10.0496
-10.0601
-10.0708
-10.0816
-10.0925
-10.1033
-10.1141
-10.1247
-10.135
-10.1452
-10.155
-10.1646
-10.1738
-10.1827
-10.1912
-10.1993
-10.207
-10.2144
-10.2214
-10.0551
-10.0515
-10.0351
-10.0185
-10.0063
-9.99815
-9.99375
-9.99292
-9.99496
-9.99928
-10.0054
-10.013
-10.0217
-10.0312
-10.0413
-10.0518
-10.0626
-10.0734
-10.0844
-10.0952
-10.1059
-10.1164
-10.1267
-10.1368
-10.1465
-10.1559
-10.1649
-10.1736
-10.1819
-10.1898
-10.1973
-10.2044
-10.2111
-10.0833
-10.0721
-10.0426
-10.0175
-10.0008
-9.98963
-9.98356
-9.98197
-9.98369
-9.98794
-9.99417
-10.0019
-10.0108
-10.0205
-10.0308
-10.0415
-10.0524
-10.0634
-10.0744
-10.0853
-10.0961
-10.1067
-10.117
-10.127
-10.1367
-10.146
-10.155
-10.1636
-10.1718
-10.1796
-10.187
-10.1939
-10.2005
-10.1354
-10.1072
-10.0535
-10.0147
-9.99063
-9.97499
-9.96709
-9.96515
-9.96709
-9.97186
-9.97882
-9.98736
-9.99702
-10.0074
-10.0184
-10.0296
-10.041
-10.0525
-10.0638
-10.075
-10.086
-10.0967
-10.1071
-10.1172
-10.1269
-10.1363
-10.1452
-10.1537
-10.1618
-10.1695
-10.1767
-10.1836
-10.1899
-10.2146
-10.1518
-10.0697
-10.019
-9.98266
-9.95662
-9.94337
-9.93874
-9.93891
-9.94276
-9.94961
-9.95861
-9.96905
-9.98048
-9.99256
-10.005
-10.0177
-10.0303
-10.0429
-10.0552
-10.0673
-10.079
-10.0904
-10.1013
-10.1118
-10.1219
-10.1315
-10.1406
-10.1492
-10.1574
-10.165
-10.1722
-10.1788
-10.3589
-10.1257
-10.0004
-9.9933
-9.98347
-9.96926
-9.9658
-9.96751
-9.96981
-9.97316
-9.97816
-9.98455
-9.99195
-10.0002
-10.0091
-10.0186
-10.0285
-10.0386
-10.0488
-10.059
-10.0692
-10.0792
-10.0891
-10.0986
-10.1079
-10.1169
-10.1255
-10.1338
-10.1417
-10.1491
-10.1562
-10.1629
-10.1692
-11.3078
-10.0745
-9.4832
-9.41052
-9.42963
-9.4708
-9.5289
-9.58812
-9.64248
-9.69264
-9.73892
-9.78097
-9.8189
-9.8532
-9.88433
-9.91266
-9.93852
-9.96219
-9.98393
-10.004
-10.0225
-10.0396
-10.0554
-10.0702
-10.0838
-10.0966
-10.1084
-10.1193
-10.1295
-10.1389
-10.1476
-10.1555
-10.1627
-15.0737
-12.8632
-11.8502
-11.2306
-10.8129
-10.5649
-10.4021
-10.2785
-10.1864
-10.1228
-10.0803
-10.0522
-10.0344
-10.0244
-10.0203
-10.0204
-10.0236
-10.0289
-10.0359
-10.0439
-10.0527
-10.0619
-10.0713
-10.0807
-10.0901
-10.0993
-10.1083
-10.1169
-10.1252
-10.1331
-10.1407
-10.1478
-10.1546
-1.21381
-5.30065
-7.41244
-8.17562
-8.60697
-8.96759
-9.23567
-9.41476
-9.5413
-9.63966
-9.71792
-9.77982
-9.82953
-9.87067
-9.90555
-9.93557
-9.96177
-9.98494
-10.0057
-10.0244
-10.0415
-10.0572
-10.0716
-10.0849
-10.0972
-10.1086
-10.1192
-10.129
-10.1381
-10.1465
-10.1542
-10.1613
-10.1679
-10.3034
-10.0547
-10.367
-10.667
-10.7914
-10.8311
-10.8473
-10.8532
-10.8554
-10.863
-10.8821
-10.9146
-10.9591
-11.0136
-11.0756
-11.142
-11.2101
-11.2772
-11.3409
-11.3992
-11.4506
-11.4941
-11.5287
-11.5538
-11.5692
-11.5746
-11.5701
-11.5557
-11.5315
-11.4975
-11.4538
-11.4004
-11.3373
-11.2644
-11.1815
-11.0885
-10.9853
-10.8716
-10.7473
-10.6121
-10.4658
-10.3083
-10.1395
-9.9591
-9.76719
-9.56376
-9.34897
-9.12306
-8.88629
-8.63909
-8.38205
-8.11584
-7.84123
-7.55915
-7.27062
-6.97675
-6.67877
-6.37796
-6.07564
-5.77319
-5.47199
-5.1734
-4.87875
-4.5893
-4.30624
-4.03064
-3.76349
-3.5056
-3.25768
-3.02029
-2.79384
-2.57862
-2.37479
-2.1824
-2.00137
-1.83155
-1.67269
-1.52442
-1.38639
-1.25812
-1.13913
-1.02893
-0.927013
-0.832851
-0.745928
-0.665761
-0.591862
-0.523789
-0.461082
-0.403391
-0.350217
-0.301436
-0.25618
-0.215164
-0.17584
-0.142287
-0.104849
-0.0818071
-0.0343769
-0.0409505
-10.3504
-10.3379
-10.5395
-10.698
-10.7411
-10.7422
-10.7432
-10.7473
-10.7557
-10.7739
-10.8047
-10.8475
-10.8999
-10.9599
-11.0252
-11.0935
-11.1623
-11.2295
-11.2929
-11.3509
-11.402
-11.4453
-11.4797
-11.5047
-11.5201
-11.5255
-11.521
-11.5068
-11.4828
-11.4489
-11.4054
-11.3522
-11.2893
-11.2165
-11.1339
-11.0412
-10.9382
-10.8249
-10.701
-10.5663
-10.4206
-10.2637
-10.0956
-9.91618
-9.72533
-9.52314
-9.30975
-9.0854
-8.85038
-8.6051
-8.35016
-8.0862
-7.81399
-7.53444
-7.24855
-6.95742
-6.66221
-6.3642
-6.06468
-5.76499
-5.46646
-5.17044
-4.87823
-4.59107
-4.31011
-4.03643
-3.77098
-3.51458
-3.26794
-3.03161
-2.80602
-2.59146
-2.3881
-2.19601
-2.01512
-1.84529
-1.68629
-1.53777
-1.39939
-1.27069
-1.15121
-1.04047
-0.937969
-0.843194
-0.755637
-0.674825
-0.600272
-0.531543
-0.468177
-0.409831
-0.355998
-0.306566
-0.260636
-0.218994
-0.178927
-0.144908
-0.106379
-0.0838615
-0.0332961
-0.0460644
-10.3628
-10.3728
-10.4643
-10.5795
-10.6505
-10.6894
-10.7172
-10.7378
-10.7535
-10.7709
-10.7953
-10.8286
-10.871
-10.922
-10.98
-11.0431
-11.1085
-11.1737
-11.2362
-11.2939
-11.3451
-11.3883
-11.4228
-11.4481
-11.4638
-11.4695
-11.4654
-11.4517
-11.4281
-11.3947
-11.3515
-11.2987
-11.2362
-11.1638
-11.0816
-10.9893
-10.8869
-10.7741
-10.6507
-10.5166
-10.3717
-10.2157
-10.0486
-9.87028
-9.68072
-9.47997
-9.26819
-9.04561
-8.81255
-8.56941
-8.31676
-8.05525
-7.78564
-7.5088
-7.22573
-6.93747
-6.6452
-6.35012
-6.05352
-5.75669
-5.46095
-5.16761
-4.87793
-4.59314
-4.31437
-4.04268
-3.779
-3.52416
-3.27885
-3.04363
-2.81894
-2.60507
-2.40222
-2.21044
-2.0297
-1.85987
-1.70072
-1.55194
-1.4132
-1.28405
-1.16404
-1.05273
-0.949608
-0.854178
-0.765949
-0.684447
-0.609197
-0.539766
-0.475698
-0.416652
-0.362116
-0.311988
-0.265351
-0.223036
-0.182203
-0.147654
-0.108061
-0.0859256
-0.0324166
-0.0509572
-10.3687
-10.3928
-10.465
-10.5698
-10.6449
-10.6835
-10.706
-10.7227
-10.7374
-10.7552
-10.7802
-10.8136
-10.8552
-10.9039
-10.9582
-11.0161
-11.0756
-11.1346
-11.1914
-11.2442
-11.2914
-11.3317
-11.3642
-11.3883
-11.4034
-11.4092
-11.4053
-11.3918
-11.3685
-11.3355
-11.2929
-11.2406
-11.1785
-11.1068
-11.0251
-10.9334
-10.8315
-10.7194
-10.5968
-10.4636
-10.3195
-10.1646
-9.99865
-9.82163
-9.63352
-9.43439
-9.2244
-9.00378
-8.77285
-8.53201
-8.28182
-8.02292
-7.75605
-7.48208
-7.20194
-6.9167
-6.62747
-6.33546
-6.04189
-5.74804
-5.45519
-5.16462
-4.87758
-4.59525
-4.31877
-4.04915
-3.78733
-3.53413
-3.29023
-3.0562
-2.83247
-2.61935
-2.41704
-2.22562
-2.04505
-1.87524
-1.71594
-1.56691
-1.42779
-1.29817
-1.17763
-1.06572
-0.961941
-0.865823
-0.776884
-0.694652
-0.618662
-0.548486
-0.483671
-0.42388
-0.368597
-0.31773
-0.270347
-0.227311
-0.185684
-0.150546
-0.109897
-0.0880394
-0.0317059
-0.0556714
-10.3758
-10.4084
-10.4688
-10.55
-10.613
-10.6501
-10.6757
-10.698
-10.7187
-10.741
-10.768
-10.8011
-10.8406
-10.8858
-10.9359
-10.9892
-11.0441
-11.0986
-11.1512
-11.2
-11.2436
-11.2807
-11.3105
-11.3323
-11.3455
-11.3499
-11.3451
-11.3309
-11.3073
-11.2743
-11.2318
-11.1798
-11.1181
-11.0467
-10.9655
-10.8744
-10.7732
-10.6618
-10.54
-10.4076
-10.2646
-10.1108
-9.94609
-9.77048
-9.58394
-9.38655
-9.17847
-8.95993
-8.73124
-8.49282
-8.24521
-7.98904
-7.72502
-7.45401
-7.17693
-6.89481
-6.60874
-6.31988
-6.02945
-5.73869
-5.44885
-5.16117
-4.87687
-4.59712
-4.32303
-4.0556
-3.79575
-3.54429
-3.30189
-3.06914
-2.84645
-2.63415
-2.43245
-2.24144
-2.06108
-1.89131
-1.73191
-1.58263
-1.44313
-1.31305
-1.19196
-1.07942
-0.974967
-0.878132
-0.788449
-0.70545
-0.628679
-0.557717
-0.492112
-0.431533
-0.375459
-0.323808
-0.27564
-0.231835
-0.189386
-0.1536
-0.111905
-0.0902072
-0.0311881
-0.0601546
-10.3816
-10.4164
-10.4677
-10.5327
-10.5891
-10.6283
-10.6577
-10.6828
-10.7058
-10.7292
-10.7561
-10.7879
-10.8251
-10.8672
-10.9135
-10.9627
-11.0132
-11.0633
-11.1116
-11.1564
-11.1964
-11.2304
-11.2576
-11.2771
-11.2885
-11.2913
-11.2854
-11.2703
-11.2461
-11.2127
-11.17
-11.1178
-11.0562
-10.985
-10.9041
-10.8133
-10.7127
-10.6019
-10.4808
-10.3493
-10.2073
-10.0546
-9.89122
-9.71705
-9.53213
-9.33652
-9.1304
-8.914
-8.68762
-8.45169
-8.20673
-7.95336
-7.69228
-7.42432
-7.15039
-6.87149
-6.58867
-6.30309
-6.01591
-5.72835
-5.44162
-5.15695
-4.87553
-4.59849
-4.32691
-4.06179
-3.80403
-3.55442
-3.31364
-3.08226
-2.86071
-2.64933
-2.44831
-2.25776
-2.07768
-1.90799
-1.74851
-1.59902
-1.45917
-1.32862
-1.20699
-1.09382
-0.98867
-0.891094
-0.800638
-0.716839
-0.639253
-0.567466
-0.501032
-0.439622
-0.382717
-0.330238
-0.281242
-0.236623
-0.193324
-0.156827
-0.114099
-0.0924266
-0.0308948
-0.0643381
-10.3857
-10.4202
-10.4655
-10.52
-10.5704
-10.6091
-10.6395
-10.6659
-10.6905
-10.7152
-10.7425
-10.7737
-10.8092
-10.8487
-10.8917
-10.937
-10.9832
-11.0291
-11.073
-11.1138
-11.1501
-11.1808
-11.2051
-11.2222
-11.2315
-11.2327
-11.2254
-11.2092
-11.1842
-11.1502
-11.1071
-11.0547
-10.993
-10.9218
-10.841
-10.7506
-10.6503
-10.5401
-10.4197
-10.289
-10.1479
-9.99633
-9.83419
-9.66145
-9.47814
-9.28433
-9.08018
-8.86594
-8.64192
-8.40853
-8.16627
-7.91576
-7.65769
-7.39286
-7.12217
-6.84657
-6.56712
-6.28491
-6.00109
-5.71685
-5.43337
-5.15183
-4.8734
-4.59919
-4.33026
-4.06757
-3.81202
-3.56438
-3.32534
-3.09544
-2.87514
-2.66476
-2.4645
-2.27449
-2.09474
-1.92519
-1.7657
-1.61602
-1.47584
-1.34485
-1.22267
-1.10887
-1.00302
-0.904689
-0.813436
-0.728812
-0.650381
-0.577735
-0.510435
-0.448155
-0.390381
-0.33703
-0.287166
-0.241686
-0.197511
-0.160241
-0.116491
-0.0946953
-0.0308519
-0.068169
-10.3884
-10.4218
-10.4625
-10.5094
-10.5543
-10.5916
-10.6224
-10.6498
-10.6754
-10.7011
-10.7285
-10.7589
-10.7927
-10.8297
-10.8695
-10.9112
-10.9535
-10.9953
-11.0353
-11.0722
-11.1049
-11.1323
-11.1537
-11.1682
-11.1752
-11.1745
-11.1656
-11.1482
-11.1221
-11.0873
-11.0436
-10.9908
-10.9288
-10.8575
-10.7767
-10.6865
-10.5865
-10.4767
-10.3568
-10.2269
-10.0867
-9.93616
-9.77524
-9.6039
-9.42218
-9.23016
-9.028
-8.81594
-8.5943
-8.36347
-8.12396
-7.87637
-7.62137
-7.35974
-7.09235
-6.82015
-6.54414
-6.26541
-5.98506
-5.70424
-5.4241
-5.14582
-4.8705
-4.59923
-4.33306
-4.07292
-3.81969
-3.57413
-3.33692
-3.10862
-2.88965
-2.68035
-2.48093
-2.29153
-2.1122
-1.94286
-1.78338
-1.63356
-1.49309
-1.36168
-1.23896
-1.12453
-1.01798
-0.918887
-0.826823
-0.741354
-0.662052
-0.588518
-0.52032
-0.457134
-0.398454
-0.344192
-0.293422
-0.247037
-0.201957
-0.163852
-0.119094
-0.0970115
-0.031081
-0.0716077
-10.3899
-10.4217
-10.4588
-10.5001
-10.5404
-10.5758
-10.6064
-10.6342
-10.6604
-10.6865
-10.7137
-10.7432
-10.7753
-10.81
-10.8469
-10.8851
-10.9238
-10.9618
-10.9979
-11.0311
-11.0603
-11.0845
-11.1029
-11.1148
-11.1197
-11.1169
-11.1063
-11.0875
-11.0603
-11.0245
-10.98
-10.9266
-10.8642
-10.7926
-10.7118
-10.6215
-10.5217
-10.4122
-10.2929
-10.1636
-10.0242
-9.87465
-9.7149
-9.54493
-9.36477
-9.17452
-8.97434
-8.76446
-8.5452
-8.31696
-8.08023
-7.83558
-7.58369
-7.32531
-7.06129
-6.79254
-6.52005
-6.24486
-5.96805
-5.69073
-5.41404
-5.13908
-4.86696
-4.59873
-4.33541
-4.07791
-3.82709
-3.58371
-3.34843
-3.12179
-2.90423
-2.69607
-2.49757
-2.30887
-2.13001
-1.96093
-1.80152
-1.65159
-1.51085
-1.37904
-1.25581
-1.14077
-1.03352
-0.933659
-0.840775
-0.754445
-0.674252
-0.599805
-0.530681
-0.466557
-0.406937
-0.351727
-0.300016
-0.252681
-0.206669
-0.167665
-0.121917
-0.0993746
-0.0315999
-0.0746182
-10.3903
-10.4205
-10.4545
-10.4914
-10.528
-10.5614
-10.5914
-10.619
-10.6453
-10.6713
-10.6982
-10.7267
-10.7571
-10.7896
-10.8236
-10.8587
-10.8939
-10.9282
-10.9607
-10.9904
-11.0162
-11.0372
-11.0527
-11.062
-11.0646
-11.0598
-11.0475
-11.0272
-10.9987
-10.9619
-10.9165
-10.8624
-10.7995
-10.7276
-10.6465
-10.5562
-10.4565
-10.3473
-10.2284
-10.0996
-9.961
-9.8124
-9.65378
-9.48514
-9.30651
-9.11801
-8.91978
-8.71208
-8.4952
-8.26955
-8.0356
-7.79392
-7.54515
-7.29005
-7.02942
-6.76416
-6.49523
-6.22362
-5.9504
-5.67664
-5.40343
-5.13187
-4.863
-4.59788
-4.33747
-4.08267
-3.83434
-3.5932
-3.35991
-3.135
-2.9189
-2.71197
-2.51446
-2.3265
-2.14816
-1.97938
-1.82007
-1.67007
-1.52911
-1.39692
-1.27319
-1.15754
-1.0496
-0.948975
-0.855265
-0.768063
-0.686963
-0.611583
-0.541507
-0.476417
-0.415827
-0.359634
-0.306949
-0.258623
-0.211654
-0.171687
-0.124969
-0.101785
-0.0324213
-0.0771705
-10.3897
-10.4182
-10.4497
-10.4831
-10.5165
-10.5479
-10.5769
-10.604
-10.6301
-10.6558
-10.682
-10.7094
-10.7382
-10.7684
-10.7998
-10.8318
-10.8637
-10.8946
-10.9236
-10.9498
-10.9723
-10.9902
-11.0029
-11.0096
-11.0098
-11.003
-10.9889
-10.9671
-10.9373
-10.8994
-10.8531
-10.7983
-10.7348
-10.6625
-10.5812
-10.4908
-10.3912
-10.2821
-10.1636
-10.0354
-9.89751
-9.74982
-9.5923
-9.42497
-9.24786
-9.06108
-8.86481
-8.65926
-8.44476
-8.22169
-7.99052
-7.75181
-7.50618
-7.25436
-6.99714
-6.73539
-6.47002
-6.20203
-5.93242
-5.66224
-5.39256
-5.12442
-4.85886
-4.59687
-4.33942
-4.08738
-3.84157
-3.60273
-3.37146
-3.14832
-2.93375
-2.72811
-2.53162
-2.34444
-2.16665
-1.99821
-1.83905
-1.689
-1.54783
-1.41529
-1.29107
-1.17483
-1.0662
-0.96481
-0.87027
-0.782187
-0.700167
-0.623835
-0.552787
-0.486706
-0.425118
-0.367911
-0.314222
-0.264865
-0.216914
-0.175921
-0.128251
-0.104243
-0.0335526
-0.0792423
-10.3881
-10.4151
-10.4443
-10.4749
-10.5057
-10.5351
-10.5629
-10.5892
-10.6147
-10.6398
-10.6652
-10.6913
-10.7185
-10.7466
-10.7754
-10.8045
-10.8332
-10.8608
-10.8864
-10.9093
-10.9286
-10.9435
-10.9534
-10.9575
-10.9554
-10.9466
-10.9306
-10.9073
-10.8761
-10.8371
-10.7899
-10.7343
-10.6702
-10.5975
-10.5159
-10.4254
-10.3258
-10.217
-10.0988
-9.97112
-9.83393
-9.68715
-9.53073
-9.3647
-9.1891
-9.00405
-8.80972
-8.60634
-8.39421
-8.17373
-7.94534
-7.70959
-7.4671
-7.21856
-6.96476
-6.70651
-6.44473
-6.18035
-5.91437
-5.64779
-5.38165
-5.11695
-4.85471
-4.59589
-4.34142
-4.09217
-3.84892
-3.61238
-3.38318
-3.16186
-2.94886
-2.74452
-2.54909
-2.36273
-2.18552
-2.01745
-1.85845
-1.70837
-1.56702
-1.43414
-1.30945
-1.19262
-1.08331
-0.981148
-0.885772
-0.7968
-0.713847
-0.636548
-0.564508
-0.497413
-0.434803
-0.376552
-0.321831
-0.271407
-0.222449
-0.180371
-0.131766
-0.106753
-0.0349948
-0.0808199
-10.3857
-10.4112
-10.4383
-10.4666
-10.495
-10.5226
-10.5491
-10.5745
-10.5991
-10.6234
-10.6478
-10.6726
-10.698
-10.724
-10.7504
-10.7767
-10.8024
-10.8268
-10.8492
-10.8689
-10.8851
-10.897
-10.9041
-10.9057
-10.9013
-10.8904
-10.8727
-10.8477
-10.8152
-10.775
-10.7268
-10.6704
-10.6057
-10.5326
-10.4507
-10.3601
-10.2605
-10.1518
-10.034
-9.90691
-9.77044
-9.62456
-9.46925
-9.30453
-9.13045
-8.94713
-8.75475
-8.55353
-8.34378
-8.12588
-7.90028
-7.6675
-7.42814
-7.18289
-6.93249
-6.67776
-6.41955
-6.1588
-5.89645
-5.63347
-5.37087
-5.10963
-4.85072
-4.59508
-4.34361
-4.09715
-3.85647
-3.62228
-3.39518
-3.1757
-2.96429
-2.76128
-2.56692
-2.3814
-2.20479
-2.03711
-1.87829
-1.72821
-1.58668
-1.45347
-1.32831
-1.2109
-1.1009
-0.997975
-0.90176
-0.811889
-0.727991
-0.649709
-0.57666
-0.508529
-0.444873
-0.385552
-0.329773
-0.278246
-0.228259
-0.185036
-0.135512
-0.109318
-0.0367417
-0.0819002
-10.3823
-10.4064
-10.4318
-10.458
-10.4844
-10.5103
-10.5354
-10.5596
-10.5833
-10.6066
-10.6298
-10.6532
-10.6769
-10.7009
-10.7248
-10.7485
-10.7713
-10.7927
-10.812
-10.8286
-10.8418
-10.8508
-10.8552
-10.8543
-10.8476
-10.8347
-10.8151
-10.7885
-10.7546
-10.7132
-10.664
-10.6069
-10.5415
-10.4679
-10.3857
-10.2949
-10.1954
-10.0869
-9.96949
-9.84293
-9.70719
-9.56223
-9.40804
-9.24463
-9.07208
-8.89051
-8.70008
-8.50103
-8.29367
-8.07836
-7.85554
-7.62572
-7.3895
-7.14753
-6.90054
-6.64931
-6.39468
-6.13754
-5.87881
-5.61944
-5.36038
-5.10259
-4.84701
-4.59456
-4.34609
-4.10244
-3.86435
-3.63251
-3.40752
-3.1899
-2.98009
-2.77842
-2.58516
-2.40049
-2.22451
-2.05722
-1.8986
-1.74852
-1.60682
-1.47328
-1.34767
-1.22967
-1.11899
-1.01529
-0.918223
-0.827443
-0.742588
-0.663308
-0.589231
-0.520045
-0.45532
-0.394905
-0.338041
-0.285381
-0.234339
-0.189917
-0.139483
-0.111942
-0.0387805
-0.0824929
-10.378
-10.4008
-10.4246
-10.449
-10.4736
-10.4978
-10.5215
-10.5446
-10.5671
-10.5893
-10.6112
-10.6332
-10.6551
-10.6771
-10.6987
-10.7198
-10.7398
-10.7583
-10.7747
-10.7884
-10.7986
-10.8049
-10.8067
-10.8033
-10.7944
-10.7794
-10.758
-10.7298
-10.6945
-10.6519
-10.6017
-10.5437
-10.4777
-10.4036
-10.3211
-10.2302
-10.1307
-10.0224
-9.90536
-9.77935
-9.64436
-9.50033
-9.34727
-9.18519
-9.01418
-8.83436
-8.6459
-8.44903
-8.24406
-8.03133
-7.8113
-7.58445
-7.35136
-7.11267
-6.86907
-6.62134
-6.37028
-6.11674
-5.86162
-5.60584
-5.35031
-5.09597
-4.84371
-4.59443
-4.34897
-4.10812
-3.87263
-3.64314
-3.42027
-3.20451
-2.99631
-2.796
-2.60385
-2.42004
-2.24468
-2.07781
-1.91938
-1.76931
-1.62745
-1.49359
-1.36751
-1.24893
-1.13756
-1.03308
-0.935157
-0.843458
-0.757631
-0.677337
-0.602215
-0.531954
-0.466138
-0.404604
-0.346631
-0.292807
-0.240688
-0.195014
-0.143674
-0.114626
-0.0410931
-0.0826193
-10.3729
-10.3944
-10.4167
-10.4396
-10.4625
-10.4852
-10.5075
-10.5293
-10.5506
-10.5716
-10.5922
-10.6126
-10.6328
-10.6527
-10.6721
-10.6907
-10.7082
-10.7239
-10.7375
-10.7483
-10.7558
-10.7594
-10.7586
-10.7529
-10.7417
-10.7247
-10.7015
-10.6717
-10.635
-10.5912
-10.54
-10.4811
-10.4145
-10.3399
-10.2571
-10.1661
-10.0666
-9.95854
-9.84184
-9.71639
-9.58214
-9.43906
-9.28713
-9.12641
-8.95695
-8.77889
-8.5924
-8.39772
-8.19513
-7.985
-7.76775
-7.54386
-7.3139
-7.07847
-6.83826
-6.594
-6.34649
-6.09654
-5.84502
-5.5928
-5.34079
-5.08987
-4.84093
-4.59481
-4.35235
-4.1143
-3.88138
-3.65426
-3.4335
-3.2196
-3.01301
-2.81406
-2.62302
-2.44007
-2.26535
-2.09888
-1.94066
-1.79061
-1.64858
-1.5144
-1.38785
-1.26868
-1.15662
-1.05134
-0.952556
-0.859924
-0.773112
-0.691789
-0.615603
-0.544247
-0.47732
-0.414644
-0.355537
-0.30052
-0.247299
-0.200324
-0.14808
-0.117373
-0.0436559
-0.0823108
-10.3669
-10.3873
-10.4083
-10.4296
-10.4511
-10.4724
-10.4933
-10.5138
-10.5338
-10.5535
-10.5727
-10.5915
-10.61
-10.6279
-10.6452
-10.6614
-10.6763
-10.6895
-10.7004
-10.7085
-10.7133
-10.7144
-10.7111
-10.703
-10.6897
-10.6708
-10.6458
-10.6144
-10.5763
-10.5313
-10.479
-10.4194
-10.3521
-10.277
-10.1939
-10.1027
-10.0033
-9.89544
-9.77912
-9.65425
-9.52077
-9.37863
-9.22786
-9.06849
-8.9006
-8.72431
-8.5398
-8.3473
-8.14711
-7.93957
-7.72509
-7.50415
-7.27729
-7.04511
-6.80827
-6.56747
-6.32348
-6.0771
-5.82914
-5.58048
-5.33195
-5.08444
-4.83878
-4.59581
-4.35632
-4.12105
-3.8907
-3.66592
-3.44726
-3.23522
-3.03023
-2.83264
-2.6427
-2.46062
-2.28653
-2.12047
-1.96245
-1.8124
-1.67021
-1.5357
-1.40869
-1.28892
-1.17615
-1.07008
-0.970412
-0.876835
-0.789023
-0.706654
-0.629387
-0.556917
-0.488857
-0.425017
-0.364752
-0.308516
-0.254166
-0.205846
-0.152689
-0.120185
-0.046441
-0.0816065
-10.3603
-10.3795
-10.3993
-10.4193
-10.4393
-10.4592
-10.4788
-10.498
-10.5167
-10.535
-10.5528
-10.5701
-10.5868
-10.6028
-10.618
-10.632
-10.6445
-10.6551
-10.6634
-10.669
-10.6713
-10.6699
-10.6643
-10.654
-10.6386
-10.6177
-10.5909
-10.558
-10.5185
-10.4723
-10.4191
-10.3586
-10.2907
-10.2151
-10.1317
-10.0404
-9.94098
-9.83337
-9.71746
-9.59317
-9.46046
-9.3193
-9.16969
-9.01168
-8.84536
-8.67084
-8.48832
-8.29801
-8.1002
-7.89524
-7.68353
-7.46552
-7.24175
-7.0128
-6.7793
-6.54193
-6.30143
-6.05858
-5.81416
-5.569
-5.32394
-5.07979
-4.83739
-4.59753
-4.36098
-4.12847
-3.90067
-3.67821
-3.46163
-3.25143
-3.04803
-2.85177
-2.66293
-2.48171
-2.30824
-2.14259
-1.98476
-1.83471
-1.69234
-1.5575
-1.43001
-1.30964
-1.19615
-1.08927
-0.988714
-0.894178
-0.805351
-0.72192
-0.643554
-0.569952
-0.500739
-0.435713
-0.374268
-0.316785
-0.261282
-0.211573
-0.157492
-0.123064
-0.0494163
-0.0805517
-10.3529
-10.3712
-10.3897
-10.4084
-10.4272
-10.4457
-10.464
-10.4819
-10.4993
-10.5162
-10.5326
-10.5483
-10.5633
-10.5775
-10.5906
-10.6024
-10.6126
-10.6209
-10.6268
-10.6299
-10.6298
-10.6261
-10.6182
-10.6057
-10.5883
-10.5656
-10.5371
-10.5027
-10.4619
-10.4145
-10.3603
-10.299
-10.2304
-10.1544
-10.0707
-9.9793
-9.87995
-9.77257
-9.65708
-9.53339
-9.40147
-9.26128
-9.11285
-8.95622
-8.79147
-8.61874
-8.43819
-8.25007
-8.05464
-7.85225
-7.64328
-7.4282
-7.20749
-6.98173
-6.75154
-6.51756
-6.28053
-6.04116
-5.80024
-5.55855
-5.31689
-5.07607
-4.83688
-4.60009
-4.36645
-4.13666
-3.91137
-3.69119
-3.47667
-3.26829
-3.06646
-2.87152
-2.68375
-2.50337
-2.33051
-2.16524
-2.0076
-1.85754
-1.71499
-1.5798
-1.45182
-1.33083
-1.21662
-1.10891
-1.00745
-0.91194
-0.822082
-0.737573
-0.65809
-0.583337
-0.512952
-0.446719
-0.384071
-0.325317
-0.268635
-0.217498
-0.162476
-0.126012
-0.0525468
-0.0791957
-10.345
-10.3622
-10.3797
-10.3972
-10.4147
-10.432
-10.449
-10.4656
-10.4817
-10.4972
-10.5121
-10.5263
-10.5396
-10.5519
-10.5631
-10.5729
-10.5809
-10.587
-10.5906
-10.5914
-10.589
-10.583
-10.5729
-10.5584
-10.5391
-10.5146
-10.4845
-10.4486
-10.4065
-10.358
-10.3029
-10.2408
-10.1716
-10.0951
-10.0112
-9.91967
-9.8204
-9.71328