/*--------------------------------*- C++ -*----------------------------------*\
  =========                 |
  \\      /  F ield         | OpenFOAM: The Open Source CFD Toolbox
   \\    /   O peration     | Website:  https://openfoam.org
    \\  /    A nd           | Version:  10
     \\/     M anipulation  |
\*---------------------------------------------------------------------------*/
FoamFile
{
    format      ascii;
    class       surfaceScalarField;
    location    "1800";
    object      phi;
}
// * * * * * * * * * * * * * * * * * * * * * * * * * * * * * * * * * * * * * //

dimensions      [0 3 -1 0 0 0 0];

internalField   nonuniform List<scalar> 
13452
(
6.29962e-05
-2.72774e-06
6.37618e-05
-7.65567e-07
6.45325e-05
-7.70734e-07
6.38572e-05
6.75281e-07
6.25158e-05
1.34144e-06
6.1081e-05
1.43483e-06
5.97494e-05
1.33156e-06
5.85557e-05
1.19371e-06
5.74948e-05
1.06085e-06
5.65537e-05
9.41145e-07
5.57166e-05
8.37086e-07
5.49681e-05
7.4851e-07
5.42946e-05
6.73475e-07
5.36851e-05
6.0945e-07
5.31308e-05
5.54333e-07
5.26243e-05
5.0653e-07
5.21595e-05
4.64775e-07
5.17315e-05
4.28046e-07
5.13359e-05
3.95531e-07
5.09693e-05
3.66589e-07
5.06286e-05
3.40713e-07
5.03111e-05
3.17498e-07
5.00145e-05
2.96627e-07
4.97366e-05
2.77857e-07
4.94756e-05
2.61018e-07
4.92296e-05
2.46014e-07
4.89967e-05
2.32863e-07
4.87751e-05
2.21694e-07
4.8562e-05
2.13034e-07
4.83545e-05
2.07539e-07
4.81444e-05
2.10036e-07
4.79206e-05
2.23806e-07
2.87084e-07
4.76335e-05
6.28938e-05
-3.63116e-06
6.27372e-05
-6.09046e-07
6.21166e-05
-1.50146e-07
6.23911e-05
4.0085e-07
6.2873e-05
8.59532e-07
6.32659e-05
1.04191e-06
6.35103e-05
1.08713e-06
6.3621e-05
1.08299e-06
6.36283e-05
1.05355e-06
6.35613e-05
1.00813e-06
6.3443e-05
9.55398e-07
6.32901e-05
9.01454e-07
6.31144e-05
8.49175e-07
6.29242e-05
7.99647e-07
6.27253e-05
7.53228e-07
6.25218e-05
7.10025e-07
6.23166e-05
6.69966e-07
6.21118e-05
6.32869e-07
6.19088e-05
5.98517e-07
6.17087e-05
5.66694e-07
6.15122e-05
5.37202e-07
6.13198e-05
5.09867e-07
6.11319e-05
4.84543e-07
6.09486e-05
4.61119e-07
6.07701e-05
4.39533e-07
6.05964e-05
4.19776e-07
6.04273e-05
4.01953e-07
6.02627e-05
3.86245e-07
6.01024e-05
3.73347e-07
5.9946e-05
3.63921e-07
5.97939e-05
3.6212e-07
5.96542e-05
3.63518e-07
3.96347e-07
5.9545e-05
6.23344e-05
-2.20418e-06
6.26284e-05
-9.02984e-07
6.27865e-05
-3.08303e-07
6.30959e-05
9.14825e-08
6.34471e-05
5.08342e-07
6.37491e-05
7.39887e-07
6.39951e-05
8.41118e-07
6.419e-05
8.88122e-07
6.43381e-05
9.05386e-07
6.44459e-05
9.00377e-07
6.45203e-05
8.80984e-07
6.45677e-05
8.5405e-07
6.45933e-05
8.23526e-07
6.46016e-05
7.91438e-07
6.45958e-05
7.58989e-07
6.45788e-05
7.26979e-07
6.45529e-05
6.95893e-07
6.45198e-05
6.65987e-07
6.44809e-05
6.37389e-07
6.44374e-05
6.1016e-07
6.43903e-05
5.84323e-07
6.43403e-05
5.59879e-07
6.4288e-05
5.36828e-07
6.4234e-05
5.15183e-07
6.41785e-05
4.94985e-07
6.4122e-05
4.76317e-07
6.40646e-05
4.59363e-07
6.40064e-05
4.44383e-07
6.39477e-05
4.3203e-07
6.38888e-05
4.22904e-07
6.38317e-05
4.19223e-07
6.37768e-05
4.1833e-07
4.29958e-07
6.37432e-05
6.47915e-05
-1.41266e-06
6.47391e-05
-8.50541e-07
6.47873e-05
-3.56487e-07
6.48994e-05
-2.06539e-08
6.50724e-05
3.3534e-07
6.52454e-05
5.66895e-07
6.54026e-05
6.83896e-07
6.55431e-05
7.47698e-07
6.56657e-05
7.82745e-07
6.57705e-05
7.9556e-07
6.58588e-05
7.92716e-07
6.59323e-05
7.80507e-07
6.5993e-05
7.6284e-07
6.60426e-05
7.41858e-07
6.60826e-05
7.18948e-07
6.61145e-05
6.95105e-07
6.61394e-05
6.70999e-07
6.61583e-05
6.4706e-07
6.61721e-05
6.23567e-07
6.61816e-05
6.00713e-07
6.61873e-05
5.7863e-07
6.61897e-05
5.57417e-07
6.61894e-05
5.37157e-07
6.61867e-05
5.17933e-07
6.61818e-05
4.99846e-07
6.61751e-05
4.83031e-07
6.61667e-05
4.67697e-07
6.6157e-05
4.54121e-07
6.61462e-05
4.42815e-07
6.61349e-05
4.3421e-07
6.61248e-05
4.29352e-07
6.61162e-05
4.26871e-07
4.30073e-07
6.61161e-05
6.70182e-05
-9.74084e-07
6.6871e-05
-7.033e-07
6.68448e-05
-3.3036e-07
6.68727e-05
-4.85405e-08
6.69616e-05
2.46488e-07
6.70705e-05
4.58005e-07
6.71772e-05
5.77141e-07
6.72776e-05
6.47361e-07
6.73702e-05
6.90113e-07
6.74541e-05
7.11656e-07
6.75291e-05
7.17699e-07
6.75958e-05
7.13844e-07
6.76549e-05
7.03755e-07
6.77071e-05
6.89564e-07
6.77534e-05
6.72698e-07
6.77943e-05
6.54203e-07
6.78305e-05
6.34815e-07
6.78625e-05
6.15033e-07
6.78909e-05
5.95207e-07
6.7916e-05
5.75588e-07
6.79382e-05
5.56365e-07
6.7958e-05
5.37686e-07
6.79755e-05
5.19676e-07
6.79909e-05
5.02452e-07
6.80046e-05
4.86144e-07
6.80168e-05
4.70902e-07
6.80275e-05
4.56928e-07
6.80372e-05
4.44463e-07
6.80462e-05
4.33863e-07
6.8055e-05
4.25393e-07
6.80648e-05
4.19479e-07
6.80763e-05
4.15403e-07
4.14128e-07
6.80922e-05
6.9089e-05
-6.79038e-07
6.89436e-05
-5.5788e-07
6.89005e-05
-2.87296e-07
6.89039e-05
-5.19205e-08
6.89553e-05
1.95017e-07
6.90296e-05
3.8374e-07
6.91068e-05
4.99956e-07
6.91816e-05
5.72535e-07
6.92529e-05
6.18858e-07
6.93195e-05
6.45052e-07
6.93809e-05
6.5629e-07
6.94372e-05
6.5753e-07
6.94888e-05
6.5217e-07
6.9536e-05
6.42301e-07
6.95794e-05
6.29359e-07
6.96192e-05
6.14402e-07
6.96558e-05
5.98189e-07
6.96896e-05
5.81254e-07
6.97208e-05
5.63979e-07
6.97498e-05
5.46648e-07
6.97766e-05
5.2948e-07
6.98017e-05
5.12645e-07
6.98251e-05
4.9629e-07
6.9847e-05
4.80548e-07
6.98676e-05
4.65554e-07
6.9887e-05
4.51455e-07
6.99055e-05
4.3842e-07
6.99233e-05
4.26639e-07
6.99409e-05
4.16329e-07
6.99586e-05
4.0762e-07
6.99775e-05
4.00619e-07
6.9998e-05
3.94871e-07
3.90421e-07
7.00217e-05
7.11537e-05
-4.66368e-07
7.10276e-05
-4.3186e-07
7.09799e-05
-2.39522e-07
7.09725e-05
-4.45784e-08
7.10041e-05
1.63456e-07
7.10575e-05
3.30318e-07
7.11166e-05
4.40878e-07
7.11757e-05
5.13417e-07
7.12333e-05
5.61216e-07
7.12884e-05
5.90025e-07
7.13401e-05
6.04563e-07
7.13884e-05
6.09203e-07
7.14335e-05
6.07066e-07
7.14756e-05
6.00183e-07
7.1515e-05
5.89983e-07
7.15519e-05
5.77519e-07
7.15865e-05
5.6356e-07
7.16191e-05
5.48658e-07
7.16499e-05
5.33217e-07
7.1679e-05
5.17541e-07
7.17066e-05
5.01863e-07
7.17329e-05
4.86369e-07
7.1758e-05
4.71215e-07
7.1782e-05
4.56537e-07
7.18051e-05
4.42467e-07
7.18274e-05
4.29134e-07
7.18491e-05
4.16673e-07
7.18705e-05
4.05212e-07
7.1892e-05
3.94866e-07
7.1914e-05
3.85663e-07
7.1937e-05
3.7755e-07
7.19617e-05
3.70161e-07
3.63207e-07
7.19889e-05
7.32523e-05
-3.13414e-07
7.31445e-05
-3.24086e-07
7.30947e-05
-1.89688e-07
7.30807e-05
-3.05896e-08
7.31e-05
1.44194e-07
7.31397e-05
2.90592e-07
7.31868e-05
3.93791e-07
7.32357e-05
4.64541e-07
7.32844e-05
5.12483e-07
7.33317e-05
5.42693e-07
7.33769e-05
5.59404e-07
7.34196e-05
5.66448e-07
7.346e-05
5.66664e-07
7.34982e-05
5.61999e-07
7.35344e-05
5.53854e-07
7.35686e-05
5.4327e-07
7.36012e-05
5.31015e-07
7.36322e-05
5.17653e-07
7.36618e-05
5.036e-07
7.36901e-05
4.89174e-07
7.37174e-05
4.74617e-07
7.37436e-05
4.60125e-07
7.3769e-05
4.45855e-07
7.37936e-05
4.31943e-07
7.38175e-05
4.1851e-07
7.3841e-05
4.05665e-07
7.38642e-05
3.93506e-07
7.38873e-05
3.82111e-07
7.39106e-05
3.7152e-07
7.39346e-05
3.61691e-07
7.39597e-05
3.52491e-07
7.39862e-05
3.43594e-07
3.34609e-07
7.40148e-05
7.53941e-05
-2.05049e-07
7.53032e-05
-2.33179e-07
7.52536e-05
-1.40134e-07
7.52353e-05
-1.22837e-08
7.52461e-05
1.33426e-07
7.5276e-05
2.60735e-07
7.53143e-05
3.55469e-07
7.53558e-05
4.23063e-07
7.53981e-05
4.70112e-07
7.544e-05
5.0083e-07
7.54805e-05
5.18901e-07
7.55193e-05
5.2765e-07
7.55563e-05
5.29629e-07
7.55916e-05
5.26674e-07
7.56254e-05
5.20138e-07
7.56576e-05
5.1104e-07
7.56885e-05
5.00138e-07
7.57181e-05
4.87998e-07
7.57467e-05
4.75047e-07
7.57742e-05
4.61607e-07
7.58009e-05
4.47929e-07
7.58268e-05
4.3421e-07
7.58521e-05
4.20609e-07
7.58768e-05
4.07256e-07
7.5901e-05
3.9426e-07
7.5925e-05
3.81708e-07
7.59488e-05
3.6967e-07
7.59727e-05
3.58181e-07
7.5997e-05
3.47232e-07
7.6022e-05
3.36741e-07
7.60479e-05
3.26539e-07
7.60752e-05
3.16327e-07
3.05721e-07
7.61041e-05
7.7584e-05
-1.29452e-07
7.75093e-05
-1.58546e-07
7.74625e-05
-9.33158e-08
7.74418e-05
8.43421e-09
7.74464e-05
1.28835e-07
7.74687e-05
2.3845e-07
7.75001e-05
3.24054e-07
7.75357e-05
3.87424e-07
7.75731e-05
4.32706e-07
7.76108e-05
4.63183e-07
7.76477e-05
4.81946e-07
7.76836e-05
4.91835e-07
7.77181e-05
4.95112e-07
7.77513e-05
4.93479e-07
7.77832e-05
4.88223e-07
7.78139e-05
4.80323e-07
7.78435e-05
4.70523e-07
7.78721e-05
4.59385e-07
7.78998e-05
4.47334e-07
7.79267e-05
4.34697e-07
7.7953e-05
4.21728e-07
7.79785e-05
4.08624e-07
7.80036e-05
3.95541e-07
7.80283e-05
3.82602e-07
7.80526e-05
3.69905e-07
7.80768e-05
3.57519e-07
7.8101e-05
3.45488e-07
7.81253e-05
3.33818e-07
7.81501e-05
3.22472e-07
7.81755e-05
3.11345e-07
7.82018e-05
3.00264e-07
7.82291e-05
2.88962e-07
2.77099e-07
7.82578e-05
7.98265e-05
-7.75872e-08
7.97671e-05
-9.9181e-08
7.97251e-05
-5.12825e-08
7.97037e-05
2.97601e-08
7.9704e-05
1.286e-07
7.97203e-05
2.22068e-07
7.97461e-05
2.98279e-07
7.97769e-05
3.56645e-07
7.98102e-05
3.99428e-07
7.98443e-05
4.29009e-07
7.98784e-05
4.47879e-07
7.99118e-05
4.58414e-07
7.99444e-05
4.62588e-07
7.99759e-05
4.61949e-07
8.00064e-05
4.57697e-07
8.0036e-05
4.50765e-07
8.00646e-05
4.41869e-07
8.00924e-05
4.31558e-07
8.01195e-05
4.20255e-07
8.01459e-05
4.08285e-07
8.01718e-05
3.95899e-07
8.01971e-05
3.83294e-07
8.0222e-05
3.7062e-07
8.02466e-05
3.57995e-07
8.0271e-05
3.45503e-07
8.02953e-05
3.33201e-07
8.03197e-05
3.21113e-07
8.03443e-05
3.0923e-07
8.03693e-05
2.97495e-07
8.03948e-05
2.85802e-07
8.04211e-05
2.73985e-07
8.04482e-05
2.61816e-07
2.49017e-07
8.04763e-05
8.21255e-05
-4.26531e-08
8.20798e-05
-5.34549e-08
8.20439e-05
-1.53866e-08
8.20236e-05
5.00341e-08
8.20211e-05
1.31061e-07
8.20331e-05
2.10151e-07
8.20542e-05
2.77106e-07
8.20809e-05
3.29987e-07
8.21106e-05
3.69698e-07
8.21418e-05
3.97823e-07
8.21734e-05
4.16286e-07
8.22048e-05
4.27025e-07
8.22356e-05
4.31734e-07
8.22658e-05
4.31791e-07
8.22952e-05
4.283e-07
8.23238e-05
4.22131e-07
8.23517e-05
4.13968e-07
8.2379e-05
4.0434e-07
8.24055e-05
3.9366e-07
8.24316e-05
3.82245e-07
8.24571e-05
3.70344e-07
8.24823e-05
3.58149e-07
8.25071e-05
3.45804e-07
8.25317e-05
3.3342e-07
8.25561e-05
3.21072e-07
8.25805e-05
3.08806e-07
8.2605e-05
2.96636e-07
8.26297e-05
2.84539e-07
8.26547e-05
2.72457e-07
8.26802e-05
2.60288e-07
8.27063e-05
2.47886e-07
8.27331e-05
2.35063e-07
2.21598e-07
8.27605e-05
8.44847e-05
-1.95846e-08
8.44506e-05
-1.93568e-08
8.44214e-05
1.37879e-08
8.44035e-05
6.79283e-08
8.43999e-05
1.34712e-07
8.44087e-05
2.01373e-07
8.44262e-05
2.59569e-07
8.44494e-05
3.06784e-07
8.44761e-05
3.43031e-07
8.45046e-05
3.69251e-07
8.45341e-05
3.86865e-07
8.45637e-05
3.97418e-07
8.45931e-05
4.02331e-07
8.4622e-05
4.02811e-07
8.46505e-05
3.99855e-07
8.46784e-05
3.94265e-07
8.47056e-05
3.86681e-07
8.47324e-05
3.77607e-07
8.47586e-05
3.6744e-07
8.47843e-05
3.56488e-07
8.48097e-05
3.44991e-07
8.48347e-05
3.33135e-07
8.48595e-05
3.21059e-07
8.4884e-05
3.08866e-07
8.49085e-05
2.96625e-07
8.49329e-05
2.84373e-07
8.49574e-05
2.72117e-07
8.49821e-05
2.59833e-07
8.50071e-05
2.47464e-07
8.50325e-05
2.3492e-07
8.50583e-05
2.22078e-07
8.50846e-05
2.0879e-07
1.94889e-07
8.51113e-05
8.69073e-05
-4.6854e-09
8.68827e-05
5.21469e-09
8.68602e-05
3.63212e-08
8.68455e-05
8.25695e-08
8.68419e-05
1.38294e-07
8.68488e-05
1.94522e-07
8.68636e-05
2.4474e-07
8.6884e-05
2.86385e-07
8.69081e-05
3.18966e-07
8.69344e-05
3.42958e-07
8.69619e-05
3.59367e-07
8.69899e-05
3.69396e-07
8.7018e-05
3.74218e-07
8.70459e-05
3.74874e-07
8.70735e-05
3.72245e-07
8.71007e-05
3.67061e-07
8.71275e-05
3.59914e-07
8.71538e-05
3.51277e-07
8.71798e-05
3.41525e-07
8.72053e-05
3.30953e-07
8.72305e-05
3.19792e-07
8.72554e-05
3.08218e-07
8.72801e-05
2.96366e-07
8.73046e-05
2.84331e-07
8.73291e-05
2.72175e-07
8.73535e-05
2.59933e-07
8.7378e-05
2.47608e-07
8.74027e-05
2.35178e-07
8.74276e-05
2.22592e-07
8.74527e-05
2.09775e-07
8.74782e-05
1.96631e-07
8.75039e-05
1.83044e-07
1.68892e-07
8.75299e-05
8.93962e-05
4.68164e-09
8.93791e-05
2.22484e-08
8.93627e-05
5.27747e-08
8.93517e-05
9.35632e-08
8.93491e-05
1.4087e-07
8.93551e-05
1.8856e-07
8.93681e-05
2.31749e-07
8.93863e-05
2.68141e-07
8.94082e-05
2.97036e-07
8.94326e-05
3.18607e-07
8.94584e-05
3.33547e-07
8.9485e-05
3.42779e-07
8.9512e-05
3.47257e-07
8.9539e-05
3.47865e-07
8.95659e-05
3.45375e-07
8.95925e-05
3.4044e-07
8.96188e-05
3.33599e-07
8.96448e-05
3.2529e-07
8.96704e-05
3.15865e-07
8.96958e-05
3.05601e-07
8.97209e-05
2.94717e-07
8.97457e-05
2.8338e-07
8.97703e-05
2.71718e-07
8.97949e-05
2.59819e-07
8.98193e-05
2.47743e-07
8.98437e-05
2.3552e-07
8.98682e-05
2.23154e-07
8.98927e-05
2.10628e-07
8.99174e-05
1.979e-07
8.99423e-05
1.84912e-07
8.99673e-05
1.71589e-07
8.99925e-05
1.57845e-07
1.436e-07
9.00178e-05
9.19542e-05
1.03555e-08
9.19429e-05
3.34939e-08
9.19317e-05
6.39814e-08
9.19244e-05
1.00923e-07
9.19234e-05
1.41864e-07
9.19293e-05
1.82682e-07
9.19412e-05
2.19839e-07
9.19579e-05
2.51441e-07
9.19781e-05
2.76777e-07
9.20009e-05
2.95857e-07
9.20253e-05
3.09159e-07
9.20506e-05
3.17387e-07
9.20766e-05
3.21315e-07
9.21028e-05
3.21685e-07
9.2129e-05
3.19167e-07
9.21551e-05
3.14338e-07
9.2181e-05
3.07684e-07
9.22067e-05
2.99605e-07
9.22321e-05
2.90427e-07
9.22573e-05
2.80407e-07
9.22823e-05
2.69751e-07
9.2307e-05
2.58615e-07
9.23316e-05
2.47119e-07
9.23561e-05
2.35346e-07
9.23805e-05
2.23352e-07
9.24049e-05
2.11167e-07
9.24292e-05
1.98798e-07
9.24536e-05
1.86231e-07
9.24781e-05
1.73437e-07
9.25026e-05
1.60372e-07
9.25272e-05
1.4698e-07
9.25519e-05
1.33206e-07
1.18992e-07
9.25765e-05
9.45839e-05
1.35963e-08
9.4577e-05
4.04143e-08
9.45701e-05
7.0877e-08
9.45661e-05
1.04956e-07
9.45669e-05
1.41029e-07
9.45732e-05
1.76346e-07
9.45847e-05
2.08407e-07
9.46004e-05
2.35749e-07
9.46194e-05
2.57753e-07
9.46409e-05
2.74375e-07
9.46641e-05
2.85953e-07
9.46884e-05
2.93037e-07
9.47135e-05
2.96256e-07
9.47389e-05
2.96233e-07
9.47645e-05
2.93544e-07
9.47902e-05
2.88697e-07
9.48157e-05
2.82125e-07
9.48412e-05
2.7419e-07
9.48664e-05
2.65188e-07
9.48914e-05
2.55357e-07
9.49163e-05
2.44887e-07
9.4941e-05
2.33925e-07
9.49655e-05
2.22579e-07
9.499e-05
2.1093e-07
9.50143e-05
1.99031e-07
9.50385e-05
1.8691e-07
9.50628e-05
1.74579e-07
9.5087e-05
1.62029e-07
9.51112e-05
1.49242e-07
9.51353e-05
1.36186e-07
9.51595e-05
1.22828e-07
9.51836e-05
1.09128e-07
9.50523e-08
9.52075e-05
9.72879e-05
1.52547e-08
9.72841e-05
4.41859e-08
9.72806e-05
7.43808e-08
9.72794e-05
1.06147e-07
9.7282e-05
1.38388e-07
9.72891e-05
1.69264e-07
9.73005e-05
1.9704e-07
9.73156e-05
2.20643e-07
9.73337e-05
2.39594e-07
9.73543e-05
2.53857e-07
9.73765e-05
2.63695e-07
9.74e-05
2.69553e-07
9.74243e-05
2.7195e-07
9.74491e-05
2.71413e-07
9.74742e-05
2.68437e-07
9.74995e-05
2.63467e-07
9.75247e-05
2.56887e-07
9.75499e-05
2.49019e-07
9.75749e-05
2.40133e-07
9.75998e-05
2.30444e-07
9.76246e-05
2.20128e-07
9.76492e-05
2.09317e-07
9.76737e-05
1.98115e-07
9.7698e-05
1.86595e-07
9.77222e-05
1.74808e-07
9.77464e-05
1.62783e-07
9.77704e-05
1.50534e-07
9.77944e-05
1.3806e-07
9.78183e-05
1.2535e-07
9.78421e-05
1.12386e-07
9.78657e-05
9.91484e-08
9.78892e-05
8.5613e-08
7.17664e-08
9.79125e-05
0.000100068
1.58996e-08
0.000100067
4.57297e-08
0.000100066
7.53299e-08
0.000100067
1.05061e-07
0.000100071
1.34154e-07
0.000100079
1.61365e-07
0.000100091
1.85511e-07
0.000100105
2.05838e-07
0.000100123
2.2202e-07
0.000100143
2.34056e-07
0.000100164
2.42183e-07
0.000100187
2.46777e-07
0.000100211
2.48277e-07
0.000100235
2.47136e-07
0.00010026
2.43783e-07
0.000100285
2.38604e-07
0.00010031
2.31939e-07
0.000100335
2.24075e-07
0.000100359
2.15253e-07
0.000100384
2.05669e-07
0.000100409
1.9548e-07
0.000100433
1.84808e-07
0.000100458
1.73747e-07
0.000100482
1.62367e-07
0.000100506
1.50714e-07
0.00010053
1.3882e-07
0.000100554
1.26698e-07
0.000100578
1.14356e-07
0.000100601
1.01789e-07
0.000100624
8.89923e-08
0.000100648
7.59527e-08
0.000100671
6.26651e-08
4.91199e-08
0.000100693
0.000102928
1.59112e-08
0.000102928
4.57562e-08
0.000102929
7.44527e-08
0.000102932
1.02276e-07
0.000102937
1.28659e-07
0.000102946
1.52753e-07
0.000102958
1.73764e-07
0.000102972
1.91195e-07
0.000102989
2.04857e-07
0.000103009
2.14806e-07
0.00010303
2.21271e-07
0.000103052
2.24589e-07
0.000103075
2.25147e-07
0.000103099
2.23337e-07
0.000103123
2.19533e-07
0.000103147
2.14076e-07
0.000103172
2.07263e-07
0.000103197
1.9935e-07
0.000103221
1.90551e-07
0.000103246
1.81039e-07
0.000103271
1.70958e-07
0.000103295
1.60416e-07
0.000103319
1.49501e-07
0.000103343
1.38274e-07
0.000103367
1.2678e-07
0.000103391
1.15051e-07
0.000103415
1.03103e-07
0.000103438
9.09473e-08
0.000103461
7.85869e-08
0.000103484
6.60234e-08
0.000103507
5.3255e-08
0.000103529
4.02814e-08
2.71026e-08
0.000103551
0.000105869
1.55465e-08
0.00010587
4.48126e-08
0.000105872
7.23709e-08
0.000105876
9.83491e-08
0.000105882
1.22304e-07
0.000105891
1.43653e-07
0.000105903
1.61885e-07
0.000105918
1.76706e-07
0.000105935
1.88049e-07
0.000105953
1.96027e-07
0.000105974
2.0088e-07
0.000105995
2.02923e-07
0.000106018
2.02505e-07
0.000106042
1.99975e-07
0.000106065
1.95664e-07
0.00010609
1.8987e-07
0.000106114
1.82857e-07
0.000106138
1.7485e-07
0.000106163
1.66036e-07
0.000106187
1.56572e-07
0.000106212
1.46583e-07
0.000106236
1.36167e-07
0.00010626
1.25402e-07
0.000106284
1.14344e-07
0.000106308
1.03036e-07
0.000106331
9.15061e-08
0.000106355
7.97776e-08
0.000106378
6.78587e-08
0.000106401
5.57643e-08
0.000106423
4.34938e-08
0.000106445
3.10588e-08
0.000106467
1.84574e-08
5.70157e-09
0.000106489
0.000108894
1.49847e-08
0.000108895
4.33296e-08
0.000108898
6.96179e-08
0.000108903
9.38042e-08
0.00010891
1.15522e-07
0.000108919
1.34378e-07
0.000108931
1.50075e-07
0.000108945
1.62485e-07
0.000108961
1.71649e-07
0.00010898
1.77739e-07
0.000108999
1.81012e-07
0.000109021
1.81774e-07
0.000109043
1.8035e-07
0.000109066
1.77055e-07
0.000109089
1.72184e-07
0.000109113
1.66001e-07
0.000109137
1.58739e-07
0.000109161
1.50595e-07
0.000109186
1.41735e-07
0.00010921
1.32294e-07
0.000109234
1.22383e-07
0.000109258
1.1209e-07
0.000109282
1.0148e-07
0.000109306
9.06072e-08
0.000109329
7.95082e-08
0.000109353
6.82142e-08
0.000109376
5.67427e-08
0.000109398
4.51123e-08
0.000109421
3.33304e-08
0.000109443
2.14111e-08
0.000109465
9.35894e-09
0.000109486
-2.81444e-09
-1.51006e-08
0.000109507
0.000112005
1.436e-08
0.000112007
4.16638e-08
0.00011201
6.66694e-08
0.000112014
8.91454e-08
0.000112021
1.08772e-07
0.00011203
1.25308e-07
0.000112042
1.38628e-07
0.000112055
1.48749e-07
0.000112071
1.55815e-07
0.000112089
1.60054e-07
0.000112108
1.6175e-07
0.000112129
1.61208e-07
0.00011215
1.58736e-07
0.000112173
1.54623e-07
0.000112196
1.49135e-07
0.000112219
1.42509e-07
0.000112243
1.34947e-07
0.000112267
1.26623e-07
0.000112291
1.1768e-07
0.000112315
1.08237e-07
0.000112339
9.8389e-08
0.000112363
8.82101e-08
0.000112387
7.77612e-08
0.00011241
6.70858e-08
0.000112434
5.62201e-08
0.000112457
4.51897e-08
0.000112479
3.40148e-08
0.000112502
2.27106e-08
0.000112524
1.12902e-08
0.000112545
-2.34953e-10
0.000112567
-1.18534e-08
0.000112587
-2.35554e-08
-3.5329e-08
0.000112608
0.000115205
1.37851e-08
0.000115207
4.01382e-08
0.000115209
6.39813e-08
0.000115214
8.48815e-08
0.00011522
1.02555e-07
0.000115228
1.16891e-07
0.000115239
1.27925e-07
0.000115252
1.35813e-07
0.000115267
1.40799e-07
0.000115284
1.43177e-07
0.000115302
1.43259e-07
0.000115322
1.41359e-07
0.000115343
1.37772e-07
0.000115365
1.32771e-07
0.000115387
1.26597e-07
0.00011541
1.19459e-07
0.000115434
1.11537e-07
0.000115457
1.02981e-07
0.000115481
9.39136e-08
0.000115505
8.44356e-08
0.000115529
7.46279e-08
0.000115552
6.45534e-08
0.000115576
5.42631e-08
0.000115599
4.3794e-08
0.000115622
3.31784e-08
0.000115645
2.24359e-08
0.000115667
1.15875e-08
0.00011569
6.45268e-10
0.000115711
-1.03755e-08
0.000115732
-2.1465e-08
0.000115753
-3.26092e-08
0.000115773
-4.37999e-08
-5.50221e-08
0.000115793
0.000118496
1.33711e-08
0.000118497
3.90867e-08
0.000118499
6.20405e-08
0.000118503
8.15725e-08
0.000118508
9.74352e-08
0.000118515
1.0966e-07
0.000118524
1.18443e-07
0.000118536
1.24088e-07
0.00011855
1.26951e-07
0.000118566
1.27397e-07
0.000118583
1.25778e-07
0.000118602
1.22421e-07
0.000118622
1.17619e-07
0.000118643
1.11629e-07
0.000118665
1.04671e-07
0.000118688
9.69342e-08
0.000118711
8.85735e-08
0.000118734
7.97175e-08
0.000118758
7.04688e-08
0.000118781
6.09129e-08
0.000118805
5.11129e-08
0.000118828
4.1124e-08
0.000118851
3.09818e-08
0.000118874
2.07226e-08
0.000118897
1.03638e-08
0.00011892
-7.02897e-11
0.000118942
-1.05708e-08
0.000118964
-2.11194e-08
0.000118985
-3.17103e-08
0.000119006
-4.23267e-08
0.000119026
-5.29634e-08
0.000119046
-6.36049e-08
-7.42452e-08
0.000119065
0.000121881
1.3249e-08
0.000121882
3.89063e-08
0.000121882
6.14305e-08
0.000121884
7.98927e-08
0.000121887
9.41057e-08
0.000121893
1.04272e-07
0.0001219
1.10777e-07
0.00012191
1.14096e-07
0.000121922
1.14714e-07
0.000121937
1.13085e-07
0.000121953
1.0961e-07
0.000121971
1.04639e-07
0.00012199
9.84661e-08
0.00012201
9.13403e-08
0.000122031
8.34655e-08
0.000122053
7.50085e-08
0.000122076
6.61038e-08
0.000122099
5.68567e-08
0.000122122
4.73541e-08
0.000122145
3.7659e-08
0.000122168
2.78249e-08
0.000122192
1.78875e-08
0.000122215
7.87911e-09
0.000122238
-2.18236e-09
0.00012226
-1.22771e-08
0.000122283
-2.23966e-08
0.000122304
-3.25267e-08
0.000122326
-4.26623e-08
0.000122347
-5.2791e-08
0.000122368
-6.29082e-08
0.000122388
-7.30013e-08
0.000122407
-8.30656e-08
-9.30901e-08
0.000122426
0.000125363
1.35984e-08
0.000125362
4.01358e-08
0.00012536
6.29301e-08
0.00012536
8.07283e-08
0.00012536
9.3463e-08
0.000125363
1.01572e-07
0.000125368
1.05683e-07
0.000125376
1.06487e-07
0.000125386
1.04632e-07
0.000125398
1.0068e-07
0.000125413
9.50989e-08
0.000125429
8.82705e-08
0.000125447
8.05009e-08
0.000125466
7.20323e-08
0.000125487
6.30547e-08
0.000125508
5.37149e-08
0.00012553
4.41248e-08
0.000125552
3.43709e-08
0.000125575
2.45155e-08
0.000125598
1.46068e-08
0.000125621
4.67776e-09
0.000125645
-5.24747e-09
0.000125668
-1.5153e-08
0.00012569
-2.5028e-08
0.000125713
-3.48656e-08
0.000125735
-4.46606e-08
0.000125757
-5.44094e-08
0.000125779
-6.41081e-08
0.0001258
-7.37529e-08
0.00012582
-8.33389e-08
0.00012584
-9.28611e-08
0.000125859
-1.02314e-07
-1.11694e-07
0.000125878
0.000128944
1.4696e-08
0.000128941
4.35783e-08
0.000128936
6.76621e-08
0.000128931
8.53179e-08
0.000128928
9.67246e-08
0.000128927
1.02671e-07
0.000128928
1.0412e-07
0.000128933
1.02052e-07
0.00012894
9.73289e-08
0.00012895
9.06538e-08
0.000128963
8.25813e-08
0.000128977
7.3539e-08
0.000128994
6.38496e-08
0.000129012
5.37528e-08
0.000129032
4.34232e-08
0.000129053
3.29881e-08
0.000129074
2.25348e-08
0.000129097
1.21262e-08
0.000129119
1.80022e-09
0.000129142
-8.41498e-09
0.000129165
-1.85091e-08
0.000129189
-2.84727e-08
0.000129212
-3.8308e-08
0.000129235
-4.80147e-08
0.000129258
-5.75995e-08
0.00012928
-6.70648e-08
0.000129302
-7.64172e-08
0.000129324
-8.56581e-08
0.000129345
-9.47914e-08
0.000129365
-1.03816e-07
0.000129385
-1.12734e-07
0.000129404
-1.21543e-07
-1.30243e-07
0.000129423
0.000132627
1.70062e-08
0.00013262
5.05185e-08
0.00013261
7.73362e-08
0.0001326
9.54628e-08
0.000132591
1.05583e-07
0.000132585
1.09036e-07
0.000132582
1.0728e-07
0.000132582
1.01703e-07
0.000132586
9.34592e-08
0.000132593
8.34365e-08
0.000132603
7.23005e-08
0.000132616
6.05357e-08
0.000132632
4.84845e-08
0.000132649
3.63814e-08
0.000132668
2.43839e-08
0.000132688
1.25898e-08
0.00013271
1.06147e-09
0.000132732
-1.01744e-08
0.000132755
-2.11013e-08
0.000132778
-3.17273e-08
0.000132802
-4.2057e-08
0.000132826
-5.21117e-08
0.000132849
-6.19037e-08
0.000132873
-7.14576e-08
0.000132896
-8.0786e-08
0.000132919
-8.99113e-08
0.000132941
-9.88433e-08
0.000132963
-1.07599e-07
0.000132984
-1.16185e-07
0.000133005
-1.24613e-07
0.000133025
-1.32884e-07
0.000133045
-1.41008e-07
-1.48984e-07
0.000133064
0.000136414
2.1365e-08
0.000136401
6.31124e-08
0.000136384
9.46386e-08
0.000136366
1.13826e-07
0.000136349
1.22387e-07
0.000136335
1.22556e-07
0.000136326
1.16554e-07
0.000136321
1.06376e-07
0.000136321
9.35708e-08
0.000136325
7.92628e-08
0.000136334
6.42482e-08
0.000136345
4.90709e-08
0.000136359
3.40855e-08
0.000136376
1.95087e-08
0.000136395
5.46601e-09
0.000136416
-7.98369e-09
0.000136438
-2.08219e-08
0.00013646
-3.30589e-08
0.000136484
-4.47221e-08
0.000136508
-5.58477e-08
0.000136533
-6.64781e-08
0.000136557
-7.66547e-08
0.000136582
-8.64205e-08
0.000136606
-9.58131e-08
0.00013663
-1.0487e-07
0.000136654
-1.13622e-07
0.000136677
-1.22098e-07
0.0001367
-1.30321e-07
0.000136722
-1.38312e-07
0.000136743
-1.46086e-07
0.000136764
-1.53659e-07
0.000136784
-1.6104e-07
-1.68239e-07
0.000136804
0.000140308
2.93627e-08
0.000140286
8.51127e-08
0.000140257
1.23858e-07
0.000140226
1.44325e-07
0.000140198
1.50292e-07
0.000140175
1.45486e-07
0.000140158
1.33351e-07
0.000140148
1.16778e-07
0.000140144
9.78323e-08
0.000140145
7.79066e-08
0.000140151
5.79234e-08
0.000140162
3.84639e-08
0.000140176
1.98593e-08
0.000140193
2.28191e-09
0.000140213
-1.42096e-08
0.000140235
-2.96138e-08
0.000140258
-4.39806e-08
0.000140282
-5.73715e-08
0.000140307
-6.9871e-08
0.000140333
-8.15553e-08
0.000140359
-9.25109e-08
0.000140385
-1.02809e-07
0.000140411
-1.12525e-07
0.000140437
-1.21719e-07
0.000140463
-1.30453e-07
0.000140488
-1.38771e-07
0.000140513
-1.46723e-07
0.000140537
-1.54341e-07
0.00014056
-1.61661e-07
0.000140583
-1.68706e-07
0.000140604
-1.75501e-07
0.000140626
-1.82062e-07
-1.88408e-07
0.000140646
0.00014431
4.42044e-08
0.000144272
1.23199e-07
0.000144224
1.71815e-07
0.000144175
1.92539e-07
0.000144133
1.93231e-07
0.000144098
1.80122e-07
0.000144073
1.58624e-07
0.000144057
1.32893e-07
0.000144049
1.05575e-07
0.000144048
7.82858e-08
0.000144054
5.2007e-08
0.000144066
2.72743e-08
0.000144081
4.32986e-09
0.0001441
-1.67703e-08
0.000144122
-3.60689e-08
0.000144146
-5.36741e-08
0.000144172
-6.97171e-08
0.000144199
-8.4348e-08
0.000144227
-9.77093e-08
0.000144255
-1.09945e-07
0.000144284
-1.21181e-07
0.000144312
-1.3154e-07
0.000144341
-1.41123e-07
0.000144369
-1.50028e-07
0.000144397
-1.58333e-07
0.000144424
-1.66114e-07
0.000144451
-1.73427e-07
0.000144477
-1.80331e-07
0.000144502
-1.86864e-07
0.000144527
-1.9307e-07
0.00014455
-1.98975e-07
0.000144573
-2.04611e-07
-2.09997e-07
0.000144594
0.000148419
7.27537e-08
0.000148353
1.89371e-07
0.000148276
2.49006e-07
0.000148203
2.65804e-07
0.000148141
2.55346e-07
0.000148093
2.27908e-07
0.00014806
1.91946e-07
0.000148039
1.53175e-07
0.00014803
1.14647e-07
0.000148031
7.79662e-08
0.000148039
4.39752e-08
0.000148053
1.30117e-08
0.000148072
-1.49052e-08
0.000148095
-3.99203e-08
0.000148121
-6.2255e-08
0.00014815
-8.21619e-08
0.00014818
-9.99009e-08
0.000148211
-1.15722e-07
0.000148244
-1.29857e-07
0.000148276
-1.42519e-07
0.000148309
-1.53895e-07
0.000148341
-1.64152e-07
0.000148374
-1.73437e-07
0.000148406
-1.81877e-07
0.000148437
-1.89582e-07
0.000148467
-1.96647e-07
0.000148497
-2.03153e-07
0.000148526
-2.09169e-07
0.000148554
-2.14754e-07
0.000148581
-2.19957e-07
0.000148607
-2.2482e-07
0.000148631
-2.2938e-07
-2.33666e-07
0.000148655
0.000152632
1.29964e-07
0.000152516
3.05359e-07
0.000152394
3.70791e-07
0.000152288
3.72348e-07
0.000152204
3.3928e-07
0.000152144
2.87641e-07
0.000152106
2.30024e-07
0.000152086
1.73454e-07
0.00015208
1.20625e-07
0.000152085
7.2573e-08
0.000152099
2.9654e-08
0.000152121
-8.23685e-09
0.000152147
-4.14794e-08
0.000152178
-7.05348e-08
0.000152211
-9.58777e-08
0.000152247
-1.17956e-07
0.000152284
-1.37192e-07
0.000152323
-1.53961e-07
0.000152361
-1.686e-07
0.0001524
-1.81403e-07
0.000152439
-1.92626e-07
0.000152477
-2.02489e-07
0.000152515
-2.11184e-07
0.000152552
-2.18875e-07
0.000152588
-2.25701e-07
0.000152623
-2.31781e-07
0.000152657
-2.37219e-07
0.00015269
-2.42098e-07
0.000152722
-2.46494e-07
0.000152753
-2.50466e-07
0.000152782
-2.54068e-07
0.00015281
-2.57344e-07
-2.60332e-07
0.000152836
0.000156935
2.46109e-07
0.00015673
5.11052e-07
0.000156542
5.58897e-07
0.000156395
5.19193e-07
0.000156291
4.42993e-07
0.000156226
3.52526e-07
0.000156192
2.64505e-07
0.00015618
1.85346e-07
0.000156185
1.15575e-07
0.000156203
5.47537e-08
0.00015623
2.29946e-09
0.000156264
-4.2646e-08
0.000156304
-8.10456e-08
0.000156347
-1.13808e-07
0.000156393
-1.41713e-07
0.000156441
-1.65462e-07
0.000156489
-1.85656e-07
0.000156538
-2.02829e-07
0.000156587
-2.17425e-07
0.000156635
-2.29835e-07
0.000156683
-2.40382e-07
0.00015673
-2.49352e-07
0.000156776
-2.56975e-07
0.00015682
-2.63458e-07
0.000156863
-2.68966e-07
0.000156905
-2.73648e-07
0.000156946
-2.7762e-07
0.000156985
-2.8099e-07
0.000157022
-2.83839e-07
0.000157058
-2.86246e-07
0.000157092
-2.88268e-07
0.000157124
-2.89961e-07
-2.91369e-07
0.000157155
0.000161294
4.90872e-07
0.000160931
8.74048e-07
0.000160653
8.36687e-07
0.000160464
7.0764e-07
0.000160352
5.55831e-07
0.000160297
4.0679e-07
0.000160282
2.79353e-07
0.000160294
1.73966e-07
0.000160324
8.57153e-08
0.000160367
1.1716e-08
0.000160419
-4.99586e-08
0.000160478
-1.01204e-07
0.00016054
-1.438e-07
0.000160606
-1.79184e-07
0.000160673
-2.08526e-07
0.00016074
-2.32793e-07
0.000160807
-2.52818e-07
0.000160873
-2.69287e-07
0.000160939
-2.82785e-07
0.000161003
-2.93789e-07
0.000161065
-3.02709e-07
0.000161126
-3.09875e-07
0.000161184
-3.15579e-07
0.000161241
-3.20049e-07
0.000161295
-3.2349e-07
0.000161348
-3.2606e-07
0.000161398
-3.27906e-07
0.000161446
-3.29137e-07
0.000161492
-3.29856e-07
0.000161536
-3.30138e-07
0.000161578
-3.30056e-07
0.000161618
-3.2966e-07
-3.29002e-07
0.000161655
0.000165516
1.12869e-06
0.000164915
1.47512e-06
0.000164579
1.17259e-06
0.000164389
8.97046e-07
0.000164311
6.34689e-07
0.000164306
4.11014e-07
0.000164344
2.41742e-07
0.000164407
1.11129e-07
0.000164487
5.7842e-09
0.000164578
-7.98083e-08
0.000164677
-1.48805e-07
0.00016478
-2.04256e-07
0.000164885
-2.48841e-07
0.000164991
-2.84599e-07
0.000165095
-3.13104e-07
0.000165198
-3.35651e-07
0.000165298
-3.53319e-07
0.000165396
-3.6699e-07
0.000165491
-3.77381e-07
0.000165582
-3.8508e-07
0.00016567
-3.90569e-07
0.000165754
-3.94244e-07
0.000165835
-3.9643e-07
0.000165913
-3.97397e-07
0.000165986
-3.97366e-07
0.000166057
-3.9652e-07
0.000166124
-3.95011e-07
0.000166188
-3.92964e-07
0.000166248
-3.90486e-07
0.000166306
-3.87666e-07
0.00016636
-3.84582e-07
0.000166412
-3.81304e-07
-3.779e-07
0.000166461
0.000168807
3.22218e-06