/*--------------------------------*- C++ -*----------------------------------*\
  =========                 |
  \\      /  F ield         | OpenFOAM: The Open Source CFD Toolbox
   \\    /   O peration     | Website:  https://openfoam.org
    \\  /    A nd           | Version:  10
     \\/     M anipulation  |
\*---------------------------------------------------------------------------*/
FoamFile
{
    format      ascii;
    class       volScalarField;
    location    "1800";
    object      yPlus;
}
// * * * * * * * * * * * * * * * * * * * * * * * * * * * * * * * * * * * * * //

dimensions      [0 0 0 0 0 0 0];

internalField   uniform 0;

boundaryField
{
    outlet
    {
        type            calculated;
        value           uniform 0;
    }
    inlet
    {
        type            calculated;
        value           uniform 0;
    }
    lowerWall
    {
        type            calculated;
        value           nonuniform List<scalar> 
148
(
12.7112
17.6462
20.7196
22.3203
23.0459
23.2746
23.2254
23.0255
22.751
22.4469
22.1389
21.8405
21.5586
21.2962
21.0538
20.8308
20.626
20.4378
20.2649
20.1058
19.959
19.8234
19.6978
19.5813
19.473
19.372
19.2777
19.1894
19.1062
19.029
18.9491
18.9048
18.7004
0.398317
2.16412
3.9017
5.2334
6.33112
7.24871
8.11545
8.98647
9.85435
10.8722
11.5813
11.9377
11.4623
9.14666
10.7031
0.398317
3.35877
4.97766
5.74378
5.92785
5.79614
5.49383
5.10078
4.58184
3.28765
0.977789
8.0273
8.9663
13.7808
18.5516
22.1061
25.1183
27.7556
30.1089
32.2298
34.1498
35.89
37.469
38.9041
40.2136
41.4153
42.5269
43.5641
44.5406
45.4678
46.3549
47.2087
48.0346
48.8368
49.6192
50.3857
51.1416
51.893
52.6452
53.3822
54.11
54.8285
55.5373
56.2351
56.9205
57.5921
58.2479
58.8862
59.505
60.1024
60.6761
61.2239
61.7437
62.2329
62.6893
63.1107
63.4946
63.8389
64.1417
64.4014
64.6168
64.7862
64.909
64.985
65.013
64.9933
64.9256
64.8092
64.6432
64.4227
64.187
63.9506
63.6664
63.3345
62.9644
62.5634
62.1376
61.6905
61.2258
60.7469
60.2567
59.7579
59.2536
58.7464
58.2386
57.7322
57.2292
56.7313
56.24
55.7569
55.283
54.8203
54.369
53.9329
53.5103
53.1094
52.7267
52.3798
52.0771
51.8312
)
;
    }
    upperWall
    {
        type            calculated;
        value           nonuniform List<scalar> 
133
(
31.2591
34.0073
36.6584
39.0132
41.0752
42.889
44.4881
45.8973
47.1377
48.2283
49.1859
50.0256
50.7609
51.4035
51.9643
52.4525
52.8767
53.2444
53.562
53.8356
54.0702
54.2704
54.4403
54.5834
54.703
54.8017
54.882
54.9462
54.9961
55.0334
55.0597
55.0762
55.0845
55.0839
55.0724
55.05
55.0172
54.9744
54.9223
54.8613
54.7919
54.7145
54.6297
54.5378
54.4392
54.3343
54.2232
54.1063
53.9838
53.856
53.7229
53.5848
53.4417
53.2937
53.1408
52.9831
52.8205
52.6529
52.4803
52.3026
52.1196
51.9311
51.737
51.537
51.331
51.1187
50.8998
50.6741
50.4413
50.2012
49.9534
49.6977
49.4339
49.1617
48.881
48.5914
48.2929
47.9854
47.6689
47.3431
47.0083
46.6646
46.312
45.9509
45.5817
45.2047
44.8204
44.4297
44.0331
43.6315
43.226
42.8176
42.4075
41.9971
41.5876
41.1806
40.7777
40.3803
39.9901
39.6088
39.2379
38.879
38.5334
38.2026
37.8877
37.5895
37.309
37.0466
36.8027
36.5773
36.3702
36.181
36.0091
35.8535
35.7134
35.5872
35.4741
35.3723
35.2807
35.1976
35.1217
35.0516
34.9861
34.9237
34.8634
34.8038
34.7442
34.6833
34.6201
34.555
34.4809
34.4211
34.2885
)
;
    }
    frontAndBack
    {
        type            empty;
    }
}


// ************************************************************************* //
