/*--------------------------------*- C++ -*----------------------------------*\
  =========                 |
  \\      /  F ield         | OpenFOAM: The Open Source CFD Toolbox
   \\    /   O peration     | Website:  https://openfoam.org
    \\  /    A nd           | Version:  10
     \\/     M anipulation  |
\*---------------------------------------------------------------------------*/
FoamFile
{
    format      ascii;
    class       volVectorField;
    location    "0.015";
    object      U;
}
// * * * * * * * * * * * * * * * * * * * * * * * * * * * * * * * * * * * * * //

dimensions      [0 1 -1 0 0 0 0];

internalField   nonuniform List<vector> 
6820
(
(5.57386 0.459028 0)
(3.88456 0.245742 0)
(2.59317 0.00856116 0)
(1.9643 -0.0645321 0)
(1.74269 -0.0599611 0)
(1.63628 -0.0345582 0)
(1.57695 -0.0158799 0)
(1.53765 -0.0057612 0)
(1.5068 -0.00111575 0)
(1.48235 0.00044113 0)
(1.46387 0.000554199 0)
(1.451 0.000118055 0)
(1.44337 -0.000442026 0)
(1.44077 -0.000856566 0)
(1.44266 -0.00165583 0)
(1.44868 -0.00211938 0)
(1.45885 -0.00246922 0)
(1.47333 -0.00290853 0)
(1.49232 -0.00342998 0)
(1.51599 -0.00400469 0)
(1.54446 -0.00461799 0)
(1.5778 -0.0052724 0)
(1.61601 -0.00598223 0)
(1.65909 -0.00676884 0)
(1.70711 -0.00766445 0)
(1.7603 -0.00871372 0)
(1.81912 -0.0100028 0)
(1.88465 -0.0116123 0)
(1.95773 -0.0138895 0)
(2.04277 -0.0166443 0)
(2.13641 -0.0228184 0)
(2.26768 -0.0243085 0)
(2.36825 -0.0802684 0)
(7.66983 0.863467 0)
(7.71862 0.889746 0)
(7.00491 0.596851 0)
(6.20764 0.345471 0)
(5.60107 0.176995 0)
(5.16477 0.0897985 0)
(4.85788 0.0486233 0)
(4.64121 0.0292087 0)
(4.48406 0.0196813 0)
(4.36747 0.0141776 0)
(4.28001 0.0102184 0)
(4.21468 0.00685221 0)
(4.16713 0.00367063 0)
(4.13448 0.00061091 0)
(4.11485 -0.00265383 0)
(4.10733 -0.00610524 0)
(4.11106 -0.00981003 0)
(4.12537 -0.013767 0)
(4.14985 -0.017985 0)
(4.18412 -0.0225098 0)
(4.2278 -0.0273312 0)
(4.28045 -0.0323936 0)
(4.34159 -0.0376546 0)
(4.41074 -0.0431297 0)
(4.48756 -0.0489283 0)
(4.57194 -0.0552674 0)
(4.66407 -0.0625268 0)
(4.7647 -0.071148 0)
(4.87498 -0.0821406 0)
(4.9973 -0.0958593 0)
(5.13359 -0.116721 0)
(5.2916 -0.142461 0)
(5.46956 -0.194711 0)
(7.5635 0.519739 0)
(8.22545 0.661746 0)
(8.46676 0.572959 0)
(8.36959 0.45403 0)
(8.13989 0.338599 0)
(7.87157 0.252297 0)
(7.61248 0.191065 0)
(7.38254 0.146429 0)
(7.18521 0.113166 0)
(7.01876 0.0875475 0)
(6.8802 0.0670539 0)
(6.76644 0.0500702 0)
(6.67472 0.0355118 0)
(6.6027 0.0225896 0)
(6.54858 0.0108523 0)
(6.51065 -0.000248588 0)
(6.48767 -0.0111594 0)
(6.47918 -0.0221369 0)
(6.4843 -0.0332108 0)
(6.50205 -0.0443212 0)
(6.53146 -0.0554153 0)
(6.57155 -0.0664494 0)
(6.62141 -0.0774204 0)
(6.6802 -0.0884143 0)
(6.74725 -0.09965 0)
(6.82212 -0.111506 0)
(6.90458 -0.124558 0)
(6.99471 -0.139567 0)
(7.09279 -0.157716 0)
(7.19951 -0.180201 0)
(7.31512 -0.210322 0)
(7.43901 -0.249234 0)
(7.56846 -0.309236 0)
(7.43342 0.340522 0)
(7.88487 0.512661 0)
(8.24383 0.486142 0)
(8.44303 0.424397 0)
(8.54418 0.350975 0)
(8.57717 0.287914 0)
(8.56693 0.239042 0)
(8.53338 0.200432 0)
(8.48786 0.16901 0)
(8.43707 0.142455 0)
(8.38546 0.119123 0)
(8.33604 0.0979927 0)
(8.29085 0.0784052 0)
(8.2513 0.0598999 0)
(8.21838 0.0421044 0)
(8.19279 0.0247063 0)
(8.17491 0.00740655 0)
(8.16395 -0.00988912 0)
(8.15962 -0.027247 0)
(8.16178 -0.0446201 0)
(8.17023 -0.0618886 0)
(8.1847 -0.0789448 0)
(8.20492 -0.0957537 0)
(8.23058 -0.112402 0)
(8.26145 -0.129141 0)
(8.29727 -0.146408 0)
(8.33783 -0.164858 0)
(8.38293 -0.185312 0)
(8.43222 -0.208917 0)
(8.48521 -0.236875 0)
(8.54072 -0.271365 0)
(8.5963 -0.313562 0)
(8.64855 -0.366353 0)
(7.39686 0.250401 0)
(7.68031 0.419102 0)
(7.92417 0.400481 0)
(8.07847 0.348648 0)
(8.18911 0.291719 0)
(8.27141 0.243422 0)
(8.33226 0.206401 0)
(8.37916 0.176926 0)
(8.41623 0.152181 0)
(8.44565 0.130452 0)
(8.46912 0.110588 0)
(8.48799 0.091869 0)
(8.50336 0.0738304 0)
(8.51611 0.0561435 0)
(8.52695 0.0385715 0)
(8.53641 0.0209092 0)
(8.54489 0.00313864 0)
(8.5526 -0.014614 0)
(8.55979 -0.0324034 0)
(8.56664 -0.0502542 0)
(8.57332 -0.0680974 0)
(8.58009 -0.0858577 0)
(8.58723 -0.103523 0)
(8.59505 -0.121189 0)
(8.60388 -0.139104 0)
(8.61399 -0.157673 0)
(8.62555 -0.177482 0)
(8.63855 -0.19926 0)
(8.65282 -0.22395 0)
(8.66786 -0.25252 0)
(8.68263 -0.286276 0)
(8.69506 -0.325838 0)
(8.70264 -0.371439 0)
(7.37405 0.179995 0)
(7.57443 0.333997 0)
(7.76176 0.338597 0)
(7.87704 0.307596 0)
(7.9541 0.266336 0)
(8.0103 0.225744 0)
(8.05246 0.191548 0)
(8.08714 0.163146 0)
(8.11772 0.138998 0)
(8.1453 0.1179 0)
(8.17037 0.0988426 0)
(8.19318 0.0810736 0)
(8.21383 0.0640746 0)
(8.23238 0.0474869 0)
(8.24891 0.03106 0)
(8.26352 0.0146109 0)
(8.2762 -0.00191894 0)
(8.28757 -0.0186874 0)
(8.29781 -0.0357209 0)
(8.30712 -0.052963 0)
(8.31575 -0.0703486 0)
(8.32397 -0.0878446 0)
(8.33215 -0.105482 0)
(8.34067 -0.123388 0)
(8.34991 -0.141814 0)
(8.36021 -0.161137 0)
(8.37181 -0.181869 0)
(8.38481 -0.204629 0)
(8.39905 -0.230158 0)
(8.41406 -0.259178 0)
(8.42897 -0.29241 0)
(8.44217 -0.330065 0)
(8.45212 -0.371521 0)
(7.35908 0.132018 0)
(7.50358 0.270872 0)
(7.6565 0.29102 0)
(7.7573 0.272349 0)
(7.82439 0.240596 0)
(7.87251 0.206171 0)
(7.90725 0.175573 0)
(7.9343 0.149487 0)
(7.95731 0.126868 0)
(7.97786 0.106787 0)
(7.99675 0.0884525 0)
(8.01446 0.0712499 0)
(8.03123 0.0547439 0)
(8.04718 0.0386164 0)
(8.06238 0.0226298 0)
(8.07686 0.00660138 0)
(8.09069 -0.00966677 0)
(8.1039 -0.0262808 0)
(8.11653 -0.0431983 0)
(8.12871 -0.0603812 0)
(8.1406 -0.0778172 0)
(8.15242 -0.0955192 0)
(8.16443 -0.113555 0)
(8.17691 -0.132074 0)
(8.19011 -0.151322 0)
(8.20427 -0.171643 0)
(8.21948 -0.193477 0)
(8.23572 -0.217328 0)
(8.25278 -0.243737 0)
(8.27018 -0.273183 0)
(8.28721 -0.306008 0)
(8.30266 -0.342166 0)
(8.31561 -0.380825 0)
(7.34967 0.0982659 0)
(7.45367 0.218104 0)
(7.5772 0.246147 0)
(7.6666 0.237428 0)
(7.72927 0.215496 0)
(7.77605 0.188746 0)
(7.81073 0.162909 0)
(7.83759 0.139562 0)
(7.86002 0.11844 0)
(7.87968 0.0991226 0)
(7.8975 0.0811685 0)
(7.91409 0.0641539 0)
(7.9298 0.0477352 0)
(7.94484 0.0316426 0)
(7.95935 0.015663 0)
(7.97342 -0.000377407 0)
(7.98709 -0.0166137 0)
(8.00037 -0.0331245 0)
(8.0133 -0.0499349 0)
(8.02596 -0.067067 0)
(8.0385 -0.084551 0)
(8.05107 -0.102435 0)
(8.06389 -0.120811 0)
(8.07714 -0.139833 0)
(8.09101 -0.159729 0)
(8.10564 -0.1808 0)
(8.12106 -0.203414 0)
(8.13719 -0.227973 0)
(8.15381 -0.254873 0)
(8.17049 -0.284431 0)
(8.18667 -0.316777 0)
(8.20152 -0.351734 0)
(8.21449 -0.388523 0)
(7.34383 0.0742571 0)
(7.41942 0.175994 0)
(7.51865 0.208464 0)
(7.59663 0.207255 0)
(7.65391 0.192332 0)
(7.69829 0.170979 0)
(7.73247 0.148528 0)
(7.75954 0.127265 0)
(7.78229 0.107495 0)
(7.80225 0.0890734 0)
(7.82026 0.0717282 0)
(7.83692 0.0551378 0)
(7.85261 0.0390167 0)
(7.86755 0.0231331 0)
(7.88189 0.00729863 0)
(7.89576 -0.00863714 0)
(7.90922 -0.0247942 0)
(7.92232 -0.041272 0)
(7.93512 -0.0581241 0)
(7.94772 -0.0753832 0)
(7.96025 -0.0930888 0)
(7.97285 -0.111302 0)
(7.98568 -0.130124 0)
(7.99888 -0.149707 0)
(8.0126 -0.170261 0)
(8.0269 -0.192049 0)
(8.04178 -0.215374 0)
(8.05715 -0.240548 0)
(8.0728 -0.267852 0)
(8.08838 -0.297471 0)
(8.10346 -0.329415 0)
(8.11747 -0.363457 0)
(8.13012 -0.398953 0)
(7.34019 0.056964 0)
(7.39571 0.142171 0)
(7.47523 0.175631 0)
(7.54268 0.179302 0)
(7.59462 0.16963 0)
(7.63628 0.153044 0)
(7.6695 0.134143 0)
(7.69635 0.115334 0)
(7.71908 0.09723 0)
(7.73905 0.0799051 0)
(7.75706 0.0632694 0)
(7.77368 0.0471399 0)
(7.78928 0.0313203 0)
(7.8041 0.0156342 0)
(7.81831 -6.95861e-05 0)
(7.83202 -0.0159243 0)
(7.84533 -0.0320403 0)
(7.8583 -0.0485036 0)
(7.87102 -0.0653704 0)
(7.88356 -0.0826904 0)
(7.89604 -0.100526 0)
(7.90857 -0.118958 0)
(7.92127 -0.138099 0)
(7.93426 -0.158098 0)
(7.94762 -0.179144 0)
(7.96141 -0.201465 0)
(7.97558 -0.225306 0)
(7.99004 -0.250908 0)
(8.00461 -0.278467 0)
(8.01901 -0.308088 0)
(8.03291 -0.339718 0)
(8.04593 -0.373134 0)
(8.05793 -0.407828 0)
(7.3379 0.0442663 0)
(7.37921 0.11495 0)
(7.44296 0.147381 0)
(7.50101 0.154329 0)
(7.54786 0.148679 0)
(7.58665 0.135923 0)
(7.61852 0.119933 0)
(7.64484 0.103104 0)
(7.66734 0.08633 0)
(7.68721 0.0698924 0)
(7.70517 0.0538504 0)
(7.72172 0.038126 0)
(7.73723 0.0225859 0)
(7.75193 0.00709293 0)
(7.76599 -0.00848445 0)
(7.77954 -0.0242599 0)
(7.79267 -0.0403341 0)
(7.80546 -0.0567951 0)
(7.81797 -0.0737141 0)
(7.83031 -0.0911556 0)
(7.84256 -0.109191 0)
(7.85482 -0.127904 0)
(7.86719 -0.147404 0)
(7.87976 -0.167828 0)
(7.89258 -0.189342 0)
(7.90567 -0.212137 0)
(7.91899 -0.23641 0)
(7.93244 -0.262341 0)
(7.94587 -0.290064 0)
(7.95904 -0.319626 0)
(7.97172 -0.350948 0)
(7.98366 -0.38383 0)
(7.99476 -0.41788 0)
(7.33644 0.0347597 0)
(7.3676 0.0929824 0)
(7.41882 0.123062 0)
(7.46856 0.1318 0)
(7.51059 0.128928 0)
(7.54647 0.119113 0)
(7.57684 0.105613 0)
(7.60249 0.0906712 0)
(7.62468 0.075296 0)
(7.6444 0.0598823 0)
(7.66226 0.0445787 0)
(7.67872 0.0293856 0)
(7.69411 0.0142289 0)
(7.70866 -0.00098747 0)
(7.72255 -0.0163665 0)
(7.7359 -0.0320061 0)
(7.74879 -0.0479966 0)
(7.76133 -0.0644197 0)
(7.77358 -0.0813463 0)
(7.78562 -0.0988452 0)
(7.79754 -0.116992 0)
(7.80942 -0.135876 0)
(7.82132 -0.155604 0)
(7.83332 -0.176306 0)
(7.84544 -0.198128 0)
(7.85768 -0.221232 0)
(7.86999 -0.245777 0)
(7.8823 -0.271898 0)
(7.89445 -0.299684 0)
(7.90628 -0.329148 0)
(7.9176 -0.360202 0)
(7.92823 -0.392672 0)
(7.93814 -0.426257 0)
(7.3355 0.0274914 0)
(7.35936 0.0751442 0)
(7.40068 0.102128 0)
(7.44318 0.111576 0)
(7.48074 0.110596 0)
(7.51378 0.103049 0)
(7.5425 0.0916234 0)
(7.56727 0.0783117 0)
(7.589 0.0641552 0)
(7.60843 0.0496312 0)
(7.6261 0.0349654 0)
(7.6424 0.0202281 0)
(7.65762 0.00539881 0)
(7.67199 -0.00958491 0)
(7.68566 -0.0247989 0)
(7.69875 -0.0403257 0)
(7.71137 -0.0562477 0)
(7.72358 -0.0726439 0)
(7.73548 -0.0895884 0)
(7.74712 -0.107155 0)
(7.75858 -0.125423 0)
(7.76993 -0.144481 0)
(7.78123 -0.164429 0)
(7.79251 -0.185381 0)
(7.8038 -0.207464 0)
(7.81508 -0.230809 0)
(7.82631 -0.255543 0)
(7.83741 -0.281762 0)
(7.84825 -0.309521 0)
(7.85871 -0.33881 0)
(7.86863 -0.36954 0)
(7.87787 -0.401564 0)
(7.88642 -0.434647 0)
(7.33487 0.0218161 0)
(7.35342 0.0605529 0)
(7.38695 0.0840942 0)
(7.42325 0.0934283 0)
(7.4567 0.0935727 0)
(7.48698 0.087646 0)
(7.51398 0.0778525 0)
(7.53777 0.0659239 0)
(7.55891 0.0528751 0)
(7.57799 0.039222 0)
(7.5954 0.0252323 0)
(7.61149 0.0110191 0)
(7.62651 -0.00340197 0)
(7.64066 -0.0180657 0)
(7.65408 -0.0330301 0)
(7.66688 -0.0483653 0)
(7.67916 -0.0641449 0)
(7.691 -0.0804427 0)
(7.70248 -0.0973313 0)
(7.71365 -0.114884 0)
(7.72458 -0.133179 0)
(7.73532 -0.1523 0)
(7.74592 -0.17234 0)
(7.7564 -0.193403 0)
(7.76677 -0.215598 0)
(7.777 -0.239036 0)
(7.78707 -0.263813 0)
(7.79688 -0.290003 0)
(7.80634 -0.317634 0)
(7.81534 -0.34668 0)
(7.82376 -0.377055 0)
(7.83149 -0.40863 0)
(7.83851 -0.441216 0)
(7.33444 0.0172929 0)
(7.3491 0.0485077 0)
(7.37651 0.0685158 0)
(7.40754 0.0771409 0)
(7.43728 0.0778151 0)
(7.46496 0.0729954 0)
(7.49023 0.0644686 0)
(7.51294 0.0536982 0)
(7.5334 0.0416213 0)
(7.55202 0.0287557 0)
(7.5691 0.0153893 0)
(7.58491 0.0016644 0)
(7.59966 -0.0123744 0)
(7.61352 -0.0267374 0)
(7.62663 -0.0414654 0)
(7.63909 -0.0566156 0)
(7.65098 -0.0722534 0)
(7.66239 -0.0884483 0)
(7.67338 -0.105271 0)
(7.684 -0.122793 0)
(7.6943 -0.14109 0)
(7.70434 -0.160242 0)
(7.71415 -0.180334 0)
(7.72374 -0.201456 0)
(7.73311 -0.223699 0)
(7.74224 -0.247153 0)
(7.75109 -0.27189 0)
(7.75959 -0.297959 0)
(7.76765 -0.325369 0)
(7.77518 -0.354082 0)
(7.78208 -0.384011 0)
(7.78825 -0.415043 0)
(7.79369 -0.447019 0)
(7.33414 0.0136164 0)
(7.3459 0.0384603 0)
(7.36851 0.0550034 0)
(7.39512 0.0625058 0)
(7.42156 0.0632377 0)
(7.44682 0.0590843 0)
(7.47039 0.051476 0)
(7.49197 0.0416274 0)
(7.51168 0.0303766 0)
(7.52977 0.0182215 0)
(7.54646 0.00545328 0)
(7.56193 -0.00777161 0)
(7.57638 -0.0213905 0)
(7.58992 -0.0353986 0)
(7.60268 -0.0498251 0)
(7.61476 -0.0647186 0)
(7.62622 -0.0801388 0)
(7.63715 -0.0961508 0)
(7.64759 -0.112822 0)
(7.6576 -0.130222 0)
(7.66723 -0.148422 0)
(7.67651 -0.167494 0)
(7.68547 -0.187516 0)
(7.69411 -0.208566 0)
(7.70243 -0.230721 0)
(7.71041 -0.254052 0)
(7.718 -0.278615 0)
(7.72515 -0.304439 0)
(7.73177 -0.331517 0)
(7.7378 -0.359801 0)
(7.74314 -0.389205 0)
(7.7477 -0.419623 0)
(7.75148 -0.450919 0)
(7.33392 0.0105719 0)
(7.34351 0.0299815 0)
(7.36235 0.0432147 0)
(7.38528 0.0493204 0)
(7.40881 0.0497456 0)
(7.43186 0.0459014 0)
(7.4538 0.0389176 0)
(7.47425 0.0297848 0)
(7.49317 0.0192287 0)
(7.51069 0.00770632 0)
(7.52692 -0.00450399 0)
(7.54202 -0.0172449 0)
(7.5561 -0.0304452 0)
(7.56927 -0.0440907 0)
(7.58164 -0.0582017 0)
(7.59328 -0.0728196 0)
(7.60427 -0.0879985 0)
(7.61466 -0.103799 0)
(7.6245 -0.120285 0)
(7.63384 -0.137522 0)
(7.64273 -0.155577 0)
(7.65119 -0.174515 0)
(7.65923 -0.194405 0)
(7.66687 -0.215312 0)
(7.67409 -0.237301 0)
(7.68088 -0.260426 0)
(7.6872 -0.284725 0)
(7.69298 -0.310211 0)
(7.69817 -0.33686 0)
(7.7027 -0.364618 0)
(7.70649 -0.393393 0)
(7.70945 -0.423088 0)
(7.71159 -0.453579 0)
(7.33376 0.00800537 0)
(7.34171 0.0227349 0)
(7.35758 0.0328537 0)
(7.37747 0.0373926 0)
(7.39848 0.0372344 0)
(7.41954 0.0334087 0)
(7.43996 0.0267939 0)
(7.45931 0.018184 0)
(7.47742 0.00819132 0)
(7.49432 -0.00277863 0)
(7.51007 -0.0144703 0)
(7.52474 -0.0267337 0)
(7.53843 -0.039497 0)
(7.5512 -0.052742 0)
(7.56314 -0.0664847 0)
(7.57432 -0.0807628 0)
(7.58478 -0.095627 0)
(7.5946 -0.111135 0)
(7.6038 -0.127348 0)
(7.61243 -0.144326 0)
(7.62053 -0.162133 0)
(7.62812 -0.180827 0)
(7.63522 -0.200467 0)
(7.64182 -0.221111 0)
(7.64792 -0.242808 0)
(7.6535 -0.265601 0)
(7.65852 -0.289512 0)
(7.66294 -0.31454 0)
(7.6667 -0.34065 0)
(7.66972 -0.367779 0)
(7.67197 -0.395832 0)
(7.67335 -0.424714 0)
(7.67386 -0.45431 0)
(7.33364 0.00580368 0)
(7.34034 0.0164561 0)
(7.35389 0.0236647 0)
(7.37128 0.0265408 0)
(7.39013 0.0255928 0)
(7.40942 0.0215533 0)
(7.42846 0.0150934 0)
(7.44675 0.00683886 0)
(7.46408 -0.00270753 0)
(7.48036 -0.0131985 0)
(7.4956 -0.0244098 0)
(7.50983 -0.0362078 0)
(7.52309 -0.0485274 0)
(7.53543 -0.0613521 0)
(7.54691 -0.0746974 0)
(7.55758 -0.0885995 0)
(7.56749 -0.103107 0)
(7.57668 -0.118275 0)
(7.5852 -0.134162 0)
(7.59308 -0.150824 0)
(7.60035 -0.168318 0)
(7.60703 -0.186698 0)
(7.61314 -0.206013 0)
(7.61867 -0.226311 0)
(7.62363 -0.247631 0)
(7.62798 -0.270001 0)
(7.6317 -0.293431 0)
(7.63476 -0.317906 0)
(7.63709 -0.343381 0)
(7.63866 -0.369783 0)
(7.63939 -0.397015 0)
(7.63924 -0.424981 0)
(7.63819 -0.453577 0)
(7.33355 0.00388167 0)
(7.33929 0.010934 0)
(7.35102 0.0154265 0)
(7.36639 0.0165936 0)
(7.38342 0.014705 0)
(7.40118 0.0102689 0)
(7.41897 0.00378775 0)
(7.4363 -0.00425456 0)
(7.45286 -0.0134563 0)
(7.46854 -0.0235306 0)
(7.48327 -0.0342897 0)
(7.49704 -0.0456214 0)
(7.50985 -0.0574727 0)
(7.52173 -0.0698332 0)
(7.53272 -0.082722 0)
(7.54286 -0.0961767 0)
(7.55218 -0.110246 0)
(7.56073 -0.124985 0)
(7.56853 -0.140448 0)
(7.57563 -0.156692 0)
(7.58204 -0.173767 0)
(7.58779 -0.191721 0)
(7.59288 -0.210598 0)
(7.59733 -0.230435 0)
(7.60113 -0.251261 0)
(7.60426 -0.273095 0)
(7.60669 -0.295934 0)
(7.6084 -0.319751 0)
(7.60934 -0.344493 0)
(7.60947 -0.370077 0)
(7.60875 -0.396405 0)
(7.60711 -0.423381 0)
(7.60456 -0.450907 0)
(7.33348 0.00217393 0)
(7.33849 0.0059997 0)
(7.34881 0.007948 0)
(7.36255 0.00738997 0)
(7.37808 0.00445074 0)
(7.39454 -0.000526853 0)
(7.41125 -0.00717513 0)
(7.42771 -0.0151296 0)
(7.44358 -0.0240797 0)
(7.45869 -0.0337993 0)
(7.47293 -0.0441405 0)
(7.48624 -0.0550174 0)
(7.4986 -0.0663936 0)
(7.51002 -0.0782693 0)
(7.52051 -0.0906697 0)
(7.5301 -0.103636 0)
(7.53881 -0.11722 0)
(7.54668 -0.131475 0)
(7.55374 -0.146456 0)
(7.56002 -0.162215 0)
(7.56554 -0.178799 0)
(7.57032 -0.196251 0)
(7.57439 -0.214607 0)
(7.57773 -0.233897 0)
(7.58036 -0.25414 0)
(7.58226 -0.275345 0)
(7.58341 -0.297499 0)
(7.58379 -0.320565 0)
(7.58337 -0.344479 0)
(7.5821 -0.369155 0)
(7.57997 -0.39449 0)
(7.57692 -0.42039 0)
(7.57296 -0.446764 0)
(7.33343 0.000625387 0)
(7.33788 0.00151019 0)
(7.34713 0.00105843 0)
(7.3596 -0.00122377 0)
(7.37391 -0.00529175 0)
(7.3893 -0.0109197 0)
(7.4051 -0.0178454 0)
(7.42081 -0.0258026 0)
(7.43607 -0.0345614 0)
(7.45065 -0.0439543 0)
(7.46443 -0.0538746 0)
(7.47729 -0.0642663 0)
(7.48921 -0.0751137 0)
(7.50015 -0.0864318 0)
(7.51013 -0.0982562 0)
(7.51915 -0.110636 0)
(7.52723 -0.123626 0)
(7.5344 -0.137284 0)
(7.5407 -0.151665 0)
(7.54614 -0.16682 0)
(7.55076 -0.182795 0)
(7.55456 -0.199627 0)
(7.55758 -0.217347 0)
(7.55982 -0.235978 0)
(7.56129 -0.255533 0)
(7.56197 -0.27601 0)
(7.56187 -0.297386 0)
(7.56095 -0.319618 0)
(7.55921 -0.342633 0)
(7.55661 -0.366339 0)
(7.55314 -0.39063 0)
(7.54875 -0.415415 0)
(7.54347 -0.440608 0)
(7.33339 -0.000804597 0)
(7.33744 -0.00265203 0)
(7.34588 -0.00539473 0)
(7.35739 -0.00939856 0)
(7.37077 -0.0146579 0)
(7.38531 -0.0210285 0)
(7.40039 -0.0283315 0)
(7.4155 -0.0363828 0)
(7.43025 -0.0450247 0)
(7.4444 -0.0541457 0)
(7.45777 -0.0636811 0)
(7.47024 -0.0736063 0)
(7.48174 -0.0839289 0)
(7.49223 -0.0946805 0)
(7.5017 -0.105909 0)
(7.51015 -0.117672 0)
(7.5176 -0.13003 0)
(7.52406 -0.143044 0)
(7.52957 -0.156772 0)
(7.53415 -0.171263 0)
(7.53784 -0.18656 0)
(7.54065 -0.202697 0)
(7.5426 -0.219701 0)
(7.54372 -0.237588 0)
(7.54401 -0.256365 0)
(7.54348 -0.276021 0)
(7.54212 -0.296528 0)
(7.53993 -0.317832 0)
(7.5369 -0.339857 0)
(7.533 -0.362505 0)
(7.52824 -0.385671 0)
(7.52259 -0.409265 0)
(7.51607 -0.433211 0)
(7.33336 -0.00215454 0)
(7.33713 -0.00659332 0)
(7.345 -0.0115526 0)
(7.35582 -0.0172765 0)
(7.36853 -0.0237692 0)
(7.38246 -0.0309388 0)
(7.39701 -0.0386685 0)
(7.41166 -0.0468416 0)
(7.42602 -0.0553637 0)
(7.43981 -0.0641768 0)
(7.45283 -0.0732599 0)
(7.46494 -0.0826234 0)
(7.47604 -0.0923031 0)
(7.48609 -0.102353 0)
(7.49506 -0.112837 0)
(7.50293 -0.123827 0)
(7.50973 -0.135394 0)
(7.51548 -0.147604 0)
(7.52019 -0.160521 0)
(7.5239 -0.174195 0)
(7.52665 -0.18867 0)
(7.52846 -0.203979 0)
(7.52935 -0.220143 0)
(7.52936 -0.237177 0)
(7.5285 -0.255079 0)
(7.52678 -0.273833 0)
(7.52421 -0.293404 0)
(7.52079 -0.313732 0)
(7.51652 -0.334733 0)
(7.5114 -0.356308 0)
(7.50543 -0.37835 0)
(7.49859 -0.400772 0)
(7.49094 -0.423504 0)
(7.33335 -0.00346317 0)
(7.33693 -0.0104171 0)
(7.34446 -0.0175607 0)
(7.35486 -0.0250259 0)
(7.36716 -0.0328111 0)
(7.38073 -0.0408606 0)
(7.39497 -0.0491082 0)
(7.40937 -0.0574954 0)
(7.4235 -0.0659849 0)
(7.43708 -0.0745685 0)
(7.44987 -0.0832663 0)
(7.46171 -0.092123 0)
(7.4725 -0.101201 0)
(7.48215 -0.110577 0)
(7.49065 -0.120333 0)
(7.49797 -0.130553 0)
(7.50413 -0.141318 0)
(7.50915 -0.152704 0)
(7.51305 -0.164776 0)
(7.51588 -0.177591 0)
(7.51766 -0.191191 0)
(7.51843 -0.205609 0)
(7.51824 -0.220863 0)
(7.5171 -0.236963 0)
(7.51506 -0.253904 0)
(7.51213 -0.271664 0)
(7.50834 -0.290202 0)
(7.50368 -0.309453 0)
(7.49819 -0.329331 0)
(7.49186 -0.349736 0)
(7.48471 -0.370561 0)
(7.47674 -0.391725 0)
(7.46799 -0.413163 0)
(7.33334 -0.00476248 0)
(7.33685 -0.0142166 0)
(7.34423 -0.0235474 0)
(7.35446 -0.0327722 0)
(7.36659 -0.0418662 0)
(7.38003 -0.0507907 0)
(7.39416 -0.0595167 0)
(7.40846 -0.0680365 0)
(7.42251 -0.0763683 0)
(7.43597 -0.0845572 0)
(7.44861 -0.0926712 0)
(7.46024 -0.100797 0)
(7.47074 -0.109032 0)
(7.48004 -0.117481 0)
(7.48808 -0.126252 0)
(7.49486 -0.135446 0)
(7.50039 -0.145161 0)
(7.50468 -0.155484 0)
(7.50777 -0.166488 0)
(7.5097 -0.178235 0)
(7.51052 -0.190771 0)
(7.51027 -0.204131 0)
(7.509 -0.218332 0)
(7.50675 -0.233383 0)
(7.50356 -0.249274 0)
(7.49946 -0.26598 0)
(7.49449 -0.283454 0)
(7.48867 -0.301628 0)
(7.48202 -0.32041 0)
(7.47456 -0.3397 0)
(7.46632 -0.359391 0)
(7.45731 -0.379403 0)
(7.44758 -0.399677 0)
(7.33334 -0.00609032 0)
(7.33688 -0.0181058 0)
(7.34433 -0.0296991 0)
(7.35467 -0.0407816 0)
(7.36696 -0.0513086 0)
(7.38058 -0.0612574 0)
(7.39492 -0.0706317 0)
(7.40942 -0.079467 0)
(7.42363 -0.0878277 0)
(7.4372 -0.0958027 0)
(7.44987 -0.103501 0)
(7.46144 -0.111044 0)
(7.47178 -0.118563 0)
(7.4808 -0.126191 0)
(7.48845 -0.134057 0)
(7.49472 -0.142286 0)
(7.49962 -0.150991 0)
(7.50318 -0.160271 0)
(7.50544 -0.170212 0)
(7.50644 -0.180882 0)
(7.50625 -0.192331 0)
(7.50492 -0.204594 0)
(7.50251 -0.217691 0)
(7.49908 -0.231625 0)
(7.49467 -0.246384 0)
(7.48934 -0.261939 0)
(7.48313 -0.278238 0)
(7.47608 -0.295211 0)
(7.46822 -0.312766 0)
(7.4596 -0.330801 0)
(7.45023 -0.349215 0)
(7.44016 -0.367932 0)
(7.42943 -0.386899 0)
(7.33335 -0.00748523 0)
(7.33702 -0.0221808 0)
(7.34473 -0.0361139 0)
(7.35541 -0.0490666 0)
(7.36809 -0.0609555 0)
(7.38211 -0.0717646 0)
(7.39685 -0.0815338 0)
(7.41171 -0.0903553 0)
(7.42622 -0.0983587 0)
(7.44003 -0.105696 0)
(7.45283 -0.112534 0)
(7.46443 -0.119045 0)
(7.47468 -0.125401 0)
(7.48348 -0.131771 0)
(7.49078 -0.138313 0)
(7.49658 -0.145175 0)
(7.50088 -0.15249 0)
(7.50372 -0.160372 0)
(7.50515 -0.16892 0)
(7.50523 -0.178213 0)
(7.50403 -0.188308 0)
(7.50164 -0.199246 0)
(7.49811 -0.211051 0)
(7.49352 -0.223728 0)
(7.48795 -0.237264 0)
(7.48145 -0.25163 0)
(7.47408 -0.26677 0)
(7.46589 -0.282611 0)
(7.45693 -0.299059 0)
(7.44724 -0.31601 0)
(7.43688 -0.333364 0)
(7.42587 -0.351042 0)
(7.41429 -0.368994 0)
(7.33338 -0.00900203 0)
(7.33733 -0.0266353 0)
(7.34562 -0.0431845 0)
(7.35708 -0.0583243 0)
(7.37063 -0.0719528 0)
(7.38556 -0.0840579 0)
(7.40117 -0.0946934 0)
(7.41684 -0.10398 0)
(7.43204 -0.112085 0)
(7.44639 -0.119203 0)
(7.45958 -0.125546 0)
(7.4714 -0.131333 0)
(7.4817 -0.136778 0)
(7.49038 -0.142092 0)
(7.4974 -0.147468 0)
(7.50276 -0.153087 0)
(7.50646 -0.159107 0)
(7.50856 -0.165666 0)
(7.50912 -0.17288 0)
(7.50822 -0.180839 0)
(7.50594 -0.189609 0)
(7.50237 -0.199235 0)
(7.49761 -0.20974 0)
(7.49173 -0.221125 0)
(7.48483 -0.233375 0)
(7.47699 -0.246451 0)
(7.46828 -0.260296 0)
(7.45877 -0.274832 0)
(7.44853 -0.289965 0)
(7.43761 -0.305592 0)
(7.42608 -0.321618 0)
(7.41399 -0.337969 0)
(7.40139 -0.3546 0)
(7.33341 -0.0106869 0)
(7.33772 -0.031513 0)
(7.34675 -0.0507357 0)
(7.35915 -0.06786 0)
(7.37373 -0.0827683 0)
(7.38972 -0.0955003 0)
(7.40639 -0.106195 0)
(7.42303 -0.115075 0)
(7.43911 -0.1224 0)
(7.45421 -0.128447 0)
(7.46798 -0.133491 0)
(7.48021 -0.137803 0)
(7.49071 -0.141643 0)
(7.49941 -0.145252 0)
(7.50624 -0.148856 0)
(7.51122 -0.152658 0)
(7.51436 -0.15684 0)
(7.51574 -0.16156 0)
(7.51542 -0.166952 0)
(7.51353 -0.173124 0)
(7.51015 -0.180158 0)
(7.5054 -0.188113 0)
(7.49941 -0.197023 0)
(7.49229 -0.2069 0)
(7.48414 -0.217732 0)
(7.47507 -0.229485 0)
(7.46516 -0.242103 0)
(7.4545 -0.255505 0)
(7.44316 -0.269593 0)
(7.43122 -0.284263 0)
(7.41874 -0.299413 0)
(7.40578 -0.314967 0)
(7.39242 -0.33087 0)
(7.33349 -0.012663 0)
(7.33854 -0.0373779 0)
(7.34902 -0.0601299 0)
(7.36327 -0.0802941 0)
(7.37982 -0.0977056 0)
(7.39774 -0.112348 0)
(7.4162 -0.124331 0)
(7.43441 -0.133895 0)
(7.45182 -0.141356 0)
(7.46798 -0.147061 0)
(7.48257 -0.151364 0)
(7.49535 -0.154615 0)
(7.50618 -0.157147 0)
(7.51496 -0.159269 0)
(7.52165 -0.161264 0)
(7.52627 -0.163384 0)
(7.52887 -0.165853 0)
(7.5295 -0.168861 0)
(7.52828 -0.172566 0)
(7.52531 -0.177094 0)
(7.52072 -0.182537 0)
(7.51464 -0.188955 0)
(7.50722 -0.196379 0)
(7.49858 -0.20481 0)
(7.48886 -0.214226 0)
(7.47819 -0.22458 0)
(7.46668 -0.235804 0)
(7.45444 -0.247809 0)
(7.44157 -0.260496 0)
(7.42816 -0.27376 0)
(7.41429 -0.287504 0)
(7.40005 -0.301657 0)
(7.38548 -0.31617 0)
(7.33353 -0.0149401 0)
(7.33917 -0.0437302 0)
(7.35096 -0.069425 0)
(7.36691 -0.0912904 0)
(7.38537 -0.109387 0)
(7.40536 -0.123949 0)
(7.42591 -0.13529 0)
(7.44614 -0.143807 0)
(7.46537 -0.149916 0)
(7.48311 -0.154026 0)
(7.499 -0.156533 0)
(7.51276 -0.157818 0)
(7.52425 -0.158239 0)
(7.53336 -0.158128 0)
(7.54008 -0.157792 0)
(7.54443 -0.157511 0)
(7.54647 -0.157534 0)
(7.54632 -0.158083 0)
(7.54408 -0.159348 0)
(7.53993 -0.161486 0)
(7.53402 -0.164624 0)
(7.52653 -0.168855 0)
(7.51765 -0.174239 0)
(7.50755 -0.180801 0)
(7.49639 -0.188538 0)
(7.48434 -0.197414 0)
(7.47152 -0.207365 0)
(7.45807 -0.218301 0)
(7.44408 -0.230116 0)
(7.42965 -0.242694 0)
(7.41487 -0.255926 0)
(7.39982 -0.269725 0)
(7.38456 -0.28402 0)
(7.33378 -0.0179762 0)
(7.34143 -0.0530793 0)
(7.35663 -0.0847636 0)
(7.37639 -0.111889 0)
(7.39846 -0.134208 0)
(7.42169 -0.151742 0)
(7.44505 -0.164808 0)
(7.46766 -0.173949 0)
(7.48888 -0.179777 0)
(7.50825 -0.182895 0)
(7.52543 -0.18388 0)
(7.54018 -0.183266 0)
(7.55235 -0.181539 0)
(7.56186 -0.17913 0)
(7.56869 -0.176428 0)
(7.57288 -0.173774 0)
(7.57449 -0.171467 0)
(7.57364 -0.169766 0)
(7.57046 -0.168889 0)
(7.56511 -0.169011 0)
(7.55779 -0.170266 0)
(7.54868 -0.172739 0)
(7.53799 -0.176474 0)
(7.52594 -0.181474 0)
(7.51272 -0.187704 0)
(7.49853 -0.195103 0)
(7.48354 -0.203581 0)
(7.46793 -0.21303 0)
(7.45183 -0.223333 0)
(7.43537 -0.23437 0)
(7.41866 -0.246034 0)
(7.40181 -0.258245 0)
(7.38486 -0.27094 0)
(7.33367 -0.0212754 0)
(7.34177 -0.0610197 0)
(7.35896 -0.0944464 0)
(7.38177 -0.121459 0)
(7.40764 -0.14293 0)
(7.43512 -0.159343 0)
(7.46274 -0.171157 0)
(7.4893 -0.178935 0)
(7.51399 -0.183234 0)
(7.53628 -0.184595 0)
(7.55579 -0.183556 0)
(7.57227 -0.180635 0)
(7.5856 -0.176321 0)
(7.59574 -0.171071 0)
(7.6027 -0.165306 0)
(7.60656 -0.159414 0)
(7.60743 -0.153745 0)
(7.60547 -0.148613 0)
(7.60086 -0.1443 0)
(7.59385 -0.14105 0)
(7.58467 -0.139067 0)
(7.5736 -0.138512 0)
(7.56092 -0.139494 0)
(7.54691 -0.142071 0)
(7.53182 -0.146246 0)
(7.51589 -0.151979 0)
(7.4993 -0.159187 0)
(7.48225 -0.167752 0)
(7.46488 -0.177537 0)
(7.4473 -0.1884 0)
(7.42961 -0.200203 0)
(7.41188 -0.212832 0)
(7.39418 -0.226177 0)
(7.3348 -0.0275245 0)
(7.34927 -0.0813607 0)
(7.37438 -0.127733 0)
(7.40381 -0.16471 0)
(7.43476 -0.192583 0)
(7.46632 -0.212106 0)
(7.49731 -0.224499 0)
(7.52667 -0.231086 0)
(7.55372 -0.233021 0)
(7.57798 -0.231301 0)
(7.59908 -0.22679 0)
(7.6168 -0.220223 0)
(7.63101 -0.21223 0)
(7.64168 -0.203355 0)
(7.64884 -0.19408 0)
(7.65256 -0.184828 0)
(7.65295 -0.175983 0)
(7.65016 -0.167884 0)
(7.64437 -0.160835 0)
(7.6358 -0.155092 0)
(7.6247 -0.15086 0)
(7.61135 -0.14828 0)
(7.59606 -0.147422 0)
(7.57917 -0.148296 0)
(7.56099 -0.150851 0)
(7.54182 -0.155 0)
(7.52194 -0.160623 0)
(7.5016 -0.167563 0)
(7.48098 -0.175645 0)
(7.46027 -0.184698 0)
(7.43958 -0.194568 0)
(7.41906 -0.205141 0)
(7.39873 -0.216309 0)
(7.33378 -0.0312037 0)
(7.34745 -0.0845445 0)
(7.37712 -0.125948 0)
(7.41434 -0.159399 0)
(7.45415 -0.186081 0)
(7.4942 -0.205616 0)
(7.53247 -0.218408 0)
(7.56782 -0.225209 0)
(7.59979 -0.226767 0)
(7.62809 -0.223901 0)
(7.65257 -0.217457 0)
(7.67313 -0.208235 0)
(7.68973 -0.196959 0)
(7.70234 -0.184285 0)
(7.71094 -0.170793 0)
(7.71558 -0.157002 0)
(7.71631 -0.143382 0)
(7.71327 -0.130361 0)
(7.70664 -0.118343 0)
(7.6967 -0.107707 0)
(7.68381 -0.0988077 0)
(7.66839 -0.091951 0)
(7.6509 -0.0873436 0)
(7.6318 -0.0850903 0)
(7.61151 -0.0851958 0)
(7.59041 -0.0876035 0)
(7.56885 -0.0921598 0)
(7.54714 -0.0986643 0)
(7.52554 -0.106913 0)
(7.50424 -0.116706 0)
(7.48335 -0.127854 0)
(7.46301 -0.140199 0)
(7.44323 -0.153573 0)
(7.33891 -0.05366 0)
(7.37179 -0.149231 0)
(7.41425 -0.216557 0)
(7.45728 -0.261206 0)
(7.50281 -0.289251 0)
(7.55147 -0.304543 0)
(7.60144 -0.310678 0)
(7.6513 -0.310261 0)
(7.69984 -0.30494 0)
(7.74573 -0.295858 0)
(7.78778 -0.283853 0)
(7.8251 -0.26957 0)
(7.85699 -0.253564 0)
(7.88299 -0.23634 0)
(7.90283 -0.218383 0)
(7.91641 -0.200171 0)
(7.92374 -0.182186 0)
(7.92497 -0.164917 0)
(7.92033 -0.148847 0)
(7.91017 -0.134445 0)
(7.89497 -0.122133 0)
(7.87543 -0.112227 0)
(7.85236 -0.104922 0)
(7.82662 -0.100309 0)
(7.79901 -0.0981801 0)
(7.77034 -0.0986186 0)
(7.74134 -0.101494 0)
(7.71252 -0.106482 0)
(7.68431 -0.113214 0)
(7.65707 -0.121385 0)
(7.63107 -0.130776 0)
(7.60666 -0.141198 0)
(7.58381 -0.152548 0)
(7.33757 -0.0397638 0)
(7.38843 -0.103569 0)
(7.47716 -0.159206 0)
(7.57763 -0.212005 0)
(7.68355 -0.255523 0)
(7.78965 -0.287267 0)
(7.88985 -0.307775 0)
(7.98066 -0.317679 0)
(8.06016 -0.318042 0)
(8.12736 -0.310351 0)
(8.18215 -0.296126 0)
(8.22503 -0.276775 0)
(8.25683 -0.253567 0)
(8.27857 -0.227614 0)
(8.29129 -0.199868 0)
(8.29599 -0.171157 0)
(8.29358 -0.142221 0)
(8.28485 -0.113765 0)
(8.27048 -0.0865007 0)
(8.25112 -0.0612176 0)
(8.22742 -0.0388745 0)
(8.20015 -0.0204018 0)
(8.16996 -0.00620137 0)
(8.13784 0.0035446 0)
(8.10439 0.00864589 0)
(8.06973 0.00950307 0)
(8.03462 0.00654908 0)
(7.99955 0.000161319 0)
(7.96496 -0.00935078 0)
(7.9311 -0.0216262 0)
(7.8982 -0.0364509 0)
(7.86627 -0.0534245 0)
(7.83536 -0.0729234 0)
(7.3993 -0.195864 0)
(7.59493 -0.373281 0)
(7.76726 -0.453808 0)
(7.89452 -0.50458 0)
(7.97914 -0.529367 0)
(8.01969 -0.533964 0)
(8.02089 -0.524998 0)
(7.99161 -0.505847 0)
(7.93998 -0.479048 0)
(7.87302 -0.446905 0)
(7.79684 -0.411263 0)
(7.71648 -0.373567 0)
(7.63586 -0.334947 0)
(7.55792 -0.29626 0)
(7.48477 -0.258147 0)
(7.4178 -0.221084 0)
(7.35777 -0.185435 0)
(7.30485 -0.151532 0)
(7.25867 -0.119696 0)
(7.21843 -0.0903781 0)
(7.18265 -0.0640881 0)
(7.15017 -0.0412825 0)
(7.1208 -0.0226442 0)
(7.09356 -0.00852236 0)
(7.06807 0.000852274 0)
(7.04425 0.00592773 0)
(7.02133 0.00717723 0)
(6.99855 0.00502304 0)
(6.97514 -2.8324e-05 0)
(6.95023 -0.00732527 0)
(6.92341 -0.0162874 0)
(6.89315 -0.0258599 0)
(6.86074 -0.0374665 0)
(7.16037 -0.185236 0)
(6.91274 -0.343344 0)
(6.50491 -0.38945 0)
(6.04644 -0.389641 0)
(5.61363 -0.360184 0)
(5.20712 -0.31489 0)
(4.83128 -0.264663 0)
(4.49315 -0.215115 0)
(4.19357 -0.169214 0)
(3.93107 -0.128419 0)
(3.70384 -0.0931045 0)
(3.50949 -0.0630542 0)
(3.34532 -0.0377646 0)
(3.20866 -0.0165921 0)
(3.09694 0.00116331 0)
(3.00775 0.0162243 0)
(2.93893 0.0293281 0)
(2.88857 0.0411941 0)
(2.85496 0.0525183 0)
(2.83666 0.0637371 0)
(2.83245 0.0746107 0)
(2.84012 0.0837707 0)
(2.85672 0.0897575 0)
(2.87971 0.0925241 0)
(2.90649 0.0926257 0)
(2.93466 0.0902511 0)
(2.96226 0.0860995 0)
(2.98784 0.0810056 0)
(3.01044 0.0755679 0)
(3.02942 0.0702436 0)
(3.04455 0.064922 0)
(3.05546 0.0623808 0)
(3.06491 0.0480268 0)
(2.752 -0.199519 0)
(3.16918 -0.291637 0)
(3.46775 -0.264312 0)
(3.82318 -0.204027 0)
(4.25022 -0.109555 0)
(4.77579 -0.0228037 0)
(5.43344 -0.00181672 0)
(6.21526 -0.11222 0)
(7.07896 -0.422182 0)
(7.96823 -0.977196 0)
(8.77337 -1.74717 0)