/*--------------------------------*- C++ -*----------------------------------*\
  =========                 |
  \\      /  F ield         | OpenFOAM: The Open Source CFD Toolbox
   \\    /   O peration     | Website:  https://openfoam.org
    \\  /    A nd           | Version:  10
     \\/     M anipulation  |
\*---------------------------------------------------------------------------*/
FoamFile
{
    format      ascii;
    class       volScalarField;
    location    "0.035";
    object      nut;
}
// * * * * * * * * * * * * * * * * * * * * * * * * * * * * * * * * * * * * * //

dimensions      [0 2 -1 0 0 0 0];

internalField   nonuniform List<scalar> 
6820
(
0.000503209
0.00039707
0.000324498
0.000269342
0.000236463
0.000214068
0.000197444
0.000184723
0.000174442
0.000165808
0.000158371
0.000151837
0.000146011
0.000140753
0.000135961
0.000131559
0.000127487
0.000123699
0.000120156
0.000116828
0.000113688
0.000110716
0.000107891
0.000105197
0.000102619
0.000100145
9.77605e-05
9.54621e-05
9.32229e-05
9.10934e-05
8.89326e-05
8.70264e-05
8.42884e-05
8.18516e-05
0.000143724
0.000196415
0.000210831
0.000206406
0.000197551
0.0001873
0.000177409
0.000168468
0.000160462
0.000153288
0.000146828
0.000140974
0.000135637
0.000130743
0.000126234
0.000122059
0.000118177
0.000114553
0.000111157
0.000107964
0.000104952
0.000102103
9.94023e-05
9.68348e-05
9.43883e-05
9.20534e-05
8.98156e-05
8.7676e-05
8.55845e-05
8.36068e-05
8.1468e-05
7.97833e-05
3.85895e-05
2.73916e-05
4.30431e-05
7.44556e-05
9.58553e-05
0.000109207
0.000116445
0.000119735
0.000120656
0.000120111
0.00011866
0.000116653
0.000114312
0.00011178
0.000109151
0.000106485
0.000103824
0.000101193
9.86105e-05
9.60877e-05
9.36314e-05
9.12451e-05
8.89307e-05
8.66884e-05
8.45173e-05
8.2416e-05
8.03819e-05
7.84116e-05
7.64993e-05
7.4633e-05
7.27993e-05
7.09328e-05
6.91143e-05
1.99669e-05
2.35272e-05
2.20704e-05
1.27923e-05
2.90896e-06
1.23895e-05
2.28922e-05
3.15226e-05
3.84648e-05
4.3972e-05
4.82857e-05
5.16205e-05
5.41512e-05
5.60159e-05
5.73349e-05
5.82067e-05
5.8712e-05
5.8917e-05
5.88764e-05
5.86353e-05
5.82308e-05
5.76937e-05
5.70496e-05
5.63196e-05
5.55215e-05
5.467e-05
5.37771e-05
5.28517e-05
5.1901e-05
5.09271e-05
4.99355e-05
4.89295e-05
4.79681e-05
1.32442e-05
1.50823e-05
1.9933e-05
2.20281e-05
2.14768e-05
1.95351e-05
1.6913e-05
1.39789e-05
1.09502e-05
7.95606e-06
5.08061e-06
2.39436e-06
5.73306e-07
2.54932e-06
4.5987e-06
6.44419e-06
8.08173e-06
9.5202e-06
1.07721e-05
1.18515e-05
1.27727e-05
1.355e-05
1.41972e-05
1.47275e-05
1.51532e-05
1.5486e-05
1.57362e-05
1.59136e-05
1.60265e-05
1.6085e-05
1.60987e-05
1.6097e-05
1.61118e-05
1.01906e-05
1.10223e-05
1.18509e-05
1.26538e-05
1.32904e-05
1.38333e-05
1.42275e-05
1.44392e-05
1.4481e-05
1.43755e-05
1.41452e-05
1.38134e-05
1.34028e-05
1.29282e-05
1.24089e-05
1.18608e-05
1.12978e-05
1.07309e-05
1.01691e-05
9.61957e-06
9.08733e-06
8.57609e-06
8.08824e-06
7.62516e-06
7.18729e-06
6.77453e-06
6.38597e-06
6.02065e-06
5.67535e-06
5.347e-06
5.02389e-06
4.69047e-06
4.30493e-06
7.53502e-06
8.25437e-06
8.68266e-06
8.92061e-06
8.82076e-06
8.62063e-06
8.46311e-06
8.37886e-06
8.36092e-06
8.38446e-06
8.42232e-06
8.45573e-06
8.47487e-06
8.47787e-06
8.46175e-06
8.42533e-06
8.369e-06
8.29388e-06
8.20151e-06
8.09356e-06
7.97177e-06
7.83779e-06
7.6932e-06
7.53941e-06
7.37761e-06
7.20888e-06
7.03377e-06
6.85269e-06
6.66426e-06
6.46688e-06
6.25302e-06
6.01872e-06
5.7394e-06
5.75244e-06
6.6165e-06
7.01764e-06
7.13244e-06
6.88385e-06
6.52632e-06
6.20066e-06
5.93117e-06
5.71617e-06
5.54631e-06
5.40934e-06
5.29551e-06
5.19756e-06
5.11004e-06
5.02931e-06
4.95287e-06
4.87867e-06
4.80499e-06
4.73051e-06
4.65422e-06
4.5754e-06
4.49347e-06
4.40803e-06
4.31874e-06
4.22526e-06
4.12723e-06
4.024e-06
3.91471e-06
3.79729e-06
3.66933e-06
3.52487e-06
3.36123e-06
3.16054e-06
4.47838e-06
5.25445e-06
5.55591e-06
5.71247e-06
5.63374e-06
5.4293e-06
5.18962e-06
4.94899e-06
4.72674e-06
4.5308e-06
4.35946e-06
4.20837e-06
4.07345e-06
3.95139e-06
3.83948e-06
3.73551e-06
3.63772e-06
3.54471e-06
3.45538e-06
3.3688e-06
3.28416e-06
3.20074e-06
3.11784e-06
3.03476e-06
2.95076e-06
2.865e-06
2.77635e-06
2.68341e-06
2.58398e-06
2.47552e-06
2.35359e-06
2.21681e-06
2.05376e-06
3.54938e-06
4.24524e-06
4.53096e-06
4.69736e-06
4.6665e-06
4.50913e-06
4.31282e-06
4.11622e-06
3.93587e-06
3.77644e-06
3.63539e-06
3.50891e-06
3.39399e-06
3.28823e-06
3.18976e-06
3.09719e-06
3.00947e-06
2.92572e-06
2.84517e-06
2.7671e-06
2.69088e-06
2.61587e-06
2.54145e-06
2.46698e-06
2.39172e-06
2.31485e-06
2.23531e-06
2.15183e-06
2.06266e-06
1.96602e-06
1.85924e-06
1.7429e-06
1.61004e-06
2.85916e-06
3.46837e-06
3.73475e-06
3.88874e-06
3.89336e-06
3.79281e-06
3.65094e-06
3.49785e-06
3.34802e-06
3.20868e-06
3.08144e-06
2.96557e-06
2.85983e-06
2.76278e-06
2.67304e-06
2.58937e-06
2.51069e-06
2.43606e-06
2.36464e-06
2.29569e-06
2.22856e-06
2.16263e-06
2.0973e-06
2.03194e-06
1.9659e-06
1.89846e-06
1.82875e-06
1.75584e-06
1.67866e-06
1.59644e-06
1.50824e-06
1.41673e-06
1.31881e-06
2.33293e-06
2.8613e-06
3.12447e-06
3.28251e-06
3.319e-06
3.2569e-06
3.1453e-06
3.01461e-06
2.88193e-06
2.75642e-06
2.64104e-06
2.53576e-06
2.43967e-06
2.35155e-06
2.27019e-06
2.19448e-06
2.12348e-06
2.05638e-06
1.99245e-06
1.93106e-06
1.87161e-06
1.81355e-06
1.75633e-06
1.69942e-06
1.64227e-06
1.58434e-06
1.52507e-06
1.46399e-06
1.40077e-06
1.33568e-06
1.26934e-06
1.20607e-06
1.14546e-06
1.92205e-06
2.38189e-06
2.64541e-06
2.8061e-06
2.86216e-06
2.82972e-06
2.74774e-06
2.64365e-06
2.533e-06
2.42438e-06
2.32146e-06
2.22541e-06
2.13637e-06
2.05398e-06
1.97762e-06
1.90662e-06
1.84027e-06
1.77794e-06
1.71899e-06
1.66284e-06
1.60896e-06
1.55685e-06
1.50604e-06
1.4561e-06
1.40667e-06
1.35743e-06
1.30816e-06
1.25889e-06
1.20996e-06
1.16257e-06
1.11839e-06
1.08246e-06
1.05552e-06
1.59372e-06
1.99805e-06
2.26354e-06
2.43091e-06
2.50527e-06
2.49884e-06
2.44142e-06
2.35736e-06
2.26196e-06
2.16457e-06
2.07013e-06
1.98089e-06
1.89767e-06
1.82053e-06
1.74911e-06
1.6829e-06
1.62131e-06
1.56379e-06
1.50979e-06
1.45881e-06
1.41041e-06
1.36419e-06
1.3198e-06
1.27698e-06
1.23551e-06
1.19534e-06
1.15661e-06
1.11976e-06
1.08568e-06
1.05606e-06
1.033e-06
1.0212e-06
1.02122e-06
1.32551e-06
1.68737e-06
1.95561e-06
2.13118e-06
2.22017e-06
2.23382e-06
2.19634e-06
2.12989e-06
2.04932e-06
1.96396e-06
1.87907e-06
1.79737e-06
1.72014e-06
1.64788e-06
1.58061e-06
1.5181e-06
1.46003e-06
1.40601e-06
1.35567e-06
1.30864e-06
1.26458e-06
1.22321e-06
1.18431e-06
1.14774e-06
1.11347e-06
1.08169e-06
1.05276e-06
1.02741e-06
1.00674e-06
9.92538e-07
9.86762e-07
9.93164e-07
1.01168e-06
1.10174e-06
1.43321e-06
1.70479e-06
1.88955e-06
1.99189e-06
2.02313e-06
2.00344e-06
1.95256e-06
1.88463e-06
1.80894e-06
1.73126e-06
1.65496e-06
1.58194e-06
1.51313e-06
1.44892e-06
1.38932e-06
1.33418e-06
1.28326e-06
1.23628e-06
1.19298e-06
1.1531e-06
1.11646e-06
1.08294e-06
1.05254e-06
1.02538e-06
1.00174e-06
9.82133e-07
9.67369e-07
9.58533e-07
9.5717e-07
9.64794e-07
9.84118e-07
1.01453e-06
9.11309e-07
1.22347e-06
1.49938e-06
1.69373e-06
1.80823e-06
1.8544e-06
1.84976e-06
1.81217e-06
1.75527e-06
1.68839e-06
1.6176e-06
1.5467e-06
1.47794e-06
1.41258e-06
1.35127e-06
1.29424e-06
1.24155e-06
1.19312e-06
1.14879e-06
1.10844e-06
1.07191e-06
1.03912e-06
1.01007e-06
9.8482e-07
9.63571e-07
9.4667e-07
9.34639e-07
9.28213e-07
9.28296e-07
9.36071e-07
9.52557e-07
9.79603e-07
1.0163e-06
7.46205e-07
1.0494e-06
1.331e-06
1.53494e-06
1.66075e-06
1.72014e-06
1.7289e-06
1.70333e-06
1.65643e-06
1.59744e-06
1.53264e-06
1.46619e-06
1.40073e-06
1.33789e-06
1.27859e-06
1.22335e-06
1.1724e-06
1.12581e-06
1.08356e-06
1.04561e-06
1.01192e-06
9.82456e-07
9.57268e-07
9.36466e-07
9.20262e-07
9.08981e-07
9.03065e-07
9.03097e-07
9.09733e-07
9.23792e-07
9.45874e-07
9.77176e-07
1.01673e-06
6.00781e-07
9.05028e-07
1.19386e-06
1.40709e-06
1.5434e-06
1.61451e-06
1.63505e-06
1.61999e-06
1.58178e-06
1.5296e-06
1.46993e-06
1.40724e-06
1.3445e-06
1.28362e-06
1.22578e-06
1.17172e-06
1.12181e-06
1.07629e-06
1.03526e-06
9.98766e-07
9.66835e-07
9.39511e-07
9.1687e-07
8.99036e-07
8.862e-07
8.78622e-07
8.76634e-07
8.80645e-07
8.91081e-07
9.08459e-07
9.33074e-07
9.65676e-07
1.00535e-06
4.7149e-07
7.86845e-07
1.08416e-06
1.30609e-06
1.45206e-06
1.5337e-06
1.5648e-06
1.55929e-06
1.52907e-06
1.48322e-06
1.42836e-06
1.36918e-06
1.3089e-06
1.24971e-06
1.19302e-06
1.13975e-06
1.09047e-06
1.04554e-06
1.00516e-06
9.6947e-07
9.38565e-07
9.12526e-07
8.91443e-07
8.75432e-07
8.6464e-07
8.59251e-07
8.59482e-07
8.65582e-07
8.77793e-07
8.96394e-07
9.21483e-07
9.5348e-07
9.91653e-07
3.57525e-07
6.93659e-07
9.99691e-07
1.22934e-06
1.38391e-06
1.47482e-06
1.51512e-06
1.51782e-06
1.49431e-06
1.45354e-06
1.40223e-06
1.34527e-06
1.28616e-06
1.22734e-06
1.17045e-06
1.11661e-06
1.06656e-06
1.02078e-06
9.79574e-07
9.43165e-07
9.11698e-07
8.85287e-07
8.64032e-07
8.48033e-07
8.37395e-07
8.32235e-07
8.32674e-07
8.3884e-07
8.50837e-07
8.68786e-07
8.92657e-07
9.22653e-07
9.58211e-07
2.63664e-07
6.26611e-07
9.39703e-07
1.17562e-06
1.33774e-06
1.437e-06
1.48574e-06
1.49621e-06
1.47929e-06
1.44376e-06
1.39638e-06
1.34217e-06
1.2848e-06
1.22689e-06
1.17025e-06
1.11613e-06
1.0654e-06
1.01865e-06
9.76285e-07
9.38583e-07
9.0575e-07
8.77937e-07
8.5527e-07
8.37851e-07
8.25774e-07
8.19122e-07
8.17963e-07
8.22359e-07
8.32332e-07
8.47911e-07
8.69e-07
8.9564e-07
9.27524e-07
2.07531e-07
5.88565e-07
9.0431e-07
1.14427e-06
1.31228e-06
1.41824e-06
1.47359e-06
1.4898e-06
1.47728e-06
1.44468e-06
1.39879e-06
1.34484e-06
1.28671e-06
1.22721e-06
1.16837e-06
1.11162e-06
1.05796e-06
1.00807e-06
9.62455e-07
9.2144e-07
8.85273e-07
8.54135e-07
8.28166e-07
8.0748e-07
7.9217e-07
7.82309e-07
7.7795e-07
7.79126e-07
7.85828e-07
7.98038e-07
8.15634e-07
8.3856e-07
8.66668e-07
2.17467e-07
5.82963e-07
8.94735e-07
1.13649e-06
1.3095e-06
1.42201e-06
1.48445e-06
1.50749e-06
1.501e-06
1.47333e-06
1.43118e-06
1.37974e-06
1.32296e-06
1.26375e-06
1.20425e-06
1.14599e-06
1.09009e-06
1.03731e-06
9.88242e-07
9.43286e-07
9.02755e-07
8.66892e-07
8.35895e-07
8.09933e-07
7.89156e-07
7.73695e-07
7.63657e-07
7.59125e-07
7.60136e-07
7.66696e-07
7.78728e-07
7.96102e-07
8.18952e-07
2.90748e-07
6.11666e-07
9.11742e-07
1.15176e-06
1.32676e-06
1.44244e-06
1.50788e-06
1.53306e-06
1.52749e-06
1.49948e-06
1.45584e-06
1.40196e-06
1.34198e-06
1.27899e-06
1.21525e-06
1.15239e-06
1.09158e-06
1.03363e-06
9.7913e-07
9.28493e-07
8.8203e-07
8.39991e-07
8.02591e-07
7.70037e-07
7.42533e-07
7.20286e-07
7.03501e-07
6.92368e-07
6.87037e-07
6.87611e-07
6.94101e-07
7.06398e-07
7.24742e-07
4.01089e-07
6.74633e-07
9.582e-07
1.19566e-06
1.37422e-06
1.49644e-06
1.56976e-06
1.60297e-06
1.60474e-06
1.5828e-06
1.54364e-06
1.49253e-06
1.43363e-06
1.37013e-06
1.30443e-06
1.23833e-06
1.17313e-06
1.1098e-06
1.04902e-06
9.91302e-07
9.37016e-07
8.86469e-07
8.39927e-07
7.97654e-07
7.59931e-07
7.2707e-07
6.99422e-07
6.77358e-07
6.61249e-07
6.51426e-07
6.48143e-07
6.51416e-07
6.61837e-07
5.35461e-07
7.69943e-07
1.03292e-06
1.26226e-06
1.4368e-06
1.55572e-06
1.6253e-06
1.65414e-06
1.65107e-06
1.62405e-06
1.57978e-06
1.52362e-06
1.45975e-06
1.39133e-06
1.32068e-06
1.2495e-06
1.179e-06
1.11003e-06
1.04317e-06
9.7886e-07
9.17391e-07
8.59011e-07
8.03943e-07
7.52435e-07
7.04786e-07
6.61379e-07
6.22703e-07
5.89358e-07
5.62041e-07
5.41496e-07
5.2843e-07
5.23302e-07
5.26959e-07
6.91881e-07
8.98477e-07
1.14511e-06
1.37382e-06
1.55685e-06
1.68885e-06
1.77292e-06
1.81539e-06
1.82359e-06
1.8047e-06
1.76522e-06
1.7107e-06
1.64569e-06
1.57379e-06
1.49777e-06
1.41973e-06
1.34118e-06
1.26323e-06
1.18661e-06
1.11184e-06
1.03925e-06
9.69085e-07
9.01512e-07
8.36701e-07
7.74858e-07
7.16271e-07
6.61357e-07
6.10713e-07
5.65155e-07
5.2575e-07
4.93787e-07
4.70567e-07
4.57936e-07
8.73728e-07
1.05984e-06
1.28393e-06
1.49423e-06
1.65906e-06
1.77253e-06
1.83918e-06
1.86681e-06
1.8635e-06
1.83638e-06
1.79145e-06
1.73354e-06
1.66645e-06
1.59312e-06
1.5158e-06
1.43617e-06
1.3555e-06
1.27469e-06
1.19439e-06
1.11506e-06
1.03698e-06
9.60363e-07
8.85317e-07
8.11935e-07
7.40309e-07
6.7057e-07
6.02939e-07
5.37785e-07
4.75714e-07
4.17705e-07
3.65272e-07
3.20765e-07
2.87553e-07
1.0872e-06
1.26467e-06
1.4888e-06
1.72049e-06
1.91955e-06
2.06912e-06
2.16641e-06
2.21588e-06
2.22493e-06
2.2017e-06
2.15389e-06
2.08816e-06
2.00996e-06
1.92353e-06
1.83206e-06
1.73788e-06
1.64263e-06
1.54744e-06
1.45302e-06
1.35982e-06
1.26808e-06
1.17792e-06
1.08933e-06
1.00229e-06
9.16726e-07
8.3259e-07
7.49839e-07
6.68478e-07
5.88582e-07
5.10341e-07
4.34103e-07
3.60781e-07
2.91345e-07
1.34352e-06
1.50971e-06
1.69312e-06
1.86806e-06
2.0072e-06
2.10583e-06
2.1679e-06
2.19873e-06
2.20287e-06
2.18426e-06
2.14659e-06
2.09333e-06
2.02769e-06
1.95252e-06
1.87034e-06
1.78324e-06
1.69294e-06
1.6008e-06
1.50784e-06
1.41482e-06
1.32226e-06
1.2305e-06
1.13974e-06
1.05008e-06
9.61568e-07
8.74208e-07
7.87992e-07
7.02922e-07
6.19026e-07
5.36391e-07
4.55086e-07
3.7571e-07
2.96994e-07
1.65501e-06
1.84226e-06
2.08994e-06
2.37358e-06
2.62075e-06
2.7951e-06
2.89468e-06
2.93135e-06
2.91913e-06
2.871e-06
2.79785e-06
2.70796e-06
2.60732e-06
2.50014e-06
2.38927e-06
2.27664e-06
2.1635e-06
2.05071e-06
1.9388e-06
1.82813e-06
1.71893e-06
1.61133e-06
1.50541e-06
1.40122e-06
1.29879e-06
1.19817e-06
1.0994e-06
1.00258e-06
9.07852e-07
8.15421e-07
7.2557e-07
6.38898e-07
5.54994e-07
2.05209e-06
2.19695e-06
2.28276e-06
2.37115e-06
2.4714e-06
2.57569e-06
2.67168e-06
2.7476e-06
2.79516e-06
2.81112e-06
2.79661e-06
2.75527e-06
2.69189e-06
2.61136e-06
2.51819e-06
2.41619e-06
2.30847e-06
2.19743e-06
2.08487e-06
1.9721e-06
1.86007e-06
1.74942e-06
1.64058e-06
1.53387e-06
1.42949e-06
1.32765e-06
1.22853e-06
1.1324e-06
1.03961e-06
9.50677e-07
8.66187e-07
7.87555e-07
7.13651e-07
2.55466e-06
2.87329e-06
3.30523e-06
3.73561e-06
4.02149e-06
4.15173e-06
4.1731e-06
4.1263e-06
4.0377e-06
3.92442e-06
3.79658e-06
3.65964e-06
3.51667e-06
3.36967e-06
3.22018e-06
3.06956e-06
2.91905e-06
2.76984e-06
2.62292e-06
2.47916e-06
2.33923e-06
2.20363e-06
2.07273e-06
1.94677e-06
1.82589e-06
1.7102e-06
1.59979e-06
1.49474e-06
1.39522e-06
1.30144e-06
1.21372e-06
1.13279e-06
1.05821e-06
3.26e-06
3.18038e-06
2.92243e-06
2.89369e-06
3.09211e-06
3.37122e-06
3.62542e-06
3.80758e-06
3.90768e-06
3.93725e-06
3.91609e-06
3.86356e-06
3.79532e-06
3.72247e-06
3.65193e-06
3.58727e-06
3.52969e-06
3.47896e-06
3.43409e-06
3.39376e-06
3.35666e-06
3.3216e-06
3.28756e-06
3.25377e-06
3.2196e-06
3.18459e-06
3.14844e-06
3.11093e-06
3.07204e-06
3.03195e-06
2.99091e-06
2.95095e-06
2.90938e-06
4.29859e-06
5.5399e-06
6.308e-06
6.56285e-06
6.46717e-06
6.25333e-06
6.11156e-06
6.12562e-06
6.30263e-06
6.60441e-06
6.97783e-06
7.3757e-06
7.76353e-06
8.11899e-06
8.42953e-06
8.68961e-06
8.89829e-06
9.05749e-06
9.1707e-06
9.24224e-06
9.27666e-06
9.27847e-06
9.25189e-06
9.20078e-06
9.12855e-06
9.03813e-06
8.93202e-06
8.81213e-06
8.68028e-06
8.53734e-06
8.38535e-06
8.22566e-06
8.06065e-06
5.62655e-06
3.57932e-06
2.77288e-06
4.63979e-06
7.3584e-06
9.9258e-06
1.21067e-05
1.38365e-05
1.51275e-05
1.60212e-05
1.65649e-05
1.68072e-05
1.67962e-05
1.65777e-05
1.61931e-05
1.56793e-05
1.50686e-05
1.43884e-05
1.36616e-05
1.29072e-05
1.21402e-05
1.13726e-05
1.06136e-05
9.87012e-06
9.14706e-06
8.44773e-06
7.7741e-06
7.12652e-06
6.50524e-06
5.90668e-06
5.33343e-06
4.77181e-06
4.23774e-06
1.14371e-05
1.65189e-05
1.8285e-05
1.9793e-05
2.02579e-05
1.95023e-05
1.77483e-05
1.52712e-05
1.24282e-05
9.7652e-06
8.18107e-06
8.60671e-06
1.07568e-05
1.36609e-05
1.67334e-05
1.9719e-05
2.25078e-05
2.50535e-05
2.73408e-05
2.93709e-05
3.11534e-05
3.27029e-05
3.40362e-05
3.51708e-05
3.61243e-05
3.69135e-05
3.75546e-05
3.80634e-05
3.84556e-05
3.87475e-05
3.896e-05
3.91132e-05
3.92572e-05
2.48819e-05
2.86593e-05
3.90124e-05
5.34573e-05
6.77262e-05
8.16562e-05
9.45113e-05
0.000105685
0.000115131
0.000122924
0.000129171
0.000134026
0.000137658
0.000140232
0.000141899
0.000142798
0.000143052
0.000142769
0.000142041
0.000140947
0.000139555
0.000137923
0.000136099
0.000134122
0.000132027
0.00012984
0.000127584
0.000125276
0.000122935
0.00012056
0.000118174
0.00011578
0.000113598
0.000543318
0.000510571
0.00049159
0.000467885
0.00044384
0.000421476
0.000399951
0.000379333
0.00035989
0.000341643
0.000324579
0.000308683
0.000293915
0.000280211
0.000267502
0.000255715
0.000244776
0.000234611
0.000225152
0.000216333
0.000208094
0.000200379
0.000193138
0.000186327
0.000179903
0.000173831
0.000168076
0.000162608
0.000157383
0.000152405
0.000147503
0.000143245
0.000139316
7.91368e-05
8.02362e-05
8.53541e-05
8.27633e-05
7.59535e-05
6.47714e-05
5.30493e-05
4.46384e-05
4.05806e-05
3.86236e-05
3.66888e-05
3.41263e-05
3.10709e-05
2.78981e-05
2.47999e-05
2.18843e-05
1.69216e-05
5.35508e-06
1.71286e-05
3.43681e-05
3.60627e-05
2.15785e-05
1.09847e-05
2.13393e-05
2.57181e-05
2.40452e-05
2.10737e-05
1.89023e-05
1.73753e-05
1.60404e-05
1.47517e-05
1.35172e-05
1.23539e-05
1.12637e-05
1.02453e-05
9.29966e-06
8.42825e-06
7.62987e-06
6.89817e-06
6.22155e-06
5.58817e-06
4.99416e-06
4.44811e-06
3.96663e-06
3.56249e-06
3.23431e-06
2.96545e-06
2.73232e-06
2.51517e-06
2.30448e-06
2.10054e-06
1.9086e-06
1.73349e-06
1.57657e-06
1.43558e-06
1.30635e-06
1.18501e-06
1.06938e-06
9.59352e-07
8.56182e-07
7.61463e-07
6.76228e-07
6.00596e-07
5.33936e-07
4.75261e-07
4.23575e-07
3.78045e-07
3.37999e-07
3.02888e-07
2.72214e-07
2.45508e-07
2.22352e-07
2.02342e-07
1.85024e-07
1.69903e-07
1.57116e-07
1.45975e-07
1.36457e-07
1.28351e-07
1.21514e-07
1.15829e-07
1.11185e-07
1.07473e-07
1.04575e-07
1.02376e-07
1.0076e-07
9.9623e-08
9.88644e-08
9.84119e-08
9.81797e-08
9.81502e-08
9.821e-08
9.84718e-08
9.86436e-08
9.92163e-08
9.92924e-08
1.00344e-07
1.00142e-07
1.01801e-07
1.00038e-07
0.000101258
9.82386e-05
9.91666e-05
0.000100212
0.000100519
9.76022e-05
8.93429e-05
7.58065e-05
6.05283e-05
4.74473e-05
3.81878e-05
3.19461e-05
2.71668e-05
2.26043e-05
1.74561e-05
1.2419e-05
1.57895e-05
3.01638e-05
4.16905e-05
3.92152e-05
2.25143e-05
8.95197e-06
2.05236e-05
2.62329e-05
2.52102e-05
2.22503e-05
1.99007e-05
1.82988e-05
1.6986e-05
1.5736e-05
1.45193e-05
1.33514e-05
1.2241e-05
1.11914e-05
1.02059e-05
9.28707e-06
8.43665e-06
7.65392e-06
6.93352e-06
6.26483e-06
5.63656e-06
5.04492e-06
4.49877e-06
4.01556e-06
3.60936e-06
3.27986e-06
3.01062e-06
2.77736e-06
2.55944e-06
2.34679e-06
2.13977e-06
1.94408e-06
1.76515e-06
1.60481e-06
1.46099e-06
1.32954e-06
1.20638e-06
1.08912e-06
9.77443e-07
8.72539e-07
7.76016e-07
6.88988e-07
6.11655e-07
5.43429e-07
4.83326e-07
4.30337e-07
3.83615e-07
3.42485e-07
3.06393e-07
2.74835e-07
2.47327e-07
2.23432e-07
2.02723e-07
1.84875e-07
1.69468e-07
1.56469e-07
1.45103e-07
1.35463e-07
1.27275e-07
1.20331e-07
1.14474e-07
1.09562e-07
1.05474e-07
1.02098e-07
9.93384e-08
9.7106e-08
9.53231e-08
9.39153e-08
9.28266e-08
9.19889e-08
9.13856e-08
9.09193e-08
9.06827e-08
9.04068e-08
9.05485e-08
9.01904e-08
9.0929e-08
8.99887e-08
9.18551e-08
8.87629e-08
9.02018e-05
9.00721e-05
9.12886e-05
9.31743e-05
9.56755e-05
9.80166e-05
9.89699e-05
9.64416e-05
8.91201e-05
7.78905e-05
6.53035e-05
5.38119e-05
4.48473e-05
3.90782e-05
3.78237e-05
4.15219e-05
4.72135e-05
4.82671e-05
3.89247e-05
2.01042e-05
7.87553e-06
2.08419e-05
2.69459e-05
2.62515e-05
2.32701e-05
2.07458e-05
1.90711e-05
1.77952e-05
1.66083e-05
1.54365e-05
1.42909e-05
1.31857e-05
1.21276e-05
1.11214e-05
1.01712e-05
9.28027e-06
8.45105e-06
7.68394e-06
6.97481e-06
6.31401e-06
5.69073e-06
5.10129e-06
4.5548e-06
4.06954e-06
3.66097e-06
3.32991e-06
3.06016e-06
2.82674e-06
2.608e-06
2.39323e-06
2.18279e-06
1.98291e-06
1.79965e-06
1.63537e-06
1.48827e-06
1.35421e-06
1.22896e-06
1.1099e-06
9.96513e-07
8.89895e-07
7.91673e-07
7.0304e-07
6.24277e-07
5.54838e-07
4.93735e-07
4.39928e-07
3.92532e-07
3.50845e-07
3.14296e-07
2.82373e-07
2.54588e-07
2.30509e-07
2.09705e-07
1.91792e-07
1.76453e-07
1.63161e-07
1.52044e-07
1.42492e-07
1.34438e-07
1.27664e-07
1.21987e-07
1.17253e-07
1.13328e-07
1.10091e-07
1.07438e-07
1.05281e-07
1.03542e-07
1.02153e-07
1.01061e-07
1.0021e-07
9.95777e-08
9.90915e-08
9.88051e-08
9.85332e-08
9.85666e-08
9.83013e-08
9.8724e-08
9.81857e-08
9.91304e-08
9.66355e-08
6.306e-05
6.40731e-05
6.61778e-05
6.89561e-05
7.2196e-05
7.57343e-05
7.94387e-05
8.2681e-05
8.43171e-05
8.32964e-05
7.95168e-05
7.40158e-05
6.82704e-05
6.35533e-05
5.99602e-05
5.52738e-05
4.63484e-05
3.12396e-05
1.18172e-05
1.01972e-05
2.31104e-05
2.80387e-05
2.69923e-05
2.39424e-05
2.13737e-05
1.96983e-05
1.84715e-05
1.73489e-05
1.62341e-05
1.51328e-05
1.4058e-05
1.30154e-05
1.20098e-05
1.1047e-05
1.01322e-05
9.26937e-06
8.46177e-06
7.71085e-06
7.01355e-06
6.36113e-06
5.74321e-06
5.1562e-06
4.60945e-06
4.12215e-06
3.7112e-06
3.37873e-06
3.10884e-06
2.87581e-06
2.65684e-06
2.44045e-06
2.22694e-06
2.02303e-06
1.83551e-06
1.66728e-06
1.51686e-06
1.38012e-06
1.25268e-06
1.1317e-06
1.01645e-06
9.07924e-07
8.07749e-07
7.17196e-07
6.36633e-07
5.65562e-07
5.03001e-07
4.47888e-07
3.99308e-07
3.56538e-07
3.18993e-07
2.86152e-07
2.57525e-07
2.32672e-07
2.11164e-07
1.92636e-07
1.76712e-07
1.63052e-07
1.51643e-07
1.41826e-07
1.33576e-07
1.26665e-07
1.20895e-07
1.16102e-07
1.12139e-07
1.08881e-07
1.06217e-07
1.04053e-07
1.02311e-07
1.00918e-07
9.98223e-08
9.89646e-08
9.83239e-08
9.78264e-08
9.7526e-08
9.72359e-08
9.72459e-08
9.69476e-08
9.73409e-08
9.67143e-08
9.77081e-08
9.51602e-08
2.18584e-05
2.31321e-05
2.51828e-05
2.79385e-05
3.13199e-05
3.52076e-05
3.94389e-05
4.37756e-05
4.78636e-05
5.11068e-05
5.28195e-05
5.25487e-05
5.01701e-05
4.56434e-05
3.79632e-05
2.66224e-05
1.2004e-05
4.42996e-06
1.83757e-05
2.67811e-05
2.89667e-05
2.70916e-05
2.40972e-05
2.1723e-05
2.0167e-05
1.90081e-05
1.79422e-05
1.68869e-05
1.58458e-05
1.48242e-05
1.38211e-05
1.28392e-05
1.18851e-05
1.09658e-05
1.00867e-05
9.25256e-06
8.4673e-06
7.73336e-06
7.04866e-06
6.4053e-06
5.79332e-06
5.20925e-06
4.66268e-06
4.17367e-06
3.76059e-06
3.42694e-06
3.15722e-06
2.92499e-06
2.70621e-06
2.48854e-06
2.27214e-06
2.06423e-06
1.87232e-06
1.69995e-06
1.54598e-06
1.40637e-06
1.2766e-06
1.1536e-06
1.03647e-06
9.26055e-07
8.24002e-07
7.31648e-07
6.49448e-07
5.76955e-07
5.13193e-07
4.57071e-07
4.07641e-07
3.64155e-07
3.26006e-07
2.92665e-07
2.63631e-07
2.38456e-07
2.16705e-07
1.97999e-07
1.8198e-07
1.68355e-07
1.56667e-07
1.46907e-07
1.38666e-07
1.3178e-07
1.26055e-07
1.21322e-07
1.1743e-07
1.14249e-07
1.11666e-07
1.09583e-07
1.07919e-07
1.06603e-07
1.05579e-07
1.04791e-07
1.04214e-07
1.03781e-07
1.0353e-07
1.03306e-07
1.0333e-07
1.03134e-07
1.03429e-07
1.03088e-07
1.03678e-07
1.01677e-07
5.10983e-06
4.33193e-06
3.10649e-06
1.42791e-06
1.41682e-06
4.01269e-06
7.01214e-06
9.98722e-06
1.25925e-05
1.45168e-05
1.54564e-05
1.51154e-05
1.32705e-05
1.01224e-05
8.87456e-06
1.36172e-05
2.07305e-05
2.64684e-05
2.90446e-05
2.8472e-05
2.6125e-05
2.36113e-05
2.17382e-05
2.04405e-05
1.93831e-05
1.8375e-05
1.73819e-05
1.64118e-05
1.54602e-05
1.45175e-05
1.35818e-05
1.26584e-05
1.17551e-05
1.0879e-05
1.00358e-05
9.23063e-06
8.4683e-06
7.752e-06
7.08054e-06
6.44677e-06
5.8412e-06
5.26045e-06
4.71435e-06
4.2238e-06
3.80872e-06
3.47404e-06
3.2048e-06
2.97381e-06
2.75575e-06
2.53723e-06
2.31822e-06
2.10644e-06
1.91015e-06
1.73358e-06
1.57596e-06
1.43335e-06
1.30114e-06
1.17603e-06
1.05691e-06
9.44513e-07
8.40455e-07
7.46142e-07
6.62115e-07
5.87983e-07
5.22776e-07
4.65379e-07
4.14812e-07
3.70299e-07
3.3122e-07
2.97035e-07
2.67241e-07
2.41383e-07
2.19024e-07
1.99784e-07
1.83296e-07
1.69239e-07
1.57289e-07
1.47321e-07
1.38914e-07
1.31907e-07
1.26104e-07
1.21321e-07
1.17401e-07
1.14207e-07
1.11621e-07
1.09542e-07
1.07885e-07
1.06577e-07
1.0556e-07
1.04777e-07
1.04203e-07
1.03768e-07
1.03513e-07
1.03277e-07
1.03288e-07
1.03065e-07
1.03344e-07
1.02932e-07
1.03588e-07
1.01509e-07
7.23412e-06
6.85549e-06
6.25105e-06
5.57914e-06
5.31305e-06
6.03118e-06
7.80591e-06
1.02068e-05
1.27658e-05
1.51398e-05
1.71766e-05
1.89367e-05
2.07091e-05
2.27192e-05
2.4849e-05
2.66565e-05
2.7563e-05
2.72496e-05
2.59194e-05
2.4185e-05
2.26357e-05
2.14503e-05
2.04791e-05
1.9552e-05
1.862e-05
1.77035e-05
1.68159e-05
1.59467e-05
1.50805e-05
1.42104e-05
1.33389e-05
1.24729e-05
1.16198e-05
1.07866e-05
9.97926e-06
9.20354e-06
8.46476e-06
7.76677e-06
7.10917e-06
6.48555e-06
5.88686e-06
5.30986e-06
4.7646e-06
4.2728e-06
3.85591e-06
3.52041e-06
3.25192e-06
3.02259e-06
2.8057e-06
2.58675e-06
2.36541e-06
2.14984e-06
1.94913e-06
1.76821e-06
1.60676e-06
1.46097e-06
1.32614e-06
1.1988e-06
1.0776e-06
9.63169e-07
8.57087e-07
7.60823e-07
6.75005e-07
5.99299e-07
5.32748e-07
4.74212e-07
4.22674e-07
3.7733e-07
3.37541e-07
3.02756e-07
2.72465e-07
2.46203e-07
2.23529e-07
2.04054e-07
1.87409e-07
1.73268e-07
1.61336e-07
1.51266e-07
1.4288e-07
1.35919e-07
1.30176e-07
1.25467e-07
1.2163e-07
1.18524e-07
1.16026e-07
1.14033e-07
1.12459e-07
1.11229e-07
1.10286e-07
1.09572e-07
1.0906e-07
1.08686e-07
1.08479e-07
1.08301e-07
1.08328e-07
1.08187e-07
1.08394e-07
1.08197e-07
1.08562e-07
1.06888e-07
3.88989e-06
3.56098e-06
3.12013e-06
2.7862e-06
3.04937e-06
4.18778e-06
6.01008e-06
8.29031e-06
1.08546e-05
1.35182e-05
1.6077e-05
1.83499e-05
2.02337e-05
2.16915e-05
2.26885e-05
2.31462e-05
2.30798e-05
2.26424e-05
2.20584e-05
2.14704e-05
2.08707e-05
2.01961e-05
1.94344e-05
1.86294e-05
1.78274e-05
1.70439e-05
1.62701e-05
1.54924e-05
1.47033e-05
1.39023e-05
1.30936e-05
1.22837e-05
1.14798e-05
1.0689e-05
9.91771e-06
9.1718e-06
8.45707e-06
7.77795e-06
7.13475e-06
6.52176e-06
5.93039e-06
5.35754e-06
4.81344e-06
4.32065e-06
3.90211e-06
3.56593e-06
3.29843e-06
3.07115e-06
2.85591e-06
2.63697e-06
2.41359e-06
2.19438e-06
1.98925e-06
1.80388e-06
1.63846e-06
1.48933e-06
1.35175e-06
1.22203e-06
1.09867e-06
9.8211e-07
8.73917e-07
7.75603e-07
6.87879e-07
6.10472e-07
5.42437e-07
4.82609e-07
4.29935e-07
3.8358e-07
3.42887e-07
3.07295e-07
2.76287e-07
2.49393e-07
2.26167e-07
2.06216e-07
1.89169e-07
1.74692e-07
1.62474e-07
1.52233e-07
1.43731e-07
1.36692e-07
1.3091e-07
1.26191e-07
1.22365e-07
1.19284e-07
1.1682e-07
1.14864e-07
1.13328e-07
1.12134e-07
1.11223e-07
1.10538e-07
1.1005e-07
1.09694e-07
1.095e-07
1.09328e-07
1.09354e-07
1.09208e-07
1.09398e-07
1.09173e-07
1.09561e-07
1.07856e-07
2.47658e-06
2.22367e-06
1.96701e-06
1.97693e-06
2.57501e-06
3.72361e-06
5.23993e-06
7.00221e-06
8.92694e-06
1.09358e-05
1.29337e-05
1.48197e-05
1.64771e-05
1.78058e-05
1.87918e-05
1.94677e-05
1.98892e-05
2.00967e-05
2.00978e-05
1.989e-05
1.94961e-05
1.89686e-05
1.83662e-05
1.77303e-05
1.70796e-05
1.6417e-05
1.57395e-05
1.50436e-05
1.43279e-05
1.3594e-05
1.28462e-05
1.2091e-05
1.13355e-05
1.05869e-05
9.85154e-06
9.1357e-06
8.44547e-06
7.78574e-06
7.15744e-06
6.55555e-06
5.97192e-06
5.4036e-06
4.86102e-06
4.36751e-06
3.94751e-06
3.6108e-06
3.34452e-06
3.11965e-06
2.90651e-06
2.68801e-06
2.4629e-06
2.24019e-06
2.03062e-06
1.8407e-06
1.67114e-06
1.51848e-06
1.37795e-06
1.24571e-06
1.12005e-06
1.00129e-06
8.90922e-07
7.90517e-07
7.00863e-07
6.21752e-07
5.52254e-07
4.91182e-07
4.37445e-07
3.90176e-07
3.48696e-07
3.12434e-07
2.80867e-07
2.53515e-07
2.29929e-07
2.09705e-07
1.9247e-07
1.77883e-07
1.65625e-07
1.55403e-07
1.46924e-07
1.3995e-07
1.3426e-07
1.29648e-07
1.25934e-07
1.22966e-07
1.20612e-07
1.18762e-07
1.17325e-07
1.16224e-07
1.15398e-07
1.14791e-07
1.14373e-07
1.14082e-07
1.13939e-07
1.13826e-07
1.13872e-07
1.13799e-07
1.13936e-07
1.13882e-07
1.1405e-07
1.12644e-07
1.94666e-06
1.79679e-06
1.73318e-06
1.96737e-06
2.63239e-06
3.66661e-06
4.96431e-06
6.44271e-06
8.03327e-06
9.67408e-06
1.13053e-05
1.28667e-05
1.42879e-05
1.55412e-05
1.66027e-05
1.74432e-05
1.80365e-05
1.83774e-05
1.84868e-05
1.84036e-05
1.81697e-05
1.78213e-05
1.73897e-05
1.68999e-05
1.63695e-05
1.58077e-05
1.52178e-05
1.46001e-05
1.39554e-05
1.32861e-05
1.25973e-05
1.18954e-05
1.11875e-05
1.04807e-05
9.78126e-06
9.09571e-06
8.43034e-06
7.79045e-06
7.17752e-06
6.58714e-06
6.01161e-06
5.44818e-06
4.90746e-06
4.4135e-06
3.99223e-06
3.65512e-06
3.39024e-06
3.16808e-06
2.95748e-06
2.73985e-06
2.51333e-06
2.28728e-06
2.07328e-06
1.87871e-06
1.70484e-06
1.54847e-06
1.40481e-06
1.26989e-06
1.14181e-06
1.02073e-06
9.08108e-07
8.05527e-07
7.13857e-07
6.32951e-07
5.61897e-07
4.99485e-07
4.44582e-07
3.96287e-07
3.53899e-07
3.16836e-07
2.84567e-07
2.56606e-07
2.325e-07
2.11841e-07
1.94249e-07
1.79379e-07
1.66907e-07
1.56528e-07
1.47969e-07
1.40968e-07
1.35281e-07
1.30697e-07
1.27032e-07
1.24126e-07
1.21841e-07
1.20062e-07
1.18692e-07
1.17653e-07
1.16884e-07
1.16326e-07
1.15951e-07
1.15696e-07
1.15581e-07
1.15491e-07
1.15548e-07
1.15484e-07
1.15612e-07
1.1555e-07
1.15733e-07
1.14312e-07
1.63135e-06
1.59618e-06
1.69221e-06
2.04357e-06
2.69769e-06
3.61586e-06
4.73895e-06
6.01288e-06
7.38555e-06
8.80646e-06
1.02264e-05
1.16014e-05
1.28874e-05
1.40446e-05
1.50297e-05
1.58194e-05
1.64109e-05
1.68119e-05
1.70333e-05
1.70886e-05
1.69977e-05
1.67866e-05
1.64829e-05
1.61099e-05
1.56841e-05
1.52149e-05
1.47073e-05
1.41636e-05
1.35864e-05
1.29792e-05
1.23475e-05
1.16977e-05
1.10366e-05
1.0371e-05
9.70742e-06
9.05229e-06
8.41211e-06
7.79246e-06
7.1953e-06
6.6168e-06
6.04972e-06
5.49151e-06
4.95297e-06
4.45884e-06
4.03648e-06
3.69908e-06
3.43576e-06
3.21661e-06
3.00893e-06
2.79259e-06
2.56499e-06
2.33575e-06
2.11734e-06
1.91802e-06
1.73967e-06
1.57938e-06
1.43238e-06
1.2946e-06
1.16394e-06
1.04044e-06
9.25469e-07
8.2065e-07
7.26914e-07
6.44179e-07
5.71555e-07
5.0781e-07
4.5177e-07
4.02496e-07
3.59265e-07
3.21482e-07
2.88612e-07
2.6016e-07
2.35668e-07
2.1472e-07
1.96932e-07
1.81952e-07
1.69446e-07
1.59099e-07
1.50618e-07
1.43726e-07
1.3817e-07
1.33737e-07
1.3023e-07
1.27476e-07
1.25336e-07
1.23691e-07
1.22447e-07
1.21523e-07
1.20857e-07
1.20393e-07
1.20101e-07
1.1992e-07
1.19865e-07
1.19835e-07
1.19921e-07
1.19926e-07
1.20019e-07
1.20101e-07
1.20109e-07
1.18909e-07
1.47256e-06
1.5344e-06
1.72828e-06
2.11954e-06
2.72863e-06
3.5357e-06
4.50707e-06
5.60535e-06
6.79255e-06
8.02906e-06
9.27455e-06
1.04906e-05
1.16399e-05
1.26895e-05
1.36142e-05
1.43959e-05
1.50199e-05
1.5478e-05
1.57725e-05
1.59161e-05
1.59271e-05
1.58254e-05
1.563e-05
1.53586e-05
1.50253e-05
1.46398e-05
1.42081e-05
1.3734e-05
1.32212e-05
1.26739e-05
1.20976e-05
1.14985e-05
1.08833e-05
1.02585e-05
9.63062e-06
9.00601e-06
8.39127e-06
7.79221e-06
7.21117e-06
6.64486e-06
6.08652e-06
5.53383e-06
4.99778e-06
4.50376e-06
4.0805e-06
3.74292e-06
3.48126e-06
3.26532e-06