/*--------------------------------*- C++ -*----------------------------------*\
  =========                 |
  \\      /  F ield         | OpenFOAM: The Open Source CFD Toolbox
   \\    /   O peration     | Website:  https://openfoam.org
    \\  /    A nd           | Version:  10
     \\/     M anipulation  |
\*---------------------------------------------------------------------------*/
FoamFile
{
    format      ascii;
    class       volScalarField;
    location    "0.035";
    object      p;
}
// * * * * * * * * * * * * * * * * * * * * * * * * * * * * * * * * * * * * * //

dimensions      [0 2 -2 0 0 0 0];

internalField   nonuniform List<scalar> 
6820
(
7.96799
-6.36243
-8.35955
-8.53782
-8.68939
-8.6241
-8.58503
-8.59556
-8.62901
-8.67541
-8.7282
-8.78355
-8.8397
-8.89574
-8.95111
-9.00543
-9.05834
-9.10955
-9.15877
-9.2057
-9.2501
-9.29167
-9.33018
-9.36535
-9.39692
-9.4246
-9.44827
-9.46747
-9.48291
-9.49185
-9.50229
-9.49069
-9.52632
2.59042
-6.15961
-8.16455
-8.41633
-8.61988
-8.61822
-8.60051
-8.61746
-8.65111
-8.69475
-8.74438
-8.79693
-8.85079
-8.90506
-8.95914
-9.01252
-9.06478
-9.11555
-9.16448
-9.21126
-9.25559
-9.29718
-9.33575
-9.37103
-9.40274
-9.4306
-9.45443
-9.47387
-9.48921
-9.49884
-9.50721
-9.50084
-9.52226
0.510671
-4.9472
-7.37091
-7.9609
-8.33946
-8.4807
-8.52511
-8.56917
-8.61869
-8.67223
-8.72884
-8.78669
-8.84456
-8.90178
-8.95793
-9.01275
-9.06601
-9.11747
-9.16689
-9.21403
-9.25864
-9.30047
-9.33929
-9.37483
-9.40682
-9.43499
-9.4591
-9.47873
-9.49384
-9.50248
-9.5057
-9.49012
-9.45905
-1.05633
-4.76355
-7.07333
-7.72155
-8.10141
-8.30587
-8.40053
-8.47664
-8.54923
-8.61793
-8.68434
-8.749
-8.812
-8.87344
-8.93319
-8.99111
-9.04708
-9.10095
-9.15256
-9.20171
-9.24821
-9.29186
-9.33243
-9.3697
-9.40342
-9.43331
-9.45908
-9.48023
-9.49625
-9.50525
-9.50569
-9.48852
-9.4458
-2.3407
-4.80681
-6.76489
-7.44642
-7.85465
-8.12501
-8.27367
-8.38047
-8.47273
-8.55477
-8.63062
-8.70261
-8.77128
-8.83703
-8.90033
-8.96129
-9.0199
-9.0761
-9.1298
-9.18091
-9.22928
-9.27478
-9.31723
-9.35646
-9.39224
-9.4243
-9.45231
-9.4757
-9.49374
-9.50456
-9.50592
-9.49159
-9.45431
-3.2973
-4.9287
-6.57952
-7.29208
-7.70985
-8.00245
-8.17723
-8.3006
-8.40502
-8.49668
-8.57979
-8.65737
-8.73073
-8.8005
-8.86709
-8.9308
-8.99178
-9.05012
-9.10582
-9.15884
-9.20912
-9.25656
-9.30105
-9.34245
-9.38059
-9.41521
-9.446
-9.47242
-9.49373
-9.50844
-9.51477
-9.50906
-9.48864
-4.04167
-5.13947
-6.49044
-7.17334
-7.57753
-7.87882
-8.07775
-8.22061
-8.33919
-8.44157
-8.53255
-8.61605
-8.69403
-8.76747
-8.83711
-8.90346
-8.96681
-9.0273
-9.08502
-9.13999
-9.19219
-9.24159
-9.28813
-9.33172
-9.37222
-9.40946
-9.44316
-9.4729
-9.49806
-9.5176
-9.5303
-9.53418
-9.52817
-4.62435
-5.36792
-6.45106
-7.08737
-7.4803
-7.78398
-7.99773
-8.15329
-8.28098
-8.39073
-8.48765
-8.57593
-8.65789
-8.73477
-8.80743
-8.87645
-8.94218
-9.00486
-9.06463
-9.12157
-9.17574
-9.22717
-9.27584
-9.32171
-9.36474
-9.40479
-9.4417
-9.47518
-9.50483
-9.53004
-9.55019
-9.56447
-9.57301
-5.08631
-5.59819
-6.4593
-7.0362
-7.40886
-7.70354
-7.92276
-8.08712
-8.22262
-8.33945
-8.44247
-8.53579
-8.62197
-8.70244
-8.77819
-8.84991
-8.91808
-8.983
-9.04489
-9.10391
-9.16017
-9.21374
-9.26467
-9.31299
-9.35872
-9.40182
-9.44223
-9.47984
-9.51449
-9.54596
-9.57416
-9.59909
-9.62162
-5.45735
-5.81617
-6.4959
-7.00697
-7.35575
-7.63844
-7.85913
-8.02963
-8.17095
-8.29309
-8.40084
-8.4982
-8.58787
-8.67142
-8.74992
-8.82414
-8.89462
-8.96171
-9.02569
-9.08676
-9.14509
-9.20082
-9.25404
-9.30486
-9.35336
-9.39961
-9.44367
-9.4856
-9.52547
-9.5634
-9.59973
-9.63498
-9.67052
-5.75873
-6.01555
-6.55128
-6.99747
-7.3202
-7.58766
-7.80462
-7.97728
-8.12198
-8.24794
-8.35965
-8.46071
-8.55375
-8.64037
-8.72167
-8.79845
-8.8713
-8.94062
-9.00676
-9.06997
-9.13046
-9.18843
-9.24404
-9.29746
-9.34884
-9.39836
-9.44619
-9.49256
-9.53774
-9.58211
-9.62632
-9.67122
-9.71847
-6.00597
-6.19396
-6.61688
-7.00196
-7.29719
-7.54782
-7.75825
-7.93088
-8.07763
-8.20645
-8.32135
-8.42555
-8.52152
-8.61086
-8.69468
-8.77381
-8.84888
-8.92034
-8.98856
-9.05384
-9.11645
-9.17662
-9.23459
-9.29057
-9.3448
-9.39754
-9.44909
-9.49979
-9.55008
-9.60055
-9.65204
-9.70557
-9.76292
-6.21036
-6.35116
-6.6866
-7.01663
-7.28457
-7.51791
-7.71977
-7.8901
-8.03716
-8.1675
-8.28463
-8.39133
-8.48982
-8.58165
-8.66786
-8.74929
-8.82656
-8.90016
-8.97047
-9.03786
-9.1026
-9.165
-9.22534
-9.28388
-9.34095
-9.39688
-9.45205
-9.50691
-9.56204
-9.61813
-9.67615
-9.73717
-9.80298
-6.3802
-6.48806
-6.75608
-7.03792
-7.27952
-7.4956
-7.68768
-7.85418
-8.00041
-8.13145
-8.2502
-8.35898
-8.4597
-8.55378
-8.64221
-8.7258
-8.80515
-8.88079
-8.95312
-9.02252
-9.08933
-9.15387
-9.21648
-9.27747
-9.33723
-9.39614
-9.45467
-9.51334
-9.57281
-9.63383
-9.6974
-9.7646
-9.8371
-6.52164
-6.60608
-6.82229
-7.06289
-7.27989
-7.47937
-7.6612
-7.82283
-7.96724
-8.09813
-8.21781
-8.3281
-8.43065
-8.52669
-8.61713
-8.70272
-8.78407
-8.86167
-8.93596
-9.00732
-9.07614
-9.14276
-9.20755
-9.27088
-9.33316
-9.39485
-9.45645
-9.51853
-9.58179
-9.64699
-9.71513
-9.7872
-9.86475
-6.63927
-6.70674
-6.88318
-7.08912
-7.28371
-7.46756
-7.63913
-7.79522
-7.93712
-8.06728
-8.1874
-8.29886
-8.40297
-8.50077
-8.59307
-8.68056
-8.76379
-8.84326
-8.91941
-8.99265
-9.06335
-9.13191
-9.19871
-9.26417
-9.32873
-9.39287
-9.45711
-9.52207
-9.58843
-9.65695
-9.72856
-9.80416
-9.88512
-6.73653
-6.79152
-6.9374
-7.11461
-7.28924
-7.45874
-7.62044
-7.77077
-7.90973
-8.03875
-8.15891
-8.27119
-8.37657
-8.4759
-8.56988
-8.65911
-8.7441
-8.82533
-8.90324
-8.97823
-9.0507
-9.12105
-9.1897
-9.25707
-9.32363
-9.38986
-9.45633
-9.52361
-9.59239
-9.66337
-9.73741
-9.81529
-9.89819
-6.81599
-6.86167
-6.98406
-7.13776
-7.29498
-7.45158
-7.60409
-7.74871
-7.88455
-8.01216
-8.1321
-8.24495
-8.35142
-8.45212
-8.54764
-8.63849
-8.72513
-8.80801
-8.88755
-8.96414
-9.03821
-9.11016
-9.18041
-9.24941
-9.31761
-9.38553
-9.45369
-9.52267
-9.59311
-9.66566
-9.74107
-9.82002
-9.90349
-6.87957
-6.91824
-7.02259
-7.15728
-7.29963
-7.44488
-7.58909
-7.72834
-7.86111
-7.98725
-8.10685
-8.22015
-8.32756
-8.42953
-8.52648
-8.61884
-8.70703
-8.79145
-8.8725
-8.95057
-9.02608
-9.09943
-9.17104
-9.24137
-9.31088
-9.38005
-9.44941
-9.51949
-9.59088
-9.66416
-9.73999
-9.81892
-9.90176
-6.92867
-6.96205
-7.05258
-7.17209
-7.30202
-7.43755
-7.57451
-7.70892
-7.83885
-7.96359
-8.08283
-8.19652
-8.30479
-8.40791
-8.50619
-8.59995
-8.68956
-8.77537
-8.85776
-8.93712
-9.01384
-9.08833
-9.16101
-9.23232
-9.30271
-9.37266
-9.44265
-9.51318
-9.58478
-9.65796
-9.73328
-9.8112
-9.89236
-6.96426
-6.99365
-7.0737
-7.1813
-7.30112
-7.42859
-7.55947
-7.6898
-7.81732
-7.94094
-8.05999
-8.17415
-8.28333
-8.38764
-8.48725
-8.5824
-8.67338
-8.76052
-8.84416
-8.92467
-9.00244
-9.07787
-9.15136
-9.22334
-9.29424
-9.36453
-9.43464
-9.50504
-9.5762
-9.64855
-9.72257
-9.7986
-9.87716
-6.98696
-7.01339
-7.0856
-7.18411
-7.296
-7.41706
-7.54311
-7.67019
-7.79586
-7.9187
-8.03776
-8.15249
-8.26262
-8.36809
-8.46895
-8.56537
-8.65759
-8.74588
-8.83057
-8.912
-8.99055
-9.0666
-9.14054
-9.21279
-9.28377
-9.35389
-9.42357
-9.49323
-9.56328
-9.63409
-9.70606
-9.77946
-9.8547
-6.99706
-7.02136
-7.08792
-7.17979
-7.28582
-7.40217
-7.52476
-7.64966
-7.77427
-7.89695
-8.0165
-8.13218
-8.24354
-8.35038
-8.45266
-8.55046
-8.64397
-8.73342
-8.81912
-8.90138
-8.98056
-9.05703
-9.13118
-9.20341
-9.2741
-9.34365
-9.41244
-9.48085
-9.54924
-9.61792
-9.68722
-9.75734
-9.82859
-6.99453
-7.01741
-7.08018
-7.16757
-7.26968
-7.38297
-7.50344
-7.6272
-7.75152
-7.87456
-7.99497
-8.11181
-8.2245
-8.33274
-8.43639
-8.53547
-8.63012
-8.72054
-8.80701
-8.88982
-8.96933
-9.04589
-9.11988
-9.19167
-9.26162
-9.33012
-9.39751
-9.46414
-9.5303
-9.5963
-9.66237
-9.72871
-9.79554
-6.97909
-7.00115
-7.06179
-7.14674
-7.2469
-7.35897
-7.47898
-7.60303
-7.72829
-7.85275
-7.97488
-8.0936
-8.20822
-8.31832
-8.4237
-8.52433
-8.62029
-8.71177
-8.79903
-8.88235
-8.96208
-9.03856
-9.11216
-9.18324
-9.25215
-9.31924
-9.38484
-9.44926
-9.51277
-9.57561
-9.638
-9.70008
-9.762
-6.95007
-6.97189
-7.03189
-7.11627
-7.21628
-7.32873
-7.44967
-7.5751
-7.70213
-7.82859
-7.95286
-8.07374
-8.19043
-8.30245
-8.40954
-8.51162
-8.60875
-8.70111
-8.78893
-8.8725
-8.95215
-9.02822
-9.10107
-9.17104
-9.23849
-9.30374
-9.36711
-9.42887
-9.48928
-9.54857
-9.60691
-9.66445
-9.72132
-6.9065
-6.92866
-6.98966
-7.0756
-7.17774
-7.2929
-7.41702
-7.54595
-7.67663
-7.80676
-7.93456
-8.05874
-8.17843
-8.29309
-8.40242
-8.50635
-8.60491
-8.69829
-8.78671
-8.87049
-8.94995
-9.02544
-9.09732
-9.16593
-9.23163
-9.29473
-9.35553
-9.41429
-9.47126
-9.52664
-9.58059
-9.6332
-9.68458
-6.84691
-6.86994
-6.93336
-7.02258
-7.12848
-7.24776
-7.37622
-7.50957
-7.64462
-7.77895
-7.91071
-8.03852
-8.16145
-8.27891
-8.3906
-8.49639
-8.59635
-8.69065
-8.77954
-8.86332
-8.94235
-9.01698
-9.08758
-9.1545
-9.21809
-9.27866
-9.33653
-9.39195
-9.44516
-9.49636
-9.54571
-9.59336
-9.6394
-6.76945
-6.79425
-6.86241
-6.9581
-7.07133
-7.19847
-7.33493
-7.47602
-7.6183
-7.75923
-7.89686
-8.02977
-8.15703
-8.27809
-8.39264
-8.50064
-8.60216
-8.69742
-8.78672
-8.87038
-8.94879
-9.02234
-9.09139
-9.15633
-9.2175
-9.27525
-9.32987
-9.38162
-9.43075
-9.47745
-9.52188
-9.56415
-9.60433
-6.67121
-6.69809
-6.7722
-6.87552
-6.99686
-7.13242
-7.27741
-7.42684
-7.57703
-7.72531
-7.86959
-8.00838
-8.1407
-8.26597
-8.38392
-8.49451
-8.59786
-8.69424
-8.78399
-8.86749
-8.94515
-9.01741
-9.08468
-9.14737
-9.20585
-9.26047
-9.31156
-9.35941
-9.40426
-9.44635
-9.48585
-9.52294
-9.55773
-6.54932
-6.58068
-6.66609
-6.78399
-6.9207
-7.0716
-7.23108
-7.39357
-7.55525
-7.71342
-7.86608
-8.01182
-8.14979
-8.27955
-8.40092
-8.51398
-8.61894
-8.71616
-8.80603
-8.88902
-8.96557
-9.03617
-9.10128
-9.16132
-9.2167
-9.2678
-9.31497
-9.3585
-9.39866
-9.43569
-9.46978
-9.50108
-9.52967
-6.39716
-6.43145
-6.52692
-6.65747
-6.80765
-6.97309
-7.14762
-7.32477
-7.50017
-7.67081
-7.83444
-7.98957
-8.13534
-8.27135
-8.39756
-8.51415
-8.62148
-8.72001
-8.81027
-8.89283
-8.96825
-9.03709
-9.09986
-9.15707
-9.20917
-9.25658
-9.29968
-9.33881
-9.37428
-9.40636
-9.43531
-9.46136
-9.48465
-6.21263
-6.25981
-6.38236
-6.54321
-6.72128
-6.91167
-7.10782
-7.30314
-7.4937
-7.67693
-7.8509
-8.01442
-8.16687
-8.30807
-8.43812
-8.55734
-8.66623
-8.76534
-8.85532
-8.93681
-9.01045
-9.07687
-9.13665
-9.19034
-9.23846
-9.28146
-9.31975
-9.35372
-9.38369
-9.40997
-9.43281
-9.45244
-9.46901
-5.97406
-6.02035
-6.15666
-6.3379
-6.5408
-6.75984
-6.98514
-7.20764
-7.42251
-7.62675
-7.81825
-7.99594
-8.15951
-8.30913
-8.44527
-8.56862
-8.67998
-8.7802
-8.87016
-8.95068
-9.02257
-9.08658
-9.14341
-9.19367
-9.23794
-9.27672
-9.31048
-9.33963
-9.36455
-9.38561
-9.40312
-9.41744
-9.42884
-5.69957
-5.79361
-5.9979
-6.2325
-6.47294
-6.72189
-6.97144
-7.21359
-7.44499
-7.66335
-7.86682
-8.05448
-8.22615
-8.38203
-8.52271
-8.64897
-8.76175
-8.86204
-8.95087
-9.02922
-9.09805
-9.15823
-9.21057
-9.2558
-9.29457
-9.32745
-9.35496
-9.37754
-9.3956
-9.40953
-9.41967
-9.42639
-9.43006
-5.27906
-5.34713
-5.58211
-5.8739
-6.18174
-6.49863
-6.8079
-7.09968
-7.37126
-7.62097
-7.84808
-8.05312
-8.23718
-8.40159
-8.54779
-8.6773
-8.79156
-8.892
-8.97992
-9.05655
-9.12299
-9.18025
-9.22923
-9.27072
-9.30541
-9.33391
-9.35673
-9.37434
-9.38715
-9.39557
-9.4
-9.40101
-9.39915
-4.91718
-5.16982
-5.52603
-5.84475
-6.16442
-6.49958
-6.82681
-7.13733
-7.42934
-7.69927
-7.94476
-8.16549
-8.36203
-8.53551
-8.68751
-8.81982
-8.93429
-9.03275
-9.11692
-9.18838
-9.24857
-9.29876
-9.34008
-9.37349
-9.3998
-9.41971
-9.43377
-9.44242
-9.446
-9.44482
-9.43904
-9.42934
-9.41583
-3.86532
-4.13127
-4.74168
-5.28723
-5.7882
-6.26346
-6.68853
-7.06585
-7.4029
-7.70243
-7.9674
-8.2012
-8.40671
-8.58652
-8.74303
-8.87845
-8.99482
-9.09411
-9.1781
-9.24849
-9.30677
-9.35432
-9.39235
-9.42189
-9.44384
-9.45892
-9.46767
-9.47049
-9.4675
-9.45884
-9.44392
-9.42386
-9.39499
-3.91732
-4.47725
-4.91881
-5.28304
-5.75884
-6.25363
-6.71725
-7.15238
-7.55047
-7.90317
-8.21026
-8.47434
-8.69863
-8.88702
-9.04374
-9.17286
-9.27819
-9.36313
-9.43071
-9.48352
-9.5238
-9.55344
-9.57403
-9.58689
-9.5931
-9.59352
-9.58875
-9.57911
-9.56443
-9.54405
-9.51563
-9.47713
-9.41699
1.02231
-2.66938
-3.99427
-4.66355
-5.46131
-6.13715
-6.67952
-7.15442
-7.56923
-7.92526
-8.23014
-8.48983
-8.70914
-8.89289
-9.0456
-9.17139
-9.27398
-9.35666
-9.42233
-9.47352
-9.51238
-9.54077
-9.56024
-9.57212
-9.57753
-9.57737
-9.57248
-9.56333
-9.55081
-9.53446
-9.51649
-9.49283
-9.47252
-9.347
-9.376
-8.89024
-8.24004
-7.66529
-7.49225
-7.8432
-8.87786
-10.685
-13.2582
-16.4671
-20.0761
-23.7861
-27.2848
-30.2764
-32.518
-33.8801
-34.3311
-33.877
-32.5277
-30.3579
-27.5572
-24.406
-21.1759
-18.046
-15.0963
-12.3579
-9.8543
-7.60922
-5.63914
-3.94687
-2.52153
-1.34255
-0.383945
0.382433
0.984566
1.44873
1.79862
2.05502
2.23579
2.35616
2.42901
2.46513
2.47335
2.46063
2.43225
2.39214
2.34323
2.28784
2.22784
2.16483
2.10013
2.03482
1.96975
1.90553
1.84262
1.78136
1.72197
1.66457
1.60923
1.55596
1.50471
1.45538
1.40787
1.36203
1.31773
1.27483
1.23317
1.19261
1.15302
1.11427
1.07625
1.03883
1.00191
0.965392
0.929196
0.89323
0.857421
0.821704
0.786017
0.750302
0.714509
0.678592
0.642511
0.606226
0.569707
0.53292
0.495841
0.458439
0.420705
0.382592
0.344134
0.305199
0.266015
0.226045
0.18637
0.144674
0.105755
0.0596267
0.0270526
-9.38589
-9.24718
-8.79186
-8.26042
-7.79748
-7.62803
-7.9603
-8.9985
-10.804
-13.3035
-16.3416
-19.7052
-23.1383
-26.3736
-29.1632
-31.3079
-32.6551
-33.0947
-32.5824
-31.1577
-28.9561
-26.2212
-23.2406
-20.2422
-17.348
-14.6064
-12.0437
-9.68583
-7.55852
-5.67948
-4.05368
-2.67356
-1.5225
-0.57834
0.18362
0.788462
1.26015
1.62061
1.88931
2.08317
2.21674
2.30244
2.35079
2.37044
2.3683
2.34965
2.31843
2.27763
2.22958
2.17623
2.1192
2.05989
1.99942
1.93866
1.87829
1.81881
1.76058
1.70386
1.64882
1.59555
1.54409
1.49443
1.44649
1.40018
1.3554
1.31202
1.26991
1.22894
1.18899
1.14992
1.11162
1.07398
1.0369
1.00027
0.964001
0.928018
0.892236
0.856583
0.820999
0.785424
0.749804
0.714092
0.678243
0.642217
0.60598
0.569499
0.532744
0.495692
0.458312
0.420595
0.382494
0.344048
0.305119
0.265945
0.225971
0.186315
0.144597
0.105724
0.0595416
0.027067
-9.33027
-9.22044
-8.8557
-8.36661
-7.95817
-7.87517
-8.29413
-9.34662
-11.0829
-13.4595
-16.3334
-19.4896
-22.6853
-25.6874
-28.2843
-30.2585
-31.4254
-31.6827
-31.0224
-29.5218
-27.3626
-24.8005
-22.0745
-19.3424
-16.6833
-14.1384
-11.74
-9.51958
-7.50482
-5.71402
-4.15361
-2.81884
-1.69652
-0.768011
-0.0117915
0.594488
1.07257
1.44266
1.72292
1.92931
2.07568
2.17399
2.23441
2.26544
2.27389
2.26501
2.24277
2.21016
2.16958
2.12299
2.07207
2.01827
1.96273
1.9064
1.84998
1.79403
1.73892
1.68497
1.63237
1.58126
1.53169
1.48368
1.43719
1.39215
1.34848
1.30606
1.2648
1.22456
1.18524
1.14672
1.1089
1.07168
1.03495
0.998631
0.962628
0.926867
0.89128
0.855793
0.820349
0.784893
0.749374
0.713747
0.677969
0.642004
0.605817
0.569377
0.532656
0.495631
0.458274
0.420575
0.382488
0.344054
0.30513
0.265966
0.225989
0.18635
0.144614
0.105782
0.0595483
0.027158
-9.34623
-9.22343
-8.92139
-8.54767
-8.27865
-8.29515
-8.75223
-9.78193
-11.4382
-13.6723
-16.3472
-19.2672
-22.2071
-24.9492
-27.2623
-28.9424
-29.8517
-29.9158
-29.1557
-27.6935
-25.717
-23.4242
-20.9808
-18.4999
-16.0524
-13.6868
-11.4426
-9.35362
-7.44742
-5.74236
-4.24627
-2.9569
-1.86414
-0.952467
-0.203315
0.403113
0.886438
1.26518
1.55621
1.77451
1.93323
2.04383
2.11614
2.15845
2.17745
2.17838
2.16517
2.14086
2.10784
2.06813
2.02344
1.97526
1.92478
1.87298
1.82063
1.76829
1.71641
1.66532
1.61524
1.56635
1.51874
1.47244
1.42745
1.38373
1.3412
1.29979
1.25939
1.21992
1.18125
1.14331
1.10599
1.06919
1.03284
0.996832
0.961102
0.925575
0.890191
0.854879
0.819582
0.784251
0.748839
0.713301
0.677599
0.641696
0.605562
0.569166
0.532481
0.495486
0.458152
0.420473
0.382401
0.34398
0.305063
0.265909
0.225931
0.186308
0.144556
0.105762
0.0594857
0.0271727
-9.37876
-9.27784
-9.07984
-8.84542
-8.70761
-8.81468
-9.30094
-10.2746
-11.7834
-13.7936
-16.1928
-18.8069
-21.4273
-23.8279
-25.8039
-27.2028
-27.9111
-27.8864
-27.1781
-25.8956
-24.1724
-22.1508
-19.9601
-17.7011
-15.4466
-13.2496
-11.1521
-9.18876
-7.38675
-5.76474
-4.33176
-3.08773
-2.02519
-1.13144
-0.39061
0.214711
0.702125
1.08852
1.38949
1.61906
1.78966
1.9122
1.99617
2.04962
2.07913
2.08986
2.08573
2.06978
2.04442
2.01169
1.97334
1.93088
1.88557
1.83841
1.79022
1.7416
1.69303
1.64488
1.59741
1.55081
1.50523
1.46071
1.41729
1.37493
1.33361
1.29324
1.25376
1.21508
1.17711
1.13977
1.10297
1.06663
1.03066
0.994996
0.959558
0.924282
0.889108
0.853979
0.818838
0.78364
0.748339
0.712896
0.677273
0.641438
0.605359
0.569009
0.532363
0.495399
0.45809
0.420432
0.382375
0.343967
0.305058
0.265916
0.225936
0.186329
0.144562
0.105802
0.0594872
0.0272398
-9.4447
-9.38059
-9.27025
-9.15616
-9.13994
-9.33509
-9.84375
-10.7475
-12.0849
-13.833
-15.9032
-18.1517
-20.3939
-22.4417
-24.1331
-25.3312
-25.948
-25.9527
-25.3716
-24.2763
-22.7723
-20.9774
-19.003
-16.9419
-14.8652
-12.8266
-10.8683
-9.02464
-7.32264
-5.78108
-4.41001
-3.21116
-2.17942
-1.3046
-0.573295
0.0296872
0.520037
0.913071
1.22313
1.46328
1.64522
1.77932
1.87468
1.93912
1.97905
1.99955
2.00453
1.99699
1.97937
1.9537
1.92179
1.88516
1.84511
1.8027
1.75876
1.71396
1.66879
1.62366
1.57887
1.53465
1.49116
1.44848
1.40668
1.36574
1.32566
1.28638
1.24785
1.20999
1.17275
1.13603
1.09977
1.0639
1.02834
0.993023
0.957887
0.92287
0.887917
0.852978
0.818001
0.782941
0.747757
0.712413
0.676874
0.641109
0.605089
0.568788
0.532182
0.495251
0.457969
0.420333
0.382293
0.3439
0.304999
0.265868
0.225889
0.186296
0.144518
0.105788
0.0594415
0.0272528
-9.50874
-9.47845
-9.43423
-9.4098
-9.48097
-9.73501
-10.2515
-11.092
-12.2834
-13.8043
-15.582
-17.5001
-19.4157
-21.1848
-22.6533
-23.7014
-24.2509
-24.2679
-23.7694
-22.814
-21.4863
-19.8827
-18.099
-16.2184
-14.3073
-12.4177
-10.5911
-8.86144
-7.2553
-5.79157
-4.4811
-3.32716
-2.32667
-1.47171
-0.751052
-0.151599
0.340548
0.739198
1.05748
1.30749
1.50021
1.64544
1.7519
1.82712
1.87736
1.90758
1.92166
1.92257
1.91274
1.89422
1.86883
1.83812
1.80343
1.76586
1.72627
1.68537
1.64369
1.60167
1.55964
1.51786
1.47653
1.43576
1.39563
1.35617
1.31737
1.27923
1.24168
1.20469
1.1682
1.13214
1.09645
1.06107
1.02594
0.990989
0.95617
0.921427
0.88671
0.851971
0.817164
0.78225
0.74719
0.711951
0.6765
0.640808
0.60485
0.568601
0.532037
0.495141
0.457888
0.420274
0.382252
0.343874
0.304983
0.265863
0.225886
0.186306
0.144519
0.105817
0.0594408
0.0273013
-9.57709
-9.58118
-9.59066
-9.63387
-9.76831
-10.0617
-10.576
-11.3571
-12.4238
-13.7563
-15.2953
-16.9468
-18.5969
-20.109
-21.3646
-22.261
-22.7321
-22.7469
-22.3138
-21.4747
-20.2967
-18.8602
-17.2473
-15.5313
-13.7734
-12.023
-10.3206
-8.6992
-7.18485
-5.79633
-4.5451
-3.43571
-2.46683
-1.63251
-0.923575
-0.328797
0.164028
0.567271
0.89288
1.15202
1.35491
1.51082
1.62805
1.71382
1.77421
1.81408
1.83723
1.8466
1.84461
1.8333
1.8145
1.7898
1.76056
1.72792
1.69277
1.65585
1.61774
1.5789
1.53971
1.50045
1.46134
1.42254
1.38414
1.3462
1.30874
1.27176
1.23524
1.19915
1.16344
1.12805
1.09296
1.05809
1.0234
0.988832
0.954343
0.919884
0.885409
0.850878
0.81625
0.781488
0.746557
0.711426
0.676067
0.640454
0.60456
0.568365
0.531846
0.494987
0.457763
0.420175
0.382171
0.34381
0.304929
0.26582
0.225846
0.18628
0.144484
0.105806
0.0594077
0.0273109
-9.64663
-9.68107
-9.73288
-9.82674
-10.0066
-10.3244
-10.8276
-11.5505
-12.5054
-13.6745
-15.008
-16.4276
-17.8359
-19.1265
-20.2
-20.9685
-21.3715
-21.3788
-20.9933
-20.2478
-19.1966
-17.9062
-16.4456
-14.8792
-13.2625
-11.6421
-10.0567
-8.53814
-7.11158
-5.79561
-4.60216
-3.53684
-2.5998
-1.78685
-1.0906
-0.50159
-0.00917639
0.397645
0.729685
0.997183
1.20963
1.37574
1.50336
1.59942
1.66979
1.7192
1.75137
1.7692
1.77507
1.77102
1.75888
1.74026
1.71655
1.6889
1.65827
1.62542
1.59096
1.55538
1.5191
1.48242
1.4456
1.40882
1.37221
1.33584
1.29977
1.26401
1.22855
1.19338
1.15848
1.12381
1.08932
1.05499
1.02076
0.986598
0.952455
0.918294
0.884075
0.849763
0.815322
0.780719
0.745924
0.710908
0.675646
0.640114
0.604288
0.56815
0.531678
0.494858
0.457666
0.420103
0.38212
0.343775
0.304905
0.265809
0.225837
0.186284
0.144483
0.105826
0.0594073
0.0273453
-9.71418
-9.77506
-9.86077
-9.99238
-10.2035
-10.5339
-11.0196
-11.6857
-12.5396
-13.5648
-14.7196
-15.9391
-17.1437
-18.2451
-19.1575
-19.8072
-20.1421
-20.1354
-19.7869
-19.1205
-18.1789
-17.0165
-15.6918
-14.2611
-12.7745
-11.2752
-9.79981
-8.37854
-7.03575
-5.78968
-4.65249
-3.63064
-2.72555
-1.93457
-1.25191
-0.669688
-0.178737
0.230664
0.568234
0.843316
1.06468
1.24046
1.37807
1.48413
1.56427
1.6231
1.66422
1.69047
1.70421
1.70745
1.70202
1.68954
1.67143
1.64886
1.62282
1.59411
1.56337
1.53112
1.49781
1.46379
1.42932
1.39462
1.35984
1.3251
1.29045
1.25594
1.22158
1.18738
1.15332
1.11938
1.08553
1.05175
1.018
0.98425
0.950465
0.916612
0.882659
0.848573
0.814326
0.779888
0.745234
0.710338
0.675177
0.639729
0.603975
0.567896
0.531473
0.494694
0.457535
0.419999
0.382037
0.34371
0.304853
0.265768
0.225802
0.18626
0.144455
0.105816
0.0593829
0.0273502
-9.77812
-9.86087
-9.97249
-10.1307
-10.3614
-10.6949
-11.1581
-11.769
-12.5311
-13.4294
-14.4284
-15.4746
-16.5016
-17.4362
-18.2071
-18.7527
-19.0275
-19.0066
-18.6868
-18.0857
-17.2376
-16.1871
-14.9836
-13.676
-12.309
-10.9223
-9.54998
-8.2207
-6.95774
-5.77885
-4.69632
-3.71724
-2.84412
-2.07558
-1.40731
-0.832835
-0.344353
0.0666534
0.408861
0.690744
0.920363
1.10528
1.25246
1.36819
1.45788
1.52595
1.57592
1.61056
1.63215
1.6427
1.64401
1.63772
1.62526
1.60784
1.58646
1.56195
1.535
1.50615
1.47588
1.44456
1.4125
1.37994
1.34705
1.31398
1.2808
1.24758
1.21436
1.18115
1.14796
1.11478
1.08159
1.04839
1.01514
0.98182
0.948409
0.914878
0.881201
0.847353
0.813309
0.779045
0.744538
0.709767
0.674711
0.639353
0.603673
0.567656
0.531285
0.494548
0.457424
0.419917
0.381978
0.343669
0.304825
0.265753
0.225792
0.186261
0.144454
0.105831
0.0593851
0.0273746
-9.8359
-9.93608
-10.0669
-10.243
-10.4844
-10.8138
-11.2511
-11.8088
-12.4877
-13.2738
-14.1371
-15.033
-15.9065
-16.697
-17.3447
-17.7975
-18.0163
-17.9787
-17.6803
-17.134
-16.3665
-15.4144
-14.3192
-13.123
-11.8657
-10.5834
-9.30751
-8.06499
-6.87793
-5.76349
-4.73393
-3.79684
-2.95555
-2.20984
-1.55665
-0.99081
-0.505749
-0.0940797
0.251886
0.539785
0.776983
0.970472
1.12678
1.25185
1.35082
1.42796
1.48665
1.5296
1.55901
1.57687
1.58495
1.58489
1.57812
1.56589
1.54923
1.52899
1.50588
1.48049
1.45332
1.42476
1.39517
1.36479
1.33385
1.30249
1.27082
1.23893
1.20688
1.1747
1.1424
1.11
1.0775
1.04489
1.01215
0.979281
0.946255
0.913057
0.879666
0.846063
0.812229
0.778144
0.74379
0.709148
0.674202
0.638936
0.603333
0.567381
0.531064
0.494372
0.457284
0.419807
0.381891
0.343601
0.304772
0.265713
0.225758
0.186238
0.14443
0.105819
0.0593661
0.0273732
-9.88666
-10.0001
-10.1444
-10.3312
-10.576
-10.8957
-11.3047
-11.8113
-12.4143
-13.1007
-13.8451
-14.6103
-15.3505
-16.0153
-16.555
-16.926
-17.0946
-17.0408
-16.7593
-16.259
-15.5611
-14.6953
-13.6965
-12.6012
-11.4443
-10.2585
-9.07266
-7.91178
-6.79673
-5.744
-4.76567
-3.86965
-3.05996
-2.33734
-1.69983
-1.14343
-0.662681
-0.251252
0.0976145
0.390751
0.634849
0.836342
1.00131
1.13534
1.24331
1.32931
1.3966
1.44775
1.48494
1.51008
1.52493
1.53112
1.53009
1.5231
1.5112
1.49527
1.47606
1.45418
1.43016
1.40443
1.37734
1.3492
1.32024
1.29064
1.26052
1.23
1.19915
1.16803
1.13665
1.10506
1.07327
1.04127
1.00907
0.976661
0.944036
0.911183
0.87809
0.844744
0.811128
0.77723
0.743035
0.708529
0.673697
0.638527
0.603006
0.567122
0.53086
0.494215
0.457165
0.419719
0.381828
0.343559
0.304744
0.265698
0.225751
0.18624
0.144433
0.105833
0.0593734
0.0273914
-9.92894
-10.0518
-10.2045
-10.3963
-10.6388
-10.9447
-11.3242
-11.7821
-12.316
-12.9141
-13.5544
-14.2059
-14.8304
-15.3863
-15.8321
-16.1311
-16.2545
-16.1846
-15.9157
-15.454
-14.8161
-14.0263
-13.1137
-12.1095
-11.0444
-9.94771
-8.84569
-7.76148
-6.71462
-5.72082
-4.79191
-3.93595
-3.15752
-2.45814
-1.83681
-1.29055
-0.81494
-0.404606
-0.0536683
0.243941
0.494262
0.703181
0.876328
1.01893
1.13561
1.23024
1.30594
1.3652
1.41009
1.44248
1.46409
1.47653
1.48126
1.47953
1.47243
1.46087
1.4456
1.42727
1.40644
1.38357
1.35905
1.33319
1.30626
1.27844
1.24992
1.2208
1.19118
1.16114
1.13072
1.09996
1.06889
1.03752
1.00587
0.973936
0.941723
0.909226
0.876439
0.843355
0.809965
0.776259
0.742228
0.70786
0.673147
0.638077
0.602639
0.566824
0.530621
0.494023
0.457013
0.419599
0.381735
0.343486
0.304688
0.265655
0.225716
0.186214
0.144409
0.105817
0.0593564
0.0273816
-9.96238
-10.0913
-10.2482
-10.4403
-10.6763
-10.9655
-11.3147
-11.7265
-12.1974
-12.7168
-13.2657
-13.818
-14.3421
-14.8033
-15.1672
-15.4029
-15.4861
-15.4011
-15.1422
-14.7134
-14.1277
-13.4047
-12.5689
-11.6469
-10.6656
-9.65097
-8.62686
-7.61449
-6.63205
-5.69441
-4.81305
-3.99606
-3.24843
-2.57233
-1.96757
-1.43208
-0.962352
-0.553914
-0.201697
0.0996425
0.355516
0.571277
0.752113
0.902887
1.02795
1.13097
1.2149
1.28213
1.33463
1.37421
1.40255
1.42124
1.43173
1.43529
1.43301
1.42583
1.41454
1.39981
1.38222
1.36225
1.34033
1.31679
1.29191
1.26593
1.23903
1.21135
1.18299
1.15406
1.12461
1.09471
1.06438
1.03367
1.00258
0.971141
0.939354
0.907225
0.874756
0.841944
0.808788
0.775283
0.741422
0.7072
0.672609
0.637642
0.602291
0.56655
0.530407
0.49386
0.456891
0.419511
0.381674
0.343446
0.304664
0.265645
0.225715
0.186221
0.14442
0.105833
0.0593721
0.0273974
-9.98636
-10.1183
-10.2758
-10.4646
-10.6908
-10.9611
-11.2801
-11.6484
-12.0621
-12.5114
-12.98
-13.446
-13.883
-14.2622
-14.555
-14.7355
-14.7831
-14.684
-14.4328
-14.0319
-13.4914
-12.8274
-12.0602
-11.2124
-10.3074
-9.36829
-8.41644
-7.47124
-6.54952
-5.66528
-4.82954
-4.05035
-3.33296
-2.68005
-2.09214
-1.56795
-1.10478
-0.69898
-0.346233
-0.0418782
0.218894
0.44092
0.628948
0.787485
0.920596
1.03173
1.1237
1.19874
1.25875
1.30545
1.34047
1.36539
1.38162
1.39047
1.39303
1.39026
1.38297
1.37186
1.35753
1.3405
1.3212
1.30002
1.27724
1.25312
1.22787
1.20165
1.17458
1.14678
1.11833
1.0893
1.05974
1.02969
0.99918
0.968242
0.93689
0.905138
0.872993
0.84046
0.807543
0.774242
0.740556
0.706482
0.672017
0.637156
0.601894
0.566227
0.530147
0.493651
0.456725
0.419379
0.381571
0.343365
0.304602
0.265596
0.225677
0.18619
0.144395
0.10581
0.0593538
0.0273761
-10.0011
-10.1335
-10.2888
-10.4713
-10.6854
-10.9357
-11.2248
-11.5523
-11.9139
-12.3007
-12.6987
-13.0893
-13.4506
-13.7587
-13.9898
-14.1222
-14.1384
-14.0267
-13.7816
-13.4047
-12.9038
-12.2919
-11.5858
-10.8049
-9.96943
-9.09961
-8.21465
-7.33212
-6.46752
-5.63392
-4.84185
-4.09921
-3.41139
-2.78151
-2.21063
-1.69815
-1.24214
-0.839643
-0.487062
-0.180373
0.0846654
0.312388
0.507116
0.672998
0.813813
0.932793
1.03257
1.11525
1.18264
1.23637
1.27802
1.30911
1.33108
1.3452
1.3526
1.35424
1.35096
1.34349
1.33245
1.31838
1.30174
1.28293
1.26228
1.24005
1.21648
1.19174
1.16599
1.13935
1.11191
1.08377
1.05499
1.02563
0.995716
0.965296
0.934393
0.903029
0.871219
0.838975
0.806305
0.773216
0.739711
0.705791
0.671456
0.636705
0.601536
0.565946
0.529931
0.493489
0.456606
0.419297
0.381519
0.343335
0.304589
0.265597
0.225689
0.186208
0.144419
0.105834
0.0593824
0.0273929
-10.0063
-10.137
-10.2878
-10.4618
-10.6621
-10.8916
-11.1517
-11.4411
-11.7554
-12.0865
-12.4224
-12.7473
-13.043
-13.2896
-13.4673
-13.5579
-13.5468
-13.4237
-13.1837
-12.8276
-12.3614
-11.7955
-11.1441
-10.4235
-9.65114
-8.84486
-8.0217
-7.19754
-6.38654
-5.60087
-4.85049
-4.14307
-3.48409
-2.87693
-2.32315
-1.82273
-1.37436
-0.975779
-0.624004
-0.315617
-0.0469162
0.185954
0.386895
0.559705
0.707874
0.834408
0.941759
1.03191
1.10653
1.16718
1.21537
1.25259
1.28024
1.29961
1.31183
1.31787
1.31861
1.31478
1.30703
1.29594
1.28197
1.26556
1.24705
1.22674
1.20486
1.18163
1.15721
1.13174
1.10534
1.0781
1.05012
1.02144
0.992137
0.962242
0.931794
0.900824
0.869354
0.837403
0.804984
0.77211
0.738788
0.705024
0.670822
0.636183
0.601108
0.565598
0.529648
0.493261
0.456423
0.41915
0.381397
0.343244
0.304517
0.265539
0.225643
0.186168
0.144387
0.105798
0.0593594
0.0273557
-10.003
-10.1301
-10.2746
-10.4384
-10.6238
-10.8324
-11.0646
-11.3186
-11.5899
-11.8714
-12.1525
-12.4201
-12.6588
-12.8522
-12.9836
-13.0381
-13.0032
-12.8702
-12.6346
-12.2966
-11.8608
-11.3358
-10.7333
-10.067
-9.35204
-8.60393
-7.83779
-7.06788
-6.30709
-5.56667
-4.85598
-4.18241
-3.55143
-2.96661
-2.4299
-1.94177
-1.50146
-1.10731
-0.756912
-0.447412
-0.175616
0.0618757
0.26856
0.447886
0.603057
0.736849
0.851534
0.948947
1.03065
1.09809
1.15273
1.196
1.22928
1.25386
1.27086
1.28129
1.28602
1.28583
1.28138
1.27326
1.26198
1.24799
1.23163
1.21325
1.19309
1.17138
1.14831
1.12403
1.09868
1.07237
1.04519
1.01723
0.988537
0.95918
0.9292
0.898635
0.867514
0.835864
0.803705
0.771053
0.73792
0.704317
0.670251
0.635728
0.60075
0.565321
0.529439
0.493108
0.456317
0.419082
0.381361
0.34323
0.304523
0.265558
0.225675
0.186204
0.144432
0.105835
0.0594067
0.0273765
-9.99077
-10.1129
-10.2495
-10.4021
-10.572
-10.7598
-10.9654
-11.1866
-11.419
-11.6563
-11.8893
-12.1069
-12.2962
-12.4436
-12.5353
-12.5587
-12.5033
-12.3618
-12.13
-11.808
-11.3992
-10.9105
-10.3517
-9.73444
-9.07161
-8.37671
-7.6631
-6.94352
-6.22967
-5.53187
-4.85887
-4.21773
-3.61384
-3.05089
-2.53112
-2.0554
-1.62347
-1.23418
-0.885673
-0.57559
-0.301219
-0.0595997
0.152377
0.337819
0.499644
0.640399
0.762169
0.866639
0.955247
1.02935
1.09032
1.13955
1.17838
1.2081
1.22983
1.2446
1.2533
1.25672
1.25556
1.25041
1.24182
1.23023
1.21604
1.19959
1.18115
1.16097
1.13925
1.11617
1.09188
1.0665
1.04014
1.01288
0.984815
0.956
0.926489
0.896331
0.865562
0.834216
0.802317
0.769887
0.736945
0.703505
0.669576
0.63517
0.60029
0.564944
0.529131
0.492857
0.456114
0.418918
0.381229
0.343123
0.304437
0.265487
0.225617
0.186149
0.144391
0.105781
0.0593759
0.0273167
-9.97164
-10.0875
-10.2153
-10.3559
-10.5099
-10.6775
-10.8578
-11.0486
-11.2458
-11.4436
-11.6342
-11.8082
-11.9547
-12.0624
-12.1197
-12.1163
-12.0435
-11.8947
-11.6665
-11.3586
-10.9738
-10.5175
-9.99796
-9.42486
-8.80933
-8.16305
-7.49776
-6.82482
-6.15476
-5.49701
-4.85972
-4.24957
-3.67178
-3.13015
-2.62708
-2.16381
-1.74048
-1.35641
-1.01022
-0.700013