/*--------------------------------*- C++ -*----------------------------------*\
  =========                 |
  \\      /  F ield         | OpenFOAM: The Open Source CFD Toolbox
   \\    /   O peration     | Website:  https://openfoam.org
    \\  /    A nd           | Version:  10
     \\/     M anipulation  |
\*---------------------------------------------------------------------------*/
FoamFile
{
    format      ascii;
    class       surfaceScalarField;
    location    "0.035";
    object      phi;
}
// * * * * * * * * * * * * * * * * * * * * * * * * * * * * * * * * * * * * * //

dimensions      [0 3 -1 0 0 0 0];

internalField   nonuniform List<scalar> 
13452
(
4.01921e-05
2.00763e-05
2.59342e-05
1.4258e-05
1.85305e-05
7.40362e-06
1.51584e-05
3.37217e-06
1.37444e-05
1.41398e-06
1.30372e-05
7.07235e-07
1.25843e-05
4.52835e-07
1.2234e-05
3.50348e-07
1.19364e-05
2.97558e-07
1.16796e-05
2.56794e-07
1.14593e-05
2.20286e-07
1.12716e-05
1.87715e-07
1.11122e-05
1.59376e-07
1.0977e-05
1.35231e-07
1.08621e-05
1.14864e-07
1.07644e-05
9.77108e-08
1.06812e-05
8.32331e-08
1.06102e-05
7.09785e-08
1.05496e-05
6.05915e-08
1.04978e-05
5.1806e-08
1.04534e-05
4.44305e-08
1.04151e-05
3.83328e-08
1.03817e-05
3.34128e-08
1.03521e-05
2.96007e-08
1.03252e-05
2.68164e-08
1.03001e-05
2.51245e-08
1.02759e-05
2.42045e-08
1.02512e-05
2.46881e-08
1.02277e-05
2.35086e-08
1.02006e-05
2.71446e-08
1.01906e-05
9.91642e-09
1.01524e-05
3.82083e-08
-1.79876e-07
1.03323e-05
6.59028e-05
1.61639e-05
6.18973e-05
1.82634e-05
5.56384e-05
1.36626e-05
4.97733e-05
9.2372e-06
4.52824e-05
5.90491e-06
4.2076e-05
3.91359e-06
3.97774e-05
2.75145e-06
3.80875e-05
2.04026e-06
3.68009e-05
1.58419e-06
3.57865e-05
1.27117e-06
3.4964e-05
1.04278e-06
3.42829e-05
8.68825e-07
3.37101e-05
7.32143e-07
3.32232e-05
6.22207e-07
3.28059e-05
5.32107e-07
3.24465e-05
4.57086e-07
3.2136e-05
3.93784e-07
3.18672e-05
3.39788e-07
3.16344e-05
2.93354e-07
3.1433e-05
2.53212e-07
3.1259e-05
2.18435e-07
3.1109e-05
1.88345e-07
3.098e-05
1.62436e-07
3.08692e-05
1.40326e-07
3.07744e-05
1.21707e-07
3.06931e-05
1.06419e-07
3.06233e-05
9.4014e-08
3.05634e-05
8.45651e-08
3.05118e-05
7.50725e-08
3.04706e-05
6.8341e-08
3.04371e-05
4.34114e-08
3.04509e-05
2.44621e-08
-1.0183e-07
3.03728e-05
6.91812e-05
1.07441e-05
7.25072e-05
1.49373e-05
7.30606e-05
1.31093e-05
7.1687e-05
1.06108e-05
6.94437e-05
8.14813e-06
6.70679e-05
6.28946e-06
6.48428e-05
4.97653e-06
6.28594e-05
4.02366e-06
6.11283e-05
3.31526e-06
5.96276e-05
2.77187e-06
5.83282e-05
2.34219e-06
5.7202e-05
1.99502e-06
5.62241e-05
1.71009e-06
5.5373e-05
1.47331e-06
5.46307e-05
1.27439e-06
5.39821e-05
1.10569e-06
5.34144e-05
9.61419e-07
5.29171e-05
8.37144e-07
5.2481e-05
7.29457e-07
5.20985e-05
6.35726e-07
5.1763e-05
5.53917e-07
5.14689e-05
4.82457e-07
5.12112e-05
4.20126e-07
5.09855e-05
3.65973e-07
5.0788e-05
3.19243e-07
5.06151e-05
2.79372e-07
5.04634e-05
2.4565e-07
5.03304e-05
2.17616e-07
5.02125e-05
1.92989e-07
5.01085e-05
1.72272e-07
5.00074e-05
1.44569e-07
4.99125e-05
1.19303e-07
6.15053e-08
4.97492e-05
6.88455e-05
7.4817e-06
7.21598e-05
1.1623e-05
7.45337e-05
1.07354e-05
7.59423e-05
9.2022e-06
7.65185e-05
7.57195e-06
7.65793e-05
6.22862e-06
7.6333e-05
5.22286e-06
7.59053e-05
4.45131e-06
7.53773e-05
3.84334e-06
7.47978e-05
3.35135e-06
7.41978e-05
2.94222e-06
7.35975e-05
2.59527e-06
7.3011e-05
2.29654e-06
7.2448e-05
2.03638e-06
7.1914e-05
1.80834e-06
7.14124e-05
1.60733e-06
7.09445e-05
1.42928e-06
7.05107e-05
1.27095e-06
7.01104e-05
1.12974e-06
6.97426e-05
1.00356e-06
6.94057e-05
8.90761e-07
6.90982e-05
7.90002e-07
6.88181e-05
7.00232e-07
6.85635e-05
6.20614e-07
6.83322e-05
5.50476e-07
6.81223e-05
4.89295e-07
6.79315e-05
4.36481e-07
6.77575e-05
3.91574e-07
6.75973e-05
3.5324e-07
6.7448e-05
3.21491e-07
6.73002e-05
2.92393e-07
6.71487e-05
2.70819e-07
2.54824e-07
6.69554e-05
6.95585e-05
5.38e-06
7.18344e-05
9.34708e-06
7.35349e-05
9.03488e-06
7.48039e-05
7.9332e-06
7.56944e-05
6.68144e-06
7.63437e-05
5.5794e-06
7.68375e-05
4.72898e-06
7.72177e-05
4.07112e-06
7.75122e-05
3.54889e-06
7.77393e-05
3.12423e-06
7.79119e-05
2.76963e-06
7.80401e-05
2.46708e-06
7.81312e-05
2.20543e-06
7.81909e-05
1.97669e-06
7.82248e-05
1.77443e-06
7.8238e-05
1.5941e-06
7.8235e-05
1.43234e-06
7.82193e-05
1.28659e-06
7.81942e-05
1.15488e-06
7.81621e-05
1.03567e-06
7.81251e-05
9.27779e-07
7.80848e-05
8.303e-07
7.80424e-05
7.42554e-07
7.7999e-05
6.6404e-07
7.79551e-05
5.944e-07
7.7911e-05
5.33401e-07
7.78667e-05
4.80818e-07
7.78217e-05
4.36565e-07
7.77746e-05
4.00291e-07
7.77235e-05
3.72574e-07
7.76625e-05
3.53382e-07
7.75857e-05
3.47694e-07
3.60711e-07
7.74798e-05
7.08399e-05
3.92411e-06
7.26265e-05
7.56049e-06
7.39327e-05
7.72865e-06
7.48626e-05
7.00332e-06
7.54926e-05
6.05143e-06
7.5942e-05
5.13002e-06
7.62977e-05
4.37326e-06
7.66e-05
3.76884e-06
7.6869e-05
3.27985e-06
7.71145e-05
2.87874e-06
7.73406e-05
2.54361e-06
7.75492e-05
2.25844e-06
7.77424e-05
2.01225e-06
7.79217e-05
1.79737e-06
7.8088e-05
1.60814e-06
7.82419e-05
1.44021e-06
7.8384e-05
1.29025e-06
7.85148e-05
1.15571e-06
7.86351e-05
1.03462e-06
7.87453e-05
9.25454e-07
7.8846e-05
8.27054e-07
7.89378e-05
7.3855e-07
7.9021e-05
6.59306e-07
7.90962e-05
5.88884e-07
7.91636e-05
5.27002e-07
7.92235e-05
4.73538e-07
7.92758e-05
4.2846e-07
7.93204e-05
3.9195e-07
7.93565e-05
3.64256e-07
7.93826e-05
3.46461e-07
7.93961e-05
3.39903e-07
7.93943e-05
3.49431e-07
3.78913e-07
7.93761e-05
7.23886e-05
2.90187e-06
7.38404e-05
6.10867e-06
7.49679e-05
6.60115e-06
7.57862e-05
6.18505e-06
7.63447e-05
5.49291e-06
7.67272e-05
4.74747e-06
7.70102e-05
4.09035e-06
7.72355e-05
3.54348e-06
7.74267e-05
3.08868e-06
7.75969e-05
2.70846e-06
7.77533e-05
2.38726e-06
7.78994e-05
2.11232e-06
7.80373e-05
1.87432e-06
7.81683e-05
1.66639e-06
7.82931e-05
1.48336e-06
7.84121e-05
1.32119e-06
7.85256e-05
1.17676e-06
7.86337e-05
1.04761e-06
7.87365e-05
9.31832e-07
7.8834e-05
8.2794e-07
7.89263e-05
7.34784e-07
7.90133e-05
6.515e-07
7.90952e-05
5.77461e-07
7.91718e-05
5.12242e-07
7.92432e-05
4.55598e-07
7.93093e-05
4.0746e-07
7.93699e-05
3.6792e-07
7.94245e-05
3.37329e-07
7.94725e-05
3.16277e-07
7.95128e-05
3.06093e-07
7.95441e-05
3.08601e-07
7.95654e-05
3.28132e-07
3.67591e-07
7.95767e-05
7.4125e-05
2.18213e-06
7.52919e-05
4.9418e-06
7.6273e-05
5.62006e-06
7.70246e-05
5.4334e-06
7.75698e-05
4.94771e-06
7.7958e-05
4.35929e-06
7.82468e-05
3.80153e-06
7.84737e-05
3.31659e-06
7.86612e-05
2.90126e-06
7.88231e-05
2.5465e-06
7.89679e-05
2.24251e-06
7.91002e-05
1.97995e-06
7.92232e-05
1.75133e-06
7.93388e-05
1.55086e-06
7.94481e-05
1.37403e-06
7.95521e-05
1.21721e-06
7.96513e-05
1.07755e-06
7.97461e-05
9.52784e-07
7.98368e-05
8.41106e-07
7.99237e-05
7.41111e-07
8.00067e-05
6.51709e-07
8.00862e-05
5.72081e-07
8.0162e-05
5.01634e-07
8.02342e-05
4.3998e-07
8.03029e-05
3.86917e-07
8.03679e-05
3.42438e-07
8.04291e-05
3.06726e-07
8.04862e-05
2.80242e-07
8.05387e-05
2.63752e-07
8.05862e-05
2.58636e-07
8.0628e-05
2.66767e-07
8.06645e-05
2.91697e-07
3.35572e-07
8.06965e-05
7.60165e-05
1.66814e-06
7.69523e-05
4.00594e-06
7.78003e-05
4.77209e-06
7.84808e-05
4.75291e-06
7.90003e-05
4.42818e-06
7.93874e-05
3.97219e-06
7.96842e-05
3.50472e-06
7.9922e-05
3.07883e-06
8.01202e-05
2.70299e-06
8.02917e-05
2.37499e-06
8.04445e-05
2.08977e-06
8.05834e-05
1.84102e-06
8.07117e-05
1.62301e-06
8.08316e-05
1.43101e-06
8.09444e-05
1.26117e-06
8.10513e-05
1.11032e-06
8.1153e-05
9.75872e-07
8.125e-05
8.5577e-07
8.13428e-05
7.48351e-07
8.14316e-05
6.52301e-07
8.15167e-05
5.66596e-07
8.15983e-05
4.90465e-07
8.16766e-05
4.23353e-07
8.17517e-05
3.64905e-07
8.18236e-05
3.14954e-07
8.18925e-05
2.73527e-07
8.19584e-05
2.40856e-07
8.20212e-05
2.17435e-07
8.20809e-05
2.04058e-07
8.21376e-05
2.01995e-07
8.21914e-05
2.12905e-07
8.22436e-05
2.39537e-07
2.83286e-07
8.22959e-05
7.80327e-05
1.29502e-06
7.87831e-05
3.2555e-06
7.95137e-05
4.04148e-06
8.01274e-05
4.13922e-06
8.06179e-05
3.93776e-06
8.09988e-05
3.59128e-06
8.1299e-05
3.20451e-06
8.15436e-05
2.83427e-06
8.17494e-05
2.49716e-06
8.19281e-05
2.19631e-06
8.20873e-05
1.9305e-06
8.22322e-05
1.69616e-06
8.23659e-05
1.48926e-06
8.24908e-05
1.30613e-06
8.26084e-05
1.14361e-06
8.27197e-05
9.98962e-07
8.28257e-05
8.69929e-07
8.29268e-05
7.5464e-07
8.30236e-05
6.5157e-07
8.31164e-05
5.59496e-07
8.32055e-05
4.77458e-07
8.32913e-05
4.04725e-07
8.33739e-05
3.40771e-07
8.34535e-05
2.85261e-07
8.35304e-05
2.3804e-07
8.36048e-05
1.99139e-07
8.36769e-05
1.68785e-07
8.37469e-05
1.47435e-07
8.38151e-05
1.35799e-07
8.38822e-05
1.34929e-07
8.3949e-05
1.46127e-07
8.40171e-05
1.71377e-07
2.11325e-07
8.40891e-05
8.01543e-05
1.01903e-06
8.07578e-05
2.65198e-06
8.13868e-05
3.41255e-06
8.19394e-05
3.58654e-06
8.23995e-05
3.4777e-06
8.27705e-05
3.22029e-06
8.30708e-05
2.90418e-06
8.33199e-05
2.58517e-06
8.35321e-05
2.28502e-06
8.37174e-05
2.01092e-06
8.38832e-05
1.76472e-06
8.40342e-05
1.54518e-06
8.41737e-05
1.34981e-06
8.43038e-05
1.17595e-06
8.44264e-05
1.02107e-06
8.45424e-05
8.82908e-07
8.46529e-05
7.59493e-07
8.47584e-05
6.49153e-07
8.48594e-05
5.50503e-07
8.49565e-05
4.62411e-07
8.505e-05
3.83975e-07
8.51402e-05
3.14501e-07
8.52275e-05
2.53483e-07
8.53122e-05
2.00593e-07
8.53945e-05
1.55668e-07
8.5475e-05
1.18713e-07
8.55538e-05
8.99049e-08
8.56317e-05
6.96076e-08
8.57091e-05
5.83762e-08
8.5787e-05
5.69906e-08
8.58668e-05
6.63472e-08
8.59504e-05
8.77527e-08
1.21219e-07
8.60405e-05
8.23688e-05
8.10634e-07
8.28565e-05
2.1643e-06
8.33974e-05
2.87165e-06
8.38941e-05
3.08981e-06
8.43237e-05
3.04818e-06
8.46827e-05
2.86124e-06
8.49816e-05
2.60533e-06
8.52343e-05
2.33243e-06
8.54524e-05
2.0669e-06
8.56446e-05
1.8188e-06
8.58171e-05
1.5922e-06
8.59745e-05
1.38775e-06
8.612e-05
1.20428e-06
8.62559e-05
1.04005e-06
8.63839e-05
8.93146e-07
8.6505e-05
7.61743e-07
8.66204e-05
6.44158e-07
8.67306e-05
5.38922e-07
8.68363e-05
4.44784e-07
8.6938e-05
3.60701e-07
8.70362e-05
2.85826e-07
8.71312e-05
2.19497e-07
8.72234e-05
1.61216e-07
8.73134e-05
1.10649e-07
8.74014e-05
6.76045e-08
8.74881e-05
3.20375e-08
8.7574e-05
4.04228e-09
8.76597e-05
-1.6141e-08
8.77463e-05
-2.81509e-08
8.78347e-05
-3.14963e-08
8.79268e-05
-2.56778e-08
8.80245e-05
-9.97266e-09
1.51297e-08
8.81306e-05
8.46685e-05
6.49892e-07
8.50653e-05
1.76752e-06
8.55308e-05
2.40613e-06
8.5977e-05
2.64364e-06
8.63768e-05
2.64836e-06
8.67223e-05
2.51572e-06
8.70177e-05
2.30996e-06
8.72724e-05
2.07773e-06
8.74953e-05
1.84401e-06
8.76935e-05
1.62058e-06
8.78726e-05
1.41314e-06
8.80366e-05
1.22373e-06
8.81885e-05
1.05233e-06
8.83306e-05
8.97974e-07
8.84644e-05
7.59324e-07
8.85912e-05
6.34938e-07
8.8712e-05
5.23411e-07
8.88274e-05
4.23461e-07
8.89382e-05
3.33962e-07
8.9045e-05
2.53953e-07
8.91482e-05
1.82637e-07
8.92483e-05
1.19374e-07
8.93459e-05
6.36685e-08
8.94413e-05
1.5162e-08
8.95353e-05
-2.63728e-08
8.96284e-05
-6.10505e-08
8.97213e-05
-8.88741e-08
8.98149e-05
-1.09752e-07
8.99103e-05
-1.23523e-07
9.00088e-05
-1.29975e-07
9.01121e-05
-1.2896e-07
9.02223e-05
-1.20228e-07
-1.04606e-07
9.03421e-05
8.70488e-05
5.2324e-07
8.73745e-05
1.44186e-06
8.7776e-05
2.00459e-06
8.81768e-05
2.24285e-06
8.85482e-05
2.27698e-06
8.88792e-05
2.18469e-06
8.91697e-05
2.01953e-06
8.94251e-05
1.82227e-06
8.9652e-05
1.61713e-06
8.98559e-05
1.4167e-06
9.00414e-05
1.22766e-06
9.0212e-05
1.05308e-06
9.03705e-05
8.938e-07
9.0519e-05
7.49511e-07
9.0659e-05
6.19358e-07
9.07917e-05
5.02242e-07
9.09181e-05
3.97005e-07
9.1039e-05
3.02535e-07
9.11551e-05
2.17822e-07
9.12671e-05
1.41978e-07
9.13755e-05
7.42485e-08
9.14809e-05
1.40077e-08
9.15838e-05
-3.9246e-08
9.16848e-05
-8.58965e-08
9.17847e-05
-1.26224e-07
9.18841e-05
-1.60419e-07
9.19838e-05
-1.88594e-07
9.20848e-05
-2.10803e-07
9.21884e-05
-2.27078e-07
9.22959e-05
-2.37452e-07
9.2409e-05
-2.42068e-07
9.25298e-05
-2.41042e-07
-2.35412e-07
9.26606e-05
8.95074e-05
4.21352e-07
8.97775e-05
1.17177e-06
9.01253e-05
1.65683e-06
9.04859e-05
1.88228e-06
9.08307e-05
1.93214e-06
9.11471e-05
1.86832e-06
9.14316e-05
1.73502e-06
9.16867e-05
1.56714e-06
9.19166e-05
1.38719e-06
9.21255e-05
1.20782e-06
9.2317e-05
1.03619e-06
9.24941e-05
8.75999e-07
9.26592e-05
7.28731e-07
9.28141e-05
5.94585e-07
9.29603e-05
4.73095e-07
9.30991e-05
3.63456e-07
9.32314e-05
2.6472e-07
9.3358e-05
1.75924e-07
9.34797e-05
9.61574e-08
9.35971e-05
2.45939e-08
9.37108e-05
-3.94891e-08
9.38215e-05
-9.67081e-08
9.39299e-05
-1.47577e-07
9.40365e-05
-1.92513e-07
9.41421e-05
-2.31854e-07
9.42476e-05
-2.65868e-07
9.43537e-05
-2.94772e-07
9.44617e-05
-3.18759e-07
9.45726e-05
-3.38028e-07
9.4688e-05
-3.52814e-07
9.48094e-05
-3.63481e-07
9.49388e-05
-3.70409e-07
-3.74729e-07
9.50781e-05
9.20435e-05
3.37726e-07
9.22702e-05
9.4508e-07
9.25731e-05
1.35387e-06
9.28985e-05
1.55691e-06
9.3219e-05
1.61162e-06
9.35211e-05
1.56628e-06
9.37991e-05
1.45698e-06
9.40531e-05
1.3131e-06
9.42855e-05
1.15485e-06
9.44989e-05
9.94404e-07
9.46961e-05
8.38969e-07
9.48795e-05
6.92572e-07
9.50512e-05
5.57087e-07
9.52127e-05
4.33083e-07
9.53654e-05
3.20387e-07
9.55104e-05
2.1842e-07
9.56487e-05
1.26404e-07
9.57812e-05
4.34965e-08
9.59085e-05
-3.11344e-08
9.60313e-05
-9.82638e-08
9.61504e-05
-1.58591e-07
9.62664e-05
-2.1273e-07
9.63801e-05
-2.61211e-07
9.64921e-05
-3.04491e-07
9.66032e-05
-3.4296e-07
9.67142e-05
-3.7696e-07
9.68263e-05
-4.06805e-07
9.69403e-05
-4.32804e-07
9.70576e-05
-4.55294e-07
9.71794e-05
-4.74662e-07
9.73074e-05
-4.91424e-07
9.74431e-05
-5.0614e-07
-5.19946e-07
9.75883e-05
9.46571e-05
2.67738e-07
9.485e-05
7.52256e-07
9.5116e-05
1.08788e-06
9.54109e-05
1.26195e-06
9.57096e-05
1.31292e-06
9.59982e-05
1.27773e-06
9.62697e-05
1.18547e-06
9.65222e-05
1.06053e-06
9.67565e-05
9.20571e-07
9.69741e-05
7.76841e-07
9.71768e-05
6.36281e-07
9.73664e-05
5.02955e-07
9.75445e-05
3.78932e-07
9.77126e-05
2.64998e-07
9.78718e-05
1.61178e-07
9.80232e-05
6.70527e-08
9.81676e-05
-1.80317e-08
9.8306e-05
-9.48292e-08
9.84389e-05
-1.6411e-07
9.85673e-05
-2.26616e-07
9.86917e-05
-2.8303e-07
9.8813e-05
-3.3397e-07
9.89317e-05
-3.79989e-07
9.90488e-05
-4.21575e-07
9.9165e-05
-4.59171e-07
9.92813e-05
-4.93185e-07
9.93985e-05
-5.2401e-07
9.95177e-05
-5.52045e-07
9.96402e-05
-5.77729e-07
9.9767e-05
-6.01553e-07
9.98997e-05
-6.24127e-07
0.00010004
-6.46108e-07
-6.68569e-07
0.000100188
9.73492e-05
2.08036e-07
9.75157e-05
5.8581e-07
9.77515e-05
8.52076e-07
9.80206e-05
9.92833e-07
9.83002e-05
1.03336e-06
9.85765e-05
1.00141e-06
9.88418e-05
9.20161e-07
9.90928e-05
8.09516e-07
9.93288e-05
6.84555e-07
9.95503e-05
5.55332e-07
9.97583e-05
4.28254e-07
9.99541e-05
3.07201e-07
0.000100139
1.94247e-07
0.000100314
9.0266e-08
0.000100479
-4.62026e-09
0.000100637
-9.07369e-08
0.000100788
-1.68663e-07
0.000100932
-2.39096e-07
0.000101071
-3.02771e-07
0.000101204
-3.60407e-07
0.000101334
-4.12684e-07
0.00010146
-4.60229e-07
0.000101584
-5.03614e-07
0.000101706
-5.43362e-07
0.000101827
-5.79957e-07
0.000101947
-6.13858e-07
0.000102069
-6.4552e-07
0.000102192
-6.75406e-07
0.000102318
-7.0402e-07
0.000102449
-7.31913e-07
0.000102584
-7.59735e-07
0.000102726
-7.88184e-07
-8.18223e-07
0.000102876
0.000100121
1.56126e-07
0.000100267
4.39813e-07
0.000100478
6.4058e-07
0.000100726
7.45238e-07
0.000100989
7.70114e-07
0.000101255
7.35739e-07
0.000101515
6.60275e-07
0.000101765
5.59742e-07
0.000102003
4.467e-07
0.000102228
3.29843e-07
0.000102441
2.14855e-07
0.000102643
1.05249e-07
0.000102835
2.94866e-09
0.000103016
-9.12153e-08
0.000103189
-1.77111e-07
0.000103353
-2.55041e-07
0.00010351
-3.25557e-07
0.00010366
-3.89335e-07
0.000103804
-4.47097e-07
0.000103944
-4.99558e-07
0.000104078
-5.47403e-07
0.000104209
-5.91271e-07
0.000104337
-6.31754e-07
0.000104463
-6.69401e-07
0.000104588
-7.04731e-07
0.000104713
-7.38239e-07
0.000104838
-7.70419e-07
0.000104964
-8.01773e-07
0.000105093
-8.32835e-07
0.000105225
-8.64179e-07
0.000105362
-8.96448e-07
0.000105504
-9.30329e-07
-9.66644e-07
0.000105652
0.000102974
1.101e-07
0.000103104
3.09509e-07
0.000103297
4.483e-07
0.000103527
5.15097e-07
0.000103777
5.20286e-07
0.000104034
4.78818e-07
0.000104289
4.04696e-07
0.000104538
3.10574e-07
0.000104778
2.06638e-07
0.000105008
1.00147e-07
0.000105227
-4.07896e-09
0.000105435
-1.03034e-07
0.000105633
-1.95087e-07
0.000105822
-2.79552e-07
0.000106001
-3.5638e-07
0.000106172
-4.25913e-07
0.000106335
-4.88726e-07
0.000106491
-5.45507e-07
0.000106641
-5.96989e-07
0.000106785
-6.43898e-07
0.000106925
-6.86932e-07
0.00010706
-7.26747e-07
0.000107193
-7.63952e-07
0.000107322
-7.99119e-07
0.00010745
-8.32786e-07
0.000107578
-8.65472e-07
0.000107705
-8.97687e-07
0.000107833
-9.29949e-07
0.000107963
-9.62793e-07
0.000108096
-9.96782e-07
0.000108232
-1.03252e-06
0.000108372
-1.07066e-06
-1.11187e-06
0.000108517
0.00010591
6.84568e-08
0.000106029
1.9101e-07
0.000106206
2.70767e-07
0.000106423
2.98544e-07
0.000106662
2.80875e-07
0.000106913
2.28472e-07
0.000107165
1.5192e-07
0.000107415
6.09669e-08
0.000107658
-3.63856e-08
0.000107893
-1.34339e-07
0.000108118
-2.29024e-07
0.000108333
-3.18064e-07
0.000108538
-4.00219e-07
0.000108733
-4.75057e-07
0.00010892
-5.42686e-07
0.000109097
-6.03553e-07
0.000109267
-6.58301e-07
0.000109429
-7.07666e-07
0.000109584
-7.52416e-07
0.000109734
-7.93303e-07
0.000109878
-8.31047e-07
0.000110017
-8.66321e-07
0.000110153
-8.99754e-07
0.000110286
-9.31928e-07
0.000110417
-9.63394e-07
0.000110546
-9.94676e-07
0.000110674
-1.02629e-06
0.000110803
-1.05873e-06
0.000110933
-1.09252e-06
0.000111064
-1.12819e-06
0.000111198
-1.16627e-06
0.000111335
-1.20734e-06
-1.2519e-06
0.000111475
0.000108932
2.99693e-08
0.000109042
8.10518e-08
0.000109209
1.04002e-07
0.000109415
9.18851e-08
0.000109647
4.88038e-08
0.000109894
-1.77009e-08
0.000110145
-9.98521e-08
0.000110397
-1.90399e-07
0.000110644
-2.83346e-07
0.000110884
-3.74342e-07
0.000111115
-4.60533e-07
0.000111337
-5.40255e-07
0.00011155
-6.12761e-07
0.000111753
-6.77953e-07
0.000111946
-7.36173e-07
0.000112131
-7.88028e-07
0.000112307
-8.34272e-07
0.000112475
-8.75723e-07
0.000112636
-9.13205e-07
0.00011279
-9.47511e-07
0.000112938
-9.7939e-07
0.000113081
-1.00954e-06
0.00011322
-1.03859e-06
0.000113355
-1.06715e-06
0.000113488
-1.09575e-06
0.000113618
-1.12492e-06
0.000113747
-1.15515e-06
0.000113875
-1.18692e-06
0.000114003
-1.22071e-06
0.000114132
-1.25698e-06
0.000114262
-1.2962e-06
0.000114393
-1.33885e-06
-1.38531e-06
0.000114527
0.000112041
-6.40779e-09
0.000112145
-2.32028e-08
0.000112305
-5.56559e-08
0.000112505
-1.08525e-07
0.000112733
-1.7919e-07
0.000112978
-2.62474e-07
0.000113231
-3.52907e-07
0.000113486
-4.45402e-07
0.000113738
-5.35802e-07
0.000113985
-6.21171e-07
0.000114224
-6.99715e-07
0.000114455
-7.70554e-07
0.000114676
-8.33511e-07
0.000114886
-8.88904e-07
0.000115088
-9.3737e-07
0.000115279
-9.79734e-07
0.000115462
-1.01691e-06
0.000115636
-1.04981e-06
0.000115802
-1.07936e-06
0.000115961
-1.10639e-06
0.000116113
-1.1317e-06
0.00011626
-1.156e-06
0.000116401
-1.17994e-06
0.000116538
-1.20411e-06
0.000116672
-1.22905e-06
0.000116802
-1.25526e-06
0.00011693
-1.28321e-06
0.000117056
-1.31333e-06
0.000117182
-1.34603e-06
0.000117306
-1.38172e-06
0.000117431
-1.42078e-06
0.000117556
-1.46358e-06
-1.51034e-06
0.000117681
0.00011524
-4.16107e-08
0.000115341
-1.24318e-07
0.000115497
-2.11647e-07
0.000115695
-3.06278e-07
0.000115922
-4.0645e-07
0.000116168
-5.08769e-07
0.000116425
-6.09685e-07
0.000116685
-7.06021e-07
0.000116945
-7.9533e-07
0.0001172
-8.76071e-07
0.000117448
-9.47541e-07
0.000117687
-1.00971e-06
0.000117916
-1.06303e-06
0.000118136
-1.10832e-06
0.000118345
-1.14655e-06
0.000118544
-1.17883e-06
0.000118733
-1.20624e-06
0.000118913
-1.22987e-06
0.000119085
-1.25071e-06
0.000119248
-1.26967e-06
0.000119404
-1.2876e-06
0.000119553
-1.30522e-06
0.000119696
-1.32319e-06
0.000119835
-1.34211e-06
0.000119968
-1.36249e-06
0.000120097
-1.38481e-06
0.000120224
-1.40947e-06
0.000120347
-1.43688e-06
0.000120469
-1.46737e-06
0.000120588
-1.50127e-06
0.000120706
-1.53888e-06
0.000120823
-1.58048e-06
-1.62615e-06
0.000120939
0.000118531
-7.65228e-08
0.000118631
-2.24781e-07
0.000118787
-3.67463e-07
0.000118986
-5.05255e-07
0.000119216
-6.36866e-07
0.000119468
-7.60271e-07
0.000119732
-8.73561e-07
0.000120001
-9.75281e-07
0.00012027
-1.0646e-06
0.000120536
-1.14137e-06
0.000120794
-1.20602e-06
0.000121044
-1.25942e-06
0.000121284
-1.30274e-06
0.000121513
-1.33733e-06
0.000121731
-1.3646e-06
0.000121938
-1.38595e-06
0.000122134
-1.40271e-06
0.00012232
-1.41612e-06
0.000122497
-1.42729e-06
0.000122665
-1.43721e-06
0.000122824
-1.44678e-06
0.000122975
-1.45674e-06
0.00012312
-1.46776e-06
0.000123258
-1.48042e-06
0.000123391
-1.49522e-06
0.000123519
-1.51257e-06
0.000123642
-1.53286e-06
0.000123762
-1.5564e-06
0.000123878
-1.58347e-06
0.000123991
-1.61431e-06
0.000124101
-1.64912e-06
0.000124209
-1.68806e-06
-1.7311e-06
0.000124313
0.000121917
-1.12015e-07
0.000122019
-3.27036e-07
0.000122178
-5.26557e-07
0.000122382
-7.09301e-07
0.00012262
-8.74229e-07
0.00012288
-1.02046e-06
0.000123154
-1.14758e-06
0.000123434
-1.25576e-06
0.000123715
-1.34577e-06
0.000123993
-1.41884e-06
0.000124263
-1.47659e-06
0.000124525
-1.52085e-06
0.000124776
-1.55356e-06
0.000125015
-1.57668e-06
0.000125243
-1.59208e-06
0.000125458
-1.60152e-06
0.000125662
-1.60657e-06
0.000125855
-1.60868e-06
0.000126036
-1.60908e-06
0.000126208
-1.60887e-06
0.00012637
-1.60898e-06
0.000126524
-1.61018e-06
0.000126669
-1.61316e-06
0.000126807
-1.61846e-06
0.000126938
-1.62655e-06
0.000127064
-1.63781e-06
0.000127183
-1.65256e-06
0.000127298
-1.67106e-06
0.000127408
-1.6935e-06
0.000127514
-1.72004e-06
0.000127615
-1.75079e-06
0.000127713
-1.78585e-06
-1.82506e-06
0.000127807
0.000125401
-1.491e-07
0.000125507
-4.33938e-07
0.000125674
-6.93159e-07
0.000125888
-9.23473e-07
0.000126138
-1.12399e-06
0.000126412
-1.29483e-06
0.000126702
-1.43701e-06
0.000126998
-1.55232e-06
0.000127296
-1.64316e-06
0.000127589
-1.71223e-06
0.000127875
-1.76241e-06
0.000128151
-1.7966e-06
0.000128415
-1.81758e-06
0.000128666
-1.82797e-06
0.000128904
-1.83017e-06
0.000129129
-1.82632e-06
0.000129341
-1.8183e-06
0.00012954
-1.80774e-06
0.000129727
-1.79605e-06
0.000129902
-1.7844e-06
0.000130067
-1.77376e-06
0.000130222
-1.76496e-06
0.000130367
-1.75865e-06
0.000130504
-1.75537e-06
0.000130633
-1.75554e-06
0.000130755
-1.7595e-06
0.00013087
-1.76749e-06
0.000130978
-1.7797e-06
0.000131081
-1.79625e-06
0.000131178
-1.8172e-06
0.00013127
-1.84257e-06
0.000131357
-1.87235e-06
-1.90627e-06
0.000131438
0.000128985
-1.8874e-07
0.000129099
-5.48249e-07
0.000129277
-8.71142e-07
0.000129506
-1.15205e-06
0.000129772
-1.39034e-06
0.000130064
-1.58729e-06
0.000130373
-1.74536e-06
0.000130689
-1.86809e-06
0.000131005
-1.95957e-06
0.000131317
-2.02406e-06
0.00013162
-2.06576e-06
0.000131912
-2.08869e-06
0.000132191
-2.09656e-06
0.000132456
-2.09274e-06
0.000132706
-2.08017e-06
0.000132941
-2.06143e-06
0.000133162
-2.03874e-06
0.000133368
-2.01395e-06
0.00013356
-1.98862e-06
0.00013374
-1.96403e-06
0.000133907
-1.9412e-06
0.000134063
-1.92099e-06
0.000134209
-1.90402e-06
0.000134344
-1.89083e-06
0.00013447
-1.88177e-06
0.000134588
-1.87714e-06
0.000134698
-1.87711e-06
0.0001348
-1.88179e-06
0.000134895
-1.89123e-06
0.000134983
-1.90541e-06
0.000135065
-1.92426e-06
0.00013514
-1.94772e-06
-1.97543e-06
0.000135209
0.000132673
-2.32636e-07
0.000132799
-6.74627e-07
0.000132996
-1.06753e-06
0.000133247
-1.40359e-06
0.00013354
-1.6826e-06
0.000133859
-1.90709e-06
0.000134195
-2.08128e-06
0.000134538
-2.21071e-06
0.00013488
-2.30146e-06
0.000135215
-2.35955e-06
0.00013554
-2.39071e-06
0.000135852
-2.4002e-06
0.000136148
-2.39275e-06
0.000136428
-2.3725e-06
0.000136691
-2.34302e-06
0.000136936
-2.30735e-06
0.000137166
-2.26802e-06
0.000137379
-2.22714e-06
0.000137577
-2.1864e-06
0.00013776
-2.14718e-06
0.000137929
-2.11057e-06
0.000138086
-2.0774e-06
0.00013823
-2.04832e-06
0.000138363
-2.02379e-06
0.000138485
-2.00415e-06
0.000138598
-1.98959e-06
0.000138701
-1.98024e-06
0.000138795
-1.97612e-06
0.000138881
-1.97719e-06
0.000138959
-1.98335e-06
0.000139029
-1.99443e-06
0.000139092
-2.01026e-06
-2.03038e-06
0.000139147
0.000136467
-2.81627e-07
0.000136609
-8.15947e-07
0.000136827
-1.28603e-06
0.000137105
-1.68194e-06
0.000137427
-2.0046e-06
0.000137779
-2.25825e-06
0.000138146
-2.44905e-06
0.00013852
-2.58474e-06
0.000138893
-2.67358e-06
0.000139256
-2.72351e-06
0.000139608
-2.74193e-06
0.000139943
-2.73551e-06
0.00014026
-2.71012e-06
0.000140559
-2.67079e-06
0.000140837
-2.62177e-06
0.000141097
-2.5666e-06
0.000141337
-2.5082e-06
0.000141559
-2.4489e-06
0.000141763
-2.39059e-06
0.00014195
-2.33472e-06
0.000142122
-2.28242e-06
0.000142279
-2.23453e-06
0.000142423
-2.19167e-06
0.000142553
-2.15425e-06
0.000142672
-2.12253e-06
0.000142779
-2.09666e-06
0.000142875
-2.07666e-06
0.000142961
-2.0625e-06
0.000143038
-2.05403e-06
0.000143106
-2.0511e-06
0.000143165
-2.05345e-06
0.000143216
-2.06087e-06
-2.07284e-06
0.000143258
0.000140375
-3.40384e-07
0.000140542
-9.83486e-07
0.000140799
-1.54263e-06
0.000141122
-2.00516e-06
0.000141491
-2.37413e-06
0.00014189
-2.65653e-06
0.000142302
-2.86153e-06
0.000142717
-3.00003e-06
0.000143127
-3.08303e-06
0.000143524
-3.12075e-06
0.000143905
-3.12247e-06
0.000144266
-3.09637e-06
0.000144605
-3.04949e-06
0.000144922
-2.98776e-06
0.000145216
-2.91612e-06
0.000145488
-2.83861e-06
0.000145739
-2.75849e-06
0.000145968
-2.67835e-06
0.000146178
-2.6002e-06
0.000146368
-2.52559e-06
0.000146542
-2.45565e-06
0.000146698
-2.39123e-06
0.00014684
-2.33288e-06
0.000146966
-2.28096e-06
0.000147079
-2.23567e-06
0.00014718
-2.19707e-06
0.000147268
-2.16509e-06
0.000147345
-2.1396e-06
0.000147412
-2.12038e-06
0.000147468
-2.10717e-06
0.000147514
-2.09963e-06
0.000147551
-2.09743e-06
-2.09993e-06
0.000147578
0.000144391
-4.0672e-07
0.000144584
-1.17609e-06
0.000144877
-1.83615e-06
0.000145245
-2.37342e-06
0.000145666
-2.79438e-06
0.000146118
-3.10863e-06
0.000146584
-3.32835e-06
0.000147053
-3.46806e-06
0.000147512
-3.54207e-06
0.000147954
-3.5634e-06
0.000148375
-3.54365e-06
0.000148772
-3.49289e-06
0.000149142
-3.41956e-06
0.000149485
-3.33071e-06
0.000149801
-3.23204e-06
0.00015009
-3.12814e-06
0.000150355
-3.02265e-06
0.000150595
-2.91836e-06
0.000150812
-2.81741e-06
0.000151008
-2.72139e-06
0.000151183
-2.63144e-06
0.00015134
-2.54833e-06
0.00015148
-2.47256e-06
0.000151604
-2.40439e-06
0.000151712
-2.34392e-06
0.000151806
-2.29111e-06
0.000151887
-2.24581e-06
0.000151955
-2.20778e-06
0.000152011
-2.17674e-06
0.000152056
-2.15234e-06
0.000152091
-2.13418e-06
0.000152115
-2.12189e-06
-2.11476e-06
0.00015213
0.000148541
-5.00095e-07
0.000148796
-1.43055e-06
0.000149169
-2.20944e-06
0.000149621
-2.82531e-06
0.000150121
-3.29468e-06
0.000150646
-3.6337e-06
0.000151178
-3.86013e-06
0.000151703
-3.99341e-06
0.000152213
-4.05148e-06
0.0001527
-4.05014e-06
0.000153159
-4.00324e-06
0.000153589
-3.92261e-06
0.000153987
-3.81805e-06
0.000154354
-3.69763e-06
0.00015469
-3.56779e-06
0.000154996
-3.43368e-06
0.000155272
-3.29925e-06
0.000155521
-3.16753e-06
0.000155745
-3.04078e-06
0.000155944
-2.9206e-06
0.000156121
-2.80811e-06
0.000156276
-2.70401e-06
0.000156412
-2.60871e-06
0.00015653
-2.52235e-06
0.000156631
-2.44493e-06
0.000156717
-2.37628e-06
0.000156787
-2.31615e-06
0.000156843
-2.2642e-06
0.000156887
-2.22003e-06
0.000156918
-2.18322e-06
0.000156937
-2.15325e-06
0.000156944
-2.12965e-06
-2.11158e-06
0.000156941
0.000152785
-5.95897e-07
0.000153076
-1.72118e-06
0.00015351
-2.64421e-06
0.000154045
-3.36041e-06
0.000154644
-3.89289e-06
0.000155272
-4.26179e-06
0.000155904
-4.49241e-06
0.000156523
-4.61196e-06
0.000157115
-4.64409e-06
0.000157674
-4.60892e-06
0.000158194
-4.52364e-06
0.000158674
-4.40248e-06
0.000159113
-4.25695e-06
0.000159512
-4.09627e-06
0.000159872
-3.92768e-06
0.000160195
-3.75678e-06
0.000160483
-3.58779e-06
0.00016074
-3.42385e-06
0.000160966
-3.2672e-06
0.000161165
-3.11938e-06
0.000161338
-2.98136e-06
0.000161488
-2.85371e-06
0.000161616
-2.73665e-06
0.000161724
-2.63017e-06
0.000161813
-2.53409e-06
0.000161884
-2.4481e-06
0.00016194
-2.3718e-06
0.000161981
-2.30477e-06
0.000162007
-2.24652e-06
0.000162021
-2.19655e-06
0.000162022
-2.15433e-06
0.000162011
-2.1194e-06
-2.09076e-06
0.000161991
0.000157246
-7.90924e-07
0.000157698
-2.1729e-06
0.000158292
-3.23818e-06
0.000158961
-4.02968e-06
0.00015967
-4.60164e-06
0.00016039
-4.98155e-06
0.0001611
-5.20212e-06
0.000161784
-5.29674e-06
0.000162434
-5.29321e-06
0.00016304
-5.21532e-06
0.0001636
-5.08341e-06
0.000164111
-4.91408e-06
0.000164575
-4.72063e-06
0.000164992
-4.51353e-06
0.000165365
-4.30083e-06
0.000165697
-4.0886e-06
0.000165991
-3.88129e-06
0.000166249
-3.68207e-06
0.000166475
-3.49309e-06
0.000166671
-3.31572e-06
0.000166841
-3.15074e-06
0.000166985
-2.99845e-06
0.000167108
-2.85884e-06
0.000167209
-2.73167e-06
0.000167291
-2.61652e-06
0.000167356
-2.51289e-06
0.000167405
-2.42022e-06
0.000167438
-2.33793e-06
0.000167457
-2.26546e-06
0.000167462
-2.20224e-06
0.000167456
-2.14775e-06
0.000167438
-2.10147e-06
-2.06239e-06
0.00016741
0.000161693
-9.45222e-07
0.000162217
-2.6972e-06
0.000162959
-3.98056e-06
0.000163827
-4.89683e-06
0.000164742
-5.51702e-06
0.000165649
-5.88879e-06
0.000166519
-6.07217e-06
0.000167339
-6.11659e-06
0.000168103
-6.05763e-06
0.000168812
-5.92374e-06
0.000169466
-5.73769e-06
0.000170069
-5.51707e-06
0.000170624
-5.27544e-06
0.000171134
-5.02323e-06
0.000171601
-4.76831e-06
0.000172029
-4.51654e-06
0.00017242
-4.27219e-06
0.000172776
-4.03827e-06
0.0001731
-3.81682e-06
0.000173393
-3.60906e-06
0.000173658
-3.41565e-06
0.000173897
-3.23676e-06
0.00017411
-3.07225e-06
0.0001743
-2.92171e-06
0.000174468
-2.78461e-06
0.000174615
-2.6603e-06
0.000174743
-2.54811e-06
0.000174853
-2.4474e-06
0.000174945
-2.35761e-06
0.000175021
-2.27821e-06
0.000175082
-2.20903e-06
0.00017513
-2.14962e-06
-2.09998e-06
0.000175168
0.00016669
-1.48194e-06
0.00016755
-3.55716e-06
0.000168497
-4.9269e-06
0.000169521
-5.92095e-06
0.000170624
-6.61997e-06
0.000171785
-7.05023e-06
0.000172986
-7.27273e-06
0.000174203
-7.33365e-06
0.000175412
-7.26703e-06
0.000176592
-7.10396e-06
0.000177726
-6.87121e-06
0.0001788
-6.59075e-06
0.000179805
-6.28041e-06
0.000180736
-5.95429e-06
0.000181591
-5.62333e-06
0.00018237
-5.2958e-06
0.000183075
-4.97776e-06
0.000183711