/*--------------------------------*- C++ -*----------------------------------*\
  =========                 |
  \\      /  F ield         | OpenFOAM: The Open Source CFD Toolbox
   \\    /   O peration     | Website:  https://openfoam.org
    \\  /    A nd           | Version:  10
     \\/     M anipulation  |
\*---------------------------------------------------------------------------*/
FoamFile
{
    format      ascii;
    class       volVectorField;
    location    "0.035";
    object      U;
}
// * * * * * * * * * * * * * * * * * * * * * * * * * * * * * * * * * * * * * //

dimensions      [0 1 -1 0 0 0 0];

internalField   nonuniform List<vector> 
6820
(
(5.57352 0.459169 0)
(3.8828 0.245949 0)
(2.58875 0.00883979 0)
(1.95654 -0.064134 0)
(1.73092 -0.0594296 0)
(1.61949 -0.0339598 0)
(1.55426 -0.0153004 0)
(1.50806 -0.00522923 0)
(1.46924 -0.000630541 0)
(1.43565 0.000884703 0)
(1.40675 0.000956472 0)
(1.38205 0.000469923 0)
(1.36105 -0.000166019 0)
(1.34324 -0.00077067 0)
(1.32811 -0.00127449 0)
(1.31526 -0.00166176 0)
(1.30432 -0.00194032 0)
(1.29499 -0.00212586 0)
(1.28703 -0.0022346 0)
(1.28023 -0.00228056 0)
(1.27441 -0.00227487 0)
(1.26941 -0.002226 0)
(1.26507 -0.00214048 0)
(1.26127 -0.00202285 0)
(1.25786 -0.00187814 0)
(1.25475 -0.00170504 0)
(1.25174 -0.00152009 0)
(1.24889 -0.00128747 0)
(1.24562 -0.00115519 0)
(1.24353 -0.000710542 0)
(1.23793 -0.00152311 0)
(1.24435 0.00239451 0)
(1.2177 -0.0229468 0)
(7.6698 0.863963 0)
(7.71709 0.890933 0)
(6.99958 0.598593 0)
(6.19666 0.347678 0)
(5.58297 0.179744 0)
(5.13803 0.0932389 0)
(4.82087 0.05287 0)
(4.59207 0.0343798 0)
(4.42063 0.0259016 0)
(4.2873 0.0215771 0)
(4.18037 0.0189362 0)
(4.09253 0.0170403 0)
(4.01908 0.0155174 0)
(3.9569 0.0142057 0)
(3.90378 0.0130248 0)
(3.85811 0.0119344 0)
(3.81869 0.0109156 0)
(3.78458 0.00996075 0)
(3.75504 0.00906779 0)
(3.72947 0.0082382 0)
(3.70735 0.00747589 0)
(3.68827 0.00678658 0)
(3.67183 0.0061761 0)
(3.65771 0.00565045 0)
(3.64561 0.00521396 0)
(3.63525 0.00488146 0)
(3.62636 0.00463702 0)
(3.61874 0.00452956 0)
(3.61213 0.00429941 0)
(3.6067 0.00437262 0)
(3.60185 0.0027033 0)
(3.60041 0.00239922 0)
(3.59877 -0.00764817 0)
(7.56352 0.520393 0)
(8.22512 0.663779 0)
(8.4646 0.57649 0)
(8.36348 0.458983 0)
(8.12747 0.344911 0)
(7.8505 0.260011 0)
(7.58041 0.200314 0)
(7.33706 0.157434 0)
(7.12376 0.126212 0)
(6.93859 0.102958 0)
(6.77829 0.0851818 0)
(6.63948 0.0713024 0)
(6.51906 0.0602764 0)
(6.41437 0.0513917 0)
(6.32315 0.0441335 0)
(6.24351 0.038119 0)
(6.17386 0.0330646 0)
(6.11285 0.0287615 0)
(6.05938 0.0250567 0)
(6.01247 0.0218386 0)
(5.97133 0.0190262 0)
(5.93525 0.0165619 0)
(5.90363 0.014405 0)
(5.87594 0.0125281 0)
(5.85169 0.0109125 0)
(5.83047 0.00954928 0)
(5.81187 0.00841639 0)
(5.79557 0.00750728 0)
(5.7812 0.00665942 0)
(5.76851 0.00593824 0)
(5.75692 0.00424328 0)
(5.74564 0.00232708 0)
(5.73336 -0.00503469 0)
(7.43336 0.341174 0)
(7.8846 0.514728 0)
(8.24319 0.489984 0)
(8.4416 0.430299 0)
(8.54107 0.35917 0)
(8.57089 0.29865 0)
(8.55564 0.252578 0)
(8.51497 0.217081 0)
(8.45993 0.189152 0)
(8.397 0.16653 0)
(8.33037 0.14763 0)
(8.26282 0.131494 0)
(8.19613 0.1175 0)
(8.13165 0.105216 0)
(8.07018 0.094353 0)
(8.0122 0.0846994 0)
(7.95796 0.0760822 0)
(7.90754 0.0683595 0)
(7.86091 0.0614156 0)
(7.81798 0.0551568 0)
(7.77861 0.0495088 0)
(7.74262 0.0444139 0)
(7.7098 0.0398281 0)
(7.67995 0.0357198 0)
(7.65283 0.0320659 0)
(7.62821 0.0288535 0)
(7.60585 0.0260606 0)
(7.58551 0.0236759 0)
(7.5669 0.0215914 0)
(7.54967 0.0198269 0)
(7.53335 0.0178959 0)
(7.51662 0.0162294 0)
(7.49924 0.0140678 0)
(7.39681 0.251135 0)
(7.67989 0.421344 0)
(7.92315 0.404455 0)
(8.0769 0.354645 0)
(8.18713 0.300074 0)
(8.26909 0.25453 0)
(8.32955 0.220689 0)
(8.37586 0.194874 0)
(8.41197 0.174338 0)
(8.43996 0.157427 0)
(8.4614 0.143044 0)
(8.47751 0.130524 0)
(8.48931 0.119455 0)
(8.49737 0.109547 0)
(8.50232 0.100587 0)
(8.50476 0.0924115 0)
(8.50522 0.0849024 0)
(8.50411 0.0779694 0)
(8.50183 0.0715455 0)
(8.49866 0.0655821 0)
(8.49485 0.0600452 0)
(8.49061 0.0549133 0)
(8.48609 0.0501754 0)
(8.48141 0.0458293 0)
(8.47665 0.0418799 0)
(8.47186 0.0383391 0)
(8.46706 0.0352154 0)
(8.46222 0.0325234 0)
(8.45725 0.0302416 0)
(8.45198 0.0284151 0)
(8.44606 0.0269686 0)
(8.43871 0.0262915 0)
(8.42942 0.0266429 0)
(7.37401 0.180809 0)
(7.57403 0.33647 0)
(7.76058 0.342879 0)
(7.87484 0.313889 0)
(7.95078 0.274884 0)
(8.00582 0.236872 0)
(8.04689 0.205649 0)
(8.08061 0.18068 0)
(8.11042 0.160488 0)
(8.13748 0.143927 0)
(8.16232 0.130042 0)
(8.18525 0.118128 0)
(8.20643 0.107729 0)
(8.2261 0.0985367 0)
(8.24435 0.0903047 0)
(8.26126 0.0828495 0)
(8.27689 0.0760393 0)
(8.29131 0.0697778 0)
(8.30457 0.0639953 0)
(8.31674 0.0586423 0)
(8.32787 0.0536854 0)
(8.33804 0.0491052 0)
(8.34728 0.0448938 0)
(8.35564 0.0410537 0)
(8.36317 0.0375963 0)
(8.3699 0.0345424 0)
(8.37583 0.0319168 0)
(8.38097 0.029758 0)
(8.38525 0.0281021 0)
(8.38858 0.0270513 0)
(8.39074 0.0267223 0)
(8.39147 0.0275639 0)
(8.39039 0.0300868 0)
(7.35904 0.132905 0)
(7.50321 0.273568 0)
(7.65542 0.295665 0)
(7.75517 0.279154 0)
(7.82096 0.249809 0)
(7.86752 0.218107 0)
(7.90047 0.190601 0)
(7.92555 0.168034 0)
(7.94647 0.149424 0)
(7.96482 0.1339 0)
(7.98147 0.120727 0)
(7.99693 0.109342 0)
(8.01149 0.0993502 0)
(8.02528 0.0904693 0)
(8.03841 0.082498 0)
(8.05093 0.0752869 0)
(8.06287 0.0687222 0)
(8.07426 0.0627159 0)
(8.08509 0.057201 0)
(8.09539 0.0521284 0)
(8.10514 0.0474644 0)
(8.11435 0.0431889 0)
(8.12303 0.0392936 0)
(8.13118 0.0357815 0)
(8.13879 0.032666 0)
(8.14586 0.0299719 0)
(8.15237 0.0277341 0)
(8.1583 0.0260067 0)
(8.16359 0.0248596 0)
(8.16816 0.0244278 0)
(8.17188 0.0248884 0)
(8.17462 0.0266696 0)
(8.17627 0.0301132 0)
(7.34964 0.099223 0)
(7.45332 0.221014 0)
(7.57619 0.251139 0)
(7.66463 0.244704 0)
(7.72609 0.225298 0)
(7.77138 0.201379 0)
(7.80431 0.178738 0)
(7.82919 0.159011 0)
(7.84939 0.141995 0)
(7.8666 0.127327 0)
(7.88176 0.11462 0)
(7.8955 0.103498 0)
(7.9082 0.0936658 0)
(7.92008 0.0848989 0)
(7.93129 0.0770241 0)
(7.94193 0.0699014 0)
(7.95207 0.0634205 0)
(7.96175 0.0574961 0)
(7.97101 0.0520639 0)
(7.97988 0.0470771 0)
(7.98837 0.0425041 0)
(7.99648 0.0383265 0)
(8.00424 0.0345379 0)
(8.01163 0.0311434 0)
(8.01868 0.0281598 0)
(8.02536 0.0256167 0)
(8.03167 0.0235577 0)
(8.03759 0.0220485 0)
(8.04307 0.0211801 0)
(8.04808 0.021101 0)
(8.05256 0.022011 0)
(8.05647 0.0242847 0)
(8.05985 0.0282163 0)
(7.3438 0.0752815 0)
(7.4191 0.179107 0)
(7.51772 0.213781 0)
(7.59481 0.214974 0)
(7.65096 0.202703 0)
(7.69398 0.184314 0)
(7.72657 0.165202 0)
(7.75183 0.14771 0)
(7.77256 0.1322 0)
(7.79029 0.118584 0)
(7.80589 0.106642 0)
(7.81996 0.096102 0)
(7.83287 0.0867246 0)
(7.84488 0.0783196 0)
(7.85616 0.0707348 0)
(7.86681 0.0638487 0)
(7.87692 0.0575665 0)
(7.88656 0.0518146 0)
(7.89577 0.0465375 0)
(7.90459 0.0416943 0)
(7.91303 0.0372576 0)
(7.92112 0.0332121 0)
(7.92888 0.0295541 0)
(7.93633 0.0262912 0)
(7.94347 0.0234431 0)
(7.95031 0.0210432 0)
(7.95686 0.0191408 0)
(7.96311 0.0178076 0)
(7.96906 0.0171427 0)
(7.97471 0.0172935 0)
(7.98007 0.0184526 0)
(7.98519 0.0209323 0)
(7.99021 0.0249593 0)
(7.34016 0.058052 0)
(7.39543 0.145475 0)
(7.47438 0.181262 0)
(7.54101 0.187453 0)
(7.59191 0.180549 0)
(7.63233 0.167037 0)
(7.66408 0.151579 0)
(7.68926 0.13664 0)
(7.71014 0.122892 0)
(7.72809 0.110465 0)
(7.7439 0.0993221 0)
(7.75816 0.0893299 0)
(7.77125 0.0803376 0)
(7.78342 0.0722121 0)
(7.79484 0.0648392 0)
(7.80563 0.058122 0)
(7.81587 0.0519805 0)
(7.82564 0.0463502 0)
(7.83498 0.0411807 0)
(7.84392 0.0364348 0)
(7.85251 0.0320872 0)
(7.86076 0.0281242 0)
(7.8687 0.0245432 0)
(7.87636 0.0213528 0)
(7.88374 0.0185736 0)
(7.89088 0.0162398 0)
(7.89779 0.0144017 0)
(7.9045 0.01313 0)
(7.91102 0.0125213 0)
(7.9174 0.012709 0)
(7.92369 0.0138605 0)
(7.93003 0.0162222 0)
(7.93656 0.019952 0)
(7.33787 0.0454139 0)
(7.37895 0.118432 0)
(7.44219 0.153303 0)
(7.49951 0.162878 0)
(7.54543 0.160103 0)
(7.58309 0.150529 0)
(7.61365 0.138092 0)
(7.63847 0.125248 0)
(7.65932 0.112948 0)
(7.67738 0.101529 0)
(7.69338 0.0911022 0)
(7.70782 0.08164 0)
(7.72109 0.0730554 0)
(7.73343 0.0652538 0)
(7.745 0.058145 0)
(7.75593 0.0516478 0)
(7.76631 0.0456928 0)
(7.77621 0.0402232 0)
(7.78568 0.0351942 0)
(7.79477 0.0305723 0)
(7.80351 0.0263349 0)
(7.81194 0.0224699 0)
(7.82008 0.0189752 0)
(7.82797 0.0158597 0)
(7.83563 0.0131431 0)
(7.84309 0.0108581 0)
(7.8504 0.00905173 0)
(7.85758 0.00778894 0)
(7.86469 0.00715508 0)
(7.8718 0.00726219 0)
(7.87901 0.00824385 0)
(7.88647 0.010284 0)
(7.89435 0.0134746 0)
(7.33642 0.035962 0)
(7.36737 0.0966271 0)
(7.41815 0.129251 0)
(7.46724 0.140717 0)
(7.50845 0.140818 0)
(7.54335 0.134283 0)
(7.57257 0.124433 0)
(7.59692 0.113568 0)
(7.61767 0.102756 0)
(7.63582 0.0924466 0)
(7.65198 0.0828413 0)
(7.66662 0.0739904 0)
(7.68008 0.0658671 0)
(7.6926 0.0584183 0)
(7.70435 0.051584 0)
(7.71544 0.0453047 0)
(7.72598 0.0395261 0)
(7.73603 0.0342015 0)
(7.74566 0.029293 0)
(7.75491 0.0247712 0)
(7.76382 0.0206157 0)
(7.77243 0.0168152 0)
(7.78078 0.0133673 0)
(7.7889 0.0102792 0)
(7.79684 0.00756848 0)
(7.80463 0.00526323 0)
(7.81231 0.00340395 0)
(7.81996 0.00204502 0)
(7.82762 0.00125602 0)
(7.83541 0.0011237 0)
(7.84342 0.00174497 0)
(7.85185 0.0032467 0)
(7.86085 0.00566451 0)
(7.33548 0.0287427 0)
(7.35916 0.0789342 0)
(7.4001 0.108555 0)
(7.44206 0.120819 0)
(7.47892 0.122898 0)
(7.51112 0.118715 0)
(7.53888 0.111021 0)
(7.56257 0.101869 0)
(7.58309 0.0923584 0)
(7.60123 0.0830228 0)
(7.6175 0.074141 0)
(7.63231 0.0658338 0)
(7.64597 0.0581281 0)
(7.65869 0.0510074 0)
(7.67063 0.0444369 0)
(7.68192 0.0383737 0)
(7.69264 0.0327748 0)
(7.70287 0.0276007 0)
(7.71268 0.0228178 0)
(7.72211 0.0183994 0)
(7.73121 0.0143262 0)
(7.74002 0.0105867 0)
(7.74859 0.00717709 0)
(7.75695 0.0041021 0)
(7.76516 0.00137471 0)
(7.77327 -0.000982878 0)
(7.78132 -0.00293903 0)
(7.7894 -0.00445221 0)
(7.79757 -0.00547126 0)
(7.80595 -0.00593585 0)
(7.81466 -0.00578455 0)
(7.82389 -0.00494052 0)
(7.83378 -0.00341313 0)
(7.33485 0.0231101 0)
(7.35326 0.0644684 0)
(7.38648 0.0907261 0)
(7.42233 0.102952 0)
(7.45521 0.106227 0)
(7.48482 0.103734 0)
(7.51105 0.0977397 0)
(7.53398 0.0900357 0)
(7.55418 0.0816951 0)
(7.57225 0.0732893 0)
(7.5886 0.0651393 0)
(7.60356 0.0574088 0)
(7.61739 0.0501613 0)
(7.63031 0.0434085 0)
(7.64245 0.0371359 0)
(7.65393 0.031316 0)
(7.66484 0.0259167 0)
(7.67526 0.0209062 0)
(7.68525 0.0162559 0)
(7.69486 0.011942 0)
(7.70415 0.00794621 0)
(7.71315 0.00425642 0)
(7.72193 0.000866946 0)
(7.73052 -0.00222121 0)
(7.73898 -0.00500044 0)
(7.74737 -0.007456 0)
(7.75575 -0.00956662 0)
(7.7642 -0.011305 0)
(7.7728 -0.0126393 0)
(7.78167 -0.0135347 0)
(7.79094 -0.0139615 0)
(7.80077 -0.0138844 0)
(7.8113 -0.0133464 0)
(7.33443 0.0186224 0)
(7.34897 0.0525269 0)
(7.37614 0.0753156 0)
(7.40683 0.0868916 0)
(7.43614 0.0907527 0)
(7.46333 0.0894186 0)
(7.48803 0.0847389 0)
(7.51012 0.078238 0)
(7.52992 0.0709115 0)
(7.54784 0.0633333 0)
(7.56419 0.0558452 0)
(7.57926 0.0486407 0)
(7.59325 0.0418135 0)
(7.60634 0.0353997 0)
(7.61867 0.0294031 0)
(7.63034 0.0238099 0)
(7.64144 0.0185973 0)
(7.65204 0.0137397 0)
(7.66221 0.00921207 0)
(7.67201 0.00499219 0)
(7.68147 0.00106168 0)
(7.69067 -0.0025931 0)
(7.69964 -0.00598069 0)
(7.70844 -0.00910454 0)
(7.71713 -0.011963 0)
(7.72577 -0.0145498 0)
(7.73443 -0.016855 0)
(7.74319 -0.0188655 0)
(7.75214 -0.0205678 0)
(7.76139 -0.0219498 0)
(7.77106 -0.0230085 0)
(7.78132 -0.0237422 0)
(7.79226 -0.0242163 0)
(7.33413 0.0149735 0)
(7.34581 0.0425587 0)
(7.36825 0.0619297 0)
(7.39463 0.0724254 0)
(7.42079 0.0763814 0)
(7.44572 0.0757462 0)
(7.46894 0.0720131 0)
(7.49016 0.0664576 0)
(7.5095 0.0599763 0)
(7.52722 0.053123 0)
(7.54355 0.046243 0)
(7.55869 0.0395442 0)
(7.57281 0.0331383 0)
(7.58607 0.0270771 0)
(7.59857 0.0213769 0)
(7.61043 0.0160331 0)
(7.62171 0.01103 0)
(7.63249 0.00634616 0)
(7.64283 0.00195915 0)
(7.6528 -0.00215249 0)
(7.66243 -0.00600777 0)
(7.67179 -0.00962229 0)
(7.68094 -0.013008 0)
(7.68992 -0.0161734 0)
(7.6988 -0.0191234 0)
(7.70764 -0.0218606 0)
(7.71652 -0.0243857 0)
(7.72551 -0.0266991 0)
(7.73471 -0.0288038 0)
(7.74421 -0.030707 0)
(7.75414 -0.0324273 0)
(7.76463 -0.0339885 0)
(7.77576 -0.0354695 0)
(7.33392 0.0119477 0)
(7.34346 0.0341321 0)
(7.3622 0.050222 0)
(7.38501 0.0593438 0)
(7.40842 0.0630099 0)
(7.43133 0.0626945 0)
(7.45315 0.0595905 0)
(7.4735 0.0547491 0)
(7.49235 0.0489547 0)
(7.50984 0.0427208 0)
(7.5261 0.03638 0)
(7.54128 0.0301417 0)
(7.55551 0.0241262 0)
(7.56891 0.0183956 0)
(7.58158 0.0129749 0)
(7.5936 0.00786704 0)
(7.60505 0.00306117 0)
(7.616 -0.00146052 0)
(7.6265 -0.00571884 0)
(7.63662 -0.00973503 0)
(7.64641 -0.0135291 0)
(7.65592 -0.0171193 0)
(7.66521 -0.0205212 0)
(7.67434 -0.0237486 0)
(7.68337 -0.026813 0)
(7.69236 -0.0297251 0)
(7.70139 -0.0324958 0)
(7.71054 -0.0351375 0)
(7.71988 -0.037667 0)
(7.72952 -0.040107 0)
(7.73955 -0.0424922 0)
(7.7501 -0.0448646 0)
(7.76123 -0.0473091 0)
(7.33376 0.00939013 0)
(7.3417 0.0269085 0)
(7.35756 0.0398921 0)
(7.37744 0.0474486 0)
(7.39848 0.0505255 0)
(7.41959 0.0502154 0)
(7.44012 0.0474593 0)
(7.45964 0.0431122 0)
(7.478 0.0378447 0)
(7.49523 0.0321192 0)
(7.5114 0.0262456 0)
(7.5266 0.0204257 0)
(7.54092 0.0147809 0)
(7.55445 0.00937701 0)
(7.56727 0.00424353 0)
(7.57945 -0.000613427 0)
(7.59106 -0.00520214 0)
(7.60216 -0.00953922 0)
(7.61282 -0.0136454 0)
(7.62307 -0.017543 0)
(7.63299 -0.0212542 0)
(7.64262 -0.0248003 0)
(7.65202 -0.0282013 0)
(7.66126 -0.0314759 0)
(7.67039 -0.0346424 0)
(7.67947 -0.0377191 0)
(7.68858 -0.0407258 0)
(7.69779 -0.0436852 0)
(7.70717 -0.046625 0)
(7.71683 -0.0495798 0)
(7.72682 -0.0525956 0)
(7.73727 -0.0557263 0)
(7.74822 -0.0590573 0)
(7.33365 0.00718695 0)
(7.34036 0.0206205 0)
(7.35398 0.0306799 0)
(7.37149 0.0365517 0)
(7.39052 0.0388083 0)
(7.41007 0.0382448 0)
(7.42946 0.0355945 0)
(7.4482 0.0315436 0)
(7.4661 0.0266537 0)
(7.48308 0.0213287 0)
(7.49916 0.0158471 0)
(7.51437 0.0103947 0)
(7.52876 0.00508624 0)
(7.54241 -1.42574e-05 0)
(7.55537 -0.00487731 0)
(7.5677 -0.00949618 0)
(7.57946 -0.0138787 0)
(7.5907 -0.0180414 0)
(7.60148 -0.0220059 0)
(7.61186 -0.0257959 0)
(7.62188 -0.029436 0)
(7.6316 -0.0329506 0)
(7.64109 -0.0363636 0)
(7.65039 -0.0396987 0)
(7.65956 -0.0429797 0)
(7.66868 -0.0462316 0)
(7.67779 -0.0494814 0)
(7.68698 -0.0527597 0)
(7.69631 -0.0561025 0)
(7.70586 -0.0595523 0)
(7.71569 -0.0631619 0)
(7.7259 -0.0669918 0)
(7.7365 -0.0711235 0)
(7.33356 0.00525221 0)
(7.33936 0.0150553 0)
(7.35124 0.0223605 0)
(7.36684 0.0264761 0)
(7.38422 0.0277348 0)
(7.40243 0.0267064 0)
(7.42082 0.0239551 0)
(7.43888 0.0200249 0)
(7.45635 0.0153762 0)
(7.4731 0.0103523 0)
(7.48909 0.00519576 0)
(7.50431 7.04533e-05 0)
(7.51878 -0.00492059 0)
(7.53254 -0.00971993 0)
(7.54562 -0.0143019 0)
(7.55809 -0.0186623 0)
(7.56998 -0.0228111 0)
(7.58134 -0.0267671 0)
(7.59224 -0.0305542 0)
(7.60271 -0.0341991 0)
(7.61281 -0.0377296 0)
(7.62259 -0.0411736 0)
(7.63212 -0.0445595 0)
(7.64143 -0.0479156 0)
(7.6506 -0.0512711 0)
(7.65968 -0.0546564 0)
(7.66873 -0.0581046 0)
(7.67782 -0.0616522 0)
(7.687 -0.0653408 0)
(7.69633 -0.069218 0)
(7.70589 -0.0733396 0)
(7.71573 -0.0777691 0)
(7.72586 -0.0825809 0)
(7.33349 0.00351918 0)
(7.3386 0.0100401 0)
(7.34915 0.0147375 0)
(7.36325 0.017054 0)
(7.37929 0.0171759 0)
(7.39641 0.015507 0)
(7.41396 0.0124757 0)
(7.43145 0.0085062 0)
(7.44856 0.00396724 0)
(7.46513 -0.000858697 0)
(7.48106 -0.00576898 0)
(7.4963 -0.0106259 0)
(7.51086 -0.0153433 0)
(7.52473 -0.0198745 0)
(7.53795 -0.024201 0)
(7.55055 -0.0283237 0)
(7.56256 -0.0322565 0)
(7.57404 -0.0360215 0)
(7.58503 -0.0396458 0)
(7.59558 -0.043159 0)
(7.60573 -0.0465921 0)
(7.61555 -0.0499767 0)
(7.62507 -0.0533446 0)
(7.63436 -0.0567282 0)
(7.64347 -0.0601607 0)
(7.65246 -0.0636768 0)
(7.66138 -0.0673136 0)
(7.67028 -0.0711114 0)
(7.67921 -0.0751149 0)
(7.68825 -0.0793737 0)
(7.69742 -0.0839438 0)
(7.70678 -0.0888876 0)
(7.71633 -0.0942709 0)
(7.33344 0.00193439 0)
(7.33803 0.00543227 0)
(7.34759 0.00763799 0)
(7.36054 0.00812707 0)
(7.37553 0.00700328 0)
(7.39178 0.00455188 0)
(7.40867 0.00109467 0)
(7.42571 -0.00304294 0)
(7.44255 -0.00757323 0)
(7.45898 -0.0122722 0)
(7.47488 -0.0169787 0)
(7.49017 -0.0215841 0)
(7.50482 -0.0260234 0)
(7.51881 -0.0302647 0)
(7.53215 -0.0343004 0)
(7.54487 -0.0381396 0)
(7.55701 -0.0418029 0)
(7.56858 -0.0453179 0)
(7.57965 -0.0487165 0)
(7.59024 -0.0520328 0)
(7.60042 -0.0553019 0)
(7.61023 -0.0585592 0)
(7.61971 -0.0618404 0)
(7.62893 -0.0651815 0)
(7.63793 -0.0686193 0)
(7.64676 -0.0721916 0)
(7.65547 -0.0759384 0)
(7.66412 -0.0799021 0)
(7.67274 -0.0841285 0)
(7.68138 -0.0886672 0)
(7.69008 -0.0935721 0)
(7.69888 -0.0989032 0)
(7.70778 -0.104716 0)
(7.33341 0.000452945 0)
(7.33763 0.00110937 0)
(7.34646 0.000904485 0)
(7.35857 -0.000461571 0)
(7.37279 -0.00292629 0)
(7.3884 -0.00628783 0)
(7.40483 -0.0103089 0)
(7.42155 -0.0147473 0)
(7.43823 -0.0193881 0)
(7.45462 -0.0240633 0)
(7.47056 -0.0286538 0)
(7.48595 -0.0330825 0)
(7.50073 -0.0373074 0)
(7.51486 -0.0413135 0)
(7.52836 -0.0451058 0)
(7.54122 -0.048703 0)
(7.55347 -0.0521334 0)
(7.56514 -0.0554307 0)
(7.57627 -0.0586319 0)
(7.5869 -0.0617755 0)
(7.59708 -0.0649004 0)
(7.60685 -0.0680458 0)
(7.61626 -0.0712504 0)
(7.62536 -0.0745531 0)
(7.6342 -0.077993 0)
(7.64282 -0.0816101 0)
(7.65127 -0.0854455 0)
(7.65959 -0.0895421 0)
(7.66782 -0.0939451 0)
(7.676 -0.0987021 0)
(7.68415 -0.103863 0)
(7.69232 -0.109483 0)
(7.70048 -0.115608 0)
(7.33338 -0.000963493 0)
(7.33735 -0.00303596 0)
(7.3457 -0.00560663 0)
(7.35725 -0.00885816 0)
(7.37095 -0.0127402 0)
(7.38615 -0.0171055 0)
(7.40229 -0.0217802 0)
(7.41885 -0.0265906 0)
(7.43548 -0.0313855 0)
(7.4519 -0.0360506 0)
(7.46794 -0.0405102 0)
(7.48346 -0.0447217 0)
(7.49839 -0.0486707 0)
(7.51269 -0.0523636 0)
(7.52633 -0.0558223 0)
(7.53933 -0.0590792 0)
(7.55169 -0.0621729 0)
(7.56344 -0.0651457 0)
(7.57462 -0.0680415 0)
(7.58526 -0.0709044 0)
(7.59541 -0.0737779 0)
(7.60511 -0.076705 0)
(7.61441 -0.0797275 0)
(7.62335 -0.0828866 0)
(7.63198 -0.0862232 0)
(7.64034 -0.0897783 0)
(7.64848 -0.0935931 0)
(7.65642 -0.0977098 0)
(7.66421 -0.102172 0)
(7.67187 -0.107023 0)
(7.67943 -0.11231 0)
(7.6869 -0.118082 0)
(7.6943 -0.124374 0)
(7.33337 -0.00235092 0)
(7.3372 -0.00710595 0)
(7.34527 -0.012042 0)
(7.35652 -0.0172335 0)
(7.36996 -0.0226281 0)
(7.385 -0.028117 0)
(7.40108 -0.0335793 0)
(7.41767 -0.0389007 0)
(7.43441 -0.0439879 0)
(7.45101 -0.0487763 0)
(7.46726 -0.0532311 0)
(7.48301 -0.0573434 0)
(7.49817 -0.0611249 0)
(7.51269 -0.0646035 0)
(7.52653 -0.0678177 0)
(7.53969 -0.0708133 0)
(7.55217 -0.0736398 0)
(7.56401 -0.0763482 0)
(7.57523 -0.0789894 0)
(7.58587 -0.0816134 0)
(7.59598 -0.0842684 0)
(7.60558 -0.0870008 0)
(7.61473 -0.0898555 0)
(7.62348 -0.0928756 0)
(7.63186 -0.0961031 0)
(7.63991 -0.0995793 0)
(7.64767 -0.103345 0)
(7.65518 -0.10744 0)
(7.66247 -0.111905 0)
(7.66955 -0.116781 0)
(7.67646 -0.122107 0)
(7.6832 -0.127926 0)
(7.68977 -0.134264 0)
(7.33336 -0.00374439 0)
(7.33715 -0.0111972 0)
(7.34515 -0.0185326 0)
(7.35633 -0.0257165 0)
(7.36976 -0.0326771 0)
(7.38486 -0.039326 0)
(7.40105 -0.0455818 0)
(7.41784 -0.0513827 0)
(7.43481 -0.0566916 0)
(7.45168 -0.0614975 0)
(7.46821 -0.0658128 0)
(7.48424 -0.0696691 0)
(7.49968 -0.0731121 0)
(7.51444 -0.0761968 0)
(7.52849 -0.0789839 0)
(7.54182 -0.0815364 0)
(7.55444 -0.0839173 0)
(7.56636 -0.0861882 0)
(7.57762 -0.0884081 0)
(7.58824 -0.0906328 0)
(7.59828 -0.0929153 0)
(7.60777 -0.0953052 0)
(7.61675 -0.0978493 0)
(7.62527 -0.100592 0)
(7.63337 -0.103575 0)
(7.64108 -0.106839 0)
(7.64844 -0.110424 0)
(7.65548 -0.114366 0)
(7.66224 -0.118704 0)
(7.66873 -0.123472 0)
(7.67496 -0.128704 0)
(7.68096 -0.134439 0)
(7.68673 -0.140692 0)
(7.33337 -0.00518066 0)
(7.33722 -0.0154217 0)
(7.34535 -0.0252632 0)
(7.35674 -0.0345715 0)
(7.37046 -0.0432594 0)
(7.38592 -0.0512583 0)
(7.40254 -0.0585224 0)
(7.41979 -0.0650346 0)
(7.43724 -0.0708048 0)
(7.45459 -0.0758657 0)
(7.47158 -0.0802692 0)
(7.48804 -0.0840815 0)
(7.50385 -0.0873781 0)
(7.51894 -0.0902394 0)
(7.53326 -0.0927477 0)
(7.5468 -0.0949837 0)
(7.55957 -0.0970253 0)
(7.57158 -0.0989459 0)
(7.58287 -0.100814 0)
(7.59346 -0.102694 0)
(7.60341 -0.104643 0)
(7.61275 -0.106716 0)
(7.62152 -0.108962 0)
(7.62977 -0.111426 0)
(7.63754 -0.114152 0)
(7.64487 -0.117179 0)
(7.65178 -0.120544 0)
(7.65832 -0.124282 0)
(7.6645 -0.128426 0)
(7.67034 -0.133006 0)
(7.67586 -0.138051 0)
(7.68108 -0.14359 0)
(7.68598 -0.149632 0)
(7.33338 -0.00669806 0)
(7.33738 -0.0198752 0)
(7.34584 -0.0323315 0)
(7.35766 -0.0438118 0)
(7.3719 -0.0541961 0)
(7.38792 -0.0634276 0)
(7.40514 -0.0715 0)
(7.423 -0.0784562 0)
(7.44106 -0.0843725 0)
(7.459 -0.0893454 0)
(7.47654 -0.0934833 0)
(7.49351 -0.0969005 0)
(7.50978 -0.0997117 0)
(7.52525 -0.102029 0)
(7.5399 -0.103958 0)
(7.5537 -0.1056 0)
(7.56665 -0.107046 0)
(7.57878 -0.108379 0)
(7.59012 -0.109678 0)
(7.6007 -0.11101 0)
(7.61056 -0.112437 0)
(7.61975 -0.114016 0)
(7.62831 -0.115798 0)
(7.63629 -0.117827 0)
(7.64372 -0.120146 0)
(7.65065 -0.122793 0)
(7.65711 -0.125801 0)
(7.66312 -0.129202 0)
(7.66872 -0.133025 0)
(7.67393 -0.137296 0)
(7.67876 -0.142037 0)
(7.68322 -0.147273 0)
(7.68734 -0.153005 0)
(7.33341 -0.00835038 0)
(7.33772 -0.0247478 0)
(7.3468 -0.040123 0)
(7.35947 -0.0541227 0)
(7.37468 -0.0666142 0)
(7.39175 -0.0775493 0)
(7.41002 -0.0869396 0)
(7.4289 -0.0948581 0)
(7.44792 -0.10142 0)
(7.46672 -0.106764 0)
(7.48503 -0.111041 0)
(7.50267 -0.11441 0)
(7.51949 -0.117023 0)
(7.53543 -0.119028 0)
(7.55044 -0.120562 0)
(7.56451 -0.121749 0)
(7.57765 -0.122704 0)
(7.58988 -0.123526 0)
(7.60123 -0.124306 0)
(7.61176 -0.125121 0)
(7.6215 -0.12604 0)
(7.63049 -0.127125 0)
(7.6388 -0.128428 0)
(7.64646 -0.129996 0)
(7.65351 -0.13187 0)
(7.65999 -0.134085 0)
(7.66595 -0.136674 0)
(7.6714 -0.139664 0)
(7.67638 -0.143079 0)
(7.68091 -0.14694 0)
(7.68501 -0.151263 0)
(7.68868 -0.156066 0)
(7.69193 -0.161343 0)
(7.33345 -0.0101825 0)
(7.33812 -0.0300806 0)
(7.34798 -0.0484619 0)
(7.36166 -0.0648146 0)
(7.37799 -0.0789994 0)
(7.39624 -0.0910276 0)
(7.41572 -0.101003 0)
(7.43579 -0.109103 0)
(7.45594 -0.115541 0)
(7.4758 -0.120536 0)
(7.49508 -0.124303 0)
(7.51358 -0.12705 0)
(7.53115 -0.128968 0)
(7.54771 -0.130233 0)
(7.56323 -0.131002 0)
(7.5777 -0.131418 0)
(7.59112 -0.131604 0)
(7.60353 -0.13167 0)
(7.61497 -0.131712 0)
(7.62549 -0.131813 0)
(7.63514 -0.132045 0)
(7.64398 -0.132469 0)
(7.65205 -0.13314 0)
(7.6594 -0.134103 0)
(7.66608 -0.135397 0)
(7.67213 -0.137058 0)
(7.67759 -0.139113 0)
(7.6825 -0.141586 0)
(7.68688 -0.144499 0)
(7.69077 -0.147867 0)
(7.69417 -0.151702 0)
(7.69712 -0.156018 0)
(7.69962 -0.160801 0)
(7.33353 -0.0123151 0)
(7.33895 -0.036427 0)
(7.35028 -0.0586867 0)
(7.36583 -0.0784638 0)
(7.38417 -0.0955792 0)
(7.40442 -0.109994 0)
(7.42578 -0.121787 0)
(7.44755 -0.13116 0)
(7.4692 -0.13838 0)
(7.49036 -0.143737 0)
(7.51074 -0.147522 0)
(7.53015 -0.150017 0)
(7.54847 -0.151481 0)
(7.56564 -0.152146 0)
(7.58162 -0.152217 0)
(7.59642 -0.151874 0)
(7.61007 -0.15127 0)
(7.6226 -0.150534 0)
(7.63406 -0.149778 0)
(7.64452 -0.149094 0)
(7.65402 -0.14856 0)
(7.66263 -0.148241 0)
(7.67041 -0.148191 0)
(7.6774 -0.148455 0)
(7.68366 -0.14907 0)
(7.68923 -0.150067 0)
(7.69416 -0.15147 0)
(7.69848 -0.1533 0)
(7.70223 -0.155571 0)
(7.70542 -0.158295 0)
(7.70809 -0.161478 0)
(7.71025 -0.165125 0)
(7.71192 -0.169219 0)
(7.33356 -0.0147557 0)
(7.33958 -0.0432867 0)
(7.35223 -0.0688665 0)
(7.3695 -0.0907728 0)
(7.38979 -0.109066 0)
(7.41215 -0.12397 0)
(7.4357 -0.135778 0)
(7.45961 -0.144855 0)
(7.48328 -0.151574 0)
(7.50628 -0.156289 0)
(7.52829 -0.159334 0)
(7.5491 -0.161018 0)
(7.5686 -0.161618 0)
(7.58673 -0.161383 0)
(7.60347 -0.160532 0)
(7.61885 -0.159255 0)
(7.63291 -0.157715 0)
(7.64571 -0.156053 0)
(7.65731 -0.154387 0)
(7.66779 -0.152814 0)
(7.67722 -0.151417 0)
(7.68566 -0.150263 0)
(7.69319 -0.149409 0)
(7.69987 -0.148899 0)
(7.70574 -0.148769 0)
(7.71088 -0.149049 0)
(7.71531 -0.14976 0)
(7.71909 -0.15092 0)
(7.72224 -0.152541 0)
(7.72482 -0.154629 0)
(7.72684 -0.157187 0)
(7.72833 -0.160218 0)
(7.72934 -0.163696 0)
(7.33382 -0.0179557 0)
(7.34182 -0.0531384 0)
(7.35784 -0.0850719 0)
(7.37887 -0.112641 0)
(7.4027 -0.135609 0)
(7.42824 -0.153993 0)
(7.45456 -0.168096 0)
(7.48082 -0.178437 0)
(7.50648 -0.185588 0)
(7.53117 -0.190098 0)
(7.5546 -0.192479 0)
(7.5766 -0.193188 0)
(7.59707 -0.19262 0)
(7.61599 -0.191109 0)
(7.63334 -0.188937 0)
(7.64918 -0.186335 0)
(7.66355 -0.183493 0)
(7.67652 -0.180567 0)
(7.68818 -0.177682 0)
(7.6986 -0.174941 0)
(7.70787 -0.172423 0)
(7.71607 -0.170193 0)
(7.72327 -0.168302 0)
(7.72953 -0.16679 0)
(7.73493 -0.165687 0)
(7.73952 -0.165016 0)
(7.74335 -0.164794 0)
(7.74647 -0.165034 0)
(7.74893 -0.165742 0)
(7.75076 -0.166922 0)
(7.75199 -0.16857 0)
(7.75265 -0.170684 0)
(7.75276 -0.173233 0)
(7.33371 -0.0214191 0)
(7.34216 -0.0615925 0)
(7.36012 -0.095665 0)
(7.38416 -0.123593 0)
(7.41175 -0.14628 0)
(7.44151 -0.164228 0)
(7.47207 -0.177898 0)
(7.50231 -0.187837 0)
(7.53152 -0.194572 0)
(7.55926 -0.198596 0)
(7.58523 -0.200383 0)
(7.60928 -0.200372 0)
(7.63135 -0.198961 0)
(7.65146 -0.1965 0)
(7.66967 -0.193293 0)
(7.68605 -0.1896 0)
(7.70072 -0.185637 0)
(7.71378 -0.181581 0)
(7.72536 -0.177577 0)
(7.73555 -0.173741 0)
(7.74446 -0.170163 0)
(7.7522 -0.166914 0)
(7.75885 -0.164047 0)
(7.7645 -0.161603 0)
(7.76922 -0.15961 0)
(7.77307 -0.158089 0)
(7.77612 -0.157055 0)
(7.77843 -0.156515 0)
(7.78003 -0.156474 0)
(7.78098 -0.156932 0)
(7.78132 -0.157883 0)
(7.78109 -0.159323 0)
(7.78034 -0.16121 0)
(7.33482 -0.0278138 0)
(7.34958 -0.0823806 0)
(7.37534 -0.129725 0)
(7.40582 -0.167977 0)
(7.43824 -0.197467 0)
(7.47182 -0.21898 0)
(7.50545 -0.233751 0)
(7.53817 -0.243102 0)
(7.56942 -0.248166 0)
(7.59881 -0.249898 0)
(7.62609 -0.249098 0)
(7.65112 -0.246416 0)
(7.67389 -0.242376 0)
(7.69445 -0.237398 0)
(7.71289 -0.231815 0)
(7.72932 -0.225896 0)
(7.7439 -0.219851 0)
(7.75675 -0.213848 0)
(7.76803 -0.208015 0)
(7.77786 -0.202454 0)
(7.78638 -0.197241 0)
(7.79369 -0.192432 0)
(7.79991 -0.188068 0)
(7.80511 -0.184179 0)
(7.80939 -0.180784 0)
(7.81282 -0.177897 0)
(7.81545 -0.175526 0)
(7.81735 -0.173674 0)
(7.81856 -0.172343 0)
(7.81912 -0.171534 0)
(7.81909 -0.17124 0)
(7.81851 -0.17146 0)
(7.81742 -0.172146 0)
(7.3338 -0.0316277 0)
(7.34772 -0.0859818 0)
(7.37794 -0.128709 0)
(7.41605 -0.163914 0)
(7.45715 -0.192853 0)
(7.49898 -0.215193 0)
(7.53963 -0.231365 0)
(7.5781 -0.242126 0)
(7.6141 -0.248212 0)
(7.64754 -0.250414 0)
(7.67847 -0.249529 0)
(7.70698 -0.246288 0)
(7.73324 -0.241328 0)
(7.75738 -0.235189 0)
(7.77954 -0.228311 0)
(7.79984 -0.221045 0)
(7.81841 -0.213666 0)
(7.83535 -0.206383 0)
(7.85077 -0.199351 0)
(7.86476 -0.192683 0)
(7.87741 -0.186459 0)
(7.88882 -0.180734 0)
(7.89906 -0.175541 0)
(7.90821 -0.170899 0)
(7.91632 -0.166817 0)
(7.92348 -0.163297 0)
(7.92972 -0.160338 0)
(7.9351 -0.157935 0)
(7.93966 -0.156087 0)
(7.94347 -0.154795 0)
(7.94657 -0.154065 0)
(7.94904 -0.153903 0)
(7.95096 -0.154275 0)
(7.33892 -0.054187 0)
(7.37194 -0.150995 0)
(7.41469 -0.219838 0)
(7.45825 -0.266384 0)
(7.50471 -0.2968 0)
(7.55494 -0.315047 0)
(7.60742 -0.324822 0)
(7.66101 -0.32881 0)
(7.71481 -0.328711 0)
(7.76779 -0.325685 0)
(7.81904 -0.320545 0)
(7.86788 -0.313871 0)
(7.91385 -0.306099 0)
(7.95663 -0.29757 0)
(7.99607 -0.288563 0)
(8.03214 -0.279311 0)
(8.06489 -0.27001 0)
(8.09446 -0.260821 0)
(8.12099 -0.251876 0)
(8.1447 -0.24328 0)
(8.16578 -0.235113 0)
(8.18443 -0.227434 0)
(8.20084 -0.220282 0)
(8.21521 -0.213683 0)
(8.22771 -0.207651 0)
(8.23847 -0.202192 0)
(8.24764 -0.197307 0)
(8.25532 -0.192998 0)
(8.26164 -0.189275 0)
(8.26666 -0.186146 0)
(8.27049 -0.183667 0)
(8.27321 -0.181844 0)
(8.27499 -0.180839 0)
(7.33756 -0.040251 0)
(7.38849 -0.105285 0)
(7.47765 -0.162709 0)
(7.57912 -0.218108 0)
(7.68681 -0.265216 0)
(7.79558 -0.301688 0)
(7.89943 -0.328171 0)
(7.9949 -0.345363 0)
(8.08001 -0.354346 0)
(8.15371 -0.356588 0)
(8.2158 -0.353553 0)
(8.2667 -0.346556 0)
(8.30717 -0.336735 0)
(8.33821 -0.325029 0)
(8.36091 -0.312187 0)
(8.37636 -0.298794 0)
(8.38561 -0.285294 0)
(8.38959 -0.272016 0)
(8.38918 -0.259194 0)
(8.3851 -0.246988 0)
(8.37801 -0.235501 0)
(8.36844 -0.22479 0)
(8.35685 -0.214881 0)
(8.34363 -0.205773 0)
(8.32907 -0.197446 0)
(8.31342 -0.189871 0)
(8.29689 -0.18301 0)
(8.2796 -0.176825 0)
(8.26167 -0.17129 0)
(8.24311 -0.16639 0)
(8.22405 -0.162223 0)
(8.20421 -0.158762 0)
(8.18424 -0.156928 0)
(7.39944 -0.196687 0)
(7.59548 -0.375845 0)
(7.76806 -0.458609 0)
(7.89505 -0.512319 0)
(7.97847 -0.540828 0)
(8.01644 -0.549978 0)
(8.0132 -0.546404 0)
(7.97715 -0.533461 0)
(7.91596 -0.513656 0)
(7.83622 -0.489253 0)
(7.74371 -0.46205 0)
(7.64319 -0.43344 0)
(7.53836 -0.404506 0)
(7.43206 -0.376056 0)
(7.32639 -0.348663 0)
(7.22283 -0.322711 0)
(7.12243 -0.298431 0)
(7.02584 -0.275941 0)
(6.93345 -0.255272 0)
(6.84542 -0.236397 0)
(6.76181 -0.21925 0)
(6.68253 -0.203735 0)
(6.60743 -0.189742 0)
(6.53634 -0.177151 0)
(6.46902 -0.165838 0)
(6.40526 -0.155677 0)
(6.34479 -0.146536 0)
(6.28736 -0.13829 0)
(6.23269 -0.130785 0)
(6.18038 -0.123888 0)
(6.1301 -0.117506 0)
(6.08078 -0.11089 0)
(6.03287 -0.107273 0)
(7.16015 -0.185847 0)
(6.91109 -0.345099 0)
(6.50016 -0.392403 0)
(6.03678 -0.39388 0)
(5.59703 -0.365789 0)
(5.18114 -0.32195 0)
(4.7932 -0.273274 0)
(4.43996 -0.225378 0)
(4.12199 -0.181245 0)
(3.83761 -0.142352 0)
(3.5848 -0.109095 0)
(3.361 -0.0812841 0)
(3.16337 -0.058437 0)
(2.9891 -0.0399335 0)
(2.83553 -0.0251232 0)
(2.70017 -0.0133919 0)
(2.58076 -0.00419192 0)
(2.47527 0.00294788 0)
(2.3819 0.0084226 0)
(2.29904 0.012558 0)
(2.22532 0.0156198 0)
(2.15951 0.0178233 0)
(2.10054 0.0193433 0)
(2.04751 0.020322 0)
(1.99962 0.020881 0)
(1.95619 0.0211257 0)
(1.91664 0.0211725 0)
(1.88056 0.0211412 0)
(1.84744 0.0212475 0)
(1.8174 0.0217985 0)
(1.7896 0.0230896 0)
(1.76587 0.027692 0)
(1.7445 0.0226668 0)
(1.32469 -0.0168507 0)
(1.47242 -0.0299773 0)
(1.46617 -0.0385241 0)
(1.4064 -0.0457535 0)
(1.35775 -0.000821811 0)
(1.4411 0.136966 0)
(1.75314 0.382868 0)
(2.30505 0.69254 0)