/*--------------------------------*- C++ -*----------------------------------*\
  =========                 |
  \\      /  F ield         | OpenFOAM: The Open Source CFD Toolbox
   \\    /   O peration     | Website:  https://openfoam.org
    \\  /    A nd           | Version:  10
     \\/     M anipulation  |
\*---------------------------------------------------------------------------*/
FoamFile
{
    format      ascii;
    class       volScalarField;
    location    "2000";
    object      epsilon;
}
// * * * * * * * * * * * * * * * * * * * * * * * * * * * * * * * * * * * * * //

dimensions      [0 2 -3 0 0 0 0];

internalField   nonuniform List<scalar> 
6820
(
23.348
22.8004
22.2986
21.7956
21.2906
20.7982
20.3323
19.9019
19.5115
19.1625
18.8539
18.5836
18.3489
18.1467
17.9741
17.8282
17.7063
17.6058
17.5246
17.4604
17.4114
17.3761
17.3527
17.34
17.3368
17.3425
17.3543
17.3764
17.4057
17.3281
17.8934
19.6167
17.1752
5.24751
7.40649
8.54818
9.16403
9.5505
9.84209
10.0968
10.3402
10.583
10.8293
11.08
11.3352
11.5943
11.8565
12.1213
12.3879
12.6557
12.9243
13.1932
13.4621
13.7308
13.9994
14.2681
14.5374
14.8084
15.083
15.3637
15.6567
15.9708
16.2617
16.8366
18.9256
9.81291
3.71892
4.27984
4.80505
5.21582
5.52699
5.76876
5.96505
6.13225
6.28119
6.41896
6.55022
6.67806
6.80447
6.93074
7.05767
7.18573
7.31516
7.44607
7.57847
7.71234
7.84766
7.98439
8.1226
8.26241
8.40413
8.54834
8.69585
8.84847
9.00835
9.17912
9.35578
10.0442
9.30219
3.53759
3.62334
3.7716
3.93765
4.09562
4.23626
4.35855
4.4647
4.55771
4.6405
4.71552
4.78478
4.84987
4.91202
4.97219
5.0311
5.0893
5.14719
5.20509
5.26322
5.32177
5.38089
5.44073
5.50144
5.56323
5.62642
5.69143
5.75901
5.83029
5.90852
5.98707
6.15769
6.27225
3.52015
3.50151
3.51115
3.54399
3.59071
3.64323
3.69626
3.74695
3.79409
3.83738
3.87702
3.9134
3.94701
3.97833
4.0078
4.03583
4.06276
4.08887
4.11442
4.1396
4.1646
4.18957
4.21466
4.24
4.26576
4.29213
4.31936
4.34784
4.37813
4.41145
4.44732
4.49629
4.56209
3.51931
3.48209
3.45346
3.43537
3.42736
3.42746
3.43328
3.44269
3.45406
3.46626
3.4786
3.49064
3.50219
3.51314
3.52352
3.53335
3.54271
3.55169
3.56036
3.56882
3.57715
3.58543
3.59375
3.60218
3.61081
3.61977
3.62919
3.63927
3.65029
3.66271
3.67684
3.69383
3.71662
3.51943
3.47964
3.44271
3.40975
3.38151
3.35815
3.33935
3.32446
3.31276
3.30356
3.29625
3.29035
3.28549
3.28138
3.27783
3.2747
3.2719
3.26936
3.26705
3.26495
3.26305
3.26135
3.25988
3.25865
3.25769
3.25705
3.2568
3.25703
3.25788
3.25952
3.2622
3.26614
3.27188
3.51947
3.47942
3.44105
3.40466
3.37057
3.33904
3.3102
3.28404
3.26042
3.23912
3.21989
3.20246
3.18658
3.17204
3.15865
3.14624
3.13469
3.12388
3.11372
3.10415
3.09512
3.08657
3.07849
3.07085
3.06364
3.05686
3.05053
3.04468
3.03937
3.03467
3.03072
3.02759
3.02535
3.51948
3.47941
3.44084
3.40381
3.36834
3.33453
3.30243
3.27208
3.24351
3.21666
3.19148
3.16788
3.14575
3.12497
3.10544
3.08704
3.06968
3.05327
3.03772
3.02297
3.00895
2.9956
2.98289
2.97077
2.95921
2.9482
2.93772
2.92779
2.9184
2.90959
2.90142
2.89393
2.88708
3.51948
3.47941
3.44082
3.40368
3.36795
3.3336
3.30062
3.26901
3.23875
3.20982
3.18221
3.15587
3.13077
3.10685
3.08406
3.06234
3.04163
3.02187
3.00301
2.98498
2.96775
2.95126
2.93548
2.92036
2.90587
2.89199
2.87871
2.866
2.85386
2.84231
2.83135
2.82101
2.81124
3.51948
3.4794
3.44081
3.40365
3.36787
3.33342
3.30025
3.26831
3.23756
3.20798
3.17954
3.15219
3.12591
3.10066
3.07641
3.05313
3.03076
3.00928
2.98864
2.96881
2.94976
2.93144
2.91382
2.89688
2.88058
2.86491
2.84984
2.83536
2.82146
2.80813
2.79538
2.78321
2.77156
3.51948
3.4794
3.4408
3.40364
3.36785
3.33338
3.30016
3.26815
3.23729
3.20753
3.17884
3.15117
3.1245
3.09877
3.07397
3.05005
3.02699
3.00474
2.98329
2.96261
2.94265
2.9234
2.90483
2.88691
2.86962
2.85294
2.83685
2.82134
2.8064
2.79202
2.77818
2.76489
2.7521
3.51948
3.4794
3.4408
3.40363
3.36784
3.33336
3.30013
3.2681
3.23721
3.20741
3.17866
3.15091
3.12411
3.09824
3.07325
3.04911
3.0258
3.00326
2.98149
2.96045
2.94011
2.92045
2.90144
2.88306
2.86529
2.84812
2.83152
2.81548
2.79999
2.78503
2.7706
2.75668
2.74324
3.51948
3.47939
3.44079
3.40362
3.36783
3.33335
3.30012
3.26808
3.23718
3.20737
3.1786
3.15082
3.12399
3.09808
3.07304
3.04884
3.02544
3.00281
2.98092
2.95975
2.93927
2.91945
2.90027
2.88171
2.86374
2.84635
2.82952
2.81323
2.79748
2.78224
2.76751
2.75327
2.73948
3.51947
3.47939
3.44079
3.40362
3.36782
3.33333
3.3001
3.26806
3.23716
3.20734
3.17856
3.15078
3.12394
3.09802
3.07296
3.04874
3.02531
3.00266
2.98074
2.95953
2.939
2.91913
2.89989
2.88125
2.86321
2.84574
2.82882
2.81243
2.79656
2.7812
2.76633
2.75193
2.73797
3.51947
3.47939
3.44078
3.40361
3.36781
3.33332
3.30009
3.26804
3.23714
3.20732
3.17854
3.15075
3.12391
3.09798
3.07292
3.04869
3.02526
3.00259
2.98067
2.95944
2.9389
2.91901
2.89975
2.8811
2.86303
2.84552
2.82857
2.81214
2.79623
2.78081
2.76587
2.75139
2.73734
3.51947
3.47939
3.44078
3.40361
3.36781
3.33332
3.30008
3.26803
3.23712
3.2073
3.17851
3.15072
3.12388
3.09795
3.07288
3.04865
3.02522
3.00255
2.98062
2.95939
2.93885
2.91895
2.89969
2.88102
2.86295
2.84543
2.82846
2.81202
2.79608
2.78063
2.76566
2.75114
2.73705
3.51947
3.47939
3.44078
3.4036
3.3678
3.33331
3.30007
3.26802
3.23711
3.20728
3.17849
3.1507
3.12386
3.09792
3.07285
3.04862
3.02518
3.00252
2.98058
2.95936
2.93881
2.91891
2.89964
2.88098
2.86289
2.84537
2.8284
2.81194
2.79599
2.78052
2.76553
2.75099
2.73687
3.51947
3.47939
3.44078
3.4036
3.3678
3.3333
3.30006
3.26801
3.23709
3.20727
3.17848
3.15068
3.12383
3.0979
3.07283
3.04859
3.02516
3.00249
2.98055
2.95932
2.93877
2.91887
2.8996
2.88093
2.86285
2.84532
2.82834
2.81188
2.79591
2.78044
2.76543
2.75086
2.73673
3.51947
3.47939
3.44078
3.4036
3.36779
3.3333
3.30005
3.268
3.23708
3.20725
3.17846
3.15066
3.12382
3.09788
3.0728
3.04857
3.02513
3.00246
2.98052
2.95929
2.93874
2.91884
2.89957
2.8809
2.86281
2.84528
2.82829
2.81182
2.79585
2.78036
2.76533
2.75076
2.73661
3.51947
3.47939
3.44077
3.4036
3.36779
3.33329
3.30005
3.26799
3.23707
3.20724
3.17845
3.15065
3.1238
3.09786
3.07279
3.04855
3.02511
3.00243
2.9805
2.95926
2.93871
2.91881
2.89953
2.88086
2.86277
2.84523
2.82824
2.81176
2.79578
2.78028
2.76525
2.75066
2.73649
3.51947
3.47939
3.44077
3.40359
3.36779
3.33329
3.30004
3.26798
3.23706
3.20723
3.17844
3.15064
3.12379
3.09784
3.07277
3.04853
3.02509
3.00241
2.98047
2.95924
2.93868
2.91878
2.8995
2.88082
2.86273
2.84519
2.82819
2.8117
2.79572
2.78021
2.76517
2.75057
2.73639
3.51947
3.47938
3.44077
3.40359
3.36778
3.33329
3.30004
3.26798
3.23706
3.20722
3.17843
3.15063
3.12377
3.09783
3.07275
3.04851
3.02507
3.00239
2.98045
2.95922
2.93866
2.91875
2.89947
2.88079
2.86269
2.84515
2.82814
2.81165
2.79566
2.78014
2.76509
2.75048
2.7363
3.51947
3.47938
3.44077
3.40359
3.36778
3.33328
3.30003
3.26797
3.23705
3.20722
3.17842
3.15062
3.12376
3.09782
3.07274
3.0485
3.02505
3.00238
2.98043
2.9592
2.93864
2.91873
2.89944
2.88076
2.86265
2.84511
2.82809
2.8116
2.7956
2.78008
2.76502
2.7504
2.73621
3.51947
3.47938
3.44077
3.40359
3.36778
3.33328
3.30003
3.26797
3.23705
3.20721
3.17842
3.15061
3.12376
3.09781
3.07273
3.04849
3.02504
3.00236
2.98042
2.95918
2.93861
2.9187
2.89942
2.88073
2.86262
2.84507
2.82805
2.81155
2.79554
2.78002
2.76495
2.75032
2.73612
3.51947
3.47938
3.44077
3.40359
3.36778
3.33328
3.30003
3.26797
3.23705
3.20721
3.17841
3.15061
3.12375
3.0978
3.07272
3.04848
3.02503
3.00235
2.9804
2.95916
2.9386
2.91868
2.89939
2.8807
2.86259
2.84503
2.82801
2.81151
2.79549
2.77996
2.76489
2.75026
2.73605
3.51947
3.47938
3.44077
3.40359
3.36778
3.33328
3.30003
3.26797
3.23704
3.20721
3.17841
3.1506
3.12374
3.0978
3.07272
3.04847
3.02502
3.00234
2.98039
2.95915
2.93858
2.91866
2.89937
2.88068
2.86256
2.845
2.82798
2.81146
2.79545
2.77991
2.76483
2.75019
2.73598
3.51947
3.47938
3.44077
3.40359
3.36778
3.33328
3.30003
3.26796
3.23704
3.20721
3.17841
3.1506
3.12374
3.09779
3.07271
3.04847
3.02502
3.00233
2.98038
2.95914
2.93857
2.91865
2.89935
2.88066
2.86254
2.84497
2.82794
2.81143
2.79541
2.77986
2.76478
2.75014
2.73592
3.51947
3.47938
3.44077
3.40359
3.36778
3.33328
3.30002
3.26796
3.23704
3.2072
3.17841
3.1506
3.12374
3.09779
3.07271
3.04846
3.02501
3.00233
2.98038
2.95913
2.93856
2.91864
2.89934
2.88064
2.86252
2.84495
2.82792
2.8114
2.79537
2.77982
2.76473
2.75009
2.73586
3.51947
3.47938
3.44077
3.40359
3.36778
3.33328
3.30002
3.26796
3.23704
3.2072
3.17841
3.1506
3.12374
3.09779
3.07271
3.04846
3.02501
3.00233
2.98037
2.95912
2.93855
2.91863
2.89933
2.88063
2.8625
2.84493
2.8279
2.81137
2.79535
2.77979
2.7647
2.75005
2.73582
3.51947
3.47938
3.44077
3.40359
3.36778
3.33328
3.30002
3.26796
3.23704
3.20721
3.17841
3.1506
3.12374
3.09779
3.07271
3.04846
3.02501
3.00232
2.98037
2.95912
2.93855
2.91863
2.89932
2.88062
2.8625
2.84493
2.82789
2.81136
2.79534
2.77978
2.76469
2.75004
2.73581
3.51947
3.47938
3.44077
3.40359
3.36778
3.33328
3.30003
3.26797
3.23704
3.20721
3.17841
3.15061
3.12375
3.0978
3.07272
3.04848
3.02503
3.00235
2.9804
2.95915
2.93858
2.91866
2.89937
2.88067
2.86255
2.84499
2.82796
2.81144
2.79542
2.77988
2.76479
2.75015
2.73594
3.51947
3.47938
3.44077
3.40359
3.36778
3.33328
3.30003
3.26797
3.23705
3.20722
3.17842
3.15062
3.12377
3.09783
3.07277
3.04853
3.0251
3.00244
2.98051
2.95929
2.93875
2.91886
2.8996
2.88094
2.86287
2.84535
2.82837
2.8119
2.79594
2.78045
2.76543
2.75085
2.7367
3.51947
3.47938
3.44077
3.40359
3.36778
3.33329
3.30005
3.26801
3.23712
3.20732
3.17857
3.15083
3.12404
3.09817
3.07319
3.04906
3.02573
3.00319
2.9814
2.96033
2.93995
2.92023
2.90116
2.8827
2.86483
2.84753
2.83078
2.81456
2.79884
2.78361
2.76885
2.75455
2.74067
3.51947
3.47938
3.44077
3.40361
3.36785
3.33343
3.30029
3.26839
3.23768
3.20812
3.17965
3.15224
3.12585
3.10044
3.07597
3.05239
3.02968
3.0078
2.98672
2.9664
2.94681
2.92792
2.9097
2.89212
2.87516
2.85878
2.84297
2.82771
2.81295
2.7987
2.78492
2.7716
2.75871
3.51947
3.47942
3.44096
3.40413
3.36894
3.33534
3.30328
3.2727
3.24355
3.21578
3.18932
3.16412
3.14013
3.11727
3.09551
3.07478
3.05502
3.03618
3.01821
3.00105
2.98467
2.96902
2.95404
2.93971
2.92599
2.91283
2.90021
2.88809
2.87645
2.86526
2.8545
2.84413
2.83414
3.5195
3.48076
3.44538
3.41321
3.38398
3.3575
3.33358
3.31206
3.29274
3.27544
3.25996
3.24612
3.23376
3.2227
3.2128
3.20393
3.19596
3.18878
3.18229
3.17641
3.17106
3.16617
3.16168
3.15754
3.1537
3.15012
3.14677
3.14361
3.14061
3.13776
3.13502
3.1324
3.12986
3.52508
3.51485
3.52108
3.53663
3.5586
3.58544
3.6161
3.64966
3.68531
3.72238
3.76029
3.79863
3.83703
3.8752
3.91293
3.95004
3.9864
4.02192
4.05651
4.09013
4.12274
4.15432
4.18487
4.21437
4.24285
4.27031
4.29676
4.32223
4.34674
4.37033
4.393
4.41479
4.43574
3.842
4.3878
4.87741
5.34234
5.79418
6.23448
6.66126
7.07319
7.47026
7.85307
8.22235
8.57887
8.92338
9.25659
9.57912
9.89153
10.1943
10.4879
10.7727
11.049
11.3171
11.5774
11.8301
12.0754
12.3136
12.5449
12.7695
12.9877
13.1996
13.4054
13.6053
13.7996
13.9885
30.2673
32.7691
35.3053
37.8487
40.3862
42.91
45.413
47.8885
50.3297
52.7306
55.0861
57.3914
59.6426
61.8364
63.9702
66.0416
68.0493
69.992
71.8691
73.6803
75.4258
77.1058
78.7212
80.2727
81.7614
83.1888
84.556
85.8648
87.1166
88.3132
89.4563
90.5475
91.5897
410.02
919.939
909.054
756.446
679.401
678.551
701.806
711.489
700.895
678.444
652.337
626.434
601.438
576.744
551.626
525.681
498.844
471.318
443.551
416.212
390.126
366.153
345.053
327.364
313.305
302.723
295.086
289.566
285.2
281.073
276.455
270.834
263.887
255.433
245.429
234.004
221.508
208.539
195.912
184.571
175.427
169.156
165.966
165.479
166.806
168.806
170.407
170.811
169.564
166.516
161.734
155.428
147.894
139.472
130.532
121.44
112.537
104.105
96.3332
89.307
83.0005
77.2995
72.0356
67.0254
62.1041
57.1487
52.0878
46.9034
41.6257
36.3251
31.104
26.088
21.4266
17.2826
13.6885
10.3909
7.79563
8.38653
13.648
21.8098
30.4443
38.1056
44.2771
48.9367
52.256
54.4568
55.7527
56.331
56.3478
55.9289
55.1715
54.1416
52.8919
51.4644
49.8905
48.1844
46.3693
44.3888
42.4962
39.0792
36.0044
188.75
308.166
332.518
318.637
309.201
316.472
338.5
366.713
393.002
413.471
427.336
434.712
435.644
430.22
418.913
402.69
382.909
361.111
338.833
317.461
298.135
281.702
268.684
259.26
253.234
250.036
248.763
248.322
247.622
245.741
242.03
236.121
227.901
217.491
205.242
191.736
177.757
164.231
152.138
142.395
135.701
132.35
132.064
134.008
137.003
139.855
141.614
141.691
139.842
136.091
130.645
123.821
116
107.589
98.9906
90.5724
82.6352
75.3873
68.927
63.2427
58.2309
53.7296
49.5576
45.5496
41.5802
37.5765
33.5189
29.4361
25.3949
21.488
17.8233
14.5174
11.6795
9.31065
7.18659
5.56955
6.56048
11.6251
19.3569
27.6115
35.0479
41.1535
45.8732
49.3391
51.7375
53.2545
54.0563
54.2843
54.0536
53.4533
52.5451
51.381
50.0044
48.4493
46.7342
44.8873
42.8562
40.9165
37.3983
4.70511
22.1893
60.7586
88.9701
100.681
102.422
101.518
103.163
110.689
125.34
145.977
169.703
192.994
212.691
226.604
233.792
234.531
229.996
221.84
211.801
201.445
192.028
184.471
179.372
177.024
177.392
180.073
184.291
188.98
192.966
195.188
194.86
191.55
185.19
176.04
164.644
151.78
138.371
125.396
113.794
104.391
97.838
94.4996
94.2956
96.6081
100.382
104.407
107.617
109.276
109.015
106.776
102.73
97.1897
90.5512
83.241
75.679
68.2445
61.2474
54.9051
49.329
44.5251
40.4102
36.8409
33.6504
30.6822
27.8145
24.9734
22.1343
19.3165
16.5718
13.9698
11.5854
9.49042
7.74441
6.33815
5.08917
4.08878
4.99398
9.36428
16.3029
23.9698
31.0849
37.0941
41.879
45.5149
48.1435
49.9175
50.9796
51.4547
51.447
51.0381
50.2857
49.2418
47.9516
46.4526
44.7686
42.9329
40.9011
38.9612
35.441
5.29797
5.60534
10.6316
17.4201
22.7023
25.688
26.779
27.0074
27.5659
29.5481
33.7789
40.573
49.5145
59.4272
68.8898
76.7
82.1391
85.1077
86.0171
85.5687
84.5455
83.6761
83.5776
84.7497
87.5726
92.2626
98.7696
106.667
115.127
123.039
129.244
132.782
133.066
129.957
123.743
115.062
104.791
93.9036
83.3315
73.8702
66.1418
60.6156
57.6222
57.28
59.3465
63.1388
67.6566
71.8531
74.8856
76.2402
75.7333
73.4473
69.6466
64.7025
59.0306
53.0425
47.107
41.5217
36.4936
32.1328
28.456
25.4023
22.8576
20.6841
18.7483
16.9428
15.1981
13.4845
11.807
10.1951
8.68956
7.33097
6.15423
5.18794
4.43033
3.75892
3.1415
3.74311
7.13835
13
19.8594
26.5077
32.333
37.1356
40.9207
43.7764
45.8165
47.1559
47.9007
48.1429
47.9559
47.3937
46.5074
45.3437
43.9439
42.337
40.5616
38.5826
36.692
33.2624
4.50629
4.36893
4.75075
5.70984
6.82058
7.74927
8.36836
8.69612
8.88425
9.15488
9.73105
10.7786
12.3597
14.4426
16.7981
19.0905
21.0582
22.5615
23.5985
24.282
24.7957
25.3559
26.1889
27.5293
29.6299
32.7635
37.174
42.9486
49.8481
57.2147
64.0647
69.3484
72.2473
72.3748
69.8285
65.1119
58.9768
52.2409
45.6339
39.7077
34.8248
31.2122
29.0425
28.4753
29.5882
32.221
35.8782
39.8143
43.2517
45.5856
46.484
45.8857
43.9421
40.9418
37.2391
33.195
29.1312
25.301
21.8743
18.9386
16.5085
14.5429
12.964
11.6767
10.5867
9.61483
8.70559
7.82962
6.98057
6.16851
5.41137
4.72734
4.13189
3.64032
3.26148
2.93189
2.56308
2.84373
5.18862
9.79259
15.6372
21.6405
27.1468
31.8714
35.7418
38.7857
41.072
42.6837
43.7046
44.2121
44.2707
43.929
43.2363
42.2398
40.9834
39.5012
37.8357
35.9623
34.1693
30.9102
3.73752
3.73589
3.76812
3.88574
4.06646
4.26017
4.42898
4.55212
4.6345
4.70725
4.81565
5.0015
5.29527
5.71212
6.21675
6.74735
7.24475
7.66788
8.00183
8.258
8.46861
8.67985
8.9472
9.33459
9.91867
10.798
12.1002
13.9665
16.4897
19.6094
23.0272
26.2298
28.6408
29.8246
29.6296
28.2061
25.9146
23.1886
20.4171
17.8812
15.7475
14.0986
12.9851
12.4764
12.6806
13.6937
15.4861
17.8162
20.2587
22.3398
23.6847
24.1016
23.5889
22.2922
20.4413
18.2897
16.0672
13.951
12.0555
10.4366
9.1038
8.03529
7.19031
6.51941
5.9724
5.5049
5.0829
4.685
4.30186
3.93373
3.58649
3.26766
2.98456
2.74638
2.56529
2.41852
2.21776
2.27543
3.67845
6.98032
11.6529
16.8262
21.8459
26.3568
30.2091
33.3665
35.8491
37.7034
38.9873
39.7608
40.0771
39.978
39.5088
38.7158
37.6438
36.3306
34.8216
33.1018
31.45
28.4268
3.28158
3.29168
3.30089
3.31524
3.33796
3.36699
3.3975
3.42451
3.44537
3.46298
3.48556
3.52375
3.58801
3.68418
3.80775
3.946
4.08391
4.20901
4.31445
4.39998
4.47136
4.53904
4.61676
4.72077
4.86984
5.08681
5.40139
5.85135
6.4751
7.28971
8.25894
9.273
10.1654
10.769
10.9802
10.7923
10.2837
9.57639
8.79297
8.02983
7.34943
6.78615
6.35903
6.08839
6.01209
6.18918
6.67518
7.47211
8.48697
9.53786
10.4118
10.9385
11.0378
10.7266
10.0927
9.25637
8.3362
7.42657
6.58983
5.85847
5.24239
4.73685
4.32871
4.00054
3.7334
3.50902
3.31181
3.13028
2.95774
2.79201
2.6342
2.4871
2.35413
2.24046
2.15561
2.09709
2.00526
1.96404
2.6597
4.77071
8.20995
12.3988
16.7561
20.891
24.5894
27.7533
30.3522
32.3931
33.9047
34.9263
35.4972
35.65
35.4238
34.8616
34.0072
32.9003
31.5872
30.0612
28.5872
25.8514
3.02475
3.02565
3.02583
3.02393
3.0205
3.01684
3.01368
3.01103
3.00841
3.00588
3.00472
3.00739
3.01698
3.03569
3.06337
3.09734
3.13358
3.1681
3.19812
3.22269
3.24285
3.26131
3.28214
3.31032
3.35146
3.41172
3.49823
3.61935
3.78371
3.99615
4.25109
4.52683
4.78663
4.98863
5.1003
5.10903
5.02357
4.86744
4.66954
4.45657
4.24922
4.06163
3.90295
3.78052
3.70455
3.69217
3.76616
3.94413
4.22186
4.56224
4.9006
5.16565
5.3042
5.29607
5.15376
4.91131
4.60994
4.287
3.97029
3.67721
3.41649
3.19078
2.9989
2.8373
2.70111
2.58475
2.48274
2.39038
2.30432
2.2229
2.14599
2.07447
2.00986
1.95484
1.91516
1.89462
1.86393
1.81205
2.07391
3.23926
5.51624
8.64261
12.1879
15.7805
19.1698
22.2075
24.8157
26.9614
28.6417
29.8722
30.6757
31.0733
31.0952
30.7784
30.1634
29.2892
28.2017
26.8999
25.6309
23.2207
2.88035
2.87382
2.86724
2.8593
2.84958
2.83861
2.82717
2.81591
2.80514
2.79496
2.78558
2.77748
2.77139
2.76794
2.7673
2.76892
2.77174
2.77452
2.77622
2.77634
2.77503
2.77308
2.77189
2.77326
2.77928
2.79212
2.814
2.84718
2.89368
2.95447
3.02796
3.10873
3.18753
3.25327
3.29617
3.31061
3.29617
3.25682
3.19909
3.13016
3.05655
2.98354
2.91511
2.85442
2.8048
2.77109
2.76028
2.77981
2.83326
2.91574
3.01245
3.10231
3.16486
3.18665
3.16411
3.10235
3.01156
2.90321
2.78747
2.67197
2.5617
2.45951
2.36673
2.28358
2.20958
2.14371
2.08463
2.03097
1.98156
1.93573
1.89335
1.85476
1.82068
1.79259
1.77357
1.7673
1.76342
1.73493
1.79343
2.32259
3.64086
5.74324
8.3954
11.3076
14.2346
17.0007
19.4912
21.6372
23.4041
24.7825
25.7762
26.3923
26.6497
26.577
26.2087
25.5805
24.7357
23.677
22.6299
20.5703
2.80075
2.78953
2.77843
2.76669
2.75392
2.74022
2.72599
2.71166
2.6976
2.68401
2.67099
2.65863
2.64705
2.63632
2.62644
2.61724
2.60839
2.59947
2.59012
2.58012
2.5695
2.55851
2.5477
2.53782
2.52977
2.52452
2.52302
2.52611
2.53444
2.54821
2.56689
2.58882
2.61125
2.63074
2.644
2.6486
2.64351
2.62898
2.60627
2.57718
2.54363
2.50748
2.47038
2.43378
2.39916
2.36825
2.34343
2.32752
2.3228
2.32956
2.34508
2.36393
2.37951
2.3861
2.38029
2.36143
2.33099
2.29166
2.2464
2.19788
2.14818
2.09883
2.0509
2.00509
1.96184
1.92137
1.88373
1.84884
1.81656
1.78688
1.75992
1.73595
1.71543
1.69929
1.68924
1.68737
1.69101
1.6833
1.68
1.86081
2.50298
3.74385
5.52785
7.688
10.0318
12.3895
14.6291
16.6562
18.4092
19.8539
20.9747
21.763
22.2245
22.3768
22.2458
21.8616
21.2627
20.4533
19.6338
17.9361
2.75872
2.7446
2.7306
2.71633
2.70153
2.68616
2.67041
2.65452
2.63875
2.62328
2.60822
2.5936
2.57944
2.56568
2.55224
2.53898
2.52575
2.51235
2.49862
2.48446
2.46986
2.45493
2.4399
2.42513
2.41105
2.39819
2.38706
2.37812
2.37173
2.36803
2.36687
2.36771
2.3696
2.37133
2.37158
2.36921
2.36339
2.35369
2.34004
2.32268
2.30201
2.27859
2.25308
2.22619
2.19872
2.17158
2.14585
2.1228
2.10365
2.08917
2.07928
2.07286
2.06803
2.0627
2.05513
2.04423
2.0296
2.01142
1.99016
1.96643
1.94084
1.91395
1.8863
1.85837
1.83062
1.80344
1.77721
1.75224
1.72878
1.70708
1.68745
1.67017
1.65563
1.64449
1.63781
1.63652
1.63982
1.64048
1.63181
1.66891
1.91539
2.53663
3.58943
5.02435
6.73134
8.58123
10.4521
12.2414
13.8705
15.2858
16.4531
17.3487
17.9638
18.3034
18.3831
18.2247
17.8602
17.2931
16.6955
15.3567
2.73784
2.72196
2.70618
2.69028
2.6741
2.6576
2.64084
2.62398
2.60717
2.59054
2.5742
2.55818
2.54249
2.52707
2.51185
2.49672
2.48153
2.46619
2.45057
2.43462
2.4183
2.40167
2.38483
2.36797
2.35133
2.33523
2.31999
2.30595
2.29337
2.28244
2.27318
2.26543
2.25884
2.2529
2.24698
2.24043
2.23263
2.22307
2.21139
2.19735
2.18087
2.16203
2.14107
2.11834
2.09436
2.06972
2.04512
2.02133
1.99912
1.97913
1.96172
1.94688
1.9342
1.92298
1.91246
1.90191
1.89073
1.87853
1.86506
1.85022
1.83399
1.81649
1.79788
1.77841
1.7584
1.73819
1.71815
1.69862
1.67995
1.66246
1.6465
1.63237
1.62042
1.61112
1.60517
1.60298
1.60389
1.60489
1.60019
1.59816
1.66304
1.91191
2.43982
3.27395
4.38163
5.69274
7.12007
8.57483
9.97732
11.2638
12.3873
13.3114
14.0137
14.4864
14.7335
14.7671
14.6105
14.265
13.8725
12.8749
2.72816
2.71127
2.69444
2.67756
2.66052
2.64329
2.6259
2.60843
2.59098
2.57364
2.55649
2.53958
2.52291
2.50646
2.49016
2.47393
2.45768
2.4413
2.42473
2.40789
2.39076
2.37335
2.35573
2.33799
2.3203
2.30285
2.28588
2.26964
2.25436
2.24024
2.22738
2.21576
2.20526
2.19562
2.18646
2.17735
2.16781
2.15738
2.14565
2.13228
2.11707
2.09991
2.08086
2.06012
2.03803
2.01504
1.99168
1.96854
1.94619
1.92516
1.90585
1.88847
1.87302
1.8593
1.84695
1.83554
1.82459
1.81366
1.80236
1.7904
1.77758
1.76379
1.74906
1.73348
1.71726
1.70063
1.68389
1.66735
1.65132
1.63611
1.62204
1.60939
1.59845
1.58959
1.58325
1.5796
1.57798
1.57668
1.57284
1.56528
1.57009
1.64057
1.85289
2.26397
2.89065
3.71426
4.69108
5.76249
6.86457
7.93728
8.92995
9.79936
10.5133
11.0527
11.4103
11.588
11.5995
11.4425
11.2274
10.5388
2.72397
2.70653
2.68912
2.67168
2.65415
2.6365
2.61875
2.60093
2.58311
2.56537
2.54775
2.53029
2.51301
2.4959
2.47891
2.46199
2.44506
2.42805
2.4109
2.39356
2.37599
2.3582
2.34022
2.32212
2.304
2.28601
2.26832
2.25113
2.23464
2.21903
2.20442
2.19086
2.17831
2.16661
2.15552
2.14471
2.1338
2.12238
2.11009
2.0966
2.08165
2.06512
2.04698
2.02735
2.00647
1.98468
1.96242
1.94016
1.91839
1.89756
1.87803
1.86004
1.84369
1.82893
1.81559
1.80338
1.79193
1.78089
1.76988
1.75859
1.74678
1.73431
1.72112
1.70724
1.6928
1.67796
1.66295
1.64802
1.63343
1.61944
1.60631
1.5943
1.58365
1.57461
1.56746
1.56223
1.55834
1.55453
1.54927
1.54119
1.53256
1.53938
1.59933
1.76062
2.05938
2.50826
3.09777
3.80111
4.5795
5.38859
6.18482
6.92678
7.57888
8.1149
8.51884
8.78346
8.9128
8.90045
8.82632
8.40113
2.72223
2.70451
2.6868
2.66906
2.65127
2.6334
2.61545
2.59746
2.57947
2.56151
2.54363
2.52586
2.50822
2.4907
2.47328
2.45591
2.43854
2.42113
2.40362
2.38597
2.36815
2.35016
2.33202
2.31378
2.2955
2.27731
2.25934
2.24174
2.22467
2.2083
2.19275
2.17808
2.16428
2.15127
2.13886
2.12679
2.11477
2.10246
2.08952
2.07567
2.06068
2.04439
2.02676
2.00786
1.98786
1.96703
1.94572
1.92433
1.90328
1.88295
1.86366
1.84565
1.82903
1.81381
1.79988
1.78704
1.77501
1.76348
1.75216
1.74076
1.72906
1.71691
1.70423
1.69103
1.67738
1.6634
1.64927
1.63518
1.62134
1.60797
1.59528
1.58348
1.57275
1.56328
1.55521
1.5485
1.54264
1.53667
1.52955
1.52048
1.50945
1.49984
1.50405
1.54663
1.65784
1.86159
2.16803
2.57303
3.06043
3.60534
4.17826
4.74737
5.28117
5.75259
6.14132
6.43383
6.6263
6.70874
6.73316
6.51497
2.72149
2.70362
2.68576
2.66787
2.64995
2.63197
2.61394
2.59587
2.57779
2.55973
2.54173
2.5238
2.50595
2.48819
2.4705
2.45285
2.43521
2.41754
2.39981
2.38197
2.36401
2.34592
2.32772
2.30943
2.29113
2.27288
2.25481
2.23703
2.21967
2.20288
2.18675
2.17136
2.15671
2.14274
2.12933
2.11628
2.10333
2.09023
2.07668
2.06243
2.04728
2.03108
2.01378
1.99541
1.9761
1.95607
1.93559
1.915
1.89465
1.87486
1.85593
1.83806
1.82137
1.80589
1.79155
1.77819
1.7656
1.75354
1.74174
1.72998
1.71806
1.70583
1.69322
1.68023
1.66689
1.6533
1.63959
1.62592
1.61245
1.59937
1.58683
1.57501
1.56403
1.55403
1.54507
1.53704
1.52952
1.52176
1.51297
1.50265
1.49064
1.47756
1.46646
1.46577
1.49069
1.56008
1.68991
1.88828
2.15399
2.47764
2.84373
3.23275
3.62223
3.98999
4.31661
4.58662
4.79148
4.9192
4.99892
4.92596
2.72114
2.70319
2.68524
2.66727
2.64927
2.63124
2.61317
2.59507
2.57697
2.55887
2.5408
2.52278
2.50482
2.48692
2.46907
2.45125
2.43344
2.41561
2.39773
2.37978
2.36175
2.34362
2.32541
2.30714
2.28885
2.27062
2.25253
2.23468
2.21717
2.20011
2.1836
2.16769
2.15241
2.13771
2.1235
2.10964
2.09591
2.08211
2.068
2.05336
2.03802
2.02184
2.00477
1.98681
1.96806
1.94869
1.92893
1.90904
1.88932
1.87005
1.85147
1.83378
1.81708
1.80143
1.78676
1.77297
1.75988
1.7473
1.73502
1.72283
1.71057
1.69812
1.6854
1.6724
1.65914
1.6457
1.63217
1.61869
1.60538
1.59239
1.57985
1.56788
1.55658
1.54603
1.53624
1.52708
1.51817
1.50893
1.49877
1.48729
1.47441
1.46029
1.44566
1.43277
1.42691
1.43716
1.47502
1.55101
1.67134
1.83639
2.041
2.2757
2.52756
2.78169
3.02323
3.23862
3.41821
3.55031
3.64769
3.66049
2.72092
2.70292
2.68492
2.6669
2.64887
2.6308
2.61271
2.5946
2.57648
2.55837
2.54027
2.5222
2.50417
2.48618
2.46823
2.45031
2.43239
2.41446
2.39649
2.37848
2.36041
2.34227
2.32407
2.30584
2.2876
2.26941
2.25134
2.23346
2.21586
2.19863
2.18184
2.16555
2.14978
2.1345
2.11965
2.1051
2.09072
2.07632
2.06171
2.04671
2.03117
2.01496
1.99804
1.9804
1.96211
1.94329
1.92413
1.90484
1.88568
1.86687
1.84862
1.83111
1.81443
1.79864
1.78371
1.76954
1.75602
1.74297
1.73022
1.71761
1.705
1.69228
1.67937
1.66626
1.65297
1.63955
1.62608
1.61265
1.59938
1.58637
1.57373
1.56156
1.54992
1.53884
1.5283
1.51816
1.5081
1.49765
1.48635
1.47392
1.46026
1.4455
1.42989
1.41404
1.39944
1.38923
1.38866
1.40454
1.44355
1.51023
1.60564
1.72723
1.86933
2.02373
2.18093
2.33115
2.46624
2.57658
2.66529
2.71504
2.72075
2.70272
2.68469
2.66664
2.64857
2.63049
2.61238
2.59426
2.57613
2.558
2.53989
2.52179
2.50372
2.48567
2.46765
2.44965
2.43166
2.41366
2.39565
2.37759
2.3595
2.34137
2.32319
2.305
2.28681
2.26867
2.25062
2.23274
2.21509
2.19773
2.18074
2.16415
2.14799
2.13225
2.11687
2.10177
2.08684
2.07192
2.05687
2.04154
2.0258
2.00955
1.99273
1.97533
1.95739
1.93902
1.92036
1.90159
1.8829
1.86449
1.84654
1.8292
1.81256
1.79667
1.78151
1.76704
1.75313
1.73966
1.7265
1.7135
1.70054
1.68753
1.67441
1.66116
1.64778
1.63431
1.62081
1.60737
1.59406
1.58098
1.5682
1.55578
1.54379
1.53221
1.52101
1.51003
1.499
1.48756
1.47534
1.46211
1.44782
1.43255
1.41646
1.39979
1.383
1.36699
1.35358
1.3457
1.34724
1.36226
1.39385
1.44317
1.50925
1.58886
1.67708
1.76796
1.8558
1.93372
2.00051
2.05434
2.72061
2.70256
2.68449
2.66642
2.64833
2.63022
2.6121
2.59397
2.57583
2.55769
2.53956
2.52144
2.50334
2.48525
2.46718
2.44913
2.43109
2.41304
2.39498
2.37691
2.3588
2.34067
2.32252
2.30436
2.28621
2.26811
2.25009
2.23221
2.21452
2.19707
2.17992
2.1631
2.14664
2.13052
2.11471
2.09916
2.08376
2.06841
2.05298
2.03736
2.02143
2.00512
1.98835
1.97113
1.95348
1.93547
1.91722
1.89887
1.88058
1.86252
1.84483
1.82764
1.81104
1.79508
1.77975
1.765
1.75077
1.73695
1.72341
1.71006
1.69678
1.6835
1.67016
1.65674
1.64323
1.62968
1.61611
1.60261
1.58922
1.57602
1.56307
1.55041
1.53807
1.52603
1.51423
1.50254
1.49071
1.47844
1.46546
1.45159
1.43678
1.42109
1.40466
1.38765
1.37025
1.35276
1.33575
1.3202
1.30772
1.30045
1.30074
1.31051
1.33081
1.36138
1.40062
1.44569
1.49335
1.53925
1.58122
1.62188
2.72048
2.70241
2.68432
2.66623
2.64812
2.62999
2.61186
2.59372
2.57557
2.55741
2.53926
2.52112
2.50299
2.48487
2.46677
2.44868
2.43059
2.41251
2.39442
2.37632
2.35821
2.34008
2.32194
2.30381
2.28569
2.26762
2.24962
2.23174
2.21402
2.1965
2.17922
2.16222
2.1455
2.12908
2.11293
2.097
2.08121
2.0655
2.04975
2.03387
2.01777
2.00137
1.98464
1.96754
1.95011
1.93239
1.91448
1.89648
1.87852
1.86075
1.84329
1.82624
1.80969
1.79367
1.77819
1.76323
1.74872
1.73459
1.72073
1.70706
1.69349
1.67995
1.6664
1.6528
1.63916
1.6255
1.61184
1.59824
1.58475
1.57141
1.55828
1.54537
1.5327
1.52024
1.50791
1.4956
1.48309
1.47014
1.45654
1.44214
1.4269
1.41089
1.3942
1.37697
1.35933
1.34144
1.32349
1.30582
1.28897
1.27379
1.26142
1.25314
1.25008
1.253
1.26198
1.27626
1.29453
1.31447
1.3347
1.35639
2.72036
2.70227
2.68417
2.66605
2.64793
2.62979
2.61164
2.59348
2.57532
2.55715
2.53899
2.52082
2.50267
2.48452
2.46639
2.44826
2.43014
2.41203
2.39391
2.3758
2.35767
2.33955
2.32142
2.3033
2.2852
2.26715
2.24917
2.23128
2.21353
2.19594
2.17856
2.1614
2.14449
2.12782
2.11139
2.09514
2.07904
2.06302
2.04699
2.03089
2.01463
1.99816
1.98143
1.96442
1.94715
1.92966
1.91201
1.8943
1.87662
1.8591
1.84183
1.8249
1.80839
1.79234
1.77675
1.76161
1.74687
1.73247
1.71833
1.70438
1.69055
1.67678
1.66302
1.64925
1.63547
1.62168
1.60792
1.59421
1.58059
1.56711
1.55378
1.54063
1.52765
1.5148
1.50201
1.48916
1.47608
1.46257
1.44845
1.43362
1.41804
1.40176
1.38487
1.36748
1.34972
1.33168
1.31349
1.29528
1.27724
1.25967
1.24301
1.22786
1.21487
1.20469
1.19779
1.19429
1.19402
1.19595
1.20011
1.20386
2.72026
2.70215
2.68403
2.6659
2.64776
2.6296
2.61144
2.59327
2.57509
2.55691
2.53872
2.52054
2.50237
2.4842
2.46603
2.44788
2.42973
2.41159
2.39345
2.37532
2.35718
2.33905
2.32093
2.30282
2.28473
2.26669
2.24871
2.23081
2.21303
2.19539
2.17792
2.16063
2.14356
2.12669
2.11002
2.09352
2.07715
2.06087
2.04461
2.02831
2.01191
1.99536
1.97862
1.96167
1.94452
1.92721
1.90977
1.89229
1.87484
1.85752
1.84041
1.82359
1.80712
1.79104
1.77536
1.76007
1.74514
1.73052
1.71614
1.70195
1.68789
1.6739
1.65995
1.64602
1.63209
1.61818
1.6043
1.59047
1.57672
1.56309
1.54957
1.53618
1.52291
1.50971
1.49651
1.48321
1.46964
1.45566
1.44112
1.42593
1.41007
1.39358
1.37655
1.35905
1.34121
1.32311
1.30485
1.2865
1.26817
1.24997
1.23207
1.2147
1.19814
1.18274
1.16884
1.15668
1.14649
1.13779
1.13184
1.12204
2.72016
2.70204
2.6839
2.66576
2.6476
2.62943
2.61125
2.59307
2.57487
2.55668
2.53848
2.52028
2.50208
2.48389
2.46571
2.44753
2.42935
2.41119
2.39303
2.37487
2.35673
2.33859
2.32046
2.30235
2.28427
2.26623
2.24824
2.23033
2.21252
2.19483
2.17728
2.15989
2.14268
2.12564
2.10878
2.09207
2.07548
2.05898
2.04252
2.02605
2.00952
1.99289
1.97613
1.95922
1.94216
1.92498
1.90771
1.89041
1.87315
1.85599
1.83902
1.82229
1.80587
1.78977
1.77402
1.75861
1.74351
1.7287
1.71412
1.69972
1.68545
1.67127
1.65715
1.64306
1.62899
1.61496
1.60096
1.58701
1.57313
1.55934
1.54565
1.53204
1.51851
1.505
1.49144
1.47774
1.46377
1.4494
1.43451
1.41904
1.40296
1.38631
1.36916
1.3516
1.33371
1.31559
1.29731
1.27894
1.26055
1.24222
1.22401
1.20601
1.18836
1.17118
1.15465
1.13892
1.12424