/*--------------------------------*- C++ -*----------------------------------*\
  =========                 |
  \\      /  F ield         | OpenFOAM: The Open Source CFD Toolbox
   \\    /   O peration     | Website:  https://openfoam.org
    \\  /    A nd           | Version:  10
     \\/     M anipulation  |
\*---------------------------------------------------------------------------*/
FoamFile
{
    format      ascii;
    class       volScalarField;
    location    "2000";
    object      k;
}
// * * * * * * * * * * * * * * * * * * * * * * * * * * * * * * * * * * * * * //

dimensions      [0 2 -2 0 0 0 0];

internalField   nonuniform List<scalar> 
6820
(
0.19714
0.192517
0.18828
0.184033
0.179769
0.175612
0.171677
0.168043
0.164748
0.161801
0.159196
0.156914
0.154932
0.153226
0.151769
0.150538
0.14951
0.148663
0.147978
0.147437
0.147026
0.146729
0.146534
0.14643
0.146406
0.146458
0.146566
0.14674
0.147127
0.146358
0.145743
0.153871
0.0555106
0.20725
0.212378
0.210058
0.205419
0.200997
0.197555
0.195149
0.193624
0.192795
0.192495
0.192598
0.193004
0.193642
0.194456
0.195406
0.19646
0.197594
0.198789
0.200031
0.201308
0.202613
0.203941
0.205287
0.206654
0.208044
0.20947
0.210946
0.212509
0.21426
0.215994
0.216915
0.236144
0.189368
0.200993
0.203847
0.20455
0.203317
0.201177
0.198803
0.196518
0.194453
0.192651
0.191118
0.18984
0.188799
0.187973
0.187339
0.186876
0.186566
0.186389
0.18633
0.186375
0.186511
0.186728
0.187017
0.187371
0.187784
0.188252
0.188776
0.189358
0.190008
0.190742
0.191653
0.192045
0.198136
0.195189
0.199593
0.199508
0.199518
0.199121
0.198258
0.197061
0.195675
0.194213
0.192747
0.191324
0.189973
0.188708
0.187537
0.186465
0.185489
0.184608
0.183818
0.183114
0.182492
0.181945
0.18147
0.181061
0.180715
0.180429
0.1802
0.180028
0.179914
0.179864
0.179888
0.180043
0.180148
0.181292
0.182457
0.199411
0.198475
0.197748
0.197076
0.196333
0.195471
0.194494
0.193431
0.192314
0.191173
0.190029
0.188901
0.187802
0.186739
0.185718
0.184745
0.18382
0.182944
0.182119
0.181342
0.180614
0.179933
0.179297
0.178707
0.178161
0.177659
0.177202
0.176794
0.176442
0.176166
0.175941
0.175904
0.176207
0.199395
0.198255
0.197227
0.19629
0.195403
0.194525
0.193631
0.19271
0.191764
0.190799
0.189824
0.188846
0.187875
0.186915
0.185973
0.185053
0.184157
0.183289
0.18245
0.181641
0.180862
0.180114
0.179397
0.178712
0.178058
0.177436
0.176846
0.176292
0.175777
0.175308
0.174888
0.174534
0.174315
0.199395
0.198216
0.197096
0.196039
0.195039
0.194082
0.193155
0.192244
0.191342
0.190445
0.189552
0.188663
0.187781
0.186908
0.186046
0.185197
0.184364
0.183548
0.182751
0.181973
0.181216
0.18048
0.179765
0.179073
0.178403
0.177757
0.177134
0.176537
0.175968
0.17543
0.174929
0.174467
0.174065
0.199395
0.19821
0.197068
0.19597
0.194919
0.193911
0.192941
0.192004
0.191094
0.190205
0.189335
0.188481
0.187642
0.186816
0.186005
0.185207
0.184424
0.183656
0.182903
0.182166
0.181446
0.180742
0.180055
0.179385
0.178734
0.1781
0.177485
0.17689
0.176316
0.175765
0.175242
0.174748
0.174289
0.199395
0.198209
0.197062
0.195954
0.194885
0.193855
0.192861
0.191902
0.190974
0.190076
0.189203
0.188355
0.187527
0.18672
0.185931
0.185159
0.184405
0.183667
0.182945
0.182239
0.181549
0.180874
0.180215
0.179572
0.178944
0.178332
0.177737
0.177158
0.176597
0.176055
0.175535
0.175039
0.174567
0.199395
0.198209
0.197061
0.195951
0.194877
0.193838
0.192835
0.191864
0.190926
0.190017
0.189138
0.188284
0.187456
0.186651
0.185868
0.185106
0.184364
0.18364
0.182934
0.182246
0.181575
0.180919
0.18028
0.179656
0.179048
0.178455
0.177877
0.177315
0.17677
0.176241
0.175732
0.175242
0.174771
0.199395
0.198209
0.197061
0.19595
0.194874
0.193834
0.192827
0.191852
0.190908
0.189994
0.189109
0.188251
0.18742
0.186613
0.185829
0.185069
0.184329
0.18361
0.182911
0.18223
0.181567
0.180922
0.180293
0.179681
0.179085
0.178504
0.177939
0.177389
0.176856
0.176338
0.175837
0.175354
0.174887
0.199395
0.198209
0.19706
0.195949
0.194874
0.193832
0.192824
0.191848
0.190902
0.189986
0.189098
0.188238
0.187403
0.186594
0.185809
0.185047
0.184308
0.183589
0.182891
0.182213
0.181553
0.180911
0.180287
0.179681
0.17909
0.178516
0.177958
0.177415
0.176888
0.176377
0.175882
0.175403
0.174939
0.199395
0.198209
0.19706
0.195949
0.194873
0.193832
0.192823
0.191846
0.1909
0.189983
0.189094
0.188232
0.187396
0.186586
0.1858
0.185037
0.184296
0.183577
0.182879
0.1822
0.181541
0.180901
0.180278
0.179673
0.179085
0.178514
0.177959
0.177419
0.176895
0.176387
0.175895
0.175417
0.174954
0.199395
0.198209
0.19706
0.195949
0.194873
0.193831
0.192822
0.191845
0.190899
0.189981
0.189092
0.18823
0.187393
0.186582
0.185795
0.185031
0.18429
0.183571
0.182872
0.182193
0.181534
0.180894
0.180271
0.179667
0.179079
0.178509
0.177954
0.177416
0.176893
0.176386
0.175893
0.175416
0.174952
0.199395
0.198209
0.19706
0.195948
0.194872
0.193831
0.192822
0.191844
0.190898
0.18998
0.18909
0.188228
0.187392
0.18658
0.185793
0.185029
0.184287
0.183567
0.182868
0.182189
0.18153
0.180889
0.180267
0.179662
0.179075
0.178504
0.17795
0.177412
0.176889
0.176381
0.175888
0.17541
0.174945
0.199395
0.198208
0.19706
0.195948
0.194872
0.19383
0.192821
0.191844
0.190897
0.189979
0.189089
0.188227
0.18739
0.186579
0.185791
0.185027
0.184285
0.183565
0.182866
0.182187
0.181527
0.180886
0.180264
0.179659
0.179072
0.178501
0.177947
0.177408
0.176885
0.176376
0.175883
0.175403
0.174937
0.199395
0.198208
0.19706
0.195948
0.194872
0.19383
0.192821
0.191843
0.190896
0.189978
0.189089
0.188226
0.187389
0.186577
0.18579
0.185026
0.184284
0.183563
0.182864
0.182185
0.181525
0.180885
0.180262
0.179657
0.17907
0.178499
0.177944
0.177405
0.176881
0.176372
0.175878
0.175397
0.17493
0.199395
0.198208
0.19706
0.195948
0.194872
0.19383
0.19282
0.191843
0.190896
0.189978
0.189088
0.188225
0.187388
0.186576
0.185789
0.185024
0.184283
0.183562
0.182863
0.182184
0.181524
0.180883
0.18026
0.179656
0.179068
0.178497
0.177942
0.177402
0.176878
0.176369
0.175873
0.175392
0.174923
0.199395
0.198208
0.19706
0.195948
0.194871
0.193829
0.19282
0.191843
0.190895
0.189977
0.189087
0.188224
0.187387
0.186576
0.185788
0.185023
0.184281
0.183561
0.182862
0.182182
0.181523
0.180882
0.180259
0.179654
0.179066
0.178495
0.17794
0.1774
0.176875
0.176365
0.175869
0.175387
0.174918
0.199395
0.198208
0.197059
0.195948
0.194871
0.193829
0.19282
0.191842
0.190895
0.189977
0.189087
0.188224
0.187387
0.186575
0.185787
0.185023
0.184281
0.18356
0.182861
0.182181
0.181521
0.18088
0.180258
0.179653
0.179065
0.178493
0.177938
0.177398
0.176873
0.176362
0.175866
0.175383
0.174913
0.199395
0.198208
0.197059
0.195948
0.194871
0.193829
0.19282
0.191842
0.190895
0.189976
0.189086
0.188223
0.187386
0.186574
0.185786
0.185022
0.18428
0.183559
0.18286
0.18218
0.18152
0.180879
0.180256
0.179651
0.179063
0.178491
0.177936
0.177395
0.17687
0.176359
0.175862
0.175379
0.174909
0.199395
0.198208
0.197059
0.195947
0.194871
0.193829
0.192819
0.191842
0.190894
0.189976
0.189086
0.188223
0.187386
0.186574
0.185786
0.185021
0.184279
0.183558
0.182859
0.182179
0.181519
0.180878
0.180255
0.17965
0.179062
0.17849
0.177934
0.177393
0.176868
0.176356
0.175859
0.175375
0.174905
0.199395
0.198208
0.197059
0.195947
0.194871
0.193829
0.192819
0.191842
0.190894
0.189976
0.189086
0.188222
0.187385
0.186573
0.185785
0.185021
0.184278
0.183558
0.182858
0.182179
0.181518
0.180877
0.180254
0.179649
0.17906
0.178488
0.177932
0.177391
0.176865
0.176354
0.175856
0.175372
0.174901
0.199395
0.198208
0.197059
0.195947
0.194871
0.193829
0.192819
0.191841
0.190894
0.189976
0.189085
0.188222
0.187385
0.186573
0.185785
0.18502
0.184278
0.183557
0.182857
0.182178
0.181518
0.180876
0.180253
0.179647
0.179059
0.178487
0.17793
0.177389
0.176863
0.176351
0.175853
0.175369
0.174897
0.199395
0.198208
0.197059
0.195947
0.194871
0.193829
0.192819
0.191841
0.190894
0.189975
0.189085
0.188222
0.187385
0.186573
0.185784
0.18502
0.184277
0.183557
0.182857
0.182177
0.181517
0.180875
0.180252
0.179646
0.179058
0.178485
0.177929
0.177387
0.176861
0.176349
0.175851
0.175366
0.174894
0.199395
0.198208
0.197059
0.195947
0.194871
0.193828
0.192819
0.191841
0.190894
0.189975
0.189085
0.188222
0.187384
0.186572
0.185784
0.185019
0.184277
0.183556
0.182856
0.182177
0.181516
0.180875
0.180251
0.179645
0.179056
0.178484
0.177927
0.177386
0.176859
0.176347
0.175848
0.175363
0.174891
0.199395
0.198208
0.197059
0.195947
0.194871
0.193828
0.192819
0.191841
0.190894
0.189975
0.189085
0.188222
0.187384
0.186572
0.185784
0.185019
0.184277
0.183556
0.182856
0.182176
0.181516
0.180874
0.18025
0.179644
0.179055
0.178483
0.177926
0.177384
0.176857
0.176345
0.175846
0.175361
0.174888
0.199395
0.198208
0.197059
0.195947
0.194871
0.193828
0.192819
0.191841
0.190893
0.189975
0.189085
0.188221
0.187384
0.186572
0.185784
0.185019
0.184276
0.183556
0.182856
0.182176
0.181515
0.180873
0.18025
0.179644
0.179054
0.178482
0.177924
0.177383
0.176856
0.176343
0.175844
0.175359
0.174886
0.199395
0.198208
0.197059
0.195947
0.194871
0.193828
0.192819
0.191841
0.190893
0.189975
0.189085
0.188221
0.187384
0.186572
0.185784
0.185019
0.184276
0.183555
0.182855
0.182175
0.181515
0.180873
0.180249
0.179643
0.179054
0.178481
0.177923
0.177381
0.176854
0.176341
0.175842
0.175357
0.174884
0.199395
0.198208
0.197059
0.195947
0.194871
0.193828
0.192819
0.191841
0.190893
0.189975
0.189085
0.188221
0.187384
0.186572
0.185784
0.185019
0.184276
0.183555
0.182855
0.182175
0.181515
0.180873
0.180249
0.179643
0.179053
0.17848
0.177923
0.17738
0.176853
0.17634
0.175841
0.175355
0.174882
0.199395
0.198208
0.197059
0.195947
0.194871
0.193828
0.192819
0.191841
0.190894
0.189975
0.189085
0.188222
0.187384
0.186572
0.185784
0.185019
0.184276
0.183555
0.182855
0.182175
0.181514
0.180872
0.180249
0.179642
0.179053
0.178479
0.177922
0.17738
0.176852
0.176339
0.17584
0.175354
0.174881
0.199395
0.198208
0.197059
0.195947
0.194871
0.193828
0.192819
0.191841
0.190894
0.189975
0.189085
0.188222
0.187385
0.186572
0.185784
0.185019
0.184277
0.183556
0.182856
0.182176
0.181515
0.180873
0.180249
0.179643
0.179053
0.17848
0.177922
0.17738
0.176852
0.176339
0.175839
0.175353
0.17488
0.199395
0.198208
0.197059
0.195947
0.194871
0.193829
0.192819
0.191841
0.190894
0.189976
0.189085
0.188222
0.187385
0.186573
0.185785
0.18502
0.184278
0.183557
0.182857
0.182177
0.181516
0.180874
0.18025
0.179643
0.179054
0.17848
0.177922
0.17738
0.176852
0.176338
0.175838
0.175351
0.174877
0.199395
0.198208
0.197059
0.195947
0.194871
0.193829
0.19282
0.191843
0.190896
0.189978
0.189089
0.188226
0.18739
0.186578
0.18579
0.185026
0.184284
0.183563
0.182863
0.182182
0.181521
0.180879
0.180254
0.179647
0.179056
0.178481
0.177922
0.177378
0.176848
0.176332
0.17583
0.175341
0.174865
0.199395
0.198208
0.197059
0.195948
0.194872
0.193831
0.192824
0.191848
0.190902
0.189986
0.189097
0.188236
0.1874
0.186589
0.185801
0.185036
0.184293
0.183571
0.182869
0.182186
0.181522
0.180876
0.180248
0.179636
0.179041
0.178461
0.177897
0.177347
0.176811
0.17629
0.175781
0.175285
0.174802
0.199395
0.198209
0.197062
0.195955
0.194886
0.193853
0.192854
0.191885
0.190945
0.190033
0.189146
0.188285
0.187447
0.186631
0.185838
0.185066
0.184314
0.183582
0.182869
0.182174
0.181498
0.180838
0.180195
0.179568
0.178957
0.178361
0.17778
0.177213
0.17666
0.176121
0.175594
0.175081
0.174579
0.199395
0.198223
0.197106
0.196031
0.194987
0.19397
0.192977
0.192007
0.191061
0.190136
0.189233
0.188352
0.187492
0.186653
0.185834
0.185035
0.184255
0.183493
0.18275
0.182025
0.181317
0.180625
0.17995
0.179291
0.178648
0.178019
0.177405
0.176805
0.176219
0.175646
0.175087
0.17454
0.174006
0.19941
0.198319
0.197296
0.196301
0.195311
0.19432
0.19333
0.192347
0.191376
0.190419
0.189482
0.188564
0.187667
0.186792
0.185938
0.185105
0.184293
0.183501
0.182728
0.181974
0.181238
0.180519
0.179818
0.179133
0.178463
0.17781
0.177171
0.176546
0.175936
0.17534
0.174757
0.174188
0.173631
0.199716
0.199139
0.19847
0.197764
0.197071
0.196418
0.195811
0.19525
0.194733
0.19426
0.193828
0.193437
0.193084
0.192767
0.192485
0.192235
0.192015
0.191824
0.19166
0.19152
0.191402
0.191306
0.19123
0.191171
0.19113
0.191103
0.191091
0.191092
0.191106
0.191131
0.191166
0.191211
0.191264
0.205424
0.216593
0.227629
0.238434
0.248975
0.259243
0.269229
0.278926
0.288326
0.297425
0.306218
0.314703
0.32288
0.33075
0.338316
0.345582
0.352551
0.35923
0.365625
0.371743
0.377592
0.383179
0.388513
0.393602
0.398454
0.403078
0.407484
0.411678
0.41567
0.419469
0.423081
0.426515
0.429782
0.880859
2.53293
2.92683
2.669
2.39794
2.24721
2.18578
2.15774
2.13706
2.12125
2.11202
2.10815
2.10579
2.10028
2.08769
2.06562
2.03337
1.99176
1.94302
1.8905
1.83842
1.79134
1.75367
1.7291
1.72008
1.72722
1.74891
1.78128
1.81869
1.8546
1.8827
1.89776
1.8962
1.87644
1.83895
1.78635
1.72327
1.65617
1.59292
1.54231
1.51291
1.51122
1.53918
1.59243
1.66087
1.73166
1.79284
1.83583
1.85612
1.85276
1.82735
1.78304
1.72392
1.65448
1.57933
1.50285
1.42893
1.36054
1.2994
1.24578
1.19854
1.15551
1.11395
1.07118
1.02497
0.973811
0.916945
0.854367
0.786713
0.715159
0.641261
0.56697
0.495399
0.430548
0.369547
0.30093
0.262496
0.367558
0.612989
0.884483
1.10885
1.27037
1.37788
1.44463
1.48184
1.49775
1.49822
1.48736
1.46809
1.44251
1.41214
1.37807
1.34112
1.30184
1.26057
1.2174
1.17255
1.12535
1.07894
1.0058
0.190355
0.776371
1.39215
1.60483
1.57128
1.47882
1.41151
1.39465
1.41979
1.46787
1.52418
1.57976
1.62823
1.6642
1.68378
1.68537
1.66989
1.6404
1.60137
1.55797
1.51547
1.47883
1.45234
1.43935
1.44196
1.46056
1.49341
1.53644
1.58364
1.62795
1.66244
1.68137
1.68095
1.65973
1.61867
1.56095
1.49178
1.41789
1.34714
1.288
1.24893
1.23703
1.25574
1.30266
1.36901
1.44209
1.50897
1.55958
1.58805
1.59239
1.5736
1.53462
1.47952
1.4129
1.33953
1.26398
1.19036
1.12194
1.06085
1.00781
0.962122
0.92192
0.884653
0.847658
0.808647
0.76601
0.718935
0.667389
0.612035
0.554103
0.495197
0.437203
0.382887
0.335703
0.293047
0.244149
0.221717
0.329121
0.564302
0.823647
1.03986
1.19795
1.30562
1.37481
1.41571
1.43584
1.44059
1.43374
1.41804
1.39547
1.36747
1.33514
1.29931
1.26058
1.21936
1.17583
1.13028
1.08213
1.03494
0.959924
0.159365
0.237084
0.471068
0.66764
0.752522
0.756698
0.727706
0.700178
0.695245
0.721739
0.77697
0.850363
0.928624
0.999747
1.05514
1.09063
1.10624
1.10519
1.09253
1.07398
1.05506
1.04064
1.03471
1.0404
1.05977
1.09347
1.14024
1.19647
1.25638
1.31273
1.35814
1.38637
1.39326
1.3773
1.33966
1.28394
1.21567
1.14169
1.06954
1.00695
0.961538
0.940231
0.947797
0.984501
1.04445
1.1165
1.18759
1.24634
1.28515
1.30056
1.29253
1.2634
1.21697
1.15777
1.09056
1.02
0.9503
0.884955
0.826435
0.775956
0.733377
0.697335
0.665639
0.635804
0.605566
0.573254
0.537963
0.499565
0.458629
0.416273
0.373933
0.333145
0.295936
0.264979
0.238462
0.206379
0.191464
0.284812
0.496851
0.739262
0.947545
1.10425
1.2144
1.28814
1.33451
1.36035
1.37059
1.3688
1.35757
1.33878
1.31387
1.28393
1.24986
1.21232
1.17181
1.12862
1.08312
1.03485
0.987729
0.9122
0.175373
0.175167
0.212163
0.269138
0.315701
0.34064
0.346198
0.341152
0.33499
0.335242
0.346717
0.370948
0.405756
0.445822
0.484944
0.518009
0.542174
0.557258
0.565177
0.569014
0.572188
0.577956
0.589233
0.608593
0.638203
0.679488
0.732456
0.79494
0.862255
0.927653
0.983554
1.02309
1.04142
1.03657
1.00952
0.963938
0.905438
0.840701
0.776603
0.719598
0.675547
0.64986
0.647274
0.670411
0.717489
0.781218
0.850427
0.913482
0.961261
0.98848
0.993557
0.977755
0.944209
0.897093
0.840999
0.780475
0.719684
0.662116
0.61036
0.56591
0.529078
0.499051
0.474162
0.452318
0.431478
0.410032
0.387016
0.362159
0.335806
0.308774
0.28211
0.256831
0.234147
0.215936
0.201374
0.182148
0.170452
0.240937
0.419933
0.639402
0.837681
0.99305
1.10659
1.18599
1.23895
1.27153
1.28825
1.29241
1.28648
1.27228
1.25122
1.22444
1.19288
1.1573
1.11829
1.07624
1.03166
0.98417
0.938006
0.863327
0.175544
0.173899
0.17688
0.186082
0.197538
0.207213
0.213124
0.21522
0.214961
0.214397
0.215374
0.219077
0.225808
0.235086
0.245637
0.255896
0.264684
0.271486
0.27651
0.280539
0.284696
0.290257
0.298574
0.311113
0.329537
0.355673
0.391116
0.436321
0.489504
0.546109
0.599444
0.642328
0.668966
0.676278
0.664371
0.6362
0.596683
0.551562
0.506352
0.465658
0.433047
0.411465
0.403873
0.413258
0.441292
0.48617
0.541648
0.598551
0.64769
0.682262
0.698793
0.696902
0.678524
0.647031
0.606486
0.561051
0.514547
0.470141
0.430148
0.395951
0.367994
0.345866
0.328479
0.314343
0.301897
0.289815
0.277207
0.263685
0.249328
0.234569
0.220019
0.206239
0.19386
0.184149
0.177134
0.16685
0.157179
0.2029
0.342695
0.532656
0.716792
0.868924
0.985254
1.07039
1.13033
1.17022
1.19406
1.20488
1.20498
1.19613
1.17971
1.15689
1.12867
1.09588
1.05922
1.01921
0.976425
0.930626
0.886277
0.813739
0.174114
0.173612
0.173419
0.174247
0.175975
0.177967
0.179618
0.180564
0.180807
0.180672
0.180615
0.18101
0.182046
0.183714
0.185764
0.187857
0.18971
0.191173
0.192266
0.193163
0.19415
0.195584
0.197876
0.201503
0.207067
0.215369
0.227442
0.244379
0.26679
0.293992
0.323421
0.350901
0.371855
0.38285
0.382645
0.372338
0.354718
0.333264
0.311232
0.291124
0.274601
0.262761
0.256676
0.257892
0.268398
0.289601
0.320724
0.357943
0.395229
0.426371
0.446791
0.45438
0.449374
0.433745
0.410442
0.382716
0.353579
0.325468
0.300081
0.278388
0.260713
0.246873
0.236292
0.228146
0.221509
0.215529
0.209557
0.203222
0.196437
0.189354
0.182268
0.175463
0.169258
0.164471
0.161598
0.156997
0.149656
0.174133
0.273338
0.428003
0.592355
0.737481
0.854463
0.944262
1.01075
1.05793
1.08913
1.10702
1.11371
1.11085
1.09981
1.08173
1.05766
1.02852
0.995076
0.957965
0.917859
0.87462
0.832878
0.76366
0.173703
0.173305
0.17287
0.172485
0.172233
0.172099
0.171996
0.171826
0.171537
0.171158
0.170781
0.17051
0.170409
0.170485
0.17068
0.170902
0.171071
0.171137
0.171099
0.171001
0.170924
0.170974
0.171276
0.171968
0.173216
0.175232
0.178298
0.182763
0.188955
0.19697
0.206392
0.216133
0.22462
0.230318
0.232301
0.230551
0.225833
0.219316
0.212173
0.205332
0.199412
0.1948
0.191832
0.191022
0.193238
0.199585
0.210847
0.226702
0.245285
0.263544
0.278251
0.287039
0.288956
0.284439
0.274896
0.262167
0.24806
0.234042
0.221122
0.20987
0.200509
0.193015
0.187189
0.182708
0.179176
0.176178
0.173357
0.170464
0.167386
0.164143
0.160858
0.157669
0.154732
0.152536
0.151674
0.150312
0.145692
0.155503
0.217826
0.334024
0.472602
0.605458
0.719421
0.811553
0.88322
0.936944
0.975225
1.00023
1.01377
1.01736
1.01226
0.999607
0.980445
0.955735
0.926328
0.892942
0.856329
0.816443
0.777999
0.713158
0.173823
0.173341
0.172838
0.17228
0.171682
0.171076
0.170479
0.169889
0.169297
0.168706
0.168134
0.167608
0.167149
0.166761
0.166426
0.166114
0.165793
0.165442
0.165052
0.164634
0.164214
0.163829
0.163525
0.163351
0.163363
0.163627
0.164218
0.165226
0.166732
0.16877
0.171256
0.173941
0.176438
0.178321
0.17928
0.179216
0.178242
0.176613
0.17462
0.172521
0.170512
0.168732
0.167302
0.166396
0.166306
0.167469
0.17035
0.175185
0.181704
0.189035
0.195906
0.201063
0.203668
0.203495
0.200876
0.196479
0.19107
0.185322
0.179733
0.174614
0.170126
0.166323
0.163187
0.160645
0.158576
0.156833
0.155265
0.153747
0.152205
0.150627
0.14906
0.147571
0.146235
0.145319
0.145312
0.145515
0.143398
0.145504
0.178784
0.257487
0.365737
0.48046
0.586467
0.677346
0.751751
0.810453
0.854877
0.886526
0.906806
0.916984
0.918182
0.911441
0.897783
0.878176
0.853511
0.824568
0.792163
0.756319
0.721751
0.662201
0.17406
0.173518
0.172971
0.172381
0.171739
0.17106
0.170365
0.16967
0.168984
0.168311
0.167659
0.167034
0.166443
0.165888
0.16536
0.164849
0.16434
0.16382
0.163282
0.162726
0.16216
0.161597
0.161057
0.160563
0.160141
0.159818
0.159625
0.159589
0.159737
0.160077
0.160586
0.161198
0.161812
0.16231
0.162597
0.162618
0.162372
0.161891
0.161228
0.160434
0.159555
0.158634
0.157717
0.15687
0.156202
0.155882
0.156114
0.157066
0.158763
0.161016
0.163439
0.16556
0.166971
0.167447
0.166973
0.165701
0.163869
0.16172
0.159456
0.15722
0.155104
0.153161
0.151417
0.149879
0.148533
0.147348
0.14628
0.145289
0.144343
0.143438
0.142596
0.141855
0.141253
0.14093
0.141215
0.14197
0.141582
0.141137
0.155292
0.201831
0.278483
0.370154
0.462748
0.547767
0.621421
0.682603
0.73146
0.768655
0.795046
0.811545
0.819051
0.818448
0.81067
0.796644
0.777262
0.753333
0.72571
0.694471
0.664227
0.610727
0.174253
0.173683
0.173112
0.172515
0.171879
0.171209
0.170518
0.16982
0.169125
0.168441
0.167772
0.167121
0.166491
0.16588
0.165284
0.164696
0.164109
0.163515
0.162908
0.162286
0.161649
0.161004
0.160359
0.159728
0.159125
0.158568
0.158074
0.157659
0.157338
0.157116
0.15699
0.156942
0.156942
0.156954
0.156941
0.156872
0.156724
0.156481
0.156133
0.155673
0.1551
0.15442
0.15365
0.15282
0.151982
0.151214
0.150611
0.150273
0.150257
0.150551
0.151058
0.151621
0.152077
0.152299
0.152226
0.151859
0.151244
0.150443
0.149518
0.148518
0.147481
0.146433
0.145398
0.144397
0.143445
0.142551
0.141719
0.140949
0.140239
0.139599
0.139046
0.138607
0.138309
0.138227
0.138555
0.139349
0.13981
0.139326
0.143651
0.166515
0.214364
0.280776
0.355339
0.429576
0.498208
0.55849
0.609244
0.650163
0.68142
0.703455
0.716844
0.722237
0.720405
0.712179
0.698397
0.679858
0.657418
0.631193
0.605585
0.55872
0.174367
0.173787
0.173205
0.172607
0.171983
0.171334
0.170666
0.169988
0.169311
0.168639
0.167978
0.167329
0.166694
0.16607
0.165454
0.164842
0.164227
0.163605
0.16297
0.16232
0.161654
0.160974
0.160285
0.159597
0.158918
0.158262
0.157642
0.157073
0.156567
0.156131
0.155768
0.155477
0.155246
0.155062
0.154903
0.154748
0.15457
0.154345
0.154046
0.153652
0.153147
0.152526
0.151793
0.150966
0.150075
0.149165
0.148292
0.147516
0.14689
0.14644
0.146158
0.146005
0.145921
0.145846
0.145733
0.145554
0.145296
0.144955
0.144535
0.144039
0.143474
0.142847
0.142171
0.141461
0.140737
0.140017
0.139319
0.13866
0.138054
0.137517
0.137071
0.136737
0.136539
0.136522
0.136793
0.13743
0.138109
0.138134
0.138906
0.147627
0.172837
0.215375
0.26969
0.329153
0.388437
0.443901
0.493305
0.535399
0.569602
0.595785
0.614106
0.624898
0.628691
0.62615
0.618004
0.604987
0.587921
0.566939
0.546129
0.506287
0.174418
0.173833
0.173246
0.172649
0.172035
0.171403
0.170756
0.1701
0.169442
0.168787
0.168139
0.1675
0.166869
0.166246
0.165628
0.16501
0.164389
0.163759
0.163117
0.16246
0.161787
0.161099
0.160399
0.159692
0.158988
0.158295
0.157626
0.156993
0.156408
0.155882
0.155419
0.155022
0.154686
0.154404
0.154159
0.153933
0.153701
0.153438
0.153116
0.152713
0.15221
0.151597
0.150875
0.150054
0.149157
0.148213
0.147263
0.146349
0.145512
0.144786
0.144186
0.143712
0.143348
0.143069
0.142846
0.142649
0.142452
0.142235
0.141978
0.141668
0.141295
0.140856
0.140355
0.1398
0.139208
0.138595
0.137983
0.137391
0.136839
0.136346
0.135934
0.135623
0.135435
0.1354
0.135577
0.136018
0.136604
0.136911
0.136946
0.13931
0.149855
0.172989
0.207955
0.250902
0.297626
0.344595
0.389127
0.429326
0.463947
0.492279
0.514009
0.529085
0.537726
0.540359
0.537541
0.529886
0.518133
0.502408
0.48639
0.453738
0.174432
0.173844
0.173254
0.172656
0.172048
0.171427
0.170795
0.170156
0.169514
0.168873
0.168236
0.167605
0.16698
0.16636
0.165743
0.165125
0.164503
0.163874
0.163233
0.162578
0.161909
0.161225
0.160529
0.159825
0.159118
0.158418
0.157734
0.157078
0.15646
0.155892
0.155379
0.154926
0.15453
0.154185
0.153878
0.153592
0.153305
0.152994
0.152634
0.152204
0.151687
0.151072
0.150359
0.149553
0.148672
0.147739
0.146785
0.145843
0.144948
0.144129
0.143408
0.142795
0.142293
0.141889
0.141568
0.141306
0.141079
0.140862
0.140632
0.140369
0.140058
0.139692
0.139269
0.138793
0.138275
0.137729
0.137172
0.136625
0.136105
0.135633
0.135228
0.134909
0.134696
0.13461
0.134686
0.134948
0.135345
0.135662
0.135683
0.13602
0.139264
0.14933
0.168449
0.195796
0.228886
0.264993
0.301686
0.336936
0.369152
0.397184
0.420288
0.43802
0.450248
0.457105
0.458918
0.456127
0.449337
0.438636
0.427208
0.401658
0.174428
0.173837
0.173244
0.172646
0.17204
0.171425
0.170803
0.170175
0.169544
0.168912
0.168283
0.167657
0.167035
0.166417
0.1658
0.165183
0.164561
0.163933
0.163295
0.162646
0.161984
0.161309
0.160622
0.159927
0.159229
0.158534
0.157851
0.157189
0.156558
0.155968
0.155426
0.154936
0.154497
0.154103
0.153745
0.153406
0.153069
0.152711
0.152313
0.151856
0.151325
0.15071
0.150008
0.149225
0.148372
0.147469
0.146541
0.145614
0.144719
0.14388
0.143119
0.14245
0.141878
0.141401
0.141007
0.14068
0.140399
0.140143
0.139888
0.139615
0.13931
0.138962
0.138567
0.138126
0.137647
0.13714
0.13662
0.136102
0.135604
0.135142
0.134735
0.134399
0.13415
0.134005
0.133984
0.134095
0.134305
0.134502
0.134524
0.134411
0.134974
0.138214
0.146574
0.161306
0.181877
0.206729
0.234057
0.262146
0.289461
0.314713
0.336907
0.355301
0.36944
0.379156
0.38451
0.385726
0.383229
0.377041
0.369784
0.350959
0.174419
0.173825
0.173229
0.172629
0.172024
0.171412
0.170795
0.170173
0.169548
0.168922
0.168297
0.167675
0.167054
0.166435
0.165818
0.165199
0.164577
0.16395
0.163315
0.16267
0.162014
0.161347
0.160671
0.159987
0.1593
0.158614
0.157937
0.157277
0.156641
0.156039
0.155477
0.154958
0.154483
0.154048
0.153644
0.153258
0.152875
0.152476
0.152045
0.151565
0.151022
0.150409
0.149721
0.148963
0.148144
0.147278
0.146387
0.145492
0.144618
0.143788
0.143021
0.142331
0.141724
0.141201
0.140755
0.140373
0.140039
0.139734
0.139439
0.139137
0.138813
0.138458
0.138066
0.137637
0.137176
0.136691
0.136193
0.135694
0.13521
0.134754
0.134341
0.133986
0.133701
0.1335
0.133393
0.133379
0.13343
0.133479
0.13343
0.133225
0.133042
0.133601
0.136271
0.142568
0.153295
0.168206
0.186346
0.206505
0.227459
0.248061
0.26731
0.28436
0.298559
0.309497
0.316993
0.321045
0.32187
0.319403
0.31567
0.302875
0.174409
0.173812
0.173214
0.172612
0.172006
0.171396
0.170781
0.170162
0.169541
0.168918
0.168295
0.167673
0.167053
0.166433
0.165813
0.165193
0.164569
0.163941
0.163307
0.162665
0.162014
0.161354
0.160686
0.160012
0.159335
0.158659
0.157989
0.157331
0.156694
0.156084
0.155505
0.154963
0.154458
0.153986
0.153542
0.153114
0.15269
0.152255
0.151794
0.151293
0.150742
0.150131
0.149459
0.148726
0.14794
0.147112
0.14626
0.145402
0.144558
0.143749
0.142989
0.142294
0.141668
0.141115
0.14063
0.140204
0.139823
0.139472
0.139135
0.138797
0.138446
0.138073
0.137673
0.137244
0.136789
0.136314
0.135828
0.135341
0.134865
0.134411
0.133991
0.133618
0.1333
0.133048
0.132866
0.132749
0.132673
0.132588
0.132438
0.132171
0.131804
0.131539
0.131911
0.133802
0.138163
0.145561
0.155939
0.168742
0.18316
0.19832
0.21338
0.227567
0.240204
0.250768
0.258915
0.264461
0.267434
0.267675
0.266626
0.258861
0.1744
0.173801
0.173201
0.172597
0.171991
0.17138
0.170766
0.170149
0.169529
0.168908
0.168286
0.167664
0.167042
0.16642
0.165798
0.165175
0.164549
0.16392
0.163285
0.162644
0.161997
0.161342
0.160681
0.160014
0.159345
0.158676
0.158012
0.157358
0.15672
0.156103
0.155512
0.15495
0.154418
0.153915
0.153435
0.15297
0.15251
0.152042
0.151555
0.151036
0.150476
0.149869
0.149209
0.148499
0.147744
0.146952
0.146138
0.145316
0.144503
0.143717
0.142971
0.142277
0.141642
0.141068
0.140553
0.14009
0.139669
0.139277
0.138901
0.138529
0.13815
0.137756
0.137341
0.136906
0.13645
0.135978
0.135498
0.135017
0.134544
0.134088
0.133661
0.13327
0.132922
0.132625
0.132379
0.132178
0.131998
0.131804
0.131554
0.131217
0.130782
0.130293
0.12992
0.130023
0.131155
0.133914
0.13871
0.145592
0.154262
0.164195
0.17478
0.1854
0.195465
0.204464
0.212
0.217791
0.221726
0.22358
0.224283
0.220327
0.174393
0.173792
0.17319
0.172585
0.171977
0.171366
0.170753
0.170136
0.169517
0.168896
0.168274
0.167651
0.167028
0.166404
0.165779
0.165153
0.164525
0.163894
0.163259
0.162618
0.161973
0.161321
0.160664
0.160003
0.15934
0.158677
0.158018
0.157366
0.156727
0.156104
0.155502
0.154923
0.15437
0.153839
0.153328
0.152831
0.152339
0.151842
0.151331
0.150796
0.150229
0.149622
0.148974
0.148283
0.147554
0.146794
0.146013
0.145224
0.144441
0.143677
0.142946
0.142257
0.141617
0.141029
0.140491
0.139998
0.139543
0.139116
0.138706
0.138302
0.137895
0.137479
0.137049
0.136603
0.136142
0.135669
0.13519
0.13471
0.134236
0.133777
0.13334
0.132932
0.132558
0.132221
0.131921
0.131649
0.131386
0.131102
0.130768
0.130362
0.129873
0.129311
0.128722
0.128229
0.128062
0.128559
0.130095
0.13296
0.137244
0.142808
0.149336
0.156412
0.163587
0.170429
0.176562
0.181684
0.185616
0.188107
0.189688
0.188273
0.174386
0.173785
0.173181
0.172575
0.171966
0.171354
0.17074
0.170123
0.169504
0.168883
0.168261
0.167637
0.167012
0.166387
0.16576
0.165132
0.164502
0.163869
0.163232
0.162592
0.161947
0.161297
0.160643
0.159986
0.159327
0.158668
0.158012
0.157362
0.156721
0.156093
0.155482
0.15489
0.154317
0.153764
0.153226
0.152701
0.152182
0.15166
0.151128
0.150578
0.150002
0.149395
0.148755
0.148079
0.147372
0.146639
0.145887
0.145127
0.14437
0.143628
0.142911
0.142229
0.141587
0.140988
0.140432
0.139915
0.139432
0.138974
0.138533
0.138101
0.137669
0.137232
0.136786
0.136328
0.135859
0.135382
0.1349
0.134417
0.133941
0.133476
0.133028
0.132603
0.132203
0.131831
0.131484
0.131153
0.130821
0.130465
0.130061
0.129594
0.129056
0.128451
0.127793
0.127119
0.126512
0.126115
0.126129
0.126786
0.128282
0.13071
0.134023
0.138043
0.142504
0.147095
0.151507
0.155466
0.158775
0.161191
0.162974
0.16298
0.174381
0.173778
0.173173
0.172566
0.171956
0.171344
0.170729
0.170112
0.169493
0.168871
0.168248
0.167623
0.166998
0.16637
0.165742
0.165111
0.164479
0.163844
0.163207
0.162566
0.161921
0.161273
0.160621
0.159966
0.15931
0.158654
0.158
0.15735
0.156708
0.156076
0.155457
0.154853
0.154265
0.153692
0.153133
0.152584
0.152041
0.151498
0.150947
0.150383
0.149799
0.149191
0.148555
0.147892
0.147202
0.14649
0.145762
0.145026
0.144292
0.143569
0.142866
0.142191
0.141548
0.140942
0.140372
0.139835
0.139329
0.138845
0.138378
0.13792
0.137466
0.137009
0.136546
0.136076
0.135598
0.135113
0.134626
0.134139
0.133657
0.133184
0.132724
0.132282
0.131859
0.131454
0.131066
0.130684
0.130295
0.12988
0.129419
0.1289
0.12832
0.127679
0.126985
0.126252
0.125508
0.124805
0.124228
0.123898
0.123954
0.124522
0.125678
0.127419
0.129657
0.132233
0.134943
0.137578
0.139958
0.141872
0.143415
0.143989
0.174375
0.173772
0.173166
0.172558
0.171948
0.171335
0.170719