/*--------------------------------*- C++ -*----------------------------------*\
  =========                 |
  \\      /  F ield         | OpenFOAM: The Open Source CFD Toolbox
   \\    /   O peration     | Website:  https://openfoam.org
    \\  /    A nd           | Version:  10
     \\/     M anipulation  |
\*---------------------------------------------------------------------------*/
FoamFile
{
    format      ascii;
    class       surfaceScalarField;
    location    "2000";
    object      phi;
}
// * * * * * * * * * * * * * * * * * * * * * * * * * * * * * * * * * * * * * //

dimensions      [0 3 -1 0 0 0 0];

internalField   nonuniform List<scalar> 
13452
(
6.02919e-05
-2.34445e-08
5.99934e-05
2.98522e-07
5.95886e-05
4.04755e-07
5.91136e-05
4.74989e-07
5.86082e-05
5.05397e-07
5.81259e-05
4.82378e-07
5.76886e-05
4.37313e-07
5.72966e-05
3.91931e-07
5.69446e-05
3.52023e-07
5.66267e-05
3.17934e-07
5.63375e-05
2.89164e-07
5.60725e-05
2.64998e-07
5.58279e-05
2.44625e-07
5.56006e-05
2.27312e-07
5.53881e-05
2.12489e-07
5.51883e-05
1.99737e-07
5.49996e-05
1.88756e-07
5.48202e-05
1.79342e-07
5.46489e-05
1.71374e-07
5.44841e-05
1.6481e-07
5.43244e-05
1.59689e-07
5.41682e-05
1.56151e-07
5.40138e-05
1.54463e-07
5.38587e-05
1.55086e-07
5.36999e-05
1.58763e-07
5.35332e-05
1.66694e-07
5.33526e-05
1.80653e-07
5.31481e-05
2.0442e-07
5.29178e-05
2.30345e-07
5.26629e-05
2.54932e-07
5.23748e-05
2.88042e-07
5.15005e-05
8.74299e-07
1.44921e-06
5.00513e-05
6.21472e-05
-1.80317e-07
6.21733e-05
2.7246e-07
6.21951e-05
3.82971e-07
6.22111e-05
4.58967e-07
6.22105e-05
5.05962e-07
6.21796e-05
5.13338e-07
6.21168e-05
5.00023e-07
6.20286e-05
4.80184e-07
6.19224e-05
4.58166e-07
6.1805e-05
4.35427e-07
6.1681e-05
4.13132e-07
6.15539e-05
3.9205e-07
6.14261e-05
3.72496e-07
6.12988e-05
3.54542e-07
6.11731e-05
3.38175e-07
6.10495e-05
3.23358e-07
6.09282e-05
3.10053e-07
6.08093e-05
2.98242e-07
6.06928e-05
2.87937e-07
6.05784e-05
2.79204e-07
6.04659e-05
2.72174e-07
6.0355e-05
2.67073e-07
6.02452e-05
2.64259e-07
6.0136e-05
2.64282e-07
6.00267e-05
2.67994e-07
5.99168e-05
2.76612e-07
5.98055e-05
2.92015e-07
5.96929e-05
3.16992e-07
5.95721e-05
3.51169e-07
5.94359e-05
3.91134e-07
5.91235e-05
6.00431e-07
5.90226e-05
9.75182e-07
1.32813e-06
5.91437e-05
6.36686e-05
-8.75532e-08
6.37274e-05
2.13715e-07
6.37872e-05
3.23108e-07
6.38503e-05
3.95906e-07
6.39045e-05
4.5176e-07
6.39405e-05
4.77391e-07
6.39581e-05
4.82421e-07
6.39601e-05
4.78155e-07
6.39492e-05
4.6907e-07
6.39277e-05
4.5692e-07
6.38977e-05
4.43126e-07
6.3861e-05
4.28777e-07
6.38189e-05
4.14521e-07
6.37728e-05
4.00725e-07
6.37233e-05
3.87631e-07
6.36712e-05
3.75418e-07
6.36171e-05
3.64231e-07
6.35611e-05
3.54208e-07
6.35035e-05
3.45503e-07
6.34444e-05
3.38309e-07
6.33837e-05
3.32888e-07
6.33212e-05
3.29607e-07
6.32565e-05
3.28983e-07
6.3189e-05
3.31757e-07
6.3118e-05
3.39026e-07
6.30422e-05
3.52321e-07
6.29602e-05
3.74066e-07
6.28695e-05
4.07639e-07
6.27615e-05
4.59167e-07
6.26188e-05
5.33837e-07
6.24737e-05
7.45606e-07
6.24369e-05
1.0119e-06
1.20577e-06
6.25593e-05
6.55168e-05
-2.12751e-08
6.55576e-05
1.72864e-07
6.55943e-05
2.8645e-07
6.56348e-05
3.55399e-07
6.56766e-05
4.09992e-07
6.57128e-05
4.41173e-07
6.57418e-05
4.53375e-07
6.5764e-05
4.55998e-07
6.57796e-05
4.53519e-07
6.57889e-05
4.47584e-07
6.57926e-05
4.39431e-07
6.57913e-05
4.30093e-07
6.57855e-05
4.20248e-07
6.57759e-05
4.10329e-07
6.57629e-05
4.00655e-07
6.57468e-05
3.91487e-07
6.5728e-05
3.83056e-07
6.57066e-05
3.75581e-07
6.56828e-05
3.69304e-07
6.56566e-05
3.64506e-07
6.5628e-05
3.61545e-07
6.55967e-05
3.60891e-07
6.55625e-05
3.63182e-07
6.5525e-05
3.69297e-07
6.54835e-05
3.80497e-07
6.54373e-05
3.98534e-07
6.53853e-05
4.26096e-07
6.53258e-05
4.67049e-07
6.52564e-05
5.28634e-07
6.51707e-05
6.19543e-07
6.51234e-05
7.92928e-07
6.51409e-05
9.94326e-07
1.16125e-06
6.51854e-05
6.74274e-05
8.07185e-09
6.74476e-05
1.52686e-07
6.74708e-05
2.63299e-07
6.74984e-05
3.27808e-07
6.75309e-05
3.77426e-07
6.75628e-05
4.09266e-07
6.75915e-05
4.24695e-07
6.76166e-05
4.30893e-07
6.76381e-05
4.32017e-07
6.7656e-05
4.29656e-07
6.76705e-05
4.24932e-07
6.76818e-05
4.18818e-07
6.76901e-05
4.11986e-07
6.76955e-05
4.0488e-07
6.76983e-05
3.97841e-07
6.76987e-05
3.91159e-07
6.76966e-05
3.85099e-07
6.76923e-05
3.79923e-07
6.76857e-05
3.75916e-07
6.76768e-05
3.73411e-07
6.76655e-05
3.72822e-07
6.76517e-05
3.74679e-07
6.76352e-05
3.79684e-07
6.76157e-05
3.8878e-07
6.75929e-05
4.03271e-07
6.75665e-05
4.24939e-07
6.75363e-05
4.56384e-07
6.75021e-05
5.0125e-07
6.74652e-05
5.65464e-07
6.74288e-05
6.5598e-07
6.74286e-05
7.93139e-07
6.74743e-05
9.48648e-07
1.09149e-06
6.7544e-05
6.93698e-05
2.22632e-08
6.93823e-05
1.40215e-07
6.94035e-05
2.42136e-07
6.94271e-05
3.04147e-07
6.94544e-05
3.50174e-07
6.9482e-05
3.81682e-07
6.95078e-05
3.9888e-07
6.95315e-05
4.07138e-07
6.95532e-05
4.10315e-07
6.95728e-05
4.10048e-07
6.95904e-05
4.07416e-07
6.96058e-05
4.03346e-07
6.96193e-05
3.985e-07
6.96309e-05
3.93331e-07
6.96405e-05
3.88185e-07
6.96483e-05
3.83365e-07
6.96543e-05
3.7915e-07
6.96584e-05
3.75823e-07
6.96606e-05
3.73691e-07
6.96609e-05
3.73111e-07
6.96592e-05
3.7452e-07
6.96554e-05
3.78472e-07
6.96494e-05
3.85676e-07
6.96411e-05
3.97064e-07
6.96305e-05
4.13875e-07
6.96177e-05
4.37744e-07
6.96032e-05
4.70902e-07
6.95882e-05
5.16265e-07
6.95758e-05
5.77822e-07
6.95723e-05
6.59518e-07
6.95982e-05
7.67273e-07
6.96606e-05
8.86224e-07
9.96921e-07
6.97551e-05
7.13587e-05
2.98633e-08
7.13692e-05
1.29796e-07
7.13896e-05
2.21688e-07
7.14117e-05
2.82012e-07
7.14361e-05
3.2581e-07
7.1461e-05
3.56776e-07
7.14848e-05
3.75119e-07
7.15071e-05
3.84833e-07
7.1528e-05
3.89417e-07
7.15474e-05
3.90571e-07
7.15655e-05
3.89361e-07
7.15822e-05
3.86686e-07
7.15974e-05
3.83212e-07
7.16114e-05
3.79404e-07
7.16239e-05
3.7562e-07
7.16351e-05
3.72172e-07
7.16449e-05
3.6935e-07
7.16533e-05
3.67445e-07
7.16602e-05
3.66774e-07
7.16656e-05
3.67699e-07
7.16695e-05
3.7066e-07
7.16718e-05
3.76193e-07
7.16725e-05
3.84977e-07
7.16717e-05
3.97866e-07
7.16696e-05
4.15948e-07
7.16668e-05
4.40587e-07
7.16642e-05
4.73497e-07
7.16638e-05
5.1668e-07
7.16692e-05
5.72351e-07
7.16868e-05
6.41971e-07
7.17284e-05
7.25606e-07
7.18004e-05
8.14306e-07
8.93375e-07
7.19039e-05
7.34019e-05
3.32866e-08
7.34113e-05
1.20378e-07
7.34301e-05
2.02835e-07
7.34511e-05
2.61001e-07
7.34739e-05
3.03043e-07
7.34973e-05
3.33332e-07
7.352e-05
3.52464e-07
7.35415e-05
3.63378e-07
7.35617e-05
3.69128e-07
7.35809e-05
3.71425e-07
7.35989e-05
3.71336e-07
7.36159e-05
3.69742e-07
7.36318e-05
3.67313e-07
7.36466e-05
3.64533e-07
7.36605e-05
3.61777e-07
7.36733e-05
3.59367e-07
7.3685e-05
3.57601e-07
7.36957e-05
3.56774e-07
7.37053e-05
3.57203e-07
7.37137e-05
3.59244e-07
7.37211e-05
3.63315e-07
7.37273e-05
3.69915e-07
7.37327e-05
3.79652e-07
7.37373e-05
3.93259e-07
7.37416e-05
4.11621e-07
7.37464e-05
4.35769e-07
7.37531e-05
4.6686e-07
7.37637e-05
5.06038e-07
7.37819e-05
5.54162e-07
7.38128e-05
6.11057e-07
7.38638e-05
6.74588e-07
7.39397e-05
7.38381e-07
7.90653e-07
7.40425e-05
7.55017e-05
3.40487e-08
7.55104e-05
1.11665e-07
7.55275e-05
1.85712e-07
7.55475e-05
2.4106e-07
7.55691e-05
2.81439e-07
7.55915e-05
3.10927e-07
7.56134e-05
3.30511e-07
7.56344e-05
3.42386e-07
7.56544e-05
3.49135e-07
7.56734e-05
3.5242e-07
7.56915e-05
3.533e-07
7.57086e-05
3.52629e-07
7.57248e-05
3.5108e-07
7.57402e-05
3.49149e-07
7.57548e-05
3.47224e-07
7.57685e-05
3.45637e-07
7.57814e-05
3.44692e-07
7.57935e-05
3.44683e-07
7.58048e-05
3.45918e-07
7.58153e-05
3.48736e-07
7.58251e-05
3.53519e-07
7.58343e-05
3.60711e-07
7.58431e-05
3.70823e-07
7.58519e-05
3.84444e-07
7.58613e-05
4.0223e-07
7.58722e-05
4.24873e-07
7.5886e-05
4.53024e-07
7.5905e-05
4.87124e-07
7.5932e-05
5.27108e-07
7.59712e-05
5.71883e-07
7.60271e-05
6.18644e-07
7.61032e-05
6.62354e-07
6.93662e-07
7.62001e-05
7.76604e-05
3.32718e-08
7.76686e-05
1.03414e-07
7.76842e-05
1.70107e-07
7.77031e-05
2.22216e-07
7.77236e-05
2.60888e-07
7.77451e-05
2.89452e-07
7.77664e-05
3.09154e-07
7.77871e-05
3.21713e-07
7.7807e-05
3.29277e-07
7.7826e-05
3.33403e-07
7.78442e-05
3.35129e-07
7.78615e-05
3.35274e-07
7.78781e-05
3.34498e-07
7.78939e-05
3.33302e-07
7.79091e-05
3.32082e-07
7.79235e-05
3.31173e-07
7.79374e-05
3.30877e-07
7.79506e-05
3.31484e-07
7.79632e-05
3.33287e-07
7.79753e-05
3.36594e-07
7.79871e-05
3.41745e-07
7.79987e-05
3.49112e-07
7.80104e-05
3.59099e-07
7.80227e-05
3.72141e-07
7.80363e-05
3.88671e-07
7.80521e-05
4.0907e-07
7.80715e-05
4.33577e-07
7.80965e-05
4.62119e-07
7.81296e-05
4.9407e-07
7.81736e-05
5.27911e-07
7.82314e-05
5.60832e-07
7.8305e-05
5.88739e-07
6.04437e-07
7.83942e-05
7.98799e-05
3.16569e-08
7.98879e-05
9.54914e-08
7.99022e-05
1.55793e-07
7.99199e-05
2.04471e-07
7.99395e-05
2.41327e-07
7.99601e-05
2.68847e-07
7.99809e-05
2.88377e-07
8.00012e-05
3.01342e-07
8.0021e-05
3.09517e-07
8.00401e-05
3.14324e-07
8.00584e-05
3.16762e-07
8.00761e-05
3.17612e-07
8.00931e-05
3.1751e-07
8.01094e-05
3.16951e-07
8.01252e-05
3.16329e-07
8.01404e-05
3.15978e-07
8.01551e-05
3.16191e-07
8.01693e-05
3.17246e-07
8.01832e-05
3.19412e-07
8.01968e-05
3.22964e-07
8.02104e-05
3.28187e-07
8.02241e-05
3.35374e-07
8.02384e-05
3.44824e-07
8.02537e-05
3.5682e-07
8.02708e-05
3.71596e-07
8.02906e-05
3.89276e-07
8.03144e-05
4.0979e-07
8.03437e-05
4.3273e-07
8.03806e-05
4.57178e-07
8.0427e-05
4.81509e-07
8.04847e-05
5.03192e-07
8.05545e-05
5.18948e-07
5.23421e-07
8.06355e-05
8.21625e-05
2.96149e-08
8.21701e-05
8.78567e-08
8.21834e-05
1.42563e-07
8.22e-05
1.87774e-07
8.22187e-05
2.22688e-07
8.22385e-05
2.49049e-07
8.22587e-05
2.68171e-07
8.22787e-05
2.81285e-07
8.22984e-05
2.89863e-07
8.23175e-05
2.95183e-07
8.23361e-05
2.98189e-07
8.23541e-05
2.99621e-07
8.23715e-05
3.00083e-07
8.23884e-05
3.00057e-07
8.24048e-05
2.99928e-07
8.24208e-05
3.00019e-07
8.24364e-05
3.0061e-07
8.24517e-05
3.01959e-07
8.24668e-05
3.04306e-07
8.24818e-05
3.07886e-07
8.24971e-05
3.12926e-07
8.25128e-05
3.19642e-07
8.25294e-05
3.2823e-07
8.25474e-05
3.38837e-07
8.25675e-05
3.51533e-07
8.25905e-05
3.66246e-07
8.26176e-05
3.82696e-07
8.265e-05
4.00286e-07
8.26892e-05
4.17997e-07
8.27364e-05
4.34284e-07
8.27926e-05
4.47005e-07
8.2858e-05
4.53613e-07
4.50243e-07
8.29311e-05
8.451e-05
2.7385e-08
8.45174e-05
8.05061e-08
8.45297e-05
1.30243e-07
8.45454e-05
1.72039e-07
8.45632e-05
2.04899e-07
8.45823e-05
2.29993e-07
8.46019e-05
2.48511e-07
8.46217e-05
2.61544e-07
8.46412e-05
2.70327e-07
8.46604e-05
2.75992e-07
8.46792e-05
2.79417e-07
8.46975e-05
2.813e-07
8.47153e-05
2.82209e-07
8.47328e-05
2.82605e-07
8.47499e-05
2.82856e-07
8.47666e-05
2.83271e-07
8.47831e-05
2.8411e-07
8.47995e-05
2.85606e-07
8.48158e-05
2.87968e-07
8.48323e-05
2.91385e-07
8.48492e-05
2.96027e-07
8.48668e-05
3.02039e-07
8.48855e-05
3.09521e-07
8.49059e-05
3.18511e-07
8.49284e-05
3.28949e-07
8.49541e-05
3.4063e-07
8.49836e-05
3.53147e-07
8.50181e-05
3.65828e-07
8.50584e-05
3.7767e-07
8.51054e-05
3.87308e-07
8.51594e-05
3.93013e-07
8.52201e-05
3.92871e-07
3.84173e-07
8.52862e-05
8.69244e-05
2.51026e-08
8.69315e-05
7.34423e-08
8.69431e-05
1.18684e-07
8.69579e-05
1.57163e-07
8.6975e-05
1.87886e-07
8.69933e-05
2.11607e-07
8.70125e-05
2.29358e-07
8.70319e-05
2.42108e-07
8.70514e-05
2.50909e-07
8.70706e-05
2.56754e-07
8.70896e-05
2.60452e-07
8.71082e-05
2.62653e-07
8.71265e-05
2.63887e-07
8.71445e-05
2.64589e-07
8.71623e-05
2.65106e-07
8.71798e-05
2.65725e-07
8.71973e-05
2.66685e-07
8.72147e-05
2.68189e-07
8.72322e-05
2.70413e-07
8.72501e-05
2.73501e-07
8.72686e-05
2.77571e-07
8.72879e-05
2.82699e-07
8.73085e-05
2.8891e-07
8.73309e-05
2.96154e-07
8.73555e-05
3.04281e-07
8.73832e-05
3.13002e-07
8.74145e-05
3.21855e-07
8.74501e-05
3.30166e-07
8.74908e-05
3.37022e-07
8.75368e-05
3.41279e-07
8.75882e-05
3.41591e-07
8.76445e-05
3.36571e-07
3.2437e-07
8.77043e-05
8.94078e-05
2.28406e-08
8.94146e-05
6.66631e-08
8.94255e-05
1.07768e-07
8.94396e-05
1.43043e-07
8.94559e-05
1.7157e-07
8.94737e-05
1.93821e-07
8.94924e-05
2.10661e-07
8.95116e-05
2.22952e-07
8.95309e-05
2.31596e-07
8.95502e-05
2.37464e-07
8.95693e-05
2.41292e-07
8.95883e-05
2.43679e-07
8.96071e-05
2.45117e-07
8.96257e-05
2.46008e-07
8.96441e-05
2.46676e-07
8.96624e-05
2.47383e-07
8.96808e-05
2.48342e-07
8.96992e-05
2.49728e-07
8.9718e-05
2.51679e-07
8.97372e-05
2.54301e-07
8.97571e-05
2.57661e-07
8.9778e-05
2.61781e-07
8.98003e-05
2.66624e-07
8.98244e-05
2.7208e-07
8.98507e-05
2.77938e-07
8.98798e-05
2.83873e-07
8.99123e-05
2.89414e-07
8.99485e-05
2.93934e-07
8.99889e-05
2.96647e-07
9.00335e-05
2.96632e-07
9.00822e-05
2.92878e-07
9.01344e-05
2.84415e-07
2.7002e-07
9.01887e-05
9.19621e-05
2.06349e-08
9.19686e-05
6.01591e-08
9.19789e-05
9.73971e-08
9.19924e-05
1.29578e-07
9.20081e-05
1.55871e-07
9.20254e-05
1.76562e-07
9.20437e-05
1.92366e-07
9.20626e-05
2.0404e-07
9.20818e-05
2.12367e-07
9.21012e-05
2.1811e-07
9.21205e-05
2.21931e-07
9.21398e-05
2.24376e-07
9.2159e-05
2.25898e-07
9.21782e-05
2.26864e-07
9.21973e-05
2.27572e-07
9.22164e-05
2.28256e-07
9.22357e-05
2.29102e-07
9.22551e-05
2.30256e-07
9.2275e-05
2.31822e-07
9.22954e-05
2.3387e-07
9.23166e-05
2.36424e-07
9.2339e-05
2.39462e-07
9.23627e-05
2.42903e-07
9.23882e-05
2.46595e-07
9.24158e-05
2.50302e-07
9.2446e-05
2.53689e-07
9.24791e-05
2.56313e-07
9.25154e-05
2.5762e-07
9.25551e-05
2.56962e-07
9.25981e-05
2.53623e-07
9.26441e-05
2.4687e-07
9.26925e-05
2.36051e-07
2.20384e-07
9.27421e-05
9.45893e-05
1.84999e-08
9.45955e-05
5.3913e-08
9.46054e-05
8.74902e-08
9.46183e-05
1.16673e-07
9.46335e-05
1.40707e-07
9.46503e-05
1.59758e-07
9.46683e-05
1.74413e-07
9.4687e-05
1.85331e-07
9.47062e-05
1.93196e-07
9.47256e-05
1.98673e-07
9.47452e-05
2.02354e-07
9.47648e-05
2.04735e-07
9.47845e-05
2.06225e-07
9.48042e-05
2.07158e-07
9.4824e-05
2.07801e-07
9.48439e-05
2.0836e-07
9.4864e-05
2.08995e-07
9.48844e-05
2.09821e-07
9.49053e-05
2.10914e-07
9.49269e-05
2.12309e-07
9.49493e-05
2.13998e-07
9.49728e-05
2.15925e-07
9.49977e-05
2.17982e-07
9.50243e-05
2.19994e-07
9.50529e-05
2.21719e-07
9.50838e-05
2.22836e-07
9.51171e-05
2.2295e-07
9.51532e-05
2.21593e-07
9.51919e-05
2.18249e-07
9.52331e-05
2.12381e-07
9.52765e-05
2.03476e-07
9.53215e-05
1.91119e-07
1.74829e-07
9.5367e-05
9.72916e-05
1.64382e-08
9.72976e-05
4.79022e-08
9.73071e-05
7.79764e-08
9.73195e-05
1.04241e-07
9.73342e-05
1.25999e-07
9.73507e-05
1.43339e-07
9.73683e-05
1.56742e-07
9.73869e-05
1.66779e-07
9.7406e-05
1.74047e-07
9.74256e-05
1.79128e-07
9.74454e-05
1.82547e-07
9.74654e-05
1.84747e-07
9.74855e-05
1.86097e-07
9.75058e-05
1.86895e-07
9.75262e-05
1.87376e-07
9.75468e-05
1.8772e-07
9.75678e-05
1.8806e-07
9.75891e-05
1.88482e-07
9.7611e-05
1.89036e-07
9.76336e-05
1.8973e-07
9.7657e-05
1.90531e-07
9.76816e-05
1.9136e-07
9.77075e-05
1.92093e-07
9.77349e-05
1.92549e-07
9.77642e-05
1.92494e-07
9.77954e-05
1.9164e-07
9.78287e-05
1.89644e-07
9.78641e-05
1.86128e-07
9.79017e-05
1.80694e-07
9.79411e-05
1.72953e-07
9.7982e-05
1.62564e-07
9.80239e-05
1.49278e-07
1.3282e-07
9.80659e-05
0.000100071
1.44456e-08
0.000100077
4.21002e-08
0.000100086
6.87929e-08
0.000100098
9.22009e-08
0.000100112
1.11669e-07
0.000100129
1.27233e-07
0.000100146
1.39291e-07
0.000100164
1.48334e-07
0.000100184
1.54884e-07
0.000100203
1.59449e-07
0.000100223
1.62489e-07
0.000100244
1.644e-07
0.000100264
1.6551e-07
0.000100285
1.6608e-07
0.000100306
1.66314e-07
0.000100327
1.66367e-07
0.000100349
1.66342e-07
0.000100371
1.66304e-07
0.000100394
1.66278e-07
0.000100418
1.66252e-07
0.000100442
1.66172e-07
0.000100467
1.6595e-07
0.000100494
1.65452e-07
0.000100522
1.64505e-07
0.000100552
1.62895e-07
0.000100583
1.60368e-07
0.000100616
1.56643e-07
0.000100651
1.51421e-07
0.000100687
1.44408e-07
0.000100725
1.35334e-07
0.000100763
1.23982e-07
0.000100802
1.10223e-07
9.39152e-08
0.000100841
0.00010293
1.25148e-08
0.000102936
3.64786e-08
0.000102945
5.98828e-08
0.000102956
8.04792e-08
0.00010297
9.76423e-08
0.000102986
1.11372e-07
0.000103003
1.21998e-07
0.000103022
1.29945e-07
0.000103041
1.35666e-07
0.000103061
1.39603e-07
0.000103081
1.4216e-07
0.000103102
1.43684e-07
0.000103123
1.44462e-07
0.000103144
1.44721e-07
0.000103166
1.44637e-07
0.000103188
1.44334e-07
0.00010321
1.43894e-07
0.000103233
1.43359e-07
0.000103257
1.42736e-07
0.000103281
1.41994e-07
0.000103306
1.41071e-07
0.000103332
1.39869e-07
0.00010336
1.3826e-07
0.000103388
1.36082e-07
0.000103418
1.33146e-07
0.000103449
1.29239e-07
0.000103481
1.24137e-07
0.000103515
1.17612e-07
0.00010355
1.09453e-07
0.000103586
9.94826e-08
0.000103622
8.7577e-08
0.000103659
7.36842e-08
5.77524e-08
0.000103695
0.000105871
1.06368e-08
0.000105876
3.10086e-08
0.000105885
5.11935e-08
0.000105896
6.90074e-08
0.00010591
8.38469e-08
0.000105926
9.56853e-08
0.000105943
1.048e-07
0.000105961
1.11558e-07
0.000105981
1.16348e-07
0.000106001
1.19557e-07
0.000106021
1.21536e-07
0.000106042
1.22584e-07
0.000106064
1.22951e-07
0.000106086
1.2283e-07
0.000106108
1.22366e-07
0.000106131
1.2166e-07
0.000106154
1.20771e-07
0.000106177
1.19722e-07
0.000106202
1.18504e-07
0.000106227
1.17076e-07
0.000106252
1.15367e-07
0.000106279
1.13282e-07
0.000106306
1.10697e-07
0.000106335
1.0747e-07
0.000106365
1.03438e-07
0.000106396
9.84296e-08
0.000106427
9.22691e-08
0.00010646
8.47907e-08
0.000106494
7.58504e-08
0.000106528
6.53406e-08
0.000106562
5.32012e-08
0.000106597
3.9432e-08
2.40361e-08
0.00010663
0.000108895
8.80212e-09
0.000108901
2.56614e-08
0.000108909
4.26762e-08
0.00010892
5.77218e-08
0.000108934
7.02135e-08
0.00010895
8.01053e-08
0.000108967
8.7634e-08
0.000108985
9.31143e-08
0.000109005
9.6884e-08
0.000109025
9.92752e-08
0.000109046
1.0059e-07
0.000109067
1.01086e-07
0.000109089
1.00973e-07
0.000109112
1.00414e-07
0.000109135
9.95261e-08
0.000109158
9.83848e-08
0.000109182
9.703e-08
0.000109206
9.54687e-08
0.000109231
9.36787e-08
0.000109256
9.16114e-08
0.000109282
8.91946e-08
0.000109309
8.63353e-08
0.000109337
8.29224e-08
0.000109366
7.88311e-08
0.000109395
7.39275e-08
0.000109426
6.80754e-08
0.000109457
6.11437e-08
0.000109488
5.30161e-08
0.000109521
4.36007e-08
0.000109553
3.28403e-08
0.000109586
2.07193e-08
0.000109618
7.26883e-09
-7.47426e-09
0.000109649
0.000112006
7.00145e-09
0.000112012
2.041e-08
0.00011202
3.42856e-08
0.000112031
4.65628e-08
0.000112045
5.66749e-08
0.00011206
6.45635e-08
0.000112077
7.04335e-08
0.000112096
7.45563e-08
0.000112116
7.72221e-08
0.000112136
7.87152e-08
0.000112157
7.92922e-08
0.000112179
7.91704e-08
0.000112202
7.85239e-08
0.000112225
7.74834e-08
0.000112248
7.61397e-08
0.000112272
7.45468e-08
0.000112296
7.27262e-08
0.000112321
7.06709e-08
0.000112346
6.83492e-08
0.000112372
6.57074e-08
0.000112399
6.2674e-08
0.000112426
5.91619e-08
0.000112454
5.50728e-08
0.000112482
5.0301e-08
0.000112512
4.47386e-08
0.000112541
3.82809e-08
0.000112572
3.08336e-08
0.000112602
2.23193e-08
0.000112633
1.26855e-08
0.000112664
1.91075e-09
0.000112695
-9.99136e-09
0.000112725
-2.29715e-08
-3.69739e-08
0.000112755
0.000115206
5.22612e-09
0.000115211
1.52291e-08
0.00011522
2.59799e-08
0.000115231
3.54743e-08
0.000115244
4.31659e-08
0.00011526
4.8991e-08
0.000115277
5.3131e-08
0.000115296
5.58205e-08
0.000115316
5.73073e-08
0.000115337
5.78318e-08
0.000115358
5.76085e-08
0.000115381
5.68159e-08
0.000115404
5.55933e-08
0.000115427
5.40419e-08
0.000115451
5.22269e-08
0.000115475
5.01816e-08
0.0001155
4.79111e-08
0.000115526
4.53964e-08
0.000115551
4.2598e-08
0.000115578
3.94598e-08
0.000115604
3.59121e-08
0.000115632
3.18754e-08
0.000115659
2.72641e-08
0.000115688
2.19905e-08
0.000115716
1.59694e-08
0.000115746
9.12311e-09
0.000115775
1.38632e-09
0.000115805
-7.28788e-09
0.000115834
-1.69238e-08
0.000115864
-2.75183e-08
0.000115893
-3.90397e-08
0.000115921
-5.14297e-08
-6.46233e-08
0.000115949
0.000118498
3.46852e-09
0.000118503
1.00965e-08
0.000118511
1.77218e-08
0.000118522
2.44036e-08
0.000118536
2.9622e-08
0.000118551
3.33172e-08
0.000118569
3.56549e-08
0.000118588
3.68386e-08
0.000118608
3.70779e-08
0.000118629
3.65726e-08
0.000118651
3.54975e-08
0.000118674
3.39937e-08
0.000118698
3.2167e-08
0.000118722
3.00896e-08
0.000118746
2.78025e-08
0.000118771
2.53191e-08
0.000118796
2.26297e-08
0.000118822
1.97043e-08
0.000118848
1.64977e-08
0.000118874
1.29519e-08
0.000118901
9.00029e-09
0.000118929
4.57099e-09
0.000118956
-4.09735e-10
0.000118984
-6.01365e-09
0.000119013
-1.23066e-08
0.000119041
-1.93448e-08
0.00011907
-2.71705e-08
0.000119098
-3.58085e-08
0.000119126
-4.52631e-08
0.000119154
-5.55154e-08
0.000119182
-6.65236e-08
0.000119209
-7.82266e-08
-9.05558e-08
0.000119235
0.000121883
1.7229e-09
0.000121888
4.99506e-09
0.000121896
9.47911e-09
0.000121907
1.33015e-08
0.000121921
1.5979e-08
0.000121937
1.74684e-08
0.000121955
1.79279e-08
0.000121974
1.7535e-08
0.000121995
1.64639e-08
0.000122016
1.48768e-08
0.000122039
1.29098e-08
0.000122062
1.06675e-08
0.000122086
8.22264e-09
0.000122111
5.61892e-09
0.000122136
2.87365e-09
0.000122161
-1.85365e-11
0.000122187
-3.08195e-09
0.000122213
-6.35597e-09
0.000122239
-9.89138e-09
0.000122266
-1.37471e-08
0.000122293
-1.79865e-08
0.00012232
-2.26748e-08
0.000122347
-2.78752e-08
0.000122375
-3.3646e-08
0.000122403
-4.00376e-08
0.000122431
-4.70892e-08
0.000122458
-5.4826e-08
0.000122486
-6.32573e-08
0.000122513
-7.23739e-08
0.000122539
-8.21478e-08
0.000122565
-9.25325e-08
0.000122591
-1.03468e-07
-1.14887e-07
0.000122615
0.000125365
-1.35034e-11
0.00012537
-8.43495e-11
0.000125379
1.22866e-09
0.00012539
2.12332e-09
0.000125404
2.1712e-09
0.00012542
1.36498e-09
0.000125438
-1.35589e-10
0.000125457
-2.17628e-09
0.000125478
-4.61572e-09
0.000125501
-7.32815e-09
0.000125524
-1.02154e-08
0.000125548
-1.32101e-08
0.000125572
-1.62727e-08
0.000125597
-1.93882e-08
0.000125623
-2.25627e-08
0.000125648
-2.58204e-08
0.000125675
-2.91994e-08
0.000125701
-3.27484e-08
0.000125728
-3.65234e-08
0.000125754
-4.05841e-08
0.000125781
-4.49917e-08
0.000125809
-4.98053e-08
0.000125836
-5.50797e-08
0.000125863
-6.08625e-08
0.00012589
-6.71921e-08
0.000125917
-7.4095e-08
0.000125944
-8.15847e-08
0.00012597
-8.96596e-08
0.000125996
-9.83027e-08
0.000126022
-1.07481e-07
0.000126046
-1.17147e-07
0.00012607
-1.27245e-07
-1.37709e-07
0.000126093
0.000128947
-1.73807e-09
0.000128952
-5.13693e-09
0.00012896
-7.03929e-09
0.000128971
-9.17012e-09
0.000128985
-1.18698e-08
0.000129002
-1.50808e-08
0.00012902
-1.86334e-08
0.000129041
-2.23956e-08
0.000129062
-2.62578e-08
0.000129085
-3.01299e-08
0.000129109
-3.39532e-08
0.000129133
-3.76994e-08
0.000129158
-4.13637e-08
0.000129184
-4.49605e-08
0.00012921
-4.85201e-08
0.000129236
-5.20856e-08
0.000129263
-5.57091e-08
0.000129289
-5.94488e-08
0.000129316
-6.33656e-08
0.000129343
-6.75212e-08
0.00012937
-7.19748e-08
0.000129397
-7.67812e-08
0.000129424
-8.19887e-08
0.000129451
-8.76371e-08
0.000129477
-9.37557e-08
0.000129504
-1.00363e-07
0.00012953
-1.07463e-07
0.000129555
-1.15049e-07
0.00012958
-1.231e-07
0.000129604
-1.31581e-07
0.000129627
-1.40448e-07
0.00012965
-1.49648e-07
-1.59123e-07
0.000129671
0.000132631
-3.43826e-09
0.000132636
-1.01323e-08
0.000132644
-1.53112e-08
0.000132655
-2.06101e-08
0.00013267
-2.62184e-08
0.000132687
-3.19705e-08
0.000132706
-3.76805e-08
0.000132727
-4.32425e-08
0.000132749
-4.85785e-08
0.000132772
-5.36359e-08
0.000132797
-5.83989e-08
0.000132822
-6.28816e-08
0.000132848
-6.71162e-08
0.000132874
-7.11483e-08
0.000132901
-7.50335e-08
0.000132927
-7.88348e-08
0.000132954
-8.26188e-08
0.000132981
-8.64538e-08
0.000133008
-9.04065e-08
0.000133035
-9.4541e-08
0.000133062
-9.89159e-08
0.000133089
-1.03583e-07
0.000133116
-1.08587e-07
0.000133142
-1.13962e-07
0.000133168
-1.1973e-07
0.000133193
-1.25905e-07
0.000133218
-1.32487e-07
0.000133243
-1.39466e-07
0.000133267
-1.46818e-07
0.00013329
-1.5451e-07
0.000133312
-1.62501e-07
0.000133333
-1.70743e-07
-1.7918e-07
0.000133353
0.00013642
-5.08204e-09
0.000136425
-1.49917e-08
0.000136433
-2.3534e-08
0.000136445
-3.22169e-08
0.000136459
-4.09585e-08
0.000136477
-4.94256e-08
0.000136497
-5.74198e-08
0.000136518
-6.48667e-08
0.000136541
-7.17205e-08
0.000136566
-7.79717e-08
0.000136591
-8.36573e-08
0.000136617
-8.88407e-08
0.000136643
-9.35951e-08
0.00013667
-9.79992e-08
0.000136697
-1.02136e-07
0.000136725
-1.06089e-07
0.000136752
-1.0994e-07
0.000136779
-1.13767e-07
0.000136806
-1.17645e-07
0.000136834
-1.2164e-07
0.00013686
-1.25812e-07
0.000136887
-1.30212e-07
0.000136913
-1.3488e-07
0.000136939
-1.39848e-07
0.000136965
-1.45137e-07
0.000136989
-1.50755e-07
0.000137014
-1.56701e-07
0.000137037
-1.62964e-07
0.00013706
-1.69522e-07
0.000137082
-1.76345e-07
0.000137103
-1.83396e-07
0.000137123
-1.90637e-07
-1.98019e-07
0.000137141
0.000140317
-6.59682e-09
0.000140322
-1.95415e-08
0.00014033
-3.15902e-08
0.000140342
-4.40029e-08
0.000140357
-5.61889e-08
0.000140375
-6.75864e-08
0.000140396
-7.80222e-08
0.000140418
-8.74635e-08
0.000140442
-9.58892e-08
0.000140468
-1.03339e-07
0.000140494
-1.09915e-07
0.000140521
-1.1574e-07
0.000140548
-1.20937e-07
0.000140576
-1.25621e-07
0.000140604
-1.29908e-07
0.000140632
-1.33904e-07
0.000140659
-1.37708e-07
0.000140687
-1.41409e-07
0.000140714
-1.45089e-07
0.000140742
-1.48819e-07
0.000140768
-1.52659e-07
0.000140795
-1.56661e-07
0.000140821
-1.60865e-07
0.000140846
-1.653e-07
0.000140871
-1.69986e-07
0.000140895
-1.7493e-07
0.000140919
-1.80131e-07
0.000140941
-1.85579e-07
0.000140963
-1.91253e-07
0.000140984
-1.97127e-07
0.000141004
-2.03167e-07
0.000141022
-2.09336e-07
-2.15589e-07
0.00014104
0.000144326
-7.82395e-09
0.00014433
-2.34121e-08
0.000144337
-3.92439e-08
0.000144349
-5.59866e-08
0.000144365
-7.20709e-08
0.000144384
-8.66527e-08
0.000144406
-9.96739e-08
0.00014443
-1.11177e-07
0.000144455
-1.21183e-07
0.000144481
-1.29806e-07
0.000144509
-1.37229e-07
0.000144537
-1.43637e-07
0.000144565
-1.49202e-07
0.000144593
-1.54082e-07
0.000144622
-1.58422e-07
0.00014465
-1.62356e-07
0.000144679
-1.66e-07
0.000144707
-1.69457e-07
0.000144734
-1.72815e-07
0.000144762
-1.76152e-07
0.000144789
-1.79532e-07
0.000144815
-1.83008e-07
0.000144841
-1.86619e-07
0.000144866
-1.90397e-07
0.00014489
-1.9436e-07
0.000144914
-1.98518e-07
0.000144936
-2.0287e-07
0.000144958
-2.07408e-07
0.000144979
-2.12118e-07
0.000144999
-2.16977e-07
0.000145018
-2.21961e-07
0.000145036
-2.27047e-07
-2.32199e-07
0.000145052
0.000148449
-8.40279e-09
0.000148451
-2.58758e-08
0.000148458
-4.60628e-08
0.00014847
-6.80867e-08
0.000148487
-8.87611e-08
0.000148507
-1.0704e-07
0.00014853
-1.23004e-07
0.000148556
-1.36704e-07
0.000148583
-1.48239e-07
0.000148611
-1.57885e-07
0.00014864
-1.65967e-07
0.000148669
-1.72762e-07
0.000148698
-1.78503e-07
0.000148727
-1.83397e-07
0.000148757
-1.87626e-07
0.000148786
-1.91346e-07
0.000148814
-1.94688e-07
0.000148843
-1.97766e-07
0.000148871
-2.00675e-07
0.000148898
-2.03498e-07
0.000148925
-2.063e-07
0.000148951
-2.09135e-07
0.000148976
-2.12045e-07
0.000149001
-2.15061e-07
0.000149025
-2.18202e-07
0.000149048
-2.2148e-07
0.00014907
-2.24897e-07
0.000149091
-2.28447e-07
0.000149111
-2.32117e-07
0.00014913
-2.35889e-07
0.000149147
-2.39738e-07
0.000149164
-2.43634e-07
-2.47545e-07
0.000149179
0.000152688
-7.31958e-09
0.000152688
-2.54889e-08
0.000152693
-5.18159e-08
0.000152706
-8.03683e-08
0.000152723
-1.05821e-07
0.000152744
-1.27954e-07
0.000152768
-1.4721e-07
0.000152795
-1.63451e-07
0.000152823
-1.76759e-07
0.000152853
-1.87575e-07
0.000152883
-1.9637e-07
0.000152914
-2.03525e-07
0.000152945
-2.09356e-07
0.000152976
-2.1414e-07
0.000153006
-2.18107e-07
0.000153036
-2.21448e-07
0.000153066
-2.24319e-07
0.000153095
-2.26849e-07
0.000153123
-2.29146e-07
0.000153151
-2.31295e-07
0.000153178
-2.33367e-07
0.000153205
-2.3542e-07
0.00015323
-2.37495e-07
0.000153255
-2.39625e-07
0.000153278
-2.41832e-07
0.000153301
-2.44128e-07
0.000153322
-2.46519e-07
0.000153343
-2.49004e-07
0.000153362
-2.51575e-07
0.000153381
-2.54224e-07
0.000153398
-2.56939e-07
0.000153414
-2.59714e-07
-2.62524e-07
0.000153429
0.000157046
-2.09906e-09
0.000157039
-1.79543e-08
0.000157043
-5.60693e-08
0.000157058
-9.54432e-08
0.000157079
-1.27258e-07
0.000157105
-1.5334e-07
0.000157133
-1.75112e-07
0.000157162
-1.92794e-07
0.000157192
-2.06905e-07
0.000157223
-2.18186e-07
0.000157254
-2.27224e-07
0.000157285
-2.34442e-07
0.000157315
-2.40197e-07
0.000157346
-2.44795e-07
0.000157377
-2.48485e-07
0.000157407
-2.51465e-07
0.000157436
-2.539e-07
0.000157465
-2.55922e-07
0.000157494
-2.57641e-07
0.000157522
-2.59147e-07
0.000157549
-2.60513e-07
0.000157575
-2.61797e-07
0.000157601
-2.63044e-07
0.000157625
-2.64287e-07
0.000157649
-2.65553e-07
0.000157672
-2.66855e-07
0.000157693
-2.68204e-07
0.000157714
-2.696e-07
0.000157733
-2.7104e-07
0.000157752
-2.72513e-07
0.000157769
-2.74001e-07
0.000157785
-2.7548e-07
-2.76935e-07
0.000157799
0.000161526
1.03502e-08
0.000161506
2.43301e-09
0.000161498
-4.89024e-08
0.000161503
-1.0041e-07
0.000161519
-1.43246e-07
0.000161545
-1.7875e-07
0.000161576
-2.06767e-07
0.000161611
-2.27777e-07
0.000161648
-2.43434e-07
0.000161685
-2.55279e-07
0.000161722
-2.64293e-07
0.000161759
-2.71132e-07
0.000161795
-2.76316e-07
0.00016183
-2.80247e-07
0.000161865
-2.83222e-07
0.000161899
-2.85461e-07
0.000161932
-2.87135e-07
0.000161965
-2.88376e-07
0.000161996
-2.89291e-07
0.000162027
-2.89964e-07
0.000162057
-2.90462e-07
0.000162086
-2.90838e-07
0.000162114
-2.91134e-07
0.000162141
-2.91384e-07
0.000162168
-2.91612e-07
0.000162192
-2.91834e-07
0.000162216
-2.92062e-07
0.000162239
-2.92305e-07
0.000162261
-2.92565e-07
0.000162281
-2.92846e-07
0.0001623
-2.93151e-07
0.000162318
-2.93494e-07
-2.93862e-07
0.000162335
0.0001661
6.41508e-08
0.000166096
5.769e-09
0.000166114
-6.64223e-08
0.000166131
-1.17282e-07
0.000166148
-1.6019e-07
0.000166168
-1.98675e-07
0.000166191
-2.30263e-07
0.000166218
-2.54743e-07
0.000166248
-2.73689e-07
0.000166282
-2.88453e-07
0.000166317
-2.99876e-07
0.000166355
-3.08614e-07
0.000166394
-3.15235e-07
0.000166434
-3.20188e-07
0.000166474
-3.23816e-07
0.000166515
-3.26382e-07
0.000166556
-3.281e-07
0.000166597
-3.29141e-07
0.000166637
-3.29644e-07
0.000166677
-3.2972e-07
0.000166716
-3.29461e-07
0.000166754
-3.28942e-07
0.000166791
-3.28221e-07
0.000166827
-3.27347e-07
0.000166862
-3.26359e-07
0.000166895
-3.25286e-07
0.000166927
-3.24151e-07
0.000166958