/*--------------------------------*- C++ -*----------------------------------*\
  =========                 |
  \\      /  F ield         | OpenFOAM: The Open Source CFD Toolbox
   \\    /   O peration     | Website:  https://openfoam.org
    \\  /    A nd           | Version:  10
     \\/     M anipulation  |
\*---------------------------------------------------------------------------*/
FoamFile
{
    format      ascii;
    class       volVectorField;
    location    "2000";
    object      U;
}
// * * * * * * * * * * * * * * * * * * * * * * * * * * * * * * * * * * * * * //

dimensions      [0 1 -1 0 0 0 0];

internalField   nonuniform List<vector> 
6820
(
(7.31669 -0.3873 0)
(7.31537 -0.335153 0)
(7.2841 -0.203493 0)
(7.22609 -0.111075 0)
(7.16169 -0.0567409 0)
(7.10054 -0.0269725 0)
(7.04465 -0.0112359 0)
(6.99421 -0.00303704 0)
(6.94898 0.00118829 0)
(6.90832 0.00332207 0)
(6.8715 0.0043649 0)
(6.83786 0.00485103 0)
(6.8069 0.00506235 0)
(6.77821 0.00514546 0)
(6.75146 0.00517593 0)
(6.72637 0.00519247 0)
(6.70271 0.00521481 0)
(6.68028 0.00525335 0)
(6.65888 0.00531456 0)
(6.63836 0.00540419 0)
(6.61853 0.00552936 0)
(6.59921 0.00570054 0)
(6.58018 0.00593396 0)
(6.5612 0.00625307 0)
(6.54192 0.00670394 0)
(6.52189 0.00734115 0)
(6.50046 0.00824364 0)
(6.47655 0.00991437 0)
(6.44881 0.0107297 0)
(6.41679 0.0128795 0)
(6.36906 0.0582263 0)
(6.28922 0.276284 0)
(6.32035 0.180712 0)
(7.33961 0.100784 0)
(7.35429 0.14994 0)
(7.35847 0.123278 0)
(7.35869 0.089898 0)
(7.35926 0.0660988 0)
(7.3579 0.0501885 0)
(7.35252 0.0396179 0)
(7.34336 0.0326686 0)
(7.3316 0.0280371 0)
(7.31819 0.0248327 0)
(7.30378 0.0225215 0)
(7.28882 0.0207899 0)
(7.27366 0.0194448 0)
(7.2585 0.0183653 0)
(7.24347 0.0174761 0)
(7.22866 0.0167313 0)
(7.21411 0.0161036 0)
(7.19984 0.0155774 0)
(7.18583 0.0151461 0)
(7.17209 0.0148103 0)
(7.15856 0.0145777 0)
(7.14523 0.0144644 0)
(7.13203 0.0144976 0)
(7.1189 0.0147216 0)
(7.10575 0.0152041 0)
(7.09248 0.0160632 0)
(7.07901 0.0174679 0)
(7.06512 0.0197611 0)
(7.05086 0.0232334 0)
(7.03263 0.0285582 0)
(7.02965 0.0405848 0)
(6.96853 0.0576228 0)
(6.96232 0.0936376 0)
(7.32714 0.00612841 0)
(7.32428 -0.00157147 0)
(7.33128 -0.00613369 0)
(7.33967 -0.000712567 0)
(7.34665 0.00713258 0)
(7.35191 0.0128721 0)
(7.35505 0.0163895 0)
(7.3561 0.0184897 0)
(7.35547 0.0196747 0)
(7.35352 0.0202473 0)
(7.35049 0.0204356 0)
(7.34658 0.0204009 0)
(7.34199 0.0202452 0)
(7.33685 0.0200312 0)
(7.33129 0.0197991 0)
(7.3254 0.0195765 0)
(7.31922 0.0193828 0)
(7.31282 0.0192337 0)
(7.30622 0.019144 0)
(7.29943 0.01913 0)
(7.29245 0.0192125 0)
(7.28526 0.0194194 0)
(7.27781 0.0197907 0)
(7.27006 0.0203842 0)
(7.26192 0.0212883 0)
(7.25326 0.0226311 0)
(7.24393 0.0246331 0)
(7.23365 0.0276039 0)
(7.22232 0.0321342 0)
(7.20748 0.0384424 0)
(7.19693 0.0550253 0)
(7.17663 0.0719086 0)
(7.16056 0.107203 0)
(7.32977 -0.00400198 0)
(7.32629 0.00247987 0)
(7.33107 0.0107323 0)
(7.3367 0.016895 0)
(7.34128 0.02047 0)
(7.34552 0.021994 0)
(7.34924 0.0224874 0)
(7.35212 0.0226183 0)
(7.35418 0.0226061 0)
(7.35553 0.0225064 0)
(7.35623 0.0223565 0)
(7.35633 0.0221873 0)
(7.35589 0.0220168 0)
(7.35499 0.0218559 0)
(7.35368 0.0217142 0)
(7.352 0.0216013 0)
(7.35 0.0215279 0)
(7.3477 0.0215061 0)
(7.34511 0.0215512 0)
(7.34224 0.0216829 0)
(7.33909 0.0219277 0)
(7.33565 0.0223218 0)
(7.33188 0.0229163 0)
(7.32774 0.0237838 0)
(7.32318 0.0250317 0)
(7.3181 0.0268162 0)
(7.31242 0.0293851 0)
(7.30601 0.0330995 0)
(7.29884 0.0386208 0)
(7.29028 0.0466316 0)
(7.28352 0.061674 0)
(7.27905 0.0798386 0)
(7.2751 0.107099 0)
(7.33182 -0.000987538 0)
(7.33 0.00675262 0)
(7.33257 0.0123901 0)
(7.33603 0.0152061 0)
(7.33928 0.0172489 0)
(7.34272 0.0187567 0)
(7.34609 0.0197445 0)
(7.34904 0.0204093 0)
(7.35155 0.0208716 0)
(7.35366 0.0211783 0)
(7.35541 0.0213714 0)
(7.35678 0.0214919 0)
(7.35782 0.0215702 0)
(7.35853 0.021628 0)
(7.35894 0.0216833 0)
(7.35907 0.0217528 0)
(7.35894 0.0218531 0)
(7.35854 0.0220016 0)
(7.35789 0.0222187 0)
(7.35699 0.0225295 0)
(7.35582 0.022966 0)
(7.35438 0.0235711 0)
(7.35264 0.0244033 0)
(7.35058 0.0255437 0)
(7.34816 0.0271087 0)
(7.34536 0.0292628 0)
(7.34215 0.0322541 0)
(7.33853 0.0364344 0)
(7.33466 0.0423796 0)
(7.33075 0.0507724 0)
(7.3286 0.0636887 0)
(7.33015 0.0796838 0)
(7.33502 0.0992213 0)
(7.33247 0.000697302 0)
(7.33165 0.00637274 0)
(7.33345 0.0106542 0)
(7.33622 0.0133192 0)
(7.33896 0.0156246 0)
(7.34182 0.017428 0)
(7.34468 0.0186109 0)
(7.34732 0.0193897 0)
(7.3497 0.0199393 0)
(7.35186 0.0203321 0)
(7.35381 0.0206145 0)
(7.35553 0.0208279 0)
(7.35704 0.0210029 0)
(7.35834 0.0211608 0)
(7.35943 0.0213197 0)
(7.36032 0.0214963 0)
(7.36101 0.0217079 0)
(7.3615 0.0219732 0)
(7.36178 0.0223142 0)
(7.36187 0.0227581 0)
(7.36173 0.0233401 0)
(7.36138 0.0241058 0)
(7.36078 0.0251168 0)
(7.35994 0.0264567 0)
(7.35885 0.0282405 0)
(7.35752 0.0306266 0)
(7.35599 0.0338382 0)
(7.35437 0.0381761 0)
(7.35292 0.0440701 0)
(7.35214 0.0519968 0)
(7.35324 0.0627812 0)
(7.35786 0.075686 0)
(7.36656 0.0897593 0)
(7.33271 0.00112506 0)
(7.33241 0.00554771 0)
(7.33395 0.00955173 0)
(7.33642 0.0123801 0)
(7.33889 0.0146474 0)
(7.34138 0.0163738 0)
(7.3439 0.0175429 0)
(7.34628 0.0183456 0)
(7.34848 0.0189365 0)
(7.35054 0.0193822 0)
(7.35245 0.0197241 0)
(7.35422 0.0200006 0)
(7.35584 0.0202412 0)
(7.35731 0.0204677 0)
(7.35865 0.0206983 0)
(7.35984 0.0209503 0)
(7.36089 0.0212418 0)
(7.36179 0.0215925 0)
(7.36253 0.0220256 0)
(7.36312 0.0225696 0)
(7.36355 0.0232607 0)
(7.36381 0.0241451 0)
(7.3639 0.0252837 0)
(7.36383 0.0267566 0)
(7.36362 0.0286699 0)
(7.3633 0.0311628 0)
(7.36298 0.0344184 0)
(7.36281 0.0386638 0)
(7.3631 0.0441762 0)
(7.36439 0.0512073 0)
(7.36753 0.0599691 0)
(7.37375 0.0699142 0)
(7.38362 0.0798124 0)
(7.33286 0.00129171 0)
(7.33287 0.00510643 0)
(7.33423 0.00880718 0)
(7.33641 0.0115402 0)
(7.33868 0.0136597 0)
(7.34097 0.0153079 0)
(7.34327 0.0164918 0)
(7.34549 0.0173365 0)
(7.34756 0.0179686 0)
(7.34951 0.0184549 0)
(7.35135 0.018838 0)
(7.35308 0.0191558 0)
(7.3547 0.0194385 0)
(7.35622 0.0197088 0)
(7.35763 0.0199858 0)
(7.35894 0.0202878 0)
(7.36013 0.0206334 0)
(7.36122 0.021043 0)
(7.3622 0.0215401 0)
(7.36306 0.0221535 0)
(7.36381 0.0229186 0)
(7.36445 0.0238801 0)
(7.36498 0.0250948 0)
(7.36543 0.0266348 0)
(7.36583 0.0285912 0)
(7.36626 0.0310769 0)
(7.36682 0.034228 0)
(7.36771 0.0381946 0)
(7.36923 0.0431238 0)
(7.37185 0.0490924 0)
(7.37617 0.0560266 0)
(7.38305 0.0634361 0)
(7.39285 0.070178 0)
(7.33295 0.00136308 0)
(7.33315 0.00475535 0)
(7.33435 0.00808664 0)
(7.33628 0.0106705 0)
(7.33837 0.0126891 0)
(7.3405 0.0142906 0)
(7.34266 0.0154866 0)
(7.34475 0.016362 0)
(7.34673 0.0170243 0)
(7.34861 0.0175408 0)
(7.35039 0.0179549 0)
(7.35208 0.0183032 0)
(7.35368 0.0186161 0)
(7.3552 0.0189172 0)
(7.35663 0.0192263 0)
(7.35798 0.0195624 0)
(7.35925 0.0199445 0)
(7.36044 0.0203933 0)
(7.36154 0.0209321 0)
(7.36257 0.0215887 0)
(7.36353 0.0223968 0)
(7.36441 0.0233974 0)
(7.36526 0.0246407 0)
(7.36609 0.026188 0)
(7.36695 0.0281121 0)
(7.36793 0.0304969 0)
(7.36915 0.033432 0)
(7.3708 0.0369999 0)
(7.37316 0.0412499 0)
(7.37658 0.0461454 0)
(7.38149 0.0514923 0)
(7.38846 0.0568433 0)
(7.39763 0.0612506 0)
(7.333 0.0013603 0)
(7.3333 0.00441372 0)
(7.33438 0.00741054 0)
(7.33609 0.00984652 0)
(7.33802 0.011778 0)
(7.34 0.013325 0)
(7.34202 0.0145122 0)
(7.34401 0.0154032 0)
(7.34592 0.0160872 0)
(7.34774 0.0166277 0)
(7.34948 0.0170669 0)
(7.35114 0.0174399 0)
(7.35273 0.0177766 0)
(7.35424 0.0181009 0)
(7.35569 0.0184335 0)
(7.35707 0.0187932 0)
(7.35838 0.0191995 0)
(7.35963 0.0196726 0)
(7.36083 0.0202352 0)
(7.36197 0.0209132 0)
(7.36308 0.0217374 0)
(7.36416 0.0227437 0)
(7.36524 0.0239744 0)
(7.36636 0.0254781 0)
(7.36758 0.0273086 0)
(7.36899 0.0295214 0)
(7.3707 0.0321661 0)
(7.37288 0.0352713 0)
(7.37577 0.0388209 0)
(7.37964 0.0427153 0)
(7.38475 0.0467236 0)
(7.39147 0.0504522 0)
(7.39979 0.05316 0)
(7.33302 0.00131113 0)
(7.33337 0.00408496 0)
(7.33436 0.00679405 0)
(7.33589 0.00907545 0)
(7.33765 0.0109136 0)
(7.3395 0.0123977 0)
(7.3414 0.0135621 0)
(7.34329 0.014457 0)
(7.34513 0.0151542 0)
(7.3469 0.0157115 0)
(7.34861 0.0161694 0)
(7.35025 0.0165615 0)
(7.35182 0.0169165 0)
(7.35334 0.0172583 0)
(7.35479 0.0176075 0)
(7.3562 0.017983 0)
(7.35755 0.0184036 0)
(7.35886 0.018889 0)
(7.36013 0.0194604 0)
(7.36138 0.0201413 0)
(7.36261 0.0209585 0)
(7.36385 0.0219421 0)
(7.36512 0.0231256 0)
(7.36648 0.0245447 0)
(7.36799 0.0262351 0)
(7.36972 0.0282275 0)
(7.37178 0.0305393 0)
(7.37433 0.033161 0)
(7.37753 0.0360372 0)
(7.38159 0.0390407 0)
(7.38667 0.0419455 0)
(7.39296 0.0444207 0)
(7.40038 0.0459091 0)
(7.33303 0.00123765 0)
(7.3334 0.00376996 0)
(7.33431 0.00622747 0)
(7.33568 0.00835001 0)
(7.3373 0.0100896 0)
(7.33902 0.0115065 0)
(7.3408 0.012638 0)
(7.3426 0.0135251 0)
(7.34437 0.0142258 0)
(7.34609 0.0147916 0)
(7.34777 0.0152611 0)
(7.34939 0.0156659 0)
(7.35095 0.0160333 0)
(7.35247 0.0163867 0)
(7.35394 0.016746 0)
(7.35537 0.0171298 0)
(7.35677 0.017556 0)
(7.35813 0.018043 0)
(7.35947 0.0186098 0)
(7.36081 0.0192773 0)
(7.36215 0.0200677 0)
(7.36353 0.0210048 0)
(7.36498 0.0221132 0)
(7.36653 0.0234166 0)
(7.36826 0.0249347 0)
(7.37023 0.026678 0)
(7.37255 0.0286404 0)
(7.37532 0.030788 0)
(7.37868 0.0330455 0)
(7.38276 0.035281 0)
(7.38765 0.0372927 0)
(7.39345 0.0388144 0)
(7.40002 0.0394386 0)
(7.33304 0.00115267 0)
(7.3334 0.00346727 0)
(7.33424 0.00570148 0)
(7.33548 0.00766654 0)
(7.33697 0.00930365 0)
(7.33857 0.0106495 0)
(7.34025 0.0117391 0)
(7.34196 0.0126076 0)
(7.34367 0.0133024 0)
(7.34534 0.0138686 0)
(7.34698 0.0143422 0)
(7.34858 0.0147528 0)
(7.35014 0.0151263 0)
(7.35166 0.0154847 0)
(7.35314 0.0158474 0)
(7.3546 0.016232 0)
(7.35603 0.0166551 0)
(7.35745 0.0171333 0)
(7.35886 0.0176835 0)
(7.36027 0.0183231 0)
(7.36172 0.0190696 0)
(7.36322 0.0199406 0)
(7.36481 0.0209524 0)
(7.36653 0.022118 0)
(7.36843 0.023444 0)
(7.37058 0.0249258 0)
(7.37306 0.0265415 0)
(7.37596 0.0282437 0)
(7.37936 0.0299509 0)
(7.38335 0.0315394 0)
(7.38797 0.0328394 0)
(7.39326 0.0336438 0)
(7.39906 0.0336616 0)
(7.33304 0.00106327 0)
(7.33339 0.00317642 0)
(7.33416 0.00520949 0)
(7.3353 0.00702133 0)
(7.33667 0.00855294 0)
(7.33817 0.00982367 0)
(7.33975 0.0108639 0)
(7.34138 0.0117044 0)
(7.34302 0.0123843 0)
(7.34464 0.0129428 0)
(7.34625 0.0134131 0)
(7.34782 0.0138225 0)
(7.34937 0.0141952 0)
(7.3509 0.014552 0)
(7.3524 0.0149111 0)
(7.35388 0.0152886 0)
(7.35535 0.0157 0)
(7.35681 0.0161598 0)
(7.35828 0.0166821 0)
(7.35977 0.0172808 0)
(7.36131 0.0179691 0)
(7.36292 0.0187585 0)
(7.36462 0.0196581 0)
(7.36646 0.0206719 0)
(7.36849 0.0217965 0)
(7.37077 0.0230169 0)
(7.37334 0.0243018 0)
(7.37628 0.0255985 0)
(7.37965 0.0268276 0)
(7.38349 0.0278807 0)
(7.3878 0.0286201 0)
(7.3926 0.0288899 0)
(7.39773 0.028486 0)
(7.33304 0.000973396 0)
(7.33337 0.00289728 0)
(7.33409 0.00474621 0)
(7.33513 0.00641002 0)
(7.3364 0.00783392 0)
(7.3378 0.00902565 0)
(7.3393 0.0100101 0)
(7.34085 0.0108144 0)
(7.34243 0.0114711 0)
(7.34401 0.0120143 0)
(7.34558 0.0124739 0)
(7.34713 0.0128751 0)
(7.34868 0.0132402 0)
(7.3502 0.0135885 0)
(7.35171 0.0139367 0)
(7.35321 0.0142998 0)
(7.35471 0.0146911 0)
(7.35622 0.0151232 0)
(7.35775 0.0156075 0)
(7.35931 0.0161544 0)
(7.36092 0.0167728 0)
(7.36261 0.0174691 0)
(7.36441 0.018246 0)
(7.36634 0.0191009 0)
(7.36846 0.0200232 0)
(7.3708 0.0209912 0)
(7.37342 0.0219696 0)
(7.37635 0.0229055 0)
(7.37962 0.0237271 0)
(7.38327 0.024343 0)
(7.38727 0.0246453 0)
(7.39162 0.0245196 0)
(7.39615 0.023825 0)
(7.33303 0.000885076 0)
(7.33335 0.00262949 0)
(7.33401 0.0043072 0)
(7.33498 0.00582821 0)
(7.33616 0.00714308 0)
(7.33747 0.00825226 0)
(7.33889 0.00917544 0)
(7.34038 0.00993614 0)
(7.3419 0.0105621 0)
(7.34343 0.0110826 0)
(7.34497 0.0115243 0)
(7.34651 0.0119104 0)
(7.34804 0.0122612 0)
(7.34956 0.0125942 0)
(7.35109 0.0129247 0)
(7.35261 0.0132658 0)
(7.35413 0.0136293 0)
(7.35568 0.0140254 0)
(7.35725 0.0144629 0)
(7.35887 0.014949 0)
(7.36054 0.0154886 0)
(7.3623 0.0160838 0)
(7.36416 0.0167326 0)
(7.36616 0.0174273 0)
(7.36833 0.0181524 0)
(7.37071 0.0188835 0)
(7.37332 0.0195842 0)
(7.37619 0.0202053 0)
(7.37934 0.0206845 0)
(7.38277 0.0209474 0)
(7.38646 0.0209118 0)
(7.3904 0.0204955 0)
(7.39443 0.0196026 0)
(7.33303 0.000799245 0)
(7.33333 0.00237241 0)
(7.33395 0.00388879 0)
(7.33484 0.00527174 0)
(7.33594 0.00647688 0)
(7.33719 0.00750031 0)
(7.33853 0.00835725 0)
(7.33996 0.00906792 0)
(7.34142 0.009656 0)
(7.34292 0.0101467 0)
(7.34443 0.0105638 0)
(7.34595 0.0109282 0)
(7.34747 0.011258 0)
(7.34899 0.0115692 0)
(7.35052 0.0118752 0)
(7.35206 0.0121877 0)
(7.35361 0.0125163 0)
(7.35518 0.0128692 0)
(7.35679 0.0132525 0)
(7.35845 0.0136707 0)
(7.36017 0.0141254 0)
(7.36198 0.0146152 0)
(7.36389 0.0151344 0)
(7.36593 0.015672 0)
(7.36812 0.0162102 0)
(7.37049 0.0167234 0)
(7.37306 0.0171772 0)
(7.37584 0.0175278 0)
(7.37884 0.0177228 0)
(7.38206 0.0177036 0)
(7.38546 0.0174086 0)
(7.38902 0.0167803 0)
(7.39263 0.0157544 0)
(7.33303 0.000716203 0)
(7.33331 0.00212514 0)
(7.33389 0.00348781 0)
(7.33473 0.00473676 0)
(7.33576 0.0058318 0)
(7.33693 0.00676661 0)
(7.33822 0.00755283 0)
(7.33959 0.00820764 0)
(7.34101 0.00875138 0)
(7.34246 0.00920583 0)
(7.34395 0.00959181 0)
(7.34544 0.00992796 0)
(7.34695 0.0102306 0)
(7.34848 0.0105137 0)
(7.35001 0.0107891 0)
(7.35156 0.0110667 0)
(7.35313 0.0113542 0)
(7.35473 0.0116578 0)
(7.35637 0.0119813 0)
(7.35806 0.0123266 0)
(7.35981 0.0126929 0)
(7.36165 0.0130759 0)
(7.36358 0.0134675 0)
(7.36563 0.0138548 0)
(7.36782 0.0142192 0)
(7.37016 0.014536 0)
(7.37266 0.0147736 0)
(7.37534 0.0148947 0)
(7.37818 0.0148565 0)
(7.38118 0.0146137 0)
(7.38431 0.0141214 0)
(7.38754 0.0133399 0)
(7.39077 0.012227 0)
(7.33303 0.000635896 0)
(7.33329 0.00188664 0)
(7.33383 0.0031015 0)
(7.33462 0.00421971 0)
(7.33559 0.00520441 0)
(7.33671 0.00604801 0)
(7.33794 0.00675939 0)
(7.33926 0.00735308 0)
(7.34064 0.00784655 0)
(7.34206 0.00825856 0)
(7.34352 0.00860733 0)
(7.345 0.0089093 0)
(7.3465 0.00917882 0)
(7.34802 0.00942812 0)
(7.34955 0.00966732 0)
(7.35111 0.00990449 0)
(7.35269 0.0101457 0)
(7.35431 0.0103951 0)
(7.35597 0.0106547 0)
(7.35768 0.0109242 0)
(7.35945 0.0112007 0)
(7.36131 0.0114782 0)
(7.36325 0.011747 0)
(7.36529 0.0119935 0)
(7.36745 0.0121993 0)
(7.36974 0.0123416 0)
(7.37216 0.0123927 0)
(7.37471 0.0123215 0)
(7.37739 0.0120939 0)
(7.38019 0.0116757 0)
(7.38306 0.0110346 0)
(7.38599 0.0101442 0)
(7.3889 0.00897709 0)
(7.33303 0.000558082 0)
(7.33327 0.00165575 0)
(7.33379 0.00272736 0)
(7.33453 0.00371734 0)
(7.33545 0.0045914 0)
(7.33652 0.00534139 0)
(7.3377 0.00597414 0)
(7.33898 0.00650189 0)
(7.34032 0.00693963 0)
(7.34171 0.00730355 0)
(7.34314 0.00760944 0)
(7.34461 0.00787165 0)
(7.34609 0.00810266 0)
(7.34761 0.00831294 0)
(7.34915 0.00851093 0)
(7.35071 0.00870306 0)
(7.3523 0.00889376 0)
(7.35393 0.00908548 0)
(7.3556 0.00927857 0)
(7.35732 0.0094711 0)
(7.3591 0.00965866 0)
(7.36095 0.00983405 0)
(7.36288 0.00998693 0)
(7.3649 0.0101036 0)
(7.36702 0.0101671 0)
(7.36924 0.0101567 0)
(7.37157 0.0100491 0)
(7.37399 0.00981862 0)
(7.37651 0.00943892 0)
(7.3791 0.00888454 0)
(7.38174 0.00813299 0)
(7.38441 0.00716692 0)
(7.38704 0.00596922 0)
(7.33303 0.000482431 0)
(7.33326 0.00143127 0)
(7.33374 0.00236312 0)
(7.33445 0.00322661 0)
(7.33533 0.00398958 0)
(7.33636 0.00464367 0)
(7.3375 0.00519424 0)
(7.33873 0.00565162 0)
(7.34004 0.00602865 0)
(7.3414 0.00633926 0)
(7.34281 0.00659706 0)
(7.34426 0.00681444 0)
(7.34574 0.00700206 0)
(7.34725 0.00716873 0)
(7.34878 0.00732128 0)
(7.35035 0.00746462 0)
(7.35194 0.00760169 0)
(7.35357 0.00773348 0)
(7.35525 0.00785896 0)
(7.35697 0.00797498 0)
(7.35874 0.00807613 0)
(7.36058 0.00815457 0)
(7.36249 0.00819988 0)
(7.36447 0.00819905 0)
(7.36653 0.00813652 0)
(7.36868 0.00799447 0)
(7.3709 0.00775338 0)
(7.3732 0.00739279 0)
(7.37555 0.00689254 0)
(7.37796 0.00623413 0)
(7.38039 0.00540221 0)
(7.38282 0.00438593 0)
(7.3852 0.00317499 0)
(7.33302 0.000408571 0)
(7.33325 0.00121202 0)
(7.33371 0.00200667 0)
(7.33438 0.00274475 0)
(7.33523 0.00339589 0)
(7.33621 0.00395181 0)
(7.33732 0.00441683 0)
(7.33852 0.00479971 0)
(7.3398 0.00511145 0)
(7.34114 0.005364 0)
(7.34253 0.00556901 0)
(7.34396 0.00573701 0)
(7.34543 0.00587698 0)
(7.34693 0.00599614 0)
(7.34846 0.00609982 0)
(7.35003 0.00619154 0)
(7.35162 0.00627291 0)
(7.35325 0.00634371 0)
(7.35492 0.00640182 0)
(7.35663 0.00644323 0)
(7.35839 0.00646192 0)
(7.36021 0.00644986 0)
(7.36208 0.00639699 0)
(7.36401 0.00629129 0)
(7.36601 0.00611902 0)
(7.36807 0.00586504 0)
(7.37018 0.00551339 0)
(7.37235 0.00504804 0)
(7.37455 0.00445386 0)
(7.37678 0.0037177 0)
(7.37901 0.00282941 0)
(7.38124 0.00178257 0)
(7.3834 0.000571374 0)
(7.33302 0.00033613 0)
(7.33324 0.000996849 0)
(7.33368 0.00165603 0)
(7.33432 0.00226912 0)
(7.33514 0.00280738 0)
(7.33609 0.00326278 0)
(7.33717 0.00363899 0)
(7.33834 0.00394351 0)
(7.3396 0.00418576 0)
(7.34092 0.00437594 0)
(7.34229 0.00452394 0)
(7.34371 0.0046386 0)
(7.34517 0.0047273 0)
(7.34666 0.00479576 0)
(7.34818 0.00484797 0)
(7.34974 0.00488616 0)
(7.35133 0.0049108 0)
(7.35295 0.00492069 0)
(7.35461 0.00491288 0)
(7.3563 0.00488276 0)
(7.35804 0.00482408 0)
(7.35982 0.00472892 0)
(7.36165 0.00458786 0)
(7.36353 0.00439009 0)
(7.36546 0.00412371 0)
(7.36743 0.00377609 0)
(7.36943 0.00333442 0)
(7.37147 0.00278635 0)
(7.37353 0.00212072 0)
(7.37559 0.00132838 0)
(7.37765 0.000402913 0)
(7.37968 -0.000659081 0)
(7.38165 -0.00186041 0)
(7.33302 0.00026475 0)
(7.33323 0.000784672 0)
(7.33365 0.0013094 0)
(7.33427 0.00179728 0)
(7.33506 0.00222119 0)
(7.33599 0.00257357 0)
(7.33704 0.00285774 0)
(7.33819 0.00308022 0)
(7.33943 0.00324909 0)
(7.34073 0.00337304 0)
(7.34209 0.00346034 0)
(7.3435 0.00351828 0)
(7.34494 0.00355275 0)
(7.34643 0.0035681 0)
(7.34794 0.00356705 0)
(7.34949 0.00355072 0)
(7.35107 0.00351861 0)
(7.35268 0.00346869 0)
(7.35432 0.00339744 0)
(7.35599 0.00329993 0)
(7.3577 0.00316984 0)
(7.35944 0.00299965 0)
(7.36122 0.00278071 0)
(7.36304 0.00250348 0)
(7.36489 0.00215784 0)
(7.36676 0.0017334 0)
(7.36866 0.00122003 0)
(7.37058 0.000608331 0)
(7.3725 -0.000109742 0)
(7.37441 -0.000940347 0)
(7.3763 -0.00188726 0)
(7.37816 -0.00295189 0)
(7.37995 -0.00413511 0)
(7.33302 0.000194107 0)
(7.33322 0.000574517 0)
(7.33363 0.000965108 0)
(7.33423 0.00132691 0)
(7.335 0.00163452 0)
(7.33591 0.0018811 0)
(7.33694 0.00206994 0)
(7.33807 0.00220683 0)
(7.33929 0.00229874 0)
(7.34058 0.00235299 0)
(7.34192 0.00237642 0)
(7.34332 0.00237487 0)
(7.34476 0.00235284 0)
(7.34623 0.00231341 0)
(7.34774 0.00225817 0)
(7.34928 0.00218722 0)
(7.35084 0.00209924 0)
(7.35243 0.00199158 0)
(7.35405 0.00186028 0)
(7.3557 0.00170026 0)
(7.35737 0.00150537 0)
(7.35907 0.00126855 0)
(7.3608 0.000982007 0)
(7.36255 0.000637459 0)
(7.36432 0.000226383 0)
(7.3661 -0.000259631 0)
(7.3679 -0.000828517 0)
(7.36969 -0.00148728 0)
(7.37148 -0.00224162 0)
(7.37325 -0.0030955 0)
(7.37499 -0.00405086 0)
(7.3767 -0.00510785 0)
(7.37833 -0.00626611 0)
(7.33302 0.000123939 0)
(7.33321 0.000365571 0)
(7.33361 0.000621698 0)
(7.3342 0.000855853 0)
(7.33495 0.00104458 0)
(7.33584 0.00118221 0)
(7.33685 0.00127227 0)
(7.33797 0.00132009 0)
(7.33918 0.00133167 0)
(7.34046 0.00131315 0)
(7.34179 0.00127005 0)
(7.34318 0.00120684 0)
(7.34461 0.00112675 0)
(7.34608 0.00103165 0)
(7.34757 0.000922092 0)
(7.3491 0.00079729 0)
(7.35065 0.00065523 0)
(7.35222 0.000492739 0)
(7.35381 0.000305613 0)
(7.35543 8.87283e-05 0)
(7.35706 -0.000163812 0)
(7.35871 -0.000458519 0)
(7.36038 -0.000802333 0)
(7.36206 -0.00120239 0)
(7.36375 -0.00166579 0)
(7.36545 -0.0021993 0)
(7.36714 -0.00280904 0)
(7.36882 -0.00350018 0)
(7.37049 -0.00427664 0)
(7.37213 -0.00514083 0)
(7.37373 -0.00609349 0)
(7.3753 -0.00713397 0)
(7.37678 -0.00826117 0)
(7.33302 5.40778e-05 0)
(7.3332 0.000157267 0)
(7.33359 0.000277982 0)
(7.33416 0.000382091 0)
(7.3349 0.000448585 0)
(7.33578 0.000473534 0)
(7.33678 0.000461104 0)
(7.33789 0.000416318 0)
(7.33909 0.000344381 0)
(7.34037 0.000250375 0)
(7.3417 0.000138595 0)
(7.34308 1.22114e-05 0)
(7.3445 -0.00012682 0)
(7.34596 -0.000277755 0)
(7.34745 -0.00044104 0)
(7.34896 -0.000618256 0)
(7.35049 -0.000812032 0)
(7.35204 -0.00102594 0)
(7.35361 -0.00126434 0)
(7.35519 -0.00153232 0)
(7.35678 -0.00183544 0)
(7.35838 -0.00217966 0)
(7.35999 -0.0025711 0)
(7.36161 -0.00301589 0)
(7.36322 -0.0035199 0)
(7.36482 -0.00408853 0)
(7.36642 -0.00472648 0)
(7.36799 -0.00543751 0)
(7.36955 -0.00622423 0)
(7.37106 -0.00708797 0)
(7.37254 -0.00802866 0)
(7.37397 -0.00904519 0)
(7.37533 -0.010136 0)
(7.33302 -1.54758e-05 0)
(7.3332 -5.05392e-05 0)
(7.33357 -6.67973e-05 0)
(7.33413 -9.61873e-05 0)
(7.33486 -0.000156359 0)
(7.33573 -0.000248572 0)
(7.33673 -0.000367635 0)
(7.33784 -0.000508698 0)
(7.33903 -0.000667243 0)
(7.34031 -0.000839151 0)
(7.34164 -0.00102129 0)
(7.34302 -0.00121176 0)
(7.34444 -0.00140978 0)
(7.34589 -0.00161569 0)
(7.34736 -0.00183087 0)
(7.34886 -0.00205766 0)
(7.35037 -0.00229925 0)
(7.3519 -0.00255956 0)
(7.35344 -0.00284312 0)
(7.35498 -0.00315488 0)
(7.35653 -0.00350015 0)
(7.35808 -0.00388436 0)
(7.35963 -0.00431294 0)
(7.36118 -0.00479113 0)
(7.36272 -0.00532379 0)
(7.36424 -0.00591525 0)
(7.36574 -0.00656909 0)
(7.36722 -0.00728803 0)
(7.36866 -0.00807376 0)
(7.37007 -0.00892686 0)
(7.37142 -0.00984678 0)
(7.37274 -0.0108322 0)
(7.37398 -0.0118815 0)
(7.33302 -8.44207e-05 0)
(7.33319 -0.000257253 0)
(7.33355 -0.000412708 0)
(7.3341 -0.000580526 0)
(7.33482 -0.000773314 0)
(7.33569 -0.000988278 0)
(7.33669 -0.00121877 0)
(7.3378 -0.00145998 0)
(7.339 -0.00170801 0)
(7.34027 -0.00195974 0)
(7.34161 -0.00221346 0)
(7.34299 -0.00246868 0)
(7.34441 -0.00272594 0)
(7.34585 -0.00298666 0)
(7.34732 -0.00325308 0)
(7.3488 -0.00352821 0)
(7.3503 -0.00381566 0)
(7.3518 -0.0041196 0)
(7.35331 -0.00444458 0)
(7.35482 -0.00479544 0)
(7.35633 -0.00517714 0)
(7.35783 -0.00559462 0)
(7.35932 -0.0060527 0)
(7.3608 -0.00655586 0)
(7.36227 -0.00710815 0)
(7.36371 -0.00771305 0)
(7.36512 -0.00837332 0)
(7.3665 -0.0090909 0)
(7.36785 -0.00986684 0)
(7.36915 -0.0107013 0)
(7.3704 -0.0115933 0)
(7.37161 -0.0125416 0)
(7.37274 -0.0135442 0)
(7.33302 -0.000151875 0)
(7.33318 -0.000460912 0)
(7.33352 -0.000758684 0)
(7.33406 -0.00107215 0)
(7.33477 -0.00140556 0)
(7.33564 -0.00175021 0)
(7.33665 -0.00209798 0)
(7.33777 -0.00244414 0)
(7.33898 -0.00278486 0)
(7.34027 -0.00311756 0)
(7.34161 -0.00344171 0)
(7.343 -0.0037584 0)
(7.34442 -0.00406968 0)
(7.34586 -0.00437837 0)
(7.34732 -0.00468789 0)
(7.34879 -0.00500218 0)
(7.35027 -0.00532554 0)
(7.35175 -0.00566254 0)
(7.35323 -0.0060179 0)
(7.35471 -0.00639642 0)
(7.35617 -0.0068028 0)
(7.35763 -0.00724162 0)
(7.35906 -0.00771715 0)
(7.36048 -0.00823326 0)
(7.36187 -0.00879335 0)
(7.36324 -0.0094002 0)
(7.36457 -0.0100559 0)
(7.36587 -0.0107619 0)
(7.36712 -0.0115188 0)
(7.36833 -0.0123263 0)
(7.36948 -0.0131836 0)
(7.37059 -0.0140894 0)
(7.37162 -0.015042 0)
(7.33302 -0.000215796 0)
(7.33316 -0.000656883 0)
(7.33348 -0.00110163 0)
(7.334 -0.00157216 0)
(7.33471 -0.00205759 0)
(7.33559 -0.00253996 0)
(7.33661 -0.00301041 0)
(7.33775 -0.00346605 0)
(7.33898 -0.00390471 0)
(7.34029 -0.00432538 0)
(7.34165 -0.00472894 0)
(7.34304 -0.0051175 0)
(7.34447 -0.00549383 0)
(7.34592 -0.00586132 0)
(7.34738 -0.00622391 0)
(7.34884 -0.00658594 0)
(7.35031 -0.00695199 0)
(7.35177 -0.00732683 0)
(7.35322 -0.00771525 0)
(7.35466 -0.008122 0)
(7.35608 -0.00855166 0)
(7.35749 -0.00900855 0)
(7.35887 -0.00949664 0)
(7.36023 -0.0100194 0)
(7.36156 -0.0105799 0)
(7.36285 -0.0111804 0)
(7.36411 -0.0118228 0)
(7.36532 -0.0125082 0)
(7.36649 -0.0132368 0)
(7.36761 -0.0140085 0)
(7.36867 -0.0148223 0)
(7.36969 -0.0156768 0)
(7.37063 -0.0165702 0)
(7.33301 -0.000271747 0)
(7.33313 -0.000835602 0)
(7.33341 -0.00143443 0)
(7.3339 -0.00207956 0)
(7.33461 -0.00273549 0)
(7.33551 -0.00337099 0)
(7.33656 -0.00397243 0)
(7.33772 -0.00453383 0)
(7.33898 -0.00505305 0)
(7.3403 -0.00553308 0)
(7.34168 -0.00598029 0)
(7.34309 -0.00640155 0)
(7.34453 -0.00680323 0)
(7.34598 -0.00719135 0)
(7.34744 -0.00757171 0)
(7.3489 -0.00794976 0)
(7.35035 -0.00833068 0)
(7.35179 -0.00871936 0)
(7.35322 -0.00912045 0)
(7.35463 -0.00953832 0)
(7.35602 -0.00997705 0)
(7.35739 -0.0104404 0)
(7.35872 -0.0109316 0)
(7.36003 -0.0114536 0)
(7.36129 -0.0120087 0)
(7.36252 -0.0125988 0)
(7.36371 -0.0132252 0)
(7.36485 -0.0138886 0)
(7.36594 -0.0145892 0)
(7.36699 -0.0153265 0)
(7.36797 -0.0160997 0)
(7.36891 -0.0169079 0)
(7.36977 -0.0177498 0)
(7.33301 -0.000309277 0)
(7.33307 -0.000979126 0)
(7.33327 -0.00174956 0)
(7.33372 -0.00259027 0)
(7.33444 -0.00342654 0)
(7.33537 -0.00423349 0)
(7.33647 -0.00501145 0)
(7.33769 -0.00575202 0)
(7.339 -0.00644312 0)
(7.34037 -0.00708052 0)
(7.34179 -0.00766702 0)
(7.34322 -0.00820807 0)
(7.34468 -0.00871 0)
(7.34614 -0.00917984 0)
(7.34759 -0.00962494 0)
(7.34904 -0.0100526 0)
(7.35048 -0.0104696 0)
(7.35189 -0.0108826 0)
(7.35329 -0.0112974 0)
(7.35467 -0.0117196 0)
(7.35602 -0.0121542 0)
(7.35733 -0.0126054 0)
(7.35862 -0.0130772 0)
(7.35986 -0.0135726 0)
(7.36107 -0.0140944 0)
(7.36224 -0.0146444 0)
(7.36336 -0.0152242 0)
(7.36443 -0.0158345 0)
(7.36545 -0.0164755 0)
(7.36642 -0.0171471 0)
(7.36733 -0.0178483 0)
(7.36818 -0.0185781 0)
(7.36896 -0.0193347 0)
(7.33299 -0.000302176 0)
(7.33294 -0.00103848 0)
(7.33301 -0.00204282 0)
(7.33341 -0.00316188 0)
(7.33414 -0.0041846 0)
(7.33508 -0.00505548 0)
(7.33618 -0.00580483 0)
(7.33741 -0.0064644 0)
(7.33875 -0.00705598 0)
(7.34016 -0.00759812 0)
(7.34162 -0.00810561 0)
(7.3431 -0.00858859 0)
(7.34459 -0.00905415 0)
(7.34608 -0.00950783 0)
(7.34756 -0.0099542 0)
(7.34902 -0.0103971 0)
(7.35047 -0.01084 0)
(7.35189 -0.0112862 0)
(7.35328 -0.0117388 0)
(7.35464 -0.0122009 0)
(7.35597 -0.0126753 0)
(7.35726 -0.0131645 0)
(7.35851 -0.0136711 0)
(7.35972 -0.0141969 0)
(7.36089 -0.0147437 0)
(7.36201 -0.0153127 0)
(7.36308 -0.0159049 0)
(7.3641 -0.0165208 0)
(7.36506 -0.0171605 0)
(7.36598 -0.0178238 0)
(7.36683 -0.0185102 0)
(7.36764 -0.0192195 0)
(7.36837 -0.0199508 0)
(7.33295 -0.000206226 0)
(7.33262 -0.000904049 0)
(7.33242 -0.00213055 0)
(7.3328 -0.00370265 0)
(7.33371 -0.00538899 0)
(7.33486 -0.00704283 0)
(7.33613 -0.0085514 0)
(7.33748 -0.00985131 0)
(7.33888 -0.0109397 0)
(7.34031 -0.0118445 0)
(7.34175 -0.0125974 0)
(7.34321 -0.0132267 0)
(7.34466 -0.0137585 0)
(7.3461 -0.0142162 0)
(7.34754 -0.0146195 0)
(7.34896 -0.0149845 0)
(7.35036 -0.0153244 0)
(7.35174 -0.0156498 0)
(7.35309 -0.0159695 0)
(7.35442 -0.0162906 0)
(7.35571 -0.0166188 0)
(7.35697 -0.0169589 0)
(7.35819 -0.0173145 0)
(7.35937 -0.0176885 0)
(7.36051 -0.0180832 0)
(7.3616 -0.0185002 0)
(7.36264 -0.0189403 0)
(7.36363 -0.0194042 0)
(7.36457 -0.019892 0)
(7.36546 -0.0204032 0)
(7.36629 -0.0209371 0)
(7.36706 -0.0214926 0)
(7.36775 -0.0220683 0)
(7.3329 0.000125117 0)
(7.33207 -0.000873183 0)
(7.33126 -0.00214947 0)
(7.33112 -0.00277589 0)
(7.33164 -0.00301318 0)
(7.33263 -0.00332464 0)
(7.33395 -0.00382137 0)
(7.33549 -0.00444065 0)
(7.33715 -0.00513487 0)
(7.33884 -0.00588381 0)
(7.34053 -0.00666774 0)
(7.34222 -0.00746564 0)
(7.34388 -0.00826165 0)
(7.34551 -0.00904602 0)
(7.34711 -0.00981307 0)
(7.34868 -0.0105598 0)
(7.35022 -0.0112854 0)
(7.35172 -0.0119907 0)
(7.35318 -0.0126773 0)
(7.35461 -0.0133478 0)
(7.356 -0.014005 0)
(7.35734 -0.0146515 0)
(7.35865 -0.0152904 0)
(7.35991 -0.0159243 0)
(7.36112 -0.0165555 0)
(7.36229 -0.017186 0)
(7.3634 -0.0178178 0)
(7.36446 -0.0184522 0)
(7.36547 -0.0190903 0)
(7.36643 -0.0197331 0)
(7.36732 -0.020381 0)
(7.36817 -0.0210346 0)
(7.36895 -0.0216943 0)
(7.33241 0.00207647 0)
(7.33046 -0.000567397 0)
(7.33032 -0.00724845 0)
(7.33143 -0.0136448 0)
(7.33245 -0.0183052 0)
(7.33323 -0.0214337 0)
(7.33411 -0.023447 0)
(7.33522 -0.0246496 0)
(7.33651 -0.025279 0)
(7.33792 -0.0255242 0)
(7.33945 -0.025524 0)
(7.34107 -0.0253756 0)
(7.34277 -0.0251461 0)
(7.34452 -0.0248811 0)
(7.34631 -0.0246105 0)
(7.34812 -0.0243538 0)
(7.34994 -0.0241233 0)
(7.35175 -0.0239265 0)
(7.35355 -0.0237679 0)
(7.35533 -0.0236494 0)
(7.35708 -0.0235721 0)
(7.35879 -0.0235356 0)
(7.36046 -0.0235394 0)
(7.36208 -0.0235823 0)
(7.36364 -0.023663 0)
(7.36515 -0.0237799 0)
(7.36661 -0.0239313 0)
(7.368 -0.0241156 0)
(7.36932 -0.024331 0)
(7.37058 -0.0245759 0)
(7.37177 -0.0248485 0)
(7.37289 -0.0251477 0)
(7.37392 -0.0254728 0)
(7.32878 0.00628646 0)
(7.31725 0.0179696 0)
(7.31243 0.0251977 0)
(7.31398 0.0272746 0)
(7.31785 0.0259892 0)
(7.32207 0.0231958 0)
(7.32633 0.0198509 0)
(7.33061 0.0163114 0)
(7.33481 0.0127603 0)
(7.33888 0.00933693 0)
(7.34282 0.00612658 0)
(7.34662 0.00316199 0)
(7.3503 0.000446225 0)
(7.35385 -0.00202988 0)
(7.35728 -0.00428122 0)
(7.36059 -0.00632615 0)
(7.36379 -0.00818446 0)
(7.36688 -0.00987577 0)
(7.36985 -0.0114187 0)
(7.37271 -0.0128303 0)
(7.37546 -0.0141264 0)
(7.3781 -0.015321 0)
(7.38063 -0.0164267 0)
(7.38306 -0.0174548 0)
(7.38537 -0.0184149 0)
(7.38758 -0.0193157 0)
(7.38968 -0.0201648 0)
(7.39168 -0.0209686 0)
(7.39357 -0.0217327 0)
(7.39537 -0.0224618 0)
(7.39705 -0.0231596 0)
(7.39865 -0.023829 0)
(7.40013 -0.0244743 0)
(7.33379 -0.0332925 0)
(7.33301 -0.0722896 0)
(7.32814 -0.0856451 0)
(7.32658 -0.0870616 0)
(7.33016 -0.0846533 0)
(7.33742 -0.0806744 0)
(7.34643 -0.0758265 0)
(7.35599 -0.0707649 0)
(7.36556 -0.0659459 0)
(7.37489 -0.0615411 0)
(7.3838 -0.0575786 0)
(7.39221 -0.0540489 0)
(7.40007 -0.0509296 0)
(7.40737 -0.0481875 0)
(7.41413 -0.045784 0)
(7.42037 -0.0436807 0)
(7.42612 -0.0418427 0)
(7.43141 -0.0402384 0)
(7.43627 -0.0388398 0)
(7.44071 -0.0376224 0)
(7.44478 -0.0365647 0)
(7.44848 -0.0356481 0)
(7.45185 -0.0348563 0)
(7.45491 -0.0341753 0)
(7.45767 -0.0335928 0)
(7.46016 -0.0330981 0)
(7.46238 -0.0326817 0)
(7.46436 -0.0323356 0)
(7.46611 -0.0320525 0)
(7.46764 -0.0318263 0)
(7.46896 -0.0316515 0)
(7.4701 -0.031524 0)
(7.47104 -0.0314391 0)
(7.33141 0.164999 0)
(7.34787 0.185191 0)
(7.36036 0.152164 0)
(7.35684 0.118075 0)
(7.3428 0.0898462 0)
(7.32407 0.067436 0)
(7.30276 0.0499205 0)
(7.27968 0.0361701 0)