/*--------------------------------*- C++ -*----------------------------------*\
  =========                 |
  \\      /  F ield         | OpenFOAM: The Open Source CFD Toolbox
   \\    /   O peration     | Website:  https://openfoam.org
    \\  /    A nd           | Version:  10
     \\/     M anipulation  |
\*---------------------------------------------------------------------------*/
FoamFile
{
    format      ascii;
    class       volScalarField;
    location    "2000";
    object      yPlus;
}
// * * * * * * * * * * * * * * * * * * * * * * * * * * * * * * * * * * * * * //

dimensions      [0 0 0 0 0 0 0];

internalField   uniform 0;

boundaryField
{
    outlet
    {
        type            calculated;
        value           uniform 0;
    }
    inlet
    {
        type            calculated;
        value           uniform 0;
    }
    lowerWall
    {
        type            calculated;
        value           nonuniform List<scalar> 
148
(
9.9937
9.87583
9.76655
9.65577
9.54325
9.43227
9.32599
9.22676
9.13585
9.05377
8.9806
8.916
8.85951
8.8106
8.76861
8.73297
8.7031
8.67842
8.6584
8.64256
8.6305
8.62178
8.61605
8.61299
8.61229
8.61382
8.61699
8.62211
8.63347
8.61088
8.59276
8.82912
5.30307
5.14339
7.58523
9.30071
10.5102
11.2704
10.8206
11.5504
11.4909
11.8248
11.7837
11.8871
12.4388
12.6562
9.25856
22.5655
5.14339
11.7781
12.1141
12.2503
12.2245
12.0893
11.9476
11.9167
12.1458
12.8849
14.6351
17.5775
21.0941
24.6941
28.1783
31.4776
34.5754
37.4768
40.1957
42.7477
45.1483
47.4119
49.5517
51.5799
53.5076
55.3449
57.1004
58.781
60.3918
61.9352
63.412
64.8205
66.1581
67.4218
68.6104
69.7261
70.7725
71.7344
72.6107
73.4034
74.1153
74.7516
75.3203
75.8316
76.2973
76.7293
77.1385
77.5335
77.9195
78.2982
78.6669
79.0195
79.347
79.6381
79.8804
80.0616
80.1703
80.1976
80.1376
79.9878
79.7493
79.4267
79.0278
78.5627
78.0426
77.4784
76.8796
76.2548
75.613
74.9617
74.3061
73.6641
73.17
73.0497
73.1761
73.5158
74.0425
74.7118
75.4627
76.2089
76.8316
77.1992
77.2081
76.8112
76.0208
74.891
73.4955
71.9102
70.203
68.4293
66.6319
64.8422
63.0843
61.3757
59.7189
58.1088
56.559
55.0635
53.7426
51.8233
)
;
    }
    upperWall
    {
        type            calculated;
        value           nonuniform List<scalar> 
133
(
30.6045
31.4255
32.2162
32.9719
33.6929
34.3806
35.0365
35.6619
36.2579
36.8255
37.3659
37.8801
38.369
38.8338
39.2755
39.695
40.0933
40.4713
40.8299
41.1701
41.4927
41.7985
42.0885
42.3632
42.6235
42.8701
43.1038
43.3251
43.5346
43.7331
43.921
44.0989
44.2674
44.4527
44.6553
44.8511
45.0397
45.2209
45.3948
45.561
45.7195
45.8702
46.0129
46.1476
46.2741
46.3923
46.5021
46.6035
46.6962
46.7803
46.8556
46.9221
46.9795
47.0279
47.0671
47.097
47.1175
47.1284
47.1297
47.1212
47.1027
47.0741
47.0352
46.9859
46.9259
46.855
46.7731
46.6799
46.5752
46.4589
46.3307
46.1905
46.0381
45.8734
45.6964
45.5069
45.305
45.0907
44.864
44.625
44.3739
44.1109
43.8362
43.5502
43.2533
42.946
42.6288
42.3027
41.9686
41.6277
41.2815
40.9316
40.5802
40.2294
39.8821
39.541
39.2093
38.8901
38.5869
38.3027
38.0407
37.8033
37.5928
37.4106
37.2572
37.1326
37.0355
36.9639
36.9151
36.8855
36.8715
36.8687
36.8716
36.8798
36.8907
36.8996
36.9031
36.8993
36.8868
36.8656
36.8356
36.7971
36.7509
36.6977
36.6386
36.5746
36.5068
36.436
36.3624
36.2882
36.208
36.143
36.0148
)
;
    }
    frontAndBack
    {
        type            empty;
    }
}


// ************************************************************************* //
