# y+ ()       
# Time        	patch         	min           	max           	average       
0             	lowerWall	1.006593e+01	4.177766e+01	3.237005e+01
0             	upperWall	3.019780e+01	3.019780e+01	3.019780e+01
