/*--------------------------------*- C++ -*----------------------------------*\
  =========                 |
  \\      /  F ield         | OpenFOAM: The Open Source CFD Toolbox
   \\    /   O peration     | Website:  https://openfoam.org
    \\  /    A nd           | Version:  10
     \\/     M anipulation  |
\*---------------------------------------------------------------------------*/
FoamFile
{
    format      ascii;
    class       volScalarField;
    location    "1700";
    object      epsilon;
}
// * * * * * * * * * * * * * * * * * * * * * * * * * * * * * * * * * * * * * //

dimensions      [0 2 -3 0 0 0 0];

internalField   nonuniform List<scalar> 
6820
(
23.348
22.8004
22.2986
21.7956
21.2906
20.7983
20.3323
19.9019
19.5117
19.1628
18.8543
18.5842
18.3497
18.1479
17.9757
17.8302
17.7088
17.609
17.5284
17.4651
17.4171
17.3827
17.3606
17.3493
17.3478
17.3551
17.3693
17.3968
17.4055
17.4743
17.5147
18.2678
5.37035
5.24752
7.40648
8.54812
9.16398
9.55054
9.84231
10.0973
10.3411
10.5845
10.8314
11.083
11.3392
11.5996
11.8633
12.1298
12.3984
12.6685
12.9396
13.2115
13.4838
13.7565
14.0296
14.3037
14.5793
14.8579
15.1418
15.4342
15.7442
16.0693
16.4892
16.8645
18.0196
15.1894
3.71892
4.27984
4.80503
5.21579
5.52698
5.76879
5.96516
6.13249
6.28161
6.41961
6.55117
6.67936
6.80621
6.933
7.06053
7.18929
7.31954
7.45138
7.58487
7.71999
7.85675
7.99516
8.13533
8.27744
8.42191
8.5695
8.72112
8.87954
9.04734
9.23385
9.42148
9.80562
9.83229
3.53759
3.62334
3.7716
3.93764
4.09562
4.23627
4.3586
4.46479
4.55788
4.64076
4.71589
4.7853
4.85056
4.91292
4.97332
5.03251
5.09102
5.14928
5.20761
5.26623
5.32536
5.38515
5.44577
5.50741
5.57031
5.63486
5.70151
5.77123
5.84556
5.92632
6.01228
6.13674
6.26431
3.52015
3.50151
3.51115
3.54399
3.59071
3.64323
3.69627
3.74699
3.79416
3.8375
3.87719
3.91364
3.94734
3.97875
4.00835
4.03651
4.06359
4.08988
4.11563
4.14105
4.16632
4.19162
4.21709
4.24289
4.26919
4.29622
4.32427
4.35376
4.38539
4.41998
4.45768
4.50399
4.56344
3.51931
3.48209
3.45346
3.43537
3.42736
3.42746
3.43329
3.4427
3.45408
3.46631
3.47867
3.49075
3.50234
3.51335
3.52379
3.53369
3.54314
3.55221
3.56099
3.56958
3.57807
3.58652
3.59505
3.60372
3.61266
3.62199
3.63186
3.64249
3.6542
3.66739
3.68234
3.70009
3.7227
3.51943
3.47964
3.44271
3.40975
3.38151
3.35815
3.33934
3.32446
3.31276
3.30357
3.29627
3.29039
3.28555
3.28146
3.27795
3.27486
3.2721
3.26962
3.26737
3.26534
3.26352
3.26193
3.26057
3.25949
3.2587
3.25828
3.2583
3.25885
3.26009
3.2622
3.26538
3.26991
3.27624
3.51947
3.47942
3.44106
3.40466
3.37057
3.33904
3.3102
3.28404
3.26041
3.23911
3.21988
3.20245
3.18659
3.17206
3.15868
3.14629
3.13476
3.12397
3.11385
3.10432
3.09533
3.08684
3.07883
3.07127
3.06416
3.0575
3.05133
3.04567
3.0406
3.03618
3.03254
3.02978
3.02794
3.51948
3.47941
3.44084
3.40381
3.36834
3.33453
3.30242
3.27208
3.24349
3.21665
3.19146
3.16786
3.14572
3.12495
3.10542
3.08702
3.06967
3.05327
3.03774
3.023
3.009
2.99568
2.983
2.97093
2.95943
2.94849
2.9381
2.92828
2.91903
2.91039
2.90241
2.89513
2.88853
3.51948
3.47941
3.44082
3.40368
3.36795
3.3336
3.30062
3.269
3.23874
3.2098
3.18218
3.15584
3.13073
3.10681
3.08402
3.0623
3.04158
3.02182
3.00296
2.98494
2.96772
2.95124
2.93547
2.92037
2.90591
2.89207
2.87883
2.86618
2.85413
2.84267
2.83182
2.82162
2.812
3.51948
3.4794
3.44081
3.40365
3.36787
3.33342
3.30024
3.2683
3.23755
3.20797
3.17951
3.15216
3.12587
3.10062
3.07636
3.05307
3.0307
3.00921
2.98857
2.96874
2.94968
2.93136
2.91375
2.89681
2.88053
2.86487
2.84982
2.83538
2.82152
2.80825
2.79556
2.78347
2.77192
3.51948
3.4794
3.4408
3.40364
3.36785
3.33338
3.30016
3.26814
3.23728
3.20752
3.17882
3.15115
3.12446
3.09873
3.07392
3.04999
3.02692
3.00467
2.98321
2.96252
2.94255
2.9233
2.90472
2.8868
2.86952
2.85284
2.83677
2.82128
2.80636
2.79201
2.77821
2.76498
2.75226
3.51948
3.4794
3.4408
3.40363
3.36784
3.33336
3.30013
3.2681
3.2372
3.2074
3.17864
3.15088
3.12408
3.0982
3.0732
3.04906
3.02573
3.00319
2.98141
2.96036
2.94001
2.92034
2.90133
2.88295
2.86518
2.84801
2.83141
2.81538
2.7999
2.78497
2.77057
2.75669
2.74331
3.51948
3.47939
3.44079
3.40362
3.36783
3.33335
3.30011
3.26807
3.23717
3.20736
3.17858
3.1508
3.12397
3.09805
3.073
3.04879
3.02538
3.00274
2.98085
2.95967
2.93918
2.91935
2.90017
2.8816
2.86363
2.84624
2.82941
2.81313
2.79739
2.78217
2.76747
2.75326
2.73953
3.51947
3.47939
3.44079
3.40362
3.36782
3.33334
3.3001
3.26806
3.23715
3.20733
3.17855
3.15076
3.12392
3.09799
3.07292
3.04869
3.02526
3.0026
2.98067
2.95946
2.93892
2.91904
2.89979
2.88116
2.86311
2.84564
2.82872
2.81234
2.79648
2.78114
2.76629
2.75192
2.73801
3.51947
3.47939
3.44078
3.40361
3.36781
3.33333
3.30009
3.26804
3.23713
3.20731
3.17852
3.15073
3.12389
3.09795
3.07288
3.04865
3.02521
3.00254
2.98061
2.95938
2.93883
2.91893
2.89967
2.88101
2.86294
2.84544
2.82849
2.81207
2.79616
2.78076
2.76584
2.7514
2.7374
3.51947
3.47939
3.44078
3.40361
3.36781
3.33332
3.30008
3.26803
3.23712
3.20729
3.1785
3.15071
3.12386
3.09792
3.07285
3.04862
3.02518
3.00251
2.98057
2.95934
2.93879
2.91889
2.89962
2.88095
2.86288
2.84537
2.8284
2.81196
2.79604
2.78061
2.76565
2.75117
2.73712
3.51947
3.47939
3.44078
3.4036
3.3678
3.33331
3.30007
3.26802
3.2371
3.20728
3.17849
3.15069
3.12384
3.0979
3.07283
3.04859
3.02515
3.00248
2.98054
2.95931
2.93876
2.91886
2.89959
2.88092
2.86284
2.84532
2.82835
2.8119
2.79597
2.78052
2.76554
2.75103
2.73695
3.51947
3.47939
3.44078
3.4036
3.3678
3.3333
3.30006
3.26801
3.23709
3.20726
3.17847
3.15067
3.12382
3.09788
3.07281
3.04857
3.02513
3.00246
2.98052
2.95929
2.93873
2.91883
2.89956
2.88089
2.86281
2.84529
2.82831
2.81186
2.79591
2.78045
2.76546
2.75093
2.73682
3.51947
3.47939
3.44078
3.4036
3.36779
3.3333
3.30005
3.268
3.23708
3.20725
3.17846
3.15066
3.12381
3.09786
3.07279
3.04855
3.02511
3.00244
2.9805
2.95926
2.93871
2.91881
2.89954
2.88087
2.86278
2.84526
2.82828
2.81182
2.79586
2.78039
2.76538
2.75083
2.73671
3.51947
3.47939
3.44077
3.4036
3.36779
3.33329
3.30005
3.26799
3.23707
3.20724
3.17845
3.15064
3.12379
3.09785
3.07277
3.04853
3.02509
3.00242
2.98048
2.95925
2.93869
2.91879
2.89952
2.88085
2.86276
2.84523
2.82824
2.81177
2.79581
2.78033
2.76531
2.75074
2.73661
3.51947
3.47939
3.44077
3.40359
3.36779
3.33329
3.30004
3.26798
3.23706
3.20723
3.17844
3.15063
3.12378
3.09784
3.07276
3.04852
3.02508
3.0024
2.98046
2.95923
2.93867
2.91877
2.8995
2.88082
2.86273
2.8452
2.82821
2.81173
2.79576
2.78027
2.76524
2.75066
2.73651
3.51947
3.47938
3.44077
3.40359
3.36778
3.33329
3.30004
3.26798
3.23706
3.20722
3.17843
3.15063
3.12377
3.09783
3.07275
3.04851
3.02507
3.00239
2.98045
2.95922
2.93866
2.91875
2.89948
2.8808
2.86271
2.84517
2.82817
2.81169
2.79571
2.78021
2.76517
2.75058
2.73642
3.51947
3.47938
3.44077
3.40359
3.36778
3.33328
3.30003
3.26797
3.23705
3.20722
3.17842
3.15062
3.12376
3.09782
3.07274
3.0485
3.02506
3.00238
2.98044
2.9592
2.93865
2.91874
2.89946
2.88078
2.86268
2.84514
2.82814
2.81165
2.79567
2.78016
2.76511
2.75051
2.73633
3.51947
3.47938
3.44077
3.40359
3.36778
3.33328
3.30003
3.26797
3.23705
3.20721
3.17842
3.15061
3.12376
3.09781
3.07274
3.04849
3.02505
3.00237
2.98043
2.95919
2.93863
2.91873
2.89944
2.88076
2.86266
2.84512
2.82811
2.81162
2.79562
2.78011
2.76505
2.75044
2.73626
3.51947
3.47938
3.44077
3.40359
3.36778
3.33328
3.30003
3.26797
3.23705
3.20721
3.17841
3.15061
3.12375
3.09781
3.07273
3.04849
3.02504
3.00236
2.98042
2.95918
2.93862
2.91871
2.89943
2.88075
2.86264
2.84509
2.82808
2.81158
2.79558
2.78006
2.76499
2.75038
2.73618
3.51947
3.47938
3.44077
3.40359
3.36778
3.33328
3.30003
3.26797
3.23704
3.20721
3.17841
3.15061
3.12375
3.0978
3.07273
3.04848
3.02504
3.00236
2.98042
2.95918
2.93861
2.9187
2.89942
2.88073
2.86262
2.84507
2.82805
2.81155
2.79554
2.78001
2.76494
2.75032
2.73612
3.51947
3.47938
3.44077
3.40359
3.36778
3.33328
3.30003
3.26797
3.23704
3.20721
3.17841
3.15061
3.12375
3.0978
3.07273
3.04848
3.02504
3.00236
2.98041
2.95917
2.93861
2.91869
2.89941
2.88072
2.86261
2.84505
2.82803
2.81152
2.79551
2.77997
2.7649
2.75027
2.73606
3.51947
3.47938
3.44077
3.40359
3.36778
3.33328
3.30003
3.26797
3.23704
3.20721
3.17841
3.15061
3.12375
3.0978
3.07273
3.04848
3.02504
3.00236
2.98041
2.95917
2.9386
2.91869
2.8994
2.88071
2.86259
2.84503
2.82801
2.81149
2.79548
2.77994
2.76486
2.75022
2.736
3.51947
3.47938
3.44077
3.40359
3.36778
3.33328
3.30002
3.26797
3.23704
3.20721
3.17841
3.15061
3.12375
3.09781
3.07273
3.04849
3.02504
3.00236
2.98041
2.95917
2.9386
2.91869
2.89939
2.8807
2.86258
2.84502
2.82799
2.81148
2.79546
2.77991
2.76483
2.75019
2.73597
3.51947
3.47938
3.44077
3.40359
3.36778
3.33328
3.30003
3.26797
3.23704
3.20721
3.17841
3.15061
3.12376
3.09781
3.07273
3.04849
3.02504
3.00236
2.98042
2.95917
2.93861
2.91869
2.8994
2.8807
2.86258
2.84502
2.82799
2.81147
2.79545
2.7799
2.76482
2.75017
2.73595
3.51947
3.47938
3.44077
3.40359
3.36778
3.33328
3.30003
3.26797
3.23705
3.20721
3.17842
3.15062
3.12377
3.09782
3.07275
3.04851
3.02507
3.00239
2.98045
2.95921
2.93865
2.91873
2.89944
2.88075
2.86264
2.84509
2.82806
2.81155
2.79554
2.78
2.76493
2.75029
2.73608
3.51947
3.47938
3.44077
3.40359
3.36778
3.33328
3.30003
3.26797
3.23705
3.20722
3.17843
3.15063
3.12379
3.09785
3.07279
3.04856
3.02514
3.00248
2.98056
2.95935
2.93881
2.91893
2.89968
2.88103
2.86296
2.84545
2.82848
2.81202
2.79606
2.78058
2.76556
2.75099
2.73685
3.51947
3.47938
3.44077
3.40359
3.36778
3.33329
3.30005
3.26801
3.23712
3.20733
3.17858
3.15084
3.12406
3.0982
3.07322
3.0491
3.02578
3.00325
2.98146
2.9604
2.94003
2.92032
2.90125
2.8828
2.86494
2.84765
2.83091
2.81469
2.79898
2.78375
2.769
2.7547
2.74083
3.51947
3.47938
3.44077
3.40361
3.36785
3.33342
3.30029
3.26839
3.23768
3.20812
3.17966
3.15226
3.12587
3.10047
3.076
3.05244
3.02974
3.00787
2.98679
2.96648
2.9469
2.92802
2.90981
2.89224
2.87529
2.85892
2.84312
2.82786
2.81312
2.79887
2.78509
2.77177
2.75889
3.51947
3.47942
3.44096
3.40413
3.36894
3.33534
3.30328
3.27271
3.24357
3.21581
3.18936
3.16418
3.1402
3.11736
3.09562
3.0749
3.05516
3.03634
3.01839
3.00126
2.9849
2.96926
2.9543
2.93999
2.92627
2.91313
2.90052
2.88841
2.87678
2.8656
2.85484
2.84448
2.83449
3.5195
3.48076
3.44538
3.41321
3.38398
3.3575
3.33359
3.31208
3.29279
3.27552
3.26008
3.24629
3.23397
3.22297
3.21313
3.20431
3.1964
3.18927
3.18285
3.17703
3.17174
3.1669
3.16247
3.15838
3.15459
3.15106
3.14775
3.14463
3.14167
3.13885
3.13614
3.13354
3.13102
3.52508
3.51485
3.52108
3.53664
3.55863
3.58551
3.61623
3.64986
3.6856
3.72275
3.76076
3.79919
3.83768
3.87594
3.91376
3.95096
3.9874
4.023
4.05767
4.09137
4.12406
4.15571
4.18632
4.21589
4.24442
4.27193
4.29842
4.32393
4.34846
4.37206
4.39474
4.41653
4.43747
3.842
4.38778
4.8774
5.34227
5.79397
6.23399
6.66033
7.07169
7.46808
7.85009
8.21848
8.57402
8.91746
9.24953
9.57087
9.88204
10.1835
10.4758
10.7592
11.0342
11.3009
11.5598
11.8112
12.0551
12.292
12.5221
12.7455
12.9625
13.1732
13.378
13.577
13.7703
13.9583
30.2673
32.7691
35.3054
37.8487
40.3862
42.91
45.4131
47.8887
50.3301
52.7313
55.087
57.3928
59.6446
61.8391
63.9737
66.0461
68.0549
69.9989
71.8775
73.6904
75.4376
77.1195
78.7369
80.2905
81.7816
83.2113
84.5811
85.8924
87.1468
88.3461
89.492
90.586
91.6309
261.808
452.199
541.789
688.408
912.317
1060.69
1075.82
1011.3
920.592
829.119
746.298
674.829
614.599
564.361
522.534
487.556
458.005
432.627
410.359
390.368
372.091
355.256
339.861
326.094
314.21
304.379
296.558
290.435
285.464
280.988
276.375
271.119
264.874
257.443
248.762
238.902
228.081
216.674
205.194
194.224
184.321
175.897
169.128
163.912
159.909
156.636
153.584
150.325
146.567
142.173
137.144
131.583
125.66
119.573
113.513
107.64
102.068
96.8619
92.0432
87.6063
83.5323
79.8003
76.3935
73.2976
70.4965
67.9659
65.6694
63.5582
61.5744
59.6577
57.7522
55.8125
53.8063
51.716
49.5363
47.2726
44.9371
42.5463
40.1181
37.6705
35.22
32.781
30.3644
27.9746
25.6075
23.2476
20.9121
18.868
17.8452
18.484
20.5153
23.113
25.6151
27.7066
29.3044
30.4315
31.151
31.5218
31.6684
31.3324
44.8599
104.081
143.987
173.409
231.515
338.431
459.151
542.583
573.355
566.125
539.995
507.556
475.115
445.294
418.913
395.961
376.031
358.532
342.822
328.334
314.691
301.777
289.738
278.917
269.716
262.438
257.137
253.535
251.046
248.897
246.296
242.578
237.29
230.206
221.323
210.834
199.118
186.71
174.251
162.417
151.82
142.91
135.893
130.69
126.965
124.211
121.871
119.453
116.604
113.134
109.011
104.323
99.236
93.9547
88.6818
83.59
78.8043
74.3967
70.3926
66.7843
63.5468
60.651
58.0704
55.7827
53.7656
51.9915
50.4228
49.0114
47.7012
46.4338
45.1555
43.8225
42.4041
40.8837
39.2576
37.532
35.7204
33.8405
31.9118
29.9537
27.9843
26.02
24.0743
22.1545
20.2586
18.3771
16.5428
15.0303
14.5288
15.6011
17.9399
20.7461
23.403
25.6272
27.3506
28.6015
29.4431
29.933
30.1886
29.9996
10.6056
17.6694
27.319
33.2289
36.9856
47.7336
75.5509
120.229
170.872
214.508
244.238
260.239
265.962
265.174
260.802
254.777
248.206
241.591
235.041
228.476
221.82
215.13
208.66
202.833
198.139
194.992
193.569
193.698
194.837
196.176
196.813
195.947
193.011
187.737
180.152
170.549
159.437
147.474
135.392
123.912
113.657
105.083
98.4155
93.6262
90.4387
88.3921
86.9435
85.5797
83.9034
81.6765
78.8202
75.3883
71.5258
67.4243
63.2828
59.276
55.5344
52.1368
49.114
46.4606
44.1504
42.1497
40.4269
38.955
37.7098
36.6647
35.7868
35.0343
34.3577
33.7049
33.0267
32.2821
31.4418
30.4898
29.4217
28.2435
26.9683
25.6134
24.1984
22.7429
21.2656
19.7841
18.3132
16.8631
15.4346
14.0213
12.6568
11.5881
11.4352
12.7207
15.1783
18.0717
20.8203
23.1515
24.9959
26.377
27.3527
27.9765
28.3552
28.3369
6.22496
6.67916
8.11688
9.61879
9.93325
9.60762
10.7523
15.8318
26.3392
41.5594
59.2719
76.4713
90.9892
101.956
109.503
114.271
117.019
118.388
118.817
118.554
117.75
116.558
115.215
114.072
113.559
114.102
115.995
119.251
123.518
128.094
132.074
134.56
134.856
132.59
127.751
120.655
111.868
102.102
92.1088
82.5782
74.0679
66.9644
61.4679
57.5895
55.1566
53.8388
53.2054
52.8088
52.2668
51.318
49.8412
47.8423
45.4215
42.7335
39.9491
37.2248
34.6825
32.4001
30.4127
28.7212
27.3046
26.1326
25.1749
24.4057
23.8036
23.3482
23.0161
22.7772
22.5944
22.4264
22.2318
21.9743
21.6262
21.1707
20.6017
19.9224
19.1432
18.279
17.3474
16.3667
15.3545
14.3277
13.3013
12.2874
11.2897
10.3033
9.34892
8.61901
8.64657
9.94405
12.3429
15.1985
17.9627
20.3589
22.3041
23.8084
24.9189
25.6825
26.1916
26.3615
4.60303
4.63909
4.83411
5.1995
5.43855
5.28788
4.95317
5.04752
6.14988
8.47774
11.9988
16.5017
21.514
26.4884
30.9911
34.7852
37.8164
40.1484
41.8935
43.1664
44.0702
44.7087
45.2086
45.74
46.5259
47.8378
49.9603
53.1048
57.2756
62.156
67.1056
71.3034
73.9755
74.5992
73.0115
69.4071
64.2542
58.1671
51.7765
45.6272
40.1231
35.5172
31.9313
29.3826
27.7987
27.0223
26.8205
26.9153
27.032
26.95
26.536
25.7505
24.6341
23.2794
21.8017
20.3134
18.9067
17.6451
16.5622
15.6663
14.9479
14.3883
13.9669
13.6651
13.4686
13.3655
13.3432
13.3857
13.4715
13.5737
13.6624
13.7087
13.6881
13.5832
13.3848
13.0916
12.7089
12.247
11.7191
11.1397
10.5235
9.8849
9.23723
8.59236
7.95694
7.32802
6.70995
6.22327
6.28915
7.41864
9.58581
12.2685
14.9543
17.3546
19.3626
20.9675
22.2009
23.1
23.7382
24.1059
3.74927
3.76974
3.80481
3.88616
3.98154
3.9986
3.89844
3.78119
3.82306
4.14218
4.75025
5.63598
6.74713
7.99551
9.27877
10.5049
11.6089
12.5572
13.3426
13.9763
14.4804
14.8849
15.2287
15.5621
15.9507
16.4798
17.2596
18.4203
20.0775
22.2614
24.8342
27.4617
29.6841
31.0635
31.3297
30.453
28.623
26.1618
23.422
20.7071
18.2331
16.1264
14.4435
13.1966
12.3698
11.9234
11.7889
11.8668
12.0365
12.1786
12.1997
12.0488
11.7202
11.2439
10.671
10.058
9.4555
8.90222
8.42252
8.02775
7.719
7.49082
7.3348
7.24245
7.20687
7.2229
7.2861
7.39084
7.52844
7.68608
7.84713
7.99286
8.10493
8.16786
8.17078
8.10826
7.98005
7.79027
7.54623
7.25716
6.93316
6.58445
6.22107
5.85278
5.48722
5.12475
4.7605
4.44779
4.46981
5.30217
7.08232
9.45023
11.9466
14.2698
16.2834
17.9495
19.2794
20.2974
21.0541
21.6185
3.2857
3.29548
3.30489
3.32167
3.34704
3.36327
3.34809
3.30525
3.27318
3.29695
3.39762
3.58059
3.83809
4.15198
4.49812
4.85133
5.18974
5.4975
5.76571
5.9918
6.17827
6.33159
6.46146
6.58055
6.70455
6.85284
7.05046
7.33018
7.73069
8.2842
8.99223
9.80034
10.5929
11.2215
11.5577
11.5382
11.1806
10.5648
9.7979
8.98208
8.19586
7.48969
6.89073
6.41097
6.05406
5.81823
5.69481
5.66468
5.69692
5.75258
5.7929
5.78825
5.72366
5.59931
5.42697
5.22457
5.01125
4.80393
4.6155
4.45439
4.32491
4.22811
4.16287
4.12709
4.11865
4.13593
4.17786
4.24329
4.3301
4.43419
4.54895
4.66544
4.7733
4.86214
4.92299
4.94938
4.93784
4.88791
4.80172
4.68331
4.53797
4.37159
4.19031
4.0007
3.80925
3.61892
3.42452
3.23751
3.20674
3.70569
4.99817
6.92225
9.10882
11.257
13.2006
14.8714
16.256
17.3631
18.2166
18.9639
3.02716
3.02705
3.02667
3.02666
3.02828
3.02939
3.0242
3.00938
2.99013
2.97812
2.98367
3.01308
3.0678
3.14494
3.23849
3.34099
3.44498
3.54419
3.63417
3.71253
3.77876
3.834
3.88068
3.92226
3.96299
4.00776
4.06236
4.13407
4.23184
4.36455
4.53616
4.73941
4.95219
5.14079
5.27009
5.31559
5.27046
5.1451
4.96098
4.74293
4.51339
4.28958
4.08324
3.90179
3.74988
3.63049
3.54485
3.49144
3.46491
3.45602
3.45328
3.44555
3.42456
3.38633
3.3311
3.26226
3.18498
3.10485
3.02703
2.95573
2.89399
2.84368
2.80566
2.7801
2.76679
2.76547
2.77602
2.79843
2.8325
2.87745
2.93143
2.9913
3.05266
3.11037
3.15912
3.19423
3.21215
3.21082
3.1897
3.14962
3.09247
3.02085
2.93783
2.84702
2.75276
2.65863
2.56267
2.46114
2.4097
2.63887
3.44041
4.84177
6.61042
8.47897
10.2636
11.8672
13.2499
14.4026
15.3197
16.2211
2.88177
2.87488
2.86817
2.86125
2.85423
2.84702
2.83861
2.82771
2.81443
2.80091
2.79016
2.78502
2.78732
2.79751
2.81471
2.83707
2.86229
2.88806
2.91246
2.93418
2.95255
2.96758
2.97979
2.99017
3.00004
3.01086
3.02429
3.04221
3.06686
3.10054
3.14461
3.19795
3.25581
3.31016
3.35164
3.3723
3.36787
3.33836
3.28729
3.22019
3.14309
3.06142
2.97962
2.90108
2.82842
2.76368
2.70846
2.66362
2.62892
2.60274
2.58226
2.56404
2.54487
2.52236
2.49532
2.4637
2.42836
2.39068
2.35227
2.31474
2.27952
2.24776
2.22029
2.19762
2.18007
2.16777
2.16087
2.15953
2.16391
2.17404
2.18963
2.20985
2.23326
2.25781
2.28107
2.30049
2.31379
2.31916
2.31549
2.30237
2.28007
2.24941
2.2116
2.16834
2.12202
2.07547
2.02917
1.97836
1.93446
2.00478
2.41373
3.30152
4.5902
6.08931
7.6243
9.07977
10.3924
11.5349
12.4715
13.4823
2.80155
2.79027
2.77927
2.76822
2.75697
2.74549
2.73367
2.72125
2.70805
2.69431
2.68063
2.66784
2.65671
2.64779
2.64123
2.63683
2.63406
2.63225
2.63074
2.62895
2.62652
2.6233
2.61935
2.61494
2.61049
2.60653
2.60362
2.60239
2.60352
2.60769
2.61534
2.62629
2.63937
2.6524
2.66258
2.66718
2.66419
2.65267
2.6328
2.60557
2.57243
2.535
2.49486
2.45345
2.41206
2.37189
2.334
2.29926
2.26821
2.24095
2.21702
2.19557
2.17555
2.1559
2.13582
2.11479
2.09265
2.06949
2.04561
2.02147
1.99755
1.97436
1.95236
1.93191
1.91331
1.89679
1.8825
1.87063
1.86134
1.8548
1.85109
1.85011
1.85152
1.85469
1.85868
1.86238
1.86463
1.86432
1.86059
1.85286
1.84089
1.82477
1.80485
1.78182
1.75682
1.73163
1.70747
1.68207
1.65362
1.65784
1.82063
2.29468
3.11798
4.20183
5.41505
6.64532
7.81569
8.88433
9.78814
10.8486
2.75915
2.74508
2.73125
2.71749
2.70364
2.68965
2.67551
2.66118
2.64663
2.63184
2.61687
2.60187
2.58706
2.57266
2.55883
2.54566
2.53311
2.52106
2.50935
2.49779
2.48624
2.47461
2.46288
2.45113
2.43949
2.42819
2.4175
2.40769
2.39907
2.39192
2.38645
2.38264
2.38019
2.37842
2.37637
2.37298
2.36724
2.3584
2.34605
2.33008
2.31065
2.28814
2.26304
2.23599
2.20763
2.17868
2.14984
2.12179
2.09508
2.07009
2.04698
2.02567
2.00587
1.98719
1.9692
1.95149
1.93376
1.91579
1.89748
1.87885
1.85997
1.84098
1.82208
1.80344
1.78524
1.76764
1.7508
1.73484
1.71991
1.70614
1.69367
1.68258
1.67288
1.66444
1.65701
1.6502
1.64351
1.63642
1.62844
1.61914
1.60826
1.59568
1.58144
1.56577
1.54917
1.53261
1.51711
1.50214
1.48481
1.47197
1.5155
1.72013
2.16837
2.8575
3.71989
4.67069
5.63593
6.56811
7.38422
8.42381
2.73807
2.72227
2.70667
2.69116
2.67563
2.66005
2.64438
2.62865
2.61284
2.59693
2.58091
2.56477
2.54856
2.53233
2.51614
2.50006
2.48414
2.46838
2.45278
2.43729
2.42188
2.40651
2.39117
2.37588
2.36071
2.34576
2.33121
2.31723
2.30403
2.29181
2.28072
2.27081
2.26202
2.25409
2.24662
2.2391
2.23095
2.22163
2.21067
2.19774
2.18264
2.16534
2.14597
2.12478
2.10215
2.07852
2.05439
2.03029
2.00667
1.98392
1.96231
1.94195
1.92284
1.90481
1.88767
1.87113
1.85493
1.83884
1.82267
1.80629
1.78963
1.77268
1.75547
1.73807
1.72056
1.70303
1.68558
1.66831
1.65131
1.6347
1.61858
1.60306
1.58823
1.57412
1.56071
1.54793
1.53562
1.52359
1.51161
1.49948
1.48701
1.4741
1.46072
1.44692
1.43292
1.41919
1.40636
1.3945
1.38206
1.36839
1.36858
1.43337
1.63322
2.00836
2.54756
3.20629
3.92992
4.6772
5.35791
6.30414
2.7283
2.7115
2.69484
2.67826
2.66169
2.64511
2.62848
2.61182
2.59511
2.57836
2.56155
2.54465
2.52766
2.51059
2.49346
2.47629
2.45913
2.44199
2.42489
2.40783
2.39082
2.37384
2.35689
2.33998
2.32315
2.30647
2.29006
2.27406
2.25864
2.24398
2.23021
2.21744
2.20566
2.19477
2.18455
2.17469
2.1648
2.15446
2.14326
2.13086
2.11698
2.1015
2.08438
2.06573
2.04578
2.02483
2.00326
1.98147
1.95985
1.93873
1.91837
1.89892
1.88045
1.86291
1.84618
1.83007
1.8144
1.79894
1.78352
1.768
1.75225
1.73622
1.71987
1.7032
1.68624
1.66904
1.65164
1.63411
1.61652
1.59895
1.58149
1.56423
1.54725
1.53061
1.51439
1.49859
1.48322
1.46823
1.45355
1.43912
1.42485
1.41069
1.39661
1.38265
1.36888
1.35556
1.34298
1.33127
1.3198
1.30731
1.29632
1.30457
1.37112
1.53875
1.82746
2.22829
2.71266
3.2547
3.77126
4.56308
2.72407
2.70673
2.68947
2.67227
2.6551
2.63792
2.62071
2.60348
2.58621
2.56892
2.55158
2.53418
2.51671
2.49917
2.48156
2.4639
2.4462
2.42849
2.41077
2.39306
2.37537
2.35769
2.34003
2.3224
2.30482
2.28734
2.27007
2.25312
2.23662
2.22073
2.2056
2.19132
2.17793
2.16539
2.15354
2.14218
2.131
2.11967
2.10785
2.09523
2.08156
2.06666
2.05046
2.03301
2.01445
1.99499
1.97493
1.95459
1.93427
1.91427
1.89482
1.87606
1.85807
1.84085
1.82432
1.80835
1.79279
1.77748
1.76226
1.74699
1.73155
1.71588
1.69991
1.68362
1.66701
1.65009
1.63288
1.61543
1.59779
1.58002
1.56218
1.54434
1.52658
1.50896
1.49155
1.4744
1.45755
1.44101
1.4248
1.40891
1.39332
1.37804
1.36305
1.34839
1.33411
1.32032
1.30717
1.29468
1.28259
1.27015
1.25715
1.24798
1.25794
1.3133
1.43933
1.64736
1.93096
2.28121
2.6322
3.23481
2.72233
2.7047
2.68712
2.66958
2.65206
2.63454
2.617
2.59944
2.58185
2.56423
2.54657
2.52887
2.51112
2.4933
2.47544
2.45752
2.43957
2.42159
2.4036
2.3856
2.3676
2.34962
2.33164
2.31368
2.29577
2.27795
2.26029
2.24289
2.22586
2.20934
2.19344
2.17828
2.16389
2.15027
2.13731
2.12484
2.11265
2.10046
2.08797
2.07493
2.06111
2.04635
2.03056
2.01374
1.99599
1.97748
1.95841
1.93905
1.91965
1.90045
1.88165
1.86339
1.84575
1.82872
1.81228
1.79632
1.78073
1.76537
1.75011
1.73483
1.71944
1.70386
1.68802
1.6719
1.65547
1.63874
1.62171
1.60441
1.58689
1.56917
1.55131
1.53337
1.51542
1.49749
1.47967
1.46199
1.44452
1.42727
1.4103
1.39362
1.37725
1.36121
1.34551
1.33019
1.31528
1.30086
1.28698
1.2736
1.26053
1.24741
1.23381
1.22042
1.21165
1.21857
1.25761
1.34404
1.48396
1.68122
1.89059
2.30323
2.7216
2.70382
2.68606
2.66834
2.65062
2.6329
2.61518
2.59743
2.57966
2.56185
2.54402
2.52615
2.50824
2.49028
2.47227
2.45423
2.43615
2.41805
2.39993
2.3818
2.36367
2.34555
2.32744
2.30934
2.2913
2.27333
2.2555
2.23789
2.22058
2.2037
2.18735
2.17161
2.15653
2.14212
2.12831
2.11497
2.10193
2.08897
2.07586
2.06236
2.04829
2.03348
2.01787
2.00142
1.98421
1.96634
1.94799
1.92935
1.91064
1.89205
1.87376
1.85587
1.83848
1.82159
1.80517
1.78917
1.77348
1.75801
1.74263
1.72726
1.7118
1.69619
1.68037
1.66429
1.64795
1.63133
1.61443
1.59727
1.57988
1.56229
1.54453
1.52667
1.50873
1.49079
1.47289
1.45507
1.43738
1.41987
1.40257
1.38552
1.36873
1.35225
1.3361
1.3203
1.3049
1.28992
1.27539
1.26124
1.24731
1.23338
1.21918
1.2047
1.19091
1.18131
1.18305
1.20619
1.25906
1.35136
1.45662
1.70696
2.72126
2.70338
2.68553
2.66769
2.64986
2.63203
2.61418
2.59633
2.57845
2.56054
2.54261
2.52465
2.50665
2.48861
2.47054
2.45244
2.43431
2.41615
2.39798
2.3798
2.36162
2.34345
2.32528
2.30714
2.28905
2.27103
2.25313
2.23542
2.21797
2.20087
2.18421
2.16806
2.15247
2.13745
2.12295
2.10889
2.09513
2.0815
2.0678
2.05385
2.03948
2.02456
2.00901
1.99279
1.97594
1.95855
1.94073
1.92266
1.90449
1.88639
1.86849
1.85091
1.83372
1.81693
1.80053
1.78447
1.76868
1.75307
1.73756
1.72206
1.7065
1.69081
1.67495
1.65887
1.64256
1.626
1.60919
1.59214
1.57487
1.55741
1.53978
1.52204
1.50421
1.48635
1.4685
1.4507
1.43299
1.41541
1.39801
1.3808
1.36383
1.34712
1.3307
1.31459
1.29884
1.28345
1.26841
1.25367
1.23908
1.22447
1.20969
1.19467
1.17959
1.16532
1.15424
1.15082
1.16025
1.19137
1.23109
1.36075
2.72105
2.70312
2.68519
2.66728
2.64937
2.63147
2.61355
2.59562
2.57767
2.5597
2.54171
2.52369
2.50565
2.48757
2.46947
2.45134
2.43319
2.41502
2.39683
2.37864
2.36045
2.34227
2.32409
2.30595
2.28784
2.26981
2.25189
2.23413
2.21659
2.19935
2.18247
2.16601
2.15003
2.13452
2.11947
2.10481
2.09043
2.07621
2.06199
2.04761
2.03294
2.01786
2.0023
1.98621
1.96961
1.95257
1.93517
1.91753
1.8998
1.88209
1.86453
1.8472
1.83017
1.81347
1.79708
1.78097
1.76509
1.74936
1.73373
1.71811
1.70244
1.68666
1.67074
1.65464
1.63833
1.6218
1.60505
1.58809
1.57092
1.55357
1.53608
1.51846
1.50075
1.48301
1.46525
1.44753
1.42987
1.41232
1.39491
1.37767
1.36062
1.3438
1.32723
1.31094
1.29494
1.27925
1.26385
1.24867
1.23359
1.21848
1.20323
1.18781
1.17224
1.15674
1.14196
1.12944
1.12134
1.12285
1.12842
1.17984
2.72089
2.70291
2.68494
2.66698
2.64902
2.63105
2.61308
2.5951
2.5771
2.55908
2.54105
2.523
2.50492
2.48682
2.4687
2.45056
2.4324
2.41423
2.39605
2.37786
2.35967
2.34149
2.32333
2.30519
2.2871
2.26908
2.25115
2.23336
2.21577
2.19842
2.18137
2.16468
2.14838
2.13249
2.11698
2.10182
2.08692
2.07219
2.0575
2.04273
2.02777
2.01251
1.99689
1.98086
1.96443
1.94764
1.93056
1.91326
1.89587
1.87848
1.8612
1.84409
1.8272
1.81058
1.79421
1.77806
1.76211
1.74629
1.73054
1.71481
1.69904
1.68319
1.6672
1.65107
1.63475
1.61824
1.60154
1.58464
1.56756
1.55031
1.53293
1.51543
1.49784
1.48021
1.46257
1.44494
1.42737
1.40988
1.3925
1.37527
1.35821
1.34135
1.3247
1.30829
1.29213
1.27623
1.26055
1.24505
1.22961
1.21414
1.19855
1.18281
1.16696
1.15105
1.13526
1.12006
1.10613
1.09571
1.08718
1.09516
2.72075
2.70274
2.68474
2.66673
2.64872
2.63071
2.61269
2.59467
2.57663
2.55858
2.54051
2.52243
2.50433
2.48621
2.46808
2.44993
2.43177
2.4136
2.39542
2.37724
2.35906
2.34089
2.32274
2.30462
2.28654
2.26853
2.2506
2.2328
2.21516
2.19773
2.18055
2.16367
2.14712
2.13091
2.11503
2.09945
2.08411
2.06895
2.05385
2.03874
2.0235
2.00805
1.99234
1.97633
1.96
1.94339
1.92654
1.90951
1.89239
1.87526
1.8582
1.84127
1.82451
1.80796
1.79161
1.77544
1.75943
1.74353
1.7277
1.71187
1.69602
1.68009
1.66406
1.64789
1.63156
1.61507
1.59839
1.58155
1.56455
1.54739
1.5301
1.51271
1.49524
1.47772
1.46018
1.44265
1.42516
1.40775
1.39043
1.37323
1.35619
1.33931
1.32262
1.30613
1.28986
1.2738
1.25793
1.24218
1.22648
1.21074
1.1949
1.17895
1.16289
1.14678
1.13067
1.11471
1.09912
1.08452
1.07147
1.05904
2.72062
2.70259
2.68455
2.66651
2.64847
2.63042
2.61237
2.5943
2.57623
2.55815
2.54005
2.52194
2.50382
2.48569
2.46754
2.44939
2.43122
2.41305
2.39487
2.3767
2.35853
2.34037
2.32223
2.30412
2.28606
2.26805
2.25012
2.2323
2.21462
2.19713
2.17984
2.1628
2.14604
2.12957
2.11338
2.09746
2.08176
2.06622
2.05078
2.03535
2.01986
2.00423
1.98842
1.97238
1.95611
1.93961
1.92293
1.9061
1.88919
1.87227
1.85539
1.83861
1.82196
1.80547
1.78915
1.77297
1.75692
1.74096
1.72505
1.70916
1.69323
1.67725
1.66117
1.64497
1.62863
1.61214
1.5955
1.57871
1.56177
1.54469
1.52749
1.5102
1.49283
1.47541
1.45797
1.44053
1.42313
1.40579
1.38854
1.37138
1.35436
1.33749
1.32078
1.30424
1.28789
1.27171
1.25568
1.23975
1.22386
1.20792
1.1919
1.17579
1.15959
1.14335
1.1271
1.1109
1.09486
1.07892
1.06477
1.0441
2.72051
2.70245
2.68439
2.66632
2.64824
2.63016
2.61208
2.59398
2.57588
2.55777
2.53965
2.52152
2.50337
2.48522
2.46706
2.4489
2.43072
2.41255
2.39437
2.3762
2.35803
2.33988
2.32175
2.30365
2.28559
2.26758
2.24965
2.23182
2.2141
2.19655
2.17917
2.162
2.14507
2.12838
2.11194
2.09573
2.07972
2.06387
2.04813
2.03242
2.0167
2.0009
1.98497
1.96889
1.95264
1.93621
1.91964
1.90296
1.88621
1.86945
1.85271
1.83605
1.8195
1.80307
1.78677
1.77059
1.75451
1.7385
1.72254
1.70659
1.69061
1.67457
1.65845
1.64223
1.62589
1.60941
1.5928
1.57605
1.55916
1.54215
1.52504
1.50783
1.49055
1.47323
1.45588
1.43854
1.42122
1.40396
1.38676
1.36966
1.35267
1.33581
1.31909
1.30252
1.2861
1.26984
1.25369
1.23762
1.22157
1.20549
1.18934
1.17311
1.15682
1.14049
1.12416
1.10785
1.09169
1.07531
1.06099
1.03738
2.7204
2.70233
2.68424
2.66615
2.64804
2.62994
2.61182
2.5937
2.57557
2.55743
2.53929
2.52113
2.50297
2.4848
2.46663
2.44845
2.43027
2.41208
2.39391
2.37573
2.35757
2.33942
2.32129
2.30319
2.28513
2.26712
2.24918
2.23133
2.21358
2.19597
2.17851
2.16123
2.14415
2.12729
2.11063
2.09418
2.07792
2.0618
2.0458
2.02985
2.01392
1.99796
1.98192
1.96577
1.94951
1.93312
1.91663
1.90005
1.88342
1.86678
1.85016
1.8336
1.81712
1.80074
1.78446
1.76828
1.75218
1.73614
1.72013
1.70413
1.68811
1.67204
1.65589
1.63965
1.62331
1.60684
1.59025
1.57354
1.55671
1.53977
1.52273
1.5056
1.48841
1.47118
1.45392
1.43666
1.41943
1.40223
1.3851
1.36805
1.35109
1.33425
1.31753
1.30094
1.28449
1.26815
1.25191
1.23573
1.21957
1.20338
1.18713
1.17082
1.15446
1.13807
1.12169
1.10533
1.08912
1.07258
1.05825
1.03369
2.72031
2.70221
2.68411
2.66599
2.64787
2.62973
2.61159
2.59345
2.57529
2.55713
2.53896
2.52079
2.50261
2.48442
2.46623
2.44804
2.42985
2.41166
2.39347
2.37529
2.35712
2.33897
2.32084
2.30274
2.28468
2.26666
2.24871
2.23083
2.21305
2.19539
2.17786
2.16049
2.14329
2.12627
2.10943
2.09278
2.0763
2.05996
2.04373
2.02758
2.01146
1.99535
1.97919
1.96298
1.94668
1.93031
1.91386
1.89735
1.8808
1.86425
1.84772
1.83123
1.81481
1.79847
1.78222
1.76604
1.74992
1.73386
1.71782
1.70179
1.68573
1.66963
1.65347
1.63722
1.62088
1.60443
1.58787
1.5712
1.55442
1.53754
1.52057
1.50352
1.48642
1.46927
1.4521
1.43493
1.41777
1.40065
1.38358
1.36658
1.34967
1.33285
1.31614
1.29955
1.28306
1.26667
1.25036
1.2341
1.21785
1.20158
1.18526