/*--------------------------------*- C++ -*----------------------------------*\
  =========                 |
  \\      /  F ield         | OpenFOAM: The Open Source CFD Toolbox
   \\    /   O peration     | Website:  https://openfoam.org
    \\  /    A nd           | Version:  10
     \\/     M anipulation  |
\*---------------------------------------------------------------------------*/
FoamFile
{
    format      ascii;
    class       volScalarField;
    location    "1700";
    object      k;
}
// * * * * * * * * * * * * * * * * * * * * * * * * * * * * * * * * * * * * * //

dimensions      [0 2 -2 0 0 0 0];

internalField   nonuniform List<scalar> 
6820
(
0.19714
0.192517
0.18828
0.184033
0.179769
0.175612
0.171678
0.168044
0.164749
0.161803
0.159198
0.156918
0.154938
0.153234
0.151781
0.150553
0.149529
0.148687
0.148008
0.147475
0.147071
0.146782
0.146598
0.146505
0.146494
0.14656
0.146682
0.146916
0.147073
0.147426
0.147068
0.166238
0.144719
0.20725
0.212378
0.210058
0.205419
0.200997
0.197556
0.195151
0.193629
0.192803
0.192509
0.192617
0.193031
0.193678
0.194503
0.195465
0.196533
0.197682
0.198896
0.200158
0.201459
0.202791
0.204149
0.205532
0.206941
0.208382
0.20987
0.211424
0.213102
0.214894
0.2174
0.218964
0.228899
0.206063
0.200993
0.203847
0.20455
0.203317
0.201176
0.198803
0.196518
0.194453
0.192653
0.19112
0.189844
0.188805
0.187981
0.18735
0.186891
0.186584
0.186412
0.186359
0.186411
0.186555
0.186782
0.187082
0.187449
0.187877
0.188364
0.188911
0.189521
0.190214
0.191
0.192005
0.192822
0.195746
0.196016
0.199593
0.199508
0.199518
0.199121
0.198258
0.197061
0.195675
0.194213
0.192747
0.191325
0.189973
0.188708
0.187539
0.186467
0.185492
0.184612
0.183824
0.183122
0.182501
0.181957
0.181485
0.181081
0.18074
0.180461
0.18024
0.180078
0.179978
0.179947
0.179997
0.180165
0.180394
0.181079
0.182016
0.199411
0.198475
0.197748
0.197076
0.196333
0.19547
0.194494
0.19343
0.192314
0.191172
0.190029
0.188901
0.187801
0.186738
0.185718
0.184744
0.183819
0.182944
0.18212
0.181344
0.180617
0.179938
0.179305
0.178717
0.178175
0.177678
0.177229
0.176831
0.176492
0.176226
0.176033
0.175977
0.176128
0.199395
0.198255
0.197227
0.19629
0.195403
0.194525
0.193631
0.19271
0.191764
0.190799
0.189823
0.188845
0.187873
0.186913
0.185971
0.185051
0.184155
0.183287
0.182448
0.181638
0.18086
0.180113
0.179397
0.178713
0.178061
0.177441
0.176856
0.176307
0.175799
0.175338
0.17493
0.174588
0.174339
0.199395
0.198216
0.197096
0.196039
0.195039
0.194082
0.193155
0.192244
0.191342
0.190445
0.189551
0.188662
0.18778
0.186906
0.186044
0.185195
0.184361
0.183545
0.182747
0.181969
0.181212
0.180476
0.179761
0.17907
0.178401
0.177755
0.177135
0.176541
0.175976
0.175443
0.174947
0.174494
0.174088
0.199395
0.19821
0.197068
0.19597
0.194919
0.193911
0.192941
0.192004
0.191093
0.190205
0.189334
0.18848
0.18764
0.186814
0.186002
0.185204
0.184421
0.183652
0.182899
0.182162
0.181441
0.180737
0.18005
0.17938
0.178729
0.178096
0.177482
0.176888
0.176316
0.175769
0.175248
0.174758
0.174299
0.199395
0.198209
0.197062
0.195954
0.194885
0.193855
0.192861
0.191901
0.190974
0.190075
0.189202
0.188353
0.187526
0.186718
0.185928
0.185157
0.184402
0.183663
0.182941
0.182235
0.181544
0.180869
0.18021
0.179566
0.178939
0.178327
0.177732
0.177154
0.176594
0.176054
0.175536
0.175041
0.17457
0.199395
0.198209
0.197061
0.195951
0.194877
0.193838
0.192834
0.191864
0.190925
0.190017
0.189137
0.188283
0.187455
0.186649
0.185866
0.185104
0.184361
0.183637
0.182931
0.182242
0.18157
0.180914
0.180275
0.179651
0.179042
0.178449
0.177872
0.17731
0.176766
0.176238
0.17573
0.175241
0.174771
0.199395
0.198209
0.197061
0.19595
0.194874
0.193834
0.192827
0.191852
0.190908
0.189994
0.189108
0.18825
0.187418
0.186611
0.185827
0.185066
0.184326
0.183607
0.182907
0.182226
0.181563
0.180917
0.180288
0.179676
0.179079
0.178499
0.177934
0.177384
0.176851
0.176334
0.175835
0.175353
0.174888
0.199395
0.198209
0.19706
0.195949
0.194874
0.193832
0.192824
0.191848
0.190902
0.189985
0.189097
0.188237
0.187402
0.186593
0.185807
0.185045
0.184305
0.183586
0.182888
0.182209
0.181549
0.180907
0.180283
0.179676
0.179085
0.178511
0.177953
0.17741
0.176884
0.176374
0.17588
0.175402
0.17494
0.199395
0.198209
0.19706
0.195949
0.194873
0.193832
0.192823
0.191846
0.190899
0.189982
0.189093
0.188231
0.187395
0.186584
0.185798
0.185035
0.184294
0.183574
0.182876
0.182197
0.181538
0.180897
0.180274
0.179669
0.179081
0.178509
0.177954
0.177415
0.176892
0.176384
0.175893
0.175417
0.174956
0.199395
0.198209
0.19706
0.195949
0.194873
0.193831
0.192822
0.191845
0.190898
0.189981
0.189091
0.188229
0.187392
0.186581
0.185794
0.18503
0.184288
0.183568
0.182869
0.18219
0.181531
0.18089
0.180267
0.179663
0.179075
0.178505
0.17795
0.177412
0.17689
0.176383
0.175892
0.175416
0.174955
0.199395
0.198209
0.19706
0.195948
0.194872
0.193831
0.192822
0.191844
0.190897
0.18998
0.18909
0.188227
0.187391
0.186579
0.185791
0.185027
0.184285
0.183565
0.182866
0.182186
0.181527
0.180886
0.180263
0.179659
0.179071
0.178501
0.177947
0.177409
0.176886
0.176379
0.175888
0.175411
0.174948
0.199395
0.198208
0.19706
0.195948
0.194872
0.19383
0.192821
0.191844
0.190897
0.189979
0.189089
0.188226
0.187389
0.186578
0.18579
0.185025
0.184283
0.183563
0.182864
0.182184
0.181525
0.180884
0.180261
0.179656
0.179069
0.178498
0.177944
0.177405
0.176883
0.176375
0.175883
0.175405
0.17494
0.199395
0.198208
0.19706
0.195948
0.194872
0.19383
0.192821
0.191843
0.190896
0.189978
0.189088
0.188225
0.187388
0.186577
0.185789
0.185024
0.184282
0.183562
0.182862
0.182183
0.181523
0.180882
0.18026
0.179655
0.179067
0.178496
0.177942
0.177403
0.17688
0.176372
0.175878
0.175399
0.174933
0.199395
0.198208
0.19706
0.195948
0.194872
0.19383
0.19282
0.191843
0.190896
0.189978
0.189088
0.188225
0.187388
0.186576
0.185788
0.185023
0.184281
0.183561
0.182861
0.182182
0.181522
0.180881
0.180258
0.179654
0.179066
0.178495
0.17794
0.177401
0.176878
0.176369
0.175875
0.175394
0.174928
0.199395
0.198208
0.19706
0.195948
0.194871
0.193829
0.19282
0.191843
0.190895
0.189977
0.189087
0.188224
0.187387
0.186575
0.185787
0.185023
0.18428
0.18356
0.18286
0.182181
0.181521
0.18088
0.180258
0.179653
0.179065
0.178494
0.177939
0.1774
0.176875
0.176366
0.175871
0.17539
0.174923
0.199395
0.198208
0.197059
0.195948
0.194871
0.193829
0.19282
0.191842
0.190895
0.189977
0.189087
0.188224
0.187386
0.186574
0.185787
0.185022
0.18428
0.183559
0.18286
0.18218
0.18152
0.180879
0.180257
0.179652
0.179064
0.178493
0.177937
0.177398
0.176873
0.176364
0.175868
0.175386
0.174918
0.199395
0.198208
0.197059
0.195948
0.194871
0.193829
0.19282
0.191842
0.190895
0.189976
0.189086
0.188223
0.187386
0.186574
0.185786
0.185021
0.184279
0.183559
0.182859
0.18218
0.18152
0.180879
0.180256
0.179651
0.179063
0.178491
0.177936
0.177396
0.176871
0.176361
0.175865
0.175383
0.174914
0.199395
0.198208
0.197059
0.195947
0.194871
0.193829
0.19282
0.191842
0.190894
0.189976
0.189086
0.188223
0.187386
0.186574
0.185786
0.185021
0.184279
0.183558
0.182859
0.182179
0.181519
0.180878
0.180255
0.17965
0.179062
0.17849
0.177935
0.177395
0.176869
0.176359
0.175862
0.175379
0.17491
0.199395
0.198208
0.197059
0.195947
0.194871
0.193829
0.192819
0.191842
0.190894
0.189976
0.189086
0.188222
0.187385
0.186573
0.185785
0.185021
0.184278
0.183558
0.182858
0.182179
0.181519
0.180877
0.180254
0.179649
0.179061
0.178489
0.177933
0.177393
0.176868
0.176357
0.17586
0.175376
0.174906
0.199395
0.198208
0.197059
0.195947
0.194871
0.193829
0.192819
0.191841
0.190894
0.189976
0.189085
0.188222
0.187385
0.186573
0.185785
0.18502
0.184278
0.183557
0.182858
0.182178
0.181518
0.180877
0.180254
0.179648
0.17906
0.178488
0.177932
0.177391
0.176866
0.176354
0.175857
0.175373
0.174902
0.199395
0.198208
0.197059
0.195947
0.194871
0.193829
0.192819
0.191841
0.190894
0.189975
0.189085
0.188222
0.187385
0.186573
0.185785
0.18502
0.184278
0.183557
0.182857
0.182178
0.181518
0.180876
0.180253
0.179648
0.179059
0.178487
0.177931
0.17739
0.176864
0.176352
0.175855
0.175371
0.174899
0.199395
0.198208
0.197059
0.195947
0.194871
0.193829
0.192819
0.191841
0.190894
0.189975
0.189085
0.188222
0.187385
0.186572
0.185784
0.18502
0.184277
0.183557
0.182857
0.182177
0.181517
0.180876
0.180253
0.179647
0.179058
0.178486
0.17793
0.177389
0.176862
0.17635
0.175852
0.175368
0.174896
0.199395
0.198208
0.197059
0.195947
0.194871
0.193828
0.192819
0.191841
0.190894
0.189975
0.189085
0.188222
0.187385
0.186572
0.185784
0.18502
0.184277
0.183557
0.182857
0.182177
0.181517
0.180875
0.180252
0.179646
0.179058
0.178485
0.177929
0.177387
0.176861
0.176349
0.17585
0.175366
0.174894
0.199395
0.198208
0.197059
0.195947
0.194871
0.193828
0.192819
0.191841
0.190894
0.189975
0.189085
0.188222
0.187385
0.186572
0.185784
0.18502
0.184277
0.183556
0.182857
0.182177
0.181517
0.180875
0.180252
0.179646
0.179057
0.178484
0.177928
0.177386
0.176859
0.176347
0.175849
0.175363
0.174891
0.199395
0.198208
0.197059
0.195947
0.194871
0.193828
0.192819
0.191841
0.190894
0.189975
0.189085
0.188222
0.187385
0.186572
0.185784
0.18502
0.184277
0.183556
0.182857
0.182177
0.181516
0.180875
0.180251
0.179645
0.179056
0.178484
0.177927
0.177385
0.176858
0.176346
0.175847
0.175362
0.174889
0.199395
0.198208
0.197059
0.195947
0.194871
0.193828
0.192819
0.191841
0.190894
0.189975
0.189085
0.188222
0.187385
0.186572
0.185784
0.18502
0.184277
0.183557
0.182857
0.182177
0.181516
0.180875
0.180251
0.179645
0.179056
0.178483
0.177926
0.177384
0.176857
0.176345
0.175846
0.17536
0.174887
0.199395
0.198208
0.197059
0.195947
0.194871
0.193828
0.192819
0.191841
0.190894
0.189975
0.189085
0.188222
0.187385
0.186573
0.185785
0.18502
0.184277
0.183557
0.182857
0.182177
0.181517
0.180875
0.180251
0.179645
0.179056
0.178483
0.177926
0.177384
0.176857
0.176344
0.175844
0.175359
0.174886
0.199395
0.198208
0.197059
0.195947
0.194871
0.193828
0.192819
0.191841
0.190894
0.189976
0.189085
0.188222
0.187385
0.186573
0.185785
0.18502
0.184278
0.183557
0.182858
0.182178
0.181517
0.180876
0.180252
0.179646
0.179056
0.178483
0.177926
0.177384
0.176857
0.176344
0.175844
0.175358
0.174885
0.199395
0.198208
0.197059
0.195947
0.194871
0.193828
0.192819
0.191841
0.190894
0.189976
0.189086
0.188223
0.187386
0.186574
0.185786
0.185021
0.184279
0.183558
0.182859
0.182179
0.181518
0.180877
0.180253
0.179647
0.179057
0.178484
0.177926
0.177384
0.176856
0.176343
0.175843
0.175356
0.174883
0.199395
0.198208
0.197059
0.195947
0.194871
0.193829
0.19282
0.191843
0.190896
0.189978
0.189089
0.188227
0.18739
0.186579
0.185791
0.185027
0.184285
0.183565
0.182865
0.182185
0.181524
0.180882
0.180257
0.17965
0.179059
0.178485
0.177926
0.177382
0.176853
0.176337
0.175835
0.175347
0.174871
0.199395
0.198208
0.197059
0.195948
0.194872
0.193831
0.192824
0.191848
0.190902
0.189986
0.189098
0.188236
0.1874
0.186589
0.185802
0.185037
0.184294
0.183572
0.18287
0.182188
0.181525
0.180879
0.180251
0.17964
0.179045
0.178465
0.177901
0.177351
0.176816
0.176294
0.175786
0.175291
0.174807
0.199395
0.198209
0.197062
0.195955
0.194886
0.193853
0.192854
0.191885
0.190946
0.190033
0.189147
0.188285
0.187448
0.186633
0.18584
0.185068
0.184316
0.183584
0.182872
0.182177
0.181501
0.180842
0.180199
0.179573
0.178962
0.178366
0.177786
0.177219
0.176666
0.176127
0.175601
0.175087
0.174586
0.199395
0.198223
0.197106
0.196031
0.194987
0.19397
0.192976
0.192007
0.19106
0.190136
0.189233
0.188352
0.187493
0.186654
0.185835
0.185036
0.184256
0.183495
0.182753
0.182028
0.18132
0.180629
0.179955
0.179296
0.178653
0.178025
0.177411
0.176812
0.176226
0.175654
0.175095
0.174548
0.174014
0.19941
0.198319
0.197296
0.196301
0.195311
0.19432
0.193331
0.192349
0.191377
0.190422
0.189484
0.188567
0.187671
0.186796
0.185942
0.18511
0.184298
0.183506
0.182734
0.18198
0.181244
0.180526
0.179825
0.17914
0.178471
0.177818
0.177179
0.176556
0.175946
0.17535
0.174767
0.174198
0.173641
0.199716
0.199139
0.198469
0.197763
0.197071
0.196417
0.19581
0.195247
0.19473
0.194255
0.193822
0.193429
0.193074
0.192755
0.19247
0.192217
0.191995
0.1918
0.191632
0.191488
0.191367
0.191267
0.191186
0.191124
0.191078
0.191047
0.191031
0.191029
0.191038
0.191059
0.19109
0.191131
0.191181
0.205424
0.216593
0.227629
0.238434
0.248976
0.259243
0.269229
0.278926
0.288327
0.297427
0.30622
0.314707
0.322886
0.330758
0.338327
0.345595
0.352568
0.359252
0.365651
0.371775
0.377629
0.383222
0.388563
0.393659
0.398518
0.403151
0.407564
0.411767
0.415768
0.419575
0.423196
0.426639
0.429915
1.14224
1.99787
2.06637
2.00333
2.19418
2.45165
2.60215
2.64688
2.62682
2.57021
2.49481
2.41204
2.3291
2.25028
2.17803
2.1134
2.05637
2.00603
1.96097
1.91978
1.8816
1.84654
1.81583
1.79165
1.77649
1.77235
1.77983
1.79762
1.82239
1.84936
1.87319
1.88894
1.89281
1.88258
1.85778
1.81976
1.77147
1.71727
1.66243
1.61249
1.57244
1.54578
1.53365
1.53447
1.54434
1.55797
1.57
1.5761
1.57355
1.56139
1.54014
1.51146
1.47758
1.44095
1.40373
1.36764
1.33372
1.30243
1.27376
1.24751
1.22347
1.20155
1.18179
1.16431
1.14914
1.13612
1.12476
1.11429
1.10375
1.09215
1.07859
1.06241
1.04323
1.02091
0.995553
0.96742
0.936852
0.904233
0.869937
0.834307
0.797638
0.760189
0.72216
0.683565
0.64381
0.601782
0.560124
0.536651
0.563579
0.649306
0.761212
0.863961
0.942732
0.997148
1.03169
1.05117
1.0595
1.05943
1.05437
1.03671
0.350698
0.681317
0.878769
0.929685
0.983623
1.16474
1.43333
1.6721
1.82418
1.89874
1.92188
1.91408
1.88852
1.85375
1.81545
1.77729
1.7412
1.70773
1.67644
1.64655
1.61762
1.59006
1.56542
1.54622
1.53534
1.53519
1.54675
1.56891
1.59827
1.62971
1.65732
1.67552
1.68004
1.66844
1.64035
1.59739
1.54292
1.48164
1.41911
1.36109
1.31286
1.27833
1.25927
1.2548
1.26147
1.27416
1.28726
1.29593
1.29684
1.28848
1.27098
1.24573
1.21489
1.18093
1.14617
1.11253
1.08128
1.05307
1.02799
1.00587
0.986402
0.969384
0.954735
0.942461
0.932541
0.924786
0.918746
0.91369
0.908688
0.902748
0.894967
0.884648
0.871362
0.854948
0.835474
0.813179
0.788403
0.761538
0.732977
0.703087
0.672199
0.640611
0.60858
0.576208
0.543019
0.50793
0.473379
0.457056
0.491423
0.583981
0.700753
0.806642
0.887785
0.944433
0.9813
1.0032
1.01399
1.01633
1.01353
0.998646
0.197839
0.243041
0.316028
0.3672
0.384587
0.401435
0.469659
0.608035
0.786221
0.95716
1.09147
1.18324
1.23888
1.26802
1.27949
1.28017
1.27483
1.26628
1.25581
1.24382
1.23056
1.21682
1.20428
1.19549
1.1935
1.20105
1.21965
1.24873
1.28529
1.32426
1.35941
1.38466
1.39518
1.38815
1.36306
1.3216
1.2673
1.20503
1.1404
1.07915
1.02653
0.986648
0.961866
0.952209
0.955235
0.966508
0.980651
0.992558
0.998361
0.995888
0.984669
0.965625
0.940614
0.91196
0.882019
0.852827
0.825878
0.80203
0.781565
0.764362
0.750107
0.738483
0.729276
0.722376
0.717705
0.715088
0.714147
0.714261
0.714596
0.714225
0.712261
0.707984
0.700914
0.690831
0.677745
0.661848
0.643451
0.62293
0.600679
0.577079
0.552479
0.527205
0.501558
0.47574
0.449465
0.42169
0.393927
0.381745
0.417127
0.510028
0.628203
0.736556
0.820772
0.880772
0.921074
0.946375
0.960443
0.965886
0.965924
0.954496
0.181234
0.183462
0.19518
0.211788
0.221871
0.223313
0.225643
0.242665
0.285742
0.355568
0.441734
0.528747
0.604818
0.664631
0.708046
0.737736
0.757208
0.769596
0.777143
0.781236
0.782802
0.782822
0.782766
0.784769
0.791505
0.805706
0.829386
0.862931
0.904415
0.949533
0.992314
1.0264
1.0464
1.04891
1.033
1.00015
0.953816
0.898774
0.840412
0.784042
0.734371
0.695114
0.668663
0.655748
0.655171
0.663873
0.677514
0.691435
0.701644
0.705471
0.701798
0.690907
0.674123
0.653379
0.630796
0.608336
0.587546
0.569431
0.554446
0.542599
0.533629
0.527189
0.52298
0.520806
0.520543
0.522051
0.525071
0.52915
0.533635
0.53774
0.540661
0.541689
0.540302
0.536207
0.529329
0.519781
0.507808
0.493739
0.477938
0.460773
0.442594
0.423726
0.40449
0.385164
0.365685
0.345148
0.323872
0.313729
0.34467
0.431439
0.546798
0.656016
0.743233
0.807135
0.851593
0.881006
0.899005
0.908132
0.911481
0.904168
0.176077
0.175725
0.176687
0.179699
0.182939
0.183935
0.182851
0.183031
0.188271
0.200879
0.221559
0.249054
0.280164
0.311161
0.339128
0.362521
0.381043
0.395184
0.405756
0.413579
0.419393
0.423941
0.428118
0.433133
0.440588
0.45245
0.470768
0.49703
0.531239
0.571168
0.612355
0.649031
0.675596
0.688
0.684552
0.66605
0.635351
0.596602
0.554382
0.512969
0.475888
0.445732
0.424185
0.41203
0.409043
0.413846
0.423959
0.436202
0.447369
0.454896
0.45728
0.454168
0.446174
0.434566
0.420907
0.40675
0.39341
0.381824
0.372516
0.365631
0.361048
0.35851
0.357747
0.358553
0.360798
0.364391
0.369203
0.374983
0.381323
0.387663
0.393364
0.3978
0.40045
0.400957
0.399153
0.395038
0.388756
0.380546
0.370702
0.359542
0.347381
0.334518
0.32125
0.307883
0.29455
0.28061
0.265442
0.256448
0.279143
0.353529
0.46086
0.568125
0.65729
0.724951
0.773814
0.807732
0.830091
0.843335
0.850375
0.847772
0.174098
0.173704
0.173382
0.173458
0.173788
0.173745
0.173002
0.172138
0.17227
0.174282
0.178485
0.184857
0.192959
0.202033
0.211218
0.219776
0.227222
0.233349
0.238175
0.241859
0.244641
0.246812
0.248722
0.250808
0.25364
0.257975
0.264795
0.275213
0.290159
0.309771
0.332784
0.356372
0.376756
0.390363
0.394933
0.390084
0.377178
0.358709
0.337536
0.316254
0.296854
0.280669
0.268501
0.260788
0.257658
0.258854
0.2636
0.270578
0.278124
0.284591
0.288719
0.289868
0.288038
0.283741
0.277791
0.271092
0.264475
0.258594
0.253879
0.250541
0.248604
0.247974
0.248506
0.250069
0.252572
0.25597
0.260225
0.265252
0.270871
0.276781
0.282578
0.287804
0.29202
0.294866
0.296103
0.29563
0.293465
0.28973
0.284613
0.278341
0.271159
0.263304
0.255018
0.246575
0.238215
0.229629
0.219822
0.212153
0.225369
0.282457
0.375876
0.477021
0.565891
0.636306
0.689227
0.727632
0.754498
0.772094
0.78306
0.785655
0.173674
0.173201
0.172702
0.172237
0.171819
0.171324
0.170624
0.169803
0.16918
0.169099
0.169733
0.17111
0.173124
0.175573
0.178201
0.180762
0.18306
0.184969
0.186442
0.187495
0.188188
0.188617
0.188895
0.189159
0.189574
0.190348
0.191759
0.194162
0.197952
0.20342
0.210525
0.218674
0.226706
0.23318
0.236864
0.237156
0.234217
0.228799
0.221925
0.214581
0.207546
0.20135
0.19633
0.192708
0.190638
0.190196
0.191306
0.193669
0.196756
0.199903
0.202469
0.203991
0.204267
0.203355
0.201508
0.199084
0.196457
0.193964
0.191866
0.190336
0.189458
0.189246
0.189668
0.190674
0.192225
0.194301
0.196899
0.200013
0.203596
0.207538
0.21165
0.215677
0.219331
0.222334
0.224457
0.225548
0.225541
0.224447
0.222346
0.219361
0.215645
0.211358
0.206667
0.201774
0.19693
0.192097
0.186417
0.180603
0.185941
0.223897
0.298096
0.387919
0.472971
0.544105
0.599995
0.642345
0.673489
0.695401
0.710332
0.718439
0.173807
0.173268
0.172718
0.172149
0.171568
0.170956
0.170279
0.169543
0.168828
0.168257
0.167924
0.167872
0.168086
0.168506
0.169043
0.169603
0.170102
0.17048
0.170704
0.170765
0.170679
0.170474
0.170191
0.169875
0.169579
0.169368
0.169322
0.169544
0.170153
0.171251
0.172873
0.174916
0.177116
0.179092
0.180461
0.180964
0.180535
0.179286
0.177443
0.175258
0.172959
0.170722
0.168683
0.166951
0.165626
0.164799
0.164521
0.164775
0.165449
0.166345
0.167228
0.167881
0.168159
0.168007
0.167457
0.166602
0.165567
0.164486
0.163482
0.162655
0.162075
0.161783
0.161791
0.162095
0.162686
0.163559
0.164719
0.166174
0.167924
0.169947
0.172178
0.174508
0.176792
0.178866
0.18057
0.181772
0.182382
0.182359
0.181709
0.180475
0.178731
0.176567
0.174079
0.171396
0.168715
0.166139
0.163159
0.159352
0.160011
0.181074
0.233353
0.306731
0.38344
0.452176
0.509075
0.554179
0.588893
0.61473
0.633397
0.647067
0.174051
0.173481
0.17291
0.172322
0.171713
0.171085
0.17043
0.169749
0.16906
0.168398
0.167803
0.167301
0.166903
0.166598
0.166361
0.166156
0.16595
0.165713
0.165426
0.16508
0.164675
0.164218
0.163722
0.163205
0.162684
0.162185
0.161736
0.161377
0.161149
0.161093
0.16123
0.161545
0.161975
0.162418
0.162762
0.162912
0.162811
0.162453
0.161861
0.161079
0.160157
0.159142
0.158082
0.157025
0.156028
0.155151
0.154446
0.153948
0.153656
0.153529
0.153498
0.15348
0.153401
0.153213
0.152894
0.152452
0.151913
0.151316
0.150706
0.150127
0.149619
0.149212
0.148927
0.148775
0.148759
0.148882
0.149151
0.149573
0.150158
0.150908
0.15181
0.152828
0.153904
0.154958
0.155901
0.156647
0.157125
0.157286
0.157106
0.156588
0.155757
0.154653
0.153328
0.151851
0.150351
0.148966
0.147486
0.145311
0.14419
0.15347
0.18523
0.23898
0.302763
0.365177
0.420255
0.466188
0.503186
0.532108
0.553944
0.572867
0.174248
0.173668
0.173089
0.1725
0.171896
0.171275
0.17064
0.169992
0.169334
0.168676
0.168028
0.167403
0.166808
0.166246
0.165713
0.165199
0.164695
0.164187
0.163667
0.163129
0.16257
0.161991
0.161394
0.160784
0.16017
0.159563
0.158977
0.15843
0.157944
0.15754
0.157233
0.157026
0.156905
0.156842
0.156798
0.156733
0.156609
0.1564
0.156089
0.155664
0.155124
0.154473
0.153726
0.152904
0.15204
0.151173
0.150344
0.149589
0.148935
0.148386
0.147932
0.147547
0.147201
0.146864
0.146511
0.146127
0.145706
0.14525
0.144768
0.144271
0.143778
0.143304
0.142863
0.142467
0.142123
0.141839
0.141619
0.141471
0.141403
0.141423
0.141533
0.141729
0.14199
0.142286
0.142576
0.142813
0.142952
0.142955
0.142797
0.142466
0.141965
0.141307
0.140516
0.139627
0.138714
0.137892
0.137121
0.135985
0.134704
0.137569
0.153707
0.188133
0.235907
0.288097
0.337958
0.382124
0.419512
0.450166
0.4742
0.497606
0.174366
0.173784
0.173203
0.172617
0.17202
0.171412
0.170793
0.170165
0.169529
0.168888
0.168242
0.167596
0.166953
0.166314
0.165683
0.165057
0.164435
0.163814
0.163192
0.162564
0.161931
0.161289
0.160639
0.159983
0.159325
0.15867
0.158027
0.157408
0.156828
0.156301
0.15584
0.155452
0.155135
0.154881
0.154673
0.154488
0.1543
0.154083
0.15381
0.15346
0.153016
0.15247
0.151824
0.151088
0.150284
0.149437
0.148582
0.147748
0.146964
0.146248
0.145608
0.145042
0.144538
0.144081
0.143653
0.143236
0.142815
0.142379
0.141924
0.141446
0.14095
0.14044
0.139924
0.13941
0.138903
0.13841
0.137937
0.13749
0.137076
0.136701
0.136373
0.136095
0.135864
0.135673
0.135505
0.135341
0.135157
0.134931
0.134642
0.134279
0.133836
0.133316
0.132729
0.132089
0.131438
0.130849
0.130352
0.129739
0.128806
0.129033
0.135562
0.154324
0.185829
0.225193
0.266642
0.306133
0.341543
0.372092
0.396936
0.423514
0.17442
0.173837
0.173255
0.17267
0.172079
0.17148
0.170872
0.170257
0.169636
0.169008
0.168374
0.167734
0.167087
0.166436
0.165782
0.165126
0.164469
0.16381
0.163151
0.162489
0.161824
0.161156
0.160484
0.159808
0.15913
0.158455
0.157789
0.157142
0.156524
0.155949
0.155426
0.154963
0.154562
0.15422
0.153927
0.153667
0.153419
0.153159
0.152862
0.152506
0.152073
0.151552
0.150939
0.15024
0.14947
0.148649
0.147803
0.146957
0.146137
0.145362
0.144646
0.143994
0.143405
0.142869
0.142376
0.14191
0.141456
0.141001
0.140535
0.14005
0.139542
0.139011
0.138459
0.137889
0.137305
0.136713
0.136116
0.13552
0.13493
0.134352
0.133792
0.133256
0.132747
0.132266
0.13181
0.131373
0.130945
0.130516
0.130073
0.129609
0.129118
0.128599
0.128054
0.127492
0.126932
0.126417
0.125986
0.12556
0.124936
0.124426
0.126251
0.134611
0.152423
0.17865
0.209719
0.24203
0.273035
0.301364
0.32532
0.353234
0.174436
0.173851
0.173267
0.172682
0.172092
0.171497
0.170895
0.170288
0.169675
0.169057
0.168432
0.1678
0.167161
0.166515
0.165863
0.165206
0.164545
0.163881
0.163214
0.162546
0.161874
0.1612
0.160522
0.159842
0.159161
0.158481
0.157809
0.157152
0.15652
0.155923
0.155371
0.15487
0.154423
0.15403
0.153681
0.153365
0.153064
0.152757
0.152423
0.152041
0.151596
0.151075
0.150475
0.149798
0.149056
0.148263
0.14744
0.146608
0.14579
0.145003
0.144261
0.143572
0.142938
0.142355
0.141814
0.141304
0.140814
0.140329
0.139839
0.139336
0.138813
0.138266
0.137695
0.137099
0.136481
0.135844
0.13519
0.134524
0.13385
0.133173
0.132497
0.131829
0.131173
0.130532
0.129908
0.129303
0.128712
0.128134
0.127564
0.126996
0.126429
0.12586
0.125291
0.124725
0.124173
0.123657
0.123205
0.122796
0.122312
0.121723
0.121757
0.124545
0.132842
0.14786
0.16845
0.192261
0.217017
0.241183
0.26252
0.289596
0.174433
0.173846
0.173259
0.172671
0.17208
0.171486
0.170886
0.170282
0.169674
0.16906
0.16844
0.167815
0.167183
0.166544
0.1659
0.165249
0.164594
0.163935
0.163272
0.162607
0.161938
0.161267
0.160593
0.159917
0.159239
0.158563
0.157893
0.157236
0.156599
0.155992
0.155422
0.154897
0.154418
0.153986
0.153594
0.153231
0.152883
0.152533
0.152161
0.151752
0.151289
0.150764
0.150172
0.149513
0.148796
0.148033
0.147239
0.146433
0.145633
0.144854
0.14411
0.143408
0.142752
0.142139
0.141566
0.141023
0.140499
0.139985
0.139471
0.138947
0.138407
0.137846
0.137262
0.136653
0.13602
0.135364
0.134687
0.133991
0.133281
0.132559
0.131831
0.1311
0.130371
0.129648
0.128934
0.128233
0.127545
0.126871
0.12621
0.125561
0.124924
0.124297
0.123683
0.123083
0.122503
0.121955
0.121453
0.120995
0.120525
0.119969
0.119487
0.119905
0.122841
0.129919
0.141627
0.157118
0.174887
0.193641
0.211019
0.235156
0.174424
0.173834
0.173244
0.172653
0.172059
0.171463
0.170863
0.17026
0.169652
0.169039
0.168423
0.167801
0.167173
0.16654
0.165901
0.165257
0.164608
0.163955
0.163299
0.16264
0.161977
0.161312
0.160644
0.159974
0.159303
0.158633
0.157969
0.157314
0.156677
0.156064
0.155483
0.154938
0.154433
0.153968
0.153538
0.153134
0.152744
0.152354
0.151949
0.151514
0.151035
0.150506
0.14992
0.149278
0.148585
0.147851
0.147089
0.146312
0.145536
0.144774
0.144038
0.143335
0.142669
0.14204
0.141445
0.140876
0.140326
0.139787
0.139249
0.138706
0.13815
0.137576
0.136982
0.136366
0.135726
0.135062
0.134377
0.133671
0.132948
0.13221
0.13146
0.130703
0.129942
0.129181
0.128423
0.127673
0.126931
0.126201
0.125483
0.124779
0.124088
0.123414
0.122755
0.122115
0.121497
0.120908
0.120352
0.119831
0.119318
0.118762
0.118167
0.11778
0.118303
0.120812
0.126245
0.134838
0.146042
0.159096
0.171894
0.191569
0.174415
0.173822
0.173228
0.172634
0.172037
0.171438
0.170837
0.170232
0.169623
0.169011
0.168394
0.167774
0.167148
0.166518
0.165883
0.165243
0.164599
0.163952
0.163301
0.162646
0.161989
0.16133
0.160667
0.160003
0.159339
0.158675
0.158016
0.157366
0.156729
0.156112
0.15552
0.15496
0.154432
0.153938
0.153473
0.153033
0.152605
0.15218
0.151744
0.151285
0.150793
0.150258
0.149678
0.149051
0.148381
0.147674
0.146941
0.146193
0.145443
0.144702
0.143979
0.143281
0.142613
0.141975
0.141365
0.140778
0.140207
0.139647
0.13909
0.138529
0.137958
0.137374
0.136771
0.136149
0.135505
0.134839
0.134152
0.133445
0.13272
0.131979
0.131224
0.130459
0.129686
0.12891
0.128134
0.12736
0.126592
0.125832
0.125082
0.124343
0.123618
0.122908
0.122215
0.12154
0.120886
0.120256
0.119653
0.119074
0.118504
0.117916
0.117288
0.116673
0.116313
0.116711
0.118543
0.122364
0.128306
0.136231
0.144569
0.159127
0.174406
0.173811
0.173214
0.172617
0.172017
0.171416
0.170812
0.170205
0.169595
0.168981
0.168364
0.167743
0.167119
0.16649
0.165857
0.16522
0.164579
0.163935
0.163287
0.162637
0.161984
0.161328
0.16067
0.160011
0.159351
0.158693
0.158038
0.15739
0.156753
0.156133
0.155533
0.154958
0.15441
0.15389
0.153396
0.152922
0.152461
0.152004
0.15154
0.15106
0.150553
0.150014
0.149438
0.148823
0.148172
0.147489
0.146783
0.146062
0.145336
0.144615
0.143907
0.143218
0.142552
0.141909
0.14129
0.14069
0.140104
0.139527
0.138954
0.138378
0.137794
0.137199
0.136589
0.135962
0.135315
0.134649
0.133963
0.133258
0.132535
0.131796
0.131043
0.130279
0.129506
0.128727
0.127945
0.127163
0.126383
0.125609
0.124842
0.124084
0.123338
0.122604
0.121886
0.121184
0.1205
0.119837
0.119194
0.118567
0.117946
0.117315
0.116658
0.115977
0.11534
0.114936
0.115096
0.116233
0.118664
0.122642
0.127227
0.136808
0.174399
0.173801
0.173203
0.172602
0.172
0.171396
0.17079
0.170181
0.169569
0.168954
0.168336
0.167714
0.167089
0.166461
0.165829
0.165193
0.164554
0.163912
0.163267
0.162619
0.161968
0.161315
0.160661
0.160005
0.159349
0.158694
0.158042
0.157396
0.156758
0.156134
0.155527
0.154939
0.154374
0.153832
0.153311
0.152808
0.152318
0.151832
0.151343
0.150842
0.150322
0.149777
0.149202
0.148596
0.14796
0.147298
0.146614
0.145917
0.145213
0.144511
0.143818
0.143138
0.142476
0.141833
0.141207
0.140598
0.14
0.13941
0.138824
0.138235
0.137641
0.137037
0.13642
0.135788
0.13514
0.134473
0.133789
0.133087
0.132368
0.131633
0.130885
0.130125
0.129355
0.128578
0.127797
0.127014
0.126232
0.125452
0.124677
0.12391
0.123151
0.122403
0.121667
0.120945
0.120239
0.119548
0.118873
0.118208
0.117546
0.116876
0.116187
0.115475
0.114754
0.114085
0.113597
0.1135
0.114023
0.115474
0.11739
0.12275
0.174393
0.173793
0.173192
0.17259
0.171986
0.171379
0.170771
0.17016
0.169546
0.16893
0.168311
0.167688
0.167063
0.166434
0.165802
0.165167
0.164529
0.163888
0.163244
0.162597
0.161949
0.161298
0.160645
0.159992
0.159338
0.158685
0.158035
0.157389
0.156751
0.156123
0.155508
0.15491
0.15433
0.153769
0.153225
0.152697
0.152181
0.151669
0.151158
0.150638
0.150105
0.149552
0.148977
0.148376
0.147752
0.147105
0.14644
0.145762
0.145077
0.144392
0.143713
0.143043
0.142386
0.141743
0.141114
0.140498
0.139892
0.139292
0.138695
0.138096
0.137492
0.136881
0.136258
0.135622
0.134971
0.134304
0.133621
0.132922
0.132207
0.131477
0.130734
0.12998
0.129215
0.128443
0.127666
0.126885
0.126103
0.125323
0.124545
0.123773
0.123007
0.122249
0.121502
0.120766
0.120041
0.11933
0.118629
0.117935
0.11724
0.116537
0.115819
0.115082
0.114329
0.113575
0.112866
0.112287
0.111952
0.112067
0.112436
0.114727
0.174387
0.173786
0.173184
0.172579
0.171973
0.171365
0.170755
0.170142
0.169527
0.168909
0.168289
0.167665
0.167039
0.16641
0.165778
0.165143
0.164505
0.163864
0.163221
0.162576
0.161928
0.161278
0.160627
0.159975
0.159323
0.158671
0.158021
0.157376
0.156736
0.156104
0.155484
0.154876
0.154283
0.153705
0.153143
0.152593
0.152054
0.151521
0.150989
0.150452
0.149905
0.149345
0.148767
0.148169
0.147552
0.146917
0.146266
0.145604
0.144935
0.144264
0.143597
0.142935
0.142283
0.141642
0.141012
0.140391
0.139779
0.139171
0.138565
0.137958
0.137347
0.136728
0.1361
0.13546
0.134807
0.13414
0.133458
0.132761
0.13205
0.131324
0.130586
0.129837
0.129078
0.128311
0.127538
0.126761
0.125982
0.125202
0.124425
0.12365
0.12288
0.122117
0.121361
0.120613
0.119875
0.119146
0.118425
0.117707
0.116987
0.116257
0.115515
0.114756
0.113982
0.113197
0.112415
0.111667
0.110999