/*--------------------------------*- C++ -*----------------------------------*\
  =========                 |
  \\      /  F ield         | OpenFOAM: The Open Source CFD Toolbox
   \\    /   O peration     | Website:  https://openfoam.org
    \\  /    A nd           | Version:  10
     \\/     M anipulation  |
\*---------------------------------------------------------------------------*/
FoamFile
{
    format      ascii;
    class       volScalarField;
    location    "1700";
    object      nut;
}
// * * * * * * * * * * * * * * * * * * * * * * * * * * * * * * * * * * * * * //

dimensions      [0 2 -1 0 0 0 0];

internalField   nonuniform List<scalar> 
6820
(
0.000149811
0.000146298
0.000143078
0.000139851
0.000136611
0.000133451
0.000130462
0.0001277
0.000125196
0.000122958
0.000120979
0.000119246
0.000117742
0.000116447
0.000115343
0.000114411
0.000113633
0.000112994
0.000112479
0.000112074
0.000111768
0.000111551
0.000111412
0.000111343
0.000111337
0.00011139
0.000111484
0.000111663
0.000111847
0.000111941
0.000111142
0.00013615
0.000350986
0.000736675
0.000548085
0.00046457
0.000414419
0.000380711
0.000356883
0.000339453
0.000326301
0.000316084
0.000307935
0.000301283
0.000295743
0.000291046
0.000287005
0.000283483
0.000280381
0.000277623
0.000275151
0.000272921
0.000270896
0.000269049
0.000267356
0.000265799
0.000264361
0.000263031
0.000261797
0.000260655
0.000259595
0.000258639
0.000257964
0.000255866
0.00026169
0.000251594
0.000977663
0.000873821
0.000783693
0.000713297
0.000659036
0.000616601
0.000582675
0.000554928
0.000531767
0.000512091
0.000495129
0.000480324
0.000467267
0.000455648
0.000445228
0.00043582
0.000427276
0.000419477
0.000412323
0.000405734
0.000399641
0.000393985
0.000388716
0.00038379
0.000379164
0.000374802
0.000370667
0.000366721
0.0003629
0.000359323
0.000355171
0.000351686
0.000351698
0.0010135
0.000988678
0.000949904
0.000906238
0.000863746
0.000825009
0.000790619
0.00076032
0.000733593
0.000709897
0.000688752
0.000669755
0.000652578
0.00063695
0.000622654
0.000609508
0.000597366
0.000586104
0.000575619
0.000565824
0.000556643
0.000548013
0.000539876
0.000532182
0.000524886
0.000517944
0.000511316
0.000504965
0.000498821
0.000492944
0.000487135
0.000480887
0.000475979
0.00101667
0.00101251
0.00100235
0.000986316
0.000966157
0.000943883
0.000921062
0.000898689
0.000877297
0.000857122
0.000838231
0.000820595
0.000804144
0.000788787
0.000774433
0.000760988
0.000748368
0.000736497
0.000725303
0.000714725
0.000704704
0.000695192
0.00068614
0.000677507
0.000669253
0.00066134
0.000653731
0.000646392
0.000639271
0.000632358
0.00062564
0.000618805
0.000611799
0.00101674
0.0010159
0.00101373
0.00100941
0.00100264
0.000993622
0.000982834
0.000970848
0.000958171
0.000945204
0.000932237
0.000919465
0.000907013
0.000894955
0.000883332
0.000872158
0.000861435
0.000851152
0.000841294
0.000831841
0.000822771
0.000814062
0.00080569
0.000797631
0.000789861
0.000782356
0.000775091
0.00076804
0.000761172
0.000754464
0.000747909
0.000741415
0.000734807
0.00101671
0.00101621
0.00101554
0.00101439
0.00101245
0.00100952
0.00100552
0.00100052
0.000994653
0.000988088
0.000981006
0.000973564
0.000965901
0.000958124
0.000950321
0.000942556
0.000934879
0.000927322
0.000919912
0.000912663
0.000905584
0.000898681
0.000891952
0.000885395
0.000879003
0.00087277
0.000866684
0.000860734
0.000854907
0.00084919
0.000843576
0.000838043
0.000832539
0.0010167
0.00101622
0.00101574
0.0010152
0.00101449
0.0010135
0.00101213
0.00101031
0.001008
0.00100521
0.00100199
0.000998367
0.000994417
0.000990197
0.000985765
0.000981174
0.000976469
0.00097169
0.00096687
0.000962036
0.000957209
0.000952406
0.00094764
0.000942921
0.000938255
0.000933645
0.000929095
0.000924604
0.00092017
0.000915793
0.000911474
0.000907211
0.000902999
0.0010167
0.00101621
0.00101574
0.00101528
0.00101481
0.00101429
0.00101367
0.00101292
0.00101199
0.00101086
0.0010095
0.00100791
0.0010061
0.00100409
0.00100188
0.000999495
0.000996966
0.000994311
0.00099155
0.000988705
0.000985791
0.000982825
0.00097982
0.000976789
0.000973739
0.000970681
0.000967621
0.000964564
0.000961515
0.000958481
0.000955467
0.000952477
0.000949518
0.0010167
0.00101621
0.00101574
0.00101528
0.00101484
0.0010144
0.00101395
0.00101348
0.00101296
0.00101239
0.00101174
0.001011
0.00101016
0.00100921
0.00100815
0.00100699
0.00100573
0.00100437
0.00100292
0.00100139
0.00099979
0.000998124
0.000996403
0.000994632
0.000992821
0.000990975
0.0009891
0.000987204
0.000985293
0.000983371
0.000981447
0.000979527
0.000977616
0.0010167
0.00101621
0.00101574
0.00101528
0.00101484
0.0010144
0.00101398
0.00101356
0.00101315
0.00101272
0.00101229
0.00101182
0.00101133
0.00101081
0.00101024
0.00100963
0.00100896
0.00100825
0.00100749
0.00100668
0.00100583
0.00100493
0.00100398
0.001003
0.00100199
0.00100094
0.000999862
0.000998763
0.000997644
0.000996511
0.000995368
0.00099422
0.00099307
0.0010167
0.00101621
0.00101574
0.00101528
0.00101483
0.0010144
0.00101398
0.00101357
0.00101317
0.00101278
0.00101239
0.001012
0.00101162
0.00101122
0.00101082
0.00101041
0.00100999
0.00100954
0.00100908
0.0010086
0.0010081
0.00100758
0.00100704
0.00100648
0.0010059
0.0010053
0.00100468
0.00100405
0.00100341
0.00100275
0.00100209
0.00100143
0.00100077
0.0010167
0.00101621
0.00101574
0.00101528
0.00101483
0.0010144
0.00101398
0.00101357
0.00101317
0.00101278
0.0010124
0.00101203
0.00101167
0.00101131
0.00101096
0.00101061
0.00101026
0.00100991
0.00100956
0.00100921
0.00100885
0.00100849
0.00100812
0.00100775
0.00100737
0.00100699
0.0010066
0.0010062
0.00100581
0.00100541
0.00100501
0.00100461
0.00100421
0.0010167
0.00101621
0.00101574
0.00101528
0.00101483
0.0010144
0.00101398
0.00101357
0.00101317
0.00101278
0.0010124
0.00101203
0.00101167
0.00101132
0.00101098
0.00101064
0.00101032
0.00100999
0.00100968
0.00100936
0.00100906
0.00100875
0.00100845
0.00100815
0.00100785
0.00100756
0.00100727
0.00100698
0.00100669
0.00100641
0.00100613
0.00100585
0.00100558
0.0010167
0.00101621
0.00101574
0.00101528
0.00101483
0.0010144
0.00101397
0.00101356
0.00101316
0.00101277
0.0010124
0.00101203
0.00101167
0.00101132
0.00101098
0.00101065
0.00101032
0.00101001
0.0010097
0.0010094
0.0010091
0.00100882
0.00100853
0.00100826
0.00100799
0.00100773
0.00100747
0.00100722
0.00100697
0.00100674
0.0010065
0.00100628
0.00100606
0.0010167
0.00101621
0.00101574
0.00101528
0.00101483
0.0010144
0.00101397
0.00101356
0.00101316
0.00101277
0.00101239
0.00101203
0.00101167
0.00101132
0.00101098
0.00101064
0.00101032
0.00101001
0.0010097
0.0010094
0.00100911
0.00100883
0.00100855
0.00100828
0.00100802
0.00100777
0.00100752
0.00100728
0.00100705
0.00100683
0.00100661
0.0010064
0.0010062
0.0010167
0.00101621
0.00101574
0.00101528
0.00101483
0.0010144
0.00101397
0.00101356
0.00101316
0.00101277
0.00101239
0.00101202
0.00101166
0.00101131
0.00101097
0.00101064
0.00101032
0.00101
0.0010097
0.0010094
0.00100911
0.00100883
0.00100855
0.00100829
0.00100803
0.00100777
0.00100753
0.00100729
0.00100706
0.00100684
0.00100663
0.00100642
0.00100622
0.0010167
0.00101621
0.00101574
0.00101528
0.00101483
0.00101439
0.00101397
0.00101356
0.00101316
0.00101277
0.00101239
0.00101202
0.00101166
0.00101131
0.00101097
0.00101064
0.00101032
0.00101
0.0010097
0.0010094
0.00100911
0.00100883
0.00100855
0.00100828
0.00100802
0.00100777
0.00100753
0.00100729
0.00100706
0.00100684
0.00100663
0.00100642
0.00100622
0.0010167
0.00101621
0.00101574
0.00101528
0.00101483
0.00101439
0.00101397
0.00101356
0.00101316
0.00101277
0.00101239
0.00101202
0.00101166
0.00101131
0.00101097
0.00101064
0.00101032
0.00101
0.0010097
0.0010094
0.00100911
0.00100882
0.00100855
0.00100828
0.00100802
0.00100777
0.00100753
0.00100729
0.00100706
0.00100684
0.00100662
0.00100641
0.00100621
0.0010167
0.00101621
0.00101574
0.00101528
0.00101483
0.00101439
0.00101397
0.00101356
0.00101316
0.00101277
0.00101239
0.00101202
0.00101166
0.00101131
0.00101097
0.00101064
0.00101032
0.00101
0.00100969
0.0010094
0.00100911
0.00100882
0.00100855
0.00100828
0.00100802
0.00100777
0.00100752
0.00100728
0.00100705
0.00100683
0.00100661
0.0010064
0.00100619
0.0010167
0.00101621
0.00101574
0.00101528
0.00101483
0.00101439
0.00101397
0.00101356
0.00101316
0.00101277
0.00101239
0.00101202
0.00101166
0.00101131
0.00101097
0.00101064
0.00101031
0.00101
0.00100969
0.00100939
0.0010091
0.00100882
0.00100855
0.00100828
0.00100802
0.00100777
0.00100752
0.00100728
0.00100705
0.00100682
0.0010066
0.00100639
0.00100618
0.0010167
0.00101621
0.00101574
0.00101528
0.00101483
0.00101439
0.00101397
0.00101356
0.00101316
0.00101277
0.00101239
0.00101202
0.00101166
0.00101131
0.00101097
0.00101064
0.00101031
0.00101
0.00100969
0.00100939
0.0010091
0.00100882
0.00100855
0.00100828
0.00100802
0.00100776
0.00100752
0.00100728
0.00100704
0.00100682
0.0010066
0.00100638
0.00100617
0.0010167
0.00101621
0.00101574
0.00101528
0.00101483
0.00101439
0.00101397
0.00101356
0.00101316
0.00101277
0.00101239
0.00101202
0.00101166
0.00101131
0.00101097
0.00101064
0.00101031
0.00101
0.00100969
0.00100939
0.0010091
0.00100882
0.00100854
0.00100828
0.00100802
0.00100776
0.00100751
0.00100727
0.00100704
0.00100681
0.00100659
0.00100637
0.00100616
0.0010167
0.00101621
0.00101574
0.00101528
0.00101483
0.00101439
0.00101397
0.00101356
0.00101316
0.00101277
0.00101239
0.00101202
0.00101166
0.00101131
0.00101097
0.00101064
0.00101031
0.00101
0.00100969
0.00100939
0.0010091
0.00100882
0.00100854
0.00100827
0.00100801
0.00100776
0.00100751
0.00100727
0.00100704
0.00100681
0.00100658
0.00100637
0.00100616
0.0010167
0.00101621
0.00101574
0.00101528
0.00101483
0.00101439
0.00101397
0.00101356
0.00101316
0.00101277
0.00101239
0.00101202
0.00101166
0.00101131
0.00101097
0.00101063
0.00101031
0.00101
0.00100969
0.00100939
0.0010091
0.00100882
0.00100854
0.00100827
0.00100801
0.00100776
0.00100751
0.00100727
0.00100703
0.0010068
0.00100658
0.00100636
0.00100615
0.0010167
0.00101621
0.00101574
0.00101528
0.00101483
0.00101439
0.00101397
0.00101356
0.00101316
0.00101277
0.00101239
0.00101202
0.00101166
0.00101131
0.00101097
0.00101063
0.00101031
0.00101
0.00100969
0.00100939
0.0010091
0.00100882
0.00100854
0.00100827
0.00100801
0.00100775
0.00100751
0.00100726
0.00100703
0.0010068
0.00100657
0.00100635
0.00100614
0.0010167
0.00101621
0.00101574
0.00101528
0.00101483
0.00101439
0.00101397
0.00101356
0.00101316
0.00101277
0.00101239
0.00101202
0.00101166
0.00101131
0.00101097
0.00101063
0.00101031
0.00101
0.00100969
0.00100939
0.0010091
0.00100882
0.00100854
0.00100827
0.00100801
0.00100775
0.0010075
0.00100726
0.00100702
0.00100679
0.00100657
0.00100635
0.00100613
0.0010167
0.00101621
0.00101574
0.00101528
0.00101483
0.00101439
0.00101397
0.00101356
0.00101316
0.00101277
0.00101239
0.00101202
0.00101166
0.00101131
0.00101097
0.00101063
0.00101031
0.00101
0.00100969
0.00100939
0.0010091
0.00100882
0.00100854
0.00100827
0.00100801
0.00100775
0.0010075
0.00100726
0.00100702
0.00100679
0.00100656
0.00100634
0.00100613
0.0010167
0.00101621
0.00101574
0.00101528
0.00101483
0.00101439
0.00101397
0.00101356
0.00101316
0.00101277
0.00101239
0.00101202
0.00101166
0.00101131
0.00101097
0.00101063
0.00101031
0.00101
0.00100969
0.00100939
0.0010091
0.00100881
0.00100854
0.00100827
0.001008
0.00100775
0.0010075
0.00100725
0.00100702
0.00100678
0.00100656
0.00100634
0.00100612
0.0010167
0.00101621
0.00101574
0.00101528
0.00101483
0.00101439
0.00101397
0.00101356
0.00101316
0.00101277
0.00101239
0.00101202
0.00101166
0.00101131
0.00101097
0.00101063
0.00101031
0.00101
0.00100969
0.00100939
0.0010091
0.00100881
0.00100854
0.00100827
0.001008
0.00100775
0.0010075
0.00100725
0.00100701
0.00100678
0.00100655
0.00100633
0.00100612
0.0010167
0.00101621
0.00101574
0.00101528
0.00101483
0.00101439
0.00101397
0.00101356
0.00101316
0.00101277
0.00101239
0.00101202
0.00101166
0.00101131
0.00101097
0.00101064
0.00101031
0.00101
0.00100969
0.00100939
0.0010091
0.00100881
0.00100854
0.00100827
0.001008
0.00100774
0.00100749
0.00100725
0.00100701
0.00100677
0.00100655
0.00100632
0.00100611
0.0010167
0.00101621
0.00101574
0.00101528
0.00101483
0.00101439
0.00101397
0.00101356
0.00101316
0.00101277
0.00101239
0.00101202
0.00101166
0.00101131
0.00101097
0.00101064
0.00101031
0.00101
0.00100969
0.00100939
0.00100909
0.00100881
0.00100853
0.00100825
0.00100799
0.00100773
0.00100747
0.00100722
0.00100698
0.00100674
0.0010065
0.00100627
0.00100605
0.0010167
0.00101621
0.00101574
0.00101528
0.00101483
0.00101439
0.00101397
0.00101356
0.00101316
0.00101277
0.00101239
0.00101202
0.00101166
0.00101131
0.00101096
0.00101063
0.0010103
0.00100998
0.00100966
0.00100935
0.00100905
0.00100875
0.00100846
0.00100817
0.00100788
0.0010076
0.00100733
0.00100705
0.00100678
0.00100652
0.00100625
0.00100599
0.00100574
0.0010167
0.00101621
0.00101574
0.00101528
0.00101483
0.00101439
0.00101397
0.00101356
0.00101316
0.00101276
0.00101237
0.00101199
0.00101162
0.00101125
0.00101088
0.00101051
0.00101015
0.00100979
0.00100942
0.00100906
0.00100869
0.00100833
0.00100796
0.00100759
0.00100721
0.00100684
0.00100646
0.00100608
0.00100569
0.00100531
0.00100492
0.00100453
0.00100414
0.0010167
0.00101621
0.00101574
0.00101527
0.00101482
0.00101438
0.00101394
0.0010135
0.00101305
0.00101259
0.00101213
0.00101164
0.00101114
0.00101062
0.00101008
0.00100952
0.00100893
0.00100832
0.00100768
0.00100703
0.00100635
0.00100564
0.00100492
0.00100418
0.00100342
0.00100264
0.00100185
0.00100105
0.00100023
0.000999395
0.000998554
0.000997704
0.000996848
0.0010167
0.00101621
0.00101571
0.00101519
0.00101464
0.00101403
0.00101334
0.00101255
0.00101167
0.00101068
0.00100957
0.00100836
0.00100704
0.00100561
0.00100409
0.00100247
0.00100077
0.000998995
0.000997148
0.00099524
0.000993278
0.000991269
0.00098922
0.000987138
0.000985029
0.000982899
0.000980753
0.000978596
0.000976433
0.000974269
0.000972106
0.000969948
0.0009678
0.00101669
0.00101596
0.00101486
0.00101328
0.00101118
0.00100854
0.0010054
0.00100178
0.000997741
0.00099332
0.000988572
0.000983551
0.000978305
0.000972879
0.000967317
0.000961657
0.00095593
0.000950168
0.000944396
0.000938636
0.000932907
0.000927225
0.000921603
0.000916054
0.000910586
0.000905207
0.000899923
0.00089474
0.00088966
0.000884686
0.00087982
0.000875064
0.000870417
0.00101524
0.00100708
0.000994957
0.000980611
0.000964748
0.000947825
0.000930231
0.000912313
0.000894367
0.00087662
0.000859237
0.000842331
0.000825975
0.000810214
0.00079507
0.000780548
0.000766644
0.000753345
0.000740632
0.000728485
0.00071688
0.000705794
0.000695201
0.000685078
0.000675401
0.000666147
0.000657295
0.000648824
0.000640714
0.000632946
0.000625502
0.000618366
0.000611521
0.000934353
0.000813411
0.000726845
0.000658884
0.000603267
0.000556974
0.000518101
0.000485165
0.000456981
0.000432627
0.000411394
0.000392737
0.000376226
0.000361521
0.000348351
0.000336496
0.000325778
0.000316048
0.000307183
0.000299079
0.00029165
0.00028482
0.000278524
0.000272709
0.000267325
0.000262331
0.000257689
0.000253368
0.000249339
0.000245576
0.000242056
0.00023876
0.000235668
0.000125479
0.000128845
0.000132086
0.000135185
0.000138141
0.000140961
0.00014365
0.000146214
0.000148657
0.000150985
0.000153201
0.000155309
0.000157315
0.000159221
0.000161033
0.000162754
0.000164388
0.000165939
0.000167411
0.000168807
0.000170132
0.000171388
0.000172579
0.000173707
0.000174777
0.00017579
0.000176751
0.00017766
0.000178522
0.000179338
0.000180111
0.000180843
0.000181537
0.000448508
0.000794412
0.000709298
0.000524691
0.000474941
0.000510001
0.00056646
0.000623494
0.000674583
0.000717074
0.000750592
0.000775925
0.000794378
0.000807532
0.00081706
0.00082448
0.000830946
0.000837148
0.000843373
0.000849712
0.000856345
0.000863808
0.000873159
0.000885946
0.000903961
0.000928806
0.000961369
0.00100136
0.00104707
0.00109546
0.00114264
0.00118446
0.00121736
0.00123899
0.00124867
0.00124753
0.00123829
0.00122494
0.00121217
0.00120484
0.00120731
0.00122259
0.00125164
0.00129286
0.00134232
0.00139466
0.00144443
0.00148724
0.00152044
0.00154328
0.00155664
0.00156255
0.00156369
0.00156281
0.00156231
0.00156392
0.00156849
0.00157614
0.00158645
0.00159881
0.00161279
0.00162824
0.00164537
0.00166451
0.00168586
0.00170923
0.00173379
0.0017582
0.00178069
0.00179946
0.00181296
0.00182011
0.00182039
0.0018138
0.00180073
0.00178182
0.00175784
0.00172958
0.00169777
0.001663
0.00162579
0.00158658
0.00154577
0.00150327
0.00145677
0.00140199
0.00135024
0.00137373
0.00160188
0.00205279
0.002542
0.00290652
0.00312265
0.00322982
0.00326897
0.00326788
0.0032432
0.00320465
0.0031594
0.00308718
0.000246746
0.000401392
0.000482689
0.000448582
0.000376116
0.000360773
0.000402695
0.000463766
0.000522343
0.000573141
0.000615609
0.000649646
0.000675596
0.00069454
0.000708092
0.00071797
0.00072563
0.000732068
0.000737819
0.000743154
0.000748357
0.000754016
0.0007612
0.000771454
0.000786584
0.000808236
0.000837372
0.000873774
0.000915782
0.000960387
0.00100368
0.00104157
0.00107054
0.0010883
0.00109419
0.00108924
0.00107601
0.00105818
0.00104015
0.00102657
0.00102177
0.00102913
0.00105024
0.00108429
0.00112801
0.00117634
0.00122371
0.00126533
0.00129808
0.00132069
0.00133367
0.00133878
0.00133859
0.00133589
0.00133324
0.00133264
0.00133528
0.00134153
0.00135113
0.00136348
0.00137802
0.00139443
0.00141271
0.00143308
0.00145571
0.00148045
0.00150663
0.001533
0.00155791
0.00157958
0.00159641
0.00160726
0.00161151
0.00160906
0.00160024
0.00158567
0.00156611
0.00154237
0.0015152
0.00148529
0.0014532
0.00141946
0.0013846
0.00134878
0.00130998
0.0012635
0.00121914
0.00125087
0.00149597
0.00196737
0.0024635
0.00282272
0.00303101
0.00313245
0.00316869
0.00316686
0.00314285
0.0031057
0.0030625
0.00299192
0.000332148
0.00030087
0.000329025
0.000365201
0.000359915
0.000303842
0.000262765
0.000276751
0.000325583
0.000384386
0.000438989
0.000484188
0.000519376
0.000545711
0.000564941
0.000578917
0.000589295
0.000597339
0.000603876
0.000609418
0.000614399
0.000619438
0.000625542
0.000634157
0.000647021
0.000665811
0.000691637
0.000724527
0.000763091
0.000804534
0.000845069
0.000880626
0.000907652
0.000923772
0.00092818
0.0009217
0.00090659
0.000886186
0.000864507
0.000845858
0.000834421
0.000833749
0.000846073
0.000871586
0.000908048
0.000951131
0.000995483
0.00103606
0.00106915
0.00109287
0.0011071
0.00111315
0.00111328
0.00111014
0.0011064
0.0011043
0.00110538
0.0011104
0.00111935
0.00113176
0.00114698
0.00116447
0.00118401
0.00120561
0.00122936
0.0012552
0.00128261
0.00131058
0.00133764
0.00136213
0.00138247
0.00139742
0.00140626
0.00140875
0.0014051
0.00139585
0.00138172
0.0013635
0.00134197
0.00131785
0.0012918
0.0012644
0.00123629
0.00120793
0.00117798
0.00114141
0.00110345
0.00113182
0.00136941
0.00184044
0.00234002
0.00270181
0.00291206
0.00301572
0.00305466
0.00305593
0.00303519
0.00300125
0.00296139
0.0028936
0.00047488
0.000453535
0.000422401
0.000419686
0.000446017
0.000467148
0.00042617
0.000334755
0.000278989
0.00027379
0.000296289
0.000329034
0.000361828
0.000389932
0.000412039
0.000428654
0.000440978
0.000450255
0.000457474
0.000463331
0.000468366
0.000473181
0.000478625
0.000485901
0.000496512
0.000512036
0.000533723
0.000561993
0.000596003
0.000633483
0.000671002
0.000704624
0.000730741
0.000746805
0.000751763
0.000746157
0.000731926
0.000712048
0.000690122
0.000669971
0.000655304
0.000649397
0.00065465
0.000672007
0.000700413
0.000736745
0.000776468
0.000814777
0.000847714
0.000872833
0.000889361
0.000897986
0.00090045
0.000899093
0.000896424
0.000894738
0.000895809
0.000900697
0.000909715
0.000922565
0.00093861
0.000957178
0.00097779
0.00100024
0.00102451
0.00105055
0.00107807
0.00110637
0.0011343
0.00116045
0.00118336
0.00120179
0.00121489
0.00122228
0.00122403
0.00122051
0.00121235
0.00120029
0.00118509
0.0011675
0.0011482
0.00112782
0.00110704
0.00108661
0.00106605
0.00104058
0.00100978
0.00102777
0.00123654
0.00168468
0.00218012
0.00254841
0.00276772
0.00287992
0.00292632
0.00293407
0.00291903
0.00289003
0.0028548
0.00279106
0.000606185
0.000599069
0.000581214
0.00055895
0.000553821
0.000575827
0.00060751
0.000597328
0.00051873
0.000428381
0.0003682
0.000338299
0.000328357
0.000328971
0.000333991
0.000340028
0.000345548
0.000350085
0.000353693
0.000356626
0.000359203
0.000361794
0.000364879
0.000369138
0.000375502
0.000385134
0.000399238
0.000418672
0.000443458
0.000472375
0.00050291
0.000531695
0.000555301
0.000571064
0.000577648
0.000575244
0.000565417
0.000550725
0.000534229
0.000519041
0.000507992
0.000503445
0.000507152
0.00052001
0.000541697
0.000570426
0.000603148
0.000636238
0.000666341
0.000691046
0.000709206
0.000720922
0.000727301
0.000730098
0.000731348
0.00073302
0.000736746
0.000743613
0.000754076
0.000768005
0.000784863
0.000803963
0.000824702
0.00084671
0.000869854
0.000894118
0.00091942
0.00094542
0.00097143
0.000996445
0.0010193
0.0010389
0.00105437
0.00106521
0.0010713
0.00107283
0.00107026
0.00106421
0.00105536
0.00104441
0.00103203
0.00101885
0.00100551
0.00099289
0.000981327
0.000967083
0.000945066
0.000951093
0.00111507
0.00151624
0.00199412
0.00236776
0.0026001
0.00272549
0.00278325
0.00280047
0.00279334
0.00277097
0.00274167
0.00268335
0.00072758
0.000720364
0.000711078
0.000696805
0.0006827
0.00067945
0.000690965
0.000705289
0.000698632
0.000659962
0.000603574
0.000545691
0.000496654
0.000459451
0.000432726
0.000413818
0.000400268
0.00039027
0.000382644
0.000376682
0.000371981
0.000368325
0.000365604
0.000363795
0.000362992
0.000363453
0.000365619
0.000370072
0.000377402
0.000387946
0.000401345
0.00041622
0.000430368
0.000441498
0.000448057
0.000449706
0.000447323
0.000442649
0.000437782
0.000434705
0.000434978
0.000439636
0.000449222
0.000463825
0.000483022
0.000505772
0.000530472
0.000555259
0.000578388
0.000598529
0.000614958
0.000627624
0.000637102
0.000644422
0.00065084
0.000657608
0.000665776
0.000676052
0.000688738
0.000703728
0.000720605
0.000738796
0.000757756
0.000777097
0.000796648
0.000816414
0.000836461
0.000856774
0.000877127
0.000897038
0.000915817
0.000932685
0.000946931
0.000958038
0.000965751
0.000970087
0.000971293
0.000969789
0.000966099
0.000960797
0.000954461
0.000947631
0.000940849
0.000934926
0.00093074
0.00092603
0.000913553
0.000910742
0.00102268
0.00135423
0.00179538
0.00216708
0.00241248
0.00255362
0.00262557
0.00265468
0.00265744
0.00264327
0.00262117
0.00256969
0.000826194
0.000819265
0.000812236
0.000803783
0.000793821
0.000785449
0.000782575
0.000785107
0.000786993
0.000780572
0.000763135
0.000735931
0.000702821
0.000668193
0.000635379
0.000606175
0.000581142
0.000560111
0.000542597
0.000528035
0.000515895
0.000505696
0.000496995
0.000489369
0.000482427
0.00047585
0.000469393
0.000462869
0.000456188
0.000449552
0.00044359
0.000439133
0.000436672
0.000436085
0.000436886
0.000438704
0.000441582
0.000445954
0.0004524
0.00046137
0.000473017
0.000487173
0.000503445
0.000521334
0.000540274
0.00055957
0.000578392
0.000595921
0.000611589
0.0006252
0.000636891
0.00064702
0.000656091
0.000664685
0.000673397
0.000682755
0.000693159
0.000704838
0.000717828
0.000731971
0.000746947
0.000762343
0.000777746
0.000792835
0.000807434
0.000821519
0.000835173
0.000848504
0.000861552
0.000874223
0.000886273
0.000897344
0.000907039
0.000915014
0.000921044
0.000925062
0.00092716
0.00092757
0.000926624
0.000924716
0.00092227
0.000919692
0.000917358
0.000915876
0.000916277
0.000917704
0.000913299
0.000906736
0.000970355
0.00121751
0.00160009
0.00195649
0.00221029
0.00236694
0.0024544
0.00249705
0.00251125
0.00250661
0.00249287
0.0024496
0.000898136
0.00089261
0.000887062
0.00088123
0.000874819
0.000868272
0.00086289
0.000859655
0.000857911
0.000855553
0.000850586
0.00084176
0.000828855
0.000812569
0.000794134
0.000774878
0.000755918
0.000738029
0.000721645
0.000706924
0.000693831
0.000682195
0.000671748
0.000662161
0.000653079
0.000644178
0.000635175
0.000625794
0.000615729
0.000604743
0.00059294
0.000581004
0.000570112
0.000561519
0.000556149
0.00055447
0.000556567
0.000562267
0.000571203
0.000582842
0.00059652
0.000611517
0.000627163
0.000642918
0.000658389
0.000673262
0.000687208
0.000699878
0.000711014
0.000720585
0.000728832
0.00073619
0.000743157
0.000750189
0.000757639
0.00076574
0.000774608
0.000784261
0.000794634
0.000805588
0.00081692
0.000828376
0.000839681
0.00085059
0.000860929
0.000870612
0.000879645
0.000888084
0.000895985
0.000903362
0.000910157
0.00091625
0.00092149
0.000925735
0.000928895
0.000930956
0.000931988
0.000932142
0.000931632
0.000930719
0.000929688
0.000928818
0.000928346
0.000928654
0.000930636
0.000934395
0.000934919
0.00092859
0.00095627
0.00111825
0.00142448
0.00174886
0.00200174
0.00217027
0.0022725
0.00232913
0.0023556
0.00236141
0.00235692
0.00232306
0.000946099
0.000942168
0.000938159
0.000934042
0.000929742
0.00092528
0.000920935
0.000917112
0.000913971
0.00091121
0.000908262
0.000904508
0.000899466
0.000892919
0.000884933
0.000875797
0.000865927
0.000855754
0.00084565
0.000835883
0.000826608
0.000817867
0.000809606
0.000801698
0.000793973
0.000786269
0.000778457
0.000770435
0.000762086
0.000753283
0.000743992
0.000734444
0.000725234
0.000717239
0.000711367
0.000708304
0.000708364
0.000711482
0.000717279
0.000725169
0.000734477
0.000744545
0.000754824
0.00076493
0.000774651
0.0007839
0.000792633
0.000800788
0.000808282
0.00081507
0.000821201
0.000826837
0.000832214
0.00083758
0.00084314
0.000849027
0.000855302
0.000861968
0.00086899
0.000876307
0.000883833
0.000891456
0.000899044
0.000906455
0.000913561
0.000920272
0.000926545
0.000932376
0.000937779
0.000942755
0.000947265
0.000951234
0.000954561
0.000957154
0.000958961
0.000959989
0.000960306
0.000960041
0.000959365
0.000958481
0.000957608
0.00095696
0.000956709
0.000957088
0.000958757
0.000962282
0.000964775
0.000960584
0.000967287
0.00105735
0.00127932
0.00155687
0.00179728
0.00197097
0.00208482
0.00215422
0.00219272
0.00220917
0.00221439
0.00219073
0.000975395
0.000972826
0.000970175
0.000967431
0.000964585
0.000961641
0.00095865
0.000955723
0.000952962
0.000950386
0.000947914
0.000945385
0.000942611
0.000939424
0.000935723
0.000931487
0.000926777
0.000921706
0.000916408
0.000911013
0.000905616
0.000900275
0.000894996
0.000889748
0.000884472
0.000879113
0.000873638
0.000868048
0.000862357
0.000856578
0.000850746
0.000844969
0.000839492
0.000834698
0.000831041
0.000828911
0.000828535
0.000829917
0.000832851
0.000836983
0.000841893
0.000847174
0.000852495
0.000857642
0.000862524
0.000867152
0.00087159
0.000875905
0.000880137
0.000884292
0.000888373
0.000892392
0.000896388
0.000900413
0.000904517
0.000908732
0.000913068
0.000917517
0.000922064
0.000926693
0.000931386
0.000936118
0.000940854
0.000945547
0.00095014
0.000954585
0.000958847
0.000962914
0.000966788
0.000970469
0.000973939
0.000977146
0.000980007
0.000982423
0.000984309
0.000985615
0.000986343
0.000986552
0.00098635
0.000985881
0.000985317
0.000984834
0.000984586
0.000984735
0.000985731
0.000988238
0.000991048
0.000989424
0.000987567
0.00102741
0.00116791
0.0013882
0.00160639
0.00177779
0.00189831
0.00197758
0.00202658
0.00205288
0.00206759
0.00205419
0.000991726
0.00099016
0.00098853
0.000986823
0.000985034
0.000983169
0.000981243
0.000979283
0.000977324
0.000975391
0.000973488
0.000971595
0.000969668
0.000967654
0.000965504
0.000963182
0.000960675
0.000957993
0.000955164
0.000952221
0.000949198
0.000946115
0.000942979
0.000939781
0.000936506
0.000933139
0.000929688
0.000926182
0.000922673
0.000919225
0.000915906
0.000912798
0.000910017
0.000907713
0.000906054
0.000905185
0.000905179
0.000906012
0.000907558
0.00090962
0.000911968
0.000914384
0.000916702
0.000918828
0.000920744
0.000922504
0.000924201
0.000925943
0.000927822
0.000929893
0.00093218
0.000934676
0.000937359
0.000940198
0.000943155
0.00094619
0.000949263
0.000952335
0.000955378
0.000958375
0.000961321
0.000964221
0.000967081
0.000969901
0.000972678
0.000975404
0.000978071
0.000980681
0.000983242
0.000985768
0.000988263
0.000990717
0.000993088
0.000995312
0.00099731
0.000999005
0.00100034
0.00100131
0.00100192
0.00100225
0.00100238
0.00100245
0.00100258
0.00100288
0.00100365
0.00100543
0.00100801
0.00100849
0.00100564
0.00101799
0.00109135
0.00124608
0.0014333
0.00159722
0.00172016
0.00180585
0.0018628
0.00189715
0.00192035
0.00191633
0.000999984
0.000999069
0.000998113
0.000997102
0.00099603
0.000994897
0.000993711
0.000992479
0.000991211
0.000989916
0.0009886
0.000987264
0.000985902
0.000984508
0.000983068
0.000981573
0.000980015
0.00097839
0.000976701
0.000974951
0.000973147
0.000971291
0.000969383
0.000967419
0.000965397
0.00096332
0.000961204
0.000959085
0.000957014
0.000955054
0.000953272
0.000951734
0.000950501
0.000949631
0.000949172
0.000949145
0.000949537
0.00095029
0.000951304
0.000952452
0.000953601
0.000954635
0.000955476
0.000956094
0.000956509
0.000956787
0.000957027
0.000957338
0.000957823
0.000958559
0.000959592
0.000960931
0.000962556
0.000964424
0.000966474
0.000968641
0.000970858
0.000973067
0.000975218
0.00097728
0.00097924
0.000981096
0.000982859
0.000984542
0.000986162
0.000987731
0.000989263
0.00099077
0.00099227
0.000993784
0.000995332
0.000996927
0.000998568
0.00100023
0.00100189
0.00100347
0.00100494
0.00100623
0.00100734
0.00100826
0.00100902
0.00100969
0.00101033
0.00101103
0.00101196
0.00101348
0.00101576
0.00101748
0.00101646
0.00101826
0.00104819
0.00113774
0.00128027
0.00143023
0.0015538
0.00164429
0.00170724
0.00174759
0.00177775
0.00178132
0.00100374
0.0010032
0.00100263
0.00100204
0.0010014
0.00100072
0.000999997
0.000999238
0.000998443
0.000997615
0.000996753
0.000995859
0.000994932
0.000993972
0.00099298
0.000991958
0.000990905
0.000989821
0.000988709
0.000987566
0.000986394
0.00098519
0.000983952
0.000982681
0.000981378
0.000980052
0.000978723
0.000977423
0.000976195
0.000975092
0.000974168
0.000973471
0.000973037
0.000972888
0.000973022
0.000973419
0.00097403
0.000974784
0.000975594
0.000976365
0.000977009
0.000977458
0.000977672
0.000977648
0.00097742
0.000977054
0.000976639
0.000976275
0.000976058
0.000976068
0.00097636
0.000976959
0.000977858
0.000979025
0.000980407
0.00098194
0.000983556
0.000985189
0.000986784
0.000988299