/*--------------------------------*- C++ -*----------------------------------*\
  =========                 |
  \\      /  F ield         | OpenFOAM: The Open Source CFD Toolbox
   \\    /   O peration     | Website:  https://openfoam.org
    \\  /    A nd           | Version:  10
     \\/     M anipulation  |
\*---------------------------------------------------------------------------*/
FoamFile
{
    format      ascii;
    class       volScalarField;
    location    "1700";
    object      p;
}
// * * * * * * * * * * * * * * * * * * * * * * * * * * * * * * * * * * * * * //

dimensions      [0 2 -2 0 0 0 0];

internalField   nonuniform List<scalar> 
6820
(
-7.90186
-8.67317
-9.12018
-9.26655
-9.34421
-9.40814
-9.45228
-9.48089
-9.50234
-9.52033
-9.53564
-9.54877
-9.56023
-9.57035
-9.57923
-9.58689
-9.59329
-9.59833
-9.60187
-9.60369
-9.60349
-9.60084
-9.59519
-9.58574
-9.57138
-9.55048
-9.52057
-9.47772
-9.41549
-9.32544
-9.1758
-8.97978
-8.55988
-9.45632
-9.60132
-9.57685
-9.50739
-9.4788
-9.48295
-9.49446
-9.50572
-9.51756
-9.52995
-9.54191
-9.55294
-9.56298
-9.57207
-9.58015
-9.58716
-9.59301
-9.59759
-9.60074
-9.60226
-9.60185
-9.59914
-9.59361
-9.58456
-9.57102
-9.55168
-9.52452
-9.48723
-9.43399
-9.36481
-9.25189
-9.14615
-8.87177
-9.46002
-9.32447
-9.3244
-9.35797
-9.39274
-9.4289
-9.4597
-9.48323
-9.50241
-9.51913
-9.53379
-9.54657
-9.55783
-9.56779
-9.57655
-9.58413
-9.5905
-9.59558
-9.59924
-9.60129
-9.60148
-9.59946
-9.59478
-9.58684
-9.57484
-9.55773
-9.53403
-9.50217
-9.45912
-9.40559
-9.33304
-9.2789
-9.21469
-9.39048
-9.31276
-9.35674
-9.40329
-9.42819
-9.45155
-9.47418
-9.49291
-9.50888
-9.52343
-9.53668
-9.5486
-9.55932
-9.56896
-9.57754
-9.58505
-9.59142
-9.59659
-9.60042
-9.60274
-9.60333
-9.6019
-9.59808
-9.5914
-9.58129
-9.56704
-9.54783
-9.52306
-9.49198
-9.45731
-9.42086
-9.40936
-9.43518
-9.38408
-9.35446
-9.38378
-9.41464
-9.43299
-9.45311
-9.47447
-9.49299
-9.50896
-9.52349
-9.53675
-9.54872
-9.5595
-9.56921
-9.57789
-9.58552
-9.59208
-9.59749
-9.60165
-9.60443
-9.60564
-9.60505
-9.60241
-9.59739
-9.58965
-9.57887
-9.5648
-9.5477
-9.52844
-9.51078
-9.50025
-9.51467
-9.56984
-9.39216
-9.37793
-9.39366
-9.41846
-9.4376
-9.45711
-9.47722
-9.49506
-9.51065
-9.52485
-9.53788
-9.54972
-9.56045
-9.57017
-9.57892
-9.58669
-9.59346
-9.59916
-9.60372
-9.60704
-9.60898
-9.6094
-9.60812
-9.605
-9.5999
-9.59283
-9.58405
-9.57441
-9.56566
-9.56172
-9.56858
-9.59772
-9.66124
-9.40014
-9.39248
-9.40349
-9.42521
-9.44397
-9.46194
-9.48033
-9.49728
-9.5124
-9.52627
-9.53908
-9.55081
-9.56152
-9.57129
-9.58015
-9.58811
-9.59513
-9.60119
-9.60624
-9.61019
-9.61299
-9.61454
-9.61478
-9.61371
-9.61139
-9.60809
-9.6044
-9.6015
-9.60145
-9.60783
-9.62571
-9.66236
-9.7254
-9.40835
-9.40511
-9.41425
-9.43267
-9.45003
-9.46659
-9.48356
-9.49968
-9.51435
-9.52788
-9.54046
-9.55209
-9.56278
-9.57261
-9.58161
-9.58977
-9.5971
-9.60357
-9.60916
-9.61383
-9.61756
-9.62034
-9.6222
-9.62324
-9.62368
-9.62398
-9.62492
-9.62778
-9.63457
-9.64826
-9.67271
-9.71237
-9.77152
-9.41702
-9.41646
-9.42442
-9.43993
-9.45584
-9.47129
-9.48707
-9.50235
-9.51651
-9.5297
-9.54205
-9.55355
-9.56423
-9.57413
-9.58328
-9.59168
-9.59934
-9.60626
-9.61244
-9.61788
-9.6226
-9.62665
-9.63014
-9.63326
-9.63635
-9.63995
-9.64489
-9.65246
-9.66439
-9.68301
-9.71106
-9.75115
-9.8055
-9.4258
-9.42667
-9.43383
-9.44712
-9.46165
-9.47607
-9.49078
-9.50523
-9.51888
-9.53171
-9.54383
-9.55522
-9.56588
-9.57585
-9.58516
-9.59381
-9.60183
-9.60924
-9.61604
-9.62227
-9.628
-9.63333
-9.63842
-9.64352
-9.64903
-9.65553
-9.66385
-9.67511
-9.69075
-9.71251
-9.74223
-9.78137
-9.83092
-9.43444
-9.43602
-9.44261
-9.45419
-9.46742
-9.48086
-9.49461
-9.50829
-9.52142
-9.53391
-9.54579
-9.55707
-9.56772
-9.57777
-9.58724
-9.59617
-9.60456
-9.61245
-9.61989
-9.62693
-9.63367
-9.64023
-9.64684
-9.65377
-9.66144
-9.67042
-9.68147
-9.69552
-9.71373
-9.73733
-9.76749
-9.80495
-9.85006
-9.44281
-9.4447
-9.45083
-9.46108
-9.47311
-9.48563
-9.49853
-9.51149
-9.52412
-9.53627
-9.54793
-9.55909
-9.56973
-9.57986
-9.58951
-9.59871
-9.60749
-9.61588
-9.62395
-9.63178
-9.63949
-9.64723
-9.65524
-9.66381
-9.67335
-9.68438
-9.69756
-9.71366
-9.73353
-9.75802
-9.78785
-9.82331
-9.86441
-9.45083
-9.45282
-9.45853
-9.46771
-9.47868
-9.49036
-9.50249
-9.5148
-9.52695
-9.53877
-9.55021
-9.56126
-9.57189
-9.58211
-9.59194
-9.60142
-9.61057
-9.61946
-9.62815
-9.63675
-9.64537
-9.6542
-9.66346
-9.67346
-9.68457
-9.69725
-9.71204
-9.72954
-9.75038
-9.77511
-9.80414
-9.8375
-9.87503
-9.45846
-9.46042
-9.46574
-9.47407
-9.48412
-9.49502
-9.50646
-9.51817
-9.52987
-9.54137
-9.55261
-9.56355
-9.57418
-9.58449
-9.59451
-9.60425
-9.61378
-9.62315
-9.63243
-9.64174
-9.65121
-9.66101
-9.67138
-9.68259
-9.69497
-9.70892
-9.72487
-9.74327
-9.76456
-9.78907
-9.81702
-9.84828
-9.88265
-9.46567
-9.46756
-9.47251
-9.48012
-9.48938
-9.49958
-9.51039
-9.52157
-9.53285
-9.54405
-9.5551
-9.56595
-9.57657
-9.58697
-9.59716
-9.60718
-9.61706
-9.62688
-9.63672
-9.64668
-9.65691
-9.66757
-9.67887
-9.69108
-9.70446
-9.71934
-9.73606
-9.75496
-9.7763
-9.8003
-9.82701
-9.85626
-9.88783
-9.47244
-9.47423
-9.47885
-9.48586
-9.49444
-9.50401
-9.51427
-9.52496
-9.53585
-9.54678
-9.55765
-9.56841
-9.57903
-9.58952
-9.59988
-9.61015
-9.62037
-9.6306
-9.64094
-9.65149
-9.66238
-9.67377
-9.68585
-9.69884
-9.71297
-9.7285
-9.74568
-9.76474
-9.78586
-9.80914
-9.83455
-9.86189
-9.89096
-9.47876
-9.48045
-9.48476
-9.49128
-9.49927
-9.50829
-9.51804
-9.52829
-9.53884
-9.54951
-9.56022
-9.5709
-9.58153
-9.5921
-9.60261
-9.61311
-9.62364
-9.63426
-9.64504
-9.6561
-9.66756
-9.67955
-9.69224
-9.70582
-9.72047
-9.7364
-9.75378
-9.77276
-9.79345
-9.81588
-9.83997
-9.86552
-9.89236
-9.48464
-9.48622
-9.49026
-9.49634
-9.50384
-9.51237
-9.52167
-9.53154
-9.54178
-9.55222
-9.56277
-9.57338
-9.58402
-9.59466
-9.60533
-9.61604
-9.62684
-9.63778
-9.64896
-9.66045
-9.67236
-9.68483
-9.69799
-9.71198
-9.72696
-9.74308
-9.76045
-9.77917
-9.79928
-9.82078
-9.84356
-9.86745
-9.89227
-9.49004
-9.49154
-9.49533
-9.50104
-9.50812
-9.51622
-9.52514
-9.53467
-9.54462
-9.55486
-9.56528
-9.57583
-9.58646
-9.59718
-9.60797
-9.61886
-9.6299
-9.64114
-9.65263
-9.66447
-9.67675
-9.68957
-9.70305
-9.71731
-9.73245
-9.74858
-9.76578
-9.78409
-9.80354
-9.82406
-9.84558
-9.8679
-9.8909
-9.49498
-9.4964
-9.49997
-9.50537
-9.51208
-9.51982
-9.5284
-9.53763
-9.54734
-9.55739
-9.5677
-9.57819
-9.58883
-9.5996
-9.6105
-9.62156
-9.63279
-9.64426
-9.65602
-9.66813
-9.68067
-9.69374
-9.70742
-9.7218
-9.73695
-9.75296
-9.76986
-9.78767
-9.80637
-9.82592
-9.84621
-9.86707
-9.88841
-9.49943
-9.50077
-9.50416
-9.50929
-9.51569
-9.52312
-9.53141
-9.54038
-9.54988
-9.55978
-9.56998
-9.58042
-9.59106
-9.60188
-9.61288
-9.62407
-9.63546
-9.64712
-9.65906
-9.67137
-9.6841
-9.69731
-9.71107
-9.72546
-9.74051
-9.75628
-9.77279
-9.79002
-9.80795
-9.82652
-9.84563
-9.86514
-9.88496
-9.50338
-9.50466
-9.50789
-9.51279
-9.51893
-9.5261
-9.53414
-9.5429
-9.55222
-9.56198
-9.57209
-9.58249
-9.59313
-9.60399
-9.61506
-9.62635
-9.63787
-9.64966
-9.66174
-9.67418
-9.687
-9.70027
-9.71402
-9.72832
-9.74317
-9.75862
-9.77466
-9.79127
-9.80841
-9.82601
-9.844
-9.86224
-9.88067
-9.50681
-9.50804
-9.51113
-9.51583
-9.52176
-9.52871
-9.53654
-9.54512
-9.55429
-9.56394
-9.57398
-9.58435
-9.59499
-9.60588
-9.61701
-9.62837
-9.63998
-9.65186
-9.66402
-9.67652
-9.68937
-9.70261
-9.71628
-9.7304
-9.74499
-9.76005
-9.77557
-9.79152
-9.80786
-9.82453
-9.84145
-9.8585
-9.87564
-9.50969
-9.51087
-9.51385
-9.51839
-9.52414
-9.53091
-9.53858
-9.54701
-9.55606
-9.56563
-9.57561
-9.58595
-9.5966
-9.60751
-9.61868
-9.6301
-9.64176
-9.65368
-9.66588
-9.67838
-9.69119
-9.70435
-9.71786
-9.73175
-9.746
-9.76063
-9.7756
-9.79088
-9.80644
-9.8222
-9.8381
-9.85404
-9.86999
-9.512
-9.51315
-9.51602
-9.52043
-9.52603
-9.53266
-9.5402
-9.54852
-9.55749
-9.56699
-9.57694
-9.58726
-9.59791
-9.60885
-9.62004
-9.63149
-9.64318
-9.65511
-9.6673
-9.67975
-9.69248
-9.7055
-9.7188
-9.7324
-9.74628
-9.76044
-9.77484
-9.78945
-9.80423
-9.81912
-9.83406
-9.84897
-9.86382
-9.51371
-9.51482
-9.51761
-9.52191
-9.52739
-9.53391
-9.54136
-9.54961
-9.55852
-9.56798
-9.57791
-9.58824
-9.5989
-9.60985
-9.62107
-9.63252
-9.64421
-9.65613
-9.66827
-9.68064
-9.69324
-9.70607
-9.71912
-9.7324
-9.74588
-9.75955
-9.77338
-9.78733
-9.80135
-9.81541
-9.82944
-9.84338
-9.8572
-9.51478
-9.51586
-9.51857
-9.52277
-9.52817
-9.53461
-9.54201
-9.55022
-9.55911
-9.56857
-9.5785
-9.58884
-9.59952
-9.61049
-9.62172
-9.63318
-9.64485
-9.65673
-9.6688
-9.68105
-9.69349
-9.7061
-9.71888
-9.73181
-9.74487
-9.75805
-9.77131
-9.78461
-9.79791
-9.81118
-9.82436
-9.83739
-9.85026
-9.51517
-9.51622
-9.51886
-9.52297
-9.5283
-9.53471
-9.54209
-9.5503
-9.5592
-9.56869
-9.57866
-9.58903
-9.59974
-9.61073
-9.62197
-9.63343
-9.64507
-9.65689
-9.66886
-9.68098
-9.69323
-9.7056
-9.71808
-9.73065
-9.74329
-9.75597
-9.76867
-9.78134
-9.79395
-9.80647
-9.81885
-9.83104
-9.84303
-9.51485
-9.51586
-9.51841
-9.52243
-9.52771
-9.53413
-9.54153
-9.54979
-9.55876
-9.56831
-9.57834
-9.58877
-9.59954
-9.61057
-9.62183
-9.63328
-9.6449
-9.65665
-9.66852
-9.68049
-9.69255
-9.70468
-9.71686
-9.72907
-9.74129
-9.75349
-9.76565
-9.77772
-9.78968
-9.8015
-9.81313
-9.82453
-9.83571
-9.51378
-9.51474
-9.51717
-9.52108
-9.52634
-9.53279
-9.54028
-9.54864
-9.55771
-9.56737
-9.57751
-9.58803
-9.59886
-9.60993
-9.62121
-9.63265
-9.64422
-9.65589
-9.66764
-9.67946
-9.69131
-9.70318
-9.71505
-9.7269
-9.7387
-9.75043
-9.76207
-9.77357
-9.78492
-9.79607
-9.80701
-9.8177
-9.82813
-9.51193
-9.51281
-9.51505
-9.51881
-9.52406
-9.53062
-9.53825
-9.54676
-9.55601
-9.56586
-9.57617
-9.58685
-9.59782
-9.609
-9.62035
-9.63183
-9.6434
-9.65503
-9.66669
-9.67837
-9.69003
-9.70167
-9.71325
-9.72476
-9.73617
-9.74747
-9.75861
-9.76958
-9.78036
-9.7909
-9.8012
-9.81121
-9.82093
-9.50931
-9.51003
-9.51193
-9.51546
-9.52076
-9.52752
-9.53538
-9.5441
-9.55355
-9.56356
-9.57401
-9.58479
-9.59583
-9.60706
-9.61843
-9.62989
-9.64141
-9.65296
-9.66451
-9.67603
-9.6875
-9.6989
-9.71021
-9.7214
-9.73245
-9.74334
-9.75405
-9.76454
-9.7748
-9.78481
-9.79454
-9.80398
-9.81312
-9.50599
-9.50639
-9.50767
-9.51084
-9.5162
-9.52327
-9.53155
-9.5408
-9.55082
-9.56139
-9.57232
-9.58351
-9.59488
-9.60637
-9.61791
-9.62949
-9.64105
-9.65258
-9.66405
-9.67544
-9.68672
-9.69789
-9.70891
-9.71977
-9.73045
-9.74092
-9.75117
-9.76118
-9.77092
-9.78037
-9.78952
-9.79833
-9.80681
-9.50218
-9.50183
-9.50196
-9.50481
-9.51048
-9.51767
-9.52578
-9.53485
-9.5448
-9.55535
-9.56631
-9.57756
-9.58902
-9.60061
-9.61226
-9.62393
-9.63558
-9.64717
-9.65867
-9.67006
-9.68131
-9.69241
-9.70332
-9.71404
-9.72454
-9.73479
-9.74479
-9.75451
-9.76394
-9.77307
-9.78187
-9.79035
-9.79852
-9.49856
-9.49637
-9.49362
-9.49611
-9.50384
-9.51372
-9.52429
-9.53542
-9.54696
-9.55868
-9.57044
-9.5822
-9.59394
-9.60563
-9.61724
-9.62875
-9.64016
-9.65145
-9.66259
-9.67357
-9.68438
-9.695
-9.70542
-9.71561
-9.72555
-9.73524
-9.74465
-9.75377
-9.76258
-9.77107
-9.77921
-9.78698
-9.79436
-9.49629
-9.49122
-9.48381
-9.48174
-9.48466
-9.49066
-9.49929
-9.51
-9.52188
-9.53431
-9.54705
-9.55997
-9.57293
-9.58584
-9.59863
-9.61127
-9.62373
-9.63597
-9.648
-9.65977
-9.67129
-9.68254
-9.6935
-9.70416
-9.71451
-9.72453
-9.73422
-9.74356
-9.75255
-9.76118
-9.76944
-9.77734
-9.78492
-9.49699
-9.47714
-9.48008
-9.5001
-9.5172
-9.52857
-9.53896
-9.55003
-9.5611
-9.57181
-9.58235
-9.59286
-9.60337
-9.61385
-9.62429
-9.63468
-9.645
-9.65524
-9.66538
-9.67538
-9.68522
-9.6949
-9.70437
-9.71363
-9.72265
-9.73141
-9.73989
-9.74808
-9.75596
-9.76351
-9.7707
-9.77752
-9.78395
-9.53467
-9.41148
-9.34852
-9.35242
-9.37515
-9.39737
-9.41928
-9.44174
-9.46371
-9.48454
-9.50424
-9.52295
-9.54072
-9.55765
-9.5738
-9.58926
-9.60408
-9.61831
-9.632
-9.64516
-9.65782
-9.67
-9.68171
-9.69296
-9.70375
-9.71409
-9.72399
-9.73344
-9.74244
-9.75099
-9.75911
-9.76678
-9.77404
-9.69474
-9.70796
-9.66677
-9.62485
-9.60125
-9.59124
-9.58735
-9.58614
-9.58713
-9.59032
-9.59527
-9.60145
-9.60851
-9.61623
-9.62448
-9.6331
-9.64199
-9.65103
-9.66016
-9.66932
-9.67844
-9.68747
-9.69638
-9.70513
-9.71368
-9.72201
-9.73009
-9.73789
-9.74539
-9.75259
-9.75946
-9.76598
-9.77214
-8.53057
-8.83098
-9.0962
-9.22246
-9.28788
-9.34452
-9.3947
-9.43382
-9.46441
-9.49033
-9.51334
-9.53394
-9.55257
-9.56971
-9.5857
-9.60076
-9.61501
-9.62857
-9.64152
-9.65391
-9.66578
-9.67716
-9.68807
-9.69852
-9.70853
-9.71809
-9.72722
-9.73591
-9.74416
-9.75198
-9.75936
-9.7663
-9.77282
-9.08385
-10.321
-10.477
-10.5592
-10.6314
-10.6767
-10.7249
-10.788
-10.8477
-10.8842
-10.8937
-10.885
-10.8709
-10.8615
-10.8618
-10.8725
-10.8913
-10.9146
-10.938
-10.9572
-10.9684
-10.9695
-10.9601
-10.9425
-10.9215
-10.9036
-10.8958
-10.9041
-10.9317
-10.9777
-11.0368
-11.0995
-11.1533
-11.1847
-11.1811
-11.1327
-11.0339
-10.8842
-10.6881
-10.4538
-10.1925
-9.91617
-9.63619
-9.36145
-9.09758
-8.8466
-8.60727
-8.37598
-8.14781
-7.9177
-7.68123
-7.43529
-7.17833
-6.9103
-6.63249
-6.34708
-6.05675
-5.76433
-5.47252
-5.18369
-4.89991
-4.62293
-4.35423
-4.0951
-3.84656
-3.60942
-3.38417
-3.171
-2.96976
-2.78005
-2.60122
-2.43252
-2.2731
-2.12211
-1.97869
-1.84205
-1.71142
-1.58606
-1.46528
-1.34836
-1.23453
-1.1229
-1.01229
-0.901028
-0.786516
-0.664912
-0.533257
-0.396238
-0.269688
-0.171545
-0.10812
-0.0719289
-0.051694
-0.0394562
-0.0313367
-0.0252285
-0.0201929
-0.0182345
-0.00553529
-0.0331788
-9.15228
-10.3454
-10.6415
-10.6446
-10.6167
-10.5883
-10.5992
-10.6596
-10.7376
-10.7984
-10.8287
-10.8345
-10.8291
-10.8248
-10.8284
-10.8413
-10.8616
-10.8854
-10.9084
-10.9265
-10.9361
-10.9354
-10.9244
-10.9056
-10.8841
-10.8661
-10.8587
-10.8674
-10.8953
-10.9415
-11.0004
-11.0624
-11.115
-11.1446
-11.1388
-11.0879
-10.9868
-10.8353
-10.638
-10.4033
-10.1425
-9.86752
-9.58949
-9.3173
-9.0565
-8.80901
-8.57348
-8.34612
-8.12185
-7.89542
-7.66235
-7.41947
-7.16525
-6.89973
-6.62427
-6.34114
-6.05309
-5.76297
-5.47347
-5.18694
-4.90541
-4.63056
-4.36385
-4.10652
-3.85962
-3.62396
-3.40003
-3.18806
-2.98792
-2.79918
-2.62122
-2.45324
-2.2944
-2.14382
-2.00064
-1.86406
-1.73331
-1.60766
-1.4864
-1.36882
-1.25414
-1.14146
-1.02956
-0.91664
-0.799782
-0.674495
-0.537271
-0.393203
-0.259846
-0.15735
-0.0926916
-0.0570039
-0.0376263
-0.0261013
-0.0185203
-0.0129387
-0.00847394
-0.00742628
0.00362648
-0.0257823
-9.4693
-10.2494
-10.5779
-10.6165
-10.5916
-10.5516
-10.5404
-10.5827
-10.6572
-10.7265
-10.7695
-10.7863
-10.7886
-10.7891
-10.7957
-10.8104
-10.8314
-10.8553
-10.8777
-10.8946
-10.903
-10.9009
-10.889
-10.8699
-10.8485
-10.831
-10.8238
-10.8324
-10.8595
-10.904
-10.9605
-11.0195
-11.0686
-11.0948
-11.0857
-11.0322
-10.9296
-10.7777
-10.5814
-10.3489
-10.0912
-9.8197
-9.54536
-9.27676
-9.01933
-8.77503
-8.54253
-8.31812
-8.09674
-7.87315
-7.64286
-7.40273
-7.15121
-6.88839
-6.61564
-6.33523
-6.04991
-5.76252
-5.47571
-5.1918
-4.91276
-4.64024
-4.37565
-4.12023
-3.87498
-3.64074
-3.41803
-3.20708
-3.00779
-2.81976
-2.64236
-2.47481
-2.31625
-2.1658
-2.0226
-1.88584
-1.75475
-1.62861
-1.50671
-1.38834
-1.27269
-1.15886
-1.04559
-0.931018
-0.812016
-0.683734
-0.542341
-0.393127
-0.254605
-0.148333
-0.0819558
-0.0458961
-0.0265815
-0.0151661
-0.00767538
-0.00227752
0.00186889
0.00230998
0.0116742
-0.0186539
-9.62551
-10.1187
-10.4332
-10.5182
-10.526
-10.5148
-10.5161
-10.554
-10.6192
-10.6838
-10.7277
-10.7484
-10.7551
-10.7587
-10.7668
-10.7816
-10.8017
-10.8239
-10.8445
-10.8598
-10.867
-10.8645
-10.8528
-10.8346
-10.8144
-10.798
-10.7911
-10.7989
-10.8236
-10.8644
-10.9159
-10.9692
-11.0126
-11.0334
-11.0201
-10.9641
-10.8608
-10.7104
-10.5175
-10.2901
-10.0382
-9.77278
-9.50408
-9.24027
-8.98666
-8.74526
-8.51499
-8.29242
-8.07276
-7.85098
-7.6227
-7.38485
-7.13591
-6.87592
-6.60619
-6.32893
-6.04681
-5.7626
-5.47887
-5.19791
-4.92164
-4.65167
-4.38937
-4.13594
-3.89241
-3.65957
-3.43798
-3.22789
-3.02923
-2.84163
-2.66449
-2.49704
-2.33844
-2.18781
-2.0443
-1.9071
-1.77544
-1.6486
-1.52588
-1.40654
-1.28981
-1.17472
-1.06002
-0.943807
-0.822927
-0.692474
-0.548533
-0.396346
-0.25462
-0.145452
-0.0770727
-0.0398841
-0.0198962
-0.00799772
-0.000124614
0.00548072
0.0096376
0.0098229
0.0177088
-0.0128136
-9.72236
-10.0547
-10.3164
-10.4194
-10.453
-10.4699
-10.4906
-10.5315
-10.5905
-10.6487
-10.6904
-10.7128
-10.7227
-10.7296
-10.7396
-10.7549
-10.7743
-10.7949
-10.8135
-10.8269
-10.8328
-10.8299
-10.8187
-10.8016
-10.7827
-10.7671
-10.7601
-10.7659
-10.7867
-10.8216
-10.8657
-10.9109
-10.9463
-10.9602
-10.9418
-10.8833
-10.7803
-10.6332
-10.4459
-10.2259
-9.9824
-9.72535
-9.46413
-9.20638
-8.95717
-8.71861
-8.49
-8.26837
-8.04941
-7.82848
-7.60146
-7.36541
-7.11885
-6.86174
-6.59527
-6.32151
-6.04299
-5.76236
-5.4821
-5.20441
-4.93118
-4.66399
-4.40417
-4.15289
-3.91116
-3.67977
-3.45929
-3.24997
-3.05179
-2.86443
-2.68731
-2.51971
-2.36081
-2.20975
-2.06569
-1.92783
-1.79541
-1.6677
-1.54401
-1.4236
-1.30568
-1.18927
-1.07311
-0.955315
-0.832823
-0.700958
-0.555943
-0.402731
-0.259517
-0.148185
-0.077479
-0.0384287
-0.0170955
-0.00419705
0.00445865
0.0105986
0.0150453
0.0152619
0.0219177
-0.00825083
-9.78848
-10.0231
-10.2318
-10.3419
-10.3966
-10.4338
-10.4669
-10.5078
-10.5587
-10.6094
-10.6485
-10.673
-10.6872
-10.6978
-10.7101
-10.7258
-10.7442
-10.7632
-10.7799
-10.7919
-10.7972
-10.7948
-10.7852
-10.7703
-10.7537
-10.7395
-10.7321
-10.7353
-10.7508
-10.7778
-10.8122
-10.8469
-10.8721
-10.8775
-10.8531
-10.7919
-10.6898
-10.547
-10.3668
-10.1559
-9.92249
-9.67538
-9.42303
-9.1724
-8.92825
-8.69279
-8.46567
-8.24451
-8.02559
-7.80482
-7.57847
-7.3438
-7.09939
-6.84514
-6.58208
-6.31209
-6.03749
-5.76078
-5.48431
-5.21021
-4.94029
-4.6761
-4.41897
-4.17003
-3.93026
-3.70043
-3.48111
-3.27258
-3.07484
-2.88761
-2.71038
-2.54247
-2.38309
-2.23143
-2.08666
-1.94799
-1.81467
-1.686
-1.56125
-1.43971
-1.32056
-1.20284
-1.08526
-0.966007
-0.8422
-0.709599
-0.564781
-0.412245
-0.269036
-0.156176
-0.0828026
-0.0411443
-0.0177933
-0.00339839
0.00640975
0.0133801
0.018373
0.0188787
0.02459
-0.00477771
-9.83237
-10.0059
-10.1741
-10.2843
-10.3515
-10.4001
-10.44
-10.4797
-10.524
-10.5687
-10.606
-10.6328
-10.6509
-10.665
-10.6791
-10.695
-10.7123
-10.7295
-10.7443
-10.7548
-10.7593
-10.7572
-10.7489
-10.7362
-10.7217
-10.7091
-10.7018
-10.7028
-10.7134
-10.7327
-10.7572
-10.7807
-10.7949
-10.7908
-10.7598
-10.6955
-10.5942
-10.4556
-10.2829
-10.0815
-9.85849
-9.62177
-9.37879
-9.13582
-8.89727
-8.66533
-8.43998
-8.21936
-8.00041
-7.7796
-7.55367
-7.32017
-7.07777
-6.82632
-6.56671
-6.3006
-6.03011
-5.75752
-5.48507
-5.21476
-4.94835
-4.68737
-4.43309
-4.18664
-3.94897
-3.72083
-3.50277
-3.2951
-3.09783
-2.91074
-2.73336
-2.56507
-2.40513
-2.25276
-2.10718
-1.96762
-1.83334
-1.70364
-1.5778
-1.45511
-1.33475
-1.21575
-1.09686
-0.976301
-0.851471
-0.718673
-0.575031
-0.424564
-0.282678
-0.168962
-0.0927335
-0.0477995
-0.02177
-0.00538459
0.00593603
0.0140205
0.0198082
0.0208515
0.0259349
-0.0022271
-9.86236
-9.99717
-10.1349
-10.2393
-10.3115
-10.3658
-10.4095
-10.4491
-10.4898
-10.5306
-10.5667
-10.5949
-10.6157
-10.6321
-10.6473
-10.6628
-10.6789
-10.6943
-10.7073
-10.7163
-10.7201
-10.7183
-10.7111
-10.7
-10.6874
-10.6759
-10.6685
-10.6673
-10.6733
-10.6854
-10.7007
-10.7138
-10.7176
-10.7043
-10.6667
-10.599
-10.4981
-10.3634
-10.1975
-10.0049
-9.79184
-9.56512
-9.33132
-9.09603
-8.86329
-8.63524
-8.41208
-8.19243
-7.97377
-7.75315
-7.52777
-7.29548
-7.05509
-6.80642
-6.55025
-6.28803
-6.02169
-5.7533
-5.48494
-5.21852
-4.95572
-4.69802
-4.44668
-4.20279
-3.96728
-3.7409
-3.52417
-3.31741
-3.12066
-2.93372
-2.7562
-2.58752
-2.427
-2.2739
-2.12747
-1.98697
-1.8517
-1.72094
-1.594
-1.47016
-1.34861
-1.22839
-1.10826
-0.986572
-0.860964
-0.728345
-0.5865
-0.439079
-0.299602
-0.185767
-0.106777
-0.0581167
-0.0288279
-0.00997764
0.0032051
0.0126774
0.0195
0.0213226
0.0261062
-0.000463154
-9.88357
-9.99248
-10.1069
-10.2026
-10.2752
-10.3317
-10.3777
-10.4179
-10.4568
-10.4951
-10.53
-10.5587
-10.581
-10.5989
-10.6146
-10.6297
-10.6445
-10.6582
-10.6694
-10.6771
-10.6803
-10.6785
-10.6721
-10.6623
-10.651
-10.6403
-10.6325
-10.6292
-10.6309
-10.6367
-10.6437
-10.6474
-10.6417
-10.6202
-10.5764
-10.5055
-10.4046
-10.2732
-10.1132
-9.92865
-9.7247
-9.50727
-9.28213
-9.05425
-8.8273
-8.60331
-8.38269
-8.16441
-7.94647
-7.7264
-7.50184
-7.27093
-7.03263
-6.78677
-6.53401
-6.27564
-6.01339
-5.74916
-5.48487
-5.22232
-4.96313
-4.7087
-4.4603
-4.21897
-3.98562
-3.76099
-3.5456
-3.33976
-3.14354
-2.95678
-2.77912
-2.61005
-2.44893
-2.29508
-2.14779
-2.00634
-1.87005
-1.73823
-1.61019
-1.48521
-1.36249
-1.2411
-1.11984
-0.997144
-0.870954
-0.738747
-0.598997
-0.455141
-0.31883
-0.205597
-0.124208
-0.0716812
-0.0387169
-0.0169847
-0.00161108
0.00951022
0.0175971
0.0204317
0.0252383
0.000645339
-9.89878
-9.98939
-10.0859
-10.1722
-10.2424
-10.2992
-10.3463
-10.3871
-10.425
-10.4614
-10.4949
-10.5234
-10.5465
-10.5652
-10.5812
-10.5959
-10.6095
-10.6216
-10.6314
-10.6378
-10.6403
-10.6384
-10.6325
-10.6235
-10.6129
-10.6025
-10.5939
-10.5885
-10.5863
-10.5863
-10.5861
-10.5816
-10.5678
-10.5389
-10.4897
-10.4159
-10.3149
-10.1863
-10.0317
-9.85423
-9.65849
-9.44954
-9.23242
-9.01154
-8.7902
-8.57034
-8.35249
-8.13594
-7.9191
-7.69994
-7.47649
-7.24716
-7.01104
-6.768
-6.5186
-6.264
-6.00574
-5.74557
-5.48527
-5.22652
-4.97087
-4.71968
-4.47417
-4.23537
-4.00417
-3.78127
-3.56721
-3.36229
-3.1666
-2.98003
-2.80224
-2.63279
-2.47108
-2.31648
-2.16832
-2.02592
-1.88861
-1.75572
-1.62658
-1.50048
-1.37663
-1.25411
-1.13179
-1.00823
-0.881617
-0.74997
-0.612398
-0.472234
-0.339475
-0.227436
-0.144173
-0.0879396
-0.0511092
-0.0261813
-0.00832747
0.00468696
0.0142543
0.0183239
0.0234566
0.00122713
-9.90962
-9.98673
-10.0693
-10.1466
-10.213
-10.2687
-10.3159
-10.3567
-10.3939
-10.4287
-10.4608
-10.4888
-10.512
-10.5311
-10.5473
-10.5614
-10.574
-10.5849
-10.5933
-10.5987
-10.6004
-10.5982
-10.5925
-10.5838
-10.5735
-10.5629
-10.5533
-10.5456
-10.5397
-10.5346
-10.528
-10.5164
-10.4954
-10.4602
-10.4063
-10.33
-10.2291
-10.103
-9.95306
-9.78199
-9.59364
-9.39241
-9.18268
-8.96834
-8.75238
-8.53662
-8.3217
-8.10714
-7.89171
-7.67378
-7.45169
-7.22411
-6.99027
-6.75006
-6.50397
-6.25305
-5.99868
-5.74247
-5.48605
-5.23103
-4.97885
-4.73085
-4.48819
-4.25189
-4.02281
-3.80164
-3.5889
-3.3849
-3.18976
-3.00339
-2.8255
-2.65568
-2.49341
-2.33808
-2.18906
-2.04572
-1.9074
-1.77346
-1.64323
-1.51603
-1.39108
-1.2675
-1.14421
-1.01989
-0.893008
-0.76203
-0.626608
-0.490016
-0.360867
-0.250417
-0.165828
-0.106259
-0.0656002
-0.0373024
-0.0167431
-0.00161875
0.00962851
0.0151451
0.0208793
0.00140615
-9.91718
-9.98393
-10.0555
-10.1247
-10.1866
-10.2403
-10.2866
-10.327
-10.3633
-10.3968
-10.4275
-10.4546
-10.4777
-10.4969
-10.5129
-10.5266
-10.5383
-10.548
-10.5552
-10.5596
-10.5605
-10.558
-10.5521
-10.5435
-10.5331
-10.522
-10.5111
-10.501
-10.4915
-10.4817
-10.4693
-10.4515
-10.4243
-10.3837
-10.3258
-10.2474
-10.1465
-10.0228
-9.87707
-9.71176
-9.53012
-9.33592
-9.133
-8.92479
-8.71398
-8.50227
-8.29035
-8.07799
-7.86423
-7.64777
-7.42726
-7.20158
-6.97011
-6.73273
-6.48992
-6.2426
-5.99203
-5.73968
-5.48706
-5.23567
-4.98691
-4.74204
-4.5022
-4.26836
-4.04137
-3.82192
-3.61049
-3.40743
-3.21286
-3.0267
-2.84874
-2.67859
-2.51577
-2.35974
-2.20989
-2.06563
-1.92632
-1.79135
-1.66006
-1.53179
-1.40579
-1.28121
-1.15704
-1.0321
-0.905086
-0.77487
-0.64153
-0.50827
-0.382567
-0.273892
-0.188457
-0.126018
-0.0817428
-0.0500448
-0.0266366
-0.00922551
0.00387809
0.0110391
0.0176178
0.00128751
-9.92217
-9.98074
-10.0435
-10.1055
-10.1627
-10.2137
-10.2585
-10.298
-10.3333
-10.3655
-10.3949
-10.4211
-10.4436
-10.4625
-10.4783
-10.4915
-10.5024
-10.511
-10.5172
-10.5206
-10.5208
-10.5177
-10.5115
-10.5027
-10.4919
-10.48
-10.4676
-10.4551
-10.4422
-10.428
-10.4105
-10.3871
-10.3544
-10.3091
-10.2477
-10.1675
-10.0668
-9.94518
-9.80335
-9.64328
-9.46775
-9.28002
-9.08341
-8.88096
-8.67507
-8.46734
-8.25851
-8.04849
-7.83661
-7.62183
-7.40308
-7.17943
-6.95037
-6.71585
-6.47627
-6.23248
-5.98562
-5.73704
-5.48814
-5.24033
-4.99492
-4.75314
-4.51607
-4.28467
-4.05976
-3.842
-3.6319
-3.42977
-3.23578
-3.04987
-2.87185
-2.7014
-2.53807
-2.38136
-2.23071
-2.08554
-1.94527
-1.80929
-1.67698
-1.54769
-1.42069
-1.29517
-1.17022
-1.04478
-0.917767
-0.788391
-0.657056
-0.526858
-0.40432
-0.297433
-0.211516
-0.146674
-0.0991001
-0.0640901
-0.0377719
-0.0179438
-0.00283527
0.00614855
0.0137859
0.000956449
-9.92507
-9.97702
-10.0325
-10.0882
-10.1408
-10.1887
-10.2316
-10.2697
-10.3038
-10.3348
-10.3629
-10.388
-10.4098
-10.4283
-10.4436
-10.4562
-10.4663
-10.4741
-10.4793
-10.4817
-10.481
-10.4774
-10.4707
-10.4614
-10.45
-10.437
-10.423
-10.4082
-10.3921
-10.3738
-10.3516
-10.3232
-10.2857
-10.2362
-10.1718
-10.0901
-9.98964
-9.86994
-9.73164
-9.57634
-9.40641
-9.22463
-9.0339
-8.83688
-8.63572
-8.43191
-8.2262
-8.01867
-7.80884
-7.59593
-7.37908
-7.15757
-6.93099
-6.6993
-6.46292
-6.22259
-5.97937
-5.73447
-5.48921
-5.2449
-5.0028
-4.76405
-4.52972
-4.30074
-4.07788
-3.86182
-3.65303
-3.45186
-3.25846
-3.07281
-2.89477
-2.72404
-2.56023
-2.40286
-2.25144
-2.1054
-1.96419
-1.82724
-1.69393
-1.56365
-1.43571
-1.30934
-1.1837
-1.05787
-0.930967
-0.80249
-0.673078
-0.545677
-0.42599
-0.320793
-0.234628
-0.167796
-0.117281
-0.0791354
-0.0499198
-0.027588
-0.0103514
0.000613402
0.00950433
0.000467477
-9.92623
-9.9727
-10.0222
-10.0723
-10.1205
-10.1652
-10.2058
-10.2423
-10.2751
-10.3047
-10.3315
-10.3555
-10.3764
-10.3942
-10.4089
-10.4209
-10.4303
-10.4371
-10.4413
-10.4428
-10.4413
-10.4369
-10.4296
-10.4197
-10.4075
-10.3934
-10.3777
-10.3605
-10.3413
-10.3193
-10.2928
-10.2599
-10.2182
-10.1651
-10.098
-10.015
-9.91477
-9.79687
-9.66179
-9.51085
-9.34605
-9.16977
-8.98452
-8.79261
-8.59599
-8.39603
-8.1935
-7.98856
-7.78093
-7.57004
-7.35524
-7.13596
-6.91189
-6.68305
-6.44982
-6.21289
-5.97321
-5.73192
-5.49023
-5.24935
-5.01049
-4.77474
-4.54312
-4.31651
-4.0957
-3.88132
-3.67386
-3.47364
-3.28085
-3.0955
-2.91746
-2.74648
-2.58221
-2.42423
-2.27205
-2.12517
-1.98305
-1.84515
-1.71088
-1.57966
-1.45083
-1.32367
-1.19743
-1.07131
-0.944618
-0.817078
-0.689498
-0.564646
-0.447507
-0.343844
-0.257555
-0.189058
-0.135946
-0.0948974
-0.062868
-0.0379938
-0.0185278
-0.00543996
0.00490452
-0.00015176
-9.92591
-9.96775
-10.0122
-10.0574
-10.1015
-10.143
-10.1811
-10.2158
-10.247
-10.2753
-10.3008
-10.3235
-10.3434
-10.3604
-10.3744
-10.3856
-10.3942
-10.4001
-10.4034
-10.404
-10.4017
-10.3965
-10.3884
-10.3777
-10.3645
-10.3491
-10.3317
-10.3122
-10.2901
-10.2646
-10.2343
-10.1975
-10.1519
-10.0955
-10.0262
-9.94207
-9.84211
-9.72587
-9.59373
-9.44677
-9.28667
-9.11547
-8.93531
-8.74824
-8.55598
-8.3598
-8.16045
-7.9582
-7.7529
-7.54418
-7.33153
-7.11456
-6.89305
-6.66705
-6.43693
-6.20333
-5.96713
-5.72936
-5.49115
-5.25364
-5.01796
-4.78516
-4.55621
-4.33197
-4.11318
-3.90047
-3.69433
-3.49508
-3.30292
-3.11789
-2.93988
-2.76869
-2.60399
-2.44542
-2.29252
-2.14482
-2.00182
-1.86301
-1.72782
-1.5957
-1.46603
-1.33816
-1.2114
-1.08508
-0.958666
-0.83208
-0.706232
-0.583698
-0.468825
-0.366528
-0.280168
-0.210239
-0.154822
-0.11111
-0.0764043
-0.0490088
-0.0272482
-0.011917
0.000102487
-0.000914101
-9.92429
-9.96219
-10.0022
-10.0432
-10.0834
-10.1218
-10.1574
-10.1901
-10.2197
-10.2465
-10.2706
-10.2921
-10.3109
-10.3269
-10.3401
-10.3505
-10.3582
-10.3633
-10.3657
-10.3653
-10.3621
-10.356
-10.3471
-10.3354
-10.3212
-10.3044
-10.2853
-10.2635
-10.2387
-10.21
-10.1762
-10.1358
-10.0869
-10.0277
-9.9563
-9.87127
-9.77159
-9.65688
-9.52741
-9.38409
-9.22831
-9.06179
-8.88639
-8.70388
-8.51579
-8.3233
-8.12714
-7.92765
-7.72479
-7.51834
-7.30796
-7.09338
-6.87445
-6.65129
-6.42424
-6.1939
-5.9611
-5.72677
-5.49197
-5.25776
-5.0252
-4.7953
-4.56898
-4.34706
-4.13028
-3.91925
-3.71442
-3.51616
-3.32465
-3.13995
-2.962
-2.79063
-2.62555
-2.46641
-2.31283
-2.16435
-2.0205
-1.88081
-1.74474
-1.61177
-1.48132
-1.3528
-1.22559
-1.09914
-0.973064
-0.847429
-0.723208
-0.602773
-0.489913
-0.388821
-0.302402
-0.231204
-0.173707
-0.127543
-0.0903123
-0.0604641
-0.0363939
-0.0187408
-0.00481703
-0.00186237
-9.92156
-9.95602
-9.99228
-10.0294
-10.0662
-10.1015
-10.1346
-10.1652
-10.1931
-10.2183
-10.241
-10.2612
-10.2788
-10.2938
-10.3061
-10.3156
-10.3224
-10.3266
-10.328
-10.3267
-10.3226
-10.3156
-10.3057
-10.293
-10.2776
-10.2595
-10.2385
-10.2146
-10.1872
-10.1556
-10.1187
-10.0751
-10.0232
-9.96149
-9.88835
-9.80253
-9.70314
-9.58984
-9.46283
-9.32282
-9.171
-9.0088
-8.83782
-8.65962
-8.47553
-8.28664
-8.09366
-7.89697
-7.69664
-7.49256
-7.28454
-7.0724
-6.85609
-6.63575
-6.41174
-6.18461
-5.95512
-5.72415
-5.49267
-5.26169
-5.03219
-4.80514
-4.5814
-4.36178
-4.14699
-3.93761
-3.73411
-3.53683
-3.34599
-3.16166
-2.9838
-2.81228
-2.64684
-2.48719
-2.33295
-2.18372
-2.03907
-1.89853
-1.76163
-1.62785
-1.49667
-1.36756
-1.23998
-1.11347
-0.987767
-0.863067
-0.740361
-0.621821
-0.510742
-0.410707
-0.324226
-0.251878
-0.192474
-0.144025
-0.104402
-0.0721811
-0.0458222
-0.0258174
-0.00978982
-0.00304799
-9.91784
-9.94928
-9.98221
-10.016
-10.0495
-10.0819
-10.1126
-10.1411
-10.1672
-10.1908
-10.212
-10.2309
-10.2473
-10.2611
-10.2724
-10.281
-10.2869
-10.2901
-10.2906
-10.2883
-10.2832
-10.2752
-10.2644
-10.2506
-10.2339
-10.2143
-10.1917
-10.1657
-10.1359
-10.1016
-10.0618
-10.0153
-9.96085
-9.89694
-9.8223
-9.73582
-9.63675
-9.52475
-9.39997
-9.263
-9.11479
-8.95659
-8.78974
-8.61558
-8.43532
-8.24993
-8.0601
-7.86624
-7.6685
-7.46688
-7.26128
-7.05164
-6.83797
-6.62044
-6.39942
-6.17543
-5.94919
-5.72149
-5.49326
-5.26543
-5.03893
-4.81466
-4.59346
-4.37611
-4.16328
-3.95554
-3.75336
-3.55708
-3.36692
-3.18298
-3.00525
-2.83361
-2.66785
-2.50772
-2.35286
-2.20293
-2.05751
-1.91617
-1.77847
-1.64393
-1.51208
-1.38244
-1.25454
-1.12802
-1.00273
-0.878934
-0.757631
-0.640794
-0.531288
-0.432171
-0.34562
-0.272218
-0.211047
-0.160445
-0.118533
-0.0840071
-0.0553851
-0.0330264
-0.0147364
-0.0044797
-9.91324
-9.94202
-9.972
-10.0027
-10.0333
-10.063
-10.0913
-10.1177
-10.142
-10.164
-10.1837
-10.2012
-10.2163
-10.229
-10.2392
-10.2467
-10.2517
-10.2539
-10.2534
-10.2502
-10.2441
-10.2351
-10.2231
-10.2082
-10.1903
-10.1692