/*--------------------------------*- C++ -*----------------------------------*\
  =========                 |
  \\      /  F ield         | OpenFOAM: The Open Source CFD Toolbox
   \\    /   O peration     | Website:  https://openfoam.org
    \\  /    A nd           | Version:  10
     \\/     M anipulation  |
\*---------------------------------------------------------------------------*/
FoamFile
{
    format      ascii;
    class       surfaceScalarField;
    location    "1700";
    object      phi;
}
// * * * * * * * * * * * * * * * * * * * * * * * * * * * * * * * * * * * * * //

dimensions      [0 3 -1 0 0 0 0];

internalField   nonuniform List<scalar> 
13452
(
6.02919e-05
-2.34576e-08
5.99934e-05
2.98473e-07
5.95887e-05
4.0477e-07
5.91135e-05
4.75161e-07
5.86078e-05
5.05756e-07
5.81248e-05
4.82929e-07
5.76868e-05
4.38056e-07
5.72939e-05
3.92867e-07
5.69408e-05
3.53153e-07
5.66215e-05
3.19262e-07
5.63308e-05
2.90694e-07
5.60641e-05
2.66738e-07
5.58175e-05
2.46588e-07
5.5588e-05
2.29514e-07
5.5373e-05
2.14951e-07
5.51705e-05
2.02485e-07
5.49787e-05
1.91824e-07
5.47959e-05
1.82772e-07
5.46207e-05
1.75219e-07
5.44516e-05
1.69139e-07
5.4287e-05
1.64594e-07
5.41252e-05
1.61752e-07
5.39643e-05
1.60933e-07
5.38016e-05
1.62683e-07
5.36337e-05
1.67908e-07
5.34556e-05
1.78168e-07
5.32593e-05
1.96277e-07
5.3033e-05
2.26238e-07
5.27532e-05
2.7983e-07
5.23855e-05
3.67754e-07
5.1799e-05
5.86464e-07
5.11534e-05
6.45575e-07
1.51835e-06
4.96351e-05
6.21472e-05
-1.80289e-07
6.21732e-05
2.72458e-07
6.2195e-05
3.82936e-07
6.22111e-05
4.59058e-07
6.22106e-05
5.06296e-07
6.21795e-05
5.1397e-07
6.21166e-05
5.00978e-07
6.2028e-05
4.81476e-07
6.19214e-05
4.59805e-07
6.18032e-05
4.37422e-07
6.16784e-05
4.15492e-07
6.15504e-05
3.94787e-07
6.14213e-05
3.75626e-07
6.12928e-05
3.58085e-07
6.11655e-05
3.42157e-07
6.10402e-05
3.27813e-07
6.0917e-05
3.15023e-07
6.0796e-05
3.03781e-07
6.06771e-05
2.94115e-07
6.05601e-05
2.86109e-07
6.04448e-05
2.79923e-07
6.03307e-05
2.75821e-07
6.02175e-05
2.74224e-07
6.01044e-05
2.75785e-07
5.99907e-05
2.81546e-07
5.98758e-05
2.93105e-07
5.97587e-05
3.13375e-07
5.96392e-05
3.45763e-07
5.95167e-05
4.02332e-07
5.94033e-05
4.81143e-07
5.93182e-05
6.71528e-07
5.91661e-05
7.97638e-07
1.49496e-06
5.91895e-05
6.36686e-05
-8.75054e-08
6.37273e-05
2.13743e-07
6.37872e-05
3.23098e-07
6.38502e-05
3.9606e-07
6.39042e-05
4.52239e-07
6.39399e-05
4.78279e-07
6.39571e-05
4.8376e-07
6.39586e-05
4.79971e-07
6.39471e-05
4.71381e-07
6.39248e-05
4.59741e-07
6.38938e-05
4.46473e-07
6.38559e-05
4.32669e-07
6.38125e-05
4.1898e-07
6.37648e-05
4.05778e-07
6.37137e-05
3.93314e-07
6.36597e-05
3.81777e-07
6.36034e-05
3.71325e-07
6.35451e-05
3.62109e-07
6.34849e-05
3.54304e-07
6.34229e-05
3.4813e-07
6.33589e-05
3.43883e-07
6.32928e-05
3.4198e-07
6.3224e-05
3.43011e-07
6.31519e-05
3.47834e-07
6.30757e-05
3.57748e-07
6.29942e-05
3.74638e-07
6.29059e-05
4.01689e-07
6.28088e-05
4.42874e-07
6.27029e-05
5.08207e-07
6.25839e-05
6.00171e-07
6.24874e-05
7.68003e-07
6.2332e-05
9.53019e-07
1.35392e-06
6.24731e-05
6.55168e-05
-2.12128e-08
6.55576e-05
1.7292e-07
6.55942e-05
2.86494e-07
6.56346e-05
3.55678e-07
6.56761e-05
4.10706e-07
6.5712e-05
4.42422e-07
6.57405e-05
4.55212e-07
6.57621e-05
4.58456e-07
6.57768e-05
4.56622e-07
6.57852e-05
4.51352e-07
6.57878e-05
4.43885e-07
6.57852e-05
4.35256e-07
6.5778e-05
4.26148e-07
6.57668e-05
4.17004e-07
6.5752e-05
4.08151e-07
6.57339e-05
3.99863e-07
6.57128e-05
3.92386e-07
6.5689e-05
3.8596e-07
6.56624e-05
3.80851e-07
6.56332e-05
3.77371e-07
6.56012e-05
3.7592e-07
6.55661e-05
3.77025e-07
6.55277e-05
3.81403e-07
6.54855e-05
3.90052e-07
6.54388e-05
4.04411e-07
6.5387e-05
4.26498e-07
6.53292e-05
4.59425e-07
6.52649e-05
5.07193e-07
6.51959e-05
5.77265e-07
6.51219e-05
6.74129e-07
6.50686e-05
8.21291e-07
6.50185e-05
1.00312e-06
1.26863e-06
6.51038e-05
6.74274e-05
8.14827e-09
6.74476e-05
1.5277e-07
6.74707e-05
2.63409e-07
6.74981e-05
3.28243e-07
6.75304e-05
3.78419e-07
6.75619e-05
4.10934e-07
6.759e-05
4.27099e-07
6.76144e-05
4.34068e-07
6.7635e-05
4.35991e-07
6.76519e-05
4.34451e-07
6.76652e-05
4.30572e-07
6.76751e-05
4.2533e-07
6.76819e-05
4.19406e-07
6.76856e-05
4.13252e-07
6.76866e-05
4.07223e-07
6.76848e-05
4.01622e-07
6.76805e-05
3.96734e-07
6.76736e-05
3.92845e-07
6.76642e-05
3.90268e-07
6.76522e-05
3.89374e-07
6.76375e-05
3.90621e-07
6.76199e-05
3.946e-07
6.75992e-05
4.02094e-07
6.75751e-05
4.14152e-07
6.75473e-05
4.32218e-07
6.75155e-05
4.58245e-07
6.748e-05
4.9499e-07
6.74413e-05
5.45905e-07
6.74024e-05
6.16161e-07
6.73668e-05
7.09691e-07
6.73513e-05
8.36757e-07
6.7362e-05
9.92423e-07
1.18023e-06
6.74504e-05
6.93698e-05
2.23546e-08
6.93823e-05
1.4033e-07
6.94034e-05
2.4232e-07
6.94268e-05
3.04749e-07
6.94538e-05
3.51466e-07
6.94809e-05
3.83799e-07
6.95062e-05
4.01886e-07
6.95291e-05
4.11073e-07
6.95499e-05
4.15206e-07
6.95685e-05
4.1592e-07
6.95847e-05
4.14294e-07
6.95988e-05
4.1126e-07
6.96107e-05
4.07492e-07
6.96205e-05
4.0345e-07
6.96283e-05
3.99499e-07
6.96339e-05
3.95958e-07
6.96375e-05
3.93129e-07
6.96391e-05
3.9132e-07
6.96384e-05
3.90873e-07
6.96356e-05
3.92183e-07
6.96305e-05
3.95739e-07
6.9623e-05
4.02152e-07
6.96129e-05
4.1221e-07
6.96001e-05
4.26935e-07
6.95846e-05
4.4767e-07
6.95667e-05
4.76143e-07
6.95471e-05
5.14603e-07
6.95273e-05
5.65693e-07
6.95108e-05
6.32711e-07
6.95023e-05
7.18121e-07
6.95137e-05
8.25435e-07
6.95551e-05
9.50966e-07
1.0858e-06
6.96496e-05
7.13587e-05
2.99709e-08
7.13691e-05
1.29945e-07
7.13895e-05
2.21948e-07
7.14114e-05
2.82785e-07
7.14355e-05
3.27408e-07
7.146e-05
3.59351e-07
7.14831e-05
3.78744e-07
7.15046e-05
3.89547e-07
7.15246e-05
3.9525e-07
7.1543e-05
3.97547e-07
7.15597e-05
3.97506e-07
7.1575e-05
3.96033e-07
7.15887e-05
3.93805e-07
7.16008e-05
3.91298e-07
7.16114e-05
3.88891e-07
7.16205e-05
3.86916e-07
7.16279e-05
3.85687e-07
7.16337e-05
3.85525e-07
7.16378e-05
3.86781e-07
7.16401e-05
3.89863e-07
7.16406e-05
3.95258e-07
7.16392e-05
4.03564e-07
7.16359e-05
4.15529e-07
7.16307e-05
4.32084e-07
7.1624e-05
4.54396e-07
7.16162e-05
4.83878e-07
7.16086e-05
5.22219e-07
7.16031e-05
5.7122e-07
7.16031e-05
6.32719e-07
7.16135e-05
7.07701e-07
7.16427e-05
7.96228e-07
7.16995e-05
8.94211e-07
9.90958e-07
7.17943e-05
7.34018e-05
3.34115e-08
7.34112e-05
1.20563e-07
7.343e-05
2.03173e-07
7.34508e-05
2.61945e-07
7.34733e-05
3.04944e-07
7.34963e-05
3.36364e-07
7.35183e-05
3.56707e-07
7.3539e-05
3.68875e-07
7.35583e-05
3.75909e-07
7.35764e-05
3.79513e-07
7.35931e-05
3.80758e-07
7.36086e-05
3.8053e-07
7.36229e-05
3.79515e-07
7.3636e-05
3.78211e-07
7.36479e-05
3.77011e-07
7.36585e-05
3.76262e-07
7.36679e-05
3.76288e-07
7.3676e-05
3.77418e-07
7.36828e-05
3.80005e-07
7.36882e-05
3.84449e-07
7.36923e-05
3.91219e-07
7.3695e-05
4.00873e-07
7.36964e-05
4.14081e-07
7.36969e-05
4.31646e-07
7.36967e-05
4.54513e-07
7.36969e-05
4.8375e-07
7.36986e-05
5.20505e-07
7.3704e-05
5.6583e-07
7.37162e-05
6.20476e-07
7.37396e-05
6.84293e-07
7.37802e-05
7.55687e-07
7.3844e-05
8.30408e-07
8.99098e-07
7.39358e-05
7.55017e-05
3.4192e-08
7.55104e-05
1.11888e-07
7.55274e-05
1.86131e-07
7.55472e-05
2.42171e-07
7.55685e-05
2.83637e-07
7.55904e-05
3.14407e-07
7.56118e-05
3.35363e-07
7.5632e-05
3.48657e-07
7.56511e-05
3.56856e-07
7.5669e-05
3.61613e-07
7.56857e-05
3.63991e-07
7.57014e-05
3.64854e-07
7.5716e-05
3.64885e-07
7.57297e-05
3.64599e-07
7.57423e-05
3.64406e-07
7.57539e-05
3.64662e-07
7.57644e-05
3.657e-07
7.5774e-05
3.67849e-07
7.57826e-05
3.71455e-07
7.57901e-05
3.76902e-07
7.57967e-05
3.84623e-07
7.58025e-05
3.95116e-07
7.58076e-05
4.08954e-07
7.58125e-05
4.26785e-07
7.58176e-05
4.49322e-07
7.58241e-05
4.77298e-07
7.58332e-05
5.11385e-07
7.5847e-05
5.52031e-07
7.58683e-05
5.99226e-07
7.59005e-05
6.52093e-07
7.59478e-05
7.08376e-07
7.60141e-05
7.64097e-07
8.11839e-07
7.61013e-05
7.76603e-05
3.34345e-08
7.76685e-05
1.03677e-07
7.76841e-05
1.70608e-07
7.77028e-05
2.23492e-07
7.7723e-05
2.63376e-07
7.77441e-05
2.9337e-07
7.77648e-05
3.14601e-07
7.77847e-05
3.28743e-07
7.78037e-05
3.3792e-07
7.78216e-05
3.43682e-07
7.78385e-05
3.4707e-07
7.78545e-05
3.48912e-07
7.78695e-05
3.4988e-07
7.78836e-05
3.50496e-07
7.78968e-05
3.51177e-07
7.79092e-05
3.52284e-07
7.79207e-05
3.54152e-07
7.79315e-05
3.57104e-07
7.79415e-05
3.61473e-07
7.79507e-05
3.67613e-07
7.79595e-05
3.75911e-07
7.79678e-05
3.86793e-07
7.7976e-05
4.00721e-07
7.79846e-05
4.18185e-07
7.79943e-05
4.39675e-07
7.80059e-05
4.65624e-07
7.8021e-05
4.96319e-07
7.80413e-05
5.31756e-07
7.80691e-05
5.71439e-07
7.81071e-05
6.14108e-07
7.8158e-05
6.57395e-07
7.82243e-05
6.9785e-07
7.29838e-07
7.83063e-05
7.98799e-05
3.18396e-08
7.98878e-05
9.5795e-08
7.9902e-05
1.56374e-07
7.99196e-05
2.05908e-07
7.99389e-05
2.44095e-07
7.99591e-05
2.73188e-07
7.99793e-05
2.94402e-07
7.99989e-05
3.09108e-07
8.00178e-05
3.19056e-07
8.00358e-05
3.25661e-07
8.0053e-05
3.29921e-07
8.00692e-05
3.32627e-07
8.00847e-05
3.34428e-07
8.00993e-05
3.35841e-07
8.01132e-05
3.37283e-07
8.01264e-05
3.39113e-07
8.01389e-05
3.41657e-07
8.01508e-05
3.45228e-07
8.01621e-05
3.50135e-07
8.0173e-05
3.56697e-07
8.01837e-05
3.65245e-07
8.01944e-05
3.76125e-07
8.02054e-05
3.89689e-07
8.02173e-05
4.06274e-07
8.02308e-05
4.26171e-07
8.02469e-05
4.49565e-07
8.02668e-05
4.76451e-07
8.0292e-05
5.06516e-07
8.03244e-05
5.38992e-07
8.03661e-05
5.72489e-07
8.04186e-05
6.04803e-07
8.04834e-05
6.33102e-07
6.53189e-07
8.056e-05
8.21625e-05
2.98182e-08
8.21701e-05
8.82025e-08
8.21832e-05
1.43227e-07
8.21998e-05
1.89367e-07
8.22181e-05
2.25725e-07
8.22375e-05
2.53797e-07
8.22572e-05
2.74751e-07
8.22765e-05
2.8976e-07
8.22953e-05
3.00267e-07
8.23134e-05
3.07541e-07
8.23308e-05
3.12523e-07
8.23475e-05
3.15965e-07
8.23634e-05
3.18484e-07
8.23787e-05
3.20583e-07
8.23933e-05
3.22669e-07
8.24073e-05
3.25093e-07
8.24208e-05
3.28168e-07
8.24339e-05
3.32185e-07
8.24466e-05
3.37425e-07
8.24591e-05
3.44164e-07
8.24717e-05
3.52675e-07
8.24846e-05
3.63223e-07
8.24982e-05
3.76053e-07
8.25131e-05
3.91366e-07
8.253e-05
4.09286e-07
8.25498e-05
4.29804e-07
8.25735e-05
4.52711e-07
8.26025e-05
4.7751e-07
8.26382e-05
5.03313e-07
8.26819e-05
5.28762e-07
8.27348e-05
5.51942e-07
8.27973e-05
5.70616e-07
5.81688e-07
8.28688e-05
8.451e-05
2.7609e-08
8.45173e-05
8.08945e-08
8.45295e-05
1.30987e-07
8.45451e-05
1.73782e-07
8.45627e-05
2.08194e-07
8.45813e-05
2.35128e-07
8.46005e-05
2.55621e-07
8.46195e-05
2.70696e-07
8.46382e-05
2.81558e-07
8.46564e-05
2.89325e-07
8.46741e-05
2.94875e-07
8.46911e-05
2.98914e-07
8.47076e-05
3.02025e-07
8.47235e-05
3.04688e-07
8.47389e-05
3.07296e-07
8.47538e-05
3.10182e-07
8.47683e-05
3.1364e-07
8.47826e-05
3.17937e-07
8.47967e-05
3.23318e-07
8.48108e-05
3.30014e-07
8.48253e-05
3.38238e-07
8.48403e-05
3.48178e-07
8.48564e-05
3.59983e-07
8.4874e-05
3.73739e-07
8.48938e-05
3.89438e-07
8.49167e-05
4.06932e-07
8.49436e-05
4.25882e-07
8.49754e-05
4.45699e-07
8.50132e-05
4.65486e-07
8.50579e-05
4.84006e-07
8.51102e-05
4.99668e-07
8.51701e-05
5.10753e-07
5.14991e-07
8.52368e-05
8.69244e-05
2.53474e-08
8.69314e-05
7.38734e-08
8.69429e-05
1.19508e-07
8.69577e-05
1.59051e-07
8.69744e-05
1.91425e-07
8.69925e-05
2.17109e-07
8.70111e-05
2.36968e-07
8.70299e-05
2.519e-07
8.70485e-05
2.62921e-07
8.70669e-05
2.7101e-07
8.70848e-05
2.76973e-07
8.71022e-05
2.81467e-07
8.71192e-05
2.85038e-07
8.71357e-05
2.88138e-07
8.71519e-05
2.91138e-07
8.71677e-05
2.94351e-07
8.71833e-05
2.98047e-07
8.71988e-05
3.02462e-07
8.72143e-05
3.07805e-07
8.72301e-05
3.14261e-07
8.72463e-05
3.21986e-07
8.72634e-05
3.31097e-07
8.72817e-05
3.41662e-07
8.73018e-05
3.53674e-07
8.73242e-05
3.67027e-07
8.73497e-05
3.81483e-07
8.73789e-05
3.96635e-07
8.74127e-05
4.11868e-07
8.74519e-05
4.26342e-07
8.74969e-05
4.38986e-07
8.75481e-05
4.48517e-07
8.76052e-05
4.53648e-07
4.52717e-07
8.76674e-05
8.94078e-05
2.31059e-08
8.94145e-05
6.71363e-08
8.94254e-05
1.0867e-07
8.94393e-05
1.45068e-07
8.94554e-05
1.75337e-07
8.94729e-05
1.99664e-07
8.94911e-05
2.18738e-07
8.95097e-05
2.33341e-07
8.95283e-05
2.44338e-07
8.95467e-05
2.52582e-07
8.95648e-05
2.58805e-07
8.95827e-05
2.63612e-07
8.96002e-05
2.6751e-07
8.96175e-05
2.70917e-07
8.96344e-05
2.74179e-07
8.96512e-05
2.77585e-07
8.96679e-05
2.81377e-07
8.96846e-05
2.85758e-07
8.97015e-05
2.90902e-07
8.97188e-05
2.96948e-07
8.97368e-05
3.03999e-07
8.97557e-05
3.12114e-07
8.97761e-05
3.21291e-07
8.97983e-05
3.31457e-07
8.98229e-05
3.42438e-07
8.98505e-05
3.53946e-07
8.98815e-05
3.65549e-07
8.99168e-05
3.76658e-07
8.99566e-05
3.86521e-07
9.00013e-05
3.94245e-07
9.0051e-05
3.98823e-07
9.01053e-05
3.99311e-07
3.94492e-07
9.01636e-05
9.1962e-05
2.09202e-08
9.19685e-05
6.06735e-08
9.19788e-05
9.83739e-08
9.19921e-05
1.31731e-07
9.20076e-05
1.59849e-07
9.20246e-05
1.8272e-07
9.20424e-05
2.00872e-07
9.20608e-05
2.14979e-07
9.20794e-05
2.25782e-07
9.20979e-05
2.34022e-07
9.21164e-05
2.40355e-07
9.21347e-05
2.45335e-07
9.21527e-05
2.49425e-07
9.21707e-05
2.5301e-07
9.21884e-05
2.56408e-07
9.22061e-05
2.59877e-07
9.22239e-05
2.6363e-07
9.22418e-05
2.67841e-07
9.22601e-05
2.72645e-07
9.22789e-05
2.7814e-07
9.22985e-05
2.84383e-07
9.23192e-05
2.91384e-07
9.23414e-05
2.9909e-07
9.23655e-05
3.07379e-07
9.23919e-05
3.16041e-07
9.24211e-05
3.24765e-07
9.24535e-05
3.33129e-07
9.24896e-05
3.40595e-07
9.25296e-05
3.46518e-07
9.25736e-05
3.50173e-07
9.26217e-05
3.50788e-07
9.26733e-05
3.47684e-07
3.39976e-07
9.27278e-05
9.45893e-05
1.88045e-08
9.45955e-05
5.44668e-08
9.46053e-05
8.85383e-08
9.46181e-05
1.18945e-07
9.46331e-05
1.44878e-07
9.46496e-05
1.66202e-07
9.46672e-05
1.83308e-07
9.46854e-05
1.96767e-07
9.47039e-05
2.07217e-07
9.47227e-05
2.153e-07
9.47414e-05
2.21599e-07
9.47601e-05
2.26615e-07
9.47788e-05
2.30768e-07
9.47974e-05
2.34406e-07
9.4816e-05
2.37816e-07
9.48346e-05
2.41227e-07
9.48535e-05
2.44821e-07
9.48726e-05
2.4874e-07
9.48921e-05
2.53085e-07
9.49123e-05
2.57919e-07
9.49335e-05
2.6326e-07
9.49558e-05
2.69077e-07
9.49796e-05
2.75284e-07
9.50052e-05
2.81728e-07
9.50331e-05
2.88182e-07
9.50635e-05
2.94338e-07
9.50968e-05
2.99803e-07
9.51333e-05
3.04106e-07
9.51731e-05
3.06712e-07
9.52163e-05
3.07045e-07
9.52625e-05
3.04525e-07
9.53115e-05
2.9868e-07
2.88863e-07
9.53626e-05
9.72916e-05
1.67609e-08
9.72975e-05
4.84934e-08
9.7307e-05
7.90915e-08
9.73193e-05
1.06621e-07
9.73338e-05
1.30342e-07
9.735e-05
1.50035e-07
9.73673e-05
1.65979e-07
9.73855e-05
1.78654e-07
9.74041e-05
1.88604e-07
9.7423e-05
1.96385e-07
9.74421e-05
2.02512e-07
9.74613e-05
2.07433e-07
9.74805e-05
2.11524e-07
9.74998e-05
2.15096e-07
9.75192e-05
2.18403e-07
9.75388e-05
2.21644e-07
9.75587e-05
2.24972e-07
9.75789e-05
2.28497e-07
9.75997e-05
2.3229e-07
9.76212e-05
2.36383e-07
9.76437e-05
2.40764e-07
9.76674e-05
2.45372e-07
9.76926e-05
2.501e-07
9.77196e-05
2.54778e-07
9.77486e-05
2.5918e-07
9.77799e-05
2.63016e-07
9.78138e-05
2.65935e-07
9.78503e-05
2.67539e-07
9.78897e-05
2.67392e-07
9.79317e-05
2.65053e-07
9.79761e-05
2.60092e-07
9.80226e-05
2.52193e-07
2.40886e-07
9.80706e-05
0.000100071
1.4785e-08
0.000100077
4.27258e-08
0.000100086
6.99693e-08
0.000100098
9.46762e-08
0.000100112
1.1616e-07
0.000100128
1.34147e-07
0.000100145
1.48822e-07
0.000100163
1.60584e-07
0.000100182
1.69897e-07
0.000100201
1.77241e-07
0.000100221
1.83066e-07
0.00010024
1.87767e-07
0.00010026
1.91678e-07
0.00010028
1.95073e-07
0.0001003
1.98172e-07
0.000100321
2.01144e-07
0.000100342
2.04114e-07
0.000100363
2.07164e-07
0.000100385
2.10338e-07
0.000100408
2.13641e-07
0.000100431
2.17037e-07
0.000100456
2.20449e-07
0.000100483
2.23755e-07
0.000100511
2.26785e-07
0.000100541
2.29322e-07
0.000100572
2.31104e-07
0.000100607
2.31829e-07
0.000100643
2.31168e-07
0.000100682
2.28779e-07
0.000100722
2.24325e-07
0.000100765
2.17505e-07
0.000100809
2.08111e-07
1.95809e-07
0.000100854
0.00010293
1.28693e-08
0.000102936
3.71353e-08
0.000102944
6.11143e-08
0.000102956
8.30364e-08
0.00010297
1.02257e-07
0.000102986
1.18463e-07
0.000103003
1.31769e-07
0.000103021
1.425e-07
0.00010304
1.5105e-07
0.000103059
1.5783e-07
0.000103079
1.6323e-07
0.000103099
1.67595e-07
0.00010312
1.71217e-07
0.00010314
1.74333e-07
0.000103161
1.77131e-07
0.000103183
1.79751e-07
0.000103205
1.82288e-07
0.000103227
1.84802e-07
0.00010325
1.87313e-07
0.000103274
1.89804e-07
0.000103299
1.92225e-07
0.000103325
1.94485e-07
0.000103352
1.9646e-07
0.000103381
1.97985e-07
0.000103411
1.98863e-07
0.000103443
1.98864e-07
0.000103477
1.97736e-07
0.000103513
1.95213e-07
0.000103551
1.91032e-07
0.000103591
1.84949e-07
0.000103631
1.76753e-07
0.000103673
1.66325e-07
1.53423e-07
0.000103715
0.000105871
1.10043e-08
0.000105876
3.16922e-08
0.000105885
5.24725e-08
0.000105896
7.16313e-08
0.00010591
8.8558e-08
0.000105925
1.02912e-07
0.000105942
1.14754e-07
0.000105961
1.24343e-07
0.00010598
1.32011e-07
0.000105999
1.38109e-07
0.00010602
1.42971e-07
0.00010604
1.46893e-07
0.000106061
1.50128e-07
0.000106083
1.52876e-07
0.000106105
1.55293e-07
0.000106127
1.5749e-07
0.00010615
1.5954e-07
0.000106173
1.61478e-07
0.000106197
1.63305e-07
0.000106222
1.6499e-07
0.000106248
1.6647e-07
0.000106274
1.6765e-07
0.000106302
1.68408e-07
0.000106332
1.68592e-07
0.000106363
1.68027e-07
0.000106395
1.66518e-07
0.000106429
1.63858e-07
0.000106464
1.59843e-07
0.000106501
1.54271e-07
0.000106539
1.46974e-07
0.000106578
1.3781e-07
0.000106618
1.26725e-07
1.13545e-07
0.000106657
0.000108895
9.18035e-09
0.000108901
2.63675e-08
0.000108909
4.39944e-08
0.00010892
6.03959e-08
0.000108934
7.49916e-08
0.000108949
8.74237e-08
0.000108966
9.77074e-08
0.000108985
1.06051e-07
0.000109004
1.12728e-07
0.000109024
1.18035e-07
0.000109045
1.22255e-07
0.000109066
1.25639e-07
0.000109088
1.28399e-07
0.00010911
1.30701e-07
0.000109133
1.32671e-07
0.000109156
1.34395e-07
0.000109179
1.3592e-07
0.000109203
1.37262e-07
0.000109228
1.38408e-07
0.000109254
1.39313e-07
0.000109281
1.3991e-07
0.000109308
1.40103e-07
0.000109337
1.39777e-07
0.000109367
1.38795e-07
0.000109398
1.37007e-07
0.00010943
1.3425e-07
0.000109463
1.30363e-07
0.000109498
1.25186e-07
0.000109534
1.18578e-07
0.00010957
1.10423e-07
0.000109607
1.00637e-07
0.000109645
8.92054e-08
7.60102e-08
0.000109682
0.000112006
7.38789e-09
0.000112012
2.11331e-08
0.00011202
3.56334e-08
0.000112031
4.92691e-08
0.000112045
6.14887e-08
0.00011206
7.19255e-08
0.000112077
8.05616e-08
0.000112096
8.75594e-08
0.000112115
9.31445e-08
0.000112136
9.75611e-08
0.000112157
1.01045e-07
0.000112179
1.03806e-07
0.000112201
1.06016e-07
0.000112224
1.0781e-07
0.000112247
1.09283e-07
0.000112271
1.10496e-07
0.000112296
1.11476e-07
0.000112321
1.12223e-07
0.000112347
1.12709e-07
0.000112373
1.12884e-07
0.0001124
1.12674e-07
0.000112428
1.1199e-07
0.000112457
1.10724e-07
0.000112487
1.08759e-07
0.000112518
1.05965e-07
0.00011255
1.02213e-07
0.000112583
9.73767e-08
0.000112617
9.13406e-08
0.000112652
8.40063e-08
0.000112687
7.53018e-08
0.000112722
6.51833e-08
0.000112758
5.36666e-08
4.06715e-08
0.000112793
0.000115206
5.61788e-09
0.000115211
1.59635e-08
0.00011522
2.73471e-08
0.000115231
3.81936e-08
0.000115244
4.79823e-08
0.00011526
5.63466e-08
0.000115277
6.32449e-08
0.000115296
6.88022e-08
0.000115316
7.31992e-08
0.000115337
7.66349e-08
0.000115359
7.9301e-08
0.000115381
8.13655e-08
0.000115404
8.29647e-08
0.000115428
8.42006e-08
0.000115452
8.51416e-08
0.000115476
8.58248e-08
0.000115502
8.62592e-08
0.000115527
8.64289e-08
0.000115554
8.62962e-08
0.000115581
8.58048e-08
0.000115609
8.48821e-08
0.000115637
8.34428e-08
0.000115667
8.13904e-08
0.000115697
7.86234e-08
0.000115728
7.50359e-08
0.000115759
7.05267e-08
0.000115792
6.5e-08
0.000115825
5.83751e-08
0.000115858
5.05877e-08
0.000115892
4.15995e-08
0.000115926
3.13952e-08
0.000115959
2.00111e-08
7.39397e-09
0.000115993
0.000118498
3.86256e-09
0.000118503
1.08359e-08
0.000118511
1.90967e-08
0.000118522
2.71151e-08
0.000118536
3.44059e-08
0.000118551
4.06136e-08
0.000118569
4.56826e-08
0.000118588
4.97065e-08
0.000118608
5.28266e-08
0.00011863
5.51997e-08
0.000118652
5.69757e-08
0.000118675
5.82837e-08
0.000118699
5.92243e-08
0.000118723
5.98687e-08
0.000118748
6.02587e-08
0.000118774
6.04098e-08
0.0001188
6.03134e-08
0.000118826
5.99407e-08
0.000118853
5.92462e-08
0.000118881
5.81689e-08
0.000118909
5.66386e-08
0.000118938
5.45742e-08
0.000118967
5.18928e-08
0.000118998
4.85054e-08
0.000119028
4.43301e-08
0.000119059
3.92857e-08
0.000119091
3.33059e-08
0.000119123
2.63337e-08
0.000119155
1.83348e-08
0.000119188
9.2919e-09
0.00011922
-7.86642e-10
0.000119252
-1.1855e-08
-2.39434e-08
0.000119283
0.000121883
2.11584e-09
0.000121888
5.73289e-09
0.000121896
1.08497e-08
0.000121908
1.59834e-08
0.000121921
2.06938e-08
0.000121937
2.46507e-08
0.000121955
2.77948e-08
0.000121975
3.01937e-08
0.000121995
3.1953e-08
0.000122017
3.31902e-08
0.00012204
3.40157e-08
0.000122064
3.45199e-08
0.000122089
3.47689e-08
0.000122114
3.48033e-08
0.000122139
3.46397e-08
0.000122166
3.42724e-08
0.000122192
3.36767e-08
0.000122219
3.28129e-08
0.000122247
3.16269e-08
0.000122275
3.0057e-08
0.000122304
2.80326e-08
0.000122333
2.54814e-08
0.000122362
2.23275e-08
0.000122392
1.85002e-08
0.000122423
1.39305e-08
0.000122453
8.56099e-09
0.000122484
2.3422e-09
0.000122515
-4.75787e-09
0.000122547
-1.27576e-08
0.000122577
-2.16534e-08
0.000122608
-3.14266e-08
0.000122638
-4.20214e-08
-5.34565e-08
0.000122668
0.000125365
3.74858e-10
0.00012537
6.44663e-10
0.000125379
2.58173e-09
0.00012539
4.75258e-09
0.000125404
6.77872e-09
0.00012542
8.37677e-09
0.000125438
9.49355e-09
0.000125458
1.01751e-08
0.00012548
1.04942e-08
0.000125502
1.05313e-08
0.000125526
1.03573e-08
0.000125551
1.00243e-08
0.000125576
9.56343e-09
0.000125602
8.98532e-09
0.000125628
8.28126e-09
0.000125655
7.4253e-09
0.000125682
6.37775e-09
0.00012571
5.08683e-09
0.000125738
3.4937e-09
0.000125766
1.53295e-09
0.000125795
-8.62767e-10
0.000125825
-3.7614e-09
0.000125854
-7.22809e-09
0.000125884
-1.13234e-08
0.000125914
-1.61003e-08
0.000125944
-2.16024e-08
0.000125974
-2.78613e-08
0.000126005
-3.48949e-08
0.000126035
-4.27057e-08
0.000126064
-5.12801e-08
0.000126093
-6.05891e-08
0.000126122
-7.05752e-08
-8.1246e-08
0.00012615
0.000128947
-1.35803e-09
0.000128952
-4.42406e-09
0.00012896
-5.71738e-09
0.000128972
-6.6174e-09
0.000128986
-7.40874e-09
0.000129002
-8.29771e-09
0.000129021
-9.32065e-09
0.000129042
-1.04515e-08
0.000129064
-1.16484e-08
0.000129087
-1.28671e-08
0.000129112
-1.40766e-08
0.000129137
-1.52652e-08
0.000129163
-1.64376e-08
0.00012919
-1.76141e-08
0.000129217
-1.88285e-08
0.000129244
-2.01273e-08
0.000129272
-2.15653e-08
0.000129301
-2.32051e-08
0.000129329
-2.51111e-08
0.000129358
-2.73517e-08
0.000129387
-2.99916e-08
0.000129417
-3.3095e-08
0.000129446
-3.67186e-08
0.000129476
-4.09142e-08
0.000129505
-4.57229e-08
0.000129535
-5.11771e-08
0.000129564
-5.72956e-08
0.000129594
-6.4086e-08
0.000129622
-7.15406e-08
0.000129651
-7.96391e-08
0.000129678
-8.83476e-08
0.000129706
-9.76098e-08
-1.07427e-07
0.000129732
0.000132631
-3.07028e-09
0.000132636
-9.44321e-09
0.000132644
-1.40347e-08
0.000132656
-1.81586e-08
0.00013267
-2.1944e-08
0.000132687
-2.54752e-08
0.000132707
-2.8764e-08
0.000132728
-3.1807e-08
0.000132751
-3.45927e-08
0.000132775
-3.71136e-08
0.000132801
-3.93823e-08
0.000132827
-4.143e-08
0.000132854
-4.32998e-08
0.000132881
-4.50433e-08
0.000132909
-4.67218e-08
0.000132937
-4.84013e-08
0.000132966
-5.01541e-08
0.000132995
-5.20509e-08
0.000133024
-5.41658e-08
0.000133053
-5.65659e-08
0.000133082
-5.93188e-08
0.000133112
-6.24818e-08
0.000133141
-6.61092e-08
0.00013317
-7.02424e-08
0.0001332
-7.49172e-08
0.000133229
-8.01545e-08
0.000133257
-8.59674e-08
0.000133286
-9.23535e-08
0.000133313
-9.93017e-08
0.00013334
-1.06785e-07
0.000133367
-1.1477e-07
0.000133392
-1.23199e-07
-1.32071e-07
0.000133417
0.00013642
-4.73009e-09
0.000136425
-1.43341e-08
0.000136433
-2.23176e-08
0.000136445
-2.98917e-08
0.00013646
-3.69116e-08
0.000136478
-4.32779e-08
0.000136498
-4.89801e-08
0.00013652
-5.40419e-08
0.000136544
-5.84815e-08
0.000136569
-6.23338e-08
0.000136595
-6.5664e-08
0.000136623
-6.85531e-08
0.00013665
-7.10855e-08
0.000136679
-7.33471e-08
0.000136707
-7.54267e-08
0.000136736
-7.74125e-08
0.000136766
-7.93914e-08
0.000136795
-8.14467e-08
0.000136825
-8.36569e-08
0.000136854
-8.60947e-08
0.000136884
-8.88253e-08
0.000136913
-9.19067e-08
0.000136942
-9.53865e-08
0.000136971
-9.93038e-08
0.000137
-1.03686e-07
0.000137029
-1.08551e-07
0.000137056
-1.13904e-07
0.000137084
-1.19741e-07
0.000137111
-1.26046e-07
0.000137137
-1.32794e-07
0.000137162
-1.39949e-07
0.000137186
-1.47464e-07
-1.55334e-07
0.000137209
0.000140317
-6.26477e-09
0.000140322
-1.89231e-08
0.00014033
-3.04485e-08
0.000140342
-4.18295e-08
0.000140357
-5.24104e-08
0.000140376
-6.18464e-08
0.000140397
-7.01401e-08
0.000140421
-7.73512e-08
0.000140446
-8.352e-08
0.000140472
-8.87286e-08
0.000140499
-9.3107e-08
0.000140528
-9.67964e-08
0.000140556
-9.99286e-08
0.000140586
-1.0263e-07
0.000140615
-1.0502e-07
0.000140645
-1.07211e-07
0.000140675
-1.09306e-07
0.000140705
-1.11402e-07
0.000140735
-1.13582e-07
0.000140765
-1.15924e-07
0.000140794
-1.18494e-07
0.000140824
-1.21349e-07
0.000140853
-1.24533e-07
0.000140882
-1.28085e-07
0.00014091
-1.32026e-07
0.000140938
-1.36371e-07
0.000140965
-1.41124e-07
0.000140992
-1.46277e-07
0.000141018
-1.51814e-07
0.000141042
-1.57709e-07
0.000141066
-1.63929e-07
0.000141089
-1.70425e-07
-1.7719e-07
0.000141111
0.000144326
-7.51577e-09
0.00014433
-2.28403e-08
0.000144338
-3.81917e-08
0.00014435
-5.39901e-08
0.000144366
-6.86017e-08
0.000144385
-8.13799e-08
0.000144408
-9.24292e-08
0.000144432
-1.01878e-07
0.000144459
-1.09805e-07
0.000144486
-1.16364e-07
0.000144515
-1.21766e-07
0.000144544
-1.26212e-07
0.000144574
-1.29886e-07
0.000144604
-1.32953e-07
0.000144635
-1.35567e-07
0.000144666
-1.37864e-07
0.000144696
-1.39968e-07
0.000144727
-1.41984e-07
0.000144757
-1.44007e-07
0.000144788
-1.46118e-07
0.000144817
-1.48388e-07
0.000144847
-1.50872e-07
0.000144876
-1.53616e-07
0.000144905
-1.56654e-07
0.000144933
-1.6001e-07
0.00014496
-1.63695e-07
0.000144987
-1.67714e-07
0.000145012
-1.72058e-07
0.000145037
-1.76714e-07
0.000145061
-1.81659e-07
0.000145084
-1.86869e-07
0.000145106
-1.92306e-07
-1.97969e-07
0.000145127
0.000148449
-8.12226e-09
0.000148451
-2.53578e-08
0.000148458
-4.51143e-08
0.00014847
-6.62919e-08
0.000148487
-8.56415e-08
0.000148508
-1.02293e-07
0.000148532
-1.16476e-07
0.000148559
-1.28319e-07
0.000148587
-1.37972e-07
0.000148616
-1.45751e-07
0.000148647
-1.52005e-07
0.000148677
-1.57028e-07
0.000148709
-1.61064e-07
0.00014874
-1.64329e-07
0.000148771
-1.67009e-07
0.000148803
-1.69266e-07
0.000148834
-1.71237e-07
0.000148865
-1.73039e-07
0.000148896
-1.74774e-07
0.000148926
-1.76525e-07
0.000148956
-1.78365e-07
0.000148986
-1.8035e-07
0.000149015
-1.82526e-07
0.000149043
-1.84926e-07
0.00014907
-1.87573e-07
0.000149097
-1.9048e-07
0.000149123
-1.9365e-07
0.000149148
-1.97078e-07
0.000149172
-2.00751e-07
0.000149195
-2.04648e-07
0.000149217
-2.08741e-07
0.000149238
-2.12988e-07
-2.17387e-07
0.000149257
0.000152688
-7.07044e-09
0.000152688
-2.50315e-08
0.000152694
-5.09842e-08
0.000152706
-7.87985e-08
0.000152724
-1.03089e-07
0.000152745
-1.2379e-07
0.00015277
-1.41475e-07
0.000152798
-1.56074e-07
0.000152828
-1.67719e-07
0.000152859
-1.76883e-07
0.000152891
-1.84062e-07
0.000152923
-1.8965e-07
0.000152956
-1.93976e-07
0.000152989
-1.97322e-07
0.000153022
-1.99926e-07
0.000153055
-2.01984e-07
0.000153087
-2.03655e-07
0.000153119
-2.05074e-07
0.000153151
-2.0635e-07
0.000153182
-2.07575e-07
0.000153212
-2.08823e-07
0.000153242
-2.10152e-07
0.000153271
-2.11609e-07
0.0001533
-2.13228e-07
0.000153327
-2.15032e-07
0.000153354
-2.17035e-07
0.000153379
-2.19243e-07
0.000153404
-2.21653e-07
0.000153427
-2.24257e-07
0.00015345
-2.27045e-07
0.000153471
-2.3e-07
0.000153491
-2.33107e-07
-2.36366e-07
0.00015351
0.000157046
-1.88462e-09
0.000157039
-1.75631e-08
0.000157043
-5.53668e-08
0.000157059
-9.41223e-08
0.00015708
-1.24955e-07
0.000157106
-1.49818e-07
0.000157135
-1.70247e-07
0.000157166
-1.86522e-07
0.000157197
-1.99205e-07
0.000157229
-2.09066e-07
0.000157262
-2.16714e-07
0.000157295
-2.22584e-07
0.000157328
-2.27045e-07
0.000157361
-2.30407e-07
0.000157394
-2.32927e-07
0.000157427
-2.34807e-07
0.000157459
-2.36214e-07
0.000157492
-2.37286e-07
0.000157523
-2.38137e-07
0.000157555
-2.38858e-07
0.000157585
-2.39528e-07
0.000157615
-2.40203e-07
0.000157645
-2.40933e-07
0.000157673
-2.41753e-07
0.000157701
-2.42688e-07
0.000157728
-2.43755e-07
0.000157753
-2.44962e-07
0.000157778
-2.46309e-07
0.000157802
-2.47792e-07
0.000157824
-2.49396e-07
0.000157845
-2.51102e-07
0.000157865
-2.52874e-07
-2.54722e-07
0.000157883
0.000161526
1.0527e-08
0.000161506
2.75433e-09
0.000161499
-4.83351e-08
0.000161504
-9.93514e-08
0.00016152
-1.41399e-07
0.000161546
-1.75917e-07
0.000161579
-2.02839e-07
0.000161615
-2.22697e-07
0.000161653
-2.37179e-07
0.000161692
-2.47852e-07
0.000161731
-2.55715e-07
0.00016177
-2.61439e-07
0.000161808
-2.65548e-07
0.000161846
-2.68454e-07
0.000161884
-2.70456e-07
0.000161921
-2.71781e-07
0.000161957
-2.726e-07
0.000161993
-2.73052e-07
0.000162028
-2.73245e-07
0.000162063
-2.73267e-07
0.000162096
-2.73186e-07
0.000162129
-2.73059e-07
0.000162161
-2.72928e-07
0.000162192
-2.72828e-07
0.000162222
-2.72783e-07
0.000162251
-2.72811e-07
0.000162279
-2.72922e-07
0.000162306
-2.73124e-07
0.000162332
-2.73418e-07
0.000162356
-2.73807e-07
0.000162379
-2.7429e-07
0.000162401
-2.74874e-07
-2.75565e-07
0.000162422
0.0001661
6.42874e-08
0.000166097
6.0181e-09
0.000166114
-6.59981e-08
0.000166131
-1.16508e-07
0.000166149
-1.58835e-07
0.000166169
-1.96576e-07
0.000166194
-2.27325e-07
0.000166222
-2.50911e-07
0.000166254
-2.68939e-07
0.000166289
-2.82781e-07
0.000166326
-2.93295e-07
0.000166366
-3.0115e-07
0.000166408
-3.06919e-07
0.00016645
-3.11059e-07
0.000166494
-3.13915e-07
0.000166538
-3.15756e-07
0.000166582
-3.16796e-07
0.000166626
-3.17211e-07
0.00016667
-3.17141e-07
0.000166713
-3.16701e-07
0.000166756
-3.15983e-07
0.000166798
-3.15063e-07
0.000166839
-3.14003e-07
0.000166879
-3.1285e-07
0.000166918
-3.11643e-07
0.000166956
-3.10413e-07
0.000166992
-3.0918e-07
0.000167027
-3.07959e-07
0.00016706
-3.0676e-07
0.000167092
-3.05586e-07
0.000167122