/*--------------------------------*- C++ -*----------------------------------*\
  =========                 |
  \\      /  F ield         | OpenFOAM: The Open Source CFD Toolbox
   \\    /   O peration     | Website:  https://openfoam.org
    \\  /    A nd           | Version:  10
     \\/     M anipulation  |
\*---------------------------------------------------------------------------*/
FoamFile
{
    format      ascii;
    class       volScalarField;
    location    "1700";
    object      yPlus;
}
// * * * * * * * * * * * * * * * * * * * * * * * * * * * * * * * * * * * * * //

dimensions      [0 0 0 0 0 0 0];

internalField   uniform 0;

boundaryField
{
    outlet
    {
        type            calculated;
        value           uniform 0;
    }
    inlet
    {
        type            calculated;
        value           uniform 0;
    }
    lowerWall
    {
        type            calculated;
        value           nonuniform List<scalar> 
148
(
9.9937
9.87583
9.76655
9.65577
9.54325
9.43227
9.32602
9.22679
9.13588
9.05383
8.98065
8.91611
8.85968
8.81083
8.76895
8.73341
8.70366
8.67912
8.65928
8.64367
8.63182
8.62334
8.61793
8.6152
8.61488
8.61682
8.6204
8.62727
8.63188
8.64224
8.63174
9.17707
8.56252
4.77926
7.27174
9.1555
10.5588
11.5455
11.956
11.8123
11.5499
11.759
12.0138
11.9572
12.0683
12.5135
13.9605
28.1858
4.77926
11.5208
11.6524
11.6663
11.5119
11.4655
11.4849
11.6605
12.4389
14.2671
16.9062
19.9389
23.0929
26.2255
29.2635
32.1729
34.9413
37.5684
40.0597
42.4232
44.6675
46.8019
48.8356
50.7773
52.6358
54.4189
56.1336
57.7858
59.3796
60.9179
62.4018
63.8306
65.2026
66.515
67.7649
68.9506
70.0725
71.1348
72.1421
73.074
73.9358
74.7286
75.454
76.1146
76.7135
77.2546
77.7418
78.1782
78.5666
78.9082
79.2029
79.4498
79.6465
79.7898
79.8764
79.9028
79.8656
79.7623
79.5911
79.3507
79.0409
78.6621
78.2154
77.7031
77.1287
76.4958
75.8113
75.0918
74.3898
73.8107
73.2905
72.7531
72.1883
71.601
70.9988
70.3893
69.7793
69.1742
68.5786
67.9961
67.4303
66.8845
66.3633
65.8735
65.4242
65.0262
64.6898
64.4232
64.2323
64.1208
64.0881
64.1226
64.1956
64.2616
64.2679
64.1669
63.9333
63.5387
63.1058
62.136
)
;
    }
    upperWall
    {
        type            calculated;
        value           nonuniform List<scalar> 
133
(
30.6045
31.4255
32.2162
32.9719
33.693
34.3806
35.0365
35.6619
36.2579
36.8257
37.366
37.8803
38.3694
38.8343
39.2761
39.6958
40.0942
40.4725
40.8313
41.1719
41.4947
41.8009
42.0912
42.3663
42.627
42.874
43.108
43.3297
43.5397
43.7386
43.927
44.1053
44.2743
44.4601
44.6634
44.8598
45.0492
45.2313
45.4059
45.5731
45.7326
45.8843
46.0281
46.1638
46.2915
46.4108
46.5219
46.6245
46.7185
46.804
46.8806
46.9484
47.0072
47.0569
47.0974
47.1286
47.1504
47.1626
47.1652
47.1578
47.1404
47.1127
47.0747
47.0261
46.9667
46.8961
46.8143
46.721
46.616
46.4989
46.3696
46.2279
46.0736
45.9065
45.7266
45.5338
45.3281
45.1096
44.8785
44.635
44.3793
44.112
43.8335
43.5446
43.246
42.9386
42.6235
42.3019
41.9753
41.6451
41.313
40.9812
40.6516
40.3263
40.0079
39.6985
39.4006
39.1164
38.8482
38.5979
38.367
38.1569
37.9684
37.8016
37.6565
37.532
37.4269
37.3394
37.2673
37.2079
37.1586
37.1166
37.0791
37.0435
37.0075
36.9691
36.9265
36.8786
36.8244
36.7637
36.6963
36.6224
36.5426
36.4572
36.3665
36.2714
36.1731
36.0718
35.9676
35.8629
35.7513
35.6597
35.4848
)
;
    }
    frontAndBack
    {
        type            empty;
    }
}


// ************************************************************************* //
