/*--------------------------------*- C++ -*----------------------------------*\
  =========                 |
  \\      /  F ield         | OpenFOAM: The Open Source CFD Toolbox
   \\    /   O peration     | Website:  https://openfoam.org
    \\  /    A nd           | Version:  10
     \\/     M anipulation  |
\*---------------------------------------------------------------------------*/
FoamFile
{
    format      ascii;
    class       volScalarField;
    location    "1000";
    object      k;
}
// * * * * * * * * * * * * * * * * * * * * * * * * * * * * * * * * * * * * * //

dimensions      [0 2 -2 0 0 0 0];

internalField   nonuniform List<scalar> 
6820
(
0.318932
0.614648
0.847397
0.983377
1.04836
1.06927
1.06475
1.0465
1.0217
0.994572
0.967459
0.941556
0.917413
0.895216
0.874952
0.856514
0.839751
0.824502
0.81061
0.797926
0.78632
0.775671
0.765876
0.756844
0.748493
0.740751
0.733554
0.726849
0.720561
0.714753
0.708804
0.705434
0.691376
0.838908
1.45739
1.5306
1.40689
1.25037
1.11087
0.996111
0.903238
0.827887
0.76631
0.715544
0.673419
0.638187
0.608546
0.583483
0.562195
0.544041
0.528503
0.515164
0.50368
0.493771
0.485204
0.477784
0.471351
0.465767
0.46092
0.456713
0.453069
0.449916
0.447224
0.444881
0.443159
0.441275
0.379893
0.662258
0.793337
0.827975
0.818186
0.790402
0.756381
0.721169
0.686891
0.654427
0.624111
0.596043
0.570195
0.546474
0.524757
0.504903
0.48677
0.470214
0.455101
0.441303
0.428703
0.417192
0.406671
0.397051
0.388251
0.380196
0.37282
0.366064
0.359872
0.354201
0.349
0.344258
0.339892
0.246132
0.3393
0.411878
0.458885
0.485704
0.49888
0.503287
0.502158
0.497535
0.490704
0.482486
0.473435
0.46393
0.454239
0.44455
0.434992
0.425659
0.41661
0.407887
0.399514
0.391503
0.383859
0.376578
0.369655
0.363079
0.356841
0.350925
0.34532
0.340011
0.334984
0.330224
0.325725
0.321457
0.216724
0.25341
0.285799
0.312244
0.332455
0.347125
0.357301
0.364011
0.368096
0.370197
0.370789
0.37023
0.368792
0.366686
0.364075
0.361089
0.357829
0.354377
0.350797
0.347142
0.343452
0.339759
0.33609
0.332464
0.328898
0.325402
0.321986
0.318658
0.315421
0.312279
0.309233
0.306287
0.30344
0.2067
0.22375
0.239981
0.254416
0.266684
0.276738
0.28477
0.291069
0.295923
0.299585
0.302262
0.304127
0.305322
0.305962
0.306143
0.305944
0.305432
0.304663
0.303682
0.30253
0.30124
0.299841
0.298355
0.296804
0.295204
0.29357
0.291915
0.290249
0.28858
0.286916
0.285265
0.28363
0.282018
0.202776
0.211442
0.220463
0.228911
0.236465
0.243012
0.248579
0.253258
0.257158
0.260378
0.263012
0.265139
0.26683
0.268145
0.269136
0.269846
0.270314
0.270573
0.270652
0.270576
0.270366
0.270042
0.26962
0.269115
0.268539
0.267905
0.267221
0.266497
0.26574
0.264958
0.264155
0.263338
0.262512
0.201168
0.205683
0.210952
0.216189
0.221064
0.22544
0.229296
0.232659
0.235575
0.238089
0.240245
0.242083
0.243642
0.244952
0.246043
0.246939
0.247664
0.248237
0.248675
0.248995
0.249208
0.249329
0.249367
0.249332
0.249234
0.24908
0.248876
0.24863
0.248347
0.248032
0.24769
0.247324
0.246941
0.200484
0.202809
0.205913
0.20924
0.212483
0.215494
0.218222
0.220663
0.222834
0.224755
0.226448
0.227934
0.229235
0.230369
0.231352
0.232201
0.232928
0.233546
0.234066
0.234497
0.234849
0.23513
0.235347
0.235505
0.235613
0.235673
0.235692
0.235674
0.235624
0.235544
0.235438
0.235309
0.235162
0.200184
0.20134
0.203132
0.205234
0.207404
0.209501
0.211457
0.21325
0.214879
0.216349
0.217669
0.218852
0.219908
0.220849
0.221684
0.222423
0.223075
0.223648
0.224148
0.224583
0.224958
0.225279
0.225551
0.225778
0.225964
0.226113
0.226229
0.226315
0.226373
0.226407
0.226419
0.226411
0.226386
0.200051
0.200588
0.201579
0.202869
0.204298
0.205746
0.207146
0.208465
0.209689
0.210815
0.211845
0.212781
0.213631
0.214399
0.215093
0.215717
0.216278
0.21678
0.217229
0.217628
0.217983
0.218295
0.21857
0.21881
0.219018
0.219197
0.219349
0.219477
0.219583
0.219669
0.219737
0.219789
0.219826
0.199992
0.200208
0.200718
0.201471
0.202377
0.203351
0.204335
0.205293
0.206205
0.207061
0.207858
0.208595
0.209273
0.209895
0.210464
0.210983
0.211456
0.211885
0.212274
0.212626
0.212943
0.213229
0.213485
0.213714
0.213918
0.214099
0.214259
0.2144
0.214523
0.21463
0.214722
0.214801
0.214867
0.199966
0.200017
0.200248
0.200654
0.201196
0.201823
0.202489
0.203165
0.203829
0.204469
0.205076
0.205648
0.206182
0.206679
0.20714
0.207565
0.207957
0.208317
0.208647
0.208949
0.209225
0.209477
0.209706
0.209915
0.210103
0.210274
0.210428
0.210566
0.21069
0.210802
0.210901
0.21099
0.211068
0.199954
0.199924
0.199997
0.200187
0.200483
0.200858
0.201286
0.201741
0.202206
0.202669
0.203119
0.203552
0.203964
0.204353
0.204718
0.20506
0.205379
0.205675
0.20595
0.206204
0.206439
0.206655
0.206855
0.207038
0.207206
0.207359
0.2075
0.207629
0.207746
0.207853
0.207951
0.20804
0.208121
0.199949
0.199879
0.199866
0.199926
0.200061
0.200262
0.200513
0.200799
0.201107
0.201425
0.201744
0.20206
0.202367
0.202662
0.202944
0.203212
0.203464
0.203702
0.203925
0.204134
0.204329
0.20451
0.204678
0.204835
0.20498
0.205114
0.205239
0.205354
0.20546
0.205558
0.205649
0.205733
0.20581
0.199947
0.199858
0.199799
0.199785
0.19982
0.199903
0.200029
0.200189
0.200374
0.200577
0.200789
0.201006
0.201223
0.201437
0.201646
0.201847
0.202041
0.202225
0.202401
0.202566
0.202723
0.20287
0.203009
0.203138
0.20326
0.203373
0.20348
0.203579
0.203672
0.203758
0.203839
0.203914
0.203985
0.199947
0.199848
0.199766
0.19971
0.199685
0.199693
0.199734
0.199804
0.199898
0.20001
0.200137
0.200273
0.200415
0.20056
0.200704
0.200848
0.200988
0.201124
0.201256
0.201382
0.201503
0.201618
0.201727
0.201831
0.201929
0.202021
0.202109
0.202191
0.202269
0.202343
0.202412
0.202478
0.202539
0.199946
0.199843
0.19975
0.199672
0.199612
0.199575
0.19956
0.199568
0.199596
0.199642
0.199702
0.199774
0.199855
0.199941
0.200032
0.200125
0.200219
0.200312
0.200404
0.200494
0.200582
0.200667
0.200749
0.200827
0.200903
0.200975
0.201044
0.20111
0.201172
0.201232
0.201289
0.201344
0.201396
0.199946
0.199841
0.199743
0.199652
0.199574
0.199509
0.19946
0.199428
0.199411
0.199409
0.19942
0.199443
0.199475
0.199515
0.199562
0.199612
0.199666
0.199723
0.19978
0.199838
0.199896
0.199954
0.20001
0.200066
0.20012
0.200172
0.200223
0.200273
0.200321
0.200367
0.200412
0.200455
0.200497
0.199946
0.199841
0.199739
0.199643
0.199554
0.199474
0.199405
0.199347
0.199301
0.199266
0.199243
0.19923
0.199226
0.19923
0.199241
0.199257
0.199279
0.199304
0.199332
0.199363
0.199395
0.199428
0.199462
0.199497
0.199532
0.199567
0.199601
0.199635
0.199669
0.199703
0.199736
0.199768
0.1998
0.199946
0.19984
0.199737
0.199638
0.199544
0.199456
0.199375
0.199302
0.199237
0.199181
0.199135
0.199097
0.199067
0.199044
0.199029
0.199019
0.199015
0.199016
0.19902
0.199028
0.199039
0.199052
0.199067
0.199084
0.199102
0.199121
0.199141
0.199162
0.199183
0.199205
0.199227
0.19925
0.199272
0.199946
0.19984
0.199736
0.199636
0.199539
0.199446
0.199359
0.199277
0.199202
0.199133
0.199071
0.199017
0.19897
0.198929
0.198895
0.198866
0.198843
0.198825
0.198812
0.198802
0.198796
0.198793
0.198793
0.198796
0.1988
0.198807
0.198815
0.198825
0.198836
0.198848
0.198861
0.198875
0.19889
0.199946
0.19984
0.199736
0.199635
0.199536
0.199441
0.19935
0.199264
0.199182
0.199106
0.199036
0.198972
0.198914
0.198861
0.198815
0.198774
0.198739
0.198708
0.198682
0.198661
0.198643
0.198629
0.198618
0.19861
0.198605
0.198602
0.198602
0.198603
0.198607
0.198611
0.198618
0.198625
0.198634
0.199946
0.19984
0.199736
0.199634
0.199535
0.199439
0.199346
0.199257
0.199173
0.199093
0.199019
0.19895
0.198886
0.198828
0.198775
0.198728
0.198686
0.198648
0.198616
0.198587
0.198563
0.198543
0.198526
0.198512
0.198501
0.198493
0.198488
0.198484
0.198483
0.198483
0.198485
0.198489
0.198494
0.199946
0.19984
0.199735
0.199633
0.199534
0.199438
0.199345
0.199255
0.19917
0.19909
0.199015
0.198945
0.19888
0.198821
0.198767
0.198719
0.198676
0.198637
0.198603
0.198574
0.198549
0.198527
0.198509
0.198494
0.198482
0.198473
0.198466
0.198462
0.198459
0.198459
0.19846
0.198462
0.198466
0.199946
0.199839
0.199735
0.199633
0.199534
0.199438
0.199346
0.199258
0.199175
0.199097
0.199024
0.198958
0.198897
0.198842
0.198793
0.198749
0.19871
0.198676
0.198647
0.198622
0.198601
0.198584
0.19857
0.198559
0.198551
0.198545
0.198541
0.198539
0.19854
0.198541
0.198544
0.198549
0.198554
0.199946
0.19984
0.199735
0.199634
0.199536
0.199442
0.199352
0.199268
0.19919
0.199118
0.199053
0.198995
0.198944
0.198899
0.198861
0.198828
0.198801
0.198778
0.19876
0.198746
0.198736
0.198728
0.198724
0.198722
0.198722
0.198724
0.198728
0.198733
0.198739
0.198747
0.198755
0.198764
0.198774
0.199946
0.19984
0.199736
0.199636
0.199541
0.199451
0.199368
0.199292
0.199225
0.199167
0.199117
0.199075
0.199042
0.199016
0.198996
0.198983
0.198975
0.198971
0.198971
0.198975
0.198981
0.19899
0.199001
0.199013
0.199026
0.199041
0.199056
0.199072
0.199087
0.199104
0.19912
0.199136
0.199153
0.199946
0.199841
0.199739
0.199643
0.199554
0.199475
0.199405
0.199348
0.199302
0.199268
0.199245
0.199232
0.199229
0.199233
0.199243
0.19926
0.19928
0.199304
0.199331
0.19936
0.19939
0.199421
0.199452
0.199483
0.199514
0.199544
0.199574
0.199603
0.199631
0.199658
0.199684
0.19971
0.199734
0.199947
0.199843
0.199747
0.19966
0.199587
0.19953
0.199491
0.199468
0.199463
0.199472
0.199495
0.199529
0.199572
0.199622
0.199677
0.199736
0.199796
0.199858
0.199919
0.19998
0.20004
0.200098
0.200154
0.200208
0.200259
0.200308
0.200354
0.200398
0.20044
0.200478
0.200515
0.200549
0.200582
0.199948
0.19985
0.199767
0.199705
0.199669
0.199661
0.19968
0.199725
0.199791
0.199875
0.199972
0.200078
0.200189
0.200304
0.20042
0.200534
0.200645
0.200753
0.200857
0.200955
0.201049
0.201137
0.20122
0.201298
0.20137
0.201438
0.201501
0.201559
0.201612
0.201662
0.201708
0.20175
0.201788
0.199951
0.199869
0.199823
0.199821
0.199868
0.199962
0.200096
0.200262
0.200449
0.20065
0.200858
0.201067
0.201273
0.201472
0.201663
0.201844
0.202015
0.202175
0.202324
0.202462
0.202589
0.202707
0.202815
0.202914
0.203005
0.203088
0.203164
0.203232
0.203295
0.203351
0.203402
0.203447
0.203488
0.199959
0.199926
0.199977
0.200121
0.200351
0.200649
0.200993
0.201362
0.201739
0.202113
0.202473
0.202816
0.203137
0.203435
0.20371
0.203963
0.204193
0.204403
0.204593
0.204765
0.204921
0.205061
0.205187
0.205301
0.205402
0.205492
0.205573
0.205644
0.205707
0.205762
0.205811
0.205853
0.205889
0.199987
0.200103
0.200415
0.200903
0.201515
0.202193
0.20289
0.203572
0.204217
0.204816
0.205363
0.205858
0.206302
0.206698
0.207052
0.207365
0.207643
0.207888
0.208104
0.208295
0.208463
0.208609
0.208738
0.208849
0.208946
0.209029
0.2091
0.20916
0.20921
0.209252
0.209285
0.209311
0.20933
0.200091
0.200674
0.201674
0.202931
0.204281
0.205607
0.206838
0.207945
0.208922
0.209772
0.210508
0.211141
0.211683
0.212148
0.212546
0.212885
0.213174
0.213421
0.213629
0.213806
0.213954
0.214077
0.214179
0.214261
0.214327
0.214377
0.214415
0.21444
0.214455
0.21446
0.214457
0.214446
0.214429
0.200506
0.202612
0.20538
0.20823
0.210863
0.213156
0.215082
0.216669
0.217964
0.219015
0.219866
0.220552
0.221105
0.22155
0.221907
0.222191
0.222416
0.222592
0.222726
0.222824
0.222893
0.222937
0.222958
0.22296
0.222946
0.222917
0.222875
0.222821
0.222758
0.222686
0.222606
0.222518
0.222425
0.202133
0.209235
0.216717
0.222799
0.227378
0.23075
0.233208
0.234988
0.236273
0.237193
0.237847
0.238306
0.238619
0.238825
0.238946
0.239003
0.239008
0.238971
0.2389
0.238799
0.238674
0.238527
0.238362
0.238181
0.237986
0.237778
0.237559
0.237331
0.237094
0.23685
0.236599
0.236343
0.236082
0.208298
0.22678
0.244129
0.257372
0.266317
0.271773
0.274802
0.276303
0.276882
0.276921
0.276649
0.276201
0.275653
0.275051
0.274418
0.273765
0.273101
0.272428
0.271747
0.27106
0.270365
0.269665
0.268959
0.268248
0.267533
0.266815
0.266095
0.265374
0.264653
0.263933
0.263215
0.2625
0.261789
0.245775
0.310442
0.343758
0.358932
0.365581
0.368297
0.368993
0.368462
0.367138
0.3653
0.363136
0.360774
0.358305
0.355793
0.353284
0.350808
0.348387
0.346036
0.343763
0.341573
0.339469
0.337451
0.33552
0.333674
0.33191
0.330227
0.328621
0.32709
0.32563
0.32424
0.322916
0.321656
0.320455
0.214305
0.253643
0.294732
0.333812
0.370031
0.403432
0.434077
0.462012
0.487322
0.510132
0.530592
0.548865
0.565116
0.579516
0.592228
0.603409
0.613209
0.621766
0.629207
0.635651
0.641203
0.64596
0.650011
0.653433
0.656298
0.658668
0.660601
0.662147
0.66335
0.664251
0.664886
0.665285
0.665483
0.749072
0.841646
0.994052
1.18654
1.38849
1.57764
1.74545
1.88843
2.0043
2.09232
2.15376
2.19223
2.21283
2.22072
2.22025
2.21461
2.20588
2.19526
2.1834
2.17064
2.15718
2.1432
2.12886
2.11427
2.0995
2.08459
2.06946
2.05404
2.03817
2.0217
2.00445
1.98624
1.96689
1.9462
1.92397
1.90007
1.87437
1.84678
1.81723
1.78568
1.75214
1.71663
1.67921
1.64
1.59914
1.55684
1.51332
1.46886
1.42374
1.3783
1.33287
1.28783
1.24352
1.20031
1.15852
1.11847
1.08046
1.04472
1.01147
0.980867
0.953027
0.928024
0.90589
0.886618
0.870168
0.85647
0.845432
0.836941
0.830872
0.827084
0.82543
0.825753
0.827891
0.831677
0.836938
0.843497
0.851176
0.859796
0.869176
0.879135
0.8895
0.900096
0.910758
0.921325
0.931647
0.941587
0.951017
0.959824
0.967905
0.975176
0.981558
0.986994
0.991425
0.994828
0.997151
0.998407
0.998578
0.997613
0.996065
0.992132
0.439911
0.448717
0.469604
0.505706
0.557171
0.622921
0.701462
0.79119
0.89083
0.998047
1.1079
1.21547
1.31643
1.40735
1.48621
1.55227
1.60591
1.64804
1.68008
1.70351
1.71974
1.72997
1.7353
1.73661
1.73456
1.72969
1.7224
1.71298
1.70162
1.68848
1.67363
1.65713
1.63899
1.61921
1.59778
1.57466
1.54986
1.52338
1.49524
1.46547
1.43416
1.40139
1.36727
1.33196
1.29562
1.25847
1.22074
1.18268
1.14456
1.10666
1.06927
1.03268
0.997163
0.962987
0.930394
0.899603
0.870802
0.844145
0.819754
0.797712
0.778073
0.760856
0.746054
0.733633
0.723539
0.715701
0.710035
0.706447
0.704832
0.705084
0.707087
0.710724
0.715871
0.722401
0.730182
0.739077
0.748944
0.759643
0.771024
0.782936
0.795231
0.807757
0.820364
0.832906
0.845242
0.857241
0.868776
0.879734
0.890011
0.899515
0.908163
0.91589
0.922629
0.928348
0.932989
0.936553
0.939017
0.940336
0.940914
0.940017
0.33526
0.33073
0.327051
0.324907
0.325392
0.329492
0.337955
0.351519
0.371337
0.398809
0.434867
0.479912
0.533606
0.594765
0.66153
0.731627
0.802565
0.871882
0.937525
0.997402
1.05038
1.09602
1.13436
1.16573
1.19063
1.20978
1.22378
1.23317
1.23844
1.24004
1.23836
1.23371
1.22634
1.21649
1.20433
1.19002
1.17371
1.15553
1.13562
1.11411
1.09116
1.06693
1.04158
1.0153
0.988281
0.960733
0.932875
0.904935
0.877142
0.849727
0.822918
0.796929
0.771966
0.748216
0.725843
0.704991
0.685779
0.6683
0.652621
0.638788
0.626821
0.616723
0.608476
0.60205
0.597403
0.594481
0.593226
0.593574
0.595456
0.598801
0.603533
0.609575
0.616845
0.625255
0.634714
0.645125
0.656384
0.668387
0.681014
0.694148
0.707666
0.721438
0.735333
0.749221
0.762972
0.77646
0.789564
0.802171
0.814174
0.825478
0.835992
0.845644
0.85436
0.862095
0.868784
0.874417
0.878962
0.882378
0.884924
0.88687
0.316776
0.311658
0.306655
0.301807
0.297268
0.293229
0.289893
0.287477
0.286277
0.286605
0.288942
0.293843
0.301886
0.313595
0.329413
0.349612
0.374308
0.403302
0.436236
0.472247
0.510328
0.549187
0.587722
0.624628
0.659175
0.690555
0.718233
0.742113
0.762156
0.778484
0.791258
0.800659
0.806901
0.810206
0.810795
0.808884
0.80468
0.798385
0.790195
0.780301
0.768895
0.756166
0.742308
0.727513
0.711976
0.695894
0.679461
0.662871
0.646316
0.629976
0.614028
0.598633
0.583941
0.570086
0.557184
0.545335
0.534623
0.52511
0.516846
0.509863
0.504179
0.4998
0.496722
0.494932
0.494411
0.495132
0.497069
0.500187
0.504454
0.509833
0.516285
0.523769
0.532239
0.541644
0.551928
0.56303
0.574882
0.587411
0.600529
0.614148
0.628171
0.642491
0.656997
0.671575
0.686109
0.700482
0.714578
0.728285
0.741497
0.754115
0.766042
0.777199
0.787503
0.796898
0.805313
0.812723
0.819087
0.824364
0.828675
0.833212
0.300239
0.296664
0.293115
0.289576
0.286051
0.282568
0.279171
0.275911
0.272849
0.270061
0.267639
0.265696
0.264379
0.26386
0.264337
0.266021
0.269146
0.273927
0.280585
0.289258
0.300031
0.312821
0.327497
0.343708
0.361128
0.379267
0.397622
0.415661
0.433
0.44923
0.46401
0.477155
0.488526
0.498056
0.505732
0.511585
0.515675
0.51809
0.518933
0.518324
0.516391
0.513273
0.509113
0.504058
0.498257
0.491862
0.485021
0.477881
0.470585
0.46327
0.456064
0.449089
0.442455
0.436261
0.430595
0.425535
0.421146
0.417482
0.414586
0.412493
0.411228
0.410808
0.411244
0.412541
0.414702
0.417725
0.421605
0.426335
0.43191
0.438318
0.44555
0.45359
0.462422
0.472022
0.482365
0.493419
0.505146
0.517497
0.530418
0.543847
0.557707
0.571917
0.586387
0.601022
0.61572
0.630373
0.644876
0.659121
0.673002
0.686419
0.699273
0.711478
0.722943
0.7336
0.743374
0.752222
0.7601
0.766956
0.772789
0.779605
0.280166
0.278051
0.275914
0.27374
0.27152
0.269257
0.266963
0.264657
0.262357
0.260085
0.257864
0.255721
0.253689
0.25181
0.250133
0.248717
0.247633
0.246959
0.246789
0.247216
0.248339
0.250241
0.252995
0.256633
0.26117
0.266566
0.272755
0.279599
0.286967
0.294675
0.302526
0.310327
0.317896
0.325077
0.331733
0.337757
0.343073
0.347629
0.351403
0.354394
0.356623
0.358125
0.358953
0.35917
0.358848
0.358067
0.356909
0.35546
0.353808
0.352038
0.350234
0.348476
0.346839
0.345393
0.344203
0.343326
0.342813
0.34271
0.343055
0.343883
0.34522
0.34709
0.349512
0.352502
0.356075
0.36024
0.365008
0.370388
0.376389
0.383017
0.390277
0.398175
0.406711
0.415883
0.425688
0.436113
0.44715
0.458763
0.470929
0.483607
0.496745
0.510283
0.524152
0.538279
0.552576
0.56695
0.581307
0.595547
0.609568
0.623272
0.636559
0.649339
0.661516
0.673014
0.683749
0.693665
0.702713
0.71083
0.717904
0.726642
0.261538
0.260398
0.259217
0.25799
0.256707
0.255366
0.253973
0.252534
0.251059
0.249556
0.248034
0.246503
0.244971
0.243451
0.241956
0.240502
0.239111
0.237807
0.236617
0.235577
0.234723
0.234097
0.233741
0.233695
0.233996
0.234671
0.235742
0.237214
0.23908
0.241317
0.243889
0.246742
0.249811
0.253028
0.256319
0.259611
0.262838
0.265939
0.268864
0.271575
0.274043
0.276254
0.278202
0.279894
0.281345
0.282577
0.283622
0.284513
0.285291
0.285997
0.286675
0.28737
0.288124
0.28898
0.289979
0.291159
0.292555
0.294199
0.296122
0.29835
0.300906
0.303812
0.307087
0.310749
0.314813
0.319295
0.32421
0.329572
0.335396
0.341697
0.348489
0.355784
0.363595
0.371934
0.380813
0.39023
0.400195
0.410691
0.421711
0.433239
0.445242
0.457683
0.470512
0.483675
0.497104
0.510724
0.524451
0.5382
0.551876
0.565386
0.578633
0.591526
0.603969
0.615878
0.627166
0.637763
0.647614
0.656652
0.66466
0.674921
0.246471
0.245903
0.245294
0.244643
0.243943
0.24319
0.242386
0.241535
0.240641
0.239709
0.238745
0.23775
0.236731
0.23569
0.234633
0.233565
0.232494
0.231427
0.230374
0.229347
0.228359
0.227426
0.226567
0.225802
0.225149
0.224632
0.224268
0.224077
0.224072
0.224262
0.224654
0.225247
0.226032
0.226996
0.228121
0.229385
0.23076
0.232221
0.23374
0.235293
0.236859
0.238418
0.239958
0.241468
0.242947
0.244394
0.245815
0.24722
0.248622
0.250038
0.251486
0.252987
0.254563
0.256235
0.258026
0.259957
0.26205
0.264324
0.266799
0.269492
0.272419
0.275595
0.279036
0.282755
0.286765
0.29108
0.295715
0.300683
0.306
0.311682
0.317744
0.324203
0.331081
0.338391
0.346153
0.354376
0.363077
0.372259
0.381925
0.392074
0.402695
0.413768
0.425263
0.437144
0.449364
0.461865
0.474581
0.487439
0.500358
0.513255
0.526039
0.538623
0.550913
0.562822
0.574263
0.585155
0.595439
0.605045
0.613669
0.625024
0.234967
0.234715
0.23443
0.23411
0.233751
0.23335
0.232906
0.232421
0.231898
0.23134
0.230749
0.230127
0.229477
0.228801
0.228101
0.227381
0.226642
0.225888
0.225123
0.22435
0.223576
0.222807
0.222049
0.221312
0.220607
0.219943
0.219333
0.218789
0.218322
0.217944
0.217666
0.217495
0.217439
0.217501
0.217683
0.217984
0.2184
0.218925
0.219554
0.220278
0.221088
0.221978
0.22294
0.223969
0.225062
0.226215
0.22743
0.228708
0.230053
0.231473
0.232973
0.234564
0.236255
0.238056
0.239978
0.242033
0.244231
0.246584
0.2491
0.251791
0.254666
0.257733
0.261002
0.26448
0.268179
0.272106
0.276274
0.280693
0.285376
0.290337
0.295592
0.301157
0.307054
0.313299
0.319914
0.326913
0.334317
0.342142
0.350399
0.359098
0.368242
0.377827
0.387842
0.398265
0.40907
0.420216
0.431656
0.443333
0.455183
0.467133
0.479105
0.491018
0.502787
0.514326
0.52555
0.536373
0.546734
0.556559
0.565485
0.577495
0.226336
0.226256
0.22615
0.226016
0.225852
0.225656
0.225426
0.225163
0.224869
0.224546
0.224194
0.223815
0.223412
0.222985
0.222536
0.222067
0.22158
0.221075
0.220556
0.220022
0.219478
0.218924
0.218366
0.217806
0.21725
0.216703
0.216173
0.215664
0.215187
0.214747
0.214355
0.214017
0.213741
0.213534
0.213404
0.213354
0.213389
0.213513
0.213727
0.214033
0.214431
0.214921
0.215504
0.216178
0.216944
0.217803
0.218756
0.219804
0.22095
0.222196
0.223547
0.225008
0.226582
0.228274
0.23009
0.232035
0.234114
0.236331
0.238691
0.241198
0.243857
0.246671
0.249645
0.252782
0.256088
0.259567
0.263228
0.267078
0.271126
0.275383
0.279864
0.284583
0.289557
0.294803
0.300341
0.306192
0.312375
0.318911
0.325818
0.333113
0.340809
0.348912
0.357426
0.366344
0.375655
0.385336
0.395357
0.405679
0.416252
0.427022
0.437924
0.448888
0.459838
0.470696
0.481384
0.491813
0.501927
0.511645
0.520574
0.532811
0.219852
0.219862
0.219853
0.219824
0.219771
0.219693
0.219589
0.21946
0.219307
0.219129
0.218928
0.218706
0.218463
0.218202
0.217922
0.217626
0.217315
0.21699
0.216652
0.216301
0.215939
0.215567
0.215187
0.214802
0.214412
0.214023
0.213636
0.213257
0.21289
0.21254
0.212213
0.211914
0.211651
0.211429
0.211254
0.211134
0.211072
0.211076
0.211151
0.2113
0.211529
0.21184
0.212238
0.212726
0.213307
0.213984
0.214759
0.215635
0.216616
0.217703
0.2189
0.22021
0.221635
0.223177
0.22484
0.226624
0.228532
0.230564
0.232722
0.235006
0.237417
0.239955
0.24262
0.245413
0.248336
0.25139
0.25458
0.257908
0.261383
0.265011
0.268804
0.272773
0.276932
0.281296
0.285885
0.290716
0.295812
0.301192
0.306879
0.312891
0.319248
0.325966
0.333054
0.340519
0.348362
0.356574
0.365142
0.374041
0.38324
0.392698
0.402368
0.412192
0.42211
0.432051
0.441948
0.451716
0.461304
0.470631
0.479293
0.491361
0.214931
0.214988
0.215031
0.215058
0.215067
0.215058
0.215029
0.21498
0.214912
0.214825
0.21472
0.214598
0.214461
0.214308
0.214142
0.213964
0.213774
0.213574
0.213364
0.213145
0.212918
0.212683
0.212442
0.212197
0.211947
0.211697
0.211447
0.2112
0.210959
0.210728
0.210511
0.210312
0.210135
0.209985
0.209869
0.20979
0.209755
0.209769
0.209838
0.209967
0.210162
0.210428
0.210769
0.21119
0.211696
0.212291
0.212979
0.213763
0.214647
0.215633
0.216725
0.217924
0.219232
0.220651
0.222182
0.223824
0.225577
0.22744
0.229413
0.231493
0.233679
0.235968
0.238357
0.240846
0.243433
0.246117
0.248899
0.25178
0.254765
0.257858
0.261065
0.264397
0.267865
0.271481
0.275261
0.279223
0.283385
0.287769
0.292394
0.297283
0.302457
0.307934
0.313731
0.319863
0.326337
0.333159
0.340324
0.347824
0.355641
0.36375
0.372118
0.380703
0.389459
0.398327
0.407253
0.416159
0.425004
0.433706
0.441872
0.453425
0.211149
0.211228
0.211297
0.211354
0.211397
0.211426
0.211441
0.21144
0.211424
0.211394
0.21135
0.211293
0.211224
0.211144
0.211054
0.210955
0.210848
0.210735
0.210615
0.210489
0.210359
0.210225
0.210088
0.209949
0.209808
0.209668
0.20953
0.209396
0.209267
0.209147
0.209038
0.208944
0.208867
0.208812
0.208783
0.208784
0.208821
0.208898
0.209019
0.209192
0.209419
0.209708
0.210062
0.210488
0.210988
0.211569
0.212234
0.212987
0.213832
0.214771
0.215808
0.216943
0.218178
0.219513
0.22095
0.222486
0.22412
0.225851
0.227675
0.229588
0.231588
0.233671
0.235832
0.238067
0.240375
0.242751
0.245194
0.247704
0.250282
0.252931
0.255654
0.258459
0.261354
0.264349
0.267458
0.270694
0.274076
0.277622
0.281351
0.285285
0.289443
0.293847
0.298517
0.30347
0.30872
0.314279
0.320152
0.326341
0.33284
0.339637
0.346712
0.354038
0.361582
0.369299
0.377149
0.385062
0.393011
0.400916
0.408409
0.419165
0.208206
0.208294
0.208373
0.208444
0.208504
0.208554
0.208593
0.20862
0.208636
0.208641
0.208636
0.208621
0.208597
0.208565
0.208526
0.208481
0.208432
0.208378
0.208322
0.208263
0.208202
0.208141
0.20808
0.208019
0.207961
0.207906
0.207855
0.20781
0.207773
0.207746
0.20773
0.207729
0.207745
0.207781
0.207841
0.207928
0.208047
0.208202
0.208396
0.208636
0.208924
0.209267
0.209668
0.210134
0.210667
0.211272
0.211954
0.212715
0.21356
0.214491
0.215509
0.216617
0.217815
0.219103
0.220481
0.221946
0.223497
0.22513
0.226841
0.228626
0.230481
0.2324
0.234377
0.236409
0.23849
0.240616
0.242783
0.244991
0.247237
0.249523
0.251851
0.254226
0.256652
0.25914
0.261698
0.26434
0.26708
0.269934
0.27292
0.276056
0.279364
0.282862
0.286572
0.290512
0.294699
0.299149
0.303873
0.30888
0.314173
0.319748
0.325599
0.331709
0.338059
0.344615
0.351352
0.358211
0.365175
0.372174
0.37887
0.388621
0.205893
0.20598
0.206062
0.206137
0.206204
0.206264
0.206315
0.206358
0.206393
0.206419
0.206438
0.206449
0.206455
0.206455
0.206451
0.206443
0.206433
0.206421
0.206409
0.206397
0.206386
0.206377
0.206372
0.20637
0.206373
0.206381
0.206398
0.206422
0.206457
0.206504
0.206564
0.206641
0.206736
0.206851
0.206991
0.207158
0.207355
0.207586
0.207855
0.208166
0.208523
0.20893
0.209391
0.209911
0.210493
0.211142
0.211861
0.212652
0.21352
0.214465
0.21549
0.216596
0.217782
0.219049
0.220394
0.221815
0.22331
0.224875
0.226504
0.228194
0.229937
0.231728
0.233561
0.235431
0.23733
0.239255
0.2412
0.243163
0.245141
0.247133
0.24914
0.251165
0.253212
0.255287
0.257399
0.259557
0.261773
0.264062
0.266439
0.268921
0.271526
0.274273
0.27718
0.280268
0.283553
0.287053
0.290784
0.294755
0.298978
0.303456
0.30819
0.313172
0.318395
0.323836
0.32948
0.335282
0.341233
0.347274
0.353105
0.361716
0.204062
0.204144
0.204222
0.204295
0.204363
0.204426
0.204482
0.204533
0.204577
0.204616
0.204649
0.204677
0.204702
0.204723
0.204741
0.204758
0.204775
0.204793
0.204812
0.204833
0.204858
0.204887
0.204921
0.204962
0.205011
0.205068
0.205134
0.205212
0.205303
0.205408
0.205529
0.205668
0.205827
0.206009
0.206215
0.20645
0.206716
0.207016
0.207353
0.207731
0.208153
0.208624
0.209146
0.209723
0.21036
0.211058
0.211822
0.212653
0.213553
0.214526
0.21557
0.216688
0.217878
0.219139
0.220469
0.221866
0.223325
0.224843
0.226413
0.22803
0.229688
0.23138
0.2331
0.23484
0.236594
0.238357
0.240123
0.241888
0.243649
0.245403
0.24715
0.248892
0.250632
0.252373
0.254123
0.255889
0.257681
0.259512
0.261394
0.263343
0.265374
0.267504
0.269751
0.272132
0.274665
0.277368
0.280255
0.283342
0.28664
0.290158
0.293903
0.297873
0.302069
0.306477
0.311092
0.315879
0.320838
0.325921
0.33087
0.338277
0.202607
0.202681
0.202752
0.20282
0.202885
0.202945
0.203002
0.203055
0.203104
0.203148
0.20319
0.203228
0.203264
0.203298
0.203332
0.203366
0.203401
0.203438
0.203478
0.203523
0.203573
0.203629
0.203693
0.203765
0.203847
0.203939
0.204044
0.204162
0.204295
0.204445
0.204613
0.204801
0.205011
0.205246
0.205508
0.205798
0.206121
0.206479
0.206875
0.207311
0.207791
0.208319
0.208897
0.209529
0.210216
0.210963
0.211772
0.212643
0.21358
0.214583
0.215653
0.216788
0.217989
0.219254
0.220579
0.221962
0.223397
0.224881
0.226408
0.22797
0.229561
0.231175
0.232804
0.23444
0.236077
0.237709
0.239329
0.240933
0.242517
0.244078
0.245614
0.247127
0.248616
0.250087
0.251544
0.252993
0.254443
0.255903
0.257385
0.258902
0.260467
0.262096
0.263803
0.265606
0.26752
0.269562
0.271748
0.274091
0.276606
0.279303
0.282192
0.285277
0.288563
0.292044
0.295721
0.29957
0.303595
0.307759
0.311847
0.318047
0.201453
0.201517
0.201579
0.20164
0.201698
0.201754
0.201808
0.201859
0.201908
0.201955
0.202
0.202043
0.202086
0.202128
0.202171
0.202216
0.202263
0.202313
0.202368
0.202429
0.202497
0.202572
0.202656
0.20275
0.202856
0.202975
0.203107
0.203255
0.20342
0.203603
0.203807
0.204033
0.204283
0.204559
0.204863
0.205199
0.205568
0.205972
0.206416
0.206901
0.20743
0.208006
0.208631
0.209309
0.210042
0.210832
0.21168
0.212589
0.213559
0.214591
0.215684
0.216839
0.218052
0.219323
0.220647
0.22202
0.223439
0.224897
0.226389
0.227907
0.229445
0.230994
0.232548
0.234099
0.235639
0.237162
0.238662
0.240134
0.241572
0.242974
0.244337
0.245662
0.246949
0.248199
0.249418
0.250611
0.251783
0.252944
0.254104
0.255272
0.256461
0.257684
0.258955
0.260287
0.261697
0.263198
0.264805
0.266533
0.268394
0.270402
0.272565
0.274893
0.277392
0.280062
0.282907
0.285912
0.289085
0.292399
0.295678
0.300718
0.200544
0.200596
0.200649
0.2007
0.200751
0.200801
0.20085
0.200898
0.200944
0.20099
0.201035
0.201081
0.201126
0.201173
0.201221
0.201272
0.201326
0.201385
0.20145
0.201521
0.2016
0.201688
0.201787
0.201896
0.202019
0.202155
0.202308
0.202477
0.202664
0.202872
0.203102
0.203356
0.203635
0.203943
0.20428
0.204649
0.205053
0.205495
0.205975
0.206498
0.207065
0.20768
0.208344
0.209059
0.209828
0.210652
0.211534
0.212473
0.21347
0.214525
0.215638
0.216808
0.218031
0.219305
0.220628
0.221993
0.223396
0.224831
0.226292
0.227772
0.229262
0.230756
0.232246
0.233723
0.235181
0.236612
0.23801
0.23937
0.240686
0.241956
0.243176
0.244346
0.245466
0.246537
0.247562
0.248545
0.249493
0.250412
0.251311
0.252198
0.253084
0.25398
0.254899
0.255852
0.256853
0.257915
0.259051
0.260275
0.261598
0.263034
0.264592
0.266283
0.268114
0.270087
0.272212
0.274477
0.276894
0.279442
0.281985
0.285948
0.199836
0.199878
0.19992
0.199962
0.200005
0.200048
0.20009
0.200133
0.200176
0.20022
0.200263
0.200308
0.200354
0.200402
0.200453
0.200507
0.200565
0.200629
0.200699
0.200777
0.200863
0.200959
0.201066
0.201186
0.201319
0.201468
0.201633
0.201816
0.202019
0.202244
0.202492
0.202765
0.203065
0.203394
0.203754
0.204148
0.204578
0.205045
0.205553
0.206104
0.206699
0.207342
0.208033
0.208776
0.209572
0.210422
0.211326
0.212287
0.213303
0.214374
0.2155
0.216678
0.217905
0.219179
0.220495
0.221848
0.223234
0.224645
0.226076
0.227518
0.228964
0.230406
0.231837
0.233249
0.234633
0.235983
0.237293
0.238556
0.239768
0.240925
0.242025
0.243065
0.244045
0.244967
0.245833
0.246646
0.24741
0.248133
0.248821
0.249481
0.250123
0.250756
0.251392
0.25204
0.252712
0.25342
0.254175
0.25499
0.255875
0.256843
0.257903
0.259065
0.260337
0.261725
0.263237