/*--------------------------------*- C++ -*----------------------------------*\
  =========                 |
  \\      /  F ield         | OpenFOAM: The Open Source CFD Toolbox
   \\    /   O peration     | Website:  https://openfoam.org
    \\  /    A nd           | Version:  10
     \\/     M anipulation  |
\*---------------------------------------------------------------------------*/
FoamFile
{
    format      ascii;
    class       volScalarField;
    location    "1000";
    object      nut;
}
// * * * * * * * * * * * * * * * * * * * * * * * * * * * * * * * * * * * * * //

dimensions      [0 2 -1 0 0 0 0];

internalField   nonuniform List<scalar> 
6820
(
5.21161e-05
7.23496e-05
8.49506e-05
9.15131e-05
9.44881e-05
9.54259e-05
9.5224e-05
9.44044e-05
9.32791e-05
9.20324e-05
9.07693e-05
8.95459e-05
8.83905e-05
8.73146e-05
8.63207e-05
8.54063e-05
8.45664e-05
8.37951e-05
8.30862e-05
8.24336e-05
8.18318e-05
8.12758e-05
8.07611e-05
8.02834e-05
7.98392e-05
7.94252e-05
7.90385e-05
7.86764e-05
7.83353e-05
7.80191e-05
7.76959e-05
7.75072e-05
7.67939e-05
0.00148779
0.000914493
0.000722323
0.000566086
0.000444965
0.000364554
0.000311028
0.000273876
0.000246823
0.000226542
0.000210742
0.000198386
0.000188225
0.000179921
0.000173043
0.000167268
0.000162375
0.000158201
0.000154618
0.000151527
0.000148847
0.000146516
0.000144481
0.000142701
0.000141136
0.000139761
0.000138547
0.000137477
0.000136512
0.000135662
0.000134889
0.000134215
0.000133413
0.00388235
0.00172611
0.00129522
0.00105715
0.000883653
0.000756982
0.000663656
0.000593356
0.000538662
0.00049523
0.000459793
0.000430501
0.000405787
0.000384676
0.000366437
0.000350537
0.00033655
0.00032417
0.000313134
0.000303255
0.000294361
0.00028633
0.000279045
0.00027242
0.000266375
0.000260844
0.000255771
0.000251109
0.000246804
0.000242842
0.000239124
0.000235734
0.000232383
0.00701486
0.0030933
0.00211865
0.00169399
0.00142842
0.00124177
0.00110356
0.000997707
0.000914036
0.000846515
0.000790842
0.000744244
0.000704627
0.00067054
0.000640857
0.000614798
0.00059169
0.000571093
0.000552563
0.000535857
0.000520649
0.000506821
0.000494103
0.000482471
0.000471668
0.000461754
0.000452452
0.000443908
0.000435796
0.000428356
0.000421184
0.000414635
0.000408169
0.00947863
0.00539464
0.00361892
0.00279676
0.00231358
0.00199145
0.00176049
0.00158676
0.00145105
0.00134224
0.00125305
0.0011787
0.00111573
0.00106176
0.00101494
0.000973977
0.000937768
0.000905591
0.000876724
0.000850759
0.000827179
0.00080577
0.000786122
0.000768156
0.000751513
0.000736212
0.000721911
0.00070871
0.000696268
0.000684736
0.000673777
0.000663577
0.000653784
0.0106282
0.0077634
0.00561755
0.00439956
0.00363522
0.00311496
0.00273997
0.0024579
0.00223822
0.00206258
0.00191909
0.00179982
0.00169916
0.00161316
0.00153881
0.00147397
0.00141689
0.00136632
0.00132114
0.00128061
0.00124397
0.00121077
0.00118045
0.00115276
0.00112725
0.0011038
0.00108203
0.0010619
0.00104308
0.00102558
0.00100912
0.000993731
0.000979159
0.0110845
0.00948062
0.00757881
0.00621462
0.00525
0.00454844
0.00402207
0.00361581
0.00329415
0.00303404
0.00281986
0.00264081
0.0024891
0.00235911
0.00224655
0.00214826
0.00206171
0.001985
0.00191653
0.00185511
0.00179967
0.00174945
0.00170371
0.00166192
0.00162356
0.00158827
0.00155565
0.00152546
0.00149738
0.00147125
0.0014468
0.00142393
0.00140243
0.0112619
0.0104723
0.00911496
0.00788286
0.00688557
0.00609514
0.00546645
0.00496065
0.00454794
0.00420654
0.00392048
0.00367801
0.0034703
0.00329072
0.00313412
0.00299655
0.00287483
0.00276649
0.00266949
0.00258223
0.00250332
0.00243168
0.00236636
0.00230661
0.00225174
0.00220121
0.00215451
0.00211126
0.00207107
0.00203365
0.00199871
0.00196602
0.00193536
0.0113319
0.0109613
0.0101483
0.00919368
0.00831236
0.00754597
0.00689415
0.00634289
0.00587565
0.00547744
0.00513576
0.00484048
0.00458348
0.0043583
0.00415971
0.00398356
0.00382644
0.00368559
0.00355871
0.00344394
0.00333968
0.00324464
0.00315768
0.00307786
0.00300437
0.00293653
0.00287371
0.00281542
0.00276118
0.00271061
0.00266336
0.00261913
0.00257764
0.0113604
0.011191
0.0107577
0.0101061
0.00941912
0.00876179
0.00816143
0.00762515
0.00715071
0.0067323
0.00636312
0.00603663
0.00574692
0.00548886
0.00525806
0.00505083
0.00486401
0.00469497
0.00454145
0.00440155
0.00427366
0.00415638
0.00404852
0.00394906
0.0038571
0.00377187
0.00369271
0.00361901
0.00355026
0.003486
0.00342584
0.00336941
0.0033164
0.0113724
0.0112961
0.0110835
0.0106835
0.0102001
0.00969075
0.00919015
0.00871656
0.00827792
0.00787638
0.00751102
0.00717947
0.00687877
0.00660587
0.00635783
0.00613194
0.00592576
0.00573715
0.00556418
0.00540518
0.00525868
0.00512338
0.00499816
0.004882
0.00477405
0.00467352
0.00457972
0.00449206
0.00440998
0.00433302
0.00426073
0.00419276
0.00412875
0.0113776
0.0113432
0.0112429
0.0110225
0.0107093
0.010347
0.00996381
0.0095792
0.00920549
0.00884962
0.00851496
0.0082027
0.00791267
0.007644
0.0073954
0.00716543
0.00695262
0.00675551
0.00657276
0.00640311
0.00624538
0.00609854
0.00596163
0.00583379
0.00571424
0.00560228
0.00549728
0.00539868
0.00530596
0.00521867
0.00513638
0.00505873
0.00498539
0.01138
0.0113641
0.0113177
0.0112066
0.0110186
0.0107798
0.0105077
0.0102177
0.00992165
0.00962789
0.0093419
0.00906704
0.00880518
0.0085572
0.00832327
0.00810316
0.00789638
0.00770227
0.00752011
0.00734916
0.00718865
0.00703788
0.00689615
0.00676282
0.00663727
0.00651896
0.00640736
0.00630198
0.00620241
0.00610823
0.00601907
0.0059346
0.00585451
0.0113814
0.0113732
0.0113518
0.0112994
0.0111948
0.0110479
0.0108673
0.0106628
0.0104433
0.010216
0.00998659
0.00975918
0.00953664
0.00932089
0.00911314
0.00891408
0.00872402
0.00854299
0.00837089
0.00820745
0.00805236
0.00790524
0.00776571
0.00763337
0.00750782
0.00738867
0.00727556
0.00716813
0.00706605
0.006969
0.00687669
0.00678884
0.0067052
0.0113823
0.0113772
0.011367
0.0113426
0.0112898
0.0112045
0.0110919
0.0109563
0.0108031
0.0106375
0.010464
0.0102863
0.0101076
0.00992993
0.00975513
0.00958437
0.0094185
0.00925806
0.00910337
0.00895461
0.00881181
0.00867492
0.00854384
0.0084184
0.00829843
0.00818372
0.00807406
0.00796923
0.00786902
0.00777321
0.0076816
0.00759398
0.00751018
0.0113826
0.0113796
0.0113738
0.0113622
0.0113373
0.011291
0.0112247
0.0111398
0.0110388
0.0109247
0.0108005
0.0106691
0.0105329
0.0103941
0.0102543
0.010115
0.00997717
0.00984165
0.00970905
0.00957979
0.00945418
0.00933242
0.0092146
0.00910079
0.00899098
0.00888513
0.00878317
0.00868502
0.00859058
0.00849974
0.00841238
0.00832838
0.00824762
0.0113825
0.0113808
0.0113772
0.011371
0.0113592
0.0113362
0.0112992
0.0112488
0.0111857
0.0111111
0.0110267
0.0109344
0.0108358
0.0107325
0.0106261
0.0105178
0.0104085
0.0102992
0.0101906
0.0100832
0.00997743
0.00987368
0.0097722
0.00967316
0.0095767
0.0094829
0.00939183
0.00930349
0.00921789
0.00913501
0.00905481
0.00897725
0.00890227
0.0113825
0.0113812
0.0113791
0.0113752
0.0113691
0.0113581
0.0113388
0.0113103
0.0112727
0.0112264
0.0111719
0.0111101
0.0110421
0.0109689
0.0108916
0.0108111
0.0107284
0.0106441
0.0105589
0.0104734
0.0103881
0.0103033
0.0102194
0.0101366
0.0100552
0.00997526
0.00989698
0.00982044
0.00974571
0.00967283
0.00960183
0.00953275
0.00946556
0.0113825
0.0113813
0.0113798
0.0113776
0.0113737
0.011368
0.0113586
0.0113433
0.0113219
0.0112944
0.0112608
0.0112213
0.0111765
0.011127
0.0110734
0.0110162
0.0109562
0.010894
0.01083
0.0107647
0.0106987
0.0106321
0.0105654
0.0104989
0.0104327
0.0103672
0.0103023
0.0102384
0.0101754
0.0101136
0.0100529
0.00999342
0.00993522
0.0113824
0.0113813
0.01138
0.0113785
0.0113762
0.0113727
0.0113676
0.0113599
0.0113483
0.0113326
0.0113127
0.0112886
0.0112604
0.0112283
0.0111927
0.0111538
0.0111121
0.011068
0.0110219
0.0109741
0.0109249
0.0108746
0.0108236
0.0107721
0.0107203
0.0106683
0.0106165
0.0105649
0.0105136
0.0104628
0.0104126
0.010363
0.0103142
0.0113824
0.0113813
0.0113801
0.0113788
0.0113773
0.0113751
0.0113721
0.0113676
0.0113616
0.0113531
0.0113418
0.0113275
0.0113104
0.0112904
0.0112677
0.0112423
0.0112145
0.0111844
0.0111524
0.0111186
0.0110833
0.0110467
0.011009
0.0109704
0.0109311
0.0108913
0.0108512
0.0108108
0.0107702
0.0107297
0.0106894
0.0106492
0.0106092
0.0113824
0.0113812
0.0113801
0.0113789
0.0113776
0.0113761
0.0113742
0.0113716
0.011368
0.0113633
0.0113572
0.0113489
0.0113389
0.0113268
0.0113127
0.0112967
0.0112787
0.0112588
0.0112373
0.0112141
0.0111895
0.0111636
0.0111365
0.0111083
0.0110793
0.0110495
0.0110191
0.0109882
0.0109568
0.0109252
0.0108933
0.0108613
0.0108293
0.0113824
0.0113812
0.0113801
0.0113789
0.0113778
0.0113765
0.0113751
0.0113734
0.0113712
0.0113684
0.0113646
0.01136
0.0113543
0.011347
0.0113384
0.0113284
0.0113169
0.0113039
0.0112896
0.0112739
0.0112569
0.0112387
0.0112193
0.011199
0.0111776
0.0111555
0.0111325
0.011109
0.0110848
0.0110601
0.011035
0.0110096
0.010984
0.0113824
0.0113812
0.0113801
0.0113789
0.0113778
0.0113766
0.0113754
0.0113741
0.0113726
0.0113707
0.0113683
0.0113653
0.0113615
0.0113571
0.0113517
0.0113452
0.0113376
0.0113288
0.0113189
0.0113078
0.0112957
0.0112824
0.0112681
0.0112528
0.0112366
0.0112195
0.0112017
0.0111831
0.0111638
0.011144
0.0111236
0.0111028
0.0110815
0.0113824
0.0113812
0.0113801
0.0113789
0.0113778
0.0113767
0.0113755
0.0113743
0.011373
0.0113715
0.0113696
0.0113674
0.0113644
0.0113609
0.011357
0.0113521
0.0113461
0.0113392
0.0113314
0.0113225
0.0113126
0.0113017
0.0112898
0.011277
0.0112633
0.0112488
0.0112334
0.0112173
0.0112006
0.0111832
0.0111652
0.0111467
0.0111278
0.0113824
0.0113812
0.0113801
0.0113789
0.0113778
0.0113766
0.0113755
0.0113742
0.0113729
0.0113712
0.0113693
0.0113668
0.0113637
0.0113601
0.011356
0.0113507
0.0113446
0.0113375
0.0113294
0.0113204
0.0113103
0.0112992
0.0112872
0.0112743
0.0112604
0.0112458
0.0112303
0.0112141
0.0111972
0.0111797
0.0111617
0.0111431
0.0111241
0.0113824
0.0113812
0.0113801
0.0113789
0.0113778
0.0113766
0.0113753
0.0113738
0.0113719
0.0113697
0.0113669
0.0113633
0.0113591
0.0113538
0.0113475
0.0113402
0.0113317
0.0113221
0.0113114
0.0112996
0.0112867
0.0112727
0.0112577
0.0112418
0.011225
0.0112073
0.0111889
0.0111698
0.0111501
0.0111298
0.011109
0.0110878
0.0110661
0.0113824
0.0113812
0.0113801
0.0113789
0.0113777
0.0113763
0.0113745
0.0113723
0.0113693
0.0113655
0.0113608
0.0113545
0.0113468
0.0113377
0.0113272
0.0113151
0.0113015
0.0112865
0.01127
0.0112523
0.0112333
0.0112132
0.011192
0.0111699
0.0111468
0.0111231
0.0110986
0.0110735
0.0110479
0.0110219
0.0109955
0.0109688
0.0109419
0.0113824
0.0113813
0.0113801
0.0113789
0.0113773
0.0113753
0.0113724
0.0113683
0.011363
0.0113555
0.0113458
0.0113338
0.0113196
0.0113031
0.0112845
0.0112637
0.0112409
0.0112163
0.01119
0.0111622
0.0111331
0.0111028
0.0110715
0.0110393
0.0110063
0.0109728
0.0109388
0.0109044
0.0108698
0.0108349
0.0108
0.0107651
0.0107302
0.0113825
0.0113813
0.0113801
0.0113784
0.011376
0.0113722
0.0113667
0.0113583
0.0113461
0.0113304
0.0113111
0.0112881
0.0112616
0.0112318
0.011199
0.0111635
0.0111257
0.0110857
0.011044
0.0110009
0.0109565
0.0109111
0.0108651
0.0108185
0.0107716
0.0107245
0.0106773
0.0106303
0.0105834
0.0105368
0.0104906
0.0104448
0.0103996
0.0113825
0.0113814
0.0113798
0.0113765
0.011372
0.011364
0.0113499
0.0113298
0.0113037
0.0112714
0.0112333
0.0111899
0.0111418
0.0110896
0.0110339
0.0109753
0.0109144
0.0108517
0.0107878
0.0107229
0.0106575
0.0105919
0.0105263
0.010461
0.0103962
0.010332
0.0102686
0.010206
0.0101443
0.0100837
0.0100242
0.0099658
0.00990853
0.0113826
0.011381
0.0113775
0.0113716
0.0113594
0.0113357
0.0113013
0.0112563
0.0112012
0.0111371
0.0110652
0.0109869
0.0109036
0.0108164
0.0107263
0.0106345
0.0105415
0.0104482
0.010355
0.0102625
0.0101709
0.0100807
0.00999191
0.00990484
0.0098196
0.00973626
0.0096549
0.00957555
0.00949824
0.00942297
0.00934973
0.0092785
0.00920925
0.0113825
0.0113788
0.0113715
0.0113527
0.0113123
0.0112512
0.0111713
0.0110751
0.0109656
0.0108458
0.0107187
0.0105868
0.0104521
0.0103163
0.0101807
0.0100464
0.0099142
0.00978461
0.0096581
0.00953494
0.00941533
0.00929937
0.00918713
0.0090786
0.00897374
0.00887249
0.00877479
0.00868052
0.0085896
0.00850191
0.00841733
0.00833576
0.00825707
0.0113813
0.0113725
0.0113446
0.0112755
0.0111624
0.0110161
0.0108447
0.0106562
0.0104574
0.0102539
0.0100496
0.00984759
0.00964987
0.00945783
0.00927233
0.00909388
0.00892271
0.00875888
0.00860229
0.00845278
0.00831011
0.00817402
0.00804421
0.00792039
0.00780226
0.00768953
0.00758191
0.00747912
0.0073809
0.00728701
0.0071972
0.00711125
0.00702894
0.0113782
0.0113392
0.0112229
0.0110038
0.0107266
0.0104167
0.0100938
0.00977088
0.00945631
0.00915473
0.00886847
0.00859844
0.00834473
0.0081069
0.00788423
0.00767584
0.0074808
0.00729817
0.00712704
0.00696653
0.00681584
0.00667421
0.00654095
0.00641543
0.00629704
0.00618527
0.00607961
0.00597963
0.00588491
0.00579509
0.00570982
0.00562879
0.00555171
0.0113586
0.011167
0.0107276
0.0101788
0.00961591
0.00907913
0.00858445
0.00813532
0.00773015
0.00736507
0.0070357
0.00673806
0.00646846
0.00622361
0.00600061
0.00579694
0.00561039
0.00543907
0.0052813
0.00513565
0.00500085
0.00487581
0.00475956
0.00465126
0.00455016
0.0044556
0.00436699
0.00428382
0.00420563
0.004132
0.00406255
0.00399697
0.00393495
0.0112033
0.010286
0.00914596
0.00815385
0.00734259
0.00668178
0.00613782
0.00568277
0.00529722
0.00496617
0.00467942
0.0044291
0.00420901
0.00401425
0.00384087
0.00368569
0.0035461
0.00341996
0.00330548
0.00320118
0.00310579
0.00301827
0.00293771
0.00286334
0.00279448
0.00273057
0.00267111
0.00261566
0.00256383
0.0025153
0.00246977
0.00242697
0.00238668
0.00988212
0.00703463
0.00556295
0.00467247
0.00408052
0.00363708
0.00328471
0.0029951
0.00275426
0.00255229
0.00238143
0.00223562
0.00211012
0.00200124
0.00190603
0.00182219
0.00174785
0.00168155
0.00162207
0.00156843
0.00151982
0.00147559
0.00143516
0.00139808
0.00136394
0.00133242
0.00130322
0.00127611
0.00125085
0.00122728
0.00120523
0.00118455
0.00116514
0.00388335
0.00236715
0.00190983
0.00162451
0.00144088
0.0012837
0.00115041
0.00104218
0.000954483
0.000882867
0.000823743
0.000774363
0.00073264
0.000697013
0.000666295
0.000639586
0.000616175
0.000595518
0.000577168
0.000560783
0.000546067
0.000532798
0.000520769
0.000509835
0.000499845
0.000490702
0.000482291
0.00047455
0.000467385
0.00046076
0.000454594
0.00044887
0.000443515
0.000128162
0.00013943
0.000150299
0.000159954
0.000168408
0.000175845
0.000182401
0.000188179
0.000193265
0.000197736
0.000201662
0.000205105
0.00020812
0.000210755
0.000213053
0.000215055
0.000216795
0.000218302
0.000219604
0.000220726
0.000221688
0.000222509
0.000223205
0.000223792
0.000224282
0.000224687
0.000225016
0.000225279
0.000225484
0.000225637
0.000225745
0.000225812
0.000225846
8.36426e-05
9.99981e-05
0.000125987
0.000161143
0.000202486
0.0002471
0.000293321
0.000339877
0.000385599
0.000429565
0.000470774
0.000508971
0.000544464
0.000577759
0.000609484
0.000640145
0.000670197
0.000699796
0.000729131
0.000758162
0.000786887
0.000815269
0.000843374
0.000871212
0.00089886
0.000926412
0.000953897
0.000981351
0.00100878
0.00103622
0.00106367
0.00109111
0.0011188
0.0011466
0.00117443
0.0012023
0.00123021
0.00125821
0.00128628
0.00131454
0.00134309
0.00137195
0.0014012
0.00143089
0.00146115
0.0014921
0.00152388
0.00155667
0.00159062
0.00162591
0.00166276
0.00170138
0.00174199
0.00178483
0.00183012
0.0018781
0.001929
0.00198303
0.00204037
0.00210119
0.00216562
0.00223377
0.00230567
0.00238134
0.00246074
0.00254377
0.0026303
0.00272013
0.00281306
0.0029088
0.00300708
0.00310752
0.00320986
0.0033136
0.00341855
0.00352411
0.00363016
0.00373613
0.00384168
0.00394655
0.00405032
0.00415265
0.00425313
0.00435164
0.00444777
0.00454129
0.00463194
0.00471958
0.00480389
0.00488498
0.00496224
0.0050364
0.00510605
0.00517326
0.00523413
0.00529582
0.0053456
0.00540588
0.00543958
0.00550915
0.000132951
0.000134166
0.000137362
0.000144743
0.000156117
0.000170864
0.000188982
0.000210071
0.000235104
0.000263976
0.000295178
0.000328962
0.000364784
0.000401625
0.000438832
0.000475844
0.000512382
0.000548036
0.000582951
0.000616751
0.000649552
0.000681419
0.000712606
0.000743119
0.000773122
0.000802759
0.000832047
0.000861065
0.000889876
0.000918552
0.000947155
0.000975698
0.00100428
0.00103294
0.00106169
0.00109058
0.00111962
0.00114887
0.00117835
0.00120814
0.00123833
0.00126899
0.00130023
0.00133213
0.00136482
0.00139843
0.0014331
0.001469
0.00150632
0.00154523
0.00158593
0.00162864
0.00167357
0.00172093
0.00177095
0.00182383
0.00187976
0.00193892
0.00200146
0.0020675
0.00213712
0.00221036
0.00228721
0.00236764
0.00245154
0.00253877
0.00262916
0.00272247
0.00281849
0.00291688
0.00301741
0.00311967
0.00322343
0.0033282
0.00343388
0.0035398
0.00364607
0.00375196
0.0038573
0.0039619
0.0040653
0.00416721
0.00426726
0.00436546
0.00446131
0.00455463
0.00464518
0.00473284
0.00481731
0.00489865
0.00497631
0.00505097
0.00512131
0.00518904
0.00525102
0.00531307
0.00536486
0.00542446
0.00546192
0.00553149
0.000228932
0.000224949
0.000220712
0.000217211
0.000215532
0.000215767
0.000217987
0.000222132
0.000228599
0.000238212
0.000251224
0.000267986
0.000288366
0.000311862
0.000338015
0.000366381
0.000396448
0.000427931
0.000460823
0.000492956
0.000525522
0.000558269
0.000591087
0.000623279
0.000655303
0.000686965
0.000718055
0.000748804
0.000779284
0.000809612
0.000839807
0.00086994
0.000900071
0.000930267
0.000960593
0.000991114
0.00102189
0.001053
0.00108451
0.00111651
0.00114907
0.00118232
0.00121634
0.00125127
0.00128724
0.00132438
0.00136285
0.00140282
0.00144446
0.00148796
0.00153352
0.00158132
0.00163156
0.00168444
0.00174014
0.00179883
0.00186065
0.00192574
0.00199417
0.00206602
0.0021413
0.00221997
0.00230198
0.00238721
0.00247551
0.00256668
0.00266053
0.00275676
0.00285516
0.00295538
0.00305721
0.00316023
0.00326428
0.00336886
0.00347402
0.00357898
0.00368419
0.0037886
0.00389239
0.0039954
0.0040971
0.00419725
0.00429562
0.00439232
0.00448669
0.00457869
0.0046681
0.00475478
0.00483845
0.00491917
0.00499641
0.00507084
0.00514115
0.0052087
0.00527126
0.00533304
0.00538647
0.00544471
0.00548571
0.00555461
0.000401284
0.000393449
0.000385294
0.000377476
0.00037059
0.000364508
0.000359266
0.000354711
0.000351087
0.000348337
0.000346924
0.000347032
0.000349327
0.000353874
0.000361329
0.000371492
0.000385072
0.000401437
0.000421537
0.000443999
0.000469145
0.00049531
0.000523788
0.000551752
0.000582317
0.000611713
0.000640806
0.000670906
0.000701402
0.00073219
0.00076302
0.000794077
0.00082534
0.000856875
0.000888751
0.000921038
0.000953809
0.000987144
0.00102113
0.00105585
0.0010914
0.0011279
0.00116546
0.00120421
0.00124428
0.00128583
0.00132899
0.00137395
0.00142085
0.00146988
0.00152121
0.001575
0.00163142
0.00169063
0.00175275
0.0018179
0.00188617
0.00195761
0.00203225
0.00211007
0.00219101
0.00227497
0.00236182
0.00245137
0.00254343
0.00263775
0.00273411
0.00283218
0.00293178
0.00303251
0.00313424
0.00323652
0.00333929
0.00344207
0.00354507
0.00364738
0.00374992
0.00385104
0.00395166
0.00405148
0.00414979
0.00424654
0.00434169
0.00443547
0.00452689
0.0046162
0.00470317
0.00478765
0.0048694
0.00494842
0.00502426
0.00509755
0.00516692
0.00523344
0.00529593
0.0053567
0.00541133
0.00546737
0.00551156
0.00557908
0.000643099
0.000631244
0.000619457
0.000608092
0.000597628
0.00058787
0.000578849
0.000570304
0.000562416
0.000554942
0.000548139
0.000541705
0.000536054
0.000530908
0.000526908
0.000523797
0.000522462
0.00052262
0.000525364
0.000530363
0.000538648
0.000549413
0.00056373
0.00058036
0.000600303
0.00062243
0.000647079
0.00067195
0.000699697
0.000727343
0.000755254
0.000784668
0.0008148
0.000845912
0.000877975
0.000910988
0.000944973
0.000979974
0.00101605
0.00105327
0.00109173
0.00113151
0.00117274
0.00121551
0.00125997
0.00130624
0.00135446
0.00140477
0.00145732
0.00151225
0.00156969
0.00162976
0.00169258
0.00175825
0.00182683
0.00189838
0.00197289
0.00205036
0.00213073
0.00221389
0.00229971
0.00238803
0.00247865
0.00257132
0.00266582
0.00276185
0.00285917
0.00295746
0.00305655
0.003156
0.0032558
0.00335544
0.00345499
0.00355403
0.00365291
0.00375062
0.00384861
0.00394425
0.00403996
0.00413467
0.00422755
0.00431917
0.00440929
0.00449812
0.00458505
0.0046701
0.00475311
0.00483395
0.00491242
0.00498845
0.00506172
0.00513254
0.00520016
0.00526485
0.00532627
0.00538516
0.00544042
0.00549325
0.00554006
0.0056056
0.00096319
0.000945704
0.000928699
0.000912358
0.000897084
0.000882716
0.000869289
0.000856545
0.000844634
0.000833294
0.000822714
0.000812572
0.000803115
0.000794022
0.000785664
0.000777758
0.000770797
0.000764555
0.000759613
0.000755673
0.000753493
0.000752798
0.000754393
0.00075798
0.000764325
0.000773056
0.000784981
0.000799216
0.000816566
0.00083645
0.000859155
0.000883349
0.000909643
0.000937942
0.000967892
0.00099948
0.0010327
0.00106758
0.00110413
0.00114241
0.00118247
0.00122439
0.00126823
0.00131409
0.00136207
0.00141227
0.00146478
0.00151972
0.00157717
0.00163723
0.00169998
0.00176548
0.00183378
0.00190492
0.00197887
0.00205562
0.00213509
0.00221719
0.00230179
0.0023887
0.00247774
0.00256867
0.00266123
0.00275515
0.00285015
0.00294592
0.00304223
0.00313871
0.00323524
0.00333135
0.00342716
0.00352202
0.00361628
0.00370953
0.00380223
0.0038933
0.00398472
0.0040733
0.00416129
0.00424847
0.00433419
0.00441868
0.00450183
0.00458383
0.00466436
0.00474334
0.00482068
0.00489623
0.00496986
0.00504144
0.00511076
0.00517784
0.00524247
0.00530419
0.00536357
0.00541962
0.00547411
0.00552381
0.00557173
0.00563513
0.00137888
0.00135329
0.00132865
0.00130507
0.00128283
0.00126184
0.00124209
0.00122338
0.00120579
0.00118912
0.00117346
0.00115858
0.00114463
0.00113136
0.00111902
0.0011074
0.00109681
0.00108706
0.00107851
0.00107096
0.00106479
0.00105986
0.00105654
0.0010548
0.00105497
0.00105702
0.00106136
0.0010681
0.00107706
0.00108843
0.00110273
0.00111966
0.00113926
0.00116163
0.0011865
0.00121383
0.00124359
0.00127578
0.00131038
0.00134739
0.00138685
0.00142876
0.00147319
0.00152015
0.00156972
0.00162194
0.00167685
0.00173452
0.00179498
0.00185825
0.00192436
0.00199331
0.00206507
0.00213959
0.0022168
0.00229659
0.00237883
0.00246334
0.00254992
0.00263834
0.00272833
0.00281962
0.0029119
0.00300486
0.0030982
0.00319158
0.00328476
0.00337738
0.00346932
0.00356005
0.0036499
0.00373793
0.00382501
0.00391063
0.00399602
0.00407816
0.00416002
0.00423985
0.00431848
0.00439617
0.00447261
0.00454795
0.00462215
0.0046954
0.00476756
0.00483858
0.0049084
0.00497689
0.00504398
0.00510948
0.00517334
0.00523525
0.0052955
0.00535295
0.00540915
0.00546125
0.00551408
0.00555938
0.00560827
0.00566758
0.00190183
0.0018655
0.00183067
0.00179738
0.00176581
0.00173589
0.00170761
0.00168079
0.00165545
0.00163144
0.00160879
0.00158733
0.00156712
0.00154804
0.0015302
0.00151353
0.0014982
0.00148413
0.00147155
0.00146033
0.00145074
0.00144258
0.00143625
0.00143167
0.00142857
0.00142749
0.0014284
0.00143147
0.00143673
0.00144421
0.00145413
0.00146658
0.00148163
0.0014994
0.00151991
0.00154319
0.00156927
0.00159816
0.00162988
0.00166447
0.00170194
0.00174232
0.00178563
0.0018319
0.00188114
0.00193338
0.00198862
0.00204687
0.00210813
0.00217236
0.00223952
0.00230956
0.00238239
0.00245791
0.00253596
0.00261639
0.00269898
0.00278352
0.00286974
0.00295736
0.00304606
0.00313551
0.0032254
0.00331535
0.00340506
0.00349417
0.0035824
0.00366943
0.00375505
0.00383876
0.00392103
0.00400054
0.00408005
0.00415665
0.00423147
0.0043038
0.00437491
0.00444418
0.00451192
0.0045785
0.00464392
0.00470832
0.00477178
0.00483448
0.00489645
0.00495767
0.00501816
0.00507781
0.00513664
0.00519437
0.00525114
0.00530634
0.00536075
0.00541249
0.00546426
0.00551116
0.00556132
0.00560088
0.00565031
0.00570371
0.00253226
0.00248311
0.00243602
0.00239097
0.00234807
0.00230725
0.00226848
0.00223162
0.00219664
0.00216342
0.00213195
0.0021021
0.00207389
0.00204723
0.00202221
0.00199878
0.0019771
0.00195711
0.00193899
0.00192267
0.00190835
0.0018959
0.00188558
0.00187719
0.00187141
0.00186705
0.00186491
0.0018653
0.00186791
0.00187291
0.00188029
0.0018902
0.00190266
0.00191778
0.00193564
0.00195629
0.0019798
0.00200622
0.00203559
0.00206797
0.0021034
0.00214191
0.00218354
0.00222831
0.00227622
0.00232729
0.00238151
0.00243885
0.00249928
0.00256274
0.00262915
0.0026984
0.00277037
0.0028449
0.0029218
0.00300086
0.00308183
0.00316443
0.00324836
0.00333329
0.00341888
0.00350476
0.00359057
0.00367594
0.00376051
0.00384394
0.00392591
0.00400608
0.00408413
0.0041597
0.00423337
0.00430551
0.00437423
0.00444055
0.00450469
0.00456619
0.00462577
0.00468338
0.0047392
0.00479361
0.00484679
0.00489897
0.00495031
0.00500104
0.00505131
0.00510117
0.00515073
0.00519992
0.00524885
0.00529719
0.00534529
0.00539225
0.0054393
0.00548389
0.00552986
0.00557024
0.00561661
0.00564909
0.00569835
0.00574411
0.00325836
0.0031954
0.00313497
0.00307704
0.00302164
0.00296872
0.00291823
0.00287006
0.00282415
0.00278041
0.00273879
0.0026992
0.00266163
0.00262603
0.00259244
0.00256087
0.00253141
0.00250406
0.00247895
0.00245606
0.00243555
0.00241732
0.00240161
0.00238818
0.00237751
0.00236916
0.00236374
0.00236006
0.00235918
0.00236119
0.00236569
0.00237294
0.00238287
0.00239557
0.00241109
0.00242947
0.00245077
0.00247503
0.00250231
0.00253264
0.00256606
0.00260262
0.00264234
0.00268524
0.00273131
0.00278057
0.00283298
0.0028885
0.00294709
0.00300865
0.00307308
0.00314025
0.00321001
0.00328216
0.00335648
0.00343272
0.00351061
0.00358983
0.00367006
0.00375094
0.00383209
0.00391311
0.00399367
0.00407332
0.00415172
0.00422852
0.00430333
0.00437579
0.00444541
0.00451297
0.00457847
0.00464019
0.00469894
0.00475476
0.0048079
0.00485817
0.00490601
0.00495156
0.00499506
0.00503686
0.00507725
0.00511654
0.005155
0.00519288
0.00523045
0.00526786
0.0053053
0.00534274
0.00538043
0.005418
0.00545601
0.0054933
0.00553159
0.00556762
0.00560645
0.00563899
0.00568036
0.00570451
0.00575256
0.0057891
0.0040585
0.00398209
0.00390853
0.00383779
0.00376987
0.0037047
0.00364225
0.00358243
0.00352518
0.00347042
0.00341809
0.00336814
0.00332053
0.00327524
0.0032323
0.00319172
0.00315358
0.0031179
0.00308478
0.00305424
0.0030264
0.00300121
0.00297886
0.00295918
0.0029425
0.0029285
0.00291771
0.00290938
0.00290466
0.00290183
0.00290211
0.00290579
0.00291214
0.00292159
0.00293401
0.00294943
0.00296791
0.00298947
0.00301412
0.00304189
0.00307282
0.00310691
0.00314417
0.00318461
0.00322822
0.00327498
0.00332484
0.00337775
0.00343363
0.00349239
0.00355388
0.00361796
0.00368445
0.00375314
0.00382378
0.00389609
0.00396979
0.00404453
0.00411997
0.00419574
0.00427143
0.00434665
0.00442105
0.00449413
0.00456563
0.0046351
0.00470212
0.00476619
0.00482801
0.00488732
0.00494276
0.00499487
0.00504364
0.00508906
0.00513136
0.00517052
0.00520682
0.00524052
0.00527185
0.00530119
0.00532887
0.00535526
0.00538068
0.00540548
0.00542999
0.00545442
0.00547908
0.005504
0.00552956
0.00555536
0.00558219
0.00560869
0.00563703
0.00566328
0.00569372
0.00571724
0.00575238
0.00576717
0.00581261
0.00583861
0.00490465
0.0048165
0.00473133
0.00464911
0.00456981
0.0044934
0.00441985
0.00434908
0.00428106
0.00421572
0.00415301
0.00409291
0.00403538
0.00398042
0.00392805
0.00387829
0.00383122
0.00378686
0.00374531
0.00370659
0.00367082
0.00363799
0.00360822
0.00358145
0.00355789
0.00353732
0.00352014
0.00350583
0.00349518
0.00348709
0.0034831
0.00348135
0.00348258
0.00348782
0.00349596
0.0035073
0.00352193
0.00353974
0.00356074
0.00358499
0.00361248
0.00364318
0.00367707
0.00371415
0.00375439
0.00379773
0.00384412
0.00389349
0.00394572
0.0040007
0.00405827
0.00411827
0.00418049
0.0042447
0.00431063
0.004378
0.00444651
0.00451578
0.00458548
0.0046552
0.00472452
0.00479312
0.00486059
0.00492635
0.00499032
0.00505185
0.0051104
0.00516679
0.0052202
0.00526983
0.00531597
0.00535851
0.00539743
0.00543272
0.00546455
0.005493
0.00551827
0.00554064
0.00556038
0.00557783
0.00559336
0.00560735
0.00562019
0.00563225
0.00564391
0.00565547
0.00566732
0.00567953
0.0056926
0.00570616
0.00572119
0.00573617
0.00575371
0.00576929
0.00579035
0.00580389
0.00583165
0.00583633
0.00587745
0.0058921
0.00576603
0.00566902
0.00557487
0.00548358
0.00539513
0.00530951
0.0052267
0.00514667
0.00506939
0.00499482
0.00492296
0.00485376
0.00478725
0.00472341
0.00466228
0.0046039
0.00454832
0.00449561
0.00444584
0.00439905
0.00435535
0.00431475
0.00427737
0.00424318
0.00421233
0.00418472
0.00416058
0.00413964
0.00412234
0.00410813
0.00409768
0.00409038
0.00408648
0.00408619
0.00408851
0.00409473
0.00410451
0.00411739
0.00413363
0.0041533
0.00417626
0.00420244
0.00423187
0.00426451
0.00430029
0.00433915
0.00438101
0.00442576
0.00447327
0.00452341
0.004576
0.00463085
0.00468775
0.00474642
0.00480661
0.00486801
0.00493032
0.00499313
0.00505614
0.00511888
0.00518093
0.00524212
0.00530185
0.00535955
0.0054154
0.00546821
0.0055191
0.00556639
0.00561041
0.00565087
0.00568765
0.00572067
0.0057499
0.00577533
0.0057971
0.00581532
0.00583016
0.00584189
0.00585078
0.00585716
0.00586138
0.00586383
0.00586492
0.00586502
0.00586457
0.00586388
0.00586342
0.00586328
0.0058641
0.00586549
0.00586863
0.00587187
0.00587824
0.00588269
0.0058937
0.00589668
0.00591609
0.00591029
0.00594538
0.00594814
0.00661242
0.0065102
0.0064105
0.00631336
0.00621877
0.00612677
0.00603735
0.00595051
0.00586626
0.0057846
0.00570552
0.00562905
0.00555518
0.00548397
0.00541543
0.00534964
0.00528665
0.00522653
0.00516936
0.00511521
0.00506416
0.00501626
0.00497161
0.00493023
0.00489223
0.00485757
0.00482641
0.00479862
0.00477444
0.00475363
0.00473645
0.00472277
0.0047125
0.00470597
0.00470249
0.00470302
0.00470674
0.00471343
0.00472404
0.00473824
0.00475559
0.00477616
0.00480006
0.00482719
0.00485743
0.00489072
0.00492695
0.00496596
0.00500764
0.00505183
0.00509833
0.00514694
0.00519742
0.00524946
0.00530284
0.00535724
0.00541231
0.00546764
0.005523
0.00557775
0.00563167
0.00568467
0.00573576
0.00578464
0.00583202
0.00587609
0.00591739
0.00595545
0.0059901
0.00602113
0.00604842
0.00607188
0.0060915
0.00610729
0.00611933
0.00612775
0.00613273
0.00613449
0.0061333
0.00612946
0.00612331
0.00611522
0.00610559
0.00609479
0.00608326
0.00607131
0.00605945
0.00604781
0.00603709
0.00602689