/*--------------------------------*- C++ -*----------------------------------*\
  =========                 |
  \\      /  F ield         | OpenFOAM: The Open Source CFD Toolbox
   \\    /   O peration     | Website:  https://openfoam.org
    \\  /    A nd           | Version:  10
     \\/     M anipulation  |
\*---------------------------------------------------------------------------*/
FoamFile
{
    format      ascii;
    class       volScalarField;
    location    "1000";
    object      omega;
}
// * * * * * * * * * * * * * * * * * * * * * * * * * * * * * * * * * * * * * //

dimensions      [0 0 -1 0 0 0 0];

internalField   nonuniform List<scalar> 
6820
(
6119.65
8495.53
9975.17
10745.8
11095.1
11205.2
11181.5
11085.3
10953.1
10806.8
10658.4
10514.8
10379.1
10252.8
10136.1
10028.7
9930.07
9839.5
9756.26
9679.63
9608.97
9543.69
9483.24
9427.15
9375
9326.39
9280.97
9238.46
9198.42
9161.26
9122.8
9101.52
9003.01
563.863
1593.66
2118.99
2485.29
2810.04
3047.21
3202.64
3297.98
3354.17
3382.65
3395.35
3394.49
3390.56
3382.3
3371.89
3361.05
3350.52
3340.71
3331.86
3324.04
3317.31
3311.6
3306.9
3303.07
3300.12
3297.9
3296.45
3295.61
3295.79
3296.61
3298.14
3301.84
3307.58
97.8512
383.671
612.514
783.211
925.913
1044.15
1139.72
1215.41
1275.18
1321.46
1357.37
1384.53
1405.16
1420.61
1432.05
1440.37
1446.35
1450.52
1453.37
1455.22
1456.38
1457.03
1457.37
1457.5
1457.53
1457.56
1457.63
1457.78
1458.13
1458.57
1459.49
1460.37
1462.63
35.0872
109.689
194.406
270.89
340.029
401.75
456.059
503.312
544.328
579.675
610.092
636.128
658.405
677.424
693.68
707.537
719.395
729.496
738.173
745.561
751.953
757.385
762.144
766.17
769.777
772.794
775.608
777.909
780.205
782.023
784.037
785.569
787.558
22.8645
46.9745
78.9735
111.645
143.697
174.308
202.955
229.405
253.675
275.804
295.908
314.101
330.538
345.355
358.716
370.736
381.575
391.321
400.123
408.038
415.209
421.658
427.529
432.808
437.648
441.995
446.019
449.631
453.016
456.057
458.955
461.57
464.128
19.4482
28.8211
42.7198
57.8276
73.3611
88.8415
103.932
118.422
132.214
145.247
157.503
168.976
179.69
189.667
198.948
207.564
215.565
222.981
229.864
236.24
242.161
247.645
252.747
257.473
261.879
265.964
269.785
273.331
276.661
279.76
282.685
285.419
288.021
18.2937
22.3026
29.0894
36.8342
45.0409
53.4276
61.8037
70.042
78.0648
85.8188
93.2711
100.401
107.199
113.664
119.8
125.611
131.111
136.309
141.22
145.854
150.231
154.358
158.255
161.93
165.402
168.677
171.775
174.699
177.47
180.09
182.578
184.937
187.184
17.8628
19.6407
23.1435
27.4253
32.1054
36.9869
41.946
46.901
51.7981
56.5996
61.2794
65.8192
70.2076
74.4371
78.5044
82.4079
86.1493
89.7299
93.1545
96.4262
99.5512
102.533
105.38
108.095
110.685
113.156
115.514
117.764
119.912
121.964
123.925
125.8
127.594
17.6921
18.5022
20.2904
22.7591
25.5623
28.5575
31.6531
34.789
37.925
41.0328
44.0924
47.0892
50.0133
52.8576
55.6174
58.2897
60.8733
63.3674
65.7726
68.0899
70.3209
72.4673
74.5316
76.5159
78.4232
80.2558
82.0167
83.7085
85.3344
86.8967
88.3987
89.8427
91.2316
17.6213
17.9912
18.8824
20.3079
22.0195
23.9107
25.9093
27.9667
30.05
32.1359
34.2079
36.254
38.2654
40.2358
42.1607
44.0369
45.8624
47.6356
49.3561
51.0236
52.6383
54.2008
55.7119
57.1726
58.584
59.9472
61.2638
62.535
63.7624
64.9474
66.0915
67.196
68.2624
17.591
17.7573
18.1874
18.9891
20.029
21.2312
22.54
23.916
25.3312
26.7655
28.2045
29.6375
31.0565
32.4559
33.8312
35.1793
36.4979
37.7854
39.0406
40.2629
41.452
42.6076
43.7301
44.8197
45.8768
46.9019
47.8958
48.859
49.7924
50.6966
51.5726
52.4211
53.2427
17.5777
17.6499
17.8528
18.2782
18.8974
19.6531
20.5077
21.4311
22.4002
23.3977
24.4109
25.43
26.4478
27.4588
28.4588
29.4446
30.4138
31.3647
32.296
33.2066
34.0961
34.9639
35.8098
36.6338
37.436
38.2165
38.9755
39.7134
40.4306
41.1273
41.8041
42.4613
43.0994
17.5717
17.6008
17.6934
17.9051
18.2597
18.7223
19.2706
19.8837
20.5439
21.2371
21.9523
22.6808
23.416
24.1527
24.8868
25.6153
26.3357
27.0461
27.7452
28.4317
29.105
29.7643
30.4092
31.0395
31.655
32.2557
32.8416
33.4127
33.9691
34.5111
35.0389
35.5525
36.0523
17.5685
17.5785
17.6181
17.7167
17.9085
18.1807
18.5221
18.92
19.3623
19.8384
20.3392
20.8575
21.3874
21.9242
22.4641
23.0041
23.5418
24.0753
24.6031
25.124
25.6371
26.1416
26.6369
27.1227
27.5986
28.0645
28.5202
28.9655
29.4006
29.8254
30.24
30.6444
31.0387
17.5667
17.5684
17.5829
17.6262
17.7205
17.8733
18.0775
18.3273
18.6156
18.9354
19.2799
19.6435
20.0213
20.4092
20.8038
21.2024
21.6026
22.0027
22.4011
22.7965
23.1881
23.5749
23.9563
24.3318
24.7011
25.0637
25.4195
25.7683
26.11
26.4444
26.7716
27.0915
27.4041
17.5661
17.5629
17.5666
17.5833
17.6249
17.7047
17.8205
17.9706
18.1518
18.3599
18.5907
18.8401
19.1043
19.38
19.6645
19.9553
20.2503
20.5479
20.8466
21.1452
21.4427
21.7382
22.0312
22.321
22.6071
22.8892
23.167
23.4402
23.7087
23.9723
24.2308
24.4843
24.7326
17.5661
17.5601
17.5585
17.5631
17.5791
17.6155
17.6769
17.7623
17.8709
18.001
18.1502
18.3159
18.4957
18.6871
18.8878
19.096
19.31
19.5281
19.7492
19.9721
20.1959
20.4197
20.643
20.865
21.0854
21.3037
21.5197
21.7329
21.9431
22.1503
22.3541
22.5545
22.7514
17.5661
17.5591
17.5541
17.5533
17.5575
17.5711
17.5997
17.6448
17.7061
17.7833
17.8755
17.9813
18.0994
18.228
18.3657
18.511
18.6625
18.8191
18.9796
19.1431
19.3088
19.476
19.6439
19.8121
19.98
20.1473
20.3136
20.4787
20.6421
20.8039
20.9636
21.1213
21.2767
17.5662
17.5588
17.5523
17.5479
17.5469
17.5501
17.5603
17.5811
17.6128
17.6556
17.7093
17.7736
17.8477
17.9307
18.0218
18.1198
18.224
18.3333
18.4469
18.5641
18.6842
18.8066
18.9306
19.0559
19.1819
19.3083
19.4348
19.561
19.6867
19.8117
19.9357
20.0587
20.1804
17.5662
17.5587
17.5517
17.5456
17.5413
17.5397
17.5415
17.5482
17.5621
17.5834
17.6122
17.6487
17.6926
17.7435
17.801
17.8645
17.9334
18.0072
18.0851
18.1667
18.2515
18.3389
18.4285
18.5198
18.6126
18.7064
18.801
18.8961
18.9915
19.0869
19.1821
19.277
19.3714
17.5662
17.5587
17.5515
17.5447
17.5388
17.5344
17.5319
17.5324
17.5359
17.5442
17.5577
17.5764
17.6003
17.6295
17.6637
17.7028
17.7463
17.794
17.8455
17.9005
17.9585
18.0192
18.0822
18.1473
18.2142
18.2825
18.3521
18.4226
18.4938
18.5657
18.6379
18.7104
18.7829
17.5662
17.5587
17.5514
17.5444
17.5378
17.532
17.5272
17.5241
17.5231
17.5243
17.5283
17.5362
17.5475
17.5627
17.5815
17.604
17.63
17.6595
17.6921
17.7278
17.7663
17.8073
17.8507
17.8961
17.9434
17.9923
18.0428
18.0944
18.1472
18.2009
18.2553
18.3103
18.3659
17.5662
17.5587
17.5514
17.5442
17.5374
17.531
17.5251
17.5202
17.5164
17.5141
17.5138
17.5151
17.5189
17.5255
17.5347
17.5466
17.5613
17.5787
17.5987
17.6213
17.6464
17.6737
17.7032
17.7347
17.7681
17.8031
17.8398
17.8778
17.917
17.9574
17.9988
18.041
18.084
17.5662
17.5587
17.5514
17.5442
17.5372
17.5306
17.5243
17.5185
17.5135
17.5094
17.5065
17.505
17.5052
17.5068
17.5105
17.5164
17.5245
17.5348
17.5473
17.5619
17.5787
17.5975
17.6184
17.6411
17.6656
17.6917
17.7195
17.7486
17.7791
17.8108
17.8436
17.8775
17.9121
17.5662
17.5587
17.5513
17.5442
17.5372
17.5304
17.524
17.518
17.5126
17.5078
17.5041
17.5014
17.5002
17.5004
17.5018
17.5051
17.5104
17.5177
17.5269
17.5381
17.5511
17.5661
17.583
17.6016
17.622
17.644
17.6675
17.6924
17.7187
17.7462
17.7749
17.8046
17.8352
17.5662
17.5587
17.5513
17.5442
17.5372
17.5305
17.5242
17.5183
17.5132
17.5088
17.5055
17.5034
17.5028
17.5035
17.5056
17.5097
17.5158
17.5238
17.5337
17.5456
17.5594
17.575
17.5925
17.6117
17.6326
17.6551
17.6791
17.7045
17.7311
17.759
17.788
17.8181
17.849
17.5662
17.5587
17.5513
17.5442
17.5374
17.5309
17.5251
17.52
17.5159
17.5131
17.5117
17.5122
17.5141
17.5183
17.5246
17.5331
17.5437
17.5566
17.5716
17.5888
17.608
17.6292
17.6522
17.677
17.7035
17.7316
17.7611
17.7919
17.824
17.8572
17.8913
17.9264
17.9624
17.5662
17.5587
17.5514
17.5444
17.5379
17.5322
17.5276
17.5243
17.523
17.5238
17.5267
17.5327
17.5416
17.5534
17.5681
17.5857
17.6061
17.6292
17.6549
17.6831
17.7135
17.7461
17.7806
17.817
17.855
17.8944
17.9353
17.9773
18.0204
18.0644
18.1093
18.1548
18.201
17.5662
17.5587
17.5516
17.5451
17.5396
17.5357
17.5342
17.5354
17.5395
17.5482
17.5612
17.5785
17.6003
17.6263
17.6565
17.6905
17.7282
17.7692
17.8134
17.8603
17.9097
17.9613
18.015
18.0703
18.1272
18.1853
18.2446
18.3048
18.3657
18.4273
18.4893
18.5516
18.6142
17.5662
17.5589
17.5522
17.5473
17.5446
17.5455
17.5504
17.5615
17.5798
17.605
17.6371
17.6761
17.7215
17.7729
17.8299
17.8918
17.9581
18.0284
18.102
18.1786
18.2577
18.3389
18.4218
18.506
18.5914
18.6776
18.7644
18.8516
18.939
19.0265
19.1138
19.2008
19.2875
17.5662
17.5594
17.5546
17.5542
17.558
17.5696
17.5932
17.6282
17.6749
17.7329
17.8016
17.8801
17.9674
18.0624
18.164
18.2714
18.3835
18.4996
18.6189
18.7408
18.8645
18.9897
19.1159
19.2426
19.3696
19.4965
19.6231
19.7491
19.8744
19.9987
20.122
20.2442
20.3651
17.5663
17.5617
17.563
17.5718
17.595
17.6401
17.7055
17.7911
17.8954
18.0165
18.1523
18.3006
18.4593
18.6266
18.8007
18.9802
19.1638
19.3502
19.5387
19.7283
19.9185
20.1085
20.2979
20.4864
20.6735
20.859
21.0426
21.2241
21.4034
21.5803
21.7548
21.9268
22.0961
17.5672
17.57
17.5859
17.6276
17.711
17.8336
17.9919
18.1815
18.3976
18.6351
18.8897
19.1574
19.435
19.7198
20.0094
20.302
20.596
20.8902
21.1836
21.4753
21.7646
22.0511
22.3342
22.6137
22.8892
23.1606
23.4277
23.6903
23.9484
24.2019
24.4508
24.6951
24.9348
17.5716
17.5953
17.6662
17.8177
18.053
18.3543
18.7087
19.1036
19.5285
19.9745
20.4349
20.9044
21.3787
21.8548
22.3301
22.8027
23.2712
23.7345
24.1917
24.6422
25.0854
25.521
25.9488
26.3685
26.7802
27.1836
27.5788
27.9659
28.3448
28.7157
29.0787
29.4338
29.7811
17.5854
17.6974
17.9699
18.4419
19.0444
19.7381
20.4917
21.2821
22.0933
22.9141
23.7367
24.5557
25.3673
26.1688
26.9583
27.7344
28.4962
29.243
29.9745
30.6904
31.3907
32.0753
32.7443
33.3978
34.0361
34.6594
35.2678
35.8618
36.4415
37.0072
37.5593
38.0981
38.6239
17.6522
18.1438
19.1451
20.4574
21.9286
23.4776
25.0548
26.6331
28.1966
29.7371
31.25
32.7323
34.182
35.5983
36.9807
38.3291
39.6436
40.9246
42.1725
43.3878
44.5711
45.723
46.8442
47.9355
48.9974
50.0307
51.0362
52.0146
52.9666
53.893
54.7945
55.6718
56.5255
18.0423
20.3419
23.6954
27.3243
30.9671
34.5343
37.9952
41.351
44.6032
47.7618
50.8283
53.8045
56.6925
59.4942
62.2115
64.8462
67.4002
69.8754
72.2738
74.5973
76.8479
79.0277
81.1387
83.183
85.1628
87.0799
88.9366
90.7348
92.4764
94.1636
95.7981
97.3818
98.9166
21.0783
32.2377
43.8848
55.0827
65.2654
74.7229
83.6608
92.2515
100.529
108.499
116.17
123.546
130.634
137.44
143.973
150.24
156.25
162.01
167.532
172.822
177.893
182.751
187.407
191.869
196.147
200.248
204.182
207.956
211.578
215.055
218.394
221.602
224.685
63.2893
131.146
179.994
220.948
253.72
286.904
320.749
353.551
384.646
413.765
440.836
465.898
489.061
510.454
530.221
548.493
565.404
581.067
595.602
609.099
621.661
633.357
644.278
654.474
664.026
672.968
681.374
689.263
696.706
703.708
710.339
716.589
722.536
1672.14
1819.15
1960.96
2086.92
2197.23
2294.25
2379.79
2455.18
2521.53
2579.87
2631.09
2676.01
2715.34
2749.72
2779.71
2805.83
2828.53
2848.19
2865.18
2879.82
2892.37
2903.08
2912.17
2919.82
2926.22
2931.5
2935.79
2939.22
2941.89
2943.89
2945.3
2946.18
2946.62
8955.63
8416.62
7890.14
7363.28
6857.19
6384.62
5950.65
5556.21
5197.87
4870.78
4574.93
4307.18
4064.24
3843.68
3642.84
3459.54
3291.39
3137
2994.53
2863.03
2741.41
2628.82
2524.21
2426.81
2335.74
2250.17
2169.48
2093.07
2020.43
1951.04
1884.47
1820.39
1758.03
1697.37
1638.22
1580.37
1523.62
1467.78
1412.78
1358.41
1304.56
1251.23
1198.41
1146.13
1094.44
1043.39
993.069
943.589
895.086
847.707
801.604
756.934
713.852
672.506
633.028
595.533
560.113
526.833
495.73
466.815
440.07
415.453
392.897
372.319
353.621
336.694
321.42
307.684
295.362
284.339
274.496
265.727
257.922
250.989
244.822
239.35
234.474
230.13
226.249
222.761
219.612
216.752
214.138
211.719
209.464
207.339
205.317
203.371
201.484
199.627
197.805
195.972
194.167
192.302
190.51
188.527
186.804
184.542
183.114
180.088
3308.82
3344.49
3418.73
3493.82
3568.92
3645.72
3711.79
3766.3
3789.09
3780.83
3753.32
3694.85
3608.8
3504.15
3386.74
3262.15
3134.21
3007.17
2882.02
2762.08
2647.57
2538.77
2435.15
2336.92
2243.58
2154.68
2070.08
1989.37
1912.2
1838.2
1767.01
1698.4
1632.01
1567.58
1504.93
1443.88
1384.27
1325.98
1268.92
1213
1158.14
1104.33
1051.56
999.869
949.3
899.923
851.821
805.091
759.841
716.182
674.225
634.076
595.831
559.573
525.364
493.25
463.251
435.368
409.577
385.834
364.076
344.224
326.185
309.859
295.137
281.909
270.061
259.487
250.074
241.725
234.336
227.82
222.084
217.055
212.64
208.79
205.411
202.465
199.887
197.617
195.614
193.836
192.246
190.794
189.461
188.213
187.027
185.879
184.753
183.625
182.497
181.33
180.155
178.906
177.678
176.273
175.031
173.351
172.268
169.939
1464.45
1470.24
1481.8
1495.81
1509.72
1527.07
1550.35
1582.48
1624.41
1674.18
1731
1790.81
1850.44
1907.14
1957.1
1996.9
2024.39
2037.43
2034.46
2023.31
1998.74
1963.25
1919.11
1870.31
1816.92
1761.05
1704.3
1646.85
1589.2
1531.65
1474.58
1418.15
1362.5
1307.68
1253.74
1200.69
1148.56
1097.37
1047.12
997.853
949.6
902.406
856.322
811.413
767.753
725.422
684.504
645.084
607.245
571.067
536.621
503.965
473.145
444.192
417.117
391.917
368.569
347.036
327.264
309.188
292.73
277.807
264.327
252.199
241.325
231.615
222.973
215.316
208.554
202.614
197.413
192.889
188.968
185.598
182.703
180.254
178.162
176.42
174.961
173.737
172.724
171.883
171.182
170.575
170.052
169.581
169.14
168.708
168.272
167.808
167.318
166.766
166.181
165.511
164.815
163.962
163.179
162.062
161.314
159.664
789.407
792.116
795.899
799.54
802.147
804.452
806.904
810.453
815.404
822.779
832.868
846.731
864.194
886.178
911.671
941.103
972.046
1004.65
1034.87
1063.62
1087.78
1108.77
1122.06
1132.08
1131.99
1128.89
1120.83
1106.14
1086.62
1063.23
1037.01
1008.29
977.659
945.535
912.286
878.231
843.649
808.783
773.846
739.029
704.502
670.418
636.921
604.141
572.197
541.203
511.26
482.458
454.879
428.59
403.645
380.085
357.934
337.204
317.892
299.982
283.444
268.24
254.322
241.633
230.112
219.695
210.313
201.9
194.387
187.71
181.803
176.608
172.064
168.123
164.724
161.831
159.387
157.36
155.689
154.366
153.305
152.533
151.969
151.586
151.374
151.298
151.323
151.41
151.563
151.744
151.935
152.117
152.277
152.395
152.469
152.465
152.413
152.27
152.063
151.721
151.365
150.779
150.352
149.346
466.863
469.966
473.182
476.205
478.644
480.664
482.287
483.796
485.137
486.648
488.268
490.48
493.195
496.997
501.676
507.871
515.149
524.142
534.078
545.397
557.008
569.372
580.946
592.232
601.577
609.333
614.488
618.589
618.839
617.632
614.375
608.098
599.566
588.78
576.021
561.572
545.704
528.677
510.736
492.108
473.004
453.617
434.124
414.687
395.452
376.548
358.091
340.183
322.91
306.345
290.545
275.555
261.408
248.122
235.706
224.158
213.466
203.614
194.575
186.321
178.817
172.028
165.914
160.439
155.563
151.248
147.457
144.156
141.306
138.884
136.848
135.18
133.842
132.813
132.049
131.556
131.254
131.203
131.293
131.533
131.922
132.414
132.989
133.616
134.288
134.981
135.674
136.352
137
137.602
138.149
138.621
139.023
139.339
139.568
139.684
139.714
139.618
139.491
139.076
290.873
294.015
297.097
300.036
302.67
305.032
307.106
308.982
310.617
312.117
313.431
314.705
315.882
317.132
318.371
319.787
321.268
323.011
324.888
327.146
329.584
332.414
335.362
338.575
341.7
344.82
347.468
349.842
351.431
352.292
352.121
351.308
349.474
346.585
342.737
337.933
332.208
325.624
318.261
310.216
301.59
292.494
283.035
273.322
263.458
253.54
243.66
233.899
224.331
215.021
206.023
197.383
189.138
181.317
173.939
167.018
160.561
154.569
149.039
143.962
139.328
135.125
131.335
127.943
124.932
122.284
119.981
118.007
116.34
114.974
113.878
113.053
112.467
112.112
111.957
112.016
112.216
112.627
113.169
113.831
114.611
115.483
116.431
117.43
118.468
119.525
120.586
121.634
122.653
123.63
124.553
125.407
126.184
126.883
127.48
127.991
128.37
128.685
128.848
128.949
189.674
192.419
195.098
197.683
200.11
202.376
204.472
206.423
208.21
209.866
211.37
212.762
214.019
215.184
216.221
217.177
218.006
218.761
219.393
219.967
220.44
220.875
221.233
221.553
221.803
222.012
222.113
222.089
221.975
221.711
221.169
220.373
219.274
217.822
216.03
213.879
211.354
208.453
205.181
201.556
197.602
193.352
188.844
184.122
179.232
174.222
169.139
164.03
158.938
153.906
148.971
144.167
139.523
135.063
130.81
126.779
122.983
119.431
116.13
113.082
110.289
107.749
105.459
103.415
101.612
100.043
98.7012
97.5819
96.6749
95.9808
95.4789
95.1822
95.0573
95.1084
95.2979
95.6877
96.2001
96.8644
97.6527
98.5492
99.5485
100.635
101.795
103.01
104.268
105.552
106.848
108.14
109.413
110.654
111.849
112.989
114.053
115.054
115.945
116.78
117.447
118.116
118.514
119.084
129.597
131.816
133.992
136.111
138.148
140.095
141.945
143.703
145.363
146.931
148.4
149.78
151.061
152.251
153.334
154.318
155.182
155.934
156.552
157.051
157.409
157.652
157.749
157.719
157.605
157.362
157.006
156.536
155.959
155.284
154.494
153.586
152.556
151.391
150.089
148.643
147.049
145.305
143.409
141.363
139.17
136.84
134.383
131.813
129.149
126.408
123.611
120.779
117.935
115.1
112.294
109.539
106.852
104.249
101.747
99.3573
97.0921
94.9604
92.9697
91.1259
89.4332
87.8948
86.5122
85.2865
84.2174
83.3046
82.5465
81.9428
81.4904
81.1933
81.0359
81.0398
81.1462
81.4094
81.8045
82.3403
82.9907
83.7632
84.648
85.6338
86.7145
87.88
89.1203
90.4222
91.7735
93.1617
94.5727
95.9939
97.4097
98.81
100.176
101.506
102.768
103.986
105.094
106.176
107.068
108.027
108.608
109.582
92.7895
94.5245
96.2349
97.9143
99.5506
101.138
102.671
104.149
105.57
106.932
108.234
109.475
110.651
111.761
112.798
113.759
114.634
115.419
116.103
116.687
117.157
117.52
117.762
117.895
117.883
117.803
117.61
117.294
116.88
116.367
115.762
115.065
114.282
113.413
112.46
111.427
110.314
109.124
107.858
106.519
105.11
103.635
102.1
100.511
98.8751
97.2009
95.498
93.7766
92.0477
90.3223
88.6117
86.927
85.2791
83.678
82.1336
80.6545
79.2488
77.9236
76.685
75.5384
74.4881
73.5381
72.6908
71.9491
71.3145
70.7884
70.3719
70.0667
69.8744
69.7975
69.8243
69.947
70.1963
70.5542
71.018
71.5943
72.2728
73.0546
73.9364
74.9119
75.9765
77.1238
78.3469
79.6365
80.9829
82.3764
83.8048
85.2577
86.7205
88.185
89.6312
91.0601
92.436
93.7886
95.0385
96.2925
97.3423
98.5219
99.2366
100.537
69.4632
70.8066
72.1376
73.4524
74.7449
76.0111
77.2475
78.4526
79.6238
80.76
81.8588
82.9192
83.938
84.9134
85.8403
86.7155
87.5322
88.2869
88.9714
89.5835
90.1144
90.565
90.9248
91.2016
91.3772
91.4685
91.4536
91.381
91.2125
90.9488
90.61
90.1903
89.6989
89.1372
88.5092
87.8191
87.0704
86.2668
85.412
84.5099
83.5641
82.5787
81.5578
80.5061
79.4286
78.3306
77.2177
76.0961
74.9722
73.8525
72.7438
71.6527
70.5859
69.55
68.5511
67.5951
66.6874
65.8333
65.0373
64.3035
63.6356
63.0371
62.5101
62.058
61.6823
61.385
61.1685
61.0354
60.9901
61.0205
61.1262
61.3301
61.6217
62.0016
62.4683
63.0261
63.6719
64.4062
65.2282
66.1352
67.1247
68.193
69.3359
70.5475
71.8207
73.1485
74.5212
75.9308
77.3642
78.8155
80.2646
81.7155
83.1295
84.5418
85.8626
87.2165
88.3617
89.6913
90.4943
92.037
54.1707
55.2129
56.2496
57.2786
58.2967
59.3011
60.2895
61.2602
62.2114
63.1419
64.0498
64.9338
65.7917
66.6216
67.4202
68.1847
68.9108
69.595
70.2324
70.8199
71.3518
71.8269
72.2382
72.5881
72.8673
73.0827
73.2206
73.2999
73.2926
73.2433
73.1236
72.9282
72.6789
72.3678
72.0018
71.5845
71.1181
70.6066
70.0539
69.4634
68.8387
68.1836
67.5021
66.7981
66.0757
65.3389
64.5922
63.8398
63.0864
62.3365
61.5947
60.8658
60.1541
59.4642
58.8005
58.167
57.5677
57.0064
56.4863
56.0106
55.5826
55.2045
54.8782
54.6074
54.3925
54.2361
54.1415
54.1121
54.1389
54.2242
54.3834
54.6106
54.9071
55.2747
55.7132
56.2258
56.8123
57.4738
58.2108
59.0228
59.9092
60.8683
61.898
62.9952
64.1552
65.3735
66.6429
67.958
69.3075
70.6882
72.0807
73.4917
74.8817
76.2899
77.6203
79.0095
80.1936
81.6053
82.4574
84.1572
43.8218
44.6358
45.4483
46.2579
47.0626
47.8608
48.6507
49.4311
50.2007
50.9581
51.7022
52.4317
53.1451
53.8406
54.5162
55.1696
55.7979
56.3986
56.9682
57.5042
58.0027
58.4618
58.8772
59.2487
59.5711
59.8466
60.0677
60.2424
60.3572
60.4311
60.438
60.411
60.3389
60.2053
60.0317
59.8153
59.5568
59.2612
58.931
58.5684
58.1767
57.7594
57.3198
56.861
56.3864
55.8995
55.4038
54.9027
54.3999
53.899
53.4033
52.9164
52.4418
51.9828
51.5427
51.1246
50.7312
50.3657
50.0304
49.7279
49.4609
49.2305
49.0388
48.8894
48.781
48.7182
48.7044
48.7305
48.8037
48.9309
49.1097
49.3416
49.6282
49.9714
50.3721
50.8325
51.354
51.9378
52.5853
53.2973
54.0742
54.9161
55.8222
56.7913
57.8211
58.9091
60.0503
61.2418
62.4743
63.747
65.0421
66.3689
67.6883
69.0426
70.3331
71.7035
72.8788
74.3115
75.1809
76.9547
36.6194
37.2601
37.9017
38.543
39.1829
39.8203
40.4539
41.0828
41.706
42.3226
42.9315
43.5317
44.1222
44.7015
45.2683
45.8209
46.3573
46.8756
47.3735
47.8488
48.2991
48.7225
49.1162
49.4791
49.8081
50.1033
50.3607
50.583
50.7641
50.9105
51.0138
51.0816
51.1117
51.1018
51.0658
50.9885
50.8759
50.7354
50.5656
50.3676
50.1452
49.9014
49.6382
49.358
49.0637
48.7582
48.4441
48.1245
47.8022
47.48
47.1608
46.8473
46.5421
46.2482
45.9679
45.7036
45.4576
45.2323
45.0293
44.8513
44.7001
44.5757
44.4811
44.4193
44.3873
44.393
44.4264
44.4999
44.6103
44.7596
44.949
45.1799
45.4536
45.7721
46.1364
46.5485
47.0101
47.5226
48.0878
48.707
49.3814
50.1118
50.8987
51.7423
52.6415
53.5957
54.6017
55.6584
56.759
57.9043
59.079
60.2939
61.512
62.7772
63.9919
65.3016
66.4308
67.8336
68.6934
70.4699
31.4871
31.995
32.505
33.0163
33.5282
34.0398
34.5504
35.0592
35.5655
36.0684
36.5674
37.0615
37.5499
38.0317
38.5059
38.9711
39.4261
39.8694
40.2993
40.7145
41.113
41.4933
41.8536
42.1927
42.5085
42.8004
43.0662
43.3062
43.5178
43.7025
43.8577
43.9845
44.0837
44.1526
44.1981
44.2117
44.202
44.1721
44.114
44.0323
43.9324
43.8149
43.6804
43.5312
43.37
43.1986
43.0193
42.8347
42.6468
42.458
42.2705
42.0866
41.9083
41.7382
41.5778
41.4292
41.2941
41.1749
41.072
40.989
40.9259
40.8819
40.8625
40.8684
40.8932
40.9483
41.0288
41.1373
41.2744
41.4413
41.6392
41.8693
42.1328
42.4312
42.7658
43.1382
43.55
44.0027
44.4981
45.0377
45.623
46.2554
46.936
47.6656
48.4443
49.2725
50.1486
51.073
52.0404
53.0536
54.0991
55.1894
56.2899
57.4451
58.5611
59.7813
60.8379
62.1724
62.9993
64.7237
27.7603
28.165
28.5724
28.982
29.3934
29.806
30.219
30.6321
31.0447
31.4561
31.8658
32.2732
32.6776
33.0785
33.4749
33.866
34.2508
34.6284
34.9975
35.357
35.7056
36.0423
36.3656
36.6745
36.9677
37.2443
37.503
37.7433
37.964
38.1649
38.3453
38.5046
38.6436
38.7607
38.8586
38.935
38.9916
39.0308
39.0521
39.0513
39.0406
39.0144
38.9728
38.9198
38.8569
38.7853
38.7071
38.6244
38.5383
38.451
38.3641
38.2796
38.1991
38.1248
38.0572
37.9985
37.9503
37.9142
37.8904
37.8832
37.8896
37.9096
37.9502
38.0098
38.0858
38.1828
38.3001
38.4388
38.5994
38.783
38.9903
39.2224
39.4804
39.7652
40.0783
40.4207
40.7941
41.1999
41.6396
42.1147
42.6269
43.1776
43.7682
44.4
45.0737
45.7904
46.5494
47.3521
48.1948
49.0812
49.9999
50.9644
51.9428
52.9795
53.9855
55.0995
56.0673
57.3077
58.0842
59.7166
25.0161
25.3392
25.6655
25.9946
26.326
26.6595
26.9946
27.3308
27.6677
28.0049
28.3419
28.6784
29.0138
29.3475
29.6791
30.0079
30.3331
30.6541
30.97
31.28
31.5832
31.8787
32.1655
32.4429
32.7099
32.9657
33.2095
33.4406
33.6582
33.8621
34.0515
34.2261
34.3861
34.5306
34.6606
34.7756
34.8759
34.9623
35.036
35.095
35.1432
35.1807
35.2076
35.2252
35.2352
35.2378
35.236
35.2309
35.2225
35.2132
35.2043
35.1971
35.1934
35.1946
35.2003
35.2132
35.2349
35.2658
35.3065
35.3591
35.4237
35.4995
35.5894
35.6943
35.813
35.9471
36.0971
36.2633
36.4465
36.6471
36.8658
37.1034
37.3608
37.6387
37.9382
38.2604
38.6063
38.9774
39.375
39.8004
40.2552
40.7408
41.2585
41.81
42.3961
43.0184
43.6767
44.3731
45.1048
45.8764
46.678
47.5236
48.3843
49.3032
50.1976
51.1991
52.0711
53.2031
53.9183
55.4326
22.9769
23.2347
23.4959
23.7602
24.0274
24.2971
24.5691
24.8429
25.1183
25.395
25.6725
25.9507
26.229
26.5071
26.7847
27.0611
27.336
27.6088
27.8789
28.1457
28.4085
28.6668
28.9198
29.1668
29.4073
29.6407
29.8662
30.0834
30.2917
30.4907
30.68
30.8593
31.0284
31.1871
31.3355
31.4735
31.6013
31.7191
31.8277
31.9267
32.0173
32.1002
32.1759
32.2451
32.3089
32.3679
32.4234
32.4767
32.5284
32.5797
32.6318
32.6857
32.7426
32.8037
32.8693
32.9407
33.019
33.1051
33.1992
33.3024
33.4155
33.5381
33.6713
33.816
33.9719
34.1397
34.3197
34.5122
34.7175
34.9361
35.1684
35.415
35.6764
35.9534
36.2466
36.5569
36.8853
37.2327
37.6003
37.9893
38.401
38.8368
39.2979
39.7859
40.3017
40.847
41.422
42.0292
42.6662
43.3382
44.0366
44.7755
45.5284
46.3372
47.1252
48.0163
48.7923
49.8115
50.4603
51.8428
21.4552
21.6602
21.8686
22.0804
22.2953
22.5131
22.7336
22.9564
23.1815
23.4084
23.637
23.8669
24.098
24.33
24.5624
24.7951
25.0275
25.2595
25.4904
25.7199
25.9476
26.173
26.3955
26.6148
26.8303
27.0416
27.2482
27.4497
27.6458
27.8361
28.0202
28.198
28.3693
28.5339
28.6917
28.8429
28.9874
29.1254
29.2573
29.3832
29.5036
29.619
29.7299
29.8369
29.9407
30.0418
30.1411
30.2395
30.3377
30.4366
30.5369
30.6395
30.7452
30.8549
30.9692
31.0887
31.2143
31.3465
31.4856
31.6323
31.7871
31.95
32.1215
32.302
32.4916
32.6904
32.8988
33.1167
33.3443
33.582
33.83
34.0886
34.3583
34.6395
34.9326
35.2383
35.5573
35.8905
36.2387
36.6029
36.9841
37.3837
37.8026
38.2423
38.7038
39.1886
39.6971
40.2319
40.791
41.3798
41.9906
42.6374
43.296
44.0063
44.6978
45.486
46.1716
47.0811
47.663
48.9107
20.3208
20.4827
20.6482
20.8171
20.9893
21.1646
21.3429
21.5239
21.7074
21.8934
22.0815
22.2716
22.4636
22.6571
22.852
23.048
23.2449
23.4424
23.6402
23.838
24.0355
24.2323
24.4282
24.6227
24.8156
25.0064
25.195
25.381
25.5641
25.7441
25.9208
26.0939
26.2634
26.4291
26.591
26.7492
26.9036
27.0544
27.2018
27.346
27.4874
27.6262
27.7629
27.8979
28.0317
28.1649
28.298
28.4317
28.5665
28.703
28.842
28.984
29.1297
29.2796
29.4342
29.5941
29.7596
29.9312
30.1091
30.2936
30.4852
30.6838
30.8897
31.103
31.3237
31.5518
31.7875
32.0304
32.2806
32.5385
32.8042
33.0777
33.3592
33.6489
33.9472
34.2545
34.5713
34.8982
35.2358
35.585
35.9466
36.3216
36.7109
37.1157
37.5369
37.9761
38.4335
38.9116
39.4088
39.9305
40.4696
41.0397
41.6185
42.2442
42.8516
43.5482
44.1521
44.9603
45.4789
46.5967
19.4807
19.6077
19.7382
19.8722
20.0095
20.1501
20.2938
20.4404
20.59
20.7422
20.8971
21.0544
21.214
21.3758
21.5396
21.7052
21.8725
22.0413
22.2113
22.3824
22.5544
22.7269
22.8999
23.0731
23.2462
23.419
23.5913
23.763
23.9337
24.1035
24.272
24.4393
24.6052
24.7697
24.9327
25.0944
25.2546
25.4137
25.5716
25.7287
25.8852
26.0412
26.1973
26.3537
26.5108
26.669
26.8288
26.9905
27.1548
27.322
27.4927
27.6674
27.8464
28.0302
28.2191
28.4135
28.6137
28.8197
29.0316
29.2498
29.4745
29.7057
29.9432
30.1871
30.4373
30.6936
30.9559
31.2236
31.497
31.7765
32.0617
32.3526
32.649
32.9512
33.2592
33.5733
33.8939
34.2212
34.5558
34.8984
35.2494
35.6098
35.9802
36.3617
36.755
37.1615
37.5813
38.017
38.467
38.9365
39.4187
39.9274
40.4411
40.9966
41.5332
42.1514
42.6844
43.403
43.8642
44.8631
18.8675
18.9663
19.0687
19.1745
19.2837
19.3961
19.5118
19.6307
19.7526
19.8775
20.0053
20.1359
20.2692
20.4051
20.5435
20.6843
20.8273
20.9725
21.1198
21.2689
21.4198
21.5723
21.7262
21.8815
22.038
22.1955
22.354
22.5132
22.6732
22.8338
22.9949
23.1564
23.3185
23.481
23.6439
23.8074
23.9715
24.1363
24.302
24.4687
24.6368
24.8063
24.9776
25.151
25.3269
25.5055
25.687
25.872
26.0609
26.254
26.4517
26.6542
26.862
27.0753
27.2943
27.5192
27.7502
27.987
28.2296
28.4787
28.7342
28.9957
29.2632
29.5364
29.8151
30.0991
30.3879
30.6821
30.9813
31.2852
31.593
31.9047
32.22
32.5389
32.8614
33.1876
33.5176
33.8517
34.1901
34.5332
34.8816
35.2358
35.5964
35.9643
36.3398
36.7245
37.1182
37.5235
37.9384
38.3686
38.807
39.2674
39.7291
40.2279
40.7061
41.2586
41.7314
42.3728
42.7835
43.6776
18.431
18.5079
18.5882
18.6719
18.7589
18.8492
18.9429
19.0398
19.1399
19.2432
19.3495
19.459
19.5714
19.6868
19.8051
19.9262
20.05
20.1765
20.3057
20.4374
20.5715
20.7081
20.8469
20.988
21.1313
21.2766
21.424
21.5734
21.7247
21.878
22.0331
22.1902
22.3491
22.5101
22.6731
22.8382
23.0055
23.1752
23.3474
23.5224
23.7002
23.8812
24.0656
24.2536
24.4456
24.6417
24.842
25.0473
25.2578
25.4738
25.6954
25.923
26.1567
26.3966
26.643
26.8959
27.1552
27.4213
27.6945
27.9747
28.2612
28.5537
28.8519
29.1554
29.4639
29.7771
30.0945
30.4162
30.7408
31.0677
31.3972
31.7293
32.0638
32.4005
32.7392
33.0799
33.4225
33.7673
34.1142
34.4636
34.8157
35.171
35.5298
35.8928
36.2604
36.6337
37.0125
37.3993
37.7919
38.196
38.6045
39.0312
39.4553
39.9125
40.347
40.8496
41.2759
41.8551
42.2236
43.0288
18.1349
18.1955
18.2594
18.3265
18.397
18.4709
18.548
18.6285
18.7123
18.7993
18.8896
18.9832
19.0801
19.1801
19.2833
19.3897
19.4992
19.6118
19.7276
19.8463
19.9681
20.0929
20.2207
20.3514
20.4851
20.6217
20.7612
20.9037
21.0491
21.1975
21.3489
21.5034
21.661
21.8219
21.9861
22.1537
22.3249
22.4999
22.6787
22.8617
23.0491
23.241
23.4377
23.6394
23.8465
24.0593
24.2781
24.5034
24.7353
24.9739
25.2193
25.4717
25.7312
25.998
26.272
26.5532
26.8416
27.1372
27.4397
27.7476
28.0614
28.3811
28.7064
29.037
29.3725
29.7124
30.0562
30.4036
30.7543
31.1076
31.463
31.82
32.1783
32.5376
32.8976
33.2581
33.6189
33.9801
34.3416
34.7034
35.0658
35.4289
35.793
36.1588
36.5261
36.8964
37.2689
37.6462
38.0259
38.4139
38.8024
39.2059
39.603
40.0299
40.431
40.8955
41.2847
41.8166
42.1525
42.8894
17.9535
18.0033
18.0563
18.1125
18.172
18.2348
18.3009
18.3704
18.4432
18.5195
18.5991
18.6821
18.7686
18.8584
18.9517
19.0484
19.1486
19.2522
19.3593
19.4698
19.5838
19.7013
19.8223
19.9469
20.0751
20.2069
20.3424
20.4816
20.6246
20.7714
20.9223
21.0772
21.2363
21.3997
21.5676
21.7401
21.9175
22.0998
22.2873
22.4803
22.6789
22.8834
23.094
23.311
23.5347
23.7652
24.0031
24.2477
24.4993
24.7585
25.0254
25.3001
25.5828
25.8734
26.1721
26.4787
26.793
27.115
27.4446
27.7815
28.1251
28.4751
28.8309
29.1922
29.5584
29.929
30.3034
30.681
31.0614
31.444
31.8282
32.2133
32.5989
32.9846
33.37
33.7546
34.1383
34.5208
34.902
35.2818
35.6602
36.0375
36.4134
36.7888
37.1632
37.5381
37.9123
38.2889
38.6644
39.0457
39.4238
39.8144
40.1948
40.6024
40.9807
41.4191
41.7813
42.2782
42.5887
43.2724