/*--------------------------------*- C++ -*----------------------------------*\
  =========                 |
  \\      /  F ield         | OpenFOAM: The Open Source CFD Toolbox
   \\    /   O peration     | Website:  https://openfoam.org
    \\  /    A nd           | Version:  10
     \\/     M anipulation  |
\*---------------------------------------------------------------------------*/
FoamFile
{
    format      ascii;
    class       volScalarField;
    location    "1000";
    object      p;
}
// * * * * * * * * * * * * * * * * * * * * * * * * * * * * * * * * * * * * * //

dimensions      [0 2 -2 0 0 0 0];

internalField   nonuniform List<scalar> 
6820
(
6.39565
-4.49417
-8.01339
-8.74698
-9.14831
-9.48687
-9.67937
-9.77587
-9.84133
-9.89583
-9.9401
-9.97588
-10.0065
-10.0339
-10.0589
-10.0819
-10.1033
-10.1235
-10.1427
-10.1611
-10.1787
-10.1957
-10.212
-10.2279
-10.2432
-10.2579
-10.2719
-10.285
-10.2971
-10.3077
-10.3153
-10.322
-10.3093
-15.4923
-11.8144
-11.0695
-10.3003
-9.9355
-9.86913
-9.86741
-9.87128
-9.8894
-9.91862
-9.94943
-9.97813
-10.005
-10.0305
-10.0545
-10.077
-10.0983
-10.1185
-10.1378
-10.1562
-10.174
-10.1911
-10.2077
-10.2237
-10.2392
-10.2542
-10.2685
-10.2821
-10.2948
-10.3067
-10.3166
-10.327
-10.3313
-13.3437
-9.76961
-9.51432
-9.51623
-9.51001
-9.60846
-9.70916
-9.77694
-9.83147
-9.88138
-9.92471
-9.96136
-9.9933
-10.022
-10.0481
-10.072
-10.0943
-10.1151
-10.1349
-10.1537
-10.1718
-10.1891
-10.2059
-10.2221
-10.2378
-10.2529
-10.2675
-10.2815
-10.2948
-10.3075
-10.3192
-10.3318
-10.342
-10.8546
-9.39549
-9.54618
-9.66231
-9.64696
-9.7023
-9.7729
-9.82163
-9.86169
-9.90066
-9.93649
-9.96822
-9.99688
-10.0233
-10.0479
-10.0708
-10.0924
-10.1128
-10.1323
-10.151
-10.1689
-10.1863
-10.203
-10.2193
-10.2351
-10.2505
-10.2654
-10.2798
-10.2938
-10.3075
-10.3209
-10.3352
-10.3492
-10.3952
-9.69781
-9.73829
-9.75452
-9.71029
-9.73797
-9.79033
-9.83143
-9.86762
-9.90377
-9.93783
-9.96862
-9.99674
-10.0228
-10.0471
-10.0699
-10.0913
-10.1117
-10.1311
-10.1497
-10.1677
-10.185
-10.2018
-10.2182
-10.2341
-10.2496
-10.2647
-10.2796
-10.2942
-10.3087
-10.3234
-10.339
-10.3554
-10.3298
-9.85466
-9.80856
-9.7866
-9.74782
-9.76637
-9.8081
-9.84462
-9.87816
-9.91168
-9.94356
-9.97282
-9.99981
-10.025
-10.0486
-10.0708
-10.0918
-10.1118
-10.131
-10.1494
-10.1672
-10.1845
-10.2012
-10.2175
-10.2335
-10.2491
-10.2645
-10.2797
-10.2948
-10.3101
-10.3257
-10.3424
-10.3603
-10.2145
-9.88844
-9.83633
-9.81359
-9.7847
-9.79735
-9.82982
-9.86115
-9.89125
-9.92163
-9.95098
-9.97841
-10.0041
-10.0282
-10.051
-10.0726
-10.0931
-10.1127
-10.1316
-10.1498
-10.1674
-10.1845
-10.2012
-10.2175
-10.2335
-10.2492
-10.2648
-10.2803
-10.2958
-10.3116
-10.328
-10.3453
-10.3641
-10.1084
-9.9033
-9.86084
-9.84065
-9.81836
-9.82667
-9.85168
-9.87818
-9.90491
-9.93232
-9.95924
-9.98486
-10.0091
-10.0322
-10.0542
-10.0751
-10.0951
-10.1143
-10.1328
-10.1507
-10.1681
-10.1851
-10.2017
-10.2179
-10.2339
-10.2497
-10.2654
-10.2811
-10.297
-10.3132
-10.33
-10.3478
-10.3669
-10.0394
-9.91651
-9.88098
-9.86297
-9.84617
-9.85216
-9.8719
-9.89453
-9.91835
-9.94316
-9.96789
-9.99181
-10.0148
-10.0368
-10.0579
-10.0781
-10.0975
-10.1163
-10.1345
-10.1521
-10.1693
-10.186
-10.2025
-10.2187
-10.2346
-10.2505
-10.2663
-10.2821
-10.2982
-10.3146
-10.3317
-10.3496
-10.3687
-9.99701
-9.92512
-9.8957
-9.88058
-9.86875
-9.87383
-9.89002
-9.90969
-9.9311
-9.95368
-9.97648
-9.99884
-10.0205
-10.0415
-10.0618
-10.0813
-10.1002
-10.1186
-10.1363
-10.1537
-10.1706
-10.1872
-10.2035
-10.2196
-10.2355
-10.2513
-10.2672
-10.2831
-10.2992
-10.3158
-10.3329
-10.3508
-10.3697
-9.97117
-9.93013
-9.90698
-9.895
-9.88726
-9.89212
-9.90593
-9.92336
-9.94279
-9.9635
-9.98463
-10.0056
-10.0262
-10.0462
-10.0657
-10.0846
-10.103
-10.1208
-10.1383
-10.1553
-10.172
-10.1884
-10.2045
-10.2205
-10.2363
-10.2521
-10.2679
-10.2839
-10.3
-10.3166
-10.3336
-10.3513
-10.3698
-9.95633
-9.93369
-9.91636
-9.90728
-9.90268
-9.9076
-9.91979
-9.9355
-9.9533
-9.97243
-9.99214
-10.0119
-10.0314
-10.0506
-10.0694
-10.0877
-10.1056
-10.123
-10.1401
-10.1568
-10.1733
-10.1894
-10.2054
-10.2213
-10.237
-10.2527
-10.2684
-10.2843
-10.3004
-10.3168
-10.3336
-10.351
-10.369
-9.94896
-9.93701
-9.92459
-9.91803
-9.91579
-9.92087
-9.93188
-9.94623
-9.96267
-9.98045
-9.99892
-10.0176
-10.0362
-10.0546
-10.0727
-10.0904
-10.1078
-10.1249
-10.1416
-10.1581
-10.1743
-10.1902
-10.206
-10.2217
-10.2373
-10.2529
-10.2686
-10.2843
-10.3002
-10.3164
-10.333
-10.3499
-10.3673
-9.94654
-9.94059
-9.93208
-9.92767
-9.92718
-9.93241
-9.94254
-9.95575
-9.97101
-9.98761
-10.005
-10.0227
-10.0404
-10.0581
-10.0756
-10.0928
-10.1097
-10.1264
-10.1428
-10.159
-10.1749
-10.1907
-10.2063
-10.2218
-10.2372
-10.2527
-10.2681
-10.2837
-10.2994
-10.3153
-10.3315
-10.348
-10.3647
-9.94733
-9.94461
-9.9391
-9.93647
-9.93727
-9.94261
-9.95203
-9.96427
-9.97847
-9.99401
-10.0104
-10.0272
-10.0441
-10.0611
-10.078
-10.0947
-10.1112
-10.1275
-10.1436
-10.1594
-10.1751
-10.1907
-10.2061
-10.2214
-10.2366
-10.2519
-10.2671
-10.2824
-10.2979
-10.3135
-10.3292
-10.3452
-10.3613
-9.95013
-9.94908
-9.94579
-9.94459
-9.94633
-9.95174
-9.96056
-9.97194
-9.98518
-9.99975
-10.0152
-10.0311
-10.0473
-10.0637
-10.08
-10.0962
-10.1122
-10.1281
-10.1439
-10.1595
-10.1749
-10.1902
-10.2054
-10.2204
-10.2355
-10.2505
-10.2655
-10.2805
-10.2956
-10.3108
-10.3261
-10.3415
-10.357
-9.95419
-9.95394
-9.95223
-9.95214
-9.95456
-9.95998
-9.96829
-9.9789
-9.99126
-10.0049
-10.0195
-10.0346
-10.0501
-10.0658
-10.0815
-10.0972
-10.1128
-10.1284
-10.1438
-10.159
-10.1742
-10.1892
-10.2041
-10.219
-10.2337
-10.2485
-10.2632
-10.2779
-10.2926
-10.3074
-10.3222
-10.337
-10.3519
-9.95897
-9.95909
-9.95847
-9.95921
-9.96207
-9.96746
-9.9753
-9.98521
-9.99677
-10.0096
-10.0233
-10.0377
-10.0525
-10.0675
-10.0826
-10.0979
-10.113
-10.1282
-10.1432
-10.1582
-10.173
-10.1877
-10.2024
-10.2169
-10.2314
-10.2459
-10.2602
-10.2746
-10.2889
-10.3032
-10.3175
-10.3318
-10.346
-9.96415
-9.9644
-9.96452
-9.96583
-9.96897
-9.97426
-9.98167
-9.99094
-10.0017
-10.0138
-10.0267
-10.0403
-10.0544
-10.0688
-10.0834
-10.0981
-10.1129
-10.1276
-10.1423
-10.1569
-10.1714
-10.1858
-10.2002
-10.2144
-10.2286
-10.2427
-10.2567
-10.2707
-10.2846
-10.2984
-10.3122
-10.3258
-10.3394
-9.96949
-9.96978
-9.97035
-9.97203
-9.97531
-9.98044
-9.98742
-9.99609
-10.0062
-10.0175
-10.0297
-10.0426
-10.056
-10.0698
-10.0839
-10.0981
-10.1124
-10.1267
-10.141
-10.1552
-10.1694
-10.1835
-10.1975
-10.2114
-10.2253
-10.239
-10.2526
-10.2662
-10.2796
-10.293
-10.3062
-10.3193
-10.3322
-9.97487
-9.97514
-9.97598
-9.97785
-9.98113
-9.98604
-9.99259
-10.0007
-10.0101
-10.0207
-10.0322
-10.0445
-10.0573
-10.0705
-10.084
-10.0977
-10.1115
-10.1254
-10.1393
-10.1532
-10.167
-10.1808
-10.1944
-10.208
-10.2215
-10.2348
-10.2481
-10.2612
-10.2742
-10.287
-10.2997
-10.3122
-10.3245
-9.98019
-9.98043
-9.98138
-9.98329
-9.98646
-9.99108
-9.99719
-10.0047
-10.0135
-10.0235
-10.0343
-10.0459
-10.0581
-10.0708
-10.0838
-10.097
-10.1104
-10.1238
-10.1374
-10.1508
-10.1643
-10.1777
-10.191
-10.2042
-10.2173
-10.2303
-10.2431
-10.2557
-10.2683
-10.2806
-10.2927
-10.3047
-10.3164
-9.98539
-9.98561
-9.98655
-9.98837
-9.99132
-9.99558
-10.0012
-10.0082
-10.0164
-10.0257
-10.0359
-10.0469
-10.0586
-10.0707
-10.0832
-10.0959
-10.1089
-10.1219
-10.135
-10.1482
-10.1612
-10.1743
-10.1872
-10.2
-10.2127
-10.2253
-10.2377
-10.2499
-10.2619
-10.2738
-10.2854
-10.2968
-10.3079
-9.99047
-9.99067
-9.99149
-9.99309
-9.99571
-9.99953
-10.0046
-10.0111
-10.0187
-10.0273
-10.037
-10.0474
-10.0585
-10.0701
-10.0821
-10.0945
-10.107
-10.1197
-10.1324
-10.1451
-10.1579
-10.1705
-10.1831
-10.1956
-10.2079
-10.22
-10.232
-10.2438
-10.2553
-10.2666
-10.2777
-10.2886
-10.2991
-9.99544
-9.99561
-9.99622
-9.99747
-9.99963
-10.0029
-10.0075
-10.0133
-10.0203
-10.0284
-10.0375
-10.0474
-10.058
-10.0691
-10.0807
-10.0926
-10.1047
-10.117
-10.1294
-10.1418
-10.1542
-10.1665
-10.1787
-10.1908
-10.2027
-10.2144
-10.226
-10.2373
-10.2484
-10.2592
-10.2698
-10.2801
-10.2901
-10.0003
-10.0005
-10.0008
-10.0015
-10.0031
-10.0058
-10.0097
-10.0148
-10.0212
-10.0288
-10.0373
-10.0467
-10.0568
-10.0675
-10.0787
-10.0902
-10.102
-10.114
-10.126
-10.1381
-10.1501
-10.1621
-10.1739
-10.1857
-10.1972
-10.2086
-10.2197
-10.2306
-10.2412
-10.2516
-10.2617
-10.2715
-10.2809
-10.0053
-10.0054
-10.0052
-10.0053
-10.0061
-10.008
-10.0111
-10.0156
-10.0214
-10.0284
-10.0364
-10.0453
-10.0551
-10.0654
-10.0762
-10.0874
-10.0989
-10.1105
-10.1222
-10.134
-10.1457
-10.1574
-10.1689
-10.1803
-10.1914
-10.2024
-10.2132
-10.2236
-10.2338
-10.2438
-10.2534
-10.2627
-10.2716
-10.0104
-10.0105
-10.0097
-10.0087
-10.0085
-10.0095
-10.0118
-10.0156
-10.0207
-10.0271
-10.0347
-10.0432
-10.0526
-10.0626
-10.0731
-10.084
-10.0952
-10.1065
-10.118
-10.1295
-10.1409
-10.1523
-10.1635
-10.1746
-10.1854
-10.196
-10.2064
-10.2165
-10.2263
-10.2357
-10.2449
-10.2537
-10.2622
-10.0159
-10.016
-10.0142
-10.0119
-10.0105
-10.0103
-10.0116
-10.0145
-10.019
-10.0249
-10.032
-10.0402
-10.0493
-10.059
-10.0693
-10.08
-10.0909
-10.1021
-10.1133
-10.1245
-10.1357
-10.1468
-10.1578
-10.1685
-10.179
-10.1893
-10.1993
-10.209
-10.2184
-10.2275
-10.2362
-10.2446
-10.2526
-10.0224
-10.0223
-10.0191
-10.0149
-10.0117
-10.0101
-10.0103
-10.0123
-10.0162
-10.0216
-10.0283
-10.0362
-10.045
-10.0545
-10.0646
-10.0752
-10.086
-10.0969
-10.108
-10.119
-10.13
-10.1409
-10.1516
-10.1621
-10.1723
-10.1823
-10.192
-10.2013
-10.2104
-10.2191
-10.2274
-10.2354
-10.243
-10.0304
-10.0301
-10.0245
-10.0175
-10.0121
-10.0088
-10.0076
-10.0087
-10.0119
-10.0168
-10.0233
-10.031
-10.0396
-10.0491
-10.0591
-10.0695
-10.0802
-10.091
-10.1019
-10.1128
-10.1237
-10.1343
-10.1448
-10.1551
-10.1651
-10.1748
-10.1842
-10.1933
-10.202
-10.2103
-10.2183
-10.2259
-10.2332
-10.0414
-10.0403
-10.0308
-10.0198
-10.0114
-10.0059
-10.0032
-10.0033
-10.0059
-10.0105
-10.0167
-10.0243
-10.0329
-10.0423
-10.0523
-10.0627
-10.0733
-10.0841
-10.095
-10.1058
-10.1165
-10.127
-10.1374
-10.1475
-10.1573
-10.1668
-10.1759
-10.1847
-10.1932
-10.2012
-10.2089
-10.2162
-10.2231
-10.0579
-10.0542
-10.0379
-10.0212
-10.0091
-10.0009
-9.99649
-9.99564
-9.99767
-10.002
-10.0081
-10.0157
-10.0243
-10.0338
-10.0439
-10.0544
-10.0651
-10.0759
-10.0868
-10.0976
-10.1083
-10.1188
-10.129
-10.139
-10.1487
-10.158
-10.167
-10.1756
-10.1839
-10.1917
-10.1992
-10.2062
-10.2129
-10.086
-10.0749
-10.0453
-10.0202
-10.0035
-9.99235
-9.98627
-9.98466
-9.98637
-9.9906
-9.99681
-10.0045
-10.0134
-10.0231
-10.0333
-10.044
-10.0548
-10.0658
-10.0768
-10.0877
-10.0984
-10.109
-10.1192
-10.1292
-10.1388
-10.1481
-10.1571
-10.1656
-10.1738
-10.1815
-10.1888
-10.1957
-10.2022
-10.1381
-10.1099
-10.0562
-10.0174
-9.99333
-9.97768
-9.96976
-9.96781
-9.96974
-9.97449
-9.98142
-9.98994
-9.99957
-10.01
-10.0209
-10.0321
-10.0435
-10.0549
-10.0662
-10.0773
-10.0883
-10.099
-10.1094
-10.1194
-10.1291
-10.1384
-10.1472
-10.1557
-10.1638
-10.1714
-10.1786
-10.1853
-10.1917
-10.2173
-10.1545
-10.0724
-10.0217
-9.98533
-9.95928
-9.94602
-9.94137
-9.94153
-9.94536
-9.95219
-9.96116
-9.97158
-9.98298
-9.99504
-10.0075
-10.0201
-10.0327
-10.0452
-10.0576
-10.0696
-10.0813
-10.0926
-10.1035
-10.114
-10.124
-10.1335
-10.1426
-10.1511
-10.1592
-10.1668
-10.1739
-10.1805
-10.3616
-10.1284
-10.003
-9.99597
-9.98612
-9.9719
-9.96843
-9.97012
-9.97241
-9.97573
-9.98072
-9.98708
-9.99446
-10.0027
-10.0116
-10.0211
-10.0309
-10.0409
-10.0511
-10.0613
-10.0714
-10.0814
-10.0912
-10.1008
-10.11
-10.1189
-10.1275
-10.1357
-10.1436
-10.151
-10.158
-10.1646
-10.1709
-11.3105
-10.0771
-9.48586
-9.41317
-9.43227
-9.47343
-9.53152
-9.59072
-9.64506
-9.6952
-9.74146
-9.78349
-9.8214
-9.85566
-9.88677
-9.91507
-9.9409
-9.96454
-9.98625
-10.0062
-10.0247
-10.0418
-10.0576
-10.0723
-10.0859
-10.0986
-10.1104
-10.1213
-10.1314
-10.1407
-10.1494
-10.1573
-10.1645
-15.0763
-12.8658
-11.8528
-11.2332
-10.8155
-10.5675
-10.4047
-10.2811
-10.189
-10.1254
-10.0829
-10.0547
-10.0369
-10.0269
-10.0227
-10.0228
-10.0259
-10.0313
-10.0382
-10.0462
-10.0549
-10.0641
-10.0734
-10.0828
-10.0922
-10.1013
-10.1102
-10.1188
-10.1271
-10.135
-10.1425
-10.1496
-10.1563
-1.21645
-5.3033
-7.41508
-8.17826
-8.60959
-8.97021
-9.23827
-9.41735
-9.54387
-9.64221
-9.72045
-9.78233
-9.83202
-9.87313
-9.90798
-9.93797
-9.96414
-9.98728
-10.008
-10.0267
-10.0437
-10.0594
-10.0737
-10.087
-10.0992
-10.1106
-10.1211
-10.1309
-10.1399
-10.1483
-10.156
-10.1631
-10.1696
-10.3072
-10.0542
-10.363
-10.6625
-10.7884
-10.83
-10.8475
-10.8538
-10.856
-10.8632
-10.8822
-10.9145
-10.959
-11.0136
-11.0756
-11.1421
-11.2101
-11.2772
-11.3408
-11.399
-11.4505
-11.4939
-11.5285
-11.5536
-11.569
-11.5744
-11.5699
-11.5555
-11.5313
-11.4973
-11.4536
-11.4002
-11.3372
-11.2642
-11.1814
-11.0884
-10.9851
-10.8715
-10.7471
-10.6119
-10.4657
-10.3082
-10.1393
-9.95902
-9.76715
-9.56376
-9.34902
-9.12315
-8.88642
-8.63925
-8.38224
-8.11605
-7.84146
-7.55937
-7.27084
-6.97696
-6.67895
-6.37811
-6.07576
-5.77329
-5.47206
-5.17344
-4.87878
-4.58932
-4.30626
-4.03067
-3.76352
-3.50563
-3.25772
-3.02033
-2.79388
-2.57866
-2.37483
-2.18243
-2.0014
-1.83158
-1.67271
-1.52444
-1.38641
-1.25813
-1.13914
-1.02893
-0.927012
-0.832846
-0.745918
-0.665746
-0.591843
-0.523765
-0.461054
-0.403359
-0.350183
-0.3014
-0.256145
-0.215129
-0.17581
-0.142262
-0.104834
-0.0817999
-0.0343775
-0.0409746
-10.3559
-10.3391
-10.5373
-10.6946
-10.7386
-10.7412
-10.7433
-10.7478
-10.7563
-10.7741
-10.8047
-10.8474
-10.8998
-10.9599
-11.0253
-11.0935
-11.1623
-11.2295
-11.2928
-11.3507
-11.4019
-11.4451
-11.4795
-11.5045
-11.5199
-11.5253
-11.5208
-11.5066
-11.4826
-11.4488
-11.4053
-11.3521
-11.2892
-11.2164
-11.1338
-11.041
-10.9381
-10.8248
-10.7008
-10.5661
-10.4204
-10.2636
-10.0955
-9.91611
-9.7253
-9.52315
-9.3098
-9.08549
-8.8505
-8.60526
-8.35034
-8.08641
-7.81421
-7.53466
-7.24877
-6.95761
-6.66239
-6.36435
-6.0648
-5.76508
-5.46653
-5.17049
-4.87827
-4.5911
-4.31014
-4.03646
-3.77101
-3.51462
-3.26798
-3.03165
-2.80606
-2.5915
-2.38814
-2.19604
-2.01515
-1.84533
-1.68631
-1.53779
-1.39941
-1.27071
-1.15122
-1.04047
-0.937969
-0.843189
-0.755629
-0.674812
-0.600256
-0.531522
-0.468153
-0.409803
-0.355967
-0.306533
-0.260604
-0.218962
-0.178899
-0.144883
-0.106362
-0.0838501
-0.0332929
-0.0460797
-10.3677
-10.3745
-10.4633
-10.5773
-10.6487
-10.6885
-10.7171
-10.7382
-10.754
-10.7712
-10.7954
-10.8286
-10.871
-10.922
-10.9801
-11.0431
-11.1085
-11.1737
-11.2361
-11.2938
-11.3449
-11.3882
-11.4227
-11.448
-11.4636
-11.4693
-11.4653
-11.4515
-11.4279
-11.3945
-11.3514
-11.2986
-11.2361
-11.1637
-11.0815
-10.9892
-10.8867
-10.7739
-10.6506
-10.5165
-10.3716
-10.2156
-10.0485
-9.87022
-9.68069
-9.47998
-9.26824
-9.0457
-8.81267
-8.56956
-8.31694
-8.05545
-7.78585
-7.50902
-7.22593
-6.93766
-6.64537
-6.35027
-6.05364
-5.75678
-5.46102
-5.16766
-4.87797
-4.59317
-4.3144
-4.04271
-3.77904
-3.5242
-3.27889
-3.04368
-2.81899
-2.60512
-2.40226
-2.21048
-2.02973
-1.8599
-1.70074
-1.55196
-1.41322
-1.28406
-1.16405
-1.05273
-0.949608
-0.854175
-0.765942
-0.684437
-0.609183
-0.539748
-0.475677
-0.416627
-0.362088
-0.311959
-0.265321
-0.223006
-0.182176
-0.147628
-0.108043
-0.0859108
-0.0324107
-0.050964
-10.373
-10.3947
-10.4648
-10.5685
-10.6436
-10.6827
-10.7059
-10.723
-10.7378
-10.7556
-10.7804
-10.8136
-10.8552
-10.9039
-10.9583
-11.0162
-11.0757
-11.1346
-11.1914
-11.2441
-11.2913
-11.3315
-11.3641
-11.3882
-11.4033
-11.409
-11.4052
-11.3916
-11.3684
-11.3354
-11.2928
-11.2405
-11.1784
-11.1066
-11.025
-10.9333
-10.8314
-10.7193
-10.5967
-10.4634
-10.3194
-10.1645
-9.99857
-9.82158
-9.6335
-9.4344
-9.22445
-9.00386
-8.77296
-8.53215
-8.28199
-8.02311
-7.75626
-7.48228
-7.20214
-6.91689
-6.62764
-6.3356
-6.04201
-5.74813
-5.45526
-5.16468
-4.87763
-4.59529
-4.31881
-4.04919
-3.78738
-3.53418
-3.29028
-3.05625
-2.83252
-2.6194
-2.41709
-2.22566
-2.04509
-1.87527
-1.71597
-1.56693
-1.42781
-1.29819
-1.17764
-1.06572
-0.961943
-0.86582
-0.776878
-0.694643
-0.618649
-0.54847
-0.483652
-0.423858
-0.368572
-0.317703
-0.270319
-0.227282
-0.185658
-0.150521
-0.109879
-0.0880217
-0.0316984
-0.0556706
-10.3797
-10.4104
-10.4691
-10.5493
-10.6121
-10.6495
-10.6756
-10.6982
-10.7191
-10.7414
-10.7682
-10.8013
-10.8407
-10.8859
-10.936
-10.9893
-11.0441
-11.0987
-11.1512
-11.1999
-11.2435
-11.2806
-11.3104
-11.3322
-11.3453
-11.3498
-11.345
-11.3308
-11.3072
-11.2742
-11.2317
-11.1797
-11.118
-11.0466
-10.9654
-10.8743
-10.7731
-10.6616
-10.5398
-10.4075
-10.2645
-10.1107
-9.94602
-9.77044
-9.58393
-9.38657
-9.17852
-8.96001
-8.73135
-8.49296
-8.24537
-7.98922
-7.72521
-7.45421
-7.17713
-6.89499
-6.6089
-6.32003
-6.02957
-5.73879
-5.44892
-5.16123
-4.87692
-4.59717
-4.32307
-4.05564
-3.79579
-3.54433
-3.30194
-3.06918
-2.8465
-2.6342
-2.4325
-2.24148
-2.06112
-1.89134
-1.73193
-1.58265
-1.44315
-1.31306
-1.19197
-1.07943
-0.97497
-0.878131
-0.788445
-0.705442
-0.628668
-0.557703
-0.492096
-0.431513
-0.375437
-0.323784
-0.275614
-0.231808
-0.189361
-0.153574
-0.111886
-0.0901872
-0.03118
-0.060147
-10.3851
-10.4184
-10.4683
-10.5324
-10.5885
-10.6279
-10.6576
-10.683
-10.7061
-10.7296
-10.7564
-10.7881
-10.8252
-10.8674
-10.9137
-10.9628
-11.0133
-11.0634
-11.1116
-11.1564
-11.1963
-11.2303
-11.2575
-11.277
-11.2883
-11.2912
-11.2852
-11.2702
-11.2459
-11.2126
-11.1699
-11.1177
-11.0561
-10.9849
-10.904
-10.8132
-10.7126
-10.6018
-10.4807
-10.3492
-10.2072
-10.0545
-9.89116
-9.71702
-9.53212
-9.33654
-9.13045
-8.91407
-8.68773
-8.45183
-8.20689
-7.95353
-7.69246
-7.42451
-7.15058
-6.87166
-6.58884
-6.30323
-6.01603
-5.72845
-5.44171
-5.15702
-4.87559
-4.59854
-4.32696
-4.06184
-3.80407
-3.55447
-3.31369
-3.08231
-2.86076
-2.64938
-2.44836
-2.25781
-2.07772
-1.90802
-1.74855
-1.59905
-1.45919
-1.32864
-1.207
-1.09383
-0.988673
-0.891094
-0.800634
-0.716833
-0.639244
-0.567454
-0.501017
-0.439605
-0.382697
-0.330216
-0.281218
-0.236597
-0.1933
-0.156802
-0.11408
-0.0924046
-0.0308865
-0.0643246
-10.389
-10.4223
-10.4664
-10.5201
-10.5701
-10.6089
-10.6395
-10.6661
-10.6908
-10.7156
-10.7429
-10.774
-10.8094
-10.8489
-10.8918
-10.9371
-10.9833
-11.0291
-11.0731
-11.1138
-11.1501
-11.1808
-11.205
-11.2221
-11.2314
-11.2326
-11.2252
-11.2091
-11.1841
-11.1501
-11.107
-11.0546
-10.9929
-10.9217
-10.841
-10.7505
-10.6502
-10.54
-10.4196
-10.2889
-10.1478
-9.99627
-9.83414
-9.66142
-9.47813
-9.28434
-9.08023
-8.86602
-8.64202
-8.40865
-8.16642
-7.91592
-7.65786
-7.39304
-7.12234
-6.84674
-6.56727
-6.28505
-6.00121
-5.71695
-5.43345
-5.1519
-4.87346
-4.59925
-4.33031
-4.06762
-3.81207
-3.56443
-3.32539
-3.09549
-2.87519
-2.66481
-2.46455
-2.27453
-2.09478
-1.92523
-1.76573
-1.61605
-1.47586
-1.34487
-1.22268
-1.10888
-1.00302
-0.90469
-0.813434
-0.728807
-0.650373
-0.577724
-0.510422
-0.448139
-0.390362
-0.33701
-0.287144
-0.241662
-0.197488
-0.160216
-0.116472
-0.0946717
-0.0308439
-0.0681501
-10.3915
-10.4238
-10.4636
-10.5098
-10.5544
-10.5915
-10.6225
-10.65
-10.6758
-10.7015
-10.7289
-10.7592
-10.7929
-10.8299
-10.8697
-10.9113
-10.9536
-10.9954
-11.0353
-11.0722
-11.1049
-11.1323
-11.1536
-11.1681
-11.1751
-11.1744
-11.1655
-11.1481
-11.1221
-11.0872
-11.0435
-10.9907
-10.9287
-10.8574
-10.7767
-10.6864
-10.5864
-10.4766
-10.3568
-10.2268
-10.0866
-9.93611
-9.7752
-9.60388
-9.42218
-9.23018
-9.02805
-8.81601
-8.59439
-8.36359
-8.1241
-7.87652
-7.62153
-7.35991
-7.09252
-6.82031
-6.5443
-6.26555
-5.98518
-5.70434
-5.4242
-5.14589
-4.87056
-4.59929
-4.33311
-4.07297
-3.81974
-3.57419
-3.33698
-3.10867
-2.8897
-2.6804
-2.48097
-2.29157
-2.11224
-1.9429
-1.78342
-1.63359
-1.49311
-1.36169
-1.23897
-1.12454
-1.01799
-0.918889
-0.826822
-0.741351
-0.662045
-0.588509
-0.520308
-0.45712
-0.398437
-0.344173
-0.293401
-0.247014
-0.201934
-0.163827
-0.119075
-0.0969868
-0.0310736
-0.0715843
-10.3928
-10.4238
-10.4601
-10.5007
-10.5407
-10.5759
-10.6066
-10.6345
-10.6608
-10.6869
-10.7141
-10.7436
-10.7756
-10.8102
-10.847
-10.8853
-10.9239
-10.9619
-10.998
-11.0312
-11.0603
-11.0845
-11.1029
-11.1148
-11.1196
-11.1169
-11.1063
-11.0874
-11.0602
-11.0244
-10.9799
-10.9265
-10.8641
-10.7925
-10.7117
-10.6215
-10.5217
-10.4122
-10.2928
-10.1635
-10.0241
-9.87461
-9.71487
-9.54492
-9.36478
-9.17455
-8.97439
-8.76453
-8.5453
-8.31708
-8.08036
-7.83573
-7.58385
-7.32548
-7.06146
-6.7927
-6.5202
-6.245
-5.96817
-5.69084
-5.41413
-5.13916
-4.86703
-4.5988
-4.33547
-4.07796
-3.82714
-3.58376
-3.34848
-3.12184
-2.90428
-2.69612
-2.49762
-2.30891
-2.13005
-1.96097
-1.80155
-1.65162
-1.51088
-1.37906
-1.25582
-1.14078
-1.03353
-0.933662
-0.840775
-0.754443
-0.674247
-0.599797
-0.53067
-0.466544
-0.406921
-0.351709
-0.299996
-0.252659
-0.206647
-0.167641
-0.121899
-0.099349
-0.0315933
-0.0745912
-10.393
-10.4225
-10.4559
-10.4922
-10.5285
-10.5617
-10.5917
-10.6194
-10.6457
-10.6718
-10.6986
-10.7271
-10.7575
-10.7899
-10.8239
-10.8589
-10.894
-10.9283
-10.9608
-10.9904
-11.0162
-11.0372
-11.0527
-11.062
-11.0645
-11.0598
-11.0474
-11.0271
-10.9987
-10.9618
-10.9165
-10.8624
-10.7994
-10.7275
-10.6465
-10.5562
-10.4565
-10.3472
-10.2283
-10.0996
-9.96096
-9.81237
-9.65376
-9.48513
-9.30652
-9.11804
-8.91983
-8.71215
-8.49529
-8.26966
-8.03573
-7.79406
-7.54531
-7.29021
-7.02958
-6.76432
-6.49537
-6.22376
-5.95052
-5.67675
-5.40353
-5.13195
-4.86308
-4.59795
-4.33753
-4.08273
-3.8344
-3.59326
-3.35997
-3.13505
-2.91895
-2.71202
-2.51451
-2.32654
-2.1482
-1.97942
-1.82011
-1.6701
-1.52913
-1.39694
-1.2732
-1.15755
-1.04961
-0.948979
-0.855266
-0.768062
-0.686959
-0.611576
-0.541498
-0.476405
-0.415813
-0.359617
-0.306931
-0.258602
-0.211633
-0.171663
-0.12495
-0.101759
-0.0324156
-0.0771407
-10.3923
-10.4203
-10.4511
-10.4841
-10.5172
-10.5484
-10.5774
-10.6045
-10.6306
-10.6563
-10.6825
-10.7098
-10.7386
-10.7687
-10.8001
-10.832
-10.8639
-10.8947
-10.9237
-10.9499
-10.9723
-10.9903
-11.0029
-11.0096
-11.0098
-11.003
-10.9889
-10.9671
-10.9373
-10.8994
-10.8531
-10.7983
-10.7348
-10.6625
-10.5812
-10.4908
-10.3911
-10.2821
-10.1636
-10.0354
-9.89748
-9.7498
-9.59229
-9.42497
-9.24788
-9.06112
-8.86486
-8.65933
-8.44485
-8.2218
-7.99065
-7.75195
-7.50633
-7.25451
-6.9973
-6.73554
-6.47017
-6.20216
-5.93255
-5.66236
-5.39266
-5.12451
-4.85894
-4.59695
-4.33949
-4.08744
-3.84164
-3.60279
-3.37152
-3.14837
-2.93381
-2.72816
-2.53167
-2.34449
-2.16669
-1.99825
-1.83908
-1.68903
-1.54786
-1.41531
-1.29109
-1.17484
-1.06621
-0.964816
-0.870272
-0.782187
-0.700164
-0.623829
-0.552779
-0.486695
-0.425105
-0.367895
-0.314204
-0.264845
-0.216893
-0.175898
-0.128234
-0.104217
-0.0335478
-0.0792105
-10.3907
-10.4172
-10.4458
-10.4761
-10.5065
-10.5358
-10.5635
-10.5898
-10.6153
-10.6404
-10.6657
-10.6918
-10.7189
-10.7469
-10.7757
-10.8047
-10.8334
-10.861
-10.8866
-10.9094
-10.9287
-10.9436
-10.9534
-10.9575
-10.9554
-10.9466
-10.9306
-10.9072
-10.8761
-10.8371
-10.7898
-10.7343
-10.6702
-10.5975
-10.5159
-10.4254
-10.3258
-10.2169
-10.0987
-9.9711
-9.83392
-9.68714
-9.53073
-9.36471
-9.18913
-9.00409
-8.80978
-8.60641
-8.3943
-8.17383
-7.94546
-7.70972
-7.46724
-7.21871
-6.96491
-6.70666
-6.44487
-6.18049
-5.9145
-5.64791
-5.38175
-5.11705
-4.85479
-4.59597
-4.34149
-4.09223
-3.84898
-3.61244
-3.38324
-3.16192
-2.94892
-2.74458
-2.54914
-2.36277
-2.18556
-2.01749
-1.85848
-1.70841
-1.56704
-1.43416
-1.30947
-1.19263
-1.08332
-0.981155
-0.885776
-0.796801
-0.713845
-0.636543
-0.564501
-0.497403
-0.43479
-0.376537
-0.321815
-0.271387
-0.222429
-0.180348
-0.131749
-0.106728
-0.034991
-0.0807869
-10.3881
-10.4132
-10.4399
-10.4678
-10.496
-10.5234
-10.5498
-10.5751
-10.5997
-10.624
-10.6483
-10.6731
-10.6985
-10.7244
-10.7507
-10.777
-10.8026
-10.827
-10.8494
-10.869
-10.8852
-10.8971
-10.9042
-10.9058
-10.9013
-10.8904
-10.8727
-10.8477
-10.8152
-10.775
-10.7268
-10.6704
-10.6057
-10.5326
-10.4507
-10.3601
-10.2605
-10.1518
-10.034
-9.90691
-9.77044
-9.62457
-9.46927
-9.30455
-9.13049
-8.94718
-8.75481
-8.55361
-8.34388
-8.12599
-7.9004
-7.66763
-7.42828
-7.18304
-6.93264
-6.67791
-6.4197
-6.15894
-5.89657
-5.63359
-5.37098
-5.10973
-4.85081
-4.59516
-4.34368
-4.09722
-3.85654
-3.62234
-3.39524
-3.17576
-2.96434
-2.76133
-2.56697
-2.38145
-2.20484
-2.03715
-1.87833
-1.72824
-1.58671
-1.45349
-1.32833
-1.21092
-1.10091
-0.997984
-0.901764
-0.811891
-0.72799
-0.649705
-0.576653
-0.50852
-0.444861
-0.385538
-0.329757
-0.278228
-0.22824
-0.185014
-0.135495
-0.109294
-0.0367387
-0.0818667
-10.3846
-10.4084
-10.4334
-10.4593
-10.4854
-10.5112
-10.5362
-10.5604
-10.584
-10.6072
-10.6304
-10.6537
-10.6774
-10.7013
-10.7252
-10.7488
-10.7715
-10.7929
-10.8122
-10.8287
-10.8419
-10.8509
-10.8553
-10.8544
-10.8477
-10.8347
-10.8151
-10.7885
-10.7546
-10.7132
-10.664
-10.6069
-10.5415
-10.4679
-10.3857
-10.295
-10.1954
-10.087
-9.9695
-9.84294
-9.70721
-9.56225
-9.40806
-9.24467
-9.07213
-8.89056
-8.70015
-8.50112
-8.29376
-8.07846
-7.85566
-7.62585
-7.38964
-7.14768
-6.90069
-6.64946
-6.39483
-6.13768
-5.87894
-5.61956
-5.36049
-5.10269
-4.84711
-4.59464
-4.34617
-4.10251
-3.86442
-3.63257
-3.40758
-3.18996
-2.98014
-2.77847
-2.58522
-2.40054
-2.22455
-2.05726
-1.89863
-1.74855
-1.60685
-1.47331
-1.34769
-1.22969
-1.119
-1.0153
-0.918229
-0.827446
-0.742588
-0.663305
-0.589226
-0.520037
-0.45531
-0.394892
-0.338026
-0.285363
-0.234321
-0.189896
-0.139467
-0.111918
-0.0387783
-0.0824596
-10.3803
-10.4028
-10.4263
-10.4504
-10.4747
-10.4988
-10.5224
-10.5454
-10.5679
-10.59
-10.6119
-10.6338
-10.6557
-10.6775
-10.6991
-10.7201
-10.7401
-10.7586
-10.7749
-10.7886
-10.7988
-10.8051
-10.8068
-10.8034
-10.7945
-10.7795
-10.758
-10.7298
-10.6945
-10.6519
-10.6017
-10.5437
-10.4778
-10.4036
-10.3212
-10.2302
-10.1307
-10.0225
-9.90539
-9.77938
-9.64439
-9.50036
-9.3473
-9.18524
-9.01424
-8.83443
-8.64597
-8.44912
-8.24415
-8.03144
-7.81142
-7.58458
-7.3515
-7.11281
-6.86922
-6.62148
-6.37042
-6.11688
-5.86175
-5.60596
-5.35043
-5.09607
-4.84381
-4.59452
-4.34905
-4.1082
-3.8727
-3.64321
-3.42033
-3.20458
-2.99637
-2.79606
-2.6039
-2.42009
-2.24473
-2.07785
-1.91942
-1.76935
-1.62748
-1.49362
-1.36753
-1.24895
-1.13757
-1.03309
-0.935164
-0.843462
-0.757632
-0.677335
-0.60221
-0.531946
-0.466129
-0.404592
-0.346617
-0.29279
-0.240671
-0.194994
-0.143659
-0.114603
-0.0410914
-0.0825869
-10.3751
-10.3964
-10.4185
-10.441
-10.4637
-10.4863
-10.5085
-10.5302
-10.5515
-10.5723
-10.5929
-10.6132
-10.6334
-10.6532
-10.6726
-10.6911
-10.7085
-10.7242
-10.7378
-10.7485
-10.756
-10.7596
-10.7588
-10.753
-10.7418
-10.7248
-10.7016
-10.6718
-10.6351
-10.5912
-10.54
-10.4812
-10.4146
-10.3399
-10.2572
-10.1661
-10.0666
-9.95858
-9.84188
-9.71643
-9.58219
-9.4391
-9.28718
-9.12646
-8.95701
-8.77896
-8.59248
-8.39781
-8.19524
-7.98512
-7.76787
-7.54399
-7.31403
-7.07861
-6.8384
-6.59415
-6.34663
-6.09667
-5.84515
-5.59293
-5.34091
-5.08998
-4.84103
-4.59491
-4.35243
-4.11438
-3.88146
-3.65433
-3.43356
-3.21967
-3.01307
-2.81411
-2.62307
-2.44012
-2.2654
-2.09893
-1.9407
-1.79064
-1.64861
-1.51443
-1.38788
-1.2687
-1.15663
-1.05136
-0.952564
-0.859929
-0.773114
-0.691788
-0.6156
-0.544241
-0.477311
-0.414633
-0.355524
-0.300505
-0.247282
-0.200306
-0.148065
-0.117351
-0.0436546
-0.0822799
-10.3691
-10.3893
-10.41
-10.4312
-10.4524
-10.4735
-10.4943
-10.5147
-10.5347
-10.5542
-10.5734
-10.5922
-10.6106
-10.6285
-10.6457
-10.6619
-10.6767
-10.6898
-10.7007
-10.7088
-10.7136
-10.7146
-10.7113
-10.7032
-10.6899
-10.6709
-10.6459
-10.6145
-10.5764
-10.5313
-10.4791
-10.4194
-10.3522
-10.2771
-10.194
-10.1028
-10.0033
-9.89549
-9.77918
-9.65431
-9.52082
-9.37869
-9.22793
-9.06856
-8.90067
-8.72439
-8.53989
-8.3474
-8.14722
-7.93969
-7.72522
-7.50429
-7.27743
-7.04525
-6.80841
-6.56762
-6.32362
-6.07723
-5.82928
-5.5806
-5.33207
-5.08455
-4.83889
-4.5959
-4.3564
-4.12113
-3.89078
-3.66599
-3.44733
-3.23529
-3.0303
-2.83269
-2.64275
-2.46067
-2.28657
-2.12052
-1.96249
-1.81244
-1.67024
-1.53573
-1.40871
-1.28894
-1.17616
-1.07009
-0.970421
-0.876841
-0.789026
-0.706654
-0.629384
-0.556912
-0.488849
-0.425006
-0.36474
-0.308501
-0.254151
-0.205828
-0.152676
-0.120164
-0.0464399
-0.0815775
-10.3624
-10.3815
-10.401
-10.4208
-10.4407
-10.4604
-10.4799
-10.499
-10.5176
-10.5358
-10.5535
-10.5708
-10.5874
-10.6034
-10.6185
-10.6324
-10.6449
-10.6555
-10.6638
-10.6693
-10.6716
-10.6701
-10.6645
-10.6541
-10.6387
-10.6178
-10.5911
-10.5581
-10.5186
-10.4724
-10.4192
-10.3587
-10.2907
-10.2152
-10.1318
-10.0405
-9.94106
-9.83344
-9.71753
-9.59325
-9.46053
-9.31937
-9.16976
-9.01176
-8.84544
-8.67093
-8.48842
-8.29812
-8.10032
-7.89536
-7.68366
-7.46566
-7.24189
-7.01294
-6.77944
-6.54207
-6.30158
-6.05872
-5.81429
-5.56913
-5.32406
-5.0799
-4.8375
-4.59763
-4.36107
-4.12855
-3.90075
-3.67828
-3.4617
-3.2515
-3.0481
-2.85183
-2.66299
-2.48176
-2.30829
-2.14263
-1.9848
-1.83475
-1.69238
-1.55753
-1.43003
-1.30966
-1.19617
-1.08929
-0.988724
-0.894185
-0.805355
-0.721921
-0.643552
-0.569947
-0.500732
-0.435703
-0.374256
-0.316771
-0.261268
-0.211556
-0.15748
-0.123045
-0.0494153
-0.0805249
-10.355
-10.3731
-10.3915
-10.41
-10.4286
-10.447
-10.4652
-10.483
-10.5003
-10.5171
-10.5334
-10.549
-10.564
-10.5781
-10.5911
-10.6029
-10.6131
-10.6213
-10.6272
-10.6303
-10.6301
-10.6263
-10.6184
-10.6059
-10.5885
-10.5657
-10.5373
-10.5028
-10.462
-10.4146
-10.3604
-10.2991
-10.2305
-10.1545
-10.0708
-9.97939
-9.88004
-9.77266
-9.65717
-9.53348
-9.40156
-9.26137
-9.11294
-8.95631
-8.79157
-8.61884
-8.4383
-8.25018
-8.05476
-7.85238
-7.64342
-7.42833
-7.20763
-6.98188
-6.75168
-6.51771
-6.28067
-6.0413
-5.80037
-5.55867
-5.31701
-5.07618
-4.83699
-4.60019
-4.36654
-4.13674
-3.91145
-3.69127
-3.47674
-3.26836
-3.06652
-2.87158
-2.68381
-2.50342
-2.33056
-2.16529
-2.00764
-1.85758
-1.71502
-1.57983
-1.45184
-1.33085
-1.21663
-1.10893
-1.00746
-0.911948
-0.822087
-0.737575
-0.65809
-0.583334
-0.512945
-0.446711
-0.38406
-0.325305
-0.268622
-0.217483
-0.162464
-0.125995
-0.0525457
-0.0791714
-10.3471
-10.3641
-10.3814
-10.3988
-10.4162
-10.4333
-10.4502
-10.4667
-10.4827
-10.4981
-10.513
-10.527
-10.5403
-10.5526
-10.5637
-10.5734
-10.5814
-10.5874
-10.591
-10.5918
-10.5893
-10.5833
-10.5732
-10.5587
-10.5393
-10.5148
-10.4847
-10.4488
-10.4067
-10.3582
-10.303
-10.2409
-10.1717
-10.0953
-10.0113