/*--------------------------------*- C++ -*----------------------------------*\
  =========                 |
  \\      /  F ield         | OpenFOAM: The Open Source CFD Toolbox
   \\    /   O peration     | Website:  https://openfoam.org
    \\  /    A nd           | Version:  10
     \\/     M anipulation  |
\*---------------------------------------------------------------------------*/
FoamFile
{
    format      ascii;
    class       surfaceScalarField;
    location    "1000";
    object      phi;
}
// * * * * * * * * * * * * * * * * * * * * * * * * * * * * * * * * * * * * * //

dimensions      [0 3 -1 0 0 0 0];

internalField   nonuniform List<scalar> 
13452
(
6.29962e-05
-2.72776e-06
6.37619e-05
-7.65633e-07
6.45326e-05
-7.70784e-07
6.38574e-05
6.75236e-07
6.2516e-05
1.34139e-06
6.10812e-05
1.43478e-06
5.97497e-05
1.33152e-06
5.85561e-05
1.19366e-06
5.74953e-05
1.0608e-06
5.65542e-05
9.41091e-07
5.57171e-05
8.37029e-07
5.49687e-05
7.4845e-07
5.42953e-05
6.73411e-07
5.36859e-05
6.09381e-07
5.31316e-05
5.54259e-07
5.26252e-05
5.06449e-07
5.21605e-05
4.64685e-07
5.17326e-05
4.27946e-07
5.13371e-05
3.95417e-07
5.09707e-05
3.66457e-07
5.06301e-05
3.40557e-07
5.03128e-05
3.1731e-07
5.00164e-05
2.96395e-07
4.97389e-05
2.77562e-07
4.94782e-05
2.60628e-07
4.92328e-05
2.45478e-07
4.90007e-05
2.32085e-07
4.87802e-05
2.20499e-07
4.85691e-05
2.11056e-07
4.83654e-05
2.03687e-07
4.81646e-05
2.00851e-07
4.79728e-05
1.91779e-07
1.83822e-07
4.7789e-05
6.28938e-05
-3.6312e-06
6.27373e-05
-6.0916e-07
6.21168e-05
-1.50248e-07
6.23912e-05
4.00755e-07
6.28732e-05
8.59441e-07
6.32662e-05
1.04182e-06
6.35106e-05
1.08704e-06
6.36214e-05
1.0829e-06
6.36288e-05
1.05345e-06
6.35618e-05
1.00803e-06
6.34435e-05
9.55295e-07
6.32907e-05
9.01344e-07
6.3115e-05
8.49058e-07
6.29249e-05
7.99521e-07
6.2726e-05
7.53092e-07
6.25226e-05
7.09875e-07
6.23175e-05
6.698e-07
6.21128e-05
6.32683e-07
6.19099e-05
5.98305e-07
6.17099e-05
5.66448e-07
6.15135e-05
5.36913e-07
6.13213e-05
5.09517e-07
6.11336e-05
4.84109e-07
6.09506e-05
4.60565e-07
6.07724e-05
4.38798e-07
6.05991e-05
4.18763e-07
6.04307e-05
4.00483e-07
6.02673e-05
3.83988e-07
6.01087e-05
3.69575e-07
5.99556e-05
3.56854e-07
5.98083e-05
3.48118e-07
5.96668e-05
3.33266e-07
3.46813e-07
5.95038e-05
6.23344e-05
-2.20424e-06
6.26284e-05
-9.03131e-07
6.27866e-05
-3.08444e-07
6.3096e-05
9.13456e-08
6.34473e-05
5.08208e-07
6.37493e-05
7.39754e-07
6.39954e-05
8.40985e-07
6.41903e-05
8.87987e-07
6.43385e-05
9.05248e-07
6.44463e-05
9.00233e-07
6.45208e-05
8.80834e-07
6.45682e-05
8.53892e-07
6.45939e-05
8.23358e-07
6.46022e-05
7.91258e-07
6.45965e-05
7.58794e-07
6.45796e-05
7.26766e-07
6.45537e-05
6.95657e-07
6.45207e-05
6.65722e-07
6.44819e-05
6.37089e-07
6.44385e-05
6.09813e-07
6.43915e-05
5.83914e-07
6.43417e-05
5.59387e-07
6.42896e-05
5.36221e-07
6.42357e-05
5.14412e-07
6.41805e-05
4.93973e-07
6.41244e-05
4.74939e-07
6.40674e-05
4.57404e-07
6.401e-05
4.41459e-07
6.39521e-05
4.27401e-07
6.38939e-05
4.15143e-07
6.38358e-05
4.06136e-07
6.37721e-05
3.97e-07
4.04779e-07
6.37141e-05
6.47916e-05
-1.41273e-06
6.47391e-05
-8.50708e-07
6.47874e-05
-3.56658e-07
6.48995e-05
-2.08242e-08
6.50726e-05
3.35171e-07
6.52456e-05
5.66725e-07
6.54029e-05
6.83725e-07
6.55433e-05
7.47524e-07
6.5666e-05
7.82566e-07
6.57709e-05
7.95374e-07
6.58592e-05
7.92522e-07
6.59328e-05
7.80303e-07
6.59935e-05
7.62623e-07
6.60431e-05
7.41626e-07
6.60832e-05
7.18698e-07
6.61152e-05
6.94831e-07
6.61401e-05
6.70697e-07
6.61591e-05
6.46723e-07
6.6173e-05
6.23186e-07
6.61826e-05
6.00274e-07
6.61884e-05
5.78116e-07
6.61909e-05
5.56802e-07
6.61908e-05
5.36405e-07
6.61882e-05
5.16988e-07
6.61835e-05
4.98624e-07
6.61771e-05
4.81399e-07
6.6169e-05
4.65442e-07
6.61596e-05
4.50889e-07
6.6149e-05
4.38017e-07
6.61372e-05
4.26951e-07
6.61246e-05
4.18677e-07
6.61091e-05
4.12562e-07
4.16075e-07
6.60978e-05
6.70182e-05
-9.74175e-07
6.6871e-05
-7.03482e-07
6.68449e-05
-3.30554e-07
6.68728e-05
-4.87388e-08
6.69617e-05
2.46287e-07
6.70706e-05
4.57802e-07
6.71774e-05
5.76935e-07
6.72778e-05
6.47151e-07
6.73705e-05
6.89897e-07
6.74544e-05
7.11433e-07
6.75295e-05
7.17466e-07
6.75962e-05
7.13598e-07
6.76553e-05
7.03495e-07
6.77076e-05
6.89286e-07
6.77539e-05
6.72398e-07
6.77949e-05
6.53876e-07
6.78311e-05
6.34455e-07
6.78632e-05
6.14632e-07
6.78916e-05
5.94754e-07
6.79168e-05
5.7507e-07
6.79392e-05
5.55763e-07
6.7959e-05
5.36972e-07
6.79766e-05
5.1881e-07
6.79922e-05
5.0138e-07
6.80061e-05
4.84782e-07
6.80183e-05
4.69128e-07
6.80292e-05
4.54555e-07
6.80389e-05
4.41215e-07
6.80476e-05
4.29347e-07
6.80554e-05
4.19157e-07
6.80628e-05
4.11288e-07
6.80695e-05
4.05834e-07
4.05667e-07
6.80799e-05
6.9089e-05
-6.79143e-07
6.89436e-05
-5.58074e-07
6.89005e-05
-2.87505e-07
6.89039e-05
-5.21385e-08
6.89554e-05
1.94793e-07
6.90297e-05
3.83512e-07
6.91069e-05
4.99722e-07
6.91818e-05
5.72295e-07
6.92531e-05
6.1861e-07
6.93197e-05
6.44794e-07
6.93812e-05
6.56021e-07
6.94375e-05
6.57247e-07
6.94891e-05
6.51869e-07
6.95365e-05
6.4198e-07
6.95798e-05
6.29013e-07
6.96197e-05
6.14026e-07
6.96564e-05
5.97777e-07
6.96902e-05
5.80797e-07
6.97215e-05
5.63466e-07
6.97505e-05
5.46065e-07
6.97775e-05
5.28806e-07
6.98026e-05
5.11854e-07
6.9826e-05
4.95344e-07
6.9848e-05
4.79394e-07
6.98687e-05
4.64119e-07
6.98882e-05
4.49634e-07
6.99067e-05
4.36071e-07
6.99243e-05
4.23571e-07
6.99413e-05
4.12323e-07
6.9958e-05
4.02508e-07
6.99748e-05
3.94489e-07
6.99922e-05
3.88369e-07
3.84962e-07
7.0013e-05
7.11537e-05
-4.66487e-07
7.10277e-05
-4.32067e-07
7.09799e-05
-2.39743e-07
7.09726e-05
-4.48123e-08
7.10042e-05
1.63214e-07
7.10576e-05
3.30068e-07
7.11167e-05
4.40621e-07
7.11759e-05
5.13151e-07
7.12335e-05
5.60942e-07
7.12886e-05
5.89739e-07
7.13403e-05
6.04264e-07
7.13887e-05
6.08888e-07
7.14338e-05
6.06732e-07
7.1476e-05
5.99827e-07
7.15154e-05
5.89599e-07
7.15523e-05
5.77103e-07
7.1587e-05
5.63105e-07
7.16196e-05
5.48156e-07
7.16504e-05
5.32656e-07
7.16796e-05
5.16906e-07
7.17073e-05
5.01136e-07
7.17336e-05
4.85524e-07
7.17587e-05
4.70217e-07
7.17828e-05
4.55342e-07
7.18059e-05
4.41013e-07
7.18282e-05
4.27342e-07
7.18498e-05
4.14442e-07
7.1871e-05
4.0243e-07
7.18918e-05
3.91435e-07
7.19128e-05
3.81569e-07
7.19343e-05
3.72982e-07
7.1957e-05
3.65631e-07
3.59497e-07
7.19825e-05
7.32523e-05
-3.13546e-07
7.31446e-05
-3.24305e-07
7.30947e-05
-1.89919e-07
7.30808e-05
-3.08348e-08
7.31e-05
1.43938e-07
7.31398e-05
2.90326e-07
7.31869e-05
3.93516e-07
7.32358e-05
4.64255e-07
7.32845e-05
5.12186e-07
7.33319e-05
5.42383e-07
7.33771e-05
5.59079e-07
7.34199e-05
5.66106e-07
7.34603e-05
5.66301e-07
7.34985e-05
5.61611e-07
7.35347e-05
5.53437e-07
7.3569e-05
5.42819e-07
7.36015e-05
5.30524e-07
7.36326e-05
5.17112e-07
7.36622e-05
5.02999e-07
7.36907e-05
4.88499e-07
7.37179e-05
4.73852e-07
7.37442e-05
4.59246e-07
7.37696e-05
4.44833e-07
7.37942e-05
4.3074e-07
7.38181e-05
4.1708e-07
7.38415e-05
4.03951e-07
7.38645e-05
3.91447e-07
7.38873e-05
3.7965e-07
7.39101e-05
3.68633e-07
7.39332e-05
3.58435e-07
7.39572e-05
3.49058e-07
7.39824e-05
3.40346e-07
3.31979e-07
7.401e-05
7.53941e-05
-2.05191e-07
7.53032e-05
-2.33413e-07
7.52537e-05
-1.40376e-07
7.52354e-05
-1.25398e-08
7.52462e-05
1.33157e-07
7.5276e-05
2.60455e-07
7.53144e-05
3.55179e-07
7.53559e-05
4.22761e-07
7.53983e-05
4.69797e-07
7.54401e-05
5.00501e-07
7.54807e-05
5.18556e-07
7.55195e-05
5.27286e-07
7.55565e-05
5.29242e-07
7.55919e-05
5.26262e-07
7.56256e-05
5.19696e-07
7.56579e-05
5.10562e-07
7.56888e-05
4.99619e-07
7.57185e-05
4.87429e-07
7.57471e-05
4.74418e-07
7.57747e-05
4.60906e-07
7.58014e-05
4.4714e-07
7.58273e-05
4.33315e-07
7.58525e-05
4.19583e-07
7.58772e-05
4.06071e-07
7.59014e-05
3.92881e-07
7.59253e-05
3.80102e-07
7.59489e-05
3.67803e-07
7.59725e-05
3.56034e-07
7.59963e-05
3.44822e-07
7.60206e-05
3.34145e-07
7.60458e-05
3.23918e-07
7.60722e-05
3.13928e-07
3.03785e-07
7.61004e-05
7.7584e-05
-1.29604e-07
7.75094e-05
-1.58794e-07
7.74626e-05
-9.35679e-08
7.74419e-05
8.16893e-09
7.74465e-05
1.28557e-07
7.74688e-05
2.38159e-07
7.75002e-05
3.23751e-07
7.75358e-05
3.87108e-07
7.75733e-05
4.32376e-07
7.76109e-05
4.62837e-07
7.76479e-05
4.81583e-07
7.76837e-05
4.91451e-07
7.77183e-05
4.94705e-07
7.77515e-05
4.93046e-07
7.77834e-05
4.87759e-07
7.78142e-05
4.79824e-07
7.78438e-05
4.69982e-07
7.78724e-05
4.58794e-07
7.79002e-05
4.46685e-07
7.79271e-05
4.33979e-07
7.79533e-05
4.20928e-07
7.79789e-05
4.07726e-07
7.80039e-05
3.94527e-07
7.80286e-05
3.81452e-07
7.80528e-05
3.68597e-07
7.80769e-05
3.56033e-07
7.81009e-05
3.43812e-07
7.8125e-05
3.31958e-07
7.81493e-05
3.20459e-07
7.81742e-05
3.09257e-07
7.81999e-05
2.98226e-07
7.82267e-05
2.87137e-07
2.75625e-07
7.82549e-05
7.98265e-05
-7.77485e-08
7.97671e-05
-9.9445e-08
7.97251e-05
-5.15462e-08
7.97038e-05
2.9485e-08
7.9704e-05
1.28312e-07
7.97204e-05
2.21767e-07
7.97462e-05
2.97965e-07
7.9777e-05
3.56317e-07
7.98103e-05
3.99085e-07
7.98445e-05
4.2865e-07
7.98785e-05
4.47502e-07
7.9912e-05
4.58016e-07
7.99445e-05
4.62166e-07
7.99761e-05
4.615e-07
8.00066e-05
4.57217e-07
8.00362e-05
4.50249e-07
8.00649e-05
4.41312e-07
8.00927e-05
4.30953e-07
8.01198e-05
4.19595e-07
8.01462e-05
4.0756e-07
8.0172e-05
3.95099e-07
8.01974e-05
3.82406e-07
8.02223e-05
3.69632e-07
8.02468e-05
3.56893e-07
8.02711e-05
3.44275e-07
8.02953e-05
3.31839e-07
8.03195e-05
3.1962e-07
8.03439e-05
3.07619e-07
8.03685e-05
2.95807e-07
8.03937e-05
2.84102e-07
8.04195e-05
2.72368e-07
8.04463e-05
2.60391e-07
2.47861e-07
8.0474e-05
8.21255e-05
-4.28217e-08
8.20798e-05
-5.37331e-08
8.20439e-05
-1.56612e-08
8.20237e-05
4.97499e-08
8.20212e-05
1.30764e-07
8.20331e-05
2.09841e-07
8.20543e-05
2.76782e-07
8.2081e-05
3.29649e-07
8.21107e-05
3.69344e-07
8.21419e-05
3.97452e-07
8.21735e-05
4.15896e-07
8.22049e-05
4.26614e-07
8.22358e-05
4.31299e-07
8.2266e-05
4.31329e-07
8.22954e-05
4.27806e-07
8.2324e-05
4.21603e-07
8.23519e-05
4.134e-07
8.23792e-05
4.03726e-07
8.24058e-05
3.92993e-07
8.24318e-05
3.8152e-07
8.24574e-05
3.69551e-07
8.24825e-05
3.57279e-07
8.25073e-05
3.4485e-07
8.25318e-05
3.32374e-07
8.25561e-05
3.19929e-07
8.25804e-05
3.07566e-07
8.26047e-05
2.95307e-07
8.26292e-05
2.83144e-07
8.2654e-05
2.71032e-07
8.26792e-05
2.58887e-07
8.2705e-05
2.46577e-07
8.27314e-05
2.33921e-07
2.20667e-07
8.27586e-05
8.44847e-05
-1.97602e-08
8.44506e-05
-1.96501e-08
8.44215e-05
1.35015e-08
8.44036e-05
6.76342e-08
8.43999e-05
1.34407e-07
8.44087e-05
2.01055e-07
8.44263e-05
2.59236e-07
8.44495e-05
3.06437e-07
8.44762e-05
3.42668e-07
8.45047e-05
3.68871e-07
8.45342e-05
3.86466e-07
8.45638e-05
3.96997e-07
8.45932e-05
4.01886e-07
8.46222e-05
4.0234e-07
8.46506e-05
3.99353e-07
8.46785e-05
3.93729e-07
8.47058e-05
3.86107e-07
8.47325e-05
3.7699e-07
8.47588e-05
3.66775e-07
8.47845e-05
3.55769e-07
8.48099e-05
3.44212e-07
8.48348e-05
3.32291e-07
8.48596e-05
3.20146e-07
8.4884e-05
3.0788e-07
8.49084e-05
2.95566e-07
8.49327e-05
2.83247e-07
8.49571e-05
2.70936e-07
8.49816e-05
2.5862e-07
8.50064e-05
2.46251e-07
8.50315e-05
2.33749e-07
8.50571e-05
2.21e-07
8.50832e-05
2.07855e-07
1.9412e-07
8.51097e-05
8.69073e-05
-4.86682e-09
8.68827e-05
4.90755e-09
8.68602e-05
3.60238e-08
8.68456e-05
8.22659e-08
8.6842e-05
1.37979e-07
8.68488e-05
1.94195e-07
8.68637e-05
2.444e-07
8.68841e-05
2.8603e-07
8.69082e-05
3.18595e-07
8.69345e-05
3.4257e-07
8.6962e-05
3.58959e-07
8.699e-05
3.68967e-07
8.70181e-05
3.73766e-07
8.70461e-05
3.74395e-07
8.70737e-05
3.71737e-07
8.71009e-05
3.6652e-07
8.71277e-05
3.59338e-07
8.7154e-05
3.5066e-07
8.71799e-05
3.40865e-07
8.72054e-05
3.30245e-07
8.72306e-05
3.19033e-07
8.72555e-05
3.07405e-07
8.72801e-05
2.95497e-07
8.73046e-05
2.83406e-07
8.7329e-05
2.71198e-07
8.73533e-05
2.58912e-07
8.73777e-05
2.46557e-07
8.74022e-05
2.34118e-07
8.74269e-05
2.2155e-07
8.74519e-05
2.08785e-07
8.74771e-05
1.95728e-07
8.75027e-05
1.82263e-07
1.68246e-07
8.75286e-05
8.93962e-05
4.49482e-09
8.93792e-05
2.19275e-08
8.93627e-05
5.2466e-08
8.93517e-05
9.32503e-08
8.93492e-05
1.40547e-07
8.93551e-05
1.88226e-07
8.93681e-05
2.31402e-07
8.93864e-05
2.6778e-07
8.94083e-05
2.96658e-07
8.94327e-05
3.18212e-07
8.94585e-05
3.33133e-07
8.94851e-05
3.42344e-07
8.95121e-05
3.46799e-07
8.95391e-05
3.47382e-07
8.9566e-05
3.44864e-07
8.95926e-05
3.39898e-07
8.96189e-05
3.33024e-07
8.96449e-05
3.24679e-07
8.96705e-05
3.15214e-07
8.96959e-05
3.04909e-07
8.97209e-05
2.93982e-07
8.97457e-05
2.82602e-07
8.97703e-05
2.70895e-07
8.97948e-05
2.58956e-07
8.98191e-05
2.46844e-07
8.98435e-05
2.34595e-07
8.98678e-05
2.22217e-07
8.98922e-05
2.09697e-07
8.99168e-05
1.96998e-07
8.99415e-05
1.84064e-07
8.99664e-05
1.70821e-07
8.99915e-05
1.57184e-07
1.43047e-07
9.00167e-05
9.19542e-05
1.01643e-08
9.1943e-05
3.31602e-08
9.19318e-05
6.36622e-08
9.19244e-05
1.00601e-07
9.19234e-05
1.41533e-07
9.19293e-05
1.82341e-07
9.19412e-05
2.19485e-07
9.19579e-05
2.51074e-07
9.19782e-05
2.76393e-07
9.2001e-05
2.95457e-07
9.20253e-05
3.0874e-07
9.20507e-05
3.16948e-07
9.20767e-05
3.20853e-07
9.21029e-05
3.212e-07
9.21291e-05
3.18655e-07
9.21552e-05
3.13798e-07
9.21811e-05
3.07113e-07
9.22068e-05
2.99003e-07
9.22322e-05
2.8979e-07
9.22574e-05
2.79735e-07
9.22823e-05
2.69043e-07
9.2307e-05
2.57873e-07
9.23316e-05
2.46343e-07
9.2356e-05
2.34542e-07
9.23803e-05
2.22527e-07
9.24046e-05
2.10329e-07
9.24288e-05
1.9796e-07
9.24531e-05
1.8541e-07
9.24775e-05
1.7265e-07
9.25019e-05
1.59637e-07
9.25264e-05
1.4632e-07
9.2551e-05
1.32636e-07
1.18513e-07
9.25755e-05
9.45839e-05
1.34014e-08
9.4577e-05
4.00684e-08
9.45701e-05
7.0548e-08
9.45661e-05
1.04626e-07
9.45669e-05
1.40691e-07
9.45733e-05
1.75999e-07
9.45847e-05
2.08048e-07
9.46004e-05
2.35376e-07
9.46195e-05
2.57365e-07
9.46409e-05
2.73971e-07
9.46641e-05
2.85531e-07
9.46885e-05
2.92595e-07
9.47136e-05
2.95793e-07
9.4739e-05
2.95748e-07
9.47646e-05
2.93035e-07
9.47903e-05
2.88162e-07
9.48158e-05
2.81562e-07
9.48412e-05
2.73599e-07
9.48664e-05
2.64567e-07
9.48915e-05
2.54708e-07
9.49163e-05
2.44209e-07
9.4941e-05
2.3322e-07
9.49655e-05
2.21851e-07
9.49898e-05
2.10184e-07
9.50141e-05
1.98273e-07
9.50382e-05
1.8615e-07
9.50624e-05
1.73827e-07
9.50865e-05
1.613e-07
9.51106e-05
1.48549e-07
9.51347e-05
1.35547e-07
9.51587e-05
1.22254e-07
9.51828e-05
1.08633e-07
9.46331e-08
9.52066e-05
9.72879e-05
1.50569e-08
9.72841e-05
4.3829e-08
9.72806e-05
7.40429e-08
9.72794e-05
1.0581e-07
9.72821e-05
1.38044e-07
9.72892e-05
1.6891e-07
9.73005e-05
1.96676e-07
9.73156e-05
2.20266e-07
9.73338e-05
2.39203e-07
9.73543e-05
2.53449e-07
9.73766e-05
2.63271e-07
9.74001e-05
2.6911e-07
9.74244e-05
2.71487e-07
9.74492e-05
2.70929e-07
9.74743e-05
2.67932e-07
9.74995e-05
2.62938e-07
9.75248e-05
2.56334e-07
9.75499e-05
2.48442e-07
9.7575e-05
2.39531e-07
9.75998e-05
2.29819e-07
9.76246e-05
2.19481e-07
9.76491e-05
2.08651e-07
9.76736e-05
1.97433e-07
9.76978e-05
1.85903e-07
9.7722e-05
1.74112e-07
9.77461e-05
1.62092e-07
9.777e-05
1.49858e-07
9.77939e-05
1.3741e-07
9.78177e-05
1.24737e-07
9.78415e-05
1.11824e-07
9.78651e-05
9.86457e-08
9.78885e-05
8.51798e-08
7.13941e-08
9.79118e-05
0.000100068
1.56998e-08
0.000100067
4.53628e-08
0.000100066
7.49838e-08
0.000100067
1.04717e-07
0.000100071
1.33804e-07
0.000100079
1.61007e-07
0.000100091
1.85142e-07
0.000100106
2.05458e-07
0.000100123
2.21626e-07
0.000100143
2.33648e-07
0.000100164
2.41758e-07
0.000100187
2.46335e-07
0.000100211
2.47817e-07
0.000100235
2.46657e-07
0.00010026
2.43283e-07
0.000100285
2.38084e-07
0.00010031
2.31398e-07
0.000100335
2.23514e-07
0.000100359
2.14672e-07
0.000100384
2.0507e-07
0.000100409
1.94864e-07
0.000100433
1.84179e-07
0.000100458
1.7311e-07
0.000100482
1.61725e-07
0.000100506
1.50075e-07
0.00010053
1.3819e-07
0.000100553
1.26088e-07
0.000100577
1.13774e-07
0.000100601
1.01246e-07
0.000100624
8.84949e-08
0.000100647
7.55109e-08
0.00010067
6.22799e-08
4.87868e-08
0.000100693
0.000102928
1.57103e-08
0.000102928
4.53805e-08
0.000102929
7.40997e-08
0.000102932
1.01926e-07
0.000102937
1.28305e-07
0.000102946
1.52391e-07
0.000102958
1.73392e-07
0.000102972
1.90812e-07
0.000102989
2.04462e-07
0.000103009
2.14397e-07
0.00010303
2.20847e-07
0.000103052
2.24149e-07
0.000103075
2.2469e-07
0.000103099
2.22863e-07
0.000103123
2.19042e-07
0.000103147
2.13567e-07
0.000103172
2.06736e-07
0.000103197
1.98807e-07
0.000103221
1.89992e-07
0.000103246
1.80467e-07
0.000103271
1.70374e-07
0.000103295
1.59825e-07
0.000103319
1.48905e-07
0.000103343
1.37679e-07
0.000103367
1.26193e-07
0.000103391
1.14478e-07
0.000103414
1.02552e-07
0.000103438
9.04262e-08
0.000103461
7.81031e-08
0.000103484
6.55819e-08
0.000103506
5.28606e-08
0.000103529
3.99358e-08
2.68012e-08
0.000103551
0.000105869
1.53452e-08
0.00010587
4.44295e-08
0.000105872
7.20121e-08
0.000105876
9.79945e-08
0.000105882
1.21946e-07
0.000105892
1.43288e-07
0.000105903
1.61511e-07
0.000105918
1.76322e-07
0.000105935
1.87654e-07
0.000105953
1.95619e-07
0.000105974
2.00458e-07
0.000105996
2.02487e-07
0.000106018
2.02054e-07
0.000106042
1.99509e-07
0.000106065
1.95183e-07
0.00010609
1.89374e-07
0.000106114
1.82347e-07
0.000106138
1.74326e-07
0.000106163
1.65501e-07
0.000106187
1.56027e-07
0.000106212
1.46031e-07
0.000106236
1.35612e-07
0.00010626
1.24846e-07
0.000106284
1.13794e-07
0.000106308
1.02497e-07
0.000106331
9.09858e-08
0.000106354
7.92793e-08
0.000106377
6.7392e-08
0.0001064
5.53293e-08
0.000106423
4.30991e-08
0.000106445
3.07026e-08
0.000106467
1.81461e-08
5.42681e-09
0.000106488
0.000108894
1.4784e-08
0.000108895
4.29407e-08
0.000108898
6.92547e-08
0.000108903
9.34464e-08
0.00010891
1.15161e-07
0.000108919
1.34011e-07
0.000108931
1.49701e-07
0.000108945
1.62101e-07
0.000108961
1.71255e-07
0.00010898
1.77333e-07
0.000108999
1.80594e-07
0.000109021
1.81344e-07
0.000109043
1.79906e-07
0.000109066
1.76598e-07
0.000109089
1.71714e-07
0.000109113
1.65519e-07
0.000109137
1.58246e-07
0.000109161
1.50092e-07
0.000109186
1.41223e-07
0.00010921
1.31776e-07
0.000109234
1.21862e-07
0.000109258
1.11568e-07
0.000109282
1.00963e-07
0.000109306
9.00989e-08
0.000109329
7.90154e-08
0.000109352
6.77397e-08
0.000109375
5.62932e-08
0.000109398
4.46891e-08
0.00010942
3.294e-08
0.000109442
2.10531e-08
0.000109464
9.03836e-09
0.000109485
-3.09782e-09
-1.53515e-08
0.000109506
0.000112005
1.41607e-08
0.000112007
4.12704e-08
0.00011201
6.63029e-08
0.000112014
8.87853e-08
0.000112021
1.08411e-07
0.00011203
1.24941e-07
0.000112042
1.38254e-07
0.000112055
1.48367e-07
0.000112071
1.55423e-07
0.000112089
1.59652e-07
0.000112108
1.61337e-07
0.000112129
1.60784e-07
0.00011215
1.58301e-07
0.000112173
1.54177e-07
0.000112196
1.48679e-07
0.000112219
1.42042e-07
0.000112243
1.34472e-07
0.000112267
1.2614e-07
0.000112291
1.17192e-07
0.000112315
1.07746e-07
0.000112339
9.78976e-08
0.000112363
8.7723e-08
0.000112387
7.7281e-08
0.00011241
6.66182e-08
0.000112433
5.57683e-08
0.000112456
4.47576e-08
0.000112479
3.36055e-08
0.000112501
2.23274e-08
0.000112523
1.09355e-08
0.000112545
-5.5875e-10
0.000112566
-1.21451e-08
0.000112587
-2.38134e-08
-3.55582e-08
0.000112607
0.000115205
1.3588e-08
0.000115207
3.97421e-08
0.000115209
6.36133e-08
0.000115214
8.4521e-08
0.00011522
1.02193e-07
0.000115228
1.16525e-07
0.000115239
1.27553e-07
0.000115252
1.35433e-07
0.000115267
1.40411e-07
0.000115284
1.4278e-07
0.000115302
1.42853e-07
0.000115322
1.40943e-07
0.000115343
1.37347e-07
0.000115365
1.32337e-07
0.000115387
1.26155e-07
0.00011541
1.19009e-07
0.000115434
1.11081e-07
0.000115457
1.0252e-07
0.000115481
9.34499e-08
0.000115505
8.3972e-08
0.000115529
7.4167e-08
0.000115552
6.40993e-08
0.000115576
5.38185e-08
0.000115599
4.33637e-08
0.000115622
3.27632e-08
0.000115645
2.2041e-08
0.000115667
1.12136e-08
0.000115689
2.96569e-10
0.000115711
-1.06986e-08
0.000115732
-2.17594e-08
0.000115753
-3.28754e-08
0.000115773
-4.40351e-08
-5.52339e-08
0.000115793
0.000118496
1.31769e-08
0.000118497
3.86893e-08
0.000118499
6.16721e-08
0.000118503
8.12126e-08
0.000118508
9.70751e-08
0.000118515
1.09296e-07
0.000118524
1.18073e-07
0.000118536
1.23712e-07
0.00011855
1.26568e-07
0.000118566
1.27007e-07
0.000118583
1.2538e-07
0.000118602
1.22015e-07
0.000118622
1.17205e-07
0.000118643
1.11208e-07
0.000118665
1.04244e-07
0.000118688
9.65016e-08
0.000118711
8.81367e-08
0.000118734
7.92779e-08
0.000118757
7.003e-08
0.000118781
6.04759e-08
0.000118804
5.06828e-08
0.000118828
4.07009e-08
0.000118851
3.0572e-08
0.000118874
2.03242e-08
0.000118897
9.98357e-09
0.000118919
-4.34003e-10
0.000118941
-1.09117e-08
0.000118963
-2.14394e-08
0.000118985
-3.20039e-08
0.000119005
-4.25968e-08
0.000119026
-5.32053e-08
0.000119045
-6.38219e-08
-7.44394e-08
0.000119065
0.000121881
1.30586e-08
0.000121882
3.85097e-08
0.000121882
6.10637e-08
0.000121884
7.95352e-08
0.000121887
9.37489e-08
0.000121893
1.03912e-07
0.0001219
1.10412e-07
0.00012191
1.13726e-07
0.000121922
1.14339e-07
0.000121937
1.12703e-07
0.000121953
1.09222e-07
0.000121971
1.04244e-07
0.00012199
9.80649e-08
0.00012201
9.09335e-08
0.000122031
8.30542e-08
0.000122053
7.45936e-08
0.000122076
6.56862e-08
0.000122099
5.64402e-08
0.000122122
4.69391e-08
0.000122145
3.72501e-08
0.000122168
2.74226e-08
0.000122191
1.7496e-08
0.000122214
7.49795e-09
0.000122237
-2.54861e-09
0.00012226
-1.26289e-08
0.000122282
-2.27291e-08
0.000122304
-3.28407e-08
0.000122326
-4.29536e-08
0.000122347
-5.30612e-08
0.000122367
-6.31537e-08
0.000122387
-7.32243e-08
0.000122407
-8.32638e-08
-9.32698e-08
0.000122426
0.000125363
1.34125e-08
0.000125362
3.97417e-08
0.00012536
6.25664e-08
0.00012536
8.03748e-08
0.00012536
9.31109e-08
0.000125363
1.01217e-07
0.000125368
1.05325e-07
0.000125376
1.06124e-07
0.000125386
1.04265e-07
0.000125398
1.00307e-07
0.000125413
9.47208e-08
0.000125429
8.78874e-08
0.000125447
8.01131e-08
0.000125466
7.16406e-08
0.000125487
6.26598e-08
0.000125508
5.3318e-08
0.00012553
4.37285e-08
0.000125552
3.39763e-08
0.000125575
2.4126e-08
0.000125598
1.42236e-08
0.000125621
4.30316e-09
0.000125644
-5.61203e-09
0.000125667
-1.55057e-08
0.00012569
-2.53672e-08
0.000125713
-3.51892e-08
0.000125735
-4.49672e-08
0.000125757
-5.46972e-08
0.000125778
-6.4376e-08
0.000125799
-7.39999e-08
0.00012582
-8.35646e-08
0.000125839
-9.30653e-08
0.000125859
-1.02497e-07
-1.1186e-07
0.000125877
0.000128944
1.45155e-08
0.000128941
4.31891e-08
0.000128936
6.73037e-08
0.000128931
8.49703e-08
0.000128928
9.6379e-08
0.000128927
1.02324e-07
0.000128928
1.0377e-07
0.000128933
1.01698e-07
0.00012894
9.69709e-08
0.00012895
9.02917e-08
0.000128963
8.22152e-08
0.000128977
7.3169e-08
0.000128994
6.34761e-08
0.000129012
5.33764e-08
0.000129032
4.30458e-08
0.000129053
3.26103e-08
0.000129074
2.21597e-08
0.000129096
1.17544e-08
0.000129119
1.43523e-09
0.000129142
-8.77399e-09
0.000129165
-1.88581e-08
0.000129188
-2.88124e-08
0.000129212
-3.86347e-08
0.000129235
-4.83288e-08
0.000129257
-5.78978e-08
0.00012928
-6.73474e-08
0.000129302
-7.66814e-08
0.000129323
-8.59043e-08
0.000129344
-9.50179e-08
0.000129365
-1.04024e-07
0.000129384
-1.12922e-07
0.000129404
-1.21712e-07
-1.30396e-07
0.000129422
0.000132627
1.68321e-08
0.00013262
5.01363e-08
0.00013261
7.6985e-08
0.0001326
9.51228e-08
0.000132591
1.05246e-07
0.000132585
1.08698e-07
0.000132582
1.06939e-07
0.000132582
1.01359e-07
0.000132586
9.31123e-08
0.000132593
8.30863e-08
0.000132603
7.19471e-08
0.000132616
6.01795e-08
0.000132632
4.81258e-08
0.000132649
3.60219e-08
0.000132668
2.4024e-08
0.000132688
1.2233e-08
0.00013271
7.06748e-10
0.000132732
-1.05222e-08
0.000132755
-2.14451e-08
0.000132778
-3.20615e-08
0.000132802
-4.23842e-08
0.000132825
-5.24263e-08
0.000132849
-6.22084e-08
0.000132872
-7.1747e-08
0.000132896
-8.10627e-08
0.000132918
-9.01705e-08
0.000132941
-9.90874e-08
0.000132963
-1.07825e-07
0.000132984
-1.16394e-07
0.000133005
-1.24802e-07
0.000133025
-1.33057e-07
0.000133044
-1.41162e-07
-1.49126e-07
0.000133063
0.000136414
2.11981e-08
0.000136401
6.27401e-08
0.000136384
9.42969e-08
0.000136366
1.13496e-07
0.000136349
1.2206e-07
0.000136335
1.22228e-07
0.000136326
1.16224e-07
0.000136321
1.06044e-07
0.000136321
9.32361e-08
0.000136325
7.89256e-08
0.000136333
6.39086e-08
0.000136345
4.87298e-08
0.000136359
3.3743e-08
0.000136376
1.9167e-08
0.000136395
5.12559e-09
0.000136416
-8.32062e-09
0.000136437
-2.11545e-08
0.00013646
-3.33863e-08
0.000136484
-4.50428e-08
0.000136508
-5.6161e-08
0.000136532
-6.67818e-08
0.000136557
-7.69483e-08
0.000136581
-8.67018e-08
0.000136606
-9.6082e-08
0.00013663
-1.05124e-07
0.000136653
-1.13862e-07
0.000136677
-1.22322e-07
0.000136699
-1.30529e-07
0.000136722
-1.38503e-07
0.000136743
-1.46262e-07
0.000136764
-1.53817e-07
0.000136784
-1.61182e-07
-1.68368e-07
0.000136803
0.000140308
2.92043e-08
0.000140286
8.47528e-08
0.000140257
1.23528e-07
0.000140226
1.44007e-07
0.000140198
1.49977e-07
0.000140175
1.4517e-07
0.000140158
1.33034e-07
0.000140148
1.16459e-07
0.000140144
9.7511e-08
0.000140145
7.75832e-08
0.000140151
5.75992e-08
0.000140162
3.81384e-08
0.000140176
1.95354e-08
0.000140193
1.95801e-09
0.000140213
-1.4529e-08
0.000140235
-2.99315e-08
0.000140258
-4.42917e-08
0.000140282
-5.76791e-08
0.000140307
-7.01698e-08
0.000140333
-8.18481e-08
0.000140359
-9.27926e-08
0.000140385
-1.03082e-07
0.000140411
-1.12785e-07
0.000140437
-1.21968e-07
0.000140462
-1.30686e-07
0.000140488
-1.38992e-07
0.000140512
-1.46928e-07
0.000140536
-1.54532e-07
0.00014056
-1.61836e-07
0.000140582
-1.68866e-07
0.000140604
-1.75645e-07
0.000140625
-1.82192e-07
-1.88525e-07
0.000140645
0.00014431
4.40553e-08
0.000144272
1.22854e-07
0.000144224
1.71499e-07
0.000144175
1.92234e-07
0.000144132
1.9293e-07
0.000144098
1.7982e-07
0.000144073
1.58321e-07
0.000144056
1.32588e-07
0.000144049
1.05268e-07
0.000144048
7.79784e-08
0.000144054
5.16987e-08
0.000144065
2.69674e-08
0.000144081
4.02357e-09
0.0001441
-1.70732e-08
0.000144122
-3.637e-08
0.000144146
-5.397e-08
0.000144171
-7.00095e-08
0.000144198
-8.46331e-08
0.000144226
-9.79889e-08
0.000144255
-1.10215e-07
0.000144283
-1.21444e-07
0.000144312
-1.3179e-07
0.000144341
-1.41364e-07
0.000144369
-1.50255e-07
0.000144397
-1.58549e-07
0.000144424
-1.66315e-07
0.000144451
-1.73616e-07
0.000144477
-1.80504e-07
0.000144502
-1.87024e-07
0.000144526
-1.93214e-07
0.00014455
-1.99106e-07
0.000144572
-2.04727e-07
-2.10104e-07
0.000144594
0.000148419
7.26153e-08
0.000148353
1.89045e-07
0.000148276
2.48707e-07
0.000148203
2.65515e-07
0.000148141
2.55061e-07
0.000148093
2.27622e-07
0.000148059
1.91658e-07
0.000148039
1.52886e-07
0.00014803
1.14357e-07
0.00014803
7.7676e-08
0.000148038
4.36859e-08
0.000148053
1.27237e-08
0.000148072
-1.51911e-08
0.000148095
-4.02036e-08
0.000148121
-6.25347e-08
0.00014815
-8.24376e-08
0.00014818
-1.00171e-07
0.000148211
-1.15986e-07
0.000148243
-1.30115e-07
0.000148276
-1.42768e-07
0.000148308
-1.54135e-07
0.000148341
-1.64382e-07
0.000148373
-1.73656e-07
0.000148405
-1.82085e-07
0.000148436
-1.89778e-07
0.000148467
-1.9683e-07
0.000148497
-2.03323e-07
0.000148525
-2.09326e-07
0.000148553
-2.14897e-07
0.00014858
-2.20087e-07
0.000148606
-2.24938e-07
0.000148631
-2.29484e-07
-2.33761e-07
0.000148654
0.000152632
1.29838e-07
0.000152516
3.05055e-07
0.000152394
3.70511e-07
0.000152288
3.72078e-07
0.000152204
3.39012e-07
0.000152144
2.87372e-07
0.000152106
2.29754e-07
0.000152085
1.73183e-07
0.000152079
1.20354e-07
0.000152085
7.23027e-08
0.000152099
2.93861e-08
0.00015212
-8.50408e-09
0.000152147
-4.1743e-08
0.000152177
-7.07966e-08
0.000152211
-9.61346e-08
0.000152247
-1.1821e-07
0.000152284
-1.37439e-07
0.000152322
-1.54203e-07
0.000152361
-1.68834e-07
0.0001524
-1.81629e-07
0.000152439
-1.92843e-07
0.000152477
-2.02697e-07
0.000152515
-2.11382e-07
0.000152552
-2.19061e-07
0.000152588
-2.25876e-07
0.000152623
-2.31945e-07
0.000152657
-2.3737e-07
0.00015269
-2.42238e-07
0.000152722
-2.46621e-07
0.000152752
-2.50582e-07
0.000152781
-2.54172e-07
0.000152809
-2.57436e-07
-2.60414e-07
0.000152836
0.000156935
2.45997e-07
0.00015673
5.10775e-07
0.000156541
5.58639e-07
0.000156395
5.18941e-07
0.000156291
4.42744e-07
0.000156226
3.52277e-07
0.000156191
2.64255e-07
0.00015618
1.85098e-07
0.000156185
1.15327e-07
0.000156202
5.45091e-08
0.00015623
2.05438e-09
0.000156264
-4.28864e-08
0.000156304
-8.12858e-08
0.000156347
-1.14042e-07
0.000156393
-1.41946e-07
0.00015644
-1.65688e-07
0.000156489
-1.85879e-07
0.000156537
-2.03043e-07
0.000156586
-2.17634e-07
0.000156635
-2.30035e-07
0.000156682
-2.40576e-07
0.000156729
-2.49534e-07
0.000156775
-2.5715e-07
0.00015682
-2.63621e-07
0.000156863
-2.6912e-07
0.000156905
-2.73789e-07
0.000156945
-2.77752e-07
0.000156984
-2.8111e-07
0.000157021
-2.8395e-07
0.000157057
-2.86344e-07
0.000157091
-2.88357e-07
0.000157124
-2.90037e-07
-2.91439e-07
0.000157155
0.000161294
4.90777e-07
0.000160931
8.738e-07
0.000160653
8.36452e-07
0.000160464
7.07411e-07
0.000160351
5.55605e-07
0.000160297
4.06566e-07
0.000160282
2.79132e-07
0.000160294
1.73745e-07
0.000160324
8.54983e-08
0.000160367
1.14998e-08
0.000160419
-5.01709e-08
0.000160477
-1.01416e-07
0.00016054
-1.44006e-07
0.000160605
-1.79389e-07
0.000160672
-2.08725e-07
0.000160739
-2.32989e-07
0.000160807
-2.53007e-07
0.000160873
-2.69472e-07
0.000160938
-2.82962e-07
0.000161002
-2.93961e-07
0.000161065
-3.02871e-07
0.000161125
-3.10032e-07
0.000161184
-3.15724e-07
0.00016124
-3.20188e-07
0.000161295
-3.23617e-07
0.000161347
-3.26181e-07
0.000161397
-3.28015e-07
0.000161445
-3.29238e-07
0.000161491
-3.29946e-07
0.000161535
-3.3022e-07
0.000161577
-3.30126e-07
0.000161617
-3.29722e-07
-3.29055e-07
0.000161654
0.000165516
1.12862e-06
0.000164915
1.4749e-06
0.000164579
1.17238e-06
0.000164389
8.96847e-07
0.00016431
6.34496e-07
0.000164306
4.10826e-07
0.000164344
2.41557e-07
0.000164407
1.10948e-07
0.000164486
5.60611e-09
0.000164578
-7.99835e-08
0.000164677
-1.48978e-07
0.00016478
-2.04426e-07
0.000164885
-2.49008e-07
0.00016499
-2.84762e-07
0.000165095
-3.13264e-07
0.000165197
-3.35807e-07
0.000165298
-3.5347e-07
0.000165396
-3.67136e-07
0.00016549
-3.77521e-07
0.000165581
-3.85215e-07
0.000165669
-3.90697e-07
0.000165754
-3.94366e-07
0.000165834
-3.96545e-07
0.000165912
-3.97505e-07
0.000165986
-3.97467e-07
0.000166056
-3.96613e-07
0.000166123
-3.95096e-07
0.000166187
-3.93041e-07
0.000166247
-3.90555e-07
0.000166305
-3.87727e-07
0.000166359
-3.84635e-07
0.000166411
-3.81348e-07
-3.77938e-07