/*--------------------------------*- C++ -*----------------------------------*\
  =========                 |
  \\      /  F ield         | OpenFOAM: The Open Source CFD Toolbox
   \\    /   O peration     | Website:  https://openfoam.org
    \\  /    A nd           | Version:  10
     \\/     M anipulation  |
\*---------------------------------------------------------------------------*/
FoamFile
{
    format      ascii;
    class       volVectorField;
    location    "1000";
    object      U;
}
// * * * * * * * * * * * * * * * * * * * * * * * * * * * * * * * * * * * * * //

dimensions      [0 1 -1 0 0 0 0];

internalField   nonuniform List<vector> 
6820
(
(7.13228 -2.83247 0)
(7.73434 -2.22097 0)
(7.93448 -1.24474 0)
(7.85772 -0.6306 0)
(7.69324 -0.30093 0)
(7.51792 -0.135202 0)
(7.34936 -0.0534966 0)
(7.19462 -0.0130604 0)
(7.05694 0.00686818 0)
(6.93549 0.0163329 0)
(6.82782 0.0203896 0)
(6.73175 0.0216665 0)
(6.64552 0.0215373 0)
(6.56772 0.020717 0)
(6.49714 0.0195835 0)
(6.43277 0.0183401 0)
(6.37382 0.0170941 0)
(6.31963 0.0158997 0)
(6.26962 0.0147817 0)
(6.22335 0.0137497 0)
(6.1804 0.0128048 0)
(6.14042 0.0119445 0)
(6.10313 0.0111646 0)
(6.06824 0.0104607 0)
(6.03552 0.00982989 0)
(6.00475 0.00927104 0)
(5.9757 0.00878718 0)
(5.94815 0.00838508 0)
(5.92188 0.00809224 0)
(5.89643 0.00790788 0)
(5.87213 0.00797703 0)
(5.84462 0.00859345 0)
(5.82634 0.00631209 0)
(7.57676 0.619468 0)
(7.41857 0.759314 0)
(7.35518 0.51949 0)
(7.35368 0.338998 0)
(7.40446 0.233424 0)
(7.46266 0.167015 0)
(7.5028 0.124256 0)
(7.52296 0.097055 0)
(7.52874 0.0793575 0)
(7.52455 0.0672666 0)
(7.51317 0.0586463 0)
(7.49676 0.0523022 0)
(7.47704 0.0474919 0)
(7.4552 0.0437277 0)
(7.43206 0.0406897 0)
(7.40817 0.0381722 0)
(7.38393 0.0360398 0)
(7.35963 0.0341989 0)
(7.33548 0.0325844 0)
(7.31162 0.0311503 0)
(7.28815 0.0298639 0)
(7.26514 0.0287016 0)
(7.24265 0.027647 0)
(7.2207 0.0266887 0)
(7.19932 0.0258208 0)
(7.17851 0.025042 0)
(7.15827 0.0243588 0)
(7.13858 0.0237829 0)
(7.11948 0.0233562 0)
(7.10084 0.0230967 0)
(7.08313 0.0233081 0)
(7.06494 0.0232898 0)
(7.0515 0.0270601 0)
(7.26194 -0.0479143 0)
(7.1598 -0.0718985 0)
(7.19681 -0.0845013 0)
(7.23914 -0.0533674 0)
(7.27631 -0.0172214 0)
(7.31445 0.00633884 0)
(7.34736 0.0206584 0)
(7.37268 0.0300123 0)
(7.39197 0.0360123 0)
(7.4065 0.0394944 0)
(7.41686 0.0412604 0)
(7.42373 0.041957 0)
(7.42779 0.0419936 0)
(7.42963 0.0416146 0)
(7.4297 0.0409788 0)
(7.42833 0.0401939 0)
(7.42582 0.0393304 0)
(7.42238 0.0384325 0)
(7.41821 0.0375283 0)
(7.41346 0.0366361 0)
(7.40823 0.0357679 0)
(7.40264 0.0349319 0)
(7.39675 0.0341343 0)
(7.39063 0.0333807 0)
(7.38434 0.0326774 0)
(7.37791 0.0320328 0)
(7.37138 0.031461 0)
(7.36476 0.0309788 0)
(7.3581 0.0306288 0)
(7.35135 0.0304331 0)
(7.3447 0.0305839 0)
(7.33774 0.030822 0)
(7.33178 0.0326049 0)
(7.29243 -0.0887253 0)
(7.22392 -0.061472 0)
(7.23482 -0.0268989 0)
(7.25115 -0.00103307 0)
(7.2656 0.0189108 0)
(7.28496 0.0304712 0)
(7.30449 0.0362744 0)
(7.32129 0.0394569 0)
(7.33582 0.0412417 0)
(7.3485 0.04202 0)
(7.35931 0.0421317 0)
(7.36832 0.0418687 0)
(7.37577 0.041399 0)
(7.3819 0.0408065 0)
(7.38688 0.0401415 0)
(7.39087 0.0394395 0)
(7.39402 0.0387238 0)
(7.39645 0.0380087 0)
(7.39827 0.0373031 0)
(7.39956 0.0366135 0)
(7.40039 0.0359449 0)
(7.40084 0.0353013 0)
(7.40096 0.0346873 0)
(7.40079 0.0341078 0)
(7.40037 0.0335699 0)
(7.39973 0.0330831 0)
(7.3989 0.0326627 0)
(7.3979 0.032328 0)
(7.39676 0.032117 0)
(7.3955 0.0320595 0)
(7.39421 0.0322767 0)
(7.39281 0.0326753 0)
(7.39183 0.0339029 0)
(7.31244 -0.0515028 0)
(7.26793 -0.0318749 0)
(7.26467 -0.0126185 0)
(7.26769 -5.75989e-05 0)
(7.27322 0.0130536 0)
(7.28435 0.0226485 0)
(7.29691 0.0282843 0)
(7.30832 0.0318843 0)
(7.31873 0.034377 0)
(7.32833 0.03598 0)
(7.337 0.0369014 0)
(7.34469 0.0373709 0)
(7.35151 0.0375417 0)
(7.35754 0.0375015 0)
(7.36289 0.0373099 0)
(7.36761 0.0370129 0)
(7.37179 0.0366441 0)
(7.37549 0.0362273 0)
(7.37877 0.0357797 0)
(7.38167 0.0353144 0)
(7.38424 0.0348419 0)
(7.38652 0.0343712 0)
(7.38854 0.0339104 0)
(7.39034 0.0334678 0)
(7.39193 0.033053 0)
(7.39333 0.0326776 0)
(7.39458 0.0323575 0)
(7.39569 0.0321121 0)
(7.39669 0.0319727 0)
(7.3976 0.0319677 0)
(7.3985 0.0321667 0)
(7.39942 0.0325504 0)
(7.40064 0.0333701 0)
(7.3203 -0.0314401 0)
(7.28849 -0.023837 0)
(7.28204 -0.0120232 0)
(7.2814 -0.00207167 0)
(7.28395 0.00926774 0)
(7.29103 0.0182379 0)
(7.2996 0.0239848 0)
(7.30776 0.0278597 0)
(7.31544 0.030627 0)
(7.32275 0.0325026 0)
(7.32954 0.033688 0)
(7.33576 0.0344002 0)
(7.34146 0.0347895 0)
(7.34667 0.0349466 0)
(7.35146 0.0349342 0)
(7.35584 0.0348002 0)
(7.35988 0.0345796 0)
(7.36359 0.0342976 0)
(7.36703 0.0339728 0)
(7.3702 0.0336195 0)
(7.37315 0.0332492 0)
(7.3759 0.0328717 0)
(7.37846 0.0324961 0)
(7.38085 0.0321313 0)
(7.3831 0.0317871 0)
(7.38521 0.0314749 0)
(7.38722 0.0312091 0)
(7.38912 0.0310068 0)
(7.39097 0.0308913 0)
(7.39278 0.0308845 0)
(7.39461 0.031024 0)
(7.39653 0.0313057 0)
(7.39871 0.031809 0)
(7.32446 -0.0216664 0)
(7.30104 -0.0195801 0)
(7.29416 -0.010932 0)
(7.2922 -0.0022017 0)
(7.29331 0.00755277 0)
(7.29804 0.0155718 0)
(7.30422 0.0210657 0)
(7.3104 0.024914 0)
(7.3164 0.027709 0)
(7.32221 0.0296647 0)
(7.32772 0.0309692 0)
(7.33286 0.0318128 0)
(7.33766 0.0323316 0)
(7.34214 0.0326122 0)
(7.34632 0.032716 0)
(7.35023 0.0326897 0)
(7.35391 0.0325678 0)
(7.35736 0.0323757 0)
(7.36061 0.0321325 0)
(7.36369 0.031853 0)
(7.3666 0.0315494 0)
(7.36937 0.0312319 0)
(7.37201 0.0309097 0)
(7.37453 0.030592 0)
(7.37695 0.0302881 0)
(7.37928 0.0300086 0)
(7.38153 0.0297655 0)
(7.38374 0.0295723 0)
(7.38591 0.0294451 0)
(7.38809 0.0293974 0)
(7.39032 0.0294453 0)
(7.39268 0.0295808 0)
(7.39524 0.029809 0)
(7.32737 -0.0149945 0)
(7.31004 -0.0151745 0)
(7.30324 -0.00892274 0)
(7.30059 -0.00165205 0)
(7.30082 0.00656055 0)
(7.30407 0.0136086 0)
(7.3087 0.018745 0)
(7.31359 0.0224818 0)
(7.31849 0.0252478 0)
(7.32331 0.0272359 0)
(7.32795 0.0286139 0)
(7.33235 0.0295454 0)
(7.3365 0.0301523 0)
(7.34043 0.0305169 0)
(7.34414 0.0306992 0)
(7.34765 0.0307446 0)
(7.35099 0.0306874 0)
(7.35416 0.0305531 0)
(7.35719 0.0303612 0)
(7.36008 0.030127 0)
(7.36286 0.029863 0)
(7.36553 0.0295795 0)
(7.36811 0.029286 0)
(7.3706 0.028991 0)
(7.37302 0.0287034 0)
(7.37539 0.0284321 0)
(7.37771 0.0281866 0)
(7.38 0.0279766 0)
(7.38229 0.0278114 0)
(7.38461 0.0276971 0)
(7.387 0.027636 0)
(7.38951 0.0276132 0)
(7.39221 0.0276057 0)
(7.3294 -0.00997799 0)
(7.31672 -0.0111216 0)
(7.3103 -0.00679764 0)
(7.30731 -0.000925767 0)
(7.30696 0.00594482 0)
(7.30918 0.0121044 0)
(7.31272 0.0168455 0)
(7.31668 0.0204212 0)
(7.32079 0.0231211 0)
(7.3249 0.0251063 0)
(7.32892 0.0265223 0)
(7.33278 0.0275088 0)
(7.33647 0.0281744 0)
(7.33998 0.0285965 0)
(7.34333 0.0288327 0)
(7.34653 0.0289273 0)
(7.3496 0.0289138 0)
(7.35254 0.0288179 0)
(7.35536 0.028659 0)
(7.35809 0.0284528 0)
(7.36072 0.0282118 0)
(7.36327 0.0279463 0)
(7.36576 0.0276656 0)
(7.36818 0.0273778 0)
(7.37055 0.0270905 0)
(7.37289 0.0268111 0)
(7.3752 0.0265467 0)
(7.3775 0.026303 0)
(7.37982 0.0260844 0)
(7.38217 0.0258906 0)
(7.3846 0.0257158 0)
(7.38714 0.025541 0)
(7.38983 0.0253345 0)
(7.33075 -0.00639611 0)
(7.32165 -0.00775474 0)
(7.31591 -0.00477704 0)
(7.31286 -8.47922e-05 0)
(7.31212 0.00562886 0)
(7.31358 0.0109707 0)
(7.3163 0.0152872 0)
(7.31955 0.0186556 0)
(7.32303 0.0212522 0)
(7.32661 0.0232017 0)
(7.33015 0.024625 0)
(7.33359 0.0256401 0)
(7.33692 0.0263421 0)
(7.34011 0.0268025 0)
(7.34319 0.0270758 0)
(7.34615 0.0272043 0)
(7.34899 0.0272209 0)
(7.35174 0.0271505 0)
(7.3544 0.0270127 0)
(7.35698 0.0268232 0)
(7.35949 0.0265942 0)
(7.36193 0.0263361 0)
(7.36432 0.0260576 0)
(7.36666 0.0257661 0)
(7.36897 0.0254683 0)
(7.37126 0.02517 0)
(7.37353 0.0248756 0)
(7.37581 0.0245881 0)
(7.37811 0.0243078 0)
(7.38045 0.0240304 0)
(7.38286 0.0237455 0)
(7.38536 0.0234328 0)
(7.38798 0.0230605 0)
(7.33162 -0.00393096 0)
(7.32523 -0.00505993 0)
(7.32037 -0.00292582 0)
(7.31748 0.000819962 0)
(7.31653 0.00554048 0)
(7.31743 0.0101315 0)
(7.31951 0.0140079 0)
(7.32218 0.017132 0)
(7.32517 0.0195927 0)
(7.32829 0.0214772 0)
(7.33144 0.0228814 0)
(7.33455 0.0239023 0)
(7.33758 0.024622 0)
(7.34053 0.0251048 0)
(7.34338 0.0254017 0)
(7.34613 0.0255524 0)
(7.3488 0.0255884 0)
(7.3514 0.0255342 0)
(7.35392 0.0254088 0)
(7.35637 0.0252277 0)
(7.35877 0.0250029 0)
(7.36111 0.0247445 0)
(7.36342 0.0244607 0)
(7.36569 0.0241581 0)
(7.36793 0.0238424 0)
(7.37016 0.0235178 0)
(7.37239 0.0231868 0)
(7.37462 0.0228502 0)
(7.37688 0.0225054 0)
(7.37918 0.0221458 0)
(7.38154 0.0217591 0)
(7.38397 0.0213257 0)
(7.38649 0.020817 0)
(7.33218 -0.00226224 0)
(7.32778 -0.0029568 0)
(7.32388 -0.00130508 0)
(7.32132 0.00171517 0)
(7.3203 0.00560431 0)
(7.32082 0.00952001 0)
(7.32241 0.0129579 0)
(7.32461 0.0158135 0)
(7.32717 0.0181118 0)
(7.32991 0.0199057 0)
(7.33274 0.0212672 0)
(7.33556 0.0222735 0)
(7.33834 0.0229937 0)
(7.34107 0.023485 0)
(7.34373 0.0237933 0)
(7.34632 0.0239561 0)
(7.34884 0.0240027 0)
(7.3513 0.0239568 0)
(7.3537 0.0238368 0)
(7.35605 0.0236576 0)
(7.35835 0.0234311 0)
(7.36061 0.0231666 0)
(7.36284 0.0228719 0)
(7.36504 0.0225529 0)
(7.36722 0.0222142 0)
(7.36939 0.0218588 0)
(7.37157 0.0214877 0)
(7.37375 0.0210999 0)
(7.37596 0.0206915 0)
(7.3782 0.0202544 0)
(7.38048 0.0197764 0)
(7.38283 0.0192397 0)
(7.38524 0.01862 0)
(7.33252 -0.0011506 0)
(7.32957 -0.00136466 0)
(7.32658 4.32087e-05 0)
(7.32445 0.00253374 0)
(7.32349 0.00575033 0)
(7.32378 0.00907552 0)
(7.325 0.0120933 0)
(7.32682 0.0146691 0)
(7.32903 0.0167858 0)
(7.33145 0.0184683 0)
(7.33398 0.0197662 0)
(7.33656 0.0207394 0)
(7.33912 0.0214446 0)
(7.34166 0.021931 0)
(7.34416 0.0222398 0)
(7.3466 0.0224052 0)
(7.34899 0.0224545 0)
(7.35134 0.02241 0)
(7.35363 0.0222893 0)
(7.35589 0.0221067 0)
(7.3581 0.0218733 0)
(7.36029 0.0215983 0)
(7.36244 0.0212885 0)
(7.36458 0.0209493 0)
(7.3667 0.0205843 0)
(7.36882 0.0201956 0)
(7.37093 0.019783 0)
(7.37306 0.0193446 0)
(7.37521 0.0188755 0)
(7.37738 0.0183677 0)
(7.37959 0.0178095 0)
(7.38184 0.0171856 0)
(7.38413 0.0164763 0)
(7.33273 -0.000425142 0)
(7.3308 -0.000199445 0)
(7.32861 0.00110875 0)
(7.32695 0.00322787 0)
(7.32615 0.00591755 0)
(7.32632 0.00874151 0)
(7.32729 0.0113715 0)
(7.32882 0.0136691 0)
(7.33073 0.0155934 0)
(7.33288 0.0171484 0)
(7.33516 0.0183657 0)
(7.33752 0.0192895 0)
(7.33989 0.0199653 0)
(7.34226 0.0204347 0)
(7.34461 0.0207338 0)
(7.34692 0.020893 0)
(7.3492 0.0209376 0)
(7.35144 0.0208882 0)
(7.35364 0.0207614 0)
(7.35581 0.0205705 0)
(7.35795 0.0203262 0)
(7.36006 0.0200369 0)
(7.36215 0.0197088 0)
(7.36423 0.0193467 0)
(7.36629 0.0189535 0)
(7.36835 0.0185304 0)
(7.3704 0.0180767 0)
(7.37247 0.0175897 0)
(7.37455 0.0170644 0)
(7.37665 0.0164932 0)
(7.37878 0.0158658 0)
(7.38093 0.0151694 0)
(7.38311 0.0143882 0)
(7.33285 3.67169e-05 0)
(7.33162 0.000622639 0)
(7.3301 0.00190699 0)
(7.32889 0.00377113 0)
(7.3283 0.00605776 0)
(7.32845 0.00846751 0)
(7.32926 0.0107514 0)
(7.33058 0.0127834 0)
(7.33225 0.0145128 0)
(7.33417 0.0159304 0)
(7.33625 0.0170539 0)
(7.33841 0.0179148 0)
(7.34061 0.0185488 0)
(7.34283 0.01899 0)
(7.34504 0.0192697 0)
(7.34724 0.0194147 0)
(7.34941 0.0194477 0)
(7.35156 0.0193875 0)
(7.35368 0.0192496 0)
(7.35577 0.0190462 0)
(7.35783 0.0187874 0)
(7.35988 0.0184807 0)
(7.36191 0.0181321 0)
(7.36392 0.0177454 0)
(7.36592 0.017323 0)
(7.36792 0.0168655 0)
(7.36992 0.0163721 0)
(7.37192 0.0158396 0)
(7.37394 0.0152633 0)
(7.37596 0.0146364 0)
(7.378 0.0139501 0)
(7.38006 0.0131939 0)
(7.38213 0.0123555 0)
(7.33292 0.000321563 0)
(7.33217 0.00117799 0)
(7.33117 0.002469 0)
(7.33036 0.00415649 0)
(7.32999 0.00613819 0)
(7.33019 0.00821225 0)
(7.33092 0.0101957 0)
(7.33209 0.0119825 0)
(7.33358 0.0135218 0)
(7.33532 0.0147978 0)
(7.33721 0.0158187 0)
(7.33921 0.0166064 0)
(7.34126 0.017188 0)
(7.34334 0.0175915 0)
(7.34544 0.0178432 0)
(7.34752 0.0179665 0)
(7.3496 0.0179815 0)
(7.35166 0.0179052 0)
(7.35369 0.0177516 0)
(7.35571 0.017532 0)
(7.35771 0.0172556 0)
(7.35969 0.0169292 0)
(7.36166 0.0165581 0)
(7.36361 0.0161458 0)
(7.36556 0.0156941 0)
(7.3675 0.0152033 0)
(7.36943 0.0146722 0)
(7.37137 0.014098 0)
(7.37332 0.0134763 0)
(7.37527 0.0128012 0)
(7.37722 0.0120654 0)
(7.37918 0.0112607 0)
(7.38114 0.0103774 0)
(7.33296 0.000489194 0)
(7.33253 0.00153179 0)
(7.33192 0.00283291 0)
(7.33145 0.00439207 0)
(7.33129 0.00614154 0)
(7.33157 0.00794578 0)
(7.33227 0.0096732 0)
(7.33334 0.0112393 0)
(7.3347 0.0125988 0)
(7.33628 0.0137341 0)
(7.33803 0.0146479 0)
(7.33988 0.015355 0)
(7.3418 0.0158761 0)
(7.34377 0.0162339 0)
(7.34575 0.0164502 0)
(7.34774 0.0165452 0)
(7.34973 0.0165365 0)
(7.3517 0.0164392 0)
(7.35367 0.0162658 0)
(7.35562 0.0160268 0)
(7.35755 0.0157301 0)
(7.35947 0.0153822 0)
(7.36137 0.0149876 0)
(7.36327 0.0145492 0)
(7.36516 0.0140687 0)
(7.36704 0.0135461 0)
(7.36891 0.0129802 0)
(7.37079 0.0123684 0)
(7.37266 0.0117069 0)
(7.37453 0.0109907 0)
(7.3764 0.010214 0)
(7.37827 0.00937035 0)
(7.38013 0.00845245 0)
(7.33299 0.000580176 0)
(7.33276 0.00173719 0)
(7.33244 0.00303808 0)
(7.33222 0.00449586 0)
(7.33226 0.00606383 0)
(7.33262 0.00765001 0)
(7.33332 0.00916081 0)
(7.33433 0.0105314 0)
(7.33559 0.0117244 0)
(7.33706 0.0127238 0)
(7.33868 0.0135294 0)
(7.34042 0.0141516 0)
(7.34222 0.0146064 0)
(7.34408 0.014912 0)
(7.34597 0.0150867 0)
(7.34786 0.0151478 0)
(7.34977 0.0151104 0)
(7.35167 0.0149878 0)
(7.35356 0.0147913 0)
(7.35544 0.0145299 0)
(7.35732 0.0142109 0)
(7.35918 0.01384 0)
(7.36102 0.0134212 0)
(7.36286 0.012957 0)
(7.36469 0.0124487 0)
(7.36651 0.0118963 0)
(7.36832 0.0112987 0)
(7.37013 0.0106536 0)
(7.37193 0.00995776 0)
(7.37372 0.00920725 0)
(7.37551 0.00839745 0)
(7.37729 0.00752335 0)
(7.37905 0.0065795 0)
(7.333 0.000621712 0)
(7.33291 0.00183619 0)
(7.33278 0.00312132 0)
(7.33276 0.00449098 0)
(7.33294 0.00591099 0)
(7.33338 0.00731754 0)
(7.33409 0.00864415 0)
(7.33506 0.00984236 0)
(7.33626 0.0108831 0)
(7.33764 0.0117532 0)
(7.33916 0.012452 0)
(7.34079 0.0129874 0)
(7.3425 0.0133721 0)
(7.34426 0.0136209 0)
(7.34606 0.0137492 0)
(7.34787 0.0137716 0)
(7.3497 0.0137013 0)
(7.35153 0.0135499 0)
(7.35335 0.0133271 0)
(7.35517 0.0130411 0)
(7.35698 0.0126982 0)
(7.35878 0.0123034 0)
(7.36057 0.0118602 0)
(7.36235 0.0113707 0)
(7.36412 0.0108361 0)
(7.36588 0.0102563 0)
(7.36763 0.00963034 0)
(7.36937 0.00895626 0)
(7.3711 0.00823151 0)
(7.37282 0.00745292 0)
(7.37452 0.00661696 0)
(7.37621 0.00571985 0)
(7.37788 0.00475752 0)
(7.333 0.000631948 0)
(7.333 0.00186132 0)
(7.33301 0.00311514 0)
(7.33312 0.00440218 0)
(7.3334 0.00569559 0)
(7.3339 0.00694971 0)
(7.33462 0.00811715 0)
(7.33557 0.0091624 0)
(7.33671 0.0100639 0)
(7.33801 0.0108122 0)
(7.33945 0.0114071 0)
(7.34099 0.0118554 0)
(7.34261 0.0121676 0)
(7.34429 0.0123563 0)
(7.346 0.0124345 0)
(7.34774 0.0124146 0)
(7.34949 0.012308 0)
(7.35126 0.0121247 0)
(7.35302 0.0118733 0)
(7.35477 0.0115607 0)
(7.35652 0.0111927 0)
(7.35827 0.0107735 0)
(7.36 0.010306 0)
(7.36172 0.00979223 0)
(7.36343 0.00923305 0)
(7.36512 0.00862842 0)
(7.36681 0.0079775 0)
(7.36848 0.00727876 0)
(7.37014 0.00653018 0)
(7.37178 0.00572932 0)
(7.37341 0.00487351 0)
(7.37501 0.00395995 0)
(7.3766 0.00298564 0)
(7.33301 0.000623045 0)
(7.33305 0.00183757 0)
(7.33314 0.00304738 0)
(7.33333 0.0042537 0)
(7.33368 0.00543393 0)
(7.33421 0.0065543 0)
(7.33494 0.00758087 0)
(7.33585 0.0084883 0)
(7.33694 0.00926158 0)
(7.33818 0.00989472 0)
(7.33954 0.010389 0)
(7.341 0.0107507 0)
(7.34254 0.0109892 0)
(7.34414 0.0111155 0)
(7.34578 0.0111406 0)
(7.34745 0.0110754 0)
(7.34913 0.0109296 0)
(7.35083 0.0107121 0)
(7.35252 0.01043 0)
(7.35422 0.0100895 0)
(7.35591 0.00969548 0)
(7.35759 0.00925156 0)
(7.35927 0.00876034 0)
(7.36093 0.00822344 0)
(7.36258 0.00764159 0)
(7.36422 0.00701479 0)
(7.36584 0.00634236 0)
(7.36744 0.00562313 0)
(7.36903 0.00485552 0)
(7.3706 0.00403772 0)
(7.37215 0.00316775 0)
(7.37367 0.0022436 0)
(7.37517 0.00126302 0)
(7.33301 0.000603328 0)
(7.33307 0.00178429 0)
(7.33321 0.00294171 0)
(7.33344 0.00406845 0)
(7.33382 0.00514427 0)
(7.33435 0.00614354 0)
(7.33506 0.00704214 0)
(7.33594 0.00782277 0)
(7.33698 0.00847602 0)
(7.33815 0.00899937 0)
(7.33944 0.00939564 0)
(7.34082 0.00967137 0)
(7.34228 0.00983532 0)
(7.34381 0.00989726 0)
(7.34537 0.00986702 0)
(7.34697 0.00975401 0)
(7.34858 0.00956676 0)
(7.35021 0.00931274 0)
(7.35185 0.00899832 0)
(7.35349 0.00862871 0)
(7.35512 0.00820804 0)
(7.35674 0.00773943 0)
(7.35836 0.00722506 0)
(7.35996 0.00666629 0)
(7.36155 0.00606373 0)
(7.36313 0.0054174 0)
(7.36469 0.00472678 0)
(7.36623 0.00399097 0)
(7.36775 0.00320879 0)
(7.36924 0.00237892 0)
(7.37072 0.00149994 0)
(7.37216 0.000570381 0)
(7.37358 -0.000411375 0)
(7.33301 0.000578783 0)
(7.33308 0.00171704 0)
(7.33322 0.00281866 0)
(7.33346 0.00386801 0)
(7.33383 0.00484598 0)
(7.33435 0.00573292 0)
(7.33502 0.00651232 0)
(7.33584 0.00717361 0)
(7.33681 0.00771238 0)
(7.33791 0.00812937 0)
(7.33913 0.00842919 0)
(7.34043 0.00861895 0)
(7.34182 0.0087072 0)
(7.34326 0.00870295 0)
(7.34475 0.00861509 0)
(7.34628 0.00845191 0)
(7.34783 0.00822087 0)
(7.34939 0.00792843 0)
(7.35097 0.00758004 0)
(7.35254 0.00718015 0)
(7.35412 0.00673224 0)
(7.35568 0.00623892 0)
(7.35724 0.005702 0)
(7.35879 0.00512259 0)
(7.36032 0.00450119 0)
(7.36183 0.00383782 0)
(7.36333 0.00313208 0)
(7.36481 0.0023833 0)
(7.36626 0.00159062 0)
(7.36769 0.000753059 0)
(7.36909 -0.000130358 0)
(7.37046 -0.00106067 0)
(7.37181 -0.00203907 0)
(7.33301 0.000554132 0)
(7.33307 0.00164919 0)
(7.3332 0.00269712 0)
(7.33341 0.00367346 0)
(7.33374 0.00455957 0)
(7.3342 0.00534065 0)
(7.33481 0.0060067 0)
(7.33556 0.00655317 0)
(7.33645 0.00698042 0)
(7.33747 0.00729247 0)
(7.3386 0.00749584 0)
(7.33982 0.00759852 0)
(7.34113 0.00760915 0)
(7.34249 0.0075363 0)
(7.34391 0.00738814 0)
(7.34536 0.00717211 0)
(7.34684 0.00689474 0)
(7.34834 0.00656165 0)
(7.34985 0.00617748 0)
(7.35136 0.00574598 0)
(7.35288 0.00527004 0)
(7.35438 0.0047518 0)
(7.35589 0.00419272 0)
(7.35737 0.00359367 0)
(7.35885 0.00295504 0)
(7.3603 0.00227683 0)
(7.36174 0.0015587 0)
(7.36316 0.000800163 0)
(7.36455 5.62686e-07 0)
(7.36591 -0.000840781 0)
(7.36725 -0.00172457 0)
(7.36855 -0.00265152 0)
(7.36982 -0.00362252 0)
(7.33301 0.000533659 0)
(7.33305 0.00159363 0)
(7.33313 0.00259607 0)
(7.33329 0.00350691 0)
(7.33354 0.00430766 0)
(7.33392 0.00498814 0)
(7.33443 0.00554449 0)
(7.33509 0.00597817 0)
(7.33588 0.00629439 0)
(7.3368 0.00650066 0)
(7.33783 0.00660566 0)
(7.33896 0.00661854 0)
(7.34018 0.00654827 0)
(7.34146 0.00640328 0)
(7.34279 0.00619122 0)
(7.34417 0.00591885 0)
(7.34558 0.00559196 0)
(7.34701 0.00521538 0)
(7.34846 0.00479307 0)
(7.34991 0.00432813 0)
(7.35137 0.00382292 0)
(7.35282 0.00327913 0)
(7.35426 0.00269788 0)
(7.3557 0.00207981 0)
(7.35712 0.00142516 0)
(7.35852 0.000733865 0)
(7.3599 5.64986e-06 0)
(7.36126 -0.000759917 0)
(7.36259 -0.00156332 0)
(7.3639 -0.00240508 0)
(7.36517 -0.00328568 0)
(7.36642 -0.00420564 0)
(7.36762 -0.00516564 0)
(7.333 0.000521993 0)
(7.33301 0.00156465 0)
(7.33303 0.00253695 0)
(7.33309 0.00339373 0)
(7.33323 0.00411684 0)
(7.33348 0.00470122 0)
(7.33387 0.00514963 0)
(7.3344 0.00547002 0)
(7.33507 0.005673 0)
(7.33587 0.00576998 0)
(7.33679 0.00577221 0)
(7.33782 0.00569031 0)
(7.33893 0.00553388 0)
(7.34012 0.00531144 0)
(7.34137 0.00503034 0)
(7.34267 0.00469681 0)
(7.34401 0.004316 0)
(7.34537 0.00389209 0)
(7.34676 0.00342838 0)
(7.34815 0.00292738 0)
(7.34955 0.00239095 0)
(7.35095 0.00182034 0)
(7.35235 0.00121633 0)
(7.35373 0.000579297 0)
(7.3551 -9.0689e-05 0)
(7.35645 -0.000793792 0)
(7.35779 -0.00153032 0)
(7.35909 -0.00230068 0)
(7.36038 -0.00310529 0)
(7.36163 -0.00394457 0)
(7.36285 -0.0048189 0)
(7.36404 -0.00572868 0)
(7.36519 -0.00667447 0)
(7.333 0.000525038 0)
(7.33296 0.00158038 0)
(7.33286 0.00254687 0)
(7.33278 0.00336582 0)
(7.33276 0.00402049 0)
(7.33285 0.00451239 0)
(7.33308 0.00485221 0)
(7.33345 0.00505564 0)
(7.33396 0.00513962 0)
(7.33462 0.00512021 0)
(7.33541 0.00501183 0)
(7.33632 0.00482697 0)
(7.33733 0.00457625 0)
(7.33842 0.00426852 0)
(7.33958 0.003911 0)
(7.34081 0.00350953 0)
(7.34207 0.00306874 0)
(7.34338 0.0025922 0)
(7.3447 0.00208259 0)
(7.34605 0.00154188 0)
(7.3474 0.000971367 0)
(7.34875 0.000371878 0)
(7.3501 -0.000256193 0)
(7.35144 -0.000912757 0)
(7.35277 -0.00159798 0)
(7.35409 -0.00231216 0)
(7.35538 -0.00305573 0)
(7.35664 -0.00382913 0)
(7.35788 -0.0046328 0)
(7.35909 -0.00546715 0)
(7.36027 -0.00633253 0)
(7.36142 -0.00722929 0)
(7.36252 -0.00815797 0)
(7.33299 0.000551395 0)
(7.33287 0.00166666 0)
(7.33262 0.00266345 0)
(7.33233 0.00346649 0)
(7.33209 0.004063 0)
(7.33196 0.00446398 0)
(7.33197 0.00469055 0)
(7.33213 0.00476828 0)
(7.33247 0.00472212 0)
(7.33296 0.00457391 0)
(7.33361 0.00434204 0)
(7.33438 0.00404153 0)
(7.33528 0.00368437 0)
(7.33628 0.00327998 0)
(7.33736 0.00283566 0)
(7.33851 0.00235696 0)
(7.33971 0.001848 0)
(7.34096 0.00131177 0)
(7.34224 0.000750328 0)
(7.34354 0.000165006 0)
(7.34486 -0.000443436 0)
(7.34618 -0.0010747 0)
(7.3475 -0.00172881 0)
(7.34881 -0.00240607 0)
(7.35011 -0.00310691 0)
(7.35139 -0.0038319 0)
(7.35266 -0.00458163 0)
(7.3539 -0.00535668 0)
(7.35511 -0.00615758 0)
(7.35629 -0.00698482 0)
(7.35744 -0.0078388 0)
(7.35855 -0.00871993 0)
(7.35962 -0.00962874 0)
(7.33299 0.0006149 0)
(7.33274 0.00186338 0)
(7.33225 0.00294254 0)
(7.33167 0.00375762 0)
(7.33112 0.0043056 0)
(7.33069 0.00461211 0)
(7.33042 0.00471313 0)
(7.33033 0.00464781 0)
(7.33045 0.00445167 0)
(7.33076 0.00415411 0)
(7.33125 0.00377858 0)
(7.33189 0.00334331 0)
(7.33268 0.00286212 0)
(7.33359 0.00234523 0)
(7.3346 0.00180007 0)
(7.33569 0.00123187 0)
(7.33685 0.000644197 0)
(7.33807 3.93602e-05 0)
(7.33932 -0.000581322 0)
(7.3406 -0.00121724 0)
(7.34189 -0.00186832 0)
(7.3432 -0.00253488 0)
(7.34451 -0.00321751 0)
(7.34581 -0.00391697 0)
(7.3471 -0.0046341 0)
(7.34837 -0.00536981 0)
(7.34962 -0.00612496 0)
(7.35085 -0.00690036 0)
(7.35205 -0.00769675 0)
(7.35321 -0.00851475 0)
(7.35435 -0.00935492 0)
(7.35544 -0.0102178 0)
(7.3565 -0.0111039 0)
(7.33297 0.000739489 0)
(7.33253 0.00223574 0)
(7.33168 0.00347056 0)
(7.33067 0.00433034 0)
(7.32969 0.00483392 0)
(7.32886 0.0050307 0)
(7.32823 0.00497928 0)
(7.32785 0.00473864 0)
(7.32773 0.00435884 0)
(7.32784 0.00387912 0)
(7.32817 0.00332943 0)
(7.3287 0.00273192 0)
(7.3294 0.00210246 0)
(7.33025 0.00145203 0)
(7.33121 0.000787998 0)
(7.33228 0.000115078 0)
(7.33342 -0.000563992 0)
(7.33463 -0.00124786 0)
(7.33588 -0.0019362 0)
(7.33717 -0.00262934 0)
(7.33847 -0.00332813 0)
(7.33979 -0.00403366 0)
(7.34111 -0.00474727 0)
(7.34242 -0.00547033 0)
(7.34373 -0.00620423 0)
(7.34501 -0.00695033 0)
(7.34628 -0.0077099 0)
(7.34751 -0.00848408 0)
(7.34872 -0.0092739 0)
(7.34989 -0.0100802 0)
(7.35103 -0.0109039 0)
(7.35212 -0.0117454 0)
(7.35318 -0.0126058 0)
(7.33295 0.000969227 0)
(7.33217 0.00289436 0)
(7.33075 0.00438401 0)
(7.32911 0.00531966 0)
(7.32754 0.00576628 0)
(7.32618 0.00581323 0)
(7.32513 0.00555573 0)
(7.32442 0.00508277 0)
(7.32404 0.00446453 0)
(7.32397 0.00375283 0)
(7.32418 0.00298526 0)
(7.32463 0.00218812 0)
(7.32529 0.00137896 0)
(7.32611 0.000568922 0)
(7.32708 -0.00023533 0)
(7.32817 -0.00103029 0)
(7.32934 -0.00181462 0)
(7.33059 -0.00258846 0)
(7.33188 -0.00335288 0)
(7.33321 -0.00410957 0)
(7.33457 -0.00486056 0)
(7.33593 -0.00560807 0)
(7.3373 -0.00635432 0)
(7.33866 -0.00710155 0)
(7.34001 -0.00785185 0)
(7.34133 -0.00860719 0)
(7.34263 -0.00936936 0)
(7.34391 -0.01014 0)
(7.34514 -0.0109204 0)
(7.34635 -0.0117119 0)
(7.34751 -0.0125155 0)
(7.34863 -0.0133321 0)
(7.3497 -0.0141628 0)
(7.3329 0.00139214 0)
(7.33153 0.00403429 0)
(7.32919 0.0058996 0)
(7.32662 0.00692054 0)
(7.32425 0.00725684 0)
(7.32225 0.00706575 0)
(7.32072 0.00650314 0)
(7.31968 0.00570354 0)
(7.31908 0.00476355 0)
(7.31889 0.00374924 0)
(7.31904 0.00270566 0)
(7.31948 0.00166203 0)
(7.32017 0.000635935 0)
(7.32106 -0.000362971 0)
(7.3221 -0.00133019 0)
(7.32328 -0.00226463 0)
(7.32455 -0.00316735 0)
(7.32589 -0.00404078 0)
(7.32729 -0.00488809 0)
(7.32872 -0.0057128 0)
(7.33017 -0.0065186 0)
(7.33163 -0.0073091 0)
(7.33309 -0.00808777 0)
(7.33454 -0.00885789 0)
(7.33596 -0.00962245 0)
(7.33737 -0.0103842 0)
(7.33874 -0.0111456 0)
(7.34008 -0.0119087 0)
(7.34138 -0.0126756 0)
(7.34264 -0.0134478 0)
(7.34386 -0.0142268 0)
(7.34503 -0.0150137 0)
(7.34615 -0.0158099 0)
(7.33278 0.0021955 0)
(7.33032 0.00601757 0)
(7.32651 0.00836955 0)
(7.32261 0.00940637 0)
(7.3192 0.00948387 0)
(7.31647 0.00887674 0)
(7.31447 0.00783942 0)
(7.31316 0.00656986 0)
(7.31246 0.0051931 0)
(7.31226 0.00378644 0)
(7.31248 0.00239834 0)
(7.31305 0.00105673 0)
(7.31389 -0.000224624 0)
(7.31495 -0.00144063 0)
(7.31617 -0.00259133 0)
(7.31753 -0.0036798 0)
(7.31899 -0.00471091 0)
(7.32051 -0.00569034 0)
(7.32208 -0.00662415 0)
(7.32369 -0.00751829 0)
(7.3253 -0.00837853 0)
(7.32692 -0.00921025 0)
(7.32852 -0.0100184 0)
(7.33011 -0.0108076 0)
(7.33167 -0.0115818 0)
(7.3332 -0.0123448 0)
(7.33468 -0.0130997 0)
(7.33613 -0.0138493 0)
(7.33753 -0.0145962 0)
(7.33889 -0.0153425 0)
(7.34019 -0.0160901 0)
(7.34144 -0.0168404 0)
(7.34264 -0.0175952 0)
(7.33249 0.00374052 0)
(7.32795 0.00949194 0)
(7.32175 0.0123752 0)
(7.31603 0.0131801 0)
(7.31142 0.0126553 0)
(7.30798 0.011292 0)
(7.30567 0.00950406 0)
(7.30431 0.00756178 0)
(7.30371 0.0056037 0)
(7.30373 0.00370377 0)
(7.30422 0.00190272 0)
(7.3051 0.000218162 0)
(7.30626 -0.00134697 0)
(7.30765 -0.00279716 0)
(7.3092 -0.00414038 0)
(7.31088 -0.00538633 0)
(7.31264 -0.00654534 0)
(7.31446 -0.00762766 0)
(7.31631 -0.00864303 0)
(7.31818 -0.00960049 0)
(7.32004 -0.0105083 0)
(7.32189 -0.011374 0)
(7.32372 -0.0122041 0)
(7.32552 -0.0130048 0)
(7.32728 -0.0137811 0)
(7.32899 -0.0145378 0)
(7.33065 -0.015279 0)
(7.33226 -0.016008 0)
(7.33381 -0.0167281 0)
(7.33531 -0.0174418 0)
(7.33674 -0.0181514 0)
(7.33812 -0.0188588 0)
(7.33943 -0.019566 0)
(7.33193 0.00664032 0)
(7.32329 0.0152934 0)
(7.31325 0.0184852 0)
(7.30522 0.0185735 0)
(7.29944 0.0168819 0)
(7.29558 0.0142382 0)
(7.29334 0.0113085 0)
(7.29234 0.00842445 0)
(7.29223 0.00569659 0)
(7.29281 0.0031694 0)
(7.29389 0.000861907 0)
(7.29536 -0.00122875 0)
(7.2971 -0.00311862 0)
(7.29905 -0.00482744 0)
(7.30114 -0.00637499 0)
(7.30333 -0.00778038 0)
(7.30558 -0.00906165 0)
(7.30785 -0.0102353 0)
(7.31014 -0.0113162 0)
(7.31241 -0.0123174 0)
(7.31466 -0.0132508 0)
(7.31687 -0.0141264 0)
(7.31903 -0.0149534 0)
(7.32115 -0.0157394 0)
(7.3232 -0.0164914 0)
(7.32519 -0.0172152 0)
(7.32711 -0.0179159 0)
(7.32896 -0.0185981 0)
(7.33074 -0.0192654 0)
(7.33245 -0.0199213 0)
(7.33408 -0.0205685 0)
(7.33564 -0.0212096 0)
(7.33712 -0.0218471 0)
(7.33069 0.0134352 0)
(7.31368 0.025209 0)
(7.29797 0.026717 0)
(7.28753 0.0249972 0)
(7.28098 0.0216513 0)
(7.27735 0.017521 0)
(7.27593 0.0134392 0)
(7.27598 0.00969758 0)
(7.27699 0.00629707 0)
(7.27869 0.00321843 0)
(7.28089 0.000449595 0)
(7.28343 -0.0020323 0)
(7.2862 -0.00425785 0)
(7.28913 -0.00625651 0)
(7.29214 -0.00805449 0)
(7.29519 -0.00967575 0)
(7.29825 -0.0111423 0)
(7.30129 -0.0124741 0)
(7.30428 -0.0136887 0)
(7.30722 -0.0148017 0)
(7.31009 -0.0158268 0)
(7.31288 -0.0167762 0)
(7.31558 -0.0176604 0)
(7.3182 -0.0184887 0)
(7.32072 -0.0192691 0)
(7.32315 -0.0200089 0)
(7.32548 -0.020714 0)
(7.32771 -0.0213898 0)
(7.32985 -0.0220409 0)
(7.33189 -0.0226712 0)
(7.33384 -0.0232842 0)
(7.33569 -0.0238823 0)
(7.33744 -0.0244679 0)
(7.32456 0.0347131 0)
(7.28958 0.0467057 0)
(7.26765 0.0370845 0)
(7.25765 0.0262598 0)
(7.25264 0.0167264 0)
(7.25096 0.00874803 0)
(7.25187 0.00250326 0)
(7.25427 -0.00234186 0)
(7.2575 -0.00618211 0)
(7.26132 -0.00925454 0)
(7.26556 -0.0117283 0)
(7.27004 -0.0137437 0)
(7.27465 -0.015411 0)
(7.27931 -0.0168096 0)
(7.28396 -0.017997 0)
(7.28854 -0.0190174 0)
(7.29303 -0.0199054 0)
(7.29741 -0.0206883 0)
(7.30166 -0.0213874 0)
(7.30576 -0.0220193 0)
(7.30972 -0.0225976 0)
(7.31352 -0.0231329 0)
(7.31716 -0.0236339 0)
(7.32065 -0.0241077 0)
(7.32399 -0.0245598 0)
(7.32717 -0.0249951 0)
(7.33021 -0.0254172 0)
(7.3331 -0.0258295 0)
(7.33584 -0.0262346 0)
(7.33845 -0.0266349 0)
(7.34092 -0.0270326 0)
(7.34326 -0.02743 0)
(7.34548 -0.0278299 0)
(7.29575 0.0823964 0)
(7.21821 0.127207 0)
(7.1868 0.128808 0)
(7.18645 0.114379 0)
(7.19338 0.0947859 0)
(7.20248 0.0767468 0)
(7.21296 0.061539 0)
(7.22375 0.0483341 0)
(7.23444 0.0367089 0)
(7.24497 0.0265742 0)
(7.25523 0.0178513 0)
(7.26511 0.0103858 0)
(7.27454 0.00400998 0)
(7.28351 -0.00142472 0)
(7.29201 -0.00605021 0)
(7.30004 -0.0099857 0)
(7.30763 -0.0133366 0)
(7.31479 -0.0161934 0)
(7.32153 -0.0186333 0)
(7.32788 -0.0207215 0)
(7.33385 -0.0225133 0)
(7.33947 -0.0240552 0)
(7.34475 -0.0253868 0)
(7.34971 -0.0265409 0)
(7.35437 -0.0275456 0)
(7.35874 -0.0284243 0)
(7.36284 -0.0291968 0)
(7.36668 -0.0298798 0)
(7.37027 -0.0304874 0)
(7.37364 -0.0310313 0)
(7.37678 -0.0315212 0)
(7.3797 -0.0319645 0)
(7.38242 -0.0323698 0)
(7.32909 -0.158987 0)
(7.19612 -0.292899 0)
(7.13085 -0.292311 0)
(7.10898 -0.259648 0)
(7.10972 -0.226679 0)
(7.13037 -0.19575 0)
(7.16107 -0.167839 0)
(7.19443 -0.144105 0)
(7.22758 -0.124635 0)
(7.25931 -0.108756 0)
(7.28884 -0.0957759 0)
(7.31576 -0.085175 0)
(7.34003 -0.0765316 0)
(7.36177 -0.0694803 0)
(7.38117 -0.0637142 0)
(7.39842 -0.058986 0)
(7.41372 -0.0550989 0)
(7.42727 -0.0518947 0)
(7.43923 -0.0492457 0)
(7.44979 -0.0470493 0)
(7.45908 -0.0452231 0)
(7.46724 -0.0437007 0)
(7.47438 -0.0424283 0)
(7.48062 -0.0413627 0)
(7.48604 -0.0404687 0)
(7.49073 -0.0397176 0)
(7.49476 -0.0390862 0)
(7.49821 -0.0385553 0)
(7.50112 -0.0381093 0)
(7.50356 -0.0377352 0)
(7.50557 -0.0374217 0)
(7.50719 -0.0371601 0)
(7.50849 -0.0369384 0)
(7.33045 1.21807 0)
(7.6376 1.24116 0)
(7.81729 0.934087 0)
(7.87343 0.662121 0)
(7.88532 0.46234 0)
(7.87662 0.320594 0)
(7.85215 0.220101 0)
(7.81687 0.148063 0)
(7.77613 0.0958198 0)
(7.7334 0.057654 0)
(7.69028 0.0296479 0)
(7.64756 0.00902617 0)
(7.60576 -0.00618913 0)
(7.56523 -0.017409 0)
(7.52615 -0.0256504 0)
(7.48857 -0.0316571 0)
(7.45251 -0.0359796 0)
(7.41793 -0.039028 0)