/*--------------------------------*- C++ -*----------------------------------*\
  =========                 |
  \\      /  F ield         | OpenFOAM: The Open Source CFD Toolbox
   \\    /   O peration     | Website:  https://openfoam.org
    \\  /    A nd           | Version:  10
     \\/     M anipulation  |
\*---------------------------------------------------------------------------*/
FoamFile
{
    format      ascii;
    class       volScalarField;
    location    "1000";
    object      yPlus;
}
// * * * * * * * * * * * * * * * * * * * * * * * * * * * * * * * * * * * * * //

dimensions      [0 0 0 0 0 0 0];

internalField   uniform 0;

boundaryField
{
    outlet
    {
        type            calculated;
        value           uniform 0;
    }
    inlet
    {
        type            calculated;
        value           uniform 0;
    }
    lowerWall
    {
        type            calculated;
        value           nonuniform List<scalar> 
148
(
12.7112
17.6462
20.7197
22.3203
23.0459
23.2746
23.2254
23.0255
22.751
22.4469
22.1389
21.8405
21.5586
21.2962
21.0538
20.8308
20.626
20.4378
20.2649
20.1058
19.959
19.8234
19.6978
19.5813
19.473
19.372
19.2777
19.1894
19.1062
19.029
18.9497
18.9046
18.7153
0.39844
2.16371
3.901
5.23301
6.33087
7.24814
8.11443
8.98541
9.8511
10.8011
10.7412
10.9869
11.8225
12.2229
14.921
0.39844
3.35758
4.97555
5.74125
5.92525
5.79349
5.49123
5.0984
4.57357
3.28996
6.61399
4.57954
9.87615
13.9204
18.5413
22.1015
25.1152
27.7532
30.1067
32.2279
34.148
35.8884
37.4675
38.9027
40.2123
41.4141
42.5258
43.5629
44.5395
45.4668
46.3538
47.2077
48.0336
48.8358
49.6182
50.3847
51.1405
51.8919
52.644
53.3811
54.1088
54.8274
55.5362
56.234
56.9196
57.5912
58.2471
58.8856
59.5047
60.1022
60.6762
61.2242
61.7442
62.2337
62.6904
63.1119
63.496
63.8404
64.1433
64.4029
64.618
64.7872
64.9098
64.9854
65.0131
64.993
64.9249
64.8082
64.6419
64.4213
64.1854
63.949
63.6649
63.3333
62.9634
62.5627
62.1372
61.6903
61.2257
60.7469
60.2566
59.7578
59.2535
58.7461
58.2381
57.7316
57.2285
56.7305
56.2392
55.756
55.2821
54.8195
54.3683
53.9323
53.5097
53.1089
52.7265
52.3796
52.0771
51.8315
)
;
    }
    upperWall
    {
        type            calculated;
        value           nonuniform List<scalar> 
133
(
31.2591
34.0073
36.6584
39.0132
41.0752
42.889
44.4881
45.8973
47.1377
48.2283
49.1859
50.0257
50.7609
51.4035
51.9643
52.4525
52.8767
53.2444
53.562
53.8356
54.0702
54.2704
54.4403
54.5834
54.703
54.8016
54.882
54.9462
54.9961
55.0334
55.0597
55.0762
55.0844
55.0839
55.0724
55.05
55.0172
54.9744
54.9223
54.8612
54.7918
54.7145
54.6297
54.5378
54.4392
54.3342
54.2231
54.1063
53.9838
53.8559
53.7229
53.5847
53.4416
53.2936
53.1408
52.983
52.8204
52.6529
52.4803
52.3026
52.1195
51.931
51.737
51.537
51.331
51.1187
50.8998
50.6741
50.4413
50.2012
49.9534
49.6977
49.4339
49.1617
48.881
48.5914
48.293
47.9855
47.6689
47.3432
47.0084
46.6647
46.3121
45.951
45.5818
45.2048
44.8206
44.4298
44.0332
43.6317
43.2262
42.8178
42.4077
41.9972
41.5877
41.1807
40.7778
40.3803
39.9902
39.6089
39.238
38.879
38.5335
38.2027
37.8877
37.5895
37.309
37.0466
36.8027
36.5773
36.3702
36.181
36.0091
35.8535
35.7133
35.5872
35.4741
35.3723
35.2807
35.1975
35.1217
35.0516
34.9861
34.9237
34.8634
34.8037
34.7442
34.6833
34.6201
34.555
34.4809
34.4211
34.2885
)
;
    }
    frontAndBack
    {
        type            empty;
    }
}


// ************************************************************************* //
