# y+ ()       
# Time        	patch         	min           	max           	average       
1400          	lowerWall	4.899538e+00	8.067985e+01	4.351139e+01
1400          	upperWall	3.060454e+01	4.715186e+01	4.145171e+01
