/*--------------------------------*- C++ -*----------------------------------*\
  =========                 |
  \\      /  F ield         | OpenFOAM: The Open Source CFD Toolbox
   \\    /   O peration     | Website:  https://openfoam.org
    \\  /    A nd           | Version:  10
     \\/     M anipulation  |
\*---------------------------------------------------------------------------*/
FoamFile
{
    format      ascii;
    class       volScalarField;
    location    "1700";
    object      k;
}
// * * * * * * * * * * * * * * * * * * * * * * * * * * * * * * * * * * * * * //

dimensions      [0 2 -2 0 0 0 0];

internalField   nonuniform List<scalar> 
6820
(
0.318932
0.614648
0.847396
0.983377
1.04836
1.06927
1.06475
1.0465
1.0217
0.994573
0.96746
0.941557
0.917415
0.895217
0.874954
0.856515
0.839753
0.824504
0.810612
0.797928
0.786322
0.775673
0.765879
0.756846
0.748495
0.740753
0.733556
0.72685
0.720564
0.714748
0.708774
0.705778
0.691025
0.838908
1.45739
1.5306
1.40689
1.25037
1.11087
0.996111
0.903238
0.827887
0.76631
0.715544
0.673419
0.638188
0.608546
0.583483
0.562195
0.544041
0.528503
0.515163
0.50368
0.493771
0.485204
0.477784
0.47135
0.465767
0.46092
0.456714
0.45307
0.449918
0.447229
0.444902
0.443164
0.441273
0.379893
0.662258
0.793337
0.827974
0.818185
0.790402
0.756381
0.721169
0.686891
0.654427
0.624111
0.596043
0.570195
0.546474
0.524757
0.504903
0.48677
0.470214
0.455101
0.441303
0.428702
0.417191
0.406671
0.397051
0.388251
0.380196
0.37282
0.366064
0.359872
0.354202
0.349004
0.344258
0.3399
0.246132
0.3393
0.411878
0.458885
0.485704
0.49888
0.503287
0.502158
0.497535
0.490704
0.482486
0.473435
0.46393
0.454239
0.44455
0.434992
0.425659
0.41661
0.407888
0.399514
0.391503
0.383859
0.376578
0.369655
0.363079
0.356841
0.350925
0.34532
0.340011
0.334984
0.330225
0.325724
0.321455
0.216724
0.25341
0.285799
0.312244
0.332455
0.347125
0.357301
0.364011
0.368096
0.370197
0.370789
0.37023
0.368792
0.366686
0.364075
0.361089
0.357829
0.354377
0.350797
0.347142
0.343452
0.33976
0.33609
0.332465
0.328898
0.325402
0.321987
0.318658
0.315421
0.312279
0.309234
0.306289
0.303441
0.2067
0.22375
0.239981
0.254416
0.266684
0.276738
0.28477
0.291069
0.295923
0.299585
0.302262
0.304127
0.305322
0.305962
0.306143
0.305944
0.305432
0.304663
0.303682
0.30253
0.30124
0.299841
0.298355
0.296804
0.295204
0.293571
0.291915
0.290249
0.28858
0.286917
0.285265
0.283631
0.28202
0.202776
0.211442
0.220463
0.228911
0.236465
0.243012
0.248579
0.253258
0.257158
0.260378
0.263012
0.265139
0.26683
0.268145
0.269136
0.269846
0.270314
0.270573
0.270652
0.270576
0.270366
0.270042
0.26962
0.269115
0.26854
0.267905
0.267222
0.266498
0.265741
0.264958
0.264155
0.263338
0.262512
0.201168
0.205683
0.210952
0.216189
0.221064
0.22544
0.229296
0.232659
0.235575
0.238089
0.240245
0.242083
0.243642
0.244952
0.246043
0.246939
0.247664
0.248237
0.248676
0.248995
0.249208
0.249329
0.249367
0.249332
0.249234
0.24908
0.248876
0.24863
0.248347
0.248032
0.24769
0.247325
0.246941
0.200484
0.202809
0.205913
0.20924
0.212483
0.215494
0.218222
0.220663
0.222834
0.224755
0.226448
0.227934
0.229235
0.230369
0.231352
0.232201
0.232928
0.233546
0.234066
0.234497
0.234849
0.23513
0.235347
0.235505
0.235613
0.235673
0.235692
0.235675
0.235624
0.235544
0.235438
0.23531
0.235162
0.200184
0.20134
0.203132
0.205234
0.207404
0.209501
0.211457
0.21325
0.214879
0.216349
0.217669
0.218852
0.219908
0.220849
0.221684
0.222423
0.223075
0.223648
0.224148
0.224583
0.224958
0.225279
0.225551
0.225778
0.225964
0.226113
0.226229
0.226315
0.226373
0.226407
0.226419
0.226411
0.226386
0.200051
0.200588
0.201579
0.202869
0.204298
0.205746
0.207146
0.208465
0.209689
0.210815
0.211845
0.212781
0.213631
0.214399
0.215093
0.215717
0.216278
0.21678
0.217229
0.217628
0.217983
0.218295
0.21857
0.21881
0.219018
0.219197
0.219349
0.219477
0.219583
0.219669
0.219737
0.219789
0.219826
0.199992
0.200208
0.200718
0.201471
0.202377
0.203351
0.204335
0.205293
0.206205
0.207061
0.207858
0.208595
0.209273
0.209895
0.210464
0.210983
0.211456
0.211885
0.212274
0.212626
0.212943
0.213229
0.213485
0.213714
0.213918
0.214099
0.214259
0.2144
0.214523
0.21463
0.214722
0.214801
0.214867
0.199966
0.200017
0.200248
0.200654
0.201196
0.201823
0.202489
0.203165
0.203829
0.204469
0.205076
0.205648
0.206182
0.206679
0.20714
0.207565
0.207957
0.208317
0.208647
0.208949
0.209225
0.209477
0.209706
0.209915
0.210103
0.210274
0.210428
0.210566
0.21069
0.210802
0.210901
0.21099
0.211068
0.199954
0.199924
0.199997
0.200187
0.200483
0.200858
0.201286
0.201741
0.202206
0.202669
0.203119
0.203552
0.203964
0.204353
0.204718
0.20506
0.205379
0.205675
0.20595
0.206204
0.206439
0.206655
0.206855
0.207038
0.207206
0.207359
0.2075
0.207629
0.207746
0.207853
0.207951
0.20804
0.208121
0.199949
0.199879
0.199866
0.199926
0.200061
0.200262
0.200513
0.200799
0.201107
0.201425
0.201744
0.20206
0.202367
0.202662
0.202944
0.203212
0.203464
0.203702
0.203925
0.204134
0.204329
0.20451
0.204678
0.204835
0.20498
0.205114
0.205239
0.205354
0.20546
0.205558
0.205649
0.205732
0.20581
0.199947
0.199858
0.199799
0.199785
0.19982
0.199903
0.200029
0.200189
0.200374
0.200577
0.200789
0.201006
0.201223
0.201437
0.201646
0.201847
0.202041
0.202225
0.202401
0.202566
0.202723
0.20287
0.203009
0.203138
0.20326
0.203373
0.20348
0.203579
0.203672
0.203758
0.203839
0.203914
0.203985
0.199947
0.199848
0.199766
0.19971
0.199685
0.199693
0.199734
0.199804
0.199898
0.20001
0.200137
0.200273
0.200415
0.20056
0.200704
0.200848
0.200988
0.201124
0.201256
0.201382
0.201503
0.201618
0.201727
0.201831
0.201929
0.202021
0.202109
0.202191
0.202269
0.202343
0.202412
0.202478
0.202539
0.199946
0.199843
0.19975
0.199672
0.199612
0.199575
0.19956
0.199568
0.199596
0.199642
0.199702
0.199774
0.199855
0.199941
0.200032
0.200125
0.200219
0.200312
0.200404
0.200494
0.200582
0.200667
0.200749
0.200827
0.200903
0.200975
0.201044
0.20111
0.201172
0.201232
0.201289
0.201344
0.201396
0.199946
0.199841
0.199743
0.199652
0.199574
0.199509
0.19946
0.199428
0.199411
0.199409
0.19942
0.199443
0.199475
0.199515
0.199562
0.199612
0.199666
0.199723
0.19978
0.199838
0.199896
0.199954
0.20001
0.200066
0.20012
0.200172
0.200223
0.200273
0.200321
0.200367
0.200412
0.200455
0.200497
0.199946
0.199841
0.199739
0.199643
0.199554
0.199474
0.199405
0.199347
0.199301
0.199266
0.199243
0.19923
0.199226
0.19923
0.199241
0.199257
0.199279
0.199304
0.199332
0.199363
0.199395
0.199428
0.199462
0.199497
0.199532
0.199567
0.199601
0.199635
0.199669
0.199703
0.199736
0.199768
0.1998
0.199946
0.19984
0.199737
0.199638
0.199544
0.199456
0.199375
0.199302
0.199237
0.199181
0.199135
0.199097
0.199067
0.199044
0.199029
0.199019
0.199015
0.199016
0.19902
0.199028
0.199039
0.199052
0.199067
0.199084
0.199102
0.199121
0.199141
0.199162
0.199183
0.199205
0.199227
0.19925
0.199272
0.199946
0.19984
0.199736
0.199636
0.199539
0.199446
0.199359
0.199277
0.199202
0.199133
0.199071
0.199017
0.19897
0.198929
0.198895
0.198866
0.198843
0.198825
0.198812
0.198802
0.198796
0.198793
0.198793
0.198796
0.1988
0.198807
0.198815
0.198825
0.198836
0.198848
0.198861
0.198875
0.19889
0.199946
0.19984
0.199736
0.199635
0.199536
0.199441
0.19935
0.199264
0.199182
0.199106
0.199036
0.198972
0.198914
0.198861
0.198815
0.198774
0.198739
0.198708
0.198682
0.198661
0.198643
0.198629
0.198618
0.19861
0.198605
0.198602
0.198602
0.198603
0.198607
0.198611
0.198618
0.198625
0.198634
0.199946
0.19984
0.199736
0.199634
0.199535
0.199439
0.199346
0.199257
0.199173
0.199093
0.199019
0.19895
0.198886
0.198828
0.198775
0.198728
0.198686
0.198648
0.198616
0.198587
0.198563
0.198543
0.198526
0.198512
0.198501
0.198493
0.198488
0.198484
0.198483
0.198483
0.198485
0.198489
0.198494
0.199946
0.19984
0.199735
0.199633
0.199534
0.199438
0.199345
0.199255
0.19917
0.19909
0.199015
0.198945
0.19888
0.198821
0.198767
0.198719
0.198676
0.198637
0.198603
0.198574
0.198549
0.198527
0.198509
0.198494
0.198482
0.198473
0.198466
0.198462
0.198459
0.198459
0.19846
0.198462
0.198466
0.199946
0.199839
0.199735
0.199633
0.199534
0.199438
0.199346
0.199258
0.199175
0.199097
0.199024
0.198958
0.198897
0.198842
0.198793
0.198749
0.19871
0.198676
0.198647
0.198622
0.198601
0.198584
0.19857
0.198559
0.198551
0.198545
0.198541
0.198539
0.19854
0.198541
0.198544
0.198549
0.198554
0.199946
0.19984
0.199735
0.199634
0.199536
0.199442
0.199352
0.199268
0.19919
0.199118
0.199053
0.198995
0.198944
0.198899
0.198861
0.198828
0.198801
0.198778
0.19876
0.198746
0.198735
0.198728
0.198724
0.198722
0.198722
0.198724
0.198728
0.198733
0.198739
0.198747
0.198755
0.198764
0.198774
0.199946
0.19984
0.199736
0.199636
0.199541
0.199451
0.199368
0.199292
0.199225
0.199167
0.199117
0.199075
0.199042
0.199016
0.198996
0.198983
0.198975
0.198971
0.198971
0.198975
0.198981
0.19899
0.199001
0.199013
0.199026
0.199041
0.199056
0.199072
0.199087
0.199104
0.19912
0.199136
0.199153
0.199946
0.199841
0.199739
0.199643
0.199554
0.199475
0.199405
0.199348
0.199302
0.199268
0.199245
0.199232
0.199229
0.199233
0.199243
0.19926
0.19928
0.199304
0.199331
0.19936
0.19939
0.199421
0.199452
0.199483
0.199514
0.199544
0.199574
0.199603
0.199631
0.199658
0.199684
0.19971
0.199734
0.199947
0.199843
0.199747
0.19966
0.199587
0.19953
0.199491
0.199468
0.199463
0.199472
0.199495
0.199529
0.199572
0.199622
0.199677
0.199736
0.199796
0.199858
0.199919
0.19998
0.20004
0.200098
0.200154
0.200208
0.200259
0.200308
0.200354
0.200398
0.20044
0.200478
0.200515
0.200549
0.200582
0.199948
0.19985
0.199767
0.199705
0.199669
0.199661
0.19968
0.199725
0.199791
0.199875
0.199971
0.200078
0.200189
0.200304
0.20042
0.200534
0.200645
0.200753
0.200857
0.200955
0.201049
0.201137
0.20122
0.201298
0.20137
0.201438
0.201501
0.201559
0.201612
0.201662
0.201708
0.20175
0.201788
0.199951
0.199869
0.199823
0.199821
0.199868
0.199962
0.200096
0.200262
0.200449
0.20065
0.200858
0.201067
0.201273
0.201472
0.201663
0.201844
0.202015
0.202175
0.202324
0.202462
0.202589
0.202707
0.202815
0.202914
0.203005
0.203088
0.203164
0.203232
0.203295
0.203351
0.203402
0.203447
0.203488
0.199959
0.199926
0.199977
0.200121
0.200351
0.200649
0.200993
0.201362
0.201739
0.202113
0.202473
0.202816
0.203137
0.203435
0.20371
0.203963
0.204193
0.204403
0.204593
0.204765
0.204921
0.205061
0.205187
0.205301
0.205402
0.205492
0.205573
0.205644
0.205707
0.205762
0.205811
0.205853
0.205889
0.199987
0.200103
0.200415
0.200903
0.201515
0.202193
0.20289
0.203572
0.204217
0.204816
0.205363
0.205858
0.206302
0.206698
0.207052
0.207365
0.207643
0.207888
0.208104
0.208295
0.208463
0.208609
0.208738
0.208849
0.208946
0.209029
0.2091
0.20916
0.20921
0.209252
0.209285
0.209311
0.20933
0.200091
0.200674
0.201674
0.202931
0.204281
0.205607
0.206838
0.207945
0.208922
0.209772
0.210508
0.211141
0.211683
0.212148
0.212546
0.212885
0.213174
0.213421
0.213629
0.213806
0.213954
0.214077
0.214179
0.214261
0.214327
0.214377
0.214415
0.21444
0.214455
0.21446
0.214457
0.214446
0.214429
0.200506
0.202612
0.20538
0.20823
0.210863
0.213156
0.215082
0.216669
0.217964
0.219015
0.219866
0.220552
0.221105
0.22155
0.221907
0.222191
0.222416
0.222592
0.222726
0.222824
0.222893
0.222937
0.222958
0.22296
0.222946
0.222917
0.222875
0.222821
0.222758
0.222686
0.222606
0.222518
0.222425
0.202133
0.209236
0.216717
0.222799
0.227378
0.23075
0.233208
0.234988
0.236273
0.237193
0.237847
0.238306
0.238619
0.238825
0.238946
0.239003
0.239008
0.238971
0.2389
0.238799
0.238674
0.238527
0.238362
0.238181
0.237986
0.237778
0.237559
0.237331
0.237094
0.23685
0.236599
0.236343
0.236082
0.208298
0.22678
0.244129
0.257372
0.266317
0.271773
0.274802
0.276303
0.276882
0.276921
0.276649
0.276201
0.275653
0.275051
0.274417
0.273765
0.273101
0.272428
0.271747
0.271059
0.270365
0.269665
0.268959
0.268248
0.267533
0.266815
0.266095
0.265374
0.264653
0.263933
0.263215
0.2625
0.261789
0.245775
0.310442
0.343758
0.358932
0.365582
0.368297
0.368993
0.368462
0.367138
0.3653
0.363136
0.360774
0.358305
0.355793
0.353284
0.350808
0.348387
0.346036
0.343763
0.341573
0.339469
0.337451
0.33552
0.333674
0.33191
0.330227
0.328621
0.32709
0.32563
0.32424
0.322916
0.321656
0.320455
0.214305
0.253643
0.294732
0.333812
0.370031
0.403432
0.434077
0.462012
0.487322
0.510132
0.530592
0.548864
0.565116
0.579516
0.592228
0.603409
0.613209
0.621766
0.629207
0.63565
0.641203
0.64596
0.650011
0.653433
0.656298
0.658668
0.660601
0.662146
0.66335
0.664251
0.664886
0.665285
0.665483
0.747841
0.847939
1.00741
1.19417
1.38573
1.56895
1.73747
1.88476
2.00466
2.09461
2.15613
2.19384
2.21357
2.22085
2.22011
2.21445
2.20583
2.19533
2.18354
2.17079
2.15732
2.14332
2.12896
2.11437
2.0996
2.08468
2.06956
2.05414
2.03827
2.0218
2.00454
1.98633
1.96698
1.94628
1.92406
1.90015
1.87445
1.84685
1.81729
1.78574
1.75219
1.71666
1.67924
1.64001
1.59915
1.55683
1.51331
1.46884
1.42372
1.37828
1.33286
1.28782
1.24353
1.20032
1.15855
1.11852
1.08052
1.04479
1.01154
0.980941
0.953097
0.928088
0.905944
0.886662
0.870201
0.856496
0.845452
0.83696
0.830891
0.827106
0.825455
0.825782
0.827923
0.831711
0.836974
0.843535
0.851215
0.859835
0.869215
0.879173
0.889535
0.900129
0.910787
0.92135
0.931669
0.941607
0.951036
0.959844
0.967929
0.975206
0.981595
0.98704
0.99148
0.994892
0.997224
0.998485
0.998659
0.997691
0.996137
0.99218
0.440581
0.450308
0.471152
0.505924
0.554813
0.617932
0.695428
0.78655
0.889199
0.999202
1.11043
1.21802
1.31813
1.40807
1.4863
1.55218
1.60589
1.64815
1.68029
1.70375
1.71995
1.73016
1.73547
1.73675
1.7347
1.72982
1.72253
1.7131
1.70174
1.68859
1.67374
1.65723
1.63909
1.61931
1.59787
1.57475
1.54994
1.52345
1.4953
1.46553
1.4342
1.40142
1.3673
1.33197
1.29563
1.25847
1.22074
1.18267
1.14455
1.10665
1.06927
1.03268
0.997176
0.96301
0.930429
0.899649
0.870857
0.844207
0.819819
0.797778
0.778135
0.760912
0.746101
0.733671
0.723569
0.715726
0.710057
0.706467
0.704854
0.705108
0.707114
0.710753
0.715903
0.722434
0.730216
0.739113
0.748981
0.759681
0.771061
0.782973
0.795265
0.807789
0.820393
0.83293
0.845264
0.857261
0.868796
0.879756
0.890037
0.899547
0.908202
0.915937
0.922686
0.928414
0.933062
0.936631
0.939097
0.940412
0.940982
0.940059
0.335322
0.330803
0.327072
0.324843
0.325113
0.328835
0.33698
0.35059
0.370896
0.399116
0.435867
0.481267
0.534845
0.595543
0.661783
0.731538
0.802395
0.871805
0.937588
0.997572
1.05061
1.09626
1.13457
1.16592
1.19081
1.20994
1.22393
1.23331
1.23857
1.24017
1.23848
1.23382
1.22645
1.2166
1.20443
1.19011
1.17379
1.1556
1.13568
1.11417
1.09121
1.06696
1.04161
1.01532
0.988291
0.960737
0.932875
0.904933
0.87714
0.849728
0.822922
0.796939
0.771984
0.748241
0.725877
0.705033
0.685827
0.668353
0.652676
0.638842
0.626873
0.616769
0.608515
0.602083
0.59743
0.594504
0.593247
0.593595
0.595479
0.598825
0.60356
0.609604
0.616875
0.625286
0.634746
0.645158
0.656418
0.668421
0.681049
0.694182
0.707699
0.721469
0.735361
0.749246
0.762994
0.776481
0.789586
0.802195
0.814201
0.825511
0.836032
0.845692
0.854416
0.862159
0.868855
0.874492
0.879038
0.88245
0.884987
0.886908
0.316776
0.311657
0.306653
0.301816
0.297286
0.293223
0.289825
0.287346
0.286153
0.286578
0.289054
0.294079
0.302174
0.313835
0.329528
0.349589
0.374198
0.403185
0.436176
0.472272
0.510431
0.549338
0.587887
0.624788
0.659325
0.690693
0.718362
0.742235
0.762274
0.778599
0.791369
0.800766
0.807004
0.810304
0.810886
0.808968
0.804757
0.798454
0.790255
0.780353
0.768938
0.756202
0.742336
0.727534
0.711991
0.695904
0.679468
0.662877
0.646321
0.629983
0.614038
0.598647
0.58396
0.57011
0.557213
0.54537
0.534662
0.525152
0.516889
0.509904
0.504218
0.499835
0.496753
0.494959
0.494434
0.495153
0.497088
0.500207
0.504476
0.509857
0.516311
0.523796
0.532267
0.541672
0.551957
0.56306
0.574912
0.587442
0.60056
0.61418
0.628202
0.64252
0.657024
0.6716
0.686133
0.700504
0.7146
0.72831
0.741525
0.754148
0.766081
0.777246
0.787558
0.79696
0.805381
0.812794
0.819159
0.824432
0.828735
0.833246
0.300241
0.296665
0.293113
0.289572
0.286047
0.282566
0.279167
0.275898
0.272828
0.270045
0.267642
0.265722
0.264423
0.263906
0.264367
0.266022
0.269119
0.273885
0.280549
0.289245
0.30005
0.312869
0.327564
0.343783
0.361203
0.379337
0.397688
0.415725
0.433064
0.449296
0.464078
0.477224
0.488596
0.498125
0.505799
0.511648
0.515734
0.518143
0.518981
0.518365
0.516427
0.513304
0.509138
0.504078
0.498274
0.491875
0.485032
0.477891
0.470595
0.46328
0.456076
0.449103
0.442472
0.436281
0.430619
0.425562
0.421175
0.417512
0.414617
0.412523
0.411255
0.410833
0.411266
0.412561
0.41472
0.417742
0.421622
0.426354
0.43193
0.43834
0.445573
0.453614
0.462447
0.472047
0.482391
0.493444
0.505172
0.517524
0.530446
0.543876
0.557736
0.571945
0.586413
0.601047
0.615743
0.630396
0.644899
0.659145
0.67303
0.686452
0.699311
0.711523
0.722995
0.733659
0.743438
0.752289
0.760167
0.767018
0.772843
0.779635
0.280167
0.278052
0.275912
0.273734
0.271512
0.269249
0.266959
0.264657
0.262359
0.260088
0.257869
0.255727
0.253698
0.251819
0.250139
0.248718
0.247628
0.246949
0.246778
0.247209
0.24834
0.250251
0.253014
0.256657
0.261195
0.26659
0.272779
0.279621
0.28699
0.2947
0.302554
0.310358
0.31793
0.325112
0.331768
0.337793
0.343107
0.347661
0.351433
0.354421
0.356647
0.358147
0.358972
0.359187
0.358863
0.35808
0.35692
0.355471
0.353819
0.352049
0.350246
0.348488
0.346853
0.345409
0.34422
0.343344
0.342832
0.34273
0.343075
0.343902
0.345238
0.347106
0.349527
0.352517
0.356088
0.360253
0.365023
0.370404
0.376407
0.383036
0.390298
0.398197
0.406733
0.415905
0.425709
0.436135
0.447173
0.458787
0.470953
0.483632
0.49677
0.510308
0.524177
0.538303
0.552599
0.566973
0.58133
0.595572
0.609596
0.623304
0.636596
0.649382
0.661565
0.673068
0.683807
0.693726
0.702774
0.710887
0.717953
0.726669
0.261539
0.260398
0.259216
0.257986
0.256701
0.25536
0.253969
0.252535
0.251063
0.249563
0.248041
0.246508
0.244975
0.243453
0.241956
0.240502
0.23911
0.237804
0.236615
0.235575
0.234723
0.2341
0.233747
0.233702
0.234003
0.234678
0.235749
0.23722
0.239087
0.241325
0.243899
0.246753
0.249824
0.253042
0.256334
0.259628
0.262854
0.265955
0.26888
0.271589
0.274057
0.276267
0.278214
0.279905
0.281355
0.282587
0.283631
0.284522
0.2853
0.286007
0.286685
0.28738
0.288134
0.288991
0.289991
0.291171
0.292567
0.294212
0.296134
0.298361
0.300917
0.303822
0.307097
0.310758
0.314823
0.319305
0.324222
0.329585
0.335411
0.341713
0.348506
0.355802
0.363613
0.371952
0.380831
0.390248
0.400213
0.410711
0.421732
0.433261
0.445265
0.457706
0.470535
0.483698
0.497127
0.510746
0.524474
0.538224
0.551902
0.565416
0.578667
0.591566
0.604014
0.615927
0.627219
0.637818
0.647669
0.656703
0.664705
0.674946
0.246472
0.245902
0.245293
0.24464
0.243939
0.243186
0.242384
0.241536
0.240646
0.239716
0.238751
0.237755
0.236733
0.23569
0.234632
0.233564
0.232493
0.231426
0.230374
0.229347
0.22836
0.227428
0.226569
0.225804
0.225152
0.224634
0.224271
0.224079
0.224074
0.224265
0.224658
0.225251
0.226037
0.227002
0.228128
0.229391
0.230767
0.232228
0.233747
0.235301
0.236866
0.238425
0.239965
0.241476
0.242954
0.244401
0.245822
0.247227
0.24863
0.250045
0.251494
0.252995
0.25457
0.256243
0.258033
0.259965
0.262057
0.264331
0.266806
0.269498
0.272424
0.275601
0.279042
0.282761
0.286772
0.291089
0.295725
0.300694
0.306013
0.311696
0.317759
0.324219
0.331096
0.338406
0.346168
0.354391
0.363093
0.372275
0.381943
0.392093
0.402715
0.413789
0.425284
0.437166
0.449385
0.461887
0.474603
0.487462
0.500384
0.513284
0.526071
0.538659
0.550953
0.562866
0.57431
0.585204
0.595489
0.605091
0.613709
0.625047
0.234967
0.234714
0.234429
0.234108
0.233749
0.233348
0.232905
0.232423
0.231902
0.231345
0.230753
0.23013
0.229478
0.228801
0.2281
0.227379
0.226641
0.225888
0.225123
0.224351
0.223577
0.222808
0.22205
0.221313
0.220608
0.219944
0.219334
0.21879
0.218323
0.217946
0.217667
0.217497
0.217441
0.217504
0.217686
0.217987
0.218403
0.218929
0.219558
0.220282
0.221093
0.221983
0.222945
0.223975
0.225067
0.226221
0.227435
0.228714
0.230059
0.231479
0.232979
0.23457
0.23626
0.238061
0.239983
0.242037
0.244235
0.246587
0.249103
0.251794
0.254668
0.257736
0.261005
0.264484
0.268184
0.272113
0.276282
0.280702
0.285387
0.290348
0.295604
0.30117
0.307067
0.313312
0.319926
0.326925
0.33433
0.342156
0.350414
0.359114
0.36826
0.377846
0.387861
0.398285
0.40909
0.420237
0.431677
0.443356
0.455207
0.467159
0.479135
0.491051
0.502824
0.514366
0.525592
0.536416
0.546778
0.556599
0.565521
0.577516
0.226336
0.226255
0.226149
0.226015
0.225851
0.225655
0.225426
0.225165
0.224873
0.224549
0.224197
0.223817
0.223412
0.222985
0.222535
0.222067
0.22158
0.221076
0.220556
0.220023
0.219479
0.218925
0.218367
0.217807
0.217251
0.216704
0.216173
0.215665
0.215187
0.214748
0.214356
0.214018
0.213742
0.213536
0.213405
0.213356
0.213391
0.213515
0.21373
0.214036
0.214434
0.214925
0.215507
0.216182
0.216949
0.217808
0.218761
0.219809
0.220954
0.222201
0.223552
0.225012
0.226585
0.228277
0.230093
0.232037
0.234115
0.236332
0.238692
0.241199
0.243858
0.246672
0.249646
0.252784
0.256091
0.259573
0.263235
0.267086
0.271135
0.275393
0.279875
0.284594
0.289567
0.294813
0.300352
0.306202
0.312386
0.318923
0.325831
0.333127
0.340824
0.348929
0.357443
0.366363
0.375674
0.385355
0.395377
0.4057
0.416275
0.427047
0.437951
0.448917
0.459871
0.470731
0.481421
0.491851
0.501964
0.511681
0.520605
0.53283
0.219852
0.219862
0.219853
0.219823
0.21977
0.219693
0.21959
0.219462
0.219309
0.219131
0.21893
0.218707
0.218464
0.218201
0.217922
0.217626
0.217316
0.216991
0.216652
0.216302
0.21594
0.215568
0.215188
0.214802
0.214413
0.214023
0.213637
0.213258
0.212891
0.212541
0.212214
0.211916
0.211652
0.21143
0.211256
0.211135
0.211074
0.211078
0.211153
0.211302
0.211531
0.211843
0.212242
0.21273
0.213311
0.213987
0.214763
0.215639
0.216619
0.217707
0.218904
0.220213
0.221637
0.223179
0.224841
0.226625
0.228532
0.230564
0.232721
0.235005
0.237416
0.239954
0.24262
0.245414
0.248338
0.251394
0.254585
0.257915
0.261391
0.26502
0.268813
0.272782
0.276941
0.281305
0.285894
0.290725
0.295821
0.301202
0.30689
0.312903
0.319262
0.32598
0.333069
0.340535
0.348379
0.356592
0.36516
0.37406
0.383261
0.392721
0.402392
0.412219
0.422139
0.432081
0.44198
0.451749
0.461337
0.470662
0.47932
0.491378
0.214931
0.214988
0.215031
0.215058
0.215067
0.215058
0.21503
0.214981
0.214914
0.214827
0.214721
0.214599
0.214461
0.214308
0.214142
0.213964
0.213774
0.213574
0.213364
0.213146
0.212918
0.212684
0.212443
0.212197
0.211948
0.211697
0.211447
0.211201
0.21096
0.210729
0.210512
0.210313
0.210136
0.209987
0.20987
0.209791
0.209757
0.209771
0.20984
0.20997
0.210165
0.210431
0.210772
0.211193
0.2117
0.212295
0.212983
0.213767
0.21465
0.215636
0.216727
0.217926
0.219234
0.220652
0.222182
0.223823
0.225576
0.227439
0.229412
0.231492
0.233677
0.235967
0.238357
0.240847
0.243435
0.246121
0.248904
0.251786
0.254772
0.257865
0.261073
0.264405
0.267873
0.271488
0.275269
0.279231
0.283393
0.287777
0.292404
0.297294
0.302468
0.307946
0.313745
0.319878
0.326353
0.333175
0.340341
0.347842
0.35566
0.36377
0.37214
0.380727
0.389484
0.398353
0.407281
0.416187
0.425031
0.433732
0.441895
0.45344
0.211148
0.211228
0.211297
0.211353
0.211397
0.211426
0.211441
0.211441
0.211425
0.211395
0.211351
0.211293
0.211224
0.211144
0.211054
0.210955
0.210849
0.210735
0.210615
0.21049
0.21036
0.210226
0.210089
0.209949
0.209809
0.209669
0.209531
0.209396
0.209268
0.209148
0.209039
0.208945
0.208868
0.208813
0.208784
0.208786
0.208823
0.208899
0.209021
0.209194
0.209422
0.209711
0.210065
0.210491
0.210991
0.211572
0.212237
0.21299
0.213835
0.214774
0.215809
0.216944
0.218178
0.219514
0.220949
0.222485
0.224119
0.225849
0.227672
0.229586
0.231587
0.23367
0.235831
0.238068
0.240377
0.242754
0.245198
0.24771
0.250288
0.252937
0.255661
0.258466
0.261361
0.264356
0.267464
0.270701
0.274083
0.27763
0.28136
0.285294
0.289453
0.293859
0.298529
0.303483
0.308734
0.314293
0.320168
0.326357
0.332857
0.339655
0.346732
0.354058
0.361604
0.369322
0.377172
0.385086
0.393034
0.400939
0.408429
0.419179
0.208206
0.208294
0.208373
0.208444
0.208504
0.208555
0.208594
0.208621
0.208637
0.208642
0.208637
0.208621
0.208597
0.208565
0.208526
0.208482
0.208432
0.208379
0.208323
0.208264
0.208203
0.208142
0.20808
0.20802
0.207962
0.207907
0.207856
0.207811
0.207774
0.207747
0.207731
0.20773
0.207746
0.207782
0.207842
0.20793
0.208049
0.208204
0.208399
0.208638
0.208927
0.20927
0.209671
0.210137
0.21067
0.211275
0.211956
0.212718
0.213562
0.214492
0.21551
0.216618
0.217815
0.219103
0.22048
0.221944
0.223495
0.225127
0.226838
0.228624
0.230479
0.232398
0.234377
0.23641
0.238492
0.240619
0.242787
0.244996
0.247243
0.249529
0.251858
0.254232
0.256658
0.259146
0.261704
0.264346
0.267086
0.269941
0.272927
0.276065
0.279373
0.282873
0.286583
0.290524
0.294711
0.299162
0.303887
0.308895
0.314188
0.319764
0.325616
0.331727
0.338077
0.344634
0.351372
0.358231
0.365195
0.372193
0.378887
0.388633
0.205893
0.20598
0.206062
0.206137
0.206204
0.206264
0.206316
0.206359
0.206393
0.20642
0.206438
0.20645
0.206455
0.206455
0.206451
0.206443
0.206433
0.206422
0.206409
0.206398
0.206387
0.206378
0.206372
0.20637
0.206373
0.206382
0.206398
0.206423
0.206458
0.206505
0.206565
0.206642
0.206737
0.206853
0.206992
0.207159
0.207357
0.207588
0.207857
0.208168
0.208525
0.208932
0.209394
0.209914
0.210496
0.211145
0.211863
0.212655
0.213522
0.214467
0.215491
0.216596
0.217782
0.219048
0.220392
0.221814
0.223308
0.224872
0.226502
0.228191
0.229935
0.231727
0.233561
0.235431
0.237332
0.239257
0.241204
0.243167
0.245146
0.247138
0.249146
0.251171
0.253218
0.255293
0.257404
0.259562
0.261779
0.264068
0.266446
0.268929
0.271535
0.274282
0.27719
0.280279
0.283565
0.287065
0.290796
0.294769
0.298992
0.303471
0.308205
0.313188
0.318411
0.323852
0.329497
0.335299
0.34125
0.34729
0.35312
0.361727
0.204062
0.204144
0.204222
0.204295
0.204363
0.204426
0.204483
0.204533
0.204578
0.204616
0.204649
0.204678
0.204702
0.204723
0.204742
0.204759
0.204776
0.204793
0.204812
0.204834
0.204858
0.204888
0.204922
0.204963
0.205011
0.205068
0.205135
0.205213
0.205304
0.205409
0.20553
0.205669
0.205828
0.20601
0.206217
0.206452
0.206718
0.207018
0.207355
0.207733
0.208156
0.208626
0.209149
0.209726
0.210362
0.211061
0.211824
0.212655
0.213555
0.214527
0.215571
0.216688
0.217878
0.219138
0.220468
0.221864
0.223323
0.22484
0.22641
0.228028
0.229686
0.231379
0.233099
0.23484
0.236596
0.23836
0.240127
0.241892
0.243653
0.245408
0.247155
0.248898
0.250637
0.252378
0.254127
0.255893
0.257686
0.259518
0.2614
0.26335
0.265381
0.267512
0.26976
0.272142
0.274676
0.277379
0.280267
0.283354
0.286653
0.290171
0.293916
0.297887
0.302083
0.306491
0.311106
0.315894
0.320853
0.325935
0.330882
0.338286
0.202607
0.202681
0.202752
0.20282
0.202885
0.202946
0.203002
0.203055
0.203104
0.203149
0.20319
0.203228
0.203264
0.203298
0.203332
0.203366
0.203401
0.203438
0.203479
0.203524
0.203574
0.20363
0.203694
0.203766
0.203847
0.20394
0.204045
0.204163
0.204296
0.204446
0.204614
0.204802
0.205013
0.205247
0.205509
0.2058
0.206123
0.206481
0.206877
0.207313
0.207794
0.208322
0.2089
0.209531
0.210219
0.210966
0.211774
0.212645
0.213582
0.214584
0.215653
0.216788
0.217989
0.219252
0.220577
0.221959
0.223395
0.224879
0.226405
0.227968
0.22956
0.231174
0.232803
0.234441
0.236079
0.237711
0.239332
0.240937
0.242521
0.244082
0.245619
0.247131
0.248621
0.250092
0.251548
0.252997
0.254447
0.255908
0.257391
0.258908
0.260474
0.262103
0.263812
0.265615
0.26753
0.269572
0.271758
0.274102
0.276617
0.279314
0.282204
0.285289
0.288576
0.292057
0.295734
0.299582
0.303607
0.307771
0.311857
0.318056
0.201453
0.201517
0.201579
0.20164
0.201698
0.201754
0.201808
0.20186
0.201909
0.201955
0.202
0.202043
0.202086
0.202128
0.202171
0.202216
0.202263
0.202314
0.202369
0.20243
0.202497
0.202572
0.202657
0.202751
0.202857
0.202975
0.203108
0.203256
0.203421
0.203604
0.203808
0.204034
0.204284
0.20456
0.204865
0.205201
0.20557
0.205974
0.206418
0.206903
0.207432
0.208008
0.208634
0.209312
0.210044
0.210834
0.211682
0.212591
0.21356
0.214592
0.215685
0.216839
0.218052
0.219321
0.220645
0.222018
0.223437
0.224895
0.226387
0.227905
0.229443
0.230993
0.232548
0.234099
0.23564
0.237164
0.238665
0.240137
0.241576
0.242978
0.244341
0.245666
0.246953
0.248204
0.249423
0.250615
0.251788
0.252949
0.254109
0.255277
0.256467
0.257691
0.258962
0.260295
0.261705
0.263207
0.264815
0.266543
0.268404
0.270412
0.272576
0.274904
0.277403
0.280073
0.282918
0.285922
0.289096
0.292409
0.295687
0.300726
0.200544
0.200596
0.200649
0.2007
0.200751
0.200801
0.20085
0.200898
0.200945
0.20099
0.201036
0.201081
0.201126
0.201173
0.201221
0.201272
0.201327
0.201386
0.20145
0.201522
0.201601
0.201689
0.201787
0.201897
0.20202
0.202156
0.202308
0.202478
0.202665
0.202873
0.203103
0.203357
0.203637
0.203944
0.204281
0.204651
0.205055
0.205497
0.205977
0.2065
0.207068
0.207682
0.208346
0.209061
0.20983
0.210655
0.211536
0.212474
0.213471
0.214526
0.215639
0.216807
0.21803
0.219304
0.220626
0.221991
0.223394
0.224829
0.22629
0.22777
0.229261
0.230755
0.232245
0.233723
0.235182
0.236614
0.238013
0.239373
0.24069
0.24196
0.24318
0.24435
0.24547
0.246541
0.247566
0.248549
0.249497
0.250417
0.251316
0.252203
0.25309
0.253986
0.254905
0.255859
0.256861
0.257923
0.259059
0.260283
0.261607
0.263043
0.264602
0.266292
0.268123
0.270097
0.272221
0.274487
0.276903
0.279451
0.281994
0.285955
0.199836
0.199878
0.19992
0.199962
0.200005
0.200048
0.200091
0.200134
0.200177
0.20022
0.200264
0.200308
0.200354
0.200402
0.200453
0.200507
0.200566
0.200629
0.2007
0.200777
0.200864
0.20096
0.201067
0.201187
0.20132
0.201468
0.201634
0.201817
0.20202
0.202245
0.202493
0.202766
0.203066
0.203395
0.203756
0.20415
0.204579
0.205047
0.205555
0.206106
0.206701
0.207344
0.208036
0.208778
0.209574
0.210424
0.211328
0.212288
0.213304
0.214375
0.2155
0.216677
0.217904
0.219177
0.220493
0.221846
0.223232
0.224643
0.226073
0.227516
0.228962
0.230405
0.231837
0.233249
0.234634
0.235985
0.237295
0.238559
0.239771
0.240929
0.242028
0.243068
0.244049
0.244971
0.245836
0.246649
0.247414
0.248137
0.248825
0.249486
0.250128
0.250762
0.251398
0.252046
0.252719
0.253427
0.254183
0.254998
0.255884
0.256851
0.257912
0.259073
0.260346