/*--------------------------------*- C++ -*----------------------------------*\
  =========                 |
  \\      /  F ield         | OpenFOAM: The Open Source CFD Toolbox
   \\    /   O peration     | Website:  https://openfoam.org
    \\  /    A nd           | Version:  10
     \\/     M anipulation  |
\*---------------------------------------------------------------------------*/
FoamFile
{
    format      ascii;
    class       volScalarField;
    location    "1700";
    object      omega;
}
// * * * * * * * * * * * * * * * * * * * * * * * * * * * * * * * * * * * * * //

dimensions      [0 0 -1 0 0 0 0];

internalField   nonuniform List<scalar> 
6820
(
6119.65
8495.53
9975.17
10745.8
11095.1
11205.2
11181.5
11085.3
10953.1
10806.8
10658.4
10514.8
10379.1
10252.8
10136.1
10028.7
9930.09
9839.52
9756.27
9679.64
9608.99
9543.7
9483.26
9427.17
9375.02
9326.41
9281
9238.49
9198.47
9161.28
9123.11
9103.1
8991.74
563.863
1593.66
2118.99
2485.29
2810.04
3047.21
3202.64
3297.98
3354.17
3382.65
3395.35
3394.49
3390.56
3382.3
3371.89
3361.05
3350.53
3340.71
3331.86
3324.04
3317.31
3311.6
3306.9
3303.08
3300.13
3297.91
3296.46
3295.67
3295.83
3296.76
3298.45
3301.55
3311.58
97.8512
383.671
612.514
783.211
925.912
1044.15
1139.72
1215.41
1275.18
1321.46
1357.37
1384.53
1405.16
1420.61
1432.05
1440.37
1446.35
1450.52
1453.37
1455.22
1456.38
1457.03
1457.37
1457.5
1457.54
1457.56
1457.64
1457.8
1458.14
1458.59
1459.53
1460.4
1462.81
35.0872
109.689
194.406
270.89
340.029
401.75
456.059
503.312
544.328
579.675
610.092
636.128
658.405
677.424
693.681
707.537
719.395
729.497
738.174
745.562
751.954
757.386
762.146
766.172
769.78
772.797
775.612
777.913
780.213
782.032
784.043
785.611
787.588
22.8645
46.9745
78.9735
111.645
143.697
174.308
202.955
229.405
253.675
275.804
295.908
314.101
330.538
345.356
358.716
370.737
381.575
391.321
400.123
408.038
415.209
421.659
427.53
432.809
437.649
441.997
446.022
449.633
453.02
456.061
458.96
461.585
464.137
19.4482
28.8211
42.7198
57.8276
73.3611
88.8415
103.932
118.422
132.214
145.247
157.503
168.976
179.69
189.667
198.948
207.564
215.565
222.981
229.865
236.24
242.162
247.646
252.747
257.474
261.88
265.965
269.786
273.332
276.663
279.762
282.688
285.424
288.024
18.2937
22.3026
29.0894
36.8342
45.0409
53.4275
61.8036
70.042
78.0648
85.8188
93.2711
100.401
107.199
113.664
119.8
125.611
131.111
136.309
141.22
145.855
150.231
154.358
158.255
161.93
165.402
168.677
171.775
174.7
177.471
180.092
182.58
184.939
187.186
17.8628
19.6407
23.1435
27.4253
32.1054
36.9869
41.946
46.901
51.7981
56.5996
61.2795
65.8192
70.2077
74.4371
78.5045
82.4079
86.1493
89.73
93.1546
96.4263
99.5513
102.533
105.38
108.095
110.686
113.156
115.515
117.764
119.913
121.964
123.926
125.801
127.595
17.6921
18.5022
20.2904
22.7591
25.5623
28.5575
31.6531
34.789
37.925
41.0328
44.0924
47.0892
50.0133
52.8576
55.6174
58.2898
60.8733
63.3674
65.7727
68.0899
70.321
72.4674
74.5317
76.5161
78.4234
80.256
82.017
83.7089
85.3348
86.8972
88.3992
89.8433
91.2321
17.6213
17.9912
18.8824
20.3079
22.0195
23.9107
25.9093
27.9667
30.05
32.1359
34.2079
36.254
38.2654
40.2358
42.1608
44.037
45.8624
47.6356
49.3561
51.0236
52.6384
54.2009
55.712
57.1727
58.5841
59.9474
61.264
62.5352
63.7627
64.9477
66.0918
67.1964
68.2628
17.591
17.7573
18.1874
18.9891
20.029
21.2312
22.54
23.916
25.3312
26.7655
28.2045
29.6375
31.0565
32.4559
33.8312
35.1793
36.498
37.7854
39.0407
40.263
41.452
42.6077
43.7302
44.8197
45.8768
46.902
47.8959
48.8591
49.7925
50.6968
51.5728
52.4213
53.2429
17.5777
17.6499
17.8528
18.2782
18.8974
19.6531
20.5077
21.4311
22.4002
23.3977
24.4109
25.43
26.4478
27.4588
28.4588
29.4446
30.4138
31.3647
32.296
33.2067
34.0961
34.9639
35.8098
36.6339
37.436
38.2165
38.9756
39.7135
40.4307
41.1274
41.8042
42.4615
43.0996
17.5717
17.6008
17.6934
17.9051
18.2597
18.7223
19.2706
19.8837
20.5439
21.2371
21.9523
22.6808
23.416
24.1527
24.8868
25.6153
26.3357
27.0462
27.7452
28.4318
29.105
29.7643
30.4092
31.0395
31.6551
32.2558
32.8416
33.4127
33.9692
34.5112
35.0389
35.5526
36.0524
17.5685
17.5785
17.6181
17.7167
17.9085
18.1807
18.5221
18.92
19.3623
19.8384
20.3392
20.8575
21.3874
21.9242
22.4641
23.0041
23.5418
24.0753
24.6031
25.124
25.6371
26.1416
26.6369
27.1227
27.5987
28.0645
28.5202
28.9656
29.4007
29.8255
30.24
30.6445
31.0388
17.5667
17.5684
17.5829
17.6262
17.7205
17.8733
18.0775
18.3273
18.6156
18.9354
19.2799
19.6435
20.0213
20.4092
20.8038
21.2024
21.6026
22.0027
22.4011
22.7965
23.1881
23.5749
23.9563
24.3318
24.7011
25.0637
25.4195
25.7683
26.11
26.4445
26.7717
27.0916
27.4042
17.5661
17.5629
17.5666
17.5833
17.6249
17.7047
17.8205
17.9706
18.1518
18.3599
18.5907
18.8401
19.1043
19.38
19.6645
19.9553
20.2503
20.5479
20.8466
21.1452
21.4427
21.7382
22.0312
22.321
22.6071
22.8892
23.167
23.4402
23.7087
23.9723
24.2309
24.4843
24.7326
17.5661
17.5601
17.5585
17.5631
17.5791
17.6155
17.6769
17.7623
17.8709
18.001
18.1502
18.3159
18.4957
18.6871
18.8878
19.096
19.31
19.5281
19.7492
19.9721
20.1959
20.4197
20.643
20.865
21.0854
21.3038
21.5197
21.7329
21.9431
22.1503
22.3541
22.5546
22.7515
17.5661
17.5591
17.5541
17.5533
17.5575
17.5711
17.5997
17.6448
17.7061
17.7833
17.8755
17.9813
18.0994
18.228
18.3657
18.511
18.6625
18.8191
18.9796
19.1431
19.3088
19.476
19.6439
19.8121
19.98
20.1473
20.3136
20.4787
20.6422
20.8039
20.9636
21.1213
21.2767
17.5662
17.5588
17.5523
17.5479
17.5469
17.5501
17.5603
17.5811
17.6128
17.6556
17.7093
17.7736
17.8477
17.9307
18.0218
18.1198
18.224
18.3333
18.4469
18.5641
18.6842
18.8066
18.9306
19.0559
19.1819
19.3083
19.4348
19.561
19.6867
19.8117
19.9358
20.0587
20.1804
17.5662
17.5587
17.5517
17.5456
17.5413
17.5397
17.5415
17.5482
17.5621
17.5834
17.6122
17.6487
17.6926
17.7435
17.801
17.8645
17.9334
18.0072
18.0851
18.1667
18.2515
18.3389
18.4285
18.5198
18.6126
18.7064
18.801
18.8961
18.9915
19.0869
19.1821
19.277
19.3714
17.5662
17.5587
17.5515
17.5447
17.5388
17.5344
17.5319
17.5324
17.5359
17.5442
17.5577
17.5764
17.6003
17.6295
17.6637
17.7028
17.7463
17.794
17.8455
17.9005
17.9585
18.0192
18.0822
18.1473
18.2142
18.2825
18.3521
18.4226
18.4938
18.5657
18.6379
18.7104
18.7829
17.5662
17.5587
17.5514
17.5444
17.5378
17.532
17.5272
17.5241
17.5231
17.5243
17.5283
17.5362
17.5475
17.5627
17.5815
17.604
17.63
17.6595
17.6921
17.7278
17.7663
17.8073
17.8507
17.8961
17.9434
17.9923
18.0428
18.0944
18.1472
18.2009
18.2553
18.3103
18.3659
17.5662
17.5587
17.5514
17.5442
17.5374
17.531
17.5251
17.5202
17.5164
17.5141
17.5138
17.5151
17.5189
17.5255
17.5347
17.5466
17.5613
17.5787
17.5987
17.6213
17.6464
17.6737
17.7032
17.7347
17.7681
17.8031
17.8398
17.8778
17.917
17.9574
17.9988
18.0411
18.084
17.5662
17.5587
17.5514
17.5442
17.5372
17.5306
17.5243
17.5185
17.5135
17.5094
17.5065
17.505
17.5052
17.5068
17.5105
17.5164
17.5245
17.5348
17.5473
17.5619
17.5787
17.5975
17.6184
17.6411
17.6656
17.6917
17.7195
17.7486
17.7791
17.8108
17.8436
17.8775
17.9121
17.5662
17.5587
17.5513
17.5442
17.5372
17.5304
17.524
17.518
17.5126
17.5078
17.5041
17.5014
17.5002
17.5004
17.5018
17.5051
17.5104
17.5177
17.5269
17.5381
17.5511
17.5661
17.583
17.6016
17.622
17.644
17.6675
17.6924
17.7187
17.7462
17.7749
17.8046
17.8352
17.5662
17.5587
17.5513
17.5442
17.5372
17.5305
17.5242
17.5183
17.5132
17.5088
17.5055
17.5034
17.5028
17.5035
17.5056
17.5097
17.5158
17.5238
17.5337
17.5456
17.5594
17.575
17.5925
17.6117
17.6326
17.6551
17.6791
17.7045
17.7311
17.759
17.788
17.8181
17.849
17.5662
17.5587
17.5513
17.5442
17.5374
17.5309
17.5251
17.52
17.5159
17.5131
17.5117
17.5122
17.5141
17.5183
17.5246
17.5331
17.5437
17.5566
17.5716
17.5888
17.608
17.6292
17.6522
17.677
17.7035
17.7316
17.7611
17.7919
17.824
17.8571
17.8913
17.9264
17.9624
17.5662
17.5587
17.5514
17.5444
17.5379
17.5322
17.5276
17.5243
17.523
17.5238
17.5267
17.5327
17.5416
17.5534
17.5681
17.5857
17.6061
17.6292
17.6549
17.6831
17.7135
17.7461
17.7806
17.817
17.855
17.8944
17.9353
17.9773
18.0204
18.0644
18.1092
18.1548
18.201
17.5662
17.5587
17.5516
17.5451
17.5396
17.5357
17.5342
17.5354
17.5395
17.5482
17.5612
17.5785
17.6003
17.6263
17.6565
17.6905
17.7282
17.7692
17.8134
17.8603
17.9097
17.9613
18.015
18.0703
18.1272
18.1853
18.2446
18.3048
18.3657
18.4273
18.4893
18.5516
18.6142
17.5662
17.5589
17.5522
17.5473
17.5446
17.5455
17.5504
17.5615
17.5798
17.605
17.6371
17.6761
17.7215
17.7729
17.8299
17.8918
17.9581
18.0284
18.102
18.1786
18.2577
18.3389
18.4217
18.506
18.5914
18.6776
18.7644
18.8516
18.939
19.0264
19.1138
19.2008
19.2875
17.5662
17.5594
17.5546
17.5542
17.558
17.5696
17.5932
17.6282
17.6749
17.7329
17.8016
17.8801
17.9674
18.0624
18.164
18.2714
18.3835
18.4996
18.6189
18.7408
18.8645
18.9897
19.1159
19.2426
19.3696
19.4965
19.6231
19.7491
19.8743
19.9987
20.122
20.2442
20.3651
17.5663
17.5617
17.563
17.5718
17.595
17.6401
17.7055
17.7911
17.8954
18.0165
18.1523
18.3006
18.4593
18.6266
18.8007
18.9802
19.1638
19.3502
19.5387
19.7283
19.9185
20.1085
20.2979
20.4864
20.6735
20.859
21.0426
21.2241
21.4034
21.5803
21.7548
21.9267
22.0961
17.5672
17.57
17.5859
17.6276
17.711
17.8336
17.9919
18.1815
18.3976
18.6351
18.8897
19.1574
19.435
19.7198
20.0094
20.302
20.596
20.8902
21.1836
21.4753
21.7646
22.0511
22.3342
22.6137
22.8892
23.1606
23.4276
23.6903
23.9484
24.2019
24.4508
24.6951
24.9348
17.5716
17.5953
17.6662
17.8177
18.053
18.3543
18.7087
19.1036
19.5285
19.9745
20.4349
20.9044
21.3787
21.8548
22.3301
22.8027
23.2712
23.7345
24.1917
24.6422
25.0854
25.521
25.9488
26.3685
26.7801
27.1836
27.5788
27.9659
28.3448
28.7157
29.0786
29.4337
29.7811
17.5854
17.6974
17.9699
18.4419
19.0444
19.7381
20.4917
21.2821
22.0933
22.9141
23.7366
24.5557
25.3673
26.1688
26.9583
27.7344
28.4962
29.243
29.9745
30.6904
31.3907
32.0753
32.7443
33.3978
34.0361
34.6594
35.2678
35.8617
36.4414
37.0072
37.5593
38.0981
38.6238
17.6522
18.1438
19.1451
20.4574
21.9286
23.4776
25.0548
26.6331
28.1966
29.7371
31.25
32.7322
34.182
35.5983
36.9807
38.3291
39.6436
40.9246
42.1725
43.3878
44.5711
45.723
46.8442
47.9354
48.9973
50.0307
51.0362
52.0146
52.9666
53.893
54.7944
55.6717
56.5255
18.0423
20.3419
23.6954
27.3243
30.9671
34.5343
37.9952
41.351
44.6032
47.7618
50.8283
53.8045
56.6925
59.4942
62.2115
64.8462
67.4002
69.8754
72.2738
74.5972
76.8478
79.0276
81.1386
83.183
85.1627
87.0798
88.9365
90.7346
92.4763
94.1634
95.7979
97.3817
98.9165
21.0783
32.2377
43.8848
55.0827
65.2654
74.723
83.6609
92.2515
100.529
108.499
116.169
123.546
130.634
137.44
143.973
150.24
156.249
162.01
167.532
172.822
177.893
182.751
187.407
191.869
196.147
200.248
204.182
207.956
211.577
215.054
218.393
221.602
224.685
63.2893
131.146
179.994
220.948
253.72
286.904
320.749
353.551
384.646
413.765
440.836
465.898
489.06
510.454
530.221
548.492
565.403
581.067
595.602
609.099
621.66
633.357
644.277
654.474
664.025
672.967
681.373
689.262
696.705
703.706
710.338
716.588
722.534
1672.14
1819.15
1960.96
2086.92
2197.23
2294.25
2379.79
2455.18
2521.53
2579.87
2631.09
2676.01
2715.34
2749.72
2779.71
2805.83
2828.53
2848.19
2865.18
2879.82
2892.37
2903.08
2912.17
2919.82
2926.22
2931.5
2935.79
2939.23
2941.89
2943.89
2945.3
2946.18
2946.62
8844.97
8360.23
7919.23
7382.42
6868.69
6391.85
5954.34
5556.79
5196.39
4868.84
4573.58
4306.36
4063.94
3843.71
3642.95
3459.57
3291.29
3136.8
2994.31
2862.83
2741.25
2628.69
2524.11
2426.72
2335.65
2250.09
2169.41
2093
2020.36
1950.97
1884.42
1820.34
1757.99
1697.33
1638.18
1580.33
1523.59
1467.75
1412.75
1358.37
1304.52
1251.19
1198.36
1146.08
1094.39
1043.34
993.016
943.539
895.04
847.666
801.57
756.908
713.835
672.497
633.028
595.542
560.128
526.853
495.754
466.84
440.093
415.472
392.911
372.328
353.624
336.693
321.417
307.68
295.358
284.336
274.495
265.728
257.924
250.993
244.826
239.354
234.476
230.131
226.249
222.759
219.609
216.747
214.132
211.712
209.456
207.331
205.309
203.363
201.477
199.622
197.802
195.97
194.167
192.304
190.514
188.533
186.811
184.55
183.121
180.093
3307.91
3348.01
3423.62
3488.62
3559.07
3637.9
3709.8
3768.14
3791.31
3783.16
3755.04
3694.37
3608.12
3503.97
3387.01
3262.54
3134.47
3007.25
2881.98
2761.99
2647.46
2538.69
2435.1
2336.88
2243.55
2154.65
2070.04
1989.33
1912.16
1838.16
1766.97
1698.37
1631.98
1567.56
1504.91
1443.85
1384.25
1325.96
1268.89
1212.96
1158.1
1104.29
1051.52
999.819
949.248
899.871
851.772
805.046
759.801
716.148
674.199
634.058
595.822
559.572
525.371
493.264
463.271
435.392
409.603
385.86
364.099
344.243
326.199
309.868
295.141
281.91
270.06
259.485
250.072
241.724
234.337
227.823
222.087
217.059
212.645
208.794
205.415
202.467
199.888
197.616
195.612
193.833
192.241
190.788
189.454
188.206
187.021
185.873
184.748
183.621
182.495
181.329
180.156
178.909
177.682
176.28
175.039
173.359
172.275
169.944
1464.74
1470.29
1481.88
1494.16
1507.47
1526
1550.95
1584.23
1626.45
1675.8
1731.81
1790.77
1850.03
1906.85
1957.2
1997.3
2024.84
2037.84
2034.82
2023.56
1998.78
1963.29
1919.17
1870.39
1816.99
1761.12
1704.35
1646.88
1589.22
1531.66
1474.58
1418.15
1362.5
1307.68
1253.74
1200.69
1148.56
1097.36
1047.1
997.831
949.572
902.372
856.284
811.372
767.71
725.38
684.464
645.048
607.215
571.043
536.604
503.955
473.143
444.197
417.129
391.934
368.591
347.06
327.289
309.212
292.752
277.825
264.341
252.208
241.331
231.617
222.974
215.316
208.554
202.614
197.415
192.892
188.972
185.603
182.708
180.258
178.166
176.423
174.962
173.737
172.722
171.881
171.179
170.57
170.047
169.576
169.135
168.704
168.268
167.805
167.317
166.766
166.182
165.514
164.82
163.969
163.187
162.069
161.321
159.669
789.443
792.202
795.814
799.167
801.767
804.408
807.27
811.044
815.942
823.097
832.964
846.664
864.062
886.07
911.654
941.196
972.216
1004.85
1035.07
1063.8
1087.92
1108.9
1122.19
1132.2
1132.1
1129
1120.94
1106.23
1086.69
1063.29
1037.06
1008.33
977.696
945.567
912.312
878.251
843.663
808.79
773.846
739.022
704.487
670.398
636.896
604.112
572.167
541.173
511.232
482.434
454.859
428.575
403.636
380.081
357.936
337.212
317.905
299.999
283.464
268.262
254.344
241.654
230.131
219.71
210.325
201.909
194.393
187.713
181.805
176.609
172.065
168.124
164.727
161.834
159.391
157.365
155.694
154.37
153.309
152.536
151.971
151.587
151.374
151.296
151.32
151.407
151.559
151.74
151.931
152.114
152.274
152.393
152.468
152.466
152.415
152.274
152.068
151.727
151.372
150.786
150.359
149.35
466.876
469.987
473.148
476.103
478.557
480.682
482.42
483.976
485.28
486.711
488.259
490.435
493.152
496.978
501.689
507.91
515.206
524.206
534.146
545.465
557.076
569.439
581.016
592.302
601.648
609.404
614.558
618.657
618.902
617.692
614.431
608.148
599.611
588.819
576.055
561.6
545.726
528.693
510.745
492.111
473
453.608
434.112
414.672
395.435
376.531
358.075
340.169
322.899
306.337
290.541
275.556
261.412
248.13
235.717
224.172
213.483
203.631
194.593
186.337
178.832
172.04
165.924
160.447
155.568
151.252
147.459
144.158
141.308
138.887
136.851
135.184
133.845
132.817
132.054
131.561
131.258
131.206
131.296
131.535
131.923
132.413
132.988
133.614
134.286
134.978
135.671
136.35
136.998
137.601
138.149
138.622
139.026
139.343
139.573
139.691
139.721
139.625
139.497
139.08
290.878
294.02
297.084
300.005
302.647
305.045
307.156
309.047
310.667
312.137
313.426
314.69
315.871
317.134
318.385
319.809
321.293
323.035
324.911
327.168
329.607
332.438
335.388
338.602
341.728
344.849
347.497
349.871
351.46
352.321
352.149
351.335
349.5
346.609
342.759
337.952
332.224
325.636
318.27
310.22
301.591
292.491
283.03
273.315
263.45
253.532
243.652
233.892
224.326
215.018
206.022
197.385
189.143
181.323
173.948
167.029
160.573
154.582
149.051
143.974
139.339
135.134
131.342
127.949
124.936
122.287
119.983
118.009
116.342
114.976
113.88
113.056
112.47
112.116
111.961
112.02
112.22
112.63
113.171
113.833
114.612
115.483
116.43
117.429
118.466
119.524
120.584
121.632
122.652
123.629
124.553
125.409
126.187
126.887
127.485
127.997
128.377
128.691
128.854
128.952
189.676
192.42
195.093
197.673
200.104
202.384
204.493
206.449
208.231
209.876
211.37
212.759
214.017
215.187
216.23
217.189
218.018
218.772
219.402
219.976
220.449
220.884
221.243
221.564
221.814
222.022
222.124
222.1
221.987
221.72
221.181
220.384
219.286
217.832
216.04
213.887
211.361
208.459
205.185
201.558
197.602
193.35
188.841
184.119
179.228
174.218
169.135
164.027
158.936
153.905
148.972
144.169
139.526
135.068
130.816
126.786
122.991
119.44
116.138
113.091
110.297
107.756
105.465
103.42
101.615
100.045
98.7033
97.5839
96.6769
95.983
95.4813
95.1849
95.0602
95.1115
95.3011
95.6909
96.2032
96.8672
97.6551
98.5511
99.5498
100.635
101.795
103.01
104.267
105.551
106.847
108.139
109.412
110.654
111.85
112.991
114.056
115.058
115.95
116.785
117.453
118.122
118.52
119.088
129.598
131.817
133.99
136.108
138.147
140.099
141.954
143.715
145.372
146.937
148.402
149.781
151.062
152.254
153.339
154.325
155.188
155.94
156.557
157.056
157.413
157.657
157.754
157.724
157.609
157.367
157.011
156.54
155.964
155.288
154.499
153.59
152.56
151.395
150.092
148.646
147.052
145.307
143.41
141.363
139.169
136.838
134.381
131.811
129.146
126.405
123.608
120.777
117.934
115.099
112.295
109.54
106.854
104.252
101.751
99.362
97.0973
94.9659
92.9753
91.1313
89.4382
87.8993
86.516
85.2896
84.22
83.3068
82.5484
81.9445
81.4922
81.1952
81.038
81.042
81.1485
81.412
81.8072
82.3429
82.9933
83.7657
84.6502
85.6356
86.7159
87.8809
89.1208
90.4223
91.7732
93.1613
94.5722
95.9936
97.4098
98.8105
100.177
101.507
102.771
103.989
105.099
106.181
107.073
108.032
108.613
109.585
92.7901
94.5248
96.2346
97.9137
99.5508
101.14
102.675
104.155
105.574
106.936
108.235
109.476
110.652
111.764
112.801
113.763
114.637
115.422
116.106
116.69
117.159
117.523
117.764
117.898
117.885
117.805
117.613
117.296
116.882
116.369
115.764
115.067
114.283
113.414
112.462
111.428
110.315
109.124
107.858
106.518
105.109
103.634
102.099
100.509
98.8734
97.1993
95.4966
93.7755
92.0469
90.322
88.6119
86.9278
85.2804
83.68
82.136
80.6574
79.2521
77.9271
76.6886
75.5419
74.4914
73.5411
72.6934
71.9513
71.3164
70.79
70.3734
70.0681
69.8759
69.7991
69.8259
69.9488
70.1982
70.5562
71.0201
71.5964
72.2749
73.0567
73.9383
74.9136
75.978
77.1249
78.3476
79.6369
80.9831
82.3765
83.8048
85.2579
86.7209
88.1858
89.6325
91.062
92.4386
93.7918
95.0425
96.2969
97.3472
98.5265
99.2411
100.54
69.4636
70.8069
72.1377
73.4524
74.7454
76.0125
77.2499
78.4554
79.6264
80.7619
81.8601
82.9202
83.9391
84.9148
85.8421
86.7176
87.5344
88.2889
88.9733
89.5853
90.1161
90.5667
90.9264
91.2032
91.3787
91.4699
91.455
91.3824
91.2136
90.9498
90.611
90.1912
89.6997
89.1379
88.5097
87.8195
87.0706
86.2667
85.4117
84.5093
83.5633
82.5777
81.5567
80.5049
79.4274
78.3294
77.2167
76.0953
74.9717
73.8523
72.7438
71.6531
70.5867
69.5511
68.5525
67.5968
66.6895
65.8355
65.0396
64.3057
63.6378
63.0391
62.5119
62.0596
61.6837
61.3863
61.1697
61.0366
60.9913
61.0218
61.1276
61.3316
61.6233
62.0032
62.47
63.0278
63.6737
64.4079
65.2298
66.1367
67.126
68.1942
69.3368
70.5481
71.8212
73.1489
74.5216
75.9313
77.3649
78.8165
80.266
81.7173
83.1319
84.5447
85.8661
87.2204
88.366
89.6954
90.4983
92.0396
54.1709
55.213
56.2498
57.2788
58.2971
59.302
60.2908
61.2617
62.2129
63.1431
64.0507
64.9346
65.7926
66.6226
67.4214
68.186
68.9121
69.5964
70.2337
70.8211
71.353
71.828
72.2393
72.5892
72.8683
73.0837
73.2215
73.3007
73.2934
73.244
73.1241
72.9287
72.6793
72.3681
72.0021
71.5846
71.1181
70.6064
70.0536
69.4629
68.838
68.1829
67.5013
66.7972
66.0748
65.3381
64.5914
63.8392
63.0859
62.3362
61.5947
60.8659
60.1545
59.4648
58.8013
58.1681
57.5689
57.0077
56.4877
56.0121
55.584
55.2059
54.8795
54.6086
54.3936
54.2372
54.1425
54.1131
54.1399
54.2253
54.3846
54.6118
54.9084
55.2759
55.7146
56.2271
56.8138
57.4752
58.2122
59.0242
59.9105
60.8695
61.899
62.996
64.1559
65.3741
66.6435
67.9587
69.3084
70.6892
72.0821
73.4935
74.8839
76.2925
77.6233
79.0129
80.1973
81.6088
82.4609
84.1595
43.822
44.6359
45.4484
46.2581
47.063
47.8614
48.6515
49.4321
50.2016
50.9589
51.7029
52.4323
53.1457
53.8413
54.5169
55.1704
55.7988
56.3995
56.9691
57.505
58.0035
58.4625
58.878
59.2494
59.5718
59.8472
60.0683
60.2429
60.3576
60.4315
60.4383
60.4114
60.3391
60.2055
60.0318
59.8153
59.5568
59.261
58.9307
58.5681
58.1762
57.7589
57.3192
56.8603
56.3858
55.8989
55.4032
54.9023
54.3996
53.8987
53.4031
52.9165
52.442
51.9831
51.5432
51.1252
50.7319
50.3665
50.0313
49.7288
49.4618
49.2314
49.0397
48.8902
48.7819
48.719
48.7052
48.7314
48.8045
48.9318
49.1106
49.3425
49.6292
49.9724
50.3732
50.8336
51.3551
51.939
52.5865
53.2985
54.0753
54.9171
55.8231
56.7922
57.8219
58.9099
60.0511
61.2426
62.4752
63.7481
65.0435
66.3706
67.6903
69.0449
70.3358
71.7063
72.8819
74.3145
75.1838
76.9568
36.6195
37.2603
37.9018
38.5431
39.1832
39.8206
40.4544
41.0834
41.7066
42.3231
42.9319
43.5322
44.1226
44.702
45.2689
45.8215
46.358
46.8762
47.3741
47.8494
48.2997
48.723
49.1167
49.4796
49.8086
50.1038
50.3612
50.5834
50.7645
50.9108
51.014
51.0819
51.1119
51.102
51.0659
50.9885
50.8759
50.7353
50.5654
50.3673
50.1449
49.9011
49.6378
49.3575
49.0633
48.7577
48.4437
48.1241
47.8019
47.4798
47.1606
46.8472
46.5422
46.2483
45.9681
45.7039
45.4579
45.2328
45.0299
44.8519
44.7007
44.5763
44.4817
44.4199
44.3879
44.3937
44.4271
44.5006
44.611
44.7603
44.9497
45.1806
45.4544
45.7729
46.1373
46.5494
47.011
47.5236
48.0888
48.708
49.3824
50.1128
50.8997
51.7432
52.6423
53.5965
54.6025
55.6593
56.7599
57.9054
59.0802
60.2954
61.5137
62.7792
63.9942
65.304
66.4335
67.8362
68.6958
70.4717
31.4871
31.9951
32.5051
33.0164
33.5284
34.0401
34.5508
35.0596
35.5659
36.0688
36.5677
37.0618
37.5502
38.0321
38.5062
38.9715
39.4265
39.8698
40.2998
40.7149
41.1134
41.4937
41.854
42.193
42.5088
42.8007
43.0665
43.3065
43.5181
43.7027
43.8579
43.9847
44.0839
44.1527
44.1982
44.2117
44.202
44.172
44.1139
44.0322
43.9322
43.8147
43.6801
43.531
43.3697
43.1983
43.019
42.8344
42.6466
42.4578
42.2703
42.0865
41.9083
41.7382
41.5779
41.4293
41.2943
41.1751
41.0723
40.9893
40.9263
40.8823
40.863
40.8689
40.8937
40.9489
41.0294
41.1379
41.275
41.4419
41.6398
41.8699
42.1335
42.4319
42.7665
43.1389
43.5507
44.0035
44.4989
45.0385
45.6239
46.2563
46.9368
47.6664
48.4451
49.2733
50.1494
51.0739
52.0413
53.0546
54.1003
55.1907
56.2914
57.4468
58.563
59.7833
60.8401
62.1745
63.0012
64.7253
27.7604
28.1651
28.5725
28.9821
29.3936
29.8061
30.2193
30.6324
31.0449
31.4563
31.866
32.2734
32.6779
33.0787
33.4752
33.8663
34.2511
34.6287
34.9978
35.3573
35.7059
36.0426
36.3659
36.6748
36.968
37.2445
37.5032
37.7435
37.9642
38.1651
38.3454
38.5048
38.6437
38.7608
38.8586
38.9351
38.9917
39.0308
39.052
39.0513
39.0405
39.0143
38.9727
38.9196
38.8567
38.7851
38.7069
38.6242
38.5382
38.4508
38.364
38.2795
38.199
38.1247
38.0572
37.9985
37.9504
37.9143
37.8906
37.8834
37.8899
37.9099
37.9506
38.0102
38.0863
38.1833
38.3006
38.4393
38.5999
38.7835
38.9909
39.223
39.4809
39.7658
40.0788
40.4214
40.7948
41.2006
41.6403
42.1155
42.6277
43.1784
43.769
44.4008
45.0745
45.7912
46.5502
47.353
48.1957
49.0822
50.001
50.9656
51.9441
52.9809
53.9871
55.1011
56.0691
57.3094
58.0859
59.718
25.0162
25.3393
25.6656
25.9946
26.3261
26.6596
26.9947
27.3309
27.6678
28.0051
28.3421
28.6786
29.0139
29.3477
29.6793
30.0081
30.3333
30.6543
30.9702
31.2802
31.5834
31.8789
32.1658
32.4432
32.7101
32.9659
33.2097
33.4408
33.6584
33.8622
34.0517
34.2263
34.3862
34.5307
34.6607
34.7757
34.8759
34.9624
35.036
35.095
35.1432
35.1807
35.2075
35.2251
35.2351
35.2377
35.2359
35.2307
35.2224
35.213
35.2041
35.197
35.1933
35.1945
35.2002
35.2132
35.2348
35.2658
35.3066
35.3593
35.4238
35.4997
35.5897
35.6947
35.8134
35.9476
36.0975
36.2638
36.4469
36.6475
36.8662
37.1039
37.3612
37.6392
37.9387
38.2609
38.6069
38.978
39.3756
39.8011
40.2559
40.7415
41.2593
41.8107
42.3969
43.0192
43.6775
44.3739
45.1056
45.8773
46.679
47.5247
48.3854
49.3044
50.199
51.2006
52.0725
53.2045
53.9197
55.4337
22.977
23.2348
23.496
23.7603
24.0275
24.2972
24.5692
24.843
25.1184
25.3951
25.6727
25.9508
26.2291
26.5073
26.7848
27.0613
27.3362
27.609
27.8791
28.1458
28.4087
28.6669
28.9199
29.167
29.4075
29.6408
29.8663
30.0835
30.2918
30.4908
30.6801
30.8594
31.0285
31.1872
31.3356
31.4736
31.6013
31.7191
31.8277
31.9267
32.0173
32.1002
32.1759
32.245
32.3088
32.3678
32.4233
32.4766
32.5283
32.5796
32.6317
32.6856
32.7425
32.8036
32.8692
32.9406
33.019
33.105
33.1992
33.3025
33.4156
33.5383
33.6715
33.8163
33.9723
34.1401
34.3201
34.5126
34.7179
34.9365
35.1688
35.4154
35.6768
35.9538
36.247
36.5574
36.8857
37.2332
37.6008
37.9899
38.4016
38.8375
39.2986
39.7866
40.3024
40.8478
41.4228
42.0299
42.667
43.339
44.0375
44.7764
45.5294
46.3382
47.1264
48.0174
48.7935
49.8127
50.4614
51.8437
21.4552
21.6602
21.8687
22.0805
22.2954
22.5132
22.7337
22.9565
23.1815
23.4085
23.637
23.867
24.0981
24.3301
24.5625
24.7952
25.0277
25.2596
25.4905
25.7201
25.9478
26.1731
26.3957
26.6149
26.8304
27.0417
27.2483
27.4499
27.6459
27.8362
28.0204
28.1981
28.3694
28.534
28.6918
28.843
28.9875
29.1254
29.2574
29.3833
29.5036
29.619
29.7299
29.8369
29.9406
30.0418
30.1411
30.2395
30.3377
30.4365
30.5368
30.6394
30.7451
30.8548
30.9691
31.0886
31.2142
31.3464
31.4856
31.6323
31.7872
31.9502
32.1217
32.3023
32.4919
32.6908
32.8992
33.1171
33.3447
33.5823
33.8303
34.089
34.3587
34.6398
34.933
35.2387
35.5578
35.8909
36.2391
36.6034
36.9847
37.3843
37.8032
38.243
38.7044
39.1893
39.6978
40.2326
40.7917
41.3806
41.9914
42.6383
43.2969
44.0072
44.6988
45.487
46.1726
47.0821
47.664
48.9115
20.3208
20.4827
20.6482
20.8172
20.9894
21.1647
21.3429
21.5239
21.7075
21.8934
22.0816
22.2717
22.4637
22.6572
22.8521
23.0481
23.245
23.4425
23.6403
23.8381
24.0356
24.2324
24.4283
24.6228
24.8157
25.0066
25.1951
25.3811
25.5642
25.7442
25.9209
26.094
26.2635
26.4292
26.5911
26.7493
26.9037
27.0545
27.2019
27.3461
27.4874
27.6262
27.7629
27.8979
28.0317
28.1649
28.298
28.4317
28.5664
28.703
28.8419
28.9839
29.1296
29.2795
29.4341
29.5939
29.7595
29.9311
30.109
30.2936
30.4852
30.6839
30.8899
31.1032
31.324
31.5521
31.7878
32.0307
32.2809
32.5388
32.8045
33.078
33.3595
33.6492
33.9475
34.2549
34.5717
34.8986
35.2362
35.5854
35.9471
36.3221
36.7114
37.1163
37.5376
37.9768
38.4342
38.9123
39.4095
39.9313
40.4703
41.0405
41.6193
42.245
42.8525
43.5491
44.153
44.9611
45.4797
46.5975
19.4808
19.6077
19.7382
19.8722
20.0095
20.1501
20.2938
20.4405
20.59
20.7423
20.8971
21.0545
21.2141
21.3759
21.5397
21.7053
21.8726
22.0413
22.2114
22.3825
22.5544
22.727
22.9
23.0731
23.2462
23.4191
23.5914
23.7631
23.9338
24.1036
24.2721
24.4394
24.6053
24.7698
24.9328
25.0944
25.2547
25.4138
25.5717
25.7288
25.8852
26.0413
26.1974
26.3537
26.5108
26.669
26.8288
26.9905
27.1547
27.322
27.4927
27.6673
27.8463
28.0301
28.219
28.4134
28.6136
28.8196
29.0315
29.2498
29.4745
29.7057
29.9433
30.1873
30.4375
30.6938
30.9562
31.2239
31.4973
31.7768
32.062
32.3528
32.6493
32.9515
33.2595
33.5736
33.8942
34.2216
34.5562
34.8988
35.2499
35.6103
35.9807
36.3623
36.7556
37.1621
37.582
38.0177
38.4676
38.9372
39.4194
39.9281
40.4418
40.9974
41.534
42.1521
42.6852
43.4037
43.8649
44.8637
18.8675
18.9663
19.0687
19.1745
19.2837
19.3962
19.5119
19.6307
19.7526
19.8775
20.0053
20.1359
20.2692
20.4051
20.5435
20.6843
20.8274
20.9726
21.1198
21.2689
21.4198
21.5723
21.7263
21.8816
22.0381
22.1956
22.354
22.5133
22.6733
22.8338
22.9949
23.1565
23.3186
23.481
23.644
23.8075
23.9716
24.1364
24.3021
24.4688
24.6368
24.8064
24.9777
25.1511
25.3269
25.5055
25.687
25.872
26.0609
26.2539
26.4516
26.6542
26.862
27.0752
27.2942
27.5191
27.75
27.9869
28.2295
28.4787
28.7342
28.9958
29.2633
29.5366
29.8153
30.0993
30.3882
30.6824
30.9816
31.2855
31.5933
31.905
32.2203
32.5392
32.8617
33.1879
33.5179
33.852
34.1904
34.5336
34.882
35.2363
35.5969
35.9648
36.3404
36.7251
37.1188
37.5241
37.9391
38.3692
38.8077
39.2681
39.7298
40.2286
40.7068
41.2593
41.7321
42.3734
42.7841
43.6782
18.4311
18.5079
18.5882
18.6719
18.7589
18.8493
18.9429
19.0398
19.1399
19.2432
19.3496
19.459
19.5714
19.6868
19.8051
19.9262
20.05
20.1766
20.3057
20.4374
20.5716
20.7081
20.847
20.9881
21.1313
21.2767
21.4241
21.5735
21.7248
21.878
22.0332
22.1902
22.3492
22.5102
22.6732
22.8383
23.0056
23.1753
23.3475
23.5225
23.7003
23.8813
24.0657
24.2537
24.4457
24.6417
24.8421
25.0473
25.2578
25.4737
25.6954
25.9229
26.1566
26.3965
26.6429
26.8958
27.1551
27.4213
27.6944
27.9747
28.2612
28.5537
28.8519
29.1555
29.4641
29.7773
30.0948
30.4164
30.741
31.0679
31.3975
31.7296
32.0641
32.4007
32.7394
33.0801
33.4228
33.7676
34.1145
34.464
34.8161
35.1714
35.5302
35.8933
36.2609
36.6343
37.0131
37.3999
37.7925
38.1967
38.6051
39.0318
39.456
39.9132
40.3476
40.8503
41.2766
41.8558
42.2242
43.0294
18.1349
18.1955
18.2594
18.3265
18.3971
18.4709
18.548
18.6285
18.7123
18.7993
18.8897
18.9833
19.0801
19.1801
19.2833
19.3897
19.4992
19.6119
19.7276
19.8464
19.9681
20.0929
20.2207
20.3514
20.4851
20.6217
20.7613
20.9037
21.0492
21.1976
21.349
21.5035
21.6611
21.822
21.9861
22.1538
22.325
22.4999
22.6788
22.8618
23.0492
23.2411
23.4378
23.6395
23.8466
24.0593
24.2781
24.5034
24.7353
24.9739
25.2193
25.4717
25.7312
25.9979
26.2719
26.5531
26.8415
27.1371
27.4397
27.7475
28.0614
28.3811
28.7065
29.0371
29.3726
29.7125
30.0564
30.4038
30.7545
31.1078
31.4632
31.8202
32.1785
32.5378
32.8978
33.2583
33.6192
33.9804
34.3419
34.7037
35.0661
35.4293
35.7935
36.1592
36.5266
36.8969
37.2694
37.6468
38.0265
38.4145
38.803
39.2065
39.6037
40.0305
40.4316
40.8961
41.2853
41.8172
42.1531
42.89
17.9535
18.0033
18.0563
18.1125
18.172
18.2348
18.3009
18.3704
18.4433
18.5195
18.5991
18.6821
18.7686
18.8585
18.9517
19.0485
19.1486
19.2522
19.3593
19.4698
19.5838
19.7013
19.8224
19.947
20.0751
20.2069
20.3424
20.4816
20.6246
20.7715
20.9223
21.0773
21.2364
21.3998
21.5677
21.7402
21.9176
22.0999
22.2874
22.4804
22.679
22.8835
23.0941
23.3111
23.5347
23.7653
24.0032
24.2477
24.4994
24.7585
25.0254
25.3001
25.5828
25.8734
26.172
26.4786
26.7929
27.1149
27.4445
27.7814
28.1251
28.4751
28.831
29.1923
29.5585
29.9291
30.3036
30.6812
31.0616
31.4442
31.8284
32.2135
32.5991
32.9848
33.3702
33.7548
34.1385
34.5211
34.9022
35.2821
35.6606
36.0378
36.4138
36.7892
37.1637
37.5386
37.9128
38.2894
38.6649
39.0462
39.4243
39.815
40.1954
40.603
40.9812