/*--------------------------------*- C++ -*----------------------------------*\
  =========                 |
  \\      /  F ield         | OpenFOAM: The Open Source CFD Toolbox
   \\    /   O peration     | Website:  https://openfoam.org
    \\  /    A nd           | Version:  10
     \\/     M anipulation  |
\*---------------------------------------------------------------------------*/
FoamFile
{
    format      ascii;
    class       volScalarField;
    location    "1700";
    object      p;
}
// * * * * * * * * * * * * * * * * * * * * * * * * * * * * * * * * * * * * * //

dimensions      [0 2 -2 0 0 0 0];

internalField   nonuniform List<scalar> 
6820
(
6.39656
-4.49325
-8.01247
-8.74607
-9.14739
-9.48595
-9.67845
-9.77494
-9.8404
-9.89489
-9.93915
-9.97493
-10.0055
-10.0329
-10.0579
-10.0809
-10.1023
-10.1225
-10.1417
-10.16
-10.1776
-10.1945
-10.2109
-10.2267
-10.2419
-10.2566
-10.2705
-10.2836
-10.2955
-10.306
-10.3134
-10.3191
-10.3062
-15.4914
-11.8134
-11.0686
-10.2994
-9.93458
-9.86821
-9.86649
-9.87035
-9.88846
-9.91768
-9.94848
-9.97717
-10.0041
-10.0295
-10.0535
-10.076
-10.0973
-10.1174
-10.1367
-10.1551
-10.1729
-10.19
-10.2065
-10.2225
-10.238
-10.2529
-10.2671
-10.2807
-10.2933
-10.3049
-10.3147
-10.3245
-10.3285
-13.3428
-9.7687
-9.5134
-9.51532
-9.50909
-9.60754
-9.70824
-9.77601
-9.83053
-9.88043
-9.92376
-9.9604
-9.99234
-10.021
-10.0471
-10.071
-10.0932
-10.1141
-10.1339
-10.1527
-10.1707
-10.188
-10.2047
-10.2209
-10.2365
-10.2516
-10.2661
-10.2801
-10.2933
-10.3059
-10.3174
-10.3297
-10.3399
-10.8537
-9.39458
-9.54527
-9.6614
-9.64605
-9.70139
-9.77198
-9.8207
-9.86076
-9.89972
-9.93554
-9.96726
-9.99591
-10.0223
-10.0469
-10.0698
-10.0914
-10.1118
-10.1312
-10.1499
-10.1678
-10.1851
-10.2019
-10.2181
-10.2339
-10.2492
-10.264
-10.2784
-10.2924
-10.306
-10.3193
-10.3335
-10.3477
-10.3943
-9.6969
-9.73738
-9.75361
-9.70938
-9.73706
-9.78941
-9.83051
-9.86669
-9.90284
-9.93689
-9.96767
-9.99578
-10.0218
-10.0461
-10.0689
-10.0903
-10.1106
-10.1301
-10.1487
-10.1666
-10.1839
-10.2007
-10.217
-10.2329
-10.2483
-10.2634
-10.2782
-10.2928
-10.3073
-10.3219
-10.3376
-10.3544
-10.3289
-9.85375
-9.80765
-9.78569
-9.74691
-9.76545
-9.80718
-9.8437
-9.87723
-9.91074
-9.94262
-9.97187
-9.99885
-10.024
-10.0476
-10.0698
-10.0908
-10.1108
-10.13
-10.1484
-10.1661
-10.1833
-10.2001
-10.2164
-10.2323
-10.2479
-10.2633
-10.2784
-10.2935
-10.3088
-10.3245
-10.3413
-10.3596
-10.2136
-9.88754
-9.83543
-9.81269
-9.7838
-9.79644
-9.8289
-9.86023
-9.89033
-9.9207
-9.95004
-9.97746
-10.0031
-10.0272
-10.05
-10.0716
-10.0921
-10.1117
-10.1306
-10.1487
-10.1663
-10.1834
-10.2001
-10.2164
-10.2323
-10.2481
-10.2636
-10.2791
-10.2946
-10.3105
-10.3269
-10.3444
-10.3636
-10.1075
-9.9024
-9.85994
-9.83975
-9.81746
-9.82576
-9.85077
-9.87726
-9.90399
-9.93139
-9.9583
-9.98392
-10.0082
-10.0312
-10.0532
-10.0741
-10.0941
-10.1133
-10.1318
-10.1497
-10.1671
-10.184
-10.2006
-10.2168
-10.2328
-10.2486
-10.2643
-10.28
-10.2959
-10.3121
-10.3291
-10.347
-10.3665
-10.0385
-9.91562
-9.88009
-9.86207
-9.84527
-9.85126
-9.871
-9.89362
-9.91744
-9.94224
-9.96696
-9.99087
-10.0138
-10.0358
-10.0569
-10.0771
-10.0965
-10.1153
-10.1334
-10.1511
-10.1682
-10.185
-10.2014
-10.2176
-10.2335
-10.2494
-10.2652
-10.2811
-10.2972
-10.3137
-10.3309
-10.349
-10.3684
-9.99613
-9.92424
-9.89482
-9.8797
-9.86786
-9.87293
-9.88912
-9.90879
-9.93019
-9.95276
-9.97556
-9.99791
-10.0196
-10.0406
-10.0608
-10.0804
-10.0993
-10.1176
-10.1353
-10.1527
-10.1696
-10.1861
-10.2024
-10.2185
-10.2344
-10.2503
-10.2661
-10.2821
-10.2983
-10.315
-10.3322
-10.3503
-10.3695
-9.9703
-9.92926
-9.9061
-9.89413
-9.88638
-9.89123
-9.90504
-9.92247
-9.94189
-9.96259
-9.98372
-10.0047
-10.0252
-10.0453
-10.0647
-10.0836
-10.102
-10.1199
-10.1373
-10.1543
-10.171
-10.1874
-10.2035
-10.2195
-10.2353
-10.2511
-10.267
-10.283
-10.2992
-10.3158
-10.333
-10.3509
-10.3696
-9.95547
-9.93283
-9.91549
-9.90641
-9.90181
-9.90673
-9.91891
-9.93461
-9.95241
-9.97153
-9.99124
-10.011
-10.0305
-10.0497
-10.0684
-10.0867
-10.1046
-10.1221
-10.1391
-10.1558
-10.1723
-10.1885
-10.2044
-10.2203
-10.236
-10.2518
-10.2675
-10.2835
-10.2996
-10.3162
-10.3331
-10.3507
-10.3688
-9.94811
-9.93616
-9.92373
-9.91717
-9.91493
-9.92
-9.93101
-9.94536
-9.96179
-9.97957
-9.99803
-10.0167
-10.0353
-10.0537
-10.0718
-10.0895
-10.1069
-10.124
-10.1407
-10.1571
-10.1733
-10.1893
-10.2051
-10.2208
-10.2364
-10.252
-10.2677
-10.2835
-10.2995
-10.3158
-10.3325
-10.3496
-10.3672
-9.9457
-9.93975
-9.93124
-9.92682
-9.92633
-9.93155
-9.94168
-9.95489
-9.97014
-9.98674
-10.0041
-10.0218
-10.0395
-10.0572
-10.0747
-10.0919
-10.1088
-10.1255
-10.1419
-10.158
-10.174
-10.1898
-10.2054
-10.2209
-10.2364
-10.2518
-10.2674
-10.283
-10.2988
-10.3148
-10.3311
-10.3477
-10.3646
-9.9465
-9.94377
-9.93826
-9.93563
-9.93643
-9.94176
-9.95118
-9.96342
-9.97761
-9.99315
-10.0095
-10.0263
-10.0433
-10.0602
-10.0771
-10.0938
-10.1103
-10.1266
-10.1427
-10.1586
-10.1742
-10.1898
-10.2052
-10.2205
-10.2358
-10.2511
-10.2664
-10.2818
-10.2973
-10.3129
-10.3288
-10.3449
-10.3611
-9.94931
-9.94826
-9.94496
-9.94376
-9.9455
-9.9509
-9.95973
-9.9711
-9.98434
-9.9989
-10.0143
-10.0303
-10.0465
-10.0628
-10.0791
-10.0953
-10.1114
-10.1273
-10.143
-10.1586
-10.174
-10.1893
-10.2045
-10.2196
-10.2347
-10.2497
-10.2648
-10.2799
-10.2951
-10.3103
-10.3257
-10.3412
-10.3568
-9.95337
-9.95313
-9.95142
-9.95133
-9.95374
-9.95916
-9.96746
-9.97807
-9.99043
-10.0041
-10.0186
-10.0338
-10.0493
-10.0649
-10.0807
-10.0964
-10.112
-10.1275
-10.1429
-10.1582
-10.1734
-10.1884
-10.2033
-10.2182
-10.233
-10.2478
-10.2625
-10.2773
-10.2921
-10.3069
-10.3218
-10.3367
-10.3516
-9.95817
-9.95828
-9.95767
-9.9584
-9.96127
-9.96664
-9.97449
-9.9844
-9.99595
-10.0088
-10.0225
-10.0369
-10.0516
-10.0667
-10.0818
-10.097
-10.1122
-10.1274
-10.1424
-10.1574
-10.1722
-10.187
-10.2016
-10.2162
-10.2307
-10.2452
-10.2596
-10.274
-10.2884
-10.3028
-10.3171
-10.3314
-10.3457
-9.96335
-9.9636
-9.96372
-9.96503
-9.96818
-9.97346
-9.98087
-9.99013
-10.0009
-10.013
-10.0259
-10.0395
-10.0536
-10.068
-10.0826
-10.0973
-10.1121
-10.1268
-10.1415
-10.1561
-10.1706
-10.1851
-10.1994
-10.2137
-10.2279
-10.2421
-10.2561
-10.2701
-10.2841
-10.2979
-10.3118
-10.3255
-10.3391
-9.96871
-9.96899
-9.96957
-9.97125
-9.97453
-9.97965
-9.98663
-9.9953
-10.0054
-10.0167
-10.0289
-10.0418
-10.0553
-10.0691
-10.0831
-10.0973
-10.1116
-10.1259
-10.1402
-10.1545
-10.1687
-10.1828
-10.1968
-10.2108
-10.2246
-10.2384
-10.2521
-10.2656
-10.2791
-10.2925
-10.3058
-10.3189
-10.3319
-9.9741
-9.97437
-9.9752
-9.97708
-9.98036
-9.98526
-9.99182
-9.99991
-10.0094
-10.0199
-10.0315
-10.0437
-10.0565
-10.0697
-10.0832
-10.097
-10.1108
-10.1247
-10.1386
-10.1525
-10.1663
-10.1801
-10.1938
-10.2074
-10.2209
-10.2342
-10.2475
-10.2607
-10.2737
-10.2866
-10.2993
-10.3118
-10.3242
-9.97943
-9.97967
-9.98061
-9.98253
-9.9857
-9.99031
-9.99643
-10.004
-10.0128
-10.0227
-10.0336
-10.0452
-10.0574
-10.07
-10.083
-10.0963
-10.1096
-10.1231
-10.1366
-10.1501
-10.1636
-10.177
-10.1904
-10.2036
-10.2167
-10.2297
-10.2425
-10.2552
-10.2678
-10.2801
-10.2923
-10.3043
-10.316
-9.98464
-9.98486
-9.98579
-9.98761
-9.99056
-9.99482
-10.0005
-10.0074
-10.0156
-10.0249
-10.0352
-10.0462
-10.0578
-10.0699
-10.0824
-10.0952
-10.1081
-10.1212
-10.1343
-10.1475
-10.1606
-10.1736
-10.1866
-10.1994
-10.2122
-10.2247
-10.2372
-10.2494
-10.2615
-10.2733
-10.285
-10.2964
-10.3075
-9.98973
-9.98993
-9.99075
-9.99235
-9.99496
-9.99879
-10.0039
-10.0103
-10.0179
-10.0266
-10.0363
-10.0467
-10.0578
-10.0694
-10.0814
-10.0938
-10.1063
-10.119
-10.1317
-10.1445
-10.1572
-10.1699
-10.1825
-10.195
-10.2073
-10.2195
-10.2314
-10.2432
-10.2548
-10.2662
-10.2773
-10.2881
-10.2987
-9.99471
-9.99488
-9.99549
-9.99674
-9.9989
-10.0022
-10.0067
-10.0126
-10.0196
-10.0277
-10.0367
-10.0467
-10.0572
-10.0684
-10.08
-10.0919
-10.104
-10.1163
-10.1287
-10.1411
-10.1535
-10.1658
-10.1781
-10.1902
-10.2021
-10.2139
-10.2254
-10.2368
-10.2479
-10.2588
-10.2694
-10.2797
-10.2897
-9.99962
-9.99977
-10.0001
-10.0008
-10.0024
-10.005
-10.0089
-10.0141
-10.0205
-10.028
-10.0366
-10.046
-10.0561
-10.0669
-10.078
-10.0896
-10.1014
-10.1133
-10.1254
-10.1374
-10.1495
-10.1615
-10.1733
-10.1851
-10.1966
-10.208
-10.2192
-10.2301
-10.2407
-10.2511
-10.2612
-10.271
-10.2805
-10.0046
-10.0047
-10.0045
-10.0046
-10.0054
-10.0073
-10.0104
-10.0149
-10.0207
-10.0277
-10.0357
-10.0447
-10.0544
-10.0647
-10.0755
-10.0867
-10.0982
-10.1099
-10.1216
-10.1334
-10.1451
-10.1568
-10.1683
-10.1797
-10.1909
-10.2019
-10.2126
-10.2231
-10.2334
-10.2433
-10.2529
-10.2622
-10.2712
-10.0097
-10.0098
-10.009
-10.008
-10.0078
-10.0088
-10.0111
-10.0149
-10.02
-10.0264
-10.034
-10.0425
-10.0519
-10.0619
-10.0724
-10.0833
-10.0945
-10.1059
-10.1174
-10.1289
-10.1403
-10.1517
-10.1629
-10.174
-10.1849
-10.1955
-10.2059
-10.216
-10.2258
-10.2353
-10.2444
-10.2533
-10.2617
-10.0152
-10.0153
-10.0135
-10.0112
-10.0098
-10.0096
-10.0109
-10.0138
-10.0183
-10.0242
-10.0314
-10.0395
-10.0486
-10.0583
-10.0686
-10.0793
-10.0903
-10.1014
-10.1127
-10.1239
-10.1351
-10.1462
-10.1572
-10.168
-10.1785
-10.1888
-10.1988
-10.2085
-10.218
-10.227
-10.2358
-10.2442
-10.2522
-10.0217
-10.0216
-10.0184
-10.0142
-10.011
-10.0094
-10.0096
-10.0117
-10.0155
-10.0209
-10.0276
-10.0355
-10.0444
-10.0539
-10.064
-10.0745
-10.0853
-10.0963
-10.1074
-10.1184
-10.1294
-10.1403
-10.151
-10.1615
-10.1718
-10.1818
-10.1914
-10.2008
-10.2099
-10.2186
-10.2269
-10.2349
-10.2425
-10.0298
-10.0294
-10.0238
-10.0169
-10.0115
-10.0081
-10.0069
-10.0081
-10.0112
-10.0162
-10.0226
-10.0303
-10.039
-10.0484
-10.0584
-10.0689
-10.0796
-10.0904
-10.1013
-10.1123
-10.1231
-10.1338
-10.1443
-10.1545
-10.1646
-10.1743
-10.1837
-10.1928
-10.2015
-10.2099
-10.2179
-10.2255
-10.2327
-10.0408
-10.0396
-10.0301
-10.0192
-10.0108
-10.0052
-10.0025
-10.0027
-10.0052
-10.0098
-10.0161
-10.0236
-10.0323
-10.0417
-10.0517
-10.0621
-10.0727
-10.0835
-10.0944
-10.1052
-10.1159
-10.1265
-10.1368
-10.1469
-10.1567
-10.1662
-10.1754
-10.1842
-10.1927
-10.2008
-10.2085
-10.2158
-10.2227
-10.0573
-10.0536
-10.0372
-10.0206
-10.0085
-10.0002
-9.99585
-9.995
-9.99703
-10.0013
-10.0075
-10.0151
-10.0237
-10.0332
-10.0433
-10.0538
-10.0645
-10.0753
-10.0862
-10.097
-10.1077
-10.1182
-10.1285
-10.1385
-10.1481
-10.1575
-10.1665
-10.1751
-10.1834
-10.1913
-10.1987
-10.2058
-10.2124
-10.0854
-10.0742
-10.0447
-10.0196
-10.0029
-9.99171
-9.98563
-9.98402
-9.98574
-9.98997
-9.99618
-10.0039
-10.0128
-10.0225
-10.0327
-10.0434
-10.0543
-10.0652
-10.0762
-10.0871
-10.0979
-10.1084
-10.1187
-10.1287
-10.1383
-10.1476
-10.1566
-10.1651
-10.1733
-10.181
-10.1883
-10.1953
-10.2018
-10.1375
-10.1092
-10.0556
-10.0168
-9.9927
-9.97705
-9.96913
-9.96718
-9.96911
-9.97386
-9.9808
-9.98933
-9.99896
-10.0094
-10.0203
-10.0315
-10.0429
-10.0543
-10.0656
-10.0768
-10.0877
-10.0984
-10.1088
-10.1189
-10.1285
-10.1378
-10.1467
-10.1552
-10.1633
-10.1709
-10.1781
-10.1849
-10.1912
-10.2167
-10.1539
-10.0717
-10.0211
-9.9847
-9.95865
-9.94539
-9.94075
-9.94091
-9.94474
-9.95157
-9.96055
-9.97097
-9.98238
-9.99444
-10.0069
-10.0195
-10.0321
-10.0447
-10.057
-10.069
-10.0807
-10.0921
-10.103
-10.1134
-10.1234
-10.133
-10.1421
-10.1506
-10.1587
-10.1663
-10.1735
-10.1801
-10.361
-10.1278
-10.0024
-9.99534
-9.9855
-9.97127
-9.96781
-9.9695
-9.97179
-9.97512
-9.98011
-9.98648
-9.99386
-10.0021
-10.011
-10.0205
-10.0303
-10.0404
-10.0506
-10.0608
-10.0709
-10.0809
-10.0907
-10.1002
-10.1095
-10.1184
-10.127
-10.1352
-10.1431
-10.1505
-10.1575
-10.1642
-10.1704
-11.3099
-10.0765
-9.48523
-9.41255
-9.43165
-9.47281
-9.5309
-9.5901
-9.64445
-9.69459
-9.74086
-9.78289
-9.8208
-9.85507
-9.88618
-9.91449
-9.94032
-9.96397
-9.98568
-10.0057
-10.0241
-10.0412
-10.0571
-10.0718
-10.0854
-10.0981
-10.1098
-10.1208
-10.1309
-10.1403
-10.1489
-10.1568
-10.164
-15.0757
-12.8652
-11.8522
-11.2326
-10.8149
-10.5669
-10.4041
-10.2804
-10.1884
-10.1248
-10.0822
-10.0541
-10.0363
-10.0263
-10.0221
-10.0222
-10.0253
-10.0307
-10.0376
-10.0456
-10.0544
-10.0635
-10.0729
-10.0823
-10.0917
-10.1008
-10.1097
-10.1183
-10.1266
-10.1345
-10.142
-10.1491
-10.1558
-1.21583
-5.30268
-7.41446
-8.17764
-8.60897
-8.96959
-9.23765
-9.41673
-9.54326
-9.64161
-9.71985
-9.78173
-9.83142
-9.87254
-9.90739
-9.93739
-9.96357
-9.98671
-10.0074
-10.0262
-10.0432
-10.0588
-10.0732
-10.0864
-10.0987
-10.1101
-10.1206
-10.1304
-10.1395
-10.1478
-10.1556
-10.1626
-10.1691
-10.3027
-10.0549
-10.37
-10.669
-10.7913
-10.8295
-10.8452
-10.8513
-10.854
-10.862
-10.8814
-10.9139
-10.9583
-11.0128
-11.0748
-11.1414
-11.2096
-11.2768
-11.3405
-11.3988
-11.4503
-11.4938
-11.5284
-11.5536
-11.569
-11.5744
-11.5699
-11.5556
-11.5314
-11.4974
-11.4537
-11.4003
-11.3372
-11.2643
-11.1814
-11.0884
-10.9852
-10.8716
-10.7472
-10.612
-10.4657
-10.3082
-10.1394
-9.95902
-9.76711
-9.56368
-9.3489
-9.123
-8.88623
-8.63904
-8.382
-8.1158
-7.84119
-7.55911
-7.27059
-6.97672
-6.67874
-6.37793
-6.07561
-5.77316
-5.47195
-5.17336
-4.8787
-4.58926
-4.3062
-4.03061
-3.76345
-3.50557
-3.25766
-3.02027
-2.79383
-2.57861
-2.37478
-2.18239
-2.00136
-1.83155
-1.67268
-1.52441
-1.38638
-1.25811
-1.13912
-1.02892
-0.927007
-0.832846
-0.745923
-0.665757
-0.591859
-0.523786
-0.461079
-0.403389
-0.350215
-0.301435
-0.256179
-0.215162
-0.175839
-0.142286
-0.104848
-0.0818068
-0.0343773
-0.0409491
-10.3534
-10.3402
-10.5428
-10.7003
-10.7415
-10.7411
-10.7414
-10.7455
-10.7545
-10.773
-10.8041
-10.8468
-10.8991
-10.9591
-11.0244
-11.0928
-11.1617
-11.229
-11.2925
-11.3505
-11.4017
-11.445
-11.4794
-11.5045
-11.5199
-11.5253
-11.5209
-11.5067
-11.4827
-11.4489
-11.4054
-11.3521
-11.2892
-11.2165
-11.1338
-11.0411
-10.9382
-10.8249
-10.7009
-10.5662
-10.4205
-10.2636
-10.0955
-9.9161
-9.72526
-9.52307
-9.30968
-9.08534
-8.85032
-8.60505
-8.35011
-8.08616
-7.81396
-7.53441
-7.24853
-6.95739
-6.66219
-6.36417
-6.06465
-5.76495
-5.46643
-5.17041
-4.87819
-4.59103
-4.31008
-4.0364
-3.77095
-3.51456
-3.26792
-3.0316
-2.80601
-2.59145
-2.38809
-2.196
-2.01511
-1.84529
-1.68628
-1.53776
-1.39939
-1.27069
-1.1512
-1.04046
-0.937963
-0.843188
-0.755633
-0.674821
-0.600269
-0.53154
-0.468175
-0.409829
-0.355996
-0.306564
-0.260635
-0.218993
-0.178926
-0.144908
-0.106379
-0.0838613
-0.0332966
-0.046063
-10.3663
-10.3755
-10.4672
-10.5816
-10.6512
-10.6888
-10.7158
-10.7364
-10.7523
-10.77
-10.7946
-10.8279
-10.8703
-10.9212
-10.9793
-11.0424
-11.1079
-11.1732
-11.2358
-11.2936
-11.3448
-11.3881
-11.4226
-11.4479
-11.4636
-11.4693
-11.4653
-11.4515
-11.428
-11.3946
-11.3515
-11.2987
-11.2361
-11.1638
-11.0815
-10.9893
-10.8868
-10.774
-10.6507
-10.5166
-10.3716
-10.2156
-10.0485
-9.87021
-9.68065
-9.4799
-9.26812
-9.04555
-8.81249
-8.56936
-8.31671
-8.05521
-7.78561
-7.50877
-7.2257
-6.93744
-6.64517
-6.35009
-6.05349
-5.75666
-5.46092
-5.16757
-4.87789
-4.5931
-4.31433
-4.04264
-3.77897
-3.52413
-3.27883
-3.04362
-2.81893
-2.60507
-2.40221
-2.21044
-2.02969
-1.85987
-1.70071
-1.55193
-1.41319
-1.28404
-1.16404
-1.05272
-0.949601
-0.854172
-0.765943
-0.684443
-0.609193
-0.539763
-0.475696
-0.41665
-0.362114
-0.311987
-0.265349
-0.223035
-0.182202
-0.147653
-0.108061
-0.0859254
-0.032417
-0.0509559
-10.3722
-10.3957
-10.4677
-10.5718
-10.6458
-10.6832
-10.705
-10.7215
-10.7363
-10.7543
-10.7794
-10.8129
-10.8545
-10.9032
-10.9575
-11.0155
-11.0751
-11.1341
-11.191
-11.2439
-11.291
-11.3314
-11.364
-11.3881
-11.4032
-11.409
-11.4052
-11.3917
-11.3684
-11.3354
-11.2928
-11.2405
-11.1785
-11.1067
-11.025
-10.9333
-10.8315
-10.7194
-10.5968
-10.4635
-10.3195
-10.1645
-9.99858
-9.82156
-9.63345
-9.43433
-9.22434
-9.00372
-8.77279
-8.53196
-8.28178
-8.02288
-7.75602
-7.48204
-7.20192
-6.91667
-6.62745
-6.33543
-6.04186
-5.748
-5.45516
-5.16459
-4.87754
-4.59522
-4.31873
-4.04912
-3.78731
-3.53411
-3.29021
-3.05619
-2.83246
-2.61935
-2.41704
-2.22562
-2.04505
-1.87523
-1.71594
-1.5669
-1.42779
-1.29817
-1.17763
-1.06571
-0.961935
-0.865817
-0.776879
-0.694648
-0.618658
-0.548483
-0.483668
-0.423878
-0.368595
-0.317728
-0.270346
-0.227309
-0.185683
-0.150546
-0.109897
-0.0880392
-0.0317063
-0.0556702
-10.3793
-10.4113
-10.4713
-10.5519
-10.6139
-10.6501
-10.6751
-10.697
-10.7178
-10.7401
-10.7672
-10.8004
-10.8399
-10.8852
-10.9353
-10.9886
-11.0436
-11.0982
-11.1508
-11.1996
-11.2433
-11.2804
-11.3103
-11.3321
-11.3453
-11.3497
-11.345
-11.3308
-11.3072
-11.2742
-11.2318
-11.1797
-11.118
-11.0467
-10.9655
-10.8743
-10.7731
-10.6617
-10.5399
-10.4075
-10.2645
-10.1107
-9.94602
-9.77041
-9.58388
-9.38649
-9.17841
-8.95987
-8.73119
-8.49278
-8.24517
-7.989
-7.72499
-7.45398
-7.1769
-6.89478
-6.60871
-6.31986
-6.02943
-5.73866
-5.44881
-5.16113
-4.87684
-4.59709
-4.323
-4.05557
-3.79573
-3.54427
-3.30188
-3.06912
-2.84644
-2.63415
-2.43245
-2.24143
-2.06108
-1.8913
-1.7319
-1.58262
-1.44312
-1.31304
-1.19195
-1.07942
-0.974961
-0.878126
-0.788444
-0.705445
-0.628675
-0.557713
-0.49211
-0.431531
-0.375457
-0.323807
-0.275638
-0.231834
-0.189385
-0.153599
-0.111905
-0.090207
-0.0311885
-0.0601534
-10.385
-10.4192
-10.4701
-10.5345
-10.5901
-10.6285
-10.6572
-10.682
-10.7049
-10.7284
-10.7553
-10.7872
-10.8244
-10.8666
-10.913
-10.9622
-11.0127
-11.0629
-11.1112
-11.156
-11.1961
-11.2301
-11.2573
-11.2769
-11.2883
-11.2912
-11.2852
-11.2702
-11.246
-11.2126
-11.1699
-11.1178
-11.0561
-10.9849
-10.904
-10.8133
-10.7126
-10.6018
-10.4807
-10.3493
-10.2072
-10.0546
-9.89116
-9.71699
-9.53207
-9.33647
-9.13034
-8.91394
-8.68757
-8.45165
-8.20669
-7.95332
-7.69225
-7.42429
-7.15037
-6.87146
-6.58865
-6.30306
-6.01588
-5.72832
-5.44159
-5.15692
-4.8755
-4.59846
-4.32688
-4.06176
-3.804
-3.5544
-3.31362
-3.08225
-2.8607
-2.64932
-2.44831
-2.25776
-2.07768
-1.90798
-1.74851
-1.59902
-1.45916
-1.32862
-1.20698
-1.09381
-0.988663
-0.891088
-0.800632
-0.716834
-0.639249
-0.567463
-0.501029
-0.43962
-0.382715
-0.330237
-0.281241
-0.236622
-0.193323
-0.156826
-0.114099
-0.0924265
-0.0308952
-0.064337
-10.389
-10.423
-10.4678
-10.5218
-10.5714
-10.6095
-10.6393
-10.6654
-10.6897
-10.7145
-10.7418
-10.773
-10.8086
-10.8482
-10.8912
-10.9365
-10.9828
-11.0286
-11.0727
-11.1135
-11.1498
-11.1806
-11.2049
-11.222
-11.2313
-11.2325
-11.2252
-11.2091
-11.1841
-11.1501
-11.107
-11.0546
-10.9929
-10.9217
-10.841
-10.7506
-10.6503
-10.54
-10.4196
-10.2889
-10.1479
-9.99628
-9.83413
-9.66139
-9.47808
-9.28427
-9.08013
-8.86589
-8.64187
-8.40848
-8.16623
-7.91572
-7.65766
-7.39283
-7.12214
-6.84654
-6.56709
-6.28488
-6.00106
-5.71682
-5.43334
-5.1518
-4.87337
-4.59916
-4.33023
-4.06755
-3.812
-3.56436
-3.32532
-3.09543
-2.87513
-2.66475
-2.4645
-2.27448
-2.09474
-1.92519
-1.76569
-1.61602
-1.47583
-1.34485
-1.22266
-1.10886
-1.00301
-0.904683
-0.81343
-0.728808
-0.650377
-0.577731
-0.510432
-0.448153
-0.390379
-0.337029
-0.287165
-0.241686
-0.19751
-0.160241
-0.116491
-0.0946951
-0.0308523
-0.0681679
-10.3915
-10.4245
-10.4648
-10.5112
-10.5554
-10.5921
-10.6223
-10.6493
-10.6748
-10.7004
-10.7279
-10.7583
-10.7921
-10.8292
-10.869
-10.9107
-10.9531
-10.9949
-11.0349
-11.0719
-11.1046
-11.1321
-11.1534
-11.168
-11.1751
-11.1744
-11.1655
-11.1481
-11.122
-11.0872
-11.0435
-10.9907
-10.9287
-10.8574
-10.7767
-10.6864
-10.5864
-10.4766
-10.3568
-10.2268
-10.0866
-9.93611
-9.77519
-9.60385
-9.42213
-9.23011
-9.02795
-8.81589
-8.59425
-8.36343
-8.12392
-7.87633
-7.62133
-7.35971
-7.09233
-6.82012
-6.54412
-6.26538
-5.98503
-5.70421
-5.42408
-5.14579
-4.87047
-4.59921
-4.33303
-4.0729
-3.81967
-3.57412
-3.33691
-3.10861
-2.88965
-2.68034
-2.48092
-2.29152
-2.11219
-1.94286
-1.78338
-1.63356
-1.49308
-1.36167
-1.23895
-1.12453
-1.01797
-0.918881
-0.826818
-0.74135
-0.662048
-0.588515
-0.520317
-0.457132
-0.398452
-0.344191
-0.293421
-0.247036
-0.201956
-0.163852
-0.119094
-0.0970114
-0.0310814
-0.0716067
-10.3929
-10.4243
-10.461
-10.5018
-10.5415
-10.5764
-10.6065
-10.6339
-10.6599
-10.6859
-10.7131
-10.7426
-10.7748
-10.8095
-10.8464
-10.8847
-10.9234
-10.9614
-10.9976
-11.0308
-11.0601
-11.0843
-11.1027
-11.1147
-11.1195
-11.1168
-11.1062
-11.0874
-11.0602
-11.0244
-10.9799
-10.9265
-10.8641
-10.7926
-10.7117
-10.6215
-10.5217
-10.4122
-10.2928
-10.1635
-10.0241
-9.8746
-9.71485
-9.54488
-9.36473
-9.17447
-8.97429
-8.76442
-8.54516
-8.31692
-8.08019
-7.83555
-7.58366
-7.32529
-7.06127
-6.79252
-6.52003
-6.24483
-5.96802
-5.69071
-5.41401
-5.13905
-4.86693
-4.59871
-4.33538
-4.07788
-3.82707
-3.58369
-3.34842
-3.12178
-2.90422
-2.69607
-2.49757
-2.30886
-2.13001
-1.96093
-1.80151
-1.65158
-1.51085
-1.37904
-1.2558
-1.14076
-1.03351
-0.933653
-0.84077
-0.754441
-0.674248
-0.599802
-0.530678
-0.466555
-0.406935
-0.351725
-0.300015
-0.25268
-0.206668
-0.167665
-0.121917
-0.0993745
-0.0316003
-0.0746173
-10.3931
-10.423
-10.4566
-10.4931
-10.5291
-10.562
-10.5916
-10.6188
-10.6449
-10.6709
-10.6977
-10.7262
-10.7567
-10.7892
-10.8232
-10.8583
-10.8935
-10.9279
-10.9604
-10.9901
-11.0159
-11.037
-11.0525
-11.0619
-11.0644
-11.0597
-11.0474
-11.0271
-10.9986
-10.9618
-10.9164
-10.8624
-10.7995
-10.7275
-10.6465
-10.5562
-10.4565
-10.3472
-10.2283
-10.0996
-9.96096
-9.81236
-9.65374
-9.4851
-9.30647
-9.11796
-8.91974
-8.71204
-8.49516
-8.26951
-8.03556
-7.79388
-7.54512
-7.29002
-7.0294
-6.76414
-6.4952
-6.2236
-5.95038
-5.67661
-5.40341
-5.13184
-4.86298
-4.59786
-4.33745
-4.08265
-3.83432
-3.59319
-3.3599
-3.13499
-2.91889
-2.71197
-2.51446
-2.3265
-2.14815
-1.97938
-1.82007
-1.67007
-1.5291
-1.39692
-1.27318
-1.15754
-1.04959
-0.948969
-0.85526
-0.768059
-0.68696
-0.61158
-0.541505
-0.476415
-0.415825
-0.359633
-0.306948
-0.258622
-0.211653
-0.171687
-0.124969
-0.101785
-0.0324217
-0.0771696
-10.3924
-10.4207
-10.4517
-10.4848
-10.5177
-10.5486
-10.5772
-10.604
-10.6298
-10.6554
-10.6816
-10.709
-10.7378
-10.7681
-10.7995
-10.8315
-10.8634
-10.8943
-10.9233
-10.9495
-10.9721
-10.99
-11.0027
-11.0094
-11.0097
-11.0029
-10.9888
-10.967
-10.9373
-10.8993
-10.8531
-10.7983
-10.7348
-10.6625
-10.5812
-10.4908
-10.3912
-10.2821
-10.1636
-10.0354
-9.89747
-9.74978
-9.59227
-9.42493
-9.24782
-9.06104
-8.86477
-8.65923
-8.44473
-8.22166
-7.99049
-7.75178
-7.50615
-7.25434
-6.99712
-6.73536
-6.47
-6.20201
-5.9324
-5.66222
-5.39254
-5.1244
-4.85884
-4.59685
-4.3394
-4.08736
-3.84156
-3.60271
-3.37145
-3.14831
-2.93375
-2.7281
-2.53162
-2.34444
-2.16665
-1.99821
-1.83904
-1.68899
-1.54782
-1.41528
-1.29107
-1.17483
-1.0662
-0.964805
-0.870265
-0.782183
-0.700164
-0.623832
-0.552785
-0.486704
-0.425117
-0.367909
-0.314221
-0.264864
-0.216913
-0.175921
-0.128251
-0.104243
-0.0335529
-0.0792414
-10.3907
-10.4174
-10.4463
-10.4765
-10.5068
-10.5359
-10.5633
-10.5893
-10.6146
-10.6396
-10.6649
-10.691
-10.7182
-10.7463
-10.7751
-10.8042
-10.8329
-10.8605
-10.8862
-10.9091
-10.9284
-10.9433
-10.9532
-10.9574
-10.9553
-10.9465
-10.9305
-10.9072
-10.8761
-10.837
-10.7898
-10.7343
-10.6702
-10.5975
-10.5159
-10.4254
-10.3258
-10.2169
-10.0987
-9.97109
-9.83391
-9.68712
-9.5307
-9.36467
-9.18907
-9.00402
-8.80969
-8.6063
-8.39418
-8.17369
-7.94531
-7.70956
-7.46707
-7.21854
-6.96473
-6.70649
-6.44471
-6.18033
-5.91435
-5.64777
-5.38163
-5.11693
-4.85469
-4.59587
-4.3414
-4.09215
-3.8489
-3.61237
-3.38317
-3.16185
-2.94886
-2.74452
-2.54909
-2.36272
-2.18552
-2.01745
-1.85844
-1.70837
-1.56701
-1.43413
-1.30944
-1.19261
-1.0833
-0.981143
-0.885768
-0.796797
-0.713844
-0.636545
-0.564506
-0.497411
-0.434801
-0.376551
-0.321831
-0.271406
-0.222449
-0.18037
-0.131766
-0.106753
-0.034995
-0.0808191
-10.3881
-10.4134
-10.4402
-10.4681
-10.4962
-10.5234
-10.5496
-10.5747
-10.5991
-10.6233
-10.6476
-10.6724
-10.6978
-10.7238
-10.7502
-10.7765
-10.8022
-10.8266
-10.849
-10.8687
-10.8849
-10.8969
-10.904
-10.9056
-10.9012
-10.8903
-10.8726
-10.8476
-10.8152
-10.7749
-10.7268
-10.6704
-10.6057
-10.5325
-10.4507
-10.36
-10.2605
-10.1518
-10.034
-9.90689
-9.77042
-9.62454
-9.46923
-9.3045
-9.13042
-8.94711
-8.75472
-8.5535
-8.34375
-8.12585
-7.90025
-7.66747
-7.42812
-7.18287
-6.93247
-6.67774
-6.41954
-6.15878
-5.89643
-5.63345
-5.37085
-5.10961
-4.8507
-4.59506
-4.34359
-4.09714
-3.85646
-3.62227
-3.39517
-3.17569
-2.96428
-2.76127
-2.56692
-2.3814
-2.20479
-2.03711
-1.87829
-1.72821
-1.58667
-1.45346
-1.32831
-1.2109
-1.1009
-0.997971
-0.901756
-0.811885
-0.727988
-0.649706
-0.576658
-0.508527
-0.444871
-0.385551
-0.329772
-0.278246
-0.228258
-0.185036
-0.135512
-0.109319
-0.0367419
-0.0818994
-10.3846
-10.4085
-10.4336
-10.4595
-10.4855
-10.5111
-10.5359
-10.5599
-10.5834
-10.6065
-10.6297
-10.653
-10.6767
-10.7007
-10.7246
-10.7482
-10.7711
-10.7925
-10.8118
-10.8284
-10.8416
-10.8507
-10.8551
-10.8542
-10.8475
-10.8346
-10.815
-10.7884
-10.7546
-10.7132
-10.664
-10.6068
-10.5415
-10.4679
-10.3857
-10.2949
-10.1954
-10.0869
-9.96947
-9.84291
-9.70717
-9.56221
-9.40802
-9.24461
-9.07206
-8.89048
-8.70006
-8.50101
-8.29365
-8.07833
-7.85551
-7.6257
-7.38948
-7.14752
-6.90052
-6.64929
-6.39467
-6.13753
-5.8788
-5.61943
-5.36037
-5.10258
-4.847
-4.59454
-4.34608
-4.10243
-3.86434
-3.6325
-3.40751
-3.18989
-2.98008
-2.77842
-2.58516
-2.40049
-2.2245
-2.05722
-1.89859
-1.74852
-1.60681
-1.47328
-1.34766
-1.22967
-1.11898
-1.01528
-0.91822
-0.827441
-0.742585
-0.663306
-0.589229
-0.520044
-0.455319
-0.394904
-0.33804
-0.285381
-0.234339
-0.189917
-0.139483
-0.111942
-0.0387807
-0.0824921
-10.3802
-10.4028
-10.4263
-10.4505
-10.4747
-10.4987
-10.5222
-10.545
-10.5673
-10.5894
-10.6112
-10.6331
-10.655
-10.6769
-10.6986
-10.7196
-10.7397
-10.7582
-10.7746
-10.7882
-10.7985
-10.8048
-10.8066
-10.8032
-10.7943
-10.7793
-10.7579
-10.7297
-10.6945
-10.6519
-10.6017
-10.5437
-10.4777
-10.4036
-10.3211
-10.2302
-10.1307
-10.0224
-9.90535
-9.77934
-9.64435
-9.50032
-9.34725
-9.18518
-9.01417
-8.83434
-8.64588
-8.44901
-8.24404
-8.03131
-7.81128
-7.58443
-7.35134
-7.11265
-6.86906
-6.62132
-6.37026
-6.11673
-5.86161
-5.60583
-5.3503
-5.09595
-4.8437
-4.59442
-4.34896
-4.10811
-3.87262
-3.64314
-3.42026
-3.20451
-2.99631
-2.796
-2.60385
-2.42004
-2.24468
-2.0778
-1.91938
-1.76931
-1.62745
-1.49359
-1.36751
-1.24893
-1.13756
-1.03307
-0.935154
-0.843455
-0.757629
-0.677335
-0.602213
-0.531952
-0.466138
-0.404604
-0.346631
-0.292807
-0.240687
-0.195014
-0.143674
-0.114626
-0.0410933
-0.0826186
-10.375
-10.3963
-10.4184
-10.441
-10.4637
-10.4861
-10.5082
-10.5298
-10.5509
-10.5717
-10.5923
-10.6126
-10.6328
-10.6527
-10.6721
-10.6907
-10.7081
-10.7238
-10.7374
-10.7482
-10.7557
-10.7593
-10.7585
-10.7528
-10.7417
-10.7247
-10.7015
-10.6717
-10.635
-10.5912
-10.54
-10.4811
-10.4145
-10.3399
-10.2571
-10.1661
-10.0666
-9.95854
-9.84183
-9.71639
-9.58214
-9.43905
-9.28712
-9.12639
-8.95694
-8.77888
-8.59239
-8.3977
-8.19512
-7.98499
-7.76774
-7.54385
-7.31388
-7.07845
-6.83824
-6.59399
-6.34647
-6.09653
-5.84501
-5.59279
-5.34078
-5.08986
-4.84092
-4.5948
-4.35234
-4.11429
-3.88138
-3.65425
-3.43349
-3.2196
-3.01301
-2.81405
-2.62301
-2.44007
-2.26535
-2.09888
-1.94066
-1.7906
-1.64857
-1.5144
-1.38785
-1.26868
-1.15661
-1.05134
-0.952553
-0.859922
-0.77311
-0.691787
-0.615602
-0.544246
-0.477319
-0.414643
-0.355537
-0.30052
-0.247298
-0.200324
-0.14808
-0.117373
-0.043656
-0.0823101
-10.369
-10.3892
-10.4099
-10.431
-10.4522
-10.4733
-10.494
-10.5143
-10.5342
-10.5537
-10.5728
-10.5916
-10.61
-10.628
-10.6452
-10.6614
-10.6763
-10.6894
-10.7003
-10.7084
-10.7133
-10.7143
-10.7111
-10.703
-10.6897
-10.6707
-10.6457
-10.6144
-10.5763
-10.5313
-10.479
-10.4194
-10.3521
-10.277
-10.1939
-10.1027
-10.0033
-9.89544
-9.77913
-9.65426
-9.52077
-9.37863
-9.22786
-9.06849
-8.90059
-8.7243
-8.53979
-8.34729
-8.1471
-7.93956
-7.72508
-7.50414
-7.27728
-7.0451
-6.80826
-6.56746
-6.32347
-6.07709
-5.82914
-5.58047
-5.33194
-5.08443
-4.83878
-4.5958
-4.35631
-4.12104
-3.8907
-3.66591
-3.44726
-3.23522
-3.03023
-2.83263
-2.6427
-2.46062
-2.28652
-2.12047
-1.96245
-1.8124
-1.6702
-1.5357
-1.40868
-1.28892
-1.17615
-1.07008
-0.97041
-0.876833
-0.789021
-0.706652
-0.629386
-0.556916
-0.488857
-0.425016
-0.364752
-0.308515
-0.254166
-0.205846
-0.152689
-0.120185
-0.0464411
-0.0816058
-10.3622
-10.3813
-10.4008
-10.4206
-10.4405
-10.4602
-10.4796
-10.4986
-10.5172
-10.5353
-10.553
-10.5702
-10.5869
-10.6029
-10.618
-10.632
-10.6445
-10.6551
-10.6634
-10.669
-10.6713
-10.6699
-10.6642
-10.6539
-10.6385
-10.6177
-10.5909
-10.558
-10.5185
-10.4723
-10.4191
-10.3586
-10.2907
-10.2151
-10.1317
-10.0404
-9.941
-9.83338
-9.71747
-9.59319
-9.46047
-9.3193
-9.16969
-9.01168
-8.84535
-8.67084
-8.48831
-8.298
-8.1002
-7.89523
-7.68352
-7.46552
-7.24175
-7.01279
-6.77929
-6.54192
-6.30143
-6.05857
-5.81416
-5.569
-5.32393
-5.07979
-4.83739
-4.59752
-4.36098
-4.12846
-3.90067
-3.6782
-3.46163
-3.25143
-3.04803
-2.85177
-2.66293
-2.48171
-2.30824
-2.14258
-1.98476
-1.83471
-1.69234
-1.5575
-1.43001
-1.30964
-1.19615
-1.08927
-0.988712
-0.894176
-0.80535
-0.721919
-0.643553
-0.569951
-0.500738
-0.435712
-0.374267
-0.316784
-0.261282
-0.211573
-0.157492
-0.123064
-0.0494164
-0.080551
-10.3548
-10.3729
-10.3912
-10.4098
-10.4283
-10.4467
-10.4648
-10.4826
-10.4998
-10.5166
-10.5329
-10.5485
-10.5635
-10.5776
-10.5907
-10.6025
-10.6127
-10.6209
-10.6268
-10.63
-10.6298
-10.6261
-10.6182
-10.6057
-10.5883
-10.5656
-10.5372
-10.5027
-10.4619
-10.4145
-10.3603
-10.299
-10.2305
-10.1544
-10.0708
-9.97932
-9.87997
-9.7726
-9.6571
-9.53341
-9.40148
-9.26129
-9.11286
-8.95622
-8.79147
-8.61874
-8.4382
-8.25007
-8.05464
-7.85225
-7.64328
-7.42819
-7.20749
-6.98173
-6.75153
-6.51756
-6.28052
-6.04115
-5.80023
-5.55854
-5.31688
-5.07607
-4.83688
-4.60009
-4.36645
-4.13665
-3.91137
-3.69119
-3.47667
-3.26829
-3.06645
-2.87152
-2.68375
-2.50337
-2.3305
-2.16524
-2.0076
-1.85754
-1.71499
-1.5798
-1.45182
-1.33083
-1.21661
-1.10891
-1.00745
-0.911939
-0.822081
-0.737572
-0.65809
-0.583337
-0.512951
-0.446719
-0.38407
-0.325317
-0.268635
-0.217498
-0.162475
-0.126012
-0.0525469
-0.079195
-10.3468
-10.3639
-10.3812
-10.3985
-10.4159
-10.433
-10.4499
-10.4663
-10.4823
-10.4977
-10.5125
-10.5266
-10.5398
-10.5521
-10.5633
-10.573
-10.581
-10.587
-10.5906
-10.5914
-10.5891
-10.583
-10.573
-10.5585
-10.5392
-10.5146
-10.4846
-10.4487
-10.4066
-10.3581
-10.3029
-10.2408
-10.1716
-10.0952
-10.0112
-9.91971
-9.82043
-9.71331