/*--------------------------------*- C++ -*----------------------------------*\
  =========                 |
  \\      /  F ield         | OpenFOAM: The Open Source CFD Toolbox
   \\    /   O peration     | Website:  https://openfoam.org
    \\  /    A nd           | Version:  10
     \\/     M anipulation  |
\*---------------------------------------------------------------------------*/
FoamFile
{
    format      ascii;
    class       surfaceScalarField;
    location    "1700";
    object      phi;
}
// * * * * * * * * * * * * * * * * * * * * * * * * * * * * * * * * * * * * * //

dimensions      [0 3 -1 0 0 0 0];

internalField   nonuniform List<scalar> 
13452
(
6.29962e-05
-2.72776e-06
6.37618e-05
-7.6562e-07
6.45326e-05
-7.70776e-07
6.38574e-05
6.75239e-07
6.2516e-05
1.34139e-06
6.10812e-05
1.43478e-06
5.97497e-05
1.33152e-06
5.8556e-05
1.19366e-06
5.74952e-05
1.0608e-06
5.65541e-05
9.41094e-07
5.57171e-05
8.37033e-07
5.49686e-05
7.48455e-07
5.42952e-05
6.73416e-07
5.36858e-05
6.09387e-07
5.31316e-05
5.54266e-07
5.26251e-05
5.06457e-07
5.21604e-05
4.64695e-07
5.17325e-05
4.27958e-07
5.1337e-05
3.95432e-07
5.09706e-05
3.66475e-07
5.063e-05
3.4058e-07
5.03126e-05
3.17339e-07
5.00162e-05
2.96433e-07
4.97386e-05
2.77613e-07
4.94779e-05
2.60699e-07
4.92323e-05
2.45581e-07
4.90001e-05
2.32244e-07
4.87793e-05
2.20757e-07
4.85678e-05
2.11536e-07
4.8363e-05
2.04818e-07
4.81609e-05
2.02036e-07
4.79659e-05
1.94996e-07
1.98499e-07
4.77674e-05
6.28938e-05
-3.63119e-06
6.27373e-05
-6.0914e-07
6.21168e-05
-1.50235e-07
6.23912e-05
4.00762e-07
6.28732e-05
8.59445e-07
6.32661e-05
1.04182e-06
6.35106e-05
1.08704e-06
6.36214e-05
1.08291e-06
6.36287e-05
1.05346e-06
6.35618e-05
1.00804e-06
6.34435e-05
9.553e-07
6.32906e-05
9.01351e-07
6.3115e-05
8.49066e-07
6.29248e-05
7.9953e-07
6.2726e-05
7.53103e-07
6.25226e-05
7.09888e-07
6.23174e-05
6.69816e-07
6.21127e-05
6.32703e-07
6.19098e-05
5.98329e-07
6.17098e-05
5.66478e-07
6.15134e-05
5.36949e-07
6.13212e-05
5.09564e-07
6.11335e-05
4.8417e-07
6.09504e-05
4.60646e-07
6.07722e-05
4.3891e-07
6.05989e-05
4.1892e-07
6.04304e-05
4.00716e-07
6.02668e-05
3.84339e-07
6.01082e-05
3.70169e-07
5.99552e-05
3.57791e-07
5.98089e-05
3.48332e-07
5.96677e-05
3.36192e-07
3.57434e-07
5.95088e-05
6.23344e-05
-2.20423e-06
6.26284e-05
-9.03109e-07
6.27866e-05
-3.08429e-07
6.3096e-05
9.13555e-08
6.34472e-05
5.08215e-07
6.37493e-05
7.3976e-07
6.39954e-05
8.40991e-07
6.41903e-05
8.87994e-07
6.43385e-05
9.05255e-07
6.44463e-05
9.00241e-07
6.45207e-05
8.80843e-07
6.45682e-05
8.53902e-07
6.45939e-05
8.2337e-07
6.46021e-05
7.91271e-07
6.45964e-05
7.5881e-07
6.45795e-05
7.26784e-07
6.45537e-05
6.95679e-07
6.45206e-05
6.65749e-07
6.44818e-05
6.37121e-07
6.44384e-05
6.09853e-07
6.43914e-05
5.83964e-07
6.43415e-05
5.5945e-07
6.42894e-05
5.36303e-07
6.42355e-05
5.1452e-07
6.41803e-05
4.94119e-07
6.41241e-05
4.75141e-07
6.40671e-05
4.57693e-07
6.40096e-05
4.41883e-07
6.39517e-05
4.28051e-07
6.38934e-05
4.16056e-07
6.38347e-05
4.07044e-07
6.3771e-05
3.99943e-07
4.10875e-07
6.37175e-05
6.47916e-05
-1.41272e-06
6.47391e-05
-8.50686e-07
6.47874e-05
-3.56642e-07
6.48995e-05
-2.08121e-08
6.50726e-05
3.35181e-07
6.52456e-05
5.66734e-07
6.54028e-05
6.83734e-07
6.55433e-05
7.47534e-07
6.5666e-05
7.82576e-07
6.57708e-05
7.95385e-07
6.58591e-05
7.92534e-07
6.59327e-05
7.80317e-07
6.59935e-05
7.62639e-07
6.60431e-05
7.41644e-07
6.60832e-05
7.18719e-07
6.61151e-05
6.94856e-07
6.61401e-05
6.70726e-07
6.61591e-05
6.46757e-07
6.61729e-05
6.23227e-07
6.61825e-05
6.00324e-07
6.61883e-05
5.78178e-07
6.61908e-05
5.5688e-07
6.61906e-05
5.36504e-07
6.6188e-05
5.17116e-07
6.61834e-05
4.98794e-07
6.61769e-05
4.8163e-07
6.61688e-05
4.65762e-07
6.61593e-05
4.51341e-07
6.61487e-05
4.38665e-07
6.6137e-05
4.27833e-07
6.61242e-05
4.19833e-07
6.61092e-05
4.14956e-07
4.19729e-07
6.61003e-05
6.70182e-05
-9.74161e-07
6.6871e-05
-7.03461e-07
6.68449e-05
-3.30539e-07
6.68728e-05
-4.8725e-08
6.69617e-05
2.463e-07
6.70706e-05
4.57815e-07
6.71774e-05
5.76948e-07
6.72778e-05
6.47164e-07
6.73704e-05
6.89911e-07
6.74544e-05
7.11447e-07
6.75294e-05
7.17482e-07
6.75961e-05
7.13616e-07
6.76553e-05
7.03515e-07
6.77076e-05
6.89308e-07
6.77539e-05
6.72424e-07
6.77948e-05
6.53906e-07
6.78311e-05
6.34489e-07
6.78631e-05
6.14673e-07
6.78916e-05
5.94803e-07
6.79168e-05
5.75129e-07
6.79391e-05
5.55835e-07
6.79589e-05
5.37061e-07
6.79765e-05
5.18922e-07
6.79921e-05
5.01523e-07
6.80059e-05
4.84968e-07
6.80182e-05
4.69373e-07
6.80291e-05
4.54884e-07
6.80388e-05
4.41662e-07
6.80475e-05
4.29956e-07
6.80553e-05
4.19966e-07
6.80628e-05
4.12388e-07
6.80701e-05
4.07613e-07
4.07932e-07
6.80819e-05
6.9089e-05
-6.79127e-07
6.89436e-05
-5.58053e-07
6.89005e-05
-2.8749e-07
6.89039e-05
-5.21237e-08
6.89554e-05
1.94808e-07
6.90297e-05
3.83526e-07
6.91069e-05
4.99737e-07
6.91818e-05
5.7231e-07
6.92531e-05
6.18626e-07
6.93197e-05
6.44812e-07
6.93811e-05
6.56039e-07
6.94375e-05
6.57267e-07
6.94891e-05
6.51893e-07
6.95364e-05
6.42006e-07
6.95798e-05
6.29043e-07
6.96196e-05
6.14061e-07
6.96563e-05
5.97817e-07
6.96901e-05
5.80844e-07
6.97214e-05
5.63522e-07
6.97504e-05
5.46131e-07
6.97774e-05
5.28886e-07
6.98025e-05
5.11952e-07
6.98259e-05
4.95465e-07
6.98479e-05
4.79546e-07
6.98686e-05
4.64312e-07
6.98881e-05
4.49882e-07
6.99066e-05
4.36393e-07
6.99242e-05
4.23991e-07
6.99413e-05
4.12871e-07
6.99581e-05
4.03213e-07
6.9975e-05
3.95414e-07
6.9993e-05
3.89633e-07
3.86384e-07
7.00146e-05
7.11537e-05
-4.66469e-07
7.10277e-05
-4.32047e-07
7.09799e-05
-2.39729e-07
7.09726e-05
-4.47969e-08
7.10042e-05
1.6323e-07
7.10576e-05
3.30084e-07
7.11167e-05
4.40638e-07
7.11758e-05
5.13169e-07
7.12335e-05
5.6096e-07
7.12886e-05
5.89759e-07
7.13403e-05
6.04285e-07
7.13887e-05
6.08912e-07
7.14338e-05
6.06759e-07
7.1476e-05
5.99857e-07
7.15154e-05
5.89633e-07
7.15523e-05
5.77142e-07
7.15869e-05
5.6315e-07
7.16196e-05
5.48208e-07
7.16504e-05
5.32717e-07
7.16795e-05
5.16979e-07
7.17072e-05
5.01222e-07
7.17335e-05
4.85628e-07
7.17587e-05
4.70345e-07
7.17827e-05
4.55498e-07
7.18058e-05
4.41207e-07
7.18281e-05
4.27584e-07
7.18498e-05
4.14747e-07
7.18709e-05
4.02812e-07
7.18919e-05
3.91913e-07
7.19129e-05
3.82161e-07
7.19346e-05
3.73713e-07
7.19578e-05
3.66513e-07
3.60395e-07
7.19838e-05
7.32523e-05
-3.13526e-07
7.31446e-05
-3.24284e-07
7.30947e-05
-1.89905e-07
7.30808e-05
-3.08192e-08
7.31e-05
1.43955e-07
7.31398e-05
2.90344e-07
7.31869e-05
3.93534e-07
7.32358e-05
4.64274e-07
7.32845e-05
5.12207e-07
7.33319e-05
5.42405e-07
7.33771e-05
5.59103e-07
7.34199e-05
5.66133e-07
7.34603e-05
5.66331e-07
7.34985e-05
5.61645e-07
7.35347e-05
5.53475e-07
7.35689e-05
5.42863e-07
7.36015e-05
5.30573e-07
7.36325e-05
5.17169e-07
7.36622e-05
5.03066e-07
7.36906e-05
4.88577e-07
7.37179e-05
4.73943e-07
7.37442e-05
4.59354e-07
7.37695e-05
4.44963e-07
7.37941e-05
4.30897e-07
7.38181e-05
4.1727e-07
7.38415e-05
4.04182e-07
7.38645e-05
3.91728e-07
7.38873e-05
3.79991e-07
7.39102e-05
3.69044e-07
7.39334e-05
3.58921e-07
7.39575e-05
3.49622e-07
7.39831e-05
3.4096e-07
3.32552e-07
7.40109e-05
7.53941e-05
-2.0517e-07
7.53032e-05
-2.33392e-07
7.52537e-05
-1.40362e-07
7.52354e-05
-1.25241e-08
7.52462e-05
1.33175e-07
7.5276e-05
2.60474e-07
7.53144e-05
3.55198e-07
7.53559e-05
4.22781e-07
7.53982e-05
4.69819e-07
7.54401e-05
5.00525e-07
7.54807e-05
5.18582e-07
7.55195e-05
5.27315e-07
7.55565e-05
5.29275e-07
7.55919e-05
5.26298e-07
7.56256e-05
5.19737e-07
7.56579e-05
5.10609e-07
7.56888e-05
4.99672e-07
7.57184e-05
4.8749e-07
7.5747e-05
4.74488e-07
7.57746e-05
4.60987e-07
7.58013e-05
4.47235e-07
7.58272e-05
4.33426e-07
7.58525e-05
4.19714e-07
7.58772e-05
4.06225e-07
7.59014e-05
3.93065e-07
7.59252e-05
3.80319e-07
7.59489e-05
3.6806e-07
7.59726e-05
3.56336e-07
7.59964e-05
3.45171e-07
7.60208e-05
3.3454e-07
7.60461e-05
3.24349e-07
7.60727e-05
3.14362e-07
3.0416e-07
7.61011e-05
7.7584e-05
-1.29582e-07
7.75094e-05
-1.58772e-07
7.74626e-05
-9.35538e-08
7.74419e-05
8.18472e-09
7.74465e-05
1.28575e-07
7.74687e-05
2.38178e-07
7.75002e-05
3.23772e-07
7.75358e-05
3.8713e-07
7.75732e-05
4.32399e-07
7.76109e-05
4.62863e-07
7.76479e-05
4.81611e-07
7.76837e-05
4.91483e-07
7.77182e-05
4.94741e-07
7.77515e-05
4.93085e-07
7.77834e-05
4.87803e-07
7.78141e-05
4.79873e-07
7.78438e-05
4.70038e-07
7.78724e-05
4.58858e-07
7.79001e-05
4.46758e-07
7.7927e-05
4.34063e-07
7.79533e-05
4.21025e-07
7.79788e-05
4.07838e-07
7.80039e-05
3.94657e-07
7.80285e-05
3.81603e-07
7.80528e-05
3.68772e-07
7.80769e-05
3.56236e-07
7.81009e-05
3.44045e-07
7.8125e-05
3.32223e-07
7.81494e-05
3.20755e-07
7.81744e-05
3.09578e-07
7.82002e-05
2.98558e-07
7.82271e-05
2.87451e-07
2.7588e-07
7.82554e-05
7.98265e-05
-7.77251e-08
7.97671e-05
-9.94213e-08
7.97251e-05
-5.1532e-08
7.97038e-05
2.95008e-08
7.9704e-05
1.2833e-07
7.97204e-05
2.21787e-07
7.97462e-05
2.97987e-07
7.9777e-05
3.5634e-07
7.98103e-05
3.9911e-07
7.98445e-05
4.28677e-07
7.98785e-05
4.47532e-07
7.9912e-05
4.58049e-07
7.99445e-05
4.62204e-07
7.99761e-05
4.61541e-07
8.00066e-05
4.57264e-07
8.00362e-05
4.50301e-07
8.00648e-05
4.4137e-07
8.00927e-05
4.31019e-07
8.01198e-05
4.1967e-07
8.01462e-05
4.07645e-07
8.0172e-05
3.95196e-07
8.01973e-05
3.82518e-07
8.02222e-05
3.6976e-07
8.02468e-05
3.57038e-07
8.02711e-05
3.44441e-07
8.02953e-05
3.32027e-07
8.03195e-05
3.1983e-07
8.03439e-05
3.07852e-07
8.03686e-05
2.96058e-07
8.03938e-05
2.84365e-07
8.04198e-05
2.72628e-07
8.04466e-05
2.60626e-07
2.48043e-07
8.04744e-05
8.21255e-05
-4.27973e-08
8.20798e-05
-5.37079e-08
8.20439e-05
-1.56467e-08
8.20237e-05
4.97659e-08
8.20212e-05
1.30783e-07
8.20331e-05
2.09862e-07
8.20543e-05
2.76804e-07
8.2081e-05
3.29673e-07
8.21107e-05
3.6937e-07
8.21419e-05
3.97481e-07
8.21735e-05
4.15928e-07
8.22049e-05
4.26649e-07
8.22358e-05
4.31338e-07
8.2266e-05
4.31372e-07
8.22954e-05
4.27855e-07
8.2324e-05
4.21657e-07
8.23519e-05
4.1346e-07
8.23791e-05
4.03794e-07
8.24057e-05
3.9307e-07
8.24318e-05
3.81606e-07
8.24573e-05
3.69649e-07
8.24825e-05
3.5739e-07
8.25072e-05
3.44974e-07
8.25318e-05
3.32513e-07
8.25561e-05
3.20085e-07
8.25804e-05
3.07739e-07
8.26047e-05
2.95497e-07
8.26293e-05
2.83348e-07
8.26541e-05
2.71247e-07
8.26793e-05
2.59105e-07
8.27052e-05
2.46787e-07
8.27317e-05
2.34104e-07
2.20807e-07
8.27589e-05
8.44847e-05
-1.9735e-08
8.44506e-05
-1.96234e-08
8.44215e-05
1.35163e-08
8.44036e-05
6.76503e-08
8.43999e-05
1.34426e-07
8.44087e-05
2.01076e-07
8.44263e-05
2.5926e-07
8.44495e-05
3.06462e-07
8.44762e-05
3.42696e-07
8.45047e-05
3.68902e-07
8.45342e-05
3.86499e-07
8.45638e-05
3.97034e-07
8.45932e-05
4.01926e-07
8.46222e-05
4.02385e-07
8.46506e-05
3.99403e-07
8.46785e-05
3.93785e-07
8.47058e-05
3.86169e-07
8.47325e-05
3.77059e-07
8.47587e-05
3.66852e-07
8.47845e-05
3.55855e-07
8.48098e-05
3.44309e-07
8.48348e-05
3.32399e-07
8.48595e-05
3.20265e-07
8.4884e-05
3.08012e-07
8.49084e-05
2.95712e-07
8.49327e-05
2.83405e-07
8.49571e-05
2.71107e-07
8.49817e-05
2.588e-07
8.50065e-05
2.46436e-07
8.50317e-05
2.33933e-07
8.50573e-05
2.21173e-07
8.50834e-05
2.08004e-07
1.94234e-07
8.511e-05
8.69073e-05
-4.8408e-09
8.68827e-05
4.93586e-09
8.68602e-05
3.60389e-08
8.68456e-05
8.22822e-08
8.6842e-05
1.37999e-07
8.68488e-05
1.94217e-07
8.68637e-05
2.44424e-07
8.68841e-05
2.86056e-07
8.69082e-05
3.18624e-07
8.69345e-05
3.42601e-07
8.6962e-05
3.58994e-07
8.699e-05
3.69005e-07
8.70181e-05
3.73808e-07
8.70461e-05
3.74441e-07
8.70737e-05
3.71788e-07
8.71009e-05
3.66577e-07
8.71276e-05
3.594e-07
8.7154e-05
3.5073e-07
8.71799e-05
3.40942e-07
8.72054e-05
3.30331e-07
8.72306e-05
3.19128e-07
8.72555e-05
3.0751e-07
8.72801e-05
2.95612e-07
8.73046e-05
2.83531e-07
8.7329e-05
2.71334e-07
8.73533e-05
2.59058e-07
8.73777e-05
2.46711e-07
8.74023e-05
2.34277e-07
8.7427e-05
2.21711e-07
8.7452e-05
2.08942e-07
8.74773e-05
1.95874e-07
8.75029e-05
1.82389e-07
1.68345e-07
8.75288e-05
8.93962e-05
4.52153e-09
8.93792e-05
2.19574e-08
8.93627e-05
5.24814e-08
8.93517e-05
9.32666e-08
8.93492e-05
1.40567e-07
8.93551e-05
1.88248e-07
8.93681e-05
2.31427e-07
8.93864e-05
2.67807e-07
8.94083e-05
2.96688e-07
8.94327e-05
3.18245e-07
8.94585e-05
3.33168e-07
8.94851e-05
3.42383e-07
8.95121e-05
3.46842e-07
8.95391e-05
3.47429e-07
8.9566e-05
3.44916e-07
8.95926e-05
3.39956e-07
8.96189e-05
3.33087e-07
8.96449e-05
3.24749e-07
8.96705e-05
3.15291e-07
8.96959e-05
3.04994e-07
8.97209e-05
2.94075e-07
8.97457e-05
2.82703e-07
8.97703e-05
2.71005e-07
8.97948e-05
2.59074e-07
8.98192e-05
2.4697e-07
8.98435e-05
2.34728e-07
8.98678e-05
2.22356e-07
8.98923e-05
2.09839e-07
8.99169e-05
1.97139e-07
8.99416e-05
1.842e-07
8.99665e-05
1.70947e-07
8.99916e-05
1.57294e-07
1.43136e-07
9.00168e-05
9.19542e-05
1.01916e-08
9.1943e-05
3.31918e-08
9.19318e-05
6.36781e-08
9.19244e-05
1.00617e-07
9.19234e-05
1.41554e-07
9.19293e-05
1.82364e-07
9.19412e-05
2.19511e-07
9.19579e-05
2.51102e-07
9.19782e-05
2.76424e-07
9.20009e-05
2.9549e-07
9.20253e-05
3.08776e-07
9.20507e-05
3.16988e-07
9.20767e-05
3.20897e-07
9.21029e-05
3.21248e-07
9.21291e-05
3.18708e-07
9.21552e-05
3.13855e-07
9.21811e-05
3.07177e-07
9.22068e-05
2.99072e-07
9.22322e-05
2.89866e-07
9.22574e-05
2.79818e-07
9.22823e-05
2.69133e-07
9.2307e-05
2.5797e-07
9.23316e-05
2.46448e-07
9.2356e-05
2.34653e-07
9.23803e-05
2.22644e-07
9.24046e-05
2.10452e-07
9.24289e-05
1.98086e-07
9.24532e-05
1.85536e-07
9.24776e-05
1.72775e-07
9.2502e-05
1.59757e-07
9.25265e-05
1.46432e-07
9.25511e-05
1.32735e-07
1.18597e-07
9.25756e-05
9.45839e-05
1.34293e-08
9.4577e-05
4.01016e-08
9.45701e-05
7.05642e-08
9.45661e-05
1.04642e-07
9.45669e-05
1.40712e-07
9.45733e-05
1.76022e-07
9.45847e-05
2.08074e-07
9.46004e-05
2.35405e-07
9.46194e-05
2.57396e-07
9.46409e-05
2.74004e-07
9.46641e-05
2.85568e-07
9.46885e-05
2.92636e-07
9.47136e-05
2.95837e-07
9.4739e-05
2.95796e-07
9.47646e-05
2.93087e-07
9.47903e-05
2.88219e-07
9.48158e-05
2.81625e-07
9.48412e-05
2.73667e-07
9.48664e-05
2.64642e-07
9.48915e-05
2.54788e-07
9.49163e-05
2.44296e-07
9.4941e-05
2.33312e-07
9.49655e-05
2.2195e-07
9.49898e-05
2.10288e-07
9.50141e-05
1.98382e-07
9.50383e-05
1.86262e-07
9.50624e-05
1.73942e-07
9.50865e-05
1.61414e-07
9.51107e-05
1.48662e-07
9.51348e-05
1.35654e-07
9.51588e-05
1.22355e-07
9.51829e-05
1.08724e-07
9.47132e-08
9.52067e-05
9.72879e-05
1.50852e-08
9.72841e-05
4.38638e-08
9.72806e-05
7.40594e-08
9.72794e-05
1.05826e-07
9.72821e-05
1.38064e-07
9.72892e-05
1.68934e-07
9.73005e-05
1.96702e-07
9.73156e-05
2.20294e-07
9.73338e-05
2.39234e-07
9.73543e-05
2.53484e-07
9.73766e-05
2.63308e-07
9.74001e-05
2.69151e-07
9.74244e-05
2.71532e-07
9.74492e-05
2.70978e-07
9.74743e-05
2.67984e-07
9.74995e-05
2.62996e-07
9.75248e-05
2.56396e-07
9.75499e-05
2.48509e-07
9.75749e-05
2.39603e-07
9.75998e-05
2.29897e-07
9.76246e-05
2.19564e-07
9.76491e-05
2.08739e-07
9.76736e-05
1.97526e-07
9.76979e-05
1.86e-07
9.7722e-05
1.74213e-07
9.77461e-05
1.62195e-07
9.77701e-05
1.49962e-07
9.7794e-05
1.37513e-07
9.78178e-05
1.24839e-07
9.78415e-05
1.11922e-07
9.78651e-05
9.87386e-08
9.78886e-05
8.52656e-08
7.14716e-08
9.79118e-05
0.000100068
1.57284e-08
0.000100067
4.53992e-08
0.000100066
7.50007e-08
0.000100067
1.04733e-07
0.000100071
1.33824e-07
0.000100079
1.61031e-07
0.000100091
1.85169e-07
0.000100106
2.05487e-07
0.000100123
2.21657e-07
0.000100143
2.33682e-07
0.000100164
2.41796e-07
0.000100187
2.46376e-07
0.000100211
2.47862e-07
0.000100235
2.46705e-07
0.00010026
2.43336e-07
0.000100285
2.3814e-07
0.00010031
2.31459e-07
0.000100335
2.23579e-07
0.000100359
2.14743e-07
0.000100384
2.05145e-07
0.000100409
1.94944e-07
0.000100433
1.84263e-07
0.000100458
1.73197e-07
0.000100482
1.61816e-07
0.000100506
1.50168e-07
0.00010053
1.38285e-07
0.000100553
1.26184e-07
0.000100577
1.13869e-07
0.000100601
1.01339e-07
0.000100624
8.85851e-08
0.000100647
7.55972e-08
0.00010067
6.23613e-08
4.88623e-08
0.000100693
0.000102928
1.57391e-08
0.000102928
4.54185e-08
0.000102929
7.4117e-08
0.000102932
1.01942e-07
0.000102937
1.28325e-07
0.000102946
1.52415e-07
0.000102958
1.73419e-07
0.000102972
1.90841e-07
0.000102989
2.04494e-07
0.000103009
2.14431e-07
0.00010303
2.20885e-07
0.000103052
2.2419e-07
0.000103075
2.24735e-07
0.000103099
2.22911e-07
0.000103123
2.19093e-07
0.000103147
2.13622e-07
0.000103172
2.06796e-07
0.000103197
1.9887e-07
0.000103221
1.9006e-07
0.000103246
1.80539e-07
0.000103271
1.7045e-07
0.000103295
1.59904e-07
0.000103319
1.48987e-07
0.000103343
1.37764e-07
0.000103367
1.2628e-07
0.000103391
1.14565e-07
0.000103414
1.0264e-07
0.000103438
9.05135e-08
0.000103461
7.8189e-08
0.000103484
6.56656e-08
0.000103506
5.29417e-08
0.000103529
4.00134e-08
2.68746e-08
0.000103551
0.000105869
1.53741e-08
0.00010587
4.44689e-08
0.000105872
7.20296e-08
0.000105876
9.801e-08
0.000105882
1.21966e-07
0.000105892
1.43312e-07
0.000105903
1.61538e-07
0.000105918
1.76351e-07
0.000105935
1.87686e-07
0.000105953
1.95654e-07
0.000105974
2.00496e-07
0.000105996
2.02528e-07
0.000106018
2.02098e-07
0.000106042
1.99556e-07
0.000106065
1.95233e-07
0.00010609
1.89428e-07
0.000106114
1.82404e-07
0.000106138
1.74387e-07
0.000106163
1.65566e-07
0.000106187
1.56096e-07
0.000106212
1.46102e-07
0.000106236
1.35686e-07
0.00010626
1.24923e-07
0.000106284
1.13873e-07
0.000106308
1.02577e-07
0.000106331
9.1067e-08
0.000106354
7.93606e-08
0.000106377
6.74727e-08
0.0001064
5.54091e-08
0.000106423
4.31774e-08
0.000106445
3.07792e-08
0.000106467
1.82203e-08
5.49801e-09
0.000106488
0.000108894
1.4813e-08
0.000108895
4.29815e-08
0.000108898
6.92726e-08
0.000108903
9.34616e-08
0.00010891
1.15181e-07
0.000108919
1.34035e-07
0.000108931
1.49727e-07
0.000108945
1.62131e-07
0.000108961
1.71287e-07
0.00010898
1.77367e-07
0.000108999
1.80631e-07
0.000109021
1.81384e-07
0.000109043
1.79949e-07
0.000109066
1.76644e-07
0.000109089
1.71763e-07
0.000109113
1.65572e-07
0.000109137
1.58301e-07
0.000109161
1.5015e-07
0.000109186
1.41285e-07
0.00010921
1.31841e-07
0.000109234
1.21929e-07
0.000109258
1.11638e-07
0.000109282
1.01035e-07
0.000109306
9.01724e-08
0.000109329
7.909e-08
0.000109352
6.78149e-08
0.000109375
5.63685e-08
0.000109398
4.47642e-08
0.00010942
3.30143e-08
0.000109443
2.11266e-08
0.000109464
9.11073e-09
0.000109485
-3.02699e-09
-1.52828e-08
0.000109506
0.000112005
1.41896e-08
0.000112007
4.13123e-08
0.00011201
6.63211e-08
0.000112014
8.88e-08
0.000112021
1.0843e-07
0.00011203
1.24965e-07
0.000112042
1.3828e-07
0.000112055
1.48396e-07
0.000112071
1.55454e-07
0.000112089
1.59686e-07
0.000112108
1.61373e-07
0.000112129
1.60823e-07
0.00011215
1.58343e-07
0.000112173
1.54222e-07
0.000112196
1.48726e-07
0.000112219
1.42093e-07
0.000112243
1.34525e-07
0.000112267
1.26196e-07
0.000112291
1.17251e-07
0.000112315
1.07807e-07
0.000112339
9.79611e-08
0.000112363
8.77884e-08
0.000112387
7.73481e-08
0.00011241
6.66865e-08
0.000112433
5.58376e-08
0.000112456
4.48274e-08
0.000112479
3.36755e-08
0.000112501
2.23972e-08
0.000112523
1.10051e-08
0.000112545
-4.89674e-10
0.000112566
-1.20766e-08
0.000112587
-2.37459e-08
-3.54922e-08
0.000112607
0.000115205
1.36166e-08
0.000115207
3.97852e-08
0.000115209
6.36317e-08
0.000115214
8.45351e-08
0.00011522
1.02211e-07
0.000115228
1.16548e-07
0.000115239
1.27579e-07
0.000115252
1.35462e-07
0.000115267
1.40442e-07
0.000115284
1.42813e-07
0.000115302
1.42888e-07
0.000115322
1.40981e-07
0.000115343
1.37388e-07
0.000115365
1.3238e-07
0.000115387
1.262e-07
0.00011541
1.19058e-07
0.000115434
1.11132e-07
0.000115457
1.02573e-07
0.000115481
9.35053e-08
0.000115505
8.40295e-08
0.000115529
7.42264e-08
0.000115552
6.41604e-08
0.000115576
5.38809e-08
0.000115599
4.34272e-08
0.000115622
3.28275e-08
0.000115645
2.21058e-08
0.000115667
1.12787e-08
0.000115689
3.6175e-10
0.000115711
-1.06335e-08
0.000115732
-2.16944e-08
0.000115753
-3.28106e-08
0.000115773
-4.3971e-08
-5.51707e-08
0.000115793
0.000118496
1.32053e-08
0.000118497
3.87333e-08
0.000118499
6.16908e-08
0.000118503
8.12262e-08
0.000118508
9.70927e-08
0.000118515
1.09318e-07
0.000118524
1.18098e-07
0.000118536
1.2374e-07
0.00011855
1.26598e-07
0.000118566
1.27039e-07
0.000118583
1.25414e-07
0.000118602
1.22052e-07
0.000118622
1.17244e-07
0.000118643
1.11249e-07
0.000118665
1.04287e-07
0.000118688
9.65473e-08
0.000118711
8.81846e-08
0.000118734
7.93279e-08
0.000118757
7.0082e-08
0.000118781
6.05297e-08
0.000118804
5.07382e-08
0.000118828
4.07577e-08
0.000118851
3.06299e-08
0.000118874
2.03831e-08
0.000118897
1.00432e-08
0.000118919
-3.73794e-10
0.000118942
-1.08511e-08
0.000118963
-2.13786e-08
0.000118985
-3.1943e-08
0.000119005
-4.25357e-08
0.000119026
-5.31444e-08
0.000119046
-6.37613e-08
-7.43795e-08
0.000119065
0.000121881
1.30865e-08
0.000121882
3.85544e-08
0.000121882
6.10825e-08
0.000121884
7.95482e-08
0.000121887
9.37656e-08
0.000121893
1.03933e-07
0.0001219
1.10437e-07
0.00012191
1.13752e-07
0.000121922
1.14367e-07
0.000121937
1.12734e-07
0.000121953
1.09254e-07
0.000121971
1.04278e-07
0.00012199
9.81017e-08
0.00012201
9.09725e-08
0.000122031
8.30952e-08
0.000122053
7.46367e-08
0.000122076
6.57313e-08
0.000122099
5.6487e-08
0.000122122
4.69876e-08
0.000122145
3.73001e-08
0.000122168
2.74739e-08
0.000122191
1.75486e-08
0.000122214
7.55158e-09
0.000122237
-2.49412e-09
0.00012226
-1.25737e-08
0.000122282
-2.26733e-08
0.000122304
-3.27845e-08
0.000122326
-4.28971e-08
0.000122347
-5.30043e-08
0.000122367
-6.30966e-08
0.000122387
-7.3167e-08
0.000122407
-8.32068e-08
-9.32133e-08
0.000122426
0.000125363
1.34399e-08
0.000125362
3.97869e-08
0.00012536
6.25852e-08
0.00012536
8.03871e-08
0.00012536
9.31266e-08
0.000125363
1.01237e-07
0.000125368
1.05348e-07
0.000125376
1.0615e-07
0.000125386
1.04292e-07
0.000125398
1.00336e-07
0.000125413
9.47517e-08
0.000125429
8.79201e-08
0.000125447
8.01478e-08
0.000125466
7.16772e-08
0.000125487
6.26983e-08
0.000125508
5.33583e-08
0.00012553
4.37704e-08
0.000125552
3.40199e-08
0.000125575
2.41709e-08
0.000125598
1.42698e-08
0.000125621
4.35054e-09
0.000125644
-5.56356e-09
0.000125667
-1.54563e-08
0.00012569
-2.53169e-08
0.000125713
-3.51383e-08
0.000125735
-4.49156e-08
0.000125757
-5.46451e-08
0.000125778
-6.43235e-08
0.000125799
-7.3947e-08
0.00012582
-8.35114e-08
0.000125839
-9.30118e-08
0.000125859
-1.02444e-07
-1.11807e-07
0.000125877
0.000128944
1.45422e-08
0.000128941
4.32346e-08
0.000128936
6.73225e-08
0.000128931
8.49818e-08
0.000128928
9.63936e-08
0.000128927
1.02342e-07
0.000128928
1.03792e-07
0.000128933
1.01722e-07
0.00012894
9.69967e-08
0.00012895
9.0319e-08
0.000128963
8.22441e-08
0.000128977
7.31997e-08
0.000128994
6.35085e-08
0.000129012
5.34105e-08
0.000129032
4.30815e-08
0.000129053
3.26476e-08
0.000129074
2.21985e-08
0.000129096
1.17944e-08
0.000129119
1.4765e-09
0.000129142
-8.73158e-09
0.000129165
-1.88146e-08
0.000129188
-2.87679e-08
0.000129212
-3.85894e-08
0.000129235
-4.82827e-08
0.000129257
-5.7851e-08
0.00012928
-6.72999e-08
0.000129302
-7.66334e-08
0.000129323
-8.58558e-08
0.000129344
-9.4969e-08
0.000129365
-1.03975e-07
0.000129385
-1.12872e-07
0.000129404
-1.21662e-07
-1.30346e-07
0.000129422
0.000132627
1.68581e-08
0.00013262
5.01819e-08
0.00013261
7.70037e-08
0.0001326
9.51336e-08
0.000132591
1.05259e-07
0.000132585
1.08715e-07
0.000132582
1.0696e-07
0.000132582
1.01382e-07
0.000132586
9.31363e-08
0.000132593
8.31118e-08
0.000132603
7.19741e-08
0.000132616
6.02079e-08
0.000132632
4.81558e-08
0.000132649
3.60533e-08
0.000132668
2.40568e-08
0.000132688
1.22671e-08
0.00013271
7.42106e-10
0.000132732
-1.04857e-08
0.000132755
-2.14075e-08
0.000132778
-3.20228e-08
0.000132802
-4.23445e-08
0.000132825
-5.23859e-08
0.000132849
-6.21671e-08
0.000132872
-7.1705e-08
0.000132896
-8.10199e-08
0.000132918
-9.01272e-08
0.000132941
-9.90435e-08
0.000132963
-1.0778e-07
0.000132984
-1.16349e-07
0.000133005
-1.24757e-07
0.000133025
-1.33012e-07
0.000133045
-1.41116e-07
-1.4908e-07
0.000133063
0.000136414
2.12232e-08
0.000136401
6.27854e-08
0.000136384
9.43154e-08
0.000136366
1.13506e-07
0.000136349
1.22072e-07
0.000136335
1.22244e-07
0.000136326
1.16243e-07
0.000136321
1.06065e-07
0.000136321
9.32584e-08
0.000136325
7.89491e-08
0.000136333
6.39334e-08
0.000136345
4.87559e-08
0.000136359
3.37703e-08
0.000136376
1.91956e-08
0.000136395
5.15533e-09
0.000136416
-8.28975e-09
0.000136437
-2.11226e-08
0.00013646
-3.33533e-08
0.000136484
-4.50089e-08
0.000136508
-5.61261e-08
0.000136532
-6.67461e-08
0.000136557
-7.69118e-08
0.000136581
-8.66645e-08
0.000136606
-9.60441e-08
0.00013663
-1.05086e-07
0.000136654
-1.13823e-07
0.000136677
-1.22282e-07
0.000136699
-1.30489e-07
0.000136722
-1.38462e-07
0.000136743
-1.4622e-07
0.000136764
-1.53775e-07
0.000136784
-1.6114e-07
-1.68327e-07
0.000136803
0.000140308
2.92284e-08
0.000140286
8.47975e-08
0.000140257
1.23547e-07
0.000140226
1.44016e-07
0.000140198
1.49988e-07
0.000140175
1.45185e-07
0.000140158
1.33051e-07
0.000140148
1.16478e-07
0.000140144
9.75314e-08
0.000140145
7.76047e-08
0.000140151
5.76216e-08
0.000140162
3.81619e-08
0.000140176
1.956e-08
0.000140193
1.9836e-09
0.000140213
-1.45025e-08
0.000140235
-2.9904e-08
0.000140258
-4.42632e-08
0.000140282
-5.76497e-08
0.000140307
-7.01396e-08
0.000140333
-8.18171e-08
0.000140359
-9.27608e-08
0.000140385
-1.03049e-07
0.000140411
-1.12752e-07
0.000140437
-1.21934e-07
0.000140463
-1.30652e-07
0.000140488
-1.38957e-07
0.000140512
-1.46892e-07
0.000140536
-1.54496e-07
0.00014056
-1.61799e-07
0.000140582
-1.68829e-07
0.000140604
-1.75607e-07
0.000140625
-1.82154e-07
-1.88487e-07
0.000140645
0.00014431
4.40782e-08
0.000144272
1.22898e-07
0.000144224
1.71517e-07
0.000144175
1.92243e-07
0.000144132
1.92939e-07
0.000144098
1.79833e-07
0.000144073
1.58337e-07
0.000144056
1.32605e-07
0.000144049
1.05286e-07
0.000144048
7.79977e-08
0.000144054
5.17188e-08
0.000144065
2.69883e-08
0.000144081
4.04529e-09
0.0001441
-1.70506e-08
0.000144122
-3.63466e-08
0.000144146
-5.39458e-08
0.000144172
-6.99844e-08
0.000144198
-8.46073e-08
0.000144226
-9.79624e-08
0.000144255
-1.10188e-07
0.000144283
-1.21416e-07
0.000144312
-1.31762e-07
0.000144341
-1.41334e-07
0.000144369
-1.50225e-07
0.000144397
-1.58518e-07
0.000144424
-1.66284e-07
0.000144451
-1.73584e-07
0.000144477
-1.80472e-07
0.000144502
-1.86992e-07
0.000144526
-1.93181e-07
0.00014455
-1.99073e-07
0.000144572
-2.04694e-07
-2.1007e-07
0.000144594
0.000148419
7.2637e-08
0.000148353
1.89088e-07
0.000148276
2.48725e-07
0.000148203
2.65523e-07
0.000148141
2.55069e-07
0.000148093
2.27634e-07
0.000148059
1.91672e-07
0.000148039
1.52901e-07
0.00014803
1.14373e-07
0.00014803
7.7693e-08
0.000148038
4.37034e-08
0.000148053
1.27419e-08
0.000148072
-1.51723e-08
0.000148095
-4.01841e-08
0.000148121
-6.25146e-08
0.00014815
-8.24168e-08
0.00014818
-1.0015e-07
0.000148211
-1.15964e-07
0.000148243
-1.30092e-07
0.000148276
-1.42745e-07
0.000148309
-1.54111e-07
0.000148341
-1.64358e-07
0.000148373
-1.73631e-07
0.000148405
-1.82059e-07
0.000148436
-1.89752e-07
0.000148467
-1.96804e-07
0.000148497
-2.03296e-07
0.000148526
-2.09298e-07
0.000148553
-2.14869e-07
0.00014858
-2.20059e-07
0.000148606
-2.24909e-07
0.000148631
-2.29455e-07
-2.33731e-07
0.000148655
0.000152632
1.29858e-07
0.000152516
3.05097e-07
0.000152394
3.70529e-07
0.000152288
3.72085e-07
0.000152204
3.39019e-07
0.000152144
2.87382e-07
0.000152106
2.29766e-07
0.000152085
1.73196e-07
0.000152079
1.20368e-07
0.000152085
7.23172e-08
0.000152099
2.94011e-08
0.00015212
-8.48871e-09
0.000152147
-4.17271e-08
0.000152178
-7.07802e-08
0.000152211
-9.61177e-08
0.000152247
-1.18192e-07
0.000152284
-1.37421e-07
0.000152322
-1.54184e-07
0.000152361
-1.68815e-07
0.0001524
-1.8161e-07
0.000152439
-1.92823e-07
0.000152477
-2.02677e-07
0.000152515
-2.11361e-07
0.000152552
-2.1904e-07
0.000152588
-2.25854e-07
0.000152623
-2.31923e-07
0.000152657
-2.37348e-07
0.00015269
-2.42215e-07
0.000152722
-2.46597e-07
0.000152752
-2.50557e-07
0.000152781
-2.54147e-07
0.000152809
-2.57411e-07
-2.60389e-07
0.000152836
0.000156935
2.46016e-07
0.00015673
5.10815e-07
0.000156541
5.58656e-07
0.000156395
5.18949e-07
0.000156291
4.4275e-07
0.000156226
3.52285e-07
0.000156191
2.64265e-07
0.00015618
1.85109e-07
0.000156185
1.15338e-07
0.000156202
5.4521e-08
0.00015623
2.06661e-09
0.000156264
-4.28739e-08
0.000156304
-8.1273e-08
0.000156347
-1.14029e-07
0.000156393
-1.41932e-07
0.00015644
-1.65674e-07
0.000156489
-1.85865e-07
0.000156537
-2.03029e-07
0.000156586
-2.17619e-07
0.000156635
-2.30019e-07
0.000156682
-2.4056e-07
0.000156729
-2.49518e-07
0.000156775
-2.57133e-07
0.00015682
-2.63604e-07
0.000156863
-2.69103e-07
0.000156905
-2.73772e-07
0.000156945
-2.77734e-07
0.000156984
-2.81091e-07
0.000157021
-2.83931e-07
0.000157057
-2.86325e-07
0.000157091
-2.88337e-07
0.000157124
-2.90017e-07
-2.91418e-07
0.000157155
0.000161294
4.90794e-07
0.000160931
8.73838e-07
0.000160653
8.36471e-07
0.000160464
7.07418e-07
0.000160351
5.5561e-07
0.000160297
4.06572e-07
0.000160282
2.79139e-07
0.000160294
1.73753e-07
0.000160324
8.55069e-08
0.000160367
1.15087e-08
0.000160419
-5.01617e-08
0.000160477
-1.01406e-07
0.00016054
-1.43997e-07
0.000160605
-1.79379e-07
0.000160672
-2.08715e-07
0.000160739
-2.32979e-07
0.000160807
-2.52996e-07
0.000160873
-2.69462e-07
0.000160938
-2.82951e-07
0.000161002
-2.9395e-07
0.000161065
-3.02859e-07
0.000161125
-3.1002e-07
0.000161184
-3.15712e-07
0.00016124
-3.20175e-07
0.000161295
-3.23604e-07
0.000161347
-3.26167e-07
0.000161397
-3.28001e-07
0.000161446
-3.29224e-07
0.000161492
-3.29931e-07
0.000161535
-3.30205e-07
0.000161577
-3.30111e-07
0.000161617
-3.29706e-07
-3.29038e-07
0.000161654
0.000165516
1.12863e-06
0.000164915
1.47494e-06
0.000164579
1.1724e-06
0.000164389
8.96855e-07
0.00016431
6.345e-07
0.000164306
4.10829e-07
0.000164344
2.41561e-07
0.000164407
1.10952e-07
0.000164486
5.61101e-09
0.000164578
-7.99782e-08
0.000164677
-1.48972e-07
0.00016478
-2.0442e-07
0.000164885
-2.49002e-07
0.00016499
-2.84756e-07
0.000165095
-3.13257e-07
0.000165197
-3.358e-07
0.000165298
-3.53463e-07
0.000165396
-3.67129e-07
0.00016549
-3.77514e-07
0.000165581
-3.85207e-07
0.000165669
-3.9069e-07
0.000165754
-3.94358e-07
0.000165834
-3.96537e-07
0.000165912
-3.97497e-07
0.000165986
-3.97458e-07
0.000166056
-3.96604e-07
0.000166123
-3.95086e-07
0.000166187
-3.93031e-07
0.000166248
-3.90545e-07
0.000166305
-3.87716e-07
0.00016636
-3.84624e-07
0.000166411
-3.81337e-07
-3.77926e-07