/*--------------------------------*- C++ -*----------------------------------*\
  =========                 |
  \\      /  F ield         | OpenFOAM: The Open Source CFD Toolbox
   \\    /   O peration     | Website:  https://openfoam.org
    \\  /    A nd           | Version:  10
     \\/     M anipulation  |
\*---------------------------------------------------------------------------*/
FoamFile
{
    format      ascii;
    class       volVectorField;
    location    "1700";
    object      U;
}
// * * * * * * * * * * * * * * * * * * * * * * * * * * * * * * * * * * * * * //

dimensions      [0 1 -1 0 0 0 0];

internalField   nonuniform List<vector> 
6820
(
(7.13228 -2.83247 0)
(7.73434 -2.22097 0)
(7.93448 -1.24474 0)
(7.85772 -0.6306 0)
(7.69324 -0.300931 0)
(7.51792 -0.135203 0)
(7.34936 -0.0534972 0)
(7.19463 -0.0130611 0)
(7.05694 0.00686753 0)
(6.93549 0.0163323 0)
(6.82783 0.020389 0)
(6.73175 0.021666 0)
(6.64553 0.0215368 0)
(6.56773 0.0207166 0)
(6.49714 0.0195832 0)
(6.43278 0.0183398 0)
(6.37383 0.0170938 0)
(6.31963 0.0158994 0)
(6.26963 0.0147815 0)
(6.22336 0.0137496 0)
(6.1804 0.0128048 0)
(6.14043 0.0119446 0)
(6.10313 0.0111647 0)
(6.06825 0.010461 0)
(6.03553 0.0098304 0)
(6.00475 0.00927193 0)
(5.97569 0.00878857 0)
(5.94812 0.00838757 0)
(5.92183 0.00809754 0)
(5.89636 0.00792773 0)
(5.87157 0.00801312 0)
(5.84459 0.00836887 0)
(5.82756 0.00591203 0)
(7.57676 0.619468 0)
(7.41857 0.759314 0)
(7.35518 0.51949 0)
(7.35368 0.338997 0)
(7.40446 0.233423 0)
(7.46266 0.167014 0)
(7.5028 0.124255 0)
(7.52296 0.097054 0)
(7.52875 0.0793566 0)
(7.52455 0.0672657 0)
(7.51318 0.0586454 0)
(7.49677 0.0523013 0)
(7.47704 0.0474911 0)
(7.45521 0.043727 0)
(7.43207 0.0406889 0)
(7.40818 0.0381716 0)
(7.38394 0.0360392 0)
(7.35964 0.0341984 0)
(7.33549 0.0325839 0)
(7.31163 0.0311499 0)
(7.28816 0.0298636 0)
(7.26516 0.0287015 0)
(7.24266 0.0276471 0)
(7.22072 0.0266892 0)
(7.19933 0.0258218 0)
(7.17852 0.0250438 0)
(7.15827 0.0243619 0)
(7.13858 0.0237883 0)
(7.11948 0.0233685 0)
(7.10084 0.0231126 0)
(7.08303 0.0232819 0)
(7.06534 0.0235875 0)
(7.05248 0.0276442 0)
(7.26194 -0.0479145 0)
(7.1598 -0.0718988 0)
(7.19681 -0.0845021 0)
(7.23914 -0.0533685 0)
(7.27631 -0.0172226 0)
(7.31446 0.00633754 0)
(7.34736 0.0206571 0)
(7.37268 0.030011 0)
(7.39198 0.036011 0)
(7.4065 0.0394931 0)
(7.41687 0.0412592 0)
(7.42373 0.0419558 0)
(7.42779 0.0419924 0)
(7.42964 0.0416135 0)
(7.4297 0.0409778 0)
(7.42834 0.0401929 0)
(7.42582 0.0393295 0)
(7.42239 0.0384316 0)
(7.41822 0.0375275 0)
(7.41347 0.0366354 0)
(7.40824 0.0357674 0)
(7.40264 0.0349317 0)
(7.39676 0.0341345 0)
(7.39064 0.0333813 0)
(7.38435 0.0326788 0)
(7.37792 0.0320355 0)
(7.37139 0.031466 0)
(7.36477 0.0309874 0)
(7.35809 0.0306451 0)
(7.35134 0.0304574 0)
(7.34464 0.0306095 0)
(7.33774 0.0310175 0)
(7.332 0.0329827 0)
(7.29243 -0.0887255 0)
(7.22392 -0.0614726 0)
(7.23482 -0.0269001 0)
(7.25115 -0.00103446 0)
(7.2656 0.0189093 0)
(7.28496 0.0304697 0)
(7.30449 0.0362729 0)
(7.32129 0.0394554 0)
(7.33582 0.0412402 0)
(7.3485 0.0420185 0)
(7.35931 0.0421302 0)
(7.36832 0.0418672 0)
(7.37578 0.0413976 0)
(7.3819 0.0408051 0)
(7.38688 0.0401401 0)
(7.39087 0.0394382 0)
(7.39403 0.0387226 0)
(7.39646 0.0380076 0)
(7.39827 0.0373021 0)
(7.39956 0.0366127 0)
(7.4004 0.0359442 0)
(7.40085 0.035301 0)
(7.40097 0.0346873 0)
(7.4008 0.0341084 0)
(7.40038 0.0335715 0)
(7.39974 0.0330862 0)
(7.39891 0.0326684 0)
(7.39791 0.0323378 0)
(7.39677 0.0321344 0)
(7.3955 0.0320873 0)
(7.3942 0.0323241 0)
(7.39285 0.0328121 0)
(7.392 0.0340942 0)
(7.31244 -0.0515032 0)
(7.26793 -0.0318758 0)
(7.26467 -0.0126199 0)
(7.26769 -5.91861e-05 0)
(7.27322 0.0130519 0)
(7.28436 0.0226468 0)
(7.29691 0.0282826 0)
(7.30832 0.0318826 0)
(7.31873 0.0343753 0)
(7.32833 0.0359783 0)
(7.337 0.0368997 0)
(7.3447 0.0373692 0)
(7.35151 0.0375401 0)
(7.35755 0.0374999 0)
(7.36289 0.0373083 0)
(7.36762 0.0370114 0)
(7.3718 0.0366427 0)
(7.3755 0.036226 0)
(7.37877 0.0357785 0)
(7.38167 0.0353133 0)
(7.38425 0.0348411 0)
(7.38653 0.0343706 0)
(7.38855 0.0339102 0)
(7.39034 0.0334682 0)
(7.39193 0.0330544 0)
(7.39334 0.0326806 0)
(7.39459 0.0323629 0)
(7.3957 0.0321214 0)
(7.3967 0.0319885 0)
(7.39761 0.0319931 0)
(7.39852 0.0322098 0)
(7.39949 0.0326341 0)
(7.40077 0.0334619 0)
(7.3203 -0.0314405 0)
(7.28849 -0.0238381 0)
(7.28204 -0.0120248 0)
(7.2814 -0.0020734 0)
(7.28395 0.00926596 0)
(7.29103 0.0182361 0)
(7.2996 0.023983 0)
(7.30776 0.0278578 0)
(7.31545 0.0306251 0)
(7.32275 0.0325008 0)
(7.32954 0.0336862 0)
(7.33577 0.0343984 0)
(7.34146 0.0347877 0)
(7.34668 0.0349448 0)
(7.35146 0.0349325 0)
(7.35585 0.0347985 0)
(7.35988 0.034578 0)
(7.3636 0.0342961 0)
(7.36703 0.0339714 0)
(7.37021 0.0336181 0)
(7.37316 0.033248 0)
(7.3759 0.0328709 0)
(7.37846 0.0324957 0)
(7.38086 0.0321314 0)
(7.3831 0.0317881 0)
(7.38522 0.0314772 0)
(7.38722 0.0312135 0)
(7.38913 0.0310144 0)
(7.39098 0.0309037 0)
(7.39279 0.0309038 0)
(7.39464 0.0310539 0)
(7.39659 0.0313499 0)
(7.3988 0.031845 0)
(7.32446 -0.0216668 0)
(7.30104 -0.0195813 0)
(7.29416 -0.0109337 0)
(7.2922 -0.00220352 0)
(7.29331 0.0075509 0)
(7.29804 0.0155699 0)
(7.30422 0.0210637 0)
(7.3104 0.0249121 0)
(7.3164 0.027707 0)
(7.32221 0.0296628 0)
(7.32772 0.0309673 0)
(7.33286 0.0318109 0)
(7.33766 0.0323296 0)
(7.34214 0.0326102 0)
(7.34632 0.0327141 0)
(7.35024 0.0326878 0)
(7.35391 0.032566 0)
(7.35736 0.032374 0)
(7.36062 0.0321308 0)
(7.36369 0.0318515 0)
(7.3666 0.031548 0)
(7.36937 0.0312307 0)
(7.37201 0.0309089 0)
(7.37453 0.0305916 0)
(7.37695 0.0302885 0)
(7.37928 0.03001 0)
(7.38154 0.0297685 0)
(7.38374 0.0295776 0)
(7.38592 0.0294534 0)
(7.38811 0.0294095 0)
(7.39035 0.0294618 0)
(7.39272 0.0295989 0)
(7.3953 0.029815 0)
(7.32737 -0.0149949 0)
(7.31004 -0.0151759 0)
(7.30324 -0.00892454 0)
(7.30059 -0.00165394 0)
(7.30082 0.00655862 0)
(7.30407 0.0136066 0)
(7.3087 0.018743 0)
(7.31359 0.0224798 0)
(7.31849 0.0252457 0)
(7.32331 0.0272339 0)
(7.32795 0.0286119 0)
(7.33235 0.0295434 0)
(7.3365 0.0301502 0)
(7.34043 0.0305149 0)
(7.34414 0.0306972 0)
(7.34765 0.0307426 0)
(7.35099 0.0306854 0)
(7.35416 0.0305512 0)
(7.35719 0.0303594 0)
(7.36008 0.0301253 0)
(7.36286 0.0298614 0)
(7.36553 0.0295781 0)
(7.36811 0.0292848 0)
(7.3706 0.0289902 0)
(7.37303 0.0287031 0)
(7.37539 0.0284325 0)
(7.37771 0.0281881 0)
(7.38001 0.0279794 0)
(7.3823 0.0278159 0)
(7.38463 0.027703 0)
(7.38702 0.0276422 0)
(7.38954 0.027616 0)
(7.39224 0.0275969 0)
(7.3294 -0.00997849 0)
(7.31672 -0.011123 0)
(7.3103 -0.00679951 0)
(7.30731 -0.000927717 0)
(7.30696 0.00594284 0)
(7.30918 0.0121024 0)
(7.31272 0.0168434 0)
(7.31668 0.0204191 0)
(7.32079 0.0231189 0)
(7.32491 0.0251042 0)
(7.32892 0.0265202 0)
(7.33278 0.0275067 0)
(7.33647 0.0281722 0)
(7.33998 0.0285943 0)
(7.34333 0.0288306 0)
(7.34654 0.0289252 0)
(7.3496 0.0289118 0)
(7.35254 0.0288158 0)
(7.35536 0.028657 0)
(7.35809 0.0284509 0)
(7.36072 0.0282099 0)
(7.36328 0.0279447 0)
(7.36576 0.0276641 0)
(7.36818 0.0273765 0)
(7.37055 0.0270896 0)
(7.37289 0.0268107 0)
(7.3752 0.0265468 0)
(7.3775 0.0263038 0)
(7.37982 0.0260856 0)
(7.38218 0.0258918 0)
(7.38462 0.0257155 0)
(7.38716 0.025536 0)
(7.38985 0.02532 0)
(7.33075 -0.00639662 0)
(7.32165 -0.00775624 0)
(7.31591 -0.00477898 0)
(7.31286 -8.67956e-05 0)
(7.31212 0.00562684 0)
(7.31358 0.0109686 0)
(7.3163 0.0152851 0)
(7.31955 0.0186534 0)
(7.32304 0.0212501 0)
(7.32661 0.0231995 0)
(7.33015 0.0246229 0)
(7.33359 0.0256379 0)
(7.33692 0.0263399 0)
(7.34012 0.0268003 0)
(7.34319 0.0270736 0)
(7.34615 0.0272022 0)
(7.34899 0.0272187 0)
(7.35174 0.0271483 0)
(7.3544 0.0270106 0)
(7.35698 0.0268211 0)
(7.35949 0.0265922 0)
(7.36193 0.0263342 0)
(7.36432 0.0260558 0)
(7.36666 0.0257645 0)
(7.36897 0.025467 0)
(7.37126 0.0251688 0)
(7.37353 0.0248747 0)
(7.37581 0.0245873 0)
(7.37811 0.0243068 0)
(7.38045 0.0240286 0)
(7.38287 0.0237416 0)
(7.38537 0.0234246 0)
(7.38798 0.0230452 0)
(7.33162 -0.00393149 0)
(7.32523 -0.00506147 0)
(7.32037 -0.00292783 0)
(7.31748 0.000817908 0)
(7.31653 0.00553842 0)
(7.31744 0.0101294 0)
(7.31951 0.0140058 0)
(7.32219 0.0171298 0)
(7.32517 0.0195906 0)
(7.32829 0.021475 0)
(7.33144 0.0228792 0)
(7.33455 0.0239001 0)
(7.33758 0.0246198 0)
(7.34053 0.0251026 0)
(7.34338 0.0253994 0)
(7.34613 0.0255502 0)
(7.34881 0.0255862 0)
(7.3514 0.025532 0)
(7.35392 0.0254066 0)
(7.35637 0.0252255 0)
(7.35877 0.0250008 0)
(7.36112 0.0247425 0)
(7.36342 0.0244587 0)
(7.36569 0.0241563 0)
(7.36793 0.0238407 0)
(7.37016 0.0235161 0)
(7.37239 0.0231852 0)
(7.37462 0.0228484 0)
(7.37688 0.0225031 0)
(7.37918 0.0221424 0)
(7.38154 0.0217537 0)
(7.38397 0.0213169 0)
(7.38649 0.0208033 0)
(7.33218 -0.00226278 0)
(7.32778 -0.00295837 0)
(7.32388 -0.00130715 0)
(7.32132 0.00171307 0)
(7.3203 0.00560222 0)
(7.32082 0.0095179 0)
(7.32241 0.0129558 0)
(7.32461 0.0158113 0)
(7.32717 0.0181096 0)
(7.32992 0.0199035 0)
(7.33274 0.021265 0)
(7.33556 0.0222713 0)
(7.33834 0.0229915 0)
(7.34107 0.0234827 0)
(7.34373 0.0237911 0)
(7.34632 0.0239538 0)
(7.34884 0.0240005 0)
(7.3513 0.0239546 0)
(7.3537 0.0238346 0)
(7.35605 0.0236554 0)
(7.35835 0.0234289 0)
(7.36061 0.0231645 0)
(7.36284 0.0228698 0)
(7.36504 0.0225509 0)
(7.36722 0.0222122 0)
(7.36939 0.0218568 0)
(7.37157 0.0214856 0)
(7.37375 0.0210976 0)
(7.37596 0.0206885 0)
(7.3782 0.0202505 0)
(7.38048 0.0197709 0)
(7.38283 0.0192317 0)
(7.38523 0.0186088 0)
(7.33252 -0.00115114 0)
(7.32957 -0.00136626 0)
(7.32658 4.10801e-05 0)
(7.32445 0.00253159 0)
(7.3235 0.00574822 0)
(7.32378 0.00907339 0)
(7.325 0.0120911 0)
(7.32682 0.0146669 0)
(7.32903 0.0167836 0)
(7.33145 0.018466 0)
(7.33399 0.019764 0)
(7.33656 0.0207372 0)
(7.33913 0.0214423 0)
(7.34166 0.0219287 0)
(7.34416 0.0222376 0)
(7.3466 0.022403 0)
(7.34899 0.0224523 0)
(7.35134 0.0224078 0)
(7.35363 0.0222871 0)
(7.35589 0.0221045 0)
(7.3581 0.0218712 0)
(7.36029 0.0215961 0)
(7.36244 0.0212864 0)
(7.36458 0.0209472 0)
(7.3667 0.0205822 0)
(7.36882 0.0201934 0)
(7.37093 0.0197808 0)
(7.37306 0.0193421 0)
(7.3752 0.0188725 0)
(7.37738 0.0183638 0)
(7.37959 0.0178046 0)
(7.38183 0.0171792 0)
(7.38412 0.0164679 0)
(7.33273 -0.000425672 0)
(7.3308 -0.000201069 0)
(7.32861 0.00110656 0)
(7.32695 0.00322567 0)
(7.32615 0.0059154 0)
(7.32632 0.00873936 0)
(7.32729 0.0113693 0)
(7.32882 0.0136669 0)
(7.33073 0.0155912 0)
(7.33288 0.0171462 0)
(7.33516 0.0183635 0)
(7.33752 0.0192873 0)
(7.33989 0.0199631 0)
(7.34226 0.0204325 0)
(7.34461 0.0207316 0)
(7.34692 0.0208908 0)
(7.3492 0.0209354 0)
(7.35144 0.020886 0)
(7.35364 0.0207592 0)
(7.35581 0.0205683 0)
(7.35795 0.020324 0)
(7.36006 0.0200347 0)
(7.36215 0.0197067 0)
(7.36423 0.0193446 0)
(7.36629 0.0189514 0)
(7.36834 0.0185282 0)
(7.3704 0.0180744 0)
(7.37247 0.0175872 0)
(7.37455 0.0170615 0)
(7.37665 0.0164898 0)
(7.37878 0.0158618 0)
(7.38093 0.0151646 0)
(7.3831 0.0143824 0)
(7.33285 3.61936e-05 0)
(7.33162 0.000621006 0)
(7.3301 0.00190476 0)
(7.32889 0.00376888 0)
(7.3283 0.00605559 0)
(7.32845 0.00846536 0)
(7.32926 0.0107492 0)
(7.33058 0.0127812 0)
(7.33225 0.0145106 0)
(7.33417 0.0159282 0)
(7.33625 0.0170517 0)
(7.33841 0.0179126 0)
(7.34061 0.0185465 0)
(7.34283 0.0189878 0)
(7.34505 0.0192675 0)
(7.34724 0.0194125 0)
(7.34941 0.0194455 0)
(7.35156 0.0193853 0)
(7.35368 0.0192474 0)
(7.35577 0.0190441 0)
(7.35783 0.0187853 0)
(7.35988 0.0184787 0)
(7.36191 0.01813 0)
(7.36392 0.0177433 0)
(7.36592 0.0173209 0)
(7.36792 0.0168635 0)
(7.36992 0.0163699 0)
(7.37192 0.0158373 0)
(7.37393 0.0152609 0)
(7.37596 0.0146337 0)
(7.378 0.0139472 0)
(7.38005 0.0131908 0)
(7.38212 0.0123521 0)
(7.33292 0.00032105 0)
(7.33217 0.00117636 0)
(7.33117 0.00246672 0)
(7.33036 0.00415419 0)
(7.32999 0.00613598 0)
(7.33019 0.00821008 0)
(7.33092 0.0101935 0)
(7.33209 0.0119803 0)
(7.33358 0.0135196 0)
(7.33532 0.0147956 0)
(7.33721 0.0158165 0)
(7.33921 0.0166042 0)
(7.34126 0.0171858 0)
(7.34334 0.0175893 0)
(7.34544 0.0178411 0)
(7.34752 0.0179643 0)
(7.3496 0.0179794 0)
(7.35166 0.0179031 0)
(7.35369 0.0177495 0)
(7.35571 0.0175299 0)
(7.35771 0.0172535 0)
(7.35969 0.0169272 0)
(7.36166 0.0165562 0)
(7.36361 0.0161439 0)
(7.36556 0.0156922 0)
(7.3675 0.0152014 0)
(7.36943 0.0146704 0)
(7.37137 0.0140961 0)
(7.37331 0.0134744 0)
(7.37526 0.0127993 0)
(7.37722 0.0120636 0)
(7.37918 0.011259 0)
(7.38114 0.0103758 0)
(7.33296 0.000488693 0)
(7.33253 0.00153016 0)
(7.33192 0.0028306 0)
(7.33145 0.00438973 0)
(7.33129 0.00613932 0)
(7.33157 0.00794361 0)
(7.33227 0.00967104 0)
(7.33334 0.0112371 0)
(7.3347 0.0125966 0)
(7.33628 0.013732 0)
(7.33803 0.0146458 0)
(7.33988 0.0153528 0)
(7.3418 0.015874 0)
(7.34377 0.0162317 0)
(7.34575 0.0164481 0)
(7.34774 0.0165431 0)
(7.34973 0.0165344 0)
(7.3517 0.0164371 0)
(7.35367 0.0162638 0)
(7.35562 0.0160248 0)
(7.35755 0.0157281 0)
(7.35947 0.0153803 0)
(7.36137 0.0149857 0)
(7.36327 0.0145474 0)
(7.36516 0.014067 0)
(7.36704 0.0135445 0)
(7.36891 0.0129786 0)
(7.37078 0.0123669 0)
(7.37266 0.0117055 0)
(7.37453 0.0109895 0)
(7.3764 0.0102132 0)
(7.37826 0.00936997 0)
(7.38012 0.00845246 0)
(7.33299 0.00057969 0)
(7.33276 0.00173557 0)
(7.33244 0.00303574 0)
(7.33222 0.00449348 0)
(7.33226 0.00606157 0)
(7.33262 0.00764782 0)
(7.33332 0.00915864 0)
(7.33433 0.0105292 0)
(7.33559 0.0117223 0)
(7.33706 0.0127217 0)
(7.33868 0.0135272 0)
(7.34042 0.0141494 0)
(7.34222 0.0146042 0)
(7.34408 0.0149099 0)
(7.34597 0.0150847 0)
(7.34787 0.0151457 0)
(7.34977 0.0151083 0)
(7.35167 0.0149858 0)
(7.35356 0.0147893 0)
(7.35544 0.0145279 0)
(7.35732 0.014209 0)
(7.35918 0.0138382 0)
(7.36102 0.0134194 0)
(7.36286 0.0129553 0)
(7.36469 0.0124472 0)
(7.36651 0.0118949 0)
(7.36832 0.0112975 0)
(7.37012 0.0106525 0)
(7.37192 0.00995697 0)
(7.37372 0.00920682 0)
(7.37551 0.00839752 0)
(7.37728 0.00752403 0)
(7.37904 0.00658074 0)
(7.333 0.000621242 0)
(7.33291 0.0018346 0)
(7.33278 0.00311896 0)
(7.33276 0.00448857 0)
(7.33294 0.00590872 0)
(7.33338 0.00731535 0)
(7.33409 0.00864199 0)
(7.33507 0.00984021 0)
(7.33626 0.010881 0)
(7.33764 0.0117511 0)
(7.33916 0.0124499 0)
(7.34079 0.0129853 0)
(7.3425 0.01337 0)
(7.34426 0.0136188 0)
(7.34606 0.0137472 0)
(7.34787 0.0137696 0)
(7.3497 0.0136993 0)
(7.35153 0.013548 0)
(7.35335 0.0133252 0)
(7.35517 0.0130393 0)
(7.35698 0.0126965 0)
(7.35878 0.0123017 0)
(7.36057 0.0118586 0)
(7.36235 0.0113693 0)
(7.36412 0.0108348 0)
(7.36588 0.0102552 0)
(7.36763 0.00962944 0)
(7.36937 0.00895564 0)
(7.3711 0.00823125 0)
(7.37281 0.00745314 0)
(7.37452 0.00661779 0)
(7.37621 0.00572137 0)
(7.37788 0.00475968 0)
(7.333 0.000631497 0)
(7.333 0.00185976 0)
(7.33301 0.00311276 0)
(7.33312 0.00439972 0)
(7.3334 0.00569329 0)
(7.3339 0.00694751 0)
(7.33462 0.00811499 0)
(7.33557 0.00916026 0)
(7.33671 0.0100618 0)
(7.33801 0.0108101 0)
(7.33945 0.0114051 0)
(7.34099 0.0118533 0)
(7.34261 0.0121656 0)
(7.34429 0.0123543 0)
(7.346 0.0124325 0)
(7.34774 0.0124126 0)
(7.34949 0.012306 0)
(7.35126 0.0121228 0)
(7.35302 0.0118715 0)
(7.35477 0.011559 0)
(7.35652 0.0111911 0)
(7.35827 0.0107719 0)
(7.36 0.0103046 0)
(7.36172 0.00979098 0)
(7.36343 0.00923199 0)
(7.36512 0.00862758 0)
(7.36681 0.00797694 0)
(7.36848 0.00727856 0)
(7.37014 0.00653042 0)
(7.37178 0.0057301 0)
(7.37341 0.00487495 0)
(7.37501 0.00396211 0)
(7.37659 0.00298845 0)
(7.33301 0.000622613 0)
(7.33305 0.00183604 0)
(7.33314 0.003045 0)
(7.33333 0.00425122 0)
(7.33368 0.0054316 0)
(7.33421 0.00655208 0)
(7.33494 0.00757871 0)
(7.33585 0.00848617 0)
(7.33694 0.00925947 0)
(7.33818 0.00989263 0)
(7.33954 0.0103869 0)
(7.341 0.0107487 0)
(7.34254 0.0109872 0)
(7.34414 0.0111135 0)
(7.34578 0.0111387 0)
(7.34745 0.0110735 0)
(7.34913 0.0109278 0)
(7.35083 0.0107103 0)
(7.35252 0.0104283 0)
(7.35422 0.0100879 0)
(7.35591 0.00969396 0)
(7.35759 0.00925017 0)
(7.35927 0.0087591 0)
(7.36093 0.00822238 0)
(7.36258 0.00764075 0)
(7.36422 0.00701422 0)
(7.36584 0.00634213 0)
(7.36744 0.0056233 0)
(7.36903 0.00485618 0)
(7.3706 0.00403895 0)
(7.37215 0.00316965 0)
(7.37367 0.0022462 0)
(7.37517 0.00126627 0)
(7.33301 0.000602916 0)
(7.33307 0.0017828 0)
(7.33321 0.00293932 0)
(7.33344 0.00406595 0)
(7.33382 0.00514193 0)
(7.33435 0.00614132 0)
(7.33506 0.00703999 0)
(7.33594 0.00782064 0)
(7.33698 0.00847392 0)
(7.33815 0.0089973 0)
(7.33944 0.00939359 0)
(7.34082 0.00966935 0)
(7.34228 0.00983333 0)
(7.34381 0.0098953 0)
(7.34537 0.00986512 0)
(7.34697 0.00975216 0)
(7.34858 0.00956496 0)
(7.35021 0.00931102 0)
(7.35185 0.00899668 0)
(7.35349 0.00862718 0)
(7.35512 0.00820663 0)
(7.35674 0.00773817 0)
(7.35836 0.00722398 0)
(7.35996 0.00666542 0)
(7.36155 0.00606312 0)
(7.36313 0.0054171 0)
(7.36469 0.00472685 0)
(7.36623 0.00399147 0)
(7.36775 0.0032098 0)
(7.36924 0.0023805 0)
(7.37072 0.00150216 0)
(7.37216 0.000573284 0)
(7.37358 -0.000407861 0)
(7.33301 0.000578393 0)
(7.33308 0.00171559 0)
(7.33322 0.00281628 0)
(7.33346 0.00386549 0)
(7.33383 0.00484361 0)
(7.33435 0.00573069 0)
(7.33502 0.00651017 0)
(7.33584 0.00717149 0)
(7.33681 0.00771029 0)
(7.33791 0.00812731 0)
(7.33913 0.00842716 0)
(7.34043 0.00861696 0)
(7.34182 0.00870524 0)
(7.34326 0.00870104 0)
(7.34475 0.00861323 0)
(7.34628 0.00845011 0)
(7.34783 0.00821913 0)
(7.34939 0.00792678 0)
(7.35097 0.00757849 0)
(7.35254 0.00717871 0)
(7.35412 0.00673094 0)
(7.35568 0.00623779 0)
(7.35724 0.00570107 0)
(7.35879 0.0051219 0)
(7.36032 0.0045008 0)
(7.36183 0.00383776 0)
(7.36333 0.00313241 0)
(7.3648 0.00238407 0)
(7.36626 0.00159189 0)
(7.36769 0.000754892 0)
(7.36909 -0.000127912 0)
(7.37046 -0.00105759 0)
(7.3718 -0.00203542 0)
(7.33301 0.000553761 0)
(7.33307 0.00164779 0)
(7.3332 0.00269476 0)
(7.33341 0.00367093 0)
(7.33374 0.00455719 0)
(7.3342 0.00533842 0)
(7.33481 0.00600455 0)
(7.33556 0.00655106 0)
(7.33645 0.00697835 0)
(7.33747 0.00729043 0)
(7.3386 0.00749383 0)
(7.33982 0.00759655 0)
(7.34113 0.00760722 0)
(7.34249 0.00753442 0)
(7.34391 0.00738632 0)
(7.34536 0.00717035 0)
(7.34684 0.00689307 0)
(7.34834 0.00656007 0)
(7.34985 0.00617601 0)
(7.35136 0.00574463 0)
(7.35288 0.00526885 0)
(7.35438 0.0047508 0)
(7.35588 0.00419194 0)
(7.35737 0.00359316 0)
(7.35885 0.00295484 0)
(7.3603 0.00227697 0)
(7.36174 0.00155924 0)
(7.36316 0.000801139 0)
(7.36455 2.0256e-06 0)
(7.36591 -0.000838782 0)
(7.36725 -0.001722 0)
(7.36855 -0.00264836 0)
(7.36982 -0.00361884 0)
(7.33301 0.000533309 0)
(7.33305 0.00159229 0)
(7.33313 0.00259373 0)
(7.33329 0.00350437 0)
(7.33354 0.00430527 0)
(7.33392 0.00498591 0)
(7.33443 0.00554234 0)
(7.33509 0.00597607 0)
(7.33588 0.00629233 0)
(7.3368 0.00649862 0)
(7.33784 0.00660367 0)
(7.33897 0.00661659 0)
(7.34018 0.00654636 0)
(7.34146 0.00640143 0)
(7.34279 0.00618943 0)
(7.34417 0.00591714 0)
(7.34558 0.00559033 0)
(7.34701 0.00521386 0)
(7.34846 0.00479167 0)
(7.34991 0.00432687 0)
(7.35137 0.00382184 0)
(7.35282 0.00327825 0)
(7.35426 0.00269724 0)
(7.3557 0.00207945 0)
(7.35712 0.00142511 0)
(7.35852 0.000734165 0)
(7.3599 6.33924e-06 0)
(7.36126 -0.0007588 0)
(7.36259 -0.00156174 0)
(7.3639 -0.00240299 0)
(7.36517 -0.00328305 0)
(7.36642 -0.00420248 0)
(7.36762 -0.00516202 0)
(7.333 0.000521662 0)
(7.33301 0.00156336 0)
(7.33303 0.00253464 0)
(7.33309 0.00339118 0)
(7.33323 0.00411444 0)
(7.33348 0.00469898 0)
(7.33387 0.00514748 0)
(7.3344 0.00546793 0)
(7.33507 0.00567095 0)
(7.33587 0.00576796 0)
(7.33679 0.00577024 0)
(7.33782 0.00568838 0)
(7.33893 0.005532 0)
(7.34012 0.00530962 0)
(7.34137 0.00502859 0)
(7.34267 0.00469514 0)
(7.34401 0.00431442 0)
(7.34537 0.00389062 0)
(7.34676 0.00342704 0)
(7.34815 0.00292621 0)
(7.34955 0.00238997 0)
(7.35095 0.00181958 0)
(7.35235 0.00121582 0)
(7.35373 0.000579059 0)
(7.3551 -9.06166e-05 0)
(7.35645 -0.000793377 0)
(7.35779 -0.00152953 0)
(7.35909 -0.00229948 0)
(7.36038 -0.00310364 0)
(7.36163 -0.00394245 0)
(7.36285 -0.00481629 0)
(7.36404 -0.0057256 0)
(7.36519 -0.00667097 0)
(7.333 0.000524726 0)
(7.33296 0.00157915 0)
(7.33286 0.00254459 0)
(7.33278 0.00336329 0)
(7.33276 0.00401809 0)
(7.33285 0.00451015 0)
(7.33308 0.00485008 0)
(7.33345 0.00505356 0)
(7.33396 0.00513758 0)
(7.33462 0.00511821 0)
(7.33541 0.00500987 0)
(7.33632 0.00482506 0)
(7.33733 0.0045744 0)
(7.33842 0.00426672 0)
(7.33958 0.00390928 0)
(7.34081 0.00350789 0)
(7.34207 0.0030672 0)
(7.34338 0.00259078 0)
(7.3447 0.00208132 0)
(7.34605 0.00154078 0)
(7.3474 0.000970469 0)
(7.34875 0.000371206 0)
(7.3501 -0.000256618 0)
(7.35144 -0.000912905 0)
(7.35277 -0.00159782 0)
(7.35408 -0.00231167 0)
(7.35538 -0.00305488 0)
(7.35664 -0.00382789 0)
(7.35788 -0.00463115 0)
(7.35909 -0.00546505 0)
(7.36027 -0.00632998 0)
(7.36142 -0.00722632 0)
(7.36252 -0.00815463 0)
(7.33299 0.000551101 0)
(7.33287 0.00166549 0)
(7.33262 0.00266123 0)
(7.33233 0.00346397 0)
(7.33209 0.00406061 0)
(7.33196 0.00446175 0)
(7.33197 0.00468842 0)
(7.33213 0.00476622 0)
(7.33247 0.00472009 0)
(7.33296 0.00457193 0)
(7.33361 0.0043401 0)
(7.33438 0.00403964 0)
(7.33528 0.00368253 0)
(7.33628 0.00327821 0)
(7.33736 0.00283396 0)
(7.33851 0.00235535 0)
(7.33971 0.00184651 0)
(7.34096 0.0013104 0)
(7.34224 0.000749119 0)
(7.34354 0.000163973 0)
(7.34486 -0.000444267 0)
(7.34618 -0.00107531 0)
(7.3475 -0.00172918 0)
(7.34881 -0.00240616 0)
(7.35011 -0.00310671 0)
(7.35139 -0.00383138 0)
(7.35266 -0.00458076 0)
(7.3539 -0.00535544 0)
(7.35511 -0.00615596 0)
(7.35629 -0.00698279 0)
(7.35744 -0.00783637 0)
(7.35855 -0.00871711 0)
(7.35962 -0.0096256 0)
(7.33299 0.000614625 0)
(7.33274 0.00186227 0)
(7.33225 0.00294037 0)
(7.33167 0.00375513 0)
(7.33112 0.00430323 0)
(7.33069 0.0046099 0)
(7.33042 0.00471102 0)
(7.33033 0.00464577 0)
(7.33045 0.00444967 0)
(7.33076 0.00415214 0)
(7.33125 0.00377665 0)
(7.33189 0.00334143 0)
(7.33268 0.0028603 0)
(7.33359 0.00234348 0)
(7.3346 0.0017984 0)
(7.33569 0.00123029 0)
(7.33685 0.00064274 0)
(7.33807 3.80406e-05 0)
(7.33932 -0.000582485 0)
(7.3406 -0.00121822 0)
(7.34189 -0.00186911 0)
(7.3432 -0.00253545 0)
(7.34451 -0.00321785 0)
(7.34581 -0.00391704 0)
(7.3471 -0.00463389 0)
(7.34837 -0.00536929 0)
(7.34962 -0.00612412 0)
(7.35085 -0.00689917 0)
(7.35205 -0.0076952 0)
(7.35321 -0.00851284 0)
(7.35435 -0.00935264 0)
(7.35544 -0.0102151 0)
(7.3565 -0.011101 0)
(7.33297 0.000739231 0)
(7.33253 0.0022347 0)
(7.33168 0.00346845 0)
(7.33067 0.00432789 0)
(7.32969 0.00483157 0)
(7.32886 0.0050285 0)
(7.32823 0.00497719 0)
(7.32785 0.00473661 0)
(7.32773 0.00435686 0)
(7.32784 0.00387717 0)
(7.32817 0.00332752 0)
(7.3287 0.00273006 0)
(7.3294 0.00210066 0)
(7.33025 0.0014503 0)
(7.33121 0.000786351 0)
(7.33228 0.000113535 0)
(7.33342 -0.000565417 0)
(7.33463 -0.00124915 0)
(7.33588 -0.00193733 0)
(7.33717 -0.0026303 0)
(7.33847 -0.0033289 0)
(7.33979 -0.00403423 0)
(7.34111 -0.00474761 0)
(7.34242 -0.00547041 0)
(7.34373 -0.00620404 0)
(7.34501 -0.00694985 0)
(7.34628 -0.00770911 0)
(7.34751 -0.00848297 0)
(7.34872 -0.00927246 0)
(7.34989 -0.0100785 0)
(7.35103 -0.0109017 0)
(7.35212 -0.011743 0)
(7.35318 -0.0126031 0)
(7.33295 0.000968987 0)
(7.33217 0.00289338 0)
(7.33075 0.00438199 0)
(7.32911 0.00531727 0)
(7.32754 0.00576396 0)
(7.32618 0.00581106 0)
(7.32513 0.00555367 0)
(7.32442 0.00508077 0)
(7.32404 0.00446257 0)
(7.32397 0.0037509 0)
(7.32418 0.00298337 0)
(7.32463 0.00218628 0)
(7.32529 0.00137718 0)
(7.32611 0.000567213 0)
(7.32708 -0.000236951 0)
(7.32817 -0.00103181 0)
(7.32934 -0.00181602 0)
(7.33059 -0.00258973 0)
(7.33188 -0.003354 0)
(7.33321 -0.00411053 0)
(7.33457 -0.00486133 0)
(7.33593 -0.00560864 0)
(7.3373 -0.00635468 0)
(7.33866 -0.00710168 0)
(7.34001 -0.00785172 0)
(7.34133 -0.00860679 0)
(7.34263 -0.00936866 0)
(7.34391 -0.010139 0)
(7.34514 -0.0109191 0)
(7.34635 -0.0117103 0)
(7.34751 -0.0125136 0)
(7.34863 -0.0133299 0)
(7.34971 -0.0141604 0)
(7.3329 0.00139192 0)
(7.33153 0.00403338 0)
(7.32919 0.00589766 0)
(7.32662 0.00691822 0)
(7.32425 0.00725457 0)
(7.32225 0.00706361 0)
(7.32072 0.00650111 0)
(7.31968 0.00570158 0)
(7.31908 0.00476162 0)
(7.31889 0.00374734 0)
(7.31904 0.00270379 0)
(7.31948 0.00166022 0)
(7.32017 0.000634178 0)
(7.32106 -0.000364655 0)
(7.3221 -0.00133179 0)
(7.32328 -0.00226613 0)
(7.32455 -0.00316874 0)
(7.32589 -0.00404205 0)
(7.32729 -0.00488921 0)
(7.32872 -0.00571377 0)
(7.33017 -0.00651939 0)
(7.33163 -0.00730971 0)
(7.33309 -0.00808818 0)
(7.33454 -0.00885807 0)
(7.33596 -0.00962239 0)
(7.33737 -0.0103839 0)
(7.33874 -0.011145 0)
(7.34008 -0.0119079 0)
(7.34138 -0.0126745 0)
(7.34264 -0.0134464 0)
(7.34386 -0.0142251 0)
(7.34503 -0.0150118 0)
(7.34615 -0.0158078 0)
(7.33278 0.0021953 0)
(7.33032 0.00601674 0)
(7.32651 0.00836771 0)
(7.32261 0.00940413 0)
(7.3192 0.00948165 0)
(7.31647 0.00887464 0)
(7.31447 0.00783743 0)
(7.31316 0.00656793 0)
(7.31246 0.0051912 0)
(7.31226 0.00378457 0)
(7.31248 0.00239651 0)
(7.31305 0.00105494 0)
(7.31389 -0.000226355 0)
(7.31495 -0.00144229 0)
(7.31617 -0.00259291 0)
(7.31753 -0.00368129 0)
(7.31899 -0.00471229 0)
(7.32051 -0.00569161 0)
(7.32208 -0.00662529 0)
(7.32369 -0.00751928 0)
(7.3253 -0.00837937 0)
(7.32692 -0.00921091 0)
(7.32852 -0.0100189 0)
(7.33011 -0.0108079 0)
(7.33167 -0.0115819 0)
(7.3332 -0.0123446 0)
(7.33468 -0.0130992 0)
(7.33613 -0.0138486 0)
(7.33753 -0.0145953 0)
(7.33889 -0.0153413 0)
(7.34019 -0.0160886 0)
(7.34144 -0.0168387 0)
(7.34264 -0.0175933 0)
(7.33249 0.00374034 0)
(7.32795 0.0094912 0)
(7.32175 0.0123735 0)
(7.31603 0.013178 0)
(7.31142 0.0126532 0)
(7.30798 0.0112899 0)
(7.30567 0.00950211 0)
(7.30431 0.00755988 0)
(7.30371 0.00560184 0)
(7.30373 0.00370194 0)
(7.30422 0.00190093 0)
(7.3051 0.000216408 0)
(7.30626 -0.00134867 0)
(7.30765 -0.0027988 0)
(7.3092 -0.00414195 0)
(7.31087 -0.00538781 0)
(7.31264 -0.00654673 0)
(7.31446 -0.00762894 0)
(7.31631 -0.00864419 0)
(7.31818 -0.00960152 0)
(7.32004 -0.0105092 0)
(7.32189 -0.0113747 0)
(7.32372 -0.0122047 0)
(7.32552 -0.0130051 0)
(7.32728 -0.0137813 0)
(7.32899 -0.0145378 0)
(7.33065 -0.0152787 0)
(7.33226 -0.0160075 0)
(7.33381 -0.0167273 0)
(7.33531 -0.0174408 0)
(7.33674 -0.0181501 0)
(7.33812 -0.0188574 0)
(7.33943 -0.0195643 0)
(7.33193 0.00664016 0)
(7.32329 0.0152927 0)
(7.31325 0.0184836 0)
(7.30522 0.0185715 0)
(7.29944 0.0168799 0)
(7.29558 0.0142362 0)
(7.29334 0.0113065 0)
(7.29234 0.00842261 0)
(7.29223 0.00569477 0)
(7.29281 0.00316762 0)
(7.29389 0.000860159 0)
(7.29536 -0.00123046 0)
(7.2971 -0.00312029 0)
(7.29905 -0.00482905 0)
(7.30114 -0.00637653 0)
(7.30333 -0.00778185 0)
(7.30557 -0.00906304 0)
(7.30785 -0.0102366 0)
(7.31014 -0.0113174 0)
(7.31241 -0.0123185 0)
(7.31466 -0.0132517 0)
(7.31687 -0.0141272 0)
(7.31903 -0.014954 0)
(7.32114 -0.0157399 0)
(7.3232 -0.0164917 0)
(7.32518 -0.0172153 0)
(7.32711 -0.0179158 0)
(7.32896 -0.0185977 0)
(7.33074 -0.0192649 0)
(7.33244 -0.0199205 0)
(7.33408 -0.0205675 0)
(7.33564 -0.0212084 0)
(7.33712 -0.0218457 0)
(7.33069 0.0134351 0)
(7.31368 0.0252084 0)
(7.29797 0.0267156 0)
(7.28753 0.0249953 0)
(7.28098 0.0216493 0)
(7.27735 0.0175191 0)
(7.27593 0.0134374 0)
(7.27598 0.00969578 0)
(7.27699 0.00629532 0)
(7.27869 0.00321672 0)
(7.28089 0.000447912 0)
(7.28343 -0.00203395 0)
(7.2862 -0.00425946 0)
(7.28913 -0.00625807 0)
(7.29214 -0.00805599 0)
(7.29519 -0.00967719 0)
(7.29825 -0.0111437 0)
(7.30129 -0.0124754 0)
(7.30428 -0.0136899 0)
(7.30722 -0.0148028 0)
(7.31009 -0.0158278 0)
(7.31288 -0.016777 0)
(7.31558 -0.0176611 0)
(7.3182 -0.0184892 0)
(7.32072 -0.0192695 0)
(7.32315 -0.0200091 0)
(7.32548 -0.020714 0)
(7.32771 -0.0213896 0)
(7.32985 -0.0220405 0)
(7.33189 -0.0226707 0)
(7.33383 -0.0232834 0)
(7.33568 -0.0238814 0)
(7.33744 -0.0244668 0)
(7.32456 0.034713 0)
(7.28958 0.0467053 0)
(7.26765 0.0370833 0)
(7.25765 0.0262581 0)
(7.25264 0.0167246 0)
(7.25096 0.0087462 0)
(7.25187 0.00250148 0)
(7.25427 -0.00234358 0)
(7.2575 -0.00618378 0)
(7.26132 -0.00925617 0)
(7.26556 -0.0117298 0)
(7.27004 -0.0137453 0)
(7.27465 -0.0154126 0)
(7.27931 -0.0168111 0)
(7.28395 -0.0179984 0)
(7.28854 -0.0190187 0)
(7.29303 -0.0199067 0)
(7.29741 -0.0206896 0)
(7.30166 -0.0213885 0)
(7.30576 -0.0220204 0)
(7.30971 -0.0225986 0)
(7.31351 -0.0231338 0)
(7.31716 -0.0236347 0)
(7.32065 -0.0241083 0)
(7.32399 -0.0245603 0)
(7.32717 -0.0249954 0)
(7.33021 -0.0254174 0)
(7.3331 -0.0258295 0)
(7.33584 -0.0262345 0)
(7.33845 -0.0266346 0)
(7.34092 -0.0270321 0)
(7.34326 -0.0274293 0)
(7.34548 -0.0278291 0)
(7.29575 0.0823963 0)
(7.21821 0.127207 0)
(7.1868 0.128807 0)
(7.18645 0.114378 0)
(7.19338 0.0947843 0)
(7.20248 0.0767451 0)
(7.21295 0.0615373 0)
(7.22374 0.0483325 0)
(7.23444 0.0367073 0)
(7.24497 0.0265727 0)
(7.25523 0.0178499 0)
(7.26511 0.0103844 0)
(7.27454 0.00400863 0)
(7.2835 -0.00142603 0)
(7.292 -0.00605149 0)
(7.30004 -0.00998693 0)
(7.30763 -0.0133377 0)
(7.31478 -0.0161945 0)
(7.32153 -0.0186344 0)
(7.32787 -0.0207225 0)
(7.33385 -0.0225142 0)
(7.33946 -0.0240561 0)
(7.34474 -0.0253875 0)
(7.3497 -0.0265415 0)
(7.35436 -0.0275461 0)
(7.35873 -0.0284247 0)
(7.36283 -0.0291971 0)
(7.36667 -0.02988 0)
(7.37027 -0.0304875 0)
(7.37363 -0.0310312 0)
(7.37677 -0.031521 0)
(7.3797 -0.0319641 0)
(7.38242 -0.0323692 0)
(7.32909 -0.158987 0)
(7.19612 -0.292899 0)
(7.13085 -0.292312 0)
(7.10898 -0.259649 0)
(7.10972 -0.22668 0)
(7.13037 -0.195751 0)
(7.16107 -0.167841 0)
(7.19443 -0.144107 0)
(7.22757 -0.124636 0)
(7.25931 -0.108757 0)
(7.28884 -0.095777 0)
(7.31576 -0.085176 0)
(7.34003 -0.0765326 0)
(7.36177 -0.0694812 0)
(7.38117 -0.063715 0)
(7.39842 -0.0589868 0)
(7.41372 -0.0550997 0)
(7.42726 -0.0518954 0)
(7.43923 -0.0492463 0)
(7.44978 -0.04705 0)
(7.45907 -0.0452237 0)
(7.46723 -0.0437012 0)
(7.47437 -0.0424288 0)
(7.48061 -0.0413631 0)
(7.48603 -0.040469 0)
(7.49072 -0.0397178 0)
(7.49476 -0.0390863 0)
(7.4982 -0.0385554 0)
(7.50111 -0.0381093 0)
(7.50355 -0.0377352 0)
(7.50556 -0.0374215 0)
(7.50718 -0.0371599 0)
(7.50848 -0.036938 0)
(7.33045 1.21807 0)
(7.6376 1.24116 0)
(7.81729 0.934087 0)
(7.87343 0.662121 0)
(7.88532 0.462339 0)
(7.87662 0.320594 0)
(7.85215 0.220101 0)
(7.81687 0.148062 0)
(7.77613 0.0958193 0)
(7.7334 0.0576535 0)
(7.69028 0.0296474 0)
(7.64755 0.00902571 0)
(7.60575 -0.00618954 0)
(7.56522 -0.0174094 0)
(7.52614 -0.0256507 0)
(7.48857 -0.0316574 0)
(7.4525 -0.0359798 0)