/*--------------------------------*- C++ -*----------------------------------*\
  =========                 |
  \\      /  F ield         | OpenFOAM: The Open Source CFD Toolbox
   \\    /   O peration     | Website:  https://openfoam.org
    \\  /    A nd           | Version:  10
     \\/     M anipulation  |
\*---------------------------------------------------------------------------*/
FoamFile
{
    format      ascii;
    class       volScalarField;
    location    "1700";
    object      yPlus;
}
// * * * * * * * * * * * * * * * * * * * * * * * * * * * * * * * * * * * * * //

dimensions      [0 0 0 0 0 0 0];

internalField   uniform 0;

boundaryField
{
    outlet
    {
        type            calculated;
        value           uniform 0;
    }
    inlet
    {
        type            calculated;
        value           uniform 0;
    }
    lowerWall
    {
        type            calculated;
        value           nonuniform List<scalar> 
148
(
12.7112
17.6462
20.7196
22.3203
23.0459
23.2746
23.2254
23.0255
22.751
22.447
22.1389
21.8405
21.5587
21.2963
21.0539
20.8308
20.626
20.4379
20.265
20.1058
19.959
19.8234
19.6979
19.5814
19.473
19.3721
19.2777
19.1894
19.1062
19.029
18.9493
18.9092
18.7105
0.398629
2.16454
3.90218
5.23363
6.33107
7.24815
8.11416
8.98449
9.85536
10.8748
11.2179
11.3899
11.7307
11.764
25.5784
0.398629
3.36008
4.97917
5.74525
5.92916
5.79727
5.4946
5.1003
4.58238
3.52444
6.65647
4.58532
8.999
13.7799
18.55
22.1049
25.1172
27.7548
30.1082
32.2292
34.1492
35.8897
37.4688
38.9038
40.2134
41.4152
42.5269
43.5641
44.5406
45.4678
46.3549
47.2088
48.0347
48.8369
49.6193
50.3858
51.1416
51.8931
52.6452
53.3822
54.11
54.8285
55.5373
56.235
56.9205
57.592
58.2479
58.8861
59.505
60.1024
60.6761
61.224
61.7437
62.233
62.6895
63.1108
63.4948
63.8392
64.142
64.4017
64.617
64.7864
64.9092
64.9851
65.0131
64.9933
64.9254
64.8089
64.6428
64.4222
64.1863
63.9499
63.6656
63.3338
62.9637
62.5627
62.137
61.69
61.2254
60.7466
60.2565
59.7579
59.2537
58.7466
58.2388
57.7324
57.2295
56.7316
56.2403
55.7571
55.2832
54.8205
54.3692
53.9331
53.5104
53.1095
52.7267
52.3798
52.0771
51.8312
)
;
    }
    upperWall
    {
        type            calculated;
        value           nonuniform List<scalar> 
133
(
31.2591
34.0073
36.6584
39.0132
41.0752
42.889
44.4881
45.8973
47.1377
48.2283
49.1859
50.0256
50.7609
51.4035
51.9643
52.4525
52.8767
53.2444
53.562
53.8356
54.0702
54.2704
54.4403
54.5834
54.703
54.8016
54.882
54.9461
54.9961
55.0334
55.0597
55.0762
55.0844
55.0839
55.0724
55.05
55.0172
54.9744
54.9223
54.8613
54.7919
54.7145
54.6297
54.5378
54.4392
54.3342
54.2232
54.1063
53.9838
53.856
53.7229
53.5848
53.4417
53.2937
53.1408
52.9831
52.8205
52.6529
52.4803
52.3026
52.1196
51.9311
51.737
51.537
51.331
51.1187
50.8998
50.6741
50.4413
50.2012
49.9534
49.6977
49.4339
49.1617
48.8809
48.5914
48.2929
47.9854
47.6688
47.3431
47.0083
46.6646
46.312
45.9509
45.5817
45.2047
44.8204
44.4297
44.0331
43.6315
43.226
42.8176
42.4075
41.9971
41.5876
41.1806
40.7776
40.3802
39.9901
39.6088
39.2379
38.879
38.5334
38.2026
37.8877
37.5895
37.309
37.0466
36.8027
36.5773
36.3702
36.181
36.0091
35.8535
35.7134
35.5872
35.4741
35.3723
35.2807
35.1976
35.1217
35.0516
34.9861
34.9237
34.8634
34.8038
34.7442
34.6833
34.6201
34.555
34.4809
34.4211
34.2885
)
;
    }
    frontAndBack
    {
        type            empty;
    }
}


// ************************************************************************* //
