/*--------------------------------*- C++ -*----------------------------------*\
  =========                 |
  \\      /  F ield         | OpenFOAM: The Open Source CFD Toolbox
   \\    /   O peration     | Website:  https://openfoam.org
    \\  /    A nd           | Version:  10
     \\/     M anipulation  |
\*---------------------------------------------------------------------------*/
FoamFile
{
    format      ascii;
    class       volScalarField;
    location    "0.105";
    object      epsilon;
}
// * * * * * * * * * * * * * * * * * * * * * * * * * * * * * * * * * * * * * //

dimensions      [0 2 -3 0 0 0 0];

internalField   nonuniform List<scalar> 
6820
(
23.2969
22.5752
21.9094
21.2853
20.7019
20.1632
19.6735
19.2344
18.8457
18.505
18.2092
17.9546
17.7373
17.5535
17.3998
17.2728
17.1695
17.0873
17.0238
16.9767
16.9441
16.9242
16.9156
16.9168
16.9266
16.9441
16.9676
16.9991
17.0246
17.1064
16.9488
17.9326
13.5845
5.03385
6.81827
7.83925
8.46744
8.8978
9.23106
9.52106
9.79422
10.0625
10.3311
10.6017
10.8746
11.1497
11.4264
11.7042
11.9824
12.2604
12.5376
12.8136
13.0877
13.3596
13.6288
13.895
14.1581
14.4181
14.6749
14.9293
15.1825
15.4365
15.7049
15.9585
16.4177
16.4188
3.7036
4.1472
4.56525
4.9142
5.19789
5.43112
5.62791
5.7995
5.95432
6.09847
6.23625
6.37056
6.50332
6.63576
6.7686
6.90225
7.0369
7.17258
7.30924
7.44676
7.58497
7.7237
7.86279
8.00208
8.14144
8.28083
8.42023
8.56003
8.70001
8.84318
8.98461
9.14027
9.28007
3.54009
3.61093
3.72473
3.85371
3.98115
4.09939
4.20616
4.3019
4.38809
4.4665
4.53886
4.60667
4.67116
4.73334
4.79397
4.85365
4.91281
4.97177
5.03075
5.08991
5.14933
5.20907
5.26916
5.32962
5.39044
5.45164
5.51324
5.57536
5.63804
5.70177
5.76644
5.83296
5.90197
3.52064
3.50151
3.50498
3.52611
3.55867
3.5972
3.63778
3.678
3.71659
3.753
3.78715
3.81916
3.84932
3.87791
3.90525
3.93161
3.95723
3.98232
4.00706
4.03157
4.05599
4.08038
4.10482
4.12937
4.15406
4.17894
4.20405
4.22944
4.25516
4.28134
4.30801
4.33524
4.36307
3.5194
3.48247
3.45303
3.43232
3.41995
3.4145
3.41422
3.41749
3.42305
3.42994
3.43753
3.44539
3.45328
3.46106
3.46868
3.47612
3.48341
3.49058
3.49766
3.50471
3.51177
3.51886
3.52603
3.5333
3.5407
3.54826
3.556
3.56394
3.57213
3.58059
3.58935
3.59843
3.60782
3.51943
3.47974
3.44283
3.40949
3.38025
3.35523
3.3342
3.31668
3.30212
3.28998
3.27975
3.27104
3.26352
3.25694
3.25111
3.24588
3.24115
3.23685
3.23293
3.22934
3.22606
3.22307
3.22035
3.21791
3.21574
3.21382
3.21217
3.21079
3.20968
3.20885
3.2083
3.20804
3.20806
3.51947
3.47943
3.44109
3.40466
3.37041
3.33852
3.30907
3.28205
3.25735
3.2348
3.21418
3.19529
3.17793
3.1619
3.14704
3.13321
3.12029
3.10817
3.09677
3.08602
3.07585
3.06622
3.05708
3.04841
3.04017
3.03234
3.0249
3.01784
3.01114
3.00479
2.99878
2.99311
2.98775
3.51948
3.47941
3.44085
3.40382
3.36835
3.33448
3.30225
3.27169
3.24279
3.21553
3.18983
3.16563
3.14283
3.12133
3.10105
3.08188
3.06374
3.04654
3.03021
3.01469
2.99991
2.98581
2.97236
2.9595
2.9472
2.93543
2.92416
2.91335
2.903
2.89307
2.88356
2.87444
2.8657
3.51948
3.4794
3.44082
3.40368
3.36796
3.33361
3.30063
3.26898
3.23865
3.20961
3.18185
3.15532
3.12998
3.10578
3.08268
3.06062
3.03955
3.0194
3.00014
2.9817
2.96405
2.94713
2.93091
2.91534
2.90039
2.88603
2.87223
2.85895
2.84618
2.8339
2.82207
2.81069
2.79972
3.51948
3.4794
3.44081
3.40365
3.36788
3.33344
3.30027
3.26834
3.23759
3.208
3.17952
3.15213
3.12579
3.10046
3.07612
3.05271
3.03021
3.00858
2.98778
2.96777
2.94853
2.93
2.91217
2.895
2.87846
2.86252
2.84715
2.83234
2.81805
2.80426
2.79096
2.77813
2.76573
3.51948
3.4794
3.4408
3.40364
3.36786
3.3334
3.30019
3.26819
3.23733
3.20759
3.1789
3.15124
3.12456
3.09882
3.074
3.05006
3.02696
3.00468
2.98318
2.96244
2.94242
2.92309
2.90444
2.88642
2.86902
2.85221
2.83597
2.82028
2.80512
2.79045
2.77628
2.76258
2.74932
3.51948
3.4794
3.44079
3.40363
3.36785
3.33337
3.30016
3.26814
3.23726
3.20747
3.17873
3.15099
3.1242
3.09834
3.07336
3.04923
3.02592
3.00339
2.98162
2.96057
2.94022
2.92054
2.90151
2.88311
2.8653
2.84807
2.8314
2.81526
2.79964
2.78452
2.76988
2.7557
2.74197
3.51947
3.47939
3.44079
3.40362
3.36783
3.33336
3.30013
3.26811
3.23722
3.20742
3.17866
3.1509
3.12409
3.09819
3.07316
3.04897
3.02559
3.00298
2.98111
2.95995
2.93948
2.91966
2.90048
2.88191
2.86393
2.84652
2.82966
2.81332
2.79749
2.78215
2.76728
2.75288
2.73891
3.51947
3.47939
3.44079
3.40362
3.36782
3.33334
3.30012
3.26808
3.23719
3.20739
3.17862
3.15085
3.12403
3.09812
3.07307
3.04887
3.02546
3.00282
2.98092
2.95972
2.93921
2.91935
2.90012
2.88149
2.86344
2.84596
2.82902
2.8126
2.79668
2.78125
2.76628
2.75178
2.7377
3.51947
3.47939
3.44078
3.40361
3.36782
3.33333
3.3001
3.26806
3.23717
3.20736
3.17859
3.15081
3.12398
3.09806
3.07302
3.0488
3.02539
3.00274
2.98083
2.95962
2.93909
2.91921
2.89996
2.88131
2.86324
2.84573
2.82876
2.81231
2.79636
2.78089
2.76589
2.75134
2.73722
3.51947
3.47939
3.44078
3.40361
3.36781
3.33332
3.30009
3.26805
3.23715
3.20733
3.17856
3.15078
3.12394
3.09802
3.07297
3.04875
3.02533
3.00268
2.98076
2.95954
2.93901
2.91912
2.89986
2.88121
2.86313
2.84561
2.82863
2.81216
2.7962
2.78071
2.76569
2.75112
2.73699
3.51947
3.47939
3.44078
3.4036
3.3678
3.33331
3.30008
3.26803
3.23713
3.20731
3.17853
3.15075
3.12391
3.09798
3.07293
3.04871
3.02528
3.00262
2.9807
2.95948
2.93894
2.91905
2.89979
2.88113
2.86304
2.84552
2.82853
2.81206
2.79608
2.78059
2.76556
2.75099
2.73684
3.51947
3.47939
3.44078
3.4036
3.3678
3.33331
3.30007
3.26802
3.23711
3.20729
3.17851
3.15072
3.12388
3.09795
3.07289
3.04866
3.02524
3.00257
2.98065
2.95943
2.93888
2.91899
2.89972
2.88105
2.86297
2.84544
2.82844
2.81196
2.79599
2.78049
2.76545
2.75087
2.73671
3.51947
3.47939
3.44077
3.4036
3.36779
3.3333
3.30006
3.26801
3.2371
3.20727
3.17849
3.15069
3.12385
3.09792
3.07286
3.04863
3.02519
3.00253
2.9806
2.95937
2.93883
2.91893
2.89966
2.88099
2.86289
2.84536
2.82836
2.81188
2.79589
2.78039
2.76535
2.75076
2.73659
3.51947
3.47939
3.44077
3.40359
3.36779
3.33329
3.30005
3.268
3.23708
3.20726
3.17847
3.15067
3.12383
3.09789
3.07282
3.04859
3.02516
3.00249
2.98055
2.95932
2.93877
2.91887
2.8996
2.88092
2.86282
2.84529
2.82828
2.8118
2.79581
2.7803
2.76525
2.75065
2.73648
3.51947
3.47938
3.44077
3.40359
3.36779
3.33329
3.30004
3.26799
3.23707
3.20724
3.17845
3.15065
3.12381
3.09787
3.0728
3.04856
3.02512
3.00245
2.98051
2.95928
2.93872
2.91882
2.89954
2.88086
2.86276
2.84522
2.82821
2.81172
2.79572
2.78021
2.76515
2.75055
2.73637
3.51947
3.47938
3.44077
3.40359
3.36778
3.33329
3.30004
3.26798
3.23706
3.20723
3.17844
3.15064
3.12379
3.09784
3.07277
3.04853
3.02509
3.00241
2.98047
2.95924
2.93868
2.91877
2.89948
2.8808
2.8627
2.84515
2.82814
2.81164
2.79564
2.78012
2.76506
2.75045
2.73626
3.51947
3.47938
3.44077
3.40359
3.36778
3.33328
3.30003
3.26798
3.23706
3.20722
3.17843
3.15062
3.12377
3.09782
3.07275
3.04851
3.02506
3.00238
2.98044
2.9592
2.93864
2.91872
2.89943
2.88075
2.86264
2.84509
2.82807
2.81156
2.79556
2.78003
2.76497
2.75035
2.73616
3.51947
3.47938
3.44077
3.40359
3.36778
3.33328
3.30003
3.26797
3.23705
3.20721
3.17842
3.15061
3.12375
3.09781
3.07273
3.04848
3.02504
3.00235
2.98041
2.95916
2.9386
2.91868
2.89939
2.8807
2.86258
2.84502
2.828
2.81149
2.79548
2.77995
2.76488
2.75025
2.73605
3.51947
3.47938
3.44077
3.40359
3.36778
3.33328
3.30003
3.26797
3.23704
3.20721
3.17841
3.1506
3.12374
3.09779
3.07271
3.04846
3.02501
3.00233
2.98038
2.95913
2.93856
2.91864
2.89935
2.88065
2.86253
2.84497
2.82794
2.81143
2.79541
2.77987
2.7648
2.75016
2.73596
3.51947
3.47938
3.44077
3.40359
3.36778
3.33328
3.30002
3.26796
3.23704
3.2072
3.1784
3.15059
3.12373
3.09778
3.07269
3.04844
3.02499
3.0023
2.98035
2.9591
2.93853
2.9186
2.8993
2.8806
2.86248
2.84492
2.82788
2.81136
2.79534
2.7798
2.76472
2.75008
2.73586
3.51947
3.47938
3.44077
3.40359
3.36778
3.33328
3.30002
3.26796
3.23704
3.2072
3.1784
3.15059
3.12372
3.09777
3.07269
3.04843
3.02498
3.00229
2.98033
2.95908
2.9385
2.91858
2.89927
2.88057
2.86244
2.84487
2.82783
2.81131
2.79528
2.77973
2.76464
2.75
2.73578
3.51947
3.47938
3.44077
3.40359
3.36778
3.33327
3.30002
3.26796
3.23703
3.20719
3.17839
3.15057
3.12371
3.09776
3.07267
3.04842
3.02496
3.00227
2.98031
2.95905
2.93847
2.91854
2.89924
2.88053
2.8624
2.84483
2.82778
2.81126
2.79522
2.77967
2.76458
2.74993
2.7357
3.51947
3.47938
3.44077
3.40359
3.36778
3.33328
3.30003
3.26796
3.23704
3.2072
3.1784
3.15059
3.12372
3.09777
3.07268
3.04842
3.02496
3.00227
2.98031
2.95905
2.93847
2.91854
2.89923
2.88052
2.86238
2.8448
2.82776
2.81122
2.79519
2.77963
2.76453
2.74987
2.73564
3.51947
3.47939
3.44077
3.40359
3.36778
3.33328
3.30002
3.26796
3.23703
3.20719
3.17838
3.15057
3.12371
3.09775
3.07266
3.04841
3.02495
3.00225
2.98029
2.95904
2.93845
2.91852
2.89921
2.8805
2.86236
2.84478
2.82774
2.8112
2.79516
2.7796
2.7645
2.74984
2.73561
3.51947
3.47938
3.44077
3.40359
3.36779
3.3333
3.30005
3.268
3.23708
3.20724
3.17844
3.15064
3.12377
3.09782
3.07273
3.04847
3.02501
3.00232
2.98036
2.9591
2.93852
2.91859
2.89928
2.88057
2.86244
2.84486
2.82782
2.81129
2.79526
2.77971
2.76461
2.74996
2.73574
3.51948
3.4794
3.44079
3.40362
3.36782
3.33332
3.30007
3.26801
3.23708
3.20725
3.17845
3.15065
3.12379
3.09785
3.07277
3.04853
3.02509
3.00242
2.98048
2.95925
2.93869
2.91879
2.89952
2.88085
2.86276
2.84523
2.82823
2.81175
2.79578
2.78028
2.76524
2.75065
2.7365
3.51947
3.47939
3.44079
3.40365
3.36789
3.33343
3.30023
3.26821
3.23733
3.20753
3.17878
3.15102
3.12421
3.09833
3.07332
3.04917
3.02582
3.00325
2.98143
2.96034
2.93993
2.92019
2.90109
2.88261
2.86472
2.84739
2.83062
2.81437
2.79863
2.78338
2.7686
2.75428
2.74039
3.51949
3.47947
3.44095
3.40385
3.36811
3.33369
3.30054
3.26862
3.23789
3.2083
3.1798
3.15236
3.12593
3.10048
3.07597
3.05236
3.02961
3.00769
2.98657
2.96621
2.94658
2.92765
2.9094
2.89178
2.87479
2.85838
2.84253
2.82723
2.81245
2.79816
2.78435
2.771
2.75808
3.5195
3.47952
3.44117
3.40446
3.36933
3.33572
3.30359
3.2729
3.24361
3.2157
3.1891
3.16376
3.13964
3.11668
3.09481
3.07399
3.05414
3.03523
3.01719
2.99997
2.98352
2.96781
2.95278
2.93839
2.92461
2.91139
2.89872
2.88654
2.87485
2.8636
2.85277
2.84234
2.83229
3.51969
3.48122
3.44561
3.41286
3.38295
3.35586
3.33147
3.30961
3.29007
3.27263
3.25707
3.24319
3.2308
3.21973
3.20982
3.20093
3.19293
3.18571
3.17916
3.17321
3.16776
3.16277
3.15815
3.15387
3.14987
3.14612
3.14258
3.13921
3.136
3.13291
3.12994
3.12705
3.12424
3.52527
3.51368
3.51617
3.52943
3.55064
3.57779
3.60925
3.64375
3.68033
3.71825
3.75692
3.79588
3.83478
3.87335
3.91136
3.94867
3.98513
4.02067
4.05521
4.08872
4.12118
4.15255
4.18286
4.21209
4.24026
4.26739
4.29351
4.31863
4.34278
4.36599
4.3883
4.40973
4.43033
3.83318
4.36509
4.8492
5.31427
5.77479
6.22615
6.66406
7.08667
7.4936
7.88525
8.26239
8.62591
8.97673
9.31566
9.64346
9.9608
10.2682
10.5663
10.8555
11.1362
11.4087
11.6734
11.9306
12.1807
12.4237
12.6601
12.8901
13.1139
13.3317
13.5438
13.7504
13.9517
14.1479
30.2663
32.7713
35.3126
37.865
40.4147
42.9529
45.4712
47.9622
50.4189
52.8351
55.2052
57.5245
59.7888
61.9948
64.1396
66.2211
68.2377
70.1881
72.0718
73.8884
75.6382
77.3213
78.9386
80.4909
81.9795
83.4054
84.7703
86.0756
87.323
88.5142
89.651
90.7348
91.7689
85.6112
233.343
410.111
577.879
710.254
795.555
835.063
837.718
814.859
777.087
732.532
686.575
642.3
601.19
563.733
529.913
499.506
472.247
447.888
426.196
406.94
389.875
374.746
361.292
349.252
338.382
328.451
319.247
310.578
302.268
294.158
286.102
277.969
269.637
260.996
251.943
242.383
232.227
221.39
209.798
197.384
184.097
169.91
154.825
138.894
122.232
105.045
87.6484
70.4985
54.1976
39.4686
27.0535
17.5134
10.9801
7.04196
4.93473
3.90909
3.45076
3.27367
3.23222
3.25306
3.29853
3.34907
3.39474
3.43088
3.45586
3.46978
3.47369
3.46915
3.45786
3.44156
3.42185
3.40017
3.37777
3.35565
3.33461
3.31521
3.29777
3.28242
3.26906
3.25751
3.24746
3.23856
3.23046
3.22285
3.21541
3.20787
3.19995
3.19134
3.18163
3.17032
3.15668
3.13985
3.11871
3.09204
3.05841
3.01692
2.96428
2.91124
2.79478
18.9706
27.2646
43.1406
67.587
100.545
140.763
185.919
232.994
278.629
319.66
353.572
378.736
394.639
401.836
401.683
395.957
386.468
374.781
362.078
349.161
336.513
324.394
312.926
302.147
292.045
282.578
273.676
265.254
257.211
249.437
241.819
234.243
226.598
218.777
210.682
202.219
193.303
183.855
173.807
163.105
151.708
139.6
126.797
113.359
99.4027
85.1206
70.7983
56.8267
43.6995
31.9768
22.1946
14.7149
9.5666
6.40023
4.64216
3.74178
3.31368
3.13431
3.08372
3.09772
3.14102
3.19385
3.2452
3.28917
3.32301
3.34588
3.35813
3.36082
3.35536
3.34331
3.32625
3.30565
3.28284
3.25899
3.23508
3.21191
3.19008
3.16999
3.15186
3.13573
3.1215
3.10897
3.09789
3.08796
3.07889
3.0704
3.06221
3.05404
3.04557
3.0364
3.02601
3.01373
2.99871
2.97989
2.9561
2.92598
2.88864
2.84094
2.79283
2.68601
9.42029
9.78401
10.723
12.5928
15.6935
20.2966
26.6922
35.1938
46.0518
59.3257
74.7904
91.9982
110.228
128.64
146.234
162.052
175.343
185.68
192.971
197.413
199.396
199.398
197.9
195.329
192.029
188.253
184.173
179.897
175.477
170.928
166.235
161.365
156.268
150.888
145.163
139.032
132.436
125.325
117.66
109.416
100.594
91.2218
81.3684
71.1499
60.7425
50.3899
40.4045
31.1529
23.0172
16.3223
11.2426
7.7272
5.50934
4.21823
3.51401
3.15519
2.99334
2.94218
2.95148
2.99144
3.04403
3.09834
3.1479
3.18909
3.22024
3.24092
3.25157
3.25316
3.24696
3.23439
3.21684
3.19566
3.17207
3.14717
3.12189
3.097
3.07313
3.05073
3.03008
3.01132
2.99446
2.97939
2.96594
2.95388
2.94298
2.93298
2.92364
2.91467
2.90576
2.89653
2.88648
2.87496
2.86118
2.84414
2.82272
2.79564
2.76203
2.71893
2.67546
2.57798
5.97742
6.06299
6.17618
6.36185
6.67175
7.15651
7.86636
8.85915
10.2109
12.0176
14.3843
17.4089
21.1631
25.6231
30.7709
36.5329
42.7631
49.2511
55.745
61.9836
67.7296
72.7958
77.0609
80.4721
83.0371
84.8091
85.8683
86.305
86.2059
85.6441
84.6736
83.3273
81.6182
79.5416
77.0799
74.2081
70.899
67.1303
62.8901
58.1836
53.0397
47.5175
41.7119
35.7583
29.8327
24.1452
18.9226
14.3771
10.6641
7.84022
5.84617
4.53244
3.71694
3.23763
2.97485
2.84841
2.80635
2.81488
2.85184
2.90259
2.95743
3.01005
3.05645
3.09434
3.12261
3.14108
3.15017
3.15076
3.14396
3.13101
3.11318
3.09167
3.06761
3.04199
3.0157
2.98949
2.96396
2.9396
2.91674
2.89559
2.87624
2.85867
2.84278
2.82843
2.81544
2.8036
2.79269
2.78245
2.7726
2.76277
2.75251
2.7412
2.72809
2.71227
2.6927
2.66816
2.63781
2.59888
2.55967
2.47109
4.39505
4.4311
4.46911
4.5137
4.57205
4.65337
4.76775
4.9256
5.13867
5.42192
5.79488
6.28098
6.91039
7.6873
8.60647
9.66986
10.8775
12.2239
13.6963
15.2731
16.924
18.611
20.2908
21.9182
23.4498
24.848
26.0828
27.1333
27.9869
28.6372
29.0823
29.3211
29.3512
29.1668
28.758
28.1115
27.2132
26.0509
24.6197
22.926
20.9924
18.8619
16.5986
14.2868
12.0253
9.91602
8.04905
6.48665
5.252
4.32909
3.67407
3.23202
2.95029
2.78507
2.70231
2.67636
2.6881
2.72331
2.77151
2.82505
2.87841
2.9277
2.97032
3.0047
3.03008
3.04637
3.05396
3.05361
3.04628
3.03307
3.01509
2.99344
2.96912
2.94307
2.91609
2.88889
2.86207
2.83611
2.81138
2.78813
2.7665
2.74656
2.72829
2.7116
2.69638
2.68247
2.66969
2.65782
2.64661
2.63573
2.62476
2.61314
2.60018
2.58505
2.56679
2.54426
2.51666
2.48142
2.44607
2.36586
3.61895
3.6318
3.64513
3.65938
3.67546
3.69498
3.72017
3.75361
3.79811
3.85691
3.93397
4.03402
4.164
4.32507
4.51795
4.74246
4.99742
5.28073
5.58935
5.91937
6.26607
6.62394
6.98672
7.34758
7.69934
8.0348
8.34703
8.6297
8.87725
9.08501
9.24905
9.36596
9.43242
9.44475
9.39853
9.28854
9.10904
8.85458
8.52131
8.10868
7.62127
7.07011
6.47324
5.85478
5.2425
4.66408
4.14311
3.69589
3.33015
3.04577
2.83681
2.69397
2.6065
2.56361
2.55515
2.57207
2.60654
2.65197
2.70296
2.75515
2.80516
2.8504
2.88906
2.91996
2.94255
2.95675
2.96291
2.96166
2.95385
2.94044
2.92241
2.90073
2.87634
2.85006
2.82265
2.79476
2.76698
2.73976
2.71349
2.68845
2.66483
2.64273
2.62221
2.60323
2.58575
2.56966
2.55482
2.54107
2.52819
2.51589
2.50379
2.49141
2.47813
2.46319
2.44571
2.42466
2.39931
2.36724
2.33528
2.26281
3.20836
3.20892
3.20973
3.21087
3.2125
3.21487
3.21839
3.22364
3.23131
3.24223
3.25738
3.27803
3.30541
3.34059
3.38427
3.43671
3.49771
3.56664
3.64244
3.72375
3.80897
3.89633
3.98396
4.06992
4.15227
4.2291
4.29863
4.35922
4.4094
4.44796
4.47387
4.4863
4.48456
4.46801
4.43601
4.38782
4.32264
4.23967
4.13833
4.0185
3.88097
3.72773
3.56231
3.38973
3.21625
3.04873
2.89392
2.75762
2.64414
2.55594
2.49371
2.45649
2.44206
2.44733
2.4687
2.50241
2.54475
2.59226
2.64181
2.69068
2.73654
2.77755
2.81231
2.8399
2.85985
2.87208
2.87689
2.87481
2.86657
2.853
2.83497
2.81336
2.789
2.76266
2.73502
2.7067
2.67823
2.65007
2.62259
2.59607
2.57075
2.54676
2.52418
2.50307
2.4834
2.46512
2.44816
2.43237
2.4176
2.4036
2.39005
2.37654
2.36251
2.34731
2.33014
2.31007
2.28643
2.25701
2.22796
2.1625
2.98187
2.97539
2.96904
2.96287
2.9569
2.95121
2.94589
2.94107
2.93692
2.93361
2.9314
2.93055
2.93135
2.93414
2.9392
2.94674
2.95685
2.96946
2.98435
3.00113
3.01929
3.03824
3.05731
3.07578
3.09293
3.10806
3.12049
3.12961
3.13486
3.13578
3.13198
3.12317
3.10914
3.08976
3.06496
3.03471
2.99903
2.95802
2.91182
2.86076
2.80535
2.74638
2.68504
2.62288
2.56188
2.50428
2.45244
2.40862
2.37473
2.35219
2.34172
2.34336
2.35645
2.3798
2.41176
2.4504
2.49365
2.5394
2.58559
2.63031
2.67182
2.70869
2.73976
2.76427
2.78177
2.7922
2.79576
2.79291
2.78427
2.77057
2.75259
2.73111
2.70687
2.68059
2.65288
2.62432
2.59541
2.56657
2.53817
2.51049
2.48376
2.45816
2.4338
2.41074
2.38904
2.36867
2.34959
2.33173
2.31496
2.2991
2.28387
2.26894
2.25383
2.23797
2.22067
2.20111
2.17868
2.15137
2.12474
2.06551
2.85594
2.84506
2.83429
2.82365
2.81314
2.80279
2.79264
2.78271
2.77306
2.76374
2.75478
2.74624
2.73818
2.73066
2.72376
2.71752
2.71199
2.70718
2.70306
2.69955
2.69651
2.69378
2.69112
2.68829
2.68503
2.68105
2.67609
2.66989
2.6622
2.65281
2.64157
2.62834
2.61304
2.59564
2.57616
2.55466
2.53125
2.50613
2.47953
2.45178
2.42329
2.3946
2.36638
2.33942
2.31466
2.29311
2.27584
2.26388
2.25813
2.25926
2.26764
2.28331
2.30592
2.33481
2.36902
2.40735
2.44842
2.49078
2.53289
2.57328
2.61056
2.64352
2.67118
2.69284
2.70811
2.71687
2.7193
2.71575
2.70676
2.69297
2.67506
2.65375
2.6297
2.60356
2.57591
2.54727
2.5181
2.48882
2.45975
2.43119
2.40335
2.37643
2.35055
2.32582
2.30229
2.27999
2.25892
2.23903
2.22026
2.20246
2.18543
2.16888
2.15244
2.13561
2.11781
2.09833
2.07663
2.05092
2.0262
1.97241
2.78743
2.77367
2.76
2.74644
2.73299
2.71966
2.70647
2.69345
2.68061
2.66798
2.65556
2.64336
2.63139
2.61965
2.60814
2.59685
2.58577
2.5749
2.56422
2.55371
2.54332
2.533
2.5227
2.51233
2.5018
2.49102
2.47989
2.46831
2.45619
2.44344
2.43001
2.41585
2.40095
2.38531
2.36898
2.35205
2.33463
2.31688
2.29903
2.28134
2.26414
2.24782
2.23283
2.21969
2.20896
2.20123
2.1971
2.19713
2.20178
2.21141
2.2262
2.24612
2.27092
2.30014
2.33311
2.36895
2.40665
2.44507
2.48298
2.51918
2.55247
2.58182
2.60634
2.62541
2.63864
2.64589
2.64727
2.64309
2.6338
2.61995
2.60216
2.58104
2.55723
2.53131
2.5038
2.47521
2.44595
2.4164
2.38689
2.35769
2.32902
2.30106
2.27395
2.2478
2.22269
2.19868
2.1758
2.15402
2.13333
2.11362
2.09475
2.07649
2.05855
2.04053
2.02194
2.00218
1.9808
1.95619
1.93292
1.88372
2.7518
2.73617
2.72062
2.70516
2.68979
2.67452
2.65938
2.64436
2.6295
2.6148
2.60028
2.58594
2.57179
2.55782
2.54402
2.53038
2.51687
2.50347
2.49018
2.47696
2.46379
2.45066
2.43754
2.42439
2.4112
2.39794
2.38457
2.37107
2.35741
2.34358
2.32957
2.31538
2.30103
2.28657
2.27204
2.25754
2.24318
2.22911
2.21551
2.2026
2.19064
2.17992
2.17078
2.16358
2.15872
2.15658
2.15756
2.162
2.17019
2.18235
2.19856
2.21877
2.24278
2.27024
2.3006
2.33319
2.36718
2.40163
2.4355
2.46776
2.49738
2.52341
2.54508
2.56179
2.57315
2.57902
2.57947
2.57472
2.56517
2.55129
2.53363
2.51275
2.48921
2.46355
2.43627
2.40781
2.37859
2.34894
2.31917
2.28954
2.26027
2.23152
2.20345
2.17616
2.14975
2.12428
2.09981
2.07634
2.05388
2.03237
2.01171
1.99175
1.97225
1.9529
1.93331
1.91298
1.89156
1.86763
1.84536
1.79994
2.73439
2.71761
2.70089
2.68424
2.66766
2.65117
2.63477
2.61848
2.60232
2.58631
2.57045
2.55476
2.53925
2.52391
2.50874
2.49374
2.47889
2.46417
2.44957
2.43507
2.42066
2.40631
2.39202
2.37777
2.36355
2.34935
2.33517
2.32101
2.30687
2.29276
2.27869
2.26468
2.25079
2.23705
2.22354
2.21035
2.19757
2.18535
2.17385
2.16323
2.15373
2.14556
2.139
2.13432
2.13181
2.13176
2.13446
2.14014
2.14901
2.16121
2.17679
2.19569
2.21775
2.24267
2.27001
2.29919
2.32951
2.36018
2.39029
2.41892
2.44517
2.46818
2.48724
2.50179
2.51145
2.51606
2.51565
2.51039
2.50062
2.48674
2.46923
2.44861
2.42538
2.40003
2.37303
2.34479
2.31569
2.28606
2.25619
2.22631
2.19664
2.16734
2.13855
2.11038
2.08293
2.05627
2.03046
2.00554
1.98153
1.95839
1.93608
1.91449
1.89344
1.87272
1.85201
1.83092
1.80918
1.78555
1.7639
1.72148
2.72648
2.70905
2.69166
2.67432
2.65702
2.6398
2.62264
2.60558
2.58862
2.57179
2.55509
2.53854
2.52216
2.50594
2.48989
2.47402
2.45831
2.44277
2.42737
2.41211
2.39697
2.38195
2.36704
2.35223
2.33752
2.3229
2.30838
2.29395
2.27964
2.26547
2.25144
2.23761
2.224
2.21068
2.19772
2.1852
2.17321
2.16189
2.15136
2.14179
2.13336
2.12626
2.1207
2.11691
2.11512
2.11555
2.11843
2.12395
2.13226
2.14345
2.15757
2.17456
2.19428
2.21646
2.24074
2.26661
2.29347
2.32062
2.34726
2.37258
2.39574
2.416
2.43267
2.44524
2.45335
2.4568
2.45561
2.44989
2.43992
2.42606
2.40872
2.38838
2.36548
2.34048
2.3138
2.28584
2.25695
2.22744
2.19759
2.16761
2.13771
2.10805
2.07876
2.04995
2.02171
1.99411
1.96724
1.94112
1.91579
1.89125
1.86747
1.8444
1.82191
1.79985
1.77799
1.75602
1.73377
1.71016
1.68881
1.64866
2.72314
2.70537
2.68763
2.66991
2.65224
2.6346
2.61703
2.59952
2.5821
2.56478
2.54757
2.5305
2.51357
2.4968
2.48018
2.46374
2.44746
2.43135
2.41541
2.39962
2.384
2.36852
2.35319
2.338
2.32295
2.30805
2.29329
2.2787
2.26427
2.25003
2.23601
2.22224
2.20876
2.19563
2.18291
2.17068
2.15903
2.14808
2.13794
2.12875
2.12068
2.11388
2.10853
2.10484
2.10298
2.10314
2.10551
2.11024
2.11745
2.12722
2.13958
2.15447
2.17178
2.19126
2.2126
2.23537
2.25902
2.28292
2.30638
2.32866
2.34901
2.36674
2.38123
2.39199
2.39866
2.40105
2.39913
2.39299
2.38285
2.36903
2.35188
2.33183
2.30928
2.28465
2.25834
2.2307
2.20209
2.17278
2.14303
2.11308
2.08309
2.05323
2.02362
1.99437
1.96557
1.93729
1.90959
1.88253
1.85614
1.83044
1.80543
1.78108
1.75731
1.73402
1.71105
1.68818
1.6653
1.64149
1.62019
1.58169
2.7218
2.70388
2.68596
2.66806
2.65019
2.63235
2.61455
2.59681
2.57914
2.56154
2.54405
2.52666
2.5094
2.49228
2.47531
2.45849
2.44183
2.42533
2.409
2.39284
2.37685
2.36103
2.34537
2.32988
2.31456
2.29941
2.28444
2.26966
2.25509
2.24075
2.22665
2.21284
2.19936
2.18625
2.17358
2.16141
2.14984
2.13896
2.12888
2.11972
2.11162
2.10473
2.09921
2.09521
2.0929
2.09245
2.09399
2.09766
2.10357
2.11178
2.12231
2.13512
2.15008
2.167
2.18559
2.20546
2.22614
2.24707
2.26762
2.28711
2.30489
2.3203
2.33278
2.34186
2.34721
2.34861
2.34602
2.3395
2.32921
2.31543
2.29849
2.27873
2.25654
2.2323
2.20638
2.17912
2.15082
2.12178
2.09223
2.06238
2.03243
2.0025
1.97273
1.94322
1.91404
1.88528
1.857
1.82923
1.80204
1.77543
1.74943
1.72402
1.69918
1.67482
1.65085
1.62712
1.60359
1.57946
1.55804
1.52066
2.72126
2.70326
2.68527
2.66729
2.64932
2.63138
2.61347
2.59561
2.5778
2.56006
2.5424
2.52483
2.50737
2.49003
2.47283
2.45576
2.43884
2.42207
2.40547
2.38903
2.37276
2.35667
2.34074
2.325
2.30943
2.29406
2.27889
2.26392
2.24918
2.23469
2.22047
2.20655
2.19297
2.17977
2.16702
2.15478
2.14313
2.13215
2.12195
2.11263
2.10432
2.09714
2.09124
2.08675
2.08381
2.08258
2.08317
2.0857
2.09025
2.09689
2.10563
2.11642
2.12916
2.14367
2.1597
2.17691
2.19486
2.21305
2.23092
2.24787
2.26327
2.27655
2.28718
2.29472
2.29883
2.29932
2.2961
2.28922
2.2788
2.26508
2.24833
2.22888
2.20706
2.18322
2.15771
2.13084
2.10291
2.07418
2.04489
2.01524
1.9854
1.95552
1.92571
1.89608
1.8667
1.83764
1.80897
1.78072
1.75295
1.72568
1.69893
1.67271
1.647
1.62177
1.59696
1.57248
1.54833
1.52383
1.50219
1.46552
2.721
2.70297
2.68494
2.66692
2.64891
2.63092
2.61295
2.59503
2.57714
2.55932
2.54156
2.52388
2.5063
2.48882
2.47145
2.45421
2.43711
2.42015
2.40334
2.38669
2.37021
2.35389
2.33775
2.32178
2.30601
2.29043
2.27506
2.2599
2.24498
2.23032
2.21594
2.20186
2.18813
2.1748
2.1619
2.14951
2.13769
2.12653
2.1161
2.10652
2.09789
2.09032
2.08395
2.07888
2.07525
2.07319
2.07279
2.07416
2.07738
2.0825
2.08951
2.0984
2.10906
2.12133
2.13499
2.14972
2.16515
2.18083
2.19624
2.21084
2.22406
2.23538
2.24429
2.25039
2.25336
2.25299
2.24919
2.24197
2.23144
2.21778
2.20123
2.18208
2.16063
2.13721
2.11213
2.08567
2.05813
2.02976
2.00077
1.97138
1.94173
1.91198
1.88224
1.8526
1.82315
1.79395
1.76506
1.73652
1.70837
1.68065
1.65337
1.62656
1.60022
1.57433
1.54887
1.52377
1.4991
1.47424
1.45236
1.41611
2.72084
2.70279
2.68474
2.6667
2.64866
2.63064
2.61264
2.59467
2.57674
2.55886
2.54104
2.52328
2.50561
2.48803
2.47055
2.45319
2.43595
2.41884
2.40187
2.38505
2.36839
2.35189
2.33556
2.3194
2.30344
2.28767
2.27211
2.25677
2.24167
2.22683
2.21227
2.19803
2.18413
2.17062
2.15754
2.14495
2.13292
2.12152
2.11083
2.10094
2.09194
2.08395
2.07706
2.07138
2.06704
2.06413
2.06276
2.06301
2.06494
2.0686
2.07399
2.08108
2.08979
2.09998
2.11144
2.12389
2.137
2.15036
2.16351
2.17594
2.18715
2.19665
2.20398
2.20874
2.21065
2.20948
2.20513
2.1976
2.18696
2.17335
2.157
2.13816
2.11708
2.09408
2.06943
2.04341
2.01629
1.9883
1.95966
1.93056
1.90117
1.87162
1.84203
1.81248
1.78307
1.75384
1.72487
1.69619
1.66784
1.63985
1.61225
1.58506
1.5583
1.53195
1.50602
1.48048
1.45541
1.43026
1.40816
1.37213
2.72071
2.70265
2.68458
2.66652
2.64846
2.63042
2.6124
2.5944
2.57643
2.55851
2.54064
2.52282
2.50508
2.48742
2.46985
2.45239
2.43503
2.4178
2.4007
2.38374
2.36692
2.35026
2.33377
2.31745
2.30131
2.28537
2.26963
2.25412
2.23884
2.22382
2.20909
2.19466
2.18058
2.16688
2.1536
2.1408
2.12854
2.11689
2.10591
2.09568
2.0863
2.07786
2.07045
2.06417
2.05912
2.05539
2.05307
2.05223
2.05294
2.05522
2.05908
2.0645
2.07139
2.07964
2.08906
2.09941
2.11037
2.12159
2.13264
2.14308
2.15243
2.16025
2.1661
2.16963
2.17054
2.16862
2.16376
2.15593
2.14519
2.13165
2.1155
2.09695
2.07625
2.05366
2.02945
2.00388
1.97719
1.94961
1.92136
1.8926
1.86351
1.83422
1.80483
1.77545
1.74616
1.71701
1.68807
1.65937
1.63095
1.60285
1.5751
1.54771
1.5207
1.49409
1.46788
1.44205
1.41672
1.39137
1.36912
1.33322
2.72058
2.70251
2.68443
2.66635
2.64828
2.63022
2.61217
2.59415
2.57615
2.55819
2.54028
2.52241
2.50461
2.48688
2.46924
2.45169
2.43423
2.41689
2.39967
2.38258
2.36563
2.34883
2.33219
2.31571
2.29942
2.28331
2.26741
2.25173
2.23628
2.22109
2.20618
2.19158
2.17731
2.16341
2.14994
2.13692
2.12442
2.1125
2.10122
2.09067
2.0809
2.07201
2.06409
2.05721
2.05147
2.04695
2.04372
2.04185
2.04139
2.04238
2.0448
2.04865
2.05385
2.0603
2.06783
2.07622
2.0852
2.09444
2.10356
2.11215
2.11979
2.12605
2.13054
2.13291
2.13289
2.13027
2.12493
2.11683
2.10599
2.09252
2.07656
2.0583
2.03797
2.0158
1.99204
1.96692
1.94069
1.91354
1.88569
1.85732
1.82856
1.79957
1.77045
1.7413
1.7122
1.6832
1.65437
1.62575
1.59738
1.5693
1.54152
1.51407
1.48698
1.46026
1.43392
1.40797
1.38251
1.35707
1.33475
1.29896
2.72046
2.70237
2.68428
2.66619
2.64811
2.63002
2.61196
2.59391
2.57588
2.55789
2.53993
2.52202
2.50417
2.48638
2.46867
2.45103
2.43349
2.41606
2.39873
2.38153
2.36445
2.34752
2.33074
2.31412
2.29768
2.28142
2.26537
2.24952
2.23391
2.21856
2.20347
2.18869
2.17424
2.16016
2.14647
2.13324
2.1205
2.10832
2.09675
2.08586
2.07571
2.06639
2.05797
2.05051
2.04411
2.03883
2.03474
2.03189
2.03033
2.03009
2.03117
2.03355
2.03717
2.04194
2.04771
2.0543
2.06144
2.06885
2.07619
2.08307
2.08912
2.09394
2.09716
2.09846
2.09758
2.09431
2.08852
2.08016
2.06924
2.05583
2.04006
2.02209
2.00212
1.98037
1.95706
1.93241
1.90664
1.87995
1.85253
1.82456
1.79619
1.76754
1.73873
1.70985
1.68099
1.65221
1.62356
1.5951
1.56686
1.53888
1.51118
1.4838
1.45674
1.43004
1.40371
1.37776
1.35231
1.32688
1.30457
1.26891
2.72034
2.70224
2.68414
2.66604
2.64793
2.62983
2.61174
2.59367
2.57562
2.55759
2.5396
2.52165
2.50374
2.4859
2.46812
2.45041
2.43279
2.41527
2.39785
2.38054
2.36335
2.3463
2.32939
2.31264
2.29606
2.27966
2.26346
2.24746
2.2317
2.21618
2.20093
2.18597
2.17134
2.15707
2.14319
2.12974
2.11676
2.10432
2.09246
2.08125
2.07073
2.06099
2.05208
2.04408
2.03704
2.03103
2.02612
2.02234
2.01975
2.01835
2.01817
2.01918
2.02132
2.02453
2.02868
2.03358
2.03903
2.04475
2.05043
2.05574
2.06032
2.0638
2.06585
2.06616
2.06448
2.0606
2.05439
2.04578
2.03478
2.02144
2.00585
1.98817
1.96857
1.94724
1.92438
1.90021
1.87492
1.84871
1.82176
1.79423
1.76627
1.738
1.70954
1.68098
1.65241
1.6239
1.59549
1.56724
1.5392
1.51139
1.48385
1.45661
1.42968
1.4031
1.37688
1.35103
1.32568
1.30036
1.27814
1.24265
2.72022
2.70212
2.684
2.66588
2.64776
2.62965
2.61154
2.59344
2.57536
2.5573
2.53927
2.52128
2.50333
2.48544
2.4676
2.44983
2.43213
2.41452
2.39701
2.37961
2.36232
2.34516
2.32813
2.31126
2.29455
2.27801
2.26167
2.24553
2.22961
2.21393
2.19852
2.1834
2.1686
2.15414
2.14006
2.1264
2.1132
2.10051
2.08837
2.07683
2.06596
2.05581
2.04644
2.03791
2.03027
2.02357
2.01788
2.01322
2.00965
2.00717
2.0058
2.00552
2.00629
2.00805
2.01067
2.01402
2.01789
2.02205
2.02621
2.03007
2.03329
2.03555
2.03652
2.03591
2.03348
2.02903
2.02243
2.01359
2.00251
1.98923
1.97382
1.95642
1.93718
1.91627
1.89388
1.87021
1.84543
1.81973
1.79328
1.76623
1.73871
1.71087
1.68281
1.65462
1.62638
1.59817
1.57005
1.54207
1.51427
1.48669
1.45936
1.43233
1.4056
1.3792
1.35316
1.32749
1.30231
1.27716
1.25511
1.21983
2.72011
2.70199
2.68386
2.66573
2.6476
2.62946
2.61133
2.59321
2.57511
2.55702
2.53896
2.52093
2.50294
2.48499
2.4671
2.44926
2.4315
2.41382
2.39623
2.37873
2.36135
2.34408
2.32695
2.30996
2.29312
2.27646
2.25998
2.2437
2.22765
2.21182
2.19626
2.18098
2.166
2.15137
2.1371
2.12323
2.10981
2.09687
2.08446
2.07263
2.06141
2.05087
2.04106
2.03202
2.0238
2.01645
2.01002
2.00453
2.00003
1.99654
1.99405
1.99257
1.99205
1.99245
1.99367
1.99557
1.99799
2.00071
2.00347
2.006
2.00798
2.00911
2.00908
2.00763
2.0045
1.99951
1.99252
1.98345
1.97228
1.95904
1.9438
1.92667
1.90779
1.88733
1.86543
1.84229
1.81806
1.79292
1.76701
1.74049
1.71348
1.68612
1.6585
1.63072
1.60287
1.57502
1.54722
1.51955
1.49203
1.46472
1.43766
1.41086
1.38437
1.35821