/*--------------------------------*- C++ -*----------------------------------*\
  =========                 |
  \\      /  F ield         | OpenFOAM: The Open Source CFD Toolbox
   \\    /   O peration     | Website:  https://openfoam.org
    \\  /    A nd           | Version:  10
     \\/     M anipulation  |
\*---------------------------------------------------------------------------*/
FoamFile
{
    format      ascii;
    class       volScalarField;
    location    "0.105";
    object      k;
}
// * * * * * * * * * * * * * * * * * * * * * * * * * * * * * * * * * * * * * //

dimensions      [0 2 -2 0 0 0 0];

internalField   nonuniform List<scalar> 
6820
(
0.196709
0.190616
0.184994
0.179725
0.174798
0.17025
0.166115
0.162408
0.159125
0.156249
0.153751
0.151601
0.149766
0.148215
0.146917
0.145844
0.144972
0.144278
0.143742
0.143344
0.143069
0.142901
0.142828
0.142838
0.142921
0.143068
0.143267
0.143533
0.143749
0.144439
0.143109
0.151415
0.11471
0.201954
0.200831
0.197543
0.193922
0.19084
0.188583
0.187153
0.186426
0.186255
0.186506
0.187075
0.18788
0.188861
0.189973
0.191183
0.192464
0.193797
0.195164
0.196554
0.197955
0.199359
0.20076
0.202153
0.203533
0.2049
0.206252
0.207595
0.208934
0.210285
0.211738
0.213109
0.215786
0.216277
0.200488
0.200475
0.199118
0.19707
0.194841
0.192691
0.190724
0.188985
0.187487
0.18623
0.185203
0.18439
0.183772
0.18333
0.183045
0.182896
0.182869
0.182948
0.183118
0.183368
0.183687
0.184065
0.184495
0.184969
0.18548
0.186026
0.1866
0.187205
0.187831
0.18851
0.189169
0.189965
0.19051
0.199661
0.199121
0.198219
0.196983
0.195545
0.194012
0.192458
0.190931
0.189463
0.188074
0.186776
0.185577
0.184479
0.183481
0.182582
0.181778
0.181062
0.180431
0.179877
0.179397
0.178984
0.178632
0.178338
0.178095
0.177902
0.177752
0.177645
0.177577
0.177547
0.177559
0.177603
0.177698
0.177821
0.199429
0.198466
0.197531
0.196513
0.195399
0.194214
0.192986
0.19174
0.190495
0.189268
0.188069
0.186909
0.185794
0.184728
0.183714
0.182754
0.181847
0.180993
0.180192
0.179441
0.178739
0.178084
0.177474
0.176906
0.176378
0.175889
0.175437
0.17502
0.174636
0.174287
0.173969
0.173683
0.173421
0.199398
0.198267
0.197202
0.196166
0.195133
0.194088
0.193029
0.191959
0.190884
0.189813
0.188751
0.187705
0.186679
0.185678
0.184705
0.183762
0.182851
0.181973
0.181128
0.180316
0.179539
0.178794
0.178081
0.177401
0.176751
0.176131
0.17554
0.174977
0.174442
0.173934
0.173452
0.172995
0.172562
0.199395
0.19822
0.197098
0.196021
0.194978
0.193957
0.192953
0.191959
0.190974
0.189998
0.189033
0.18808
0.187141
0.186219
0.185316
0.184432
0.183569
0.182728
0.18191
0.181116
0.180345
0.179599
0.178876
0.178177
0.177501
0.176848
0.176218
0.175611
0.175025
0.174461
0.173919
0.173397
0.172894
0.199395
0.198211
0.197069
0.195969
0.194908
0.193881
0.192884
0.191912
0.190961
0.19003
0.189116
0.188218
0.187338
0.186473
0.185626
0.184796
0.183984
0.183189
0.182413
0.181656
0.180917
0.180198
0.179497
0.178815
0.178152
0.177508
0.176882
0.176274
0.175685
0.175113
0.174559
0.174022
0.173503
0.199395
0.198209
0.197063
0.195955
0.194884
0.19385
0.192848
0.191877
0.190935
0.190017
0.189124
0.188252
0.187401
0.186569
0.185757
0.184963
0.184187
0.183428
0.182687
0.181964
0.181257
0.180567
0.179895
0.179238
0.178599
0.177975
0.177368
0.176776
0.176201
0.175641
0.175096
0.174566
0.174052
0.199395
0.198209
0.197061
0.195951
0.194877
0.193838
0.192833
0.19186
0.190917
0.190002
0.189114
0.188251
0.187412
0.186595
0.1858
0.185025
0.184269
0.183533
0.182815
0.182114
0.181431
0.180764
0.180114
0.17948
0.178862
0.178259
0.177671
0.177098
0.176539
0.175995
0.175466
0.17495
0.174448
0.199395
0.198209
0.197061
0.19595
0.194875
0.193834
0.192827
0.191852
0.190908
0.189992
0.189105
0.188244
0.187408
0.186596
0.185808
0.185041
0.184295
0.18357
0.182864
0.182176
0.181507
0.180854
0.180219
0.1796
0.178996
0.178409
0.177836
0.177277
0.176733
0.176203
0.175687
0.175184
0.174695
0.199395
0.198209
0.19706
0.195949
0.194874
0.193833
0.192825
0.191849
0.190903
0.189987
0.189099
0.188238
0.187403
0.186592
0.185806
0.185042
0.1843
0.183579
0.182878
0.182196
0.181534
0.180889
0.180261
0.179651
0.179056
0.178477
0.177914
0.177365
0.176831
0.17631
0.175804
0.175311
0.17483
0.199395
0.198209
0.19706
0.195949
0.194873
0.193832
0.192824
0.191847
0.190901
0.189985
0.189096
0.188235
0.187399
0.186589
0.185802
0.185039
0.184298
0.183578
0.182879
0.1822
0.18154
0.180898
0.180274
0.179668
0.179078
0.178504
0.177945
0.177402
0.176873
0.176358
0.175857
0.17537
0.174895
0.199395
0.198209
0.19706
0.195949
0.194873
0.193831
0.192823
0.191846
0.1909
0.189983
0.189094
0.188232
0.187396
0.186586
0.185799
0.185036
0.184295
0.183576
0.182877
0.182198
0.181539
0.180899
0.180276
0.179671
0.179083
0.178511
0.177955
0.177414
0.176887
0.176375
0.175877
0.175393
0.174922
0.199395
0.198208
0.19706
0.195948
0.194872
0.193831
0.192822
0.191845
0.190899
0.189982
0.189093
0.188231
0.187395
0.186584
0.185797
0.185033
0.184292
0.183573
0.182874
0.182196
0.181537
0.180896
0.180274
0.17967
0.179082
0.178511
0.177955
0.177415
0.17689
0.176379
0.175882
0.175399
0.174929
0.199395
0.198208
0.19706
0.195948
0.194872
0.19383
0.192822
0.191845
0.190898
0.189981
0.189091
0.188229
0.187393
0.186582
0.185795
0.185031
0.18429
0.18357
0.182872
0.182193
0.181534
0.180894
0.180271
0.179667
0.179079
0.178508
0.177953
0.177413
0.176888
0.176378
0.175881
0.175399
0.174929
0.199395
0.198208
0.19706
0.195948
0.194872
0.19383
0.192821
0.191844
0.190897
0.18998
0.18909
0.188228
0.187392
0.18658
0.185793
0.185029
0.184288
0.183568
0.182869
0.182191
0.181531
0.180891
0.180269
0.179664
0.179076
0.178505
0.17795
0.17741
0.176885
0.176374
0.175878
0.175395
0.174926
0.199395
0.198208
0.19706
0.195948
0.194872
0.19383
0.192821
0.191843
0.190897
0.189979
0.189089
0.188227
0.18739
0.186579
0.185792
0.185028
0.184286
0.183566
0.182867
0.182188
0.181529
0.180888
0.180266
0.179661
0.179073
0.178502
0.177947
0.177406
0.176881
0.176371
0.175874
0.175391
0.174922
0.199395
0.198208
0.197059
0.195948
0.194871
0.193829
0.19282
0.191843
0.190896
0.189978
0.189088
0.188226
0.187389
0.186578
0.18579
0.185026
0.184284
0.183564
0.182865
0.182186
0.181527
0.180886
0.180263
0.179659
0.179071
0.178499
0.177943
0.177403
0.176878
0.176367
0.17587
0.175387
0.174917
0.199395
0.198208
0.197059
0.195948
0.194871
0.193829
0.19282
0.191843
0.190895
0.189977
0.189088
0.188225
0.187388
0.186577
0.185789
0.185025
0.184283
0.183563
0.182863
0.182184
0.181525
0.180884
0.180261
0.179656
0.179068
0.178496
0.17794
0.1774
0.176875
0.176363
0.175866
0.175383
0.174913
0.199395
0.198208
0.197059
0.195947
0.194871
0.193829
0.19282
0.191842
0.190895
0.189977
0.189087
0.188224
0.187387
0.186576
0.185788
0.185023
0.184282
0.183561
0.182862
0.182183
0.181523
0.180882
0.180259
0.179654
0.179065
0.178493
0.177937
0.177397
0.176871
0.17636
0.175863
0.175379
0.174908
0.199395
0.198208
0.197059
0.195947
0.194871
0.193829
0.19282
0.191842
0.190895
0.189976
0.189086
0.188223
0.187387
0.186575
0.185787
0.185022
0.18428
0.18356
0.18286
0.182181
0.181521
0.18088
0.180257
0.179651
0.179063
0.178491
0.177935
0.177394
0.176868
0.176357
0.175859
0.175375
0.174904
0.199395
0.198208
0.197059
0.195947
0.194871
0.193829
0.192819
0.191842
0.190894
0.189976
0.189086
0.188223
0.187386
0.186574
0.185786
0.185021
0.184279
0.183559
0.182859
0.182179
0.181519
0.180878
0.180255
0.179649
0.179061
0.178488
0.177932
0.177391
0.176865
0.176353
0.175855
0.175371
0.1749
0.199395
0.198208
0.197059
0.195947
0.194871
0.193829
0.192819
0.191841
0.190894
0.189976
0.189085
0.188222
0.187385
0.186573
0.185785
0.18502
0.184278
0.183557
0.182858
0.182178
0.181518
0.180876
0.180253
0.179647
0.179058
0.178486
0.177929
0.177388
0.176862
0.17635
0.175852
0.175367
0.174896
0.199395
0.198208
0.197059
0.195947
0.194871
0.193829
0.192819
0.191841
0.190894
0.189975
0.189085
0.188222
0.187385
0.186572
0.185784
0.18502
0.184277
0.183556
0.182856
0.182177
0.181516
0.180875
0.180251
0.179645
0.179056
0.178484
0.177927
0.177386
0.176859
0.176347
0.175849
0.175364
0.174892
0.199395
0.198208
0.197059
0.195947
0.194871
0.193828
0.192819
0.191841
0.190894
0.189975
0.189085
0.188222
0.187384
0.186572
0.185784
0.185019
0.184276
0.183555
0.182855
0.182176
0.181515
0.180873
0.18025
0.179644
0.179054
0.178482
0.177925
0.177383
0.176856
0.176344
0.175845
0.17536
0.174888
0.199395
0.198208
0.197059
0.195947
0.194871
0.193828
0.192819
0.191841
0.190893
0.189975
0.189085
0.188221
0.187384
0.186571
0.185783
0.185018
0.184276
0.183555
0.182854
0.182174
0.181514
0.180872
0.180248
0.179642
0.179053
0.17848
0.177922
0.177381
0.176854
0.176341
0.175842
0.175357
0.174885
0.199395
0.198208
0.197059
0.195947
0.194871
0.193828
0.192819
0.191841
0.190893
0.189975
0.189084
0.188221
0.187384
0.186571
0.185783
0.185018
0.184275
0.183554
0.182854
0.182174
0.181513
0.180871
0.180247
0.179641
0.179051
0.178478
0.177921
0.177379
0.176851
0.176339
0.17584
0.175354
0.174882
0.199395
0.198208
0.197059
0.195947
0.194871
0.193828
0.192819
0.191841
0.190893
0.189975
0.189084
0.188221
0.187383
0.186571
0.185782
0.185017
0.184274
0.183553
0.182853
0.182173
0.181512
0.18087
0.180246
0.179639
0.17905
0.178476
0.177919
0.177377
0.176849
0.176336
0.175837
0.175351
0.174879
0.199395
0.198208
0.197059
0.195947
0.194871
0.193828
0.192819
0.191841
0.190893
0.189975
0.189085
0.188221
0.187384
0.186571
0.185783
0.185018
0.184275
0.183554
0.182853
0.182173
0.181512
0.18087
0.180245
0.179639
0.179049
0.178475
0.177918
0.177375
0.176848
0.176335
0.175835
0.175349
0.174876
0.199395
0.198208
0.197059
0.195947
0.194871
0.193828
0.192819
0.191841
0.190893
0.189975
0.189084
0.188221
0.187383
0.186571
0.185782
0.185017
0.184274
0.183553
0.182853
0.182172
0.181511
0.180869
0.180245
0.179638
0.179048
0.178475
0.177917
0.177374
0.176847
0.176333
0.175834
0.175348
0.174874
0.199395
0.198208
0.197059
0.195948
0.194871
0.193829
0.19282
0.191843
0.190895
0.189977
0.189087
0.188223
0.187386
0.186573
0.185785
0.18502
0.184277
0.183556
0.182855
0.182175
0.181513
0.180871
0.180247
0.17964
0.17905
0.178476
0.177918
0.177375
0.176847
0.176333
0.175834
0.175347
0.174873
0.199395
0.198209
0.19706
0.195949
0.194872
0.19383
0.192821
0.191843
0.190896
0.189977
0.189087
0.188224
0.187387
0.186574
0.185786
0.185021
0.184278
0.183557
0.182857
0.182176
0.181515
0.180873
0.180248
0.179641
0.179051
0.178477
0.177918
0.177375
0.176846
0.176332
0.175831
0.175344
0.17487
0.199395
0.198208
0.19706
0.19595
0.194875
0.193835
0.192827
0.191851
0.190904
0.189987
0.189097
0.188234
0.187397
0.186584
0.185796
0.18503
0.184287
0.183565
0.182864
0.182183
0.181521
0.180877
0.180251
0.179643
0.179051
0.178475
0.177914
0.177369
0.176838
0.176322
0.175819
0.175329
0.174852
0.199396
0.198212
0.197066
0.195957
0.194883
0.193842
0.192834
0.191857
0.190911
0.189993
0.189104
0.188241
0.187403
0.18659
0.185801
0.185034
0.184289
0.183565
0.182861
0.182177
0.181511
0.180863
0.180233
0.179619
0.179022
0.178441
0.177874
0.177322
0.176785
0.176261
0.175751
0.175253
0.174768
0.199396
0.198213
0.197071
0.195969
0.194902
0.193869
0.192866
0.191892
0.190947
0.190029
0.189137
0.188269
0.187426
0.186606
0.185808
0.185031
0.184275
0.183539
0.182822
0.182124
0.181444
0.180781
0.180135
0.179505
0.178891
0.178292
0.177708
0.177138
0.176582
0.17604
0.17551
0.174994
0.17449
0.199402
0.198241
0.197115
0.196019
0.194953
0.193916
0.192909
0.191928
0.190972
0.19004
0.189131
0.188244
0.187379
0.186535
0.185711
0.184906
0.184121
0.183355
0.182607
0.181876
0.181163
0.180467
0.179787
0.179124
0.178475
0.177842
0.177223
0.176619
0.176028
0.175452
0.174888
0.174337
0.173799
0.199421
0.198284
0.197214
0.196182
0.195158
0.194135
0.193118
0.192109
0.191115
0.19014
0.189185
0.188253
0.187344
0.186459
0.185596
0.184755
0.183937
0.183139
0.182361
0.181602
0.180863
0.180141
0.179436
0.178749
0.178077
0.177421
0.176781
0.176155
0.175544
0.174946
0.174362
0.173792
0.173234
0.199655
0.198885
0.198077
0.197303
0.196604
0.195977
0.195406
0.194882
0.194399
0.193954
0.193546
0.193172
0.192833
0.192527
0.192253
0.19201
0.191796
0.19161
0.19145
0.191315
0.191203
0.191113
0.191043
0.190993
0.190961
0.190945
0.190945
0.19096
0.190989
0.191031
0.191085
0.191151
0.191227
0.205419
0.216602
0.227661
0.238503
0.249093
0.259415
0.269459
0.279212
0.288667
0.297817
0.306658
0.315188
0.323406
0.331313
0.338911
0.346204
0.353197
0.359896
0.366307
0.372436
0.378293
0.383884
0.389219
0.394305
0.399151
0.403767
0.40816
0.412339
0.416313
0.420091
0.42368
0.427087
0.430326
0.317962
0.624204
0.943843
1.24345
1.49955
1.69817
1.83722
1.92417
1.97115
1.99108
1.99469
1.98949
1.98007
1.96894
1.95745
1.94644
1.93662
1.9287
1.92334
1.9211
1.92233
1.92719
1.93559
1.94732
1.96197
1.97904
1.99789
2.01781
2.03798
2.05755
2.0756
2.0912
2.10335
2.11107
2.11331
2.10902
2.0971
2.07643
2.04588
2.00428
1.95053
1.88356
1.80244
1.70644
1.59516
1.46871
1.32794
1.17474
1.01249
0.846532
0.684569
0.536452
0.412614
0.320557
0.261058
0.227943
0.212344
0.206902
0.206902
0.20962
0.213512
0.217702
0.221705
0.225267
0.228279
0.23072
0.232625
0.234058
0.2351
0.235837
0.236353
0.236725
0.237023
0.237302
0.237609
0.237972
0.238409
0.238922
0.239503
0.240135
0.240795
0.241461
0.242106
0.242711
0.243258
0.243734
0.244129
0.244435
0.244643
0.244744
0.244724
0.244562
0.24423
0.243691
0.242901
0.241802
0.240346
0.238376
0.236299
0.231303
0.227686
0.254354
0.296713
0.35644
0.435028
0.532346
0.645752
0.770183
0.898766
1.02411
1.13953
1.23994
1.32265
1.38748
1.43622
1.47187
1.49773
1.5168
1.53149
1.54354
1.55421
1.56437
1.57465
1.5855
1.59718
1.6098
1.62324
1.63726
1.65141
1.66512
1.67769
1.68834
1.69619
1.7003
1.69969
1.69331
1.68009
1.65895
1.62879
1.58857
1.53728
1.47407
1.39829
1.30961
1.20818
1.09485
0.971408
0.840936
0.708119
0.57939
0.462547
0.365318
0.292816
0.245183
0.217821
0.204331
0.199293
0.199086
0.2015
0.205199
0.209366
0.213502
0.217318
0.220657
0.223455
0.225708
0.227453
0.228749
0.229668
0.230287
0.230684
0.230928
0.231086
0.231213
0.231354
0.231542
0.231799
0.232135
0.232549
0.23303
0.233561
0.234122
0.234692
0.235249
0.235777
0.23626
0.236685
0.237043
0.237322
0.237511
0.237593
0.237546
0.237342
0.236945
0.236309
0.23538
0.234109
0.232347
0.230473
0.225854
0.191172
0.193192
0.197559
0.204928
0.215829
0.230971
0.251401
0.278466
0.313518
0.357518
0.410664
0.472339
0.540796
0.613472
0.687055
0.758156
0.823936
0.882522
0.933127
0.975921
1.01174
1.04177
1.06727
1.08938
1.10904
1.12698
1.14365
1.15931
1.17401
1.18764
1.19987
1.21027
1.21823
1.22303
1.22385
1.21978
1.20988
1.19318
1.16872
1.13563
1.09315
1.04074
0.978166
0.905658
0.824064
0.735055
0.641326
0.546728
0.456177
0.375128
0.308421
0.258726
0.225557
0.205854
0.195714
0.1918
0.19174
0.193962
0.197432
0.201461
0.205594
0.209537
0.213105
0.216201
0.218783
0.220855
0.222449
0.22362
0.22443
0.224948
0.225242
0.225378
0.225416
0.225409
0.225401
0.225429
0.225516
0.225679
0.225922
0.226242
0.226627
0.227061
0.227527
0.228006
0.22848
0.228935
0.229356
0.229731
0.230048
0.230291
0.230445
0.230485
0.230384
0.230105
0.229604
0.228828
0.22773
0.226165
0.224489
0.22025
0.177941
0.178139
0.178536
0.179292
0.18057
0.182529
0.185347
0.189252
0.194555
0.201663
0.211061
0.223276
0.238793
0.257941
0.281
0.307959
0.338439
0.371699
0.40672
0.442353
0.477481
0.511159
0.542706
0.571731
0.598111
0.621926
0.643382
0.662729
0.680194
0.695928
0.709962
0.722193
0.732366
0.740083
0.744811
0.745911
0.742675
0.734366
0.720276
0.699793
0.672478
0.638162
0.597051
0.549847
0.49786
0.443078
0.388144
0.336146
0.290154
0.252536
0.224319
0.205025
0.193138
0.186839
0.184511
0.184899
0.187064
0.190311
0.194128
0.19814
0.202077
0.205754
0.20905
0.211896
0.214266
0.216163
0.217618
0.218674
0.219387
0.219816
0.220024
0.220069
0.220005
0.219883
0.219745
0.219628
0.219559
0.219557
0.219632
0.219786
0.220014
0.220305
0.220645
0.22102
0.221411
0.221806
0.22219
0.222548
0.222868
0.223134
0.223328
0.223426
0.2234
0.223214
0.222826
0.222184
0.221242
0.219863
0.218376
0.214513
0.173121
0.172791
0.172507
0.172306
0.172215
0.172264
0.172487
0.17292
0.173608
0.174614
0.176021
0.177937
0.180501
0.183796
0.187899
0.192921
0.198974
0.206141
0.214466
0.223933
0.234456
0.245884
0.258009
0.270586
0.283361
0.296093
0.308572
0.320631
0.33214
0.342999
0.353116
0.362384
0.370658
0.377735
0.383341
0.38713
0.388699
0.387619
0.383474
0.375924
0.364774
0.350041
0.332029
0.311373
0.289046
0.266299
0.244517
0.224989
0.208672
0.19603
0.187039
0.181335
0.178394
0.177663
0.17863
0.180838
0.183891
0.187456
0.191257
0.195075
0.198738
0.202123
0.205142
0.207745
0.209911
0.211643
0.212966
0.213916
0.214541
0.214894
0.215028
0.214995
0.214845
0.214625
0.214375
0.214131
0.213921
0.213766
0.213681
0.213672
0.213739
0.213877
0.214076
0.214324
0.214609
0.214916
0.215231
0.215541
0.215833
0.216089
0.216292
0.216417
0.216438
0.216318
0.216019
0.215488
0.214684
0.213476
0.212165
0.208669
0.172077
0.171535
0.171008
0.170501
0.170022
0.169582
0.169193
0.168867
0.168615
0.16845
0.168385
0.16844
0.168645
0.169011
0.169552
0.170287
0.171234
0.172413
0.173842
0.175533
0.177495
0.179725
0.182213
0.184939
0.187871
0.190972
0.194197
0.197502
0.200839
0.204162
0.207425
0.210578
0.213563
0.216307
0.218718
0.22068
0.22205
0.222669
0.222376
0.221027
0.218528
0.214866
0.210136
0.204553
0.198441
0.192203
0.186265
0.181013
0.176744
0.173642
0.17178
0.171136
0.171614
0.17307
0.175327
0.178197
0.181488
0.185018
0.188626
0.19217
0.195534
0.198625
0.201377
0.203749
0.205724
0.207301
0.2085
0.209353
0.209898
0.210182
0.210251
0.210153
0.209931
0.209629
0.209284
0.208929
0.208594
0.208301
0.208067
0.207902
0.20781
0.207791
0.20784
0.207948
0.208106
0.208301
0.208522
0.208756
0.208989
0.209205
0.209387
0.20951
0.209548
0.209467
0.20923
0.208787
0.208099
0.207043
0.205893
0.20275
0.17233
0.171697
0.171069
0.170449
0.169839
0.169243
0.168665
0.168108
0.167576
0.167075
0.166609
0.166184
0.165806
0.16548
0.165211
0.165001
0.164854
0.164774
0.164762
0.164821
0.164953
0.16516
0.165439
0.165788
0.166203
0.166677
0.167203
0.167771
0.168371
0.168993
0.169626
0.170258
0.170876
0.171464
0.172002
0.172467
0.172828
0.173049
0.173092
0.17292
0.172502
0.171828
0.17091
0.169796
0.168565
0.16733
0.16622
0.165371
0.164909
0.164931
0.165505
0.166655
0.168366
0.170589
0.173246
0.176237
0.179455
0.182788
0.186127
0.189373
0.192437
0.195249
0.197752
0.19991
0.201707
0.203141
0.204226
0.204988
0.20546
0.205682
0.205695
0.20554
0.205257
0.204886
0.20446
0.204012
0.203568
0.203153
0.202784
0.202473
0.20223
0.202056
0.201951
0.201911
0.201928
0.201995
0.2021
0.202234
0.202382
0.202531
0.202662
0.202754
0.20278
0.202711
0.202509
0.202129
0.201532
0.200606
0.199599
0.19679
0.172916
0.172254
0.171593
0.170933
0.170277
0.169625
0.16898
0.168344
0.167719
0.167107
0.166512
0.165934
0.165376
0.16484
0.164329
0.163844
0.163386
0.162956
0.162555
0.162183
0.16184
0.161527
0.161244
0.16099
0.160765
0.160566
0.160392
0.160242
0.160112
0.160001
0.159906
0.159825
0.159755
0.159694
0.15964
0.159589
0.159538
0.159483
0.15942
0.159346
0.15926
0.159166
0.159076
0.15901
0.158999
0.159087
0.159327
0.159773
0.160483
0.161502
0.162865
0.164584
0.166652
0.16904
0.171702
0.174574
0.177585
0.180654
0.183704
0.186655
0.189437
0.191989
0.194264
0.196227
0.197861
0.199163
0.200143
0.200821
0.201227
0.201393
0.201355
0.201152
0.200818
0.200388
0.199895
0.199368
0.198831
0.19831
0.19782
0.197378
0.196994
0.196672
0.196417
0.196226
0.196096
0.196022
0.195997
0.19601
0.196052
0.196109
0.196164
0.196198
0.196186
0.1961
0.195906
0.195562
0.195033
0.194213
0.193327
0.190826
0.173469
0.17281
0.172148
0.171486
0.170823
0.170161
0.169501
0.168844
0.168193
0.167548
0.166912
0.166285
0.165669
0.165066
0.164476
0.1639
0.16334
0.162795
0.162266
0.161754
0.161258
0.16078
0.160319
0.159874
0.159447
0.159037
0.158644
0.158268
0.157908
0.157566
0.15724
0.156931
0.156641
0.15637
0.156121
0.155895
0.155697
0.15553
0.1554
0.155312
0.155276
0.155302
0.155404
0.155598
0.155907
0.156356
0.156973
0.157788
0.158827
0.160114
0.161663
0.163478
0.165549
0.167855
0.170359
0.173017
0.175773
0.178567
0.181333
0.184007
0.18653
0.188846
0.190912
0.192698
0.194184
0.195366
0.19625
0.196852
0.197196
0.197312
0.19723
0.196984
0.196607
0.196128
0.195579
0.194985
0.19437
0.193757
0.193164
0.192606
0.192093
0.191635
0.191235
0.190897
0.19062
0.190401
0.190235
0.190115
0.190034
0.189979
0.189936
0.189888
0.189813
0.189685
0.189473
0.189138
0.18865
0.187911
0.187124
0.184901
0.173878
0.173233
0.172584
0.171933
0.17128
0.170626
0.169971
0.169318
0.168667
0.16802
0.167378
0.166742
0.166114
0.165493
0.164882
0.164281
0.163689
0.163108
0.162538
0.16198
0.161432
0.160897
0.160374
0.159863
0.159364
0.158879
0.158407
0.15795
0.157507
0.15708
0.15667
0.156278
0.155907
0.155559
0.155238
0.154947
0.154692
0.154479
0.154316
0.154211
0.154175
0.154221
0.154361
0.154613
0.154992
0.155518
0.156211
0.157088
0.158166
0.159458
0.160969
0.1627
0.16464
0.166771
0.169064
0.171481
0.17398
0.176507
0.179009
0.18143
0.183716
0.185819
0.187698
0.189322
0.190674
0.191747
0.192543
0.193075
0.193364
0.193434
0.193314
0.193031
0.192616
0.192097
0.191501
0.190852
0.190172
0.189482
0.1888
0.18814
0.187514
0.186932
0.186401
0.185924
0.185503
0.185139
0.184829
0.18457
0.184354
0.184173
0.184016
0.183866
0.183706
0.183512
0.183257
0.182907
0.182434
0.18175
0.181037
0.179057
0.174139
0.173509
0.172876
0.17224
0.171601
0.17096
0.170319
0.169677
0.169036
0.168398
0.167763
0.167132
0.166507
0.165889
0.165277
0.164673
0.164076
0.163488
0.162909
0.162338
0.161776
0.161223
0.16068
0.160147
0.159624
0.159112
0.158612
0.158124
0.15765
0.15719
0.156747
0.156323
0.155919
0.155539
0.155187
0.154868
0.154587
0.154351
0.154168
0.154047
0.153997
0.154032
0.154164
0.154406
0.154774
0.155283
0.155947
0.156781
0.157796
0.158999
0.160395
0.161982
0.163749
0.165682
0.167755
0.169938
0.172193
0.174475
0.176736
0.178928
0.181001
0.182911
0.18462
0.186099
0.187329
0.188302
0.189018
0.189487
0.189726
0.189755
0.1896
0.189286
0.18884
0.188287
0.187651
0.186956
0.186222
0.185468
0.184711
0.183965
0.183241
0.182551
0.1819
0.181296
0.180741
0.180238
0.179787
0.179386
0.179032
0.178717
0.178433
0.178168
0.177905
0.177626
0.177307
0.176917
0.176434
0.175779
0.175115
0.173341
0.174285
0.173668
0.173047
0.172424
0.171798
0.17117
0.170541
0.169912
0.169283
0.168655
0.16803
0.167409
0.166792
0.16618
0.165574
0.164974
0.164381
0.163795
0.163216
0.162645
0.162081
0.161526
0.160978
0.16044
0.15991
0.15939
0.15888
0.158382
0.157896
0.157424
0.156968
0.15653
0.156112
0.155717
0.155351
0.155016
0.15472
0.154468
0.154268
0.154129
0.15406
0.154072
0.154176
0.154386
0.154714
0.155172
0.155773
0.156529
0.157448
0.158536
0.159796
0.161226
0.162817
0.164556
0.166422
0.168387
0.170419
0.172479
0.174523
0.176508
0.178388
0.180124
0.181679
0.183026
0.184145
0.185026
0.185669
0.186081
0.186274
0.186267
0.186081
0.18574
0.185267
0.184686
0.184019
0.183286
0.182508
0.181702
0.180882
0.180063
0.179257
0.178472
0.177718
0.177
0.176324
0.175692
0.175107
0.174569
0.174077
0.173626
0.17321
0.172819
0.172442
0.172063
0.171661
0.171212
0.170695
0.170045
0.169406
0.167797
0.174357
0.173748
0.173136
0.172521
0.171905
0.171287
0.170667
0.170047
0.169428
0.168809
0.168193
0.167579
0.166969
0.166364
0.165763
0.165168
0.16458
0.163997
0.163421
0.162852
0.16229
0.161736
0.161188
0.160649
0.160118
0.159596
0.159084
0.158582
0.158092
0.157615
0.157153
0.156707
0.156282
0.155879
0.155503
0.155159
0.15485
0.154585
0.154369
0.154211
0.154119
0.154104
0.154175
0.154344
0.154623
0.155021
0.15555
0.156219
0.157036
0.158007
0.159133
0.160412
0.161837
0.163397
0.165073
0.166841
0.168671
0.17053
0.172378
0.174176
0.175883
0.17746
0.178875
0.180101
0.181118
0.181916
0.182491
0.18285
0.183002
0.182962
0.18275
0.182385
0.18189
0.181286
0.180593
0.17983
0.179016
0.178167
0.177296
0.176417
0.175542
0.174678
0.173835
0.173018
0.172235
0.171487
0.17078
0.170114
0.16949
0.168906
0.168358
0.167839
0.167341
0.166851
0.166354
0.165829
0.16526
0.164591
0.163954
0.162471
0.174387
0.173782
0.173175
0.172566
0.171955
0.171343
0.170729
0.170116
0.169502
0.168889
0.168278
0.16767
0.167064
0.166463
0.165866
0.165274
0.164688
0.164107
0.163533
0.162965
0.162404
0.161849
0.161302
0.160762
0.16023
0.159707
0.159193
0.158689
0.158196
0.157716
0.15725
0.156801
0.15637
0.155961
0.155578
0.155224
0.154905
0.154626
0.154395
0.154218
0.154103
0.154059
0.154095
0.154222
0.15445
0.154787
0.155245
0.15583
0.15655
0.157409
0.15841
0.15955
0.160823
0.16222
0.163723
0.165313
0.166962
0.168639
0.170311
0.171939
0.173487
0.17492
0.176207
0.177321
0.178244
0.178965
0.179478
0.179788
0.179902
0.179832
0.179597
0.179212
0.178699
0.178076
0.177363
0.176576
0.175733
0.174849
0.173937
0.17301
0.172077
0.171148
0.17023
0.169331
0.168455
0.167607
0.16679
0.166009
0.165264
0.164555
0.16388
0.163236
0.162616
0.162012
0.161411
0.160798
0.160162
0.159454
0.1588
0.157402
0.174397
0.173794
0.173189
0.172582
0.171974
0.171365
0.170754
0.170144
0.169533
0.168923
0.168315
0.167709
0.167105
0.166505
0.165909
0.165318
0.164732
0.164151
0.163576
0.163006
0.162444
0.161888
0.161338
0.160797
0.160263
0.159737
0.15922
0.158713
0.158217
0.157733
0.157263
0.156809
0.156373
0.155958
0.155567
0.155205
0.154875
0.154584
0.154337
0.15414
0.154002
0.15393
0.153933
0.154019
0.154198
0.154478
0.154867
0.155373
0.156003
0.15676
0.157645
0.158659
0.159794
0.161043
0.16239
0.163818
0.165303
0.166816
0.168326
0.1698
0.171203
0.172504
0.173672
0.174683
0.175519
0.176168
0.176623
0.176888
0.176966
0.17687
0.176614
0.176213
0.175684
0.175047
0.174317
0.173511
0.172646
0.171735
0.17079
0.169824
0.168845
0.167863
0.166885
0.165916
0.164962
0.164029
0.163119
0.162237
0.161384
0.160562
0.159771
0.159009
0.158271
0.157553
0.156846
0.156139
0.155426
0.154665
0.153976
0.152626
0.174397
0.173795
0.17319
0.172585
0.171978
0.171369
0.17076
0.170151
0.169541
0.168932
0.168324
0.167718
0.167115
0.166514
0.165917
0.165324
0.164736
0.164152
0.163574
0.163002
0.162436
0.161876
0.161323
0.160777
0.160239
0.159709
0.159188
0.158677
0.158176
0.157688
0.157212
0.156753
0.15631
0.155888
0.15549
0.155118
0.154777
0.154473
0.15421
0.153995
0.153835
0.153736
0.153706
0.153753
0.153886
0.154111
0.154437
0.154871
0.155417
0.15608
0.15686
0.157758
0.158768
0.159882
0.161088
0.162368
0.163703
0.165065
0.166428
0.16776
0.169031
0.170209
0.171267
0.172183
0.172938
0.173519
0.17392
0.174142
0.174188
0.174067
0.173792
0.173376
0.172836
0.172186
0.171444
0.170625
0.169742
0.16881
0.16784
0.166843
0.165829
0.164804
0.163777
0.162752
0.161735
0.160731
0.159743
0.158776
0.157831
0.15691
0.156016
0.155146
0.154301
0.153475
0.152665
0.151864
0.151067
0.150244
0.149508
0.148173
0.174393
0.173791
0.173187
0.172582
0.171974
0.171366
0.170757
0.170147
0.169538
0.168928
0.16832
0.167713
0.167108
0.166505
0.165906
0.16531
0.164718
0.164131
0.163549
0.162972
0.162401
0.161836
0.161278
0.160726
0.160183
0.159647
0.15912
0.158603
0.158096
0.157602
0.15712
0.156653
0.156204
0.155774
0.155367
0.154985
0.154633
0.154316
0.154038
0.153804
0.153622
0.153496
0.153435
0.153446
0.153535
0.15371
0.153977
0.154343
0.154812
0.155388
0.156072
0.156864
0.157759
0.158749
0.159825
0.160971
0.162168
0.163392
0.16462
0.165821
0.166968
0.168033
0.16899
0.169816
0.170494
0.171012
0.171362
0.171543
0.171559
0.171415
0.171123
0.170694
0.170144
0.169485
0.168734
0.167904
0.167009
0.166062
0.165073
0.164053
0.163011
0.161953
0.160888
0.159819
0.158752
0.157691
0.15664
0.155602
0.154581
0.153577
0.152594
0.151632
0.15069
0.149768
0.148862
0.14797
0.147091
0.1462
0.145409
0.144063
0.174389
0.173787
0.173182
0.172576
0.171969
0.17136
0.17075
0.17014
0.169529
0.168919
0.168309
0.1677
0.167093
0.166488
0.165885
0.165286
0.16469
0.164098
0.163511
0.162929
0.162353
0.161782
0.161217
0.16066
0.160109
0.159567
0.159034
0.158509
0.157996
0.157494
0.157005
0.156531
0.156073
0.155635
0.155218
0.154826
0.154462
0.154131
0.153837
0.153586
0.153382
0.153231
0.153141
0.153116
0.153164
0.153292
0.153504
0.153807
0.154204
0.1547
0.155295
0.155988
0.156777
0.157654
0.15861
0.159631
0.160701
0.161799
0.162901
0.163981
0.165014
0.165973
0.166834
0.167576
0.168182
0.16864
0.168941
0.169084
0.16907
0.168905
0.168597
0.168157
0.167598
0.166933
0.166175
0.165338
0.164435
0.163477
0.162475
0.161439
0.160376
0.159295
0.1582
0.157098
0.155992
0.154887
0.153786
0.152692
0.151609
0.150538
0.149482
0.148442
0.147418
0.146412
0.145422
0.144447
0.14349
0.142531
0.141683
0.140305
0.174384
0.173781
0.173177
0.17257
0.171962
0.171353
0.170742
0.170131
0.169519
0.168907
0.168296
0.167685
0.167075
0.166467
0.165862
0.165258
0.164659
0.164062
0.16347
0.162882
0.1623
0.161723
0.161152
0.160587
0.16003
0.159481
0.15894
0.158408
0.157887
0.157377
0.15688
0.156398
0.155932
0.155484
0.155057
0.154654
0.154279
0.153934
0.153625
0.153355
0.15313
0.152955
0.152836
0.152778
0.152787
0.15287
0.15303
0.153274
0.153605
0.154025
0.154537
0.155139
0.155829
0.156601
0.157446
0.158352
0.159305
0.160284
0.16127
0.162237
0.163164
0.164024
0.164795
0.165458
0.165995
0.166395
0.16665
0.166756
0.166713
0.166527
0.166204
0.165754
0.165188
0.164518
0.163757
0.162917
0.162009
0.161045
0.160036
0.158989
0.157912
0.156814
0.155698
0.154571
0.153437
0.152299
0.15116
0.150023
0.148892
0.147768
0.146654
0.145551
0.144461
0.143384
0.142323
0.141276
0.140249
0.139226
0.138322
0.136899
0.17438
0.173776
0.173171
0.172564
0.171955
0.171345
0.170734
0.170122
0.169509
0.168895
0.168282
0.167669
0.167057
0.166446
0.165837
0.16523
0.164626
0.164026
0.163428
0.162835
0.162247
0.161664
0.161086
0.160515
0.159951
0.159394
0.158846
0.158306
0.157777
0.157259
0.156754
0.156263
0.155788
0.155331
0.154894
0.15448
0.154092
0.153733
0.153408
0.153121
0.152875
0.152677
0.15253
0.15244
0.152413
0.152452
0.152564
0.152752
0.15302
0.15337
0.153804
0.154321
0.154919
0.155593
0.156335
0.157135
0.157977
0.158847
0.159724
0.160587
0.161413
0.16218
0.162867
0.163454
0.163926
0.16427
0.164479
0.164549
0.164478
0.164271
0.163934
0.163475
0.162904
0.162231
0.161469
0.160628
0.15972
0.158755
0.157742
0.15669
0.155606
0.154497
0.153369
0.152225
0.15107
0.149908
0.148742
0.147573
0.146406
0.145242
0.144083