/*--------------------------------*- C++ -*----------------------------------*\
  =========                 |
  \\      /  F ield         | OpenFOAM: The Open Source CFD Toolbox
   \\    /   O peration     | Website:  https://openfoam.org
    \\  /    A nd           | Version:  10
     \\/     M anipulation  |
\*---------------------------------------------------------------------------*/
FoamFile
{
    format      ascii;
    class       volScalarField;
    location    "0.105";
    object      nut;
}
// * * * * * * * * * * * * * * * * * * * * * * * * * * * * * * * * * * * * * //

dimensions      [0 2 -1 0 0 0 0];

internalField   nonuniform List<scalar> 
6820
(
0.000149484
0.000144853
0.000140581
0.000136577
0.000132833
0.000129377
0.000126234
0.000123417
0.000120923
0.000118737
0.000116839
0.000115205
0.000113811
0.000112632
0.000111645
0.00011083
0.000110168
0.00010964
0.000109233
0.00010893
0.000108721
0.000108594
0.000108538
0.000108546
0.000108609
0.000108721
0.000108872
0.000109074
0.000109238
0.000109762
0.000108751
0.000115063
8.71769e-05
0.000729198
0.000532392
0.000448014
0.00039971
0.000368383
0.000346735
0.000331092
0.000319364
0.000310277
0.000303029
0.000297098
0.000292138
0.000287914
0.000284261
0.000281061
0.000278228
0.000275697
0.000273418
0.000271353
0.00026947
0.000267746
0.000266159
0.000264693
0.000263334
0.000262072
0.000260895
0.000259798
0.00025877
0.000257816
0.000256925
0.000256126
0.000255257
0.000256404
0.000976777
0.000872181
0.000781623
0.000711266
0.000657321
0.000615282
0.000581712
0.000554253
0.000531318
0.000511823
0.000495009
0.000480328
0.000467377
0.000455849
0.00044551
0.000436177
0.000427703
0.000419972
0.000412887
0.00040637
0.000400354
0.000394784
0.000389613
0.0003848
0.000380309
0.000376109
0.000372171
0.000368469
0.00036497
0.000361662
0.000358462
0.00035533
0.000351988
0.00101348
0.00098823
0.000949374
0.000906194
0.000864427
0.000826386
0.000792556
0.00076267
0.000736235
0.000712741
0.000691732
0.000672827
0.000655708
0.000640117
0.000625842
0.00061271
0.000600576
0.000589321
0.000578846
0.000569066
0.00055991
0.000551317
0.000543234
0.000535614
0.000528418
0.00052161
0.000515157
0.000509031
0.000503198
0.000497641
0.000492308
0.000487211
0.000482183
0.00101671
0.00101241
0.00100191
0.000985661
0.000965605
0.000943714
0.000921425
0.000899615
0.000878753
0.000859047
0.000840556
0.000823258
0.000807091
0.000791973
0.000777819
0.000764547
0.000752078
0.00074034
0.000729269
0.000718806
0.000708901
0.000699507
0.000690582
0.00068209
0.000673998
0.000666275
0.000658893
0.000651828
0.000645053
0.000638548
0.000632281
0.000626243
0.000620376
0.00101676
0.00101592
0.0010136
0.00100903
0.00100204
0.00099292
0.000982193
0.0009704
0.000958009
0.00094538
0.000932769
0.000920353
0.000908244
0.00089651
0.000885189
0.000874298
0.000863838
0.000853802
0.000844178
0.00083495
0.0008261
0.000817608
0.000809457
0.000801627
0.000794101
0.000786861
0.000779889
0.000773171
0.000766689
0.000760429
0.000754373
0.00074851
0.000742822
0.00101671
0.00101623
0.00101553
0.00101428
0.00101219
0.0010091
0.00100497
0.000999893
0.000994022
0.000987523
0.000980563
0.000973287
0.000965819
0.000958258
0.000950682
0.000943151
0.000935709
0.00092839
0.000921216
0.000914203
0.000907362
0.000900699
0.000894215
0.000887911
0.000881785
0.000875834
0.000870053
0.000864437
0.000858979
0.000853674
0.000848515
0.000843497
0.000838613
0.0010167
0.00101622
0.00101574
0.00101518
0.00101442
0.00101335
0.00101188
0.00100995
0.00100756
0.00100471
0.00100145
0.00099783
0.000993914
0.000989757
0.000985413
0.00098093
0.000976351
0.000971713
0.000967046
0.000962374
0.00095772
0.0009531
0.000948528
0.000944013
0.000939565
0.000935188
0.000930888
0.000926667
0.000922528
0.000918471
0.000914496
0.000910605
0.000906797
0.0010167
0.00101621
0.00101575
0.00101528
0.0010148
0.00101425
0.00101359
0.00101279
0.00101179
0.00101059
0.00100918
0.00100754
0.00100569
0.00100365
0.00100144
0.000999069
0.000996569
0.000993958
0.000991256
0.000988483
0.000985654
0.000982786
0.000979891
0.000976982
0.000974068
0.000971159
0.00096826
0.00096538
0.000962523
0.000959694
0.000956896
0.000954134
0.00095141
0.0010167
0.00101621
0.00101574
0.00101529
0.00101484
0.00101439
0.00101393
0.00101344
0.0010129
0.00101229
0.0010116
0.00101082
0.00100994
0.00100895
0.00100787
0.00100668
0.0010054
0.00100404
0.00100259
0.00100107
0.000999491
0.000997856
0.000996175
0.000994456
0.000992705
0.000990929
0.000989135
0.000987328
0.000985514
0.000983696
0.00098188
0.000980068
0.000978267
0.0010167
0.00101621
0.00101574
0.00101528
0.00101484
0.00101441
0.00101398
0.00101356
0.00101313
0.0010127
0.00101224
0.00101176
0.00101125
0.0010107
0.00101011
0.00100947
0.00100878
0.00100805
0.00100728
0.00100646
0.00100559
0.00100469
0.00100375
0.00100278
0.00100178
0.00100075
0.000999698
0.000998628
0.000997542
0.000996442
0.000995333
0.000994216
0.000993096
0.0010167
0.00101621
0.00101574
0.00101528
0.00101484
0.0010144
0.00101398
0.00101357
0.00101317
0.00101277
0.00101238
0.00101199
0.00101159
0.00101119
0.00101078
0.00101035
0.00100992
0.00100946
0.00100898
0.00100849
0.00100798
0.00100745
0.0010069
0.00100633
0.00100574
0.00100514
0.00100452
0.00100389
0.00100325
0.00100259
0.00100193
0.00100125
0.00100058
0.0010167
0.00101621
0.00101574
0.00101528
0.00101483
0.0010144
0.00101398
0.00101357
0.00101317
0.00101278
0.0010124
0.00101203
0.00101167
0.00101131
0.00101095
0.0010106
0.00101024
0.00100989
0.00100953
0.00100917
0.0010088
0.00100843
0.00100806
0.00100768
0.00100729
0.0010069
0.0010065
0.0010061
0.00100569
0.00100527
0.00100485
0.00100443
0.00100401
0.0010167
0.00101621
0.00101574
0.00101528
0.00101483
0.0010144
0.00101398
0.00101357
0.00101317
0.00101278
0.0010124
0.00101204
0.00101168
0.00101133
0.00101099
0.00101065
0.00101032
0.00101
0.00100968
0.00100936
0.00100905
0.00100874
0.00100844
0.00100813
0.00100783
0.00100753
0.00100723
0.00100693
0.00100663
0.00100633
0.00100603
0.00100573
0.00100543
0.0010167
0.00101621
0.00101574
0.00101528
0.00101483
0.0010144
0.00101398
0.00101357
0.00101317
0.00101278
0.0010124
0.00101203
0.00101168
0.00101133
0.00101099
0.00101066
0.00101033
0.00101002
0.00100971
0.00100941
0.00100912
0.00100883
0.00100854
0.00100827
0.00100799
0.00100773
0.00100746
0.0010072
0.00100695
0.00100669
0.00100645
0.0010062
0.00100596
0.0010167
0.00101621
0.00101574
0.00101528
0.00101483
0.0010144
0.00101397
0.00101356
0.00101316
0.00101278
0.0010124
0.00101203
0.00101167
0.00101132
0.00101099
0.00101066
0.00101033
0.00101002
0.00100971
0.00100942
0.00100913
0.00100884
0.00100857
0.0010083
0.00100803
0.00100778
0.00100753
0.00100728
0.00100704
0.00100681
0.00100658
0.00100635
0.00100614
0.0010167
0.00101621
0.00101574
0.00101528
0.00101483
0.0010144
0.00101397
0.00101356
0.00101316
0.00101277
0.0010124
0.00101203
0.00101167
0.00101132
0.00101098
0.00101065
0.00101033
0.00101002
0.00100971
0.00100941
0.00100913
0.00100884
0.00100857
0.0010083
0.00100804
0.00100779
0.00100754
0.0010073
0.00100706
0.00100683
0.00100661
0.00100639
0.00100618
0.0010167
0.00101621
0.00101574
0.00101528
0.00101483
0.0010144
0.00101397
0.00101356
0.00101316
0.00101277
0.00101239
0.00101203
0.00101167
0.00101132
0.00101098
0.00101065
0.00101033
0.00101001
0.00100971
0.00100941
0.00100912
0.00100884
0.00100856
0.0010083
0.00100804
0.00100778
0.00100754
0.0010073
0.00100706
0.00100684
0.00100661
0.0010064
0.00100619
0.0010167
0.00101621
0.00101574
0.00101528
0.00101483
0.00101439
0.00101397
0.00101356
0.00101316
0.00101277
0.00101239
0.00101202
0.00101167
0.00101132
0.00101098
0.00101065
0.00101032
0.00101001
0.0010097
0.00100941
0.00100912
0.00100884
0.00100856
0.00100829
0.00100803
0.00100778
0.00100753
0.00100729
0.00100706
0.00100683
0.00100661
0.00100639
0.00100619
0.0010167
0.00101621
0.00101574
0.00101528
0.00101483
0.00101439
0.00101397
0.00101356
0.00101316
0.00101277
0.00101239
0.00101202
0.00101166
0.00101131
0.00101097
0.00101064
0.00101032
0.00101001
0.0010097
0.0010094
0.00100911
0.00100883
0.00100856
0.00100829
0.00100803
0.00100777
0.00100753
0.00100729
0.00100705
0.00100682
0.0010066
0.00100639
0.00100618
0.0010167
0.00101621
0.00101574
0.00101528
0.00101483
0.00101439
0.00101397
0.00101356
0.00101316
0.00101277
0.00101239
0.00101202
0.00101166
0.00101131
0.00101097
0.00101064
0.00101032
0.00101
0.0010097
0.0010094
0.00100911
0.00100883
0.00100855
0.00100828
0.00100802
0.00100777
0.00100752
0.00100728
0.00100705
0.00100682
0.0010066
0.00100638
0.00100617
0.0010167
0.00101621
0.00101574
0.00101528
0.00101483
0.00101439
0.00101397
0.00101356
0.00101316
0.00101277
0.00101239
0.00101202
0.00101166
0.00101131
0.00101097
0.00101064
0.00101032
0.00101
0.0010097
0.0010094
0.00100911
0.00100882
0.00100855
0.00100828
0.00100802
0.00100776
0.00100752
0.00100728
0.00100704
0.00100681
0.00100659
0.00100637
0.00100616
0.0010167
0.00101621
0.00101574
0.00101528
0.00101483
0.00101439
0.00101397
0.00101356
0.00101316
0.00101277
0.00101239
0.00101202
0.00101166
0.00101131
0.00101097
0.00101064
0.00101031
0.00101
0.00100969
0.0010094
0.0010091
0.00100882
0.00100855
0.00100828
0.00100802
0.00100776
0.00100751
0.00100727
0.00100704
0.00100681
0.00100658
0.00100637
0.00100615
0.0010167
0.00101621
0.00101574
0.00101528
0.00101483
0.00101439
0.00101397
0.00101356
0.00101316
0.00101277
0.00101239
0.00101202
0.00101166
0.00101131
0.00101097
0.00101064
0.00101031
0.00101
0.00100969
0.00100939
0.0010091
0.00100882
0.00100854
0.00100827
0.00100801
0.00100776
0.00100751
0.00100727
0.00100703
0.0010068
0.00100658
0.00100636
0.00100615
0.0010167
0.00101621
0.00101574
0.00101528
0.00101483
0.00101439
0.00101397
0.00101356
0.00101316
0.00101277
0.00101239
0.00101202
0.00101166
0.00101131
0.00101097
0.00101063
0.00101031
0.00101
0.00100969
0.00100939
0.0010091
0.00100882
0.00100854
0.00100827
0.00100801
0.00100775
0.0010075
0.00100726
0.00100702
0.00100679
0.00100657
0.00100635
0.00100614
0.0010167
0.00101621
0.00101574
0.00101528
0.00101483
0.00101439
0.00101397
0.00101356
0.00101316
0.00101277
0.00101239
0.00101202
0.00101166
0.00101131
0.00101097
0.00101063
0.00101031
0.00100999
0.00100969
0.00100939
0.0010091
0.00100881
0.00100854
0.00100827
0.001008
0.00100775
0.0010075
0.00100726
0.00100702
0.00100679
0.00100656
0.00100634
0.00100613
0.0010167
0.00101621
0.00101574
0.00101528
0.00101483
0.00101439
0.00101397
0.00101356
0.00101316
0.00101277
0.00101239
0.00101202
0.00101166
0.00101131
0.00101096
0.00101063
0.00101031
0.00100999
0.00100969
0.00100939
0.0010091
0.00100881
0.00100853
0.00100826
0.001008
0.00100774
0.00100749
0.00100725
0.00100701
0.00100678
0.00100656
0.00100634
0.00100612
0.0010167
0.00101621
0.00101574
0.00101528
0.00101483
0.00101439
0.00101397
0.00101356
0.00101316
0.00101277
0.00101239
0.00101202
0.00101166
0.00101131
0.00101096
0.00101063
0.00101031
0.00100999
0.00100968
0.00100939
0.00100909
0.00100881
0.00100853
0.00100826
0.001008
0.00100774
0.00100749
0.00100725
0.00100701
0.00100678
0.00100655
0.00100633
0.00100612
0.0010167
0.00101621
0.00101574
0.00101528
0.00101483
0.00101439
0.00101397
0.00101356
0.00101316
0.00101277
0.00101239
0.00101202
0.00101166
0.00101131
0.00101096
0.00101063
0.00101031
0.00100999
0.00100968
0.00100938
0.00100909
0.00100881
0.00100853
0.00100826
0.001008
0.00100774
0.00100749
0.00100724
0.00100701
0.00100677
0.00100655
0.00100633
0.00100611
0.0010167
0.00101621
0.00101574
0.00101528
0.00101483
0.00101439
0.00101397
0.00101356
0.00101316
0.00101277
0.00101239
0.00101202
0.00101166
0.00101131
0.00101097
0.00101063
0.00101031
0.00100999
0.00100968
0.00100938
0.00100909
0.00100881
0.00100853
0.00100826
0.001008
0.00100774
0.00100749
0.00100724
0.001007
0.00100677
0.00100654
0.00100632
0.00100611
0.0010167
0.00101621
0.00101574
0.00101528
0.00101483
0.00101439
0.00101397
0.00101356
0.00101316
0.00101277
0.00101239
0.00101202
0.00101166
0.00101131
0.00101097
0.00101063
0.00101031
0.00100999
0.00100969
0.00100939
0.00100909
0.00100881
0.00100853
0.00100826
0.001008
0.00100774
0.00100749
0.00100724
0.001007
0.00100677
0.00100654
0.00100631
0.0010061
0.0010167
0.00101621
0.00101574
0.00101528
0.00101483
0.0010144
0.00101397
0.00101356
0.00101316
0.00101277
0.00101239
0.00101202
0.00101166
0.00101131
0.00101097
0.00101064
0.00101031
0.00101
0.00100969
0.00100939
0.00100909
0.00100881
0.00100853
0.00100825
0.00100798
0.00100772
0.00100747
0.00100722
0.00100697
0.00100673
0.0010065
0.00100627
0.00100604
0.0010167
0.00101621
0.00101574
0.00101528
0.00101483
0.0010144
0.00101398
0.00101357
0.00101317
0.00101278
0.0010124
0.00101203
0.00101167
0.00101132
0.00101097
0.00101064
0.00101031
0.00100998
0.00100967
0.00100936
0.00100905
0.00100875
0.00100846
0.00100817
0.00100788
0.0010076
0.00100732
0.00100705
0.00100678
0.00100651
0.00100624
0.00100598
0.00100572
0.0010167
0.00101621
0.00101574
0.00101529
0.00101484
0.00101441
0.00101399
0.00101358
0.00101318
0.00101279
0.0010124
0.00101202
0.00101164
0.00101127
0.00101089
0.00101053
0.00101016
0.00100979
0.00100942
0.00100906
0.00100869
0.00100832
0.00100794
0.00100757
0.00100719
0.00100681
0.00100643
0.00100605
0.00100566
0.00100527
0.00100488
0.00100448
0.00100409
0.0010167
0.00101622
0.00101575
0.0010153
0.00101485
0.00101441
0.00101397
0.00101352
0.00101308
0.00101262
0.00101215
0.00101166
0.00101115
0.00101063
0.00101008
0.00100951
0.00100892
0.0010083
0.00100766
0.00100699
0.0010063
0.00100559
0.00100486
0.00100411
0.00100335
0.00100256
0.00100176
0.00100094
0.00100011
0.00099927
0.000998419
0.000997558
0.000996691
0.00101671
0.00101622
0.00101574
0.00101524
0.00101469
0.00101407
0.00101337
0.00101257
0.00101167
0.00101066
0.00100955
0.00100832
0.00100698
0.00100554
0.001004
0.00100237
0.00100066
0.00099887
0.00099701
0.000995088
0.000993112
0.000991089
0.000989026
0.00098693
0.000984808
0.000982664
0.000980505
0.000978336
0.000976161
0.000973985
0.000971811
0.000969643
0.000967485
0.00101671
0.001016
0.00101488
0.00101326
0.00101113
0.00100848
0.00100533
0.00100171
0.000997645
0.000993198
0.000988421
0.000983364
0.000978081
0.000972618
0.000967019
0.000961324
0.000955567
0.000949777
0.000943982
0.000938204
0.000932461
0.000926771
0.000921145
0.000915597
0.000910134
0.000904764
0.000899494
0.000894327
0.000889268
0.000884318
0.00087948
0.000874755
0.000870143
0.0010153
0.00100706
0.000995517
0.000981421
0.000965399
0.000948063
0.00092997
0.00091157
0.000893195
0.000875084
0.000857404
0.000840262
0.000823726
0.000807831
0.000792594
0.000778012
0.000764075
0.000750766
0.000738061
0.000725935
0.000714363
0.000703318
0.000692772
0.000682701
0.00067308
0.000663883
0.000655089
0.000646676
0.000638623
0.000630911
0.000623522
0.000616438
0.000609641
0.000935928
0.000815552
0.000728187
0.000659272
0.000602408
0.000555177
0.000515679
0.000482331
0.000453881
0.000429365
0.000408041
0.000389338
0.00037281
0.000358107
0.00034495
0.000333116
0.000322422
0.000312719
0.000303881
0.000295804
0.000288401
0.000281595
0.000275323
0.00026953
0.000264167
0.000259192
0.000254568
0.000250263
0.000246248
0.000242498
0.000238991
0.000235705
0.000232622
0.000125477
0.000128847
0.000132096
0.000135204
0.000138173
0.000141007
0.000143711
0.000146289
0.000148745
0.000151084
0.00015331
0.000155428
0.000157441
0.000159354
0.000161171
0.000162896
0.000164533
0.000166086
0.000167558
0.000168955
0.000170278
0.000171532
0.000172719
0.000173844
0.000174909
0.000175918
0.000176872
0.000177775
0.00017863
0.000179438
0.000180203
0.000180926
0.000181611
0.000106282
0.00015028
0.000195497
0.000240803
0.00028494
0.000326237
0.000363786
0.000397768
0.000429139
0.000459145
0.00048884
0.000518848
0.00054937
0.000580359
0.000611719
0.000643461
0.000675759
0.000708926
0.000743335
0.000779349
0.000817278
0.000857361
0.000899773
0.000944622
0.000991948
0.0010417
0.00109375
0.00114782
0.00120357
0.00126052
0.0013181
0.00137566
0.00143242
0.00148753
0.00154005
0.00158891
0.00163297
0.00167096
0.00170154
0.00172329
0.00173475
0.00173442
0.00172086
0.00169271
0.0016488
0.00158829
0.00151086
0.00141703
0.0013087
0.00119
0.00106862
0.000957373
0.000874902
0.000842261
0.00087101
0.000947617
0.00103812
0.00111649
0.00117689
0.00122351
0.00126123
0.00129315
0.0013209
0.00134534
0.001367
0.0013863
0.00140363
0.00141938
0.00143393
0.00144764
0.00146086
0.00147391
0.00148703
0.00150043
0.00151423
0.00152844
0.00154303
0.00155787
0.00157279
0.00158755
0.00160197
0.00161581
0.00162893
0.00164118
0.00165249
0.0016628
0.00167211
0.00168045
0.00168786
0.00169441
0.00170017
0.00170525
0.00170974
0.00171375
0.00171734
0.00172054
0.00172326
0.00172524
0.00172618
0.00172289
0.000245943
0.000213561
0.000183667
0.000169182
0.000169401
0.000181194
0.00020186
0.000229132
0.000260921
0.000295286
0.000330535
0.000365349
0.000398964
0.000431167
0.00046217
0.000492417
0.000522391
0.00055249
0.000583
0.000614122
0.000646042
0.000678965
0.00071313
0.000748783
0.000786144
0.000825366
0.00086651
0.000909527
0.000954249
0.00100039
0.00104755
0.00109521
0.00114271
0.0011893
0.00123411
0.00127612
0.00131422
0.0013472
0.00137375
0.00139248
0.00140198
0.00140086
0.0013878
0.00136167
0.00132163
0.00126741
0.00119956
0.00111999
0.00103271
0.000944822
0.000867573
0.000816259
0.000806627
0.00084533
0.000919858
0.00100423
0.00107874
0.00113811
0.001185
0.00122335
0.00125598
0.00128449
0.00130976
0.00133226
0.00135235
0.00137034
0.00138653
0.00140125
0.00141483
0.0014276
0.00143986
0.00145191
0.001464
0.00147633
0.00148905
0.00150224
0.00151588
0.00152992
0.00154421
0.00155858
0.00157283
0.00158676
0.00160019
0.00161298
0.00162499
0.00163617
0.00164646
0.00165585
0.00166438
0.00167206
0.00167895
0.00168513
0.00169067
0.00169565
0.00170014
0.00170416
0.00170761
0.00171023
0.00171174
0.00170919
0.000349163
0.000343322
0.000327581
0.000300139
0.000267141
0.000236556
0.000213104
0.000198298
0.000192098
0.000193908
0.000202941
0.000218259
0.000238791
0.000263304
0.00029052
0.000319232
0.00034845
0.000377509
0.000406098
0.000434205
0.000462025
0.000489854
0.000518014
0.000546802
0.000576465
0.000607199
0.000639144
0.000672381
0.000706916
0.00074267
0.000779453
0.000816956
0.000854733
0.000892198
0.000928624
0.000963145
0.000994767
0.00102239
0.00104482
0.00106081
0.00106914
0.00106863
0.00105831
0.00103752
0.00100617
0.000965025
0.00091616
0.000863546
0.000813686
0.000775927
0.000761487
0.000779652
0.000831106
0.000904125
0.000981034
0.00104934
0.00110538
0.00115082
0.0011886
0.00122108
0.00124973
0.00127536
0.00129841
0.00131914
0.00133777
0.00135453
0.00136966
0.00138344
0.00139613
0.00140804
0.00141943
0.00143056
0.00144168
0.001453
0.00146466
0.00147679
0.00148942
0.00150253
0.00151603
0.00152979
0.00154364
0.0015574
0.00157089
0.00158395
0.00159644
0.00160827
0.00161935
0.00162965
0.00163915
0.00164786
0.0016558
0.00166301
0.00166956
0.00167549
0.00168087
0.0016857
0.00168987
0.00169315
0.00169526
0.00169354
0.000476741
0.000471057
0.000464489
0.000454759
0.00043984
0.000418994
0.000393044
0.000363858
0.000333629
0.000304563
0.000278721
0.000257723
0.000242496
0.000233697
0.000230948
0.000233638
0.000241065
0.00025247
0.000267072
0.000284121
0.000302953
0.000323034
0.000343984
0.000365579
0.000387734
0.000410466
0.000433858
0.000458014
0.000483027
0.000508948
0.000535753
0.000563328
0.000591442
0.000619739
0.000647728
0.000674786
0.000700164
0.000723018
0.000742435
0.000757498
0.000767358
0.000771349
0.000769139
0.000760938
0.000747764
0.000731766
0.000716552
0.000707336
0.000710517
0.000732083
0.000774647
0.000834691
0.000903221
0.000970396
0.00102997
0.00108021
0.00112223
0.00115801
0.0011893
0.0012173
0.00124268
0.0012658
0.00128684
0.00130593
0.00132321
0.00133884
0.00135299
0.0013659
0.0013778
0.00138892
0.00139952
0.00140983
0.00142006
0.00143043
0.00144109
0.00145218
0.00146376
0.00147587
0.00148845
0.00150143
0.00151467
0.00152802
0.00154131
0.00155438
0.0015671
0.00157933
0.00159099
0.001602
0.00161232
0.00162192
0.0016308
0.00163896
0.00164645
0.0016533
0.00165953
0.00166516
0.00167007
0.00167403
0.00167675
0.00167594
0.000613734
0.00060642
0.000599288
0.000591982
0.000583812
0.000573939
0.000561619
0.000546352
0.000527876
0.000506111
0.0004812
0.000453678
0.000424325
0.000395496
0.000369203
0.000346404
0.000327571
0.000312868
0.000302244
0.000295496
0.000292322
0.00029237
0.000295265
0.000300642
0.000308166
0.000317547
0.00032855
0.000340996
0.000354757
0.000369741
0.000385876
0.000403088
0.000421273
0.00044028
0.000459891
0.000479813
0.000499679
0.000519073
0.000537564
0.000554774
0.000570463
0.00058465
0.000597757
0.000610756
0.000625285
0.000643644
0.000668525
0.000702339
0.000746185
0.000798896
0.00085696
0.00091566
0.000970814
0.00102
0.00106271
0.0010997
0.00113219
0.0011613
0.00118785
0.00121232
0.00123496
0.00125587
0.00127511
0.00129271
0.00130875
0.00132333
0.00133659
0.0013487
0.00135986
0.00137028
0.00138016
0.00138972
0.00139916
0.00140865
0.00141838
0.00142847
0.00143902
0.00145009
0.00146168
0.00147375
0.0014862
0.00149893
0.00151178
0.00152462
0.0015373
0.00154969
0.00156168
0.00157318
0.00158411
0.00159444
0.00160411
0.00161311
0.00162145
0.00162915
0.0016362
0.00164259
0.00164823
0.00165288
0.00165624
0.00165642
0.000736384
0.000729167
0.000722039
0.000714973
0.000707852
0.000700469
0.000692536
0.000683726
0.000673703
0.000662129
0.000648659
0.000632989
0.000614723
0.000594399
0.000572673
0.000550301
0.000528052
0.000506629
0.00048662
0.000468474
0.000452498
0.000438877
0.000427691
0.000418944
0.000412581
0.000408513
0.000406628
0.000406808
0.00040894
0.000412922
0.000418666
0.000426104
0.000435181
0.000445854
0.000458092
0.000471867
0.000487159
0.000503959
0.00052229
0.000542227
0.000563934
0.000587696
0.000613937
0.000643195
0.00067603
0.00071285
0.000753668
0.000797889
0.00084424
0.000890954
0.000936177
0.000978433
0.00101692
0.00105156
0.00108274
0.00111112
0.00113729
0.00116173
0.0011847
0.00120634
0.00122667
0.00124567
0.0012633
0.00127955
0.00129445
0.00130807
0.0013205
0.00133188
0.00134237
0.00135214
0.00136138
0.00137027
0.00137898
0.00138769
0.00139655
0.00140571
0.00141528
0.00142532
0.00143588
0.00144696
0.0014585
0.00147043
0.00148263
0.001495
0.00150738
0.00151967
0.00153174
0.00154349
0.00155482
0.00156566
0.00157595
0.00158565
0.00159472
0.00160316
0.00161096
0.00161808
0.00162441
0.00162974
0.00163375
0.001635
0.000833071
0.000826815
0.00082057
0.000814342
0.000808119
0.000801866
0.000795521
0.000788988
0.000782148
0.000774859
0.000766958
0.000758243
0.000748544
0.000737752
0.00072586
0.000712972
0.000699292
0.000685107
0.000670752
0.000656579
0.000642921
0.000630078
0.000618304
0.000607804
0.000598736
0.000591218
0.00058533
0.000581122
0.000578626
0.000577857
0.000578822
0.000581527
0.000585981
0.000592205
0.00060023
0.000610106
0.0006219
0.000635696
0.000651589
0.000669681
0.000690069
0.000712827
0.000737982
0.000765474
0.000795114
0.000826553
0.000859257
0.000892541
0.000925646
0.00095785
0.000988595
0.00101757
0.00104471
0.00107017
0.0010942
0.00111707
0.00113896
0.00116
0.00118021
0.00119954
0.00121792
0.00123526
0.00125147
0.00126651
0.00128039
0.00129312
0.00130479
0.00131549
0.00132536
0.00133455
0.0013432
0.00135148
0.00135954
0.00136754
0.00137562
0.00138393
0.00139256
0.00140162
0.00141117
0.00142122
0.00143177
0.00144278
0.00145417
0.00146585
0.00147772
0.00148965
0.00150154
0.00151328
0.00152476
0.0015359
0.0015466
0.00155681
0.00156646
0.00157553
0.00158397
0.00159174
0.00159873
0.00160472
0.00160935
0.00161173
0.000902452
0.000897512
0.000892536
0.000887532
0.000882502
0.000877446
0.000872357
0.000867221
0.000862014
0.000856706
0.000851248
0.000845596
0.00083969
0.000833468
0.000826881
0.000819901
0.000812535
0.000804831
0.000796878
0.000788799
0.000780745
0.00077288
0.000765371
0.000758381
0.000752062
0.000746551
0.000741969
0.00073842
0.000735991
0.000734756
0.000734775
0.0007361
0.000738775
0.000742843
0.000748343
0.000755319
0.000763814
0.00077387
0.000785526
0.000798805
0.000813708
0.000830203
0.000848207
0.000867581
0.000888121
0.000909558
0.00093158
0.000953857
0.000976079
0.000997994
0.00101944
0.00104035
0.00106073
0.00108064
0.00110017
0.00111935
0.0011382
0.00115667
0.00117468
0.00119211
0.00120883
0.00122472
0.00123969
0.00125366
0.0012666
0.00127854
0.0012895
0.00129959
0.00130889
0.00131753
0.00132565
0.00133337
0.00134085
0.00134821
0.00135559
0.00136312
0.0013709
0.00137904
0.0013876
0.00139664
0.00140617
0.00141618
0.00142664
0.00143749
0.00144863
0.00145999
0.00147146
0.00148293
0.00149431
0.00150549
0.00151638
0.00152689
0.00153694
0.00154648
0.00155544
0.00156376
0.00157132
0.00157792
0.00158316
0.00158669
0.000948277
0.000944684
0.000941032
0.000937324
0.000933567
0.000929763
0.000925918
0.000922034
0.000918116
0.000914164
0.000910181
0.000906167
0.000902116
0.000898023
0.000893877
0.00088967
0.000885397
0.000881063
0.000876683
0.000872291
0.000867931
0.000863664
0.000859562
0.000855704
0.000852172
0.000849053
0.000846427
0.000844375
0.000842971
0.000842283
0.000842372
0.000843293
0.000845096
0.000847822
0.000851513
0.000856202
0.000861921
0.000868695
0.000876542
0.000885468
0.00089546
0.000906489
0.000918501
0.000931414
0.000945125
0.000959509
0.000974435
0.000989772
0.00100541
0.00102126
0.00103726
0.00105341
0.00106968
0.00108607
0.00110257
0.00111914
0.0011357
0.00115215
0.00116837
0.0011842
0.00119951
0.00121416
0.00122803
0.00124104
0.00125315
0.00126436
0.00127469
0.0012842
0.00129297
0.00130112
0.00130874
0.00131597
0.00132292
0.00132971
0.00133646
0.00134329
0.0013503
0.00135758
0.00136523
0.00137329
0.00138181
0.0013908
0.00140026
0.00141015
0.00142043
0.00143103
0.00144186
0.00145283
0.00146386
0.00147484
0.00148567
0.00149624
0.00150648
0.0015163
0.00152562
0.00153436
0.00154239
0.00154953
0.00155532
0.00156
0.000976174
0.00097375
0.000971259
0.000968706
0.000966092
0.000963424
0.000960705
0.000957942
0.000955143
0.000952317
0.000949472
0.00094662
0.000943771
0.000940935
0.000938122
0.000935339
0.000932594
0.000929896
0.000927255
0.000924683
0.000922197
0.00091982
0.000917577
0.000915503
0.000913633
0.000912009
0.000910672
0.000909667
0.000909038
0.000908831
0.000909088
0.000909849
0.000911153
0.000913037
0.000915533
0.000918673
0.000922485
0.000926993
0.000932218
0.000938173
0.000944863
0.000952284
0.000960424
0.000969257
0.000978752
0.000988871
0.000999571
0.00101082
0.00102257
0.00103481
0.00104752
0.00106068
0.00107426
0.00108825
0.00110257
0.00111717
0.00113195
0.00114677
0.0011615
0.00117599
0.00119008
0.00120364
0.00121655
0.00122871
0.00124008
0.00125062
0.00126037
0.00126936
0.00127765
0.00128534
0.00129251
0.00129928
0.00130575
0.00131202
0.00131821
0.00132441
0.00133072
0.00133724
0.00134404
0.00135119
0.00135874
0.00136673
0.00137517
0.00138406
0.00139337
0.00140306
0.00141308
0.00142335
0.0014338
0.00144434
0.00145486
0.00146527
0.00147547
0.00148536
0.00149485
0.00150384
0.00151221
0.00151978
0.00152603
0.00153183
0.000991783
0.000990245
0.00098865
0.000986997
0.000985289
0.000983528
0.000981719
0.000979867
0.000977979
0.000976061
0.000974124
0.000972175
0.000970227
0.00096829
0.000966376
0.000964497
0.000962664
0.000960888
0.000959181
0.000957553
0.000956016
0.000954583
0.000953267
0.000952084
0.000951053
0.000950191
0.00094952
0.000949063
0.000948843
0.000948887
0.000949221
0.00094987
0.000950862
0.000952224
0.000953982
0.000956164
0.000958796
0.000961904
0.000965511
0.000969641
0.000974314
0.000979546
0.000985352
0.00099174
0.000998718
0.00100629
0.00101446
0.00102323
0.0010326
0.00104258
0.00105314
0.00106429
0.001076
0.00108823
0.00110091
0.00111397
0.0011273
0.00114078
0.00115426
0.0011676
0.00118064
0.00119325
0.00120531
0.00121671
0.00122741
0.00123736
0.00124657
0.00125508
0.00126293
0.00127019
0.00127696
0.00128331
0.00128934
0.00129515
0.00130083
0.00130647
0.00131216
0.00131799
0.00132403
0.00133034
0.00133699
0.00134403
0.00135147
0.00135934
0.00136763
0.00137634
0.00138542
0.00139483
0.00140451
0.00141439
0.00142438
0.00143439
0.00144431
0.00145404
0.00146349
0.00147256
0.0014811
0.00148897
0.00149558
0.00150241
0.000999775
0.000998832
0.000997846
0.000996816
0.000995744
0.000994631
0.000993479
0.000992293
0.000991076
0.000989833
0.000988572
0.000987299
0.000986022
0.000984748
0.000983488
0.000982251
0.000981045
0.000979881
0.000978768
0.000977716
0.000976734
0.000975832
0.00097502
0.000974309
0.000973709
0.000973232
0.00097289
0.000972696
0.000972665
0.000972811
0.000973153
0.000973706
0.000974491
0.000975528
0.000976838
0.000978444
0.000980372
0.000982645
0.000985292
0.000988338
0.000991812
0.000995742
0.00100015
0.00100508
0.00101054
0.00101655
0.00102316
0.00103036
0.00103819
0.00104665
0.00105575
0.00106547
0.0010758
0.00108669
0.00109809
0.00110991
0.00112206
0.00113441
0.00114683
0.00115917
0.0011713
0.00118306
0.00119436
0.00120508
0.00121517
0.00122458
0.00123331
0.00124138
0.00124882
0.00125569
0.00126208
0.00126804
0.00127368
0.00127907
0.00128429
0.00128943
0.00129457
0.00129979
0.00130514
0.00131071
0.00131654
0.00132269
0.00132919
0.00133607
0.00134335
0.00135104
0.00135911
0.00136756
0.00137633
0.00138539
0.00139464
0.00140403
0.00141344
0.0014228
0.001432
0.00144092
0.00144945
0.00145745
0.00146429
0.00147202
0.0010035
0.00100291
0.0010023
0.00100165
0.00100098
0.00100028
0.000999549
0.000998799
0.000998028
0.00099724
0.000996439
0.00099563
0.000994817
0.000994006
0.000993204
0.000992416
0.000991649
0.00099091
0.000990205
0.000989543
0.000988929
0.000988372
0.000987879
0.000987457
0.000987115
0.000986861
0.000986704
0.000986653
0.000986718
0.000986911
0.000987244
0.000987729
0.000988383
0.000989221
0.000990262
0.000991526
0.000993036
0.000994817
0.000996894
0.000999298
0.00100206
0.0010052
0.00100877
0.0010128
0.00101731
0.00102235
0.00102794
0.00103411
0.00104089
0.00104829
0.00105633
0.00106499
0.00107426
0.0010841
0.00109447
0.00110527
0.00111643
0.00112782
0.00113932
0.0011508
0.00116211
0.00117314
0.00118375
0.00119386
0.00120339
0.0012123
0.00122059
0.00122825
0.00123531
0.00124183
0.00124787
0.00125348
0.00125876
0.00126377
0.00126858
0.00127328
0.00127792
0.00128259
0.00128734
0.00129224
0.00129734
0.00130268
0.00130831
0.00131427
0.00132058
0.00132726