/*--------------------------------*- C++ -*----------------------------------*\
  =========                 |
  \\      /  F ield         | OpenFOAM: The Open Source CFD Toolbox
   \\    /   O peration     | Website:  https://openfoam.org
    \\  /    A nd           | Version:  10
     \\/     M anipulation  |
\*---------------------------------------------------------------------------*/
FoamFile
{
    format      ascii;
    class       volScalarField;
    location    "0.105";
    object      p;
}
// * * * * * * * * * * * * * * * * * * * * * * * * * * * * * * * * * * * * * //

dimensions      [0 2 -2 0 0 0 0];

internalField   nonuniform List<scalar> 
6820
(
-8.82418
-10.1883
-10.6019
-10.6976
-10.7787
-10.8304
-10.8617
-10.8865
-10.908
-10.9271
-10.9448
-10.9617
-10.9781
-10.994
-11.0097
-11.0251
-11.0403
-11.0554
-11.0703
-11.0851
-11.0998
-11.1144
-11.1287
-11.1428
-11.1564
-11.1693
-11.181
-11.1906
-11.1973
-11.1948
-11.185
-11.1352
-11.021
-11.6243
-11.22
-10.9262
-10.831
-10.8327
-10.8498
-10.8683
-10.8884
-10.9084
-10.9271
-10.9448
-10.9617
-10.9778
-10.9935
-11.0087
-11.0237
-11.0384
-11.053
-11.0675
-11.0819
-11.0963
-11.1105
-11.1246
-11.1385
-11.152
-11.1652
-11.1775
-11.1894
-11.1989
-11.2119
-11.2153
-11.2679
-11.2995
-10.4813
-10.3531
-10.5782
-10.7161
-10.7779
-10.8226
-10.8551
-10.8809
-10.9031
-10.9227
-10.9408
-10.9578
-10.9742
-10.9901
-11.0057
-11.021
-11.0361
-11.0511
-11.066
-11.0808
-11.0955
-11.11
-11.1245
-11.1388
-11.1527
-11.1663
-11.1794
-11.1919
-11.2032
-11.2152
-11.2242
-11.243
-11.2425
-10.8478
-10.8646
-10.8404
-10.8178
-10.8262
-10.847
-10.8674
-10.8871
-10.9063
-10.9245
-10.9419
-10.9586
-10.9748
-10.9905
-11.0059
-11.0211
-11.036
-11.0509
-11.0656
-11.0803
-11.0949
-11.1094
-11.1238
-11.138
-11.1522
-11.1661
-11.1798
-11.1934
-11.2068
-11.222
-11.2371
-11.2641
-11.2918
-10.7379
-10.6839
-10.7279
-10.7729
-10.8083
-10.8387
-10.8637
-10.8855
-10.9056
-10.9241
-10.9415
-10.9582
-10.9742
-10.9899
-11.0052
-11.0204
-11.0353
-11.0502
-11.065
-11.0797
-11.0943
-11.1089
-11.1235
-11.138
-11.1525
-11.1669
-11.1813
-11.1959
-11.2108
-11.2274
-11.2452
-11.2695
-11.295
-10.7785
-10.7718
-10.7903
-10.8075
-10.826
-10.8478
-10.8688
-10.8885
-10.9073
-10.9251
-10.9421
-10.9585
-10.9744
-10.9899
-11.0052
-11.0202
-11.0351
-11.0499
-11.0646
-11.0793
-11.094
-11.1086
-11.1232
-11.1379
-11.1526
-11.1673
-11.1823
-11.1977
-11.2138
-11.2315
-11.251
-11.2751
-11.302
-10.7777
-10.767
-10.7819
-10.8037
-10.8259
-10.8486
-10.8698
-10.8894
-10.9079
-10.9255
-10.9423
-10.9585
-10.9743
-10.9897
-11.0048
-11.0198
-11.0346
-11.0494
-11.0641
-11.0787
-11.0934
-11.1081
-11.1228
-11.1376
-11.1525
-11.1677
-11.1832
-11.1992
-11.2161
-11.2345
-11.2547
-11.2781
-11.3039
-10.7873
-10.7843
-10.7975
-10.8156
-10.8341
-10.8537
-10.873
-10.8914
-10.9092
-10.9262
-10.9427
-10.9586
-10.9742
-10.9894
-11.0045
-11.0193
-11.0341
-11.0488
-11.0634
-11.078
-11.0927
-11.1074
-11.1222
-11.1371
-11.1523
-11.1677
-11.1835
-11.2
-11.2174
-11.2362
-11.2566
-11.2793
-11.304
-10.7957
-10.7946
-10.8052
-10.8212
-10.8385
-10.8569
-10.8753
-10.8931
-10.9103
-10.9269
-10.943
-10.9587
-10.974
-10.9891
-11.004
-11.0187
-11.0334
-11.048
-11.0625
-11.0771
-11.0918
-11.1065
-11.1213
-11.1363
-11.1516
-11.1672
-11.1833
-11.2001
-11.2178
-11.2366
-11.2569
-11.2789
-11.3025
-10.8041
-10.8047
-10.8141
-10.8285
-10.8442
-10.8611
-10.8782
-10.8951
-10.9116
-10.9277
-10.9434
-10.9587
-10.9738
-10.9887
-11.0034
-11.018
-11.0325
-11.047
-11.0615
-11.076
-11.0906
-11.1053
-11.1202
-11.1352
-11.1506
-11.1663
-11.1825
-11.1994
-11.2172
-11.2359
-11.2559
-11.2772
-11.2997
-10.8123
-10.8137
-10.8221
-10.8348
-10.8492
-10.8648
-10.8809
-10.897
-10.9128
-10.9284
-10.9437
-10.9588
-10.9736
-10.9882
-11.0028
-11.0172
-11.0316
-11.0459
-11.0603
-11.0748
-11.0893
-11.1039
-11.1187
-11.1338
-11.1491
-11.1649
-11.1811
-11.198
-11.2156
-11.2342
-11.2537
-11.2743
-11.2958
-10.8201
-10.8219
-10.8295
-10.841
-10.8542
-10.8686
-10.8837
-10.899
-10.9141
-10.9292
-10.9441
-10.9588
-10.9733
-10.9877
-11.002
-11.0163
-11.0305
-11.0447
-11.0589
-11.0733
-11.0877
-11.1022
-11.1169
-11.1319
-11.1472
-11.1629
-11.1791
-11.1958
-11.2132
-11.2314
-11.2504
-11.2703
-11.2909
-10.8274
-10.8294
-10.8363
-10.8467
-10.8588
-10.8722
-10.8864
-10.9009
-10.9154
-10.9299
-10.9444
-10.9587
-10.9729
-10.9871
-11.0012
-11.0152
-11.0292
-11.0433
-11.0574
-11.0715
-11.0858
-11.1002
-11.1148
-11.1297
-11.1448
-11.1604
-11.1764
-11.1929
-11.21
-11.2277
-11.2462
-11.2652
-11.285
-10.8343
-10.8362
-10.8426
-10.8521
-10.8632
-10.8757
-10.889
-10.9027
-10.9167
-10.9307
-10.9446
-10.9586
-10.9725
-10.9864
-11.0002
-11.014
-11.0278
-11.0417
-11.0556
-11.0695
-11.0836
-11.0979
-11.1123
-11.127
-11.142
-11.1573
-11.173
-11.1892
-11.2059
-11.2231
-11.241
-11.2593
-11.2781
-10.8406
-10.8425
-10.8484
-10.857
-10.8673
-10.879
-10.8915
-10.9045
-10.9178
-10.9313
-10.9448
-10.9584
-10.9719
-10.9855
-10.9991
-11.0126
-11.0262
-11.0398
-11.0535
-11.0673
-11.0812
-11.0952
-11.1094
-11.1239
-11.1386
-11.1536
-11.169
-11.1848
-11.201
-11.2177
-11.2349
-11.2524
-11.2704
-10.8463
-10.8482
-10.8536
-10.8615
-10.8711
-10.882
-10.8937
-10.9061
-10.9188
-10.9318
-10.9449
-10.9581
-10.9713
-10.9845
-10.9978
-11.0111
-11.0244
-11.0378
-11.0512
-11.0647
-11.0784
-11.0922
-11.1061
-11.1203
-11.1347
-11.1494
-11.1644
-11.1797
-11.1954
-11.2115
-11.2279
-11.2447
-11.2618
-10.8516
-10.8533
-10.8583
-10.8657
-10.8745
-10.8847
-10.8958
-10.9075
-10.9197
-10.9322
-10.9448
-10.9576
-10.9704
-10.9833
-10.9963
-11.0093
-11.0224
-11.0355
-11.0486
-11.0619
-11.0753
-11.0888
-11.1024
-11.1162
-11.1303
-11.1446
-11.1591
-11.1739
-11.189
-11.2044
-11.2201
-11.2361
-11.2523
-10.8562
-10.8578
-10.8625
-10.8693
-10.8776
-10.8871
-10.8976
-10.9087
-10.9204
-10.9324
-10.9446
-10.9569
-10.9694
-10.982
-10.9946
-11.0073
-11.0201
-11.0329
-11.0458
-11.0587
-11.0718
-11.085
-11.0983
-11.1117
-11.1253
-11.1392
-11.1532
-11.1674
-11.1819
-11.1966
-11.2115
-11.2266
-11.2419
-10.8603
-10.8618
-10.8662
-10.8725
-10.8802
-10.8892
-10.8991
-10.9097
-10.9208
-10.9323
-10.9441
-10.9561
-10.9682
-10.9805
-10.9928
-11.0051
-11.0176
-11.0301
-11.0426
-11.0553
-11.068
-11.0808
-11.0937
-11.1067
-11.1199
-11.1332
-11.1467
-11.1603
-11.1741
-11.1881
-11.2022
-11.2164
-11.2308
-10.8638
-10.8652
-10.8693
-10.8752
-10.8825
-10.8909
-10.9003
-10.9104
-10.921
-10.9321
-10.9435
-10.9551
-10.9668
-10.9787
-10.9907
-11.0027
-11.0148
-11.027
-11.0392
-11.0514
-11.0638
-11.0762
-11.0886
-11.1012
-11.1139
-11.1267
-11.1395
-11.1525
-11.1656
-11.1788
-11.1921
-11.2054
-11.2188
-10.8668
-10.8681
-10.8719
-10.8774
-10.8842
-10.8922
-10.9011
-10.9108
-10.921
-10.9316
-10.9426
-10.9538
-10.9652
-10.9767
-10.9883
-11
-11.0117
-11.0235
-11.0354
-11.0473
-11.0592
-11.0712
-11.0832
-11.0953
-11.1074
-11.1196
-11.1318
-11.1441
-11.1565
-11.1689
-11.1813
-11.1938
-11.2062
-10.8691
-10.8704
-10.8739
-10.8791
-10.8856
-10.8931
-10.9016
-10.9108
-10.9206
-10.9308
-10.9414
-10.9522
-10.9632
-10.9744
-10.9857
-10.997
-11.0084
-11.0198
-11.0313
-11.0428
-11.0542
-11.0658
-11.0773
-11.0888
-11.1004
-11.112
-11.1236
-11.1352
-11.1468
-11.1584
-11.1699
-11.1814
-11.1929
-10.8709
-10.872
-10.8754
-10.8803
-10.8864
-10.8936
-10.9016
-10.9105
-10.9199
-10.9297
-10.9399
-10.9504
-10.9611
-10.9719
-10.9828
-10.9938
-11.0048
-11.0158
-11.0269
-11.0379
-11.049
-11.06
-11.071
-11.082
-11.093
-11.104
-11.1149
-11.1257
-11.1365
-11.1473
-11.158
-11.1685
-11.179
-10.872
-10.8731
-10.8763
-10.8809
-10.8867
-10.8935
-10.9012
-10.9097
-10.9187
-10.9282
-10.9381
-10.9482
-10.9585
-10.969
-10.9795
-10.9901
-11.0008
-11.0114
-11.0221
-11.0327
-11.0433
-11.0538
-11.0643
-11.0748
-11.0851
-11.0954
-11.1056
-11.1158
-11.1258
-11.1357
-11.1455
-11.1551
-11.1646
-10.8725
-10.8735
-10.8765
-10.8809
-10.8865
-10.893
-10.9004
-10.9086
-10.9173
-10.9265
-10.936
-10.9458
-10.9558
-10.9659
-10.9761
-10.9864
-10.9966
-11.0069
-11.0171
-11.0273
-11.0374
-11.0474
-11.0574
-11.0672
-11.0769
-11.0866
-11.0961
-11.1054
-11.1146
-11.1237
-11.1326
-11.1413
-11.1497
-10.8723
-10.8733
-10.8761
-10.8803
-10.8855
-10.8918
-10.8989
-10.9068
-10.9152
-10.924
-10.9333
-10.9428
-10.9525
-10.9623
-10.9721
-10.982
-10.9919
-11.0018
-11.0116
-11.0213
-11.031
-11.0405
-11.0499
-11.0591
-11.0683
-11.0772
-11.086
-11.0946
-11.103
-11.1112
-11.1192
-11.127
-11.1345
-10.8715
-10.8724
-10.8752
-10.8792
-10.8843
-10.8904
-10.8974
-10.905
-10.9132
-10.9218
-10.9308
-10.94
-10.9494
-10.9589
-10.9684
-10.978
-10.9875
-10.9969
-11.0063
-11.0155
-11.0246
-11.0336
-11.0424
-11.0511
-11.0596
-11.0678
-11.0759
-11.0837
-11.0913
-11.0987
-11.1058
-11.1126
-11.1191
-10.8699
-10.8707
-10.8732
-10.8769
-10.8817
-10.8874
-10.8941
-10.9015
-10.9094
-10.9179
-10.9266
-10.9356
-10.9448
-10.954
-10.9633
-10.9726
-10.9818
-10.9909
-10.9999
-11.0087
-11.0174
-11.0259
-11.0342
-11.0423
-11.0502
-11.0578
-11.0652
-11.0723
-11.0791
-11.0857
-11.0919
-11.0979
-11.1035
-10.8677
-10.8688
-10.8714
-10.8753
-10.8802
-10.886
-10.8927
-10.9
-10.9078
-10.916
-10.9245
-10.9332
-10.942
-10.9509
-10.9598
-10.9687
-10.9775
-10.9861
-10.9946
-11.003
-11.0111
-11.019
-11.0267
-11.0342
-11.0414
-11.0483
-11.055
-11.0613
-11.0673
-11.073
-11.0784
-11.0834
-11.0881
-10.8644
-10.8646
-10.8663
-10.8693
-10.8736
-10.8791
-10.8855
-10.8928
-10.9006
-10.9089
-10.9175
-10.9262
-10.9351
-10.944
-10.9528
-10.9616
-10.9702
-10.9787
-10.987
-10.995
-11.0029
-11.0104
-11.0177
-11.0247
-11.0313
-11.0377
-11.0437
-11.0494
-11.0548
-11.0597
-11.0644
-11.0686
-11.0724
-10.8618
-10.8638
-10.8669
-10.8708
-10.8756
-10.8812
-10.8875
-10.8945
-10.9019
-10.9097
-10.9178
-10.926
-10.9343
-10.9427
-10.9509
-10.9591
-10.9672
-10.975
-10.9827
-10.9901
-10.9973
-11.0042
-11.0108
-11.0171
-11.0231
-11.0287
-11.034
-11.0389
-11.0434
-11.0476
-11.0513
-11.0547
-11.0576
-10.8537
-10.8516
-10.8512
-10.8533
-10.8576
-10.8635
-10.8705
-10.8784
-10.8868
-10.8956
-10.9045
-10.9136
-10.9226
-10.9315
-10.9403
-10.9489
-10.9572
-10.9653
-10.973
-10.9804
-10.9876
-10.9943
-11.0007
-11.0067
-11.0124
-11.0176
-11.0224
-11.0268
-11.0308
-11.0344
-11.0375
-11.0402
-11.0424
-10.8586
-10.864
-10.8681
-10.8711
-10.8747
-10.8793
-10.8847
-10.8909
-10.8976
-10.9047
-10.9121
-10.9197
-10.9273
-10.935
-10.9426
-10.95
-10.9573
-10.9643
-10.9712
-10.9777
-10.9839
-10.9898
-10.9954
-11.0006
-11.0054
-11.0098
-11.0138
-11.0174
-11.0206
-11.0233
-11.0256
-11.0274
-11.0288
-10.8293
-10.8182
-10.8148
-10.8184
-10.8256
-10.8344
-10.8443
-10.8546
-10.8653
-10.8759
-10.8864
-10.8967
-10.9066
-10.9162
-10.9255
-10.9343
-10.9427
-10.9507
-10.9583
-10.9654
-10.972
-10.9783
-10.984
-10.9893
-10.9941
-10.9984
-11.0023
-11.0056
-11.0085
-11.0108
-11.0127
-11.0141
-11.015
-10.8762
-10.8922
-10.8934
-10.8875
-10.8851
-10.8858
-10.8884
-10.8923
-10.8972
-10.9028
-10.9089
-10.9154
-10.922
-10.9287
-10.9354
-10.942
-10.9484
-10.9546
-10.9605
-10.9662
-10.9715
-10.9764
-10.981
-10.9852
-10.9889
-10.9923
-10.9951
-10.9976
-10.9995
-11.001
-11.002
-11.0026
-11.0026
-10.7664
-10.7283
-10.7227
-10.7462
-10.766
-10.7838
-10.8015
-10.8182
-10.834
-10.8487
-10.8625
-10.8753
-10.8873
-10.8985
-10.9089
-10.9186
-10.9277
-10.9361
-10.9438
-10.951
-10.9576
-10.9635
-10.9689
-10.9738
-10.978
-10.9817
-10.9848
-10.9874
-10.9894
-10.9909
-10.9918
-10.9921
-10.9919
-10.9782
-11.0026
-10.9732
-10.9363
-10.9126
-10.9045
-10.901
-10.8998
-10.901
-10.9039
-10.9079
-10.9126
-10.9178
-10.9232
-10.9288
-10.9343
-10.9398
-10.9451
-10.9502
-10.955
-10.9595
-10.9636
-10.9673
-10.9707
-10.9736
-10.976
-10.978
-10.9796
-10.9806
-10.9812
-10.9813
-10.9808
-10.9799
-10.5626
-10.4808
-10.5377
-10.6184
-10.6745
-10.7124
-10.7453
-10.7739
-10.7983
-10.8195
-10.8382
-10.8548
-10.8696
-10.883
-10.8951
-10.906
-10.9159
-10.925
-10.9331
-10.9405
-10.9472
-10.9531
-10.9583
-10.9629
-10.9668
-10.97
-10.9726
-10.9746
-10.976
-10.9768
-10.977
-10.9765
-10.9755
-11.5388
-11.2607
-11.0548
-10.9633
-10.926
-10.905
-10.8918
-10.8857
-10.8844
-10.8859
-10.8892
-10.8937
-10.8989
-10.9046
-10.9104
-10.9163
-10.9221
-10.9277
-10.933
-10.938
-10.9427
-10.9469
-10.9507
-10.9541
-10.957
-10.9593
-10.9612
-10.9626
-10.9634
-10.9638
-10.9635
-10.9628
-10.9615
-9.58071
-10.1422
-10.4467
-10.5625
-10.6437
-10.7068
-10.7514
-10.7849
-10.8116
-10.8334
-10.8515
-10.867
-10.8805
-10.8924
-10.903
-10.9125
-10.9211
-10.9289
-10.9359
-10.9421
-10.9477
-10.9527
-10.9569
-10.9606
-10.9636
-10.9661
-10.9679
-10.9691
-10.9697
-10.9697
-10.9692
-10.968
-10.9663
-10.8574
-11.0972
-11.2282
-11.3316
-11.4211
-11.4918
-11.5596
-11.6391
-11.7403
-11.8606
-11.9972
-12.1449
-12.2976
-12.4496
-12.5946
-12.7278
-12.8454
-12.945
-13.025
-13.0851
-13.1254
-13.1466
-13.1496
-13.1357
-13.1057
-13.0609
-13.0022
-12.9307
-12.847
-12.7522
-12.6467
-12.5312
-12.4063
-12.2721
-12.1288
-11.9764
-11.8144
-11.6422
-11.459
-11.2634
-11.0537
-10.828
-10.584
-10.3191
-10.0306
-9.71543
-9.37077
-8.99383
-8.58217
-8.13397
-7.64825
-7.12522
-6.56677
-5.97695
-5.36266
-4.73428
-4.10548
-3.49104
-2.90429
-2.3564
-1.85649
-1.41113
-1.02396
-0.695537
-0.423756
-0.204425
-0.0320165
0.0996416
0.196813
0.265459
0.311005
0.338229
0.351222
0.353419
0.347644
0.336179
0.320835
0.303024
0.283817
0.264016
0.244196
0.224756
0.205958
0.187963
0.170861
0.154675
0.139406
0.125006
0.11145
0.0986353
0.0866041
0.0750875
0.0644693
0.0537896
0.0449081
0.03388
0.028769
0.0129992
0.0203764
-0.01812
-11.6329
-11.729
-11.6518
-11.5799
-11.5433
-11.5326
-11.5508
-11.6014
-11.6847
-11.7969
-11.9326
-12.0826
-12.2372
-12.3901
-12.5343
-12.6653
-12.7797
-12.8758
-12.9526
-13.0101
-13.0485
-13.0684
-13.0707
-13.0563
-13.0261
-12.9813
-12.9227
-12.8513
-12.768
-12.6735
-12.5685
-12.4537
-12.3294
-12.1959
-12.0533
-11.9016
-11.7403
-11.5689
-11.3862
-11.191
-10.9817
-10.7563
-10.5125
-10.2478
-9.95936
-9.64444
-9.30016
-8.92384
-8.51313
-8.06628
-7.58245
-7.0622
-6.50808
-5.92506
-5.32107
-4.70696
-4.09519
-3.49811
-2.92724
-2.39302
-1.90422
-1.46721
-1.08557
-0.760057
-0.488887
-0.268303
-0.0932351
0.0420513
0.143446
0.216608
0.266736
0.298443
0.315711
0.321905
0.319812
0.3117
0.29938
0.284276
0.26748
0.249815
0.231882
0.214105
0.196771
0.180061
0.164087
0.148889
0.134484
0.120839
0.107941
0.0956954
0.0841597
0.0730615
0.0628163
0.0524254
0.0438426
0.0329643
0.028164
0.0123222
0.020228
-0.0187855
-11.2677
-11.2713
-11.2981
-11.3566
-11.4226
-11.4831
-11.5434
-11.6134
-11.701
-11.8051
-11.9227
-12.0515
-12.1874
-12.3249
-12.4579
-12.5821
-12.6932
-12.7885
-12.8657
-12.9241
-12.9634
-12.9839
-12.9866
-12.9724
-12.9425
-12.8978
-12.8394
-12.7682
-12.6852
-12.5911
-12.4866
-12.3722
-12.2484
-12.1154
-11.9733
-11.822
-11.6611
-11.4899
-11.3073
-11.1122
-10.9029
-10.6773
-10.4332
-10.1682
-9.87954
-9.56438
-9.21995
-8.84365
-8.43328
-7.98742
-7.5058
-6.98975
-6.44252
-5.86973
-5.27952
-4.68181
-4.08729
-3.50683
-2.95116
-2.43019
-1.95225
-1.52347
-1.14736
-0.824832
-0.554394
-0.332696
-0.155109
-0.0163152
0.0892089
0.166825
0.221502
0.257686
0.279245
0.28947
0.291105
0.286401
0.277167
0.264834
0.250514
0.235049
0.219064
0.203008
0.187191
0.171816
0.157015
0.142846
0.129342
0.116484
0.104273
0.0926232
0.081606
0.0709478
0.061093
0.0510107
0.0427361
0.032033
0.027533
0.0116768
0.0200322
-0.0193261
-11.3747
-11.4776
-11.5193
-11.5295
-11.5409
-11.5597
-11.5914
-11.6418
-11.7135
-11.8046
-11.912
-12.0322
-12.1595
-12.2861
-12.4085
-12.522
-12.6231
-12.7096
-12.78
-12.8336
-12.8699
-12.8893
-12.8919
-12.8785
-12.8497
-12.8064
-12.7493
-12.6794
-12.5975
-12.5043
-12.4005
-12.2867
-12.1634
-12.0307
-11.8889
-11.7377
-11.5767
-11.4053
-11.2224
-11.0268
-10.8168
-10.5905
-10.3456
-10.0796
-9.78988
-9.47376
-9.12861
-8.75211
-8.34255
-7.89906
-7.42187
-6.91274
-6.37532
-5.81538
-5.24043
-4.65921
-4.08129
-3.51679
-2.97583
-2.46776
-2.00047
-1.57981
-1.20924
-0.889763
-0.62018
-0.397517
-0.217557
-0.0753864
0.0341633
0.11616
0.175343
0.215988
0.241844
0.256125
0.26153
0.260284
0.254192
0.244693
0.23291
0.219708
0.205733
0.191455
0.177208
0.163219
0.149636
0.136537
0.123972
0.111935
0.100442
0.0894143
0.0789397
0.0687439
0.0592983
0.0495446
0.04159
0.0310862
0.026881
0.0110612
0.0198022
-0.0197434
-11.3388
-11.3783
-11.396
-11.4208
-11.46
-11.5064
-11.5596
-11.6236
-11.7013
-11.7924
-11.8948
-12.006
-12.1217
-12.2377
-12.3501
-12.4552
-12.5497
-12.6311
-12.6977
-12.7484
-12.7825
-12.8
-12.8014
-12.787
-12.7577
-12.7143
-12.6574
-12.5879
-12.5065
-12.4139
-12.3107
-12.1973
-12.0743
-11.9418
-11.7998
-11.6483
-11.4868
-11.3146
-11.1307
-10.9339
-10.7226
-10.4948
-10.2483
-9.98082
-9.68988
-9.37299
-9.02785
-8.65251
-8.24557
-7.80646
-7.33579
-6.83567
-6.30989
-5.76378
-5.2041
-4.63881
-4.07688
-3.52782
-3.00114
-2.50566
-2.04881
-1.63617
-1.27112
-0.954764
-0.686156
-0.462673
-0.280491
-0.135079
-0.0216145
0.0646803
0.128317
0.173398
0.203551
0.221907
0.231114
0.23337
0.230473
0.223864
0.214679
0.203799
0.19189
0.179447
0.166825
0.154269
0.14195
0.129963
0.118374
0.107191
0.096446
0.0860681
0.0761601
0.0664491
0.0574309
0.0480259
0.0404018
0.0301218
0.026204
0.0104723
0.0195304
-0.0200408
-11.3422
-11.3924
-11.4326
-11.4668
-11.5014
-11.539
-11.5834
-11.6387
-11.7072
-11.7885
-11.8808
-11.9815
-12.0869
-12.1929
-12.2957
-12.3917
-12.478
-12.5523
-12.613
-12.659
-12.6897
-12.7051
-12.7053
-12.6905
-12.6614
-12.6184
-12.5622
-12.4934
-12.4128
-12.3208
-12.2181
-12.1052
-11.9823
-11.8496
-11.7073
-11.5551
-11.3926
-11.2192
-11.034
-10.8355
-10.6225
-10.3929
-10.1449
-9.87623
-9.58458
-9.26771
-8.92357
-8.55047
-8.14733
-7.71395
-7.25122
-6.76128
-6.24763
-5.7152
-5.17028
-4.62036
-4.07389
-3.5398
-3.02702
-2.54381
-2.09719
-1.69247
-1.33293
-1.01976
-0.752243
-0.528087
-0.343835
-0.195322
-0.0780619
0.0124412
0.0804704
0.129955
0.164397
0.186839
0.199874
0.205673
0.206018
0.202352
0.195821
0.187321
0.177537
0.166983
0.156037
0.144964
0.133954
0.12312
0.112544
0.102251
0.0922833
0.0825826
0.0732655
0.064062
0.0554897
0.0464536
0.0391708
0.0291392
0.0255014
0.0099101
0.019215
-0.0202175
-11.3384
-11.3792
-11.4127
-11.4434
-11.4786
-11.5199
-11.5683
-11.6257
-11.6935
-11.7714
-11.858
-11.9512
-12.0482
-12.1452
-12.2391
-12.3268
-12.4057
-12.4737
-12.5292
-12.5711
-12.5987
-12.6116
-12.61
-12.594
-12.564
-12.5206
-12.4644
-12.3958
-12.3154
-12.2239
-12.1215
-12.0088
-11.8861
-11.7534
-11.6107
-11.458
-11.2947
-11.1202
-10.9337
-10.7338
-10.5193
-10.2883
-10.0391
-9.76962
-9.47775
-9.16152
-8.81913
-8.44919
-8.05087
-7.62414
-7.1699
-6.69023
-6.18847
-5.66929
-5.13866
-4.60364
-4.07217
-3.55263
-3.05337
-2.58215
-2.14556
-1.74865
-1.39459
-1.08467
-0.818361
-0.593678
-0.40751
-0.256043
-0.135111
-0.0404977
0.0318555
0.0857028
0.124416
0.150948
0.167834
0.177209
0.18084
0.180167
0.176343
0.170277
0.162672
0.154062
0.144843
0.135302
0.125645
0.116006
0.106481
0.0971104
0.087952
0.0789565
0.0702549
0.0615818
0.053474
0.0448272
0.0378967
0.0281381
0.0247728
0.00937392
0.0188555
-0.0202746
-11.3353
-11.3732
-11.4087
-11.4432
-11.4805
-11.5219
-11.5687
-11.6229
-11.6859
-11.7575
-11.8367
-11.9214
-12.0095
-12.0976
-12.1829
-12.2627
-12.3345
-12.3962
-12.4463
-12.4838
-12.5078
-12.5181
-12.5145
-12.4972
-12.4665
-12.4227
-12.3663
-12.2978
-12.2177
-12.1263
-12.0242
-11.9116
-11.7887
-11.6558
-11.5128
-11.3594
-11.1953
-11.0198
-10.8321
-10.631
-10.4152
-10.1832
-9.93317
-9.66335
-9.37185
-9.05689
-8.71689
-8.35066
-7.95753
-7.53758
-7.09178
-6.62218
-6.13202
-5.62576
-5.10903
-4.5885
-4.07162
-3.56624
-3.08015
-2.62062
-2.19385
-1.80463
-1.45604
-1.14942
-0.88443
-0.659365
-0.471438
-0.317165
-0.192693
-0.0940734
-0.017473
0.0406875
0.0836477
0.114268
0.135019
0.147999
0.154954
0.157319
0.156253
0.152673
0.147301
0.140685
0.133244
0.125282
0.117023
0.108619
0.100184
0.0917702
0.0834514
0.075189
0.0671275
0.0590078
0.0513834
0.0431464
0.036579
0.0271181
0.0240179
0.00886284
0.0184521
-0.0202143
-11.3315
-11.3665
-11.4009
-11.4351
-11.4717
-11.5124
-11.5583
-11.6108
-11.6706
-11.7376
-11.8108
-11.8885
-11.9687
-12.0488
-12.1262
-12.1984
-12.2634
-12.3191
-12.3641
-12.3973
-12.4179
-12.4255
-12.4199
-12.4012
-12.3695
-12.3252
-12.2685
-12.1998
-12.1197
-12.0284
-11.9264
-11.8138
-11.691
-11.5579
-11.4145
-11.2605
-11.0957
-10.9193
-10.7306
-10.5285
-10.3118
-10.079
-9.8285
-9.55872
-9.26793
-8.95455
-8.61719
-8.25484
-7.867
-7.45385
-7.01644
-6.55679
-6.07803
-5.5844
-5.08125
-4.57485
-4.07217
-3.58055
-3.10729
-2.65916
-2.24201
-1.86036
-1.51721
-1.21393
-0.950373
-0.725068
-0.535537
-0.378611
-0.250734
-0.14822
-0.0674565
-0.00503999
0.0421357
0.0768335
0.101458
0.118065
0.128378
0.133824
0.135561
0.134518
0.131428
0.126858
0.121243
0.114906
0.108089
0.100962
0.0936523
0.0862298
0.0787813
0.0712799
0.0638832
0.0563399
0.0492177
0.0414111
0.0352177
0.026079
0.0232368
0.00837563
0.0180055
-0.0200404
-11.327
-11.3599
-11.3934
-11.4276
-11.4641
-11.5043
-11.5489
-11.5989
-11.655
-11.717
-11.784
-11.8548
-11.9274
-11.9998
-12.0696
-12.1347
-12.193
-12.2429
-12.2828
-12.3117
-12.3288
-12.3337
-12.326
-12.3057
-12.273
-12.2279
-12.1708
-12.102
-12.0218
-11.9306
-11.8285
-11.716
-11.593
-11.4597
-11.316
-11.1615
-10.9961
-10.8189
-10.6294
-10.4265
-10.209
-9.97564
-9.72499
-9.45552
-9.16572
-8.85417
-8.51968
-8.16141
-7.77899
-7.37272
-6.94368
-6.49388
-6.02634
-5.54511
-5.05523
-4.5626
-4.07375
-3.59552
-3.13473
-2.69772
-2.28997
-1.91578
-1.57803
-1.27815
-1.01612
-0.790708
-0.599728
-0.440303
-0.309159
-0.202869
-0.118034
-0.0514257
-7.39655e-05
0.0386845
0.0671846
0.0874354
0.101135
0.109698
0.114282
0.115822
0.115063
0.112587
0.108845
0.104178
0.0988467
0.0930349
0.0868885
0.0804907
0.0739429
0.0672302
0.0605228
0.0535788
0.0469774
0.0396214
0.033813
0.0250203
0.0224297
0.00791089
0.0175174
-0.0197582
-11.3217
-11.3528
-11.3852
-11.4187
-11.4544
-11.4933
-11.5362
-11.5837
-11.6361
-11.6934
-11.7549
-11.8193
-11.885
-11.9503
-12.013
-12.0713
-12.1233
-12.1675
-12.2024
-12.2271
-12.2408
-12.2428
-12.2329
-12.2109
-12.1769
-12.131
-12.0734
-12.0043
-11.9239
-11.8326
-11.7305
-11.6179
-11.4948
-11.3613
-11.2172
-11.0624
-10.8963
-10.7186
-10.5283
-10.3248
-10.1068
-9.87313
-9.62255
-9.35365
-9.06509
-8.75563
-8.42424
-8.07022
-7.69336
-7.29404
-6.87337
-6.43335
-5.97688
-5.50782
-5.03091
-4.5517
-4.07629
-3.61108
-3.16242
-2.73624
-2.33768
-1.97082
-1.63845
-1.34199
-1.08158
-0.856207
-0.663931
-0.50216
-0.367894
-0.257949
-0.16914
-0.0984122
-0.0429312
-0.000136431
0.0322341
0.05614
0.07325
0.0849628
0.0924327
0.0965994
0.0982165
0.0978805
0.0960573
0.0931053
0.0893
0.084843
0.0798955
0.0745555
0.0689383
0.0630417
0.0570477
0.0507256
0.0446634
0.037778
0.0323654
0.0239422
0.0215971
0.00746689
0.0169898
-0.0193742
-11.3155
-11.3451
-11.3762
-11.4088
-11.4435
-11.481
-11.5219
-11.5667
-11.6156
-11.6683
-11.7244
-11.7828
-11.842
-11.9005
-11.9565
-12.0084
-12.0543
-12.093
-12.1231
-12.1436
-12.1537
-12.1528
-12.1406
-12.1169
-12.0815
-12.0347
-11.9763
-11.9068
-11.8261
-11.7346
-11.6325
-11.5197
-11.3965
-11.2627
-11.1183
-10.963
-10.7965
-10.6182
-10.4275
-10.2234
-10.0051
-9.77141
-9.52114
-9.25307
-8.96602
-8.65889
-8.33081
-7.98124
-7.61007
-7.21777
-6.80548
-6.37516
-5.9296
-5.47246
-5.00823
-4.54209
-4.07976
-3.62719
-3.19033
-2.77469
-2.38511
-2.02545
-1.6984
-1.4054
-1.1467
-0.921488
-0.728066
-0.564104
-0.426859
-0.313387
-0.220708
-0.145939
-0.0863827
-0.0395828
-0.00335339
0.0242127
0.044751
0.0596419
0.0700333
0.0768665
0.0809029
0.0827506
0.08289
0.0816946
0.079456
0.0763918
0.0726784
0.0684284
0.0637712
0.0587173
0.0534605
0.0477823
0.0422774
0.035882
0.0308759
0.0228446
0.0207397
0.00704187
0.0164257
-0.0188965
-11.3085
-11.3366
-11.3664
-11.3978
-11.4311
-11.4669
-11.5057
-11.5477
-11.593
-11.6414
-11.6924
-11.7451
-11.7982
-11.8504
-11.9001
-11.9458
-11.9861
-12.0194
-12.0448
-12.0612
-12.0677
-12.0639
-12.0493
-12.0236
-11.9868
-11.9388
-11.8797
-11.8096
-11.7286
-11.6368
-11.5344
-11.4214
-11.298
-11.164
-11.0193
-10.8637
-10.6967
-10.518
-10.3269
-10.1225
-9.9041
-9.67055
-9.42082
-9.15384
-8.86853
-8.56397
-8.23942
-7.89447
-7.52912
-7.14389
-6.73998
-6.31927
-5.88445
-5.439
-4.98714
-4.53373
-4.0841
-3.64381
-3.2184
-2.81301
-2.4322
-2.07961
-1.75782
-1.4683
-1.2114
-0.986475
-0.792054
-0.626054
-0.485978
-0.369108
-0.272668
-0.193943
-0.130371
-0.0796043
-0.0395341
-0.00830892
0.0156703
0.0337628
0.047107
0.0566432
0.0631388
0.0672117
0.0693551
0.069957
0.069324
0.0676892
0.0652439
0.0621154
0.0584466
0.0542615
0.0497648
0.0447519
0.0398218
0.0339353
0.0293459
0.021728
0.0198586
0.00663378
0.0158287
-0.0183345
-11.3005
-11.3273
-11.3557
-11.3857
-11.4175
-11.4515
-11.4879
-11.527
-11.5688
-11.6131
-11.6592
-11.7065
-11.7539
-11.8002
-11.8439
-11.8838
-11.9185
-11.9468
-11.9675
-11.9798
-11.9828
-11.976
-11.9589
-11.9313
-11.8929
-11.8437
-11.7836
-11.7128
-11.6313
-11.5391
-11.4364
-11.3232
-11.1995
-11.0652
-10.9203
-10.7643
-10.5971
-10.4181
-10.2267
-10.0222
-9.8038
-9.57062
-9.32167
-9.056
-8.77268
-8.47091
-8.15009
-7.80992
-7.45049
-7.07241
-6.67684
-6.26565
-5.8414
-5.4074
-4.9676
-4.52657
-4.08927
-3.6609
-3.2466
-2.85118
-2.47892
-2.13325
-1.81668
-1.53065
-1.27562
-1.05109
-0.855816
-0.687929
-0.545169
-0.425035
-0.324947
-0.242356
-0.174837
-0.120147
-0.0762608
-0.0413836
-0.0139563
0.0073563
0.0236801
0.0359525
0.044944
0.0512808
0.0554675
0.0579054
0.0589153
0.0587451
0.0576009
0.0556241
0.0529712
0.0496799
0.0459655
0.0416386
0.0373
0.0319403
0.0277776
0.0205933
0.0189554
0.0062408
0.0152029
-0.0176985
-11.2917
-11.3171
-11.3441
-11.3725
-11.4026
-11.4346
-11.4686
-11.5048
-11.5432
-11.5833
-11.6249
-11.6672
-11.7091
-11.7498
-11.7879
-11.8223
-11.8517
-11.875
-11.8913
-11.8996
-11.8991
-11.8893
-11.8697
-11.8399
-11.7998
-11.7493
-11.6882
-11.6165
-11.5344
-11.4417
-11.3387
-11.2251
-11.1012
-10.9666
-10.8214
-10.6652
-10.4977
-10.3184
-10.1269
-9.92247
-9.70434
-9.47173
-9.22378
-8.95965
-8.67854
-8.37976
-8.06286
-7.72762
-7.37422
-7.0033
-6.61605
-6.21427
-5.80042
-5.37761
-4.94958
-4.52058
-4.09525
-3.67842
-3.27489
-2.88916
-2.52523
-2.18634
-1.87491
-1.59239
-1.33929
-1.11527
-0.919275
-0.74965
-0.604351
-0.48109
-0.377471
-0.291109
-0.219716
-0.161154
-0.113482
-0.0749663
-0.0440891
-0.0195431
-0.000217005
0.0148205
0.0263414
0.0349781
0.0412449
0.0455554
0.0482437
0.0495718
0.04976
0.048964
0.0473534
0.0449799
0.0420689
0.0384476
0.0347164
0.0299005
0.0261737
0.0194418
0.0180319
0.00586092
0.0145525
-0.0170001
-11.282
-11.306
-11.3314
-11.3583
-11.3865
-11.4164
-11.448
-11.4813
-11.5162
-11.5525
-11.5896
-11.6271
-11.6639
-11.6993
-11.7321
-11.7612
-11.7856
-11.8042
-11.8161
-11.8204
-11.8165
-11.8037
-11.7815
-11.7496
-11.7077
-11.6557
-11.5935
-11.5209
-11.438
-11.3448
-11.2413
-11.1274
-11.0031
-10.8683
-10.7228
-10.5663
-10.3987
-10.2193
-10.0278
-9.82352
-9.60582
-9.37398
-9.12724
-8.86487
-8.58617
-8.2906
-7.97777
-7.64759
-7.3003
-6.93658
-6.5576
-6.16512
-5.76147
-5.34961
-4.93303
-4.51571
-4.10199
-3.69635
-3.30326
-2.92692
-2.57109
-2.23884
-1.93248
-1.65345
-1.40234
-1.17894
-0.982352
-0.811134
-0.663444
-0.53719
-0.430161
-0.34013
-0.26494
-0.202564
-0.151143
-0.109008
-0.0746848
-0.0468969
-0.0245507
-0.00672296
0.00735718
0.0183266
0.0267078
0.0329252
0.0373253
0.0401837
0.0417342
0.0421466
0.0416033
0.0401705
0.0380828
0.0351857
0.0320767
0.0278203
0.024538
0.0182756
0.0170907
0.0054927
0.0138829
-0.016251
-11.2713
-11.294
-11.3179
-11.343
-11.3694
-11.3971
-11.4261
-11.4565
-11.4881
-11.5205
-11.5535
-11.5864
-11.6184
-11.6488
-11.6765
-11.7007
-11.7202
-11.7343
-11.742
-11.7425
-11.7351
-11.7193
-11.6945
-11.6604
-11.6166
-11.5631
-11.4996
-11.426
-11.3424
-11.2485
-11.1444
-11.0301
-10.9055
-10.7703
-10.6246
-10.468
-10.3002
-10.1208
-9.92941
-9.72547
-9.50837
-9.27749
-9.03216
-8.77174
-8.49565
-8.20345
-7.89486
-7.56986
-7.22875
-6.87223
-6.50147
-6.11816
-5.72453
-5.32336
-4.91792
-4.51195
-4.10946
-3.71465
-3.33166
-2.96443
-2.61647
-2.2907
-1.98933
-1.71379
-1.46472
-1.24202
-1.04497
-0.872301
-0.722363
-0.593255
-0.482939
-0.389342
-0.31044
-0.244312
-0.189185
-0.143455
-0.105696
-0.0746628
-0.0492831
-0.0286443
-0.0119788
0.00135296
0.01188
0.0200361
0.0261793
0.0305979
0.0335388
0.0351855
0.035733
0.0352622
0.0340166
0.0318608
0.0293877
0.0257052
0.0228749
0.0170973
0.0161346
0.00513471
0.0131988
-0.0154638
-11.2599
-11.2811
-11.3034
-11.3268
-11.3512
-11.3766
-11.4031
-11.4306
-11.4589
-11.4877
-11.5167
-11.5452
-11.5727
-11.5983
-11.6213
-11.6407
-11.6557
-11.6654
-11.669
-11.6657
-11.655
-11.6361
-11.6087
-11.5723
-11.5267
-11.4716
-11.4067
-11.332
-11.2475
-11.1529
-11.0482
-10.9335
-10.8084
-10.673
-10.527
-10.3702
-10.2024
-10.0231
-9.83192
-9.62845
-9.41211
-9.18236
-8.93862
-8.68034
-8.40706
-8.1184
-7.81418
-7.49446
-7.15958
-6.81026
-6.44766
-6.07339
-5.68958
-5.29884
-4.90424
-4.50926
-4.11765
-3.7333
-3.36008
-3.00167
-2.66136
-2.3419
-2.04543
-1.77335
-1.52636
-1.30446
-1.10706
-0.933071
-0.781027
-0.649201
-0.535722
-0.438667
-0.35614
-0.286329
-0.227544
-0.17825
-0.13707
-0.102794
-0.0743725
-0.0509062
-0.0316328
-0.0159127
-0.0032117
0.00691221
0.0148273
0.0208339
0.0251912
0.0280964
0.0297567
0.0302676
0.0298813
0.0284824
0.0266575
0.0235619
0.0211901
0.0159107
0.0151675
0.00478648
0.012506
-0.0146504
-11.2476
-11.2673
-11.288
-11.3096
-11.332
-11.3552
-11.3792
-11.4038
-11.4289
-11.4542
-11.4793
-11.5037
-11.5268
-11.548
-11.5664
-11.5813
-11.5919
-11.5975
-11.5971
-11.5902
-11.5761
-11.5543
-11.5243
-11.4856
-11.438
-11.3812
-11.3149
-11.2391
-11.1535
-11.0582
-10.9529
-10.8375
-10.7121
-10.5763
-10.4301
-10.2732
-10.1054
-9.92625
-9.73546
-9.53258
-9.31716
-9.0887
-8.84672
-8.59077
-8.32045
-8.03548
-7.73576
-7.4214
-7.0928
-6.75067
-6.39615
-6.03078
-5.65659
-5.27602
-4.89195
-4.50762
-4.12652
-3.75228
-3.38851
-3.03862
-2.70572
-2.39241
-2.10074
-1.83209
-1.5872
-1.36617
-1.16854
-0.993363
-0.83935
-0.704942
-0.588426
-0.488024
-0.401965
-0.328542
-0.266154
-0.213332
-0.168751
-0.13124
-0.0997725
-0.0734667
-0.0515674
-0.0334364
-0.0185365
-0.0064187
0.00329436
0.0109142
0.0167118
0.0208976
0.0236905
0.0252012
0.0256895
0.0250617
0.0238956
0.0213983
0.0194901
0.0147203
0.0141937
0.00444784
0.0118098
-0.0138225
-11.2345
-11.2528
-11.2718
-11.2916
-11.3119
-11.3329
-11.3543
-11.3762
-11.3982
-11.42
-11.4414
-11.4619
-11.4809