/*--------------------------------*- C++ -*----------------------------------*\
  =========                 |
  \\      /  F ield         | OpenFOAM: The Open Source CFD Toolbox
   \\    /   O peration     | Website:  https://openfoam.org
    \\  /    A nd           | Version:  10
     \\/     M anipulation  |
\*---------------------------------------------------------------------------*/
FoamFile
{
    format      ascii;
    class       surfaceScalarField;
    location    "0.105";
    object      phi;
}
// * * * * * * * * * * * * * * * * * * * * * * * * * * * * * * * * * * * * * //

dimensions      [0 3 -1 0 0 0 0];

internalField   nonuniform List<scalar> 
13452
(
6.05771e-05
-3.08614e-07
6.03707e-05
2.06417e-07
5.98986e-05
4.72054e-07
5.92847e-05
6.13949e-07
5.86789e-05
6.05733e-07
5.81416e-05
5.37311e-07
5.76754e-05
4.66248e-07
5.72701e-05
4.05302e-07
5.69144e-05
3.55692e-07
5.65983e-05
3.16046e-07
5.63141e-05
2.84186e-07
5.6056e-05
2.58151e-07
5.58195e-05
2.36461e-07
5.56015e-05
2.18046e-07
5.53993e-05
2.02143e-07
5.52111e-05
1.88212e-07
5.50353e-05
1.75867e-07
5.48704e-05
1.64835e-07
5.47155e-05
1.54914e-07
5.45695e-05
1.45964e-07
5.44317e-05
1.37888e-07
5.4301e-05
1.30635e-07
5.41768e-05
1.24198e-07
5.40582e-05
1.18638e-07
5.39441e-05
1.14102e-07
5.38331e-05
1.10996e-07
5.37232e-05
1.09868e-07
5.36105e-05
1.12738e-07
5.34881e-05
1.22415e-07
5.33429e-05
1.45131e-07
5.31257e-05
2.17226e-07
5.28113e-05
3.14384e-07
5.90195e-07
5.22211e-05
6.18026e-05
-1.20902e-07
6.17624e-05
2.46593e-07
6.18792e-05
3.55342e-07
6.20405e-05
4.52649e-07
6.21469e-05
4.99329e-07
6.21759e-05
5.08316e-07
6.2142e-05
5.00135e-07
6.2066e-05
4.81298e-07
6.19643e-05
4.5737e-07
6.18481e-05
4.32195e-07
6.17247e-05
4.07595e-07
6.15986e-05
3.84322e-07
6.14724e-05
3.62647e-07
6.13478e-05
3.42597e-07
6.12259e-05
3.24091e-07
6.11071e-05
3.07006e-07
6.09917e-05
2.91217e-07
6.088e-05
2.76609e-07
6.07718e-05
2.63083e-07
6.06672e-05
2.50563e-07
6.05661e-05
2.38996e-07
6.04684e-05
2.2836e-07
6.03739e-05
2.18672e-07
6.02825e-05
2.10005e-07
6.01941e-05
2.02521e-07
6.01086e-05
1.96526e-07
6.00258e-05
1.92618e-07
5.99469e-05
1.91637e-07
5.98729e-05
1.96419e-07
5.9812e-05
2.06062e-07
5.97894e-05
2.39813e-07
5.98418e-05
2.62032e-07
3.7018e-07
6.00618e-05
6.36612e-05
-2.07192e-08
6.37527e-05
1.55084e-07
6.38147e-05
2.93364e-07
6.38674e-05
3.99986e-07
6.39103e-05
4.56392e-07
6.39418e-05
4.76784e-07
6.39621e-05
4.79837e-07
6.39697e-05
4.73772e-07
6.39648e-05
4.62209e-07
6.39493e-05
4.47705e-07
6.39251e-05
4.31776e-07
6.38942e-05
4.15292e-07
6.3858e-05
3.98789e-07
6.3818e-05
3.82589e-07
6.37752e-05
3.66875e-07
6.37305e-05
3.5175e-07
6.36845e-05
3.37269e-07
6.36376e-05
3.23461e-07
6.35903e-05
3.10345e-07
6.3543e-05
2.97938e-07
6.34957e-05
2.86267e-07
6.34487e-05
2.75379e-07
6.3402e-05
2.65354e-07
6.33557e-05
2.56322e-07
6.33097e-05
2.4851e-07
6.3264e-05
2.42251e-07
6.32183e-05
2.38227e-07
6.3173e-05
2.37032e-07
6.3128e-05
2.41359e-07
6.30843e-05
2.49765e-07
6.30487e-05
2.75399e-07
6.30138e-05
2.96923e-07
3.64843e-07
6.30192e-05
6.55759e-05
-1.35807e-08
6.55536e-05
1.77378e-07
6.55644e-05
2.82618e-07
6.56051e-05
3.59234e-07
6.56541e-05
4.0739e-07
6.56992e-05
4.3176e-07
6.57366e-05
4.42401e-07
6.57661e-05
4.44243e-07
6.57883e-05
4.40042e-07
6.58039e-05
4.32109e-07
6.58137e-05
4.21937e-07
6.58186e-05
4.10414e-07
6.58193e-05
3.98123e-07
6.58164e-05
3.85456e-07
6.58106e-05
3.72677e-07
6.58024e-05
3.59969e-07
6.57922e-05
3.47464e-07
6.57804e-05
3.35262e-07
6.57673e-05
3.23442e-07
6.57532e-05
3.12079e-07
6.57382e-05
3.01251e-07
6.57225e-05
2.9105e-07
6.57063e-05
2.81598e-07
6.56895e-05
2.73063e-07
6.56723e-05
2.65702e-07
6.56547e-05
2.59851e-07
6.56368e-05
2.5613e-07
6.56188e-05
2.55042e-07
6.56018e-05
2.58378e-07
6.55862e-05
2.65306e-07
6.55799e-05
2.81778e-07
6.55806e-05
2.9623e-07
3.23668e-07
6.56217e-05
6.74265e-05
1.6702e-08
6.74515e-05
1.52422e-07
6.74798e-05
2.54261e-07
6.75108e-05
3.28253e-07
6.75416e-05
3.76601e-07
6.75714e-05
4.0193e-07
6.76002e-05
4.13627e-07
6.76272e-05
4.17234e-07
6.76518e-05
4.15458e-07
6.76737e-05
4.10234e-07
6.76928e-05
4.02808e-07
6.77093e-05
3.93925e-07
6.77233e-05
3.84092e-07
6.77351e-05
3.73662e-07
6.77449e-05
3.6289e-07
6.77529e-05
3.51961e-07
6.77593e-05
3.41019e-07
6.77644e-05
3.30182e-07
6.77683e-05
3.19551e-07
6.77712e-05
3.09223e-07
6.77731e-05
2.99296e-07
6.77743e-05
2.89886e-07
6.77747e-05
2.81133e-07
6.77746e-05
2.73217e-07
6.77739e-05
2.6639e-07
6.77728e-05
2.60961e-07
6.77715e-05
2.57433e-07
6.77703e-05
2.56189e-07
6.77704e-05
2.58324e-07
6.77725e-05
2.63256e-07
6.77807e-05
2.73511e-07
6.77942e-05
2.82778e-07
2.95672e-07
6.78222e-05
6.93768e-05
2.38956e-08
6.93865e-05
1.42781e-07
6.94049e-05
2.35869e-07
6.94311e-05
3.02012e-07
6.9461e-05
3.46727e-07
6.94907e-05
3.72239e-07
6.9519e-05
3.85344e-07
6.95455e-05
3.90649e-07
6.95704e-05
3.90606e-07
6.95936e-05
3.87032e-07
6.96152e-05
3.81162e-07
6.96354e-05
3.73757e-07
6.96542e-05
3.65321e-07
6.96716e-05
3.56204e-07
6.96879e-05
3.46653e-07
6.9703e-05
3.36852e-07
6.97171e-05
3.26944e-07
6.97302e-05
3.17049e-07
6.97425e-05
3.07273e-07
6.9754e-05
2.97717e-07
6.97648e-05
2.88488e-07
6.9775e-05
2.79703e-07
6.97846e-05
2.71505e-07
6.97937e-05
2.64065e-07
6.98025e-05
2.57609e-07
6.98111e-05
2.52395e-07
6.98197e-05
2.48791e-07
6.98289e-05
2.47054e-07
6.98394e-05
2.47754e-07
6.98523e-05
2.50422e-07
6.987e-05
2.55785e-07
6.98926e-05
2.60219e-07
2.6408e-07
6.99242e-05
7.13593e-05
3.09038e-08
7.1371e-05
1.31089e-07
7.13921e-05
2.14737e-07
7.14182e-05
2.75999e-07
7.14459e-05
3.18989e-07
7.14731e-05
3.45082e-07
7.14991e-05
3.59266e-07
7.15241e-05
3.65666e-07
7.1548e-05
3.66708e-07
7.15709e-05
3.6415e-07
7.15929e-05
3.59212e-07
7.16139e-05
3.5267e-07
7.16342e-05
3.45036e-07
7.16538e-05
3.36669e-07
7.16726e-05
3.27822e-07
7.16908e-05
3.18681e-07
7.17083e-05
3.09391e-07
7.17253e-05
3.00071e-07
7.17417e-05
2.90827e-07
7.17577e-05
2.81761e-07
7.17732e-05
2.72977e-07
7.17883e-05
2.64589e-07
7.18031e-05
2.56728e-07
7.18176e-05
2.49547e-07
7.1832e-05
2.4323e-07
7.18464e-05
2.37975e-07
7.18612e-05
2.34028e-07
7.18767e-05
2.31527e-07
7.18938e-05
2.30697e-07
7.19131e-05
2.3112e-07
7.19361e-05
2.32726e-07
7.1963e-05
2.33331e-07
2.32158e-07
7.19949e-05
7.34033e-05
3.28435e-08
7.34141e-05
1.20365e-07
7.34328e-05
1.96e-07
7.34563e-05
2.52542e-07
7.34822e-05
2.93031e-07
7.35085e-05
3.18823e-07
7.35341e-05
3.33642e-07
7.35588e-05
3.40958e-07
7.35825e-05
3.42974e-07
7.36054e-05
3.41309e-07
7.36274e-05
3.3714e-07
7.36489e-05
3.31252e-07
7.36697e-05
3.24182e-07
7.36901e-05
3.16308e-07
7.371e-05
3.07898e-07
7.37295e-05
2.99151e-07
7.37487e-05
2.90219e-07
7.37676e-05
2.81226e-07
7.37861e-05
2.72279e-07
7.38044e-05
2.63479e-07
7.38224e-05
2.54925e-07
7.38403e-05
2.46723e-07
7.3858e-05
2.38989e-07
7.38757e-05
2.3185e-07
7.38935e-05
2.25448e-07
7.39116e-05
2.1992e-07
7.39302e-05
2.15409e-07
7.39498e-05
2.11958e-07
7.39709e-05
2.09586e-07
7.39941e-05
2.07908e-07
7.40203e-05
2.06557e-07
7.40494e-05
2.04158e-07
1.99823e-07
7.40818e-05
7.55023e-05
3.30377e-08
7.55123e-05
1.10306e-07
7.55301e-05
1.78277e-07
7.55523e-05
2.30263e-07
7.55771e-05
2.68264e-07
7.56024e-05
2.93484e-07
7.56274e-05
3.08658e-07
7.56517e-05
3.16641e-07
7.56753e-05
3.19422e-07
7.56981e-05
3.1849e-07
7.57203e-05
3.14962e-07
7.57419e-05
3.09616e-07
7.57631e-05
3.02998e-07
7.57839e-05
2.95498e-07
7.58044e-05
2.874e-07
7.58247e-05
2.78913e-07
7.58447e-05
2.70199e-07
7.58645e-05
2.61387e-07
7.58842e-05
2.52588e-07
7.59038e-05
2.43901e-07
7.59233e-05
2.35421e-07
7.59428e-05
2.27244e-07
7.59623e-05
2.19468e-07
7.59819e-05
2.12195e-07
7.60019e-05
2.05525e-07
7.60222e-05
1.99544e-07
7.60433e-05
1.94315e-07
7.60655e-05
1.89814e-07
7.60891e-05
1.8595e-07
7.61147e-05
1.82375e-07
7.61426e-05
1.78662e-07
7.61728e-05
1.73917e-07
1.67436e-07
7.62052e-05
7.76607e-05
3.18819e-08
7.76704e-05
1.0068e-07
7.76869e-05
1.61742e-07
7.77077e-05
2.09438e-07
7.77311e-05
2.44882e-07
7.77554e-05
2.69136e-07
7.77798e-05
2.84268e-07
7.78039e-05
2.92617e-07
7.78273e-05
2.95943e-07
7.78502e-05
2.95594e-07
7.78726e-05
2.92605e-07
7.78945e-05
2.87726e-07
7.7916e-05
2.81497e-07
7.79372e-05
2.74314e-07
7.79581e-05
2.66467e-07
7.79788e-05
2.58176e-07
7.79994e-05
2.49608e-07
7.80199e-05
2.409e-07
7.80403e-05
2.32162e-07
7.80607e-05
2.23494e-07
7.80812e-05
2.14986e-07
7.81017e-05
2.06722e-07
7.81224e-05
1.98784e-07
7.81433e-05
1.91249e-07
7.81647e-05
1.84183e-07
7.81866e-05
1.77628e-07
7.82093e-05
1.71595e-07
7.82331e-05
1.66016e-07
7.82583e-05
1.6075e-07
7.82852e-05
1.55496e-07
7.8314e-05
1.49864e-07
7.83446e-05
1.43261e-07
1.35197e-07
7.83769e-05
7.98802e-05
2.99969e-08
7.98893e-05
9.15328e-08
7.99048e-05
1.46308e-07
7.99244e-05
1.89854e-07
7.99466e-05
2.22684e-07
7.997e-05
2.45702e-07
7.99938e-05
2.60494e-07
8.00174e-05
2.68952e-07
8.00408e-05
2.72613e-07
8.00637e-05
2.72682e-07
8.00862e-05
2.70111e-07
8.01083e-05
2.6561e-07
8.01301e-05
2.59704e-07
8.01516e-05
2.52785e-07
8.01729e-05
2.45146e-07
8.01941e-05
2.37008e-07
8.02152e-05
2.28546e-07
8.02362e-05
2.19895e-07
8.02572e-05
2.11168e-07
8.02782e-05
2.02462e-07
8.02993e-05
1.93859e-07
8.03206e-05
1.85435e-07
8.03421e-05
1.77255e-07
8.0364e-05
1.69375e-07
8.03864e-05
1.61833e-07
8.04093e-05
1.54641e-07
8.04332e-05
1.47773e-07
8.0458e-05
1.4114e-07
8.04842e-05
1.3459e-07
8.05118e-05
1.27868e-07
8.0541e-05
1.20656e-07
8.05718e-05
1.12553e-07
1.03246e-07
8.06037e-05
8.21627e-05
2.77181e-08
8.21714e-05
8.28117e-08
8.21859e-05
1.31852e-07
8.22043e-05
1.71409e-07
8.22254e-05
2.01608e-07
8.22479e-05
2.23185e-07
8.22711e-05
2.3737e-07
8.22943e-05
2.45694e-07
8.23175e-05
2.49481e-07
8.23403e-05
2.49803e-07
8.23629e-05
2.47523e-07
8.23852e-05
2.43306e-07
8.24073e-05
2.37653e-07
8.24291e-05
2.30945e-07
8.24508e-05
2.2347e-07
8.24723e-05
2.1545e-07
8.24938e-05
2.07059e-07
8.25153e-05
1.98432e-07
8.25368e-05
1.89681e-07
8.25584e-05
1.80896e-07
8.25801e-05
1.72156e-07
8.2602e-05
1.63524e-07
8.26242e-05
1.55054e-07
8.26468e-05
1.46781e-07
8.26699e-05
1.38723e-07
8.26936e-05
1.30872e-07
8.27182e-05
1.2318e-07
8.27438e-05
1.15554e-07
8.27706e-05
1.07848e-07
8.27986e-05
9.9855e-08
8.28279e-05
9.13283e-08
8.28585e-05
8.19963e-08
7.16666e-08
8.289e-05
8.45102e-05
2.52618e-08
8.45185e-05
7.4505e-08
8.45321e-05
1.18281e-07
8.45495e-05
1.53996e-07
8.45696e-05
1.81553e-07
8.45912e-05
2.01528e-07
8.46137e-05
2.14888e-07
8.46365e-05
2.22865e-07
8.46594e-05
2.26592e-07
8.46822e-05
2.27011e-07
8.47048e-05
2.24899e-07
8.47273e-05
2.20869e-07
8.47495e-05
2.15394e-07
8.47717e-05
2.08838e-07
8.47936e-05
2.01482e-07
8.48155e-05
1.93543e-07
8.48374e-05
1.8519e-07
8.48593e-05
1.76558e-07
8.48812e-05
1.67752e-07
8.49033e-05
1.58861e-07
8.49255e-05
1.49954e-07
8.49479e-05
1.41085e-07
8.49707e-05
1.32294e-07
8.49938e-05
1.23606e-07
8.50175e-05
1.15022e-07
8.50419e-05
1.06519e-07
8.5067e-05
9.80447e-08
8.50931e-05
8.95064e-08
8.51201e-05
8.07762e-08
8.51483e-05
7.1689e-08
8.51776e-05
6.20614e-08
8.52079e-05
5.1708e-08
4.05178e-08
8.5239e-05
8.69247e-05
2.27564e-08
8.69326e-05
6.65935e-08
8.69454e-05
1.05498e-07
8.69618e-05
1.37513e-07
8.6981e-05
1.6243e-07
8.70018e-05
1.80684e-07
8.70237e-05
1.93036e-07
8.70461e-05
2.00481e-07
8.70687e-05
2.03976e-07
8.70913e-05
2.04346e-07
8.71139e-05
2.02282e-07
8.71365e-05
1.98344e-07
8.71589e-05
1.92972e-07
8.71812e-05
1.8651e-07
8.72035e-05
1.79226e-07
8.72257e-05
1.71329e-07
8.72479e-05
1.62984e-07
8.72701e-05
1.54319e-07
8.72925e-05
1.45435e-07
8.73149e-05
1.36415e-07
8.73375e-05
1.27319e-07
8.73604e-05
1.18195e-07
8.73836e-05
1.09072e-07
8.74073e-05
9.99641e-08
8.74314e-05
9.08635e-08
8.74562e-05
8.17407e-08
8.74817e-05
7.25409e-08
8.75081e-05
6.31813e-08
8.75353e-05
5.35545e-08
8.75634e-05
4.35324e-08
8.75925e-05
3.29809e-08
8.76224e-05
2.17739e-08
9.85266e-09
8.76531e-05
8.9408e-05
2.02757e-08
8.94156e-05
5.9058e-08
8.94276e-05
9.34187e-08
8.94433e-05
1.21868e-07
8.94616e-05
1.44155e-07
8.94816e-05
1.60595e-07
8.95029e-05
1.7179e-07
8.95248e-05
1.78541e-07
8.95472e-05
1.81652e-07
8.95697e-05
1.81837e-07
8.95922e-05
1.79709e-07
8.96148e-05
1.75772e-07
8.96373e-05
1.7043e-07
8.96599e-05
1.64003e-07
8.96823e-05
1.56745e-07
8.97048e-05
1.48855e-07
8.97273e-05
1.40487e-07
8.97499e-05
1.31765e-07
8.97725e-05
1.22783e-07
8.97953e-05
1.13617e-07
8.98183e-05
1.04322e-07
8.98416e-05
9.49354e-08
8.98652e-05
8.54808e-08
8.98892e-05
7.59637e-08
8.99137e-05
6.63718e-08
8.99387e-05
5.66735e-08
8.99644e-05
4.68172e-08
8.99909e-05
3.67319e-08
9.00181e-05
2.63303e-08
9.00461e-05
1.55156e-08
9.00749e-05
4.19146e-09
9.01044e-05
-7.72766e-09
-2.02667e-08
9.01345e-05
9.19623e-05
1.78591e-08
9.19695e-05
5.18762e-08
9.19809e-05
8.1966e-08
9.19958e-05
1.06976e-07
9.20133e-05
1.26649e-07
9.20327e-05
1.41206e-07
9.20534e-05
1.51121e-07
9.20749e-05
1.57038e-07
9.20969e-05
1.59628e-07
9.21192e-05
1.59507e-07
9.21417e-05
1.5721e-07
9.21643e-05
1.53186e-07
9.21869e-05
1.47804e-07
9.22096e-05
1.41357e-07
9.22322e-05
1.34081e-07
9.22549e-05
1.26162e-07
9.22777e-05
1.17746e-07
9.23005e-05
1.08947e-07
9.23234e-05
9.98528e-08
9.23465e-05
9.05317e-08
9.23698e-05
8.10323e-08
9.23933e-05
7.1387e-08
9.24172e-05
6.16125e-08
9.24415e-05
5.17098e-08
9.24662e-05
4.16644e-08
9.24914e-05
3.1446e-08
9.25172e-05
2.10089e-08
9.25437e-05
1.02945e-08
9.25707e-05
-7.6533e-10
9.25985e-05
-1.22435e-08
9.26269e-05
-2.42068e-08
9.26559e-05
-3.6713e-08
-4.97648e-08
9.26854e-05
9.45895e-05
1.55252e-08
9.45963e-05
4.50238e-08
9.46072e-05
7.10717e-08
9.46215e-05
9.27581e-08
9.46383e-05
1.09839e-07
9.4657e-05
1.22461e-07
9.46771e-05
1.30995e-07
9.46982e-05
1.35958e-07
9.47199e-05
1.37909e-07
9.47421e-05
1.3737e-07
9.47645e-05
1.34806e-07
9.4787e-05
1.30616e-07
9.48097e-05
1.25127e-07
9.48325e-05
1.18609e-07
9.48553e-05
1.11275e-07
9.48781e-05
1.03297e-07
9.49011e-05
9.48089e-08
9.49241e-05
8.59171e-08
9.49473e-05
7.67019e-08
9.49706e-05
6.72237e-08
9.49941e-05
5.75254e-08
9.50178e-05
4.76339e-08
9.50419e-05
3.75616e-08
9.50663e-05
2.73073e-08
9.50911e-05
1.68562e-08
9.51164e-05
6.18112e-09
9.51421e-05
-4.75617e-09
9.51684e-05
-1.60027e-08
9.51953e-05
-2.76104e-08
9.52227e-05
-3.96314e-08
9.52506e-05
-5.21119e-08
9.52789e-05
-6.50895e-08
-7.85523e-08
9.53077e-05
9.72918e-05
1.328e-08
9.72983e-05
3.84745e-08
9.73087e-05
6.06744e-08
9.73223e-05
7.9143e-08
9.73385e-05
9.3656e-08
9.73567e-05
1.04305e-07
9.73763e-05
1.11376e-07
9.7397e-05
1.15284e-07
9.74184e-05
1.1649e-07
9.74403e-05
1.15434e-07
9.74626e-05
1.12517e-07
9.74851e-05
1.08085e-07
9.75078e-05
1.02431e-07
9.75306e-05
9.57924e-08
9.75536e-05
8.83639e-08
9.75766e-05
8.03004e-08
9.75996e-05
7.17241e-08
9.76228e-05
6.27303e-08
9.76461e-05
5.33916e-08
9.76696e-05
4.37616e-08
9.76932e-05
3.38773e-08
9.77171e-05
2.37616e-08
9.77413e-05
1.34233e-08
9.77657e-05
2.8606e-09
9.77905e-05
-7.94011e-09
9.78157e-05
-1.90019e-08
9.78413e-05
-3.03554e-08
9.78673e-05
-4.2037e-08
9.78938e-05
-5.40847e-08
9.79207e-05
-6.65349e-08
9.7948e-05
-7.94177e-08
9.79757e-05
-9.27566e-08
-1.06529e-07
9.80036e-05
0.000100071
1.11225e-08
0.000100078
3.22016e-08
0.000100087
5.07187e-08
0.000100101
6.60647e-08
0.000100116
7.80361e-08
0.000100134
8.66833e-08
0.000100153
9.22254e-08
0.000100173
9.49933e-08
0.000100194
9.53626e-08
0.000100216
9.3703e-08
0.000100238
9.03545e-08
0.000100261
8.5616e-08
0.000100283
7.97413e-08
0.000100306
7.29411e-08
0.000100329
6.53873e-08
0.000100352
5.72175e-08
0.000100376
4.85408e-08
0.000100399
3.94417e-08
0.000100422
2.99843e-08
0.000100446
2.02153e-08
0.000100469
1.01664e-08
0.000100493
-1.42446e-10
0.000100517
-1.07068e-08
0.000100542
-2.15262e-08
0.000100567
-3.26134e-08
0.000100592
-4.39865e-08
0.000100617
-5.56694e-08
0.000100643
-6.76886e-08
0.000100668
-8.00709e-08
0.000100695
-9.28403e-08
0.000100721
-1.06015e-07
0.000100748
-1.19607e-07
-1.33587e-07
0.000100775
0.00010293
9.0479e-09
0.000102936
2.61784e-08
0.000102946
4.11546e-08
0.000102958
5.34629e-08
0.000102973
6.29195e-08
0.000102991
6.95453e-08
0.000103009
7.35049e-08
0.000103029
7.506e-08
0.00010305
7.45151e-08
0.000103072
7.2176e-08
0.000103094
6.83279e-08
0.000103116
6.32243e-08
0.000103139
5.70828e-08
0.000103162
5.00855e-08
0.000103185
4.23815e-08
0.000103208
3.40908e-08
0.000103231
2.53084e-08
0.000103254
1.61075e-08
0.000103278
6.54358e-09
0.000103301
-3.34367e-09
0.000103325
-1.35275e-08
0.000103349
-2.39921e-08
0.000103373
-3.47325e-08
0.000103397
-4.57501e-08
0.000103421
-5.70543e-08
0.000103446
-6.8659e-08
0.000103471
-8.05815e-08
0.000103496
-9.28403e-08
0.000103522
-1.05453e-07
0.000103547
-1.18433e-07
0.000103573
-1.3179e-07
0.000103599
-1.45529e-07
-1.59615e-07
0.000103625
0.000105871
7.04929e-09
0.000105877
2.03787e-08
0.000105886
3.19361e-08
0.000105898
4.12816e-08
0.000105913
4.82491e-08
0.000105929
5.28389e-08
0.000105948
5.51725e-08
0.000105967
5.54547e-08
0.000105988
5.39297e-08
0.000106009
5.08466e-08
0.000106031
4.64406e-08
0.000106053
4.09228e-08
0.000106076
3.44759e-08
0.000106099
2.72534e-08
0.000106122
1.93817e-08
0.000106145
1.09625e-08
0.000106168
2.07618e-09
0.000106191
-7.21555e-09
0.000106215
-1.68664e-08
0.000106238
-2.68434e-08
0.000106262
-3.71248e-08
0.000106286
-4.76982e-08
0.00010631
-5.85592e-08
0.000106333
-6.97094e-08
0.000106358
-8.11556e-08
0.000106382
-9.29077e-08
0.000106406
-1.04978e-07
0.000106431
-1.17377e-07
0.000106455
-1.30115e-07
0.00010648
-1.432e-07
0.000106505
-1.56632e-07
0.00010653
-1.7041e-07
-1.84496e-07
0.000106555
0.000108895
5.11926e-09
0.000108901
1.47776e-08
0.00010891
2.30216e-08
0.000108922
2.94694e-08
0.000108936
3.39715e-08
0.000108952
3.65146e-08
0.00010897
3.71864e-08
0.00010899
3.61455e-08
0.00010901
3.35848e-08
0.000109031
2.97033e-08
0.000109053
2.46909e-08
0.000109075
1.87188e-08
0.000109098
1.19362e-08
0.00010912
4.46854e-09
0.000109143
-3.58068e-09
0.000109166
-1.21283e-08
0.00010919
-2.1109e-08
0.000109213
-3.04729e-08
0.000109236
-4.0183e-08
0.00010926
-5.02134e-08
0.000109283
-6.05472e-08
0.000109306
-7.11751e-08
0.00010933
-8.20939e-08
0.000109354
-9.3305e-08
0.000109377
-1.04813e-07
0.000109401
-1.16625e-07
0.000109425
-1.28747e-07
0.000109448
-1.41186e-07
0.000109472
-1.53946e-07
0.000109496
-1.67027e-07
0.00010952
-1.80426e-07
0.000109544
-1.94138e-07
-2.08118e-07
0.000109567
0.000112006
3.24998e-09
0.000112012
9.35114e-09
0.00011202
1.43714e-08
0.000112032
1.79759e-08
0.000112046
2.00316e-08
0.000112062
2.05185e-08
0.00011208
1.94988e-08
0.000112099
1.70934e-08
0.000112119
1.34519e-08
0.00011214
8.7284e-09
0.000112161
3.07172e-09
0.000112183
-3.3845e-09
0.000112206
-1.05238e-08
0.000112229
-1.82475e-08
0.000112252
-2.64755e-08
0.000112275
-3.51432e-08
0.000112298
-4.42007e-08
0.000112321
-5.36101e-08
0.000112344
-6.3344e-08
0.000112367
-7.33835e-08
0.00011239
-8.3717e-08
0.000112413
-9.43383e-08
0.000112437
-1.05246e-07
0.00011246
-1.1644e-07
0.000112483
-1.27925e-07
0.000112506
-1.39705e-07
0.000112529
-1.51782e-07
0.000112552
-1.64159e-07
0.000112575
-1.76835e-07
0.000112598
-1.89805e-07
0.00011262
-2.03064e-07
0.000112643
-2.166e-07
-2.30369e-07
0.000112665
0.000115206
1.43542e-09
0.000115212
4.0803e-09
0.00011522
5.95435e-09
0.000115231
6.76107e-09
0.000115245
6.3846e-09
0.000115261
4.80441e-09
0.000115278
2.06478e-09
0.000115297
-1.74277e-09
0.000115317
-6.50362e-09
0.000115338
-1.21051e-08
0.000115359
-1.84359e-08
0.000115381
-2.53974e-08
0.000115404
-3.29045e-08
0.000115426
-4.0886e-08
0.000115449
-4.92845e-08
0.000115472
-5.80546e-08
0.000115495
-6.71619e-08
0.000115518
-7.65811e-08
0.000115541
-8.62944e-08
0.000115564
-9.62906e-08
0.000115587
-1.06563e-07
0.000115609
-1.17109e-07
0.000115632
-1.27929e-07
0.000115655
-1.39024e-07
0.000115677
-1.50397e-07
0.000115699
-1.62049e-07
0.000115722
-1.73981e-07
0.000115744
-1.86191e-07
0.000115765
-1.98677e-07
0.000115787
-2.11429e-07
0.000115808
-2.24438e-07
0.00011583
-2.37691e-07
-2.51144e-07
0.00011585
0.000118498
-3.3431e-10
0.000118503
-1.06104e-09
0.000118511
-2.2732e-09
0.000118522
-4.23383e-09
0.000118535
-7.03677e-09
0.000118551
-1.06957e-08
0.000118568
-1.51763e-08
0.000118587
-2.04113e-08
0.000118607
-2.63202e-08
0.000118627
-3.28233e-08
0.000118649
-3.98456e-08
0.000118671
-4.7322e-08
0.000118693
-5.51981e-08
0.000118716
-6.34295e-08
0.000118738
-7.19815e-08
0.000118761
-8.0828e-08
0.000118784
-8.99503e-08
0.000118807
-9.93359e-08
0.000118829
-1.08977e-07
0.000118852
-1.1887e-07
0.000118874
-1.29015e-07
0.000118897
-1.39412e-07
0.000118919
-1.50063e-07
0.000118941
-1.60971e-07
0.000118962
-1.72137e-07
0.000118984
-1.83563e-07
0.000119005
-1.95248e-07
0.000119026
-2.07187e-07
0.000119047
-2.19374e-07
0.000119067
-2.31799e-07
0.000119087
-2.4445e-07
0.000119107
-2.57312e-07
-2.7034e-07
0.000119126
0.000121883
-2.05068e-09
0.000121888
-6.0616e-09
0.000121896
-1.03019e-08
0.000121907
-1.50102e-08
0.00012192
-2.02514e-08
0.000121935
-2.60202e-08
0.000121952
-3.22813e-08
0.000121971
-3.8983e-08
0.000121991
-4.60708e-08
0.000122011
-5.34968e-08
0.000122033
-6.12212e-08
0.000122055
-6.92121e-08
0.000122077
-7.7446e-08
0.000122099
-8.59058e-08
0.000122122
-9.45804e-08
0.000122145
-1.03464e-07
0.000122167
-1.12553e-07
0.00012219
-1.21849e-07
0.000122212
-1.31355e-07
0.000122234
-1.41076e-07
0.000122256
-1.51016e-07
0.000122278
-1.6118e-07
0.0001223
-1.71574e-07
0.000122321
-1.82201e-07
0.000122342
-1.93064e-07
0.000122362
-2.04162e-07
0.000122383
-2.15493e-07
0.000122403
-2.27053e-07
0.000122422
-2.38833e-07
0.000122441
-2.50823e-07
0.00012246
-2.63007e-07
0.000122478
-2.75371e-07
-2.8787e-07
0.000122495
0.000125365
-3.76157e-09
0.00012537
-1.10055e-08
0.000125378
-1.82464e-08
0.000125389
-2.56938e-08
0.000125402
-3.33739e-08
0.000125417
-4.12575e-08
0.000125434
-4.93077e-08
0.000125453
-5.74861e-08
0.000125472
-6.57621e-08
0.000125493
-7.41171e-08
0.000125514
-8.25435e-08
0.000125536
-9.10415e-08
0.000125558
-9.96171e-08
0.000125581
-1.08281e-07
0.000125603
-1.17044e-07
0.000125626
-1.25922e-07
0.000125648
-1.34927e-07
0.00012567
-1.44076e-07
0.000125692
-1.5338e-07
0.000125714
-1.62854e-07
0.000125735
-1.72509e-07
0.000125757
-1.82355e-07
0.000125777
-1.924e-07
0.000125798
-2.02649e-07
0.000125818
-2.13107e-07
0.000125838
-2.23772e-07
0.000125857
-2.34644e-07
0.000125875
-2.45716e-07
0.000125894
-2.56979e-07
0.000125911
-2.68422e-07
0.000125928
-2.8003e-07
0.000125945
-2.91787e-07
-3.03649e-07
0.00012596
0.000128947
-5.31292e-09
0.000128951
-1.56663e-08
0.000128959
-2.58791e-08
0.000128969
-3.61374e-08
0.000128982
-4.63762e-08
0.000128998
-5.64958e-08
0.000129015
-6.64308e-08
0.000129033
-7.61471e-08
0.000129053
-8.56392e-08
0.000129074
-9.49236e-08
0.000129096
-1.04031e-07
0.000129118
-1.12998e-07
0.00012914
-1.21866e-07
0.000129162
-1.30675e-07
0.000129185
-1.39461e-07
0.000129207
-1.48261e-07
0.000129229
-1.57106e-07
0.000129251
-1.66024e-07
0.000129273
-1.75041e-07
0.000129294
-1.84179e-07
0.000129315
-1.93455e-07
0.000129336
-2.02884e-07
0.000129356
-2.12478e-07
0.000129375
-2.22246e-07
0.000129394
-2.32191e-07
0.000129413
-2.42316e-07
0.000129431
-2.52618e-07
0.000129448
-2.63092e-07
0.000129465
-2.73729e-07
0.000129481
-2.84517e-07
0.000129496
-2.95441e-07
0.000129511
-3.06487e-07
-3.17612e-07
0.000129525
0.000132631
-7.17255e-09
0.000132636
-2.06096e-08
0.000132644
-3.37132e-08
0.000132654
-4.66664e-08
0.000132667
-5.93615e-08
0.000132682
-7.16528e-08
0.000132699
-8.34485e-08
0.000132718
-9.47065e-08
0.000132738
-1.05431e-07
0.000132758
-1.15662e-07
0.00013278
-1.25461e-07
0.000132802
-1.34898e-07
0.000132824
-1.44047e-07
0.000132846
-1.52975e-07
0.000132869
-1.61747e-07
0.000132891
-1.7042e-07
0.000132913
-1.79045e-07
0.000132934
-1.87664e-07
0.000132956
-1.96316e-07
0.000132976
-2.05032e-07
0.000132997
-2.13838e-07
0.000133017
-2.22754e-07
0.000133036
-2.31796e-07
0.000133055
-2.40977e-07
0.000133073
-2.50302e-07
0.00013309
-2.59775e-07
0.000133107
-2.69396e-07
0.000133123
-2.79159e-07
0.000133138
-2.89056e-07
0.000133153
-2.99077e-07
0.000133167
-3.09206e-07
0.00013318
-3.1943e-07
-3.29708e-07
0.000133192
0.000136419
-7.92859e-09
0.000136423
-2.43173e-08
0.00013643
-4.06576e-08
0.00013644
-5.6932e-08
0.000136453
-7.26503e-08
0.000136469
-8.74907e-08
0.000136487
-1.01335e-07
0.000136506
-1.14181e-07
0.000136527
-1.26091e-07
0.000136549
-1.37168e-07
0.000136571
-1.47529e-07
0.000136593
-1.57296e-07
0.000136616
-1.66581e-07
0.000136638
-1.75489e-07
0.00013666
-1.84112e-07
0.000136683
-1.92529e-07
0.000136704
-2.00809e-07
0.000136726
-2.09009e-07
0.000136747
-2.17179e-07
0.000136767
-2.25359e-07
0.000136787
-2.3358e-07
0.000136806
-2.4187e-07
0.000136824
-2.50249e-07
0.000136842
-2.58729e-07
0.000136859
-2.67322e-07
0.000136875
-2.76032e-07
0.000136891
-2.8486e-07
0.000136905
-2.93802e-07
0.000136919
-3.02851e-07
0.000136932
-3.11999e-07
0.000136944
-3.2123e-07
0.000136955
-3.30534e-07
-3.39871e-07
0.000136965
0.000140319
-1.12084e-08
0.000140325
-2.9884e-08
0.000140332
-4.83877e-08
0.000140342
-6.69461e-08
0.000140355
-8.5105e-08
0.00014037
-1.02321e-07
0.000140387
-1.18284e-07
0.000140405
-1.32893e-07
0.000140425
-1.46189e-07
0.000140447
-1.58295e-07
0.000140468
-1.69367e-07
0.000140491
-1.79569e-07
0.000140513
-1.89056e-07
0.000140536
-1.97971e-07
0.000140558
-2.0644e-07
0.00014058
-2.1457e-07
0.000140602
-2.22452e-07
0.000140623
-2.30163e-07
0.000140643
-2.37766e-07
0.000140663
-2.45313e-07
0.000140683
-2.52847e-07
0.000140701
-2.60401e-07
0.000140719
-2.68e-07
0.000140736
-2.75663e-07
0.000140752
-2.83404e-07
0.000140767
-2.9123e-07
0.000140781
-2.99143e-07
0.000140795
-3.07144e-07
0.000140807
-3.15226e-07
0.000140818
-3.23382e-07
0.000140829
-3.31599e-07
0.000140838
-3.39866e-07
-3.4815e-07
0.000140846
0.000144322
-8.21922e-09
0.000144322
-3.05427e-08
0.000144328
-5.4262e-08
0.000144339
-7.81014e-08
0.000144355
-1.00414e-07
0.000144373
-1.20599e-07
0.000144393
-1.38621e-07
0.000144415
-1.54617e-07
0.000144438
-1.68803e-07
0.000144461
-1.81421e-07
0.000144484
-1.92716e-07
0.000144507
-2.02919e-07
0.000144531
-2.12236e-07
0.000144553
-2.20843e-07
0.000144576
-2.28891e-07
0.000144598
-2.36509e-07
0.000144619
-2.438e-07
0.00014464
-2.50855e-07
0.00014466
-2.57744e-07
0.000144679
-2.64526e-07
0.000144697
-2.71249e-07
0.000144715
-2.77951e-07
0.000144732
-2.8466e-07
0.000144747
-2.91399e-07
0.000144762
-2.98184e-07
0.000144776
-3.05023e-07
0.000144789
-3.11922e-07
0.0001448
-3.18883e-07
0.000144811
-3.25901e-07
0.000144821
-3.32972e-07
0.000144829
-3.40084e-07
0.000144837
-3.4723e-07
-3.54379e-07
0.000144843
0.000148457
-1.69811e-08
0.000148463
-3.71247e-08
0.000148469
-5.95038e-08
0.000148475
-8.46434e-08
0.000148485
-1.10088e-07
0.000148498
-1.33875e-07
0.000148514
-1.55085e-07
0.000148533
-1.73607e-07
0.000148554
-1.89671e-07
0.000148577
-2.03593e-07
0.0001486
-2.15706e-07
0.000148623
-2.26329e-07
0.000148646
-2.35745e-07
0.00014867
-2.44197e-07
0.000148693
-2.51888e-07
0.000148715
-2.58989e-07
0.000148737
-2.65637e-07
0.000148758
-2.71945e-07
0.000148778
-2.78005e-07
0.000148798
-2.83891e-07
0.000148816
-2.89662e-07
0.000148834
-2.95363e-07
0.00014885
-3.01031e-07
0.000148865
-3.06694e-07
0.000148879
-3.1237e-07
0.000148893
-3.18075e-07
0.000148904
-3.23815e-07
0.000148915
-3.29594e-07
0.000148925
-3.35413e-07
0.000148933
-3.41266e-07
0.00014894
-3.47147e-07
0.000148946
-3.53049e-07
-3.58946e-07
0.00014895
0.000152671
1.14646e-09
0.000152666
-3.18959e-08
0.000152674
-6.72592e-08
0.000152691
-1.02217e-07
0.000152714
-1.32557e-07
0.000152738
-1.58562e-07
0.000152764
-1.80684e-07
0.00015279
-1.9946e-07
0.000152815
-2.15401e-07
0.000152841
-2.28966e-07
0.000152866
-2.40583e-07
0.00015289
-2.50621e-07
0.000152914
-2.59388e-07
0.000152937
-2.67137e-07
0.000152959
-2.74078e-07
0.00015298
-2.80382e-07
0.000153001
-2.8619e-07
0.00015302
-2.91616e-07
0.000153039
-2.96752e-07
0.000153057
-3.01673e-07
0.000153074
-3.06441e-07
0.000153089
-3.11102e-07
0.000153104
-3.15694e-07
0.000153118
-3.20248e-07
0.00015313
-3.24785e-07
0.000153141
-3.2932e-07
0.000153151
-3.33865e-07
0.00015316
-3.38425e-07
0.000153168
-3.43002e-07
0.000153174
-3.47594e-07
0.000153179
-3.52197e-07
0.000153183
-3.56806e-07
-3.61398e-07
0.000153185
0.000157077
-2.4312e-08
0.000157076
-3.08849e-08
0.000157063
-5.42544e-08
0.000157054
-9.3565e-08
0.000157055
-1.33324e-07
0.000157065
-1.68625e-07
0.000157082
-1.97349e-07
0.000157103
-2.20598e-07
0.000157127
-2.39476e-07
0.000157153
-2.54811e-07
0.00015718
-2.67327e-07
0.000157207
-2.77632e-07
0.000157233
-2.8621e-07
0.00015726
-2.93445e-07
0.000157285
-2.99639e-07
0.00015731
-3.05031e-07
0.000157334
-3.09807e-07
0.000157356
-3.14114e-07
0.000157377
-3.18066e-07
0.000157397
-3.21756e-07
0.000157416
-3.25253e-07
0.000157434
-3.28613e-07
0.00015745
-3.3188e-07
0.000157465
-3.35087e-07
0.000157478
-3.38259e-07
0.00015749
-3.41414e-07
0.000157501
-3.44565e-07
0.00015751
-3.4772e-07
0.000157518
-3.50884e-07
0.000157525
-3.54058e-07
0.00015753
-3.5724e-07
0.000157533
-3.60429e-07
-3.63607e-07
0.000157536
0.00016147
4.44377e-08
0.000161456
-1.71073e-08
0.000161492
-9.00469e-08
0.000161534
-1.3597e-07
0.000161576
-1.74849e-07
0.000161612
-2.04893e-07
0.000161644
-2.29479e-07
0.000161673
-2.49814e-07
0.0001617
-2.66445e-07
0.000161725
-2.80078e-07
0.000161749
-2.91333e-07
0.000161773
-3.00675e-07
0.000161795
-3.08477e-07
0.000161816
-3.15039e-07
0.000161837
-3.20606e-07
0.000161858
-3.25372e-07
0.000161877
-3.29497e-07
0.000161896
-3.33107e-07
0.000161915
-3.36307e-07
0.000161932
-3.39181e-07
0.000161949
-3.41797e-07
0.000161964
-3.4421e-07
0.000161979
-3.46466e-07
0.000161992
-3.48601e-07
0.000162005
-3.50644e-07
0.000162016
-3.52616e-07
0.000162026
-3.54537e-07
0.000162035
-3.56417e-07
0.000162042
-3.58265e-07
0.000162048
-3.60087e-07
0.000162053
-3.61883e-07
0.000162056
-3.63654e-07
-3.6539e-07
0.000162058
0.00016619
7.66039e-09
0.000166126
4.70786e-08
0.000166046
-9.39133e-09
0.000165989
-7.93758e-08
0.000165976
-1.61633e-07
0.000165988
-2.17537e-07
0.000166016
-2.57266e-07
0.000166052
-2.85858e-07
0.000166093
-3.07044e-07
0.000166136
-3.23004e-07
0.00016618
-3.35127e-07
0.000166223
-3.44406e-07
0.000166266
-3.51555e-07
0.000166308
-3.57087e-07
0.000166349
-3.61378e-07
0.000166388
-3.64706e-07
0.000166426
-3.67283e-07
0.000166462
-3.69269e-07
0.000166497
-3.70791e-07
0.00016653
-3.71944e-07
0.000166561
-3.72807e-07
0.00016659