/*--------------------------------*- C++ -*----------------------------------*\
  =========                 |
  \\      /  F ield         | OpenFOAM: The Open Source CFD Toolbox
   \\    /   O peration     | Website:  https://openfoam.org
    \\  /    A nd           | Version:  10
     \\/     M anipulation  |
\*---------------------------------------------------------------------------*/
FoamFile
{
    format      ascii;
    class       volVectorField;
    location    "0.105";
    object      U;
}
// * * * * * * * * * * * * * * * * * * * * * * * * * * * * * * * * * * * * * //

dimensions      [0 1 -1 0 0 0 0];

internalField   nonuniform List<vector> 
6820
(
(7.33663 -0.254711 0)
(7.37113 -0.152748 0)
(7.32906 -0.0594736 0)
(7.25225 -0.0117273 0)
(7.17493 0.00795541 0)
(7.10514 0.0139546 0)
(7.04418 0.0144384 0)
(6.99143 0.0130574 0)
(6.94544 0.0113026 0)
(6.90482 0.00972116 0)
(6.86848 0.00845333 0)
(6.83562 0.00748622 0)
(6.80563 0.00676341 0)
(6.77805 0.00622548 0)
(6.75254 0.00582273 0)
(6.72884 0.00551733 0)
(6.70673 0.00528166 0)
(6.68603 0.00509623 0)
(6.6666 0.00494766 0)
(6.64832 0.0048271 0)
(6.63107 0.00472923 0)
(6.61475 0.00465171 0)
(6.59927 0.00459521 0)
(6.58452 0.00456439 0)
(6.57039 0.00456932 0)
(6.55674 0.00463229 0)
(6.54336 0.00480007 0)
(6.53001 0.00512761 0)
(6.51581 0.00607995 0)
(6.5004 0.006849 0)
(6.47968 0.0140772 0)
(6.4478 0.0146907 0)
(6.40586 0.0312733 0)
(7.32387 0.121383 0)
(7.3044 0.123266 0)
(7.30897 0.0779482 0)
(7.32922 0.0527628 0)
(7.34733 0.0391574 0)
(7.35542 0.0313453 0)
(7.35449 0.0268853 0)
(7.34744 0.0241305 0)
(7.33656 0.0222236 0)
(7.32342 0.0207732 0)
(7.30909 0.0195835 0)
(7.29423 0.0185544 0)
(7.27925 0.0176354 0)
(7.26438 0.0167999 0)
(7.24977 0.0160332 0)
(7.23552 0.0153259 0)
(7.22167 0.0146718 0)
(7.20823 0.0140663 0)
(7.19522 0.0135061 0)
(7.18263 0.0129891 0)
(7.17046 0.0125146 0)
(7.15871 0.0120834 0)
(7.14734 0.0116989 0)
(7.13635 0.0113689 0)
(7.12572 0.0111071 0)
(7.11542 0.0109463 0)
(7.10549 0.0109252 0)
(7.0958 0.0112085 0)
(7.08697 0.0118666 0)
(7.0779 0.0138081 0)
(7.07404 0.0172777 0)
(7.06984 0.0258857 0)
(7.09397 0.0449732 0)
(7.32565 -0.0437958 0)
(7.32325 -0.0517442 0)
(7.33519 -0.0262191 0)
(7.34306 -0.00274856 0)
(7.34801 0.0103898 0)
(7.35224 0.0168298 0)
(7.3553 0.0198902 0)
(7.3569 0.0211649 0)
(7.35702 0.0214957 0)
(7.3558 0.0213558 0)
(7.35346 0.0209919 0)
(7.35024 0.0205307 0)
(7.34634 0.0200379 0)
(7.34193 0.0195463 0)
(7.33715 0.0190711 0)
(7.33209 0.0186187 0)
(7.32686 0.0181911 0)
(7.3215 0.0177886 0)
(7.31608 0.0174111 0)
(7.31063 0.0170589 0)
(7.30518 0.0167332 0)
(7.29976 0.0164367 0)
(7.29437 0.0161749 0)
(7.28902 0.0159568 0)
(7.28371 0.0157987 0)
(7.27844 0.0157238 0)
(7.2732 0.015788 0)
(7.26793 0.0160199 0)
(7.2628 0.0166998 0)
(7.25749 0.0174883 0)
(7.25308 0.0200594 0)
(7.24848 0.0205527 0)
(7.24654 0.0253959 0)
(7.33338 0.0117826 0)
(7.33036 0.0328987 0)
(7.32957 0.0333211 0)
(7.3326 0.0276014 0)
(7.33805 0.0242021 0)
(7.34362 0.0227151 0)
(7.34828 0.0221419 0)
(7.35201 0.0219026 0)
(7.35489 0.0217405 0)
(7.35698 0.0215734 0)
(7.35839 0.0213758 0)
(7.35919 0.0211417 0)
(7.35948 0.0208749 0)
(7.35934 0.0205826 0)
(7.35884 0.0202721 0)
(7.35805 0.0199501 0)
(7.35701 0.0196227 0)
(7.35577 0.019295 0)
(7.35437 0.0189719 0)
(7.35284 0.0186582 0)
(7.35121 0.0183595 0)
(7.34949 0.0180824 0)
(7.34771 0.0178363 0)
(7.34586 0.0176344 0)
(7.34396 0.017497 0)
(7.34201 0.0174532 0)
(7.34003 0.0175555 0)
(7.338 0.0178611 0)
(7.33606 0.0185329 0)
(7.33412 0.0195759 0)
(7.33286 0.0215986 0)
(7.33225 0.023855 0)
(7.33408 0.0283887 0)
(7.33122 -0.00352902 0)
(7.33004 -0.00434663 0)
(7.33361 0.00123623 0)
(7.33722 0.00867349 0)
(7.34054 0.014027 0)
(7.34385 0.0170196 0)
(7.34706 0.0186437 0)
(7.3501 0.0195423 0)
(7.35292 0.0200199 0)
(7.35545 0.020247 0)
(7.35768 0.0203191 0)
(7.35961 0.0202895 0)
(7.36127 0.0201911 0)
(7.36266 0.0200455 0)
(7.36383 0.0198672 0)
(7.36479 0.0196662 0)
(7.36558 0.0194503 0)
(7.3662 0.0192257 0)
(7.36668 0.0189979 0)
(7.36704 0.0187727 0)
(7.3673 0.0185562 0)
(7.36747 0.0183563 0)
(7.36756 0.0181831 0)
(7.36757 0.0180505 0)
(7.36753 0.017979 0)
(7.36742 0.017995 0)
(7.36729 0.0181446 0)
(7.36714 0.0184671 0)
(7.36707 0.019078 0)
(7.36711 0.0199377 0)
(7.36763 0.0213559 0)
(7.36871 0.0226582 0)
(7.37085 0.0244206 0)
(7.33264 0.00207343 0)
(7.33224 0.00988335 0)
(7.33394 0.0140666 0)
(7.33647 0.0159239 0)
(7.33948 0.0170162 0)
(7.3427 0.017775 0)
(7.3458 0.0183669 0)
(7.3487 0.0188112 0)
(7.35141 0.0191064 0)
(7.35395 0.0192814 0)
(7.35632 0.0193658 0)
(7.35853 0.0193801 0)
(7.36059 0.0193397 0)
(7.3625 0.0192564 0)
(7.36428 0.0191394 0)
(7.36593 0.0189961 0)
(7.36747 0.0188329 0)
(7.36891 0.0186556 0)
(7.37025 0.0184697 0)
(7.3715 0.0182814 0)
(7.37268 0.0180975 0)
(7.37379 0.0179261 0)
(7.37483 0.0177779 0)
(7.37583 0.0176667 0)
(7.37677 0.0176116 0)
(7.37768 0.0176361 0)
(7.37859 0.0177765 0)
(7.37951 0.0180635 0)
(7.38053 0.0185642 0)
(7.38172 0.0192566 0)
(7.3833 0.020255 0)
(7.38538 0.0212242 0)
(7.38818 0.0223059 0)
(7.33258 0.000821383 0)
(7.33243 0.00449008 0)
(7.33429 0.00802574 0)
(7.33691 0.0112111 0)
(7.33972 0.0137785 0)
(7.34258 0.0155329 0)
(7.34532 0.016664 0)
(7.34794 0.0173859 0)
(7.35045 0.0178333 0)
(7.35286 0.0180989 0)
(7.35516 0.0182425 0)
(7.35737 0.0182999 0)
(7.35949 0.0182941 0)
(7.36154 0.0182407 0)
(7.36351 0.0181509 0)
(7.36541 0.0180331 0)
(7.36724 0.0178937 0)
(7.36902 0.0177389 0)
(7.37073 0.017574 0)
(7.3724 0.0174051 0)
(7.37401 0.0172388 0)
(7.37558 0.017083 0)
(7.37712 0.0169477 0)
(7.37862 0.0168453 0)
(7.3801 0.0167921 0)
(7.38158 0.0168074 0)
(7.38307 0.016917 0)
(7.38461 0.017141 0)
(7.38627 0.0175134 0)
(7.38811 0.0180107 0)
(7.39025 0.0186543 0)
(7.3928 0.0192369 0)
(7.39581 0.0197101 0)
(7.33284 0.00132418 0)
(7.33302 0.00532705 0)
(7.33459 0.00886226 0)
(7.33683 0.0115296 0)
(7.33934 0.0134829 0)
(7.34198 0.0148232 0)
(7.3446 0.0157357 0)
(7.34711 0.0163604 0)
(7.34953 0.0167732 0)
(7.35186 0.0170305 0)
(7.3541 0.0171755 0)
(7.35627 0.0172375 0)
(7.35838 0.0172369 0)
(7.36044 0.0171885 0)
(7.36245 0.0171028 0)
(7.36442 0.0169881 0)
(7.36635 0.0168509 0)
(7.36825 0.0166969 0)
(7.37011 0.0165317 0)
(7.37195 0.0163609 0)
(7.37377 0.0161909 0)
(7.37556 0.0160289 0)
(7.37734 0.0158839 0)
(7.37911 0.0157666 0)
(7.38087 0.0156901 0)
(7.38266 0.0156688 0)
(7.38448 0.0157198 0)
(7.38638 0.0158539 0)
(7.3884 0.016084 0)
(7.39059 0.016386 0)
(7.39304 0.0167423 0)
(7.3958 0.0170238 0)
(7.39887 0.0171533 0)
(7.33291 0.00132119 0)
(7.33321 0.00464326 0)
(7.33462 0.00766059 0)
(7.33667 0.0101048 0)
(7.33899 0.0120417 0)
(7.34146 0.013469 0)
(7.34392 0.0144745 0)
(7.34632 0.0151669 0)
(7.34865 0.0156255 0)
(7.3509 0.0159124 0)
(7.35308 0.0160754 0)
(7.35521 0.016147 0)
(7.35728 0.0161498 0)
(7.35932 0.0161003 0)
(7.36133 0.0160102 0)
(7.3633 0.0158884 0)
(7.36526 0.0157421 0)
(7.36719 0.0155773 0)
(7.36911 0.0153996 0)
(7.37102 0.0152144 0)
(7.37292 0.0150277 0)
(7.37481 0.0148462 0)
(7.3767 0.0146775 0)
(7.3786 0.0145302 0)
(7.38052 0.0144143 0)
(7.38247 0.0143395 0)
(7.38448 0.0143158 0)
(7.38657 0.0143469 0)
(7.38878 0.0144327 0)
(7.39116 0.0145491 0)
(7.39374 0.0146656 0)
(7.39656 0.014697 0)
(7.39961 0.0145736 0)
(7.33297 0.00129626 0)
(7.33335 0.00428375 0)
(7.33463 0.00705452 0)
(7.33647 0.00932882 0)
(7.3386 0.0111249 0)
(7.34088 0.0124597 0)
(7.3432 0.013413 0)
(7.34549 0.0140803 0)
(7.34773 0.014531 0)
(7.34992 0.0148177 0)
(7.35206 0.0149817 0)
(7.35415 0.0150525 0)
(7.35619 0.0150518 0)
(7.35821 0.0149955 0)
(7.36019 0.0148955 0)
(7.36216 0.0147612 0)
(7.36411 0.0145997 0)
(7.36605 0.0144174 0)
(7.36798 0.0142196 0)
(7.36991 0.0140118 0)
(7.37183 0.0137994 0)
(7.37377 0.0135883 0)
(7.37571 0.0133846 0)
(7.37767 0.0131952 0)
(7.37967 0.0130268 0)
(7.3817 0.0128855 0)
(7.3838 0.0127756 0)
(7.38599 0.0126958 0)
(7.3883 0.0126391 0)
(7.39075 0.0125829 0)
(7.39337 0.0124954 0)
(7.39618 0.0123189 0)
(7.39915 0.0120014 0)
(7.333 0.00123306 0)
(7.33341 0.00389653 0)
(7.33457 0.00637183 0)
(7.33624 0.00843761 0)
(7.33819 0.0100981 0)
(7.34031 0.0113677 0)
(7.34249 0.0122988 0)
(7.34468 0.0129622 0)
(7.34684 0.0134158 0)
(7.34896 0.0137064 0)
(7.35105 0.013872 0)
(7.35309 0.0139411 0)
(7.35511 0.0139352 0)
(7.3571 0.0138701 0)
(7.35906 0.013758 0)
(7.36101 0.0136083 0)
(7.36295 0.0134285 0)
(7.36488 0.0132249 0)
(7.3668 0.0130028 0)
(7.36873 0.0127674 0)
(7.37067 0.0125235 0)
(7.37261 0.0122762 0)
(7.37458 0.0120304 0)
(7.37656 0.0117908 0)
(7.37859 0.0115619 0)
(7.38067 0.0113463 0)
(7.38281 0.0111446 0)
(7.38504 0.0109524 0)
(7.38738 0.0107593 0)
(7.38984 0.010545 0)
(7.39245 0.0102812 0)
(7.3952 0.00992791 0)
(7.39808 0.00944892 0)
(7.33302 0.00114809 0)
(7.33344 0.00353395 0)
(7.33449 0.00575711 0)
(7.33601 0.00764203 0)
(7.3378 0.00917462 0)
(7.33977 0.0103641 0)
(7.34182 0.0112486 0)
(7.3439 0.0118846 0)
(7.34597 0.0123224 0)
(7.34803 0.0126032 0)
(7.35006 0.0127609 0)
(7.35206 0.0128217 0)
(7.35404 0.0128057 0)
(7.356 0.0127282 0)
(7.35794 0.012601 0)
(7.35987 0.0124334 0)
(7.36179 0.0122327 0)
(7.3637 0.0120051 0)
(7.36562 0.0117557 0)
(7.36754 0.0114893 0)
(7.36947 0.0112101 0)
(7.37141 0.0109222 0)
(7.37338 0.0106293 0)
(7.37538 0.0103345 0)
(7.37741 0.0100399 0)
(7.3795 0.00974613 0)
(7.38166 0.00945094 0)
(7.38389 0.0091481 0)
(7.38622 0.00882646 0)
(7.38866 0.00846809 0)
(7.39122 0.00804986 0)
(7.3939 0.00754313 0)
(7.39667 0.00692367 0)
(7.33303 0.00105277 0)
(7.33344 0.00318804 0)
(7.3344 0.00517629 0)
(7.33579 0.0068814 0)
(7.33744 0.00828162 0)
(7.33926 0.0093831 0)
(7.34119 0.0102134 0)
(7.34317 0.0108162 0)
(7.34516 0.0112329 0)
(7.34714 0.0114989 0)
(7.34911 0.0116442 0)
(7.35107 0.0116928 0)
(7.35301 0.0116633 0)
(7.35493 0.0115705 0)
(7.35684 0.0114257 0)
(7.35875 0.0112378 0)
(7.36065 0.0110141 0)
(7.36254 0.0107603 0)
(7.36444 0.0104813 0)
(7.36635 0.0101813 0)
(7.36827 0.00986402 0)
(7.3702 0.0095325 0)
(7.37216 0.00918931 0)
(7.37415 0.00883617 0)
(7.37618 0.00847361 0)
(7.37826 0.00810037 0)
(7.38041 0.00771274 0)
(7.38263 0.00730363 0)
(7.38493 0.00686219 0)
(7.38732 0.00637315 0)
(7.38981 0.00581799 0)
(7.3924 0.00517595 0)
(7.39507 0.00443089 0)
(7.33303 0.000953472 0)
(7.33342 0.00285883 0)
(7.33431 0.00463086 0)
(7.33558 0.00616473 0)
(7.3371 0.00743526 0)
(7.3388 0.00844467 0)
(7.34061 0.00921263 0)
(7.34249 0.00977263 0)
(7.34439 0.010159 0)
(7.34631 0.0104021 0)
(7.34822 0.0105283 0)
(7.35012 0.0105592 0)
(7.35202 0.010512 0)
(7.3539 0.0104004 0)
(7.35579 0.010235 0)
(7.35766 0.0100244 0)
(7.35953 0.00977532 0)
(7.36141 0.00949324 0)
(7.36329 0.00918258 0)
(7.36517 0.00884701 0)
(7.36707 0.00848946 0)
(7.36899 0.00811225 0)
(7.37093 0.00771688 0)
(7.37291 0.00730393 0)
(7.37492 0.00687268 0)
(7.37699 0.00642071 0)
(7.3791 0.00594345 0)
(7.38129 0.00543369 0)
(7.38354 0.00488141 0)
(7.38588 0.00427383 0)
(7.38829 0.00359629 0)
(7.39078 0.00283346 0)
(7.39334 0.00197447 0)
(7.33303 0.000854032 0)
(7.3334 0.0025454 0)
(7.33422 0.00411611 0)
(7.33538 0.00548489 0)
(7.33679 0.00662619 0)
(7.33838 0.00753921 0)
(7.34008 0.0082379 0)
(7.34186 0.00874786 0)
(7.34368 0.00909702 0)
(7.34553 0.00931117 0)
(7.34738 0.00941306 0)
(7.34923 0.00942188 0)
(7.35108 0.00935322 0)
(7.35293 0.00921959 0)
(7.35477 0.00903099 0)
(7.35661 0.00879533 0)
(7.35846 0.00851889 0)
(7.36031 0.00820666 0)
(7.36216 0.0078626 0)
(7.36402 0.00748978 0)
(7.3659 0.00709051 0)
(7.36779 0.00666631 0)
(7.36971 0.00621785 0)
(7.37166 0.00574478 0)
(7.37365 0.0052455 0)
(7.37568 0.00471688 0)
(7.37776 0.00415398 0)
(7.3799 0.00354986 0)
(7.3821 0.00289561 0)
(7.38436 0.00218054 0)
(7.38669 0.00139308 0)
(7.38909 0.000521621 0)
(7.39153 -0.000441219 0)
(7.33303 0.000756563 0)
(7.33338 0.00224688 0)
(7.33413 0.00362887 0)
(7.3352 0.00483877 0)
(7.33651 0.00585234 0)
(7.33799 0.00666645 0)
(7.3396 0.00729063 0)
(7.34129 0.00774425 0)
(7.34303 0.00804982 0)
(7.3448 0.00822896 0)
(7.34659 0.0083012 0)
(7.34839 0.00828337 0)
(7.35019 0.0081894 0)
(7.352 0.00803062 0)
(7.35381 0.00781614 0)
(7.35561 0.0075532 0)
(7.35743 0.0072475 0)
(7.35924 0.00690351 0)
(7.36106 0.00652465 0)
(7.3629 0.00611342 0)
(7.36475 0.00567152 0)
(7.36661 0.00519979 0)
(7.3685 0.0046982 0)
(7.37042 0.00416571 0)
(7.37237 0.00360013 0)
(7.37436 0.00299793 0)
(7.37639 0.00235416 0)
(7.37847 0.00166234 0)
(7.38061 0.000914644 0)
(7.38279 0.000102265 0)
(7.38503 -0.00078406 0)
(7.38732 -0.00175336 0)
(7.38965 -0.00281072 0)
(7.33303 0.000662134 0)
(7.33335 0.00196228 0)
(7.33405 0.00316613 0)
(7.33504 0.00422277 0)
(7.33626 0.00511006 0)
(7.33765 0.00582324 0)
(7.33916 0.00636848 0)
(7.34077 0.00676032 0)
(7.34243 0.0070167 0)
(7.34414 0.00715553 0)
(7.34586 0.00719339 0)
(7.34761 0.00714481 0)
(7.34936 0.00702207 0)
(7.35113 0.00683523 0)
(7.35289 0.00659246 0)
(7.35466 0.00630026 0)
(7.35644 0.00596369 0)
(7.35822 0.00558664 0)
(7.36001 0.00517199 0)
(7.36181 0.00472168 0)
(7.36362 0.00423685 0)
(7.36545 0.00371775 0)
(7.3673 0.0031638 0)
(7.36918 0.00257347 0)
(7.37109 0.00194419 0)
(7.37303 0.00127229 0)
(7.37501 0.000552973 0)
(7.37702 -0.000219644 0)
(7.37908 -0.00105237 0)
(7.38118 -0.00195253 0)
(7.38333 -0.0029276 0)
(7.38551 -0.00398477 0)
(7.38773 -0.00512756 0)
(7.33303 0.000571179 0)
(7.33333 0.00169055 0)
(7.33398 0.00272521 0)
(7.3349 0.00363374 0)
(7.33603 0.00439637 0)
(7.33734 0.0050073 0)
(7.33877 0.00547016 0)
(7.34029 0.00579569 0)
(7.34188 0.00599803 0)
(7.34352 0.00609183 0)
(7.34519 0.00609097 0)
(7.34688 0.00600786 0)
(7.34859 0.00585311 0)
(7.3503 0.00563554 0)
(7.35203 0.00536232 0)
(7.35376 0.00503913 0)
(7.35549 0.00467038 0)
(7.35724 0.00425935 0)
(7.35899 0.00380835 0)
(7.36075 0.00331882 0)
(7.36253 0.00279135 0)
(7.36432 0.00222576 0)
(7.36612 0.00162097 0)
(7.36795 0.000975148 0)
(7.36981 0.000285524 0)
(7.37169 -0.000451558 0)
(7.37361 -0.00124062 0)
(7.37555 -0.00208696 0)
(7.37753 -0.00299644 0)
(7.37954 -0.00397524 0)
(7.38158 -0.00502944 0)
(7.38366 -0.00616487 0)
(7.38575 -0.00738396 0)
(7.33303 0.000483769 0)
(7.33331 0.00143059 0)
(7.33391 0.00230368 0)
(7.33477 0.00306878 0)
(7.33583 0.00370838 0)
(7.33706 0.00421617 0)
(7.33841 0.00459386 0)
(7.33986 0.00484924 0)
(7.34138 0.00499329 0)
(7.34296 0.00503784 0)
(7.34457 0.00499436 0)
(7.34621 0.00487327 0)
(7.34786 0.00468359 0)
(7.34953 0.0044329 0)
(7.35121 0.00412732 0)
(7.3529 0.00377172 0)
(7.35459 0.00336981 0)
(7.3563 0.00292425 0)
(7.35801 0.00243682 0)
(7.35973 0.00190843 0)
(7.36146 0.00133923 0)
(7.3632 0.000728605 0)
(7.36496 7.52419e-05 0)
(7.36674 -0.000622993 0)
(7.36854 -0.00136893 0)
(7.37035 -0.00216612 0)
(7.3722 -0.00301874 0)
(7.37406 -0.00393152 0)
(7.37596 -0.00490953 0)
(7.37787 -0.00595796 0)
(7.37981 -0.00708183 0)
(7.38177 -0.00828599 0)
(7.38374 -0.00957202 0)
(7.33302 0.000399764 0)
(7.33329 0.00118132 0)
(7.33385 0.00189939 0)
(7.33465 0.00252524 0)
(7.33565 0.00304346 0)
(7.3368 0.00344761 0)
(7.33809 0.003738 0)
(7.33947 0.00392011 0)
(7.34093 0.00400236 0)
(7.34244 0.00399414 0)
(7.344 0.00390475 0)
(7.34558 0.00374278 0)
(7.34719 0.00351574 0)
(7.34881 0.00322996 0)
(7.35044 0.00289056 0)
(7.35209 0.00250156 0)
(7.35374 0.00206596 0)
(7.3554 0.00158581 0)
(7.35706 0.00106235 0)
(7.35874 0.000496032 0)
(7.36042 -0.000113395 0)
(7.36211 -0.00076688 0)
(7.36382 -0.00146598 0)
(7.36554 -0.00221295 0)
(7.36727 -0.00301062 0)
(7.36902 -0.00386236 0)
(7.37078 -0.00477202 0)
(7.37257 -0.00574377 0)
(7.37437 -0.00678202 0)
(7.37618 -0.00789114 0)
(7.37801 -0.00907534 0)
(7.37986 -0.0103387 0)
(7.38171 -0.0116821 0)
(7.33302 0.000318922 0)
(7.33327 0.00094163 0)
(7.3338 0.00151033 0)
(7.33455 0.0020006 0)
(7.33549 0.00239896 0)
(7.33658 0.00269908 0)
(7.3378 0.0029003 0)
(7.33912 0.00300635 0)
(7.34051 0.00302355 0)
(7.34197 0.00295924 0)
(7.34347 0.00282082 0)
(7.345 0.00261522 0)
(7.34656 0.00234854 0)
(7.34813 0.00202589 0)
(7.34972 0.00165143 0)
(7.35132 0.00122831 0)
(7.35292 0.000758834 0)
(7.35454 0.000244449 0)
(7.35616 -0.00031413 0)
(7.35778 -0.000916881 0)
(7.35941 -0.00156442 0)
(7.36105 -0.00225794 0)
(7.36269 -0.00299926 0)
(7.36435 -0.00379063 0)
(7.36601 -0.00463483 0)
(7.36769 -0.00553504 0)
(7.36937 -0.00649475 0)
(7.37107 -0.00751768 0)
(7.37277 -0.00860763 0)
(7.37448 -0.00976833 0)
(7.3762 -0.0110033 0)
(7.37792 -0.012316 0)
(7.37965 -0.0137067 0)
(7.33302 0.000240953 0)
(7.33325 0.000710505 0)
(7.33375 0.00113474 0)
(7.33446 0.00149278 0)
(7.33534 0.0017729 0)
(7.33638 0.00196914 0)
(7.33754 0.0020802 0)
(7.3388 0.0021085 0)
(7.34014 0.00205863 0)
(7.34154 0.00193613 0)
(7.34298 0.00174673 0)
(7.34447 0.00149582 0)
(7.34597 0.00118814 0)
(7.3475 0.000827695 0)
(7.34904 0.000417641 0)
(7.35059 -3.96662e-05 0)
(7.35215 -0.000542635 0)
(7.35372 -0.00109038 0)
(7.35529 -0.00168269 0)
(7.35686 -0.00231993 0)
(7.35843 -0.00300303 0)
(7.36001 -0.00373342 0)
(7.3616 -0.00451299 0)
(7.36318 -0.00534407 0)
(7.36477 -0.00622931 0)
(7.36637 -0.00717168 0)
(7.36797 -0.00817436 0)
(7.36957 -0.00924064 0)
(7.37117 -0.0103738 0)
(7.37278 -0.011577 0)
(7.37438 -0.0128533 0)
(7.37598 -0.0142055 0)
(7.37758 -0.0156336 0)
(7.33302 0.000165549 0)
(7.33324 0.000486894 0)
(7.3337 0.000770722 0)
(7.33437 0.000999023 0)
(7.33521 0.00116162 0)
(7.3362 0.00125309 0)
(7.3373 0.00127188 0)
(7.33851 0.00121949 0)
(7.3398 0.00109931 0)
(7.34115 0.000915446 0)
(7.34254 0.000672181 0)
(7.34398 0.000373563 0)
(7.34544 2.31228e-05 0)
(7.34692 -0.000376259 0)
(7.34841 -0.000822369 0)
(7.34992 -0.00131367 0)
(7.35143 -0.00184927 0)
(7.35294 -0.00242886 0)
(7.35446 -0.00305272 0)
(7.35597 -0.00372161 0)
(7.35749 -0.00443673 0)
(7.35901 -0.00519973 0)
(7.36052 -0.0060126 0)
(7.36204 -0.00687766 0)
(7.36355 -0.00779746 0)
(7.36506 -0.00877477 0)
(7.36657 -0.00981246 0)
(7.36808 -0.0109135 0)
(7.36958 -0.0120806 0)
(7.37108 -0.0133167 0)
(7.37256 -0.014624 0)
(7.37404 -0.0160052 0)
(7.37551 -0.0174599 0)
(7.33302 9.24391e-05 0)
(7.33323 0.000270113 0)
(7.33366 0.000417576 0)
(7.3343 0.000519424 0)
(7.33509 0.000567072 0)
(7.33603 0.000555783 0)
(7.33709 0.000483839 0)
(7.33825 0.000351917 0)
(7.33949 0.000162096 0)
(7.34079 -8.27387e-05 0)
(7.34214 -0.000379624 0)
(7.34353 -0.000725786 0)
(7.34494 -0.00111884 0)
(7.34638 -0.0015569 0)
(7.34783 -0.00203864 0)
(7.34928 -0.00256325 0)
(7.35074 -0.00313045 0)
(7.35221 -0.00374049 0)
(7.35367 -0.00439402 0)
(7.35513 -0.00509214 0)
(7.35658 -0.00583631 0)
(7.35804 -0.0066283 0)
(7.35948 -0.00747017 0)
(7.36092 -0.00836419 0)
(7.36236 -0.00931282 0)
(7.36378 -0.0103186 0)
(7.3652 -0.0113842 0)
(7.36661 -0.0125121 0)
(7.36801 -0.0137049 0)
(7.36939 -0.0149648 0)
(7.37076 -0.0162939 0)
(7.37211 -0.0176944 0)
(7.37344 -0.0191654 0)
(7.33302 2.12602e-05 0)
(7.33321 5.85227e-05 0)
(7.33363 7.11268e-05 0)
(7.33423 4.55023e-05 0)
(7.33499 -2.53522e-05 0)
(7.33589 -0.00014491 0)
(7.33691 -0.000314194 0)
(7.33802 -0.000532463 0)
(7.33922 -0.000798115 0)
(7.34048 -0.00110912 0)
(7.34178 -0.00146359 0)
(7.34313 -0.00185992 0)
(7.3445 -0.00229689 0)
(7.34589 -0.00277368 0)
(7.34729 -0.00328992 0)
(7.34869 -0.00384567 0)
(7.35011 -0.00444137 0)
(7.35152 -0.00507787 0)
(7.35292 -0.00575633 0)
(7.35432 -0.00647822 0)
(7.35572 -0.00724526 0)
(7.3571 -0.00805941 0)
(7.35848 -0.00892279 0)
(7.35984 -0.00983768 0)
(7.36119 -0.0108064 0)
(7.36253 -0.0118314 0)
(7.36386 -0.012915 0)
(7.36516 -0.0140595 0)
(7.36646 -0.0152671 0)
(7.36773 -0.0165398 0)
(7.36898 -0.0178792 0)
(7.3702 -0.0192871 0)
(7.37141 -0.0207625 0)
(7.33302 -4.78676e-05 0)
(7.3332 -0.000145724 0)
(7.3336 -0.000260861 0)
(7.33417 -0.000404712 0)
(7.33489 -0.000583079 0)
(7.33576 -0.000799218 0)
(7.33674 -0.00105469 0)
(7.33781 -0.00134962 0)
(7.33897 -0.00168326 0)
(7.34019 -0.00205468 0)
(7.34146 -0.00246296 0)
(7.34276 -0.00290733 0)
(7.34409 -0.00338737 0)
(7.34544 -0.00390297 0)
(7.3468 -0.00445438 0)
(7.34816 -0.00504221 0)
(7.34952 -0.00566737 0)
(7.35088 -0.00633109 0)
(7.35223 -0.00703484 0)
(7.35357 -0.00778033 0)
(7.3549 -0.00856945 0)
(7.35622 -0.00940424 0)
(7.35752 -0.0102869 0)
(7.35881 -0.0112195 0)
(7.36008 -0.0122045 0)
(7.36133 -0.013244 0)
(7.36255 -0.0143402 0)
(7.36376 -0.0154952 0)
(7.36495 -0.0167108 0)
(7.3661 -0.0179887 0)
(7.36723 -0.0193303 0)
(7.36834 -0.0207372 0)
(7.36941 -0.0222082 0)
(7.33302 -0.000116273 0)
(7.33319 -0.000352559 0)
(7.33357 -0.000607247 0)
(7.33413 -0.000889903 0)
(7.33482 -0.0012021 0)
(7.33566 -0.00154265 0)
(7.33661 -0.00191001 0)
(7.33765 -0.00230285 0)
(7.33877 -0.00272042 0)
(7.33995 -0.0031626 0)
(7.34118 -0.00362981 0)
(7.34245 -0.00412285 0)
(7.34374 -0.00464287 0)
(7.34504 -0.00519121 0)
(7.34635 -0.00576945 0)
(7.34767 -0.00637927 0)
(7.34898 -0.00702253 0)
(7.35029 -0.00770118 0)
(7.35158 -0.00841728 0)
(7.35286 -0.00917294 0)
(7.35413 -0.00997038 0)
(7.35538 -0.0108118 0)
(7.35661 -0.0116995 0)
(7.35781 -0.0126356 0)
(7.359 -0.0136223 0)
(7.36016 -0.0146617 0)
(7.36129 -0.0157558 0)
(7.3624 -0.0169064 0)
(7.36348 -0.0181151 0)
(7.36452 -0.0193834 0)
(7.36554 -0.0207124 0)
(7.36651 -0.0221033 0)
(7.36746 -0.0235548 0)
(7.33301 -0.000179557 0)
(7.33317 -0.000530834 0)
(7.33352 -0.000885008 0)
(7.33404 -0.00125396 0)
(7.33471 -0.00164324 0)
(7.33552 -0.00205534 0)
(7.33644 -0.002491 0)
(7.33747 -0.00294968 0)
(7.33857 -0.00343056 0)
(7.33973 -0.00393309 0)
(7.34093 -0.00445724 0)
(7.34217 -0.00500346 0)
(7.34343 -0.00557262 0)
(7.3447 -0.006166 0)
(7.34598 -0.00678515 0)
(7.34725 -0.00743187 0)
(7.34852 -0.00810814 0)
(7.34977 -0.00881607 0)
(7.35101 -0.00955788 0)
(7.35224 -0.0103358 0)
(7.35344 -0.0111523 0)
(7.35462 -0.0120095 0)
(7.35577 -0.0129097 0)
(7.3569 -0.0138552 0)
(7.358 -0.0148482 0)
(7.35907 -0.0158905 0)
(7.36011 -0.016984 0)
(7.36112 -0.0181305 0)
(7.36209 -0.0193315 0)
(7.36302 -0.0205882 0)
(7.36392 -0.0219016 0)
(7.36478 -0.0232727 0)
(7.36559 -0.0247002 0)
(7.33302 -0.000253918 0)
(7.33319 -0.000779173 0)
(7.33355 -0.00133364 0)
(7.33406 -0.0019131 0)
(7.33471 -0.0025027 0)
(7.3355 -0.00309091 0)
(7.33639 -0.00367254 0)
(7.33738 -0.00424672 0)
(7.33844 -0.0048153 0)
(7.33956 -0.00538168 0)
(7.34073 -0.00595002 0)
(7.34193 -0.00652472 0)
(7.34315 -0.00711009 0)
(7.34439 -0.00771026 0)
(7.34562 -0.00832908 0)
(7.34685 -0.0089701 0)
(7.34807 -0.00963665 0)
(7.34928 -0.0103318 0)
(7.35046 -0.0110586 0)
(7.35163 -0.0118196 0)
(7.35277 -0.0126174 0)
(7.35388 -0.0134546 0)
(7.35497 -0.0143333 0)
(7.35602 -0.0152557 0)
(7.35704 -0.0162239 0)
(7.35802 -0.0172396 0)
(7.35897 -0.0183045 0)
(7.35988 -0.01942 0)
(7.36075 -0.0205874 0)
(7.36157 -0.0218076 0)
(7.36236 -0.0230815 0)
(7.3631 -0.0244097 0)
(7.36379 -0.0257909 0)
(7.333 -0.000280505 0)
(7.3331 -0.000798626 0)
(7.33338 -0.00130443 0)
(7.33384 -0.00183386 0)
(7.33448 -0.00239836 0)
(7.33527 -0.00299523 0)
(7.33618 -0.00361676 0)
(7.33719 -0.00425487 0)
(7.33827 -0.00490347 0)
(7.33941 -0.00555899 0)
(7.34059 -0.00621997 0)
(7.34178 -0.00688659 0)
(7.34299 -0.0075602 0)
(7.34421 -0.00824297 0)
(7.34541 -0.00893753 0)
(7.34661 -0.00964683 0)
(7.34779 -0.0103739 0)
(7.34895 -0.011122 0)
(7.35009 -0.011894 0)
(7.35119 -0.012693 0)
(7.35227 -0.0135218 0)
(7.35332 -0.0143832 0)
(7.35433 -0.0152797 0)
(7.3553 -0.0162136 0)
(7.35624 -0.0171873 0)
(7.35713 -0.0182026 0)
(7.35798 -0.0192612 0)
(7.35879 -0.0203649 0)
(7.35956 -0.0215147 0)
(7.36028 -0.0227119 0)
(7.36095 -0.0239571 0)
(7.36157 -0.0252512 0)
(7.36214 -0.0265928 0)
(7.33305 -0.000447847 0)
(7.33328 -0.00141358 0)
(7.33363 -0.00243399 0)
(7.33409 -0.00344344 0)
(7.33468 -0.00439064 0)
(7.33539 -0.00525909 0)
(7.33623 -0.00605272 0)
(7.33716 -0.00678249 0)
(7.33818 -0.00746157 0)
(7.33926 -0.00810322 0)
(7.34039 -0.00871971 0)
(7.34155 -0.00932186 0)
(7.34272 -0.00991888 0)
(7.3439 -0.0105185 0)
(7.34507 -0.0111273 0)
(7.34623 -0.0117508 0)
(7.34737 -0.0123934 0)
(7.34849 -0.0130593 0)
(7.34958 -0.0137518 0)
(7.35064 -0.014474 0)
(7.35167 -0.0152285 0)
(7.35266 -0.0160178 0)
(7.35361 -0.0168438 0)
(7.35451 -0.0177086 0)
(7.35538 -0.0186137 0)
(7.3562 -0.0195606 0)
(7.35697 -0.0205507 0)
(7.35769 -0.0215849 0)
(7.35836 -0.0226642 0)
(7.35898 -0.023789 0)
(7.35955 -0.02496 0)
(7.36007 -0.0261775 0)
(7.36053 -0.0274399 0)
(7.33293 -0.000196984 0)
(7.33282 -0.000499522 0)
(7.33296 -0.000857155 0)
(7.3334 -0.00139833 0)
(7.33408 -0.0021117 0)
(7.33495 -0.00293831 0)
(7.33594 -0.00382524 0)
(7.33702 -0.00473547 0)
(7.33815 -0.00564567 0)
(7.33932 -0.00654235 0)
(7.3405 -0.00741913 0)
(7.34169 -0.00827448 0)
(7.34287 -0.00911001 0)
(7.34404 -0.00992917 0)
(7.3452 -0.0107364 0)
(7.34633 -0.0115366 0)
(7.34743 -0.0123348 0)
(7.3485 -0.0131358 0)
(7.34953 -0.0139443 0)
(7.35053 -0.0147646 0)
(7.35148 -0.0156008 0)
(7.3524 -0.0164564 0)
(7.35327 -0.0173347 0)
(7.35409 -0.0182388 0)
(7.35487 -0.0191712 0)
(7.35559 -0.0201341 0)
(7.35627 -0.0211297 0)
(7.35689 -0.0221596 0)
(7.35746 -0.0232251 0)
(7.35798 -0.0243274 0)
(7.35844 -0.0254673 0)
(7.35884 -0.0266456 0)
(7.35919 -0.0278612 0)
(7.33316 -0.000893344 0)
(7.33361 -0.00295716 0)
(7.3339 -0.00498159 0)
(7.33415 -0.00670778 0)
(7.33453 -0.00808995 0)
(7.3351 -0.00919064 0)
(7.33584 -0.0100793 0)
(7.33672 -0.010813 0)
(7.33771 -0.0114382 0)
(7.33878 -0.0119915 0)
(7.3399 -0.0125006 0)
(7.34106 -0.0129864 0)
(7.34222 -0.0134639 0)
(7.34338 -0.0139445 0)
(7.34453 -0.0144363 0)
(7.34565 -0.0149453 0)
(7.34675 -0.0154762 0)
(7.34781 -0.0160323 0)
(7.34883 -0.0166164 0)
(7.34981 -0.0172307 0)
(7.35074 -0.017877 0)
(7.35163 -0.0185566 0)
(7.35246 -0.0192709 0)
(7.35325 -0.0200209 0)
(7.35398 -0.0208075 0)
(7.35465 -0.0216315 0)
(7.35527 -0.0224934 0)
(7.35583 -0.0233938 0)
(7.35633 -0.0243329 0)
(7.35677 -0.025311 0)
(7.35715 -0.0263281 0)
(7.35746 -0.0273843 0)
(7.35772 -0.0284781 0)
(7.33266 0.000506599 0)
(7.33187 0.00170169 0)
(7.33188 0.00228221 0)
(7.33257 0.00190854 0)
(7.33359 0.000894439 0)
(7.33474 -0.000440216 0)
(7.33596 -0.0019009 0)
(7.3372 -0.00338323 0)
(7.33844 -0.00482876 0)
(7.33967 -0.00620612 0)
(7.34088 -0.00750279 0)
(7.34206 -0.00871785 0)
(7.34322 -0.00985663 0)
(7.34433 -0.0109276 0)
(7.34542 -0.0119406 0)
(7.34647 -0.0129057 0)
(7.34747 -0.0138327 0)
(7.34844 -0.0147305 0)
(7.34936 -0.0156073 0)
(7.35024 -0.0164706 0)
(7.35107 -0.0173268 0)
(7.35185 -0.0181817 0)
(7.35259 -0.0190404 0)
(7.35326 -0.0199071 0)
(7.35389 -0.0207856 0)
(7.35446 -0.0216793 0)
(7.35497 -0.0225908 0)
(7.35542 -0.0235225 0)
(7.35582 -0.0244763 0)
(7.35615 -0.0254538 0)
(7.35643 -0.026456 0)
(7.35664 -0.0274841 0)
(7.35679 -0.0285374 0)
(7.33352 -0.00204643 0)
(7.33441 -0.00691914 0)
(7.33398 -0.0114505 0)
(7.33325 -0.0142957 0)
(7.33301 -0.0159571 0)
(7.3333 -0.0169329 0)
(7.33396 -0.0174776 0)
(7.33486 -0.0177631 0)
(7.33593 -0.0179073 0)
(7.33711 -0.0179864 0)
(7.33834 -0.0180484 0)
(7.3396 -0.0181227 0)
(7.34086 -0.0182262 0)
(7.34211 -0.0183685 0)
(7.34332 -0.0185544 0)
(7.3445 -0.0187857 0)
(7.34562 -0.0190627 0)
(7.3467 -0.0193846 0)
(7.34773 -0.0197505 0)
(7.34869 -0.0201589 0)
(7.3496 -0.0206087 0)
(7.35045 -0.0210985 0)
(7.35124 -0.0216274 0)
(7.35196 -0.0221943 0)
(7.35262 -0.0227985 0)
(7.35322 -0.0234391 0)
(7.35375 -0.0241155 0)
(7.35422 -0.0248271 0)
(7.35462 -0.0255733 0)
(7.35496 -0.0263535 0)
(7.35523 -0.0271673 0)
(7.35543 -0.0280142 0)
(7.35557 -0.0288926 0)
(7.33179 0.00337886 0)
(7.32901 0.00916999 0)
(7.32947 0.0117678 0)
(7.33178 0.0114594 0)
(7.33383 0.00933235 0)
(7.33555 0.00660343 0)
(7.33709 0.00377398 0)
(7.33848 0.00102968 0)
(7.33975 -0.0015288 0)
(7.34093 -0.00385936 0)
(7.34204 -0.00595942 0)
(7.34311 -0.00784437 0)
(7.34413 -0.00953672 0)
(7.34513 -0.0110613 0)
(7.3461 -0.0124425 0)
(7.34703 -0.0137031 0)
(7.34794 -0.0148633 0)
(7.34882 -0.0159409 0)
(7.34967 -0.0169514 0)
(7.35048 -0.0179081 0)
(7.35125 -0.0188224 0)
(7.35198 -0.019704 0)
(7.35267 -0.0205612 0)
(7.3533 -0.021401 0)
(7.35389 -0.0222296 0)
(7.35443 -0.0230519 0)
(7.35491 -0.0238722 0)
(7.35534 -0.0246942 0)
(7.3557 -0.0255208 0)
(7.35601 -0.0263546 0)
(7.35625 -0.0271974 0)
(7.35643 -0.0280508 0)
(7.35654 -0.0289153 0)
(7.33408 -0.00614454 0)
(7.33403 -0.0190109 0)
(7.33025 -0.0270949 0)
(7.32656 -0.0306416 0)
(7.32497 -0.0314318 0)
(7.32517 -0.0310225 0)
(7.3262 -0.030083 0)
(7.32765 -0.0289354 0)
(7.32937 -0.0277778 0)
(7.33123 -0.026714 0)
(7.33316 -0.0257884 0)
(7.3351 -0.0250155 0)
(7.33702 -0.0243944 0)
(7.3389 -0.0239162 0)
(7.34074 -0.0235684 0)
(7.3425 -0.0233376 0)
(7.34421 -0.0232106 0)
(7.34584 -0.0231757 0)
(7.3474 -0.023222 0)
(7.34889 -0.0233403 0)
(7.35029 -0.0235228 0)
(7.35162 -0.0237625 0)
(7.35287 -0.0240538 0)
(7.35405 -0.0243919 0)
(7.35514 -0.0247727 0)
(7.35615 -0.025193 0)
(7.35707 -0.0256499 0)
(7.35792 -0.0261409 0)
(7.35868 -0.026664 0)
(7.35937 -0.0272175 0)
(7.35997 -0.0277999 0)
(7.36049 -0.0284101 0)
(7.36093 -0.029046 0)
(7.32967 0.0198513 0)
(7.32497 0.0369793 0)
(7.3293 0.0376623 0)
(7.33509 0.0322392 0)
(7.33871 0.0258132 0)
(7.34085 0.0194858 0)
(7.34264 0.0135669 0)
(7.34435 0.00826149 0)
(7.34606 0.00361582 0)
(7.34785 -0.000416638 0)
(7.34973 -0.00390493 0)
(7.35168 -0.00692058 0)
(7.35371 -0.00953258 0)
(7.35578 -0.0118035 0)
(7.35788 -0.0137879 0)
(7.35998 -0.0155324 0)
(7.36208 -0.0170764 0)
(7.36414 -0.0184531 0)
(7.36617 -0.0196906 0)
(7.36815 -0.0208121 0)
(7.37006 -0.0218372 0)
(7.3719 -0.0227826 0)
(7.37367 -0.0236619 0)
(7.37536 -0.0244868 0)
(7.37696 -0.0252671 0)
(7.37847 -0.0260112 0)
(7.37989 -0.0267261 0)
(7.38122 -0.0274179 0)
(7.38245 -0.0280916 0)
(7.38359 -0.0287516 0)
(7.38462 -0.0294017 0)
(7.38556 -0.0300448 0)
(7.3864 -0.0306843 0)
(7.32507 -0.0330892 0)
(7.29737 -0.0587942 0)
(7.27805 -0.0617499 0)
(7.27373 -0.0594033 0)
(7.28034 -0.0559294 0)
(7.29178 -0.0519034 0)
(7.30503 -0.0479757 0)
(7.31875 -0.0444818 0)
(7.33217 -0.0414714 0)
(7.3449 -0.0389268 0)
(7.35677 -0.0368112 0)
(7.36771 -0.035073 0)
(7.37775 -0.0336583 0)
(7.38692 -0.032518 0)
(7.39527 -0.0316088 0)
(7.40286 -0.0308934 0)
(7.40976 -0.0303405 0)
(7.416 -0.0299241 0)
(7.42166 -0.0296227 0)
(7.42677 -0.0294183 0)
(7.43138 -0.0292965 0)
(7.43553 -0.0292452 0)
(7.43925 -0.0292546 0)
(7.44258 -0.0293166 0)
(7.44553 -0.0294245 0)
(7.44815 -0.0295728 0)
(7.45046 -0.0297568 0)
(7.45247 -0.0299728 0)
(7.4542 -0.0302175 0)
(7.45568 -0.0304882 0)
(7.45692 -0.0307824 0)
(7.45793 -0.031098 0)