/*--------------------------------*- C++ -*----------------------------------*\
  =========                 |
  \\      /  F ield         | OpenFOAM: The Open Source CFD Toolbox
   \\    /   O peration     | Website:  https://openfoam.org
    \\  /    A nd           | Version:  10
     \\/     M anipulation  |
\*---------------------------------------------------------------------------*/
FoamFile
{
    format      ascii;
    class       volScalarField;
    location    "0.05";
    object      epsilon;
}
// * * * * * * * * * * * * * * * * * * * * * * * * * * * * * * * * * * * * * //

dimensions      [0 2 -3 0 0 0 0];

internalField   nonuniform List<scalar> 
6820
(
23.2969
22.5752
21.9094
21.2853
20.7019
20.1632
19.6735
19.2344
18.8456
18.5049
18.209
17.9543
17.7368
17.5528
17.3987
17.2713
17.1676
17.0849
17.0207
16.9729
16.9395
16.919
16.9096
16.9101
16.9194
16.9365
16.9599
16.9919
17.0179
17.1037
16.9379
17.9808
13.3731
5.03386
6.8183
7.83929
8.46751
8.89788
9.23115
9.52113
9.79424
10.0625
10.3308
10.6012
10.8738
11.1486
11.4249
11.7023
11.9802
12.258
12.5354
12.8118
13.0871
13.361
13.6335
13.9047
14.175
14.4451
14.716
14.9898
15.269
15.5585
15.8739
16.1899
16.7399
16.8131
3.7036
4.14719
4.56525
4.91421
5.19791
5.43114
5.62794
5.79952
5.95431
6.09842
6.23613
6.37037
6.50303
6.63535
6.76807
6.90162
7.0362
7.17189
7.30867
7.4465
7.5853
7.72502
7.86565
8.00722
8.14989
8.29395
8.43987
8.58869
8.74114
8.90138
9.06706
9.25583
9.45136
3.54009
3.61093
3.72473
3.85371
3.98116
4.0994
4.20617
4.30191
4.38809
4.46649
4.53884
4.60662
4.67108
4.73323
4.79383
4.85349
4.91265
4.97164
5.03071
5.09003
5.14974
5.20994
5.27073
5.3322
5.39449
5.45776
5.52226
5.58838
5.65659
5.72796
5.8032
5.88444
5.97415
3.52064
3.50151
3.50498
3.52611
3.55867
3.5972
3.63778
3.67801
3.7166
3.75301
3.78714
3.81915
3.8493
3.87789
3.90522
3.93158
3.95722
3.98234
4.00715
4.03178
4.05637
4.08103
4.10587
4.13098
4.15647
4.18247
4.20912
4.23664
4.2653
4.29551
4.32773
4.36272
4.40111
3.5194
3.48247
3.45303
3.43232
3.41995
3.4145
3.41422
3.4175
3.42305
3.42995
3.43753
3.44539
3.45328
3.46106
3.46868
3.47613
3.48343
3.49062
3.49776
3.50488
3.51204
3.5193
3.5267
3.5343
3.54217
3.55037
3.55899
3.56816
3.57802
3.58878
3.60069
3.61413
3.6294
3.51943
3.47974
3.44283
3.40949
3.38025
3.35523
3.3342
3.31668
3.30212
3.28998
3.27975
3.27104
3.26352
3.25694
3.25111
3.24589
3.24117
3.23689
3.23299
3.22944
3.22622
3.22333
3.22075
3.2185
3.21659
3.21506
3.21392
3.21326
3.21313
3.21366
3.21497
3.21727
3.22074
3.51947
3.47943
3.44109
3.40466
3.37041
3.33852
3.30907
3.28205
3.25735
3.2348
3.21418
3.19529
3.17793
3.16191
3.14705
3.13323
3.12031
3.1082
3.09681
3.08608
3.07595
3.06637
3.05731
3.04874
3.04066
3.03304
3.02591
3.01926
3.01315
3.00762
3.00275
2.99864
2.99541
3.51948
3.47941
3.44085
3.40382
3.36835
3.33448
3.30225
3.27169
3.2428
3.21553
3.18983
3.16563
3.14283
3.12134
3.10106
3.08189
3.06376
3.04656
3.03025
3.01473
2.99997
2.9859
2.97249
2.95969
2.94748
2.93583
2.92473
2.91419
2.9042
2.89479
2.886
2.87789
2.87054
3.51948
3.4794
3.44082
3.40368
3.36796
3.33361
3.30063
3.26898
3.23865
3.20961
3.18185
3.15532
3.12999
3.1058
3.0827
3.06064
3.03957
3.01943
3.00017
2.98174
2.9641
2.9472
2.931
2.91547
2.90057
2.88629
2.8726
2.85949
2.84697
2.83503
2.82371
2.81303
2.80304
3.51948
3.4794
3.44081
3.40365
3.36788
3.33344
3.30027
3.26834
3.23759
3.208
3.17953
3.15214
3.1258
3.10048
3.07614
3.05274
3.03024
3.00861
2.98782
2.96782
2.94859
2.93008
2.91227
2.89512
2.87862
2.86274
2.84746
2.83278
2.81867
2.80516
2.79225
2.77996
2.76832
3.51948
3.4794
3.4408
3.40364
3.36786
3.3334
3.30019
3.26819
3.23734
3.20759
3.17891
3.15125
3.12457
3.09884
3.07403
3.05009
3.027
3.00473
2.98324
2.9625
2.9425
2.92319
2.90455
2.88657
2.86921
2.85246
2.8363
2.82073
2.80573
2.79131
2.77747
2.76423
2.75162
3.51948
3.4794
3.44079
3.40363
3.36785
3.33337
3.30016
3.26814
3.23726
3.20748
3.17874
3.151
3.12422
3.09837
3.07339
3.04927
3.02597
3.00345
2.98169
2.96065
2.94032
2.92067
2.90166
2.88329
2.86553
2.84836
2.83178
2.81576
2.80031
2.78542
2.7711
2.75735
2.7442
3.51948
3.47939
3.44079
3.40362
3.36783
3.33336
3.30014
3.26811
3.23722
3.20743
3.17867
3.15091
3.12411
3.09821
3.0732
3.04902
3.02564
3.00304
2.98119
2.96005
2.9396
2.91981
2.90067
2.88214
2.86422
2.84688
2.83011
2.8139
2.79825
2.78314
2.76859
2.7546
2.74117
3.51947
3.47939
3.44079
3.40362
3.36782
3.33335
3.30012
3.26809
3.2372
3.20739
3.17863
3.15087
3.12405
3.09815
3.07311
3.04892
3.02553
3.0029
2.98102
2.95984
2.93936
2.91953
2.90034
2.88176
2.86378
2.84638
2.82954
2.81326
2.79753
2.78233
2.76768
2.75358
2.74002
3.51947
3.47939
3.44078
3.40361
3.36782
3.33333
3.3001
3.26807
3.23717
3.20737
3.1786
3.15083
3.12401
3.0981
3.07306
3.04886
3.02546
3.00283
2.98094
2.95976
2.93926
2.91942
2.90021
2.88162
2.86363
2.84621
2.82935
2.81305
2.79729
2.78206
2.76737
2.75321
2.73958
3.51947
3.47939
3.44078
3.40361
3.36781
3.33332
3.30009
3.26805
3.23715
3.20734
3.17857
3.1508
3.12397
3.09806
3.07302
3.04882
3.02541
3.00278
2.98088
2.9597
2.9392
2.91936
2.90015
2.88155
2.86356
2.84613
2.82928
2.81297
2.79719
2.78195
2.76724
2.75305
2.73938
3.51947
3.47939
3.44078
3.4036
3.3678
3.33332
3.30008
3.26804
3.23713
3.20732
3.17855
3.15077
3.12394
3.09803
3.07298
3.04878
3.02537
3.00273
2.98084
2.95965
2.93915
2.9193
2.9001
2.8815
2.86351
2.84608
2.82922
2.81291
2.79713
2.78188
2.76715
2.75294
2.73924
3.51947
3.47939
3.44078
3.4036
3.3678
3.33331
3.30007
3.26802
3.23712
3.2073
3.17853
3.15074
3.12391
3.098
3.07295
3.04874
3.02533
3.00269
2.98079
2.9596
2.9391
2.91926
2.90005
2.88145
2.86346
2.84603
2.82917
2.81285
2.79707
2.78181
2.76706
2.75283
2.73909
3.51947
3.47939
3.44077
3.4036
3.36779
3.3333
3.30006
3.26801
3.23711
3.20729
3.17851
3.15072
3.12389
3.09797
3.07292
3.0487
3.02529
3.00265
2.98075
2.95956
2.93906
2.91921
2.9
2.8814
2.8634
2.84597
2.82911
2.81278
2.79699
2.78172
2.76696
2.7527
2.73893
3.51947
3.47939
3.44077
3.40359
3.36779
3.3333
3.30005
3.268
3.23709
3.20727
3.17849
3.1507
3.12386
3.09794
3.07289
3.04867
3.02526
3.00261
2.98071
2.95952
2.93901
2.91916
2.89995
2.88135
2.86334
2.84591
2.82904
2.8127
2.7969
2.78161
2.76683
2.75254
2.73874
3.51947
3.47938
3.44077
3.40359
3.36779
3.33329
3.30005
3.268
3.23708
3.20726
3.17847
3.15068
3.12384
3.09792
3.07286
3.04864
3.02522
3.00258
2.98067
2.95947
2.93896
2.91911
2.89989
2.88129
2.86327
2.84584
2.82895
2.81261
2.79679
2.78149
2.76669
2.75237
2.73854
3.51947
3.47938
3.44077
3.40359
3.36778
3.33329
3.30004
3.26799
3.23707
3.20725
3.17846
3.15067
3.12382
3.09789
3.07283
3.04861
3.02519
3.00254
2.98063
2.95943
2.93891
2.91905
2.89983
2.88122
2.8632
2.84575
2.82886
2.81251
2.79667
2.78135
2.76653
2.75218
2.73831
3.51947
3.47938
3.44077
3.40359
3.36778
3.33329
3.30004
3.26798
3.23707
3.20724
3.17845
3.15065
3.12381
3.09787
3.07281
3.04858
3.02516
3.0025
2.98059
2.95938
2.93886
2.919
2.89977
2.88115
2.86312
2.84567
2.82876
2.81239
2.79654
2.7812
2.76635
2.75198
2.73808
3.51947
3.47938
3.44077
3.40359
3.36778
3.33328
3.30003
3.26798
3.23706
3.20723
3.17843
3.15064
3.12379
3.09785
3.07279
3.04856
3.02513
3.00247
2.98055
2.95934
2.93881
2.91894
2.8997
2.88108
2.86304
2.84557
2.82865
2.81227
2.7964
2.78104
2.76616
2.75176
2.73782
3.51947
3.47938
3.44077
3.40359
3.36778
3.33328
3.30003
3.26797
3.23705
3.20722
3.17843
3.15062
3.12377
3.09783
3.07277
3.04853
3.0251
3.00244
2.98051
2.95929
2.93876
2.91888
2.89964
2.881
2.86295
2.84547
2.82854
2.81214
2.79625
2.78087
2.76596
2.75154
2.73756
3.51947
3.47938
3.44077
3.40359
3.36778
3.33328
3.30003
3.26797
3.23705
3.20721
3.17841
3.15061
3.12376
3.09782
3.07274
3.04851
3.02507
3.0024
2.98047
2.95925
2.9387
2.91882
2.89956
2.88092
2.86286
2.84536
2.82842
2.812
2.79609
2.78068
2.76576
2.7513
2.7373
3.51947
3.47938
3.44077
3.40359
3.36778
3.33328
3.30003
3.26797
3.23704
3.20721
3.17841
3.15061
3.12375
3.0978
3.07273
3.04849
3.02505
3.00237
2.98043
2.95921
2.93866
2.91876
2.8995
2.88084
2.86277
2.84526
2.8283
2.81186
2.79594
2.78051
2.76556
2.75107
2.73703
3.51947
3.47938
3.44077
3.40359
3.36778
3.33328
3.30002
3.26796
3.23704
3.2072
3.1784
3.15059
3.12373
3.09778
3.0727
3.04846
3.02501
3.00233
2.98039
2.95916
2.9386
2.9187
2.89942
2.88075
2.86267
2.84515
2.82817
2.81172
2.79577
2.78032
2.76535
2.75083
2.73677
3.51947
3.47938
3.44077
3.40359
3.36778
3.33328
3.30003
3.26797
3.23705
3.20721
3.17841
3.1506
3.12374
3.09779
3.07271
3.04846
3.02501
3.00232
2.98037
2.95913
2.93857
2.91865
2.89937
2.88069
2.86259
2.84506
2.82806
2.8116
2.79563
2.78016
2.76516
2.75062
2.73653
3.51947
3.47939
3.44077
3.40359
3.36778
3.33328
3.30003
3.26796
3.23704
3.2072
3.17839
3.15058
3.12372
3.09777
3.07268
3.04843
3.02497
3.00229
2.98033
2.95908
2.93851
2.9186
2.8993
2.88062
2.86251
2.84496
2.82796
2.81147
2.7955
2.78001
2.76499
2.75043
2.73631
3.51947
3.47938
3.44077
3.40359
3.36779
3.3333
3.30006
3.268
3.23708
3.20725
3.17845
3.15064
3.12378
3.09783
3.07274
3.04848
3.02503
3.00234
2.98038
2.95913
2.93855
2.91863
2.89933
2.88064
2.86253
2.84497
2.82796
2.81147
2.79549
2.77999
2.76496
2.75039
2.73627
3.51948
3.4794
3.4408
3.40362
3.36782
3.33332
3.30007
3.26801
3.23709
3.20725
3.17845
3.15065
3.12379
3.09785
3.07277
3.04853
3.02508
3.00241
2.98047
2.95924
2.93869
2.91879
2.89952
2.88085
2.86277
2.84526
2.82828
2.81183
2.79588
2.78042
2.76544
2.75091
2.73683
3.51947
3.47939
3.44079
3.40365
3.36789
3.33343
3.30023
3.26821
3.23733
3.20753
3.17878
3.15102
3.12421
3.09832
3.07331
3.04915
3.0258
3.00322
2.9814
2.96029
2.93988
2.92014
2.90103
2.88254
2.86465
2.84733
2.83056
2.81432
2.79859
2.78336
2.76862
2.75433
2.74049
3.51949
3.47947
3.44095
3.40385
3.36811
3.33369
3.30055
3.26863
3.23789
3.2083
3.17979
3.15235
3.12591
3.10045
3.07593
3.0523
3.02953
3.00759
2.98645
2.96606
2.94641
2.92745
2.90916
2.89151
2.87448
2.85804
2.84217
2.82684
2.81203
2.79772
2.7839
2.77054
2.75762
3.5195
3.47952
3.44117
3.40446
3.36933
3.33572
3.30358
3.27289
3.24359
3.21566
3.18904
3.16369
3.13954
3.11654
3.09463
3.07375
3.05384
3.03486
3.01674
2.99943
2.98289
2.96706
2.95191
2.93739
2.92347
2.9101
2.89725
2.8849
2.87301
2.86156
2.85052
2.83986
2.82957
3.51969
3.48123
3.44562
3.41286
3.38294
3.35583
3.33141
3.30951
3.28991
3.2724
3.25675
3.24276
3.23025
3.21902
3.20893
3.19983
3.19159
3.18409
3.17723
3.17091
3.16507
3.15962
3.1545
3.14965
3.14503
3.14059
3.13629
3.13209
3.12796
3.12388
3.11982
3.11576
3.11168
3.52527
3.51366
3.51612
3.52933
3.55048
3.57755
3.60891
3.6433
3.67974
3.71749
3.75597
3.79473
3.83341
3.87173
3.90948
3.94649
3.98265
4.01786
4.05206
4.08521
4.11729
4.14827
4.17817
4.207
4.23478
4.26152
4.28726
4.31205
4.33591
4.3589
4.38107
4.40245
4.42313
3.83318
4.36513
4.84927
5.31463
5.77564
6.22775
6.66671
7.09073
7.49954
7.8936
8.2738
8.64115
8.99666
9.34129
9.67593
10.0014
10.3184
10.6277
10.9299
11.2254
11.515
11.7991
12.0781
12.3526
12.6231
12.8898
13.1533
13.4139
13.6721
13.9281
14.1824
14.4352
14.6868
30.2663
32.7713
35.3127
37.8651
40.4148
42.9529
45.4712
47.9621
50.4187
52.8347
55.2044
57.5231
59.7866
61.9914
64.1346
66.2141
68.2279
70.1749
72.0543
73.8656
75.6088
77.2842
78.8922
80.4336
81.9093
83.3204
84.6681
85.9538
87.179
88.345
89.4535
90.5057
91.5047
88.7255
260.048
488.183
717.108
883.56
947.684
917.637
832.322
730.945
637.278
560.079
499.578
452.949
417.039
389.272
367.779
350.508
335.764
321.937
307.381
290.401
269.316
242.67
209.625
170.586
127.891
86.0734
50.8322
26.4363
13.2587
7.94048
6.39818
6.20798
6.43163
6.76138
7.08745
7.36059
7.5574
7.67135
7.70759
7.6779
7.59655
7.47748
7.33285
7.17258
7.00434
6.83398
6.666
6.50397
6.35095
6.20967
6.08256
5.97162
5.87804
5.80186
5.74175
5.69504
5.65794
5.62594
5.59387
5.55585
5.5049
5.43279
5.3303
5.18836
4.99967
4.7607
4.47331
4.1455
3.79097
3.42746
3.07406
2.74816
2.4627
2.2245
2.03413
1.88714
1.77622
1.69332
1.63123
1.58429
1.54845
1.52095
1.49985
1.48378
1.47163
1.46253
1.45579
1.45085
1.44726
1.44469
1.44286
1.44159
1.44071
1.44011
1.4397
1.43943
1.43924
1.43911
1.43894
19.7166
30.6696
57.411
110.051
192.936
297.916
404.617
490.596
541.86
557.049
544.397
515.471
480.166
444.816
412.156
382.488
355.4
329.754
304.143
277.185
247.707
214.947
178.86
140.478
102.171
67.4371
39.8738
21.5181
11.6767
7.51797
6.13235
5.83239
5.92817
6.16866
6.45071
6.71944
6.94183
7.10049
7.19055
7.2161
7.18641
7.1128
7.00648
6.8774
6.73377
6.5821
6.4274
6.27361
6.12389
5.98098
5.84742
5.72561
5.61769
5.52529
5.4491
5.3886
5.34197
5.30623
5.27754
5.25135
5.22233
5.18405
5.12873
5.04744
4.93103
4.7717
4.56497
4.31129
4.017
3.69407
3.35865
3.02867
2.72092
2.44844
2.21869
2.03325
1.88883
1.77907
1.69662
1.63466
1.58773
1.55184
1.52421
1.50294
1.48664
1.47423
1.46486
1.45785
1.45265
1.44882
1.44602
1.444
1.44255
1.44151
1.44078
1.44025
1.43988
1.4396
1.4394
1.43913
9.64987
9.85059
10.0986
11.8731
18.5577
34.7871
64.5405
107.765
158.908
209.579
252.257
282.486
299.145
303.681
297.997
284.146
264.436
240.716
214.172
185.518
155.348
124.5
94.2949
66.5585
43.2973
26.0383
15.094
9.31208
6.75115
5.77158
5.47839
5.49248
5.65476
5.88399
6.12888
6.35434
6.5377
6.66703
6.73924
6.75778
6.72994
6.66465
6.57087
6.45668
6.32888
6.19297
6.05327
5.91322
5.77562
5.64292
5.51744
5.40147
5.29718
5.20645
5.13047
5.06937
5.02211
4.98644
4.95922
4.93655
4.91377
4.88513
4.84347
4.78033
4.68665
4.55426
4.37774
4.15617
3.89414
3.60182
3.29369
2.98645
2.69628
2.43624
2.21446
2.03355
1.89133
1.78243
1.7002
1.63823
1.59121
1.55519
1.52741
1.50594
1.48939
1.4767
1.46705
1.45975
1.45427
1.45018
1.44715
1.44491
1.44326
1.44206
1.44117
1.44052
1.44002
1.43964
1.43937
1.43899
6.08623
6.2072
6.20076
5.85201
5.15129
4.91866
6.46751
10.9262
19.3652
32.2031
48.4388
65.7693
81.5436
93.393
100.754
103.522
101.528
95.0713
84.921
72.1793
58.1436
44.1867
31.6107
21.438
14.1679
9.63375
7.14569
5.90135
5.32315
5.10318
5.09102
5.20357
5.38627
5.59905
5.81151
6.00119
6.15315
6.25944
6.31825
6.33239
6.30753
6.25065
6.16885
6.06866
5.9557
5.8346
5.70909
5.58218
5.45635
5.3338
5.21663
5.10695
5.0069
4.91846
4.84316
4.78167
4.73354
4.69722
4.6702
4.64925
4.63039
4.60864
4.57763
4.52952
4.45552
4.34726
4.1985
4.00698
3.77559
3.51264
3.2309
2.94579
2.67276
2.42487
2.21085
2.03429
1.89412
1.78595
1.70382
1.64174
1.59457
1.5584
1.53046
1.50878
1.49199
1.47904
1.4691
1.46151
1.45575
1.4514
1.44812
1.44566
1.44381
1.44243
1.44138
1.44058
1.43997
1.43948
1.43912
1.43862
4.45156
4.52092
4.59924
4.64497
4.54716
4.21541
3.73655
3.38827
3.6026
4.68047
6.71581
9.62103
13.0748
16.5352
19.4796
21.4677
22.2647
21.8097
20.229
17.8223
15.0027
12.2027
9.76777
7.87912
6.54595
5.66955
5.12909
4.82987
4.70583
4.70843
4.79979
4.94914
5.1305
5.32169
5.50425
5.66379
5.79039
5.87872
5.92764
5.93934
5.91814
5.86944
5.79884
5.7116
5.61235
5.50499
5.39273
5.27822
5.16366
5.05101
4.94218
4.83908
4.74376
4.65823
4.5842
4.52272
4.47386
4.43662
4.40906
4.38855
4.37181
4.35464
4.33154
4.29546
4.23807
4.15097
4.02726
3.86346
3.66081
3.42577
3.16941
2.90575
2.64949
2.41358
2.20725
2.035
1.89684
1.78935
1.70728
1.64504
1.59769
1.56137
1.53326
1.51141
1.4944
1.4812
1.47099
1.46313
1.45711
1.4525
1.44898
1.44629
1.44424
1.44267
1.44146
1.44052
1.43978
1.43918
1.43872
1.4381
3.65045
3.68104
3.72175
3.77302
3.82349
3.8385
3.76979
3.59529
3.38183
3.25266
3.3155
3.63982
4.23442
5.09259
5.91558
6.5614
6.96536
7.10519
6.99809
6.696
6.27257
5.80498
5.35772
4.97406
4.67636
4.47119
4.35507
4.31882
4.35046
4.43685
4.56428
4.71873
4.88631
5.05386
5.20966
5.34416
5.45055
5.52506
5.56688
5.57758
5.56041
5.51949
5.45921
5.3838
5.29706
5.2023
5.10227
4.9993
4.89537
4.79224
4.69159
4.59521
4.50496
4.42284
4.35066
4.28973
4.2405
4.20242
4.17402
4.15319
4.13725
4.12279
4.10524
4.0784
4.03462
3.96564
3.86411
3.72548
3.54944
3.34068
3.10854
2.86562
2.62579
2.40175
2.20313
2.03529
1.89921
1.79243
1.71041
1.648
1.60047
1.56399
1.53574
1.51373
1.49654
1.48313
1.47269
1.46459
1.45831
1.45346
1.44972
1.44682
1.44457
1.44282
1.44145
1.44037
1.4395
1.43878
1.43824
1.43749
3.22678
3.2373
3.25345
3.27693
3.30865
3.34621
3.3798
3.39225
3.37081
3.32238
3.27667
3.27476
3.35009
3.51679
3.72231
3.92362
4.08952
4.20169
4.25439
4.25279
4.20999
4.14327
4.07043
4.00711
3.96532
3.95288
3.97363
4.02799
4.11355
4.22565
4.35792
4.50275
4.65184
4.79675
4.9296
5.04372
5.13421
5.19823
5.23507
5.24579
5.23275
5.19907
5.14818
5.08346
5.00804
4.92471
4.83586
4.74354
4.64953
4.55539
4.46267
4.37295
4.28798
4.20965
4.13983
4.07998
4.03085
3.99223
3.96303
3.94152
3.92554
3.91241
3.89842
3.87836
3.84535
3.79149
3.7092
3.59305
3.44133
3.25705
3.04784
2.82489
2.60111
2.38888
2.19809
2.03482
1.90097
1.795
1.71308
1.65052
1.60281
1.56618
1.53782
1.51569
1.49836
1.48478
1.47414
1.46583
1.45935
1.45429
1.45033
1.44724
1.44481
1.4429
1.44138
1.44015
1.43916
1.43834
1.4377
1.43684
2.99306
2.99264
2.99557
3.00289
3.01552
3.03409
3.05824
3.08529
3.11018
3.12792
3.13773
3.14511
3.16089
3.19447
3.24511
3.30639
3.36978
3.42765
3.47516
3.51087
3.53647
3.55605
3.575
3.59901
3.63322
3.68163
3.74674
3.82937
3.92869
4.04231
4.16654
4.29661
4.42702
4.55193
4.66572
4.76351
4.84158
4.89768
4.93109
4.94244
4.93342
4.90635
4.86388
4.80873
4.74346
4.67044
4.59173
4.50916
4.4243
4.33859
4.25341
4.17019
4.09054
4.01626
3.94919
3.8909
3.84236
3.80363
3.77387
3.75165
3.73521
3.72245
3.71049
3.69509
3.67028
3.62868
3.56272
3.46629
3.33649
3.17475
2.98708
2.78323
2.57509
2.37461
2.1918
2.03332
1.90193
1.79692
1.71519
1.65252
1.60464
1.56788
1.53942
1.51721
1.49978
1.48608
1.4753
1.46683
1.46017
1.45493
1.4508
1.44754
1.44496
1.44289
1.44123
1.43989
1.43879
1.43786
1.43714
1.43616
2.8631
2.85619
2.85148
2.84973
2.85158
2.85758
2.86813
2.88321
2.90207
2.9232
2.94484
2.96608
2.98768
3.01159
3.03916
3.07066
3.10531
3.1418
3.17896
3.21622
3.25389
3.29315
3.33584
3.38413
3.44018
3.50576
3.582
3.66917
3.76661
3.87268
3.9848
4.09962
4.21317
4.32117
4.41941
4.50417
4.57251
4.62257
4.65359
4.66588
4.66059
4.63942
4.60442
4.55775
4.50152
4.43773
4.36817
4.29444
4.21798
4.14008
4.062
3.98503
3.91064
3.84052
3.77646
3.72013
3.67263
3.63422
3.60427
3.58154
3.56453
3.55158
3.54053
3.52809
3.50922
3.47726
3.42483
3.34538
3.23504
3.09382
2.92619
2.74049
2.54753
2.35872
2.18405
2.03062
1.90193
1.79808
1.71666
1.65394
1.60592
1.56905
1.54052
1.51826
1.50077
1.48699
1.47612
1.46753
1.46074
1.45536
1.45109
1.4477
1.44498
1.44279
1.44101
1.43956
1.43836
1.43734
1.43656
1.43548
2.7924
2.78144
2.77206
2.7648
2.76019
2.75868
2.76068
2.76645
2.77604
2.78925
2.80559
2.82446
2.84546
2.86848
2.8936
2.92095
2.9506
2.98258
3.01694
3.05389
3.09383
3.13746
3.18566
3.23946
3.29983
3.36757
3.44309
3.52631
3.61655
3.71249
3.81217
3.91303
4.01206
4.10599
4.19158
4.26587
4.32649
4.37182
4.40111
4.41439
4.41241
4.39641
4.36794
4.32871
4.28047
4.22488
4.16351
4.09778
4.02897
3.95826
3.8868
3.81575
3.74646
3.68051
3.61964
3.56554
3.51944
3.48176
3.45203
3.42911
3.41164
3.39827
3.38741
3.37662
3.36181
3.33715
3.29563
3.23054
3.1372
3.01445
2.86529
2.6967
2.51839
2.34111
2.17471
2.0266
1.90089
1.79843
1.71746
1.65477
1.60665
1.56969
1.5411
1.5188
1.50129
1.48748
1.47655
1.46788
1.46101
1.45553
1.45117
1.44766
1.44484
1.44256
1.44069
1.43915
1.43787
1.43678
1.43593
1.43477
2.75566
2.74217
2.72988
2.71918
2.71052
2.70429
2.70087
2.70056
2.70357
2.70999
2.71979
2.73285
2.74895
2.76793
2.78966
2.81408
2.84118
2.87104
2.90382
2.93977
2.97925
3.02273
3.07075
3.12386
3.18257
3.24723
3.31793
3.39443
3.47608
3.56176
3.6499
3.73849
3.82518
3.9074
3.98258
4.04832
4.10265
4.14414
4.17204
4.1862
4.18705
4.17547
4.15262
4.11986
4.07861
4.03028
3.97621
3.91765
3.85578
3.79165
3.72631
3.66083
3.59643
3.53457
3.47694
3.42524
3.3808
3.34419
3.31505
3.29231
3.27464
3.26086
3.2498
3.23973
3.22749
3.20811
3.17516
3.12195
3.04326
2.9369
2.8046
2.65201
2.48774
2.32179
2.16375
2.0212
1.89876
1.79792
1.71758
1.65501
1.60683
1.56979
1.54116
1.51885
1.50134
1.48751
1.47657
1.46787
1.46095
1.45542
1.45098
1.44741
1.44452
1.44216
1.44023
1.43862
1.43728
1.43614
1.43525
1.43401
2.73774
2.72273
2.70863
2.69579
2.68455
2.67527
2.66827
2.66388
2.66232
2.6638
2.66843
2.67627
2.68729
2.70146
2.71875
2.73913
2.7626
2.78921
2.81908
2.85237
2.88932
2.93022
2.97539
3.02514
3.07971
3.13922
3.20363
3.27262
3.34559
3.42159
3.49936
3.57726
3.65341
3.72576
3.7922
3.85078
3.89982
3.93805
3.9647
3.97951
3.98268
3.9748
3.95673
3.92953
3.89436
3.85239
3.80479
3.75266
3.69704
3.63891
3.5792
3.51889
3.45911
3.4012
3.34679
3.29758
3.25498
3.21969
3.19145
3.16923
3.15169
3.13767
3.12627
3.11632
3.10552
3.08979
3.06335
3.01976
2.95348
2.8615
2.74442
2.60667
2.45574
2.30085
2.15121
2.01444
1.89554
1.79658
1.71704
1.65469
1.6065
1.5694
1.54073
1.51841
1.50092
1.48711
1.47618
1.46748
1.46054
1.45499
1.45052
1.44691
1.44398
1.44158
1.4396
1.43795
1.43657
1.43538
1.43446
1.43318
2.72965
2.71374
2.69857
2.6844
2.67152
2.66023
2.65082
2.64359
2.63879
2.63664
2.63732
2.64095
2.64761
2.65738
2.67028
2.68636
2.70565
2.72822
2.75415
2.78357
2.81663
2.85349
2.89435
2.93934
2.98859
3.04208
3.0997
3.16111
3.22576
3.29286
3.36134
3.42988
3.49693
3.56081
3.61979
3.67222
3.71665
3.75196
3.77738
3.79256
3.79754
3.79268
3.77861
3.75615
3.72623
3.68982
3.64792
3.60151
3.5515
3.49879
3.44424
3.38872
3.33326
3.27913
3.22786
3.18114
3.14046
3.10665
3.07955
3.05815
3.04105
3.02705
3.01535
3.00522
2.99506
2.98167
2.96002
2.92406
2.86812
2.78859
2.68513
2.561
2.42265
2.27847
2.13719
2.00636
1.89125
1.7944
1.71585
1.65385
1.60571
1.56857
1.53987
1.51755
1.50008
1.4863
1.47539
1.46672
1.4598
1.45425
1.44978
1.44615
1.4432
1.44078
1.43878
1.43711
1.43571
1.4345
1.43355
1.43224
2.72625
2.70985
2.69404
2.67905
2.66511
2.65248
2.64141
2.63217
2.62499
2.62011
2.61771
2.61797
2.62101
2.62695
2.63588
2.64788
2.66301
2.68136
2.70301
2.72806
2.75661
2.78878
2.82466
2.86433
2.90781
2.95505
3.00587
3.05998
3.11686
3.17584
3.23601
3.29628
3.35536
3.41186
3.46432
3.51133
3.55165
3.58424
3.60837
3.62363
3.62994
3.6275
3.61673
3.59826
3.57283
3.54124
3.50435
3.463
3.41801
3.3702
3.32033
3.26922
3.21779
3.16721
3.11895
3.07468
3.03595
3.00369
2.97788
2.95754
2.94117
2.92746
2.91563
2.9052
2.89518
2.88316
2.86489
2.83482
2.78737
2.7185
2.62707
2.51536
2.38878
2.25487
2.12184
1.99706
1.88595
1.79145
1.71408
1.65255
1.60452
1.56737
1.53864
1.51632
1.49887
1.48513
1.47426
1.46562
1.45873
1.4532
1.44875
1.44514
1.44219
1.43977
1.43776
1.43609
1.43468
1.43346
1.43251
1.43118
2.72491
2.70822
2.69203
2.67652
2.66187
2.6483
2.63604
2.62532
2.61635
2.60936
2.60453
2.60206
2.60208
2.60475
2.61017
2.61846
2.6297
2.644
2.66142
2.68208
2.70604
2.73338
2.76418
2.79846
2.8362
2.87733
2.92166
2.96892
3.01864
3.07026
3.12299
3.17591
3.22794
3.27791
3.32457
3.36672
3.40326
3.43326
3.45602
3.47109
3.4783
3.47772
3.46964
3.4545
3.43288
3.40545
3.37293
3.33605
3.29554
3.25212
3.20651
3.15942
3.11172
3.06447
3.01907
2.97716
2.94034
2.90966
2.88522
2.86608
2.85067
2.83753
2.82578
2.81509
2.80492
2.79357
2.77757
2.75196
2.71136
2.65151
2.57062
2.4701
2.35443
2.23031
2.10535
1.98665
1.87972
1.78777
1.71176
1.65083
1.60301
1.56588
1.53713
1.5148
1.49736
1.48366
1.47283
1.46423
1.45738
1.45189
1.44747
1.44388
1.44096
1.43855
1.43656
1.43489
1.43348
1.43227
1.43132
1.43
2.72437
2.7075
2.69106
2.67518
2.66003
2.64578
2.63262
2.62076
2.6104
2.60173
2.59495
2.59022
2.58772
2.58758
2.58995
2.59494
2.60266
2.61321
2.62668
2.64317
2.66273
2.68545
2.71135
2.74047
2.77275
2.80813
2.84642
2.88736
2.93057
2.97552
3.02157
3.06792
3.11366
3.15778
3.19922
3.23694
3.26997
3.29747
3.31876
3.3334
3.34114
3.34195
3.336
3.32361
3.30522
3.28136
3.25264
3.21969
3.18315
3.14367
3.10189
3.05848
3.0142
2.97005
2.92733
2.88767
2.85269
2.82356
2.80051
2.78266
2.76839
2.75604
2.74461
2.73377
2.72333
2.71219
2.69763
2.6753
2.64014
2.58783
2.51609
2.4256
2.31996
2.20506
2.08791
1.97528
1.87264
1.78342
1.70896
1.64877
1.60122
1.56415
1.5354
1.51307
1.49564
1.48196
1.47117
1.46262
1.45581
1.45037
1.44598
1.44243
1.43954
1.43716
1.43518
1.43353
1.43215
1.43095
1.43001
1.42869
2.72409
2.7071
2.69048
2.67432
2.65878
2.644
2.63014
2.61738
2.60589
2.59586
2.58746
2.58086
2.57622
2.57369
2.57341
2.5755
2.58008
2.58725
2.59712
2.60977
2.62527
2.64368
2.66504
2.68936
2.71659
2.74666
2.77941
2.8146
2.85189
2.89084
2.93087
2.97132
3.01139
3.05024
3.08694
3.12058
3.15032
3.17538
3.19514
3.20914
3.21709
3.21889
3.21461
3.20446
3.18877
3.16796
3.14253
3.11302
3.07999
3.04403
3.0057
2.96562
2.92448
2.88318
2.84298
2.80544
2.77222
2.74458
2.72289
2.70636
2.69332
2.68196
2.67105
2.66024
2.64953
2.63832
2.62457
2.60458
2.5737
2.52762
2.46376
2.38216
2.28566
2.17941
2.06975
1.96311
1.86483
1.77849
1.70572
1.6464
1.59922
1.56227
1.53353
1.51119
1.49377
1.48011
1.46936
1.46085
1.45409
1.44869
1.44434
1.44083
1.43798
1.43563
1.43369
1.43206
1.43069
1.42951
1.42859
1.42729
2.72389
2.7068
2.69002
2.67364
2.65778
2.64256
2.62813
2.61463
2.60222
2.59106
2.58131
2.57313
2.56667
2.56208
2.5595
2.55906
2.56086
2.56504
2.57167
2.58086
2.59267
2.60716
2.62437
2.6443
2.66693
2.69217
2.71988
2.74985
2.78179
2.81531
2.84992
2.88504
2.92
2.95406
2.98642
3.0163
3.04294
3.06564
3.08381
3.097
3.1049
3.10736
3.10435
3.09601
3.08256
3.06433
3.04174
3.01523
2.98531
2.95247
2.91724
2.88017
2.84189
2.80323
2.76536
2.7298
2.69823
2.672
2.65162
2.63639
2.62465
2.6144
2.60422
2.59361
2.58269
2.57128
2.55792
2.53953
2.51194
2.47096
2.41383
2.34007
2.25186
2.15362
2.0511
1.9503
1.85639
1.77305
1.70211
1.64378
1.59706
1.56028
1.53158
1.50925
1.49183
1.47819
1.46746
1.45899
1.45227
1.44691
1.44261
1.43915
1.43633
1.43402
1.4321
1.43051
1.42917
1.42801
1.4271
1.42583
2.72369
2.70651
2.68959
2.67302
2.65689
2.64131
2.62639
2.61227
2.59908
2.58697
2.57608
2.56656
2.55855
2.55219
2.54762
2.54496
2.54434
2.54585
2.54961
2.5557
2.5642
2.57516
2.58862
2.60459
2.62304
2.6439
2.66705
2.69231
2.71942
2.74804
2.77776
2.80807
2.83839
2.86808
2.89648
2.92287
2.94658
2.96699
2.98355
2.99581
3.00345
3.00628
3.00421
2.9973
2.9857
2.96966
2.9495
2.92561
2.8984
2.86834
2.83588
2.80153
2.76585
2.72961
2.6939
2.66018
2.63014
2.60523
2.58608
2.57212
2.56168
2.55264
2.54334
2.5331
2.5221
2.51042
2.49716
2.47984
2.45474
2.41791
2.36647
2.29958
2.21882
2.12796
2.03217
1.93701
1.84746
1.76716
1.69817
1.64095
1.59478
1.55823
1.52961
1.50728
1.48987
1.47625
1.46555
1.45711
1.45042
1.44511
1.44085
1.43742
1.43464
1.43237
1.43049
1.42893
1.42761
1.42648
1.42559
1.42435
2.72347
2.70621
2.68917
2.67243
2.65606
2.64016
2.62483
2.61018
2.59634
2.58342
2.57155
2.56088
2.55154
2.54366
2.53736
2.53277
2.53001
2.52919
2.53041
2.53374
2.53928
2.54708
2.55717
2.56957
2.58426
2.60118
2.62022
2.64123
2.66397
2.68817
2.71346
2.73942
2.76553
2.79125
2.81599
2.83914
2.86011
2.87831
2.89325
2.9045
2.91172
2.91468
2.91328
2.90748
2.89739
2.88318
2.86511
2.84348
2.81866
2.79105
2.76107
2.72916
2.69584
2.66181
2.62808
2.59607
2.56746
2.54376
2.52576
2.513
2.50385
2.49606
2.48777
2.47808
2.46711
2.4552
2.44186
2.42519
2.40194
2.36845
2.32181
2.26088
2.18678
2.10267
2.01318
1.92343
1.83814
1.76093
1.69397
1.63795
1.59242
1.55615
1.52764
1.50535
1.48795
1.47434
1.46366
1.45525
1.4486
1.44332
1.4391
1.43571
1.43297
1.43073
1.42889
1.42736
1.42607
1.42496
1.42409
1.42288
2.72324
2.70589
2.68874
2.67184
2.65527
2.6391
2.62341
2.60831
2.59389
2.58028
2.56758
2.55593
2.54544
2.53624
2.52844
2.52218
2.51755
2.51467
2.51363
2.51453
2.51744
2.52241
2.52949
2.53869
2.55
2.56337
2.57871
2.59588
2.6147
2.63491
2.6562
2.6782
2.70049
2.72259
2.74398
2.76413
2.7825
2.7986
2.81193
2.82211
2.82878
2.8317
2.83072
2.82578
2.81691
2.80422
2.78792
2.76824
2.74551
2.72007
2.69229
2.66257
2.63139
2.59937
2.56747
2.53704
2.50974
2.48717
2.47022
2.45859
2.45068
2.44417
2.43698
2.42798
2.41721
2.40511
2.39161
2.37528
2.35339
2.32256
2.27993
2.22416
2.15596
2.07799
1.99434
1.90972
1.82857
1.75443
1.68955
1.63482
1.58999
1.55407
1.52571
1.50347
1.48609
1.47249
1.46183
1.45345
1.44683
1.44158
1.43741
1.43405
1.43135
1.42915
1.42734
1.42583
1.42457
1.42349
1.42264
1.42146
2.72298
2.70556
2.6883
2.67127
2.65451
2.63809
2.62209
2.6066
2.59169
2.57749
2.56407
2.55157
2.54009
2.52975
2.52065
2.51292
2.50666
2.50198
2.49896
2.4977
2.49826
2.50072
2.50511
2.51144
2.51972
2.52991
2.54192
2.55564
2.57092
2.58752
2.6052
2.62363
2.64244
2.66123
2.67954
2.6969
2.71286
2.72694
2.7387
2.74777
2.7538
2.75654
2.7558
2.75149
2.74359
2.73216
2.71735
2.69936
2.67845
2.65492
2.62909
2.60134
2.57208
2.5419
2.51167
2.48269
2.45661
2.43506
2.41908
2.40848
2.40177
2.39656
2.39054
2.38237
2.37192
2.35974
2.34603
2.32986
2.30892
2.28018
2.24088
2.18956
2.12657
2.05413
1.97587
1.89606
1.81888
1.74777
1.68499
1.6316
1.58754
1.55202
1.52383
1.50167
1.48432
1.47074
1.4601
1.45174
1.44515
1.43994
1.43579
1.43248
1.42981
1.42764
1.42586
1.42439
1.42315
1.42209
1.42127
1.42011
2.72271
2.70521
2.68786
2.67069
2.65377
2.63714
2.62087
2.60503
2.5897
2.57498
2.56095
2.54771
2.53538
2.52404
2.51382
2.50481
2.49712
2.49085
2.48609
2.48292
2.48141
2.48164
2.48362
2.4874
2.49297
2.5003
2.50932
2.51994
2.53202
2.54538
2.55979
2.57498
2.59063
2.60639
2.62188
2.63667
2.65036
2.66253
2.67277
2.68071
2.68604
2.68848
2.68783
2.68396
2.67682
2.66643
2.65289
2.63634
2.61701
2.59516
2.57107
2.54507
2.51755
2.48903
2.46033
2.4327
2.40774
2.38713
2.37202
2.36238
2.35681
2.35287
2.34809
2.34088
2.33091
2.31875
2.30486
2.28869
2.2684
2.24129
2.20475
2.15722
2.0988
2.03132
1.95797
1.88264
1.80923
1.74105
1.68036
1.62833
1.58508
1.55
1.52203
1.49996
1.48265
1.4691
1.45848
1.45014
1.44358
1.4384
1.43429
1.431
1.42837
1.42623
1.42448
1.42303
1.42183
1.42079
1.41998
1.41885
2.72242
2.70485
2.68741
2.67013
2.65305
2.63623
2.61972
2.60358
2.58788
2.57271
2.55815
2.54428
2.5312
2.51901
2.50781
2.49769
2.48875
2.48109
2.47479
2.46993
2.4666
2.46483
2.46469
2.46619
2.46933
2.4741
2.48044
2.48827
2.49748
2.50791
2.51937
2.53162
2.5444
2.5574
2.57029
2.5827
2.59428
2.60463
2.6134
2.62023
2.62481
2.62687
2.62619
2.62262
2.61607
2.60653
2.59404
2.57873
2.56078
2.54039
2.51784
2.49341
2.46745
2.44045
2.41316
2.38676
2.36283
2.34309
2.32878
2.32002
2.31553
2.31286
2.30938
2.30323
2.2939
2.28189
2.26786
2.25162
2.23175
2.2059
2.17161
2.12731
2.07288
2.0098
1.94089
1.86967
1.7998
1.7344
1.67574
1.62507
1.58266
1.54805
1.52031
1.49836
1.4811
1.46757
1.45697
1.44866
1.44213
1.43697
1.43289
1.42964
1.42703
1.42493
1.42321
1.42179
1.42061