/*--------------------------------*- C++ -*----------------------------------*\
  =========                 |
  \\      /  F ield         | OpenFOAM: The Open Source CFD Toolbox
   \\    /   O peration     | Website:  https://openfoam.org
    \\  /    A nd           | Version:  10
     \\/     M anipulation  |
\*---------------------------------------------------------------------------*/
FoamFile
{
    format      ascii;
    class       volScalarField;
    location    "0.05";
    object      k;
}
// * * * * * * * * * * * * * * * * * * * * * * * * * * * * * * * * * * * * * //

dimensions      [0 2 -2 0 0 0 0];

internalField   nonuniform List<scalar> 
6820
(
0.196709
0.190616
0.184994
0.179724
0.174798
0.17025
0.166115
0.162407
0.159125
0.156248
0.15375
0.151599
0.149762
0.148209
0.146908
0.145832
0.144957
0.144258
0.143716
0.143313
0.143031
0.142857
0.142779
0.142783
0.142862
0.143006
0.143204
0.143475
0.143694
0.144419
0.14302
0.151825
0.112923
0.201954
0.200832
0.197543
0.193922
0.19084
0.188583
0.187153
0.186425
0.186253
0.186503
0.187069
0.187871
0.188849
0.189957
0.191163
0.192441
0.193771
0.195137
0.196529
0.197937
0.199354
0.200776
0.202201
0.203628
0.205062
0.206507
0.207977
0.209486
0.211071
0.212828
0.214615
0.217852
0.218904
0.200488
0.200475
0.199118
0.19707
0.194841
0.19269
0.190724
0.188985
0.187487
0.186229
0.185201
0.184387
0.183769
0.183326
0.183039
0.18289
0.182861
0.182939
0.183109
0.183359
0.183681
0.184064
0.184503
0.18499
0.185522
0.186096
0.186712
0.187376
0.188085
0.188879
0.18971
0.190743
0.1917
0.199662
0.199121
0.198219
0.196983
0.195545
0.194012
0.192458
0.190931
0.189463
0.188073
0.186775
0.185576
0.184478
0.18348
0.182581
0.181776
0.18106
0.180429
0.179876
0.179396
0.178985
0.178637
0.178348
0.178114
0.177931
0.177799
0.177716
0.177684
0.177704
0.177787
0.177933
0.178176
0.178501
0.199429
0.198466
0.197531
0.196513
0.195399
0.194214
0.192986
0.19174
0.190495
0.189267
0.188069
0.186909
0.185794
0.184727
0.183713
0.182753
0.181846
0.180993
0.180192
0.179441
0.178741
0.178087
0.17748
0.176917
0.176396
0.175917
0.175479
0.175084
0.174732
0.174428
0.174175
0.173984
0.173857
0.199398
0.198267
0.197202
0.196166
0.195133
0.194088
0.193029
0.191959
0.190884
0.189813
0.188751
0.187705
0.186679
0.185678
0.184705
0.183762
0.18285
0.181972
0.181127
0.180316
0.179539
0.178795
0.178084
0.177405
0.176759
0.176144
0.175561
0.175011
0.174494
0.174014
0.173572
0.173175
0.172827
0.199395
0.19822
0.197098
0.196021
0.194978
0.193957
0.192952
0.191958
0.190974
0.189998
0.189033
0.18808
0.187141
0.186219
0.185316
0.184432
0.183569
0.182728
0.18191
0.181116
0.180345
0.179599
0.178876
0.178178
0.177503
0.176853
0.176227
0.175627
0.175052
0.174505
0.173987
0.173504
0.173058
0.199395
0.198211
0.197069
0.195969
0.194908
0.193881
0.192884
0.191912
0.190961
0.19003
0.189116
0.188219
0.187338
0.186474
0.185626
0.184796
0.183984
0.18319
0.182413
0.181656
0.180917
0.180198
0.179497
0.178815
0.178153
0.177509
0.176886
0.176282
0.175699
0.175139
0.174602
0.174093
0.173613
0.199395
0.198209
0.197063
0.195955
0.194884
0.19385
0.192848
0.191877
0.190935
0.190017
0.189124
0.188252
0.187401
0.18657
0.185757
0.184963
0.184187
0.183429
0.182688
0.181964
0.181257
0.180568
0.179895
0.179239
0.1786
0.177977
0.177371
0.176783
0.176213
0.175661
0.17513
0.174622
0.17414
0.199395
0.198209
0.197061
0.195951
0.194877
0.193838
0.192833
0.19186
0.190917
0.190002
0.189114
0.188251
0.187412
0.186595
0.1858
0.185025
0.18427
0.183534
0.182816
0.182115
0.181432
0.180766
0.180116
0.179482
0.178864
0.178262
0.177676
0.177106
0.176553
0.176017
0.1755
0.175004
0.17453
0.199395
0.198209
0.197061
0.19595
0.194875
0.193834
0.192827
0.191852
0.190908
0.189992
0.189105
0.188244
0.187408
0.186597
0.185808
0.185042
0.184296
0.183571
0.182865
0.182178
0.181509
0.180857
0.180222
0.179603
0.179001
0.178414
0.177844
0.177289
0.176751
0.176229
0.175726
0.175242
0.174778
0.199395
0.198209
0.19706
0.195949
0.194874
0.193833
0.192825
0.191849
0.190904
0.189987
0.189099
0.188238
0.187403
0.186593
0.185807
0.185043
0.184301
0.18358
0.18288
0.182199
0.181536
0.180892
0.180265
0.179656
0.179063
0.178486
0.177925
0.177381
0.176853
0.176342
0.175848
0.175373
0.174918
0.199395
0.198209
0.19706
0.195949
0.194873
0.193832
0.192824
0.191847
0.190901
0.189985
0.189096
0.188235
0.1874
0.186589
0.185803
0.18504
0.1843
0.18358
0.182882
0.182203
0.181544
0.180903
0.18028
0.179675
0.179087
0.178515
0.17796
0.177422
0.1769
0.176394
0.175907
0.175437
0.174987
0.199395
0.198209
0.19706
0.195949
0.194873
0.193831
0.192823
0.191846
0.1909
0.189983
0.189094
0.188233
0.187397
0.186587
0.185801
0.185038
0.184297
0.183578
0.18288
0.182202
0.181544
0.180905
0.180283
0.17968
0.179094
0.178525
0.177973
0.177437
0.176918
0.176416
0.175932
0.175465
0.175017
0.199395
0.198208
0.19706
0.195948
0.194872
0.193831
0.192822
0.191846
0.190899
0.189982
0.189093
0.188231
0.187395
0.186585
0.185798
0.185035
0.184295
0.183576
0.182878
0.1822
0.181542
0.180903
0.180283
0.17968
0.179095
0.178527
0.177977
0.177442
0.176925
0.176424
0.175941
0.175476
0.175028
0.199395
0.198208
0.19706
0.195948
0.194872
0.19383
0.192822
0.191845
0.190898
0.189981
0.189092
0.18823
0.187394
0.186583
0.185797
0.185033
0.184293
0.183574
0.182876
0.182198
0.181541
0.180902
0.180281
0.179679
0.179095
0.178527
0.177977
0.177443
0.176927
0.176427
0.175944
0.175478
0.17503
0.199395
0.198208
0.19706
0.195948
0.194872
0.19383
0.192821
0.191844
0.190897
0.18998
0.189091
0.188229
0.187393
0.186582
0.185795
0.185032
0.184291
0.183572
0.182874
0.182197
0.181539
0.1809
0.18028
0.179678
0.179093
0.178526
0.177976
0.177443
0.176926
0.176426
0.175943
0.175477
0.175028
0.199395
0.198208
0.19706
0.195948
0.194872
0.19383
0.192821
0.191844
0.190897
0.189979
0.18909
0.188228
0.187391
0.18658
0.185794
0.18503
0.184289
0.18357
0.182872
0.182195
0.181537
0.180898
0.180278
0.179676
0.179092
0.178525
0.177975
0.177441
0.176925
0.176424
0.175941
0.175474
0.175023
0.199395
0.198208
0.197059
0.195948
0.194871
0.19383
0.192821
0.191843
0.190896
0.189979
0.189089
0.188227
0.18739
0.186579
0.185792
0.185029
0.184288
0.183569
0.182871
0.182193
0.181535
0.180897
0.180277
0.179675
0.17909
0.178523
0.177973
0.17744
0.176923
0.176422
0.175938
0.17547
0.175018
0.199395
0.198208
0.197059
0.195948
0.194871
0.193829
0.19282
0.191843
0.190896
0.189978
0.189088
0.188226
0.18739
0.186578
0.185791
0.185028
0.184287
0.183567
0.182869
0.182192
0.181534
0.180895
0.180275
0.179673
0.179088
0.178521
0.177971
0.177437
0.17692
0.176419
0.175934
0.175465
0.175011
0.199395
0.198208
0.197059
0.195947
0.194871
0.193829
0.19282
0.191842
0.190895
0.189977
0.189088
0.188225
0.187389
0.186577
0.18579
0.185027
0.184285
0.183566
0.182868
0.18219
0.181532
0.180893
0.180273
0.179671
0.179086
0.178519
0.177968
0.177434
0.176916
0.176415
0.175929
0.175459
0.175004
0.199395
0.198208
0.197059
0.195947
0.194871
0.193829
0.19282
0.191842
0.190895
0.189977
0.189087
0.188225
0.187388
0.186576
0.185789
0.185025
0.184284
0.183565
0.182866
0.182188
0.18153
0.180891
0.180271
0.179668
0.179084
0.178516
0.177965
0.177431
0.176912
0.17641
0.175923
0.175452
0.174996
0.199395
0.198208
0.197059
0.195947
0.194871
0.193829
0.19282
0.191842
0.190895
0.189977
0.189087
0.188224
0.187387
0.186576
0.185788
0.185024
0.184283
0.183563
0.182865
0.182187
0.181529
0.180889
0.180269
0.179666
0.179081
0.178513
0.177962
0.177427
0.176908
0.176404
0.175917
0.175444
0.174987
0.199395
0.198208
0.197059
0.195947
0.194871
0.193829
0.192819
0.191842
0.190894
0.189976
0.189086
0.188223
0.187387
0.186575
0.185787
0.185023
0.184282
0.183562
0.182864
0.182185
0.181527
0.180887
0.180266
0.179663
0.179078
0.17851
0.177958
0.177422
0.176903
0.176399
0.17591
0.175436
0.174977
0.199395
0.198208
0.197059
0.195947
0.194871
0.193829
0.192819
0.191841
0.190894
0.189976
0.189086
0.188223
0.187386
0.186574
0.185787
0.185022
0.184281
0.183561
0.182862
0.182184
0.181525
0.180885
0.180264
0.179661
0.179075
0.178506
0.177954
0.177417
0.176897
0.176392
0.175902
0.175427
0.174967
0.199395
0.198208
0.197059
0.195947
0.194871
0.193829
0.192819
0.191841
0.190894
0.189976
0.189086
0.188222
0.187385
0.186574
0.185786
0.185022
0.18428
0.18356
0.182861
0.182182
0.181523
0.180883
0.180261
0.179658
0.179071
0.178502
0.177949
0.177412
0.176891
0.176385
0.175895
0.175419
0.174957
0.199395
0.198208
0.197059
0.195947
0.194871
0.193828
0.192819
0.191841
0.190894
0.189975
0.189085
0.188222
0.187385
0.186573
0.185785
0.185021
0.184279
0.183558
0.182859
0.18218
0.181521
0.180881
0.180259
0.179655
0.179068
0.178498
0.177945
0.177407
0.176885
0.176378
0.175887
0.175409
0.174946
0.199395
0.198208
0.197059
0.195947
0.194871
0.193828
0.192819
0.191841
0.190894
0.189975
0.189085
0.188222
0.187385
0.186573
0.185785
0.18502
0.184278
0.183557
0.182858
0.182179
0.181519
0.180878
0.180256
0.179652
0.179065
0.178494
0.17794
0.177402
0.176879
0.176371
0.175879
0.1754
0.174936
0.199395
0.198208
0.197059
0.195947
0.194871
0.193828
0.192819
0.191841
0.190893
0.189975
0.189085
0.188221
0.187384
0.186572
0.185784
0.185019
0.184277
0.183556
0.182856
0.182177
0.181517
0.180876
0.180253
0.179649
0.179061
0.17849
0.177935
0.177396
0.176873
0.176364
0.17587
0.175391
0.174925
0.199395
0.198208
0.197059
0.195947
0.194871
0.193829
0.192819
0.191841
0.190894
0.189975
0.189085
0.188222
0.187384
0.186572
0.185784
0.185019
0.184276
0.183556
0.182856
0.182176
0.181516
0.180875
0.180251
0.179646
0.179058
0.178487
0.177931
0.177392
0.176867
0.176358
0.175863
0.175382
0.174916
0.199395
0.198208
0.197059
0.195947
0.194871
0.193829
0.192819
0.191841
0.190893
0.189975
0.189085
0.188221
0.187384
0.186571
0.185783
0.185018
0.184276
0.183555
0.182855
0.182175
0.181514
0.180873
0.180249
0.179644
0.179055
0.178483
0.177927
0.177387
0.176862
0.176352
0.175856
0.175374
0.174906
0.199395
0.198208
0.197059
0.195948
0.194871
0.193829
0.19282
0.191843
0.190895
0.189977
0.189087
0.188224
0.187386
0.186574
0.185785
0.18502
0.184278
0.183556
0.182856
0.182176
0.181515
0.180873
0.180249
0.179643
0.179054
0.178482
0.177925
0.177384
0.176858
0.176347
0.175851
0.175368
0.174899
0.199395
0.198209
0.19706
0.195949
0.194872
0.19383
0.192821
0.191843
0.190896
0.189978
0.189087
0.188224
0.187387
0.186574
0.185786
0.185021
0.184278
0.183557
0.182857
0.182176
0.181515
0.180873
0.180249
0.179642
0.179053
0.178479
0.177922
0.17738
0.176854
0.176341
0.175843
0.175359
0.174889
0.199395
0.198208
0.19706
0.19595
0.194875
0.193835
0.192827
0.191851
0.190905
0.189987
0.189097
0.188234
0.187397
0.186584
0.185796
0.18503
0.184287
0.183565
0.182864
0.182182
0.18152
0.180877
0.180251
0.179643
0.179051
0.178476
0.177916
0.177372
0.176842
0.176327
0.175826
0.175339
0.174864
0.199396
0.198212
0.197066
0.195957
0.194883
0.193842
0.192834
0.191858
0.190911
0.189994
0.189104
0.188241
0.187403
0.18659
0.185801
0.185034
0.184288
0.183564
0.18286
0.182175
0.181509
0.180861
0.18023
0.179617
0.179019
0.178438
0.177871
0.17732
0.176782
0.176259
0.175749
0.175253
0.174769
0.199396
0.198213
0.197071
0.195969
0.194902
0.193869
0.192866
0.191893
0.190947
0.190029
0.189137
0.188269
0.187426
0.186605
0.185807
0.18503
0.184274
0.183537
0.18282
0.182121
0.18144
0.180776
0.180129
0.179498
0.178883
0.178282
0.177697
0.177126
0.176569
0.176025
0.175494
0.174976
0.174471
0.199402
0.198241
0.197115
0.196019
0.194953
0.193917
0.192909
0.191928
0.190972
0.19004
0.189131
0.188243
0.187377
0.186532
0.185707
0.184902
0.184116
0.183348
0.182598
0.181866
0.181151
0.180453
0.179771
0.179104
0.178453
0.177817
0.177195
0.176587
0.175993
0.175412
0.174844
0.174289
0.173746
0.199421
0.198284
0.197214
0.196181
0.195157
0.194135
0.193116
0.192107
0.191113
0.190137
0.189181
0.188248
0.187339
0.186452
0.185589
0.184748
0.183929
0.183131
0.182353
0.181596
0.180857
0.180136
0.179433
0.178747
0.178078
0.177424
0.176787
0.176165
0.175558
0.174965
0.174387
0.173823
0.173273
0.199655
0.198885
0.198078
0.197303
0.196604
0.195978
0.195409
0.194887
0.194407
0.193967
0.193564
0.193199
0.192871
0.192579
0.192323
0.192102
0.191916
0.191762
0.191642
0.191553
0.191495
0.191467
0.191469
0.191499
0.191559
0.191647
0.191762
0.191905
0.192076
0.192274
0.192498
0.19275
0.193027
0.205419
0.216602
0.227661
0.238503
0.249093
0.259416
0.269459
0.279212
0.288666
0.297815
0.306655
0.315183
0.323398
0.331301
0.338893
0.34618
0.353164
0.359851
0.366248
0.37236
0.378196
0.383763
0.389068
0.394119
0.398925
0.403494
0.407834
0.411952
0.415858
0.419558
0.423061
0.426372
0.429505
0.329274
0.676137
1.08169
1.49372
1.83765
2.05536
2.14607
2.15243
2.12231
2.08607
2.05547
2.03196
2.01375
1.99893
1.98595
1.97331
1.95812
1.93691
1.90539
1.85833
1.78979
1.69337
1.56309
1.3949
1.18946
0.956136
0.71682
0.504967
0.353651
0.275559
0.254041
0.261199
0.279011
0.29978
0.320141
0.338324
0.35334
0.364767
0.372636
0.377298
0.379273
0.379128
0.377395
0.37454
0.370941
0.366903
0.36267
0.358439
0.354381
0.350651
0.347389
0.344713
0.3427
0.341369
0.340665
0.34046
0.340566
0.340752
0.340762
0.34032
0.339127
0.336851
0.333138
0.327634
0.320027
0.310109
0.297839
0.283382
0.267132
0.249691
0.23181
0.214299
0.197915
0.183263
0.170711
0.160377
0.15215
0.145765
0.140887
0.137182
0.134363
0.132208
0.130556
0.12929
0.128324
0.127594
0.127046
0.126639
0.12634
0.126123
0.125967
0.125856
0.125779
0.125726
0.12569
0.125667
0.125651
0.125641
0.125635
0.125628
0.232193
0.26821
0.335363
0.449033
0.622262
0.850139
1.10237
1.33799
1.52546
1.65334
1.72787
1.76349
1.77441
1.77063
1.7569
1.73412
1.70173
1.6574
1.59776
1.51887
1.4168
1.28848
1.13315
0.954482
0.762927
0.576942
0.420139
0.312264
0.257516
0.242185
0.247567
0.261726
0.2792
0.29734
0.314536
0.329689
0.342117
0.35153
0.357976
0.361741
0.363242
0.362935
0.361254
0.358581
0.355234
0.351469
0.347495
0.343484
0.339585
0.335939
0.332677
0.32992
0.327761
0.326245
0.325352
0.324994
0.325019
0.325227
0.32539
0.325251
0.324527
0.322897
0.320012
0.315509
0.309057
0.300417
0.289504
0.276432
0.261539
0.245371
0.228631
0.212091
0.19649
0.182428
0.170294
0.160232
0.152167
0.145871
0.141036
0.137349
0.134535
0.132379
0.130722
0.129448
0.128473
0.127731
0.12717
0.126751
0.12644
0.126212
0.126045
0.125925
0.125839
0.125779
0.125736
0.125707
0.125686
0.125672
0.125662
0.12565
0.19299
0.196344
0.203708
0.218969
0.246727
0.293355
0.368464
0.477818
0.615535
0.766029
0.911128
1.03618
1.13269
1.19836
1.2329
1.23792
1.21697
1.1731
1.10814
1.02305
0.919073
0.799062
0.668834
0.537996
0.419383
0.326098
0.266123
0.237715
0.23124
0.236675
0.248036
0.262365
0.27791
0.293388
0.307785
0.320348
0.3306
0.338346
0.343635
0.346693
0.347849
0.347464
0.345888
0.343432
0.34036
0.33689
0.333198
0.329434
0.325728
0.322205
0.318988
0.316194
0.313924
0.312244
0.311165
0.310631
0.310528
0.310691
0.310918
0.31098
0.310614
0.309519
0.307356
0.30376
0.298388
0.29097
0.281376
0.269665
0.256114
0.241211
0.225604
0.210026
0.195194
0.181707
0.16997
0.16016
0.15224
0.146016
0.141212
0.137533
0.134718
0.132557
0.130892
0.129607
0.12862
0.127864
0.12729
0.126857
0.126533
0.126291
0.126113
0.125982
0.125887
0.125818
0.125768
0.125732
0.125705
0.125686
0.125672
0.125655
0.179013
0.179952
0.181379
0.183729
0.187999
0.196004
0.208783
0.227202
0.254012
0.292296
0.342228
0.399873
0.458648
0.510897
0.552527
0.580122
0.590253
0.581415
0.554286
0.511479
0.457293
0.397516
0.339021
0.28875
0.251948
0.230306
0.221626
0.221868
0.22767
0.237033
0.248708
0.261701
0.275118
0.288156
0.300126
0.310505
0.318956
0.325343
0.329707
0.332221
0.333137
0.332739
0.331306
0.329089
0.326308
0.323144
0.319748
0.31625
0.312763
0.309397
0.306264
0.303476
0.301136
0.299324
0.298074
0.297363
0.297107
0.297174
0.297394
0.297566
0.297454
0.296784
0.295231
0.292439
0.288056
0.281784
0.273452
0.263061
0.250826
0.23717
0.222683
0.208057
0.193983
0.181058
0.169706
0.160135
0.152347
0.146185
0.141402
0.137726
0.134905
0.132735
0.13106
0.129764
0.128763
0.127994
0.127405
0.126957
0.126618
0.126364
0.126173
0.126031
0.125925
0.125847
0.125789
0.125745
0.125713
0.125688
0.12567
0.125646
0.173804
0.173939
0.174359
0.175103
0.176311
0.178492
0.181932
0.186589
0.192518
0.199757
0.208568
0.219246
0.23154
0.24432
0.256109
0.265252
0.27041
0.270676
0.265884
0.256799
0.245056
0.232825
0.222256
0.214884
0.2113
0.211311
0.214411
0.220115
0.227977
0.237524
0.248238
0.25957
0.270953
0.281845
0.291767
0.300345
0.307336
0.312638
0.316278
0.318384
0.319148
0.318788
0.317523
0.315557
0.31307
0.310214
0.30712
0.303897
0.300645
0.297462
0.294446
0.291703
0.289335
0.287429
0.286036
0.285158
0.284742
0.284684
0.284844
0.285051
0.285102
0.284748
0.283692
0.281593
0.278095
0.272881
0.265737
0.256611
0.245651
0.233213
0.219828
0.206141
0.192816
0.180447
0.169473
0.160133
0.15247
0.146364
0.141597
0.137919
0.135089
0.132908
0.131222
0.129914
0.1289
0.128117
0.127513
0.127051
0.126698
0.126429
0.126226
0.126072
0.125956
0.125868
0.125801
0.125751
0.125711
0.125681
0.125658
0.125628
0.172495
0.172241
0.17216
0.172272
0.172594
0.173237
0.174399
0.176281
0.178876
0.18188
0.185039
0.188308
0.191721
0.195393
0.198617
0.201096
0.202701
0.203391
0.203257
0.20255
0.201658
0.201038
0.201124
0.202261
0.204682
0.20851
0.213769
0.220386
0.228197
0.236957
0.246358
0.256038
0.265606
0.274681
0.282919
0.290046
0.295877
0.30033
0.303419
0.305232
0.305913
0.305627
0.304546
0.302833
0.300637
0.298085
0.295288
0.292342
0.289335
0.28635
0.283477
0.280812
0.278454
0.276492
0.27499
0.27397
0.273401
0.273207
0.273274
0.27346
0.273592
0.273458
0.272789
0.271268
0.268543
0.264285
0.258242
0.250309
0.24057
0.229312
0.217005
0.204242
0.191658
0.179841
0.169242
0.160132
0.152592
0.146538
0.141786
0.138103
0.135263
0.133071
0.131373
0.130053
0.129027
0.12823
0.127613
0.127136
0.12677
0.126488
0.126272
0.126107
0.12598
0.125883
0.125808
0.12575
0.125704
0.125667
0.125639
0.125603
0.172594
0.172147
0.171822
0.171645
0.17163
0.171791
0.172171
0.172863
0.173969
0.175498
0.177341
0.179339
0.181364
0.183355
0.185174
0.186774
0.188159
0.189376
0.190509
0.191681
0.193042
0.194763
0.197013
0.199947
0.203685
0.208303
0.21382
0.220193
0.227317
0.235028
0.243108
0.251302
0.259331
0.266916
0.273802
0.279781
0.284707
0.288509
0.291186
0.292799
0.293449
0.293263
0.292373
0.29091
0.288995
0.286736
0.284228
0.281555
0.278792
0.276015
0.273303
0.270742
0.268426
0.266445
0.26487
0.263737
0.263034
0.262707
0.262666
0.262792
0.262945
0.262945
0.262562
0.261504
0.259436
0.256021
0.25098
0.244157
0.235574
0.225448
0.214186
0.202328
0.190479
0.179211
0.168989
0.160113
0.152697
0.146698
0.141959
0.138272
0.135421
0.133217
0.131508
0.130178
0.129141
0.128332
0.127702
0.127213
0.126833
0.12654
0.126312
0.126136
0.125999
0.125893
0.125809
0.125744
0.125691
0.125648
0.125616
0.125573
0.173099
0.172572
0.172131
0.171804
0.171611
0.171568
0.171687
0.171987
0.172507
0.17329
0.174351
0.175653
0.177127
0.178696
0.18029
0.181876
0.183454
0.185057
0.186741
0.188582
0.190668
0.193094
0.195952
0.199327
0.203284
0.207861
0.21306
0.218845
0.225135
0.231809
0.238709
0.245646
0.252416
0.258808
0.264628
0.269712
0.27394
0.277248
0.279625
0.281107
0.281765
0.281692
0.280992
0.279769
0.278122
0.276142
0.27391
0.271499
0.268978
0.266411
0.26387
0.261432
0.259185
0.257217
0.255603
0.254388
0.253579
0.253134
0.252984
0.25303
0.253159
0.253226
0.253036
0.252334
0.250806
0.248118
0.24397
0.238163
0.230658
0.221608
0.211352
0.200378
0.189252
0.178534
0.168695
0.160058
0.152773
0.146832
0.14211
0.138419
0.135558
0.133343
0.131623
0.130284
0.129237
0.128418
0.127777
0.127277
0.126887
0.126582
0.126344
0.126158
0.126012
0.125897
0.125806
0.125733
0.125675
0.125626
0.125589
0.12554
0.173615
0.173062
0.172574
0.172175
0.171889
0.171734
0.171724
0.171871
0.172184
0.172682
0.173382
0.174292
0.175406
0.176696
0.178127
0.179673
0.181324
0.18309
0.184998
0.18709
0.189419
0.192041
0.195013
0.198385
0.202194
0.206459
0.211175
0.216311
0.221805
0.227564
0.233472
0.239386
0.24515
0.250602
0.25559
0.25998
0.263672
0.266607
0.268766
0.270166
0.270855
0.270902
0.270386
0.269389
0.267992
0.266273
0.264301
0.262141
0.259852
0.257494
0.255128
0.252826
0.250667
0.248738
0.247115
0.245851
0.244963
0.244424
0.244175
0.244137
0.244216
0.244297
0.244224
0.24378
0.24268
0.240602
0.237232
0.232338
0.225827
0.217786
0.208492
0.198374
0.187961
0.177793
0.168343
0.159954
0.152809
0.146932
0.14223
0.138538
0.135668
0.133443
0.131715
0.130367
0.129312
0.128485
0.127836
0.127327
0.126927
0.126613
0.126366
0.126172
0.126018
0.125895
0.125797
0.125718
0.125654
0.125601
0.12556
0.125505
0.174011
0.173455
0.172951
0.172518
0.172178
0.17195
0.171852
0.171896
0.172093
0.172451
0.17298
0.173687
0.17458
0.175656
0.176908
0.178328
0.179909
0.181652
0.18357
0.185681
0.188015
0.190604
0.19348
0.196674
0.200206
0.204086
0.208307
0.212841
0.21764
0.222635
0.227733
0.232828
0.237795
0.242509
0.246847
0.250698
0.253977
0.256628
0.258627
0.259977
0.26071
0.260874
0.260529
0.25974
0.258575
0.257097
0.255367
0.253442
0.251375
0.249219
0.247029
0.244869
0.242813
0.240942
0.239335
0.23805
0.237111
0.236503
0.236175
0.236059
0.236076
0.236138
0.236123
0.235852
0.235077
0.233494
0.230788
0.226701
0.221091
0.213987
0.205601
0.196309
0.186594
0.176974
0.16792
0.159791
0.152796
0.146993
0.142317
0.138628
0.13575
0.133517
0.13178
0.130425
0.129364
0.128531
0.127876
0.127359
0.126952
0.126631
0.126377
0.126175
0.126015
0.125886
0.125782
0.125698
0.125629
0.125571
0.125527
0.125467
0.174268
0.173718
0.173208
0.172757
0.172383
0.172104
0.171936
0.171896
0.171995
0.172242
0.172644
0.17321
0.173943
0.17485
0.175932
0.17719
0.178624
0.180239
0.182039
0.184035
0.186241
0.188676
0.191357
0.1943
0.197517
0.201011
0.204772
0.208778
0.21299
0.217354
0.221797
0.226234
0.230569
0.234699
0.238523
0.24195
0.244904
0.247334
0.24921
0.250529
0.251309
0.251581
0.251392
0.250792
0.249836
0.248578
0.247071
0.245365
0.243507
0.241544
0.239526
0.23751
0.235565
0.233768
0.232197
0.230913
0.229949
0.229297
0.228912
0.228733
0.228691
0.228716
0.228715
0.228548
0.228006
0.226811
0.224658
0.221269
0.216464
0.210219
0.202685
0.19418
0.185146
0.176071
0.16742
0.159561
0.152729
0.147009
0.142367
0.138684
0.135803
0.133561
0.131818
0.130458
0.129392
0.128554
0.127894
0.127373
0.12696
0.126634
0.126374
0.126167
0.126001
0.125868
0.125759
0.125671
0.125598
0.125536
0.125489
0.125425
0.174415
0.17387
0.173357
0.172893
0.172493
0.172172
0.171947
0.171833
0.171841
0.171984
0.17227
0.172705
0.173297
0.17405
0.174969
0.176057
0.177319
0.178759
0.180382
0.182195
0.184207
0.186428
0.188866
0.191531
0.194427
0.197553
0.2009
0.204446
0.208161
0.212001
0.215907
0.219811
0.223634
0.227293
0.230703
0.233787
0.236478
0.238728
0.240507
0.241803
0.242624
0.242992
0.24294
0.242508
0.24174
0.240682
0.239378
0.237873
0.236209
0.234428
0.232576
0.230703
0.228873
0.227159
0.225638
0.224374
0.223406
0.222732
0.222314
0.222091
0.222
0.221981
0.221968
0.221853
0.221467
0.220566
0.218859
0.216061
0.211965
0.206496
0.199751
0.191994
0.183617
0.175081
0.166838
0.159261
0.152603
0.146979
0.142379
0.138708
0.135825
0.133578
0.131828
0.130464
0.129394
0.128554
0.12789
0.127366
0.12695
0.12662
0.126356
0.126146
0.125976
0.125839
0.125727
0.125635
0.125559
0.125495
0.125445
0.125378
0.174489
0.173945
0.173429
0.172953
0.17253
0.172173
0.171898
0.171717
0.171644
0.171689
0.171863
0.172173
0.172628
0.173232
0.173991
0.17491
0.175993
0.177245
0.178671
0.180276
0.182068
0.184051
0.186231
0.188613
0.191198
0.193981
0.196953
0.200097
0.203386
0.206783
0.21024
0.213701
0.217101
0.220369
0.223436
0.226234
0.228705
0.230802
0.232495
0.233769
0.234624
0.235072
0.235138
0.234853
0.23425
0.233369
0.232249
0.230927
0.229443
0.227832
0.226137
0.224404
0.22269
0.221064
0.219602
0.218372
0.217416
0.21674
0.216309
0.216062
0.215937
0.21588
0.21584
0.215741
0.21545
0.21476
0.213403
0.211096
0.207611
0.202835
0.196814
0.189758
0.182014
0.174007
0.166174
0.158889
0.152419
0.146901
0.142352
0.1387
0.135818
0.133567
0.131813
0.130444
0.129372
0.128529
0.127865
0.127338
0.126921
0.126588
0.126323
0.12611
0.125938
0.125798
0.125684
0.12559
0.125512
0.125446
0.125394
0.125325
0.17452
0.173975
0.173454
0.172965
0.172521
0.172133
0.171813
0.171574
0.171427
0.171384
0.171454
0.171647
0.17197
0.172431
0.173035
0.173787
0.174693
0.175757
0.176984
0.178379
0.179947
0.181691
0.183617
0.185725
0.188014
0.190481
0.193116
0.195904
0.19882
0.201835
0.204908
0.207992
0.211032
0.213969
0.216742
0.219294
0.221571
0.223532
0.225145
0.226393
0.22727
0.227783
0.227948
0.227787
0.227329
0.226606
0.225649
0.224493
0.223172
0.22172
0.220172
0.218572
0.216972
0.215437
0.21404
0.212852
0.211921
0.211257
0.210829
0.210578
0.210437
0.210353
0.210284
0.210178
0.209937
0.20939
0.208297
0.206389
0.203423
0.199257
0.193892
0.187488
0.180346
0.172856
0.165433
0.158447
0.152176
0.146776
0.142288
0.138661
0.135785
0.133531
0.131773
0.130402
0.129328
0.128484
0.127818
0.127291
0.126873
0.12654
0.126273
0.126059
0.125886
0.125745
0.12563
0.125535
0.125455
0.125388
0.125336
0.125265
0.17453
0.173982
0.173454
0.172954
0.17249
0.172074
0.171715
0.171424
0.171212
0.17109
0.171068
0.171154
0.171356
0.171683
0.17214
0.172735
0.173471
0.174354
0.175389
0.17658
0.177932
0.179448
0.18113
0.182979
0.184995
0.187172
0.189501
0.19197
0.194557
0.197236
0.199973
0.202729
0.205455
0.208102
0.210617
0.212949
0.215052
0.216886
0.21842
0.219636
0.220524
0.221086
0.22133
0.221275
0.220941
0.220354
0.219543
0.218536
0.217364
0.216056
0.214646
0.213172
0.211682
0.210237
0.208908
0.207768
0.206869
0.206227
0.205817
0.205577
0.205437
0.205339
0.205246
0.205122
0.204899
0.204442
0.203543
0.201949
0.199417
0.195781
0.191004
0.185201
0.178627
0.171636
0.16462
0.157939
0.151877
0.146607
0.142189
0.138593
0.135728
0.133474
0.131714
0.130339
0.129263
0.128418
0.127753
0.127226
0.126808
0.126475
0.126209
0.125995
0.125821
0.12568
0.125565
0.125469
0.125389
0.125322
0.125269
0.125197
0.17453
0.173978
0.173443
0.172931
0.172451
0.172009
0.171616
0.171281
0.171013
0.170822
0.170718
0.170709
0.170803
0.171009
0.171333
0.171781
0.17236
0.173074
0.173929
0.174929
0.176077
0.177378
0.178833
0.180442
0.182205
0.184116
0.186168
0.188349
0.190641
0.193021
0.195459
0.197922
0.200369
0.202757
0.205039
0.207172
0.209113
0.210825
0.21228
0.213457
0.214345
0.21494
0.215247
0.215278
0.215049
0.214581
0.213898
0.213023
0.211985
0.210809
0.209526
0.20817
0.206785
0.205427
0.204168
0.203078
0.202215
0.201603
0.201219
0.201003
0.200879
0.200782
0.200674
0.20053
0.200306
0.199899
0.199135
0.197784
0.195608
0.192426
0.18817
0.182915
0.176873
0.170361
0.163743
0.157371
0.151527
0.146396
0.142058
0.1385
0.13565
0.133399
0.131637
0.13026
0.129183
0.128337
0.127672
0.127146
0.126729
0.126397
0.126131
0.125918
0.125745
0.125605
0.125489
0.125394
0.125315
0.125247
0.125194
0.125123
0.174526
0.173969
0.173428
0.172906
0.17241
0.171946
0.171524
0.17115
0.170834
0.170584
0.170409
0.170317
0.170316
0.170415
0.170619
0.170936
0.171371
0.171931
0.172621
0.173444
0.174405
0.175507
0.176752
0.178141
0.179671
0.181339
0.183139
0.185059
0.187084
0.189193
0.191363
0.193562
0.195757
0.197909
0.199979
0.201926
0.203714
0.205309
0.206683
0.207814
0.208691
0.209306
0.20966
0.209761
0.20962
0.209254
0.208681
0.207924
0.207005
0.205949
0.204782
0.203536
0.202249
0.200976
0.199784
0.198745
0.197921
0.197342
0.19699
0.196807
0.196711
0.196629
0.196518
0.196358
0.196122
0.195738
0.195064
0.193896
0.192007
0.189208
0.185409
0.180648
0.1751
0.169043
0.162815
0.15675
0.151129
0.146147
0.141897
0.138386
0.135555
0.13331
0.131548
0.130169
0.12909
0.128244
0.127579
0.127054
0.126638
0.126307
0.126043
0.125831
0.12566
0.12552
0.125406
0.125311
0.125232
0.125165
0.125113
0.125042
0.174519
0.173959
0.173411
0.172879
0.17237
0.171888
0.17144
0.171034
0.170676
0.170375
0.170139
0.169976
0.169893
0.169897
0.169996
0.170196
0.170504
0.170925
0.171465
0.172128
0.172918
0.173839
0.174892
0.176078
0.177396
0.178843
0.180412
0.182094
0.183876
0.185741
0.187666
0.189625
0.191589
0.193525
0.195398
0.197173
0.198816
0.200296
0.201587
0.202667
0.203524
0.204147
0.204534
0.20469
0.204621
0.204341
0.203864
0.20321
0.202398
0.201449
0.200388
0.199242
0.198048
0.196855
0.195728
0.194739
0.193954
0.193409
0.193092
0.192948
0.192889
0.192834
0.192732
0.192563
0.192312
0.191934
0.191315
0.190281
0.188619
0.186142
0.182739
0.178421
0.173326
0.167697
0.161844
0.156084
0.150691
0.145864
0.14171
0.138252
0.135445
0.13321
0.131449
0.130069
0.128989
0.128143
0.127478
0.126954
0.12654
0.12621
0.125948
0.125737
0.125567
0.125429
0.125316
0.125223
0.125145
0.125079
0.125027
0.124957
0.174512
0.173947
0.173393
0.172853
0.172332
0.171834
0.171364
0.17093
0.170537
0.170193
0.169905
0.16968
0.169525
0.169448
0.169455
0.169552
0.169747
0.170045
0.17045
0.170969
0.171605
0.172361
0.17324
0.174242
0.175367
0.176612
0.177971
0.179437
0.180998
0.182638
0.18434
0.18608
0.187833
0.189569
0.191259
0.192872
0.194376
0.195744
0.196951
0.197977
0.198805
0.199426
0.199835
0.200032
0.200022
0.199813
0.199419
0.198855
0.198137
0.197284
0.196318
0.195264
0.194155
0.193037
0.191972
0.191032
0.190285
0.189774
0.189493
0.18939
0.189374
0.189357
0.189276
0.189106
0.188843
0.18846
0.187873
0.186933
0.18545
0.183237
0.180176
0.176251
0.171568
0.16634
0.160845
0.155382
0.150217
0.145551
0.141501
0.138102
0.135325
0.133102
0.131344
0.129965
0.128884
0.128037
0.127373
0.12685
0.126436
0.126109
0.125848
0.125639
0.125471
0.125335
0.125223
0.125131
0.125055
0.12499
0.124939
0.12487
0.174503
0.173935
0.173376
0.172828
0.172296
0.171784
0.171296
0.170837
0.170415
0.170034
0.169701
0.169423
0.169207
0.169058
0.168985
0.168993
0.169088
0.169276
0.169563
0.169952
0.17045
0.171058
0.171779
0.172615
0.173564
0.174625
0.175793
0.177062
0.178421
0.179857
0.181355
0.182894
0.184452
0.186004
0.187524
0.188984
0.190357
0.191616
0.192739
0.193706
0.1945
0.195111
0.19553
0.195757
0.195793
0.195644
0.19532
0.194833
0.194198
0.193431
0.19255
0.19158
0.190549
0.189501
0.188494
0.1876
0.186889
0.18641
0.186165
0.186103
0.186135
0.186162
0.186112
0.185953
0.185683
0.185291
0.184719
0.183844
0.182497
0.180502
0.177731
0.174152
0.169843
0.164985
0.15983
0.154656
0.149717
0.145215
0.141273
0.137939
0.135197
0.132989
0.131237