/*--------------------------------*- C++ -*----------------------------------*\
  =========                 |
  \\      /  F ield         | OpenFOAM: The Open Source CFD Toolbox
   \\    /   O peration     | Website:  https://openfoam.org
    \\  /    A nd           | Version:  10
     \\/     M anipulation  |
\*---------------------------------------------------------------------------*/
FoamFile
{
    format      ascii;
    class       volScalarField;
    location    "0.05";
    object      nut;
}
// * * * * * * * * * * * * * * * * * * * * * * * * * * * * * * * * * * * * * //

dimensions      [0 2 -1 0 0 0 0];

internalField   nonuniform List<scalar> 
6820
(
0.000149484
0.000144853
0.000140581
0.000136577
0.000132833
0.000129377
0.000126234
0.000123417
0.000120922
0.000118736
0.000116838
0.000115203
0.000113808
0.000112627
0.000111639
0.000110821
0.000110156
0.000109625
0.000109213
0.000108907
0.000108693
0.000108561
0.000108501
0.000108505
0.000108565
0.000108675
0.000108825
0.000109031
0.000109198
0.000109749
0.000108686
0.000115377
8.58179e-05
0.000729198
0.000532391
0.000448011
0.000399706
0.00036838
0.000346732
0.000331089
0.000319361
0.000310274
0.000303025
0.000297094
0.000292133
0.000287906
0.000284251
0.000281048
0.000278211
0.000275676
0.000273393
0.000271322
0.000269433
0.000267702
0.000266107
0.000264633
0.000263266
0.000261995
0.000260809
0.000259704
0.000258668
0.000257712
0.000256814
0.000256046
0.00025516
0.000256508
0.000976776
0.000872181
0.000781622
0.000711263
0.000657318
0.000615278
0.000581708
0.00055425
0.000531315
0.000511822
0.00049501
0.000480331
0.000467381
0.000455855
0.000445518
0.000436184
0.000427708
0.000419971
0.000412878
0.000406347
0.000400311
0.000394714
0.000389505
0.000384642
0.000380085
0.000375799
0.000371751
0.00036791
0.000364236
0.000360705
0.000357235
0.000353773
0.00034994
0.00101349
0.00098823
0.000949374
0.000906193
0.000864425
0.000826383
0.000792552
0.000762666
0.000736232
0.000712738
0.000691732
0.000672828
0.000655711
0.000640122
0.000625849
0.000612717
0.000600582
0.000589323
0.000578841
0.000569049
0.000559875
0.000551255
0.000543134
0.000535463
0.000528199
0.000521301
0.000514732
0.000508457
0.000502436
0.000496641
0.000491005
0.00048555
0.000480006
0.00101671
0.00101241
0.00100191
0.000985661
0.000965604
0.000943712
0.000921423
0.000899612
0.00087875
0.000859044
0.000840554
0.000823257
0.00080709
0.000791973
0.000777819
0.000764546
0.000752073
0.00074033
0.000729249
0.000718773
0.000708846
0.000699422
0.000690457
0.000681909
0.000673744
0.000665925
0.00065842
0.000651198
0.000644223
0.000637469
0.000630887
0.000624462
0.000618112
0.00101676
0.00101592
0.0010136
0.00100903
0.00100204
0.00099292
0.000982191
0.000970398
0.000958007
0.000945378
0.000932767
0.000920351
0.000908242
0.000896508
0.000885186
0.000874293
0.000863829
0.000853787
0.000844153
0.00083491
0.000826039
0.000817518
0.000809326
0.000801442
0.000793845
0.000786513
0.000779423
0.000772555
0.000765883
0.000759387
0.000753036
0.00074681
0.000740677
0.00101671
0.00101623
0.00101553
0.00101428
0.00101219
0.0010091
0.00100497
0.000999892
0.000994021
0.000987523
0.000980562
0.000973286
0.000965818
0.000958256
0.000950679
0.000943147
0.000935702
0.000928377
0.000921195
0.000914171
0.000907312
0.000900624
0.000894107
0.000887759
0.000881575
0.000875547
0.000869669
0.000863929
0.000858317
0.00085282
0.000847425
0.000842119
0.00083689
0.0010167
0.00101622
0.00101574
0.00101518
0.00101442
0.00101335
0.00101188
0.00100995
0.00100756
0.00100471
0.00100145
0.00099783
0.000993914
0.000989757
0.000985412
0.000980928
0.000976348
0.000971706
0.000967033
0.000962354
0.000957688
0.000953052
0.000948456
0.00094391
0.00093942
0.00093499
0.000930621
0.000926314
0.000922067
0.000917878
0.000913744
0.000909662
0.000905633
0.0010167
0.00101621
0.00101575
0.00101528
0.0010148
0.00101425
0.00101359
0.00101279
0.00101179
0.00101059
0.00100918
0.00100754
0.00100569
0.00100365
0.00100144
0.000999069
0.000996568
0.000993956
0.000991251
0.000988473
0.000985638
0.00098276
0.000979852
0.000976924
0.000973986
0.000971044
0.000968105
0.000965174
0.000962255
0.000959351
0.000956466
0.000953604
0.000950773
0.0010167
0.00101621
0.00101574
0.00101529
0.00101484
0.00101439
0.00101393
0.00101344
0.0010129
0.00101229
0.0010116
0.00101082
0.00100994
0.00100895
0.00100787
0.00100668
0.0010054
0.00100404
0.00100259
0.00100107
0.000999486
0.000997847
0.00099616
0.000994431
0.000992669
0.000990878
0.000989065
0.000987235
0.000985393
0.000983546
0.000981698
0.000979857
0.000978031
0.0010167
0.00101621
0.00101574
0.00101528
0.00101484
0.00101441
0.00101398
0.00101356
0.00101313
0.0010127
0.00101224
0.00101176
0.00101125
0.0010107
0.00101011
0.00100947
0.00100879
0.00100806
0.00100728
0.00100646
0.00100559
0.00100469
0.00100375
0.00100278
0.00100177
0.00100074
0.000999683
0.000998608
0.000997518
0.000996418
0.000995314
0.000994212
0.000993121
0.0010167
0.00101621
0.00101574
0.00101528
0.00101484
0.0010144
0.00101398
0.00101357
0.00101317
0.00101278
0.00101238
0.00101199
0.0010116
0.00101119
0.00101078
0.00101036
0.00100992
0.00100946
0.00100899
0.0010085
0.00100799
0.00100745
0.0010069
0.00100634
0.00100575
0.00100515
0.00100454
0.00100391
0.00100328
0.00100264
0.001002
0.00100137
0.00100075
0.0010167
0.00101621
0.00101574
0.00101528
0.00101483
0.0010144
0.00101398
0.00101357
0.00101317
0.00101278
0.0010124
0.00101203
0.00101167
0.00101131
0.00101095
0.0010106
0.00101025
0.00100989
0.00100954
0.00100918
0.00100881
0.00100844
0.00100807
0.00100769
0.00100731
0.00100692
0.00100653
0.00100614
0.00100575
0.00100536
0.00100498
0.0010046
0.00100425
0.0010167
0.00101621
0.00101574
0.00101528
0.00101483
0.0010144
0.00101398
0.00101357
0.00101317
0.00101278
0.00101241
0.00101204
0.00101168
0.00101133
0.00101099
0.00101065
0.00101033
0.00101
0.00100969
0.00100937
0.00100906
0.00100876
0.00100845
0.00100815
0.00100786
0.00100756
0.00100727
0.00100699
0.00100671
0.00100644
0.00100617
0.00100593
0.0010057
0.0010167
0.00101621
0.00101574
0.00101528
0.00101483
0.0010144
0.00101398
0.00101357
0.00101317
0.00101278
0.0010124
0.00101204
0.00101168
0.00101133
0.00101099
0.00101066
0.00101034
0.00101003
0.00100972
0.00100942
0.00100913
0.00100884
0.00100856
0.00100829
0.00100803
0.00100777
0.00100752
0.00100727
0.00100704
0.00100682
0.00100661
0.00100642
0.00100625
0.0010167
0.00101621
0.00101574
0.00101528
0.00101483
0.0010144
0.00101397
0.00101356
0.00101317
0.00101278
0.0010124
0.00101203
0.00101168
0.00101133
0.00101099
0.00101066
0.00101034
0.00101003
0.00100972
0.00100943
0.00100914
0.00100886
0.00100859
0.00100833
0.00100807
0.00100783
0.00100759
0.00100736
0.00100714
0.00100694
0.00100675
0.00100658
0.00100643
0.0010167
0.00101621
0.00101574
0.00101528
0.00101483
0.0010144
0.00101397
0.00101356
0.00101316
0.00101278
0.0010124
0.00101203
0.00101167
0.00101132
0.00101099
0.00101066
0.00101034
0.00101003
0.00100972
0.00100943
0.00100914
0.00100886
0.0010086
0.00100833
0.00100808
0.00100784
0.00100761
0.00100738
0.00100717
0.00100697
0.00100679
0.00100662
0.00100647
0.0010167
0.00101621
0.00101574
0.00101528
0.00101483
0.0010144
0.00101397
0.00101356
0.00101316
0.00101277
0.0010124
0.00101203
0.00101167
0.00101132
0.00101098
0.00101065
0.00101033
0.00101002
0.00100972
0.00100943
0.00100914
0.00100886
0.00100859
0.00100833
0.00100808
0.00100784
0.00100761
0.00100739
0.00100718
0.00100698
0.0010068
0.00100663
0.00100648
0.0010167
0.00101621
0.00101574
0.00101528
0.00101483
0.00101439
0.00101397
0.00101356
0.00101316
0.00101277
0.00101239
0.00101203
0.00101167
0.00101132
0.00101098
0.00101065
0.00101033
0.00101002
0.00100972
0.00100942
0.00100914
0.00100886
0.00100859
0.00100833
0.00100808
0.00100784
0.00100761
0.00100739
0.00100718
0.00100698
0.00100679
0.00100662
0.00100647
0.0010167
0.00101621
0.00101574
0.00101528
0.00101483
0.00101439
0.00101397
0.00101356
0.00101316
0.00101277
0.00101239
0.00101203
0.00101167
0.00101132
0.00101098
0.00101065
0.00101033
0.00101002
0.00100972
0.00100942
0.00100914
0.00100886
0.00100859
0.00100833
0.00100808
0.00100784
0.00100761
0.00100738
0.00100717
0.00100697
0.00100679
0.00100661
0.00100646
0.0010167
0.00101621
0.00101574
0.00101528
0.00101483
0.00101439
0.00101397
0.00101356
0.00101316
0.00101277
0.00101239
0.00101202
0.00101167
0.00101132
0.00101098
0.00101065
0.00101033
0.00101002
0.00100971
0.00100942
0.00100913
0.00100886
0.00100859
0.00100833
0.00100808
0.00100783
0.0010076
0.00100738
0.00100717
0.00100697
0.00100678
0.0010066
0.00100644
0.0010167
0.00101621
0.00101574
0.00101528
0.00101483
0.00101439
0.00101397
0.00101356
0.00101316
0.00101277
0.00101239
0.00101202
0.00101166
0.00101132
0.00101098
0.00101065
0.00101033
0.00101001
0.00100971
0.00100942
0.00100913
0.00100885
0.00100858
0.00100832
0.00100807
0.00100783
0.0010076
0.00100737
0.00100716
0.00100696
0.00100676
0.00100659
0.00100642
0.0010167
0.00101621
0.00101574
0.00101528
0.00101483
0.00101439
0.00101397
0.00101356
0.00101316
0.00101277
0.00101239
0.00101202
0.00101166
0.00101131
0.00101097
0.00101064
0.00101032
0.00101001
0.00100971
0.00100941
0.00100913
0.00100885
0.00100858
0.00100832
0.00100807
0.00100782
0.00100759
0.00100736
0.00100715
0.00100694
0.00100675
0.00100657
0.0010064
0.0010167
0.00101621
0.00101574
0.00101528
0.00101483
0.00101439
0.00101397
0.00101356
0.00101316
0.00101277
0.00101239
0.00101202
0.00101166
0.00101131
0.00101097
0.00101064
0.00101032
0.00101001
0.00100971
0.00100941
0.00100912
0.00100885
0.00100858
0.00100831
0.00100806
0.00100782
0.00100758
0.00100736
0.00100714
0.00100693
0.00100674
0.00100655
0.00100638
0.0010167
0.00101621
0.00101574
0.00101528
0.00101483
0.00101439
0.00101397
0.00101356
0.00101316
0.00101277
0.00101239
0.00101202
0.00101166
0.00101131
0.00101097
0.00101064
0.00101032
0.00101001
0.0010097
0.00100941
0.00100912
0.00100884
0.00100857
0.00100831
0.00100806
0.00100781
0.00100757
0.00100735
0.00100713
0.00100692
0.00100672
0.00100653
0.00100635
0.0010167
0.00101621
0.00101574
0.00101528
0.00101483
0.00101439
0.00101397
0.00101356
0.00101316
0.00101277
0.00101239
0.00101202
0.00101166
0.00101131
0.00101097
0.00101064
0.00101032
0.00101
0.0010097
0.0010094
0.00100912
0.00100884
0.00100857
0.0010083
0.00100805
0.0010078
0.00100756
0.00100734
0.00100712
0.0010069
0.0010067
0.00100651
0.00100633
0.0010167
0.00101621
0.00101574
0.00101528
0.00101483
0.00101439
0.00101397
0.00101356
0.00101316
0.00101277
0.00101239
0.00101202
0.00101166
0.00101131
0.00101097
0.00101064
0.00101032
0.00101
0.0010097
0.0010094
0.00100911
0.00100883
0.00100856
0.0010083
0.00100804
0.00100779
0.00100756
0.00100732
0.0010071
0.00100689
0.00100668
0.00100649
0.0010063
0.0010167
0.00101621
0.00101574
0.00101528
0.00101483
0.00101439
0.00101397
0.00101356
0.00101316
0.00101277
0.00101239
0.00101202
0.00101166
0.00101131
0.00101097
0.00101064
0.00101031
0.00101
0.0010097
0.0010094
0.00100911
0.00100883
0.00100856
0.00100829
0.00100804
0.00100779
0.00100755
0.00100731
0.00100709
0.00100687
0.00100667
0.00100647
0.00100628
0.0010167
0.00101621
0.00101574
0.00101528
0.00101483
0.00101439
0.00101397
0.00101356
0.00101316
0.00101277
0.00101239
0.00101202
0.00101166
0.00101131
0.00101097
0.00101064
0.00101031
0.00101
0.00100969
0.0010094
0.00100911
0.00100883
0.00100855
0.00100829
0.00100803
0.00100778
0.00100754
0.0010073
0.00100708
0.00100686
0.00100665
0.00100645
0.00100626
0.0010167
0.00101621
0.00101574
0.00101528
0.00101483
0.00101439
0.00101397
0.00101356
0.00101316
0.00101277
0.00101239
0.00101202
0.00101166
0.00101131
0.00101097
0.00101064
0.00101031
0.00101
0.00100969
0.00100939
0.0010091
0.00100882
0.00100855
0.00100828
0.00100802
0.00100777
0.00100753
0.00100729
0.00100707
0.00100685
0.00100663
0.00100643
0.00100624
0.0010167
0.00101621
0.00101574
0.00101528
0.00101483
0.00101439
0.00101397
0.00101356
0.00101316
0.00101277
0.00101239
0.00101202
0.00101166
0.00101131
0.00101097
0.00101064
0.00101031
0.00101
0.00100969
0.00100939
0.0010091
0.00100882
0.00100855
0.00100828
0.00100802
0.00100777
0.00100752
0.00100728
0.00100705
0.00100683
0.00100662
0.00100641
0.00100621
0.0010167
0.00101621
0.00101574
0.00101528
0.00101483
0.0010144
0.00101397
0.00101356
0.00101316
0.00101277
0.0010124
0.00101203
0.00101167
0.00101132
0.00101097
0.00101064
0.00101032
0.00101
0.00100969
0.00100939
0.0010091
0.00100882
0.00100854
0.00100827
0.001008
0.00100775
0.0010075
0.00100725
0.00100702
0.00100679
0.00100656
0.00100635
0.00100614
0.0010167
0.00101621
0.00101574
0.00101528
0.00101483
0.0010144
0.00101398
0.00101357
0.00101317
0.00101278
0.0010124
0.00101203
0.00101167
0.00101132
0.00101097
0.00101064
0.00101031
0.00100999
0.00100967
0.00100936
0.00100906
0.00100876
0.00100847
0.00100818
0.0010079
0.00100762
0.00100735
0.00100708
0.00100682
0.00100656
0.00100631
0.00100606
0.00100582
0.0010167
0.00101621
0.00101574
0.00101529
0.00101484
0.00101441
0.001014
0.00101359
0.00101318
0.00101279
0.0010124
0.00101202
0.00101164
0.00101127
0.0010109
0.00101053
0.00101016
0.0010098
0.00100943
0.00100907
0.0010087
0.00100833
0.00100796
0.00100759
0.00100722
0.00100685
0.00100647
0.00100609
0.00100571
0.00100533
0.00100495
0.00100457
0.00100419
0.0010167
0.00101622
0.00101575
0.0010153
0.00101485
0.00101441
0.00101397
0.00101353
0.00101308
0.00101262
0.00101215
0.00101166
0.00101116
0.00101064
0.00101009
0.00100952
0.00100893
0.00100832
0.00100768
0.00100703
0.00100634
0.00100564
0.00100492
0.00100418
0.00100342
0.00100264
0.00100185
0.00100105
0.00100023
0.000999403
0.000998567
0.000997722
0.000996872
0.00101671
0.00101622
0.00101574
0.00101524
0.00101469
0.00101407
0.00101337
0.00101258
0.00101168
0.00101068
0.00100957
0.00100834
0.00100702
0.00100559
0.00100406
0.00100244
0.00100074
0.000998971
0.000997131
0.000995231
0.000993279
0.000991284
0.000989251
0.000987188
0.000985101
0.000982997
0.000980881
0.000978758
0.000976634
0.000974512
0.000972397
0.000970294
0.000968205
0.00101671
0.001016
0.00101488
0.00101326
0.00101113
0.0010085
0.00100535
0.00100174
0.000997694
0.000993266
0.000988511
0.000983482
0.000978232
0.000972807
0.000967253
0.000961609
0.000955911
0.000950188
0.000944469
0.000938776
0.00093313
0.000927546
0.000922041
0.000916625
0.000911309
0.000906101
0.000901008
0.000896037
0.000891191
0.000886475
0.00088189
0.000877439
0.000873123
0.0010153
0.00100707
0.000995531
0.000981445
0.000965437
0.000948118
0.000930045
0.000911667
0.000893317
0.000875234
0.000857583
0.000840473
0.000823971
0.000808115
0.000792917
0.000778379
0.000764488
0.000751228
0.000738575
0.000726504
0.00071499
0.000704004
0.000693521
0.000683513
0.000673954
0.000664821
0.000656089
0.000647735
0.000639737
0.000632075
0.000624728
0.000617677
0.000610904
0.000935928
0.000815546
0.000728177
0.000659229
0.000602322
0.000555041
0.000515488
0.000482077
0.000453557
0.000428964
0.000407555
0.000388759
0.00037213
0.000357317
0.000344043
0.000332083
0.000321255
0.000311408
0.000302418
0.000294182
0.00028661
0.000279629
0.000273173
0.000267188
0.000261627
0.000256447
0.000251613
0.000247093
0.000242858
0.000238885
0.000235151
0.000231637
0.000228325
0.000125477
0.000128847
0.000132096
0.000135204
0.000138174
0.000141008
0.000143711
0.000146289
0.000148745
0.000151084
0.00015331
0.000155427
0.000157439
0.000159351
0.000161167
0.00016289
0.000164525
0.000166076
0.000167545
0.000168938
0.000170257
0.000171505
0.000172687
0.000173804
0.000174861
0.000175859
0.000176803
0.000177693
0.000178534
0.000179327
0.000180074
0.000180778
0.000181441
0.000109979
0.000158219
0.000215707
0.000280026
0.00034398
0.000401195
0.000451711
0.000500965
0.000554592
0.000614569
0.000678919
0.000743824
0.000805758
0.000862301
0.000911853
0.000952899
0.000984516
0.00100561
0.00101494
0.00101114
0.000992765
0.000958257
0.000906136
0.000835384
0.000746452
0.000643344
0.000537271
0.000451471
0.000425787
0.000515432
0.000731484
0.000959688
0.00112859
0.00125756
0.00136424
0.00145351
0.00152657
0.00158453
0.00162907
0.00166223
0.00168618
0.00170293
0.00171428
0.00172173
0.00172654
0.00172973
0.00173217
0.00173463
0.00173782
0.00174242
0.00174907
0.00175821
0.00177002
0.00178426
0.00180024
0.0018169
0.00183294
0.00184698
0.00185759
0.0018634
0.00186301
0.0018551
0.00183852
0.00181246
0.00177658
0.00173114
0.001677
0.00161568
0.00154923
0.00148012
0.00141102
0.00134453
0.0012828
0.00122738
0.00117905
0.00113801
0.00110403
0.0010766
0.00105499
0.0010383
0.00102557
0.00101593
0.00100861
0.00100305
0.00099883
0.000995641
0.000993248
0.000991468
0.000990157
0.000989201
0.000988513
0.000988025
0.000987686
0.000987456
0.000987305
0.000987211
0.000987156
0.00098713
0.00098712
0.000987126
0.000246098
0.000211099
0.00017631
0.000164895
0.000180624
0.000218338
0.000270303
0.000328414
0.000386506
0.000441646
0.000493567
0.000542982
0.000590143
0.000634335
0.000674024
0.000707593
0.00073334
0.000749735
0.000755416
0.000749054
0.00072933
0.000695135
0.000646113
0.000583672
0.00051272
0.000444229
0.00039842
0.000407834
0.000511131
0.000702161
0.000899503
0.00105703
0.00118346
0.00128991
0.00138031
0.00145586
0.00151746
0.00156631
0.00160394
0.00163206
0.00165243
0.00166671
0.00167636
0.00168265
0.0016866
0.00168909
0.00169085
0.00169253
0.00169478
0.0016982
0.00170343
0.00171095
0.00172107
0.0017337
0.00174834
0.00176408
0.00177974
0.00179403
0.00180559
0.00181305
0.00181501
0.0018101
0.00179707
0.00177498
0.00174334
0.00170223
0.0016524
0.00159519
0.00153254
0.00146684
0.00140071
0.00133671
0.00127705
0.00122332
0.00117637
0.00113644
0.0011033
0.00107644
0.00105517
0.00103864
0.00102598
0.00101634
0.00100901
0.00100344
0.000999216
0.000996019
0.000993616
0.000991823
0.000990497
0.000989526
0.000988824
0.000988322
0.000987969
0.000987727
0.000987565
0.00098746
0.000987397
0.000987362
0.000987345
0.000987343
0.000347369
0.000352221
0.000369827
0.000363449
0.000295222
0.000222644
0.000189322
0.000190673
0.000214586
0.000251991
0.000296181
0.000342068
0.000385997
0.000425601
0.000459077
0.000485387
0.000504057
0.000514528
0.00051602
0.000507751
0.00048937
0.000461568
0.000426964
0.000391379
0.000365597
0.000367558
0.000422282
0.000546146
0.000712837
0.00087348
0.0010107
0.00112794
0.00122924
0.0013166
0.00139109
0.0014535
0.0015046
0.00154537
0.00157698
0.00160077
0.00161813
0.00163037
0.00163866
0.00164405
0.00164737
0.00164937
0.00165066
0.00165179
0.00165331
0.00165579
0.00165979
0.00166586
0.00167435
0.00168535
0.0016985
0.00171308
0.00172806
0.00174225
0.00175437
0.00176312
0.00176713
0.00176499
0.00175537
0.00173719
0.00170979
0.0016731
0.00162767
0.0015747
0.001516
0.00145383
0.00139076
0.00132933
0.00127177
0.00121973
0.00117414
0.00113526
0.00110289
0.00107654
0.00105556
0.00103916
0.00102652
0.00101686
0.00100951
0.00100391
0.000999658
0.000996435
0.000994007
0.00099219
0.00099084
0.000989847
0.000989122
0.000988601
0.00098823
0.000987971
0.000987794
0.000987676
0.0009876
0.000987555
0.000987529
0.000987517
0.000473874
0.000469529
0.000477499
0.000519153
0.000617501
0.00070295
0.000606593
0.000425204
0.000299867
0.000238776
0.00021761
0.000218808
0.000232173
0.000251533
0.000272701
0.000292583
0.000308839
0.000320011
0.000325608
0.000326201
0.00032369
0.000321855
0.000327236
0.000350028
0.000403237
0.000495517
0.000618641
0.000750726
0.000876365
0.000990878
0.0010935
0.00118454
0.00126472
0.0013347
0.00139496
0.00144591
0.00148801
0.00152192
0.00154847
0.00156866
0.00158354
0.00159414
0.00160139
0.00160612
0.00160903
0.00161073
0.00161173
0.0016125
0.0016135
0.00161524
0.00161824
0.00162304
0.00163005
0.00163945
0.00165106
0.00166432
0.00167835
0.00169209
0.0017044
0.00171406
0.00171975
0.00172008
0.00171366
0.00169927
0.00167609
0.00164385
0.00160291
0.00155432
0.0014997
0.00144121
0.00138132
0.00132253
0.0012671
0.00121672
0.00117241
0.00113449
0.00110281
0.00107691
0.00105617
0.00103985
0.00102721
0.0010175
0.00101009
0.00100444
0.00100014
0.000996874
0.000994408
0.000992554
0.00099117
0.000990146
0.000989394
0.000988846
0.000988453
0.000988173
0.000987978
0.000987844
0.000987754
0.000987696
0.000987659
0.000987634
0.00061073
0.000602295
0.000594904
0.000594085
0.000615264
0.000680208
0.000797246
0.000924781
0.00092591
0.000767283
0.000582964
0.00044966
0.000369028
0.000324902
0.000303048
0.000294968
0.000295576
0.000302337
0.000314524
0.000333018
0.000360249
0.000399801
0.000455149
0.000527438
0.000613859
0.000708826
0.000806674
0.000902832
0.000994007
0.0010784
0.00115547
0.00122524
0.00128787
0.00134343
0.00139193
0.00143343
0.00146812
0.00149638
0.00151879
0.00153606
0.00154897
0.00155829
0.00156477
0.00156906
0.00157174
0.00157329
0.00157416
0.00157473
0.00157541
0.00157661
0.00157883
0.00158256
0.00158826
0.00159618
0.00160628
0.00161813
0.00163103
0.00164406
0.00165619
0.00166635
0.00167333
0.00167576
0.00167222
0.00166141
0.00164233
0.00161451
0.00157811
0.00153397
0.00148355
0.00142886
0.00137225
0.00131617
0.0012629
0.00121417
0.00117109
0.00113407
0.00110301
0.00107749
0.00105693
0.00104067
0.00102799
0.00101822
0.00101073
0.00100501
0.00100065
0.000997332
0.000994815
0.000992915
0.00099149
0.000990427
0.00098964
0.000989063
0.000988642
0.000988338
0.000988122
0.000987969
0.000987863
0.00098779
0.000987742
0.000987701
0.000733581
0.000725344
0.00071674
0.000707921
0.00070119
0.000703661
0.000726131
0.00077789
0.000851515
0.000915317
0.000929437
0.000876795
0.00078125
0.00067472
0.000600174
0.000554695
0.000530899
0.000524
0.00053132
0.000551431
0.000583482
0.000626609
0.0006795
0.000740212
0.000806293
0.00087513
0.00094436
0.00101215
0.00107727
0.00113896
0.00119675
0.00125033
0.00129938
0.00134362
0.00138279
0.00141676
0.00144552
0.00146927
0.00148838
0.00150334
0.00151472
0.00152309
0.00152904
0.00153307
0.00153565
0.00153719
0.00153805
0.00153857
0.00153907
0.00153992
0.00154155
0.00154444
0.00154902
0.00155563
0.00156431
0.00157477
0.00158645
0.00159855
0.00161021
0.00162049
0.00162831
0.00163242
0.0016314
0.00162386
0.00160868
0.00158516
0.00155327
0.00151361
0.00146746
0.00141665
0.00136341
0.00131012
0.00125904
0.00121197
0.00117008
0.0011339
0.00110339
0.00107821
0.00105781
0.00104158
0.00102886
0.001019
0.00101143
0.00100563
0.00100119
0.000997802
0.000995225
0.000993271
0.000991797
0.00099069
0.000989865
0.000989252
0.000988801
0.00098847
0.00098823
0.000988056
0.000987932
0.000987843
0.000987782
0.000987724
0.000830851
0.000823874
0.000816684
0.000809166
0.000801267
0.000793764
0.000789354
0.00079279
0.000808075
0.000834327
0.000863833
0.000883924
0.000883669
0.000860362
0.00082907
0.000800181
0.000779149
0.000768189
0.000767782
0.000777544
0.000796644
0.00082397
0.00085821
0.000897924
0.000941633
0.000987914
0.0010355
0.00108333
0.00113055
0.00117649
0.00122057
0.00126228
0.00130115
0.00133673
0.00136869
0.00139678
0.0014209
0.00144113
0.00145768
0.00147086
0.00148108
0.00148878
0.00149438
0.0014983
0.00150091
0.00150254
0.0015035
0.00150406
0.00150451
0.00150516
0.00150639
0.00150862
0.0015123
0.00151779
0.0015252
0.00153435
0.00154479
0.00155586
0.00156683
0.0015769
0.00158516
0.00159048
0.00159154
0.00158691
0.00157532
0.00155591
0.00152841
0.0014932
0.00145134
0.00140447
0.00135466
0.00130423
0.00125538
0.00120998
0.00116927
0.00113389
0.0011039
0.00107901
0.00105875
0.00104253
0.00102976
0.00101982
0.00101215
0.00100625
0.00100173
0.000998274
0.00099563
0.000993617
0.000992089
0.000990935
0.000990066
0.000989416
0.000988931
0.000988572
0.000988305
0.000988109
0.000987965
0.00098786
0.000987784
0.000987708
0.000900983
0.000895633
0.000890187
0.000884641
0.000878963
0.000873145
0.000867451
0.000862852
0.000861133
0.00086404
0.000871916
0.00088291
0.000893313
0.000899654
0.000901485
0.000900402
0.000898864
0.0008992
0.000903126
0.000911656
0.000925187
0.000943649
0.000966644
0.000993558
0.00102367
0.0010562
0.00109042
0.00112561
0.00116113
0.0011964
0.00123084
0.00126397
0.00129528
0.00132435
0.00135082
0.00137441
0.00139498
0.0014125
0.00142709
0.00143894
0.00144833
0.00145557
0.00146099
0.00146491
0.00146763
0.00146943
0.00147055
0.00147124
0.00147174
0.00147231
0.00147328
0.00147505
0.00147802
0.00148258
0.0014889
0.00149688
0.00150615
0.00151617
0.0015263
0.00153591
0.00154424
0.00155035
0.00155302
0.00155085
0.00154249
0.0015269
0.0015036
0.00147274
0.00143512
0.0013922
0.00134589
0.00129836
0.00125179
0.00120807
0.00116855
0.00113395
0.00110445
0.00107983
0.00105969
0.00104348
0.00103065
0.00102063
0.00101286
0.00100687
0.00100227
0.000998734
0.000996022
0.000993946
0.000992362
0.000991157
0.000990244
0.000989554
0.000989035
0.000988644
0.00098835
0.000988131
0.000987966
0.000987842
0.000987751
0.000987657
0.000947505
0.00094376
0.000939987
0.000936226
0.000932512
0.000928874
0.000925353
0.000922081
0.000919434
0.000918077
0.000918727
0.000921751
0.000926824
0.000933037
0.000939612
0.000946188
0.000952906
0.000960267
0.000968923
0.000979484
0.000992397
0.00100791
0.00102604
0.00104668
0.00106954
0.00109428
0.00112048
0.00114771
0.00117553
0.00120348
0.00123113
0.00125804
0.0012838
0.00130801
0.00133034
0.00135054
0.00136841
0.0013839
0.00139702
0.00140789
0.0014167
0.00142366
0.00142901
0.00143302
0.00143591
0.00143792
0.00143926
0.00144014
0.00144076
0.00144134
0.00144218
0.00144363
0.00144607
0.0014499
0.0014553
0.00146227
0.0014705
0.00147951
0.00148877
0.00149775
0.00150587
0.00151237
0.00151618
0.001516
0.00151043
0.00149831
0.00147894
0.00145224
0.00141878
0.00137978
0.00133695
0.00129236
0.00124813
0.00120613
0.0011678
0.00113398
0.00110496
0.00108061
0.00106058
0.00104439
0.00103151
0.0010214
0.00101355
0.00100747
0.00100278
0.000999169
0.000996388
0.000994249
0.000992609
0.000991353
0.000990395
0.000989665
0.000989109
0.000988687
0.000988366
0.000988122
0.000987936
0.000987794
0.000987688
0.000987574
0.000975926
0.000973528
0.000971145
0.000968826
0.000966625
0.000964596
0.000962797
0.000961286
0.00096016
0.000959593
0.000959859
0.000961264
0.000964002
0.000968089
0.000973417
0.000979842
0.000987271
0.000995709
0.00100526
0.00101607
0.00102833
0.00104214
0.00105759
0.00107464
0.00109322
0.00111315
0.00113423
0.0011562
0.00117876
0.00120161
0.0012244
0.0012468
0.00126847
0.00128908
0.00130834
0.00132598
0.00134183
0.00135578
0.00136781
0.00137798
0.00138638
0.00139318
0.00139855
0.00140269
0.0014058
0.00140806
0.00140965
0.00141075
0.00141154
0.00141221
0.00141301
0.00141426
0.00141633
0.00141958
0.00142426
0.00143039
0.00143772
0.00144583
0.00145424
0.00146252
0.00147023
0.00147679
0.00148133
0.00148265
0.00147941
0.00147034
0.00145456
0.00143177
0.0014023
0.00136713
0.00132778
0.00128615
0.00124427
0.00120404
0.00116694
0.00113392
0.00110537
0.00108129
0.00106138
0.00104521
0.00103229
0.00102212
0.00101417
0.00100801
0.00100325
0.000999561
0.000996714
0.000994516
0.000992821
0.000991517
0.000990514
0.000989745
0.000989154
0.000988701
0.000988353
0.000988085
0.000987878
0.000987717
0.000987596
0.000987463
0.000991869
0.000990461
0.000989094
0.000987818
0.000986685
0.000985755
0.000985085
0.000984737
0.000984771
0.000985261
0.000986307
0.000988033
0.000990583
0.000994071
0.000998571
0.00100411
0.00101071
0.00101836
0.00102707
0.00103688
0.00104782
0.00105993
0.00107321
0.00108767
0.00110325
0.00111987
0.00113741
0.0011557
0.00117455
0.00119375
0.00121303
0.00123215
0.00125081
0.00126875
0.0012857
0.00130142
0.00131574
0.00132854
0.00133976
0.0013494
0.00135753
0.00136425
0.00136969
0.001374
0.00137734
0.00137986
0.00138172
0.00138306
0.00138405
0.00138486
0.0013857
0.00138684
0.00138865
0.00139148
0.00139559
0.00140104
0.00140763
0.00141497
0.00142263
0.00143021
0.0014374
0.00144378
0.00144868
0.00145107
0.00144967
0.00144319
0.00143061
0.00141142
0.00138572
0.00135424
0.0013183
0.00127961
0.00124013
0.0012017
0.00116587
0.00113367
0.00110564
0.00108183
0.00106205
0.00104592
0.00103297
0.00102273
0.00101472
0.00100848
0.00100364
0.000999894
0.000996987
0.000994734
0.000992989
0.000991639
0.000990595
0.000989789
0.000989165
0.000988683
0.000988308
0.000988017
0.00098779
0.000987612
0.000987476
0.000987324
0.00100004
0.000999276
0.000998567
0.000997959
0.000997501
0.000997245
0.000997246
0.000997561
0.000998243
0.000999348
0.00100093
0.00100305
0.0010058
0.00100923
0.00101343
0.00101845
0.00102433
0.0010311
0.00103878
0.0010474
0.00105696
0.00106749
0.00107896
0.00109138
0.00110471
0.00111889
0.00113386
0.00114949
0.00116566
0.0011822
0.00119891
0.0012156
0.00123203
0.00124796
0.00126316
0.00127742
0.00129057
0.00130248
0.00131307
0.00132232
0.00133026
0.00133694
0.00134247
0.00134696
0.00135053
0.00135331
0.00135544
0.00135704
0.00135825
0.00135922
0.00136014
0.00136127
0.00136291
0.00136543
0.0013691
0.00137402
0.00138002
0.00138674
0.00139376
0.00140072
0.00140736
0.00141341
0.00141839
0.00142145
0.00142143
0.00141707
0.00140726
0.00139131
0.0013691
0.00134113
0.00130849
0.00127271
0.00123562
0.00119904
0.00116452
0.0011332
0.0011057
0.0010822
0.00106256
0.00104648
0.00103352
0.00102324
0.00101516
0.00100886
0.00100396
0.00100015
0.000997193
0.000994891
0.000993102
0.000991712
0.000990631
0.000989791
0.000989138
0.000988629
0.000988231
0.000987919
0.000987673
0.000987478
0.000987329
0.000987159
0.00100386
0.00100345
0.00100312
0.00100288
0.0010028
0.0010029
0.00100324
0.00100387
0.00100483
0.00100618
0.00100796
0.00101022
0.001013
0.00101636
0.00102033
0.00102496
0.00103029
0.00103636
0.00104318
0.00105079
0.0010592
0.00106842
0.00107844
0.00108927
0.00110088
0.00111324
0.00112629
0.00113995
0.00115412
0.00116868
0.00118348
0.00119833
0.00121305
0.00122743
0.00124127
0.00125439
0.00126661
0.0012778
0.00128789
0.00129683
0.00130462
0.00131129
0.00131691
0.00132157
0.00132536
0.00132839
0.00133078
0.00133263
0.00133407
0.00133523
0.00133627
0.00133742
0.00133898
0.00134128
0.00134462
0.00134913
0.00135467
0.00136091
0.00136742
0.00137385
0.00137998
0.00138564
0.00139049
0.0013939
0.00139486
0.00139217
0.00138468
0.00137157
0.00135253
0.00132784
0.00129835
0.00126542
0.00123072
0.00119601
0.00116286
0.00113246
0.00110553
0.00108236
0.0010629
0.00104688
0.00103393
0.00102361
0.00101549
0.00100913
0.00100418
0.00100032
0.00099732
0.000994978
0.000993152
0.000991727
0.000990615
0.000989747
0.000989068