/*--------------------------------*- C++ -*----------------------------------*\
  =========                 |
  \\      /  F ield         | OpenFOAM: The Open Source CFD Toolbox
   \\    /   O peration     | Website:  https://openfoam.org
    \\  /    A nd           | Version:  10
     \\/     M anipulation  |
\*---------------------------------------------------------------------------*/
FoamFile
{
    format      ascii;
    class       volVectorField;
    location    "0.05";
    object      U;
}
// * * * * * * * * * * * * * * * * * * * * * * * * * * * * * * * * * * * * * //

dimensions      [0 1 -1 0 0 0 0];

internalField   nonuniform List<vector> 
6820
(
(7.33663 -0.25471 0)
(7.37112 -0.152744 0)
(7.32903 -0.0594724 0)
(7.25219 -0.0117251 0)
(7.17484 0.0079591 0)
(7.10502 0.0139591 0)
(7.04402 0.0144434 0)
(6.99124 0.0130631 0)
(6.94521 0.0113096 0)
(6.90453 0.00973097 0)
(6.86812 0.00846784 0)
(6.83516 0.00750808 0)
(6.80505 0.00679612 0)
(6.7773 0.00627361 0)
(6.75156 0.00589214 0)
(6.72755 0.00561552 0)
(6.70502 0.0054183 0)
(6.68379 0.0052836 0)
(6.66366 0.00520144 0)
(6.64448 0.00516732 0)
(6.62607 0.0051815 0)
(6.60828 0.00524893 0)
(6.59091 0.00537979 0)
(6.57377 0.00559127 0)
(6.55662 0.00591002 0)
(6.53914 0.00638029 0)
(6.5209 0.00707722 0)
(6.50141 0.00809061 0)
(6.47937 0.00992719 0)
(6.45428 0.011772 0)
(6.42084 0.020278 0)
(6.37571 0.0217626 0)
(6.31186 0.0347296 0)
(7.32387 0.121386 0)
(7.3044 0.123273 0)
(7.30895 0.0779628 0)
(7.32918 0.0527793 0)
(7.34727 0.0391748 0)
(7.35533 0.0313643 0)
(7.35435 0.0269067 0)
(7.34726 0.0241558 0)
(7.33632 0.0222546 0)
(7.32313 0.0208124 0)
(7.30872 0.0196347 0)
(7.29377 0.0186223 0)
(7.27868 0.0177261 0)
(7.26368 0.0169216 0)
(7.24891 0.0161961 0)
(7.23447 0.0155431 0)
(7.22037 0.0149599 0)
(7.20663 0.0144463 0)
(7.19324 0.0140046 0)
(7.18019 0.0136398 0)
(7.16745 0.0133602 0)
(7.15497 0.0131783 0)
(7.14273 0.0131127 0)
(7.13064 0.0131913 0)
(7.11866 0.013454 0)
(7.10671 0.01397 0)
(7.09471 0.0148213 0)
(7.08249 0.016245 0)
(7.07044 0.0183541 0)
(7.05736 0.0222506 0)
(7.04782 0.0279426 0)
(7.03598 0.0399008 0)
(7.04579 0.0610845 0)
(7.32565 -0.0437924 0)
(7.32324 -0.051734 0)
(7.33517 -0.0262048 0)
(7.34301 -0.00272818 0)
(7.34795 0.010416 0)
(7.35214 0.0168616 0)
(7.35516 0.0199282 0)
(7.35672 0.0212105 0)
(7.35678 0.0215512 0)
(7.3555 0.0214246 0)
(7.35308 0.0210788 0)
(7.34976 0.020642 0)
(7.34575 0.0201822 0)
(7.34119 0.0197345 0)
(7.33621 0.0193172 0)
(7.33093 0.0189406 0)
(7.3254 0.0186114 0)
(7.31968 0.0183359 0)
(7.31381 0.0181216 0)
(7.30779 0.0179781 0)
(7.30164 0.0179187 0)
(7.29533 0.0179618 0)
(7.28886 0.0181323 0)
(7.28216 0.0184656 0)
(7.27519 0.0190116 0)
(7.26785 0.01984 0)
(7.26006 0.0210652 0)
(7.25163 0.0228075 0)
(7.24256 0.0254448 0)
(7.23235 0.0288693 0)
(7.22185 0.0349113 0)
(7.20952 0.0406533 0)
(7.19891 0.0527041 0)
(7.33338 0.0117879 0)
(7.33035 0.0329143 0)
(7.32955 0.0333423 0)
(7.33256 0.0276306 0)
(7.33799 0.0242389 0)
(7.34352 0.0227596 0)
(7.34815 0.0221953 0)
(7.35184 0.0219671 0)
(7.35467 0.0218196 0)
(7.3567 0.0216719 0)
(7.35803 0.0215005 0)
(7.35874 0.0213016 0)
(7.35892 0.0210818 0)
(7.35864 0.0208514 0)
(7.35797 0.0206222 0)
(7.35695 0.0204059 0)
(7.35563 0.0202152 0)
(7.35404 0.0200631 0)
(7.3522 0.0199648 0)
(7.35012 0.0199378 0)
(7.3478 0.0200038 0)
(7.34524 0.02019 0)
(7.3424 0.0205323 0)
(7.33926 0.0210782 0)
(7.33576 0.0218927 0)
(7.33185 0.0230648 0)
(7.32745 0.0247249 0)
(7.32245 0.0270419 0)
(7.31685 0.0303182 0)
(7.31041 0.0347908 0)
(7.30361 0.0413359 0)
(7.29602 0.0496514 0)
(7.28929 0.0624377 0)
(7.33122 -0.00352254 0)
(7.33003 -0.00432977 0)
(7.33359 0.00126764 0)
(7.33718 0.00871345 0)
(7.34047 0.014075 0)
(7.34376 0.0170769 0)
(7.34693 0.0187122 0)
(7.34994 0.019625 0)
(7.35271 0.0201212 0)
(7.35519 0.0203731 0)
(7.35735 0.0204785 0)
(7.35921 0.0204935 0)
(7.36076 0.0204542 0)
(7.36203 0.0203865 0)
(7.36303 0.0203099 0)
(7.36379 0.020241 0)
(7.36432 0.0201952 0)
(7.36461 0.0201887 0)
(7.36469 0.0202392 0)
(7.36455 0.0203678 0)
(7.36419 0.0206002 0)
(7.36358 0.0209685 0)
(7.36271 0.0215144 0)
(7.36156 0.0222921 0)
(7.36008 0.023374 0)
(7.35823 0.0248556 0)
(7.35596 0.0268725 0)
(7.35323 0.0295884 0)
(7.35005 0.03328 0)
(7.34634 0.0381511 0)
(7.34241 0.044828 0)
(7.33823 0.0531602 0)
(7.33459 0.0644719 0)
(7.33264 0.00208252 0)
(7.33223 0.00990503 0)
(7.33392 0.0140997 0)
(7.33643 0.015969 0)
(7.33942 0.0170728 0)
(7.34262 0.0178434 0)
(7.34568 0.018449 0)
(7.34855 0.0189104 0)
(7.35123 0.019228 0)
(7.35372 0.0194328 0)
(7.35603 0.0195571 0)
(7.35817 0.0196248 0)
(7.36013 0.0196551 0)
(7.36193 0.019665 0)
(7.36357 0.0196694 0)
(7.36504 0.0196835 0)
(7.36635 0.0197226 0)
(7.3675 0.0198041 0)
(7.36849 0.0199478 0)
(7.3693 0.0201775 0)
(7.36992 0.0205221 0)
(7.37035 0.0210178 0)
(7.37057 0.0217106 0)
(7.37054 0.0226593 0)
(7.37026 0.0239406 0)
(7.36968 0.0256531 0)
(7.3688 0.0279296 0)
(7.36761 0.03093 0)
(7.36613 0.0348892 0)
(7.36442 0.0400162 0)
(7.3627 0.0467304 0)
(7.36112 0.0550987 0)
(7.3602 0.0658021 0)
(7.33258 0.000832252 0)
(7.33242 0.00451918 0)
(7.33427 0.00806874 0)
(7.33687 0.0112662 0)
(7.33966 0.0138454 0)
(7.3425 0.0156125 0)
(7.34522 0.0167589 0)
(7.34781 0.0175002 0)
(7.35029 0.017973 0)
(7.35265 0.0182728 0)
(7.3549 0.0184622 0)
(7.35705 0.0185807 0)
(7.3591 0.0186559 0)
(7.36105 0.0187092 0)
(7.3629 0.0187584 0)
(7.36465 0.0188203 0)
(7.36629 0.0189119 0)
(7.36782 0.0190519 0)
(7.36923 0.0192616 0)
(7.37052 0.0195665 0)
(7.37167 0.0199975 0)
(7.37267 0.0205929 0)
(7.37351 0.0214005 0)
(7.37417 0.0224808 0)
(7.37465 0.0239104 0)
(7.37493 0.0257854 0)
(7.37502 0.0282296 0)
(7.37494 0.0313892 0)
(7.37475 0.0354588 0)
(7.37455 0.0406224 0)
(7.37453 0.0471657 0)
(7.37492 0.0552022 0)
(7.3761 0.0650646 0)
(7.33284 0.00133538 0)
(7.33301 0.00535761 0)
(7.33457 0.0089089 0)
(7.3368 0.0115906 0)
(7.33929 0.0135576 0)
(7.34191 0.0149124 0)
(7.34451 0.0158418 0)
(7.347 0.0164878 0)
(7.34939 0.0169286 0)
(7.35168 0.0172235 0)
(7.35388 0.017419 0)
(7.35601 0.0175488 0)
(7.35806 0.0176381 0)
(7.36004 0.0177078 0)
(7.36195 0.0177762 0)
(7.3638 0.0178606 0)
(7.36558 0.0179788 0)
(7.36728 0.0181505 0)
(7.36891 0.018398 0)
(7.37044 0.0187478 0)
(7.37189 0.019232 0)
(7.37323 0.0198898 0)
(7.37447 0.0207692 0)
(7.37559 0.0219297 0)
(7.3766 0.0234452 0)
(7.37751 0.0254055 0)
(7.37833 0.0279217 0)
(7.37912 0.0311217 0)
(7.37995 0.0351626 0)
(7.38094 0.0401962 0)
(7.38228 0.0464161 0)
(7.38423 0.053928 0)
(7.38707 0.0628859 0)
(7.33291 0.00133422 0)
(7.3332 0.00467816 0)
(7.3346 0.00771327 0)
(7.33664 0.0101728 0)
(7.33895 0.0121242 0)
(7.3414 0.0135667 0)
(7.34385 0.01459 0)
(7.34623 0.015305 0)
(7.34853 0.0157933 0)
(7.35076 0.0161205 0)
(7.35292 0.0163376 0)
(7.35501 0.0164819 0)
(7.35704 0.0165816 0)
(7.35903 0.0166594 0)
(7.36096 0.0167353 0)
(7.36285 0.016828 0)
(7.36469 0.0169566 0)
(7.36649 0.0171416 0)
(7.36823 0.0174063 0)
(7.36992 0.0177777 0)
(7.37155 0.0182882 0)
(7.37313 0.0189765 0)
(7.37464 0.0198894 0)
(7.37611 0.0210835 0)
(7.37753 0.0226271 0)
(7.37893 0.0246012 0)
(7.38035 0.0271017 0)
(7.38184 0.0302356 0)
(7.38351 0.0341252 0)
(7.38548 0.0388873 0)
(7.38793 0.0446483 0)
(7.3911 0.0514833 0)
(7.39524 0.0594443 0)
(7.33297 0.00131056 0)
(7.33335 0.00432167 0)
(7.33461 0.00711157 0)
(7.33645 0.00940222 0)
(7.33856 0.0112135 0)
(7.34083 0.012564 0)
(7.34314 0.0135355 0)
(7.34542 0.014226 0)
(7.34765 0.0147074 0)
(7.34983 0.0150358 0)
(7.35195 0.0152562 0)
(7.35402 0.0154031 0)
(7.35604 0.0155037 0)
(7.35802 0.015581 0)
(7.35997 0.0156554 0)
(7.36189 0.0157463 0)
(7.36377 0.0158733 0)
(7.36563 0.0160575 0)
(7.36746 0.0163223 0)
(7.36926 0.0166948 0)
(7.37104 0.0172066 0)
(7.37279 0.0178951 0)
(7.37453 0.0188043 0)
(7.37628 0.0199863 0)
(7.37804 0.0215022 0)
(7.37986 0.0234221 0)
(7.38178 0.0258257 0)
(7.38387 0.0287986 0)
(7.38624 0.0324319 0)
(7.38902 0.0368085 0)
(7.39236 0.042005 0)
(7.39651 0.0480613 0)
(7.40164 0.0549697 0)
(7.333 0.00124851 0)
(7.33341 0.00393725 0)
(7.33456 0.00643281 0)
(7.33622 0.00851554 0)
(7.33816 0.0101913 0)
(7.34027 0.0114766 0)
(7.34245 0.0124258 0)
(7.34463 0.0131121 0)
(7.34679 0.0135964 0)
(7.34891 0.0139288 0)
(7.35099 0.0141514 0)
(7.35304 0.0142978 0)
(7.35505 0.0143952 0)
(7.35703 0.0144667 0)
(7.35899 0.0145332 0)
(7.36093 0.0146142 0)
(7.36286 0.0147297 0)
(7.36477 0.0149009 0)
(7.36667 0.0151508 0)
(7.36857 0.0155058 0)
(7.37047 0.0159961 0)
(7.37238 0.0166564 0)
(7.37432 0.0175272 0)
(7.37631 0.0186546 0)
(7.37838 0.0200913 0)
(7.38056 0.0218957 0)
(7.38292 0.0241311 0)
(7.38552 0.0268623 0)
(7.38848 0.0301529 0)
(7.39192 0.0340559 0)
(7.39599 0.0386095 0)
(7.40088 0.0438226 0)
(7.40676 0.0496516 0)
(7.33302 0.0011645 0)
(7.33343 0.00357693 0)
(7.33448 0.00582106 0)
(7.336 0.0077231 0)
(7.33778 0.00927079 0)
(7.33975 0.0104753 0)
(7.3418 0.0113769 0)
(7.34388 0.0120348 0)
(7.34596 0.012502 0)
(7.34802 0.0128233 0)
(7.35007 0.0130367 0)
(7.35209 0.0131736 0)
(7.35409 0.0132601 0)
(7.35607 0.0133185 0)
(7.35804 0.0133694 0)
(7.36 0.0134321 0)
(7.36196 0.0135263 0)
(7.36392 0.0136725 0)
(7.36589 0.0138931 0)
(7.36788 0.0142128 0)
(7.3699 0.0146595 0)
(7.37196 0.0152649 0)
(7.37408 0.0160644 0)
(7.37629 0.0170978 0)
(7.37862 0.0184086 0)
(7.38113 0.020043 0)
(7.38386 0.0220488 0)
(7.38691 0.0244716 0)
(7.39036 0.0273514 0)
(7.39433 0.0307158 0)
(7.39896 0.0345744 0)
(7.40442 0.0389111 0)
(7.41082 0.0436615 0)
(7.33303 0.00106994 0)
(7.33343 0.00323269 0)
(7.3344 0.00524221 0)
(7.33578 0.00696415 0)
(7.33743 0.00837864 0)
(7.33926 0.00949381 0)
(7.34119 0.0103395 0)
(7.34318 0.0109619 0)
(7.34518 0.0114055 0)
(7.34719 0.0117091 0)
(7.34919 0.0119069 0)
(7.35118 0.0120279 0)
(7.35316 0.0120968 0)
(7.35514 0.0121352 0)
(7.35712 0.0121629 0)
(7.3591 0.0121988 0)
(7.36109 0.0122616 0)
(7.3631 0.012371 0)
(7.36513 0.0125477 0)
(7.3672 0.0128145 0)
(7.36933 0.0131966 0)
(7.37152 0.0137215 0)
(7.37381 0.0144194 0)
(7.37622 0.0153228 0)
(7.3788 0.0164661 0)
(7.38158 0.017884 0)
(7.38464 0.0196094 0)
(7.38805 0.0216712 0)
(7.39189 0.0240896 0)
(7.39628 0.0268717 0)
(7.40133 0.030006 0)
(7.40719 0.0334584 0)
(7.41394 0.0371537 0)
(7.33303 0.000971171 0)
(7.33342 0.00290447 0)
(7.33431 0.00469759 0)
(7.33557 0.00624748 0)
(7.3371 0.00753083 0)
(7.33881 0.00855189 0)
(7.34063 0.00933257 0)
(7.34253 0.00990892 0)
(7.34446 0.0103182 0)
(7.3464 0.0105942 0)
(7.34836 0.0107675 0)
(7.35032 0.0108644 0)
(7.35228 0.010908 0)
(7.35425 0.0109186 0)
(7.35624 0.0109149 0)
(7.35823 0.0109148 0)
(7.36025 0.0109359 0)
(7.3623 0.0109962 0)
(7.3644 0.0111148 0)
(7.36655 0.0113118 0)
(7.36877 0.011609 0)
(7.37108 0.0120295 0)
(7.37352 0.0125979 0)
(7.37611 0.0133395 0)
(7.37888 0.0142797 0)
(7.38191 0.0154421 0)
(7.38523 0.0168471 0)
(7.38893 0.0185086 0)
(7.39308 0.0204311 0)
(7.39778 0.0226061 0)
(7.40312 0.0250069 0)
(7.40923 0.0275874 0)
(7.41616 0.0302687 0)
(7.33303 0.000872005 0)
(7.3334 0.00259129 0)
(7.33422 0.00418239 0)
(7.33539 0.00556579 0)
(7.3368 0.0067178 0)
(7.3384 0.00763962 0)
(7.34013 0.0083474 0)
(7.34193 0.00886921 0)
(7.34379 0.00923584 0)
(7.34568 0.00947638 0)
(7.34759 0.00961753 0)
(7.34952 0.00968307 0)
(7.35146 0.009694 0)
(7.35342 0.00966918 0)
(7.3554 0.00962597 0)
(7.35741 0.00958082 0)
(7.35945 0.00954987 0)
(7.36154 0.00954934 0)
(7.36368 0.00959591 0)
(7.3659 0.0097069 0)
(7.36821 0.00990035 0)
(7.37063 0.0101948 0)
(7.37319 0.0106092 0)
(7.37592 0.0111617 0)
(7.37887 0.0118693 0)
(7.38208 0.0127458 0)
(7.38561 0.0138004 0)
(7.38952 0.0150352 0)
(7.39389 0.0164424 0)
(7.39879 0.0180016 0)
(7.40431 0.0196763 0)
(7.41054 0.0214135 0)
(7.41751 0.0231351 0)
(7.33303 0.000774532 0)
(7.33338 0.00229219 0)
(7.33414 0.00369332 0)
(7.33521 0.00491583 0)
(7.33653 0.00593729 0)
(7.33803 0.0067565 0)
(7.33967 0.0073851 0)
(7.34139 0.00784481 0)
(7.34318 0.00816084 0)
(7.34501 0.00835791 0)
(7.34688 0.00845921 0)
(7.34877 0.00848581 0)
(7.35069 0.00845662 0)
(7.35263 0.00838871 0)
(7.35461 0.0082978 0)
(7.35663 0.00819871 0)
(7.35869 0.00810573 0)
(7.3608 0.00803297 0)
(7.36299 0.00799455 0)
(7.36526 0.00800467 0)
(7.36763 0.00807754 0)
(7.37014 0.00822711 0)
(7.3728 0.00846659 0)
(7.37565 0.00880774 0)
(7.37873 0.00925979 0)
(7.38208 0.00982818 0)
(7.38575 0.0105128 0)
(7.38981 0.0113063 0)
(7.39431 0.0121916 0)
(7.39932 0.0131404 0)
(7.4049 0.0141103 0)
(7.41114 0.0150453 0)
(7.41804 0.0158711 0)
(7.33303 0.0006798 0)
(7.33336 0.00200614 0)
(7.33406 0.00322728 0)
(7.33506 0.00429386 0)
(7.33629 0.00518549 0)
(7.3377 0.0058992 0)
(7.33925 0.00644314 0)
(7.3409 0.00683403 0)
(7.34262 0.00709226 0)
(7.3444 0.0072386 0)
(7.34622 0.00729288 0)
(7.34807 0.00727349 0)
(7.34997 0.00719706 0)
(7.35189 0.00707872 0)
(7.35386 0.00693233 0)
(7.35588 0.00677084 0)
(7.35795 0.00660649 0)
(7.36009 0.00645107 0)
(7.3623 0.00631596 0)
(7.36461 0.00621213 0)
(7.36704 0.00614996 0)
(7.36961 0.0061389 0)
(7.37234 0.00618693 0)
(7.37527 0.00629985 0)
(7.37844 0.00648026 0)
(7.38188 0.00672646 0)
(7.38564 0.00703102 0)
(7.38977 0.00737932 0)
(7.39433 0.00774796 0)
(7.39936 0.00810361 0)
(7.40491 0.00840098 0)
(7.41105 0.00858408 0)
(7.41777 0.00858458 0)
(7.33303 0.00058823 0)
(7.33333 0.00173205 0)
(7.33399 0.00278152 0)
(7.33492 0.00369668 0)
(7.33608 0.00445933 0)
(7.33741 0.00506534 0)
(7.33888 0.00552012 0)
(7.34046 0.00583637 0)
(7.34211 0.00603039 0)
(7.34383 0.00611931 0)
(7.34561 0.00611989 0)
(7.34743 0.00604781 0)
(7.34929 0.00591741 0)
(7.3512 0.00574172 0)
(7.35315 0.00553261 0)
(7.35516 0.00530097 0)
(7.35723 0.00505683 0)
(7.35938 0.00480954 0)
(7.36161 0.00456767 0)
(7.36395 0.00433898 0)
(7.36641 0.00413013 0)
(7.36901 0.00394636 0)
(7.37179 0.00379091 0)
(7.37477 0.00366434 0)
(7.37798 0.00356369 0)
(7.38146 0.0034815 0)
(7.38525 0.00340472 0)
(7.38939 0.00331362 0)
(7.39393 0.0031807 0)
(7.3989 0.00296993 0)
(7.40434 0.00263603 0)
(7.41029 0.0021248 0)
(7.41676 0.00137478 0)
(7.33303 0.00049988 0)
(7.33331 0.00146879 0)
(7.33392 0.0023536 0)
(7.3348 0.00312133 0)
(7.33588 0.00375591 0)
(7.33714 0.00425246 0)
(7.33854 0.00461426 0)
(7.34005 0.00485077 0)
(7.34165 0.00497481 0)
(7.34332 0.00500029 0)
(7.34504 0.00494102 0)
(7.34682 0.0048101 0)
(7.34866 0.00461954 0)
(7.35054 0.00438021 0)
(7.35247 0.00410186 0)
(7.35447 0.00379322 0)
(7.35653 0.00346207 0)
(7.35868 0.00311522 0)
(7.36091 0.00275849 0)
(7.36326 0.00239652 0)
(7.36573 0.00203249 0)
(7.36835 0.00166781 0)
(7.37114 0.00130155 0)
(7.37412 0.00092986 0)
(7.37734 0.000545263 0)
(7.38081 0.000135879 0)
(7.38458 -0.000315385 0)
(7.38867 -0.000831573 0)
(7.39311 -0.00144238 0)
(7.39795 -0.0021845 0)
(7.40321 -0.00310184 0)
(7.4089 -0.00424519 0)
(7.41504 -0.00566853 0)
(7.33302 0.000414612 0)
(7.33329 0.00121526 0)
(7.33387 0.00194136 0)
(7.33469 0.00256521 0)
(7.33571 0.00307264 0)
(7.3369 0.00345841 0)
(7.33824 0.00372413 0)
(7.33969 0.00387664 0)
(7.34122 0.00392579 0)
(7.34284 0.00388258 0)
(7.34452 0.00375813 0)
(7.34626 0.00356303 0)
(7.34806 0.00330697 0)
(7.34991 0.00299861 0)
(7.35182 0.00264556 0)
(7.3538 0.00225436 0)
(7.35584 0.00183048 0)
(7.35797 0.00137826 0)
(7.3602 0.000900838 0)
(7.36253 0.000399937 0)
(7.36499 -0.000124401 0)
(7.36759 -0.000674162 0)
(7.37036 -0.0012538 0)
(7.37333 -0.00187076 0)
(7.3765 -0.002536 0)
(7.37992 -0.0032646 0)
(7.38361 -0.0040763 0)
(7.38759 -0.00499597 0)
(7.39189 -0.00605398 0)
(7.39654 -0.00728612 0)
(7.40154 -0.00873406 0)
(7.40692 -0.0104442 0)
(7.41267 -0.0124628 0)
(7.33302 0.000332186 0)
(7.33328 0.000970409 0)
(7.33381 0.00154285 0)
(7.33459 0.00202589 0)
(7.33556 0.00240705 0)
(7.33669 0.00268092 0)
(7.33796 0.00284783 0)
(7.33935 0.00291253 0)
(7.34084 0.00288234 0)
(7.3424 0.0027657 0)
(7.34404 0.00257123 0)
(7.34573 0.00230714 0)
(7.34749 0.00198087 0)
(7.34931 0.00159893 0)
(7.35119 0.00116675 0)
(7.35313 0.000688694 0)
(7.35515 0.000167969 0)
(7.35725 -0.000393445 0)
(7.35945 -0.000994931 0)
(7.36175 -0.00163743 0)
(7.36418 -0.00232368 0)
(7.36674 -0.00305855 0)
(7.36947 -0.00384937 0)
(7.37237 -0.00470638 0)
(7.37547 -0.00564308 0)
(7.37879 -0.00667666 0)
(7.38235 -0.00782837 0)
(7.38618 -0.00912366 0)
(7.39028 -0.0105924 0)
(7.39467 -0.0122687 0)
(7.39937 -0.0141906 0)
(7.40439 -0.0163999 0)
(7.4097 -0.0189356 0)
(7.33302 0.00025233 0)
(7.33326 0.000733255 0)
(7.33377 0.00115641 0)
(7.3345 0.00150145 0)
(7.33542 0.00175736 0)
(7.3365 0.00191884 0)
(7.33771 0.00198524 0)
(7.33905 0.00195955 0)
(7.34048 0.00184696 0)
(7.342 0.0016536 0)
(7.34358 0.00138575 0)
(7.34524 0.00104938 0)
(7.34695 0.000649757 0)
(7.34873 0.000191224 0)
(7.35057 -0.000322865 0)
(7.35247 -0.000890264 0)
(7.35445 -0.00150992 0)
(7.35651 -0.00218207 0)
(7.35866 -0.00290837 0)
(7.36092 -0.00369212 0)
(7.36329 -0.00453844 0)
(7.36579 -0.00545452 0)
(7.36844 -0.00644997 0)
(7.37124 -0.00753704 0)
(7.37423 -0.00873093 0)
(7.37742 -0.01005 0)
(7.38081 -0.011516 0)
(7.38443 -0.0131541 0)
(7.38829 -0.0149928 0)
(7.39239 -0.0170636 0)
(7.39674 -0.0194009 0)
(7.40135 -0.0220413 0)
(7.40619 -0.0250175 0)
(7.33302 0.000174762 0)
(7.33325 0.000502847 0)
(7.33373 0.000780342 0)
(7.33442 0.000989448 0)
(7.33529 0.00112044 0)
(7.33632 0.00116818 0)
(7.33749 0.00113148 0)
(7.33877 0.00101203 0)
(7.34015 0.000813195 0)
(7.34162 0.000539151 0)
(7.34316 0.000194224 0)
(7.34477 -0.000217775 0)
(7.34644 -0.000693647 0)
(7.34817 -0.00123108 0)
(7.34996 -0.00182875 0)
(7.35182 -0.00248642 0)
(7.35375 -0.00320508 0)
(7.35575 -0.00398701 0)
(7.35784 -0.00483592 0)
(7.36003 -0.00575712 0)
(7.36232 -0.00675771 0)
(7.36473 -0.00784676 0)
(7.36727 -0.0090355 0)
(7.36996 -0.0103376 0)
(7.3728 -0.0117691 0)
(7.37581 -0.0133489 0)
(7.379 -0.0150985 0)
(7.38238 -0.0170419 0)
(7.38595 -0.0192057 0)
(7.38972 -0.0216185 0)
(7.3937 -0.0243108 0)
(7.39786 -0.0273142 0)
(7.40221 -0.0306551 0)
(7.33302 9.92486e-05 0)
(7.33323 0.000278598 0)
(7.33369 0.000414069 0)
(7.33435 0.000490141 0)
(7.33518 0.000498361 0)
(7.33616 0.000434055 0)
(7.33728 0.000295288 0)
(7.33852 8.2585e-05 0)
(7.33985 -0.000202244 0)
(7.34127 -0.000556932 0)
(7.34276 -0.00097912 0)
(7.34432 -0.00146697 0)
(7.34594 -0.00201923 0)
(7.34762 -0.00263547 0)
(7.34936 -0.00331625 0)
(7.35116 -0.00406318 0)
(7.35303 -0.00487904 0)
(7.35496 -0.00576788 0)
(7.35698 -0.00673516 0)
(7.35908 -0.00778781 0)
(7.36127 -0.00893448 0)
(7.36357 -0.0101856 0)
(7.36598 -0.0115534 0)
(7.36852 -0.0130524 0)
(7.37118 -0.014699 0)
(7.37399 -0.0165119 0)
(7.37694 -0.0185116 0)
(7.38004 -0.0207206 0)
(7.3833 -0.0231633 0)
(7.38671 -0.025865 0)
(7.39028 -0.0288523 0)
(7.39398 -0.0321521 0)
(7.39782 -0.0357853 0)
(7.33302 2.54854e-05 0)
(7.33322 5.91204e-05 0)
(7.33366 5.39853e-05 0)
(7.33428 -3.92939e-06 0)
(7.33508 -0.000121827 0)
(7.33602 -0.000303488 0)
(7.3371 -0.000550568 0)
(7.33829 -0.000862919 0)
(7.33958 -0.00123967 0)
(7.34095 -0.00167992 0)
(7.34239 -0.00218309 0)
(7.3439 -0.00274906 0)
(7.34546 -0.00337845 0)
(7.34709 -0.00407276 0)
(7.34876 -0.00483438 0)
(7.3505 -0.00566673 0)
(7.35229 -0.00657432 0)
(7.35415 -0.00756284 0)
(7.35607 -0.00863926 0)
(7.35807 -0.00981193 0)
(7.36015 -0.0110907 0)
(7.36231 -0.0124868 0)
(7.36457 -0.0140134 0)
(7.36693 -0.0156851 0)
(7.36939 -0.0175181 0)
(7.37197 -0.0195305 0)
(7.37465 -0.0217416 0)
(7.37746 -0.0241721 0)
(7.38038 -0.0268436 0)
(7.38341 -0.0297784 0)
(7.38654 -0.032999 0)
(7.38977 -0.0365284 0)
(7.39308 -0.0403821 0)
(7.33302 -4.63726e-05 0)
(7.33321 -0.000153495 0)
(7.33362 -0.00029256 0)
(7.33422 -0.000475775 0)
(7.33498 -0.000709356 0)
(7.33588 -0.000997242 0)
(7.33692 -0.00134168 0)
(7.33807 -0.00174386 0)
(7.33931 -0.00220443 0)
(7.34064 -0.00272396 0)
(7.34203 -0.00330334 0)
(7.34349 -0.00394398 0)
(7.345 -0.00464799 0)
(7.34657 -0.00541828 0)
(7.34818 -0.00625867 0)
(7.34984 -0.00717391 0)
(7.35155 -0.0081698 0)
(7.35332 -0.00925324 0)
(7.35514 -0.0104323 0)
(7.35702 -0.0117162 0)
(7.35896 -0.0131155 0)
(7.36097 -0.0146422 0)
(7.36306 -0.0163093 0)
(7.36522 -0.0181314 0)
(7.36746 -0.0201243 0)
(7.36978 -0.0223048 0)
(7.37218 -0.0246908 0)
(7.37466 -0.0273009 0)
(7.37722 -0.0301542 0)
(7.37985 -0.0332697 0)
(7.38255 -0.0366666 0)
(7.3853 -0.0403637 0)
(7.38808 -0.0443724 0)
(7.33302 -0.000117477 0)
(7.3332 -0.00036819 0)
(7.3336 -0.000651967 0)
(7.33417 -0.000979562 0)
(7.3349 -0.00135344 0)
(7.33578 -0.00177354 0)
(7.33678 -0.00223954 0)
(7.33789 -0.00275158 0)
(7.33908 -0.00331055 0)
(7.34036 -0.00391831 0)
(7.34171 -0.00457754 0)
(7.34311 -0.00529172 0)
(7.34456 -0.00606508 0)
(7.34606 -0.00690258 0)
(7.3476 -0.00780993 0)
(7.34918 -0.00879362 0)
(7.3508 -0.00986099 0)
(7.35246 -0.0110202 0)
(7.35416 -0.0122805 0)
(7.35591 -0.0136519 0)
(7.35771 -0.0151456 0)
(7.35955 -0.0167737 0)
(7.36144 -0.0185493 0)
(7.36339 -0.0204866 0)
(7.36539 -0.0226003 0)
(7.36744 -0.0249061 0)
(7.36954 -0.0274203 0)
(7.37169 -0.0301591 0)
(7.37387 -0.0331392 0)
(7.3761 -0.0363768 0)
(7.37835 -0.0398875 0)
(7.38061 -0.0436865 0)
(7.38288 -0.0477819 0)
(7.33301 -0.000183681 0)
(7.33318 -0.000555707 0)
(7.33355 -0.000946036 0)
(7.33409 -0.00136766 0)
(7.33479 -0.00182691 0)
(7.33563 -0.0023275 0)
(7.3366 -0.00287165 0)
(7.33768 -0.00346067 0)
(7.33885 -0.00409586 0)
(7.34009 -0.00477915 0)
(7.34139 -0.00551328 0)
(7.34275 -0.00630187 0)
(7.34414 -0.00714942 0)
(7.34558 -0.00806129 0)
(7.34705 -0.00904371 0)
(7.34854 -0.0101037 0)
(7.35007 -0.0112493 0)
(7.35162 -0.0124891 0)
(7.35319 -0.0138327 0)
(7.3548 -0.0152905 0)
(7.35643 -0.0168739 0)
(7.3581 -0.0185947 0)
(7.35978 -0.0204658 0)
(7.3615 -0.0225005 0)
(7.36325 -0.0247128 0)
(7.36501 -0.0271168 0)
(7.3668 -0.0297271 0)
(7.3686 -0.032558 0)
(7.37041 -0.0356237 0)
(7.37223 -0.0389377 0)
(7.37403 -0.0425128 0)
(7.37581 -0.0463611 0)
(7.37757 -0.0504877 0)
(7.33302 -0.000259967 0)
(7.3332 -0.000808473 0)
(7.33357 -0.00140087 0)
(7.3341 -0.00203513 0)
(7.33477 -0.0026981 0)
(7.33559 -0.00337994 0)
(7.33652 -0.00407716 0)
(7.33755 -0.00479082 0)
(7.33867 -0.00552503 0)
(7.33986 -0.0062858 0)
(7.34111 -0.0070803 0)
(7.3424 -0.00791635 0)
(7.34373 -0.00880218 0)
(7.34509 -0.00974632 0)
(7.34648 -0.0107576 0)
(7.34788 -0.0118451 0)
(7.3493 -0.0130184 0)
(7.35073 -0.0142873 0)
(7.35217 -0.0156622 0)
(7.35363 -0.0171538 0)
(7.35509 -0.0187735 0)
(7.35657 -0.0205331 0)
(7.35804 -0.0224447 0)
(7.35952 -0.0245208 0)
(7.36101 -0.026774 0)
(7.36248 -0.029217 0)
(7.36396 -0.0318626 0)
(7.36541 -0.034723 0)
(7.36685 -0.0378099 0)
(7.36825 -0.0411345 0)
(7.36961 -0.0447067 0)
(7.37093 -0.048536 0)
(7.37218 -0.0526248 0)
(7.333 -0.000290692 0)
(7.33311 -0.00084173 0)
(7.3334 -0.00139573 0)
(7.33388 -0.00198927 0)
(7.33453 -0.00263487 0)
(7.33534 -0.00333189 0)
(7.33628 -0.00407498 0)
(7.33733 -0.00485862 0)
(7.33845 -0.00567958 0)
(7.33963 -0.00653742 0)
(7.34086 -0.00743409 0)
(7.34213 -0.00837358 0)
(7.34341 -0.00936148 0)
(7.34471 -0.0104046 0)
(7.34602 -0.0115108 0)
(7.34733 -0.0126887 0)
(7.34865 -0.0139476 0)
(7.34996 -0.0152973 0)
(7.35126 -0.0167482 0)
(7.35256 -0.0183112 0)
(7.35384 -0.0199974 0)
(7.35512 -0.0218182 0)
(7.35637 -0.0237853 0)
(7.35761 -0.0259105 0)
(7.35882 -0.0282054 0)
(7.36 -0.0306815 0)
(7.36115 -0.0333501 0)
(7.36226 -0.0362217 0)
(7.36331 -0.0393064 0)
(7.36431 -0.0426132 0)
(7.36525 -0.0461501 0)
(7.3661 -0.0499245 0)
(7.36687 -0.053937 0)
(7.33305 -0.000455898 0)
(7.33328 -0.0014482 0)
(7.33364 -0.00251045 0)
(7.33411 -0.00358015 0)
(7.33471 -0.00460798 0)
(7.33544 -0.00557902 0)
(7.3363 -0.00649875 0)
(7.33725 -0.00738022 0)
(7.3383 -0.00823913 0)
(7.3394 -0.00909172 0)
(7.34056 -0.0099536 0)
(7.34175 -0.0108394 0)
(7.34296 -0.0117626 0)
(7.34418 -0.0127357 0)
(7.3454 -0.0137705 0)
(7.34662 -0.014878 0)
(7.34783 -0.0160691 0)
(7.34901 -0.0173544 0)
(7.35018 -0.0187444 0)
(7.35132 -0.0202494 0)
(7.35244 -0.02188 0)
(7.35352 -0.0236467 0)
(7.35456 -0.0255597 0)
(7.35556 -0.0276294 0)
(7.35651 -0.0298658 0)
(7.35741 -0.0322787 0)
(7.35825 -0.0348772 0)
(7.35902 -0.0376699 0)
(7.35971 -0.0406647 0)
(7.36033 -0.0438684 0)
(7.36085 -0.047287 0)
(7.36127 -0.0509255 0)
(7.36158 -0.0547831 0)
(7.33293 -0.000213994 0)
(7.33282 -0.000560593 0)
(7.33297 -0.000976278 0)
(7.33341 -0.00158767 0)
(7.3341 -0.00238572 0)
(7.33498 -0.00331535 0)
(7.33597 -0.00432677 0)
(7.33705 -0.00538599 0)
(7.33818 -0.00647288 0)
(7.33935 -0.00757737 0)
(7.34054 -0.00869674 0)
(7.34173 -0.00983347 0)
(7.34291 -0.0109935 0)
(7.34408 -0.012185 0)
(7.34522 -0.0134175 0)
(7.34634 -0.0147014 0)
(7.34743 -0.0160477 0)
(7.34849 -0.0174674 0)
(7.3495 -0.0189718 0)
(7.35047 -0.0205721 0)
(7.35139 -0.0222795 0)
(7.35226 -0.0241049 0)
(7.35307 -0.0260588 0)
(7.35381 -0.0281516 0)
(7.35449 -0.0303932 0)
(7.35509 -0.0327928 0)
(7.35561 -0.0353591 0)
(7.35604 -0.0380998 0)
(7.35637 -0.0410219 0)
(7.3566 -0.0441314 0)
(7.35672 -0.0474331 0)
(7.35672 -0.0509311 0)
(7.35659 -0.054624 0)
(7.33316 -0.000903832 0)
(7.33361 -0.00299203 0)
(7.3339 -0.00505696 0)
(7.33416 -0.00684414 0)
(7.33454 -0.00830882 0)
(7.33511 -0.00951345 0)
(7.33584 -0.0105287 0)
(7.33672 -0.0114141 0)
(7.33769 -0.0122186 0)
(7.33874 -0.0129818 0)
(7.33983 -0.0137348 0)
(7.34095 -0.0145022 0)
(7.34207 -0.0153034 0)
(7.34317 -0.0161541 0)
(7.34426 -0.0170676 0)
(7.34531 -0.018055 0)
(7.34632 -0.0191268 0)
(7.34728 -0.0202921 0)
(7.34818 -0.0215598 0)
(7.34902 -0.0229386 0)
(7.3498 -0.0244366 0)
(7.3505 -0.0260618 0)
(7.35112 -0.0278219 0)
(7.35166 -0.0297245 0)
(7.3521 -0.0317766 0)
(7.35245 -0.0339848 0)
(7.3527 -0.0363552 0)
(7.35283 -0.0388931 0)
(7.35285 -0.0416033 0)
(7.35274 -0.0444893 0)
(7.3525 -0.0475541 0)
(7.35212 -0.0507998 0)
(7.3516 -0.0542237 0)
(7.33266 0.000491788 0)
(7.33188 0.00164284 0)
(7.33189 0.00215919 0)
(7.33256 0.00171973 0)
(7.33356 0.000627381 0)
(7.3347 -0.000803225 0)
(7.33589 -0.00237979 0)
(7.3371 -0.0040009 0)
(7.33831 -0.00561129 0)
(7.33949 -0.00718285 0)
(7.34064 -0.00870654 0)
(7.34175 -0.0101851 0)
(7.34282 -0.0116279 0)
(7.34384 -0.0130477 0)
(7.3448 -0.0144588 0)
(7.34571 -0.0158761 0)
(7.34656 -0.0173145 0)
(7.34734 -0.0187884 0)
(7.34805 -0.0203114 0)
(7.34868 -0.0218964 0)
(7.34923 -0.0235558 0)
(7.34969 -0.0253008 0)
(7.35007 -0.0271422 0)
(7.35034 -0.0290898 0)
(7.3505 -0.0311524 0)
(7.35056 -0.0333383 0)
(7.3505 -0.0356546 0)
(7.35031 -0.0381076 0)
(7.34999 -0.0407026 0)
(7.34953 -0.0434439 0)
(7.34893 -0.0463348 0)
(7.34817 -0.0493776 0)
(7.34726 -0.0525706 0)
(7.33352 -0.0020602 0)
(7.33438 -0.0069749 0)
(7.33396 -0.0115356 0)
(7.33323 -0.0144368 0)
(7.33299 -0.0161753 0)
(7.33326 -0.0172442 0)
(7.33389 -0.0179019 0)
(7.33475 -0.0183228 0)
(7.33576 -0.0186267 0)
(7.33687 -0.0188926 0)
(7.33801 -0.0191715 0)
(7.33917 -0.0194964 0)
(7.3403 -0.0198878 0)
(7.34139 -0.0203595 0)
(7.34243 -0.0209203 0)
(7.3434 -0.0215767 0)
(7.3443 -0.0223336 0)
(7.34511 -0.0231951 0)
(7.34583 -0.024165 0)
(7.34645 -0.0252471 0)
(7.34696 -0.0264451 0)
(7.34737 -0.0277627 0)
(7.34766 -0.0292037 0)
(7.34784 -0.0307716 0)
(7.34788 -0.03247 0)
(7.3478 -0.0343021 0)
(7.34757 -0.0362706 0)
(7.3472 -0.0383781 0)
(7.34668 -0.0406264 0)
(7.34601 -0.0430168 0)
(7.34517 -0.0455499 0)
(7.34417 -0.048226 0)
(7.34299 -0.0510413 0)
(7.3318 0.00336869 0)
(7.32903 0.00913769 0)
(7.32949 0.011705 0)
(7.33175 0.0113451 0)
(7.33377 0.00914591 0)
(7.33545 0.00633683 0)
(7.33693 0.00341301 0)
(7.33826 0.000555207 0)
(7.33944 -0.00213838 0)
(7.34053 -0.00462821 0)
(7.34153 -0.00691457 0)
(7.34245 -0.00901587 0)
(7.34331 -0.0109578 0)
(7.34412 -0.0127686 0)
(7.34486 -0.0144764 0)
(7.34554 -0.0161076 0)
(7.34615 -0.0176864 0)
(7.34668 -0.0192349 0)
(7.34715 -0.0207726 0)
(7.34752 -0.0223171 0)
(7.3478 -0.023884 0)
(7.34798 -0.0254871 0)
(7.34806 -0.0271389 0)
(7.34802 -0.0288502 0)
(7.34785 -0.0306306 0)
(7.34756 -0.0324886 0)
(7.34713 -0.0344313 0)
(7.34655 -0.0364649 0)
(7.34583 -0.0385947 0)
(7.34495 -0.0408246 0)
(7.3439 -0.0431579 0)
(7.34269 -0.045597 0)
(7.34132 -0.0481407 0)
(7.33407 -0.00616009 0)
(7.33401 -0.0190639 0)
(7.33021 -0.0272113 0)
(7.32652 -0.0308085 0)
(7.3249 -0.0316485 0)
(7.32508 -0.0313101 0)
(7.32606 -0.0304585 0)
(7.32745 -0.0294143 0)
(7.32908 -0.0283782 0)
(7.33083 -0.0274569 0)
(7.33262 -0.0266974 0)
(7.3344 -0.0261168 0)
(7.33614 -0.0257174 0)
(7.3378 -0.0254934 0)
(7.33937 -0.0254357 0)
(7.34085 -0.0255341 0)
(7.34222 -0.0257793 0)
(7.34347 -0.0261627 0)
(7.3446 -0.0266775 0)
(7.34561 -0.0273177 0)
(7.34648 -0.0280792 0)
(7.3472 -0.0289585 0)
(7.34779 -0.0299533 0)
(7.34822 -0.0310618 0)
(7.3485 -0.0322829 0)
(7.34861 -0.0336156 0)
(7.34856 -0.0350594 0)
(7.34834 -0.0366136 0)
(7.34794 -0.0382775 0)
(7.34736 -0.0400505 0)
(7.3466 -0.0419313 0)
(7.34565 -0.043919 0)
(7.34452 -0.0460094 0)
(7.32967 0.0198469 0)
(7.32497 0.0369624 0)
(7.32929 0.0376424 0)
(7.33505 0.0321965 0)
(7.33863 0.0257481 0)
(7.34071 0.0193818 0)
(7.34243 0.0134077 0)
(7.34406 0.00803303 0)
(7.34569 0.00330256 0)
(7.34737 -0.00083182 0)
(7.34912 -0.00444078 0)
(7.35094 -0.00759773 0)
(7.3528 -0.0103738 0)
(7.35468 -0.0128338 0)
(7.35656 -0.0150348 0)
(7.35841 -0.0170259 0)
(7.36023 -0.0188494 0)
(7.36197 -0.0205414 0)
(7.36364 -0.0221327 0)
(7.36522 -0.0236495 0)
(7.36668 -0.0251145 0)
(7.36803 -0.0265471 0)
(7.36925 -0.0279639 0)
(7.37033 -0.0293793 0)
(7.37126 -0.0308059 0)
(7.37205 -0.0322543 0)
(7.37267 -0.0337338 0)
(7.37314 -0.0352524 0)
(7.37344 -0.036817 0)
(7.37356 -0.0384331 0)
(7.37352 -0.0401059 0)
(7.37331 -0.0418395 0)
(7.37292 -0.0436356 0)
(7.32507 -0.0330992 0)
(7.29737 -0.058828 0)
(7.27802 -0.0618237 0)
(7.27372 -0.0595248 0)
(7.28038 -0.0561129 0)
(7.29186 -0.0521493 0)
(7.30517 -0.0482899 0)
(7.31896 -0.0448755 0)
(7.33247 -0.0419584 0)
(7.34529 -0.039523 0)
(7.35726 -0.037535 0)
(7.36833 -0.0359449 0)
(7.37851 -0.0347015 0)
(7.38783 -0.0337576 0)
(7.39634 -0.0330726 0)
(7.40411 -0.0326116 0)
(7.41119 -0.032346 0)
(7.41764 -0.0322522 0)
(7.4235 -0.0323112 0)
(7.42883 -0.0325076 0)
(7.43366 -0.0328294 0)
(7.43803 -0.0332669 0)
(7.44197 -0.0338126 0)
(7.44551 -0.0344605 0)
(7.44868 -0.0352059 0)
(7.45149 -0.0360452 0)
(7.45397 -0.0369753 0)
(7.45613 -0.0379939 0)
(7.45799 -0.039099 0)
(7.45956 -0.0402886 0)
(7.46086 -0.0415614 0)
(7.46188 -0.0429154 0)
(7.46265 -0.0443481 0)
(7.33915 0.134719 0)
(7.37618 0.127059 0)
(7.39337 0.0871603 0)
(7.38961 0.0532648 0)
(7.37459 0.0282287 0)
(7.35352 0.0104348 0)