/*--------------------------------*- C++ -*----------------------------------*\
  =========                 |
  \\      /  F ield         | OpenFOAM: The Open Source CFD Toolbox
   \\    /   O peration     | Website:  https://openfoam.org
    \\  /    A nd           | Version:  10
     \\/     M anipulation  |
\*---------------------------------------------------------------------------*/
FoamFile
{
    format      ascii;
    class       volScalarField;
    location    "300";
    object      k;
}
// * * * * * * * * * * * * * * * * * * * * * * * * * * * * * * * * * * * * * //

dimensions      [0 2 -2 0 0 0 0];

internalField   nonuniform List<scalar> 
6820
(
0.19714
0.192517
0.18828
0.184033
0.179769
0.175611
0.171677
0.168043
0.164747
0.161801
0.159195
0.156913
0.154932
0.153227
0.151772
0.150543
0.149517
0.148674
0.147994
0.147459
0.147055
0.146766
0.146581
0.146489
0.146479
0.146545
0.146669
0.146924
0.146892
0.148112
0.146744
0.147844
0.148402
0.20725
0.212378
0.210058
0.205418
0.200995
0.197552
0.195145
0.19362
0.192789
0.19249
0.192593
0.193
0.19364
0.194458
0.195412
0.196472
0.197613
0.198817
0.200069
0.201359
0.202678
0.204021
0.205385
0.206771
0.208183
0.209632
0.211142
0.21275
0.214477
0.216728
0.219054
0.225335
0.221408
0.200993
0.203847
0.204551
0.203318
0.201177
0.198803
0.196518
0.194452
0.19265
0.191116
0.189838
0.188797
0.18797
0.187336
0.186874
0.186563
0.186387
0.186328
0.186374
0.186512
0.18673
0.187021
0.187376
0.187791
0.188261
0.188785
0.189366
0.190024
0.190743
0.191626
0.192722
0.19418
0.194319
0.199593
0.199508
0.199518
0.199121
0.198258
0.197061
0.195675
0.194212
0.192747
0.191324
0.189972
0.188707
0.187537
0.186464
0.185488
0.184607
0.183816
0.183112
0.182488
0.181941
0.181464
0.181054
0.180707
0.180419
0.180187
0.180011
0.179891
0.179835
0.179843
0.179941
0.180173
0.180567
0.180897
0.199411
0.198475
0.197748
0.197076
0.196333
0.195471
0.194494
0.193431
0.192314
0.191173
0.190029
0.188901
0.187801
0.186738
0.185718
0.184743
0.183818
0.182942
0.182116
0.181339
0.180609
0.179927
0.17929
0.178698
0.178149
0.177643
0.177181
0.176767
0.176401
0.176094
0.175861
0.175716
0.175626
0.199395
0.198255
0.197227
0.19629
0.195403
0.194525
0.193631
0.19271
0.191764
0.190799
0.189824
0.188846
0.187874
0.186914
0.185972
0.185052
0.184156
0.183287
0.182447
0.181637
0.180858
0.180109
0.179391
0.178704
0.178048
0.177423
0.17683
0.176271
0.175746
0.17526
0.17482
0.174428
0.174081
0.199395
0.198216
0.197096
0.196039
0.195039
0.194082
0.193155
0.192244
0.191342
0.190445
0.189552
0.188663
0.187781
0.186907
0.186045
0.185196
0.184362
0.183546
0.182748
0.181969
0.181211
0.180474
0.179759
0.179065
0.178394
0.177745
0.17712
0.176519
0.175943
0.175395
0.174876
0.174389
0.173934
0.199395
0.19821
0.197068
0.19597
0.194919
0.193911
0.192941
0.192004
0.191094
0.190205
0.189335
0.188481
0.187641
0.186815
0.186003
0.185205
0.184422
0.183653
0.1829
0.182162
0.181441
0.180736
0.180048
0.179378
0.178724
0.178089
0.177471
0.176873
0.176294
0.175735
0.175199
0.174686
0.174196
0.199395
0.198209
0.197062
0.195954
0.194885
0.193855
0.192861
0.191902
0.190975
0.190076
0.189203
0.188354
0.187527
0.186719
0.185929
0.185158
0.184403
0.183664
0.182942
0.182235
0.181544
0.180869
0.180209
0.179564
0.178935
0.178321
0.177723
0.177142
0.176576
0.176028
0.175498
0.174986
0.174493
0.199395
0.198209
0.197061
0.195951
0.194877
0.193838
0.192835
0.191864
0.190926
0.190017
0.189137
0.188284
0.187456
0.18665
0.185867
0.185105
0.184362
0.183638
0.182931
0.182242
0.18157
0.180914
0.180273
0.179648
0.179038
0.178444
0.177864
0.177299
0.17675
0.176216
0.175698
0.175196
0.17471
0.199395
0.198209
0.197061
0.19595
0.194874
0.193834
0.192827
0.191852
0.190908
0.189994
0.189109
0.188251
0.187419
0.186612
0.185828
0.185067
0.184327
0.183608
0.182908
0.182226
0.181563
0.180916
0.180287
0.179673
0.179076
0.178493
0.177926
0.177374
0.176837
0.176314
0.175807
0.175315
0.174837
0.199395
0.198209
0.19706
0.195949
0.194874
0.193832
0.192824
0.191848
0.190902
0.189986
0.189098
0.188237
0.187403
0.186594
0.185808
0.185046
0.184306
0.183587
0.182888
0.182209
0.181549
0.180906
0.180281
0.179673
0.179082
0.178506
0.177946
0.177401
0.176871
0.176356
0.175855
0.175369
0.174898
0.199395
0.198209
0.19706
0.195949
0.194873
0.193832
0.192823
0.191846
0.1909
0.189983
0.189094
0.188232
0.187396
0.186585
0.185799
0.185035
0.184294
0.183575
0.182876
0.182197
0.181537
0.180896
0.180273
0.179666
0.179077
0.178504
0.177947
0.177405
0.176879
0.176368
0.175871
0.175388
0.17492
0.199395
0.198209
0.19706
0.195949
0.194873
0.193831
0.192822
0.191845
0.190899
0.189981
0.189092
0.188229
0.187393
0.186582
0.185794
0.18503
0.184289
0.183569
0.182869
0.18219
0.18153
0.180889
0.180266
0.17966
0.179072
0.1785
0.177944
0.177403
0.176878
0.176368
0.175873
0.175391
0.174924
0.199395
0.198208
0.19706
0.195948
0.194872
0.193831
0.192822
0.191845
0.190898
0.18998
0.18909
0.188228
0.187391
0.18658
0.185792
0.185028
0.184286
0.183565
0.182866
0.182186
0.181526
0.180885
0.180262
0.179656
0.179068
0.178496
0.17794
0.1774
0.176875
0.176365
0.17587
0.175389
0.174921
0.199395
0.198208
0.19706
0.195948
0.194872
0.19383
0.192821
0.191844
0.190897
0.189979
0.18909
0.188227
0.18739
0.186578
0.185791
0.185026
0.184284
0.183563
0.182864
0.182184
0.181524
0.180883
0.180259
0.179654
0.179065
0.178494
0.177938
0.177398
0.176873
0.176363
0.175867
0.175386
0.174918
0.199395
0.198208
0.19706
0.195948
0.194872
0.19383
0.192821
0.191843
0.190896
0.189978
0.189089
0.188226
0.187389
0.186577
0.185789
0.185025
0.184283
0.183562
0.182862
0.182183
0.181523
0.180881
0.180258
0.179652
0.179064
0.178492
0.177936
0.177396
0.176871
0.176361
0.175865
0.175383
0.174914
0.199395
0.198208
0.19706
0.195948
0.194872
0.19383
0.19282
0.191843
0.190896
0.189978
0.189088
0.188225
0.187388
0.186576
0.185788
0.185024
0.184282
0.183561
0.182861
0.182182
0.181521
0.18088
0.180257
0.179651
0.179063
0.178491
0.177935
0.177395
0.17687
0.176359
0.175863
0.175381
0.174912
0.199395
0.198208
0.19706
0.195948
0.194871
0.193829
0.19282
0.191843
0.190895
0.189977
0.189087
0.188224
0.187387
0.186575
0.185788
0.185023
0.184281
0.18356
0.18286
0.182181
0.181521
0.180879
0.180256
0.179651
0.179062
0.17849
0.177934
0.177394
0.176868
0.176358
0.175861
0.175379
0.174909
0.199395
0.198208
0.197059
0.195948
0.194871
0.193829
0.19282
0.191842
0.190895
0.189977
0.189087
0.188224
0.187387
0.186575
0.185787
0.185022
0.18428
0.183559
0.182859
0.18218
0.18152
0.180878
0.180255
0.17965
0.179061
0.178489
0.177933
0.177393
0.176867
0.176356
0.17586
0.175377
0.174907
0.199395
0.198208
0.197059
0.195947
0.194871
0.193829
0.19282
0.191842
0.190895
0.189976
0.189086
0.188223
0.187386
0.186574
0.185786
0.185021
0.184279
0.183559
0.182859
0.182179
0.181519
0.180878
0.180255
0.179649
0.17906
0.178488
0.177932
0.177392
0.176866
0.176355
0.175858
0.175375
0.174905
0.199395
0.198208
0.197059
0.195947
0.194871
0.193829
0.192819
0.191842
0.190894
0.189976
0.189086
0.188223
0.187386
0.186574
0.185786
0.185021
0.184279
0.183558
0.182858
0.182178
0.181518
0.180877
0.180254
0.179648
0.17906
0.178488
0.177932
0.177391
0.176865
0.176354
0.175857
0.175373
0.174903
0.199395
0.198208
0.197059
0.195947
0.194871
0.193829
0.192819
0.191842
0.190894
0.189976
0.189086
0.188222
0.187385
0.186573
0.185785
0.18502
0.184278
0.183557
0.182858
0.182178
0.181518
0.180876
0.180253
0.179648
0.179059
0.178487
0.177931
0.17739
0.176864
0.176353
0.175855
0.175372
0.174901
0.199395
0.198208
0.197059
0.195947
0.194871
0.193829
0.192819
0.191841
0.190894
0.189976
0.189085
0.188222
0.187385
0.186573
0.185785
0.18502
0.184278
0.183557
0.182857
0.182177
0.181517
0.180876
0.180253
0.179647
0.179058
0.178486
0.17793
0.177389
0.176863
0.176352
0.175854
0.17537
0.174899
0.199395
0.198208
0.197059
0.195947
0.194871
0.193829
0.192819
0.191841
0.190894
0.189975
0.189085
0.188222
0.187385
0.186572
0.185784
0.18502
0.184277
0.183557
0.182857
0.182177
0.181517
0.180875
0.180252
0.179646
0.179058
0.178486
0.177929
0.177388
0.176862
0.17635
0.175853
0.175368
0.174897
0.199395
0.198208
0.197059
0.195947
0.194871
0.193828
0.192819
0.191841
0.190894
0.189975
0.189085
0.188222
0.187384
0.186572
0.185784
0.185019
0.184277
0.183556
0.182856
0.182177
0.181516
0.180875
0.180252
0.179646
0.179057
0.178485
0.177928
0.177387
0.176861
0.176349
0.175851
0.175367
0.174896
0.199395
0.198208
0.197059
0.195947
0.194871
0.193828
0.192819
0.191841
0.190893
0.189975
0.189085
0.188221
0.187384
0.186572
0.185784
0.185019
0.184277
0.183556
0.182856
0.182176
0.181516
0.180875
0.180251
0.179646
0.179057
0.178484
0.177928
0.177387
0.17686
0.176348
0.17585
0.175366
0.174894
0.199395
0.198208
0.197059
0.195947
0.194871
0.193828
0.192819
0.191841
0.190893
0.189975
0.189085
0.188221
0.187384
0.186572
0.185784
0.185019
0.184277
0.183556
0.182856
0.182176
0.181516
0.180874
0.180251
0.179645
0.179056
0.178484
0.177927
0.177386
0.176859
0.176347
0.175849
0.175364
0.174893
0.199395
0.198208
0.197059
0.195947
0.194871
0.193828
0.192819
0.191841
0.190893
0.189975
0.189085
0.188221
0.187384
0.186572
0.185784
0.185019
0.184277
0.183556
0.182856
0.182176
0.181516
0.180874
0.180251
0.179645
0.179056
0.178483
0.177927
0.177385
0.176859
0.176346
0.175848
0.175363
0.174891
0.199395
0.198208
0.197059
0.195947
0.194871
0.193828
0.192819
0.191841
0.190893
0.189975
0.189085
0.188221
0.187384
0.186572
0.185784
0.185019
0.184277
0.183556
0.182856
0.182176
0.181516
0.180874
0.180251
0.179645
0.179056
0.178483
0.177926
0.177385
0.176858
0.176346
0.175847
0.175362
0.17489
0.199395
0.198208
0.197059
0.195947
0.194871
0.193828
0.192819
0.191841
0.190893
0.189975
0.189085
0.188221
0.187384
0.186572
0.185784
0.185019
0.184277
0.183556
0.182856
0.182176
0.181516
0.180874
0.180251
0.179645
0.179056
0.178483
0.177926
0.177385
0.176858
0.176345
0.175847
0.175362
0.174889
0.199395
0.198208
0.197059
0.195947
0.194871
0.193828
0.192819
0.191841
0.190894
0.189975
0.189085
0.188222
0.187385
0.186572
0.185784
0.18502
0.184277
0.183557
0.182857
0.182177
0.181517
0.180875
0.180252
0.179646
0.179057
0.178484
0.177927
0.177385
0.176858
0.176346
0.175847
0.175362
0.174889
0.199395
0.198208
0.197059
0.195947
0.194871
0.193828
0.192819
0.191841
0.190894
0.189975
0.189085
0.188222
0.187385
0.186573
0.185785
0.18502
0.184278
0.183558
0.182858
0.182178
0.181518
0.180876
0.180253
0.179647
0.179057
0.178485
0.177927
0.177385
0.176858
0.176345
0.175846
0.17536
0.174887
0.199395
0.198208
0.197059
0.195947
0.194871
0.193829
0.19282
0.191842
0.190896
0.189978
0.189088
0.188226
0.187389
0.186578
0.185791
0.185026
0.184284
0.183564
0.182864
0.182184
0.181523
0.180881
0.180257
0.17965
0.17906
0.178486
0.177927
0.177384
0.176855
0.17634
0.175839
0.175351
0.174875
0.199395
0.198208
0.197059
0.195948
0.194872
0.193831
0.192824
0.191848
0.190902
0.189986
0.189097
0.188236
0.1874
0.186589
0.185801
0.185036
0.184293
0.183571
0.18287
0.182187
0.181524
0.180879
0.180251
0.17964
0.179045
0.178466
0.177902
0.177353
0.176818
0.176297
0.17579
0.175295
0.174813
0.199395
0.198209
0.197062
0.195955
0.194886
0.193853
0.192854
0.191885
0.190945
0.190033
0.189146
0.188284
0.187447
0.186631
0.185838
0.185066
0.184315
0.183583
0.18287
0.182176
0.1815
0.180841
0.180199
0.179573
0.178962
0.178367
0.177787
0.177221
0.176669
0.17613
0.175605
0.175092
0.174592
0.199395
0.198223
0.197106
0.196031
0.194988
0.19397
0.192977
0.192007
0.19106
0.190136
0.189233
0.188352
0.187492
0.186653
0.185834
0.185034
0.184255
0.183493
0.182751
0.182026
0.181318
0.180627
0.179953
0.179294
0.178651
0.178023
0.17741
0.176811
0.176226
0.175654
0.175096
0.17455
0.174017
0.19941
0.198319
0.197296
0.196301
0.19531
0.194319
0.19333
0.192346
0.191375
0.190419
0.189481
0.188563
0.187666
0.186791
0.185937
0.185104
0.184292
0.183499
0.182726
0.181971
0.181235
0.180516
0.179814
0.179128
0.178459
0.177805
0.177166
0.176542
0.175932
0.175336
0.174753
0.174184
0.173628
0.199716
0.199139
0.19847
0.197764
0.197072
0.196419
0.195812
0.19525
0.194733
0.194258
0.193825
0.193432
0.193076
0.192756
0.19247
0.192215
0.19199
0.191793
0.191621
0.191473
0.191347
0.191241
0.191154
0.191085
0.191031
0.190993
0.190968
0.190957
0.190957
0.190969
0.190991
0.191023
0.191064
0.205424
0.216593
0.227629
0.238434
0.248976
0.259243
0.269229
0.278926
0.288326
0.297425
0.306217
0.314702
0.32288
0.330751
0.338318
0.345585
0.352556
0.359238
0.365637
0.37176
0.377615
0.383209
0.388551
0.393649
0.398512
0.403148
0.407567
0.411776
0.415784
0.4196
0.423231
0.426685
0.429974
0.637234
0.554465
0.894536
1.53542
2.00349
2.20621
2.24976
2.2278
2.1877
2.14865
2.11722
2.09478
2.08024
2.07114
2.06441
2.05712
2.04713
2.03337
2.01578
1.99502
1.97203
1.94769
1.92258
1.89692
1.87059
1.84334
1.81512
1.78642
1.75856
1.73393
1.71592
1.70856
1.71555
1.73881
1.77708
1.82532
1.87552
1.91861
1.94655
1.95365
1.93702
1.89638
1.83353
1.75195
1.65639
1.55257
1.44673
1.34508
1.25316
1.17509
1.11307
1.06729
1.03628
1.01781
1.01002
1.01228
1.02581
1.05342
1.09819
1.1611
1.23898
1.32449
1.40824
1.48158
1.53848
1.57585
1.59307
1.59114
1.57196
1.53783
1.49112
1.43416
1.36916
1.29818
1.22311
1.14571
1.0676
0.990206
0.914813
0.8425
0.774136
0.710364
0.65159
0.597866
0.548756
0.504056
0.464879
0.428298
0.379296
0.329581
0.372781
0.520522
0.673782
0.789704
0.871243
0.928269
0.967844
0.994327
1.01128
1.01824
0.28885
0.346383
0.371988
0.469789
0.697743
0.970597
1.19508
1.343
1.43224
1.48995
1.53511
1.57651
1.61636
1.65374
1.68655
1.71256
1.73004
1.73819
1.73731
1.72867
1.71403
1.69514
1.67336
1.64952
1.62395
1.59672
1.56797
1.53828
1.509
1.48241
1.46178
1.45105
1.45413
1.4736
1.50915
1.55661
1.6083
1.65473
1.68695
1.69826
1.68503
1.64658
1.58472
1.50319
1.40712
1.30257
1.19602
1.09387
1.00174
0.923936
0.86285
0.81884
0.790494
0.77542
0.771277
0.776785
0.79243
0.820555
0.864379
0.925799
1.00297
1.08958
1.17657
1.25503
1.31828
1.36263
1.38694
1.3919
1.37922
1.35116
1.31012
1.25853
1.19868
1.13275
1.06273
0.990463
0.917613
0.84566
0.775892
0.70939
0.647012
0.589386
0.536906
0.489622
0.447084
0.409149
0.377131
0.347675
0.305159
0.268072
0.33651
0.502109
0.660272
0.775893
0.856122
0.91201
0.950825
0.976945
0.993827
1.00129
0.204676
0.21794
0.219248
0.221616
0.246435
0.307613
0.397291
0.495137
0.585588
0.664517
0.735881
0.805892
0.878668
0.954389
1.02977
1.09985
1.15996
1.20686
1.23964
1.25959
1.26897
1.27027
1.26555
1.25627
1.24329
1.22707
1.20805
1.18697
1.16516
1.14471
1.12853
1.12021
1.12354
1.14164
1.17547
1.22243
1.27609
1.32733
1.36666
1.38639
1.38185
1.3517
1.29746
1.22289
1.13335
1.03513
0.934901
0.839017
0.752944
0.680716
0.624581
0.584907
0.560418
0.548808
0.547594
0.555026
0.570845
0.596673
0.635608
0.690542
0.761579
0.844379
0.930972
1.01242
1.08135
1.13311
1.16577
1.17937
1.17528
1.15554
1.12249
1.07858
1.02615
0.967451
0.904556
0.839366
0.773588
0.708732
0.646097
0.586762
0.531571
0.481129
0.435809
0.395662
0.360231
0.329311
0.304314
0.282236
0.247507
0.219846
0.300717
0.474074
0.634616
0.750546
0.830628
0.88646
0.925454
0.952036
0.969571
0.978395
0.182009
0.184128
0.184946
0.183965
0.184495
0.1909
0.205205
0.226503
0.252106
0.279488
0.307635
0.337256
0.370149
0.408134
0.451926
0.500412
0.550846
0.60001
0.644978
0.683514
0.714666
0.738563
0.755906
0.767507
0.774046
0.776054
0.774069
0.76885
0.761572
0.753937
0.748208
0.747188
0.754088
0.772074
0.80325
0.847182
0.899787
0.953582
0.999471
1.02912
1.0368
1.02015
0.980049
0.920039
0.845508
0.762879
0.678756
0.599114
0.528648
0.470422
0.42583
0.394805
0.376155
0.367995
0.36827
0.37534
0.388554
0.408749
0.438418
0.480944
0.538521
0.609743
0.688953
0.768037
0.839133
0.896488
0.936961
0.959654
0.965233
0.955322
0.932037
0.897695
0.854633
0.805102
0.751213
0.694899
0.637897
0.581731
0.527702
0.476873
0.430055
0.387799
0.35042
0.317941
0.28989
0.26591
0.247341
0.232115
0.205509
0.183601
0.264934
0.437341
0.598002
0.714616
0.795456
0.852107
0.892055
0.919786
0.938582
0.94949
0.175553
0.175533
0.175444
0.174977
0.174333
0.17441
0.176082
0.17965
0.184883
0.191292
0.198423
0.206067
0.214352
0.223706
0.234673
0.24764
0.262614
0.279143
0.296531
0.314073
0.33106
0.346969
0.361469
0.374346
0.38542
0.394529
0.40158
0.406666
0.410171
0.412834
0.415775
0.420498
0.428934
0.443412
0.466317
0.499106
0.540882
0.587462
0.631901
0.666413
0.684597
0.682939
0.661268
0.622378
0.57117
0.513564
0.45539
0.401449
0.354966
0.317527
0.289402
0.270022
0.258379
0.25329
0.25357
0.258225
0.266719
0.279328
0.297525
0.324077
0.362171
0.413371
0.475671
0.543465
0.609522
0.667315
0.712355
0.742406
0.757069
0.757206
0.744441
0.720792
0.688428
0.649515
0.606127
0.560181
0.513403
0.467301
0.423143
0.381938
0.344417
0.311031
0.281985
0.257237
0.236316
0.218712
0.205534
0.19588
0.176863
0.15793
0.229839
0.393452
0.551783
0.669093
0.751323
0.809474
0.850997
0.88043
0.900979
0.91458
0.173703
0.173241
0.172764
0.172241
0.171637
0.171077
0.170818
0.171065
0.171882
0.173209
0.174919
0.176876
0.178985
0.181227
0.183659
0.186376
0.189467
0.192965
0.196754
0.20066
0.204618
0.20857
0.212472
0.216284
0.219962
0.223441
0.226657
0.229571
0.232217
0.234734
0.2374
0.240643
0.245089
0.251643
0.261559
0.276293
0.29685
0.322724
0.351112
0.377243
0.395885
0.403147
0.397639
0.380629
0.35536
0.325944
0.296258
0.269178
0.246314
0.228179
0.214591
0.205067
0.199084
0.19617
0.19591
0.197946
0.202043
0.208247
0.21715
0.230213
0.249815
0.278512
0.317443
0.364903
0.416416
0.466282
0.509364
0.542137
0.562865
0.571302
0.568249
0.555156
0.533814
0.506146
0.474067
0.439383
0.403733
0.368534
0.334952
0.303873
0.275895
0.251333
0.230268
0.212597
0.197902
0.185627
0.176568
0.170854
0.158289
0.141137
0.19692
0.344598
0.497617
0.615132
0.699065
0.759186
0.802747
0.834304
0.856977
0.873761
0.173434
0.172848
0.172245
0.171637
0.171017
0.170386
0.169799
0.169333
0.16905
0.168974
0.169088
0.169351
0.169715
0.170136
0.170592
0.17108
0.171613
0.172203
0.17282
0.173427
0.174015
0.174581
0.17513
0.175669
0.176202
0.176733
0.177258
0.177779
0.178303
0.178861
0.179512
0.18035
0.181518
0.18323
0.185828
0.18981
0.195759
0.204048
0.214369
0.22541
0.235049
0.241114
0.242256
0.238425
0.230721
0.22083
0.2104
0.200635
0.192194
0.185288
0.179871
0.175807
0.172968
0.171271
0.17066
0.171084
0.172503
0.174931
0.17855
0.183901
0.192088
0.20476
0.223601
0.249329
0.280842
0.315202
0.348536
0.377196
0.398561
0.41128
0.415133
0.410744
0.399285
0.382223
0.361134
0.337565
0.312934
0.28846
0.265118
0.243614
0.224388
0.207636
0.193368
0.181477
0.171656
0.163425
0.15728
0.154005
0.146473
0.131321
0.168111
0.293604
0.437593
0.554143
0.639693
0.702016
0.747904
0.781868
0.806914
0.827247
0.173651
0.173028
0.172391
0.17175
0.171109
0.170465
0.169822
0.169201
0.16863
0.168129
0.167708
0.167365
0.167086
0.166853
0.16665
0.166465
0.166291
0.166124
0.165951
0.165763
0.165553
0.165322
0.165073
0.164812
0.164544
0.164275
0.16401
0.163752
0.163505
0.163277
0.163084
0.162949
0.162906
0.16301
0.163344
0.164039
0.165274
0.167219
0.169918
0.173148
0.176394
0.178987
0.180369
0.180313
0.178966
0.176726
0.17405
0.171315
0.168753
0.166469
0.164482
0.162789
0.161389
0.160306
0.159581
0.159253
0.159354
0.159916
0.161001
0.162781
0.165653
0.170335
0.177803
0.188958
0.204114
0.222581
0.242663
0.262088
0.278631
0.290609
0.297111
0.297983
0.29367
0.285023
0.27311
0.259054
0.243923
0.228637
0.213923
0.200299
0.188076
0.177391
0.168247
0.160585
0.154232
0.148841
0.144668
0.142724
0.138771
0.126501
0.14533
0.243856
0.374333
0.487904
0.574473
0.638927
0.687237
0.723738
0.751274
0.77539
0.17394
0.173312
0.172675
0.172032
0.171388
0.170744
0.170097
0.16945
0.168812
0.168194
0.167605
0.16705
0.166528
0.166036
0.165568
0.165117
0.164677
0.164243
0.163807
0.163364
0.162909
0.162442
0.161961
0.161469
0.160969
0.160464
0.159957
0.159448
0.158939
0.158431
0.157928
0.157436
0.156968
0.156541
0.156184
0.155941
0.155875
0.156057
0.156531
0.157278
0.158192
0.159101
0.159828
0.160256
0.160358
0.16018
0.159802
0.1593
0.15872
0.158081
0.157388
0.156644
0.155867
0.155089
0.154358
0.153724
0.153234
0.152926
0.152836
0.153025
0.153624
0.1549
0.157279
0.161277
0.1673
0.175404
0.185131
0.195545
0.205439
0.213634
0.219231
0.221749
0.221139
0.217705
0.21199
0.204651
0.196356
0.187704
0.179181
0.171143
0.163813
0.157305
0.151646
0.146825
0.142774
0.139276
0.136422
0.135128
0.133413
0.124709
0.12986
0.199067
0.311062
0.418666
0.505002
0.571137
0.621719
0.660714
0.690719
0.718702
0.174163
0.173542
0.172916
0.172283
0.171648
0.171012
0.170373
0.169731
0.169089
0.168449
0.167819
0.167201
0.1666
0.166015
0.165446
0.164889
0.164342
0.1638
0.163259
0.162714
0.162163
0.161604
0.161036
0.16046
0.159875
0.159284
0.158686
0.158082
0.157471
0.156851
0.156223
0.155588
0.154953
0.154326
0.153724
0.15317
0.152697
0.152342
0.15214
0.152109
0.15224
0.152496
0.152824
0.153173
0.153504
0.15379
0.154012
0.154152
0.154187
0.154098
0.153867
0.153489
0.152975
0.152349
0.151646
0.150908
0.150173
0.149478
0.148851
0.148322
0.147939
0.147796
0.14806
0.148969
0.150777
0.153642
0.157522
0.162123
0.166939
0.171363
0.174827
0.176915
0.177426
0.176376
0.173954
0.170463
0.16625
0.161654
0.156965
0.152411
0.148148
0.144268
0.140811
0.137795
0.135206
0.132931
0.130966
0.129972
0.129401
0.124199
0.121656
0.162785
0.251575
0.349252
0.4333
0.500172
0.552572
0.593814
0.626104
0.657871
0.174298
0.173687
0.173072
0.172452
0.171829
0.171204
0.170576
0.169946
0.169313
0.168679
0.168046
0.167419
0.1668
0.16619
0.165589
0.164997
0.164411
0.163828
0.163246
0.16266
0.16207
0.161473
0.160869
0.160256
0.159636
0.159009
0.158373
0.157729
0.157074
0.156407
0.155726
0.155033
0.15433
0.153625
0.152931
0.152264
0.151648
0.151111
0.150682
0.150383
0.150228
0.150216
0.150333
0.150555
0.150849
0.151178
0.151501
0.151775
0.151959
0.15202
0.151931
0.151683
0.151276
0.150726
0.150056
0.149297
0.148478
0.147628
0.146769
0.145924
0.145114
0.144376
0.143774
0.143408
0.143406
0.143887
0.144905
0.146409
0.148227
0.150097
0.151726
0.152853
0.1533
0.152996
0.151968
0.150321
0.148207
0.145795
0.143239
0.140673
0.138196
0.135876
0.133749
0.131838
0.130155
0.128649
0.127283
0.12645
0.126278
0.123759
0.118984
0.137541
0.199995
0.283102
0.361907
0.427949
0.481323
0.524304
0.558514
0.593789
0.174364
0.173761
0.173154
0.172544
0.171931
0.171316
0.170698
0.170078
0.169455
0.168831
0.168207
0.167586
0.166968
0.166355
0.165749
0.165148
0.164551
0.163956
0.163361
0.162762
0.162159
0.161548
0.160931
0.160305
0.159672
0.15903
0.15838
0.157719
0.157048
0.156363
0.155663
0.154949
0.154224
0.153493
0.152767
0.152062
0.151397
0.150796
0.150283
0.14988
0.149605
0.149466
0.149458
0.149568
0.149769
0.150027
0.150299
0.150542
0.150714
0.150778
0.150709
0.150492
0.150124
0.149613
0.148975
0.148229
0.147398
0.146503
0.145562
0.144591
0.143606
0.142626
0.141677
0.140803
0.140062
0.139521
0.139236
0.139226
0.139456
0.139835
0.140235
0.14052
0.140575
0.140324
0.139744
0.138851
0.1377
0.13636
0.134906
0.133406
0.131919
0.130486
0.129134
0.127882
0.126745
0.125709
0.124738
0.124025
0.123867
0.122906
0.119075
0.123659
0.160149
0.22417
0.293928
0.356844
0.409857
0.453748
0.489289
0.527564
0.174389
0.17379
0.173188
0.172584
0.171977
0.171368
0.170757
0.170144
0.16953
0.168914
0.168297
0.167682
0.167069
0.16646
0.165855
0.165253
0.164655
0.164058
0.163459
0.162858
0.162251
0.161639
0.161019
0.160391
0.159755
0.159111
0.158458
0.157795
0.15712
0.156432
0.15573
0.155014
0.154287
0.153554
0.152825
0.152112
0.151434
0.150811
0.150264
0.149813
0.149475
0.149258
0.149162
0.149175
0.149276
0.149435
0.149615
0.149777
0.149883
0.149901
0.149805
0.149581
0.149222
0.148733
0.148121
0.147402
0.14659
0.145701
0.144748
0.143746
0.142705
0.141639
0.140564
0.1395
0.138477
0.13753
0.136695
0.136
0.135453
0.135036
0.134707
0.134406
0.134074
0.13366
0.133132
0.132479
0.131711
0.130848
0.12992
0.128959
0.127991
0.127039
0.126119
0.125243
0.124425
0.123662
0.122936
0.122325
0.122065
0.121733
0.11959
0.118476
0.134323
0.176529
0.232999
0.289734
0.340468
0.384042
0.420054
0.46055
0.174395
0.173797
0.173197
0.172595
0.171991
0.171385
0.170777
0.170168
0.169558
0.168947
0.168335
0.167724
0.167115
0.166508
0.165904
0.165303
0.164704
0.164105
0.163506
0.162904
0.162298
0.161686
0.161068
0.160442
0.159809
0.159167
0.158517
0.157857
0.157186
0.156502
0.155806
0.155098
0.154379
0.153655
0.152934
0.152228
0.151551
0.150921
0.150357
0.149877
0.149495
0.149219
0.149049
0.148976
0.148982
0.149041
0.149123
0.149194
0.149223
0.149179
0.149042
0.148797
0.148436
0.147958
0.14737
0.14668
0.145899
0.145038
0.144107
0.143116
0.142076
0.140998
0.139892
0.138774
0.137659
0.136568
0.135525
0.134549
0.133658
0.132857
0.13214
0.131488
0.130876
0.130279
0.129674
0.129046
0.128389
0.127704
0.126999
0.126282
0.125564
0.124853
0.124157
0.123483
0.122837
0.122224
0.121636
0.1211
0.120749
0.12053
0.119541
0.117602
0.121549
0.143352
0.182998
0.229957
0.27588
0.317444
0.352748
0.39436
0.174392
0.173794
0.173194
0.172592
0.171989
0.171384
0.170778
0.17017
0.169561
0.168952
0.168342
0.167732
0.167124
0.166517
0.165913
0.16531
0.164709
0.164109
0.163508
0.162905
0.162298
0.161687
0.16107
0.160447
0.159817
0.159179
0.158534
0.157879
0.157214
0.156538
0.155851
0.155154
0.154448
0.153737
0.153029
0.152333
0.151663
0.151033
0.150459
0.149957
0.149538
0.149211
0.148975
0.148824
0.148742
0.148709
0.148698
0.148683
0.148635
0.14853
0.14835
0.148078
0.147709
0.147239
0.14667
0.146008
0.14526
0.144434
0.143537
0.142578
0.141565
0.140508
0.139415
0.138298
0.137171
0.136046
0.13494
0.133868
0.132845
0.131881
0.130981
0.130145
0.129366
0.128634
0.127937
0.127265
0.12661
0.125967
0.125332
0.124707
0.12409
0.123484
0.12289
0.12231
0.121748
0.121205
0.120682
0.120188
0.119784
0.119497
0.118987
0.117674
0.117295
0.125
0.147224
0.181069
0.219173
0.256553
0.289617
0.330868
0.174388
0.173789
0.173188
0.172586
0.171982
0.171377
0.17077
0.170162
0.169553
0.168943
0.168333
0.167723
0.167114
0.166506
0.165899
0.165294
0.164689
0.164086
0.163481
0.162876
0.162267
0.161655
0.161039
0.160417
0.159789
0.159154
0.158513
0.157863
0.157204
0.156537
0.155859
0.155173
0.15448
0.153783
0.153089
0.152405
0.151743
0.151114
0.150533
0.150012
0.149562
0.149189
0.148895
0.148673
0.148512
0.148395
0.148301
0.148206
0.148088
0.147926
0.147703
0.147405
0.147025
0.146557
0.146004
0.145366
0.144649
0.143858
0.142999
0.142079
0.141104
0.140081
0.13902
0.13793
0.136822
0.135708
0.1346
0.13351
0.132449
0.13143
0.130458
0.129539
0.128675
0.127863
0.127099
0.126377
0.125691
0.125036
0.124407
0.123799
0.123209
0.122635
0.122075
0.121528
0.120994
0.120476
0.119973
0.119491
0.119052
0.118679
0.118266
0.117479
0.116423
0.117651
0.126542
0.146104
0.173541
0.20421
0.233153
0.272172
0.174384
0.173784
0.173182
0.172579
0.171974
0.171368
0.17076
0.170151
0.169541
0.16893
0.168319
0.167707
0.167096
0.166485
0.165875
0.165266
0.164658
0.16405
0.163442
0.162832
0.162221
0.161606
0.160988
0.160366
0.159739
0.159106
0.158467
0.157821
0.157168
0.156507
0.155839
0.155163
0.154481
0.153797
0.153115
0.152442
0.151787
0.15116
0.150573
0.150036
0.149559
0.149146
0.148799
0.148515
0.148284
0.148093
0.147924
0.147759
0.147577
0.147363
0.147099
0.146775
0.146381
0.145913
0.14537
0.144752
0.144062
0.143304
0.142481
0.141599
0.140664
0.139681
0.138659
0.137605
0.136531
0.135445
0.134358
0.133281
0.132224
0.131197
0.130206
0.129259
0.128359
0.127507
0.126703
0.125945
0.125228
0.124548
0.123901
0.123281
0.122685
0.122108
0.121548
0.121001
0.120466
0.119944
0.119436
0.118945
0.118477
0.118036
0.117592
0.117007
0.116147
0.115576
0.117623
0.125791
0.141542
0.163208
0.185951
0.220501
0.17438
0.173779
0.173177
0.172572
0.171966
0.171359
0.17075
0.17014
0.169528
0.168916
0.168303
0.167689
0.167076
0.166462
0.165849
0.165236
0.164623
0.164011
0.163398
0.162784
0.162169
0.161551
0.160931
0.160307
0.159679
0.159047
0.158409
0.157766
0.157117
0.156461
0.155799
0.155131
0.154459
0.153785
0.153114
0.15245
0.151802
0.151177
0.150584
0.150034
0.149532
0.149085
0.148694
0.148355
0.148063
0.147807
0.147572
0.147344
0.147106
0.146843
0.146541
0.14619
0.145782
0.14531
0.144773
0.144171
0.143503
0.142772
0.141982
0.141136
0.140238
0.139295
0.138312
0.137298
0.136261
0.135209
0.134153
0.133102
0.132065
0.13105
0.130064
0.129115
0.128205
0.127338
0.126514
0.125733
0.124993
0.12429
0.123621
0.122982
0.122367
0.121774
0.121197
0.120635
0.120085
0.119547
0.11902
0.118507
0.118008
0.117518
0.11702
0.116466
0.115773
0.114987
0.114769
0.116842
0.123345
0.135462
0.150362
0.178029
0.174377
0.173776
0.173172
0.172567
0.17196
0.171351
0.170741
0.170129
0.169516
0.168902
0.168287
0.167672
0.167056
0.166439
0.165823
0.165206
0.16459
0.163973
0.163356
0.162738
0.162118
0.161497
0.160873
0.160247
0.159618
0.158985
0.158347
0.157705
0.157059
0.156407
0.15575
0.155088
0.154424
0.153758
0.153095
0.152438
0.151795
0.151171
0.150574
0.150012
0.14949
0.149013
0.148584
0.148199
0.147854
0.147542
0.14725
0.146966
0.146677
0.146369
0.146032
0.145655
0.14523
0.144752
0.144218
0.143626
0.142975
0.142268
0.141505
0.140691
0.139828
0.138921
0.137976
0.137
0.136
0.134984
0.133962
0.13294
0.131928
0.130934
0.129963
0.129022
0.128115
0.127246
0.126414
0.125622
0.124866
0.124146
0.123458
0.122798
0.122163
0.121549
0.120952
0.120369
0.119798
0.119237
0.118687
0.118146
0.117615
0.117084
0.116539
0.115962
0.115318
0.114588
0.113897
0.113803
0.115396
0.120305
0.127557
0.146482
0.174375
0.173772
0.173168
0.172562
0.171954
0.171344
0.170733
0.17012
0.169505
0.16889
0.168273
0.167656
0.167037
0.166418
0.165799
0.165179
0.164559
0.163938
0.163317
0.162694
0.162071
0.161446
0.160819
0.16019
0.159559
0.158924
0.158287
0.157645
0.157
0.15635
0.155697
0.15504
0.154381
0.153722
0.153065
0.152414
0.151773
0.15115
0.150549
0.149976
0.149437
0.148936
0.148474
0.14805
0.147661
0.147299
0.146958
0.146625
0.146291
0.145944
0.145573
0.145171
0.144729
0.144242
0.143707
0.14312
0.142483
0.141793
0.141054
0.140267
0.139434
0.13856
0.13765
0.136709
0.135745
0.134764
0.133774
0.132783
0.131798
0.130827
0.129874
0.128947
0.128049
0.127183
0.12635
0.125552
0.124787
0.124054
0.123351
0.122674
0.12202
0.121385
0.120767
0.120162
0.119568
0.118984
0.118407
0.117838
0.117274
0.116707
0.116124
0.115514
0.114866
0.114168
0.113433
0.112799
0.112612