/*--------------------------------*- C++ -*----------------------------------*\
  =========                 |
  \\      /  F ield         | OpenFOAM: The Open Source CFD Toolbox
   \\    /   O peration     | Website:  https://openfoam.org
    \\  /    A nd           | Version:  10
     \\/     M anipulation  |
\*---------------------------------------------------------------------------*/
FoamFile
{
    format      ascii;
    class       volScalarField;
    location    "300";
    object      nut;
}
// * * * * * * * * * * * * * * * * * * * * * * * * * * * * * * * * * * * * * //

dimensions      [0 2 -1 0 0 0 0];

internalField   nonuniform List<scalar> 
6820
(
0.000149811
0.000146298
0.000143078
0.000139851
0.000136611
0.000133451
0.000130461
0.0001277
0.000125195
0.000122956
0.000120976
0.000119242
0.000117737
0.000116441
0.000115335
0.000114401
0.000113621
0.00011298
0.000112463
0.000112057
0.000111749
0.000111529
0.000111389
0.000111318
0.000111311
0.00011136
0.000111451
0.000111657
0.000111642
0.000112317
0.000112722
0.000109966
0.00010999
0.000736676
0.000548085
0.00046457
0.000414423
0.000380721
0.000356898
0.000339472
0.000326323
0.000316109
0.000307961
0.00030131
0.000295769
0.000291072
0.000287029
0.000283506
0.000280402
0.000277642
0.000275167
0.000272933
0.000270904
0.000269052
0.000267352
0.000265788
0.000264342
0.000263003
0.00026176
0.000260604
0.000259544
0.000258599
0.000257495
0.000257544
0.000258304
0.000247214
0.000977664
0.000873821
0.000783692
0.0007133
0.000659046
0.00061662
0.000582704
0.000554968
0.000531817
0.000512151
0.000495197
0.000480401
0.000467351
0.000455738
0.000445323
0.00043592
0.00042738
0.000419582
0.00041243
0.000405841
0.000399748
0.000394092
0.000388823
0.000383897
0.000379274
0.000374919
0.000370791
0.000366867
0.000363108
0.000359341
0.000355703
0.00035331
0.000345898
0.0010135
0.000988678
0.000949903
0.000906238
0.000863751
0.000825022
0.000790642
0.000760355
0.00073364
0.000709955
0.000688822
0.000669836
0.000652668
0.00063705
0.000622762
0.000609624
0.000597488
0.000586231
0.00057575
0.000565958
0.000556779
0.000548151
0.000540016
0.000532325
0.000525033
0.0005181
0.000511483
0.000505148
0.000499056
0.000493157
0.000487249
0.000481994
0.000476549
0.00101667
0.00101251
0.00100235
0.000986316
0.00096616
0.00094389
0.000921078
0.000898714
0.000877332
0.000857168
0.000838287
0.000820661
0.00080422
0.000788873
0.000774527
0.00076109
0.000748478
0.000736613
0.000725425
0.000714851
0.000704835
0.000695326
0.000686279
0.000677651
0.000669404
0.000661502
0.000653908
0.000646588
0.000639504
0.000632628
0.000625849
0.000619197
0.000613021
0.00101674
0.0010159
0.00101373
0.00100941
0.00100264
0.000993625
0.000982842
0.000970861
0.000958191
0.000945232
0.000932273
0.00091951
0.000907066
0.000895017
0.000883401
0.000872235
0.000861518
0.000851242
0.000841389
0.000831941
0.000822875
0.000814171
0.000805803
0.00079775
0.000789988
0.000782493
0.000775242
0.000768209
0.000761367
0.000754694
0.000748144
0.000741661
0.00073537
0.00101671
0.00101621
0.00101554
0.00101439
0.00101245
0.00100952
0.00100553
0.00100053
0.000994662
0.000988103
0.000981025
0.00097359
0.000965932
0.000958161
0.000950364
0.000942605
0.000934933
0.000927382
0.000919976
0.000912731
0.000905656
0.000898756
0.00089203
0.000885477
0.000879091
0.000872864
0.000866787
0.00086085
0.000855038
0.000849339
0.000843737
0.000838204
0.000832762
0.0010167
0.00101622
0.00101574
0.0010152
0.00101449
0.0010135
0.00101214
0.00101031
0.001008
0.00100522
0.001002
0.000998379
0.000994432
0.000990216
0.000985788
0.0009812
0.000976499
0.000971724
0.000966907
0.000962075
0.00095725
0.000952449
0.000947685
0.000942967
0.000938303
0.000933697
0.00092915
0.000924663
0.000920233
0.00091586
0.000911539
0.000907266
0.000903048
0.0010167
0.00101621
0.00101574
0.00101528
0.00101481
0.00101429
0.00101367
0.00101292
0.00101199
0.00101086
0.0010095
0.00100792
0.00100611
0.00100409
0.00100189
0.000999507
0.00099698
0.000994326
0.000991567
0.000988723
0.00098581
0.000982844
0.00097984
0.000976808
0.000973758
0.000970699
0.000967638
0.000964578
0.000961526
0.000958484
0.000955456
0.000952445
0.000949458
0.0010167
0.00101621
0.00101574
0.00101528
0.00101484
0.0010144
0.00101395
0.00101348
0.00101296
0.00101239
0.00101174
0.001011
0.00101016
0.00100921
0.00100816
0.001007
0.00100573
0.00100437
0.00100293
0.0010014
0.000999795
0.000998129
0.000996406
0.000994634
0.000992821
0.000990971
0.000989093
0.000987191
0.00098527
0.000983336
0.000981393
0.000979445
0.0009775
0.0010167
0.00101621
0.00101574
0.00101528
0.00101484
0.0010144
0.00101398
0.00101357
0.00101315
0.00101273
0.00101229
0.00101183
0.00101134
0.00101081
0.00101024
0.00100963
0.00100896
0.00100825
0.00100749
0.00100668
0.00100582
0.00100492
0.00100398
0.001003
0.00100198
0.00100092
0.000999843
0.000998736
0.000997607
0.000996459
0.000995296
0.000994121
0.000992939
0.0010167
0.00101621
0.00101574
0.00101528
0.00101483
0.0010144
0.00101398
0.00101357
0.00101317
0.00101278
0.00101239
0.001012
0.00101162
0.00101123
0.00101082
0.00101041
0.00100999
0.00100954
0.00100908
0.0010086
0.0010081
0.00100758
0.00100703
0.00100647
0.00100588
0.00100528
0.00100466
0.00100402
0.00100336
0.0010027
0.00100202
0.00100133
0.00100064
0.0010167
0.00101621
0.00101574
0.00101528
0.00101483
0.0010144
0.00101398
0.00101357
0.00101317
0.00101278
0.0010124
0.00101203
0.00101167
0.00101131
0.00101096
0.00101061
0.00101026
0.00100991
0.00100956
0.0010092
0.00100884
0.00100848
0.00100811
0.00100774
0.00100735
0.00100697
0.00100657
0.00100617
0.00100576
0.00100535
0.00100494
0.00100452
0.0010041
0.0010167
0.00101621
0.00101574
0.00101528
0.00101483
0.0010144
0.00101398
0.00101357
0.00101317
0.00101278
0.0010124
0.00101203
0.00101167
0.00101132
0.00101098
0.00101064
0.00101032
0.00100999
0.00100967
0.00100936
0.00100905
0.00100875
0.00100844
0.00100814
0.00100784
0.00100754
0.00100724
0.00100695
0.00100665
0.00100636
0.00100607
0.00100578
0.00100549
0.0010167
0.00101621
0.00101574
0.00101528
0.00101483
0.0010144
0.00101397
0.00101356
0.00101316
0.00101278
0.0010124
0.00101203
0.00101167
0.00101132
0.00101098
0.00101065
0.00101032
0.00101001
0.0010097
0.00100939
0.0010091
0.00100881
0.00100853
0.00100825
0.00100798
0.00100771
0.00100745
0.00100719
0.00100694
0.00100669
0.00100645
0.00100622
0.00100599
0.0010167
0.00101621
0.00101574
0.00101528
0.00101483
0.0010144
0.00101397
0.00101356
0.00101316
0.00101277
0.0010124
0.00101203
0.00101167
0.00101132
0.00101098
0.00101064
0.00101032
0.00101001
0.0010097
0.0010094
0.00100911
0.00100882
0.00100854
0.00100827
0.00100801
0.00100775
0.0010075
0.00100726
0.00100702
0.00100679
0.00100656
0.00100635
0.00100614
0.0010167
0.00101621
0.00101574
0.00101528
0.00101483
0.0010144
0.00101397
0.00101356
0.00101316
0.00101277
0.00101239
0.00101202
0.00101167
0.00101132
0.00101097
0.00101064
0.00101032
0.00101
0.0010097
0.0010094
0.00100911
0.00100882
0.00100855
0.00100828
0.00100801
0.00100776
0.00100751
0.00100727
0.00100704
0.00100681
0.00100659
0.00100638
0.00100617
0.0010167
0.00101621
0.00101574
0.00101528
0.00101483
0.00101439
0.00101397
0.00101356
0.00101316
0.00101277
0.00101239
0.00101202
0.00101166
0.00101131
0.00101097
0.00101064
0.00101032
0.00101
0.00100969
0.0010094
0.0010091
0.00100882
0.00100854
0.00100828
0.00100801
0.00100776
0.00100751
0.00100727
0.00100704
0.00100681
0.00100659
0.00100638
0.00100618
0.0010167
0.00101621
0.00101574
0.00101528
0.00101483
0.00101439
0.00101397
0.00101356
0.00101316
0.00101277
0.00101239
0.00101202
0.00101166
0.00101131
0.00101097
0.00101064
0.00101032
0.00101
0.00100969
0.00100939
0.0010091
0.00100882
0.00100854
0.00100828
0.00100801
0.00100776
0.00100751
0.00100727
0.00100704
0.00100681
0.00100659
0.00100638
0.00100617
0.0010167
0.00101621
0.00101574
0.00101528
0.00101483
0.00101439
0.00101397
0.00101356
0.00101316
0.00101277
0.00101239
0.00101202
0.00101166
0.00101131
0.00101097
0.00101064
0.00101031
0.00101
0.00100969
0.00100939
0.0010091
0.00100882
0.00100854
0.00100827
0.00100801
0.00100776
0.00100751
0.00100727
0.00100704
0.00100681
0.00100659
0.00100638
0.00100617
0.0010167
0.00101621
0.00101574
0.00101528
0.00101483
0.00101439
0.00101397
0.00101356
0.00101316
0.00101277
0.00101239
0.00101202
0.00101166
0.00101131
0.00101097
0.00101064
0.00101031
0.00101
0.00100969
0.00100939
0.0010091
0.00100882
0.00100854
0.00100827
0.00100801
0.00100776
0.00100751
0.00100727
0.00100704
0.00100681
0.00100659
0.00100637
0.00100616
0.0010167
0.00101621
0.00101574
0.00101528
0.00101483
0.00101439
0.00101397
0.00101356
0.00101316
0.00101277
0.00101239
0.00101202
0.00101166
0.00101131
0.00101097
0.00101064
0.00101031
0.00101
0.00100969
0.00100939
0.0010091
0.00100882
0.00100854
0.00100827
0.00100801
0.00100776
0.00100751
0.00100727
0.00100703
0.00100681
0.00100658
0.00100637
0.00100616
0.0010167
0.00101621
0.00101574
0.00101528
0.00101483
0.00101439
0.00101397
0.00101356
0.00101316
0.00101277
0.00101239
0.00101202
0.00101166
0.00101131
0.00101097
0.00101064
0.00101031
0.00101
0.00100969
0.00100939
0.0010091
0.00100882
0.00100854
0.00100827
0.00100801
0.00100776
0.00100751
0.00100727
0.00100703
0.0010068
0.00100658
0.00100636
0.00100616
0.0010167
0.00101621
0.00101574
0.00101528
0.00101483
0.00101439
0.00101397
0.00101356
0.00101316
0.00101277
0.00101239
0.00101202
0.00101166
0.00101131
0.00101097
0.00101063
0.00101031
0.00101
0.00100969
0.00100939
0.0010091
0.00100882
0.00100854
0.00100827
0.00100801
0.00100776
0.00100751
0.00100727
0.00100703
0.0010068
0.00100658
0.00100636
0.00100615
0.0010167
0.00101621
0.00101574
0.00101528
0.00101483
0.00101439
0.00101397
0.00101356
0.00101316
0.00101277
0.00101239
0.00101202
0.00101166
0.00101131
0.00101097
0.00101063
0.00101031
0.00101
0.00100969
0.00100939
0.0010091
0.00100882
0.00100854
0.00100827
0.00100801
0.00100775
0.00100751
0.00100726
0.00100703
0.0010068
0.00100658
0.00100636
0.00100615
0.0010167
0.00101621
0.00101574
0.00101528
0.00101483
0.00101439
0.00101397
0.00101356
0.00101316
0.00101277
0.00101239
0.00101202
0.00101166
0.00101131
0.00101097
0.00101063
0.00101031
0.00101
0.00100969
0.00100939
0.0010091
0.00100882
0.00100854
0.00100827
0.00100801
0.00100775
0.0010075
0.00100726
0.00100703
0.0010068
0.00100657
0.00100635
0.00100614
0.0010167
0.00101621
0.00101574
0.00101528
0.00101483
0.00101439
0.00101397
0.00101356
0.00101316
0.00101277
0.00101239
0.00101202
0.00101166
0.00101131
0.00101097
0.00101063
0.00101031
0.00101
0.00100969
0.00100939
0.0010091
0.00100882
0.00100854
0.00100827
0.00100801
0.00100775
0.0010075
0.00100726
0.00100702
0.00100679
0.00100657
0.00100635
0.00100614
0.0010167
0.00101621
0.00101574
0.00101528
0.00101483
0.00101439
0.00101397
0.00101356
0.00101316
0.00101277
0.00101239
0.00101202
0.00101166
0.00101131
0.00101097
0.00101063
0.00101031
0.00101
0.00100969
0.00100939
0.0010091
0.00100881
0.00100854
0.00100827
0.00100801
0.00100775
0.0010075
0.00100726
0.00100702
0.00100679
0.00100657
0.00100635
0.00100614
0.0010167
0.00101621
0.00101574
0.00101528
0.00101483
0.00101439
0.00101397
0.00101356
0.00101316
0.00101277
0.00101239
0.00101202
0.00101166
0.00101131
0.00101097
0.00101063
0.00101031
0.00101
0.00100969
0.00100939
0.0010091
0.00100881
0.00100854
0.00100827
0.00100801
0.00100775
0.0010075
0.00100726
0.00100702
0.00100679
0.00100657
0.00100635
0.00100613
0.0010167
0.00101621
0.00101574
0.00101528
0.00101483
0.00101439
0.00101397
0.00101356
0.00101316
0.00101277
0.00101239
0.00101202
0.00101166
0.00101131
0.00101097
0.00101063
0.00101031
0.00101
0.00100969
0.00100939
0.0010091
0.00100881
0.00100854
0.00100827
0.00100801
0.00100775
0.0010075
0.00100726
0.00100702
0.00100679
0.00100656
0.00100634
0.00100613
0.0010167
0.00101621
0.00101574
0.00101528
0.00101483
0.00101439
0.00101397
0.00101356
0.00101316
0.00101277
0.00101239
0.00101202
0.00101166
0.00101131
0.00101097
0.00101063
0.00101031
0.00101
0.00100969
0.00100939
0.0010091
0.00100881
0.00100854
0.00100827
0.001008
0.00100775
0.0010075
0.00100725
0.00100701
0.00100678
0.00100655
0.00100633
0.00100612
0.0010167
0.00101621
0.00101574
0.00101528
0.00101483
0.00101439
0.00101397
0.00101356
0.00101316
0.00101277
0.00101239
0.00101202
0.00101166
0.00101131
0.00101097
0.00101063
0.00101031
0.00101
0.00100969
0.00100939
0.00100909
0.00100881
0.00100853
0.00100826
0.00100799
0.00100773
0.00100748
0.00100723
0.00100698
0.00100675
0.00100651
0.00100628
0.00100606
0.0010167
0.00101621
0.00101574
0.00101528
0.00101483
0.00101439
0.00101397
0.00101356
0.00101316
0.00101277
0.00101239
0.00101202
0.00101166
0.0010113
0.00101096
0.00101062
0.0010103
0.00100998
0.00100966
0.00100935
0.00100905
0.00100875
0.00100846
0.00100817
0.00100789
0.00100761
0.00100733
0.00100706
0.00100679
0.00100653
0.00100626
0.001006
0.00100575
0.0010167
0.00101621
0.00101574
0.00101528
0.00101483
0.00101439
0.00101397
0.00101356
0.00101315
0.00101276
0.00101237
0.00101199
0.00101162
0.00101125
0.00101088
0.00101051
0.00101015
0.00100979
0.00100942
0.00100906
0.00100869
0.00100833
0.00100796
0.00100759
0.00100721
0.00100684
0.00100646
0.00100608
0.0010057
0.00100531
0.00100493
0.00100454
0.00100415
0.0010167
0.00101621
0.00101574
0.00101527
0.00101482
0.00101438
0.00101394
0.0010135
0.00101305
0.00101259
0.00101213
0.00101164
0.00101114
0.00101062
0.00101008
0.00100952
0.00100893
0.00100832
0.00100768
0.00100703
0.00100635
0.00100564
0.00100492
0.00100418
0.00100342
0.00100264
0.00100185
0.00100104
0.00100022
0.000999385
0.000998543
0.000997692
0.000996834
0.0010167
0.00101621
0.00101571
0.00101519
0.00101464
0.00101403
0.00101334
0.00101256
0.00101167
0.00101068
0.00100958
0.00100837
0.00100705
0.00100562
0.0010041
0.00100248
0.00100078
0.000999002
0.000997154
0.000995243
0.000993277
0.000991263
0.000989209
0.000987122
0.000985006
0.000982869
0.000980716
0.000978552
0.000976381
0.000974208
0.000972037
0.000969871
0.000967715
0.00101669
0.00101596
0.00101486
0.00101328
0.00101118
0.00100855
0.00100541
0.00100181
0.000997771
0.000993357
0.000988617
0.000983601
0.000978358
0.000972934
0.000967372
0.000961709
0.000955978
0.00095021
0.00094443
0.000938659
0.000932918
0.000927222
0.000921584
0.000916017
0.000910529
0.000905128
0.000899821
0.000894612
0.000889505
0.000884503
0.000879609
0.000874823
0.000870146
0.00101524
0.00100708
0.00099496
0.000980616
0.000964763
0.000947856
0.00093028
0.000912378
0.000894446
0.00087671
0.000859334
0.000842432
0.000826078
0.000810316
0.000795169
0.000780643
0.000766733
0.000753427
0.000740707
0.000728552
0.000716938
0.000705841
0.000695237
0.000685102
0.000675413
0.000666147
0.000657281
0.000648796
0.000640672
0.000632889
0.000625431
0.000618281
0.000611421
0.000934351
0.000813407
0.000726843
0.000658871
0.000603234
0.000556914
0.000518016
0.000485061
0.000456863
0.000432502
0.000411269
0.000392616
0.000376114
0.000361422
0.000348268
0.000336432
0.000325734
0.000316026
0.000307184
0.000299104
0.000291699
0.000284893
0.000278623
0.000272832
0.000267473
0.000262502
0.000257884
0.000253585
0.000249577
0.000245834
0.000242334
0.000239056
0.000235981
0.000125479
0.000128845
0.000132087
0.000135185
0.000138141
0.000140961
0.00014365
0.000146214
0.000148658
0.000150985
0.0001532
0.000155309
0.000157313
0.000159219
0.00016103
0.00016275
0.000164384
0.000165934
0.000167405
0.000168801
0.000170124
0.00017138
0.00017257
0.000173698
0.000174767
0.000175781
0.000176741
0.000177651
0.000178513
0.00017933
0.000180104
0.000180837
0.000181533
0.000771862
0.000252592
0.00017027
0.000264294
0.000361574
0.000428494
0.000471363
0.00050046
0.000522618
0.00054217
0.000561859
0.000583158
0.000606524
0.000631688
0.000657948
0.000684424
0.000710289
0.000734931
0.000758054
0.000779662
0.000799969
0.000819246
0.000837697
0.000855381
0.000872212
0.000888049
0.000902873
0.000917013
0.000931386
0.000947693
0.000968486
0.000996995
0.00103654
0.00108944
0.0011557
0.00123205
0.00131214
0.00138784
0.00145114
0.00149584
0.00151841
0.00151815
0.00149691
0.00145842
0.00140773
0.00135063
0.00129314
0.00124106
0.00119949
0.00117223
0.00116119
0.00116611
0.00118489
0.00121463
0.0012531
0.00130023
0.00135896
0.001435
0.00153443
0.00165955
0.00180502
0.00195807
0.00210301
0.00222655
0.00232079
0.00238318
0.00241489
0.00241907
0.00239963
0.00236048
0.0023053
0.00223735
0.0021596
0.00207469
0.00198502
0.00189277
0.00179995
0.00170838
0.00161972
0.0015354
0.00145665
0.00138446
0.00131953
0.00126191
0.00121029
0.00116506
0.00113257
0.00110024
0.00100504
0.000925678
0.00137345
0.00250097
0.00348868
0.00402084
0.00425633
0.00434225
0.00435346
0.00432521
0.00427791
0.00418413
0.000324474
0.000364882
0.000263293
0.000187646
0.000210867
0.000270453
0.000328367
0.000372115
0.000403337
0.000427556
0.000449339
0.000471363
0.000494829
0.000519938
0.000546218
0.000572791
0.000598656
0.000622969
0.000645271
0.000665541
0.000684066
0.000701236
0.000717367
0.000732603
0.000746912
0.000760173
0.000772346
0.000783676
0.000794912
0.000807479
0.000823577
0.000846115
0.000878315
0.000922822
0.000980416
0.00104884
0.00112258
0.00119389
0.0012547
0.0012984
0.00132103
0.00132146
0.00130115
0.00126354
0.00121336
0.0011561
0.00109753
0.00104336
0.000998806
0.00096809
0.00095379
0.00095633
0.000973978
0.00100365
0.00104236
0.00108891
0.00114502
0.00121563
0.00130715
0.00142347
0.00156155
0.00171034
0.00185457
0.00198034
0.0020787
0.00214607
0.00218292
0.00219201
0.00217708
0.00214204
0.00209061
0.00202619
0.00195183
0.0018703
0.00178407
0.00169539
0.00160634
0.00151877
0.00143438
0.00135466
0.00128089
0.00121414
0.00115524
0.00110439
0.00106033
0.0010236
0.00100193
0.000981241
0.000889341
0.000836849
0.0014296
0.00268578
0.00364701
0.00411502
0.00430059
0.00435312
0.00434234
0.00429947
0.00424267
0.00414092
0.000337874
0.000374655
0.000423403
0.000377915
0.000259668
0.000209071
0.000211137
0.000231969
0.000256334
0.000279233
0.00030056
0.000321933
0.000344881
0.000369987
0.000396775
0.000424089
0.000450608
0.000475257
0.000497549
0.000517562
0.000535654
0.000552257
0.000567717
0.000582204
0.000595711
0.000608135
0.000619419
0.000629734
0.000639653
0.000650289
0.000663398
0.00068139
0.000707147
0.000743429
0.000791787
0.000851258
0.000917666
0.000984157
0.00104288
0.00108691
0.00111164
0.00111531
0.00109878
0.00106499
0.00101827
0.000963839
0.000907244
0.000854043
0.000809415
0.000777728
0.000761974
0.000763173
0.000780075
0.00080962
0.000848227
0.000893493
0.000945661
0.00100834
0.00108772
0.00118939
0.00131356
0.00145239
0.00159214
0.00171859
0.00182137
0.00189535
0.00193976
0.00195654
0.00194901
0.00192092
0.00187598
0.00181766
0.00174911
0.00167318
0.00159247
0.00150932
0.00142584
0.001344
0.00126553
0.00119201
0.00112482
0.00106508
0.00101377
0.000971273
0.000936397
0.000909389
0.00089911
0.000893255
0.000811151
0.000773272
0.00145517
0.00277919
0.00371723
0.00414635
0.00430203
0.00433423
0.00430996
0.00425823
0.00419612
0.00408977
0.000465206
0.000458278
0.00047055
0.000501065
0.000505411
0.000437276
0.000350817
0.000294124
0.000265493
0.000253079
0.00024901
0.000249422
0.000252956
0.000259631
0.000269861
0.000283664
0.000300379
0.000318841
0.00033771
0.000355977
0.000373192
0.000389281
0.000404347
0.0004185
0.000431764
0.000444092
0.000455453
0.000465961
0.000476004
0.000486347
0.000498213
0.000513332
0.000533935
0.000562511
0.000601083
0.00065002
0.000706937
0.000766545
0.000821805
0.000865791
0.000893337
0.000901891
0.000891582
0.000864793
0.000825539
0.000778849
0.00073018
0.000684896
0.000647801
0.000622748
0.000612279
0.000617241
0.000636483
0.000667042
0.000705127
0.000747637
0.000793589
0.000845059
0.000907254
0.000986755
0.00108742
0.00120622
0.00133288
0.00145396
0.00155783
0.00163729
0.00168968
0.00171558
0.00171745
0.0016986
0.00166255
0.00161274
0.00155236
0.00148437
0.00141143
0.00133601
0.00126031
0.00118639
0.00111609
0.00105106
0.000992765
0.00094237
0.000900865
0.000868784
0.000844961
0.000828911
0.0008299
0.000839952
0.000772996
0.000736224
0.00144322
0.00278411
0.00370848
0.00412165
0.00426466
0.00428769
0.00425728
0.00420171
0.00413796
0.00403004
0.000604644
0.000592423
0.00058381
0.000586368
0.000598387
0.000601499
0.00057712
0.000528776
0.000475008
0.000428904
0.000393552
0.000366894
0.000345704
0.000327458
0.000311137
0.000297146
0.000286459
0.000279765
0.000277158
0.000278027
0.000281562
0.000287085
0.000294081
0.000302148
0.000310944
0.000320153
0.00032952
0.000338901
0.000348333
0.000358089
0.000368711
0.000381064
0.000396411
0.000416446
0.000443061
0.000477618
0.000519815
0.000566825
0.000613493
0.000653692
0.00068208
0.000695413
0.000693049
0.000676792
0.000650343
0.00061856
0.00058667
0.000559494
0.000540854
0.000533227
0.000537666
0.000553828
0.000580017
0.000613375
0.000650496
0.000688458
0.000725853
0.00076353
0.000805021
0.000856201
0.00092316
0.00100833
0.00110748
0.00121069
0.00130642
0.00138551
0.00144277
0.00147666
0.00148815
0.0014796
0.00145403
0.00141463
0.00136453
0.00130669
0.00124386
0.00117857
0.00111318
0.00104981
0.0009904
0.000936665
0.000890046
0.000851646
0.000822292
0.000802446
0.000790909
0.000786242
0.000797072
0.000821077
0.000772711
0.000725773
0.00139176
0.00270576
0.00362721
0.00404484
0.00419045
0.00421433
0.0041844
0.00412957
0.00406753
0.00396085
0.000728048
0.000718686
0.000708966
0.000701643
0.000699183
0.00069954
0.0006962
0.000683404
0.000660595
0.00063182
0.000602063
0.000574441
0.000549582
0.000526314
0.000502837
0.000477864
0.0004513
0.000424436
0.000400127
0.000380282
0.000364731
0.000353058
0.000344784
0.000339439
0.000336601
0.000335891
0.000336973
0.000339548
0.000343362
0.000348216
0.000353979
0.000360628
0.00036832
0.000377521
0.000389084
0.000404164
0.000423792
0.000448073
0.000475342
0.000502127
0.000524255
0.000538432
0.000543365
0.000540063
0.000531434
0.000521449
0.000514162
0.000512837
0.000519383
0.000534223
0.000556559
0.00058485
0.0006172
0.000651537
0.000685726
0.00071788
0.000746839
0.000772649
0.000796972
0.000823301
0.000856505
0.000901227
0.000959384
0.00102807
0.00109994
0.00116615
0.00121951
0.00125586
0.00127389
0.00127434
0.00125917
0.00123096
0.00119249
0.00114658
0.00109596
0.00104318
0.000990649
0.000940529
0.000894751
0.000854949
0.000822395
0.000797921
0.000781986
0.000774753
0.000774955
0.00078032
0.000797931
0.000831033
0.000802191
0.000740094
0.00130538
0.00255129
0.00347787
0.00391767
0.00407982
0.00411394
0.00409077
0.00404099
0.00398386
0.00388113
0.000826522
0.000819224
0.00081164
0.000804215
0.000797934
0.000793253
0.000789089
0.000783323
0.000774279
0.000761739
0.000746831
0.000731129
0.000715744
0.000700856
0.000685759
0.000669208
0.000649907
0.000627486
0.000603783
0.000580834
0.000559651
0.000540819
0.00052459
0.000511
0.000499956
0.0004913
0.000484833
0.000480324
0.000477504
0.000476059
0.000475635
0.000475849
0.000476353
0.000476906
0.00047744
0.00047804
0.000478956
0.000480714
0.000484054
0.000489365
0.000496138
0.000503231
0.000509791
0.00051598
0.000523032
0.000532731
0.000546669
0.000565656
0.000589493
0.000617118
0.00064704
0.000677799
0.000708248
0.000737547
0.000764987
0.000789873
0.000811605
0.000829924
0.000845239
0.00085892
0.000873244
0.000890789
0.000913767
0.000943495
0.000979326
0.00101778
0.00105352
0.00108148
0.00109833
0.00110273
0.00109501
0.00107658
0.0010495
0.00101611
0.000978874
0.000940185
0.000902294
0.000867217
0.000836665
0.000811969
0.000794023
0.000783227
0.000779574
0.000782866
0.000791859
0.000803905
0.000824097
0.000859926
0.000849014
0.000775389
0.00119658
0.00233037
0.00326387
0.00374046
0.00393204
0.00398548
0.00397527
0.00393482
0.00388574
0.00378968
0.000898194
0.000892609
0.00088691
0.00088112
0.000875441
0.000870153
0.000865256
0.000860305
0.000854657
0.000847889
0.000840039
0.000831545
0.000822941
0.000814552
0.000806298
0.000797656
0.000787778
0.000776011
0.000762636
0.000748242
0.000733504
0.000719048
0.000705371
0.000692823
0.000681618
0.00067186
0.000663567
0.000656677
0.000651061
0.000646519
0.000642788
0.000639557
0.000636504
0.000633359
0.00062995
0.000626175
0.000621908
0.000617044
0.000611791
0.000606948
0.00060374
0.000603316
0.000606438
0.000613539
0.000624858
0.000640436
0.000659981
0.000682774
0.000707718
0.000733531
0.000759012
0.000783262
0.000805786
0.000826421
0.000845164
0.000861997
0.000876809
0.000889455
0.000899933
0.000908641
0.000916514
0.000924684
0.000933737
0.000943504
0.000953835
0.000964898
0.000976234
0.000986121
0.000992205
0.000992541
0.000986186
0.000973267
0.000954757
0.000932184
0.000907364
0.000882187
0.000858449
0.00083772
0.000821236
0.000809843
0.000803959
0.000803564
0.000808301
0.000817761
0.000830924
0.000845318
0.000864061
0.000896754
0.000900083
0.000825858
0.00108586
0.00205725
0.00298883
0.00351271
0.00374556
0.00382732
0.00383636
0.0038096
0.00377179
0.00368521
0.000946002
0.000942006
0.000937919
0.00093374
0.000929494
0.000925256
0.000921084
0.000916934
0.000912652
0.000908069
0.000903116
0.000897879
0.000892553
0.000887339
0.000882325
0.000877394
0.000872222
0.000866467
0.000859962
0.00085271
0.000844864
0.000836666
0.00082839
0.000820292
0.000812586
0.000805429
0.000798918
0.00079309
0.000787922
0.000783334
0.0007792
0.000775355
0.000771623
0.000767856
0.000763981
0.000760005
0.000755968
0.000751881
0.000747791
0.000743981
0.000741107
0.000740113
0.000741936
0.000747223
0.000756191
0.000768613
0.000783883
0.000801115
0.000819295
0.000837436
0.000854726
0.000870623
0.00088489
0.000897541
0.000908739
0.00091867
0.000927455
0.000935122
0.000941661
0.000947168
0.000952019
0.000956889
0.000962323
0.000968038
0.000972773
0.000975158
0.00097471
0.000971742
0.000966584
0.000959189
0.000949337
0.000936998
0.000922537
0.00090672
0.000890592
0.000875312
0.000861992
0.000851568
0.000844705
0.000841756
0.000842759
0.000847454
0.000855373
0.000866106
0.000878986
0.000892083
0.000906841
0.000932661
0.000945098
0.000883392
0.000998158
0.00175444
0.0026585
0.00323394
0.0035184
0.00363739
0.00367219
0.00366371
0.00364052
0.00356641
0.00097523
0.000972582
0.000969845
0.000967021
0.000964114
0.000961139
0.000958114
0.000955047
0.000951916
0.00094868
0.00094531
0.000941819
0.000938268
0.000934751
0.000931346
0.000928069
0.000924848
0.000921568
0.00091811
0.000914389
0.000910382
0.000906121
0.000901683
0.000897171
0.000892687
0.000888328
0.000884164
0.000880237
0.000876555
0.000873095
0.000869809
0.000866627
0.000863477
0.000860303
0.0008571
0.000853931
0.000850914
0.000848188
0.000845899
0.000844229
0.000843471
0.000844036
0.000846379
0.000850848
0.000857563
0.000866354
0.000876793
0.000888267
0.000900098
0.000911643
0.00092239
0.000932006
0.000940355
0.000947472
0.000953508
0.000958656
0.00096309
0.000966926
0.000970219
0.000973014
0.000975453
0.000977886
0.000980818
0.000984569
0.000988766
0.000992188
0.000993296
0.000991063
0.000985383
0.000976824
0.00096619
0.000954253
0.000941728
0.000929311
0.0009177
0.000907571
0.000899509
0.000893956
0.000891161
0.000891172
0.000893849
0.000898892
0.000905897
0.000914552
0.000924503
0.00093445
0.000944646
0.000962529
0.000978485
0.000938069
0.000952588
0.00145782
0.002284
0.00290485
0.00324857
0.00341339
0.00348072
0.00349538
0.00349038
0.00343198
0.000991548
0.00098991
0.000988197
0.000986409
0.000984549
0.00098262
0.000980625
0.000978567
0.000976447
0.000974262
0.000972008
0.000969689
0.000967326
0.000964955
0.000962617
0.00096034
0.000958129
0.000955963
0.000953799
0.000951596
0.000949319
0.000946955
0.000944507
0.000941999
0.000939463
0.000936934
0.00093444
0.000931999
0.000929616
0.000927281
0.000924973
0.000922666
0.00092034
0.000917987
0.000915635
0.000913356
0.000911274
0.000909544
0.000908339
0.000907833
0.000908206
0.000909646
0.00091232
0.000916333
0.000921667
0.000928158
0.000935499
0.000943289
0.000951096
0.000958516
0.000965231
0.000971035
0.000975848
0.000979698
0.000982697
0.000984999
0.00098676
0.000988111
0.000989142
0.000989911
0.000990488
0.000991026
0.000991818
0.000993235
0.0009955
0.000998389
0.00100111
0.00100256
0.00100178
0.000998351
0.000992477
0.00098477
0.000976031
0.000967064
0.000958591
0.000951204
0.000945346
0.000941302
0.000939201
0.000939028
0.000940653
0.000943854
0.000948354
0.000953943
0.000960461
0.000967143
0.000973619
0.000984664
0.000999501
0.000980872
0.000950326
0.00121541
0.00188873
0.00252951
0.00293477
0.00315304
0.0032598
0.00330277
0.00331982
0.00328072
0.000999822
0.00099885
0.000997825
0.000996746
0.000995613
0.000994426
0.000993187
0.000991893
0.000990547
0.000989152
0.00098771
0.000986225
0.000984708
0.000983171
0.000981631
0.000980104
0.000978601
0.000977124
0.000975665
0.000974213
0.000972752
0.000971274
0.000969773
0.00096825
0.000966713
0.000965167
0.000963621
0.000962075
0.000960525
0.000958962
0.000957374
0.000955753
0.000954095
0.000952415
0.00095075
0.000949171
0.000947784
0.000946722
0.000946137
0.000946179
0.000946981
0.000948651
0.000951249
0.000954775
0.000959146
0.000964198
0.00096969
0.000975334
0.000980834
0.000985922
0.000990388
0.000994099
0.000997
0.000999115
0.00100052
0.00100133
0.00100166
0.00100163
0.00100134
0.00100084
0.0010002
0.000999497
0.000998869
0.000998538
0.000998763
0.000999709
0.00100129
0.00100308
0.00100446
0.00100478
0.00100365
0.00100101
0.000997135
0.000992477
0.00098757
0.000982917
0.000978932
0.000975907
0.000974013
0.000973306
0.000973755
0.000975257
0.000977665
0.000980856
0.000984772
0.00098903
0.000993121
0.000999483
0.00101071
0.00100746
0.000973701
0.00106582
0.00151813
0.00212076
0.00257788
0.00285449
0.00300733
0.0030841
0.00312733
0.00311157
0.00100361
0.00100302
0.0010024
0.00100175
0.00100107
0.00100035
0.000999594
0.000998802
0.000997974
0.000997112
0.000996218
0.000995297
0.000994353
0.000993393
0.000992421
0.000991444
0.000990468
0.000989492
0.000988517
0.000987539
0.000986555
0.000985563
0.00098456
0.000983548
0.000982526
0.000981496
0.000980457
0.000979406
0.000978336
0.00097724
0.000976109
0.000974939
0.000973737
0.000972521
0.000971331
0.000970228
0.000969302
0.000968661
0.000968427
0.000968719
0.00096964
0.000971258
0.000973598
0.000976626
0.00098025
0.000984319
0.000988637
0.000992985
0.000997143
0.00100092
0.00100415
0.00100676
0.00100869
0.00100996
0.00101062
0.00101074