/*--------------------------------*- C++ -*----------------------------------*\
  =========                 |
  \\      /  F ield         | OpenFOAM: The Open Source CFD Toolbox
   \\    /   O peration     | Website:  https://openfoam.org
    \\  /    A nd           | Version:  10
     \\/     M anipulation  |
\*---------------------------------------------------------------------------*/
FoamFile
{
    format      ascii;
    class       volScalarField;
    location    "300";
    object      p;
}
// * * * * * * * * * * * * * * * * * * * * * * * * * * * * * * * * * * * * * //

dimensions      [0 2 -2 0 0 0 0];

internalField   nonuniform List<scalar> 
6820
(
-8.14278
-8.91415
-9.36129
-9.50791
-9.58592
-9.65032
-9.695
-9.72423
-9.74638
-9.76516
-9.78138
-9.79554
-9.8082
-9.81968
-9.83013
-9.83957
-9.84801
-9.8554
-9.86164
-9.86657
-9.86998
-9.87155
-9.87085
-9.86728
-9.85992
-9.84745
-9.82779
-9.7973
-9.75135
-9.6758
-9.55749
-9.37987
-8.9605
-9.69723
-9.8423
-9.81795
-9.74875
-9.72053
-9.72514
-9.7372
-9.74908
-9.76161
-9.7748
-9.78767
-9.79972
-9.81096
-9.82141
-9.83105
-9.83983
-9.84771
-9.85461
-9.86044
-9.86504
-9.86821
-9.86967
-9.86903
-9.86578
-9.85916
-9.84818
-9.83121
-9.80673
-9.76943
-9.72306
-9.64101
-9.59051
-9.43774
-9.70093
-9.56544
-9.5655
-9.59932
-9.63446
-9.6711
-9.70244
-9.72659
-9.74646
-9.76397
-9.77952
-9.79333
-9.80577
-9.81708
-9.82738
-9.83672
-9.84509
-9.85246
-9.85875
-9.86382
-9.8675
-9.86954
-9.8696
-9.86725
-9.86185
-9.85265
-9.8385
-9.81843
-9.79005
-9.75602
-9.7107
-9.69118
-9.67617
-9.63137
-9.55371
-9.59783
-9.64463
-9.66992
-9.69374
-9.71691
-9.73625
-9.7529
-9.76822
-9.78236
-9.7953
-9.80718
-9.81815
-9.82825
-9.83748
-9.84582
-9.85322
-9.8596
-9.86486
-9.86882
-9.8713
-9.87201
-9.87063
-9.86673
-9.85983
-9.84936
-9.83512
-9.81671
-9.79763
-9.77974
-9.78519
-9.82328
-9.62494
-9.59539
-9.62484
-9.65596
-9.67469
-9.69527
-9.71716
-9.73628
-9.75292
-9.76821
-9.78234
-9.7953
-9.80722
-9.81823
-9.82839
-9.8377
-9.84616
-9.85373
-9.86036
-9.86594
-9.87037
-9.87348
-9.87508
-9.87498
-9.87292
-9.86872
-9.86228
-9.85403
-9.8448
-9.83821
-9.83853
-9.85968
-9.91367
-9.63299
-9.61882
-9.63469
-9.65975
-9.67926
-9.69923
-9.71985
-9.73828
-9.75451
-9.76945
-9.78333
-9.79614
-9.80798
-9.81896
-9.82914
-9.83852
-9.84711
-9.85488
-9.86179
-9.86776
-9.87272
-9.87657
-9.8792
-9.88052
-9.88046
-9.8791
-9.8767
-9.87407
-9.87267
-9.87586
-9.88816
-9.91842
-9.97596
-9.64092
-9.63333
-9.64447
-9.66645
-9.68557
-9.70398
-9.72287
-9.74039
-9.75614
-9.77072
-9.78435
-9.79702
-9.8088
-9.81978
-9.83001
-9.8395
-9.84826
-9.85627
-9.86351
-9.86994
-9.87552
-9.8802
-9.88396
-9.88681
-9.88883
-9.89029
-9.89169
-9.89403
-9.89899
-9.90943
-9.92924
-9.96397
-10.0195
-9.64907
-9.64589
-9.65517
-9.67384
-9.69155
-9.70853
-9.726
-9.74265
-9.75793
-9.77215
-9.78551
-9.79803
-9.80975
-9.82073
-9.83102
-9.84064
-9.84959
-9.85789
-9.8655
-9.87244
-9.8787
-9.88427
-9.88921
-9.89361
-9.89768
-9.90179
-9.90659
-9.91313
-9.92299
-9.93852
-9.96267
-9.99888
-10.0503
-9.65766
-9.65716
-9.66526
-9.68102
-9.69727
-9.71312
-9.72937
-9.74516
-9.75991
-9.77374
-9.78684
-9.79919
-9.81084
-9.82182
-9.83218
-9.84193
-9.8511
-9.85969
-9.86772
-9.8752
-9.88216
-9.88865
-9.89477
-9.90069
-9.90668
-9.9132
-9.92091
-9.93082
-9.9443
-9.96319
-9.98955
-10.0254
-10.0723
-9.66635
-9.66727
-9.67457
-9.6881
-9.70295
-9.71776
-9.73291
-9.74785
-9.76205
-9.7755
-9.78832
-9.8005
-9.81206
-9.82304
-9.83347
-9.84337
-9.85277
-9.86167
-9.87013
-9.87816
-9.88583
-9.89323
-9.9005
-9.90784
-9.91558
-9.92418
-9.93429
-9.9468
-9.96283
-9.98374
-10.0109
-10.0455
-10.0879
-9.67488
-9.67651
-9.68324
-9.69504
-9.70858
-9.72239
-9.73655
-9.75069
-9.76434
-9.7774
-9.78994
-9.80195
-9.81343
-9.8244
-9.8349
-9.84495
-9.85457
-9.86381
-9.87269
-9.88127
-9.88964
-9.89792
-9.90626
-9.9149
-9.92417
-9.93451
-9.94653
-9.96095
-9.97866
-10.0006
-10.0277
-10.0604
-10.0988
-9.68312
-9.68506
-9.69132
-9.70178
-9.7141
-9.72697
-9.74025
-9.75365
-9.76675
-9.77943
-9.79169
-9.80352
-9.81491
-9.82588
-9.83645
-9.84665
-9.85651
-9.86606
-9.87536
-9.88448
-9.89352
-9.90261
-9.91192
-9.92171
-9.93227
-9.94403
-9.95749
-9.97324
-9.99195
-10.0142
-10.0406
-10.0713
-10.1061
-9.691
-9.69303
-9.69886
-9.70824
-9.71948
-9.73149
-9.74397
-9.75667
-9.76926
-9.78156
-9.79354
-9.80519
-9.8165
-9.82746
-9.8381
-9.84845
-9.85853
-9.86839
-9.8781
-9.88773
-9.89739
-9.90721
-9.91739
-9.92814
-9.93977
-9.95263
-9.96713
-9.98374
-10.0029
-10.0251
-10.0505
-10.0792
-10.1108
-9.69846
-9.70047
-9.7059
-9.71441
-9.72471
-9.73591
-9.74767
-9.75974
-9.77182
-9.78376
-9.79548
-9.80695
-9.81817
-9.82913
-9.83983
-9.85032
-9.86061
-9.87077
-9.88085
-9.89095
-9.90117
-9.91164
-9.92256
-9.93412
-9.94658
-9.96025
-9.97545
-9.99253
-10.0118
-10.0335
-10.0578
-10.0845
-10.1133
-9.70548
-9.70741
-9.71247
-9.72025
-9.72974
-9.7402
-9.75131
-9.7628
-9.77442
-9.786
-9.79746
-9.80877
-9.8199
-9.83084
-9.84161
-9.85222
-9.86272
-9.87315
-9.88357
-9.89409
-9.9048
-9.91583
-9.92735
-9.93954
-9.95264
-9.96687
-9.98249
-9.99974
-10.0188
-10.0399
-10.0629
-10.0878
-10.1142
-9.71205
-9.71388
-9.71858
-9.72576
-9.73454
-9.74434
-9.75485
-9.76582
-9.777
-9.78825
-9.79947
-9.81062
-9.82166
-9.83258
-9.8434
-9.85413
-9.86481
-9.87548
-9.88621
-9.89709
-9.90821
-9.9197
-9.9317
-9.94438
-9.95791
-9.97248
-9.98829
-10.0055
-10.0242
-10.0445
-10.0663
-10.0895
-10.1138
-9.71815
-9.71987
-9.72426
-9.73091
-9.73908
-9.7483
-9.75827
-9.76876
-9.77955
-9.79048
-9.80147
-9.81246
-9.82342
-9.83432
-9.84518
-9.85601
-9.86684
-9.87772
-9.88872
-9.8999
-9.91136
-9.92321
-9.93557
-9.94858
-9.96238
-9.97712
-9.99292
-10.0099
-10.0281
-10.0476
-10.0682
-10.0898
-10.1122
-9.72378
-9.7254
-9.7295
-9.7357
-9.74335
-9.75204
-9.76153
-9.77159
-9.78201
-9.79266
-9.80343
-9.81427
-9.82514
-9.83602
-9.84691
-9.85782
-9.86879
-9.87984
-9.89105
-9.90247
-9.91419
-9.92631
-9.93892
-9.95214
-9.96607
-9.98082
-9.99647
-10.0131
-10.0307
-10.0493
-10.0687
-10.0889
-10.1097
-9.72893
-9.73045
-9.73429
-9.74011
-9.7473
-9.75554
-9.7646
-9.77427
-9.78436
-9.79474
-9.80532
-9.81601
-9.8268
-9.83765
-9.84856
-9.85953
-9.8706
-9.88179
-9.89316
-9.90477
-9.91668
-9.92897
-9.94173
-9.95504
-9.96898
-9.98362
-9.99901
-10.0152
-10.0322
-10.0499
-10.0682
-10.0871
-10.1063
-9.73358
-9.73502
-9.73864
-9.74411
-9.75092
-9.75876
-9.76744
-9.77676
-9.78656
-9.7967
-9.80709
-9.81765
-9.82836
-9.83917
-9.85009
-9.86111
-9.87225
-9.88354
-9.89503
-9.90676
-9.91879
-9.93118
-9.94399
-9.95729
-9.97114
-9.98557
-10.0006
-10.0163
-10.0326
-10.0494
-10.0667
-10.0844
-10.1023
-9.73774
-9.73909
-9.74252
-9.7477
-9.75417
-9.76166
-9.77001
-9.77903
-9.78857
-9.79849
-9.80871
-9.81916
-9.82978
-9.84055
-9.85146
-9.86251
-9.8737
-9.88505
-9.89661
-9.90841
-9.92049
-9.93291
-9.9457
-9.95891
-9.97258
-9.98674
-10.0014
-10.0165
-10.0321
-10.0481
-10.0644
-10.081
-10.0976
-9.74137
-9.74266
-9.74591
-9.75085
-9.75703
-9.76422
-9.77228
-9.78104
-9.79035
-9.80008
-9.81015
-9.82048
-9.83103
-9.84176
-9.85265
-9.8637
-9.87491
-9.8863
-9.89789
-9.90971
-9.92179
-9.93416
-9.94686
-9.95992
-9.97335
-9.98717
-10.0014
-10.0159
-10.0308
-10.046
-10.0614
-10.0769
-10.0924
-9.74447
-9.7457
-9.74881
-9.75353
-9.75947
-9.7664
-9.77422
-9.78275
-9.79186
-9.80142
-9.81136
-9.82159
-9.83207
-9.84275
-9.85362
-9.86466
-9.87587
-9.88726
-9.89884
-9.91063
-9.92265
-9.93493
-9.94749
-9.96034
-9.97348
-9.98693
-10.0007
-10.0146
-10.0289
-10.0432
-10.0577
-10.0722
-10.0867
-9.74701
-9.7482
-9.75117
-9.75572
-9.76144
-9.76817
-9.77577
-9.78411
-9.79306
-9.80249
-9.81231
-9.82246
-9.83287
-9.84351
-9.85434
-9.86535
-9.87654
-9.8879
-9.89944
-9.91116
-9.92309
-9.93524
-9.94761
-9.9602
-9.97302
-9.98606
-9.99929
-10.0127
-10.0262
-10.0399
-10.0535
-10.0671
-10.0806
-9.74897
-9.75011
-9.75298
-9.75737
-9.76292
-9.76947
-9.77691
-9.7851
-9.79391
-9.80323
-9.81296
-9.82303
-9.83339
-9.84398
-9.85478
-9.86576
-9.8769
-9.88821
-9.89968
-9.91131
-9.92311
-9.93508
-9.94723
-9.95954
-9.97201
-9.98462
-9.99736
-10.0102
-10.0231
-10.036
-10.0488
-10.0616
-10.0742
-9.75032
-9.75143
-9.7542
-9.75845
-9.76386
-9.77027
-9.77758
-9.78565
-9.79437
-9.8036
-9.81327
-9.82329
-9.8336
-9.84416
-9.85492
-9.86585
-9.87694
-9.88818
-9.89956
-9.91107
-9.92272
-9.93449
-9.94638
-9.95838
-9.97049
-9.98267
-9.99491
-10.0072
-10.0194
-10.0316
-10.0437
-10.0557
-10.0675
-9.75103
-9.7521
-9.75478
-9.75892
-9.76421
-9.77052
-9.77774
-9.78574
-9.79439
-9.80357
-9.8132
-9.82319
-9.83348
-9.844
-9.85472
-9.86561
-9.87664
-9.8878
-9.89907
-9.91045
-9.92192
-9.93347
-9.9451
-9.95679
-9.96852
-9.98027
-9.99201
-10.0037
-10.0154
-10.0269
-10.0383
-10.0496
-10.0606
-9.75105
-9.75209
-9.75469
-9.75872
-9.76392
-9.77016
-9.77733
-9.7853
-9.79393
-9.8031
-9.81272
-9.82271
-9.83298
-9.84349
-9.85418
-9.86503
-9.87599
-9.88706
-9.89822
-9.90944
-9.92072
-9.93205
-9.9434
-9.95476
-9.96611
-9.97744
-9.9887
-9.99988
-10.011
-10.0219
-10.0326
-10.0432
-10.0535
-9.75037
-9.75136
-9.75387
-9.75779
-9.76293
-9.76914
-9.77631
-9.78428
-9.79294
-9.80214
-9.81179
-9.8218
-9.8321
-9.84261
-9.85329
-9.8641
-9.87501
-9.886
-9.89704
-9.90812
-9.91921
-9.93031
-9.94139
-9.95243
-9.96342
-9.97433
-9.98514
-9.99582
-10.0063
-10.0167
-10.0268
-10.0367
-10.0463
-9.74894
-9.74988
-9.75226
-9.75606
-9.76114
-9.76737
-9.77459
-9.78264
-9.79137
-9.80065
-9.81038
-9.82044
-9.83077
-9.8413
-9.85197
-9.86275
-9.8736
-9.88449
-9.89541
-9.90632
-9.91722
-9.92808
-9.93889
-9.94961
-9.96024
-9.97075
-9.98112
-9.99132
-10.0013
-10.0111
-10.0207
-10.03
-10.039
-9.74674
-9.74759
-9.74977
-9.75341
-9.75847
-9.76478
-9.77211
-9.78029
-9.78917
-9.79861
-9.80849
-9.81869
-9.82913
-9.83974
-9.85047
-9.86127
-9.8721
-9.88295
-9.89377
-9.90456
-9.91529
-9.92595
-9.9365
-9.94693
-9.95723
-9.96736
-9.97732
-9.98707
-9.99659
-10.0059
-10.0149
-10.0236
-10.032
-9.74379
-9.74448
-9.74631
-9.74971
-9.75479
-9.76129
-9.76882
-9.77719
-9.78623
-9.79582
-9.8058
-9.81608
-9.82658
-9.83722
-9.84794
-9.85872
-9.8695
-9.88026
-9.89098
-9.90163
-9.91219
-9.92263
-9.93295
-9.94311
-9.9531
-9.96289
-9.97247
-9.98182
-9.99092
-9.99975
-10.0083
-10.0165
-10.0245
-9.74015
-9.74051
-9.74172
-9.74474
-9.74988
-9.75666
-9.7646
-9.77347
-9.78307
-9.79319
-9.80364
-9.81431
-9.82512
-9.836
-9.8469
-9.85777
-9.8686
-9.87934
-9.88999
-9.90052
-9.91092
-9.92115
-9.93122
-9.94109
-9.95076
-9.96019
-9.96939
-9.97832
-9.98697
-9.99532
-10.0034
-10.0111
-10.0184
-9.73605
-9.73566
-9.73571
-9.73841
-9.74384
-9.75072
-9.75847
-9.76714
-9.77665
-9.78673
-9.79719
-9.80791
-9.8188
-9.82977
-9.84077
-9.85173
-9.86264
-9.87345
-9.88414
-9.89468
-9.90507
-9.91526
-9.92525
-9.93502
-9.94455
-9.95382
-9.96282
-9.97153
-9.97994
-9.98803
-9.9958
-10.0032
-10.0104
-9.73216
-9.72994
-9.7271
-9.72943
-9.73691
-9.74647
-9.75666
-9.76736
-9.77845
-9.78968
-9.80093
-9.81215
-9.82331
-9.83438
-9.84533
-9.85614
-9.86681
-9.87732
-9.88766
-9.89781
-9.90777
-9.91752
-9.92704
-9.93631
-9.94534
-9.95408
-9.96255
-9.97071
-9.97855
-9.98606
-9.99323
-10
-10.0064
-9.72966
-9.72455
-9.71705
-9.71481
-9.71748
-9.72314
-9.73138
-9.74165
-9.75306
-9.76499
-9.7772
-9.78956
-9.80194
-9.81422
-9.82635
-9.83829
-9.85
-9.86148
-9.87271
-9.88367
-9.89435
-9.90474
-9.91484
-9.92462
-9.93408
-9.9432
-9.95198
-9.96041
-9.96848
-9.97619
-9.98353
-9.99051
-9.99717
-9.73016
-9.71027
-9.71313
-9.73298
-9.74981
-9.76083
-9.77081
-9.78143
-9.79202
-9.80221
-9.8122
-9.82215
-9.83206
-9.84191
-9.85168
-9.86137
-9.87096
-9.88043
-9.88978
-9.89897
-9.908
-9.91684
-9.92547
-9.93387
-9.94202
-9.94992
-9.95753
-9.96484
-9.97184
-9.97851
-9.98483
-9.99079
-9.99634
-9.76769
-9.64446
-9.58141
-9.58514
-9.60763
-9.62951
-9.65102
-9.67302
-9.69449
-9.7148
-9.73397
-9.7521
-9.76928
-9.78558
-9.80106
-9.81582
-9.82991
-9.84338
-9.85628
-9.86864
-9.88048
-9.89184
-9.90271
-9.91312
-9.92306
-9.93255
-9.94158
-9.95017
-9.95831
-9.966
-9.97326
-9.98008
-9.98648
-9.92764
-9.94082
-9.89954
-9.85743
-9.83356
-9.82319
-9.81888
-9.8172
-9.81768
-9.82033
-9.82474
-9.83035
-9.83681
-9.8439
-9.85148
-9.8594
-9.86755
-9.87584
-9.8842
-9.89256
-9.90088
-9.90911
-9.91721
-9.92514
-9.93287
-9.94038
-9.94763
-9.95461
-9.9613
-9.96768
-9.97373
-9.97945
-9.98479
-8.76343
-9.0638
-9.32895
-9.45503
-9.52016
-9.57645
-9.62622
-9.66491
-9.69502
-9.72046
-9.74295
-9.76302
-9.78109
-9.79763
-9.81299
-9.82737
-9.84091
-9.85373
-9.86591
-9.87752
-9.8886
-9.89917
-9.90927
-9.91891
-9.92809
-9.93683
-9.94513
-9.953
-9.96043
-9.96744
-9.97402
-9.98018
-9.98593
-9.40962
-11.0403
-10.8317
-10.6734
-10.7475
-10.8158
-10.8141
-10.782
-10.7424
-10.6986
-10.6597
-10.6423
-10.657
-10.703
-10.7724
-10.8573
-10.9515
-11.0511
-11.1522
-11.2513
-11.3445
-11.4285
-11.5001
-11.5563
-11.5943
-11.6114
-11.6056
-11.5757
-11.5221
-11.4476
-11.3573
-11.259
-11.1621
-11.0762
-11.0093
-10.9658
-10.9453
-10.9418
-10.9444
-10.9389
-10.9098
-10.8422
-10.7237
-10.5459
-10.3054
-10.0036
-9.64665
-9.24416
-8.80805
-8.35084
-7.88427
-7.41822
-6.96025
-6.51573
-6.0885
-5.68179
-5.29911
-4.94463
-4.62284
-4.33748
-4.09024
-3.88005
-3.70333
-3.55489
-3.42904
-3.32033
-3.22386
-3.13537
-3.05118
-2.96809
-2.8834
-2.79483
-2.70061
-2.59944
-2.49056
-2.37371
-2.24912
-2.11748
-1.97984
-1.83755
-1.69217
-1.54526
-1.39829
-1.25242
-1.10816
-0.965204
-0.823106
-0.678135
-0.51869
-0.347212
-0.201852
-0.122221
-0.102887
-0.104693
-0.104362
-0.100198
-0.0841424
-0.0825112
-0.0289426
-0.103028
-9.77699
-10.954
-10.7377
-10.5401
-10.6247
-10.7152
-10.7329
-10.722
-10.7035
-10.6738
-10.6402
-10.6228
-10.6373
-10.6849
-10.7571
-10.8435
-10.9372
-11.034
-11.1312
-11.2259
-11.3149
-11.3951
-11.4633
-11.5165
-11.5516
-11.5661
-11.5578
-11.5258
-11.4707
-11.3951
-11.3043
-11.2059
-11.109
-11.0232
-10.9566
-10.9137
-10.8941
-10.892
-10.8962
-10.8924
-10.8645
-10.7973
-10.6786
-10.5002
-10.2589
-9.95674
-9.60028
-9.19948
-8.7663
-8.31318
-7.8516
-7.39114
-6.93906
-6.5004
-6.07867
-5.67679
-5.29798
-4.94626
-4.62621
-4.34193
-4.09564
-3.88677
-3.71202
-3.56628
-3.4437
-3.33854
-3.24566
-3.16051
-3.07922
-2.99843
-2.91534
-2.82765
-2.7336
-2.63196
-2.52205
-2.40373
-2.27737
-2.14375
-2.00406
-1.85973
-1.71238
-1.56361
-1.41487
-1.26726
-1.12115
-0.976098
-0.83148
-0.681988
-0.513182
-0.328515
-0.171814
-0.0903424
-0.075712
-0.0810989
-0.0824344
-0.0791362
-0.0638776
-0.0631598
-0.0127924
-0.0871844
-9.93213
-10.5673
-10.5794
-10.4905
-10.5679
-10.6582
-10.6913
-10.6958
-10.6879
-10.6638
-10.6304
-10.6093
-10.6191
-10.664
-10.7355
-10.822
-10.9147
-11.0091
-11.1025
-11.1927
-11.2773
-11.3534
-11.418
-11.4681
-11.5007
-11.5131
-11.5033
-11.4704
-11.4152
-11.3403
-11.2509
-11.1541
-11.0587
-10.9739
-10.9075
-10.864
-10.8434
-10.8399
-10.8427
-10.8375
-10.8082
-10.7397
-10.6199
-10.4409
-10.2
-9.89946
-9.54613
-9.14996
-8.72272
-8.27646
-7.82224
-7.36926
-6.92446
-6.49269
-6.07728
-5.68096
-5.30672
-4.95836
-4.64039
-4.35708
-4.11108
-3.90236
-3.72809
-3.58338
-3.46238
-3.35921
-3.26847
-3.1854
-3.10592
-3.02652
-2.94431
-2.85695
-2.7627
-2.66037
-2.54936
-2.42965
-2.30168
-2.16635
-2.02494
-1.87893
-1.72997
-1.57967
-1.42945
-1.28034
-1.13255
-0.985524
-0.838403
-0.684671
-0.508109
-0.313532
-0.148972
-0.0665054
-0.0546495
-0.061678
-0.063469
-0.0602411
-0.0454674
-0.0450473
0.00141626
-0.0715152
-9.98738
-10.3809
-10.5235
-10.5063
-10.5548
-10.6299
-10.6707
-10.6828
-10.6786
-10.6588
-10.6307
-10.6125
-10.6211
-10.6611
-10.7262
-10.806
-10.8919
-10.9792
-11.0658
-11.1497
-11.2289
-11.3004
-11.3615
-11.4088
-11.4395
-11.4508
-11.4408
-11.4088
-11.3554
-11.2834
-11.1974
-11.1042
-11.0118
-10.9288
-10.8625
-10.8174
-10.7935
-10.7856
-10.7835
-10.7734
-10.7397
-10.6678
-10.5459
-10.3665
-10.1272
-9.83036
-9.48283
-9.09427
-8.67595
-8.23931
-7.79483
-7.35124
-6.91522
-6.49149
-6.08336
-5.6935
-5.32474
-4.98063
-4.66542
-4.38335
-4.13733
-3.92785
-3.75265
-3.60724
-3.48598
-3.38296
-3.29264
-3.21008
-3.13103
-3.05186
-2.9696
-2.88187
-2.78694
-2.68365
-2.57148
-2.45046
-2.32112
-2.18443
-2.04171
-1.89448
-1.74439
-1.593
-1.4417
-1.29141
-1.14222
-0.993436
-0.843957
-0.686577
-0.504381
-0.303555
-0.134794
-0.0518268
-0.0408714
-0.0479856
-0.0492803
-0.0454402
-0.0307635
-0.030083
0.0123598
-0.0579475
-10.0422
-10.3128
-10.4695
-10.4878
-10.5251
-10.5921
-10.6377
-10.6535
-10.6508
-10.6363
-10.6178
-10.6088
-10.6218
-10.6608
-10.7213
-10.7947
-10.8735
-10.9534
-11.0323
-11.1088
-11.181
-11.2465
-11.3024
-11.3457
-11.3735
-11.3833
-11.3733
-11.3428
-11.2924
-11.2246
-11.1436
-11.0555
-10.9675
-10.887
-10.8208
-10.773
-10.7439
-10.7288
-10.7186
-10.7004
-10.6595
-10.5822
-10.4572
-10.2774
-10.0405
-9.74916
-9.40964
-9.03112
-8.62414
-8.19936
-7.76658
-7.33403
-6.90814
-6.49356
-6.09369
-5.71122
-5.34892
-5.0101
-4.69867
-4.41856
-4.17275
-3.9621
-3.78497
-3.63748
-3.51433
-3.40979
-3.31828
-3.23477
-3.15486
-3.07484
-2.99164
-2.90288
-2.80681
-2.70231
-2.5889
-2.46666
-2.33617
-2.19843
-2.05479
-1.90676
-1.75596
-1.60391
-1.4519
-1.30079
-1.15053
-1.00029
-0.848764
-0.68855
-0.502997
-0.299303
-0.129169
-0.0453369
-0.0332487
-0.0390908
-0.0391423
-0.034162
-0.0192637
-0.0178678
0.0206232
-0.0462451
-10.0832
-10.2741
-10.4127
-10.4578
-10.4985
-10.5571
-10.5998
-10.6165
-10.6176
-10.6117
-10.6048
-10.6055
-10.6226
-10.6599
-10.7147
-10.7807
-10.8518
-10.9243
-10.996
-11.0657
-11.1316
-11.1914
-11.2425
-11.2819
-11.3069
-11.3153
-11.3053
-11.2764
-11.2293
-11.1661
-11.0907
-11.0082
-10.9249
-10.8473
-10.7811
-10.7299
-10.6941
-10.6698
-10.6488
-10.6198
-10.5694
-10.4849
-10.3558
-10.1756
-9.94202
-9.65737
-9.32747
-8.9607
-8.5667
-8.15528
-7.73552
-7.31517
-6.9004
-6.49586
-6.10502
-5.73071
-5.37569
-5.0431
-4.73646
-4.45934
-4.21447
-4.0029
-3.82347
-3.67296
-3.54665
-3.43915
-3.34503
-3.25924
-3.17732
-3.09547
-3.01059
-2.92023
-2.82266
-2.71677
-2.60211
-2.47876
-2.34735
-2.20889
-2.06469
-1.91627
-1.76517
-1.61286
-1.46053
-1.30893
-1.15797
-1.00666
-0.853544
-0.691468
-0.504865
-0.301375
-0.131977
-0.0464657
-0.0311461
-0.0344228
-0.0325775
-0.026014
-0.0106125
-0.00810774
0.026642
-0.0361976
-10.1097
-10.2506
-10.3692
-10.4286
-10.472
-10.5213
-10.5597
-10.5792
-10.5872
-10.591
-10.5943
-10.6026
-10.6222
-10.6571
-10.7062
-10.7653
-10.8293
-10.8948
-10.9598
-11.0229
-11.0826
-11.1366
-11.1825
-11.2176
-11.2394
-11.2459
-11.2356
-11.2082
-11.1641
-11.1054
-11.0354
-10.9585
-10.8801
-10.8056
-10.7397
-10.6855
-10.6431
-10.6091
-10.5766
-10.5354
-10.4742
-10.3814
-10.2476
-10.0668
-9.83682
-9.55948
-9.23991
-8.88559
-8.50523
-8.10778
-7.70161
-7.29401
-6.8909
-6.49689
-6.11555
-5.74982
-5.40251
-5.07664
-4.77546
-4.50212
-4.25906
-4.04727
-3.86586
-3.71213
-3.58199
-3.47053
-3.37265
-3.28345
-3.1985
-3.11397
-3.02674
-2.93433
-2.83498
-2.72759
-2.61171
-2.48743
-2.35535
-2.21648
-2.0721
-1.92366
-1.77264
-1.62041
-1.46808
-1.31633
-1.16499
-1.01301
-0.858812
-0.695843
-0.510272
-0.309641
-0.142543
-0.0546245
-0.034186
-0.0336762
-0.0293387
-0.0208104
-0.00464313
-0.000686609
0.0306677
-0.0277512
-10.127
-10.2365
-10.3366
-10.3995
-10.4439
-10.4872
-10.5235
-10.5469
-10.5617
-10.5729
-10.5834
-10.5966
-10.6176
-10.6501
-10.6944
-10.7475
-10.8055
-10.865
-10.9241
-10.9813
-11.0351
-11.0835
-11.1242
-11.1548
-11.1732
-11.1775
-11.1665
-11.1399
-11.0983
-11.0433
-10.9778
-10.9057
-10.8315
-10.7597
-10.6942
-10.6373
-10.589
-10.5461
-10.5027
-10.4501
-10.3782
-10.2772
-10.1387
-9.95727
-9.73073
-9.46058
-9.15123
-8.80926
-8.44245
-8.05892
-7.66637
-7.2716
-6.88029
-6.49696
-6.12525
-5.76819
-5.42866
-5.10958
-4.81399
-4.54473
-4.30394
-4.0925
-3.90965
-3.75304
-3.61903
-3.50324
-3.40097
-3.30759
-3.21884
-3.13097
-3.04083
-2.94598
-2.84463
-2.73568
-2.61863
-2.49358
-2.36108
-2.22209
-2.07783
-1.92968
-1.77903
-1.62716
-1.4751
-1.32344
-1.17198
-1.01967
-0.864876
-0.70185
-0.518956
-0.323288
-0.159601
-0.0689245
-0.0419407
-0.0365508
-0.0291837
-0.0183712
-0.00119803
0.00449789
0.032914
-0.0208708
-10.1382
-10.2265
-10.3109
-10.3721
-10.4168
-10.4572
-10.4925
-10.5189
-10.5385
-10.5547
-10.5698
-10.5864
-10.6084
-10.6393
-10.6798
-10.7279
-10.7806
-10.8349
-10.8886
-10.9404
-10.9886
-11.0316
-11.0673
-11.0935
-11.1085
-11.1106
-11.0987
-11.0727
-11.0329
-10.981
-10.9193
-10.8513
-10.7805
-10.7109
-10.6455
-10.5861
-10.5324
-10.4817
-10.4286
-10.3656
-10.2842
-10.1757
-10.0329
-9.85079
-9.62755
-9.36426
-9.06468
-8.73456
-8.38082
-8.01078
-7.63148
-7.24928
-6.86959
-6.49685
-6.13471
-5.78626
-5.4544
-5.14198
-4.85186
-4.58663
-4.3482
-4.13734
-3.95337
-3.7942
-3.65658
-3.53653
-3.42973
-3.33187
-3.23892
-3.14727
-3.05387
-2.9563
-2.85279
-2.74221
-2.62404
-2.49832
-2.36557
-2.22666
-2.08273
-1.93507
-1.78499
-1.63367
-1.48204
-1.33064
-1.17925
-1.02687
-0.871898
-0.709475
-0.530382
-0.341165
-0.181621
-0.0882388
-0.053894
-0.0427147
-0.0318362
-0.01848
-8.82275e-05
0.0075759
0.033592
-0.0154943
-10.145
-10.2184
-10.2902
-10.3476
-10.3919
-10.4307
-10.4651
-10.4932
-10.5158
-10.5353
-10.5537
-10.5729
-10.596
-10.6257
-10.6631
-10.7069
-10.7548
-10.8042
-10.853
-10.8996
-10.9426
-10.9805
-11.0115
-11.0336
-11.0454
-11.0453
-11.0325
-11.0067
-10.9684
-10.919
-10.8604
-10.7956
-10.7277
-10.6597
-10.5942
-10.5324
-10.474
-10.4164
-10.3548
-10.2829
-10.1931
-10.0781
-9.93158
-9.74917
-9.52912
-9.27228
-8.98188
-8.66292
-8.32154
-7.96432
-7.59772
-7.22766
-6.85928
-6.49691
-6.14418
-5.8042
-5.47988
-5.17397
-4.88917
-4.62785
-4.39174
-4.18152
-3.9966
-3.8351
-3.69409
-3.56996
-3.45873
-3.35639
-3.25915
-3.16358
-3.06675
-2.96632
-2.86054
-2.74828
-2.62899
-2.50266
-2.36973
-2.23099
-2.0875
-1.94043
-1.791
-1.64031
-1.4892
-1.33816
-1.18698
-1.03474
-0.879935
-0.718615
-0.54395
-0.362062
-0.20712
-0.111345
-0.0694674
-0.0518324
-0.0370099
-0.0208984
-0.00110277
0.00870059
0.032904
-0.0115292
-10.1488
-10.2112
-10.2731
-10.3261
-10.3692
-10.4066
-10.4401
-10.4689
-10.4934
-10.5152
-10.536
-10.5572
-10.5811
-10.6099
-10.6446
-10.6846
-10.7281
-10.7729
-10.8169
-10.8587
-10.8969
-10.93
-10.9566
-10.9749
-10.9836
-10.9814
-10.9676
-10.942
-10.9048
-10.8574
-10.8013
-10.7391
-10.6733
-10.6065
-10.5406
-10.4766
-10.414
-10.3502
-10.2814
-10.2017
-10.1048
-9.98436
-9.8348
-9.65237
-9.43547
-9.18475
-8.90295
-8.59446
-8.26472
-7.91966
-7.56518
-7.2068
-6.84938
-6.49713
-6.15362
-5.82197
-5.50501
-5.20546
-4.92583
-4.66833
-4.4345
-4.22496
-4.0392
-3.87555
-3.73137
-3.60336
-3.48787
-3.38117
-3.27971
-3.18025
-3.07999
-2.97667
-2.86859
-2.75462
-2.6342
-2.50725
-2.37415
-2.23559
-2.09254
-1.94608
-1.79732
-1.64727
-1.49672
-1.34609
-1.19522
-1.04329
-0.888956
-0.72912
-0.559125
-0.384872
-0.234827
-0.137065
-0.0880319
-0.063584
-0.0444332
-0.0253826
-0.00401846
0.00804297
0.0310381
-0.00885324
-10.1503
-10.2044
-10.2586
-10.3072
-10.3484
-10.3845
-10.417
-10.4459
-10.4715
-10.4948
-10.5172
-10.5398
-10.5643
-10.5922
-10.6246
-10.6611
-10.7005
-10.7408
-10.7804
-10.8177
-10.8513
-10.88
-10.9025
-10.9173
-10.9231
-10.919
-10.9042
-10.8784
-10.8421
-10.7962
-10.7422
-10.682
-10.6178
-10.5517
-10.4852
-10.419
-10.3525
-10.2834
-10.2081
-10.1217
-10.0188
-9.89376
-9.74183
-9.55973
-9.34597
-9.10109
-8.82743
-8.52882
-8.2101
-7.8766
-7.53372
-7.18658
-6.83981
-6.49742
-6.16294
-5.83943
-5.5297
-5.23634
-4.96175
-4.70794
-4.47635
-4.26753
-4.08104
-3.91539
-3.76822
-3.63653
-3.51697
-3.40608
-3.30054
-3.19728
-3.09365
-2.98749
-2.87713
-2.76146
-2.6399
-2.51232
-2.37902
-2.24063
-2.09799
-1.95211
-1.804
-1.65458
-1.50459
-1.35443
-1.20396
-1.05249
-0.898881
-0.740822
-0.575483
-0.408697
-0.263719
-0.164397
-0.108916
-0.0776601
-0.0538686
-0.0317003
-0.00860943
0.00578852
0.0281675
-0.00731217
-10.1502
-10.1979
-10.2459
-10.2902
-10.3292
-10.3639
-10.3953
-10.424
-10.45
-10.4743
-10.4977
-10.5211
-10.5457
-10.5727
-10.603
-10.6364
-10.672
-10.7082
-10.7435
-10.7764
-10.8058
-10.8305
-10.8491
-10.8606
-10.8638
-10.8578
-10.8419
-10.8159
-10.7802
-10.7355
-10.683
-10.6243
-10.5613
-10.4956
-10.4284
-10.36
-10.2899
-10.2159
-10.135
-10.0429
-9.9348
-9.80592
-9.65217
-9.47065
-9.26005
-9.02078
-8.75485
-8.46561
-8.15736
-7.8349
-7.50316
-7.16689
-6.83043
-6.49768
-6.17203
-5.8565
-5.55383
-5.26652
-4.99682
-4.74662
-4.51722
-4.30916
-4.12203
-3.95453
-3.80454
-3.66935
-3.54588
-3.43095
-3.32146
-3.21452
-3.10762
-2.99867
-2.88607
-2.76873
-2.64602
-2.5178
-2.38428
-2.24601
-2.10376
-1.95843
-1.81094
-1.66215
-1.51274
-1.36308
-1.2131
-1.06225
-0.909602
-0.753546
-0.59271
-0.432887
-0.292971
-0.192584
-0.131446
-0.0937324
-0.0651176
-0.0396493
-0.014661
0.00212966
0.0244476
-0.00672149
-10.1488
-10.1913
-10.2342
-10.2748
-10.3115
-10.3446
-10.375
-10.403
-10.4291
-10.4538
-10.4776
-10.5014
-10.5258
-10.5518
-10.5801
-10.6106
-10.6426
-10.6749
-10.7062
-10.7351
-10.7606
-10.7814
-10.7966
-10.805
-10.8056
-10.7977
-10.7807
-10.7544
-10.719
-10.6751
-10.6237
-10.5662
-10.504
-10.4384
-10.3703
-10.2999
-10.2264
-10.1482
-10.0624
-9.96522
-9.85268
-9.72062
-9.5655
-9.3848
-9.17736
-8.94348
-8.68491
-8.40458
-8.1063
-7.79439
-7.47336
-7.14759
-6.82117
-6.49781
-6.1808
-5.87308
-5.57731
-5.29589
-5.03097
-4.78429
-4.55706
-4.34977
-4.16211
-3.99291
-3.84026
-3.70174
-3.57453
-3.4557
-3.34238
-3.23185
-3.12174
-3.01006
-2.89526
-2.77625
-2.65241
-2.52353
-2.38978
-2.25161
-2.10971
-1.9649
-1.81802
-1.66987
-1.52106
-1.37198
-1.22259
-1.07249
-0.921006
-0.767121
-0.61057
-0.457036
-0.321943
-0.22104
-0.15503
-0.111422
-0.0779991
-0.0490694
-0.0219866
-0.00274597
0.0200137
-0.00687096
-10.1463
-10.1846
-10.2234
-10.2605
-10.2949
-10.3264
-10.3556
-10.3829
-10.4086
-10.4332
-10.4571
-10.4807
-10.5047
-10.5296
-10.5559
-10.5837
-10.6125
-10.6412
-10.6687
-10.6939
-10.7156
-10.7329
-10.7447
-10.7502
-10.7485
-10.7388
-10.7206
-10.6938
-10.6584
-10.6151
-10.5645
-10.5078
-10.4461
-10.3804
-10.3113
-10.2389
-10.1625
-10.0804
-9.99021
-9.88874
-9.77243
-9.63775
-9.48166
-9.30198
-9.09767
-8.86899
-8.61743
-8.34558
-8.0568
-7.755
-7.44425
-7.12862
-6.81195
-6.49774
-6.18916
-5.88908
-5.60005
-5.32439
-5.06412
-4.82087
-4.59578
-4.38932
-4.20122
-4.03045
-3.87533
-3.73365
-3.60287
-3.48029
-3.36325
-3.24923
-3.13598
-3.0216
-2.90462
-2.78395
-2.65896
-2.5294
-2.39538
-2.25729
-2.11572
-1.97142
-1.82515
-1.67764
-1.52948
-1.38104
-1.23234
-1.08314
-0.932986
-0.781386
-0.628877
-0.480922
-0.350206
-0.249262
-0.179178
-0.130308
-0.0922992
-0.0598313
-0.0304414
-0.00867346
0.0149722
-0.00753931
-10.143
-10.1777
-10.213
-10.2471
-10.2792
-10.3091
-10.337
-10.3634
-10.3885
-10.4127
-10.4362
-10.4594
-10.4827
-10.5063
-10.5308
-10.5561
-10.5817
-10.6071
-10.631
-10.6527
-10.6709
-10.6849
-10.6937
-10.6964
-10.6924
-10.6809
-10.6615
-10.6341
-10.5986
-10.5555
-10.5055
-10.4493
-10.3878
-10.3217
-10.2516
-10.1773
-10.0982
-10.0127
-9.91873
-9.81353
-9.69405
-9.55726
-9.40056
-9.22206
-9.02086
-8.79718
-8.55232
-8.28852
-8.00881
-7.71666
-7.41579
-7.10995
-6.80271
-6.4974
-6.19706
-5.90443
-5.62198
-5.35194
-5.0962
-4.85632
-4.63335
-4.42775
-4.23931
-4.06712
-3.90969
-3.76504
-3.63086
-3.50469
-3.38406
-3.26664
-3.15031
-3.03328
-2.91412
-2.79179
-2.66563
-2.53537
-2.40105
-2.263
-2.12174
-1.97793
-1.83226
-1.68542
-1.53795
-1.39021
-1.24232
-1.09413
-0.945449
-0.796198
-0.647478
-0.504433
-0.377556
-0.276849
-0.203457
-0.149965
-0.107726
-0.0717896
-0.0399156
-0.0155239
0.00939627
-0.00851438
-10.139
-10.1707
-10.2028
-10.2343
-10.2643
-10.2925
-10.3191
-10.3444
-10.3687
-10.3922
-10.4151
-10.4376
-10.4599
-10.4822
-10.5048
-10.5277
-10.5505
-10.5727
-10.5933
-10.6116
-10.6266
-10.6375
-10.6433
-10.6435
-10.6372
-10.624
-10.6034
-10.5752
-10.5395
-10.4964
-10.4466
-10.3906
-10.3291
-10.2626
-10.1914
-10.1154
-10.0338
-9.94529
-9.84805
-9.73967
-9.61756
-9.47912
-9.32212
-9.14496
-8.94685
-8.72799
-8.4895
-8.23338
-7.96229
-7.67936
-7.38797
-7.09155
-6.79344
-6.49677
-6.20443
-5.91907
-5.64304
-5.37846
-5.12716
-4.89057
-4.66971
-4.46501
-4.27632
-4.10286
-3.94329
-3.79586
-3.65846
-3.52886
-3.40478
-3.28406
-3.16473
-3.04509
-2.92378
-2.79978
-2.67243
-2.54144
-2.40679
-2.26874
-2.12776
-1.98442
-1.83936
-1.69319
-1.54644
-1.39948
-1.25247
-1.10541
-0.958307
-0.811428
-0.666243
-0.527513
-0.403943
-0.303567
-0.227492
-0.169989
-0.123913
-0.0847146
-0.0502899
-0.0232023
0.00332583
-0.00962659
-10.1343
-10.1634
-10.1929
-10.222
-10.2499
-10.2765
-10.3017
-10.3259
-10.3492
-10.3718
-10.3938
-10.4153
-10.4365
-10.4574
-10.4781
-10.4987
-10.5189
-10.5381
-10.5557
-10.5708
-10.5827
-10.5906
-10.5938
-10.5915
-10.5831
-10.5682
-10.5463
-10.5173
-10.4811
-10.4379
-10.3881
-10.3321
-10.2703
-10.2033
-10.131
-10.0533
-9.96946
-9.87835
-9.7783
-9.66725
-9.54299
-9.4033
-9.2463
-9.0706
-8.87556
-8.66135
-8.42895
-8.18012
-7.91724
-7.6431
-7.36078
-7.07341
-6.78411
-6.49581
-6.21125
-5.93294
-5.66316
-5.40392
-5.15693
-4.92358
-4.70481
-4.50105
-4.31221
-4.13761
-3.97608
-3.82604
-3.68561
-3.55275
-3.42537
-3.30148
-3.17924
-3.05704
-2.9336
-2.80793
-2.67938
-2.54762
-2.4126
-2.27453
-2.13379
-1.99089
-1.84642
-1.70094
-1.55495
-1.40882
-1.26278
-1.11694
-0.971483
-0.82696
-0.685061
-0.550127
-0.429389
-0.329341
-0.251038
-0.190042
-0.140487
-0.0982734
-0.0613595
-0.0316011
-0.00320761
-0.0107812
-10.1291
-10.1558
-10.183
-10.2099
-10.236
-10.2609
-10.2848
-10.3077
-10.3299
-10.3514
-10.3724
-10.3927
-10.4126
-10.432
-10.451
-10.4694
-10.487
-10.5035
-10.5181
-10.5303
-10.5393
-10.5445
-10.545
-10.5404
-10.53
-10.5134
-10.4902
-10.4603
-10.4235
-10.38
-10.3299
-10.2737
-10.2116
-10.1439
-10.0705
-9.99128
-9.90548
-9.81208
-9.70962
-9.59636
-9.47037
-9.32981
-9.17305
-8.99895
-8.80695
-8.59722
-8.37063
-8.12874
-7.87365
-7.60789
-7.33423
-7.05556
-6.77473
-6.49451
-6.21748
-5.94603
-5.68231
-5.42825
-5.18548
-4.9553
-4.73861
-4.53584
-4.34694
-4.17134
-4.00801
-3.85555
-3.71227
-3.57632
-3.4458
-3.31886
-3.19379
-3.06911
-2.94358
-2.81625
-2.68648
-2.55393
-2.41851
-2.28037
-2.13984
-1.99737
-1.85348
-1.70869
-1.56348
-1.41823
-1.27321
-1.12866
-0.984904
-0.842693
-0.703833
-0.572244
-0.453936
-0.354182
-0.273979
-0.209905
-0.15716
-0.112121
-0.0728157
-0.0405169
-0.0101229
-0.0119694
-10.1233
-10.148
-10.1731
-10.1981
-10.2223
-10.2457
-10.2681
-10.2898
-10.3107
-10.3311
-10.3508
-10.37
-10.3885
-10.4063
-10.4234
-10.4397
-10.455
-10.4688
-10.4808
-10.4902
-10.4965
-10.499
-10.4971
-10.4903
-10.4779
-10.4597
-10.4352
-10.4042
-10.3667
-10.3227
-10.2723