/*--------------------------------*- C++ -*----------------------------------*\
  =========                 |
  \\      /  F ield         | OpenFOAM: The Open Source CFD Toolbox
   \\    /   O peration     | Website:  https://openfoam.org
    \\  /    A nd           | Version:  10
     \\/     M anipulation  |
\*---------------------------------------------------------------------------*/
FoamFile
{
    format      ascii;
    class       surfaceScalarField;
    location    "300";
    object      phi;
}
// * * * * * * * * * * * * * * * * * * * * * * * * * * * * * * * * * * * * * //

dimensions      [0 3 -1 0 0 0 0];

internalField   nonuniform List<scalar> 
13452
(
6.02919e-05
-2.34574e-08
5.99935e-05
2.98411e-07
5.95891e-05
4.04442e-07
5.91145e-05
4.74521e-07
5.86097e-05
5.04854e-07
5.81279e-05
4.81805e-07
5.76912e-05
4.36738e-07
5.72998e-05
3.91371e-07
5.69483e-05
3.51492e-07
5.66309e-05
3.1744e-07
5.63421e-05
2.88708e-07
5.60776e-05
2.64577e-07
5.58333e-05
2.44232e-07
5.56064e-05
2.26934e-07
5.53943e-05
2.12109e-07
5.5195e-05
1.99332e-07
5.50067e-05
1.88295e-07
5.48279e-05
1.78786e-07
5.46572e-05
1.70671e-07
5.44933e-05
1.63893e-07
5.43349e-05
1.58468e-07
5.41803e-05
1.54509e-07
5.40281e-05
1.52254e-07
5.3876e-05
1.52135e-07
5.37211e-05
1.54883e-07
5.35592e-05
1.61884e-07
5.33837e-05
1.75486e-07
5.31843e-05
1.99447e-07
5.29379e-05
2.46315e-07
5.26146e-05
3.23352e-07
5.21276e-05
4.86968e-07
5.14632e-05
6.6446e-07
1.37402e-06
5.00891e-05
6.21472e-05
-1.8035e-07
6.21733e-05
2.72364e-07
6.21951e-05
3.82629e-07
6.22113e-05
4.58295e-07
6.22112e-05
5.05017e-07
6.21808e-05
5.1221e-07
6.21187e-05
4.98784e-07
6.20312e-05
4.78892e-07
6.19258e-05
4.56861e-07
6.18091e-05
4.34137e-07
6.1686e-05
4.11868e-07
6.15597e-05
3.90812e-07
6.14327e-05
3.71272e-07
6.13063e-05
3.53309e-07
6.11815e-05
3.36901e-07
6.10589e-05
3.22001e-07
6.09386e-05
3.08559e-07
6.08208e-05
2.96539e-07
6.07056e-05
2.85935e-07
6.05927e-05
2.76783e-07
6.0482e-05
2.69177e-07
6.03732e-05
2.63295e-07
6.0266e-05
2.59437e-07
6.01601e-05
2.58085e-07
6.00549e-05
2.60022e-07
5.99503e-05
2.66501e-07
5.98459e-05
2.79895e-07
5.9743e-05
3.02313e-07
5.9645e-05
3.44302e-07
5.95586e-05
4.09824e-07
5.95181e-05
5.27434e-07
5.95829e-05
5.99642e-07
1.20923e-06
5.97477e-05
6.36687e-05
-8.76092e-08
6.37275e-05
2.13566e-07
6.37875e-05
3.22632e-07
6.38508e-05
3.9497e-07
6.39054e-05
4.50423e-07
6.39418e-05
4.75772e-07
6.396e-05
4.80625e-07
6.39626e-05
4.76267e-07
6.39523e-05
4.67152e-07
6.39314e-05
4.55012e-07
6.39021e-05
4.41247e-07
6.38659e-05
4.26927e-07
6.38245e-05
4.12682e-07
6.3779e-05
3.98865e-07
6.37302e-05
3.85704e-07
6.36788e-05
3.73363e-07
6.36254e-05
3.61972e-07
6.35703e-05
3.51645e-07
6.35137e-05
3.42507e-07
6.34558e-05
3.34711e-07
6.33965e-05
3.28468e-07
6.33357e-05
3.24074e-07
6.32732e-05
3.2196e-07
6.32085e-05
3.22757e-07
6.31411e-05
3.27433e-07
6.30702e-05
3.37395e-07
6.29949e-05
3.55183e-07
6.29141e-05
3.83133e-07
6.28286e-05
4.29838e-07
6.27397e-05
4.987e-07
6.26631e-05
6.04023e-07
6.25432e-05
7.19533e-07
1.05571e-06
6.26967e-05
6.55168e-05
-2.1356e-08
6.55578e-05
1.72635e-07
6.55946e-05
2.85795e-07
6.56354e-05
3.54163e-07
6.56776e-05
4.08257e-07
6.57142e-05
4.39091e-07
6.57438e-05
4.51084e-07
6.57664e-05
4.53607e-07
6.57825e-05
4.51109e-07
6.57923e-05
4.45204e-07
6.57964e-05
4.37105e-07
6.57956e-05
4.27817e-07
6.57902e-05
4.18e-07
6.5781e-05
4.08069e-07
6.57684e-05
3.98324e-07
6.57528e-05
3.89011e-07
6.57344e-05
3.80338e-07
6.57135e-05
3.72499e-07
6.56904e-05
3.65695e-07
6.56649e-05
3.60162e-07
6.56372e-05
3.5619e-07
6.56071e-05
3.54162e-07
6.55745e-05
3.54604e-07
6.5539e-05
3.58245e-07
6.55003e-05
3.66146e-07
6.54579e-05
3.79785e-07
6.54115e-05
4.01529e-07
6.53607e-05
4.33899e-07
6.53076e-05
4.82945e-07
6.52545e-05
5.51842e-07
6.52097e-05
6.48795e-07
6.51578e-05
7.71428e-07
9.84121e-07
6.52294e-05
6.74275e-05
7.96116e-09
6.74477e-05
1.52362e-07
6.74711e-05
2.62447e-07
6.7499e-05
3.26259e-07
6.7532e-05
3.75291e-07
6.75643e-05
4.06738e-07
6.75935e-05
4.21947e-07
6.7619e-05
4.2806e-07
6.76409e-05
4.29196e-07
6.76592e-05
4.26906e-07
6.7674e-05
4.22279e-07
6.76856e-05
4.16258e-07
6.76941e-05
4.09491e-07
6.76998e-05
4.02403e-07
6.77028e-05
3.95316e-07
6.77033e-05
3.88499e-07
6.77014e-05
3.82193e-07
6.76973e-05
3.76629e-07
6.7691e-05
3.7205e-07
6.76824e-05
3.68732e-07
6.76716e-05
3.67013e-07
6.76584e-05
3.67323e-07
6.76428e-05
3.7023e-07
6.76245e-05
3.76499e-07
6.76035e-05
3.87179e-07
6.75796e-05
4.03678e-07
6.75531e-05
4.28019e-07
6.75245e-05
4.6246e-07
6.74965e-05
5.10994e-07
6.74723e-05
5.76015e-07
6.74594e-05
6.61734e-07
6.74613e-05
7.69535e-07
9.11814e-07
6.75336e-05
6.93699e-05
2.21179e-08
6.93824e-05
1.39788e-07
6.94038e-05
2.41084e-07
6.94278e-05
3.02283e-07
6.94554e-05
3.47641e-07
6.94835e-05
3.78719e-07
6.95097e-05
3.95696e-07
6.95339e-05
4.03897e-07
6.95559e-05
4.07132e-07
6.95759e-05
4.06992e-07
6.95936e-05
4.04518e-07
6.96093e-05
4.006e-07
6.96229e-05
3.95877e-07
6.96345e-05
3.90778e-07
6.96442e-05
3.85629e-07
6.9652e-05
3.80712e-07
6.96579e-05
3.7628e-07
6.96619e-05
3.72581e-07
6.96641e-05
3.69876e-07
6.96644e-05
3.68463e-07
6.96627e-05
3.68696e-07
6.9659e-05
3.7102e-07
6.96532e-05
3.76004e-07
6.96454e-05
3.84383e-07
6.96354e-05
3.97122e-07
6.96236e-05
4.15448e-07
6.96107e-05
4.40969e-07
6.95977e-05
4.7544e-07
6.95874e-05
5.21294e-07
6.95835e-05
5.79907e-07
6.95925e-05
6.52765e-07
6.96225e-05
7.3951e-07
8.35844e-07
6.96985e-05
7.13588e-05
2.9679e-08
7.13693e-05
1.29262e-07
7.13899e-05
2.20439e-07
7.14124e-05
2.79838e-07
7.14371e-05
3.22885e-07
7.14625e-05
3.53385e-07
7.14867e-05
3.7151e-07
7.15094e-05
3.812e-07
7.15306e-05
3.85897e-07
7.15503e-05
3.87246e-07
7.15686e-05
3.86267e-07
7.15854e-05
3.83821e-07
7.16007e-05
3.80544e-07
7.16146e-05
3.76876e-07
7.16271e-05
3.73158e-07
7.16381e-05
3.69676e-07
7.16477e-05
3.66696e-07
7.16558e-05
3.64473e-07
7.16624e-05
3.63276e-07
7.16675e-05
3.63406e-07
7.16709e-05
3.65218e-07
7.16728e-05
3.69143e-07
7.16731e-05
3.75716e-07
7.16719e-05
3.856e-07
7.16694e-05
3.99621e-07
7.16661e-05
4.18773e-07
7.16628e-05
4.44233e-07
7.16611e-05
4.77195e-07
7.16634e-05
5.18945e-07
7.16734e-05
5.69915e-07
7.16963e-05
6.29839e-07
7.17393e-05
6.96501e-07
7.62013e-07
7.18132e-05
7.34019e-05
3.30598e-08
7.34114e-05
1.19733e-07
7.34305e-05
2.01393e-07
7.34518e-05
2.58528e-07
7.34749e-05
2.99736e-07
7.34988e-05
3.29519e-07
7.35219e-05
3.48436e-07
7.35437e-05
3.59361e-07
7.35643e-05
3.65283e-07
7.35837e-05
3.67849e-07
7.36019e-05
3.68074e-07
7.36189e-05
3.66796e-07
7.36348e-05
3.64652e-07
7.36496e-05
3.62103e-07
7.36633e-05
3.595e-07
7.36758e-05
3.57145e-07
7.36872e-05
3.55309e-07
7.36974e-05
3.54254e-07
7.37064e-05
3.54248e-07
7.37142e-05
3.55589e-07
7.37209e-05
3.58614e-07
7.37263e-05
3.63724e-07
7.37306e-05
3.71394e-07
7.3734e-05
3.82188e-07
7.37369e-05
3.96768e-07
7.37398e-05
4.15873e-07
7.37437e-05
4.40287e-07
7.37502e-05
4.70686e-07
7.37616e-05
5.07547e-07
7.37809e-05
5.50586e-07
7.38122e-05
5.98555e-07
7.38604e-05
6.48375e-07
6.92812e-07
7.39296e-05
7.55018e-05
3.37765e-08
7.55106e-05
1.10907e-07
7.55279e-05
1.84084e-07
7.55481e-05
2.38299e-07
7.55701e-05
2.77762e-07
7.55929e-05
3.06703e-07
7.56153e-05
3.2607e-07
7.56366e-05
3.37988e-07
7.5657e-05
3.44968e-07
7.56762e-05
3.48599e-07
7.56944e-05
3.49883e-07
7.57116e-05
3.49626e-07
7.57278e-05
3.48463e-07
7.5743e-05
3.46866e-07
7.57573e-05
3.45202e-07
7.57707e-05
3.4378e-07
7.57831e-05
3.4288e-07
7.57946e-05
3.42765e-07
7.58051e-05
3.43701e-07
7.58148e-05
3.4597e-07
7.58235e-05
3.49884e-07
7.58314e-05
3.55799e-07
7.58387e-05
3.64116e-07
7.58456e-05
3.75288e-07
7.58525e-05
3.89807e-07
7.58603e-05
4.08169e-07
7.58697e-05
4.30819e-07
7.58824e-05
4.58019e-07
7.59002e-05
4.89702e-07
7.59257e-05
5.25129e-07
7.59616e-05
5.62635e-07
7.60109e-05
5.9908e-07
6.28896e-07
7.60748e-05
7.76604e-05
3.29524e-08
7.76688e-05
1.02541e-07
7.76846e-05
1.68301e-07
7.77037e-05
2.1918e-07
7.77246e-05
2.56856e-07
7.77465e-05
2.8483e-07
7.77682e-05
3.0431e-07
7.77893e-05
3.16942e-07
7.78094e-05
3.24793e-07
7.78287e-05
3.29344e-07
7.7847e-05
3.31566e-07
7.78644e-05
3.32228e-07
7.78809e-05
3.31949e-07
7.78966e-05
3.31204e-07
7.79114e-05
3.30367e-07
7.79254e-05
3.29754e-07
7.79387e-05
3.29644e-07
7.79511e-05
3.30301e-07
7.79629e-05
3.31979e-07
7.79739e-05
3.34942e-07
7.79843e-05
3.39468e-07
7.79943e-05
3.45859e-07
7.80039e-05
3.54438e-07
7.80137e-05
3.65542e-07
7.8024e-05
3.79504e-07
7.80355e-05
3.96609e-07
7.80493e-05
4.17033e-07
7.80666e-05
4.4073e-07
7.8089e-05
4.67304e-07
7.81184e-05
4.95786e-07
7.81565e-05
5.24459e-07
7.82051e-05
5.50551e-07
5.70108e-07
7.82639e-05
7.988e-05
3.12889e-08
7.9888e-05
9.45029e-08
7.99025e-05
1.53816e-07
7.99205e-05
2.01176e-07
7.99404e-05
2.36957e-07
7.99614e-05
2.63843e-07
7.99826e-05
2.83143e-07
8.00033e-05
2.96207e-07
8.00234e-05
3.04723e-07
8.00427e-05
3.10033e-07
8.00612e-05
3.13063e-07
8.00789e-05
3.14537e-07
8.00958e-05
3.15051e-07
8.01119e-05
3.1507e-07
8.01273e-05
3.14969e-07
8.0142e-05
3.15061e-07
8.0156e-05
3.15626e-07
8.01694e-05
3.16914e-07
8.01822e-05
3.19169e-07
8.01945e-05
3.22627e-07
8.02065e-05
3.27529e-07
8.02182e-05
3.34119e-07
8.023e-05
3.42641e-07
8.02422e-05
3.53324e-07
8.02554e-05
3.66361e-07
8.02701e-05
3.81866e-07
8.02873e-05
3.99813e-07
8.03081e-05
4.19957e-07
8.03337e-05
4.41724e-07
8.03654e-05
4.64091e-07
8.04044e-05
4.85487e-07
8.04512e-05
5.03661e-07
5.15933e-07
8.05054e-05
8.21625e-05
2.91978e-08
8.21703e-05
8.67539e-08
8.21837e-05
1.40426e-07
8.22006e-05
1.84237e-07
8.22196e-05
2.18e-07
8.22397e-05
2.43684e-07
8.22603e-05
2.62566e-07
8.22807e-05
2.75801e-07
8.23007e-05
2.84773e-07
8.232e-05
2.90672e-07
8.23387e-05
2.94366e-07
8.23567e-05
2.96534e-07
8.2374e-05
2.97737e-07
8.23907e-05
2.98426e-07
8.24067e-05
2.98967e-07
8.24221e-05
2.99667e-07
8.24369e-05
3.00793e-07
8.24512e-05
3.02586e-07
8.24651e-05
3.05267e-07
8.24787e-05
3.09045e-07
8.24921e-05
3.14119e-07
8.25056e-05
3.20675e-07
8.25193e-05
3.28884e-07
8.25338e-05
3.3888e-07
8.25494e-05
3.5074e-07
8.25668e-05
3.64446e-07
8.25868e-05
3.79839e-07
8.26102e-05
3.96553e-07
8.2638e-05
4.13954e-07
8.2671e-05
4.31069e-07
8.27099e-05
4.46566e-07
8.27549e-05
4.58713e-07
4.65749e-07
8.2805e-05
8.45101e-05
2.69188e-08
8.45175e-05
7.92902e-08
8.453e-05
1.27956e-07
8.45459e-05
1.68278e-07
8.4564e-05
1.99917e-07
8.45834e-05
2.24291e-07
8.46034e-05
2.42558e-07
8.46235e-05
2.55733e-07
8.46433e-05
2.64959e-07
8.46627e-05
2.71278e-07
8.46816e-05
2.75488e-07
8.46999e-05
2.78222e-07
8.47176e-05
2.80002e-07
8.47348e-05
2.81258e-07
8.47514e-05
2.8234e-07
8.47676e-05
2.83543e-07
8.47832e-05
2.8512e-07
8.47985e-05
2.87293e-07
8.48135e-05
2.9026e-07
8.48284e-05
2.94199e-07
8.48432e-05
2.99267e-07
8.48583e-05
3.05599e-07
8.48739e-05
3.13296e-07
8.48904e-05
3.22414e-07
8.49082e-05
3.32942e-07
8.49278e-05
3.44768e-07
8.495e-05
3.5765e-07
8.49754e-05
3.71171e-07
8.50047e-05
3.84707e-07
8.50383e-05
3.97396e-07
8.50767e-05
4.08164e-07
8.51197e-05
4.15723e-07
4.18951e-07
8.51665e-05
8.69245e-05
2.45882e-08
8.69317e-05
7.21165e-08
8.69434e-05
1.16258e-07
8.69584e-05
1.53199e-07
8.69757e-05
1.82636e-07
8.69944e-05
2.05596e-07
8.70139e-05
2.23084e-07
8.70336e-05
2.35995e-07
8.70533e-05
2.45286e-07
8.70727e-05
2.51859e-07
8.70918e-05
2.56439e-07
8.71104e-05
2.59608e-07
8.71286e-05
2.61849e-07
8.71462e-05
2.63563e-07
8.71635e-05
2.6508e-07
8.71804e-05
2.66679e-07
8.71969e-05
2.68593e-07
8.72132e-05
2.71024e-07
8.72293e-05
2.74146e-07
8.72454e-05
2.78104e-07
8.72616e-05
2.83015e-07
8.72783e-05
2.88967e-07
8.72956e-05
2.96005e-07
8.73138e-05
3.04121e-07
8.73335e-05
3.1324e-07
8.73551e-05
3.23192e-07
8.73791e-05
3.33692e-07
8.74059e-05
3.4432e-07
8.74361e-05
3.54502e-07
8.747e-05
3.63512e-07
8.75077e-05
3.70515e-07
8.75488e-05
3.74576e-07
3.75004e-07
8.75928e-05
8.94078e-05
2.22794e-08
8.94147e-05
6.52314e-08
8.94258e-05
1.05216e-07
8.94401e-05
1.38898e-07
8.94566e-05
1.6608e-07
8.94747e-05
1.87532e-07
8.94937e-05
2.04099e-07
8.95131e-05
2.16566e-07
8.95327e-05
2.25747e-07
8.95521e-05
2.32416e-07
8.95713e-05
2.37222e-07
8.95902e-05
2.40696e-07
8.96088e-05
2.43278e-07
8.9627e-05
2.45339e-07
8.96449e-05
2.47185e-07
8.96625e-05
2.49071e-07
8.96799e-05
2.51213e-07
8.96971e-05
2.53788e-07
8.97143e-05
2.56944e-07
8.97317e-05
2.60795e-07
8.97492e-05
2.65424e-07
8.97673e-05
2.70876e-07
8.97862e-05
2.77152e-07
8.98061e-05
2.84199e-07
8.98275e-05
2.91895e-07
8.98506e-05
3.00042e-07
8.9876e-05
3.08344e-07
8.99039e-05
3.16404e-07
8.99347e-05
3.2372e-07
8.99685e-05
3.29704e-07
9.00053e-05
3.33722e-07
9.00447e-05
3.35112e-07
3.33461e-07
9.00863e-05
9.19621e-05
2.00291e-08
9.19687e-05
5.8627e-08
9.19792e-05
9.4734e-08
9.19928e-05
1.25275e-07
9.20087e-05
1.50172e-07
9.20262e-05
1.7003e-07
9.20448e-05
1.8555e-07
9.20639e-05
1.97418e-07
9.20834e-05
2.06326e-07
9.21028e-05
2.1294e-07
9.21222e-05
2.17834e-07
9.21414e-05
2.21484e-07
9.21604e-05
2.2429e-07
9.21792e-05
2.26586e-07
9.21977e-05
2.28654e-07
9.22161e-05
2.30724e-07
9.22343e-05
2.32987e-07
9.22525e-05
2.356e-07
9.22707e-05
2.38682e-07
9.22892e-05
2.42322e-07
9.23081e-05
2.46569e-07
9.23275e-05
2.51436e-07
9.23478e-05
2.56888e-07
9.23691e-05
2.62842e-07
9.23919e-05
2.69153e-07
9.24163e-05
2.75608e-07
9.24427e-05
2.81923e-07
9.24714e-05
2.87741e-07
9.25025e-05
2.92641e-07
9.2536e-05
2.96157e-07
9.25719e-05
2.9782e-07
9.26099e-05
2.97165e-07
2.93963e-07
9.26494e-05
9.45893e-05
1.78523e-08
9.45957e-05
5.22867e-08
9.46057e-05
8.47303e-08
9.46187e-05
1.12238e-07
9.46341e-05
1.34833e-07
9.46511e-05
1.53022e-07
9.46692e-05
1.67384e-07
9.46881e-05
1.78512e-07
9.47075e-05
1.87e-07
9.4727e-05
1.93416e-07
9.47466e-05
1.98264e-07
9.47661e-05
2.01966e-07
9.47855e-05
2.0488e-07
9.48048e-05
2.07304e-07
9.48239e-05
2.0949e-07
9.4843e-05
2.11644e-07
9.48621e-05
2.13932e-07
9.48812e-05
2.16486e-07
9.49005e-05
2.19404e-07
9.492e-05
2.22746e-07
9.49401e-05
2.26537e-07
9.49607e-05
2.30763e-07
9.49823e-05
2.35367e-07
9.50049e-05
2.40244e-07
9.50288e-05
2.45239e-07
9.50542e-05
2.50143e-07
9.50815e-05
2.54696e-07
9.51106e-05
2.58587e-07
9.51418e-05
2.61472e-07
9.5175e-05
2.62992e-07
9.521e-05
2.62803e-07
9.52466e-05
2.60587e-07
2.56226e-07
9.52843e-05
9.72916e-05
1.57522e-08
9.72977e-05
4.619e-08
9.73073e-05
7.5136e-08
9.73198e-05
9.97011e-08
9.73347e-05
1.19985e-07
9.73513e-05
1.36438e-07
9.73691e-05
1.49542e-07
9.73878e-05
1.59806e-07
9.74071e-05
1.67737e-07
9.74267e-05
1.73823e-07
9.74465e-05
1.78498e-07
9.74663e-05
1.82133e-07
9.74861e-05
1.85043e-07
9.75059e-05
1.87492e-07
9.75257e-05
1.89698e-07
9.75455e-05
1.91842e-07
9.75654e-05
1.94067e-07
9.75854e-05
1.96481e-07
9.76057e-05
1.99158e-07
9.76263e-05
2.02137e-07
9.76474e-05
2.05423e-07
9.76692e-05
2.08981e-07
9.76918e-05
2.12739e-07
9.77154e-05
2.16584e-07
9.77403e-05
2.20359e-07
9.77666e-05
2.2387e-07
9.77944e-05
2.26885e-07
9.78239e-05
2.29143e-07
9.7855e-05
2.30367e-07
9.78877e-05
2.30285e-07
9.79218e-05
2.2865e-07
9.79572e-05
2.25248e-07
2.20029e-07
9.79934e-05
0.000100071
1.37251e-08
0.000100077
4.0311e-08
0.000100086
6.5889e-08
0.000100098
8.75838e-08
0.000100113
1.05552e-07
0.000100129
1.20212e-07
0.000100147
1.31967e-07
0.000100165
1.41252e-07
0.000100184
1.48503e-07
0.000100204
1.54134e-07
0.000100224
1.58517e-07
0.000100244
1.61973e-07
0.000100264
1.64774e-07
0.000100285
1.67148e-07
0.000100305
1.69284e-07
0.000100326
1.71334e-07
0.000100346
1.73418e-07
0.000100367
1.75622e-07
0.000100388
1.77998e-07
0.00010041
1.8057e-07
0.000100432
1.83322e-07
0.000100455
1.86209e-07
0.000100478
1.8915e-07
0.000100503
1.92029e-07
0.000100529
1.94698e-07
0.000100556
1.9698e-07
0.000100584
1.98674e-07
0.000100613
1.99566e-07
0.000100644
1.99439e-07
0.000100676
1.98085e-07
0.00010071
1.95336e-07
0.000100744
1.91042e-07
1.85203e-07
0.000100779
0.00010293
1.17644e-08
0.000102936
3.46232e-08
0.000102945
5.69337e-08
0.000102956
7.58142e-08
0.000102971
9.14624e-08
0.000102986
1.04275e-07
0.000103004
1.14598e-07
0.000103022
1.22803e-07
0.000103042
1.2926e-07
0.000103061
1.3432e-07
0.000103082
1.38299e-07
0.000103102
1.4147e-07
0.000103123
1.44064e-07
0.000103144
1.46273e-07
0.000103165
1.48255e-07
0.000103186
1.50137e-07
0.000103207
1.52014e-07
0.000103229
1.53952e-07
0.000103251
1.55986e-07
0.000103273
1.58121e-07
0.000103296
1.60333e-07
0.00010332
1.62566e-07
0.000103344
1.64737e-07
0.00010337
1.66733e-07
0.000103396
1.68418e-07
0.000103423
1.69635e-07
0.000103452
1.70215e-07
0.000103481
1.69983e-07
0.000103512
1.68771e-07
0.000103544
1.66427e-07
0.000103576
1.62831e-07
0.000103609
1.57887e-07
1.51617e-07
0.000103643
0.000105871
9.86165e-09
0.000105876
2.90984e-08
0.000105885
4.8218e-08
0.000105896
6.43244e-08
0.00010591
7.76435e-08
0.000105926
8.856e-08
0.000105943
9.73739e-08
0.000105962
1.04403e-07
0.000105981
1.09962e-07
0.000106001
1.14346e-07
0.000106021
1.17819e-07
0.000106042
1.20608e-07
0.000106063
1.22904e-07
0.000106085
1.24865e-07
0.000106106
1.26621e-07
0.000106128
1.28271e-07
0.00010615
1.29888e-07
0.000106173
1.31518e-07
0.000106196
1.33181e-07
0.000106219
1.3487e-07
0.000106243
1.36551e-07
0.000106267
1.38164e-07
0.000106292
1.39626e-07
0.000106318
1.40832e-07
0.000106345
1.4166e-07
0.000106372
1.41973e-07
0.000106401
1.4163e-07
0.000106431
1.40493e-07
0.000106461
1.38429e-07
0.000106492
1.3533e-07
0.000106524
1.31112e-07
0.000106556
1.25718e-07
1.19175e-07
0.000106588
0.000108895
8.00777e-09
0.000108901
2.37097e-08
0.000108909
3.96942e-08
0.00010892
5.30516e-08
0.000108934
6.40275e-08
0.00010895
7.29989e-08
0.000108967
8.02317e-08
0.000108985
8.59985e-08
0.000109005
9.05646e-08
0.000109025
9.41755e-08
0.000109046
9.70475e-08
0.000109067
9.93654e-08
0.000109088
1.01283e-07
0.00010911
1.02925e-07
0.000109133
1.04391e-07
0.000109155
1.05756e-07
0.000109178
1.07071e-07
0.000109201
1.08365e-07
0.000109225
1.09645e-07
0.000109249
1.10891e-07
0.000109273
1.12066e-07
0.000109298
1.13106e-07
0.000109324
1.13933e-07
0.00010935
1.1445e-07
0.000109377
1.14548e-07
0.000109405
1.14111e-07
0.000109434
1.13024e-07
0.000109463
1.11174e-07
0.000109493
1.08463e-07
0.000109524
1.04811e-07
0.000109555
1.00164e-07
0.000109586
9.44832e-08
8.78061e-08
0.000109617
0.000112006
6.19405e-09
0.000112012
1.84305e-08
0.00011202
3.13171e-08
0.000112031
4.19363e-08
0.000112045
5.05475e-08
0.00011206
5.75239e-08
0.000112077
6.3106e-08
0.000112096
6.75285e-08
0.000112115
7.10142e-08
0.000112136
7.37636e-08
0.000112157
7.59502e-08
0.000112178
7.77187e-08
0.0001122
7.91867e-08
0.000112223
8.04471e-08
0.000112246
8.15714e-08
0.000112269
8.26104e-08
0.000112292
8.35957e-08
0.000112316
8.45398e-08
0.00011234
8.5436e-08
0.000112365
8.62583e-08
0.00011239
8.6963e-08
0.000112416
8.74894e-08
0.000112442
8.77614e-08
0.000112469
8.76924e-08
0.000112496
8.7187e-08
0.000112524
8.61475e-08
0.000112553
8.44785e-08
0.000112582
8.20918e-08
0.000112611
7.89126e-08
0.000112641
7.48834e-08
0.000112671
6.99688e-08
0.000112702
6.41478e-08
5.7456e-08
0.000112732
0.000115206
4.41203e-09
0.000115211
1.32369e-08
0.00011522
2.30457e-08
0.000115231
3.09225e-08
0.000115244
3.71382e-08
0.00011526
4.20661e-08
0.000115277
4.59285e-08
0.000115295
4.89295e-08
0.000115315
5.12538e-08
0.000115336
5.3062e-08
0.000115357
5.44879e-08
0.000115379
5.56384e-08
0.000115402
5.65966e-08
0.000115425
5.74247e-08
0.000115448
5.81671e-08
0.000115472
5.88517e-08
0.000115496
5.94911e-08
0.000115521
6.00827e-08
0.000115546
6.06087e-08
0.000115571
6.10369e-08
0.000115596
6.13198e-08
0.000115623
6.13985e-08
0.000115649
6.12016e-08
0.000115676
6.06521e-08
0.000115704
5.96659e-08
0.000115732
5.81625e-08
0.00011576
5.60622e-08
0.000115789
5.32969e-08
0.000115818
4.98084e-08
0.000115847
4.55567e-08
0.000115877
4.05182e-08
0.000115906
3.46837e-08
2.80849e-08
0.000115936
0.000118498
2.65462e-09
0.000118503
8.10756e-09
0.000118511
1.48423e-08
0.000118522
1.99572e-08
0.000118535
2.37346e-08
0.000118551
2.65538e-08
0.000118568
2.86264e-08
0.000118587
3.0131e-08
0.000118607
3.12189e-08
0.000118628
3.20143e-08
0.00011865
3.26138e-08
0.000118672
3.30884e-08
0.000118696
3.34879e-08
0.000118719
3.38448e-08
0.000118743
3.41773e-08
0.000118767
3.44914e-08
0.000118792
3.47813e-08
0.000118817
3.50304e-08
0.000118843
3.52116e-08
0.000118868
3.52852e-08
0.000118895
3.52036e-08
0.000118921
3.49068e-08
0.000118948
3.43317e-08
0.000118975
3.34054e-08
0.000119003
3.20596e-08
0.000119031
3.02219e-08
0.000119059
2.78311e-08
0.000119087
2.48291e-08
0.000119116
2.11753e-08
0.000119145
1.68373e-08
0.000119173
1.1804e-08
0.000119202
6.06925e-09
-3.35413e-10
0.00011923
0.000121883
9.16159e-10
0.000121888
3.02612e-09
0.000121896
6.67539e-09
0.000121907
8.99078e-09
0.000121921
1.02715e-08
0.000121936
1.0912e-08
0.000121954
1.11207e-08
0.000121973
1.10551e-08
0.000121993
1.08365e-08
0.000122015
1.05551e-08
0.000122037
1.02723e-08
0.00012206
1.00243e-08
0.000122084
9.82828e-09
0.000122108
9.68751e-09
0.000122133
9.59492e-09
0.000122158
9.53468e-09
0.000122183
9.48379e-09
0.000122208
9.41293e-09
0.000122234
9.28395e-09
0.000122261
9.05374e-09
0.000122287
8.67016e-09
0.000122314
8.07778e-09
0.000122341
7.21422e-09
0.000122369
6.01831e-09
0.000122396
4.42615e-09
0.000122424
2.38037e-09
0.000122452
-1.73752e-10
0.00012248
-3.27896e-09
0.000122508
-6.97069e-09
0.000122536
-1.12688e-08
0.000122564
-1.61833e-08
0.000122592
-2.17123e-08
-2.78321e-08
0.00012262
0.000125365
-8.05774e-10
0.00012537
-2.0161e-09
0.000125378
-1.47896e-09
0.000125389
-2.02255e-09
0.000125403
-3.31812e-09
0.000125419
-4.94064e-09
0.000125437
-6.67674e-09
0.000125456
-8.38714e-09
0.000125477
-9.97877e-09
0.000125499
-1.13931e-08
0.000125522
-1.26036e-08
0.000125545
-1.36091e-08
0.00012557
-1.44248e-08
0.000125594
-1.50766e-08
0.00012562
-1.55968e-08
0.000125645
-1.60222e-08
0.000125671
-1.63925e-08
0.000125697
-1.67511e-08
0.000125724
-1.7144e-08
0.00012575
-1.7621e-08
0.000125777
-1.82352e-08
0.000125804
-1.9042e-08
0.000125832
-2.00986e-08
0.000125859
-2.14619e-08
0.000125887
-2.3187e-08
0.000125914
-2.53247e-08
0.000125942
-2.79196e-08
0.00012597
-3.10082e-08
0.000125998
-3.46174e-08
0.000126025
-3.87631e-08
0.000126052
-4.34505e-08
0.000126079
-4.86763e-08
-5.44201e-08
0.000126106
0.000128947
-2.50858e-09
0.000128952
-7.01368e-09
0.00012896
-9.63055e-09
0.000128971
-1.3123e-08
0.000128985
-1.71043e-08
0.000129001
-2.10942e-08
0.000129019
-2.48664e-08
0.000129039
-2.82997e-08
0.00012906
-3.13278e-08
0.000129083
-3.39234e-08
0.000129106
-3.60957e-08
0.000129131
-3.788e-08
0.000129156
-3.93254e-08
0.000129181
-4.04872e-08
0.000129207
-4.14228e-08
0.000129233
-4.21909e-08
0.00012926
-4.28475e-08
0.000129286
-4.34499e-08
0.000129313
-4.4052e-08
0.00012934
-4.47107e-08
0.000129367
-4.54792e-08
0.000129395
-4.64146e-08
0.000129422
-4.75694e-08
0.00012945
-4.89978e-08
0.000129477
-5.07477e-08
0.000129505
-5.28651e-08
0.000129532
-5.53872e-08
0.00012956
-5.83459e-08
0.000129587
-6.17623e-08
0.000129614
-6.56501e-08
0.00012964
-7.0012e-08
0.000129666
-7.48452e-08
-8.01339e-08
0.000129692
0.000132631
-4.17948e-09
0.000132636
-1.19361e-08
0.000132644
-1.77665e-08
0.000132655
-2.4343e-08
0.000132669
-3.11635e-08
0.000132686
-3.76525e-08
0.000132704
-4.35663e-08
0.000132725
-4.88058e-08
0.000132747
-5.33313e-08
0.00013277
-5.71485e-08
0.000132794
-6.03054e-08
0.000132819
-6.28769e-08
0.000132845
-6.49475e-08
0.000132871
-6.66031e-08
0.000132898
-6.79282e-08
0.000132924
-6.90018e-08
0.000132951
-6.98998e-08
0.000132979
-7.06893e-08
0.000133006
-7.14375e-08
0.000133034
-7.22024e-08
0.000133061
-7.30449e-08
0.000133089
-7.40175e-08
0.000133116
-7.51757e-08
0.000133144
-7.6566e-08
0.000133171
-7.82364e-08
0.000133199
-8.02245e-08
0.000133226
-8.25666e-08
0.000133253
-8.52872e-08
0.000133279
-8.84076e-08
0.000133306
-9.19363e-08
0.000133332
-9.58777e-08
0.000133357
-1.00225e-07
-1.04968e-07
0.000133382
0.00013642
-5.78669e-09
0.000136425
-1.67044e-08
0.000136433
-2.58344e-08
0.000136444
-3.57045e-08
0.000136459
-4.55817e-08
0.000136476
-5.47399e-08
0.000136495
-6.29227e-08
0.000136516
-7.00589e-08
0.000136539
-7.61364e-08
0.000136563
-8.11989e-08
0.000136588
-8.53432e-08
0.000136614
-8.86898e-08
0.00013664
-9.13626e-08
0.000136667
-9.34794e-08
0.000136694
-9.51528e-08
0.000136722
-9.64841e-08
0.00013675
-9.75659e-08
0.000136777
-9.84802e-08
0.000136805
-9.93011e-08
0.000136833
-1.00096e-07
0.000136861
-1.00925e-07
0.000136889
-1.01845e-07
0.000136917
-1.02909e-07
0.000136944
-1.04163e-07
0.000136972
-1.05649e-07
0.000136999
-1.07406e-07
0.000137026
-1.09463e-07
0.000137052
-1.11846e-07
0.000137078
-1.14571e-07
0.000137104
-1.1765e-07
0.000137129
-1.21084e-07
0.000137154
-1.24873e-07
-1.29011e-07
0.000137178
0.000140317
-7.25753e-09
0.000140322
-2.11452e-08
0.00014033
-3.37175e-08
0.000140341
-4.72212e-08
0.000140356
-6.04595e-08
0.000140374
-7.24992e-08
0.000140394
-8.31096e-08
0.000140416
-9.22579e-08
0.00014044
-9.99526e-08
0.000140465
-1.06281e-07
0.000140491
-1.11401e-07
0.000140518
-1.15489e-07
0.000140545
-1.18713e-07
0.000140573
-1.21231e-07
0.000140601
-1.23183e-07
0.000140629
-1.24699e-07
0.000140658
-1.25887e-07
0.000140686
-1.26844e-07
0.000140714
-1.27651e-07
0.000140743
-1.28385e-07
0.000140771
-1.29108e-07
0.000140799
-1.2988e-07
0.000140827
-1.30751e-07
0.000140854
-1.31768e-07
0.000140882
-1.32971e-07
0.000140909
-1.34396e-07
0.000140935
-1.3607e-07
0.000140961
-1.38017e-07
0.000140987
-1.40253e-07
0.000141012
-1.42787e-07
0.000141037
-1.45621e-07
0.000141061
-1.48751e-07
-1.5217e-07
0.000141084
0.000144326
-8.43372e-09
0.00014433
-2.48891e-08
0.000144337
-4.11808e-08
0.000144349
-5.89132e-08
0.000144364
-7.59605e-08
0.000144383
-9.11326e-08
0.000144404
-1.04316e-07
0.000144427
-1.1555e-07
0.000144452
-1.24882e-07
0.000144478
-1.32466e-07
0.000144506
-1.38538e-07
0.000144533
-1.43332e-07
0.000144562
-1.47063e-07
0.00014459
-1.49925e-07
0.000144619
-1.52095e-07
0.000144648
-1.53723e-07
0.000144677
-1.54939e-07
0.000144706
-1.55854e-07
0.000144735
-1.56561e-07
0.000144764
-1.5714e-07
0.000144793
-1.57661e-07
0.000144821
-1.58184e-07
0.000144849
-1.58763e-07
0.000144877
-1.59441e-07
0.000144904
-1.6026e-07
0.000144931
-1.61252e-07
0.000144957
-1.62447e-07
0.000144983
-1.63864e-07
0.000145008
-1.65522e-07
0.000145033
-1.67431e-07
0.000145057
-1.69599e-07
0.00014508
-1.72029e-07
-1.74723e-07
0.000145103
0.000148448
-8.95481e-09
0.000148451
-2.72092e-08
0.000148457
-4.77932e-08
0.000148469
-7.07005e-08
0.000148485
-9.22432e-08
0.000148505
-1.11058e-07
0.000148528
-1.27173e-07
0.000148553
-1.40636e-07
0.00014858
-1.51564e-07
0.000148608
-1.60271e-07
0.000148636
-1.67128e-07
0.000148666
-1.72455e-07
0.000148695
-1.76526e-07
0.000148725
-1.79583e-07
0.000148754
-1.81834e-07
0.000148784
-1.83455e-07
0.000148814
-1.8459e-07
0.000148843
-1.85362e-07
0.000148873
-1.85872e-07
0.000148902
-1.86206e-07
0.00014893
-1.86437e-07
0.000148959
-1.86625e-07
0.000148987
-1.86824e-07
0.000149015
-1.87079e-07
0.000149042
-1.87429e-07
0.000149068
-1.87907e-07
0.000149095
-1.88538e-07
0.00014912
-1.89345e-07
0.000149145
-1.90343e-07
0.000149169
-1.9154e-07
0.000149192
-1.92941e-07
0.000149215
-1.94537e-07
-1.9633e-07
0.000149236
0.000152688
-7.80768e-09
0.000152687
-2.66628e-08
0.000152693
-5.33244e-08
0.000152705
-8.26489e-08
0.000152722
-1.08869e-07
0.000152742
-1.31481e-07
0.000152766
-1.5088e-07
0.000152792
-1.6692e-07
0.00015282
-1.79702e-07
0.00015285
-1.89695e-07
0.00015288
-1.9741e-07
0.000152911
-2.03267e-07
0.000152942
-2.07619e-07
0.000152973
-2.10773e-07
0.000153004
-2.12985e-07
0.000153035
-2.14465e-07
0.000153066
-2.1538e-07
0.000153096
-2.15871e-07
0.000153127
-2.1605e-07
0.000153156
-2.16008e-07
0.000153186
-2.15823e-07
0.000153215
-2.15557e-07
0.000153243
-2.15265e-07
0.000153271
-2.1499e-07
0.000153298
-2.14771e-07
0.000153325
-2.14639e-07
0.000153351
-2.14621e-07
0.000153377
-2.14738e-07
0.000153401
-2.15007e-07
0.000153425
-2.15442e-07
0.000153448
-2.16057e-07
0.000153471
-2.16865e-07
-2.17868e-07
0.000153492
0.000157046
-2.51768e-09
0.000157038
-1.89547e-08
0.000157042
-5.73425e-08
0.000157057
-9.73724e-08
0.000157078
-1.29849e-07
0.000157103
-1.56351e-07
0.00015713
-1.78259e-07
0.000157159
-1.95786e-07
0.000157189
-2.09461e-07
0.000157219
-2.2005e-07
0.00015725
-2.28172e-07
0.000157281
-2.34283e-07
0.000157312
-2.38773e-07
0.000157344
-2.41973e-07
0.000157375
-2.44157e-07
0.000157406
-2.45539e-07
0.000157437
-2.46296e-07
0.000157467
-2.4657e-07
0.000157498
-2.46479e-07
0.000157528
-2.46114e-07
0.000157558
-2.45558e-07
0.000157587
-2.44871e-07
0.000157616
-2.4411e-07
0.000157644
-2.43317e-07
0.000157672
-2.42532e-07
0.000157699
-2.41784e-07
0.000157726
-2.41101e-07
0.000157751
-2.40501e-07
0.000157776
-2.40002e-07
0.0001578
-2.3961e-07
0.000157824
-2.39329e-07
0.000157846
-2.39149e-07
-2.39079e-07
0.000157867
0.000161526
1.00055e-08
0.000161505
1.61716e-09
0.000161498
-4.99276e-08
0.000161503
-1.01966e-07
0.000161518
-1.4535e-07
0.000161543
-1.81212e-07
0.000161574
-2.0936e-07
0.000161608
-2.30267e-07
0.000161645
-2.45588e-07
0.000161681
-2.56886e-07
0.000161718
-2.65164e-07
0.000161755
-2.71106e-07
0.000161792
-2.75256e-07
0.000161828
-2.78042e-07
0.000161863
-2.79777e-07
0.000161899
-2.80701e-07
0.000161933
-2.80992e-07
0.000161968
-2.80795e-07
0.000162001
-2.8022e-07
0.000162034
-2.79358e-07
0.000162067
-2.78279e-07
0.000162099
-2.77044e-07
0.000162131
-2.75699e-07
0.000162162
-2.74287e-07
0.000162192
-2.72842e-07
0.000162222
-2.71394e-07
0.000162251
-2.69966e-07
0.000162279
-2.68582e-07
0.000162306
-2.67259e-07
0.000162332
-2.66016e-07
0.000162358
-2.64871e-07
0.000162383
-2.63852e-07
-2.62956e-07
0.000162407
0.0001661
6.38813e-08
0.000166096
5.13966e-09
0.000166113
-6.71893e-08
0.00016613
-1.18439e-07
0.000166146
-1.61768e-07
0.000166166
-2.00548e-07
0.000166189
-2.32268e-07
0.000166215
-2.56699e-07
0.000166245
-2.75411e-07
0.000166278
-2.89767e-07
0.000166313
-3.00628e-07
0.000166351
-3.08671e-07
0.00016639
-3.14483e-07
0.00016643
-3.18536e-07
0.000166472
-3.21186e-07
0.000166514
-3.22712e-07
0.000166556
-3.23338e-07
0.000166599
-3.23243e-07
0.000166641
-3.22571e-07
0.000166683
-3.2144e-07
0.000166725
-3.19945e-07
0.000166766
-3.18164e-07
0.000166806
-3.16163e-07
0.000166846
-3.13996e-07
0.000166885
-3.11709e-07
0.000166923
-3.09342e-07
0.00016696
-3.06925e-07
0.000166996
-3.04485e-07
0.000167031
-3.02043e-07