/*--------------------------------*- C++ -*----------------------------------*\
  =========                 |
  \\      /  F ield         | OpenFOAM: The Open Source CFD Toolbox
   \\    /   O peration     | Website:  https://openfoam.org
    \\  /    A nd           | Version:  10
     \\/     M anipulation  |
\*---------------------------------------------------------------------------*/
FoamFile
{
    format      ascii;
    class       volVectorField;
    location    "300";
    object      U;
}
// * * * * * * * * * * * * * * * * * * * * * * * * * * * * * * * * * * * * * //

dimensions      [0 1 -1 0 0 0 0];

internalField   nonuniform List<vector> 
6820
(
(7.31669 -0.387301 0)
(7.31537 -0.335155 0)
(7.28412 -0.203499 0)
(7.22616 -0.111087 0)
(7.16182 -0.056758 0)
(7.10073 -0.0269934 0)
(7.04492 -0.0112595 0)
(6.99455 -0.00306244 0)
(6.94939 0.00116175 0)
(6.90879 0.0032949 0)
(6.87202 0.00433749 0)
(6.83844 0.00482371 0)
(6.80753 0.0050354 0)
(6.77889 0.00511906 0)
(6.75218 0.00515019 0)
(6.72715 0.00516732 0)
(6.70354 0.00519004 0)
(6.68117 0.00522857 0)
(6.65985 0.00528924 0)
(6.63943 0.00537764 0)
(6.61973 0.00550085 0)
(6.60058 0.00566935 0)
(6.58178 0.00589964 0)
(6.56309 0.00621922 0)
(6.54421 0.00666801 0)
(6.5247 0.00731652 0)
(6.5038 0.0084169 0)
(6.48084 0.00956445 0)
(6.45285 0.01315 0)
(6.4172 0.017879 0)
(6.37629 0.0208978 0)
(6.25307 0.0525049 0)
(6.26019 0.118173 0)
(7.33961 0.100782 0)
(7.35429 0.149935 0)
(7.35847 0.123263 0)
(7.35869 0.0898709 0)
(7.3593 0.0660609 0)
(7.358 0.0501426 0)
(7.35269 0.0395665 0)
(7.34361 0.0326133 0)
(7.33194 0.0279792 0)
(7.31862 0.0247727 0)
(7.3043 0.0224598 0)
(7.28945 0.0207264 0)
(7.27438 0.0193792 0)
(7.25932 0.0182967 0)
(7.2444 0.0174031 0)
(7.2297 0.016652 0)
(7.21527 0.0160151 0)
(7.20113 0.0154762 0)
(7.18727 0.0150274 0)
(7.17369 0.0146681 0)
(7.16036 0.0144044 0)
(7.14726 0.01425 0)
(7.13434 0.0142298 0)
(7.12154 0.014385 0)
(7.10882 0.0147835 0)
(7.09609 0.0155446 0)
(7.08335 0.0168552 0)
(7.07019 0.0191538 0)
(7.05792 0.022941 0)
(7.0444 0.0302206 0)
(7.03602 0.0436084 0)
(7.01901 0.0596441 0)
(7.08426 0.137209 0)
(7.32714 0.00612612 0)
(7.32429 -0.0015791 0)
(7.33129 -0.00615658 0)
(7.33969 -0.000756345 0)
(7.34671 0.00707062 0)
(7.35203 0.0127967 0)
(7.35522 0.0163047 0)
(7.35634 0.0183985 0)
(7.35578 0.0195792 0)
(7.3539 0.0201489 0)
(7.35094 0.0203348 0)
(7.34711 0.0202979 0)
(7.34258 0.0201392 0)
(7.33752 0.0199207 0)
(7.33204 0.0196819 0)
(7.32622 0.0194492 0)
(7.32013 0.0192409 0)
(7.31383 0.0190713 0)
(7.30733 0.0189535 0)
(7.30067 0.0189013 0)
(7.29383 0.0189324 0)
(7.28682 0.0190703 0)
(7.2796 0.0193494 0)
(7.27214 0.01982 0)
(7.26435 0.0205613 0)
(7.25615 0.0216927 0)
(7.24746 0.0234414 0)
(7.23799 0.0260326 0)
(7.22799 0.0304102 0)
(7.21703 0.0368254 0)
(7.20661 0.0482731 0)
(7.19494 0.0623248 0)
(7.19904 0.102254 0)
(7.32977 -0.00400518 0)
(7.32629 0.002469 0)
(7.33109 0.0107032 0)
(7.33673 0.0168411 0)
(7.34135 0.0203935 0)
(7.34565 0.0219003 0)
(7.34942 0.0223815 0)
(7.35236 0.0225043 0)
(7.35447 0.022487 0)
(7.35588 0.022384 0)
(7.35663 0.0222318 0)
(7.35677 0.0220603 0)
(7.35638 0.0218864 0)
(7.35553 0.0217201 0)
(7.35426 0.0215698 0)
(7.35263 0.0214439 0)
(7.35068 0.0213517 0)
(7.34843 0.0213035 0)
(7.34591 0.0213124 0)
(7.34312 0.021395 0)
(7.34007 0.0215734 0)
(7.33674 0.0218783 0)
(7.33312 0.0223531 0)
(7.32918 0.0230603 0)
(7.32488 0.0240941 0)
(7.32015 0.0255928 0)
(7.31496 0.0277881 0)
(7.30921 0.0309657 0)
(7.30309 0.0358099 0)
(7.29678 0.0427842 0)
(7.29111 0.0534685 0)
(7.28718 0.0673933 0)
(7.29017 0.091167 0)
(7.33182 -0.000991764 0)
(7.33 0.00673867 0)
(7.33258 0.012354 0)
(7.33607 0.0151401 0)
(7.33935 0.0171564 0)
(7.34284 0.0186446 0)
(7.34627 0.0196191 0)
(7.34927 0.0202757 0)
(7.35182 0.0207335 0)
(7.35398 0.0210382 0)
(7.35576 0.0212303 0)
(7.35717 0.0213496 0)
(7.35823 0.0214254 0)
(7.35897 0.0214781 0)
(7.3594 0.0215243 0)
(7.35956 0.0215796 0)
(7.35944 0.0216586 0)
(7.35907 0.0217769 0)
(7.35845 0.0219521 0)
(7.35757 0.0222052 0)
(7.35645 0.0225631 0)
(7.35507 0.0230618 0)
(7.35341 0.0237499 0)
(7.35146 0.0246958 0)
(7.3492 0.0259975 0)
(7.34661 0.0277938 0)
(7.3437 0.0302956 0)
(7.34051 0.0337677 0)
(7.33728 0.0386905 0)
(7.33436 0.0454256 0)
(7.33257 0.0547318 0)
(7.33343 0.0665447 0)
(7.33935 0.0817133 0)
(7.33247 0.000691922 0)
(7.33165 0.00635544 0)
(7.33346 0.0106109 0)
(7.33626 0.0132412 0)
(7.33903 0.0155163 0)
(7.34194 0.0172982 0)
(7.34485 0.0184673 0)
(7.34754 0.0192387 0)
(7.34996 0.0197856 0)
(7.35215 0.0201786 0)
(7.35413 0.0204625 0)
(7.35587 0.0206772 0)
(7.3574 0.0208518 0)
(7.3587 0.0210065 0)
(7.3598 0.0211578 0)
(7.36069 0.0213212 0)
(7.36138 0.0215119 0)
(7.36187 0.0217463 0)
(7.36215 0.0220434 0)
(7.36223 0.022426 0)
(7.3621 0.0229231 0)
(7.36174 0.0235727 0)
(7.36117 0.0244253 0)
(7.36036 0.0255496 0)
(7.35932 0.0270399 0)
(7.35807 0.0290234 0)
(7.35665 0.0316776 0)
(7.35518 0.035217 0)
(7.35392 0.0399536 0)
(7.35328 0.046112 0)
(7.35396 0.0539884 0)
(7.35725 0.0633889 0)
(7.36431 0.0736441 0)
(7.33271 0.00111846 0)
(7.33241 0.00552704 0)
(7.33396 0.00950146 0)
(7.33646 0.0122906 0)
(7.33896 0.014524 0)
(7.3415 0.0162271 0)
(7.34406 0.0173823 0)
(7.34649 0.0181788 0)
(7.34873 0.0187693 0)
(7.35081 0.0192181 0)
(7.35275 0.0195649 0)
(7.35453 0.0198461 0)
(7.35616 0.0200898 0)
(7.35764 0.0203163 0)
(7.35897 0.0205425 0)
(7.36015 0.0207842 0)
(7.36117 0.0210575 0)
(7.36205 0.0213797 0)
(7.36276 0.0217705 0)
(7.36332 0.0222539 0)
(7.36371 0.0228595 0)
(7.36393 0.0236256 0)
(7.36398 0.0246015 0)
(7.36386 0.0258518 0)
(7.3636 0.0274614 0)
(7.36324 0.0295385 0)
(7.36284 0.0322212 0)
(7.36256 0.0356652 0)
(7.36265 0.0400526 0)
(7.3635 0.0454848 0)
(7.36566 0.0519941 0)
(7.37003 0.0592593 0)
(7.3771 0.066367 0)
(7.33286 0.00128384 0)
(7.33288 0.00508247 0)
(7.33424 0.00875034 0)
(7.33645 0.0114396 0)
(7.33875 0.0135217 0)
(7.34108 0.0151447 0)
(7.34343 0.0163146 0)
(7.34569 0.0171546 0)
(7.34779 0.0177889 0)
(7.34977 0.0182817 0)
(7.35163 0.0186736 0)
(7.35337 0.0190004 0)
(7.355 0.0192906 0)
(7.35651 0.0195655 0)
(7.35791 0.0198429 0)
(7.35919 0.0201393 0)
(7.36036 0.0204716 0)
(7.3614 0.0208576 0)
(7.36233 0.0213174 0)
(7.36314 0.0218751 0)
(7.36382 0.02256 0)
(7.36437 0.0234085 0)
(7.36481 0.0244665 0)
(7.36515 0.0257915 0)
(7.36542 0.027455 0)
(7.36567 0.029543 0)
(7.36601 0.0321548 0)
(7.36656 0.03539 0)
(7.36758 0.0393367 0)
(7.36937 0.0440044 0)
(7.37235 0.0492904 0)
(7.37708 0.0548319 0)
(7.38371 0.0598516 0)
(7.33295 0.00135392 0)
(7.33315 0.00472819 0)
(7.33436 0.00802362 0)
(7.33631 0.0105594 0)
(7.33844 0.0125371 0)
(7.34061 0.0141114 0)
(7.3428 0.0152933 0)
(7.34493 0.0161653 0)
(7.34695 0.0168325 0)
(7.34885 0.0173593 0)
(7.35066 0.0177865 0)
(7.35236 0.0181487 0)
(7.35396 0.0184744 0)
(7.35546 0.0187857 0)
(7.35688 0.0191011 0)
(7.3582 0.019438 0)
(7.35942 0.0198136 0)
(7.36056 0.0202462 0)
(7.3616 0.0207558 0)
(7.36255 0.021366 0)
(7.36341 0.0221044 0)
(7.36418 0.0230047 0)
(7.36489 0.0241073 0)
(7.36555 0.025461 0)
(7.3662 0.0271224 0)
(7.36691 0.0291548 0)
(7.36776 0.0316228 0)
(7.36891 0.0345796 0)
(7.37055 0.0380488 0)
(7.37291 0.0419816 0)
(7.3763 0.0462211 0)
(7.38103 0.0504259 0)
(7.38708 0.0540225 0)
(7.333 0.00134983 0)
(7.3333 0.00438346 0)
(7.33439 0.00734178 0)
(7.33612 0.00972571 0)
(7.33808 0.0116127 0)
(7.3401 0.0131306 0)
(7.34216 0.0143033 0)
(7.34419 0.0151922 0)
(7.34613 0.0158837 0)
(7.34797 0.0164382 0)
(7.34973 0.0168952 0)
(7.3514 0.0172874 0)
(7.35299 0.0176428 0)
(7.35449 0.0179838 0)
(7.35591 0.0183296 0)
(7.35725 0.0186979 0)
(7.35852 0.0191063 0)
(7.35971 0.0195729 0)
(7.36082 0.0201173 0)
(7.36187 0.0207619 0)
(7.36286 0.021532 0)
(7.3638 0.0224574 0)
(7.3647 0.0235723 0)
(7.36561 0.0249156 0)
(7.36655 0.0265296 0)
(7.3676 0.0284564 0)
(7.36885 0.0307322 0)
(7.37041 0.0333748 0)
(7.37245 0.0363673 0)
(7.37515 0.0396306 0)
(7.37868 0.0429982 0)
(7.38323 0.0461807 0)
(7.38869 0.0487807 0)
(7.33302 0.00129935 0)
(7.33338 0.00405175 0)
(7.33437 0.00672004 0)
(7.33591 0.0089456 0)
(7.3377 0.0107359 0)
(7.33959 0.0121888 0)
(7.34153 0.0133384 0)
(7.34345 0.0142323 0)
(7.34532 0.0149395 0)
(7.34712 0.0155146 0)
(7.34884 0.0159951 0)
(7.35049 0.016412 0)
(7.35206 0.016792 0)
(7.35356 0.0171576 0)
(7.35499 0.017528 0)
(7.35635 0.0179209 0)
(7.35765 0.0183537 0)
(7.35889 0.0188442 0)
(7.36007 0.0194111 0)
(7.36121 0.0200747 0)
(7.3623 0.0208579 0)
(7.36338 0.0217857 0)
(7.36445 0.0228858 0)
(7.36555 0.0241874 0)
(7.36673 0.0257193 0)
(7.36805 0.027506 0)
(7.36958 0.0295615 0)
(7.37143 0.0318793 0)
(7.37372 0.0344199 0)
(7.37658 0.0370933 0)
(7.38011 0.0397467 0)
(7.3844 0.0421497 0)
(7.38933 0.0440367 0)
(7.33303 0.0012246 0)
(7.33341 0.00373397 0)
(7.33432 0.0061487 0)
(7.3357 0.00821192 0)
(7.33735 0.00990029 0)
(7.3391 0.0112841 0)
(7.34092 0.0124002 0)
(7.34275 0.0132874 0)
(7.34455 0.0140005 0)
(7.34629 0.0145879 0)
(7.34798 0.0150848 0)
(7.34961 0.0155202 0)
(7.35117 0.0159195 0)
(7.35267 0.0163044 0)
(7.35411 0.0166936 0)
(7.3555 0.0171046 0)
(7.35683 0.0175544 0)
(7.35812 0.0180597 0)
(7.35936 0.0186379 0)
(7.36058 0.0193072 0)
(7.36177 0.0200872 0)
(7.36296 0.0209982 0)
(7.36418 0.0220613 0)
(7.36545 0.0232968 0)
(7.36682 0.0247219 0)
(7.36834 0.0263471 0)
(7.37009 0.0281705 0)
(7.37213 0.0301705 0)
(7.37457 0.032297 0)
(7.37748 0.0344623 0)
(7.38093 0.0365361 0)
(7.38494 0.0383425 0)
(7.3894 0.0397082 0)
(7.33304 0.00113837 0)
(7.33341 0.00342868 0)
(7.33425 0.00561847 0)
(7.3355 0.00752105 0)
(7.33701 0.0091039 0)
(7.33865 0.0104147 0)
(7.34036 0.0114884 0)
(7.3421 0.0123578 0)
(7.34383 0.0130674 0)
(7.34552 0.0136588 0)
(7.34717 0.0141647 0)
(7.34877 0.0146121 0)
(7.35033 0.0150245 0)
(7.35183 0.0154226 0)
(7.35328 0.0158245 0)
(7.35469 0.016247 0)
(7.35606 0.0167061 0)
(7.35739 0.0172174 0)
(7.3587 0.0177965 0)
(7.35998 0.0184594 0)
(7.36127 0.0192219 0)
(7.36257 0.0200999 0)
(7.36391 0.0211084 0)
(7.36532 0.0222597 0)
(7.36684 0.0235618 0)
(7.36853 0.0250146 0)
(7.37042 0.0266059 0)
(7.3726 0.0283059 0)
(7.37511 0.0300623 0)
(7.37801 0.0317958 0)
(7.38133 0.033401 0)
(7.38506 0.0347466 0)
(7.38912 0.0357221 0)
(7.33304 0.00104779 0)
(7.33339 0.00313544 0)
(7.33417 0.0051228 0)
(7.33532 0.00686934 0)
(7.3367 0.00834382 0)
(7.33823 0.00957767 0)
(7.33984 0.0106013 0)
(7.3415 0.0114436 0)
(7.34316 0.0121405 0)
(7.3448 0.012728 0)
(7.34642 0.0132355 0)
(7.348 0.0136879 0)
(7.34954 0.0141069 0)
(7.35104 0.0145119 0)
(7.35251 0.01492 0)
(7.35394 0.015347 0)
(7.35534 0.0158077 0)
(7.35671 0.0163164 0)
(7.35807 0.0168866 0)
(7.35943 0.0175317 0)
(7.3608 0.0182644 0)
(7.36219 0.0190961 0)
(7.36364 0.0200362 0)
(7.36517 0.0210908 0)
(7.36681 0.0222607 0)
(7.36861 0.0235383 0)
(7.37061 0.0249054 0)
(7.37286 0.0263292 0)
(7.37539 0.0277598 0)
(7.37824 0.0291295 0)
(7.38141 0.0303552 0)
(7.3849 0.0313407 0)
(7.3886 0.0320167 0)
(7.33304 0.000956789 0)
(7.33338 0.00285413 0)
(7.33409 0.0046564 0)
(7.33515 0.00625247 0)
(7.33643 0.00761665 0)
(7.33786 0.00876976 0)
(7.33938 0.00973715 0)
(7.34096 0.0105439 0)
(7.34255 0.0112199 0)
(7.34415 0.0117956 0)
(7.34573 0.0122973 0)
(7.34728 0.0127478 0)
(7.34881 0.0131667 0)
(7.35031 0.0135721 0)
(7.35179 0.0139797 0)
(7.35324 0.0144042 0)
(7.35467 0.014859 0)
(7.35608 0.0153566 0)
(7.35749 0.0159088 0)
(7.35891 0.0165263 0)
(7.36035 0.0172185 0)
(7.36183 0.017993 0)
(7.36337 0.0188548 0)
(7.36499 0.0198048 0)
(7.36673 0.0208385 0)
(7.36861 0.0219441 0)
(7.37068 0.0231 0)
(7.37295 0.0242738 0)
(7.37547 0.0254208 0)
(7.37824 0.0264847 0)
(7.38126 0.0274017 0)
(7.38451 0.0281019 0)
(7.38793 0.0285425 0)
(7.33303 0.000867431 0)
(7.33335 0.00258443 0)
(7.33402 0.00421487 0)
(7.33499 0.00566609 0)
(7.33618 0.00691894 0)
(7.33752 0.00798794 0)
(7.33896 0.00889356 0)
(7.34047 0.00965757 0)
(7.342 0.0103048 0)
(7.34355 0.0108613 0)
(7.3451 0.0113502 0)
(7.34663 0.0117917 0)
(7.34815 0.012204 0)
(7.34965 0.0126032 0)
(7.35113 0.0130037 0)
(7.3526 0.0134187 0)
(7.35405 0.0138602 0)
(7.3555 0.014339 0)
(7.35696 0.0148648 0)
(7.35843 0.0154459 0)
(7.35993 0.0160889 0)
(7.36148 0.0167981 0)
(7.36308 0.0175748 0)
(7.36478 0.0184162 0)
(7.36658 0.0193142 0)
(7.36852 0.0202546 0)
(7.37062 0.0212151 0)
(7.3729 0.0221654 0)
(7.37538 0.0230668 0)
(7.37806 0.023874 0)
(7.38093 0.0245383 0)
(7.38397 0.0250091 0)
(7.38713 0.0252607 0)
(7.33303 0.000780661 0)
(7.33333 0.00232569 0)
(7.33395 0.00379453 0)
(7.33486 0.00510607 0)
(7.33597 0.00624721 0)
(7.33723 0.00722912 0)
(7.33859 0.00806809 0)
(7.34003 0.00878283 0)
(7.34151 0.0093943 0)
(7.34302 0.00992441 0)
(7.34453 0.0103935 0)
(7.34604 0.0108195 0)
(7.34755 0.0112186 0)
(7.34904 0.011605 0)
(7.35053 0.0119919 0)
(7.35201 0.0123908 0)
(7.35349 0.0128121 0)
(7.35497 0.0132649 0)
(7.35647 0.013757 0)
(7.35798 0.0142946 0)
(7.35953 0.0148816 0)
(7.36113 0.0155196 0)
(7.3628 0.0162072 0)
(7.36454 0.016939 0)
(7.36639 0.0177049 0)
(7.36836 0.0184896 0)
(7.37047 0.0192716 0)
(7.37273 0.0200237 0)
(7.37515 0.0207135 0)
(7.37773 0.0213047 0)
(7.38045 0.0217605 0)
(7.38331 0.0220443 0)
(7.38625 0.0221412 0)
(7.33303 0.000696788 0)
(7.33331 0.00207706 0)
(7.33389 0.00339225 0)
(7.33473 0.00456859 0)
(7.33577 0.00559803 0)
(7.33696 0.0064902 0)
(7.33826 0.00725815 0)
(7.33964 0.00791779 0)
(7.34108 0.00848691 0)
(7.34254 0.00898404 0)
(7.34402 0.00942672 0)
(7.34551 0.00983071 0)
(7.347 0.0102101 0)
(7.3485 0.0105776 0)
(7.34999 0.0109445 0)
(7.35148 0.011321 0)
(7.35298 0.0117158 0)
(7.35449 0.0121363 0)
(7.35602 0.0125886 0)
(7.35757 0.0130766 0)
(7.35916 0.0136026 0)
(7.3608 0.0141658 0)
(7.3625 0.0147628 0)
(7.36428 0.0153866 0)
(7.36616 0.0160261 0)
(7.36814 0.016666 0)
(7.37023 0.0172866 0)
(7.37246 0.0178641 0)
(7.37481 0.0183716 0)
(7.37728 0.0187805 0)
(7.37987 0.0190631 0)
(7.38255 0.0191927 0)
(7.3853 0.0191612 0)
(7.33303 0.000615771 0)
(7.33329 0.00183749 0)
(7.33384 0.00300527 0)
(7.33463 0.00405011 0)
(7.33561 0.004968 0)
(7.33673 0.0057681 0)
(7.33798 0.00646104 0)
(7.3393 0.00706034 0)
(7.34069 0.00758108 0)
(7.34211 0.00803894 0)
(7.34357 0.00844893 0)
(7.34504 0.00882464 0)
(7.34652 0.00917829 0)
(7.34801 0.00952082 0)
(7.3495 0.00986194 0)
(7.35101 0.0102102 0)
(7.35252 0.0105727 0)
(7.35405 0.0109555 0)
(7.3556 0.0113628 0)
(7.35718 0.011797 0)
(7.3588 0.0122584 0)
(7.36047 0.012745 0)
(7.3622 0.0132519 0)
(7.364 0.0137712 0)
(7.36588 0.0142915 0)
(7.36785 0.0147984 0)
(7.36993 0.015274 0)
(7.3721 0.0156982 0)
(7.37437 0.0160488 0)
(7.37675 0.0163035 0)
(7.3792 0.0164413 0)
(7.38173 0.0164425 0)
(7.3843 0.0163031 0)
(7.33303 0.00053738 0)
(7.33328 0.00160585 0)
(7.33379 0.00263109 0)
(7.33453 0.0035474 0)
(7.33546 0.00435384 0)
(7.33654 0.00505975 0)
(7.33772 0.00567403 0)
(7.339 0.00620817 0)
(7.34035 0.006675 0)
(7.34174 0.00708774 0)
(7.34317 0.00745909 0)
(7.34462 0.00780065 0)
(7.34609 0.00812278 0)
(7.34757 0.00843473 0)
(7.34907 0.0087446 0)
(7.35058 0.00905936 0)
(7.35211 0.00938476 0)
(7.35365 0.00972519 0)
(7.35522 0.0100835 0)
(7.35682 0.0104606 0)
(7.35846 0.0108557 0)
(7.36014 0.0112655 0)
(7.36189 0.0116842 0)
(7.36369 0.0121037 0)
(7.36557 0.012513 0)
(7.36752 0.0128986 0)
(7.36956 0.0132451 0)
(7.37167 0.0135351 0)
(7.37387 0.0137508 0)
(7.37614 0.0138746 0)
(7.37847 0.0138906 0)
(7.38085 0.0137843 0)
(7.38327 0.0135538 0)
(7.33303 0.000461293 0)
(7.33326 0.00138096 0)
(7.33375 0.00226744 0)
(7.33445 0.00305742 0)
(7.33534 0.00375239 0)
(7.33636 0.00436211 0)
(7.33751 0.00489434 0)
(7.33874 0.00535889 0)
(7.34005 0.00576668 0)
(7.34141 0.00612884 0)
(7.34282 0.00645603 0)
(7.34425 0.00675793 0)
(7.34571 0.00704318 0)
(7.34719 0.00731937 0)
(7.34869 0.00759306 0)
(7.3502 0.00786974 0)
(7.35173 0.00815376 0)
(7.35329 0.00844816 0)
(7.35487 0.00875452 0)
(7.35648 0.00907272 0)
(7.35813 0.00940081 0)
(7.35983 0.00973482 0)
(7.36157 0.0100687 0)
(7.36337 0.0103941 0)
(7.36523 0.0107009 0)
(7.36715 0.010977 0)
(7.36914 0.0112087 0)
(7.37119 0.0113817 0)
(7.37331 0.0114815 0)
(7.37548 0.0114942 0)
(7.37769 0.0114076 0)
(7.37994 0.0112108 0)
(7.38221 0.0109034 0)
(7.33302 0.000387149 0)
(7.33325 0.00116163 0)
(7.33371 0.00191219 0)
(7.33438 0.00257739 0)
(7.33523 0.0031606 0)
(7.33621 0.00367216 0)
(7.33732 0.00411909 0)
(7.33852 0.00450993 0)
(7.3398 0.00485395 0)
(7.34113 0.0051605 0)
(7.34251 0.00543838 0)
(7.34393 0.00569556 0)
(7.34538 0.00593901 0)
(7.34685 0.00617477 0)
(7.34835 0.00640792 0)
(7.34986 0.00664258 0)
(7.3514 0.00688178 0)
(7.35296 0.00712739 0)
(7.35455 0.00737989 0)
(7.35617 0.00763828 0)
(7.35782 0.00789989 0)
(7.35951 0.00816031 0)
(7.36125 0.00841336 0)
(7.36303 0.00865116 0)
(7.36486 0.00886423 0)
(7.36675 0.00904183 0)
(7.36869 0.00917231 0)
(7.37068 0.00924363 0)
(7.37271 0.00924398 0)
(7.37478 0.00916238 0)
(7.37688 0.00898945 0)
(7.37901 0.00871675 0)
(7.38114 0.00834449 0)
(7.33302 0.000314579 0)
(7.33324 0.000946721 0)
(7.33368 0.00156337 0)
(7.33432 0.00210465 0)
(7.33513 0.00257548 0)
(7.33609 0.00298684 0)
(7.33716 0.00334538 0)
(7.33833 0.00365861 0)
(7.33958 0.00393446 0)
(7.34089 0.00418073 0)
(7.34225 0.00440461 0)
(7.34366 0.00461245 0)
(7.3451 0.00480969 0)
(7.34656 0.0050009 0)
(7.34805 0.00518979 0)
(7.34957 0.00537916 0)
(7.35111 0.00557089 0)
(7.35267 0.00576578 0)
(7.35426 0.00596343 0)
(7.35587 0.00616211 0)
(7.35752 0.00635868 0)
(7.35921 0.00654852 0)
(7.36093 0.00672557 0)
(7.36269 0.0068824 0)
(7.36449 0.00701045 0)
(7.36633 0.00710024 0)
(7.36821 0.00714182 0)
(7.37013 0.00712512 0)
(7.37208 0.0070405 0)
(7.37406 0.00687917 0)
(7.37605 0.0066338 0)
(7.37806 0.00629779 0)
(7.38007 0.00587154 0)
(7.33302 0.000243231 0)
(7.33323 0.000735155 0)
(7.33365 0.00121914 0)
(7.33427 0.00163674 0)
(7.33505 0.00199415 0)
(7.33598 0.00230312 0)
(7.33702 0.00257015 0)
(7.33816 0.00280205 0)
(7.33939 0.00300563 0)
(7.34068 0.00318735 0)
(7.34203 0.00335294 0)
(7.34343 0.0035073 0)
(7.34485 0.00365445 0)
(7.34631 0.00379758 0)
(7.3478 0.0039391 0)
(7.34931 0.00408065 0)
(7.35085 0.00422302 0)
(7.35241 0.0043661 0)
(7.35399 0.00450874 0)
(7.3556 0.00464868 0)
(7.35724 0.00478245 0)
(7.35891 0.0049054 0)
(7.36061 0.00501168 0)
(7.36234 0.00509447 0)
(7.36411 0.00514604 0)
(7.3659 0.00515812 0)
(7.36772 0.00512218 0)
(7.36957 0.0050298 0)
(7.37144 0.00487306 0)
(7.37332 0.00464485 0)
(7.37522 0.0043393 0)
(7.37711 0.00395119 0)
(7.37901 0.00348086 0)
(7.33302 0.000172784 0)
(7.33322 0.000525959 0)
(7.33363 0.000877814 0)
(7.33423 0.00117128 0)
(7.33499 0.00141376 0)
(7.33589 0.00161784 0)
(7.33691 0.00179021 0)
(7.33803 0.00193716 0)
(7.33924 0.0020646 0)
(7.34052 0.00217782 0)
(7.34185 0.00228129 0)
(7.34323 0.00237855 0)
(7.34466 0.00247228 0)
(7.34611 0.00256441 0)
(7.34759 0.00265614 0)
(7.3491 0.00274802 0)
(7.35063 0.00283989 0)
(7.35218 0.00293082 0)
(7.35376 0.00301906 0)
(7.35536 0.00310192 0)
(7.35699 0.00317576 0)
(7.35863 0.00323595 0)
(7.36031 0.00327701 0)
(7.36201 0.00329264 0)
(7.36373 0.00327597 0)
(7.36547 0.00321978 0)
(7.36723 0.00311677 0)
(7.36901 0.00295984 0)
(7.3708 0.00274242 0)
(7.37259 0.00245868 0)
(7.37439 0.00210385 0)
(7.37618 0.0016737 0)
(7.37797 0.00116841 0)
(7.33302 0.000102976 0)
(7.33321 0.000318311 0)
(7.3336 0.000537896 0)
(7.33419 0.000706074 0)
(7.33493 0.000831463 0)
(7.33581 0.000927777 0)
(7.33681 0.00100213 0)
(7.33792 0.00106053 0)
(7.33912 0.00110815 0)
(7.34038 0.00114928 0)
(7.34171 0.00118721 0)
(7.34308 0.00122424 0)
(7.3445 0.00126181 0)
(7.34595 0.00130065 0)
(7.34742 0.00134084 0)
(7.34893 0.00138194 0)
(7.35045 0.00142292 0)
(7.352 0.00146217 0)
(7.35356 0.00149739 0)
(7.35515 0.00152559 0)
(7.35675 0.00154301 0)
(7.35838 0.00154516 0)
(7.36002 0.00152688 0)
(7.36168 0.00148242 0)
(7.36336 0.0014057 0)
(7.36505 0.00129037 0)
(7.36675 0.00113017 0)
(7.36846 0.00091908 0)
(7.37017 0.000651582 0)
(7.37188 0.00032282 0)
(7.37358 -7.11816e-05 0)
(7.37528 -0.000533908 0)
(7.37696 -0.00106542 0)
(7.33302 3.36393e-05 0)
(7.3332 0.000111638 0)
(7.33359 0.000198161 0)
(7.33415 0.000239032 0)
(7.33488 0.000244375 0)
(7.33575 0.000229464 0)
(7.33674 0.000202155 0)
(7.33784 0.000168338 0)
(7.33902 0.000132584 0)
(7.34028 9.8317e-05 0)
(7.3416 6.77525e-05 0)
(7.34297 4.19923e-05 0)
(7.34438 2.1265e-05 0)
(7.34583 5.13773e-06 0)
(7.3473 -7.34143e-06 0)
(7.34879 -1.75693e-05 0)
(7.35031 -2.73535e-05 0)
(7.35185 -3.8935e-05 0)
(7.3534 -5.50413e-05 0)
(7.35497 -7.89125e-05 0)
(7.35656 -0.000114359 0)
(7.35815 -0.000165703 0)
(7.35976 -0.000237783 0)
(7.36139 -0.000335782 0)
(7.36302 -0.000465168 0)
(7.36465 -0.000631452 0)
(7.36629 -0.000840085 0)
(7.36793 -0.0010962 0)
(7.36957 -0.0014045 0)
(7.3712 -0.00176907 0)
(7.37281 -0.0021933 0)
(7.37441 -0.00268007 0)
(7.37599 -0.00322968 0)
(7.33302 -3.52299e-05 0)
(7.3332 -9.42158e-05 0)
(7.33357 -0.000142196 0)
(7.33412 -0.00023173 0)
(7.33484 -0.000350489 0)
(7.3357 -0.000480874 0)
(7.33668 -0.000613936 0)
(7.33777 -0.000743803 0)
(7.33895 -0.000866416 0)
(7.34021 -0.000979131 0)
(7.34153 -0.00108075 0)
(7.3429 -0.00117132 0)
(7.34431 -0.00125174 0)
(7.34575 -0.00132354 0)
(7.34722 -0.00138868 0)
(7.34871 -0.00144945 0)
(7.35022 -0.00150839 0)
(7.35174 -0.00156835 0)
(7.35328 -0.00163246 0)
(7.35483 -0.0017042 0)
(7.35639 -0.00178739 0)
(7.35796 -0.00188626 0)
(7.35954 -0.00200528 0)
(7.36112 -0.00214923 0)
(7.36271 -0.00232297 0)
(7.36429 -0.00253139 0)
(7.36587 -0.00277922 0)
(7.36744 -0.00307092 0)
(7.36901 -0.00341053 0)
(7.37055 -0.00380158 0)
(7.37208 -0.00424698 0)
(7.3736 -0.00474924 0)
(7.37508 -0.0053089 0)
(7.33302 -0.000103334 0)
(7.33319 -0.000298672 0)
(7.33355 -0.000483286 0)
(7.33409 -0.000707832 0)
(7.3348 -0.000956289 0)
(7.33565 -0.00120752 0)
(7.33663 -0.0014511 0)
(7.33773 -0.00168109 0)
(7.33891 -0.00189387 0)
(7.34017 -0.00208764 0)
(7.34149 -0.00226246 0)
(7.34286 -0.00241969 0)
(7.34428 -0.00256149 0)
(7.34572 -0.00269046 0)
(7.34718 -0.0028095 0)
(7.34867 -0.00292166 0)
(7.35017 -0.00303017 0)
(7.35169 -0.0031383 0)
(7.35321 -0.0032495 0)
(7.35474 -0.0033674 0)
(7.35628 -0.00349581 0)
(7.35782 -0.00363875 0)
(7.35936 -0.00380045 0)
(7.3609 -0.00398523 0)
(7.36244 -0.0041975 0)
(7.36397 -0.00444158 0)
(7.36549 -0.00472166 0)
(7.367 -0.00504162 0)
(7.36849 -0.00540501 0)
(7.36997 -0.00581487 0)
(7.37142 -0.00627377 0)
(7.37285 -0.00678381 0)
(7.37425 -0.00734565 0)
(7.33302 -0.000169796 0)
(7.33318 -0.000499786 0)
(7.33352 -0.00082409 0)
(7.33405 -0.00119057 0)
(7.33475 -0.0015764 0)
(7.3356 -0.00195522 0)
(7.33659 -0.00231518 0)
(7.3377 -0.0026503 0)
(7.33889 -0.00295692 0)
(7.34016 -0.0032336 0)
(7.34149 -0.00348144 0)
(7.34287 -0.00370324 0)
(7.34428 -0.00390262 0)
(7.34573 -0.00408355 0)
(7.34719 -0.00425019 0)
(7.34868 -0.00440666 0)
(7.35017 -0.00455701 0)
(7.35168 -0.00470516 0)
(7.35318 -0.004855 0)
(7.3547 -0.00501032 0)
(7.35621 -0.00517502 0)
(7.35772 -0.00535297 0)
(7.35923 -0.00554816 0)
(7.36073 -0.00576454 0)
(7.36222 -0.00600609 0)
(7.3637 -0.00627663 0)
(7.36517 -0.00657987 0)
(7.36661 -0.00691921 0)
(7.36804 -0.00729775 0)
(7.36944 -0.0077182 0)
(7.37082 -0.00818283 0)
(7.37217 -0.00869361 0)
(7.37349 -0.00925149 0)
(7.33302 -0.000232583 0)
(7.33316 -0.000692941 0)
(7.33348 -0.00116156 0)
(7.33399 -0.00168114 0)
(7.33469 -0.00221543 0)
(7.33555 -0.00272971 0)
(7.33655 -0.00321146 0)
(7.33767 -0.00365651 0)
(7.33888 -0.00406273 0)
(7.34017 -0.00443009 0)
(7.34152 -0.00476097 0)
(7.34291 -0.00505905 0)
(7.34434 -0.00532858 0)
(7.34579 -0.00557412 0)
(7.34726 -0.00580034 0)
(7.34875 -0.00601191 0)
(7.35024 -0.00621329 0)
(7.35173 -0.00640881 0)
(7.35322 -0.0066026 0)
(7.35472 -0.00679872 0)
(7.3562 -0.00700109 0)
(7.35769 -0.00721361 0)
(7.35916 -0.00744012 0)
(7.36062 -0.00768442 0)
(7.36207 -0.00795018 0)
(7.3635 -0.008241 0)
(7.36491 -0.00856021 0)
(7.3663 -0.00891096 0)
(7.36766 -0.00929601 0)
(7.369 -0.00971784 0)
(7.3703 -0.0101784 0)
(7.37157 -0.0106794 0)
(7.37281 -0.0112216 0)
(7.33301 -0.000287262 0)
(7.33313 -0.000868597 0)
(7.3334 -0.00148863 0)
(7.33389 -0.00217859 0)
(7.33459 -0.00287955 0)
(7.33547 -0.00354455 0)
(7.3365 -0.00415642 0)
(7.33764 -0.0047079 0)
(7.33887 -0.00519677 0)
(7.34019 -0.00562687 0)
(7.34155 -0.00600588 0)
(7.34296 -0.00634213 0)
(7.3444 -0.00664339 0)
(7.34586 -0.00691681 0)
(7.34734 -0.00716895 0)
(7.34882 -0.0074057 0)
(7.35031 -0.00763223 0)
(7.3518 -0.00785318 0)
(7.35328 -0.00807272 0)
(7.35476 -0.00829471 0)
(7.35622 -0.00852279 0)
(7.35768 -0.00876042 0)
(7.35912 -0.00901096 0)
(7.36055 -0.00927767 0)
(7.36196 -0.00956369 0)
(7.36334 -0.00987207 0)
(7.3647 -0.0102057 0)
(7.36604 -0.0105671 0)
(7.36734 -0.0109588 0)
(7.36862 -0.011383 0)
(7.36986 -0.0118415 0)
(7.37106 -0.012336 0)
(7.37224 -0.0128677 0)
(7.33301 -0.000323396 0)
(7.33307 -0.00100883 0)
(7.33327 -0.00179782 0)
(7.33371 -0.00267893 0)
(7.33441 -0.00355616 0)
(7.33533 -0.00439009 0)
(7.3364 -0.00517777 0)
(7.3376 -0.00590951 0)
(7.33889 -0.00657309 0)
(7.34025 -0.00716497 0)
(7.34166 -0.00768909 0)
(7.3431 -0.0081522 0)
(7.34456 -0.00856191 0)
(7.34603 -0.00892632 0)
(7.34751 -0.00925359 0)
(7.34899 -0.0095514 0)
(7.35047 -0.00982682 0)
(7.35194 -0.0100862 0)
(7.3534 -0.0103352 0)
(7.35485 -0.0105789 0)
(7.35629 -0.0108221 0)
(7.35772 -0.0110689 0)
(7.35912 -0.0113233 0)
(7.36051 -0.0115888 0)
(7.36187 -0.011869 0)
(7.36321 -0.0121668 0)
(7.36452 -0.0124852 0)
(7.3658 -0.0128269 0)
(7.36705 -0.013194 0)
(7.36826 -0.0135887 0)
(7.36944 -0.0140125 0)
(7.37058 -0.0144667 0)
(7.37168 -0.0149518 0)
(7.33299 -0.000314783 0)
(7.33294 -0.0010647 0)
(7.33301 -0.00208497 0)
(7.3334 -0.00323979 0)
(7.33411 -0.00429907 0)
(7.33504 -0.00519415 0)
(7.33611 -0.00595231 0)
(7.33732 -0.00660411 0)
(7.33864 -0.00717112 0)
(7.34004 -0.00767245 0)
(7.34149 -0.00812386 0)
(7.34297 -0.00853663 0)
(7.34447 -0.00891897 0)
(7.34598 -0.00927744 0)
(7.34749 -0.00961735 0)
(7.34899 -0.00994307 0)
(7.35048 -0.0102583 0)
(7.35197 -0.0105664 0)
(7.35343 -0.0108702 0)
(7.35488 -0.0111727 0)
(7.35632 -0.0114764 0)
(7.35773 -0.0117839 0)
(7.35911 -0.0120978 0)
(7.36047 -0.0124204 0)
(7.36181 -0.0127541 0)
(7.36312 -0.0131014 0)
(7.36439 -0.0134644 0)
(7.36563 -0.0138452 0)
(7.36684 -0.0142458 0)
(7.36801 -0.0146681 0)
(7.36914 -0.0151135 0)
(7.37024 -0.0155839 0)
(7.3713 -0.0160807 0)
(7.33295 -0.000217217 0)
(7.33262 -0.00092663 0)
(7.33242 -0.00216653 0)
(7.33279 -0.00376965 0)
(7.33368 -0.00548805 0)
(7.33482 -0.0071634 0)
(7.33607 -0.00868025 0)
(7.33739 -0.00997414 0)
(7.33877 -0.011042 0)
(7.34019 -0.0119122 0)
(7.34163 -0.0126171 0)
(7.34308 -0.0131862 0)
(7.34454 -0.0136463 0)
(7.34601 -0.0140217 0)
(7.34748 -0.0143328 0)
(7.34894 -0.0145962 0)
(7.3504 -0.0148253 0)
(7.35185 -0.0150309 0)
(7.35329 -0.0152217 0)
(7.35471 -0.0154047 0)
(7.35611 -0.0155855 0)
(7.3575 -0.0157689 0)
(7.35887 -0.0159587 0)
(7.36021 -0.0161581 0)
(7.36153 -0.0163699 0)
(7.36282 -0.0165968 0)
(7.36407 -0.0168407 0)
(7.3653 -0.0171035 0)
(7.36649 -0.017387 0)
(7.36764 -0.0176923 0)
(7.36875 -0.0180205 0)
(7.36982 -0.0183723 0)
(7.37084 -0.0187481 0)
(7.3329 0.000115825 0)
(7.33207 -0.000891971 0)
(7.33125 -0.00217904 0)
(7.33111 -0.00283149 0)
(7.33162 -0.0030961 0)
(7.33258 -0.00342629 0)
(7.33388 -0.00393083 0)
(7.3354 -0.00454592 0)
(7.33704 -0.0052236 0)
(7.33871 -0.00594394 0)
(7.3404 -0.00668786 0)
(7.34209 -0.00743513 0)
(7.34377 -0.00817073 0)
(7.34543 -0.00888564 0)
(7.34706 -0.00957478 0)
(7.34868 -0.0102356 0)
(7.35028 -0.0108677 0)
(7.35185 -0.0114719 0)
(7.3534 -0.0120499 0)
(7.35493 -0.0126043 0)
(7.35644 -0.0131377 0)
(7.35792 -0.013653 0)
(7.35937 -0.0141532 0)
(7.3608 -0.0146412 0)
(7.3622 -0.0151198 0)
(7.36356 -0.015592 0)
(7.36489 -0.0160603 0)
(7.36619 -0.0165272 0)
(7.36745 -0.0169953 0)
(7.36867 -0.0174666 0)
(7.36985 -0.0179433 0)
(7.371 -0.0184273 0)
(7.37211 -0.0189203 0)
(7.33241 0.002069 0)
(7.33046 -0.000582494 0)
(7.33031 -0.0072721 0)
(7.33142 -0.0136888 0)
(7.33243 -0.0183697 0)
(7.33318 -0.0215114 0)
(7.33404 -0.0235297 0)
(7.33513 -0.0247283 0)
(7.3364 -0.0253445 0)
(7.3378 -0.0255672 0)
(7.33931 -0.0255356 0)
(7.34094 -0.0253475 0)
(7.34265 -0.0250704 0)
(7.34442 -0.0247505 0)
(7.34624 -0.0244183 0)
(7.3481 -0.0240935 0)
(7.34997 -0.0237889 0)
(7.35185 -0.0235121 0)
(7.35373 -0.0232676 0)
(7.35561 -0.0230574 0)
(7.35746 -0.0228824 0)
(7.3593 -0.0227426 0)
(7.36111 -0.0226371 0)
(7.36288 -0.0225653 0)
(7.36463 -0.0225261 0)
(7.36633 -0.0225184 0)
(7.36798 -0.0225413 0)
(7.3696 -0.0225939 0)
(7.37116 -0.0226754 0)
(7.37267 -0.0227852 0)
(7.37413 -0.0229227 0)
(7.37553 -0.0230878 0)
(7.37687 -0.0232803 0)
(7.32878 0.00628092 0)
(7.31725 0.0179588 0)
(7.31242 0.02518 0)
(7.31397 0.027238 0)
(7.31783 0.0259303 0)
(7.32203 0.0231188 0)
(7.32627 0.0197622 0)
(7.33052 0.0162191 0)
(7.33469 0.0126728 0)
(7.33874 0.00926255 0)
(7.34265 0.00607341 0)
(7.34644 0.00313756 0)
(7.35011 0.000457458 0)
(7.35365 -0.00197666 0)
(7.35709 -0.00418028 0)
(7.36041 -0.00617222 0)
(7.36363 -0.00797263 0)
(7.36674 -0.00960135 0)
(7.36975 -0.0110771 0)
(7.37266 -0.012417 0)
(7.37548 -0.0136367 0)
(7.3782 -0.0147503 0)
(7.38082 -0.0157706 0)
(7.38335 -0.0167088 0)
(7.38579 -0.017575 0)
(7.38813 -0.0183782 0)
(7.39039 -0.0191263 0)
(7.39255 -0.0198266 0)
(7.39463 -0.0204853 0)
(7.39662 -0.0211078 0)
(7.39853 -0.0216989 0)
(7.40036 -0.0222623 0)
(7.40211 -0.0228022 0)
(7.33379 -0.0332956 0)
(7.333 -0.0722939 0)
(7.32813 -0.0856484 0)
(7.32657 -0.087068 0)
(7.33014 -0.0846633 0)
(7.33737 -0.0806849 0)
(7.34633 -0.0758326 0)
(7.35583 -0.070761 0)
(7.36532 -0.0659259 0)
(7.37456 -0.0614997 0)
(7.38337 -0.0575106 0)
(7.39167 -0.0539493 0)
(7.39941 -0.050794 0)
(7.4066 -0.0480118 0)
(7.41325 -0.0455645 0)
(7.41938 -0.0434143 0)
(7.42502 -0.0415266 0)
(7.43021 -0.0398703 0)
(7.43498 -0.0384179 0)
(7.43934 -0.0371449 0)
(7.44334 -0.0360302 0)
(7.44699 -0.0350555 0)
(7.45033 -0.0342047 0)
(7.45337 -0.0334641 0)
(7.45614 -0.0328216 0)
(7.45865 -0.0322667 0)
(7.46092 -0.0317905 0)
(7.46298 -0.0313848 0)
(7.46483 -0.0310428 0)
(7.46648 -0.0307582 0)
(7.46796 -0.0305254 0)
(7.46926 -0.0303404 0)
(7.47042 -0.0301971 0)
(7.33141 0.164998 0)
(7.34786 0.185189 0)
(7.36037 0.152168 0)
(7.35684 0.118087 0)
(7.34279 0.0898693 0)
(7.32404 0.0674738 0)
(7.30272 0.0499772 0)
(7.27966 0.0362496 0)
(7.25564 0.0253179 0)
(7.23132 0.0164954 0)
(7.20708 0.00930812 0)