/*--------------------------------*- C++ -*----------------------------------*\
  =========                 |
  \\      /  F ield         | OpenFOAM: The Open Source CFD Toolbox
   \\    /   O peration     | Website:  https://openfoam.org
    \\  /    A nd           | Version:  10
     \\/     M anipulation  |
\*---------------------------------------------------------------------------*/
FoamFile
{
    format      ascii;
    class       volScalarField;
    location    "300";
    object      yPlus;
}
// * * * * * * * * * * * * * * * * * * * * * * * * * * * * * * * * * * * * * //

dimensions      [0 0 0 0 0 0 0];

internalField   uniform 0;

boundaryField
{
    outlet
    {
        type            calculated;
        value           uniform 0;
    }
    inlet
    {
        type            calculated;
        value           uniform 0;
    }
    lowerWall
    {
        type            calculated;
        value           nonuniform List<scalar> 
148
(
9.9937
9.87583
9.76655
9.65577
9.54325
9.43224
9.32599
9.22676
9.13583
9.05377
8.98057
8.91597
8.85951
8.81062
8.76869
8.73312
8.70331
8.67874
8.65887
8.6432
8.63135
8.62287
8.61743
8.61473
8.61443
8.61637
8.62002
8.62751
8.62657
8.66232
8.62222
8.65448
8.6708
5.29811
7.95065
9.50034
10.4729
11.1699
11.8137
11.7038
11.4332
11.7481
11.9708
12.1484
12.0575
11.9401
12.4796
13.8272
5.29811
11.9098
12.5427
12.879
12.9811
12.8917
12.7239
12.5673
12.5313
12.723
13.2281
14.3505
16.8831
20.5976
24.5391
28.349
31.9325
35.2737
38.3833
41.2798
43.9828
46.5101
48.8778
51.1002
53.1901
55.1596
57.0195
58.7799
60.4501
62.0386
63.5534
65.0017
66.3902
67.7243
69.0081
70.2444
71.4348
72.5812
73.6868
74.7588
75.8031
76.8
77.7473
78.6386
79.4655
80.2189
80.8895
81.4684
81.9477
82.3204
82.5815
82.7271
82.7547
82.6634
82.4523
82.1215
81.6716
81.1047
80.4236
79.6325
78.7407
77.7638
76.7229
75.6519
74.6174
73.6632
72.7362
71.8247
70.9515
70.142
69.4176
68.7944
68.2814
67.8814
67.591
67.4013
67.2983
67.2637
67.2768
67.3156
67.3589
67.3871
67.3838
67.3365
67.2371
67.0818
66.872
66.6152
66.3264
66.0246
65.7264
65.4387
65.1594
64.8844
64.615
64.356
64.1226
63.9098
63.7466
63.6231
)
;
    }
    upperWall
    {
        type            calculated;
        value           nonuniform List<scalar> 
133
(
30.6045
31.4255
32.2162
32.9719
33.693
34.3806
35.0365
35.6619
36.2579
36.8255
37.3659
37.88
38.369
38.8339
39.2756
39.6952
40.0935
40.4717
40.8306
41.171
41.494
41.8002
42.0905
42.3657
42.6266
42.8739
43.1082
43.3302
43.5406
43.7399
43.9288
44.1077
44.2773
44.4637
44.6678
44.865
45.0553
45.2384
45.4142
45.5825
45.7433
45.8964
46.0417
46.1791
46.3085
46.4297
46.5427
46.6474
46.7436
46.8311
46.91
46.9801
47.0412
47.0933
47.1361
47.1696
47.1936
47.2079
47.2124
47.2068
47.1911
47.1649
47.1281
47.0805
47.0217
46.9516
46.8698
46.7761
46.6701
46.5515
46.4201
46.2754
46.1171
45.9449
45.7587
45.558
45.3428
45.113
44.8686
44.6099
44.3372
44.051
43.7523
43.442
43.1214
42.7921
42.456
42.1152
41.7718
41.4285
41.0878
40.7523
40.4248
40.1076
39.8033
39.5139
39.2413
38.9869
38.7517
38.5363
38.3409
38.1651
38.0082
37.8691
37.7466
37.6389
37.5443
37.4607
37.3865
37.3195
37.2578
37.1997
37.1433
37.0873
37.0301
36.9705
36.9075
36.8403
36.7682
36.6909
36.6082
36.5199
36.4265
36.328
36.225
36.1178
36.0066
35.8922
35.7739
35.6542
35.5252
35.4175
35.2078
)
;
    }
    frontAndBack
    {
        type            empty;
    }
}


// ************************************************************************* //
