/*--------------------------------*- C++ -*----------------------------------*\
  =========                 |
  \\      /  F ield         | OpenFOAM: The Open Source CFD Toolbox
   \\    /   O peration     | Website:  https://openfoam.org
    \\  /    A nd           | Version:  10
     \\/     M anipulation  |
\*---------------------------------------------------------------------------*/
FoamFile
{
    format      ascii;
    class       volScalarField;
    location    "0.04";
    object      nut;
}
// * * * * * * * * * * * * * * * * * * * * * * * * * * * * * * * * * * * * * //

dimensions      [0 2 -1 0 0 0 0];

internalField   nonuniform List<scalar> 
6820
(
0.000503209
0.00039706
0.000324463
0.000269272
0.00023635
0.000213905
0.000197224
0.000184439
0.000174089
0.000165378
0.000157857
0.000151233
0.00014531
0.000139948
0.000135046
0.000130527
0.000126333
0.000122416
0.000118739
0.000115273
0.000111992
0.000108876
0.000105906
0.00010307
0.000100353
9.77472e-05
9.52421e-05
9.28393e-05
9.05171e-05
8.83378e-05
8.61573e-05
8.43144e-05
8.16966e-05
8.1855e-05
0.000143734
0.000196431
0.000210845
0.000206411
0.00019754
0.000187267
0.000177351
0.00016838
0.000160341
0.000153129
0.00014663
0.000140732
0.000135349
0.000130405
0.000125843
0.000121612
0.000117671
0.000113984
0.000110522
0.000107259
0.000104175
0.00010125
9.84695e-05
9.58193e-05
9.32867e-05
9.08623e-05
8.85314e-05
8.62957e-05
8.41061e-05
8.20364e-05
7.97999e-05
7.81076e-05
3.85892e-05
2.7388e-05
4.30645e-05
7.45024e-05
9.59268e-05
0.000109302
0.000116559
0.000119866
0.000120799
0.000120264
0.000118819
0.000116817
0.000114478
0.000111947
0.000109318
0.000106651
0.000103987
0.000101353
9.87671e-05
9.624e-05
9.37787e-05
9.13867e-05
8.90655e-05
8.6815e-05
8.46338e-05
8.25196e-05
8.0469e-05
7.84772e-05
7.65369e-05
7.46346e-05
7.27525e-05
7.08297e-05
6.88955e-05
1.99676e-05
2.35238e-05
2.20603e-05
1.27668e-05
2.90571e-06
1.24731e-05
2.30199e-05
3.16991e-05
3.86944e-05
4.4258e-05
4.86307e-05
5.20262e-05
5.46182e-05
5.6545e-05
5.79269e-05
5.88623e-05
5.94318e-05
5.97016e-05
5.97262e-05
5.95506e-05
5.92117e-05
5.87399e-05
5.81601e-05
5.74929e-05
5.6755e-05
5.59596e-05
5.5117e-05
5.42339e-05
5.33145e-05
5.23561e-05
5.13578e-05
5.0308e-05
4.92495e-05
1.32455e-05
1.5078e-05
1.99289e-05
2.20242e-05
2.14697e-05
1.95186e-05
1.68794e-05
1.39199e-05
1.08569e-05
7.82006e-06
4.89379e-06
2.15298e-06
7.2917e-07
2.92314e-06
5.05818e-06
6.99136e-06
8.72128e-06
1.02568e-05
1.16102e-05
1.27949e-05
1.38245e-05
1.47127e-05
1.54722e-05
1.61151e-05
1.66523e-05
1.70933e-05
1.74464e-05
1.77181e-05
1.7913e-05
1.8035e-05
1.8086e-05
1.80825e-05
1.80363e-05
1.01925e-05
1.10178e-05
1.1844e-05
1.26481e-05
1.32883e-05
1.38361e-05
1.42355e-05
1.44517e-05
1.44966e-05
1.43919e-05
1.41593e-05
1.38217e-05
1.34007e-05
1.29109e-05
1.23715e-05
1.17986e-05
1.1206e-05
1.06049e-05
1.00046e-05
9.4126e-06
8.83443e-06
8.27438e-06
7.73561e-06
7.22041e-06
6.73042e-06
6.26699e-06
5.83095e-06
5.42372e-06
5.04502e-06
4.69632e-06
4.37164e-06
4.06395e-06
3.74659e-06
7.53767e-06
8.25044e-06
8.67452e-06
8.91031e-06
8.80981e-06
8.61056e-06
8.45548e-06
8.37518e-06
8.36266e-06
8.39305e-06
8.4391e-06
8.48197e-06
8.51217e-06
8.52743e-06
8.52444e-06
8.50193e-06
8.46019e-06
8.40031e-06
8.32382e-06
8.23245e-06
8.12806e-06
8.0125e-06
7.8876e-06
7.75515e-06
7.61681e-06
7.47425e-06
7.32875e-06
7.18169e-06
7.03295e-06
6.88257e-06
6.72534e-06
6.55776e-06
6.36293e-06
5.7558e-06
6.61326e-06
7.00968e-06
7.12169e-06
6.87116e-06
6.51218e-06
6.18538e-06
5.915e-06
5.69946e-06
5.52954e-06
5.39313e-06
5.28052e-06
5.18452e-06
5.09983e-06
5.02297e-06
4.95149e-06
4.88341e-06
4.8171e-06
4.75136e-06
4.6853e-06
4.61836e-06
4.55018e-06
4.48058e-06
4.40955e-06
4.3371e-06
4.26332e-06
4.18807e-06
4.11111e-06
4.03117e-06
3.94652e-06
3.85243e-06
3.74441e-06
3.60988e-06
4.48247e-06
5.25206e-06
5.5482e-06
5.70143e-06
5.62028e-06
5.41384e-06
5.17229e-06
4.92976e-06
4.70554e-06
4.50756e-06
4.33416e-06
4.18099e-06
4.0441e-06
3.92023e-06
3.80674e-06
3.70151e-06
3.60287e-06
3.50956e-06
3.4206e-06
3.33523e-06
3.25284e-06
3.17289e-06
3.09494e-06
3.01858e-06
2.94336e-06
2.86876e-06
2.79402e-06
2.71805e-06
2.63899e-06
2.55421e-06
2.45946e-06
2.34986e-06
2.21665e-06
3.55418e-06
4.24376e-06
4.52363e-06
4.68613e-06
4.65243e-06
4.49281e-06
4.29452e-06
4.09602e-06
3.91371e-06
3.75222e-06
3.60902e-06
3.4803e-06
3.36307e-06
3.25499e-06
3.15424e-06
3.05952e-06
2.96986e-06
2.88448e-06
2.8027e-06
2.72396e-06
2.64775e-06
2.5736e-06
2.50105e-06
2.42964e-06
2.35879e-06
2.28781e-06
2.21571e-06
2.14111e-06
2.06203e-06
1.9757e-06
1.87845e-06
1.7659e-06
1.6306e-06
2.86464e-06
3.46786e-06
3.72805e-06
3.87761e-06
3.87887e-06
3.77552e-06
3.63116e-06
3.47568e-06
3.32347e-06
3.18171e-06
3.052e-06
2.93362e-06
2.82535e-06
2.7258e-06
2.63363e-06
2.54765e-06
2.46686e-06
2.39035e-06
2.31739e-06
2.24732e-06
2.17957e-06
2.1136e-06
2.04887e-06
1.98481e-06
1.92074e-06
1.85581e-06
1.78891e-06
1.71858e-06
1.64286e-06
1.55924e-06
1.46463e-06
1.3558e-06
1.22635e-06
2.33906e-06
2.86177e-06
3.11853e-06
3.27169e-06
3.30435e-06
3.23901e-06
3.12449e-06
2.99105e-06
2.85564e-06
2.72737e-06
2.60916e-06
2.50098e-06
2.40192e-06
2.3108e-06
2.22643e-06
2.14776e-06
2.07388e-06
2.00402e-06
1.93751e-06
1.87374e-06
1.81215e-06
1.75218e-06
1.69326e-06
1.63474e-06
1.5759e-06
1.51582e-06
1.45341e-06
1.38728e-06
1.31575e-06
1.2368e-06
1.14819e-06
1.04834e-06
9.32528e-07
1.92881e-06
2.38329e-06
2.64036e-06
2.79585e-06
2.84771e-06
2.81161e-06
2.72629e-06
2.61901e-06
2.50521e-06
2.39339e-06
2.28721e-06
2.1878e-06
2.09532e-06
2.00942e-06
1.92951e-06
1.85492e-06
1.78498e-06
1.71906e-06
1.65654e-06
1.59683e-06
1.53935e-06
1.48352e-06
1.42876e-06
1.37441e-06
1.31974e-06
1.2639e-06
1.20592e-06
1.14468e-06
1.07896e-06
1.00755e-06
9.29391e-07
8.4505e-07
7.52731e-07
1.60107e-06
2.00033e-06
2.25941e-06
2.42139e-06
2.49126e-06
2.48085e-06
2.41975e-06
2.33217e-06
2.2333e-06
2.13241e-06
2.0344e-06
1.94148e-06
1.85447e-06
1.77341e-06
1.69797e-06
1.62761e-06
1.56175e-06
1.49982e-06
1.44124e-06
1.38546e-06
1.33194e-06
1.28014e-06
1.2295e-06
1.17944e-06
1.12931e-06
1.07844e-06
1.02612e-06
9.71656e-07
9.14499e-07
8.54492e-07
7.92051e-07
7.29993e-07
6.69766e-07
1.33341e-06
1.69044e-06
1.95241e-06
2.12254e-06
2.20688e-06
2.21634e-06
2.17493e-06
2.10468e-06
2.02037e-06
1.93123e-06
1.84246e-06
1.75676e-06
1.6754e-06
1.59884e-06
1.5271e-06
1.45993e-06
1.39698e-06
1.33783e-06
1.28203e-06
1.22913e-06
1.17865e-06
1.13014e-06
1.08311e-06
1.03708e-06
9.91589e-07
9.462e-07
9.00565e-07
8.54522e-07
8.08253e-07
7.62628e-07
7.19328e-07
6.82514e-07
6.55013e-07
1.11017e-06
1.43695e-06
1.70247e-06
1.88186e-06
1.97952e-06
2.00647e-06
1.98271e-06
1.92788e-06
1.85604e-06
1.77641e-06
1.6947e-06
1.61423e-06
1.53688e-06
1.46356e-06
1.39461e-06
1.33002e-06
1.26959e-06
1.213e-06
1.15991e-06
1.10992e-06
1.06264e-06
1.01769e-06
9.74711e-07
9.33367e-07
8.93395e-07
8.5464e-07
8.17125e-07
7.8118e-07
7.47581e-07
7.17837e-07
6.94171e-07
6.8062e-07
6.79396e-07
9.20192e-07
1.22772e-06
1.49783e-06
1.68701e-06
1.79694e-06
1.83887e-06
1.83015e-06
1.7886e-06
1.72775e-06
1.65689e-06
1.58202e-06
1.5069e-06
1.43374e-06
1.36377e-06
1.29758e-06
1.23539e-06
1.17716e-06
1.12274e-06
1.0719e-06
1.02438e-06
9.79902e-07
9.38205e-07
8.99065e-07
8.62322e-07
8.27915e-07
7.95931e-07
7.66687e-07
7.40824e-07
7.19386e-07
7.03988e-07
6.96641e-07
7.00366e-07
7.16244e-07
7.55469e-07
1.05395e-06
1.33007e-06
1.52916e-06
1.65064e-06
1.70597e-06
1.71082e-06
1.6814e-06
1.63068e-06
1.56782e-06
1.49908e-06
1.42855e-06
1.35885e-06
1.29154e-06
1.22752e-06
1.16723e-06
1.11084e-06
1.05834e-06
1.00963e-06
9.64553e-07
9.22941e-07
8.84645e-07
8.49561e-07
8.17664e-07
7.89041e-07
7.63939e-07
7.42813e-07
7.26384e-07
7.15649e-07
7.11953e-07
7.16732e-07
7.3198e-07
7.57922e-07
6.1029e-07
9.09606e-07
1.19333e-06
1.40215e-06
1.53451e-06
1.6019e-06
1.61882e-06
1.60021e-06
1.55847e-06
1.50273e-06
1.43943e-06
1.37299e-06
1.30635e-06
1.24137e-06
1.17918e-06
1.12043e-06
1.06546e-06
1.01442e-06
9.67333e-07
9.2415e-07
8.84818e-07
8.49291e-07
8.17567e-07
7.89716e-07
7.6591e-07
7.46451e-07
7.31791e-07
7.2256e-07
7.1954e-07
7.23683e-07
7.35878e-07
7.5737e-07
7.87878e-07
4.80996e-07
7.91074e-07
1.08379e-06
1.30188e-06
1.4444e-06
1.52278e-06
1.55073e-06
1.54212e-06
1.50884e-06
1.45994e-06
1.40199e-06
1.33964e-06
1.27609e-06
1.21347e-06
1.15314e-06
1.09597e-06
1.04245e-06
9.92871e-07
9.47374e-07
9.06024e-07
8.6885e-07
8.35885e-07
8.07189e-07
7.82874e-07
7.63127e-07
7.48219e-07
7.38517e-07
7.34481e-07
7.36635e-07
7.45567e-07
7.61759e-07
7.85917e-07
8.17555e-07
3.66476e-07
6.97027e-07
9.99188e-07
1.22568e-06
1.37744e-06
1.46569e-06
1.50342e-06
1.50364e-06
1.47771e-06
1.43455e-06
1.38086e-06
1.32151e-06
1.25996e-06
1.19858e-06
1.13899e-06
1.08225e-06
1.02902e-06
9.79728e-07
9.34627e-07
8.9387e-07
8.57557e-07
8.25772e-07
7.98604e-07
7.76169e-07
7.58623e-07
7.4617e-07
7.39059e-07
7.37578e-07
7.42029e-07
7.52732e-07
7.69897e-07
7.93901e-07
8.24197e-07
2.70765e-07
6.28527e-07
9.38762e-07
1.17236e-06
1.3324e-06
1.42973e-06
1.47665e-06
1.4854e-06
1.46688e-06
1.42985e-06
1.38106e-06
1.32551e-06
1.26683e-06
1.2076e-06
1.14959e-06
1.094e-06
1.04165e-06
9.93042e-07
9.48538e-07
9.0836e-07
8.72663e-07
8.41564e-07
8.15169e-07
7.93584e-07
7.76926e-07
7.65329e-07
7.58938e-07
7.57907e-07
7.62377e-07
7.72487e-07
7.88282e-07
8.09931e-07
8.36928e-07
2.09808e-07
5.88416e-07
9.02652e-07
1.14124e-06
1.30801e-06
1.41285e-06
1.46721e-06
1.48258e-06
1.46937e-06
1.43624e-06
1.38999e-06
1.33582e-06
1.27758e-06
1.21807e-06
1.15927e-06
1.10256e-06
1.04889e-06
9.98885e-07
9.52978e-07
9.11443e-07
8.74463e-07
8.42166e-07
8.14646e-07
7.9198e-07
7.74236e-07
7.61482e-07
7.5378e-07
7.51186e-07
7.53737e-07
7.61464e-07
7.7432e-07
7.92358e-07
8.15138e-07
2.12557e-07
5.80285e-07
8.92127e-07
1.13357e-06
1.30626e-06
1.41859e-06
1.48101e-06
1.50424e-06
1.49818e-06
1.47119e-06
1.42998e-06
1.37973e-06
1.32438e-06
1.26682e-06
1.20914e-06
1.15285e-06
1.09898e-06
1.04828e-06
1.00125e-06
9.58223e-07
9.19437e-07
8.85051e-07
8.55174e-07
8.29886e-07
8.09244e-07
7.93291e-07
7.82056e-07
7.75557e-07
7.73791e-07
7.76745e-07
7.84349e-07
7.96598e-07
8.13177e-07
2.81205e-07
6.06499e-07
9.08109e-07
1.14888e-06
1.32453e-06
1.44096e-06
1.50735e-06
1.53372e-06
1.52963e-06
1.50342e-06
1.46192e-06
1.41053e-06
1.35337e-06
1.29352e-06
1.23323e-06
1.1741e-06
1.11725e-06
1.06344e-06
1.0132e-06
9.66854e-07
9.24631e-07
8.86666e-07
8.53042e-07
8.23809e-07
7.98998e-07
7.7863e-07
7.62716e-07
7.51262e-07
7.44264e-07
7.41715e-07
7.43566e-07
7.49818e-07
7.60256e-07
3.89534e-07
6.67354e-07
9.53598e-07
1.19287e-06
1.37312e-06
1.49717e-06
1.57256e-06
1.60817e-06
1.61271e-06
1.59394e-06
1.55838e-06
1.5113e-06
1.45686e-06
1.39824e-06
1.33783e-06
1.27741e-06
1.21827e-06
1.16132e-06
1.10719e-06
1.05633e-06
1.00901e-06
9.65444e-07
9.25731e-07
8.89949e-07
8.58144e-07
8.30349e-07
8.06596e-07
7.86915e-07
7.71338e-07
7.59902e-07
7.52624e-07
7.4956e-07
7.50638e-07
5.22988e-07
7.61074e-07
1.02748e-06
1.25956e-06
1.43671e-06
1.55838e-06
1.63099e-06
1.66321e-06
1.66392e-06
1.64115e-06
1.6016e-06
1.55069e-06
1.49258e-06
1.43044e-06
1.36661e-06
1.30275e-06
1.24008e-06
1.17941e-06
1.12131e-06
1.06615e-06
1.01415e-06
9.65467e-07
9.2018e-07
8.78339e-07
8.39981e-07
8.05144e-07
7.7388e-07
7.46261e-07
7.22386e-07
7.02381e-07
6.86371e-07
6.74553e-07
6.66948e-07
6.7899e-07
8.88623e-07
1.13923e-06
1.37163e-06
1.55835e-06
1.69425e-06
1.78254e-06
1.82961e-06
1.84283e-06
1.82943e-06
1.79593e-06
1.7479e-06
1.68991e-06
1.62557e-06
1.55767e-06
1.4883e-06
1.41899e-06
1.35083e-06
1.28457e-06
1.22069e-06
1.15951e-06
1.10121e-06
1.04587e-06
9.93542e-07
9.44238e-07
8.97977e-07
8.54793e-07
8.14752e-07
7.77962e-07
7.44585e-07
7.14811e-07
6.88969e-07
6.67157e-07
8.60691e-07
1.04941e-06
1.27772e-06
1.49232e-06
1.66155e-06
1.77969e-06
1.85133e-06
1.88437e-06
1.88691e-06
1.86614e-06
1.82807e-06
1.77754e-06
1.71837e-06
1.6535e-06
1.58521e-06
1.51518e-06
1.44469e-06
1.37466e-06
1.30575e-06
1.23843e-06
1.17299e-06
1.10962e-06
1.04843e-06
9.89466e-07
9.32756e-07
8.78315e-07
8.2618e-07
7.76416e-07
7.29141e-07
6.84548e-07
6.4287e-07
6.04586e-07
5.69679e-07
1.07421e-06
1.25418e-06
1.48307e-06
1.72005e-06
1.92463e-06
2.07993e-06
2.18322e-06
2.23899e-06
2.25469e-06
2.23849e-06
2.19812e-06
2.14028e-06
2.07041e-06
1.99277e-06
1.91059e-06
1.82619e-06
1.74124e-06
1.65688e-06
1.57384e-06
1.49259e-06
1.41339e-06
1.33635e-06
1.2615e-06
1.18881e-06
1.11822e-06
1.04966e-06
9.8308e-07
9.18455e-07
8.55794e-07
7.95166e-07
7.36663e-07
6.80668e-07
6.26803e-07
1.33075e-06
1.4993e-06
1.68743e-06
1.86785e-06
2.01289e-06
2.11782e-06
2.18651e-06
2.22427e-06
2.23562e-06
2.22449e-06
2.19459e-06
2.1494e-06
2.09212e-06
2.02564e-06
1.95246e-06
1.8747e-06
1.7941e-06
1.712e-06
1.62945e-06
1.5472e-06
1.46576e-06
1.38548e-06
1.30655e-06
1.22906e-06
1.15301e-06
1.07839e-06
1.00516e-06
9.33265e-07
8.62686e-07
7.93437e-07
7.25484e-07
6.59185e-07
5.93316e-07
1.6426e-06
1.83267e-06
2.0862e-06
2.37654e-06
2.63051e-06
2.81167e-06
2.91814e-06
2.96182e-06
2.95676e-06
2.91596e-06
2.85029e-06
2.76804e-06
2.6752e-06
2.57598e-06
2.47324e-06
2.3689e-06
2.26424e-06
2.16011e-06
2.05704e-06
1.95539e-06
1.85537e-06
1.75707e-06
1.66056e-06
1.5658e-06
1.47278e-06
1.38143e-06
1.29169e-06
1.20352e-06
1.11688e-06
1.03174e-06
9.48074e-07
8.66087e-07
7.8459e-07
2.04022e-06
2.18766e-06
2.27865e-06
2.3735e-06
2.48097e-06
2.59282e-06
2.69629e-06
2.77949e-06
2.8341e-06
2.85696e-06
2.84922e-06
2.8146e-06
2.75788e-06
2.68399e-06
2.59744e-06
2.50204e-06
2.40088e-06
2.29635e-06
2.19023e-06
2.08379e-06
1.97792e-06
1.87319e-06
1.76996e-06
1.66842e-06
1.56866e-06
1.47068e-06
1.3745e-06
1.28011e-06
1.18756e-06
1.09696e-06
1.00839e-06
9.22568e-07
8.37584e-07
2.5435e-06
2.86634e-06
3.3056e-06
3.7432e-06
4.03591e-06
4.1729e-06
4.20097e-06
4.16077e-06
4.07863e-06
3.97165e-06
3.84992e-06
3.7189e-06
3.58167e-06
3.44024e-06
3.29614e-06
3.15071e-06
3.00519e-06
2.8607e-06
2.71824e-06
2.57858e-06
2.44235e-06
2.30995e-06
2.18165e-06
2.05756e-06
1.93769e-06
1.82197e-06
1.71029e-06
1.60252e-06
1.49859e-06
1.39849e-06
1.30229e-06
1.21056e-06
1.12211e-06
3.24972e-06
3.173e-06
2.92088e-06
2.89994e-06
3.10666e-06
3.39333e-06
3.65416e-06
3.84226e-06
3.94771e-06
3.98204e-06
3.9649e-06
3.91556e-06
3.84954e-06
3.77791e-06
3.70761e-06
3.6423e-06
3.5833e-06
3.53056e-06
3.48321e-06
3.44012e-06
3.40009e-06
3.36202e-06
3.32498e-06
3.28823e-06
3.25118e-06
3.21336e-06
3.17445e-06
3.13422e-06
3.09263e-06
3.04983e-06
3.00613e-06
2.96353e-06
2.91942e-06
4.28972e-06
5.53796e-06
6.31311e-06
6.57426e-06
6.48505e-06
6.27744e-06
6.1405e-06
6.15702e-06
6.33379e-06
6.63301e-06
7.00228e-06
7.39516e-06
7.77774e-06
8.12813e-06
8.43406e-06
8.69019e-06
8.89569e-06
9.05256e-06
9.1643e-06
9.23522e-06
9.26983e-06
9.27257e-06
9.24758e-06
9.19861e-06
9.12896e-06
9.04146e-06
8.93847e-06
8.8218e-06
8.69316e-06
8.55332e-06
8.40433e-06
8.24737e-06
8.08509e-06
5.6186e-06
3.57568e-06
2.78018e-06
4.65364e-06
7.37221e-06
9.93762e-06
1.2116e-05
1.38432e-05
1.51321e-05
1.60244e-05
1.65675e-05
1.68099e-05
1.67999e-05
1.65827e-05
1.61996e-05
1.5687e-05
1.50768e-05
1.43961e-05
1.36674e-05
1.29092e-05
1.21363e-05
1.13604e-05
1.05905e-05
9.83312e-06
9.09318e-06
8.37375e-06
7.67668e-06
7.00217e-06
6.35036e-06
5.71753e-06
5.1064e-06
4.50294e-06
3.92662e-06
1.14347e-05
1.65224e-05
1.8292e-05
1.98029e-05
2.02714e-05
1.95208e-05
1.77734e-05
1.53043e-05
1.24695e-05
9.81078e-06
8.21702e-06
8.61464e-06
1.07386e-05
1.36281e-05
1.66956e-05
1.96838e-05
2.24821e-05
2.50439e-05
2.73539e-05
2.94131e-05
3.12313e-05
3.28229e-05
3.42046e-05
3.53936e-05
3.64072e-05
3.7262e-05
3.79739e-05
3.85581e-05
3.903e-05
3.94051e-05
3.9704e-05
3.99458e-05
4.01813e-05
2.48754e-05
2.86533e-05
3.9001e-05
5.34363e-05
6.76937e-05
8.1611e-05
9.4454e-05
0.000105617
0.000115055
0.000122845
0.000129092
0.000133951
0.000137593
0.00014018
0.000141865
0.000142786
0.000143067
0.000142813
0.000142117
0.000141058
0.000139704
0.000138111
0.000136328
0.000134393
0.00013234
0.000130197
0.000127985
0.00012572
0.000123421
0.000121089
0.000118744
0.000116391
0.000114248
0.000543312
0.000510567
0.000491592
0.000467899
0.000443871
0.000421527
0.000400026
0.000379435
0.00036002
0.000341802
0.000324765
0.000308895
0.000294149
0.000280464
0.000267769
0.000255991
0.000245056
0.000234889
0.000225422
0.000216588
0.000208328
0.000200586
0.000193312
0.000186462
0.000179994
0.000173872
0.000168061
0.000162534
0.000157244
0.000152198
0.000147224
0.000142892
0.000138883
7.65983e-05
7.61258e-05
8.00746e-05
8.32406e-05
8.55926e-05
8.28835e-05
7.06855e-05
5.63588e-05
5.10229e-05
5.02271e-05
4.79961e-05
4.39207e-05
3.89794e-05
3.38187e-05
2.8722e-05
2.39026e-05
1.98592e-05
1.79922e-05
2.03558e-05
2.13656e-05
1.01821e-05
1.32083e-05
2.73599e-05
2.32904e-05
1.22711e-05
1.9429e-05
2.54562e-05
2.47669e-05
2.17933e-05
1.93411e-05
1.76269e-05
1.62134e-05
1.48951e-05
1.36463e-05
1.24765e-05
1.13866e-05
1.03734e-05
9.43481e-06
8.56868e-06
7.77144e-06
7.03865e-06
6.36618e-06
5.75058e-06
5.18786e-06
4.67161e-06
4.19286e-06
3.74347e-06
3.32161e-06
2.93476e-06
2.59635e-06
2.31694e-06
2.09606e-06
1.92089e-06
1.77251e-06
1.63448e-06
1.49839e-06
1.36435e-06
1.2373e-06
1.12227e-06
1.02109e-06
9.31817e-07
8.50486e-07
7.73357e-07
6.98525e-07
6.26199e-07
5.57924e-07
4.95439e-07
4.39812e-07
3.91186e-07
3.48995e-07
3.12387e-07
2.80536e-07
2.52806e-07
2.28721e-07
2.07887e-07
1.90001e-07
1.74525e-07
1.61451e-07
1.50329e-07
1.40873e-07
1.32854e-07
1.26075e-07
1.20385e-07
1.15664e-07
1.11818e-07
1.08759e-07
1.06401e-07
1.0465e-07
1.03418e-07
1.02599e-07
1.02144e-07
1.01911e-07
1.01984e-07
1.02034e-07
1.02563e-07
1.02589e-07
1.03718e-07
1.03446e-07
1.05291e-07
1.03417e-07
9.8845e-05
9.40948e-05
9.27869e-05
9.39416e-05
9.71576e-05
0.00010042
0.00010066
8.91923e-05
6.89448e-05
5.32827e-05
4.71792e-05
4.43068e-05
4.07138e-05
3.63199e-05
3.18568e-05
2.79893e-05
2.50523e-05
2.38504e-05
2.12719e-05
9.08046e-06
1.26394e-05
2.84949e-05
2.62634e-05
1.24099e-05
1.68211e-05
2.5381e-05
2.62491e-05
2.34667e-05
2.06918e-05
1.87613e-05
1.72958e-05
1.59796e-05
1.47254e-05
1.35328e-05
1.24082e-05
1.13527e-05
1.03667e-05
9.44992e-06
8.60052e-06
7.81524e-06
7.09023e-06
6.42212e-06
5.80827e-06
5.24546e-06
4.72799e-06
4.24732e-06
3.79532e-06
3.36991e-06
2.97859e-06
2.63543e-06
2.35214e-06
2.12911e-06
1.95353e-06
1.80553e-06
1.66747e-06
1.53016e-06
1.39359e-06
1.26318e-06
1.14462e-06
1.0403e-06
9.48564e-07
8.65416e-07
7.86893e-07
7.10823e-07
6.37221e-07
5.67565e-07
5.0363e-07
4.46571e-07
3.96606e-07
3.53205e-07
3.15514e-07
2.82698e-07
2.54105e-07
2.29248e-07
2.07733e-07
1.89186e-07
1.7343e-07
1.59978e-07
1.4851e-07
1.38801e-07
1.30606e-07
1.23702e-07
1.17901e-07
1.13045e-07
1.09003e-07
1.05662e-07
1.02929e-07
1.0072e-07
9.89672e-08
9.75925e-08
9.65659e-08
9.57769e-08
9.53038e-08
9.48588e-08
9.4902e-08
9.44695e-08
9.5229e-08
9.42614e-08
9.62427e-08
9.31298e-08
8.95962e-05
8.83397e-05
8.79038e-05
8.9007e-05
9.19626e-05
9.61122e-05
0.000100518
0.000102486
9.59139e-05
7.88221e-05
5.87843e-05
4.44052e-05
3.7052e-05
3.30477e-05
2.96865e-05
2.60488e-05
2.17753e-05
1.52402e-05
6.67247e-06
1.92722e-05
3.1378e-05
2.81401e-05
1.29474e-05
1.48146e-05
2.53255e-05
2.76249e-05
2.51114e-05
2.20131e-05
1.98216e-05
1.8291e-05
1.69919e-05
1.57541e-05
1.45598e-05
1.34201e-05
1.23399e-05
1.13209e-05
1.03642e-05
9.47038e-06
8.63806e-06
7.86479e-06
7.14761e-06
6.48397e-06
5.87195e-06
5.30906e-06
4.79027e-06
4.30747e-06
3.85255e-06
3.42321e-06
3.02693e-06
2.67843e-06
2.39059e-06
2.16485e-06
1.98849e-06
1.84074e-06
1.70266e-06
1.56411e-06
1.4249e-06
1.29087e-06
1.16846e-06
1.06069e-06
9.66244e-07
8.8114e-07
8.01214e-07
7.24028e-07
6.49397e-07
5.78719e-07
5.13795e-07
4.55861e-07
4.05198e-07
3.61296e-07
3.23279e-07
2.90271e-07
2.61579e-07
2.36688e-07
2.15191e-07
1.96738e-07
1.80944e-07
1.67429e-07
1.56032e-07
1.46408e-07
1.38316e-07
1.31539e-07
1.25888e-07
1.21198e-07
1.17325e-07
1.14147e-07
1.11558e-07
1.09467e-07
1.078e-07
1.06485e-07
1.05484e-07
1.0471e-07
1.04207e-07
1.03772e-07
1.03701e-07
1.03359e-07
1.03772e-07
1.03225e-07
1.04228e-07
1.01746e-07
6.44256e-05
6.46079e-05
6.56091e-05
6.79221e-05
7.17795e-05
7.67369e-05
8.22122e-05
8.80042e-05
9.24352e-05
9.14594e-05
8.24506e-05
6.77443e-05
5.23587e-05
3.97137e-05
3.05065e-05
2.40728e-05
2.1701e-05
2.55674e-05
3.34396e-05
3.68029e-05
2.84893e-05
1.14084e-05
1.42973e-05
2.5907e-05
2.89222e-05
2.657e-05
2.32349e-05
2.08131e-05
1.92045e-05
1.7914e-05
1.67002e-05
1.5521e-05
1.43858e-05
1.33001e-05
1.22654e-05
1.12837e-05
1.03572e-05
9.48692e-06
8.67236e-06
7.91182e-06
7.20319e-06
6.54469e-06
5.93504e-06
5.37245e-06
4.85254e-06
4.36768e-06
3.90981e-06
3.47641e-06
3.07494e-06
2.72077e-06
2.42812e-06
2.19961e-06
2.02274e-06
1.87579e-06
1.73836e-06
1.59919e-06
1.45775e-06
1.32032e-06
1.19406e-06
1.08272e-06
9.85387e-07
8.9811e-07
8.16528e-07
7.37926e-07
6.61903e-07
5.89761e-07
5.2333e-07
4.63925e-07
4.11907e-07
3.66805e-07
3.27739e-07
2.93804e-07
2.64278e-07
2.38626e-07
2.16426e-07
1.97323e-07
1.80964e-07
1.67088e-07
1.55344e-07
1.45417e-07
1.37089e-07
1.30134e-07
1.24352e-07
1.1957e-07
1.15636e-07
1.1242e-07
1.0981e-07
1.0771e-07
1.06042e-07
1.04729e-07
1.03733e-07
1.02964e-07
1.02466e-07
1.02033e-07
1.01962e-07
1.01607e-07
1.0202e-07
1.01394e-07
1.02497e-07
9.99615e-08
2.42029e-05
2.50498e-05
2.66455e-05
2.94646e-05
3.35954e-05
3.89713e-05
4.54128e-05
5.25505e-05
6.01662e-05
6.73654e-05
7.18804e-05
7.1714e-05
6.70818e-05
6.01733e-05
5.34527e-05
4.86434e-05
4.63316e-05
4.38745e-05
3.69977e-05
2.28912e-05
5.77064e-06
1.68298e-05
2.76428e-05
3.01586e-05
2.76855e-05
2.42372e-05
2.16926e-05
2.00253e-05
1.87337e-05
1.7542e-05
1.63885e-05
1.5275e-05
1.42031e-05
1.31718e-05
1.21826e-05
1.12388e-05
1.03433e-05
9.49744e-06
8.7015e-06
7.95461e-06
7.25545e-06
6.60291e-06
5.99636e-06
5.43464e-06
4.91406e-06
4.42746e-06
3.96688e-06
3.52958e-06
3.12296e-06
2.76306e-06
2.46539e-06
2.23391e-06
2.0565e-06
1.91053e-06
1.77407e-06
1.63461e-06
1.49115e-06
1.35034e-06
1.22015e-06
1.10508e-06
1.00469e-06
9.15119e-07
8.31842e-07
7.5188e-07
6.74607e-07
6.01227e-07
5.3358e-07
4.73061e-07
4.20104e-07
3.74271e-07
3.34667e-07
3.00353e-07
2.70565e-07
2.44737e-07
2.22433e-07
2.03276e-07
1.86927e-07
1.73015e-07
1.61203e-07
1.51288e-07
1.42977e-07
1.36056e-07
1.30321e-07
1.25598e-07
1.21732e-07
1.1859e-07
1.16057e-07
1.14036e-07
1.12444e-07
1.11206e-07
1.1028e-07
1.0958e-07
1.09136e-07
1.08774e-07
1.08718e-07
1.08475e-07
1.08777e-07
1.08468e-07
1.09117e-07
1.07192e-07
4.55796e-06
4.15246e-06
3.51181e-06
2.6892e-06
3.067e-06
5.90315e-06
1.03587e-05
1.58277e-05
2.18704e-05
2.8232e-05
3.45744e-05
4.00097e-05
4.33884e-05
4.41399e-05
4.2402e-05
3.88184e-05
3.21499e-05
2.14315e-05
6.82691e-06
9.76696e-06
2.32426e-05
3.03391e-05
3.1042e-05
2.81858e-05
2.4826e-05
2.23652e-05
2.07231e-05
1.94427e-05
1.82702e-05
1.71457e-05
1.60653e-05
1.50236e-05
1.40143e-05
1.30363e-05
1.20928e-05
1.11874e-05
1.03234e-05
9.50267e-06
8.72614e-06
7.99375e-06
7.30488e-06
6.65906e-06
6.05623e-06
5.49587e-06
4.97495e-06
4.4868e-06
4.02361e-06
3.58245e-06
3.17063e-06
2.80479e-06
2.50185e-06
2.26725e-06
2.08936e-06
1.94474e-06
1.80981e-06
1.6706e-06
1.52553e-06
1.38155e-06
1.24745e-06
1.12854e-06
1.02492e-06
9.32876e-07
8.4772e-07
7.66208e-07
6.8748e-07
6.12619e-07
5.4347e-07
4.815e-07
4.27223e-07
3.80241e-07
3.39656e-07
3.04497e-07
2.73965e-07
2.47471e-07
2.24564e-07
2.04866e-07
1.88017e-07
1.73685e-07
1.61594e-07
1.51448e-07
1.42938e-07
1.35873e-07
1.30035e-07
1.2524e-07
1.21327e-07
1.18155e-07
1.15605e-07
1.13575e-07
1.11981e-07
1.10742e-07
1.09817e-07
1.09117e-07
1.08674e-07
1.08306e-07
1.08247e-07
1.07982e-07
1.08287e-07
1.079e-07
1.0866e-07
1.06637e-07
8.2193e-06
8.03994e-06
7.48255e-06
6.35355e-06
4.63262e-06
2.76663e-06
3.36728e-06
6.68874e-06
1.0472e-05
1.37415e-05
1.58908e-05
1.67657e-05
1.66164e-05
1.56301e-05
1.3768e-05
1.11468e-05
1.09918e-05
1.64845e-05
2.41291e-05
2.99643e-05
3.20618e-05
3.07211e-05
2.77246e-05
2.48313e-05
2.27353e-05
2.12482e-05
2.00161e-05
1.88686e-05
1.77759e-05
1.67365e-05
1.5738e-05
1.47673e-05
1.38188e-05
1.28938e-05
1.19961e-05
1.11295e-05
1.02974e-05
9.50249e-06
8.74622e-06
8.02921e-06
7.35147e-06
6.71312e-06
6.11465e-06
5.55617e-06
5.03527e-06
4.54583e-06
4.08021e-06
3.63529e-06
3.21829e-06
2.84642e-06
2.53799e-06
2.30004e-06
2.12164e-06
1.97858e-06
1.84557e-06
1.70704e-06
1.56068e-06
1.41366e-06
1.2756e-06
1.15271e-06
1.04568e-06
9.50985e-07
8.63827e-07
7.80707e-07
7.00529e-07
6.24252e-07
5.53714e-07
4.90453e-07
4.35061e-07
3.87182e-07
3.45911e-07
3.1024e-07
2.79329e-07
2.52557e-07
2.29456e-07
2.09632e-07
1.92725e-07
1.78388e-07
1.66287e-07
1.56111e-07
1.47652e-07
1.40635e-07
1.34864e-07
1.30146e-07
1.26316e-07
1.23231e-07
1.2077e-07
1.18826e-07
1.17314e-07
1.16154e-07
1.15301e-07
1.14671e-07
1.14283e-07
1.13984e-07
1.13944e-07
1.13776e-07
1.14e-07
1.13861e-07
1.14286e-07
1.12736e-07
4.59271e-06
4.37054e-06
3.88443e-06
3.0139e-06
1.74573e-06
1.00513e-06
3.04741e-06
6.03946e-06
9.62225e-06
1.35246e-05
1.72642e-05
2.03097e-05
2.24044e-05
2.37591e-05
2.49317e-05
2.65194e-05
2.85996e-05
3.04675e-05
3.12708e-05
3.05542e-05
2.86147e-05
2.62855e-05
2.42781e-05
2.27595e-05
2.15305e-05
2.03965e-05
1.9301e-05
1.82571e-05
1.72706e-05
1.6327e-05
1.54087e-05
1.4506e-05
1.36173e-05
1.2745e-05
1.18929e-05
1.10653e-05
1.02657e-05
9.49732e-06
8.7621e-06
8.06126e-06
7.39543e-06
6.76525e-06
6.17177e-06
5.61564e-06
5.09512e-06
4.60461e-06
4.13667e-06
3.68804e-06
3.26583e-06
2.88778e-06
2.57362e-06
2.33208e-06
2.15311e-06
2.01185e-06
1.88123e-06
1.74392e-06
1.59669e-06
1.44687e-06
1.30489e-06
1.17792e-06
1.06731e-06
9.69776e-07
8.8044e-07
7.95552e-07
7.13776e-07
6.35926e-07
5.63824e-07
4.9907e-07
4.42333e-07
3.93301e-07
3.51066e-07
3.14588e-07
2.82986e-07
2.55609e-07
2.31975e-07
2.1168e-07
1.94358e-07
1.79659e-07
1.67268e-07
1.56899e-07
1.48305e-07
1.4118e-07
1.35339e-07
1.30587e-07
1.26747e-07
1.23668e-07
1.21223e-07
1.19302e-07
1.17815e-07
1.1668e-07
1.15851e-07
1.15243e-07
1.14873e-07
1.14585e-07
1.14553e-07
1.14384e-07
1.14609e-07
1.14433e-07
1.14929e-07
1.13324e-07
2.72135e-06
2.43706e-06
1.93442e-06
1.12499e-06
1.45563e-07
1.5824e-06
3.44558e-06
5.61864e-06
8.10162e-06
1.09163e-05
1.40217e-05
1.72256e-05
2.0229e-05
2.27682e-05
2.47312e-05
2.61455e-05
2.69615e-05
2.70719e-05
2.65028e-05
2.54904e-05
2.43697e-05
2.33453e-05
2.24106e-05
2.14746e-05
2.04988e-05
1.95127e-05
1.85574e-05
1.76472e-05
1.67726e-05
1.59189e-05
1.50758e-05
1.42394e-05
1.34099e-05
1.259e-05
1.17836e-05
1.09952e-05
1.02286e-05
9.48741e-06
8.77399e-06
8.09011e-06
7.43693e-06
6.81563e-06
6.22774e-06
5.67446e-06
5.15464e-06
4.66327e-06
4.19315e-06
3.74089e-06
3.31347e-06
2.92914e-06
2.60901e-06
2.36362e-06
2.18398e-06
2.04468e-06
1.91685e-06
1.78124e-06
1.63353e-06
1.48111e-06
1.33523e-06
1.20406e-06
1.08968e-06
9.89104e-07
8.97418e-07
8.10641e-07
7.27196e-07
6.47754e-07
5.74106e-07
5.0791e-07
4.49914e-07
3.99853e-07
3.56816e-07
3.19727e-07
2.87663e-07
2.59938e-07
2.36048e-07
2.1558e-07
1.98159e-07
1.83426e-07
1.71053e-07
1.60727e-07
1.52154e-07
1.45125e-07
1.39394e-07
1.34754e-07
1.31028e-07
1.28065e-07
1.25734e-07
1.23923e-07
1.22538e-07
1.21498e-07
1.20755e-07
1.20227e-07
1.19922e-07
1.19709e-07
1.19707e-07
1.19628e-07
1.19797e-07
1.1983e-07
1.20067e-07
1.18831e-07
1.93165e-06
1.62443e-06
1.13925e-06
4.71425e-07
7.58549e-07
2.04976e-06
3.64819e-06
5.47644e-06
7.47006e-06
9.57748e-06
1.17701e-05
1.40166e-05
1.62325e-05
1.82792e-05
1.99924e-05
2.12704e-05
2.20689e-05
2.24521e-05
2.25339e-05
2.24063e-05
2.21035e-05
2.1628e-05
2.09954e-05
2.02504e-05
1.94499e-05
1.86387e-05
1.78387e-05
1.70537e-05
1.6279e-05
1.5509e-05
1.47393e-05
1.39684e-05
1.31975e-05
1.24295e-05
1.16687e-05
1.09197e-05
1.01866e-05
9.47317e-06
8.78225e-06
8.11606e-06
7.47626e-06
6.86451e-06
6.2828e-06
5.73282e-06
5.21404e-06
4.72199e-06
4.24978e-06
3.79392e-06
3.36129e-06
2.97055e-06
2.64421e-06
2.39468e-06
2.21421e-06
2.07699e-06
1.95236e-06
1.81896e-06
1.67122e-06
1.51647e-06
1.36676e-06
1.23129e-06
1.11295e-06
1.00914e-06
9.14905e-07
8.26069e-07
7.40812e-07
6.59646e-07
5.84324e-07
5.16549e-07
4.57141e-07
4.05882e-07
3.61862e-07
3.23969e-07
2.91234e-07
2.62938e-07
2.38558e-07
2.17669e-07
1.99891e-07
1.84862e-07
1.72248e-07
1.61746e-07
1.53072e-07
1.45986e-07
1.40225e-07
1.35582e-07
1.31883e-07
1.28961e-07
1.26678e-07
1.24919e-07
1.23585e-07
1.22595e-07
1.21898e-07
1.21412e-07
1.21142e-07
1.20957e-07
1.20976e-07
1.20913e-07
1.21094e-07
1.21108e-07
1.21409e-07
1.20136e-07
1.4062e-06
1.12296e-06
7.427e-07
5.58973e-07
1.2026e-06
2.29931e-06
3.66116e-06
5.22744e-06
6.94182e-06
8.74247e-06
1.05695e-05
1.23726e-05
1.41066e-05
1.57204e-05
1.71473e-05
1.83385e-05
1.92739e-05
1.99516e-05
2.03579e-05
2.04936e-05
2.03867e-05
2.00826e-05
1.96311e-05
1.90777e-05
1.84613e-05
1.78106e-05
1.71436e-05
1.64684e-05
1.5787e-05
1.50981e-05
1.44004e-05
1.36938e-05
1.29805e-05
1.2264e-05
1.15488e-05
1.08393e-05
1.01401e-05
9.45501e-06
8.78726e-06
8.13947e-06
7.51376e-06
6.91221e-06
6.33724e-06
5.79102e-06
5.27357e-06
4.78101e-06
4.30677e-06
3.84735e-06
3.40949e-06
3.01224e-06
2.67944e-06
2.42547e-06
2.24396e-06
2.1089e-06
1.98781e-06
1.8571e-06
1.70978e-06
1.55297e-06
1.39949e-06
1.25963e-06
1.13715e-06
1.02986e-06
9.32876e-07
8.41813e-07
7.54625e-07
6.71665e-07
5.94635e-07
5.2528e-07
4.64488e-07
4.1209e-07
3.67177e-07
3.28601e-07
2.95348e-07
2.6666e-07
2.4199e-07
2.20903e-07
2.03011e-07
1.87942e-07
1.75353e-07
1.64926e-07
1.56367e-07
1.49398e-07
1.43773e-07
1.39301e-07
1.35765e-07
1.33002e-07
1.3087e-07
1.29254e-07
1.28051e-07
1.27182e-07
1.26591e-07
1.26201e-07
1.26012e-07
1.25913e-07
1.25973e-07
1.25999e-07
1.26143e-07
1.26342e-07
1.26435e-07
1.25454e-07
1.04886e-06
8.39864e-07
6.79839e-07
8.74813e-07
1.51736e-06
2.4574e-06
3.61943e-06
4.95914e-06
6.43296e-06
7.99283e-06
9.58776e-06
1.11676e-05
1.26866e-05
1.41054e-05
1.53927e-05
1.6514e-05
1.74282e-05
1.81087e-05
1.85543e-05
1.87809e-05
1.88102e-05
1.86679e-05
1.83852e-05
1.79959e-05
1.75309e-05
1.70148e-05
1.6465e-05
1.58915e-05
1.52986e-05
1.46878e-05
1.40597e-05
1.34161e-05
1.27596e-05
1.20942e-05
1.14244e-05
1.07547e-05
1.00897e-05
9.43347e-06
8.78951e-06
8.16079e-06
7.54983e-06
6.9591e-06
6.39142e-06
5.84938e-06
5.33355e-06
4.84062e-06