/*--------------------------------*- C++ -*----------------------------------*\
  =========                 |
  \\      /  F ield         | OpenFOAM: The Open Source CFD Toolbox
   \\    /   O peration     | Website:  https://openfoam.org
    \\  /    A nd           | Version:  10
     \\/     M anipulation  |
\*---------------------------------------------------------------------------*/
FoamFile
{
    format      ascii;
    class       volScalarField;
    location    "0.04";
    object      p;
}
// * * * * * * * * * * * * * * * * * * * * * * * * * * * * * * * * * * * * * //

dimensions      [0 2 -2 0 0 0 0];

internalField   nonuniform List<scalar> 
6820
(
8.02668
-6.30339
-8.29949
-8.47674
-8.62716
-8.5606
-8.52016
-8.52914
-8.56091
-8.60554
-8.65651
-8.71001
-8.76436
-8.81868
-8.8725
-8.92549
-8.97741
-9.02806
-9.07728
-9.12497
-9.17102
-9.21539
-9.25807
-9.29909
-9.33855
-9.37656
-9.41343
-9.44915
-9.48506
-9.51888
-9.55946
-9.58365
-9.66236
2.64888
-6.1008
-8.10474
-8.35545
-8.55782
-8.55483
-8.53568
-8.55106
-8.583
-8.62485
-8.67263
-8.72332
-8.77536
-8.82791
-8.88041
-8.93244
-8.98367
-9.03384
-9.08275
-9.13021
-9.17613
-9.22041
-9.26303
-9.30402
-9.34343
-9.38137
-9.41811
-9.45374
-9.48919
-9.52345
-9.56244
-9.59317
-9.6633
0.568794
-4.8888
-7.31163
-7.90053
-8.27788
-8.41775
-8.46068
-8.50314
-8.55095
-8.60269
-8.65745
-8.71343
-8.76946
-8.8249
-8.87942
-8.93283
-8.98498
-9.03574
-9.085
-9.13265
-9.17864
-9.2229
-9.26543
-9.30624
-9.34539
-9.38294
-9.41908
-9.4538
-9.48768
-9.51935
-9.55133
-9.5709
-9.58815
-0.998526
-4.70553
-7.0146
-7.66191
-8.04069
-8.24388
-8.33712
-8.41168
-8.48259
-8.54952
-8.6141
-8.67692
-8.73813
-8.79785
-8.85599
-8.91251
-8.96735
-9.02048
-9.07182
-9.12132
-9.16894
-9.21464
-9.25841
-9.30024
-9.34015
-9.37815
-9.41425
-9.44829
-9.48023
-9.50863
-9.53297
-9.54483
-9.53985
-2.28325
-4.7492
-6.70668
-7.38738
-7.79465
-8.06388
-8.21126
-8.31667
-8.40743
-8.48788
-8.56208
-8.63239
-8.69937
-8.76351
-8.82531
-8.88493
-8.94244
-8.99785
-9.05119
-9.10243
-9.15158
-9.19862
-9.24353
-9.28628
-9.32684
-9.36509
-9.40089
-9.43382
-9.46331
-9.48763
-9.50477
-9.50821
-9.4907
-3.24026
-4.8715
-6.5218
-7.2336
-7.65047
-7.94201
-8.11559
-8.23766
-8.34067
-8.43086
-8.51245
-8.5885
-8.66034
-8.72863
-8.79384
-8.85632
-8.91628
-8.97385
-9.02912
-9.08213
-9.13289
-9.18139
-9.2276
-9.27147
-9.31288
-9.35164
-9.38744
-9.41966
-9.44744
-9.46897
-9.48192
-9.48156
-9.46308
-3.98507
-5.08273
-6.43324
-7.11546
-7.51883
-7.81916
-8.01697
-8.15862
-8.27589
-8.37689
-8.46645
-8.54849
-8.62501
-8.69702
-8.76531
-8.83042
-8.89269
-8.95231
-9.00941
-9.06405
-9.11628
-9.1661
-9.21348
-9.25833
-9.30053
-9.33981
-9.37577
-9.40774
-9.43472
-9.45504
-9.46647
-9.4655
-9.44812
-4.56824
-5.31168
-6.39441
-7.03011
-7.42228
-7.72505
-7.93776
-8.0922
-8.21866
-8.32712
-8.42269
-8.5096
-8.59018
-8.66571
-8.73707
-8.80487
-8.8695
-8.93121
-8.99018
-9.04652
-9.1003
-9.15154
-9.20021
-9.24623
-9.28943
-9.32954
-9.36614
-9.39853
-9.42575
-9.44634
-9.45838
-9.45932
-9.44613
-5.03072
-5.54248
-6.40323
-6.97957
-7.35154
-7.64539
-7.86367
-8.02697
-8.16134
-8.27696
-8.37872
-8.47074
-8.5556
-8.63476
-8.70922
-8.7797
-8.84669
-8.9105
-8.97136
-9.02943
-9.0848
-9.13751
-9.18755
-9.23484
-9.27921
-9.32042
-9.35804
-9.39146
-9.41983
-9.44197
-9.45639
-9.46135
-9.45475
-5.40233
-5.76105
-6.44045
-6.95101
-7.29916
-7.58109
-7.8009
-7.97042
-8.11068
-8.23168
-8.33825
-8.43438
-8.52279
-8.60507
-8.6823
-8.75526
-8.82448
-8.89032
-8.95306
-9.01287
-9.06986
-9.12411
-9.17561
-9.22431
-9.27009
-9.3127
-9.3518
-9.38689
-9.41728
-9.44212
-9.46034
-9.47091
-9.47257
-5.70433
-5.96104
-6.49648
-6.94222
-7.26437
-7.53113
-7.74729
-7.91904
-8.06276
-8.18767
-8.29826
-8.39816
-8.49
-8.57538
-8.65541
-8.73089
-8.80239
-8.87033
-8.93499
-8.9966
-9.0553
-9.11117
-9.16426
-9.21455
-9.26193
-9.30625
-9.34724
-9.38453
-9.41765
-9.44604
-9.46908
-9.48628
-9.49714
-5.95222
-6.14013
-6.56278
-6.94744
-7.24215
-7.49215
-7.70184
-7.87363
-8.01947
-8.14731
-8.26116
-8.36426
-8.45907
-8.54719
-8.62975
-8.70755
-8.7812
-8.85114
-8.91767
-8.98106
-9.04146
-9.09901
-9.15377
-9.20575
-9.25493
-9.3012
-9.34441
-9.38434
-9.42072
-9.45329
-9.4818
-9.50618
-9.52654
-6.15731
-6.29803
-6.63323
-6.96289
-7.23036
-7.46312
-7.66431
-7.83388
-7.98011
-8.10953
-8.22568
-8.33134
-8.42873
-8.51937
-8.60432
-8.68439
-8.76018
-8.83213
-8.90057
-8.96579
-9.02797
-9.08728
-9.14382
-9.19765
-9.2488
-9.29725
-9.34297
-9.38588
-9.42591
-9.46303
-9.49731
-9.529
-9.55866
-6.3279
-6.43569
-6.7035
-6.985
-7.22618
-7.44174
-7.63321
-7.79902
-7.94449
-8.07468
-8.19252
-8.30031
-8.39998
-8.49291
-8.58009
-8.6623
-8.74012
-8.81401
-8.88432
-8.95134
-9.0153
-9.07638
-9.13474
-9.19049
-9.24371
-9.29448
-9.34286
-9.38892
-9.43276
-9.47455
-9.5146
-9.55337
-9.59172
-6.47013
-6.55451
-6.77053
-7.01084
-7.22746
-7.42648
-7.60776
-7.76876
-7.91248
-8.0426
-8.16144
-8.27082
-8.37236
-8.46729
-8.55651
-8.64073
-8.72051
-8.7963
-8.86846
-8.9373
-9.00306
-9.06596
-9.1262
-9.18393
-9.23932
-9.29251
-9.34365
-9.39294
-9.44062
-9.48701
-9.53259
-9.57796
-9.62413
-6.5886
-6.65602
-6.83229
-7.03797
-7.23222
-7.41567
-7.58676
-7.74229
-7.88357
-8.01304
-8.13238
-8.243
-8.34617
-8.44291
-8.53403
-8.62016
-8.70183
-8.77947
-8.85344
-8.92405
-8.99159
-9.0563
-9.1184
-9.17812
-9.23566
-9.29124
-9.34511
-9.39754
-9.44889
-9.49959
-9.55023
-9.60147
-9.6544
-6.68675
-6.74168
-6.88742
-7.06441
-7.23875
-7.4079
-7.56918
-7.71902
-7.85744
-7.98584
-8.1053
-8.21681
-8.32133
-8.41968
-8.51253
-8.60045
-8.68392
-8.76334
-8.83907
-8.91144
-8.98074
-9.04723
-9.11119
-9.17287
-9.23253
-9.29045
-9.34695
-9.40237
-9.45714
-9.51175
-9.56686
-9.62314
-9.68166
-6.76714
-6.81277
-6.93504
-7.08855
-7.24554
-7.40183
-7.55399
-7.69819
-7.83356
-7.96063
-8.07996
-8.19214
-8.29782
-8.39762
-8.4921
-8.58172
-8.6669
-8.74804
-8.82547
-8.89953
-8.97052
-9.03873
-9.10445
-9.16799
-9.22964
-9.28973
-9.34863
-9.40673
-9.4645
-9.52247
-9.58131
-9.64168
-9.70459
-6.83169
-6.87033
-6.97458
-7.10911
-7.25127
-7.39627
-7.5402
-7.6791
-7.81148
-7.93717
-8.05625
-8.16897
-8.2757
-8.37687
-8.47288
-8.56413
-8.65098
-8.73378
-8.81287
-8.88857
-8.96119
-9.03105
-9.09846
-9.16375
-9.22725
-9.28933
-9.35037
-9.41082
-9.47115
-9.5319
-9.59371
-9.65721
-9.72332
-6.88181
-6.91516
-7.00562
-7.125
-7.25478
-7.39012
-7.52686
-7.66101
-7.79063
-7.91501
-8.03384
-8.14704
-8.25475
-8.3572
-8.45467
-8.54746
-8.63589
-8.72026
-8.8009
-8.87812
-8.95225
-9.02361
-9.09253
-9.15936
-9.22447
-9.28822
-9.35104
-9.41337
-9.47569
-9.53853
-9.60248
-9.66813
-9.73628
-6.91846
-6.94783
-7.02782
-7.13534
-7.25506
-7.3824
-7.51312
-7.64326
-7.77056
-7.89393
-8.01268
-8.12647
-8.23523
-8.33901
-8.43798
-8.53233
-8.62234
-8.70828
-8.79044
-8.86915
-8.94471
-9.01748
-9.08778
-9.15599
-9.22248
-9.28764
-9.35188
-9.41566
-9.47944
-9.54371
-9.60903
-9.67589
-9.745
-6.94225
-6.96867
-7.04085
-7.13932
-7.25116
-7.37214
-7.4981
-7.62508
-7.75063
-7.87331
-7.99219
-8.1067
-8.21654
-8.32165
-8.42205
-8.5179
-8.60938
-8.69676
-8.7803
-8.86031
-8.93711
-9.01105
-9.08248
-9.15176
-9.21928
-9.28543
-9.35064
-9.41532
-9.47992
-9.54491
-9.61078
-9.67797
-9.74707
-6.95348
-6.97778
-7.04434
-7.1362
-7.24223
-7.35857
-7.48114
-7.60602
-7.73062
-7.85325
-7.97276
-8.08836
-8.1996
-8.30627
-8.40831
-8.50579
-8.59886
-8.68773
-8.77266
-8.85396
-8.93194
-9.00695
-9.07934
-9.1495
-9.21779
-9.28462
-9.35039
-9.41551
-9.4804
-9.54547
-9.61116
-9.67785
-9.74602
-6.95212
-6.97501
-7.0378
-7.12522
-7.22737
-7.34072
-7.46125
-7.58508
-7.70948
-7.83261
-7.95309
-8.07001
-8.18277
-8.29104
-8.39469
-8.49372
-8.58824
-8.67844
-8.76457
-8.84693
-8.92582
-9.00161
-9.07464
-9.14529
-9.21394
-9.28099
-9.34681
-9.4118
-9.47635
-9.54083
-9.60564
-9.6711
-9.73761
-6.93787
-6.95996
-7.02064
-7.10566
-7.20592
-7.3181
-7.43826
-7.56247
-7.68793
-7.81259
-7.93496
-8.05393
-8.16882
-8.27919
-8.38483
-8.48571
-8.58189
-8.67357
-8.76097
-8.84438
-8.92414
-9.00058
-9.07408
-9.145
-9.21373
-9.28065
-9.34613
-9.41053
-9.47423
-9.53756
-9.60086
-9.66437
-9.72845
-6.91007
-6.93192
-6.992
-7.07649
-7.17665
-7.28928
-7.41043
-7.53612
-7.66345
-7.79025
-7.9149
-8.0362
-8.15336
-8.26588
-8.3735
-8.47615
-8.57387
-8.66685
-8.7553
-8.83952
-8.91985
-8.99662
-9.07022
-9.14102
-9.20939
-9.27571
-9.34033
-9.40362
-9.46591
-9.5275
-9.58871
-9.64977
-9.71098
-6.86774
-6.88994
-6.95104
-7.03713
-7.13947
-7.25488
-7.3793
-7.50859
-7.63969
-7.7703
-7.89865
-8.02344
-8.14382
-8.25924
-8.3694
-8.47423
-8.57377
-8.66821
-8.75778
-8.8428
-8.92361
-9.00057
-9.07406
-9.14447
-9.21217
-9.27754
-9.34092
-9.40265
-9.46305
-9.5224
-9.58096
-9.63894
-9.69654
-6.8094
-6.83248
-6.89602
-6.98543
-7.09158
-7.21116
-7.34
-7.47381
-7.60938
-7.74433
-7.87679
-8.00539
-8.12922
-8.24768
-8.36048
-8.46751
-8.56884
-8.66464
-8.75518
-8.84078
-8.92181
-8.99865
-9.0717
-9.14133
-9.20794
-9.27191
-9.33358
-9.39328
-9.45132
-9.50798
-9.56351
-9.61812
-9.67201
-6.73319
-6.75804
-6.82636
-6.92228
-7.03582
-7.16334
-7.30025
-7.4419
-7.58483
-7.72652
-7.86501
-7.99891
-8.1273
-8.24961
-8.36558
-8.47514
-8.57842
-8.67563
-8.76708
-8.85313
-8.93419
-9.01065
-9.08294
-9.15146
-9.21662
-9.27879
-9.33832
-9.39554
-9.45075
-9.5042
-9.55614
-9.60672
-9.65611
-6.6362
-6.66314
-6.73742
-6.84101
-6.96269
-7.09869
-7.24421
-7.39427
-7.54522
-7.69437
-7.83967
-7.97962
-8.11326
-8.24003
-8.35967
-8.47216
-8.57764
-8.67639
-8.76877
-8.85519
-8.9361
-9.01195
-9.0832
-9.15028
-9.21361
-9.2736
-9.3306
-9.38497
-9.437
-9.48697
-9.53513
-9.5817
-9.62683
-6.51554
-6.54698
-6.63259
-6.75079
-6.88791
-7.0393
-7.1994
-7.36263
-7.52517
-7.68435
-7.83816
-7.98524
-8.12474
-8.25622
-8.37955
-8.4948
-8.60224
-8.70221
-8.79516
-8.88155
-8.9619
-9.03669
-9.10642
-9.17156
-9.23256
-9.28983
-9.34376
-9.3947
-9.44295
-9.4888
-9.53247
-9.57415
-9.61398
-6.36459
-6.39895
-6.49464
-6.62552
-6.77612
-6.94211
-7.11731
-7.29526
-7.47161
-7.64336
-7.80829
-7.96491
-8.11238
-8.25034
-8.37875
-8.49782
-8.60793
-8.70958
-8.80333
-8.88976
-8.96947
-9.04304
-9.11104
-9.17399
-9.23239
-9.28669
-9.3373
-9.38461
-9.42896
-9.47065
-9.50996
-9.54715
-9.5824
-6.18124
-6.2285
-6.35131
-6.51253
-6.69108
-6.88207
-7.07895
-7.27516
-7.46675
-7.65118
-7.82656
-7.99169
-8.14599
-8.28929
-8.42173
-8.54366
-8.65558
-8.7581
-8.85188
-8.9376
-9.01592
-9.08751
-9.15298
-9.21291
-9.26785
-9.31829
-9.36467
-9.40739
-9.44682
-9.48328
-9.51704
-9.54834
-9.57737
-5.94378
-5.99015
-6.12672
-6.30835
-6.51174
-6.73143
-6.9575
-7.18094
-7.39691
-7.60244
-7.79545
-7.97486
-8.14041
-8.2923
-8.43101
-8.55726
-8.67189
-8.77578
-8.86982
-8.95489
-9.03181
-9.10137
-9.16429
-9.22123
-9.27277
-9.31946
-9.36178
-9.40017
-9.43502
-9.46671
-9.49558
-9.52198
-9.54618
-5.67037
-5.76452
-5.96909
-6.20411
-6.4451
-6.69473
-6.94509
-7.18821
-7.42075
-7.64043
-7.84544
-8.03488
-8.20858
-8.3668
-8.51012
-8.63939
-8.75555
-8.85965
-8.95272
-9.0358
-9.10986
-9.17582
-9.23449
-9.28665
-9.33296
-9.37402
-9.41037
-9.44247
-9.47073
-9.49555
-9.51729
-9.5363
-9.55296
-5.25083
-5.319
-5.55427
-5.84651
-6.15492
-6.47251
-6.78263
-7.07542
-7.34818
-7.59926
-7.82796
-8.03482
-8.22098
-8.38777
-8.53669
-8.66927
-8.78701
-8.89134
-8.98362
-9.06508
-9.13688
-9.20005
-9.25551
-9.30408
-9.34647
-9.38332
-9.41514
-9.44242
-9.46557
-9.48501
-9.50114
-9.5145
-9.52563
-4.88988
-5.14262
-5.49916
-5.81837
-6.13865
-6.47453
-6.80262
-7.11412
-7.40726
-7.6785
-7.92551
-8.14799
-8.34655
-8.52235
-8.67701
-8.81234
-8.93025
-9.03258
-9.12108
-9.19738
-9.26293
-9.31904
-9.36686
-9.40738
-9.44143
-9.46972
-9.49281
-9.51116
-9.5251
-9.53495
-9.54085
-9.54346
-9.54285
-3.83879
-4.1049
-4.71564
-5.26167
-5.76325
-6.23925
-6.66521
-7.04356
-7.38179
-7.68266
-7.94916
-8.18469
-8.39217
-8.57421
-8.73326
-8.87155
-8.99118
-9.09413
-9.18224
-9.25721
-9.3206
-9.37379
-9.41801
-9.45435
-9.48371
-9.50683
-9.52426
-9.53641
-9.5434
-9.54537
-9.54168
-9.53344
-9.51686
-3.89134
-4.45146
-4.89355
-5.2585
-5.73509
-6.23073
-6.69524
-7.13132
-7.53041
-7.88421
-8.19253
-8.45801
-8.68391
-8.87417
-9.03306
-9.16469
-9.2729
-9.36115
-9.43248
-9.48953
-9.53456
-9.56951
-9.59598
-9.61533
-9.62867
-9.63686
-9.64054
-9.64002
-9.6352
-9.62539
-9.6083
-9.58187
-9.53469
1.04715
-2.64462
-3.97005
-4.64001
-5.43852
-6.11518
-6.6584
-7.13418
-7.54994
-7.907
-8.21304
-8.47407
-8.69494
-8.88052
-9.03537
-9.16364
-9.26911
-9.3551
-9.42455
-9.48001
-9.52369
-9.55745
-9.58289
-9.60136
-9.614
-9.62173
-9.62541
-9.62553
-9.623
-9.61733
-9.61082
-9.59927
-9.5919
-9.53368
-9.78924
-9.61856
-8.88774
-7.61547
-6.18703
-5.14255
-4.95642
-5.8119
-7.88618
-11.1263
-15.2862
-19.9991
-24.8649
-29.5034
-33.5624
-36.7094
-38.6862
-39.3966
-38.9327
-37.5224
-35.3502
-32.5235
-29.1795
-25.5605
-21.9391
-18.507
-15.3437
-12.4642
-9.87318
-7.57847
-5.58457
-3.88525
-2.46327
-1.29386
-0.348345
0.403099
0.989431
1.43749
1.77133
2.01196
2.17742
2.28292
2.34115
2.36259
2.3558
2.32784
2.28449
2.23045
2.16948
2.10443
2.03737
1.96973
1.90246
1.83621
1.77147
1.70859
1.64784
1.58937
1.53325
1.47945
1.42792
1.37852
1.33114
1.28563
1.24186
1.19965
1.15888
1.11938
1.081
1.04362
1.00708
0.971276
0.936081
0.901389
0.867107
0.833136
0.799399
0.765824
0.73234
0.698886
0.665405
0.631848
0.59817
0.56433
0.530292
0.496022
0.461494
0.426676
0.391556
0.356086
0.320302
0.284065
0.247615
0.21039
0.173522
0.134581
0.0986094
0.0551005
0.0259255
-9.61244
-9.67421
-9.42048
-8.68952
-7.50812
-6.22018
-5.2384
-4.99122
-5.88736
-7.97278
-11.0665
-14.9433
-19.3051
-23.8067
-28.1011
-31.8683
-34.8112
-36.7164
-37.5166
-37.2671
-36.0671
-34.0121
-31.2312
-27.9491
-24.47
-21.0585
-17.8557
-14.899
-12.1921
-9.74112
-7.55722
-5.64742
-4.00843
-2.62664
-1.48116
-0.547057
0.202217
0.79289
1.24963
1.59484
1.84831
2.02719
2.14612
2.21739
2.25122
2.25604
2.23883
2.20533
2.16027
2.10743
2.04972
1.98927
1.92755
1.86558
1.80405
1.74349
1.6843
1.6268
1.57118
1.51756
1.46595
1.41631
1.36857
1.32262
1.27836
1.23565
1.19437
1.15439
1.11557
1.07778
1.0409
1.00479
0.969349
0.934465
0.900037
0.865977
0.832198
0.798623
0.765182
0.73181
0.698449
0.665046
0.631553
0.597927
0.56413
0.530126
0.495884
0.461378
0.426577
0.39147
0.356008
0.320233
0.283998
0.247555
0.210323
0.173472
0.134506
0.0985808
0.0550124
0.0259417
-9.52926
-9.56037
-9.304
-8.59568
-7.49415
-6.31126
-5.46504
-5.38042
-6.28097
-8.2536
-11.2037
-14.8546
-18.891
-23.0187
-26.9505
-30.4124
-33.1593
-35.0159
-35.8791
-35.7175
-34.5532
-32.4933
-29.7405
-26.5869
-23.3343
-20.1872
-17.2269
-14.471
-11.9272
-9.60906
-7.53164
-5.70393
-4.12478
-2.78363
-1.66311
-0.741685
0.00410228
0.59789
1.06226
1.41797
1.6836
1.87543
2.00745
2.09154
2.13765
2.15406
2.14762
2.12405
2.08806
2.04347
1.99323
1.93951
1.88386
1.82731
1.77063
1.71438
1.659
1.60486
1.55219
1.50116
1.45181
1.40416
1.35814
1.31369
1.27072
1.22914
1.18884
1.1497
1.1116
1.07444
1.03809
1.00244
0.967389
0.932839
0.898697
0.864879
0.831304
0.7979
0.764601
0.73135
0.698089
0.664769
0.631344
0.597774
0.564022
0.530056
0.495843
0.46136
0.426577
0.391484
0.356032
0.320264
0.284032
0.247596
0.210356
0.17352
0.134531
0.0986481
0.0550227
0.0260401
-9.49165
-9.44575
-9.15709
-8.51806
-7.59907
-6.64748
-5.99658
-5.9946
-6.89948
-8.78574
-11.5367
-14.9258
-18.6703
-22.4793
-26.088
-29.2675
-31.824
-33.568
-34.328
-34.0481
-32.7927
-30.7245
-28.0945
-25.1863
-22.2307
-19.3593
-16.6268
-14.056
-11.6656
-9.47491
-7.50099
-5.75373
-4.23392
-2.93382
-1.83924
-0.931761
-0.190784
0.404873
0.875769
1.24108
1.51817
1.7224
1.86713
1.96378
2.02203
2.04994
2.05427
2.04068
2.01385
1.97761
1.93496
1.88811
1.83865
1.78767
1.73597
1.68414
1.6327
1.58202
1.53241
1.48405
1.43706
1.39145
1.34723
1.30433
1.26272
1.2223
1.18301
1.14474
1.10739
1.07087
1.03508
0.999902
0.965258
0.931053
0.897204
0.863635
0.83027
0.797044
0.763897
0.730771
0.697615
0.664382
0.631029
0.597519
0.563815
0.529888
0.495706
0.461249
0.426484
0.391407
0.355965
0.320207
0.283978
0.247549
0.210305
0.173483
0.134474
0.0986294
0.0549566
0.0260552
-9.43597
-9.34846
-9.09034
-8.58041
-7.87476
-7.16483
-6.71767
-6.8179
-7.68537
-9.40997
-11.923
-15.0299
-18.4694
-21.9712
-25.2821
-28.184
-30.4637
-31.9328
-32.4632
-32.0377
-30.7556
-28.81
-26.4341
-23.8405
-21.187
-18.5712
-16.048
-13.6512
-11.4073
-9.3395
-7.46576
-5.79705
-4.33592
-3.07715
-2.00937
-1.11701
-0.382107
0.214197
0.690529
1.06451
1.3523
1.56836
1.72537
1.83431
1.90451
1.94383
1.95891
1.95532
1.93771
1.90991
1.87495
1.83509
1.79195
1.74666
1.70006
1.65278
1.60538
1.55827
1.51181
1.46623
1.42167
1.37819
1.33582
1.29455
1.25434
1.21515
1.17691
1.13956
1.103
1.06716
1.03195
0.997276
0.963061
0.929224
0.895689
0.862385
0.829246
0.796211
0.763223
0.73023
0.697186
0.664046
0.63077
0.597323
0.56367
0.529785
0.495637
0.461206
0.426463
0.391401
0.355971
0.320222
0.283997
0.247576
0.210327
0.173518
0.134491
0.0986804
0.0549631
0.02613
-9.41316
-9.3168
-9.0996
-8.71659
-8.22067
-7.75562
-7.51904
-7.72321
-8.54151
-10.0616
-12.2574
-14.9922
-18.0515
-21.1869
-24.1517
-26.7067
-28.6477
-29.851
-30.2271
-29.7857
-28.6381
-26.9459
-24.8785
-22.5906
-20.2075
-17.8199
-15.4889
-13.2559
-11.1523
-9.2026
-7.42584
-5.83381
-4.43068
-3.21344
-2.17323
-1.29709
-0.569487
0.0262542
0.506919
0.888624
1.18634
1.4136
1.58244
1.70333
1.78526
1.83587
1.86164
1.86804
1.8597
1.84042
1.81325
1.78048
1.74377
1.70429
1.66291
1.6203
1.57705
1.53363
1.49042
1.44769
1.40564
1.36437
1.32393
1.28433
1.24558
1.20766
1.17052
1.13411
1.09838
1.06324
1.02863
0.994481
0.960712
0.927254
0.894043
0.861014
0.828108
0.795269
0.762447
0.729594
0.696667
0.663624
0.630428
0.597047
0.56345
0.529608
0.495496
0.461094
0.426372
0.391329
0.355911
0.320173
0.283952
0.247539
0.210287
0.173491
0.134449
0.0986679
0.0549142
0.0261425
-9.40373
-9.31374
-9.14118
-8.86595
-8.53238
-8.25111
-8.17436
-8.46373
-9.25077
-10.602
-12.4997
-14.844
-17.4693
-20.1694
-22.7243
-24.9191
-26.5989
-27.6369
-27.984
-27.6476
-26.7011
-25.2616
-23.4621
-21.4314
-19.2814
-17.0992
-14.9474
-12.8703
-10.9007
-9.06455
-7.38146
-5.86416
-4.51824
-3.34259
-2.33064
-1.47173
-0.752604
-0.158603
0.325299
0.713765
1.02059
1.25843
1.4386
1.57107
1.66448
1.72622
1.7626
1.77897
1.77991
1.7692
1.7499
1.72432
1.69415
1.66059
1.62454
1.58672
1.54773
1.50808
1.46822
1.42844
1.38899
1.34999
1.31154
1.27368
1.23645
1.19984
1.16385
1.12843
1.09355
1.05915
1.02518
0.991576
0.958275
0.925219
0.89235
0.859613
0.826955
0.794326
0.761681
0.728976
0.696172
0.663231
0.630121
0.596811
0.563271
0.529476
0.495402
0.46103
0.426332
0.391307
0.355903
0.320176
0.283961
0.247556
0.210301
0.173517
0.134461
0.0987067
0.0549195
0.0261987
-9.41162
-9.33943
-9.21152
-9.02281
-8.81255
-8.66807
-8.70708
-9.053
-9.80582
-11.0151
-12.6648
-14.6742
-16.9108
-19.2087
-21.3915
-23.2966
-24.7708
-25.6983
-26.0343
-25.7775
-24.9814
-23.7384
-22.1566
-20.3449
-18.4021
-16.4087
-14.4248
-12.4948
-10.6529
-8.92546
-7.33276
-5.88822
-4.59862
-3.46456
-2.48142
-1.64069
-0.931143
-0.340027
0.146028
0.540285
0.855408
1.10314
1.2941
1.43776
1.54237
1.61505
1.66191
1.68822
1.69844
1.69634
1.68497
1.66666
1.64312
1.61559
1.58499
1.55205
1.51742
1.48166
1.44523
1.40849
1.3717
1.33505
1.29866
1.2626
1.22694
1.1917
1.15688
1.12249
1.0885
1.05486
1.02155
0.988514
0.955698
0.923057
0.890542
0.858106
0.825704
0.793291
0.760828
0.728277
0.695602
0.662769
0.629748
0.596512
0.563032
0.529287
0.495253
0.460913
0.42624
0.391235
0.355846
0.320131
0.283922
0.247526
0.21027
0.173496
0.134428
0.0986976
0.0548835
0.0262073
-9.43248
-9.38243
-9.29742
-9.18192
-9.07059
-9.03181
-9.15609
-9.53764
-10.2526
-11.3385
-12.7817
-14.5169
-16.4368
-18.4062
-20.2824
-21.9218
-23.1954
-24.0058
-24.3101
-24.1043
-23.4251
-22.3427
-20.9454
-19.3256
-17.5693
-15.7488
-13.9211
-12.1298
-10.409
-8.78563
-7.28001
-5.90619
-4.67195
-3.57933
-2.62548
-1.80375
-1.10483
-0.517699
-0.030556
0.368527
0.691105
0.948029
1.14924
1.30365
1.41914
1.50253
1.55976
1.59591
1.6154
1.62193
1.61854
1.60757
1.59075
1.56934
1.54427
1.51632
1.48615
1.45437
1.42146
1.38784
1.3538
1.31957
1.2853
1.2511
1.21706
1.18322
1.14964
1.11631
1.08324
1.0504
1.01778
0.985329
0.953022
0.920816
0.888674
0.856555
0.824422
0.792239
0.759969
0.727581
0.695041
0.662322
0.629396
0.596237
0.562822
0.529129
0.495137
0.460831
0.426186
0.391202
0.355828
0.320126
0.283925
0.247536
0.21028
0.173516
0.134439
0.0987282
0.0548897
0.0262492
-9.46413
-9.43821
-9.39345
-9.33918
-9.30561
-9.34661
-9.53192
-9.9333
-10.6082
-11.5845
-12.8501
-14.3524
-16.0036
-17.693
-19.2988
-20.7014
-21.7967
-22.5017
-22.7724
-22.6001
-22.011
-21.0608
-19.8216
-18.3707
-16.7818
-15.1194
-13.4366
-11.7755
-10.1695
-8.6454
-7.22353
-5.91832
-4.73836
-3.68694
-2.76272
-1.96076
-1.27342
-0.691322
-0.204126
0.198823
0.528011
0.793417
1.00429
1.169
1.29502
1.38888
1.45629
1.50221
1.53091
1.54607
1.55069
1.54711
1.53709
1.52188
1.50244
1.47957
1.45396
1.42624
1.39694
1.36652
1.3353
1.30355
1.27146
1.23917
1.2068
1.17443
1.14211
1.10988
1.07776
1.04575
1.01383
0.981995
0.950213
0.918458
0.8867
0.854909
0.823054
0.791107
0.759036
0.726816
0.694417
0.661816
0.628988
0.595911
0.562562
0.528924
0.494976
0.460706
0.426089
0.391127
0.35577
0.320081
0.283889
0.247509
0.210253
0.173498
0.134414
0.0987199
0.0548628
0.0262526
-9.50307
-9.50089
-9.49204
-9.488
-9.51491
-9.61536
-9.84291
-10.2519
-10.8851
-11.7626
-12.8734
-14.1743
-15.5938
-17.0405
-18.4135
-19.6135
-20.5519
-21.157
-21.3885
-21.2368
-20.7206
-19.8823
-18.7798
-17.4773
-16.0383
-14.5201
-12.9715
-11.4322
-9.93473
-8.50516
-7.16368
-5.9249
-4.79807
-3.78747
-2.89313
-2.11157
-1.4367
-0.860628
-0.374381
0.0314912
0.366446
0.639607
0.859533
1.03406
1.17024
1.2743
1.35171
1.40726
1.44512
1.46889
1.48153
1.48539
1.48221
1.47328
1.45955
1.44184
1.42088
1.3973
1.3717
1.34454
1.31622
1.28702
1.25716
1.22684
1.19619
1.16531
1.1343
1.10321
1.07207
1.04091
1.00974
0.978536
0.947301
0.916014
0.884658
0.85321
0.821648
0.789948
0.758088
0.726045
0.693795
0.661318
0.628593
0.595602
0.562324
0.528744
0.494843
0.46061
0.426023
0.391086
0.355747
0.320072
0.283888
0.247518
0.210263
0.173516
0.134426
0.098746
0.0548723
0.0262844
-9.54659
-9.56661
-9.58901
-9.62567
-9.69887
-9.84227
-10.0969
-10.5036
-11.0941
-11.882
-12.8572
-13.9838
-15.2033
-16.4404
-17.6117
-18.6339
-19.4322
-19.9465
-20.1403
-20.0023
-19.5445
-18.7996
-17.8143
-16.6421
-15.3374
-13.9506
-12.5258
-11.1003
-9.7051
-8.36536
-7.10088
-5.9263
-4.85131
-3.88107
-3.01672
-2.2561
-1.5945
-1.02538
-0.54104
-0.133165
0.206718
0.486904
0.71527
0.899117
1.04506
1.15902
1.24621
1.31125
1.35818
1.39051
1.41118
1.4225
1.42621
1.42361
1.41566
1.4032
1.38695
1.3676
1.34576
1.32194
1.29657
1.26998
1.24242
1.21411
1.18523
1.15589
1.12622
1.0963
1.06618
1.0359
1.00548
0.974935
0.944263
0.913461
0.882518
0.851423
0.820162
0.788717
0.757073
0.725211
0.693114
0.660766
0.628148
0.595245
0.56204
0.52852
0.494667
0.460474
0.425918
0.391006
0.355686
0.320026
0.283852
0.247491
0.210239
0.173499
0.134405
0.0987359
0.054851
0.026281
-9.592
-9.63193
-9.68067
-9.74953
-9.85723
-10.0304
-10.3003
-10.6974
-11.2448
-11.9512
-12.8071
-13.7825
-14.8292
-15.8853
-16.8816
-17.749
-18.4243
-18.8565
-19.0128
-18.8814
-18.47
-17.8037
-16.9198
-15.8624
-14.6779
-13.4104
-12.0996
-10.7802
-9.48108
-8.22648
-7.03558
-5.92288
-4.8984
-3.96792
-3.13357
-2.39432
-1.74669
-1.18538
-0.703853
-0.294862
0.0491248
0.335604
0.571787
0.764432
0.91973
1.04326
1.14
1.21435
1.27025
1.31109
1.33976
1.35854
1.36918
1.37296
1.37086
1.3637
1.35224
1.33718
1.31917
1.29876
1.2764
1.25247
1.22726
1.20101
1.17393
1.14618
1.11789
1.08917
1.06009
1.03072
1.00108
0.971215
0.941127
0.910825
0.880313
0.849586
0.818638
0.78746
0.756042
0.724371
0.692435
0.660221
0.627716
0.594905
0.561778
0.528321
0.49452
0.460368
0.425846
0.39096
0.35566
0.320016
0.283853
0.247501
0.210252
0.173519
0.134422
0.0987614
0.0548664
0.0263066
-9.63706
-9.6942
-9.7645
-9.85813
-9.99065
-10.183
-10.4589
-10.8409
-11.3453
-11.9775
-12.728
-13.5718
-14.4689
-15.3683
-16.2132
-16.9456
-17.5124
-17.8705
-17.9911
-17.8624
-17.4885
-16.8883
-16.0918
-15.1354
-14.0583
-12.899
-11.6931
-10.4721
-9.26313
-8.08904
-6.96828
-5.91511
-4.93966
-4.04826
-3.24379
-2.52623
-1.89319
-1.34046
-0.862599
-0.453344
-0.106054
0.185997
0.429368
0.630284
0.794506
0.927273
1.03329
1.11679
1.18152
1.23079
1.26742
1.29367
1.31125
1.32144
1.32522
1.32342
1.31681
1.3061
1.29198
1.27503
1.25574
1.23452
1.2117
1.18756
1.16232
1.13619
1.10931
1.08182
1.05381
1.02537
0.996537
0.967362
0.937872
0.908085
0.878013
0.847663
0.817036
0.786132
0.754945
0.72347
0.691698
0.659622
0.627231
0.594516
0.561468
0.528076
0.494328
0.460218
0.42573
0.390872
0.355593
0.319965
0.283814
0.247473
0.210227
0.1735
0.134401
0.0987467
0.0548474
0.0262942
-9.67995
-9.75146
-9.83878
-9.95078
-10.1001
-10.3033
-10.5781
-10.941
-11.4033
-11.9675
-12.6247
-13.3535
-14.121
-14.8851
-15.5987
-16.2135
-16.6852
-16.9772
-17.0643
-16.935
-16.591
-16.0467
-15.3257
-14.4582
-13.4772
-12.416
-11.3062
-10.1764
-9.0517
-7.95354
-6.8995
-5.90343
-4.97549
-4.12235
-3.34756
-2.6519
-2.03395
-1.49051
-1.01709
-0.608377
-0.258556
0.0383575
0.288295
0.49695
0.669656
0.811305
0.926338
1.01876
1.09218
1.14979
1.19433
1.22801
1.25253
1.26915
1.27885
1.28246
1.28074
1.27444
1.26426
1.25082
1.23464
1.21618
1.19579
1.17378
1.15043
1.12594
1.10051
1.07427
1.04736
1.01987
0.991866
0.963405
0.934532
0.905275
0.875659
0.8457
0.815407
0.784786
0.75384
0.722569
0.69097
0.659038
0.626768
0.594154
0.561189
0.527865
0.494173
0.46011
0.425657
0.390828
0.35557
0.319959
0.28382
0.24749
0.210248
0.173526
0.134427
0.0987756
0.054872
0.0263173
-9.71899
-9.80199
-9.90216
-10.027
-10.1866
-10.3939
-10.6622
-11.0032
-11.4245
-11.9266
-12.5009
-13.1294
-13.7845
-14.4315
-15.0313
-15.544
-15.9325
-16.1656
-16.2218
-16.0899
-15.7702
-15.2732
-14.6177
-13.8283
-12.933
-11.9606
-10.9387
-9.89329
-8.84725
-7.82052
-6.82979
-5.88837
-5.00632
-4.19055
-3.44508
-2.77144
-2.16899
-1.63544
-1.16718
-0.759762
-0.408146
-0.107054
0.148837
0.364702
0.545446
0.695615
0.819371
0.920504
1.00245
1.06828
1.12065
1.16173
1.19317
1.21623
1.23187
1.24091
1.24413
1.24228
1.23608
1.22618
1.21315
1.19748
1.17955
1.15972
1.13827
1.11546
1.09149
1.06654
1.04074
1.01422
0.987057
0.959325
0.931079
0.902364
0.873213
0.843651
0.813697
0.783366
0.752665
0.721602
0.690177
0.658392
0.626244
0.593732
0.560851
0.527597
0.493962
0.459945
0.42553
0.390729
0.355495
0.319901
0.283775
0.247457
0.210219
0.173501
0.134405
0.0987529
0.0548518
0.0262928
-9.75329
-9.84507
-9.95434
-10.0873
-10.252
-10.4583
-10.716
-11.0334
-11.4152
-11.8604
-12.3611
-12.9016
-13.459
-14.0046
-14.506
-14.9301
-15.2458
-15.4271
-15.4549
-15.3192
-15.0191
-14.5623
-13.9636
-13.2431
-12.4245
-11.5322
-10.5907
-9.62304
-8.65018
-7.69053
-6.75971
-5.87046
-5.03263
-4.25322
-3.53665
-2.885
-2.29837
-1.77522
-1.31277
-0.907331
-0.554613
-0.249996
0.0112532
0.233807
0.422144
0.580464
0.712646
0.822255
0.912552
0.986479
1.04659
1.095
1.13334
1.16283
1.18441
1.19891
1.20708
1.2097
1.20751
1.20119
1.19134
1.17848
1.16304
1.14541
1.12589
1.10478
1.0823
1.05865
1.03399
1.00846
0.982158
0.95517
0.927569
0.899409
0.870736
0.841584
0.811981
0.781949
0.751503
0.720655
0.689412
0.65778
0.625761
0.593356
0.560563
0.527382
0.493807
0.45984
0.425462
0.390689
0.35548
0.319906
0.283793
0.24749
0.210253
0.173538
0.134445
0.0987896
0.0548898
0.0263164
-9.78154
-9.87952
-9.99457
-10.1317
-10.2972
-10.4985
-10.7428
-11.0357
-11.3797
-11.7729
-12.208
-12.6715
-13.144
-13.6019
-14.0182
-14.3655
-14.6179
-14.7534
-14.7558
-14.6158
-14.3317
-13.9092
-13.3599
-12.7002
-11.9499
-11.13
-10.2618
-9.3658
-8.46093
-7.56408
-6.68984
-5.85027
-5.05491
-4.31078
-3.62257
-2.9928
-2.42219
-1.90987
-1.45378
-1.05096
-0.697776
-0.390252
-0.124213
0.104523
0.300016
0.466118
0.606423
0.724265
0.822724
0.904601
0.972356
1.02803
1.07321
1.10911
1.13663
1.15657
1.16971
1.17682
1.17866
1.17593
1.16927
1.15924
1.14631
1.13089
1.11332
1.09392
1.07294
1.05061
1.0271
1.00257
0.977134
0.950901
0.923951
0.896353
0.868162
0.839425
0.810176
0.780446
0.750257
0.719626
0.688566
0.657089
0.625199
0.592901
0.560197
0.52709
0.493575
0.459656
0.425318
0.390577
0.355393
0.319837
0.283739
0.247421
0.210218
0.173505
0.134418
0.0987549
0.0548658
0.0262758
-9.80391
-9.90577
-10.0237
-10.1617
-10.3247
-10.518
-10.7469
-11.0149
-11.3231
-11.6689
-12.0455
-12.4412
-12.8399
-13.2217
-13.5645
-13.8453
-14.0428
-14.1382
-14.1178
-13.9733
-13.7025
-13.3094
-12.8031
-12.1972
-11.5079
-10.7533
-9.95185
-9.12171
-8.27986
-7.44171
-6.62076
-5.82838
-5.07371
-4.36371
-3.70321
-3.09512
-2.54062
-2.03946
-1.59021
-1.19055
-0.837489
-0.52763
-0.257337
-0.0229027
0.179323
0.352845
0.50097
0.626798
0.733219
0.822891
0.898168
0.96102
1.01299
1.05524
1.08868
1.11407
1.13217
1.14377
1.14963
1.1505
1.14705
1.13986
1.12944
1.11623
1.10063
1.08295
1.06349
1.04249
1.02014
0.996623
0.972072
0.946605
0.920319
0.893295
0.865599
0.837286
0.808402
0.778983
0.749058
0.718652
0.687783
0.656465
0.624709
0.592523
0.559912
0.526881
0.493429
0.45956
0.425264
0.390556
0.355396
0.319859
0.283775
0.247473
0.210272
0.173559
0.134478
0.098804
0.0549222
0.0263019
-9.81904
-9.92269
-10.0411
-10.1774
-10.3351
-10.5183
-10.7305
-10.9739
-11.2483
-11.5509
-11.8754
-12.2116
-12.546
-12.862
-13.1413
-13.3648
-13.5147
-13.5753
-13.5349
-13.386
-13.1263
-12.7586
-12.2901
-11.7317
-11.097
-10.4012
-9.66057
-8.89087
-8.10733
-7.32393
-6.55308
-5.8054
-5.08962
-4.41251
-3.77901
-3.19227
-2.65388
-2.16412
-1.72209
-1.32607
-0.973645
-0.661969
-0.387915
-0.148235
0.0603212
0.240913
0.396561
0.530126
0.644306
0.741609
0.824278
0.894205
0.952885
1.00144
1.04075
1.07155
1.0946
1.11067
1.12055
1.125
1.12474
1.12037
1.11246
1.10147
1.08782
1.07187
1.05392
1.03425
1.01307
0.990564
0.966898
0.942199
0.916578
0.890128
0.862927
0.83504
0.80652
0.777411
0.747751
0.71757
0.68689
0.655732
0.62411
0.592036
0.559518
0.526564
0.493174
0.459357
0.425102
0.390428
0.355295
0.319778
0.28371
0.247419
0.210228
0.173513
0.134443
0.0987529
0.0548928
0.0262396
-9.82845
-9.93207
-10.0489
-10.1812
-10.3317
-10.5033
-10.6981
-10.9172
-11.16
-11.4232
-11.7012
-11.9851
-12.2634
-12.5224
-12.7468
-12.9208
-13.0296
-13.06
-13.002
-12.8491
-12.5989
-12.2534
-11.818
-11.3016
-10.7157
-10.0731
-9.38764
-8.67334
-7.94368
-7.21124