/*--------------------------------*- C++ -*----------------------------------*\
  =========                 |
  \\      /  F ield         | OpenFOAM: The Open Source CFD Toolbox
   \\    /   O peration     | Website:  https://openfoam.org
    \\  /    A nd           | Version:  10
     \\/     M anipulation  |
\*---------------------------------------------------------------------------*/
FoamFile
{
    format      ascii;
    class       volVectorField;
    location    "0.04";
    object      U;
}
// * * * * * * * * * * * * * * * * * * * * * * * * * * * * * * * * * * * * * //

dimensions      [0 1 -1 0 0 0 0];

internalField   nonuniform List<vector> 
6820
(
(5.57348 0.459185 0)
(3.88261 0.245972 0)
(2.58826 0.00887004 0)
(1.95566 -0.0640904 0)
(1.72956 -0.0593709 0)
(1.61755 -0.0338941 0)
(1.55163 -0.0152379 0)
(1.50465 -0.00517336 0)
(1.46493 -0.000581194 0)
(1.43035 0.000928712 0)
(1.40033 0.000996646 0)
(1.3744 0.000507758 0)
(1.35204 -0.000128616 0)
(1.33274 -0.000731648 0)
(1.31599 -0.00123243 0)
(1.30137 -0.00161623 0)
(1.28852 -0.00189195 0)
(1.27714 -0.00207641 0)
(1.267 -0.00218704 0)
(1.25789 -0.00223943 0)
(1.24965 -0.00224675 0)
(1.24214 -0.00221994 0)
(1.23524 -0.00216848 0)
(1.22885 -0.0021003 0)
(1.22291 -0.00202502 0)
(1.21738 -0.00194718 0)
(1.21217 -0.0018927 0)
(1.20752 -0.00183136 0)
(1.20293 -0.00192412 0)
(1.20033 -0.00172875 0)
(1.19494 -0.00274661 0)
(1.20305 0.00117374 0)
(1.17736 -0.0229599 0)
(7.6698 0.864017 0)
(7.71693 0.891068 0)
(6.99898 0.598795 0)
(6.19538 0.347939 0)
(5.58081 0.180071 0)
(5.13482 0.0936446 0)
(4.8164 0.0533639 0)
(4.58614 0.0349704 0)
(4.41303 0.0265969 0)
(4.27779 0.0223847 0)
(4.1687 0.0198642 0)
(4.07844 0.0180974 0)
(4.00231 0.0167116 0)
(3.93716 0.0155445 0)
(3.88076 0.0145153 0)
(3.83151 0.0135835 0)
(3.78818 0.0127298 0)
(3.74984 0.0119447 0)
(3.71574 0.0112238 0)
(3.68527 0.0105647 0)
(3.65794 0.00996565 0)
(3.63332 0.0094247 0)
(3.61108 0.00893804 0)
(3.5909 0.00849992 0)
(3.57255 0.00809706 0)
(3.55583 0.00771771 0)
(3.54057 0.00730792 0)
(3.52673 0.0068825 0)
(3.51421 0.00613562 0)
(3.50347 0.00548894 0)
(3.49414 0.00283442 0)
(3.48975 0.00153954 0)
(3.48775 -0.0101658 0)
(7.56353 0.520462 0)
(8.2251 0.664008 0)
(8.46438 0.576903 0)
(8.3628 0.459578 0)
(8.12603 0.345679 0)
(7.84801 0.26095 0)
(7.57656 0.201426 0)
(7.33156 0.158729 0)
(7.11635 0.127707 0)
(6.92897 0.104674 0)
(6.76619 0.0871397 0)
(6.62459 0.0735257 0)
(6.50108 0.0627921 0)
(6.39297 0.0542276 0)
(6.298 0.0473157 0)
(6.21425 0.041672 0)
(6.14013 0.0370108 0)
(6.07428 0.0331206 0)
(6.01558 0.029844 0)
(5.96307 0.027063 0)
(5.91595 0.0246874 0)
(5.87351 0.0226469 0)
(5.83519 0.0208842 0)
(5.80047 0.01935 0)
(5.76894 0.0179951 0)
(5.74024 0.016769 0)
(5.71407 0.0155946 0)
(5.69022 0.0144023 0)
(5.66847 0.012945 0)
(5.64884 0.0111993 0)
(5.63102 0.0078897 0)
(5.615 0.00362845 0)
(5.59962 -0.00718095 0)
(7.43335 0.341241 0)
(7.88458 0.514953 0)
(8.24316 0.490423 0)
(8.44151 0.430998 0)
(8.54082 0.360159 0)
(8.57029 0.299954 0)
(8.55445 0.254215 0)
(8.51292 0.219068 0)
(8.45672 0.191509 0)
(8.39231 0.16928 0)
(8.32387 0.150799 0)
(8.25416 0.135109 0)
(8.18498 0.121588 0)
(8.11767 0.109807 0)
(8.05303 0.0994846 0)
(7.99153 0.0904062 0)
(7.93342 0.0823985 0)
(7.87876 0.0753164 0)
(7.82755 0.0690387 0)
(7.77969 0.0634638 0)
(7.73504 0.0585051 0)
(7.69344 0.0540884 0)
(7.6547 0.0501473 0)
(7.61863 0.04662 0)
(7.58506 0.0434426 0)
(7.5538 0.0405468 0)
(7.52467 0.037838 0)
(7.49753 0.0352166 0)
(7.4722 0.0324526 0)
(7.44852 0.0294216 0)
(7.42622 0.0253724 0)
(7.40443 0.0204618 0)
(7.3831 0.0131853 0)
(7.39681 0.251209 0)
(7.67985 0.421582 0)
(7.92307 0.404898 0)
(8.07679 0.355338 0)
(8.18702 0.301061 0)
(8.26899 0.255858 0)
(8.32946 0.222399 0)
(8.37574 0.197009 0)
(8.41177 0.176941 0)
(8.4396 0.160542 0)
(8.46076 0.146716 0)
(8.47647 0.134798 0)
(8.4877 0.124379 0)
(8.49499 0.115168 0)
(8.49899 0.106949 0)
(8.50027 0.0995603 0)
(8.49934 0.0928805 0)
(8.49664 0.0868157 0)
(8.49254 0.0812927 0)
(8.48733 0.076253 0)
(8.48126 0.0716491 0)
(8.47455 0.0674401 0)
(8.46735 0.0635889 0)
(8.4598 0.0600585 0)
(8.45201 0.0568068 0)
(8.44403 0.0537836 0)
(8.43592 0.050916 0)
(8.4277 0.0481163 0)
(8.41929 0.045224 0)
(8.4106 0.0421052 0)
(8.40132 0.0384023 0)
(8.39073 0.0341352 0)
(8.37829 0.0289834 0)
(7.37401 0.180888 0)
(7.57399 0.336729 0)
(7.76048 0.343348 0)
(7.87465 0.314602 0)
(7.95049 0.275876 0)
(8.00543 0.238179 0)
(8.04641 0.207312 0)
(8.08006 0.182739 0)
(8.10982 0.162989 0)
(8.13685 0.146917 0)
(8.16169 0.133569 0)
(8.18464 0.122244 0)
(8.20587 0.11249 0)
(8.22563 0.103997 0)
(8.24399 0.0965177 0)
(8.26104 0.0898662 0)
(8.27684 0.0839087 0)
(8.29144 0.0785443 0)
(8.30491 0.0736957 0)
(8.31732 0.0693025 0)
(8.32872 0.0653166 0)
(8.33918 0.061698 0)
(8.34874 0.0584115 0)
(8.35747 0.0554238 0)
(8.36538 0.052699 0)
(8.37251 0.0501963 0)
(8.37885 0.0478612 0)
(8.38438 0.0456312 0)
(8.38899 0.043409 0)
(8.39251 0.041125 0)
(8.39461 0.0386507 0)
(8.39483 0.0361156 0)
(8.39251 0.033637 0)
(7.35904 0.13299 0)
(7.50318 0.273845 0)
(7.65532 0.296167 0)
(7.75499 0.279917 0)
(7.82064 0.250869 0)
(7.86704 0.219499 0)
(7.89981 0.192362 0)
(7.92467 0.170203 0)
(7.94535 0.152041 0)
(7.96344 0.137008 0)
(7.97982 0.12437 0)
(7.99501 0.113566 0)
(8.00928 0.1042 0)
(8.0228 0.0959926 0)
(8.03565 0.0887423 0)
(8.04791 0.0822985 0)
(8.05961 0.0765441 0)
(8.07077 0.0713861 0)
(8.08141 0.06675 0)
(8.09153 0.0625761 0)
(8.10114 0.0588162 0)
(8.11025 0.0554305 0)
(8.11885 0.0523852 0)
(8.12694 0.0496501 0)
(8.13451 0.0471956 0)
(8.14154 0.044992 0)
(8.14798 0.0430047 0)
(8.15377 0.0412013 0)
(8.15877 0.0395416 0)
(8.16282 0.0380229 0)
(8.16561 0.0366458 0)
(8.16677 0.0356141 0)
(8.16587 0.035089 0)
(7.34964 0.0993133 0)
(7.4533 0.22131 0)
(7.57611 0.251673 0)
(7.66446 0.245513 0)
(7.72579 0.226418 0)
(7.77092 0.202845 0)
(7.80366 0.180588 0)
(7.8283 0.161285 0)
(7.84823 0.144734 0)
(7.86513 0.130574 0)
(7.87995 0.118419 0)
(7.89331 0.107896 0)
(7.90559 0.098709 0)
(7.91701 0.0906372 0)
(7.92774 0.0835054 0)
(7.93787 0.0771721 0)
(7.94747 0.0715236 0)
(7.9566 0.0664698 0)
(7.96528 0.0619393 0)
(7.97354 0.0578752 0)
(7.9814 0.0542323 0)
(7.98887 0.050974 0)
(7.99594 0.0480702 0)
(8.00262 0.0454962 0)
(8.00889 0.0432305 0)
(8.01472 0.0412552 0)
(8.02006 0.0395553 0)
(8.02483 0.0381252 0)
(8.02893 0.0369697 0)
(8.03218 0.0361348 0)
(8.03438 0.0357035 0)
(8.0352 0.0359143 0)
(8.03443 0.0370079 0)
(7.3438 0.075377 0)
(7.41907 0.17942 0)
(7.51764 0.214345 0)
(7.59465 0.215827 0)
(7.65068 0.203882 0)
(7.69354 0.185858 0)
(7.72595 0.167152 0)
(7.75099 0.150107 0)
(7.77146 0.135086 0)
(7.78889 0.122002 0)
(7.80416 0.110638 0)
(7.81785 0.100723 0)
(7.83035 0.0920182 0)
(7.84191 0.0843332 0)
(7.8527 0.0775155 0)
(7.86283 0.0714421 0)
(7.87238 0.0660149 0)
(7.88143 0.0611561 0)
(7.89 0.0568031 0)
(7.89814 0.0529058 0)
(7.90587 0.049424 0)
(7.91319 0.0463262 0)
(7.92013 0.0435879 0)
(7.92667 0.0411909 0)
(7.93282 0.0391228 0)
(7.93853 0.0373784 0)
(7.94378 0.0359612 0)
(7.9485 0.0348899 0)
(7.95259 0.0342043 0)
(7.95593 0.0339877 0)
(7.95836 0.0343729 0)
(7.95969 0.0356163 0)
(7.9598 0.0379861 0)
(7.34016 0.0581524 0)
(7.3954 0.145805 0)
(7.4743 0.181857 0)
(7.54085 0.188351 0)
(7.59164 0.181788 0)
(7.63191 0.168658 0)
(7.66348 0.153623 0)
(7.68845 0.139148 0)
(7.70908 0.125907 0)
(7.72674 0.114032 0)
(7.74223 0.103487 0)
(7.75613 0.0941413 0)
(7.76882 0.0858438 0)
(7.78055 0.0784624 0)
(7.7915 0.0718824 0)
(7.80178 0.0660057 0)
(7.81147 0.0607495 0)
(7.82065 0.0560453 0)
(7.82936 0.0518366 0)
(7.83763 0.0480781 0)
(7.84548 0.0447338 0)
(7.85294 0.0417763 0)
(7.86002 0.0391858 0)
(7.86671 0.0369502 0)
(7.87301 0.0350654 0)
(7.87891 0.033537 0)
(7.88436 0.0323832 0)
(7.88933 0.0316408 0)
(7.89375 0.0313728 0)
(7.89753 0.0316838 0)
(7.90059 0.0327292 0)
(7.9028 0.0347617 0)
(7.90417 0.0380385 0)
(7.33787 0.0455189 0)
(7.37892 0.118778 0)
(7.44212 0.153926 0)
(7.49936 0.163819 0)
(7.54517 0.161401 0)
(7.5827 0.152226 0)
(7.61308 0.14023 0)
(7.6377 0.127871 0)
(7.65831 0.1161 0)
(7.67609 0.105256 0)
(7.69177 0.0954529 0)
(7.70587 0.0866626 0)
(7.71875 0.0787996 0)
(7.73066 0.0717696 0)
(7.74177 0.0654823 0)
(7.7522 0.0598553 0)
(7.76204 0.0548169 0)
(7.77135 0.0503069 0)
(7.78019 0.0462757 0)
(7.78859 0.0426831 0)
(7.79658 0.0394978 0)
(7.80419 0.036697 0)
(7.81142 0.0342656 0)
(7.81828 0.0321972 0)
(7.82477 0.0304945 0)
(7.83089 0.0291717 0)
(7.83661 0.0282576 0)
(7.84191 0.027801 0)
(7.84674 0.0278777 0)
(7.85107 0.028601 0)
(7.85486 0.0301287 0)
(7.85808 0.0326955 0)
(7.86078 0.0365233 0)
(7.33642 0.0360714 0)
(7.36735 0.0969881 0)
(7.41809 0.129902 0)
(7.4671 0.141699 0)
(7.50821 0.142174 0)
(7.54298 0.136055 0)
(7.57204 0.126664 0)
(7.59619 0.116303 0)
(7.61672 0.10604 0)
(7.6346 0.0963269 0)
(7.65046 0.0873665 0)
(7.66477 0.0792104 0)
(7.67786 0.0718327 0)
(7.68997 0.0651811 0)
(7.70127 0.0591957 0)
(7.71187 0.0538165 0)
(7.72188 0.0489876 0)
(7.73136 0.0446601 0)
(7.74036 0.0407924 0)
(7.74893 0.0373504 0)
(7.75709 0.0343075 0)
(7.76486 0.0316451 0)
(7.77228 0.0293523 0)
(7.77934 0.0274272 0)
(7.78607 0.0258775 0)
(7.79245 0.0247234 0)
(7.79848 0.0239998 0)
(7.80417 0.0237612 0)
(7.80949 0.0240871 0)
(7.81444 0.0250884 0)
(7.81903 0.0269118 0)
(7.82329 0.0297621 0)
(7.82731 0.0338144 0)
(7.33548 0.0288563 0)
(7.35914 0.0793096 0)
(7.40004 0.109232 0)
(7.44193 0.121842 0)
(7.4787 0.124309 0)
(7.51078 0.120558 0)
(7.53838 0.113341 0)
(7.56189 0.104711 0)
(7.5822 0.095771 0)
(7.60009 0.0870538 0)
(7.61609 0.0788404 0)
(7.63058 0.0712529 0)
(7.64389 0.0643193 0)
(7.65622 0.0580243 0)
(7.66774 0.0523331 0)
(7.67857 0.0472031 0)
(7.68878 0.0425905 0)
(7.69847 0.0384543 0)
(7.70767 0.034759 0)
(7.71643 0.0314749 0)
(7.72479 0.0285792 0)
(7.73278 0.0260564 0)
(7.74041 0.0238986 0)
(7.74771 0.022107 0)
(7.7547 0.0206923 0)
(7.76139 0.0196773 0)
(7.76778 0.0190993 0)
(7.7739 0.0190127 0)
(7.77974 0.0194932 0)
(7.78535 0.0206418 0)
(7.79076 0.0225848 0)
(7.79605 0.0254916 0)
(7.80133 0.0294878 0)
(7.33485 0.0232276 0)
(7.35324 0.0648574 0)
(7.38643 0.0914285 0)
(7.42222 0.104012 0)
(7.45501 0.10769 0)
(7.48451 0.105645 0)
(7.5106 0.100145 0)
(7.53336 0.092982 0)
(7.55337 0.0852307 0)
(7.57121 0.0774638 0)
(7.58729 0.0700037 0)
(7.60196 0.0630156 0)
(7.61548 0.0565646 0)
(7.62803 0.0506633 0)
(7.63978 0.0452984 0)
(7.65083 0.040443 0)
(7.66127 0.0360653 0)
(7.67117 0.0321333 0)
(7.68058 0.028618 0)
(7.68955 0.0254948 0)
(7.69813 0.0227446 0)
(7.70634 0.0203548 0)
(7.71421 0.0183199 0)
(7.72177 0.0166427 0)
(7.72904 0.0153352 0)
(7.73605 0.0144204 0)
(7.74282 0.0139338 0)
(7.74938 0.0139256 0)
(7.75577 0.0144627 0)
(7.76203 0.0156304 0)
(7.76824 0.0175302 0)
(7.77449 0.0202933 0)
(7.78091 0.0239993 0)
(7.33443 0.0187436 0)
(7.34895 0.0529285 0)
(7.37609 0.0760413 0)
(7.40673 0.0879873 0)
(7.43597 0.0922647 0)
(7.46304 0.0913935 0)
(7.48762 0.0872238 0)
(7.50956 0.0812812 0)
(7.52918 0.0745624 0)
(7.54689 0.0676427 0)
(7.56302 0.0608655 0)
(7.57782 0.054426 0)
(7.59151 0.0484195 0)
(7.60428 0.0428837 0)
(7.61625 0.037824 0)
(7.62752 0.0332277 0)
(7.63819 0.0290734 0)
(7.64831 0.0253365 0)
(7.65795 0.0219931 0)
(7.66715 0.019022 0)
(7.67595 0.0164068 0)
(7.6844 0.0141364 0)
(7.69252 0.0122061 0)
(7.70035 0.0106188 0)
(7.70791 0.00938564 0)
(7.71526 0.00852707 0)
(7.72241 0.00807412 0)
(7.72942 0.0080692 0)
(7.73633 0.00856685 0)
(7.74321 0.00963392 0)
(7.75015 0.0113454 0)
(7.75727 0.0137957 0)
(7.76469 0.0170242 0)
(7.33413 0.0150979 0)
(7.3458 0.0429719 0)
(7.36821 0.0626768 0)
(7.39454 0.0735537 0)
(7.42063 0.0779386 0)
(7.44548 0.07778 0)
(7.46858 0.0745718 0)
(7.48967 0.0695905 0)
(7.50885 0.0637338 0)
(7.52638 0.0575571 0)
(7.5425 0.0514072 0)
(7.55741 0.0454939 0)
(7.57127 0.0399308 0)
(7.58424 0.0347716 0)
(7.59643 0.0300348 0)
(7.60793 0.0257179 0)
(7.61882 0.0218071 0)
(7.62917 0.0182836 0)
(7.63903 0.0151274 0)
(7.64846 0.0123205 0)
(7.65749 0.00984788 0)
(7.66617 0.00769932 0)
(7.67454 0.00587009 0)
(7.68263 0.00436183 0)
(7.69049 0.00318315 0)
(7.69816 0.00235027 0)
(7.70568 0.00188759 0)
(7.71311 0.00182769 0)
(7.72051 0.00221101 0)
(7.72795 0.00308496 0)
(7.73554 0.00449919 0)
(7.7434 0.00651346 0)
(7.75163 0.00913505 0)
(7.33392 0.0120751 0)
(7.34345 0.0345557 0)
(7.36217 0.0509884 0)
(7.38494 0.0605015 0)
(7.40828 0.0646077 0)
(7.43111 0.0647813 0)
(7.45284 0.0622155 0)
(7.47307 0.0579625 0)
(7.49179 0.0528079 0)
(7.50911 0.0472667 0)
(7.5252 0.0416733 0)
(7.54017 0.036239 0)
(7.55418 0.0310865 0)
(7.56733 0.0262801 0)
(7.57973 0.0218477 0)
(7.59145 0.0177947 0)
(7.60256 0.0141136 0)
(7.61314 0.0107898 0)
(7.62323 0.00780682 0)
(7.63288 0.00514809 0)
(7.64214 0.00279959 0)
(7.65105 0.000750843 0)
(7.65967 -0.00100409 0)
(7.66802 -0.00246598 0)
(7.67616 -0.00363003 0)
(7.68413 -0.00448562 0)
(7.69199 -0.00501634 0)
(7.6998 -0.00520048 0)
(7.70763 -0.00501218 0)
(7.71557 -0.0044227 0)
(7.7237 -0.00340557 0)
(7.73215 -0.00193028 0)
(7.74102 -1.43412e-05 0)
(7.33376 0.00952024 0)
(7.34169 0.0273412 0)
(7.35753 0.0406755 0)
(7.37737 0.0486322 0)
(7.39836 0.0521591 0)
(7.41941 0.0523487 0)
(7.43986 0.0501424 0)
(7.45928 0.046396 0)
(7.47753 0.0417815 0)
(7.49463 0.0367626 0)
(7.51065 0.0316512 0)
(7.52569 0.0266513 0)
(7.53982 0.0218869 0)
(7.55315 0.0174265 0)
(7.56574 0.0133028 0)
(7.57767 0.00952527 0)
(7.58901 0.00608971 0)
(7.5998 0.00298397 0)
(7.61011 0.000192558 0)
(7.61998 -0.00230049 0)
(7.62946 -0.00450971 0)
(7.6386 -0.00644695 0)
(7.64744 -0.00812045 0)
(7.65603 -0.00953444 0)
(7.66443 -0.0106889 0)
(7.67268 -0.0115798 0)
(7.68084 -0.0121992 0)
(7.68898 -0.0125366 0)
(7.69717 -0.01258 0)
(7.7055 -0.0123178 0)
(7.71405 -0.0117436 0)
(7.72295 -0.0108506 0)
(7.73227 -0.00967417 0)
(7.33364 0.00731932 0)
(7.34036 0.0210611 0)
(7.35396 0.0314777 0)
(7.37143 0.0377571 0)
(7.39043 0.0404719 0)
(7.40993 0.0404171 0)
(7.42925 0.038326 0)
(7.44792 0.034886 0)
(7.46572 0.0306596 0)
(7.4826 0.0260524 0)
(7.49857 0.0213448 0)
(7.51365 0.0167251 0)
(7.52791 0.0123108 0)
(7.5414 0.00816901 0)
(7.55418 0.00433283 0)
(7.56632 0.000813148 0)
(7.57787 -0.00239329 0)
(7.58888 -0.00529778 0)
(7.5994 -0.00791561 0)
(7.60948 -0.0102632 0)
(7.61917 -0.0123561 0)
(7.62852 -0.0142082 0)
(7.63758 -0.0158307 0)
(7.64639 -0.0172315 0)
(7.65501 -0.0184161 0)
(7.6635 -0.0193869 0)
(7.67191 -0.0201446 0)
(7.68032 -0.020689 0)
(7.6888 -0.0210206 0)
(7.69742 -0.0211422 0)
(7.70627 -0.0210634 0)
(7.71546 -0.0207963 0)
(7.72506 -0.0203875 0)
(7.33356 0.00538643 0)
(7.33935 0.0155022 0)
(7.35122 0.0231698 0)
(7.3668 0.0276991 0)
(7.38415 0.0294224 0)
(7.40233 0.0289095 0)
(7.42067 0.0267247 0)
(7.43868 0.0234129 0)
(7.45608 0.0194355 0)
(7.47276 0.0151377 0)
(7.48867 0.0107638 0)
(7.5038 0.00648056 0)
(7.51818 0.00239388 0)
(7.53183 -0.00143535 0)
(7.5448 -0.00497742 0)
(7.55714 -0.00822356 0)
(7.56889 -0.0111785 0)
(7.58011 -0.0138552 0)
(7.59083 -0.0162704 0)
(7.6011 -0.0184426 0)
(7.61099 -0.0203899 0)
(7.62052 -0.0221294 0)
(7.62977 -0.0236757 0)
(7.63876 -0.0250418 0)
(7.64757 -0.0262384 0)
(7.65625 -0.0272749 0)
(7.66486 -0.0281599 0)
(7.67346 -0.0289026 0)
(7.68213 -0.0295144 0)
(7.69094 -0.0300099 0)
(7.69997 -0.0304111 0)
(7.70931 -0.0307443 0)
(7.71903 -0.0310617 0)
(7.33349 0.00365479 0)
(7.33859 0.0104916 0)
(7.34913 0.0155552 0)
(7.36323 0.0182895 0)
(7.37924 0.0188806 0)
(7.39634 0.0177317 0)
(7.41386 0.0152715 0)
(7.43132 0.011925 0)
(7.44839 0.0080619 0)
(7.46492 0.00396636 0)
(7.48081 -0.000156876 0)
(7.49601 -0.00416731 0)
(7.51051 -0.00797578 0)
(7.52434 -0.0115319 0)
(7.5375 -0.0148128 0)
(7.55005 -0.0178145 0)
(7.56201 -0.0205454 0)
(7.57342 -0.023021 0)
(7.58434 -0.025261 0)
(7.5948 -0.0272865 0)
(7.60486 -0.0291187 0)
(7.61457 -0.0307775 0)
(7.62397 -0.0322819 0)
(7.63313 -0.033649 0)
(7.64209 -0.0348948 0)
(7.65091 -0.036035 0)
(7.65965 -0.0370851 0)
(7.66837 -0.0380621 0)
(7.67715 -0.0389857 0)
(7.68605 -0.0398797 0)
(7.69513 -0.0407744 0)
(7.70449 -0.0417055 0)
(7.71415 -0.0427266 0)
(7.33344 0.002071 0)
(7.33803 0.00588687 0)
(7.34758 0.00846097 0)
(7.36053 0.00937014 0)
(7.37551 0.00871767 0)
(7.39175 0.00678838 0)
(7.40863 0.00390421 0)
(7.42566 0.000391084 0)
(7.44249 -0.00346212 0)
(7.45891 -0.00742974 0)
(7.47481 -0.0113483 0)
(7.4901 -0.0151069 0)
(7.50475 -0.0186367 0)
(7.51875 -0.0219022 0)
(7.5321 -0.0248912 0)
(7.54484 -0.0276077 0)
(7.55699 -0.0300665 0)
(7.5686 -0.0322884 0)
(7.57969 -0.0342978 0)
(7.59032 -0.03612 0)
(7.60053 -0.0377803 0)
(7.61038 -0.0393031 0)
(7.61991 -0.0407116 0)
(7.62918 -0.0420277 0)
(7.63823 -0.0432726 0)
(7.64714 -0.0444674 0)
(7.65594 -0.0456339 0)
(7.66472 -0.0467952 0)
(7.67351 -0.0479777 0)
(7.6824 -0.0492114 0)
(7.69142 -0.0505324 0)
(7.70067 -0.0519821 0)
(7.71016 -0.0536126 0)
(7.33341 0.000589608 0)
(7.33763 0.00156473 0)
(7.34646 0.00172884 0)
(7.35857 0.000783133 0)
(7.37279 -0.00121046 0)
(7.38841 -0.00405062 0)
(7.40484 -0.00750006 0)
(7.42159 -0.0113163 0)
(7.43828 -0.0152831 0)
(7.4547 -0.0192313 0)
(7.47068 -0.0230393 0)
(7.48611 -0.0266276 0)
(7.50094 -0.0299506 0)
(7.51515 -0.0329895 0)
(7.52872 -0.0357448 0)
(7.54167 -0.0382301 0)
(7.55403 -0.0404676 0)
(7.56582 -0.0424843 0)
(7.57709 -0.0443097 0)
(7.58788 -0.0459739 0)
(7.59823 -0.0475064 0)
(7.60819 -0.0489357 0)
(7.61782 -0.0502893 0)
(7.62716 -0.0515934 0)
(7.63627 -0.0528737 0)
(7.64521 -0.0541559 0)
(7.65402 -0.0554661 0)
(7.66276 -0.0568325 0)
(7.67149 -0.0582855 0)
(7.68027 -0.0598589 0)
(7.68913 -0.0615914 0)
(7.69815 -0.0635264 0)
(7.70734 -0.0657118 0)
(7.33338 -0.000827092 0)
(7.33736 -0.0025817 0)
(7.34571 -0.00478468 0)
(7.35726 -0.0076178 0)
(7.37098 -0.0110314 0)
(7.3862 -0.0148788 0)
(7.40237 -0.0189864 0)
(7.41897 -0.0231801 0)
(7.43564 -0.0273077 0)
(7.45212 -0.0312534 0)
(7.46824 -0.0349392 0)
(7.48385 -0.0383203 0)
(7.49889 -0.0413785 0)
(7.51331 -0.0441166 0)
(7.52711 -0.0465519 0)
(7.54027 -0.0487117 0)
(7.55282 -0.0506287 0)
(7.56479 -0.0523387 0)
(7.57622 -0.0538783 0)
(7.58713 -0.0552838 0)
(7.59759 -0.0565898 0)
(7.60764 -0.0578297 0)
(7.61732 -0.0590352 0)
(7.6267 -0.0602365 0)
(7.63581 -0.0614634 0)
(7.64471 -0.062745 0)
(7.65346 -0.0641112 0)
(7.66211 -0.065593 0)
(7.6707 -0.0672234 0)
(7.67928 -0.0690382 0)
(7.68789 -0.0710764 0)
(7.6966 -0.0733821 0)
(7.7054 -0.0759971 0)
(7.33337 -0.00221511 0)
(7.3372 -0.00665478 0)
(7.34529 -0.0112265 0)
(7.35655 -0.0160041 0)
(7.37002 -0.0209359 0)
(7.3851 -0.025914 0)
(7.40121 -0.0308178 0)
(7.41787 -0.0355331 0)
(7.43469 -0.0399655 0)
(7.45138 -0.0440494 0)
(7.46775 -0.0477479 0)
(7.48364 -0.0510496 0)
(7.49896 -0.0539631 0)
(7.51367 -0.0565125 0)
(7.52773 -0.058732 0)
(7.54113 -0.0606624 0)
(7.5539 -0.0623476 0)
(7.56606 -0.0638325 0)
(7.57764 -0.0651611 0)
(7.58868 -0.0663762 0)
(7.59923 -0.0675179 0)
(7.60933 -0.0686243 0)
(7.61904 -0.0697314 0)
(7.6284 -0.0708733 0)
(7.63747 -0.0720828 0)
(7.64629 -0.073392 0)
(7.65491 -0.0748332 0)
(7.66338 -0.0764389 0)
(7.67175 -0.0782431 0)
(7.68006 -0.0802813 0)
(7.68833 -0.082591 0)
(7.69662 -0.0852139 0)
(7.70493 -0.0881847 0)
(7.33337 -0.00361025 0)
(7.33716 -0.0107518 0)
(7.34517 -0.0177283 0)
(7.35637 -0.0245049 0)
(7.36984 -0.0310108 0)
(7.38499 -0.0371586 0)
(7.40125 -0.0428674 0)
(7.41812 -0.0480753 0)
(7.4352 -0.0527446 0)
(7.45219 -0.056863 0)
(7.46888 -0.0604412 0)
(7.4851 -0.0635086 0)
(7.50075 -0.0661077 0)
(7.51575 -0.0682903 0)
(7.53009 -0.0701127 0)
(7.54375 -0.0716335 0)
(7.55673 -0.0729105 0)
(7.56907 -0.0739995 0)
(7.58079 -0.0749534 0)
(7.59194 -0.0758216 0)
(7.60255 -0.07665 0)
(7.61269 -0.0774809 0)
(7.62238 -0.0783538 0)
(7.63169 -0.0793058 0)
(7.64067 -0.080372 0)
(7.64936 -0.081586 0)
(7.6578 -0.082981 0)
(7.66605 -0.08459 0)
(7.67414 -0.0864464 0)
(7.68211 -0.0885844 0)
(7.68999 -0.0910392 0)
(7.69782 -0.0938493 0)
(7.70561 -0.0970424 0)
(7.33337 -0.00504877 0)
(7.33723 -0.0149845 0)
(7.34538 -0.0244745 0)
(7.3568 -0.033385 0)
(7.37057 -0.0416301 0)
(7.3861 -0.0491423 0)
(7.4028 -0.0558765 0)
(7.42016 -0.061816 0)
(7.43775 -0.0669703 0)
(7.45525 -0.0713712 0)
(7.47244 -0.0750691 0)
(7.48913 -0.0781282 0)
(7.50521 -0.0806211 0)
(7.5206 -0.0826253 0)
(7.53528 -0.0842191 0)
(7.54922 -0.085479 0)
(7.56245 -0.0864782 0)
(7.57497 -0.087285 0)
(7.58682 -0.0879628 0)
(7.59806 -0.0885692 0)
(7.60871 -0.0891568 0)
(7.61884 -0.0897734 0)
(7.62848 -0.0904628 0)
(7.63769 -0.0912648 0)
(7.64652 -0.0922169 0)
(7.65502 -0.0933539 0)
(7.66322 -0.0947093 0)
(7.67118 -0.0963155 0)
(7.67892 -0.0982042 0)
(7.68648 -0.100407 0)
(7.69389 -0.102955 0)
(7.70117 -0.105881 0)
(7.70833 -0.109206 0)
(7.33339 -0.00656918 0)
(7.33739 -0.0194486 0)
(7.34587 -0.0315631 0)
(7.35774 -0.0426574 0)
(7.37203 -0.0526127 0)
(7.38813 -0.0613734 0)
(7.40545 -0.0689343 0)
(7.42344 -0.0753386 0)
(7.44166 -0.0806625 0)
(7.45979 -0.0850019 0)
(7.47757 -0.0884641 0)
(7.49481 -0.0911617 0)
(7.51139 -0.0932072 0)
(7.52723 -0.0947096 0)
(7.5423 -0.0957722 0)
(7.55657 -0.0964909 0)
(7.57006 -0.0969537 0)
(7.58278 -0.0972402 0)
(7.59479 -0.0974221 0)
(7.60611 -0.0975635 0)
(7.6168 -0.0977219 0)
(7.62691 -0.0979483 0)
(7.63648 -0.0982888 0)
(7.64557 -0.0987849 0)
(7.65423 -0.0994744 0)
(7.6625 -0.100392 0)
(7.67043 -0.101571 0)
(7.67806 -0.103042 0)
(7.68541 -0.104833 0)
(7.69254 -0.106974 0)
(7.69945 -0.109491 0)
(7.70618 -0.112414 0)
(7.71274 -0.115756 0)
(7.33342 -0.00822528 0)
(7.33773 -0.0243347 0)
(7.34684 -0.0393804 0)
(7.35956 -0.0530093 0)
(7.37484 -0.0650905 0)
(7.392 -0.0755774 0)
(7.41039 -0.084483 0)
(7.42943 -0.0918809 0)
(7.44863 -0.0978865 0)
(7.46766 -0.102638 0)
(7.48624 -0.106287 0)
(7.50419 -0.108989 0)
(7.52138 -0.110895 0)
(7.53773 -0.11215 0)
(7.55322 -0.112889 0)
(7.56783 -0.113234 0)
(7.58158 -0.113293 0)
(7.59449 -0.113165 0)
(7.60661 -0.112934 0)
(7.61798 -0.112675 0)
(7.62866 -0.112453 0)
(7.63869 -0.112325 0)
(7.64814 -0.112341 0)
(7.65705 -0.112544 0)
(7.66547 -0.112972 0)
(7.67345 -0.113661 0)
(7.68104 -0.114642 0)
(7.68826 -0.115942 0)
(7.69517 -0.117588 0)
(7.70178 -0.119604 0)
(7.70813 -0.12201 0)
(7.71423 -0.124831 0)
(7.72008 -0.128071 0)
(7.33345 -0.010062 0)
(7.33814 -0.0296833 0)
(7.34803 -0.0477489 0)
(7.36176 -0.0637472 0)
(7.37816 -0.0775406 0)
(7.39652 -0.089142 0)
(7.41613 -0.0986568 0)
(7.43637 -0.106264 0)
(7.45673 -0.112177 0)
(7.47685 -0.116615 0)
(7.49643 -0.119794 0)
(7.51527 -0.121919 0)
(7.53325 -0.123182 0)
(7.55028 -0.123755 0)
(7.56633 -0.123795 0)
(7.58139 -0.12344 0)
(7.59549 -0.122813 0)
(7.60866 -0.122019 0)
(7.62095 -0.121152 0)
(7.63241 -0.120291 0)
(7.6431 -0.119504 0)
(7.65307 -0.118852 0)
(7.66239 -0.118385 0)
(7.67112 -0.118148 0)
(7.67929 -0.118178 0)
(7.68698 -0.118509 0)
(7.69421 -0.119171 0)
(7.70103 -0.120188 0)
(7.70748 -0.121584 0)
(7.71359 -0.12338 0)
(7.71938 -0.12559 0)
(7.72488 -0.128236 0)
(7.73012 -0.131313 0)
(7.33353 -0.0121999 0)
(7.33897 -0.0360489 0)
(7.35033 -0.0580103 0)
(7.36595 -0.0774547 0)
(7.38437 -0.0942052 0)
(7.40473 -0.108225 0)
(7.42625 -0.119595 0)
(7.44821 -0.128518 0)
(7.47009 -0.135262 0)
(7.49152 -0.140117 0)
(7.51223 -0.143376 0)
(7.53203 -0.145318 0)
(7.5508 -0.146203 0)
(7.56847 -0.146261 0)
(7.58503 -0.145695 0)
(7.60048 -0.144684 0)
(7.61486 -0.143376 0)
(7.62822 -0.141902 0)
(7.6406 -0.140369 0)
(7.65207 -0.138867 0)
(7.66269 -0.137471 0)
(7.67253 -0.136246 0)
(7.68166 -0.135242 0)
(7.69012 -0.134505 0)
(7.69798 -0.13407 0)
(7.70529 -0.133969 0)
(7.71209 -0.134227 0)
(7.71844 -0.134866 0)
(7.72436 -0.135904 0)
(7.72988 -0.137356 0)
(7.73504 -0.139232 0)
(7.73986 -0.141545 0)
(7.74434 -0.144283 0)
(7.33356 -0.0146466 0)
(7.3396 -0.0429292 0)
(7.35228 -0.068228 0)
(7.36962 -0.0898213 0)
(7.39 -0.107772 0)
(7.41249 -0.122306 0)
(7.4362 -0.133719 0)
(7.46031 -0.142379 0)
(7.48423 -0.148659 0)
(7.50752 -0.152916 0)
(7.52987 -0.155484 0)
(7.5511 -0.156672 0)
(7.57107 -0.156757 0)
(7.58974 -0.155989 0)
(7.6071 -0.154583 0)
(7.62318 -0.15273 0)
(7.63802 -0.150591 0)
(7.6517 -0.148305 0)
(7.66428 -0.145987 0)
(7.67584 -0.143734 0)
(7.68646 -0.141627 0)
(7.69621 -0.139733 0)
(7.70516 -0.138105 0)
(7.71339 -0.136788 0)
(7.72096 -0.135818 0)
(7.72791 -0.135225 0)
(7.73431 -0.135033 0)
(7.7402 -0.13526 0)
(7.74562 -0.13592 0)
(7.75061 -0.137026 0)
(7.7552 -0.138581 0)
(7.75942 -0.140595 0)
(7.76331 -0.14305 0)
(7.33382 -0.0178537 0)
(7.34184 -0.0528062 0)
(7.3579 -0.0844817 0)
(7.379 -0.111767 0)
(7.40293 -0.134426 0)
(7.42862 -0.152481 0)
(7.4551 -0.166237 0)
(7.48158 -0.176214 0)
(7.5075 -0.182986 0)
(7.5325 -0.187105 0)
(7.55629 -0.189083 0)
(7.57872 -0.189378 0)
(7.59969 -0.188385 0)
(7.61917 -0.186439 0)
(7.63717 -0.183819 0)
(7.65373 -0.180758 0)
(7.66892 -0.177445 0)
(7.68281 -0.174034 0)
(7.69548 -0.17065 0)
(7.70703 -0.167393 0)
(7.71754 -0.164343 0)
(7.72709 -0.161563 0)
(7.73577 -0.159104 0)
(7.74365 -0.157005 0)
(7.75079 -0.155296 0)
(7.75726 -0.154002 0)
(7.76313 -0.153141 0)
(7.76842 -0.152727 0)
(7.7732 -0.152768 0)
(7.7775 -0.153272 0)
(7.78135 -0.154237 0)
(7.78478 -0.155666 0)
(7.78782 -0.157534 0)
(7.33371 -0.0213245 0)
(7.34217 -0.0612846 0)
(7.36018 -0.0951183 0)
(7.38429 -0.122783 0)
(7.41199 -0.145186 0)
(7.44189 -0.162831 0)
(7.47262 -0.176183 0)
(7.50308 -0.185794 0)
(7.53256 -0.192193 0)
(7.56062 -0.195875 0)
(7.58697 -0.197316 0)
(7.61146 -0.196959 0)
(7.63405 -0.1952 0)
(7.65475 -0.192392 0)
(7.67362 -0.188838 0)
(7.69077 -0.184797 0)
(7.70629 -0.180485 0)
(7.7203 -0.176081 0)
(7.73293 -0.171727 0)
(7.74428 -0.167538 0)
(7.75448 -0.163605 0)
(7.76362 -0.159997 0)
(7.77181 -0.156768 0)
(7.77912 -0.153958 0)
(7.78563 -0.151595 0)
(7.79142 -0.149702 0)
(7.79655 -0.148293 0)
(7.80107 -0.147377 0)
(7.80504 -0.146961 0)
(7.8085 -0.147046 0)
(7.81149 -0.147629 0)
(7.81406 -0.148709 0)
(7.81625 -0.150248 0)
(7.33483 -0.0277284 0)
(7.3496 -0.0821048 0)
(7.37541 -0.129239 0)
(7.40597 -0.167262 0)
(7.4385 -0.19651 0)
(7.47222 -0.217768 0)
(7.50603 -0.232277 0)
(7.53899 -0.24136 0)
(7.57051 -0.246155 0)
(7.60023 -0.247619 0)
(7.62789 -0.246554 0)
(7.65337 -0.243615 0)
(7.67667 -0.239325 0)
(7.69782 -0.234106 0)
(7.71693 -0.228293 0)
(7.73413 -0.222155 0)
(7.74956 -0.215903 0)
(7.76336 -0.209703 0)
(7.77569 -0.203685 0)
(7.78669 -0.19795 0)
(7.79649 -0.192572 0)
(7.8052 -0.187609 0)
(7.81294 -0.183102 0)
(7.8198 -0.179079 0)
(7.82587 -0.17556 0)
(7.83122 -0.172559 0)
(7.83592 -0.170084 0)
(7.84002 -0.168139 0)
(7.84358 -0.166728 0)
(7.84665 -0.165851 0)
(7.84927 -0.165504 0)
(7.85148 -0.165686 0)
(7.85332 -0.166355 0)
(7.3338 -0.0315506 0)
(7.34774 -0.0857339 0)
(7.37801 -0.128272 0)
(7.4162 -0.163269 0)
(7.45741 -0.191987 0)
(7.49939 -0.214098 0)
(7.54023 -0.230039 0)
(7.57893 -0.240572 0)
(7.6152 -0.246437 0)
(7.64896 -0.248429 0)
(7.68025 -0.247347 0)
(7.70919 -0.243926 0)
(7.73592 -0.238805 0)
(7.7606 -0.232524 0)
(7.78338 -0.225525 0)
(7.80437 -0.218161 0)
(7.82373 -0.210707 0)
(7.84155 -0.203372 0)
(7.85795 -0.196312 0)
(7.87305 -0.189642 0)
(7.88694 -0.183442 0)
(7.89972 -0.177765 0)
(7.91147 -0.172646 0)
(7.92228 -0.168105 0)
(7.93222 -0.16415 0)
(7.94135 -0.160782 0)
(7.94974 -0.158002 0)
(7.95743 -0.155804 0)
(7.96449 -0.154188 0)
(7.97096 -0.153154 0)
(7.9769 -0.152709 0)
(7.98238 -0.152858 0)
(7.98748 -0.153572 0)
(7.33893 -0.0541204 0)
(7.37196 -0.150782 0)
(7.41477 -0.219471 0)
(7.4584 -0.265853 0)
(7.50497 -0.296101 0)
(7.55532 -0.314175 0)
(7.60794 -0.323773 0)
(7.66168 -0.327585 0)
(7.71565 -0.327315 0)
(7.76882 -0.324128 0)
(7.82031 -0.318844 0)
(7.86944 -0.312049 0)
(7.91576 -0.304183 0)
(7.95898 -0.295594 0)
(7.99895 -0.286566 0)
(8.03565 -0.277334 0)
(8.06915 -0.268096 0)
(8.09959 -0.259018 0)
(8.12714 -0.250232 0)
(8.15201 -0.241844 0)
(8.1744 -0.233936 0)
(8.19452 -0.226565 0)
(8.21258 -0.219771 0)
(8.22875 -0.213581 0)
(8.24321 -0.208007 0)
(8.25612 -0.203055 0)
(8.2676 -0.198725 0)
(8.27776 -0.195017 0)
(8.28672 -0.191939 0)
(8.29455 -0.189499 0)
(8.30135 -0.187751 0)
(8.30718 -0.1867 0)
(8.31222 -0.18651 0)
(7.33756 -0.0402008 0)
(7.38851 -0.105119 0)
(7.4777 -0.162402 0)
(7.57921 -0.217634 0)
(7.68694 -0.264556 0)
(7.79576 -0.300832 0)
(7.89969 -0.327121 0)
(7.99527 -0.344132 0)
(8.08055 -0.352961 0)
(8.15449 -0.355084 0)
(8.2169 -0.351973 0)
(8.26819 -0.344952 0)
(8.30916 -0.335162 0)
(8.34077 -0.323545 0)
(8.36413 -0.310854 0)
(8.38032 -0.297675 0)
(8.39037 -0.284452 0)
(8.39522 -0.271513 0)
(8.39573 -0.259093 0)
(8.39261 -0.247351 0)
(8.38651 -0.236389 0)
(8.37796 -0.226263 0)
(8.36741 -0.216996 0)
(8.35521 -0.208587 0)
(8.34168 -0.201014 0)
(8.32705 -0.194244 0)
(8.31151 -0.188238 0)
(8.29518 -0.182953 0)
(8.27817 -0.17836 0)
(8.26048 -0.174439 0)
(8.24223 -0.171282 0)
(8.22314 -0.168849 0)
(8.20383 -0.168072 0)
(7.39943 -0.196625 0)
(7.59546 -0.375661 0)
(7.76807 -0.458294 0)
(7.89515 -0.511866 0)
(7.97873 -0.540237 0)
(8.01694 -0.549262 0)
(8.01404 -0.545583 0)
(7.97841 -0.532567 0)
(7.91772 -0.512723 0)
(7.83854 -0.488323 0)
(7.74665 -0.461163 0)
(7.64675 -0.432638 0)
(7.54255 -0.403829 0)
(7.43686 -0.375543 0)
(7.33174 -0.348351 0)
(7.22868 -0.322635 0)
(7.12868 -0.298624 0)
(7.03237 -0.276434 0)
(6.94013 -0.256096 0)
(6.85211 -0.237582 0)
(6.76833 -0.220822 0)
(6.68871 -0.205722 0)
(6.61309 -0.19217 0)
(6.54127 -0.180045 0)
(6.47301 -0.169221 0)
(6.40808 -0.159571 0)
(6.34624 -0.150961 0)
(6.28719 -0.143263 0)
(6.23068 -0.136321 0)
(6.1763 -0.129996 0)
(6.12372 -0.124192 0)
(6.0719 -0.118141 0)
(6.02126 -0.115116 0)
(7.16016 -0.185806 0)
(6.9112 -0.34499 0)
(6.50048 -0.392238 0)
(6.03739 -0.393673 0)
(5.598 -0.365558 0)
(5.18253 -0.321711 0)
(4.79505 -0.273044 0)
(4.4423 -0.225171 0)
(4.12482 -0.181071 0)
(3.84092 -0.142217 0)
(3.58855 -0.109004 0)
(3.36513 -0.0812383 0)
(3.16782 -0.0584358 0)
(2.99379 -0.0399752 0)
(2.84037 -0.0252056 0)
(2.70507 -0.0135125 0)
(2.5856 -0.00434821 0)
(2.47994 0.00275848 0)
(2.38628 0.00820255 0)
(2.30303 0.0123097 0)
(2.22877 0.0153455 0)
(2.1623 0.0175254 0)
(2.10255 0.019024 0)
(2.04859 0.0199837 0)
(1.99965 0.020526 0)
(1.95504 0.020756 0)
(1.91417 0.0207899 0)
(1.87664 0.0207457 0)
(1.84194 0.0208377 0)
(1.8102 0.0213667 0)
(1.78056 0.0226336 0)
(1.7549 0.0271848 0)
(1.73141 0.0221523 0)
(1.29114 -0.00760665 0)
(1.48758 -0.0320727 0)
(1.54966 -0.103458 0)
(1.47957 -0.204051 0)
(1.29528 -0.265322 0)
(1.05561 -0.2515 0)
(0.903647 -0.0875608 0)
(1.22032 0.330501 0)