/*--------------------------------*- C++ -*----------------------------------*\
  =========                 |
  \\      /  F ield         | OpenFOAM: The Open Source CFD Toolbox
   \\    /   O peration     | Website:  https://openfoam.org
    \\  /    A nd           | Version:  10
     \\/     M anipulation  |
\*---------------------------------------------------------------------------*/
FoamFile
{
    format      ascii;
    class       volScalarField;
    location    "0.045";
    object      nut;
}
// * * * * * * * * * * * * * * * * * * * * * * * * * * * * * * * * * * * * * //

dimensions      [0 2 -1 0 0 0 0];

internalField   nonuniform List<scalar> 
6820
(
0
0
0
0
0
0
0
0
0
0
0
0
0
0
0
0
0
0
0
0
0
0
0
0
0
0
0
0
0
0
0
0
0
0
0
0
0
0
0
0
0
0
0
0
0
0
0
0
0
0
0
0
0
0
0
0
0
0
0
0
0
0
0
0
0
0
0
0
0
0
0
0
0
0
0
0
0
0
0
0
0
0
0
0
0
0
0
0
0
0
0
0
0
0
0
0
0
0
0
0
0
0
0
0
0
0
0
0
0
0
0
0
0
0
0
0
0
0
0
0
0
0
0
0
0
0
0
0
0
0
0
0
1.61527e-05
0
0
0
0
0
0
0
0
0
0
0
0
0
0
0
0
0
0
0
0
0
0
1.09734e-08
1.51953e-07
2.81718e-07
4.04612e-07
5.18426e-07
6.0243e-07
5.67704e-07
9.96081e-08
0
0
6.29094e-06
4.76746e-05
3.64663e-05
1.85264e-05
6.63915e-06
5.58183e-07
0
0
0
0
0
0
0
0
0
0
0
0
0
0
0
0
9.60711e-10
9.53469e-09
1.94273e-08
3.04827e-08
4.21688e-08
5.29601e-08
6.02902e-08
5.65137e-08
3.62872e-08
0
0
0
1.33975e-05
2.70619e-05
3.44332e-05
3.2555e-05
2.90374e-05
2.60506e-05
2.32396e-05
2.05851e-05
1.81891e-05
1.60238e-05
1.40112e-05
1.20438e-05
9.96443e-06
7.59507e-06
4.87111e-06
2.06357e-06
0
0
0
0
0
0
0
0
1.88654e-07
5.28602e-07
6.90671e-07
6.92807e-07
5.83368e-07
3.64211e-07
2.77639e-08
0
0
7.90938e-06
1.49818e-05
2.60335e-05
2.91751e-05
2.79849e-05
2.62492e-05
2.444e-05
2.26831e-05
2.11019e-05
1.96805e-05
1.83637e-05
1.70799e-05
1.56636e-05
1.36726e-05
9.78657e-06
0
0
0
0
0
0
0
0
3.76931e-07
6.064e-07
6.27186e-07
5.41857e-07
4.05036e-07
2.63135e-07
1.22987e-07
4.19038e-08
0
0
6.14817e-06
8.69127e-06
1.64849e-05
2.19745e-05
2.46424e-05
2.60634e-05
2.63385e-05
2.59396e-05
2.5409e-05
2.49893e-05
2.47983e-05
2.49686e-05
2.56775e-05
2.71631e-05
2.9449e-05
2.74459e-05
0
0
0
0
0
0
0
3.4384e-07
4.728e-07
4.66002e-07
3.89111e-07
2.80032e-07
1.71183e-07
6.96151e-08
3.03019e-09
0
0
4.82314e-06
5.831e-06
1.09089e-05
1.54378e-05
1.85446e-05
2.14406e-05
2.35074e-05
2.46641e-05
2.54363e-05
2.62379e-05
2.73742e-05
2.92162e-05
3.23362e-05
3.76518e-05
4.52147e-05
3.87075e-05
5.46313e-06
0
0
0
0
0
2.79916e-08
2.01792e-07
2.512e-07
2.2776e-07
1.67329e-07
9.3203e-08
2.63595e-08
0
0
0
0
3.76622e-06
4.14633e-06
7.64083e-06
1.09789e-05
1.31949e-05
1.59398e-05
1.8931e-05
2.15729e-05
2.38496e-05
2.58959e-05
2.78665e-05
2.99115e-05
3.19304e-05
3.27873e-05
2.87587e-05
1.68613e-05
5.41473e-06
4.70685e-07
0
0
0
1.77733e-08
1.63434e-07
2.1158e-07
1.93253e-07
1.3648e-07
6.39008e-08
0
0
0
0
0
0
2.9161e-06
2.88155e-06
5.27524e-06
7.87548e-06
9.35652e-06
1.10931e-05
1.32856e-05
1.55765e-05
1.78623e-05
2.00489e-05
2.19572e-05
2.33023e-05
2.34749e-05
2.13713e-05
1.61837e-05
9.39583e-06
4.02098e-06
1.13358e-06
0
0
0
0
0
0
0
0
0
0
0
0
0
0
0
2.2603e-06
1.94919e-06
3.48478e-06
5.46969e-06
6.50453e-06
7.56132e-06
8.95342e-06
1.0485e-05
1.20908e-05
1.36441e-05
1.48467e-05
1.52924e-05
1.45257e-05
1.22562e-05
8.79822e-06
5.17776e-06
2.41127e-06
7.83605e-07
2.0859e-08
0
0
0
0
0
0
0
0
0
0
0
0
0
0
1.75929e-06
1.24836e-06
2.07507e-06
3.4382e-06
4.05186e-06
4.56344e-06
5.24642e-06
5.95303e-06
6.64137e-06
7.25636e-06
7.61836e-06
7.49075e-06
6.68013e-06
5.17453e-06
3.25591e-06
1.39665e-06
0
0
0
0
0
0
0
0
0
0
0
0
0
0
0
0
0
1.3794e-06
7.22389e-07
9.95755e-07
1.79804e-06
2.02931e-06
2.14579e-06
2.38295e-06
2.61651e-06
2.79328e-06
2.88277e-06
2.79552e-06
2.43742e-06
1.77457e-06
8.73983e-07
0
0
0
0
0
0
0
0
0
0
0
0
0
0
0
0
0
0
0
1.08892e-06
3.16011e-07
1.54063e-07
4.57251e-07
3.16609e-07
7.53938e-08
0
0
0
0
0
0
0
0
0
0
0
0
0
0
0
0
0
0
0
0
0
0
0
0
0
0
0
8.6447e-07
0
0
0
0
0
0
0
0
0
0
0
0
0
0
0
0
0
0
0
0
0
0
0
0
0
0
0
0
0
0
0
0
6.88253e-07
0
0
0
0
0
0
0
0
0
0
0
0
0
0
0
0
0
0
0
0
0
0
0
0
0
0
0
0
1.1708e-07
0
0
0
5.46968e-07
0
0
0
0
0
0
0
0
0
0
0
0
0
0
0
0
0
0
0
0
0
0
0
0
0
0
0
4.32364e-07
8.20556e-07
6.05029e-07
0
0
4.29767e-07
0
0
0
0
0
0
0
0
0
0
0
0
0
0
0
0
0
0
0
0
0
0
0
0
0
4.63956e-08
5.55602e-07
1.06146e-06
1.49005e-06
1.26863e-06
0
0
3.28041e-07
0
0
0
0
0
0
0
0
0
0
0
0
0
0
0
0
0
0
0
0
0
0
0
0
2.5587e-07
8.02387e-07
1.33695e-06
1.86154e-06
2.3002e-06
2.0596e-06
2.02431e-08
0
2.35043e-07
0
0
0
0
0
0
0
0
0
0
0
0
0
0
0
0
0
0
0
0
0
0
0
4.93792e-07
1.07334e-06
1.63751e-06
2.18281e-06
2.7105e-06
3.14383e-06
2.88293e-06
8.03417e-07
0
1.43208e-07
0
0
0
0
0
0
0
0
0
0
0
0
0
0
0
0
0
0
0
0
0
0
6.16734e-07
1.23002e-06
1.82213e-06
2.39094e-06
2.93281e-06
3.44844e-06
3.86224e-06
3.58034e-06
1.50393e-06
0
4.82582e-08
0
0
0
0
0
0
0
0
0
0
0
0
0
0
0
0
0
0
0
0
4.48632e-07
1.09324e-06
1.71434e-06
2.309e-06
2.87407e-06
3.40728e-06
3.90493e-06
4.36718e-06
4.72109e-06
4.39573e-06
2.3334e-06
0
0
0
0
0
0
0
0
0
0
0
0
0
0
0
0
0
0
0
0
0
3.73186e-07
1.05032e-06
1.70082e-06
2.32042e-06
2.90533e-06
3.45184e-06
3.95724e-06
4.41802e-06
4.83447e-06
5.13812e-06
4.7868e-06
2.80083e-06
0
0
0
0
0
0
0
0
0
0
0
0
0
0
0
0
0
0
0
5.60508e-07
1.25345e-06
1.91511e-06
2.54173e-06
3.12971e-06
3.67575e-06
4.17689e-06
4.63026e-06
5.03383e-06
5.38492e-06
5.68395e-06
5.86845e-06
5.44501e-06
3.51314e-06
0
0
0
0
0
0
0
0
0
0
0
0
0
0
0
0
0
0
2.514e-07
9.70771e-07
1.65755e-06
2.30655e-06
2.91317e-06
3.47302e-06
3.98217e-06
4.43741e-06
4.83608e-06
5.17673e-06
5.45791e-06
5.6813e-06
5.79238e-06
5.34419e-06
3.55791e-06
0
0
0
0
0
0
0
0
0
0
0
0
0
0
0
4.67623e-07
1.2273e-06
1.94466e-06
2.61593e-06
3.23828e-06
3.809e-06
4.3258e-06
4.78656e-06
5.1893e-06
5.53236e-06
5.81468e-06
6.03564e-06
6.19557e-06
6.29481e-06
6.33613e-06
6.27414e-06
5.73135e-06
4.02892e-06
0
0
0
0
0
0
0
0
0
0
0
0
0
0
4.76885e-08
8.29297e-07
1.56474e-06
2.24903e-06
2.87881e-06
3.45145e-06
3.96442e-06
4.41548e-06
4.80271e-06
5.12462e-06
5.38051e-06
5.57069e-06
5.69654e-06
5.76081e-06
5.76702e-06
5.72132e-06
5.58924e-06
5.05008e-06
3.5672e-06
0
0
0
0
0
0
0
0
0
0
8.80499e-07
1.80226e-06
2.65139e-06
3.42257e-06
4.11415e-06
4.72633e-06
5.26003e-06
5.71707e-06
6.1e-06
6.41134e-06
6.65327e-06
6.82762e-06
6.93606e-06
6.98031e-06
6.96284e-06
6.88743e-06
6.75892e-06
6.58319e-06
6.36729e-06
6.12017e-06
5.82097e-06
5.21954e-06
3.84636e-06
0
0
0
0
0
0
0
0
0
9.66999e-07
1.92829e-06
2.78769e-06
3.5465e-06
4.20886e-06
4.7795e-06
5.26265e-06
5.66161e-06
5.98012e-06
6.2223e-06
6.39221e-06
6.49416e-06
6.53186e-06
6.5089e-06
6.42835e-06
6.29462e-06
6.11563e-06
5.9008e-06
5.66109e-06
5.40787e-06
5.15653e-06
4.90524e-06
4.43321e-06
3.33222e-06
0
7.52767e-07
0
7.2539e-07
2.47787e-06
4.04543e-06
5.3684e-06
6.44548e-06
7.30511e-06
7.9914e-06
8.53584e-06
8.96014e-06
9.28257e-06
9.51418e-06
9.6627e-06
9.73227e-06
9.7258e-06
9.64992e-06
9.51417e-06
9.32796e-06
9.10164e-06
8.84224e-06
8.55347e-06
8.23521e-06
7.88554e-06
7.51049e-06
7.12469e-06
6.73794e-06
6.34355e-06
5.94729e-06
5.56622e-06
5.03743e-06
3.96325e-06
0
0
3.13563e-07
3.05283e-06
5.36688e-06
6.96333e-06
7.92189e-06
8.54739e-06
9.00758e-06
9.33869e-06
9.55997e-06
9.69476e-06
9.75853e-06
9.75523e-06
9.70176e-06
9.61796e-06
9.51359e-06
9.39176e-06
9.2464e-06
9.06291e-06
8.83586e-06
8.56029e-06
8.23536e-06
7.86138e-06
7.42556e-06
6.94799e-06
6.48301e-06
6.04566e-06
5.59399e-06
5.10642e-06
4.59499e-06
3.93961e-06
2.89671e-06
2.43129e-05
1.6297e-05
1.24717e-05
1.20133e-05
1.24703e-05
1.28352e-05
1.28267e-05
1.26507e-05
1.24702e-05
1.22821e-05
1.20606e-05
1.18056e-05
1.15241e-05
1.1223e-05
1.09227e-05
1.06498e-05
1.04221e-05
1.02379e-05
1.00747e-05
9.89799e-06
9.68099e-06
9.40538e-06
9.06942e-06
8.66023e-06
8.12812e-06
7.49175e-06
6.83663e-06
6.19553e-06
5.556e-06
4.91543e-06
4.26542e-06
3.54083e-06
2.57399e-06
2.1448e-05
2.66551e-05
1.89297e-05
1.45774e-05
1.28304e-05
1.20933e-05
1.16148e-05
1.1215e-05
1.0888e-05
1.0626e-05
1.04067e-05
1.02075e-05
1.0021e-05
9.85485e-06
9.70786e-06
9.57289e-06
9.45336e-06
9.35322e-06
9.27633e-06
9.2161e-06
9.13839e-06
9.01086e-06
8.82808e-06
8.56575e-06
8.14417e-06
7.52075e-06
6.72193e-06
5.77434e-06
4.73662e-06
3.69051e-06
2.68317e-06
1.69444e-06
6.97885e-07
6.91718e-05
5.98395e-05
3.63474e-05
2.43302e-05
1.67799e-05
1.10656e-05
6.64146e-06
3.17491e-06
4.96701e-07
0
0
0
0
0
0
0
0
0
0
0
0
0
0
0
0
0
0
0
0
0
1.12579e-07
3.31128e-07
5.37778e-07
0
0
0
0
0
0
0
0
0
0
0
0
0
0
0
0
0
0
0
0
0
0
0
0
0
0
0
0
0
0
0
0
0
3.9826e-08
0
0
0
0
0
0
0
0
0
0
0
0
0
0
0
0
0
0
0
0
0
0
0
0
0
0
0
0
0
0
0
0
2.1236e-08
0
0
0
0
0
0
0
0
0
0
0
0
0
0
0
0
0
0
0
0
0
0
0
0
0
0
0
0
0
0
0
0
9.70568e-09
0
0
0
0
0
0
0
0
0
0
0
0
0
0
0
0
0
0
0
0
0
0
0
0
0
0
0
0
0
0
0
0
5.23595e-07
1.22203e-06
1.3394e-06
6.98572e-07
0
0
0
0
0
0
0
0
0
0
0
0
1.13276e-05
2.47341e-05
3.35717e-05
1.34171e-05
0
2.2923e-06
7.71128e-07
0
0
4.31445e-06
1.00862e-05
9.51095e-06
1.28003e-05
1.55268e-05
1.62137e-05
1.53412e-05
1.3698e-05
1.17033e-05
9.67876e-06
7.88671e-06
6.42679e-06
5.2315e-06
4.15474e-06
3.06811e-06
1.90482e-06
6.53871e-07
0
0
0
0
0
0
0
0
0
0
0
0
0
0
0
0
0
0
0
0
0
0
0
0
0
0
0
0
0
0
0
0
0
0
0
0
0
0
0
0
0
0
0
0
0
0
0
0
0
0
0
0
0
0
0
0
3.01361e-08
1.51429e-07
0
0
3.97925e-08
5.03738e-07
4.70198e-07
1.83448e-07
0
0
0
0
0
0
0
0
0
0
0
3.60409e-06
4.44193e-06
4.50868e-07
4.14333e-06
5.97978e-06
0
0
0
9.74775e-06
9.14711e-06
1.1396e-05
1.54923e-05
1.78034e-05
1.80031e-05
1.68613e-05
1.49719e-05
1.27616e-05
1.06307e-05
8.83931e-06
7.43427e-06
6.29506e-06
5.24818e-06
4.1626e-06
2.9796e-06
1.69738e-06
3.43205e-07
0
0
0
0
0
0
0
0
0
0
0
0
0
0
0
0
0
0
0
0
0
0
0
0
0
0
0
0
0
0
0
0
0
0
0
0
0
0
0
0
0
0
0
0
0
0
0
0
0
0
0
0
0
0
0
0
0
0
0
0
6.82848e-08
1.35424e-06
2.51046e-06
2.49244e-06
5.17337e-07
0
0
0
0
0
0
0
0
0
0
0
1.96436e-06
4.89463e-06
0
0
0
6.74377e-06
9.12966e-06
9.20032e-06
1.36663e-05
1.74096e-05
1.89788e-05
1.87474e-05
1.73638e-05
1.53074e-05
1.30546e-05
1.10084e-05
9.37452e-06
8.13603e-06
7.13054e-06
6.17448e-06
5.14676e-06
4.00246e-06
2.74905e-06
1.41971e-06
5.23953e-08
0
0
0
0
0
0
0
0
0
0
0
0
0
0
0
0
0
0
0
0
0
0
0
0
0
0
0
0
0
0
0
0
0
0
0
0
0
0
0
0
0
0
0
0
0
0
0
0
0
0
0
0
0
0
0
0
0
0
0
4.04846e-07
2.04214e-06
3.09941e-06
2.26828e-06
0
0
0
0
0
0
0
0
0
0
0
0
0
0
0
0
4.03493e-06
8.86054e-06
7.38659e-06
1.12109e-05
1.58169e-05
1.86682e-05
1.95564e-05
1.89658e-05
1.73575e-05
1.52202e-05
1.30454e-05
1.11891e-05
9.78615e-06
8.75742e-06
7.90971e-06
7.06124e-06
6.10757e-06
5.01968e-06
3.81476e-06
2.52986e-06
1.20605e-06
0
0
0
0
0
0
0
0
0
0
0
0
0
0
0
0
0
0
0
0
0
0
0
0
0
0
0
0
0
0
0
0
0
0
0
0
0
0
0
0
0
0
0
0
0
0
0
0
0
0
0
0
0
0
0
0
0
0
0
3.08318e-06
4.12469e-06
2.633e-06
7.68318e-07
0
0
0
0
0
0
0
0
0
0
0
0
0
0
0
4.7295e-06
7.92984e-06
5.91951e-06
8.79657e-06
1.37026e-05
1.74926e-05
1.94824e-05
1.98331e-05
1.8892e-05
1.70985e-05
1.49673e-05
1.2956e-05
1.13517e-05
1.02145e-05
9.40745e-06
8.71694e-06
7.97255e-06
7.09067e-06
6.05876e-06
4.90364e-06
3.66621e-06
2.3881e-06
1.10487e-06
0
0
0
0
0
0
0
0
0
0
0
0
0
0
0
0
0
0
0
0
0
0
0
0
0
0
0
0
0
0
0
0
0
0
0
0
0
0
0
0
0
0
0
0
0
0
0
0
0
0
0
0
0
0
0
0
0
1.36879e-07
1.52232e-07
2.64484e-07
4.15572e-07
3.03522e-08
0
0
0
0
0
0
0
0
0
0
0
0
0
0
5.4404e-06
6.06092e-06
4.25238e-06
6.72534e-06
1.14955e-05
1.57587e-05
1.86358e-05
1.99313e-05
1.97864e-05
1.85328e-05
1.66452e-05
1.46166e-05
1.28444e-05
1.15416e-05
1.06914e-05
1.01049e-05
9.56133e-06
8.91084e-06
8.09369e-06
7.11377e-06
6.00658e-06
4.81668e-06
3.58591e-06
2.34921e-06
1.13212e-06
0
0
0
0
0
0
0
0
0
0
0
0
0
0
0
0
0
0
0
0
0
0
0
0
0
0
0
0
0
0
0
0
0
0
0
0
0
0
0
0
0
0
0
0
0
0
0
0
0
0
0
0
0
0
0
4.48478e-07
1.60052e-06
1.76655e-06
1.34687e-06
9.23054e-07
4.48954e-07
0
0
0
0
0
0
0
0
0
0
0
0
0
2.76679e-06
3.07197e-06
2.3671e-06
5.19941e-06
9.50142e-06
1.37682e-05
1.7196e-05
1.93e-05
1.99683e-05
1.93801e-05
1.79193e-05
1.60501e-05
1.42159e-05
1.2751e-05
1.17894e-05
1.12334e-05
1.08542e-05
1.04399e-05
9.86933e-06
9.10818e-06
8.17574e-06
7.11475e-06
5.97227e-06
4.79038e-06
3.60288e-06
2.43446e-06
1.30085e-06
2.12897e-07
0
0
0
0
0
0
0
0
0
0
0
0
0
0
0
0
0
0
0
0
0
0
0
0
0
0
0
0
0
0
0
0
0
0
0
0
0
0
0
0
0
0
0
0
0
0
0
0
0
0
0
0
7.36664e-08
1.68071e-06
2.98409e-06
2.38151e-06
1.73025e-06
1.04225e-06
2.33071e-07
0
0
0
0
0
0
0
0
0
0
0
0
3.6299e-07
4.93872e-07
1.61305e-06
4.30698e-06
7.84827e-06
1.1769e-05
1.53896e-05
1.80613e-05
1.94479e-05
1.95588e-05
1.86532e-05
1.71156e-05
1.53709e-05
1.38161e-05
1.27204e-05
1.2124e-05
1.1851e-05
1.16532e-05
1.13443e-05
1.08375e-05
1.01233e-05
9.23417e-06
8.21831e-06
7.12381e-06
5.99228e-06
4.85667e-06
3.74051e-06
2.65834e-06
1.6209e-06
6.48474e-07
0
0
0
0
0
0
0
0
0
0
0
0
0
0
0
0
0
0
0
0
0
0
0
0
0
0
0
0
0
0
0
0
0
0
0
0
0
0
0
0
0
0
0
0
0
0
0
0
0
0
0
5.14578e-08
1.0729e-06
2.39234e-06
2.06362e-06
1.37818e-06
6.00243e-07
0
0
0
0
0
0
0
0
0
0
0
0
0
4.00802e-07
1.60141e-06
3.59676e-06
6.42777e-06
9.88444e-06
1.34167e-05
1.63725e-05
1.8299e-05
1.90558e-05
1.87611e-05
1.76866e-05
1.61899e-05
1.46679e-05
1.34759e-05
1.2798e-05
1.25665e-05
1.25443e-05
1.24917e-05
1.22612e-05
1.18019e-05
1.11264e-05
1.02776e-05
9.30678e-06
8.26179e-06
7.18283e-06
6.10164e-06
5.04114e-06
4.01479e-06
3.03129e-06
2.10829e-06
1.29201e-06
6.63748e-07
3.1342e-07
2.80089e-07
4.64297e-07
5.5312e-07
9.00726e-08
0
0
0
0
0
0
0
0
0
0
0
0
0
0
0
0
0
0
0
0
0
0
0
0
0
0
0
0
0
0
0
0
0
0
0
0
0
0
0
0
0
0
0
0
5.26719e-08
6.60273e-07
1.43438e-06
1.32607e-06
7.28753e-07
0
0
0
0
0
0
0
0
0
0
0
0
0
0
8.05521e-07
2.57647e-06
5.02474e-06
8.08147e-06
1.13703e-05
1.43674e-05
1.66274e-05
1.79161e-05
1.82177e-05
1.76787e-05
1.65606e-05
1.52117e-05
1.40135e-05
1.32609e-05
1.30214e-05
1.31225e-05
1.33012e-05
1.33517e-05
1.31728e-05
1.27467e-05
1.21038e-05
1.12941e-05
1.03695e-05
9.37655e-06
8.35319e-06
7.32953e-06
6.32768e-06
5.3608e-06
4.43594e-06
3.56719e-06
2.79673e-06
2.20377e-06
1.8802e-06
1.86968e-06
2.08137e-06
2.22184e-06
1.86073e-06
7.11481e-07
0
0
0
0
0
0
0
0
0
0
0
0
0
0
0
0
0
0
0
0
0
0
0
0
0
0
0
0
0
0
0
0
0
0
0
0
0
0
0
0
0
0
0
0
6.61058e-08
4.84537e-07
4.14555e-07
0
0
0
0
0
0
0
0
0
0
0
0
0
0
0
1.15051e-06
3.44202e-06
6.20578e-06
9.22097e-06
1.21241e-05
1.45469e-05
1.62285e-05
1.70569e-05
1.70634e-05
1.64054e-05
1.53541e-05
1.42661e-05
1.34943e-05
1.32307e-05
1.34069e-05
1.37785e-05
1.40976e-05
1.42098e-05
1.40591e-05
1.36555e-05
1.3042e-05
1.22718e-05
1.13961e-05
1.04586e-05
9.49455e-06
8.53209e-06
7.59229e-06
6.68803e-06
5.82547e-06
5.01563e-06
4.29583e-06
3.74197e-06
3.44672e-06
3.45806e-06
3.69415e-06
3.88005e-06
3.61143e-06
2.6049e-06
9.57431e-07
0
0
0
0
0
0
0
0
0
0
0
0
0
0
0
0
0
0
0
0
0
0
0
0
0
0
0
0
0
0
0
0
0
0
0
0
0
0
0
0
0
0
0
0
0
0
0
0
0
0
0
0
0
0
0
0
0
0
0
0
0
1.55185e-06
4.12483e-06
6.91462e-06
9.68656e-06
1.21648e-05
1.41086e-05
1.53607e-05
1.58695e-05
1.56977e-05
1.50296e-05
1.41644e-05
1.34603e-05
1.31961e-05
1.34187e-05
1.39419e-05
1.45031e-05
1.49018e-05
1.50396e-05
1.48995e-05
1.4512e-05
1.39275e-05
1.31997e-05
1.23767e-05
1.14988e-05
1.05982e-05
9.70097e-06
8.82694e-06
7.98868e-06
7.19168e-06
6.44443e-06
5.77954e-06
5.26871e-06
5.00399e-06
5.03695e-06
5.29433e-06
5.51971e-06
5.33706e-06
4.47278e-06
2.97778e-06
1.24034e-06
0
0
0
0
0
0
0
0
0
0
0
0
0
0
0
0
0
0
0
0
0
0
0
0
0
0
0
0
0
0
0
0
0
0
0
0
0
0
0
0
0
0
0
0
0
0
0
0
0
0
0
0
0
0
0
0
0
0
0
0
1.85629e-06
4.47365e-06
7.11612e-06
9.587e-06
1.16857e-05
1.32486e-05
1.41786e-05
1.44679e-05
1.42195e-05
1.36608e-05
1.31172e-05
1.2907e-05
1.31752e-05
1.3817e-05
1.45863e-05
1.52528e-05
1.56781e-05
1.58143e-05
1.56743e-05
1.53014e-05
1.47487e-05
1.40674e-05
1.33019e-05
1.24883e-05
1.16557e-05
1.08278e-05
1.00234e-05
9.2546e-06
8.52653e-06
7.84538e-06
7.23921e-06
6.77505e-06
6.54341e-06
6.59839e-06
6.87403e-06
7.13156e-06
7.02629e-06
6.30457e-06
4.97807e-06
3.36202e-06
1.89093e-06
8.54688e-07
3.1575e-07
1.3284e-07
0
0
0
0
0
0
0
0
0
0
0
0
0
0
0
0
0
0
0
0
0
0
0
0
0
0
0
0
0
0
0
0
0
0
0
0
0
0
0
0
0
0
0
0
0
0
0
0
0
0
0
0
0
0
0
0
2.04543e-06
4.54231e-06
6.95059e-06
9.11036e-06
1.08712e-05
1.2119e-05
1.2802e-05
1.29599e-05
1.27486e-05
1.24401e-05
1.23507e-05
1.26887e-05
1.34322e-05
1.43757e-05
1.52809e-05
1.5979e-05
1.63914e-05
1.65098e-05
1.63665e-05
1.60109e-05
1.54951e-05
1.4866e-05
1.41631e-05
1.34186e-05
1.26585e-05
1.19041e-05
1.11731e-05
1.04774e-05
9.82154e-06
9.20998e-06
8.66632e-06
8.25247e-06
8.05652e-06
8.13411e-06
8.42545e-06
8.70786e-06
8.66879e-06
8.08445e-06
6.94153e-06
5.47595e-06
4.07839e-06
3.05729e-06
2.5101e-06
2.32048e-06
2.19082e-06
1.75272e-06
7.70178e-07
0
0
0
0
0
0
0
0
0
0
0
0
0
0
0
0
0
0
0
0
0
0
0
0
0
0
0
0
0
0
0
0
0
0
0
0
0
0
0
0
0
0
0
0
0
0
0
0
0
0
0
0
0
2.14919e-06
4.42657e-06
6.55405e-06
8.40019e-06
9.85068e-06
1.08318e-05
1.13396e-05
1.14711e-05
1.14382e-05
1.15275e-05
1.19728e-05
1.2817e-05
1.39067e-05
1.50161e-05
1.59601e-05
1.66354e-05
1.70114e-05
1.71062e-05
1.69625e-05
1.66305e-05
1.61582e-05
1.55872e-05
1.49524e-05
1.42818e-05
1.35984e-05
1.29216e-05
1.22677e-05
1.16483e-05
1.1068e-05
1.05293e-05
1.00519e-05
9.69202e-06
9.5345e-06
9.63555e-06
9.94054e-06
1.02414e-05
1.02571e-05
9.7999e-06
8.84715e-06
7.55913e-06
6.26455e-06
5.27623e-06
4.72644e-06
4.52976e-06
4.40528e-06
3.98037e-06
2.99853e-06
1.46057e-06
0
0
0
0
0
0
0
0
0
0
0
0
0
0
0
0
0
0
0
0
0
0
0
0
0
0
0
0
0
0
0
0
0
0
0
0
0
0
0
0
0
0
0
0
0
0
0
0
0
0
0
1.16564e-07
2.1882e-06
4.19164e-06
6.014e-06
7.54954e-06
8.71798e-06
9.49004e-06
9.91893e-06
1.01628e-05
1.04641e-05
1.1051e-05
1.20041e-05
1.3219e-05
1.44964e-05
1.5651e-05
1.65633e-05
1.71838e-05
1.75149e-05
1.75893e-05
1.74528e-05
1.71524e-05
1.67307e-05
1.6224e-05
1.56622e-05
1.50699e-05
1.44674e-05
1.38718e-05
1.32985e-05
1.27587e-05
1.22568e-05
1.17943e-05
1.13866e-05
1.10844e-05
1.09682e-05
1.10938e-05
1.14109e-05
1.17246e-05
1.17843e-05
1.14421e-05
1.06792e-05
9.58928e-06
8.42695e-06
7.49328e-06
6.9511e-06
6.74999e-06
6.63205e-06
6.22508e-06
5.24842e-06
3.67898e-06
1.69403e-06
0
0
0
0
0
0
0
0
0
0
0
0
0
0
0
0
0
0
0
0
0
0
0
0
0
0
0
0
0
0
1.91106e-09
1.28353e-07
0
0
0
0
0
0
0
0
0
0
0
0
0
0
0
0
0
0
3.66669e-07
2.16865e-06
3.87231e-06
5.38474e-06
6.62883e-06
7.56476e-06
8.21803e-06
8.70408e-06
9.21926e-06
9.96519e-06
1.10333e-05
1.23555e-05
1.3765e-05
1.5089e-05
1.62028e-05
1.70431e-05
1.75975e-05
1.78872e-05
1.79505e-05
1.78312e-05
1.75711e-05
1.7207e-05
1.67699e-05
1.62857e-05
1.57756e-05
1.52574e-05
1.47466e-05
1.4257e-05
1.37997e-05
1.33792e-05
1.29957e-05
1.26611e-05
1.24202e-05
1.23483e-05
1.24998e-05
1.28278e-05
1.31498e-05
1.32439e-05
1.30034e-05
1.24252e-05
1.15484e-05
1.05461e-05
9.6913e-06
9.1704e-06
8.96939e-06
8.85821e-06
8.4717e-06
7.50861e-06
5.91495e-06
3.85953e-06
1.55652e-06
0
0
0
0
0
0
0
0
0
0
0
0
0
0
0
0
0
0
0
0
0
0
0
0
0
2.62999e-07
4.24092e-07
5.9374e-07
6.29468e-07
9.56393e-07
1.14348e-06
0
0
0
0
0
0
0
0
0
0
0
0
0
0
0
0
0
0
5.79143e-07
2.0934e-06
3.49459e-06
4.71526e-06
5.71558e-06
6.50759e-06
7.17693e-06
7.87834e-06
8.7766e-06
9.95341e-06
1.13619e-05
1.28668e-05
1.43157e-05
1.55885e-05
1.66146e-05
1.73693e-05
1.78619e-05
1.81215e-05
1.81859e-05
1.80943e-05
1.78826e-05
1.7582e-05
1.72193e-05
1.68163e-05
1.63918e-05
1.5961e-05
1.55378e-05
1.51349e-05
1.47628e-05
1.44261e-05
1.41244e-05
1.38661e-05
1.36898e-05
1.36652e-05
1.38441e-05
1.41825e-05
1.45093e-05
1.46295e-05
1.44775e-05
1.40746e-05
1.34203e-05
1.26039e-05
1.1854e-05
1.1371e-05
1.11768e-05
1.10729e-05
1.07068e-05
9.76184e-06
8.15389e-06
6.03324e-06
3.62311e-06
1.08642e-06
0
0
0
0
0
0
0
0
0
0
0
0
0
0
0
0
0
0
0
0
8.64024e-08
5.1591e-07
8.51221e-07
1.08287e-06
1.26356e-06
1.3239e-06
1.44954e-06
1.3705e-06
1.82596e-06
2.02876e-06
0
0
0
0
0
0
0
0
0
0
0
0
0
0
0
0
0
0
7.37399e-07
1.96715e-06
3.08838e-06
4.06856e-06
4.91656e-06
5.69985e-06
6.53866e-06
7.55843e-06
8.81975e-06
1.02851e-05
1.18458e-05
1.33734e-05
1.47587e-05
1.59298e-05
1.68537e-05
1.75284e-05
1.79728e-05
1.82171e-05
1.82952e-05
1.82406e-05
1.80839e-05
1.78518e-05
1.75668e-05
1.72481e-05
1.69117e-05
1.65709e-05
1.62379e-05
1.59241e-05
1.56395e-05
1.53889e-05
1.51713e-05
1.49921e-05
1.48838e-05
1.49093e-05
1.51174e-05
1.54658e-05
1.57946e-05
1.59341e-05
1.58578e-05
1.56174e-05
1.51882e-05
1.45799e-05
1.39621e-05
1.35364e-05
1.33582e-05
1.32639e-05
1.29184e-05
1.19948e-05
1.038e-05
8.203e-06
5.68658e-06
3.01247e-06
2.97351e-07
0
0
0
0
0
0
0
0
0
0
0
0
0
0
0
0
0
4.58049e-07
1.01382e-06
1.45147e-06
1.77423e-06
2.00769e-06
2.13818e-06
2.23478e-06
2.19895e-06
2.27943e-06
2.09729e-06
2.65943e-06
2.89747e-06
0
0
0
0
0
0
0
0
0
0
0
0
0
0
0
0
0
0
8.34201e-07
1.80789e-06
2.70615e-06
3.54158e-06
4.3714e-06
5.28818e-06
6.3807e-06
7.6857e-06
9.16861e-06
1.07424e-05
1.23017e-05
1.37519e-05
1.50241e-05
1.60804e-05
1.69095e-05
1.75202e-05
1.79337e-05
1.81772e-05
1.82798e-05
1.82698e-05
1.81732e-05
1.80127e-05
1.78081e-05
1.75757e-05
1.73293e-05
1.70804e-05
1.68395e-05
1.66169e-05
1.64219e-05
1.62592e-05
1.61278e-05
1.603e-05
1.59925e-05
1.60711e-05
1.631e-05
1.66687e-05
1.69978e-05
1.71515e-05
1.71393e-05
1.70462e-05
1.68385e-05
1.64554e-05
1.59966e-05
1.56501e-05
1.54996e-05
1.54183e-05
1.5094e-05
1.41946e-05
1.25786e-05
1.03509e-05
7.73009e-06
4.90918e-06
2.0289e-06
0
0
0
0
0
0
0
0
0
0
0
0
0
0
0
5.71518e-07
1.29122e-06
1.87636e-06
2.32924e-06
2.66361e-06
2.88461e-06
3.02296e-06
3.05997e-06
3.07987e-06
2.95674e-06
3.0005e-06
2.72643e-06
3.40997e-06
3.67296e-06
0
0
0
0
0
0
0
0
0
0
0
0
0
0
0
0
0
7.38478e-08
8.79101e-07
1.65862e-06
2.43248e-06
3.25182e-06
4.1865e-06
5.29458e-06
6.59276e-06
8.04807e-06
9.59086e-06
1.11366e-05
1.26052e-05
1.39341e-05
1.50832e-05
1.60343e-05
1.67869e-05
1.73531e-05
1.7752e-05
1.80069e-05
1.81422e-05
1.81819e-05
1.81485e-05
1.80618e-05
1.79388e-05
1.77939e-05
1.76387e-05
1.7483e-05
1.73358e-05
1.72059e-05
1.7102e-05
1.70289e-05
1.6985e-05
1.69705e-05
1.70061e-05
1.71399e-05
1.74111e-05
1.77802e-05
1.81081e-05
1.82715e-05
1.83124e-05
1.83495e-05
1.83532e-05
1.8206e-05
1.79312e-05
1.76878e-05
1.75794e-05
1.75166e-05
1.72155e-05
1.63444e-05
1.47356e-05
1.24654e-05
9.744e-06
6.77331e-06
3.71347e-06
7.33365e-07
0
0
0
0
0
0
0
0
0
0
0
0
4.76888e-07
1.38619e-06
2.16016e-06
2.78991e-06
3.27799e-06
3.63065e-06
3.86515e-06
3.98767e-06
4.03361e-06
3.97995e-06
3.92443e-06
3.71709e-06
3.72173e-06
3.36169e-06
4.14223e-06
4.44669e-06
0
0
0
0
0
0
0
0
0
0
0
0
0
0
0
0
0
2.64308e-07
9.10078e-07
1.59256e-06
2.35785e-06
3.25711e-06
4.32539e-06
5.56622e-06
6.94939e-06
8.41964e-06
9.90995e-06
1.13543e-05
1.26973e-05
1.38993e-05
1.49373e-05
1.5803e-05
1.64998e-05
1.70387e-05
1.7436e-05
1.7711e-05
1.78843e-05
1.79769e-05
1.80083e-05
1.79962e-05
1.79553e-05
1.78981e-05
1.78345e-05
1.77726e-05
1.77199e-05
1.76839e-05
1.76723e-05
1.76898e-05
1.77347e-05
1.78049e-05
1.79155e-05
1.81068e-05
1.84121e-05
1.87925e-05
1.91191e-05
1.9289e-05
1.9373e-05
1.9522e-05
1.9722e-05
1.9815e-05
1.97465e-05
1.9631e-05
1.95813e-05
1.95438e-05
1.92671e-05
1.84264e-05
1.68307e-05
1.45241e-05
1.17013e-05
8.57085e-06
5.31195e-06
2.12995e-06
0
0
0
0
0
0
0
0
0
0
7.95353e-09
1.0947e-06
2.07202e-06
2.91282e-06
3.60395e-06
4.14203e-06
4.53381e-06
4.78841e-06
4.92618e-06
4.95421e-06
4.91246e-06
4.77355e-06
4.64862e-06
4.36306e-06
4.33705e-06
3.89636e-06
4.80361e-06
5.12267e-06
0
0
0
0
0
0
0
0
0
0
0
0
0
0
0
0
0
4.09544e-07
9.86508e-07
1.66801e-06
2.49047e-06
3.47396e-06
4.61543e-06
5.88906e-06
7.25175e-06
8.65113e-06
1.00338e-05
1.13521e-05
1.25685e-05
1.36573e-05
1.46045e-05
1.54056e-05
1.6064e-05
1.65887e-05
1.6993e-05
1.72932e-05
1.75074e-05
1.76541e-05
1.77507e-05
1.78128e-05
1.78537e-05
1.78838e-05
1.79116e-05
1.79436e-05
1.79857e-05
1.8044e-05
1.81254e-05
1.82338e-05
1.83675e-05
1.85225e-05
1.87085e-05
1.89579e-05
1.92974e-05
1.96879e-05
2.00103e-05
2.01814e-05
2.02971e-05
2.05384e-05
2.09155e-05
2.12467e-05
2.14036e-05
2.1442e-05
2.14707e-05
2.14681e-05
2.12194e-05
2.04142e-05
1.88427e-05
1.65134e-05
1.35975e-05
1.03037e-05
6.83254e-06
3.43144e-06
4.17474e-07
0
0
0
0
0
0
0
0
5.44118e-07
1.70429e-06
2.76558e-06
3.69223e-06
4.46359e-06
5.0718e-06
5.51797e-06
5.81281e-06
5.96862e-06
6.00915e-06
5.94255e-06
5.81282e-06
5.58877e-06
5.3931e-06
5.02978e-06
4.9674e-06
4.44876e-06
5.4511e-06
5.80957e-06
0
0
0
0
0
0
0
0
0
0
0
0
0
0
0
0
1.00031e-07
5.68438e-07
1.14919e-06
1.86788e-06
2.736e-06
3.74858e-06
4.88517e-06
6.11319e-06
7.39272e-06
8.68164e-06
9.94026e-06
1.11346e-05
1.22385e-05
1.32335e-05
1.41093e-05
1.48619e-05
1.54938e-05
1.60119e-05
1.64277e-05
1.67555e-05
1.70114e-05
1.7212e-05
1.73732e-05
1.75088e-05
1.76304e-05
1.77469e-05
1.78654e-05
1.79909e-05
1.81277e-05
1.82806e-05
1.84552e-05
1.86551e-05
1.8878e-05
1.91186e-05
1.93816e-05
1.96913e-05
2.00674e-05
2.04696e-05
2.07876e-05
2.0956e-05
2.10923e-05
2.14061e-05
2.19383e-05
2.24999e-05
2.28963e-05
2.31137e-05
2.32411e-05
2.32822e-05
2.3061e-05
2.22896e-05
2.07455e-05
1.83995e-05
1.53892e-05
1.19143e-05
8.19746e-06
4.54189e-06
1.33953e-06
0
0
0
0
0
0
0
8.73628e-07
2.11123e-06
3.26806e-06
4.29656e-06
5.16744e-06
5.86561e-06
6.38806e-06
6.74038e-06
6.93747e-06
6.9948e-06
6.93932e-06
6.78013e-06
6.56525e-06
6.25944e-06
5.99751e-06
5.5604e-06
5.4709e-06
4.87764e-06
6.02093e-06
6.37782e-06
5.58007e-07
0
0
0
0
0
0
0
0
0
0
0
0
0
0
0
2.85292e-07
7.60033e-07
1.36195e-06
2.09846e-06
2.96549e-06
3.94834e-06
5.02367e-06
6.16226e-06
7.33215e-06
8.50152e-06
9.64108e-06
1.07256e-05
1.17347e-05
1.26533e-05
1.34718e-05
1.41863e-05
1.4798e-05
1.53132e-05
1.57421e-05
1.60979e-05
1.63952e-05
1.66491e-05
1.68739e-05
1.70819e-05
1.7283e-05
1.74848e-05
1.76928e-05
1.79107e-05
1.81412e-05
1.83876e-05
1.86539e-05
1.8943e-05
1.92524e-05
1.95753e-05
1.9912e-05
2.02787e-05
2.06872e-05
2.10956e-05
2.14023e-05
2.156e-05
2.17068e-05
2.20778e-05
2.27461e-05
2.35278e-05
2.41733e-05
2.45931e-05
2.48415e-05
2.49383e-05
2.47481e-05
2.40145e-05
2.25118e-05
2.01725e-05
1.70883e-05
1.34336e-05
9.44894e-06
5.51258e-06
2.11667e-06
0
0
0
0
0
0
1.15372e-06
2.47512e-06
3.74572e-06
4.89926e-06
5.89382e-06
6.70613e-06
7.3271e-06
7.75945e-06
8.01388e-06
8.1098e-06
8.06602e-06
7.91261e-06
7.65962e-06
7.3584e-06
6.97015e-06
6.63974e-06
6.12861e-06
6.00453e-06
5.33817e-06
6.58299e-06
6.97954e-06
1.42574e-06
1.42053e-07
0
0
0
0
0
0
0
0
0
0
0
0
0
1.24861e-07
4.94854e-07
9.76322e-07
1.5751e-06
2.2892e-06
3.10942e-06
4.02044e-06
5.00229e-06
6.03214e-06
7.08591e-06
8.13973e-06
9.17094e-06
1.0159e-05
1.10862e-05
1.19386e-05
1.27071e-05
1.33876e-05
1.39815e-05
1.44947e-05
1.4937e-05
1.53204e-05
1.56585e-05
1.5965e-05
1.62524e-05
1.65315e-05
1.6811e-05
1.7097e-05
1.73935e-05
1.77028e-05
1.80264e-05
1.8366e-05
1.87243e-05
1.91035e-05
1.95007e-05
1.99082e-05
2.0322e-05
2.07507e-05
2.11976e-05
2.16182e-05
2.19191e-05
2.20701e-05
2.22279e-05
2.26491e-05
2.34363e-05
2.44191e-05
2.53075e-05
2.59382e-05
2.63184e-05
2.6472e-05
2.63012e-05
2.55883e-05
2.41167e-05
2.17865e-05
1.86312e-05
1.47751e-05
1.04641e-05
6.17984e-06
2.55836e-06
5.11568e-08
0
0
0
0
1.12912e-06
2.52288e-06
3.91728e-06
5.21859e-06
6.36521e-06
7.32137e-06
8.07083e-06
8.61124e-06
8.95122e-06
9.10628e-06
9.09998e-06
8.95427e-06
8.70237e-06
8.35539e-06
7.96847e-06
7.49907e-06
7.10357e-06
6.52107e-06
6.37404e-06
5.63761e-06
7.0493e-06
7.42601e-06
1.74565e-06
5.60092e-07
1.59165e-07
0
0
0
0
0
0
0
0
0
0
0
2.90466e-08
3.02172e-07
6.68136e-07
1.13262e-06
1.69615e-06
2.35446e-06
3.09897e-06
3.91754e-06
4.79524e-06
5.71515e-06
6.65904e-06
7.60792e-06
8.54277e-06
9.44531e-06
1.02993e-05
1.10919e-05
1.18148e-05
1.24647e-05
1.30434e-05
1.35566e-05
1.40137e-05
1.44257e-05
1.48049e-05
1.51635e-05
1.55125e-05
1.58613e-05
1.62169e-05
1.6584e-05
1.6965e-05
1.7361e-05
1.77719e-05
1.81978e-05
1.86404e-05
1.91008e-05
1.95758e-05
2.0057e-05
2.0537e-05
2.10174e-05
2.14941e-05
2.19219e-05
2.22203e-05
2.23812e-05
2.25777e-05
2.30731e-05
2.39825e-05
2.51463e-05
2.6251e-05
2.70745e-05
2.75767e-05
2.7778e-05
2.76138e-05
2.69096e-05
2.54721e-05
2.31841e-05
2.00176e-05
1.601e-05
1.13711e-05
6.70831e-06
2.86014e-06
3.51575e-07
0
0
0
1.04108e-06
2.48366e-06
4.00573e-06
5.47741e-06
6.8084e-06
7.94308e-06
8.85353e-06
9.5319e-06
9.98346e-06
1.02234e-05
1.02726e-05
1.01593e-05
9.90878e-06
9.55711e-06
9.11615e-06
8.64373e-06
8.09389e-06
7.6321e-06
6.97905e-06
6.80136e-06
5.99633e-06
7.5277e-06
7.95247e-06
2.37377e-06
1.23296e-06
7.88438e-07
5.30081e-07
3.36985e-07
1.86038e-07
7.05644e-08
0
0
0
0
0
0
5.67637e-08
2.35962e-07
4.89393e-07
8.22973e-07
1.23941e-06
1.73825e-06
2.31613e-06
2.96696e-06
3.6822e-06
4.45112e-06
5.26098e-06
6.09732e-06
6.94429e-06
7.78536e-06
8.6044e-06
9.38704e-06
1.0122e-05
1.08022e-05
1.14249e-05
1.19918e-05
1.25081e-05
1.29819e-05
1.34232e-05
1.3843e-05
1.42522e-05
1.46606e-05
1.50761e-05
1.55047e-05
1.59499e-05
1.64133e-05
1.68948e-05
1.73935e-05
1.79085e-05
1.84401e-05
1.89887e-05
1.95508e-05
2.0117e-05
2.06778e-05
2.12291e-05
2.1762e-05
2.22338e-05
2.25795e-05
2.28118e-05
2.3109e-05
2.37187e-05
2.47443e-05
2.60292e-05
2.72537e-05
2.81641e-05
2.86868e-05
2.88367e-05
2.85751e-05
2.77723e-05
2.62772e-05
2.39865e-05
2.08335e-05
1.6743e-05
1.18137e-05
6.77401e-06
2.72174e-06
2.57702e-07
0
0
5.26973e-07
1.96061e-06
3.59781e-06
5.25864e-06
6.81345e-06
8.17622e-06
9.29888e-06
1.01628e-05
1.07692e-05
1.11313e-05
1.12704e-05
1.12123e-05
1.09897e-05
1.0631e-05
1.01758e-05
9.63731e-06
9.07728e-06
8.4462e-06
7.9211e-06
7.19987e-06
7.00739e-06
6.1387e-06
7.87482e-06
8.26262e-06
2.23724e-06
1.25211e-06
8.60995e-07
6.29036e-07
4.54301e-07
3.17284e-07
2.0796e-07
1.19996e-07
5.04535e-08
4.83921e-10
0
0
3.22416e-08
1.31718e-07
2.88873e-07
5.09515e-07
7.97564e-07
1.155e-06
1.58191e-06
2.07649e-06
2.635e-06
3.25173e-06
3.91897e-06
4.62704e-06
5.36445e-06
6.11823e-06
6.87459e-06
7.6199e-06
8.34181e-06
9.03033e-06
9.67869e-06
1.02837e-05
1.08461e-05
1.13697e-05
1.18615e-05
1.23304e-05
1.27863e-05
1.32391e-05
1.36975e-05
1.41687e-05
1.46573e-05
1.5166e-05
1.56956e-05
1.6245e-05
1.68126e-05
1.73968e-05
1.79971e-05
1.8613e-05
1.92409e-05
1.98715e-05
2.04945e-05
2.11045e-05
2.16942e-05
2.22344e-05
2.26879e-05
2.30911e-05
2.36032e-05
2.44071e-05
2.55466e-05
2.68491e-05
2.8007e-05
2.8777e-05
2.9091e-05
2.89756e-05
2.84194e-05
2.73405e-05
2.56531e-05
2.33116e-05
2.02595e-05
1.63341e-05
1.14535e-05
6.38469e-06
2.42643e-06
2.02032e-07
0
1.22311e-07
1.40272e-06
3.0792e-06
4.90352e-06
6.69546e-06
8.32629e-06
9.71297e-06
1.08137e-05
1.16187e-05
1.21396e-05
1.23988e-05
1.24258e-05
1.22527e-05
1.19169e-05
1.14504e-05
1.08949e-05
1.02639e-05
9.62109e-06
8.91347e-06
8.32704e-06
7.54111e-06
7.32726e-06
6.39692e-06
8.28359e-06
8.74025e-06