/*--------------------------------*- C++ -*----------------------------------*\
  =========                 |
  \\      /  F ield         | OpenFOAM: The Open Source CFD Toolbox
   \\    /   O peration     | Website:  https://openfoam.org
    \\  /    A nd           | Version:  10
     \\/     M anipulation  |
\*---------------------------------------------------------------------------*/
FoamFile
{
    format      ascii;
    class       volScalarField;
    location    "0.045";
    object      p;
}
// * * * * * * * * * * * * * * * * * * * * * * * * * * * * * * * * * * * * * //

dimensions      [0 2 -2 0 0 0 0];

internalField   nonuniform List<scalar> 
6820
(
-9.606
-9.90847
-9.9545
-9.97024
-10.0022
-10.0268
-10.0443
-10.0592
-10.0718
-10.0821
-10.0903
-10.0965
-10.1007
-10.1028
-10.1027
-10.1002
-10.0952
-10.0872
-10.0759
-10.0609
-10.0418
-10.0178
-9.98842
-9.95267
-9.90959
-9.85795
-9.79622
-9.72249
-9.6342
-9.52792
-9.40006
-9.2389
-9.0611
-9.80741
-9.93242
-9.96898
-9.98462
-10.0107
-10.0322
-10.0482
-10.062
-10.0739
-10.0838
-10.0917
-10.0977
-10.1018
-10.104
-10.104
-10.1017
-10.0968
-10.0891
-10.0783
-10.0639
-10.0455
-10.0226
-9.99439
-9.96026
-9.91929
-9.87043
-9.81242
-9.7438
-9.66271
-9.56759
-9.45566
-9.33308
-9.19848
-9.80738
-9.89282
-9.95134
-9.97808
-10.0064
-10.0306
-10.0489
-10.0642
-10.0773
-10.088
-10.0966
-10.1033
-10.1079
-10.1105
-10.111
-10.1091
-10.1048
-10.0978
-10.0878
-10.0744
-10.0573
-10.0361
-10.0102
-9.97916
-9.94235
-9.89917
-9.849
-9.79136
-9.72626
-9.65431
-9.58011
-9.50984
-9.47933
-9.86438
-9.93424
-9.98225
-10.0026
-10.0244
-10.0446
-10.0602
-10.0734
-10.0848
-10.0943
-10.102
-10.1079
-10.1121
-10.1144
-10.1147
-10.1128
-10.1087
-10.102
-10.0925
-10.0799
-10.0638
-10.044
-10.02
-9.99132
-9.95769
-9.91872
-9.87423
-9.82432
-9.76983
-9.71272
-9.6583
-9.61451
-9.6056
-9.89452
-9.93339
-9.97254
-9.9957
-10.0187
-10.0402
-10.0574
-10.072
-10.0846
-10.0951
-10.1038
-10.1105
-10.1155
-10.1185
-10.1195
-10.1185
-10.1152
-10.1094
-10.101
-10.0897
-10.0752
-10.0573
-10.0357
-10.0101
-9.98039
-9.94644
-9.90845
-9.86698
-9.82348
-9.78041
-9.74332
-9.71885
-9.72476
-9.92464
-9.95545
-9.99292
-10.0164
-10.0369
-10.0558
-10.0713
-10.0844
-10.0957
-10.1052
-10.1129
-10.1191
-10.1235
-10.1263
-10.1272
-10.1262
-10.1232
-10.1179
-10.1102
-10.1
-10.0869
-10.0708
-10.0515
-10.029
-10.0031
-9.974
-9.94213
-9.90832
-9.8742
-9.84229
-9.81722
-9.80408
-9.81363
-9.94995
-9.96995
-9.99868
-10.019
-10.0373
-10.0551
-10.0706
-10.0839
-10.0957
-10.1058
-10.1142
-10.121
-10.1263
-10.1298
-10.1316
-10.1316
-10.1296
-10.1256
-10.1194
-10.1108
-10.0997
-10.086
-10.0696
-10.0506
-10.029
-10.0051
-9.97956
-9.95327
-9.92788
-9.90563
-9.89008
-9.88471
-9.89537
-9.97255
-9.98721
-10.0123
-10.0328
-10.0508
-10.0679
-10.0828
-10.0956
-10.1068
-10.1164
-10.1245
-10.1311
-10.1362
-10.1397
-10.1417
-10.142
-10.1406
-10.1373
-10.132
-10.1248
-10.1154
-10.1039
-10.0902
-10.0745
-10.0569
-10.0379
-10.0182
-9.99854
-9.98056
-9.96604
-9.95751
-9.95711
-9.96756
-9.993
-10.0036
-10.0238
-10.0415
-10.0572
-10.0725
-10.0864
-10.0987
-10.1096
-10.1193
-10.1276
-10.1346
-10.1402
-10.1444
-10.1472
-10.1485
-10.1482
-10.1463
-10.1426
-10.1373
-10.1302
-10.1213
-10.1108
-10.0987
-10.0855
-10.0715
-10.0574
-10.0442
-10.033
-10.0252
-10.0226
-10.0264
-10.0374
-10.0118
-10.0197
-10.0366
-10.053
-10.0681
-10.0829
-10.0965
-10.1087
-10.1196
-10.1292
-10.1376
-10.1447
-10.1505
-10.1551
-10.1583
-10.1603
-10.1608
-10.1599
-10.1576
-10.1539
-10.1488
-10.1424
-10.1347
-10.1261
-10.1169
-10.1075
-10.0986
-10.091
-10.0856
-10.0837
-10.0861
-10.0935
-10.1059
-10.0292
-10.0353
-10.0493
-10.0638
-10.0774
-10.0907
-10.1033
-10.1148
-10.1253
-10.1347
-10.1431
-10.1505
-10.1567
-10.1619
-10.1659
-10.1688
-10.1705
-10.171
-10.1704
-10.1686
-10.1658
-10.1621
-10.1576
-10.1526
-10.1475
-10.1427
-10.1388
-10.1366
-10.1368
-10.1402
-10.1474
-10.1588
-10.174
-10.0456
-10.0505
-10.0622
-10.0752
-10.0878
-10.1005
-10.1127
-10.124
-10.1345
-10.1441
-10.1527
-10.1604
-10.1671
-10.1728
-10.1775
-10.1813
-10.1841
-10.1859
-10.1869
-10.187
-10.1864
-10.1852
-10.1837
-10.1821
-10.1808
-10.1802
-10.1809
-10.1836
-10.1887
-10.197
-10.2088
-10.2242
-10.2431
-10.0612
-10.0651
-10.075
-10.0866
-10.0982
-10.1099
-10.1213
-10.1321
-10.1423
-10.1517
-10.1603
-10.1682
-10.1753
-10.1816
-10.1871
-10.1918
-10.1958
-10.1991
-10.2017
-10.2038
-10.2055
-10.2069
-10.2084
-10.2102
-10.2127
-10.2162
-10.2214
-10.2287
-10.2386
-10.2516
-10.268
-10.288
-10.3113
-10.0761
-10.0793
-10.0878
-10.0981
-10.1088
-10.1198
-10.1308
-10.1414
-10.1515
-10.1611
-10.17
-10.1783
-10.1859
-10.1929
-10.1993
-10.205
-10.2102
-10.2149
-10.2192
-10.2233
-10.2272
-10.2312
-10.2356
-10.2406
-10.2465
-10.2539
-10.2632
-10.2747
-10.289
-10.3064
-10.3273
-10.3517
-10.3798
-10.0904
-10.0931
-10.1005
-10.1097
-10.1196
-10.1299
-10.1404
-10.1506
-10.1605
-10.17
-10.1791
-10.1876
-10.1957
-10.2033
-10.2104
-10.2172
-10.2236
-10.2297
-10.2357
-10.2416
-10.2478
-10.2543
-10.2614
-10.2695
-10.2788
-10.2898
-10.3029
-10.3185
-10.3369
-10.3586
-10.3839
-10.4128
-10.4458
-10.1041
-10.1065
-10.1129
-10.1213
-10.1305
-10.1403
-10.1503
-10.1603
-10.1702
-10.1798
-10.1891
-10.1981
-10.2068
-10.2151
-10.2232
-10.231
-10.2386
-10.2462
-10.2539
-10.2617
-10.27
-10.2789
-10.2887
-10.2996
-10.3121
-10.3265
-10.3431
-10.3623
-10.3846
-10.4102
-10.4395
-10.4726
-10.5102
-10.1174
-10.1195
-10.1252
-10.1329
-10.1415
-10.1507
-10.1604
-10.1702
-10.18
-10.1897
-10.1992
-10.2085
-10.2177
-10.2266
-10.2355
-10.2443
-10.2531
-10.2621
-10.2713
-10.281
-10.2913
-10.3024
-10.3147
-10.3283
-10.3437
-10.3612
-10.381
-10.4036
-10.4293
-10.4585
-10.4915
-10.5286
-10.5703
-10.1303
-10.1322
-10.1373
-10.1444
-10.1524
-10.1613
-10.1706
-10.1803
-10.1901
-10.1999
-10.2097
-10.2195
-10.2292
-10.2389
-10.2486
-10.2585
-10.2685
-10.2788
-10.2896
-10.3011
-10.3133
-10.3266
-10.3411
-10.3573
-10.3753
-10.3955
-10.4182
-10.4438
-10.4726
-10.505
-10.5412
-10.5816
-10.6267
-10.1427
-10.1445
-10.1492
-10.1558
-10.1634
-10.1719
-10.181
-10.1905
-10.2003
-10.2103
-10.2203
-10.2305
-10.2407
-10.2511
-10.2616
-10.2724
-10.2836
-10.2952
-10.3074
-10.3205
-10.3345
-10.3497
-10.3663
-10.3847
-10.4051
-10.4277
-10.453
-10.4812
-10.5126
-10.5476
-10.5865
-10.6296
-10.6775
-10.1548
-10.1564
-10.1608
-10.167
-10.1743
-10.1825
-10.1914
-10.2009
-10.2107
-10.2208
-10.2312
-10.2418
-10.2525
-10.2636
-10.275
-10.2867
-10.2989
-10.3118
-10.3254
-10.3399
-10.3556
-10.3725
-10.3911
-10.4114
-10.4338
-10.4586
-10.486
-10.5163
-10.5499
-10.587
-10.628
-10.6731
-10.7229
-10.1665
-10.168
-10.1722
-10.1781
-10.1851
-10.1931
-10.2019
-10.2113
-10.2212
-10.2315
-10.2421
-10.2531
-10.2644
-10.2761
-10.2882
-10.3008
-10.314
-10.328
-10.3428
-10.3587
-10.3758
-10.3943
-10.4144
-10.4365
-10.4606
-10.4871
-10.5162
-10.5482
-10.5835
-10.6221
-10.6646
-10.711
-10.7619
-10.1779
-10.1793
-10.1833
-10.1889
-10.1957
-10.2035
-10.2122
-10.2216
-10.2316
-10.2421
-10.253
-10.2644
-10.2762
-10.2885
-10.3013
-10.3148
-10.3289
-10.3439
-10.3598
-10.3769
-10.3952
-10.415
-10.4365
-10.4599
-10.4854
-10.5133
-10.5437
-10.577
-10.6133
-10.6529
-10.6962
-10.7431
-10.7943
-10.1888
-10.1902
-10.194
-10.1994
-10.2061
-10.2138
-10.2225
-10.2319
-10.242
-10.2527
-10.2639
-10.2757
-10.288
-10.3008
-10.3143
-10.3285
-10.3435
-10.3593
-10.3762
-10.3943
-10.4137
-10.4346
-10.4572
-10.4817
-10.5083
-10.5371
-10.5684
-10.6024
-10.6394
-10.6794
-10.7228
-10.7696
-10.8204
-10.1993
-10.2006
-10.2044
-10.2097
-10.2162
-10.2239
-10.2326
-10.2421
-10.2523
-10.2631
-10.2746
-10.2867
-10.2995
-10.3128
-10.3269
-10.3417
-10.3573
-10.3739
-10.3916
-10.4105
-10.4308
-10.4525
-10.4759
-10.5011
-10.5283
-10.5577
-10.5895
-10.6238
-10.6608
-10.7006
-10.7435
-10.7896
-10.8391
-10.2093
-10.2107
-10.2143
-10.2196
-10.2261
-10.2337
-10.2424
-10.252
-10.2624
-10.2735
-10.2853
-10.2977
-10.3108
-10.3247
-10.3392
-10.3546
-10.3709
-10.3882
-10.4065
-10.4261
-10.4469
-10.4693
-10.4932
-10.5189
-10.5465
-10.5762
-10.608
-10.6421
-10.6787
-10.7179
-10.7598
-10.8045
-10.8522
-10.2189
-10.2202
-10.2238
-10.229
-10.2355
-10.2432
-10.2519
-10.2616
-10.2721
-10.2833
-10.2953
-10.3081
-10.3215
-10.3357
-10.3507
-10.3665
-10.3832
-10.4009
-10.4197
-10.4396
-10.4609
-10.4836
-10.5077
-10.5335
-10.5611
-10.5906
-10.622
-10.6555
-10.6913
-10.7293
-10.7696
-10.8124
-10.8578
-10.2279
-10.2292
-10.2328
-10.2381
-10.2446
-10.2523
-10.2611
-10.271
-10.2816
-10.2931
-10.3054
-10.3185
-10.3322
-10.3468
-10.3622
-10.3784
-10.3955
-10.4136
-10.4327
-10.4529
-10.4744
-10.4972
-10.5214
-10.5472
-10.5745
-10.6035
-10.6342
-10.6668
-10.7013
-10.7378
-10.7763
-10.8167
-10.8593
-10.2362
-10.2376
-10.2412
-10.2465
-10.253
-10.2608
-10.2697
-10.2796
-10.2903
-10.302
-10.3144
-10.3276
-10.3416
-10.3563
-10.3719
-10.3883
-10.4056
-10.4238
-10.443
-10.4633
-10.4848
-10.5074
-10.5313
-10.5566
-10.5832
-10.6114
-10.6411
-10.6723
-10.7051
-10.7396
-10.7757
-10.8135
-10.8529
-10.2439
-10.2453
-10.249
-10.2544
-10.2611
-10.2691
-10.2782
-10.2883
-10.2993
-10.3112
-10.3239
-10.3374
-10.3516
-10.3666
-10.3824
-10.399
-10.4165
-10.4348
-10.4541
-10.4743
-10.4956
-10.5179
-10.5414
-10.5661
-10.592
-10.6191
-10.6475
-10.6772
-10.7083
-10.7406
-10.7741
-10.8089
-10.845
-10.2508
-10.2522
-10.2559
-10.2614
-10.2681
-10.2761
-10.2852
-10.2954
-10.3064
-10.3184
-10.3311
-10.3447
-10.359
-10.3741
-10.3899
-10.4065
-10.4239
-10.4421
-10.4612
-10.4811
-10.5019
-10.5237
-10.5465
-10.5702
-10.5949
-10.6207
-10.6475
-10.6753
-10.7041
-10.7339
-10.7646
-10.7962
-10.8287
-10.2568
-10.2583
-10.2623
-10.2681
-10.2752
-10.2836
-10.293
-10.3035
-10.3149
-10.3271
-10.3401
-10.3539
-10.3684
-10.3836
-10.3995
-10.4161
-10.4334
-10.4515
-10.4704
-10.49
-10.5103
-10.5315
-10.5535
-10.5763
-10.5999
-10.6242
-10.6494
-10.6753
-10.7019
-10.7292
-10.757
-10.7854
-10.8142
-10.2617
-10.2631
-10.2671
-10.2729
-10.2799
-10.2883
-10.2977
-10.3082
-10.3197
-10.3319
-10.345
-10.3587
-10.3732
-10.3884
-10.4042
-10.4206
-10.4378
-10.4555
-10.4739
-10.4929
-10.5126
-10.5329
-10.5538
-10.5753
-10.5974
-10.62
-10.6432
-10.6669
-10.691
-10.7155
-10.7403
-10.7654
-10.7907
-10.2657
-10.2676
-10.2723
-10.2788
-10.2866
-10.2955
-10.3054
-10.3163
-10.328
-10.3405
-10.3537
-10.3676
-10.3822
-10.3973
-10.4131
-10.4294
-10.4463
-10.4637
-10.4817
-10.5002
-10.5192
-10.5387
-10.5586
-10.579
-10.5997
-10.6208
-10.6422
-10.6639
-10.6858
-10.7075
-10.7294
-10.7512
-10.7729
-10.2676
-10.269
-10.2734
-10.2798
-10.2875
-10.2964
-10.3065
-10.3176
-10.3295
-10.3421
-10.3555
-10.3694
-10.3839
-10.399
-10.4146
-10.4307
-10.4472
-10.4642
-10.4816
-10.4994
-10.5175
-10.5359
-10.5546
-10.5734
-10.5925
-10.6117
-10.6308
-10.6503
-10.6694
-10.6886
-10.7075
-10.726
-10.7442
-10.2695
-10.2725
-10.2787
-10.2864
-10.2951
-10.3047
-10.3149
-10.3261
-10.3382
-10.3509
-10.3643
-10.3782
-10.3927
-10.4077
-10.423
-10.4388
-10.455
-10.4716
-10.4885
-10.5056
-10.5231
-10.5407
-10.5584
-10.5762
-10.594
-10.6118
-10.6296
-10.6468
-10.6639
-10.6807
-10.697
-10.7127
-10.7278
-10.2655
-10.2668
-10.2725
-10.2803
-10.2894
-10.2997
-10.3114
-10.3234
-10.3359
-10.3489
-10.3625
-10.3765
-10.3911
-10.4063
-10.4217
-10.4372
-10.453
-10.469
-10.4851
-10.5015
-10.5179
-10.5344
-10.5508
-10.5671
-10.5832
-10.599
-10.6145
-10.6295
-10.644
-10.658
-10.6713
-10.684
-10.6959
-10.2666
-10.2726
-10.2816
-10.2906
-10.3001
-10.3105
-10.3216
-10.3331
-10.3453
-10.3581
-10.3714
-10.3853
-10.3995
-10.4138
-10.4287
-10.444
-10.4596
-10.4754
-10.4914
-10.5074
-10.5234
-10.5393
-10.5551
-10.5707
-10.586
-10.6008
-10.6152
-10.6291
-10.6423
-10.6547
-10.6663
-10.6769
-10.6864
-10.2465
-10.251
-10.2632
-10.275
-10.2869
-10.2997
-10.3127
-10.3259
-10.3394
-10.3531
-10.3671
-10.3813
-10.3957
-10.4103
-10.4252
-10.4402
-10.4554
-10.4705
-10.4856
-10.5006
-10.5154
-10.53
-10.5443
-10.5582
-10.5716
-10.5844
-10.5966
-10.6081
-10.6188
-10.6285
-10.6374
-10.6452
-10.652
-10.2596
-10.2698
-10.2809
-10.29
-10.3004
-10.3115
-10.3228
-10.3347
-10.3472
-10.3602
-10.3736
-10.3874
-10.4017
-10.4162
-10.431
-10.4461
-10.4613
-10.4766
-10.4919
-10.5072
-10.5223
-10.5371
-10.5517
-10.5658
-10.5794
-10.5925
-10.6048
-10.6163
-10.6269
-10.6365
-10.6449
-10.6521
-10.6579
-10.1608
-10.228
-10.2539
-10.2676
-10.2847
-10.3007
-10.315
-10.3289
-10.3428
-10.3567
-10.3706
-10.3845
-10.3986
-10.4128
-10.4271
-10.4414
-10.4557
-10.4698
-10.4838
-10.4976
-10.511
-10.524
-10.5364
-10.5483
-10.5595
-10.5699
-10.5794
-10.5879
-10.5953
-10.6016
-10.6066
-10.6103
-10.6125
-8.7592
-9.66222
-11.011
-12.4471
-12.1462
-9.12286
-4.46775
-1.10164
-1.22815
-3.94149
-7.93868
-12.9723
-18.5324
-24.2268
-29.8137
-35.1142
-39.8975
-43.8206
-46.4829
-47.5629
-46.9257
-44.7927
-41.6038
-37.742
-33.4549
-28.9837
-24.628
-20.6289
-17.077
-13.9708
-11.2803
-8.9752
-7.02553
-5.39793
-4.05612
-2.96325
-2.08383
-1.38485
-0.836509
-0.412514
-0.0901035
0.15011
0.324404
0.44636
0.52724
0.576233
0.600788
0.606921
0.599455
0.582243
0.558378
0.53035
0.500153
0.469319
0.438919
0.409597
0.381644
0.355131
0.33004
0.306359
0.284108
0.26332
0.244016
0.22618
0.20976
0.194681
0.180861
0.168213
0.156653
0.146097
0.136461
0.127658
0.119601
0.112207
0.105396
0.0990935
0.0932326
0.0877533
0.0826019
0.0777316
0.0731014
0.0686755
0.064423
0.0603169
0.056334
0.0524538
0.0486586
0.0449328
0.0412623
0.0376357
0.0340397
0.0304699
0.0269061
0.0233633
0.0197866
0.0162663
0.0125975
0.00917823
0.00518137
0.0022812
-9.22614
-9.96393
-10.9421
-11.749
-11.0639
-8.38671
-4.79721
-2.31108
-1.97015
-3.94979
-7.9205
-12.7577
-17.8663
-23.1104
-28.3087
-33.2427
-37.661
-41.2522
-43.6579
-44.6444
-44.1542
-42.3753
-39.5976
-36.0735
-32.0447
-27.8251
-23.752
-20.0267
-16.7044
-13.7752
-11.2165
-9.00758
-7.12588
-5.54364
-4.22948
-3.15083
-2.27577
-1.57418
-1.01855
-0.584308
-0.249991
0.00287505
0.189952
0.324359
0.417054
0.477101
0.511875
0.527367
0.528409
0.518885
0.501926
0.480072
0.455375
0.429433
0.403394
0.377972
0.353518
0.330149
0.307878
0.286719
0.266718
0.247936
0.230419
0.214176
0.199179
0.185371
0.172685
0.161047
0.150385
0.140627
0.131696
0.123517
0.116011
0.109101
0.102715
0.0967855
0.0912497
0.0860533
0.0811476
0.0764899
0.0720432
0.0677754
0.0636586
0.059669
0.0557858
0.0519908
0.0482684
0.0446047
0.0409871
0.0374057
0.0338484
0.0303115
0.0267765
0.0232578
0.0197037
0.0162001
0.0125529
0.00913977
0.00517766
0.00224955
-9.51444
-9.9236
-10.4848
-10.8701
-10.3451
-8.4812
-5.96691
-3.95723
-3.61526
-5.29983
-8.56979
-12.8345
-17.5219
-22.289
-26.9889
-31.4611
-35.4691
-38.7178
-40.9035
-41.8685
-41.5752
-40.1105
-37.6288
-34.3409
-30.5483
-26.6237
-22.8707
-19.4304
-16.3338
-13.5748
-11.1438
-9.02998
-7.21668
-5.68099
-4.396
-3.33318
-2.46402
-1.76122
-1.19949
-0.755983
-0.410523
-0.145582
0.0538489
0.20045
0.304833
0.375864
0.420855
0.445753
0.455385
0.453654
0.443724
0.428175
0.40911
0.388191
0.366634
0.345224
0.324374
0.304244
0.284884
0.266333
0.248661
0.231956
0.216291
0.201702
0.188181
0.175692
0.164183
0.153595
0.143867
0.134937
0.126741
0.119211
0.112278
0.105872
0.0999289
0.0943863
0.0891886
0.0842865
0.0796361
0.0751994
0.0709435
0.0668399
0.0628643
0.0589957
0.055216
0.0515095
0.0478627
0.0442635
0.040701
0.0371666
0.0336497
0.0301471
0.026642
0.0231483
0.0196178
0.0161315
0.0125069
0.0091
0.0051738
0.00221717
-9.65059
-9.92526
-10.2851
-10.4548
-9.94182
-8.51554
-6.68119
-5.38177
-5.29006
-6.68542
-9.43279
-13.1475
-17.3486
-21.6956
-25.9612
-29.974
-33.549
-36.4614
-38.4902
-39.4732
-39.2954
-37.9639
-35.6132
-32.5082
-29.0012
-25.4301
-22.0138
-18.8486
-15.9635
-13.3668
-11.0611
-9.04197
-7.29761
-5.80955
-4.55518
-3.50977
-2.64808
-1.94551
-1.37892
-0.92717
-0.57138
-0.294982
-0.083662
0.0747981
0.190693
0.272633
0.327808
0.362135
0.380422
0.386575
0.383781
0.374657
0.361349
0.345575
0.32862
0.311335
0.294192
0.277401
0.261043
0.245186
0.229923
0.215368
0.201622
0.188745
0.176755
0.165635
0.155347
0.145848
0.137089
0.129021
0.121589
0.114734
0.108396
0.102515
0.0970324
0.0918928
0.0870469
0.0824508
0.078066
0.073859
0.0698013
0.0658684
0.0620393
0.0582963
0.0546241
0.0510095
0.0474411
0.0439089
0.0404035
0.0369179
0.0334427
0.0299758
0.0265017
0.0230341
0.0195279
0.0160598
0.0124586
0.00905824
0.0051691
0.00218365
-9.77167
-9.94614
-10.1468
-10.1659
-9.71414
-8.67475
-7.39591
-6.51874
-6.57935
-7.81452
-10.1792
-13.4217
-17.1825
-21.1388
-25.0471
-28.7147
-31.9584
-34.6056
-36.456
-37.312
-37.0459
-35.702
-33.4665
-30.6236
-27.4804
-24.2836
-21.1889
-18.2784
-15.5922
-13.1523
-10.9693
-9.04405
-7.36874
-5.92918
-4.70674
-3.68026
-2.82756
-2.12663
-1.55643
-1.09749
-0.732226
-0.445033
-0.222313
-0.0523588
0.0747925
0.167526
0.23285
0.276602
0.303583
0.317695
0.322136
0.319548
0.312115
0.301606
0.289367
0.276315
0.262981
0.249623
0.236357
0.223277
0.210501
0.19817
0.186408
0.175305
0.1649
0.155197
0.146175
0.137806
0.130054
0.122879
0.11624
0.110086
0.104367
0.0990314
0.0940266
0.0893056
0.084825
0.0805467
0.0764375
0.072469
0.068617
0.0648611
0.0611841
0.0575714
0.0540107
0.0504914
0.0470044
0.0435416
0.0400956
0.0366606
0.0332287
0.0297988
0.0263569
0.0229163
0.0194355
0.015986
0.0124091
0.00901551
0.00516454
0.00214965
-9.85124
-9.95726
-10.0628
-10.0222
-9.65284
-8.89308
-7.99405
-7.42926
-7.61941
-8.75389
-10.806
-13.6015
-16.8928
-20.4319
-23.9856
-27.3394
-30.299
-32.6682
-34.2364
-34.8817
-34.5421
-33.2876
-31.2981
-28.8096
-26.05
-23.2017
-20.396
-17.7183
-15.2202
-12.9319
-10.8691
-9.03638
-7.43003
-6.03969
-4.85039
-3.84427
-3.00205
-2.30416
-1.73162
-1.26658
-0.89272
-0.595437
-0.361853
-0.180793
-0.0426671
0.0606711
0.136072
0.189245
0.22494
0.247065
0.258822
0.262869
0.26142
0.256288
0.248876
0.240162
0.230737
0.220906
0.21082
0.200601
0.190391
0.180354
0.170645
0.161375
0.152609
0.144373
0.136662
0.129463
0.122754
0.116507
0.11069
0.105264
0.100188
0.0954175
0.0909093
0.0866229
0.0825214
0.0785729
0.0747497
0.0710284
0.0673896
0.0638171
0.0602975
0.0568197
0.0533744
0.0499538
0.0465509
0.04316
0.0397753
0.0363927
0.0330057
0.0296141
0.0262056
0.022793
0.0193385
0.0159085
0.0123568
0.00897033
0.00515884
0.00211408
-9.92447
-9.9882
-10.0363
-9.96834
-9.67532
-9.13996
-8.54883
-8.23802
-8.52068
-9.55685
-11.3391
-13.7453
-16.5853
-19.6599
-22.7768
-25.7405
-28.3549
-30.4224
-31.7609
-32.3136
-32.0349
-30.9813
-29.2941
-27.1509
-24.7269
-22.1783
-19.6294
-17.1677
-14.8489
-12.707
-10.7611
-9.01936
-7.48163
-6.14104
-4.98594
-4.00151
-3.17119
-2.47773
-1.9041
-1.43405
-1.05252
-0.745884
-0.502011
-0.310273
-0.161475
-0.0477451
0.0375953
0.100148
0.144577
0.174756
0.193894
0.204662
0.209296
0.209646
0.207166
0.202892
0.197472
0.191258
0.184438
0.177161
0.169593
0.161923
0.15433
0.146954
0.139883
0.133163
0.126808
0.120821
0.115191
0.109905
0.10494
0.100269
0.0958589
0.0916749
0.0876816
0.0838457
0.0801372
0.0765305
0.0730035
0.0695384
0.0661204
0.0627378
0.0593812
0.0560431
0.0527173
0.0493987
0.0460831
0.0427666
0.0394454
0.036117
0.0327765
0.0294244
0.0260505
0.0226669
0.0192396
0.0158296
0.012304
0.0089247
0.00515383
0.00207826
-9.98974
-10.0276
-10.0455
-9.97837
-9.76475
-9.40897
-9.04905
-8.92765
-9.27893
-10.2341
-11.7988
-13.8816
-16.333
-18.9861
-21.6745
-24.231
-26.4848
-28.2706
-29.4905
-30.009
-29.811
-28.9409
-27.5031
-25.6365
-23.4903
-21.2029
-18.8881
-16.6286
-14.4802
-12.4787
-10.646
-8.99336
-7.5237
-6.2332
-5.11322
-4.15171
-3.33464
-2.64696
-2.07349
-1.59954
-1.21128
-0.896061
-0.642509
-0.440558
-0.281426
-0.157536
-0.0624127
0.00942516
0.0625667
0.100832
0.127409
0.144972
0.155777
0.161706
0.164257
0.16452
0.163196
0.160687
0.157217
0.152961
0.14811
0.142877
0.137466
0.132043
0.126721
0.121566
0.116612
0.111877
0.107364
0.103071
0.0989887
0.0950991
0.0913792
0.0878027
0.0843426
0.0809733
0.0776717
0.0744186
0.0711981
0.0679977
0.0648079
0.0616215
0.0584331
0.0552391
0.0520366
0.0488233
0.0455976
0.0423578
0.0391022
0.0358297
0.0325372
0.0292261
0.0258879
0.0225344
0.0191353
0.0157461
0.0122476
0.00887595
0.00514719
0.00204027
-10.056
-10.0815
-10.0887
-10.0374
-9.89526
-9.67887
-9.49332
-9.51448
-9.91592
-10.8013
-12.1828
-13.995
-16.12
-18.4186
-20.7465
-22.9586
-24.9134
-26.4765
-27.5412
-28.0059
-27.8533
-27.1145
-25.8691
-24.2313
-22.3267
-20.2742
-18.1741
-16.1031
-14.1154
-12.2478
-10.5244
-8.95886
-7.55649
-6.31625
-5.23213
-4.29467
-3.49212
-2.81151
-2.23944
-1.76269
-1.36865
-1.04565
-0.78306
-0.571395
-0.402303
-0.268518
-0.163784
-0.0827694
-0.0209751
0.0253732
0.0594297
0.0838533
0.10091
0.112506
0.120179
0.12507
0.127932
0.12921
0.129169
0.128011
0.125949
0.123221
0.120055
0.116644
0.113124
0.109584
0.106076
0.102633
0.0992739
0.0960087
0.0928386
0.0897572
0.0867511
0.0838032
0.0808948
0.0780081
0.0751273
0.0722399
0.0693362
0.0664094
0.0634554
0.0604716
0.0574571
0.054412
0.0513367
0.0482323
0.0450994
0.0419388
0.0387509
0.0355361
0.0322931
0.0290243
0.0257229
0.0224002
0.0190301
0.0156623
0.0121916
0.00882758
0.00514203
0.00200249
-10.124
-10.1459
-10.1542
-10.1261
-10.0477
-9.94095
-9.88624
-10.0114
-10.4444
-11.2661
-12.4901
-14.0697
-15.9133
-17.9061
-19.9246
-21.8423
-23.5353
-24.8866
-25.8043
-26.2119
-26.0869
-25.4508
-24.3668
-22.927
-21.2355
-19.3936
-17.4892
-15.5926
-13.7556
-12.0155
-10.3973
-8.9164
-7.58033
-6.3903
-5.34265
-4.43021
-3.64337
-2.97108
-2.4016
-1.92315
-1.52431
-1.19433
-0.923373
-0.702524
-0.523876
-0.380493
-0.266354
-0.176291
-0.10591
-0.0515058
-0.00995957
0.0213725
0.0447502
0.0620913
0.0749645
0.0845639
0.0916969
0.096847
0.100311
0.102323
0.103121
0.102964
0.102106
0.100764
0.0990989
0.0972215
0.0952033
0.0930929
0.0909237
0.0887188
0.0864909
0.0842443
0.0819756
0.0796771
0.0773385
0.0749502
0.0725037
0.0699935
0.0674164
0.0647716
0.0620602
0.0592849
0.0564492
0.053557
0.0506126
0.0476198
0.0445823
0.0415032
0.0383848
0.0352295
0.0320376
0.0288123
0.025549
0.0222583
0.0189183
0.0155727
0.012131
0.00877512
0.00513446
0.00196174
-10.1945
-10.2189
-10.2361
-10.2342
-10.2107
-10.1887
-10.2302
-10.4287
-10.8784
-11.6407
-12.7284
-14.1069
-15.7048
-17.4279
-19.1717
-20.8273
-22.2869
-23.4519
-24.2422
-24.5952
-24.4878
-23.9356
-22.9879
-21.719
-20.2146
-18.5604
-16.8336
-15.0978
-13.402
-11.7827
-10.2653
-8.86659
-7.59561
-6.45554
-5.44479
-4.55823
-3.78819
-3.12539
-2.55967
-2.0806
-1.67791
-1.3418
-1.06316
-0.833678
-0.645907
-0.493251
-0.369939
-0.270983
-0.192109
-0.129689
-0.080653
-0.0423851
-0.012637
0.0105158
0.0286668
0.0430475
0.0545188
0.0636171
0.0706661
0.0759189
0.0796417
0.0821191
0.0836283
0.0844107
0.0846525
0.0844855
0.084
0.0832615
0.0823184
0.0812065
0.0799504
0.078565
0.0770573
0.0754288
0.0736783
0.0718041
0.0698057
0.0676845
0.0654441
0.0630899
0.0606287
0.0580682
0.0554166
0.0526821
0.0498724
0.0469947
0.0440555
0.0410602
0.0380134
0.0349192
0.0317796
0.028599
0.0253747
0.0221167
0.0188074
0.0154844
0.0120721
0.00872434
0.00512957
0.00192197
-10.2678
-10.2985
-10.3281
-10.3522
-10.3743
-10.4169
-10.528
-10.776
-11.2299
-11.9358
-12.9042
-14.1087
-15.493
-16.9801
-18.482
-19.906
-21.1601
-22.1603
-22.8363
-23.1365
-23.0397
-22.556
-21.7234
-20.6013
-19.2605
-17.7735
-16.2075
-14.6196
-13.0556
-11.5503
-10.1294
-8.81006
-7.60276
-6.51223
-5.53865
-4.67869
-3.92642
-3.2742
-2.71335
-2.23472
-1.82914
-1.48773
-1.20211
-0.964586
-0.768152
-0.606574
-0.474348
-0.366678
-0.279426
-0.209053
-0.152548
-0.107332
-0.0711758
-0.0421563
-0.0186623
0.000572542
0.0164503
0.0295549
0.0402529
0.0488186
0.0555333
0.0607048
0.0646375
0.0675977
0.0697951
0.0713837
0.0724735
0.073146
0.0734641
0.073477
0.0732214
0.072723
0.0719991
0.0710608
0.0699157
0.0685707
0.067033
0.0653116
0.0634169
0.0613608
0.0591559
0.0568155
0.0543523
0.051779
0.049107
0.046347
0.0435082
0.0405987
0.0376253
0.0345938
0.0315081
0.0283735
0.0251895
0.0219654
0.018688
0.0153886
0.0120071
0.00866799
0.00512103
0.0018781
-10.3416
-10.3808
-10.4244
-10.4725
-10.5318
-10.6227
-10.7825
-11.0616
-11.5099
-12.1616
-13.0243
-14.0777
-15.2765
-16.5578
-17.8481
-19.0688
-20.1417
-20.9952
-21.5692
-21.8201
-21.7283
-21.2997
-20.5636
-19.5676
-18.3699
-17.0317
-15.611
-14.1588
-12.7173
-11.3195
-9.99036
-8.74752
-7.6023
-6.5607
-5.62439
-4.79159
-4.05796
-3.41733
-2.8624
-2.38523
-1.97771
-1.63183
-1.33996
-1.09497
-0.890358
-0.720234
-0.579377
-0.463197
-0.367703
-0.289461
-0.225526
-0.173365
-0.130777
-0.095848
-0.0669559
-0.042807
-0.0224584
-0.00528609
0.00911361
0.0210479
0.030815
0.0387399
0.0451514
0.0503412
0.0545433
0.0579319
0.0606362
0.0627563
0.0643701
0.0655393
0.0663124
0.0667265
0.0668091
0.0665809
0.0660587
0.065258
0.0641941
0.0628837
0.0613444
0.0595945
0.0576531
0.0555386
0.053269
0.0508612
0.0483307
0.0456915
0.0429558
0.0401343
0.037236
0.0342686
0.0312379
0.0281503
0.0250072
0.0218174
0.0185723
0.0152966
0.0119462
0.00861531
0.00511692
0.00183643
-10.4162
-10.4645
-10.5218
-10.5906
-10.679
-10.8048
-10.997
-11.2926
-11.7277
-12.327
-13.0955
-14.0166
-15.054
-16.1561
-17.2615
-18.3041
-19.2178
-19.9419
-20.4249
-20.6297
-20.5385
-20.1543
-19.4995
-18.612
-17.5395
-16.3335
-15.0439
-13.716
-12.388
-11.091
-9.84907
-8.67969
-7.59479
-6.60134
-5.70221
-4.897
-4.18274
-3.55462
-3.0066
-2.53188
-2.12333
-1.77381
-1.4764
-1.22457
-1.01227
-0.833997
-0.684814
-0.560349
-0.456772
-0.370762
-0.299454
-0.24037
-0.191342
-0.150474
-0.11614
-0.0870243
-0.0621509
-0.0408552
-0.0226982
-0.00734662
0.00552221
0.0162533
0.0251945
0.0326608
0.0389106
0.0441414
0.0485017
0.0521055
0.0550468
0.0574021
0.059231
0.0605816
0.0614919
0.0619924
0.0621091
0.0618663
0.0612877
0.0603977
0.0592214
0.0577841
0.0561111
0.0542267
0.052154
0.0499145
0.0475278
0.0450114
0.0423806
0.0396487
0.036827
0.0339252
0.030951
0.0279117
0.024811
0.0216568
0.0184454
0.0151946
0.0118767
0.00855489
0.00510732
0.00178908
-10.4885
-10.5458
-10.6156
-10.7015
-10.812
-10.9621
-11.1741
-11.4752
-11.8915
-12.4402
-13.1241
-13.9293
-14.826
-15.772
-16.7162
-17.6032
-18.3774
-18.9874
-19.3893
-19.5517
-19.4582
-19.1097
-18.5233
-17.7291
-16.7661
-15.6774
-14.5059
-13.2914
-12.0685
-10.8659
-9.70641
-8.60735
-7.58084
-6.63457
-5.7724
-4.99504
-4.30077
-3.68598
-3.14578
-2.67443
-2.26574
-1.9134
-1.61117
-1.35311
-1.13363
-0.947622
-0.790436
-0.657932
-0.546449
-0.452794
-0.374189
-0.308218
-0.252757
-0.205934
-0.166126
-0.132003
-0.102559
-0.077094
-0.0551341
-0.0363169
-0.0202991
-0.00671682
0.00479823
0.0145835
0.0229202
0.0300303
0.0360835
0.0412085
0.0455105
0.0490801
0.0519911
0.0543021
0.0560612
0.057309
0.0580809
0.0584099
0.0583285
0.0578692
0.0570646
0.0559473
0.054549
0.0529001
0.0510289
0.0489616
0.046722
0.044331
0.0418074
0.0391669
0.0364233
0.0335882
0.0306711
0.0276806
0.0246225
0.0215039
0.0183262
0.0150999
0.0118145
0.00850106
0.00510463
0.0017457
-10.5587
-10.6241
-10.7043
-10.8036
-10.9297
-11.0951
-11.3171
-11.6155
-12.0087
-12.5086
-13.116
-13.819
-14.5929
-15.403
-16.2069
-16.9582
-17.6106
-18.1203
-18.4504
-18.5739
-18.476
-18.1564
-17.6276
-16.9137
-16.0464
-15.0619
-13.9966
-12.8855
-11.7594
-10.6449
-9.56324
-8.53127
-7.56111
-6.6609
-5.83528
-5.08591
-4.41211
-3.81136
-3.2798
-2.81269
-2.40471
-2.05033
-1.744
-1.48032
-1.25419
-1.06087
-0.896016
-0.755734
-0.636543
-0.535381
-0.449572
-0.376768
-0.314897
-0.262117
-0.216816
-0.177656
-0.143605
-0.113933
-0.0881312
-0.0658106
-0.0466052
-0.0301317
-0.0160026
-0.00385875
0.00660404
0.0156283
0.0234036
0.0300797
0.0357744
0.0405864
0.0446031
0.0478956
0.0505224
0.0525336
0.0539743
0.0548866
0.0553117
0.0552904
0.0548634
0.0540706
0.0529505
0.0515396
0.0498719
0.0479784
0.0458872
0.043623
0.0412076
0.0386597
0.0359955
0.0332284
0.0303699
0.0274297
0.0244157
0.0213343
0.0181919
0.0149917
0.0117404
0.00843643
0.00509365
0.00169474
-10.6241
-10.6963
-10.7849
-10.8939
-11.0302
-11.204
-11.4285
-11.7181
-12.0857
-12.5388
-13.0769
-13.6895
-14.3561
-15.0479
-15.7297
-16.3631
-16.909
-17.3309
-17.5975
-17.6856
-17.5822
-17.2858
-16.8057
-16.161
-15.3776
-14.4853
-13.5155
-12.4983
-11.4614
-10.4288
-9.42041
-8.45224
-7.53626
-6.68086
-5.89124
-5.16983
-4.51686
-3.93075
-3.40859
-2.94652
-2.54005
-2.1844
-1.87464
-1.60595
-1.37368
-1.17348
-1.00132
-0.853536
-0.726848
-0.618337
-0.525432
-0.445866
-0.377623
-0.318898
-0.268099
-0.223883
-0.185203
-0.151295
-0.121622
-0.0957671
-0.0733417
-0.0539438
-0.0371665
-0.02263
-0.0100084
0.000962715
0.0104921
0.0187458
0.0258595
0.0319426
0.0370895
0.0413847
0.0448979
0.0476892
0.049813
0.0513208
0.0522626
0.052688
0.0526458
0.0521836
0.0513468
0.0501784
0.0487179
0.0470014
0.0450611
0.0429258
0.0406204
0.0381663
0.0355822
0.0328835
0.0300838
0.0271936
0.0242235
0.0211788
0.018071
0.0148959
0.0116781
0.00838246
0.0050927
0.00165066
-10.6848
-10.7623
-10.8568
-10.9721
-11.1138
-11.2904
-11.5116
-11.7879
-12.128
-12.5365
-13.0116
-13.5441
-14.1166
-14.7054
-15.2812
-15.812
-16.2654
-16.6105
-16.8212
-16.8775
-16.7679
-16.4903
-16.0515
-15.4665
-14.7564
-13.946
-13.0618
-12.1299
-11.1749
-10.2184
-9.27873
-8.37106
-7.50701
-6.69503
-5.94071
-5.24712
-4.6152
-4.04423
-3.53211
-3.0758
-2.67159
-2.31537
-2.00286
-1.72976
-1.49187
-1.28522
-1.1061
-0.951108
-0.817149
-0.701459
-0.601584
-0.515342
-0.44078
-0.376139
-0.319849
-0.270573
-0.227248
-0.189087
-0.155523
-0.126113
-0.100444
-0.078096
-0.0586432
-0.0416859
-0.0268771
-0.0139321
-0.00262285
0.00723336
0.0157866
0.0231617
0.0294611
0.0347765
0.0391911
0.0427751
0.0455923
0.0477037
0.0491685
0.0500452
0.0503909
0.0502614
0.0497092
0.0487839
0.0475309
0.0459915
0.0442025
0.0421963
0.0400013
0.0376417
0.0351387
0.0325097
0.0297702
0.0269318
0.0240072
0.021001
0.0179297
0.0147816
0.0115995
0.00831355
0.00507985
0.00159626
-10.7388
-10.8201
-10.9184
-11.0368
-11.1802
-11.3551
-11.5689
-11.8289
-12.1407
-12.5068
-12.9248
-13.3861
-13.8762
-14.3752
-14.8589
-15.3008
-15.6737
-15.952
-16.1135
-16.1413
-16.0253
-15.763
-15.3593
-14.826
-14.1801
-13.4422
-12.6348
-11.7804
-10.9004
-10.0143
-9.13898
-8.28852
-7.47406
-6.70402
-5.98419
-5.31811
-4.70736
-4.15189
-3.65036
-3.20047
-2.7992
-2.44309
-2.12846
-1.85151
-1.6085
-1.39584
-1.21013
-1.04822
-0.90722
-0.784536
-0.67783
-0.585013
-0.504203
-0.433688
-0.37193
-0.317603
-0.269634
-0.227215
-0.189751
-0.156773
-0.127846
-0.10253
-0.080381
-0.0609802
-0.0439606
-0.0290174
-0.0159042
-0.00442185
0.00559348
0.0142797
0.0217519
0.028108