/*--------------------------------*- C++ -*----------------------------------*\
  =========                 |
  \\      /  F ield         | OpenFOAM: The Open Source CFD Toolbox
   \\    /   O peration     | Website:  https://openfoam.org
    \\  /    A nd           | Version:  10
     \\/     M anipulation  |
\*---------------------------------------------------------------------------*/
FoamFile
{
    format      ascii;
    class       volVectorField;
    location    "0.045";
    object      U;
}
// * * * * * * * * * * * * * * * * * * * * * * * * * * * * * * * * * * * * * //

dimensions      [0 1 -1 0 0 0 0];

internalField   nonuniform List<vector> 
6820
(
(7.28178 0.024822 0)
(7.17819 0.0400374 0)
(7.05549 0.0449812 0)
(6.92684 0.0476396 0)
(6.79868 0.0487277 0)
(6.67149 0.048901 0)
(6.54578 0.0485977 0)
(6.42208 0.0480046 0)
(6.3006 0.0472326 0)
(6.18139 0.0463548 0)
(6.06449 0.0454157 0)
(5.94992 0.0444442 0)
(5.83766 0.0434611 0)
(5.72769 0.042482 0)
(5.61996 0.0415201 0)
(5.5144 0.0405875 0)
(5.41093 0.0396967 0)
(5.30943 0.0388615 0)
(5.20976 0.0380977 0)
(5.11172 0.0374246 0)
(5.0151 0.0368657 0)
(4.9196 0.0364502 0)
(4.82485 0.0362149 0)
(4.73039 0.0362071 0)
(4.63565 0.0364879 0)
(4.5399 0.0371399 0)
(4.44222 0.0382732 0)
(4.34138 0.040063 0)
(4.23576 0.0427025 0)
(4.12326 0.0467891 0)
(3.99975 0.052463 0)
(3.86381 0.0625675 0)
(3.69338 0.0814162 0)
(7.35922 0.0258991 0)
(7.42099 0.0358167 0)
(7.4761 0.0376659 0)
(7.52639 0.0397542 0)
(7.57243 0.0412519 0)
(7.61308 0.0424794 0)
(7.64831 0.0437071 0)
(7.67852 0.0449341 0)
(7.70402 0.0461508 0)
(7.72507 0.0473572 0)
(7.74199 0.0485481 0)
(7.75504 0.0497188 0)
(7.76447 0.0508677 0)
(7.77052 0.0519964 0)
(7.77339 0.0531097 0)
(7.77329 0.0542163 0)
(7.77037 0.0553297 0)
(7.76478 0.0564684 0)
(7.75666 0.057658 0)
(7.74609 0.0589318 0)
(7.73315 0.0603335 0)
(7.71787 0.0619192 0)
(7.70023 0.0637619 0)
(7.68018 0.0659564 0)
(7.65758 0.0686281 0)
(7.63224 0.0719442 0)
(7.60383 0.0761373 0)
(7.57187 0.0815367 0)
(7.5358 0.0886188 0)
(7.49438 0.0982371 0)
(7.44736 0.111262 0)
(7.38981 0.131646 0)
(7.33248 0.157598 0)
(7.33541 0.0069627 0)
(7.34559 0.010243 0)
(7.35454 0.012891 0)
(7.36226 0.016376 0)
(7.37061 0.0193148 0)
(7.37947 0.0218708 0)
(7.38877 0.0242655 0)
(7.39865 0.0265011 0)
(7.40909 0.0285903 0)
(7.42003 0.0305634 0)
(7.43137 0.0324431 0)
(7.44304 0.0342475 0)
(7.45495 0.0359941 0)
(7.46699 0.0377 0)
(7.47907 0.0393828 0)
(7.49109 0.0410621 0)
(7.50297 0.0427601 0)
(7.51461 0.0445038 0)
(7.52593 0.046326 0)
(7.53685 0.0482678 0)
(7.5473 0.0503812 0)
(7.55722 0.0527321 0)
(7.56654 0.0554051 0)
(7.57524 0.0585099 0)
(7.58326 0.0621912 0)
(7.5906 0.0666407 0)
(7.59727 0.072126 0)
(7.60334 0.0790059 0)
(7.60893 0.0878482 0)
(7.61451 0.0993492 0)
(7.62049 0.114979 0)
(7.62957 0.135844 0)
(7.64292 0.165449 0)
(7.33493 0.00932112 0)
(7.34246 0.0201859 0)
(7.34798 0.0257126 0)
(7.35131 0.0294569 0)
(7.35417 0.0319234 0)
(7.35661 0.0336297 0)
(7.35858 0.0349865 0)
(7.36028 0.0361324 0)
(7.36179 0.0371419 0)
(7.36315 0.0380756 0)
(7.36441 0.0389712 0)
(7.36558 0.0398537 0)
(7.36669 0.0407428 0)
(7.36775 0.0416562 0)
(7.36874 0.042611 0)
(7.36967 0.0436256 0)
(7.37052 0.0447209 0)
(7.37126 0.0459218 0)
(7.37188 0.0472588 0)
(7.37234 0.0487695 0)
(7.3726 0.0505009 0)
(7.37264 0.0525122 0)
(7.37242 0.0548784 0)
(7.3719 0.0576953 0)
(7.37107 0.0610866 0)
(7.36992 0.0652134 0)
(7.36849 0.0702882 0)
(7.36687 0.0765965 0)
(7.36527 0.0845088 0)
(7.36419 0.0945585 0)
(7.36425 0.107235 0)
(7.36779 0.123538 0)
(7.37552 0.142159 0)
(7.334 0.00642214 0)
(7.33872 0.0128069 0)
(7.3433 0.0156915 0)
(7.34684 0.0183202 0)
(7.35008 0.0206852 0)
(7.35296 0.0227564 0)
(7.35538 0.0247095 0)
(7.35743 0.0265798 0)
(7.35918 0.0283687 0)
(7.36065 0.0300925 0)
(7.36186 0.0317662 0)
(7.36281 0.0334021 0)
(7.36351 0.0350142 0)
(7.36396 0.0366187 0)
(7.36414 0.0382336 0)
(7.36406 0.0398799 0)
(7.36369 0.0415825 0)
(7.363 0.0433712 0)
(7.36198 0.045282 0)
(7.3606 0.0473591 0)
(7.35883 0.0496561 0)
(7.35663 0.0522389 0)
(7.35398 0.0551883 0)
(7.35084 0.0586046 0)
(7.34719 0.0626124 0)
(7.34303 0.0673667 0)
(7.33838 0.0730609 0)
(7.33333 0.0799342 0)
(7.32804 0.088269 0)
(7.32294 0.0984003 0)
(7.3185 0.110552 0)
(7.31622 0.125016 0)
(7.31677 0.140482 0)
(7.33375 0.00539499 0)
(7.33772 0.01323 0)
(7.34202 0.0185381 0)
(7.34536 0.0228416 0)
(7.34827 0.0262084 0)
(7.35085 0.0287971 0)
(7.35304 0.0309192 0)
(7.35494 0.0327369 0)
(7.3566 0.0343365 0)
(7.35804 0.0357907 0)
(7.35927 0.0371537 0)
(7.36031 0.038465 0)
(7.36114 0.0397568 0)
(7.36177 0.041058 0)
(7.36218 0.0423962 0)
(7.36235 0.0437992 0)
(7.36227 0.0452972 0)
(7.36192 0.0469241 0)
(7.36126 0.0487181 0)
(7.36028 0.0507248 0)
(7.35895 0.0529988 0)
(7.35725 0.0556055 0)
(7.35513 0.0586238 0)
(7.3526 0.062149 0)
(7.34964 0.0662951 0)
(7.34626 0.0711992 0)
(7.3425 0.0770214 0)
(7.33848 0.0839465 0)
(7.33437 0.092159 0)
(7.33052 0.101847 0)
(7.32734 0.113009 0)
(7.32576 0.125603 0)
(7.32613 0.138411 0)
(7.33346 0.00450353 0)
(7.3362 0.0112252 0)
(7.33955 0.0154127 0)
(7.34242 0.0185413 0)
(7.34506 0.0210672 0)
(7.34753 0.0231645 0)
(7.34973 0.0250487 0)
(7.35168 0.0268182 0)
(7.35342 0.0285083 0)
(7.35495 0.0301497 0)
(7.35627 0.0317672 0)
(7.35741 0.0333796 0)
(7.35834 0.0350047 0)
(7.35908 0.0366613 0)
(7.35961 0.0383703 0)
(7.35992 0.0401552 0)
(7.35999 0.0420425 0)
(7.35982 0.0440643 0)
(7.35938 0.0462615 0)
(7.35865 0.048681 0)
(7.35762 0.051378 0)
(7.35627 0.0544173 0)
(7.3546 0.0578761 0)
(7.35258 0.0618448 0)
(7.35025 0.0664286 0)
(7.34763 0.071748 0)
(7.34479 0.0779343 0)
(7.34183 0.0851253 0)
(7.33895 0.0934372 0)
(7.33642 0.102952 0)
(7.33457 0.113576 0)
(7.33395 0.125116 0)
(7.33467 0.136643 0)
(7.33331 0.00384449 0)
(7.33546 0.0102349 0)
(7.33843 0.0149463 0)
(7.34118 0.01885 0)
(7.34372 0.0221759 0)
(7.34607 0.0249644 0)
(7.34815 0.0273664 0)
(7.34999 0.029496 0)
(7.35163 0.0314208 0)
(7.35307 0.0331994 0)
(7.35433 0.0348813 0)
(7.3554 0.0365065 0)
(7.3563 0.0381099 0)
(7.35702 0.039724 0)
(7.35755 0.0413804 0)
(7.35788 0.0431123 0)
(7.35801 0.0449561 0)
(7.35791 0.0469552 0)
(7.35759 0.0491456 0)
(7.35702 0.0515741 0)
(7.35619 0.0542966 0)
(7.3551 0.0573778 0)
(7.35375 0.0608916 0)
(7.35215 0.0649216 0)
(7.35031 0.0695607 0)
(7.34829 0.0749098 0)
(7.34615 0.0810717 0)
(7.344 0.088143 0)
(7.34201 0.096188 0)
(7.34038 0.105224 0)
(7.33934 0.115124 0)
(7.33916 0.125667 0)
(7.33985 0.1362 0)
(7.33321 0.00336693 0)
(7.33483 0.00924085 0)
(7.33725 0.0136708 0)
(7.33961 0.0171821 0)
(7.34184 0.02007 0)
(7.34397 0.0224678 0)
(7.34593 0.0245516 0)
(7.34772 0.0264476 0)
(7.34934 0.0282233 0)
(7.35079 0.0299277 0)
(7.35209 0.0315997 0)
(7.35322 0.0332695 0)
(7.3542 0.0349633 0)
(7.355 0.0367064 0)
(7.35563 0.0385246 0)
(7.35608 0.0404455 0)
(7.35635 0.042499 0)
(7.35642 0.044707 0)
(7.35628 0.0471227 0)
(7.35594 0.0497947 0)
(7.35538 0.0527755 0)
(7.35461 0.056124 0)
(7.35364 0.0599072 0)
(7.35247 0.0641993 0)
(7.35115 0.0690809 0)
(7.34973 0.0746349 0)
(7.34827 0.0809408 0)
(7.34687 0.0880654 0)
(7.34567 0.0960418 0)
(7.34482 0.104857 0)
(7.34444 0.114394 0)
(7.34467 0.124468 0)
(7.3454 0.134658 0)
(7.33315 0.00299547 0)
(7.33442 0.0084316 0)
(7.33648 0.0128011 0)
(7.33865 0.0164411 0)
(7.34075 0.0195921 0)
(7.34279 0.0223342 0)
(7.3447 0.0247703 0)
(7.34644 0.0269876 0)
(7.34802 0.0290414 0)
(7.34945 0.0309774 0)
(7.35073 0.0328373 0)
(7.35186 0.0346568 0)
(7.35284 0.0364689 0)
(7.35367 0.0383052 0)
(7.35434 0.0401974 0)
(7.35486 0.0421791 0)
(7.35522 0.0442871 0)
(7.35541 0.0465719 0)
(7.35543 0.0490651 0)
(7.35528 0.0518095 0)
(7.35496 0.0548572 0)
(7.35449 0.0582662 0)
(7.35386 0.0620996 0)
(7.35312 0.0664249 0)
(7.3523 0.0713118 0)
(7.35143 0.0768291 0)
(7.35061 0.0830386 0)
(7.3499 0.0899872 0)
(7.34942 0.0976924 0)
(7.34926 0.106134 0)
(7.34951 0.115223 0)
(7.35019 0.124836 0)
(7.35119 0.134723 0)
(7.33311 0.0027061 0)
(7.33412 0.00774361 0)
(7.33585 0.0119397 0)
(7.33775 0.0154531 0)
(7.33964 0.0184642 0)
(7.34149 0.0210578 0)
(7.34326 0.0233396 0)
(7.34491 0.0254092 0)
(7.34644 0.0273356 0)
(7.34785 0.0291718 0)
(7.34913 0.0309624 0)
(7.35029 0.0327439 0)
(7.35132 0.0345485 0)
(7.35223 0.0364064 0)
(7.353 0.0383472 0)
(7.35364 0.0404015 0)
(7.35413 0.0425998 0)
(7.35449 0.0449716 0)
(7.35472 0.0475611 0)
(7.35481 0.0504148 0)
(7.35478 0.0535809 0)
(7.35463 0.057111 0)
(7.3544 0.0610605 0)
(7.3541 0.0654874 0)
(7.35378 0.0704502 0)
(7.35349 0.0760044 0)
(7.35329 0.0821978 0)
(7.35326 0.0890645 0)
(7.35346 0.0966155 0)
(7.35398 0.104835 0)
(7.35486 0.113667 0)
(7.3561 0.123047 0)
(7.35758 0.132843 0)
(7.33309 0.00247286 0)
(7.3339 0.00715357 0)
(7.33537 0.0111835 0)
(7.33708 0.0146411 0)
(7.33883 0.0176751 0)
(7.34058 0.0203637 0)
(7.34229 0.0227873 0)
(7.3439 0.0250216 0)
(7.34542 0.0271203 0)
(7.34682 0.0291259 0)
(7.34812 0.0310759 0)
(7.34931 0.0330041 0)
(7.35038 0.0349414 0)
(7.35134 0.0369182 0)
(7.35219 0.0389656 0)
(7.35292 0.0411158 0)
(7.35354 0.043403 0)
(7.35406 0.0458649 0)
(7.35447 0.04854 0)
(7.35479 0.0514687 0)
(7.35502 0.0546953 0)
(7.35519 0.0582676 0)
(7.35532 0.062236 0)
(7.35544 0.0666518 0)
(7.3556 0.0715653 0)
(7.35584 0.0770229 0)
(7.35622 0.0830637 0)
(7.3568 0.0897152 0)
(7.35765 0.0969888 0)
(7.35882 0.104879 0)
(7.36033 0.11336 0)
(7.3622 0.122414 0)
(7.36432 0.131985 0)
(7.33307 0.00228034 0)
(7.33374 0.00664445 0)
(7.335 0.0104962 0)
(7.33652 0.0138532 0)
(7.33811 0.0168179 0)
(7.33973 0.0194529 0)
(7.34133 0.0218246 0)
(7.34287 0.0240027 0)
(7.34434 0.0260439 0)
(7.34572 0.0279952 0)
(7.34702 0.0298978 0)
(7.34822 0.0317885 0)
(7.34934 0.0337001 0)
(7.35037 0.035664 0)
(7.35131 0.0377106 0)
(7.35216 0.0398705 0)
(7.35293 0.0421752 0)
(7.35362 0.044658 0)
(7.35423 0.047355 0)
(7.3548 0.0503053 0)
(7.35532 0.0535502 0)
(7.35582 0.0571324 0)
(7.35632 0.0610956 0)
(7.35687 0.0654837 0)
(7.35751 0.0703386 0)
(7.35827 0.0756983 0)
(7.35922 0.0815946 0)
(7.36041 0.0880507 0)
(7.36189 0.0950792 0)
(7.36372 0.102684 0)
(7.3659 0.110861 0)
(7.36846 0.119623 0)
(7.37134 0.128956 0)
(7.33306 0.00211754 0)
(7.33362 0.00619886 0)
(7.33471 0.00987236 0)
(7.33607 0.0131281 0)
(7.33754 0.0160418 0)
(7.33907 0.0186703 0)
(7.3406 0.0210714 0)
(7.3421 0.0233045 0)
(7.34355 0.025419 0)
(7.34494 0.0274554 0)
(7.34626 0.0294494 0)
(7.34751 0.0314332 0)
(7.34869 0.0334367 0)
(7.34979 0.0354888 0)
(7.35083 0.0376182 0)
(7.3518 0.0398543 0)
(7.35271 0.0422275 0)
(7.35357 0.04477 0)
(7.3544 0.0475159 0)
(7.3552 0.0505007 0)
(7.35599 0.0537612 0)
(7.35681 0.057335 0)
(7.35767 0.0612606 0)
(7.35863 0.0655752 0)
(7.35971 0.0703143 0)
(7.36096 0.0755099 0)
(7.36244 0.0811889 0)
(7.36419 0.0873719 0)
(7.36627 0.0940739 0)
(7.36872 0.101306 0)
(7.37156 0.109077 0)
(7.37483 0.117419 0)
(7.3785 0.126332 0)
(7.33305 0.00197673 0)
(7.33353 0.00580424 0)
(7.33448 0.00930219 0)
(7.33571 0.0124462 0)
(7.33706 0.0152871 0)
(7.33849 0.0178698 0)
(7.33995 0.0202404 0)
(7.3414 0.0224487 0)
(7.34281 0.0245397 0)
(7.34419 0.0265525 0)
(7.34552 0.0285226 0)
(7.34679 0.0304828 0)
(7.34802 0.0324637 0)
(7.3492 0.0344944 0)
(7.35033 0.0366034 0)
(7.35142 0.0388193 0)
(7.35248 0.041171 0)
(7.35351 0.0436886 0)
(7.35454 0.0464031 0)
(7.35558 0.0493464 0)
(7.35665 0.0525514 0)
(7.35778 0.0560509 0)
(7.359 0.0598777 0)
(7.36035 0.0640631 0)
(7.36186 0.0686365 0)
(7.36359 0.0736238 0)
(7.36557 0.0790474 0)
(7.36787 0.0849252 0)
(7.37053 0.0912718 0)
(7.37359 0.0981012 0)
(7.37709 0.105428 0)
(7.38108 0.113288 0)
(7.38554 0.121685 0)
(7.33304 0.00185242 0)
(7.33346 0.00544994 0)
(7.33431 0.00877678 0)
(7.33542 0.0118043 0)
(7.33667 0.0145674 0)
(7.33802 0.0171039 0)
(7.33942 0.0194536 0)
(7.34083 0.0216602 0)
(7.34224 0.0237644 0)
(7.34362 0.0258018 0)
(7.34498 0.0278046 0)
(7.3463 0.0298026 0)
(7.34759 0.0318233 0)
(7.34886 0.0338932 0)
(7.35009 0.0360384 0)
(7.35131 0.0382846 0)
(7.35252 0.0406584 0)
(7.35373 0.0431868 0)
(7.35497 0.0458972 0)
(7.35624 0.048818 0)
(7.35758 0.0519773 0)
(7.359 0.0554032 0)
(7.36056 0.0591228 0)
(7.36227 0.0631621 0)
(7.36418 0.0675444 0)
(7.36635 0.0722909 0)
(7.3688 0.0774191 0)
(7.3716 0.082944 0)
(7.37479 0.0888787 0)
(7.37841 0.0952363 0)
(7.38252 0.102031 0)
(7.38717 0.109295 0)
(7.39237 0.117028 0)
(7.33304 0.00174058 0)
(7.3334 0.00512741 0)
(7.33416 0.00828827 0)
(7.33518 0.0111953 0)
(7.33635 0.0138718 0)
(7.33763 0.0163476 0)
(7.33898 0.0186554 0)
(7.34035 0.0208318 0)
(7.34174 0.022912 0)
(7.34312 0.0249279 0)
(7.3445 0.0269094 0)
(7.34586 0.0288844 0)
(7.34721 0.0308794 0)
(7.34854 0.0329196 0)
(7.34987 0.0350298 0)
(7.35121 0.0372344 0)
(7.35256 0.0395579 0)
(7.35394 0.0420247 0)
(7.35537 0.0446595 0)
(7.35687 0.0474866 0)
(7.35846 0.0505302 0)
(7.36017 0.0538138 0)
(7.36203 0.0573594 0)
(7.36409 0.0611876 0)
(7.36638 0.0653167 0)
(7.36895 0.0697624 0)
(7.37184 0.0745379 0)
(7.3751 0.0796541 0)
(7.37878 0.0851201 0)
(7.38293 0.0909456 0)
(7.38759 0.0971399 0)
(7.39284 0.103725 0)
(7.3987 0.110692 0)
(7.33303 0.00163818 0)
(7.33336 0.00482966 0)
(7.33405 0.00782948 0)
(7.33499 0.0106133 0)
(7.33609 0.0131969 0)
(7.33731 0.0156045 0)
(7.33861 0.017864 0)
(7.33996 0.020007 0)
(7.34134 0.0220648 0)
(7.34274 0.0240665 0)
(7.34414 0.0260394 0)
(7.34555 0.0280087 0)
(7.34696 0.0299987 0)
(7.34838 0.032032 0)
(7.34982 0.0341309 0)
(7.35128 0.0363168 0)
(7.35277 0.0386112 0)
(7.35432 0.0410349 0)
(7.35594 0.0436089 0)
(7.35765 0.0463534 0)
(7.35948 0.049288 0)
(7.36146 0.0524312 0)
(7.36361 0.0558002 0)
(7.36599 0.05941 0)
(7.36862 0.0632737 0)
(7.37155 0.0674018 0)
(7.37482 0.0718025 0)
(7.37849 0.0764817 0)
(7.38259 0.0814437 0)
(7.38719 0.086692 0)
(7.39233 0.0922288 0)
(7.39809 0.0980646 0)
(7.40449 0.104181 0)
(7.33303 0.00154289 0)
(7.33333 0.00455093 0)
(7.33397 0.00739408 0)
(7.33484 0.0100525 0)
(7.33589 0.0125372 0)
(7.33705 0.0148676 0)
(7.33832 0.0170671 0)
(7.33965 0.0191623 0)
(7.34102 0.02118 0)
(7.34242 0.0231457 0)
(7.34385 0.0250835 0)
(7.3453 0.0270162 0)
(7.34677 0.0289654 0)
(7.34827 0.0309518 0)
(7.3498 0.0329952 0)
(7.35137 0.0351149 0)
(7.353 0.0373295 0)
(7.3547 0.0396571 0)
(7.3565 0.0421151 0)
(7.3584 0.0447203 0)
(7.36045 0.047488 0)
(7.36267 0.0504324 0)
(7.36509 0.0535658 0)
(7.36774 0.0568987 0)
(7.37067 0.060439 0)
(7.37392 0.0641923 0)
(7.37753 0.0681616 0)
(7.38155 0.0723475 0)
(7.38602 0.0767484 0)
(7.391 0.0813612 0)
(7.39653 0.0861798 0)
(7.40269 0.0912025 0)
(7.4095 0.0964028 0)
(7.33303 0.00145285 0)
(7.33331 0.00428647 0)
(7.3339 0.00697639 0)
(7.33472 0.00950751 0)
(7.33572 0.0118879 0)
(7.33685 0.0141337 0)
(7.33808 0.0162647 0)
(7.33939 0.0183034 0)
(7.34076 0.0202733 0)
(7.34218 0.0221968 0)
(7.34364 0.0240956 0)
(7.34513 0.0259897 0)
(7.34667 0.0278986 0)
(7.34824 0.0298402 0)
(7.34987 0.0318318 0)
(7.35155 0.0338897 0)
(7.35331 0.0360295 0)
(7.35516 0.0382657 0)
(7.35712 0.040612 0)
(7.35921 0.0430811 0)
(7.36145 0.045684 0)
(7.36389 0.0484303 0)
(7.36654 0.0513277 0)
(7.36944 0.0543814 0)
(7.37263 0.0575946 0)
(7.37615 0.0609676 0)
(7.38004 0.0644981 0)
(7.38434 0.0681811 0)
(7.3891 0.0720088 0)
(7.39436 0.0759714 0)
(7.40018 0.0800549 0)
(7.40663 0.084246 0)
(7.41371 0.0885118 0)
(7.33303 0.00136654 0)
(7.33329 0.00403223 0)
(7.33385 0.00657132 0)
(7.33463 0.00897313 0)
(7.33559 0.0112443 0)
(7.33668 0.013398 0)
(7.3379 0.0154509 0)
(7.3392 0.0174222 0)
(7.34057 0.0193316 0)
(7.342 0.0211984 0)
(7.34349 0.0230409 0)
(7.34503 0.0248767 0)
(7.34662 0.0267223 0)
(7.34826 0.0285929 0)
(7.34998 0.0305032 0)
(7.35176 0.0324665 0)
(7.35364 0.0344955 0)
(7.35562 0.0366016 0)
(7.35772 0.038795 0)
(7.35997 0.0410846 0)
(7.36239 0.0434778 0)
(7.36501 0.0459799 0)
(7.36785 0.0485942 0)
(7.37096 0.0513218 0)
(7.37436 0.0541611 0)
(7.3781 0.0571077 0)
(7.38221 0.0601545 0)
(7.38672 0.0632912 0)
(7.39169 0.0665046 0)
(7.39716 0.0697786 0)
(7.40317 0.0730922 0)
(7.40978 0.076423 0)
(7.417 0.0797329 0)
(7.33302 0.00128272 0)
(7.33327 0.00378476 0)
(7.33381 0.00617433 0)
(7.33456 0.00844472 0)
(7.33549 0.0106018 0)
(7.33656 0.0126569 0)
(7.33775 0.0146241 0)
(7.33905 0.0165196 0)
(7.34043 0.0183602 0)
(7.34188 0.0201622 0)
(7.34339 0.0219415 0)
(7.34497 0.023713 0)
(7.34662 0.0254904 0)
(7.34833 0.0272867 0)
(7.35012 0.0291135 0)
(7.352 0.0309815 0)
(7.35398 0.0329001 0)
(7.35608 0.0348774 0)
(7.35831 0.0369202 0)
(7.36069 0.0390336 0)
(7.36326 0.041221 0)
(7.36603 0.0434838 0)
(7.36904 0.045821 0)
(7.37231 0.0482294 0)
(7.37587 0.0507028 0)
(7.37977 0.0532326 0)
(7.38403 0.0558067 0)
(7.38869 0.0584106 0)
(7.39379 0.0610258 0)
(7.39936 0.0636306 0)
(7.40545 0.0661985 0)
(7.41211 0.0687001 0)
(7.41933 0.0710945 0)
(7.33302 0.00120031 0)
(7.33326 0.00354106 0)
(7.33378 0.00578125 0)
(7.33451 0.00791753 0)
(7.33541 0.0099555 0)
(7.33647 0.0119048 0)
(7.33765 0.0137772 0)
(7.33895 0.0155861 0)
(7.34033 0.0173454 0)
(7.3418 0.0190685 0)
(7.34335 0.0207684 0)
(7.34497 0.0224571 0)
(7.34666 0.0241458 0)
(7.34844 0.0258446 0)
(7.3503 0.0275624 0)
(7.35226 0.0293069 0)
(7.35434 0.0310847 0)
(7.35653 0.0329007 0)
(7.35887 0.0347584 0)
(7.36137 0.0366598 0)
(7.36406 0.0386046 0)
(7.36695 0.0405907 0)
(7.37008 0.0426135 0)
(7.37347 0.0446659 0)
(7.37714 0.0467382 0)
(7.38114 0.0488178 0)
(7.38549 0.0508892 0)
(7.39022 0.0529338 0)
(7.39537 0.054929 0)
(7.40096 0.0568493 0)
(7.40703 0.0586641 0)
(7.41363 0.0603396 0)
(7.42074 0.061835 0)
(7.33302 0.00111835 0)
(7.33326 0.00329851 0)
(7.33375 0.00538852 0)
(7.33447 0.00738802 0)
(7.33536 0.00930272 0)
(7.3364 0.0111411 0)
(7.33758 0.0129134 0)
(7.33888 0.0146306 0)
(7.34027 0.016304 0)
(7.34176 0.0179447 0)
(7.34333 0.0195629 0)
(7.34498 0.0211681 0)
(7.34672 0.0227689 0)
(7.34855 0.0243727 0)
(7.35048 0.0259856 0)
(7.3525 0.0276126 0)
(7.35465 0.0292573 0)
(7.35692 0.0309215 0)
(7.35934 0.0326057 0)
(7.36193 0.0343085 0)
(7.3647 0.0360264 0)
(7.36768 0.0377539 0)
(7.37088 0.0394829 0)
(7.37434 0.041203 0)
(7.37808 0.0429012 0)
(7.38212 0.044562 0)
(7.38649 0.0461664 0)
(7.39122 0.0476925 0)
(7.39633 0.0491151 0)
(7.40186 0.0504056 0)
(7.40781 0.0515312 0)
(7.41424 0.0524552 0)
(7.42112 0.0531391 0)
(7.33302 0.00103599 0)
(7.33325 0.00305458 0)
(7.33374 0.00499217 0)
(7.33445 0.00685069 0)
(7.33533 0.00863575 0)
(7.33637 0.0103546 0)
(7.33755 0.0120154 0)
(7.33885 0.013627 0)
(7.34025 0.0151982 0)
(7.34176 0.0167373 0)
(7.34336 0.018252 0)
(7.34505 0.0197495 0)
(7.34683 0.0212356 0)
(7.34871 0.0227154 0)
(7.35069 0.0241926 0)
(7.35278 0.0256694 0)
(7.35498 0.0271468 0)
(7.35732 0.0286241 0)
(7.35981 0.0300989 0)
(7.36246 0.031567 0)
(7.36529 0.0330221 0)
(7.36832 0.0344559 0)
(7.37156 0.0358577 0)
(7.37505 0.0372145 0)
(7.3788 0.0385108 0)
(7.38283 0.0397283 0)
(7.38717 0.0408458 0)
(7.39183 0.0418395 0)
(7.39684 0.0426823 0)
(7.40221 0.0433442 0)
(7.40797 0.0437919 0)
(7.41413 0.0439881 0)
(7.42069 0.0438976 0)
(7.33302 0.000952467 0)
(7.33325 0.00280732 0)
(7.33373 0.00459015 0)
(7.33443 0.00630528 0)
(7.33531 0.00795878 0)
(7.33635 0.00955734 0)
(7.33752 0.0111079 0)
(7.33883 0.0126174 0)
(7.34025 0.0140925 0)
(7.34177 0.015539 0)
(7.34339 0.0169622 0)
(7.3451 0.0183665 0)
(7.34691 0.0197553 0)
(7.34882 0.0211309 0)
(7.35084 0.0224944 0)
(7.35296 0.0238454 0)
(7.35521 0.0251823 0)
(7.35758 0.0265018 0)
(7.3601 0.0277987 0)
(7.36278 0.0290664 0)
(7.36563 0.0302959 0)
(7.36867 0.0314766 0)
(7.37191 0.0325957 0)
(7.37538 0.0336378 0)
(7.37908 0.0345855 0)
(7.38304 0.0354186 0)
(7.38728 0.0361147 0)
(7.3918 0.0366487 0)
(7.39663 0.0369927 0)
(7.40178 0.0371164 0)
(7.40725 0.0369869 0)
(7.41307 0.0365672 0)
(7.41922 0.0358267 0)
(7.33302 0.000866937 0)
(7.33325 0.00255377 0)
(7.33373 0.00417628 0)
(7.33443 0.00574002 0)
(7.33531 0.0072505 0)
(7.33636 0.00871305 0)
(7.33755 0.0101329 0)
(7.33887 0.011515 0)
(7.3403 0.012864 0)
(7.34185 0.0141837 0)
(7.34349 0.0154774 0)
(7.34524 0.0167475 0)
(7.34708 0.0179955 0)
(7.34902 0.0192216 0)
(7.35107 0.0204249 0)
(7.35323 0.0216031 0)
(7.3555 0.0227521 0)
(7.3579 0.0238667 0)
(7.36044 0.0249396 0)
(7.36313 0.0259622 0)
(7.36598 0.0269239 0)
(7.369 0.0278119 0)
(7.37221 0.0286115 0)
(7.37562 0.0293061 0)
(7.37924 0.0298766 0)
(7.38309 0.030302 0)
(7.38718 0.0305589 0)
(7.39152 0.0306222 0)
(7.39611 0.030464 0)
(7.40098 0.030055 0)
(7.40611 0.0293638 0)
(7.41153 0.0283556 0)
(7.4172 0.0270044 0)
(7.33302 0.000778815 0)
(7.33325 0.00229361 0)
(7.33374 0.0037542 0)
(7.33444 0.00516878 0)
(7.33532 0.00654357 0)
(7.33636 0.00788347 0)
(7.33756 0.00919234 0)
(7.33888 0.0104731 0)
(7.34032 0.0117278 0)
(7.34187 0.0129577 0)
(7.34353 0.0141632 0)
(7.34528 0.0153441 0)
(7.34714 0.0164991 0)
(7.34909 0.0176261 0)
(7.35115 0.0187219 0)
(7.35331 0.0197817 0)
(7.35559 0.0207996 0)
(7.35798 0.0217681 0)
(7.36051 0.0226784 0)
(7.36317 0.02352 0)
(7.36598 0.0242807 0)
(7.36894 0.0249466 0)
(7.37207 0.0255018 0)
(7.37537 0.0259287 0)
(7.37886 0.0262078 0)
(7.38254 0.0263177 0)
(7.38642 0.0262352 0)
(7.39051 0.0259354 0)
(7.39481 0.0253918 0)
(7.39933 0.0245762 0)
(7.40406 0.0234593 0)
(7.40901 0.0220088 0)
(7.41416 0.0202031 0)
(7.33302 0.000686729 0)
(7.33326 0.00201972 0)
(7.33375 0.00330441 0)
(7.33447 0.00454901 0)
(7.33537 0.00575854 0)
(7.33644 0.00693666 0)
(7.33765 0.00808611 0)
(7.339 0.00920875 0)
(7.34047 0.0103057 0)
(7.34205 0.0113773 0)
(7.34373 0.0124228 0)
(7.34551 0.0134406 0)
(7.34738 0.0144282 0)
(7.34935 0.0153819 0)
(7.35142 0.0162969 0)
(7.35359 0.0171668 0)
(7.35587 0.0179843 0)
(7.35825 0.0187405 0)
(7.36075 0.0194249 0)
(7.36337 0.0200257 0)
(7.36612 0.0205295 0)
(7.36901 0.0209212 0)
(7.37204 0.0211842 0)
(7.37521 0.0213003 0)
(7.37854 0.0212497 0)
(7.38203 0.0210113 0)
(7.38568 0.0205623 0)
(7.38949 0.0198789 0)
(7.39347 0.0189362 0)
(7.39761 0.017708 0)
(7.40191 0.0161683 0)
(7.40636 0.0142883 0)
(7.41095 0.0120508 0)
(7.33302 0.000590958 0)
(7.33326 0.00174045 0)
(7.33376 0.00285881 0)
(7.33448 0.00395769 0)
(7.33538 0.00504185 0)
(7.33645 0.00611291 0)
(7.33766 0.00717042 0)
(7.33901 0.00821258 0)
(7.34048 0.0092367 0)
(7.34205 0.0102394 0)
(7.34373 0.0112168 0)
(7.34551 0.0121647 0)
(7.34738 0.0130784 0)
(7.34934 0.0139524 0)
(7.3514 0.01478 0)
(7.35354 0.0155536 0)
(7.35578 0.0162647 0)
(7.35813 0.016903 0)
(7.36057 0.0174576 0)
(7.36311 0.0179158 0)
(7.36577 0.018264 0)
(7.36853 0.0184868 0)
(7.37142 0.0185678 0)
(7.37442 0.0184891 0)
(7.37754 0.0182315 0)
(7.38078 0.0177747 0)
(7.38414 0.0170972 0)
(7.38763 0.016177 0)
(7.39123 0.0149908 0)
(7.39495 0.0135146 0)
(7.39877 0.0117249 0)
(7.4027 0.00959706 0)
(7.40671 0.00711402 0)
(7.33303 0.00048679 0)
(7.33328 0.0014252 0)
(7.33382 0.00233216 0)
(7.33458 0.00321951 0)
(7.33553 0.00409208 0)
(7.33664 0.00495238 0)
(7.3379 0.00580098 0)
(7.33929 0.00663743 0)
(7.34079 0.00746002 0)
(7.34239 0.00826531 0)
(7.34409 0.00904881 0)
(7.34588 0.00980525 0)
(7.34776 0.0105286 0)
(7.34973 0.0112117 0)
(7.35177 0.0118467 0)
(7.3539 0.0124243 0)
(7.35611 0.0129344 0)
(7.35841 0.013366 0)
(7.36079 0.0137067 0)
(7.36326 0.0139434 0)
(7.36581 0.0140615 0)
(7.36846 0.0140454 0)
(7.37119 0.0138782 0)
(7.37401 0.0135423 0)
(7.37692 0.0130191 0)
(7.37992 0.0122891 0)
(7.383 0.0113328 0)
(7.38615 0.0101297 0)
(7.38938 0.00865944 0)
(7.39267 0.00689914 0)
(7.39602 0.00483298 0)
(7.39941 0.00243695 0)
(7.40281 -0.000294684 0)
(7.33302 0.000381482 0)
(7.33327 0.00113325 0)
(7.3338 0.00189291 0)
(7.33456 0.0026716 0)
(7.3355 0.00346659 0)
(7.33661 0.00427261 0)
(7.33786 0.00508138 0)
(7.33925 0.00588501 0)
(7.34074 0.00667661 0)
(7.34235 0.00744963 0)
(7.34404 0.00819754 0)
(7.34582 0.00891362 0)
(7.34769 0.00959083 0)
(7.34962 0.0102216 0)
(7.35164 0.0107977 0)
(7.35372 0.0113095 0)
(7.35588 0.0117471 0)
(7.3581 0.0120994 0)
(7.36039 0.0123549 0)
(7.36274 0.0125009 0)
(7.36516 0.0125238 0)
(7.36764 0.0124091 0)
(7.37018 0.0121412 0)
(7.37278 0.0117038 0)
(7.37544 0.0110789 0)
(7.37814 0.010249 0)
(7.38088 0.00919574 0)
(7.38367 0.00790278 0)
(7.38648 0.00634838 0)
(7.38931 0.00451015 0)
(7.39216 0.00237454 0)
(7.39501 -7.97157e-05 0)
(7.39784 -0.00285106 0)
(7.33303 0.000246725 0)
(7.33334 0.000706071 0)
(7.33397 0.00115887 0)
(7.33482 0.00162612 0)
(7.33585 0.00211259 0)
(7.33704 0.00261872 0)
(7.33835 0.0031422 0)
(7.33979 0.00368099 0)
(7.34132 0.00422711 0)
(7.34294 0.00477004 0)
(7.34465 0.00530025 0)
(7.34643 0.00580882 0)
(7.34829 0.00628667 0)
(7.35021 0.00672442 0)
(7.3522 0.00711188 0)
(7.35424 0.00743784 0)
(7.35634 0.0076906 0)
(7.3585 0.00785808 0)
(7.3607 0.00792793 0)
(7.36296 0.00788732 0)
(7.36526 0.00772193 0)
(7.36759 0.00741666 0)
(7.36997 0.00695583 0)
(7.37237 0.00632363 0)
(7.37479 0.00550508 0)
(7.37723 0.0044824 0)
(7.37967 0.00324112 0)
(7.38212 0.00177205 0)
(7.38454 5.11889e-05 0)
(7.38693 -0.00193028 0)
(7.3893 -0.00419562 0)
(7.39161 -0.00675965 0)
(7.39386 -0.00962596 0)
(7.33302 0.000146774 0)
(7.33328 0.000474382 0)
(7.33387 0.000880033 0)
(7.33471 0.00135729 0)
(7.33573 0.00188389 0)
(7.33692 0.00244471 0)
(7.33825 0.00300643 0)
(7.3397 0.00356598 0)
(7.34125 0.00412116 0)
(7.34289 0.00466377 0)
(7.3446 0.00518483 0)
(7.34637 0.00567625 0)
(7.34821 0.00613031 0)
(7.35011 0.00653917 0)
(7.35205 0.00689269 0)
(7.35404 0.00718045 0)
(7.35607 0.00739309 0)
(7.35814 0.00752073 0)
(7.36023 0.00755255 0)
(7.36235 0.00747807 0)
(7.36448 0.00728567 0)
(7.36662 0.00696289 0)
(7.36877 0.00649668 0)
(7.37091 0.00587642 0)
(7.37305 0.00507314 0)
(7.37516 0.00407953 0)
(7.37727 0.00288621 0)
(7.37933 0.00146715 0)
(7.38135 -0.000180689 0)
(7.3833 -0.0020649 0)
(7.38517 -0.00420338 0)
(7.38696 -0.00661116 0)
(7.38865 -0.00929098 0)
(7.33306 -8.16483e-05 0)
(7.33351 -0.000276311 0)
(7.33431 -0.000413662 0)
(7.33532 -0.000457892 0)
(7.33647 -0.000411263 0)
(7.33773 -0.000281632 0)
(7.33909 -6.35156e-05 0)
(7.34056 0.00021002 0)
(7.34213 0.000511211 0)
(7.34377 0.000824359 0)
(7.34548 0.00113584 0)
(7.34724 0.00143229 0)
(7.34907 0.00170207 0)
(7.35094 0.00194117 0)
(7.35284 0.00213784 0)
(7.35478 0.00227519 0)
(7.35676 0.00234049 0)
(7.35875 0.00232206 0)
(7.36076 0.00220997 0)
(7.36279 0.00200115 0)
(7.36481 0.00167765 0)
(7.36683 0.00122206 0)
(7.36883 0.000622321 0)
(7.37079 -0.000136094 0)
(7.3727 -0.00105237 0)
(7.37459 -0.00214273 0)
(7.3764 -0.00342813 0)
(7.37814 -0.00492727 0)
(7.37982 -0.00664233 0)
(7.3814 -0.00858827 0)
(7.38286 -0.0107698 0)
(7.38419 -0.0131961 0)
(7.38538 -0.0158669 0)
(7.33301 -0.000141921 0)
(7.33331 -0.000263012 0)
(7.33405 -0.000185837 0)
(7.33507 -2.15435e-06 0)
(7.33627 0.000240838 0)
(7.33764 0.000528049 0)
(7.33914 0.000859785 0)
(7.3407 0.00120493 0)
(7.34232 0.00154405 0)
(7.344 0.00187017 0)
(7.34572 0.00217808 0)
(7.3475 0.00246191 0)
(7.34931 0.0027147 0)
(7.35116 0.00292222 0)
(7.35303 0.00307935 0)
(7.35491 0.00318573 0)
(7.35679 0.00323482 0)
(7.35867 0.00321793 0)
(7.36056 0.00312388 0)
(7.36243 0.00293355 0)
(7.36427 0.00264227 0)
(7.36606 0.00224527 0)
(7.3678 0.00173227 0)
(7.36951 0.00108855 0)
(7.37116 0.000317808 0)
(7.37272 -0.000599442 0)
(7.37418 -0.00167895 0)
(7.37555 -0.0029217 0)
(7.3768 -0.00434546 0)
(7.37793 -0.00596188 0)
(7.37892 -0.0077782 0)
(7.37976 -0.00980498 0)
(7.38046 -0.012042 0)
(7.33314 -0.000726926 0)
(7.33395 -0.0020353 0)
(7.33507 -0.00290505 0)
(7.33626 -0.00344028 0)
(7.33755 -0.00374279 0)
(7.33892 -0.00385989 0)
(7.34037 -0.00386384 0)
(7.34188 -0.0037906 0)
(7.34346 -0.00366301 0)
(7.3451 -0.0035038 0)
(7.34679 -0.00333291 0)
(7.34853 -0.00316655 0)
(7.3503 -0.00301923 0)
(7.35209 -0.00291091 0)
(7.35391 -0.00285029 0)
(7.35575 -0.00283992 0)
(7.3576 -0.00288767 0)
(7.35944 -0.00300275 0)
(7.36126 -0.00319628 0)
(7.36304 -0.00348713 0)
(7.3648 -0.00387811 0)
(7.36652 -0.00437272 0)
(7.36818 -0.00498007 0)
(7.36976 -0.00570706 0)
(7.37126 -0.00657618 0)
(7.37265 -0.00759106 0)
(7.37392 -0.00875428 0)
(7.37507 -0.0100743 0)
(7.37607 -0.0115597 0)
(7.37691 -0.013217 0)
(7.37757 -0.0150511 0)
(7.37804 -0.0170678 0)
(7.3783 -0.0192644 0)
(7.33307 -0.00030758 0)
(7.33389 -0.000682702 0)
(7.33534 -0.000856346 0)
(7.33691 -0.00098461 0)
(7.33855 -0.00105801 0)
(7.34026 -0.00108278 0)
(7.34201 -0.00108279 0)
(7.34379 -0.00106275 0)
(7.34558 -0.00102643 0)
(7.3474 -0.000981687 0)
(7.34923 -0.00093531 0)
(7.35107 -0.000892599 0)
(7.35293 -0.000858101 0)
(7.3548 -0.000830075 0)
(7.35667 -0.000814421 0)
(7.35853 -0.00082229 0)
(7.36038 -0.000861173 0)
(7.36221 -0.000937517 0)
(7.36401 -0.00105591 0)
(7.36577 -0.00121461 0)
(7.36748 -0.00142561 0)
(7.36913 -0.00170077 0)
(7.37071 -0.00204741 0)
(7.37221 -0.00247191 0)
(7.37363 -0.00298055 0)
(7.37495 -0.00357979 0)
(7.37616 -0.00427716 0)
(7.37726 -0.00508005 0)
(7.37824 -0.00599559 0)
(7.37908 -0.00703102 0)
(7.3798 -0.00819211 0)
(7.38038 -0.00948766 0)
(7.38083 -0.0109147 0)
(7.33438 -0.0035054 0)
(7.33921 -0.00654072 0)
(7.34501 -0.00773581 0)
(7.35133 -0.0084528 0)
(7.35803 -0.00878669 0)
(7.3649 -0.0088539 0)
(7.37181 -0.0088043 0)
(7.3787 -0.0087033 0)
(7.38557 -0.0085797 0)
(7.39239 -0.00845562 0)
(7.39916 -0.00834624 0)
(7.40588 -0.0082612 0)
(7.41257 -0.00820763 0)
(7.41924 -0.00819162 0)
(7.42589 -0.00822014 0)
(7.43255 -0.0082995 0)
(7.43922 -0.00843459 0)
(7.44593 -0.0086304 0)
(7.45267 -0.00889255 0)
(7.45946 -0.00922615 0)
(7.46632 -0.00963689 0)
(7.47325 -0.0101306 0)
(7.48025 -0.0107131 0)
(7.48734 -0.0113907 0)
(7.49452 -0.0121708 0)
(7.50179 -0.0130597 0)
(7.50915 -0.0140634 0)
(7.51659 -0.0151879 0)
(7.52413 -0.0164397 0)
(7.53174 -0.0178248 0)
(7.53943 -0.01935 0)
(7.54718 -0.0210212 0)
(7.55496 -0.0228428 0)
(7.32977 -0.00393007 0)
(7.32451 -0.00818467 0)
(7.31579 -0.0106196 0)
(7.30539 -0.0123968 0)
(7.29472 -0.0136458 0)
(7.28388 -0.0144949 0)
(7.27297 -0.0150973 0)
(7.26215 -0.0155419 0)
(7.2515 -0.0158827 0)
(7.24102 -0.016162 0)
(7.23073 -0.0164123 0)
(7.2206 -0.0166577 0)
(7.21063 -0.0169168 0)
(7.20077 -0.0172046 0)
(7.19101 -0.0175333 0)
(7.1813 -0.0179135 0)
(7.17161 -0.0183542 0)
(7.16189 -0.0188635 0)
(7.15209 -0.0194485 0)
(7.14218 -0.0201159 0)
(7.1321 -0.0208724 0)
(7.12182 -0.0217242 0)
(7.11128 -0.0226768 0)
(7.10044 -0.023735 0)
(7.08925 -0.024903 0)
(7.07767 -0.0261842 0)
(7.06564 -0.0275817 0)
(7.05313 -0.0290979 0)
(7.0401 -0.0307348 0)
(7.02649 -0.0324922 0)
(7.01228 -0.0343711 0)
(6.99742 -0.036365 0)
(6.98191 -0.0384773 0)
(3.50178 0.0852258 0)
(3.43154 0.112976 0)
(3.429 0.129823 0)