# y+ ()       
# Time        	patch         	min           	max           	average       
1300          	lowerWall	5.055093e+00	7.928180e+01	4.294877e+01
1300          	upperWall	3.060454e+01	4.718883e+01	4.149736e+01
