/*--------------------------------*- C++ -*----------------------------------*\
  =========                 |
  \\      /  F ield         | OpenFOAM: The Open Source CFD Toolbox
   \\    /   O peration     | Website:  https://openfoam.org
    \\  /    A nd           | Version:  10
     \\/     M anipulation  |
\*---------------------------------------------------------------------------*/
FoamFile
{
    format      ascii;
    class       volScalarField;
    location    "0.005";
    object      k;
}
// * * * * * * * * * * * * * * * * * * * * * * * * * * * * * * * * * * * * * //

dimensions      [0 2 -2 0 0 0 0];

internalField   nonuniform List<scalar> 
6820
(
0.198356
0.194864
0.191498
0.18842
0.185163
0.181117
0.177901
0.181154
0.197855
0.228399
0.263876
0.290532
0.297975
0.284797
0.258011
0.228036
0.203379
0.187804
0.180618
0.178948
0.179828
0.181273
0.182392
0.183012
0.183267
0.183328
0.183302
0.183216
0.183066
0.182721
0.182406
0.180621
0.18235
0.200919
0.200814
0.200237
0.199509
0.198467
0.196929
0.195007
0.193092
0.191477
0.190004
0.187943
0.184575
0.180025
0.175103
0.170749
0.16751
0.165423
0.164123
0.163115
0.162048
0.16073
0.15903
0.156891
0.15434
0.151415
0.148091
0.144286
0.139893
0.134805
0.128859
0.121999
0.113602
0.104517
0.236945
0.0156692
0.01314
0.0104435
0.00559723
0.00523555
0.00539677
0.00531084
0.00528931
0.00328756
0.00302645
0.00581755
0.00792749
0.00780764
0.00663204
0.00545531
0.00469433
0.0040944
0.00335047
0.00276295
0.00250306
0.00215288
0.00146201
0.000859254
0.000938602
0.00179036
0.00314189
0.00480677
0.00680112
0.00934412
0.0127087
0.0178889
0.0245215
0.210963
0.147031
0.10269
0.0760357
0.0588409
0.0458607
0.0340667
0.0223191
0.0117702
0.00458375
0.00139378
0.000843394
0.00129372
0.00195221
0.00262898
0.00343544
0.00462231
0.00643205
0.00902494
0.012511
0.0170383
0.0228612
0.030339
0.039862
0.0517205
0.0659639
0.0822927
0.10008
0.118438
0.136463
0.153336
0.168559
0.181951
0.222171
0.0891987
0.0276928
0.00806037
0.00273276
0.00143818
0.000942372
0.000676371
0.0040354
0.0200359
0.0538532
0.0929751
0.118625
0.124946
0.120157
0.116289
0.120751
0.134035
0.151993
0.169492
0.183047
0.191603
0.195922
0.197512
0.197763
0.197572
0.197346
0.197174
0.197003
0.196742
0.196367
0.195812
0.195141
0.212117
0.138579
0.0945373
0.0752892
0.0673435
0.0630701
0.0629672
0.0724803
0.0942227
0.122474
0.146348
0.156927
0.152231
0.137682
0.122625
0.115336
0.119367
0.13294
0.151014
0.168296
0.181387
0.189352
0.193055
0.194075
0.193851
0.193314
0.192892
0.192684
0.192649
0.192709
0.192826
0.192959
0.193125
0.210242
0.148067
0.112093
0.0972272
0.0924192
0.091089
0.092458
0.0992461
0.114187
0.134902
0.153324
0.16103
0.155114
0.13997
0.124393
0.116536
0.120032
0.133193
0.151021
0.168202
0.181288
0.189297
0.193061
0.194141
0.193973
0.19349
0.193121
0.192965
0.19298
0.193087
0.193239
0.193398
0.193563
0.206624
0.167046
0.143211
0.130997
0.12271
0.113789
0.105731
0.104942
0.11599
0.13563
0.154175
0.162161
0.156316
0.141014
0.12513
0.116917
0.120104
0.133065
0.150811
0.168001
0.181143
0.189216
0.193032
0.194148
0.194009
0.193551
0.193208
0.193079
0.193119
0.19325
0.193421
0.1936
0.193779
0.20753
0.162158
0.140296
0.131943
0.125388
0.115431
0.105728
0.104802
0.117074
0.137886
0.156691
0.164153
0.157521
0.141518
0.125113
0.116547
0.119539
0.132457
0.150284
0.167622
0.180917
0.189109
0.193
0.194159
0.194046
0.193611
0.193292
0.193188
0.193254
0.193411
0.193602
0.193798
0.193991
0.208506
0.156786
0.134936
0.127829
0.121432
0.110807
0.101487
0.102881
0.118123
0.140778
0.159733
0.166263
0.158472
0.14155
0.12454
0.115627
0.118486
0.13146
0.149481
0.16707
0.180597
0.188959
0.192952
0.194164
0.194079
0.193666
0.193369
0.193291
0.193382
0.193562
0.193772
0.193985
0.194187
0.20905
0.153308
0.131334
0.12461
0.118051
0.107556
0.099915
0.104286
0.12211
0.145598
0.163679
0.168568
0.159228
0.141194
0.123486
0.114197
0.116955
0.130065
0.148386
0.166332
0.180175
0.188761
0.192883
0.194159
0.194106
0.193715
0.193441
0.193388
0.193504
0.193706
0.193935
0.194163
0.194371
0.208733
0.154082
0.133196
0.126761
0.119568
0.108548
0.101695
0.107965
0.12728
0.150755
0.1675
0.170594
0.159681
0.140513
0.122069
0.112376
0.115041
0.128341
0.147042
0.165428
0.179655
0.188511
0.192789
0.194142
0.194125
0.193757
0.193506
0.193479
0.19362
0.193845
0.194092
0.194333
0.194545
0.207508
0.159684
0.140909
0.134548
0.126248
0.113981
0.106873
0.113765
0.133353
0.155994
0.171072
0.17234
0.15989
0.139584
0.120358
0.11022
0.112792
0.12632
0.145469
0.164368
0.179042
0.18821
0.192669
0.19411
0.194135
0.193793
0.193568
0.193567
0.193733
0.19398
0.194246
0.194497
0.194711
0.205794
0.168231
0.152241
0.145871
0.136206
0.12209
0.113797
0.120297
0.139353
0.160772
0.17417
0.173756
0.159875
0.138439
0.118385
0.107762
0.110237
0.124035
0.143694
0.163172
0.178346
0.187864
0.192525
0.194066
0.194138
0.193825
0.193627
0.193653
0.193845
0.194114
0.194396
0.194656
0.194874
0.204105
0.17702
0.164116
0.157851
0.146898
0.13086
0.121114
0.126805
0.144956
0.165023
0.176833
0.174875
0.159623
0.137029
0.116093
0.10496
0.107364
0.121491
0.141734
0.161858
0.177583
0.187482
0.192364
0.194013
0.194137
0.193856
0.193685
0.19374
0.193958
0.194248
0.194543
0.194811
0.195034
0.202745
0.184271
0.174417
0.168557
0.156689
0.139017
0.127932
0.132759
0.149929
0.168684
0.179033
0.175637
0.159039
0.135259
0.113419
0.101796
0.104187
0.118723
0.139627
0.160457
0.176772
0.187076
0.19219
0.193956
0.194135
0.193888
0.193747
0.19383
0.194074
0.194381
0.194688
0.194966
0.195196
0.201774
0.189522
0.182408
0.177234
0.164897
0.146027
0.133912
0.138005
0.154257
0.171804
0.180805
0.176023
0.158059
0.133052
0.110301
0.0982344
0.100697
0.115732
0.137376
0.158971
0.175916
0.18665
0.192011
0.193899
0.194138
0.193928
0.193817
0.193927
0.194192
0.194515
0.194835
0.195122
0.195359
0.201124
0.193071
0.188225
0.183902
0.171487
0.151842
0.139005
0.142525
0.15798
0.174451
0.182202
0.176041
0.156637
0.130323
0.106639
0.0941818
0.0968178
0.112467
0.134949
0.157383
0.175008
0.186203
0.191831
0.193853
0.194157
0.193983
0.193899
0.19403
0.194313
0.194652
0.194982
0.195277
0.195519
0.200701
0.1954
0.192319
0.188875
0.17666
0.156587
0.143292
0.146389
0.161174
0.176691
0.183228
0.175599
0.154598
0.126855
0.102233
0.0894935
0.0924705
0.108897
0.132346
0.155704
0.174062
0.185752
0.191664
0.19383
0.194199
0.194056
0.193992
0.19414
0.194437
0.194786
0.195123
0.195421
0.195671
0.200428
0.196917
0.19515
0.192521
0.180676
0.160432
0.146869
0.149665
0.163906
0.178574
0.183894
0.174657
0.151864
0.122573
0.0970423
0.0841798
0.0877049
0.105092
0.129631
0.153986
0.173116
0.18532
0.191528
0.193836
0.194264
0.194143
0.19409
0.194249
0.194555
0.19491
0.195252
0.195558
0.195821
0.200251
0.197909
0.19709
0.195165
0.183767
0.163522
0.149821
0.152401
0.166207
0.180135
0.184283
0.173404
0.148764
0.117917
0.091536
0.0786504
0.08282
0.101233
0.126899
0.15227
0.172186
0.184912
0.191413
0.193857
0.194334
0.194227
0.19418
0.194343
0.194657
0.195023
0.195379
0.195701
0.195984
0.200137
0.198562
0.19841
0.197057
0.186129
0.166009
0.152263
0.154677
0.168108
0.181397
0.184524
0.172207
0.145944
0.113716
0.0865616
0.0736181
0.0783233
0.0976336
0.124318
0.150632
0.171287
0.184505
0.191282
0.193853
0.194376
0.194283
0.194244
0.194422
0.194757
0.195148
0.195528
0.19587
0.196171
0.200063
0.198993
0.199296
0.198388
0.187917
0.168003
0.154277
0.15655
0.169639
0.182373
0.184659
0.171185
0.143616
0.110257
0.0824338
0.0693842
0.0744748
0.0944944
0.122017
0.149126
0.170416
0.184068
0.191097
0.193794
0.194376
0.194318
0.194311
0.194524
0.194894
0.195316
0.195719
0.196077
0.196386
0.200016
0.199276
0.199877
0.199297
0.189245
0.169588
0.155921
0.158065
0.170835
0.183087
0.184703
0.170362
0.14183
0.10762
0.0792462
0.0660325
0.0713234
0.0918217
0.119977
0.147735
0.16958
0.183633
0.190914
0.193754
0.194416
0.194412
0.194451
0.194702
0.195101
0.195542
0.195954
0.196313
0.196619
0.199988
0.199457
0.200238
0.199884
0.190199
0.170815
0.157205
0.159223
0.171703
0.18354
0.184647
0.169717
0.140566
0.105792
0.0769986
0.0635729
0.0689023
0.089692
0.118329
0.146641
0.168989
0.183419
0.190933
0.193896
0.194619
0.194648
0.194706
0.19497
0.195374
0.195813
0.196218
0.196565
0.196856
0.199973
0.199565
0.200436
0.20022
0.190816
0.171631
0.158068
0.160009
0.172247
0.183734
0.184471
0.169204
0.139756
0.104719
0.075699
0.0621224
0.067449
0.0884344
0.117437
0.146184
0.168919
0.183613
0.191265
0.194277
0.195001
0.195015
0.195055
0.195302
0.195689
0.196108
0.196493
0.196819
0.197089
0.199967
0.199616
0.200512
0.200339
0.191058
0.171998
0.158551
0.160475
0.172494
0.183668
0.184145
0.168757
0.139313
0.104331
0.0753475
0.0617925
0.0671977
0.0883714
0.117643
0.146648
0.169551
0.184303
0.191926
0.194866
0.195515
0.195466
0.195459
0.195668
0.196021
0.19641
0.196764
0.197064
0.197311
0.19997
0.199622
0.200478
0.200257
0.191001
0.172039
0.15872
0.160629
0.172435
0.183327
0.183641
0.168324
0.139164
0.10454
0.0758494
0.0624928
0.0680693
0.0894304
0.118867
0.147947
0.170803
0.185409
0.192842
0.195603
0.196111
0.195962
0.195886
0.196043
0.196353
0.196703
0.197024
0.197296
0.197521
0.199981
0.199584
0.200333
0.19998
0.190719
0.171942
0.158762
0.160578
0.172105
0.182705
0.182925
0.167853
0.139241
0.105267
0.0771127
0.0641128
0.0699254
0.0914407
0.120922
0.149898
0.172513
0.186799
0.193915
0.196415
0.196737
0.196466
0.196309
0.196407
0.196669
0.19698
0.197268
0.197513
0.197719
0.2
0.199509
0.200091
0.199534
0.190175
0.171473
0.158359
0.160076
0.171355
0.181706
0.181913
0.167247
0.139419
0.106345
0.0789277
0.0664084
0.0724921
0.0941117
0.123521
0.152243
0.174465
0.188312
0.19503
0.197225
0.197341
0.196941
0.196702
0.196743
0.196961
0.197235
0.197495
0.197718
0.197907
0.20003
0.199376
0.199673
0.198751
0.189339
0.171096
0.158168
0.159563
0.170361
0.180358
0.180576
0.166446
0.139602
0.107628
0.081097
0.0691386
0.0755023
0.0971694
0.126405
0.154755
0.176482
0.189817
0.1961
0.197978
0.197891
0.197369
0.197056
0.197047
0.197227
0.197471
0.197706
0.19791
0.198083
0.200068
0.199211
0.199145
0.197783
0.188078
0.16976
0.156744
0.157986
0.168564
0.17838
0.178733
0.165293
0.139624
0.10893
0.0834132
0.0720787
0.0787176
0.100371
0.129341
0.157231
0.1784
0.191197
0.197044
0.198621
0.198351
0.197727
0.197355
0.197306
0.197455
0.197672
0.197884
0.198069
0.198226
0.200145
0.198865
0.197955
0.195634
0.186068
0.169161
0.156672
0.157202
0.166818
0.175999
0.176359
0.163715
0.139422
0.110182
0.0857816
0.0751059
0.0819963
0.103572
0.132202
0.159574
0.180162
0.192428
0.197868
0.19918
0.198758
0.198053
0.197636
0.197556
0.197677
0.197869
0.198059
0.198224
0.198365
0.200239
0.198456
0.196429
0.192743
0.182318
0.16527
0.152778
0.153261
0.162794
0.171966
0.172761
0.161284
0.138704
0.111177
0.0880591
0.078121
0.0852786
0.106763
0.135044
0.161917
0.181973
0.193779
0.19889
0.200006
0.199491
0.198754
0.198331
0.198253
0.198379
0.198578
0.198777
0.198955
0.19911
0.200583
0.196868
0.191371
0.184046
0.173046
0.159766
0.151027
0.15204
0.159999
0.167595
0.168103
0.157867
0.137421
0.11201
0.0904289
0.0813328
0.088751
0.11007
0.137905
0.164191
0.183668
0.195017
0.199847
0.20085
0.200339
0.199673
0.199351
0.199384
0.199625
0.199944
0.200268
0.200574
0.200868
0.201753
0.191207
0.173904
0.152778
0.130189
0.112252
0.106803
0.115485
0.130332
0.142182
0.146036
0.140221
0.125541
0.105918
0.0885779
0.0813077
0.0880249
0.106513
0.130194
0.152096
0.167958
0.176987
0.180758
0.181588
0.181368
0.181158
0.181316
0.181819
0.182532
0.183335
0.184166
0.184978
0.185967
0.206198
0.16943
0.133771
0.108556
0.0929358
0.0858012
0.0862652
0.091781
0.098173
0.10205
0.102117
0.0980448
0.0897321
0.0783919
0.0677032
0.0624677
0.0653407
0.0749415
0.0871186
0.0977796
0.104795
0.108128
0.108911
0.108462
0.107732
0.107194
0.106973
0.107029
0.107287
0.107689
0.108183
0.108829
0.109411
0.240177
0.000758502
0.00106195
0.00041669
0.000427615
0.000202989
0.00580899
0.00422932
0.00122523
0.00132323
0.00181736
0.00212744
0.00246013
0.00276352
0.00300236
0.00321309
0.00343369
0.00368224
0.00396625
0.00428878
0.00464928
0.00504422
0.00546859
0.00591716
0.00638509
0.00686808
0.00736226
0.00786406
0.0083701
0.00887705
0.00938191
0.00988116
0.0103741
0.200088
0.199996
0.199897
0.199843
0.199813
0.199823
0.199977
0.200458
0.20136
0.202551
0.203684
0.204392
0.204507
0.204139
0.203563
0.20306
0.202792
0.202784
0.202973
0.203273
0.203618
0.203973
0.204325
0.204676
0.205026
0.205379
0.205732
0.206083
0.206431
0.206773
0.207104
0.20743
0.207725
0.19987
0.199532
0.199167
0.198709
0.198009
0.197171
0.196947
0.198581
0.202946
0.209616
0.216765
0.221964
0.223208
0.22021
0.214461
0.208175
0.203118
0.200014
0.198668
0.198439
0.198698
0.199049
0.199332
0.199538
0.199704
0.199869
0.200051
0.200255
0.200479
0.20072
0.200972
0.201239
0.201478
0.17652
0.166334
0.141763
0.103732
0.10745
0.162788
0.206091
0.216004
0.211931
0.207811
0.205385
0.20346
0.201645
0.200093
0.198952
0.198234
0.197856
0.197706
0.197689
0.197745
0.197835
0.197931
0.198011
0.198065
0.198085
0.198074
0.198034
0.197971
0.197892
0.197799
0.197693
0.197572
0.197435
0.197282
0.197112
0.196922
0.19671
0.196474
0.196211
0.195917
0.195589
0.19522
0.194805
0.194336
0.193806
0.193201
0.192509
0.191712
0.190787
0.189707
0.188433
0.186919
0.185102
0.182901
0.180211
0.176897
0.172788
0.167673
0.161299
0.153383
0.14364
0.131835
0.117888
0.101996
0.0847435
0.0671179
0.0503565
0.0356436
0.0237778
0.014989
0.00898753
0.0051805
0.00291224
0.00162524
0.000918548
0.000535624
0.000326034
0.000209072
0.000145571
0.000115281
0.000103797
9.94802e-05
9.54954e-05
9.05243e-05
8.59266e-05
8.25494e-05
8.01454e-05
7.83012e-05
7.69922e-05
7.63073e-05
7.62425e-05
7.65271e-05
7.69218e-05
7.70837e-05
7.70646e-05
7.5703e-05
8.57024e-05
1.57484e-05
0.000796166
0.0173695
0.0889645
0.0751006
0.0705392
0.093439
0.148103
0.193582
0.20949
0.209388
0.206997
0.205447
0.204057
0.202529
0.201041
0.199772
0.19881
0.19817
0.197808
0.197647
0.197613
0.197655
0.197738
0.197838
0.197935
0.198011
0.198057
0.198069
0.198048
0.197997
0.197925
0.197835
0.19773
0.197612
0.197479
0.197329
0.197163
0.196978
0.196774
0.196547
0.196296
0.196017
0.195707
0.195363
0.194977
0.194546
0.19406
0.19351
0.192886
0.192172
0.191349
0.190393
0.189274
0.187951
0.186372
0.18447
0.182154
0.179313
0.175798
0.171428
0.16598
0.159193
0.150788
0.140501
0.128157
0.113764
0.0976316
0.0804431
0.0632222
0.0471475
0.0332572
0.022177
0.0140087
0.00841793
0.00483932
0.00267746
0.00143347
0.000745797
0.000374992
0.000176478
7.33299e-05
2.5693e-05
8.88141e-06
5.78877e-06
6.12664e-06
6.2203e-06
5.98225e-06
5.87422e-06
5.94553e-06
6.07349e-06
6.20412e-06
6.33289e-06
6.45515e-06
6.56192e-06
6.65577e-06
6.73522e-06
6.75091e-06
6.95481e-06
5.88118e-06
1.79047e-05
0.000149602
0.0169421
0.0446289
0.0769357
0.118457
0.163729
0.195453
0.205676
0.205166
0.204003
0.203865
0.203541
0.202654
0.201513
0.200392
0.199409
0.198625
0.198074
0.197743
0.197584
0.197541
0.197568
0.197637
0.197729
0.19783
0.197922
0.197992
0.198031
0.198035
0.198005
0.197945
0.197862
0.19776
0.197644
0.197513
0.197365
0.197201
0.197018
0.196816
0.196592
0.196345
0.196072
0.195772
0.19544
0.195073
0.194668
0.19422
0.193722
0.19317
0.192555
0.191869
0.191101
0.190237
0.189262
0.188156
0.186894
0.185445
0.183769
0.181815
0.179518
0.176794
0.173535
0.169607
0.164843
0.159047
0.151992
0.143445
0.133199
0.121141
0.107327
0.0920811
0.0760374
0.0601044
0.0452985
0.0325111
0.0222688
0.0146428
0.0093451
0.00585402
0.00358455
0.00210183
0.00117504
0.000653927
0.000390766
0.000262255
0.000193099
0.000148101
0.000114031
8.67685e-05
6.54213e-05
4.94616e-05
3.79351e-05
2.97959e-05
2.43262e-05
2.07987e-05
1.8399e-05
1.63088e-05
1.50949e-05
7.7961e-06
2.32462e-05
0.000579339
0.0169158
0.195159
0.20586
0.211108
0.20967
0.203811
0.199584
0.199455
0.201089
0.202077
0.201992
0.201346
0.200556
0.199771
0.199042
0.198423
0.197963
0.197673
0.197525
0.197476
0.197492
0.197547
0.197626
0.197717
0.197812
0.197898
0.197962
0.197994
0.197992
0.197954
0.197886
0.197793
0.197681
0.197552
0.197409
0.197248
0.197069
0.196871
0.196651
0.196408
0.19614
0.195845
0.19552
0.195163
0.194769
0.194335
0.193858
0.193332
0.192752
0.192114
0.19141
0.190634
0.189779
0.188836
0.187796
0.186649
0.185383
0.183986
0.182445
0.180743
0.178864
0.176788
0.174495
0.171961
0.169158
0.166055
0.162618
0.158807
0.15458
0.149893
0.144705
0.13897
0.132629
0.125647
0.117986
0.10943
0.0998276
0.0894478
0.0781402
0.0648923
0.0499411
0.036026
0.0258019
0.0195303
0.0158084
0.0131838
0.0108863
0.00876727
0.00692021
0.00542455
0.00428765
0.00345896
0.00285349
0.00240844
0.0020365
0.00164617
0.00128106
0.00103464
0.000948501
0.000646543
0.018029
0.194258
0.192917
0.191464
0.190863
0.192335
0.195494
0.198492
0.200159
0.200643
0.200525
0.20017
0.199715
0.199205
0.198683
0.198211
0.197843
0.197599
0.197467
0.197419
0.197427
0.19747
0.197534
0.197612
0.197696
0.197781
0.197859
0.197916
0.197944
0.197936
0.197892
0.197816
0.197713
0.19759
0.197449
0.197292
0.197116
0.196922
0.196706
0.196467
0.196203
0.195912
0.195592
0.195239
0.19485
0.194423
0.193952
0.193433
0.192862
0.192234
0.191542
0.19078
0.18994
0.189017
0.188001
0.186882
0.185652
0.184301
0.182817
0.181189
0.179405
0.177452
0.175319
0.172995
0.170467
0.167726
0.164761
0.161565
0.158134
0.154468
0.150573
0.146454
0.142114
0.137564
0.132825
0.127773
0.122123
0.116037
0.11055
0.106617
0.103609
0.0995322
0.0932683
0.0859483
0.0793518
0.0736724
0.0677369
0.0615411
0.0553362
0.0493736
0.0445437
0.0413134
0.037449
0.0316132
0.023611
0.0148321
0.00813757
0.00463246
0.00324854
0.000738188
0.0186267
0.193438
0.193831
0.194341
0.195138
0.196206
0.197291
0.198178
0.198812
0.199196
0.199327
0.199242
0.199011
0.198697
0.198345
0.198004
0.197723
0.197527
0.197415
0.19737
0.197372
0.197405
0.197457
0.197521
0.19759
0.197663
0.197735
0.197803
0.197853
0.197877
0.197865
0.197817
0.197735
0.197623
0.197489
0.197334
0.197162
0.196971
0.196759
0.196525
0.196265
0.195978
0.195661
0.195313
0.194929
0.194506
0.194041
0.193528
0.192963
0.192341
0.191656
0.190901
0.19007
0.189155
0.188147
0.187038
0.185817
0.184475
0.183001
0.181382
0.179607
0.177663
0.175538
0.173221
0.170698
0.16796
0.164995
0.161796
0.15836
0.154687
0.15078
0.146645
0.142284
0.137709
0.132933
0.12786
0.122282
0.116375
0.11103
0.107051
0.103882
0.0997937
0.0937971
0.086834
0.0804476
0.074793
0.0688729
0.0628089
0.0563055
0.0502003
0.0472609
0.0477529
0.0455129
0.0370725
0.0257071
0.0160076
0.00978522
0.00647006
0.00489309
0.00122399
0.0195967
0.193812
0.194075
0.194341
0.194704
0.195281
0.196096
0.197
0.197767
0.19826
0.198478
0.198502
0.198413
0.198253
0.198043
0.197815
0.197611
0.19746
0.19737
0.197331
0.197329
0.197354
0.197394
0.197445
0.197501
0.197558
0.197616
0.197673
0.197727
0.197769
0.197789
0.197775
0.197725
0.197639
0.197521
0.197375
0.197208
0.19702
0.196811
0.196581
0.196325
0.196043
0.195732
0.195388
0.195009
0.194591
0.194131
0.193624
0.193065
0.19245
0.191772
0.191025
0.190202
0.189296
0.188297
0.187197
0.185986
0.184653
0.183189
0.18158
0.179814
0.177878
0.17576
0.173448
0.170927
0.168188
0.165218
0.162011
0.15856
0.154866
0.15093
0.146756
0.142349
0.137715
0.132866
0.127728
0.122159
0.11634
0.111019
0.106849
0.103371
0.0991714
0.0934264
0.0868933
0.0808569
0.0754056
0.0697781
0.0639006
0.0572539
0.051889
0.0524662
0.0586051
0.0601668
0.0507809
0.0364873
0.0259998
0.0206602
0.0170386
0.0144619
0.00489924
0.0229267
0.194024
0.194299
0.19458
0.19493
0.195418
0.196032
0.196666
0.197201
0.197578
0.1978
0.197905
0.197929
0.197887
0.197786
0.197649
0.197512
0.197403
0.197335
0.197303
0.1973
0.197317
0.197347
0.197385
0.197427
0.197471
0.197513
0.197554
0.197593
0.19763
0.197661
0.197674
0.19766
0.197611
0.197524
0.197401
0.197247
0.197066
0.196862
0.196635
0.196384
0.196106
0.1958
0.195461
0.195087
0.194675
0.19422
0.193719
0.193167
0.192559
0.191888
0.191149
0.190334
0.189436
0.188446
0.187356
0.186155
0.184832
0.183378
0.181779
0.180023
0.178097
0.175987
0.17368
0.171164
0.168425
0.165453
0.162239
0.158776
0.155063
0.151101
0.146892
0.14244
0.13775
0.132831
0.127631
0.122059
0.116293
0.11096
0.106588
0.102801
0.0984619
0.0928963
0.0867158
0.0809655
0.0756933
0.0702998
0.0643437
0.0580867
0.0554618
0.0602033
0.0671735
0.0660933
0.0556488
0.043738
0.0369337
0.0335909
0.0285959
0.0229986
0.0105778
0.0311087
0.194232
0.194501
0.19476
0.195047
0.195405
0.195837
0.196299
0.196724
0.197066
0.197308
0.197466
0.19756
0.197598
0.197579
0.197515
0.197433
0.197361
0.197312
0.197289
0.197284
0.197295
0.197315
0.197341
0.19737
0.1974
0.197428
0.197453
0.197475
0.197494
0.197511
0.197524
0.197528
0.19751
0.197463
0.197379
0.197256
0.197098
0.196907
0.196687
0.19644
0.196167
0.195865
0.195532
0.195164
0.194757
0.194309
0.193814
0.193269
0.192668
0.192004
0.191272
0.190466
0.189577
0.188597
0.187516
0.186325
0.185013
0.183569
0.181982
0.180237
0.178321
0.17622
0.17392
0.171409
0.168673
0.1657
0.162481
0.159009
0.15528
0.151295
0.147053
0.14256
0.137819
0.132837
0.127579
0.121993
0.116252
0.110878
0.106296
0.102207
0.0977056
0.0922555
0.0863592
0.0808408
0.0756773
0.0703162
0.0645782
0.0608854
0.0644126
0.0732746
0.0748911
0.0641413
0.0501346
0.0416906
0.039273
0.037152
0.0307026
0.0236223
0.0113076
0.032636
0.194426
0.194681
0.194918
0.195162
0.195441
0.195762
0.19611
0.196448
0.196742
0.196976
0.197155
0.197291
0.197383
0.197424
0.197414
0.197377
0.197336
0.197305
0.197289
0.197284
0.197289
0.197299
0.197314
0.19733
0.197346
0.197359
0.197369
0.197375
0.197377
0.197374
0.197368
0.197358
0.197342
0.197317
0.197268
0.197187
0.197071
0.196914
0.196718
0.196487
0.196224
0.195928
0.195599
0.195236
0.194835
0.194394
0.193906
0.193368
0.192774
0.192119
0.191395
0.190597
0.189717
0.188747
0.187676
0.186495
0.185194
0.183761
0.182185
0.180452
0.178547
0.176456
0.174165
0.17166
0.168928
0.165957
0.162736
0.159257
0.155516
0.15151
0.14724
0.142709
0.137921
0.132882
0.127569
0.121962
0.116223
0.110786
0.105994
0.101613
0.0969354
0.0915504
0.0858829
0.0804912
0.0752593
0.0701938
0.0668052
0.0698718
0.0822073
0.0920096
0.0832948
0.061928
0.0448621
0.0384475
0.0380515
0.0361226
0.0291847
0.0223363
0.0114479
0.0347731
0.194603
0.194845
0.195064
0.195276
0.195498
0.195743
0.196011
0.196287
0.196546
0.196768
0.196954
0.197113
0.197239
0.19732
0.197351
0.197347
0.19733
0.197314
0.197304
0.197299
0.197299
0.197301
0.197305
0.197308
0.19731
0.197309
0.197304
0.197294
0.197279
0.197258
0.197231
0.197199
0.197162
0.19712
0.19707
0.19701
0.19693
0.196816
0.196665
0.196477
0.196245
0.19597
0.195655
0.195302
0.19491
0.194476
0.193995
0.193463
0.192875
0.192227
0.191512
0.190724
0.189856
0.188896
0.187836
0.186665
0.185374
0.183954
0.182391
0.18067
0.178777
0.176697
0.174415
0.171918
0.169192
0.166224
0.163003
0.15952
0.155768
0.151745
0.14745
0.142886
0.138057
0.132967
0.127605
0.121972
0.116217
0.110701
0.105702
0.101043
0.0961823
0.0908392
0.0853049
0.0798699
0.0748512
0.0719396
0.0748762
0.0870505
0.101446
0.100209
0.0792094
0.0550504
0.0413083
0.0379224
0.0375853
0.0341137
0.0265501
0.0205976
0.011563
0.0380975
0.194771
0.195002
0.195207
0.195394
0.195579
0.195775
0.195994
0.196229
0.196459
0.196666
0.196849
0.197015
0.197159
0.197265
0.197324
0.197345
0.197346
0.197342
0.197337
0.197331
0.197325
0.197319
0.197312
0.197304
0.197292
0.197277
0.197257
0.197231
0.197199
0.197161
0.197116
0.197063
0.197003
0.196935
0.19686
0.196778
0.196686
0.19658
0.196461
0.196317
0.196131
0.1959
0.195628
0.195315
0.194953
0.194537
0.194067
0.193544
0.192965
0.192327
0.191625
0.190848
0.18999
0.18904
0.18799
0.186828
0.185548
0.184139
0.18259
0.180884
0.179006
0.176938
0.174666
0.172178
0.169461
0.1665
0.163283
0.159799
0.156041
0.152005
0.147691
0.143102
0.13824
0.133111
0.127711
0.122055
0.116283
0.110693
0.105518
0.100634
0.0956464
0.0903518
0.084887
0.0797596
0.0766617
0.0789896
0.0893255
0.102597
0.103978
0.0865866
0.0623487
0.0456883
0.0397954
0.0394443
0.0376584
0.0318728
0.0239439
0.0192734
0.011944
0.0412907
0.194935
0.195158
0.19535
0.195521
0.195682
0.195851
0.196042
0.196252
0.19646
0.196649
0.196821
0.196985
0.197136
0.197257
0.197333
0.19737
0.197385
0.197388
0.197386
0.197379
0.197369
0.197355
0.197338
0.197318
0.197293
0.197264
0.197229
0.197188
0.19714
0.197084
0.19702
0.196947
0.196866
0.196774
0.196673
0.196561
0.196439
0.196305
0.196159
0.195998
0.195816
0.195611
0.195385
0.195125
0.194811
0.194435
0.194001
0.193515
0.192977
0.19238
0.191708
0.19095
0.190102
0.18916
0.188118
0.186968
0.185699
0.184303
0.182769
0.181082
0.179223
0.177175
0.174922
0.172453
0.169753
0.166809
0.163604
0.160127
0.156368
0.152323
0.14799
0.143373
0.138479
0.133318
0.127901
0.122258
0.116523
0.110946
0.105727
0.100792
0.0958436
0.0907034
0.0856973
0.0823147
0.0833979
0.0907914
0.100504
0.101958
0.0882325
0.0663036
0.048721
0.0411801
0.0409208
0.041266
0.037141
0.0295804
0.0220657
0.0189485
0.012843
0.0430508
0.195096
0.195313
0.195498
0.195659
0.195809
0.195967
0.196145
0.196338
0.196527
0.196698
0.196856
0.197012
0.197163
0.19729
0.197375
0.197423
0.197445
0.197453
0.197452
0.197444
0.197428
0.197407
0.197381
0.197349
0.197313
0.19727
0.197221
0.197165
0.1971
0.197028
0.196945
0.196853
0.196751
0.196637
0.196511
0.196372
0.196219
0.196051
0.195868
0.195667
0.195449
0.19521
0.194949
0.194661
0.194338
0.193978
0.193578
0.193137
0.192654
0.192114
0.191488
0.190762
0.189936
0.189015
0.187998
0.186875
0.185635
0.184267
0.18276
0.181104
0.179287
0.177292
0.175104
0.172706
0.170077
0.16719
0.164027
0.160577
0.156831
0.152775
0.148402
0.143717
0.13874
0.133507
0.128064
0.12248
0.116893
0.111509
0.106468
0.101695
0.096931
0.0920977
0.0880296
0.0869123
0.0903716
0.095671
0.0956903
0.0857522
0.0688799
0.0529316
0.0436274
0.04167
0.0431095
0.0420478
0.0358042
0.0276098
0.0211878
0.0196757
0.0141914
0.0430882
0.195257
0.195472
0.195652
0.19581
0.19596
0.196118
0.196292
0.196474
0.196646
0.196799
0.196941
0.197087
0.197233
0.197359
0.197449
0.1975
0.197526
0.197536
0.197535
0.197524
0.197504
0.197476
0.19744
0.197398
0.19735
0.197295
0.197232
0.197161
0.197081
0.196992
0.196892
0.196782
0.196659
0.196523
0.196373
0.196208
0.196027
0.195827
0.195609
0.19537
0.195107
0.19482
0.194506
0.194162
0.193785
0.193372
0.192919
0.19242
0.191872
0.191268
0.190594
0.189842
0.189009
0.188089
0.187077
0.185961
0.184729
0.183364
0.181857
0.180203
0.178398
0.176434
0.174297
0.171963
0.169398
0.166555
0.163409
0.159955
0.156186
0.152083
0.14763
0.142832
0.137725
0.132377
0.126879
0.121339
0.115906
0.110742
0.105918
0.101321
0.0967744
0.0923813
0.0889817
0.0877149
0.0878351
0.0857324
0.0784198
0.067182
0.0557751
0.0473573
0.043424
0.0434559
0.0441423
0.0412228
0.0339564
0.0262163
0.0212136
0.0211659
0.015808
0.0423083
0.195421
0.195634
0.195816
0.195978
0.196136
0.196299
0.196472
0.196644
0.1968
0.196936
0.197064
0.197199
0.197338
0.197461
0.197549
0.1976
0.197627
0.197636
0.197634
0.19762
0.197595
0.19756
0.197516
0.197464
0.197405
0.197338
0.197262
0.197177
0.197083
0.196978
0.196861
0.196732
0.19659
0.196433
0.19626
0.19607
0.195861
0.195632
0.19538
0.195104
0.194801
0.194469
0.194104
0.193704
0.193265
0.192783
0.192252
0.191669
0.191028
0.190322
0.189546
0.188691
0.18775
0.186713
0.18557
0.184309
0.182918
0.18138
0.179683
0.177819
0.175785
0.173572
0.171168
0.168549
0.165693
0.16257
0.159162
0.155459
0.151447
0.147113
0.142452
0.137478
0.132233
0.126784
0.121216
0.115628
0.110144
0.104897
0.0999495
0.0952431
0.0907392
0.0865981
0.083012
0.0796057
0.0751781
0.0688166
0.0612424
0.0541411
0.0484877
0.0446481
0.0429849
0.043028
0.0424181
0.0385525
0.0317305
0.0253258
0.0217902
0.0228813
0.0172816
0.0414452
0.195587
0.195803
0.19599
0.196163
0.196332
0.196503
0.196674
0.196837
0.196978
0.197099
0.197215
0.197341
0.197472
0.197588
0.197672
0.197721
0.197745
0.197753
0.197748
0.19773
0.1977
0.197659
0.197607
0.197546
0.197477
0.197398
0.197311
0.197213
0.197104
0.196984
0.196852
0.196706
0.196545
0.196368
0.196173
0.195959
0.195724
0.195466
0.195182
0.194871
0.19453
0.194154
0.193742
0.193289
0.19279
0.192242
0.191639
0.190975
0.190244
0.189438
0.188551
0.187574
0.186498
0.185311
0.184002
0.182559
0.18097
0.179221
0.177299
0.175188
0.172873
0.170339
0.167572
0.164558
0.161283
0.157736
0.153906
0.149786
0.145378
0.140688
0.135733
0.130537
0.12513
0.119548
0.113834
0.108044
0.102268
0.096626
0.091214
0.08606
0.0811694
0.0765269
0.0718649
0.0665964
0.0604426
0.0540982
0.048753
0.0448519
0.0419657
0.0399667
0.0391646
0.0390017
0.0376914
0.0340302
0.0288272
0.0244099
0.0222597
0.0240848
0.018137
0.040736
0.195752
0.195975
0.196174
0.196362
0.196544
0.19672
0.196889
0.197042
0.197171
0.197282
0.197389
0.197506
0.197628
0.197737
0.197814
0.197858
0.197878
0.197883
0.197874
0.197853
0.197818
0.197771
0.197712
0.197643
0.197565
0.197476
0.197377
0.197267
0.197146
0.197012
0.196864
0.196702
0.196524
0.196328
0.196112
0.195875
0.195616
0.19533
0.195017
0.194672
0.194294
0.193877
0.19342
0.192916
0.192361
0.191751
0.191079
0.190337
0.189521
0.18862
0.187626
0.186532
0.185325
0.183994
0.182526
0.180909
0.179129
0.177174
0.17503
0.172677
0.170093
0.167259
0.164163
0.160794
0.157145
0.153209
0.148983
0.14447
0.139681
0.134635
0.129357
0.123873
0.118204
0.112371
0.106402
0.100339
0.0942655
0.0882956
0.0825406
0.0770599
0.071839
0.0667605
0.061583
0.0561081
0.0505452
0.0455471
0.0416515
0.0387508
0.0365067
0.0350886
0.0346541
0.0342847
0.0325171
0.0291438
0.0253701
0.0227158
0.0216533
0.02403
0.0180788
0.0402303
0.195914
0.196153
0.19637
0.196574
0.196766
0.196945
0.197109
0.197253
0.197374
0.197477
0.197578
0.197687
0.197801
0.197901
0.19797
0.198009
0.198024
0.198024
0.198012
0.197987
0.197947
0.197895
0.19783
0.197754
0.197667
0.197569
0.19746
0.197339
0.197206
0.19706
0.196898
0.196721
0.196526
0.196312
0.196078
0.19582
0.195537
0.195226
0.194884
0.194508
0.194095
0.19364
0.193139
0.192588
0.19198
0.191311
0.190573
0.189759
0.18886
0.187869
0.186776
0.18557
0.184241
0.182774
0.181157
0.179374
0.177414
0.175262
0.172901
0.170313
0.167476
0.164372
0.16099
0.15732
0.153355
0.149094
0.144538
0.139695
0.13458
0.129217
0.123632
0.117853
0.111907
0.105823
0.099636
0.0934013
0.0872024
0.0811461
0.0753291
0.0697973
0.0645184
0.0593885