/*--------------------------------*- C++ -*----------------------------------*\
  =========                 |
  \\      /  F ield         | OpenFOAM: The Open Source CFD Toolbox
   \\    /   O peration     | Website:  https://openfoam.org
    \\  /    A nd           | Version:  10
     \\/     M anipulation  |
\*---------------------------------------------------------------------------*/
FoamFile
{
    format      ascii;
    class       volScalarField;
    location    "0.005";
    object      nut;
}
// * * * * * * * * * * * * * * * * * * * * * * * * * * * * * * * * * * * * * //

dimensions      [0 2 -1 0 0 0 0];

internalField   nonuniform List<scalar> 
6820
(
0
0
0
0
0
0
0
0
1.56368e-08
3.40234e-08
4.31394e-08
4.4904e-08
4.01203e-08
3.08056e-08
1.96885e-08
9.18332e-09
6.66218e-10
0
0
0
0
0
0
0
0
0
0
0
0
0
0
0
1.82525e-07
0
0
0
0
0
0
0
0
1.28163e-08
2.75711e-08
3.29395e-08
3.32647e-08
2.99465e-08
2.41363e-08
1.68993e-08
9.29713e-09
2.31967e-09
0
0
0
0
0
0
0
0
0
0
0
0
0
0
0
3.03135e-07
0
0
0
0
0
0
0
0
0
6.46485e-11
9.09636e-10
2.48162e-09
4.07688e-09
4.65732e-09
4.20734e-09
3.2562e-09
2.29616e-09
1.49773e-09
9.10637e-10
5.63812e-10
3.72612e-10
2.12683e-10
3.80442e-11
0
0
0
0
0
0
0
0
0
2.94302e-07
0
0
0
0
0
0
0
0
0
0
0
0
0
2.05306e-08
5.6733e-08
9.10671e-08
1.25494e-07
1.644e-07
2.11197e-07
2.68305e-07
3.3758e-07
4.20066e-07
5.14713e-07
6.15463e-07
7.05642e-07
7.47963e-07
6.68462e-07
3.36304e-07
0
0
0
0
0
1.01433e-05
0
0
0
0
0
0
0
0
0
0
0
0
0
0
0
0
0
0
0
0
0
0
0
0
0
0
0
0
0
0
0
0
1.543e-06
1.72649e-05
1.28969e-05
7.66219e-06
9.8792e-07
0
0
0
0
0
0
0
0
0
0
0
0
0
0
0
0
0
0
0
0
0
0
0
0
0
0
0
0
0
0
0
0
0
0
0
0
0
0
0
0
0
0
0
0
0
0
0
0
0
0
0
0
0
0
0
0
0
0
0
0
0
0
0
0
0
0
0
0
0
0
0
0
0
0
0
0
0
0
0
0
0
0
0
0
0
0
0
0
0
0
0
0
0
0
0
0
0
0
0
0
0
0
0
0
0
0
0
0
0
0
0
0
0
0
0
0
0
0
0
0
0
0
0
0
0
0
0
0
0
0
0
0
0
0
0
0
0
0
0
0
0
0
0
0
0
0
0
0
0
0
0
0
0
0
0
0
0
0
0
0
0
0
0
0
0
0
0
0
0
0
0
0
0
0
0
0
0
0
0
0
0
0
0
0
0
0
0
0
0
0
0
0
2.17811e-07
0
0
0
0
0
0
0
0
0
0
0
0
0
0
0
0
0
0
0
0
0
0
0
0
0
0
0
0
0
0
0
0
8.03966e-07
0
0
0
0
0
0
0
0
0
0
0
0
0
0
0
0
0
0
0
0
0
0
0
0
0
0
0
0
0
0
0
1.71511e-07
1.24395e-06
0
0
0
0
0
0
0
0
0
0
0
0
0
0
0
0
0
0
0
0
0
0
0
0
0
0
0
0
0
0
0
4.35681e-07
1.53963e-06
0
0
0
0
0
0
0
0
0
0
0
0
0
0
0
0
0
0
0
0
0
0
0
0
0
0
0
0
0
0
1.88962e-07
5.57439e-07
1.694e-06
0
0
0
0
0
0
0
0
0
0
0
0
0
0
0
0
0
0
0
0
0
0
0
0
0
0
0
0
0
1.48179e-07
2.57966e-07
5.39184e-07
1.71096e-06
0
0
0
0
0
0
0
0
0
0
0
0
0
0
0
0
0
0
0
0
0
0
0
0
0
0
0
1.16552e-09
1.52267e-07
2.00544e-07
1.83315e-07
3.83348e-07
1.59455e-06
0
0
0
0
0
0
0
0
0
0
0
0
0
0
0
0
0
0
0
0
0
0
0
0
0
0
4.78351e-08
1.61905e-07
1.8304e-07
1.04236e-07
0
9.29181e-08
1.3489e-06
0
0
0
0
0
0
0
0
0
0
0
0
0
0
0
0
0
0
0
0
0
0
0
0
0
1.01978e-07
1.77747e-07
1.63675e-07
5.93438e-08
0
0
0
9.78175e-07
0
0
0
0
0
0
0
0
0
0
0
0
0
0
0
0
0
0
0
0
0
0
0
4.43682e-08
1.60985e-07
1.9393e-07
1.42315e-07
4.41129e-09
0
0
0
0
4.86503e-07
0
0
0
0
0
0
0
0
0
0
0
0
0
0
0
0
0
0
0
0
0
1.56819e-08
1.56127e-07
2.21081e-07
2.06941e-07
1.12746e-07
0
0
0
0
0
0
0
0
0
0
0
0
0
0
0
0
0
0
0
0
0
0
0
0
0
0
4.84589e-08
1.91216e-07
2.70417e-07
2.7843e-07
2.11861e-07
7.02783e-08
0
0
0
0
0
0
0
0
0
0
0
0
0
0
0
0
0
0
0
0
0
0
0
0
0
1.00815e-07
2.66191e-07
3.58056e-07
3.7874e-07
3.27078e-07
2.03104e-07
8.53301e-09
0
0
0
0
0
0
0
0
0
0
0
0
0
0
0
0
0
0
0
0
0
0
0
0
1.34068e-08
2.69616e-07
4.2529e-07
4.88507e-07
4.64396e-07
3.57453e-07
1.74101e-07
0
0
0
0
0
0
0
0
0
0
0
0
0
0
0
0
0
0
4.90174e-08
4.24146e-08
0
0
0
0
0
8.47879e-08
3.4749e-07
5.06011e-07
5.54023e-07
5.03033e-07
3.54575e-07
1.16834e-07
0
0
0
0
0
0
0
0
0
0
0
0
0
0
0
0
0
0
2.19072e-07
2.40486e-07
1.80875e-07
1.21912e-07
6.46459e-08
6.80577e-09
0
4.65673e-08
2.79122e-07
4.98929e-07
5.55296e-07
4.84991e-07
3.08254e-07
2.78207e-08
0
0
0
0
0
0
0
0
0
0
0
0
0
0
0
0
0
2.09993e-07
5.56754e-07
5.21176e-07
3.4414e-07
2.4275e-07
1.76625e-07
1.07216e-07
2.7109e-08
0
3.98041e-08
2.81441e-07
4.55196e-07
4.08617e-07
2.108e-07
0
0
0
0
0
0
0
0
0
0
0
0
0
0
0
1.76842e-07
0
7.3084e-08
2.53515e-07
7.09683e-07
1.17373e-06
8.08285e-07
4.27835e-07
2.74785e-07
1.89481e-07
9.10475e-08
0
0
0
1.16837e-07
2.37077e-07
8.59341e-08
0
0
0
0
0
0
0
0
0
0
0
0
0
0
0
0
3.76678e-07
0
1.24772e-07
3.76228e-07
9.96502e-07
1.52111e-06
8.79922e-07
3.62201e-07
1.92692e-07
9.91066e-08
0
0
0
0
0
0
0
0
0
0
0
0
0
0
0
0
0
0
0
0
0
0
0
6.08705e-07
4.47837e-08
2.61608e-07
6.24962e-07
1.47028e-06
2.12355e-06
1.17757e-06
4.31404e-07
1.80474e-07
3.66066e-08
0
0
0
0
0
0
0
0
0
0
0
0
0
0
0
0
0
0
0
0
0
0
0
7.06555e-07
0
2.96508e-08
2.91309e-07
1.06278e-06
1.6566e-06
6.87139e-07
2.54921e-08
0
0
0
0
0
0
0
0
0
0
0
0
0
0
0
0
0
0
0
0
0
0
0
0
0
1.1026e-06
1.57502e-07
3.90956e-07
7.16272e-07
1.6024e-06
2.30106e-06
1.11995e-06
1.99999e-07
0
0
0
0
0
0
0
0
0
0
0
0
0
0
0
0
0
0
0
0
0
0
0
0
0
6.30127e-07
0
0
0
0
0
0
0
0
0
0
0
0
0
0
0
0
0
0
0
0
0
0
0
0
0
0
0
0
0
0
0
0
1.84745e-06
0
0
0
0
0
0
0
0
0
0
0
0
0
0
0
0
0
0
0
0
0
0
0
0
0
0
0
0
0
0
0
0
0
0
0
0
0
0
0
0
0
0
0
0
0
0
0
0
0
0
0
0
0
0
0
0
0
0
0
0
0
0
0
0
0
0
0
0
0
0
0
0
0
2.25601e-06
3.14917e-06
2.59144e-06
1.35669e-06
1.58603e-07
0
0
0
0
0
0
0
0
0
0
0
0
0
0
0
0
0
0
0
0
0
0
0
0
0
0
0
0
7.99927e-07
4.58768e-06
9.35417e-06
1.38141e-05
1.68491e-05
1.81876e-05
1.85231e-05
1.90932e-05
2.08965e-05
2.40655e-05
2.80535e-05
3.22042e-05
3.60634e-05
3.94372e-05
4.23318e-05
4.48447e-05
4.70665e-05
4.90314e-05
5.07192e-05
5.2084e-05
5.30824e-05
5.36905e-05
5.3909e-05
5.34574e-05
5.22591e-05
4.46284e-08
0
0
0
0
0
0
0
0
0
0
9.80574e-09
2.00273e-08
2.71863e-08
3.07868e-08
3.21156e-08
3.29076e-08
3.44025e-08
3.71577e-08
4.12347e-08
4.64775e-08
5.27256e-08
5.99065e-08
6.80334e-08
7.71621e-08
8.73509e-08
9.86376e-08
1.11033e-07
1.2452e-07
1.39057e-07
1.54579e-07
1.71088e-07
1.92484e-07
2.41865e-08
0
0
0
0
0
0
0
0
0
0
5.96254e-08
1.31247e-07
1.71133e-07
1.83413e-07
1.7976e-07
1.72113e-07
1.68044e-07
1.70074e-07
1.77458e-07
1.88403e-07
2.01464e-07
2.15942e-07
2.31691e-07
2.48788e-07
2.67305e-07
2.87226e-07
3.08449e-07
3.30816e-07
3.54134e-07
3.78166e-07
4.03002e-07
4.09156e-07
1.11983e-08
0
0
0
0
0
0
0
0
0
0
5.50855e-08
1.2821e-07
1.68887e-07
1.80594e-07
1.7558e-07
1.6638e-07
1.60767e-07
1.61295e-07
1.67246e-07
1.76817e-07
1.88496e-07
2.01504e-07
2.15641e-07
2.30965e-07
2.47555e-07
2.6541e-07
2.84446e-07
3.04522e-07
3.25459e-07
3.47058e-07
3.66044e-07
3.63626e-07
0
0
0
0
0
1.57551e-05
2.07491e-05
2.09202e-05
1.89055e-05
1.66474e-05
1.44788e-05
1.22835e-05
1.02323e-05
8.4037e-06
6.77779e-06
5.32584e-06
4.01504e-06
2.81491e-06
1.70145e-06
6.56255e-07
0
0
0
0
0
0
0
0
0
0
0
0
0
0
0
0
0
0
0
0
0
0
0
0
0
0
0
0
0
0
0
0
0
0
0
0
0
0
0
0
0
0
0
0
0
0
0
0
0
0
0
0
0
0
0
0
0
0
0
0
0
0
0
0
0
0
0
0
0
0
0
0
0
0
0
0
0
0
0
0
0
0
0
0
1.08991e-05
1.83184e-05
2.16468e-05
2.24978e-05
2.15462e-05
1.96962e-05
1.74058e-05
1.5007e-05
1.27661e-05
1.0746e-05
8.92722e-06
7.2904e-06
5.81082e-06
4.46012e-06
3.21222e-06
2.04665e-06
9.48721e-07
0
0
0
0
0
0
0
0
0
0
0
0
0
0
0
0
0
0
0
0
0
0
0
0
0
0
0
0
0
0
0
0
0
0
0
0
0
0
0
0
0
0
0
0
0
0
0
0
0
0
0
0
0
0
0
0
0
0
0
0
0
0
0
0
0
0
0
0
0
0
0
0
0
0
0
0
0
0
0
0
0
0
1.09666e-06
1.11847e-05
1.7176e-05
2.13509e-05
2.29981e-05
2.25284e-05
2.09244e-05
1.88221e-05
1.6575e-05
1.44061e-05
1.23904e-05
1.05406e-05
8.85653e-06
7.32367e-06
5.92003e-06
4.6224e-06
3.41062e-06
2.27043e-06
1.19208e-06
1.66724e-07
0
0
0
0
0
0
0
0
0
0
0
0
0
0
0
0
0
0
0
0
0
0
0
0
0
0
0
0
0
0
0
0
0
0
0
0
0
0
0
0
0
0
0
0
0
0
0
0
0
0
0
0
0
0
0
0
0
0
0
0
0
0
0
0
0
0
0
0
0
0
0
0
0
0
0
0
0
0
0
0
3.60885e-06
1.01493e-05
1.64661e-05
2.0725e-05
2.25327e-05
2.24594e-05
2.13097e-05
1.95854e-05
1.76067e-05
1.56027e-05
1.36804e-05
1.18795e-05
1.0214e-05
8.68076e-06
7.26739e-06
5.9572e-06
4.73254e-06
3.57909e-06
2.48735e-06
1.45086e-06
4.63029e-07
0
0
0
0
0
0
0
0
0
0
0
0
0
0
0
0
0
0
0
0
0
0
0
0
0
0
0
0
0
0
0
0
0
0
0
0
0
0
0
0
0
0
0
0
0
0
0
0
0
0
0
0
0
0
0
0
0
0
0
0
0
0
0
0
0
0
0
0
0
0
0
0
0
0
0
0
0
0
7.94713e-07
4.49987e-06
1.02264e-05
1.59845e-05
2.00032e-05
2.19264e-05
2.22073e-05
2.14512e-05
2.00718e-05
1.83669e-05
1.65609e-05
1.47727e-05
1.30576e-05
1.1442e-05
9.93449e-06
8.53273e-06
7.2271e-06
6.00405e-06
4.8508e-06
3.75768e-06
2.71834e-06
1.72836e-06
7.83022e-07
0
0
0
0
0
0
0
0
0
0
0
0
0
0
0
0
0
0
0
0
0
0
0
0
0
0
0
0
0
0
0
0
0
0
0
0
0
0
0
0
0
0
0
0
0
0
0
0
0
0
0
0
0
0
0
0
0
0
0
0
0
0
0
0
0
0
0
0
0
0
0
0
0
0
0
0
0
2.08382e-06
5.72227e-06
1.06256e-05
1.56578e-05
1.9329e-05
2.12602e-05
2.1796e-05
2.13808e-05
2.03293e-05
1.89028e-05
1.73124e-05
1.56819e-05
1.40776e-05
1.25367e-05
1.10775e-05
9.70638e-06
8.42072e-06
7.21182e-06
6.06958e-06
4.98557e-06
3.95335e-06
2.96838e-06
2.02745e-06
1.1275e-06
2.645e-07
0
0
0
0
0
0
0
0
0
0
0
0
0
0
0
0
0
0
0
0
0
0
0
0
0
0
0
0
0
0
0
0
0
0
0
0
0
0
0
0
0
0
0
0
0
0
0
0
0
0
0
0
0
0
0
0
0
0
0
0
0
0
0
0
0
0
0
0
0
0
0
0
0
0
0
3.15022e-06
6.60633e-06
1.08509e-05
1.52631e-05
1.8625e-05
2.05574e-05
2.12972e-05
2.11628e-05
2.04007e-05
1.92386e-05
1.78679e-05
1.64099e-05
1.49366e-05
1.34917e-05
1.21009e-05
1.07782e-05
9.52781e-06
8.34591e-06
7.22556e-06
6.16014e-06
5.14428e-06
4.17362e-06
3.24469e-06
2.35504e-06
1.50285e-06
6.85403e-07
0
0
0
0
0
0
0
0
0
0
0
0
0
0
0
0
0
0
0
0
0
0
0
0
0
0
0
0
0
0
0
0
0
0
0
0
0
0
0
0
0
0
0
0
0
0
0
0
0
0
0
0
0
0
0
0
0
0
0
0
0
0
0
0
0
0
0
0
0
0
0
0
0
6.10467e-07
4.05042e-06
7.33306e-06
1.10515e-05
1.48973e-05
1.79496e-05
1.98406e-05
2.07164e-05
2.08082e-05
2.03039e-05
1.93916e-05
1.82399e-05
1.69634e-05
1.56352e-05
1.4303e-05
1.2998e-05
1.17401e-05
1.05396e-05
9.39744e-06
8.31005e-06
7.2728e-06
6.28172e-06
5.33347e-06
4.42499e-06
3.55354e-06
2.71726e-06
1.91481e-06
1.14474e-06
4.04608e-07
0
0
0
0
0
0
0
0
0
0
0
0
0
0
0
0
0
0
0
0
0
0
0
0
0
0
0
0
0
0
0
0
0
0
0
0
0
0
0
0
0
0
0
0
0
0
0
0
0
0
0
0
0
0
0
0
0
0
0
0
0
0
0
0
0
0
0
0
0
0
0
1.66682e-06
4.81407e-06
7.88116e-06
1.11601e-05
1.45168e-05
1.72777e-05
1.91045e-05
2.00738e-05
2.03479e-05
2.0067e-05
1.93836e-05
1.84429e-05
1.73499e-05
1.61755e-05
1.49686e-05
1.37637e-05
1.25853e-05
1.14482e-05
1.0358e-05
9.31434e-06
8.3149e-06
7.35716e-06
6.43888e-06
5.55791e-06
4.7121e-06
3.8994e-06
3.1182e-06
2.36747e-06
1.64655e-06
9.54144e-07
2.87851e-07
0
0
0
0
0
0
0
0
0
0
0
0
0
0
0
0
0
0
0
0
0
0
0
0
0
0
0
0
0
0
0
0
0
0
0
0
0
0
0
0
0
0
0
0
0
0
0
0
0
0
0
0
0
0
0
0
0
0
0
0
0
0
0
0
0
0
0
0
6.01976e-07
2.60063e-06
5.45123e-06
8.2784e-06
1.11875e-05
1.41239e-05
1.66106e-05
1.8355e-05
1.93807e-05
1.97971e-05
1.97068e-05
1.92304e-05
1.84896e-05
1.75779e-05
1.65616e-05
1.54887e-05
1.43952e-05
1.33084e-05
1.22469e-05
1.122e-05
1.02305e-05
9.27827e-06
8.36239e-06
7.48178e-06
6.63523e-06
5.82134e-06
5.03867e-06
4.28573e-06
3.56116e-06
2.86417e-06
2.19411e-06
1.55057e-06
9.32489e-07
3.37597e-07
0
0
0
0
0
0
0
0
0
0
0
0
0
0
0
0
0
0
0
0
0
0
0
0
0
0
0
0
0
0
0
0
0
0
0
0
0
0
0
0
0
0
0
0
0
0
0
0
0
0
0
0
0
0
0
0
0
0
0
0
0
0
0
0
0
0
1.53553e-06
3.39734e-06
5.96733e-06
8.54232e-06
1.11289e-05
1.37069e-05
1.59433e-05
1.75939e-05
1.86472e-05
1.91721e-05
1.92416e-05
1.89488e-05
1.83936e-05
1.76569e-05
1.67989e-05
1.58651e-05
1.48911e-05
1.39058e-05
1.29303e-05
1.19769e-05
1.10512e-05
1.01551e-05
9.28936e-06
8.45402e-06
7.64884e-06
6.87322e-06
6.12631e-06
5.40719e-06
4.71482e-06
4.04827e-06
3.40665e-06
2.78951e-06
2.19644e-06
1.62707e-06
1.08071e-06
5.55386e-07
4.94116e-08
0
0
0
0
0
0
0
0
0
0
0
0
0
0
0
0
0
0
0
0
0
0
0
0
0
0
0
0
0
0
0
0
0
0
0
0
0
0
0
0
0
0
0
0
0
0
0
0
0
0
0
0
0
0
0
0
0
0
0
0
0
0
0
2.29348e-06
4.05288e-06
6.36493e-06
8.6881e-06
1.09892e-05
1.32609e-05
1.52702e-05
1.68202e-05
1.78781e-05
1.84828e-05
1.86842e-05
1.85523e-05
1.8167e-05
1.75965e-05
1.68938e-05
1.61007e-05
1.52515e-05
1.43752e-05
1.34943e-05
1.26233e-05
1.177e-05
1.09384e-05
1.01305e-05
9.34776e-06
8.59078e-06
7.85973e-06
7.15444e-06
6.47447e-06
5.81926e-06
5.18822e-06
4.58065e-06
3.9959e-06
3.43339e-06
2.89281e-06
2.37385e-06
1.87596e-06
1.39904e-06
9.41776e-07
5.02233e-07
7.94662e-08
0
0
0
0
0
0
0
0
0
0
0
0
0
0
0
0
0
0
0
0
0
0
0
0
0
0
0
0
0
0
0
0
0
0
0
0
0
0
0
0
0
0
0
0
0
0
0
0
0
0
0
0
0
0
0
0
0
0
0
0
2.88499e-06
4.56658e-06
6.64521e-06
8.72619e-06
1.07716e-05
1.27799e-05
1.45856e-05
1.60327e-05
1.70781e-05
1.77388e-05
1.8047e-05
1.80539e-05
1.78216e-05
1.74064e-05
1.68534e-05
1.61998e-05
1.54779e-05
1.47156e-05
1.39359e-05
1.31546e-05
1.23813e-05
1.16216e-05
1.08788e-05
1.01555e-05
9.45326e-06
8.77293e-06
8.115e-06
7.47957e-06
6.86652e-06
6.27562e-06
5.70649e-06
5.15874e-06
4.63191e-06
4.12551e-06
3.63914e-06
3.17244e-06
2.72526e-06
2.29703e-06
1.88721e-06
1.49582e-06
1.12168e-06
7.63126e-07
4.19355e-07
8.99153e-08
0
0
0
0
0
0
0
0
0
0
0
0
0
0
0
0
0
0
0
0
0
0
0
0
0
0
0
0
0
0
0
0
0
0
0
0
0
0
0
0
0
0
0
0
0
0
0
0
0
0
0
0
0
0
0
3.67446e-08
3.31704e-06
4.94104e-06
6.8103e-06
8.66444e-06
1.048e-05
1.22603e-05
1.38842e-05
1.5229e-05
1.62489e-05
1.69458e-05
1.73389e-05
1.74639e-05
1.7368e-05
1.70958e-05
1.66848e-05
1.61674e-05
1.55727e-05
1.49272e-05
1.42533e-05
1.35675e-05
1.28805e-05
1.21991e-05
1.15279e-05
1.08704e-05
1.02289e-05
9.60511e-06
9.00007e-06
8.41442e-06
7.84848e-06
7.30238e-06
6.77607e-06
6.26941e-06
5.78217e-06
5.31406e-06
4.86478e-06
4.43393e-06
4.02117e-06
3.62617e-06
3.24863e-06
2.88837e-06
2.54478e-06
2.21715e-06
1.90522e-06
1.60877e-06
1.32694e-06
1.05841e-06
8.02535e-07
5.59013e-07
3.2758e-07
1.0787e-07
0
0
0
0
0
0
0
0
0
0
0
0
0
0
0
0
0
0
0
0
0
0
0
0
0
0
0
0
0
0
0
0
0
0
0
0
0
0
0
0
0
0
0
0
0
0
0
0
5.19847e-08
4.03092e-07
3.59539e-06
5.17963e-06
6.86223e-06
8.50787e-06
1.01172e-05
1.16986e-05
1.31604e-05
1.44061e-05
1.53915e-05
1.6109e-05
1.65678e-05
1.67921e-05
1.68161e-05
1.66738e-05
1.63957e-05
1.6009e-05
1.55394e-05
1.50113e-05
1.44459e-05
1.38597e-05
1.32638e-05
1.26662e-05
1.20721e-05
1.1486e-05
1.09108e-05
1.03489e-05
9.80195e-06
9.27107e-06
8.75701e-06
8.26027e-06
7.7811e-06
7.31964e-06
6.87588e-06
6.44974e-06
6.04107e-06
5.64963e-06
5.27517e-06
4.91742e-06
4.57605e-06
4.25071e-06
3.94104e-06
3.64676e-06
3.36755e-06
3.10302e-06
2.85262e-06
2.61566e-06
2.39169e-06
2.18019e-06
1.98076e-06
1.79321e-06
1.61704e-06
1.45133e-06
1.29548e-06
1.14909e-06
1.01179e-06
8.83243e-07
7.63013e-07
6.50453e-07
5.44878e-07
4.45989e-07
3.53923e-07
2.68846e-07
1.90562e-07
1.1859e-07
5.24903e-08
0
0
0
0
0
0
0
0
0
0
0
0
0
0
0
0
0
0
0
0
0
0
0
0
0
0
0
0
0
0
0
0
0
3.15728e-07
8.01754e-07
3.7255e-06
5.28628e-06
6.80355e-06
8.26029e-06
9.68518e-06
1.10922e-05
1.24097e-05
1.35608e-05
1.45056e-05
1.52312e-05
1.57397e-05
1.60463e-05
1.61743e-05
1.61489e-05
1.59935e-05
1.57305e-05
1.53821e-05
1.497e-05
1.4514e-05
1.40298e-05
1.35286e-05
1.30188e-05
1.25065e-05
1.19965e-05
1.14925e-05
1.09973e-05
1.05132e-05
1.00418e-05
9.58412e-06
9.14106e-06
8.71321e-06
8.30095e-06
7.9045e-06
7.52398e-06
7.15941e-06
6.8107e-06
6.47775e-06
6.16037e-06
5.85831e-06
5.57129e-06
5.299e-06
5.04119e-06
4.79751e-06
4.5675e-06
4.35074e-06
4.14692e-06
3.95567e-06
3.77645e-06
3.60874e-06
3.45218e-06
3.30634e-06
3.17063e-06
3.04449e-06
2.92723e-06
2.81812e-06
2.7167e-06
2.62281e-06
2.53614e-06
2.45579e-06
2.38037e-06
2.30859e-06
2.23989e-06
2.17438e-06
2.11254e-06
2.05471e-06
2.00089e-06
1.95075e-06
1.90406e-06
1.8608e-06
1.82096e-06
1.7841e-06
1.74899e-06
1.71345e-06
1.67505e-06
1.63194e-06
1.58414e-06
1.5349e-06
1.48991e-06
1.4515e-06
1.41338e-06
1.36229e-06
1.28347e-06
1.15539e-06
9.45829e-07
6.41685e-07
2.98127e-07
1.78774e-08
0
0
0
0
1.89996e-08
3.53995e-08
0
0
0
0
0
6.49343e-07
1.25195e-06
3.71242e-06
5.2648e-06
6.63677e-06
7.92416e-06
9.18487e-06
1.04385e-05
1.16273e-05
1.26896e-05
1.35905e-05
1.43147e-05
1.48596e-05
1.52332e-05
1.54506e-05
1.5529e-05
1.54855e-05
1.53381e-05
1.51054e-05
1.48065e-05
1.4459e-05
1.40775e-05
1.36731e-05
1.3254e-05
1.28269e-05
1.23969e-05
1.19681e-05
1.1544e-05
1.1127e-05
1.07192e-05
1.0322e-05
9.93668e-06
9.56406e-06
9.2048e-06
8.85935e-06
8.528e-06
8.21095e-06
7.90827e-06
7.61996e-06
7.34596e-06
7.08612e-06
6.84025e-06
6.60812e-06
6.38948e-06
6.18401e-06
5.9913e-06
5.81097e-06
5.64269e-06
5.48609e-06
5.34071e-06
5.206e-06
5.08146e-06
4.96664e-06
4.86113e-06
4.7644e-06
4.67563e-06
4.59398e-06
4.51884e-06
4.45004e-06
4.3874e-06
4.32994e-06
4.27574e-06
4.22267e-06
4.16952e-06
4.11628e-06
4.06359e-06
4.01194e-06
3.96133e-06
3.91138e-06
3.86168e-06
3.81203e-06
3.76226e-06
3.71178e-06
3.65899e-06
3.60117e-06
3.53506e-06
3.45795e-06
3.36896e-06
3.27047e-06
3.16762e-06
3.0637e-06
2.95541e-06
2.83218e-06
2.67837e-06
2.47083e-06
2.18657e-06
1.83468e-06
1.47516e-06
1.17788e-06
9.67883e-07
8.35894e-07
7.79676e-07
7.85576e-07
7.7501e-07
6.51802e-07
3.84443e-07
9.12187e-08
0
0
0
1.05065e-06
1.77571e-06
3.56075e-06
5.11878e-06
6.36429e-06
7.50125e-06
8.61661e-06
9.73524e-06
1.08095e-05
1.17894e-05
1.26451e-05
1.33609e-05
1.3931e-05
1.43585e-05
1.46517e-05
1.48211e-05
1.48786e-05
1.48379e-05
1.47144e-05
1.45242e-05
1.42829e-05
1.40034e-05
1.36963e-05
1.33697e-05
1.30301e-05
1.26829e-05
1.23327e-05
1.19829e-05
1.16367e-05
1.12961e-05
1.09632e-05
1.06392e-05
1.03255e-05
1.00227e-05
9.73174e-06
9.45292e-06
9.18666e-06
8.93317e-06
8.69258e-06
8.46493e-06
8.25016e-06
8.04818e-06
7.85881e-06
7.68185e-06
7.51704e-06
7.36403e-06
7.22247e-06
7.092e-06
6.97222e-06
6.86265e-06
6.76275e-06
6.67199e-06
6.58984e-06
6.51581e-06
6.44928e-06
6.38947e-06
6.33545e-06
6.28651e-06
6.24223e-06
6.20222e-06
6.16545e-06
6.13004e-06
6.09384e-06
6.05535e-06
6.0141e-06
5.97017e-06
5.92354e-06
5.87385e-06
5.82052e-06
5.76295e-06
5.70065e-06
5.63316e-06
5.55974e-06
5.47883e-06
5.38799e-06
5.28434e-06
5.16538e-06
5.03015e-06
4.88047e-06
4.72047e-06
4.55307e-06
4.37595e-06
4.17961e-06
3.94873e-06
3.66578e-06
3.3238e-06
2.94518e-06
2.57921e-06
2.26614e-06
2.01093e-06
1.81152e-06
1.68509e-06
1.61761e-06
1.50659e-06
1.25624e-06
8.83679e-07
5.43487e-07
2.55456e-07
2.02529e-07
2.82908e-07
1.50286e-06
2.40106e-06
3.27479e-06
4.85159e-06
5.98836e-06
6.99277e-06
7.98021e-06
8.98013e-06
9.95279e-06
1.0857e-05
1.16679e-05
1.23703e-05
1.29568e-05
1.34267e-05
1.37834e-05
1.40318e-05
1.41794e-05
1.42361e-05
1.42143e-05
1.41273e-05
1.39884e-05
1.38089e-05
1.35984e-05
1.33645e-05
1.31136e-05
1.28511e-05
1.25816e-05
1.2309e-05
1.20363e-05
1.17661e-05
1.15005e-05
1.12412e-05
1.09895e-05
1.07465e-05
1.0513e-05
1.02899e-05
1.00774e-05
9.87612e-06
9.68615e-06
9.50768e-06
9.34074e-06
9.18532e-06
9.04131e-06
8.90856e-06
8.78683e-06
8.67581e-06
8.57518e-06
8.48458e-06
8.40358e-06
8.33172e-06
8.26843e-06
8.21316e-06
8.16531e-06
8.12425e-06
8.08928e-06
8.05951e-06
8.03397e-06
8.0118e-06
7.9923e-06
7.97478e-06
7.95814e-06
7.94061e-06
7.92016e-06
7.89517e-06
7.86465e-06
7.82806e-06
7.78478e-06
7.73403e-06
7.6749e-06
7.6065e-06
7.52803e-06
7.43868e-06
7.33749e-06
7.22307e-06
7.09358e-06
6.947e-06
6.78179e-06
6.59768e-06
6.39652e-06
6.18178e-06
5.95553e-06
5.7152e-06
5.45188e-06
5.15307e-06
4.80949e-06
4.42548e-06
4.02564e-06
3.64412e-06
3.29975e-06
2.99089e-06
2.72897e-06
2.5428e-06
2.40702e-06
2.19928e-06
1.83803e-06
1.38427e-06
1.01497e-06
7.31345e-07
7.03517e-07
7.91864e-07
1.99122e-06
3.12884e-06
2.85864e-06
4.46645e-06
5.5111e-06
6.39966e-06
7.27529e-06
8.17131e-06
9.05422e-06
9.8898e-06
1.06574e-05
1.13432e-05
1.19389e-05
1.24416e-05
1.28506e-05
1.31668e-05
1.33938e-05
1.35385e-05
1.36103e-05
1.36201e-05
1.35788e-05
1.3496e-05
1.338e-05
1.32379e-05
1.30758e-05
1.28987e-05
1.27114e-05
1.25176e-05
1.23206e-05
1.21231e-05
1.19274e-05
1.17353e-05
1.15484e-05
1.13679e-05
1.11948e-05
1.10301e-05
1.08742e-05
1.07278e-05
1.05912e-05
1.04645e-05
1.0348e-05
1.02417e-05
1.01455e-05
1.00593e-05
9.98299e-06
9.91624e-06
9.85874e-06
9.81013e-06
9.76996e-06
9.73774e-06
9.71287e-06
9.69475e-06
9.68269e-06
9.67599e-06
9.67382e-06
9.67524e-06
9.67917e-06
9.68458e-06
9.6905e-06
9.69597e-06
9.69972e-06
9.70002e-06
9.69489e-06
9.6825e-06
9.66145e-06
9.63063e-06
9.58897e-06
9.53528e-06
9.46833e-06
9.38695e-06
9.29005e-06
9.1766e-06
9.04556e-06
8.89579e-06
8.7261e-06
8.53543e-06
8.32326e-06
8.09012e-06
7.83807e-06
7.57009e-06
7.28749e-06
6.98734e-06
6.66177e-06
6.30204e-06
5.9057e-06
5.48295e-06
5.05635e-06
4.64819e-06
4.26492e-06
3.9045e-06
3.58864e-06
3.34852e-06
3.1441e-06
2.84431e-06
2.39146e-06
1.88138e-06
1.5001e-06
1.23057e-06
1.23787e-06
1.3597e-06
2.5047e-06
3.94927e-06
2.31595e-06
3.96611e-06
4.93419e-06
5.72246e-06
6.50124e-06
7.30695e-06
8.11114e-06
8.88514e-06
9.61194e-06
1.02792e-05
1.08786e-05
1.14059e-05
1.18575e-05
1.22312e-05
1.25276e-05
1.27508e-05
1.29078e-05
1.30073e-05
1.30578e-05
1.30672e-05
1.30427e-05
1.29904e-05
1.29159e-05
1.28239e-05
1.27191e-05
1.2605e-05
1.24849e-05
1.23617e-05
1.22377e-05
1.21149e-05
1.19949e-05
1.18792e-05
1.17689e-05
1.16649e-05
1.15681e-05
1.1479e-05
1.13981e-05
1.13256e-05
1.12619e-05
1.1207e-05
1.1161e-05
1.11237e-05
1.1095e-05
1.10746e-05
1.10624e-05
1.10578e-05
1.10604e-05
1.10697e-05
1.1085e-05
1.11058e-05
1.11312e-05
1.11604e-05
1.11925e-05
1.12264e-05
1.1261e-05
1.12949e-05
1.13271e-05
1.13562e-05
1.13809e-05
1.13993e-05
1.14094e-05
1.14092e-05
1.13969e-05
1.13708e-05
1.13296e-05
1.12716e-05
1.11954e-05
1.10996e-05
1.09828e-05
1.08439e-05
1.06819e-05
1.0496e-05
1.02856e-05
1.00505e-05
9.79118e-06
9.5088e-06
9.20572e-06
8.88459e-06
8.54623e-06
8.1877e-06
7.8027e-06
7.38619e-06
6.94073e-06
6.47969e-06
6.02299e-06
5.58436e-06
5.16264e-06
4.75672e-06
4.3937e-06
4.10106e-06
3.82665e-06
3.44242e-06
2.91762e-06
2.37231e-06
1.99312e-06
1.74665e-06
1.80035e-06
1.97572e-06
3.01796e-06
4.80987e-06
1.65056e-06
3.35343e-06
4.25938e-06
4.96188e-06
5.6577e-06
6.38567e-06
7.12143e-06
7.84078e-06
8.52979e-06
9.1777e-06
9.77682e-06
1.03219e-05
1.08076e-05
1.12295e-05
1.15857e-05
1.18782e-05
1.2112e-05
1.22935e-05
1.24293e-05
1.25258e-05
1.25886e-05
1.2623e-05
1.26339e-05
1.26257e-05
1.26026e-05
1.25681e-05
1.25254e-05
1.24772e-05
1.2426e-05
1.23738e-05
1.23223e-05
1.22731e-05
1.22274e-05
1.21862e-05
1.21503e-05
1.21206e-05
1.20975e-05
1.20813e-05
1.20725e-05
1.20711e-05
1.20773e-05
1.20909e-05
1.21119e-05
1.214e-05
1.2175e-05
1.22163e-05
1.22636e-05
1.23163e-05
1.23737e-05
1.24351e-05
1.24996e-05
1.25662e-05
1.26341e-05
1.27019e-05
1.27683e-05
1.28319e-05
1.28914e-05
1.29451e-05
1.29915e-05
1.30287e-05
1.30544e-05
1.30664e-05
1.30626e-05
1.30409e-05
1.29996e-05
1.29368e-05
1.28507e-05
1.27398e-05
1.26025e-05
1.24378e-05
1.22446e-05
1.20226e-05
1.17717e-05
1.14924e-05
1.11861e-05
1.08545e-05
1.05004e-05
1.01263e-05
9.73274e-06
9.31732e-06
8.87563e-06
8.40598e-06
7.91453e-06
7.41607e-06
6.92764e-06
6.45682e-06
5.99816e-06
5.55178e-06
5.14577e-06
4.80033e-06
4.4562e-06
3.99785e-06
3.4201e-06
2.85712e-06
2.49067e-06
2.27593e-06
2.39025e-06
2.6288e-06
3.50761e-06
5.67274e-06
8.65962e-07
2.63078e-06
3.4883e-06
4.11863e-06
4.74437e-06
5.40623e-06
6.08315e-06
6.7546e-06
7.40923e-06
8.03794e-06
8.63376e-06
9.19119e-06
9.70389e-06
1.01656e-05
1.05727e-05
1.09256e-05
1.12277e-05
1.14834e-05
1.16977e-05
1.18751e-05
1.20202e-05
1.21373e-05
1.22304e-05
1.23037e-05
1.23606e-05
1.24047e-05
1.24388e-05
1.24657e-05
1.24876e-05
1.25066e-05
1.25245e-05
1.25428e-05
1.25629e-05
1.25858e-05
1.26125e-05
1.26437e-05
1.26801e-05
1.2722e-05
1.27698e-05
1.28238e-05
1.2884e-05
1.29504e-05
1.30229e-05
1.31013e-05
1.31853e-05
1.32744e-05
1.33682e-05
1.3466e-05
1.35672e-05
1.36709e-05
1.37761e-05
1.38819e-05
1.3987e-05
1.40902e-05
1.41899e-05
1.42846e-05
1.43726e-05
1.44521e-05
1.45214e-05
1.45782e-05
1.46203e-05
1.46451e-05
1.46501e-05
1.46331e-05
1.45918e-05
1.45243e-05
1.44285e-05
1.43026e-05
1.41451e-05
1.39548e-05
1.3731e-05
1.34736e-05
1.3183e-05
1.28605e-05
1.25081e-05
1.21281e-05
1.17237e-05
1.12974e-05
1.08499e-05
1.03796e-05
9.88413e-06
9.36465e-06
8.82964e-06
8.29418e-06
7.77253e-06
7.26813e-06
6.77373e-06
6.29052e-06
5.84392e-06
5.4454e-06
5.03465e-06
4.51496e-06
3.90271e-06
3.33748e-06
2.99335e-06
2.82129e-06
3.01196e-06
3.3039e-06
3.93944e-06
6.48514e-06
0
1.8007e-06
2.62273e-06
3.19363e-06
3.76115e-06
4.36758e-06
4.9946e-06
5.62468e-06
6.24867e-06
6.85899e-06
7.4496e-06
8.01511e-06
8.5486e-06
9.04271e-06
9.49272e-06
9.89774e-06
1.02597e-05
1.05817e-05
1.08671e-05
1.1119e-05
1.13407e-05
1.15356e-05
1.1707e-05
1.18583e-05
1.19928e-05
1.21134e-05
1.2223e-05
1.23239e-05
1.24183e-05
1.25084e-05
1.25959e-05
1.26822e-05
1.27687e-05
1.28565e-05
1.29467e-05
1.304e-05
1.3137e-05
1.32383e-05
1.33442e-05
1.34549e-05
1.35706e-05
1.36913e-05
1.38169e-05
1.39472e-05
1.40818e-05
1.42203e-05
1.43623e-05
1.45069e-05
1.46535e-05
1.48011e-05
1.49487e-05
1.50952e-05
1.52393e-05
1.53794e-05
1.55139e-05
1.56412e-05
1.57591e-05
1.58659e-05
1.59594e-05
1.60371e-05
1.60967e-05
1.61353e-05
1.61501e-05
1.61387e-05
1.60983e-05
1.60269e-05
1.59222e-05
1.57822e-05
1.56055e-05
1.53909e-05
1.51378e-05
1.48465e-05
1.45179e-05
1.41538e-05
1.37569e-05
1.333e-05
1.28767e-05
1.23996e-05
1.18999e-05
1.13772e-05
1.0831e-05
1.02647e-05
9.68812e-06
9.11595e-06
8.55987e-06
8.02077e-06
7.49145e-06
6.97361e-06
6.48757e-06
6.03677e-06
5.56553e-06
4.99854e-06
4.36858e-06
3.81434e-06
3.50203e-06
3.38581e-06
3.66227e-06
3.97685e-06
4.29198e-06
7.23962e-06
0
8.66074e-07
1.66458e-06
2.18799e-06
2.70838e-06
3.26926e-06
3.8546e-06
4.44949e-06
5.04663e-06
5.63988e-06
6.22415e-06
6.79443e-06
7.34359e-06
7.86372e-06
8.34932e-06
8.79862e-06
9.21253e-06
9.59298e-06
9.94194e-06
1.02614e-05
1.05534e-05
1.08206e-05
1.10654e-05
1.12908e-05
1.14993e-05
1.16937e-05
1.18763e-05
1.20494e-05
1.22152e-05
1.23754e-05
1.25317e-05
1.26857e-05
1.28386e-05
1.29916e-05
1.31456e-05
1.33015e-05
1.34599e-05
1.36213e-05
1.37862e-05
1.39547e-05
1.41271e-05
1.43033e-05
1.44833e-05
1.46668e-05
1.48534e-05
1.50428e-05
1.52343e-05
1.54272e-05
1.56207e-05
1.58139e-05
1.60055e-05
1.61943e-05
1.63788e-05
1.65575e-05
1.67286e-05
1.689e-05
1.70396e-05
1.71752e-05
1.72945e-05
1.73948e-05
1.74734e-05
1.75274e-05
1.75535e-05
1.7549e-05
1.75111e-05
1.74372e-05
1.73252e-05
1.71728e-05
1.69786e-05
1.67416e-05
1.64613e-05
1.61382e-05
1.57739e-05
1.53706e-05
1.49314e-05
1.44598e-05
1.39596e-05
1.34339e-05
1.28844e-05
1.23121e-05
1.17182e-05
1.11077e-05
1.04913e-05
9.88263e-06
9.29112e-06
8.71656e-06
8.1528e-06
7.60131e-06
7.07634e-06
6.57575e-06
6.05256e-06
5.45242e-06
4.81964e-06
4.28836e-06
4.01818e-06
3.97034e-06
4.32688e-06
4.61073e-06
4.52326e-06
7.9138e-06
0
0
6.16258e-07
1.10261e-06
1.58607e-06
2.11074e-06
2.66229e-06
3.22797e-06
3.80212e-06
4.37991e-06
4.95724e-06
5.5297e-06
6.09029e-06
6.63091e-06
7.14564e-06
7.63209e-06
8.09041e-06
8.52159e-06
8.92661e-06
9.30638e-06
9.66212e-06
9.99544e-06
1.03083e-05
1.06028e-05
1.08812e-05
1.11456e-05
1.13982e-05
1.16409e-05
1.18757e-05
1.21042e-05
1.2328e-05
1.25486e-05
1.27671e-05
1.29847e-05
1.32022e-05
1.34206e-05
1.36405e-05
1.38623e-05
1.40866e-05
1.43134e-05
1.45431e-05
1.47756e-05
1.50107e-05
1.52483e-05
1.5488e-05
1.57293e-05
1.59716e-05
1.6214e-05
1.64558e-05
1.66958e-05
1.69328e-05
1.71654e-05
1.73921e-05
1.7611e-05
1.78202e-05
1.80175e-05
1.82005e-05
1.83669e-05
1.85139e-05
1.86387e-05
1.87384e-05
1.88096e-05
1.88491e-05
1.88536e-05
1.88203e-05
1.87463e-05
1.86291e-05
1.84668e-05
1.82578e-05
1.80009e-05
1.76962e-05
1.73444e-05
1.69474e-05
1.65079e-05
1.60294e-05
1.55159e-05
1.49716e-05
1.44001e-05
1.38039e-05
1.31851e-05
1.25465e-05
1.18946e-05
1.124e-05
1.05952e-05
9.96773e-06
9.35741e-06
8.75942e-06
8.17435e-06
7.61108e-06
7.06486e-06
6.49914e-06
5.87815e-06
5.25438e-06
4.75609e-06
4.53752e-06
4.56477e-06
4.9755e-06
5.17261e-06
4.61698e-06
8.54429e-06
0
0
0
0
3.94264e-07
8.90803e-07
1.41566e-06
1.95799e-06
2.51336e-06
3.07794e-06
3.64848e-06
4.22129e-06
4.78981e-06
5.34614e-06
5.88425e-06
6.4014e-06
6.89715e-06
7.37178e-06
7.82544e-06
8.25826e-06
8.67071e-06
9.06371e-06
9.43855e-06
9.79679e-06
1.01401e-05
1.04702e-05
1.07889e-05
1.10979e-05
1.13988e-05
1.16932e-05
1.19824e-05
1.22678e-05
1.25505e-05
1.28315e-05
1.31118e-05
1.3392e-05
1.3673e-05
1.3955e-05
1.42386e-05
1.45239e-05
1.48112e-05
1.51003e-05
1.53912e-05
1.56836e-05
1.59771e-05
1.62712e-05
1.65652e-05
1.68583e-05
1.71495e-05
1.74377e-05
1.77214e-05
1.79993e-05
1.82696e-05
1.85303e-05
1.87794e-05
1.90144e-05
1.92328e-05
1.94318e-05
1.96086e-05
1.97601e-05
1.98831e-05
1.99739e-05
2.00291e-05
2.00453e-05
2.00191e-05
1.99476e-05
1.98283e-05
1.96591e-05
1.94382e-05
1.91649e-05
1.88392e-05
1.84622e-05
1.8036e-05
1.75638e-05
1.70495e-05
1.64976e-05
1.59125e-05
1.52984e-05
1.46589e-05
1.39971e-05
1.3317e-05
1.26262e-05
1.19351e-05
1.12546e-05
1.05912e-05
9.94525e-06
9.31302e-06
8.69413e-06
8.09369e-06
7.50666e-06
6.90687e-06
6.27449e-06
5.66852e-06
5.21105e-06
5.05098e-06
5.15076e-06
5.57608e-06
5.64546e-06
4.56083e-06
9.13902e-06
0
0
0
0
0
0
1.16923e-07
6.40533e-07
1.1804e-06
1.73369e-06
2.29794e-06
2.87e-06
3.44372e-06
4.01164e-06
4.56794e-06
5.10975e-06
5.63635e-06
6.14744e-06
6.64257e-06
7.12121e-06
7.58321e-06
8.02895e-06
8.45922e-06
8.87506e-06
9.27768e-06
9.66837e-06
1.00485e-05
1.04195e-05
1.07826e-05
1.11393e-05
1.14908e-05
1.18382e-05
1.21826e-05
1.25249e-05
1.2866e-05
1.32065e-05
1.35471e-05
1.38881e-05
1.42301e-05
1.45731e-05
1.49173e-05
1.52626e-05
1.5609e-05
1.5956e-05
1.63034e-05
1.66505e-05
1.69966e-05
1.73408e-05
1.76821e-05
1.80192e-05
1.83507e-05
1.8675e-05
1.89902e-05
1.92943e-05
1.95849e-05
1.98595e-05
2.01152e-05
2.03492e-05
2.05582e-05
2.0739e-05
2.0888e-05
2.10015e-05
2.10755e-05
2.11066e-05
2.1091e-05
2.10258e-05
2.09082e-05
2.0736e-05
2.05075e-05
2.02221e-05
1.98798e-05
1.94821e-05
1.90314e-05
1.85311e-05
1.79854e-05
1.73993e-05
1.67777e-05
1.61254e-05
1.54467e-05
1.47457e-05
1.40279e-05
1.33011e-05
1.25753e-05
1.18602e-05
1.11618e-05
1.04808e-05
9.81437e-06
9.16171e-06
8.52568e-06
7.90218e-06
7.2744e-06
6.63627e-06
6.05285e-06
5.64005e-06
5.5409e-06
5.7066e-06
6.11577e-06
6.06124e-06
4.40938e-06
9.73493e-06
0
0
0
0
0
0
0
0
0
3.44049e-07
9.02877e-07
1.47352e-06
2.05062e-06
2.62722e-06
3.19776e-06
3.75932e-06
4.31106e-06
4.85235e-06
5.38236e-06
5.90012e-06
6.40498e-06
6.89686e-06
7.37614e-06
7.84345e-06
8.29964e-06
8.74562e-06
9.18238e-06
9.61099e-06
1.00325e-05
1.0448e-05
1.08587e-05
1.12653e-05
1.1669e-05
1.20705e-05
1.24706e-05
1.28699e-05
1.32688e-05
1.36679e-05
1.40674e-05
1.44675e-05
1.48683e-05
1.52697e-05
1.56714e-05
1.60733e-05
1.64748e-05
1.68752e-05
1.72739e-05
1.76699e-05
1.8062e-05
1.8449e-05
1.88293e-05
1.92011e-05
1.95625e-05
1.99112e-05
2.02449e-05
2.05607e-05
2.08556e-05
2.11265e-05
2.13699e-05
2.15823e-05
2.17598e-05
2.18985e-05
2.19943e-05
2.20433e-05
2.20416e-05
2.19861e-05
2.18738e-05
2.17025e-05
2.14704e-05
2.1177e-05
2.08225e-05