/*--------------------------------*- C++ -*----------------------------------*\
  =========                 |
  \\      /  F ield         | OpenFOAM: The Open Source CFD Toolbox
   \\    /   O peration     | Website:  https://openfoam.org
    \\  /    A nd           | Version:  10
     \\/     M anipulation  |
\*---------------------------------------------------------------------------*/
FoamFile
{
    format      ascii;
    class       volScalarField;
    location    "0.005";
    object      p;
}
// * * * * * * * * * * * * * * * * * * * * * * * * * * * * * * * * * * * * * //

dimensions      [0 2 -2 0 0 0 0];

internalField   nonuniform List<scalar> 
6820
(
-7.4933
-7.80332
-7.87226
-7.92126
-7.99427
-8.06476
-8.12845
-8.18729
-8.24432
-8.30807
-8.38499
-8.46994
-8.56311
-8.66603
-8.78047
-8.90858
-9.05237
-9.21368
-9.39436
-9.59657
-9.82318
-10.078
-10.3657
-10.6927
-11.0667
-11.4982
-12.001
-12.5952
-13.3088
-14.1888
-15.3128
-16.8224
-19.0939
-7.68922
-7.82106
-7.8766
-7.91975
-7.97985
-8.04067
-8.09996
-8.16092
-8.22698
-8.3004
-8.37901
-8.46457
-8.55827
-8.66167
-8.77646
-8.90461
-9.04806
-9.20865
-9.38829
-9.58919
-9.81422
-10.0671
-10.3525
-10.6763
-11.0462
-11.4721
-11.9669
-12.5494
-13.2425
-14.0905
-15.1249
-16.4843
-18.0068
-7.68775
-7.78079
-7.85899
-7.91444
-7.97855
-8.04449
-8.10811
-8.17058
-8.23422
-8.3016
-8.37657
-8.4609
-8.55414
-8.65691
-8.77097
-8.89818
-9.04033
-9.1992
-9.3767
-9.57507
-9.79708
-10.0463
-10.3271
-10.645
-11.0071
-11.4223
-11.9021
-12.4623
-13.1211
-13.9105
-14.8483
-16.0097
-17.2804
-7.74055
-7.81685
-7.8826
-7.92878
-7.98248
-8.03978
-8.09662
-8.15529
-8.21884
-8.28889
-8.36605
-8.45084
-8.54396
-8.6465
-8.76006
-8.88632
-9.02697
-9.18374
-9.3585
-9.55343
-9.77119
-10.0151
-10.2891
-10.5984
-10.9491
-11.349
-11.8074
-12.3371
-12.9509
-13.6708
-14.5003
-15.4839
-16.5119
-7.76536
-7.81064
-7.86751
-7.91648
-7.97165
-8.03111
-8.09117
-8.15285
-8.21747
-8.28624
-8.36112
-8.44383
-8.53513
-8.63596
-8.74767
-8.87176
-9.00977
-9.16331
-9.33416
-9.52435
-9.73634
-9.97312
-10.2383
-10.5362
-10.872
-11.2522
-11.6839
-12.1765
-12.7381
-13.3814
-14.1037
-14.9233
-15.7633
-7.78885
-7.8257
-7.87974
-7.92721
-7.97731
-8.03122
-8.08631
-8.14377
-8.20515
-8.27284
-8.34721
-8.42927
-8.51969
-8.61934
-8.72944
-8.85136
-8.9865
-9.13636
-9.3026
-9.4871
-9.69205
-9.92009
-10.1743
-10.4583
-10.7763
-11.1331
-11.534
-11.985
-12.4903
-13.0556
-13.6746
-14.3507
-15.0297
-7.80607
-7.83173
-7.87622
-7.91964
-7.96698
-8.01961
-8.07504
-8.13368
-8.19597
-8.26337
-8.33654
-8.41669
-8.50483
-8.60196
-8.7092
-8.82776
-8.9589
-9.10397
-9.26444
-9.44196
-9.63845
-9.8561
-10.0974
-10.3653
-10.6629
-10.9935
-11.3604
-11.767
-12.2144
-12.7034
-13.2256
-13.7766
-14.3173
-7.81912
-7.83922
-7.87943
-7.92183
-7.96732
-8.01715
-8.06954
-8.12474
-8.18419
-8.24896
-8.31997
-8.3981
-8.48414
-8.57889
-8.68326
-8.7983
-8.9251
-9.06484
-9.2188
-9.38841
-9.57526
-9.78112
-10.0079
-10.2578
-10.5328
-10.8351
-11.1663
-11.5273
-11.9171
-12.3335
-12.767
-13.2097
-13.6322
-7.8285
-7.84419
-7.87864
-7.9171
-7.95899
-8.00591
-8.05676
-8.11104
-8.16973
-8.2335
-8.30301
-8.37903
-8.46237
-8.5539
-8.65447
-8.76502
-8.8865
-9.01991
-9.16632
-9.3269
-9.50289
-9.69562
-9.90646
-10.1368
-10.3878
-10.6604
-10.9548
-11.2705
-11.6047
-11.9532
-12.3068
-12.6561
-12.9783
-7.83462
-7.8474
-7.8778
-7.91393
-7.95389
-7.99861
-8.04712
-8.09902
-8.1551
-8.2161
-8.28276
-8.35582
-8.43599
-8.52397
-8.62045
-8.72615
-8.84185
-8.96836
-9.10652
-9.25722
-9.42139
-9.59994
-9.7937
-10.0034
-10.2294
-10.4717
-10.7295
-11.0009
-11.2824
-11.5688
-11.8511
-12.1204
-12.3583
-7.83784
-7.84849
-7.87515
-7.90818
-7.94521
-7.98701
-8.03299
-8.08277
-8.13686
-8.19579
-8.26008
-8.33031
-8.4071
-8.49107
-8.58282
-8.68296
-8.79211
-8.9109
-9.03996
-9.17993
-9.33138
-9.49484
-9.67067
-9.85898
-10.0595
-10.2716
-10.4934
-10.7226
-10.955
-11.1852
-11.4048
-11.6059
-11.7736
-7.83836
-7.84744
-7.87104
-7.90143
-7.93612
-7.97555
-8.01915
-8.06652
-8.11795
-8.17394
-8.23498
-8.30163
-8.37443
-8.45388
-8.54044
-8.63456
-8.73667
-8.8472
-8.96657
-9.09516
-9.23326
-9.38102
-9.53838
-9.70501
-9.88014
-10.0624
-10.2498
-10.4393
-10.6266
-10.8065
-10.9716
-11.115
-11.2245
-7.83634
-7.84422
-7.86516
-7.8929
-7.92501
-7.96172
-8.0026
-8.04729
-8.09599
-8.14907
-8.2069
-8.26991
-8.33853
-8.41313
-8.49407
-8.58165
-8.67615
-8.77783
-8.88692
-9.00356
-9.12778
-9.25942
-9.39808
-9.54304
-9.69316
-9.84675
-10.0014
-10.1541
-10.3006
-10.436
-10.554
-10.6488
-10.7107
-7.83191
-7.83882
-7.85746
-7.88275
-7.91243
-7.94658
-7.98482
-8.02676
-8.07248
-8.12225
-8.17639
-8.23526
-8.2992
-8.36849
-8.44336
-8.52396
-8.61043
-8.70284
-8.80125
-8.90557
-9.01562
-9.13097
-9.25096
-9.3746
-9.5005
-9.62676
-9.75092
-9.86988
-9.97978
-10.0763
-10.1539
-10.2082
-10.2312
-7.82514
-7.83125
-7.84787
-7.87081
-7.89804
-7.92953
-7.96493
-8.00388
-8.0464
-8.09268
-8.14295
-8.19748
-8.25651
-8.32021
-8.38867
-8.46193
-8.53998
-8.62276
-8.71014
-8.8019
-8.89763
-8.99673
-9.09834
-9.20128
-9.30401
-9.40457
-9.50053
-9.58896
-9.6664
-9.72909
-9.77252
-9.79316
-9.78477
-7.81611
-7.82152
-7.83634
-7.85704
-7.88186
-7.91071
-7.94325
-7.97913
-8.01828
-8.06083
-8.10695
-8.15681
-8.21059
-8.26834
-8.33006
-8.39566
-8.465
-8.5379
-8.61409
-8.6932
-8.77467
-8.85777
-8.94149
-9.02457
-9.10541
-9.18208
-9.25228
-9.31335
-9.36225
-9.39585
-9.41045
-9.40339
-9.36982
-7.80489
-7.80967
-7.82284
-7.8414
-7.86383
-7.89
-7.91958
-7.95222
-7.98783
-8.02646
-8.06821
-8.11319
-8.16149
-8.21306
-8.2678
-8.32551
-8.38595
-8.44882
-8.51374
-8.58024
-8.64766
-8.71516
-8.78168
-8.84592
-8.9063
-8.961
-9.0079
-9.04466
-9.0687
-9.07744
-9.06795
-9.03827
-8.9847
-7.79152
-7.79574
-7.80736
-7.82387
-7.84394
-7.86741
-7.89397
-7.92329
-7.95521
-7.98975
-8.02694
-8.06683
-8.10941
-8.15458
-8.20214
-8.25179
-8.3032
-8.356
-8.40972
-8.46379
-8.51751
-8.56998
-8.62013
-8.66668
-8.70813
-8.74281
-8.76883
-8.7842
-8.78675
-8.77441
-8.74494
-8.69695
-8.62767
-7.77606
-7.77975
-7.78993
-7.80445
-7.82217
-7.84292
-7.86641
-7.8923
-7.92041
-7.95071
-7.98318
-8.0178
-8.05451
-8.09314
-8.13338
-8.17489
-8.21726
-8.26003
-8.30271
-8.34466
-8.38515
-8.42329
-8.45801
-8.4881
-8.5122
-8.5288
-8.53628
-8.53295
-8.51707
-8.48702
-8.44113
-8.37846
-8.29697
-7.7586
-7.76178
-7.77058
-7.78316
-7.79854
-7.81658
-7.83695
-7.85933
-7.88354
-7.90948
-7.9371
-7.96633
-7.99705
-8.02902
-8.06189
-8.09525
-8.12862
-8.16152
-8.19341
-8.22365
-8.2515
-8.27608
-8.29639
-8.31133
-8.31967
-8.32009
-8.31122
-8.29169
-8.26013
-8.21533
-8.15604
-8.08172
-7.99089
-7.73919
-7.7419
-7.74936
-7.76005
-7.77312
-7.78842
-7.80564
-7.82447
-7.8447
-7.8662
-7.88888
-7.91263
-7.93729
-7.96256
-7.98806
-8.01331
-8.03783
-8.06109
-8.08255
-8.10157
-8.11743
-8.12932
-8.13631
-8.1374
-8.13152
-8.11757
-8.09441
-8.06097
-8.01618
-7.95918
-7.88908
-7.80562
-7.7078
-7.71794
-7.72018
-7.72635
-7.73518
-7.74597
-7.75853
-7.77259
-7.78783
-7.80403
-7.82104
-7.83873
-7.85696
-7.87553
-7.89412
-7.9123
-7.92958
-7.94545
-7.95939
-7.97084
-7.97921
-7.98382
-7.98392
-7.97867
-7.96721
-7.94862
-7.92201
-7.88647
-7.84116
-7.78531
-7.7183
-7.63958
-7.54907
-7.44616
-7.69496
-7.69674
-7.70166
-7.70867
-7.71719
-7.72704
-7.73793
-7.74957
-7.76172
-7.77422
-7.7869
-7.79962
-7.81213
-7.8241
-7.83509
-7.84459
-7.85208
-7.85707
-7.85902
-7.85736
-7.85148
-7.8407
-7.82431
-7.80157
-7.77172
-7.73405
-7.68785
-7.6325
-7.56746
-7.49235
-7.40684
-7.31102
-7.20453
-7.67036
-7.6717
-7.6754
-7.68063
-7.68692
-7.69407
-7.70181
-7.70986
-7.71798
-7.72597
-7.73368
-7.74092
-7.74746
-7.75293
-7.7569
-7.75886
-7.75832
-7.75479
-7.74777
-7.73674
-7.72117
-7.70046
-7.67401
-7.6412
-7.60145
-7.55417
-7.49887
-7.43509
-7.36251
-7.28091
-7.19015
-7.09042
-6.98158
-7.6443
-7.64522
-7.64772
-7.65122
-7.65532
-7.65981
-7.66445
-7.66895
-7.67307
-7.67662
-7.67941
-7.68127
-7.68194
-7.68109
-7.67826
-7.67299
-7.66479
-7.65321
-7.6378
-7.61809
-7.59363
-7.56391
-7.52844
-7.48673
-7.43832
-7.38278
-7.31976
-7.24899
-7.17027
-7.08354
-6.9888
-6.88631
-6.77608
-7.61695
-7.61746
-7.61881
-7.62062
-7.62257
-7.62446
-7.62604
-7.62704
-7.62723
-7.62641
-7.6244
-7.621
-7.61598
-7.60902
-7.59968
-7.58752
-7.57208
-7.55296
-7.52976
-7.50208
-7.46953
-7.43171
-7.38822
-7.33868
-7.28276
-7.22016
-7.15067
-7.07414
-6.9905
-6.89979
-6.80212
-6.69779
-6.58694
-7.58851
-7.58862
-7.58886
-7.58904
-7.58893
-7.5883
-7.58692
-7.58453
-7.58091
-7.57584
-7.56915
-7.56067
-7.55016
-7.53733
-7.52178
-7.5031
-7.48088
-7.45475
-7.42437
-7.38942
-7.34957
-7.30451
-7.25393
-7.19757
-7.13519
-7.06662
-6.99174
-6.91052
-6.82298
-6.72925
-6.6295
-6.52408
-6.41319
-7.55919
-7.55891
-7.55809
-7.5567
-7.55457
-7.55148
-7.5472
-7.54151
-7.53418
-7.52501
-7.51383
-7.50047
-7.48474
-7.46636
-7.44496
-7.42019
-7.39167
-7.35909
-7.32217
-7.28064
-7.23425
-7.18277
-7.12598
-7.06371
-6.99582
-6.92224
-6.84293
-6.75793
-6.66737
-6.57141
-6.47028
-6.36434
-6.25387
-7.52923
-7.52861
-7.52681
-7.52397
-7.51999
-7.51462
-7.50765
-7.49886
-7.48801
-7.47493
-7.45945
-7.44143
-7.42071
-7.39706
-7.37017
-7.33971
-7.30537
-7.26688
-7.22402
-7.17658
-7.12437
-7.06725
-7.00507
-6.93773
-6.86519
-6.78743
-6.70451
-6.61653
-6.52366
-6.42612
-6.32417
-6.21817
-6.10842
-7.4989
-7.49792
-7.49516
-7.49087
-7.48503
-7.47738
-7.46773
-7.4559
-7.44168
-7.42491
-7.40541
-7.38308
-7.35776
-7.32926
-7.29732
-7.26167
-7.22204
-7.17821
-7.13002
-7.07732
-7.01999
-6.95794
-6.8911
-6.81945
-6.743
-6.66181
-6.57599
-6.48569
-6.39112
-6.29252
-6.19019
-6.08448
-5.97572
-7.4685
-7.46728
-7.46378
-7.45839
-7.45108
-7.44157
-7.42966
-7.41514
-7.39784
-7.37757
-7.35424
-7.32775
-7.29802
-7.26493
-7.22827
-7.18782
-7.14337
-7.09473
-7.04179
-6.98446
-6.92266
-6.85636
-6.78556
-6.71029
-6.63061
-6.54663
-6.45851
-6.36644
-6.27066
-6.17142
-6.06904
-5.96384
-5.85618
-7.43824
-7.43665
-7.43223
-7.42545
-7.41637
-7.40473
-7.3904
-7.37322
-7.35303
-7.32966
-7.30298
-7.27291
-7.23938
-7.20229
-7.16149
-7.1168
-7.06807
-7.01518
-6.95806
-6.89666
-6.83097
-6.76101
-6.68683
-6.60851
-6.52616
-6.43993
-6.35002
-6.25663
-6.16003
-6.0605
-5.95834
-5.85387
-5.74747
-7.40866
-7.40715
-7.40262
-7.39546
-7.38563
-7.3728
-7.35677
-7.33741
-7.31455
-7.2881
-7.25801
-7.22428
-7.18694
-7.14596
-7.10126
-7.05269
-7.00014
-6.94352
-6.88278
-6.81792
-6.74896
-6.67596
-6.59901
-6.51822
-6.43375
-6.34577
-6.25451
-6.16019
-6.06307
-5.96346
-5.86165
-5.75793
-5.65269
-7.37942
-7.37719
-7.37145
-7.36271
-7.35106
-7.3363
-7.31827
-7.29686
-7.27192
-7.2433
-7.21085
-7.17455
-7.13437
-7.09034
-7.04241
-6.99053
-6.93466
-6.87475
-6.81082
-6.7429
-6.67107
-6.59543
-6.5161
-6.43323
-6.34701
-6.25763
-6.16534
-6.07038
-5.97303
-5.87357
-5.77232
-5.66955
-5.56566
-7.35228
-7.35149
-7.34732
-7.33955
-7.32814
-7.3129
-7.29367
-7.27033
-7.24285
-7.21123
-7.17557
-7.13598
-7.09259
-7.04546
-6.99458
-6.93987
-6.88128
-6.81876
-6.75233
-6.68206
-6.60804
-6.5304
-6.44928
-6.36487
-6.27736
-6.18697
-6.09396
-5.99857
-5.90108
-5.80177
-5.70096
-5.59889
-5.49596
-7.3235
-7.32021
-7.31399
-7.30452
-7.29162
-7.27514
-7.25493
-7.2309
-7.20293
-7.17079
-7.1343
-7.09341
-7.0482
-6.99882
-6.9454
-6.88804
-6.8268
-6.76172
-6.69287
-6.62035
-6.54427
-6.46478
-6.38206
-6.2963
-6.20773
-6.11657
-6.02309
-5.92754
-5.83021
-5.73137
-5.63133
-5.53033
-5.42875
-7.30288
-7.30581
-7.30398
-7.29627
-7.28397
-7.26715
-7.24539
-7.21866
-7.18717
-7.15118
-7.11105
-7.06714
-7.01964
-6.96853
-6.91369
-6.855
-6.79238
-6.72586
-6.65555
-6.58158
-6.50413
-6.42336
-6.33948
-6.25269
-6.16323
-6.07135
-5.9773
-5.88136
-5.78381
-5.68492
-5.58499
-5.48423
-5.38305
-7.26406
-7.26217
-7.26088
-7.25372
-7.2418
-7.22585
-7.20563
-7.18128
-7.15273
-7.11946
-7.08091
-7.03694
-6.98783
-6.93414
-6.87641
-6.81498
-6.75002
-6.68158
-6.60966
-6.53435
-6.45576
-6.37407
-6.28949
-6.20223
-6.11255
-6.02068
-5.92689
-5.83143
-5.73459
-5.63663
-5.53784
-5.43844
-5.33887
-7.27195
-7.27848
-7.27866
-7.27058
-7.25823
-7.24059
-7.21668
-7.18666
-7.15114
-7.11118
-7.06795
-7.02221
-6.97398
-6.92259
-6.86718
-6.80723
-6.74272
-6.67395
-6.60133
-6.52521
-6.44583
-6.3634
-6.27808
-6.19007
-6.09961
-6.00695
-5.91238
-5.81617
-5.71863
-5.62004
-5.52076
-5.42098
-5.32132
-7.14897
-7.21203
-7.2238
-7.21719
-7.20927
-7.19564
-7.17636
-7.15338
-7.1265
-7.09426
-7.05526
-7.00906
-6.95639
-6.89853
-6.83684
-6.77217
-6.70477
-6.63445
-6.561
-6.48429
-6.4044
-6.32154
-6.23596
-6.14795
-6.05777
-5.96566
-5.87188
-5.77666
-5.68026
-5.5829
-5.4848
-5.38622
-5.28715
-22.5586
-20.2047
-27.5596
-34.9005
-35.2343
-29.7509
-22.5528
-16.4402
-12.0042
-8.82988
-6.53076
-4.85446
-3.6138
-2.68145
-1.97185
-1.42533
-1.0003
-0.667384
-0.405347
-0.198626
-0.0356072
0.0925659
0.192754
0.270329
0.329533
0.37377
0.405804
0.427893
0.441892
0.449335
0.451494
0.449427
0.444012
0.435984
0.425952
0.414424
0.401819
0.388483
0.374701
0.360704
0.346678
0.332775
0.31911
0.305776
0.29284
0.280352
0.268347
0.256845
0.245858
0.235388
0.225429
0.215971
0.207
0.198496
0.19044
0.182809
0.17558
0.168729
0.162231
0.156063
0.150201
0.144621
0.139301
0.13422
0.129356
0.12469
0.120203
0.115878
0.111698
0.107647
0.103711
0.0998773
0.0961326
0.0924652
0.0888648
0.0853211
0.0818254
0.0783689
0.0749443
0.0715444
0.068163
0.0647937
0.0614316
0.0580713
0.0547087
0.0513396
0.0479604
0.0445676
0.0411582
0.0377292
0.0342781
0.0308023
0.0272997
0.0237685
0.0202058
0.0166125
0.0129796
0.00932414
0.00559647
0.00191757
-20.6195
-20.6549
-24.8866
-29.5297
-29.8118
-25.8682
-20.3362
-15.3537
-11.5273
-8.66407
-6.52187
-4.92029
-3.71286
-2.79295
-2.0852
-1.53535
-1.10458
-0.764934
-0.495938
-0.282383
-0.11281
0.0215386
0.127457
0.210326
0.274436
0.32321
0.359433
0.385386
0.402949
0.413677
0.418861
0.419579
0.416728
0.411057
0.403192
0.393655
0.382878
0.371219
0.358976
0.346389
0.333655
0.320935
0.308353
0.296009
0.283978
0.272318
0.261068
0.250257
0.239898
0.230001
0.220565
0.211582
0.203043
0.194932
0.187233
0.179926
0.172991
0.166406
0.16015
0.1542
0.148535
0.143132
0.137973
0.133036
0.128301
0.123752
0.11937
0.115139
0.111043
0.107068
0.1032
0.0994259
0.0957348
0.0921151
0.0885571
0.0850511
0.0815888
0.078162
0.0747637
0.0713869
0.0680256
0.0646741
0.0613276
0.0579812
0.054631
0.0512727
0.0479029
0.0445182
0.0411159
0.0376931
0.0342475
0.0307766
0.0272783
0.0237509
0.0201916
0.0166012
0.0129713
0.00931771
0.00559358
0.00191436
-19.2265
-19.8617
-22.4226
-25.4969
-25.6033
-22.5874
-18.33
-14.3161
-11.0397
-8.47127
-6.48775
-4.9678
-3.80005
-2.89736
-2.19479
-1.64379
-1.20868
-0.863182
-0.587743
-0.367658
-0.191724
-0.0512864
0.0603901
0.148624
0.217699
0.27108
0.311574
0.341477
0.362689
0.376785
0.385076
0.388658
0.388445
0.385204
0.379574
0.372092
0.363204
0.35328
0.342629
0.331502
0.320108
0.308615
0.297156
0.285841
0.274751
0.26395
0.253486
0.243391
0.233687
0.224387
0.215494
0.207006
0.198917
0.191216
0.183889
0.17692
0.170291
0.163983
0.157978
0.152256
0.146796
0.141579
0.136587
0.1318
0.127201
0.122774
0.118502
0.114368
0.110361
0.106464
0.102666
0.0989549
0.0953197
0.0917498
0.0882361
0.0847693
0.0813419
0.0779459
0.0745748
0.071222
0.0678821
0.0645496
0.0612196
0.0578878
0.0545501
0.0512028
0.0478427
0.0444666
0.0410718
0.0376556
0.0342158
0.0307499
0.0272561
0.0237325
0.0201769
0.0165894
0.0129628
0.00931098
0.00559084
0.0019104
-17.9407
-18.8366
-20.524
-22.3924
-22.2883
-19.9759
-16.6545
-13.3693
-10.5512
-8.25567
-6.43015
-4.9969
-3.87441
-2.99351
-2.29944
-1.74961
-1.31171
-0.961383
-0.680171
-0.453971
-0.27192
-0.125558
-0.00821715
0.0853827
0.159476
0.217514
0.26233
0.296248
0.32118
0.338715
0.350185
0.356702
0.359196
0.35845
0.355119
0.349752
0.34281
0.334675
0.325667
0.316049
0.306039
0.295814
0.285519
0.275268
0.265153
0.255243
0.245594
0.236244
0.227219
0.218538
0.21021
0.202237
0.194617
0.187342
0.180402
0.173784
0.167474
0.161456
0.155713
0.150227
0.144981
0.139958
0.13514
0.13051
0.126053
0.121753
0.117595
0.113564
0.109648
0.105833
0.102109
0.0984631
0.0948862
0.0913684
0.0879008
0.0844752
0.0810841
0.0777204
0.0743778
0.0710503
0.0677324
0.0644193
0.0611065
0.0577898
0.0544654
0.0511298
0.04778
0.0444128
0.0410258
0.0376164
0.0341825
0.0307219
0.0272328
0.0237133
0.0201614
0.0165771
0.0129539
0.00930389
0.00558824
0.00190533
-16.8525
-17.7203
-18.8087
-19.8822
-19.6475
-17.8261
-15.1882
-12.4856
-10.0676
-8.02492
-6.353
-5.00894
-3.93597
-3.08082
-2.39843
-1.85211
-1.41308
-1.05907
-0.772851
-0.541039
-0.353191
-0.201087
-0.0782027
0.0206859
0.0997916
0.162537
0.211733
0.249715
0.278425
0.299466
0.314182
0.323699
0.328967
0.33078
0.32981
0.326619
0.32168
0.315389
0.308076
0.300015
0.291435
0.282523
0.273431
0.264283
0.255177
0.246192
0.237388
0.22881
0.22049
0.212453
0.204712
0.197274
0.19014
0.183308
0.176771
0.170519
0.164541
0.158824
0.153353
0.148114
0.143091
0.138269
0.133632
0.129166
0.124857
0.120689
0.116649
0.112725
0.108905
0.105176
0.101528
0.0979505
0.0944345
0.0909708
0.0875514
0.0841686
0.0808154
0.0774852
0.0741723
0.070871
0.0675763
0.0642837
0.0609889
0.0576879
0.0543774
0.0510539
0.0477146
0.0443567
0.0409779
0.0375756
0.034148
0.0306929
0.0272086
0.0236934
0.0201454
0.0165643
0.0129447
0.00929651
0.00558602
0.00189952
-15.8552
-16.5882
-17.3023
-17.8703
-17.5287
-16.0519
-13.9265
-11.6824
-9.60048
-7.78509
-6.25952
-5.00517
-3.9848
-3.15882
-2.49105
-1.95055
-1.51211
-1.15565
-0.86528
-0.628447
-0.435198
-0.277609
-0.149332
-0.0452479
0.0388054
0.106239
0.159849
0.201952
0.234487
0.259082
0.277101
0.289681
0.297782
0.302214
0.303663
0.302704
0.299823
0.295427
0.289858
0.283403
0.276297
0.268739
0.26089
0.252881
0.24482
0.236791
0.228861
0.221083
0.213495
0.206126
0.198993
0.19211
0.185482
0.179111
0.172992
0.16712
0.161487
0.156083
0.150895
0.145913
0.141122
0.136509
0.132062
0.127766
0.12361
0.11958
0.115665
0.111852
0.108131
0.104491
0.100922
0.0974163
0.0939636
0.0905564
0.0871872
0.083849
0.0805353
0.0772402
0.0739583
0.0706843
0.0674137
0.0641423
0.0608661
0.0575816
0.0542854
0.0509746
0.0476464
0.0442983
0.0409279
0.0375331
0.034112
0.0306626
0.0271834
0.0236726
0.0201286
0.016551
0.0129351
0.0092888
0.00558402
0.00189294
-14.9426
-15.5183
-15.9675
-16.2039
-15.7923
-14.5668
-12.8274
-10.9479
-9.15166
-7.54077
-6.1531
-4.98729
-4.0214
-3.22731
-2.57681
-2.04434
-1.60821
-1.25058
-0.957008
-0.715821
-0.517635
-0.354878
-0.221417
-0.112262
-0.0233298
0.0487423
0.106744
0.152987
0.189398
0.217601
0.238969
0.25466
0.265649
0.272757
0.27668
0.278008
0.277237
0.274787
0.271012
0.266208
0.260621
0.254459
0.247892
0.24106
0.234077
0.227037
0.220013
0.213063
0.206232
0.199554
0.193053
0.186745
0.180642
0.174748
0.169063
0.163586
0.158311
0.153232
0.148339
0.143623
0.139073
0.134679
0.130428
0.12631
0.122313
0.118426
0.11464
0.110942
0.107325
0.103778
0.100292
0.0968603
0.0934736
0.0901252
0.0868082
0.0835163
0.0802438
0.0769851
0.0737354
0.0704899
0.0672444
0.0639952
0.0607385
0.0574711
0.0541899
0.0508922
0.0475755
0.0442375
0.0408759
0.0374889
0.0340745
0.0306311
0.0271571
0.023651
0.0201113
0.0165371
0.0129252
0.00928081
0.00558221
0.00188602
-14.0988
-14.5213
-14.7801
-14.8086
-14.3583
-13.3171
-11.8711
-10.2825
-8.72655
-7.29669
-6.03695
-4.95704
-4.04643
-3.28628
-2.65533
-2.13295
-1.70082
-1.34335
-1.04756
-0.802753
-0.600159
-0.432607
-0.294218
-0.180165
-0.086462
-0.00980516
0.0525541
0.102915
0.14321
0.175058
0.199826
0.218677
0.232598
0.24243
0.248878
0.252543
0.253932
0.253476
0.251541
0.248432
0.244407
0.239682
0.234436
0.228816
0.222947
0.216927
0.210838
0.204745
0.198697
0.192734
0.186887
0.181175
0.175616
0.170216
0.164982
0.159914
0.155012
0.150269
0.145682
0.141243
0.136944
0.132775
0.128729
0.124795
0.120964
0.117226
0.113574
0.109997
0.106487
0.103036
0.0996371
0.0962819
0.0929639
0.0896765
0.0864139
0.0831703
0.0799406
0.0767198
0.0735036
0.0702877
0.0670684
0.0638421
0.0606056
0.057356
0.0540905
0.0508065
0.0475018
0.0441742
0.0408219
0.0374429
0.0340356
0.0305984
0.0271299
0.0236285
0.0200932
0.0165227
0.012915
0.00927254
0.00558038
0.00187892
-13.3178
-13.6076
-13.7275
-13.6238
-13.156
-12.254
-11.0339
-9.67912
-8.32583
-7.05581
-5.91383
-4.91623
-4.06076
-3.33594
-2.72642
-2.21598
-1.78947
-1.43347
-1.1365
-0.88885
-0.682432
-0.51051
-0.367499
-0.248759
-0.150428
-0.0692794
-0.00261057
0.0518492
0.0960139
0.131507
0.1597
0.181753
0.198658
0.211259
0.220274
0.22632
0.229916
0.231502
0.231452
0.230082
0.22766
0.224411
0.220523
0.216152
0.21143
0.206463
0.201339
0.196129
0.19089
0.185667
0.180495
0.1754
0.170403
0.165516
0.160748
0.156105
0.151587
0.147195
0.142925
0.138773
0.134733
0.130799
0.126965
0.123222
0.119563
0.11598
0.112467
0.109014
0.105617
0.102266
0.0989564
0.0956811
0.0924343
0.0892105
0.0860043
0.0828108
0.0796256
0.0764442
0.0732628
0.0700777
0.0668855
0.0636831
0.0604677
0.0572365
0.0539872
0.0507174
0.0474252
0.0441085
0.0407657
0.0373951
0.0339951
0.0305644
0.0271015
0.0236052
0.0200745
0.0165078
0.0129043
0.00926403
0.00557854
0.00187192
-12.5953
-12.7749
-12.7922
-12.6062
-12.1372
-11.3435
-10.2996
-9.1337
-7.95096
-6.82103
-5.78635
-4.86666
-4.06536
-3.37664
-2.79001
-2.29314
-1.87374
-1.5205
-1.22338
-0.973717
-0.764103
-0.588285
-0.441
-0.317827
-0.215045
-0.129525
-0.0586255
-0.000112041
0.0479086
0.0870441
0.118662
0.143933
0.163851
0.179262
0.190893
0.199367
0.205209
0.208875
0.210752
0.211162
0.210384
0.208649
0.206156
0.203069
0.199526
0.195642
0.191512
0.187213
0.182809
0.178349
0.173875
0.169418
0.165002
0.160645
0.15636
0.152155
0.148037
0.144006
0.140065
0.13621
0.13244
0.128749
0.125134
0.121589
0.118109
0.114687
0.111318
0.107995
0.104713
0.101467
0.0982498
0.0950575
0.0918847
0.0887267
0.0855791
0.0824377
0.0792986
0.0761581
0.0730128
0.0698597
0.0666956
0.0635181
0.0603245
0.0571125
0.05388
0.050625
0.0473457
0.0440404
0.0407075
0.0373456
0.0339532
0.0305291
0.0270722
0.023581
0.020055
0.0164924
0.0128933
0.00925526
0.00557651
0.00186515
-11.9278
-12.0189
-11.9612
-11.7248
-11.2645
-10.5573
-9.6526
-8.64042
-7.60155
-6.59412
-5.65665
-4.81002
-4.06128
-3.40885
-2.84618
-2.36423
-1.95332
-1.60405
-1.30783
-1.05698
-0.844831
-0.66563
-0.514461
-0.387143
-0.280123
-0.190383
-0.115354
-0.0528531
-0.00101697
0.0417456
0.0767938
0.105291
0.128233
0.146477
0.160756
0.171693
0.179826
0.185618
0.18946
0.191688
0.192588
0.192404
0.191341
0.189571
0.18724
0.18447
0.181363
0.178002
0.174457
0.170784
0.167029
0.16323
0.159414
0.155604
0.151818
0.148067
0.144361
0.140705
0.137103
0.133556
0.130064
0.126626
0.123238
0.119898
0.116603
0.113347
0.110127
0.106938
0.103777
0.100638
0.0975174
0.0944111
0.091315
0.0882253
0.0851384
0.0820509
0.0789596
0.0758615
0.0727537
0.0696336
0.0664988
0.063347
0.060176
0.056984
0.0537689
0.0505292
0.0472633
0.0439697
0.0406471
0.0372942
0.0339097
0.0304926
0.0270418
0.0235559
0.0200349
0.0164764
0.0128818
0.00924629
0.00557431
0.00185874
-11.3122
-11.3333
-11.2213
-10.9552
-10.51
-9.87377
-9.08065
-8.19452
-7.2772
-6.37656
-5.52662
-4.7479
-4.04961
-3.43318
-2.89513
-2.4292
-2.02796
-1.68381
-1.38947
-1.13828
-0.924283
-0.742241
-0.587611
-0.456473
-0.345459
-0.251677
-0.172649
-0.106249
-0.0506534
-0.00429734
0.0341643
0.0658887
0.0918706
0.112965
0.129908
0.143334
0.153789
0.16174
0.167584
0.171669
0.174286
0.175689
0.176089
0.175667
0.174578
0.17295
0.170893
0.168496
0.165835
0.162972
0.159959
0.156837
0.15364
0.150394
0.147122
0.143839
0.140559
0.13729
0.134039
0.13081
0.127606
0.124428
0.121276
0.118148
0.115043
0.11196
0.108894
0.105845
0.102808
0.09978
0.0967592
0.0937418
0.090725
0.087706
0.084682
0.0816504
0.0786087
0.0755544
0.0724854
0.0693996
0.0662951
0.0631699
0.0600223
0.0568508
0.0536539
0.0504301
0.0471781
0.0438966
0.0405847
0.037241
0.0338648
0.0304548
0.0270103
0.02353
0.0200141
0.0164599
0.01287
0.00923709
0.00557176
0.00185283
-10.745
-10.7119
-10.5611
-10.2792
-9.85237
-9.27553
-8.57312
-7.79112
-6.97679
-6.16919
-5.39774
-4.68174
-4.03142
-3.45027
-2.93715
-2.48805
-2.09751
-1.7595
-1.468
-1.2173
-1.00214
-0.81782
-0.660179
-0.525576
-0.410841
-0.313225
-0.23035
-0.160162
-0.100885
-0.0509853
-0.0091382
0.0258006
0.0548199
0.0787747
0.0984032
0.114342
0.127141
0.137274
0.14515
0.151122
0.15549
0.15851
0.160406
0.161365
0.161548
0.161092
0.160111
0.158703
0.15695
0.154919
0.152667
0.150242
0.147681
0.145017
0.142275
0.139475
0.136633
0.133763
0.130874
0.127973
0.125066
0.122157
0.119247
0.116339
0.113432
0.110526
0.10762
0.104714
0.101805
0.0988931
0.0959752
0.0930498
0.0901151
0.0871692
0.0842102
0.0812363
0.0782457
0.0752369
0.072208
0.0691577
0.0660844
0.0629867
0.0598634
0.0567132
0.053535
0.0503275
0.0470899
0.043821
0.0405201
0.0371861
0.0338183
0.0304157
0.0269777
0.0235033
0.0199926
0.0164429
0.0128577
0.00922772
0.00556896
0.00184742
-10.2232
-10.1484
-9.9707
-9.68191
-9.2751
-8.74879
-8.12118
-7.4259
-6.69914
-5.97257
-5.27126
-4.61283
-4.00777
-3.46083
-2.97261
-2.54091
-2.16189
-1.83094
-1.54316
-1.29374
-1.0781
-0.89208
-0.731899
-0.594209
-0.476051
-0.374833
-0.28829
-0.214447
-0.151584
-0.0982082
-0.0530203
-0.0148926
0.0171539
0.0439689
0.0662895
0.0847548
0.0999194
0.112262
0.122196
0.13008
0.136222
0.140888
0.144307
0.146675
0.148159
0.1489
0.149022
0.148628
0.147805
0.146628
0.145159
0.143449
0.141543
0.139476
0.137279
0.134975
0.132585
0.130125
0.127609
0.125047
0.122446
0.119814
0.117154
0.114472
0.111768
0.109046
0.106305
0.103547
0.100771
0.0979774
0.0951658
0.0923353
0.0894853
0.0866148
0.083723
0.0808087
0.077871
0.074909
0.0719216
0.0689078
0.0658668
0.0627976
0.0596994
0.0565712
0.0534122
0.0502217
0.0469989
0.043743
0.0404534
0.0371294
0.0337703
0.0303754
0.0269442
0.0234757
0.0199704
0.0164254
0.012845
0.00921815
0.00556575
0.00184262
-9.74336
-9.63719
-9.44132
-9.15167
-8.76526
-8.2825
-7.71737
-7.09486
-6.44285
-5.78688
-5.14811
-4.54229
-3.97962
-3.46557
-3.00195
-2.58796
-2.22111
-1.898
-1.61473
-1.36733
-1.1519
-0.964748
-0.80251
-0.662128
-0.540869
-0.436305
-0.346292
-0.268947
-0.202615
-0.145847
-0.0973771
-0.0560999
-0.0210498
0.00861505
0.0336283
0.0546283
0.0721707
0.0867384
0.0987505
0.108571
0.116515
0.122853
0.12782
0.131621
0.134427
0.13639
0.137638
0.13828
0.13841
0.138107
0.137439
0.136464
0.135229
0.133775
0.132137
0.130343
0.128418
0.12638
0.124247
0.122033
0.119747
0.1174
0.114998
0.112548
0.110054
0.107521
0.10495
0.102344
0.0997046
0.0970336
0.0943315
0.0915989
0.0888362
0.0860434
0.0832207
0.0803679
0.0774847
0.074571
0.0716263
0.0686503
0.0656426
0.0626027
0.0595302
0.0564247
0.0532857
0.0501126
0.0469051
0.0436626
0.0403847
0.0370709
0.0337208
0.0303338
0.0269096
0.0234473
0.0199476
0.0164074
0.0128319
0.00920843
0.00556227
0.00183829
-9.30234
-9.17282
-8.96545
-8.67891
-8.31255
-7.86773
-7.35538
-6.79445
-6.2065
-5.61212
-5.02904
-4.47109
-3.9479
-3.46521
-3.02564
-2.62945
-2.27523
-1.96059
-1.68256
-1.43788
-1.22328
-1.03557
-0.871759
-0.729096
-0.605072
-0.497436
-0.404174
-0.323499
-0.253831
-0.193772
-0.142096
-0.0977218
-0.0597032
-0.0272097
0.000485745
0.024019
0.0439457
0.0607508
0.0748565
0.0866311
0.0963948
0.104425
0.110964
0.11622
0.120374
0.123581
0.125976
0.127675
0.128777
0.129367
0.129518
0.129293
0.128745
0.12792
0.126855
0.125584
0.124135
0.122531
0.120791
0.118934
0.116972
0.114917
0.112781
0.11057
0.108291
0.105951
0.103555
0.101106
0.0986075
0.0960624
0.093473
0.0908411
0.0881682
0.0854554
0.0827039
0.0799143
0.0770872
0.0742231
0.0713224
0.0683852
0.0654118
0.0624021
0.0593562
0.056274
0.0531554
0.0500003
0.0468086
0.0435799
0.040314
0.0370108
0.03367
0.0302911
0.0268741
0.0234181
0.0199241
0.0163889
0.0128185
0.00919852
0.00555843
0.00183446
-8.8971
-8.75058
-8.53663
-8.25578
-7.90873
-7.4972
-7.02992
-6.52147
-5.98867
-5.44809
-4.91455
-4.40005
-3.91343
-3.46044
-3.04419
-2.66568
-2.32437
-2.01872
-1.74652
-1.50519
-1.29203
-1.1043
-0.939409
-0.79488
-0.668442
-0.558023
-0.461747
-0.377934
-0.305079
-0.241847
-0.187054
-0.13965
-0.0987104
-0.0634205
-0.0330623
-0.0070055
0.0153035
0.0343497
0.050558
0.0642999
0.0759
0.085641
0.0937696
0.1005
0.10602
0.110491
0.114052
0.116826
0.118918
0.120419
0.121407
0.121948
0.122102
0.121919
0.121441
0.120705
0.119743
0.118582
0.117246
0.115754
0.114124
0.11237
0.110504
0.108538
0.106481
0.10434
0.102123
0.0998348
0.0974807
0.095065
0.0925913
0.0900627
0.087482
0.0848514
0.0821729
0.0794483
0.0766788
0.0738658
0.0710103
0.068113
0.0651747
0.062196
0.0591774
0.0561192
0.0530216
0.049885
0.0467094
0.0434949
0.0402415
0.0369491
0.0336177
0.0302472
0.0268376
0.0233881
0.0199
0.0163699
0.0128046
0.00918847
0.00555437
0.00183092
-8.52475
-8.3662
-8.14931
-7.87579
-7.54706
-7.16495
-6.73649
-6.27308
-5.78796
-5.2945
-4.805
-4.32983
-3.87696
-3.45193
-3.0581
-2.69699
-2.36872
-2.07243
-1.80656
-1.56914
-1.35796
-1.17075
-1.00524
-0.859258
-0.730762
-0.617861
-0.518822
-0.432075
-0.356201
-0.289928
-0.232121
-0.181767
-0.137967
-0.0999238
-0.066933
-0.0383715
-0.0136902
0.00759464
0.0259082
0.0416243
0.0550707
0.0665345
0.0762673
0.0844891
0.0913917
0.0971425
0.101888
0.105754
0.108852
0.111279
0.113117
0.11444
0.115309
0.115781
0.115901
0.115711
0.115247
0.11454
0.113616
0.112498
0.111207
0.10976
0.108172
0.106457
0.104626
0.10269
0.100656
0.0985322
0.096326
0.0940427
0.0916875
0.0892648
0.0867786
0.0842322
0.0816287
0.0789706
0.0762602
0.0734995
0.0706902
0.0678338
0.0649317
0.0619848
0.0589941
0.0559605
0.0528845
0.0497668
0.0466078
0.0434078
0.0401671
0.0368858
0.0335643
0.0302023
0.0268002
0.0233574
0.0198754
0.0163505
0.0127904
0.00917825
0.00555003
0.00182769
-8.1826
-8.0159
-7.79873
-7.53351
-7.22202
-6.86603
-6.47128
-6.0468
-5.60308
-5.15095
-4.70063
-4.26099
-3.83915
-3.44031
-3.06789
-2.72374
-2.40849
-2.12179
-1.86266
-1.62962
-1.42094
-1.23472
-1.06905
-0.92202
-0.791823
-0.676748
-0.575207
-0.485744
-0.40703
-0.337863
-0.27716
-0.223948
-0.177359
-0.136618
-0.101035
-0.0699967
-0.0429615
-0.0194488
0.000965833
0.018657
0.0339547
0.0471494
0.0584966
0.0682208
0.0765188
0.0835633
0.0895057
0.0944784
0.0985973
0.101964
0.104666
0.106782
0.10838
0.109517
0.110247
0.110613
0.110657
0.110411
0.109907
0.109171
0.108226
0.107093
0.105789
0.10433
0.10273
0.101002
0.0991552
0.0972002
0.095145
0.0929972
0.0907631
0.0884488
0.0860592
0.0835989
0.081072
0.0784819
0.075832
0.0731248
0.0703629
0.0675483
0.0646831
0.0617687