/*--------------------------------*- C++ -*----------------------------------*\
  =========                 |
  \\      /  F ield         | OpenFOAM: The Open Source CFD Toolbox
   \\    /   O peration     | Website:  https://openfoam.org
    \\  /    A nd           | Version:  10
     \\/     M anipulation  |
\*---------------------------------------------------------------------------*/
FoamFile
{
    format      ascii;
    class       surfaceScalarField;
    location    "0.005";
    object      phi;
}
// * * * * * * * * * * * * * * * * * * * * * * * * * * * * * * * * * * * * * //

dimensions      [0 3 -1 0 0 0 0];

internalField   nonuniform List<scalar> 
13452
(
5.94738e-05
7.94637e-07
5.85485e-05
9.25297e-07
5.76353e-05
9.13241e-07
5.67787e-05
8.56622e-07
5.60515e-05
7.27163e-07
5.55101e-05
5.41388e-07
5.51797e-05
3.30431e-07
5.50377e-05
1.41996e-07
5.50202e-05
1.75128e-08
5.50804e-05
-6.01777e-08
5.52057e-05
-1.25346e-07
5.53972e-05
-1.91493e-07
5.56497e-05
-2.5247e-07
5.59473e-05
-2.97595e-07
5.62688e-05
-3.21511e-07
5.65967e-05
-3.27884e-07
5.69234e-05
-3.26794e-07
5.72524e-05
-3.28994e-07
5.75938e-05
-3.41356e-07
5.79597e-05
-3.65893e-07
5.83613e-05
-4.01593e-07
5.88081e-05
-4.4677e-07
5.93087e-05
-5.00663e-07
5.98727e-05
-5.64001e-07
6.05118e-05
-6.39059e-07
6.12413e-05
-7.29478e-07
6.20824e-05
-8.41131e-07
6.30642e-05
-9.81818e-07
6.42322e-05
-1.16802e-06
6.56554e-05
-1.42314e-06
6.74561e-05
-1.80074e-06
6.99806e-05
-2.52451e-06
-3.42818e-06
7.34088e-05
6.24824e-05
3.02617e-07
6.29458e-05
4.61892e-07
6.33653e-05
4.9371e-07
6.37138e-05
5.08134e-07
6.39582e-05
4.82729e-07
6.40704e-05
4.29207e-07
6.40347e-05
3.66151e-07
6.3871e-05
3.05639e-07
6.36473e-05
2.41281e-07
6.34348e-05
1.52306e-07
6.32809e-05
2.85348e-08
6.32119e-05
-1.22499e-07
6.32377e-05
-2.78296e-07
6.33506e-05
-4.10473e-07
6.35334e-05
-5.04267e-07
6.37681e-05
-5.62587e-07
6.40414e-05
-6.00153e-07
6.43463e-05
-6.33848e-07
6.46808e-05
-6.75881e-07
6.5047e-05
-7.32087e-07
6.54493e-05
-8.03916e-07
6.58939e-05
-8.91335e-07
6.63882e-05
-9.94962e-07
6.69413e-05
-1.11711e-06
6.75644e-05
-1.26212e-06
6.82717e-05
-1.4368e-06
6.90815e-05
-1.65097e-06
7.00199e-05
-1.92017e-06
7.11187e-05
-2.26683e-06
7.24333e-05
-2.7377e-06
7.40141e-05
-3.38159e-06
7.59136e-05
-4.42399e-06
-5.72281e-06
7.82082e-05
6.38409e-05
2.23146e-07
6.39337e-05
3.69115e-07
6.40289e-05
3.98473e-07
6.41326e-05
4.04424e-07
6.42377e-05
3.77585e-07
6.43366e-05
3.30335e-07
6.44208e-05
2.81956e-07
6.44886e-05
2.37838e-07
6.45483e-05
1.81546e-07
6.46164e-05
8.42737e-08
6.47108e-05
-6.59151e-08
6.48415e-05
-2.53166e-07
6.50075e-05
-4.44324e-07
6.52048e-05
-6.07751e-07
6.54299e-05
-7.29381e-07
6.56815e-05
-8.1414e-07
6.59596e-05
-8.78284e-07
6.62653e-05
-9.39576e-07
6.66004e-05
-1.01097e-06
6.69676e-05
-1.09931e-06
6.73711e-05
-1.20733e-06
6.78161e-05
-1.33638e-06
6.83097e-05
-1.48853e-06
6.88602e-05
-1.66764e-06
6.9478e-05
-1.87991e-06
7.01758e-05
-2.13464e-06
7.09696e-05
-2.44473e-06
7.18798e-05
-2.83043e-06
7.2931e-05
-3.31796e-06
7.41548e-05
-3.96157e-06
7.55763e-05
-4.80304e-06
7.71963e-05
-6.04401e-06
-7.55825e-06
7.90318e-05
6.56464e-05
1.59859e-07
6.57156e-05
2.99827e-07
6.578e-05
3.34163e-07
6.58463e-05
3.38127e-07
6.59125e-05
3.11298e-07
6.59782e-05
2.64698e-07
6.60465e-05
2.13637e-07
6.61261e-05
1.58187e-07
6.62266e-05
8.11374e-08
6.63519e-05
-4.10615e-08
6.65009e-05
-2.14939e-07
6.6671e-05
-4.2321e-07
6.686e-05
-6.33378e-07
6.70684e-05
-8.16149e-07
6.72981e-05
-9.59087e-07
6.75517e-05
-1.06769e-06
6.78313e-05
-1.15788e-06
6.81387e-05
-1.24704e-06
6.8476e-05
-1.34822e-06
6.88457e-05
-1.46903e-06
6.92517e-05
-1.61331e-06
6.9699e-05
-1.78365e-06
7.01938e-05
-1.98336e-06
7.07437e-05
-2.21759e-06
7.13578e-05
-2.49402e-06
7.20469e-05
-2.82365e-06
7.28236e-05
-3.22143e-06
7.37028e-05
-3.70973e-06
7.47013e-05
-4.31636e-06
7.58318e-05
-5.09216e-06
7.71062e-05
-6.07738e-06
7.84761e-05
-7.41397e-06
-9.02828e-06
7.99462e-05
6.74964e-05
1.20286e-07
6.75548e-05
2.41407e-07
6.76176e-05
2.71319e-07
6.76877e-05
2.68062e-07
6.77615e-05
2.37494e-07
6.7837e-05
1.89224e-07
6.79155e-05
1.35143e-07
6.80018e-05
7.18232e-08
6.81032e-05
-2.02834e-08
6.82263e-05
-1.64082e-07
6.83739e-05
-3.62573e-07
6.85458e-05
-5.95114e-07
6.87401e-05
-8.27696e-07
6.89557e-05
-1.03172e-06
6.91927e-05
-1.19609e-06
6.94524e-05
-1.32741e-06
6.97367e-05
-1.44216e-06
7.00475e-05
-1.55789e-06
7.03872e-05
-1.68792e-06
7.07586e-05
-1.84038e-06
7.11652e-05
-2.01992e-06
7.16116e-05
-2.2301e-06
7.21034e-05
-2.47518e-06
7.26472e-05
-2.7613e-06
7.32503e-05
-3.09712e-06
7.39212e-05
-3.49461e-06
7.46693e-05
-3.9695e-06
7.55037e-05
-4.54413e-06
7.64328e-05
-5.24543e-06
7.74576e-05
-6.11699e-06
7.85743e-05
-7.19407e-06
7.97318e-05
-8.57145e-06
-1.02119e-05
8.09154e-05
6.94174e-05
8.68983e-08
6.94729e-05
1.85928e-07
6.95332e-05
2.11033e-07
6.95985e-05
2.02717e-07
6.96664e-05
1.69662e-07
6.97352e-05
1.20404e-07
6.98074e-05
6.2876e-08
6.98899e-05
-1.06295e-08
6.99921e-05
-1.22483e-07
7.01206e-05
-2.92571e-07
7.02777e-05
-5.19664e-07
7.04614e-05
-7.78816e-07
7.0668e-05
-1.03428e-06
7.08944e-05
-1.25817e-06
7.11397e-05
-1.44133e-06
7.14046e-05
-1.59235e-06
7.16914e-05
-1.72895e-06
7.20027e-05
-1.86921e-06
7.23414e-05
-2.02663e-06
7.27106e-05
-2.20956e-06
7.31137e-05
-2.42304e-06
7.35548e-05
-2.67116e-06
7.40384e-05
-2.9588e-06
7.45698e-05
-3.29268e-06
7.51546e-05
-3.68193e-06
7.57987e-05
-4.13872e-06
7.65078e-05
-4.67857e-06
7.72859e-05
-5.32222e-06
7.81344e-05
-6.09398e-06
7.90462e-05
-7.02878e-06
8.00076e-05
-8.15547e-06
8.09701e-05
-9.53392e-06
-1.11438e-05
8.1902e-05
7.13905e-05
6.2747e-08
7.14367e-05
1.39705e-07
7.14913e-05
1.56451e-07
7.15539e-05
1.40115e-07
7.16223e-05
1.01231e-07
7.16946e-05
4.80911e-08
7.1772e-05
-1.45091e-08
7.18591e-05
-9.77313e-08
7.19639e-05
-2.27306e-07
7.20936e-05
-4.22185e-07
7.22518e-05
-6.77871e-07
7.24379e-05
-9.64918e-07
7.26483e-05
-1.24473e-06
7.28793e-05
-1.48918e-06
7.31288e-05
-1.69078e-06
7.33967e-05
-1.86031e-06
7.36849e-05
-2.01716e-06
7.3996e-05
-2.18024e-06
7.43327e-05
-2.36333e-06
7.4698e-05
-2.57487e-06
7.5095e-05
-2.82007e-06
7.55271e-05
-3.10327e-06
7.5998e-05
-3.42965e-06
7.65114e-05
-3.80611e-06
7.70712e-05
-4.24174e-06
7.76807e-05
-4.74824e-06
7.83422e-05
-5.34004e-06
7.90553e-05
-6.03535e-06
7.98161e-05
-6.85475e-06
8.06121e-05
-7.82476e-06
8.14236e-05
-8.96699e-06
8.22069e-05
-1.03173e-05
-1.18619e-05
8.29251e-05
7.34249e-05
4.31349e-08
7.34672e-05
9.73606e-08
7.35201e-05
1.03587e-07
7.3581e-05
7.91782e-08
7.36472e-05
3.50152e-08
7.37166e-05
-2.12602e-08
7.37906e-05
-8.85307e-08
7.38752e-05
-1.8227e-07
7.39788e-05
-3.3096e-07
7.41096e-05
-5.52957e-07
7.42713e-05
-8.39598e-07
7.44627e-05
-1.15629e-06
7.46791e-05
-1.4611e-06
7.49154e-05
-1.7255e-06
7.51685e-05
-1.94395e-06
7.54381e-05
-2.12982e-06
7.57255e-05
-2.30461e-06
7.60336e-05
-2.48828e-06
7.63651e-05
-2.69491e-06
7.67231e-05
-2.93284e-06
7.71102e-05
-3.20714e-06
7.7529e-05
-3.52209e-06
7.79822e-05
-3.88281e-06
7.84721e-05
-4.29602e-06
7.90007e-05
-4.77034e-06
7.95689e-05
-5.31647e-06
8.0176e-05
-5.94713e-06
8.08181e-05
-6.6775e-06
8.14874e-05
-7.52396e-06
8.21681e-05
-8.50549e-06
8.28378e-05
-9.63669e-06
8.34577e-05
-1.09372e-05
-1.23945e-05
8.39903e-05
7.55183e-05
2.73012e-08
7.55554e-05
6.02908e-08
7.56038e-05
5.51456e-08
7.56611e-05
2.1857e-08
7.57254e-05
-2.92949e-08
7.5795e-05
-9.07777e-08
7.58704e-05
-1.63991e-07
7.59568e-05
-2.6866e-07
7.60619e-05
-4.36062e-07
7.61935e-05
-6.8454e-07
7.63557e-05
-1.00184e-06
7.65478e-05
-1.34837e-06
7.67652e-05
-1.67845e-06
7.70024e-05
-1.96272e-06
7.72557e-05
-2.19729e-06
7.75241e-05
-2.39819e-06
7.78086e-05
-2.58917e-06
7.81118e-05
-2.79142e-06
7.84362e-05
-3.01929e-06
7.87843e-05
-3.28095e-06
7.91583e-05
-3.58116e-06
7.95601e-05
-3.92389e-06
7.99912e-05
-4.31393e-06
8.04527e-05
-4.7575e-06
8.09447e-05
-5.26239e-06
8.14662e-05
-5.83793e-06
8.20138e-05
-6.49478e-06
8.25812e-05
-7.24489e-06
8.31577e-05
-8.10043e-06
8.37262e-05
-9.074e-06
8.42635e-05
-1.0174e-05
8.47356e-05
-1.14093e-05
-1.27666e-05
8.51077e-05
7.76729e-05
1.39954e-08
7.77064e-05
2.67859e-08
7.77524e-05
9.16469e-09
7.78078e-05
-3.361e-08
7.78705e-05
-9.19731e-08
7.79384e-05
-1.58681e-07
7.80122e-05
-2.37731e-07
7.80966e-05
-3.53142e-07
7.82e-05
-5.39395e-07
7.83304e-05
-8.14964e-07
7.84924e-05
-1.16387e-06
7.86851e-05
-1.54104e-06
7.89033e-05
-1.89666e-06
7.91409e-05
-2.20028e-06
7.93933e-05
-2.44968e-06
7.96588e-05
-2.66375e-06
7.99384e-05
-2.86871e-06
8.0234e-05
-3.08709e-06
8.05483e-05
-3.33355e-06
8.08833e-05
-3.61595e-06
8.12407e-05
-3.93853e-06
8.16215e-05
-4.30473e-06
8.20263e-05
-4.71874e-06
8.24549e-05
-5.18604e-06
8.29058e-05
-5.71333e-06
8.33762e-05
-6.30836e-06
8.3861e-05
-6.97954e-06
8.43518e-05
-7.73571e-06
8.48365e-05
-8.58513e-06
8.52977e-05
-9.53517e-06
8.57128e-05
-1.05892e-05
8.60524e-05
-1.17489e-05
-1.3e-05
8.62858e-05
7.98897e-05
2.5664e-09
7.99199e-05
-3.37308e-09
7.99627e-05
-3.36388e-08
8.00153e-05
-8.61552e-08
8.00755e-05
-1.5227e-07
8.01419e-05
-2.25035e-07
8.02148e-05
-3.10675e-07
8.02988e-05
-4.37136e-07
8.04016e-05
-6.42124e-07
8.0531e-05
-9.44399e-07
8.06916e-05
-1.32449e-06
8.08825e-05
-1.73195e-06
8.10986e-05
-2.11269e-06
8.13332e-05
-2.43495e-06
8.15816e-05
-2.69805e-06
8.18416e-05
-2.92372e-06
8.21135e-05
-3.14067e-06
8.23993e-05
-3.37283e-06
8.27009e-05
-3.63513e-06
8.30199e-05
-3.93503e-06
8.33575e-05
-4.27613e-06
8.3714e-05
-4.66116e-06
8.40888e-05
-5.09357e-06
8.44806e-05
-5.57788e-06
8.48869e-05
-6.11956e-06
8.53032e-05
-6.72469e-06
8.57231e-05
-7.39945e-06
8.61372e-05
-8.14981e-06
8.65327e-05
-8.98061e-06
8.68926e-05
-9.8951e-06
8.71962e-05
-1.08927e-05
8.74179e-05
-1.19706e-05
-1.31141e-05
8.75319e-05
8.21705e-05
-7.47498e-09
8.21979e-05
-3.08024e-08
8.22381e-05
-7.38169e-08
8.22883e-05
-1.36374e-07
8.23466e-05
-2.10541e-07
8.24112e-05
-2.89602e-07
8.24823e-05
-3.81843e-07
8.25643e-05
-5.19079e-07
8.26646e-05
-7.4242e-07
8.27912e-05
-1.07108e-06
8.29489e-05
-1.48216e-06
8.31367e-05
-1.91971e-06
8.33491e-05
-2.32511e-06
8.35793e-05
-2.66515e-06
8.38219e-05
-2.94061e-06
8.40742e-05
-3.17606e-06
8.43363e-05
-3.40278e-06
8.46096e-05
-3.64611e-06
8.48957e-05
-3.92125e-06
8.51959e-05
-4.2352e-06
8.55105e-05
-4.59078e-06
8.58393e-05
-4.9899e-06
8.61808e-05
-5.43509e-06
8.65328e-05
-5.92985e-06
8.68915e-05
-6.47833e-06
8.72518e-05
-7.08495e-06
8.76061e-05
-7.75381e-06
8.79447e-05
-8.48837e-06
8.82547e-05
-9.29062e-06
8.85203e-05
-1.01607e-05
8.87227e-05
-1.10952e-05
8.88405e-05
-1.20883e-05
-1.31258e-05
8.88522e-05
8.45167e-05
-1.64285e-08
8.45418e-05
-5.58395e-08
8.45793e-05
-1.11349e-07
8.46269e-05
-1.83947e-07
8.46826e-05
-2.66288e-07
8.47449e-05
-3.51902e-07
8.4814e-05
-4.50954e-07
8.48939e-05
-5.9891e-07
8.49917e-05
-8.40228e-07
8.51152e-05
-1.19462e-06
8.52689e-05
-1.63587e-06
8.54518e-05
-2.10259e-06
8.56584e-05
-2.53167e-06
8.58815e-05
-2.88831e-06
8.61156e-05
-3.17467e-06
8.63576e-05
-3.4181e-06
8.66073e-05
-3.65241e-06
8.68655e-05
-3.90434e-06
8.71335e-05
-4.18929e-06
8.74121e-05
-4.51374e-06
8.7701e-05
-4.87969e-06
8.79992e-05
-5.28811e-06
8.83047e-05
-5.74058e-06
8.86143e-05
-6.23951e-06
8.89238e-05
-6.78776e-06
8.9227e-05
-7.38818e-06
8.95162e-05
-8.04303e-06
8.97815e-05
-8.75363e-06
9.00106e-05
-9.51974e-06
9.01891e-05
-1.03392e-05
9.03006e-05
-1.12067e-05
9.03272e-05
-1.21149e-05
-1.30501e-05
9.02515e-05
8.69302e-05
-2.45028e-08
8.69532e-05
-7.87813e-08
8.69882e-05
-1.46398e-07
8.70332e-05
-2.28961e-07
8.70865e-05
-3.19504e-07
8.71463e-05
-4.11742e-07
8.72129e-05
-5.17541e-07
8.72898e-05
-6.75855e-07
8.73841e-05
-9.34469e-07
8.75031e-05
-1.31368e-06
8.76513e-05
-1.78406e-06
8.78276e-05
-2.27887e-06
8.80264e-05
-2.73045e-06
8.82404e-05
-3.10236e-06
8.84638e-05
-3.39805e-06
8.86933e-05
-3.64757e-06
8.89281e-05
-3.8872e-06
8.91688e-05
-4.14504e-06
8.94162e-05
-4.43669e-06
8.96705e-05
-4.76806e-06
8.99311e-05
-5.14026e-06
9.01962e-05
-5.5533e-06
9.04635e-05
-6.00779e-06
9.0729e-05
-6.50506e-06
9.0988e-05
-7.04675e-06
9.12341e-05
-7.63429e-06
9.14595e-05
-8.26838e-06
9.16544e-05
-8.94862e-06
9.18078e-05
-9.67306e-06
9.19065e-05
-1.04379e-05
9.19368e-05
-1.1237e-05
9.18838e-05
-1.20619e-05
-1.29002e-05
9.17338e-05
8.94129e-05
-3.18351e-08
8.94339e-05
-9.98298e-08
8.94665e-05
-1.79014e-07
8.95089e-05
-2.71286e-07
8.95592e-05
-3.69893e-07
8.96162e-05
-4.68692e-07
8.96798e-05
-5.81111e-07
8.97533e-05
-7.49394e-07
8.98434e-05
-1.02454e-06
8.99571e-05
-1.42743e-06
9.00986e-05
-1.92553e-06
9.02666e-05
-2.44689e-06
9.04556e-05
-2.91939e-06
9.06582e-05
-3.30498e-06
9.08684e-05
-3.60828e-06
9.10828e-05
-3.86194e-06
9.13002e-05
-4.10465e-06
9.15209e-05
-4.36576e-06
9.17453e-05
-4.66104e-06
9.1973e-05
-4.99579e-06
9.2203e-05
-5.37023e-06
9.24331e-05
-5.78344e-06
9.26604e-05
-6.23503e-06
9.28806e-05
-6.72534e-06
9.30888e-05
-7.25491e-06
9.32785e-05
-7.82393e-06
9.34419e-05
-8.43184e-06
9.35702e-05
-9.0769e-06
9.36531e-05
-9.75597e-06
9.36794e-05
-1.04643e-05
9.36375e-05
-1.1195e-05
9.35153e-05
-1.19397e-05
-1.26873e-05
9.33024e-05
9.19665e-05
-3.85122e-08
9.19858e-05
-1.19127e-07
9.20161e-05
-2.09238e-07
9.20556e-05
-3.10849e-07
9.2103e-05
-4.17274e-07
9.21568e-05
-5.22452e-07
9.22169e-05
-6.41221e-07
9.22864e-05
-8.18912e-07
9.23714e-05
-1.10959e-06
9.24787e-05
-1.53471e-06
9.2612e-05
-2.0588e-06
9.277e-05
-2.60485e-06
9.2947e-05
-3.09647e-06
9.3136e-05
-3.49396e-06
9.33308e-05
-3.80307e-06
9.35278e-05
-4.05892e-06
9.37256e-05
-4.30244e-06
9.3924e-05
-4.56422e-06
9.41231e-05
-4.8601e-06
9.43221e-05
-5.1948e-06
9.45196e-05
-5.56768e-06
9.4713e-05
-5.97688e-06
9.48991e-05
-6.4211e-06
9.50735e-05
-6.89976e-06
9.5231e-05
-7.41245e-06
9.53655e-05
-7.95837e-06
9.54696e-05
-8.53591e-06
9.55351e-05
-9.14241e-06
9.5553e-05
-9.77391e-06
9.55138e-05
-1.04251e-05
9.54079e-05
-1.10891e-05
9.52259e-05
-1.17576e-05
-1.24211e-05
9.49597e-05
9.45932e-05
-4.4588e-08
9.46109e-05
-1.36759e-07
9.46387e-05
-2.37073e-07
9.46754e-05
-3.47526e-07
9.47195e-05
-4.61389e-07
9.47697e-05
-5.72634e-07
9.48258e-05
-6.97378e-07
9.48907e-05
-8.83804e-07
9.497e-05
-1.18886e-06
9.50698e-05
-1.63452e-06
9.51935e-05
-2.18251e-06
9.53397e-05
-2.75106e-06
9.55029e-05
-3.25967e-06
9.5676e-05
-3.66709e-06
9.58531e-05
-3.98012e-06
9.60303e-05
-4.23618e-06
9.62062e-05
-4.47833e-06
9.63803e-05
-4.73824e-06
9.6552e-05
-5.03184e-06
9.67205e-05
-5.36327e-06
9.68838e-05
-5.73103e-06
9.70393e-05
-6.1324e-06
9.71835e-05
-6.56527e-06
9.7312e-05
-7.02825e-06
9.74197e-05
-7.52014e-06
9.75006e-05
-8.03933e-06
9.75482e-05
-8.58347e-06
9.7555e-05
-9.14924e-06
9.75134e-05
-9.73226e-06
9.74153e-05
-1.0327e-05
9.72529e-05
-1.09267e-05
9.70191e-05
-1.15238e-05
-1.211e-05
9.6708e-05
9.7295e-05
-5.00925e-08
9.7311e-05
-1.52774e-07
9.73365e-05
-2.62492e-07
9.73701e-05
-3.81181e-07
9.74107e-05
-5.01991e-07
9.7457e-05
-6.18884e-07
9.75087e-05
-7.49112e-07
9.75684e-05
-9.43466e-07
9.7641e-05
-1.26153e-06
9.77323e-05
-1.72576e-06
9.7845e-05
-2.29525e-06
9.79777e-05
-2.88377e-06
9.8125e-05
-3.40698e-06
9.82802e-05
-3.82221e-06
9.84372e-05
-4.13721e-06
9.85926e-05
-4.39155e-06
9.87445e-05
-4.63021e-06
9.88921e-05
-4.88587e-06
9.90348e-05
-5.17448e-06
9.91711e-05
-5.49962e-06
9.92991e-05
-5.85901e-06
9.94159e-05
-6.24916e-06
9.95178e-05
-6.66724e-06
9.96007e-05
-7.11117e-06
9.96597e-05
-7.57912e-06
9.96893e-05
-8.06889e-06
9.96834e-05
-8.57759e-06
9.96357e-05
-9.10156e-06
9.95397e-05
-9.63618e-06
9.93887e-05
-1.0176e-05
9.91767e-05
-1.07148e-05
9.88983e-05
-1.12454e-05
-1.1761e-05
9.85492e-05
0.000100074
-5.50396e-08
0.000100088
-1.67184e-07
0.000100111
-2.85443e-07
0.000100142
-4.11659e-07
0.000100179
-5.38816e-07
0.000100221
-6.60826e-07
0.000100267
-7.9594e-07
0.000100321
-9.97284e-07
0.000100387
-1.32681e-06
0.000100468
-1.80738e-06
0.000100569
-2.39565e-06
0.000100686
-3.00129e-06
0.000100816
-3.53648e-06
0.000100951
-3.95725e-06
0.000101086
-4.27223e-06
0.000101217
-4.52295e-06
0.000101343
-4.75613e-06
0.000101462
-5.00531e-06
0.000101574
-5.28644e-06
0.000101677
-5.60257e-06
0.000101769
-5.95072e-06
0.000101847
-6.3267e-06
0.000101906
-6.72708e-06
0.000101944
-7.14925e-06
0.000101956
-7.59088e-06
0.000101937
-8.04936e-06
0.000101881
-8.5215e-06
0.000101783
-9.00344e-06
0.000101637
-9.49059e-06
0.000101439
-9.97776e-06
0.000101183
-1.04592e-05
0.000100866
-1.09285e-05
-1.138e-05
0.000100485
0.000102932
-5.94309e-08
0.000102945
-1.79977e-07
0.000102966
-3.05851e-07
0.000102993
-4.38792e-07
0.000103026
-5.71591e-07
0.000103063
-6.9809e-07
0.000103104
-8.37395e-07
0.000103152
-1.04467e-06
0.000103209
-1.38394e-06
0.00010328
-1.87836e-06
0.000103367
-2.48238e-06
0.000103467
-3.102e-06
0.000103577
-3.6463e-06
0.00010369
-4.07019e-06
0.000103801
-4.38315e-06
0.000103906
-4.62843e-06
0.000104005
-4.85429e-06
0.000104094
-5.09498e-06
0.000104174
-5.3664e-06
0.000104243
-5.67112e-06
0.000104298
-6.00553e-06
0.000104336
-6.36486e-06
0.000104354
-6.7452e-06
0.000104348
-7.14352e-06
0.000104314
-7.55715e-06
0.000104248
-7.98324e-06
0.000104145
-8.41843e-06
0.000104001
-8.85884e-06
0.00010381
-9.30007e-06
0.00010357
-9.73726e-06
0.000103276
-1.01652e-05
0.000102925
-1.05783e-05
-1.0972e-05
0.000102517
0.000105873
-6.32602e-08
0.000105884
-1.91123e-07
0.000105901
-3.23625e-07
0.000105925
-4.62399e-07
0.000105954
-6.00044e-07
0.000105986
-7.30314e-07
0.000106021
-8.73028e-07
0.000106062
-1.08507e-06
0.00010611
-1.43218e-06
0.000106169
-1.93772e-06
0.000106241
-2.55415e-06
0.000106323
-3.18432e-06
0.000106412
-3.73465e-06
0.000106501
-4.15916e-06
0.000106586
-4.46809e-06
0.000106664
-4.70622e-06
0.000106732
-4.92308e-06
0.000106791
-5.1535e-06
0.000106838
-5.41327e-06
0.000106871
-5.70452e-06
0.000106889
-6.02309e-06
0.000106888
-6.36377e-06
0.000106865
-6.72225e-06
0.000106816
-7.09523e-06
0.000106739
-7.47984e-06
0.000106629
-7.87307e-06
0.000106482
-8.27156e-06
0.000106295
-8.67153e-06
0.000106063
-9.06884e-06
0.000105785
-9.45905e-06
0.000105458
-9.83755e-06
0.000105079
-1.01995e-05
-1.05411e-05
0.000104648
0.000108897
-6.65156e-08
0.000108906
-2.00576e-07
0.000108921
-3.38664e-07
0.000108941
-4.82299e-07
0.000108965
-6.23903e-07
0.000108992
-7.57143e-07
0.000109021
-9.02402e-07
0.000109054
-1.11793e-06
0.000109093
-1.47082e-06
0.000109139
-1.98449e-06
0.000109195
-2.60973e-06
0.000109257
-3.24674e-06
0.000109323
-3.79985e-06
0.000109386
-4.2224e-06
0.000109443
-4.52535e-06
0.000109492
-4.75474e-06
0.00010953
-4.96113e-06
0.000109556
-5.17972e-06
0.000109569
-5.42621e-06
0.000109567
-5.70227e-06
0.000109547
-6.00334e-06
0.000109507
-6.32383e-06
0.000109444
-6.65916e-06
0.000109354
-7.00587e-06
0.000109236
-7.36096e-06
0.000109084
-7.72142e-06
0.000108896
-8.08396e-06
0.00010867
-8.44501e-06
0.000108402
-8.80071e-06
0.00010809
-9.14709e-06
0.000107732
-9.48013e-06
0.000107328
-9.79564e-06
-1.00907e-05
0.000106878
0.000112007
-6.91817e-08
0.000112015
-2.08286e-07
0.000112027
-3.50859e-07
0.000112043
-4.9831e-07
0.000112062
-6.42906e-07
0.000112083
-7.78243e-07
0.000112106
-9.25107e-07
0.000112131
-1.14274e-06
0.000112159
-1.49916e-06
0.000112192
-2.01776e-06
0.00011223
-2.64792e-06
0.000112272
-3.28785e-06
0.000112312
-3.84033e-06
0.000112348
-4.25832e-06
0.000112376
-4.5534e-06
0.000112394
-4.77262e-06
0.0001124
-4.96726e-06
0.000112393
-5.17276e-06
0.000112371
-5.40461e-06
0.000112333
-5.66415e-06
0.000112276
-5.94645e-06
0.000112198
-6.24564e-06
0.000112096
-6.557e-06
0.000111967
-6.87697e-06
0.000111809
-7.20254e-06
0.000111618
-7.53076e-06
0.000111393
-7.85851e-06
0.00011113
-8.18243e-06
0.000110828
-8.49906e-06
0.000110486
-8.80485e-06
0.000110102
-9.09634e-06
0.000109677
-9.36998e-06
-9.62345e-06
0.00010921
0.000115207
-7.12414e-08
0.000115212
-2.14197e-07
0.000115222
-3.60102e-07
0.000115234
-5.10255e-07
0.000115248
-6.56808e-07
0.000115263
-7.933e-07
0.000115278
-9.40765e-07
0.000115295
-1.15903e-06
0.000115312
-1.5166e-06
0.000115331
-2.03668e-06
0.000115351
-2.66763e-06
0.000115369
-3.30633e-06
0.000115383
-3.85465e-06
0.000115391
-4.26546e-06
0.000115388
-4.5509e-06
0.000115374
-4.7587e-06
0.000115347
-4.94057e-06
0.000115307
-5.13199e-06
0.00011525
-5.34819e-06
0.000115176
-5.59018e-06
0.000115083
-5.85279e-06
0.000114967
-6.12997e-06
0.000114827
-6.41693e-06
0.00011466
-6.71009e-06
0.000114464
-7.00653e-06
0.000114237
-7.30341e-06
0.000113976
-7.59781e-06
0.00011368
-7.88667e-06
0.000113348
-8.16687e-06
0.000112978
-8.43532e-06
0.000112571
-8.68907e-06
0.000112126
-8.92512e-06
-9.14172e-06
0.000111645
0.000118497
-7.26782e-08
0.000118501
-2.18256e-07
0.000118508
-3.66292e-07
0.000118515
-5.17974e-07
0.000118524
-6.65384e-07
0.000118533
-8.02035e-07
0.000118541
-9.49043e-07
0.000118548
-1.16639e-06
0.000118554
-1.52259e-06
0.000118558
-2.0405e-06
0.000118558
-2.66787e-06
0.000118553
-3.30099e-06
0.00011854
-3.84152e-06
0.000118517
-4.24256e-06
0.000118483
-4.51671e-06
0.000118436
-4.71206e-06
0.000118376
-4.88039e-06
0.000118301
-5.05699e-06
0.00011821
-5.25679e-06
0.0001181
-5.48054e-06
0.00011797
-5.72285e-06
0.000117818
-5.97764e-06
0.000117641
-6.24011e-06
0.000117437
-6.50678e-06
0.000117206
-6.7748e-06
0.000116944
-7.04155e-06
0.00011665
-7.3043e-06
0.000116324
-7.56031e-06
0.000115964
-7.80682e-06
0.00011557
-8.04114e-06
0.000115141
-8.26078e-06
0.00011468
-8.46323e-06
-8.64722e-06
0.000114185
0.000121882
-7.34763e-08
0.000121884
-2.20414e-07
0.000121887
-3.69337e-07
0.000121891
-5.21318e-07
0.000121894
-6.6843e-07
0.000121896
-8.04204e-07
0.000121896
-9.4967e-07
0.000121895
-1.16449e-06
0.000121889
-1.51668e-06
0.000121877
-2.02859e-06
0.000121857
-2.64779e-06
0.000121826
-3.27079e-06
0.000121785
-3.79981e-06
0.000121731
-4.18852e-06
0.000121664
-4.44987e-06
0.000121584
-4.63193e-06
0.00012149
-4.78619e-06
0.00012138
-4.94751e-06
0.000121254
-5.13044e-06
0.000121109
-5.33549e-06
0.000120943
-5.55723e-06
0.000120755
-5.78957e-06
0.000120543
-6.02782e-06
0.000120305
-6.26859e-06
0.000120039
-6.50922e-06
0.000119745
-6.74725e-06
0.000119421
-6.98023e-06
0.000119066
-7.2057e-06
0.00011868
-7.42123e-06
0.000118264
-7.62453e-06
0.000117816
-7.8135e-06
0.000117339
-7.98608e-06
-8.14135e-06
0.000116833
0.000125364
-7.36259e-08
0.000125364
-2.20638e-07
0.000125364
-3.69176e-07
0.000125363
-5.20191e-07
0.00012536
-6.65809e-07
0.000125355
-7.99627e-07
0.000125348
-9.42415e-07
0.000125337
-1.15304e-06
0.000125318
-1.49846e-06
0.00012529
-2.00039e-06
0.000125249
-2.60667e-06
0.000125193
-3.21489e-06
0.000125122
-3.72861e-06
0.000125036
-4.10247e-06
0.000124936
-4.34961e-06
0.000124821
-4.51773e-06
0.000124693
-4.65759e-06
0.000124549
-4.80338e-06
0.000124388
-4.96923e-06
0.000124208
-5.15546e-06
0.000124007
-5.35663e-06
0.000123784
-5.56678e-06
0.000123538
-5.78133e-06
0.000123266
-5.99708e-06
0.000122968
-6.21153e-06
0.000122644
-6.42245e-06
0.000122291
-6.62762e-06
0.00012191
-6.82487e-06
0.000121501
-7.01211e-06
0.000121064
-7.18737e-06
0.000120599
-7.34892e-06
0.000120108
-7.49505e-06
-7.62515e-06
0.000119592
0.000128945
-7.31147e-08
0.000128943
-2.18895e-07
0.000128939
-3.65737e-07
0.000128934
-5.14477e-07
0.000128925
-6.57367e-07
0.000128914
-7.88133e-07
0.000128898
-9.27109e-07
0.000128877
-1.13185e-06
0.000128847
-1.46771e-06
0.000128802
-1.95558e-06
0.000128739
-2.54402e-06
0.000128657
-3.13266e-06
0.000128555
-3.62723e-06
0.000128437
-3.9837e-06
0.000128302
-4.21534e-06
0.000128154
-4.36901e-06
0.00012799
-4.49436e-06
0.000127812
-4.62464e-06
0.000127616
-4.77346e-06
0.000127401
-4.94099e-06
0.000127167
-5.12187e-06
0.00012691
-5.31031e-06
0.000126631
-5.50193e-06
0.000126328
-5.69372e-06
0.000125999
-5.88337e-06
0.000125646
-6.06888e-06
0.000125266
-6.24826e-06
0.000124861
-6.41962e-06
0.00012443
-6.58116e-06
0.000123974
-6.73122e-06
0.000123494
-6.86837e-06
0.00012299
-6.99121e-06
-7.09936e-06
0.000122464
0.000132628
-7.19625e-08
0.000132624
-2.15227e-07
0.000132618
-3.59086e-07
0.000132607
-5.04243e-07
0.000132593
-6.43148e-07
0.000132575
-7.69717e-07
0.000132551
-9.0367e-07
0.00013252
-1.10076e-06
0.000132477
-1.42414e-06
0.000132415
-1.89373e-06
0.00013233
-2.45935e-06
0.000132221
-3.02354e-06
0.000132089
-3.49512e-06
0.000131937
-3.83177e-06
0.000131768
-4.04674e-06
0.000131585
-4.18563e-06
0.000131387
-4.29653e-06
0.000131174
-4.41151e-06
0.000130944
-4.54356e-06
0.000130696
-4.69273e-06
0.000130428
-4.85381e-06
0.000130139
-5.02124e-06
0.000129828
-5.19087e-06
0.000129494
-5.3599e-06
0.000129137
-5.52625e-06
0.000128756
-5.6881e-06
0.000128351
-5.84373e-06
0.000127923
-5.99148e-06
0.000127472
-6.12982e-06
0.000126998
-6.25735e-06
0.000126503
-6.37291e-06
0.000125987
-6.47533e-06
-6.56442e-06
0.000125452
0.000136416
-7.01359e-08
0.000136411
-2.09567e-07
0.000136401
-3.49091e-07
0.000136386
-4.893e-07
0.000136366
-6.22958e-07
0.00013634
-7.44262e-07
0.000136309
-8.72138e-07
0.000136268
-1.05996e-06
0.000136212
-1.36804e-06
0.000136133
-1.8151e-06
0.000136027
-2.35273e-06
0.00013589
-2.88744e-06
0.000135727
-3.33204e-06
0.000135542
-3.64639e-06
0.000135339
-3.84356e-06
0.000135121
-3.96746e-06
0.000134888
-4.06417e-06
0.000134641
-4.16426e-06
0.000134377
-4.28e-06
0.000134096
-4.41136e-06
0.000133796
-4.55332e-06
0.000133475
-4.7006e-06
0.000133133
-4.84933e-06
0.00013277
-4.99693e-06
0.000132386
-5.14153e-06
0.000131979
-5.28152e-06
0.000131551
-5.4154e-06
0.000131101
-5.54175e-06
0.000130631
-5.65926e-06
0.00013014
-5.76676e-06
0.00012963
-5.86329e-06
0.000129103
-5.94793e-06
-6.02057e-06
0.000128559
0.000140313
-6.77849e-08
0.000140306
-2.0225e-07
0.000140293
-3.36253e-07
0.000140274
-4.70223e-07
0.000140249
-5.97303e-07
0.000140216
-7.12045e-07
0.000140177
-8.32449e-07
0.000140126
-1.00906e-06
0.000140056
-1.29881e-06
0.00013996
-1.71907e-06
0.000139831
-2.22369e-06
0.000139668
-2.72408e-06
0.000139474
-3.13792e-06
0.000139255
-3.42765e-06
0.000139018
-3.60603e-06
0.000138765
-3.71487e-06
0.000138499
-3.79775e-06
0.000138218
-3.88347e-06
0.000137921
-3.98351e-06
0.000137608
-4.09772e-06
0.000137276
-4.22136e-06
0.000136925
-4.34947e-06
0.000136554
-4.47848e-06
0.000136163
-4.60603e-06
0.000135752
-4.73046e-06
0.000135321
-4.85037e-06
0.00013487
-4.96445e-06
0.000134399
-5.07148e-06
0.000133911
-5.17036e-06
0.000133404
-5.26012e-06
0.000132881
-5.33997e-06
0.000132342
-5.40917e-06
-5.46771e-06
0.000131789
0.000144321
-6.46597e-08
0.000144312
-1.92817e-07
0.000144296
-3.19888e-07
0.000144272
-4.46253e-07
0.00014424
-5.65615e-07
0.000144201
-6.73004e-07
0.000144154
-7.8527e-07
0.000144094
-9.4944e-07
0.000144014
-1.21822e-06
0.000143902
-1.60734e-06
0.000143752
-2.07348e-06
0.000143562
-2.53411e-06
0.000143337
-2.91291e-06
0.000143084
-3.1754e-06
0.000142812
-3.33394e-06
0.000142525
-3.42771e-06
0.000142225
-3.49731e-06
0.000141911
-3.56943e-06
0.000141582
-3.65458e-06
0.000141237
-3.75252e-06
0.000140874
-3.85881e-06
0.000140493
-3.96886e-06
0.000140094
-4.07941e-06
0.000139677
-4.18834e-06
0.00013924
-4.29419e-06
0.000138786
-4.39575e-06
0.000138313
-4.49189e-06
0.000137823
-4.58157e-06
0.000137317
-4.66387e-06
0.000136795
-4.73799e-06
0.000136258
-4.80331e-06
0.000135708
-4.85922e-06
-4.90579e-06
0.000135146
0.000148445
-6.15933e-08
0.000148435
-1.82874e-07
0.000148417
-3.02109e-07
0.00014839
-4.1952e-07
0.000148354
-5.29474e-07
0.000148309
-6.27641e-07
0.000148253
-7.2977e-07
0.000148183
-8.79135e-07
0.000148089
-1.12385e-06
0.000147959
-1.47784e-06
0.000147787
-1.90092e-06
0.00014757
-2.31739e-06
0.000147315
-2.65768e-06
0.00014703
-2.89079e-06
0.000146725
-3.02861e-06
0.000146404
-3.10732e-06
0.000146071
-3.16412e-06
0.000145725
-3.22331e-06
0.000145365
-3.29434e-06
0.000144989
-3.37687e-06
0.000144597
-3.46676e-06
0.000144188
-3.55985e-06
0.000143762
-3.65318e-06
0.000143318
-3.74488e-06
0.000142858
-3.83366e-06
0.000142381
-3.91849e-06
0.000141887
-3.9984e-06
0.000141378
-4.07253e-06
0.000140854
-4.14011e-06
0.000140317
-4.20048e-06
0.000139767
-4.25316e-06
0.000139205
-4.29766e-06
-4.33409e-06
0.000138633
0.000152685
-5.70042e-08
0.000152672
-1.69921e-07
0.000152649
-2.79904e-07
0.000152617
-3.87306e-07
0.000152575
-4.87352e-07
0.000152524
-5.76523e-07
0.000152463
-6.69163e-07
0.000152388
-8.03688e-07
0.000152286
-1.02224e-06
0.000152145
-1.33637e-06
0.000151954
-1.7098e-06
0.000151712
-2.07534e-06
0.000151426
-2.37175e-06
0.000151107
-2.57233e-06
0.000150767
-2.68835e-06
0.000150412
-2.75234e-06
0.000150045
-2.79741e-06
0.000149667
-2.84496e-06
0.000149276
-2.90313e-06
0.00014887
-2.97144e-06
0.00014845
-3.04614e-06
0.000148013
-3.12351e-06
0.000147561
-3.20093e-06
0.000147093
-3.27678e-06
0.000146609
-3.34997e-06
0.00014611
-3.4196e-06
0.000145597
-3.48489e-06
0.000145069
-3.54512e-06
0.000144529
-3.59967e-06
0.000143977
-3.64803e-06
0.000143413
-3.6898e-06
0.00014284
-3.72464e-06
-3.75266e-06
0.000142259
0.00015705
-5.51869e-08
0.00015704
-1.60378e-07
0.00015702
-2.60091e-07
0.000156988
-3.55248e-07
0.000156943
-4.4242e-07
0.000156886
-5.19118e-07
0.000156815
-5.9867e-07
0.000156727
-7.15023e-07
0.000156609
-9.04458e-07
0.000156448
-1.17589e-06
0.000156235
-1.49675e-06
0.000155968
-1.80838e-06
0.000155655
-2.05827e-06
0.000155307
-2.22439e-06
0.000154936
-2.31756e-06
0.00015455
-2.36656e-06
0.000154153
-2.40014e-06
0.000153745
-2.4366e-06
0.000153324
-2.48266e-06
0.000152891
-2.53763e-06
0.000152443
-2.5981e-06
0.00015198
-2.66078e-06
0.000151502
-2.72341e-06
0.00015101
-2.7846e-06
0.000150504
-2.84344e-06
0.000149983
-2.8992e-06
0.00014945
-2.95123e-06
0.000148903
-2.99899e-06
0.000148346
-3.04197e-06
0.000147777
-3.07976e-06
0.0001472
-3.11209e-06
0.000146614
-3.13866e-06
-3.15965e-06
0.000146021
0.000161531
-4.82109e-08
0.000161516
-1.45054e-07
0.00016149
-2.34135e-07
0.000161452
-3.17312e-07
0.000161403
-3.92735e-07
0.000161343
-4.6001e-07
0.000161276
-5.31207e-07
0.000161194
-6.32975e-07
0.000161081
-7.91986e-07
0.000160919
-1.01293e-06
0.000160691
-1.26894e-06
0.000160396
-1.51416e-06
0.000160047
-1.70859e-06
0.000159659
-1.83633e-06
0.000159248
-1.9069e-06
0.000158825
-1.94341e-06
0.000158393
-1.96856e-06
0.000157953
-1.99659e-06
0.000157503
-2.03257e-06
0.000157041
-2.07573e-06
0.000156566
-2.12323e-06
0.000156078
-2.17236e-06
0.000155576
-2.22132e-06
0.00015506
-2.26899e-06
0.000154532
-2.31464e-06
0.00015399
-2.35773e-06
0.000153437
-2.39776e-06
0.000152872
-2.4343e-06
0.000152297
-2.46699e-06
0.000151713
-2.49552e-06
0.00015112