/*--------------------------------*- C++ -*----------------------------------*\
  =========                 |
  \\      /  F ield         | OpenFOAM: The Open Source CFD Toolbox
   \\    /   O peration     | Website:  https://openfoam.org
    \\  /    A nd           | Version:  10
     \\/     M anipulation  |
\*---------------------------------------------------------------------------*/
FoamFile
{
    format      ascii;
    class       volVectorField;
    location    "0.005";
    object      U;
}
// * * * * * * * * * * * * * * * * * * * * * * * * * * * * * * * * * * * * * //

dimensions      [0 1 -1 0 0 0 0];

internalField   nonuniform List<vector> 
6820
(
(7.28234 0.0242458 0)
(7.18278 0.0382148 0)
(7.06931 0.0411358 0)
(6.95785 0.0402447 0)
(6.85956 0.035376 0)
(6.78104 0.0266079 0)
(6.72766 0.0150406 0)
(6.70038 0.00338838 0)
(6.69293 -0.00516792 0)
(6.69604 -0.00944506 0)
(6.70727 -0.0116194 0)
(6.72652 -0.0127754 0)
(6.75383 -0.0132629 0)
(6.7879 -0.0131188 0)
(6.82621 -0.01241 0)
(6.86612 -0.0113955 0)
(6.90599 -0.0104717 0)
(6.94565 -0.0100055 0)
(6.98606 -0.0101872 0)
(7.02871 -0.0110115 0)
(7.07508 -0.0123681 0)
(7.12641 -0.0141451 0)
(7.18377 -0.0162926 0)
(7.24821 -0.0188402 0)
(7.321 -0.0218945 0)
(7.40371 -0.0256232 0)
(7.49854 -0.0302999 0)
(7.60843 -0.0362848 0)
(7.73773 -0.0442736 0)
(7.89312 -0.0558221 0)
(8.0852 -0.0708725 0)
(8.33605 -0.113668 0)
(8.68916 -0.11666 0)
(7.3589 0.0251636 0)
(7.41964 0.0336283 0)
(7.47279 0.0333984 0)
(7.51848 0.032228 0)
(7.55462 0.0288168 0)
(7.57668 0.0235231 0)
(7.58144 0.0174734 0)
(7.56842 0.0120345 0)
(7.54286 0.0079044 0)
(7.51539 0.0044545 0)
(7.49265 -0.000158485 0)
(7.47884 -0.00613384 0)
(7.47624 -0.0125043 0)
(7.48483 -0.0181183 0)
(7.50285 -0.0222112 0)
(7.52799 -0.0247728 0)
(7.55832 -0.0264205 0)
(7.59263 -0.0279784 0)
(7.63042 -0.0300988 0)
(7.67175 -0.0331166 0)
(7.71703 -0.037121 0)
(7.76691 -0.0421101 0)
(7.82219 -0.0481217 0)
(7.88383 -0.0553036 0)
(7.95302 -0.0639438 0)
(8.03121 -0.0744896 0)
(8.1204 -0.0876263 0)
(8.22277 -0.104342 0)
(8.34271 -0.126454 0)
(8.48229 -0.156604 0)
(8.6557 -0.201181 0)
(8.84977 -0.273834 0)
(9.11927 -0.38857 0)
(7.33555 0.00640434 0)
(7.34696 0.0085063 0)
(7.35839 0.00975713 0)
(7.36951 0.0114955 0)
(7.38163 0.0123338 0)
(7.39373 0.0127397 0)
(7.40448 0.0133271 0)
(7.41314 0.0139087 0)
(7.42011 0.013165 0)
(7.42689 0.00947452 0)
(7.4357 0.00268254 0)
(7.44855 -0.00654458 0)
(7.46572 -0.0164822 0)
(7.48672 -0.0253941 0)
(7.51106 -0.0323256 0)
(7.53847 -0.0373586 0)
(7.56889 -0.0412864 0)
(7.60242 -0.045079 0)
(7.63919 -0.0494952 0)
(7.67947 -0.0549721 0)
(7.72364 -0.0617185 0)
(7.77224 -0.0698679 0)
(7.82598 -0.0796036 0)
(7.88573 -0.0912324 0)
(7.95258 -0.105226 0)
(8.02781 -0.122287 0)
(8.1131 -0.143398 0)
(8.21032 -0.170146 0)
(8.32263 -0.20459 0)
(8.45165 -0.251455 0)
(8.60511 -0.314171 0)
(8.77448 -0.413123 0)
(8.98562 -0.535145 0)
(7.33504 0.00841956 0)
(7.3437 0.0172735 0)
(7.35171 0.020404 0)
(7.35868 0.0211072 0)
(7.36604 0.0197128 0)
(7.37349 0.0168342 0)
(7.38083 0.0132662 0)
(7.38878 0.00948989 0)
(7.3986 0.00522518 0)
(7.41118 -0.000667919 0)
(7.42659 -0.00881645 0)
(7.4445 -0.0187778 0)
(7.46459 -0.029184 0)
(7.48677 -0.0385624 0)
(7.51118 -0.0461883 0)
(7.53811 -0.0522522 0)
(7.56785 -0.0575442 0)
(7.60061 -0.0629984 0)
(7.63658 -0.0693665 0)
(7.676 -0.0771222 0)
(7.71923 -0.0865392 0)
(7.76676 -0.0978314 0)
(7.81923 -0.111274 0)
(7.87739 -0.127288 0)
(7.94218 -0.14649 0)
(8.01468 -0.169771 0)
(8.09625 -0.198368 0)
(8.18827 -0.234143 0)
(8.29296 -0.279578 0)
(8.41102 -0.339176 0)
(8.54647 -0.417238 0)
(8.69266 -0.527672 0)
(8.85799 -0.665841 0)
(7.3341 0.00530116 0)
(7.33994 0.00934536 0)
(7.34698 0.00964362 0)
(7.35414 0.00928628 0)
(7.36196 0.00829289 0)
(7.37015 0.00692749 0)
(7.37844 0.00568146 0)
(7.38721 0.00429354 0)
(7.39721 0.00154131 0)
(7.40925 -0.00403762 0)
(7.42392 -0.0129847 0)
(7.44132 -0.0243619 0)
(7.46126 -0.0364645 0)
(7.48355 -0.0477042 0)
(7.50811 -0.0573035 0)
(7.53505 -0.0654203 0)
(7.56455 -0.0728274 0)
(7.59683 -0.0804628 0)
(7.63211 -0.0891145 0)
(7.67066 -0.0993273 0)
(7.71282 -0.111471 0)
(7.75904 -0.125869 0)
(7.80986 -0.142907 0)
(7.86593 -0.163121 0)
(7.92803 -0.187249 0)
(7.99701 -0.216322 0)
(8.07388 -0.251716 0)
(8.15955 -0.295438 0)
(8.25528 -0.350005 0)
(8.36112 -0.419652 0)
(8.4784 -0.508188 0)
(8.60184 -0.625801 0)
(8.73303 -0.770371 0)
(7.33385 0.00405067 0)
(7.33888 0.00908023 0)
(7.34547 0.0112744 0)
(7.35213 0.0119441 0)
(7.35915 0.0111229 0)
(7.36641 0.0091079 0)
(7.37376 0.00632444 0)
(7.38169 0.00256746 0)
(7.39118 -0.00306177 0)
(7.40323 -0.0113562 0)
(7.41832 -0.0224573 0)
(7.43641 -0.0354356 0)
(7.45712 -0.0487154 0)
(7.48006 -0.060907 0)
(7.50497 -0.0714393 0)
(7.53188 -0.0806357 0)
(7.56095 -0.0893663 0)
(7.59248 -0.0986103 0)
(7.62674 -0.109172 0)
(7.66405 -0.121614 0)
(7.70475 -0.136338 0)
(7.74923 -0.153713 0)
(7.79795 -0.174186 0)
(7.85142 -0.198361 0)
(7.91023 -0.227051 0)
(7.97498 -0.261356 0)
(8.04633 -0.302711 0)
(8.12476 -0.353086 0)
(8.21075 -0.414912 0)
(8.30379 -0.4918 0)
(8.40361 -0.587137 0)
(8.50576 -0.707823 0)
(8.60865 -0.853305 0)
(7.33355 0.00294011 0)
(7.33729 0.00639522 0)
(7.34281 0.00702531 0)
(7.34889 0.00619315 0)
(7.35561 0.00444015 0)
(7.36288 0.00218628 0)
(7.37051 -0.00032096 0)
(7.37878 -0.00358004 0)
(7.38841 -0.00881754 0)
(7.40029 -0.017308 0)
(7.41503 -0.029243 0)
(7.43277 -0.0434813 0)
(7.45324 -0.0581998 0)
(7.476 -0.0718771 0)
(7.5007 -0.0839262 0)
(7.52724 -0.0947137 0)
(7.55575 -0.105159 0)
(7.58645 -0.116277 0)
(7.61964 -0.128897 0)
(7.65562 -0.143614 0)
(7.69469 -0.160871 0)
(7.73718 -0.181092 0)
(7.78346 -0.204778 0)
(7.83391 -0.232584 0)
(7.88893 -0.265366 0)
(7.9489 -0.304239 0)
(8.01414 -0.350614 0)
(8.08474 -0.406333 0)
(8.16062 -0.473595 0)
(8.24083 -0.55536 0)
(8.32423 -0.654415 0)
(8.40688 -0.775338 0)
(8.48614 -0.918207 0)
(7.3334 0.00206581 0)
(7.3365 0.0047731 0)
(7.34155 0.0055301 0)
(7.34735 0.00506845 0)
(7.35372 0.00365465 0)
(7.36052 0.00149916 0)
(7.36761 -0.00136233 0)
(7.37533 -0.00567861 0)
(7.38448 -0.0126929 0)
(7.39601 -0.0233806 0)
(7.41057 -0.0375444 0)
(7.42829 -0.0537447 0)
(7.44878 -0.0700382 0)
(7.4715 -0.0849583 0)
(7.49598 -0.0980812 0)
(7.52206 -0.109958 0)
(7.54981 -0.121651 0)
(7.57948 -0.134255 0)
(7.61134 -0.148631 0)
(7.6457 -0.165382 0)
(7.68284 -0.184958 0)
(7.72301 -0.207794 0)
(7.76649 -0.234406 0)
(7.81352 -0.265462 0)
(7.86433 -0.301814 0)
(7.91908 -0.344538 0)
(7.97781 -0.394958 0)
(8.04029 -0.454717 0)
(8.10604 -0.525709 0)
(8.17382 -0.610268 0)
(8.24205 -0.710553 0)
(8.3072 -0.829527 0)
(8.36652 -0.967265 0)
(7.3333 0.00137921 0)
(7.33582 0.00314429 0)
(7.34019 0.0031834 0)
(7.34543 0.00190532 0)
(7.35135 -0.000300707 0)
(7.35788 -0.00307454 0)
(7.36486 -0.00636329 0)
(7.37255 -0.0110265 0)
(7.38162 -0.018577 0)
(7.39294 -0.030137 0)
(7.40715 -0.0455048 0)
(7.42443 -0.063087 0)
(7.44444 -0.0807613 0)
(7.46662 -0.0969727 0)
(7.4905 -0.111324 0)
(7.51582 -0.124459 0)
(7.54261 -0.137531 0)
(7.57108 -0.151693 0)
(7.60148 -0.167828 0)
(7.63407 -0.186544 0)
(7.66908 -0.208296 0)
(7.70669 -0.233523 0)
(7.74709 -0.262744 0)
(7.79041 -0.296619 0)
(7.8367 -0.335967 0)
(7.88594 -0.38179 0)
(7.93794 -0.43528 0)
(7.99225 -0.497847 0)
(8.0481 -0.571048 0)
(8.10411 -0.656655 0)
(8.15854 -0.756234 0)
(8.20823 -0.871618 0)
(8.2507 -1.00267 0)
(7.33323 0.000804249 0)
(7.33535 0.00172328 0)
(7.33927 0.00130391 0)
(7.34417 -0.000215705 0)
(7.34978 -0.00248799 0)
(7.35597 -0.00527135 0)
(7.36261 -0.00876502 0)
(7.36991 -0.0140493 0)
(7.37855 -0.0227867 0)
(7.3894 -0.0360577 0)
(7.40315 -0.05341 0)
(7.41997 -0.0729259 0)
(7.43951 -0.0922522 0)
(7.46116 -0.109781 0)
(7.48436 -0.125218 0)
(7.50881 -0.139374 0)
(7.5345 -0.153557 0)
(7.56159 -0.169011 0)
(7.59032 -0.186654 0)
(7.62092 -0.207092 0)
(7.65356 -0.23076 0)
(7.68838 -0.258077 0)
(7.72546 -0.28954 0)
(7.7648 -0.325769 0)
(7.80636 -0.367521 0)
(7.84993 -0.415695 0)
(7.89516 -0.471321 0)
(7.94142 -0.535562 0)
(7.98781 -0.609643 0)
(8.03288 -0.694848 0)
(8.07492 -0.792228 0)
(8.11113 -0.902821 0)
(8.13944 -1.02626 0)
(7.33319 0.000316966 0)
(7.33499 0.000439351 0)
(7.33847 -0.000553424 0)
(7.34295 -0.00260775 0)
(7.34816 -0.0054068 0)
(7.35399 -0.00866921 0)
(7.36034 -0.0126316 0)
(7.36739 -0.0185193 0)
(7.37575 -0.0281513 0)
(7.38623 -0.0426713 0)
(7.39948 -0.0615301 0)
(7.41569 -0.0826048 0)
(7.43451 -0.103351 0)
(7.45533 -0.122084 0)
(7.47758 -0.13856 0)
(7.50092 -0.153716 0)
(7.5253 -0.168979 0)
(7.55084 -0.185664 0)
(7.57775 -0.20471 0)
(7.6062 -0.22671 0)
(7.63632 -0.252074 0)
(7.66816 -0.28119 0)
(7.70174 -0.314517 0)
(7.73696 -0.352624 0)
(7.77365 -0.396186 0)
(7.81151 -0.445983 0)
(7.85006 -0.502873 0)
(7.88857 -0.567778 0)
(7.92607 -0.641612 0)
(7.96114 -0.725251 0)
(7.99219 -0.819322 0)
(8.01679 -0.924308 0)
(8.03325 -1.03964 0)
(7.33316 -0.000106844 0)
(7.33472 -0.000724863 0)
(7.33783 -0.00226721 0)
(7.34195 -0.00474964 0)
(7.34683 -0.0078721 0)
(7.35233 -0.0113733 0)
(7.35835 -0.0156146 0)
(7.36504 -0.0220373 0)
(7.37297 -0.0326496 0)
(7.38292 -0.0486318 0)
(7.39555 -0.0692647 0)
(7.41104 -0.0921352 0)
(7.42904 -0.114449 0)
(7.44894 -0.134424 0)
(7.47012 -0.151882 0)
(7.49223 -0.167907 0)
(7.51516 -0.184073 0)
(7.539 -0.201786 0)
(7.56393 -0.22201 0)
(7.59006 -0.245323 0)
(7.61749 -0.272098 0)
(7.64621 -0.302678 0)
(7.67615 -0.337469 0)
(7.70716 -0.376968 0)
(7.73896 -0.421761 0)
(7.77118 -0.472496 0)
(7.80325 -0.529861 0)
(7.83441 -0.594549 0)
(7.86368 -0.667204 0)
(7.88973 -0.748368 0)
(7.91113 -0.838333 0)
(7.92582 -0.9372 0)
(7.93248 -1.04427 0)
(7.33313 -0.000481608 0)
(7.3345 -0.00178473 0)
(7.33728 -0.0038767 0)
(7.34106 -0.00683235 0)
(7.34557 -0.0103815 0)
(7.35071 -0.0142685 0)
(7.35638 -0.0189263 0)
(7.36271 -0.0259518 0)
(7.37022 -0.0375108 0)
(7.37966 -0.0548285 0)
(7.39164 -0.0770561 0)
(7.40631 -0.101538 0)
(7.42335 -0.125259 0)
(7.44214 -0.14635 0)
(7.46207 -0.164684 0)
(7.48275 -0.18148 0)
(7.50407 -0.19844 0)
(7.52607 -0.217044 0)
(7.54887 -0.238277 0)
(7.57257 -0.262689 0)
(7.5972 -0.29061 0)
(7.6227 -0.322328 0)
(7.64894 -0.358188 0)
(7.6757 -0.398611 0)
(7.70266 -0.444085 0)
(7.72938 -0.495129 0)
(7.75528 -0.552269 0)
(7.77957 -0.615996 0)
(7.80132 -0.686721 0)
(7.81933 -0.764724 0)
(7.83236 -0.850047 0)
(7.83866 -0.942529 0)
(7.83726 -1.0414 0)
(7.33312 -0.000818854 0)
(7.33432 -0.00275608 0)
(7.33682 -0.00538039 0)
(7.34026 -0.00879146 0)
(7.34444 -0.012729 0)
(7.34923 -0.0169402 0)
(7.35453 -0.021939 0)
(7.36046 -0.0294974 0)
(7.3675 -0.0419611 0)
(7.37635 -0.060609 0)
(7.38757 -0.084454 0)
(7.40132 -0.110575 0)
(7.41729 -0.135715 0)
(7.43484 -0.157895 0)
(7.45339 -0.177038 0)
(7.47253 -0.194493 0)
(7.4921 -0.212096 0)
(7.51214 -0.23141 0)
(7.53271 -0.253436 0)
(7.55387 -0.278696 0)
(7.57561 -0.307471 0)
(7.59782 -0.339988 0)
(7.62034 -0.376524 0)
(7.6429 -0.417421 0)
(7.66514 -0.463065 0)
(7.68659 -0.513854 0)
(7.70666 -0.570165 0)
(7.72461 -0.632316 0)
(7.73958 -0.700526 0)
(7.7505 -0.774876 0)
(7.75631 -0.855227 0)
(7.75559 -0.941247 0)
(7.74764 -1.03216 0)
(7.3331 -0.00112397 0)
(7.33417 -0.00364644 0)
(7.33641 -0.00678194 0)
(7.33954 -0.010643 0)
(7.34337 -0.0149786 0)
(7.34779 -0.0195408 0)
(7.35271 -0.0249126 0)
(7.35822 -0.0330198 0)
(7.36476 -0.0463687 0)
(7.37298 -0.066285 0)
(7.3834 -0.0916505 0)
(7.39616 -0.119296 0)
(7.41094 -0.145734 0)
(7.42714 -0.168886 0)
(7.44417 -0.188718 0)
(7.46162 -0.206708 0)
(7.47933 -0.224814 0)
(7.49728 -0.244672 0)
(7.51553 -0.267291 0)
(7.53408 -0.293164 0)
(7.55288 -0.322514 0)
(7.5718 -0.355506 0)
(7.59062 -0.392347 0)
(7.60907 -0.433297 0)
(7.62675 -0.478649 0)
(7.64321 -0.528689 0)
(7.65787 -0.583662 0)
(7.67004 -0.643745 0)
(7.67894 -0.709002 0)
(7.68366 -0.779369 0)
(7.68333 -0.854583 0)
(7.67678 -0.93421 0)
(7.66353 -1.0175 0)
(7.33309 -0.0014017 0)
(7.33403 -0.00446381 0)
(7.33604 -0.00808425 0)
(7.33887 -0.0123786 0)
(7.34237 -0.0170962 0)
(7.34642 -0.0219892 0)
(7.35093 -0.0277038 0)
(7.356 -0.0363149 0)
(7.36201 -0.0504904 0)
(7.36955 -0.0716067 0)
(7.3791 -0.0984202 0)
(7.39078 -0.127516 0)
(7.40427 -0.155176 0)
(7.41901 -0.179216 0)
(7.43441 -0.199641 0)
(7.45007 -0.218045 0)
(7.46582 -0.236508 0)
(7.48161 -0.256732 0)
(7.49747 -0.279735 0)
(7.51336 -0.305976 0)
(7.5292 -0.335622 0)
(7.54484 -0.368774 0)
(7.56005 -0.405567 0)
(7.57452 -0.446187 0)
(7.58787 -0.490837 0)
(7.59965 -0.539704 0)
(7.60932 -0.592924 0)
(7.61626 -0.650555 0)
(7.6198 -0.71255 0)
(7.61915 -0.778735 0)
(7.61362 -0.848775 0)
(7.60227 -0.922183 0)
(7.5848 -0.998259 0)
(7.33308 -0.00165465 0)
(7.33392 -0.00521225 0)
(7.3357 -0.00928766 0)
(7.33824 -0.0139948 0)
(7.3414 -0.0190797 0)
(7.34508 -0.0242941 0)
(7.34918 -0.0303413 0)
(7.35378 -0.0394338 0)
(7.35923 -0.0543885 0)
(7.36606 -0.0766267 0)
(7.37469 -0.104783 0)
(7.38522 -0.135209 0)
(7.39734 -0.163966 0)
(7.41051 -0.188772 0)
(7.42418 -0.209665 0)
(7.43796 -0.228353 0)
(7.45166 -0.247024 0)
(7.46523 -0.267441 0)
(7.47864 -0.290627 0)
(7.49186 -0.317003 0)
(7.50476 -0.346681 0)
(7.51718 -0.379697 0)
(7.52888 -0.416121 0)
(7.53954 -0.456067 0)
(7.54881 -0.49966 0)
(7.55625 -0.547002 0)
(7.56138 -0.598137 0)
(7.56365 -0.653035 0)
(7.56247 -0.711563 0)
(7.55722 -0.77348 0)
(7.54733 -0.838408 0)
(7.53207 -0.905842 0)
(7.51127 -0.975149 0)
(7.33307 -0.00188443 0)
(7.33381 -0.00589447 0)
(7.33539 -0.0103918 0)
(7.33765 -0.0154859 0)
(7.34047 -0.020916 0)
(7.34376 -0.0264306 0)
(7.34744 -0.0327839 0)
(7.35156 -0.042315 0)
(7.35643 -0.05798 0)
(7.3625 -0.0812427 0)
(7.37016 -0.110623 0)
(7.37948 -0.142251 0)
(7.39015 -0.171981 0)
(7.40167 -0.197432 0)
(7.41353 -0.218674 0)
(7.42535 -0.237517 0)
(7.43695 -0.256251 0)
(7.44825 -0.276692 0)
(7.45921 -0.299863 0)
(7.46975 -0.32615 0)
(7.47976 -0.355608 0)
(7.48905 -0.388215 0)
(7.49737 -0.423979 0)
(7.50443 -0.46295 0)
(7.50988 -0.505186 0)
(7.51333 -0.550715 0)
(7.51436 -0.599514 0)
(7.51247 -0.651481 0)
(7.5072 -0.706429 0)
(7.49803 -0.764074 0)
(7.48451 -0.824023 0)
(7.46609 -0.885776 0)
(7.4427 -0.948774 0)
(7.33306 -0.00209188 0)
(7.33371 -0.00651156 0)
(7.33509 -0.0113948 0)
(7.33708 -0.0168458 0)
(7.33956 -0.0225946 0)
(7.34247 -0.0283853 0)
(7.34571 -0.0350173 0)
(7.34933 -0.0449439 0)
(7.35359 -0.061247 0)
(7.35889 -0.0854266 0)
(7.36554 -0.115895 0)
(7.37358 -0.148576 0)
(7.38275 -0.17913 0)
(7.39255 -0.205089 0)
(7.40253 -0.226551 0)
(7.41234 -0.245418 0)
(7.42179 -0.26407 0)
(7.4308 -0.28437 0)
(7.4393 -0.30734 0)
(7.44721 -0.333326 0)
(7.45439 -0.362334 0)
(7.46066 -0.394286 0)
(7.46577 -0.429134 0)
(7.46944 -0.466873 0)
(7.47136 -0.507502 0)
(7.47118 -0.550996 0)
(7.46852 -0.597274 0)
(7.46299 -0.646189 0)
(7.45418 -0.697517 0)
(7.44168 -0.750952 0)
(7.42518 -0.806105 0)
(7.40424 -0.862499 0)
(7.37887 -0.919646 0)
(7.33305 -0.00227728 0)
(7.33361 -0.00706346 0)
(7.3348 -0.0122942 0)
(7.33652 -0.0180675 0)
(7.33868 -0.0241036 0)
(7.34119 -0.0301407 0)
(7.34398 -0.0370172 0)
(7.34709 -0.0472869 0)
(7.35073 -0.0641434 0)
(7.35522 -0.0891172 0)
(7.36083 -0.120521 0)
(7.36757 -0.154089 0)
(7.37517 -0.18531 0)
(7.38321 -0.211634 0)
(7.39126 -0.233184 0)
(7.39902 -0.251945 0)
(7.4063 -0.270377 0)
(7.41301 -0.290383 0)
(7.41908 -0.312975 0)
(7.42441 -0.338467 0)
(7.42885 -0.366815 0)
(7.43222 -0.397892 0)
(7.4343 -0.431603 0)
(7.43482 -0.467893 0)
(7.4335 -0.506719 0)
(7.43003 -0.548009 0)
(7.4241 -0.591645 0)
(7.41537 -0.637447 0)
(7.40353 -0.685172 0)
(7.38826 -0.734509 0)
(7.36932 -0.785085 0)
(7.3464 -0.836454 0)
(7.31955 -0.888197 0)
(7.33305 -0.00244052 0)
(7.33352 -0.00754923 0)
(7.33453 -0.0130863 0)
(7.33598 -0.0191437 0)
(7.3378 -0.0254313 0)
(7.33992 -0.031681 0)
(7.34226 -0.0387638 0)
(7.34485 -0.04932 0)
(7.34786 -0.0666379 0)
(7.35153 -0.0922713 0)
(7.35607 -0.124441 0)
(7.36146 -0.158716 0)
(7.36747 -0.19043 0)
(7.3737 -0.216964 0)
(7.37979 -0.238467 0)
(7.38547 -0.256996 0)
(7.39057 -0.275077 0)
(7.395 -0.294642 0)
(7.39868 -0.316697 0)
(7.4015 -0.341518 0)
(7.40332 -0.36902 0)
(7.40395 -0.399033 0)
(7.40318 -0.431419 0)
(7.40078 -0.466088 0)
(7.39651 -0.502958 0)
(7.39009 -0.541928 0)
(7.38127 -0.582852 0)
(7.36978 -0.625531 0)
(7.35536 -0.669716 0)
(7.33778 -0.715102 0)
(7.31686 -0.76134 0)
(7.29241 -0.80802 0)
(7.26448 -0.854784 0)
(7.33304 -0.00258122 0)
(7.33343 -0.00796731 0)
(7.33426 -0.0137671 0)
(7.33546 -0.0200666 0)
(7.33694 -0.0265656 0)
(7.33866 -0.03299 0)
(7.34056 -0.0402368 0)
(7.34262 -0.0510168 0)
(7.34498 -0.0686948 0)
(7.34782 -0.0948397 0)
(7.35127 -0.127592 0)
(7.3553 -0.162376 0)
(7.35967 -0.194397 0)
(7.36407 -0.220982 0)
(7.36819 -0.242303 0)
(7.37179 -0.260477 0)
(7.37473 -0.278084 0)
(7.37692 -0.297077 0)
(7.37827 -0.318448 0)
(7.37867 -0.342443 0)
(7.37798 -0.368938 0)
(7.37602 -0.397725 0)
(7.37261 -0.428634 0)
(7.36754 -0.461546 0)
(7.36059 -0.496352 0)
(7.35155 -0.53293 0)
(7.34019 -0.571114 0)
(7.32631 -0.610701 0)
(7.30972 -0.651442 0)
(7.29023 -0.693047 0)
(7.26774 -0.735193 0)
(7.24211 -0.777513 0)
(7.21344 -0.8197 0)
(7.33303 -0.00269882 0)
(7.33334 -0.0083157 0)
(7.334 -0.0143321 0)
(7.33494 -0.0208284 0)
(7.3361 -0.0274952 0)
(7.33742 -0.0340526 0)
(7.33886 -0.0414171 0)
(7.3404 -0.0523529 0)
(7.34211 -0.0702815 0)
(7.34411 -0.0967781 0)
(7.34646 -0.129913 0)
(7.3491 -0.164996 0)
(7.35184 -0.19713 0)
(7.3544 -0.223603 0)
(7.35654 -0.244607 0)
(7.35808 -0.262308 0)
(7.35889 -0.279327 0)
(7.35889 -0.297629 0)
(7.35799 -0.318188 0)
(7.35607 -0.341221 0)
(7.35301 -0.366571 0)
(7.34863 -0.394 0)
(7.34278 -0.423314 0)
(7.33527 -0.454369 0)
(7.32592 -0.48704 0)
(7.31455 -0.521187 0)
(7.30098 -0.556641 0)
(7.28506 -0.593196 0)
(7.26663 -0.630612 0)
(7.24559 -0.668618 0)
(7.22186 -0.706924 0)
(7.19535 -0.745199 0)
(7.16619 -0.783187 0)
(7.33302 -0.00279268 0)
(7.33325 -0.00859218 0)
(7.33374 -0.0147769 0)
(7.33443 -0.0214213 0)
(7.33527 -0.0282086 0)
(7.3362 -0.0348539 0)
(7.33718 -0.0422859 0)
(7.33819 -0.0533043 0)
(7.33926 -0.0713651 0)
(7.34041 -0.0980408 0)
(7.34166 -0.131346 0)
(7.34292 -0.166504 0)
(7.34402 -0.198548 0)
(7.34475 -0.224743 0)
(7.34493 -0.245298 0)
(7.34443 -0.262419 0)
(7.34317 -0.278748 0)
(7.34104 -0.296252 0)
(7.33798 -0.315888 0)
(7.33387 -0.337845 0)
(7.32858 -0.361937 0)
(7.32196 -0.387904 0)
(7.31387 -0.415531 0)
(7.30415 -0.444659 0)
(7.29264 -0.475152 0)
(7.27921 -0.506863 0)
(7.26372 -0.539622 0)
(7.24605 -0.573228 0)
(7.2261 -0.607456 0)
(7.20379 -0.642056 0)
(7.17909 -0.676767 0)
(7.15196 -0.711301 0)
(7.12252 -0.745442 0)
(7.33302 -0.00286212 0)
(7.33317 -0.00879454 0)
(7.3335 -0.0150972 0)
(7.33394 -0.0218387 0)
(7.33445 -0.0286966 0)
(7.335 -0.0353823 0)
(7.33553 -0.0428301 0)
(7.33602 -0.0538547 0)
(7.33645 -0.0719236 0)
(7.33677 -0.0985966 0)
(7.33692 -0.131847 0)
(7.3368 -0.166844 0)
(7.33626 -0.198588 0)
(7.33518 -0.224335 0)
(7.33343 -0.244316 0)
(7.33095 -0.260755 0)
(7.32767 -0.276305 0)
(7.32351 -0.292921 0)
(7.3184 -0.311541 0)
(7.31221 -0.332325 0)
(7.30484 -0.355067 0)
(7.29614 -0.379488 0)
(7.286 -0.405361 0)
(7.27428 -0.432518 0)
(7.26085 -0.460818 0)
(7.24562 -0.490112 0)
(7.22847 -0.520234 0)
(7.20931 -0.550994 0)
(7.1881 -0.58218 0)
(7.16477 -0.613569 0)
(7.13934 -0.644929 0)
(7.11178 -0.676005 0)
(7.08222 -0.706623 0)
(7.33301 -0.00290648 0)
(7.33309 -0.00892057 0)
(7.33326 -0.0152885 0)
(7.33346 -0.0220725 0)
(7.33366 -0.0289471 0)
(7.33383 -0.0356212 0)
(7.33392 -0.0430273 0)
(7.3339 -0.0539752 0)
(7.3337 -0.0719188 0)
(7.33319 -0.0983952 0)
(7.33227 -0.131352 0)
(7.33078 -0.165945 0)
(7.32864 -0.197172 0)
(7.32577 -0.222307 0)
(7.32214 -0.241594 0)
(7.31773 -0.257264 0)
(7.31251 -0.271959 0)
(7.30641 -0.287614 0)
(7.29934 -0.305137 0)
(7.29121 -0.324669 0)
(7.2819 -0.345986 0)
(7.2713 -0.3688 0)
(7.25929 -0.392877 0)
(7.24577 -0.418044 0)
(7.23064 -0.444158 0)
(7.21383 -0.471077 0)
(7.19525 -0.498638 0)
(7.17485 -0.526665 0)
(7.1526 -0.554964 0)
(7.12848 -0.583335 0)
(7.1025 -0.611574 0)
(7.07467 -0.63946 0)
(7.04512 -0.66685 0)
(7.333 -0.00292527 0)
(7.33302 -0.00896888 0)
(7.33302 -0.0153486 0)
(7.333 -0.0221209 0)
(7.33289 -0.0289598 0)
(7.33269 -0.0355746 0)
(7.33236 -0.042888 0)
(7.33184 -0.0536809 0)
(7.33102 -0.0713657 0)
(7.32972 -0.0974449 0)
(7.32773 -0.12986 0)
(7.32491 -0.16379 0)
(7.3212 -0.194277 0)
(7.31659 -0.218629 0)
(7.31114 -0.237105 0)
(7.30487 -0.251924 0)
(7.29779 -0.265699 0)
(7.28984 -0.280328 0)
(7.28094 -0.296691 0)
(7.27099 -0.314909 0)
(7.25989 -0.334748 0)
(7.24754 -0.355914 0)
(7.23384 -0.378171 0)
(7.21872 -0.401348 0)
(7.20209 -0.425305 0)
(7.18391 -0.449903 0)
(7.16411 -0.474991 0)
(7.14267 -0.500406 0)
(7.11958 -0.525974 0)
(7.09483 -0.551515 0)
(7.06846 -0.576852 0)
(7.0405 -0.601795 0)
(7.01105 -0.626228 0)
(7.333 -0.00291797 0)
(7.33294 -0.00893721 0)
(7.3328 -0.0152716 0)
(7.33255 -0.0219707 0)
(7.33215 -0.0287101 0)
(7.33159 -0.0352018 0)
(7.33085 -0.0423523 0)
(7.32985 -0.0528935 0)
(7.32844 -0.0701711 0)
(7.32636 -0.0956435 0)
(7.32336 -0.127263 0)
(7.31925 -0.160275 0)
(7.31401 -0.189802 0)
(7.30773 -0.213211 0)
(7.30051 -0.230772 0)
(7.29247 -0.244672 0)
(7.28361 -0.257476 0)
(7.27391 -0.271032 0)
(7.26329 -0.286189 0)
(7.25165 -0.303049 0)
(7.23891 -0.321374 0)
(7.22496 -0.34087 0)
(7.20975 -0.361304 0)
(7.1932 -0.382508 0)
(7.17526 -0.404348 0)
(7.15589 -0.426694 0)
(7.13507 -0.449405 0)
(7.11276 -0.472333 0)
(7.08899 -0.495322 0)
(7.06377 -0.518215 0)
(7.03713 -0.540858 0)
(7.00912 -0.563086 0)
(6.97985 -0.584808 0)
(7.33299 -0.00288485 0)
(7.33287 -0.0088279 0)
(7.3326 -0.0150656 0)
(7.33214 -0.0216422 0)
(7.33147 -0.0282394 0)
(7.33057 -0.0345743 0)
(7.32943 -0.0415265 0)
(7.32798 -0.0517497 0)
(7.326 -0.0684884 0)
(7.32317 -0.0931426 0)
(7.31917 -0.123698 0)
(7.31382 -0.15551 0)
(7.30712 -0.183836 0)
(7.29922 -0.206123 0)
(7.29033 -0.222654 0)
(7.28059 -0.235565 0)
(7.27006 -0.247349 0)
(7.25872 -0.259794 0)
(7.2465 -0.273708 0)
(7.23331 -0.28918 0)
(7.21906 -0.30597 0)
(7.20368 -0.323788 0)
(7.18711 -0.342408 0)
(7.1693 -0.36167 0)
(7.15021 -0.381445 0)
(7.12982 -0.401614 0)
(7.10812 -0.422048 0)
(7.0851 -0.442613 0)
(7.06079 -0.463173 0)
(7.03521 -0.483588 0)
(7.00841 -0.503728 0)
(6.98043 -0.52345 0)
(6.95138 -0.542681 0)
(7.33298 -0.00282533 0)
(7.33281 -0.00863469 0)
(7.3324 -0.0147083 0)
(7.33173 -0.0210812 0)
(7.33079 -0.0274433 0)
(7.32956 -0.0335223 0)
(7.32805 -0.0401701 0)
(7.32618 -0.0499481 0)
(7.32368 -0.0659789 0)
(7.32016 -0.0895954 0)
(7.31524 -0.118833 0)
(7.30871 -0.149201 0)
(7.30062 -0.176122 0)
(7.29119 -0.197151 0)
(7.2807 -0.212571 0)
(7.26936 -0.224452 0)
(7.25725 -0.235193 0)
(7.24438 -0.246507 0)
(7.23068 -0.25916 0)
(7.21606 -0.273228 0)
(7.20044 -0.288475 0)
(7.18377 -0.304621 0)
(7.16598 -0.321448 0)
(7.14706 -0.338806 0)
(7.12698 -0.356577 0)
(7.10572 -0.374649 0)
(7.08328 -0.392908 0)
(7.05968 -0.411235 0)
(7.03494 -0.429509 0)
(7.00911 -0.44761 0)
(6.98221 -0.465424 0)
(6.95433 -0.482832 0)
(6.92553 -0.499773 0)
(7.33298 -0.00274242 0)
(7.33276 -0.00837721 0)
(7.33224 -0.0142575 0)
(7.33141 -0.020415 0)
(7.33025 -0.0265522 0)
(7.32874 -0.032405 0)
(7.32688 -0.0387761 0)
(7.32459 -0.0480905 0)
(7.32157 -0.0633013 0)
(7.31737 -0.0856561 0)
(7.31155 -0.113269 0)
(7.3039 -0.141863 0)
(7.2945 -0.167093 0)
(7.28363 -0.186652 0)
(7.27164 -0.20083 0)
(7.25881 -0.21161 0)
(7.24525 -0.22127 0)
(7.23097 -0.231431 0)
(7.21591 -0.24281 0)
(7.19999 -0.255469 0)
(7.18314 -0.269178 0)
(7.1653 -0.283668 0)
(7.14645 -0.298736 0)
(7.12655 -0.31424 0)
(7.1056 -0.330071 0)
(7.0836 -0.34613 0)
(7.06055 -0.362315 0)
(7.03648 -0.378521 0)
(7.01141 -0.394642 0)
(6.98539 -0.410574 0)
(6.95847 -0.42622 0)
(6.9307 -0.441477 0)
(6.90216 -0.4563 0)
(7.33297 -0.00263215 0)
(7.33269 -0.00801724 0)
(7.33205 -0.0135905 0)
(7.33102 -0.0193727 0)
(7.32961 -0.0250875 0)
(7.32781 -0.0304986 0)
(7.32565 -0.0363793 0)
(7.32302 -0.0450271 0)
(7.3196 -0.0592215 0)
(7.31484 -0.0801171 0)
(7.30826 -0.105911 0)
(7.2996 -0.132558 0)
(7.28898 -0.155967 0)
(7.27675 -0.173979 0)
(7.26336 -0.186884 0)
(7.24911 -0.196556 0)
(7.23418 -0.205139 0)
(7.21859 -0.214149 0)
(7.20228 -0.224254 0)
(7.18518 -0.235504 0)
(7.16721 -0.247681 0)
(7.14834 -0.260535 0)
(7.12855 -0.273874 0)
(7.1078 -0.287571 0)
(7.08611 -0.301528 0)
(7.06348 -0.315655 0)
(7.03993 -0.329864 0)
(7.01547 -0.344061 0)
(6.99015 -0.358156 0)
(6.96401 -0.372059 0)
(6.9371 -0.385688 0)
(6.90949 -0.398957 0)
(6.88122 -0.411829 0)
(7.33298 -0.00251132 0)
(7.3327 -0.00766451 0)
(7.33203 -0.0130093 0)
(7.33094 -0.0185594 0)
(7.32939 -0.0240495 0)
(7.32737 -0.029246 0)
(7.32491 -0.0348408 0)
(7.3219 -0.0429228 0)
(7.31798 -0.0560203 0)
(7.31259 -0.0751722 0)
(7.3052 -0.098713 0)
(7.29557 -0.122933 0)
(7.28381 -0.144097 0)
(7.27037 -0.160255 0)
(7.25571 -0.1717 0)
(7.24021 -0.180172 0)
(7.22406 -0.187646 0)
(7.2073 -0.195505 0)
(7.18988 -0.20435 0)
(7.17172 -0.214216 0)
(7.15277 -0.224896 0)
(7.133 -0.236156 0)
(7.11237 -0.247821 0)
(7.0909 -0.259775 0)
(7.06857 -0.271931 0)
(7.04541 -0.284209 0)
(7.02143 -0.296532 0)
(6.99666 -0.30882 0)
(6.97115 -0.320994 0)
(6.94493 -0.332979 0)
(6.91805 -0.344707 0)
(6.89058 -0.356105 0)
(6.86257 -0.367146 0)
(7.33296 -0.00234925 0)
(7.33258 -0.00708886 0)
(7.33175 -0.0118834 0)
(7.33045 -0.0167601 0)
(7.32865 -0.0215106 0)
(7.32641 -0.0259625 0)
(7.32375 -0.0307973 0)
(7.32059 -0.0379622 0)
(7.31651 -0.0497691 0)
(7.31085 -0.0671271 0)
(7.30295 -0.0884579 0)
(7.29252 -0.110334 0)
(7.27972 -0.129339 0)
(7.26507 -0.143712 0)
(7.24915 -0.153748 0)
(7.2324 -0.161051 0)
(7.21506 -0.167425 0)
(7.19718 -0.174128 0)
(7.17873 -0.181701 0)
(7.15961 -0.19017 0)
(7.13979 -0.199347 0)
(7.11922 -0.209019 0)
(7.09789 -0.219031 0)
(7.07579 -0.229277 0)
(7.05294 -0.239682 0)
(7.02934 -0.250178 0)
(7.00503 -0.260698 0)
(6.98003 -0.271174 0)
(6.95438 -0.281539 0)
(6.92812 -0.291733 0)
(6.90132 -0.301696 0)
(6.87402 -0.311372 0)
(6.84627 -0.320737 0)
(7.333 -0.00224742 0)
(7.33279 -0.00688161 0)
(7.33215 -0.0116266 0)
(7.33095 -0.0164541 0)
(7.32916 -0.0211535 0)
(7.32676 -0.0255564 0)
(7.3238 -0.0302245 0)
(7.32019 -0.0367904 0)
(7.31554 -0.0471925 0)
(7.30921 -0.0621852 0)
(7.30057 -0.0804232 0)
(7.28934 -0.0990037 0)
(7.27567 -0.115048 0)
(7.26009 -0.127097 0)
(7.24319 -0.135447 0)
(7.22547 -0.141501 0)
(7.20717 -0.14681 0)
(7.18838 -0.152442 0)
(7.16905 -0.158839 0)
(7.14912 -0.166009 0)
(7.12854 -0.173773 0)
(7.10729 -0.181945 0)
(7.08534 -0.190386 0)
(7.0627 -0.199006 0)
(7.03939 -0.207739 0)
(7.01541 -0.216528 0)
(6.9908 -0.225316 0)
(6.96558 -0.234048 0)
(6.9398 -0.24267 0)
(6.91351 -0.25113 0)
(6.88674 -0.259384 0)
(6.85957 -0.267385 0)
(6.83201 -0.275116 0)
(7.33293 -0.00197077 0)
(7.33245 -0.00574585 0)
(7.33153 -0.00937262 0)
(7.3301 -0.0129647 0)
(7.32809 -0.0163978 0)
(7.32559 -0.0195835 0)
(7.32273 -0.0231223 0)
(7.31947 -0.0285439 0)
(7.31529 -0.0375573 0)
(7.30928 -0.0507153 0)
(7.30053 -0.0666752 0)
(7.28863 -0.0827734 0)
(7.27385 -0.0964653 0)
(7.25691 -0.106528 0)
(7.23863 -0.113299 0)
(7.21963 -0.118059 0)
(7.20022 -0.122189 0)
(7.18045 -0.126618 0)
(7.16027 -0.131722 0)
(7.13959 -0.137495 0)
(7.11834 -0.143776 0)
(7.09649 -0.150398 0)
(7.07401 -0.157242 0)
(7.05091 -0.164232 0)
(7.0272 -0.171313 0)
(7.00291 -0.178439 0)
(6.97805 -0.185565 0)
(6.95266 -0.192645 0)
(6.92679 -0.199639 0)
(6.90047 -0.206503 0)
(6.87375 -0.213204 0)
(6.84669 -0.219702 0)
(6.81932 -0.225991 0)
(7.3331 -0.00225704 0)
(7.3333 -0.00677223 0)
(7.33291 -0.0109814 0)
(7.33175 -0.0149557 0)
(7.32981 -0.01869 0)
(7.3271 -0.0222037 0)
(7.32369 -0.0259381 0)
(7.31953 -0.0308515 0)
(7.31429 -0.0379592 0)
(7.30725 -0.0475615 0)
(7.29768 -0.0588088 0)
(7.28523 -0.0700369 0)
(7.27004 -0.079647 0)
(7.25269 -0.0868704 0)
(7.23389 -0.0919401 0)
(7.21423 -0.0957103 0)
(7.19406 -0.0991047 0)
(7.17351 -0.102747 0)
(7.15259 -0.106883 0)
(7.13124 -0.111498 0)
(7.10938 -0.116471 0)
(7.08698 -0.121677 0)
(7.064 -0.127028 0)
(7.04046 -0.132466 0)
(7.01635 -0.137948 0)
(6.99171 -0.143441 0)
(6.96657 -0.148911 0)
(6.94097 -0.154324 0)
(6.91494 -0.159648 0)
(6.88853 -0.164856 0)
(6.86178 -0.16992 0)
(6.83475 -0.174813 0)
(6.80746 -0.179527 0)
(7.33294 -0.00119478 0)
(7.33277 -0.00341646 0)
(7.33236 -0.00547168 0)
(7.33127 -0.00745119 0)
(7.32954 -0.00921595 0)
(7.3273 -0.0108344 0)
(7.32471 -0.0129277 0)
(7.32178 -0.016577 0)
(7.318 -0.0227007 0)
(7.31236 -0.0312833 0)
(7.30375 -0.0411342 0)
(7.29154 -0.0504463 0)
(7.27589 -0.0577509 0)
(7.25763 -0.0625785 0)
(7.23786 -0.0654473 0)
(7.21748 -0.0673511 0)
(7.19696 -0.0691888 0)
(7.17644 -0.0714611 0)
(7.1558 -0.0742789 0)
(7.13491 -0.077534 0)
(7.11364 -0.0810688 0)
(7.09193 -0.0847653 0)
(7.06975 -0.0885602 0)
(7.04712 -0.0924246 0)
(7.02403 -0.0963405 0)
(7.00052 -0.100289 0)
(6.97659 -0.104247 0)
(6.95229 -0.108188 0)
(6.92763 -0.112086 0)
(6.90265 -0.115916 0)
(6.87739 -0.119653 0)
(6.85191 -0.123275 0)
(6.82619 -0.126756 0)
(7.33455 -0.0045753 0)
(7.33995 -0.00962399 0)
(7.34642 -0.0128435 0)
(7.35358 -0.0156573 0)
(7.36152 -0.0181696 0)
(7.37026 -0.0205812 0)
(7.37969 -0.0231983 0)
(7.38893 -0.0261889 0)
(7.39606 -0.0294736 0)
(7.39881 -0.0327368 0)
(7.3956 -0.0356031 0)
(7.38634 -0.0378728 0)
(7.37241 -0.0396432 0)
(7.3559 -0.0412197 0)
(7.33869 -0.0429063 0)
(7.32187 -0.0448573 0)
(7.30573 -0.047066 0)
(7.29006 -0.0494436 0)
(7.2745 -0.0519019 0)
(7.25873 -0.0543923 0)
(7.24258 -0.0569018 0)
(7.22599 -0.0594311 0)
(7.20891 -0.0619777 0)
(7.19134 -0.0645305 0)
(7.17327 -0.0670716 0)
(7.15467 -0.0695815 0)
(7.13554 -0.0720424 0)
(7.11588 -0.0744387 0)
(7.09568 -0.0767586 0)
(7.07498 -0.0789913 0)
(7.05379 -0.0811332 0)
(7.03217 -0.0831734 0)
(7.01007 -0.0851287 0)
(7.32949 -0.00479179 0)
(7.3222 -0.0107896 0)
(7.30936 -0.0151511 0)
(7.29285 -0.0191334 0)
(7.27405 -0.0229805 0)
(7.25288 -0.0268013 0)
(7.22935 -0.0302457 0)
(7.20383 -0.0323868 0)
(7.1771 -0.0322917 0)
(7.15026 -0.0298033 0)
(7.12425 -0.0258402 0)
(7.0995 -0.02193 0)
(7.07581 -0.019417 0)
(7.05251 -0.0188828 0)
(7.02884 -0.0200468 0)
(7.00424 -0.0221466 0)
(6.97852 -0.0244385 0)
(6.9517 -0.0264915 0)
(6.92395 -0.0282026 0)
(6.89542 -0.0296562 0)
(6.86619 -0.0309738 0)
(6.83635 -0.0322325 0)
(6.80593 -0.0334535 0)
(6.77498 -0.0346237 0)
(6.74356 -0.0357202 0)
(6.71175 -0.0367245 0)
(6.6796 -0.0376256 0)
(6.64721 -0.038419 0)
(6.61464 -0.0391058 0)
(6.58198 -0.0396879 0)