/*--------------------------------*- C++ -*----------------------------------*\
  =========                 |
  \\      /  F ield         | OpenFOAM: The Open Source CFD Toolbox
   \\    /   O peration     | Website:  https://openfoam.org
    \\  /    A nd           | Version:  10
     \\/     M anipulation  |
\*---------------------------------------------------------------------------*/
FoamFile
{
    format      ascii;
    class       volScalarField;
    location    "0.065";
    object      epsilon;
}
// * * * * * * * * * * * * * * * * * * * * * * * * * * * * * * * * * * * * * //

dimensions      [0 2 -3 0 0 0 0];

internalField   nonuniform List<scalar> 
6820
(
23.2969
22.5752
21.9094
21.2853
20.7018
20.1631
19.6734
19.2343
18.8456
18.5051
18.2095
17.9552
17.7382
17.5549
17.4018
17.2755
17.1731
17.0919
17.0295
16.9837
16.9527
16.9346
16.9281
16.9318
16.9445
16.9652
16.9926
17.0287
17.0593
17.1483
16.9933
18.014
13.5199
5.03386
6.81837
7.83948
8.46785
8.89848
9.23217
9.52278
9.79679
10.0662
10.3362
10.6084
10.8835
11.1611
11.4408
11.7221
12.0045
12.2874
12.5704
12.8532
13.1353
13.4167
13.697
13.9765
14.2553
14.5339
14.8131
15.0944
15.3801
15.6737
15.9899
16.3035
16.8388
16.9032
3.7036
4.14718
4.56526
4.91425
5.19803
5.43138
5.62837
5.80021
5.95537
6.09995
6.23827
6.37325
6.50683
6.64024
6.77427
6.90933
7.04566
7.18335
7.32237
7.46269
7.60423
7.74692
7.89072
8.03562
8.18171
8.32917
8.47835
8.63001
8.78461
8.94573
9.1103
9.29443
9.4769
3.54009
3.61094
3.72475
3.85374
3.98121
4.09948
4.20632
4.30215
4.38846
4.46703
4.53959
4.60764
4.67243
4.73498
4.79605
4.85626
4.91606
4.97578
5.03567
5.09591
5.15664
5.21794
5.27991
5.34263
5.40619
5.4707
5.53635
5.60344
5.67226
5.74363
5.81793
5.8966
5.98112
3.52064
3.50151
3.50497
3.52611
3.55868
3.59723
3.63784
3.6781
3.71675
3.75323
3.78747
3.8196
3.84989
3.87866
3.9062
3.9328
3.95872
3.98418
4.00934
4.03438
4.05942
4.08457
4.10992
4.13557
4.1616
4.18812
4.21523
4.2431
4.27191
4.30194
4.33347
4.3669
4.40252
3.5194
3.48247
3.45303
3.43232
3.41995
3.41451
3.41423
3.41753
3.42311
3.43003
3.43766
3.44558
3.45354
3.46141
3.46913
3.4767
3.48415
3.49151
3.49882
3.50615
3.51354
3.52104
3.5287
3.53657
3.54471
3.55316
3.56201
3.57132
3.58122
3.59182
3.60328
3.61579
3.62948
3.51943
3.47974
3.44283
3.40949
3.38025
3.35523
3.3342
3.31668
3.30213
3.28999
3.27978
3.2711
3.26361
3.25707
3.25129
3.24613
3.24148
3.23728
3.23348
3.23004
3.22694
3.22417
3.22174
3.21963
3.21787
3.21646
3.21544
3.21485
3.21472
3.21513
3.21615
3.21787
3.22036
3.51947
3.47943
3.44109
3.40466
3.37041
3.33851
3.30906
3.28204
3.25733
3.23477
3.21416
3.19528
3.17792
3.16191
3.14707
3.13327
3.12038
3.10831
3.09696
3.08628
3.0762
3.06669
3.0577
3.04921
3.04119
3.03364
3.02656
3.01994
3.01381
3.00818
3.00308
2.99858
2.99469
3.51948
3.47941
3.44085
3.40382
3.36835
3.33447
3.30224
3.27167
3.24277
3.21549
3.18979
3.16558
3.14278
3.12128
3.10099
3.08183
3.06369
3.04651
3.0302
3.0147
2.99995
2.98591
2.97251
2.95974
2.94755
2.93592
2.92484
2.91428
2.90424
2.89472
2.88575
2.87732
2.86946
3.51948
3.47941
3.44082
3.40368
3.36795
3.33361
3.30061
3.26896
3.23862
3.20957
3.1818
3.15526
3.12991
3.1057
3.08259
3.06052
3.03944
3.01928
3.00001
2.98158
2.96392
2.94701
2.93081
2.91527
2.90036
2.88606
2.87234
2.85919
2.84659
2.83454
2.82302
2.81205
2.80163
3.51948
3.4794
3.44081
3.40365
3.36788
3.33343
3.30026
3.26832
3.23756
3.20796
3.17948
3.15207
3.12572
3.10038
3.07601
3.05259
3.03008
3.00843
2.98761
2.96759
2.94833
2.92979
2.91195
2.89478
2.87824
2.86232
2.84698
2.83222
2.81802
2.80437
2.79125
2.77868
2.76664
3.51948
3.4794
3.4408
3.40364
3.36786
3.33339
3.30018
3.26817
3.23731
3.20755
3.17886
3.15118
3.12449
3.09874
3.0739
3.04994
3.02683
3.00453
2.98301
2.96224
2.9422
2.92285
2.90418
2.88614
2.86873
2.85192
2.83569
2.82003
2.80491
2.79033
2.77628
2.76276
2.74976
3.51948
3.4794
3.44079
3.40363
3.36784
3.33337
3.30015
3.26812
3.23724
3.20744
3.17869
3.15094
3.12414
3.09827
3.07327
3.04913
3.0258
3.00325
2.98145
2.96038
2.94001
2.92031
2.90126
2.88284
2.86501
2.84778
2.8311
2.81498
2.79939
2.78434
2.76979
2.75576
2.74224
3.51948
3.47939
3.44079
3.40362
3.36783
3.33335
3.30013
3.26809
3.2372
3.20739
3.17863
3.15085
3.12403
3.09812
3.07308
3.04888
3.02548
3.00285
2.98096
2.95978
2.93929
2.91946
2.90026
2.88168
2.86369
2.84627
2.8294
2.81308
2.79729
2.782
2.76723
2.75296
2.73917
3.51947
3.47939
3.44079
3.40362
3.36782
3.33334
3.30011
3.26807
3.23717
3.20736
3.17859
3.15081
3.12398
3.09806
3.073
3.04879
3.02537
3.00271
2.98079
2.95958
2.93905
2.91918
2.89993
2.88129
2.86324
2.84576
2.82883
2.81243
2.79655
2.78118
2.76631
2.75193
2.73803
3.51947
3.47939
3.44078
3.40361
3.36781
3.33333
3.3001
3.26806
3.23715
3.20734
3.17856
3.15078
3.12394
3.09802
3.07296
3.04873
3.02531
3.00265
2.98072
2.9595
2.93896
2.91908
2.89982
2.88117
2.8631
2.8456
2.82864
2.81222
2.79631
2.78091
2.766
2.75158
2.73763
3.51947
3.47939
3.44078
3.40361
3.36781
3.33332
3.30008
3.26804
3.23713
3.20732
3.17854
3.15075
3.12391
3.09798
3.07292
3.0487
3.02527
3.00261
2.98068
2.95946
2.93892
2.91903
2.89977
2.88111
2.86304
2.84553
2.82858
2.81215
2.79624
2.78082
2.7659
2.75146
2.73749
3.51947
3.47939
3.44078
3.4036
3.3678
3.33331
3.30007
3.26803
3.23712
3.2073
3.17852
3.15073
3.12389
3.09795
3.07289
3.04866
3.02523
3.00257
2.98064
2.95942
2.93888
2.91899
2.89973
2.88108
2.86301
2.8455
2.82854
2.81212
2.7962
2.78079
2.76586
2.75141
2.73742
3.51947
3.47939
3.44078
3.4036
3.3678
3.33331
3.30006
3.26801
3.2371
3.20728
3.1785
3.1507
3.12386
3.09793
3.07286
3.04863
3.0252
3.00254
2.98061
2.95939
2.93885
2.91896
2.8997
2.88105
2.86298
2.84548
2.82852
2.81209
2.79617
2.78076
2.76583
2.75137
2.73737
3.51947
3.47939
3.44077
3.4036
3.36779
3.3333
3.30006
3.268
3.23709
3.20727
3.17848
3.15069
3.12384
3.09791
3.07284
3.04861
3.02518
3.00251
2.98058
2.95936
2.93882
2.91893
2.89967
2.88102
2.86295
2.84545
2.82849
2.81206
2.79614
2.78072
2.76579
2.75132
2.73731
3.51947
3.47939
3.44077
3.4036
3.36779
3.33329
3.30005
3.268
3.23708
3.20725
3.17846
3.15067
3.12382
3.09788
3.07282
3.04859
3.02515
3.00249
2.98056
2.95933
2.93879
2.9189
2.89964
2.88099
2.86292
2.84542
2.82846
2.81203
2.79611
2.78068
2.76574
2.75126
2.73724
3.51947
3.47938
3.44077
3.40359
3.36779
3.33329
3.30004
3.26799
3.23707
3.20724
3.17845
3.15065
3.12381
3.09787
3.0728
3.04856
3.02513
3.00246
2.98053
2.95931
2.93876
2.91888
2.89961
2.88096
2.86289
2.84539
2.82842
2.81199
2.79606
2.78063
2.76568
2.75119
2.73715
3.51947
3.47938
3.44077
3.40359
3.36778
3.33329
3.30004
3.26798
3.23706
3.20723
3.17844
3.15064
3.12379
3.09785
3.07278
3.04855
3.02511
3.00244
2.98051
2.95928
2.93874
2.91885
2.89959
2.88093
2.86286
2.84535
2.82838
2.81194
2.79601
2.78057
2.76561
2.75111
2.73706
3.51947
3.47938
3.44077
3.40359
3.36778
3.33328
3.30003
3.26798
3.23706
3.20723
3.17843
3.15063
3.12378
3.09784
3.07277
3.04853
3.02509
3.00242
2.98049
2.95926
2.93871
2.91882
2.89956
2.8809
2.86282
2.84531
2.82834
2.81189
2.79595
2.78051
2.76553
2.75102
2.73695
3.51947
3.47938
3.44077
3.40359
3.36778
3.33328
3.30003
3.26797
3.23705
3.20722
3.17842
3.15062
3.12377
3.09782
3.07275
3.04851
3.02507
3.0024
2.98047
2.95924
2.93869
2.91879
2.89952
2.88086
2.86278
2.84526
2.82829
2.81184
2.79589
2.78043
2.76545
2.75092
2.73683
3.51947
3.47938
3.44077
3.40359
3.36778
3.33328
3.30003
3.26797
3.23705
3.20721
3.17842
3.15061
3.12376
3.09781
3.07274
3.0485
3.02506
3.00238
2.98045
2.95922
2.93866
2.91876
2.89949
2.88083
2.86274
2.84522
2.82824
2.81178
2.79582
2.78035
2.76535
2.75081
2.73671
3.51947
3.47938
3.44077
3.40359
3.36778
3.33328
3.30003
3.26797
3.23704
3.20721
3.17841
3.1506
3.12375
3.0978
3.07273
3.04848
3.02504
3.00237
2.98043
2.95919
2.93864
2.91873
2.89946
2.88079
2.8627
2.84517
2.82818
2.81171
2.79575
2.78027
2.76526
2.7507
2.73658
3.51947
3.47938
3.44077
3.40359
3.36778
3.33328
3.30003
3.26797
3.23704
3.20721
3.17841
3.1506
3.12375
3.0978
3.07272
3.04848
3.02503
3.00236
2.98041
2.95918
2.93862
2.91871
2.89943
2.88076
2.86266
2.84512
2.82813
2.81165
2.79567
2.78018
2.76516
2.75059
2.73645
3.51947
3.47938
3.44077
3.40359
3.36778
3.33328
3.30002
3.26796
3.23704
3.2072
3.1784
3.15059
3.12374
3.09779
3.07271
3.04846
3.02502
3.00234
2.98039
2.95915
2.93859
2.91868
2.8994
2.88071
2.86261
2.84507
2.82806
2.81158
2.79559
2.78009
2.76505
2.75047
2.73632
3.51947
3.47938
3.44077
3.40359
3.36778
3.33328
3.30003
3.26797
3.23705
3.20721
3.17841
3.15061
3.12375
3.0978
3.07272
3.04847
3.02503
3.00234
2.9804
2.95915
2.93859
2.91867
2.89938
2.8807
2.86259
2.84504
2.82802
2.81153
2.79553
2.78002
2.76497
2.75037
2.7362
3.51947
3.47939
3.44077
3.40359
3.36778
3.33328
3.30002
3.26796
3.23704
3.2072
3.1784
3.15059
3.12373
3.09778
3.0727
3.04846
3.02501
3.00233
2.98038
2.95913
2.93857
2.91865
2.89936
2.88067
2.86255
2.845
2.82798
2.81148
2.79547
2.77995
2.76489
2.75028
2.7361
3.51947
3.47938
3.44077
3.40359
3.36779
3.3333
3.30006
3.26801
3.23709
3.20726
3.17846
3.15066
3.1238
3.09786
3.07278
3.04853
3.02508
3.0024
2.98045
2.9592
2.93863
2.91871
2.89942
2.88073
2.86262
2.84506
2.82804
2.81154
2.79554
2.78002
2.76496
2.75035
2.73617
3.51948
3.4794
3.44079
3.40362
3.36782
3.33332
3.30007
3.26801
3.23709
3.20726
3.17846
3.15066
3.12382
3.09788
3.07281
3.04858
3.02515
3.00248
2.98056
2.95934
2.9388
2.91891
2.89965
2.88099
2.86292
2.8454
2.82843
2.81197
2.79601
2.78054
2.76553
2.75098
2.73685
3.51947
3.47939
3.4408
3.40365
3.36789
3.33344
3.30023
3.26822
3.23734
3.20755
3.1788
3.15105
3.12425
3.09837
3.07337
3.04922
3.02588
3.00333
2.98152
2.96043
2.94004
2.92031
2.90122
2.88275
2.86487
2.84756
2.8308
2.81456
2.79884
2.78361
2.76885
2.75454
2.74068
3.51949
3.47947
3.44095
3.40384
3.3681
3.33368
3.30054
3.26862
3.23789
3.20831
3.17982
3.15238
3.12596
3.10052
3.07602
3.05242
3.02968
3.00777
2.98665
2.9663
2.94668
2.92776
2.90951
2.8919
2.87491
2.85851
2.84267
2.82737
2.81259
2.79831
2.7845
2.77116
2.75824
3.5195
3.47953
3.44117
3.40447
3.36934
3.33573
3.3036
3.27292
3.24365
3.21574
3.18915
3.16383
3.13973
3.11677
3.09492
3.07411
3.05427
3.03537
3.01733
3.00012
2.98367
2.96796
2.95292
2.93852
2.92472
2.91149
2.89879
2.88658
2.87485
2.86356
2.85268
2.8422
2.83208
3.51968
3.48122
3.44561
3.41286
3.38297
3.3559
3.33154
3.3097
3.29019
3.27278
3.25726
3.24342
3.23107
3.22003
3.21015
3.20128
3.19329
3.18607
3.17952
3.17355
3.16807
3.16303
3.15834
3.15397
3.14986
3.14596
3.14224
3.13867
3.13521
3.13185
3.12855
3.12529
3.12206
3.52526
3.51371
3.51626
3.52957
3.55085
3.57807
3.60961
3.64419
3.68085
3.71883
3.75757
3.79659
3.83554
3.87415
3.91219
3.94951
3.98598
4.0215
4.05601
4.08946
4.12184
4.15311
4.18329
4.21236
4.24035
4.26727
4.29314
4.31799
4.34184
4.36473
4.38669
4.40775
4.42796
3.83318
4.36502
4.84906
5.31381
5.77391
6.22478
6.66214
7.08416
7.4905
7.88156
8.25814
8.6212
8.97165
9.31038
9.63821
9.95585
10.264
10.5632
10.854
11.1369
11.4124
11.6809
11.9428
12.1985
12.4485
12.6931
12.9326
13.1675
13.398
13.6245
13.8474
14.0669
14.2833
30.2663
32.7713
35.3126
37.865
40.4147
42.9529
45.4713
47.9624
50.4193
52.8358
55.2063
57.526
59.7909
61.9976
64.1432
66.2256
68.2431
70.1946
72.0794
73.8972
75.648
77.3322
78.9504
80.5036
81.9926
83.4188
84.7835
86.0882
87.3344
88.5237
89.6578
90.7381
91.7676
87.9028
247.061
450.49
656.06
822.641
922.587
947.804
911.498
838.828
753.675
671.584
599.615
539.403
490.131
450.279
418.321
392.88
372.876
357.078
344.432
333.976
324.798
316.006
306.705
295.978
282.89
266.514
245.999
220.704
190.428
155.761
118.502
81.9132
50.2768
27.2765
13.8959
7.89564
5.84323
5.3675
5.42466
5.64225
5.88768
6.1069
6.27562
6.38522
6.43678
6.43715
6.39573
6.32236
6.22606
6.11446
5.99372
5.86865
5.74294
5.61939
5.50009
5.3866
5.28005
5.18126
5.09078
5.00891
4.93573
4.8711
4.81459
4.76548
4.72267
4.68471
4.64975
4.61565
4.58004
4.54049
4.49456
4.43982
4.37373
4.29345
4.19572
4.07682
3.93299
3.76113
3.55984
3.3305
3.07801
2.81091
2.54068
2.28019
2.04161
1.83431
1.66342
1.52936
1.42861
1.35528
1.30279
1.26522
1.23803
1.21806
1.20327
1.19235
1.18433
1.17878
1.17325
19.7311
29.4804
50.761
88.9383
147.894
226.923
318.709
409.992
485.998
536.059
557.026
552.97
531.972
502.384
470.512
440.067
412.691
388.577
367.438
348.679
331.584
315.388
299.292
282.47
264.102
243.427
219.822
192.944
162.916
130.569
97.6615
66.8728
41.2626
23.0723
12.4771
7.53094
5.66384
5.11536
5.07027
5.21335
5.41991
5.63139
5.81585
5.95646
6.04691
6.08821
6.08584
6.04737
5.98081
5.89363
5.79224
5.68192
5.56687
5.45037
5.33495
5.22252
5.11455
5.01213
4.91607
4.82694
4.74515
4.67093
4.60435
4.54529
4.49341
4.44808
4.40832
4.37281
4.33984
4.3074
4.27326
4.23504
4.19026
4.13628
4.07013
3.98844
3.88738
3.76306
3.61213
3.43277
3.22573
2.99508
2.74847
2.49648
2.25126
2.02459
1.82583
1.66048
1.52957
1.43035
1.35757
1.30515
1.26748
1.24015
1.22005
1.20512
1.19405
1.18585
1.18015
1.17436
9.65522
9.9484
10.5382
12.129
16.2916
25.5424
43.0808
71.5507
111.22
159.011
209.256
255.586
292.86
318.359
331.914
335.228
330.769
320.491
306.624
290.796
273.86
256.062
237.275
217.215
195.589
172.223
147.187
120.929
94.3919
69.0463
46.7145
29.0911
17.042
10.1041
6.75337
5.35809
4.86082
4.75928
4.83926
5.00148
5.19138
5.37521
5.53202
5.65026
5.72571
5.75943
5.75581
5.72094
5.66128
5.58299
5.49144
5.39115
5.28578
5.17825
5.07083
4.96531
4.86304
4.76507
4.67219
4.58499
4.50393
4.42931
4.36137
4.30019
4.24573
4.19773
4.15569
4.11873
4.08563
4.05477
4.02421
3.99175
3.95494
3.9111
3.85722
3.78986
3.70516
3.5991
3.46809
3.30989
3.12458
2.91537
2.68893
2.4549
2.22467
2.00959
1.81903
1.65885
1.53077
1.43277
1.3603
1.30777
1.26988
1.24232
1.22203
1.20692
1.19566
1.18727
1.18139
1.17532
6.08141
6.19217
6.26164
6.2262
6.05891
5.93619
6.4557
8.51399
13.1466
21.4976
34.4234
51.8422
72.4562
94.1357
114.611
132.002
145.176
153.895
157.821
157.047
152.054
143.503
132.074
118.386
103.022
86.5921
69.8155
53.5627
38.815
26.5082
17.2699
11.1597
7.62525
5.80227
4.9366
4.56776
4.46347
4.50681
4.63146
4.79455
4.96629
5.12584
5.25944
5.35936
5.42284
5.45089
5.44701
5.41599
5.36306
5.29323
5.21101
5.12024
5.02412
4.92522
4.82562
4.72695
4.63048
4.53722
4.44792
4.36318
4.28346
4.20913
4.14049
4.07778
4.02116
3.97067
3.92616
3.8872
3.85304
3.82247
3.79392
3.76542
3.73467
3.69903
3.65551
3.60067
3.53065
3.44134
3.32898
3.19089
3.02649
2.8381
2.63138
2.41497
2.19946
1.99576
1.81319
1.658
1.53255
1.4356
1.36329
1.31053
1.27233
1.2445
1.22397
1.20866
1.1972
1.1886
1.18254
1.17616
4.44705
4.50378
4.56609
4.62191
4.63884
4.56532
4.37772
4.13581
4.02208
4.3537
5.46231
7.60782
10.9586
15.5116
21.008
26.9349
32.6216
37.7529
41.8976
44.6429
45.6925
44.9284
42.4292
38.4537
33.4045
27.7813
22.1253
16.9471
12.6393
9.3941
7.17308
5.77058
4.93631
4.4698
4.24124
4.17008
4.20332
4.30328
4.44148
4.59559
4.74812
4.88592
4.99989
5.08479
5.13877
5.16266
5.15917
5.13206
5.08551
5.02359
4.95007
4.86821
4.78079
4.69011
4.59804
4.50607
4.41542
4.32701
4.24159
4.15974
4.08192
4.00852
3.93987
3.8763
3.81808
3.76548
3.71862
3.67745
3.64162
3.61039
3.58256
3.55647
3.53004
3.50077
3.46574
3.42158
3.36446
3.29029
3.1951
3.07587
2.93134
2.76297
2.57536
2.37615
2.17508
1.98256
1.80785
1.65754
1.53463
1.43864
1.36639
1.31334
1.27476
1.24661
1.22583
1.2103
1.19865
1.18984
1.18359
1.17691
3.64733
3.67138
3.70082
3.73602
3.7747
3.80742
3.81452
3.77107
3.6654
3.52981
3.44044
3.49054
3.77226
4.35289
5.25263
6.43645
7.82848
9.15645
10.2964
11.1566
11.6625
11.7677
11.4677
10.8072
9.87603
8.79435
7.68864
6.66627
5.79701
5.10894
4.59839
4.24539
4.02506
3.9128
3.88605
3.92479
4.01119
4.12928
4.26462
4.40448
4.53806
4.65671
4.75425
4.82696
4.87348
4.8944
4.89177
4.8685
4.82789
4.77327
4.70775
4.63414
4.55483
4.47188
4.38696
4.30147
4.21653
4.13303
4.05167
3.97304
3.89757
3.82565
3.75764
3.69387
3.63471
3.58053
3.53166
3.48834
3.45058
3.41805
3.38995
3.36501
3.34139
3.31681
3.28849
3.25319
3.20718
3.1464
3.06679
2.96496
2.83909
2.68975
2.52053
2.33799
2.15104
1.96953
1.8026
1.65713
1.53675
1.44169
1.36948
1.31609
1.27711
1.24861
1.22757
1.21182
1.19997
1.19096
1.18453
1.17755
3.22448
3.23121
3.24095
3.25458
3.2728
3.29553
3.32047
3.34154
3.34882
3.33334
3.29546
3.2507
3.22903
3.26561
3.38823
3.61325
3.92821
4.26671
4.58529
4.85138
5.04107
5.13968
5.14296
5.05761
4.90001
4.69337
4.46362
4.23527
4.0284
3.85714
3.72976
3.64956
3.61598
3.62569
3.67333
3.75214
3.85444
3.97207
4.0968
4.22075
4.33682
4.43906
4.52302
4.58592
4.62663
4.64551
4.64404
4.62444
4.58931
4.54135
4.48315
4.4171
4.34529
4.26952
4.19134
4.11203
4.03262
3.95398
3.87677
3.80156
3.72878
3.65881
3.59198
3.52865
3.46919
3.41403
3.36364
3.31845
3.27877
3.24462
3.21561
3.19082
3.16877
3.14741
3.12418
3.096
3.05931
3.01013
2.94437
2.85838
2.74978
2.61833
2.4666
2.30014
2.12694
1.95626
1.79707
1.65649
1.53868
1.44459
1.37244
1.3187
1.2793
1.25045
1.22913
1.21318
1.20114
1.19194
1.18534
1.17809
2.99106
2.98819
2.98706
2.9882
2.99216
2.99944
3.01027
3.02421
3.03959
3.05318
3.06118
3.06147
3.0562
3.05283
3.06202
3.09564
3.1566
3.23712
3.32622
3.41247
3.48588
3.53916
3.56831
3.57283
3.55546
3.52158
3.47825
3.43321
3.39389
3.36672
3.35662
3.36678
3.39859
3.45178
3.52453
3.61375
3.71533
3.82446
3.93595
4.04451
4.14518
4.23363
4.30648
4.36152
4.39773
4.41524
4.41507
4.3989
4.36876
4.32684
4.27528
4.21612
4.15118
4.08207
4.01018
3.9367
3.86259
3.78868
3.71562
3.64394
3.57408
3.50638
3.44119
3.37883
3.31967
3.26416
3.2128
3.16618
3.12479
3.08897
3.05869
3.03339
3.01193
2.99257
2.97299
2.95033
2.92124
2.88188
2.8282
2.75635
2.6635
2.54866
2.41343
2.26234
2.10246
1.94243
1.79096
1.65533
1.54021
1.44719
1.37515
1.32109
1.28128
1.25207
1.23049
1.21434
1.20213
1.19276
1.18602
1.17852
2.86108
2.8524
2.84482
2.83871
2.83442
2.83233
2.83273
2.83583
2.8416
2.84958
2.85875
2.86769
2.87518
2.88108
2.88673
2.89513
2.90863
2.92816
2.95288
2.98062
3.00862
3.03425
3.05557
3.07167
3.08282
3.09041
3.09669
3.10447
3.11678
3.13647
3.16599
3.20708
3.26063
3.32663
3.40409
3.4912
3.58536
3.68338
3.78166
3.87642
3.96395
4.04096
4.10475
4.15346
4.18614
4.20272
4.20388
4.19085
4.1652
4.1287
4.08313
4.03021
3.97154
3.90855
3.84251
3.77448
3.70541
3.63606
3.56707
3.49895
3.43212
3.36693
3.30371
3.24275
3.1844
3.12909
3.07734
3.02978
2.98706
2.94974
2.91808
2.89187
2.87033
2.85201
2.83486
2.8163
2.7932
2.76194
2.71855
2.65912
2.58041
2.48079
2.36095
2.22444
2.0774
1.92779
1.78403
1.65346
1.54117
1.44935
1.37752
1.3232
1.28299
1.25343
1.23159
1.21525
1.2029
1.19339
1.18652
1.17881
2.79021
2.77786
2.76627
2.75569
2.74638
2.73861
2.73265
2.72871
2.72694
2.7274
2.72997
2.7343
2.73985
2.74607
2.75263
2.75971
2.76774
2.7772
2.7884
2.80132
2.81569
2.83108
2.84709
2.86357
2.88069
2.89902
2.91947
2.94327
2.97175
3.00626
3.04796
3.0977
3.15586
3.22232
3.29636
3.37667
3.46141
3.54826
3.63453
3.71735
3.79384
3.86137
3.91771
3.96126
3.9911
4.00703
4.00944
3.9992
3.97755
3.94588
3.90567
3.85838
3.80541
3.74803
3.68737
3.62444
3.56011
3.49511
3.43006
3.36545
3.3017
3.23916
3.17813
3.11889
3.06177
3.00714
2.95552
2.90754
2.86394
2.82541
2.79247
2.76521
2.74315
2.72517
2.7095
2.69382
2.67527
2.65049
2.61569
2.56692
2.5007
2.41482
2.30918
2.18636
2.05161
1.91218
1.77609
1.6507
1.54141
1.45097
1.37947
1.32496
1.28439
1.2545
1.23241
1.2159
1.20342
1.1938
1.18683
1.17894
2.75329
2.73863
2.72452
2.71114
2.6987
2.68742
2.67751
2.66916
2.66255
2.65781
2.655
2.6541
2.65499
2.65747
2.66131
2.66634
2.67249
2.67979
2.68833
2.69822
2.70954
2.7224
2.73692
2.75329
2.7718
2.7929
2.81715
2.84522
2.87782
2.91565
2.9593
3.00916
3.06535
3.12766
3.19547
3.26777
3.34311
3.41971
3.49546
3.5681
3.63531
3.69492
3.74505
3.78431
3.81179
3.82719
3.83069
3.8229
3.80474
3.77733
3.7419
3.69967
3.65185
3.59958
3.54388
3.48568
3.42579
3.36491
3.30363
3.24245
3.18176
3.12192
3.06322
3.00592
2.95032
2.89676
2.84571
2.79779
2.75375
2.7144
2.68041
2.65213
2.62937
2.61127
2.59636
2.58258
2.56736
2.54761
2.51976
2.47996
2.42457
2.35092
2.25822
2.14815
2.02508
1.89552
1.76705
1.64695
1.54085
1.45197
1.38094
1.32634
1.28546
1.25526
1.23293
1.21626
1.20367
1.19396
1.18692
1.1789
2.73525
2.71919
2.70354
2.68845
2.67408
2.66061
2.64821
2.63706
2.62733
2.61915
2.61265
2.60789
2.6049
2.60364
2.60406
2.60608
2.60964
2.61472
2.62132
2.62951
2.63938
2.65105
2.66469
2.68055
2.6989
2.7201
2.74457
2.77274
2.80505
2.84192
2.88367
2.93049
2.98237
3.03905
3.10002
3.16441
3.23109
3.2986
3.36525
3.4292
3.48853
3.54143
3.5863
3.62187
3.6473
3.6622
3.66659
3.66088
3.64574
3.62207
3.59085
3.55313
3.50996
3.46233
3.41117
3.35734
3.3016
3.2446
3.18691
3.12902
3.07134
3.01419
2.95787
2.90264
2.84877
2.79656
2.74644
2.69898
2.65494
2.61514
2.58042
2.55129
2.5278
2.50935
2.49472
2.4821
2.46919
2.45319
2.43083
2.39839
2.35221
2.28929
2.20822
2.1099
1.99783
1.87779
1.75686
1.64213
1.53941
1.45228
1.38191
1.32732
1.28619
1.2557
1.23315
1.21633
1.20364
1.19386
1.18677
1.17866
2.72709
2.71024
2.69371
2.67761
2.66208
2.64726
2.63329
2.62035
2.60858
2.59812
2.5891
2.58161
2.57574
2.57153
2.56901
2.56817
2.56903
2.5716
2.57592
2.58203
2.59003
2.60002
2.61215
2.62661
2.64364
2.6635
2.6865
2.71293
2.74311
2.77728
2.81564
2.85827
2.90511
2.9559
3.01018
3.06723
3.12611
3.18562
3.24436
3.30081
3.35337
3.40049
3.44078
3.47311
3.49667
3.51103
3.5161
3.51211
3.49955
3.47911
3.4516
3.41789
3.37888
3.33546
3.28845
3.23865
3.18675
3.13338
3.07909
3.02435
2.96957
2.91507
2.86114
2.80804
2.75601
2.70534
2.65641
2.60974
2.56604
2.52618
2.49104
2.4613
2.43718
2.41831
2.40368
2.3917
2.38031
2.36703
2.34884
2.32231
2.28381
2.23013
2.1594
2.07178
1.97
1.85906
1.74552
1.63624
1.53706
1.45189
1.38234
1.32788
1.28658
1.25583
1.23307
1.2161
1.20333
1.1935
1.18638
1.1782
2.7237
2.70643
2.68942
2.67275
2.65654
2.6409
2.62596
2.61186
2.59874
2.58672
2.57594
2.5665
2.55851
2.55203
2.54714
2.54389
2.54232
2.5425
2.54446
2.5483
2.55409
2.56194
2.57198
2.58436
2.59928
2.61693
2.63753
2.66131
2.68848
2.71921
2.7536
2.79169
2.83338
2.87843
2.92643
2.97678
3.02867
3.08111
3.13293
3.18283
3.22946
3.2715
3.30773
3.33713
3.35894
3.3727
3.37822
3.37562
3.36522
3.34756
3.32328
3.29311
3.25783
3.21819
3.17497
3.12885
3.08051
3.03053
2.97944
2.9277
2.87569
2.82375
2.77218
2.72121
2.67108
2.62207
2.57449
2.52884
2.48579
2.44617
2.41093
2.38083
2.35626
2.33701
2.32226
2.31058
2.30016
2.28874
2.27366
2.25174
2.21949
2.17365
2.11196
2.034
1.94173
1.83944
1.73312
1.62929
1.5338
1.45079
1.38223
1.32804
1.28663
1.25567
1.2327
1.2156
1.20275
1.19288
1.18573
1.17752
2.72241
2.70493
2.68766
2.67068
2.65407
2.63792
2.62236
2.60749
2.59345
2.58034
2.56829
2.55741
2.54781
2.53957
2.53279
2.52753
2.52387
2.52188
2.52164
2.52323
2.52675
2.5323
2.53999
2.54997
2.56238
2.5774
2.59518
2.61589
2.6397
2.6667
2.69697
2.73051
2.76721
2.80684
2.84904
2.8933
2.93893
2.98507
3.03075
3.07486
3.11624
3.15375
3.18632
3.21302
3.23314
3.2462
3.25197
3.25045
3.24185
3.22655
3.20508
3.17802
3.14605
3.10983
3.07002
3.02729
2.98223
2.9354
2.8873
2.83838
2.78901
2.73954
2.69025
2.64138
2.59317
2.54585
2.49974
2.45527
2.41306
2.37394
2.33885
2.30864
2.28382
2.26431
2.24942
2.23789
2.22805
2.21788
2.20502
2.18659
2.15934
2.12003
2.06615
1.99679
1.91324
1.8191
1.71975
1.62136
1.52967
1.44899
1.3816
1.3278
1.28638
1.25524
1.23209
1.21485
1.20192
1.19202
1.18486
1.17664
2.72194
2.70436
2.68695
2.66978
2.65292
2.63645
2.62047
2.60507
2.59036
2.57645
2.56345
2.55147
2.54061
2.53096
2.52263
2.51569
2.51023
2.50633
2.50409
2.50359
2.50492
2.5082
2.51353
2.52104
2.53085
2.54311
2.55795
2.5755
2.59587
2.61916
2.6454
2.67456
2.70654
2.74113
2.77802
2.81675
2.85674
2.89725
2.93745
2.97638
3.01305
3.04647
3.07568
3.09986
3.11833
3.13062
3.13644
3.13572
3.12857
3.11527
3.09622
3.07189
3.04286
3.00969
2.97299
2.93334
2.89129
2.84738
2.80207
2.7558
2.70893
2.66181
2.61471
2.56788
2.52155
2.47595
2.43135
2.38815
2.34693
2.30848
2.27376
2.24365
2.21876
2.19913
2.18418
2.17273
2.16325
2.1539
2.14258
2.12673
2.10339
2.06942
2.02219
1.96041
1.88477
1.79822
1.70556
1.61254
1.52473
1.44652
1.38046
1.3272
1.28585
1.25458
1.23126
1.2139
1.20089
1.19095
1.18378
1.17557
2.72176
2.70412
2.68663
2.66934
2.6523
2.6356
2.61931
2.60351
2.5883
2.57377
2.56003
2.54717
2.53529
2.52449
2.51486
2.50649
2.49948
2.49391
2.48987
2.48745
2.48676
2.4879
2.49097
2.49609
2.50336
2.51292
2.52488
2.53935
2.55641
2.57613
2.59853
2.62358
2.65118
2.68114
2.71317
2.74689
2.78178
2.81722
2.85248
2.88675
2.91916
2.94884
2.97496
2.99676
3.01361
3.02504
3.03075
3.03059
3.02461
3.01298
2.996
2.97406
2.94761
2.91718
2.88327
2.84643
2.80715
2.76593
2.72321
2.67942
2.63491
2.59001
2.545
2.50013
2.45563
2.4117
2.36862
2.32674
2.2866
2.24895
2.21474
2.18489
2.1601
2.1405
2.12558
2.11424
2.10502
2.09621
2.08594
2.07195
2.05159
2.02191
1.98027
1.92508
1.85656
1.77704
1.69073
1.60295
1.51906
1.44344
1.37886
1.32627
1.28508
1.25374
1.23027
1.21278
1.19969
1.18971
1.18253
1.17433
2.72167
2.70399
2.68643
2.66905
2.65188
2.635
2.61846
2.60235
2.58673
2.5717
2.55735
2.54377
2.53105
2.51927
2.50855
2.49895
2.49058
2.48353
2.47789
2.47375
2.47122
2.47038
2.47135
2.47422
2.47911
2.48612
2.49535
2.5069
2.52084
2.53722
2.55605
2.57729
2.60085
2.62656
2.65417
2.68334
2.71362
2.74447
2.77527
2.8053
2.83383
2.86008
2.88332
2.90286
2.91813
2.92865
2.9341
2.93431
2.92924
2.91898
2.90377
2.88389
2.85974
2.83173
2.80034
2.76604
2.72929
2.69055
2.65024
2.60876
2.56645
2.52365
2.48062
2.43763
2.39488
2.35259
2.311
2.27044
2.23141
2.19464
2.16104
2.13159
2.10702
2.08756
2.07278
2.06162
2.05264
2.04423
2.03466
2.02199
2.00386
1.97757
1.94056
1.89105
1.82886
1.75577
1.67545
1.59274
1.51275
1.43982
1.37685
1.32504
1.2841
1.25274
1.22915
1.21154
1.19837
1.18835
1.18116
1.17298
2.72159
2.70388
2.68627
2.6688
2.65153
2.63449
2.61775
2.60137
2.58542
2.56997
2.55511
2.54092
2.52748
2.51487
2.5032
2.49254
2.48299
2.47464
2.46757
2.46189
2.45768
2.45504
2.45408
2.45489
2.45757
2.46221
2.46891
2.47776
2.4888
2.50208
2.51761
2.53535
2.55521
2.57705
2.60063
2.62566
2.65175
2.67844
2.70518
2.73136
2.75634
2.77943
2.79999
2.81739
2.8311
2.84066
2.84575
2.84614
2.84176
2.83264
2.81891
2.80082
2.77868
2.75284
2.72371
2.69171
2.65727
2.6208
2.58271
2.54338
2.50314
2.4623
2.42115
2.37992
2.33885
2.29813
2.25799
2.21873
2.18083
2.14497
2.11205
2.08307
2.05881
2.0396
2.02505
2.01414
2.00544
1.99736
1.98831
1.97656
1.96007
1.93643
1.90319
1.85851
1.8019
1.73466
1.65991
1.58207
1.50593
1.43573
1.37446
1.32354
1.28296
1.25163
1.22795
1.21023
1.19698
1.18692
1.17971
1.17154
2.72151
2.70376
2.6861
2.66857
2.65119
2.63403
2.61711
2.6005
2.58426
2.56846
2.55316
2.53844
2.52438
2.51106
2.49857
2.48698
2.47639
2.46689
2.45855
2.45149
2.44577
2.44151
2.43879
2.43772
2.43837
2.44084
2.44522
2.45157
2.45995
2.47039
2.48289
2.49743
2.51391
2.5322
2.55212
2.57338
2.59567
2.61857
2.64162
2.66429
2.686
2.70618
2.72423
2.73961
2.7518
2.76037
2.765
2.76543
2.76156
2.75335
2.74088
2.72433
2.70395
2.68003
2.65292
2.623
2.59066
2.55628
2.52024
2.4829
2.44458
2.40559
2.36619
2.32664
2.28716
2.24793
2.20919
2.17121
2.13442
2.09948
2.06727
2.0388
2.01492
1.99601
1.98178
1.9712
1.96284
1.9551
1.94646
1.93537
1.92007
1.89845
1.86826
1.82766
1.77591
1.71392
1.64434
1.57111
1.49871
1.43126
1.37177
1.32184
1.28168
1.25044
1.22671
1.20889
1.19556
1.18545
1.17822
1.17006
2.72142
2.70364
2.68593
2.66833
2.65087
2.63358
2.61651
2.5997
2.58321
2.5671
2.55142
2.53625
2.52165
2.50771
2.4945
2.4821
2.4706
2.46008
2.45062
2.44231
2.43525
2.42952
2.42522
2.42243
2.42124
2.42173
2.42398
2.42805
2.43399
2.44183
2.45157
2.46318
2.47657
2.49164
2.50821
2.52606
2.54488
2.56434
2.58402
2.60347
2.62219
2.63967
2.65539
2.66884
2.67956
2.68713
2.69122
2.69158
2.68805
2.68057
2.66916
2.65393
2.63508
2.61286
2.58757
2.55953
2.52909
2.49663
2.46247
2.42697
2.39044
2.35317
2.31543
2.27746
2.23947
2.20167
2.16426
2.1275
2.0918
2.05778
2.02629
1.99836
1.97488
1.95633
1.94246
1.93228
1.92433
1.91697
1.9087
1.89811
1.88369
1.86361
1.83586
1.79865
1.75111
1.6938
1.62894
1.56004
1.49124
1.4265
1.36883
1.31996
1.2803
1.24922
1.22546
1.20756
1.19415
1.18399
1.17674
1.16859
2.72131
2.7035
2.68575
2.66808
2.65054
2.63315
2.61594
2.59896
2.58225
2.56586
2.54985
2.53429
2.51923
2.50474
2.4909
2.47779
2.46548
2.45406
2.4436
2.43419
2.42592
2.41888
2.41314
2.4088
2.40594
2.40463
2.40494
2.40694
2.41066
2.41613
2.42334
2.43227
2.44286
2.455
2.46853
2.48325
2.49892
2.51524
2.53184
2.54834
2.56431
2.5793
2.59283
2.60446
2.61376
2.62033
2.62384
2.62404
2.62072
2.61381
2.60327
2.58918
2.57167
2.55095
2.52727
2.50093
2.47223
2.44151
2.40909
2.3753
2.34043
2.30477
2.26858
2.23209
2.19553
2.15907
2.12293
2.08735
2.0527
2.01957
1.9888
1.96142
1.93836
1.92018
1.9067
1.89698
1.8895
1.88259
1.87472
1.86455
1.85077
1.83186
1.80603
1.77163
1.72769
1.67452
1.61393
1.54905
1.48368
1.42158
1.36573
1.31797
1.27886
1.24797
1.22423
1.20626
1.19279
1.18258
1.1753
1.16715
2.7212
2.70335
2.68555
2.66783
2.65021
2.63272
2.61539
2.59825
2.58135
2.56472
2.54843
2.53251
2.51705
2.50209
2.4877
2.47396
2.46094
2.44872
2.43737
2.42698
2.41763
2.40941
2.40238
2.39665
2.39227
2.38933
2.38789
2.38799
2.38969
2.393
2.39792
2.40442
2.41245
2.42191
2.43267
2.44456
2.45736
2.47081
2.4846
2.4984
2.51184
2.52451
2.53601
2.54592
2.55385
2.55942
2.56232
2.56228
2.55908
2.5526
2.54278
2.52966
2.51333
2.49394
2.4717
2.44689
2.41977
2.39064
2.35982
2.3276
2.29428
2.26012
2.22539
2.19031
2.15508
2.11991
2.08499
2.05054
2.0169
1.98465
1.95459
1.92774
1.90509
1.88728
1.87421
1.86498
1.85805
1.85166
1.84422
1.83445
1.8212
1.80317
1.77885
1.74674
1.70586
1.6563
1.59954
1.53834
1.47618
1.41661
1.36256
1.31591
1.2774
1.24675
1.22304
1.20503
1.19149
1.18123
1.17392
1.16577
2.72107
2.70319
2.68535
2.66757
2.64989
2.63231
2.61486
2.59758
2.58051
2.56367
2.54712
2.5309
2.51508
2.4997
2.48483
2.47054
2.45689
2.44397
2.43183
2.42057
2.41026
2.40097
2.3928
2.3858
2.38006
2.37565
2.37261
2.37101
2.37087
2.37222
2.37505
2.37934
2.38504
2.39207
2.40031
2.40962
2.4198
2.43063
2.44185
2.45317
2.46427
2.4748
2.4844
2.49269
2.49931
2.50391
2.50618
2.50584
2.50268
2.49653
2.48731
2.47502
2.4597
2.44149
2.42055
2.39711
2.37142
2.34376
2.31441
2.28365
2.25178
2.21903
2.18568
2.15192
2.11798
2.08404
2.05028
2.01692
1.98427
1.95287
1.9235
1.89717
1.87494
1.85748
1.84482
1.83609
1.82975
1.82396
1.81704
1.80769
1.79488
1.77753
1.75439
1.72414
1.68582
1.63938
1.58602
1.52815
1.46895
1.41176
1.35943
1.31388