/*--------------------------------*- C++ -*----------------------------------*\
  =========                 |
  \\      /  F ield         | OpenFOAM: The Open Source CFD Toolbox
   \\    /   O peration     | Website:  https://openfoam.org
    \\  /    A nd           | Version:  10
     \\/     M anipulation  |
\*---------------------------------------------------------------------------*/
FoamFile
{
    format      ascii;
    class       volScalarField;
    location    "0.065";
    object      k;
}
// * * * * * * * * * * * * * * * * * * * * * * * * * * * * * * * * * * * * * //

dimensions      [0 2 -2 0 0 0 0];

internalField   nonuniform List<scalar> 
6820
(
0.196709
0.190616
0.184994
0.179724
0.174797
0.170249
0.166114
0.162407
0.159125
0.156249
0.153754
0.151606
0.149774
0.148227
0.146933
0.145867
0.145002
0.144317
0.14379
0.143403
0.143141
0.142989
0.142934
0.142965
0.143072
0.143247
0.143479
0.143784
0.144042
0.144793
0.143484
0.152107
0.114184
0.201954
0.200832
0.197543
0.193922
0.190841
0.188586
0.18716
0.186439
0.186276
0.186538
0.18712
0.18794
0.18894
0.190074
0.19131
0.192621
0.193987
0.195395
0.196831
0.198286
0.199754
0.201229
0.202709
0.204193
0.205682
0.207179
0.208696
0.210243
0.211851
0.213606
0.21537
0.218499
0.219463
0.200488
0.200474
0.199117
0.197069
0.194841
0.19269
0.190725
0.188986
0.18749
0.186235
0.18521
0.184401
0.183789
0.183353
0.183074
0.182934
0.182917
0.183008
0.183193
0.18346
0.183799
0.184202
0.18466
0.185169
0.185722
0.186317
0.186953
0.187632
0.188352
0.189145
0.18996
0.190945
0.191784
0.199662
0.199121
0.198219
0.196983
0.195545
0.194012
0.192458
0.19093
0.189462
0.188073
0.186775
0.185577
0.184479
0.183483
0.182586
0.181783
0.18107
0.180442
0.179894
0.179419
0.179012
0.17867
0.178386
0.178158
0.177982
0.177855
0.177775
0.177743
0.177759
0.177831
0.177953
0.178151
0.1784
0.199429
0.198466
0.197531
0.196512
0.195399
0.194214
0.192986
0.191739
0.190494
0.189266
0.188067
0.186906
0.185791
0.184725
0.18371
0.18275
0.181843
0.18099
0.18019
0.17944
0.178741
0.178088
0.177482
0.176919
0.176399
0.17592
0.175481
0.175083
0.174724
0.174408
0.174134
0.173909
0.173727
0.199398
0.198268
0.197202
0.196166
0.195133
0.194088
0.193028
0.191958
0.190883
0.189811
0.188748
0.187701
0.186675
0.185673
0.1847
0.183756
0.182844
0.181965
0.181119
0.180307
0.179529
0.178785
0.178073
0.177393
0.176746
0.17613
0.175544
0.17499
0.174468
0.173977
0.173519
0.173097
0.172709
0.199395
0.19822
0.197098
0.196021
0.194978
0.193957
0.192952
0.191958
0.190972
0.189996
0.18903
0.188077
0.187137
0.186215
0.18531
0.184425
0.183561
0.182719
0.1819
0.181104
0.180332
0.179584
0.17886
0.178161
0.177484
0.176832
0.176204
0.175599
0.175019
0.174463
0.173934
0.17343
0.172954
0.199395
0.198211
0.197069
0.195969
0.194908
0.193881
0.192884
0.191911
0.19096
0.190028
0.189113
0.188216
0.187334
0.186469
0.185621
0.18479
0.183976
0.18318
0.182403
0.181644
0.180904
0.180182
0.17948
0.178796
0.178132
0.177486
0.176859
0.176252
0.175664
0.175096
0.174548
0.174022
0.173518
0.199395
0.198209
0.197063
0.195955
0.194884
0.193849
0.192848
0.191877
0.190933
0.190016
0.189122
0.188249
0.187398
0.186565
0.185752
0.184957
0.18418
0.18342
0.182678
0.181952
0.181244
0.180553
0.179878
0.17922
0.178578
0.177953
0.177344
0.176752
0.176176
0.175617
0.175076
0.174553
0.174048
0.199395
0.198209
0.197061
0.195951
0.194877
0.193838
0.192832
0.191859
0.190915
0.19
0.189112
0.188248
0.187409
0.186591
0.185795
0.185019
0.184263
0.183525
0.182806
0.182104
0.181419
0.180751
0.180099
0.179463
0.178843
0.178238
0.177648
0.177074
0.176516
0.175972
0.175445
0.174934
0.17444
0.199395
0.198209
0.197061
0.19595
0.194875
0.193834
0.192827
0.191851
0.190907
0.189991
0.189103
0.188241
0.187405
0.186593
0.185803
0.185036
0.184289
0.183563
0.182856
0.182167
0.181496
0.180842
0.180205
0.179584
0.17898
0.17839
0.177816
0.177257
0.176713
0.176184
0.17567
0.175172
0.17469
0.199395
0.198209
0.19706
0.195949
0.194874
0.193833
0.192825
0.191848
0.190903
0.189986
0.189097
0.188236
0.1874
0.186589
0.185802
0.185037
0.184294
0.183572
0.182871
0.182188
0.181524
0.180878
0.180249
0.179637
0.179041
0.178462
0.177897
0.177348
0.176814
0.176295
0.175791
0.175303
0.17483
0.199395
0.198209
0.19706
0.195949
0.194873
0.193832
0.192823
0.191847
0.190901
0.189983
0.189095
0.188233
0.187397
0.186586
0.185799
0.185035
0.184293
0.183573
0.182873
0.182193
0.181532
0.180889
0.180264
0.179656
0.179065
0.178491
0.177932
0.177388
0.17686
0.176347
0.17585
0.175367
0.1749
0.199395
0.198209
0.19706
0.195949
0.194873
0.193831
0.192823
0.191846
0.190899
0.189982
0.189093
0.188231
0.187394
0.186583
0.185796
0.185032
0.184291
0.183571
0.182871
0.182192
0.181532
0.180891
0.180267
0.179662
0.179073
0.1785
0.177944
0.177404
0.176879
0.176369
0.175875
0.175395
0.174932
0.199395
0.198208
0.19706
0.195948
0.194872
0.193831
0.192822
0.191845
0.190898
0.189981
0.189091
0.188229
0.187393
0.186581
0.185794
0.18503
0.184289
0.183569
0.182869
0.18219
0.181531
0.18089
0.180267
0.179662
0.179074
0.178503
0.177948
0.177409
0.176885
0.176377
0.175884
0.175406
0.174944
0.199395
0.198208
0.19706
0.195948
0.194872
0.19383
0.192822
0.191844
0.190898
0.18998
0.18909
0.188228
0.187391
0.18658
0.185793
0.185029
0.184287
0.183567
0.182868
0.182189
0.181529
0.180888
0.180266
0.179661
0.179074
0.178503
0.177948
0.17741
0.176887
0.176379
0.175887
0.17541
0.174947
0.199395
0.198208
0.19706
0.195948
0.194872
0.19383
0.192821
0.191844
0.190897
0.189979
0.189089
0.188227
0.18739
0.186579
0.185791
0.185027
0.184286
0.183565
0.182866
0.182187
0.181528
0.180887
0.180265
0.17966
0.179073
0.178502
0.177948
0.17741
0.176887
0.17638
0.175887
0.17541
0.174948
0.199395
0.198208
0.19706
0.195948
0.194872
0.19383
0.192821
0.191843
0.190896
0.189978
0.189089
0.188226
0.187389
0.186578
0.18579
0.185026
0.184284
0.183564
0.182865
0.182186
0.181527
0.180886
0.180264
0.179659
0.179072
0.178501
0.177947
0.177409
0.176887
0.176379
0.175887
0.17541
0.174947
0.199395
0.198208
0.19706
0.195948
0.194871
0.193829
0.19282
0.191843
0.190896
0.189978
0.189088
0.188225
0.187388
0.186577
0.185789
0.185025
0.184283
0.183563
0.182864
0.182185
0.181525
0.180885
0.180263
0.179658
0.179071
0.178501
0.177947
0.177408
0.176886
0.176378
0.175886
0.175408
0.174945
0.199395
0.198208
0.197059
0.195948
0.194871
0.193829
0.19282
0.191842
0.190895
0.189977
0.189087
0.188225
0.187388
0.186576
0.185788
0.185024
0.184282
0.183562
0.182863
0.182184
0.181524
0.180884
0.180262
0.179657
0.17907
0.1785
0.177946
0.177407
0.176885
0.176377
0.175885
0.175407
0.174943
0.199395
0.198208
0.197059
0.195947
0.194871
0.193829
0.19282
0.191842
0.190895
0.189977
0.189087
0.188224
0.187387
0.186575
0.185788
0.185023
0.184281
0.183561
0.182862
0.182183
0.181523
0.180883
0.180261
0.179656
0.179069
0.178499
0.177945
0.177406
0.176883
0.176376
0.175883
0.175404
0.17494
0.199395
0.198208
0.197059
0.195947
0.194871
0.193829
0.19282
0.191842
0.190895
0.189976
0.189086
0.188223
0.187386
0.186575
0.185787
0.185023
0.184281
0.18356
0.182861
0.182182
0.181523
0.180882
0.18026
0.179655
0.179068
0.178498
0.177943
0.177405
0.176882
0.176374
0.175881
0.175402
0.174937
0.199395
0.198208
0.197059
0.195947
0.194871
0.193829
0.192819
0.191842
0.190894
0.189976
0.189086
0.188223
0.187386
0.186574
0.185786
0.185022
0.18428
0.18356
0.18286
0.182181
0.181522
0.180881
0.180259
0.179654
0.179067
0.178496
0.177942
0.177403
0.17688
0.176372
0.175878
0.175398
0.174933
0.199395
0.198208
0.197059
0.195947
0.194871
0.193829
0.192819
0.191841
0.190894
0.189976
0.189086
0.188223
0.187386
0.186574
0.185786
0.185021
0.184279
0.183559
0.182859
0.18218
0.181521
0.18088
0.180258
0.179653
0.179066
0.178495
0.17794
0.177401
0.176878
0.176369
0.175875
0.175395
0.174929
0.199395
0.198208
0.197059
0.195947
0.194871
0.193829
0.192819
0.191841
0.190894
0.189976
0.189085
0.188222
0.187385
0.186573
0.185785
0.185021
0.184279
0.183558
0.182859
0.182179
0.18152
0.180879
0.180256
0.179652
0.179064
0.178493
0.177938
0.177399
0.176875
0.176366
0.175871
0.175391
0.174924
0.199395
0.198208
0.197059
0.195947
0.194871
0.193828
0.192819
0.191841
0.190894
0.189975
0.189085
0.188222
0.187385
0.186573
0.185785
0.18502
0.184278
0.183558
0.182858
0.182179
0.181519
0.180878
0.180255
0.17965
0.179063
0.178491
0.177936
0.177397
0.176873
0.176363
0.175868
0.175387
0.174919
0.199395
0.198208
0.197059
0.195947
0.194871
0.193828
0.192819
0.191841
0.190894
0.189975
0.189085
0.188222
0.187384
0.186572
0.185784
0.18502
0.184277
0.183557
0.182857
0.182178
0.181518
0.180877
0.180254
0.179649
0.179061
0.178489
0.177934
0.177394
0.17687
0.17636
0.175864
0.175382
0.174914
0.199395
0.198208
0.197059
0.195947
0.194871
0.193828
0.192819
0.191841
0.190894
0.189975
0.189085
0.188222
0.187384
0.186572
0.185784
0.185019
0.184277
0.183557
0.182857
0.182177
0.181517
0.180876
0.180253
0.179648
0.179059
0.178488
0.177932
0.177392
0.176867
0.176356
0.17586
0.175378
0.174909
0.199395
0.198208
0.197059
0.195947
0.194871
0.193828
0.192819
0.191841
0.190893
0.189975
0.189085
0.188221
0.187384
0.186572
0.185784
0.185019
0.184277
0.183556
0.182856
0.182176
0.181516
0.180875
0.180252
0.179646
0.179058
0.178486
0.17793
0.177389
0.176864
0.176353
0.175856
0.175373
0.174903
0.199395
0.198208
0.197059
0.195947
0.194871
0.193829
0.192819
0.191841
0.190894
0.189975
0.189085
0.188222
0.187385
0.186572
0.185784
0.185019
0.184277
0.183556
0.182856
0.182176
0.181516
0.180875
0.180251
0.179646
0.179057
0.178484
0.177928
0.177387
0.176861
0.17635
0.175853
0.175369
0.174899
0.199395
0.198208
0.197059
0.195947
0.194871
0.193829
0.192819
0.191841
0.190893
0.189975
0.189085
0.188221
0.187384
0.186572
0.185784
0.185019
0.184277
0.183556
0.182856
0.182176
0.181516
0.180874
0.18025
0.179645
0.179056
0.178483
0.177926
0.177385
0.176859
0.176347
0.175849
0.175365
0.174894
0.199395
0.198208
0.197059
0.195948
0.194871
0.19383
0.19282
0.191843
0.190896
0.189977
0.189087
0.188224
0.187387
0.186575
0.185787
0.185022
0.184279
0.183558
0.182858
0.182178
0.181518
0.180876
0.180252
0.179646
0.179056
0.178484
0.177927
0.177385
0.176858
0.176346
0.175847
0.175362
0.174891
0.199395
0.198209
0.19706
0.195949
0.194872
0.19383
0.192821
0.191843
0.190896
0.189978
0.189088
0.188225
0.187388
0.186576
0.185788
0.185023
0.18428
0.18356
0.182859
0.182179
0.181519
0.180877
0.180253
0.179646
0.179057
0.178483
0.177926
0.177383
0.176856
0.176342
0.175843
0.175357
0.174884
0.199395
0.198208
0.197061
0.19595
0.194876
0.193835
0.192828
0.191851
0.190905
0.189987
0.189098
0.188235
0.187398
0.186586
0.185797
0.185032
0.184289
0.183568
0.182867
0.182186
0.181524
0.180881
0.180256
0.179648
0.179056
0.178481
0.177921
0.177377
0.176847
0.176331
0.175828
0.17534
0.174864
0.199395
0.198212
0.197066
0.195957
0.194882
0.193842
0.192834
0.191857
0.190911
0.189994
0.189104
0.188241
0.187404
0.186591
0.185802
0.185036
0.184291
0.183567
0.182864
0.182179
0.181514
0.180867
0.180237
0.179623
0.179027
0.178445
0.177879
0.177328
0.176791
0.176268
0.175758
0.175261
0.174776
0.199396
0.198213
0.197071
0.195969
0.194902
0.193869
0.192866
0.191893
0.190948
0.19003
0.189137
0.18827
0.187427
0.186607
0.185809
0.185033
0.184277
0.183542
0.182825
0.182127
0.181447
0.180784
0.180138
0.179509
0.178895
0.178296
0.177711
0.177142
0.176585
0.176043
0.175513
0.174996
0.174492
0.199402
0.19824
0.197114
0.196018
0.194952
0.193916
0.192908
0.191927
0.190972
0.19004
0.189132
0.188245
0.18738
0.186536
0.185712
0.184908
0.184123
0.183357
0.182609
0.181879
0.181166
0.18047
0.17979
0.179125
0.178476
0.177842
0.177223
0.176617
0.176026
0.175447
0.174882
0.174329
0.173788
0.199421
0.198284
0.197214
0.196182
0.195158
0.194136
0.193119
0.192111
0.191118
0.190142
0.189188
0.188257
0.187348
0.186463
0.1856
0.18476
0.183941
0.183143
0.182366
0.181607
0.180868
0.180146
0.179441
0.178754
0.178082
0.177426
0.176786
0.17616
0.175549
0.174951
0.174367
0.173797
0.17324
0.199655
0.198884
0.198077
0.197302
0.196603
0.195975
0.195404
0.19488
0.194397
0.193951
0.193541
0.193167
0.192827
0.192521
0.192248
0.192006
0.191794
0.191612
0.191457
0.19133
0.191227
0.19115
0.191096
0.191064
0.191055
0.191067
0.191099
0.191152
0.191224
0.191316
0.191427
0.191557
0.191704
0.205419
0.216602
0.227661
0.238502
0.249093
0.259416
0.269459
0.279213
0.288668
0.29782
0.306662
0.315194
0.323413
0.331323
0.338923
0.34622
0.353216
0.359918
0.366332
0.372466
0.378326
0.383921
0.389258
0.394347
0.399195
0.403811
0.408203
0.41238
0.41635
0.420122
0.423702
0.427099
0.430324
0.324326
0.651158
1.01703
1.38714
1.71737
1.96877
2.12353
2.19251
2.20491
2.19026
2.16793
2.14682
2.12977
2.11751
2.11044
2.10882
2.11255
2.1211
2.13286
2.14571
2.15703
2.16364
2.16189
2.14766
2.11646
2.06351
1.98394
1.87309
1.72707
1.54383
1.32499
1.07879
0.823505
0.588557
0.40727
0.298934
0.254605
0.247817
0.257142
0.272039
0.287955
0.302759
0.315376
0.325324
0.332529
0.33719
0.339657
0.340342
0.339646
0.337933
0.335507
0.332618
0.329465
0.326205
0.322963
0.319836
0.316902
0.314222
0.31184
0.30979
0.308092
0.306757
0.30578
0.305145
0.304817
0.304741
0.304837
0.304999
0.305094
0.304965
0.304443
0.30335
0.301509
0.298743
0.294877
0.289735
0.283153
0.274989
0.265156
0.253662
0.240642
0.22639
0.211357
0.196121
0.181325
0.167589
0.155419
0.145128
0.136811
0.130358
0.125515
0.121962
0.119381
0.117504
0.116131
0.115119
0.114374
0.113826
0.113445
0.113066
0.232252
0.263814
0.318952
0.406566
0.536458
0.712707
0.927016
1.1573
1.3751
1.55674
1.69094
1.77958
1.83279
1.86266
1.87911
1.88855
1.89441
1.89773
1.8986
1.89618
1.88885
1.87424
1.84929
1.8104
1.75364
1.67499
1.57084
1.43855
1.27753
1.0908
0.887011
0.682207
0.499109
0.360634
0.277888
0.242702
0.23619
0.243088
0.25546
0.269605
0.283592
0.296273
0.306971
0.315372
0.321444
0.325355
0.327391
0.327884
0.327167
0.325539
0.32326
0.320544
0.317562
0.314455
0.311334
0.308289
0.30539
0.302696
0.300252
0.298093
0.296247
0.29473
0.293551
0.292707
0.292182
0.291939
0.291919
0.292036
0.292171
0.292183
0.291908
0.291171
0.289791
0.287589
0.284382
0.279991
0.27424
0.266979
0.258106
0.247607
0.235591
0.222319
0.208209
0.193805
0.179723
0.166567
0.154836
0.144856
0.13674
0.130403
0.125619
0.122089
0.119514
0.117635
0.116257
0.115239
0.114488
0.113933
0.113545
0.113155
0.192837
0.195623
0.201554
0.212734
0.232249
0.264323
0.315223
0.392516
0.500895
0.637742
0.792559
0.950307
1.0963
1.22016
1.31739
1.38851
1.43677
1.46506
1.4776
1.47735
1.4654
1.44131
1.40361
1.35033
1.27938
1.18904
1.07866
0.949516
0.805888
0.656105
0.512736
0.390721
0.302404
0.25113
0.229506
0.225891
0.231519
0.241655
0.2538
0.26643
0.278497
0.289277
0.298317
0.305405
0.310531
0.313829
0.315528
0.315894
0.315196
0.313681
0.311568
0.309039
0.306243
0.303305
0.300324
0.29738
0.29454
0.291858
0.289379
0.287139
0.285167
0.283486
0.282114
0.28106
0.280322
0.279883
0.279703
0.279717
0.279828
0.279909
0.279807
0.279353
0.278369
0.27667
0.274072
0.270389
0.26544
0.259063
0.251141
0.241637
0.230631
0.218349
0.205169
0.191603
0.178235
0.165652
0.15435
0.144665
0.136732
0.130495
0.125755
0.122237
0.119659
0.117772
0.116384
0.115357
0.114597
0.114032
0.113636
0.113231
0.178755
0.179394
0.180382
0.181968
0.184679
0.189413
0.197523
0.210406
0.229862
0.258925
0.301252
0.358977
0.430902
0.51249
0.59727
0.678484
0.750644
0.81021
0.853749
0.87955
0.887403
0.877888
0.8518
0.809941
0.753293
0.683454
0.603208
0.517047
0.431352
0.35382
0.291741
0.249343
0.225887
0.216716
0.216579
0.221805
0.230232
0.240474
0.251501
0.262491
0.272787
0.281905
0.289532
0.29552
0.299863
0.302667
0.304108
0.304396
0.303747
0.302365
0.300429
0.298096
0.295496
0.292737
0.289909
0.287085
0.284325
0.281681
0.279195
0.276902
0.274832
0.273013
0.271468
0.270213
0.26926
0.268609
0.268239
0.268107
0.268136
0.268219
0.268219
0.267976
0.267315
0.266053
0.264005
0.260979
0.25679
0.251266
0.244273
0.235752
0.225752
0.21446
0.202215
0.189487
0.176833
0.164819
0.153937
0.144536
0.136772
0.130622
0.125914
0.1224
0.119812
0.117911
0.116511
0.115472
0.1147
0.114125
0.113719
0.113299
0.173564
0.173478
0.173554
0.173838
0.174402
0.175408
0.177134
0.17983
0.183754
0.189317
0.19699
0.207395
0.221351
0.239509
0.261841
0.287342
0.31408
0.340876
0.365535
0.385539
0.398609
0.403124
0.398351
0.384519
0.362811
0.335307
0.30486
0.274806
0.248409
0.228089
0.214788
0.207967
0.206305
0.208498
0.213557
0.220714
0.229309
0.238731
0.248413
0.257839
0.266572
0.274275
0.280722
0.285802
0.28951
0.291922
0.29317
0.293419
0.292841
0.291599
0.289846
0.287712
0.285311
0.282737
0.280072
0.27738
0.274719
0.272135
0.269667
0.26735
0.265214
0.263286
0.261593
0.260159
0.259002
0.258137
0.25756
0.257249
0.257151
0.257179
0.257214
0.25711
0.2567
0.255805
0.25424
0.251812
0.248332
0.243617
0.237521
0.22996
0.220949
0.210639
0.199323
0.187433
0.175491
0.164041
0.153574
0.144448
0.136846
0.130773
0.12609
0.122572
0.119969
0.118051
0.116635
0.115583
0.114798
0.11421
0.113794
0.113357
0.172303
0.171905
0.17159
0.171375
0.171281
0.171346
0.171642
0.172282
0.173403
0.175105
0.177362
0.180117
0.183413
0.187369
0.192101
0.197635
0.203872
0.210034
0.215736
0.22057
0.224069
0.225805
0.225507
0.223173
0.219117
0.213948
0.208465
0.203493
0.199712
0.197551
0.197195
0.198658
0.201856
0.206627
0.212749
0.219939
0.227875
0.2362
0.244551
0.252579
0.259978
0.266502
0.271981
0.276326
0.279526
0.281632
0.282743
0.282983
0.282488
0.281393
0.27982
0.277884
0.27568
0.273293
0.270795
0.268245
0.265695
0.263188
0.260762
0.258448
0.256275
0.25427
0.252461
0.250874
0.249534
0.248465
0.24768
0.247173
0.246914
0.246839
0.246851
0.246819
0.246589
0.24599
0.244837
0.242941
0.240107
0.236149
0.230905
0.224267
0.216221
0.206873
0.196477
0.185417
0.174182
0.163295
0.153239
0.144385
0.136939
0.130938
0.126275
0.122748
0.120126
0.118189
0.116755
0.115687
0.11489
0.114289
0.113862
0.113408
0.172435
0.171884
0.171385
0.170953
0.170602
0.170345
0.170193
0.170175
0.170346
0.17078
0.17153
0.172594
0.173924
0.175455
0.177142
0.178981
0.180933
0.18281
0.184512
0.185967
0.18711
0.187897
0.188319
0.188417
0.188294
0.188109
0.188061
0.188362
0.189214
0.19079
0.193215
0.196565
0.200856
0.206043
0.212021
0.218629
0.225659
0.232875
0.240022
0.246852
0.253141
0.258701
0.263398
0.267156
0.269955
0.271828
0.272845
0.273099
0.272697
0.271746
0.270351
0.268605
0.266594
0.264391
0.26206
0.259656
0.257227
0.254812
0.252445
0.250157
0.247974
0.245924
0.24403
0.242322
0.240828
0.239577
0.238592
0.237885
0.237447
0.237236
0.237176
0.237158
0.237041
0.236665
0.235852
0.234415
0.232161
0.228896
0.224448
0.218688
0.211567
0.203156
0.193659
0.183418
0.172884
0.162557
0.152911
0.144328
0.137037
0.131107
0.12646
0.122922
0.120279
0.118321
0.116868
0.115785
0.114974
0.114361
0.113922
0.113452
0.172959
0.17235
0.171773
0.171243
0.17077
0.170366
0.17004
0.169801
0.169662
0.169648
0.169792
0.17012
0.17064
0.171333
0.172162
0.173092
0.174078
0.175066
0.176021
0.176923
0.177766
0.178556
0.179317
0.180089
0.180932
0.181921
0.183146
0.184704
0.186689
0.189189
0.19227
0.195974
0.200307
0.205236
0.210685
0.216542
0.22266
0.228868
0.234982
0.240817
0.2462
0.250983
0.255054
0.258346
0.260833
0.26253
0.263486
0.263769
0.263464
0.262655
0.261429
0.259867
0.25804
0.256015
0.25385
0.251593
0.249289
0.246975
0.244682
0.242439
0.240271
0.238202
0.236256
0.234459
0.232842
0.231436
0.230273
0.229376
0.228753
0.228384
0.228217
0.228163
0.2281
0.22788
0.227335
0.226283
0.224534
0.221893
0.218176
0.213236
0.206995
0.199482
0.190858
0.18142
0.171578
0.161807
0.152572
0.144261
0.137128
0.131269
0.126639
0.12309
0.120425
0.118443
0.116971
0.115873
0.115048
0.114423
0.113974
0.113488
0.173485
0.172863
0.172263
0.171697
0.171174
0.170707
0.170304
0.169973
0.169722
0.169558
0.169493
0.16954
0.169711
0.170013
0.17044
0.170981
0.171613
0.172313
0.173062
0.173851
0.174678
0.175553
0.176496
0.177538
0.17872
0.180091
0.181704
0.183619
0.185889
0.188564
0.191681
0.195259
0.199295
0.203759
0.208593
0.213712
0.219009
0.224356
0.229612
0.234634
0.239286
0.243446
0.247019
0.249942
0.252184
0.25375
0.254668
0.254992
0.254782
0.254109
0.253044
0.251654
0.250003
0.248149
0.246144
0.244033
0.241856
0.239649
0.23744
0.235257
0.233123
0.231059
0.229088
0.227235
0.225528
0.223999
0.222684
0.221615
0.220815
0.220282
0.219985
0.219859
0.219799
0.219674
0.219328
0.218588
0.217268
0.215174
0.212115
0.20793
0.202512
0.195853
0.188068
0.17941
0.170248
0.161028
0.152205
0.144171
0.137199
0.131416
0.126805
0.123245
0.120558
0.118554
0.117063
0.115948
0.115111
0.114475
0.114016
0.113515
0.173886
0.17327
0.172671
0.172097
0.171558
0.171063
0.170622
0.170245
0.169937
0.169707
0.16956
0.169501
0.169537
0.169674
0.169914
0.17026
0.170708
0.171252
0.171885
0.172605
0.173411
0.174311
0.175317
0.176452
0.177742
0.179221
0.180924
0.182889
0.185151
0.18774
0.190677
0.193971
0.197615
0.201585
0.205834
0.2103
0.214897
0.219529
0.224085
0.228451
0.232515
0.236176
0.23935
0.241978
0.244027
0.245492
0.24639
0.246757
0.246639
0.246094
0.245178
0.24395
0.242464
0.240772
0.238921
0.236952
0.234902
0.232804
0.230687
0.228574
0.226489
0.22445
0.222479
0.220597
0.218831
0.217211
0.215776
0.214561
0.2136
0.212907
0.212472
0.212248
0.212153
0.212072
0.211863
0.211363
0.210396
0.208771
0.206294
0.20279
0.19813
0.192271
0.185285
0.177379
0.168881
0.160207
0.151796
0.144044
0.137241
0.131539
0.126952
0.123384
0.120676
0.11865
0.11714
0.11601
0.115161
0.114514
0.114047
0.113533
0.174148
0.173544
0.172953
0.172382
0.171839
0.171332
0.170872
0.170466
0.170122
0.169848
0.16965
0.169531
0.169496
0.169549
0.169694
0.169934
0.170271
0.170709
0.171248
0.171891
0.172641
0.173503
0.174489
0.175612
0.17689
0.178347
0.180005
0.181891
0.184027
0.186432
0.189121
0.192095
0.19535
0.198863
0.202599
0.206509
0.210525
0.214571
0.218558
0.222392
0.225981
0.229237
0.232087
0.234476
0.23637
0.237756
0.238642
0.239051
0.23902
0.238592
0.237814
0.236735
0.235403
0.233863
0.232158
0.230326
0.228401
0.226414
0.224391
0.222357
0.220331
0.218332
0.21638
0.214493
0.212696
0.211017
0.209492
0.208161
0.207062
0.206224
0.205651
0.205318
0.205161
0.205083
0.204957
0.204634
0.203947
0.202712
0.200736
0.197836
0.193865
0.188745
0.182511
0.175323
0.16747
0.159333
0.151336
0.143872
0.137246
0.131633
0.127075
0.123503
0.120777
0.118729
0.1172
0.116056
0.115196
0.11454
0.114066
0.11354
0.174298
0.173704
0.173121
0.172555
0.172011
0.171499
0.171025
0.170598
0.170225
0.169914
0.169672
0.169503
0.169411
0.169401
0.169476
0.169639
0.169894
0.170246
0.170698
0.171257
0.171926
0.172712
0.173625
0.174675
0.175875
0.177241
0.178789
0.180537
0.1825
0.184692
0.18712
0.189787
0.192684
0.195796
0.199094
0.202536
0.206071
0.209635
0.213155
0.216554
0.219753
0.222676
0.225259
0.227449
0.229213
0.230533
0.23141
0.231859
0.231905
0.231582
0.230929
0.229987
0.228798
0.227401
0.225834
0.224132
0.222328
0.22045
0.218524
0.216572
0.214613
0.212666
0.210747
0.208874
0.207069
0.205358
0.203773
0.202355
0.201146
0.200183
0.199484
0.19904
0.198806
0.198701
0.198616
0.198414
0.19794
0.197019
0.195465
0.19309
0.189731
0.185287
0.179751
0.173244
0.16601
0.158401
0.150816
0.143646
0.137205
0.13169
0.12717
0.123599
0.120857
0.118789
0.117243
0.116086
0.115215
0.11455
0.11407
0.113535
0.174375
0.173788
0.17321
0.172646
0.172101
0.171582
0.171096
0.170651
0.170252
0.169907
0.169623
0.169405
0.169259
0.169188
0.169197
0.169289
0.169468
0.169738
0.170106
0.170574
0.171151
0.171842
0.172656
0.173602
0.174689
0.17593
0.177338
0.178923
0.180699
0.182673
0.184851
0.187232
0.189812
0.192575
0.195497
0.198546
0.201678
0.20484
0.207971
0.211007
0.213879
0.216521
0.218877
0.220897
0.222548
0.22381
0.224678
0.22516
0.225273
0.225044
0.224503
0.223685
0.222626
0.221361
0.219923
0.218346
0.216658
0.214887
0.213056
0.211188
0.209302
0.207413
0.205539
0.203696
0.201902
0.20018
0.198561
0.197083
0.195791
0.194727
0.193919
0.193371
0.193055
0.192907
0.19283
0.192704
0.192384
0.191709
0.1905
0.18857
0.185748
0.181909
0.177014
0.171144
0.164504
0.157407
0.150233
0.143362
0.137115
0.131709
0.127234
0.123669
0.120916
0.11883
0.117268
0.116097
0.115217
0.114545
0.114059
0.113517
0.17441
0.173825
0.173249
0.172685
0.172137
0.171611
0.171113
0.170649
0.170225
0.169849
0.169526
0.169261
0.169061
0.168931
0.168873
0.168894
0.168996
0.169185
0.169465
0.169842
0.170321
0.170909
0.171614
0.172442
0.173403
0.174506
0.175762
0.177179
0.178766
0.180529
0.182473
0.184595
0.186892
0.189349
0.191947
0.194658
0.197446
0.200266
0.203067
0.205793
0.208384
0.210785
0.212942
0.214812
0.216361
0.217568
0.218424
0.218932
0.219101
0.218953
0.218512
0.217806
0.216865
0.215721
0.214404
0.212943
0.211366
0.209698
0.207962
0.206179
0.204367
0.202542
0.200721
0.198917
0.197147
0.195433
0.193801
0.192289
0.190939
0.189797
0.188899
0.188261
0.187867
0.187667
0.187578
0.187492
0.187278
0.186788
0.185853
0.184293
0.18193
0.178626
0.174313
0.169034
0.162954
0.156354
0.149585
0.143017
0.136973
0.131685
0.127265
0.123714
0.120953
0.118852
0.117274
0.116091
0.115202
0.114524
0.114034
0.113485
0.174423
0.17384
0.173263
0.172697
0.172144
0.17161
0.171099
0.170618
0.170171
0.169764
0.169404
0.169096
0.168845
0.168657
0.168536
0.168486
0.168513
0.16862
0.168813
0.169097
0.169477
0.16996
0.170552
0.17126
0.172092
0.173056
0.17416
0.175411
0.176817
0.178381
0.180107
0.181994
0.184036
0.186223
0.188536
0.190953
0.193442
0.195965
0.198478
0.200933
0.203279
0.205465
0.207445
0.209179
0.210633
0.211786
0.212626
0.213151
0.213367
0.213288
0.212933
0.212326
0.211493
0.210459
0.209253
0.207901
0.206429
0.204859
0.203215
0.201516
0.199779
0.198021
0.196257
0.1945
0.192765
0.191072
0.189444
0.187917
0.186531
0.185334
0.184367
0.183654
0.183191
0.182939
0.182827
0.182757
0.182612
0.182255
0.181532
0.18027
0.178294
0.175454
0.171661
0.166923
0.16137
0.155245
0.148874
0.142611
0.136779
0.131619
0.127262
0.123733
0.120968
0.118855
0.117263
0.116068
0.115171
0.114487
0.113993
0.113441
0.174427
0.173843
0.173265
0.172695
0.172137
0.171595
0.171072
0.170574
0.170106
0.169672
0.169278
0.16893
0.168632
0.16839
0.168209
0.168093
0.168046
0.168075
0.168183
0.168377
0.16866
0.16904
0.169521
0.170111
0.170817
0.171645
0.172602
0.173695
0.174929
0.176308
0.177834
0.179505
0.181318
0.183261
0.185321
0.187476
0.189701
0.191961
0.194219
0.196434
0.19856
0.200553
0.202371
0.203977
0.205341
0.206439
0.207258
0.207792
0.208044
0.208023
0.207744
0.207224
0.206486
0.205554
0.20445
0.203199
0.201824
0.200349
0.198792
0.197175
0.195513
0.193823
0.192118
0.190412
0.18872
0.187057
0.185447
0.18392
0.182516
0.181284
0.180267
0.179496
0.178975
0.178676
0.178537
0.178469
0.178365
0.178101
0.177536
0.17651
0.174852
0.172409
0.169073
0.164826
0.159762
0.154089
0.148106
0.142147
0.136533
0.13151
0.127227
0.123726
0.120964
0.118841
0.117236
0.11603
0.115125
0.114435
0.113938
0.113383
0.174427
0.173842
0.173261
0.172688
0.172125
0.171574
0.171041
0.170528
0.17004
0.169581
0.169158
0.168774
0.168434
0.168143
0.167907
0.16773
0.167616
0.167571
0.167599
0.167707
0.167898
0.168178
0.168554
0.169032
0.169616
0.170315
0.171133
0.172076
0.17315
0.174356
0.175698
0.177172
0.178776
0.180499
0.18233
0.184251
0.186237
0.188261
0.19029
0.192287
0.194214
0.19603
0.197698
0.199185
0.20046
0.201502
0.202295
0.202832
0.20311
0.203137
0.202921
0.202478
0.201825
0.200983
0.199972
0.198814
0.197532
0.196144
0.194672
0.193133
0.191545
0.189922
0.188278
0.186626
0.18498
0.183354
0.18177
0.180255
0.178848
0.177596
0.176545
0.175731
0.175166
0.174829
0.174664
0.174592
0.174512
0.17431
0.17386
0.173015
0.171614
0.169503
0.166564
0.162756
0.158142
0.152896
0.147287
0.14163
0.136238
0.13136
0.127159
0.123695
0.12094
0.118811
0.117195
0.115979
0.115066
0.114371
0.113871
0.113314
0.174425
0.173838
0.173256
0.172679
0.172111
0.171553
0.171009
0.170483
0.169978
0.169498
0.169048
0.168632
0.168255
0.167921
0.167636
0.167403
0.167229
0.167116
0.167071
0.167099
0.167204
0.167392
0.167669
0.16804
0.168512
0.169088
0.169776
0.17058
0.171504
0.172551
0.173722
0.175016
0.176428
0.177951
0.179574
0.181281
0.183051
0.184861
0.186681
0.18848
0.190223
0.191875
0.193403
0.194776
0.195965
0.196949
0.197712
0.198244
0.198541
0.198605
0.198443
0.198066
0.197488
0.196727
0.195801
0.194729
0.193531
0.192226
0.190834
0.18937
0.187853
0.186295
0.184712
0.183115
0.181517
0.179933
0.17838
0.176886
0.175487
0.174227
0.173156
0.172313
0.171715
0.171349
0.171164
0.171086
0.17102
0.17086
0.170492
0.169783
0.168585
0.166748
0.16415
0.16073
0.156524
0.151677
0.146426
0.141067
0.135898
0.131173
0.127062
0.123641
0.120899
0.118767
0.117142
0.115917
0.114996
0.114297
0.113794
0.113235
0.174422
0.173834
0.17325
0.172669
0.172096
0.171532
0.170979
0.170441
0.169921
0.169423
0.16895
0.168506
0.168097
0.167725
0.167396
0.167115
0.166885
0.166712
0.1666
0.166555
0.166582
0.166685
0.166871
0.167143
0.167509
0.167973
0.16854
0.169215
0.17
0.1709
0.171913
0.17304
0.174277
0.175616
0.177049
0.17856
0.180134
0.181747
0.183376
0.184992
0.186566
0.188066
0.189462
0.190725
0.19183
0.192756
0.193485
0.194006
0.194313
0.194406
0.194288
0.193968
0.193456
0.192767
0.191917
0.190923
0.189803
0.188576
0.187258
0.185866
0.184416
0.182922
0.181398
0.179856
0.178308
0.176767
0.175251
0.173783
0.172399
0.171141
0.17006
0.169198
0.168578
0.168191
0.167994
0.167912
0.167856
0.167725
0.167415
0.166807
0.165767
0.164153
0.161842
0.158762
0.154924
0.150445
0.145535
0.140464
0.135519
0.130951
0.126937
0.123566
0.120844
0.118712
0.11708
0.115846
0.114919
0.114215
0.113709
0.113148
0.174419
0.17383
0.173243
0.17266
0.172082
0.171512
0.170951
0.170403
0.16987
0.169355
0.168862
0.168395
0.167957
0.167552
0.167185
0.16686
0.166582
0.166354
0.166183
0.166073
0.166028
0.166054
0.166155
0.166338
0.166607
0.166967
0.167422
0.167977
0.168635
0.169398
0.170267
0.171241
0.172316
0.173487
0.174745
0.176078
0.17747
0.178903
0.180356
0.181803
0.18322
0.184577
0.185849
0.187008
0.188031
0.188897
0.189589
0.190094
0.190405
0.190519
0.190437
0.190164
0.189709
0.189084
0.188302
0.187379
0.186331
0.185175
0.183927
0.182602
0.181217
0.179784
0.178317
0.176829
0.175331
0.173835
0.172357
0.170919
0.169555
0.168306
0.167222
0.16635
0.165716
0.165317
0.165112
0.165031
0.164985
0.164878
0.16461
0.164077
0.163158
0.161723
0.159652
0.156865
0.153356
0.149215
0.144623