/*--------------------------------*- C++ -*----------------------------------*\
  =========                 |
  \\      /  F ield         | OpenFOAM: The Open Source CFD Toolbox
   \\    /   O peration     | Website:  https://openfoam.org
    \\  /    A nd           | Version:  10
     \\/     M anipulation  |
\*---------------------------------------------------------------------------*/
FoamFile
{
    format      ascii;
    class       volScalarField;
    location    "0.065";
    object      nut;
}
// * * * * * * * * * * * * * * * * * * * * * * * * * * * * * * * * * * * * * //

dimensions      [0 2 -1 0 0 0 0];

internalField   nonuniform List<scalar> 
6820
(
0.000149484
0.000144853
0.000140581
0.000136576
0.000132832
0.000129376
0.000126234
0.000123417
0.000120923
0.000118737
0.000116841
0.000115209
0.000113817
0.000112641
0.000111658
0.000110848
0.000110191
0.000109669
0.000109269
0.000108976
0.000108776
0.000108661
0.000108619
0.000108643
0.000108724
0.000108857
0.000109033
0.000109265
0.000109461
0.000110032
0.000109037
0.000115592
8.67918e-05
0.000729198
0.000532385
0.000448
0.00039969
0.000368357
0.000346704
0.000331057
0.000319325
0.000310235
0.000302984
0.000297051
0.000292088
0.000287861
0.000284205
0.000281003
0.000278166
0.000275632
0.000273349
0.00027128
0.000269393
0.000267663
0.000266072
0.000264601
0.000263237
0.00026197
0.000260789
0.000259689
0.000258659
0.000257709
0.000256816
0.000256054
0.000255171
0.000256447
0.000976776
0.00087218
0.000781617
0.000711252
0.000657299
0.000615248
0.000581665
0.000554191
0.00053124
0.000511726
0.000494891
0.000480187
0.000467209
0.000455652
0.00044528
0.000435911
0.000427396
0.000419619
0.000412483
0.000405909
0.000399828
0.000394185
0.000388931
0.000384023
0.000379424
0.0003751
0.000371019
0.000367152
0.000363463
0.00035993
0.000356479
0.000353051
0.000349303
0.00101349
0.000988231
0.000949373
0.000906189
0.000864414
0.000826362
0.000792519
0.000762618
0.000736164
0.000712649
0.000691617
0.000672684
0.000655534
0.000639909
0.000625595
0.000612418
0.000600234
0.000588924
0.000578385
0.000568534
0.000559297
0.000550612
0.000542424
0.000534686
0.000527355
0.000520391
0.00051376
0.000507429
0.00050136
0.000495529
0.000489875
0.000484414
0.000478908
0.00101671
0.00101241
0.00100191
0.000985659
0.000965598
0.0009437
0.000921402
0.000899579
0.000878701
0.000858976
0.000840463
0.00082314
0.000806943
0.000791791
0.0007776
0.000764284
0.000751765
0.000739971
0.000728835
0.0007183
0.000708312
0.000698823
0.00068979
0.000681173
0.000672938
0.000665051
0.000657481
0.000650197
0.00064317
0.000636372
0.000629762
0.000623324
0.000616986
0.00101676
0.00101592
0.0010136
0.00100903
0.00100204
0.000992914
0.000982181
0.00097038
0.000957978
0.000945335
0.000932707
0.00092027
0.000908136
0.000896374
0.00088502
0.000874091
0.000863587
0.000853501
0.000843819
0.000834524
0.000825598
0.000817018
0.000808766
0.00080082
0.000793159
0.000785764
0.000778614
0.000771688
0.000764964
0.000758424
0.00075204
0.000745794
0.000739655
0.00101671
0.00101623
0.00101553
0.00101428
0.00101219
0.00100909
0.00100496
0.000999883
0.000994006
0.000987499
0.000980527
0.000973237
0.000965752
0.00095817
0.000950569
0.000943009
0.000935533
0.000928174
0.000920953
0.000913887
0.000906983
0.000900247
0.000893679
0.000887277
0.000881038
0.000874956
0.000869023
0.000863231
0.000857569
0.000852026
0.00084659
0.000841248
0.000835988
0.0010167
0.00101622
0.00101574
0.00101518
0.00101442
0.00101335
0.00101188
0.00100995
0.00100755
0.00100469
0.00100143
0.000997804
0.000993877
0.000989707
0.000985347
0.000980845
0.000976242
0.000971576
0.000966875
0.000962165
0.000957465
0.000952791
0.000948156
0.000943568
0.000939034
0.000934558
0.000930143
0.000925789
0.000921494
0.000917258
0.000913075
0.000908943
0.000904857
0.0010167
0.00101621
0.00101575
0.00101528
0.0010148
0.00101425
0.00101359
0.00101278
0.00101179
0.00101059
0.00100917
0.00100752
0.00100567
0.00100363
0.0010014
0.000999022
0.000996507
0.000993879
0.000991156
0.000988357
0.000985499
0.000982595
0.000979658
0.0009767
0.000973728
0.000970751
0.000967774
0.000964803
0.000961841
0.000958891
0.000955955
0.000953034
0.00095013
0.0010167
0.00101621
0.00101574
0.00101529
0.00101484
0.00101439
0.00101393
0.00101344
0.0010129
0.00101229
0.0010116
0.00101081
0.00100993
0.00100894
0.00100785
0.00100666
0.00100537
0.00100399
0.00100253
0.001001
0.000999403
0.000997747
0.00099604
0.000994291
0.000992505
0.000990688
0.000988846
0.000986984
0.000985107
0.000983217
0.00098132
0.000979418
0.000977516
0.0010167
0.00101621
0.00101574
0.00101528
0.00101484
0.0010144
0.00101398
0.00101356
0.00101313
0.00101269
0.00101224
0.00101176
0.00101124
0.00101069
0.00101009
0.00100945
0.00100876
0.00100803
0.00100724
0.00100642
0.00100554
0.00100463
0.00100367
0.00100269
0.00100167
0.00100061
0.000999538
0.000998439
0.000997319
0.000996184
0.000995035
0.000993876
0.000992713
0.0010167
0.00101621
0.00101574
0.00101528
0.00101484
0.0010144
0.00101398
0.00101357
0.00101317
0.00101277
0.00101238
0.00101199
0.00101159
0.00101118
0.00101077
0.00101034
0.0010099
0.00100944
0.00100896
0.00100847
0.00100795
0.00100741
0.00100685
0.00100628
0.00100568
0.00100507
0.00100443
0.00100379
0.00100313
0.00100246
0.00100178
0.0010011
0.00100041
0.0010167
0.00101621
0.00101574
0.00101528
0.00101483
0.0010144
0.00101398
0.00101357
0.00101317
0.00101278
0.0010124
0.00101203
0.00101166
0.0010113
0.00101094
0.00101059
0.00101023
0.00100987
0.00100951
0.00100915
0.00100878
0.00100841
0.00100803
0.00100764
0.00100725
0.00100686
0.00100645
0.00100604
0.00100563
0.00100521
0.0010048
0.00100438
0.00100396
0.0010167
0.00101621
0.00101574
0.00101528
0.00101483
0.0010144
0.00101398
0.00101357
0.00101317
0.00101278
0.0010124
0.00101203
0.00101167
0.00101132
0.00101098
0.00101064
0.00101031
0.00100999
0.00100967
0.00100935
0.00100904
0.00100872
0.00100842
0.00100811
0.0010078
0.0010075
0.0010072
0.0010069
0.0010066
0.0010063
0.00100601
0.00100573
0.00100545
0.0010167
0.00101621
0.00101574
0.00101528
0.00101483
0.0010144
0.00101398
0.00101357
0.00101317
0.00101278
0.0010124
0.00101203
0.00101167
0.00101132
0.00101098
0.00101065
0.00101033
0.00101001
0.0010097
0.0010094
0.0010091
0.00100881
0.00100853
0.00100825
0.00100797
0.00100771
0.00100744
0.00100719
0.00100694
0.00100669
0.00100645
0.00100623
0.00100601
0.0010167
0.00101621
0.00101574
0.00101528
0.00101483
0.0010144
0.00101397
0.00101356
0.00101316
0.00101278
0.0010124
0.00101203
0.00101167
0.00101132
0.00101098
0.00101065
0.00101033
0.00101001
0.00100971
0.00100941
0.00100912
0.00100883
0.00100855
0.00100828
0.00100802
0.00100777
0.00100752
0.00100728
0.00100704
0.00100682
0.0010066
0.00100639
0.0010062
0.0010167
0.00101621
0.00101574
0.00101528
0.00101483
0.0010144
0.00101397
0.00101356
0.00101316
0.00101277
0.00101239
0.00101203
0.00101167
0.00101132
0.00101098
0.00101065
0.00101032
0.00101001
0.0010097
0.00100941
0.00100912
0.00100883
0.00100856
0.00100829
0.00100803
0.00100778
0.00100754
0.0010073
0.00100707
0.00100685
0.00100664
0.00100644
0.00100625
0.0010167
0.00101621
0.00101574
0.00101528
0.00101483
0.0010144
0.00101397
0.00101356
0.00101316
0.00101277
0.00101239
0.00101202
0.00101167
0.00101132
0.00101098
0.00101065
0.00101032
0.00101001
0.0010097
0.00100941
0.00100912
0.00100883
0.00100856
0.00100829
0.00100803
0.00100778
0.00100754
0.00100731
0.00100708
0.00100686
0.00100665
0.00100645
0.00100627
0.0010167
0.00101621
0.00101574
0.00101528
0.00101483
0.00101439
0.00101397
0.00101356
0.00101316
0.00101277
0.00101239
0.00101202
0.00101166
0.00101131
0.00101097
0.00101064
0.00101032
0.00101001
0.0010097
0.0010094
0.00100911
0.00100883
0.00100856
0.00100829
0.00100803
0.00100778
0.00100754
0.00100731
0.00100708
0.00100686
0.00100665
0.00100645
0.00100627
0.0010167
0.00101621
0.00101574
0.00101528
0.00101483
0.00101439
0.00101397
0.00101356
0.00101316
0.00101277
0.00101239
0.00101202
0.00101166
0.00101131
0.00101097
0.00101064
0.00101032
0.00101001
0.0010097
0.0010094
0.00100911
0.00100883
0.00100856
0.00100829
0.00100803
0.00100778
0.00100754
0.00100731
0.00100708
0.00100686
0.00100665
0.00100645
0.00100626
0.0010167
0.00101621
0.00101574
0.00101528
0.00101483
0.00101439
0.00101397
0.00101356
0.00101316
0.00101277
0.00101239
0.00101202
0.00101166
0.00101131
0.00101097
0.00101064
0.00101032
0.00101
0.0010097
0.0010094
0.00100911
0.00100883
0.00100856
0.00100829
0.00100803
0.00100778
0.00100754
0.0010073
0.00100708
0.00100686
0.00100665
0.00100645
0.00100626
0.0010167
0.00101621
0.00101574
0.00101528
0.00101483
0.00101439
0.00101397
0.00101356
0.00101316
0.00101277
0.00101239
0.00101202
0.00101166
0.00101131
0.00101097
0.00101064
0.00101032
0.00101
0.0010097
0.0010094
0.00100911
0.00100883
0.00100856
0.00100829
0.00100803
0.00100778
0.00100754
0.0010073
0.00100708
0.00100686
0.00100664
0.00100644
0.00100625
0.0010167
0.00101621
0.00101574
0.00101528
0.00101483
0.00101439
0.00101397
0.00101356
0.00101316
0.00101277
0.00101239
0.00101202
0.00101166
0.00101131
0.00101097
0.00101064
0.00101032
0.00101
0.0010097
0.0010094
0.00100911
0.00100883
0.00100855
0.00100829
0.00100803
0.00100778
0.00100754
0.0010073
0.00100707
0.00100685
0.00100664
0.00100644
0.00100624
0.0010167
0.00101621
0.00101574
0.00101528
0.00101483
0.00101439
0.00101397
0.00101356
0.00101316
0.00101277
0.00101239
0.00101202
0.00101166
0.00101131
0.00101097
0.00101064
0.00101031
0.00101
0.00100969
0.0010094
0.00100911
0.00100883
0.00100855
0.00100829
0.00100803
0.00100778
0.00100753
0.0010073
0.00100707
0.00100685
0.00100663
0.00100643
0.00100623
0.0010167
0.00101621
0.00101574
0.00101528
0.00101483
0.00101439
0.00101397
0.00101356
0.00101316
0.00101277
0.00101239
0.00101202
0.00101166
0.00101131
0.00101097
0.00101064
0.00101031
0.00101
0.00100969
0.0010094
0.00100911
0.00100882
0.00100855
0.00100828
0.00100802
0.00100777
0.00100753
0.00100729
0.00100706
0.00100684
0.00100663
0.00100642
0.00100622
0.0010167
0.00101621
0.00101574
0.00101528
0.00101483
0.00101439
0.00101397
0.00101356
0.00101316
0.00101277
0.00101239
0.00101202
0.00101166
0.00101131
0.00101097
0.00101064
0.00101031
0.00101
0.00100969
0.00100939
0.0010091
0.00100882
0.00100855
0.00100828
0.00100802
0.00100777
0.00100752
0.00100729
0.00100706
0.00100683
0.00100662
0.00100641
0.00100621
0.0010167
0.00101621
0.00101574
0.00101528
0.00101483
0.00101439
0.00101397
0.00101356
0.00101316
0.00101277
0.00101239
0.00101202
0.00101166
0.00101131
0.00101097
0.00101064
0.00101031
0.00101
0.00100969
0.00100939
0.0010091
0.00100882
0.00100855
0.00100828
0.00100802
0.00100777
0.00100752
0.00100728
0.00100705
0.00100683
0.00100661
0.0010064
0.0010062
0.0010167
0.00101621
0.00101574
0.00101528
0.00101483
0.00101439
0.00101397
0.00101356
0.00101316
0.00101277
0.00101239
0.00101202
0.00101166
0.00101131
0.00101097
0.00101063
0.00101031
0.00101
0.00100969
0.00100939
0.0010091
0.00100882
0.00100854
0.00100828
0.00100802
0.00100776
0.00100752
0.00100728
0.00100704
0.00100682
0.0010066
0.00100639
0.00100618
0.0010167
0.00101621
0.00101574
0.00101528
0.00101483
0.00101439
0.00101397
0.00101356
0.00101316
0.00101277
0.00101239
0.00101202
0.00101166
0.00101131
0.00101097
0.00101063
0.00101031
0.00101
0.00100969
0.00100939
0.0010091
0.00100882
0.00100854
0.00100827
0.00100801
0.00100776
0.00100751
0.00100727
0.00100704
0.00100681
0.00100659
0.00100638
0.00100617
0.0010167
0.00101621
0.00101574
0.00101528
0.00101483
0.00101439
0.00101397
0.00101356
0.00101316
0.00101277
0.00101239
0.00101202
0.00101166
0.00101131
0.00101097
0.00101064
0.00101031
0.00101
0.00100969
0.00100939
0.0010091
0.00100882
0.00100854
0.00100827
0.00100801
0.00100776
0.00100751
0.00100727
0.00100703
0.0010068
0.00100658
0.00100637
0.00100616
0.0010167
0.00101621
0.00101574
0.00101528
0.00101483
0.00101439
0.00101397
0.00101356
0.00101316
0.00101277
0.00101239
0.00101202
0.00101166
0.00101131
0.00101097
0.00101064
0.00101031
0.00101
0.00100969
0.00100939
0.0010091
0.00100882
0.00100854
0.00100827
0.00100801
0.00100775
0.0010075
0.00100726
0.00100703
0.0010068
0.00100657
0.00100635
0.00100614
0.0010167
0.00101621
0.00101574
0.00101528
0.00101483
0.0010144
0.00101397
0.00101356
0.00101316
0.00101277
0.0010124
0.00101203
0.00101167
0.00101132
0.00101098
0.00101064
0.00101032
0.00101
0.00100969
0.00100939
0.0010091
0.00100881
0.00100854
0.00100826
0.001008
0.00100774
0.00100748
0.00100723
0.00100699
0.00100676
0.00100652
0.0010063
0.00100608
0.0010167
0.00101621
0.00101574
0.00101528
0.00101483
0.0010144
0.00101398
0.00101357
0.00101317
0.00101278
0.0010124
0.00101203
0.00101167
0.00101132
0.00101097
0.00101064
0.00101031
0.00100999
0.00100967
0.00100936
0.00100906
0.00100876
0.00100847
0.00100818
0.00100789
0.00100761
0.00100734
0.00100706
0.00100679
0.00100653
0.00100627
0.00100601
0.00100575
0.0010167
0.00101621
0.00101574
0.00101529
0.00101484
0.00101441
0.001014
0.00101358
0.00101318
0.00101279
0.0010124
0.00101202
0.00101164
0.00101127
0.0010109
0.00101053
0.00101016
0.00100979
0.00100943
0.00100906
0.00100869
0.00100832
0.00100795
0.00100758
0.0010072
0.00100682
0.00100644
0.00100606
0.00100567
0.00100529
0.0010049
0.00100451
0.00100411
0.0010167
0.00101622
0.00101575
0.0010153
0.00101485
0.00101441
0.00101397
0.00101352
0.00101307
0.00101262
0.00101214
0.00101166
0.00101115
0.00101063
0.00101008
0.00100951
0.00100891
0.0010083
0.00100766
0.00100699
0.0010063
0.0010056
0.00100487
0.00100412
0.00100335
0.00100257
0.00100177
0.00100095
0.00100013
0.000999289
0.000998441
0.000997584
0.000996721
0.00101671
0.00101622
0.00101574
0.00101524
0.00101469
0.00101407
0.00101337
0.00101257
0.00101167
0.00101066
0.00100954
0.00100831
0.00100697
0.00100553
0.00100399
0.00100236
0.00100064
0.000998851
0.000996992
0.000995071
0.000993096
0.000991076
0.000989017
0.000986926
0.000984809
0.000982672
0.000980521
0.000978361
0.000976197
0.000974032
0.000971872
0.000969719
0.000967578
0.00101671
0.001016
0.00101487
0.00101325
0.00101112
0.00100847
0.00100531
0.00100168
0.000997607
0.000993153
0.000988367
0.000983303
0.000978012
0.000972543
0.00096694
0.000961241
0.000955482
0.000949693
0.000943901
0.000938129
0.000932396
0.000926719
0.000921111
0.000915585
0.00091015
0.000904815
0.000899585
0.000894466
0.000889462
0.000884576
0.000879811
0.000875168
0.000870647
0.0010153
0.00100705
0.000995495
0.000981385
0.000965348
0.000947997
0.00092989
0.000911477
0.000893091
0.000874971
0.000857283
0.000840135
0.000823595
0.000807699
0.000792462
0.000777883
0.000763952
0.00075065
0.000737955
0.000725843
0.000714288
0.000703262
0.00069274
0.000682695
0.000673103
0.00066394
0.000655182
0.000646809
0.000638798
0.000631131
0.000623788
0.000616753
0.000610006
0.000935927
0.000815562
0.000728205
0.000659324
0.000602494
0.000555292
0.000515819
0.00048249
0.000454055
0.00042955
0.000408232
0.00038953
0.000372999
0.000358289
0.00034512
0.000333268
0.000322552
0.00031282
0.000303947
0.000295831
0.000288381
0.000281524
0.000275193
0.000269335
0.000263901
0.000258848
0.00025414
0.000249745
0.000245634
0.000241782
0.000238167
0.000234768
0.000231567
0.000125477
0.000128847
0.000132096
0.000135204
0.000138173
0.000141007
0.000143711
0.000146289
0.000148745
0.000151085
0.000153311
0.000155429
0.000157443
0.000159356
0.000161174
0.0001629
0.000164537
0.000166091
0.000167565
0.000168961
0.000170285
0.00017154
0.000172728
0.000173854
0.000174919
0.000175928
0.000176882
0.000177785
0.000178638
0.000179446
0.000180209
0.00018093
0.000181612
0.000107697
0.000154458
0.000206645
0.00026396
0.000322672
0.000378114
0.000428194
0.000474645
0.000521619
0.000572861
0.000629842
0.000691769
0.000756825
0.000823347
0.000890239
0.000956783
0.00102234
0.00108593
0.00114658
0.00120304
0.00125383
0.00129717
0.00133111
0.00135349
0.00136208
0.00135468
0.00132917
0.00128359
0.00121633
0.00112644
0.0010144
0.000883879
0.000745112
0.000620086
0.00054729
0.000578771
0.000738907
0.000945915
0.00110871
0.00122781
0.00132263
0.00140117
0.00146581
0.00151781
0.00155857
0.00158973
0.00161299
0.00162998
0.00164216
0.00165078
0.00165686
0.00166126
0.00166465
0.00166759
0.00167054
0.00167389
0.00167795
0.00168297
0.00168916
0.00169665
0.00170554
0.00171585
0.00172756
0.00174058
0.00175474
0.00176977
0.00178524
0.00180057
0.001815
0.00182756
0.00183718
0.00184265
0.0018428
0.00183648
0.00182271
0.00180069
0.00176996
0.00173042
0.0016824
0.00162676
0.00156486
0.00149861
0.00143031
0.00136251
0.00129774
0.00123812
0.00118515
0.00113957
0.00110148
0.00107054
0.00104618
0.00102758
0.00101378
0.00100374
0.000996479
0.000991224
0.000987396
0.000984589
0.00098261
0.000980655
0.000246042
0.000212473
0.00018037
0.000167269
0.000175131
0.000201458
0.000242674
0.000294008
0.000350169
0.000406875
0.000461979
0.000515435
0.000568299
0.000621549
0.000675423
0.000729425
0.000782645
0.000834129
0.000882925
0.000928059
0.000968376
0.00100241
0.00102839
0.00104429
0.00104797
0.00103729
0.00101027
0.000965294
0.000901616
0.000820151
0.000725065
0.000626363
0.000543348
0.000507323
0.000557018
0.000703946
0.00088645
0.00103967
0.0011584
0.00125482
0.00133548
0.00140285
0.00145823
0.0015028
0.00153787
0.00156483
0.00158509
0.00159999
0.00161072
0.00161833
0.00162368
0.0016275
0.00163038
0.0016328
0.00163518
0.00163786
0.00164114
0.00164525
0.00165043
0.00165682
0.00166456
0.00167374
0.00168438
0.00169648
0.00170991
0.00172447
0.00173978
0.00175531
0.00177028
0.00178376
0.00179463
0.00180169
0.00180373
0.00179961
0.00178829
0.001769
0.00174119
0.00170473
0.00165987
0.00160739
0.00154857
0.00148521
0.00141955
0.00135408
0.00129129
0.00123334
0.00118175
0.00113733
0.00110018
0.00106999
0.00104615
0.00102787
0.00101424
0.00100426
0.00099702
0.000991777
0.000987961
0.000985169
0.000983202
0.000981262
0.000346628
0.000346203
0.000346942
0.000335806
0.000297981
0.000246178
0.000207584
0.000193795
0.000203026
0.0002302
0.000270164
0.000318004
0.000369351
0.000420883
0.00047059
0.000517605
0.000561681
0.000602747
0.000640842
0.000675497
0.000705713
0.000730149
0.000747283
0.000755499
0.000753172
0.000738829
0.00071145
0.000670992
0.000619237
0.00056111
0.0005065
0.000472296
0.000482945
0.000561748
0.000701958
0.0008571
0.000992443
0.00110431
0.00119798
0.00127735
0.00134462
0.00140112
0.00144782
0.00148569
0.00151573
0.00153904
0.00155672
0.00156985
0.00157938
0.00158618
0.00159097
0.00159436
0.00159686
0.00159889
0.00160082
0.00160295
0.00160555
0.00160886
0.00161308
0.0016184
0.00162498
0.00163294
0.00164237
0.00165331
0.00166573
0.0016795
0.00169432
0.00170969
0.00172491
0.00173904
0.00175097
0.00175949
0.00176337
0.00176144
0.00175266
0.00173619
0.00171146
0.00167826
0.00163677
0.00158765
0.00153209
0.0014718
0.00140892
0.00134589
0.00128518
0.00122893
0.00117874
0.00113544
0.00109919
0.00106968
0.0010463
0.00102829
0.00101478
0.00100483
0.000997583
0.000992324
0.0009885
0.000985705
0.000983737
0.000981794
0.000472882
0.000467754
0.00046767
0.000478638
0.000506623
0.000543944
0.000543921
0.000467978
0.000361713
0.000280673
0.000237274
0.000223713
0.000230635
0.000251107
0.000280128
0.000313863
0.000349313
0.000383895
0.000415661
0.000443336
0.000466107
0.000483346
0.000494426
0.00049871
0.000495724
0.000485492
0.000469056
0.000449201
0.000431426
0.000425037
0.000443557
0.0005014
0.000602241
0.000728496
0.000855162
0.000969353
0.00106881
0.00115481
0.00122915
0.00129337
0.00134852
0.00139535
0.00143449
0.00146657
0.00149232
0.00151254
0.00152806
0.00153973
0.0015483
0.00155447
0.00155885
0.00156194
0.00156418
0.00156593
0.00156752
0.00156921
0.00157126
0.00157387
0.00157725
0.00158158
0.00158702
0.00159374
0.00160187
0.0016115
0.00162269
0.00163539
0.00164938
0.00166426
0.00167938
0.00169386
0.00170661
0.00171641
0.00172201
0.00172223
0.001716
0.00170243
0.00168091
0.00165113
0.00161318
0.00156763
0.00151554
0.0014585
0.00139857
0.00133811
0.00127954
0.00122503
0.00117622
0.00113399
0.00109856
0.00106964
0.00104666
0.00102886
0.00101541
0.00100545
0.000998168
0.00099287
0.000989015
0.000986197
0.000984214
0.000982252
0.00060966
0.00060139
0.0005937
0.00058845
0.000590117
0.000606553
0.000645056
0.000703726
0.000755554
0.000740909
0.00063937
0.000508835
0.000402393
0.000332835
0.000293719
0.000275883
0.000272156
0.000277004
0.000287019
0.000299659
0.000312962
0.000325536
0.000336596
0.000346051
0.000354649
0.000364229
0.000378054
0.000401053
0.000439393
0.000498421
0.000578839
0.000674545
0.000775996
0.000875304
0.000967778
0.00105137
0.00112588
0.00119196
0.00125044
0.00130196
0.00134694
0.0013857
0.00141852
0.00144578
0.00146795
0.0014856
0.00149935
0.00150983
0.00151765
0.00152335
0.00152744
0.00153034
0.00153242
0.001534
0.00153535
0.00153672
0.00153833
0.00154036
0.00154301
0.00154645
0.00155085
0.00155638
0.0015632
0.00157146
0.00158126
0.00159266
0.00160553
0.00161959
0.00163427
0.00164876
0.00166203
0.00167286
0.00168002
0.00168228
0.00167855
0.0016679
0.00164965
0.0016234
0.00158914
0.00154731
0.00149886
0.00144525
0.00138842
0.00133065
0.00127431
0.00122158
0.00117413
0.00113293
0.00109826
0.00106987
0.0010472
0.00102955
0.00101613
0.00100613
0.000998781
0.000993419
0.000989514
0.000986658
0.000984646
0.000982649
0.000732578
0.000724416
0.000716027
0.000707501
0.000699483
0.000693999
0.000695106
0.000708362
0.000738304
0.000781791
0.0008229
0.000836484
0.000802603
0.000725875
0.000632301
0.000546162
0.000477837
0.000433604
0.00040682
0.000392465
0.000387447
0.000389957
0.000399105
0.000414777
0.000437535
0.00046844
0.000508696
0.00055906
0.00061922
0.000687495
0.000761076
0.000836641
0.000911071
0.000982043
0.00104825
0.00110926
0.00116509
0.00121599
0.00126212
0.0013036
0.00134044
0.00137266
0.00140035
0.00142368
0.00144294
0.00145851
0.00147082
0.00148037
0.0014876
0.00149297
0.00149688
0.00149968
0.00150169
0.00150318
0.00150438
0.00150553
0.0015068
0.00150837
0.00151041
0.00151309
0.00151656
0.001521
0.00152657
0.00153345
0.00154182
0.00155177
0.00156331
0.00157625
0.00159016
0.00160433
0.00161778
0.00162935
0.00163781
0.00164193
0.00164059
0.0016328
0.00161782
0.00159515
0.00156468
0.00152671
0.00148203
0.00143199
0.00137839
0.00132343
0.0012694
0.0012185
0.00117242
0.00113221
0.00109823
0.0010703
0.0010479
0.00103035
0.00101692
0.00100686
0.00099942
0.000993975
0.000990002
0.000987094
0.000985041
0.000982996
0.000829917
0.000822901
0.000815669
0.000808167
0.000800375
0.000792456
0.000785105
0.000779991
0.000779859
0.000787476
0.000803538
0.000824744
0.00084312
0.000848414
0.000833516
0.000797915
0.00075004
0.000704934
0.000668232
0.000641575
0.000625047
0.000618225
0.000620606
0.000631738
0.000651207
0.000678544
0.000713103
0.000753957
0.000799867
0.00084935
0.00090083
0.000952828
0.00100412
0.00105383
0.00110139
0.00114651
0.00118902
0.00122877
0.00126561
0.00129935
0.00132983
0.0013569
0.00138051
0.0014007
0.00141763
0.00143152
0.00144271
0.00145152
0.00145833
0.00146347
0.00146728
0.00147006
0.00147206
0.00147352
0.00147465
0.00147565
0.00147668
0.00147791
0.00147947
0.00148151
0.00148419
0.00148766
0.0014921
0.00149769
0.00150462
0.00151308
0.00152315
0.00153477
0.00154762
0.00156113
0.00157442
0.0015864
0.00159587
0.0016016
0.00160245
0.00159739
0.00158561
0.00156652
0.00153986
0.00150581
0.00146501
0.00141866
0.00136842
0.00131636
0.00126473
0.0012157
0.001171
0.00113176
0.00109843
0.0010709
0.00104871
0.00103124
0.00101778
0.00100762
0.00100008
0.000994536
0.000990482
0.000987509
0.000985406
0.0009833
0.000900129
0.000894655
0.000889019
0.000883195
0.000877161
0.000870898
0.000864449
0.000858044
0.000852307
0.000848374
0.000847592
0.000850792
0.000857474
0.000865404
0.000871178
0.000871055
0.000863993
0.000852096
0.000838342
0.000825549
0.000815877
0.000810756
0.000811003
0.000816972
0.000828663
0.000845808
0.000867915
0.00089432
0.000924234
0.00095681
0.000991207
0.00102666
0.00106252
0.00109826
0.00113347
0.00116781
0.00120097
0.00123266
0.00126259
0.00129048
0.00131606
0.00133911
0.00135952
0.00137723
0.00139232
0.0014049
0.0014152
0.00142347
0.00142997
0.00143497
0.00143875
0.00144155
0.00144359
0.00144509
0.00144621
0.00144713
0.00144801
0.00144897
0.00145016
0.0014517
0.00145372
0.00145638
0.00145982
0.00146424
0.00146984
0.00147684
0.0014854
0.00149556
0.00150714
0.00151971
0.00153251
0.00154456
0.00155471
0.00156174
0.00156452
0.00156199
0.00155325
0.00153764
0.00151477
0.00148466
0.0014478
0.00140521
0.00135841
0.00130935
0.0012602
0.00121308
0.00116978
0.0011315
0.00109879
0.00107162
0.00104961
0.00103217
0.00101866
0.0010084
0.00100075
0.000995097
0.000990952
0.000987903
0.000985743
0.000983567
0.000946755
0.000942836
0.000938798
0.000934642
0.000930369
0.00092598
0.000921481
0.000916901
0.000912334
0.000908023
0.000904416
0.000902098
0.000901567
0.000902921
0.00090569
0.000908805
0.000911283
0.000912602
0.000912851
0.000912616
0.000912746
0.000914127
0.000917531
0.000923534
0.000932484
0.000944514
0.000959569
0.000977437
0.000997803
0.00102028
0.00104446
0.00106993
0.00109631
0.00112323
0.00115037
0.00117741
0.00120402
0.0012299
0.00125472
0.00127819
0.00130002
0.00131997
0.00133788
0.00135366
0.0013673
0.00137887
0.00138849
0.00139634
0.00140263
0.00140757
0.00141137
0.00141424
0.00141636
0.00141792
0.00141907
0.00141998
0.00142076
0.00142155
0.00142246
0.00142361
0.00142511
0.0014271
0.0014297
0.00143311
0.00143752
0.00144317
0.00145025
0.00145892
0.00146911
0.00148052
0.00149256
0.00150435
0.00151482
0.00152282
0.00152721
0.00152692
0.00152101
0.00150872
0.00148953
0.00146331
0.00143039
0.00139159
0.0013483
0.00130231
0.0012557
0.00121056
0.00116868
0.00113137
0.00109925
0.00107242
0.00105056
0.00103314
0.00101956
0.00100919
0.00100141
0.000995649
0.000991405
0.000988275
0.000986053
0.000983799
0.000975294
0.000972705
0.000970036
0.000967297
0.000964501
0.000961664
0.000958804
0.000955943
0.000953114
0.000950373
0.000947831
0.000945676
0.000944162
0.000943539
0.000943961
0.000945379
0.000947601
0.000950398
0.0009536
0.000957164
0.000961196
0.000965915
0.000971605
0.000978557
0.00098702
0.000997168
0.00100909
0.00102279
0.0010382
0.00105518
0.00107356
0.00109314
0.00111369
0.00113498
0.00115676
0.00117877
0.00120075
0.00122239
0.00124343
0.00126356
0.00128252
0.00130009
0.00131606
0.00133033
0.00134284
0.00135361
0.00136272
0.00137027
0.00137642
0.00138134
0.0013852
0.00138816
0.00139039
0.00139204
0.00139326
0.00139418
0.00139493
0.00139561
0.00139633
0.00139719
0.00139829
0.00139974
0.00140167
0.00140424
0.00140762
0.00141206
0.00141779
0.00142501
0.00143378
0.00144392
0.00145498
0.00146623
0.0014767
0.0014853
0.00149095
0.00149257
0.00148919
0.00147997
0.00146429
0.00144186
0.0014128
0.0013778
0.00133803
0.00129516
0.00125115
0.00120802
0.00116761
0.00113127
0.00109975
0.00107324
0.0010515
0.00103409
0.00102044
0.00100996
0.00100206
0.000996179
0.000991834
0.00098862
0.000986331
0.000983995
0.000991348
0.000989755
0.000988116
0.000986444
0.000984757
0.000983073
0.000981417
0.000979813
0.000978289
0.00097688
0.000975627
0.000974593
0.000973868
0.00097357
0.000973825
0.000974735
0.000976358
0.000978708
0.000981773
0.000985534
0.000989995
0.00099519
0.00100119
0.00100809
0.00101599
0.00102498
0.00103515
0.00104652
0.00105911
0.00107288
0.00108775
0.00110365
0.00112044
0.00113797
0.00115607
0.00117454
0.00119316
0.0012117
0.0012299
0.00124751
0.00126428
0.00127999
0.00129445
0.00130754
0.00131916
0.00132931
0.00133801
0.00134534
0.00135141
0.00135634
0.00136027
0.00136334
0.00136569
0.00136746
0.00136878
0.00136975
0.0013705
0.00137112
0.00137171
0.00137237
0.00137317
0.00137422
0.00137562
0.0013775
0.00138004
0.00138345
0.00138798
0.00139387
0.00140126
0.00141009
0.00142005
0.00143055
0.00144072
0.0014496
0.00145614
0.0014593
0.00145811
0.00145167
0.00143924
0.0014204
0.0013951
0.00136382
0.00132756
0.00128782
0.00124644
0.00120539
0.00116648
0.00113114
0.00110022
0.00107402
0.00105241
0.00103501
0.00102129
0.0010107
0.00100267
0.000996675
0.000992228
0.000988928
0.000986573
0.000984154
0.00099961
0.000998677
0.000997725
0.000996769
0.000995824
0.000994912
0.000994054
0.000993277
0.000992606
0.00099207
0.0009917
0.00099153
0.0009916
0.00099196
0.000992675
0.000993815
0.000995448
0.000997633
0.00100042
0.00100383
0.00100791
0.00101268
0.00101817
0.00102443
0.00103149
0.0010394
0.00104821
0.00105795
0.00106863
0.00108026
0.00109279
0.0011062
0.0011204
0.0011353
0.00115078
0.00116669
0.00118285
0.00119906
0.00121512
0.00123079
0.00124586
0.00126012
0.00127338
0.00128552
0.00129643
0.00130608
0.00131446
0.00132162
0.00132763
0.00133259
0.00133661
0.0013398
0.00134228
0.00134418
0.0013456
0.00134665
0.00134743
0.00134804
0.00134856
0.00134908
0.00134967
0.00135041
0.0013514
0.00135276
0.00135462
0.00135719
0.00136071
0.00136543
0.00137155
0.00137911
0.00138793
0.00139753
0.0014072
0.00141606
0.00142315
0.00142748
0.00142809
0.00142406
0.00141458
0.00139908
0.00137735
0.00134968
0.00131687
0.00128025
0.00124152
0.00120257
0.0011652
0.0011309
0.0011006
0.00107473
0.00105325
0.00103585
0.00102206
0.00101137
0.00100323
0.000997121
0.000992576
0.000989192
0.000986772
0.000984271
0.00100348
0.00100294
0.00100239
0.00100186
0.00100136
0.0010009
0.00100052
0.00100023
0.00100005
0.00100002
0.00100015
0.00100048
0.00100102
0.00100182
0.00100291
0.00100433
0.00100612
0.00100832
0.00101099
0.00101417
0.00101788
0.00102218
0.00102709
0.00103265
0.00103889
0.00104585
0.00105356
0.00106203
0.0010713
0.00108136
0.00109221
0.00110383
0.00111616
0.00112915
0.0011427
0.00115669
0.00117099
0.00118543
0.00119983
0.00121399
0.00122771
0.0012408
0.0012531
0.00126446
0.00127478
0.00128401
0.00129212
0.00129914
0.00130511
0.00131011
0.00131421
0.00131753
0.00132015
0.00132217
0.00132371
0.00132486
0.0013257
0.00132632
0.00132681
0.00132724
0.00132768
0.00132821
0.00132891
0.00132986
0.00133119
0.00133309
0.00133578
0.00133951
0.00134452
0.00135092
0.00135863
0.00136729
0.00137631
0.00138492
0.00139225
0.00139739
0.00139941
0.00139741
0.00139052
0.00137806
0.00135966
0.00133542
0.00130595
0.0012724
0.00123631
0.00119949
0.00116371
0.00113048
0.00110084
0.00107532
0.00105398
0.00103659
0.00102275
0.00101197
0.00100372
0.000997504
0.000992866
0.000989403
0.00098692
0.000984341
0.00100513
0.00100478