/*--------------------------------*- C++ -*----------------------------------*\
  =========                 |
  \\      /  F ield         | OpenFOAM: The Open Source CFD Toolbox
   \\    /   O peration     | Website:  https://openfoam.org
    \\  /    A nd           | Version:  10
     \\/     M anipulation  |
\*---------------------------------------------------------------------------*/
FoamFile
{
    format      ascii;
    class       volScalarField;
    location    "0.065";
    object      p;
}
// * * * * * * * * * * * * * * * * * * * * * * * * * * * * * * * * * * * * * //

dimensions      [0 2 -2 0 0 0 0];

internalField   nonuniform List<scalar> 
6820
(
-8.80049
-10.1644
-10.5776
-10.6726
-10.7528
-10.8034
-10.8334
-10.8566
-10.8763
-10.8932
-10.9084
-10.9225
-10.9356
-10.9478
-10.9592
-10.9698
-10.9796
-10.9884
-10.9963
-11.003
-11.0085
-11.0124
-11.0146
-11.0147
-11.0121
-11.0062
-10.9961
-10.9799
-10.9564
-10.9175
-10.8656
-10.7631
-10.5775
-11.6007
-11.1962
-10.9019
-10.8061
-10.8069
-10.8229
-10.84
-10.8585
-10.8767
-10.8933
-10.9085
-10.9225
-10.9354
-10.9473
-10.9584
-10.9685
-10.9779
-10.9863
-10.9938
-11.0002
-11.0054
-11.0092
-11.0113
-11.0114
-11.0091
-11.0039
-10.9949
-10.9816
-10.9617
-10.939
-10.9001
-10.8972
-10.8545
-10.4577
-10.3294
-10.5541
-10.6912
-10.7521
-10.7958
-10.8269
-10.8511
-10.8714
-10.8889
-10.9045
-10.9187
-10.9319
-10.9441
-10.9555
-10.9661
-10.9759
-10.9847
-10.9927
-10.9996
-11.0053
-11.0096
-11.0122
-11.013
-11.0114
-11.0071
-10.9994
-10.9876
-10.9707
-10.9492
-10.9195
-10.8928
-10.8389
-10.8243
-10.8409
-10.8161
-10.793
-10.8005
-10.8202
-10.8393
-10.8575
-10.8748
-10.8909
-10.9058
-10.9198
-10.9327
-10.9449
-10.9562
-10.9667
-10.9764
-10.9852
-10.9932
-11.0001
-11.0059
-11.0105
-11.0135
-11.0148
-11.014
-11.0108
-11.0048
-10.9957
-10.9827
-10.9672
-10.9469
-10.9316
-10.9088
-10.7145
-10.6604
-10.704
-10.7483
-10.7828
-10.8121
-10.8358
-10.8561
-10.8743
-10.8908
-10.9058
-10.9197
-10.9326
-10.9447
-10.9561
-10.9666
-10.9765
-10.9855
-10.9937
-11.0009
-11.0071
-11.0121
-11.0158
-11.0179
-11.0182
-11.0166
-11.0126
-11.0062
-10.9971
-10.9863
-10.9729
-10.9621
-10.9487
-10.7552
-10.7482
-10.7664
-10.783
-10.8007
-10.8213
-10.8411
-10.8593
-10.8763
-10.8921
-10.9068
-10.9205
-10.9333
-10.9454
-10.9568
-10.9674
-10.9773
-10.9865
-10.9949
-11.0025
-11.009
-11.0146
-11.0189
-11.0219
-11.0235
-11.0234
-11.0216
-11.0181
-11.0129
-11.0069
-11
-10.9954
-10.9918
-10.7546
-10.7438
-10.7583
-10.7794
-10.8008
-10.8225
-10.8424
-10.8605
-10.8773
-10.8929
-10.9075
-10.9211
-10.9339
-10.946
-10.9574
-10.9681
-10.9782
-10.9876
-10.9963
-11.0042
-11.0113
-11.0175
-11.0226
-11.0267
-11.0297
-11.0314
-11.0319
-11.0314
-11.03
-11.0285
-11.0273
-11.0283
-11.0319
-10.7644
-10.7612
-10.774
-10.7916
-10.8092
-10.8279
-10.846
-10.863
-10.8791
-10.8942
-10.9085
-10.9219
-10.9347
-10.9467
-10.9582
-10.9691
-10.9793
-10.9889
-10.998
-11.0063
-11.0139
-11.0208
-11.0269
-11.0321
-11.0365
-11.0401
-11.043
-11.0454
-11.0476
-11.0504
-11.0542
-11.0606
-11.0703
-10.7731
-10.7719
-10.782
-10.7975
-10.814
-10.8315
-10.8487
-10.8651
-10.8807
-10.8955
-10.9095
-10.9228
-10.9355
-10.9476
-10.9591
-10.9701
-10.9805
-10.9904
-10.9998
-11.0086
-11.0168
-11.0245
-11.0315
-11.038
-11.0439
-11.0494
-11.0546
-11.0598
-11.0654
-11.0721
-11.0805
-11.0916
-11.1065
-10.7818
-10.7822
-10.7913
-10.8051
-10.8201
-10.8361
-10.8521
-10.8676
-10.8826
-10.897
-10.9107
-10.9238
-10.9364
-10.9485
-10.9601
-10.9712
-10.9818
-10.992
-11.0018
-11.0111
-11.02
-11.0284
-11.0365
-11.0442
-11.0516
-11.059
-11.0664
-11.0743
-11.0831
-11.0932
-11.1055
-11.1208
-11.14
-10.7903
-10.7916
-10.7996
-10.8118
-10.8255
-10.8403
-10.8553
-10.8702
-10.8846
-10.8985
-10.912
-10.925
-10.9375
-10.9495
-10.9612
-10.9724
-10.9833
-10.9938
-11.0039
-11.0138
-11.0233
-11.0325
-11.0416
-11.0505
-11.0595
-11.0686
-11.0782
-11.0886
-11.1001
-11.1134
-11.1292
-11.1479
-11.1708
-10.7985
-10.8002
-10.8075
-10.8184
-10.831
-10.8446
-10.8588
-10.8728
-10.8867
-10.9002
-10.9134
-10.9262
-10.9386
-10.9506
-10.9623
-10.9737
-10.9848
-10.9956
-11.0062
-11.0165
-11.0267
-11.0368
-11.0468
-11.057
-11.0673
-11.0782
-11.0897
-11.1023
-11.1164
-11.1324
-11.151
-11.1727
-11.1983
-10.8063
-10.8081
-10.8148
-10.8247
-10.8362
-10.8489
-10.8621
-10.8755
-10.8889
-10.902
-10.9149
-10.9275
-10.9398
-10.9518
-10.9636
-10.9751
-10.9864
-10.9975
-11.0085
-11.0194
-11.0302
-11.041
-11.052
-11.0633
-11.075
-11.0874
-11.1007
-11.1153
-11.1315
-11.1498
-11.1707
-11.1948
-11.2226
-10.8136
-10.8155
-10.8216
-10.8306
-10.8412
-10.853
-10.8655
-10.8782
-10.891
-10.9038
-10.9164
-10.9288
-10.941
-10.953
-10.9648
-10.9765
-10.988
-10.9994
-11.0108
-11.0222
-11.0336
-11.0452
-11.0571
-11.0694
-11.0824
-11.0961
-11.111
-11.1272
-11.1452
-11.1654
-11.1882
-11.214
-11.2434
-10.8205
-10.8223
-10.8279
-10.8362
-10.846
-10.857
-10.8687
-10.8809
-10.8932
-10.9056
-10.9179
-10.9301
-10.9422
-10.9542
-10.9661
-10.9779
-10.9896
-11.0013
-11.0131
-11.0249
-11.0369
-11.0492
-11.0619
-11.0752
-11.0892
-11.1041
-11.1203
-11.138
-11.1574
-11.1791
-11.2032
-11.2303
-11.2607
-10.8268
-10.8286
-10.8338
-10.8414
-10.8505
-10.8608
-10.8719
-10.8835
-10.8954
-10.9074
-10.9194
-10.9315
-10.9435
-10.9554
-10.9673
-10.9792
-10.9911
-11.0031
-11.0152
-11.0275
-11.04
-11.0529
-11.0664
-11.0804
-11.0953
-11.1113
-11.1285
-11.1473
-11.1679
-11.1906
-11.2157
-11.2435
-11.2744
-10.8327
-10.8343
-10.8392
-10.8462
-10.8547
-10.8643
-10.8749
-10.886
-10.8974
-10.9091
-10.9209
-10.9327
-10.9446
-10.9565
-10.9685
-10.9805
-10.9925
-11.0047
-11.0171
-11.0298
-11.0428
-11.0562
-11.0703
-11.085
-11.1007
-11.1174
-11.1355
-11.1551
-11.1764
-11.1998
-11.2255
-11.2536
-11.2846
-10.838
-10.8396
-10.8441
-10.8506
-10.8586
-10.8677
-10.8777
-10.8883
-10.8994
-10.9107
-10.9222
-10.9339
-10.9457
-10.9576
-10.9695
-10.9816
-10.9938
-11.0062
-11.0188
-11.0318
-11.0452
-11.0591
-11.0736
-11.0889
-11.1051
-11.1224
-11.1411
-11.1612
-11.183
-11.2067
-11.2325
-11.2606
-11.2912
-10.8428
-10.8443
-10.8485
-10.8546
-10.8621
-10.8707
-10.8803
-10.8905
-10.9011
-10.9122
-10.9235
-10.935
-10.9466
-10.9584
-10.9704
-10.9825
-10.9948
-11.0073
-11.0202
-11.0334
-11.0471
-11.0613
-11.0762
-11.0919
-11.1085
-11.1262
-11.1451
-11.1655
-11.1875
-11.2112
-11.2368
-11.2645
-11.2943
-10.8471
-10.8485
-10.8525
-10.8582
-10.8652
-10.8734
-10.8826
-10.8924
-10.9027
-10.9135
-10.9245
-10.9359
-10.9474
-10.9591
-10.971
-10.9832
-10.9955
-11.0082
-11.0212
-11.0346
-11.0484
-11.0629
-11.078
-11.0939
-11.1107
-11.1286
-11.1476
-11.168
-11.1898
-11.2133
-11.2384
-11.2653
-11.2942
-10.8509
-10.8522
-10.8559
-10.8613
-10.868
-10.8758
-10.8846
-10.894
-10.9041
-10.9145
-10.9254
-10.9365
-10.948
-10.9596
-10.9715
-10.9836
-10.996
-11.0087
-11.0217
-11.0352
-11.0491
-11.0637
-11.0789
-11.0949
-11.1117
-11.1296
-11.1485
-11.1686
-11.1901
-11.213
-11.2373
-11.2632
-11.2908
-10.8541
-10.8553
-10.8588
-10.8639
-10.8703
-10.8778
-10.8862
-10.8954
-10.9051
-10.9153
-10.926
-10.937
-10.9482
-10.9598
-10.9716
-10.9836
-10.996
-11.0087
-11.0217
-11.0352
-11.0492
-11.0637
-11.0789
-11.0948
-11.1115
-11.1291
-11.1477
-11.1674
-11.1882
-11.2103
-11.2337
-11.2583
-11.2844
-10.8567
-10.8578
-10.8612
-10.8661
-10.8722
-10.8794
-10.8875
-10.8964
-10.9059
-10.9159
-10.9263
-10.9371
-10.9483
-10.9597
-10.9714
-10.9834
-10.9956
-11.0083
-11.0212
-11.0347
-11.0485
-11.0629
-11.0779
-11.0936
-11.11
-11.1272
-11.1453
-11.1643
-11.1844
-11.2055
-11.2276
-11.2508
-11.2752
-10.8587
-10.8598
-10.863
-10.8677
-10.8735
-10.8804
-10.8883
-10.8969
-10.9062
-10.916
-10.9262
-10.9369
-10.9479
-10.9591
-10.9707
-10.9826
-10.9948
-11.0072
-11.0201
-11.0334
-11.047
-11.0612
-11.0759
-11.0912
-11.1072
-11.1238
-11.1413
-11.1595
-11.1785
-11.1984
-11.2192
-11.2408
-11.2633
-10.8601
-10.8612
-10.8642
-10.8687
-10.8744
-10.8811
-10.8887
-10.8972
-10.9062
-10.9159
-10.9259
-10.9364
-10.9472
-10.9584
-10.9698
-10.9815
-10.9935
-11.0059
-11.0185
-11.0315
-11.0449
-11.0587
-11.073
-11.0878
-11.1032
-11.1192
-11.1357
-11.153
-11.1709
-11.1895
-11.2087
-11.2286
-11.2492
-10.8609
-10.8619
-10.8648
-10.8691
-10.8745
-10.881
-10.8884
-10.8966
-10.9055
-10.915
-10.9249
-10.9352
-10.9459
-10.9569
-10.9681
-10.9797
-10.9915
-11.0036
-11.016
-11.0287
-11.0417
-11.0551
-11.0689
-11.0832
-11.0978
-11.113
-11.1286
-11.1448
-11.1614
-11.1786
-11.1962
-11.2143
-11.2328
-10.861
-10.862
-10.8649
-10.8691
-10.8744
-10.8808
-10.8882
-10.8962
-10.905
-10.9143
-10.9241
-10.9343
-10.9448
-10.9556
-10.9666
-10.9779
-10.9895
-11.0013
-11.0133
-11.0256
-11.0382
-11.0511
-11.0643
-11.0778
-11.0916
-11.1058
-11.1204
-11.1353
-11.1506
-11.1662
-11.1822
-11.1984
-11.2148
-10.8603
-10.8612
-10.8638
-10.8677
-10.8728
-10.8789
-10.886
-10.894
-10.9026
-10.9118
-10.9215
-10.9315
-10.9419
-10.9526
-10.9635
-10.9746
-10.986
-10.9975
-11.0092
-11.0211
-11.0333
-11.0456
-11.0581
-11.0709
-11.0839
-11.0971
-11.1106
-11.1243
-11.1381
-11.1522
-11.1664
-11.1807
-11.1951
-10.8591
-10.8603
-10.8631
-10.8673
-10.8725
-10.8787
-10.8859
-10.8938
-10.9023
-10.9114
-10.9208
-10.9307
-10.9409
-10.9513
-10.9619
-10.9726
-10.9836
-10.9947
-11.0059
-11.0173
-11.0288
-11.0404
-11.0521
-11.064
-11.076
-11.0882
-11.1004
-11.1127
-11.125
-11.1375
-11.1499
-11.1622
-11.1745
-10.8566
-10.8569
-10.8587
-10.862
-10.8667
-10.8726
-10.8797
-10.8876
-10.8963
-10.9055
-10.9151
-10.9251
-10.9354
-10.9458
-10.9564
-10.9672
-10.978
-10.9889
-10.9998
-11.0108
-11.0218
-11.0329
-11.044
-11.0551
-11.0662
-11.0773
-11.0883
-11.0993
-11.1103
-11.1211
-11.1318
-11.1423
-11.1526
-10.8552
-10.8572
-10.8606
-10.8648
-10.87
-10.876
-10.883
-10.8906
-10.8989
-10.9077
-10.9168
-10.9263
-10.936
-10.9459
-10.956
-10.9661
-10.9763
-10.9865
-10.9968
-11.007
-11.0172
-11.0274
-11.0375
-11.0476
-11.0575
-11.0674
-11.0771
-11.0866
-11.096
-11.1052
-11.1141
-11.1226
-11.1309
-10.8473
-10.8453
-10.8452
-10.8477
-10.8525
-10.8589
-10.8667
-10.8753
-10.8847
-10.8945
-10.9046
-10.915
-10.9255
-10.936
-10.9465
-10.957
-10.9674
-10.9777
-10.9879
-10.998
-11.0079
-11.0177
-11.0273
-11.0366
-11.0458
-11.0547
-11.0634
-11.0718
-11.0798
-11.0875
-11.0948
-11.1017
-11.1082
-10.8539
-10.8595
-10.8638
-10.8671
-10.871
-10.876
-10.8821
-10.889
-10.8966
-10.9048
-10.9133
-10.9222
-10.9313
-10.9405
-10.9498
-10.9591
-10.9683
-10.9776
-10.9867
-10.9956
-11.0045
-11.0131
-11.0215
-11.0296
-11.0375
-11.0451
-11.0523
-11.0592
-11.0657
-11.0717
-11.0773
-11.0823
-11.0868
-10.8243
-10.8131
-10.81
-10.8142
-10.822
-10.8315
-10.8421
-10.8534
-10.865
-10.8767
-10.8884
-10.9
-10.9114
-10.9225
-10.9334
-10.944
-10.9544
-10.9644
-10.974
-10.9834
-10.9924
-11.001
-11.0092
-11.017
-11.0244
-11.0313
-11.0378
-11.0437
-11.0491
-11.054
-11.0582
-11.0619
-11.0649
-10.8727
-10.8891
-10.8907
-10.8853
-10.883
-10.8842
-10.8875
-10.8921
-10.8979
-10.9045
-10.9118
-10.9195
-10.9276
-10.9358
-10.944
-10.9523
-10.9605
-10.9686
-10.9765
-10.9841
-10.9915
-10.9986
-11.0053
-11.0116
-11.0175
-11.023
-11.0279
-11.0324
-11.0362
-11.0395
-11.0421
-11.0441
-11.0453
-10.7629
-10.7247
-10.719
-10.7429
-10.7637
-10.7823
-10.8007
-10.8184
-10.8352
-10.851
-10.866
-10.8801
-10.8934
-10.906
-10.918
-10.9293
-10.94
-10.9501
-10.9596
-10.9685
-10.9769
-10.9846
-10.9918
-10.9984
-11.0043
-11.0095
-11.0141
-11.0181
-11.0212
-11.0237
-11.0254
-11.0263
-11.0264
-10.9757
-11.0004
-10.9715
-10.9349
-10.9118
-10.904
-10.9011
-10.9007
-10.9029
-10.9068
-10.9119
-10.9179
-10.9244
-10.9312
-10.9382
-10.9453
-10.9524
-10.9593
-10.966
-10.9724
-10.9785
-10.9842
-10.9895
-10.9943
-10.9986
-11.0023
-11.0054
-11.0078
-11.0096
-11.0107
-11.011
-11.0105
-11.0093
-10.5601
-10.4783
-10.5355
-10.6164
-10.673
-10.7119
-10.7456
-10.7751
-10.8005
-10.8228
-10.8426
-10.8604
-10.8765
-10.8911
-10.9046
-10.9169
-10.9282
-10.9387
-10.9482
-10.957
-10.9649
-10.9721
-10.9784
-10.984
-10.9888
-10.9928
-10.9959
-10.9983
-10.9997
-11.0003
-11.0001
-10.9989
-10.9968
-11.5368
-11.2588
-11.0532
-10.9622
-10.9253
-10.9049
-10.8924
-10.8872
-10.8868
-10.8893
-10.8937
-10.8995
-10.906
-10.913
-10.9202
-10.9275
-10.9347
-10.9417
-10.9485
-10.9548
-10.9608
-10.9662
-10.9711
-10.9755
-10.9792
-10.9822
-10.9845
-10.9861
-10.9869
-10.9869
-10.986
-10.9842
-10.9816
-9.57882
-10.1404
-10.4453
-10.5614
-10.6432
-10.7069
-10.7522
-10.7865
-10.8142
-10.837
-10.8562
-10.8727
-10.8874
-10.9005
-10.9123
-10.923
-10.9328
-10.9417
-10.9498
-10.9571
-10.9636
-10.9694
-10.9743
-10.9784
-10.9817
-10.9842
-10.9858
-10.9866
-10.9864
-10.9853
-10.9833
-10.9804
-10.9764
-10.3256
-10.3349
-10.3129
-10.3642
-10.5104
-10.7623
-11.1123
-11.5522
-12.0648
-12.6244
-13.2095
-13.7999
-14.3763
-14.923
-15.4284
-15.8856
-16.2916
-16.6453
-16.9475
-17.1995
-17.4027
-17.5582
-17.6665
-17.7269
-17.7379
-17.6965
-17.5984
-17.4374
-17.2058
-16.8942
-16.4917
-15.9862
-15.3657
-14.6201
-13.7455
-12.7456
-11.6325
-10.4325
-9.1858
-7.93197
-6.70574
-5.54156
-4.46972
-3.51126
-2.67647
-1.96597
-1.37326
-0.887554
-0.496169
-0.186056
0.0552387
0.23908
0.375539
0.473366
0.540049
0.581918
0.604275
0.611517
0.607257
0.594447
0.575469
0.552236
0.526267
0.498758
0.470643
0.442637
0.415286
0.388991
0.364042
0.340629
0.318864
0.298786
0.280373
0.263551
0.248198
0.234158
0.221254
0.209292
0.198087
0.187458
0.177258
0.16737
0.157704
0.148199
0.138816
0.129535
0.120343
0.111232
0.10219
0.0932176
0.084284
0.0754153
0.0665182
0.0577497
0.0487476
0.0402241
0.0306772
0.0231535
0.0114203
0.00816089
-11.0737
-11.0074
-10.8138
-10.7232
-10.7421
-10.8793
-11.1432
-11.5273
-12.009
-12.554
-13.1297
-13.7086
-14.2698
-14.7993
-15.2885
-15.7324
-16.1282
-16.4746
-16.771
-17.0181
-17.2166
-17.3671
-17.4696
-17.5235
-17.5268
-17.4764
-17.3677
-17.1947
-16.9495
-16.623
-16.2046
-15.6832
-15.0488
-14.2955
-13.4239
-12.44
-11.3598
-10.2104
-9.0218
-7.82448
-6.65174
-5.53634
-4.50587
-3.57973
-2.76804
-2.07227
-1.48734
-1.00406
-0.611187
-0.296888
-0.049658
0.141149
0.285081
0.390515
0.464682
0.513742
0.542888
0.556455
0.558028
0.550552
0.53642
0.517563
0.495529
0.471541
0.446564
0.421345
0.39646
0.372338
0.349299
0.327563
0.30727
0.288486
0.271219
0.255417
0.240981
0.227771
0.215621
0.204349
0.193773
0.183717
0.174037
0.164615
0.155364
0.146223
0.137158
0.12815
0.119189
0.110274
0.101398
0.0925661
0.0837536
0.0749872
0.0661832
0.0574858
0.0485666
0.0400693
0.0306483
0.0230117
0.0116826
0.00766136
-10.8133
-10.7072
-10.6417
-10.674
-10.7883
-10.9826
-11.2581
-11.6116
-12.0363
-12.5192
-13.0422
-13.5839
-14.1227
-14.64
-15.1219
-15.5598
-15.9496
-16.2882
-16.5765
-16.8152
-17.0055
-17.1479
-17.2424
-17.2876
-17.2813
-17.2202
-17.0995
-16.9128
-16.6526
-16.3098
-15.8749
-15.3394
-14.698
-13.9486
-13.0923
-12.1371
-11.0996
-10.001
-8.86527
-7.72133
-6.60037
-5.53208
-4.54158
-3.64695
-2.85808
-2.17717
-1.60041
-1.12006
-0.726202
-0.408171
-0.155384
0.0420949
0.193287
0.306189
0.38776
0.44398
0.479923
0.499854
0.507322
0.505257
0.49606
0.481676
0.463676
0.443311
0.421573
0.399239
0.376911
0.355051
0.334005
0.31402
0.295265
0.277836
0.261765
0.247026
0.233542
0.22119
0.209817
0.199252
0.189318
0.179847
0.170696
0.16175
0.152923
0.144157
0.135419
0.126693
0.117974
0.109264
0.100563
0.0918786
0.0831932
0.074534
0.0658273
0.0572038
0.0483717
0.039901
0.0306126
0.0228565
0.0119493
0.00713826
-10.9243
-10.9234
-10.8983
-10.9148
-10.9994
-11.1601
-11.4018
-11.7225
-12.1117
-12.5522
-13.0258
-13.5158
-14.0063
-14.4827
-14.9332
-15.3487
-15.7219
-16.0508
-16.3332
-16.5675
-16.7531
-16.8896
-16.9764
-17.0125
-16.9957
-16.9225
-16.7882
-16.5867
-16.3111
-15.9542
-15.5097
-14.9721
-14.3369
-13.6014
-12.7684
-11.8473
-10.8523
-9.80076
-8.71539
-7.62295
-6.55172
-5.52865
-4.57671
-3.71274
-2.94638
-2.28044
-1.71224
-1.23529
-0.840974
-0.519685
-0.261744
-0.0579114
0.100303
0.220505
0.309378
0.372707
0.415439
0.441757
0.455167
0.458581
0.454398
0.444577
0.430705
0.41406
0.395658
0.376304
0.356629
0.337119
0.318148
0.299991
0.282845
0.266832
0.252011
0.23838
0.225883
0.214418
0.203845
0.194003
0.184726
0.17585
0.167237
0.158776
0.150382
0.142
0.1336
0.125166
0.116699
0.108204
0.0996849
0.0911551
0.0826029
0.0740556
0.0654505
0.056904
0.0481628
0.0397195
0.0305695
0.0226893
0.0122173
0.00659738
-10.9489
-10.9369
-10.9234
-10.96
-11.0627
-11.2337
-11.476
-11.7859
-12.1521
-12.5603
-12.9966
-13.4479
-13.9008
-14.3424
-14.7616
-15.1497
-15.4999
-15.8081
-16.0729
-16.2924
-16.4655
-16.5911
-16.6679
-16.6939
-16.6664
-16.5821
-16.4366
-16.2251
-15.9421
-15.5817
-15.1381
-14.6055
-13.9803
-13.2626
-12.4566
-11.5703
-10.6157
-9.60941
-8.57254
-7.52942
-6.50573
-5.52596
-4.61114
-3.77695
-3.03277
-2.38189
-1.82258
-1.34953
-0.955258
-0.631194
-0.368516
-0.158672
0.00630123
0.133615
0.229664
0.300031
0.349523
0.382235
0.401622
0.410569
0.41147
0.40629
0.396633
0.383796
0.368822
0.35254
0.335605
0.318532
0.301718
0.285465
0.269997
0.255461
0.241943
0.229465
0.217995
0.207447
0.197698
0.1886
0.179995
0.171727
0.163664
0.155697
0.147745
0.139757
0.131702
0.123571
0.115365
0.107093
0.0987642
0.090396
0.0819827
0.0735521
0.0650529
0.0565864
0.0479399
0.0395252
0.0305186
0.0225112
0.012484
0.00604423
-10.9975
-11.0077
-11.026
-11.0801
-11.1846
-11.3451
-11.5662
-11.8476
-12.1824
-12.5589
-12.9627
-13.3796
-13.7964
-14.2023
-14.5881
-14.9465
-15.2721
-15.5605
-15.8079
-16.0123
-16.1718
-16.2849
-16.3499
-16.3648
-16.3271
-16.2336
-16.0805
-15.863
-15.5759
-15.2137
-14.7714
-14.2452
-13.6334
-12.9365
-12.158
-11.3052
-10.3896
-9.42698
-8.43655
-7.44052
-6.46219
-5.52385
-4.64476
-3.83949
-3.11713
-2.48136
-1.93126
-1.46256
-1.06884
-0.74249
-0.475507
-0.260011
-0.0885607
0.0456544
0.148734
0.226048
0.282255
0.321354
0.346738
0.361261
0.367304
0.366835
0.361471
0.352527
0.341067
0.327943
0.313836
0.299283
0.284706
0.270433
0.256711
0.243715
0.231555
0.220278
0.209872
0.200274
0.191376
0.183042
0.175126
0.16748
0.159977
0.152514
0.145014
0.137428
0.129729
0.121909
0.113972
0.105931
0.0978008
0.0896008
0.0813322
0.073023
0.0646339
0.0562507
0.0477024
0.0393178
0.0304591
0.0223229
0.0127461
0.00548434
-11.043
-11.0629
-11.0946
-11.1573
-11.2645
-11.4215
-11.6311
-11.8922
-12.1989
-12.5426
-12.9127
-13.2967
-13.6822
-14.0583
-14.4162
-14.7491
-15.0514
-15.3184
-15.5467
-15.7341
-15.8787
-15.9785
-16.0317
-16.036
-15.9888
-15.8868
-15.7263
-15.503
-15.2124
-14.8502
-14.4125
-13.8961
-13.2995
-12.6234
-11.8717
-11.0516
-10.1739
-9.25313
-8.30707
-7.35595
-6.42089
-5.52218
-4.67744
-3.90023
-3.19933
-2.57868
-2.03809
-1.57419
-1.18152
-0.853365
-0.582519
-0.361745
-0.18412
-0.0432339
0.0667107
0.150862
0.213723
0.259185
0.290573
0.310703
0.321937
0.326242
0.325242
0.320268
0.312402
0.302519
0.291321
0.27937
0.267109
0.25489
0.242983
0.231589
0.220842
0.210813
0.201513
0.192898
0.184877
0.17733
0.170119
0.163109
0.156179
0.14923
0.142192
0.135016
0.127681
0.12018
0.112521
0.10472
0.0967946
0.0887692
0.080651
0.072468
0.0641932
0.0558964
0.04745
0.0390972
0.0303898
0.0221252
0.0130001
0.00492358
-11.0875
-11.1167
-11.1608
-11.2325
-11.3419
-11.4939
-11.6909
-11.9322
-12.2131
-12.5265
-12.8631
-13.2129
-13.5656
-13.9115
-14.2419
-14.5497
-14.8292
-15.0759
-15.2863
-15.4577
-15.588
-15.6749
-15.7163
-15.7101
-15.6535
-15.5435
-15.3768
-15.1494
-14.8576
-14.4974
-14.0654
-13.5592
-12.9779
-12.3227
-11.5975
-10.8091
-9.96795
-9.08737
-8.18371
-7.27539
-6.38161
-5.52079
-4.70908
-3.9591
-3.27928
-2.67375
-2.14292
-1.68423
-1.29308
-0.963618
-0.689356
-0.46369
-0.280208
-0.132901
-0.0162762
0.074585
0.144021
0.195807
0.233193
0.258949
0.275413
0.284544
0.287972
0.287037
0.28284
0.276275
0.268065
0.258792
0.248924
0.238831
0.228808
0.219078
0.2098
0.201067
0.192914
0.185316
0.178201
0.171462
0.164977
0.158617
0.152272
0.145848
0.139279
0.132524
0.12556
0.118386
0.111013
0.103458
0.0957456
0.0879012
0.0799389
0.0718868
0.0637305
0.0555233
0.0471822
0.0388634
0.03031
0.0219191
0.0132426
0.00436796
-11.1293
-11.1657
-11.2182
-11.2952
-11.4046
-11.5509
-11.7362
-11.9597
-12.2178
-12.5043
-12.8114
-13.1304
-13.4523
-13.7685
-14.0713
-14.3539
-14.6109
-14.8375
-15.0299
-15.1852
-15.3011
-15.3752
-15.4053
-15.3891
-15.3239
-15.207
-15.035
-14.8046
-14.5123
-14.1548
-13.7294
-13.234
-12.6684
-12.034
-11.3348
-10.5773
-9.77133
-8.92925
-8.06608
-7.19855
-6.34412
-5.51954
-4.7396
-4.01603
-3.35688
-2.76644
-2.24559
-1.7925
-1.40335
-1.07305
-0.795823
-0.565663
-0.376656
-0.223193
-0.10009
-0.00266427
0.0732505
0.131307
0.174671
0.20606
0.227782
0.241783
0.249692
0.25286
0.252401
0.249226
0.244077
0.237557
0.230152
0.222257
0.214184
0.20618
0.198426
0.191038
0.184073
0.177527
0.171347
0.165441
0.159699
0.154006
0.148258
0.14237
0.13628
0.129952
0.123368
0.116529
0.109448
0.102148
0.0946543
0.0869969
0.079196
0.0712792
0.0632456
0.0551314
0.0468985
0.0386164
0.0302186
0.0217055
0.0134704
0.00382344
-11.1677
-11.2099
-11.2682
-11.3487
-11.4571
-11.5975
-11.7715
-11.9783
-12.2151
-12.4766
-12.7563
-13.0467
-13.3398
-13.6281
-13.9045
-14.1626
-14.3972
-14.6037
-14.7782
-14.9176
-15.0193
-15.0809
-15.1
-15.0743
-15.0011
-14.8778
-14.7013
-14.4687
-14.1768
-13.8229
-13.4046
-12.9205
-12.3708
-11.757
-11.0831
-10.3556
-9.58352
-8.77834
-7.9538
-7.12517
-6.30826
-5.51834
-4.76893
-4.07095
-3.43207
-2.85665
-2.34599
-1.89886
-1.51215
-1.18148
-0.901732
-0.667479
-0.473292
-0.313952
-0.18459
-0.0807614
0.00152062
0.0657783
0.115087
0.152103
0.179099
0.198005
0.210443
0.217769
0.221109
0.22139
0.21937
0.215672
0.210801
0.20517
0.199112
0.192894
0.186718
0.180724
0.174989
0.169531
0.164314
0.159266
0.154288
0.149277
0.14414
0.138798
0.133197
0.127305
0.121108
0.114611
0.107829
0.10079
0.0935211
0.0860566
0.0784222
0.0706455
0.0627383
0.0547206
0.0465988
0.0383562
0.030115
0.0214854
0.0136802
0.00329578
-11.2024
-11.2489
-11.3111
-11.3932
-11.4996
-11.6336
-11.7965
-11.9876
-12.2046
-12.4432
-12.6976
-12.9613
-13.2276
-13.4896
-13.7408
-13.9754
-14.1883
-14.3751
-14.5319
-14.6556
-14.7434
-14.7927
-14.8011
-14.7662
-14.6855
-14.5563
-14.3761
-14.1419
-13.8511
-13.5013
-13.0907
-12.6183
-12.0844
-11.4911
-10.8421
-10.1436
-9.40408
-8.63423
-7.84657
-7.05499
-6.27387
-5.51709
-4.79704
-4.12384
-3.50481
-2.94433
-2.44401
-2.00317
-1.61931
-1.28872
-1.0069
-0.768958
-0.569941
-0.405018
-0.26963
-0.159576
-0.071054
-0.000679341
0.0545258
0.0971514
0.129429
0.153263
0.170268
0.181801
0.188995
0.192791
0.193964
0.193153
0.19088
0.187577
0.183596
0.179222
0.174678
0.170126
0.165663
0.161328
0.157106
0.152939
0.148745
0.144434
0.139921
0.135136
0.130033
0.124585
0.118782
0.112633
0.106158
0.0993845
0.0923472
0.0850809
0.0776181
0.0699857
0.0622088
0.0542908
0.0462829
0.038083
0.0299983
0.0212598
0.0138693
0.00279036
-11.2331
-11.2827
-11.3472
-11.4295
-11.533
-11.6603
-11.8124
-11.9889
-12.1875
-12.4046
-12.6355
-12.8745
-13.1156
-13.3527
-13.58
-13.792
-13.984
-14.1517
-14.2913
-14.3995
-14.4735
-14.5108
-14.5088
-14.4651
-14.3773
-14.2429
-14.0594
-13.8243
-13.5352
-13.1901
-12.7877
-12.3272
-11.8092
-11.2359
-10.6112
-9.94078
-9.23263
-8.49657
-7.74409
-6.98783
-6.24083
-5.51574
-4.82389
-4.17469
-3.57508
-3.02941
-2.53955
-2.10529
-1.72469
-1.39461
-1.11115
-0.869921
-0.666432
-0.496228
-0.35506
-0.238972
-0.144352
-0.0679591
-0.00691878
0.0412859
0.0788383
0.107615
0.129216
0.144997
0.156094
0.16346
0.167883
0.170017
0.170403
0.169488
0.167642
0.165168
0.162309
0.159245
0.156095
0.152919
0.149722
0.146462
0.143074
0.139479
0.135604
0.131388
0.126792
0.121795
0.116393
0.110599
0.104435
0.0979343
0.0911336
0.0840708
0.0767842
0.0693003
0.0616574
0.0538425
0.0459507
0.0377971
0.0298681
0.0210297
0.0140354
0.00231191
-11.2596
-11.3113
-11.3767
-11.4581
-11.558
-11.6784
-11.8201
-11.9826
-12.164
-12.3613
-12.5703
-12.7862
-13.0037
-13.2174
-13.422
-13.6125
-13.7844
-13.9335
-14.0563
-14.1494
-14.2101
-14.2356
-14.2236
-14.1715
-14.077
-13.9379
-13.7516
-13.5161
-13.2292
-12.8893
-12.4953
-12.0469
-11.5448
-10.9913
-10.3901
-9.74685
-9.06881
-8.36507
-7.64614
-6.92351
-6.20905
-5.51424
-4.8495
-4.22351
-3.64286
-3.11185
-2.63255
-2.20512
-1.82813
-1.49899
-1.2143
-0.970193
-0.762591
-0.587417
-0.440726
-0.318808
-0.218247
-0.135948
-0.0691469
-0.0154062
0.0274043
0.0611275
0.0873452
0.107405
0.122447
0.13343
0.141154
0.146289
0.149389
0.150918
0.151263
0.150742
0.149616
0.148086
0.146291
0.144309
0.142166
0.13984
0.137278
0.134416
0.131193
0.127557
0.123478
0.118939
0.113945
0.108511
0.102664
0.0964411
0.089882
0.0830274
0.0759215
0.0685901
0.0610844
0.0533759
0.0456024
0.0374988
0.0297238
0.0207961
0.0141766
0.00186436
-11.282
-11.3347
-11.4
-11.4796
-11.5753
-11.6886
-11.8202
-11.9694
-12.1348
-12.3136
-12.5023
-12.6966
-12.892
-13.0837
-13.2668
-13.4367
-13.5893
-13.7206
-13.8271
-13.9056
-13.9532
-13.9674
-13.9456
-13.8855
-13.7848
-13.6413
-13.4529
-13.2174
-12.9332
-12.5989
-12.2136
-11.7773
-11.291
-10.7568
-10.1786
-9.56146
-8.91229
-8.23943
-7.55248
-6.8619
-6.17844
-5.51259
-4.87386
-4.27032
-3.70817
-3.19163
-2.72294
-2.30257
-1.92953
-1.60171
-1.3162
-1.0696
-0.858248
-0.678418
-0.526469
-0.398939
-0.292604
-0.204525
-0.132052
-0.0728305
-0.0247905
0.0138723
0.0447168
0.06908
0.0881002
0.102741
0.113813
0.121997
0.127862
0.131887
0.134472
0.135954
0.13661
0.136657
0.136255
0.135503
0.134444
0.133075
0.131361
0.12925
0.126693
0.123649
0.120095
0.116022
0.111441
0.106373
0.100849
0.0949077
0.0885946
0.0819525
0.0750311
0.067856
0.0604908
0.0528918
0.0452383
0.0371886
0.0295654
0.0205599
0.0142918
0.00145066
-11.3001
-11.353
-11.4174
-11.4944
-11.5855
-11.6916
-11.8133
-11.95
-12.1003
-12.2619
-12.4316
-12.6059
-12.7807
-12.9516
-13.1143
-13.2647
-13.3989
-13.513
-13.6038
-13.6681
-13.7031
-13.7063
-13.6752
-13.6075
-13.5009
-13.3535
-13.1633
-12.9283
-12.6472
-12.3187
-11.9423
-11.5182
-11.0474
-10.5322
-9.97622
-9.38429
-8.7628
-8.11944
-7.46296
-6.80288
-6.14898
-5.51078
-4.89702
-4.31515
-3.77103
-3.26876
-2.81068
-2.39755
-2.02876
-1.70262
-1.41669
-1.16798
-0.953233
-0.769065
-0.612132
-0.479213
-0.367286
-0.273564
-0.195519
-0.130885
-0.0776563
-0.0340714
0.00140068
0.0300821
0.0531063
0.0714387
0.0858978
0.0971741
0.10585
0.112417
0.11729
0.120821
0.123302
0.124968
0.125997
0.126507
0.126562
0.126175
0.125329
0.123987
0.12211
0.119669
0.116648
0.11305
0.108888
0.10419
0.098992
0.093337
0.0872739
0.080848
0.0741148
0.0670992
0.0598772
0.0523908
0.0448588
0.0368672
0.0293928
0.0203221
0.0143806
0.00107265
-11.314
-11.3664
-11.4292
-11.5031
-11.5891
-11.688
-11.8002
-11.9249
-12.061
-12.2065
-12.3586
-12.5141
-12.6695
-12.821
-12.9646
-13.0965
-13.213
-13.3107
-13.3864
-13.437
-13.4599
-13.4525
-13.4125
-13.3375
-13.2256
-13.0747
-12.883
-12.649
-12.3712
-12.0489
-11.6815
-11.2695
-10.814
-10.3173
-9.78277
-9.21507
-8.62009
-8.00487
-7.37742
-6.74637
-6.12062
-5.50884
-4.91902
-4.35805
-3.83147
-3.34323
-2.89575
-2.49001
-2.12573
-1.80162
-1.51562
-1.26518
-1.04738
-0.859192
-0.69755
-0.559477
-0.442148
-0.342933
-0.259428
-0.189462
-0.131095
-0.082617
-0.0425269
-0.00952147
0.0175241
0.0395747
0.0574534
0.0718593
0.0833859
0.0925367
0.0997406
0.105362
0.109709
0.113032
0.115527
0.117332
0.118528
0.119149
0.119191
0.118634
0.117451
0.115623
0.113146
0.110027
0.106289
0.101966
0.0970982
0.0917328
0.0859229
0.0797165
0.0731744
0.0663214
0.0592451
0.0518741
0.0444648
0.0365353
0.0292064
0.0200835
0.0144435
0.000730965
-11.3238
-11.3751
-11.4357
-11.5059
-11.5866
-11.6784
-11.7812
-11.8946
-12.0174
-12.1478
-12.2834
-12.4215
-12.5588
-12.692
-12.8175
-12.9318
-13.0317
-13.1137
-13.175
-13.2125
-13.2238
-13.2062
-13.1577
-13.0759
-12.9589
-12.8049
-12.6122
-12.3794
-12.1053
-11.7892
-11.4309
-11.0309
-10.5905
-10.1117
-9.59797
-9.05356
-8.48393
-7.89555
-7.29573
-6.6923
-6.09336
-5.50679
-4.93991
-4.3991
-3.88954
-3.41507
-2.97814
-2.5799
-2.22035
-1.89857
-1.61286
-1.36102
-1.14052
-0.948631
-0.78256
-0.639573
-0.517039
-0.412492
-0.323651
-0.248443
-0.185002
-0.13167
-0.0869818
-0.0496563
-0.0185805
0.00720668
0.0285305
0.0460968
0.0605082
0.0722794
0.0818512
0.0896012
0.0958506
0.100867
0.104862
0.107991
0.110355
0.112005
0.112956
0.1132
0.112724
0.11152
0.109593
0.10696
0.103652
0.0997068
0.0951724
0.0900993
0.0845451
0.0785608
0.0722123
0.0655243
0.0585959
0.0513428
0.0440571
0.0361939
0.0290068
0.019845
0.0144815
0.000425027
-11.3296
-11.3793
-11.4371
-11.5034
-11.5786
-11.6632
-11.757
-11.8596
-11.9698
-12.0861
-12.2063
-12.328
-12.4485
-12.5645
-12.673
-12.7709
-12.8549
-12.9221
-12.9695
-12.9946
-12.9947
-12.9675
-12.9108
-12.8226
-12.701
-12.5443
-12.3509
-12.1196
-11.8494
-11.5397
-11.1906
-10.8024
-10.3766
-9.91533
-9.4216
-8.89952
-8.35412
-7.79133
-7.21778
-6.64063
-6.0672
-5.50468
-4.95977
-4.43836
-3.94532
-3.48432
-3.05784
-2.66717
-2.31256
-1.99337
-1.70826
-1.45538
-1.23251
-1.03722
-0.866997
-0.719338
-0.591806
-0.482094
-0.388051
-0.307704
-0.239264
-0.181128
-0.131872
-0.0902402
-0.0551345
-0.0256007
-0.000813694
0.0199368
0.0372611
0.0516833
0.0636555
0.073567
0.0817523
0.0884931
0.0940177
0.0984992
0.102056
0.104758
0.106635
0.107696
0.107939
0.107369
0.106
0.103859
0.100983
0.0974194
0.0932203
0.0884414
0.0831448
0.0773843
0.0712313
0.0647104
0.0579313
0.0507984
0.0436369
0.035844
0.0287948
0.0196072
0.0144965
0.000153132
-11.3316
-11.3792
-11.4339
-11.496
-11.5656
-11.643
-11.7281
-11.8203
-11.9187
-12.0217
-12.1276
-12.2341
-12.3387
-12.4387
-12.5313
-12.6136
-12.6826
-12.7357
-12.7701
-12.7832
-12.7728
-12.7364
-12.6721
-12.5779
-12.4521
-12.2929
-12.0992
-11.8696
-11.6035
-11.3004
-10.9602
-10.5838
-10.1723
-9.72788
-9.25343
-8.75276
-8.23049
-7.69205
-7.1435
-6.59131
-6.04215
-5.50256
-4.97867
-4.47592
-3.99886
-3.55103
-3.13488
-2.75181
-2.40229
-2.08594
-1.80173
-1.54811
-1.32317
-1.12479
-0.950694
-0.798608
-0.666289
-0.551589
-0.452487
-0.367113
-0.293759
-0.230881
-0.177098
-0.131183
-0.0920571
-0.0587753
-0.030515
-0.00656371
0.0136947
0.0307928
0.0451921
0.0572932
0.0674429
0.0759366
0.0830179
0.0888767
0.0936493
0.0974223
0.100243
0.102134
0.103109
0.103181
0.102376
0.100731
0.0982916
0.0951108
0.0912484
0.0867647
0.0817266
0.0761911
0.0702346
0.0638821
0.0572535
0.0502428
0.0432055
0.0354868
0.0285715
0.0193708
0.0144909
-8.74526e-05
-11.3298
-11.375
-11.4264
-11.4839
-11.5479
-11.6183
-11.695
-11.7773
-11.8645
-11.9551
-12.0475
-12.1398
-12.2296
-12.3147
-12.3923
-12.4599
-12.5149
-12.5547
-12.5767