/*--------------------------------*- C++ -*----------------------------------*\
  =========                 |
  \\      /  F ield         | OpenFOAM: The Open Source CFD Toolbox
   \\    /   O peration     | Website:  https://openfoam.org
    \\  /    A nd           | Version:  10
     \\/     M anipulation  |
\*---------------------------------------------------------------------------*/
FoamFile
{
    format      ascii;
    class       surfaceScalarField;
    location    "0.065";
    object      phi;
}
// * * * * * * * * * * * * * * * * * * * * * * * * * * * * * * * * * * * * * //

dimensions      [0 3 -1 0 0 0 0];

internalField   nonuniform List<scalar> 
13452
(
6.05769e-05
-3.08443e-07
6.03699e-05
2.06991e-07
5.98969e-05
4.73013e-07
5.92817e-05
6.15225e-07
5.86743e-05
6.07348e-07
5.81351e-05
5.39269e-07
5.76665e-05
4.68567e-07
5.72585e-05
4.08007e-07
5.68997e-05
3.58813e-07
5.658e-05
3.19626e-07
5.62918e-05
2.88279e-07
5.60289e-05
2.62824e-07
5.57872e-05
2.41794e-07
5.5563e-05
2.24135e-07
5.53539e-05
2.09103e-07
5.51577e-05
1.96179e-07
5.49727e-05
1.85006e-07
5.47974e-05
1.75338e-07
5.46304e-05
1.67016e-07
5.44704e-05
1.59944e-07
5.43163e-05
1.54086e-07
5.41669e-05
1.49464e-07
5.40207e-05
1.46162e-07
5.38764e-05
1.44361e-07
5.3732e-05
1.44354e-07
5.35853e-05
1.46745e-07
5.3433e-05
1.52294e-07
5.32696e-05
1.63355e-07
5.30869e-05
1.82752e-07
5.28694e-05
2.17468e-07
5.25684e-05
3.00965e-07
5.2153e-05
4.15425e-07
6.85774e-07
5.14672e-05
6.18026e-05
-1.20659e-07
6.17622e-05
2.47389e-07
6.18786e-05
3.56598e-07
6.20393e-05
4.54491e-07
6.21449e-05
5.0174e-07
6.21729e-05
5.11315e-07
6.21377e-05
5.03745e-07
6.20601e-05
4.85558e-07
6.19566e-05
4.62335e-07
6.18383e-05
4.37931e-07
6.17124e-05
4.14185e-07
6.15834e-05
3.91866e-07
6.14539e-05
3.71265e-07
6.13256e-05
3.52433e-07
6.11994e-05
3.35314e-07
6.10757e-05
3.19819e-07
6.09549e-05
3.05859e-07
6.08369e-05
2.93364e-07
6.07216e-05
2.8229e-07
6.06089e-05
2.72626e-07
6.04986e-05
2.644e-07
6.03904e-05
2.57693e-07
6.02839e-05
2.52646e-07
6.01787e-05
2.49493e-07
6.00745e-05
2.48596e-07
5.99707e-05
2.50537e-07
5.98668e-05
2.56223e-07
5.97631e-05
2.6708e-07
5.96596e-05
2.86225e-07
5.95622e-05
3.14893e-07
5.94921e-05
3.7103e-07
5.94785e-05
4.29053e-07
5.78044e-07
5.95862e-05
6.36611e-05
-2.03654e-08
6.37523e-05
1.56188e-07
6.38136e-05
2.95284e-07
6.38655e-05
4.02596e-07
6.39075e-05
4.59791e-07
6.39378e-05
4.80997e-07
6.39566e-05
4.84918e-07
6.39624e-05
4.79784e-07
6.39555e-05
4.69229e-07
6.39376e-05
4.55827e-07
6.39107e-05
4.41119e-07
6.38765e-05
4.25997e-07
6.38368e-05
4.11026e-07
6.37926e-05
3.96559e-07
6.37451e-05
3.82816e-07
6.3695e-05
3.69943e-07
6.36428e-05
3.58047e-07
6.3589e-05
3.47218e-07
6.35337e-05
3.37549e-07
6.34772e-05
3.29148e-07
6.34194e-05
3.22152e-07
6.33604e-05
3.16742e-07
6.32999e-05
3.13169e-07
6.32376e-05
3.11777e-07
6.31731e-05
3.13061e-07
6.3106e-05
3.17712e-07
6.30353e-05
3.26844e-07
6.29607e-05
3.41742e-07
6.28812e-05
3.65692e-07
6.27971e-05
3.99034e-07
6.27132e-05
4.54928e-07
6.26249e-05
5.17291e-07
6.34085e-07
6.25689e-05
6.55758e-05
-1.30682e-08
6.5553e-05
1.7893e-07
6.55633e-05
2.85058e-07
6.56031e-05
3.62708e-07
6.5651e-05
4.11889e-07
6.56947e-05
4.37324e-07
6.57306e-05
4.49087e-07
6.57582e-05
4.52135e-07
6.57782e-05
4.49243e-07
6.57913e-05
4.42746e-07
6.57982e-05
4.34165e-07
6.57998e-05
4.24417e-07
6.57967e-05
4.1412e-07
6.57896e-05
4.03707e-07
6.57789e-05
3.93489e-07
6.57651e-05
3.83704e-07
6.57486e-05
3.74548e-07
6.57296e-05
3.66199e-07
6.57084e-05
3.58829e-07
6.56849e-05
3.52627e-07
6.56592e-05
3.47806e-07
6.56313e-05
3.44628e-07
6.56011e-05
3.43425e-07
6.55682e-05
3.44626e-07
6.55325e-05
3.48817e-07
6.54934e-05
3.56761e-07
6.54507e-05
3.6961e-07
6.54038e-05
3.8864e-07
6.5353e-05
4.16481e-07
6.52981e-05
4.53958e-07
6.52448e-05
5.08221e-07
6.51904e-05
5.71612e-07
6.61906e-07
6.51626e-05
6.74264e-05
1.73242e-08
6.74509e-05
1.54391e-07
6.74786e-05
2.57407e-07
6.75087e-05
3.32631e-07
6.75383e-05
3.82237e-07
6.75668e-05
4.08881e-07
6.75939e-05
4.2197e-07
6.76189e-05
4.27068e-07
6.76413e-05
4.26908e-07
6.76606e-05
4.23457e-07
6.76767e-05
4.1799e-07
6.76899e-05
4.11294e-07
6.77001e-05
4.03914e-07
6.77075e-05
3.96255e-07
6.77124e-05
3.88626e-07
6.77148e-05
3.81279e-07
6.77149e-05
3.74436e-07
6.77128e-05
3.68306e-07
6.77085e-05
3.63101e-07
6.77021e-05
3.59048e-07
6.76935e-05
3.56411e-07
6.76826e-05
3.55497e-07
6.76694e-05
3.56691e-07
6.76535e-05
3.60471e-07
6.76349e-05
3.67462e-07
6.76132e-05
3.78451e-07
6.75883e-05
3.94534e-07
6.756e-05
4.16904e-07
6.75289e-05
4.47608e-07
6.74953e-05
4.87569e-07
6.74627e-05
5.40809e-07
6.74305e-05
6.03834e-07
6.83777e-07
6.74086e-05
6.93767e-05
2.46784e-08
6.93859e-05
1.45135e-07
6.94037e-05
2.3968e-07
6.9429e-05
3.07311e-07
6.94577e-05
3.53541e-07
6.94859e-05
3.80623e-07
6.95125e-05
3.95385e-07
6.95371e-05
4.02464e-07
6.95597e-05
4.04345e-07
6.95803e-05
4.02876e-07
6.95989e-05
3.99333e-07
6.96157e-05
3.9452e-07
6.96306e-05
3.8899e-07
6.96437e-05
3.8315e-07
6.9655e-05
3.77311e-07
6.96646e-05
3.71733e-07
6.96724e-05
3.66648e-07
6.96784e-05
3.6228e-07
6.96826e-05
3.58859e-07
6.96851e-05
3.56637e-07
6.96856e-05
3.55899e-07
6.96841e-05
3.56981e-07
6.96805e-05
3.60289e-07
6.96746e-05
3.66321e-07
6.96664e-05
3.75702e-07
6.96557e-05
3.8919e-07
6.96424e-05
4.07775e-07
6.96268e-05
4.32513e-07
6.96095e-05
4.64943e-07
6.95911e-05
5.05928e-07
6.95742e-05
5.5769e-07
6.95593e-05
6.18736e-07
6.91631e-07
6.95515e-05
7.13592e-05
3.18386e-08
7.13705e-05
1.33852e-07
7.13909e-05
2.19228e-07
7.1416e-05
2.82226e-07
7.14426e-05
3.26982e-07
7.14683e-05
3.54904e-07
7.14926e-05
3.71015e-07
7.15156e-05
3.79475e-07
7.15372e-05
3.82746e-07
7.15575e-05
3.82625e-07
7.15764e-05
3.80376e-07
7.15941e-05
3.76823e-07
7.16106e-05
3.72537e-07
7.16258e-05
3.67938e-07
7.16398e-05
3.63351e-07
7.16524e-05
3.59047e-07
7.16638e-05
3.55268e-07
7.16739e-05
3.52249e-07
7.16825e-05
3.50233e-07
7.16896e-05
3.49481e-07
7.16952e-05
3.50293e-07
7.16992e-05
3.53012e-07
7.17015e-05
3.58049e-07
7.17019e-05
3.65894e-07
7.17004e-05
3.7714e-07
7.16971e-05
3.92487e-07
7.16921e-05
4.1279e-07
7.16857e-05
4.38942e-07
7.16786e-05
4.72073e-07
7.16716e-05
5.12899e-07
7.16667e-05
5.62641e-07
7.16647e-05
6.20689e-07
6.87767e-07
7.16686e-05
7.34032e-05
3.3933e-08
7.34135e-05
1.23535e-07
7.34316e-05
2.01161e-07
7.34541e-05
2.59692e-07
7.34789e-05
3.02203e-07
7.35037e-05
3.30083e-07
7.35276e-05
3.47097e-07
7.35503e-05
3.56755e-07
7.35718e-05
3.61302e-07
7.3592e-05
3.62398e-07
7.36111e-05
3.6127e-07
7.36292e-05
3.58758e-07
7.36463e-05
3.55459e-07
7.36624e-05
3.51822e-07
7.36775e-05
3.48193e-07
7.36917e-05
3.44862e-07
7.37049e-05
3.42085e-07
7.3717e-05
3.4011e-07
7.37281e-05
3.39188e-07
7.3738e-05
3.3959e-07
7.37466e-05
3.41615e-07
7.37541e-05
3.45608e-07
7.37601e-05
3.51966e-07
7.37649e-05
3.61154e-07
7.37683e-05
3.73714e-07
7.37705e-05
3.90264e-07
7.37718e-05
4.11515e-07
7.37725e-05
4.38191e-07
7.37735e-05
4.71101e-07
7.37756e-05
5.10781e-07
7.37804e-05
5.57878e-07
7.3789e-05
6.12116e-07
6.7347e-07
7.38033e-05
7.55021e-05
3.42728e-08
7.55118e-05
1.13884e-07
7.55288e-05
1.84104e-07
7.55502e-05
2.38331e-07
7.55738e-05
2.78603e-07
7.55977e-05
3.06165e-07
7.5621e-05
3.23798e-07
7.56434e-05
3.344e-07
7.56647e-05
3.40004e-07
7.56849e-05
3.42147e-07
7.57042e-05
3.42e-07
7.57225e-05
3.40398e-07
7.57401e-05
3.37955e-07
7.57567e-05
3.35133e-07
7.57726e-05
3.32301e-07
7.57877e-05
3.29764e-07
7.5802e-05
3.27793e-07
7.58155e-05
3.26645e-07
7.58281e-05
3.26581e-07
7.58398e-05
3.27871e-07
7.58506e-05
3.30814e-07
7.58605e-05
3.35742e-07
7.58694e-05
3.43031e-07
7.58775e-05
3.53104e-07
7.58847e-05
3.66441e-07
7.58914e-05
3.83567e-07
7.58979e-05
4.05054e-07
7.59046e-05
4.31459e-07
7.59124e-05
4.63338e-07
7.59221e-05
5.01051e-07
7.59351e-05
5.44897e-07
7.59525e-05
5.94683e-07
6.50058e-07
7.59759e-05
7.76606e-05
3.32599e-08
7.76698e-05
1.04659e-07
7.76857e-05
1.68225e-07
7.77056e-05
2.18407e-07
7.77279e-05
2.56367e-07
7.77508e-05
2.83212e-07
7.77735e-05
3.01058e-07
7.77957e-05
3.12292e-07
7.78169e-05
3.18723e-07
7.78373e-05
3.21749e-07
7.78569e-05
3.22461e-07
7.78756e-05
3.21673e-07
7.78936e-05
3.19993e-07
7.79108e-05
3.17894e-07
7.79273e-05
3.15755e-07
7.79432e-05
3.13893e-07
7.79584e-05
3.1259e-07
7.7973e-05
3.12109e-07
7.79868e-05
3.12713e-07
7.8e-05
3.1467e-07
7.80126e-05
3.1827e-07
7.80245e-05
3.23825e-07
7.80358e-05
3.31679e-07
7.80467e-05
3.42209e-07
7.80573e-05
3.55824e-07
7.8068e-05
3.72953e-07
7.8079e-05
3.94035e-07
7.8091e-05
4.19477e-07
7.81047e-05
4.49634e-07
7.8121e-05
4.84706e-07
7.81411e-05
5.2477e-07
7.81662e-05
5.69607e-07
6.18719e-07
7.81976e-05
7.98801e-05
3.15135e-08
7.98888e-05
9.59047e-08
7.99036e-05
1.53429e-07
7.99223e-05
1.99702e-07
7.99434e-05
2.35285e-07
7.99655e-05
2.61133e-07
7.99877e-05
2.78883e-07
8.00095e-05
2.90481e-07
8.00307e-05
2.97513e-07
8.00512e-05
3.01237e-07
8.0071e-05
3.02664e-07
8.00901e-05
3.02571e-07
8.01085e-05
3.01554e-07
8.01263e-05
3.00084e-07
8.01435e-05
2.98542e-07
8.01602e-05
2.97251e-07
8.01763e-05
2.96495e-07
8.01919e-05
2.9654e-07
8.02069e-05
2.97644e-07
8.02215e-05
3.00068e-07
8.02357e-05
3.04085e-07
8.02495e-05
3.09983e-07
8.02632e-05
3.18066e-07
8.02767e-05
3.28659e-07
8.02904e-05
3.42097e-07
8.03047e-05
3.58715e-07
8.03199e-05
3.78835e-07
8.03366e-05
4.02726e-07
8.03557e-05
4.30588e-07
8.03779e-05
4.62484e-07
8.04043e-05
4.9834e-07
8.04361e-05
5.37879e-07
5.80536e-07
8.04742e-05
8.21626e-05
2.93684e-08
8.21709e-05
8.75643e-08
8.21848e-05
1.39591e-07
8.22024e-05
1.82105e-07
8.22224e-05
2.15285e-07
8.22436e-05
2.39918e-07
8.22652e-05
2.57295e-07
8.22867e-05
2.68996e-07
8.23078e-05
2.764e-07
8.23284e-05
2.80634e-07
8.23484e-05
2.82623e-07
8.23679e-05
2.83098e-07
8.23868e-05
2.82632e-07
8.24052e-05
2.81687e-07
8.24231e-05
2.8064e-07
8.24405e-05
2.7981e-07
8.24576e-05
2.79481e-07
8.24742e-05
2.79912e-07
8.24905e-05
2.81353e-07
8.25065e-05
2.84052e-07
8.25223e-05
2.88258e-07
8.25381e-05
2.94228e-07
8.25539e-05
3.02227e-07
8.25701e-05
3.12521e-07
8.25868e-05
3.25374e-07
8.26045e-05
3.41033e-07
8.26236e-05
3.59714e-07
8.26447e-05
3.81571e-07
8.26686e-05
4.06679e-07
8.26961e-05
4.34993e-07
8.27281e-05
4.66332e-07
8.27657e-05
5.00366e-07
5.36501e-07
8.28097e-05
8.45101e-05
2.70401e-08
8.4518e-05
7.96227e-08
8.4531e-05
1.26611e-07
8.45476e-05
1.65502e-07
8.45667e-05
1.96255e-07
8.45871e-05
2.19501e-07
8.46081e-05
2.36266e-07
8.46293e-05
2.4784e-07
8.46502e-05
2.55407e-07
8.46709e-05
2.59969e-07
8.46912e-05
2.62363e-07
8.4711e-05
2.63269e-07
8.47304e-05
2.63234e-07
8.47494e-05
2.62701e-07
8.4768e-05
2.62035e-07
8.47863e-05
2.6155e-07
8.48042e-05
2.6152e-07
8.48219e-05
2.62194e-07
8.48395e-05
2.63807e-07
8.48569e-05
2.66589e-07
8.48744e-05
2.70763e-07
8.48921e-05
2.76551e-07
8.49102e-05
2.84174e-07
8.49288e-05
2.9384e-07
8.49485e-05
3.05747e-07
8.49694e-05
3.20061e-07
8.49923e-05
3.36907e-07
8.50175e-05
3.56343e-07
8.50458e-05
3.78348e-07
8.5078e-05
4.02793e-07
8.51149e-05
4.29424e-07
8.51574e-05
4.57874e-07
4.8755e-07
8.52064e-05
8.69245e-05
2.46557e-08
8.69321e-05
7.20568e-08
8.69443e-05
1.14387e-07
8.69601e-05
1.49784e-07
8.69782e-05
1.78097e-07
8.69979e-05
1.99818e-07
8.70184e-05
2.15772e-07
8.70392e-05
2.27009e-07
8.70601e-05
2.34543e-07
8.70808e-05
2.39255e-07
8.71013e-05
2.41898e-07
8.71214e-05
2.43098e-07
8.71413e-05
2.43367e-07
8.71609e-05
2.43125e-07
8.71802e-05
2.42723e-07
8.71993e-05
2.42458e-07
8.72182e-05
2.42593e-07
8.7237e-05
2.43363e-07
8.72559e-05
2.44984e-07
8.72748e-05
2.47661e-07
8.7294e-05
2.5159e-07
8.73136e-05
2.56956e-07
8.73338e-05
2.63934e-07
8.7355e-05
2.72681e-07
8.73774e-05
2.83329e-07
8.74015e-05
2.95975e-07
8.74277e-05
3.10667e-07
8.74567e-05
3.27388e-07
8.7489e-05
3.46042e-07
8.75253e-05
3.6644e-07
8.75665e-05
3.88285e-07
8.76131e-05
4.11186e-07
4.34576e-07
8.76661e-05
8.94079e-05
2.22879e-08
8.94151e-05
6.4844e-08
8.94267e-05
1.02828e-07
8.94416e-05
1.34849e-07
8.9459e-05
1.60715e-07
8.9478e-05
1.808e-07
8.9498e-05
1.95771e-07
8.95185e-05
2.06485e-07
8.95393e-05
2.13803e-07
8.956e-05
2.18496e-07
8.95807e-05
2.21236e-07
8.96012e-05
2.22591e-07
8.96215e-05
2.23035e-07
8.96417e-05
2.22961e-07
8.96617e-05
2.22699e-07
8.96817e-05
2.22529e-07
8.97016e-05
2.22694e-07
8.97215e-05
2.23412e-07
8.97416e-05
2.24878e-07
8.9762e-05
2.2727e-07
8.97828e-05
2.30754e-07
8.98043e-05
2.35477e-07
8.98267e-05
2.41572e-07
8.98502e-05
2.49144e-07
8.98753e-05
2.58271e-07
8.99023e-05
2.68989e-07
8.99316e-05
2.81285e-07
8.99639e-05
2.95083e-07
8.99998e-05
3.10233e-07
9.00397e-05
3.26507e-07
9.00844e-05
3.43584e-07
9.01345e-05
3.61071e-07
3.7844e-07
9.01906e-05
9.19622e-05
1.9975e-08
9.19691e-05
5.7958e-08
9.198e-05
9.18512e-08
9.19943e-05
1.20604e-07
9.2011e-05
1.44019e-07
9.20294e-05
1.62378e-07
9.2049e-05
1.76217e-07
9.20692e-05
1.86241e-07
9.20898e-05
1.93176e-07
9.21106e-05
1.97689e-07
9.21315e-05
2.00377e-07
9.21523e-05
2.01751e-07
9.21731e-05
2.02241e-07
9.21939e-05
2.02211e-07
9.22146e-05
2.01965e-07
9.22354e-05
2.01762e-07
9.22562e-05
2.01825e-07
9.22773e-05
2.02348e-07
9.22987e-05
2.03504e-07
9.23205e-05
2.05442e-07
9.2343e-05
2.08297e-07
9.23663e-05
2.12182e-07
9.23906e-05
2.17186e-07
9.24164e-05
2.23372e-07
9.24439e-05
2.30769e-07
9.24735e-05
2.39363e-07
9.25057e-05
2.49093e-07
9.2541e-05
2.59841e-07
9.25798e-05
2.71421e-07
9.26227e-05
2.83582e-07
9.26703e-05
2.95999e-07
9.27231e-05
3.08287e-07
3.19972e-07
9.27816e-05
9.45894e-05
1.77341e-08
9.4596e-05
5.13707e-08
9.46065e-05
8.13821e-08
9.46201e-05
1.06962e-07
9.46362e-05
1.27925e-07
9.46541e-05
1.44481e-07
9.46732e-05
1.57063e-07
9.46932e-05
1.66246e-07
9.47138e-05
1.72642e-07
9.47346e-05
1.76826e-07
9.47557e-05
1.7932e-07
9.47769e-05
1.80577e-07
9.47981e-05
1.80988e-07
9.48194e-05
1.80879e-07
9.48409e-05
1.80528e-07
9.48625e-05
1.80169e-07
9.48843e-05
1.80001e-07
9.49065e-05
1.80194e-07
9.49291e-05
1.80895e-07
9.49523e-05
1.82227e-07
9.49763e-05
1.84293e-07
9.50013e-05
1.87171e-07
9.50276e-05
1.90914e-07
9.50554e-05
1.95547e-07
9.50851e-05
2.01058e-07
9.51171e-05
2.07395e-07
9.51517e-05
2.14461e-07
9.51894e-05
2.22106e-07
9.52307e-05
2.30128e-07
9.5276e-05
2.38266e-07
9.53258e-05
2.46204e-07
9.53806e-05
2.53578e-07
2.59972e-07
9.54406e-05
9.72917e-05
1.55701e-08
9.7298e-05
4.50521e-08
9.7308e-05
7.13532e-08
9.73211e-05
9.38423e-08
9.73367e-05
1.12355e-07
9.73542e-05
1.27042e-07
9.7373e-05
1.38255e-07
9.73927e-05
1.46464e-07
9.74132e-05
1.5218e-07
9.74341e-05
1.55894e-07
9.74554e-05
1.58058e-07
9.74769e-05
1.59072e-07
9.74986e-05
1.59279e-07
9.75205e-05
1.58974e-07
9.75426e-05
1.58401e-07
9.75651e-05
1.57768e-07
9.75878e-05
1.57249e-07
9.7611e-05
1.56989e-07
9.76348e-05
1.57107e-07
9.76593e-05
1.577e-07
9.76848e-05
1.58841e-07
9.77114e-05
1.60577e-07
9.77394e-05
1.62929e-07
9.7769e-05
1.65888e-07
9.78007e-05
1.69411e-07
9.78346e-05
1.73418e-07
9.78713e-05
1.77785e-07
9.79111e-05
1.82348e-07
9.79543e-05
1.86894e-07
9.80014e-05
1.91168e-07
9.80527e-05
1.94869e-07
9.81087e-05
1.97667e-07
1.99203e-07
9.81694e-05
0.000100071
1.34807e-08
0.000100077
3.89719e-08
0.000100087
6.17033e-08
0.0001001
8.11717e-08
0.000100115
9.72328e-08
0.000100132
1.09996e-07
0.00010015
1.19743e-07
0.00010017
1.26858e-07
0.00010019
1.31764e-07
0.000100211
1.34878e-07
0.000100233
1.36586e-07
0.000100255
1.37234e-07
0.000100277
1.37123e-07
0.000100299
1.36509e-07
0.000100322
1.35605e-07
0.000100345
1.34591e-07
0.000100369
1.33613e-07
0.000100393
1.32791e-07
0.000100418
1.32217e-07
0.000100444
1.31961e-07
0.00010047
1.3207e-07
0.000100498
1.32562e-07
0.000100528
1.33432e-07
0.000100559
1.34645e-07
0.000100592
1.36132e-07
0.000100628
1.37793e-07
0.000100666
1.3949e-07
0.000100708
1.41051e-07
0.000100752
1.42265e-07
0.000100801
1.4289e-07
0.000100853
1.42651e-07
0.000100909
1.41251e-07
1.38392e-07
0.00010097
0.00010293
1.14597e-08
0.000102936
3.30997e-08
0.000102945
5.23765e-08
0.000102958
6.8882e-08
0.000102972
8.24904e-08
0.000102989
9.32801e-08
0.000103007
1.01474e-07
0.000103027
1.07387e-07
0.000103047
1.11367e-07
0.000103068
1.13761e-07
0.00010309
1.14896e-07
0.000103112
1.15067e-07
0.000103135
1.14531e-07
0.000103158
1.13505e-07
0.000103181
1.12172e-07
0.000103205
1.10681e-07
0.00010323
1.09151e-07
0.000103255
1.07674e-07
0.000103281
1.06321e-07
0.000103307
1.05134e-07
0.000103335
1.04134e-07
0.000103365
1.03319e-07
0.000103395
1.02658e-07
0.000103428
1.02097e-07
0.000103462
1.0155e-07
0.000103499
1.00904e-07
0.000103539
1.00015e-07
0.000103581
9.87108e-08
0.000103627
9.67912e-08
0.000103676
9.4032e-08
0.000103728
9.01874e-08
0.000103784
8.49988e-08
7.82268e-08
0.000103844
0.000105871
9.49933e-09
0.000105876
2.74062e-08
0.000105885
4.33219e-08
0.000105897
5.69102e-08
0.000105912
6.80621e-08
0.000105928
7.68321e-08
0.000105946
8.33975e-08
0.000105966
8.80118e-08
0.000105986
9.09592e-08
0.000106007
9.25256e-08
0.000106029
9.29824e-08
0.000106052
9.25751e-08
0.000106075
9.1517e-08
0.000106098
8.99895e-08
0.000106122
8.81417e-08
0.000106147
8.60926e-08
0.000106172
8.39342e-08
0.000106198
8.17338e-08
0.000106225
7.95366e-08
0.000106253
7.73632e-08
0.000106282
7.52126e-08
0.000106312
7.30614e-08
0.000106344
7.08629e-08
0.000106377
6.8546e-08
0.000106413
6.60153e-08
0.00010645
6.31512e-08
0.000106491
5.98104e-08
0.000106534
5.58271e-08
0.000106579
5.10161e-08
0.000106628
4.51761e-08
0.00010668
3.80934e-08
0.000106736
2.95472e-08
1.93528e-08
0.000106795
0.000108895
7.591e-09
0.000108901
2.18638e-08
0.00010891
3.44935e-08
0.000108921
4.51991e-08
0.000108936
5.38874e-08
0.000108952
6.05949e-08
0.00010897
6.54617e-08
0.000108989
6.86912e-08
0.00010901
7.05118e-08
0.000109031
7.11543e-08
0.000109053
7.08386e-08
0.000109076
6.97637e-08
0.000109099
6.81001e-08
0.000109123
6.59938e-08
0.000109148
6.35611e-08
0.000109173
6.08911e-08
0.000109199
5.80489e-08
0.000109226
5.50766e-08
0.000109253
5.19995e-08
0.000109282
4.8815e-08
0.000109311
4.55037e-08
0.000109342
4.20264e-08
0.000109375
3.83225e-08
0.000109409
3.43118e-08
0.000109445
2.98923e-08
0.000109484
2.49447e-08
0.000109524
1.93303e-08
0.000109567
1.28955e-08
0.000109612
5.47289e-09
0.000109661
-3.11293e-09
0.000109712
-1.30441e-08
0.000109766
-2.45031e-08
-3.76263e-08
0.000109823
0.000112006
5.72609e-09
0.000112012
1.64458e-08
0.00011202
2.58473e-08
0.000112032
3.36924e-08
0.000112046
3.99057e-08
0.000112062
4.45091e-08
0.00011208
4.76137e-08
0.000112099
4.93815e-08
0.00011212
4.99922e-08
0.000112141
4.96272e-08
0.000112164
4.84586e-08
0.000112187
4.66421e-08
0.00011221
4.43043e-08
0.000112235
4.15586e-08
0.00011226
3.84886e-08
0.000112286
3.51543e-08
0.000112312
3.15948e-08
0.000112339
2.78258e-08
0.000112368
2.38622e-08
0.000112397
1.96716e-08
0.000112427
1.52235e-08
0.000112459
1.04657e-08
0.000112492
5.32833e-09
0.000112526
-2.73871e-10
0.000112562
-6.44664e-09
0.000112601
-1.3303e-08
0.000112641
-2.09737e-08
0.000112684
-2.95977e-08
0.000112728
-3.93218e-08
0.000112776
-5.02955e-08
0.000112825
-6.26688e-08
0.000112877
-7.65892e-08
-9.21492e-08
0.000112932
0.000115206
3.89816e-09
0.000115212
1.11326e-08
0.00011522
1.73514e-08
0.000115231
2.23466e-08
0.000115245
2.60678e-08
0.000115261
2.85235e-08
0.000115279
2.98048e-08
0.000115298
3.00397e-08
0.000115319
2.93661e-08
0.000115341
2.79206e-08
0.000115363
2.58315e-08
0.000115387
2.32132e-08
0.000115411
2.01464e-08
0.000115436
1.67202e-08
0.000115461
1.29813e-08
0.000115488
8.96244e-09
0.000115514
4.67958e-09
0.000115542
1.05252e-10
0.000115571
-4.7132e-09
0.0001156
-9.87498e-09
0.000115631
-1.5402e-08
0.000115663
-2.13586e-08
0.000115696
-2.78208e-08
0.00011573
-3.4877e-08
0.000115767
-4.26279e-08
0.000115805
-5.1183e-08
0.000115844
-6.06599e-08
0.000115886
-7.11818e-08
0.000115929
-8.28737e-08
0.000115975
-9.58599e-08
0.000116023
-1.1026e-07
0.000116072
-1.26189e-07
-1.43702e-07
0.000116124
0.000118498
2.09551e-09
0.000118503
5.89386e-09
0.000118511
8.95524e-09
0.000118523
1.10981e-08
0.000118536
1.23094e-08
0.000118552
1.25727e-08
0.00011857
1.19761e-08
0.00011859
1.06183e-08
0.00011861
8.59972e-09
0.000118632
6.01575e-09
0.000118655
2.95516e-09
0.000118679
-4.9458e-10
0.000118703
-4.33555e-09
0.000118728
-8.46564e-09
0.000118754
-1.28867e-08
0.000118781
-1.7591e-08
0.000118808
-2.25885e-08
0.000118836
-2.79052e-08
0.000118865
-3.35626e-08
0.000118895
-3.96221e-08
0.000118925
-4.61378e-08
0.000118957
-5.31782e-08
0.00011899
-6.08228e-08
0.000119025
-6.91592e-08
0.00011906
-7.82836e-08
0.000119097
-8.82964e-08
0.000119136
-9.93027e-08
0.000119176
-1.11408e-07
0.000119218
-1.24717e-07
0.000119262
-1.39328e-07
0.000119307
-1.55335e-07
0.000119353
-1.72823e-07
-1.91814e-07
0.000119401
0.000121883
3.321e-10
0.000121888
7.52468e-10
0.000121896
6.85215e-10
0.000121908
-7.19366e-11
0.000121921
-1.39623e-09
0.000121937
-3.38752e-09
0.000121955
-5.92883e-09
0.000121975
-8.94619e-09
0.000121996
-1.23688e-08
0.000122018
-1.61384e-08
0.000122041
-2.0209e-08
0.000122065
-2.45462e-08
0.00012209
-2.91425e-08
0.000122115
-3.39777e-08
0.000122142
-3.90655e-08
0.000122168
-4.44266e-08
0.000122196
-5.00921e-08
0.000122224
-5.61038e-08
0.000122253
-6.25087e-08
0.000122283
-6.93687e-08
0.000122313
-7.67505e-08
0.000122345
-8.47275e-08
0.000122378
-9.33797e-08
0.000122411
-1.02793e-07
0.000122446
-1.13056e-07
0.000122482
-1.24259e-07
0.000122519
-1.36495e-07
0.000122558
-1.49852e-07
0.000122597
-1.64414e-07
0.000122638
-1.80258e-07
0.00012268
-1.97452e-07
0.000122724
-2.16057e-07
-2.36069e-07
0.000122768
0.000125365
-1.45889e-09
0.00012537
-4.41241e-09
0.000125379
-7.61582e-09
0.00012539
-1.12093e-08
0.000125404
-1.51536e-08
0.00012542
-1.94295e-08
0.000125438
-2.39555e-08
0.000125457
-2.86702e-08
0.000125479
-3.35325e-08
0.000125501
-3.85191e-08
0.000125524
-4.36213e-08
0.000125549
-4.88427e-08
0.000125574
-5.42048e-08
0.000125599
-5.97302e-08
0.000125626
-6.54557e-08
0.000125653
-7.14272e-08
0.00012568
-7.7697e-08
0.000125709
-8.43237e-08
0.000125738
-9.13706e-08
0.000125767
-9.89071e-08
0.000125797
-1.07007e-07
0.000125828
-1.15747e-07
0.00012586
-1.25206e-07
0.000125893
-1.35467e-07
0.000125926
-1.4661e-07
0.000125961
-1.58718e-07
0.000125996
-1.71867e-07
0.000126033
-1.8613e-07
0.00012607
-2.01574e-07
0.000126108
-2.18255e-07
0.000126146
-2.3622e-07
0.000126186
-2.55507e-07
-2.7609e-07
0.000126226
0.000128947
-3.08453e-09
0.000128952
-9.31934e-09
0.00012896
-1.56701e-08
0.000128971
-2.22526e-08
0.000128985
-2.89532e-08
0.000129001
-3.56623e-08
0.000129019
-4.22883e-08
0.000129039
-4.87798e-08
0.000129061
-5.5126e-08
0.000129084
-6.13437e-08
0.000129107
-6.74674e-08
0.000129132
-7.35433e-08
0.000129158
-7.96279e-08
0.000129184
-8.57808e-08
0.00012921
-9.20678e-08
0.000129237
-9.85593e-08
0.000129265
-1.05328e-07
0.000129293
-1.12448e-07
0.000129322
-1.19996e-07
0.000129351
-1.28049e-07
0.000129381
-1.36685e-07
0.000129411
-1.45983e-07
0.000129442
-1.5602e-07
0.000129473
-1.66875e-07
0.000129505
-1.7862e-07
0.000129538
-1.91326e-07
0.000129571
-2.05059e-07
0.000129605
-2.19876e-07
0.000129639
-2.35827e-07
0.000129674
-2.52953e-07
0.000129709
-2.71281e-07
0.000129744
-2.90832e-07
-3.11565e-07
0.000129779
0.000132631
-5.09503e-09
0.000132636
-1.45996e-08
0.000132645
-2.4019e-08
0.000132656
-3.34743e-08
0.00013267
-4.28348e-08
0.000132686
-5.19397e-08
0.000132704
-6.0671e-08
0.000132725
-6.89701e-08
0.000132746
-7.68389e-08
0.000132769
-8.43217e-08
0.000132793
-9.14881e-08
0.000132818
-9.84212e-08
0.000132844
-1.05213e-07
0.00013287
-1.11956e-07
0.000132897
-1.18746e-07
0.000132924
-1.25677e-07
0.000132951
-1.32841e-07
0.000132979
-1.40329e-07
0.000133007
-1.48229e-07
0.000133036
-1.56625e-07
0.000133065
-1.65601e-07
0.000133094
-1.75236e-07
0.000133124
-1.85607e-07
0.000133154
-1.96785e-07
0.000133184
-2.08838e-07
0.000133214
-2.21826e-07
0.000133245
-2.35804e-07
0.000133276
-2.50816e-07
0.000133307
-2.66899e-07
0.000133338
-2.84077e-07
0.000133369
-3.02365e-07
0.0001334
-3.21769e-07
-3.42234e-07
0.000133431
0.000136419
-5.91691e-09
0.000136423
-1.86415e-08
0.000136431
-3.15693e-08
0.000136442
-4.45942e-08
0.000136456
-5.72141e-08
0.000136473
-6.91047e-08
0.000136493
-8.01309e-08
0.000136514
-9.02814e-08
0.000136537
-9.96231e-08
0.000136561
-1.08266e-07
0.000136586
-1.16338e-07
0.000136611
-1.23976e-07
0.000136637
-1.31314e-07
0.000136664
-1.38483e-07
0.000136691
-1.45607e-07
0.000136718
-1.52803e-07
0.000136745
-1.60183e-07
0.000136773
-1.67848e-07
0.0001368
-1.75898e-07
0.000136828
-1.84421e-07
0.000136856
-1.93505e-07
0.000136884
-2.03228e-07
0.000136912
-2.13663e-07
0.00013694
-2.24878e-07
0.000136968
-2.36932e-07
0.000136996
-2.49878e-07
0.000137024
-2.6376e-07
0.000137052
-2.78612e-07
0.00013708
-2.94458e-07
0.000137107
-3.11313e-07
0.000137134
-3.29179e-07
0.00013716
-3.48051e-07
-3.67868e-07
0.000137186
0.000140319
-9.45098e-09
0.000140325
-2.46387e-08
0.000140334
-3.99329e-08
0.000140345
-5.54585e-08
0.000140358
-7.07756e-08
0.000140374
-8.53228e-08
0.000140393
-9.87567e-08
0.000140414
-1.10967e-07
0.000140436
-1.22004e-07
0.00014046
-1.31999e-07
0.000140485
-1.41124e-07
0.00014051
-1.49559e-07
0.000140536
-1.57486e-07
0.000140563
-1.65075e-07
0.00014059
-1.72483e-07
0.000140617
-1.79856e-07
0.000140644
-1.87326e-07
0.000140671
-1.95014e-07
0.000140698
-2.03029e-07
0.000140725
-2.1147e-07
0.000140752
-2.20425e-07
0.000140779
-2.29977e-07
0.000140805
-2.40196e-07
0.000140832
-2.51146e-07
0.000140858
-2.62883e-07
0.000140883
-2.7545e-07
0.000140908
-2.88885e-07
0.000140933
-3.03213e-07
0.000140957
-3.18449e-07
0.00014098
-3.34599e-07
0.000141003
-3.51657e-07
0.000141024
-3.69609e-07
-3.8839e-07
0.000141045
0.000144322
-6.5727e-09
0.000144323
-2.5757e-08
0.00014433
-4.66463e-08
0.000144342
-6.77173e-08
0.000144358
-8.74343e-08
0.000144378
-1.05198e-07
0.000144401
-1.20943e-07
0.000144424
-1.34809e-07
0.000144449
-1.47021e-07
0.000144475
-1.57831e-07
0.000144502
-1.675e-07
0.000144528
-1.76275e-07
0.000144555
-1.84386e-07
0.000144582
-1.92038e-07
0.000144609
-1.99413e-07
0.000144636
-2.06674e-07
0.000144663
-2.13967e-07
0.000144689
-2.2142e-07
0.000144715
-2.29147e-07
0.000144741
-2.3725e-07
0.000144766
-2.45817e-07
0.000144791
-2.54927e-07
0.000144816
-2.6465e-07
0.00014484
-2.75044e-07
0.000144863
-2.86157e-07
0.000144885
-2.9803e-07
0.000144907
-3.10691e-07
0.000144928
-3.24161e-07
0.000144948
-3.38447e-07
0.000144967
-3.53549e-07
0.000144985
-3.69456e-07
0.000145001
-3.8615e-07
-4.03566e-07
0.000145017
0.000148457
-1.55278e-08
0.000148464
-3.27582e-08
0.00014847
-5.2588e-08
0.000148477
-7.51897e-08
0.000148488
-9.83823e-08
0.000148503
-1.201e-07
0.000148522
-1.39363e-07
0.000148543
-1.56069e-07
0.000148566
-1.70463e-07
0.000148591
-1.82878e-07
0.000148618
-1.93666e-07
0.000148644
-2.03167e-07
0.000148672
-2.11687e-07
0.000148699
-2.19498e-07
0.000148727
-2.26835e-07
0.000148754
-2.339e-07
0.000148781
-2.4087e-07
0.000148807
-2.47893e-07
0.000148833
-2.55098e-07
0.000148858
-2.62598e-07
0.000148883
-2.70488e-07
0.000148907
-2.78848e-07
0.00014893
-2.87748e-07
0.000148952
-2.97244e-07
0.000148974
-3.07384e-07
0.000148994
-3.18202e-07
0.000149013
-3.29723e-07
0.000149031
-3.41963e-07
0.000149047
-3.54926e-07
0.000149062
-3.68606e-07
0.000149076
-3.8299e-07
0.000149088
-3.98057e-07
-4.13745e-07
0.000149098
0.000152671
2.7513e-09
0.000152666
-2.80888e-08
0.000152675
-6.16081e-08
0.000152694
-9.41955e-08
0.000152718
-1.22516e-07
0.000152745
-1.46636e-07
0.000152773
-1.67027e-07
0.000152801
-1.84229e-07
0.000152829
-1.98759e-07
0.000152857
-2.11085e-07
0.000152885
-2.21649e-07
0.000152913
-2.30839e-07
0.00015294
-2.38984e-07
0.000152967
-2.46361e-07
0.000152993
-2.53209e-07
0.000153019
-2.59729e-07
0.000153044
-2.66095e-07
0.000153069
-2.72453e-07
0.000153093
-2.78929e-07
0.000153116
-2.85631e-07
0.000153138
-2.9265e-07
0.000153159
-3.00063e-07
0.000153179
-3.07936e-07
0.000153199
-3.16321e-07
0.000153216
-3.25261e-07
0.000153233
-3.34788e-07
0.000153248
-3.44923e-07
0.000153262
-3.55679e-07
0.000153274
-3.67058e-07
0.000153284
-3.79055e-07
0.000153293
-3.91654e-07
0.0001533
-4.04837e-07
-4.18543e-07
0.000153305
0.000157078
-2.3351e-08
0.000157077
-2.79457e-08
0.000157065
-4.9521e-08
0.000157057
-8.6058e-08
0.000157059
-1.24467e-07
0.000157071
-1.58348e-07
0.00015709
-1.85774e-07
0.000157113
-2.07797e-07
0.00015714
-2.25561e-07
0.000157169
-2.39928e-07
0.000157199
-2.51643e-07
0.000157229
-2.61333e-07
0.00015726
-2.69505e-07
0.00015729
-2.76568e-07
0.00015732
-2.8285e-07
0.000157349
-2.88617e-07
0.000157377
-2.94084e-07
0.000157404
-2.99427e-07
0.000157429
-3.0479e-07
0.000157454
-3.10291e-07
0.000157477
-3.16026e-07
0.000157499
-3.22076e-07
0.00015752
-3.28505e-07
0.000157539
-3.35365e-07
0.000157556
-3.42695e-07
0.000157572
-3.50527e-07
0.000157586
-3.58879e-07
0.000157598
-3.67761e-07
0.000157608
-3.77177e-07
0.000157616
-3.87118e-07
0.000157622
-3.97572e-07
0.000157626
-4.0852e-07
-4.19909e-07
0.000157627
0.00016147
4.55534e-08
0.000161456
-1.41949e-08
0.000161493
-8.62795e-08
0.000161537
-1.30669e-07
0.000161581
-1.68035e-07
0.000161619
-1.96805e-07
0.000161654
-2.20201e-07
0.000161685
-2.3948e-07
0.000161715
-2.55203e-07
0.000161743
-2.6808e-07
0.00016177
-2.78737e-07
0.000161796
-2.87657e-07
0.000161822
-2.95226e-07
0.000161847
-3.01766e-07
0.000161872
-3.07543e-07
0.000161896
-3.12774e-07
0.00016192
-3.17642e-07
0.000161943
-3.22299e-07
0.000161965
-3.26873e-07
0.000161986
-3.31471e-07
0.000162006
-3.36183e-07
0.000162025
-3.41083e-07
0.000162043
-3.46234e-07
0.000162059
-3.51687e-07
0.000162074
-3.57481e-07
0.000162087
-3.63648e-07
0.000162098
-3.70209e-07
0.000162108
-3.77178e-07
0.000162115
-3.8456e-07
0.00016212
-3.92354e-07
0.000162123
-4.0055e-07
0.000162124
-4.09136e-07
-4.18069e-07
0.000162122
0.000166191
8.2585e-09
0.000166128
4.89431e-08
0.000166048
-6.48585e-09
0.000165993
-7.52758e-08
0.00016598
-1.55822e-07
0.000165995
-2.11133e-07
0.000166025
-2.50119e-07
0.000166063
-2.78026e-07
0.000166107
-2.9859e-07
0.000166152
-3.14023e-07
0.000166199
-3.2574e-07
0.000166247
-3.34753e-07
0.000166293
-3.41794e-07
0.000166339
-3.47394e-07
0.000166383
-3.51949e-07
0.000166426
-3.55757e-07
0.000166468
-3.59051e-07
0.000166507
-3.62011e-07
0.000166545
-3.64781e-07
0.000166581
-3.67479e-07
0.000166615
-3.70198e-07
0.000166647
-3.73016e-07
0.000166677
-3.75995e-07
0.000166704
-3.79186e-07
0.00016673
-3.8263e-07
0.000166752
-3.86359e-07