/*--------------------------------*- C++ -*----------------------------------*\
  =========                 |
  \\      /  F ield         | OpenFOAM: The Open Source CFD Toolbox
   \\    /   O peration     | Website:  https://openfoam.org
    \\  /    A nd           | Version:  10
     \\/     M anipulation  |
\*---------------------------------------------------------------------------*/
FoamFile
{
    format      ascii;
    class       volVectorField;
    location    "0.065";
    object      U;
}
// * * * * * * * * * * * * * * * * * * * * * * * * * * * * * * * * * * * * * //

dimensions      [0 1 -1 0 0 0 0];

internalField   nonuniform List<vector> 
6820
(
(7.33663 -0.254707 0)
(7.37109 -0.15273 0)
(7.32893 -0.059463 0)
(7.25198 -0.0117056 0)
(7.17448 0.00799409 0)
(7.10448 0.0140099 0)
(7.04325 0.0145094 0)
(6.9902 0.0131439 0)
(6.94386 0.0114055 0)
(6.90283 0.00984226 0)
(6.86602 0.00859503 0)
(6.83263 0.0076517 0)
(6.80204 0.00695664 0)
(6.77377 0.00645131 0)
(6.74747 0.00608702 0)
(6.72286 0.00582721 0)
(6.69972 0.00564578 0)
(6.67783 0.00552509 0)
(6.65704 0.00545411 0)
(6.63718 0.00542689 0)
(6.6181 0.00544174 0)
(6.59967 0.00550097 0)
(6.58173 0.00561114 0)
(6.5641 0.00578447 0)
(6.54659 0.00604076 0)
(6.52896 0.00641477 0)
(6.51086 0.00696846 0)
(6.49192 0.00777541 0)
(6.47097 0.00931391 0)
(6.4477 0.0107881 0)
(6.41707 0.0187385 0)
(6.37491 0.0200735 0)
(6.31927 0.0345685 0)
(7.32387 0.121392 0)
(7.30439 0.123293 0)
(7.30893 0.0780117 0)
(7.32912 0.0528443 0)
(7.34715 0.0392544 0)
(7.35513 0.0314609 0)
(7.35406 0.0270228 0)
(7.34685 0.0242935 0)
(7.33577 0.0224157 0)
(7.3224 0.0209984 0)
(7.30779 0.0198469 0)
(7.29262 0.0188616 0)
(7.27727 0.0179934 0)
(7.26198 0.0172173 0)
(7.24691 0.01652 0)
(7.23212 0.0158943 0)
(7.21765 0.0153364 0)
(7.20352 0.0148449 0)
(7.18973 0.0144203 0)
(7.17625 0.0140652 0)
(7.16306 0.0137846 0)
(7.15014 0.0135869 0)
(7.13745 0.0134848 0)
(7.12495 0.0134982 0)
(7.11258 0.0136564 0)
(7.10028 0.014013 0)
(7.08802 0.0146306 0)
(7.07565 0.0157157 0)
(7.06361 0.0173531 0)
(7.0508 0.0205871 0)
(7.04191 0.0254469 0)
(7.03167 0.036371 0)
(7.04618 0.057546 0)
(7.32565 -0.0437848 0)
(7.32323 -0.0517078 0)
(7.33511 -0.0261636 0)
(7.34289 -0.00266237 0)
(7.34775 0.0105096 0)
(7.35185 0.0169849 0)
(7.35475 0.0200832 0)
(7.35617 0.0213994 0)
(7.35607 0.0217762 0)
(7.3546 0.0216879 0)
(7.35197 0.0213825 0)
(7.34841 0.0209881 0)
(7.34412 0.0205723 0)
(7.33927 0.0201697 0)
(7.33398 0.019798 0)
(7.32834 0.0194664 0)
(7.32245 0.0191803 0)
(7.31634 0.0189444 0)
(7.31006 0.0187636 0)
(7.30363 0.0186445 0)
(7.29706 0.0185963 0)
(7.29035 0.0186316 0)
(7.28348 0.0187681 0)
(7.27643 0.019031 0)
(7.26915 0.0194568 0)
(7.2616 0.0200963 0)
(7.25371 0.0210383 0)
(7.24535 0.0223679 0)
(7.23657 0.0244105 0)
(7.22699 0.0269985 0)
(7.21752 0.0318028 0)
(7.20696 0.0357367 0)
(7.19899 0.0449863 0)
(7.33338 0.0118002 0)
(7.33032 0.0329559 0)
(7.32948 0.0334053 0)
(7.33243 0.0277273 0)
(7.33778 0.024372 0)
(7.34321 0.0229312 0)
(7.34771 0.0224081 0)
(7.35124 0.0222241 0)
(7.35389 0.0221238 0)
(7.35572 0.0220265 0)
(7.35682 0.0219083 0)
(7.35728 0.0217652 0)
(7.35718 0.0216032 0)
(7.3566 0.0214321 0)
(7.35559 0.0212626 0)
(7.35421 0.0211052 0)
(7.35251 0.0209704 0)
(7.35053 0.0208694 0)
(7.34827 0.0208137 0)
(7.34577 0.0208167 0)
(7.34302 0.0208946 0)
(7.34003 0.0210671 0)
(7.33679 0.0213603 0)
(7.33327 0.0218082 0)
(7.32945 0.0224581 0)
(7.32527 0.0233746 0)
(7.32072 0.0246545 0)
(7.31571 0.0264207 0)
(7.31028 0.028908 0)
(7.30428 0.0322656 0)
(7.29825 0.0371942 0)
(7.29196 0.0432389 0)
(7.28718 0.052582 0)
(7.33122 -0.00350736 0)
(7.33002 -0.00428498 0)
(7.33353 0.00136274 0)
(7.33704 0.00884719 0)
(7.34025 0.0142496 0)
(7.34343 0.0172976 0)
(7.34647 0.0189839 0)
(7.34932 0.019952 0)
(7.35191 0.0205077 0)
(7.35418 0.0208229 0)
(7.35611 0.0209953 0)
(7.3577 0.0210806 0)
(7.35896 0.0211143 0)
(7.35992 0.0211214 0)
(7.36059 0.0211204 0)
(7.36098 0.021126 0)
(7.36112 0.0211517 0)
(7.36101 0.0212106 0)
(7.36066 0.0213167 0)
(7.36008 0.0214859 0)
(7.35926 0.0217373 0)
(7.35821 0.0220943 0)
(7.3569 0.0225869 0)
(7.35533 0.0232539 0)
(7.35346 0.0241471 0)
(7.35128 0.0253342 0)
(7.34875 0.0269129 0)
(7.34586 0.0289953 0)
(7.34264 0.0317835 0)
(7.33907 0.0353822 0)
(7.33545 0.0402448 0)
(7.3318 0.0460182 0)
(7.32882 0.0535902 0)
(7.33264 0.00210423 0)
(7.33221 0.00996401 0)
(7.33386 0.0142009 0)
(7.3363 0.0161223 0)
(7.3392 0.0172829 0)
(7.34228 0.0181133 0)
(7.34521 0.0187824 0)
(7.34792 0.0193116 0)
(7.35041 0.0197017 0)
(7.35269 0.0199835 0)
(7.35477 0.0201892 0)
(7.35664 0.0203421 0)
(7.35831 0.0204611 0)
(7.35979 0.0205619 0)
(7.36108 0.0206584 0)
(7.36219 0.0207634 0)
(7.3631 0.0208902 0)
(7.36384 0.0210525 0)
(7.36438 0.0212658 0)
(7.36473 0.0215481 0)
(7.36489 0.0219209 0)
(7.36484 0.0224104 0)
(7.36458 0.0230498 0)
(7.36408 0.0238807 0)
(7.36335 0.0249575 0)
(7.36235 0.0263488 0)
(7.36108 0.0281474 0)
(7.35955 0.0304597 0)
(7.3578 0.0334461 0)
(7.35588 0.0372179 0)
(7.35398 0.0420433 0)
(7.35223 0.0478185 0)
(7.35098 0.0549321 0)
(7.33258 0.000858791 0)
(7.3324 0.00460064 0)
(7.33421 0.00820462 0)
(7.33674 0.0114599 0)
(7.33944 0.0141018 0)
(7.34216 0.0159372 0)
(7.34475 0.0171577 0)
(7.34718 0.0179789 0)
(7.34947 0.0185373 0)
(7.35162 0.0189281 0)
(7.35364 0.0192138 0)
(7.35552 0.0194334 0)
(7.35728 0.0196137 0)
(7.3589 0.0197751 0)
(7.3604 0.0199338 0)
(7.36177 0.0201046 0)
(7.36301 0.0203017 0)
(7.36411 0.02054 0)
(7.36507 0.0208361 0)
(7.36589 0.0212093 0)
(7.36654 0.0216822 0)
(7.36704 0.0222827 0)
(7.36736 0.0230451 0)
(7.3675 0.0240119 0)
(7.36745 0.0252367 0)
(7.36721 0.0267856 0)
(7.36678 0.0287429 0)
(7.36618 0.0312032 0)
(7.36547 0.0342928 0)
(7.36472 0.0381091 0)
(7.36407 0.0428172 0)
(7.36367 0.0483982 0)
(7.36371 0.0550087 0)
(7.33283 0.00136326 0)
(7.33299 0.00544493 0)
(7.33451 0.00905977 0)
(7.33667 0.0118113 0)
(7.33907 0.0138538 0)
(7.34159 0.0152898 0)
(7.34404 0.0163061 0)
(7.34638 0.0170454 0)
(7.34858 0.0175858 0)
(7.35066 0.0179866 0)
(7.35263 0.0182941 0)
(7.35448 0.0185413 0)
(7.35624 0.0187531 0)
(7.35789 0.0189489 0)
(7.35946 0.0191456 0)
(7.36092 0.0193581 0)
(7.36229 0.0196014 0)
(7.36356 0.0198912 0)
(7.36472 0.0202447 0)
(7.36577 0.020682 0)
(7.36669 0.0212268 0)
(7.3675 0.0219074 0)
(7.36818 0.0227581 0)
(7.36872 0.0238208 0)
(7.36912 0.0251467 0)
(7.3694 0.0267969 0)
(7.36957 0.0288459 0)
(7.36966 0.0313753 0)
(7.36973 0.0344835 0)
(7.36986 0.0382518 0)
(7.37017 0.0427855 0)
(7.3708 0.0480998 0)
(7.37189 0.0542593 0)
(7.33291 0.00136754 0)
(7.33318 0.00478104 0)
(7.33454 0.00788973 0)
(7.33651 0.0104286 0)
(7.33874 0.0124654 0)
(7.34108 0.0139999 0)
(7.34339 0.0151223 0)
(7.34561 0.0159436 0)
(7.34773 0.0165458 0)
(7.34975 0.016994 0)
(7.35167 0.0173393 0)
(7.35349 0.0176184 0)
(7.35524 0.0178586 0)
(7.3569 0.0180817 0)
(7.35848 0.0183058 0)
(7.35998 0.0185476 0)
(7.36141 0.0188228 0)
(7.36276 0.0191482 0)
(7.36403 0.0195418 0)
(7.36521 0.0200242 0)
(7.3663 0.0206193 0)
(7.36731 0.0213553 0)
(7.36822 0.0222656 0)
(7.36905 0.0233901 0)
(7.36979 0.024776 0)
(7.37046 0.0264783 0)
(7.37109 0.0285605 0)
(7.37172 0.031091 0)
(7.3724 0.0341452 0)
(7.37323 0.037787 0)
(7.3743 0.0420844 0)
(7.37575 0.0470587 0)
(7.37768 0.0527304 0)
(7.33297 0.00134822 0)
(7.33333 0.00443718 0)
(7.33455 0.00730989 0)
(7.33632 0.00969006 0)
(7.33835 0.0115979 0)
(7.34051 0.0130525 0)
(7.34269 0.014136 0)
(7.34481 0.0149467 0)
(7.34686 0.0155566 0)
(7.34883 0.0160218 0)
(7.35072 0.0163872 0)
(7.35252 0.0166867 0)
(7.35425 0.0169469 0)
(7.35592 0.0171897 0)
(7.35751 0.0174338 0)
(7.35904 0.0176962 0)
(7.36051 0.0179937 0)
(7.36191 0.0183432 0)
(7.36325 0.0187633 0)
(7.36453 0.0192748 0)
(7.36575 0.0199011 0)
(7.3669 0.0206696 0)
(7.368 0.0216122 0)
(7.36905 0.0227655 0)
(7.37006 0.024172 0)
(7.37105 0.0258796 0)
(7.37207 0.0279412 0)
(7.37314 0.0304119 0)
(7.37433 0.0333485 0)
(7.37573 0.0367984 0)
(7.37742 0.0408041 0)
(7.37953 0.0453821 0)
(7.38214 0.0505292 0)
(7.333 0.00129061 0)
(7.33339 0.00406624 0)
(7.3345 0.00665439 0)
(7.3361 0.00883703 0)
(7.33796 0.0106205 0)
(7.33996 0.0120217 0)
(7.34201 0.0130956 0)
(7.34404 0.013916 0)
(7.34602 0.0145437 0)
(7.34793 0.015029 0)
(7.34979 0.0154139 0)
(7.35157 0.0157315 0)
(7.35329 0.0160084 0)
(7.35496 0.0162666 0)
(7.35656 0.0165254 0)
(7.35812 0.0168023 0)
(7.35962 0.0171142 0)
(7.36107 0.0174786 0)
(7.36248 0.0179139 0)
(7.36384 0.0184405 0)
(7.36516 0.0190811 0)
(7.36644 0.0198617 0)
(7.3677 0.0208115 0)
(7.36895 0.0219636 0)
(7.37019 0.0233551 0)
(7.37147 0.0250263 0)
(7.37281 0.0270199 0)
(7.37426 0.0293789 0)
(7.37588 0.0321442 0)
(7.37776 0.0353485 0)
(7.37996 0.039016 0)
(7.38261 0.0431535 0)
(7.38577 0.0477439 0)
(7.33302 0.00121105 0)
(7.33342 0.00371937 0)
(7.33442 0.0060657 0)
(7.33588 0.008078 0)
(7.33758 0.00974452 0)
(7.33944 0.011077 0)
(7.34137 0.0121164 0)
(7.3433 0.0129224 0)
(7.34521 0.0135483 0)
(7.34707 0.0140389 0)
(7.34889 0.0144324 0)
(7.35065 0.0147597 0)
(7.35236 0.0150463 0)
(7.35403 0.0153137 0)
(7.35565 0.015581 0)
(7.35722 0.0158656 0)
(7.35876 0.0161844 0)
(7.36026 0.0165545 0)
(7.36173 0.0169941 0)
(7.36317 0.0175227 0)
(7.36459 0.0181616 0)
(7.366 0.0189347 0)
(7.3674 0.0198684 0)
(7.36882 0.0209916 0)
(7.37028 0.0223354 0)
(7.37181 0.0239328 0)
(7.37344 0.0258172 0)
(7.37522 0.0280202 0)
(7.37722 0.0305695 0)
(7.37949 0.0334852 0)
(7.38212 0.0367775 0)
(7.3852 0.0404433 0)
(7.3888 0.0444561 0)
(7.33302 0.00112093 0)
(7.33342 0.00338862 0)
(7.33434 0.00551002 0)
(7.33566 0.00735264 0)
(7.33723 0.00889716 0)
(7.33896 0.0101524 0)
(7.34077 0.011149 0)
(7.34261 0.0119338 0)
(7.34445 0.0125514 0)
(7.34626 0.0130412 0)
(7.34803 0.0134371 0)
(7.34977 0.0137682 0)
(7.35148 0.0140587 0)
(7.35314 0.0143293 0)
(7.35477 0.0145988 0)
(7.35637 0.0148841 0)
(7.35794 0.0152018 0)
(7.35949 0.0155686 0)
(7.36102 0.0160015 0)
(7.36253 0.0165189 0)
(7.36405 0.0171405 0)
(7.36557 0.0178876 0)
(7.36712 0.0187832 0)
(7.3687 0.0198516 0)
(7.37036 0.0211185 0)
(7.37211 0.0226094 0)
(7.374 0.0243491 0)
(7.37607 0.0263593 0)
(7.37838 0.0286569 0)
(7.38098 0.0312511 0)
(7.38396 0.0341412 0)
(7.38739 0.0373158 0)
(7.39132 0.0407421 0)
(7.33303 0.00102658 0)
(7.3334 0.00307386 0)
(7.33425 0.00498848 0)
(7.33546 0.00666941 0)
(7.33691 0.00809397 0)
(7.33852 0.00926722 0)
(7.34023 0.010212 0)
(7.34198 0.0109649 0)
(7.34375 0.0115639 0)
(7.3455 0.012043 0)
(7.34724 0.0124329 0)
(7.34896 0.0127601 0)
(7.35065 0.0130472 0)
(7.35231 0.0133142 0)
(7.35395 0.0135787 0)
(7.35557 0.0138573 0)
(7.35717 0.0141655 0)
(7.35876 0.0145192 0)
(7.36035 0.0149344 0)
(7.36194 0.0154277 0)
(7.36354 0.0160167 0)
(7.36517 0.0167199 0)
(7.36685 0.0175568 0)
(7.36859 0.0185471 0)
(7.37042 0.0197108 0)
(7.37237 0.0210669 0)
(7.37448 0.0226323 0)
(7.3768 0.0244201 0)
(7.37937 0.0264382 0)
(7.38225 0.0286871 0)
(7.3855 0.0311579 0)
(7.38919 0.0338323 0)
(7.39336 0.0366741 0)
(7.33303 0.000931794 0)
(7.33338 0.00277402 0)
(7.33417 0.00449616 0)
(7.33528 0.00602089 0)
(7.33662 0.00732523 0)
(7.33813 0.00841129 0)
(7.33974 0.00929623 0)
(7.34141 0.010009 0)
(7.34311 0.0105809 0)
(7.34481 0.0110416 0)
(7.34651 0.0114181 0)
(7.3482 0.0117344 0)
(7.34988 0.0120115 0)
(7.35154 0.0122679 0)
(7.35318 0.0125204 0)
(7.35482 0.0127844 0)
(7.35645 0.0130746 0)
(7.35809 0.0134056 0)
(7.35973 0.0137919 0)
(7.36139 0.0142483 0)
(7.36307 0.0147901 0)
(7.3648 0.0154327 0)
(7.3666 0.0161919 0)
(7.36847 0.0170832 0)
(7.37046 0.0181211 0)
(7.37258 0.0193185 0)
(7.37488 0.0206855 0)
(7.3774 0.0222281 0)
(7.38018 0.0239468 0)
(7.38327 0.0258352 0)
(7.38673 0.0278784 0)
(7.3906 0.0300531 0)
(7.39493 0.0323217 0)
(7.33303 0.000838634 0)
(7.33336 0.00248808 0)
(7.33408 0.00402964 0)
(7.33511 0.0054036 0)
(7.33636 0.00658836 0)
(7.33777 0.00758372 0)
(7.3393 0.00840248 0)
(7.34089 0.00906737 0)
(7.34253 0.0096043 0)
(7.34418 0.0100386 0)
(7.34584 0.0103941 0)
(7.34751 0.0106922 0)
(7.34917 0.0109521 0)
(7.35083 0.0111908 0)
(7.35248 0.0114238 0)
(7.35413 0.0116654 0)
(7.35579 0.0119291 0)
(7.35746 0.0122278 0)
(7.35915 0.0125744 0)
(7.36087 0.0129818 0)
(7.36263 0.0134625 0)
(7.36445 0.0140293 0)
(7.36635 0.014694 0)
(7.36834 0.015468 0)
(7.37046 0.0163609 0)
(7.37272 0.0173804 0)
(7.37518 0.0185306 0)
(7.37786 0.0198116 0)
(7.3808 0.0212182 0)
(7.38404 0.0227387 0)
(7.38764 0.0243538 0)
(7.39163 0.0260374 0)
(7.39604 0.027752 0)
(7.33303 0.000748117 0)
(7.33334 0.00221489 0)
(7.33401 0.00358563 0)
(7.33496 0.00481358 0)
(7.33613 0.00587923 0)
(7.33746 0.00678077 0)
(7.3389 0.00752767 0)
(7.34043 0.00813775 0)
(7.342 0.00863232 0)
(7.34361 0.00903293 0)
(7.34524 0.00936016 0)
(7.34688 0.00963306 0)
(7.34852 0.00986879 0)
(7.35017 0.0100828 0)
(7.35183 0.0102891 0)
(7.3535 0.0105005 0)
(7.35518 0.0107292 0)
(7.35688 0.0109864 0)
(7.35861 0.0112832 0)
(7.36038 0.0116302 0)
(7.36221 0.0120375 0)
(7.36411 0.0125147 0)
(7.36609 0.0130704 0)
(7.36818 0.013712 0)
(7.3704 0.0144448 0)
(7.37279 0.0152716 0)
(7.37536 0.016192 0)
(7.37815 0.0172012 0)
(7.38121 0.0182896 0)
(7.38455 0.0194418 0)
(7.38823 0.0206358 0)
(7.39227 0.0218439 0)
(7.3967 0.0230298 0)
(7.33303 0.000660629 0)
(7.33332 0.00195325 0)
(7.33394 0.00316121 0)
(7.33483 0.00424732 0)
(7.33592 0.0051944 0)
(7.33718 0.0059996 0)
(7.33855 0.00666979 0)
(7.34001 0.00721894 0)
(7.34153 0.00766442 0)
(7.3431 0.00802436 0)
(7.34469 0.00831645 0)
(7.3463 0.0085573 0)
(7.34793 0.00876208 0)
(7.34957 0.00894449 0)
(7.35123 0.00911695 0)
(7.35291 0.00929077 0)
(7.35461 0.00947638 0)
(7.35634 0.00968345 0)
(7.35811 0.00992103 0)
(7.35992 0.0101975 0)
(7.3618 0.0105205 0)
(7.36376 0.0108966 0)
(7.36581 0.0113314 0)
(7.36798 0.0118286 0)
(7.37028 0.0123899 0)
(7.37275 0.0130141 0)
(7.3754 0.0136968 0)
(7.37828 0.0144298 0)
(7.38139 0.0152001 0)
(7.38479 0.0159899 0)
(7.38849 0.0167759 0)
(7.39253 0.0175296 0)
(7.39691 0.0182175 0)
(7.33302 0.000576186 0)
(7.3333 0.00170191 0)
(7.33388 0.00275371 0)
(7.33471 0.00370155 0)
(7.33574 0.00453053 0)
(7.33693 0.00523718 0)
(7.33824 0.00582636 0)
(7.33964 0.00630901 0)
(7.34111 0.00669917 0)
(7.34263 0.00701193 0)
(7.34419 0.00726229 0)
(7.34578 0.00746453 0)
(7.34739 0.00763179 0)
(7.34903 0.00777598 0)
(7.35068 0.00790782 0)
(7.35237 0.00803697 0)
(7.35408 0.00817215 0)
(7.35583 0.00832123 0)
(7.35763 0.00849126 0)
(7.35948 0.00868843 0)
(7.3614 0.00891794 0)
(7.3634 0.00918378 0)
(7.3655 0.0094885 0)
(7.36772 0.00983277 0)
(7.37008 0.010215 0)
(7.3726 0.0106311 0)
(7.3753 0.0110734 0)
(7.37821 0.011531 0)
(7.38135 0.0119889 0)
(7.38475 0.0124278 0)
(7.38842 0.012824 0)
(7.3924 0.0131496 0)
(7.39668 0.0133737 0)
(7.33302 0.000494603 0)
(7.33328 0.00145962 0)
(7.33383 0.00236071 0)
(7.33461 0.00317331 0)
(7.33558 0.00388457 0)
(7.33671 0.00449076 0)
(7.33796 0.00499525 0)
(7.33931 0.0054065 0)
(7.34074 0.00573577 0)
(7.34222 0.00599545 0)
(7.34374 0.00619808 0)
(7.34531 0.00635568 0)
(7.3469 0.00647938 0)
(7.34853 0.00657925 0)
(7.35018 0.00666428 0)
(7.35187 0.0067424 0)
(7.35359 0.00682058 0)
(7.35535 0.00690485 0)
(7.35717 0.00700032 0)
(7.35904 0.00711105 0)
(7.36099 0.00723994 0)
(7.36302 0.00738858 0)
(7.36515 0.00755693 0)
(7.36741 0.00774305 0)
(7.36979 0.00794277 0)
(7.37233 0.00814931 0)
(7.37505 0.00835303 0)
(7.37795 0.00854105 0)
(7.38108 0.00869708 0)
(7.38443 0.00880137 0)
(7.38803 0.0088305 0)
(7.39191 0.00875788 0)
(7.39604 0.00855566 0)
(7.33302 0.000415589 0)
(7.33326 0.00122517 0)
(7.33378 0.00197999 0)
(7.33452 0.00265976 0)
(7.33544 0.00325343 0)
(7.33652 0.00375728 0)
(7.33772 0.00417353 0)
(7.33902 0.00450871 0)
(7.3404 0.00477175 0)
(7.34185 0.00497266 0)
(7.34334 0.00512171 0)
(7.34488 0.00522882 0)
(7.34646 0.00530316 0)
(7.34807 0.00535297 0)
(7.34972 0.00538549 0)
(7.3514 0.0054069 0)
(7.35312 0.0054224 0)
(7.35489 0.00543621 0)
(7.35672 0.00545156 0)
(7.3586 0.00547048 0)
(7.36056 0.00549381 0)
(7.36261 0.00552095 0)
(7.36475 0.00554967 0)
(7.36701 0.00557585 0)
(7.3694 0.00559323 0)
(7.37193 0.00559319 0)
(7.37463 0.00556449 0)
(7.3775 0.00549317 0)
(7.38057 0.0053624 0)
(7.38384 0.00515255 0)
(7.38733 0.00484117 0)
(7.39106 0.00440332 0)
(7.39501 0.00381449 0)
(7.33302 0.000338813 0)
(7.33325 0.000997408 0)
(7.33374 0.00160962 0)
(7.33444 0.00215859 0)
(7.33532 0.00263496 0)
(7.33635 0.00303515 0)
(7.3375 0.00336054 0)
(7.33876 0.0036161 0)
(7.34011 0.00380877 0)
(7.34152 0.00394646 0)
(7.34298 0.00403735 0)
(7.3445 0.00408936 0)
(7.34606 0.00410968 0)
(7.34765 0.00410479 0)
(7.34929 0.00408017 0)
(7.35096 0.00404029 0)
(7.35268 0.00398864 0)
(7.35445 0.00392767 0)
(7.35627 0.00385892 0)
(7.35816 0.00378249 0)
(7.36012 0.00369738 0)
(7.36216 0.00360113 0)
(7.36429 0.00348968 0)
(7.36654 0.00335719 0)
(7.3689 0.00319579 0)
(7.3714 0.00299557 0)
(7.37405 0.00274434 0)
(7.37685 0.00242762 0)
(7.37983 0.00202861 0)
(7.38298 0.00152834 0)
(7.38633 0.000905726 0)
(7.38987 0.000137818 0)
(7.3936 -0.000796634 0)
(7.33302 0.000263928 0)
(7.33324 0.000775155 0)
(7.3337 0.00124743 0)
(7.33437 0.00166656 0)
(7.33521 0.00202473 0)
(7.3362 0.00231866 0)
(7.33732 0.00254929 0)
(7.33854 0.00272041 0)
(7.33984 0.00283741 0)
(7.34122 0.00290639 0)
(7.34266 0.00293368 0)
(7.34415 0.00292536 0)
(7.34569 0.00288677 0)
(7.34727 0.00282276 0)
(7.34889 0.00273701 0)
(7.35055 0.00263227 0)
(7.35226 0.00251034 0)
(7.35401 0.00237185 0)
(7.35583 0.00221713 0)
(7.3577 0.00204426 0)
(7.35964 0.00185061 0)
(7.36166 0.00163219 0)
(7.36377 0.00138344 0)
(7.36598 0.00109717 0)
(7.3683 0.000764477 0)
(7.37074 0.000374548 0)
(7.37331 -8.52764e-05 0)
(7.37602 -0.000629498 0)
(7.37887 -0.00127445 0)
(7.38188 -0.00203807 0)
(7.38505 -0.0029398 0)
(7.38838 -0.00400041 0)
(7.39186 -0.00523801 0)
(7.33302 0.000190639 0)
(7.33323 0.00055773 0)
(7.33367 0.00089291 0)
(7.33431 0.00118442 0)
(7.33512 0.00142599 0)
(7.33607 0.00161433 0)
(7.33715 0.00175007 0)
(7.33834 0.00183604 0)
(7.33961 0.00187611 0)
(7.34096 0.0018747 0)
(7.34237 0.0018364 0)
(7.34384 0.00176566 0)
(7.34536 0.00166542 0)
(7.34692 0.00153935 0)
(7.34852 0.00138963 0)
(7.35016 0.00121744 0)
(7.35185 0.00102306 0)
(7.35359 0.000805946 0)
(7.35538 0.000563612 0)
(7.35723 0.000293869 0)
(7.35914 -7.3474e-06 0)
(7.36113 -0.000345429 0)
(7.36319 -0.000727075 0)
(7.36534 -0.00116045 0)
(7.36759 -0.00165516 0)
(7.36995 -0.00222244 0)
(7.37242 -0.002875 0)
(7.375 -0.00362701 0)
(7.37771 -0.00449399 0)
(7.38054 -0.0054926 0)
(7.38351 -0.00664051 0)
(7.3866 -0.00795626 0)
(7.38982 -0.009455 0)
(7.33302 0.00011854 0)
(7.33322 0.000343114 0)
(7.33364 0.000540684 0)
(7.33426 0.000700518 0)
(7.33504 0.000819688 0)
(7.33596 0.000895172 0)
(7.33701 0.000927777 0)
(7.33816 0.00092007 0)
(7.33941 0.000875101 0)
(7.34073 0.000796014 0)
(7.34212 0.000685797 0)
(7.34356 0.000546955 0)
(7.34506 0.000382485 0)
(7.34659 0.000192787 0)
(7.34817 -2.17039e-05 0)
(7.3498 -0.000261234 0)
(7.35146 -0.000527015 0)
(7.35317 -0.000821055 0)
(7.35493 -0.00114723 0)
(7.35674 -0.001509 0)
(7.35861 -0.00191162 0)
(7.36054 -0.00236149 0)
(7.36255 -0.00286619 0)
(7.36463 -0.0034345 0)
(7.36679 -0.0040765 0)
(7.36904 -0.00480344 0)
(7.37138 -0.00562778 0)
(7.37382 -0.00656308 0)
(7.37636 -0.00762381 0)
(7.379 -0.00882521 0)
(7.38174 -0.0101831 0)
(7.38458 -0.0117138 0)
(7.3875 -0.0134296 0)
(7.33302 4.78805e-05 0)
(7.33321 0.000134684 0)
(7.33361 0.000202253 0)
(7.3342 0.000243043 0)
(7.33496 0.000249495 0)
(7.33585 0.000221955 0)
(7.33688 0.000160823 0)
(7.33801 6.72194e-05 0)
(7.33923 -5.7115e-05 0)
(7.34053 -0.000210348 0)
(7.34189 -0.000390831 0)
(7.34332 -0.0005974 0)
(7.34479 -0.000828336 0)
(7.3463 -0.00108454 0)
(7.34786 -0.00136683 0)
(7.34945 -0.0016767 0)
(7.35109 -0.00201659 0)
(7.35276 -0.00238993 0)
(7.35448 -0.00280036 0)
(7.35624 -0.00325346 0)
(7.35806 -0.00375527 0)
(7.35993 -0.00431279 0)
(7.36185 -0.00493412 0)
(7.36384 -0.00562839 0)
(7.3659 -0.00640573 0)
(7.36803 -0.00727722 0)
(7.37023 -0.00825484 0)
(7.3725 -0.0093513 0)
(7.37485 -0.0105799 0)
(7.37728 -0.0119545 0)
(7.37977 -0.0134889 0)
(7.38234 -0.0151975 0)
(7.38497 -0.0170901 0)
(7.33302 -2.32467e-05 0)
(7.3332 -8.09023e-05 0)
(7.3336 -0.000159813 0)
(7.33418 -0.000265347 0)
(7.33491 -0.000400573 0)
(7.33578 -0.000560797 0)
(7.33678 -0.000742843 0)
(7.33789 -0.000944581 0)
(7.33909 -0.00116467 0)
(7.34036 -0.00140258 0)
(7.34171 -0.00165846 0)
(7.3431 -0.00193295 0)
(7.34455 -0.00222818 0)
(7.34603 -0.00254554 0)
(7.34756 -0.00288761 0)
(7.34912 -0.00325775 0)
(7.35072 -0.00365994 0)
(7.35235 -0.00409882 0)
(7.35402 -0.00457962 0)
(7.35573 -0.00510854 0)
(7.35747 -0.00569242 0)
(7.35927 -0.00633889 0)
(7.3611 -0.00705641 0)
(7.36299 -0.00785422 0)
(7.36492 -0.00874232 0)
(7.36691 -0.00973143 0)
(7.36896 -0.0108328 0)
(7.37105 -0.0120582 0)
(7.3732 -0.0134197 0)
(7.3754 -0.0149295 0)
(7.37764 -0.0165998 0)
(7.37993 -0.0184428 0)
(7.38226 -0.0204661 0)
(7.33301 -8.90026e-05 0)
(7.33318 -0.000265233 0)
(7.33355 -0.000447186 0)
(7.3341 -0.000645502 0)
(7.33481 -0.000862783 0)
(7.33567 -0.00110182 0)
(7.33665 -0.00136213 0)
(7.33775 -0.00164201 0)
(7.33894 -0.00194005 0)
(7.34021 -0.00225547 0)
(7.34153 -0.0025882 0)
(7.34292 -0.00293894 0)
(7.34434 -0.00330931 0)
(7.34581 -0.00370147 0)
(7.34731 -0.00411858 0)
(7.34884 -0.00456455 0)
(7.35039 -0.00504394 0)
(7.35198 -0.005562 0)
(7.35359 -0.00612466 0)
(7.35523 -0.00673854 0)
(7.35691 -0.00741093 0)
(7.35861 -0.00814975 0)
(7.36034 -0.00896359 0)
(7.36211 -0.00986163 0)
(7.36392 -0.0108536 0)
(7.36575 -0.0119497 0)
(7.36762 -0.0131605 0)
(7.36953 -0.0144967 0)
(7.37146 -0.0159692 0)
(7.37342 -0.0175889 0)
(7.37541 -0.0193661 0)
(7.37741 -0.0213114 0)
(7.37942 -0.0234308 0)
(7.33302 -0.000169931 0)
(7.33321 -0.000534626 0)
(7.33359 -0.000931301 0)
(7.33413 -0.00135201 0)
(7.33483 -0.0017808 0)
(7.33567 -0.00220636 0)
(7.33663 -0.00262296 0)
(7.3377 -0.00302944 0)
(7.33886 -0.00342779 0)
(7.3401 -0.00382176 0)
(7.3414 -0.00421596 0)
(7.34275 -0.00461549 0)
(7.34415 -0.00502577 0)
(7.34558 -0.00545233 0)
(7.34704 -0.0059009 0)
(7.34853 -0.00637748 0)
(7.35004 -0.0068883 0)
(7.35157 -0.00743991 0)
(7.35313 -0.00803917 0)
(7.3547 -0.00869337 0)
(7.35629 -0.00941015 0)
(7.35789 -0.0101976 0)
(7.35952 -0.0110643 0)
(7.36117 -0.012019 0)
(7.36283 -0.0130709 0)
(7.36451 -0.0142296 0)
(7.3662 -0.0155045 0)
(7.36791 -0.0169054 0)
(7.36962 -0.0184417 0)
(7.37134 -0.0201228 0)
(7.37306 -0.0219576 0)
(7.37478 -0.0239547 0)
(7.37648 -0.0261185 0)
(7.333 -0.000194401 0)
(7.33311 -0.000546809 0)
(7.33341 -0.000893026 0)
(7.33392 -0.0012676 0)
(7.33461 -0.00168069 0)
(7.33546 -0.00212811 0)
(7.33645 -0.00260046 0)
(7.33755 -0.00308872 0)
(7.33874 -0.00358669 0)
(7.34 -0.00409107 0)
(7.34131 -0.00460103 0)
(7.34267 -0.00511768 0)
(7.34406 -0.00564375 0)
(7.34548 -0.00618315 0)
(7.34691 -0.00674076 0)
(7.34836 -0.00732227 0)
(7.34983 -0.00793395 0)
(7.3513 -0.00858258 0)
(7.35279 -0.00927538 0)
(7.35428 -0.01002 0)
(7.35578 -0.0108243 0)
(7.35728 -0.0116966 0)
(7.35878 -0.0126455 0)
(7.36029 -0.0136798 0)
(7.3618 -0.0148082 0)
(7.36331 -0.0160399 0)
(7.36482 -0.0173838 0)
(7.36632 -0.0188486 0)
(7.36781 -0.020443 0)
(7.36928 -0.0221751 0)
(7.37074 -0.0240526 0)
(7.37217 -0.0260831 0)
(7.37356 -0.0282694 0)
(7.33305 -0.000381612 0)
(7.3333 -0.00121574 0)
(7.33368 -0.00210285 0)
(7.33418 -0.00297412 0)
(7.33482 -0.00378028 0)
(7.3356 -0.00450674 0)
(7.33651 -0.005158 0)
(7.33754 -0.00574568 0)
(7.33867 -0.00628371 0)
(7.33988 -0.00678621 0)
(7.34115 -0.0072664 0)
(7.34247 -0.00773626 0)
(7.34383 -0.00820652 0)
(7.34521 -0.00868685 0)
(7.34661 -0.0091861 0)
(7.34802 -0.00971252 0)
(7.34943 -0.010274 0)
(7.35085 -0.0108782 0)
(7.35227 -0.0115327 0)
(7.35369 -0.0122449 0)
(7.3551 -0.0130226 0)
(7.3565 -0.0138733 0)
(7.3579 -0.0148047 0)
(7.35928 -0.0158248 0)
(7.36064 -0.0169413 0)
(7.36199 -0.018162 0)
(7.36331 -0.0194947 0)
(7.36461 -0.0209466 0)
(7.36589 -0.0225249 0)
(7.36712 -0.0242364 0)
(7.36832 -0.0260872 0)
(7.36947 -0.0280833 0)
(7.37057 -0.0302262 0)
(7.33293 -0.000113322 0)
(7.33283 -0.000263421 0)
(7.333 -0.000481202 0)
(7.33349 -0.000889374 0)
(7.33424 -0.00147691 0)
(7.33518 -0.00218246 0)
(7.33626 -0.0029504 0)
(7.33744 -0.00374287 0)
(7.33868 -0.00453679 0)
(7.33998 -0.00531939 0)
(7.34131 -0.00608532 0)
(7.34266 -0.0068345 0)
(7.34402 -0.0075703 0)
(7.34539 -0.00829833 0)
(7.34676 -0.00902562 0)
(7.34813 -0.00976005 0)
(7.34949 -0.01051 0)
(7.35084 -0.011284 0)
(7.35217 -0.0120908 0)
(7.35349 -0.0129392 0)
(7.35479 -0.0138379 0)
(7.35607 -0.0147954 0)
(7.35733 -0.0158204 0)
(7.35856 -0.0169212 0)
(7.35976 -0.018106 0)
(7.36092 -0.0193827 0)
(7.36205 -0.0207589 0)
(7.36314 -0.0222419 0)
(7.36418 -0.0238384 0)
(7.36517 -0.0255547 0)
(7.36611 -0.0273963 0)
(7.36698 -0.0293685 0)
(7.36779 -0.0314727 0)
(7.33316 -0.000833577 0)
(7.33363 -0.00279302 0)
(7.33395 -0.00471689 0)
(7.33424 -0.00633105 0)
(7.33467 -0.00759768 0)
(7.33531 -0.00858212 0)
(7.33614 -0.00935524 0)
(7.33713 -0.00997576 0)
(7.33824 -0.0104914 0)
(7.33944 -0.0109396 0)
(7.34071 -0.0113496 0)
(7.34203 -0.0117434 0)
(7.34337 -0.012138 0)
(7.34472 -0.0125465 0)
(7.34608 -0.0129796 0)
(7.34743 -0.0134462 0)
(7.34877 -0.013954 0)
(7.35009 -0.0145099 0)
(7.35139 -0.0151205 0)
(7.35265 -0.015792 0)
(7.35389 -0.0165306 0)
(7.35509 -0.0173422 0)
(7.35625 -0.0182329 0)
(7.35737 -0.0192086 0)
(7.35845 -0.0202751 0)
(7.35947 -0.0214381 0)
(7.36044 -0.0227031 0)
(7.36135 -0.0240753 0)
(7.3622 -0.0255595 0)
(7.36298 -0.0271601 0)
(7.36369 -0.0288811 0)
(7.36432 -0.0307261 0)
(7.36487 -0.0326952 0)
(7.33266 0.000554833 0)
(7.33187 0.00185692 0)
(7.33192 0.00255424 0)
(7.33268 0.00230494 0)
(7.33377 0.0013953 0)
(7.33501 0.000155685 0)
(7.33632 -0.00121333 0)
(7.33767 -0.00260682 0)
(7.33903 -0.00396679 0)
(7.34039 -0.00526262 0)
(7.34174 -0.00648303 0)
(7.34308 -0.00762863 0)
(7.3444 -0.00870657 0)
(7.3457 -0.00972751 0)
(7.34698 -0.0107038 0)
(7.34823 -0.0116482 0)
(7.34946 -0.0125737 0)
(7.35066 -0.0134925 0)
(7.35182 -0.0144165 0)
(7.35295 -0.0153568 0)
(7.35403 -0.0163239 0)
(7.35507 -0.0173277 0)
(7.35607 -0.0183775 0)
(7.35701 -0.0194818 0)
(7.3579 -0.0206488 0)
(7.35873 -0.021886 0)
(7.3595 -0.0232003 0)
(7.36019 -0.0245981 0)
(7.36081 -0.0260851 0)
(7.36136 -0.0276664 0)
(7.36182 -0.0293463 0)
(7.36219 -0.0311287 0)
(7.36247 -0.0330144 0)
(7.33353 -0.00199005 0)
(7.33445 -0.00675275 0)
(7.33408 -0.0111945 0)
(7.33338 -0.0139776 0)
(7.33317 -0.0155591 0)
(7.33352 -0.0164507 0)
(7.33427 -0.0169136 0)
(7.33528 -0.0171199 0)
(7.33647 -0.017189 0)
(7.33778 -0.0171984 0)
(7.33916 -0.0171973 0)
(7.34058 -0.0172165 0)
(7.34201 -0.0172746 0)
(7.34343 -0.0173831 0)
(7.34483 -0.0175489 0)
(7.3462 -0.0177766 0)
(7.34753 -0.0180691 0)
(7.34881 -0.0184287 0)
(7.35005 -0.0188575 0)
(7.35123 -0.0193577 0)
(7.35235 -0.0199315 0)
(7.35341 -0.0205814 0)
(7.35441 -0.0213099 0)
(7.35533 -0.0221198 0)
(7.35619 -0.0230141 0)
(7.35696 -0.0239955 0)
(7.35766 -0.025067 0)
(7.35827 -0.0262311 0)
(7.35879 -0.0274906 0)
(7.35921 -0.0288475 0)
(7.35954 -0.0303039 0)
(7.35977 -0.0318615 0)
(7.35989 -0.0335193 0)
(7.33179 0.00341607 0)
(7.329 0.00927058 0)
(7.32948 0.0119395 0)
(7.33186 0.0116897 0)
(7.33402 0.0096441 0)
(7.33583 0.00698956 0)
(7.33747 0.00422763 0)
(7.33897 0.00154796 0)
(7.34035 -0.000949373 0)
(7.34166 -0.00322356 0)
(7.34291 -0.00527317 0)
(7.34412 -0.00711491 0)
(7.3453 -0.00877286 0)
(7.34645 -0.0102736 0)
(7.34759 -0.0116437 0)
(7.3487 -0.0129079 0)
(7.34978 -0.0140891 0)
(7.35083 -0.0152077 0)
(7.35186 -0.0162818 0)
(7.35284 -0.0173277 0)
(7.35378 -0.0183598 0)
(7.35467 -0.0193909 0)
(7.35551 -0.0204324 0)
(7.35628 -0.0214945 0)
(7.35699 -0.0225863 0)
(7.35762 -0.0237158 0)
(7.35818 -0.0248903 0)
(7.35865 -0.0261162 0)
(7.35904 -0.0273991 0)
(7.35932 -0.0287438 0)
(7.35951 -0.0301544 0)
(7.3596 -0.0316345 0)
(7.35957 -0.0331851 0)
(7.33408 -0.00610617 0)
(7.33407 -0.0188967 0)
(7.33033 -0.0268966 0)
(7.3267 -0.0303657 0)
(7.32515 -0.0311116 0)
(7.32541 -0.0306546 0)
(7.32652 -0.0296667 0)
(7.32808 -0.0284752 0)
(7.32991 -0.0272779 0)
(7.3319 -0.0261789 0)
(7.33397 -0.0252236 0)
(7.33605 -0.0244277 0)
(7.33813 -0.0237916 0)
(7.34017 -0.023308 0)
(7.34216 -0.0229661 0)
(7.34409 -0.0227547 0)
(7.34595 -0.0226628 0)
(7.34774 -0.0226809 0)
(7.34946 -0.0228007 0)
(7.35109 -0.0230155 0)
(7.35264 -0.0233201 0)
(7.35409 -0.0237102 0)
(7.35546 -0.0241828 0)
(7.35672 -0.0247359 0)
(7.35788 -0.0253679 0)
(7.35894 -0.0260779 0)
(7.35989 -0.0268655 0)
(7.36072 -0.0277305 0)
(7.36144 -0.0286727 0)
(7.36204 -0.0296923 0)
(7.36251 -0.0307893 0)
(7.36286 -0.0319638 0)
(7.36308 -0.0332138 0)
(7.32967 0.0198687 0)
(7.32498 0.0370298 0)
(7.32933 0.0377269 0)
(7.33516 0.0323357 0)
(7.33887 0.0259309 0)
(7.34112 0.019639 0)
(7.343 0.0137628 0)
(7.34481 0.00849992 0)
(7.34663 0.00389493 0)
(7.34853 -9.98328e-05 0)
(7.35052 -0.0035548 0)
(7.3526 -0.00654272 0)
(7.35476 -0.00913371 0)
(7.35696 -0.0113916 0)
(7.35919 -0.0133723 0)
(7.36144 -0.0151239 0)
(7.36367 -0.0166875 0)
(7.36587 -0.018098 0)
(7.36803 -0.0193852 0)
(7.37013 -0.0205743 0)
(7.37217 -0.021687 0)
(7.37412 -0.0227417 0)
(7.37599 -0.0237543 0)
(7.37776 -0.0247385 0)
(7.37942 -0.0257062 0)
(7.38098 -0.0266678 0)
(7.38242 -0.0276323 0)
(7.38375 -0.0286075 0)
(7.38495 -0.0296003 0)
(7.38602 -0.0306166 0)
(7.38696 -0.0316618 0)
(7.38777 -0.0327403 0)
(7.38845 -0.0338552 0)
(7.32507 -0.0330697 0)
(7.29739 -0.0587349 0)
(7.27811 -0.0616416 0)
(7.27381 -0.0592433 0)
(7.28042 -0.0557154 0)
(7.29188 -0.0516568 0)
(7.30517 -0.0477083 0)
(7.31894 -0.0441987 0)
(7.33243 -0.0411771 0)
(7.34524 -0.038626 0)
(7.3572 -0.0365088 0)
(7.36827 -0.0347746 0)
(7.37844 -0.0333708 0)
(7.38775 -0.0322493 0)
(7.39627 -0.0313683 0)
(7.40405 -0.0306921 0)
(7.41114 -0.0301909 0)
(7.41761 -0.0298405 0)
(7.42351 -0.0296211 0)
(7.42888 -0.0295166 0)
(7.43377 -0.0295143 0)
(7.43821 -0.029604 0)
(7.44223 -0.0297777 0)
(7.44588 -0.0300291 0)
(7.44918 -0.0303534 0)
(7.45215 -0.0307466 0)
(7.45481 -0.0312058 0)
(7.45718 -0.0317288 0)
(7.45929 -0.0323137 0)
(7.46114 -0.0329589 0)
(7.46276 -0.0336636 0)
(7.46414 -0.0344263 0)
(7.46532 -0.0352451 0)
(7.33915 0.134728 0)
(7.37622 0.127079 0)
(7.39345 0.0872207 0)
(7.38985 0.0533424 0)
(7.37506 0.0283589 0)
(7.35429 0.0106377 0)
(7.33007 -0.00188552 0)
(7.30415 -0.0108443 0)