# y+ ()       
# Time        	patch         	min           	max           	average       
700           	lowerWall	3.608297e+00	7.925092e+01	4.308382e+01
700           	upperWall	3.060454e+01	4.722008e+01	4.153569e+01
