/*--------------------------------*- C++ -*----------------------------------*\
  =========                 |
  \\      /  F ield         | OpenFOAM: The Open Source CFD Toolbox
   \\    /   O peration     | Website:  https://openfoam.org
    \\  /    A nd           | Version:  10
     \\/     M anipulation  |
\*---------------------------------------------------------------------------*/
FoamFile
{
    format      ascii;
    class       volScalarField;
    location    "0.105";
    object      k;
}
// * * * * * * * * * * * * * * * * * * * * * * * * * * * * * * * * * * * * * //

dimensions      [0 2 -2 0 0 0 0];

internalField   nonuniform List<scalar> 
6820
(
0.198343
0.194802
0.191197
0.187561
0.183943
0.180367
0.176843
0.173374
0.16996
0.166598
0.163285
0.160015
0.156783
0.153582
0.150404
0.14724
0.144078
0.140908
0.137714
0.13448
0.131189
0.127817
0.124341
0.120729
0.11695
0.112964
0.108727
0.104191
0.0993046
0.0939985
0.0882186
0.081964
0.0744091
0.200926
0.200913
0.200502
0.200068
0.199639
0.199205
0.19876
0.198302
0.197829
0.197342
0.196844
0.196337
0.195823
0.195305
0.194785
0.194265
0.193747
0.193231
0.192719
0.19221
0.1917
0.191187
0.190663
0.190119
0.189539
0.188904
0.188185
0.187346
0.186341
0.185101
0.183579
0.181586
0.179378
0.236712
0.0164583
0.0234339
0.0111199
0.00678605
0.00810947
0.00977339
0.0118258
0.014072
0.0164275
0.018869
0.0213815
0.0239573
0.0265936
0.0292908
0.032053
0.0348867
0.0378014
0.0408094
0.0439258
0.0471683
0.0505577
0.0541172
0.0578721
0.0618497
0.066077
0.07058
0.0753805
0.080493
0.0859231
0.0916583
0.097677
0.103921
0.210772
0.147984
0.104987
0.0796573
0.0640389
0.053459
0.0456526
0.0395204
0.0344909
0.0302438
0.0265864
0.0233958
0.0205907
0.018116
0.0159349
0.0140231
0.0123656
0.0109532
0.00978006
0.008841
0.00812961
0.00763834
0.00736007
0.00729081
0.00743243
0.00779537
0.00840018
0.00927934
0.0104771
0.0120516
0.0140613
0.0165972
0.0196471
0.223484
0.0825333
0.0207784
0.00395034
0.000587023
0.000392616
0.00074771
0.0010973
0.00138656
0.00163563
0.00185832
0.00205835
0.00223471
0.00238507
0.00250724
0.00259958
0.00266111
0.00269145
0.00269067
0.00265914
0.00259739
0.00250605
0.00238579
0.00223737
0.0020618
0.00186048
0.00163673
0.00139377
0.00113829
0.000886091
0.000655001
0.000472407
0.000362737
0.217312
0.113799
0.0522654
0.028623
0.0196041
0.0152456
0.0121813
0.00943122
0.00683039
0.00453543
0.00274382
0.0015258
0.000797162
0.000404752
0.000209153
0.000116694
7.51133e-05
5.84816e-05
5.46425e-05
5.78186e-05
6.49259e-05
7.41574e-05
8.35624e-05
9.17398e-05
9.35833e-05
0.000103918
4.03192e-05
5.16289e-05
0.000238492
0.000316604
0.000230574
9.39237e-05
0.000270528
0.213263
0.134172
0.0658494
0.0326315
0.0187894
0.0129356
0.0101887
0.00874326
0.00791723
0.00747888
0.00720502
0.00698276
0.0067811
0.00659084
0.00640522
0.00621614
0.00601564
0.00579878
0.00556546
0.00531961
0.00506702
0.00481303
0.0045624
0.00431826
0.00408171
0.00385367
0.00362926
0.00341485
0.0032187
0.00302113
0.00281589
0.0026102
0.00241157
0.203638
0.182135
0.128604
0.069588
0.0345701
0.0185244
0.0115701
0.00840604
0.00685324
0.00619792
0.00593135
0.00579186
0.00570221
0.00563904
0.00559297
0.00555864
0.00553217
0.00551047
0.0054911
0.00547161
0.00545062
0.00542725
0.00540116
0.00537195
0.00533907
0.00530138
0.00525837
0.00520686
0.00514435
0.00507313
0.00499326
0.00490279
0.00480299
0.202193
0.189146
0.164864
0.122713
0.0775435
0.0452315
0.0264779
0.0164444
0.0111833
0.00895604
0.00809962
0.0076679
0.00737626
0.00715082
0.00696844
0.00681862
0.00669442
0.00659055
0.00650282
0.00642747
0.00636278
0.00630826
0.00626397
0.00623
0.00620574
0.0061892
0.00617688
0.0061642
0.00614675
0.00612168
0.00608797
0.0060464
0.00599986
0.201496
0.192602
0.179948
0.160037
0.126765
0.0881055
0.056106
0.034875
0.0226499
0.0175198
0.0156127
0.0146527
0.0140093
0.0135183
0.013126
0.0128067
0.0125429
0.012322
0.0121345
0.0119722
0.0118316
0.0117109
0.0116099
0.0115289
0.0114674
0.0114227
0.0113893
0.0113596
0.0113255
0.0112809
0.0112237
0.0111558
0.0110842
0.201024
0.194941
0.186663
0.176306
0.160439
0.136937
0.108443
0.0812665
0.060666
0.0503711
0.0455377
0.0424289
0.0400445
0.0381313
0.0365882
0.0353435
0.0343354
0.0335022
0.032804
0.0322169
0.0317249
0.031314
0.0309726
0.0306914
0.0304626
0.0302797
0.0301353
0.0300203
0.0299253
0.0298414
0.0297625
0.0296835
0.0296095
0.200723
0.196428
0.190917
0.184897
0.177044
0.165491
0.1494
0.130706
0.113793
0.102442
0.0954513
0.0900829
0.0855736
0.0817718
0.0786034
0.0759683
0.0737775
0.0719145
0.0703213
0.068968
0.0678266
0.0668687
0.0660667
0.0653958
0.0648337
0.0643601
0.063962
0.0636294
0.0633547
0.0631305
0.0629497
0.0628024
0.0626888
0.200522
0.197423
0.193632
0.189882
0.185689
0.180348
0.173223
0.164292
0.154785
0.146346
0.139559
0.133579
0.128048
0.123021
0.118583
0.114685
0.111312
0.108427
0.105993
0.103963
0.102281
0.100893
0.0997487
0.0988056
0.0980209
0.0973619
0.096809
0.0963496
0.0959744
0.0956753
0.0954453
0.0952732
0.0951539
0.20039
0.198076
0.195377
0.192978
0.190671
0.188066
0.184742
0.180441
0.175378
0.170095
0.165025
0.160198
0.155472
0.150956
0.146795
0.14303
0.139675
0.136738
0.134204
0.132039
0.130187
0.128599
0.127237
0.126069
0.125063
0.124198
0.123455
0.122821
0.122284
0.121835
0.121463
0.121158
0.120908
0.200303
0.198509
0.196507
0.1949
0.193581
0.192288
0.190719
0.188609
0.185866
0.182593
0.17895
0.175058
0.170971
0.166856
0.162896
0.159222
0.155898
0.152956
0.150384
0.148159
0.146242
0.144593
0.143178
0.141964
0.140926
0.140039
0.139283
0.138642
0.138102
0.137647
0.137267
0.136947
0.136671
0.200245
0.198794
0.19723
0.196084
0.195286
0.19462
0.193825
0.192659
0.190988
0.188806
0.186143
0.183076
0.179732
0.176282
0.172885
0.16966
0.166679
0.163978
0.161563
0.159422
0.157537
0.155883
0.154437
0.153174
0.152075
0.151118
0.150286
0.149565
0.148939
0.148395
0.14792
0.1475
0.147116
0.200209
0.198974
0.197675
0.196783
0.196239
0.195856
0.195411
0.194697
0.193567
0.191939
0.189797
0.187207
0.1843
0.181232
0.17815
0.175172
0.172379
0.169817
0.167503
0.165438
0.16361
0.162001
0.16059
0.159357
0.158282
0.157345
0.156529
0.155817
0.155195
0.154647
0.154159
0.153719
0.153305
0.200188
0.199078
0.19792
0.197143
0.196694
0.196404
0.196076
0.195522
0.1946
0.193227
0.191398
0.189175
0.186669
0.18401
0.181317
0.178691
0.176201
0.173888
0.171773
0.169861
0.168147
0.166618
0.16526
0.164058
0.162996
0.162057
0.161228
0.160492
0.159839
0.15925
0.158711
0.158213
0.157744
0.200178
0.199124
0.19801
0.197241
0.196776
0.19646
0.196117
0.195581
0.194723
0.193473
0.191826
0.189835
0.187589
0.185196
0.18276
0.180367
0.17808
0.175941
0.173972
0.172181
0.170565
0.169118
0.167828
0.166681
0.165663
0.16476
0.163957
0.163241
0.162595
0.161996
0.161428
0.160897
0.160408
0.200179
0.199122
0.197974
0.197136
0.196578
0.196158
0.19572
0.195117
0.194241
0.193035
0.1915
0.189681
0.187655
0.18551
0.18333
0.181188
0.179134
0.177203
0.175415
0.173777
0.172288
0.170944
0.169736
0.168652
0.167681
0.166811
0.166028
0.165317
0.164653
0.164018
0.163403
0.162821
0.162302
0.200189
0.199074
0.197824
0.196853
0.196142
0.195561
0.194973
0.19425
0.193301
0.192084
0.190601
0.188891
0.187018
0.185053
0.183066
0.181113
0.179239
0.177473
0.175832
0.174322
0.172945
0.171697
0.17057
0.169554
0.168642
0.167818
0.167061
0.16635
0.16567
0.16501
0.164365
0.163751
0.163216
0.200208
0.19898
0.19756
0.196393
0.195473
0.194683
0.193901
0.19302
0.191964
0.190701
0.189237
0.187606
0.185859
0.184055
0.182247
0.18048
0.178788
0.177194
0.175709
0.17434
0.173087
0.171946
0.170911
0.169974
0.169123
0.168332
0.167582
0.166861
0.166162
0.165477
0.164802
0.164155
0.163591
0.200238
0.198833
0.197166
0.195737
0.194554
0.193512
0.192505
0.191439
0.190254
0.188924
0.187454
0.185872
0.184219
0.182539
0.180875
0.179259
0.177718
0.176268
0.174918
0.173672
0.17253
0.171489
0.170542
0.169676
0.168865
0.168092
0.167346
0.166623
0.165916
0.165219
0.164529
0.163866
0.163286
0.200281
0.198619
0.196612
0.194842
0.193336
0.191999
0.190736
0.189467
0.188139
0.18673
0.185243
0.1837
0.182131
0.180568
0.17904
0.177572
0.17618
0.174876
0.173664
0.172547
0.171524
0.170588
0.169719
0.168898
0.16811
0.16735
0.166612
0.165892
0.165185
0.164484
0.163787
0.163114
0.162524
0.200342
0.198318
0.19585
0.193646
0.191754
0.190086
0.188551
0.187074
0.185604
0.184115
0.182607
0.181092
0.179589
0.17812
0.176704
0.175357
0.17409
0.172909
0.171818
0.170814
0.16989
0.169029
0.168211
0.167425
0.166667
0.165932
0.165217
0.164516
0.163825
0.163137
0.162452
0.161788
0.161202
0.20043
0.197886
0.194789
0.192024
0.189662
0.187609
0.185774
0.184077
0.182461
0.180896
0.179371
0.177889
0.176458
0.175088
0.173789
0.172569
0.171433
0.170383
0.169418
0.168522
0.167674
0.166864
0.166086
0.165338
0.164616
0.163917
0.163236
0.162569
0.161909
0.161251
0.160592
0.159952
0.159383
0.200556
0.197266
0.193317
0.189848
0.186945
0.18449
0.182365
0.180468
0.178727
0.177098
0.175559
0.174102
0.172725
0.171431
0.170224
0.169105
0.168073
0.167124
0.166248
0.165422
0.164633
0.163878
0.163156
0.162463
0.161798
0.161156
0.160531
0.159919
0.159313
0.158707
0.158097
0.157503
0.156972
0.200743
0.196347
0.191198
0.18679
0.183208
0.180273
0.177821
0.175714
0.173855
0.17218
0.17065
0.169243
0.167947
0.166755
0.165662
0.164665
0.163745
0.162879
0.162061
0.161287
0.160553
0.159861
0.159208
0.15859
0.158003
0.157441
0.156899
0.15637
0.155847
0.155323
0.154794
0.154275
0.153807
0.201021
0.194979
0.188201
0.182668
0.178374
0.174997
0.172269
0.169993
0.168036
0.166313
0.164774
0.163388
0.162133
0.160993
0.15996
0.159028
0.158165
0.157356
0.156599
0.155894
0.155239
0.154632
0.154071
0.153551
0.153066
0.152611
0.152177
0.151757
0.151344
0.150929
0.150508
0.150092
0.149716
0.20147
0.192772
0.183543
0.176416
0.171171
0.167244
0.164215
0.161793
0.159789
0.158085
0.156609
0.155314
0.154156
0.153095
0.152117
0.151221
0.150398
0.149649
0.148969
0.148359
0.147815
0.147332
0.146907
0.146533
0.146202
0.145908
0.14564
0.145389
0.145147
0.144903
0.144651
0.144398
0.144171
0.202184
0.189257
0.176793
0.167943
0.161829
0.15744
0.154116
0.151485
0.149328
0.147515
0.145968
0.144633
0.143455
0.142396
0.141443
0.140591
0.139835
0.139173
0.138601
0.138115
0.13771
0.137382
0.137124
0.136929
0.136787
0.13669
0.136626
0.136586
0.136557
0.13653
0.136495
0.136455
0.136429
0.203502
0.18278
0.165106
0.153836
0.146737
0.141957
0.138449
0.1357
0.133459
0.131585
0.129994
0.12863
0.127453
0.126438
0.125569
0.124834
0.124224
0.123733
0.123354
0.123082
0.122913
0.122838
0.122849
0.122939
0.123094
0.123305
0.123559
0.123842
0.124143
0.124448
0.124747
0.125037
0.125328
0.206716
0.16698
0.139907
0.125103
0.116593
0.111116
0.107242
0.104327
0.102047
0.100217
0.0987203
0.0974864
0.0964694
0.0956397
0.0949774
0.0944686
0.094104
0.0938782
0.0937878
0.093831
0.0940057
0.0943081
0.0947317
0.0952671
0.095902
0.0966218
0.0974107
0.0982523
0.0991304
0.100029
0.100933
0.101832
0.102727
0.213604
0.132768
0.0926609
0.0757753
0.0680207
0.0638484
0.0612342
0.0594116
0.0580524
0.0569933
0.0561474
0.0554679
0.0549295
0.0545172
0.0542223
0.0540403
0.0539701
0.0540139
0.0541755
0.0544598
0.0548706
0.0554094
0.0560745
0.0568605
0.057759
0.0587589
0.0598478
0.0610127
0.0622402
0.0635165
0.0648277
0.066159
0.0675041
0.220927
0.0961635
0.0522333
0.0379376
0.0327294
0.0304058
0.0291105
0.0282531
0.0276199
0.0271148
0.0266951
0.0263427
0.0260512
0.0258198
0.02565
0.0255443
0.0255058
0.0255381
0.0256449
0.0258301
0.026097
0.0264478
0.0268832
0.0274022
0.028002
0.0286782
0.0294247
0.0302344
0.0310994
0.032011
0.0329605
0.0339376
0.0349365
0.221732
0.0898627
0.0463212
0.0327364
0.027663
0.025049
0.0232173
0.0216805
0.0202981
0.0190279
0.0178635
0.0168078
0.0158617
0.0150235
0.0142892
0.013653
0.0131074
0.0126445
0.0122568
0.0119373
0.0116796
0.0114784
0.0113289
0.0112271
0.0111693
0.0111523
0.0111728
0.0112276
0.0113136
0.0114271
0.0115653
0.0117231
0.0119052
0.213239
0.134627
0.0894853
0.0656411
0.052198
0.0438272
0.0381091
0.0339172
0.030693
0.0281198
0.0260081
0.0242324
0.0227099
0.0213828
0.0202095
0.0191596
0.01821
0.017343
0.0165449
0.015805
0.0151149
0.0144681
0.0138593
0.0132844
0.0127403
0.0122241
0.0117338
0.0112675
0.0108237
0.0104011
0.00999797
0.00961637
0.00924433
0.240254
0.000448466
0.0366215
0.0331839
0.000570482
0.000184299
0.00234655
0.000703695
0.00683328
0.00161223
0.0146842
0.00236537
0.000102696
0.000381526
0.000269189
0.000235084
0.000262596
0.000289135
0.000307161
0.000323304
0.000338217
0.000351123
0.000362201
0.000371762
0.000379957
0.000386918
0.000392808
0.000397802
0.000402074
0.000405809
0.00040917
0.000412449
0.00041538
0.200085
0.199941
0.199743
0.199545
0.199353
0.199164
0.198974
0.198781
0.198585
0.198383
0.198177
0.197964
0.197746
0.197519
0.197282
0.197034
0.196776
0.196509
0.196232
0.195948
0.195656
0.195357
0.195052
0.194743
0.194429
0.194113
0.193795
0.193476
0.193157
0.192841
0.192526
0.192218
0.191902
0.199875
0.19957
0.199242
0.198906
0.198569
0.198236
0.197912
0.197596
0.197292
0.196998
0.196716
0.196445
0.196186
0.195938
0.195701
0.195476
0.195261
0.195058
0.194864
0.194681
0.194507
0.194342
0.194185
0.194036
0.193894
0.193759
0.193629
0.193504
0.193384
0.193267
0.193153
0.19304
0.192929
0.0684347
0.0654001
0.0648686
0.0684823
0.0707343
0.0935232
0.124163
0.114637
0.0984327
0.0779027
0.0567793
0.0451693
0.0431904
0.0467686
0.0532294
0.0615509
0.0708153
0.0802639
0.0896621
0.0977136
0.102725
0.103716
0.10023
0.0897802
0.0748978
0.0684763
0.0762721
0.0850085
0.0789788
0.0581359
0.033666
0.0157493
0.00728229
0.00648518
0.00332117
0.00321725
0.0395306
0.0960515
0.140718
0.171074
0.197907
0.226413
0.252861
0.272359
0.280672
0.2765
0.259467
0.233925
0.211603
0.190602
0.149399
0.0968292
0.0665719
0.0696088
0.0889116
0.105486
0.112496
0.11228
0.109303
0.1065
0.104915
0.104485
0.104658
0.104622
0.103313
0.0995201
0.0923133
0.081737
0.06937
0.058217
0.05175
0.0524591
0.0606644
0.0743123
0.0899696
0.104365
0.115275
0.121392
0.122187
0.118027
0.110266
0.100214
0.0886438
0.076079
0.0631745
0.0508959
0.0404068
0.0328193
0.0289961
0.0294164
0.033976
0.0416674
0.0506689
0.0593369
0.0668915
0.0724125
0.0748535
0.0701953
0.0572344
0.0438683
0.174464
0.167849
0.159902
0.154262
0.152416
0.155602
0.158193
0.159255
0.159334
0.160318
0.147117
0.0993135
0.0578449
0.0431784
0.0453685
0.0535993
0.0628195
0.0714055
0.0791632
0.0856882
0.0896436
0.0900885
0.0849192
0.0737099
0.0655484
0.0707632
0.0831177
0.0849679
0.0693387
0.0444056
0.0220242
0.00907814
0.00518004
0.00666912
0.0068551
0.00178559
0.020906
0.0711423
0.121526
0.157077
0.183223
0.207701
0.230329
0.246916
0.253838
0.250155
0.235596
0.215693
0.199623
0.175119
0.127802
0.0800383
0.0621094
0.0737674
0.0943725
0.108263
0.112409
0.110634
0.107199
0.104425
0.102957
0.102603
0.102825
0.102858
0.101668
0.0980523
0.091058
0.0806882
0.0684938
0.0574982
0.0512282
0.0522228
0.0608007
0.0748418
0.0907846
0.105191
0.115769
0.121414
0.121835
0.117497
0.109749
0.0997594
0.0882112
0.0756296
0.0627122
0.0504482
0.0400255
0.0325933
0.0290272
0.029773
0.0346684
0.0426825
0.0520196
0.0610019
0.0686711
0.0739126
0.0757419
0.070128
0.056296
0.042055
0.111488
0.119683
0.126861
0.132649
0.136863
0.139798
0.142165
0.144391
0.147169
0.152169
0.159936
0.155062
0.121241
0.0771797
0.0510802
0.0454418
0.0506136
0.0587886
0.0663669
0.0720251
0.075233
0.0740146
0.0674558
0.0615654
0.0662638
0.0802208
0.0878159
0.0776448
0.0540985
0.0290997
0.0117894
0.00493489
0.00553148
0.00879809
0.0110323
0.00570724
0.00972356
0.0457382
0.0964405
0.138314
0.167442
0.189739
0.208821
0.222686
0.228612
0.225562
0.213676
0.19987
0.18576
0.153628
0.103255
0.0656612
0.0614416
0.079811
0.0997165
0.110178
0.111611
0.108633
0.104966
0.10229
0.100931
0.100629
0.100882
0.100973
0.0998953
0.0964454
0.0896524
0.0794913
0.0674924
0.056695
0.0506726
0.0519951
0.0609577
0.0753607
0.0915318
0.105926
0.116231
0.121459
0.121413
0.116766
0.10892
0.0989614
0.0874871
0.0749757
0.0621197
0.0499243
0.0396178
0.0324229
0.029291
0.0306719
0.0362473
0.0447304
0.0542134
0.0631537
0.0707875
0.0760772
0.0780745
0.0725112
0.0582062
0.0428762
0.0241622
0.0303791
0.0375452
0.0450254
0.0516788
0.0570355
0.0618819
0.0672425
0.0742234
0.0846555
0.102284
0.1263
0.139868
0.126909
0.0952836
0.0668215
0.0523454
0.0493974
0.0518821
0.0552824
0.0570319
0.0561595
0.0562793
0.0642343
0.0795708
0.0897982
0.0830547
0.0611765
0.0351831
0.0149601
0.00506418
0.00449059
0.00880708
0.0133212
0.0161947
0.0126462
0.00736828
0.02514
0.0677605
0.113084
0.147598
0.171494
0.188666
0.200312
0.205591
0.20304
0.194413
0.184921
0.166252
0.125624
0.0787586
0.0563843
0.065196
0.0872107
0.104391
0.111032
0.110133
0.106358
0.102647
0.100099
0.0988222
0.0985451
0.0988167
0.0989614
0.0979941
0.0947074
0.0881099
0.0781573
0.0663735
0.0558131
0.0500855
0.0517763
0.0611395
0.0758842
0.0922346
0.106572
0.116574
0.121281
0.120585
0.115492
0.107504
0.097634
0.086354
0.0740426
0.0613556
0.0493103
0.0391723
0.0322283
0.029505
0.0314714
0.037697
0.0467088
0.0565014
0.0655679
0.0732216
0.0784879
0.0805909
0.0751951
0.0607105
0.0445901
0.000410341
0.000800547
0.00167265
0.00308235
0.00485311
0.00675802
0.00889161
0.0116008
0.015557
0.0220888
0.0343186
0.0573382
0.0893786
0.115689
0.121856
0.108609
0.0882955
0.071725
0.0621856
0.0582665
0.0571102
0.0607616
0.0711931
0.0854013
0.0933677
0.0859297
0.0644074
0.0384326
0.0171551
0.00541585
0.00351926
0.00816279
0.0149717
0.0202472
0.0228554
0.0210082
0.0126108
0.0140804
0.040868
0.0824316
0.121032
0.149328
0.168082
0.179423
0.184056
0.182198
0.176436
0.165447
0.137707
0.0936388
0.0588364
0.0541566
0.0728075
0.0948594
0.107823
0.110777
0.10811
0.103906
0.100267
0.0978367
0.0966075
0.0963355
0.0966189
0.0968173
0.0959605
0.0928363
0.0864329
0.0766885
0.065132
0.0548427
0.0494552
0.0515514
0.0613249
0.0763822
0.0928479
0.107042
0.116616
0.120609
0.119145
0.113633
0.105617
0.095957
0.0849553
0.0728927
0.0604014
0.0485177
0.0385472
0.0318334
0.0294676
0.0319505
0.038789
0.0483554
0.0584978
0.0676468
0.0751687
0.0802728
0.082506
0.0775512
0.06323
0.0465211
0.000120939
0.000465012
0.000400894
0.000203844
0.000882837
0.000777833
0.00123078
0.00183905
0.000700168
0.000703837
0.00285182
0.0101715
0.0284879
0.0575811
0.0871027
0.105604
0.109923
0.104889
0.0973734
0.0919518
0.0911303
0.0947476
0.0991882
0.0975372
0.0845209
0.0617886
0.0368557
0.0167617
0.00522835
0.00287008
0.00756547
0.0156786
0.0238478
0.0295084
0.0316253
0.0303476
0.0226347
0.0142739
0.0226178
0.0515735
0.0881497
0.119906
0.142338
0.15583
0.161185
0.160099
0.153529
0.135745
0.10132
0.0640262
0.048049
0.0593439
0.0827589
0.101571
0.109673
0.109522
0.1057
0.101348
0.0978228
0.0954749
0.0942624
0.0939842
0.0942801
0.0945353
0.0937907
0.0908292
0.0846218
0.0750914
0.0637744
0.053782
0.0487721
0.0513031
0.0614866
0.0768143
0.0933111
0.107236
0.116216
0.11937
0.117268
0.111592
0.103753
0.0943719
0.0836059
0.071706
0.0593427
0.0475992
0.0378105
0.0313408
0.0292929
0.0321429
0.0393448
0.0492661
0.0597967
0.0693234
0.0770805
0.082233
0.0845654
0.0798667
0.0656262
0.0483551
0.0021674
0.0018356
0.00150583
0.00125186
0.00103628
0.000842893
0.000663083
0.000315526
0.000197475
0.000225662
0.000679702
0.00150422
0.00266968
0.0124289
0.032104
0.0560398
0.0768362
0.0904293
0.0971733
0.0996904
0.100306
0.0971233
0.087776
0.0712806
0.049958
0.0288511
0.0126026
0.00371262
0.00249607
0.00758071
0.0165104
0.0265499
0.0353315
0.0410955
0.0428973
0.0412595
0.0349928
0.0236331
0.0177173
0.0288483
0.0546652
0.0840909
0.108425
0.124391
0.131023
0.12976
0.119519
0.0962291
0.0650213
0.044771
0.0487428
0.0702401
0.0929254
0.106388
0.109906
0.107502
0.103058
0.0987155
0.0952896
0.092981
0.0917625
0.0914745
0.0917877
0.0921056
0.0914766
0.0886796
0.0826718
0.0733659
0.0623079
0.0526386
0.048033
0.0510128
0.0615898
0.0771259
0.0935464
0.107064
0.115331
0.117726
0.115274
0.109657
0.102057
0.0929182
0.0823323
0.0705541
0.0582865
0.0466501
0.0370127
0.0307591
0.0289781
0.0320751
0.0394197
0.0494077
0.0600772
0.0698814
0.0779484
0.0833543
0.0860432
0.0818981
0.0679878
0.0502389
0.00467249
0.00450166
0.00424298
0.00360627
0.00317339
0.00291493
0.00271954
0.00249459
0.00224839
0.00190667
0.00158264
0.000674325
0.000153428
0.00172304
0.00413061
0.0128972
0.0266812
0.0408041
0.0517031
0.0576908
0.0578939
0.0523018
0.0417712
0.0285565
0.0156078
0.00579977
0.00117763
0.00236169
0.00853652
0.018193
0.0294969
0.040462
0.0493566
0.0549531
0.0566063
0.0544901
0.0488652
0.0382846
0.0257813
0.0212692
0.030572
0.049557
0.0698571
0.0852109
0.0920382
0.0898282
0.0775272
0.0571908
0.0405383
0.0411309
0.0594969
0.0835373
0.101297
0.108885
0.108784
0.10499
0.100286
0.0959999
0.0926269
0.0903196
0.0890809
0.0887834
0.0891199
0.0895079
0.0890016
0.0863751
0.0805742
0.0715067
0.0607333
0.051422
0.0472501
0.05068
0.0616062
0.0772577
0.093474
0.106465
0.114019
0.115871
0.113253
0.10771
0.100274
0.0913267
0.0809319
0.0693208
0.0571888
0.0456793
0.0362009
0.0301689
0.0286587
0.0319799
0.0393442
0.0491045
0.059519
0.06933
0.077726
0.0836437
0.0869822
0.0835888
0.0701512
0.0520165
0.00594193
0.00587403
0.00579853
0.00561256
0.00537318
0.00515776
0.00495688
0.0047461
0.00449484
0.00415086
0.0037498
0.00305181
0.00232302
0.00088435
0.000374263
0.000386279
0.00251712
0.00681665
0.0114846
0.0143917
0.0142761
0.0117087
0.00768219
0.00349012
0.000532267
0.00026287
0.00369446
0.0109258
0.0213041
0.0335541
0.0460166
0.0570713
0.0655144
0.0706056
0.072082
0.0698949
0.0644282
0.0553256
0.0422852
0.0296612
0.024299
0.0284345
0.0382485
0.0478123
0.052382
0.050053
0.0417341
0.0337476
0.0359708
0.0521858
0.0755772
0.095647
0.106674
0.109236
0.10673
0.102205
0.097414
0.0931586
0.0897875
0.087453
0.0861832
0.0858742
0.0862379
0.0867054
0.0863346
0.0838925
0.0783136
0.0695045
0.0590459
0.0501335
0.0464374
0.0503318
0.0615554
0.0772062
0.0930857
0.105487
0.112432
0.113908
0.111159
0.10564
0.0983287
0.0895726
0.0793958
0.0679906
0.056034
0.0446868
0.0353954
0.0296022
0.0283823
0.0320003
0.0395337
0.0491575
0.0591371
0.0684819
0.0766701
0.0827983
0.0868166
0.0844905
0.0719053
0.0536429
0.0109963
0.0109007
0.0108001
0.0106381
0.010412
0.0101738
0.00991242
0.00958546
0.00914719
0.00855271
0.0077859
0.00683734
0.00578538
0.00442351
0.00314649
0.00148996
0.000756847
0.00050436
0.000636655
0.000785748
0.000704327
0.000461934
0.000366517
0.00103839
0.00338657
0.00826787
0.0161669
0.0269536
0.0397283
0.053016
0.06528
0.0753687
0.0826583
0.0868728
0.0880378
0.0861496
0.0812105
0.0733899
0.0622793
0.0486389
0.0361656
0.0287401
0.0269538
0.0280132
0.0289501
0.0284746
0.0286955
0.034718
0.0499285
0.0712754
0.0912735
0.104149
0.108955
0.108015
0.104139
0.0992582
0.0944108
0.090133
0.0867218
0.0843356
0.0830185
0.0826874
0.0830776
0.0836366
0.0834236
0.081193
0.0758644
0.0673448
0.0572387
0.0487706
0.0455961
0.0499842
0.0614961
0.0770889
0.0925619
0.104369
0.110769
0.111898
0.109006
0.103506
0.0963204
0.0877489
0.0777771
0.0665693
0.0547946
0.0436331
0.0345608
0.029027
0.0280829
0.0319802
0.0397931
0.0495976
0.0594892
0.0684478
0.0761415
0.0820108
0.0862977
0.0848258
0.0731255
0.0549353
0.0295034
0.0293631
0.0291612
0.0288007
0.0282547
0.0276021
0.0268532
0.0259361
0.0247533
0.0232175
0.0212744
0.0189518
0.0163748
0.013738
0.0111922
0.00881988
0.00677906
0.00515918
0.00408231
0.0036194
0.003807
0.00475315
0.00681938
0.0105771
0.0166381
0.0253615
0.0365573
0.0493897
0.0626004
0.0749133
0.0853675
0.0934413
0.0989972
0.102073
0.102827
0.101346
0.0974638
0.0911681
0.0824398
0.0712334
0.0586821
0.0472879
0.0391367
0.0346332
0.0332943
0.0352434
0.0420585
0.0550744
0.0726761
0.090091
0.102606
0.108482
0.108853
0.105853
0.10125
0.0961476
0.0912099
0.0868608
0.0833735
0.0809044
0.0795094
0.0791328
0.0795431
0.0802094
0.0801896
0.0782164
0.0731864
0.0650045
0.0553011
0.0473298
0.0447243
0.0496372
0.0614454
0.0769647
0.0920144
0.103231
0.109096
0.109876
0.106843
0.101361
0.0942884
0.0858784
0.0760894
0.0650692
0.053483
0.0425282
0.0337035
0.0284501
0.0277665
0.031873
0.0399149
0.0500332
0.0601875
0.0691041
0.0763762
0.081753
0.0859052
0.0849182
0.0739581
0.055934
0.0625487
0.0623512
0.0620236
0.0614169
0.0604679
0.0592666
0.057877
0.0562502
0.0542709
0.0518115
0.0487674
0.0451038
0.0408997
0.0363847
0.0318678
0.0276829
0.0240742
0.0212595
0.0194104
0.0186525
0.0192295
0.0214686
0.0256968
0.032167
0.0409081
0.0515666
0.063379
0.0753335
0.0864442
0.0959832
0.103571
0.10913
0.112778
0.114679
0.115006
0.113858
0.111127
0.106645
0.100375
0.0923484
0.082896
0.07316
0.0648457
0.0595391
0.05804
0.0610892
0.0690586
0.0807965
0.0933246
0.103225
0.108585
0.109529
0.107295
0.103174
0.0981206
0.0928077
0.0877366
0.0832748
0.0796686
0.0770674
0.0755457
0.0750872
0.0755057
0.0762994
0.0765228
0.0748765
0.0702205
0.0624491
0.053217
0.0458061
0.0438213
0.0492883
0.0613963
0.0768322
0.0914522
0.102082
0.107417
0.107854
0.104679
0.0992029
0.0922224
0.0839483
0.0743219
0.0634827
0.0520954
0.0413718
0.0328244
0.0278719
0.0274386
0.031677
0.0397774
0.0500232
0.0604207
0.0695327
0.0767654
0.0819542
0.0860028
0.0852425
0.0747473
0.056762
0.0950361
0.0948684
0.0945546
0.0939444
0.092957
0.0916541
0.0901308
0.0883998
0.0863916
0.0839979
0.0811051
0.0776258
0.0735399
0.0689426
0.0640653
0.059256
0.0549125
0.0514185
0.0491142
0.0482841
0.0492326
0.0521687
0.0571528
0.0640272
0.0723781
0.081563
0.0908297
0.0994822
0.107011
0.113141
0.117797
0.121049
0.123045
0.123948
0.123887
0.12293
0.121053
0.118143
0.114101
0.108949
0.102887
0.0964712
0.0907593
0.0869974
0.086064
0.0884326
0.0937336
0.100404
0.106302
0.109803
0.11043
0.108582
0.104937
0.100126
0.0946992
0.089155
0.0839138
0.0792905
0.0755018
0.0726991
0.0709878
0.0704029
0.0708143
0.0717582
0.0722879
0.0710619
0.0668867
0.0596303
0.0509633
0.0441918
0.0428856
0.0489349
0.0613414
0.0766787
0.0908599
0.100906
0.105722
0.105821
0.102501
0.0970179
0.0901062
0.0819412
0.0724563
0.0617932
0.0506213
0.040162
0.0319282
0.0272976
0.0271049
0.0314249
0.039477
0.0496747
0.0601163
0.0693061
0.0765539
0.0817576
0.0859047
0.0854885
0.0755246
0.0575848
0.120664
0.120359
0.119921
0.119231
0.11822
0.116925
0.115438
0.113813
0.112046
0.110091
0.107884
0.105363
0.102486
0.0992588
0.0957705
0.092214
0.0888807
0.0861239
0.0843013
0.0837655
0.0846422
0.0869856
0.0907124
0.0955615
0.101126
0.106933
0.112533
0.117572
0.121821
0.125164
0.127584
0.129133
0.12992
0.130074
0.129682
0.128771
0.127355
0.125412
0.122897
0.119805
0.116247
0.11252
0.109183
0.106859
0.106032
0.106815
0.10875
0.110835
0.112039
0.111761
0.10988
0.106551
0.102037
0.0966823
0.0909002
0.0851052
0.0796464
0.0747878
0.0707318
0.0676492
0.0656867
0.0649344
0.0653233
0.0664383
0.0673408
0.0666454
0.0630874
0.0564856
0.0485088
0.0424762
0.0419146
0.0485734
0.0612718
0.0764894
0.0902187
0.099684
0.103991
0.10376
0.100292
0.0947885
0.0879236
0.0798427
0.0704807
0.0599911
0.0490525
0.0388919
0.0310076
0.0267135
0.0267361
0.0310733
0.0389856
0.0490152
0.0593473
0.0684667
0.075681
0.0809709
0.0853507
0.0854628
0.0762226
0.05843
0.136404
0.136076
0.135638
0.135002
0.134118
0.133003
0.131722
0.13034
0.128885
0.127359
0.125746
0.124028
0.122194
0.120248
0.118222
0.116197
0.114309
0.112743
0.111713
0.111409
0.111895
0.113184
0.115201
0.117784
0.12071
0.123733
0.126624
0.129191
0.131294
0.132846
0.13382
0.134247
0.134208
0.133825
0.133154
0.132186
0.130937
0.129425
0.127659
0.12565
0.123449
0.121192
0.119081
0.117379
0.11624
0.115618
0.115239
0.114646
0.113415
0.111268
0.108066
0.103799
0.0986051
0.0927675
0.0866382
0.0805541
0.0747974
0.0696058
0.065197
0.0617767
0.0595299
0.0585899
0.0589445
0.0602397
0.0615667
0.0615086
0.05872
0.0529432
0.0458145
0.0406445
0.0409043
0.0481989
0.0611756
0.0762457
0.0895056
0.098391
0.1022
0.101646
0.0980272
0.0924883
0.0856451
0.0776204
0.0683613
0.0580442
0.0473628
0.0375435
0.0300501
0.0261068
0.0263146
0.0306054
0.0383133
0.0481219
0.0582774
0.0672275
0.0743142
0.0796189
0.0841832
0.0848818
0.0765448
0.0591558
0.146736
0.146291
0.145764
0.145096
0.144255
0.143246
0.142115
0.140913
0.139675
0.138419
0.137149
0.135867
0.134577
0.13329
0.13203
0.130835
0.129764
0.128889
0.128295
0.128052
0.128219
0.128796
0.129743
0.130982
0.1324
0.133864
0.135236
0.13639
0.137225
0.137676
0.137725
0.137401
0.136783
0.136002
0.135095
0.134021
0.132783
0.131406
0.129908
0.128303
0.126616
0.124889
0.123177
0.121559
0.120048
0.118578
0.117013
0.115133
0.1127
0.109497
0.105385
0.100363
0.0945838
0.0883035
0.0818023
0.0753433
0.0691783
0.0635655
0.058765
0.0550152
0.0525136
0.0514057
0.0517204
0.0531779
0.0549369
0.0555846
0.0537035
0.0489337
0.0428372
0.0386777
0.0398477
0.0478036
0.0610375
0.0759239
0.0886917
0.0969966
0.100318
0.099451
0.0956809
0.0900929
0.0832498
0.0752594
0.0660901
0.0559504
0.0455527
0.0361152
0.0290467
0.0254524
0.0257898
0.0299356
0.0373356
0.0468437
0.0567667
0.0655173
0.0724829
0.0778045
0.082519
0.0838172
0.0765014
0.0597345
0.152893
0.152417
0.151878
0.151237
0.150473
0.149591
0.14862
0.147599
0.146562
0.145529
0.144511
0.143514
0.142542
0.141604
0.140713
0.139892
0.139168
0.138576
0.138149
0.137921
0.137923
0.138135
0.138529
0.139058
0.139652
0.140226
0.140693
0.140971
0.140992
0.140717
0.140134
0.13928
0.138232
0.137136
0.136024
0.134822
0.133526
0.132156
0.130726
0.129237
0.127689
0.126078
0.124413
0.122694
0.120888
0.118924
0.116697
0.114046
0.110784
0.106749
0.101872
0.0962084
0.0899107
0.0831734
0.0762054
0.0692455
0.0625831
0.0565408
0.0514233
0.0474675
0.0448332
0.0436303
0.0439034
0.0454604
0.0475791
0.0489159
0.0480184
0.044413
0.0395382
0.0365535
0.038733
0.047375
0.060837
0.0754954
0.087744
0.0954667
0.0983136
0.0971433
0.0932186
0.0875647
0.0806968
0.0727165
0.0636242
0.0536699
0.0435887
0.0345791
0.0279688
0.0247132
0.0251125
0.0290133
0.0360195
0.0451754
0.0548337
0.0633778
0.0702353
0.0755775
0.0804021
0.0822541
0.0759895
0.0600777
0.157276
0.156745
0.15617
0.155523
0.154789
0.153971
0.15309
0.152174
0.151253
0.150348
0.149472
0.148635
0.147842
0.147098
0.146408
0.145781
0.145231
0.144772
0.144418
0.144185
0.144076
0.144056
0.1441
0.144174
0.144235
0.144232
0.144111
0.143819
0.14331
0.142551
0.141534
0.140289
0.138892
0.137516
0.136199
0.13484
0.133431
0.131996
0.130545
0.129065
0.127529
0.12591
0.124179
0.1223