/*--------------------------------*- C++ -*----------------------------------*\
  =========                 |
  \\      /  F ield         | OpenFOAM: The Open Source CFD Toolbox
   \\    /   O peration     | Website:  https://openfoam.org
    \\  /    A nd           | Version:  10
     \\/     M anipulation  |
\*---------------------------------------------------------------------------*/
FoamFile
{
    format      ascii;
    class       volScalarField;
    location    "0.105";
    object      p;
}
// * * * * * * * * * * * * * * * * * * * * * * * * * * * * * * * * * * * * * //

dimensions      [0 2 -2 0 0 0 0];

internalField   nonuniform List<scalar> 
6820
(
-10.1305
-10.4321
-10.4755
-10.4874
-10.5145
-10.5331
-10.5433
-10.5497
-10.5525
-10.5515
-10.547
-10.539
-10.5273
-10.5119
-10.4925
-10.4689
-10.4409
-10.4082
-10.3706
-10.3276
-10.2792
-10.2252
-10.1656
-10.1006
-10.0309
-9.9573
-9.88141
-9.80539
-9.73224
-9.66509
-9.61152
-9.56371
-9.57608
-10.3324
-10.4565
-10.4906
-10.5026
-10.5239
-10.5395
-10.5484
-10.5539
-10.5562
-10.5552
-10.5507
-10.543
-10.5318
-10.517
-10.4984
-10.4758
-10.449
-10.4177
-10.3817
-10.3406
-10.2944
-10.2428
-10.186
-10.124
-10.0575
-9.98717
-9.91452
-9.84153
-9.77091
-9.70645
-9.65258
-9.6172
-9.60642
-10.3326
-10.4171
-10.4731
-10.4962
-10.5199
-10.5383
-10.5497
-10.5569
-10.5607
-10.5608
-10.5576
-10.551
-10.5411
-10.5277
-10.5108
-10.4901
-10.4657
-10.4373
-10.4048
-10.3681
-10.3272
-10.2823
-10.2334
-10.1811
-10.126
-10.0692
-10.0122
-9.95692
-9.9061
-9.86283
-9.83306
-9.82078
-9.84689
-10.3901
-10.4591
-10.5047
-10.5215
-10.5388
-10.5533
-10.5621
-10.5674
-10.5697
-10.569
-10.5651
-10.5582
-10.5482
-10.535
-10.5185
-10.4986
-10.4752
-10.4482
-10.4175
-10.383
-10.3448
-10.3032
-10.2584
-10.211
-10.1619
-10.1122
-10.0635
-10.0179
-9.97826
-9.94783
-9.93182
-9.93459
-9.96941
-10.4209
-10.4589
-10.4957
-10.5154
-10.5339
-10.5498
-10.5605
-10.5673
-10.5711
-10.5717
-10.5692
-10.5637
-10.5551
-10.5435
-10.5287
-10.5107
-10.4895
-10.4649
-10.4371
-10.4061
-10.372
-10.3351
-10.2958
-10.2548
-10.213
-10.1715
-10.132
-10.0963
-10.0672
-10.0473
-10.0412
-10.0519
-10.0885
-10.4518
-10.4818
-10.517
-10.5372
-10.5533
-10.5669
-10.576
-10.5816
-10.5843
-10.5842
-10.5813
-10.5756
-10.5671
-10.5559
-10.5418
-10.5249
-10.505
-10.4822
-10.4566
-10.4283
-10.3974
-10.3644
-10.3296
-10.2938
-10.2579
-10.2231
-10.1908
-10.1629
-10.1417
-10.1297
-10.1302
-10.1455
-10.1808
-10.4782
-10.4974
-10.5239
-10.5409
-10.555
-10.5676
-10.5769
-10.583
-10.5866
-10.5875
-10.5857
-10.5814
-10.5744
-10.5647
-10.5524
-10.5375
-10.52
-10.4999
-10.4774
-10.4526
-10.4257
-10.3973
-10.3678
-10.3378
-10.3084
-10.2807
-10.256
-10.2359
-10.2225
-10.2175
-10.2235
-10.2419
-10.2752
-10.502
-10.5159
-10.5389
-10.5561
-10.5701
-10.5822
-10.5912
-10.5971
-10.6005
-10.6013
-10.5996
-10.5955
-10.589
-10.5802
-10.569
-10.5554
-10.5396
-10.5216
-10.5015
-10.4796
-10.4563
-10.4318
-10.4068
-10.382
-10.3581
-10.3364
-10.318
-10.3043
-10.2969
-10.2973
-10.3072
-10.3272
-10.3586
-10.5239
-10.5337
-10.5519
-10.5666
-10.5784
-10.5889
-10.5971
-10.6028
-10.6063
-10.6076
-10.6067
-10.6036
-10.5984
-10.591
-10.5816
-10.5701
-10.5566
-10.5413
-10.5244
-10.506
-10.4866
-10.4665
-10.4464
-10.4269
-10.4088
-10.3931
-10.3809
-10.3733
-10.3716
-10.3768
-10.3901
-10.4117
-10.4418
-10.5443
-10.5515
-10.5665
-10.58
-10.5914
-10.6016
-10.6097
-10.6156
-10.6194
-10.6212
-10.621
-10.6187
-10.6144
-10.6083
-10.6002
-10.5904
-10.5789
-10.5659
-10.5517
-10.5364
-10.5205
-10.5043
-10.4886
-10.4738
-10.4607
-10.4502
-10.4433
-10.4408
-10.4438
-10.4529
-10.4689
-10.4917
-10.5211
-10.5636
-10.5691
-10.5812
-10.5929
-10.603
-10.6121
-10.6195
-10.6252
-10.629
-10.6311
-10.6313
-10.6299
-10.6267
-10.622
-10.6156
-10.6078
-10.5987
-10.5883
-10.5771
-10.5652
-10.553
-10.541
-10.5297
-10.5197
-10.5116
-10.5063
-10.5044
-10.5068
-10.5142
-10.5271
-10.5458
-10.5702
-10.5999
-10.5822
-10.5864
-10.5963
-10.6067
-10.6161
-10.6247
-10.6321
-10.6379
-10.6421
-10.6449
-10.646
-10.6456
-10.6437
-10.6404
-10.6357
-10.6298
-10.6228
-10.615
-10.6066
-10.5978
-10.5891
-10.5809
-10.5736
-10.5679
-10.5643
-10.5634
-10.566
-10.5727
-10.5838
-10.6
-10.6212
-10.6472
-10.6777
-10.6001
-10.6034
-10.6117
-10.6208
-10.6293
-10.6372
-10.6442
-10.6499
-10.6543
-10.6574
-10.6592
-10.6596
-10.6589
-10.6569
-10.6539
-10.65
-10.6453
-10.6401
-10.6345
-10.629
-10.6238
-10.6193
-10.6161
-10.6145
-10.6153
-10.6188
-10.6256
-10.6363
-10.6512
-10.6706
-10.6944
-10.7226
-10.7546
-10.6176
-10.6203
-10.6272
-10.6353
-10.6432
-10.6507
-10.6575
-10.6634
-10.6683
-10.672
-10.6747
-10.6763
-10.6768
-10.6765
-10.6753
-10.6734
-10.671
-10.6683
-10.6655
-10.663
-10.6611
-10.6602
-10.6606
-10.663
-10.6676
-10.675
-10.6857
-10.7
-10.7182
-10.7405
-10.7669
-10.7972
-10.8312
-10.6347
-10.637
-10.6429
-10.6501
-10.6574
-10.6645
-10.6712
-10.6772
-10.6823
-10.6866
-10.69
-10.6926
-10.6944
-10.6954
-10.6959
-10.696
-10.6958
-10.6956
-10.6956
-10.696
-10.6973
-10.6998
-10.7039
-10.7099
-10.7183
-10.7294
-10.7438
-10.7615
-10.7829
-10.8082
-10.8372
-10.87
-10.9063
-10.6516
-10.6535
-10.6587
-10.6652
-10.672
-10.6789
-10.6856
-10.6918
-10.6974
-10.7023
-10.7067
-10.7104
-10.7135
-10.7162
-10.7185
-10.7206
-10.7226
-10.7249
-10.7275
-10.7309
-10.7353
-10.741
-10.7484
-10.7578
-10.7696
-10.7842
-10.8018
-10.8227
-10.8471
-10.8751
-10.9067
-10.9418
-10.9805
-10.6682
-10.6699
-10.6745
-10.6805
-10.687
-10.6937
-10.7004
-10.7068
-10.7128
-10.7185
-10.7237
-10.7284
-10.7328
-10.737
-10.741
-10.745
-10.7492
-10.7538
-10.7591
-10.7652
-10.7724
-10.7812
-10.7917
-10.8044
-10.8194
-10.8371
-10.8579
-10.8817
-10.909
-10.9396
-10.9737
-11.0113
-11.0524
-10.6847
-10.6863
-10.6905
-10.696
-10.7023
-10.7089
-10.7157
-10.7224
-10.729
-10.7353
-10.7414
-10.7473
-10.7531
-10.7588
-10.7646
-10.7706
-10.7769
-10.7839
-10.7916
-10.8003
-10.8104
-10.822
-10.8355
-10.8511
-10.8691
-10.8898
-10.9133
-10.9399
-10.9697
-11.0028
-11.0393
-11.0791
-11.1225
-10.701
-10.7025
-10.7064
-10.7117
-10.7178
-10.7244
-10.7313
-10.7384
-10.7455
-10.7526
-10.7597
-10.7667
-10.7737
-10.781
-10.7884
-10.7962
-10.8046
-10.8137
-10.8238
-10.8351
-10.8477
-10.862
-10.8782
-10.8966
-10.9173
-10.9407
-10.9668
-10.9959
-11.0281
-11.0635
-11.1021
-11.144
-11.1894
-10.7172
-10.7186
-10.7223
-10.7275
-10.7335
-10.7402
-10.7473
-10.7548
-10.7625
-10.7704
-10.7784
-10.7865
-10.7949
-10.8036
-10.8128
-10.8224
-10.8328
-10.8441
-10.8564
-10.87
-10.8851
-10.9019
-10.9206
-10.9415
-10.9648
-10.9905
-11.019
-11.0504
-11.0847
-11.1221
-11.1626
-11.2064
-11.2535
-10.7333
-10.7346
-10.7382
-10.7433
-10.7493
-10.7561
-10.7636
-10.7715
-10.7798
-10.7885
-10.7974
-10.8067
-10.8164
-10.8266
-10.8373
-10.8487
-10.861
-10.8742
-10.8887
-10.9045
-10.9218
-10.9409
-10.962
-10.9852
-11.0107
-11.0386
-11.0692
-11.1025
-11.1387
-11.1779
-11.2201
-11.2653
-11.3139
-10.7492
-10.7505
-10.754
-10.7591
-10.7652
-10.7722
-10.78
-10.7885
-10.7974
-10.8069
-10.8168
-10.8272
-10.8381
-10.8497
-10.862
-10.8751
-10.8891
-10.9043
-10.9207
-10.9386
-10.958
-10.9792
-11.0024
-11.0276
-11.0551
-11.085
-11.1175
-11.1525
-11.1903
-11.2309
-11.2744
-11.3209
-11.3704
-10.7648
-10.7661
-10.7697
-10.7749
-10.7811
-10.7884
-10.7966
-10.8055
-10.8152
-10.8254
-10.8363
-10.8478
-10.86
-10.8729
-10.8867
-10.9014
-10.9172
-10.9341
-10.9524
-10.9721
-10.9935
-11.0166
-11.0416
-11.0687
-11.098
-11.1296
-11.1636
-11.2001
-11.2392
-11.2809
-11.3254
-11.3727
-11.4229
-10.7803
-10.7816
-10.7852
-10.7905
-10.7969
-10.8045
-10.8132
-10.8226
-10.8329
-10.844
-10.8558
-10.8684
-10.8818
-10.896
-10.9112
-10.9274
-10.9447
-10.9633
-10.9832
-11.0047
-11.0278
-11.0526
-11.0793
-11.108
-11.1388
-11.1718
-11.2071
-11.2448
-11.2849
-11.3275
-11.3727
-11.4204
-11.4709
-10.7954
-10.7968
-10.8005
-10.8059
-10.8126
-10.8206
-10.8297
-10.8397
-10.8507
-10.8626
-10.8754
-10.889
-10.9035
-10.919
-10.9356
-10.9532
-10.972
-10.9921
-11.0136
-11.0367
-11.0613
-11.0877
-11.1158
-11.1459
-11.178
-11.2122
-11.2486
-11.2871
-11.3279
-11.3711
-11.4166
-11.4644
-11.5147
-10.8102
-10.8116
-10.8154
-10.8211
-10.828
-10.8364
-10.8459
-10.8566
-10.8682
-10.8809
-10.8945
-10.9092
-10.9248
-10.9414
-10.9592
-10.9781
-10.9983
-11.0198
-11.0427
-11.0671
-11.0931
-11.1207
-11.1502
-11.1814
-11.2146
-11.2497
-11.2868
-11.326
-11.3673
-11.4107
-11.4562
-11.5038
-11.5537
-10.8245
-10.8259
-10.83
-10.8358
-10.8431
-10.8519
-10.862
-10.8733
-10.8857
-10.8992
-10.9137
-10.9293
-10.946
-10.9638
-10.9828
-11.0029
-11.0244
-11.0471
-11.0713
-11.0969
-11.1241
-11.1529
-11.1834
-11.2156
-11.2496
-11.2854
-11.323
-11.3626
-11.404
-11.4474
-11.4926
-11.5397
-11.5888
-10.8382
-10.8397
-10.8439
-10.85
-10.8577
-10.8669
-10.8774
-10.8893
-10.9023
-10.9166
-10.9319
-10.9484
-10.9661
-10.9849
-11.0049
-11.0261
-11.0486
-11.0725
-11.0977
-11.1244
-11.1526
-11.1824
-11.2137
-11.2467
-11.2813
-11.3176
-11.3556
-11.3953
-11.4367
-11.4798
-11.5245
-11.5709
-11.619
-10.8512
-10.8529
-10.8573
-10.8638
-10.8719
-10.8816
-10.8927
-10.9053
-10.9191
-10.9341
-10.9504
-10.9678
-10.9864
-11.0062
-11.0272
-11.0495
-11.073
-11.0979
-11.1241
-11.1517
-11.1807
-11.2112
-11.2432
-11.2767
-11.3118
-11.3483
-11.3864
-11.426
-11.4671
-11.5096
-11.5536
-11.599
-11.6458
-10.8635
-10.8651
-10.8698
-10.8765
-10.8849
-10.895
-10.9067
-10.9197
-10.9341
-10.9498
-10.9668
-10.985
-11.0044
-11.0251
-11.047
-11.0701
-11.0946
-11.1203
-11.1473
-11.1758
-11.2055
-11.2367
-11.2692
-11.3031
-11.3384
-11.3751
-11.4131
-11.4525
-11.4931
-11.535
-11.5782
-11.6224
-11.6679
-10.8747
-10.8765
-10.8816
-10.8889
-10.8979
-10.9086
-10.921
-10.9348
-10.95
-10.9665
-10.9842
-11.0033
-11.0235
-11.045
-11.0677
-11.0916
-11.1168
-11.1432
-11.1709
-11.1999
-11.2302
-11.2617
-11.2946
-11.3287
-11.364
-11.4005
-11.4383
-11.4772
-11.5172
-11.5583
-11.6003
-11.6433
-11.6872
-10.8847
-10.8865
-10.8917
-10.8992
-10.9085
-10.9196
-10.9324
-10.9467
-10.9624
-10.9795
-10.998
-11.0177
-11.0387
-11.0609
-11.0844
-11.1091
-11.135
-11.1622
-11.1905
-11.2201
-11.2509
-11.2828
-11.316
-11.3502
-11.3856
-11.422
-11.4595
-11.4979
-11.5372
-11.5774
-11.6184
-11.66
-11.7024
-10.8935
-10.8958
-10.9018
-10.9102
-10.9204
-10.9323
-10.9458
-10.9609
-10.9773
-10.9951
-11.0142
-11.0346
-11.0561
-11.0789
-11.1029
-11.1281
-11.1545
-11.1821
-11.2108
-11.2406
-11.2716
-11.3036
-11.3367
-11.3709
-11.406
-11.442
-11.479
-11.5167
-11.5552
-11.5943
-11.6341
-11.6744
-11.7151
-10.9
-10.9019
-10.9078
-10.9164
-10.9268
-10.9392
-10.9533
-10.9689
-10.986
-11.0046
-11.0244
-11.0455
-11.0678
-11.0914
-11.1161
-11.142
-11.1691
-11.1973
-11.2265
-11.2569
-11.2882
-11.3205
-11.3538
-11.388
-11.423
-11.4588
-11.4953
-11.5324
-11.5701
-11.6083
-11.6469
-11.6858
-11.725
-10.906
-10.9094
-10.9171
-10.927
-10.9384
-10.9515
-10.9663
-10.9824
-10.9999
-11.0188
-11.0389
-11.0603
-11.0829
-11.1067
-11.1316
-11.1577
-11.1849
-11.2131
-11.2424
-11.2727
-11.304
-11.3362
-11.3692
-11.4031
-11.4377
-11.4729
-11.5088
-11.5452
-11.5821
-11.6193
-11.6568
-11.6945
-11.7323
-10.9054
-10.9076
-10.9153
-10.9262
-10.9386
-10.9527
-10.9684
-10.9856
-11.0043
-11.0242
-11.0453
-11.0676
-11.0912
-11.1158
-11.1415
-11.1684
-11.1962
-11.2251
-11.2549
-11.2857
-11.3173
-11.3497
-11.3828
-11.4166
-11.451
-11.4859
-11.5213
-11.5571
-11.5931
-11.6293
-11.6657
-11.702
-11.7383
-10.9105
-10.9169
-10.9272
-10.9381
-10.9506
-10.965
-10.9808
-10.9974
-11.0158
-11.0356
-11.0565
-11.0786
-11.102
-11.1264
-11.152
-11.1787
-11.2064
-11.235
-11.2647
-11.2952
-11.3266
-11.3587
-11.3915
-11.425
-11.4591
-11.4936
-11.5285
-11.5638
-11.5992
-11.6349
-11.6705
-11.7061
-11.7416
-10.8925
-10.8979
-10.9121
-10.9269
-10.9425
-10.9596
-10.9777
-10.9973
-11.0174
-11.0384
-11.0607
-11.084
-11.1084
-11.1338
-11.1602
-11.1876
-11.216
-11.2453
-11.2754
-11.3063
-11.3379
-11.3701
-11.403
-11.4363
-11.4701
-11.5042
-11.5385
-11.573
-11.6075
-11.6421
-11.6765
-11.7107
-11.7447
-10.9067
-10.9175
-10.9302
-10.9417
-10.9553
-10.9705
-10.9868
-11.0044
-11.0233
-11.0435
-11.065
-11.0876
-11.1113
-11.1364
-11.1624
-11.1894
-11.2175
-11.2465
-11.2763
-11.307
-11.3385
-11.3706
-11.4033
-11.4366
-11.4704
-11.5045
-11.539
-11.5736
-11.6083
-11.643
-11.6777
-11.7122
-11.7464
-10.8112
-10.879
-10.907
-10.9237
-10.9445
-10.9652
-10.985
-11.0052
-11.0263
-11.0482
-11.0709
-11.0947
-11.1194
-11.1452
-11.1718
-11.1995
-11.228
-11.2573
-11.2874
-11.3182
-11.3496
-11.3816
-11.414
-11.4469
-11.48
-11.5133
-11.5468
-11.5803
-11.6138
-11.647
-11.6801
-11.7127
-11.745
-9.49603
-10.0254
-10.4908
-11.1173
-11.4866
-10.618
-9.16636
-8.40398
-7.86611
-6.87247
-5.84112
-6.13599
-8.19039
-11.5454
-15.8838
-20.8668
-26.1697
-31.4572
-36.3523
-40.4163
-43.1766
-44.2289
-43.3637
-40.6804
-36.6211
-31.784
-26.6844
-21.5884
-16.5604
-11.6632
-7.14272
-3.36661
-0.615178
1.03428
1.47617
0.646776
-1.73503
-6.45463
-13.6659
-22.5845
-31.9196
-40.5311
-47.5961
-52.5924
-55.1593
-55.1101
-52.29
-46.8547
-39.3204
-30.8051
-22.8789
-16.5576
-11.896
-8.49406
-5.9823
-4.12502
-2.76387
-1.7775
-1.07111
-0.572117
-0.225692
0.00936352
0.163887
0.260821
0.317062
0.344881
0.353091
0.347948
0.333828
0.313822
0.290201
0.264748
0.238934
0.21394
0.190586
0.169311
0.150222
0.133216
0.118097
0.104658
0.0926929
0.0820112
0.0724428
0.0638232
0.0559794
0.0487907
0.0421622
0.0360623
0.0304892
0.0254658
0.0210434
0.0172278
0.014038
0.0113644
0.00915286
0.00730747
0.00533592
0.00443115
0.000621336
0.00420032
-9.7433
-10.1814
-10.45
-10.8085
-11.0501
-10.5916
-9.75116
-8.99859
-7.92057
-6.34888
-5.20345
-5.9716
-8.23955
-11.4386
-15.489
-20.1516
-25.111
-30.031
-34.5524
-38.2798
-40.7976
-41.7565
-40.9807
-38.5793
-34.9525
-30.5856
-25.861
-21.0059
-16.1585
-11.4882
-7.26381
-3.77785
-1.23947
0.276861
0.680495
-0.138931
-2.34142
-6.45455
-12.7449
-20.7168
-29.3227
-37.4578
-44.2412
-49.073
-51.5608
-51.5068
-48.7846
-43.6189
-36.6241
-28.9361
-21.875
-16.1863
-11.8755
-8.63798
-6.19729
-4.36627
-3.00755
-2.01031
-1.28618
-0.766534
-0.398866
-0.143262
0.030436
0.14484
0.21674
0.258435
0.278826
0.284288
0.279368
0.267344
0.250652
0.231207
0.210576
0.190011
0.1704
0.152259
0.135786
0.120967
0.107691
0.0958154
0.0851802
0.0756408
0.0670633
0.0593124
0.0522488
0.0457587
0.0397394
0.0341667
0.0290408
0.0243807
0.0202347
0.0166149
0.0135502
0.0109578
0.00878302
0.00698716
0.00502077
0.00421414
0.000406024
0.00415284
-9.92439
-10.1778
-10.4282
-10.7428
-10.9304
-10.4989
-9.56462
-8.68087
-7.83392
-6.81974
-6.1016
-6.4701
-8.34702
-11.5096
-15.3745
-19.6522
-24.1773
-28.6791
-32.812
-36.2042
-38.48
-39.3435
-38.6674
-36.5688
-33.365
-29.4074
-24.9899
-20.3539
-15.7247
-11.3379
-7.43517
-4.23426
-1.89575
-0.502521
-0.139203
-0.924204
-2.97909
-6.61129
-12.079
-19.0806
-26.8293
-34.338
-40.7223
-45.3283
-47.7156
-47.6663
-45.0945
-40.3015
-33.9732
-27.1746
-20.9523
-15.8436
-11.8516
-8.76971
-6.40184
-4.6011
-3.24826
-2.24266
-1.50248
-0.963255
-0.574955
-0.299085
-0.106266
0.0257138
0.11347
0.169279
0.202125
0.218498
0.223074
0.219301
0.209777
0.196544
0.181266
0.165268
0.149513
0.134603
0.120829
0.10827
0.0968976
0.086632
0.077361
0.0689829
0.0613932
0.0544823
0.0481291
0.0422472
0.0367683
0.0316784
0.0269874
0.0227208
0.0189277
0.0156189
0.0128154
0.0104413
0.00842517
0.00677216
0.00487001
0.00418486
0.000367388
0.00423803
-10.0453
-10.2426
-10.4434
-10.6141
-10.6504
-10.3169
-9.71169
-9.13003
-8.49585
-7.6842
-7.048
-7.39562
-9.10355
-11.8743
-15.4083
-19.3754
-23.4801
-27.5075
-31.1972
-34.228
-36.264
-37.0565
-36.5123
-34.7158
-31.8648
-28.2106
-24.0337
-19.6312
-15.2866
-11.2324
-7.65646
-4.72402
-2.57187
-1.29276
-0.971514
-1.7159
-3.63681
-6.88886
-11.6414
-17.7109
-24.53
-31.2909
-37.1588
-41.457
-43.7028
-43.6758
-41.3387
-37.0417
-31.4822
-25.5746
-20.1214
-15.5246
-11.8191
-8.88668
-6.59503
-4.82902
-3.48552
-2.47405
-1.71959
-1.16195
-0.753721
-0.457927
-0.24608
-0.0964526
0.00734255
0.0775145
0.123079
0.150638
0.164999
0.169732
0.167594
0.160759
0.150989
0.139692
0.12791
0.116333
0.105348
0.0951269
0.0857268
0.077131
0.0692805
0.0621204
0.0555821
0.0495857
0.0440423
0.0388821
0.0340407
0.0295054
0.0252893
0.0214181
0.0179401
0.014871
0.0122374
0.00998543
0.00804056
0.00646098
0.0045813
0.00399745
0.000186855
0.00421713
-10.1567
-10.2984
-10.4432
-10.552
-10.563
-10.3304
-9.87088
-9.36482
-8.85574
-8.35644
-8.09843
-8.55279
-10.0223
-12.4482
-15.6057
-19.2006
-22.9504
-26.5886
-29.8673
-32.5325
-34.3445
-35.1028
-34.6602
-33.0383
-30.379
-26.9227
-22.9802
-18.8763
-14.8802
-11.1788
-7.91761
-5.23565
-3.26061
-2.09024
-1.8111
-2.51201
-4.2976
-7.24188
-11.403
-16.6405
-22.5394
-28.4762
-33.7248
-37.6308
-39.7072
-39.7333
-37.7072
-33.9943
-29.2315
-24.1557
-19.3764
-15.2235
-11.7769
-8.98953
-6.77708
-5.04964
-3.71875
-2.70398
-1.9371
-1.36232
-0.934925
-0.619608
-0.388871
-0.221553
-0.10156
-0.0167955
0.0417535
0.0807627
0.10517
0.118672
0.124142
0.123891
0.119784
0.113317
0.105616
0.0974668
0.0893513
0.0815401
0.0741726
0.0672959
0.0609073
0.054996
0.049526
0.0444455
0.0396866
0.0352004
0.0309484
0.0269326
0.0231767
0.0197126
0.0165908
0.0138287
0.0114495
0.00940987
0.00762152
0.00618576
0.00437785
0.00392087
0.00011222
0.00428041
-10.241
-10.3485
-10.4602
-10.5345
-10.5214
-10.3336
-9.98673
-9.61338
-9.2729
-8.99609
-8.96434
-9.49879
-10.8216
-12.9443
-15.7434
-18.9904
-22.4075
-25.7281
-28.7054
-31.1056
-32.7283
-33.3706
-32.8874
-31.2918
-28.7454
-25.5052
-21.8774
-18.1485
-14.5322
-11.1767
-8.20974
-5.762
-3.9566
-2.89111
-2.65095
-3.3092
-4.95602
-7.63288
-11.318
-15.8598
-20.928
-26.0423
-30.6174
-34.0757
-35.9607
-36.059
-34.389
-31.2844
-27.2703
-22.9177
-18.7053
-14.9335
-11.7234
-9.07825
-6.94793
-5.26262
-3.9475
-2.93199
-2.15464
-1.56404
-1.11831
-0.783929
-0.534481
-0.349457
-0.213123
-0.113548
-0.0417578
0.00896851
0.0436676
0.06617
0.0794657
0.0859726
0.0876726
0.0861566
0.0826436
0.078013
0.0728477
0.0675184
0.0622456
0.0571411
0.0522643
0.0476491
0.0432962
0.0391839
0.0352745
0.0315392
0.0279509
0.0245155
0.0212603
0.0182192
0.0154434
0.0129551
0.0107808
0.00889634
0.00720825
0.00586797
0.00409868
0.0037502
-5.05869e-05
0.00428081
-10.3276
-10.4109
-10.495
-10.5447
-10.5254
-10.3889
-10.1446
-9.87755
-9.64941
-9.51599
-9.62657
-10.2162
-11.4468
-13.3219
-15.7564
-18.6036
-21.6519
-24.6516
-27.3485
-29.5072
-30.8966
-31.3547
-30.8149
-29.3015
-26.9697
-24.0582
-20.8264
-17.5002
-14.2523
-11.2179
-8.52372
-6.29664
-4.65402
-3.68957
-3.48411
-4.10042
-5.60923
-8.03817
-11.3291
-15.3086
-19.6836
-24.0639
-27.9883
-30.987
-32.6719
-32.8483
-31.5277
-28.9754
-25.5964
-21.8344
-18.0893
-14.6486
-11.6586
-9.15382
-7.10786
-5.46775
-4.17139
-3.15771
-2.37183
-1.76681
-1.30364
-0.950693
-0.682745
-0.480024
-0.327226
-0.212636
-0.127359
-0.0646571
-0.0194186
0.012299
0.0336145
0.0470557
0.0547027
0.0582502
0.0590205
0.0579919
0.0558515
0.0530703
0.0499471
0.0466632
0.0433404
0.0400562
0.0368463
0.0337183
0.030658
0.0276557
0.0247054
0.0218276
0.0190601
0.0164444
0.014035
0.0118582
0.00993987
0.00826865
0.00673913
0.0055461
0.00385453
0.00363906
-0.00015497
0.00433423
-10.4051
-10.4722
-10.5384
-10.5772
-10.5637
-10.4706
-10.3062
-10.1321
-10.009
-9.99775
-10.2144
-10.8279
-11.9589
-13.6147
-15.7266
-18.1743
-20.7942
-23.3865
-25.7278
-27.5897
-28.7601
-29.1256
-28.6299
-27.3028
-25.2747
-22.7393
-19.9017
-16.9471
-14.0319
-11.2914
-8.85145
-6.83286
-5.34506
-4.47624
-4.30096
-4.87488
-6.25038
-8.44442
-11.3901
-14.9097
-18.7292
-22.5107
-25.8788
-28.465
-29.9618
-30.1954
-29.1582
-27.0445
-24.1619
-20.8678
-17.5115
-14.3653
-11.5835
-9.21721
-7.25716
-5.66488
-4.39011
-3.38077
-2.58837
-1.97034
-1.49067
-1.11969
-0.833485
-0.613098
-0.443724
-0.313925
-0.214924
-0.140001
-0.0839853
-0.0428405
-0.0133322
0.00719063
0.0209158
0.0296359
0.0347771
0.037428
0.0383849
0.0382118
0.0372891
0.0358749
0.0341505
0.0322383
0.0302114
0.0281081
0.0259422
0.0237254
0.0214668
0.0191944
0.0169517
0.0147833
0.0127457
0.0108701
0.00918473
0.00769575
0.00629086
0.00521335
0.00357463
0.00347792
-0.000310799
0.00435495
-10.484
-10.541
-10.5966
-10.6316
-10.629
-10.5749
-10.4792
-10.3875
-10.3534
-10.4351
-10.7245
-11.3446
-12.3855
-13.8551
-15.6955
-17.8037
-20.04
-22.238
-24.215
-25.7866
-26.79
-27.1118
-26.6923
-25.5583
-23.8123
-21.6049
-19.1034
-16.4712
-13.8553
-11.3865
-9.18477
-7.3624
-6.02024
-5.24048
-5.0913
-5.62189
-6.87058
-8.84322
-11.4743
-14.599
-17.9658
-21.2733
-24.2014
-26.4532
-27.7823
-28.0359
-27.1962
-25.4033
-22.8985
-19.9818
-16.9605
-14.0834
-11.4999
-9.26961
-7.39622
-5.854
-4.60348
-3.60092
-2.80396
-2.17438
-1.67917
-1.29073
-0.986521
-0.748511
-0.56246
-0.417265
-0.304315
-0.216933
-0.149917
-0.0991444
-0.0612737
-0.0335374
-0.0136262
0.00036078
0.00995458
0.0163566
0.0204704
0.022956
0.0242818
0.024782
0.0246955
0.02419
0.023375
0.0223186
0.0210592
0.0196277
0.0180521
0.016374
0.0146474
0.012925
0.0112681
0.00971369
0.00829099
0.00702066
0.00577922
0.0048542
0.00329759
0.00334124
-0.000441874
0.00440642
-10.5608
-10.6122
-10.6628
-10.6995
-10.7114
-10.6928
-10.6541
-10.6307
-10.6689
-10.8214
-11.1611
-11.7771
-12.7357
-14.0441
-15.6553
-17.4823
-19.4056
-21.2839
-22.9642
-24.2977
-25.1503
-25.4184
-25.0502
-24.0664
-22.5449
-20.6068
-18.394
-16.0506
-13.7105
-11.495
-9.51599
-7.87703
-6.67065
-5.97303
-5.84617
-6.33306
-7.46147
-9.22785
-11.5685
-14.3381
-17.3146
-20.2306
-22.8068
-24.7885
-25.9678
-26.2137
-25.5065
-23.9523
-21.7496
-19.1542
-16.4326
-13.8047
-11.4098
-9.31213
-7.52551
-6.03523
-4.81139
-3.81796
-3.01838
-2.37869
-1.86892
-1.4636
-1.14167
-0.88608
-0.683255
-0.522483
-0.395363
-0.295298
-0.217071
-0.156488
-0.110103
-0.0750292
-0.0488391
-0.0295118
-0.0153984
-0.0051873
0.00213305
0.00732399
0.0109432
0.0133987
0.0149879
0.0159244
0.016355
0.0163781
0.0160595
0.0154506
0.0145965
0.0135493
0.0123704
0.0111171
0.00985387
0.00862344
0.00745669
0.00639128
0.005295
0.00450357
0.00301162
0.00318633
-0.000597717
0.00444836
-10.6387
-10.688
-10.7379
-10.7798
-10.8075
-10.82
-10.8286
-10.8613
-10.9572
-11.162
-11.5327
-12.1346
-13.0151
-14.1796
-15.5905
-17.1753
-18.8337
-20.4453
-21.8805
-23.0118
-23.7254
-23.9378
-23.607
-22.7452
-21.4131
-19.71
-17.7562
-15.6766
-13.591
-11.6106
-9.83858
-8.36994
-7.28946
-6.66725
-6.55926
-7.00287
-8.01732
-9.59281
-11.6669
-14.1117
-16.7353
-19.305
-21.5769
-23.3235
-24.3667
-24.5953
-23.9882
-22.6301
-20.6876
-18.3779
-15.9285
-13.5314
-11.3151
-9.34585
-7.64564
-6.20881
-5.01387
-4.03178
-3.23148
-2.58311
-2.05976
-1.63813
-1.29874
-1.02562
-0.805916
-0.629385
-0.487881
-0.374917
-0.285284
-0.214725
-0.159693
-0.11718
-0.084633
-0.0599043
-0.0412237
-0.0271612
-0.0165934
-0.00865764
-0.00270711
0.00174009
0.00503933
0.00744957
0.00915386
0.0102806
0.0109196
0.0111424
0.0110116
0.0105924
0.0099567
0.0091706
0.00830406
0.00740721
0.00651252
0.00567369
0.00474714
0.00411462
0.00270764
0.00303105
-0.000754446
0.00450387
-10.7169
-10.7664
-10.8184
-10.8676
-10.911
-10.9509
-10.998
-11.0757
-11.2162
-11.4576
-11.8447
-12.4249
-13.2319
-14.2681
-15.5024
-16.8746
-18.3005
-19.679
-20.9005
-21.8566
-22.4527
-22.6196
-22.321
-21.5643
-20.3984
-18.9046
-17.1838
-15.3441
-13.492
-11.7283
-10.1474
-8.83616
-7.87185
-7.31852
-7.22629
-7.62752
-8.53463
-9.93391
-11.7652
-13.9147
-16.2166
-18.4702
-20.4636
-21.9976
-22.9185
-23.1276
-22.6047
-21.418
-19.7065
-17.6526
-15.4498
-13.2654
-11.2172
-9.3719
-7.7573
-6.37511
-5.21105
-4.24239
-3.44317
-2.78753
-2.25154
-1.81417
-1.45756
-1.16693
-0.930232
-0.737753
-0.581651
-0.455583
-0.354363
-0.273683
-0.209894
-0.159863
-0.120902
-0.0907324
-0.067453
-0.0495106
-0.0356674
-0.0249578
-0.016646
-0.0101773
-0.00513892
-0.00122656
0.00177894
0.00403575
0.00565931
0.00674166
0.00736248
0.00759954
0.00753325
0.0072362
0.00678236
0.00622876
0.00560914
0.00499435
0.00423006
0.00374731
0.00241412
0.00288208
-0.000915269
0.00457075
-10.7954
-10.847
-10.9029
-10.9604
-11.0188
-11.082
-11.1603
-11.273
-11.4466
-11.712
-12.1041
-12.6573
-13.3947
-14.3164
-15.3957
-16.5823
-17.8058
-18.9815
-20.0174
-20.8229
-21.3192
-21.447
-21.1762
-20.5115
-19.4917
-18.1833
-16.6712
-15.0484
-13.4091
-11.8439
-10.4385
-9.27193
-8.41425
-7.92347
-7.84417
-8.2042
-9.01093
-10.248
-11.8589
-13.7423
-15.7542
-17.7217
-19.4621
-20.8042
-21.6124
-21.8004
-21.3489
-20.3119
-18.8038
-16.9774
-14.9968
-13.0078
-11.1175
-9.39148
-7.86137
-6.53466
-5.40321
-4.4499
-3.6535
-2.99192
-2.4442
-1.99158
-1.61796
-1.3098
-1.05597
-0.847342
-0.676427
-0.537057
-0.424089
-0.333165
-0.260534
-0.202931
-0.157527
-0.121899
-0.0940089
-0.0721749
-0.0550411
-0.0415383
-0.0308422
-0.0223264
-0.0155218
-0.0100804
-0.00574815
-0.00233842
0.000287686
0.00224179
0.00362054
0.00451504
0.00501643
0.00520635
0.00516497
0.00495782
0.00462046
0.00424116
0.00365295
0.00333573
0.00208863
0.0027142
-0.0010973
0.00463702
-10.8742
-10.9288
-10.9896
-11.0555
-11.1274
-11.21
-11.3128
-11.4519
-11.6486
-11.9279
-12.3164
-12.8388
-13.5107
-14.3297
-15.2731
-16.2984
-17.3469
-18.3476
-19.2238
-19.8998
-20.3102
-20.405
-20.1588
-19.5744
-18.6825
-17.5379
-16.2118
-14.7842
-13.3377
-11.9535
-10.7086
-9.67439
-8.91399
-8.47962
-8.4107
-8.73096
-9.44436
-10.5328
-11.944
-13.5883
-15.3407
-17.0522
-18.566
-19.7344
-20.439
-20.6047
-20.2127
-19.3047
-17.9746
-16.3498
-14.5693
-12.7595
-11.0174
-9.40586
-7.95878
-6.6881
-5.59077
-4.65458
-3.86261
-3.19633
-2.6377
-2.17029
-1.77979
-1.45404
-1.18289
-0.95788
-0.771927
-0.619065
-0.494203
-0.392939
-0.31141
-0.246212
-0.194363
-0.153286
-0.120798
-0.0950813
-0.0746597
-0.0583595
-0.045269
-0.0346914
-0.0261031
-0.0191134
-0.0134343
-0.00885123
-0.00520154
-0.00235397
-0.000194989
0.00137949
0.00247038
0.00316714
0.00355501
0.00370749
0.0036611
0.00352199
0.00310965
0.00295608
0.00178945
0.00257312
-0.00126545
0.00473406
-10.952
-11.0104
-11.0765
-11.1505
-11.2342
-11.3324
-11.4539
-11.6119
-11.8236
-12.1086
-12.487
-12.9764
-13.5864
-14.3134
-15.1373
-16.0225
-16.9197
-17.7698
-18.5091
-19.0745
-19.4113
-19.4784
-19.2541
-18.7396
-17.9598
-16.9597
-15.7991
-14.5466
-13.2743
-12.0542
-10.9553
-10.0415
-9.36931
-8.98548
-8.92467
-9.20693
-9.83396
-10.7866
-12.0175
-13.4472
-14.9677
-16.451
-17.7621
-18.774
-19.3843
-19.5273
-19.1844
-18.3876
-17.2132
-15.7672
-14.167
-12.5217
-10.9183
-9.41636
-8.05061
-6.83622
-5.77429
-4.85683
-4.07076
-3.40094
-2.83213
-2.35027
-1.94293
-1.59943
-1.31072
-1.06906
-0.867835
-0.701295
-0.564415
-0.452742
-0.362295
-0.289516
-0.231255
-0.18477
-0.147721
-0.118151
-0.0944589
-0.0753667
-0.059877
-0.0472249
-0.0368349
-0.0282759
-0.0212287
-0.0154527
-0.0107637
-0.00701156
-0.00406627
-0.0018102
-0.000131444
0.001069
0.00188302
0.00239359
0.00263883
0.00274369
0.00251265
0.00253037
0.00144915
0.00239908
-0.00147139
0.00481618
-11.029
-11.0913
-11.1626
-11.2438
-11.3372
-11.4476
-11.5826
-11.7533
-11.9731
-12.2573
-12.6208
-13.0758
-13.628
-14.2723
-14.9912
-15.7545
-16.5211
-17.2419
-17.8638
-18.3348
-18.6094
-18.6534
-18.4486
-17.9955
-17.314
-16.4413
-15.4276
-14.3315
-13.2158
-12.1439
-11.1769
-10.3719
-9.77931
-9.44046
-9.38575
-9.63202
-10.1794
-11.0086
-12.0769
-13.3147
-14.6285
-15.9084
-17.0387
-17.9107
-18.4355
-18.5559
-18.2536
-17.5526
-16.5147
-15.2274
-13.7896
-12.2952
-10.8216
-9.42435
-8.13803
-6.97997
-5.95451
-5.05721
-4.27841
-3.60605
-3.02766
-2.53154
-2.10728
-1.74578
-1.43918
-1.18055
-0.963788
-0.783386
-0.634383
-0.512266
-0.41292
-0.332613
-0.268012
-0.216195
-0.174656
-0.141291
-0.114373
-0.0925176
-0.0746447
-0.0599236
-0.0477296
-0.0375938
-0.0291671
-0.0221841
-0.0164393
-0.0117649
-0.00801475
-0.00505802
-0.00277238
-0.00104993
0.00020712
0.00109076
0.00163973
0.00199771
0.00195293
0.00214576
0.00114865
0.00226975
-0.00164714
0.0049478
-11.1039
-11.1699
-11.2461
-11.3334
-11.4345
-11.5538
-11.6981
-11.8761
-12.0986
-12.3771
-12.7224
-13.1427
-13.6408
-14.2109
-14.8374
-15.4949
-16.1489
-16.7588
-17.2805
-17.6712
-17.8932
-17.9183
-17.7311
-17.3318
-16.7365
-15.9759
-15.0921
-14.1353
-13.1596
-12.2207
-11.3724
-10.6653
-10.1439
-9.84479
-9.7944
-10.0068
-10.481
-11.1986
-12.121
-13.1873
-14.3173
-15.4166
-16.3863
-17.1334
-17.5812
-17.6796
-17.4109
-16.7926
-15.8744
-14.7282
-13.4368
-12.0808
-10.7286
-9.43118
-8.22228
-7.12042
-6.13234
-5.25649
-4.48616
-3.81213
-3.22458
-2.71424
-2.27279
-1.89288
-1.56795
-1.29197
-1.05938
-0.86493
-0.703728
-0.571174
-0.462995
-0.375263
-0.30444
-0.247407
-0.20148
-0.1644
-0.134311
-0.109729
-0.0894884
-0.0727001
-0.058694
-0.0469678
-0.0371461
-0.0289423
-0.0221318
-0.0165289
-0.0119718
-0.0083162
-0.00542829
-0.00319009
-0.00149682
-0.00024628
0.000601529
0.00120975
0.00134935
0.0017176
0.000802483
0.00209718
-0.00187416
0.00504973
-11.1766
-11.2461
-11.3263
-11.4185
-11.5252
-11.6506
-11.8002
-11.9813
-12.202
-12.4709
-12.7958
-13.1819
-13.6296
-14.133
-14.6784
-15.244
-15.8011
-16.3159
-16.7524
-17.0749
-17.2527
-17.2624
-17.0912
-16.7392
-16.2194
-15.5572
-14.7881
-13.9547
-13.1037
-12.2835
-11.5413
-10.9216
-10.4636
-10.1993
-10.1517
-10.3325
-10.7398
-11.3567
-12.1484
-13.0624
-14.0292
-14.9686
-15.7961
-16.4322
-16.811
-16.8886
-16.6479
-16.1013
-15.2882
-14.2675
-13.1083
-11.8793
-10.6405
-9.43827
-8.30473
-7.25881
-6.30889
-5.45565
-4.69485
-4.01984
-3.42335
-2.89858
-2.43946
-2.04055
-1.69669
-1.40288
-1.15412
-0.94545
-0.771992
-0.629049
-0.512156
-0.417157
-0.340285
-0.278204
-0.228039
-0.18737
-0.154211
-0.126973
-0.104416
-0.0855914
-0.0697901
-0.0564797
-0.0452612
-0.0358276
-0.0279381
-0.0213912
-0.0160104
-0.0116383
-0.00813033
-0.00535869
-0.0032121
-0.0015785
-0.000417556
0.000453019
0.000785782
0.0013377
0.000506949
0.00198433
-0.00205686
0.00521974
-11.2461
-11.3184
-11.4019
-11.4977
-11.6082
-11.737
-11.889
-12.0695
-12.285
-12.5417
-12.8449
-13.1976
-13.5988
-14.0425
-14.5164
-15.0023
-15.476
-15.9098
-16.2736
-16.5386
-16.6794
-16.6768
-16.5202
-16.2096
-15.7558
-15.1799
-14.5116
-13.7871
-13.0464
-12.3316
-11.6837
-11.1416
-10.7396
-10.5056
-10.4593
-10.6106
-10.9572
-11.4834
-12.1587
-12.9374
-13.7601
-14.5584
-15.2605
-15.7984
-16.1158
-16.174
-15.9568
-15.4725
-14.752
-13.8433
-12.8036
-11.6912
-10.5584
-9.44701
-8.38681
-7.39653
-6.48547
-5.65589
-4.90557
-4.23007
-3.62458
-3.08488
-2.60734
-2.18857
-1.82504
-1.51281
-1.2475
-1.02442
-0.838695
-0.685474
-0.560053
-0.458012
-0.375319