/*--------------------------------*- C++ -*----------------------------------*\
  =========                 |
  \\      /  F ield         | OpenFOAM: The Open Source CFD Toolbox
   \\    /   O peration     | Website:  https://openfoam.org
    \\  /    A nd           | Version:  10
     \\/     M anipulation  |
\*---------------------------------------------------------------------------*/
FoamFile
{
    format      ascii;
    class       surfaceScalarField;
    location    "0.105";
    object      phi;
}
// * * * * * * * * * * * * * * * * * * * * * * * * * * * * * * * * * * * * * //

dimensions      [0 3 -1 0 0 0 0];

internalField   nonuniform List<scalar> 
13452
(
5.9451e-05
8.17508e-07
5.84651e-05
9.85901e-07
5.74347e-05
1.03033e-06
5.63722e-05
1.06253e-06
5.53054e-05
1.0668e-06
5.42453e-05
1.06006e-06
5.3195e-05
1.05035e-06
5.21556e-05
1.03935e-06
5.11274e-05
1.02824e-06
5.01095e-05
1.01792e-06
4.91005e-05
1.00899e-06
4.80986e-05
1.0019e-06
4.71015e-05
9.97113e-07
4.61064e-05
9.95062e-07
4.51102e-05
9.96201e-07
4.41092e-05
1.00102e-06
4.30991e-05
1.01005e-06
4.20752e-05
1.0239e-06
4.1032e-05
1.04322e-06
3.99633e-05
1.06877e-06
3.88619e-05
1.10134e-06
3.77201e-05
1.14177e-06
3.65293e-05
1.1909e-06
3.52798e-05
1.24949e-06
3.39616e-05
1.31815e-06
3.25644e-05
1.39718e-06
3.10781e-05
1.48638e-06
2.94927e-05
1.58536e-06
2.78012e-05
1.69147e-06
2.59936e-05
1.80762e-06
2.4078e-05
1.91565e-06
2.20148e-05
2.06311e-06
2.15929e-06
1.98556e-05
6.24904e-05
3.17466e-07
6.29659e-05
5.10338e-07
6.34131e-05
5.83205e-07
6.38223e-05
6.53305e-07
6.4186e-05
7.03056e-07
6.45039e-05
7.42224e-07
6.47771e-05
7.77159e-07
6.50077e-05
8.08735e-07
6.5198e-05
8.37877e-07
6.53503e-05
8.65631e-07
6.54665e-05
8.92813e-07
6.55482e-05
9.20173e-07
6.55969e-05
9.48482e-07
6.56134e-05
9.78541e-07
6.55984e-05
1.0112e-06
6.5552e-05
1.04737e-06
6.5474e-05
1.08809e-06
6.53634e-05
1.13449e-06
6.52188e-05
1.18785e-06
6.50379e-05
1.24964e-06
6.48178e-05
1.32148e-06
6.45544e-05
1.40516e-06
6.42426e-05
1.50263e-06
6.38762e-05
1.61592e-06
6.34473e-05
1.74705e-06
6.29466e-05
1.89788e-06
6.2363e-05
2.06995e-06
6.16841e-05
2.26424e-06
6.08947e-05
2.48087e-06
5.99823e-05
2.72006e-06
5.89202e-05
2.97779e-06
5.77203e-05
3.26295e-06
3.5538e-06
5.63258e-05
6.38339e-05
2.45005e-07
6.39078e-05
4.36386e-07
6.39742e-05
5.16805e-07
6.40425e-05
5.85064e-07
6.41118e-05
6.33691e-07
6.41845e-05
6.69593e-07
6.42614e-05
7.00215e-07
6.43427e-05
7.27398e-07
6.44283e-05
7.52336e-07
6.45177e-05
7.76244e-07
6.46104e-05
8.00035e-07
6.47061e-05
8.24475e-07
6.48043e-05
8.50312e-07
6.49046e-05
8.78291e-07
6.50066e-05
9.09189e-07
6.51101e-05
9.43839e-07
6.5215e-05
9.83159e-07
6.53213e-05
1.02818e-06
6.54291e-05
1.08007e-06
6.55386e-05
1.14013e-06
6.56502e-05
1.20988e-06
6.57644e-05
1.29097e-06
6.58818e-05
1.38527e-06
6.60029e-05
1.49476e-06
6.61284e-05
1.62157e-06
6.62585e-05
1.76781e-06
6.63929e-05
1.93553e-06
6.65306e-05
2.12652e-06
6.66694e-05
2.34216e-06
6.68061e-05
2.58328e-06
6.69345e-05
2.8494e-06
6.70578e-05
3.13967e-06
3.4453e-06
6.71663e-05
6.56399e-05
1.88155e-07
6.56901e-05
3.86161e-07
6.57233e-05
4.83617e-07
6.5748e-05
5.60417e-07
6.57649e-05
6.16749e-07
6.5776e-05
6.58473e-07
6.57828e-05
6.93481e-07
6.57858e-05
7.24331e-07
6.57858e-05
7.52388e-07
6.5783e-05
7.78994e-07
6.57779e-05
8.05172e-07
6.57706e-05
8.31762e-07
6.57614e-05
8.59551e-07
6.57504e-05
8.89305e-07
6.57378e-05
9.21798e-07
6.57238e-05
9.57831e-07
6.57087e-05
9.98263e-07
6.56928e-05
1.04403e-06
6.56767e-05
1.09613e-06
6.56612e-05
1.1557e-06
6.56471e-05
1.22394e-06
6.56359e-05
1.30215e-06
6.56295e-05
1.39171e-06
6.56302e-05
1.49402e-06
6.56414e-05
1.61047e-06
6.56668e-05
1.74234e-06
6.57116e-05
1.89071e-06
6.57818e-05
2.05638e-06
6.58844e-05
2.23953e-06
6.60277e-05
2.44002e-06
6.62216e-05
2.65541e-06
6.64768e-05
2.88451e-06
3.11242e-06
6.68097e-05
6.74898e-05
1.55121e-07
6.75289e-05
3.47072e-07
6.75601e-05
4.52423e-07
6.75873e-05
5.33244e-07
6.76089e-05
5.9515e-07
6.76247e-05
6.42597e-07
6.76356e-05
6.82613e-07
6.76419e-05
7.18092e-07
6.76437e-05
7.50533e-07
6.76413e-05
7.81357e-07
6.76348e-05
8.11679e-07
6.76242e-05
8.42402e-07
6.76094e-05
8.74354e-07
6.75904e-05
9.0833e-07
6.75671e-05
9.45117e-07
6.75394e-05
9.85517e-07
6.75073e-05
1.03037e-06
6.74707e-05
1.08057e-06
6.74298e-05
1.13705e-06
6.73847e-05
1.20083e-06
6.73356e-05
1.27297e-06
6.72832e-05
1.35455e-06
6.72283e-05
1.44667e-06
6.71719e-05
1.55037e-06
6.71158e-05
1.66656e-06
6.70622e-05
1.79594e-06
6.70141e-05
1.93885e-06
6.69753e-05
2.0952e-06
6.69507e-05
2.26407e-06
6.69468e-05
2.44397e-06
6.69713e-05
2.63091e-06
6.70342e-05
2.82155e-06
3.00158e-06
6.71451e-05
6.9411e-05
1.28148e-07
6.94477e-05
3.10345e-07
6.94778e-05
4.22366e-07
6.95028e-05
5.08194e-07
6.95224e-05
5.75596e-07
6.95366e-05
6.28373e-07
6.95464e-05
6.72856e-07
6.95521e-05
7.12332e-07
6.95541e-05
7.48539e-07
6.95525e-05
7.82968e-07
6.95474e-05
8.16831e-07
6.95387e-05
8.51095e-07
6.95264e-05
8.8663e-07
6.95105e-05
9.24253e-07
6.94908e-05
9.64761e-07
6.94674e-05
1.00895e-06
6.94401e-05
1.05764e-06
6.9409e-05
1.11168e-06
6.93741e-05
1.17195e-06
6.93356e-05
1.23937e-06
6.92937e-05
1.31487e-06
6.92489e-05
1.39937e-06
6.92018e-05
1.49375e-06
6.91534e-05
1.5988e-06
6.91048e-05
1.71512e-06
6.90577e-05
1.84305e-06
6.9014e-05
1.98251e-06
6.89763e-05
2.13294e-06
6.89475e-05
2.29288e-06
6.89312e-05
2.46022e-06
6.89315e-05
2.63067e-06
6.89532e-05
2.79984e-06
2.95665e-06
6.89981e-05
7.13843e-05
1.10194e-07
7.14122e-05
2.82395e-07
7.1437e-05
3.97611e-07
7.1459e-05
4.86179e-07
7.14776e-05
5.57048e-07
7.1492e-05
6.13897e-07
7.15027e-05
6.62232e-07
7.15096e-05
7.05383e-07
7.1513e-05
7.45156e-07
7.15129e-05
7.83083e-07
7.15093e-05
8.20398e-07
7.15023e-05
8.58102e-07
7.14919e-05
8.97076e-07
7.1478e-05
9.38145e-07
7.14606e-05
9.821e-07
7.14399e-05
1.02972e-06
7.14157e-05
1.0818e-06
7.13883e-05
1.13911e-06
7.13577e-05
1.20249e-06
7.13244e-05
1.27272e-06
7.12886e-05
1.35062e-06
7.12511e-05
1.43693e-06
7.12125e-05
1.53233e-06
7.11739e-05
1.63736e-06
7.11367e-05
1.75234e-06
7.11024e-05
1.87732e-06
7.10731e-05
2.0119e-06
7.10508e-05
2.1552e-06
7.10382e-05
2.30552e-06
7.10379e-05
2.46049e-06
7.10524e-05
2.61613e-06
7.10842e-05
2.76807e-06
2.90827e-06
7.11326e-05
7.34188e-05
9.66864e-08
7.34431e-05
2.58062e-07
7.34667e-05
3.74054e-07
7.3488e-05
4.64822e-07
7.35061e-05
5.3897e-07
7.35202e-05
5.99846e-07
7.35303e-05
6.52055e-07
7.35369e-05
6.98833e-07
7.354e-05
7.42088e-07
7.35397e-05
7.83363e-07
7.35361e-05
8.23944e-07
7.35294e-05
8.64871e-07
7.35194e-05
9.07034e-07
7.35063e-05
9.51264e-07
7.349e-05
9.98345e-07
7.34707e-05
1.04903e-06
7.34484e-05
1.10407e-06
7.34234e-05
1.16419e-06
7.33957e-05
1.23012e-06
7.33659e-05
1.30256e-06
7.33343e-05
1.38217e-06
7.33017e-05
1.46954e-06
7.32689e-05
1.56515e-06
7.32369e-05
1.66932e-06
7.32071e-05
1.78214e-06
7.31811e-05
1.90339e-06
7.31605e-05
2.03244e-06
7.31475e-05
2.16819e-06
7.31442e-05
2.30887e-06
7.31526e-05
2.45207e-06
7.31745e-05
2.59428e-06
7.32109e-05
2.73162e-06
2.85831e-06
7.32609e-05
7.55124e-05
8.67887e-08
7.55319e-05
2.38478e-07
7.55519e-05
3.54086e-07
7.55704e-05
4.46294e-07
7.55867e-05
5.22741e-07
7.55999e-05
5.86665e-07
7.56099e-05
6.42024e-07
7.56168e-05
6.91911e-07
7.56206e-05
7.3829e-07
7.56213e-05
7.82659e-07
7.5619e-05
8.26265e-07
7.56137e-05
8.7017e-07
7.56054e-05
9.15281e-07
7.55943e-05
9.6242e-07
7.55803e-05
1.01235e-06
7.55635e-05
1.06578e-06
7.55442e-05
1.12342e-06
7.55224e-05
1.18593e-06
7.54986e-05
1.25394e-06
7.54731e-05
1.32806e-06
7.54465e-05
1.40881e-06
7.54194e-05
1.49662e-06
7.53927e-05
1.59182e-06
7.53675e-05
1.69453e-06
7.5345e-05
1.80465e-06
7.53266e-05
1.92177e-06
7.53139e-05
2.04513e-06
7.53086e-05
2.17352e-06
7.53123e-05
2.3052e-06
7.53264e-05
2.43792e-06
7.5352e-05
2.56871e-06
7.53892e-05
2.69438e-06
2.81089e-06
7.54367e-05
7.76671e-05
7.9267e-08
7.76835e-05
2.22055e-07
7.77016e-05
3.35996e-07
7.77191e-05
4.28813e-07
7.77349e-05
5.06978e-07
7.7748e-05
5.73545e-07
7.77581e-05
6.31855e-07
7.77653e-05
6.84723e-07
7.77696e-05
7.3403e-07
7.7771e-05
7.81278e-07
7.77695e-05
8.2774e-07
7.77652e-05
8.74453e-07
7.77582e-05
9.22304e-07
7.77485e-05
9.72094e-07
7.77363e-05
1.02456e-06
7.77217e-05
1.08038e-06
7.77049e-05
1.14021e-06
7.76862e-05
1.20464e-06
7.76659e-05
1.27422e-06
7.76445e-05
1.34945e-06
7.76226e-05
1.43074e-06
7.76008e-05
1.51839e-06
7.75801e-05
1.61257e-06
7.75613e-05
1.71326e-06
7.75458e-05
1.8202e-06
7.75347e-05
1.93289e-06
7.75293e-05
2.05047e-06
7.75311e-05
2.17173e-06
7.75413e-05
2.29505e-06
7.75607e-05
2.41845e-06
7.759e-05
2.5395e-06
7.76286e-05
2.65571e-06
2.76429e-06
7.76752e-05
7.98841e-05
7.3435e-08
7.98978e-05
2.08422e-07
7.99136e-05
3.20192e-07
7.99292e-05
4.13192e-07
7.99436e-05
4.92624e-07
7.99558e-05
5.61287e-07
7.99656e-05
6.22038e-07
7.99729e-05
6.77442e-07
7.99776e-05
7.29344e-07
7.99797e-05
7.79173e-07
7.99793e-05
8.28161e-07
7.99764e-05
8.77337e-07
7.99711e-05
9.27578e-07
7.99636e-05
9.79665e-07
7.99538e-05
1.0343e-06
7.99421e-05
1.09212e-06
7.99286e-05
1.15371e-06
7.99136e-05
1.2196e-06
7.98976e-05
1.29026e-06
7.98809e-05
1.36609e-06
7.98643e-05
1.44738e-06
7.98484e-05
1.53433e-06
7.9834e-05
1.62698e-06
7.9822e-05
1.72519e-06
7.98136e-05
1.82861e-06
7.98098e-05
1.93667e-06
7.98118e-05
2.04848e-06
7.98207e-05
2.16291e-06
7.98372e-05
2.2785e-06
7.98621e-05
2.39357e-06
7.98954e-05
2.50621e-06
7.99365e-05
2.61457e-06
2.71674e-06
7.99841e-05
8.21651e-05
6.87974e-08
8.21766e-05
1.96928e-07
8.21907e-05
3.06098e-07
8.22051e-05
3.98723e-07
8.22189e-05
4.78894e-07
8.2231e-05
5.49152e-07
8.22411e-05
6.11957e-07
8.22489e-05
6.69594e-07
8.22545e-05
7.23793e-07
8.22577e-05
7.75935e-07
8.22587e-05
8.27216e-07
8.22574e-05
8.7863e-07
8.22539e-05
9.31021e-07
8.22485e-05
9.8513e-07
8.22411e-05
1.04162e-06
8.22322e-05
1.10108e-06
8.22219e-05
1.16404e-06
8.22105e-05
1.23096e-06
8.21985e-05
1.30223e-06
8.21865e-05
1.37816e-06
8.21749e-05
1.45895e-06
8.21645e-05
1.5447e-06
8.21561e-05
1.63536e-06
8.21506e-05
1.73069e-06
8.21489e-05
1.8303e-06
8.2152e-05
1.93357e-06
8.21609e-05
2.03966e-06
8.21763e-05
2.14752e-06
8.21989e-05
2.25589e-06
8.2229e-05
2.3634e-06
8.22667e-05
2.46858e-06
8.23112e-05
2.57008e-06
2.66662e-06
8.23613e-05
8.45116e-05
6.50123e-08
8.45213e-05
1.87142e-07
8.45339e-05
2.93553e-07
8.45471e-05
3.85468e-07
8.456e-05
4.66034e-07
8.45717e-05
5.37492e-07
8.45817e-05
6.01964e-07
8.45898e-05
6.61473e-07
8.45959e-05
7.17641e-07
8.46001e-05
7.71783e-07
8.46023e-05
8.25031e-07
8.46026e-05
8.7834e-07
8.46011e-05
9.32517e-07
8.45979e-05
9.88268e-07
8.45933e-05
1.04621e-06
8.45875e-05
1.10689e-06
8.45808e-05
1.17078e-06
8.45735e-05
1.23827e-06
8.4566e-05
1.30967e-06
8.4559e-05
1.38522e-06
8.45529e-05
1.46504e-06
8.45484e-05
1.54914e-06
8.45464e-05
1.6374e-06
8.45476e-05
1.72952e-06
8.45528e-05
1.82509e-06
8.45629e-05
1.92348e-06
8.45786e-05
2.02391e-06
8.46007e-05
2.12546e-06
8.46295e-05
2.22705e-06
8.46653e-05
2.32759e-06
8.47079e-05
2.42594e-06
8.47568e-05
2.52119e-06
2.61245e-06
8.4811e-05
8.69253e-05
6.1843e-08
8.69338e-05
1.78682e-07
8.69451e-05
2.82255e-07
8.69574e-05
3.73125e-07
8.69698e-05
4.53693e-07
8.69814e-05
5.25916e-07
8.69917e-05
5.9164e-07
8.70005e-05
6.52656e-07
8.70077e-05
7.10458e-07
8.70132e-05
7.66282e-07
8.7017e-05
8.21192e-07
8.70193e-05
8.76094e-07
8.702e-05
9.31752e-07
8.70195e-05
9.88826e-07
8.70178e-05
1.04789e-06
8.70153e-05
1.10943e-06
8.70122e-05
1.17385e-06
8.7009e-05
1.2415e-06
8.7006e-05
1.31261e-06
8.70039e-05
1.38736e-06
8.70031e-05
1.46578e-06
8.70045e-05
1.54784e-06
8.70085e-05
1.63334e-06
8.70161e-05
1.72198e-06
8.70278e-05
1.81332e-06
8.70445e-05
1.90676e-06
8.70669e-05
2.0016e-06
8.70953e-05
2.09702e-06
8.71302e-05
2.19214e-06
8.71717e-05
2.28607e-06
8.72197e-05
2.37799e-06
8.72736e-05
2.46725e-06
2.55323e-06
8.73329e-05
8.94083e-05
5.91192e-08
8.94157e-05
1.71243e-07
8.9426e-05
2.71972e-07
8.94376e-05
3.61551e-07
8.94494e-05
4.41816e-07
8.94609e-05
5.14455e-07
8.94715e-05
5.81079e-07
8.94808e-05
6.43262e-07
8.94889e-05
7.02369e-07
8.94957e-05
7.59548e-07
8.95011e-05
8.1579e-07
8.95052e-05
8.71943e-07
8.95083e-05
9.28724e-07
8.95103e-05
9.86746e-07
8.95117e-05
1.04653e-06
8.95126e-05
1.10852e-06
8.95134e-05
1.17306e-06
8.95145e-05
1.24043e-06
8.95163e-05
1.31082e-06
8.95193e-05
1.38433e-06
8.95241e-05
1.46096e-06
8.95313e-05
1.5406e-06
8.95416e-05
1.62304e-06
8.95557e-05
1.70796e-06
8.95741e-05
1.7949e-06
8.95975e-05
1.88333e-06
8.96265e-05
1.97262e-06
8.96615e-05
2.06205e-06
8.97027e-05
2.1509e-06
8.97503e-05
2.23848e-06
8.98041e-05
2.32415e-06
8.98639e-05
2.40747e-06
2.48797e-06
8.99292e-05
9.19623e-05
5.67171e-08
9.19689e-05
1.64571e-07
9.19784e-05
2.62473e-07
9.19894e-05
3.50542e-07
9.20011e-05
4.302e-07
9.20126e-05
5.02897e-07
9.20237e-05
5.70042e-07
9.20339e-05
6.33023e-07
9.20432e-05
6.93078e-07
9.20515e-05
7.51263e-07
9.20588e-05
8.08494e-07
9.20651e-05
8.65557e-07
9.20708e-05
9.23117e-07
9.20758e-05
9.81736e-07
9.20804e-05
1.04188e-06
9.2085e-05
1.10395e-06
9.20898e-05
1.16823e-06
9.20953e-05
1.23494e-06
9.21019e-05
1.30423e-06
9.21101e-05
1.37614e-06
9.21204e-05
1.45062e-06
9.21335e-05
1.52754e-06
9.21498e-05
1.60666e-06
9.21702e-05
1.68765e-06
9.2195e-05
1.77008e-06
9.22249e-05
1.85345e-06
9.22603e-05
1.9372e-06
9.23016e-05
2.02073e-06
9.23491e-05
2.10345e-06
9.24028e-05
2.18478e-06
9.24627e-05
2.26425e-06
9.25286e-05
2.34154e-06
2.41628e-06
9.26003e-05
9.45893e-05
5.4543e-08
9.45954e-05
1.58459e-07
9.46044e-05
2.53552e-07
9.4615e-05
3.39924e-07
9.46265e-05
4.18703e-07
9.46382e-05
4.91138e-07
9.46498e-05
5.58462e-07
9.46609e-05
6.219e-07
9.46715e-05
6.82563e-07
9.46813e-05
7.41416e-07
9.46905e-05
7.99297e-07
9.46991e-05
8.56926e-07
9.47073e-05
9.14911e-07
9.47153e-05
9.73762e-07
9.47233e-05
1.0339e-06
9.47316e-05
1.09566e-06
9.47405e-05
1.15929e-06
9.47505e-05
1.22496e-06
9.4762e-05
1.29277e-06
9.47754e-05
1.36272e-06
9.47913e-05
1.43473e-06
9.48102e-05
1.50864e-06
9.48326e-05
1.58419e-06
9.48592e-05
1.66106e-06
9.48905e-05
1.73885e-06
9.49268e-05
1.81711e-06
9.49687e-05
1.89533e-06
9.50164e-05
1.97301e-06
9.50702e-05
2.04965e-06
9.51302e-05
2.12478e-06
9.51964e-05
2.19801e-06
9.52688e-05
2.26912e-06
2.33777e-06
9.53474e-05
9.72915e-05
5.25245e-08
9.72973e-05
1.52734e-07
9.73058e-05
2.45017e-07
9.73162e-05
3.29517e-07
9.73278e-05
4.07156e-07
9.73399e-05
4.79011e-07
9.73522e-05
5.46169e-07
9.73644e-05
6.09709e-07
9.73763e-05
6.70625e-07
9.73879e-05
7.29792e-07
9.73993e-05
7.87969e-07
9.74104e-05
8.45809e-07
9.74214e-05
9.03865e-07
9.74326e-05
9.62591e-07
9.74441e-05
1.02236e-06
9.74563e-05
1.08345e-06
9.74695e-05
1.14608e-06
9.74841e-05
1.21037e-06
9.75005e-05
1.27637e-06
9.75192e-05
1.34405e-06
9.75406e-05
1.41331e-06
9.75653e-05
1.48396e-06
9.75937e-05
1.55575e-06
9.76264e-05
1.62836e-06
9.76639e-05
1.70142e-06
9.77065e-05
1.77452e-06
9.77546e-05
1.84722e-06
9.78085e-05
1.91907e-06
9.78685e-05
1.98965e-06
9.79347e-05
2.05858e-06
9.80072e-05
2.12552e-06
9.8086e-05
2.19028e-06
2.25257e-06
9.81712e-05
0.000100071
5.06036e-08
0.000100076
1.47249e-07
0.000100085
2.36696e-07
0.000100095
3.19153e-07
0.000100107
3.95401e-07
0.00010012
4.66376e-07
0.000100133
5.3304e-07
0.000100146
5.96343e-07
0.00010016
6.5717e-07
0.000100173
7.16306e-07
0.000100187
7.74434e-07
0.0001002
8.32141e-07
0.000100214
8.8992e-07
0.000100229
9.48174e-07
0.000100244
1.00722e-06
0.00010026
1.06731e-06
0.000100277
1.12859e-06
0.000100297
1.19117e-06
0.000100318
1.25504e-06
0.000100342
1.32016e-06
0.000100369
1.38641e-06
0.000100399
1.45358e-06
0.000100433
1.52143e-06
0.000100472
1.58965e-06
0.000100516
1.6579e-06
0.000100564
1.7258e-06
0.000100619
1.79296e-06
0.000100679
1.85899e-06
0.000100745
1.92353e-06
0.000100817
1.98624e-06
0.000100896
2.04684e-06
0.000100981
2.10512e-06
2.16083e-06
0.000101073
0.00010293
4.87326e-08
0.000102935
1.4188e-07
0.000102944
2.28433e-07
0.000102954
3.08672e-07
0.000102966
3.8328e-07
0.000102979
4.53081e-07
0.000102994
5.18925e-07
0.000103008
5.81651e-07
0.000103023
6.42044e-07
0.000103039
7.008e-07
0.000103055
7.58531e-07
0.000103071
8.15757e-07
0.000103088
8.72914e-07
0.000103106
9.30353e-07
0.000103125
9.88348e-07
0.000103145
1.0471e-06
0.000103167
1.10672e-06
0.000103191
1.16728e-06
0.000103217
1.22876e-06
0.000103246
1.29107e-06
0.000103279
1.35408e-06
0.000103315
1.4176e-06
0.000103355
1.48137e-06
0.000103399
1.5451e-06
0.000103449
1.60849e-06
0.000103503
1.67117e-06
0.000103563
1.73281e-06
0.000103629
1.79305e-06
0.000103701
1.85157e-06
0.000103779
1.90808e-06
0.000103864
1.96231e-06
0.000103955
2.01407e-06
2.06309e-06
0.000104053
0.000105871
4.68711e-08
0.000105876
1.36516e-07
0.000105884
2.20084e-07
0.000105895
2.9792e-07
0.000105908
3.7064e-07
0.000105922
4.38976e-07
0.000105937
5.03683e-07
0.000105953
5.65501e-07
0.00010597
6.2512e-07
0.000105988
6.83159e-07
0.000106006
7.40154e-07
0.000106025
7.96564e-07
0.000106045
8.52768e-07
0.000106067
9.09068e-07
0.000106089
9.65692e-07
0.000106114
1.0228e-06
0.00010614
1.08047e-06
0.000106168
1.13874e-06
0.0001062
1.19757e-06
0.000106234
1.25685e-06
0.000106272
1.31645e-06
0.000106313
1.37616e-06
0.000106359
1.43574e-06
0.000106409
1.49492e-06
0.000106464
1.5534e-06
0.000106524
1.61087e-06
0.00010659
1.66701e-06
0.000106662
1.72151e-06
0.000106739
1.77407e-06
0.000106823
1.82442e-06
0.000106913
1.87233e-06
0.000107009
1.91758e-06
1.95993e-06
0.000107112
0.000108895
4.49842e-08
0.000108901
1.31062e-07
0.000108909
2.11519e-07
0.00010892
2.86752e-07
0.000108934
3.57333e-07
0.000108949
4.23916e-07
0.000108965
4.87173e-07
0.000108983
5.47757e-07
0.000109002
6.06273e-07
0.000109022
6.6326e-07
0.000109043
7.1919e-07
0.000109065
7.74458e-07
0.000109088
8.29389e-07
0.000109113
8.84238e-07
0.00010914
9.39192e-07
0.000109168
9.94369e-07
0.000109199
1.04983e-06
0.000109232
1.10557e-06
0.000109268
1.16153e-06
0.000109307
1.2176e-06
0.00010935
1.27363e-06
0.000109397
1.32942e-06
0.000109448
1.38475e-06
0.000109503
1.43934e-06
0.000109564
1.49292e-06
0.000109629
1.54521e-06
0.000109701
1.59591e-06
0.000109777
1.64474e-06
0.00010986
1.69144e-06
0.000109949
1.73575e-06
0.000110043
1.77744e-06
0.000110145
1.81631e-06
1.85211e-06
0.000110253
0.000112006
4.30409e-08
0.000112012
1.25432e-07
0.000112021
2.02613e-07
0.000112033
2.75028e-07
0.000112047
3.4321e-07
0.000112063
4.07752e-07
0.000112081
4.6925e-07
0.0001121
5.28279e-07
0.000112121
5.85366e-07
0.000112144
6.40979e-07
0.000112167
6.95523e-07
0.000112192
7.49336e-07
0.000112219
8.02693e-07
0.000112247
8.55802e-07
0.000112278
9.0881e-07
0.00011231
9.61804e-07
0.000112345
1.01481e-06
0.000112383
1.06781e-06
0.000112424
1.12073e-06
0.000112468
1.17344e-06
0.000112516
1.2258e-06
0.000112568
1.2776e-06
0.000112624
1.32862e-06
0.000112685
1.37862e-06
0.00011275
1.42734e-06
0.000112821
1.47452e-06
0.000112897
1.51989e-06
0.000112979
1.56319e-06
0.000113066
1.60417e-06
0.000113159
1.64261e-06
0.000113258
1.67827e-06
0.000113363
1.71096e-06
1.74047e-06
0.000113475
0.000115206
4.10133e-08
0.000115212
1.19548e-07
0.000115222
1.93257e-07
0.000115234
2.6262e-07
0.000115249
3.2814e-07
0.000115267
3.90354e-07
0.000115286
4.49793e-07
0.000115307
5.06959e-07
0.00011533
5.62306e-07
0.000115355
6.16235e-07
0.000115382
6.6909e-07
0.00011541
7.21154e-07
0.00011544
7.72653e-07
0.000115472
8.23752e-07
0.000115506
8.74563e-07
0.000115543
9.25142e-07
0.000115582
9.75493e-07
0.000115624
1.02557e-06
0.00011567
1.0753e-06
0.000115719
1.12454e-06
0.000115771
1.17314e-06
0.000115828
1.2209e-06
0.000115889
1.26763e-06
0.000115955
1.31308e-06
0.000116025
1.35701e-06
0.0001161
1.3992e-06
0.000116181
1.43938e-06
0.000116267
1.47732e-06
0.000116358
1.5128e-06
0.000116455
1.54559e-06
0.000116558
1.5755e-06
0.000116666
1.60232e-06
1.62587e-06
0.000116781
0.000118498
3.8875e-08
0.000118504
1.13334e-07
0.000118514
1.83339e-07
0.000118527
2.49392e-07
0.000118544
3.11972e-07
0.000118562
3.71565e-07
0.000118583
4.28642e-07
0.000118607
4.83637e-07
0.000118632
5.36939e-07
0.00011866
5.88885e-07
0.000118689
6.39761e-07
0.00011872
6.89798e-07
0.000118754
7.39177e-07
0.000118789
7.88024e-07
0.000118828
8.36416e-07
0.000118868
8.84382e-07
0.000118912
9.31906e-07
0.000118959
9.78929e-07
0.000119008
1.02535e-06
0.000119062
1.07105e-06
0.000119119
1.11586e-06
0.000119181
1.1596e-06
0.000119246
1.20207e-06
0.000119316
1.24305e-06
0.000119391
1.28233e-06
0.00011947
1.31968e-06
0.000119555
1.35487e-06
0.000119644
1.38769e-06
0.000119739
1.41793e-06
0.00011984
1.44539e-06
0.000119945
1.46988e-06
0.000120056
1.49122e-06
1.50925e-06
0.000120173
0.000121884
3.66028e-08
0.00012189
1.06726e-07
0.000121901
1.72765e-07
0.000121915
2.35241e-07
0.000121932
2.94605e-07
0.000121953
3.51294e-07
0.000121975
4.05723e-07
0.000122001
4.58261e-07
0.000122029
5.09234e-07
0.000122059
5.58919e-07
0.000122091
6.07547e-07
0.000122125
6.55301e-07
0.000122162
7.02318e-07
0.000122201
7.4869e-07
0.000122243
7.94463e-07
0.000122288
8.39643e-07
0.000122336
8.84194e-07
0.000122387
9.28044e-07
0.000122441
9.71089e-07
0.000122499
1.0132e-06
0.00012256
1.05421e-06
0.000122626
1.09396e-06
0.000122696
1.13226e-06
0.00012277
1.1689e-06
0.000122849
1.20368e-06
0.000122932
1.2364e-06
0.00012302
1.26684e-06
0.000123113
1.29482e-06
0.000123211
1.32014e-06
0.000123313
1.34263e-06
0.000123421
1.36211e-06
0.000123534
1.37841e-06
1.39142e-06
0.000123652
0.000125366
3.41683e-08
0.000125373
9.96436e-08
0.000125384
1.61412e-07
0.0001254
2.20005e-07
0.000125418
2.75849e-07
0.00012544
3.29334e-07
0.000125465
3.80818e-07
0.000125493
4.30612e-07
0.000125523
4.78978e-07
0.000125556
5.26138e-07
0.000125591
5.7227e-07
0.000125629
6.17513e-07
0.000125669
6.61962e-07
0.000125712
7.05675e-07
0.000125758
7.48671e-07
0.000125807
7.90935e-07
0.000125859
8.32415e-07
0.000125914
8.73028e-07
0.000125972
9.12664e-07
0.000126034
9.51194e-07
0.0001261
9.88467e-07
0.000126169
1.02432e-06
0.000126243
1.05857e-06
0.000126321
1.09104e-06
0.000126403
1.12153e-06
0.00012649
1.14987e-06
0.000126581
1.17586e-06
0.000126676
1.19933e-06
0.000126776
1.22011e-06
0.000126881
1.23804e-06
0.00012699
1.25297e-06
0.000127104
1.26476e-06
1.27333e-06
0.000127222
0.000128948
3.15567e-08
0.000128955
9.20421e-08
0.000128967
1.49225e-07
0.000128984
2.03644e-07
0.000129004
2.55688e-07
0.000129028
3.05697e-07
0.000129055
3.5397e-07
0.000129084
4.00756e-07
0.000129117
4.4626e-07
0.000129153
4.90648e-07
0.000129191
5.3405e-07
0.000129232
5.76562e-07
0.000129275
6.18244e-07
0.000129322
6.59122e-07
0.000129371
6.99192e-07
0.000129424
7.38418e-07
0.00012948
7.76738e-07
0.000129539
8.14061e-07
0.000129601
8.50278e-07
0.000129667
8.8526e-07
0.000129737
9.18862e-07
0.00012981
9.50927e-07
0.000129887
9.81291e-07
0.000129968
1.00978e-06
0.000130054
1.03624e-06
0.000130143
1.06048e-06
0.000130237
1.08235e-06
0.000130334
1.10169e-06
0.000130436
1.11835e-06
0.000130542
1.13219e-06
0.000130652
1.14308e-06
0.000130766
1.15091e-06
1.15562e-06
0.000130883
0.000132632
2.87152e-08
0.00013264
8.3783e-08
0.000132653
1.35982e-07
0.000132671
1.85862e-07
0.000132693
2.33776e-07
0.000132719
2.80007e-07
0.000132748
3.24795e-07
0.00013278
3.68324e-07
0.000132816
4.10739e-07
0.000132854
4.52149e-07
0.000132896
4.92638e-07
0.00013294
5.32258e-07
0.000132987
5.71035e-07
0.000133038
6.08965e-07
0.000133091
6.46023e-07
0.000133147
6.82157e-07
0.000133206
7.17295e-07
0.000133269
7.51344e-07
0.000133335
7.84191e-07
0.000133405
8.15711e-07
0.000133478
8.45766e-07
0.000133555
8.7421e-07
0.000133635
9.00891e-07
0.000133719
9.25656e-07
0.000133807
9.48353e-07
0.000133899
9.6883e-07
0.000133994
9.86944e-07
0.000134093
1.00256e-06
0.000134196
1.01554e-06
0.000134302
1.02579e-06
0.000134412
1.03319e-06
0.000134526
1.03764e-06
1.03912e-06
0.000134642
0.000136421
2.56741e-08
0.00013643
7.49158e-08
0.000136444
1.21786e-07
0.000136463
1.66828e-07
0.000136487
2.10336e-07
0.000136514
2.52525e-07
0.000136546
2.9357e-07
0.00013658
3.33592e-07
0.000136618
3.72675e-07
0.00013666
4.10881e-07
0.000136704
4.48245e-07
0.000136752
4.84782e-07
0.000136802
5.20486e-07
0.000136856
5.55332e-07
0.000136912
5.89275e-07
0.000136972
6.22251e-07
0.000137035
6.54179e-07
0.000137102
6.84962e-07
0.000137172
7.14491e-07
0.000137245
7.42643e-07
0.000137321
7.69288e-07
0.000137401
7.94293e-07
0.000137484
8.17519e-07
0.000137571
8.38828e-07
0.000137661
8.58084e-07
0.000137755
8.75157e-07
0.000137852
8.89919e-07
0.000137952
9.02257e-07
0.000138056
9.12061e-07
0.000138163
9.19237e-07
0.000138272
9.23705e-07
0.000138384
9.25378e-07
9.24268e-07
0.000138499
0.000140319
2.2241e-08
0.000140329
6.5019e-08
0.000140345
1.0602e-07
0.000140366
1.45808e-07
0.000140392
1.84593e-07
0.000140422
2.22497e-07
0.000140456
2.59606e-07
0.000140493
2.95963e-07
0.000140534
3.31583e-07
0.000140579
3.66473e-07
0.000140626
4.00619e-07
0.000140677
4.33999e-07
0.000140731
4.66576e-07
0.000140788
4.98306e-07
0.000140848
5.29125e-07
0.000140912
5.58961e-07
0.000140978
5.87725e-07
0.000141048
6.15322e-07
0.00014112
6.41641e-07
0.000141197
6.6657e-07
0.000141276
6.89987e-07
0.000141358
7.11769e-07
0.000141444
7.31794e-07
0.000141533
7.49939e-07
0.000141625
7.66084e-07
0.00014172
7.80118e-07
0.000141818
7.91934e-07
0.000141919
8.01436e-07
0.000142022
8.08536e-07
0.000142128
8.13159e-07
0.000142237
8.15247e-07
0.000142348
8.14735e-07
8.11654e-07
0.00014246
0.000144328
1.87179e-08
0.000144339
5.45918e-08
0.000144355
8.93609e-08
0.000144377
1.23555e-07
0.000144405
1.57284e-07
0.000144437
1.90582e-07
0.000144473
2.2346e-07
0.000144513
2.55875e-07
0.000144557
2.87778e-07
0.000144604
3.19125e-07
0.000144655
3.49861e-07
0.000144709
3.79922e-07
0.000144766
4.09248e-07
0.000144827
4.37769e-07
0.00014489
4.6541e-07
0.000144957
4.92088e-07
0.000145027
5.17714e-07
0.000145101
5.42189e-07
0.000145177
5.6541e-07
0.000145256
5.8727e-07
0.000145338
6.07657e-07
0.000145424
6.26461e-07
0.000145512
6.43573e-07
0.000145603
6.58885e-07
0.000145697
6.72294e-07
0.000145793
6.83706e-07
0.000145892
6.93031e-07
0.000145993
7.0019e-07
0.000146097
7.05114e-07
0.000146202
7.07745e-07
0.000146309
7.08041e-07
0.000146418
7.05954e-07
7.01529e-07
0.000146528
0.000148452
1.41803e-08
0.000148465
4.20871e-08
0.000148484
6.99797e-08
0.00014851
9.83142e-08
0.00014854
1.26899e-07
0.000148575
1.55572e-07
0.000148614
1.84236e-07
0.000148657
2.12732e-07
0.000148704
2.40941e-07
0.000148755
2.68766e-07
0.000148808
2.96102e-07
0.000148865
3.22856e-07
0.000148926
3.48945e-07
0.000148989
3.74284e-07
0.000149056
3.98788e-07
0.000149126
4.2237e-07
0.000149198
4.4494e-07
0.000149274
4.66403e-07
0.000149353
4.86662e-07
0.000149434
5.05618e-07
0.000149519
5.23172e-07
0.000149606
5.39225e-07
0.000149696
5.53683e-07
0.000149789
5.66454e-07
0.000149883
5.77451e-07
0.00014998
5.86595e-07
0.00015008
5.93815e-07
0.000150181
5.99047e-07
0.000150284
6.0224e-07
0.000150388
6.03353e-07
0.000150494
6.02359e-07
0.000150601
5.99226e-07
5.9401e-07
0.000150708
0.000152693
1.02921e-08
0.000152706
2.95776e-08
0.000152726
4.99338e-08
0.000152752
7.17238e-08
0.000152784
9.45979e-08
0.000152822
1.18215e-07
0.000152864
1.42319e-07
0.00015291
1.66575e-07
0.00015296
1.90835e-07
0.000153014
2.1495e-07
0.000153071
2.38747e-07
0.000153132
2.62093e-07
0.000153196
2.8488e-07
0.000153263
3.07008e-07
0.000153334
3.28383e-07
0.000153407
3.48917e-07
0.000153484
3.68519e-07
0.000153563
3.871e-07
0.000153645
4.04569e-07
0.00015373
4.20837e-07
0.000153817
4.35817e-07
0.000153907
4.49421e-07
0.000153999
4.61569e-07
0.000154093
4.72181e-07
0.00015419
4.81187e-07
0.000154288
4.88521e-07
0.000154387
4.94127e-07
0.000154488
4.97954e-07
0.000154591
4.99964e-07
0.000154694
5.00127e-07
0.000154798
4.98429e-07
0.000154902
4.94848e-07
4.89442e-07
0.000155007
0.000157059
3.13281e-09
0.000157076
1.24376e-08
0.0001571
2.53026e-08
0.000157131
4.12031e-08
0.000157167
5.88558e-08
0.000157207
7.77626e-08
0.000157252
9.76671e-08
0.0001573
1.17913e-07
0.000157353
1.38359e-07
0.000157409
1.58831e-07
0.000157469
1.79121e-07
0.000157532
1.9908e-07
0.000157598
2.18587e-07
0.000157667
2.37524e-07
0.00015774
2.55797e-07
0.000157816
2.73324e-07
0.000157894
2.90019e-07
0.000157975
3.05798e-07
0.000158059
3.2058e-07
0.000158146
3.34286e-07
0.000158235
3.46839e-07
0.000158326
3.58168e-07
0.00015842
3.68203e-07
0.000158515
3.7688e-07
0.000158612
3.84143e-07
0.00015871
3.89939e-07
0.00015881
3.94226e-07
0.000158911
3.96967e-07
0.000159013
3.98136e-07
0.000159116
3.97715e-07
0.000159218
3.95699e-07
0.000159321
3.92078e-07
3.86909e-07
0.000159424
0.000161543
-1.76456e-09
0.00016156
-4.6956e-09
0.000161587
-1.5315e-09
0.000161621
7.33629e-09
0.000161661
1.92699e-08
0.000161705
3.32194e-08
0.000161754
4.86141e-08
0.000161808
6.45437e-08
0.000161865
8.11899e-08
0.000161926
9.808e-08
0.00016199
1.14915e-07
0.000162057
1.31536e-07
0.000162128
1.47836e-07
0.000162202
1.63673e-07
0.000162279
1.78958e-07
0.000162359
1.93622e-07
0.000162441
2.07584e-07
0.000162526
2.20773e-07
0.000162613
2.33117e-07
0.000162703
2.44549e-07
0.000162795
2.55006e-07
0.000162889
2.64426e-07
0.000162984
2.72753e-07
0.000163081
2.79935e-07
0.000163179
2.85926e-07
0.000163279
2.90685e-07
0.000163379
2.94179e-07
0.000163479
2.96382e-07
0.00016358
2.97275e-07
0.000163681
2.96845e-07
0.000163782
2.95092e-07
0.000163882
2.92009e-07
2.87649e-07
0.000163981
0.000166167
-1.56002e-08
0.000166192
-2.96897e-08
0.000166223
-3.22473e-08
0.00016626
-2.90415e-08
0.000166301
-2.24017e-08
0.000166347
-1.27951e-08
0.000166397
-7.04047e-10
0.000166451
1.04539e-08
0.000166509
2.31624e-08
0.00016657
3.62919e-08
0.000166636
4.95785e-08
0.000166704
6.28041e-08
0.000166777
7.58263e-08
0.000166852
8.8455e-08
0.00016693
1.0069e-07
0.000167011
1.12449e-07
0.000167095
1.2365e-07
0.000167182
1.34231e-07
0.000167271
1.44132e-07
0.000167362
1.53299e-07
0.000167455
1.61681e-07
0.00016755
1.69228e-07
0.000167647
1.75897e-07
0.000167746
1.8165e-07
0.000167845
1.8645e-07
0.000167945
1.90271e-07
0.000168047
1.93088e-07
0.000168148
1.94885e-07
0.00016825
1.95652e-07
0.000168351
1.95386e-07
0.000168452
1.94092e-07
0.000168552
1.91771e-07
1.88474e-07
0.000168652
0.000170913
-2.83384e-08
0.000170947
-6.33263e-08
0.000170989
-7.38617e-08
0.000171037
-7.70972e-08
0.000171089
-7.49293e-08
0.000171145
-6.88744e-08
0.000171205
-6.088e-08
0.000171268
-5.20702e-08
0.000171333
-4.2366e-08
0.000171402
-3.23028e-08
0.000171474
-2.21827e-08