/*--------------------------------*- C++ -*----------------------------------*\
  =========                 |
  \\      /  F ield         | OpenFOAM: The Open Source CFD Toolbox
   \\    /   O peration     | Website:  https://openfoam.org
    \\  /    A nd           | Version:  10
     \\/     M anipulation  |
\*---------------------------------------------------------------------------*/
FoamFile
{
    format      ascii;
    class       volVectorField;
    location    "0.105";
    object      U;
}
// * * * * * * * * * * * * * * * * * * * * * * * * * * * * * * * * * * * * * //

dimensions      [0 1 -1 0 0 0 0];

internalField   nonuniform List<vector> 
6820
(
(7.28172 0.0248779 0)
(7.17773 0.0401932 0)
(7.05423 0.0452503 0)
(6.92436 0.04804 0)
(6.79453 0.0492778 0)
(6.66514 0.0496232 0)
(6.53663 0.0495209 0)
(6.40946 0.0491657 0)
(6.28369 0.0486782 0)
(6.15923 0.0481428 0)
(6.03596 0.047616 0)
(5.91369 0.0471397 0)
(5.79215 0.0467483 0)
(5.67104 0.0464721 0)
(5.55 0.0463393 0)
(5.42862 0.046378 0)
(5.30642 0.0466176 0)
(5.18285 0.0470893 0)
(5.05728 0.0478274 0)
(4.92901 0.0488691 0)
(4.79724 0.0502543 0)
(4.66106 0.0520238 0)
(4.51946 0.0542167 0)
(4.37134 0.0568652 0)
(4.2155 0.0599878 0)
(4.05069 0.0635813 0)
(3.87564 0.0676016 0)
(3.68914 0.0719934 0)
(3.49 0.0765112 0)
(3.27782 0.0813773 0)
(3.04983 0.0851091 0)
(2.81378 0.0909776 0)
(2.54164 0.0961876 0)
(7.35925 0.0259778 0)
(7.42107 0.0360361 0)
(7.47616 0.0380421 0)
(7.52638 0.0403132 0)
(7.57229 0.0420258 0)
(7.61272 0.0435093 0)
(7.64762 0.0450451 0)
(7.67736 0.0466455 0)
(7.70222 0.0483172 0)
(7.72245 0.0500792 0)
(7.7383 0.051949 0)
(7.74998 0.053948 0)
(7.75768 0.0561042 0)
(7.76153 0.0584531 0)
(7.76162 0.0610374 0)
(7.75802 0.0639087 0)
(7.7507 0.0671288 0)
(7.7396 0.0707712 0)
(7.72458 0.0749228 0)
(7.70542 0.0796854 0)
(7.68183 0.0851772 0)
(7.65339 0.0915328 0)
(7.61958 0.0989021 0)
(7.57971 0.107447 0)
(7.53297 0.117336 0)
(7.47834 0.12873 0)
(7.41463 0.141773 0)
(7.34041 0.156583 0)
(7.25417 0.173163 0)
(7.15382 0.191733 0)
(7.03856 0.211464 0)
(6.90273 0.234974 0)
(6.75719 0.255546 0)
(7.3354 0.00703237 0)
(7.34543 0.0104579 0)
(7.35406 0.0132692 0)
(7.36133 0.0169423 0)
(7.36913 0.0200999 0)
(7.37734 0.0229139 0)
(7.38591 0.0256159 0)
(7.395 0.0282201 0)
(7.4046 0.030754 0)
(7.41467 0.0332661 0)
(7.42516 0.0358004 0)
(7.43601 0.0384016 0)
(7.44717 0.0411185 0)
(7.45859 0.0440046 0)
(7.47022 0.0471202 0)
(7.48205 0.0505337 0)
(7.49403 0.054324 0)
(7.50618 0.0585834 0)
(7.51848 0.0634202 0)
(7.53097 0.0689618 0)
(7.54367 0.0753575 0)
(7.55664 0.0827812 0)
(7.56994 0.0914328 0)
(7.58364 0.101538 0)
(7.59781 0.113346 0)
(7.61251 0.127121 0)
(7.62774 0.143137 0)
(7.64344 0.161647 0)
(7.65942 0.182909 0)
(7.67541 0.207068 0)
(7.69085 0.234391 0)
(7.70535 0.264659 0)
(7.71882 0.298707 0)
(7.33492 0.00943002 0)
(7.34229 0.0205271 0)
(7.34748 0.0263027 0)
(7.35031 0.0303171 0)
(7.35249 0.0330815 0)
(7.3541 0.0351209 0)
(7.35507 0.0368561 0)
(7.35559 0.0384375 0)
(7.35575 0.0399537 0)
(7.35558 0.0414816 0)
(7.35514 0.0430774 0)
(7.35444 0.0447866 0)
(7.35351 0.0466523 0)
(7.35237 0.0487188 0)
(7.35105 0.0510339 0)
(7.34955 0.0536511 0)
(7.34792 0.0566316 0)
(7.34618 0.0600461 0)
(7.34438 0.0639767 0)
(7.34259 0.0685194 0)
(7.3409 0.0737853 0)
(7.33944 0.0799026 0)
(7.3384 0.0870171 0)
(7.338 0.0952927 0)
(7.33856 0.10491 0)
(7.34048 0.116064 0)
(7.34425 0.128959 0)
(7.3505 0.143805 0)
(7.35992 0.16079 0)
(7.37345 0.18012 0)
(7.39189 0.201822 0)
(7.41697 0.226106 0)
(7.44855 0.251868 0)
(7.33398 0.00656107 0)
(7.33856 0.0132325 0)
(7.34282 0.0164193 0)
(7.34586 0.0193742 0)
(7.34846 0.0220996 0)
(7.35054 0.0245765 0)
(7.35198 0.0269909 0)
(7.35289 0.0293894 0)
(7.35333 0.0317875 0)
(7.35331 0.034216 0)
(7.35282 0.036709 0)
(7.35189 0.0393025 0)
(7.35052 0.0420371 0)
(7.34868 0.044958 0)
(7.34638 0.0481153 0)
(7.34362 0.0515655 0)
(7.34037 0.0553731 0)
(7.33664 0.0596107 0)
(7.33243 0.0643612 0)
(7.32775 0.0697177 0)
(7.32263 0.0757848 0)
(7.3171 0.0826774 0)
(7.31124 0.0905201 0)
(7.30516 0.0994437 0)
(7.299 0.109581 0)
(7.29297 0.121061 0)
(7.28735 0.133997 0)
(7.28251 0.148478 0)
(7.27891 0.164542 0)
(7.2772 0.182187 0)
(7.278 0.201217 0)
(7.28262 0.221493 0)
(7.29136 0.241836 0)
(7.33373 0.00556406 0)
(7.33756 0.0137457 0)
(7.34154 0.0194176 0)
(7.34441 0.0241138 0)
(7.3467 0.0279097 0)
(7.3485 0.0309718 0)
(7.34976 0.0336244 0)
(7.35056 0.036044 0)
(7.35097 0.0383322 0)
(7.35099 0.040584 0)
(7.35063 0.0428679 0)
(7.3499 0.0452407 0)
(7.34879 0.0477575 0)
(7.34731 0.0504731 0)
(7.34543 0.0534444 0)
(7.34316 0.0567311 0)
(7.34048 0.0603982 0)
(7.3374 0.064517 0)
(7.33391 0.0691662 0)
(7.33003 0.0744324 0)
(7.32578 0.0804105 0)
(7.32118 0.0872026 0)
(7.31631 0.0949169 0)
(7.31124 0.103663 0)
(7.30608 0.11355 0)
(7.30098 0.124674 0)
(7.29613 0.137112 0)
(7.29176 0.150909 0)
(7.28815 0.16605 0)
(7.28568 0.182464 0)
(7.28469 0.199889 0)
(7.28578 0.218049 0)
(7.28905 0.235951 0)
(7.33344 0.00470288 0)
(7.33604 0.0118351 0)
(7.33909 0.0164546 0)
(7.3415 0.0200472 0)
(7.34354 0.023078 0)
(7.34526 0.0257313 0)
(7.34656 0.0282333 0)
(7.34745 0.0306937 0)
(7.34798 0.0331631 0)
(7.34815 0.0356761 0)
(7.34796 0.038286 0)
(7.34742 0.0410413 0)
(7.34653 0.043984 0)
(7.34528 0.0471584 0)
(7.34368 0.0506129 0)
(7.34172 0.0544009 0)
(7.33941 0.0585822 0)
(7.33676 0.063223 0)
(7.33378 0.0683964 0)
(7.33049 0.0741828 0)
(7.32693 0.0806682 0)
(7.32315 0.0879436 0)
(7.31922 0.0961017 0)
(7.31523 0.105234 0)
(7.3113 0.115423 0)
(7.30758 0.12674 0)
(7.30426 0.139226 0)
(7.30155 0.152888 0)
(7.29968 0.16767 0)
(7.29895 0.183453 0)
(7.29959 0.199961 0)
(7.30195 0.216866 0)
(7.30597 0.233421 0)
(7.3333 0.00407402 0)
(7.33531 0.0109351 0)
(7.33799 0.0161366 0)
(7.34029 0.0205596 0)
(7.34224 0.024443 0)
(7.34386 0.0278395 0)
(7.34508 0.0309135 0)
(7.34591 0.0337941 0)
(7.34638 0.0365635 0)
(7.34652 0.0393197 0)
(7.34633 0.0421185 0)
(7.34582 0.0450064 0)
(7.34498 0.0480386 0)
(7.34383 0.0512724 0)
(7.34236 0.0547658 0)
(7.34059 0.0585791 0)
(7.33851 0.0627753 0)
(7.33614 0.0674214 0)
(7.3335 0.0725885 0)
(7.33063 0.0783514 0)
(7.32755 0.0847881 0)
(7.32433 0.091978 0)
(7.32104 0.0999994 0)
(7.31777 0.108926 0)
(7.31465 0.118819 0)
(7.31182 0.129725 0)
(7.30945 0.141659 0)
(7.30772 0.154603 0)
(7.30684 0.16848 0)
(7.30704 0.183152 0)
(7.30849 0.198368 0)
(7.3114 0.213817 0)
(7.31567 0.228959 0)
(7.3332 0.0036261 0)
(7.33469 0.0100315 0)
(7.33683 0.0150159 0)
(7.33877 0.0191181 0)
(7.34044 0.0226442 0)
(7.34188 0.0257384 0)
(7.34302 0.028589 0)
(7.34384 0.0313344 0)
(7.34436 0.0340592 0)
(7.34458 0.0368039 0)
(7.3445 0.039634 0)
(7.34413 0.0426157 0)
(7.34348 0.0457985 0)
(7.34253 0.0492294 0)
(7.34131 0.0529572 0)
(7.33982 0.0570332 0)
(7.33806 0.0615124 0)
(7.33606 0.0664534 0)
(7.33384 0.0719183 0)
(7.33144 0.0779723 0)
(7.3289 0.0846817 0)
(7.32627 0.0921125 0)
(7.32364 0.100327 0)
(7.32109 0.10938 0)
(7.31874 0.119314 0)
(7.31672 0.130153 0)
(7.31517 0.141891 0)
(7.31425 0.154488 0)
(7.31413 0.167856 0)
(7.31496 0.181851 0)
(7.31685 0.19625 0)
(7.31991 0.210781 0)
(7.32401 0.225055 0)
(7.33314 0.003284 0)
(7.33428 0.00931119 0)
(7.33608 0.014295 0)
(7.33783 0.018584 0)
(7.3394 0.0224274 0)
(7.34078 0.0259162 0)
(7.34189 0.0291666 0)
(7.34271 0.0322808 0)
(7.34325 0.0353289 0)
(7.34352 0.0383919 0)
(7.34352 0.0415251 0)
(7.34324 0.0447711 0)
(7.34271 0.0481794 0)
(7.34192 0.0518019 0)
(7.34089 0.0556917 0)
(7.33962 0.0599034 0)
(7.33813 0.0644935 0)
(7.33645 0.0695201 0)
(7.3346 0.0750427 0)
(7.33262 0.0811214 0)
(7.33057 0.0878158 0)
(7.32848 0.0951827 0)
(7.32646 0.103273 0)
(7.32457 0.112129 0)
(7.32292 0.121778 0)
(7.32163 0.13223 0)
(7.32082 0.143466 0)
(7.32062 0.155439 0)
(7.32115 0.168057 0)
(7.32252 0.18119 0)
(7.3248 0.19465 0)
(7.32802 0.208222 0)
(7.33205 0.221631 0)
(7.3331 0.00302342 0)
(7.33399 0.00871054 0)
(7.33546 0.013581 0)
(7.33698 0.0178063 0)
(7.33836 0.0215787 0)
(7.33959 0.0249955 0)
(7.34062 0.028176 0)
(7.34141 0.0312334 0)
(7.34196 0.0342508 0)
(7.34227 0.0372865 0)
(7.34235 0.040402 0)
(7.34219 0.0436576 0)
(7.34182 0.0471064 0)
(7.34123 0.0507985 0)
(7.34043 0.0547829 0)
(7.33944 0.0591089 0)
(7.33828 0.0638263 0)
(7.33697 0.0689862 0)
(7.33554 0.0746398 0)
(7.33402 0.0808379 0)
(7.33248 0.087629 0)
(7.33097 0.0950581 0)
(7.32956 0.103163 0)
(7.32833 0.111973 0)
(7.32737 0.121501 0)
(7.32678 0.131744 0)
(7.32667 0.142675 0)
(7.32714 0.15424 0)
(7.32828 0.166354 0)
(7.33017 0.1789 0)
(7.33283 0.191727 0)
(7.33626 0.204668 0)
(7.34035 0.217534 0)
(7.33307 0.00281822 0)
(7.33378 0.0082056 0)
(7.33501 0.0129678 0)
(7.33635 0.0171959 0)
(7.33762 0.0210491 0)
(7.33879 0.0246171 0)
(7.33979 0.0279929 0)
(7.34059 0.0312661 0)
(7.34119 0.0345054 0)
(7.34159 0.0377722 0)
(7.34177 0.0411229 0)
(7.34176 0.0446061 0)
(7.34155 0.048268 0)
(7.34115 0.0521545 0)
(7.34057 0.0563124 0)
(7.33984 0.0607884 0)
(7.33898 0.0656303 0)
(7.338 0.0708855 0)
(7.33695 0.0766007 0)
(7.33587 0.0828214 0)
(7.3348 0.0895896 0)
(7.3338 0.0969425 0)
(7.33295 0.10491 0)
(7.33231 0.113511 0)
(7.33196 0.122751 0)
(7.332 0.132621 0)
(7.33251 0.14309 0)
(7.33357 0.154106 0)
(7.33525 0.165593 0)
(7.3376 0.177455 0)
(7.34062 0.189574 0)
(7.3443 0.201831 0)
(7.34853 0.214096 0)
(7.33306 0.00265283 0)
(7.33362 0.00777876 0)
(7.33466 0.0124188 0)
(7.33584 0.0166037 0)
(7.33699 0.0204472 0)
(7.33806 0.0240244 0)
(7.33901 0.0274152 0)
(7.3398 0.0307031 0)
(7.34042 0.0339582 0)
(7.34087 0.0372406 0)
(7.34115 0.0406059 0)
(7.34125 0.0441065 0)
(7.3412 0.0477915 0)
(7.34099 0.0517078 0)
(7.34066 0.0559011 0)
(7.3402 0.0604161 0)
(7.33965 0.0652961 0)
(7.33903 0.0705835 0)
(7.33838 0.0763189 0)
(7.33774 0.0825402 0)
(7.33716 0.0892809 0)
(7.33668 0.0965693 0)
(7.33639 0.104426 0)
(7.33633 0.112861 0)
(7.33659 0.121873 0)
(7.33723 0.131446 0)
(7.33833 0.141548 0)
(7.33996 0.15213 0)
(7.34215 0.163125 0)
(7.34495 0.174455 0)
(7.34835 0.186029 0)
(7.35234 0.197763 0)
(7.35682 0.209569 0)
(7.33305 0.00251603 0)
(7.33351 0.00741205 0)
(7.33439 0.0119274 0)
(7.33544 0.0160654 0)
(7.3365 0.0199127 0)
(7.33752 0.0235383 0)
(7.33845 0.0270125 0)
(7.33926 0.0304078 0)
(7.33994 0.0337872 0)
(7.34048 0.0372056 0)
(7.34087 0.0407145 0)
(7.34113 0.0443612 0)
(7.34125 0.0481895 0)
(7.34126 0.0522412 0)
(7.34116 0.0565573 0)
(7.34098 0.0611774 0)
(7.34074 0.0661404 0)
(7.34046 0.0714834 0)
(7.34019 0.0772417 0)
(7.33997 0.083447 0)
(7.33983 0.0901269 0)
(7.33984 0.097303 0)
(7.34005 0.10499 0)
(7.34052 0.113192 0)
(7.34132 0.121904 0)
(7.34251 0.131108 0)
(7.34414 0.140772 0)
(7.34626 0.150855 0)
(7.34893 0.161299 0)
(7.35215 0.172044 0)
(7.35592 0.183022 0)
(7.36023 0.194176 0)
(7.365 0.205448 0)
(7.33304 0.00239992 0)
(7.33343 0.00709229 0)
(7.33419 0.0114828 0)
(7.33513 0.0155604 0)
(7.33611 0.0193871 0)
(7.33708 0.0230199 0)
(7.33799 0.0265177 0)
(7.33881 0.0299435 0)
(7.33953 0.0333556 0)
(7.34014 0.0368061 0)
(7.34064 0.0403444 0)
(7.34103 0.0440163 0)
(7.34132 0.0478649 0)
(7.34153 0.0519313 0)
(7.34166 0.0562549 0)
(7.34175 0.0608733 0)
(7.34181 0.065822 0)
(7.34188 0.0711342 0)
(7.34199 0.0768403 0)
(7.34218 0.0829666 0)
(7.34249 0.0895347 0)
(7.34297 0.0965603 0)
(7.34367 0.104052 0)
(7.34465 0.112009 0)
(7.34597 0.120424 0)
(7.34767 0.129275 0)
(7.34981 0.138534 0)
(7.35242 0.148162 0)
(7.35554 0.158113 0)
(7.35918 0.168338 0)
(7.36333 0.178785 0)
(7.368 0.189418 0)
(7.37312 0.200193 0)
(7.33303 0.00229879 0)
(7.33337 0.00680821 0)
(7.33404 0.0110751 0)
(7.33489 0.0150841 0)
(7.33581 0.018881 0)
(7.33674 0.0225156 0)
(7.33765 0.0260401 0)
(7.33851 0.0295109 0)
(7.33929 0.032981 0)
(7.33999 0.036499 0)
(7.34061 0.0401099 0)
(7.34116 0.0438562 0)
(7.34163 0.0477772 0)
(7.34205 0.0519097 0)
(7.34243 0.0562888 0)
(7.34279 0.0609473 0)
(7.34316 0.0659158 0)
(7.34356 0.0712224 0)
(7.34404 0.0768921 0)
(7.34462 0.0829458 0)
(7.34534 0.0893998 0)
(7.34626 0.0962648 0)
(7.34742 0.103545 0)
(7.34887 0.111237 0)
(7.35066 0.119329 0)
(7.35283 0.127802 0)
(7.35542 0.136629 0)
(7.35847 0.145777 0)
(7.362 0.155207 0)
(7.36603 0.164881 0)
(7.37056 0.174761 0)
(7.37558 0.184821 0)
(7.38105 0.195028 0)
(7.33303 0.00220841 0)
(7.33333 0.00655064 0)
(7.33393 0.0106953 0)
(7.33472 0.0146278 0)
(7.33559 0.018382 0)
(7.3365 0.0219998 0)
(7.33741 0.0255262 0)
(7.33829 0.0290098 0)
(7.33914 0.0324981 0)
(7.33993 0.0360354 0)
(7.34066 0.0396635 0)
(7.34135 0.0434215 0)
(7.342 0.0473463 0)
(7.34263 0.0514722 0)
(7.34324 0.0558316 0)
(7.34387 0.0604544 0)
(7.34453 0.065368 0)
(7.34525 0.0705969 0)
(7.34607 0.076162 0)
(7.34703 0.0820801 0)
(7.34815 0.0883635 0)
(7.34949 0.0950186 0)
(7.35108 0.102046 0)
(7.35297 0.10944 0)
(7.3552 0.117188 0)
(7.35781 0.125271 0)
(7.36083 0.133663 0)
(7.36429 0.142336 0)
(7.36822 0.151257 0)
(7.37263 0.160394 0)
(7.37752 0.169717 0)
(7.3829 0.179207 0)
(7.38873 0.188835 0)
(7.33303 0.00212552 0)
(7.33329 0.00631194 0)
(7.33385 0.0103352 0)
(7.33459 0.0141841 0)
(7.33542 0.0178848 0)
(7.33633 0.0214732 0)
(7.33725 0.0249891 0)
(7.33818 0.0284758 0)
(7.33909 0.0319763 0)
(7.33998 0.0355313 0)
(7.34084 0.039179 0)
(7.34169 0.0429553 0)
(7.34252 0.0468935 0)
(7.34335 0.0510247 0)
(7.34421 0.0553771 0)
(7.34509 0.0599769 0)
(7.34605 0.0648472 0)
(7.34708 0.0700078 0)
(7.34824 0.0754754 0)
(7.34956 0.0812623 0)
(7.35106 0.0873766 0)
(7.35278 0.093821 0)
(7.35477 0.100593 0)
(7.35707 0.107685 0)
(7.3597 0.115084 0)
(7.36271 0.122769 0)
(7.36612 0.13072 0)
(7.36995 0.138909 0)
(7.37424 0.147308 0)
(7.37899 0.155891 0)
(7.38421 0.164631 0)
(7.38992 0.173513 0)
(7.39608 0.182511 0)
(7.33302 0.00204759 0)
(7.33327 0.00608569 0)
(7.33379 0.00998736 0)
(7.3345 0.0137456 0)
(7.33532 0.0173817 0)
(7.33622 0.0209265 0)
(7.33717 0.0244148 0)
(7.33814 0.0278847 0)
(7.33913 0.0313743 0)
(7.34012 0.0349199 0)
(7.3411 0.038556 0)
(7.3421 0.0423149 0)
(7.34311 0.0462268 0)
(7.34414 0.0503194 0)
(7.34522 0.0546178 0)
(7.34636 0.0591449 0)
(7.34759 0.0639205 0)
(7.34892 0.0689611 0)
(7.3504 0.0742798 0)
(7.35205 0.0798858 0)
(7.3539 0.0857839 0)
(7.35599 0.0919744 0)
(7.35835 0.0984526 0)
(7.36102 0.105209 0)
(7.36402 0.11223 0)
(7.36739 0.119497 0)
(7.37116 0.126989 0)
(7.37534 0.134681 0)
(7.37996 0.142549 0)
(7.38502 0.150568 0)
(7.39055 0.158715 0)
(7.39656 0.166973 0)
(7.40301 0.175318 0)
(7.33302 0.00197253 0)
(7.33326 0.00586644 0)
(7.33375 0.00964492 0)
(7.33444 0.0133054 0)
(7.33525 0.0168662 0)
(7.33616 0.0203541 0)
(7.33715 0.0238003 0)
(7.33818 0.0272382 0)
(7.33924 0.030702 0)
(7.34033 0.0342244 0)
(7.34145 0.0378365 0)
(7.3426 0.0415674 0)
(7.34378 0.0454439 0)
(7.34502 0.0494904 0)
(7.34632 0.0537289 0)
(7.34771 0.0581786 0)
(7.3492 0.0628558 0)
(7.35083 0.0677733 0)
(7.35261 0.0729407 0)
(7.35457 0.0783638 0)
(7.35675 0.0840443 0)
(7.35917 0.0899799 0)
(7.36187 0.0961638 0)
(7.36488 0.102585 0)
(7.36822 0.10923 0)
(7.37192 0.116079 0)
(7.376 0.123112 0)
(7.38048 0.130307 0)
(7.38539 0.13764 0)
(7.39073 0.145088 0)
(7.39652 0.152629 0)
(7.40277 0.160245 0)
(7.40948 0.167911 0)
(7.33302 0.0018986 0)
(7.33325 0.00564948 0)
(7.33373 0.00930172 0)
(7.33441 0.0128569 0)
(7.33523 0.0163314 0)
(7.33616 0.019749 0)
(7.33718 0.0231373 0)
(7.33827 0.0265258 0)
(7.33942 0.0299446 0)
(7.34061 0.0334227 0)
(7.34186 0.0369874 0)
(7.34316 0.0406644 0)
(7.34452 0.0444771 0)
(7.34595 0.0484469 0)
(7.34747 0.0525923 0)
(7.34909 0.0569294 0)
(7.35083 0.0614714 0)
(7.35272 0.0662281 0)
(7.35479 0.0712064 0)
(7.35704 0.0764093 0)
(7.35952 0.0818362 0)
(7.36225 0.0874827 0)
(7.36526 0.0933409 0)
(7.36857 0.099399 0)
(7.37221 0.105642 0)
(7.3762 0.112052 0)
(7.38056 0.118609 0)
(7.38531 0.12529 0)
(7.39046 0.132075 0)
(7.39604 0.138939 0)
(7.40205 0.145862 0)
(7.40851 0.152822 0)
(7.4154 0.159794 0)
(7.33302 0.00182433 0)
(7.33325 0.0054307 0)
(7.33373 0.00895209 0)
(7.3344 0.0123937 0)
(7.33523 0.0157709 0)
(7.33619 0.0191051 0)
(7.33726 0.0224208 0)
(7.33842 0.0257445 0)
(7.33965 0.0291024 0)
(7.34095 0.0325203 0)
(7.34233 0.0360223 0)
(7.34378 0.0396308 0)
(7.34531 0.0433662 0)
(7.34693 0.0472466 0)
(7.34865 0.0512877 0)
(7.35049 0.0555024 0)
(7.35248 0.0599009 0)
(7.35462 0.0644901 0)
(7.35694 0.069274 0)
(7.35947 0.0742531 0)
(7.36223 0.0794244 0)
(7.36524 0.0847819 0)
(7.36852 0.0903158 0)
(7.3721 0.0960135 0)
(7.376 0.101859 0)
(7.38024 0.107835 0)
(7.38484 0.113921 0)
(7.38982 0.120096 0)
(7.39518 0.126338 0)
(7.40094 0.132623 0)
(7.40711 0.13893 0)
(7.41372 0.145236 0)
(7.42074 0.151513 0)
(7.33302 0.00174841 0)
(7.33325 0.0052064 0)
(7.33373 0.00859075 0)
(7.33442 0.0119096 0)
(7.33527 0.0151778 0)
(7.33626 0.0184146 0)
(7.33738 0.0216421 0)
(7.33861 0.0248832 0)
(7.33993 0.028161 0)
(7.34135 0.0314977 0)
(7.34285 0.0349143 0)
(7.34444 0.0384299 0)
(7.34614 0.0420619 0)
(7.34794 0.0458254 0)
(7.34986 0.0497331 0)
(7.35192 0.0537953 0)
(7.35412 0.0580193 0)
(7.3565 0.0624097 0)
(7.35907 0.0669681 0)
(7.36184 0.071693 0)
(7.36485 0.0765798 0)
(7.3681 0.0816209 0)
(7.37163 0.0868056 0)
(7.37545 0.0921205 0)
(7.37958 0.0975496 0)
(7.38403 0.103075 0)
(7.38883 0.108677 0)
(7.39398 0.114334 0)
(7.3995 0.120025 0)
(7.40541 0.125725 0)
(7.41169 0.131413 0)
(7.41839 0.137064 0)
(7.42547 0.142651 0)
(7.33302 0.00166967 0)
(7.33325 0.00497332 0)
(7.33374 0.00821301 0)
(7.33444 0.0113995 0)
(7.33532 0.0145473 0)
(7.33636 0.0176742 0)
(7.33754 0.0208 0)
(7.33884 0.023945 0)
(7.34025 0.0271294 0)
(7.34177 0.0303724 0)
(7.3434 0.0336917 0)
(7.34514 0.0371037 0)
(7.34699 0.0406227 0)
(7.34896 0.0442609 0)
(7.35107 0.0480284 0)
(7.35332 0.0519325 0)
(7.35573 0.0559782 0)
(7.35832 0.0601676 0)
(7.36111 0.0645 0)
(7.3641 0.0689719 0)
(7.36733 0.0735772 0)
(7.3708 0.0783067 0)
(7.37454 0.0831487 0)
(7.37857 0.088089 0)
(7.38289 0.0931115 0)
(7.38752 0.0981979 0)
(7.39247 0.103329 0)
(7.39776 0.108482 0)
(7.4034 0.113637 0)
(7.40939 0.118769 0)
(7.41574 0.123855 0)
(7.42247 0.128871 0)
(7.42956 0.133789 0)
(7.33302 0.00158705 0)
(7.33326 0.00472828 0)
(7.33376 0.00781393 0)
(7.33449 0.0108567 0)
(7.3354 0.0138705 0)
(7.33649 0.0168717 0)
(7.33772 0.0198777 0)
(7.3391 0.0229062 0)
(7.34061 0.0259743 0)
(7.34224 0.0290984 0)
(7.34399 0.0322934 0)
(7.34587 0.0355728 0)
(7.34787 0.0389484 0)
(7.35001 0.0424299 0)
(7.3523 0.0460248 0)
(7.35473 0.0497384 0)
(7.35734 0.0535734 0)
(7.36013 0.0575301 0)
(7.36311 0.0616062 0)
(7.36631 0.0657967 0)
(7.36973 0.070094 0)
(7.37339 0.0744881 0)
(7.37731 0.0789667 0)
(7.3815 0.0835155 0)
(7.38598 0.0881179 0)
(7.39074 0.0927557 0)
(7.39581 0.0974093 0)
(7.4012 0.102057 0)
(7.4069 0.106678 0)
(7.41294 0.111249 0)
(7.4193 0.115745 0)
(7.42601 0.120141 0)
(7.43304 0.124413 0)
(7.33302 0.00149956 0)
(7.33327 0.00446864 0)
(7.33379 0.00739013 0)
(7.33454 0.0102786 0)
(7.33549 0.013148 0)
(7.33663 0.0160137 0)
(7.33793 0.0188913 0)
(7.33938 0.0217963 0)
(7.34098 0.0247433 0)
(7.34272 0.0277455 0)
(7.34459 0.0308152 0)
(7.34659 0.033963 0)
(7.34874 0.0371977 0)
(7.35103 0.0405265 0)
(7.35347 0.0439543 0)
(7.35607 0.0474841 0)
(7.35885 0.0511163 0)
(7.36181 0.0548493 0)
(7.36497 0.058679 0)
(7.36834 0.0625989 0)
(7.37193 0.0666003 0)
(7.37576 0.0706723 0)
(7.37983 0.0748021 0)
(7.38415 0.0789749 0)
(7.38875 0.0831742 0)
(7.39361 0.0873817 0)
(7.39876 0.091578 0)
(7.4042 0.0957423 0)
(7.40994 0.099853 0)
(7.41597 0.103887 0)
(7.4223 0.107822 0)
(7.42894 0.111632 0)
(7.43586 0.115294 0)
(7.33302 0.00140618 0)
(7.33328 0.00419102 0)
(7.33382 0.00693511 0)
(7.33461 0.00965388 0)
(7.33561 0.0123605 0)
(7.3368 0.0150685 0)
(7.33817 0.0177916 0)
(7.33971 0.0205429 0)
(7.34141 0.0233345 0)
(7.34325 0.0261776 0)
(7.34524 0.0290821 0)
(7.34738 0.0320565 0)
(7.34966 0.0351077 0)
(7.3521 0.0382409 0)
(7.35469 0.0414592 0)
(7.35745 0.044764 0)
(7.36039 0.0481544 0)
(7.36351 0.051627 0)
(7.36682 0.0551769 0)
(7.37034 0.0587965 0)
(7.37407 0.0624765 0)
(7.37803 0.0662056 0)
(7.38222 0.0699706 0)
(7.38665 0.0737565 0)
(7.39132 0.0775467 0)
(7.39625 0.0813232 0)
(7.40144 0.0850669 0)
(7.4069 0.0887576 0)
(7.41261 0.0923739 0)
(7.4186 0.0958939 0)
(7.42484 0.0992949 0)
(7.43136 0.102553 0)
(7.43813 0.105646 0)
(7.33303 0.00130609 0)
(7.33329 0.00389409 0)
(7.33386 0.00645004 0)
(7.33468 0.00899138 0)
(7.33572 0.0115315 0)
(7.33697 0.0140831 0)
(7.33841 0.016658 0)
(7.34002 0.0192667 0)
(7.3418 0.0219184 0)
(7.34374 0.0246213 0)
(7.34584 0.0273822 0)
(7.34809 0.0302067 0)
(7.35049 0.0330991 0)
(7.35306 0.0360618 0)
(7.35579 0.0390958 0)
(7.35868 0.0422004 0)
(7.36176 0.0453729 0)
(7.36501 0.0486085 0)
(7.36846 0.051901 0)
(7.37211 0.055242 0)
(7.37596 0.0586218 0)
(7.38002 0.0620286 0)
(7.3843 0.065449 0)
(7.38881 0.0688682 0)
(7.39354 0.0722701 0)
(7.39851 0.0756372 0)
(7.40371 0.0789512 0)
(7.40914 0.0821926 0)
(7.41481 0.0853413 0)
(7.42071 0.0883764 0)
(7.42685 0.0912766 0)
(7.43321 0.0940189 0)
(7.43978 0.096585 0)
(7.33303 0.00119786 0)
(7.33331 0.00357125 0)
(7.3339 0.00591791 0)
(7.33477 0.00825498 0)
(7.33587 0.0105944 0)
(7.33719 0.0129472 0)
(7.33871 0.0153238 0)
(7.34042 0.0177335 0)
(7.3423 0.020184 0)
(7.34434 0.0226822 0)
(7.34655 0.0252335 0)
(7.34892 0.0278424 0)
(7.35145 0.0305115 0)
(7.35414 0.0332422 0)
(7.357 0.0360343 0)
(7.36002 0.0388856 0)
(7.36321 0.0417926 0)
(7.36659 0.04475 0)
(7.37015 0.0477505 0)
(7.3739 0.0507853 0)
(7.37784 0.0538441 0)
(7.38198 0.0569148 0)
(7.38632 0.059984 0)
(7.39086 0.063037 0)
(7.39562 0.066058 0)
(7.40058 0.06903 0)
(7.40575 0.0719351 0)
(7.41113 0.0747547 0)
(7.41671 0.0774695 0)
(7.42249 0.0800598 0)
(7.42847 0.0825055 0)
(7.43465 0.084785 0)
(7.44099 0.0868822 0)
(7.33303 0.00108134 0)
(7.33332 0.00322804 0)
(7.33394 0.00536273 0)
(7.33485 0.00750556 0)
(7.33599 0.00966775 0)
(7.33736 0.0118576 0)
(7.33895 0.0140818 0)
(7.34072 0.0163455 0)
(7.34268 0.0186524 0)
(7.34481 0.0210056 0)
(7.34711 0.0234071 0)
(7.34958 0.0258583 0)
(7.35222 0.0283593 0)
(7.35501 0.0309093 0)
(7.35798 0.0335061 0)
(7.36111 0.0361464 0)
(7.36442 0.0388256 0)
(7.3679 0.0415375 0)
(7.37155 0.0442745 0)
(7.37539 0.0470276 0)
(7.37941 0.0497863 0)
(7.38361 0.0525392 0)
(7.388 0.0552733 0)
(7.39257 0.0579749 0)
(7.39733 0.060629 0)
(7.40227 0.0632198 0)
(7.4074 0.0657309 0)
(7.4127 0.0681451 0)
(7.41818 0.070445 0)
(7.42382 0.0726125 0)
(7.42963 0.0746297 0)
(7.43559 0.076477 0)
(7.44169 0.0781414 0)
(7.33303 0.000952476 0)
(7.33335 0.00283898 0)
(7.33403 0.0047133 0)
(7.335 0.00659532 0)
(7.33623 0.00849628 0)
(7.33769 0.0104254 0)
(7.33936 0.0123901 0)
(7.34124 0.0143958 0)
(7.34329 0.0164462 0)
(7.34553 0.0185439 0)
(7.34793 0.0206903 0)
(7.3505 0.0228858 0)
(7.35324 0.0251295 0)
(7.35614 0.0274196 0)
(7.3592 0.0297531 0)
(7.36242 0.0321254 0)
(7.36581 0.0345311 0)
(7.36937 0.036963 0)
(7.37309 0.039413 0)
(7.37698 0.0418715 0)
(7.38104 0.0443278 0)
(7.38527 0.0467703 0)
(7.38966 0.0491862 0)
(7.39422 0.0515616 0)
(7.39895 0.0538823 0)
(7.40384 0.0561329 0)
(7.40888 0.0582978 0)
(7.41408 0.0603608 0)
(7.41942 0.0623054 0)
(7.4249 0.0641148 0)
(7.4305 0.0657727 0)
(7.43623 0.0672612 0)
(7.44206 0.0685689 0)
(7.33303 0.000816323 0)
(7.33335 0.00245071 0)
(7.33405 0.00410872 0)
(7.33505 0.0058094 0)
(7.33631 0.00755485 0)
(7.33782 0.0093446 0)
(7.33955 0.0111786 0)
(7.34149 0.0130556 0)
(7.34362 0.014974 0)
(7.34594 0.0169323 0)
(7.34843 0.0189287 0)
(7.3511 0.0209611 0)
(7.35393 0.0230274 0)
(7.35692 0.0251244 0)
(7.36008 0.0272484 0)
(7.36339 0.0293948 0)
(7.36687 0.0315577 0)
(7.37051 0.0337305 0)
(7.3743 0.0359056 0)
(7.37825 0.0380741 0)
(7.38236 0.0402264 0)
(7.38662 0.042352 0)
(7.39102 0.0444393 0)
(7.39558 0.0464762 0)
(7.40028 0.0484501 0)
(7.40511 0.0503475 0)
(7.41007 0.0521546 0)
(7.41516 0.0538574 0)
(7.42036 0.0554417 0)
(7.42567 0.056893 0)
(7.43107 0.0581973 0)
(7.43656 0.0593393 0)
(7.44212 0.0603104 0)
(7.33304 0.000651075 0)
(7.33343 0.00193092 0)
(7.33423 0.00321935 0)
(7.33535 0.00454766 0)
(7.33673 0.00592737 0)
(7.33835 0.00736351 0)
(7.34018 0.00885799 0)
(7.34222 0.0104093 0)
(7.34445 0.0120162 0)
(7.34685 0.0136766 0)
(7.34942 0.0153867 0)
(7.35216 0.0171425 0)
(7.35506 0.0189395 0)
(7.35811 0.0207729 0)
(7.36133 0.0226373 0)
(7.36469 0.0245266 0)
(7.36821 0.0264337 0)
(7.37188 0.0283511 0)
(7.3757 0.03027 0)
(7.37966 0.0321812 0)
(7.38376 0.0340745 0)
(7.388 0.0359391 0)
(7.39238 0.0377636 0)
(7.39688 0.039536 0)
(7.40151 0.0412438 0)
(7.40625 0.0428743 0)
(7.4111 0.0444143 0)
(7.41605 0.0458506 0)
(7.42109 0.0471702 0)
(7.42622 0.0483597 0)
(7.43141 0.0494066 0)
(7.43666 0.050297 0)
(7.44195 0.0510239 0)
(7.33303 0.000506293 0)
(7.33338 0.00156513 0)
(7.33417 0.00271314 0)
(7.33531 0.00394731 0)
(7.33673 0.00524635 0)
(7.33841 0.00660076 0)
(7.34032 0.00800648 0)
(7.34243 0.00945357 0)
(7.34475 0.0109359 0)
(7.34724 0.0124499 0)
(7.34991 0.0139921 0)
(7.35275 0.015559 0)
(7.35575 0.0171469 0)
(7.3589 0.0187517 0)
(7.36221 0.0203693 0)
(7.36566 0.0219948 0)
(7.36926 0.0236227 0)
(7.373 0.0252469 0)
(7.37688 0.0268605 0)
(7.38089 0.028456 0)
(7.38502 0.0300252 0)
(7.38928 0.0315593 0)
(7.39365 0.0330491 0)
(7.39812 0.0344848 0)
(7.4027 0.0358564 0)
(7.40737 0.0371535 0)
(7.41212 0.0383655 0)
(7.41694 0.0394817 0)
(7.42183 0.0404915 0)
(7.42676 0.0413842 0)
(7.43174 0.0421498 0)
(7.43675 0.0427771 0)
(7.44176 0.0432609 0)
(7.33307 0.000218729 0)
(7.33361 0.000651698 0)
(7.33462 0.00117259 0)
(7.33593 0.00183919 0)
(7.33748 0.00263659 0)
(7.33926 0.00354239 0)
(7.34125 0.00454343 0)
(7.34343 0.00562711 0)
(7.34579 0.00678737 0)
(7.34833 0.00801162 0)
(7.35103 0.00928781 0)
(7.3539 0.0106075 0)
(7.35691 0.0119638 0)
(7.36008 0.0133491 0)
(7.3634 0.0147565 0)
(7.36686 0.0161791 0)
(7.37046 0.0176096 0)
(7.37419 0.0190406 0)
(7.37805 0.0204639 0)
(7.38203 0.0218712 0)
(7.38613 0.0232538 0)
(7.39034 0.0246024 0)
(7.39465 0.0259075 0)
(7.39906 0.0271595 0)
(7.40355 0.0283483 0)
(7.40812 0.0294639 0)
(7.41275 0.0304964 0)
(7.41745 0.0314355 0)
(7.42218 0.0322715 0)
(7.42696 0.0329948 0)
(7.43175 0.0335965 0)
(7.43655 0.0340667 0)
(7.44134 0.0344012 0)
(7.33303 0.000152662 0)
(7.33347 0.000617702 0)
(7.33449 0.00127736 0)
(7.33591 0.0020234 0)
(7.33759 0.00283065 0)
(7.3395 0.00370502 0)
(7.34163 0.00463917 0)
(7.34395 0.00558494 0)
(7.34647 0.0065583 0)
(7.34914 0.00756226 0)
(7.35198 0.00858965 0)
(7.35497 0.00963502 0)
(7.35811 0.0106944 0)
(7.36139 0.0117633 0)
(7.36481 0.0128387 0)
(7.36837 0.0139165 0)
(7.37205 0.014992 0)
(7.37585 0.0160603 0)
(7.37977 0.017116 0)
(7.38379 0.0181535 0)
(7.38791 0.0191669 0)
(7.39213 0.0201497 0)
(7.39642 0.0210952 0)
(7.40079 0.0219968 0)
(7.40522 0.0228472 0)
(7.40971 0.0236393 0)
(7.41423 0.024366 0)
(7.41879 0.0250199 0)
(7.42337 0.025594 0)
(7.42795 0.0260813 0)
(7.43252 0.0264751 0)
(7.43708 0.0267681 0)
(7.44161 0.0269572 0)
(7.33314 -0.000493544 0)
(7.33403 -0.0013284 0)
(7.33533 -0.00171987 0)
(7.33681 -0.0017889 0)
(7.33853 -0.00161971 0)
(7.34047 -0.00123623 0)
(7.34258 -0.000696449 0)
(7.34485 -1.09978e-05 0)
(7.34733 0.000762815 0)
(7.34998 0.00159555 0)
(7.35279 0.0024756 0)
(7.35574 0.00339278 0)
(7.35885 0.00434034 0)
(7.3621 0.00530502 0)
(7.36549 0.00628164 0)
(7.36901 0.00726532 0)
(7.37265 0.00824986 0)
(7.37641 0.00922884 0)
(7.38029 0.0101959 0)
(7.38427 0.0111444 0)
(7.38834 0.0120677 0)
(7.3925 0.012959 0)
(7.39674 0.0138111 0)
(7.40105 0.014617 0)
(7.40542 0.0153696 0)
(7.40983 0.0160617 0)
(7.41428 0.0166864 0)
(7.41875 0.017237 0)
(7.42324 0.0177069 0)
(7.42772 0.0180899 0)
(7.43219 0.0183802 0)
(7.43664 0.0185716 0)
(7.44104 0.0186627 0)
(7.33309 -0.000189025 0)
(7.33405 -0.000311512 0)
(7.33578 -0.000220351 0)
(7.33775 -5.01643e-05 0)
(7.33991 0.000197018 0)
(7.34224 0.00050386 0)
(7.34474 0.000836695 0)
(7.34738 0.00122678 0)
(7.35012 0.00164487 0)
(7.353 0.00207924 0)
(7.35601 0.00253078 0)
(7.35915 0.00299835 0)
(7.36243 0.003477 0)
(7.36582 0.00397052 0)
(7.36934 0.00447419 0)
(7.37298 0.0049832 0)
(7.37673 0.00549456 0)
(7.38059 0.00600534 0)
(7.38454 0.00651225 0)
(7.38857 0.00701184 0)
(7.39268 0.00750061 0)
(7.39685 0.00797496 0)
(7.40108 0.00843122 0)
(7.40535 0.00886562 0)
(7.40966 0.00927435 0)
(7.41399 0.00965357 0)
(7.41833 0.00999944 0)
(7.42266 0.0103081 0)
(7.42698 0.010576 0)
(7.43127 0.0107993 0)
(7.43552 0.010975 0)
(7.43973 0.0110985 0)
(7.44386 0.011169 0)
(7.33436 -0.00334417 0)
(7.33911 -0.00607722 0)
(7.34483 -0.00697495 0)
(7.35104 -0.00739225 0)
(7.35762 -0.00742245 0)
(7.36435 -0.00717755 0)
(7.37107 -0.00679021 0)
(7.37775 -0.0063513 0)
(7.38434 -0.00586529 0)
(7.39081 -0.00534313 0)
(7.39716 -0.00479958 0)
(7.40337 -0.00424343 0)
(7.40944 -0.00368296 0)
(7.41536 -0.00311583 0)
(7.42112 -0.00254738 0)
(7.42673 -0.00198257 0)
(7.43218 -0.00142455 0)
(7.43748 -0.000876445 0)
(7.44264 -0.000341837 0)
(7.44765 0.000175459 0)
(7.45252 0.000671428 0)
(7.45727 0.00114191 0)
(7.46189 0.00158261 0)
(7.4664 0.00198923 0)
(7.47081 0.00235749 0)
(7.47513 0.00268319 0)
(7.47937 0.00296224 0)
(7.48354 0.00319078 0)
(7.48766 0.00336505 0)
(7.49173 0.00348159 0)
(7.49575 0.00353703 0)
(7.49976 0.00352883 0)
(7.50373 0.00345639 0)
(7.32981 -0.00381248 0)
(7.32483 -0.00783336 0)
(7.3167 -0.0100122 0)
(7.30717 -0.0115014 0)
(7.29763 -0.0124306 0)
(7.28821 -0.0129267 0)
(7.27901 -0.0131422 0)
(7.27021 -0.0131614 0)
(7.26189 -0.0130293 0)
(7.25407 -0.012785 0)
(7.24679 -0.0124572 0)
(7.24006 -0.0120638 0)
(7.23388 -0.0116157 0)
(7.22824 -0.0111281 0)
(7.22315 -0.0106089 0)
(7.21858 -0.0100642 0)
(7.21453 -0.00950078 0)
(7.21096 -0.00892581 0)
(7.20787 -0.00834643 0)
(7.20523 -0.00776997 0)
(7.203 -0.00720397 0)
(7.20116 -0.00665614 0)
(7.19967 -0.00613426 0)
(7.1985 -0.00564608 0)
(7.19761 -0.00519923 0)
(7.19697 -0.00480109 0)
(7.19653 -0.00445873 0)
(7.19626 -0.00417877 0)
(7.19611 -0.00396746 0)
(7.19603 -0.00383041 0)
(7.19601 -0.00377297 0)
(7.19598 -0.00379818 0)
(7.19592 -0.00390709 0)
(2.2718 0.0580505 0)
(2.1091 0.0433502 0)
(1.97725 0.0995659 0)
(1.84535 0.155152 0)
(1.65513 0.116559 0)
(1.27192 -0.00891573 0)
(0.483358 -0.119945 0)
(-0.228645 -0.225366 0)
(-0.446082 -0.275988 0)
(-0.202203 -0.204786 0)
(0.588776 0.213356 0)
(1.76161 0.934619 0)
(2.93144 1.65747 0)
(3.94201 2.22046 0)
(4.81093 2.58282 0)
(5.57751 2.7312 0)
(6.26233 2.66229 0)
(6.87128 2.38247 0)
(7.39937 1.90428 0)
(7.82892 1.24739 0)
(8.12995 0.450338 0)
(8.27281 -0.426209 0)
(8.25288 -1.31034 0)
(8.06422 -2.10945 0)