/*--------------------------------*- C++ -*----------------------------------*\
  =========                 |
  \\      /  F ield         | OpenFOAM: The Open Source CFD Toolbox
   \\    /   O peration     | Website:  https://openfoam.org
    \\  /    A nd           | Version:  10
     \\/     M anipulation  |
\*---------------------------------------------------------------------------*/
FoamFile
{
    format      ascii;
    class       volScalarField;
    location    "0.13";
    object      nut;
}
// * * * * * * * * * * * * * * * * * * * * * * * * * * * * * * * * * * * * * //

dimensions      [0 2 -1 0 0 0 0];

internalField   nonuniform List<scalar> 
6820
(
0.000503208
0.000397087
0.000324544
0.000269425
0.000236582
0.000214221
0.000197629
0.000184938
0.000174688
0.000166083
0.000158676
0.000152174
0.000146383
0.000141164
0.000136417
0.000132067
0.000128058
0.000124345
0.000120892
0.000117673
0.000114666
0.00011185
0.00010922
0.000106763
0.00010447
0.000102338
0.000100365
9.85622e-05
9.69173e-05
9.55129e-05
9.42125e-05
9.3378e-05
9.16758e-05
8.18469e-05
0.000143713
0.000196401
0.000210822
0.000206408
0.000197563
0.00018732
0.000177435
0.000168497
0.000160491
0.000153313
0.000146847
0.000140984
0.000135634
0.000130726
0.0001262
0.000122005
0.000118101
0.000114453
0.000111031
0.000107811
0.000104771
0.000101887
9.91516e-05
9.65475e-05
9.40641e-05
9.16929e-05
8.94186e-05
8.72417e-05
8.51083e-05
8.30825e-05
8.08823e-05
7.90259e-05
3.85917e-05
2.74005e-05
4.30249e-05
7.44207e-05
9.58127e-05
0.000109164
0.000116406
0.000119703
0.000120632
0.000120096
0.000118652
0.000116652
0.000114315
0.000111785
0.000109155
0.000106486
0.000103818
0.000101176
9.85798e-05
9.60382e-05
9.35576e-05
9.11422e-05
8.87906e-05
8.65019e-05
8.42739e-05
8.21003e-05
7.99748e-05
7.78903e-05
7.58363e-05
7.379e-05
7.17286e-05
6.95535e-05
6.73147e-05
1.99676e-05
2.35351e-05
2.20839e-05
1.28172e-05
2.92868e-06
1.23517e-05
2.28449e-05
3.14726e-05
3.84178e-05
4.39327e-05
4.8258e-05
5.16072e-05
5.41541e-05
5.60359e-05
5.73718e-05
5.82592e-05
5.87777e-05
5.89926e-05
5.89573e-05
5.87154e-05
5.83025e-05
5.77475e-05
5.70739e-05
5.62998e-05
5.54395e-05
5.45036e-05
5.34973e-05
5.24165e-05
5.12562e-05
5.00067e-05
4.8653e-05
4.71845e-05
4.55949e-05
1.32433e-05
1.50924e-05
1.99409e-05
2.20336e-05
2.1483e-05
1.9545e-05
1.69284e-05
1.40002e-05
1.09763e-05
7.98538e-06
5.11148e-06
2.42876e-06
6.29977e-07
2.56014e-06
4.61471e-06
6.47071e-06
8.1199e-06
9.56915e-06
1.08292e-05
1.19122e-05
1.28302e-05
1.35951e-05
1.42175e-05
1.47068e-05
1.50715e-05
1.53173e-05
1.54507e-05
1.54768e-05
1.53941e-05
1.51981e-05
1.48851e-05
1.44648e-05
1.39466e-05
1.01884e-05
1.10339e-05
1.18637e-05
1.26624e-05
1.32941e-05
1.38332e-05
1.42258e-05
1.4438e-05
1.44821e-05
1.43804e-05
1.41549e-05
1.38287e-05
1.34241e-05
1.29558e-05
1.24431e-05
1.19021e-05
1.13467e-05
1.07888e-05
1.02381e-05
9.70258e-06
9.18876e-06
8.70181e-06
8.24619e-06
7.82564e-06
7.44325e-06
7.10192e-06
6.80319e-06
6.54691e-06
6.33434e-06
6.16847e-06
6.04554e-06
5.95213e-06
5.88269e-06
7.53109e-06
8.26605e-06
8.69891e-06
8.93627e-06
8.83405e-06
8.63114e-06
8.47127e-06
8.3856e-06
8.36742e-06
8.39206e-06
8.43248e-06
8.47002e-06
8.49499e-06
8.50556e-06
8.4989e-06
8.47391e-06
8.43111e-06
8.37183e-06
8.29781e-06
8.21107e-06
8.11375e-06
8.00802e-06
7.89615e-06
7.78028e-06
7.66259e-06
7.54514e-06
7.43027e-06
7.32297e-06
7.22521e-06
7.1359e-06
7.05134e-06
6.95955e-06
6.86127e-06
5.74652e-06
6.62772e-06
7.03537e-06
7.15095e-06
6.90143e-06
6.54272e-06
6.21637e-06
5.94699e-06
5.73293e-06
5.56488e-06
5.43065e-06
5.32059e-06
5.22761e-06
5.14642e-06
5.07361e-06
5.00692e-06
4.94457e-06
4.88515e-06
4.8277e-06
4.77159e-06
4.71654e-06
4.66252e-06
4.60974e-06
4.55863e-06
4.50967e-06
4.46379e-06
4.422e-06
4.38438e-06
4.34972e-06
4.31589e-06
4.27958e-06
4.23e-06
4.16846e-06
4.47029e-06
5.2646e-06
5.57468e-06
5.73324e-06
5.6544e-06
5.44946e-06
5.2097e-06
4.96975e-06
4.74902e-06
4.55546e-06
4.38741e-06
4.24058e-06
4.11104e-06
3.99563e-06
3.89185e-06
3.79772e-06
3.71178e-06
3.63294e-06
3.56048e-06
3.49389e-06
3.43287e-06
3.37721e-06
3.32683e-06
3.28172e-06
3.24178e-06
3.20696e-06
3.17639e-06
3.1491e-06
3.12367e-06
3.09699e-06
3.06558e-06
3.01999e-06
2.96242e-06
3.53902e-06
4.25393e-06
4.55035e-06
4.72018e-06
4.69008e-06
4.5327e-06
4.33655e-06
4.14082e-06
3.96222e-06
3.80545e-06
3.66805e-06
3.54628e-06
3.43719e-06
3.33855e-06
3.24864e-06
3.16628e-06
3.09068e-06
3.02124e-06
2.95751e-06
2.89915e-06
2.84591e-06
2.79757e-06
2.75395e-06
2.71483e-06
2.67989e-06
2.64854e-06
2.62e-06
2.5928e-06
2.5648e-06
2.53252e-06
2.49284e-06
2.43798e-06
2.3697e-06
2.84645e-06
3.47522e-06
3.75406e-06
3.91296e-06
3.91938e-06
3.81958e-06
3.67845e-06
3.52664e-06
3.37886e-06
3.24243e-06
3.11903e-06
3.00801e-06
2.90824e-06
2.81842e-06
2.7373e-06
2.66384e-06
2.59718e-06
2.53658e-06
2.48147e-06
2.43137e-06
2.3859e-06
2.34468e-06
2.30735e-06
2.27349e-06
2.2425e-06
2.2136e-06
2.18563e-06
2.15687e-06
2.12524e-06
2.08761e-06
2.04131e-06
1.98001e-06
1.90483e-06
2.31785e-06
2.86607e-06
3.14317e-06
3.30753e-06
3.34686e-06
3.28632e-06
3.17603e-06
3.04703e-06
2.9167e-06
2.79434e-06
2.68299e-06
2.58273e-06
2.4927e-06
2.41181e-06
2.33897e-06
2.2732e-06
2.21373e-06
2.15989e-06
2.11114e-06
2.067e-06
2.027e-06
1.9907e-06
1.95758e-06
1.92706e-06
1.89835e-06
1.87051e-06
1.84224e-06
1.81186e-06
1.77737e-06
1.73594e-06
1.68522e-06
1.6202e-06
1.5414e-06
1.9046e-06
2.38444e-06
2.66301e-06
2.83124e-06
2.89113e-06
2.86102e-06
2.78095e-06
2.679e-06
2.57102e-06
2.46576e-06
2.367e-06
2.27596e-06
2.19287e-06
2.11746e-06
2.04918e-06
1.98747e-06
1.93172e-06
1.88139e-06
1.83593e-06
1.7948e-06
1.75748e-06
1.72341e-06
1.69197e-06
1.66243e-06
1.63394e-06
1.60543e-06
1.57561e-06
1.54286e-06
1.50533e-06
1.46065e-06
1.4069e-06
1.34031e-06
1.26101e-06
1.57394e-06
1.99838e-06
2.27967e-06
2.45558e-06
2.53463e-06
2.53124e-06
2.47631e-06
2.39478e-06
2.3023e-06
2.20839e-06
2.1181e-06
2.03373e-06
1.95617e-06
1.88553e-06
1.82151e-06
1.76362e-06
1.71134e-06
1.6641e-06
1.62137e-06
1.58258e-06
1.54718e-06
1.51456e-06
1.48404e-06
1.45486e-06
1.42613e-06
1.39679e-06
1.36561e-06
1.33115e-06
1.29184e-06
1.24576e-06
1.19141e-06
1.12612e-06
1.04983e-06
1.30344e-06
1.68556e-06
1.97006e-06
2.15487e-06
2.24923e-06
2.26651e-06
2.23198e-06
2.16838e-06
2.09092e-06
2.00907e-06
1.9282e-06
1.85106e-06
1.779e-06
1.71251e-06
1.65162e-06
1.59611e-06
1.54563e-06
1.49974e-06
1.45798e-06
1.41982e-06
1.3847e-06
1.35202e-06
1.32108e-06
1.29113e-06
1.2613e-06
1.23062e-06
1.19799e-06
1.16219e-06
1.12194e-06
1.07581e-06
1.02272e-06
9.61019e-07
8.90751e-07
1.0775e-06
1.42949e-06
1.71746e-06
1.91186e-06
2.02003e-06
2.05533e-06
2.03893e-06
1.99113e-06
1.92636e-06
1.85409e-06
1.78014e-06
1.70794e-06
1.63938e-06
1.57539e-06
1.51631e-06
1.46211e-06
1.41256e-06
1.3673e-06
1.32589e-06
1.28783e-06
1.25257e-06
1.21951e-06
1.188e-06
1.15731e-06
1.12665e-06
1.09517e-06
1.06193e-06
1.02597e-06
9.86336e-07
9.42052e-07
8.92511e-07
8.36923e-07
7.75685e-07
8.85052e-07
1.21816e-06
1.51033e-06
1.7144e-06
1.83495e-06
1.88541e-06
1.88424e-06
1.8498e-06
1.79599e-06
1.73229e-06
1.66483e-06
1.59739e-06
1.53222e-06
1.47052e-06
1.41287e-06
1.35943e-06
1.3101e-06
1.26464e-06
1.22269e-06
1.18383e-06
1.14757e-06
1.11338e-06
1.08066e-06
1.04879e-06
1.01709e-06
9.84843e-07
9.51337e-07
9.15856e-07
8.77775e-07
8.36545e-07
7.91991e-07
7.44051e-07
6.93509e-07
7.18218e-07
1.04302e-06
1.34043e-06
1.55382e-06
1.68565e-06
1.74934e-06
1.7616e-06
1.7391e-06
1.69508e-06
1.6389e-06
1.57686e-06
1.5131e-06
1.4502e-06
1.38972e-06
1.33248e-06
1.27887e-06
1.22894e-06
1.18259e-06
1.13954e-06
1.09946e-06
1.06192e-06
1.02645e-06
9.92561e-07
9.59711e-07
9.27355e-07
8.94944e-07
8.61958e-07
8.27933e-07
7.92535e-07
7.5558e-07
7.17255e-07
6.78002e-07
6.38941e-07
5.71575e-07
8.98314e-07
1.2021e-06
1.42417e-06
1.5662e-06
1.64144e-06
1.66529e-06
1.65308e-06
1.61741e-06
1.56755e-06
1.50997e-06
1.4491e-06
1.38782e-06
1.32794e-06
1.27052e-06
1.21614e-06
1.16501e-06
1.11713e-06
1.07236e-06
1.03045e-06
9.9108e-07
9.53891e-07
9.18487e-07
8.84459e-07
8.51399e-07
8.18925e-07
7.86704e-07
7.5449e-07
7.22183e-07
6.89867e-07
6.57955e-07
6.27153e-07
5.98637e-07
4.42075e-07
7.80802e-07
1.09165e-06
1.32147e-06
1.47259e-06
1.55797e-06
1.59205e-06
1.58901e-06
1.56087e-06
1.51674e-06
1.46321e-06
1.40489e-06
1.34493e-06
1.28537e-06
1.22749e-06
1.17204e-06
1.11943e-06
1.06977e-06
1.02306e-06
9.79158e-07
9.37852e-07
8.98893e-07
8.62002e-07
8.26897e-07
7.93311e-07
7.6101e-07
7.29826e-07
6.99684e-07
6.70653e-07
6.42973e-07
6.17157e-07
5.93924e-07
5.74391e-07
3.30176e-07
6.89655e-07
1.007e-06
1.24319e-06
1.40211e-06
1.49619e-06
1.53897e-06
1.54365e-06
1.52167e-06
1.48198e-06
1.43122e-06
1.37422e-06
1.31436e-06
1.25395e-06
1.19448e-06
1.13692e-06
1.08182e-06
1.02947e-06
9.79988e-07
9.33352e-07
8.89472e-07
8.48209e-07
8.09401e-07
7.72884e-07
7.3851e-07
7.06168e-07
6.75807e-07
6.47459e-07
6.21274e-07
5.97535e-07
5.76715e-07
5.59407e-07
5.46465e-07
2.43916e-07
6.26262e-07
9.47418e-07
1.18816e-06
1.35358e-06
1.45527e-06
1.50587e-06
1.51771e-06
1.50168e-06
1.46653e-06
1.41892e-06
1.36378e-06
1.30468e-06
1.24408e-06
1.18366e-06
1.12455e-06
1.06745e-06
1.01278e-06
9.60786e-07
9.11578e-07
8.65183e-07
8.21584e-07
7.80736e-07
7.42595e-07
7.07128e-07
6.7433e-07
6.44242e-07
6.16963e-07
5.92673e-07
5.71627e-07
5.54198e-07
5.40757e-07
5.31979e-07
2.06408e-07
5.93458e-07
9.12999e-07
1.15575e-06
1.32583e-06
1.43334e-06
1.48983e-06
1.50679e-06
1.49455e-06
1.46169e-06
1.41493e-06
1.35938e-06
1.29879e-06
1.23588e-06
1.17255e-06
1.1101e-06
1.04941e-06
9.9105e-07
9.35379e-07
8.82614e-07
8.32881e-07
7.86252e-07
7.42771e-07
7.0247e-07
6.65387e-07
6.31576e-07
6.01116e-07
5.74117e-07
5.50727e-07
5.31126e-07
5.15545e-07
5.04168e-07
4.97404e-07
2.39554e-07
5.94139e-07
9.04855e-07
1.1471e-06
1.32075e-06
1.4338e-06
1.49657e-06
1.51964e-06
1.51276e-06
1.48419e-06
1.44053e-06
1.38689e-06
1.32709e-06
1.26398e-06
1.19959e-06
1.13537e-06
1.07234e-06
1.0112e-06
9.52448e-07
8.9642e-07
8.43356e-07
7.93431e-07
7.46783e-07
7.03529e-07
6.63778e-07
6.27638e-07
5.9522e-07
5.66639e-07
5.42014e-07
5.21457e-07
5.05093e-07
4.92938e-07
4.85311e-07
3.26314e-07
6.29057e-07
9.23517e-07
1.16164e-06
1.33582e-06
1.451e-06
1.516e-06
1.54058e-06
1.53412e-06
1.5048e-06
1.45934e-06
1.40303e-06
1.33993e-06
1.27306e-06
1.20463e-06
1.13623e-06
1.06897e-06
1.00365e-06
9.40796e-07
8.80809e-07
8.2396e-07
7.70452e-07
7.20443e-07
6.74067e-07
6.3144e-07
5.92667e-07
5.57847e-07
5.27067e-07
5.00403e-07
4.77908e-07
4.59626e-07
4.45523e-07
4.35734e-07
4.42796e-07
6.97266e-07
9.71543e-07
1.20474e-06
1.38087e-06
1.50144e-06
1.5734e-06
1.60529e-06
1.60557e-06
1.58187e-06
1.54058e-06
1.48691e-06
1.42496e-06
1.35789e-06
1.28809e-06
1.21735e-06
1.14698e-06
1.07797e-06
1.011e-06
9.46585e-07
8.8511e-07
8.26846e-07
7.72003e-07
7.2074e-07
6.73181e-07
6.29424e-07
5.89543e-07
5.53593e-07
5.21611e-07
4.9361e-07
4.69597e-07
4.49516e-07
4.33481e-07
5.80268e-07
7.96549e-07
1.04765e-06
1.27061e-06
1.44128e-06
1.55756e-06
1.62511e-06
1.65218e-06
1.64738e-06
1.61853e-06
1.57223e-06
1.51382e-06
1.44743e-06
1.37625e-06
1.30263e-06
1.22829e-06
1.15452e-06
1.08222e-06
1.01206e-06
9.44504e-07
8.79894e-07
8.18472e-07
7.6041e-07
7.05826e-07
6.54798e-07
6.07369e-07
5.63558e-07
5.23361e-07
4.86758e-07
4.53723e-07
4.24223e-07
3.98258e-07
3.7576e-07
7.38378e-07
9.2767e-07
1.16048e-06
1.38074e-06
1.55828e-06
1.68641e-06
1.76754e-06
1.8076e-06
1.81367e-06
1.7928e-06
1.75142e-06
1.69504e-06
1.62821e-06
1.55457e-06
1.47696e-06
1.39754e-06
1.31793e-06
1.23932e-06
1.16257e-06
1.08828e-06
1.01687e-06
9.48612e-07
8.83684e-07
8.2217e-07
7.64098e-07
7.09446e-07
6.58155e-07
6.10135e-07
5.65278e-07
5.23457e-07
4.84555e-07
4.48482e-07
4.15011e-07
9.21071e-07
1.09064e-06
1.29979e-06
1.50018e-06
1.65841e-06
1.76726e-06
1.8305e-06
1.85551e-06
1.85008e-06
1.82121e-06
1.77482e-06
1.71575e-06
1.64784e-06
1.5741e-06
1.49686e-06
1.41793e-06
1.33869e-06
1.2602e-06
1.18324e-06
1.10839e-06
1.03608e-06
9.66573e-07
9.00052e-07
8.36603e-07
7.76237e-07
7.18909e-07
6.64525e-07
6.12954e-07
5.64038e-07
5.17597e-07
4.73443e-07
4.31464e-07
3.91036e-07
1.13476e-06
1.29579e-06
1.50344e-06
1.72325e-06
1.9141e-06
2.05791e-06
2.15107e-06
2.19755e-06
2.20443e-06
2.17967e-06
2.13089e-06
2.06476e-06
1.98676e-06
1.90118e-06
1.81133e-06
1.71965e-06
1.62792e-06
1.5374e-06
1.44895e-06
1.36317e-06
1.28041e-06
1.20088e-06
1.12467e-06
1.0518e-06
9.82194e-07
9.15747e-07
8.5231e-07
7.91702e-07
7.33731e-07
6.78155e-07
6.24764e-07
5.73287e-07
5.23139e-07
1.39069e-06
1.54084e-06
1.70761e-06
1.87009e-06
2.00035e-06
2.0926e-06
2.1501e-06
2.17773e-06
2.17975e-06
2.15991e-06
2.12184e-06
2.06901e-06
2.00463e-06
1.93167e-06
1.8527e-06
1.76995e-06
1.68526e-06
1.60009e-06
1.5156e-06
1.43264e-06
1.35184e-06
1.2736e-06
1.19818e-06
1.1257e-06
1.05618e-06
9.89569e-07
9.25777e-07
8.64673e-07
8.06124e-07
7.49985e-07
6.96141e-07
6.44554e-07
5.94377e-07
1.70124e-06
1.87126e-06
2.09963e-06
2.36857e-06
2.60568e-06
2.77321e-06
2.86819e-06
2.90185e-06
2.88783e-06
2.83894e-06
2.76596e-06
2.67716e-06
2.57857e-06
2.47443e-06
2.3677e-06
2.26037e-06
2.15383e-06
2.04899e-06
1.94649e-06
1.84677e-06
1.75008e-06
1.65661e-06
1.56643e-06
1.47956e-06
1.39595e-06
1.31553e-06
1.2382e-06
1.16385e-06
1.09237e-06
1.0236e-06
9.57494e-07
8.93812e-07
8.32248e-07
2.09667e-06
2.22532e-06
2.29336e-06
2.36714e-06
2.45616e-06
2.55225e-06
2.6427e-06
2.71519e-06
2.76095e-06
2.77642e-06
2.76254e-06
2.72286e-06
2.66214e-06
2.58529e-06
2.49684e-06
2.40067e-06
2.29993e-06
2.19705e-06
2.09389e-06
1.99178e-06
1.89165e-06
1.79411e-06
1.69956e-06
1.60818e-06
1.52005e-06
1.43516e-06
1.35346e-06
1.27489e-06
1.19942e-06
1.12704e-06
1.05784e-06
9.92113e-07
9.28873e-07
2.59691e-06
2.89455e-06
3.30367e-06
3.71851e-06
3.99431e-06
4.11767e-06
4.13436e-06
4.08453e-06
3.99421e-06
3.88029e-06
3.75277e-06
3.61705e-06
3.47622e-06
3.33232e-06
3.18695e-06
3.04152e-06
2.89739e-06
2.75577e-06
2.61773e-06
2.48412e-06
2.35562e-06
2.23267e-06
2.11555e-06
2.00435e-06
1.89905e-06
1.79951e-06
1.70553e-06
1.61686e-06
1.5333e-06
1.45463e-06
1.38082e-06
1.31187e-06
1.24756e-06
3.29906e-06
3.2032e-06
2.92583e-06
2.8789e-06
3.06304e-06
3.33266e-06
3.58103e-06
3.75973e-06
3.85804e-06
3.88726e-06
3.86714e-06
3.81713e-06
3.75295e-06
3.68578e-06
3.62257e-06
3.56688e-06
3.51991e-06
3.48139e-06
3.45029e-06
3.42523e-06
3.40484e-06
3.38783e-06
3.37311e-06
3.35977e-06
3.34704e-06
3.33429e-06
3.32103e-06
3.30684e-06
3.29146e-06
3.27484e-06
3.25714e-06
3.2398e-06
3.22118e-06
4.33215e-06
5.54431e-06
6.29108e-06
6.53229e-06
6.42595e-06
6.20408e-06
6.05794e-06
6.07192e-06
6.25303e-06
6.56235e-06
6.94586e-06
7.35574e-06
7.75706e-06
8.12728e-06
8.4537e-06
8.73069e-06
8.95724e-06
9.13516e-06
9.26785e-06
9.35951e-06
9.41458e-06
9.43741e-06
9.43212e-06
9.40239e-06
9.3515e-06
9.28218e-06
9.19679e-06
9.09704e-06
8.9846e-06
8.86008e-06
8.7256e-06
8.58166e-06
8.43238e-06
5.6563e-06
3.58966e-06
2.74834e-06
4.5993e-06
7.32058e-06
9.89438e-06
1.20821e-05
1.3818e-05
1.51135e-05
1.60097e-05
1.65533e-05
1.67923e-05
1.67748e-05
1.6546e-05
1.61473e-05
1.56156e-05
1.4983e-05
1.4277e-05
1.35205e-05
1.27326e-05
1.19284e-05
1.11201e-05
1.0317e-05
9.52612e-06
8.75266e-06
8.00003e-06
7.27031e-06
6.56393e-06
5.88118e-06
5.21833e-06
4.57832e-06
3.94611e-06
3.3445e-06
1.14443e-05
1.65019e-05
1.82572e-05
1.97575e-05
2.02128e-05
1.94438e-05
1.76726e-05
1.51767e-05
1.23213e-05
9.67443e-06
8.1804e-06
8.76525e-06
1.10578e-05
1.40741e-05
1.7247e-05
2.03313e-05
2.32209e-05
2.58711e-05
2.82672e-05
3.04101e-05
3.23094e-05
3.39792e-05
3.54359e-05
3.66966e-05
3.7778e-05
3.86965e-05
3.94678e-05
4.01066e-05
4.06284e-05
4.1048e-05
4.13865e-05
4.16623e-05
4.19284e-05
2.4902e-05
2.86717e-05
3.9039e-05
5.3512e-05
6.78158e-05
8.17866e-05
9.46861e-05
0.000105907
0.000115402
0.000123247
0.000129547
0.000134457
0.000138145
0.000140775
0.000142499
0.000143456
0.000143768
0.000143542
0.00014287
0.000141832
0.000140495
0.000138915
0.000137142
0.000135213
0.000133163
0.000131019
0.000128803
0.000126531
0.000124221
0.000121874
0.000119509
0.000117136
0.00011497
0.000543337
0.000510577
0.000491574
0.000467833
0.000443742
0.000421321
0.00039973
0.000379036
0.000359508
0.000341168
0.000324001
0.000307996
0.000293109
0.00027928
0.000266439
0.000254514
0.000243431
0.000233117
0.000223506
0.000214531
0.000206133
0.000198259
0.000190858
0.000183887
0.000177305
0.000171078
0.000165169
0.000159553
0.000154184
0.000149068
0.000144031
0.000139648
0.000135581
8.19763e-05
8.07462e-05
7.93095e-05
8.04078e-05
8.39892e-05
8.85139e-05
9.10229e-05
8.57515e-05
7.02842e-05
5.93289e-05
5.6433e-05
5.36378e-05
4.87448e-05
4.18222e-05
3.33376e-05
2.44022e-05
1.40934e-05
8.64352e-06
9.76953e-06
5.60097e-06
1.40824e-05
2.14898e-05
3.53783e-05
4.29386e-05
4.17614e-05
3.77597e-05
3.48027e-05
3.30984e-05
3.30992e-05
3.48733e-05
3.68852e-05
4.10808e-05
4.13491e-05
3.68664e-05
3.2683e-05
3.02476e-05
2.83228e-05
2.58969e-05
2.24252e-05
1.78124e-05
1.2563e-05
8.10448e-06
7.3786e-06
1.01248e-05
1.28214e-05
1.61686e-05
2.6433e-05
3.7173e-05
3.9937e-05
3.50906e-05
2.7947e-05
2.24672e-05
1.92517e-05
1.73925e-05
1.60361e-05
1.47841e-05
1.36098e-05
1.26466e-05
1.20451e-05
1.18158e-05
1.20901e-05
1.36845e-05
1.70417e-05
2.48027e-05
3.89469e-05
4.98588e-05
5.116e-05
4.51812e-05
3.59954e-05
2.59126e-05
1.60769e-05
6.83507e-06
4.82756e-06
1.7108e-05
3.22025e-05
4.50119e-05
4.96321e-05
4.4805e-05
3.47167e-05
2.47385e-05
1.76759e-05
1.33172e-05
1.03907e-05
8.12587e-06
6.28347e-06
4.79509e-06
3.61027e-06
2.67657e-06
1.94669e-06
1.38349e-06
9.58783e-07
6.545e-07
4.60746e-07
3.7787e-07
3.76366e-07
4.04922e-07
4.26983e-07
4.22544e-07
4.10997e-07
3.51562e-07
9.97874e-05
9.63676e-05
9.24854e-05
9.02847e-05
9.0695e-05
9.37547e-05
9.8106e-05
0.00010209
9.87899e-05
8.15834e-05
6.35466e-05
5.47375e-05
4.92711e-05
4.23059e-05
3.39274e-05
2.49365e-05
1.69324e-05
1.24048e-05
2.0109e-06
1.27046e-05
1.45037e-05
2.56942e-05
3.92736e-05
4.26747e-05
3.95831e-05
3.57774e-05
3.33289e-05
3.19441e-05
3.15256e-05
3.31684e-05
3.51755e-05
3.91009e-05
4.20644e-05
3.88975e-05
3.3613e-05
3.01682e-05
2.79467e-05
2.54125e-05
2.19199e-05
1.745e-05
1.24601e-05
8.23794e-06
7.40786e-06
9.44462e-06
1.08786e-05
1.73128e-05
3.08218e-05
4.03097e-05
4.03682e-05
3.3985e-05
2.6836e-05
2.18941e-05
1.90547e-05
1.735e-05
1.6048e-05
1.48462e-05
1.37369e-05
1.28279e-05
1.22695e-05
1.20832e-05
1.23006e-05
1.36931e-05
1.69305e-05
2.37523e-05
3.77528e-05
5.05446e-05
5.36253e-05
4.81926e-05
3.86598e-05
2.78821e-05
1.71946e-05
6.88651e-06
4.82161e-06
1.86057e-05
3.45414e-05
4.71947e-05
5.07476e-05
4.47352e-05
3.40675e-05
2.42155e-05
1.75556e-05
1.34524e-05
1.05923e-05
8.32215e-06
6.46114e-06
4.95019e-06
3.73927e-06
2.77808e-06
2.02193e-06
1.43544e-06
9.91228e-07
6.7176e-07
4.67452e-07
3.8091e-07
3.81802e-07
4.15104e-07
4.40512e-07
4.39711e-07
4.29657e-07
3.72671e-07
8.69732e-05
8.57378e-05
8.36109e-05
8.21166e-05
8.23738e-05
8.47071e-05
8.87771e-05
9.38671e-05
9.89068e-05
9.80965e-05
8.48892e-05
6.57312e-05
5.08224e-05
4.0978e-05
3.2608e-05
2.3725e-05
1.56488e-05
1.20341e-05
1.78336e-05
1.51381e-05
1.60551e-05
3.33473e-05
4.19091e-05
4.0962e-05
3.69763e-05
3.3716e-05
3.17044e-05
3.05953e-05
3.00406e-05
3.10402e-05
3.31796e-05
3.64016e-05
4.12883e-05
4.11989e-05
3.5885e-05
3.0657e-05
2.74775e-05
2.48291e-05
2.14765e-05
1.72731e-05
1.26563e-05
8.83059e-06
7.48626e-06
7.39718e-06
9.73616e-06
2.2432e-05
3.67079e-05
4.30716e-05
3.99955e-05
3.24281e-05
2.56306e-05
2.1331e-05
1.88655e-05
1.7299e-05
1.6043e-05
1.48902e-05
1.38446e-05
1.29877e-05
1.24632e-05
1.23181e-05
1.25057e-05
1.36359e-05
1.66468e-05
2.25994e-05
3.59176e-05
5.04769e-05
5.58737e-05
5.15874e-05
4.21166e-05
3.09563e-05
1.98877e-05
1.01741e-05
9.13483e-06
2.19667e-05
3.80472e-05
4.99287e-05
5.187e-05
4.43892e-05
3.31499e-05
2.3572e-05
1.74183e-05
1.35972e-05
1.08127e-05
8.54441e-06
6.66467e-06
5.12484e-06
3.87989e-06
2.88456e-06
2.09744e-06
1.48449e-06
1.01809e-06
6.79825e-07
4.60667e-07
3.68235e-07
3.74453e-07
4.17392e-07
4.50551e-07
4.56227e-07
4.49625e-07
3.95776e-07
5.87391e-05
5.78922e-05
5.66674e-05
5.60521e-05
5.69695e-05
5.98189e-05
6.44869e-05
7.0311e-05
7.68587e-05
8.36258e-05
8.61401e-05
7.9729e-05
6.63098e-05
5.18347e-05
3.97781e-05
3.15064e-05
2.9119e-05
2.86668e-05
2.01011e-05
9.27191e-06
2.75466e-05
3.9897e-05
4.13544e-05
3.78093e-05
3.41776e-05
3.16671e-05
3.0026e-05
2.91017e-05
2.86712e-05
2.91341e-05
3.09838e-05
3.35919e-05
3.88086e-05
4.2518e-05
3.96808e-05
3.32897e-05
2.7889e-05
2.41921e-05
2.07562e-05
1.68014e-05
1.24957e-05
8.6661e-06
5.44554e-06
3.62235e-06
1.48834e-05
3.09364e-05
4.25776e-05
4.44651e-05
3.84946e-05
3.04855e-05
2.4449e-05
2.0832e-05
1.86907e-05
1.72323e-05
1.60234e-05
1.49273e-05
1.39448e-05
1.31364e-05
1.26386e-05
1.25278e-05
1.27234e-05
1.36284e-05
1.63141e-05
2.14799e-05
3.35971e-05
4.9657e-05
5.79374e-05
5.55326e-05
4.66068e-05
3.53573e-05
2.42778e-05
1.56874e-05
1.55445e-05
2.72054e-05
4.26096e-05
5.2927e-05
5.26975e-05
4.35967e-05
3.19606e-05
2.28905e-05
1.73282e-05
1.37766e-05
1.10577e-05
8.79208e-06
6.8931e-06
5.32072e-06
4.03736e-06
3.00445e-06
2.18425e-06
1.54374e-06
1.05503e-06
6.98969e-07
4.66595e-07
3.69555e-07
3.80032e-07
4.29897e-07
4.68088e-07
4.78496e-07
4.74375e-07
4.23002e-07
1.79501e-05
1.76162e-05
1.73006e-05
1.77437e-05
1.94803e-05
2.24921e-05
2.66597e-05
3.21487e-05
3.88582e-05
4.657e-05
5.4523e-05
5.995e-05
6.00962e-05
5.52456e-05
4.80515e-05
4.12708e-05
3.29294e-05
1.86796e-05
5.30988e-06
2.54675e-05
3.83445e-05
4.08771e-05
3.787e-05
3.4224e-05
3.15445e-05
2.96363e-05
2.82729e-05
2.74873e-05
2.72312e-05
2.74807e-05
2.8813e-05
3.09627e-05
3.51204e-05
4.12067e-05
4.29261e-05
3.8423e-05
3.14439e-05
2.53215e-05
2.0488e-05
1.60423e-05
1.15452e-05
6.9395e-06
2.68456e-06
1.12974e-05
2.63084e-05
4.03459e-05
4.67442e-05
4.38904e-05
3.59908e-05
2.84053e-05
2.33743e-05
2.03898e-05
1.85112e-05
1.71391e-05
1.59812e-05
1.49431e-05
1.40174e-05
1.32532e-05
1.2777e-05
1.26895e-05
1.29045e-05
1.36351e-05
1.59422e-05
2.04522e-05
3.08983e-05
4.77483e-05
5.92516e-05
5.95979e-05
5.1946e-05
4.10856e-05
3.03964e-05
2.30011e-05
2.35429e-05
3.41733e-05
4.80938e-05
5.59543e-05
5.30016e-05
4.2237e-05
3.04862e-05
2.21775e-05
1.72602e-05
1.39635e-05
1.13122e-05
9.05611e-06
7.13823e-06
5.52943e-06
4.20321e-06
3.12918e-06
2.27346e-06
1.60366e-06
1.09074e-06
7.14412e-07
4.65577e-07
3.61615e-07
3.78198e-07
4.38547e-07
4.85e-07
5.02387e-07
5.02325e-07
4.54451e-07
7.76138e-06
7.93875e-06
8.03506e-06
7.76389e-06
6.82544e-06
5.06634e-06
2.94851e-06
4.19046e-06
9.02144e-06
1.46686e-05
2.00984e-05
2.46477e-05
2.74322e-05
2.73592e-05
2.40394e-05
1.6807e-05
6.28001e-06
1.46301e-05
2.94949e-05
3.82875e-05
3.96588e-05
3.68297e-05
3.34946e-05
3.10053e-05
2.91313e-05
2.76284e-05
2.65153e-05
2.58735e-05
2.5753e-05
2.60148e-05
2.68992e-05
2.85804e-05
3.14097e-05
3.72748e-05
4.3028e-05
4.33943e-05
3.84532e-05
3.14125e-05
2.46837e-05
1.89527e-05
1.43407e-05
1.19894e-05
1.5611e-05
2.63052e-05
3.91527e-05
4.7633e-05
4.78332e-05
4.12613e-05
3.28784e-05
2.64411e-05
2.24617e-05
2.0003e-05
1.8321e-05
1.70215e-05
1.59204e-05
1.49393e-05
1.40644e-05
1.33421e-05
1.28852e-05
1.28092e-05
1.30484e-05
1.36573e-05
1.55515e-05
1.95051e-05
2.80631e-05
4.46239e-05
5.92744e-05
6.32572e-05
5.78661e-05
4.81034e-05
3.8229e-05
3.1936e-05
3.29729e-05
4.25123e-05
5.40923e-05
5.85671e-05
5.2465e-05
4.02119e-05
2.87861e-05
2.14975e-05
1.72338e-05
1.41677e-05
1.15861e-05
9.343e-06
7.40378e-06
5.75389e-06
4.38078e-06
3.26295e-06
2.36997e-06
1.66943e-06
1.13124e-06
7.33946e-07
4.68968e-07
3.60158e-07
3.8471e-07
4.5523e-07
5.08858e-07
5.32351e-07
5.35813e-07
4.9109e-07
8.99954e-06
9.03236e-06
8.86335e-06
8.27813e-06
7.08854e-06
5.19837e-06
2.53374e-06
1.3835e-06
5.68345e-06
1.06444e-05
1.54579e-05
1.91408e-05
2.10671e-05
2.1574e-05
2.19934e-05
2.4271e-05
2.91397e-05
3.45567e-05
3.74824e-05
3.69307e-05
3.43835e-05
3.17975e-05
2.98593e-05
2.82934e-05
2.68746e-05
2.56655e-05
2.4786e-05
2.42879e-05
2.42333e-05
2.45671e-05
2.52441e-05
2.64861e-05
2.83804e-05
3.24105e-05
3.92293e-05
4.4483e-05
4.47435e-05
4.078e-05
3.51337e-05
2.996e-05
2.68003e-05
2.73328e-05
3.27503e-05
4.1452e-05
4.88145e-05
5.04007e-05
4.54263e-05
3.71684e-05
2.97386e-05
2.47888e-05
2.1717e-05
1.96458e-05
1.81062e-05
1.68788e-05
1.58395e-05
1.49117e-05
1.40826e-05
1.34017e-05
1.29645e-05
1.28878e-05
1.31446e-05
1.36812e-05
1.51748e-05
1.85955e-05
2.5382e-05
4.04206e-05
5.75439e-05
6.58143e-05
6.38045e-05
5.6048e-05
4.74722e-05
4.22352e-05
4.35443e-05
5.16051e-05
5.99039e-05
6.01619e-05
5.07633e-05
3.75004e-05
2.69721e-05
2.0899e-05
1.72456e-05
1.43885e-05
1.18826e-05
9.65469e-06
7.69029e-06
5.99444e-06
4.57061e-06
3.4062e-06
2.47368e-06
1.7403e-06
1.17448e-06
7.5333e-07
4.68322e-07
3.51235e-07
3.84905e-07
4.68417e-07
5.31924e-07
5.63388e-07
5.71926e-07
5.31226e-07
5.44063e-06
5.38955e-06
5.17374e-06
4.66268e-06
3.74906e-06
2.39739e-06
9.83278e-07
2.34227e-06
5.17137e-06
8.7396e-06
1.3031e-05
1.76734e-05
2.19997e-05
2.54997e-05
2.8297e-05
3.06719e-05
3.24449e-05
3.30154e-05
3.22312e-05
3.07417e-05
2.93088e-05
2.81287e-05
2.70084e-05
2.58411e-05
2.47132e-05
2.37651e-05
2.30898e-05
2.27182e-05
2.26948e-05
2.30589e-05
2.36999e-05
2.46788e-05
2.603e-05
2.83441e-05
3.34029e-05
4.04379e-05
4.56422e-05
4.70272e-05
4.54954e-05
4.31168e-05
4.19506e-05
4.33148e-05
4.71363e-05
5.11519e-05
5.20057e-05
4.7935e-05
4.03864e-05
3.26888e-05
2.70745e-05
2.35052e-05
2.1093e-05
1.92827e-05
1.78595e-05
1.67121e-05
1.57366e-05
1.48588e-05
1.40744e-05
1.34353e-05
1.30188e-05
1.29301e-05
1.31877e-05
1.36893e-05
1.48455e-05
1.76962e-05
2.30548e-05
3.553e-05
5.37381e-05
6.63725e-05
6.87723e-05
6.40761e-05
5.74162e-05
5.32993e-05
5.45419e-05
6.04673e-05
6.45412e-05
6.00372e-05
4.76471e-05
3.42102e-05
2.52037e-05
2.04169e-05
1.72962e-05
1.46347e-05
1.22098e-05
9.99486e-06
7.99959e-06
6.2529e-06
4.77499e-06
3.56145e-06
2.58684e-06
1.81808e-06
1.22208e-06
7.74935e-07
4.68596e-07
3.44675e-07
3.90877e-07
4.883e-07
5.6145e-07
6.00385e-07
6.13752e-07
5.76485e-07
3.83519e-06
3.74293e-06
3.50914e-06
3.04327e-06
2.28125e-06
1.27498e-06
1.12737e-06
2.81491e-06
5.07796e-06
7.69016e-06
1.06295e-05
1.38934e-05
1.73169e-05
2.05494e-05
2.32417e-05
2.52129e-05
2.63371e-05
2.67123e-05
2.66416e-05
2.63588e-05
2.59054e-05
2.52495e-05
2.44206e-05
2.35187e-05
2.26586e-05
2.19363e-05
2.14214e-05
2.11518e-05
2.11591e-05
2.15067e-05
2.21464e-05
2.30288e-05
2.41419e-05
2.55445e-05
2.82975e-05
3.36846e-05
4.04235e-05
4.58371e-05
4.8804e-05
4.99852e-05
5.07731e-05
5.18872e-05
5.28772e-05
5.2136e-05
4.82795e-05
4.16959e-05
3.45334e-05
2.8861e-05
2.50924e-05
2.25114e-05
2.05111e-05
1.88848e-05
1.75798e-05
1.65213e-05
1.56093e-05
1.47817e-05
1.40437e-05
1.34462e-05
1.30497e-05
1.29394e-05
1.31736e-05
1.36569e-05
1.457e-05
1.68288e-05
2.11183e-05
3.05886e-05
4.79366e-05
6.4098e-05
7.14754e-05
7.08466e-05
6.68082e-05
6.39361e-05
6.47079e-05
6.7726e-05
6.68195e-05
5.75457e-05
4.30794e-05
3.06218e-05
2.3646e-05
2.00575e-05
1.73863e-05
1.49162e-05
1.25735e-05
1.03659e-05
8.33331e-06
6.53123e-06
4.99598e-06
3.73025e-06
2.7104e-06
1.90302e-06
1.27369e-06
7.97331e-07
4.65689e-07
3.31622e-07
3.92547e-07
5.06601e-07
5.91708e-07
6.3963e-07
6.59213e-07
6.25915e-07
3.02623e-06
2.89083e-06
2.62518e-06
2.16298e-06
1.45809e-06
5.9532e-07
1.13102e-06
2.7476e-06
4.70557e-06
6.91221e-06
9.29308e-06
1.17795e-05
1.42981e-05
1.67272e-05
1.88597e-05
2.05588e-05
2.18275e-05
2.26954e-05
2.31702e-05
2.32714e-05
2.30572e-05
2.26111e-05
2.20194e-05
2.13633e-05
2.07223e-05
2.01747e-05
1.97865e-05
1.9601e-05
1.9646e-05
1.99685e-05
2.05768e-05
2.1413e-05
2.24562e-05
2.3585e-05
2.5035e-05
2.78703e-05
3.27552e-05
3.85798e-05
4.36342e-05
4.71296e-05
4.91657e-05
4.98408e-05
4.88007e-05
4.55797e-05
4.04146e-05
3.45916e-05
2.9644e-05
2.61491e-05
2.36669e-05
2.16478e-05
1.99014e-05
1.84438e-05
1.72713e-05
1.63062e-05
1.54587e-05
1.46851e-05
1.39965e-05
1.34378e-05
1.30573e-05
1.29187e-05
1.31035e-05
1.35632e-05
1.43252e-05
1.60491e-05
1.94851e-05
2.62609e-05
4.08121e-05
5.8607e-05
7.06219e-05
7.46599e-05
7.3855e-05
7.23657e-05
7.22842e-05
7.17296e-05
6.55815e-05
5.2345e-05
3.73812e-05
2.716e-05
2.24036e-05
1.98091e-05
1.75253e-05
1.52455e-05
1.29799e-05
1.07708e-05
8.69428e-06
6.83252e-06
5.23654e-06
3.91478e-06
2.8458e-06
1.99585e-06
1.32965e-06
8.20939e-07
4.61078e-07
3.17208e-07
3.98275e-07
5.30868e-07
6.28359e-07
6.85084e-07
7.10917e-07
6.80929e-07
2.39645e-06
2.23718e-06
1.96069e-06
1.51577e-06
8.61791e-07
1.55257e-07
1.23409e-06
2.66145e-06
4.32799e-06
6.19506e-06
8.20776e-06
1.0294e-05
1.23727e-05
1.43585e-05
1.6166e-05
1.77208e-05
1.89544e-05
1.98224e-05
2.0335e-05
2.0538e-05
2.04848e-05
2.02308e-05
1.98361e-05
1.93666e-05
1.88927e-05
1.84844e-05
1.82011e-05
1.80839e-05
1.81622e-05
1.84691e-05
1.90265e-05
1.98061e-05
2.07937e-05
2.19103e-05
2.30236e-05
2.44279e-05
2.68524e-05
3.05279e-05
3.46582e-05
3.81503e-05
4.02938e-05
4.07519e-05
3.93601e-05
3.63836e-05
3.26354e-05
2.91348e-05
2.64224e-05
2.4334e-05
2.24965e-05
2.07742e-05
1.92407e-05
1.79696e-05
1.69384e-05
1.60679e-05
1.52892e-05
1.45751e-05
1.39372e-05
1.34117e-05
1.30396e-05
1.28683e-05
1.29827e-05
1.33955e-05
1.40679e-05
1.539e-05
1.80772e-05
2.29005e-05
3.35634e-05
5.03556e-05
6.54382e-05
7.38935e-05
7.65528e-05
7.65247e-05
7.5307e-05
7.08914e-05
6.01094e-05
4.47136e-05
3.12974e-05
2.42471e-05
2.14837e-05
1.96594e-05
1.77282e-05
1.56334e-05
1.34338e-05
1.12133e-05
9.08651e-06
7.16077e-06
5.49966e-06
4.11723e-06
2.99427e-06
2.09732e-06
1.39041e-06
8.45785e-07
4.53303e-07
2.96253e-07
4.02116e-07
5.55974e-07
6.67794e-07
7.34442e-07
7.67684e-07
7.41096e-07
1.90824e-06
1.73783e-06
1.46394e-06
1.04908e-06
4.67233e-07
3.55842e-07
1.34635e-06
2.5608e-06
3.97055e-06
5.54529e-06
7.24252e-06
9.00691e-06
1.07729e-05
1.2473e-05
1.40339e-05
1.53861e-05
1.6483e-05
1.73079e-05
1.786e-05
1.81515e-05
1.82136e-05
1.80929e-05
1.78414e-05
1.75148e-05
1.71727e-05
1.68751e-05
1.66749e-05
1.66111e-05
1.67133e-05
1.70108e-05
1.75224e-05
1.82367e-05
1.91435e-05
2.02253e-05
2.13664e-05
2.24587e-05
2.3696e-05
2.54185e-05
2.76065e-05
2.97305e-05
3.11943e-05
3.1598e-05
3.08695e-05
2.93399e-05
2.75527e-05
2.58961e-05
2.43928e-05
2.28871e-05
2.13347e-05
1.98471e-05