/*--------------------------------*- C++ -*----------------------------------*\
  =========                 |
  \\      /  F ield         | OpenFOAM: The Open Source CFD Toolbox
   \\    /   O peration     | Website:  https://openfoam.org
    \\  /    A nd           | Version:  10
     \\/     M anipulation  |
\*---------------------------------------------------------------------------*/
FoamFile
{
    format      ascii;
    class       surfaceScalarField;
    location    "0.13";
    object      phi;
}
// * * * * * * * * * * * * * * * * * * * * * * * * * * * * * * * * * * * * * //

dimensions      [0 3 -1 0 0 0 0];

internalField   nonuniform List<scalar> 
13452
(
4.01935e-05
2.0075e-05
2.59382e-05
1.42553e-05
1.85379e-05
7.40031e-06
1.51693e-05
3.36856e-06
1.37592e-05
1.41011e-06
1.30561e-05
7.03125e-07
1.26076e-05
4.48528e-07
1.22618e-05
3.45794e-07
1.19691e-05
2.92659e-07
1.17177e-05
2.51424e-07
1.15034e-05
2.14284e-07
1.13225e-05
1.80893e-07
1.1171e-05
1.51508e-07
1.1045e-05
1.26044e-07
1.09409e-05
1.04027e-07
1.08561e-05
8.48244e-08
1.07883e-05
6.78138e-08
1.07358e-05
5.24452e-08
1.06976e-05
3.82432e-08
1.06728e-05
2.48308e-08
1.06611e-05
1.16526e-08
1.06629e-05
-1.7403e-09
1.06776e-05
-1.47175e-08
1.07064e-05
-2.88062e-08
1.07504e-05
-4.3973e-08
1.08111e-05
-6.07068e-08
1.08912e-05
-8.01424e-08
1.09935e-05
-1.02317e-07
1.11251e-05
-1.31608e-07
1.12875e-05
-1.6233e-07
1.15107e-05
-2.23223e-07
1.1757e-05
-2.46334e-07
-5.53151e-07
1.23102e-05
6.5904e-05
1.61613e-05
6.1902e-05
1.82573e-05
5.5648e-05
1.36542e-05
4.97886e-05
9.22795e-06
4.53033e-05
5.89542e-06
4.21024e-05
3.90408e-06
3.98089e-05
2.74198e-06
3.8124e-05
2.03072e-06
3.68422e-05
1.57441e-06
3.58327e-05
1.26092e-06
3.50153e-05
1.03176e-06
3.43395e-05
8.5667e-07
3.37726e-05
7.184e-07
3.32923e-05
6.0632e-07
3.2883e-05
5.13393e-07
3.25331e-05
4.34711e-07
3.22342e-05
3.66729e-07
3.19798e-05
3.06817e-07
3.17651e-05
2.52962e-07
3.15863e-05
2.03572e-07
3.14407e-05
1.57259e-07
3.1326e-05
1.12984e-07
3.12414e-05
6.98387e-08
3.11864e-05
2.62475e-08
3.11611e-05
-1.87253e-08
3.11666e-05
-6.61728e-08
3.12046e-05
-1.18159e-07
3.12785e-05
-1.76246e-07
3.13931e-05
-2.46121e-07
3.15579e-05
-3.27174e-07
3.17815e-05
-4.46826e-07
3.21216e-05
-5.8643e-07
-8.77719e-07
3.24462e-05
6.91816e-05
1.07411e-05
7.25097e-05
1.49292e-05
7.30669e-05
1.3097e-05
7.16988e-05
1.0596e-05
6.94621e-05
8.13217e-06
6.70929e-05
6.27322e-06
6.48744e-05
4.96048e-06
6.28973e-05
4.00792e-06
6.1172e-05
3.29971e-06
5.96766e-05
2.75624e-06
5.83823e-05
2.32606e-06
5.72612e-05
1.97784e-06
5.62884e-05
1.69119e-06
5.54429e-05
1.45184e-06
5.47069e-05
1.24932e-06
5.40659e-05
1.07576e-06
5.35075e-05
9.2509e-07
5.30218e-05
7.92557e-07
5.26004e-05
6.74345e-07
5.22366e-05
5.67336e-07
5.1925e-05
4.68882e-07
5.16613e-05
3.76701e-07
5.14423e-05
2.88858e-07
5.12654e-05
2.03134e-07
5.11291e-05
1.17566e-07
5.10332e-05
2.97573e-08
5.09785e-05
-6.34767e-08
5.09673e-05
-1.65017e-07
5.10015e-05
-2.80321e-07
5.10871e-05
-4.128e-07
5.12207e-05
-5.8039e-07
5.1416e-05
-7.8173e-07
-1.06223e-06
5.16005e-05
6.8846e-05
7.47823e-06
7.21615e-05
1.16137e-05
7.45373e-05
1.07212e-05
7.59492e-05
9.18423e-06
7.65299e-05
7.55145e-06
7.65965e-05
6.20661e-06
7.63569e-05
5.2001e-06
7.59365e-05
4.42827e-06
7.5416e-05
3.82019e-06
7.48443e-05
3.32802e-06
7.42519e-05
2.9184e-06
7.36593e-05
2.57044e-06
7.30806e-05
2.26994e-06
7.25254e-05
2.00701e-06
7.19998e-05
1.7749e-06
7.15073e-05
1.56823e-06
7.10499e-05
1.38257e-06
7.06282e-05
1.21422e-06
7.02425e-05
1.06008e-06
6.98924e-05
9.17445e-07
6.95773e-05
7.83891e-07
6.92968e-05
6.57211e-07
6.90503e-05
5.35346e-07
6.88374e-05
4.16041e-07
6.8658e-05
2.9703e-07
6.85118e-05
1.75918e-07
6.83988e-05
4.95383e-08
6.83197e-05
-8.5959e-08
6.82751e-05
-2.35635e-07
6.82662e-05
-4.03907e-07
6.82872e-05
-6.01433e-07
6.83369e-05
-8.31461e-07
-1.10298e-06
6.83777e-05
6.95591e-05
5.37593e-06
7.18365e-05
9.33626e-06
7.35391e-05
9.01856e-06
7.48108e-05
7.91258e-06
7.57046e-05
6.65757e-06
7.63581e-05
5.55311e-06
7.68573e-05
4.7009e-06
7.7244e-05
4.04166e-06
7.75459e-05
3.51823e-06
7.77816e-05
3.09231e-06
7.79638e-05
2.7362e-06
7.81026e-05
2.43164e-06
7.82054e-05
2.16722e-06
7.82777e-05
1.9347e-06
7.83252e-05
1.72731e-06
7.83533e-05
1.54014e-06
7.83665e-05
1.36939e-06
7.83687e-05
1.21202e-06
7.83634e-05
1.06544e-06
7.83534e-05
9.2743e-07
7.83413e-05
7.95977e-07
7.83293e-05
6.69198e-07
7.83194e-05
5.45276e-07
7.83131e-05
4.22264e-07
7.8312e-05
2.98137e-07
7.83173e-05
1.70702e-07
7.8329e-05
3.77735e-08
7.83465e-05
-1.03441e-07
7.8368e-05
-2.57151e-07
7.83915e-05
-4.27437e-07
7.84101e-05
-6.19993e-07
7.84154e-05
-8.36752e-07
-1.07621e-06
7.83886e-05
7.08405e-05
3.91942e-06
7.26288e-05
7.54795e-06
7.39376e-05
7.70978e-06
7.48708e-05
6.97944e-06
7.55047e-05
6.02366e-06
7.59586e-05
5.09918e-06
7.63196e-05
4.33991e-06
7.6628e-05
3.7333e-06
7.6904e-05
3.2422e-06
7.71575e-05
2.83884e-06
7.73926e-05
2.50111e-06
7.76114e-05
2.21275e-06
7.78161e-05
1.96253e-06
7.80083e-05
1.7425e-06
7.8189e-05
1.54667e-06
7.83588e-05
1.37033e-06
7.85184e-05
1.20972e-06
7.86687e-05
1.06178e-06
7.88102e-05
9.23958e-07
7.89436e-05
7.94035e-07
7.90695e-05
6.70045e-07
7.91885e-05
5.50165e-07
7.93011e-05
4.32657e-07
7.94077e-05
3.1574e-07
7.95082e-05
1.97588e-07
7.96026e-05
7.63023e-08
7.96907e-05
-5.03069e-08
7.9772e-05
-1.84705e-07
7.98445e-05
-3.29716e-07
7.99048e-05
-4.87728e-07
7.99461e-05
-6.61263e-07
7.99599e-05
-8.50552e-07
-1.05166e-06
7.99353e-05
7.23892e-05
2.89655e-06
7.38428e-05
6.09438e-06
7.4973e-05
6.57959e-06
7.57948e-05
6.15765e-06
7.63576e-05
5.46084e-06
7.67451e-05
4.71161e-06
7.70338e-05
4.05127e-06
7.72656e-05
3.50149e-06
7.7464e-05
3.04383e-06
7.76422e-05
2.66058e-06
7.78074e-05
2.33592e-06
7.79633e-05
2.05686e-06
7.8112e-05
1.8138e-06
7.82549e-05
1.59961e-06
7.83928e-05
1.40876e-06
7.85263e-05
1.23686e-06
7.86557e-05
1.08034e-06
7.87812e-05
9.36273e-07
7.8903e-05
8.02165e-07
7.90212e-05
6.75859e-07
7.91358e-05
5.55437e-07
7.92468e-05
4.39136e-07
7.93542e-05
3.25293e-07
7.94577e-05
2.12259e-07
7.95569e-05
9.83787e-08
7.96512e-05
-1.80807e-08
7.974e-05
-1.39022e-07
7.98214e-05
-2.66196e-07
7.9893e-05
-4.01293e-07
7.99508e-05
-5.45503e-07
7.99889e-05
-6.99372e-07
8.00001e-05
-8.61726e-07
-1.02774e-06
7.99762e-05
7.41257e-05
2.17617e-06
7.52943e-05
4.92574e-06
7.62781e-05
5.59577e-06
7.70333e-05
5.40242e-06
7.75829e-05
4.91126e-06
7.79762e-05
4.3183e-06
7.82709e-05
3.75658e-06
7.85044e-05
3.26802e-06
7.86991e-05
2.84911e-06
7.88691e-05
2.49057e-06
7.90227e-05
2.18235e-06
7.91647e-05
1.91486e-06
7.92982e-05
1.6803e-06
7.94252e-05
1.47263e-06
7.9547e-05
1.28696e-06
7.96645e-05
1.11932e-06
7.97784e-05
9.66417e-07
7.98892e-05
8.25499e-07
7.99972e-05
6.9421e-07
8.01025e-05
5.70505e-07
8.02054e-05
4.52562e-07
8.03058e-05
3.38727e-07
8.04036e-05
2.27455e-07
8.04986e-05
1.17272e-07
8.05903e-05
6.71951e-09
8.06778e-05
-1.05576e-07
8.07597e-05
-2.2098e-07
8.08342e-05
-3.40709e-07
8.08986e-05
-4.65641e-07
8.09491e-05
-5.96025e-07
8.09809e-05
-7.31171e-07
8.09882e-05
-8.69026e-07
-1.00461e-06
8.09651e-05
7.60171e-05
1.66153e-06
7.69548e-05
3.98808e-06
7.78055e-05
4.74504e-06
7.84896e-05
4.71831e-06
7.90135e-05
4.38733e-06
7.94058e-05
3.92606e-06
7.97084e-05
3.45393e-06
7.99527e-05
3.02372e-06
8.01582e-05
2.64361e-06
8.03377e-05
2.31113e-06
8.04991e-05
2.02095e-06
8.06474e-05
1.76652e-06
8.07859e-05
1.54179e-06
8.09168e-05
1.34176e-06
8.10415e-05
1.16223e-06
8.11612e-05
9.9965e-07
8.12766e-05
8.5104e-07
8.13882e-05
7.13858e-07
8.14965e-05
5.85914e-07
8.16017e-05
4.65296e-07
8.1704e-05
3.5031e-07
8.18033e-05
2.39428e-07
8.18995e-05
1.31255e-07
8.19922e-05
2.45024e-08
8.2081e-05
-8.2021e-08
8.21648e-05
-1.89375e-07
8.22423e-05
-2.98499e-07
8.23117e-05
-4.10062e-07
8.23703e-05
-5.24289e-07
8.2415e-05
-6.40757e-07
8.24419e-05
-7.5806e-07
8.24466e-05
-8.7366e-07
-9.82799e-07
8.24247e-05
7.80333e-05
1.28776e-06
7.87856e-05
3.23584e-06
7.9519e-05
4.01164e-06
8.01363e-05
4.10097e-06
8.06312e-05
3.89249e-06
8.10172e-05
3.54001e-06
8.13232e-05
3.1479e-06
8.15743e-05
2.77268e-06
8.17872e-05
2.43066e-06
8.19737e-05
2.12468e-06
8.21414e-05
1.85327e-06
8.22953e-05
1.61258e-06
8.24388e-05
1.39829e-06
8.25741e-05
1.20644e-06
8.27028e-05
1.03352e-06
8.2826e-05
8.76456e-07
8.29445e-05
7.32581e-07
8.30588e-05
5.99583e-07
8.31692e-05
4.75446e-07
8.32761e-05
3.58403e-07
8.33795e-05
2.46893e-07
8.34794e-05
1.39529e-07
8.35756e-05
3.50721e-08
8.36677e-05
-6.75737e-08
8.3755e-05
-1.6936e-07
8.38367e-05
-2.71059e-07
8.39115e-05
-3.73232e-07
8.39775e-05
-4.76114e-07
8.40327e-05
-5.79461e-07
8.40743e-05
-6.824e-07
8.40994e-05
-7.83155e-07
8.41048e-05
-8.79029e-07
-9.6576e-07
8.40878e-05
8.0155e-05
1.01112e-06
8.07603e-05
2.63053e-06
8.1392e-05
3.37993e-06
8.19483e-05
3.54466e-06
8.24127e-05
3.42804e-06
8.27888e-05
3.16392e-06
8.30949e-05
2.84183e-06
8.33504e-05
2.51722e-06
8.35695e-05
2.21155e-06
8.37624e-05
1.93175e-06
8.39363e-05
1.67937e-06
8.4096e-05
1.45291e-06
8.42447e-05
1.24959e-06
8.43846e-05
1.06645e-06
8.45175e-05
9.00664e-07
8.46443e-05
7.49608e-07
8.4766e-05
6.10939e-07
8.4883e-05
4.82582e-07
8.49957e-05
3.62706e-07
8.51044e-05
2.497e-07
8.52092e-05
1.42146e-07
8.53099e-05
3.88024e-08
8.54064e-05
-6.14086e-08
8.54982e-05
-1.59398e-07
8.55848e-05
-2.55899e-07
8.56651e-05
-3.51433e-07
8.57382e-05
-4.4626e-07
8.58023e-05
-5.40293e-07
8.58558e-05
-6.32972e-07
8.58966e-05
-7.23167e-07
8.59224e-05
-8.0899e-07
8.59312e-05
-8.87826e-07
-9.56029e-07
8.59215e-05
8.23695e-05
8.02075e-07
8.28589e-05
2.14108e-06
8.34026e-05
2.8363e-06
8.39029e-05
3.04435e-06
8.43367e-05
2.99419e-06
8.47008e-05
2.79987e-06
8.50053e-05
2.53735e-06
8.52642e-05
2.25827e-06
8.54891e-05
1.98669e-06
8.56884e-05
1.73236e-06
8.58687e-05
1.49909e-06
8.60344e-05
1.28725e-06
8.61886e-05
1.0954e-06
8.63335e-05
9.21499e-07
8.64708e-05
7.63351e-07
8.66016e-05
6.18796e-07
8.67268e-05
4.85813e-07
8.68468e-05
3.6257e-07
8.69621e-05
2.47427e-07
8.70728e-05
1.38932e-07
8.71792e-05
3.5815e-08
8.7281e-05
-6.30199e-08
8.73781e-05
-1.58495e-07
8.747e-05
-2.51352e-07
8.75563e-05
-3.42136e-07
8.7636e-05
-4.31161e-07
8.77082e-05
-5.18462e-07
8.77716e-05
-6.03733e-07
8.78249e-05
-6.86239e-07
8.78665e-05
-7.64757e-07
8.7895e-05
-8.37459e-07
8.79091e-05
-9.01977e-07
-9.5533e-07
8.79084e-05
8.46691e-05
6.40705e-07
8.50677e-05
1.74257e-06
8.55359e-05
2.3681e-06
8.59855e-05
2.59469e-06
8.63896e-05
2.59015e-06
8.67399e-05
2.44949e-06
8.70408e-05
2.23654e-06
8.73014e-05
1.99759e-06
8.75308e-05
1.75733e-06
8.77359e-05
1.52723e-06
8.79223e-05
1.31271e-06
8.8094e-05
1.11555e-06
8.8254e-05
9.35454e-07
8.84043e-05
7.71192e-07
8.85465e-05
6.21144e-07
8.86817e-05
4.83573e-07
8.88108e-05
3.56771e-07
8.89342e-05
2.39138e-07
8.90524e-05
1.29223e-07
8.91656e-05
2.57311e-08
8.92739e-05
-7.2462e-08
8.93772e-05
-1.66313e-07
8.94753e-05
-2.56602e-07
8.95678e-05
-3.43924e-07
8.96544e-05
-4.28667e-07
8.97342e-05
-5.10987e-07
8.98065e-05
-5.90765e-07
8.98703e-05
-6.67573e-07
8.99247e-05
-7.40606e-07
8.99686e-05
-8.08666e-07
9.00013e-05
-8.70105e-07
9.00222e-05
-9.22887e-07
-9.64678e-07
9.00315e-05
8.70494e-05
5.13445e-07
8.73768e-05
1.41523e-06
8.77809e-05
1.96396e-06
8.81851e-05
2.19051e-06
8.85605e-05
2.21469e-06
8.88963e-05
2.11377e-06
8.91919e-05
1.94088e-06
8.94531e-05
1.73643e-06
8.96861e-05
1.52431e-06
8.98965e-05
1.31683e-06
9.00888e-05
1.12039e-06
9.02665e-05
9.37808e-07
9.04323e-05
7.69659e-07
9.05881e-05
6.15383e-07
9.07354e-05
4.73867e-07
9.08752e-05
3.43754e-07
9.10084e-05
2.23622e-07
9.11354e-05
1.12094e-07
9.12568e-05
7.89899e-09
9.13726e-05
-9.01062e-08
9.1483e-05
-1.82908e-07
9.15881e-05
-2.71336e-07
9.16875e-05
-3.56046e-07
9.17811e-05
-4.37507e-07
9.18684e-05
-5.15989e-07
9.1949e-05
-5.91536e-07
9.20221e-05
-6.63941e-07
9.20873e-05
-7.32724e-07
9.21438e-05
-7.97097e-07
9.21911e-05
-8.55972e-07
9.22289e-05
-9.07941e-07
9.22574e-05
-9.51343e-07
-9.84437e-07
9.22771e-05
8.9508e-05
4.10975e-07
8.97797e-05
1.14353e-06
9.01299e-05
1.61371e-06
9.04938e-05
1.8267e-06
9.08425e-05
1.86596e-06
9.11633e-05
1.79294e-06
9.14528e-05
1.65141e-06
9.17133e-05
1.47592e-06
9.1949e-05
1.28862e-06
9.21639e-05
1.1019e-06
9.23617e-05
9.22643e-07
9.25452e-05
7.54304e-07
9.27167e-05
5.98117e-07
9.28781e-05
4.54052e-07
9.30305e-05
3.21416e-07
9.31751e-05
1.99178e-07
9.33125e-05
8.61701e-08
9.34434e-05
-1.87808e-08
9.35681e-05
-1.16783e-07
9.36868e-05
-2.08837e-07
9.37997e-05
-2.9581e-07
9.39068e-05
-3.78416e-07
9.4008e-05
-4.57206e-07
9.4103e-05
-5.32554e-07
9.41917e-05
-6.04642e-07
9.42736e-05
-6.73447e-07
9.43484e-05
-7.38725e-07
9.44156e-05
-8.00005e-07
9.44751e-05
-8.56573e-07
9.45266e-05
-9.07497e-07
9.45703e-05
-9.5164e-07
9.46067e-05
-9.87715e-07
-1.01449e-06
9.46368e-05
9.2044e-05
3.26798e-07
9.22722e-05
9.15321e-07
9.25776e-05
1.30841e-06
9.2906e-05
1.49827e-06
9.32302e-05
1.54177e-06
9.35364e-05
1.48671e-06
9.38191e-05
1.36873e-06
9.40781e-05
1.21686e-06
9.43158e-05
1.05097e-06
9.45347e-05
8.82953e-07
9.47376e-05
7.19753e-07
9.49268e-05
5.65163e-07
9.5104e-05
4.20835e-07
9.5271e-05
2.87128e-07
9.54287e-05
1.6367e-07
9.55782e-05
4.96965e-08
9.57201e-05
-5.57462e-08
9.5855e-05
-1.53658e-07
9.59832e-05
-2.45002e-07
9.6105e-05
-3.30659e-07
9.62206e-05
-4.11386e-07
9.633e-05
-4.87805e-07
9.64332e-05
-5.60382e-07
9.653e-05
-6.29419e-07
9.66204e-05
-6.95044e-07
9.67042e-05
-7.57204e-07
9.67811e-05
-8.15658e-07
9.68511e-05
-8.69982e-07
9.69141e-05
-9.19574e-07
9.69703e-05
-9.63683e-07
9.70201e-05
-1.00144e-06
9.70643e-05
-1.0319e-06
-1.05425e-06
9.7104e-05
9.46577e-05
2.56299e-07
9.48519e-05
7.21081e-07
9.51201e-05
1.04023e-06
9.54179e-05
1.20046e-06
9.572e-05
1.23966e-06
9.60124e-05
1.19427e-06
9.62882e-05
1.09295e-06
9.65454e-05
9.59703e-07
9.67845e-05
8.11868e-07
9.7007e-05
6.60416e-07
9.72147e-05
5.1204e-07
9.74093e-05
3.70582e-07
9.75922e-05
2.37907e-07
9.77647e-05
1.14621e-07
9.79278e-05
5.78261e-10
9.80823e-05
-1.04789e-07
9.82288e-05
-2.02262e-07
9.83679e-05
-2.92702e-07
9.84998e-05
-3.76952e-07
9.86249e-05
-4.5579e-07
9.87434e-05
-5.29888e-07
9.88554e-05
-5.99789e-07
9.8961e-05
-6.659e-07
9.906e-05
-7.28473e-07
9.91526e-05
-7.8761e-07
9.92386e-05
-8.43255e-07
9.93182e-05
-8.95199e-07
9.93913e-05
-9.43094e-07
9.94582e-05
-9.86463e-07
9.95192e-05
-1.02474e-06
9.95751e-05
-1.05729e-06
9.96267e-05
-1.08349e-06
-1.10286e-06
9.96753e-05
9.73497e-05
1.96129e-07
9.75174e-05
5.5334e-07
9.77552e-05
8.02422e-07
9.8027e-05
9.28738e-07
9.83096e-05
9.56989e-07
9.85895e-05
9.14428e-07
9.88587e-05
8.23772e-07
9.91138e-05
7.04561e-07
9.93541e-05
5.71554e-07
9.958e-05
4.34533e-07
9.97924e-05
2.99669e-07
9.99923e-05
1.70636e-07
0.000100181
4.93288e-08
0.000100359
-6.35362e-08
0.000100528
-1.67971e-07
0.000100687
-2.64416e-07
0.000100839
-3.53534e-07
0.000100982
-4.36081e-07
0.000101118
-5.12811e-07
0.000101246
-5.84423e-07
0.000101368
-6.51521e-07
0.000101483
-7.14595e-07
0.000101591
-7.74007e-07
0.000101692
-8.29985e-07
0.000101787
-8.82623e-07
0.000101876
-9.31885e-07
0.000101958
-9.77612e-07
0.000102035
-1.01954e-06
0.000102106
-1.05733e-06
0.000102172
-1.09057e-06
0.000102233
-1.11886e-06
0.000102292
-1.14182e-06
-1.1592e-06
0.000102348
0.000100121
1.43801e-07
0.000100269
4.06185e-07
0.000100482
5.89133e-07
0.000100732
6.78812e-07
0.000100998
6.90967e-07
0.000101267
6.4561e-07
0.00010153
5.60458e-07
0.000101783
4.51159e-07
0.000102025
3.29962e-07
0.000102254
2.05297e-07
0.000102471
8.26276e-08
0.000102677
-3.47232e-08
0.000102871
-1.44988e-07
0.000103055
-2.47465e-07
0.000103229
-3.42127e-07
0.000103394
-4.29356e-07
0.00010355
-5.09748e-07
0.000103698
-5.83995e-07
0.000103838
-6.5279e-07
0.00010397
-7.16778e-07
0.000104095
-7.76519e-07
0.000104213
-8.32465e-07
0.000104324
-8.84955e-07
0.000104428
-9.34209e-07
0.000104526
-9.8033e-07
0.000104618
-1.02331e-06
0.000104703
-1.06306e-06
0.000104783
-1.0994e-06
0.000104858
-1.1321e-06
0.000104928
-1.16091e-06
0.000104995
-1.1856e-06
0.000105059
-1.20599e-06
-1.22199e-06
0.000105122
0.000102974
9.74134e-08
0.000103106
2.74873e-07
0.0001033
3.95291e-07
0.000103532
4.46643e-07
0.000103784
4.38724e-07
0.000104044
3.85966e-07
0.000104302
3.01929e-07
0.000104554
1.98896e-07
0.000104798
8.67513e-08
0.00010503
-2.74992e-08
0.000105252
-1.39237e-07
0.000105463
-2.45635e-07
0.000105663
-3.45188e-07
0.000105853
-4.37318e-07
0.000106033
-5.22051e-07
0.000106204
-5.99774e-07
0.000106365
-6.71072e-07
0.000106518
-7.3661e-07
0.000106662
-7.97053e-07
0.000106798
-8.53019e-07
0.000106927
-9.05042e-07
0.000107048
-9.53557e-07
0.000107162
-9.98897e-07
0.000107269
-1.04128e-06
0.000107369
-1.08084e-06
0.000107464
-1.11761e-06
0.000107552
-1.15155e-06
0.000107635
-1.18256e-06
0.000107714
-1.21052e-06
0.000107788
-1.23531e-06
0.000107859
-1.25683e-06
0.000107928
-1.27504e-06
-1.28998e-06
0.000107996
0.000105911
5.54694e-08
0.00010603
1.55532e-07
0.000106209
2.16452e-07
0.000106427
2.28391e-07
0.000106669
1.97292e-07
0.000106921
1.3335e-07
0.000107176
4.67066e-08
0.000107429
-5.32499e-08
0.000107674
-1.58814e-07
0.000107911
-2.64426e-07
0.000108138
-3.66406e-07
0.000108355
-4.6253e-07
0.000108562
-5.5167e-07
0.000108758
-6.33474e-07
0.000108944
-7.08098e-07
0.00010912
-7.76005e-07
0.000109287
-8.37817e-07
0.000109444
-8.94215e-07
0.000109593
-9.45869e-07
0.000109734
-9.93392e-07
0.000109866
-1.03731e-06
0.00010999
-1.07807e-06
0.000110107
-1.116e-06
0.000110217
-1.15134e-06
0.000110321
-1.18424e-06
0.000110418
-1.21478e-06
0.000110509
-1.24297e-06
0.000110596
-1.26879e-06
0.000110677
-1.2922e-06
0.000110755
-1.31317e-06
0.00011083
-1.3317e-06
0.000110903
-1.34785e-06
-1.36171e-06
0.000110975
0.000108932
1.67474e-08
0.000109043
4.4912e-08
0.000109211
4.86531e-08
0.000109419
2.03846e-08
0.000109652
-3.63802e-08
0.0001099
-1.14615e-07
0.000110154
-2.06982e-07
0.000110407
-3.0658e-07
0.000110656
-4.077e-07
0.000110898
-5.06215e-07
0.000111131
-5.99446e-07
0.000111354
-6.85864e-07
0.000111567
-7.6481e-07
0.00011177
-8.36247e-07
0.000111963
-9.00538e-07
0.000112145
-9.5828e-07
0.000112317
-1.01018e-06
0.00011248
-1.05699e-06
0.000112634
-1.09939e-06
0.000112778
-1.13802e-06
0.000112914
-1.17344e-06
0.000113042
-1.20609e-06
0.000113163
-1.23631e-06
0.000113276
-1.26438e-06
0.000113382
-1.29047e-06
0.000113482
-1.31469e-06
0.000113576
-1.33711e-06
0.000113665
-1.35776e-06
0.000113749
-1.37666e-06
0.00011383
-1.39386e-06
0.000113908
-1.4094e-06
0.000113983
-1.42342e-06
-1.43605e-06
0.000114058
0.000112041
-1.97968e-08
0.000112146
-5.98127e-08
0.000112306
-1.11745e-07
0.000112508
-1.80997e-07
0.000112737
-2.6553e-07
0.000112983
-3.6068e-07
0.000113237
-4.61405e-07
0.000113494
-5.62959e-07
0.000113747
-6.61459e-07
0.000113995
-7.54183e-07
0.000114235
-8.39492e-07
0.000114466
-9.16625e-07
0.000114687
-9.85475e-07
0.000114897
-1.0464e-06
0.000115096
-1.10003e-06
0.000115285
-1.14718e-06
0.000115464
-1.18867e-06
0.000115632
-1.22534e-06
0.000115791
-1.25795e-06
0.00011594
-1.28719e-06
0.00011608
-1.31363e-06
0.000116212
-1.33774e-06
0.000116335
-1.3599e-06
0.000116451
-1.38039e-06
0.00011656
-1.39943e-06
0.000116663
-1.41715e-06
0.000116759
-1.43365e-06
0.000116851
-1.44902e-06
0.000116937
-1.4633e-06
0.00011702
-1.47659e-06
0.000117099
-1.48896e-06
0.000117177
-1.50056e-06
-1.5115e-06
0.000117252
0.00011524
-5.5087e-08
0.000115341
-1.61195e-07
0.000115498
-2.68169e-07
0.000115696
-3.79328e-07
0.000115924
-4.93487e-07
0.000116171
-6.07752e-07
0.000116429
-7.18993e-07
0.00011669
-8.24365e-07
0.00011695
-9.21682e-07
0.000117206
-1.0096e-06
0.000117454
-1.08756e-06
0.000117693
-1.15563e-06
0.000117921
-1.21432e-06
0.00011814
-1.26446e-06
0.000118347
-1.30702e-06
0.000118542
-1.34305e-06
0.000118727
-1.37356e-06
0.000118901
-1.3995e-06
0.000119065
-1.42174e-06
0.000119219
-1.44102e-06
0.000119363
-1.45796e-06
0.000119499
-1.47307e-06
0.000119626
-1.48674e-06
0.000119744
-1.4993e-06
0.000119856
-1.51097e-06
0.000119961
-1.52192e-06
0.000120059
-1.53227e-06
0.000120153
-1.54213e-06
0.000120241
-1.55157e-06
0.000120325
-1.56069e-06
0.000120406
-1.5696e-06
0.000120483
-1.57844e-06
-1.58729e-06
0.000120559
0.000118531
-9.00084e-08
0.000118631
-2.6171e-07
0.000118787
-4.24094e-07
0.000118986
-5.78472e-07
0.000119217
-7.24117e-07
0.000119469
-8.59496e-07
0.000119733
-9.83108e-07
0.000120002
-1.09382e-06
0.000120272
-1.19105e-06
0.000120537
-1.27482e-06
0.000120795
-1.3457e-06
0.000121044
-1.40464e-06
0.000121283
-1.45286e-06
0.00012151
-1.4917e-06
0.000121725
-1.52255e-06
0.000121929
-1.54674e-06
0.000122121
-1.56552e-06
0.000122302
-1.57999e-06
0.000122471
-1.59114e-06
0.00012263
-1.59977e-06
0.000122778
-1.60657e-06
0.000122917
-1.61209e-06
0.000123047
-1.61677e-06
0.000123169
-1.62092e-06
0.000123283
-1.62481e-06
0.000123389
-1.62861e-06
0.00012349
-1.63246e-06
0.000123584
-1.63647e-06
0.000123673
-1.64071e-06
0.000123758
-1.64529e-06
0.000123838
-1.65027e-06
0.000123916
-1.65579e-06
-1.66187e-06
0.00012399
0.000121917
-1.25429e-07
0.000122019
-3.63797e-07
0.000122178
-5.82963e-07
0.000122381
-7.82262e-07
0.000122619
-9.61206e-07
0.000122878
-1.1194e-06
0.000123152
-1.2568e-06
0.000123432
-1.37391e-06
0.000123713
-1.47173e-06
0.00012399
-1.55165e-06
0.000124259
-1.61541e-06
0.00012452
-1.66492e-06
0.000124769
-1.70213e-06
0.000125006
-1.729e-06
0.000125231
-1.74736e-06
0.000125443
-1.75889e-06
0.000125643
-1.76508e-06
0.00012583
-1.76724e-06
0.000126005
-1.76646e-06
0.000126169
-1.76368e-06
0.000126322
-1.75963e-06
0.000126465
-1.75491e-06
0.000126598
-1.74998e-06
0.000126723
-1.74518e-06
0.000126839
-1.74079e-06
0.000126947
-1.73698e-06
0.000127048
-1.73389e-06
0.000127144
-1.73162e-06
0.000127233
-1.73024e-06
0.000127318
-1.72983e-06
0.000127398
-1.73044e-06
0.000127474
-1.73217e-06
-1.735e-06
0.000127547
0.0001254
-1.62356e-07
0.000125507
-4.70299e-07
0.000125673
-7.48991e-07
0.000125886
-9.95737e-07
0.000126135
-1.21018e-06
0.000126409
-1.39292e-06
0.000126697
-1.54532e-06
0.000126993
-1.6695e-06
0.000127289
-1.76806e-06
0.000127582
-1.84387e-06
0.000127866
-1.89991e-06
0.00012814
-1.93912e-06
0.000128402
-1.96431e-06
0.000128651
-1.97808e-06
0.000128887
-1.98278e-06
0.000129108
-1.98047e-06
0.000129316
-1.97293e-06
0.000129511
-1.96169e-06
0.000129692
-1.94798e-06
0.000129861
-1.93283e-06
0.000130019
-1.91706e-06
0.000130165
-1.90131e-06
0.000130301
-1.88605e-06
0.000130428
-1.87166e-06
0.000130545
-1.85838e-06
0.000130655
-1.8464e-06
0.000130757
-1.83583e-06
0.000130852
-1.82677e-06
0.000130941
-1.81924e-06
0.000131024
-1.81329e-06
0.000131103
-1.80891e-06
0.000131177
-1.80615e-06
-1.80491e-06
0.000131247
0.000128984
-2.01751e-07
0.000129098
-5.83975e-07
0.000129275
-9.26049e-07
0.000129503
-1.22318e-06
0.000129768
-1.47525e-06
0.000130059
-1.68398e-06
0.000130366
-1.85222e-06
0.00013068
-1.98376e-06
0.000130995
-2.0829e-06
0.000131305
-2.15406e-06
0.000131607
-2.20152e-06
0.000131897
-2.22936e-06
0.000132174
-2.24128e-06
0.000132436
-2.24062e-06
0.000132684
-2.23029e-06
0.000132916
-2.21277e-06
0.000133133
-2.19018e-06
0.000133336
-2.16425e-06
0.000133524
-2.13642e-06
0.000133699
-2.10781e-06
0.000133862
-2.0793e-06
0.000134012
-2.05158e-06
0.000134151
-2.02516e-06
0.00013428
-2.00039e-06
0.000134399
-1.97752e-06
0.000134509
-1.95672e-06
0.000134611
-1.93808e-06
0.000134706
-1.92164e-06
0.000134795
-1.90741e-06
0.000134877
-1.89538e-06
0.000134953
-1.88551e-06
0.000135025
-1.87781e-06
-1.87211e-06
0.000135092
0.000132673
-2.4531e-07
0.000132798
-7.09469e-07
0.000132993
-1.12113e-06
0.000133243
-1.47311e-06
0.000133534
-1.76567e-06
0.000133851
-2.00181e-06
0.000134185
-2.18608e-06
0.000134526
-2.32427e-06
0.000134866
-2.42268e-06
0.000135199
-2.48744e-06
0.000135522
-2.52437e-06
0.000135831
-2.53877e-06
0.000136125
-2.53536e-06
0.000136403
-2.51825e-06
0.000136664
-2.49095e-06
0.000136907
-2.45642e-06
0.000137134
-2.4171e-06
0.000137345
-2.37496e-06
0.00013754
-2.3316e-06
0.00013772
-2.28824e-06
0.000137887
-2.24585e-06
0.000138041
-2.20513e-06
0.000138182
-2.1666e-06
0.000138312
-2.1306e-06
0.000138432
-2.09736e-06
0.000138542
-2.06702e-06
0.000138644
-2.03962e-06
0.000138737
-2.01516e-06
0.000138824
-1.99359e-06
0.000138903
-1.97484e-06
0.000138976
-1.9588e-06
0.000139044
-1.94538e-06
-1.93433e-06
0.000139106
0.000136467
-2.93876e-07
0.000136607
-8.49664e-07
0.000136824
-1.33797e-06
0.0001371
-1.7494e-06
0.00013742
-2.08534e-06
0.000137769
-2.35046e-06
0.000138134
-2.55124e-06
0.000138505
-2.69568e-06
0.000138875
-2.7922e-06
0.000139236
-2.84888e-06
0.000139585
-2.87318e-06
0.000139918
-2.87181e-06
0.000140233
-2.85062e-06
0.00014053
-2.8146e-06
0.000140807
-2.76795e-06
0.000141064
-2.71413e-06
0.000141303
-2.65595e-06
0.000141524
-2.59565e-06
0.000141727
-2.53497e-06
0.000141914
-2.47528e-06
0.000142086
-2.41757e-06
0.000142243
-2.36257e-06
0.000142387
-2.31078e-06
0.000142519
-2.26254e-06
0.00014264
-2.21802e-06
0.00014275
-2.17731e-06
0.000142851
-2.14041e-06
0.000142943
-2.10726e-06
0.000143027
-2.07775e-06
0.000143104
-2.05174e-06
0.000143175
-2.02907e-06
0.000143239
-2.00961e-06
-1.99304e-06
0.000143298
0.000140374
-3.52102e-07
0.00014054
-1.01579e-06
0.000140795
-1.59249e-06
0.000141115
-2.07003e-06
0.000141482
-2.45193e-06
0.000141877
-2.7456e-06
0.000142286
-2.96048e-06
0.000142698
-3.10773e-06
0.000143105
-3.1985e-06
0.000143499
-3.24315e-06
0.000143877
-3.25099e-06
0.000144235
-3.23023e-06
0.000144572
-3.18789e-06
0.000144888
-3.12986e-06
0.000145181
-3.06103e-06
0.000145452
-2.98536e-06
0.000145702
-2.90601e-06
0.000145932
-2.82545e-06
0.000146142
-2.74561e-06
0.000146335
-2.6679e-06
0.000146511
-2.59338e-06
0.000146671
-2.52277e-06
0.000146817
-2.45655e-06
0.000146949
-2.395e-06
0.00014707
-2.33824e-06
0.000147179
-2.28631e-06
0.000147277
-2.23912e-06
0.000147366
-2.19654e-06
0.000147447
-2.15839e-06
0.00014752
-2.12445e-06
0.000147585
-2.09446e-06
0.000147644
-2.06817e-06
-2.04518e-06
0.000147696
0.00014439
-4.17828e-07
0.000144581
-1.20676e-06
0.000144872
-1.88357e-06
0.000145238
-2.43525e-06
0.000145654
-2.86874e-06
0.000146103
-3.194e-06
0.000146566
-3.42351e-06
0.00014703
-3.57199e-06
0.000147486
-3.65392e-06
0.000147925
-3.68242e-06
0.000148343
-3.66915e-06
0.000148737
-3.62417e-06
0.000149105
-3.55594e-06
0.000149446
-3.47142e-06
0.000149762
-3.37627e-06
0.000150051
-3.27501e-06
0.000150317
-3.17115e-06
0.000150558
-3.06743e-06
0.000150779
-2.96586e-06
0.000150979
-2.86793e-06
0.00015116
-2.77468e-06
0.000151324
-2.68681e-06
0.000151472
-2.60472e-06
0.000151606
-2.52862e-06
0.000151726
-2.45855e-06
0.000151834
-2.39444e-06
0.000151931
-2.33614e-06
0.000152018
-2.28342e-06
0.000152096
-2.23603e-06
0.000152165
-2.19368e-06
0.000152227
-2.15604e-06
0.000152281
-2.12282e-06
-2.09352e-06
0.00015233
0.000148541
-5.10447e-07
0.000148793
-1.45922e-06
0.000149163
-2.25389e-06
0.000149612
-2.88347e-06
0.000150108
-3.36489e-06
0.000150628
-3.71464e-06
0.000151156
-3.95076e-06
0.000151677
-4.09289e-06
0.000152182
-4.1591e-06
0.000152665
-4.16529e-06
0.000153121
-4.12535e-06
0.000153548
-4.05112e-06
0.000153944
-3.95239e-06
0.00015431
-3.83715e-06
0.000154645
-3.71181e-06
0.000154952
-3.5814e-06
0.00015523
-3.44983e-06
0.000155483
-3.32e-06
0.000155711
-3.19408e-06
0.000155917
-3.07359e-06
0.000156102
-2.95953e-06
0.000156268
-2.85254e-06
0.000156416
-2.75294e-06
0.000156548
-2.66084e-06
0.000156666
-2.57616e-06
0.00015677
-2.49874e-06
0.000156862
-2.42829e-06
0.000156943
-2.36451e-06
0.000157014
-2.30703e-06
0.000157076
-2.25546e-06
0.000157129
-2.20937e-06
0.000157175
-2.16837e-06
-2.13181e-06
0.000157213
0.000152784
-6.05452e-07
0.000153073
-1.74766e-06
0.000153504
-2.68537e-06
0.000154035
-3.41444e-06
0.000154629
-3.95839e-06
0.000155252
-4.33767e-06
0.000155879
-4.57785e-06
0.000156492
-4.70631e-06
0.00015708
-4.74684e-06
0.000157634
-4.71962e-06
0.000158151
-4.64189e-06
0.000158627
-4.52788e-06
0.000159064
-4.38907e-06
0.000159462
-4.23463e-06
0.000159822
-4.07173e-06
0.000160146
-3.9059e-06
0.000160437
-3.74126e-06
0.000160698
-3.58087e-06
0.000160931
-3.42687e-06
0.000161138
-3.2807e-06
0.000161322
-3.14325e-06
0.000161484
-3.01501e-06
0.000161628
-2.89613e-06
0.000161753
-2.78655e-06
0.000161863
-2.68603e-06
0.000161959
-2.59424e-06
0.000162041
-2.51078e-06
0.000162112
-2.43522e-06
0.000162172
-2.36709e-06
0.000162222
-2.30596e-06
0.000162264
-2.25135e-06
0.000162299
-2.20283e-06
-2.15963e-06
0.000162327
0.000157245
-7.99452e-07
0.000157695
-2.19672e-06
0.000158285
-3.27538e-06
0.000158949
-4.07879e-06
0.000159652
-4.66155e-06
0.000160366
-5.05144e-06
0.000161069
-5.28139e-06
0.000161748
-5.38494e-06
0.000162391
-5.39004e-06
0.000162992
-5.32055e-06
0.000163547
-5.19683e-06
0.000164055
-5.0355e-06
0.000164515
-4.84984e-06
0.000164931
-4.65026e-06
0.000165304
-4.44475e-06
0.000165637
-4.23929e-06
0.000165934
-4.03825e-06
0.000166198
-3.84471e-06
0.000166432
-3.66072e-06
0.000166639
-3.48755e-06
0.000166822
-3.3259e-06
0.000166983
-3.17598e-06
0.000167124
-3.03772e-06
0.000167248
-2.9108e-06
0.000167357
-2.79476e-06
0.000167452
-2.68906e-06
0.000167534
-2.59311e-06
0.000167605
-2.50632e-06
0.000167666
-2.42816e-06
0.000167719
-2.35807e-06
0.000167763
-2.29558e-06
0.0001678
-2.24023e-06
-2.19118e-06
0.000167832
0.000161692
-9.5267e-07
0.000162213
-2.71806e-06
0.000162951
-4.01329e-06
0.000163812
-4.94029e-06
0.000164721
-5.57041e-06
0.000165621
-5.95162e-06
0.000166484
-6.14419e-06
0.000167297
-6.19773e-06
0.000168055
-6.14794e-06
0.000168758
-6.02335e-06
0.000169408
-5.84675e-06
0.000170008
-5.63572e-06
0.000170562
-5.40379e-06
0.000171073
-5.16131e-06
0.000171544
-4.91608e-06
0.000171979
-4.67387e-06
0.000172379
-4.43884e-06
0.000172749
-4.21391e-06
0.000173089
-4.001e-06
0.000173403
-3.80124e-06
0.000173692
-3.61518e-06
0.000173959
-3.44291e-06
0.000174205
-3.28418e-06
0.000174433
-3.13853e-06
0.000174644
-3.00534e-06
0.000174838
-2.8839e-06
0.000175019
-2.7735e-06
0.000175186
-2.67344e-06
0.000175341
-2.58317e-06
0.000175485
-2.50214e-06
0.00017562
-2.4302e-06
0.000175746
-2.36692e-06
-2.31257e-06
0.000175868
0.000166689
-1.48817e-06
0.000167546
-3.57457e-06
0.000168487
-4.95446e-06
0.000169505
-5.95823e-06
0.000170601
-6.66686e-06
0.000171756
-7.10685e-06
0.000172952
-7.33935e-06
0.000174164
-7.41063e-06
0.000175371
-7.35478e-06
0.000176551
-7.2029e-06
0.000177686
-6.98177e-06
0.000178763
-6.71332e-06
0.000179775
-6.41531e-06