/*--------------------------------*- C++ -*----------------------------------*\
  =========                 |
  \\      /  F ield         | OpenFOAM: The Open Source CFD Toolbox
   \\    /   O peration     | Website:  https://openfoam.org
    \\  /    A nd           | Version:  10
     \\/     M anipulation  |
\*---------------------------------------------------------------------------*/
FoamFile
{
    format      ascii;
    class       volVectorField;
    location    "0.13";
    object      U;
}
// * * * * * * * * * * * * * * * * * * * * * * * * * * * * * * * * * * * * * //

dimensions      [0 1 -1 0 0 0 0];

internalField   nonuniform List<vector> 
6820
(
(5.57358 0.459146 0)
(3.88309 0.245915 0)
(2.58943 0.00879624 0)
(1.95765 -0.0641917 0)
(1.73247 -0.0595024 0)
(1.62154 -0.0340424 0)
(1.55682 -0.0153876 0)
(1.51116 -0.0053234 0)
(1.47291 -0.000737142 0)
(1.43994 0.000759376 0)
(1.41172 0.000805723 0)
(1.38779 0.000286733 0)
(1.36768 -0.000389161 0)
(1.3509 -0.00104202 0)
(1.33698 -0.00160348 0)
(1.32556 -0.00205954 0)
(1.31632 -0.00242028 0)
(1.30904 -0.00270391 0)
(1.30354 -0.0029293 0)
(1.29972 -0.00311057 0)
(1.29748 -0.00326352 0)
(1.29688 -0.00335177 0)
(1.29787 -0.00361353 0)
(1.30047 -0.00386115 0)
(1.30485 -0.00414252 0)
(1.31116 -0.0044444 0)
(1.3196 -0.00484675 0)
(1.33069 -0.00535979 0)
(1.34434 -0.00617835 0)
(1.36311 -0.00692669 0)
(1.38257 -0.00934322 0)
(1.42106 -0.0070689 0)
(1.4298 -0.0381479 0)
(7.66981 0.863881 0)
(7.71736 0.890756 0)
(7.0004 0.598365 0)
(6.19813 0.347431 0)
(5.58511 0.179482 0)
(5.14084 0.092957 0)
(4.8243 0.0525664 0)
(4.59609 0.0340513 0)
(4.42523 0.0255427 0)
(4.29248 0.0211801 0)
(4.18613 0.0184903 0)
(4.09889 0.0165306 0)
(4.02611 0.014924 0)
(3.96466 0.0135029 0)
(3.91238 0.0121795 0)
(3.86773 0.0109049 0)
(3.82954 0.00965014 0)
(3.79695 0.00839514 0)
(3.76931 0.00712281 0)
(3.7461 0.00581822 0)
(3.72697 0.00445633 0)
(3.71161 0.00304149 0)
(3.69982 0.00146283 0)
(3.69155 -0.000250576 0)
(3.68677 -0.00215256 0)
(3.68555 -0.00434369 0)
(3.68802 -0.00690242 0)
(3.69453 -0.00988538 0)
(3.70541 -0.0137534 0)
(3.72179 -0.0182382 0)
(3.74374 -0.0258534 0)
(3.77659 -0.0337187 0)
(3.81663 -0.0538657 0)
(7.56353 0.520276 0)
(8.22523 0.663466 0)
(8.46504 0.576027 0)
(8.36448 0.458442 0)
(8.12918 0.344345 0)
(7.85299 0.259447 0)
(7.58368 0.199758 0)
(7.34106 0.15688 0)
(7.12846 0.125647 0)
(6.94392 0.102364 0)
(6.78423 0.0845365 0)
(6.64599 0.070579 0)
(6.52615 0.0594417 0)
(6.42207 0.0504045 0)
(6.33153 0.0429423 0)
(6.25268 0.0366589 0)
(6.18397 0.0312534 0)
(6.12415 0.0264958 0)
(6.07216 0.0222069 0)
(6.02715 0.0182411 0)
(5.98842 0.0144753 0)
(5.95542 0.0107922 0)
(5.92771 0.00713282 0)
(5.90498 0.00336068 0)
(5.88699 -0.000650804 0)
(5.87359 -0.00504791 0)
(5.86486 -0.0100119 0)
(5.86098 -0.015752 0)
(5.86217 -0.022705 0)
(5.86888 -0.0311122 0)
(5.88139 -0.0427045 0)
(5.89998 -0.0573229 0)
(5.92409 -0.0818804 0)
(7.43337 0.341048 0)
(7.88469 0.514378 0)
(8.24346 0.489431 0)
(8.44216 0.429589 0)
(8.54205 0.358358 0)
(8.57245 0.29778 0)
(8.55792 0.251684 0)
(8.51803 0.21618 0)
(8.46384 0.18825 0)
(8.40176 0.165619 0)
(8.336 0.146691 0)
(8.2693 0.130496 0)
(8.20347 0.116401 0)
(8.13985 0.103958 0)
(8.07929 0.0928656 0)
(8.02228 0.0828898 0)
(7.96911 0.0738351 0)
(7.91993 0.0655307 0)
(7.87478 0.0578247 0)
(7.83363 0.0505793 0)
(7.79644 0.0436637 0)
(7.76315 0.0369562 0)
(7.73368 0.0303284 0)
(7.70798 0.0236306 0)
(7.68603 0.0167132 0)
(7.66781 0.00940015 0)
(7.6533 0.00142211 0)
(7.64251 -0.00752003 0)
(7.63553 -0.0178873 0)
(7.63248 -0.0301005 0)
(7.63329 -0.0452922 0)
(7.63717 -0.0639173 0)
(7.64392 -0.0875642 0)
(7.39683 0.250986 0)
(7.68001 0.420937 0)
(7.92347 0.403826 0)
(8.07749 0.353829 0)
(8.18803 0.299109 0)
(8.2704 0.25345 0)
(8.33138 0.219522 0)
(8.37832 0.193642 0)
(8.4152 0.17305 0)
(8.44406 0.156081 0)
(8.46649 0.141629 0)
(8.48371 0.129014 0)
(8.49671 0.11781 0)
(8.50608 0.10771 0)
(8.51246 0.0984793 0)
(8.51645 0.0899311 0)
(8.51859 0.0819163 0)
(8.51933 0.0743093 0)
(8.51908 0.0669989 0)
(8.51817 0.0598828 0)
(8.51691 0.0528611 0)
(8.51555 0.0458312 0)
(8.5143 0.0386866 0)
(8.51338 0.0313005 0)
(8.51295 0.0235279 0)
(8.51313 0.0151954 0)
(8.51407 0.0060844 0)
(8.51568 -0.00405143 0)
(8.51783 -0.0156107 0)
(8.52033 -0.0290205 0)
(8.52283 -0.0449855 0)
(8.52429 -0.0638742 0)
(8.52398 -0.0860878 0)
(7.37403 0.180634 0)
(7.57415 0.335996 0)
(7.76094 0.342151 0)
(7.87551 0.312951 0)
(7.95183 0.273775 0)
(8.00732 0.235619 0)
(8.0489 0.20427 0)
(8.08322 0.179184 0)
(8.11372 0.158875 0)
(8.14157 0.142187 0)
(8.16731 0.128155 0)
(8.19125 0.116061 0)
(8.21358 0.105435 0)
(8.23453 0.0959508 0)
(8.25422 0.0873413 0)
(8.27273 0.0793973 0)
(8.29012 0.0719553 0)
(8.30649 0.0648813 0)
(8.32189 0.058059 0)
(8.3364 0.0513827 0)
(8.35009 0.0447509 0)
(8.36303 0.0380612 0)
(8.37526 0.0312065 0)
(8.38684 0.024064 0)
(8.39778 0.0164954 0)
(8.4081 0.00834329 0)
(8.41774 -0.00056917 0)
(8.4267 -0.0104477 0)
(8.4349 -0.0216001 0)
(8.44202 -0.0343454 0)
(8.44759 -0.0490639 0)
(8.45071 -0.0659475 0)
(8.45058 -0.0848202 0)
(7.35906 0.132706 0)
(7.50334 0.273023 0)
(7.65577 0.294827 0)
(7.75585 0.278067 0)
(7.82204 0.248512 0)
(7.86908 0.216629 0)
(7.90259 0.188961 0)
(7.92829 0.16624 0)
(7.94991 0.147474 0)
(7.96904 0.131781 0)
(7.98655 0.118412 0)
(8.00297 0.106792 0)
(8.01858 0.0965088 0)
(8.03354 0.0872629 0)
(8.04795 0.0788306 0)
(8.06188 0.0710366 0)
(8.07538 0.0637356 0)
(8.08847 0.0568018 0)
(8.10117 0.050123 0)
(8.1135 0.0435953 0)
(8.12546 0.0371191 0)
(8.13706 0.0305952 0)
(8.14828 0.0239209 0)
(8.15912 0.0169838 0)
(8.16955 0.00966156 0)
(8.17951 0.00181495 0)
(8.18894 -0.00672012 0)
(8.19773 -0.0161455 0)
(8.20568 -0.0266751 0)
(8.21243 -0.0384942 0)
(8.21753 -0.05177 0)
(8.22022 -0.0665235 0)
(8.21991 -0.082472 0)
(7.34965 0.0989987 0)
(7.45345 0.220398 0)
(7.57655 0.250188 0)
(7.6653 0.243465 0)
(7.72716 0.223813 0)
(7.77293 0.199677 0)
(7.80641 0.176837 0)
(7.8319 0.156917 0)
(7.85279 0.139703 0)
(7.87077 0.124819 0)
(7.88677 0.111866 0)
(7.90143 0.100454 0)
(7.91514 0.0902687 0)
(7.92811 0.0810696 0)
(7.94051 0.07266 0)
(7.95245 0.0648733 0)
(7.964 0.0575673 0)
(7.97521 0.0506188 0)
(7.98613 0.0439182 0)
(7.99678 0.0373648 0)
(8.00718 0.0308629 0)
(8.01734 0.0243178 0)
(8.02724 0.017633 0)
(8.03688 0.0107062 0)
(8.04622 0.00342618 0)
(8.0552 -0.00432907 0)
(8.0637 -0.0126958 0)
(8.07156 -0.0218099 0)
(8.07857 -0.0317915 0)
(8.08441 -0.0427288 0)
(8.08867 -0.0546544 0)
(8.09074 -0.0674847 0)
(8.09021 -0.0808629 0)
(7.34381 0.0750316 0)
(7.41922 0.178418 0)
(7.51806 0.212715 0)
(7.59547 0.213583 0)
(7.65201 0.201028 0)
(7.69549 0.182384 0)
(7.72862 0.163034 0)
(7.75448 0.14531 0)
(7.77588 0.129562 0)
(7.79435 0.115688 0)
(7.81075 0.103455 0)
(7.82569 0.0925773 0)
(7.83956 0.0827965 0)
(7.8526 0.0739031 0)
(7.86498 0.0657219 0)
(7.87683 0.0581042 0)
(7.88823 0.0509231 0)
(7.89925 0.0440678 0)
(7.90992 0.0374383 0)
(7.92028 0.0309417 0)
(7.93036 0.0244895 0)
(7.94015 0.0179949 0)
(7.94965 0.011371 0)
(7.95883 0.00452851 0)
(7.96767 -0.00262548 0)
(7.97607 -0.0101835 0)
(7.98394 -0.0182398 0)
(7.99112 -0.0268798 0)
(7.99741 -0.0361688 0)
(8.00251 -0.0461296 0)
(8.0061 -0.0567085 0)
(8.00772 -0.0677454 0)
(8.00708 -0.0788619 0)
(7.34017 0.0577762 0)
(7.39554 0.144713 0)
(7.47471 0.180081 0)
(7.54166 0.185908 0)
(7.59294 0.178682 0)
(7.63381 0.164879 0)
(7.66607 0.149148 0)
(7.69184 0.13394 0)
(7.71336 0.119916 0)
(7.73201 0.107191 0)
(7.74859 0.0957146 0)
(7.76368 0.0853382 0)
(7.77765 0.0758933 0)
(7.79078 0.0672268 0)
(7.80321 0.0592016 0)
(7.81509 0.051694 0)
(7.82648 0.0445929 0)
(7.83746 0.0377976 0)
(7.84806 0.0312154 0)
(7.85832 0.0247601 0)
(7.86825 0.0183496 0)
(7.87786 0.0119051 0)
(7.88712 0.00534934 0)
(7.89602 -0.00139364 0)
(7.90451 -0.00839788 0)
(7.91251 -0.0157327 0)
(7.91993 -0.0234613 0)
(7.92662 -0.0316307 0)
(7.93241 -0.0402556 0)
(7.93704 -0.0493014 0)
(7.94028 -0.0586561 0)
(7.94177 -0.0681172 0)
(7.94137 -0.0773168 0)
(7.33788 0.0451122 0)
(7.37906 0.117597 0)
(7.44252 0.152007 0)
(7.50014 0.161179 0)
(7.54642 0.158045 0)
(7.58452 0.148145 0)
(7.61558 0.135399 0)
(7.64096 0.122251 0)
(7.66242 0.109637 0)
(7.68115 0.0978834 0)
(7.69786 0.0870855 0)
(7.71308 0.0771996 0)
(7.72717 0.0681213 0)
(7.74038 0.0597362 0)
(7.75288 0.0519315 0)
(7.76478 0.0445999 0)
(7.77617 0.037642 0)
(7.78711 0.0309664 0)
(7.79765 0.024489 0)
(7.80782 0.018131 0)
(7.81761 0.0118189 0)
(7.82705 0.00548254 0)
(7.83611 -0.000944193 0)
(7.84476 -0.00752335 0)
(7.85297 -0.0143115 0)
(7.86065 -0.0213563 0)
(7.86773 -0.0286924 0)
(7.87406 -0.0363321 0)
(7.87951 -0.0442526 0)
(7.88389 -0.0523838 0)
(7.88701 -0.0605856 0)
(7.88863 -0.0686413 0)
(7.88869 -0.0762145 0)
(7.33643 0.0356346 0)
(7.36748 0.0957196 0)
(7.41847 0.12784 0)
(7.46784 0.138864 0)
(7.5094 0.138571 0)
(7.54472 0.131675 0)
(7.57442 0.121482 0)
(7.59929 0.11028 0)
(7.62063 0.0991216 0)
(7.6394 0.0884436 0)
(7.65623 0.0784326 0)
(7.67158 0.0691232 0)
(7.6858 0.0604709 0)
(7.69911 0.0524033 0)
(7.71168 0.0448386 0)
(7.72362 0.0376924 0)
(7.73503 0.0308823 0)
(7.74596 0.0243299 0)
(7.75646 0.0179613 0)
(7.76654 0.0117067 0)
(7.77623 0.00550123 0)
(7.78553 -0.000715892 0)
(7.79441 -0.00700013 0)
(7.80286 -0.0134006 0)
(7.81083 -0.019958 0)
(7.81825 -0.0267012 0)
(7.82506 -0.0336421 0)
(7.83114 -0.0407685 0)
(7.83639 -0.0480337 0)
(7.84066 -0.0553468 0)
(7.84383 -0.0625571 0)
(7.84574 -0.0694511 0)
(7.84641 -0.0757349 0)
(7.33549 0.0283901 0)
(7.35926 0.0779555 0)
(7.4004 0.107031 0)
(7.44263 0.118816 0)
(7.47982 0.120466 0)
(7.51242 0.115888 0)
(7.54063 0.107819 0)
(7.56481 0.0982984 0)
(7.58588 0.0884112 0)
(7.6046 0.0786768 0)
(7.62149 0.0693596 0)
(7.63696 0.0605647 0)
(7.65129 0.0523021 0)
(7.66472 0.0445368 0)
(7.67738 0.0372132 0)
(7.6894 0.0302652 0)
(7.70085 0.0236239 0)
(7.7118 0.0172212 0)
(7.72228 0.0109915 0)
(7.73231 0.00487322 0)
(7.74192 -0.00119065 0)
(7.75111 -0.00725177 0)
(7.75985 -0.0133555 0)
(7.76814 -0.0195392 0)
(7.77592 -0.0258302 0)
(7.78316 -0.032242 0)
(7.78978 -0.0387698 0)
(7.79571 -0.0453846 0)
(7.80086 -0.0520252 0)
(7.80515 -0.0585922 0)
(7.8085 -0.0649379 0)
(7.81082 -0.0708661 0)
(7.81217 -0.0761309 0)
(7.33486 0.0227329 0)
(7.35336 0.0634204 0)
(7.38676 0.089093 0)
(7.42287 0.100802 0)
(7.45607 0.103615 0)
(7.48605 0.100695 0)
(7.5127 0.0942959 0)
(7.53609 0.0861944 0)
(7.55679 0.0774495 0)
(7.57539 0.0686186 0)
(7.5923 0.0600081 0)
(7.60785 0.0517668 0)
(7.62229 0.0439418 0)
(7.63583 0.0365273 0)
(7.64859 0.0294894 0)
(7.66068 0.0227797 0)
(7.67218 0.0163427 0)
(7.68315 0.0101216 0)
(7.69362 0.00406044 0)
(7.70362 -0.00189355 0)
(7.71317 -0.00778906 0)
(7.72226 -0.0136691 0)
(7.73089 -0.0195697 0)
(7.73904 -0.0255181 0)
(7.74669 -0.0315304 0)
(7.75378 -0.0376084 0)
(7.76028 -0.0437359 0)
(7.76613 -0.0498739 0)
(7.77128 -0.0559554 0)
(7.77567 -0.0618821 0)
(7.77927 -0.0675186 0)
(7.78206 -0.0726937 0)
(7.78411 -0.077209 0)
(7.33444 0.0182215 0)
(7.34906 0.0514121 0)
(7.3764 0.0735769 0)
(7.40733 0.0846016 0)
(7.43694 0.0879671 0)
(7.46446 0.0861767 0)
(7.48955 0.0810644 0)
(7.51207 0.0741399 0)
(7.53233 0.0663848 0)
(7.55073 0.058359 0)
(7.5676 0.0503903 0)
(7.58318 0.0426577 0)
(7.5977 0.0352398 0)
(7.61133 0.0281563 0)
(7.62417 0.0213935 0)
(7.63634 0.0149189 0)
(7.64789 0.00868965 0)
(7.65889 0.00265864 0)
(7.66937 -0.00322151 0)
(7.67935 -0.0089959 0)
(7.68885 -0.0147058 0)
(7.69787 -0.0203867 0)
(7.70641 -0.026067 0)
(7.71447 -0.0317658 0)
(7.72201 -0.037491 0)
(7.72901 -0.0432363 0)
(7.73545 -0.0489789 0)
(7.74129 -0.0546758 0)
(7.74649 -0.0602608 0)
(7.75105 -0.0656431 0)
(7.75496 -0.0707049 0)
(7.75823 -0.0753036 0)
(7.76095 -0.0792858 0)
(7.33414 0.01455 0)
(7.3459 0.0413804 0)
(7.36849 0.0600905 0)
(7.39509 0.0700016 0)
(7.42152 0.0734317 0)
(7.44677 0.0723124 0)
(7.47034 0.0681212 0)
(7.49195 0.0621188 0)
(7.5117 0.0551878 0)
(7.52985 0.0478686 0)
(7.54663 0.0404929 0)
(7.56222 0.033255 0)
(7.5768 0.0262525 0)
(7.5905 0.0195223 0)
(7.60343 0.0130655 0)
(7.61566 0.00686125 0)
(7.62727 0.000876722 0)
(7.6383 -0.00492662 0)
(7.64879 -0.0105887 0)
(7.65875 -0.0161479 0)
(7.66822 -0.0216388 0)
(7.67719 -0.0270906 0)
(7.68567 -0.0325252 0)
(7.69365 -0.0379554 0)
(7.70112 -0.0433832 0)
(7.70807 -0.048798 0)
(7.71448 -0.0541738 0)
(7.72035 -0.0594683 0)
(7.72565 -0.0646206 0)
(7.7304 -0.0695513 0)
(7.73462 -0.074163 0)
(7.73835 -0.0783424 0)
(7.74169 -0.0819757 0)
(7.33393 0.0115031 0)
(7.34354 0.0328941 0)
(7.36242 0.0482886 0)
(7.38543 0.0567946 0)
(7.40908 0.0599066 0)
(7.43227 0.0590817 0)
(7.45441 0.0554966 0)
(7.47511 0.050188 0)
(7.49432 0.0439265 0)
(7.51219 0.0372125 0)
(7.52884 0.0303659 0)
(7.54441 0.0235832 0)
(7.55902 0.0169723 0)
(7.57278 0.0105819 0)
(7.58577 0.00442417 0)
(7.59807 -0.00151175 0)
(7.60973 -0.00725005 0)
(7.6208 -0.0128218 0)
(7.6313 -0.0182602 0)
(7.64126 -0.0235977 0)
(7.6507 -0.0288634 0)
(7.65964 -0.0340813 0)
(7.66807 -0.0392683 0)
(7.676 -0.044433 0)
(7.68344 -0.049574 0)
(7.69036 -0.0546787 0)
(7.69678 -0.0597216 0)
(7.7027 -0.064664 0)
(7.70813 -0.0694533 0)
(7.71308 -0.0740238 0)
(7.7176 -0.0782987 0)
(7.72175 -0.0821924 0)
(7.72562 -0.0856249 0)
(7.33377 0.00892609 0)
(7.34177 0.0256153 0)
(7.35775 0.0378716 0)
(7.37781 0.0447836 0)
(7.39906 0.0472807 0)
(7.42043 0.0464382 0)
(7.44124 0.0431809 0)
(7.46106 0.0383493 0)
(7.47974 0.0326008 0)
(7.4973 0.0263851 0)
(7.5138 0.0200002 0)
(7.52933 0.0136364 0)
(7.54396 0.00740385 0)
(7.55776 0.00135718 0)
(7.57082 -0.00448512 0)
(7.58318 -0.0101275 0)
(7.59489 -0.0155884 0)
(7.60599 -0.0208937 0)
(7.61651 -0.026072 0)
(7.62647 -0.0311513 0)
(7.6359 -0.0361568 0)
(7.64481 -0.0411088 0)
(7.65321 -0.046021 0)
(7.66111 -0.0508997 0)
(7.66852 -0.0557422 0)
(7.67544 -0.0605362 0)
(7.68189 -0.0652591 0)
(7.68787 -0.069878 0)
(7.69342 -0.0743499 0)
(7.69856 -0.0786236 0)
(7.70335 -0.0826416 0)
(7.70785 -0.0863434 0)
(7.71215 -0.0896762 0)
(7.33365 0.00670529 0)
(7.34042 0.0192775 0)
(7.35415 0.0285805 0)
(7.37181 0.0337819 0)
(7.39104 0.0354357 0)
(7.4108 0.0343196 0)
(7.43043 0.0311508 0)
(7.44944 0.0266014 0)
(7.4676 0.0212199 0)
(7.48486 0.0153985 0)
(7.50121 0.00940476 0)
(7.51668 0.00341415 0)
(7.53131 -0.00246823 0)
(7.54517 -0.00818767 0)
(7.55828 -0.0137232 0)
(7.5707 -0.019076 0)
(7.58246 -0.0242608 0)
(7.5936 -0.0292996 0)
(7.60414 -0.0342174 0)
(7.61412 -0.0390391 0)
(7.62355 -0.0437867 0)
(7.63244 -0.0484778 0)
(7.64082 -0.0531244 0)
(7.64871 -0.0577317 0)
(7.65611 -0.0622971 0)
(7.66303 -0.0668102 0)
(7.66951 -0.0712527 0)
(7.67556 -0.0755985 0)
(7.68122 -0.0798147 0)
(7.68653 -0.0838639 0)
(7.69154 -0.0877058 0)
(7.69631 -0.091301 0)
(7.70095 -0.0946181 0)
(7.33356 0.00475504 0)
(7.33941 0.0136681 0)
(7.35138 0.0201913 0)
(7.36711 0.0236137 0)
(7.38465 0.0242494 0)
(7.40305 0.022651 0)
(7.42164 0.0193669 0)
(7.43992 0.014927 0)
(7.45761 0.00977956 0)
(7.47459 0.00425678 0)
(7.49079 -0.00140886 0)
(7.50621 -0.00706217 0)
(7.52086 -0.0126084 0)
(7.53475 -0.0179973 0)
(7.54792 -0.0232096 0)
(7.56039 -0.0282463 0)
(7.57221 -0.0331211 0)
(7.58339 -0.0378548 0)
(7.59396 -0.0424709 0)
(7.60395 -0.0469928 0)
(7.61338 -0.0514414 0)
(7.62227 -0.0558334 0)
(7.63064 -0.0601804 0)
(7.63851 -0.064488 0)
(7.6459 -0.0687557 0)
(7.65283 -0.0729761 0)
(7.65934 -0.0771359 0)
(7.66545 -0.0812164 0)
(7.67119 -0.0851946 0)
(7.67663 -0.0890455 0)
(7.6818 -0.0927436 0)
(7.68678 -0.0962669 0)
(7.69165 -0.0995997 0)
(7.33349 0.00300885 0)
(7.33864 0.0086154 0)
(7.34926 0.0125087 0)
(7.36347 0.0141124 0)
(7.37964 0.0135944 0)
(7.39691 0.0113411 0)
(7.41463 0.00776539 0)
(7.43229 0.00327815 0)
(7.44958 -0.00176361 0)
(7.46632 -0.00708757 0)
(7.48241 -0.0125 0)
(7.4978 -0.0178706 0)
(7.51247 -0.0231199 0)
(7.52641 -0.0282065 0)
(7.53965 -0.0331161 0)
(7.5522 -0.0378523 0)
(7.56407 -0.0424299 0)
(7.5753 -0.0468699 0)
(7.58591 -0.0511955 0)
(7.59592 -0.0554297 0)
(7.60536 -0.0595929 0)
(7.61425 -0.0637019 0)
(7.62262 -0.0677687 0)
(7.63048 -0.0718002 0)
(7.63787 -0.0757981 0)
(7.64481 -0.0797589 0)
(7.65133 -0.0836744 0)
(7.65748 -0.0875329 0)
(7.66329 -0.0913204 0)
(7.6688 -0.0950221 0)
(7.67408 -0.0986247 0)
(7.67917 -0.102119 0)
(7.68417 -0.105501 0)
(7.33344 0.00141325 0)
(7.33806 0.00397683 0)
(7.34767 0.00536051 0)
(7.36071 0.00512075 0)
(7.3758 0.0033431 0)
(7.39216 0.000295752 0)
(7.40919 -0.00371452 0)
(7.42635 -0.0083753 0)
(7.44332 -0.0134099 0)
(7.45988 -0.0186035 0)
(7.4759 -0.0238025 0)
(7.49128 -0.0289051 0)
(7.50599 -0.0338507 0)
(7.52 -0.0386113 0)
(7.5333 -0.0431811 0)
(7.54592 -0.0475698 0)
(7.55786 -0.0517962 0)
(7.56914 -0.0558843 0)
(7.57979 -0.0598593 0)
(7.58983 -0.0637456 0)
(7.59928 -0.0675651 0)
(7.60817 -0.0713359 0)
(7.61652 -0.0750718 0)
(7.62438 -0.0787822 0)
(7.63175 -0.0824716 0)
(7.63869 -0.0861408 0)
(7.64522 -0.0897867 0)
(7.65137 -0.0934042 0)
(7.6572 -0.0969867 0)
(7.66275 -0.100528 0)
(7.66807 -0.104024 0)
(7.67322 -0.107477 0)
(7.67826 -0.110887 0)
(7.33341 -7.59291e-05 0)
(7.33765 -0.000368956 0)
(7.34652 -0.0014098 0)
(7.35869 -0.00351704 0)
(7.37297 -0.00664622 0)
(7.38867 -0.0106122 0)
(7.40518 -0.0151921 0)
(7.422 -0.0201564 0)
(7.43877 -0.0253 0)
(7.45524 -0.0304636 0)
(7.47125 -0.0355346 0)
(7.48668 -0.0404409 0)
(7.50147 -0.0451439 0)
(7.51559 -0.0496306 0)
(7.529 -0.0539061 0)
(7.54172 -0.0579877 0)
(7.55374 -0.0618996 0)
(7.5651 -0.0656697 0)
(7.57579 -0.0693262 0)
(7.58587 -0.0728956 0)
(7.59533 -0.076402 0)
(7.60423 -0.0798654 0)
(7.61258 -0.0833019 0)
(7.62042 -0.0867234 0)
(7.62778 -0.0901378 0)
(7.63469 -0.0935496 0)
(7.6412 -0.0969607 0)
(7.64734 -0.100371 0)
(7.65315 -0.103781 0)
(7.65869 -0.107191 0)
(7.66399 -0.110602 0)
(7.6691 -0.114023 0)
(7.67409 -0.117461 0)
(7.33338 -0.0014973 0)
(7.33736 -0.00452921 0)
(7.34573 -0.00794531 0)
(7.35731 -0.0119466 0)
(7.37105 -0.0165005 0)
(7.38631 -0.0214758 0)
(7.40249 -0.0267131 0)
(7.41911 -0.0320503 0)
(7.43578 -0.0373457 0)
(7.45225 -0.0424925 0)
(7.46831 -0.0474203 0)
(7.48384 -0.0520907 0)
(7.49874 -0.0564911 0)
(7.51298 -0.0606283 0)
(7.52651 -0.0645228 0)
(7.53934 -0.0682035 0)
(7.55146 -0.0717036 0)
(7.56289 -0.0750574 0)
(7.57364 -0.0782984 0)
(7.58374 -0.0814573 0)
(7.59323 -0.0845615 0)
(7.60212 -0.087634 0)
(7.61046 -0.0906938 0)
(7.61828 -0.0937559 0)
(7.62561 -0.0968314 0)
(7.63248 -0.0999284 0)
(7.63895 -0.103053 0)
(7.64504 -0.10621 0)
(7.65081 -0.109403 0)
(7.65628 -0.112637 0)
(7.66152 -0.115921 0)
(7.66655 -0.119265 0)
(7.67144 -0.122677 0)
(7.33337 -0.0028869 0)
(7.3372 -0.0086059 0)
(7.34528 -0.014392 0)
(7.35653 -0.0203378 0)
(7.36999 -0.0264079 0)
(7.38505 -0.0325094 0)
(7.40113 -0.038535 0)
(7.41774 -0.0443814 0)
(7.43449 -0.0499639 0)
(7.45109 -0.0552247 0)
(7.46733 -0.0601335 0)
(7.48305 -0.0646839 0)
(7.49816 -0.0688889 0)
(7.51258 -0.072775 0)
(7.52629 -0.0763783 0)
(7.53927 -0.0797395 0)
(7.55151 -0.0829013 0)
(7.56304 -0.0859056 0)
(7.57386 -0.0887916 0)
(7.58401 -0.0915951 0)
(7.59352 -0.0943475 0)
(7.60241 -0.0970756 0)
(7.61073 -0.0998017 0)
(7.61851 -0.102544 0)
(7.62579 -0.105317 0)
(7.63261 -0.108133 0)
(7.639 -0.111 0)
(7.64501 -0.113927 0)
(7.65068 -0.116921 0)
(7.65605 -0.119992 0)
(7.66115 -0.123148 0)
(7.66603 -0.126402 0)
(7.67073 -0.129763 0)
(7.33336 -0.00427908 0)
(7.33714 -0.0126947 0)
(7.34513 -0.0208803 0)
(7.35629 -0.028819 0)
(7.36971 -0.036456 0)
(7.38479 -0.0437181 0)
(7.40097 -0.0505371 0)
(7.41773 -0.0568614 0)
(7.43468 -0.0626621 0)
(7.45151 -0.0679338 0)
(7.468 -0.0726926 0)
(7.48398 -0.0769717 0)
(7.49933 -0.0808166 0)
(7.51398 -0.0842802 0)
(7.52789 -0.0874192 0)
(7.54104 -0.0902907 0)
(7.55343 -0.0929497 0)
(7.56507 -0.0954477 0)
(7.57597 -0.0978313 0)
(7.58617 -0.100142 0)
(7.5957 -0.102415 0)
(7.6046 -0.104682 0)
(7.61289 -0.106967 0)
(7.62063 -0.109293 0)
(7.62785 -0.111674 0)
(7.63459 -0.114127 0)
(7.6409 -0.116663 0)
(7.6468 -0.119291 0)
(7.65235 -0.122022 0)
(7.65758 -0.124866 0)
(7.66253 -0.127833 0)
(7.66723 -0.130937 0)
(7.67173 -0.134185 0)
(7.33337 -0.00571079 0)
(7.3372 -0.0169077 0)
(7.3453 -0.0275941 0)
(7.35666 -0.0376534 0)
(7.37033 -0.0470144 0)
(7.38575 -0.0556233 0)
(7.40231 -0.0634465 0)
(7.41951 -0.0704768 0)
(7.4369 -0.0767315 0)
(7.45418 -0.0822482 0)
(7.4711 -0.0870818 0)
(7.48748 -0.0912993 0)
(7.50319 -0.0949752 0)
(7.51816 -0.0981871 0)
(7.53234 -0.101012 0)
(7.54571 -0.103525 0)
(7.55827 -0.105794 0)
(7.57004 -0.107882 0)
(7.58103 -0.109847 0)
(7.59128 -0.111735 0)
(7.60083 -0.11359 0)
(7.60971 -0.115448 0)
(7.61796 -0.117336 0)
(7.62563 -0.119281 0)
(7.63276 -0.121303 0)
(7.63939 -0.123417 0)
(7.64557 -0.125637 0)
(7.65133 -0.127977 0)
(7.6567 -0.130445 0)
(7.66174 -0.133053 0)
(7.66647 -0.135811 0)
(7.67092 -0.138731 0)
(7.67513 -0.141817 0)
(7.33338 -0.0072202 0)
(7.33736 -0.0213403 0)
(7.34576 -0.0346316 0)
(7.35753 -0.0468557 0)
(7.37169 -0.0579081 0)
(7.38764 -0.0677464 0)
(7.40478 -0.0763761 0)
(7.42255 -0.0838492 0)
(7.44053 -0.0902486 0)
(7.45837 -0.0956751 0)
(7.47582 -0.100239 0)
(7.49269 -0.104055 0)
(7.50885 -0.107237 0)
(7.52421 -0.109891 0)
(7.53872 -0.112119 0)
(7.55237 -0.114014 0)
(7.56515 -0.115658 0)
(7.57709 -0.117125 0)
(7.5882 -0.118479 0)
(7.59853 -0.119774 0)
(7.60811 -0.121057 0)
(7.61699 -0.122366 0)
(7.62521 -0.123734 0)
(7.63282 -0.125187 0)
(7.63986 -0.126748 0)
(7.64638 -0.128432 0)
(7.65241 -0.130256 0)
(7.65801 -0.132232 0)
(7.66321 -0.13437 0)
(7.66804 -0.13668 0)
(7.67255 -0.139172 0)
(7.67676 -0.141856 0)
(7.68071 -0.144733 0)
(7.33341 -0.00886096 0)
(7.33768 -0.0261819 0)
(7.3467 -0.0423763 0)
(7.35929 -0.0571066 0)
(7.3744 -0.0702552 0)
(7.39137 -0.0817874 0)
(7.40953 -0.0917261 0)
(7.42829 -0.100153 0)
(7.44719 -0.107189 0)
(7.46587 -0.112978 0)
(7.48407 -0.117672 0)
(7.50159 -0.121429 0)
(7.5183 -0.124399 0)
(7.53412 -0.126727 0)
(7.54901 -0.128542 0)
(7.56296 -0.129964 0)
(7.57597 -0.131095 0)
(7.58806 -0.132025 0)
(7.59928 -0.132833 0)
(7.60966 -0.133582 0)
(7.61924 -0.134328 0)
(7.62808 -0.135114 0)
(7.63623 -0.135977 0)
(7.64373 -0.136947 0)
(7.65063 -0.138048 0)
(7.65699 -0.139297 0)
(7.66284 -0.140711 0)
(7.66822 -0.142302 0)
(7.67318 -0.144079 0)
(7.67775 -0.14605 0)
(7.68197 -0.148223 0)
(7.68586 -0.150605 0)
(7.68945 -0.153192 0)
(7.33344 -0.010678 0)
(7.33808 -0.0314743 0)
(7.34786 -0.050655 0)
(7.36144 -0.0677241 0)
(7.37765 -0.0825568 0)
(7.39577 -0.0951775 0)
(7.41511 -0.1057 0)
(7.43503 -0.114312 0)
(7.45505 -0.121229 0)
(7.47477 -0.126675 0)
(7.49392 -0.130867 0)
(7.51229 -0.13401 0)
(7.52974 -0.136294 0)
(7.5462 -0.13789 0)
(7.56162 -0.13895 0)
(7.57599 -0.139607 0)
(7.58933 -0.139977 0)
(7.60168 -0.14016 0)
(7.61307 -0.140239 0)
(7.62356 -0.140285 0)
(7.63319 -0.140355 0)
(7.64203 -0.140497 0)
(7.65012 -0.14075 0)
(7.65753 -0.141145 0)
(7.66431 -0.141705 0)
(7.67051 -0.14245 0)
(7.67618 -0.143395 0)
(7.68135 -0.144552 0)
(7.68608 -0.145928 0)
(7.69041 -0.147532 0)
(7.69436 -0.149366 0)
(7.69796 -0.151438 0)
(7.70127 -0.153739 0)
(7.33352 -0.0127915 0)
(7.3389 -0.0377685 0)
(7.35013 -0.0607994 0)
(7.36556 -0.0812685 0)
(7.38375 -0.099011 0)
(7.40384 -0.114001 0)
(7.42503 -0.126326 0)
(7.44663 -0.136198 0)
(7.46812 -0.143888 0)
(7.48911 -0.149689 0)
(7.50934 -0.153895 0)
(7.52862 -0.156785 0)
(7.54682 -0.158616 0)
(7.56389 -0.159615 0)
(7.57979 -0.159983 0)
(7.59454 -0.15989 0)
(7.60815 -0.15948 0)
(7.62069 -0.158875 0)
(7.63219 -0.158174 0)
(7.64271 -0.157457 0)
(7.65233 -0.15679 0)
(7.6611 -0.156225 0)
(7.66908 -0.155802 0)
(7.67634 -0.155553 0)
(7.68293 -0.155503 0)
(7.68891 -0.155669 0)
(7.69433 -0.156065 0)
(7.69924 -0.156701 0)
(7.70367 -0.157582 0)
(7.70767 -0.158713 0)
(7.71127 -0.160093 0)
(7.71451 -0.161725 0)
(7.7174 -0.163596 0)
(7.33356 -0.0152097 0)
(7.33952 -0.0445682 0)
(7.35206 -0.0708908 0)
(7.3692 -0.0934698 0)
(7.38931 -0.112379 0)
(7.41149 -0.127854 0)
(7.43485 -0.140199 0)
(7.45857 -0.149784 0)
(7.48205 -0.156987 0)
(7.50487 -0.162165 0)
(7.52671 -0.165654 0)
(7.54738 -0.167759 0)
(7.56676 -0.168758 0)
(7.5848 -0.168893 0)
(7.60149 -0.168379 0)
(7.61685 -0.167397 0)
(7.63094 -0.166104 0)
(7.64381 -0.16463 0)
(7.65554 -0.163082 0)
(7.6662 -0.161549 0)
(7.67588 -0.1601 0)
(7.68464 -0.158792 0)
(7.69256 -0.157667 0)
(7.6997 -0.15676 0)
(7.70614 -0.156094 0)
(7.71194 -0.155689 0)
(7.71714 -0.155556 0)
(7.7218 -0.155704 0)
(7.72597 -0.156138 0)
(7.72969 -0.156858 0)
(7.73301 -0.157862 0)
(7.73595 -0.15915 0)
(7.73858 -0.160704 0)
(7.33381 -0.0183822 0)
(7.34175 -0.0543427 0)
(7.35764 -0.0869746 0)
(7.3785 -0.115177 0)
(7.40214 -0.138727 0)
(7.42747 -0.157653 0)
(7.45356 -0.172269 0)
(7.4796 -0.183101 0)
(7.50505 -0.190725 0)
(7.52953 -0.195695 0)
(7.55277 -0.198522 0)
(7.57462 -0.199663 0)
(7.59498 -0.19951 0)
(7.61381 -0.198392 0)
(7.63113 -0.196586 0)
(7.64698 -0.194317 0)
(7.66142 -0.191766 0)
(7.67453 -0.189081 0)
(7.68639 -0.186379 0)
(7.69709 -0.18375 0)
(7.70672 -0.181265 0)
(7.71536 -0.178977 0)
(7.7231 -0.176928 0)
(7.73001 -0.175146 0)
(7.73617 -0.173652 0)
(7.74164 -0.17246 0)
(7.74648 -0.171579 0)
(7.75075 -0.171014 0)
(7.7545 -0.170765 0)
(7.75777 -0.170832 0)
(7.76061 -0.171208 0)
(7.76304 -0.171887 0)
(7.76511 -0.172847 0)
(7.3337 -0.021816 0)
(7.34208 -0.0627189 0)
(7.35991 -0.0974546 0)
(7.38377 -0.125993 0)
(7.41114 -0.149252 0)
(7.44067 -0.167743 0)
(7.47098 -0.181934 0)
(7.50097 -0.192382 0)
(7.52994 -0.199616 0)
(7.55745 -0.204132 0)
(7.58322 -0.206405 0)
(7.6071 -0.206874 0)
(7.62904 -0.205934 0)
(7.64907 -0.203932 0)
(7.66724 -0.201168 0)
(7.68366 -0.197894 0)
(7.69843 -0.194319 0)
(7.71167 -0.190613 0)
(7.7235 -0.186913 0)
(7.73404 -0.183325 0)
(7.74341 -0.179929 0)
(7.7517 -0.176786 0)
(7.75902 -0.173941 0)
(7.76547 -0.171423 0)
(7.77111 -0.169254 0)
(7.77603 -0.167445 0)
(7.78029 -0.166002 0)
(7.78396 -0.164929 0)
(7.78709 -0.164223 0)
(7.78973 -0.163879 0)
(7.79194 -0.163891 0)
(7.79376 -0.16425 0)
(7.79526 -0.164923 0)
(7.33482 -0.028172 0)
(7.34949 -0.0833969 0)
(7.37509 -0.13134 0)
(7.40536 -0.170145 0)
(7.43753 -0.200155 0)
(7.47084 -0.222166 0)
(7.50418 -0.237425 0)
(7.53661 -0.247259 0)
(7.56758 -0.252807 0)
(7.5967 -0.255026 0)
(7.62373 -0.254718 0)
(7.64856 -0.252532 0)
(7.67117 -0.248989 0)
(7.69162 -0.244505 0)
(7.71001 -0.239411 0)
(7.72647 -0.233968 0)
(7.74116 -0.228383 0)
(7.75423 -0.222813 0)
(7.76582 -0.217382 0)
(7.77608 -0.212182 0)
(7.78515 -0.20728 0)
(7.79315 -0.202726 0)
(7.80019 -0.198552 0)
(7.80638 -0.194778 0)
(7.8118 -0.191417 0)
(7.81654 -0.188474 0)
(7.82066 -0.18595 0)
(7.82423 -0.183843 0)
(7.82731 -0.182151 0)
(7.82994 -0.180869 0)
(7.83218 -0.17999 0)
(7.83407 -0.179509 0)
(7.83567 -0.179388 0)
(7.33379 -0.0319502 0)
(7.34762 -0.0869007 0)
(7.37767 -0.130182 0)
(7.41555 -0.165913 0)
(7.45637 -0.195363 0)
(7.49788 -0.218204 0)
(7.5382 -0.234875 0)
(7.57635 -0.246138 0)
(7.61204 -0.252737 0)
(7.6452 -0.255464 0)
(7.67589 -0.25512 0)
(7.70424 -0.252438 0)
(7.73041 -0.248055 0)
(7.75456 -0.242507 0)
(7.77683 -0.236233 0)
(7.79737 -0.229579 0)
(7.81631 -0.222813 0)
(7.83376 -0.216138 0)
(7.84984 -0.209703 0)
(7.86467 -0.203613 0)
(7.87833 -0.197941 0)
(7.89094 -0.192733 0)
(7.90258 -0.188014 0)
(7.91333 -0.183795 0)
(7.92326 -0.180078 0)
(7.93245 -0.176858 0)
(7.94096 -0.174124 0)
(7.94883 -0.171868 0)
(7.95614 -0.170083 0)
(7.96291 -0.168763 0)
(7.96923 -0.167913 0)
(7.97514 -0.167534 0)
(7.98074 -0.167605 0)
(7.33892 -0.0544588 0)
(7.37183 -0.151773 0)
(7.41439 -0.221079 0)
(7.45768 -0.268058 0)
(7.50386 -0.298898 0)
(7.55381 -0.317575 0)
(7.60602 -0.327801 0)
(7.6594 -0.332271 0)
(7.71304 -0.33269 0)
(7.76595 -0.330223 0)
(7.81721 -0.325686 0)
(7.86617 -0.319657 0)
(7.91237 -0.312571 0)
(7.9555 -0.304767 0)
(7.99542 -0.29652 0)
(8.0321 -0.28806 0)
(8.06561 -0.279575 0)
(8.09608 -0.271224 0)
(8.12368 -0.263131 0)
(8.14862 -0.255395 0)
(8.17109 -0.248089 0)
(8.19131 -0.241263 0)
(8.20948 -0.234951 0)
(8.22579 -0.229169 0)
(8.2404 -0.223923 0)
(8.25347 -0.21921 0)
(8.26513 -0.215026 0)
(8.27551 -0.211362 0)
(8.2847 -0.208221 0)
(8.29278 -0.205606 0)
(8.29986 -0.20357 0)
(8.30599 -0.202112 0)
(8.31136 -0.201414 0)
(7.33754 -0.0404578 0)
(7.38837 -0.105899 0)
(7.47739 -0.163748 0)
(7.5787 -0.219606 0)
(7.68624 -0.267207 0)
(7.79484 -0.30421 0)
(7.89852 -0.331266 0)
(7.9938 -0.349072 0)
(8.07869 -0.358715 0)
(8.15214 -0.361665 0)
(8.21394 -0.359388 0)
(8.26448 -0.353199 0)
(8.30455 -0.344235 0)
(8.33513 -0.333433 0)
(8.35731 -0.32154 0)
(8.37217 -0.309135 0)
(8.38075 -0.296658 0)
(8.38401 -0.284431 0)
(8.3828 -0.272683 0)
(8.37786 -0.261567 0)
(8.36983 -0.251178 0)
(8.35926 -0.241568 0)
(8.34662 -0.232752 0)
(8.33227 -0.224722 0)
(8.31653 -0.21745 0)
(8.29965 -0.210897 0)
(8.28183 -0.205016 0)
(8.26322 -0.199759 0)
(8.24393 -0.195088 0)
(8.22397 -0.190975 0)
(8.20347 -0.187505 0)
(8.18214 -0.184624 0)
(8.16063 -0.183296 0)
(7.39946 -0.196906 0)
(7.59549 -0.376446 0)
(7.7679 -0.459577 0)
(7.89455 -0.513657 0)
(7.97744 -0.542537 0)
(8.01466 -0.552068 0)
(8.01046 -0.548883 0)
(7.97322 -0.536341 0)
(7.91061 -0.516953 0)
(7.8292 -0.492988 0)
(7.73479 -0.466245 0)
(7.63212 -0.438118 0)
(7.52488 -0.409692 0)
(7.41592 -0.381775 0)
(7.30732 -0.354937 0)
(7.20058 -0.329561 0)
(7.09672 -0.305872 0)
(6.9964 -0.283985 0)
(6.9 -0.263927 0)
(6.80772 -0.245665 0)
(6.71958 -0.229128 0)
(6.63551 -0.214214 0)
(6.55539 -0.200808 0)
(6.47903 -0.188784 0)
(6.40622 -0.178013 0)
(6.33674 -0.168363 0)
(6.27038 -0.159693 0)
(6.20687 -0.151872 0)
(6.14598 -0.144737 0)
(6.08732 -0.138144 0)
(6.03058 -0.131983 0)
(5.97478 -0.125468 0)
(5.92028 -0.121944 0)
(7.16009 -0.185975 0)
(6.91071 -0.34542 0)
(6.49916 -0.392869 0)
(6.03494 -0.394453 0)
(5.59415 -0.366443 0)
(5.17704 -0.322671 0)
(4.7877 -0.27406 0)
(4.43289 -0.226234 0)
(4.11318 -0.182181 0)
(3.82687 -0.143382 0)
(3.57196 -0.110231 0)
(3.34586 -0.0825387 0)
(3.14573 -0.059819 0)
(2.96877 -0.0414477 0)
(2.81231 -0.0267699 0)
(2.67386 -0.0151676 0)
(2.55117 -0.00608922 0)
(2.44221 0.000939608 0)
(2.3452 0.00631683 0)
(2.25854 0.0103707 0)
(2.18087 0.0133689 0)
(2.11097 0.0155286 0)
(2.04781 0.0170259 0)
(1.99048 0.0180042 0)
(1.93821 0.0185859 0)
(1.89036 0.0188763 0)
(1.84634 0.0189922 0)
(1.80578 0.0190504 0)
(1.76817 0.0192697 0)
(1.73372 0.0199461 0)
(1.70148 0.0214168 0)
(1.67354 0.0261739 0)
(1.64781 0.02159 0)
(1.59853 -0.0596389 0)
(1.82067 -0.0677183 0)
(2.03641 -0.139552 0)