/*--------------------------------*- C++ -*----------------------------------*\
  =========                 |
  \\      /  F ield         | OpenFOAM: The Open Source CFD Toolbox
   \\    /   O peration     | Website:  https://openfoam.org
    \\  /    A nd           | Version:  10
     \\/     M anipulation  |
\*---------------------------------------------------------------------------*/
FoamFile
{
    format      ascii;
    class       volScalarField;
    location    "0.06";
    object      epsilon;
}
// * * * * * * * * * * * * * * * * * * * * * * * * * * * * * * * * * * * * * //

dimensions      [0 2 -3 0 0 0 0];

internalField   nonuniform List<scalar> 
6820
(
23.2969
22.5752
21.9094
21.2853
20.7018
20.1631
19.6734
19.2343
18.8456
18.5051
18.2094
17.955
17.738
17.5546
17.4013
17.2748
17.1722
17.0907
17.028
16.9819
16.9505
16.9321
16.9251
16.9283
16.9405
16.9607
16.9876
17.0232
17.0533
17.1422
16.9846
18.0176
13.4684
5.03386
6.81837
7.83946
8.46782
8.89841
9.23205
9.52258
9.79647
10.0657
10.3355
10.6075
10.8822
11.1594
11.4386
11.7194
12.0011
12.2834
12.5657
12.8477
13.129
13.4095
13.6892
13.9681
14.2464
14.5249
14.8044
15.0866
15.374
15.6706
15.9915
16.3114
16.8582
16.93
3.7036
4.14718
4.56526
4.91425
5.19802
5.43136
5.62832
5.80013
5.95523
6.09975
6.23798
6.37286
6.50631
6.63957
6.77342
6.90827
7.04437
7.18179
7.32054
7.46056
7.6018
7.7442
7.88772
8.03241
8.17837
8.32585
8.47524
8.62743
8.78298
8.94571
9.11283
9.30093
9.49109
3.54009
3.61094
3.72474
3.85374
3.98121
4.09947
4.2063
4.30212
4.38841
4.46696
4.53949
4.6075
4.67225
4.73474
4.79575
4.85589
4.9156
4.97523
5.03502
5.09516
5.15578
5.21698
5.27887
5.34152
5.40505
5.46961
5.53539
5.60275
5.67204
5.74418
5.81967
5.90018
5.98765
3.52064
3.50151
3.50497
3.52611
3.55868
3.59723
3.63783
3.67809
3.71673
3.7532
3.78742
3.81954
3.84981
3.87855
3.90607
3.93264
3.95853
3.98394
4.00907
4.03406
4.05906
4.08417
4.10949
4.13513
4.16117
4.18772
4.21493
4.24297
4.27205
4.30251
4.3347
4.36914
4.40623
3.5194
3.48247
3.45303
3.43232
3.41995
3.4145
3.41423
3.41752
3.4231
3.43002
3.43765
3.44556
3.4535
3.46136
3.46907
3.47663
3.48406
3.4914
3.49869
3.506
3.51337
3.52086
3.52851
3.53637
3.54452
3.55301
3.56191
3.57133
3.58139
3.59225
3.6041
3.61719
3.6317
3.51943
3.47974
3.44283
3.40949
3.38025
3.35523
3.3342
3.31668
3.30213
3.28999
3.27978
3.27109
3.2636
3.25705
3.25127
3.2461
3.24144
3.23723
3.23342
3.22997
3.22686
3.22409
3.22165
3.21954
3.21779
3.2164
3.21542
3.21489
3.21487
3.21544
3.21669
3.21876
3.22175
3.51947
3.47943
3.44109
3.40466
3.37041
3.33851
3.30906
3.28204
3.25733
3.23478
3.21416
3.19528
3.17792
3.16191
3.14707
3.13326
3.12037
3.10829
3.09695
3.08626
3.07618
3.06666
3.05767
3.04918
3.04117
3.03364
3.02658
3.02
3.01394
3.00841
3.00347
2.99918
2.99561
3.51948
3.47941
3.44085
3.40382
3.36835
3.33447
3.30224
3.27167
3.24277
3.2155
3.1898
3.16559
3.14278
3.12129
3.101
3.08184
3.0637
3.04652
3.03021
3.01471
2.99996
2.98591
2.97252
2.95975
2.94757
2.93595
2.92488
2.91435
2.90436
2.89492
2.88605
2.87778
2.87014
3.51948
3.47941
3.44082
3.40368
3.36795
3.33361
3.30061
3.26896
3.23862
3.20958
3.18181
3.15527
3.12992
3.10572
3.08261
3.06054
3.03945
3.0193
3.00004
2.9816
2.96395
2.94704
2.93084
2.9153
2.90041
2.88612
2.87242
2.85929
2.84673
2.83473
2.8233
2.81245
2.80219
3.51948
3.4794
3.44081
3.40365
3.36788
3.33343
3.30026
3.26832
3.23757
3.20797
3.17948
3.15208
3.12573
3.10039
3.07603
3.05261
3.0301
3.00845
2.98764
2.96762
2.94836
2.92983
2.912
2.89483
2.8783
2.86239
2.84708
2.83234
2.81818
2.80457
2.79153
2.77905
2.76715
3.51948
3.4794
3.4408
3.40364
3.36786
3.33339
3.30018
3.26817
3.23731
3.20756
3.17886
3.15119
3.1245
3.09875
3.07392
3.04996
3.02685
3.00455
2.98304
2.96228
2.94224
2.9229
2.90423
2.88621
2.86881
2.85201
2.8358
2.82016
2.80508
2.79055
2.77656
2.76313
2.75025
3.51948
3.4794
3.44079
3.40363
3.36784
3.33337
3.30015
3.26812
3.23724
3.20745
3.1787
3.15095
3.12415
3.09828
3.07329
3.04915
3.02582
3.00328
2.98149
2.96042
2.94006
2.92037
2.90133
2.88291
2.8651
2.84788
2.83123
2.81513
2.79958
2.78457
2.77009
2.75614
2.74272
3.51948
3.47939
3.44079
3.40362
3.36783
3.33335
3.30013
3.2681
3.2372
3.2074
3.17863
3.15086
3.12404
3.09813
3.0731
3.0489
3.0255
3.00288
2.98099
2.95982
2.93934
2.91952
2.90033
2.88176
2.86378
2.84638
2.82954
2.81324
2.79748
2.78225
2.76753
2.75333
2.73965
3.51947
3.47939
3.44079
3.40362
3.36782
3.33334
3.30011
3.26808
3.23718
3.20737
3.1786
3.15082
3.12399
3.09807
3.07302
3.04881
3.02539
3.00274
2.98083
2.95963
2.9391
2.91924
2.9
2.88138
2.86334
2.84588
2.82896
2.81259
2.79675
2.78143
2.76662
2.75231
2.7385
3.51947
3.47939
3.44078
3.40361
3.36782
3.33333
3.3001
3.26806
3.23716
3.20734
3.17857
3.15079
3.12395
3.09803
3.07298
3.04876
3.02533
3.00268
2.98076
2.95955
2.93901
2.91914
2.89989
2.88125
2.8632
2.84571
2.82878
2.81239
2.79652
2.78116
2.76631
2.75196
2.7381
3.51947
3.47939
3.44078
3.40361
3.36781
3.33332
3.30008
3.26804
3.23714
3.20732
3.17854
3.15076
3.12392
3.098
3.07294
3.04872
3.02529
3.00264
2.98071
2.9595
2.93897
2.91909
2.89984
2.88119
2.86314
2.84565
2.82872
2.81232
2.79644
2.78108
2.76621
2.75184
2.73794
3.51947
3.47939
3.44078
3.4036
3.3678
3.33331
3.30007
3.26803
3.23712
3.2073
3.17852
3.15073
3.1239
3.09797
3.07291
3.04868
3.02526
3.0026
2.98068
2.95946
2.93893
2.91905
2.8998
2.88116
2.86311
2.84562
2.82869
2.81229
2.79641
2.78104
2.76616
2.75177
2.73786
3.51947
3.47939
3.44078
3.4036
3.3678
3.33331
3.30006
3.26802
3.23711
3.20728
3.1785
3.15071
3.12387
3.09794
3.07288
3.04865
3.02523
3.00257
2.98065
2.95943
2.9389
2.91902
2.89977
2.88113
2.86308
2.84559
2.82866
2.81226
2.79638
2.781
2.76612
2.75172
2.73779
3.51947
3.47939
3.44077
3.4036
3.36779
3.3333
3.30006
3.26801
3.23709
3.20727
3.17848
3.15069
3.12385
3.09792
3.07285
3.04863
3.0252
3.00254
2.98062
2.9594
2.93887
2.91899
2.89974
2.8811
2.86305
2.84556
2.82863
2.81223
2.79634
2.78096
2.76607
2.75165
2.73771
3.51947
3.47939
3.44077
3.4036
3.36779
3.33329
3.30005
3.268
3.23708
3.20726
3.17847
3.15067
3.12383
3.0979
3.07283
3.0486
3.02517
3.00251
2.98059
2.95937
2.93884
2.91896
2.89971
2.88107
2.86302
2.84553
2.82859
2.81219
2.79629
2.78091
2.766
2.75158
2.73761
3.51947
3.47938
3.44077
3.40359
3.36779
3.33329
3.30004
3.26799
3.23707
3.20725
3.17846
3.15066
3.12381
3.09788
3.07281
3.04858
3.02515
3.00249
2.98056
2.95934
2.93881
2.91893
2.89968
2.88103
2.86298
2.84549
2.82855
2.81214
2.79624
2.78084
2.76593
2.75148
2.7375
3.51947
3.47938
3.44077
3.40359
3.36778
3.33329
3.30004
3.26798
3.23707
3.20724
3.17844
3.15065
3.1238
3.09786
3.07279
3.04856
3.02513
3.00246
2.98054
2.95932
2.93878
2.91889
2.89964
2.881
2.86294
2.84545
2.8285
2.81208
2.79617
2.78077
2.76584
2.75138
2.73737
3.51947
3.47938
3.44077
3.40359
3.36778
3.33328
3.30003
3.26798
3.23706
3.20723
3.17843
3.15063
3.12379
3.09784
3.07278
3.04854
3.02511
3.00244
2.98051
2.95929
2.93875
2.91886
2.89961
2.88096
2.8629
2.8454
2.82844
2.81202
2.7961
2.78068
2.76574
2.75126
2.73724
3.51947
3.47938
3.44077
3.40359
3.36778
3.33328
3.30003
3.26797
3.23705
3.20722
3.17843
3.15062
3.12377
3.09783
3.07276
3.04852
3.02509
3.00242
2.98049
2.95926
2.93872
2.91883
2.89957
2.88092
2.86285
2.84534
2.82838
2.81195
2.79602
2.78059
2.76563
2.75113
2.73709
3.51947
3.47938
3.44077
3.40359
3.36778
3.33328
3.30003
3.26797
3.23705
3.20721
3.17842
3.15062
3.12376
3.09782
3.07275
3.04851
3.02507
3.0024
2.98046
2.95924
2.93869
2.9188
2.89953
2.88087
2.8628
2.84529
2.82832
2.81187
2.79593
2.78049
2.76551
2.751
2.73693
3.51947
3.47938
3.44077
3.40359
3.36778
3.33328
3.30003
3.26797
3.23704
3.20721
3.17841
3.15061
3.12375
3.09781
3.07273
3.04849
3.02505
3.00238
2.98044
2.95921
2.93866
2.91876
2.89949
2.88082
2.86274
2.84522
2.82824
2.81179
2.79584
2.78038
2.76539
2.75086
2.73677
3.51947
3.47938
3.44077
3.40359
3.36778
3.33328
3.30003
3.26797
3.23704
3.20721
3.17841
3.1506
3.12375
3.0978
3.07273
3.04848
3.02504
3.00236
2.98042
2.95919
2.93863
2.91873
2.89945
2.88078
2.86269
2.84516
2.82818
2.81171
2.79574
2.78027
2.76526
2.75071
2.7366
3.51947
3.47938
3.44077
3.40359
3.36778
3.33328
3.30002
3.26796
3.23704
3.2072
3.1784
3.15059
3.12374
3.09779
3.07271
3.04846
3.02502
3.00234
2.9804
2.95916
2.9386
2.91869
2.89941
2.88073
2.86263
2.8451
2.8281
2.81162
2.79564
2.78015
2.76513
2.75056
2.73643
3.51947
3.47938
3.44077
3.40359
3.36778
3.33328
3.30003
3.26797
3.23705
3.20721
3.17841
3.15061
3.12375
3.0978
3.07272
3.04847
3.02503
3.00234
2.9804
2.95915
2.93859
2.91867
2.89939
2.8807
2.8626
2.84505
2.82804
2.81155
2.79556
2.78006
2.76502
2.75043
2.73628
3.51947
3.47939
3.44077
3.40359
3.36778
3.33328
3.30002
3.26796
3.23704
3.2072
3.1784
3.15059
3.12373
3.09778
3.0727
3.04845
3.025
3.00232
2.98037
2.95913
2.93856
2.91864
2.89935
2.88066
2.86255
2.845
2.82798
2.81148
2.79548
2.77997
2.76492
2.75032
2.73615
3.51947
3.47938
3.44077
3.40359
3.36779
3.3333
3.30006
3.26801
3.23709
3.20726
3.17846
3.15066
3.1238
3.09785
3.07277
3.04852
3.02507
3.00239
2.98043
2.95919
2.93862
2.9187
2.89941
2.88072
2.8626
2.84505
2.82803
2.81153
2.79553
2.78001
2.76496
2.75036
2.73619
3.51948
3.4794
3.44079
3.40362
3.36782
3.33332
3.30007
3.26801
3.23709
3.20726
3.17846
3.15066
3.12381
3.09787
3.0728
3.04857
3.02514
3.00247
2.98054
2.95932
2.93878
2.91889
2.89962
2.88097
2.86289
2.84537
2.8284
2.81194
2.79598
2.78051
2.76551
2.75096
2.73684
3.51947
3.47939
3.4408
3.40365
3.36789
3.33344
3.30023
3.26822
3.23734
3.20755
3.1788
3.15104
3.12424
3.09836
3.07336
3.04921
3.02587
3.00331
2.9815
2.96041
2.94001
2.92027
2.90118
2.8827
2.86482
2.84751
2.83074
2.81451
2.79878
2.78355
2.76879
2.75448
2.74062
3.51949
3.47947
3.44095
3.40384
3.3681
3.33369
3.30054
3.26862
3.23789
3.2083
3.17981
3.15237
3.12595
3.10051
3.076
3.05239
3.02965
3.00773
2.98661
2.96625
2.94662
2.92769
2.90944
2.89182
2.87482
2.8584
2.84256
2.82725
2.81246
2.79817
2.78436
2.771
2.75808
3.5195
3.47953
3.44117
3.40446
3.36934
3.33573
3.3036
3.27292
3.24364
3.21573
3.18913
3.16381
3.13969
3.11673
3.09486
3.07404
3.05419
3.03526
3.01721
2.99998
2.98351
2.96777
2.9527
2.93828
2.92445
2.91118
2.89845
2.88621
2.87443
2.8631
2.85218
2.84165
2.83149
3.51968
3.48122
3.44561
3.41286
3.38296
3.35588
3.33151
3.30967
3.29014
3.27271
3.25717
3.2433
3.23091
3.21984
3.20991
3.20099
3.19295
3.18567
3.17905
3.173
3.16744
3.1623
3.15752
3.15303
3.1488
3.14477
3.14091
3.13719
3.13356
3.13002
3.12652
3.12306
3.11961
3.52527
3.5137
3.51624
3.52953
3.55079
3.57798
3.60949
3.64404
3.68065
3.71859
3.75728
3.79625
3.83515
3.87369
3.91167
3.94892
3.98532
4.02077
4.0552
4.08858
4.12088
4.15207
4.18217
4.21116
4.23907
4.26592
4.29172
4.31651
4.34031
4.36316
4.38509
4.40615
4.42639
3.83318
4.36504
4.84909
5.31395
5.77421
6.2253
6.66296
7.08536
7.49219
7.88385
8.26118
8.62513
8.97666
9.31667
9.64599
9.96538
10.2755
10.577
10.8704
11.1563
11.4351
11.7074
11.9734
12.2338
12.4888
12.7389
12.9845
13.2259
13.4636
13.6977
13.9288
14.1571
14.3829
30.2663
32.7713
35.3126
37.865
40.4147
42.9529
45.4713
47.9624
50.4192
52.8356
55.206
57.5256
59.7902
61.9965
64.1416
66.2235
68.2403
70.1909
72.0746
73.8911
75.6403
77.3227
78.9388
80.4894
81.9756
83.3986
84.7596
86.0601
87.3015
88.4856
89.6139
90.6878
91.7103
88.5713
251.755
462.89
675.766
845.161
938.259
947.501
893.174
806.75
714.343
630.511
560.257
503.461
458.213
422.407
394.201
372.189
354.999
341.348
330.082
320.104
310.328
299.649
286.924
270.993
250.75
225.306
194.286
158.275
119.333
81.2422
48.8262
25.92
13.1294
7.68869
5.95461
5.6255
5.75246
6.0091
6.27903
6.51282
6.68764
6.79604
6.84059
6.82973
6.7744
6.68565
6.57346
6.44613
6.31027
6.17095
6.03199
5.8962
5.76565
5.64186
5.52596
5.41879
5.321
5.23306
5.15523
5.08751
5.02947
4.9802
4.93817
4.90123
4.86673
4.83164
4.79271
4.7465
4.6893
4.61697
4.52482
4.40774
4.26075
4.08002
3.86405
3.61493
3.33897
3.0466
2.7513
2.46765
2.20896
1.98505
1.80086
1.65625
1.54705
1.46678
1.40849
1.36606
1.33482
1.31154
1.29409
1.28105
1.27139
1.26433
1.25923
1.25559
1.25302
1.2513
1.24964
19.8093
30.0547
53.0944
95.6754
162.426
251.143
351.189
445.27
516.595
555.879
563.757
548.062
518.881
484.718
450.999
420.372
393.467
369.937
349.058
329.915
311.538
292.936
273.121
251.149
226.224
197.864
166.149
132.01
97.4734
65.5768
39.6259
21.7735
11.794
7.34854
5.75601
5.3345
5.35112
5.53026
5.76132
5.98956
6.18385
6.3278
6.41587
6.45021
6.43757
6.38669
6.30656
6.20538
6.09013
5.96644
5.83873
5.71037
5.58391
5.46124
5.34379
5.23263
5.12861
5.03243
4.94469
4.86586
4.79627
4.73597
4.6846
4.64125
4.6044
4.57189
4.54107
4.50889
4.47198
4.42663
4.36869
4.29343
4.19568
4.07032
3.91314
3.72207
3.49833
3.24721
2.97801
2.70316
2.43645
2.19082
1.97614
1.79786
1.65659
1.549
1.46933
1.41115
1.36865
1.3373
1.31389
1.2963
1.28309
1.27324
1.26597
1.26067
1.25685
1.2541
1.25223
1.25036
9.6789
9.9446
10.4334
12.0448
16.8752
28.1824
49.8401
84.3685
130.493
182.819
233.981
277.334
308.734
327.025
333.422
330.589
320.549
305.633
287.829
268.317
247.536
225.458
201.865
176.595
149.734
121.8
93.8713
67.5874
44.8975
27.4743
15.9668
9.59899
6.6414
5.45242
5.05289
5.00181
5.11331
5.29833
5.50525
5.70082
5.86408
5.98372
6.05611
6.0832
6.07036
6.02456
5.95305
5.86256
5.7589
5.64688
5.53035
5.41229
5.29502
5.18027
5.06937
4.96336
4.86307
4.76918
4.68236
4.60321
4.53227
4.46993
4.41629
4.37101
4.33314
4.30109
4.27266
4.24509
4.21521
4.17941
4.13359
4.07311
3.99279
3.88741
3.75244
3.58522
3.3861
3.15922
2.91273
2.65793
2.40779
2.17482
1.96899
1.79623
1.65794
1.55164
1.47232
1.41407
1.37138
1.33983
1.31624
1.29845
1.28504
1.27498
1.26749
1.26197
1.25794
1.25499
1.25296
1.25087
6.0934
6.20837
6.25622
6.12998
5.78637
5.54394
6.28878
9.11313
15.2206
25.7889
41.2778
60.788
82.2133
102.996
120.893
134.247
142.854
146.421
144.95
138.89
128.965
116.001
100.839
84.3419
67.4439
51.1809
36.6327
24.7454
16.061
10.4932
7.36587
5.786
5.046
4.74193
4.67553
4.74496
4.88966
5.06865
5.25245
5.42009
5.55771
5.65774
5.71789
5.73984
5.72781
5.68732
5.62415
5.54379
5.45108
5.35011
5.24423
5.13608
5.02776
4.92086
4.81665
4.71609
4.61999
4.52902
4.44384
4.36511
4.29348
4.22957
4.17384
4.12639
4.08683
4.05413
4.02656
4.00177
3.97685
3.94839
3.91247
3.86455
3.79959
3.71229
3.59789
3.45314
3.27753
3.07407
2.84965
2.61445
2.38054
2.15997
1.96276
1.79532
1.65983
1.55466
1.47554
1.41711
1.37414
1.34233
1.31852
1.30053
1.28691
1.27662
1.2689
1.26315
1.2589
1.25575
1.25356
1.25122
4.4535
4.51521
4.58338
4.63809
4.62574
4.47172
4.16747
3.83043
3.75416
4.33349
5.87194
8.56215
12.4534
17.3426
22.7453
27.9142
32.4363
35.8936
37.907
38.2368
36.843
33.8999
29.7707
24.9531
20.0038
15.4462
11.669
8.84649
6.92758
5.71652
4.99339
4.59083
4.40183
4.3579
4.41182
4.52857
4.6807
4.84609
5.0071
5.15036
5.26667
5.35092
5.40159
5.42003
5.4095
5.37428
5.31899
5.24807
5.16556
5.07492
4.97905
4.88031
4.78058
4.68137
4.58383
4.4889
4.39732
4.30977
4.22687
4.14927
4.07767
4.01282
3.9554
3.90589
3.86435
3.83027
3.80243
3.77893
3.7572
3.7341
3.70595
3.66844
3.61668
3.54544
3.44975
3.32588
3.17244
2.99136
2.78825
2.5721
2.35406
2.14567
1.95694
1.79472
1.66195
1.55782
1.47883
1.42014
1.37684
1.34474
1.32069
1.30249
1.28866
1.27815
1.2702
1.26423
1.25976
1.2564
1.25403
1.25146
3.65101
3.67772
3.71129
3.75208
3.79582
3.82624
3.81257
3.72106
3.55328
3.37949
3.3039
3.43004
3.84071
4.57226
5.59547
6.86859
8.08184
9.07909
9.77344
10.1096
10.0689
9.67831
9.01004
8.16923
7.27159
6.41849
5.67896
5.08527
4.64129
4.33512
4.14843
4.06118
4.05392
4.10857
4.20849
4.33821
4.48344
4.63134
4.77085
4.89315
4.99195
5.06364
5.1071
5.1233
5.11469
5.08458
5.03661
4.97438
4.90125
4.82014
4.73358
4.64367
4.55212
4.46029
4.3693
4.28003
4.19319
4.10942
4.02931
3.95347
3.8826
3.81749
3.75895
3.70771
3.66422
3.62842
3.59957
3.57624
3.55624
3.53678
3.51447
3.48529
3.4446
3.38731
3.30834
3.20355
3.07076
2.91081
2.72809
2.53036
2.32779
2.13139
1.95106
1.79406
1.664
1.56091
1.48203
1.42306
1.37939
1.34698
1.32269
1.30429
1.29025
1.27953
1.27137
1.26518
1.26051
1.25695
1.25442
1.25159
3.22673
3.23498
3.24707
3.26412
3.28695
3.31513
3.3445
3.36477
3.36156
3.32687
3.26944
3.21757
3.21111
3.28589
3.46218
3.74321
4.05528
4.34894
4.58911
4.7528
4.82887
4.81814
4.73227
4.59101
4.4183
4.23795
4.0704
3.9308
3.82879
3.76904
3.75225
3.77605
3.83581
3.92527
4.03701
4.16296
4.29482
4.42455
4.54482
4.64952
4.73414
4.79593
4.83398
4.84888
4.84244
4.81716
4.77591
4.72161
4.65702
4.58464
4.50666
4.42496
4.34107
4.25628
4.17162
4.08793
4.00591
3.92614
3.84919
3.77562
3.7061
3.64139
3.58236
3.5299
3.48473
3.44716
3.41692
3.39299
3.37362
3.35637
3.3382
3.31544
3.28377
3.2383
3.17399
3.08633
2.97249
2.83228
2.66886
2.48881
2.30129
2.11667
1.94472
1.79299
1.66573
1.56375
1.48501
1.42575
1.38172
1.349
1.32446
1.30586
1.29165
1.28074
1.27239
1.26601
1.26114
1.2574
1.2547
1.25165
2.99253
2.99061
2.99093
2.99418
3.00103
3.01209
3.02759
3.04659
3.06602
3.08107
3.0874
3.08461
3.07852
3.08017
3.10252
3.15334
3.22587
3.30897
3.39065
3.46072
3.51218
3.54189
3.55044
3.54161
3.52145
3.49716
3.47607
3.46473
3.46834
3.4904
3.53267
3.59516
3.67627
3.77306
3.8815
3.99677
4.11354
4.22637
4.33012
4.42033
4.49354
4.54758
4.58157
4.59584
4.59163
4.57083
4.53568
4.48853
4.43168
4.36724
4.29712
4.22298
4.14624
4.06807
3.98945
3.91119
3.83394
3.75828
3.68473
3.61381
3.54613
3.48241
3.42352
3.3704
3.32398
3.28485
3.25311
3.22816
3.20865
3.19251
3.17706
3.15902
3.13445
3.09875
3.04697
2.97444
2.87771
2.75569
2.6104
2.44719
2.27422
2.10118
1.9376
1.79124
1.66693
1.56617
1.48764
1.42815
1.38376
1.35072
1.32595
1.30718
1.2928
1.28175
1.27323
1.26668
1.26164
1.25773
1.2549
1.25163
2.86213
2.8541
2.84751
2.84283
2.84051
2.84101
2.84472
2.85185
2.86217
2.8748
2.88816
2.90055
2.91106
2.9204
2.93122
2.9464
2.96738
2.99372
3.02352
3.0542
3.08333
3.10926
3.13146
3.15057
3.16827
3.18697
3.20947
3.23856
3.27665
3.32558
3.38633
3.45894
3.54254
3.63533
3.73472
3.83746
3.93983
4.03789
4.12782
4.20618
4.27023
4.31816
4.3491
4.36312
4.36107
4.34434
4.31466
4.27392
4.22401
4.16675
4.10378
4.03659
3.96646
3.89447
3.82157
3.7485
3.67592
3.60437
3.53435
3.46633
3.40086
3.33861
3.2804
3.22721
3.18003
3.13968
3.10658
3.08047
3.06035
3.04453
3.03069
3.01593
2.99672
2.96885
2.92756
2.8681
2.78659
2.68111
2.55263
2.40534
2.24637
2.08466
1.92945
1.7886
1.6674
1.56804
1.48984
1.43017
1.38546
1.35212
1.32713
1.30819
1.29368
1.2825
1.27385
1.26716
1.26199
1.25793
1.25498
1.25152
2.79105
2.77918
2.76831
2.75877
2.75091
2.74507
2.74158
2.74069
2.74256
2.74714
2.75418
2.76315
2.7734
2.78442
2.79618
2.809
2.82334
2.8395
2.85754
2.87729
2.89845
2.9208
2.94436
2.96946
2.99683
3.02748
3.06261
3.10348
3.15123
3.20668
3.27025
3.34182
3.42069
3.50554
3.5945
3.68516
3.77475
3.86027
3.93873
4.0074
4.06404
4.10706
4.13562
4.1496
4.14953
4.13641
4.11157
4.07652
4.03282
3.982
3.92551
3.86466
3.80061
3.73438
3.66683
3.5987
3.53062
3.4631
3.39663
3.33164
3.26865
3.20823
3.15117
3.0984
3.05097
3.00984
2.97565
2.94843
2.92751
2.91152
2.89846
2.88582
2.87049
2.84867
2.81591
2.76752
2.69929
2.60866
2.49559
2.36321
2.21761
2.06696
1.92009
1.7849
1.66703
1.56924
1.49153
1.43177
1.38677
1.35315
1.32795
1.30886
1.29425
1.28297
1.27423
1.26743
1.26215
1.25798
1.25493
1.25131
2.75403
2.73974
2.72619
2.71363
2.70232
2.69254
2.68457
2.67865
2.67496
2.67364
2.6747
2.67809
2.68363
2.69109
2.70027
2.71104
2.72337
2.7373
2.75289
2.77023
2.78947
2.81076
2.83439
2.86071
2.89021
2.9235
2.96122
3.00403
3.05249
3.10698
3.16762
3.23419
3.30606
3.38219
3.46109
3.54092
3.61948
3.69442
3.76334
3.82401
3.87454
3.91352
3.94012
3.95411
3.95576
3.94578
3.92516
3.89511
3.85691
3.81186
3.76121
3.70612
3.64765
3.58673
3.52418
3.4607
3.3969
3.33329
3.27032
3.20842
3.14804
3.08971
3.03414
2.98222
2.935
2.89352
2.85859
2.83047
2.80876
2.79234
2.77953
2.76813
2.75546
2.73814
2.71213
2.67287
2.61604
2.53851
2.43943
2.32088
2.18796
2.04803
1.90945
1.78004
1.6657
1.56972
1.49265
1.43291
1.38768
1.3538
1.3284
1.30919
1.29449
1.28314
1.27433
1.26746
1.26209
1.25785
1.25472
1.25098
2.73594
2.72019
2.705
2.69057
2.67711
2.66485
2.65403
2.64486
2.63754
2.63222
2.62903
2.62802
2.62921
2.63256
2.63801
2.64549
2.65496
2.66641
2.67985
2.69536
2.71306
2.73313
2.75583
2.78144
2.81034
2.84291
2.87956
2.92067
2.96656
3.01738
3.07312
3.13352
3.19801
3.26574
3.33551
3.40582
3.47492
3.54089
3.60177
3.6557
3.70105
3.73659
3.76149
3.77544
3.77851
3.77119
3.75421
3.72852
3.69517
3.65524
3.60983
3.55995
3.50657
3.45054
3.39263
3.33351
3.27377
3.2139
3.15433
3.09549
3.03778
2.98169
2.92786
2.87711
2.83049
2.78906
2.75375
2.72501
2.70264
2.68575
2.67287
2.66211
2.65113
2.63703
2.61617
2.58429
2.53703
2.4709
2.38433
2.27848
2.15748
2.02788
1.8975
1.77397
1.66338
1.56942
1.49318
1.43357
1.38818
1.35408
1.3285
1.30917
1.2944
1.283
1.27414
1.26722
1.26181
1.25751
1.25433
1.25051
2.72775
2.71117
2.69503
2.67949
2.66471
2.65089
2.63824
2.62693
2.61718
2.60913
2.60293
2.59869
2.5965
2.5964
2.59842
2.60259
2.60891
2.6174
2.62811
2.6411
2.65648
2.67439
2.69501
2.71857
2.74531
2.77551
2.80942
2.84728
2.88925
2.93539
2.98562
3.03968
3.09706
3.15704
3.21863
3.2806
3.3415
3.39977
3.45375
3.50188
3.54275
3.57524
3.59858
3.61236
3.61655
3.61143
3.59755
3.57562
3.5465
3.51111
3.47038
3.4252
3.37645
3.3249
3.27128
3.21623
3.16029
3.10397
3.04768
2.99182
2.93678
2.883
2.83105
2.78171
2.73598
2.69494
2.65959
2.63053
2.60771
2.59041
2.57735
2.56685
2.55688
2.54497
2.52791
2.50181
2.46243
2.40605
2.33053
2.23623
2.12635
2.00663
1.88429
1.76671
1.66005
1.56833
1.49311
1.43377
1.3883
1.354
1.32825
1.3088
1.29397
1.28254
1.27366
1.26672
1.26128
1.25695
1.25374
1.24987
2.72434
2.70731
2.69064
2.67445
2.65888
2.64408
2.63024
2.61751
2.60609
2.59611
2.58774
2.5811
2.57631
2.57345
2.5726
2.57383
2.57719
2.58274
2.59055
2.60069
2.61326
2.62838
2.6462
2.66689
2.69061
2.71757
2.74791
2.7818
2.81931
2.86045
2.90509
2.95299
3.00371
3.05663
3.1109
3.16551
3.21924
3.27078
3.31875
3.36178
3.39867
3.42839
3.45021
3.46369
3.46869
3.46536
3.45406
3.43535
3.40992
3.37852
3.34194
3.30099
3.25643
3.20898
3.15931
3.10802
3.05565
3.00267
2.94949
2.89651
2.84408
2.79261
2.74263
2.69485
2.65022
2.60983
2.57473
2.54561
2.52258
2.50504
2.49181
2.48138
2.47196
2.46144
2.44708
2.42538
2.39235
2.34417
2.2783
2.19438
2.09478
1.98442
1.86991
1.75831
1.65574
1.56646
1.49244
1.43352
1.38804
1.3536
1.32768
1.30813
1.29324
1.28178
1.2729
1.26595
1.26051
1.25616
1.25295
1.24905
2.72302
2.70577
2.6888
2.67223
2.65616
2.64074
2.6261
2.6124
2.59979
2.58842
2.57843
2.56996
2.56313
2.55804
2.55481
2.55351
2.55423
2.55706
2.56206
2.56935
2.579
2.59113
2.60587
2.62334
2.64368
2.66703
2.69349
2.72317
2.7561
2.79225
2.83149
2.87359
2.91816
2.96465
3.01236
3.06042
3.10781
3.1534
3.19602
3.23451
3.26778
3.29492
3.31524
3.32826
3.33379
3.33185
3.32269
3.30672
3.28446
3.25655
3.22367
3.18649
3.14572
3.102
3.05595
3.00814
2.95909
2.90924
2.85901
2.80877
2.75886
2.70967
2.66167
2.61553
2.57214
2.53258
2.49795
2.46901
2.44599
2.42838
2.41509
2.40468
2.39555
2.38588
2.37334
2.3549
2.32686
2.28547
2.22789
2.1532
2.063
1.96145
1.85452
1.74885
1.65048
1.56384
1.49121
1.43285
1.38746
1.35291
1.32685
1.30719
1.29224
1.28077
1.27188
1.26494
1.2595
1.25516
1.25195
1.24806
2.72253
2.70515
2.68801
2.6712
2.65481
2.63896
2.62376
2.60935
2.59586
2.58344
2.5722
2.56229
2.55382
2.54691
2.54167
2.53821
2.53662
2.53699
2.53941
2.54399
2.55083
2.56001
2.57166
2.58589
2.6028
2.62251
2.64509
2.67061
2.69908
2.73046
2.76461
2.80132
2.84024
2.88091
2.92272
2.96491
3.00663
3.0469
3.08472
3.11908
3.14903
3.17374
3.19254
3.20497
3.21077
3.2099
3.20247
3.18879
3.16926
3.14439
3.11476
3.08096
3.04359
3.00326
2.96053
2.91592
2.86994
2.82302
2.77556
2.72791
2.68041
2.63342
2.58738
2.5429
2.50083
2.46224
2.42822
2.39965
2.37683
2.35933
2.34611
2.33577
2.32681
2.31762
2.30627
2.29015
2.26595
2.23008
2.17954
2.11297
2.0313
1.93796
1.83828
1.73846
1.64437
1.56051
1.48944
1.43178
1.38658
1.35197
1.3258
1.30603
1.29103
1.27953
1.27064
1.26371
1.25829
1.25397
1.25078
1.2469
2.72233
2.70487
2.68762
2.67064
2.65402
2.63785
2.62223
2.60727
2.5931
2.57984
2.56761
2.55652
2.54671
2.53828
2.53135
2.52602
2.5224
2.52059
2.52068
2.52278
2.52698
2.53339
2.5421
2.55322
2.56684
2.58305
2.60192
2.62349
2.64775
2.67466
2.70409
2.73585
2.76962
2.80501
2.84148
2.87839
2.915
2.95048
2.98395
3.01454
3.04139
3.06377
3.08105
3.09277
3.09863
3.09852
3.09248
3.0807
3.0635
3.04128
3.0145
2.9837
2.94939
2.91212
2.87241
2.83076
2.78761
2.74341
2.69853
2.65332
2.60811
2.56323
2.5191
2.47627
2.43555
2.39799
2.3647
2.33661
2.31413
2.2969
2.2839
2.27372
2.26491
2.25601
2.24539
2.23088
2.20956
2.1781
2.13346
2.07395
1.99995
1.9142
1.8214
1.72729
1.6375
1.55654
1.48719
1.43036
1.38544
1.35084
1.32457
1.30471
1.28964
1.27812
1.26923
1.26232
1.25692
1.25263
1.24945
1.2456
2.72222
2.7047
2.68735
2.67024
2.65344
2.63701
2.62105
2.60566
2.59094
2.57699
2.56394
2.55188
2.54094
2.53122
2.52283
2.51589
2.5105
2.50675
2.50476
2.50461
2.50641
2.51026
2.51625
2.52448
2.53503
2.54798
2.56338
2.58126
2.60162
2.6244
2.6495
2.67673
2.70582
2.73642
2.76806
2.8002
2.83218
2.86331
2.89281
2.91992
2.94389
2.96404
2.9798
2.9907
2.99643
2.99683
2.99188
2.98167
2.96644
2.9465
2.92223
2.89408
2.86251
2.82801
2.79105
2.75209
2.71156
2.66988
2.6274
2.58448
2.54142
2.49855
2.45625
2.41503
2.37566
2.33916
2.30665
2.27913
2.25709
2.24024
2.22759
2.2177
2.20909
2.20039
2.19022
2.17678
2.15758
2.12957
2.08982
2.03639
1.9692
1.8904
1.80408
1.71549
1.62997
1.552
1.4845
1.42863
1.3841
1.34956
1.32323
1.30328
1.28815
1.2766
1.26771
1.26081
1.25543
1.25116
1.24801
1.2442
2.72211
2.70454
2.68712
2.6699
2.65294
2.6363
2.62006
2.6043
2.58911
2.5746
2.56085
2.54797
2.53606
2.52524
2.5156
2.50726
2.50031
2.49486
2.491
2.48884
2.48848
2.49001
2.49351
2.49909
2.50682
2.51676
2.52897
2.54346
2.56024
2.57924
2.60038
2.62348
2.6483
2.67455
2.70181
2.72962
2.75741
2.78456
2.81043
2.83432
2.85559
2.87361
2.88785
2.89786
2.90332
2.90402
2.89989
2.89096
2.87739
2.85941
2.83733
2.81153
2.78241
2.7504
2.71593
2.67943
2.64131
2.60195
2.56171
2.52092
2.47988
2.4389
2.39834
2.35868
2.32063
2.28519
2.25349
2.22659
2.20504
2.18866
2.17646
2.16697
2.15865
2.15016
2.14027
2.12753
2.10983
2.0845
2.04874
2.00049
1.93932
1.86684
1.78655
1.70324
1.62193
1.54699
1.48142
1.42664
1.38258
1.34818
1.32182
1.3018
1.2866
1.27501
1.26611
1.25923
1.25387
1.24963
1.2465
1.24273
2.722
2.70438
2.68689
2.66957
2.65247
2.63565
2.61916
2.60309
2.58751
2.57251
2.55816
2.54458
2.53185
2.52008
2.50935
2.49979
2.49147
2.48452
2.47901
2.47506
2.47275
2.47218
2.47344
2.47661
2.48176
2.48896
2.49825
2.50965
2.52315
2.53871
2.55623
2.57557
2.59653
2.61882
2.64211
2.66597
2.68994
2.71347
2.736
2.75692
2.77565
2.79163
2.80437
2.81344
2.8185
2.81933
2.8158
2.80791
2.79572
2.77942
2.75924
2.73551
2.70857
2.6788
2.64659
2.61233
2.57641
2.5392
2.50102
2.46222
2.42307
2.38387
2.34496
2.30678
2.27002
2.23562
2.20473
2.17846
2.15744
2.14157
2.1299
2.12091
2.11299
2.10475
2.09509
2.08279
2.06616
2.04286
2.01031
1.96645
1.91054
1.84373
1.76903
1.69071
1.61349
1.54159
1.47804
1.42442
1.38093
1.34672
1.32037
1.30029
1.28504
1.27342
1.26451
1.25762
1.25228
1.24807
1.24496
1.24124
2.72188
2.70421
2.68665
2.66924
2.65202
2.63503
2.61834
2.602
2.58607
2.57065
2.5558
2.54161
2.52816
2.51556
2.5039
2.49326
2.48375
2.47546
2.4685
2.46294
2.45889
2.45644
2.45567
2.45667
2.45949
2.4642
2.47083
2.47942
2.48994
2.50236
2.5166
2.53253
2.54996
2.56866
2.58834
2.60862
2.6291
2.64932
2.66877
2.68693
2.70329
2.71733
2.7286
2.73669
2.74127
2.74208
2.73897
2.73189
2.72085
2.70598
2.68746
2.66555
2.64055
2.61278
2.58261
2.5504
2.51649
2.48125
2.44499
2.40802
2.37063
2.3331
2.29574
2.25898
2.22345
2.19007
2.15998
2.13433
2.11385
2.09852
2.08743
2.07903
2.0716
2.0637
2.05425
2.04226
2.02636
2.00459
1.97461
1.93441
1.88306
1.82133
1.75173
1.67811
1.60482
1.5359
1.47441
1.42204
1.37919
1.34523
1.31892
1.29881
1.2835
1.27184
1.26292
1.25604
1.25072
1.24652
1.24344
1.23976
2.72174
2.70402
2.6864
2.66891
2.65158
2.63444
2.61756
2.60098
2.58476
2.56897
2.55368
2.53897
2.52491
2.51159
2.4991
2.48752
2.47696
2.46751
2.45924
2.45227
2.44667
2.44253
2.43994
2.43897
2.43969
2.44214
2.44638
2.45241
2.46023
2.4698
2.48106
2.49388
2.50811
2.52355
2.53994
2.55696
2.57426
2.59144
2.60806
2.62367
2.6378
2.65
2.65984
2.66693
2.67095
2.67163
2.6688
2.66234
2.65225
2.6386
2.62151
2.6012
2.57792
2.55196
2.52363
2.49327
2.4612
2.42777
2.39327
2.35801
2.32226
2.2863
2.2504
2.21498
2.18063
2.14823
2.11892
2.09387
2.07392
2.05913
2.04865
2.04091
2.03408
2.02661
2.01743
2.00567
1.99028
1.96963
1.94169
1.90452
1.85709
1.79985
1.73489
1.66562
1.59606
1.53005
1.47061
1.41953
1.37738
1.34372
1.3175
1.29737
1.28202
1.27033
1.26139
1.25451
1.2492
1.24502
1.24196
1.23832
2.72158
2.70382
2.68614
2.66857
2.65114
2.63388
2.61683
2.60004
2.58356
2.56745
2.55178
2.5366
2.52201
2.50806
2.49485
2.48246
2.47098
2.46049
2.45108
2.44284
2.43586
2.43022
2.426
2.42326
2.42208
2.4225
2.42456
2.42828
2.43365
2.44064
2.44919
2.4592
2.47053
2.483
2.4964
2.51045
2.52484
2.53924
2.55325
2.56649
2.57855
2.589
2.59745
2.60355
2.60696
2.60742
2.60473
2.59876
2.58944
2.57682
2.56098
2.54207
2.52031
2.49596
2.46929
2.44061
2.41024
2.37846
2.3456
2.31192
2.2777
2.2432
2.20868
2.17453
2.14131
2.10985
2.08129
2.05684
2.03739
2.02314
2.01328
2.00624
2.00009
1.99317
1.98432
1.97279
1.95776
1.93795
1.91159
1.87691
1.83282
1.77952
1.71873
1.65345
1.58739
1.52417
1.46674
1.41696
1.37555
1.34224
1.31613
1.296
1.28062
1.2689
1.25994
1.25306
1.24776
1.2436
1.24056
1.23695
2.72141
2.70361
2.68588
2.66823
2.65071
2.63333
2.61613
2.59916
2.58245
2.56606
2.55005
2.53448
2.51941
2.50492
2.49108
2.47798
2.46568
2.45428
2.44386
2.43451
2.4263
2.41931
2.41363
2.40931
2.40642
2.40501
2.40511
2.40674
2.4099
2.41455
2.42065
2.4281
2.4368
2.44658
2.45725
2.46859
2.48033
2.49217
2.50379
2.51484
2.52494
2.53374
2.54086
2.54597
2.54875
2.54892
2.54628
2.54066
2.53198
2.52023
2.50546
2.48778
2.46738
2.44447
2.4193
2.39215
2.36331
2.33307
2.30172
2.26952
2.23673
2.2036
2.1704
2.13746
2.10531
2.07477
2.04694
2.02305
2.00409
1.99035
1.98112
1.97481
1.96943
1.96315
1.95475
1.94349
1.92874
1.90953
1.8844
1.85175
1.81048
1.76059
1.7035
1.64185
1.57901
1.51841
1.46292
1.41442
1.37375
1.34081
1.31483
1.29473
1.27932
1.26757
1.2586
1.25171
1.24642
1.24228
1.23925
1.23568
2.72123
2.70339
2.6856