/*--------------------------------*- C++ -*----------------------------------*\
  =========                 |
  \\      /  F ield         | OpenFOAM: The Open Source CFD Toolbox
   \\    /   O peration     | Website:  https://openfoam.org
    \\  /    A nd           | Version:  10
     \\/     M anipulation  |
\*---------------------------------------------------------------------------*/
FoamFile
{
    format      ascii;
    class       volScalarField;
    location    "0.06";
    object      k;
}
// * * * * * * * * * * * * * * * * * * * * * * * * * * * * * * * * * * * * * //

dimensions      [0 2 -2 0 0 0 0];

internalField   nonuniform List<scalar> 
6820
(
0.196709
0.190616
0.184994
0.179724
0.174797
0.170249
0.166114
0.162407
0.159125
0.156249
0.153753
0.151605
0.149772
0.148224
0.146929
0.145861
0.144995
0.144307
0.143778
0.143389
0.143123
0.142968
0.142909
0.142936
0.143039
0.14321
0.143437
0.143738
0.143992
0.144743
0.143411
0.152136
0.113724
0.201954
0.200832
0.197543
0.193922
0.190841
0.188586
0.187159
0.186437
0.186273
0.186534
0.187113
0.187931
0.188927
0.190057
0.191289
0.192595
0.193957
0.195359
0.196789
0.198239
0.199701
0.201172
0.202647
0.204128
0.205616
0.207116
0.208639
0.210198
0.211826
0.213613
0.215419
0.218621
0.219666
0.200488
0.200474
0.199117
0.19707
0.194841
0.19269
0.190724
0.188986
0.18749
0.186234
0.185209
0.184399
0.183786
0.183349
0.183069
0.182928
0.182909
0.182998
0.183181
0.183446
0.183783
0.184184
0.18464
0.185147
0.1857
0.186295
0.186933
0.187616
0.188343
0.189148
0.189981
0.190997
0.191898
0.199662
0.199121
0.198219
0.196983
0.195545
0.194012
0.192458
0.19093
0.189462
0.188073
0.186775
0.185577
0.184479
0.183483
0.182585
0.181782
0.181069
0.18044
0.179891
0.179416
0.179009
0.178666
0.178382
0.178154
0.177978
0.177852
0.177775
0.177746
0.177768
0.177848
0.177984
0.178203
0.178487
0.199429
0.198466
0.197531
0.196512
0.195399
0.194214
0.192986
0.191739
0.190494
0.189266
0.188067
0.186907
0.185791
0.184725
0.183711
0.18275
0.181844
0.18099
0.18019
0.179441
0.178741
0.178088
0.177482
0.17692
0.176401
0.175923
0.175486
0.17509
0.174735
0.174425
0.174162
0.173951
0.173791
0.199398
0.198268
0.197202
0.196166
0.195133
0.194088
0.193028
0.191958
0.190883
0.189811
0.188749
0.187702
0.186676
0.185674
0.1847
0.183756
0.182845
0.181966
0.18112
0.180309
0.179531
0.178786
0.178075
0.177395
0.176748
0.176133
0.175549
0.174997
0.174477
0.173991
0.17354
0.173128
0.172755
0.199395
0.19822
0.197098
0.196021
0.194978
0.193957
0.192952
0.191958
0.190972
0.189996
0.18903
0.188077
0.187138
0.186215
0.185311
0.184426
0.183562
0.18272
0.181901
0.181106
0.180334
0.179586
0.178863
0.178163
0.177487
0.176836
0.176208
0.175605
0.175027
0.174474
0.173949
0.173453
0.172988
0.199395
0.198211
0.197069
0.195969
0.194908
0.193881
0.192884
0.191911
0.19096
0.190028
0.189114
0.188216
0.187335
0.18647
0.185622
0.184791
0.183977
0.183182
0.182404
0.181646
0.180906
0.180184
0.179482
0.178799
0.178135
0.177489
0.176864
0.176257
0.175671
0.175105
0.174562
0.174041
0.173545
0.199395
0.198209
0.197063
0.195955
0.194884
0.193849
0.192848
0.191877
0.190933
0.190016
0.189122
0.18825
0.187398
0.186566
0.185753
0.184958
0.184181
0.183421
0.182679
0.181954
0.181246
0.180555
0.17988
0.179222
0.178581
0.177956
0.177348
0.176757
0.176183
0.175626
0.175088
0.17457
0.174072
0.199395
0.198209
0.197061
0.195951
0.194877
0.193838
0.192833
0.191859
0.190916
0.19
0.189112
0.188249
0.187409
0.186592
0.185796
0.18502
0.184264
0.183526
0.182807
0.182105
0.181421
0.180753
0.180101
0.179465
0.178846
0.178241
0.177653
0.17708
0.176522
0.175981
0.175457
0.17495
0.174462
0.199395
0.198209
0.197061
0.19595
0.194875
0.193834
0.192827
0.191852
0.190907
0.189991
0.189103
0.188242
0.187405
0.186593
0.185804
0.185037
0.18429
0.183564
0.182857
0.182168
0.181498
0.180844
0.180208
0.179587
0.178983
0.178394
0.177821
0.177263
0.17672
0.176193
0.175682
0.175188
0.174711
0.199395
0.198209
0.19706
0.195949
0.194874
0.193833
0.192825
0.191848
0.190903
0.189986
0.189098
0.188236
0.187401
0.18659
0.185802
0.185038
0.184295
0.183574
0.182872
0.182189
0.181526
0.18088
0.180252
0.17964
0.179045
0.178466
0.177902
0.177354
0.176822
0.176305
0.175804
0.175319
0.174851
0.199395
0.198209
0.19706
0.195949
0.194873
0.193832
0.192824
0.191847
0.190901
0.189984
0.189095
0.188233
0.187397
0.186586
0.185799
0.185036
0.184294
0.183574
0.182874
0.182194
0.181533
0.180891
0.180266
0.179659
0.179069
0.178495
0.177937
0.177394
0.176868
0.176357
0.175862
0.175383
0.174921
0.199395
0.198209
0.19706
0.195949
0.194873
0.193831
0.192823
0.191846
0.190899
0.189982
0.189093
0.188231
0.187395
0.186584
0.185797
0.185033
0.184292
0.183572
0.182873
0.182194
0.181534
0.180893
0.18027
0.179665
0.179076
0.178505
0.177949
0.17741
0.176887
0.176379
0.175887
0.175412
0.174952
0.199395
0.198208
0.19706
0.195948
0.194872
0.193831
0.192822
0.191845
0.190898
0.189981
0.189092
0.188229
0.187393
0.186582
0.185795
0.185031
0.18429
0.18357
0.182871
0.182192
0.181533
0.180892
0.18027
0.179665
0.179078
0.178507
0.177953
0.177415
0.176893
0.176387
0.175897
0.175422
0.174964
0.199395
0.198208
0.19706
0.195948
0.194872
0.19383
0.192822
0.191844
0.190898
0.18998
0.189091
0.188228
0.187392
0.18658
0.185793
0.185029
0.184288
0.183568
0.182869
0.18219
0.181531
0.180891
0.180269
0.179664
0.179078
0.178508
0.177954
0.177417
0.176895
0.17639
0.1759
0.175426
0.174967
0.199395
0.198208
0.19706
0.195948
0.194872
0.19383
0.192821
0.191844
0.190897
0.189979
0.18909
0.188227
0.187391
0.186579
0.185792
0.185028
0.184286
0.183567
0.182868
0.182189
0.18153
0.180889
0.180268
0.179664
0.179077
0.178507
0.177954
0.177417
0.176895
0.17639
0.1759
0.175426
0.174967
0.199395
0.198208
0.19706
0.195948
0.194872
0.19383
0.192821
0.191843
0.190896
0.189979
0.189089
0.188226
0.18739
0.186578
0.185791
0.185027
0.184285
0.183565
0.182866
0.182188
0.181528
0.180888
0.180267
0.179663
0.179076
0.178506
0.177953
0.177416
0.176895
0.176389
0.175899
0.175425
0.174965
0.199395
0.198208
0.19706
0.195948
0.194871
0.193829
0.19282
0.191843
0.190896
0.189978
0.189088
0.188225
0.187389
0.186577
0.18579
0.185026
0.184284
0.183564
0.182865
0.182186
0.181527
0.180887
0.180265
0.179662
0.179075
0.178505
0.177952
0.177415
0.176894
0.176388
0.175898
0.175423
0.174963
0.199395
0.198208
0.197059
0.195948
0.194871
0.193829
0.19282
0.191843
0.190895
0.189977
0.189088
0.188225
0.187388
0.186576
0.185789
0.185025
0.184283
0.183563
0.182864
0.182185
0.181526
0.180886
0.180264
0.179661
0.179074
0.178504
0.177951
0.177414
0.176893
0.176387
0.175896
0.175421
0.17496
0.199395
0.198208
0.197059
0.195947
0.194871
0.193829
0.19282
0.191842
0.190895
0.189977
0.189087
0.188224
0.187387
0.186576
0.185788
0.185024
0.184282
0.183562
0.182863
0.182184
0.181525
0.180885
0.180263
0.179659
0.179073
0.178503
0.17795
0.177413
0.176891
0.176385
0.175894
0.175418
0.174956
0.199395
0.198208
0.197059
0.195947
0.194871
0.193829
0.19282
0.191842
0.190895
0.189977
0.189087
0.188224
0.187387
0.186575
0.185787
0.185023
0.184281
0.183561
0.182862
0.182183
0.181524
0.180884
0.180262
0.179658
0.179072
0.178502
0.177948
0.177411
0.176889
0.176382
0.175891
0.175414
0.174951
0.199395
0.198208
0.197059
0.195947
0.194871
0.193829
0.192819
0.191842
0.190894
0.189976
0.189086
0.188223
0.187386
0.186574
0.185787
0.185022
0.184281
0.18356
0.182861
0.182182
0.181523
0.180883
0.180261
0.179657
0.17907
0.1785
0.177947
0.177409
0.176887
0.17638
0.175887
0.17541
0.174946
0.199395
0.198208
0.197059
0.195947
0.194871
0.193829
0.192819
0.191842
0.190894
0.189976
0.189086
0.188223
0.187386
0.186574
0.185786
0.185022
0.18428
0.18356
0.18286
0.182181
0.181522
0.180882
0.18026
0.179655
0.179069
0.178498
0.177944
0.177406
0.176884
0.176376
0.175883
0.175405
0.174941
0.199395
0.198208
0.197059
0.195947
0.194871
0.193829
0.192819
0.191841
0.190894
0.189976
0.189085
0.188222
0.187385
0.186573
0.185786
0.185021
0.184279
0.183559
0.18286
0.18218
0.181521
0.18088
0.180258
0.179654
0.179067
0.178496
0.177942
0.177404
0.176881
0.176373
0.175879
0.1754
0.174935
0.199395
0.198208
0.197059
0.195947
0.194871
0.193829
0.192819
0.191841
0.190894
0.189975
0.189085
0.188222
0.187385
0.186573
0.185785
0.185021
0.184278
0.183558
0.182859
0.18218
0.18152
0.180879
0.180257
0.179652
0.179065
0.178494
0.17794
0.177401
0.176877
0.176369
0.175875
0.175395
0.174928
0.199395
0.198208
0.197059
0.195947
0.194871
0.193828
0.192819
0.191841
0.190894
0.189975
0.189085
0.188222
0.187385
0.186573
0.185785
0.18502
0.184278
0.183557
0.182858
0.182178
0.181519
0.180878
0.180255
0.17965
0.179063
0.178492
0.177937
0.177398
0.176874
0.176364
0.17587
0.175389
0.174922
0.199395
0.198208
0.197059
0.195947
0.194871
0.193828
0.192819
0.191841
0.190894
0.189975
0.189085
0.188222
0.187385
0.186572
0.185784
0.18502
0.184277
0.183557
0.182857
0.182178
0.181518
0.180877
0.180254
0.179649
0.179061
0.178489
0.177934
0.177394
0.17687
0.17636
0.175865
0.175383
0.174915
0.199395
0.198208
0.197059
0.195947
0.194871
0.193828
0.192819
0.191841
0.190893
0.189975
0.189085
0.188221
0.187384
0.186572
0.185784
0.185019
0.184277
0.183556
0.182856
0.182177
0.181517
0.180875
0.180252
0.179647
0.179059
0.178487
0.177931
0.177391
0.176866
0.176356
0.17586
0.175377
0.174909
0.199395
0.198208
0.197059
0.195947
0.194871
0.193829
0.192819
0.191841
0.190894
0.189975
0.189085
0.188222
0.187385
0.186572
0.185784
0.185019
0.184277
0.183556
0.182856
0.182177
0.181516
0.180875
0.180252
0.179646
0.179057
0.178485
0.177929
0.177388
0.176863
0.176352
0.175855
0.175372
0.174903
0.199395
0.198208
0.197059
0.195947
0.194871
0.193829
0.192819
0.191841
0.190893
0.189975
0.189085
0.188221
0.187384
0.186572
0.185784
0.185019
0.184276
0.183556
0.182856
0.182176
0.181515
0.180874
0.18025
0.179644
0.179056
0.178483
0.177927
0.177386
0.17686
0.176348
0.175851
0.175367
0.174897
0.199395
0.198208
0.197059
0.195948
0.194871
0.19383
0.19282
0.191843
0.190896
0.189977
0.189087
0.188224
0.187387
0.186575
0.185786
0.185021
0.184279
0.183558
0.182858
0.182178
0.181517
0.180875
0.180252
0.179645
0.179056
0.178483
0.177926
0.177385
0.176858
0.176346
0.175848
0.175363
0.174892
0.199395
0.198209
0.19706
0.195949
0.194872
0.19383
0.192821
0.191843
0.190896
0.189978
0.189088
0.188225
0.187387
0.186575
0.185787
0.185023
0.18428
0.183559
0.182859
0.182179
0.181518
0.180876
0.180252
0.179645
0.179056
0.178482
0.177925
0.177382
0.176855
0.176342
0.175843
0.175357
0.174885
0.199395
0.198208
0.19706
0.19595
0.194876
0.193835
0.192828
0.191851
0.190905
0.189987
0.189098
0.188235
0.187398
0.186585
0.185797
0.185032
0.184289
0.183567
0.182866
0.182185
0.181523
0.18088
0.180255
0.179646
0.179055
0.17848
0.17792
0.177375
0.176845
0.176329
0.175827
0.175339
0.174863
0.199395
0.198212
0.197066
0.195957
0.194882
0.193842
0.192834
0.191857
0.190911
0.189994
0.189104
0.188241
0.187404
0.186591
0.185802
0.185035
0.18429
0.183567
0.182863
0.182179
0.181513
0.180865
0.180235
0.179622
0.179025
0.178443
0.177877
0.177326
0.176788
0.176265
0.175755
0.175258
0.174774
0.199396
0.198213
0.197071
0.195969
0.194902
0.193869
0.192866
0.191893
0.190948
0.19003
0.189137
0.18827
0.187427
0.186607
0.185809
0.185033
0.184277
0.183541
0.182824
0.182126
0.181446
0.180783
0.180136
0.179506
0.178892
0.178293
0.177708
0.177138
0.176581
0.176038
0.175508
0.174991
0.174486
0.199402
0.19824
0.197114
0.196018
0.194952
0.193916
0.192908
0.191927
0.190972
0.19004
0.189131
0.188245
0.18738
0.186535
0.185711
0.184907
0.184122
0.183355
0.182607
0.181876
0.181163
0.180466
0.179785
0.17912
0.178471
0.177836
0.177216
0.17661
0.176017
0.175438
0.174872
0.174318
0.173777
0.199421
0.198284
0.197214
0.196182
0.195158
0.194136
0.193118
0.19211
0.191117
0.190141
0.189187
0.188255
0.187346
0.186461
0.185598
0.184758
0.183939
0.183141
0.182363
0.181605
0.180865
0.180144
0.17944
0.178752
0.178081
0.177426
0.176786
0.176161
0.17555
0.174953
0.174371
0.173801
0.173245
0.199655
0.198884
0.198077
0.197302
0.196603
0.195976
0.195405
0.194881
0.194399
0.193954
0.193546
0.193174
0.192836
0.192533
0.192264
0.192027
0.191821
0.191645
0.191498
0.191379
0.191288
0.191222
0.191181
0.191165
0.191173
0.191203
0.191257
0.191332
0.191429
0.191548
0.191689
0.19185
0.192032
0.205419
0.216602
0.227661
0.238503
0.249093
0.259416
0.269459
0.279213
0.288668
0.297819
0.306661
0.315192
0.323411
0.331319
0.338918
0.346212
0.353206
0.359905
0.366316
0.372446
0.378301
0.38389
0.38922
0.394301
0.39914
0.403745
0.408126
0.412291
0.416246
0.420002
0.423565
0.426942
0.430146
0.326731
0.660849
1.03897
1.42127
1.75897
2.00616
2.14449
2.19294
2.1885
2.16345
2.136
2.11283
2.09508
2.0825
2.07483
2.07172
2.07264
2.07612
2.07991
2.08113
2.07631
2.06134
2.03159
1.98193
1.90692
1.80117
1.66003
1.48081
1.26505
1.02189
0.771699
0.54622
0.378881
0.285345
0.252118
0.25174
0.264575
0.281618
0.298994
0.314815
0.328093
0.338394
0.345695
0.350252
0.352471
0.352814
0.351724
0.349592
0.346749
0.343456
0.339925
0.336317
0.332761
0.329355
0.326179
0.323299
0.320764
0.318619
0.316894
0.315607
0.314756
0.314308
0.314197
0.314315
0.314516
0.31462
0.314426
0.313725
0.312302
0.309943
0.306429
0.301543
0.295074
0.286847
0.276759
0.264822
0.251204
0.236249
0.22047
0.204505
0.189047
0.174742
0.162102
0.151428
0.142793
0.136065
0.130974
0.127193
0.124404
0.122343
0.120811
0.119668
0.118814
0.118182
0.117718
0.117382
0.117141
0.116971
0.116856
0.116746
0.232656
0.265981
0.325139
0.42087
0.564744
0.759571
0.992019
1.23259
1.44817
1.61613
1.73064
1.7995
1.83623
1.85347
1.85999
1.86077
1.85752
1.85031
1.83819
1.81931
1.79101
1.74993
1.69211
1.61337
1.50974
1.37828
1.2183
1.03319
0.832619
0.634124
0.461393
0.336277
0.266483
0.240633
0.239545
0.249493
0.263786
0.279293
0.294286
0.307684
0.318836
0.327454
0.333542
0.337311
0.339092
0.339258
0.338172
0.336159
0.333496
0.330407
0.327076
0.323644
0.320226
0.316912
0.313774
0.310875
0.308266
0.305993
0.304095
0.302603
0.301531
0.300873
0.300588
0.300594
0.300771
0.300956
0.300963
0.300586
0.299614
0.297827
0.295005
0.290921
0.285358
0.278126
0.269102
0.25827
0.245764
0.23189
0.21712
0.202059
0.187368
0.17368
0.161503
0.151152
0.142724
0.136115
0.131084
0.127327
0.124546
0.122484
0.120947
0.119797
0.118937
0.118296
0.117823
0.117478
0.117229
0.11705
0.116928
0.116808
0.19306
0.196063
0.202475
0.214951
0.237175
0.274089
0.333445
0.423762
0.547583
0.697407
0.858161
1.01292
1.14806
1.25595
1.33479
1.38718
1.41525
1.42302
1.41413
1.39041
1.3519
1.29741
1.22527
1.13405
1.02338
0.894969
0.753752
0.608831
0.473325
0.36185
0.285045
0.243707
0.228878
0.229274
0.237294
0.249032
0.262369
0.275922
0.288693
0.299969
0.309306
0.316509
0.321594
0.324729
0.326178
0.326236
0.325199
0.323333
0.32087
0.318002
0.314886
0.311649
0.30839
0.305193
0.302124
0.299239
0.29659
0.294222
0.292178
0.290499
0.289212
0.288332
0.287842
0.287689
0.287778
0.28797
0.288096
0.28796
0.287355
0.286064
0.283863
0.280525
0.275822
0.269552
0.261571
0.251835
0.24044
0.227651
0.213896
0.199739
0.185812
0.172731
0.161003
0.150959
0.142719
0.136212
0.131227
0.127484
0.124701
0.122632
0.121086
0.119926
0.119056
0.118404
0.117921
0.117565
0.117306
0.117117
0.116987
0.116856
0.178904
0.17965
0.180789
0.182623
0.185805
0.191553
0.201442
0.216734
0.23956
0.2736
0.322262
0.385949
0.461112
0.541357
0.619381
0.68829
0.744413
0.783905
0.804302
0.804968
0.786534
0.750318
0.698106
0.632353
0.556633
0.476071
0.397391
0.328152
0.274852
0.240442
0.223099
0.217968
0.220361
0.227268
0.236929
0.248147
0.259968
0.271595
0.282377
0.291828
0.299637
0.305667
0.309933
0.312566
0.313768
0.313773
0.312817
0.311117
0.308867
0.30623
0.30334
0.300309
0.297228
0.294168
0.291193
0.288354
0.285698
0.28327
0.281115
0.279276
0.277793
0.276695
0.275986
0.275641
0.275592
0.275727
0.275897
0.27592
0.2756
0.274723
0.273069
0.270406
0.266505
0.261151
0.25418
0.245517
0.235221
0.22351
0.210767
0.197512
0.184346
0.171866
0.160578
0.150827
0.142763
0.136345
0.131394
0.127656
0.124864
0.122783
0.121225
0.120053
0.119171
0.118508
0.118012
0.117644
0.117374
0.117174
0.117035
0.116891
0.173669
0.173659
0.173847
0.174277
0.175034
0.176376
0.178687
0.182166
0.187044
0.193642
0.202349
0.213837
0.228841
0.247554
0.269186
0.291726
0.31375
0.33323
0.347846
0.355573
0.355148
0.346332
0.330003
0.308087
0.283347
0.258979
0.237975
0.222393
0.212878
0.20883
0.209123
0.212733
0.218883
0.226929
0.236273
0.246337
0.256559
0.266423
0.275485
0.283402
0.289949
0.295023
0.298634
0.300876
0.301904
0.301898
0.301045
0.299522
0.29749
0.295085
0.292426
0.289608
0.286713
0.283808
0.280947
0.27818
0.275549
0.273096
0.270866
0.268902
0.26725
0.26595
0.265025
0.264472
0.264251
0.264278
0.264425
0.264533
0.264416
0.263871
0.262682
0.26062
0.257452
0.252954
0.246945
0.23932
0.230098
0.219449
0.207708
0.19535
0.182939
0.171054
0.160199
0.150735
0.142837
0.1365
0.131576
0.127836
0.125032
0.122935
0.121362
0.120176
0.119281
0.118605
0.118097
0.117717
0.117434
0.117223
0.117075
0.116918
0.172375
0.172025
0.171785
0.17167
0.171701
0.171936
0.172494
0.173537
0.175218
0.177529
0.180305
0.183466
0.187076
0.191247
0.196022
0.201421
0.206588
0.211067
0.214513
0.216592
0.217064
0.215885
0.21328
0.20974
0.205937
0.202576
0.200249
0.199342
0.200048
0.202414
0.206392
0.21185
0.218582
0.226322
0.234749
0.243508
0.252229
0.260555
0.268172
0.274827
0.280351
0.284662
0.287757
0.289704
0.290616
0.29063
0.289895
0.288553
0.286737
0.284562
0.282131
0.279528
0.276825
0.274084
0.271353
0.268678
0.266099
0.263654
0.261384
0.259332
0.257545
0.256069
0.254943
0.254182
0.253771
0.253652
0.253726
0.253853
0.253864
0.25357
0.252762
0.251218
0.248705
0.244995
0.239888
0.233252
0.225066
0.215453
0.204696
0.193224
0.181563
0.170268
0.159843
0.150661
0.142926
0.136665
0.131763
0.128018
0.125197
0.123082
0.121493
0.120293
0.119384
0.118695
0.118174
0.117782
0.117487
0.117265
0.117107
0.116937
0.172487
0.17197
0.171523
0.171167
0.170915
0.170781
0.170789
0.170985
0.171451
0.172269
0.173454
0.174945
0.176641
0.178457
0.180352
0.182322
0.184168
0.185789
0.187129
0.188157
0.188873
0.189325
0.189608
0.189871
0.190296
0.191084
0.192424
0.19448
0.197374
0.201178
0.205906
0.21151
0.217881
0.224855
0.232222
0.239736
0.247137
0.254169
0.260599
0.266237
0.270946
0.274655
0.277352
0.279081
0.279923
0.279981
0.279372
0.27821
0.276603
0.274652
0.272443
0.270051
0.267541
0.264968
0.262378
0.259812
0.257306
0.254896
0.252618
0.250513
0.248627
0.24701
0.245707
0.24475
0.244146
0.243861
0.243823
0.243915
0.243989
0.243869
0.24336
0.24225
0.240309
0.237307
0.233031
0.227323
0.220125
0.211511
0.201714
0.191111
0.180191
0.169484
0.159487
0.150587
0.143014
0.136829
0.131948
0.128196
0.125357
0.123222
0.121616
0.120401
0.119479
0.118777
0.118244
0.117839
0.117533
0.1173
0.117133
0.116949
0.173
0.172416
0.17188
0.171408
0.171014
0.170714
0.170519
0.170439
0.170496
0.170723
0.171159
0.171822
0.172697
0.173736
0.174884
0.176088
0.177285
0.178436
0.179525
0.18056
0.181566
0.182587
0.183686
0.18494
0.186439
0.188279
0.190555
0.193351
0.196732
0.200735
0.205363
0.210578
0.216302
0.222417
0.228772
0.235191
0.241483
0.247456
0.252931
0.257758
0.261824
0.265063
0.267457
0.269029
0.269835
0.269953
0.269472
0.268484
0.267079
0.265341
0.263345
0.261158
0.258837
0.256433
0.253989
0.251542
0.249126
0.246772
0.244515
0.24239
0.240441
0.238718
0.23727
0.236141
0.235353
0.234897
0.234723
0.234741
0.234821
0.234808
0.234521
0.23376
0.232304
0.229925
0.2264
0.22155
0.21528
0.20762
0.198748
0.188994
0.178802
0.168679
0.159111
0.150496
0.143089
0.136981
0.132122
0.128362
0.125504
0.12335
0.121726
0.120497
0.119562
0.118849
0.118304
0.117888
0.117571
0.117328
0.117152
0.116955
0.17352
0.172919
0.172351
0.171832
0.171376
0.170997
0.170706
0.170514
0.170427
0.170456
0.170614
0.170919
0.171383
0.172004
0.172769
0.173648
0.17461
0.175629
0.176696
0.177811
0.178992
0.180269
0.181684
0.183287
0.185132
0.187277
0.189779
0.192685
0.196032
0.199837
0.204094
0.208773
0.213812
0.219123
0.224595
0.230097
0.235482
0.240603
0.245318
0.249504
0.253064
0.255938
0.2581
0.259561
0.260355
0.260541
0.260186
0.259364
0.258149
0.256611
0.254818
0.252826
0.250689
0.248453
0.246156
0.243834
0.241519
0.239239
0.237024
0.234907
0.232928
0.231134
0.229575
0.228302
0.227351
0.22673
0.226412
0.226329
0.226375
0.226412
0.226277
0.225784
0.224727
0.222881
0.220021
0.215949
0.21054
0.203777
0.195791
0.186857
0.17738
0.167835
0.158698
0.150373
0.143137
0.137111
0.132278
0.128512
0.125637
0.123463
0.121822
0.120579
0.119632
0.118908
0.118352
0.117926
0.1176
0.117347
0.117164
0.116956
0.173918
0.17332
0.172748
0.172214
0.17173
0.17131
0.170966
0.170709
0.170547
0.170486
0.170533
0.170696
0.170981
0.171398
0.171947
0.172626
0.173424
0.174331
0.175342
0.176456
0.177682
0.179037
0.180546
0.182241
0.184156
0.18633
0.188796
0.191584
0.194715
0.198197
0.202022
0.206165
0.210578
0.215195
0.219931
0.224683
0.229338
0.233779
0.23789
0.241568
0.244729
0.247316
0.249301
0.250681
0.251478
0.251734
0.251498
0.250831
0.249793
0.248443
0.246839
0.245033
0.243072
0.240997
0.238847
0.236654
0.234446
0.232251
0.230095
0.228009
0.226028
0.224194
0.222559
0.221175
0.220086
0.219317
0.218858
0.218663
0.218646
0.218688
0.218645
0.218348
0.217606
0.216205
0.213919
0.210541
0.205915
0.199988
0.192839
0.184694
0.175913
0.166939
0.158234
0.150205
0.143148
0.137212
0.132409
0.128641
0.12575
0.123557
0.1219
0.120643
0.119686
0.118952
0.118388
0.117953
0.117618
0.117358
0.117167
0.116949
0.174178
0.17359
0.173022
0.172484
0.171988
0.171545
0.171167
0.170865
0.170648
0.170523
0.170497
0.170575
0.170762
0.171063
0.171484
0.172027
0.172695
0.173486
0.174402
0.175444
0.176619
0.177937
0.179412
0.181066
0.182919
0.184995
0.187315
0.1899
0.19276
0.1959
0.199311
0.202972
0.206847
0.210884
0.215015
0.21916
0.223228
0.227124
0.230751
0.234022
0.236864
0.239222
0.241066
0.242386
0.243193
0.243515
0.24339
0.242865
0.241988
0.240812
0.239384
0.237752
0.235958
0.234039
0.232032
0.229967
0.22787
0.225768
0.223684
0.221646
0.219685
0.21784
0.216159
0.214695
0.213498
0.212602
0.212016
0.211708
0.211613
0.211629
0.21163
0.211466
0.210963
0.20992
0.208119
0.205345
0.201422
0.196261
0.189895
0.182501
0.174393
0.165981
0.157709
0.149984
0.143115
0.137278
0.132512
0.128746
0.125841
0.123631
0.121958
0.120689
0.119722
0.118979
0.118408
0.117966
0.117625
0.117357
0.117161
0.116934
0.174328
0.173747
0.173184
0.172647
0.172143
0.171684
0.17128
0.170941
0.170677
0.170495
0.170404
0.170409
0.170514
0.170725
0.171047
0.171482
0.172037
0.172713
0.173516
0.174449
0.17552
0.176735
0.178106
0.179645
0.181366
0.183284
0.185414
0.187767
0.19035
0.193164
0.196201
0.199444
0.202863
0.206417
0.210051
0.2137
0.217291
0.220743
0.223977
0.226916
0.229496
0.231666
0.233394
0.234665
0.235483
0.235865
0.235839
0.235441
0.234712
0.233693
0.232428
0.230958
0.22932
0.22755
0.225681
0.223741
0.221757
0.219751
0.217747
0.21577
0.213846
0.212012
0.210311
0.208796
0.20752
0.206524
0.205828
0.205417
0.205239
0.205211
0.205222
0.205139
0.204807
0.204043
0.20264
0.200381
0.197077
0.192608
0.186965
0.180279
0.172818
0.164956
0.157116
0.1497
0.14303
0.137302
0.132582
0.128824
0.125909
0.123683
0.121996
0.120715
0.119739
0.11899
0.118412
0.117965
0.117618
0.117345
0.117145
0.116911
0.174403
0.173828
0.173268
0.172728
0.172218
0.171744
0.171317
0.170946
0.170639
0.170406
0.170252
0.170186
0.170213
0.170338
0.170566
0.1709
0.171347
0.17191
0.172594
0.173404
0.174347
0.175431
0.176662
0.178052
0.179609
0.181344
0.183266
0.185384
0.187699
0.190213
0.192917
0.195797
0.198827
0.201975
0.205194
0.208432
0.211627
0.214711
0.217617
0.220278
0.222636
0.224646
0.226273
0.227502
0.228327
0.22876
0.22882
0.228535
0.227937
0.227061
0.225945
0.224623
0.223132
0.221502
0.219765
0.217947
0.216073
0.214166
0.212247
0.210338
0.208464
0.206658
0.204959
0.203418
0.202089
0.201018
0.200234
0.199733
0.199479
0.199398
0.199396
0.199356
0.19914
0.198584
0.197496
0.195667
0.192897
0.189043
0.184061
0.178035
0.17119
0.163863
0.156453
0.149352
0.14289
0.137281
0.132617
0.128874
0.125952
0.123713
0.122012
0.120721
0.119736
0.118981
0.118399
0.117947
0.117596
0.11732
0.117116
0.116877
0.174437
0.173864
0.173303
0.17276
0.172241
0.171753
0.171305
0.170904
0.170559
0.170277
0.170065
0.169932
0.169883
0.169923
0.170059
0.170294
0.170634
0.171083
0.171647
0.172331
0.17314
0.174081
0.175163
0.176391
0.177774
0.179319
0.181034
0.182922
0.184987
0.187226
0.189632
0.192193
0.194887
0.197686
0.200553
0.203441
0.206299
0.209071
0.211695
0.214117
0.216283
0.21815
0.219686
0.220873
0.221701
0.222175
0.222307
0.22212
0.221637
0.220889
0.219907
0.218723
0.217367
0.215868
0.214256
0.212555
0.210789
0.208979
0.207147
0.205311
0.203496
0.20173
0.20005
0.198503
0.197143
0.19602
0.19517
0.194597
0.194276
0.194145
0.194118
0.194094
0.19395
0.193543
0.192698
0.191216
0.188899
0.185584
0.181195
0.175779
0.169516
0.162706
0.155719
0.148939
0.142694
0.137215
0.132615
0.128894
0.125972
0.123722
0.122009
0.120707
0.119715
0.118955
0.118369
0.117914
0.11756
0.117281
0.117075
0.116833
0.174449
0.173876
0.173313
0.172765
0.172237
0.171736
0.171267
0.170839
0.170458
0.170132
0.169868
0.169672
0.169552
0.169512
0.169559
0.169698
0.169934
0.170272
0.170718
0.171275
0.171951
0.172751
0.173681
0.174749
0.175959
0.177319
0.178833
0.180505
0.182336
0.184324
0.186463
0.18874
0.191139
0.193633
0.196192
0.198777
0.201343
0.203841
0.206219
0.208429
0.210422
0.212159
0.213609
0.214752
0.215575
0.21608
0.216272
0.216168
0.215786
0.215151
0.21429
0.21323
0.211998
0.210622
0.209127
0.207537
0.205875
0.204161
0.202415
0.200656
0.198904
0.197187
0.195538
0.194
0.192628
0.191473
0.190576
0.189949
0.189574
0.189399
0.189346
0.189321
0.189218
0.188912
0.188247
0.18704
0.185096
0.182245
0.178384
0.173524
0.167806
0.16149
0.154919
0.14846
0.142441
0.137103
0.132578
0.128886
0.125968
0.12371
0.121986
0.120675
0.119676
0.118911
0.118322
0.117865
0.11751
0.117229
0.117022
0.116777
0.174452
0.173877
0.173311
0.172757
0.172221
0.171706
0.17122
0.170767
0.170355
0.169989
0.169677
0.169426
0.16924
0.169127
0.169092
0.169141
0.169279
0.169511
0.169843
0.17028
0.170827
0.17149
0.172274
0.173186
0.174231
0.175414
0.176739
0.178209
0.179824
0.181583
0.183479
0.185502
0.187636
0.18986
0.192146
0.194462
0.196768
0.199023
0.201181
0.203198
0.205033
0.206648
0.208015
0.209111
0.209923
0.210447
0.210687
0.210652
0.210357
0.209822
0.209069
0.208121
0.207003
0.205739
0.204354
0.202869
0.201306
0.199684
0.198023
0.19634
0.194655
0.192992
0.191381
0.189865
0.188495
0.187324
0.186396
0.185731
0.185318
0.185108
0.185031
0.184999
0.184917
0.184675
0.184139
0.183143
0.181503
0.179042
0.175644
0.171286
0.166072
0.160226
0.15406
0.147921
0.142134
0.136946
0.132505
0.128851
0.125942
0.12368
0.121947
0.120627
0.119622
0.118853
0.118261
0.117802
0.117446
0.117165
0.116957
0.116712
0.174451
0.173874
0.173304
0.172745
0.1722
0.171674
0.171171
0.170696
0.170256
0.169857
0.169503
0.169202
0.168959
0.16878
0.168671
0.168637
0.168685
0.168819
0.169045
0.169369
0.169794
0.170328
0.170975
0.17174
0.172629
0.173646
0.174795
0.176077
0.177494
0.179042
0.180716
0.182508
0.184403
0.186383
0.188425
0.190498
0.192571
0.194605
0.196562
0.198403
0.20009
0.20159
0.202873
0.203919
0.204714
0.205248
0.205524
0.205546
0.205325
0.204876
0.204218
0.203371
0.202356
0.201196
0.199912
0.198526
0.197056
0.195523
0.193945
0.192337
0.190719
0.189113
0.187546
0.186059
0.184701
0.183526
0.182581
0.181893
0.181453
0.18122
0.181125
0.181086
0.181014
0.180812
0.180365
0.179526
0.178125
0.175991
0.172991
0.169081
0.16433
0.158925
0.153149
0.147328
0.141777
0.136748
0.132399
0.128791
0.125897
0.123633
0.121893
0.120566
0.119554
0.118781
0.118187
0.117727
0.11737
0.117089
0.116881
0.116636
0.174448
0.173869
0.173296
0.172731
0.172179
0.171642
0.171124
0.170631
0.170167
0.169738
0.169348
0.169003
0.168709
0.168472
0.168298
0.168191
0.168157
0.168203
0.168332
0.168551
0.168865
0.169278
0.169797
0.170427
0.171171
0.172034
0.173019
0.174127
0.17536
0.176715
0.178187
0.179768
0.181446
0.183204
0.185023
0.186876
0.188735
0.190568
0.19234
0.194017
0.195565
0.196953
0.198155
0.199148
0.199918
0.200455
0.200756
0.200823
0.200664
0.20029
0.199716
0.198959
0.198037
0.196972
0.195782
0.194486
0.193105
0.191656
0.190156
0.188621
0.18707
0.185521
0.184002
0.182549
0.181211
0.180041
0.179089
0.178387
0.177932
0.177687
0.177584
0.177541
0.177474
0.177297
0.176909
0.176184
0.174969
0.173101
0.170441
0.166926
0.162594
0.157601
0.152198
0.146688
0.141374
0.13651
0.132263
0.128708
0.125834
0.123573
0.121828
0.120494
0.119477
0.1187
0.118103
0.117643
0.117286
0.117005
0.116797
0.116553
0.174444
0.173863
0.173286
0.172717
0.172158
0.171612
0.171082
0.170572
0.170087
0.169632
0.16921
0.168828
0.168491
0.168203
0.167971
0.167799
0.167693
0.167658
0.167701
0.167825
0.168037
0.168341
0.168743
0.169247
0.169857
0.170578
0.171412
0.172361
0.173425
0.174602
0.175888
0.177276
0.178755
0.18031
0.181925
0.183577
0.18524
0.186887
0.188488
0.190012
0.191429
0.19271
0.19383
0.194768
0.195508
0.196039
0.196357
0.196459
0.196351
0.19604
0.195539
0.194862
0.194025
0.193045
0.19194
0.19073
0.189431
0.18806
0.186635
0.18517
0.183683
0.182192
0.180722
0.179307
0.177993
0.176834
0.175883
0.175176
0.174714
0.174465
0.174362
0.174322
0.174262
0.174101
0.173752
0.173109
0.172036
0.170381
0.168007
0.164835
0.160881
0.156269
0.151218
0.14601
0.140934
0.136239
0.1321
0.128604
0.125757
0.123503
0.121754
0.120414
0.119392
0.118611
0.118012
0.117551
0.117194
0.116913
0.116707
0.116464
0.17444
0.173856
0.173277
0.172703
0.172138
0.171583
0.171042
0.170519
0.170016
0.169538
0.16909
0.168675
0.168299
0.167968
0.167684
0.167455
0.167286
0.167181
0.167145
0.167185
0.167304
0.167509
0.167804
0.168194
0.168682
0.169272
0.169968
0.17077
0.171679
0.172693
0.173808
0.175019
0.176315
0.177685
0.179113
0.180579
0.182062
0.183538
0.184979
0.18636
0.187651
0.188829
0.189868
0.19075
0.191456
0.191976
0.192301
0.19243
0.192363
0.192106
0.191668
0.191061
0.190298
0.189396
0.18837
0.187237
0.186014
0.184717
0.183362
0.181964
0.18054
0.179105
0.177683
0.176307
0.175021
0.173878
0.172933
0.172225
0.171764
0.171518
0.171422
0.171392
0.171342
0.171195
0.170874
0.170288
0.169321
0.167836
0.165699
0.162825
0.159207
0.154942