/*--------------------------------*- C++ -*----------------------------------*\
  =========                 |
  \\      /  F ield         | OpenFOAM: The Open Source CFD Toolbox
   \\    /   O peration     | Website:  https://openfoam.org
    \\  /    A nd           | Version:  10
     \\/     M anipulation  |
\*---------------------------------------------------------------------------*/
FoamFile
{
    format      ascii;
    class       volScalarField;
    location    "0.06";
    object      nut;
}
// * * * * * * * * * * * * * * * * * * * * * * * * * * * * * * * * * * * * * //

dimensions      [0 2 -1 0 0 0 0];

internalField   nonuniform List<scalar> 
6820
(
0.000149484
0.000144853
0.000140581
0.000136576
0.000132833
0.000129376
0.000126234
0.000123417
0.000120922
0.000118737
0.00011684
0.000115208
0.000113815
0.000112639
0.000111655
0.000110843
0.000110185
0.000109662
0.00010926
0.000108964
0.000108763
0.000108645
0.0001086
0.000108621
0.000108699
0.000108829
0.000109001
0.00010923
0.000109423
0.000109994
0.000108982
0.000115615
8.64237e-05
0.000729198
0.000532386
0.000448001
0.000399691
0.00036836
0.000346707
0.000331061
0.000319329
0.00031024
0.000302989
0.000297056
0.000292093
0.000287866
0.00028421
0.000281007
0.00027817
0.000275636
0.000273352
0.000271282
0.000269394
0.000267664
0.000266071
0.000264599
0.000263234
0.000261966
0.000260784
0.000259682
0.000258651
0.0002577
0.000256808
0.000256047
0.00025516
0.000256514
0.000976776
0.00087218
0.000781618
0.000711253
0.000657301
0.000615252
0.00058167
0.000554198
0.000531249
0.000511738
0.000494906
0.000480205
0.000467231
0.000455678
0.000445311
0.000435946
0.000427437
0.000419665
0.000412534
0.000405963
0.000399887
0.000394247
0.000388995
0.000384088
0.000379489
0.000375161
0.000371074
0.000367198
0.000363494
0.00035994
0.00035646
0.000352996
0.000349195
0.00101349
0.000988231
0.000949374
0.000906189
0.000864415
0.000826364
0.000792523
0.000762623
0.000736173
0.00071266
0.000691631
0.000672702
0.000655557
0.000639936
0.000625628
0.000612457
0.00060028
0.000588975
0.000578444
0.000568599
0.000559368
0.000550689
0.000542507
0.000534773
0.000527444
0.000520481
0.000513847
0.000507508
0.000501428
0.00049558
0.000489899
0.000484406
0.000478848
0.00101671
0.00101241
0.00100191
0.000985659
0.000965599
0.000943702
0.000921404
0.000899583
0.000878707
0.000858984
0.000840474
0.000823155
0.000806962
0.000791815
0.000777628
0.000764317
0.000751804
0.000740016
0.000728887
0.000718358
0.000708376
0.000698892
0.000689864
0.000681252
0.000673019
0.000665132
0.000657559
0.000650269
0.00064323
0.000636414
0.000629779
0.000623308
0.000616924
0.00101676
0.00101592
0.0010136
0.00100903
0.00100204
0.000992915
0.000982182
0.000970382
0.000957982
0.00094534
0.000932714
0.00092028
0.000908149
0.000896391
0.000885041
0.000874116
0.000863617
0.000853536
0.00084386
0.000834571
0.000825649
0.000817074
0.000808826
0.000800883
0.000793225
0.000785829
0.000778676
0.000771743
0.00076501
0.000758454
0.000752048
0.000745771
0.000739593
0.00101671
0.00101623
0.00101553
0.00101428
0.00101219
0.00100909
0.00100496
0.000999884
0.000994008
0.000987502
0.000980532
0.000973243
0.00096576
0.000958181
0.000950583
0.000943026
0.000935554
0.000928199
0.000920982
0.00091392
0.000907021
0.000900288
0.000893724
0.000887326
0.000881088
0.000875007
0.000869072
0.000863275
0.000857606
0.000852052
0.000846601
0.000841238
0.000835951
0.0010167
0.00101622
0.00101574
0.00101518
0.00101442
0.00101335
0.00101188
0.00100995
0.00100755
0.0010047
0.00100143
0.000997807
0.000993882
0.000989713
0.000985355
0.000980855
0.000976255
0.000971592
0.000966894
0.000962187
0.000957491
0.00095282
0.000948188
0.000943603
0.000939071
0.000934596
0.000930181
0.000925825
0.000921528
0.000917286
0.000913096
0.000908954
0.000904858
0.0010167
0.00101621
0.00101575
0.00101528
0.0010148
0.00101425
0.00101359
0.00101278
0.00101179
0.00101059
0.00100917
0.00100753
0.00100568
0.00100363
0.00100141
0.000999028
0.000996515
0.000993888
0.000991168
0.000988371
0.000985515
0.000982614
0.00097968
0.000976723
0.000973754
0.000970779
0.000967804
0.000964834
0.000961872
0.000958922
0.000955986
0.000953064
0.000950163
0.0010167
0.00101621
0.00101574
0.00101529
0.00101484
0.00101439
0.00101393
0.00101344
0.0010129
0.00101229
0.0010116
0.00101081
0.00100993
0.00100894
0.00100785
0.00100666
0.00100537
0.001004
0.00100254
0.00100101
0.000999413
0.000997759
0.000996054
0.000994307
0.000992523
0.000990708
0.000988869
0.000987009
0.000985134
0.000983249
0.000981356
0.000979461
0.000977569
0.0010167
0.00101621
0.00101574
0.00101528
0.00101484
0.0010144
0.00101398
0.00101356
0.00101313
0.00101269
0.00101224
0.00101176
0.00101124
0.00101069
0.0010101
0.00100945
0.00100877
0.00100803
0.00100725
0.00100642
0.00100555
0.00100464
0.00100368
0.0010027
0.00100168
0.00100063
0.000999556
0.00099846
0.000997344
0.000996214
0.000995073
0.000993924
0.000992774
0.0010167
0.00101621
0.00101574
0.00101528
0.00101484
0.0010144
0.00101398
0.00101357
0.00101317
0.00101277
0.00101238
0.00101199
0.00101159
0.00101119
0.00101077
0.00101034
0.0010099
0.00100944
0.00100897
0.00100847
0.00100795
0.00100742
0.00100686
0.00100628
0.00100569
0.00100508
0.00100445
0.00100381
0.00100315
0.00100249
0.00100182
0.00100115
0.00100048
0.0010167
0.00101621
0.00101574
0.00101528
0.00101483
0.0010144
0.00101398
0.00101357
0.00101317
0.00101278
0.0010124
0.00101203
0.00101166
0.0010113
0.00101094
0.00101059
0.00101023
0.00100988
0.00100952
0.00100915
0.00100879
0.00100841
0.00100804
0.00100765
0.00100726
0.00100687
0.00100647
0.00100606
0.00100565
0.00100524
0.00100483
0.00100443
0.00100403
0.0010167
0.00101621
0.00101574
0.00101528
0.00101483
0.0010144
0.00101398
0.00101357
0.00101317
0.00101278
0.0010124
0.00101203
0.00101167
0.00101132
0.00101098
0.00101064
0.00101031
0.00100999
0.00100967
0.00100935
0.00100904
0.00100873
0.00100842
0.00100812
0.00100781
0.00100751
0.00100721
0.00100691
0.00100662
0.00100633
0.00100605
0.00100577
0.00100551
0.0010167
0.00101621
0.00101574
0.00101528
0.00101483
0.0010144
0.00101398
0.00101357
0.00101317
0.00101278
0.0010124
0.00101203
0.00101167
0.00101132
0.00101098
0.00101065
0.00101033
0.00101001
0.0010097
0.0010094
0.00100911
0.00100882
0.00100853
0.00100826
0.00100798
0.00100772
0.00100746
0.0010072
0.00100696
0.00100672
0.00100649
0.00100627
0.00100606
0.0010167
0.00101621
0.00101574
0.00101528
0.00101483
0.0010144
0.00101397
0.00101356
0.00101316
0.00101278
0.0010124
0.00101203
0.00101167
0.00101132
0.00101098
0.00101065
0.00101033
0.00101001
0.00100971
0.00100941
0.00100912
0.00100884
0.00100856
0.00100829
0.00100803
0.00100778
0.00100753
0.00100729
0.00100706
0.00100684
0.00100663
0.00100644
0.00100625
0.0010167
0.00101621
0.00101574
0.00101528
0.00101483
0.0010144
0.00101397
0.00101356
0.00101316
0.00101277
0.0010124
0.00101203
0.00101167
0.00101132
0.00101098
0.00101065
0.00101033
0.00101001
0.00100971
0.00100941
0.00100912
0.00100884
0.00100857
0.0010083
0.00100804
0.00100779
0.00100755
0.00100732
0.00100709
0.00100688
0.00100668
0.00100648
0.00100631
0.0010167
0.00101621
0.00101574
0.00101528
0.00101483
0.0010144
0.00101397
0.00101356
0.00101316
0.00101277
0.00101239
0.00101203
0.00101167
0.00101132
0.00101098
0.00101065
0.00101032
0.00101001
0.00100971
0.00100941
0.00100912
0.00100884
0.00100857
0.0010083
0.00100804
0.0010078
0.00100755
0.00100732
0.0010071
0.00100689
0.00100669
0.0010065
0.00100632
0.0010167
0.00101621
0.00101574
0.00101528
0.00101483
0.00101439
0.00101397
0.00101356
0.00101316
0.00101277
0.00101239
0.00101202
0.00101167
0.00101132
0.00101098
0.00101065
0.00101032
0.00101001
0.0010097
0.00100941
0.00100912
0.00100884
0.00100857
0.0010083
0.00100804
0.0010078
0.00100756
0.00100732
0.0010071
0.00100689
0.00100669
0.00100649
0.00100632
0.0010167
0.00101621
0.00101574
0.00101528
0.00101483
0.00101439
0.00101397
0.00101356
0.00101316
0.00101277
0.00101239
0.00101202
0.00101166
0.00101131
0.00101097
0.00101064
0.00101032
0.00101001
0.0010097
0.00100941
0.00100912
0.00100884
0.00100856
0.0010083
0.00100804
0.00100779
0.00100755
0.00100732
0.0010071
0.00100689
0.00100668
0.00100649
0.00100631
0.0010167
0.00101621
0.00101574
0.00101528
0.00101483
0.00101439
0.00101397
0.00101356
0.00101316
0.00101277
0.00101239
0.00101202
0.00101166
0.00101131
0.00101097
0.00101064
0.00101032
0.00101001
0.0010097
0.0010094
0.00100912
0.00100884
0.00100856
0.0010083
0.00100804
0.00100779
0.00100755
0.00100732
0.0010071
0.00100688
0.00100668
0.00100648
0.0010063
0.0010167
0.00101621
0.00101574
0.00101528
0.00101483
0.00101439
0.00101397
0.00101356
0.00101316
0.00101277
0.00101239
0.00101202
0.00101166
0.00101131
0.00101097
0.00101064
0.00101032
0.00101001
0.0010097
0.0010094
0.00100911
0.00100883
0.00100856
0.0010083
0.00100804
0.00100779
0.00100755
0.00100732
0.00100709
0.00100688
0.00100667
0.00100648
0.00100629
0.0010167
0.00101621
0.00101574
0.00101528
0.00101483
0.00101439
0.00101397
0.00101356
0.00101316
0.00101277
0.00101239
0.00101202
0.00101166
0.00101131
0.00101097
0.00101064
0.00101032
0.00101
0.0010097
0.0010094
0.00100911
0.00100883
0.00100856
0.00100829
0.00100804
0.00100779
0.00100755
0.00100731
0.00100709
0.00100687
0.00100667
0.00100647
0.00100628
0.0010167
0.00101621
0.00101574
0.00101528
0.00101483
0.00101439
0.00101397
0.00101356
0.00101316
0.00101277
0.00101239
0.00101202
0.00101166
0.00101131
0.00101097
0.00101064
0.00101032
0.00101
0.0010097
0.0010094
0.00100911
0.00100883
0.00100856
0.00100829
0.00100803
0.00100779
0.00100754
0.00100731
0.00100708
0.00100687
0.00100666
0.00100646
0.00100626
0.0010167
0.00101621
0.00101574
0.00101528
0.00101483
0.00101439
0.00101397
0.00101356
0.00101316
0.00101277
0.00101239
0.00101202
0.00101166
0.00101131
0.00101097
0.00101064
0.00101032
0.00101
0.0010097
0.0010094
0.00100911
0.00100883
0.00100855
0.00100829
0.00100803
0.00100778
0.00100754
0.0010073
0.00100708
0.00100686
0.00100665
0.00100644
0.00100625
0.0010167
0.00101621
0.00101574
0.00101528
0.00101483
0.00101439
0.00101397
0.00101356
0.00101316
0.00101277
0.00101239
0.00101202
0.00101166
0.00101131
0.00101097
0.00101064
0.00101031
0.00101
0.00100969
0.0010094
0.00100911
0.00100883
0.00100855
0.00100829
0.00100803
0.00100778
0.00100753
0.0010073
0.00100707
0.00100685
0.00100664
0.00100643
0.00100624
0.0010167
0.00101621
0.00101574
0.00101528
0.00101483
0.00101439
0.00101397
0.00101356
0.00101316
0.00101277
0.00101239
0.00101202
0.00101166
0.00101131
0.00101097
0.00101064
0.00101031
0.00101
0.00100969
0.0010094
0.00100911
0.00100882
0.00100855
0.00100828
0.00100802
0.00100777
0.00100753
0.00100729
0.00100706
0.00100684
0.00100663
0.00100642
0.00100622
0.0010167
0.00101621
0.00101574
0.00101528
0.00101483
0.00101439
0.00101397
0.00101356
0.00101316
0.00101277
0.00101239
0.00101202
0.00101166
0.00101131
0.00101097
0.00101064
0.00101031
0.00101
0.00100969
0.00100939
0.0010091
0.00100882
0.00100855
0.00100828
0.00100802
0.00100777
0.00100752
0.00100728
0.00100705
0.00100683
0.00100661
0.00100641
0.00100621
0.0010167
0.00101621
0.00101574
0.00101528
0.00101483
0.00101439
0.00101397
0.00101356
0.00101316
0.00101277
0.00101239
0.00101202
0.00101166
0.00101131
0.00101097
0.00101063
0.00101031
0.00101
0.00100969
0.00100939
0.0010091
0.00100882
0.00100854
0.00100828
0.00100802
0.00100776
0.00100752
0.00100728
0.00100705
0.00100682
0.0010066
0.00100639
0.00100619
0.0010167
0.00101621
0.00101574
0.00101528
0.00101483
0.00101439
0.00101397
0.00101356
0.00101316
0.00101277
0.00101239
0.00101202
0.00101166
0.00101131
0.00101097
0.00101064
0.00101031
0.00101
0.00100969
0.00100939
0.0010091
0.00100882
0.00100854
0.00100827
0.00100801
0.00100776
0.00100751
0.00100727
0.00100704
0.00100681
0.00100659
0.00100638
0.00100618
0.0010167
0.00101621
0.00101574
0.00101528
0.00101483
0.00101439
0.00101397
0.00101356
0.00101316
0.00101277
0.00101239
0.00101202
0.00101166
0.00101131
0.00101097
0.00101064
0.00101031
0.00101
0.00100969
0.00100939
0.0010091
0.00100882
0.00100854
0.00100827
0.00100801
0.00100776
0.00100751
0.00100727
0.00100703
0.0010068
0.00100658
0.00100636
0.00100616
0.0010167
0.00101621
0.00101574
0.00101528
0.00101483
0.0010144
0.00101397
0.00101356
0.00101316
0.00101277
0.0010124
0.00101203
0.00101167
0.00101132
0.00101097
0.00101064
0.00101032
0.00101
0.00100969
0.00100939
0.0010091
0.00100881
0.00100854
0.00100826
0.001008
0.00100774
0.00100748
0.00100724
0.001007
0.00100676
0.00100653
0.00100631
0.00100609
0.0010167
0.00101621
0.00101574
0.00101528
0.00101483
0.0010144
0.00101398
0.00101357
0.00101317
0.00101278
0.0010124
0.00101203
0.00101167
0.00101132
0.00101097
0.00101064
0.00101031
0.00100999
0.00100967
0.00100936
0.00100906
0.00100876
0.00100847
0.00100818
0.00100789
0.00100761
0.00100734
0.00100707
0.0010068
0.00100653
0.00100627
0.00100602
0.00100577
0.0010167
0.00101621
0.00101574
0.00101529
0.00101484
0.00101441
0.001014
0.00101358
0.00101318
0.00101279
0.0010124
0.00101202
0.00101164
0.00101127
0.0010109
0.00101053
0.00101016
0.0010098
0.00100943
0.00100906
0.00100869
0.00100832
0.00100795
0.00100758
0.0010072
0.00100683
0.00100645
0.00100607
0.00100568
0.0010053
0.00100491
0.00100452
0.00100413
0.0010167
0.00101622
0.00101575
0.0010153
0.00101485
0.00101441
0.00101397
0.00101352
0.00101308
0.00101262
0.00101215
0.00101166
0.00101115
0.00101063
0.00101008
0.00100951
0.00100892
0.0010083
0.00100766
0.001007
0.00100631
0.0010056
0.00100488
0.00100413
0.00100336
0.00100258
0.00100178
0.00100097
0.00100015
0.000999312
0.000998466
0.000997611
0.00099675
0.00101671
0.00101622
0.00101574
0.00101524
0.00101469
0.00101407
0.00101337
0.00101257
0.00101167
0.00101066
0.00100954
0.00100831
0.00100698
0.00100554
0.001004
0.00100237
0.00100066
0.000998875
0.00099702
0.000995103
0.000993134
0.000991119
0.000989066
0.000986981
0.000984871
0.000982741
0.000980598
0.000978446
0.00097629
0.000974135
0.000971985
0.000969843
0.000967713
0.00101671
0.001016
0.00101488
0.00101325
0.00101112
0.00100847
0.00100532
0.00100169
0.000997622
0.000993173
0.000988393
0.000983336
0.000978054
0.000972594
0.000967001
0.000961313
0.000955567
0.000949793
0.000944017
0.000938262
0.000932548
0.000926892
0.000921308
0.000915807
0.0009104
0.000905095
0.000899897
0.000894813
0.000889847
0.000885002
0.000880281
0.000875685
0.000871215
0.0010153
0.00100706
0.0009955
0.000981394
0.000965363
0.000948017
0.000929917
0.00091151
0.000893131
0.000875018
0.000857337
0.000840197
0.000823665
0.000807778
0.00079255
0.00077798
0.000764059
0.000750767
0.000738083
0.000725982
0.000714437
0.000703423
0.000692912
0.000682879
0.000673298
0.000664146
0.000655399
0.000647035
0.000639033
0.000631374
0.000624037
0.000617007
0.000610263
0.000935928
0.000815559
0.0007282
0.000659308
0.000602465
0.000555248
0.00051576
0.000482415
0.000453963
0.000429439
0.000408101
0.000389379
0.000372826
0.000358092
0.000344899
0.000333021
0.000322278
0.000312518
0.000303616
0.000295469
0.000287989
0.000281099
0.000274735
0.000268843
0.000263374
0.000258285
0.000253542
0.00024911
0.000244963
0.000241074
0.000237422
0.000233987
0.00023075
0.000125477
0.000128847
0.000132096
0.000135204
0.000138173
0.000141008
0.000143711
0.000146289
0.000148745
0.000151085
0.000153311
0.000155429
0.000157442
0.000159356
0.000161173
0.000162898
0.000164535
0.000166088
0.000167561
0.000168957
0.00017028
0.000171533
0.00017272
0.000173844
0.000174907
0.000175914
0.000176865
0.000177766
0.000178616
0.00017942
0.00018018
0.000180897
0.000181575
0.000108475
0.000156123
0.000209878
0.00026903
0.000329472
0.000386058
0.000436827
0.000484573
0.000534316
0.000589697
0.000651256
0.000717105
0.000784655
0.000851818
0.000917223
0.000979909
0.00103878
0.00109275
0.0011406
0.00118092
0.00121209
0.00123232
0.00123966
0.00123212
0.00120767
0.00116443
0.00110078
0.00101578
0.000910012
0.00078758
0.000659716
0.000549953
0.000498441
0.000558133
0.000744042
0.000957838
0.0011199
0.00124082
0.00133893
0.00142057
0.00148753
0.00154104
0.00158261
0.00161402
0.00163714
0.00165372
0.00166533
0.0016733
0.0016787
0.00168243
0.00168522
0.00168764
0.00169018
0.00169325
0.0016972
0.00170232
0.00170888
0.00171709
0.00172709
0.00173896
0.00175261
0.00176779
0.00178402
0.00180056
0.00181645
0.00183053
0.00184156
0.00184824
0.00184935
0.00184373
0.0018304
0.00180859
0.00177782
0.00173803
0.0016896
0.00163346
0.00157107
0.00150443
0.0014359
0.00136809
0.00130346
0.00124409
0.00119137
0.00114598
0.00110798
0.00107704
0.00105256
0.00103374
0.00101963
0.00100921
0.00100156
0.000995933
0.000991774
0.000988698
0.000986434
0.000984781
0.00098359
0.000982739
0.000982157
0.000981613
0.000245925
0.000211852
0.000179198
0.000166624
0.000176722
0.000206756
0.000252197
0.000307083
0.000365369
0.000422876
0.000478149
0.000531761
0.00058483
0.000637856
0.000690381
0.000741297
0.000789228
0.000832925
0.00087122
0.000902931
0.00092668
0.000940825
0.000943506
0.000932779
0.000906792
0.000864067
0.000803992
0.00072777
0.000640102
0.000551875
0.00048351
0.000467422
0.000541902
0.000709171
0.000897212
0.00105018
0.00117032
0.00126945
0.00135289
0.00142252
0.00147952
0.00152507
0.00156058
0.00158756
0.00160752
0.00162191
0.00163202
0.00163894
0.0016436
0.00164675
0.001649
0.00165087
0.00165279
0.00165511
0.00165817
0.00166225
0.00166761
0.00167451
0.00168315
0.00169367
0.0017061
0.00172028
0.00173585
0.00175214
0.00176824
0.00178301
0.00179519
0.00180348
0.00180662
0.00180342
0.00179287
0.00177414
0.00174671
0.0017104
0.00166552
0.00161289
0.00155388
0.00149038
0.00142468
0.00135934
0.0012968
0.00123918
0.00118791
0.00114371
0.00110668
0.00107647
0.0010525
0.00103398
0.00102002
0.00100965
0.00100202
0.000996394
0.000992241
0.000989173
0.000986915
0.000985266
0.000984074
0.000983221
0.000982636
0.000982087
0.000346576
0.000347894
0.000353636
0.00034524
0.000300007
0.00023991
0.000200776
0.000191561
0.000206802
0.000239438
0.000283269
0.000332958
0.000384228
0.000434116
0.00048092
0.000523861
0.000562362
0.000596297
0.000625295
0.00064846
0.000664499
0.000671942
0.000669334
0.000655431
0.000629499
0.000591848
0.000544711
0.000493595
0.000449097
0.000428916
0.000457985
0.000556867
0.00070989
0.000867685
0.00100295
0.00111591
0.00121161
0.00129323
0.0013625
0.00142055
0.00146832
0.00150676
0.00153696
0.00156011
0.00157738
0.00158994
0.00159882
0.00160493
0.00160902
0.00161173
0.00161361
0.00161507
0.00161651
0.00161823
0.00162053
0.00162369
0.00162796
0.00163361
0.00164087
0.00164995
0.00166097
0.00167389
0.00168847
0.00170415
0.0017201
0.00173524
0.00174831
0.001758
0.00176303
0.00176219
0.00175442
0.00173884
0.00171483
0.00168216
0.00164099
0.00159205
0.00153659
0.00147639
0.00141367
0.0013509
0.00129054
0.0012347
0.00118487
0.00114183
0.00110571
0.00107618
0.00105265
0.00103439
0.00102052
0.00101018
0.00100253
0.000996884
0.000992716
0.000989638
0.000987372
0.000985714
0.000984512
0.000983648
0.000983052
0.00098249
0.00047274
0.000467863
0.000470189
0.000489661
0.000536974
0.000595662
0.000580732
0.000463906
0.000339342
0.000261241
0.000226435
0.000220539
0.000232763
0.000256088
0.000285599
0.000317601
0.000349121
0.000377717
0.000401663
0.000419883
0.000431724
0.000436788
0.000434965
0.000426695
0.000413465
0.000398545
0.000387981
0.000391649
0.000423318
0.000495858
0.000608154
0.000739007
0.000866092
0.000980311
0.00108056
0.00116796
0.00124395
0.00130976
0.00136628
0.00141413
0.00145391
0.00148626
0.00151197
0.00153188
0.00154693
0.001558
0.00156591
0.00157139
0.00157508
0.00157752
0.00157914
0.00158033
0.00158142
0.00158268
0.00158438
0.00158676
0.00159007
0.00159456
0.00160049
0.00160811
0.00161762
0.0016291
0.00164241
0.00165715
0.00167259
0.00168774
0.00170138
0.00171221
0.00171894
0.00172033
0.00171528
0.00170285
0.00168235
0.00165342
0.00161613
0.00157105
0.00151932
0.00146259
0.00140299
0.00134292
0.0012848
0.00123076
0.00118235
0.00114041
0.00110511
0.00107618
0.00105303
0.00103495
0.00102115
0.00101079
0.00100309
0.0009974
0.000993195
0.000990089
0.000987798
0.000986119
0.000984897
0.000984014
0.000983401
0.000982818
0.00060952
0.000601119
0.000593457
0.000589366
0.000596085
0.000626104
0.000689538
0.000779706
0.000838716
0.00077876
0.000627569
0.000480644
0.000378462
0.000318029
0.000286719
0.000274389
0.000273135
0.000278429
0.000287274
0.00029759
0.00030811
0.000318441
0.000329221
0.000342345
0.000361217
0.000390796
0.00043679
0.000503171
0.000588737
0.000686589
0.000788228
0.000887196
0.000979562
0.00106352
0.00113882
0.00120598
0.00126563
0.00131824
0.00136412
0.00140349
0.00143664
0.00146395
0.00148593
0.0015032
0.00151643
0.00152631
0.00153347
0.00153851
0.00154195
0.00154422
0.00154571
0.00154674
0.0015476
0.00154853
0.00154976
0.00155151
0.001554
0.00155747
0.00156219
0.00156841
0.0015764
0.00158632
0.00159818
0.0016117
0.0016263
0.0016411
0.00165496
0.00166661
0.00167477
0.00167819
0.00167573
0.00166639
0.00164939
0.00162426
0.00159095
0.00154987
0.00150201
0.00144891
0.00139257
0.0013353
0.00127949
0.00122728
0.00118028
0.00113938
0.00110485
0.00107644
0.0010536
0.00103566
0.00102188
0.00101147
0.0010037
0.000997944
0.000993683
0.00099053
0.000988203
0.00098649
0.000985239
0.000984329
0.000983694
0.000983081
0.000732453
0.000724183
0.000715626
0.000706899
0.00069901
0.000695349
0.000702379
0.00072838
0.000777628
0.000839322
0.000885584
0.000883189
0.000820098
0.000719951
0.000618037
0.0005316
0.000475271
0.00044161
0.000423741
0.000417632
0.000421148
0.000433398
0.000454377
0.000484647
0.000524907
0.000575422
0.000635496
0.000703279
0.000776019
0.000850598
0.000924157
0.000994594
0.00106071
0.00112203
0.00117849
0.00123016
0.00127709
0.00131928
0.00135666
0.00138923
0.00141703
0.00144025
0.00145922
0.00147436
0.00148614
0.00149509
0.00150171
0.00150645
0.00150974
0.00151195
0.0015134
0.00151437
0.0015151
0.00151581
0.0015167
0.00151796
0.00151979
0.00152241
0.00152605
0.001531
0.00153754
0.00154589
0.00155618
0.00156828
0.00158177
0.00159589
0.00160961
0.00162173
0.001631
0.00163617
0.00163608
0.00162969
0.00161612
0.00159478
0.00156548
0.00152848
0.00148462
0.00143527
0.0013823
0.00132795
0.00127453
0.00122419
0.00117858
0.00113869
0.00110487
0.00107691
0.00105433
0.00103649
0.00102269
0.00101221
0.00100435
0.000998511
0.000994177
0.000990966
0.000988589
0.000986834
0.000985545
0.000984602
0.000983939
0.000983291
0.00082984
0.000822765
0.000815449
0.000807823
0.00079985
0.00079181
0.000784928
0.000781993
0.000787017
0.000802825
0.000828203
0.000856087
0.000874524
0.000872278
0.00084554
0.000799241
0.000752745
0.000714332
0.000686747
0.000670397
0.000664871
0.00066954
0.000683733
0.000706724
0.000737646
0.000775413
0.000818695
0.000865982
0.000915714
0.000966436
0.00101692
0.00106627
0.00111384
0.00115926
0.00120223
0.00124253
0.00127989
0.00131407
0.00134485
0.00137205
0.00139562
0.00141561
0.00143219
0.00144565
0.00145631
0.00146457
0.00147079
0.00147536
0.0014786
0.00148082
0.00148231
0.00148328
0.00148397
0.00148456
0.00148522
0.00148613
0.00148744
0.00148937
0.00149211
0.00149594
0.00150115
0.00150801
0.00151673
0.00152731
0.00153947
0.00155263
0.00156588
0.00157811
0.00158813
0.00159472
0.00159672
0.00159304
0.00158274
0.00156511
0.0015398
0.00150691
0.0014671
0.00142159
0.00137211
0.00132076
0.0012698
0.00122137
0.00117716
0.00113826
0.00110509
0.00107753
0.00105516
0.0010374
0.00102357
0.001013
0.00100504
0.000999095
0.000994676
0.000991395
0.000988959
0.000987153
0.000985821
0.000984839
0.000984143
0.000983455
0.000900114
0.000894622
0.000888968
0.000883129
0.000877078
0.000870791
0.000864349
0.000858162
0.00085329
0.000851386
0.000853981
0.00086139
0.000871904
0.000881957
0.000887212
0.000884978
0.00087688
0.000865991
0.00085548
0.000847851
0.000844762
0.000847128
0.00085529
0.00086917
0.000888375
0.000912289
0.000940147
0.000971105
0.00100432
0.00103899
0.00107444
0.00111007
0.0011454
0.00118001
0.00121353
0.00124559
0.00127585
0.00130398
0.00132968
0.00135273
0.00137301
0.00139047
0.00140519
0.00141735
0.00142716
0.00143491
0.00144088
0.00144536
0.00144862
0.00145092
0.00145249
0.00145354
0.00145426
0.0014548
0.00145532
0.00145598
0.00145692
0.0014583
0.00146032
0.00146321
0.00146726
0.00147276
0.00147998
0.00148902
0.00149976
0.00151176
0.00152425
0.00153626
0.00154666
0.00155431
0.00155805
0.00155679
0.00154952
0.00153542
0.001514
0.00148518
0.00144945
0.00140783
0.00136189
0.00131362
0.00126519
0.00121871
0.00117592
0.00113799
0.00110544
0.00107826
0.00105607
0.00103835
0.00102447
0.00101381
0.00100573
0.000999684
0.000995172
0.000991812
0.00098931
0.000987448
0.000986067
0.000985042
0.000984311
0.000983578
0.000946792
0.000942885
0.000938873
0.000934765
0.000930567
0.000926288
0.000921939
0.000917565
0.000913324
0.000909616
0.000907089
0.000906448
0.000908084
0.000911759
0.000916489
0.000921065
0.00092471
0.000927311
0.000929354
0.000931669
0.000935169
0.000940655
0.000948706
0.000959656
0.000973604
0.000990454
0.00100996
0.00103178
0.00105551
0.00108075
0.00110707
0.00113409
0.00116142
0.00118871
0.00121559
0.00124171
0.00126672
0.0012903
0.00131214
0.00133202
0.00134975
0.00136525
0.00137855
0.00138971
0.00139889
0.00140628
0.00141209
0.00141656
0.0014199
0.00142232
0.00142402
0.00142519
0.00142597
0.00142653
0.00142699
0.0014275
0.00142817
0.00142914
0.0014306
0.00143273
0.00143581
0.00144013
0.00144599
0.00145357
0.00146287
0.00147358
0.00148511
0.00149661
0.00150705
0.00151538
0.00152048
0.00152127
0.00151672
0.00150592
0.00148821
0.00146336
0.00143165
0.00139392
0.00135157
0.00130643
0.00126059
0.00121611
0.00117477
0.00113781
0.00110587
0.00107903
0.001057
0.00103931
0.00102538
0.00101461
0.00100642
0.00100026
0.000995654
0.000992211
0.000989638
0.000987717
0.000986283
0.000985213
0.000984445
0.000983663
0.000975364
0.000972805
0.000970186
0.000967526
0.000964845
0.000962171
0.000959533
0.00095696
0.000954495
0.000952225
0.000950316
0.000949037
0.000948698
0.00094955
0.000951631
0.000954774
0.00095873
0.000963279
0.000968328
0.00097394
0.000980307
0.000987697
0.000996383
0.00100659
0.00101848
0.00103211
0.00104745
0.00106441
0.00108283
0.0011025
0.00112321
0.00114469
0.00116669
0.00118892
0.00121109
0.00123289
0.00125403
0.0012742
0.00129312
0.00131056
0.00132634
0.00134035
0.00135254
0.00136294
0.00137165
0.0013788
0.00138454
0.00138904
0.00139249
0.00139507
0.00139693
0.00139823
0.00139913
0.00139974
0.00140021
0.00140063
0.00140113
0.00140182
0.00140285
0.00140439
0.00140669
0.00141002
0.00141469
0.00142095
0.00142886
0.00143828
0.00144873
0.0014595
0.0014697
0.00147834
0.00148441
0.00148687
0.00148467
0.00147683
0.00146259
0.00144153
0.00141374
0.00137986
0.00134109
0.00129911
0.00125589
0.00121346
0.0011736
0.00113763
0.0011063
0.00107979
0.00105791
0.00104024
0.00102625
0.00101539
0.00100709
0.00100082
0.000996109
0.000992581
0.000989937
0.000987954
0.000986468
0.000985351
0.000984544
0.000983714
0.000991432
0.000989878
0.000988299
0.000986716
0.000985154
0.000983645
0.000982222
0.00098092
0.000979774
0.000978829
0.000978139
0.000977794
0.000977916
0.000978651
0.000980128
0.00098243
0.000985585
0.000989581
0.000994393
0.00100001
0.00100646
0.00101379
0.00102209
0.00103144
0.00104191
0.00105356
0.0010664
0.00108041
0.00109552
0.00111166
0.00112868
0.00114644
0.00116475
0.0011834
0.00120217
0.00122081
0.00123907
0.00125667
0.00127337
0.00128895
0.00130323
0.00131607
0.00132741
0.00133724
0.0013456
0.00135258
0.00135829
0.00136286
0.00136644
0.00136918
0.00137122
0.00137269
0.00137372
0.00137443
0.00137493
0.00137533
0.00137573
0.00137623
0.00137696
0.00137807
0.00137976
0.00138229
0.00138596
0.00139106
0.00139772
0.00140589
0.00141523
0.00142515
0.00143487
0.00144353
0.0014502
0.00145391
0.00145365
0.00144842
0.00143733
0.00141981
0.00139577
0.00136562
0.00133039
0.00129157
0.00125101
0.00121066
0.00117232
0.00113737
0.00110666
0.00108049
0.00105875
0.00104111
0.00102707
0.00101611
0.00100771
0.00100133
0.000996524
0.000992913
0.000990198
0.000988154
0.000986615
0.000985452
0.000984608
0.000983729
0.000999698
0.000998805
0.000997913
0.000997042
0.000996218
0.000995471
0.000994831
0.000994334
0.000994014
0.000993906
0.000994049
0.000994484
0.000995267
0.000996462
0.000998149
0.0010004
0.00100329
0.00100686
0.00101114
0.00101617
0.00102196
0.00102855
0.00103597
0.00104424
0.0010534
0.00106348
0.00107449
0.00108642
0.00109924
0.00111292
0.00112737
0.00114249
0.00115816
0.00117422
0.0011905
0.00120679
0.00122287
0.00123853
0.00125353
0.00126766
0.00128076
0.00129268
0.00130335
0.00131272
0.00132082
0.00132768
0.00133339
0.00133805
0.00134177
0.00134468
0.0013469
0.00134854
0.00134972
0.00135055
0.00135113
0.00135155
0.00135191
0.0013523
0.00135282
0.00135361
0.00135484
0.00135675
0.00135962
0.00136374
0.00136931
0.00137634
0.00138461
0.00139363
0.00140274
0.00141117
0.00141812
0.00142271
0.00142398
0.00142093
0.00141262
0.00139834
0.00137781
0.00135125
0.00131946
0.00128377
0.00124587
0.00120763
0.00117085
0.00113695
0.00110689
0.00108107
0.00105949
0.00104188
0.0010278
0.00101676
0.00100826
0.00100178
0.000996883
0.000993193
0.000990411
0.000988309
0.00098672
0.000985513
0.000984634
0.000983707
0.00100357
0.00100306
0.00100257
0.00100211
0.00100172
0.00100141
0.00100122
0.00100118
0.00100131
0.00100165
0.00100223
0.00100309
0.00100425
0.00100576
0.00100766
0.00101
0.00101283
0.00101619
0.00102011
0.00102465
0.00102983
0.00103569
0.00104224
0.00104953
0.00105756
0.00106636
0.00107595
0.00108631
0.00109745
0.00110932
0.00112189
0.00113508
0.0011488
0.00116294
0.00117734
0.00119184
0.00120626
0.0012204
0.00123406
0.00124705
0.0012592
0.00127038
0.0012805
0.0012895
0.00129737
0.00130414
0.00130986
0.00131461
0.00131847
0.00132155
0.00132395
0.00132576
0.00132711
0.00132807
0.00132874
0.00132922
0.00132959
0.00132992
0.00133032
0.00133089
0.00133179
0.00133322
0.00133545
0.00133878
0.00134343
0.00134947
0.00135676
0.0013649
0.00137333
0.00138139
0.00138836
0.00139348
0.00139588
0.0013946
0.00138867
0.00137728
0.00135997
0.00133678
0.0013083
0.00127566
0.00124041
0.00120431
0.00116912
0.00113632
0.00110694
0.0010815
0.0010601
0.00104253
0.00102842
0.00101732
0.00100872
0.00100215
0.000997173
0.000993411
0.000990566
0.000988411
0.000986776
0.000985529