/*--------------------------------*- C++ -*----------------------------------*\
  =========                 |
  \\      /  F ield         | OpenFOAM: The Open Source CFD Toolbox
   \\    /   O peration     | Website:  https://openfoam.org
    \\  /    A nd           | Version:  10
     \\/     M anipulation  |
\*---------------------------------------------------------------------------*/
FoamFile
{
    format      ascii;
    class       surfaceScalarField;
    location    "0.06";
    object      phi;
}
// * * * * * * * * * * * * * * * * * * * * * * * * * * * * * * * * * * * * * //

dimensions      [0 3 -1 0 0 0 0];

internalField   nonuniform List<scalar> 
13452
(
6.05769e-05
-3.08455e-07
6.037e-05
2.06948e-07
5.9897e-05
4.72936e-07
5.92819e-05
6.15114e-07
5.86747e-05
6.07199e-07
5.81356e-05
5.3908e-07
5.76673e-05
4.68337e-07
5.72596e-05
4.07737e-07
5.69011e-05
3.58505e-07
5.65818e-05
3.19283e-07
5.62939e-05
2.87906e-07
5.60314e-05
2.62427e-07
5.57901e-05
2.41382e-07
5.55663e-05
2.2372e-07
5.53576e-05
2.08699e-07
5.51618e-05
1.95807e-07
5.49771e-05
1.84689e-07
5.4802e-05
1.75108e-07
5.46351e-05
1.66913e-07
5.44751e-05
1.60019e-07
5.43207e-05
1.54403e-07
5.41706e-05
1.50104e-07
5.40234e-05
1.47232e-07
5.38774e-05
1.45996e-07
5.37306e-05
1.4673e-07
5.35806e-05
1.50091e-07
5.34236e-05
1.56905e-07
5.3254e-05
1.69616e-07
5.30629e-05
1.91086e-07
5.28347e-05
2.28268e-07
5.25205e-05
3.14177e-07
5.20896e-05
4.30944e-07
6.85511e-07
5.1404e-05
6.18026e-05
-1.20674e-07
6.17622e-05
2.47335e-07
6.18786e-05
3.56508e-07
6.20394e-05
4.5435e-07
6.2145e-05
5.01546e-07
6.2173e-05
5.11064e-07
6.21379e-05
5.03434e-07
6.20605e-05
4.85187e-07
6.19571e-05
4.61905e-07
6.18389e-05
4.37445e-07
6.17132e-05
4.13649e-07
6.15843e-05
3.91288e-07
6.1455e-05
3.70657e-07
6.1327e-05
3.51811e-07
6.1201e-05
3.34698e-07
6.10775e-05
3.19237e-07
6.09569e-05
3.05345e-07
6.0839e-05
2.92962e-07
6.07239e-05
2.82056e-07
6.06113e-05
2.72631e-07
6.05009e-05
2.64735e-07
6.03926e-05
2.58469e-07
6.02858e-05
2.54008e-07
6.01802e-05
2.51624e-07
6.00752e-05
2.51731e-07
5.99703e-05
2.54979e-07
5.98648e-05
2.6236e-07
5.9759e-05
2.75422e-07
5.96527e-05
2.97411e-07
5.95512e-05
3.29777e-07
5.94745e-05
3.90835e-07
5.94492e-05
4.56281e-07
6.08726e-07
5.9526e-05
6.36611e-05
-2.03881e-08
6.37523e-05
1.56113e-07
6.38137e-05
2.95148e-07
6.38656e-05
4.02402e-07
6.39077e-05
4.59527e-07
6.39381e-05
4.80658e-07
6.3957e-05
4.84501e-07
6.39629e-05
4.79287e-07
6.39562e-05
4.68652e-07
6.39384e-05
4.55177e-07
6.39117e-05
4.40403e-07
6.38777e-05
4.25227e-07
6.38382e-05
4.10217e-07
6.37943e-05
3.95732e-07
6.3747e-05
3.82001e-07
6.3697e-05
3.69176e-07
6.3645e-05
3.57376e-07
6.35912e-05
3.46704e-07
6.3536e-05
3.37269e-07
6.34795e-05
3.29199e-07
6.34215e-05
3.22657e-07
6.33622e-05
3.17856e-07
6.33011e-05
3.15086e-07
6.3238e-05
3.14746e-07
6.31723e-05
3.17398e-07
6.31034e-05
3.23822e-07
6.30306e-05
3.35247e-07
6.29529e-05
3.53118e-07
6.28693e-05
3.80934e-07
6.27798e-05
4.1932e-07
6.26886e-05
4.82026e-07
6.25913e-05
5.5354e-07
6.80654e-07
6.25194e-05
6.55758e-05
-1.31015e-08
6.55531e-05
1.78824e-07
6.55633e-05
2.84885e-07
6.56033e-05
3.62449e-07
6.56513e-05
4.1154e-07
6.56951e-05
4.3688e-07
6.5731e-05
4.48543e-07
6.57588e-05
4.51489e-07
6.5779e-05
4.48498e-07
6.57922e-05
4.41909e-07
6.57994e-05
4.33244e-07
6.58012e-05
4.23428e-07
6.57983e-05
4.13083e-07
6.57914e-05
4.0265e-07
6.5781e-05
3.92448e-07
6.57674e-05
3.82726e-07
6.57511e-05
3.73694e-07
6.57322e-05
3.65546e-07
6.5711e-05
3.58477e-07
6.56875e-05
3.52697e-07
6.56617e-05
3.48453e-07
6.56336e-05
3.46046e-07
6.56028e-05
3.45858e-07
6.55691e-05
3.48382e-07
6.55323e-05
3.54285e-07
6.54916e-05
3.64442e-07
6.54467e-05
3.80141e-07
6.5397e-05
4.02853e-07
6.53425e-05
4.35472e-07
6.52826e-05
4.79184e-07
6.52229e-05
5.41782e-07
6.51602e-05
6.16239e-07
7.21366e-07
6.51194e-05
6.74264e-05
1.72835e-08
6.7451e-05
1.54255e-07
6.74787e-05
2.57181e-07
6.75088e-05
3.32301e-07
6.75386e-05
3.81797e-07
6.75671e-05
4.08322e-07
6.75944e-05
4.21287e-07
6.76196e-05
4.2626e-07
6.76421e-05
4.25978e-07
6.76616e-05
4.22412e-07
6.7678e-05
4.16843e-07
6.76914e-05
4.10063e-07
6.77018e-05
4.02624e-07
6.77096e-05
3.94939e-07
6.77147e-05
3.87328e-07
6.77173e-05
3.80056e-07
6.77177e-05
3.7336e-07
6.77158e-05
3.6747e-07
6.77116e-05
3.62622e-07
6.77052e-05
3.59073e-07
6.76966e-05
3.57122e-07
6.76855e-05
3.57123e-07
6.76718e-05
3.59517e-07
6.76554e-05
3.64855e-07
6.76358e-05
3.73857e-07
6.76128e-05
3.87428e-07
6.75861e-05
4.06821e-07
6.75555e-05
4.33437e-07
6.75214e-05
4.69607e-07
6.7484e-05
5.16627e-07
6.74466e-05
5.79101e-07
6.74087e-05
6.54161e-07
7.50031e-07
6.73801e-05
6.93767e-05
2.46263e-08
6.9386e-05
1.4497e-07
6.94037e-05
2.39402e-07
6.94291e-05
3.06907e-07
6.94579e-05
3.53002e-07
6.94863e-05
3.79941e-07
6.95131e-05
3.94554e-07
6.95378e-05
4.01482e-07
6.95606e-05
4.03215e-07
6.95814e-05
4.01608e-07
6.96003e-05
3.97941e-07
6.96173e-05
3.93026e-07
6.96325e-05
3.87422e-07
6.96459e-05
3.81545e-07
6.96575e-05
3.75721e-07
6.96674e-05
3.70224e-07
6.96754e-05
3.65303e-07
6.96817e-05
3.61204e-07
6.96861e-05
3.58187e-07
6.96887e-05
3.56534e-07
6.96892e-05
3.56572e-07
6.96877e-05
3.58686e-07
6.96838e-05
3.63345e-07
6.96776e-05
3.71125e-07
6.96687e-05
3.8275e-07
6.9657e-05
3.99102e-07
6.96425e-05
4.21333e-07
6.96252e-05
4.50707e-07
6.96058e-05
4.89035e-07
6.95849e-05
5.37526e-07
6.95651e-05
5.98889e-07
6.95471e-05
6.72169e-07
7.60733e-07
6.95364e-05
7.13592e-05
3.17754e-08
7.13705e-05
1.33656e-07
7.1391e-05
2.18896e-07
7.14162e-05
2.81744e-07
7.14428e-05
3.26341e-07
7.14687e-05
3.54093e-07
7.14932e-05
3.70027e-07
7.15164e-05
3.78308e-07
7.15382e-05
3.81404e-07
7.15587e-05
3.81118e-07
7.15779e-05
3.78721e-07
7.15959e-05
3.75044e-07
7.16126e-05
3.70664e-07
7.16282e-05
3.66014e-07
7.16425e-05
3.61433e-07
7.16555e-05
3.57208e-07
7.16672e-05
3.536e-07
7.16775e-05
3.5087e-07
7.16864e-05
3.49288e-07
7.16938e-05
3.49154e-07
7.16996e-05
3.50806e-07
7.17036e-05
3.54644e-07
7.17058e-05
3.61141e-07
7.17061e-05
3.70868e-07
7.17043e-05
3.84517e-07
7.17005e-05
4.02913e-07
7.16948e-05
4.27062e-07
7.16874e-05
4.58054e-07
7.16792e-05
4.9726e-07
7.1671e-05
5.45689e-07
7.1665e-05
6.04935e-07
7.16624e-05
6.74788e-07
7.56437e-07
7.16666e-05
7.34032e-05
3.38581e-08
7.34135e-05
1.23308e-07
7.34317e-05
2.00774e-07
7.34543e-05
2.5913e-07
7.34792e-05
3.01454e-07
7.35041e-05
3.29137e-07
7.35282e-05
3.45945e-07
7.35511e-05
3.55394e-07
7.35728e-05
3.59736e-07
7.35933e-05
3.60638e-07
7.36127e-05
3.59334e-07
7.3631e-05
3.56671e-07
7.36484e-05
3.53255e-07
7.36649e-05
3.49547e-07
7.36804e-05
3.45908e-07
7.3695e-05
3.42645e-07
7.37086e-05
3.40036e-07
7.37211e-05
3.38354e-07
7.37325e-05
3.37881e-07
7.37427e-05
3.38924e-07
7.37517e-05
3.41828e-07
7.37593e-05
3.46989e-07
7.37656e-05
3.5487e-07
7.37705e-05
3.66012e-07
7.37739e-05
3.81055e-07
7.37761e-05
4.0073e-07
7.37773e-05
4.25891e-07
7.37779e-05
4.57428e-07
7.37788e-05
4.9635e-07
7.37811e-05
5.43423e-07
7.37865e-05
5.99554e-07
7.37965e-05
6.64725e-07
7.39112e-07
7.38139e-05
7.55021e-05
3.41863e-08
7.55118e-05
1.13623e-07
7.55289e-05
1.83659e-07
7.55504e-05
2.37685e-07
7.55741e-05
2.77743e-07
7.55982e-05
3.05079e-07
7.56216e-05
3.22475e-07
7.56442e-05
3.32836e-07
7.56657e-05
3.38203e-07
7.56862e-05
3.4012e-07
7.57058e-05
3.39764e-07
7.57245e-05
3.37981e-07
7.57424e-05
3.35391e-07
7.57594e-05
3.32472e-07
7.57757e-05
3.29605e-07
7.57913e-05
3.27116e-07
7.5806e-05
3.25296e-07
7.58199e-05
3.24431e-07
7.5833e-05
3.2481e-07
7.58452e-05
3.26742e-07
7.58564e-05
3.30569e-07
7.58668e-05
3.36674e-07
7.58761e-05
3.45495e-07
7.58846e-05
3.5753e-07
7.58923e-05
3.73345e-07
7.58995e-05
3.93567e-07
7.59065e-05
4.18889e-07
7.59139e-05
4.50004e-07
7.59226e-05
4.87621e-07
7.59338e-05
5.32263e-07
7.5949e-05
5.8439e-07
7.59697e-05
6.43943e-07
7.10595e-07
7.59983e-05
7.76606e-05
3.31615e-08
7.76699e-05
1.04363e-07
7.76858e-05
1.6772e-07
7.77058e-05
2.17674e-07
7.77282e-05
2.55392e-07
7.77513e-05
2.81979e-07
7.77742e-05
2.99556e-07
7.77965e-05
3.10515e-07
7.7818e-05
3.16674e-07
7.78387e-05
3.19438e-07
7.78586e-05
3.19907e-07
7.78777e-05
3.18901e-07
7.7896e-05
3.1704e-07
7.79137e-05
3.14809e-07
7.79307e-05
3.12602e-07
7.7947e-05
3.10756e-07
7.79627e-05
3.09574e-07
7.79778e-05
3.09347e-07
7.79923e-05
3.10367e-07
7.80061e-05
3.12939e-07
7.80193e-05
3.17393e-07
7.80318e-05
3.24091e-07
7.80439e-05
3.33435e-07
7.80556e-05
3.45866e-07
7.8067e-05
3.61869e-07
7.80786e-05
3.8196e-07
7.80909e-05
4.06675e-07
7.81043e-05
4.36522e-07
7.812e-05
4.71965e-07
7.8139e-05
5.13304e-07
7.81627e-05
5.60695e-07
7.81926e-05
6.13958e-07
6.72511e-07
7.82307e-05
7.98801e-05
3.14027e-08
7.98889e-05
9.55717e-08
7.99037e-05
1.52862e-07
7.99225e-05
1.98879e-07
7.99437e-05
2.3419e-07
7.9966e-05
2.59748e-07
7.99883e-05
2.77195e-07
8.00103e-05
2.88482e-07
8.00318e-05
2.95203e-07
8.00526e-05
2.98627e-07
8.00728e-05
2.99771e-07
8.00922e-05
2.9942e-07
8.01111e-05
2.98181e-07
8.01294e-05
2.96536e-07
8.01471e-05
2.94883e-07
8.01643e-05
2.93564e-07
8.0181e-05
2.92884e-07
8.01972e-05
2.93135e-07
8.0213e-05
2.94604e-07
8.02283e-05
2.97586e-07
8.02433e-05
3.02392e-07
8.0258e-05
3.09355e-07
8.02726e-05
3.18829e-07
8.02873e-05
3.31195e-07
8.03023e-05
3.46851e-07
8.03181e-05
3.66201e-07
8.03351e-05
3.89637e-07
8.03542e-05
4.175e-07
8.03761e-05
4.50054e-07
8.0402e-05
4.87409e-07
8.04331e-05
5.29509e-07
8.04711e-05
5.76048e-07
6.26318e-07
8.05173e-05
8.21626e-05
2.92449e-08
8.2171e-05
8.71934e-08
8.21849e-05
1.38959e-07
8.22026e-05
1.81188e-07
8.22227e-05
2.14065e-07
8.22441e-05
2.38376e-07
8.22659e-05
2.55412e-07
8.22876e-05
2.66764e-07
8.2309e-05
2.73817e-07
8.23299e-05
2.77709e-07
8.23503e-05
2.7937e-07
8.23702e-05
2.79541e-07
8.23895e-05
2.78805e-07
8.24084e-05
2.77634e-07
8.24269e-05
2.76423e-07
8.2445e-05
2.75508e-07
8.24626e-05
2.75193e-07
8.248e-05
2.75762e-07
8.24971e-05
2.77494e-07
8.2514e-05
2.80664e-07
8.25309e-05
2.85558e-07
8.25478e-05
2.92471e-07
8.25649e-05
3.0171e-07
8.25825e-05
3.13586e-07
8.26009e-05
3.28413e-07
8.26206e-05
3.46487e-07
8.26422e-05
3.68071e-07
8.26664e-05
3.93362e-07
8.26939e-05
4.22462e-07
8.2726e-05
4.55332e-07
8.27638e-05
4.91763e-07
8.28085e-05
5.31353e-07
5.73343e-07
8.28614e-05
8.45101e-05
2.69034e-08
8.45181e-05
7.92124e-08
8.45311e-05
1.25912e-07
8.45478e-05
1.64489e-07
8.4567e-05
1.94906e-07
8.45876e-05
2.17794e-07
8.46088e-05
2.34182e-07
8.46302e-05
2.45365e-07
8.46515e-05
2.52538e-07
8.46725e-05
2.56712e-07
8.46931e-05
2.5873e-07
8.47134e-05
2.5928e-07
8.47333e-05
2.58919e-07
8.47528e-05
2.58101e-07
8.4772e-05
2.57207e-07
8.4791e-05
2.56566e-07
8.48097e-05
2.56472e-07
8.48283e-05
2.57196e-07
8.48467e-05
2.59e-07
8.48653e-05
2.62138e-07
8.4884e-05
2.66864e-07
8.4903e-05
2.73431e-07
8.49226e-05
2.82092e-07
8.49431e-05
2.93094e-07
8.49649e-05
3.06665e-07
8.49883e-05
3.23005e-07
8.50142e-05
3.42264e-07
8.5043e-05
3.64518e-07
8.50757e-05
3.89744e-07
8.51133e-05
4.17788e-07
8.51567e-05
4.48341e-07
8.52071e-05
4.80935e-07
5.14812e-07
8.52656e-05
8.69246e-05
2.45054e-08
8.69322e-05
7.16059e-08
8.69445e-05
1.13619e-07
8.69603e-05
1.4867e-07
8.69786e-05
1.76614e-07
8.69984e-05
1.97941e-07
8.70191e-05
2.13478e-07
8.70402e-05
2.24282e-07
8.70614e-05
2.31376e-07
8.70824e-05
2.35649e-07
8.71033e-05
2.37863e-07
8.71239e-05
2.3865e-07
8.71443e-05
2.38531e-07
8.71645e-05
2.37935e-07
8.71845e-05
2.37229e-07
8.72043e-05
2.36725e-07
8.72241e-05
2.36702e-07
8.72439e-05
2.37416e-07
8.72638e-05
2.39104e-07
8.72839e-05
2.41994e-07
8.73045e-05
2.46305e-07
8.73256e-05
2.52247e-07
8.73477e-05
2.60019e-07
8.7371e-05
2.69803e-07
8.73959e-05
2.81752e-07
8.74229e-05
2.95978e-07
8.74527e-05
3.12538e-07
8.74858e-05
3.31409e-07
8.75231e-05
3.52475e-07
8.75653e-05
3.755e-07
8.76136e-05
4.00112e-07
8.76687e-05
4.25814e-07
4.51879e-07
8.77316e-05
8.94079e-05
2.21236e-08
8.94152e-05
6.4351e-08
8.94268e-05
1.01989e-07
8.94418e-05
1.33632e-07
8.94594e-05
1.59094e-07
8.94786e-05
1.78748e-07
8.94988e-05
1.9326e-07
8.95196e-05
2.03496e-07
8.95406e-05
2.10325e-07
8.95617e-05
2.14526e-07
8.95828e-05
2.16779e-07
8.96038e-05
2.17658e-07
8.96247e-05
2.17644e-07
8.96455e-05
2.17141e-07
8.96662e-05
2.16488e-07
8.9687e-05
2.15981e-07
8.97078e-05
2.1588e-07
8.97288e-05
2.16416e-07
8.97501e-05
2.17804e-07
8.97718e-05
2.2024e-07
8.97942e-05
2.23906e-07
8.98175e-05
2.28969e-07
8.9842e-05
2.35577e-07
8.98679e-05
2.43848e-07
8.98958e-05
2.53871e-07
8.99261e-05
2.65683e-07
8.99594e-05
2.79264e-07
8.99963e-05
2.94517e-07
9.00375e-05
3.11259e-07
9.00838e-05
3.292e-07
9.0136e-05
3.47939e-07
9.01948e-05
3.66974e-07
3.85634e-07
9.0261e-05
9.19622e-05
1.97962e-08
9.19691e-05
5.7422e-08
9.19802e-05
9.09386e-08
9.19945e-05
1.19282e-07
9.20114e-05
1.42257e-07
9.203e-05
1.60145e-07
9.20497e-05
1.73483e-07
9.20702e-05
1.82982e-07
9.20912e-05
1.89376e-07
9.21124e-05
1.93342e-07
9.21337e-05
1.9548e-07
9.2155e-05
1.96309e-07
9.21764e-05
1.96265e-07
9.21978e-05
1.9572e-07
9.22193e-05
1.94988e-07
9.2241e-05
1.94341e-07
9.22628e-05
1.94012e-07
9.2285e-05
1.94212e-07
9.23077e-05
1.95124e-07
9.2331e-05
1.96915e-07
9.23552e-05
1.99729e-07
9.23805e-05
2.0369e-07
9.24072e-05
2.08895e-07
9.24356e-05
2.15414e-07
9.24662e-05
2.23271e-07
9.24995e-05
2.32448e-07
9.25359e-05
2.42863e-07
9.2576e-05
2.54367e-07
9.26205e-05
2.6673e-07
9.26701e-05
2.79637e-07
9.27254e-05
2.92679e-07
9.2787e-05
3.0537e-07
3.17112e-07
9.28555e-05
9.45894e-05
1.75407e-08
9.4596e-05
5.07907e-08
9.46066e-05
8.03949e-08
9.46203e-05
1.05532e-07
9.46366e-05
1.26019e-07
9.46547e-05
1.42064e-07
9.4674e-05
1.541e-07
9.46943e-05
1.62709e-07
9.47152e-05
1.68511e-07
9.47364e-05
1.72088e-07
9.47579e-05
1.73967e-07
9.47796e-05
1.74606e-07
9.48015e-05
1.744e-07
9.48235e-05
1.73684e-07
9.48458e-05
1.72742e-07
9.48683e-05
1.71819e-07
9.48912e-05
1.71123e-07
9.49146e-05
1.70836e-07
9.49386e-05
1.71114e-07
9.49634e-05
1.72088e-07
9.49893e-05
1.73868e-07
9.50164e-05
1.76538e-07
9.50452e-05
1.80152e-07
9.50759e-05
1.8473e-07
9.51089e-05
1.90252e-07
9.51447e-05
1.96649e-07
9.51837e-05
2.038e-07
9.52266e-05
2.11516e-07
9.52738e-05
2.19545e-07
9.53258e-05
2.27564e-07
9.53834e-05
2.35174e-07
9.54468e-05
2.41923e-07
2.47289e-07
9.55166e-05
9.72917e-05
1.53618e-08
9.72981e-05
4.44276e-08
9.73082e-05
7.02904e-08
9.73214e-05
9.23029e-08
9.73371e-05
1.10302e-07
9.73547e-05
1.24438e-07
9.73738e-05
1.3506e-07
9.73938e-05
1.42646e-07
9.74146e-05
1.47712e-07
9.7436e-05
1.50757e-07
9.74577e-05
1.52237e-07
9.74798e-05
1.52555e-07
9.75021e-05
1.52059e-07
9.75247e-05
1.51047e-07
9.75477e-05
1.49771e-07
9.75711e-05
1.48446e-07
9.75949e-05
1.47253e-07
9.76194e-05
1.46345e-07
9.76447e-05
1.45846e-07
9.76709e-05
1.45858e-07
9.76983e-05
1.46455e-07
9.77272e-05
1.47684e-07
9.77578e-05
1.49563e-07
9.77904e-05
1.52072e-07
9.78255e-05
1.55153e-07
9.78635e-05
1.58703e-07
9.79047e-05
1.6257e-07
9.79497e-05
1.66547e-07
9.79989e-05
1.70373e-07
9.80527e-05
1.7373e-07
9.81116e-05
1.76247e-07
9.8176e-05
1.77512e-07
1.77084e-07
9.82462e-05
0.000100071
1.32574e-08
0.000100077
3.83025e-08
0.000100087
6.05646e-08
0.0001001
7.95228e-08
0.000100115
9.5034e-08
0.000100132
1.07205e-07
0.000100151
1.16315e-07
0.000100171
1.22755e-07
0.000100192
1.26955e-07
0.000100213
1.29336e-07
0.000100235
1.30288e-07
0.000100257
1.30161e-07
0.00010028
1.29255e-07
0.000100303
1.27831e-07
0.000100327
1.26107e-07
0.000100351
1.24266e-07
0.000100376
1.2246e-07
0.000100402
1.20813e-07
0.000100428
1.1942e-07
0.000100456
1.18352e-07
0.000100484
1.17651e-07
0.000100515
1.17334e-07
0.000100547
1.17384e-07
0.000100581
1.17752e-07
0.000100618
1.18351e-07
0.000100658
1.19056e-07
0.000100701
1.19695e-07
0.000100747
1.20057e-07
0.000100798
1.19883e-07
0.000100852
1.18875e-07
0.000100912
1.16694e-07
0.000100976
1.12976e-07
1.0736e-07
0.000101046
0.00010293
1.12216e-08
0.000102936
3.23859e-08
0.000102945
5.11626e-08
0.000102958
6.71247e-08
0.000102973
8.01465e-08
0.00010299
9.03027e-08
0.000103008
9.78154e-08
0.000103028
1.03002e-07
0.000103049
1.06218e-07
0.00010307
1.07815e-07
0.000103092
1.08122e-07
0.000103115
1.07434e-07
0.000103138
1.0601e-07
0.000103162
1.04068e-07
0.000103186
1.01793e-07
0.000103211
9.93371e-08
0.000103237
9.68213e-08
0.000103263
9.434e-08
0.000103291
9.19613e-08
0.000103319
8.97269e-08
0.000103349
8.76521e-08
0.000103381
8.57246e-08
0.000103415
8.39029e-08
0.00010345
8.21143e-08
0.000103488
8.02528e-08
0.000103529
7.81781e-08
0.000103573
7.57142e-08
0.000103621
7.26503e-08
0.000103672
6.87422e-08
0.000103727
6.37172e-08
0.000103786
5.72765e-08
0.00010385
4.91062e-08
3.89186e-08
0.000103919
0.000105871
9.2466e-09
0.000105876
2.66489e-08
0.000105886
4.20344e-08
0.000105898
5.50471e-08
0.000105912
6.55764e-08
0.000105929
7.36729e-08
0.000105947
7.95119e-08
0.000105967
8.33498e-08
0.000105988
8.54768e-08
0.000106009
8.61821e-08
0.000106032
8.57376e-08
0.000106055
8.43887e-08
0.000106078
8.23486e-08
0.000106103
7.97979e-08
0.000106127
7.68859e-08
0.000106153
7.37327e-08
0.000106179
7.04304e-08
0.000106207
6.70452e-08
0.000106235
6.36183e-08
0.000106265
6.01659e-08
0.000106296
5.6679e-08
0.000106328
5.31229e-08
0.000106363
4.94359e-08
0.000106399
4.55291e-08
0.000106438
4.12848e-08
0.00010648
3.65569e-08
0.000106524
3.11713e-08
0.000106572
2.49278e-08
0.000106623
1.76023e-08
0.000106678
8.9529e-09
0.000106737
-1.27714e-09
0.000106799
-1.33526e-08
-2.74914e-08
0.000106865
0.000108895
7.32424e-09
0.000108901
2.10645e-08
0.00010891
3.31352e-08
0.000108922
4.32349e-08
0.000108936
5.12658e-08
0.000108952
5.72613e-08
0.00010897
6.13586e-08
0.00010899
6.37632e-08
0.000109011
6.47084e-08
0.000109033
6.44267e-08
0.000109055
6.31379e-08
0.000109079
6.10397e-08
0.000109103
5.83022e-08
0.000109127
5.50674e-08
0.000109153
5.145e-08
0.000109179
4.75392e-08
0.000109206
4.33979e-08
0.000109234
3.90661e-08
0.000109263
3.45601e-08
0.000109293
2.98736e-08
0.000109325
2.49769e-08
0.000109358
1.98177e-08
0.000109393
1.43199e-08
0.000109431
8.38407e-09
0.00010947
1.88765e-09
0.000109512
-5.31468e-09
0.000109556
-1.33887e-08
0.000109604
-2.25187e-08
0.000109654
-3.29042e-08
0.000109708
-4.47541e-08
0.000109765
-5.82834e-08
0.000109825
-7.37079e-08
-9.11848e-08
0.000109889
0.000112006
5.44606e-09
0.000112012
1.5607e-08
0.000112021
2.44229e-08
0.000112032
3.16346e-08
0.000112046
3.71569e-08
0.000112062
4.10118e-08
0.000112081
4.33064e-08
0.0001121
4.42033e-08
0.000112121
4.38872e-08
0.000112143
4.25387e-08
0.000112166
4.03281e-08
0.000112189
3.74087e-08
0.000112214
3.3909e-08
0.000112239
2.99335e-08
0.000112265
2.55633e-08
0.000112291
2.08577e-08
0.000112319
1.5851e-08
0.000112347
1.05588e-08
0.000112377
4.97544e-09
0.000112408
-9.24937e-10
0.00011244
-7.18965e-09
0.000112474
-1.38835e-08
0.000112509
-2.10925e-08
0.000112546
-2.89211e-08
0.000112586
-3.74918e-08
0.000112627
-4.69435e-08
0.000112671
-5.74295e-08
0.000112718
-6.91145e-08
0.000112767
-8.21711e-08
0.000112819
-9.67745e-08
0.000112874
-1.131e-07
0.000112932
-1.31317e-07
-1.5153e-07
0.000112992
0.000115206
3.60585e-09
0.000115212
1.0257e-08
0.00011522
1.58656e-08
0.000115232
2.02055e-08
0.000115246
2.32043e-08
0.000115262
2.48785e-08
0.00011528
2.5313e-08
0.000115299
2.46354e-08
0.00011532
2.29868e-08
0.000115342
2.05014e-08
0.000115365
1.7306e-08
0.000115389
1.35115e-08
0.000115414
9.20444e-09
0.000115439
4.45299e-09
0.000115466
-6.96236e-10
0.000115493
-6.2069e-09
0.000115521
-1.20771e-08
0.000115549
-1.83118e-08
0.000115579
-2.49369e-08
0.00011561
-3.19949e-08
0.000115643
-3.95456e-08
0.000115677
-4.76642e-08
0.000115712
-5.6442e-08
0.000115749
-6.59842e-08
0.000115788
-7.64088e-08
0.000115829
-8.7845e-08
0.000115872
-1.00431e-07
0.000115917
-1.14308e-07
0.000115964
-1.29624e-07
0.000116014
-1.46519e-07
0.000116066
-1.65132e-07
0.000116121
-1.85592e-07
-2.07957e-07
0.000116177
0.000118498
1.79267e-09
0.000118503
4.98674e-09
0.000118511
7.41826e-09
0.000118523
8.88886e-09
0.000118537
9.3426e-09
0.000118553
8.79771e-09
0.000118571
7.32216e-09
0.00011859
5.0157e-09
0.000118611
1.98629e-09
0.000118633
-1.68432e-09
0.000118657
-5.91232e-09
0.000118681
-1.06194e-08
0.000118706
-1.57599e-08
0.000118732
-2.13005e-08
0.000118758
-2.7225e-08
0.000118785
-3.3531e-08
0.000118814
-4.02347e-08
0.000118843
-4.73642e-08
0.000118873
-5.49624e-08
0.000118904
-6.3086e-08
0.000118936
-7.18048e-08
0.000118969
-8.12007e-08
0.000119004
-9.13666e-08
0.000119041
-1.02405e-07
0.000119079
-1.14427e-07
0.000119119
-1.2755e-07
0.00011916
-1.41894e-07
0.000119203
-1.5758e-07
0.000119248
-1.74726e-07
0.000119295
-1.93444e-07
0.000119344
-2.13837e-07
0.000119394
-2.36e-07
-2.59949e-07
0.000119446
0.000121883
1.90784e-11
0.000121888
-1.88298e-10
0.000121897
-9.05686e-10
0.000121908
-2.31366e-09
0.000121922
-4.44366e-09
0.000121938
-7.26399e-09
0.000121956
-1.07106e-08
0.000121975
-1.47065e-08
0.000121997
-1.91811e-08
0.000122019
-2.40802e-08
0.000122042
-2.93604e-08
0.000122067
-3.49928e-08
0.000122092
-4.09668e-08
0.000122118
-4.72836e-08
0.000122145
-5.39569e-08
0.000122172
-6.10118e-08
0.0001222
-6.84861e-08
0.000122229
-7.64276e-08
0.000122259
-8.48948e-08
0.00012229
-9.39557e-08
0.000122322
-1.03688e-07
0.000122355
-1.14176e-07
0.000122389
-1.25513e-07
0.000122425
-1.37796e-07
0.000122461
-1.51128e-07
0.000122499
-1.65612e-07
0.000122539
-1.81349e-07
0.00012258
-1.98441e-07
0.000122622
-2.1698e-07
0.000122666
-2.3705e-07
0.000122711
-2.58724e-07
0.000122757
-2.82064e-07
-3.07057e-07
0.000122804
0.000125365
-1.7744e-09
0.00012537
-5.36051e-09
0.000125379
-9.22329e-09
0.00012539
-1.35222e-08
0.000125404
-1.82573e-08
0.00012542
-2.33794e-08
0.000125438
-2.88274e-08
0.000125458
-3.45431e-08
0.000125479
-4.04831e-08
0.000125502
-4.66283e-08
0.000125525
-5.29753e-08
0.00012555
-5.95337e-08
0.000125575
-6.6327e-08
0.000125601
-7.33893e-08
0.000125628
-8.07636e-08
0.000125656
-8.85011e-08
0.000125684
-9.66603e-08
0.000125713
-1.05307e-07
0.000125742
-1.14512e-07
0.000125773
-1.24353e-07
0.000125804
-1.34913e-07
0.000125836
-1.4628e-07
0.000125869
-1.58542e-07
0.000125903
-1.71792e-07
0.000125938
-1.86121e-07
0.000125974
-2.01618e-07
0.000126011
-2.1837e-07
0.000126049
-2.36455e-07
0.000126088
-2.55945e-07
0.000126128
-2.76897e-07
0.000126169
-2.9936e-07
0.00012621
-3.23368e-07
-3.48884e-07
0.000126252
0.000128947
-3.40686e-09
0.000128952
-1.02802e-08
0.00012896
-1.72958e-08
0.000128971
-2.45914e-08
0.000128985
-3.20782e-08
0.000129001
-3.96425e-08
0.000129019
-4.7201e-08
0.000129039
-5.47062e-08
0.000129061
-6.21468e-08
0.000129084
-6.95431e-08
0.000129108
-7.69346e-08
0.000129133
-8.43737e-08
0.000129158
-9.19232e-08
0.000129185
-9.96515e-08
0.000129212
-1.07631e-07
0.000129239
-1.15939e-07
0.000129267
-1.24652e-07
0.000129295
-1.33852e-07
0.000129325
-1.43623e-07
0.000129354
-1.54049e-07
0.000129385
-1.65217e-07
0.000129416
-1.77213e-07
0.000129447
-1.90125e-07
0.000129479
-2.04036e-07
0.000129512
-2.19028e-07
0.000129546
-2.35176e-07
0.00012958
-2.5255e-07
0.000129615
-2.71211e-07
0.00012965
-2.9121e-07
0.000129686
-3.12585e-07
0.000129722
-3.3536e-07
0.000129758
-3.59552e-07
-3.85102e-07
0.000129794
0.000132631
-5.40599e-09
0.000132636
-1.55512e-08
0.000132645
-2.56386e-08
0.000132656
-3.58146e-08
0.00013267
-4.59601e-08
0.000132686
-5.59185e-08
0.000132704
-6.55806e-08
0.000132725
-7.48928e-08
0.000132746
-8.38577e-08
0.000132769
-9.25228e-08
0.000132793
-1.00963e-07
0.000132818
-1.0927e-07
0.000132844
-1.1754e-07
0.00013287
-1.25877e-07
0.000132897
-1.3438e-07
0.000132924
-1.4315e-07
0.000132952
-1.52286e-07
0.00013298
-1.61883e-07
0.000133008
-1.72036e-07
0.000133037
-1.82837e-07
0.000133066
-1.94375e-07
0.000133096
-2.06736e-07
0.000133125
-2.20004e-07
0.000133156
-2.34255e-07
0.000133186
-2.4956e-07
0.000133217
-2.65984e-07
0.000133248
-2.83582e-07
0.000133279
-3.02399e-07
0.000133311
-3.22469e-07
0.000133342
-3.43812e-07
0.000133373
-3.66436e-07
0.000133404
-3.90337e-07
-4.15447e-07
0.000133434
0.000136419
-6.23748e-09
0.000136423
-1.959e-08
0.000136431
-3.31672e-08
0.000136442
-4.68974e-08
0.000136456
-6.02872e-08
0.000136473
-7.30184e-08
0.000136493
-8.49646e-08
0.000136514
-9.61178e-08
0.000136536
-1.06546e-07
0.00013656
-1.16362e-07
0.000136585
-1.25701e-07
0.000136611
-1.34704e-07
0.000136636
-1.43516e-07
0.000136663
-1.52272e-07
0.00013669
-1.61105e-07
0.000136717
-1.70137e-07
0.000136744
-1.79484e-07
0.000136771
-1.89254e-07
0.000136799
-1.99551e-07
0.000136826
-2.10471e-07
0.000136854
-2.22104e-07
0.000136882
-2.34535e-07
0.00013691
-2.47841e-07
0.000136938
-2.62093e-07
0.000136965
-2.77353e-07
0.000136993
-2.93673e-07
0.000137021
-3.11097e-07
0.000137048
-3.29656e-07
0.000137075
-3.49371e-07
0.000137101
-3.70248e-07
0.000137127
-3.92281e-07
0.000137152
-4.15457e-07
-4.39695e-07
0.000137176
0.000140319
-9.73748e-09
0.000140325
-2.55537e-08
0.000140334
-4.14891e-08
0.000140344
-5.77101e-08
0.000140358
-7.37774e-08
0.000140374
-8.91391e-08
0.000140392
-1.03465e-07
0.000140413
-1.16649e-07
0.000140435
-1.28742e-07
0.000140459
-1.39882e-07
0.000140483
-1.50243e-07
0.000140509
-1.60015e-07
0.000140534
-1.69385e-07
0.000140561
-1.7853e-07
0.000140587
-1.87615e-07
0.000140614
-1.96789e-07
0.000140641
-2.06191e-07
0.000140667
-2.15944e-07
0.000140694
-2.26163e-07
0.00014072
-2.3695e-07
0.000140747
-2.484e-07
0.000140773
-2.60595e-07
0.000140798
-2.73612e-07
0.000140824
-2.87514e-07
0.000140849
-3.02357e-07
0.000140873
-3.18184e-07
0.000140897
-3.35029e-07
0.000140921
-3.52913e-07
0.000140943
-3.71845e-07
0.000140965
-3.91823e-07
0.000140985
-4.1283e-07
0.000141005
-4.34842e-07
-4.57777e-07
0.000141023
0.000144322
-6.85664e-09
0.000144323
-2.66433e-08
0.000144329
-4.81199e-08
0.000144342
-6.98516e-08
0.000144358
-9.0286e-08
0.000144378
-1.08831e-07
0.0001444
-1.25433e-07
0.000144423
-1.40236e-07
0.000144448
-1.53465e-07
0.000144474
-1.65375e-07
0.0001445
-1.76233e-07
0.000144526
-1.86295e-07
0.000144552
-1.95796e-07
0.000144579
-2.04947e-07
0.000144605
-2.13938e-07
0.000144631
-2.22936e-07
0.000144657
-2.3209e-07
0.000144683
-2.41532e-07
0.000144708
-2.5138e-07
0.000144733
-2.61739e-07
0.000144757
-2.727e-07
0.000144781
-2.84345e-07
0.000144804
-2.96743e-07
0.000144826
-3.09954e-07
0.000144848
-3.24025e-07
0.000144869
-3.38992e-07
0.000144889
-3.54881e-07
0.000144907
-3.71705e-07
0.000144925
-3.89466e-07
0.000144941
-4.08154e-07
0.000144956
-4.27748e-07
0.00014497
-4.4822e-07
-4.69485e-07
0.000144981
0.000148457
-1.579e-08
0.000148464
-3.35983e-08
0.00014847
-5.39799e-08
0.000148477
-7.72252e-08
0.000148488
-1.01084e-07
0.000148503
-1.23522e-07
0.000148521
-1.43579e-07
0.000148542
-1.61156e-07
0.000148565
-1.765e-07
0.000148589
-1.89947e-07
0.000148615
-2.01853e-07
0.000148641
-2.12565e-07
0.000148668
-2.22395e-07
0.000148694
-2.31622e-07
0.000148721
-2.40484e-07
0.000148747
-2.4919e-07
0.000148773
-2.57916e-07
0.000148798
-2.66817e-07
0.000148823
-2.76023e-07
0.000148847
-2.85649e-07
0.00014887
-2.95791e-07
0.000148892
-3.06532e-07
0.000148913
-3.17941e-07
0.000148933
-3.30074e-07
0.000148952
-3.42974e-07
0.00014897
-3.56674e-07
0.000148986
-3.71193e-07
0.000149001
-3.8654e-07
0.000149014
-4.02712e-07
0.000149026
-4.19694e-07
0.000149036
-4.37462e-07
0.000149044
-4.55984e-07
-4.75181e-07
0.000149049
0.000152671
2.45092e-09
0.000152666
-2.89155e-08
0.000152675
-6.27985e-08
0.000152694
-9.59958e-08
0.000152718
-1.24924e-07
0.000152744
-1.4972e-07
0.000152771
-1.70853e-07
0.000152799
-1.88863e-07
0.000152827
-2.0427e-07
0.000152854
-2.17548e-07
0.000152881
-2.29142e-07
0.000152908
-2.39447e-07
0.000152935
-2.48798e-07
0.000152961
-2.57479e-07
0.000152986
-2.65731e-07
0.00015301
-2.73761e-07
0.000153034
-2.81744e-07
0.000153057
-2.8983e-07
0.000153079
-2.98147e-07
0.000153101
-3.06802e-07
0.000153121
-3.15889e-07
0.00015314
-3.25486e-07
0.000153157
-3.35656e-07
0.000153174
-3.46452e-07
0.000153189
-3.57911e-07
0.000153202
-3.70063e-07
0.000153214
-3.82923e-07
0.000153224
-3.96496e-07
0.000153232
-4.10779e-07
0.000153238
-4.25757e-07
0.000153242
-4.41404e-07
0.000153243
-4.57692e-07
-4.74545e-07
0.000153243
0.000157077
-2.35404e-08
0.000157077
-2.85517e-08
0.000157065
-5.05431e-08
0.000157057
-8.78005e-08
0.000157058
-1.26685e-07
0.00015707
-1.61135e-07
0.000157088
-1.89183e-07
0.000157111
-2.11904e-07
0.000157137
-2.30438e-07
0.000157165
-2.45644e-07
0.000157195
-2.58272e-07
0.000157224
-2.68954e-07
0.000157253
-2.78201e-07
0.000157282
-2.86427e-07
0.000157311
-2.93964e-07
0.000157338
-3.01081e-07
0.000157364
-3.07995e-07
0.000157389
-3.14884e-07
0.000157413
-3.21892e-07
0.000157435
-3.29138e-07
0.000157456
-3.3672e-07
0.000157475
-3.44718e-07
0.000157493
-3.53194e-07
0.000157509
-3.62198e-07
0.000157523
-3.71768e-07
0.000157534
-3.81928e-07
0.000157544
-3.92693e-07
0.000157552
-4.04068e-07
0.000157557
-4.16046e-07
0.00015756
-4.28613e-07
0.00015756
-4.41745e-07
0.000157558
-4.55416e-07
-4.6956e-07
0.000157553
0.00016147
4.53408e-08
0.000161456
-1.48039e-08
0.000161493
-8.72787e-08
0.000161537
-1.31919e-07
0.00016158
-1.6979e-07
0.000161618
-1.9906e-07
0.000161652
-2.23022e-07
0.000161683
-2.42919e-07
0.000161711
-2.5931e-07
0.000161739
-2.7291e-07
0.000161765
-2.84353e-07
0.00016179
-2.94125e-07
0.000161814
-3.02618e-07
0.000161838
-3.10158e-07
0.000161861
-3.17013e-07
0.000161883
-3.23405e-07
0.000161905
-3.29519e-07
0.000161926
-3.35506e-07
0.000161945
-3.41498e-07
0.000161964
-3.476e-07
0.000161981
-3.53902e-07
0.000161997
-3.6048e-07
0.000162011
-3.67395e-07
0.000162023
-3.74693e-07
0.000162034
-3.82414e-07
0.000162043
-3.90584e-07
0.000162049
-3.99219e-07
0.000162053
-4.08329e-07
0.000162055
-4.17911e-07
0.000162055
-4.27958e-07
0.000162051
-4.38453e-07
0.000162045
-4.49375e-07
-4.60671e-07
0.000162036
0.000166191
8.13072e-09
0.000166127
4.85267e-08
0.000166047
-7.16996e-09
0.000165992
-7.62855e-08
0.000165979
-1.57383e-07
0.000165993
-2.13007e-07
0.000166023
-2.52405e-07
0.000166061
-2.80777e-07
0.000166103
-3.01865e-07
0.000166148
-3.17878e-07
0.000166194
-3.3023e-07
0.00016624
-3.39938e-07
0.000166285
-3.47736e-07
0.000166329
-3.54158e-07
0.000166371
-3.59604e-07
0.000166412
-3.64373e-07
0.000166452
-3.68698e-07
0.000166489
-3.72762e-07
0.000166524
-3.7671e-07
0.000166557
-3.80658e-07
0.000166588
-3.84701e-07
0.000166616
-3.88914e-07
0.000166642
-3.93361e-07
0.000166666
-3.98089e-07
0.000166686
-4.03137e-07
0.000166704
-4.08532e-07
0.000166719