/*--------------------------------*- C++ -*----------------------------------*\
  =========                 |
  \\      /  F ield         | OpenFOAM: The Open Source CFD Toolbox
   \\    /   O peration     | Website:  https://openfoam.org
    \\  /    A nd           | Version:  10
     \\/     M anipulation  |
\*---------------------------------------------------------------------------*/
FoamFile
{
    format      ascii;
    class       volVectorField;
    location    "0.06";
    object      U;
}
// * * * * * * * * * * * * * * * * * * * * * * * * * * * * * * * * * * * * * //

dimensions      [0 1 -1 0 0 0 0];

internalField   nonuniform List<vector> 
6820
(
(7.33663 -0.254708 0)
(7.37109 -0.152731 0)
(7.32894 -0.0594641 0)
(7.252 -0.0117079 0)
(7.17451 0.00799001 0)
(7.10453 0.0140038 0)
(7.04333 0.0145015 0)
(6.99031 0.0131341 0)
(6.94401 0.0113939 0)
(6.90302 0.00982892 0)
(6.86626 0.00858005 0)
(6.83291 0.00763525 0)
(6.80236 0.00693899 0)
(6.77415 0.00643284 0)
(6.7479 0.00606829 0)
(6.72334 0.00580897 0)
(6.70024 0.00562907 0)
(6.67838 0.0055113 0)
(6.65761 0.00544507 0)
(6.63776 0.00542504 0)
(6.61866 0.0054503 0)
(6.60017 0.00552421 0)
(6.58213 0.00565469 0)
(6.56434 0.00585585 0)
(6.54659 0.00614997 0)
(6.52863 0.0065752 0)
(6.51005 0.00719797 0)
(6.49046 0.00809736 0)
(6.46864 0.00975881 0)
(6.44422 0.011376 0)
(6.41203 0.0195242 0)
(6.36877 0.0208766 0)
(6.3094 0.0341522 0)
(7.32387 0.121392 0)
(7.30439 0.123291 0)
(7.30893 0.078007 0)
(7.32913 0.0528377 0)
(7.34716 0.0392461 0)
(7.35515 0.0314506 0)
(7.35409 0.0270102 0)
(7.34688 0.0242784 0)
(7.33582 0.0223981 0)
(7.32246 0.0209784 0)
(7.30788 0.0198245 0)
(7.29272 0.0188373 0)
(7.27739 0.0179676 0)
(7.26213 0.0171907 0)
(7.24708 0.0164935 0)
(7.23232 0.0158693 0)
(7.21788 0.0153147 0)
(7.20377 0.0148288 0)
(7.18999 0.0144129 0)
(7.17652 0.0140707 0)
(7.16334 0.0138083 0)
(7.15042 0.0136359 0)
(7.1377 0.0135682 0)
(7.12515 0.0136283 0)
(7.11271 0.013849 0)
(7.1003 0.0142895 0)
(7.08789 0.0150189 0)
(7.07531 0.0162532 0)
(7.06298 0.0180846 0)
(7.04978 0.0215726 0)
(7.04029 0.0267168 0)
(7.02925 0.0380446 0)
(7.04127 0.0586027 0)
(7.32565 -0.0437855 0)
(7.32323 -0.0517102 0)
(7.33512 -0.0261675 0)
(7.3429 -0.00266872 0)
(7.34777 0.0105004 0)
(7.35188 0.0169724 0)
(7.35479 0.0200673 0)
(7.35622 0.0213799 0)
(7.35614 0.0217529 0)
(7.35468 0.0216609 0)
(7.35207 0.0213519 0)
(7.34853 0.0209544 0)
(7.34427 0.0205359 0)
(7.33944 0.0201315 0)
(7.33417 0.0197592 0)
(7.32856 0.0194287 0)
(7.32269 0.0191461 0)
(7.3166 0.0189167 0)
(7.31033 0.0187466 0)
(7.3039 0.0186437 0)
(7.29732 0.0186186 0)
(7.29058 0.0186863 0)
(7.28366 0.0188673 0)
(7.27653 0.0191904 0)
(7.26914 0.0196969 0)
(7.26142 0.0204442 0)
(7.25331 0.0215298 0)
(7.24465 0.0230503 0)
(7.23547 0.025347 0)
(7.22536 0.0282726 0)
(7.21519 0.0335476 0)
(7.20373 0.0381817 0)
(7.19436 0.0482195 0)
(7.33338 0.0117991 0)
(7.33032 0.032952 0)
(7.32949 0.0333993 0)
(7.33245 0.0277179 0)
(7.3378 0.0243589 0)
(7.34324 0.0229139 0)
(7.34775 0.0223864 0)
(7.3513 0.0221977 0)
(7.35397 0.0220927 0)
(7.35582 0.0219907 0)
(7.35694 0.0218681 0)
(7.35743 0.021721 0)
(7.35735 0.0215559 0)
(7.35679 0.0213829 0)
(7.35581 0.0212131 0)
(7.35446 0.0210577 0)
(7.35278 0.0209283 0)
(7.35081 0.0208368 0)
(7.34857 0.0207963 0)
(7.34607 0.0208219 0)
(7.34332 0.0209319 0)
(7.3403 0.0211491 0)
(7.33701 0.021503 0)
(7.33342 0.0220328 0)
(7.32949 0.0227921 0)
(7.32518 0.0238538 0)
(7.32042 0.0253265 0)
(7.31513 0.0273485 0)
(7.30934 0.0301763 0)
(7.30287 0.0339889 0)
(7.29622 0.0395435 0)
(7.28913 0.0464382 0)
(7.28317 0.056907 0)
(7.33122 -0.00350878 0)
(7.33002 -0.00428917 0)
(7.33353 0.00135367 0)
(7.33706 0.00883418 0)
(7.34027 0.0142323 0)
(7.34346 0.0172754 0)
(7.34652 0.0189562 0)
(7.34938 0.0199185 0)
(7.35199 0.0204682 0)
(7.35428 0.0207776 0)
(7.35623 0.0209445 0)
(7.35785 0.0210248 0)
(7.35914 0.0210546 0)
(7.36013 0.0210592 0)
(7.36082 0.0210577 0)
(7.36124 0.0210658 0)
(7.3614 0.0210979 0)
(7.36132 0.0211684 0)
(7.36099 0.0212929 0)
(7.36042 0.0214895 0)
(7.3596 0.0217799 0)
(7.35854 0.0221908 0)
(7.3572 0.0227568 0)
(7.35557 0.0235222 0)
(7.35362 0.0245465 0)
(7.35131 0.0259069 0)
(7.34863 0.0277146 0)
(7.34551 0.0300993 0)
(7.34201 0.0332882 0)
(7.33807 0.0374202 0)
(7.33399 0.043005 0)
(7.32978 0.0497578 0)
(7.3261 0.0586711 0)
(7.33264 0.00210215 0)
(7.33221 0.00995844 0)
(7.33387 0.0141912 0)
(7.33631 0.0161073 0)
(7.33922 0.017262 0)
(7.34232 0.018086 0)
(7.34526 0.0187482 0)
(7.34798 0.0192703 0)
(7.3505 0.0196531 0)
(7.3528 0.0199277 0)
(7.3549 0.0201267 0)
(7.3568 0.0202736 0)
(7.3585 0.0203877 0)
(7.36001 0.0204853 0)
(7.36133 0.020581 0)
(7.36247 0.0206887 0)
(7.36341 0.0208227 0)
(7.36417 0.0209983 0)
(7.36474 0.021233 0)
(7.36511 0.021547 0)
(7.36528 0.0219649 0)
(7.36523 0.0225169 0)
(7.36495 0.0232408 0)
(7.36442 0.0241849 0)
(7.36363 0.0254117 0)
(7.36254 0.0270005 0)
(7.36117 0.0290583 0)
(7.35948 0.0317104 0)
(7.35754 0.0351426 0)
(7.35537 0.0395005 0)
(7.35318 0.0451024 0)
(7.35111 0.0519025 0)
(7.34951 0.0603787 0)
(7.33258 0.000856243 0)
(7.3324 0.00459287 0)
(7.33421 0.00819151 0)
(7.33675 0.0114408 0)
(7.33946 0.014076 0)
(7.3422 0.0159041 0)
(7.3448 0.0171166 0)
(7.34725 0.0179292 0)
(7.34956 0.018479 0)
(7.35173 0.0188612 0)
(7.35377 0.0191388 0)
(7.35568 0.019351 0)
(7.35747 0.0195253 0)
(7.35913 0.0196825 0)
(7.36066 0.0198398 0)
(7.36207 0.020013 0)
(7.36334 0.0202176 0)
(7.36447 0.0204703 0)
(7.36546 0.0207897 0)
(7.3663 0.0211977 0)
(7.36698 0.0217203 0)
(7.36749 0.0223895 0)
(7.36781 0.0232448 0)
(7.36794 0.0243355 0)
(7.36787 0.0257239 0)
(7.36758 0.0274869 0)
(7.36709 0.0297231 0)
(7.36641 0.0325457 0)
(7.3656 0.036105 0)
(7.36472 0.0405292 0)
(7.36395 0.0460249 0)
(7.36345 0.0526208 0)
(7.36345 0.0605355 0)
(7.33283 0.0013606 0)
(7.33299 0.00543654 0)
(7.33451 0.00904508 0)
(7.33668 0.0117893 0)
(7.33909 0.0138239 0)
(7.34162 0.0152509 0)
(7.34409 0.0162578 0)
(7.34644 0.016987 0)
(7.34867 0.0175172 0)
(7.35077 0.0179078 0)
(7.35276 0.0182056 0)
(7.35465 0.018444 0)
(7.35644 0.0186483 0)
(7.35813 0.0188387 0)
(7.35973 0.019033 0)
(7.36123 0.0192472 0)
(7.36264 0.0194977 0)
(7.36394 0.0198021 0)
(7.36514 0.0201798 0)
(7.36622 0.0206538 0)
(7.36718 0.0212511 0)
(7.36802 0.0220043 0)
(7.36871 0.0229533 0)
(7.36927 0.0241467 0)
(7.36969 0.0256442 0)
(7.36997 0.0275179 0)
(7.37013 0.0298554 0)
(7.3702 0.0327557 0)
(7.37026 0.0363384 0)
(7.37039 0.0407104 0)
(7.37073 0.0460093 0)
(7.37145 0.052285 0)
(7.37274 0.0596379 0)
(7.33291 0.00136433 0)
(7.33318 0.00477107 0)
(7.33455 0.00787239 0)
(7.33652 0.0104029 0)
(7.33876 0.0124305 0)
(7.34111 0.0139549 0)
(7.34344 0.0150663 0)
(7.34568 0.0158761 0)
(7.34782 0.0164663 0)
(7.34986 0.0169027 0)
(7.35181 0.0172365 0)
(7.35367 0.017505 0)
(7.35544 0.017736 0)
(7.35714 0.017952 0)
(7.35876 0.0181723 0)
(7.36031 0.0184144 0)
(7.36178 0.0186959 0)
(7.36317 0.0190352 0)
(7.36448 0.0194528 0)
(7.36571 0.0199721 0)
(7.36685 0.0206205 0)
(7.3679 0.0214305 0)
(7.36885 0.022441 0)
(7.36972 0.0236984 0)
(7.3705 0.025258 0)
(7.37122 0.0271849 0)
(7.3719 0.0295549 0)
(7.37258 0.032451 0)
(7.37335 0.0359664 0)
(7.37428 0.0401851 0)
(7.37552 0.0451979 0)
(7.37722 0.0510492 0)
(7.37954 0.057776 0)
(7.33297 0.00134454 0)
(7.33333 0.00442587 0)
(7.33456 0.00729021 0)
(7.33633 0.00966089 0)
(7.33837 0.0115582 0)
(7.34055 0.0130012 0)
(7.34274 0.0140722 0)
(7.34488 0.0148695 0)
(7.34695 0.0154657 0)
(7.34895 0.0159172 0)
(7.35086 0.0162691 0)
(7.3527 0.016556 0)
(7.35447 0.0168051 0)
(7.35617 0.0170388 0)
(7.3578 0.0172769 0)
(7.35938 0.0175378 0)
(7.36089 0.0178396 0)
(7.36235 0.0182014 0)
(7.36374 0.0186439 0)
(7.36507 0.0191908 0)
(7.36635 0.019869 0)
(7.36756 0.0207102 0)
(7.36873 0.021751 0)
(7.36984 0.0230346 0)
(7.37093 0.0246109 0)
(7.37201 0.0265364 0)
(7.37312 0.0288748 0)
(7.37432 0.0316932 0)
(7.37567 0.0350621 0)
(7.37728 0.0390436 0)
(7.37925 0.0436951 0)
(7.38175 0.0490455 0)
(7.3849 0.0550958 0)
(7.333 0.00128645 0)
(7.33339 0.00405347 0)
(7.3345 0.00663215 0)
(7.33611 0.00880407 0)
(7.33798 0.0105757 0)
(7.34 0.0119638 0)
(7.34206 0.0130235 0)
(7.34411 0.0138287 0)
(7.34611 0.0144408 0)
(7.34805 0.0149103 0)
(7.34993 0.0152796 0)
(7.35175 0.0155823 0)
(7.35351 0.0158456 0)
(7.35521 0.0160924 0)
(7.35686 0.0163427 0)
(7.35847 0.0166153 0)
(7.36002 0.0169289 0)
(7.36153 0.0173026 0)
(7.363 0.0177573 0)
(7.36443 0.018316 0)
(7.36582 0.0190048 0)
(7.36718 0.0198534 0)
(7.36853 0.0208959 0)
(7.36986 0.022171 0)
(7.37122 0.023722 0)
(7.37262 0.025597 0)
(7.37412 0.0278472 0)
(7.37575 0.0305247 0)
(7.37761 0.0336805 0)
(7.37978 0.0373569 0)
(7.38236 0.0415861 0)
(7.3855 0.0463799 0)
(7.3893 0.051717 0)
(7.33302 0.0012064 0)
(7.33342 0.00370508 0)
(7.33443 0.00604083 0)
(7.33589 0.00804116 0)
(7.33761 0.00969438 0)
(7.33948 0.0110122 0)
(7.34142 0.0120357 0)
(7.34337 0.0128246 0)
(7.3453 0.0134328 0)
(7.34719 0.0139054 0)
(7.34903 0.0142809 0)
(7.35083 0.0145908 0)
(7.35258 0.0148611 0)
(7.35429 0.015114 0)
(7.35596 0.0153696 0)
(7.35759 0.0156466 0)
(7.35918 0.0159633 0)
(7.36075 0.0163388 0)
(7.36228 0.0167931 0)
(7.3638 0.0173485 0)
(7.3653 0.0180294 0)
(7.36681 0.0188631 0)
(7.36832 0.01988 0)
(7.36986 0.021114 0)
(7.37146 0.0226016 0)
(7.37315 0.0243817 0)
(7.37498 0.0264941 0)
(7.377 0.0289772 0)
(7.37929 0.0318651 0)
(7.38193 0.0351831 0)
(7.38501 0.0389442 0)
(7.38867 0.0431449 0)
(7.39297 0.0477495 0)
(7.33303 0.00111576 0)
(7.33342 0.00337277 0)
(7.33435 0.00548242 0)
(7.33568 0.00731175 0)
(7.33726 0.00884152 0)
(7.339 0.0100805 0)
(7.34083 0.0110593 0)
(7.34269 0.011825 0)
(7.34454 0.0124227 0)
(7.34638 0.012892 0)
(7.34819 0.0132674 0)
(7.34996 0.0135782 0)
(7.3517 0.0138492 0)
(7.35341 0.0141019 0)
(7.35509 0.0143559 0)
(7.35675 0.0146294 0)
(7.35838 0.0149404 0)
(7.36 0.0153071 0)
(7.3616 0.0157487 0)
(7.36321 0.0162857 0)
(7.36482 0.0169406 0)
(7.36645 0.0177378 0)
(7.36812 0.0187036 0)
(7.36986 0.0198664 0)
(7.37168 0.0212559 0)
(7.37363 0.0229024 0)
(7.37576 0.0248349 0)
(7.37811 0.0270794 0)
(7.38076 0.0296562 0)
(7.38379 0.0325761 0)
(7.38727 0.0358377 0)
(7.39132 0.0394251 0)
(7.396 0.0432941 0)
(7.33303 0.00102088 0)
(7.33341 0.00305638 0)
(7.33426 0.00495805 0)
(7.33548 0.00662434 0)
(7.33693 0.00803264 0)
(7.33856 0.00918789 0)
(7.34028 0.0101129 0)
(7.34205 0.0108447 0)
(7.34384 0.0114214 0)
(7.34563 0.0118774 0)
(7.3474 0.0122439 0)
(7.34915 0.0125476 0)
(7.35088 0.0128117 0)
(7.35259 0.0130568 0)
(7.35428 0.0133015 0)
(7.35596 0.0135632 0)
(7.35763 0.013859 0)
(7.35929 0.0142061 0)
(7.36097 0.0146222 0)
(7.36265 0.015126 0)
(7.36437 0.0157374 0)
(7.36612 0.0164774 0)
(7.36794 0.0173681 0)
(7.36985 0.0184324 0)
(7.37187 0.0196933 0)
(7.37405 0.0211727 0)
(7.37643 0.0228903 0)
(7.37906 0.0248613 0)
(7.38201 0.0270944 0)
(7.38535 0.0295891 0)
(7.38914 0.032333 0)
(7.39349 0.0353011 0)
(7.39842 0.0384449 0)
(7.33303 0.000925544 0)
(7.33339 0.00275486 0)
(7.33417 0.00446282 0)
(7.33529 0.00597151 0)
(7.33664 0.00725801 0)
(7.33816 0.00832431 0)
(7.33979 0.00918754 0)
(7.34148 0.00987686 0)
(7.3432 0.010424 0)
(7.34494 0.0108588 0)
(7.34667 0.0112088 0)
(7.34839 0.0114981 0)
(7.35011 0.0117482 0)
(7.35182 0.0119784 0)
(7.35352 0.0122059 0)
(7.35522 0.0124473 0)
(7.35693 0.0127184 0)
(7.35864 0.013035 0)
(7.36037 0.0134131 0)
(7.36213 0.0138692 0)
(7.36394 0.0144202 0)
(7.36581 0.0150838 0)
(7.36776 0.0158776 0)
(7.36982 0.0168191 0)
(7.37201 0.017925 0)
(7.37439 0.0192097 0)
(7.37698 0.0206846 0)
(7.37985 0.0223557 0)
(7.38303 0.0242227 0)
(7.3866 0.0262761 0)
(7.39062 0.0284959 0)
(7.39516 0.0308508 0)
(7.40026 0.033291 0)
(7.33303 0.000831818 0)
(7.33336 0.00246719 0)
(7.33409 0.0039933 0)
(7.33513 0.00534978 0)
(7.33638 0.00651508 0)
(7.33781 0.00748885 0)
(7.33935 0.00828383 0)
(7.34096 0.00892292 0)
(7.34262 0.0094324 0)
(7.3443 0.00983791 0)
(7.346 0.0101635 0)
(7.3477 0.0104308 0)
(7.34941 0.0106594 0)
(7.35111 0.0108669 0)
(7.35282 0.0110694 0)
(7.35454 0.0112818 0)
(7.35627 0.0115187 0)
(7.35803 0.0117941 0)
(7.35981 0.0121221 0)
(7.36165 0.0125166 0)
(7.36353 0.0129918 0)
(7.3655 0.0135614 0)
(7.36757 0.0142391 0)
(7.36976 0.015037 0)
(7.3721 0.0159661 0)
(7.37463 0.0170341 0)
(7.3774 0.0182454 0)
(7.38044 0.0195987 0)
(7.3838 0.0210864 0)
(7.38754 0.0226926 0)
(7.3917 0.0243919 0)
(7.39635 0.0261495 0)
(7.40151 0.0279166 0)
(7.33303 0.000740723 0)
(7.33334 0.00219223 0)
(7.33402 0.00354622 0)
(7.33498 0.00475522 0)
(7.33615 0.00579976 0)
(7.33749 0.00667782 0)
(7.33895 0.00739878 0)
(7.3405 0.00798063 0)
(7.3421 0.00844497 0)
(7.34373 0.00881362 0)
(7.34539 0.00910736 0)
(7.34707 0.00934543 0)
(7.34876 0.00954527 0)
(7.35046 0.00972269 0)
(7.35218 0.00989221 0)
(7.35391 0.0100673 0)
(7.35567 0.0102607 0)
(7.35746 0.0104847 0)
(7.35929 0.0107511 0)
(7.36118 0.0110715 0)
(7.36314 0.0114567 0)
(7.36519 0.0119172 0)
(7.36735 0.0124623 0)
(7.36965 0.0130996 0)
(7.37211 0.0138348 0)
(7.37476 0.01467 0)
(7.37766 0.0156037 0)
(7.38082 0.0166289 0)
(7.3843 0.0177325 0)
(7.38813 0.0188943 0)
(7.39237 0.0200856 0)
(7.39705 0.0212703 0)
(7.40219 0.0224017 0)
(7.33303 0.000652646 0)
(7.33332 0.00192879 0)
(7.33395 0.00311868 0)
(7.33485 0.00418435 0)
(7.33595 0.00510863 0)
(7.33721 0.00588842 0)
(7.3386 0.00653046 0)
(7.34008 0.00704886 0)
(7.34163 0.00746124 0)
(7.34322 0.00778594 0)
(7.34484 0.00804078 0)
(7.34649 0.00824249 0)
(7.34817 0.0084064 0)
(7.34986 0.00854647 0)
(7.35158 0.00867546 0)
(7.35332 0.00880513 0)
(7.3551 0.00894642 0)
(7.35692 0.00910956 0)
(7.35879 0.00930412 0)
(7.36073 0.009539 0)
(7.36275 0.00982224 0)
(7.36486 0.0101608 0)
(7.3671 0.0105601 0)
(7.36947 0.0110238 0)
(7.37202 0.0115528 0)
(7.37476 0.0121448 0)
(7.37774 0.0127934 0)
(7.38098 0.0134874 0)
(7.38451 0.0142098 0)
(7.38838 0.0149376 0)
(7.39262 0.0156409 0)
(7.39727 0.0162832 0)
(7.40232 0.0168216 0)
(7.33302 0.00056761 0)
(7.3333 0.00167563 0)
(7.33389 0.00270803 0)
(7.33473 0.00363394 0)
(7.33576 0.00443841 0)
(7.33696 0.0051177 0)
(7.33829 0.00567651 0)
(7.33971 0.00612583 0)
(7.3412 0.00647994 0)
(7.34275 0.00675406 0)
(7.34434 0.00696327 0)
(7.34597 0.00712186 0)
(7.34762 0.00724304 0)
(7.34931 0.00733882 0)
(7.35103 0.00742011 0)
(7.35278 0.00749685 0)
(7.35457 0.00757804 0)
(7.35641 0.00767184 0)
(7.35831 0.00778554 0)
(7.36028 0.00792546 0)
(7.36234 0.0080968 0)
(7.36451 0.00830338 0)
(7.36679 0.00854727 0)
(7.36922 0.00882835 0)
(7.37182 0.00914382 0)
(7.37461 0.00948758 0)
(7.37763 0.00984972 0)
(7.38089 0.0102159 0)
(7.38444 0.0105667 0)
(7.38829 0.0108777 0)
(7.39247 0.0111188 0)
(7.39702 0.0112548 0)
(7.40192 0.0112467 0)
(7.33302 0.000485434 0)
(7.33328 0.00143153 0)
(7.33383 0.00231189 0)
(7.33462 0.00310107 0)
(7.3356 0.00378611 0)
(7.33674 0.00436298 0)
(7.33801 0.00483484 0)
(7.33938 0.00521017 0)
(7.34082 0.0055004 0)
(7.34233 0.005718 0)
(7.34389 0.00587547 0)
(7.34549 0.00598478 0)
(7.34713 0.006057 0)
(7.3488 0.00610217 0)
(7.35051 0.00612932 0)
(7.35227 0.00614646 0)
(7.35407 0.00616063 0)
(7.35592 0.00617789 0)
(7.35784 0.0062033 0)
(7.35983 0.00624072 0)
(7.36192 0.00629271 0)
(7.36411 0.00636024 0)
(7.36642 0.0064424 0)
(7.36888 0.006536 0)
(7.3715 0.00663518 0)
(7.3743 0.00673096 0)
(7.37732 0.00681083 0)
(7.38057 0.00685839 0)
(7.38407 0.00685304 0)
(7.38785 0.00676993 0)
(7.39193 0.00657975 0)
(7.39632 0.00624927 0)
(7.40102 0.00574399 0)
(7.33302 0.000405834 0)
(7.33327 0.00119529 0)
(7.33379 0.00192807 0)
(7.33453 0.00258296 0)
(7.33546 0.00314875 0)
(7.33655 0.00362136 0)
(7.33776 0.00400276 0)
(7.33908 0.00429945 0)
(7.34049 0.00452045 0)
(7.34196 0.00467578 0)
(7.34348 0.00477564 0)
(7.34506 0.00482977 0)
(7.34668 0.00484718 0)
(7.34833 0.00483592 0)
(7.35004 0.00480309 0)
(7.35179 0.00475481 0)
(7.35358 0.00469613 0)
(7.35544 0.00463109 0)
(7.35736 0.00456254 0)
(7.35937 0.00449209 0)
(7.36146 0.00441989 0)
(7.36366 0.00434442 0)
(7.36597 0.00426222 0)
(7.36843 0.0041676 0)
(7.37104 0.00405232 0)
(7.37383 0.00390529 0)
(7.3768 0.00371229 0)
(7.37999 0.0034558 0)
(7.38341 0.0031148 0)
(7.38708 0.00266494 0)
(7.391 0.00207842 0)
(7.39519 0.00132457 0)
(7.39964 0.000373285 0)
(7.33302 0.000328488 0)
(7.33325 0.000965784 0)
(7.33375 0.00155469 0)
(7.33445 0.00207736 0)
(7.33534 0.00252418 0)
(7.33638 0.00289122 0)
(7.33755 0.00317959 0)
(7.33882 0.00339413 0)
(7.34018 0.00354187 0)
(7.34162 0.00363061 0)
(7.34311 0.0036683 0)
(7.34466 0.00366262 0)
(7.34626 0.00362055 0)
(7.3479 0.00354823 0)
(7.34959 0.00345086 0)
(7.35133 0.00333265 0)
(7.35312 0.00319676 0)
(7.35497 0.00304525 0)
(7.35688 0.002879 0)
(7.35888 0.00269752 0)
(7.36096 0.00249884 0)
(7.36315 0.00227932 0)
(7.36545 0.00203343 0)
(7.36788 0.00175352 0)
(7.37045 0.0014296 0)
(7.37318 0.00104918 0)
(7.37609 0.000597069 0)
(7.37918 5.53292e-05 0)
(7.38247 -0.000596741 0)
(7.38598 -0.00138241 0)
(7.3897 -0.00232746 0)
(7.39366 -0.00345975 0)
(7.39783 -0.00480505 0)
(7.33302 0.000253059 0)
(7.33324 0.000741876 0)
(7.33371 0.00118967 0)
(7.33438 0.00158127 0)
(7.33523 0.00190839 0)
(7.33623 0.00216744 0)
(7.33735 0.00235897 0)
(7.33859 0.00248666 0)
(7.33992 0.00255583 0)
(7.34132 0.00257248 0)
(7.34278 0.00254272 0)
(7.3443 0.00247227 0)
(7.34587 0.00236611 0)
(7.3475 0.00222847 0)
(7.34917 0.00206269 0)
(7.35089 0.00187122 0)
(7.35266 0.00165532 0)
(7.35449 0.00141518 0)
(7.35639 0.00114982 0)
(7.35837 0.000856904 0)
(7.36042 0.000532652 0)
(7.36258 0.000171634 0)
(7.36484 -0.000233336 0)
(7.36721 -0.000691367 0)
(7.36972 -0.00121363 0)
(7.37237 -0.00181345 0)
(7.37517 -0.00250639 0)
(7.37813 -0.0033102 0)
(7.38127 -0.00424474 0)
(7.38458 -0.00533177 0)
(7.38808 -0.00659477 0)
(7.39176 -0.00805871 0)
(7.39561 -0.00974519 0)
(7.33302 0.000179261 0)
(7.33323 0.000522881 0)
(7.33367 0.000832412 0)
(7.33432 0.00109505 0)
(7.33513 0.00130386 0)
(7.33609 0.00145562 0)
(7.33718 0.00155044 0)
(7.33838 0.00159082 0)
(7.33967 0.00158069 0)
(7.34104 0.00152395 0)
(7.34248 0.00142473 0)
(7.34397 0.00128715 0)
(7.34552 0.00111446 0)
(7.34712 0.000909127 0)
(7.34876 0.000672737 0)
(7.35046 0.00040584 0)
(7.35221 0.000108204 0)
(7.35402 -0.000221608 0)
(7.35588 -0.000586237 0)
(7.35782 -0.000989592 0)
(7.35984 -0.00143696 0)
(7.36194 -0.00193515 0)
(7.36414 -0.00249259 0)
(7.36644 -0.00311935 0)
(7.36886 -0.00382733 0)
(7.37139 -0.00463017 0)
(7.37406 -0.0055433 0)
(7.37687 -0.00658384 0)
(7.37981 -0.00777046 0)
(7.3829 -0.00912314 0)
(7.38614 -0.0106629 0)
(7.38953 -0.0124118 0)
(7.39305 -0.0143876 0)
(7.33302 0.000106706 0)
(7.33322 0.000306918 0)
(7.33365 0.000478089 0)
(7.33427 0.000609043 0)
(7.33505 0.000694229 0)
(7.33598 0.00073147 0)
(7.33704 0.000721209 0)
(7.3382 0.000665714 0)
(7.33946 0.000567705 0)
(7.3408 0.000430514 0)
(7.34221 0.000256726 0)
(7.34368 4.80896e-05 0)
(7.3452 -0.00019395 0)
(7.34677 -0.000468669 0)
(7.34838 -0.000776221 0)
(7.35005 -0.00111777 0)
(7.35176 -0.00149521 0)
(7.35353 -0.00191154 0)
(7.35536 -0.00237091 0)
(7.35725 -0.00287862 0)
(7.35921 -0.00344123 0)
(7.36124 -0.00406664 0)
(7.36336 -0.00476413 0)
(7.36556 -0.00554443 0)
(7.36786 -0.0064197 0)
(7.37027 -0.00740354 0)
(7.37278 -0.00851088 0)
(7.3754 -0.00975789 0)
(7.37813 -0.0111618 0)
(7.38098 -0.0127407 0)
(7.38394 -0.0145131 0)
(7.38701 -0.0164981 0)
(7.39017 -0.0187102 0)
(7.33302 3.56563e-05 0)
(7.33321 9.7093e-05 0)
(7.33362 0.000136683 0)
(7.33421 0.000144929 0)
(7.33497 0.000117058 0)
(7.33587 5.0741e-05 0)
(7.3369 -5.44105e-05 0)
(7.33804 -0.000197299 0)
(7.33927 -0.000376532 0)
(7.34058 -0.000590142 0)
(7.34196 -0.000836915 0)
(7.3434 -0.00111651 0)
(7.3449 -0.00142887 0)
(7.34644 -0.00177466 0)
(7.34802 -0.0021554 0)
(7.34965 -0.00257333 0)
(7.35133 -0.00303182 0)
(7.35305 -0.00353509 0)
(7.35483 -0.00408839 0)
(7.35665 -0.00469805 0)
(7.35854 -0.0053715 0)
(7.36049 -0.00611738 0)
(7.36251 -0.00694547 0)
(7.3646 -0.00786676 0)
(7.36676 -0.00889336 0)
(7.36901 -0.0100385 0)
(7.37134 -0.0113163 0)
(7.37376 -0.0127418 0)
(7.37626 -0.0143307 0)
(7.37884 -0.016099 0)
(7.38151 -0.0180629 0)
(7.38424 -0.0202389 0)
(7.38705 -0.0226383 0)
(7.33302 -3.56711e-05 0)
(7.3332 -0.000118941 0)
(7.3336 -0.000225922 0)
(7.33418 -0.000364131 0)
(7.33491 -0.000534006 0)
(7.33579 -0.000733605 0)
(7.3368 -0.000960518 0)
(7.33791 -0.00121273 0)
(7.33912 -0.00148895 0)
(7.3404 -0.00178935 0)
(7.34175 -0.00211469 0)
(7.34316 -0.00246613 0)
(7.34462 -0.00284574 0)
(7.34613 -0.00325629 0)
(7.34768 -0.00370124 0)
(7.34927 -0.00418469 0)
(7.35089 -0.00471149 0)
(7.35256 -0.00528726 0)
(7.35427 -0.00591843 0)
(7.35603 -0.00661231 0)
(7.35783 -0.00737713 0)
(7.35968 -0.00822205 0)
(7.36158 -0.00915715 0)
(7.36354 -0.0101934 0)
(7.36556 -0.0113426 0)
(7.36764 -0.0126174 0)
(7.36977 -0.014031 0)
(7.37197 -0.015597 0)
(7.37422 -0.0173296 0)
(7.37652 -0.0192427 0)
(7.37888 -0.0213502 0)
(7.38128 -0.0236662 0)
(7.38371 -0.0261991 0)
(7.33301 -0.000101808 0)
(7.33318 -0.000304695 0)
(7.33355 -0.000515571 0)
(7.3341 -0.000745428 0)
(7.33481 -0.000999449 0)
(7.33567 -0.0012797 0)
(7.33666 -0.00158615 0)
(7.33776 -0.00191765 0)
(7.33895 -0.00227313 0)
(7.34022 -0.00265229 0)
(7.34156 -0.00305561 0)
(7.34295 -0.00348451 0)
(7.34438 -0.00394138 0)
(7.34586 -0.00442938 0)
(7.34737 -0.00495246 0)
(7.34891 -0.00551533 0)
(7.35049 -0.00612348 0)
(7.3521 -0.00678318 0)
(7.35374 -0.00750147 0)
(7.35541 -0.00828618 0)
(7.35711 -0.00914591 0)
(7.35886 -0.01009 0)
(7.36063 -0.0111287 0)
(7.36245 -0.0122725 0)
(7.3643 -0.013533 0)
(7.36619 -0.0149219 0)
(7.36812 -0.0164515 0)
(7.37008 -0.0181341 0)
(7.37207 -0.0199822 0)
(7.37409 -0.022008 0)
(7.37613 -0.0242235 0)
(7.37818 -0.0266402 0)
(7.38024 -0.0292647 0)
(7.33302 -0.000182165 0)
(7.33321 -0.000572011 0)
(7.33359 -0.000996153 0)
(7.33413 -0.00144819 0)
(7.33483 -0.00191293 0)
(7.33566 -0.00237921 0)
(7.33663 -0.00284194 0)
(7.3377 -0.00330043 0)
(7.33886 -0.00375692 0)
(7.3401 -0.0042156 0)
(7.3414 -0.0046817 0)
(7.34275 -0.00516104 0)
(7.34415 -0.00565974 0)
(7.34559 -0.00618419 0)
(7.34705 -0.00674101 0)
(7.34854 -0.00733707 0)
(7.35006 -0.00797952 0)
(7.3516 -0.00867593 0)
(7.35316 -0.00943425 0)
(7.35474 -0.0102629 0)
(7.35634 -0.0111709 0)
(7.35796 -0.0121675 0)
(7.35961 -0.0132628 0)
(7.36127 -0.0144669 0)
(7.36295 -0.0157905 0)
(7.36464 -0.0172445 0)
(7.36635 -0.0188399 0)
(7.36808 -0.0205875 0)
(7.3698 -0.0224983 0)
(7.37153 -0.0245826 0)
(7.37326 -0.0268502 0)
(7.37497 -0.0293108 0)
(7.37666 -0.0319687 0)
(7.333 -0.000208005 0)
(7.33311 -0.000588595 0)
(7.33341 -0.000964801 0)
(7.33392 -0.00137218 0)
(7.3346 -0.00182156 0)
(7.33545 -0.00230949 0)
(7.33644 -0.00282737 0)
(7.33753 -0.00336678 0)
(7.33872 -0.00392192 0)
(7.33997 -0.00449006 0)
(7.34128 -0.00507101 0)
(7.34263 -0.00566665 0)
(7.34402 -0.00628052 0)
(7.34543 -0.00691741 0)
(7.34685 -0.00758309 0)
(7.3483 -0.00828407 0)
(7.34976 -0.00902757 0)
(7.35122 -0.00982131 0)
(7.3527 -0.0106736 0)
(7.35418 -0.011593 0)
(7.35567 -0.0125888 0)
(7.35716 -0.0136704 0)
(7.35866 -0.0148476 0)
(7.36015 -0.0161305 0)
(7.36165 -0.017529 0)
(7.36314 -0.0190535 0)
(7.36463 -0.020714 0)
(7.3661 -0.0225204 0)
(7.36756 -0.0244821 0)
(7.36899 -0.0266082 0)
(7.3704 -0.0289071 0)
(7.37177 -0.0313868 0)
(7.3731 -0.0340501 0)
(7.33305 -0.000391955 0)
(7.3333 -0.00124867 0)
(7.33368 -0.00216117 0)
(7.33418 -0.00306241 0)
(7.33481 -0.0039034 0)
(7.33558 -0.0046698 0)
(7.33649 -0.00536656 0)
(7.33751 -0.0060056 0)
(7.33864 -0.00660111 0)
(7.33983 -0.00716763 0)
(7.34109 -0.007719 0)
(7.3424 -0.00826794 0)
(7.34374 -0.00882596 0)
(7.3451 -0.00940357 0)
(7.34648 -0.0100105 0)
(7.34787 -0.0106558 0)
(7.34927 -0.0113483 0)
(7.35066 -0.0120965 0)
(7.35206 -0.0129091 0)
(7.35345 -0.0137945 0)
(7.35483 -0.0147614 0)
(7.3562 -0.0158186 0)
(7.35755 -0.016975 0)
(7.35889 -0.0182393 0)
(7.36021 -0.0196205 0)
(7.3615 -0.0211273 0)
(7.36277 -0.0227684 0)
(7.364 -0.024552 0)
(7.3652 -0.0264858 0)
(7.36635 -0.0285772 0)
(7.36746 -0.0308328 0)
(7.3685 -0.0332587 0)
(7.36948 -0.0358564 0)
(7.33293 -0.00012804 0)
(7.33283 -0.000306478 0)
(7.333 -0.000553218 0)
(7.33348 -0.000993045 0)
(7.33423 -0.00161483 0)
(7.33516 -0.00235814 0)
(7.33623 -0.00316853 0)
(7.33739 -0.00400887 0)
(7.33863 -0.00485653 0)
(7.3399 -0.00569932 0)
(7.34122 -0.00653258 0)
(7.34255 -0.00735694 0)
(7.34389 -0.00817659 0)
(7.34523 -0.00899794 0)
(7.34657 -0.00982881 0)
(7.34791 -0.0106779 0)
(7.34923 -0.0115544 0)
(7.35054 -0.0124677 0)
(7.35183 -0.0134275 0)
(7.3531 -0.0144433 0)
(7.35435 -0.0155249 0)
(7.35557 -0.0166819 0)
(7.35676 -0.0179236 0)
(7.35792 -0.0192594 0)
(7.35904 -0.0206984 0)
(7.36012 -0.0222493 0)
(7.36116 -0.0239203 0)
(7.36214 -0.0257194 0)
(7.36307 -0.0276538 0)
(7.36393 -0.02973 0)
(7.36473 -0.031954 0)
(7.36545 -0.0343311 0)
(7.36609 -0.0368622 0)
(7.33316 -0.00084428 0)
(7.33362 -0.0028247 0)
(7.33394 -0.00476913 0)
(7.33423 -0.00640965 0)
(7.33465 -0.00770772 0)
(7.33528 -0.00872876 0)
(7.3361 -0.00954386 0)
(7.33707 -0.0102119 0)
(7.33817 -0.0107806 0)
(7.33935 -0.0112882 0)
(7.34059 -0.0117641 0)
(7.34188 -0.0122312 0)
(7.34319 -0.0127072 0)
(7.34451 -0.0132061 0)
(7.34582 -0.0137392 0)
(7.34713 -0.0143162 0)
(7.34842 -0.0149456 0)
(7.34968 -0.0156352 0)
(7.35092 -0.0163923 0)
(7.35212 -0.017224 0)
(7.35328 -0.0181372 0)
(7.3544 -0.0191389 0)
(7.35547 -0.0202357 0)
(7.35649 -0.0214346 0)
(7.35746 -0.0227418 0)
(7.35837 -0.0241639 0)
(7.35921 -0.0257068 0)
(7.35998 -0.0273761 0)
(7.36067 -0.0291771 0)
(7.36129 -0.0311143 0)
(7.36182 -0.0331917 0)
(7.36225 -0.035413 0)
(7.36258 -0.0377778 0)
(7.33266 0.000546391 0)
(7.33187 0.00182855 0)
(7.33192 0.00249906 0)
(7.33267 0.00221771 0)
(7.33375 0.00127689 0)
(7.33497 4.02779e-06 0)
(7.33626 -0.00140222 0)
(7.33759 -0.00283767 0)
(7.33893 -0.00424485 0)
(7.34026 -0.00559371 0)
(7.34158 -0.00687355 0)
(7.34288 -0.00808567 0)
(7.34416 -0.00923793 0)
(7.34542 -0.0103417 0)
(7.34665 -0.0114099 0)
(7.34784 -0.0124562 0)
(7.34901 -0.013494 0)
(7.35013 -0.0145364 0)
(7.35122 -0.0155959 0)
(7.35226 -0.0166843 0)
(7.35325 -0.0178129 0)
(7.35419 -0.0189923 0)
(7.35507 -0.0202323 0)
(7.35589 -0.0215422 0)
(7.35664 -0.0229308 0)
(7.35733 -0.0244059 0)
(7.35793 -0.0259751 0)
(7.35845 -0.0276449 0)
(7.35889 -0.0294213 0)
(7.35923 -0.0313094 0)
(7.35947 -0.0333137 0)
(7.35961 -0.035438 0)
(7.35964 -0.0376825 0)
(7.33353 -0.00200103 0)
(7.33444 -0.00678531 0)
(7.33406 -0.0112519 0)
(7.33335 -0.0140514 0)
(7.33314 -0.0156572 0)
(7.33348 -0.0165793 0)
(7.33421 -0.017077 0)
(7.3352 -0.0173229 0)
(7.33636 -0.0174364 0)
(7.33764 -0.0174955 0)
(7.33899 -0.0175498 0)
(7.34036 -0.0176307 0)
(7.34174 -0.0177575 0)
(7.34311 -0.0179423 0)
(7.34445 -0.0181928 0)
(7.34574 -0.0185141 0)
(7.347 -0.0189097 0)
(7.3482 -0.0193826 0)
(7.34934 -0.0199356 0)
(7.35042 -0.0205713 0)
(7.35142 -0.0212927 0)
(7.35236 -0.0221028 0)
(7.35322 -0.0230048 0)
(7.354 -0.024002 0)
(7.35469 -0.0250976 0)
(7.35529 -0.026295 0)
(7.3558 -0.0275974 0)
(7.35621 -0.0290075 0)
(7.35651 -0.030528 0)
(7.3567 -0.0321613 0)
(7.35678 -0.033909 0)
(7.35673 -0.035773 0)
(7.35657 -0.0377515 0)
(7.33179 0.00340897 0)
(7.329 0.00924911 0)
(7.32948 0.0119045 0)
(7.33185 0.0116372 0)
(7.33398 0.00956578 0)
(7.33578 0.00688454 0)
(7.33739 0.00409354 0)
(7.33886 0.00138079 0)
(7.34021 -0.00115394 0)
(7.34148 -0.00347016 0)
(7.34269 -0.00556691 0)
(7.34385 -0.00746142 0)
(7.34497 -0.0091783 0)
(7.34607 -0.0107447 0)
(7.34713 -0.0121877 0)
(7.34816 -0.0135326 0)
(7.34915 -0.0148027 0)
(7.35011 -0.016019 0)
(7.35103 -0.0172003 0)
(7.35189 -0.0183632 0)
(7.3527 -0.0195226 0)
(7.35345 -0.020692 0)
(7.35414 -0.021883 0)
(7.35474 -0.0231065 0)
(7.35527 -0.0243717 0)
(7.35571 -0.0256872 0)
(7.35606 -0.0270604 0)
(7.3563 -0.0284979 0)
(7.35645 -0.0300054 0)
(7.35648 -0.0315876 0)
(7.35639 -0.0332489 0)
(7.35618 -0.0349925 0)
(7.35584 -0.036819 0)
(7.33408 -0.0061138 0)
(7.33407 -0.018921 0)
(7.33032 -0.0269389 0)
(7.32667 -0.0304327 0)
(7.32511 -0.0311973 0)
(7.32536 -0.0307621 0)
(7.32645 -0.0297999 0)
(7.32798 -0.028637 0)
(7.32978 -0.0274716 0)
(7.33173 -0.0264084 0)
(7.33375 -0.0254932 0)
(7.33578 -0.0247423 0)
(7.3378 -0.0241565 0)
(7.33977 -0.0237291 0)
(7.34168 -0.02345 0)
(7.34353 -0.0233081 0)
(7.3453 -0.023293 0)
(7.34699 -0.0233957 0)
(7.34859 -0.0236083 0)
(7.35009 -0.0239246 0)
(7.35151 -0.0243397 0)
(7.35281 -0.0248499 0)
(7.35402 -0.0254524 0)
(7.35511 -0.0261455 0)
(7.35608 -0.026928 0)
(7.35694 -0.0277991 0)
(7.35767 -0.0287586 0)
(7.35827 -0.0298063 0)
(7.35874 -0.0309422 0)
(7.35907 -0.0321663 0)
(7.35926 -0.0334784 0)
(7.35931 -0.0348787 0)
(7.35921 -0.0363645 0)
(7.32967 0.019865 0)
(7.32498 0.0370182 0)
(7.32933 0.0377095 0)
(7.33515 0.0323112 0)
(7.33883 0.0259007 0)
(7.34106 0.0195967 0)
(7.34291 0.0137036 0)
(7.34469 0.00842056 0)
(7.34648 0.00379212 0)
(7.34834 -0.000229502 0)
(7.35029 -0.00371489 0)
(7.35233 -0.00673702 0)
(7.35443 -0.00936638 0)
(7.35657 -0.0116671 0)
(7.35874 -0.0136956 0)
(7.36091 -0.0155001 0)
(7.36306 -0.0171222 0)
(7.36518 -0.0185971 0)
(7.36724 -0.019955 0)
(7.36924 -0.0212215 0)
(7.37116 -0.0224186 0)
(7.37299 -0.0235651 0)
(7.37473 -0.0246772 0)
(7.37635 -0.025769 0)
(7.37786 -0.0268527 0)
(7.37925 -0.0279389 0)
(7.38052 -0.0290367 0)
(7.38165 -0.0301543 0)
(7.38265 -0.0312985 0)
(7.38351 -0.0324755 0)
(7.38423 -0.0336905 0)
(7.3848 -0.0349481 0)
(7.38522 -0.036251 0)
(7.32507 -0.0330741 0)
(7.29738 -0.0587489 0)
(7.2781 -0.0616692 0)
(7.2738 -0.0592872 0)
(7.28042 -0.0557801 0)
(7.29189 -0.0517398 0)
(7.30518 -0.0478092 0)
(7.31896 -0.0443194 0)
(7.33246 -0.04132 0)
(7.34529 -0.0387939 0)
(7.35726 -0.0367049 0)
(7.36834 -0.0350028 0)
(7.37852 -0.0336351 0)
(7.38785 -0.0325542 0)
(7.39638 -0.0317185 0)
(7.40418 -0.0310928 0)
(7.41129 -0.0306476 0)
(7.41778 -0.0303589 0)
(7.42369 -0.0302072 0)
(7.42907 -0.0301769 0)
(7.43397 -0.0302554 0)
(7.43843 -0.0304329 0)
(7.44246 -0.0307015 0)
(7.44612 -0.0310552 0)
(7.44942 -0.0314893 0)
(7.45238 -0.0320001 0)
(7.45504 -0.0325848 0)
(7.4574 -0.0332411 0)
(7.45949 -0.0339673 0)
(7.46132 -0.0347619 0)
(7.4629 -0.0356239 0)
(7.46424 -0.0365518 0)
(7.46536 -0.0375437 0)
(7.33915 0.134726 0)
(7.37621 0.127075 0)
(7.39344 0.0872085 0)
(7.38981 0.0533261 0)
(7.37498 0.0283324 0)
(7.35416 0.010597 0)
(7.32987 -0.00194352 0)
(7.30387 -0.0109229 0)
(7.27719 -0.017433 0)
(7.25035 -0.0222043 0)