/*--------------------------------*- C++ -*----------------------------------*\
  =========                 |
  \\      /  F ield         | OpenFOAM: The Open Source CFD Toolbox
   \\    /   O peration     | Website:  https://openfoam.org
    \\  /    A nd           | Version:  10
     \\/     M anipulation  |
\*---------------------------------------------------------------------------*/
FoamFile
{
    format      ascii;
    class       volScalarField;
    location    "0.11";
    object      p;
}
// * * * * * * * * * * * * * * * * * * * * * * * * * * * * * * * * * * * * * //

dimensions      [0 2 -2 0 0 0 0];

internalField   nonuniform List<scalar> 
6820
(
-10.3394
-10.6412
-10.6852
-10.6979
-10.7261
-10.746
-10.758
-10.7664
-10.7717
-10.7735
-10.7723
-10.768
-10.7606
-10.75
-10.7361
-10.7188
-10.6978
-10.673
-10.6442
-10.6113
-10.5743
-10.533
-10.4879
-10.4391
-10.3875
-10.3342
-10.2808
-10.2295
-10.1834
-10.1455
-10.1231
-10.1085
-10.1532
-10.5412
-10.6656
-10.7002
-10.713
-10.7355
-10.7524
-10.763
-10.7705
-10.7752
-10.7769
-10.7757
-10.7716
-10.7646
-10.7545
-10.7413
-10.7248
-10.7049
-10.6813
-10.6539
-10.6227
-10.5875
-10.5484
-10.5056
-10.4594
-10.4105
-10.36
-10.3092
-10.2604
-10.2162
-10.1804
-10.1575
-10.1553
-10.1806
-10.5414
-10.6261
-10.6827
-10.7066
-10.7313
-10.7511
-10.7641
-10.7734
-10.7795
-10.7824
-10.7822
-10.7792
-10.7734
-10.7646
-10.7528
-10.738
-10.7201
-10.699
-10.6747
-10.6472
-10.6166
-10.5831
-10.5471
-10.509
-10.4698
-10.4305
-10.3927
-10.3583
-10.3303
-10.3115
-10.3081
-10.3236
-10.3808
-10.5987
-10.6679
-10.7141
-10.7318
-10.7501
-10.7659
-10.7764
-10.7836
-10.7883
-10.7901
-10.7893
-10.7859
-10.7799
-10.7711
-10.7597
-10.7454
-10.7283
-10.7083
-10.6855
-10.6598
-10.6314
-10.6006
-10.5678
-10.5336
-10.499
-10.4651
-10.4335
-10.4063
-10.3862
-10.3762
-10.3815
-10.4059
-10.4631
-10.6294
-10.6676
-10.7049
-10.7254
-10.745
-10.7623
-10.7745
-10.7833
-10.7893
-10.7925
-10.793
-10.7908
-10.786
-10.7787
-10.7687
-10.7561
-10.7409
-10.723
-10.7026
-10.6798
-10.6547
-10.6278
-10.5995
-10.5706
-10.5418
-10.5144
-10.4898
-10.4701
-10.4576
-10.4548
-10.466
-10.4937
-10.5467
-10.6602
-10.6903
-10.7261
-10.747
-10.7642
-10.779
-10.7897
-10.7971
-10.8021
-10.8045
-10.8044
-10.8019
-10.7971
-10.79
-10.7805
-10.7686
-10.7544
-10.738
-10.7193
-10.6986
-10.6761
-10.6523
-10.6275
-10.6025
-10.5781
-10.5556
-10.5363
-10.5218
-10.5143
-10.5159
-10.5295
-10.5571
-10.603
-10.6863
-10.7057
-10.7327
-10.7505
-10.7655
-10.7795
-10.7902
-10.7982
-10.8038
-10.8071
-10.8081
-10.8068
-10.8033
-10.7975
-10.7896
-10.7795
-10.7672
-10.753
-10.7369
-10.719
-10.6998
-10.6796
-10.659
-10.6385
-10.6191
-10.6018
-10.5879
-10.5787
-10.576
-10.5813
-10.5967
-10.623
-10.662
-10.7098
-10.7239
-10.7474
-10.7654
-10.7803
-10.7936
-10.804
-10.8117
-10.817
-10.8202
-10.8211
-10.8199
-10.8167
-10.8115
-10.8044
-10.7953
-10.7843
-10.7717
-10.7575
-10.742
-10.7254
-10.7082
-10.691
-10.6743
-10.6589
-10.6458
-10.636
-10.6307
-10.6313
-10.6387
-10.6542
-10.6781
-10.7106
-10.7314
-10.7414
-10.7601
-10.7754
-10.7882
-10.7999
-10.8094
-10.8168
-10.8222
-10.8256
-10.8272
-10.8269
-10.8247
-10.8208
-10.815
-10.8076
-10.7987
-10.7882
-10.7765
-10.7637
-10.7503
-10.7365
-10.723
-10.7103
-10.699
-10.6901
-10.6844
-10.6829
-10.6864
-10.6956
-10.7112
-10.733
-10.7603
-10.7514
-10.7588
-10.7742
-10.7884
-10.8007
-10.812
-10.8215
-10.8289
-10.8345
-10.8383
-10.8404
-10.8406
-10.8392
-10.8362
-10.8315
-10.8254
-10.818
-10.8093
-10.7997
-10.7893
-10.7785
-10.7677
-10.7573
-10.7479
-10.7402
-10.7347
-10.7323
-10.7335
-10.7392
-10.7495
-10.7647
-10.7844
-10.8076
-10.7703
-10.7759
-10.7885
-10.8009
-10.8118
-10.8219
-10.8306
-10.8376
-10.8431
-10.8471
-10.8495
-10.8504
-10.8498
-10.8479
-10.8446
-10.8401
-10.8345
-10.828
-10.8207
-10.813
-10.8051
-10.7973
-10.7903
-10.7843
-10.78
-10.778
-10.7787
-10.7827
-10.7904
-10.8019
-10.8172
-10.8356
-10.8561
-10.7884
-10.7927
-10.8031
-10.8141
-10.8242
-10.8338
-10.8423
-10.8495
-10.8553
-10.8597
-10.8628
-10.8645
-10.865
-10.8642
-10.8622
-10.8592
-10.8553
-10.8507
-10.8456
-10.8402
-10.8349
-10.8299
-10.8258
-10.8228
-10.8216
-10.8224
-10.8258
-10.8321
-10.8414
-10.8539
-10.8693
-10.8869
-10.9057
-10.8058
-10.8093
-10.8179
-10.8276
-10.8368
-10.8456
-10.8536
-10.8606
-10.8664
-10.871
-10.8745
-10.8769
-10.8782
-10.8784
-10.8778
-10.8764
-10.8743
-10.8716
-10.8688
-10.8658
-10.8631
-10.861
-10.8597
-10.8598
-10.8615
-10.8651
-10.8711
-10.8797
-10.8908
-10.9046
-10.9205
-10.9382
-10.9566
-10.8227
-10.8255
-10.8328
-10.8414
-10.8499
-10.8582
-10.866
-10.873
-10.8791
-10.8843
-10.8885
-10.8917
-10.8941
-10.8956
-10.8964
-10.8965
-10.8962
-10.8955
-10.8948
-10.8942
-10.8939
-10.8944
-10.8958
-10.8985
-10.9029
-10.9091
-10.9174
-10.928
-10.9408
-10.9558
-10.9727
-10.9908
-11.0097
-10.8392
-10.8415
-10.8478
-10.8555
-10.8633
-10.8711
-10.8787
-10.8856
-10.8919
-10.8974
-10.9021
-10.9061
-10.9094
-10.912
-10.9141
-10.9158
-10.9172
-10.9184
-10.9198
-10.9214
-10.9236
-10.9266
-10.9306
-10.936
-10.9429
-10.9516
-10.9622
-10.9749
-10.9895
-11.0061
-11.0243
-11.0436
-11.0637
-10.8553
-10.8574
-10.8628
-10.8697
-10.8771
-10.8846
-10.892
-10.899
-10.9056
-10.9116
-10.917
-10.9219
-10.9262
-10.9301
-10.9336
-10.9369
-10.9401
-10.9433
-10.9467
-10.9505
-10.955
-10.9604
-10.9668
-10.9746
-10.9839
-10.9949
-11.0078
-11.0224
-11.0389
-11.0572
-11.0769
-11.0978
-11.1196
-10.8712
-10.873
-10.8779
-10.8842
-10.8911
-10.8983
-10.9056
-10.9128
-10.9196
-10.9261
-10.9321
-10.9378
-10.9431
-10.9482
-10.9531
-10.9578
-10.9627
-10.9677
-10.9731
-10.979
-10.9857
-10.9934
-11.0022
-11.0123
-11.0239
-11.0372
-11.0521
-11.0689
-11.0873
-11.1074
-11.129
-11.1518
-11.1757
-10.8869
-10.8885
-10.8929
-10.8988
-10.9054
-10.9124
-10.9197
-10.927
-10.9342
-10.9412
-10.948
-10.9546
-10.961
-10.9672
-10.9735
-10.9798
-10.9863
-10.9932
-11.0006
-11.0086
-11.0174
-11.0272
-11.0382
-11.0506
-11.0644
-11.0798
-11.0969
-11.1156
-11.136
-11.158
-11.1816
-11.2065
-11.2326
-10.9023
-10.9038
-10.9079
-10.9135
-10.9198
-10.9268
-10.9341
-10.9416
-10.9492
-10.9567
-10.9642
-10.9717
-10.9791
-10.9865
-10.9941
-11.0019
-11.0101
-11.0187
-11.0278
-11.0378
-11.0486
-11.0606
-11.0737
-11.0882
-11.1041
-11.1216
-11.1407
-11.1614
-11.1838
-11.2078
-11.2334
-11.2604
-11.289
-10.9176
-10.919
-10.9229
-10.9282
-10.9344
-10.9413
-10.9488
-10.9566
-10.9646
-10.9727
-10.9809
-10.9892
-10.9977
-11.0064
-11.0153
-11.0246
-11.0343
-11.0446
-11.0556
-11.0674
-11.0802
-11.0941
-11.1093
-11.1258
-11.1437
-11.1632
-11.1842
-11.2069
-11.2313
-11.2572
-11.2848
-11.3141
-11.345
-10.9327
-10.934
-10.9377
-10.9429
-10.9491
-10.9561
-10.9637
-10.9718
-10.9802
-10.9889
-10.9979
-11.0072
-11.0167
-11.0265
-11.0367
-11.0474
-11.0587
-11.0706
-11.0833
-11.0969
-11.1115
-11.1273
-11.1443
-11.1627
-11.1826
-11.2039
-11.2269
-11.2514
-11.2776
-11.3055
-11.3351
-11.3664
-11.3995
-10.9476
-10.9489
-10.9525
-10.9576
-10.9638
-10.9709
-10.9787
-10.9872
-10.9961
-11.0054
-11.0152
-11.0253
-11.0358
-11.0468
-11.0583
-11.0704
-11.0831
-11.0966
-11.1109
-11.1263
-11.1426
-11.1602
-11.179
-11.1992
-11.2208
-11.244
-11.2687
-11.295
-11.323
-11.3527
-11.3841
-11.4173
-11.4524
-10.9622
-10.9635
-10.9671
-10.9722
-10.9785
-10.9857
-10.9938
-11.0027
-11.0121
-11.0221
-11.0326
-11.0437
-11.0552
-11.0673
-11.08
-11.0934
-11.1076
-11.1226
-11.1385
-11.1554
-11.1734
-11.1927
-11.2132
-11.235
-11.2583
-11.2831
-11.3095
-11.3374
-11.3671
-11.3984
-11.4314
-11.4663
-11.5031
-10.9766
-10.9779
-10.9815
-10.9867
-10.993
-11.0005
-11.0089
-11.0182
-11.0282
-11.0388
-11.0501
-11.062
-11.0745
-11.0877
-11.1016
-11.1163
-11.1318
-11.1482
-11.1655
-11.184
-11.2035
-11.2243
-11.2464
-11.2698
-11.2946
-11.3209
-11.3488
-11.3782
-11.4093
-11.4421
-11.4765
-11.5128
-11.551
-10.9906
-10.9919
-10.9956
-11.0009
-11.0075
-11.0152
-11.024
-11.0337
-11.0443
-11.0556
-11.0676
-11.0804
-11.094
-11.1082
-11.1233
-11.1392
-11.156
-11.1737
-11.1925
-11.2123
-11.2333
-11.2555
-11.279
-11.3039
-11.3301
-11.3578
-11.387
-11.4177
-11.4501
-11.484
-11.5197
-11.5571
-11.5964
-11.0043
-11.0056
-11.0094
-11.0148
-11.0216
-11.0296
-11.0388
-11.049
-11.0601
-11.0721
-11.0849
-11.0985
-11.1129
-11.1282
-11.1443
-11.1614
-11.1793
-11.1983
-11.2183
-11.2395
-11.2618
-11.2853
-11.3101
-11.3362
-11.3637
-11.3926
-11.423
-11.4549
-11.4883
-11.5232
-11.5598
-11.5981
-11.6381
-11.0174
-11.0188
-11.0227
-11.0284
-11.0354
-11.0438
-11.0534
-11.0641
-11.0759
-11.0885
-11.1021
-11.1166
-11.132
-11.1483
-11.1655
-11.1836
-11.2028
-11.2229
-11.2442
-11.2665
-11.29
-11.3147
-11.3407
-11.3679
-11.3965
-11.4265
-11.4578
-11.4906
-11.5249
-11.5606
-11.5979
-11.6367
-11.6771
-11.0301
-11.0315
-11.0355
-11.0414
-11.0487
-11.0574
-11.0674
-11.0786
-11.0909
-11.1042
-11.1185
-11.1338
-11.15
-11.1672
-11.1853
-11.2045
-11.2246
-11.2459
-11.2682
-11.2916
-11.3162
-11.342
-11.369
-11.3972
-11.4268
-11.4576
-11.4898
-11.5233
-11.5583
-11.5946
-11.6323
-11.6714
-11.712
-11.042
-11.0435
-11.0478
-11.0539
-11.0616
-11.0708
-11.0814
-11.0932
-11.1061
-11.1202
-11.1353
-11.1514
-11.1685
-11.1865
-11.2056
-11.2258
-11.2469
-11.2691
-11.2924
-11.3168
-11.3424
-11.3691
-11.397
-11.4261
-11.4564
-11.4879
-11.5207
-11.5548
-11.5901
-11.6267
-11.6646
-11.7037
-11.7442
-11.0531
-11.0547
-11.0591
-11.0655
-11.0735
-11.083
-11.094
-11.1062
-11.1197
-11.1343
-11.1501
-11.1669
-11.1847
-11.2036
-11.2236
-11.2445
-11.2666
-11.2897
-11.3139
-11.3392
-11.3656
-11.3932
-11.4219
-11.4517
-11.4827
-11.5148
-11.5481
-11.5826
-11.6182
-11.655
-11.6929
-11.7319
-11.7721
-11.0633
-11.0651
-11.0699
-11.0768
-11.0853
-11.0955
-11.1071
-11.12
-11.1342
-11.1496
-11.166
-11.1836
-11.2022
-11.2219
-11.2426
-11.2644
-11.2872
-11.3111
-11.3361
-11.3621
-11.3892
-11.4174
-11.4467
-11.477
-11.5084
-11.541
-11.5745
-11.6091
-11.6448
-11.6815
-11.7191
-11.7577
-11.7974
-11.0723
-11.0741
-11.079
-11.086
-11.0948
-11.1053
-11.1173
-11.1307
-11.1454
-11.1613
-11.1784
-11.1966
-11.216
-11.2364
-11.2579
-11.2805
-11.3041
-11.3288
-11.3545
-11.3813
-11.4091
-11.4379
-11.4678
-11.4987
-11.5305
-11.5634
-11.5972
-11.632
-11.6677
-11.7042
-11.7416
-11.7797
-11.8187
-11.0802
-11.0824
-11.0881
-11.096
-11.1057
-11.1169
-11.1297
-11.1438
-11.1591
-11.1757
-11.1934
-11.2122
-11.2322
-11.2532
-11.2752
-11.2984
-11.3225
-11.3477
-11.3739
-11.4011
-11.4293
-11.4585
-11.4887
-11.5198
-11.5518
-11.5847
-11.6185
-11.6531
-11.6886
-11.7247
-11.7616
-11.7991
-11.8373
-11.0858
-11.0876
-11.0932
-11.1013
-11.1112
-11.1229
-11.1361
-11.1508
-11.1668
-11.184
-11.2025
-11.2221
-11.2428
-11.2645
-11.2874
-11.3113
-11.3362
-11.3621
-11.389
-11.4168
-11.4456
-11.4754
-11.506
-11.5375
-11.5698
-11.6029
-11.6368
-11.6714
-11.7066
-11.7424
-11.7788
-11.8157
-11.8531
-11.0911
-11.0943
-11.1017
-11.1111
-11.1219
-11.1343
-11.1482
-11.1633
-11.1797
-11.1973
-11.2161
-11.2359
-11.2569
-11.2789
-11.302
-11.3261
-11.3513
-11.3774
-11.4045
-11.4325
-11.4614
-11.4912
-11.5219
-11.5534
-11.5856
-11.6186
-11.6522
-11.6865
-11.7214
-11.7568
-11.7926
-11.8288
-11.8654
-11.0898
-11.0919
-11.0992
-11.1093
-11.1214
-11.1348
-11.1496
-11.1658
-11.1833
-11.2019
-11.2217
-11.2425
-11.2644
-11.2873
-11.3112
-11.3362
-11.3621
-11.3889
-11.4166
-11.4452
-11.4747
-11.505
-11.536
-11.5678
-11.6002
-11.6333
-11.6669
-11.7009
-11.7355
-11.7704
-11.8056
-11.841
-11.8767
-11.0941
-11.1004
-11.1105
-11.1211
-11.1327
-11.1463
-11.1612
-11.1769
-11.1941
-11.2126
-11.2322
-11.2528
-11.2746
-11.2973
-11.3212
-11.346
-11.3718
-11.3986
-11.4262
-11.4548
-11.4841
-11.5143
-11.5452
-11.5769
-11.6092
-11.6421
-11.6755
-11.7094
-11.7438
-11.7784
-11.8132
-11.8482
-11.8833
-11.0759
-11.0812
-11.095
-11.1093
-11.1242
-11.1406
-11.1579
-11.1763
-11.1952
-11.2151
-11.2359
-11.2578
-11.2806
-11.3043
-11.329
-11.3546
-11.3812
-11.4086
-11.4369
-11.4659
-11.4957
-11.5262
-11.5574
-11.5892
-11.6215
-11.6542
-11.6874
-11.7208
-11.7545
-11.7884
-11.8225
-11.8567
-11.8909
-11.0897
-11.1004
-11.1127
-11.1237
-11.1367
-11.1511
-11.1664
-11.183
-11.2007
-11.2197
-11.2397
-11.2609
-11.2831
-11.3066
-11.3309
-11.3562
-11.3824
-11.4096
-11.4377
-11.4665
-11.4962
-11.5266
-11.5577
-11.5895
-11.6219
-11.6549
-11.6885
-11.7227
-11.7569
-11.791
-11.8251
-11.8593
-11.8933
-10.994
-11.0617
-11.0894
-11.1056
-11.1258
-11.1458
-11.1646
-11.1839
-11.2038
-11.2243
-11.2457
-11.268
-11.2912
-11.3153
-11.3403
-11.3662
-11.393
-11.4206
-11.4489
-11.4781
-11.5079
-11.5383
-11.5693
-11.6008
-11.6327
-11.6649
-11.6972
-11.7297
-11.7626
-11.796
-11.8295
-11.863
-11.8965
-10.114
-10.7764
-11.1465
-11.4504
-11.918
-12.3507
-11.2684
-8.88788
-7.25421
-6.52077
-5.60224
-4.75034
-5.00571
-6.66275
-9.4632
-13.2888
-17.9215
-23.1153
-28.5747
-33.9451
-38.811
-42.6933
-45.1181
-45.7436
-44.4478
-41.4401
-37.2156
-32.3745
-27.3964
-22.4597
-17.5303
-12.6201
-7.99059
-4.03647
-1.06103
0.803603
1.46011
0.775842
-1.43446
-5.5561
-11.7075
-19.3788
-27.6173
-35.4257
-41.9716
-46.6496
-49.0937
-49.1168
-46.6419
-41.9028
-35.4891
-28.3893
-21.6648
-16.0102
-11.592
-8.25509
-5.77357
-3.95248
-2.63269
-1.68539
-1.01178
-0.538721
-0.212259
0.00760343
0.150736
0.239399
0.29001
0.314502
0.321423
0.3168
0.304844
0.288412
0.269385
0.249027
0.228116
0.207133
0.18647
0.166644
0.148105
0.13119
0.116017
0.102537
0.0905961
0.0799842
0.070505
0.0619656
0.0541399
0.0469361
0.0402644
0.0340688
0.0283477
0.0231622
0.0185367
0.0146195
0.0111723
0.00869888
0.00593875
0.00527306
0.00157258
0.00442198
-10.364
-10.9223
-11.2025
-11.3387
-11.5534
-11.6957
-10.9151
-9.18273
-7.75337
-6.46009
-4.90467
-4.08321
-4.8633
-6.73573
-9.42908
-13.0441
-17.4214
-22.3149
-27.4284
-32.4244
-36.9206
-40.4901
-42.7141
-43.3023
-42.1452
-39.4457
-35.6547
-31.2696
-26.6415
-21.9149
-17.135
-12.4312
-8.09415
-4.44148
-1.69861
0.0168702
0.610106
-0.047942
-2.11293
-5.80375
-11.232
-18.0539
-25.5206
-32.7284
-38.855
-43.2699
-45.574
-45.5648
-43.2182
-38.831
-33.0418
-26.7447
-20.7852
-15.6842
-11.5887
-8.41627
-6.01106
-4.21786
-2.89864
-1.93728
-1.24273
-0.746246
-0.396219
-0.153823
0.0102296
0.117932
0.185613
0.225223
0.24539
0.252262
0.250192
0.242196
0.230307
0.21595
0.200093
0.183396
0.166402
0.149711
0.133837
0.119167
0.105874
0.093971
0.0833573
0.0738757
0.0653701
0.0576868
0.0506235
0.0440889
0.0380053
0.0323244
0.0270423
0.0222247
0.0178769
0.014172
0.0108355
0.00847179
0.00569245
0.00514253
0.0013026
0.00441939
-10.4932
-10.8025
-11.0267
-11.1882
-11.3763
-11.4423
-10.7148
-9.08932
-7.62153
-6.51042
-5.48761
-4.89231
-5.20924
-6.80506
-9.5681
-13.0801
-17.1447
-21.6506
-26.3645
-30.9655
-35.0875
-38.3455
-40.3665
-40.9106
-39.8969
-37.5208
-34.157
-30.1758
-25.8372
-21.299
-16.7025
-12.2616
-8.2435
-4.88554
-2.36079
-0.781675
-0.248598
-0.8743
-2.79618
-6.13393
-10.9392
-16.9543
-23.599
-30.1126
-35.7273
-39.8115
-41.9457
-41.9347
-39.7998
-35.8746
-30.781
-25.2725
-20.0051
-15.389
-11.5816
-8.56483
-6.23707
-4.47521
-3.15994
-2.1873
-1.47387
-0.955332
-0.582555
-0.318032
-0.133186
-0.00639119
0.0785201
0.133465
0.16712
0.185729
0.193773
0.194431
0.189907
0.181773
0.171175
0.158943
0.145758
0.132302
0.119162
0.106783
0.0954054
0.0851072
0.0758429
0.0674992
0.0599583
0.0530795
0.0467119
0.0407781
0.0352204
0.0300086
0.0251437
0.0207027
0.0166814
0.0132781
0.0101744
0.0080513
0.00538458
0.00505369
0.00115988
0.00457592
-10.5624
-10.7915
-10.9875
-11.095
-11.1336
-11.0042
-10.3862
-9.26494
-8.20678
-7.31092
-6.40007
-5.79534
-6.10587
-7.57515
-9.99976
-13.2443
-17.0732
-21.2187
-25.4824
-29.6281
-33.3423
-36.2785
-38.0993
-38.6124
-37.7681
-35.7206
-32.73
-29.0616
-24.9493
-20.607
-16.2576
-12.1318
-8.44011
-5.36022
-3.03848
-1.58683
-1.10946
-1.70338
-3.48684
-6.52415
-10.7979
-16.0843
-21.9218
-27.6943
-32.73
-36.4312
-38.3911
-38.4216
-36.5706
-33.1755
-28.7797
-23.9865
-19.3121
-15.1114
-11.564
-8.6981
-6.45066
-4.7241
-3.4163
-2.43518
-1.70493
-1.16575
-0.771085
-0.484886
-0.279408
-0.133489
-0.0311979
0.0392985
0.0866872
0.11729
0.135699
0.145234
0.148273
0.146543
0.141346
0.133693
0.12441
0.114273
0.103947
0.0939382
0.0845504
0.0759251
0.0680728
0.0609292
0.0544163
0.0484322
0.0428582
0.0376216
0.0326756
0.0280015
0.0236
0.0195531
0.0158417
0.0126868
0.009737
0.00775806
0.00511577
0.00491405
0.000924123
0.00458278
-10.6308
-10.7885
-10.9236
-10.9843
-10.9706
-10.8203
-10.3397
-9.48476
-8.59679
-7.84713
-7.21552
-6.90614
-7.28516
-8.55846
-10.7082
-13.6271
-17.109
-20.9216
-24.814
-28.5369
-31.8348
-34.4303
-36.063
-36.5812
-35.8864
-34.0735
-31.3231
-27.8661
-23.9604
-19.8695
-15.8349
-12.0507
-8.67598
-5.85644
-3.72642
-2.39719
-1.97131
-2.53308
-4.17871
-6.94655
-10.7717
-15.4335
-20.5422
-25.5942
-30.0308
-33.3278
-35.1143
-35.2124
-33.6815
-30.8142
-27.0489
-22.8629
-18.685
-14.8446
-11.5364
-8.81741
-6.65211
-4.9641
-3.6671
-2.68036
-1.93548
-1.37717
-0.96155
-0.654179
-0.428271
-0.263231
-0.143436
-0.0571931
0.0041587
0.0469906
0.0759938
0.0946214
0.105417
0.110279
0.110658
0.107728
0.102462
0.0957359
0.0882924
0.0807073
0.073354
0.0664404
0.0600336
0.0541146
0.048645
0.0435474
0.0387359
0.0341583
0.0297855
0.0256156
0.0216554
0.0179991
0.0146204
0.011764
0.00904283
0.00729226
0.00476501
0.00476559
0.000746099
0.00468343
-10.6722
-10.7842
-10.8822
-10.919
-10.8752
-10.7003
-10.2823
-9.61304
-8.92193
-8.36037
-7.95093
-7.84475
-8.29383
-9.4614
-11.3755
-13.9854
-17.1405
-20.6195
-24.1784
-27.5707
-30.5488
-32.8763
-34.3591
-34.8092
-34.1413
-32.4153
-29.8027
-26.5411
-22.9012
-19.1404
-15.463
-12.0198
-8.94364
-6.36751
-4.41961
-3.20826
-2.82957
-3.35829
-4.86811
-7.38376
-10.8216
-14.961
-19.4523
-23.8674
-27.7452
-30.652
-32.2764
-32.4495
-31.2169
-28.8059
-25.5595
-21.8669
-18.1042
-14.5821
-11.4976
-8.92268
-6.84126
-5.19494
-3.91203
-2.92255
-2.16524
-1.58933
-1.15373
-0.825729
-0.579629
-0.395493
-0.258085
-0.155909
-0.0803698
-0.0250733
0.0147539
0.0426882
0.0614252
0.0730372
0.079135
0.0810409
0.0798824
0.0766419
0.0721492
0.067052
0.0617929
0.0566469
0.051737
0.0470912
0.0427123
0.0385584
0.0345757
0.0307261
0.0269915
0.0233823
0.0199072
0.0166666
0.0136231
0.0110425
0.00850906
0.00692977
0.00446308
0.00460523
0.000525528
0.00469694
-10.7173
-10.7968
-10.8622
-10.8747
-10.8119
-10.6403
-10.3
-9.79191
-9.26066
-8.83371
-8.56769
-8.58986
-9.09236
-10.1999
-11.925
-14.2292
-17.0198
-20.1353
-23.359
-26.4474
-29.1557
-31.2563
-32.5426
-32.8671
-32.1813
-30.5444
-28.1231
-25.1468
-21.8595
-18.4744
-15.155
-12.0327
-9.23373
-6.88613
-5.11164
-4.0127
-3.6771
-4.17097
-5.54958
-7.82609
-10.9155
-14.6088
-18.5877
-22.4753
-25.881
-28.4481
-29.9271
-30.1511
-29.1481
-27.0901
-24.2504
-20.9594
-17.5541
-14.3212
-11.4487
-9.01496
-7.01846
-5.41653
-4.15085
-3.16144
-2.39391
-1.80196
-1.34738
-0.999338
-0.73331
-0.530126
-0.375013
-0.25673
-0.166791
-0.0988065
-0.0479397
-0.010499
0.0163587
0.0348724
0.0468267
0.0536917
0.0567331
0.0570533
0.0555717
0.0530135
0.0498936
0.0465563
0.0431801
0.0398383
0.036575
0.0333778
0.0302197
0.0270832
0.0239662
0.0208956
0.0178877
0.0150553
0.0123561
0.0100778
0.00777633
0.00642069
0.00407525
0.00441057
0.000319256
0.00476222
-10.7546
-10.8109
-10.8533
-10.852
-10.7863
-10.6326
-10.3586
-9.97266
-9.5749
-9.27191
-9.13082
-9.25437
-9.78458
-10.8188
-12.3716
-14.4072
-16.8445
-19.5566
-22.3746
-25.0928
-27.4858
-29.3284
-30.4259
-30.6741
-30.0443
-28.5886
-26.4515
-23.8282
-20.9181
-17.8956
-14.9062
-12.0785
-9.53729
-7.40476
-5.79417
-4.8005
-4.50336
-4.9609
-6.2141
-8.26535
-11.0333
-14.33
-17.8714
-21.3226
-24.3444
-26.6397
-27.9686
-28.2105
-27.3691
-25.5776
-23.0634
-20.1136
-17.0274
-14.062
-11.3911
-9.0951
-7.18404
-5.62894
-4.38344
-3.39682
-2.62124
-2.01482
-1.5423
-1.17482
-0.889147
-0.666977
-0.494076
-0.359518
-0.254972
-0.174084
-0.111969
-0.0648319
-0.0296862
-0.00413349
0.0137878
0.0257098
0.0330294
0.0369714
0.0385555
0.0385872
0.0376553
0.0361723
0.0343717
0.0323745
0.0302654
0.0280655
0.0257769
0.0234019
0.0209511
0.0184643
0.0159618
0.013564
0.011221
0.00924024
0.00715325
0.00599052
0.00373503
0.00422469
9.9551e-05
0.00478436
-10.7952
-10.8359
-10.8628
-10.8539
-10.792
-10.6616
-10.4481
-10.1652
-9.88409
-9.69007
-9.6494
-9.84671
-10.3889
-11.3527
-12.7524
-14.5552
-16.6879
-19.0387
-21.4637
-23.7933
-25.8408
-27.419
-28.3714
-28.5983
-28.0641
-26.8141
-24.9648
-22.6714
-20.0966
-17.394
-14.7018
-12.1459
-9.84569
-7.91509
-6.45798
-5.56174
-5.29836
-5.7189
-6.85271
-8.69386
-11.1642
-14.0981
-17.2476
-20.3182
-23.0107
-25.0583
-26.2578
-26.4976
-25.7751
-24.1988
-21.9631
-19.3172
-16.5225
-13.8061
-11.3265
-9.16417
-7.33857
-5.83236
-4.60978
-3.62854
-2.84702
-2.22769
-1.73829
-1.35198
-1.04697
-0.805881
-0.615111
-0.464115
-0.344762
-0.250763
-0.177205
-0.120197
-0.0766131
-0.0438928
-0.019905
-0.00284575
0.00882589
0.0164461
0.021141
0.0238034
0.0250996
0.025508
0.0253169
0.0246967
0.0237698
0.0225885
0.0211801
0.0195672
0.0177757
0.0158607
0.0138514
0.0118807
0.00989602
0.00822552
0.00637798
0.00543955
0.00331333
0.00399335
-0.000132585
0.00483257
-10.8359
-10.8663
-10.884
-10.8731
-10.8209
-10.7178
-10.5594
-10.3613
-10.1765
-10.0735
-10.1133
-10.3659
-10.9119
-11.8104
-13.0741
-14.6749
-16.5486
-18.5973
-20.6954
-22.6979
-24.4497
-25.8017
-26.6247
-26.8242
-26.3652
-25.2845
-23.6721
-21.6525
-19.3652
-16.9478
-14.5287
-12.2262
-10.1515
-8.40949
-7.09514
-6.28857
-6.05461
-6.43795
-7.45869
-9.10495
-11.3018
-13.9025
-16.6921
-19.4141
-21.8055
-23.6288
-24.7061
-24.9361
-24.3123
-22.9245
-20.9385
-18.5685
-16.041
-13.5555
-11.2563
-9.22321
-7.4827
-6.02711
-4.82993
-3.85652
-3.07113
-2.44043
-1.93518
-1.53067
-1.20661
-0.946663
-0.737941
-0.570343
-0.435985
-0.328676
-0.243491
-0.176453
-0.124297
-0.0843027
-0.0541647
-0.0319089
-0.0158377
-0.00449368
0.00334934
0.00867665
0.0122377
0.0145731
0.0160246
0.0168152
0.0171027
0.0169719
0.0164764
0.0156601
0.0145633
0.013255
0.0117701
0.010251
0.00864044
0.00728514
0.00567366
0.004946
0.00293322
0.0037814
-0.00036243
0.0048702
-10.8802
-10.9046
-10.9182
-10.9098
-10.8705
-10.7953
-10.6856
-10.5577
-10.4525
-10.4249
-10.5283
-10.8198
-11.3609
-12.1961
-13.3359
-14.7566
-16.4035
-18.1924
-20.0151
-21.7467
-23.2554
-24.4146
-25.1142
-25.2768
-24.8732
-23.9286
-22.5136
-20.7315
-18.7017
-16.5458
-14.3801
-12.3134
-10.4487
-8.8819
-7.69978
-6.97551
-6.76717
-7.11344
-8.02769
-9.49363
-11.4407
-13.7379
-16.1984
-18.5999
-20.7127
-22.3295
-23.2923
-23.5092
-22.9709
-21.7509
-19.9889
-17.868
-15.5837
-13.3113
-11.1819
-9.27333
-7.61718
-6.21361
-5.04405
-4.08079
-3.29349
-2.65292
-2.13284
-1.71074
-1.3679
-1.08914
-0.86237
-0.677998
-0.528438
-0.407628
-0.310647
-0.233437
-0.1726
-0.125246
-0.088893
-0.0613949
-0.0408944
-0.0258001
-0.0147803
-0.0067584
-0.000904021
0.00338574
0.0065101
0.00874161
0.0102714
0.0112145
0.0116487
0.0116379
0.0112376
0.0105316
0.00956425
0.00849069
0.00725304
0.00621768
0.00485503
0.0043557
0.00248029
0.00352131
-0.000620217
0.0049186
-10.9274
-10.9492
-10.9623
-10.9594
-10.9348
-10.8869
-10.8201
-10.7503
-10.7102
-10.7435
-10.8955
-11.2126
-11.7416
-12.516
-13.5432
-14.8025
-16.2473
-17.8057
-19.3856
-20.8804
-22.1776
-23.1684
-23.7611
-23.8921
-23.535
-22.7073
-21.4657
-19.896
-18.0997
-16.1834
-14.2513
-12.403
-10.7325
-9.32778
-8.26768
-7.61866
-7.43247
-7.74228
-8.55671
-9.85631
-11.5757
-13.5983
-15.7613
-17.872
-19.7314
-21.1587
-22.0137
-22.2142
-21.7484
-20.6753
-19.1121
-17.2144
-15.1505
-13.0744
-11.1045
-9.31569
-7.74286
-6.39238
-5.25243
-4.30145
-3.51413
-2.86514
-2.33121
-1.89207
-1.53068
-1.23313
-0.988188
-0.786855
-0.621891
-0.487393
-0.378461
-0.29096
-0.221354
-0.166581
-0.123976
-0.0912125
-0.0662696
-0.0474179
-0.0332098
-0.0224757
-0.0143096
-0.00804377
-0.00322051
0.000478135
0.00327631
0.00531898
0.00670815
0.00752856
0.00785094
0.00777356
0.00734847
0.00674164
0.00589329
0.00518772
0.00407854
0.00380506
0.00206136
0.00328551
-0.000866739
0.00497832
-10.9777
-10.9995
-11.0151
-11.0198
-11.0106
-10.9882
-10.9587
-10.9368
-10.949
-11.0304
-11.2183
-11.5502
-12.0618
-12.7777
-13.7024
-14.8177
-16.0833
-17.4382
-18.8038
-20.0899
-21.2012
-22.0461
-22.5476
-22.6512
-22.3339
-21.6083
-20.5201
-19.1401
-17.5546
-15.8563
-14.1383
-12.4906
-10.9991
-9.74359
-8.7956
-8.21505
-8.04785
-8.32228
-9.04361
-10.1903
-11.7026
-13.4771
-15.3722
-17.2211
-18.8513
-20.1053
-20.8598
-21.0413
-20.636
-19.6908
-18.3032
-16.6051
-14.741
-12.8455
-11.0254
-9.35153
-7.86071
-6.56408
-5.45549
-4.51877
-3.73319
-3.07715
-2.53027
-2.07458
-1.69484
-1.37845
-1.11517
-0.896658
-0.716081
-0.567714
-0.446693
-0.348806
-0.270372
-0.208152
-0.159286
-0.121259
-0.0918821
-0.0692795
-0.0518862
-0.0384363
-0.0279457
-0.0196831
-0.0131362
-0.00794431
-0.0038523
-0.000687408
0.00167469
0.00333825
0.00438909
0.00494034
0.0050539
0.00490891
0.00444677
0.00407078
0.00321978
0.00318041
0.00158103
0.00300429
-0.00114811
0.00503726
-11.0314
-11.0548
-11.0747
-11.0881
-11.0942
-11.0949
-11.0972
-11.1143
-11.1679
-11.2863
-11.4995
-11.8377
-12.3276
-12.9873
-13.8188
-14.8057
-15.9133
-17.0895
-18.2678
-19.3719
-20.3215
-21.0394
-21.4615
-21.5411
-21.2582
-20.6219
-19.6687
-18.4572
-17.0608
-15.5598
-14.0368
-12.5728
-11.2454
-10.1266
-9.28111
-8.76256
-8.61154
-8.85203
-9.48682
-10.4936
-11.818
-13.3688
-15.0229
-16.6363
-18.0596
-19.1561
-19.8177
-19.9787
-19.6238
-18.7896
-17.5572
-16.0377
-14.3547
-12.6255
-10.9459
-9.38212
-7.97176
-6.72949
-5.65378
-4.73312
-3.95094
-3.2891
-2.73009
-2.25826
-1.86024
-1.52489
-1.24305
-1.00713
-0.810708
-0.648296
-0.515064
-0.406722
-0.319435
-0.249772
-0.19467
-0.151414
-0.117638
-0.0913154
-0.0707592
-0.0546052
-0.0417917
-0.0315249
-0.023241
-0.0165389
-0.0111339
-0.00682678
-0.00347174
-0.000945168
0.000854149
0.00205399
0.00272568
0.00306035
0.00299997
0.00296554
0.00238173
0.00258097
0.00112669
0.00274866
-0.00141411
0.00512166
-11.0872
-11.1137
-11.139
-11.1618
-11.1823
-11.2037
-11.2326
-11.2811
-11.367
-11.5126
-11.7424
-12.0798
-12.5452
-13.1511
-13.8976
-14.77
-15.7381
-16.7578
-17.7728
-18.7187
-19.5281
-20.1362
-20.4893
-20.5481
-20.295
-19.7364
-18.9018
-17.8398
-16.6124
-15.2894
-13.9434
-12.6467
-11.4689
-10.475
-9.72269
-9.26001
-9.12263
-9.33085
-9.88555
-10.7648
-11.9193
-13.2689
-14.7069
-16.109
-17.3462
-18.3002
-18.8763
-19.0158
-18.7027
-17.9653
-16.87
-15.5102
-13.9914
-12.4153
-10.8673
-9.40877
-8.07716
-6.88951
-5.84799
-4.94504
-4.16777
-3.50127
-2.93082
-2.44313
-2.0268
-1.67228
-1.37159
-1.11794
-0.905434
-0.7288
-0.583256
-0.464422
-0.368297
-0.291239
-0.229963
-0.181547
-0.143434
-0.113444
-0.0897618
-0.0709239
-0.0557922
-0.043513
-0.0334752
-0.0252421
-0.0185024
-0.0130335
-0.00866963
-0.00526905
-0.0027155
-0.000866335
0.000360424
0.00116953
0.00150579
0.00180896
0.00149117
0.0019305
0.000625192
0.00245469
-0.00171636
0.005199
-11.1454
-11.1757
-11.2071
-11.239
-11.2728
-11.3118
-11.3628
-11.436
-11.5461
-11.711
-11.95
-12.2813
-12.7199
-13.2745
-13.9437
-14.7138
-15.559
-16.4418
-17.3145
-18.1231
-18.8111
-19.3246
-19.6181
-19.6589
-19.4317
-18.941
-18.2107
-17.2811
-16.2046
-15.0414
-13.8552
-12.7101
-11.6683
-10.7876
-10.1196
-9.70702
-9.58104
-9.75881
-10.2398
-11.0033
-12.0046
-13.1738
-14.4185
-15.6315
-16.702
-17.5275
-18.0254
-18.1434
-17.8651
-17.2118
-16.2377
-15.0209
-13.6508
-12.2156
-10.7908
-9.43284
-8.17812
-7.04518
-6.03899
-5.15524
-4.38426
-3.7141
-3.13274
-2.6293
-2.19448
-1.82043
-1.50048
-1.22875
-0.999873
-0.808839
-0.650902
-0.521577
-0.41667
-0.332307
-0.264967
-0.2115
-0.169153
-0.13558
-0.108837
-0.0873616
-0.0699396
-0.0556607
-0.0438708
-0.0341005
-0.0260145
-0.0193691
-0.0139806
-0.00969011
-0.00636645
-0.0038522
-0.00205473
-0.000756155
-8.96979e-06
0.000644517
0.000604002
0.00129235
0.000140783
0.00218433
-0.00200396
0.00531138
-11.2044
-11.2391
-11.2767
-11.3174
-11.3629
-11.4169
-11.4856
-11.5778
-11.7056
-11.883
-12.1253
-12.4463
-12.857
-13.363
-13.9616
-14.6406
-15.3776
-16.1406
-16.8896
-17.5794
-18.1626
-18.5944
-18.8368
-18.8623
-18.6578
-18.2265
-17.5877
-16.7749
-15.8326
-14.8124
-13.7699
-12.7615
-11.8423
-11.0639
-10.4719
-10.1039
-9.98738
-10.1366
-10.5503
-11.2089
-12.0727
-13.0806
-14.1528
-15.1973
-16.119
-16.8291
-17.2559
-17.3529
-17.1036
-16.5236
-15.6567
-14.5678
-13.3326
-12.027
-10.7176
-9.45566
-8.27595
-7.19767
-6.2278
-5.36462
-4.60117
-3.92819
-3.33626
-2.81698
-2.36326
-1.96916
-1.62941
-1.33915
-1.09358
-0.887973
-0.717591
-0.577818
-0.46424
-0.372722
-0.299477
-0.241112
-0.194663
-0.157615
-0.127889
-0.103825
-0.0841372
-0.0678632
-0.0543128
-0.0429912
-0.0335432
-0.0257071
-0.0192831
-0.0140961
-0.0100002
-0.00682311
-0.0044605
-0.00268018
-0.00153029
-0.00053433
-0.000303909
0.000629173
-0.00037205
0.0018881
-0.00232333
0.00541535
-11.2644
-11.3036
-11.3471
-11.3956
-11.4513
-11.5176
-11.6001
-11.7064
-11.8461
-12.0305
-12.2712
-12.5788
-12.961
-13.421
-13.9555
-14.5533
-15.195
-15.8535
-16.4952
-17.0822
-17.5752
-17.9367
-18.1353
-18.1479
-17.9634
-17.584
-17.0255
-16.3157
-15.4923
-14.5995
-13.6854
-12.7997
-11.9907
-11.3041
-10.78
-10.4517
-10.3428
-10.4655
-10.8178
-11.382
-12.1227
-12.9868
-13.9057
-14.8006
-15.5897
-16.1968
-16.5595
-16.6364
-16.4114
-15.8954
-15.1235
-14.1493
-13.0365
-11.8503
-10.6489
-9.47862
-8.37204
-7.34831
-6.41567
-5.57431
-4.8195
-4.14435
-3.54194
-3.00645
-2.53319
-2.11827
-1.75803
-1.44867
-1.18606
-0.965691
-0.782838
-0.63271
-0.51063
-0.412168
-0.333242
-0.270192
-0.21983
-0.179462
-0.146876
-0.120313
-0.0984206
-0.0801884
-0.0648973
-0.0520287
-0.0412136
-0.0321765
-0.0247041
-0.018607
-0.0137256
-0.00987241
-0.00693153
-0.00465646
-0.0030908
-0.00173946
-0.00122557
-3.60055e-05
-0.0008795
0.0016091
-0.00263375
0.00555786
-11.3239
-11.3674
-11.4164
-11.472
-11.5361
-11.6122
-11.7051
-11.8212
-11.9683
-12.1552
-12.3907
-12.6827
-13.0363
-13.4532
-13.9294
-14.4549
-15.0128
-15.5801
-16.1288
-16.6272
-17.0425
-17.3439
-17.505
-17.5069
-17.3399
-17.0059
-16.5177
-15.8984
-15.1799
-14.4
-13.6003
-12.824
-12.1135
-11.5088
-11.0452
-10.7518
-10.649
-10.7471
-11.0439
-11.5232
-12.1541
-12.8906
-13.6737
-14.4362
-15.1079
-15.6234
-15.9287
-15.9869
-15.7825
-15.3225
-14.6348
-13.7636
-12.7621
-11.6859
-10.5858
-9.50308
-8.46784
-7.49856
-6.60402
-5.78569
-5.04051
-4.36364
-3.75058
-3.19816
-2.70437
-2.26758
-1.88593
-1.55681
-1.27672
-1.04141
-0.846107
-0.685784
-0.555449
-0.450326
-0.366004