/*--------------------------------*- C++ -*----------------------------------*\
  =========                 |
  \\      /  F ield         | OpenFOAM: The Open Source CFD Toolbox
   \\    /   O peration     | Website:  https://openfoam.org
    \\  /    A nd           | Version:  10
     \\/     M anipulation  |
\*---------------------------------------------------------------------------*/
FoamFile
{
    format      ascii;
    class       surfaceScalarField;
    location    "0.11";
    object      phi;
}
// * * * * * * * * * * * * * * * * * * * * * * * * * * * * * * * * * * * * * //

dimensions      [0 3 -1 0 0 0 0];

internalField   nonuniform List<scalar> 
13452
(
5.94513e-05
8.17204e-07
5.8466e-05
9.85278e-07
5.74365e-05
1.0295e-06
5.63749e-05
1.06157e-06
5.53092e-05
1.06575e-06
5.42503e-05
1.05889e-06
5.32013e-05
1.04897e-06
5.21637e-05
1.03763e-06
5.11377e-05
1.02598e-06
5.01228e-05
1.01487e-06
4.9118e-05
1.00485e-06
4.81216e-05
9.9633e-07
4.71319e-05
9.89728e-07
4.61465e-05
9.85457e-07
4.51625e-05
9.83954e-07
4.41768e-05
9.85694e-07
4.31856e-05
9.91202e-07
4.21846e-05
1.00105e-06
4.11687e-05
1.01587e-06
4.01323e-05
1.03634e-06
3.90692e-05
1.06318e-06
3.7972e-05
1.09713e-06
3.68331e-05
1.1389e-06
3.5644e-05
1.18914e-06
3.43956e-05
1.24834e-06
3.30789e-05
1.31676e-06
3.16847e-05
1.3942e-06
3.02044e-05
1.4803e-06
2.86317e-05
1.57268e-06
2.69574e-05
1.67429e-06
2.51894e-05
1.76806e-06
2.32882e-05
1.90113e-06
1.98277e-06
2.13055e-05
6.24904e-05
3.17149e-07
6.29662e-05
5.09489e-07
6.34137e-05
5.81942e-07
6.38236e-05
6.51714e-07
6.41882e-05
7.01191e-07
6.45069e-05
7.40093e-07
6.47812e-05
7.74721e-07
6.50129e-05
8.05886e-07
6.52045e-05
8.34447e-07
6.5358e-05
8.61378e-07
6.54754e-05
8.87419e-07
6.55585e-05
9.1324e-07
6.56087e-05
9.39537e-07
6.56271e-05
9.67034e-07
6.56145e-05
9.9651e-07
6.55714e-05
1.02881e-06
6.54977e-05
1.06489e-06
6.5393e-05
1.10578e-06
6.52562e-05
1.15266e-06
6.50857e-05
1.20683e-06
6.48792e-05
1.26971e-06
6.46335e-05
1.34286e-06
6.43444e-05
1.42794e-06
6.40069e-05
1.52666e-06
6.36146e-05
1.64068e-06
6.31598e-05
1.77152e-06
6.26336e-05
1.92039e-06
6.2026e-05
2.08797e-06
6.13245e-05
2.27418e-06
6.05198e-05
2.47899e-06
5.95892e-05
2.6986e-06
5.85493e-05
2.94106e-06
3.18355e-06
5.73485e-05
6.3834e-05
2.4453e-07
6.39084e-05
4.35143e-07
6.39753e-05
5.14973e-07
6.40443e-05
5.8277e-07
6.41145e-05
6.31008e-07
6.4188e-05
6.66541e-07
6.4266e-05
6.96757e-07
6.43484e-05
7.2344e-07
6.44352e-05
7.47723e-07
6.45258e-05
7.7076e-07
6.46198e-05
7.93396e-07
6.47167e-05
8.16331e-07
6.4816e-05
8.40243e-07
6.49172e-05
8.65809e-07
6.502e-05
8.93732e-07
6.5124e-05
9.24765e-07
6.52292e-05
9.59737e-07
6.53354e-05
9.99567e-07
6.54428e-05
1.04528e-06
6.55516e-05
1.09803e-06
6.56622e-05
1.15909e-06
6.57752e-05
1.22986e-06
6.58913e-05
1.31189e-06
6.60111e-05
1.40678e-06
6.61356e-05
1.51621e-06
6.62653e-05
1.64182e-06
6.64006e-05
1.78512e-06
6.65413e-05
1.94729e-06
6.66864e-05
2.12909e-06
6.68347e-05
2.33067e-06
6.69827e-05
2.5506e-06
6.71363e-05
2.78745e-06
3.02845e-06
6.72914e-05
6.56401e-05
1.87516e-07
6.56907e-05
3.84496e-07
6.57245e-05
4.81163e-07
6.575e-05
5.57345e-07
6.57678e-05
6.13163e-07
6.57799e-05
6.54409e-07
6.57878e-05
6.88907e-07
6.57921e-05
7.1915e-07
6.57934e-05
7.46437e-07
6.57921e-05
7.72045e-07
6.57885e-05
7.96935e-07
6.5783e-05
8.21872e-07
6.57757e-05
8.47578e-07
6.57667e-05
8.74755e-07
6.57564e-05
9.04103e-07
6.57448e-05
9.36351e-07
6.57322e-05
9.7227e-07
6.57191e-05
1.01269e-06
6.57059e-05
1.05849e-06
6.56933e-05
1.11065e-06
6.56822e-05
1.17018e-06
6.56739e-05
1.23816e-06
6.56701e-05
1.3157e-06
6.5673e-05
1.40389e-06
6.56854e-05
1.50378e-06
6.5711e-05
1.61627e-06
6.57541e-05
1.74199e-06
6.58201e-05
1.88126e-06
6.59155e-05
2.03369e-06
6.60476e-05
2.19855e-06
6.62258e-05
2.3724e-06
6.64597e-05
2.55358e-06
2.72432e-06
6.67638e-05
6.749e-05
1.5432e-07
6.75295e-05
3.44984e-07
6.75613e-05
4.49347e-07
6.75893e-05
5.29395e-07
6.76118e-05
5.90661e-07
6.76286e-05
6.37522e-07
6.76406e-05
6.76926e-07
6.76481e-05
7.11695e-07
6.76513e-05
7.43256e-07
6.76503e-05
7.72962e-07
6.76454e-05
8.0186e-07
6.76365e-05
8.3078e-07
6.76236e-05
8.6048e-07
6.76067e-05
8.91686e-07
6.75857e-05
9.25107e-07
6.75606e-05
9.61467e-07
6.75313e-05
1.00151e-06
6.7498e-05
1.04603e-06
6.74606e-05
1.09584e-06
6.74195e-05
1.15179e-06
6.73749e-05
1.21477e-06
6.73274e-05
1.28567e-06
6.72778e-05
1.36533e-06
6.72271e-05
1.45453e-06
6.7177e-05
1.5539e-06
6.71295e-05
1.66382e-06
6.70871e-05
1.78431e-06
6.70535e-05
1.91494e-06
6.70328e-05
2.05438e-06
6.70305e-05
2.20079e-06
6.70533e-05
2.34959e-06
6.71097e-05
2.49718e-06
2.62823e-06
6.72058e-05
6.94112e-05
1.27181e-07
6.94483e-05
3.0783e-07
6.9479e-05
4.18665e-07
6.95048e-05
5.03568e-07
6.95253e-05
5.70209e-07
6.95405e-05
6.22299e-07
6.95514e-05
6.66078e-07
6.95583e-05
7.04753e-07
6.95616e-05
7.39982e-07
6.95613e-05
7.73196e-07
6.95577e-05
8.0552e-07
6.95506e-05
8.37855e-07
6.95401e-05
8.70995e-07
6.95261e-05
9.05688e-07
6.95085e-05
9.42651e-07
6.94874e-05
9.82597e-07
6.94627e-05
1.02625e-06
6.94344e-05
1.07435e-06
6.94025e-05
1.12765e-06
6.93674e-05
1.18692e-06
6.93293e-05
1.25292e-06
6.92886e-05
1.32638e-06
6.92459e-05
1.40796e-06
6.92022e-05
1.49822e-06
6.91586e-05
1.59749e-06
6.91166e-05
1.70585e-06
6.9078e-05
1.82295e-06
6.9045e-05
1.94794e-06
6.90202e-05
2.07912e-06
6.90069e-05
2.21411e-06
6.90082e-05
2.34834e-06
6.9028e-05
2.47733e-06
2.58996e-06
6.90663e-05
7.13845e-05
1.09062e-07
7.14128e-05
2.79454e-07
7.14382e-05
3.93288e-07
7.1461e-05
4.80781e-07
7.14804e-05
5.50773e-07
7.14959e-05
6.06836e-07
7.15076e-05
6.54383e-07
7.15157e-05
6.96654e-07
7.15203e-05
7.35375e-07
7.15215e-05
7.71984e-07
7.15194e-05
8.07668e-07
7.15139e-05
8.43339e-07
7.15051e-05
8.7981e-07
7.14929e-05
9.17827e-07
7.14775e-05
9.58103e-07
7.14587e-05
1.00133e-06
7.14368e-05
1.0482e-06
7.14117e-05
1.0994e-06
7.13838e-05
1.15561e-06
7.13532e-05
1.2175e-06
7.13204e-05
1.28571e-06
7.12859e-05
1.36082e-06
7.12506e-05
1.44331e-06
7.12153e-05
1.5335e-06
7.11813e-05
1.63152e-06
7.115e-05
1.73717e-06
7.11231e-05
1.84985e-06
7.11025e-05
1.96847e-06
7.10905e-05
2.09116e-06
7.10892e-05
2.2154e-06
7.11004e-05
2.33711e-06
7.11258e-05
2.45199e-06
2.55241e-06
7.11633e-05
7.34189e-05
9.53906e-08
7.34437e-05
2.54697e-07
7.34679e-05
3.69111e-07
7.349e-05
4.58657e-07
7.3509e-05
5.31817e-07
7.3524e-05
5.91822e-07
7.35352e-05
6.43169e-07
7.35428e-05
6.88998e-07
7.35471e-05
7.31131e-07
7.3548e-05
7.71036e-07
7.35458e-05
8.099e-07
7.35404e-05
8.48715e-07
7.35319e-05
8.88289e-07
7.35204e-05
9.29377e-07
7.35058e-05
9.72682e-07
7.34883e-05
1.01887e-06
7.34679e-05
1.0686e-06
7.34448e-05
1.12249e-06
7.34192e-05
1.18116e-06
7.33916e-05
1.24517e-06
7.33622e-05
1.31503e-06
7.33319e-05
1.39119e-06
7.33012e-05
1.47396e-06
7.32713e-05
1.56347e-06
7.32431e-05
1.65965e-06
7.32182e-05
1.7621e-06
7.3198e-05
1.87005e-06
7.31842e-05
1.98226e-06
7.31785e-05
2.09686e-06
7.31825e-05
2.21142e-06
7.31971e-05
2.32246e-06
7.32228e-05
2.42626e-06
2.51769e-06
7.32575e-05
7.55125e-05
8.53311e-08
7.55325e-05
2.34696e-07
7.55531e-05
3.48535e-07
7.55724e-05
4.39382e-07
7.55895e-05
5.14737e-07
7.56036e-05
5.77711e-07
7.56146e-05
6.32144e-07
7.56226e-05
6.81024e-07
7.56275e-05
7.26213e-07
7.56294e-05
7.69163e-07
7.56282e-05
8.11022e-07
7.56242e-05
8.52766e-07
7.56172e-05
8.95238e-07
7.56074e-05
9.39182e-07
7.55948e-05
9.85281e-07
7.55795e-05
1.03417e-06
7.55617e-05
1.08646e-06
7.55415e-05
1.1427e-06
7.55192e-05
1.20344e-06
7.54952e-05
1.26914e-06
7.547e-05
1.34021e-06
7.54443e-05
1.41696e-06
7.54187e-05
1.49954e-06
7.53942e-05
1.58796e-06
7.53719e-05
1.68198e-06
7.53529e-05
1.78108e-06
7.53386e-05
1.88438e-06
7.53302e-05
1.99062e-06
7.5329e-05
2.09804e-06
7.5336e-05
2.20444e-06
7.53515e-05
2.30701e-06
7.5375e-05
2.40275e-06
2.48837e-06
7.54043e-05
7.76673e-05
7.76503e-08
7.76841e-05
2.17864e-07
7.77028e-05
3.29851e-07
7.7721e-05
4.21171e-07
7.77376e-05
4.98147e-07
7.77516e-05
5.63693e-07
7.77627e-05
6.21023e-07
7.77709e-05
6.72846e-07
7.77762e-05
7.20952e-07
7.77786e-05
7.66734e-07
7.77782e-05
8.1141e-07
7.7775e-05
8.5594e-07
7.77691e-05
9.01137e-07
7.77606e-05
9.47725e-07
7.77495e-05
9.96361e-07
7.7736e-05
1.04765e-06
7.77203e-05
1.10215e-06
7.77027e-05
1.16036e-06
7.76834e-05
1.22275e-06
7.76628e-05
1.2897e-06
7.76415e-05
1.3615e-06
7.76201e-05
1.43836e-06
7.75993e-05
1.52033e-06
7.758e-05
1.60728e-06
7.75631e-05
1.69886e-06
7.75497e-05
1.7945e-06
7.75408e-05
1.89328e-06
7.75374e-05
1.99401e-06
7.75404e-05
2.09508e-06
7.75502e-05
2.19465e-06
7.75667e-05
2.29049e-06
7.75891e-05
2.38037e-06
2.4622e-06
7.76152e-05
7.98843e-05
7.16637e-08
7.98983e-05
2.03833e-07
7.99147e-05
3.13472e-07
7.9931e-05
4.04849e-07
7.99462e-05
4.83003e-07
7.99593e-05
5.50584e-07
7.997e-05
6.10314e-07
7.99782e-05
6.64643e-07
7.99838e-05
7.15324e-07
7.99869e-05
7.63701e-07
7.99874e-05
8.10907e-07
7.99854e-05
8.57907e-07
7.9981e-05
9.05509e-07
7.99743e-05
9.5442e-07
7.99654e-05
1.00527e-06
7.99545e-05
1.05862e-06
7.99416e-05
1.11497e-06
7.99272e-05
1.17477e-06
7.99116e-05
1.23841e-06
7.98951e-05
1.30619e-06
7.98782e-05
1.37832e-06
7.98617e-05
1.4549e-06
7.98461e-05
1.53589e-06
7.98323e-05
1.62107e-06
7.98211e-05
1.71006e-06
7.98134e-05
1.80222e-06
7.981e-05
1.89668e-06
7.98117e-05
1.99235e-06
7.98189e-05
2.08786e-06
7.98319e-05
2.18169e-06
7.98502e-05
2.27216e-06
7.98729e-05
2.3577e-06
2.43704e-06
7.9898e-05
8.21652e-05
6.68769e-08
8.21771e-05
1.91957e-07
8.21918e-05
2.98826e-07
8.22069e-05
3.89711e-07
8.22214e-05
4.68527e-07
8.22343e-05
5.37655e-07
8.22452e-05
5.99415e-07
8.22539e-05
6.55972e-07
8.22602e-05
7.08958e-07
8.22643e-05
7.59655e-07
8.2266e-05
8.09176e-07
8.22655e-05
8.58453e-07
8.22627e-05
9.08262e-07
8.22579e-05
9.59272e-07
8.22511e-05
1.01207e-06
8.22425e-05
1.06719e-06
8.22324e-05
1.12507e-06
8.2221e-05
1.18611e-06
8.22088e-05
1.25063e-06
8.21962e-05
1.31885e-06
8.21836e-05
1.39091e-06
8.21716e-05
1.46684e-06
8.2161e-05
1.54652e-06
8.21524e-05
1.6297e-06
8.21465e-05
1.71594e-06
8.21441e-05
1.80462e-06
8.21458e-05
1.89495e-06
8.21522e-05
1.98596e-06
8.21636e-05
2.07651e-06
8.21799e-05
2.16541e-06
8.22006e-05
2.25143e-06
8.22248e-05
2.33352e-06
2.41096e-06
8.22508e-05
8.45117e-05
6.29497e-08
8.45218e-05
1.81808e-07
8.45349e-05
2.85761e-07
8.45488e-05
3.75829e-07
8.45623e-05
4.54973e-07
8.45747e-05
5.25266e-07
8.45855e-05
5.88682e-07
8.45943e-05
6.4712e-07
8.46012e-05
7.02097e-07
8.4606e-05
7.54833e-07
8.46088e-05
8.06379e-07
8.46096e-05
8.57625e-07
8.46086e-05
9.09313e-07
8.46058e-05
9.62082e-07
8.46014e-05
1.01649e-06
8.45955e-05
1.07301e-06
8.45886e-05
1.13205e-06
8.45807e-05
1.19394e-06
8.45724e-05
1.25894e-06
8.45641e-05
1.32722e-06
8.45561e-05
1.39885e-06
8.45492e-05
1.47379e-06
8.45438e-05
1.55189e-06
8.45406e-05
1.63286e-06
8.45403e-05
1.71625e-06
8.45435e-05
1.80148e-06
8.45506e-05
1.88786e-06
8.4562e-05
1.97454e-06
8.45779e-05
2.06061e-06
8.45981e-05
2.14516e-06
8.46222e-05
2.22733e-06
8.46493e-05
2.30644e-06
2.38213e-06
8.46781e-05
8.69255e-05
5.96465e-08
8.69343e-05
1.73008e-07
8.69461e-05
2.73978e-07
8.6959e-05
3.62906e-07
8.69719e-05
4.41999e-07
8.69842e-05
5.13036e-07
8.69952e-05
5.77708e-07
8.70046e-05
6.37677e-07
8.70124e-05
6.94331e-07
8.70184e-05
7.48811e-07
8.70227e-05
8.02102e-07
8.70252e-05
8.55045e-07
8.70262e-05
9.08346e-07
8.70257e-05
9.626e-07
8.70239e-05
1.01832e-06
8.70209e-05
1.07594e-06
8.70172e-05
1.13581e-06
8.70129e-05
1.19822e-06
8.70084e-05
1.26337e-06
8.70043e-05
1.33137e-06
8.70009e-05
1.40225e-06
8.69988e-05
1.47591e-06
8.69985e-05
1.55219e-06
8.70006e-05
1.63076e-06
8.70056e-05
1.71121e-06
8.70141e-05
1.79302e-06
8.70263e-05
1.87557e-06
8.70427e-05
1.95815e-06
8.70633e-05
2.04006e-06
8.70878e-05
2.12061e-06
8.71159e-05
2.19921e-06
8.71469e-05
2.27547e-06
2.34921e-06
8.71798e-05
8.94084e-05
5.67987e-08
8.94161e-05
1.65255e-07
8.94269e-05
2.63251e-07
8.9439e-05
3.50808e-07
8.94514e-05
4.29557e-07
8.94634e-05
5.01002e-07
8.94746e-05
5.66593e-07
8.94845e-05
6.27771e-07
8.9493e-05
6.85793e-07
8.95001e-05
7.41715e-07
8.95057e-05
7.9645e-07
8.951e-05
8.50784e-07
8.9513e-05
9.05376e-07
8.95148e-05
9.60782e-07
8.95156e-05
1.01747e-06
8.95158e-05
1.07583e-06
8.95154e-05
1.13618e-06
8.95149e-05
1.19874e-06
8.95146e-05
1.26368e-06
8.95149e-05
1.33105e-06
8.95163e-05
1.40085e-06
8.95192e-05
1.47296e-06
8.95243e-05
1.54717e-06
8.95318e-05
1.62319e-06
8.95424e-05
1.70063e-06
8.95564e-05
1.77901e-06
8.95742e-05
1.8578e-06
8.95959e-05
1.93644e-06
8.96216e-05
2.01437e-06
8.96511e-05
2.09109e-06
8.96842e-05
2.16619e-06
8.97201e-05
2.23947e-06
2.31085e-06
8.97585e-05
9.19624e-05
5.42836e-08
9.19693e-05
1.58299e-07
9.19792e-05
2.53354e-07
9.19907e-05
3.39335e-07
9.20028e-05
4.1745e-07
9.20148e-05
4.88959e-07
9.20263e-05
5.55106e-07
9.2037e-05
6.17143e-07
9.20466e-05
6.76196e-07
9.2055e-05
7.33234e-07
9.20624e-05
7.89097e-07
9.20687e-05
8.44509e-07
9.2074e-05
9.00083e-07
9.20784e-05
9.56329e-07
9.20822e-05
1.01367e-06
9.20856e-05
1.07246e-06
9.20888e-05
1.13296e-06
9.20922e-05
1.19535e-06
9.20961e-05
1.25976e-06
9.2101e-05
1.32621e-06
9.21072e-05
1.39465e-06
9.21151e-05
1.46496e-06
9.21254e-05
1.53692e-06
9.21383e-05
1.61025e-06
9.21544e-05
1.68458e-06
9.21739e-05
1.75951e-06
9.21971e-05
1.83458e-06
9.22242e-05
1.90934e-06
9.22552e-05
1.98335e-06
9.22901e-05
2.05625e-06
9.23285e-05
2.12776e-06
9.23702e-05
2.1978e-06
2.2663e-06
9.24147e-05
9.45894e-05
5.20093e-08
9.45958e-05
1.51938e-07
9.46051e-05
2.44086e-07
9.46161e-05
3.28319e-07
9.4628e-05
4.05545e-07
9.46401e-05
4.76812e-07
9.4652e-05
5.43188e-07
9.46634e-05
6.05759e-07
9.46741e-05
6.65525e-07
9.4684e-05
7.23362e-07
9.4693e-05
7.80038e-07
9.47013e-05
8.36214e-07
9.4709e-05
8.92449e-07
9.47161e-05
9.4921e-07
9.47229e-05
1.00688e-06
9.47296e-05
1.06575e-06
9.47365e-05
1.12606e-06
9.47439e-05
1.18795e-06
9.47521e-05
1.2515e-06
9.47616e-05
1.31672e-06
9.47727e-05
1.38354e-06
9.47859e-05
1.45181e-06
9.48015e-05
1.52132e-06
9.482e-05
1.5918e-06
9.48416e-05
1.66293e-06
9.48668e-05
1.73434e-06
9.48957e-05
1.80567e-06
9.49285e-05
1.87654e-06
9.49652e-05
1.9466e-06
9.50059e-05
2.0156e-06
9.50503e-05
2.08333e-06
9.50984e-05
2.14975e-06
2.21482e-06
9.51498e-05
9.72916e-05
4.99043e-08
9.72976e-05
1.46e-07
9.73064e-05
2.3526e-07
9.73171e-05
3.17587e-07
9.7329e-05
3.93676e-07
9.73414e-05
4.644e-07
9.73539e-05
5.30674e-07
9.73662e-05
5.93441e-07
9.73782e-05
6.53582e-07
9.73896e-05
7.11885e-07
9.74006e-05
7.69043e-07
9.74112e-05
8.25654e-07
9.74214e-05
8.82225e-07
9.74315e-05
9.39175e-07
9.74415e-05
9.9684e-07
9.74518e-05
1.05548e-06
9.74625e-05
1.11529e-06
9.74741e-05
1.17637e-06
9.74868e-05
1.23879e-06
9.7501e-05
1.30251e-06
9.75171e-05
1.36746e-06
9.75355e-05
1.43347e-06
9.75564e-05
1.50036e-06
9.75804e-05
1.56786e-06
9.76076e-05
1.63568e-06
9.76384e-05
1.70352e-06
9.76731e-05
1.77104e-06
9.77116e-05
1.83796e-06
9.77542e-05
1.904e-06
9.78009e-05
1.96894e-06
9.78516e-05
2.03263e-06
9.79063e-05
2.09506e-06
2.15616e-06
9.79649e-05
0.000100071
4.79123e-08
0.000100077
1.40342e-07
0.000100085
2.2671e-07
0.000100096
3.06977e-07
0.000100108
3.81692e-07
0.000100121
4.51585e-07
0.000100134
5.17445e-07
0.000100147
5.80083e-07
0.000100161
6.40274e-07
0.000100174
6.98718e-07
0.000100187
7.56034e-07
0.0001002
8.12758e-07
0.000100213
8.69343e-07
0.000100226
9.2616e-07
0.000100239
9.83503e-07
0.000100253
1.0416e-06
0.000100267
1.10059e-06
0.000100283
1.16057e-06
0.000100301
1.22156e-06
0.000100319
1.28352e-06
0.000100341
1.34636e-06
0.000100364
1.40991e-06
0.000100391
1.47399e-06
0.00010042
1.53837e-06
0.000100453
1.60277e-06
0.000100489
1.66693e-06
0.00010053
1.73058e-06
0.000100574
1.79345e-06
0.000100623
1.85532e-06
0.000100676
1.91603e-06
0.000100733
1.97543e-06
0.000100795
2.0335e-06
2.09014e-06
0.000100861
0.00010293
4.59865e-08
0.000102935
1.34843e-07
0.000102944
2.18283e-07
0.000102955
2.96331e-07
0.000102967
3.69439e-07
0.00010298
4.38221e-07
0.000102994
5.03354e-07
0.000103009
5.65537e-07
0.000103024
6.25446e-07
0.000103039
6.83698e-07
0.000103054
7.4084e-07
0.000103069
7.97348e-07
0.000103085
8.53621e-07
0.000103101
9.09985e-07
0.000103118
9.66693e-07
0.000103136
1.02393e-06
0.000103154
1.08182e-06
0.000103175
1.14042e-06
0.000103196
1.19972e-06
0.00010322
1.25968e-06
0.000103246
1.32019e-06
0.000103275
1.3811e-06
0.000103307
1.44223e-06
0.000103342
1.50334e-06
0.000103381
1.56422e-06
0.000103423
1.62461e-06
0.000103469
1.68428e-06
0.00010352
1.743e-06
0.000103574
1.80058e-06
0.000103634
1.85687e-06
0.000103697
1.91175e-06
0.000103766
1.96515e-06
2.01695e-06
0.000103839
0.000105871
4.4088e-08
0.000105876
1.29396e-07
0.000105885
2.09837e-07
0.000105895
2.855e-07
0.000105908
3.56767e-07
0.000105922
4.24161e-07
0.000105937
4.8826e-07
0.000105953
5.49668e-07
0.00010597
6.08969e-07
0.000105987
6.66701e-07
0.000106004
7.23345e-07
0.000106022
7.79315e-07
0.000106041
8.34959e-07
0.00010606
8.90559e-07
0.00010608
9.46329e-07
0.000106102
1.00242e-06
0.000106125
1.05892e-06
0.000106149
1.11586e-06
0.000106176
1.17324e-06
0.000106205
1.23098e-06
0.000106236
1.28896e-06
0.00010627
1.34705e-06
0.000106307
1.40506e-06
0.000106348
1.4628e-06
0.000106392
1.52004e-06
0.00010644
1.57656e-06
0.000106492
1.63216e-06
0.000106548
1.68664e-06
0.000106609
1.73981e-06
0.000106674
1.79153e-06
0.000106745
1.84168e-06
0.00010682
1.89018e-06
1.93687e-06
0.0001069
0.000108895
4.21824e-08
0.000108901
1.23908e-07
0.000108909
2.01246e-07
0.000108921
2.74342e-07
0.000108934
3.43531e-07
0.000108949
4.09258e-07
0.000108965
4.72022e-07
0.000108982
5.32338e-07
0.000109001
5.90708e-07
0.00010902
6.47596e-07
0.00010904
7.03418e-07
0.00010906
7.58532e-07
0.000109082
8.13236e-07
0.000109105
8.67768e-07
0.000109129
9.22305e-07
0.000109154
9.76964e-07
0.000109181
1.03181e-06
0.00010921
1.08686e-06
0.000109242
1.14207e-06
0.000109275
1.19738e-06
0.000109311
1.25266e-06
0.000109351
1.30778e-06
0.000109393
1.36255e-06
0.000109439
1.41679e-06
0.000109489
1.4703e-06
0.000109543
1.52288e-06
0.000109601
1.57434e-06
0.000109663
1.62449e-06
0.000109729
1.67316e-06
0.000109801
1.72021e-06
0.000109877
1.76551e-06
0.000109958
1.80896e-06
1.8504e-06
0.000110044
0.000112006
4.02399e-08
0.000112012
1.18293e-07
0.000112021
1.92388e-07
0.000112033
2.62718e-07
0.000112046
3.29582e-07
0.000112062
3.93364e-07
0.00011208
4.54489e-07
0.000112099
5.13398e-07
0.000112119
5.70517e-07
0.00011214
6.26242e-07
0.000112163
6.80925e-07
0.000112187
7.34872e-07
0.000112211
7.88334e-07
0.000112238
8.41507e-07
0.000112265
8.94531e-07
0.000112295
9.47497e-07
0.000112326
1.00044e-06
0.00011236
1.05337e-06
0.000112396
1.10622e-06
0.000112434
1.15891e-06
0.000112475
1.21133e-06
0.00011252
1.26334e-06
0.000112568
1.31476e-06
0.000112619
1.36542e-06
0.000112674
1.41513e-06
0.000112733
1.46371e-06
0.000112797
1.51097e-06
0.000112865
1.55675e-06
0.000112937
1.60088e-06
0.000113014
1.64321e-06
0.000113096
1.68362e-06
0.000113183
1.72198e-06
1.75813e-06
0.000113275
0.000115206
3.8233e-08
0.000115212
1.12476e-07
0.000115222
1.83154e-07
0.000115234
2.505e-07
0.000115249
3.14786e-07
0.000115266
3.76344e-07
0.000115285
4.35536e-07
0.000115305
4.92732e-07
0.000115327
5.4829e-07
0.000115351
6.02541e-07
0.000115376
6.5578e-07
0.000115403
7.08262e-07
0.000115431
7.60191e-07
0.000115461
8.11725e-07
0.000115492
8.62972e-07
0.000115526
9.13994e-07
0.000115561
9.6481e-07
0.000115599
1.0154e-06
0.00011564
1.06569e-06
0.000115683
1.11561e-06
0.00011573
1.16503e-06
0.000115779
1.21381e-06
0.000115832
1.26179e-06
0.000115889
1.30881e-06
0.000115949
1.35468e-06
0.000116014
1.39923e-06
0.000116082
1.44229e-06
0.000116155
1.48369e-06
0.000116233
1.52329e-06
0.000116315
1.56093e-06
0.000116402
1.59647e-06
0.000116495
1.62979e-06
1.66073e-06
0.000116592
0.000118498
3.61358e-08
0.000118504
1.06381e-07
0.000118514
1.73433e-07
0.000118527
2.37554e-07
0.000118543
2.98993e-07
0.000118561
3.58039e-07
0.000118581
4.14995e-07
0.000118604
4.7017e-07
0.000118628
5.23856e-07
0.000118655
5.76327e-07
0.000118683
6.27823e-07
0.000118712
6.7855e-07
0.000118744
7.28669e-07
0.000118777
7.78303e-07
0.000118813
8.27529e-07
0.00011885
8.76382e-07
0.00011889
9.24861e-07
0.000118933
9.7293e-07
0.000118978
1.02052e-06
0.000119026
1.06753e-06
0.000119077
1.11384e-06
0.000119132
1.15932e-06
0.00011919
1.2038e-06
0.000119251
1.24714e-06
0.000119317
1.28916e-06
0.000119386
1.32969e-06
0.00011946
1.36858e-06
0.000119538
1.40567e-06
0.000119621
1.4408e-06
0.000119708
1.47384e-06
0.000119799
1.50464e-06
0.000119896
1.53307e-06
1.55899e-06
0.000119998
0.000121884
3.39251e-08
0.00012189
9.99438e-08
0.0001219
1.6313e-07
0.000121914
2.23771e-07
0.000121931
2.82096e-07
0.000121951
3.38349e-07
0.000121973
3.92782e-07
0.000121997
4.45643e-07
0.000122024
4.97167e-07
0.000122053
5.47569e-07
0.000122084
5.97039e-07
0.000122116
6.45735e-07
0.000122151
6.93783e-07
0.000122188
7.41267e-07
0.000122228
7.88238e-07
0.000122269
8.3471e-07
0.000122313
8.80662e-07
0.00012236
9.26044e-07
0.00012241
9.70778e-07
0.000122463
1.01476e-06
0.000122519
1.05788e-06
0.000122578
1.09999e-06
0.000122641
1.14095e-06
0.000122708
1.18061e-06
0.000122778
1.2188e-06
0.000122852
1.25537e-06
0.000122931
1.29016e-06
0.000123013
1.32303e-06
0.0001231
1.35383e-06
0.000123192
1.38242e-06
0.000123288
1.40866e-06
0.000123388
1.43244e-06
1.4536e-06
0.000123494
0.000125366
3.15729e-08
0.000125373
9.30842e-08
0.000125384
1.5212e-07
0.000125398
2.08989e-07
0.000125417
2.63901e-07
0.000125438
3.1706e-07
0.000125462
3.68668e-07
0.000125489
4.18918e-07
0.000125518
4.67987e-07
0.000125549
5.16039e-07
0.000125583
5.63213e-07
0.000125619
6.09626e-07
0.000125658
6.55363e-07
0.000125699
7.00479e-07
0.000125742
7.44997e-07
0.000125788
7.88909e-07
0.000125836
8.32181e-07
0.000125887
8.74747e-07
0.000125942
9.16525e-07
0.000125999
9.57412e-07
0.00012606
9.97288e-07
0.000126124
1.03602e-06
0.000126191
1.07347e-06
0.000126262
1.10949e-06
0.000126337
1.14392e-06
0.000126416
1.17662e-06
0.000126499
1.20745e-06
0.000126585
1.23626e-06
0.000126676
1.26292e-06
0.000126771
1.28729e-06
0.000126871
1.30925e-06
0.000126975
1.32868e-06
1.34547e-06
0.000127083
0.000128948
2.90639e-08
0.000128955
8.57562e-08
0.000128967
1.40347e-07
0.000128983
1.93161e-07
0.000129002
2.44383e-07
0.000129025
2.94172e-07
0.000129051
3.4268e-07
0.00012908
3.90044e-07
0.000129111
4.36386e-07
0.000129146
4.81819e-07
0.000129182
5.26437e-07
0.000129222
5.70317e-07
0.000129264
6.13508e-07
0.000129308
6.56038e-07
0.000129355
6.97903e-07
0.000129405
7.39079e-07
0.000129458
7.79516e-07
0.000129513
8.19144e-07
0.000129572
8.57873e-07
0.000129634
8.956e-07
0.000129699
9.32205e-07
0.000129767
9.6756e-07
0.000129839
1.00153e-06
0.000129915
1.03397e-06
0.000129994
1.06475e-06
0.000130077
1.09372e-06
0.000130163
1.12075e-06
0.000130254
1.14571e-06
0.000130348
1.16846e-06
0.000130447
1.18889e-06
0.000130549
1.20689e-06
0.000130656
1.22234e-06
1.23516e-06
0.000130766
0.000132632
2.63453e-08
0.00013264
7.78203e-08
0.000132652
1.27585e-07
0.00013267
1.75988e-07
0.000132691
2.23189e-07
0.000132716
2.69302e-07
0.000132744
3.14423e-07
0.000132775
3.58632e-07
0.00013281
4.01995e-07
0.000132847
4.44575e-07
0.000132887
4.86419e-07
0.00013293
5.27565e-07
0.000132975
5.68028e-07
0.000133024
6.07807e-07
0.000133075
6.46877e-07
0.000133128
6.85197e-07
0.000133185
7.22708e-07
0.000133245
7.5933e-07
0.000133308
7.94973e-07
0.000133374
8.2953e-07
0.000133443
8.62885e-07
0.000133516
8.94913e-07
0.000133592
9.25487e-07
0.000133672
9.54474e-07
0.000133755
9.81743e-07
0.000133841
1.00716e-06
0.000133931
1.03061e-06
0.000134025
1.05197e-06
0.000134122
1.07111e-06
0.000134223
1.08794e-06
0.000134328
1.10236e-06
0.000134436
1.11426e-06
1.12359e-06
0.000134547
0.000136421
2.34465e-08
0.00013643
6.93232e-08
0.000136443
1.13933e-07
0.000136462
1.57631e-07
0.000136484
2.00532e-07
0.000136511
2.42694e-07
0.000136541
2.84156e-07
0.000136575
3.2494e-07
0.000136612
3.65059e-07
0.000136652
4.04527e-07
0.000136695
4.43351e-07
0.000136741
4.81529e-07
0.00013679
5.1905e-07
0.000136842
5.55886e-07
0.000136897
5.91997e-07
0.000136955
6.27326e-07
0.000137016
6.61803e-07
0.00013708
6.95346e-07
0.000137147
7.27858e-07
0.000137217
7.59235e-07
0.00013729
7.89365e-07
0.000137367
8.18128e-07
0.000137447
8.45405e-07
0.000137531
8.71071e-07
0.000137617
8.95006e-07
0.000137708
9.17092e-07
0.000137801
9.37213e-07
0.000137898
9.55262e-07
0.000137998
9.71137e-07
0.000138101
9.84743e-07
0.000138207
9.95995e-07
0.000138317
1.0048e-06
1.01114e-06
0.000138429
0.000140319
2.01751e-08
0.000140329
5.98438e-08
0.000140344
9.87732e-08
0.000140364
1.37351e-07
0.000140389
1.75633e-07
0.000140418
2.13588e-07
0.000140451
2.51177e-07
0.000140488
2.8835e-07
0.000140528
3.25058e-07
0.000140571
3.61264e-07
0.000140617
3.96929e-07
0.000140667
4.32014e-07
0.000140719
4.6648e-07
0.000140775
5.00278e-07
0.000140834
5.33352e-07
0.000140895
5.65632e-07
0.00014096
5.97041e-07
0.000141028
6.27493e-07
0.000141099
6.56891e-07
0.000141173
6.85134e-07
0.00014125
7.12114e-07
0.000141331
7.3772e-07
0.000141414
7.61839e-07
0.000141501
7.84358e-07
0.000141591
8.05167e-07
0.000141684
8.24159e-07
0.00014178
8.41233e-07
0.000141879
8.56292e-07
0.00014198
8.69249e-07
0.000142085
8.80024e-07
0.000142193
8.88546e-07
0.000142303
8.94743e-07
8.98599e-07
0.000142415
0.000144328
1.68339e-08
0.000144338
4.98757e-08
0.000144354
8.277e-08
0.000144375
1.15884e-07
0.000144402
1.49206e-07
0.000144433
1.82624e-07
0.000144468
2.16027e-07
0.000144507
2.4929e-07
0.00014455
2.82304e-07
0.000144596
3.14986e-07
0.000144646
3.47256e-07
0.000144699
3.7904e-07
0.000144755
4.1027e-07
0.000144814
4.40877e-07
0.000144877
4.70788e-07
0.000144943
4.99925e-07
0.000145011
5.28205e-07
0.000145083
5.55538e-07
0.000145158
5.81831e-07
0.000145237
6.06984e-07
0.000145318
6.30897e-07
0.000145402
6.53466e-07
0.000145489
6.74587e-07
0.000145579
6.94158e-07
0.000145673
7.12081e-07
0.000145768
7.28261e-07
0.000145867
7.42608e-07
0.000145968
7.5504e-07
0.000146072
7.65481e-07
0.000146178
7.73866e-07
0.000146287
7.80137e-07
0.000146397
7.84235e-07
7.8616e-07
0.00014651
0.000148452
1.24975e-08
0.000148464
3.78808e-08
0.000148483
6.4104e-08
0.000148507
9.14751e-08
0.000148537
1.1975e-07
0.000148571
1.48594e-07
0.000148609
1.77794e-07
0.000148651
2.07132e-07
0.000148697
2.36433e-07
0.000148747
2.65561e-07
0.000148799
2.94393e-07
0.000148856
3.22825e-07
0.000148915
3.5077e-07
0.000148978
3.78141e-07
0.000149044
4.04855e-07
0.000149113
4.3083e-07
0.000149185
4.55981e-07
0.00014926
4.8022e-07
0.000149339
5.03455e-07
0.00014942
5.25594e-07
0.000149505
5.46543e-07
0.000149592
5.66208e-07
0.000149682
5.84496e-07
0.000149775
6.01316e-07
0.00014987
6.16582e-07
0.000149968
6.3021e-07
0.000150069
6.42124e-07
0.000150172
6.52255e-07
0.000150276
6.60541e-07
0.000150383
6.66928e-07
0.000150492
6.71373e-07
0.000150603
6.7383e-07
6.74309e-07
0.000150714
0.000152693
8.82863e-09
0.000152705
2.59142e-08
0.000152724
4.48297e-08
0.00015275
6.57236e-08
0.000152781
8.838e-08
0.000152818
1.12217e-07
0.000152858
1.36858e-07
0.000152904
1.61936e-07
0.000152953
1.87238e-07
0.000153006
2.12588e-07
0.000153062
2.378e-07
0.000153123
2.62731e-07
0.000153186
2.87271e-07
0.000153253
3.11314e-07
0.000153323
3.34768e-07
0.000153396
3.5755e-07
0.000153473
3.7957e-07
0.000153552
4.00745e-07
0.000153635
4.20988e-07
0.00015372
4.40213e-07
0.000153808
4.58336e-07
0.000153899
4.75272e-07
0.000153993
4.9094e-07
0.000154089
5.05261e-07
0.000154187
5.18161e-07
0.000154288
5.2957e-07
0.00015439
5.39424e-07
0.000154495
5.47664e-07
0.000154601
5.54239e-07
0.000154709
5.59105e-07
0.000154818
5.62227e-07
0.000154929
5.63573e-07
5.63161e-07
0.00015504
0.000157058
1.98697e-09
0.000157075
9.38284e-09
0.000157099
2.09624e-08
0.000157128
3.60428e-08
0.000157163
5.36493e-08
0.000157203
7.27502e-08
0.000157246
9.3127e-08
0.000157294
1.14138e-07
0.000157346
1.35531e-07
0.000157401
1.57116e-07
0.00015746
1.78683e-07
0.000157523
2.00071e-07
0.000157589
2.2116e-07
0.000157659
2.41821e-07
0.000157731
2.6197e-07
0.000157807
2.81529e-07
0.000157887
3.00411e-07
0.000157969
3.18534e-07
0.000158054
3.35819e-07
0.000158142
3.5219e-07
0.000158233
3.67572e-07
0.000158326
3.8189e-07
0.000158422
3.95075e-07
0.00015852
4.07059e-07
0.000158621
4.17781e-07
0.000158723
4.27185e-07
0.000158827
4.35218e-07
0.000158933
4.41837e-07
0.00015904
4.47001e-07
0.000159149
4.50676e-07
0.000159258
4.52837e-07
0.000159368
4.53455e-07
4.52552e-07
0.000159479
0.000161543
-2.76632e-09
0.00016156
-6.96088e-09
0.000161585
-4.76016e-09
0.000161619
2.59795e-09
0.000161657
1.50517e-08
0.000161701
2.92042e-08
0.000161749
4.50457e-08
0.000161801
6.16808e-08
0.000161858
7.9116e-08
0.000161918
9.69612e-08
0.000161982
1.14896e-07
0.000162049
1.32744e-07
0.00016212
1.50417e-07
0.000162194
1.67724e-07
0.000162271
1.84608e-07
0.000162352
2.01002e-07
0.000162435
2.16822e-07
0.000162522
2.31996e-07
0.000162611
2.46455e-07
0.000162703
2.60133e-07
0.000162798
2.72966e-07
0.000162895
2.84892e-07
0.000162994
2.95856e-07
0.000163095
3.05803e-07
0.000163199
3.14686e-07
0.000163303
3.22462e-07
0.000163409
3.29093e-07
0.000163517
3.34543e-07
0.000163625
3.38768e-07
0.000163734
3.4173e-07
0.000163843
3.43414e-07
0.000163953
3.43808e-07
3.42938e-07
0.000164063
0.000166167
-1.63486e-08
0.000166192
-3.15725e-08
0.000166222
-3.4897e-08
0.000166257
-3.217e-08
0.000166297
-2.54972e-08
0.000166342
-1.57879e-08
0.000166391
-3.5796e-09
0.000166444
8.44194e-09
0.000166502
2.16866e-08
0.000166563
3.55556e-08
0.000166628
4.96944e-08
0.000166697
6.38827e-08
0.000166769
7.79878e-08
0.000166845
9.17403e-08
0.000166925
1.0526e-07
0.000167007
1.18402e-07
0.000167093
1.31084e-07
0.000167182
1.43252e-07
0.000167273
1.54848e-07
0.000167368
1.65816e-07
0.000167465
1.76101e-07
0.000167564
1.85653e-07
0.000167665
1.94425e-07
0.000167769
2.02374e-07
0.000167874
2.09464e-07
0.000167981
2.15667e-07
0.000168089
2.20968e-07
0.000168198
2.25387e-07
0.000168308
2.28886e-07
0.000168418
2.31409e-07
0.000168529
2.32923e-07
0.000168639
2.33409e-07
2.32888e-07
0.000168749
0.000170913
-2.88197e-08
0.000170946
-6.45975e-08
0.000170987
-7.56384e-08
0.000171034
-7.92448e-08
0.000171086
-7.71108e-08
0.000171141
-7.09066e-08
0.0001712
-6.26573e-08
0.000171262
-5.34049e-08
0.000171327
-4.32458e-08
0.000171395
-3.26371e-08
0.000171466
-2.19073e-08
0.000171541
-1.10983e-08