/*--------------------------------*- C++ -*----------------------------------*\
  =========                 |
  \\      /  F ield         | OpenFOAM: The Open Source CFD Toolbox
   \\    /   O peration     | Website:  https://openfoam.org
    \\  /    A nd           | Version:  10
     \\/     M anipulation  |
\*---------------------------------------------------------------------------*/
FoamFile
{
    format      ascii;
    class       volVectorField;
    location    "0.11";
    object      U;
}
// * * * * * * * * * * * * * * * * * * * * * * * * * * * * * * * * * * * * * //

dimensions      [0 1 -1 0 0 0 0];

internalField   nonuniform List<vector> 
6820
(
(7.28173 0.0248704 0)
(7.1778 0.0401768 0)
(7.05438 0.0452288 0)
(6.92462 0.0480162 0)
(6.79492 0.0492528 0)
(6.66566 0.0495959 0)
(6.53731 0.0494876 0)
(6.41032 0.04912 0)
(6.28478 0.0486111 0)
(6.16064 0.0480425 0)
(6.0378 0.0474683 0)
(5.9161 0.0469282 0)
(5.79534 0.046455 0)
(5.67525 0.0460782 0)
(5.55553 0.0458257 0)
(5.43581 0.0457259 0)
(5.31567 0.0458083 0)
(5.19461 0.0461042 0)
(5.07208 0.0466472 0)
(4.94743 0.0474728 0)
(4.81993 0.0486179 0)
(4.68875 0.0501196 0)
(4.553 0.0520125 0)
(4.41168 0.0543251 0)
(4.26372 0.0570742 0)
(4.108 0.0602583 0)
(3.94341 0.0638407 0)
(3.76887 0.0677791 0)
(3.58332 0.0718531 0)
(3.38642 0.0763006 0)
(3.17559 0.079723 0)
(2.95817 0.0853872 0)
(2.70706 0.0902214 0)
(7.35925 0.0259645 0)
(7.42108 0.0360044 0)
(7.47621 0.0379966 0)
(7.5265 0.0402572 0)
(7.57249 0.0419605 0)
(7.61302 0.0434339 0)
(7.64804 0.0449559 0)
(7.67791 0.0465361 0)
(7.70291 0.0481773 0)
(7.72328 0.0498947 0)
(7.73927 0.0517012 0)
(7.75111 0.0536136 0)
(7.75897 0.0556551 0)
(7.76302 0.0578564 0)
(7.76337 0.0602553 0)
(7.76009 0.0628982 0)
(7.75321 0.0658413 0)
(7.7427 0.0691514 0)
(7.72847 0.0729071 0)
(7.71038 0.0771998 0)
(7.68818 0.0821342 0)
(7.66157 0.0878285 0)
(7.6301 0.0944132 0)
(7.59325 0.102028 0)
(7.55033 0.110816 0)
(7.50051 0.120916 0)
(7.44284 0.132447 0)
(7.37614 0.145509 0)
(7.29921 0.160096 0)
(7.21032 0.176407 0)
(7.10906 0.193662 0)
(6.99035 0.214419 0)
(6.86547 0.231982 0)
(7.3354 0.00701736 0)
(7.34546 0.0104178 0)
(7.35415 0.0132077 0)
(7.3615 0.016862 0)
(7.36939 0.0200025 0)
(7.3777 0.0227996 0)
(7.38638 0.0254828 0)
(7.39559 0.0280636 0)
(7.40533 0.0305664 0)
(7.41554 0.0330359 0)
(7.42616 0.0355118 0)
(7.43716 0.0380335 0)
(7.44845 0.0406443 0)
(7.45999 0.0433917 0)
(7.47173 0.0463295 0)
(7.48363 0.0495189 0)
(7.49566 0.0530303 0)
(7.50781 0.0569461 0)
(7.52009 0.061362 0)
(7.53251 0.0663899 0)
(7.54512 0.0721594 0)
(7.55796 0.0788199 0)
(7.57111 0.0865412 0)
(7.58465 0.0955127 0)
(7.59868 0.105941 0)
(7.61329 0.118044 0)
(7.62852 0.132041 0)
(7.64442 0.148131 0)
(7.66088 0.16651 0)
(7.67786 0.187261 0)
(7.69495 0.210585 0)
(7.71233 0.23617 0)
(7.72974 0.264604 0)
(7.33492 0.00940803 0)
(7.34233 0.0204679 0)
(7.34758 0.0262134 0)
(7.35048 0.0302033 0)
(7.35276 0.0329461 0)
(7.35448 0.0349645 0)
(7.35557 0.0366758 0)
(7.35621 0.0382277 0)
(7.35652 0.0397052 0)
(7.35651 0.0411816 0)
(7.35623 0.0427099 0)
(7.35572 0.0443314 0)
(7.35499 0.0460853 0)
(7.35408 0.0480109 0)
(7.353 0.0501508 0)
(7.35176 0.0525527 0)
(7.35041 0.0552704 0)
(7.34896 0.0583662 0)
(7.34747 0.0619115 0)
(7.34601 0.0659885 0)
(7.34465 0.0706916 0)
(7.34353 0.0761278 0)
(7.3428 0.0824172 0)
(7.34268 0.0896922 0)
(7.34344 0.098096 0)
(7.34545 0.107779 0)
(7.34915 0.118891 0)
(7.35509 0.131582 0)
(7.3639 0.145963 0)
(7.37644 0.162158 0)
(7.39337 0.180064 0)
(7.41645 0.199807 0)
(7.4452 0.219913 0)
(7.33399 0.00653233 0)
(7.33859 0.0131557 0)
(7.34291 0.0163036 0)
(7.34603 0.0192264 0)
(7.34872 0.0219232 0)
(7.3509 0.0243721 0)
(7.35247 0.0267564 0)
(7.3535 0.0291193 0)
(7.35408 0.0314727 0)
(7.3542 0.0338445 0)
(7.35388 0.036263 0)
(7.35313 0.0387594 0)
(7.35195 0.0413695 0)
(7.35033 0.0441334 0)
(7.34827 0.0470953 0)
(7.34577 0.0503051 0)
(7.34282 0.0538192 0)
(7.33942 0.0577013 0)
(7.33558 0.0620231 0)
(7.33131 0.0668645 0)
(7.32664 0.0723141 0)
(7.32162 0.0784679 0)
(7.31632 0.0854279 0)
(7.31084 0.0932989 0)
(7.30532 0.102184 0)
(7.29995 0.112178 0)
(7.29498 0.123357 0)
(7.29076 0.135768 0)
(7.28766 0.149398 0)
(7.28628 0.164194 0)
(7.28712 0.179881 0)
(7.29135 0.196259 0)
(7.29901 0.211982 0)
(7.33373 0.00552891 0)
(7.33759 0.0136526 0)
(7.34163 0.0192779 0)
(7.34458 0.0239354 0)
(7.34695 0.0276973 0)
(7.34885 0.0307269 0)
(7.35022 0.0333444 0)
(7.35115 0.0357225 0)
(7.35168 0.0379591 0)
(7.35184 0.0401427 0)
(7.35164 0.0423433 0)
(7.35107 0.044611 0)
(7.35014 0.046995 0)
(7.34885 0.0495446 0)
(7.34719 0.0523103 0)
(7.34515 0.0553451 0)
(7.34273 0.0587062 0)
(7.33993 0.0624554 0)
(7.33675 0.0666603 0)
(7.33321 0.0713943 0)
(7.32933 0.0767362 0)
(7.32515 0.0827693 0)
(7.32073 0.0895797 0)
(7.31615 0.0972524 0)
(7.3115 0.105867 0)
(7.30694 0.115488 0)
(7.30262 0.126159 0)
(7.29878 0.137888 0)
(7.29565 0.150615 0)
(7.29356 0.164229 0)
(7.29279 0.178415 0)
(7.29388 0.192859 0)
(7.29675 0.206512 0)
(7.33345 0.00466116 0)
(7.33608 0.0117241 0)
(7.33918 0.0162874 0)
(7.34166 0.0198332 0)
(7.34379 0.022823 0)
(7.3456 0.0254373 0)
(7.34701 0.0278986 0)
(7.34802 0.0303129 0)
(7.34867 0.0327262 0)
(7.34897 0.0351758 0)
(7.34892 0.0376958 0)
(7.34853 0.0403358 0)
(7.3478 0.0431347 0)
(7.34672 0.0461311 0)
(7.34531 0.0493669 0)
(7.34355 0.0528884 0)
(7.34146 0.0567469 0)
(7.33904 0.0609989 0)
(7.33632 0.0657062 0)
(7.3333 0.0709355 0)
(7.33004 0.0767579 0)
(7.32657 0.0832462 0)
(7.32296 0.0904731 0)
(7.31931 0.0985066 0)
(7.31572 0.107405 0)
(7.31232 0.11721 0)
(7.30928 0.127935 0)
(7.30679 0.139556 0)
(7.30506 0.151984 0)
(7.30432 0.165067 0)
(7.30476 0.178499 0)
(7.30664 0.191929 0)
(7.30981 0.204608 0)
(7.3333 0.00402575 0)
(7.33534 0.010807 0)
(7.33807 0.0159445 0)
(7.34045 0.0203151 0)
(7.34248 0.0241535 0)
(7.34419 0.0275077 0)
(7.34551 0.0305377 0)
(7.34644 0.0333679 0)
(7.34703 0.0360769 0)
(7.34729 0.0387455 0)
(7.34723 0.0414503 0)
(7.34685 0.0442218 0)
(7.34616 0.047108 0)
(7.34516 0.0501599 0)
(7.34385 0.0534294 0)
(7.34225 0.0569695 0)
(7.34035 0.0608353 0)
(7.33818 0.0650843 0)
(7.33574 0.0697768 0)
(7.33308 0.0749752 0)
(7.33022 0.0807427 0)
(7.32722 0.0871421 0)
(7.32416 0.0942331 0)
(7.3211 0.102068 0)
(7.31817 0.110687 0)
(7.31549 0.120111 0)
(7.31319 0.130333 0)
(7.31145 0.141307 0)
(7.31043 0.152931 0)
(7.3103 0.165047 0)
(7.31119 0.177385 0)
(7.31322 0.189625 0)
(7.31623 0.201254 0)
(7.3332 0.00357138 0)
(7.33472 0.0098863 0)
(7.33691 0.0147979 0)
(7.33891 0.0188401 0)
(7.34067 0.0223144 0)
(7.3422 0.0253601 0)
(7.34343 0.0281611 0)
(7.34435 0.0308513 0)
(7.34497 0.0335097 0)
(7.34531 0.0361877 0)
(7.34534 0.038917 0)
(7.34509 0.0417714 0)
(7.34456 0.0447976 0)
(7.34374 0.0480372 0)
(7.34266 0.0515322 0)
(7.3413 0.0553267 0)
(7.33969 0.0594674 0)
(7.33784 0.0640033 0)
(7.33577 0.068986 0)
(7.33351 0.0744686 0)
(7.33111 0.0805039 0)
(7.32862 0.0871425 0)
(7.32611 0.0944304 0)
(7.32366 0.102405 0)
(7.32136 0.111088 0)
(7.31932 0.120485 0)
(7.31767 0.130571 0)
(7.31653 0.141288 0)
(7.31604 0.15253 0)
(7.31629 0.164142 0)
(7.31737 0.175893 0)
(7.31928 0.187515 0)
(7.32187 0.19866 0)
(7.33314 0.0032229 0)
(7.33431 0.00914918 0)
(7.33615 0.0140521 0)
(7.33797 0.0182752 0)
(7.33962 0.0220627 0)
(7.34108 0.0255003 0)
(7.34228 0.0286989 0)
(7.34319 0.0317556 0)
(7.34382 0.034736 0)
(7.34419 0.0377066 0)
(7.34428 0.0407382 0)
(7.34412 0.0438602 0)
(7.34369 0.0471145 0)
(7.34301 0.0505467 0)
(7.34208 0.0542039 0)
(7.34092 0.0581338 0)
(7.33954 0.0623849 0)
(7.33796 0.0670067 0)
(7.3362 0.0720489 0)
(7.33431 0.0775608 0)
(7.33233 0.0835893 0)
(7.3303 0.0901779 0)
(7.32829 0.0973632 0)
(7.32637 0.105172 0)
(7.32464 0.113616 0)
(7.32318 0.122689 0)
(7.3221 0.13236 0)
(7.32149 0.142565 0)
(7.32145 0.153206 0)
(7.32204 0.164146 0)
(7.32328 0.175201 0)
(7.32514 0.186162 0)
(7.32747 0.196803 0)
(7.3331 0.00295608 0)
(7.33401 0.00853212 0)
(7.33553 0.0133138 0)
(7.33711 0.0174669 0)
(7.33856 0.0211783 0)
(7.33987 0.0245393 0)
(7.34098 0.0276641 0)
(7.34185 0.0306609 0)
(7.34248 0.0336085 0)
(7.34288 0.0365645 0)
(7.34304 0.0395758 0)
(7.34298 0.0427014 0)
(7.34269 0.0459906 0)
(7.34218 0.0494883 0)
(7.34146 0.0532373 0)
(7.34054 0.0572802 0)
(7.33945 0.0616594 0)
(7.33819 0.0664172 0)
(7.3368 0.0715959 0)
(7.33532 0.077236 0)
(7.33378 0.0833752 0)
(7.33223 0.0900467 0)
(7.33074 0.0972761 0)
(7.32938 0.105079 0)
(7.32821 0.113458 0)
(7.32732 0.122398 0)
(7.32679 0.131861 0)
(7.32669 0.141786 0)
(7.32708 0.152084 0)
(7.328 0.16264 0)
(7.32944 0.173309 0)
(7.33135 0.183939 0)
(7.33358 0.194387 0)
(7.33308 0.00274484 0)
(7.3338 0.00801133 0)
(7.33508 0.0126772 0)
(7.33647 0.0168275 0)
(7.33781 0.0206156 0)
(7.33904 0.024125 0)
(7.34012 0.0274433 0)
(7.341 0.0306545 0)
(7.34167 0.0338225 0)
(7.34214 0.0370022 0)
(7.34239 0.040248 0)
(7.34245 0.0436038 0)
(7.3423 0.0471099 0)
(7.34196 0.0508065 0)
(7.34144 0.0547342 0)
(7.34075 0.0589334 0)
(7.33991 0.0634447 0)
(7.33895 0.0683081 0)
(7.33789 0.073562 0)
(7.33677 0.0792428 0)
(7.33563 0.0853833 0)
(7.33452 0.0920107 0)
(7.3335 0.0991446 0)
(7.33262 0.106795 0)
(7.33196 0.114958 0)
(7.33157 0.123615 0)
(7.33152 0.132731 0)
(7.33187 0.142251 0)
(7.33266 0.152098 0)
(7.33389 0.162182 0)
(7.33555 0.172397 0)
(7.33757 0.182639 0)
(7.33985 0.192823 0)
(7.33306 0.00257365 0)
(7.33365 0.00756934 0)
(7.33472 0.0121059 0)
(7.33595 0.0162078 0)
(7.33716 0.0199823 0)
(7.33829 0.0234983 0)
(7.33931 0.0268299 0)
(7.34016 0.0300551 0)
(7.34085 0.0332393 0)
(7.34136 0.0364374 0)
(7.34169 0.0396998 0)
(7.34184 0.0430741 0)
(7.34183 0.0466049 0)
(7.34166 0.0503339 0)
(7.34135 0.0543016 0)
(7.3409 0.0585464 0)
(7.34034 0.0631055 0)
(7.33969 0.0680144 0)
(7.33898 0.0733062 0)
(7.33825 0.0790111 0)
(7.33753 0.0851548 0)
(7.33687 0.0917573 0)
(7.33633 0.0988312 0)
(7.33594 0.10638 0)
(7.33578 0.114395 0)
(7.33588 0.122856 0)
(7.33631 0.131729 0)
(7.33711 0.140964 0)
(7.33829 0.150501 0)
(7.33986 0.160267 0)
(7.34179 0.170188 0)
(7.34403 0.180197 0)
(7.34648 0.190246 0)
(7.33305 0.00243137 0)
(7.33353 0.00718833 0)
(7.33445 0.0115936 0)
(7.33554 0.0156439 0)
(7.33665 0.0194191 0)
(7.33773 0.0229817 0)
(7.33872 0.0263958 0)
(7.33958 0.0297285 0)
(7.34031 0.0330375 0)
(7.3409 0.0363726 0)
(7.34133 0.0397808 0)
(7.34162 0.0433055 0)
(7.34177 0.0469857 0)
(7.34179 0.0508583 0)
(7.34168 0.0549589 0)
(7.34148 0.0593217 0)
(7.34119 0.0639797 0)
(7.34084 0.0689641 0)
(7.34047 0.0743036 0)
(7.3401 0.0800237 0)
(7.33977 0.0861456 0)
(7.33952 0.0926845 0)
(7.33941 0.0996491 0)
(7.33947 0.107039 0)
(7.33976 0.114846 0)
(7.34032 0.123049 0)
(7.34118 0.131618 0)
(7.34239 0.140513 0)
(7.34394 0.149686 0)
(7.34585 0.159085 0)
(7.34807 0.16866 0)
(7.35058 0.178372 0)
(7.35329 0.188198 0)
(7.33304 0.00231013 0)
(7.33345 0.00685528 0)
(7.33425 0.0111298 0)
(7.33522 0.0151154 0)
(7.33625 0.0188675 0)
(7.33726 0.022436 0)
(7.33822 0.0258737 0)
(7.33909 0.0292379 0)
(7.33985 0.0325815 0)
(7.34049 0.0359522 0)
(7.34101 0.0393945 0)
(7.34142 0.04295 0)
(7.34171 0.0466577 0)
(7.34191 0.050554 0)
(7.34201 0.0546735 0)
(7.34205 0.0590491 0)
(7.34203 0.0637112 0)
(7.34199 0.068688 0)
(7.34195 0.0740045 0)
(7.34194 0.0796817 0)
(7.342 0.0857364 0)
(7.34217 0.0921797 0)
(7.34249 0.0990159 0)
(7.34299 0.106243 0)
(7.34372 0.113849 0)
(7.34472 0.121816 0)
(7.34602 0.130117 0)
(7.34763 0.138719 0)
(7.34957 0.147586 0)
(7.35184 0.156679 0)
(7.35441 0.165967 0)
(7.35725 0.175427 0)
(7.36031 0.185051 0)
(7.33303 0.00220429 0)
(7.33339 0.00655905 0)
(7.33409 0.0107045 0)
(7.33497 0.0146181 0)
(7.33593 0.0183385 0)
(7.3369 0.0219083 0)
(7.33785 0.0253734 0)
(7.33874 0.0287843 0)
(7.33955 0.0321891 0)
(7.34027 0.0356314 0)
(7.3409 0.0391521 0)
(7.34144 0.0427897 0)
(7.3419 0.0465795 0)
(7.34229 0.0505542 0)
(7.34262 0.0547447 0)
(7.3429 0.0591794 0)
(7.34315 0.0638848 0)
(7.34341 0.0688845 0)
(7.3437 0.0741991 0)
(7.34404 0.0798459 0)
(7.34447 0.0858374 0)
(7.34502 0.0921812 0)
(7.34574 0.0988794 0)
(7.34666 0.105928 0)
(7.3478 0.113316 0)
(7.34921 0.121026 0)
(7.35091 0.129037 0)
(7.35291 0.137323 0)
(7.35523 0.145856 0)
(7.35785 0.15461 0)
(7.36078 0.163565 0)
(7.36398 0.172712 0)
(7.36742 0.182049 0)
(7.33303 0.00210966 0)
(7.33334 0.00629063 0)
(7.33397 0.0103092 0)
(7.33478 0.0141435 0)
(7.33569 0.0178199 0)
(7.33663 0.0213732 0)
(7.33757 0.0248416 0)
(7.33848 0.0282682 0)
(7.33934 0.0316953 0)
(7.34013 0.0351626 0)
(7.34087 0.0387079 0)
(7.34154 0.0423665 0)
(7.34216 0.0461717 0)
(7.34273 0.050154 0)
(7.34326 0.0543423 0)
(7.34378 0.0587626 0)
(7.3443 0.063439 0)
(7.34485 0.0683924 0)
(7.34545 0.0736406 0)
(7.34613 0.0791977 0)
(7.34692 0.0850734 0)
(7.34785 0.0912728 0)
(7.34896 0.0977961 0)
(7.35027 0.104638 0)
(7.35182 0.111788 0)
(7.35362 0.119231 0)
(7.35571 0.126949 0)
(7.3581 0.134921 0)
(7.36079 0.143126 0)
(7.36379 0.151546 0)
(7.36709 0.160167 0)
(7.37068 0.168989 0)
(7.37453 0.178008 0)
(7.33303 0.00202307 0)
(7.33331 0.00604251 0)
(7.33388 0.00993592 0)
(7.33464 0.0136844 0)
(7.33551 0.0173068 0)
(7.33643 0.0208316 0)
(7.33738 0.0242918 0)
(7.33832 0.0277252 0)
(7.33924 0.0311697 0)
(7.34012 0.0346615 0)
(7.34097 0.038235 0)
(7.34178 0.0419228 0)
(7.34256 0.045755 0)
(7.34332 0.0497591 0)
(7.34407 0.0539606 0)
(7.34483 0.0583825 0)
(7.34562 0.0630449 0)
(7.34646 0.0679654 0)
(7.34736 0.0731581 0)
(7.34837 0.0786338 0)
(7.34951 0.0843993 0)
(7.35079 0.0904572 0)
(7.35227 0.096806 0)
(7.35395 0.10344 0)
(7.35587 0.110348 0)
(7.35806 0.117519 0)
(7.36052 0.124935 0)
(7.36327 0.132581 0)
(7.36633 0.14044 0)
(7.36969 0.148499 0)
(7.37336 0.15675 0)
(7.37733 0.165192 0)
(7.38159 0.173824 0)
(7.33303 0.001942 0)
(7.33328 0.00580842 0)
(7.33382 0.00957726 0)
(7.33454 0.0132338 0)
(7.33538 0.0167918 0)
(7.33629 0.0202746 0)
(7.33726 0.0237104 0)
(7.33823 0.0271314 0)
(7.33921 0.030571 0)
(7.34019 0.0340613 0)
(7.34114 0.0376333 0)
(7.34209 0.0413162 0)
(7.34304 0.0451371 0)
(7.34398 0.049121 0)
(7.34494 0.0532906 0)
(7.34594 0.0576662 0)
(7.34698 0.0622655 0)
(7.34809 0.0671033 0)
(7.34929 0.0721914 0)
(7.35061 0.0775383 0)
(7.35208 0.0831487 0)
(7.3537 0.0890236 0)
(7.35553 0.0951604 0)
(7.35757 0.101553 0)
(7.35984 0.108191 0)
(7.36239 0.115064 0)
(7.3652 0.122158 0)
(7.36831 0.129459 0)
(7.37172 0.136953 0)
(7.37544 0.14463 0)
(7.37947 0.152482 0)
(7.38382 0.16051 0)
(7.38849 0.168709 0)
(7.33302 0.00186443 0)
(7.33327 0.00558304 0)
(7.33377 0.00922662 0)
(7.33447 0.0127849 0)
(7.33529 0.0162685 0)
(7.33621 0.0196967 0)
(7.3372 0.0230941 0)
(7.33822 0.0264885 0)
(7.33927 0.0299094 0)
(7.34034 0.0333854 0)
(7.34141 0.0369445 0)
(7.3425 0.0406129 0)
(7.34361 0.0444149 0)
(7.34474 0.0483727 0)
(7.34591 0.0525062 0)
(7.34714 0.0568328 0)
(7.34843 0.0613672 0)
(7.34981 0.0661216 0)
(7.3513 0.0711048 0)
(7.35292 0.0763228 0)
(7.3547 0.0817781 0)
(7.35665 0.08747 0)
(7.3588 0.0933947 0)
(7.36117 0.0995453 0)
(7.36379 0.105913 0)
(7.36666 0.112485 0)
(7.36981 0.119251 0)
(7.37326 0.126198 0)
(7.377 0.133313 0)
(7.38105 0.140588 0)
(7.38542 0.148014 0)
(7.39013 0.15559 0)
(7.39515 0.163307 0)
(7.33302 0.00178868 0)
(7.33326 0.00536176 0)
(7.33375 0.00887798 0)
(7.33443 0.0123312 0)
(7.33525 0.0157301 0)
(7.33618 0.019091 0)
(7.3372 0.022435 0)
(7.33827 0.0257861 0)
(7.33939 0.0291697 0)
(7.34056 0.0326111 0)
(7.34175 0.0361348 0)
(7.34298 0.0397639 0)
(7.34425 0.0435198 0)
(7.34556 0.0474219 0)
(7.34694 0.0514872 0)
(7.34838 0.0557308 0)
(7.34992 0.0601648 0)
(7.35156 0.0647989 0)
(7.35332 0.0696399 0)
(7.35522 0.0746919 0)
(7.35729 0.0799559 0)
(7.35955 0.0854298 0)
(7.36201 0.0911092 0)
(7.36469 0.0969868 0)
(7.36762 0.103053 0)
(7.37081 0.109298 0)
(7.37427 0.11571 0)
(7.37803 0.122277 0)
(7.38208 0.128987 0)
(7.38644 0.135831 0)
(7.39113 0.1428 0)
(7.39615 0.149888 0)
(7.4015 0.157085 0)
(7.33302 0.0017133 0)
(7.33325 0.00514058 0)
(7.33373 0.00852582 0)
(7.33441 0.0118666 0)
(7.33524 0.0151705 0)
(7.33619 0.0184516 0)
(7.33724 0.0217281 0)
(7.33838 0.0250209 0)
(7.33958 0.028352 0)
(7.34084 0.0317437 0)
(7.34215 0.0352173 0)
(7.34352 0.0387933 0)
(7.34495 0.0424902 0)
(7.34644 0.0463247 0)
(7.34802 0.0503116 0)
(7.34968 0.0544631 0)
(7.35145 0.0587889 0)
(7.35333 0.0632965 0)
(7.35535 0.0679904 0)
(7.35753 0.0728726 0)
(7.35987 0.0779425 0)
(7.36241 0.0831968 0)
(7.36516 0.0886297 0)
(7.36814 0.0942336 0)
(7.37135 0.0999987 0)
(7.37483 0.105914 0)
(7.37858 0.111969 0)
(7.38262 0.11815 0)
(7.38695 0.124447 0)
(7.39159 0.130849 0)
(7.39655 0.137344 0)
(7.40185 0.143925 0)
(7.40748 0.150576 0)
(7.33302 0.00163702 0)
(7.33325 0.00491589 0)
(7.33373 0.00816494 0)
(7.33441 0.0113849 0)
(7.33525 0.0145827 0)
(7.33623 0.0177707 0)
(7.33733 0.0209644 0)
(7.33853 0.0241817 0)
(7.33981 0.0274415 0)
(7.34117 0.0307629 0)
(7.34261 0.0341642 0)
(7.34412 0.037663 0)
(7.3457 0.0412752 0)
(7.34738 0.045015 0)
(7.34914 0.0488944 0)
(7.35101 0.0529235 0)
(7.353 0.0571099 0)
(7.35512 0.0614588 0)
(7.35738 0.0659732 0)
(7.35981 0.0706535 0)
(7.36242 0.0754976 0)
(7.36522 0.0805014 0)
(7.36824 0.0856582 0)
(7.37148 0.0909598 0)
(7.37496 0.0963964 0)
(7.3787 0.101957 0)
(7.38271 0.10763 0)
(7.38699 0.113402 0)
(7.39157 0.119263 0)
(7.39646 0.125199 0)
(7.40165 0.131197 0)
(7.40718 0.137248 0)
(7.41303 0.143331 0)
(7.33302 0.00155871 0)
(7.33325 0.00468447 0)
(7.33373 0.00779074 0)
(7.33443 0.0108809 0)
(7.33529 0.0139619 0)
(7.33631 0.0170446 0)
(7.33746 0.0201426 0)
(7.33872 0.0232713 0)
(7.34009 0.0264467 0)
(7.34155 0.0296853 0)
(7.3431 0.0330027 0)
(7.34475 0.0364137 0)
(7.34649 0.0399316 0)
(7.34833 0.0435682 0)
(7.35028 0.0473331 0)
(7.35235 0.051234 0)
(7.35454 0.0552763 0)
(7.35688 0.0594634 0)
(7.35938 0.0637963 0)
(7.36204 0.0682738 0)
(7.36489 0.0728924 0)
(7.36793 0.0776467 0)
(7.37119 0.0825292 0)
(7.37467 0.0875308 0)
(7.37839 0.0926412 0)
(7.38237 0.0978489 0)
(7.3866 0.103142 0)
(7.39111 0.108506 0)
(7.3959 0.11393 0)
(7.40098 0.119399 0)
(7.40637 0.124898 0)
(7.41208 0.130415 0)
(7.41809 0.135929 0)
(7.33302 0.00147732 0)
(7.33325 0.00444321 0)
(7.33375 0.0073983 0)
(7.33446 0.0103481 0)
(7.33535 0.0132993 0)
(7.33641 0.0162613 0)
(7.33762 0.0192457 0)
(7.33895 0.0222653 0)
(7.34041 0.0253336 0)
(7.34197 0.0284643 0)
(7.34365 0.0316704 0)
(7.34543 0.0349643 0)
(7.34733 0.0383571 0)
(7.34933 0.0418581 0)
(7.35146 0.045475 0)
(7.35372 0.0492136 0)
(7.35612 0.0530776 0)
(7.35866 0.0570687 0)
(7.36137 0.0611865 0)
(7.36425 0.0654284 0)
(7.36732 0.0697901 0)
(7.37059 0.074265 0)
(7.37406 0.0788453 0)
(7.37776 0.0835212 0)
(7.38169 0.088282 0)
(7.38587 0.0931157 0)
(7.3903 0.0980093 0)
(7.39499 0.102949 0)
(7.39995 0.107922 0)
(7.40519 0.112911 0)
(7.41073 0.117903 0)
(7.41656 0.12288 0)
(7.42269 0.127824 0)
(7.33302 0.00139188 0)
(7.33326 0.00418947 0)
(7.33377 0.00698423 0)
(7.3345 0.00978382 0)
(7.33543 0.0125952 0)
(7.33653 0.015427 0)
(7.3378 0.0182892 0)
(7.3392 0.0211927 0)
(7.34075 0.0241487 0)
(7.34241 0.0271681 0)
(7.3442 0.0302615 0)
(7.34612 0.0334387 0)
(7.34815 0.036708 0)
(7.35031 0.0400767 0)
(7.35261 0.04355 0)
(7.35504 0.0471317 0)
(7.35762 0.0508235 0)
(7.36036 0.0546253 0)
(7.36326 0.0585351 0)
(7.36634 0.0625491 0)
(7.36961 0.0666616 0)
(7.37307 0.0708653 0)
(7.37674 0.0751515 0)
(7.38063 0.0795099 0)
(7.38475 0.083929 0)
(7.3891 0.0883965 0)
(7.39369 0.0928988 0)
(7.39853 0.0974217 0)
(7.40363 0.101951 0)
(7.40899 0.10647 0)
(7.41463 0.110962 0)
(7.42054 0.115411 0)
(7.42673 0.119797 0)
(7.33302 0.00130136 0)
(7.33327 0.00391986 0)
(7.33379 0.006542 0)
(7.33456 0.00917663 0)
(7.33553 0.0118301 0)
(7.33668 0.0145097 0)
(7.33801 0.0172237 0)
(7.3395 0.0199807 0)
(7.34114 0.0227899 0)
(7.34292 0.0256602 0)
(7.34483 0.0286002 0)
(7.34687 0.0316177 0)
(7.34905 0.0347194 0)
(7.35137 0.0379107 0)
(7.35382 0.0411955 0)
(7.35642 0.0445759 0)
(7.35918 0.0480524 0)
(7.36209 0.0516236 0)
(7.36518 0.0552866 0)
(7.36844 0.0590365 0)
(7.37189 0.0628671 0)
(7.37552 0.0667703 0)
(7.37937 0.0707368 0)
(7.38342 0.0747558 0)
(7.38768 0.0788156 0)
(7.39217 0.082903 0)
(7.39689 0.0870044 0)
(7.40185 0.091105 0)
(7.40704 0.0951895 0)
(7.41248 0.0992418 0)
(7.41817 0.103245 0)
(7.42411 0.10718 0)
(7.4303 0.11103 0)
(7.33302 0.00120494 0)
(7.33328 0.00363303 0)
(7.33383 0.00607266 0)
(7.33462 0.00853507 0)
(7.33563 0.0110272 0)
(7.33684 0.0135557 0)
(7.33823 0.0161272 0)
(7.33979 0.0187483 0)
(7.34151 0.0214253 0)
(7.34338 0.0241645 0)
(7.3454 0.0269715 0)
(7.34757 0.0298516 0)
(7.34987 0.032809 0)
(7.35232 0.0358466 0)
(7.35493 0.0389662 0)
(7.35768 0.0421681 0)
(7.36059 0.0454511 0)
(7.36367 0.0488124 0)
(7.36691 0.0522476 0)
(7.37034 0.0557513 0)
(7.37394 0.0593162 0)
(7.37774 0.0629338 0)
(7.38173 0.0665942 0)
(7.38592 0.0702864 0)
(7.39031 0.0739983 0)
(7.39492 0.0777167 0)
(7.39974 0.0814278 0)
(7.40478 0.085117 0)
(7.41004 0.0887687 0)
(7.41552 0.092367 0)
(7.42123 0.0958948 0)
(7.42716 0.0993342 0)
(7.43331 0.102668 0)
(7.33303 0.00110119 0)
(7.33329 0.00332232 0)
(7.33387 0.00555916 0)
(7.33471 0.00782304 0)
(7.33577 0.0101198 0)
(7.33705 0.012455 0)
(7.33852 0.014834 0)
(7.34017 0.0172623 0)
(7.34199 0.0197452 0)
(7.34397 0.0222876 0)
(7.34611 0.0248942 0)
(7.3484 0.0275689 0)
(7.35083 0.0303148 0)
(7.35342 0.0331338 0)
(7.35617 0.0360263 0)
(7.35906 0.0389916 0)
(7.36212 0.0420276 0)
(7.36534 0.0451306 0)
(7.36873 0.0482958 0)
(7.3723 0.0515167 0)
(7.37604 0.0547854 0)
(7.37996 0.058093 0)
(7.38407 0.0614291 0)
(7.38837 0.0647825 0)
(7.39286 0.0681407 0)
(7.39754 0.0714906 0)
(7.40243 0.074818 0)
(7.40751 0.0781083 0)
(7.41279 0.0813461 0)
(7.41827 0.0845152 0)
(7.42395 0.0875992 0)
(7.42983 0.0905799 0)
(7.4359 0.0934414 0)
(7.33303 0.000989949 0)
(7.3333 0.00299322 0)
(7.3339 0.0050253 0)
(7.33477 0.00710086 0)
(7.33588 0.0092256 0)
(7.33721 0.0114025 0)
(7.33874 0.0136337 0)
(7.34046 0.015921 0)
(7.34236 0.0182658 0)
(7.34443 0.0206695 0)
(7.34666 0.0231337 0)
(7.34906 0.0256595 0)
(7.35161 0.0282474 0)
(7.35432 0.0308971 0)
(7.35719 0.0336077 0)
(7.36022 0.0363767 0)
(7.36341 0.0392012 0)
(7.36677 0.0420766 0)
(7.37029 0.0449973 0)
(7.37398 0.0479565 0)
(7.37784 0.0509461 0)
(7.38188 0.0539571 0)
(7.3861 0.0569792 0)
(7.39049 0.0600014 0)
(7.39506 0.0630116 0)
(7.39981 0.0659971 0)
(7.40474 0.0689444 0)
(7.40985 0.0718395 0)
(7.41514 0.0746677 0)
(7.4206 0.0774138 0)
(7.42623 0.0800623 0)
(7.43203 0.0825963 0)
(7.43799 0.085002 0)
(7.33303 0.000867107 0)
(7.33333 0.00262008 0)
(7.33398 0.00439967 0)
(7.33492 0.00622082 0)
(7.3361 0.00808984 0)
(7.33752 0.010011 0)
(7.33914 0.0119875 0)
(7.34096 0.0140214 0)
(7.34297 0.0161143 0)
(7.34514 0.0182675 0)
(7.34749 0.0204818 0)
(7.34999 0.0227575 0)
(7.35266 0.0250941 0)
(7.35549 0.0274905 0)
(7.35847 0.0299446 0)
(7.36162 0.0324531 0)
(7.36492 0.0350118 0)
(7.36838 0.0376154 0)
(7.37201 0.0402575 0)
(7.3758 0.0429307 0)
(7.37975 0.0456264 0)
(7.38387 0.0483351 0)
(7.38816 0.0510465 0)
(7.3926 0.0537492 0)
(7.39722 0.0564312 0)
(7.40199 0.0590798 0)
(7.40693 0.0616818 0)
(7.41202 0.0642232 0)
(7.41727 0.0666899 0)
(7.42267 0.0690672 0)
(7.42821 0.0713401 0)
(7.4339 0.0734928 0)
(7.43971 0.0755126 0)
(7.33303 0.000737872 0)
(7.33333 0.00224995 0)
(7.334 0.00382159 0)
(7.33496 0.00546737 0)
(7.33618 0.0071855 0)
(7.33765 0.00897073 0)
(7.33933 0.010819 0)
(7.34122 0.0127265 0)
(7.3433 0.0146897 0)
(7.34556 0.0167061 0)
(7.348 0.0187735 0)
(7.3506 0.02089 0)
(7.35338 0.0230537 0)
(7.35631 0.0252623 0)
(7.35941 0.0275131 0)
(7.36267 0.0298024 0)
(7.36609 0.0321258 0)
(7.36966 0.0344781 0)
(7.3734 0.0368531 0)
(7.37729 0.0392437 0)
(7.38134 0.0416421 0)
(7.38554 0.0440394 0)
(7.3899 0.0464259 0)
(7.39441 0.0487914 0)
(7.39906 0.0511249 0)
(7.40386 0.0534149 0)
(7.40881 0.0556492 0)
(7.41388 0.0578155 0)
(7.41909 0.059901 0)
(7.42443 0.0618927 0)
(7.42988 0.0637774 0)
(7.43544 0.0655409 0)
(7.4411 0.067173 0)
(7.33304 0.000579812 0)
(7.33341 0.00174891 0)
(7.33418 0.00296019 0)
(7.33526 0.00423979 0)
(7.3366 0.00559742 0)
(7.33817 0.00703368 0)
(7.33995 0.00854621 0)
(7.34194 0.0101309 0)
(7.34412 0.0117846 0)
(7.34647 0.0135043 0)
(7.349 0.0152859 0)
(7.35169 0.0171254 0)
(7.35455 0.0190188 0)
(7.35757 0.020962 0)
(7.36075 0.0229505 0)
(7.36408 0.0249792 0)
(7.36757 0.0270423 0)
(7.37122 0.0291336 0)
(7.37501 0.031246 0)
(7.37896 0.0333717 0)
(7.38305 0.0355023 0)
(7.38729 0.0376287 0)
(7.39167 0.039741 0)
(7.39619 0.0418288 0)
(7.40084 0.0438813 0)
(7.40562 0.0458872 0)
(7.41053 0.0478346 0)
(7.41555 0.0497117 0)
(7.42068 0.0515061 0)
(7.42591 0.0532055 0)
(7.43124 0.0547977 0)
(7.43666 0.0562696 0)
(7.44215 0.057612 0)
(7.33303 0.000444928 0)
(7.33336 0.00140608 0)
(7.33412 0.00248475 0)
(7.33522 0.00367635 0)
(7.3366 0.00495818 0)
(7.33823 0.00631313 0)
(7.34009 0.00773522 0)
(7.34216 0.00921393 0)
(7.34443 0.0107411 0)
(7.34688 0.0123123 0)
(7.34951 0.0139241 0)
(7.35231 0.0155729 0)
(7.35528 0.0172558 0)
(7.35841 0.0189693 0)
(7.3617 0.0207099 0)
(7.36514 0.0224739 0)
(7.36874 0.0242567 0)
(7.37248 0.0260531 0)
(7.37637 0.0278573 0)
(7.3804 0.0296629 0)
(7.38457 0.0314629 0)
(7.38887 0.0332496 0)
(7.3933 0.0350147 0)
(7.39786 0.0367495 0)
(7.40253 0.038445 0)
(7.40731 0.0400917 0)
(7.41219 0.0416797 0)
(7.41717 0.0431992 0)
(7.42224 0.04464 0)
(7.42738 0.0459916 0)
(7.43259 0.0472439 0)
(7.43786 0.0483859 0)
(7.44318 0.04941 0)
(7.33306 0.000163863 0)
(7.33359 0.000516447 0)
(7.33456 0.000980502 0)
(7.33583 0.00159881 0)
(7.33734 0.00238627 0)
(7.33907 0.00330102 0)
(7.34102 0.00432309 0)
(7.34316 0.00544017 0)
(7.34548 0.00664433 0)
(7.34798 0.0079229 0)
(7.35066 0.00926389 0)
(7.3535 0.0106589 0)
(7.35651 0.0121014 0)
(7.35967 0.0135843 0)
(7.363 0.0151012 0)
(7.36647 0.0166465 0)
(7.37009 0.0182138 0)
(7.37386 0.0197968 0)
(7.37777 0.0213886 0)
(7.38181 0.0229822 0)
(7.38599 0.0245699 0)
(7.39029 0.0261437 0)
(7.39471 0.0276954 0)
(7.39924 0.0292163 0)
(7.40387 0.0306974 0)
(7.40861 0.0321293 0)
(7.41343 0.0335027 0)
(7.41834 0.0348077 0)
(7.42332 0.0360347 0)
(7.42835 0.037174 0)
(7.43344 0.0382168 0)
(7.43857 0.0391532 0)
(7.44372 0.0399775 0)
(7.33303 0.000100045 0)
(7.33345 0.000486308 0)
(7.33442 0.00109833 0)
(7.3358 0.00183394 0)
(7.33746 0.00262613 0)
(7.33932 0.00349809 0)
(7.3414 0.0044448 0)
(7.34369 0.00542068 0)
(7.34616 0.00643207 0)
(7.34881 0.00748339 0)
(7.35162 0.00856851 0)
(7.3546 0.00968213 0)
(7.35773 0.0108207 0)
(7.36102 0.0119801 0)
(7.36446 0.0131585 0)
(7.36804 0.0143523 0)
(7.37177 0.0155567 0)
(7.37563 0.0167676 0)
(7.37962 0.0179802 0)
(7.38374 0.0191895 0)
(7.38798 0.0203899 0)
(7.39233 0.0215757 0)
(7.39678 0.0227405 0)
(7.40133 0.0238782 0)
(7.40597 0.0249821 0)
(7.41069 0.0260459 0)
(7.41548 0.0270628 0)
(7.42033 0.0280262 0)
(7.42522 0.0289287 0)
(7.43015 0.0297622 0)
(7.43511 0.0305185 0)
(7.44009 0.0311892 0)
(7.44506 0.0317687 0)
(7.33314 -0.000527774 0)
(7.33401 -0.00141888 0)
(7.33529 -0.00184505 0)
(7.33673 -0.00191637 0)
(7.33837 -0.00175614 0)
(7.34027 -0.00137018 0)
(7.34235 -0.000813486 0)
(7.34459 -0.000107893 0)
(7.34703 0.000697385 0)
(7.34965 0.00157041 0)
(7.35245 0.00249819 0)
(7.35541 0.00347006 0)
(7.35852 0.0044822 0)
(7.3618 0.00551466 0)
(7.36523 0.00656789 0)
(7.3688 0.00763831 0)
(7.37252 0.00871961 0)
(7.37637 0.00980613 0)
(7.38035 0.0108925 0)
(7.38445 0.0119732 0)
(7.38867 0.0130424 0)
(7.393 0.0140942 0)
(7.39743 0.0151225 0)
(7.40195 0.0161207 0)
(7.40656 0.0170824 0)
(7.41124 0.0180008 0)
(7.41599 0.0188692 0)
(7.42078 0.0196805 0)
(7.42562 0.0204271 0)
(7.43048 0.0211035 0)
(7.43536 0.0217053 0)
(7.44024 0.0222276 0)
(7.4451 0.0226681 0)
(7.33309 -0.000211391 0)
(7.33403 -0.000368066 0)
(7.33573 -0.000304929 0)
(7.33766 -0.000167822 0)
(7.33977 7.30409e-05 0)
(7.34206 0.00038405 0)
(7.34452 0.000727004 0)
(7.34712 0.00112703 0)
(7.34984 0.00156506 0)
(7.35269 0.0020276 0)
(7.35568 0.00251408 0)
(7.35883 0.00302439 0)
(7.36211 0.00355122 0)
(7.36552 0.00410605 0)
(7.36909 0.00467829 0)
(7.37279 0.0052628 0)
(7.37662 0.00585801 0)
(7.38057 0.00646111 0)
(7.38464 0.00706863 0)
(7.38882 0.00767711 0)
(7.39311 0.00828296 0)
(7.39748 0.00888258 0)
(7.40195 0.00947242 0)
(7.40648 0.0100491 0)
(7.41108 0.01061 0)
(7.41574 0.0111529 0)
(7.42043 0.0116779 0)
(7.42515 0.0121884 0)
(7.42989 0.0126731 0)
(7.43464 0.0131184 0)
(7.43939 0.0135157 0)
(7.44412 0.0138583 0)
(7.44884 0.0141426 0)
(7.33436 -0.00336453 0)
(7.3391 -0.00612507 0)
(7.34479 -0.0070376 0)
(7.35095 -0.00745824 0)
(7.35747 -0.00748244 0)
(7.36411 -0.00722763 0)
(7.37075 -0.0068274 0)
(7.37734 -0.00636674 0)
(7.38383 -0.00585901 0)
(7.39023 -0.00531429 0)
(7.3965 -0.00474709 0)
(7.40265 -0.00416561 0)
(7.40869 -0.00358116 0)
(7.41461 -0.0029829 0)
(7.4204 -0.00238148 0)
(7.42607 -0.00178184 0)
(7.43162 -0.00118511 0)
(7.43706 -0.000593338 0)
(7.4424 -9.1527e-06 0)
(7.44763 0.000564661 0)
(7.45277 0.00112501 0)
(7.45781 0.00166843 0)
(7.46277 0.00219099 0)
(7.46764 0.00268839 0)
(7.47245 0.00315562 0)
(7.47719 0.00358723 0)
(7.48189 0.00397666 0)
(7.48658 0.00431494 0)
(7.49124 0.00460951 0)
(7.49588 0.00486802 0)
(7.50049 0.00509171 0)
(7.50507 0.00527895 0)
(7.5096 0.00542901 0)
(7.3298 -0.00381941 0)
(7.32481 -0.00784629 0)
(7.31664 -0.0100225 0)
(7.30707 -0.0115019 0)
(7.29751 -0.0124144 0)
(7.28807 -0.0128891 0)
(7.27888 -0.0130815 0)
(7.27011 -0.0130786 0)
(7.26183 -0.0129279 0)
(7.25407 -0.0126697 0)
(7.24686 -0.0123337 0)
(7.2402 -0.0119393 0)
(7.23411 -0.011495 0)
(7.22857 -0.0110229 0)
(7.22357 -0.0105255 0)
(7.2191 -0.0100068 0)
(7.21514 -0.00947252 0)
(7.21168 -0.00892763 0)
(7.20869 -0.00837669 0)
(7.20616 -0.00782418 0)
(7.20405 -0.00727481 0)
(7.20235 -0.00673369 0)
(7.20103 -0.00620661 0)
(7.20005 -0.00570023 0)
(7.19939 -0.00522281 0)
(7.19901 -0.00478407 0)
(7.19887 -0.00439715 0)
(7.19891 -0.00408187 0)
(7.19912 -0.00382507 0)
(7.19947 -0.00360864 0)
(7.19992 -0.00342407 0)
(7.20046 -0.00326853 0)
(7.20106 -0.0031391 0)
(2.46425 0.0579204 0)
(2.32963 0.0263087 0)
(2.1797 0.0158486 0)
(2.03089 0.0452068 0)
(1.91115 0.0838859 0)
(1.75815 -0.00116407 0)
(1.51492 -0.16547 0)
(0.768158 -0.307491 0)
(-0.306753 -0.4087 0)
(-0.80767 -0.409091 0)
(-0.612813 -0.221298 0)
(0.183387 0.259465 0)
(1.26862 0.954782 0)
(2.33259 1.62423 0)
(3.2814 2.16835 0)
(4.14122 2.56753 0)
(4.93894 2.79874 0)
(5.68127 2.84128 0)
(6.3634 2.68613 0)
(6.97618 2.33463 0)
(7.50363 1.79575 0)
(7.91982 1.09183 0)