/*--------------------------------*- C++ -*----------------------------------*\
  =========                 |
  \\      /  F ield         | OpenFOAM: The Open Source CFD Toolbox
   \\    /   O peration     | Website:  https://openfoam.org
    \\  /    A nd           | Version:  10
     \\/     M anipulation  |
\*---------------------------------------------------------------------------*/
FoamFile
{
    format      ascii;
    class       volScalarField;
    location    "300";
    object      k;
}
// * * * * * * * * * * * * * * * * * * * * * * * * * * * * * * * * * * * * * //

dimensions      [0 2 -2 0 0 0 0];

internalField   nonuniform List<scalar> 
6820
(
0.318931
0.614648
0.847401
0.983394
1.0484
1.06936
1.06489
1.04672
1.02202
0.995009
0.968033
0.942289
0.91833
0.896341
0.876314
0.858143
0.841682
0.826771
0.813259
0.801001
0.789871
0.779756
0.77056
0.762197
0.754598
0.747701
0.741458
0.73583
0.730772
0.72635
0.722044
0.720285
0.709385
0.838897
1.45735
1.53054
1.40684
1.25035
1.11087
0.996134
0.903269
0.827925
0.766341
0.715568
0.673423
0.638159
0.608479
0.583364
0.562016
0.543782
0.528156
0.514703
0.503094
0.493028
0.484288
0.476652
0.469982
0.464103
0.458931
0.454317
0.450217
0.446488
0.443124
0.439928
0.437089
0.433812
0.379896
0.662266
0.793338
0.827953
0.818144
0.790342
0.756306
0.721082
0.686796
0.654328
0.624013
0.595949
0.570108
0.546397
0.524693
0.504853
0.486736
0.470197
0.455102
0.441322
0.428739
0.417245
0.406738
0.397131
0.388337
0.380287
0.372905
0.36614
0.359921
0.354212
0.348943
0.344102
0.339567
0.246132
0.339296
0.411865
0.458858
0.48566
0.498815
0.5032
0.502048
0.497404
0.49055
0.482312
0.473242
0.46372
0.454015
0.444313
0.434747
0.425407
0.416355
0.407633
0.399263
0.391258
0.383624
0.376357
0.369451
0.362896
0.356682
0.350795
0.345221
0.339947
0.334957
0.330236
0.325773
0.321545
0.216723
0.253403
0.285785
0.312222
0.332424
0.347082
0.357244
0.363936
0.368002
0.370082
0.370651
0.370068
0.368606
0.366475
0.363839
0.360827
0.357542
0.354066
0.350462
0.346783
0.34307
0.339355
0.335665
0.332019
0.328432
0.324918
0.321484
0.318138
0.314884
0.311725
0.308662
0.305695
0.302825
0.206699
0.223743
0.239968
0.254397
0.266659
0.276706
0.284731
0.29102
0.295862
0.29951
0.302171
0.304019
0.305194
0.305813
0.305972
0.30575
0.305213
0.304418
0.30341
0.30223
0.300912
0.299482
0.297966
0.296383
0.294751
0.293084
0.291395
0.289693
0.287988
0.286287
0.284595
0.282917
0.281261
0.202775
0.211436
0.220451
0.228893
0.236443
0.242986
0.248549
0.253223
0.257116
0.260328
0.262953
0.26507
0.266749
0.26805
0.269026
0.269719
0.27017
0.27041
0.270469
0.270371
0.270139
0.269791
0.269344
0.268813
0.268211
0.267549
0.266837
0.266084
0.265297
0.264483
0.263649
0.262799
0.261939
0.201168
0.205677
0.210941
0.216173
0.221043
0.225417
0.22927
0.232631
0.235543
0.238053
0.240205
0.242038
0.24359
0.244893
0.245975
0.246862
0.247577
0.248139
0.248565
0.248872
0.249072
0.249178
0.249201
0.249152
0.249038
0.248868
0.248649
0.248388
0.24809
0.247761
0.247406
0.247029
0.246634
0.200484
0.202804
0.205902
0.209224
0.212463
0.215472
0.218198
0.220638
0.222808
0.224727
0.226419
0.227903
0.229202
0.230332
0.231312
0.232157
0.23288
0.233493
0.234008
0.234434
0.234781
0.235056
0.235268
0.235422
0.235525
0.235583
0.2356
0.235582
0.235532
0.235456
0.235356
0.235237
0.2351
0.200184
0.201336
0.203122
0.205219
0.207385
0.209479
0.211434
0.213227
0.214855
0.216325
0.217646
0.218829
0.219885
0.220826
0.221661
0.222401
0.223053
0.223625
0.224126
0.224562
0.224939
0.225262
0.225537
0.225768
0.225959
0.226116
0.226242
0.22634
0.226413
0.226466
0.2265
0.226518
0.226523
0.200051
0.200585
0.201571
0.202855
0.20428
0.205725
0.207124
0.208443
0.209668
0.210794
0.211825
0.212763
0.213615
0.214386
0.215082
0.215709
0.216273
0.216779
0.217233
0.217637
0.217998
0.218318
0.218602
0.218854
0.219075
0.21927
0.219441
0.219591
0.219723
0.21984
0.219943
0.220035
0.220116
0.199992
0.200205
0.20071
0.201459
0.20236
0.203332
0.204314
0.205271
0.206184
0.207042
0.207841
0.20858
0.209261
0.209887
0.21046
0.210984
0.211462
0.211898
0.212295
0.212656
0.212983
0.213281
0.213551
0.213797
0.21402
0.214224
0.21441
0.214581
0.214738
0.214885
0.215022
0.215151
0.215273
0.199965
0.200015
0.200242
0.200644
0.201182
0.201805
0.20247
0.203145
0.203809
0.20445
0.20506
0.205635
0.206173
0.206675
0.207141
0.207572
0.207971
0.20834
0.20868
0.208994
0.209284
0.209551
0.209798
0.210027
0.210239
0.210437
0.210622
0.210797
0.210962
0.21112
0.211272
0.211419
0.211561
0.199954
0.199922
0.199992
0.200178
0.20047
0.200842
0.201268
0.201722
0.202188
0.202651
0.203104
0.20354
0.203956
0.204351
0.204722
0.205072
0.205399
0.205706
0.205992
0.20626
0.20651
0.206744
0.206964
0.207171
0.207366
0.207551
0.207728
0.207897
0.20806
0.208219
0.208375
0.208528
0.208679
0.199949
0.199877
0.199862
0.199919
0.200051
0.200248
0.200497
0.200782
0.20109
0.201409
0.201731
0.20205
0.202361
0.202662
0.20295
0.203226
0.203488
0.203737
0.203973
0.204197
0.204409
0.20461
0.204801
0.204984
0.205159
0.205327
0.20549
0.205649
0.205805
0.205959
0.206112
0.206264
0.206415
0.199947
0.199856
0.199796
0.199779
0.199811
0.199892
0.200015
0.200174
0.200359
0.200563
0.200777
0.200997
0.201219
0.201439
0.201654
0.201864
0.202068
0.202264
0.202453
0.202635
0.20281
0.202978
0.203141
0.203299
0.203452
0.203602
0.203749
0.203895
0.20404
0.204185
0.204331
0.204478
0.204625
0.199946
0.199847
0.199764
0.199705
0.199678
0.199684
0.199723
0.199791
0.199885
0.199998
0.200127
0.200266
0.200412
0.200563
0.200715
0.200867
0.201017
0.201166
0.201312
0.201455
0.201595
0.201732
0.201867
0.201999
0.202131
0.202261
0.202391
0.202522
0.202654
0.202788
0.202924
0.203063
0.203204
0.199946
0.199842
0.199748
0.199668
0.199606
0.199567
0.199551
0.199558
0.199586
0.199632
0.199694
0.199769
0.199854
0.199946
0.200044
0.200146
0.20025
0.200356
0.200463
0.20057
0.200678
0.200785
0.200893
0.201002
0.201112
0.201222
0.201335
0.20145
0.201569
0.20169
0.201816
0.201945
0.202077
0.199946
0.199841
0.199741
0.199649
0.199569
0.199503
0.199453
0.19942
0.199403
0.199401
0.199415
0.19944
0.199477
0.199522
0.199576
0.199635
0.1997
0.199769
0.199841
0.199917
0.199995
0.200076
0.200159
0.200245
0.200334
0.200426
0.200521
0.200621
0.200725
0.200834
0.200947
0.201066
0.201189
0.199946
0.19984
0.199737
0.19964
0.199551
0.19947
0.199399
0.199341
0.199295
0.199261
0.19924
0.199229
0.19923
0.199239
0.199257
0.199283
0.199315
0.199353
0.199396
0.199444
0.199496
0.199553
0.199614
0.19968
0.19975
0.199824
0.199904
0.199988
0.200078
0.200175
0.200277
0.200384
0.200497
0.199946
0.199839
0.199736
0.199636
0.199541
0.199452
0.199371
0.199297
0.199233
0.199179
0.199134
0.199099
0.199073
0.199056
0.199048
0.199047
0.199054
0.199067
0.199086
0.199112
0.199143
0.19918
0.199222
0.19927
0.199323
0.199382
0.199447
0.199518
0.199595
0.199679
0.19977
0.199867
0.199969
0.199946
0.199839
0.199735
0.199634
0.199537
0.199444
0.199356
0.199274
0.199199
0.199132
0.199073
0.199021
0.198978
0.198943
0.198916
0.198897
0.198884
0.198879
0.198881
0.198889
0.198903
0.198924
0.198951
0.198984
0.199024
0.19907
0.199122
0.199182
0.199248
0.199322
0.199402
0.19949
0.199583
0.199946
0.199839
0.199735
0.199633
0.199534
0.199439
0.199348
0.199262
0.199182
0.199107
0.199039
0.198979
0.198925
0.198879
0.19884
0.198808
0.198783
0.198766
0.198755
0.198751
0.198754
0.198763
0.198779
0.198802
0.198831
0.198867
0.19891
0.198961
0.199018
0.199083
0.199155
0.199234
0.199319
0.199946
0.199839
0.199734
0.199632
0.199533
0.199437
0.199345
0.199257
0.199174
0.199096
0.199024
0.198959
0.1989
0.198848
0.198803
0.198765
0.198734
0.19871
0.198693
0.198682
0.198678
0.198681
0.198691
0.198707
0.19873
0.19876
0.198797
0.198841
0.198892
0.198951
0.199017
0.199089
0.199168
0.199946
0.199839
0.199734
0.199632
0.199533
0.199437
0.199344
0.199256
0.199173
0.199095
0.199023
0.198957
0.198898
0.198846
0.1988
0.198761
0.198729
0.198704
0.198686
0.198674
0.198669
0.19867
0.198678
0.198693
0.198714
0.198741
0.198776
0.198817
0.198865
0.19892
0.198982
0.19905
0.199124
0.199946
0.199839
0.199734
0.199632
0.199533
0.199438
0.199347
0.19926
0.199179
0.199104
0.199036
0.198974
0.198919
0.198871
0.198831
0.198797
0.19877
0.19875
0.198736
0.198729
0.198728
0.198733
0.198744
0.198762
0.198785
0.198815
0.19885
0.198892
0.19894
0.198995
0.199055
0.199122
0.199193
0.199946
0.199839
0.199735
0.199633
0.199535
0.199442
0.199354
0.199272
0.199197
0.199129
0.199069
0.199017
0.198972
0.198935
0.198906
0.198884
0.198869
0.19886
0.198857
0.198861
0.19887
0.198884
0.198904
0.198929
0.19896
0.198995
0.199036
0.199082
0.199133
0.199189
0.199251
0.199318
0.199388
0.199946
0.199839
0.199736
0.199636
0.199541
0.199453
0.199372
0.1993
0.199236
0.199183
0.199138
0.199104
0.199078
0.19906
0.199051
0.199048
0.199052
0.199062
0.199078
0.199099
0.199124
0.199154
0.199187
0.199225
0.199267
0.199312
0.199361
0.199414
0.199471
0.199532
0.199597
0.199666
0.199737
0.199946
0.19984
0.199739
0.199643
0.199556
0.199479
0.199413
0.199359
0.199318
0.19929
0.199274
0.199269
0.199274
0.199287
0.199308
0.199336
0.199369
0.199407
0.199448
0.199493
0.199541
0.199591
0.199644
0.199698
0.199755
0.199813
0.199873
0.199936
0.200001
0.200068
0.200137
0.200209
0.200282
0.199946
0.199843
0.199747
0.199662
0.199591
0.199538
0.199502
0.199485
0.199486
0.199503
0.199534
0.199576
0.199628
0.199688
0.199754
0.199824
0.199896
0.199971
0.200047
0.200123
0.200199
0.200274
0.200349
0.200423
0.200497
0.200571
0.200644
0.200717
0.20079
0.200864
0.200938
0.201012
0.201087
0.199947
0.19985
0.199768
0.199708
0.199676
0.199672
0.199698
0.19975
0.199824
0.199915
0.200021
0.200136
0.200258
0.200382
0.200508
0.200633
0.200756
0.200876
0.200992
0.201104
0.201212
0.201315
0.201415
0.20151
0.201601
0.201689
0.201774
0.201857
0.201937
0.202016
0.202093
0.202169
0.202243
0.19995
0.199869
0.199824
0.199826
0.199879
0.19998
0.200122
0.200296
0.200492
0.200703
0.20092
0.201138
0.201353
0.201562
0.201762
0.201953
0.202134
0.202304
0.202464
0.202613
0.202752
0.202882
0.203004
0.203117
0.203223
0.203322
0.203416
0.203504
0.203587
0.203667
0.203743
0.203816
0.203885
0.199958
0.199927
0.199981
0.200131
0.200369
0.200675
0.201029
0.201407
0.201794
0.202176
0.202546
0.202897
0.203227
0.203534
0.203817
0.204077
0.204316
0.204534
0.204733
0.204913
0.205078
0.205227
0.205363
0.205487
0.2056
0.205702
0.205796
0.205882
0.205961
0.206033
0.206101
0.206163
0.206222
0.199987
0.200104
0.200421
0.200918
0.20154
0.202229
0.202936
0.203627
0.204282
0.204889
0.205444
0.205946
0.206397
0.206801
0.20716
0.207479
0.207763
0.208014
0.208236
0.208433
0.208606
0.208759
0.208894
0.209012
0.209117
0.209208
0.209288
0.209358
0.209419
0.209473
0.209519
0.20956
0.209595
0.20009
0.200677
0.201686
0.202953
0.204315
0.205651
0.206893
0.208009
0.208993
0.209851
0.210593
0.211231
0.211779
0.212248
0.212649
0.212993
0.213285
0.213535
0.213747
0.213927
0.214078
0.214205
0.21431
0.214396
0.214466
0.214521
0.214564
0.214595
0.214616
0.214629
0.214635
0.214634
0.214627
0.200505
0.202618
0.205399
0.208261
0.210905
0.213207
0.21514
0.216734
0.218035
0.219091
0.219944
0.220633
0.221189
0.221636
0.221994
0.22228
0.222507
0.222683
0.222818
0.222919
0.222989
0.223034
0.223057
0.223061
0.223049
0.223023
0.222984
0.222934
0.222875
0.222808
0.222734
0.222653
0.222567
0.202133
0.209247
0.216743
0.222838
0.227429
0.23081
0.233274
0.23506
0.236348
0.237269
0.237924
0.238383
0.238697
0.238902
0.239024
0.239081
0.239086
0.239049
0.238978
0.238879
0.238755
0.23861
0.238447
0.238268
0.238076
0.237871
0.237656
0.237433
0.237201
0.236962
0.236717
0.236467
0.236214
0.208295
0.226775
0.244123
0.257365
0.26631
0.271766
0.274794
0.276294
0.276874
0.276914
0.276644
0.276199
0.275656
0.275059
0.274432
0.273787
0.273131
0.272467
0.271796
0.271119
0.270436
0.269748
0.269054
0.268356
0.267655
0.26695
0.266244
0.265537
0.264831
0.264126
0.263423
0.262723
0.262028
0.24578
0.310459
0.343789
0.358969
0.365623
0.368333
0.369018
0.368475
0.367139
0.36529
0.363119
0.360753
0.358284
0.355776
0.353277
0.350816
0.348417
0.346093
0.343853
0.341704
0.339647
0.337684
0.335814
0.334036
0.332348
0.330748
0.329232
0.327799
0.326445
0.325167
0.323962
0.322827
0.32176
0.214305
0.253644
0.294732
0.333811
0.370028
0.403424
0.43406
0.461983
0.487276
0.510064
0.530496
0.548733
0.564942
0.579292
0.591945
0.603059
0.612781
0.62125
0.628594
0.634928
0.64036
0.644986
0.648893
0.65216
0.654857
0.657047
0.658786
0.660125
0.661109
0.661778
0.662169
0.66231
0.662238
0.768719
0.846676
0.975875
1.13626
1.29729
1.44382
1.5678
1.66621
1.74049
1.79455
1.8332
1.86082
1.8806
1.89427
1.90219
1.90371
1.8975
1.88214
1.85641
1.81949
1.77108
1.71136
1.64085
1.56026
1.47041
1.37207
1.26624
1.15416
1.03751
0.918579
0.800424
0.686923
0.582663
0.492356
0.420018
0.368202
0.337801
0.328536
0.339888
0.372178
0.427839
0.513568
0.644093
0.841545
1.1187
1.4598
1.82806
2.18817
2.51791
2.80734
3.05404
3.25946
3.4267
3.55948
3.66161
3.73674
3.7883
3.81949
3.83323
3.83229
3.81918
3.79626
3.76568
3.72935
3.68895
3.64588
3.60128
3.55602
3.51073
3.46585
3.42162
3.37817
3.33554
3.29373
3.25269
3.21238
3.17274
3.13374
3.09534
3.05754
3.02032
2.98369
2.94766
2.91225
2.8775
2.84341
2.81005
2.77742
2.74558
2.71456
2.68439
2.6551
2.62672
2.59928
2.5728
2.5473
2.52281
2.49932
2.47672
2.45305
0.429584
0.435088
0.451289
0.476643
0.510932
0.553673
0.602661
0.655197
0.708564
0.760828
0.811243
0.859947
0.90726
0.95298
0.996019
1.03446
1.06587
1.08789
1.0986
1.09694
1.08261
1.05599
1.01802
0.969997
0.913458
0.850035
0.781625
0.710278
0.638132
0.567512
0.500883
0.440783
0.389624
0.349398
0.321407
0.3063
0.30436
0.315885
0.341674
0.383691
0.446019
0.53676
0.671297
0.871109
1.14794
1.48652
1.85168
2.20929
2.53752
2.82629
3.07293
3.27862
3.44631
3.57961
3.68225
3.75787
3.80989
3.84151
3.85568
3.85515
3.84249
3.82006
3.79002
3.75431
3.71461
3.67232
3.62857
3.58423
3.53992
3.49605
3.45284
3.41041
3.36878
3.32793
3.2878
3.24835
3.20953
3.17127
3.13357
3.0964
3.05975
3.02364
2.98807
2.95307
2.91866
2.88489
2.85178
2.81938
2.78772
2.75683
2.72676
2.69754
2.6692
2.64177
2.61528
2.58974
2.56519
2.54161
2.51892
2.49524
0.334589
0.329614
0.325381
0.322062
0.320076
0.319844
0.321649
0.325689
0.332067
0.340814
0.351966
0.365614
0.381893
0.400853
0.422277
0.4455
0.469305
0.491994
0.51163
0.526342
0.534682
0.535826
0.529626
0.516528
0.497435
0.47358
0.44636
0.417253
0.3878
0.359532
0.333889
0.31219
0.295581
0.28498
0.281166
0.28488
0.296952
0.318504
0.351257
0.398034
0.463627
0.556585
0.692018
0.890237
1.16245
1.49488
1.85455
2.20855
2.53514
2.82382
3.07139
3.27864
3.44821
3.58355
3.68826
3.76591
3.8199
3.85339
3.86933
3.8705
3.85944
3.83854
3.80998
3.77571
3.73743
3.69654
3.65418
3.61122
3.56828
3.52574
3.48384
3.44268
3.40227
3.36257
3.32355
3.28512
3.24725
3.20988
3.17299
3.13655
3.10057
3.06504
3.03
2.99546
2.96145
2.92801
2.89518
2.86299
2.8315
2.80073
2.77074
2.74155
2.7132
2.68572
2.65914
2.63348
2.60878
2.58503
2.56214
2.53832
0.316878
0.311779
0.306831
0.302023
0.2974
0.293031
0.288996
0.285382
0.282282
0.279784
0.277975
0.276946
0.2768
0.277646
0.279582
0.282645
0.286759
0.291678
0.296974
0.302061
0.306288
0.309054
0.309919
0.308669
0.305337
0.300196
0.293676
0.286322
0.278789
0.271779
0.266023
0.262254
0.26122
0.263686
0.270481
0.282536
0.300964
0.327209
0.363317
0.412384
0.479373
0.572737
0.706787
0.900432
1.16467
1.4878
1.8396
2.18856
2.51295
2.80162
3.0507
3.2604
3.43299
3.57162
3.67974
3.7608
3.8181
3.85478
3.87377
3.87781
3.86947
3.85112
3.82495
3.79294
3.75679
3.71792
3.6775
3.63638
3.5952
3.55436
3.51407
3.47444
3.43548
3.39716
3.35941
3.32219
3.28543
3.24908
3.21312
3.17754
3.14232
3.10748
3.07303
3.03901
3.00545
2.97238
2.93986
2.90791
2.87659
2.84594
2.816
2.78681
2.75841
2.73083
2.70411
2.67827
2.65335
2.62935
2.60617
2.58211
0.299586
0.29595
0.292342
0.288751
0.285174
0.281622
0.278117
0.274687
0.271368
0.268191
0.265188
0.262391
0.259834
0.257552
0.255583
0.25396
0.252703
0.25181
0.251244
0.250924
0.250736
0.250546
0.250225
0.24968
0.248873
0.247844
0.246703
0.24564
0.244915
0.24486
0.245889
0.248495
0.253255
0.260839
0.272022
0.28772
0.309067
0.337552
0.375264
0.425303
0.492536
0.585009
0.715938
0.902795
1.15645
1.46762
1.80928
2.15159
2.47286
2.76123
3.01201
3.22474
3.40117
3.5441
3.65675
3.74238
3.80421
3.84528
3.86847
3.87651
3.87192
3.8571
3.83423
3.80528
3.77197
3.73577
3.69782
3.65903
3.62003
3.58124
3.54288
3.50506
3.4678
3.43108
3.39483
3.35899
3.3235
3.28834
3.25345
3.21884
3.1845
3.15045
3.11669
3.08327
3.05022
3.01758
2.9854
2.95372
2.92259
2.89206
2.86218
2.83298
2.80451
2.7768
2.7499
2.72383
2.69863
2.67431
2.65079
2.62638
0.279348
0.277151
0.274923
0.27266
0.270353
0.268002
0.265615
0.263205
0.260786
0.258375
0.255989
0.253651
0.251381
0.249201
0.247132
0.245194
0.243404
0.241777
0.240323
0.239046
0.237941
0.237005
0.236231
0.235623
0.235204
0.235023
0.235168
0.235772
0.237023
0.239171
0.242539
0.24753
0.254635
0.264438
0.277642
0.2951
0.317899
0.347486
0.385893
0.436113
0.502771
0.593329
0.719824
0.898241
1.13931
1.43634
1.76575
2.0997
2.41668
2.70414
2.95649
3.17248
3.35328
3.50126
3.61932
3.71051
3.7779
3.82442
3.85288
3.86594
3.8661
3.85574
3.83702
3.81192
3.78218
3.74927
3.71437
3.67839
3.64201
3.60564
3.56955
3.53384
3.49856
3.46367
3.42913
3.39487
3.36086
3.32704
3.29339
3.25989
3.22656
3.1934
3.16044
3.12771
3.09525
3.0631
3.03132
2.99996
2.96906
2.93867
2.90885
2.87965
2.8511
2.82325
2.79615
2.76981
2.7443
2.71961
2.69568
2.67086
0.260922
0.259724
0.25848
0.257191
0.255849
0.254447
0.252984
0.251464
0.249894
0.248284
0.246647
0.245001
0.243366
0.241762
0.240209
0.238725
0.237327
0.236033
0.234859
0.233818
0.23293
0.232215
0.231698
0.231416
0.23142
0.231784
0.23261
0.234035
0.236245
0.239476
0.244026
0.250261
0.258627
0.269655
0.283991
0.302435
0.326018
0.356121
0.394681
0.444529
0.509966
0.597786
0.718844
0.887598
1.11462
1.39575
1.71101
2.03485
2.34618
2.63183
2.88529
3.10449
3.2899
3.44341
3.56753
3.66507
3.73888
3.79177
3.82642
3.84544
3.85127
3.84623
3.83249
3.81202
3.78654
3.75756
3.72627
3.69362
3.6603
3.62676
3.59329
3.56002
3.52699
3.4942
3.4616
3.42915
3.3968
3.36451
3.33226
3.30004
3.26786
3.23573
3.20368
3.17174
3.13997
3.1084
3.0771
3.0461
3.01548
2.98528
2.95556
2.92637
2.89776
2.86977
2.84246
2.81584
2.78999
2.7649
2.74053
2.71524
0.246151
0.245563
0.244937
0.244271
0.243561
0.242797
0.241973
0.241088
0.240144
0.239147
0.238108
0.237041
0.235966
0.234902
0.233869
0.232886
0.231972
0.231144
0.230421
0.22982
0.229365
0.229083
0.22901
0.229195
0.2297
0.230613
0.232045
0.234143
0.237093
0.241126
0.246527
0.253639
0.262876
0.274731
0.289807
0.308857
0.332854
0.363107
0.401437
0.450475
0.514145
0.59858
0.713437
0.871669
1.08361
1.34749
1.64694
1.95893
2.26311
2.54582
2.79967
3.02171
3.2117
3.37094
3.50155
3.606
3.68691
3.74691
3.78856
3.81435
3.82667
3.82778
3.81979
3.80467
3.78415
3.75973
3.73263
3.70382
3.67403
3.64373
3.61325
3.58274
3.55228
3.52186
3.49146
3.46105
3.43057
3.40001
3.36935
3.33858
3.3077
3.27675
3.24575
3.21473
3.18376
3.15287
3.12213
3.09159
3.06131
3.03136
3.00179
2.97265
2.94401
2.9159
2.88838
2.8615
2.83531
2.80981
2.78497
2.75915
0.23492
0.234687
0.234427
0.234138
0.233817
0.233455
0.233044
0.23258
0.232062
0.231495
0.230887
0.23025
0.229602
0.22896
0.228345
0.227776
0.22727
0.226848
0.226529
0.226335
0.22629
0.226427
0.226788
0.227427
0.228416
0.229846
0.231836
0.234534
0.238125
0.242832
0.248926
0.256731
0.266631
0.279087
0.294665
0.314073
0.338226
0.368349
0.406131
0.453977
0.515438
0.595976
0.704068
0.851234
1.04748
1.29311
1.57532
1.87381
2.16924
2.44767
2.70092
2.92518
3.11943
3.28436
3.42162
3.53332
3.62181
3.6895
3.7388
3.77207
3.79159
3.79957
3.79806
3.78899
3.77408
3.75483
3.73248
3.70804
3.68225
3.65563
3.62853
3.60114
3.57356
3.54581
3.51788
3.48975
3.46139
3.43277
3.40389
3.37475
3.34536
3.31575
3.28594
3.25599
3.22594
3.19585
3.16578
3.13579
3.10595
3.07632
3.04697
3.01794
2.98931
2.96113
2.93344
2.90631
2.87978
2.85388
2.82857
2.80222
0.226512
0.226481
0.226433
0.226368
0.226282
0.226167
0.226016
0.225824
0.225591
0.225317
0.22501
0.224682
0.224345
0.224019
0.22372
0.223467
0.22328
0.223178
0.223183
0.223319
0.223615
0.224107
0.224842
0.225878
0.227291
0.229178
0.231657
0.234876
0.239013
0.244284
0.250942
0.259292
0.269693
0.282574
0.298465
0.318027
0.342114
0.37186
0.408808
0.455138
0.514025
0.590262
0.691217
0.827044
1.0073
1.23406
1.49786
1.7813
2.06634
2.33902
2.59048
2.81606
3.01398
3.1843
3.32814
3.4472
3.54354
3.61931
3.67675
3.71805
3.74538
3.76085
3.76646
3.76407
3.7554
3.74191
3.72488
3.70532
3.68401
3.6615
3.63818
3.61428
3.58991
3.56514
3.53997
3.51439
3.48838
3.46195
3.43507
3.40777
3.38005
3.35195
3.32351
3.29478
3.2658
3.23664
3.20737
3.17805
3.14875
3.11954
3.09048
3.06165
3.0331
3.00489
2.97709
2.94975
2.92293
2.89665
2.87089
2.84399
0.220199
0.220282
0.220357
0.220424
0.220479
0.220516
0.220529
0.220513
0.220469
0.220396
0.2203
0.220192
0.220083
0.219988
0.219925
0.219912
0.219967
0.220112
0.22037
0.220768
0.221338
0.22212
0.223164
0.224533
0.226305
0.228577
0.231468
0.235121
0.239708
0.245431
0.25253
0.261288
0.272039
0.285184
0.301215
0.320744
0.344563
0.373702
0.409562
0.454098
0.510108
0.581747
0.675358
0.79981
0.964094
1.17169
1.4162
1.6832
1.95622
2.22155
2.46983
2.69562
2.8964
3.07154
3.22162
3.34794
3.45218
3.53623
3.60211
3.65185
3.68747
3.71095
3.72423
3.72909
3.72721
3.72005
3.70886
3.69469
3.67832
3.66037
3.64124
3.6212
3.6004
3.57893
3.55681
3.53407
3.51068
3.48667
3.46203
3.43678
3.41095
3.38456
3.35767
3.33032
3.30258
3.2745
3.24617
3.21765
3.18901
3.16033
3.13168
3.10314
3.07476
3.04661
3.01877
2.99128
2.96422
2.9376
2.91142
2.884
0.215407
0.215555
0.2157
0.215844
0.215984
0.216115
0.216232
0.216333
0.216415
0.216481
0.216536
0.216586
0.216643
0.216722
0.216836
0.217004
0.217246
0.217582
0.218038
0.218644
0.219434
0.220452
0.221749
0.223392
0.225459
0.228048
0.231273
0.235274
0.240212
0.24628
0.253699
0.262734
0.273695
0.286951
0.302959
0.322282
0.345638
0.373963
0.408512
0.451013
0.503903
0.57075
0.656957
0.770194
0.918784
1.10723
1.33188
1.58123
1.84068
2.09702
2.34058
2.56527
2.76784
2.947
3.10278
3.23599
3.34797
3.4403
3.51475
3.57316
3.61739
3.64929
3.67067
3.68326
3.68867
3.68833
3.68349
3.67518
3.66423
3.65127
3.63673
3.62094
3.60406
3.58622
3.56748
3.54785
3.52737
3.50604
3.48388
3.46092
3.43718
3.41272
3.38757
3.3618
3.33547
3.30865
3.28142
3.25385
3.22602
3.198
3.16988
3.14174
3.11363
3.08565
3.05785
3.03029
3.00306
2.97618
2.94963
2.92172
0.211722
0.211904
0.212089
0.212278
0.212468
0.212657
0.212842
0.21302
0.21319
0.213354
0.213516
0.213682
0.213864
0.214072
0.214322
0.214631
0.215017
0.215504
0.216118
0.21689
0.217858
0.219066
0.22057
0.222435
0.22474
0.22758
0.231067
0.235332
0.24053
0.246838
0.254464
0.263653
0.27469
0.287916
0.303748
0.322699
0.345418
0.372743
0.405783
0.446048
0.495639
0.557589
0.636455
0.7388
0.872198
1.04181
1.24631
1.47706
1.72148
1.96718
2.2044
2.42652
2.62963
2.81179
2.97246
3.112
3.23133
3.33173
3.41468
3.48182
3.53483
3.5754
3.60522
3.62592
3.63903
3.64594
3.64789
3.64589
3.64079
3.63323
3.6237
3.61252
3.59993
3.58607
3.57101
3.55481
3.53751
3.51913
3.49971
3.47928
3.45788
3.43555
3.41237
3.38838
3.36366
3.33828
3.31232
3.28587
3.259
3.2318
3.20435
3.17674
3.14904
3.12133
3.09368
3.06616
3.03885
3.01179
2.98494
2.9566
0.208851
0.20905
0.209256
0.209469
0.20969
0.209915
0.210143
0.210373
0.210604
0.210838
0.211078
0.211331
0.211606
0.211914
0.212269
0.212687
0.213189
0.213796
0.214537
0.215444
0.216556
0.217918
0.219587
0.221628
0.224118
0.22715
0.23083
0.235283
0.240653
0.247107
0.254835
0.264063
0.275053
0.288117
0.303633
0.322063
0.343986
0.370144
0.401508
0.439381
0.485555
0.542582
0.614271
0.706174
0.825062
0.976421
1.16081
1.37227
1.60038
1.83383
2.06303
2.28099
2.4832
2.66715
2.83172
2.97679
3.10287
3.21091
3.30211
3.37786
3.43964
3.48898
3.52742
3.55649
3.57762
3.59215
3.60125
3.60596
3.6071
3.60535
3.6012
3.59502
3.58706
3.5775
3.56645
3.55398
3.54016
3.52501
3.5086
3.49095
3.47213
3.45219
3.43119
3.40919
3.38629
3.36255
3.33806
3.3129
3.28717
3.26096
3.23434
3.20742
3.18026
3.15296
3.12559
3.09823
3.07095
3.04381
3.01676
2.98807
0.20659
0.206795
0.207011
0.207237
0.207473
0.20772
0.207976
0.208241
0.208514
0.208798
0.209096
0.209414
0.20976
0.210145
0.210583
0.211088
0.211682
0.212387
0.213231
0.214247
0.215474
0.216959
0.218756
0.220931
0.223559
0.226728
0.230539
0.235109
0.240572
0.247082
0.254815
0.263978
0.274809
0.287591
0.302663
0.320437
0.341426
0.366277
0.395828
0.431196
0.47389
0.526039
0.590796
0.672804
0.778004
0.911908
1.07652
1.26829
1.47903
1.69874
1.91825
2.13036
2.33012
2.51446
2.68174
2.83134
2.96338
3.07844
3.17743
3.26148
3.33186
3.38991
3.43702
3.47458
3.50393
3.52633
3.5429
3.55463
3.56236
3.56676
3.56835
3.56751
3.56453
3.55961
3.55288
3.54445
3.53439
3.52276
3.50962
3.49503
3.47904
3.46172
3.44314
3.42337
3.4025
3.38061
3.35779
3.33414
3.30974
3.28469
3.25908
3.23301
3.20656
3.17983
3.15288
3.12581
3.0987
3.07159
3.04446
3.0155
0.204797
0.205002
0.205218
0.205448
0.205693
0.205952
0.206224
0.206512
0.206814
0.207133
0.207473
0.20784
0.208241
0.208686
0.209189
0.209764
0.210431
0.211215
0.212141
0.213244
0.214562
0.216141
0.218035
0.220307
0.223028
0.226283
0.230167
0.234788
0.240271
0.246757
0.254409
0.263411
0.273982
0.286374
0.300889
0.317892
0.337828
0.361256
0.388894
0.421683
0.460885
0.508261
0.566393
0.639118
0.731555
0.848994
0.994454
1.16646
1.359
1.56364
1.77182
1.97639
2.17205
2.35526
2.52388
2.67685
2.81385
2.93511
3.04123
3.13309
3.21171
3.27824
3.33391
3.37996
3.4176
3.44801
3.47225
3.49126
3.50586
3.51671
3.52434
3.52916
3.53147
3.5315
3.5294
3.52531
3.5193
3.51147
3.50189
3.49061
3.47771
3.46326
3.44735
3.43004
3.41144
3.39162
3.37069
3.34875
3.32588
3.30219
3.27778
3.25275
3.22718
3.20118
3.17482
3.14819
3.12139
3.09447
3.06738
3.03827
0.20337
0.203569
0.203782
0.204011
0.204256
0.20452
0.204802
0.205103
0.205424
0.205768
0.206139
0.206541
0.206983
0.207475
0.208028
0.208658
0.209384
0.210229
0.21122
0.212389
0.213775
0.215423
0.217383
0.219716
0.222491
0.225786
0.229689
0.234303
0.23974
0.24613
0.25362
0.262379
0.2726
0.284508
0.298369
0.3145
0.333286
0.355204
0.380859
0.411037
0.446783
0.489537
0.541396
0.605492
0.686151
0.788261
0.915446
1.06792
1.24176
1.43018
1.62552
1.82086
2.01072
2.19117
2.35965
2.51464
2.65543
2.7819
2.89433
2.9933
3.07963
3.15426
3.21821
3.27258
3.31845
3.3569
3.38889
3.41534
3.437
3.45453
3.46847
3.47921
3.48709
3.49236
3.49518
3.4957
3.49403
3.49028
3.48451
3.47681
3.46726
3.45594
3.44294
3.42834
3.41224
3.39473
3.37591
3.3559
3.33478
3.31266
3.28965
3.26585
3.24136
3.21627
3.19068
3.16467
3.13834
3.11175
3.08485
3.05572
0.202234
0.202424
0.20263
0.202854
0.203097
0.20336
0.203645
0.203953
0.204285
0.204645
0.205037
0.205465
0.205937
0.206463
0.207055
0.207727
0.208497
0.209389
0.210427
0.211645
0.213077
0.214768
0.216767
0.219129
0.221919
0.225211
0.229087
0.233638
0.23897
0.2452
0.25246
0.260901
0.270694
0.282037
0.295162
0.310342
0.327904
0.34825
0.371885
0.399457
0.431821
0.470143
0.516112
0.572251
0.642148
0.730164
0.84017
0.97366
1.1286
1.29992
1.48106
1.66555
1.8479
2.02392
2.19065
2.3462
2.48947
2.61998
2.7377
2.84295
2.93628
3.01843
3.09022
3.1526
3.2065
3.25287
3.2926
3.32652
3.35535
3.37972
3.40014
3.41703
3.43071
3.44145
3.44944
3.45484
3.45777
3.45835
3.45666
3.45279
3.44685
3.43891
3.42906
3.41741
3.40406
3.38909
3.37263
3.35477
3.33562
3.3153
3.2939
3.27154
3.24833
3.22435
3.19971
3.17451
3.14883
3.12274
3.0962
3.0672
0.201335
0.201514
0.201711
0.201927
0.202164
0.202423
0.202706
0.203016
0.203353
0.203722
0.204126
0.204571
0.205064
0.205614
0.206233
0.206934
0.207736
0.20866
0.209731
0.210978
0.212437
0.214148
0.216158
0.218518
0.22129
0.22454
0.228344
0.232786
0.237961
0.243974
0.250944
0.259003
0.268302
0.279014
0.291338
0.305505
0.321791
0.34053
0.362137
0.38714
0.416229
0.450341
0.490821
0.539675
0.599825
0.675038
0.769138
0.88449
1.02067
1.17429
1.34008
1.51222
1.68539
1.85526
2.01859
2.17313
2.31743
2.45068
2.57254
2.68305
2.78252
2.87145
2.95049
3.0204
3.08196
3.136
3.18331
3.22463
3.26063
3.29189
3.31891
3.34208
3.36175
3.37816
3.39153
3.40203
3.40979
3.41493
3.41756
3.41778
3.41568
3.41136
3.40492
3.39647
3.38609
3.37391
3.36003
3.34456
3.32762
3.30931
3.28975
3.26905
3.24732
3.22467
3.20119
3.17698
3.15215
3.12675
3.10074
3.07204
0.200632
0.2008
0.200985
0.201192
0.20142
0.201672
0.20195
0.202257
0.202595
0.202966
0.203376
0.20383
0.204335
0.204899
0.205535
0.206254
0.207075
0.208017
0.209104
0.210364
0.21183
0.213539
0.215535
0.217866
0.220588
0.223761
0.227455
0.231745
0.236717
0.242465
0.249093
0.256718
0.26547
0.275499
0.286971
0.300084
0.315063
0.332184
0.351781
0.37428
0.400231
0.430377
0.465776
0.508005
0.559399
0.623113
0.702703
0.801021
0.918903
1.05457
1.20411
1.36256
1.52495
1.68699
1.84523
1.99713
2.14092
2.27549
2.4002
2.51481
2.61939
2.71422
2.79976
2.87656
2.94529
3.00661
3.0612
3.10972
3.15277
3.19087
3.22449
3.25402
3.27976
3.30198
3.3209
3.33667
3.34945
3.35937
3.36653
3.37105
3.37302
3.37256
3.36976
3.36473
3.35758
3.34841
3.33735
3.32451
3.31
3.29394
3.27644
3.25763
3.23761
3.21649
3.19438
3.17138
3.14759
3.12309
3.0978
3.06957
0.200094
0.200249
0.200424
0.200619
0.200837
0.20108
0.201351
0.201651
0.201984
0.202354
0.202763
0.203219
0.203728
0.204298
0.20494
0.205667
0.206494
0.207441
0.208529
0.209785
0.211239
0.212926
0.214885
0.21716
0.219803
0.222868
0.226418
0.23052
0.235251
0.240692
0.246937
0.254085
0.262249
0.271555
0.282144
0.294177
0.30784
0.323353
0.340984
0.361068
0.384039
0.410478
0.441207
0.47745
0.521033
0.574528
0.641079
0.723681
0.824069
0.941861
1.07454
1.21817
1.36834
1.52091
1.67236
1.81995
1.96163
2.096
2.22216
2.3396
2.44814
2.54784
2.63897
2.7219
2.79713
2.86518
2.92663
2.98202
3.03187
3.07666
3.11679
3.15263
3.18447
3.21256
3.23711
3.25829
3.27624
3.29109
3.30297
3.31198
3.31823
3.32183
3.32288
3.32149
3.31779
3.31187
3.30386
3.29387
3.28202
3.26844
3.25323
3.23653
3.21845
3.19909
3.17857
3.15699
3.13446
3.11105
3.08669
3.05914
0.199697
0.199841
0.200004
0.200188
0.200395
0.200628
0.200888
0.201179
0.201504
0.201867
0.202271
0.202722
0.203227
0.203794
0.204434