/*--------------------------------*- C++ -*----------------------------------*\
  =========                 |
  \\      /  F ield         | OpenFOAM: The Open Source CFD Toolbox
   \\    /   O peration     | Website:  https://openfoam.org
    \\  /    A nd           | Version:  10
     \\/     M anipulation  |
\*---------------------------------------------------------------------------*/
FoamFile
{
    format      ascii;
    class       volScalarField;
    location    "300";
    object      nut;
}
// * * * * * * * * * * * * * * * * * * * * * * * * * * * * * * * * * * * * * //

dimensions      [0 2 -1 0 0 0 0];

internalField   nonuniform List<scalar> 
6820
(
5.2116e-05
7.23496e-05
8.49508e-05
9.15138e-05
9.44901e-05
9.54297e-05
9.52305e-05
9.44144e-05
9.32936e-05
9.20525e-05
9.0796e-05
8.95804e-05
8.84341e-05
8.73689e-05
8.63872e-05
8.54867e-05
8.46627e-05
8.39092e-05
8.32205e-05
8.25908e-05
8.20147e-05
8.14876e-05
8.10053e-05
8.05642e-05
8.01612e-05
7.97936e-05
7.94593e-05
7.91567e-05
7.88836e-05
7.86441e-05
7.84089e-05
7.82928e-05
7.76987e-05
0.00148777
0.000914495
0.000722312
0.000566111
0.000445037
0.000364633
0.000311144
0.000273992
0.000246981
0.000226693
0.000210947
0.000198594
0.000188448
0.000180183
0.000173327
0.000167591
0.000162722
0.000158599
0.00015504
0.000152017
0.000149361
0.000147122
0.000145112
0.00014345
0.000141916
0.000140698
0.000139524
0.00013866
0.000137774
0.000137193
0.000136574
0.000136245
0.000135786
0.00388236
0.00172614
0.00129526
0.00105718
0.000883754
0.000757085
0.000663829
0.000593544
0.000538923
0.000495525
0.000460159
0.000430929
0.00040629
0.00038525
0.000367114
0.000351294
0.000337442
0.000325149
0.000314292
0.000304502
0.000295821
0.000287955
0.000280837
0.000274488
0.000268618
0.000263458
0.000258601
0.000254406
0.000250396
0.000247017
0.00024374
0.000241116
0.000238519
0.00701486
0.00309328
0.00211868
0.00169403
0.00142856
0.00124192
0.00110381
0.000998009
0.000914429
0.000846987
0.00079141
0.000744918
0.000705421
0.000671463
0.000641928
0.000616035
0.000593107
0.000572723
0.000554411
0.00053798
0.000523029
0.000509554
0.000497162
0.000485947
0.00047559
0.000466163
0.000457473
0.000449505
0.00044224
0.000435514
0.000429445
0.000423915
0.000418904
0.00947862
0.00539455
0.00361897
0.00279681
0.00231381
0.00199176
0.00176095
0.00158733
0.00145175
0.00134309
0.00125405
0.00117987
0.00111708
0.00106334
0.00101672
0.000976036
0.000940081
0.000908251
0.000879696
0.000854155
0.000830976
0.000810067
0.000790952
0.000773571
0.00075763
0.000743033
0.000729646
0.000717323
0.000706068
0.000695673
0.000686268
0.000677567
0.000669919
0.0106282
0.0077633
0.00561761
0.00439965
0.00363555
0.00311547
0.0027407
0.00245884
0.00223938
0.00206399
0.00192075
0.00180177
0.00170139
0.00161574
0.00154173
0.00147732
0.00142064
0.00137059
0.00132591
0.00128599
0.00124999
0.00121751
0.00118801
0.00116119
0.00113672
0.00111432
0.00109387
0.00107504
0.00105792
0.00104207
0.00102782
0.00101455
0.00100286
0.0110845
0.00948051
0.00757883
0.00621473
0.0052504
0.00454911
0.00402306
0.00361713
0.00329582
0.00303609
0.00282229
0.00264368
0.00249242
0.00236294
0.00225091
0.00215325
0.00206732
0.00199135
0.00192365
0.00186311
0.00180862
0.00175945
0.00171488
0.00167436
0.00163746
0.00160372
0.00157292
0.00154463
0.00151886
0.0014951
0.00147359
0.00145373
0.00143594
0.0112619
0.0104722
0.00911492
0.00788295
0.00688596
0.00609588
0.0054676
0.00496225
0.00455002
0.00420914
0.00392362
0.00368176
0.00347469
0.00329583
0.00313998
0.00300326
0.00288244
0.00277511
0.00267919
0.00259313
0.00251554
0.00244534
0.00238163
0.00232362
0.0022707
0.00222229
0.00217802
0.00213736
0.00210018
0.00206597
0.00203476
0.00200608
0.00198004
0.0113318
0.0109612
0.0101482
0.00919371
0.00831267
0.00754667
0.00689532
0.00634459
0.00587794
0.00548039
0.00513941
0.00484491
0.00458874
0.00436448
0.00416688
0.00399182
0.00383587
0.00369632
0.00357085
0.00345764
0.00335508
0.0032619
0.00317699
0.00309942
0.00302843
0.0029633
0.00290353
0.00284856
0.00279805
0.00275154
0.00270885
0.0026696
0.00263364
0.0113604
0.0111909
0.0107576
0.0101061
0.0094193
0.00876235
0.00816247
0.00762677
0.007153
0.00673533
0.00636698
0.00604141
0.00575269
0.00549573
0.00526613
0.00506022
0.00487483
0.00470736
0.00455556
0.00441756
0.00429173
0.00417671
0.00407134
0.00397461
0.00388565
0.00380373
0.0037282
0.00365849
0.00359415
0.00353473
0.0034799
0.00342931
0.00338268
0.0113724
0.011296
0.0110833
0.0106833
0.0102001
0.00969111
0.00919097
0.00871795
0.00828
0.00787925
0.00751479
0.00718424
0.00688466
0.00661299
0.0063663
0.00614191
0.00593737
0.00575056
0.00557956
0.00542273
0.00527861
0.00514592
0.00502355
0.00491054
0.00480604
0.00470928
0.00461964
0.00453653
0.00445945
0.00438795
0.00432165
0.00426021
0.00420326
0.0113776
0.0113432
0.0112428
0.0110223
0.0107092
0.0103472
0.00996437
0.00958029
0.00920723
0.00885214
0.00851839
0.00820716
0.00791829
0.00765092
0.00740377
0.00717541
0.00696436
0.00676921
0.00658861
0.00642132
0.0062662
0.00612222
0.00598845
0.00586405
0.00574828
0.00564046
0.00554
0.00544637
0.00535908
0.00527771
0.00520188
0.00513125
0.00506545
0.01138
0.011364
0.0113175
0.0112064
0.0110184
0.0107798
0.010508
0.0102184
0.00992298
0.00962994
0.00934481
0.00907095
0.00881024
0.00856355
0.00833109
0.00811262
0.00790766
0.00771557
0.00753565
0.00736716
0.00720938
0.00706161
0.00692318
0.00679347
0.0066719
0.00655794
0.0064511
0.00635095
0.00625706
0.00616907
0.00608663
0.00600945
0.00593716
0.0113814
0.0113731
0.0113517
0.0112992
0.0111946
0.0110477
0.0108674
0.0106633
0.0104442
0.0102175
0.00998891
0.00976241
0.00954094
0.00932643
0.00912009
0.00892262
0.00873434
0.00855532
0.00838544
0.00822448
0.00807212
0.00792803
0.00779183
0.00766316
0.00754163
0.00742691
0.00731864
0.00721649
0.00712017
0.00702939
0.00694386
0.00686335
0.00678755
0.0113823
0.0113772
0.0113669
0.0113424
0.0112896
0.0112044
0.0110918
0.0109565
0.0108037
0.0106386
0.0104657
0.0102889
0.010111
0.00993453
0.00976102
0.00959175
0.00942756
0.00926902
0.00911647
0.00897008
0.00882993
0.00869598
0.00856815
0.0084463
0.00833028
0.00821991
0.008115
0.00801537
0.00792082
0.00783116
0.00774621
0.00766579
0.00758966
0.0113826
0.0113795
0.0113737
0.011362
0.0113372
0.0112908
0.0112246
0.0111398
0.0110391
0.0109254
0.0108017
0.0106709
0.0105356
0.0103977
0.0102591
0.0101211
0.00998482
0.00985105
0.00972041
0.00959337
0.00947024
0.00935123
0.00923649
0.00912608
0.00902002
0.00891831
0.00882089
0.0087277
0.00863868
0.00855373
0.00847275
0.00839562
0.00832221
0.0113825
0.0113808
0.0113771
0.0113709
0.011359
0.011336
0.011299
0.0112487
0.0111858
0.0111115
0.0110275
0.0109357
0.0108377
0.0107353
0.0106299
0.0105227
0.0104148
0.010307
0.0102001
0.0100947
0.00999122
0.00989
0.00979133
0.00969542
0.00960244
0.00951248
0.00942562
0.00934192
0.00926138
0.009184
0.00910978
0.00903865
0.00897055
0.0113825
0.0113812
0.0113791
0.0113751
0.0113689
0.0113579
0.0113386
0.0113102
0.0112728
0.0112266
0.0111724
0.011111
0.0110435
0.010971
0.0108945
0.010815
0.0107334
0.0106504
0.0105667
0.010483
0.0103997
0.0103171
0.0102357
0.0101558
0.0100775
0.010001
0.00992657
0.00985425
0.00978414
0.00971631
0.0096508
0.00958762
0.00952676
0.0113824
0.0113813
0.0113798
0.0113775
0.0113736
0.0113678
0.0113584
0.0113432
0.0113219
0.0112945
0.0112611
0.0112219
0.0111775
0.0111285
0.0110755
0.0110192
0.0109601
0.010899
0.0108363
0.0107726
0.0107082
0.0106436
0.0105791
0.010515
0.0104517
0.0103892
0.0103278
0.0102676
0.0102088
0.0101515
0.0100957
0.0100416
0.0099891
0.0113824
0.0113813
0.01138
0.0113784
0.0113762
0.0113726
0.0113675
0.0113598
0.0113483
0.0113327
0.0113129
0.011289
0.0112611
0.0112294
0.0111943
0.0111561
0.0111152
0.011072
0.0110269
0.0109804
0.0109326
0.010884
0.0108349
0.0107856
0.0107361
0.0106869
0.0106381
0.0105898
0.0105422
0.0104954
0.0104496
0.0104048
0.010361
0.0113824
0.0113812
0.01138
0.0113788
0.0113772
0.011375
0.011372
0.0113675
0.0113616
0.0113532
0.0113419
0.0113278
0.011311
0.0112913
0.011269
0.0112441
0.0112169
0.0111876
0.0111564
0.0111237
0.0110896
0.0110544
0.0110184
0.0109816
0.0109444
0.0109069
0.0108694
0.0108318
0.0107945
0.0107575
0.010721
0.0106849
0.0106494
0.0113824
0.0113812
0.01138
0.0113789
0.0113776
0.0113761
0.0113742
0.0113716
0.0113679
0.0113633
0.0113573
0.0113492
0.0113393
0.0113275
0.0113138
0.0112982
0.0112807
0.0112615
0.0112407
0.0112184
0.0111948
0.01117
0.0111443
0.0111177
0.0110905
0.0110627
0.0110345
0.011006
0.0109774
0.0109488
0.0109202
0.0108918
0.0108636
0.0113824
0.0113812
0.01138
0.0113789
0.0113777
0.0113765
0.0113751
0.0113734
0.0113712
0.0113684
0.0113647
0.0113603
0.0113547
0.0113476
0.0113393
0.0113297
0.0113186
0.0113062
0.0112925
0.0112775
0.0112614
0.0112442
0.011226
0.0112069
0.0111871
0.0111666
0.0111455
0.0111241
0.0111022
0.0110801
0.0110578
0.0110355
0.011013
0.0113824
0.0113812
0.01138
0.0113789
0.0113777
0.0113766
0.0113754
0.0113741
0.0113726
0.0113708
0.0113685
0.0113656
0.011362
0.0113578
0.0113527
0.0113464
0.0113392
0.0113309
0.0113215
0.011311
0.0112996
0.0112872
0.0112738
0.0112597
0.0112447
0.011229
0.0112127
0.0111958
0.0111785
0.0111608
0.0111427
0.0111244
0.0111059
0.0113824
0.0113812
0.01138
0.0113789
0.0113777
0.0113766
0.0113755
0.0113744
0.0113731
0.0113716
0.0113699
0.0113677
0.0113649
0.0113616
0.0113579
0.0113533
0.0113477
0.0113412
0.0113337
0.0113254
0.0113161
0.0113059
0.0112948
0.0112829
0.0112702
0.0112567
0.0112426
0.0112279
0.0112127
0.011197
0.0111808
0.0111643
0.0111475
0.0113824
0.0113812
0.01138
0.0113789
0.0113777
0.0113766
0.0113755
0.0113743
0.011373
0.0113714
0.0113696
0.0113673
0.0113643
0.011361
0.011357
0.011352
0.0113461
0.0113394
0.0113317
0.011323
0.0113134
0.0113029
0.0112915
0.0112793
0.0112662
0.0112524
0.0112379
0.0112227
0.011207
0.0111908
0.0111741
0.011157
0.0111395
0.0113824
0.0113812
0.01138
0.0113789
0.0113777
0.0113766
0.0113753
0.0113739
0.0113721
0.01137
0.0113672
0.0113638
0.0113598
0.0113547
0.0113486
0.0113415
0.0113333
0.0113239
0.0113135
0.011302
0.0112894
0.0112758
0.0112613
0.0112458
0.0112295
0.0112124
0.0111947
0.0111762
0.0111573
0.0111378
0.0111179
0.0110976
0.0110769
0.0113824
0.0113812
0.0113801
0.0113789
0.0113777
0.0113763
0.0113746
0.0113725
0.0113696
0.0113659
0.0113613
0.0113552
0.0113477
0.0113387
0.0113283
0.0113164
0.0113029
0.0112881
0.0112718
0.0112543
0.0112355
0.0112155
0.0111945
0.0111726
0.0111498
0.0111262
0.011102
0.0110772
0.0110519
0.0110262
0.0110002
0.0109739
0.0109473
0.0113824
0.0113813
0.0113801
0.0113789
0.0113774
0.0113754
0.0113725
0.0113686
0.0113635
0.011356
0.0113464
0.0113346
0.0113205
0.0113041
0.0112856
0.0112648
0.0112421
0.0112175
0.0111913
0.0111635
0.0111343
0.0111039
0.0110725
0.0110402
0.0110071
0.0109734
0.0109393
0.0109047
0.0108698
0.0108348
0.0107997
0.0107645
0.0107293
0.0113825
0.0113813
0.0113801
0.0113785
0.0113761
0.0113724
0.0113671
0.0113587
0.0113467
0.0113311
0.0113119
0.0112889
0.0112625
0.0112327
0.0111999
0.0111644
0.0111264
0.0110863
0.0110444
0.0110009
0.0109562
0.0109105
0.010864
0.0108169
0.0107695
0.0107217
0.010674
0.0106262
0.0105786
0.0105312
0.0104842
0.0104375
0.0103913
0.0113825
0.0113814
0.0113798
0.0113765
0.0113722
0.0113643
0.0113503
0.0113304
0.0113043
0.0112721
0.0112341
0.0111907
0.0111425
0.0110902
0.0110343
0.0109754
0.0109142
0.0108511
0.0107866
0.0107212
0.0106551
0.0105887
0.0105223
0.0104561
0.0103903
0.010325
0.0102604
0.0101966
0.0101337
0.0100717
0.0100107
0.00995081
0.00989195
0.0113826
0.011381
0.0113775
0.0113718
0.0113596
0.0113361
0.0113019
0.0112569
0.0112019
0.0111378
0.0110658
0.0109874
0.0109038
0.0108163
0.0107258
0.0106334
0.0105398
0.0104457
0.0103517
0.0102583
0.0101657
0.0100743
0.00998425
0.00989583
0.00980912
0.00972424
0.00964123
0.00956015
0.00948102
0.00940385
0.00932862
0.00925533
0.00918392
0.0113825
0.0113788
0.0113716
0.011353
0.0113127
0.0112518
0.011172
0.0110758
0.0109662
0.0108463
0.0107189
0.0105866
0.0104514
0.010315
0.0101787
0.0100436
0.00991046
0.00977983
0.00965215
0.00952771
0.0094067
0.00928925
0.00917538
0.00906512
0.00895843
0.00885524
0.00875549
0.00865908
0.00856592
0.0084759
0.0083889
0.00830482
0.00822355
0.0113812
0.0113725
0.0113447
0.0112758
0.0111629
0.0110167
0.0108453
0.0106566
0.0104576
0.0102537
0.010049
0.00984636
0.00964791
0.00945501
0.00926855
0.00908902
0.00891666
0.00875152
0.00859352
0.00844247
0.00829817
0.00816032
0.00802866
0.00790287
0.00778267
0.00766777
0.00755787
0.00745271
0.00735203
0.00725558
0.00716313
0.00707444
0.00698934
0.0113782
0.0113393
0.0112232
0.0110042
0.0107271
0.0104172
0.0100941
0.00977091
0.00945594
0.00915381
0.00886684
0.00859598
0.00834135
0.00810249
0.0078787
0.00766909
0.00747273
0.00728868
0.00711603
0.00695391
0.00680152
0.00665809
0.00652293
0.00639541
0.00627495
0.006161
0.00605309
0.00595076
0.00585362
0.00576129
0.00567343
0.00558973
0.00550994
0.0113586
0.0111672
0.0107279
0.0101792
0.00961625
0.00907932
0.00858434
0.00813482
0.00772911
0.00736328
0.00703308
0.00673454
0.00646397
0.00621807
0.00599397
0.00578912
0.00560132
0.00542868
0.00526952
0.0051224
0.00498606
0.00485941
0.00474148
0.00463143
0.0045285
0.00443204
0.00434148
0.00425628
0.00417599
0.00410019
0.00402854
0.00396066
0.00389633
0.0112033
0.0102861
0.00914641
0.00815421
0.00734287
0.00668195
0.00613762
0.00568215
0.00529589
0.00496409
0.00467659
0.00442548
0.00420456
0.00400894
0.00383466
0.00367854
0.00353797
0.0034108
0.00329525
0.00318983
0.00309329
0.00300456
0.00292274
0.00284706
0.00277686
0.00271155
0.00265065
0.00259371
0.00254036
0.00249025
0.0024431
0.00239863
0.00235666
0.00988216
0.00703421
0.00556286
0.00467196
0.00408012
0.00363658
0.00328371
0.00299359
0.00275229
0.00254988
0.00237857
0.0022323
0.00210634
0.00199697
0.00190125
0.00181688
0.001742
0.00167511
0.00161503
0.00156075
0.00151149
0.00146657
0.00142543
0.0013876
0.0013527
0.00132037
0.00129035
0.00126238
0.00123625
0.00121177
0.0011888
0.00116716
0.00114678
0.00388346
0.00236705
0.00191
0.00162434
0.00144104
0.00128337
0.00114973
0.00104121
0.000953271
0.000881435
0.000822105
0.000772523
0.000730603
0.000694778
0.000663861
0.000636946
0.000613329
0.000592457
0.000573891
0.000557279
0.000542335
0.000528827
0.000516558
0.000505372
0.000495131
0.000485724
0.00047705
0.000469033
0.000461596
0.000454683
0.000448235
0.000442215
0.00043657
0.000128162
0.00013943
0.0001503
0.000159954
0.000168407
0.000175843
0.000182398
0.000188173
0.000193256
0.000197723
0.000201644
0.000205081
0.000208088
0.000210714
0.000213003
0.000214993
0.00021672
0.000218212
0.000219498
0.000220602
0.000221544
0.000222343
0.000223015
0.000223576
0.000224038
0.000224413
0.00022471
0.000224938
0.000225106
0.00022522
0.000225287
0.000225312
0.0002253
8.48716e-05
9.9448e-05
0.000123102
0.000154785
0.000190596
0.00022852
0.000266742
0.000303899
0.000339328
0.000372923
0.000405003
0.000436078
0.000466663
0.000497133
0.000527587
0.000557922
0.000587589
0.000616233
0.000643271
0.0006681
0.000690257
0.000709513
0.000725881
0.000739548
0.000751022
0.000760651
0.000769511
0.000778983
0.000790574
0.000806469
0.00082941
0.000863269
0.000914389
0.00098976
0.00109669
0.00124277
0.0014423
0.00171725
0.00209313
0.00259854
0.00327024
0.00416494
0.0053941
0.00711954
0.00940018
0.0119889
0.0144746
0.0165933
0.0182453
0.0194504
0.0202787
0.02081
0.0211161
0.0212563
0.0212778
0.0212173
0.0211032
0.0209572
0.0207961
0.0206326
0.0204759
0.0203361
0.0202095
0.02012
0.0200536
0.0200041
0.0199691
0.019945
0.0199277
0.0199128
0.0198963
0.0198748
0.0198456
0.0198066
0.0197569
0.0196958
0.0196235
0.0195403
0.0194469
0.0193443
0.0192335
0.0191155
0.0189914
0.0188622
0.018729
0.0185926
0.0184541
0.0183143
0.0181737
0.0180333
0.0178934
0.0177548
0.0176178
0.0174829
0.0173504
0.0172206
0.0170938
0.0169703
0.0168485
0.0167185
0.000136088
0.00013695
0.00014094
0.000148282
0.000158232
0.000171613
0.000187652
0.000206364
0.000227132
0.000249143
0.00027214
0.00029625
0.000321831
0.000349206
0.000378444
0.000409291
0.000441118
0.000473117
0.000504478
0.000534672
0.000563065
0.000589341
0.000613515
0.000635934
0.000657311
0.000678478
0.000701249
0.000727808
0.00076002
0.000800503
0.000852284
0.000920021
0.00100917
0.0011266
0.0012798
0.0014795
0.00173986
0.00207867
0.00251731
0.00308238
0.00381
0.00475966
0.00604691
0.00783475
0.0101637
0.0127528
0.0152238
0.0173124
0.0189277
0.0200948
0.0208871
0.0213855
0.0216627
0.021778
0.0217784
0.0217005
0.0215725
0.021416
0.0212476
0.02108
0.0209221
0.0207841
0.0206615
0.0205791
0.0205203
0.0204794
0.0204535
0.0204386
0.02043
0.020423
0.0204133
0.0203971
0.0203717
0.020335
0.0202861
0.0202246
0.0201504
0.0200644
0.0199672
0.0198601
0.019744
0.0196201
0.0194897
0.0193538
0.0192137
0.0190702
0.0189243
0.018777
0.018629
0.0184811
0.0183338
0.0181877
0.0180434
0.0179012
0.0177614
0.0176246
0.0174907
0.0173602
0.0172315
0.017095
0.00023629
0.000234015
0.000232177
0.000231423
0.000231988
0.000234224
0.000238286
0.000244303
0.00025221
0.000261859
0.000273215
0.00028642
0.000301837
0.000319935
0.000341177
0.00036583
0.000393822
0.000424705
0.000457666
0.000491413
0.000525243
0.000558655
0.000591625
0.000624531
0.000658115
0.000694176
0.000733876
0.0007778
0.000829438
0.000892398
0.000971349
0.0010719
0.00120123
0.0013619
0.00156141
0.0018104
0.00212209
0.00251201
0.00299919
0.00360887
0.00437682
0.00536433
0.00668731
0.00851475
0.0108422
0.0134184
0.0158695
0.0179355
0.0195279
0.0206726
0.0214434
0.0219219
0.0221808
0.0222799
0.0222663
0.0221765
0.0220388
0.021875
0.0217016
0.0215312
0.0213731
0.0212372
0.0211187
0.0210414
0.0209896
0.0209566
0.0209392
0.0209328
0.0209323
0.0209327
0.0209293
0.0209183
0.0208966
0.0208623
0.0208143
0.0207523
0.0206766
0.0205879
0.0204871
0.0203755
0.0202542
0.0201246
0.0199879
0.0198453
0.0196981
0.0195473
0.0193939
0.0192389
0.0190832
0.0189274
0.0187723
0.0186183
0.0184661
0.0183161
0.0181686
0.018024
0.0178825
0.0177443
0.0176082
0.0174644
0.000413844
0.000408883
0.000404447
0.00040111
0.000399241
0.000398946
0.000400214
0.000402927
0.000406869
0.000411822
0.000417673
0.000424458
0.000432383
0.000441815
0.000453313
0.000467376
0.000484467
0.000504911
0.000528861
0.000556189
0.000586688
0.000620149
0.000656609
0.000696412
0.000740282
0.000789772
0.000846448
0.000912339
0.000990751
0.00108465
0.00119843
0.00133507
0.00149793
0.00169378
0.00193094
0.00221936
0.00257091
0.00299966
0.00352338
0.00416636
0.00496283
0.00597437
0.00732742
0.00915003
0.0114543
0.0140002
0.0164252
0.0184733
0.0200534
0.0211884
0.0219505
0.0224203
0.0226707
0.0227617
0.0227404
0.0226439
0.0225006
0.0223324
0.022156
0.0219844
0.0218269
0.0216929
0.0215787
0.0215048
0.0214594
0.0214334
0.0214235
0.0214248
0.0214319
0.0214391
0.0214418
0.0214356
0.0214175
0.0213855
0.0213386
0.0212764
0.0211993
0.0211081
0.0210039
0.020888
0.0207617
0.0206264
0.0204835
0.0203343
0.02018
0.0200218
0.0198608
0.0196979
0.0195341
0.0193702
0.0192069
0.0190448
0.0188843
0.018726
0.0185703
0.0184174
0.0182677
0.0181213
0.0179771
0.0178255
0.000661458
0.000653522
0.000646367
0.000640519
0.000636728
0.000634843
0.00063492
0.000636802
0.000640227
0.000644989
0.000650912
0.00065802
0.000666385
0.000676229
0.000687579
0.000700798
0.000716276
0.00073443
0.000755697
0.000780507
0.000809331
0.000842671
0.000881184
0.000925714
0.000977301
0.00103757
0.00110801
0.00119141
0.00128867
0.0014021
0.00153548
0.00169329
0.00188062
0.00210375
0.00237026
0.00268913
0.00307112
0.0035292
0.00408005
0.0047471
0.0055614
0.00659284
0.00795231
0.00974548
0.0120093
0.0145082
0.0169006
0.0189334
0.0205095
0.0216457
0.0224099
0.0228813
0.0231321
0.0232223
0.0231996
0.0231012
0.022956
0.0227862
0.022609
0.0224373
0.0222811
0.0221487
0.0220395
0.0219669
0.021927
0.0219072
0.021904
0.0219121
0.0219258
0.0219394
0.0219475
0.0219459
0.0219314
0.0219018
0.021856
0.0217937
0.0217155
0.021622
0.0215147
0.0213947
0.0212636
0.0211228
0.0209738
0.020818
0.0206567
0.0204911
0.0203224
0.0201516
0.0199797
0.0198074
0.0196357
0.019465
0.019296
0.019129
0.0189647
0.0188031
0.0186447
0.0184896
0.0183369
0.0181768
0.00099011
0.000977632
0.000966502
0.000957234
0.000950276
0.000945066
0.000942868
0.000942783
0.000944653
0.000948252
0.000953421
0.000960194
0.000968669
0.000979074
0.000991621
0.00100656
0.00102419
0.00104483
0.00106886
0.00109675
0.00112906
0.00116646
0.0012098
0.0012601
0.00131853
0.00138665
0.0014661
0.00155916
0.00166819
0.00179593
0.0019458
0.00212206
0.00232974
0.00257486
0.00286451
0.00320694
0.00361204
0.00409183
0.00466178
0.00534493
0.00616776
0.0072153
0.00855249
0.0103072
0.0125115
0.0149492
0.0173024
0.0193207
0.0208992
0.0220455
0.0228217
0.0233039
0.0235634
0.0236599
0.0236415
0.023546
0.0234026
0.023234
0.0230579
0.0228875
0.022733
0.0226022
0.0224981
0.0224258
0.02239
0.0223754
0.0223777
0.0223917
0.0224113
0.0224304
0.0224436
0.0224463
0.0224351
0.0224078
0.0223632
0.0223012
0.022222
0.0221266
0.0220164
0.0218927
0.021757
0.021611
0.0214562
0.0212939
0.0211257
0.0209528
0.0207764
0.0205976
0.0204174
0.0202368
0.0200564
0.019877
0.0196991
0.0195233
0.0193499
0.0191794
0.0190119
0.0188477
0.0186859
0.0185169
0.00141679
0.00139749
0.00138032
0.00136539
0.00135355
0.00134376
0.00133734
0.00133288
0.0013316
0.0013324
0.0013352
0.0013401
0.00134721
0.00135679
0.00136909
0.00138439
0.00140297
0.00142516
0.00145133
0.00148195
0.0015176
0.00155899
0.00160705
0.00166285
0.0017277
0.00180319
0.00189113
0.00199371
0.00211348
0.00225346
0.0024171
0.00260862
0.00283286
0.00309556
0.00340323
0.00376355
0.00418555
0.00468028
0.00526203
0.00595051
0.00678933
0.00782428
0.00912964
0.0108343
0.0129635
0.015328
0.017635
0.0196384
0.0212239
0.0223879
0.0231847
0.0236862
0.023962
0.0240717
0.0240633
0.0239753
0.0238373
0.0236728
0.0234997
0.0233319
0.0231799
0.0230512
0.0229512
0.0228791
0.0228455
0.022835
0.0228419
0.0228607
0.0228851
0.0229091
0.0229267
0.0229333
0.0229253
0.0229004
0.0228572
0.0227954
0.0227156
0.0226186
0.0225058
0.0223787
0.0222389
0.0220879
0.0219275
0.021759
0.0215841
0.021404
0.0212201
0.0210334
0.020845
0.0206558
0.0204668
0.0202786
0.0200917
0.0199067
0.0197242
0.0195443
0.0193675
0.0191938
0.0190226
0.0188442
0.00195217
0.00192354
0.00189782
0.00187488
0.00185564
0.00183899
0.00182674
0.00181555
0.00180911
0.00180457
0.00180297
0.00180414
0.00180789
0.00181479
0.00182502
0.00183887
0.00185662
0.00187862
0.00190528
0.00193707
0.00197459
0.00201859
0.00206999
0.00212995
0.00219981
0.0022812
0.00237603
0.00248652
0.00261526
0.00276535
0.0029402
0.00314396
0.00338123
0.00365737
0.00397836
0.00435133
0.00478437
0.00528758
0.00587384
0.00657005
0.00740547
0.00841436
0.00968425
0.011326
0.0133672
0.0156475
0.0179012
0.019888
0.0214835
0.0226713
0.0234963
0.0240251
0.0243247
0.024454
0.0244613
0.0243853
0.0242566
0.024099
0.0239311
0.0237672
0.0236183
0.0234923
0.0233943
0.0233253
0.0232904
0.0232831
0.0232934
0.023316
0.0233444
0.0233723
0.0233938
0.0234039
0.0233989
0.0233761
0.0233344
0.0232732
0.023193
0.0230948
0.0229798
0.0228497
0.022706
0.0225505
0.0223848
0.0222105
0.0220291
0.021842
0.0216507
0.0214563
0.0212597
0.0210621
0.0208645
0.0206674
0.0204714
0.0202772
0.0200853
0.019896
0.0197096
0.0195263
0.0193453
0.0191571
0.00259514
0.00255508
0.00251862
0.00248558
0.00245671
0.00243113
0.0024101
0.00239176
0.00237741
0.00236641
0.00235754
0.00235279
0.00235068
0.00235314
0.00235934
0.00236976
0.00238471
0.00240457
0.00242975
0.00246077
0.00249821
0.00254286
0.00259566
0.0026578
0.00273068
0.00281594
0.00291556
0.00303175
0.00316714
0.00332482
0.003508
0.00372074
0.00396737
0.00425273
0.00458238
0.00496287
0.00540106
0.00590644
0.00649642
0.00719057
0.00800499
0.00898773
0.0102125
0.0117808
0.0137234
0.0159099
0.0181028
0.0200696
0.0216765
0.0228931
0.023753
0.0243163
0.0246468
0.0248022
0.0248308
0.0247718
0.0246561
0.0245085
0.024348
0.0241896
0.0240447
0.0239216
0.023825
0.0237596
0.0237225
0.0237166
0.0237293
0.0237545
0.0237859
0.023817
0.0238417
0.0238548
0.0238524
0.0238318
0.0237916
0.0237311
0.0236508
0.0235517
0.0234349
0.0233022
0.0231552
0.0229955
0.0228249
0.0226451
0.0224577
0.0222639
0.0220654
0.0218635
0.021659
0.021453
0.0212469
0.021041
0.0208361
0.0206326
0.0204314
0.0202325
0.0200362
0.0198431
0.0196522
0.019454
0.00333258
0.00327995
0.00323145
0.00318697
0.003147
0.00311099
0.00307962
0.00305194
0.00302835
0.00300882
0.00299219
0.00298054
0.00296991
0.00296621
0.00296618
0.0029713
0.00298162
0.00299744
0.00301926
0.00304757
0.00308296
0.00312624
0.00317838
0.0032406
0.00331434
0.00340126
0.00350337
0.00362284
0.00376228
0.00392475
0.00411307
0.0043313
0.00458351
0.00487363
0.00520748
0.00559009
0.00602758
0.00653439
0.00712042
0.00779623
0.00858977
0.00953905
0.0107106
0.0121968
0.0140325
0.0161163
0.0182404
0.0201827
0.0218008
0.0230496
0.0239501
0.0245547
0.024923
0.025111
0.0251666
0.0251293
0.0250308
0.0248964
0.0247458
0.0245947
0.024455
0.0243353
0.0242414
0.0241768
0.0241402
0.0241322
0.0241463
0.0241731
0.0242065
0.0242398
0.024267
0.0242826
0.0242825
0.0242639
0.0242252
0.0241656
0.0240856
0.0239858
0.0238678
0.0237329
0.0235829
0.0234195
0.0232447
0.0230597
0.0228667
0.0226666
0.0224613
0.0222523
0.0220401
0.0218261
0.0216115
0.021397
0.0211831
0.0209706
0.0207599
0.0205514
0.0203454
0.0201423
0.0199414
0.019733
0.0041418
0.0040767
0.00401608
0.0039599
0.00390843
0.0038614
0.00381912
0.00378113
0.00374751
0.00371835
0.00369288
0.00367247
0.00365504
0.00364355
0.00363593
0.00363305
0.00363709
0.00364714
0.0036641
0.00368806
0.00371964
0.00375973
0.00380932
0.00386969
0.00394227
0.00402872
0.00413103
0.00425132
0.00439218
0.00455654
0.00474668
0.00496684
0.00522094
0.00551112
0.00584522
0.00622365
0.00666199
0.00715998
0.0077299
0.00838723
0.00915353
0.0100628
0.0111742
0.0125718
0.0142941
0.0162673
0.0183141
0.0202257
0.0218531
0.0231361
0.0240821
0.0247342
0.0251468
0.0253738
0.0254623
0.0254519
0.0253749
0.0252572
0.0251193
0.0249776
0.0248444
0.024729
0.0246377
0.0245738
0.0245383
0.0245274
0.0245411
0.0245684
0.0246027
0.0246374
0.0246663
0.0246838
0.0246857
0.024669
0.0246318
0.0245732
0.0244936
0.0243937
0.0242747
0.0241382
0.0239859
0.0238193
0.0236406
0.023451
0.0232528
0.0230471
0.0228355
0.0226195
0.0223999
0.0221783
0.0219555
0.0217325
0.0215099
0.0212885
0.0210685
0.0208504
0.0206347
0.0204218
0.0202107
0.019992
0.00499408
0.00491792
0.00484635
0.00477938
0.00471718
0.00465965
0.00460691
0.00455877
0.00451521
0.00447633
0.00444173
0.00441217
0.00438676
0.00436696
0.00435193
0.0043421
0.00433932
0.00434064
0.00435133
0.00436966
0.00439602
0.00443148
0.004477
0.00453392
0.0046036
0.00468767
0.00478811
0.0049069
0.00504666
0.00521007
0.00539861
0.00561736
0.00587
0.00615511
0.00648632
0.00686164
0.00728693
0.00777107
0.00832312
0.00895629
0.00968962
0.0105531
0.011599
0.0129031
0.0145072
0.0163628
0.0183235
0.0201969
0.0218297
0.0231473
0.0241424
0.0248475
0.0253109
0.0255832
0.0257106
0.0257326
0.0256818
0.0255847
0.0254626
0.0253326
0.0252077
0.0250978
0.0250096
0.024947
0.0249104
0.0249
0.0249097
0.0249367
0.0249711
0.0250063
0.0250362
0.0250551
0.0250585
0.0250434
0.0250077
0.0249503
0.0248714
0.0247716
0.0246522
0.0245145
0.0243603
0.0241911
0.0240093
0.0238159
0.023613
0.023402
0.0231844
0.0229619
0.0227354
0.0225064
0.0222759
0.0220448
0.0218137
0.0215836
0.0213546
0.0211271
0.0209018
0.020679
0.0204579
0.0202288
0.00585837
0.00577367
0.00569341
0.00561767
0.00554656
0.00548009
0.00541832
0.00536119
0.00530871
0.00526095
0.00521779
0.00517963
0.00514621
0.00511826
0.00509568
0.00507865
0.00506838
0.00506404
0.00506729
0.00507925
0.00509755
0.00512752
0.00516797
0.00522037
0.00528574
0.00536581
0.00546251
0.00557777
0.00571409
0.00587394
0.00605739
0.00627208
0.00652026
0.00680035
0.00712074
0.00748449
0.00789611
0.00836235
0.00889167
0.0094957
0.0101911
0.0110041
0.0119804
0.0131876
0.0146703
0.0164022
0.0182678
0.0200938
0.0217262
0.023077
0.0241235
0.0248863
0.0254065
0.0257306
0.0259032
0.0259632
0.0259436
0.0258715
0.0257689
0.0256534
0.025539
0.025436
0.0253519
0.025291
0.0252549
0.0252421
0.0252509
0.0252742
0.0253077
0.0253428
0.025373
0.0253927
0.0253972
0.0253835
0.0253492
0.0252929
0.0252149
0.0251157
0.0249962
0.0248579
0.0247025
0.0245318
0.0243472
0.0241503
0.0239433
0.0237275
0.0235046
0.0232761
0.0230433
0.0228074
0.0225695
0.0223306
0.0220916
0.021853
0.0216152
0.0213787
0.0211439
0.0209115
0.0206804
0.0204411
0.00670449
0.00661457
0.00652871
0.00644703
0.00636964
0.00629662
0.00622804
0.00616393
0.00610433
0.00604933
0.00599896
0.00595348
0.00591292
0.00587773
0.00584809
0.00582423
0.00580691
0.00579622
0.00579285
0.00579802
0.00581117
0.00583449
0.00586874
0.00591514
0.00597494
0.00604966
0.0061411
0.00625109
0.00638191
0.00653582
0.00671403
0.00692076
0.00715912
0.00742997
0.00773793
0.00808661
0.00848027
0.00892458
0.00942697
0.00999758
0.0106509
0.0114097
0.0123133
0.0134218
0.0147815
0.0163848
0.0181459
0.0199139
0.0215379
0.0229183
0.024017
0.0248414
0.0254239
0.0258062
0.0260303
0.0261345
0.0261516
0.0261092
0.0260301
0.0259326
0.0258313
0.0257372
0.0256586
0.0256003
0.0255648
0.0255512
0.0255573
0.0255788
0.0256083
0.0256429
0.0256727
0.0256926
0.0256978
0.0256852
0.0256522
0.025597
0.0255202
0.0254218
0.0253026
0.025165
0.025009
0.0248367
0.02465
0.0244504
0.0242398
0.0240199
0.0237923
0.0235585
0.0233198
0.0230776
0.0228329
0.0225868
0.0223401
0.0220935
0.0218474
0.021602
0.0213582
0.0211164
0.0208757
0.0206262
0.00750578
0.00741434
0.00732638
0.00724205
0.00716151
0.00708486
0.00701223
0.00694369
0.00687934
0.0068193
0.00676368
0.00671271
0.00666657
0.00662559
0.00659008
0.00656034
0.00653694
0.0065203
0.00651095
0.00650985
0.00651734
0.00653462
0.00656276
0.006603
0.00665663
0.00672514
0.00681019
0.00691353
0.00703719
0.00718323
0.00735329
0.00755016
0.00777664
0.00803457
0.00832712
0.00865757
0.00902976
0.00944856
0.00992038
0.010454
0.0110619
0.0117636
0.0125927
0.0136019
0.0148385
0.0163093
0.0179569
0.019655
0.0212602
0.0226642
0.0238137
0.0247023
0.0253521
0.0257988
0.026081
0.0262357
0.0262955
0.0262882
0.0262373
0.0261617
0.0260766
0.0259941
0.0259228
0.0258685
0.0258343
0.0258202
0.0258244
0.0258432
0.0258703
0.025902
0.0259306
0.0259505
0.025956
0.0259442
0.0259125