/*--------------------------------*- C++ -*----------------------------------*\
  =========                 |
  \\      /  F ield         | OpenFOAM: The Open Source CFD Toolbox
   \\    /   O peration     | Website:  https://openfoam.org
    \\  /    A nd           | Version:  10
     \\/     M anipulation  |
\*---------------------------------------------------------------------------*/
FoamFile
{
    format      ascii;
    class       volScalarField;
    location    "300";
    object      omega;
}
// * * * * * * * * * * * * * * * * * * * * * * * * * * * * * * * * * * * * * //

dimensions      [0 0 -1 0 0 0 0];

internalField   nonuniform List<scalar> 
6820
(
6119.63
8495.52
9975.2
10745.9
11095.3
11205.7
11182.3
11086.5
10954.9
10809.2
10661.6
10518.9
10384.3
10259.3
10144
10038.3
9941.59
9853.16
9772.33
9698.43
9630.85
9569.01
9512.45
9460.73
9413.5
9370.43
9331.29
9295.87
9263.93
9235.91
9208.7
9199.88
9129.95
563.862
1593.61
2118.94
2485.09
2809.54
3046.55
3201.52
3296.7
3352.18
3380.52
3392.17
3390.95
3386.39
3377.01
3365.69
3353.49
3341.79
3330.12
3319.8
3309.46
3300.91
3291.75
3284.72
3276.27
3270.27
3261.81
3256.19
3246.92
3240.73
3229.94
3221.18
3208.11
3194.83
97.8518
383.669
612.494
783.17
925.759
1043.93
1139.31
1214.87
1274.39
1320.48
1356.08
1382.94
1403.2
1418.29
1429.24
1437.12
1442.43
1446.1
1448.02
1449.32
1449.32
1448.99
1448.31
1446.81
1445.68
1443.44
1442.01
1439.19
1437.41
1433.96
1431.62
1427.12
1423.65
35.0872
109.688
194.397
270.868
339.965
401.647
455.876
503.05
543.95
579.171
609.434
635.293
657.367
676.158
692.154
705.717
717.251
726.975
735.254
742.151
748.063
752.862
757.009
760.269
763.045
765.145
766.81
768.002
768.693
769.106
768.982
768.487
767.587
22.8644
46.9738
78.9688
111.635
143.669
174.259
202.87
229.276
253.488
275.545
295.563
313.651
329.972
344.647
357.855
369.686
380.331
389.832
398.39
405.996
412.852
418.923
424.381
429.203
433.499
437.286
440.603
443.507
445.969
448.091
449.769
451.166
452.033
19.4481
28.8206
42.7171
57.8221
73.3476
88.8169
103.89
118.357
132.118
145.112
157.32
168.733
179.379
189.272
198.46
206.962
214.842
222.108
228.832
235.017
240.732
245.978
250.81
255.242
259.3
263.017
266.389
269.472
272.22
274.729
276.893
278.859
280.46
18.2936
22.3022
29.0877
36.8307
45.0333
53.4139
61.781
70.0066
78.0128
85.7448
93.17
100.265
107.024
113.439
119.519
125.262
130.686
135.792
140.602
145.118
149.362
153.338
157.063
160.547
163.797
166.831
169.644
172.263
174.668
176.9
178.916
180.775
182.417
17.8627
19.6403
23.1424
27.4228
32.1005
36.9785
41.9325
46.8801
51.7676
56.5563
61.2202
65.7398
70.104
74.3037
78.3364
82.1981
85.8916
89.4158
92.7761
95.9733
99.0133
101.899
104.635
107.226
109.674
111.987
114.163
116.212
118.128
119.925
121.59
123.14
124.56
17.692
18.5019
20.2895
22.7573
25.559
28.5519
31.6443
34.7757
37.9058
41.0057
44.0554
47.0397
49.9487
52.7743
55.5121
58.1581
60.711
63.169
65.5327
67.8019
69.9778
72.0613
74.0537
75.9568
77.7715
79.5
81.1425
82.7021
84.1774
85.5724
86.8842
88.1169
89.2681
17.6213
17.991
18.8818
20.3065
22.0171
23.9067
25.9032
27.9577
30.0371
32.118
34.1836
36.2215
38.2231
40.1814
42.0918
43.9508
45.756
47.5055
49.1984
50.834
52.4122
53.9328
55.3961
56.8025
58.1522
59.446
60.6839
61.8669
62.9948
64.0687
65.088
66.0534
66.9655
17.591
17.7571
18.1869
18.988
20.0272
21.2282
22.5356
23.9096
25.3222
26.7531
28.1878
29.6153
31.0277
32.4189
33.7844
35.1209
36.4257
37.6971
38.9336
40.1343
41.2984
42.4256
43.5155
44.5681
45.5833
46.5611
47.5017
48.4051
49.2714
50.1008
50.8932
51.6487
52.368
17.5777
17.6498
17.8524
18.2774
18.896
19.6509
20.5045
21.4264
22.3937
23.3889
24.399
25.4144
26.4276
27.4329
28.4261
29.4038
30.3635
31.3032
32.2215
33.1171
33.9892
34.8372
35.6606
36.4589
37.2321
37.9799
38.7022
39.3989
40.07
40.7155
41.3354
41.9295
42.4984
17.5717
17.6007
17.6931
17.9044
18.2586
18.7206
19.2682
19.8802
20.5391
21.2307
21.9438
22.6696
23.4015
24.1342
24.8636
25.5863
26.3
27.0026
27.6924
28.3684
29.0294
29.6747
30.3037
30.916
31.5112
32.0889
32.6491
33.1914
33.7159
34.2224
34.7108
35.1811
35.6335
17.5685
17.5784
17.6178
17.7162
17.9077
18.1795
18.5203
18.9175
19.3588
19.8337
20.333
20.8494
21.377
21.9109
22.4474
22.9834
23.5163
24.0442
24.5654
25.0788
25.5831
26.0777
26.5617
27.0347
27.4962
27.9459
28.3834
28.8086
29.2212
29.6212
30.0085
30.3828
30.7443
17.5667
17.5683
17.5828
17.6258
17.7198
17.8724
18.0761
18.3254
18.6131
18.9319
19.2754
19.6377
20.0138
20.3997
20.7919
21.1876
21.5844
21.9805
22.3742
22.7642
23.1495
23.5293
23.9026
24.2691
24.6281
24.9793
25.3223
25.6569
25.9828
26.2999
26.608
26.9071
27.1969
17.5661
17.5628
17.5665
17.583
17.6244
17.704
17.8195
17.9692
18.1499
18.3575
18.5875
18.8359
19.099
19.3733
19.6561
19.9448
20.2375
20.5322
20.8276
21.1224
21.4155
21.7061
21.9933
22.2767
22.5556
22.8297
23.0985
23.3618
23.6193
23.8708
24.1162
24.3553
24.5879
17.5661
17.56
17.5584
17.5628
17.5788
17.6149
17.6761
17.7613
17.8696
17.9992
18.1479
18.3131
18.4921
18.6825
18.8821
19.0889
19.3012
19.5174
19.7362
19.9564
20.1772
20.3976
20.6169
20.8345
21.0499
21.2627
21.4724
21.6788
21.8816
22.0806
22.2755
22.4661
22.6524
17.5661
17.559
17.554
17.5531
17.5572
17.5707
17.5992
17.6441
17.7051
17.7821
17.874
17.9794
18.097
18.225
18.362
18.5063
18.6568
18.8121
18.9711
19.1329
19.2966
19.4614
19.6267
19.7919
19.9566
20.1202
20.2824
20.443
20.6016
20.7579
20.9118
21.0631
21.2116
17.5662
17.5588
17.5523
17.5477
17.5467
17.5498
17.5599
17.5806
17.6122
17.6548
17.7083
17.7724
17.8462
17.9289
18.0195
18.1171
18.2205
18.3291
18.4418
18.558
18.6768
18.7978
18.9202
19.0436
19.1676
19.2918
19.4158
19.5392
19.662
19.7837
19.9042
20.0233
20.1408
17.5662
17.5587
17.5516
17.5455
17.5411
17.5395
17.5412
17.5479
17.5617
17.5829
17.6117
17.648
17.6918
17.7426
17.7999
17.8631
17.9317
18.0051
18.0826
18.1637
18.2478
18.3345
18.4232
18.5136
18.6054
18.698
18.7913
18.885
18.9788
19.0725
19.166
19.2589
19.3511
17.5662
17.5587
17.5514
17.5446
17.5387
17.5342
17.5317
17.5322
17.5357
17.5439
17.5574
17.5761
17.6
17.6292
17.6634
17.7024
17.7459
17.7935
17.845
17.8998
17.9576
18.0181
18.0809
18.1457
18.2123
18.2803
18.3494
18.4195
18.4904
18.5618
18.6336
18.7055
18.7775
17.5662
17.5587
17.5513
17.5443
17.5377
17.5319
17.5271
17.5239
17.5229
17.5241
17.5282
17.5362
17.5476
17.5628
17.5817
17.6043
17.6305
17.6601
17.693
17.7288
17.7675
17.8087
17.8523
17.898
17.9455
17.9948
18.0455
18.0976
18.1508
18.2049
18.2599
18.3156
18.3717
17.5662
17.5587
17.5513
17.5442
17.5373
17.5309
17.525
17.5201
17.5164
17.514
17.5139
17.5153
17.5192
17.526
17.5354
17.5476
17.5625
17.5802
17.6007
17.6237
17.6492
17.677
17.7071
17.7392
17.7733
17.8091
17.8466
17.8856
17.926
17.9676
18.0103
18.054
18.0985
17.5662
17.5587
17.5513
17.5441
17.5372
17.5305
17.5242
17.5185
17.5135
17.5095
17.5067
17.5054
17.5058
17.5076
17.5116
17.5179
17.5263
17.5371
17.5501
17.5653
17.5828
17.6024
17.624
17.6477
17.6732
17.7006
17.7296
17.7603
17.7924
17.8259
17.8607
17.8966
17.9336
17.5662
17.5587
17.5513
17.5441
17.5371
17.5304
17.524
17.518
17.5127
17.5081
17.5044
17.502
17.5011
17.5015
17.5032
17.5069
17.5128
17.5206
17.5305
17.5424
17.5563
17.5723
17.5902
17.6101
17.6318
17.6553
17.6805
17.7074
17.7357
17.7655
17.7967
17.8291
17.8627
17.5662
17.5587
17.5513
17.5441
17.5372
17.5305
17.5242
17.5184
17.5134
17.5091
17.506
17.5041
17.5039
17.5048
17.5074
17.5121
17.5187
17.5274
17.5381
17.5508
17.5656
17.5824
17.6012
17.6219
17.6444
17.6687
17.6947
17.7223
17.7515
17.7821
17.814
17.8472
17.8816
17.5662
17.5587
17.5513
17.5442
17.5373
17.5309
17.5252
17.5202
17.5163
17.5136
17.5125
17.5132
17.5155
17.5201
17.5269
17.536
17.5474
17.561
17.577
17.5952
17.6156
17.6381
17.6627
17.6892
17.7175
17.7477
17.7795
17.8129
17.8478
17.8841
17.9217
17.9605
18.0003
17.5662
17.5587
17.5514
17.5444
17.5379
17.5323
17.5278
17.5247
17.5236
17.5246
17.5278
17.5342
17.5435
17.5558
17.5711
17.5894
17.6107
17.6347
17.6615
17.6909
17.7228
17.7569
17.7933
17.8316
17.8718
17.9137
17.9572
18.0022
18.0486
18.0962
18.1449
18.1947
18.2453
17.5662
17.5587
17.5515
17.5451
17.5397
17.5359
17.5346
17.5359
17.5403
17.5494
17.5627
17.5806
17.6029
17.6296
17.6605
17.6954
17.7341
17.7763
17.8218
17.8702
17.9213
17.9748
18.0306
18.0883
18.1477
18.2088
18.2712
18.3349
18.3996
18.4653
18.5318
18.5991
18.6668
17.5662
17.5588
17.5522
17.5473
17.5448
17.5458
17.5509
17.5624
17.581
17.6067
17.6393
17.6789
17.7251
17.7773
17.8353
17.8983
17.966
18.0377
18.113
18.1914
18.2726
18.3561
18.4415
18.5287
18.6172
18.7069
18.7975
18.8889
18.9808
19.0732
19.1658
19.2586
19.3515
17.5662
17.5594
17.5546
17.5544
17.5583
17.5702
17.5941
17.6296
17.6767
17.7354
17.8048
17.8841
17.9724
18.0685
18.1714
18.2803
18.3941
18.5121
18.6335
18.7577
18.8841
19.0122
19.1416
19.272
19.4029
19.5341
19.6654
19.7965
19.9274
20.0578
20.1877
20.3168
20.4452
17.5662
17.5617
17.5631
17.5721
17.5955
17.641
17.707
17.7931
17.8981
18.02
18.1568
18.3062
18.4663
18.6351
18.811
18.9924
19.1782
19.3671
19.5584
19.7512
19.9448
20.1387
20.3324
20.5255
20.7178
20.9088
21.0985
21.2867
21.4731
21.6578
21.8406
22.0214
22.2002
17.5672
17.5701
17.586
17.6281
17.7119
17.835
17.994
18.1845
18.4015
18.6402
18.8961
19.1654
19.4449
19.7318
20.0238
20.3191
20.6162
20.9139
21.2111
21.5071
21.8012
22.093
22.382
22.6679
22.9504
23.2294
23.5048
23.7764
24.0442
24.3082
24.5683
24.8246
25.077
17.5716
17.5954
17.6665
17.8185
18.0544
18.3566
18.7119
19.108
19.5342
19.9819
20.4443
20.916
21.393
21.8721
22.3509
22.8275
23.3005
23.7689
24.2318
24.6886
25.1388
25.5822
26.0185
26.4477
26.8695
27.2841
27.6914
28.0915
28.4845
28.8705
29.2497
29.6221
29.9878
17.5854
17.6975
17.9705
18.4433
19.0466
19.7415
20.4965
21.2886
22.1018
22.925
23.7506
24.5732
25.389
26.1954
26.9904
27.7729
28.5418
29.2968
30.0374
30.7635
31.475
32.1721
32.8548
33.5234
34.1781
34.8192
35.447
36.0618
36.6639
37.2537
37.8316
38.3979
38.9526
17.6523
18.1441
19.1462
20.4595
21.9321
23.4827
25.062
26.6428
28.2096
29.7545
31.2728
32.7614
34.2187
35.6438
37.0363
38.3962
39.7239
41.0198
42.2844
43.5184
44.7224
45.8973
47.0437
48.1625
49.2545
50.3205
51.3613
52.3778
53.3707
54.3408
55.2889
56.2161
57.1222
18.0423
20.3426
23.6971
27.328
30.9728
34.5423
38.0072
41.3681
44.6285
47.7971
50.8756
53.8661
56.771
59.5924
62.3324
64.9933
67.577
70.0859
72.5219
74.8875
77.1847
79.4158
81.5832
83.6891
85.7356
87.7251
89.6597
91.5418
93.373
95.156
96.892
98.5842
100.232
21.0779
32.2388
43.8845
55.0871
65.2701
74.7312
83.684
92.2953
100.597
108.599
116.307
123.728
130.87
137.738
144.342
150.691
156.792
162.656
168.292
173.71
178.92
183.931
188.753
193.396
197.868
202.178
206.334
210.347
214.221
217.966
221.588
225.096
228.491
63.289
131.159
179.994
220.994
253.72
287.005
320.962
353.893
385.136
414.427
441.694
466.98
490.394
512.072
532.155
550.779
568.075
584.165
599.161
613.164
626.267
638.553
650.099
660.97
671.233
680.938
690.141
698.882
707.209
715.15
722.749
730.024
737.018
1672.14
1819.15
1960.96
2086.92
2197.22
2294.23
2379.75
2455.1
2521.41
2579.69
2630.85
2675.69
2714.92
2749.18
2779.04
2805.01
2827.53
2847
2863.77
2878.17
2890.45
2900.87
2909.64
2916.95
2922.97
2927.85
2931.72
2934.69
2936.88
2938.36
2939.22
2939.53
2939.36
9057.44
8513.76
7927.4
7340.93
6806.45
6318.15
5877.58
5482.78
5129.22
4812.13
4526.38
4267.16
4029.88
3810.39
3605.46
3412.15
3229.3
3054.27
2885.88
2723.38
2565.83
2412.02
2260.49
2109.75
1957.87
1803.81
1645.51
1481.62
1312.35
1139.01
965.052
795.723
637.216
497.45
382.985
296.275
234.21
191.316
162.383
143.226
130.828
123.307
119.407
118.202
119.009
121.763
126.294
131.87
138.003
144.333
150.603
156.63
162.279
167.455
172.086
176.117
179.514
182.252
184.325
185.739
186.521
186.676
186.332
185.355
183.955
182.257
180.343
178.291
176.174
174.052
171.973
169.972
168.075
166.294
164.636
163.099
161.681
160.373
159.169
158.059
157.034
156.087
155.211
154.396
153.639
152.932
152.272
151.654
151.074
150.531
150.021
149.543
149.095
148.676
148.285
147.922
147.586
147.276
147
146.727
3156.67
3176.98
3201.99
3214.44
3229.01
3226.29
3211.59
3174.96
3119.61
3053.78
2980.98
2902.77
2819.06
2728.99
2631.88
2527.44
2416.29
2299.4
2177.7
2051.62
1922.71
1791.82
1659.33
1525.31
1389.69
1252.86
1114.62
975.914
839.626
708.945
587.694
479.101
386.085
310.136
251.139
207.03
174.934
151.965
135.73
124.479
117.065
112.773
111.015
111.185
112.945
116.564
121.63
127.613
134.064
140.648
147.121
153.31
159.09
164.368
169.078
173.17
176.609
179.376
181.464
182.882
183.657
183.797
183.434
182.433
181.021
179.318
177.406
175.366
173.271
171.182
169.147
167.201
165.366
163.655
162.071
160.614
159.278
158.055
156.936
155.911
154.972
154.109
153.315
152.583
151.906
151.278
150.694
150.15
149.644
149.17
148.729
148.317
147.933
147.576
147.245
146.939
146.66
146.405
146.181
145.963
1416.01
1408.52
1401.43
1391.66
1379.71
1365.55
1349.84
1333.13
1316.63
1301.52
1288.24
1276.49
1265.23
1252.92
1237.71
1217.78
1191.67
1158.44
1117.91
1071.08
1017.97
959.135
895.206
827.065
755.848
682.219
608.222
536.452
467.546
402.883
343.737
291.249
246.066
209.251
180.072
157.357
139.934
126.792
117.118
110.293
105.928
103.757
103.482
104.552
107.215
111.405
116.863
123.138
129.822
136.597
143.232
149.56
155.459
160.842
165.643
169.816
173.326
176.155
178.297
179.762
180.575
180.747
180.408
179.442
178.061
176.39
174.514
172.515
170.467
168.432
166.457
164.577
162.815
161.18
159.676
158.301
157.049
155.911
154.877
153.937
153.083
152.304
151.592
150.94
150.342
149.791
149.283
148.812
148.377
147.972
147.597
147.25
146.928
146.631
146.359
146.11
145.885
145.682
145.508
145.342
765.696
762.514
758.644
752.969
744.914
734.513
722.105
708.274
693.791
679.381
665.533
652.469
640.172
628.421
616.752
604.748
591.905
577.682
561.535
543.09
522.062
498.354
472
443.228
412.46
380.104
346.951
313.833
281.391
250.569
221.975
196.435
174.387
155.679
140.078
127.306
117.065
109.082
103.116
98.9794
96.5927
95.8657
96.4578
98.4076
101.68
106.27
111.999
118.472
125.313
132.224
138.981
145.422
151.428
156.914
161.815
166.084
169.689
172.61
174.84
176.389
177.28
177.529
177.256
176.377
175.065
173.464
171.657
169.727
167.75
165.788
163.889
162.087
160.405
158.853
157.434
156.144
154.978
153.926
152.977
152.123
151.352
150.655
150.025
149.453
148.932
148.458
148.023
147.625
147.26
146.923
146.614
146.329
146.069
145.831
145.615
145.421
145.249
145.097
144.972
144.855
452.917
452.855
452.285
450.808
447.875
443.609
438.034
431.355
423.862
415.807
407.41
398.759
389.915
380.865
371.714
362.387
352.801
342.865
332.466
321.489
309.807
297.323
283.964
269.716
254.653
238.869
222.654
206.176
190.053
174.638
160.138
146.753
134.666
123.988
114.764
106.993
100.636
95.6454
91.9753
89.5922
88.5633
88.734
90.0289
92.6373
96.2962
101.158
107.054
113.64
120.571
127.565
134.405
140.934
147.033
152.617
157.621
162
165.718
168.755
171.103
172.77
173.776
174.146
173.971
173.227
172.024
170.527
168.82
166.987
165.104
163.233
161.425
159.713
158.121
156.658
155.327
154.126
153.048
152.083
151.22
150.451
149.763
149.149
148.599
148.106
147.662
147.263
146.902
146.575
146.278
146.009
145.764
145.542
145.342
145.162
145.001
144.86
144.74
144.638
144.56
144.491
282.139
283.493
284.451
284.841
284.5
283.58
281.709
279.179
276.065
272.475
268.496
264.166
259.512
254.527
249.22
243.595
237.655
231.404
224.841
217.959
210.743
203.182
195.263
186.988
178.383
169.49
160.404
151.217
142.084
133.174
124.647
116.646
109.298
102.7
96.9248
92.0193
88.011
84.9219
82.778
81.5938
81.5161
82.2321
84.1654
87.1466
91.0611
96.0812
102.053
108.676
115.635
122.661
129.547
136.135
142.309
147.983
153.092
157.586
161.431
164.604
167.096
168.91
170.066
170.591
170.549
169.979
168.923
167.562
165.985
164.275
162.508
160.748
159.046
157.436
155.941
154.574
153.338
152.229
151.24
150.363
149.588
148.904
148.3
147.767
147.298
146.883
146.516
146.191
145.902
145.646
145.418
145.215
145.034
144.873
144.732
144.61
144.504
144.416
144.347
144.294
144.263
144.239
184.164
185.85
187.26
188.364
189.021
189.355
189.169
188.663
187.664
186.343
184.727
182.823
180.645
178.187
175.451
172.44
169.161
165.619
161.823
157.778
153.486
148.951
144.176
139.168
133.947
128.541
123
117.387
111.78
106.27
100.958
95.9364
91.2952
87.1104
83.4475
80.3592
77.8914
76.0895
75.0054
74.7043
75.1128
76.4014
78.7374
81.9247
85.9808
91.0587
97.024
103.616
110.544
117.556
124.448
131.067
137.296
143.048
148.256
152.869
156.85
160.174
162.828
164.814
166.147
166.856
166.985
166.615
165.745
164.553
163.133
161.571
159.942
158.311
156.729
155.233
153.847
152.583
151.445
150.431
149.536
148.749
148.062
147.463
146.943
146.493
146.103
145.767
145.476
145.225
145.009
144.822
144.662
144.525
144.408
144.309
144.227
144.161
144.11
144.075
144.056
144.052
144.067
144.089
126.091
127.662
129.062
130.287
131.255
132.027
132.462
132.79
132.742
132.523
132.064
131.388
130.52
129.437
128.146
126.647
124.943
123.039
120.938
118.643
116.158
113.487
110.633
107.606
104.418
101.093
97.6608
94.165
90.6574
87.1954
83.8469
80.6752
77.7457
75.1171
72.8458
70.9798
69.5712
68.6717
68.3432
68.5649
69.4277
71.138
73.6698
76.9619
81.0654
86.115
92.0016
98.4984
105.342
112.292
119.153
125.773
132.035
137.849
143.147
147.876
151.996
155.48
158.311
160.488
162.021
162.938
163.279
163.114
162.477
161.479
160.244
158.853
157.384
155.899
154.453
153.083
151.814
150.66
149.627
148.714
147.914
147.22
146.622
146.11
145.675
145.307
144.998
144.74
144.525
144.349
144.204
144.088
143.996
143.925
143.871
143.833
143.811
143.802
143.806
143.823
143.854
143.899
143.961
144.027
90.5231
91.8513
93.0775
94.1986
95.1752
96.0272
96.6946
97.242
97.6115
97.8254
97.9356
97.8626
97.6747
97.2997
96.7833
96.1176
95.3031
94.3406
93.2314
91.9773
90.5808
89.0444
87.372
85.5698
83.6482
81.6233
79.517
77.3593
75.1861
73.036
70.9595
68.9999
67.2059
65.6255
64.304
63.2846
62.6222
62.3639
62.5162
63.135
64.3896
66.3099
68.9415
72.2562
76.3278
81.2769
87.0207
93.3657
100.073
106.917
113.709
120.297
126.565
132.422
137.797
142.635
146.893
150.54
153.557
155.938
157.689
158.834
159.415
159.471
159.093
158.32
157.294
156.098
154.808
153.488
152.193
150.961
149.82
148.785
147.862
147.054
146.354
145.755
145.249
144.826
144.476
144.191
143.963
143.784
143.645
143.544
143.472
143.426
143.403
143.398
143.408
143.431
143.468
143.517
143.575
143.646
143.729
143.822
143.932
144.043
67.9689
69.0503
70.0717
71.0292
71.9042
72.6994
73.3909
73.9938
74.4928
74.8857
75.1991
75.3828
75.5393
75.5236
75.4235
75.2085
74.8854
74.4564
73.9198
73.2778
72.5326
71.686
70.7411
69.7025
68.5782
67.3802
66.1241
64.832
63.5288
62.2419
61.0109
59.8647
58.8398
57.9801
57.3146
56.8912
56.7581
56.9082
57.4135
58.3792
59.8416
61.8785
64.5359
67.8083
71.7832
76.5719
82.1177
88.2591
94.7829
101.478
108.161
114.685
120.932
126.809
132.244
137.178
141.567
145.375
148.581
151.173
153.154
154.543
155.373
155.69
155.566
155.059
154.263
153.283
152.191
151.053
149.923
148.843
147.84
146.932
146.127
145.429
144.833
144.333
143.921
143.589
143.326
143.126
142.979
142.88
142.819
142.794
142.796
142.819
142.865
142.927
143.001
143.088
143.185
143.291
143.406
143.531
143.666
143.809
143.967
144.124
53.165
54.0345
54.8688
55.6641
56.4112
57.1077
57.7433
58.3194
58.8307
59.2725
59.6553
59.9575
60.2134
60.3775
60.4866
60.5309
60.4789
60.352
60.1431
59.8602
59.5052
59.0788
58.5837
58.0236
57.4049
56.737
56.0315
55.3054
54.576
53.8635
53.2014
52.6065
52.1054
51.747
51.5318
51.5364
51.7208
52.1931
52.9842
54.1416
55.728
57.8118
60.4391
63.6194
67.447
72.0272
77.3283
83.2207
89.5168
96.021
102.559
108.984
115.179
121.052
126.525
131.54
136.047
140.009
143.4
146.205
148.423
150.065
151.16
151.751
151.893
151.669
151.129
150.384
149.509
148.57
147.62
146.703
145.85
145.078
144.399
143.818
143.33
142.933
142.619
142.379
142.206
142.093
142.029
142.012
142.029
142.079
142.155
142.251
142.367
142.497
142.638
142.788
142.946
143.111
143.283
143.464
143.652
143.847
144.054
144.258
43.1324
43.8304
44.5078
45.1616
45.7866
46.38
46.9364
47.4542
47.9303
48.3614
48.7503
49.0883
49.3858
49.6276
49.8252
49.9768
50.0645
50.1267
50.1085
50.0369
49.9166
49.7468
49.5308
49.2712
48.9746
48.6484
48.3017
47.9475
47.5983
47.27
46.9933
46.7718
46.626
46.6199
46.7074
46.9686
47.4325
48.1224
49.0816
50.3571
52.0044
54.0835
56.639
59.6907
63.3331
67.6679
72.6866
78.2909
84.3198
90.5944
96.9488
103.241
109.354
115.193
120.681
125.755
130.364
134.467
138.036
141.05
143.503
145.403
146.77
147.644
148.077
148.126
147.874
147.38
146.739
146.014
145.259
144.519
143.826
143.2
142.655
142.197
141.824
141.534
141.321
141.179
141.097
141.073
141.094
141.158
141.256
141.384
141.535
141.706
141.894
142.093
142.301
142.516
142.737
142.963
143.194
143.431
143.675
143.923
144.181
144.433
36.14
36.7017
37.2516
37.7875
38.3063
38.8055
39.2819
39.7337
40.1586
40.5542
40.9207
41.2544
41.5576
41.8252
42.0595
42.2613
42.4232
42.5558
42.6497
42.7013
42.7377
42.7236
42.6801
42.6089
42.5181
42.4129
42.3004
42.1911
42.0942
42.0225
42.0088
42.0359
42.1288
42.3384
42.6568
43.1157
43.7454
44.5739
45.6363
46.9737
48.6345
50.6709
53.1249
56.0225
59.4532
63.5167
68.2245
73.5086
79.2353
85.2444
91.3799
97.5044
103.502
109.278
114.753
119.862
124.552
128.78
132.512
135.726
138.409
140.564
142.207
143.368
144.092
144.439
144.466
144.253
143.861
143.363
142.817
142.266
141.745
141.276
140.872
140.546
140.294
140.117
140.01
139.967
139.981
140.045
140.155
140.303
140.484
140.692
140.922
141.169
141.429
141.7
141.977
142.259
142.545
142.833
143.125
143.421
143.722
144.025
144.336
144.64
31.1509
31.6044
32.0516
32.4908
32.9202
33.3377
33.7415
34.1297
34.5008
34.853
35.1858
35.4971
35.787
36.0537
36.2971
36.5176
36.7129
36.8855
37.0349
37.1583
37.2654
37.35
37.4164
37.4678
37.5097
37.5475
37.5877
37.6388
37.7087
37.8081
37.9556
38.1552
38.42
38.7777
39.2395
39.8267
40.5631
41.4747
42.5914
43.9487
45.5881
47.5545
49.8869
52.614
55.817
59.5931
63.9707
68.9099
74.305
80.0161
85.899
91.8221
97.6718
103.353
108.785
113.903
118.649
122.98
126.857
130.255
133.158
135.562
137.475
138.923
139.943
140.586
140.909
140.974
140.857
140.598
140.274
139.924
139.586
139.283
139.031
138.843
138.72
138.661
138.666
138.723
138.836
138.995
139.196
139.433
139.699
139.99
140.3
140.624
140.96
141.304
141.653
142.004
142.357
142.71
143.065
143.423
143.784
144.144
144.511
144.868
27.5242
27.8913
28.2555
28.6157
28.9706
29.3189
29.6591
29.9899
30.3102
30.6187
30.9145
31.1966
31.4644
31.7172
31.9545
32.1764
32.3824
32.5732
32.7496
32.9111
33.0616
33.2014
33.333
33.4593
33.5845
33.7135
33.852
34.007
34.1858
34.397
34.6532
34.9632
35.3377
35.7942
36.3466
37.0124
37.8112
38.7654
39.9005
41.2469
42.8398
44.7177
46.9159
49.4639
52.4316
55.9133
59.9502
64.5275
69.5678
74.9528
80.5521
86.2414
91.9103
97.4644
102.823
107.92
112.696
117.103
121.104
124.666
127.772
130.411
132.587
134.317
135.631
136.572
137.192
137.546
137.701
137.702
137.611
137.473
137.329
137.202
137.111
137.072
137.084
137.145
137.264
137.433
137.649
137.908
138.204
138.532
138.886
139.262
139.655
140.06
140.474
140.893
141.316
141.739
142.161
142.582
143.004
143.426
143.849
144.271
144.695
145.108
24.8515
25.1488
25.4455
25.7409
26.0339
26.3237
26.6094
26.8898
27.1642
27.4316
27.6913
27.9427
28.1851
28.4182
28.6417
28.8556
29.0599
29.2551
29.4423
29.6219
29.7961
29.9667
30.1361
30.307
30.4832
30.669
30.8694
31.0904
31.3384
31.621
31.9475
32.3269
32.7691
33.2867
33.8927
34.6018
35.4307
36.398
37.5258
38.8394
40.3686
42.1462
44.2038
46.5699
49.3023
52.4906
56.1845
60.391
65.0596
70.0953
75.3834
80.8086
86.2652
91.6603
96.914
101.958
106.733
111.19
115.286
118.99
122.277
125.134
127.558
129.559
131.161
132.398
133.314
133.96
134.39
134.656
134.81
134.898
134.959
135.018
135.095
135.209
135.363
135.557
135.798
136.082
136.407
136.769
137.164
137.587
138.033
138.498
138.976
139.465
139.959
140.458
140.957
141.455
141.95
142.442
142.932
143.423
143.911
144.396
144.882
145.354
22.8644
23.1048
23.3461
23.5879
23.8294
24.07
24.309
24.5458
24.7796
25.0099
25.2361
25.4578
25.6745
25.886
26.0922
26.2932
26.4893
26.681
26.8692
27.0551
27.2402
27.4266
27.6165
27.8128
28.0189
28.2387
28.4766
28.738
29.0285
29.3547
29.7242
30.1451
30.6262
31.1779
31.8112
32.5388
33.3746
34.3344
35.4366
36.7026
38.1573
39.8282
41.7434
43.9298
46.4329
49.3351
52.6915
56.5259
60.813
65.4819
70.4353
75.569
80.7832
85.9879
91.1041
96.0633
100.806
105.281
109.445
113.263
116.706
119.758
122.411
124.668
126.546
128.07
129.279
130.214
130.925
131.46
131.866
132.187
132.461
132.715
132.971
133.247
133.55
133.884
134.253
134.659
135.098
135.568
136.067
136.589
137.13
137.686
138.254
138.829
139.408
139.989
140.567
141.143
141.715
142.281
142.845
143.407
143.964
144.516
145.066
145.6
21.3813
21.5749
21.7706
21.9678
22.1662
22.3653
22.5647
22.7639
22.9624
23.1598
23.3557
23.5498
23.742
23.9321
24.12
24.3062
24.4908
24.6746
24.8585
25.0436
25.2316
25.4243
25.624
25.8335
26.0558
26.2946
26.5539
26.8384
27.1533
27.5042
27.8977
28.3409
28.8415
29.4083
30.0507
30.7794
31.6062
32.5443
33.609
34.8181
36.1921
37.7544
39.5292
41.5413
43.8267
46.4549
49.4856
52.9543
56.8575
61.148
65.7481
70.5662
75.5104
80.4946
85.442
90.2844
94.9622
99.4234
103.623
107.524
111.096
114.316
117.174
119.667
121.803
123.603
125.095
126.316
127.307
128.112
128.774
129.334
129.829
130.286
130.729
131.175
131.635
132.115
132.621
133.153
133.712
134.296
134.902
135.528
136.169
136.821
137.482
138.148
138.815
139.481
140.143
140.801
141.452
142.097
142.739
143.376
144.006
144.628
145.245
145.846
20.2759
20.431
20.5888
20.749
20.9113
21.0755
21.2413
21.4084
21.5764
21.7451
21.9142
22.0837
22.2533
22.4232
22.5935
22.7644
22.9364
23.1103
23.2869
23.4675
23.6535
23.8469
24.0498
24.2647
24.4946
24.7427
25.0129
25.3092
25.6364
25.9994
26.4041
26.8565
27.3635
27.9325
28.5717
29.29
30.0973
31.0047
32.0247
33.1719
34.4632
35.918
37.5574
39.4034
41.4852
43.8563
46.5787
49.6948
53.2188
57.1262
61.3596
65.8423
70.4919
75.2278
79.976
84.6698
89.25
93.6641
97.8666
101.818
105.486
108.846
111.882
114.586
116.96
119.018
120.78
122.277
123.543
124.616
125.535
126.338
127.059
127.727
128.363
128.988
129.612
130.245
130.893
131.559
132.244
132.947
133.666
134.4
135.145
135.899
136.657
137.417
138.176
138.932
139.682
140.426
141.162
141.89
142.613
143.329
144.036
144.732
145.422
146.093
19.4578
19.5813
19.7079
19.8375
19.9699
20.105
20.2426
20.3824
20.5245
20.6685
20.8145
20.9623
21.112
21.2637
21.4177
21.5742
21.7338
21.8973
22.0655
22.2398
22.4215
22.6123
22.8145
23.0302
23.2624
23.5139
23.7883
24.0893
24.4211
24.7882
25.1957
25.649
26.154
26.717
27.3452
28.0459
28.8275
29.699
30.6708
31.7546
32.9642
34.3155
35.8264
37.5164
39.4097
41.5455
43.9808
46.7635
49.9202
53.4466
57.3059
61.4381
65.7721
70.2344
74.7551
79.2696
83.7199
88.0537
92.225
96.1935
99.9251
103.392
106.575
109.462
112.049
114.343
116.359
118.118
119.65
120.985
122.159
123.206
124.157
125.038
125.874
126.684
127.48
128.273
129.07
129.876
130.692
131.52
132.359
133.206
134.061
134.919
135.78
136.639
137.495
138.345
139.188
140.022
140.847
141.664
142.473
143.273
144.06
144.835
145.6
146.346
18.8613
18.9591
19.0604
19.1651
19.273
19.3842
19.4985
19.6159
19.7364
19.8598
19.9863
20.1157
20.2484
20.3844
20.524
20.6678
20.8161
20.9699
21.13
21.2976
21.4741
21.6611
21.8607
22.075
22.3066
22.5582
22.8331
23.1346
23.4665
23.833
24.2384
24.6876
25.1857
25.7381
26.3509
27.0304
27.7833
28.6171
29.5401
30.5617
31.6929
32.9466
34.3378
35.8834
37.6038
39.5285
41.7016
44.1747
46.9825
50.1372
53.6216
57.3935
61.395
65.5616
69.8288
74.1352
78.4244
82.6452
86.7515
90.7025
94.4629
98.0031
101.3
104.339
107.11
109.615
111.863
113.867
115.651
117.24
118.663
119.951
121.132
122.231
123.27
124.27
125.244
126.203
127.156
128.108
129.062
130.02
130.983
131.95
132.919
133.888
134.856
135.82
136.777
137.727
138.667
139.597
140.517
141.428
142.328
143.215
144.088
144.945
145.79
146.615
18.4376
18.5154
18.5967
18.6817
18.7703
18.8625
18.9583
19.0578
19.161
19.2679
19.3786
19.4933
19.6121
19.7353
19.8632
19.9964
20.1355
20.2811
20.4342
20.596
20.7677
20.9511
21.1479
21.3601
21.5901
21.8406
22.1144
22.4146
22.7447
23.1084
23.5095
23.9523
24.4413
24.9812
25.5771
26.2342
26.9582
27.7549
28.631
29.5938
30.6519
31.8158
33.0975
34.5112
36.0744
37.8103
39.7522
41.943
44.426
47.2251
50.3406
53.7483
57.4054
61.2579
65.2484
69.3199
73.4185
77.4946
81.5025
85.4015
89.1556
92.7338
96.1109
99.2679
102.193
104.88
107.334
109.562
111.581
113.41
115.074
116.597
118.004
119.321
120.566
121.76
122.916
124.047
125.161
126.264
127.362
128.458
129.551
130.643
131.732
132.818
133.898
134.972
136.037
137.091
138.135
139.167
140.188
141.197
142.193
143.172
144.135
145.08
146.008
146.919
18.1512
18.2141
18.2808
18.3512
18.4254
18.5034
18.5855
18.6716
18.7619
18.8565
18.9555
19.0592
19.1678
19.2816
19.401
19.5266
19.6588
19.7987
19.9469
20.1047
20.2733
20.4542
20.6492
20.8602
21.0893
21.339
21.6119
21.9108
22.239
22.5997
22.9963
23.4328
23.9128
24.4406
25.0203
25.6562
26.3531
27.1155
27.9485
28.8578
29.8498
30.933
32.1164
33.4118
34.8339
36.4018
38.1409
40.085
42.2718
44.7383
47.498
50.5441
53.8499
57.3741
61.068
64.8804
68.7608
72.6618
76.5391
80.3522
84.065
87.6457
91.0672
94.308
97.3525
100.192
102.823
105.25
107.483
109.535
111.426
113.175
114.805
116.336
117.787
119.176
120.518
121.824
123.104
124.365
125.613
126.85
128.08
129.303
130.519
131.727
132.926
134.116
135.294
136.46
137.613
138.754
139.882
140.994
142.09
143.167
144.224
145.262
146.279
147.282
17.9777
18.031
18.0881
18.149
18.2139
18.2829
18.3561
18.4337
18.5159
18.6028
18.6946
18.7917
18.8942
19.0027
19.1175
19.2391
19.3683
19.5057
19.6524
19.8093
19.9778
20.1591
20.3551
20.5674
20.7981
21.0494
21.3238
21.6238
21.9522
22.3121
22.7066
23.1388
23.6121
24.13
24.696
25.3137
25.9866
26.7183
27.5126
28.3736
29.3059
30.3163
31.413
32.6044
33.9022
35.3219
36.8839
38.6144
40.5447
42.7079
45.1321
47.8262
50.7803
53.9666
57.3475
60.8791
64.5158
68.2132
71.9287
75.623
79.26
82.8076
86.2377
89.5267
92.6562
95.6136
98.3921
100.99
103.413
105.668
107.769
109.733
111.575
113.315
114.969
116.553
118.082
119.566
121.016
122.439
123.841
125.227
126.599
127.959
129.307
130.644
131.969
133.281
134.58
135.864
137.135
138.391
139.63
140.851
142.052
143.231
144.389