/*--------------------------------*- C++ -*----------------------------------*\
  =========                 |
  \\      /  F ield         | OpenFOAM: The Open Source CFD Toolbox
   \\    /   O peration     | Website:  https://openfoam.org
    \\  /    A nd           | Version:  10
     \\/     M anipulation  |
\*---------------------------------------------------------------------------*/
FoamFile
{
    format      ascii;
    class       surfaceScalarField;
    location    "300";
    object      phi;
}
// * * * * * * * * * * * * * * * * * * * * * * * * * * * * * * * * * * * * * //

dimensions      [0 3 -1 0 0 0 0];

internalField   nonuniform List<scalar> 
13452
(
6.29963e-05
-2.72785e-06
6.37624e-05
-7.66084e-07
6.45343e-05
-7.71889e-07
6.3861e-05
6.73251e-07
6.25224e-05
1.33859e-06
6.10913e-05
1.43115e-06
5.97643e-05
1.32696e-06
5.85762e-05
1.18811e-06
5.75221e-05
1.05416e-06
5.65888e-05
9.33277e-07
5.57609e-05
8.27925e-07
5.50229e-05
7.37946e-07
5.43616e-05
6.61354e-07
5.3766e-05
5.95598e-07
5.32274e-05
5.38558e-07
5.27388e-05
4.88614e-07
5.22943e-05
4.44462e-07
5.18893e-05
4.05045e-07
5.15198e-05
3.69499e-07
5.11827e-05
3.37132e-07
5.08753e-05
3.07361e-07
5.05956e-05
2.79696e-07
5.03419e-05
2.53703e-07
5.01129e-05
2.2899e-07
4.99077e-05
2.05175e-07
4.97259e-05
1.81875e-07
4.95672e-05
1.5867e-07
4.94322e-05
1.35021e-07
4.93218e-05
1.10359e-07
4.92388e-05
8.30499e-08
4.91843e-05
5.4497e-08
4.91815e-05
2.76013e-09
-5.88666e-08
4.92404e-05
6.28939e-05
-3.63142e-06
6.27379e-05
-6.10083e-07
6.2118e-05
-1.51946e-07
6.23931e-05
3.98097e-07
6.28761e-05
8.55629e-07
6.32705e-05
1.03673e-06
6.35169e-05
1.08056e-06
6.36301e-05
1.07492e-06
6.36404e-05
1.04382e-06
6.35771e-05
9.96595e-07
6.34632e-05
9.4188e-07
6.33154e-05
8.8575e-07
6.31456e-05
8.31068e-07
6.29624e-05
7.7888e-07
6.27714e-05
7.2951e-07
6.2577e-05
6.83023e-07
6.23822e-05
6.39307e-07
6.21891e-05
5.9812e-07
6.19994e-05
5.59185e-07
6.18143e-05
5.22205e-07
6.16348e-05
4.86892e-07
6.14615e-05
4.52947e-07
6.12952e-05
4.2008e-07
6.11362e-05
3.87976e-07
6.0985e-05
3.56315e-07
6.08422e-05
3.24708e-07
6.07081e-05
2.92735e-07
6.05834e-05
2.59735e-07
6.04687e-05
2.25068e-07
6.0365e-05
1.86805e-07
6.02748e-05
1.44705e-07
6.01987e-05
7.88339e-08
1.82983e-08
6.01215e-05
6.23346e-05
-2.20459e-06
6.2629e-05
-9.04549e-07
6.27881e-05
-3.11038e-07
6.30988e-05
8.74213e-08
6.34517e-05
5.02759e-07
6.37558e-05
7.3262e-07
6.40043e-05
8.32013e-07
6.42023e-05
8.77008e-07
6.4354e-05
8.92072e-07
6.44659e-05
8.84648e-07
6.45452e-05
8.62602e-07
6.45982e-05
8.3274e-07
6.46303e-05
7.98982e-07
6.46459e-05
7.63313e-07
6.46485e-05
7.26889e-07
6.46411e-05
6.90458e-07
6.46259e-05
6.54444e-07
6.4605e-05
6.19032e-07
6.45799e-05
5.84268e-07
6.4552e-05
5.50107e-07
6.45225e-05
5.16456e-07
6.44923e-05
4.83153e-07
6.44623e-05
4.5002e-07
6.44335e-05
4.16807e-07
6.44066e-05
3.83238e-07
6.43823e-05
3.48934e-07
6.43616e-05
3.13456e-07
6.43452e-05
2.76113e-07
6.43342e-05
2.36137e-07
6.43292e-05
1.91784e-07
6.43321e-05
1.41796e-07
6.43336e-05
7.73917e-08
1.51112e-08
6.43367e-05
6.47917e-05
-1.41321e-06
6.47398e-05
-8.5262e-07
6.47889e-05
-3.60203e-07
6.49025e-05
-2.61556e-08
6.50774e-05
3.27858e-07
6.52528e-05
5.57249e-07
6.54129e-05
6.71903e-07
6.55567e-05
7.33151e-07
6.56834e-05
7.65407e-07
6.57929e-05
7.75165e-07
6.58865e-05
7.68964e-07
6.59662e-05
7.53055e-07
6.60339e-05
7.31303e-07
6.60914e-05
7.05801e-07
6.61404e-05
6.77879e-07
6.61824e-05
6.48466e-07
6.62187e-05
6.1816e-07
6.62504e-05
5.87303e-07
6.62786e-05
5.56073e-07
6.63042e-05
5.24538e-07
6.63279e-05
4.92688e-07
6.63507e-05
4.60436e-07
6.6373e-05
4.27646e-07
6.63957e-05
3.9411e-07
6.64194e-05
3.59562e-07
6.64447e-05
3.2364e-07
6.64723e-05
2.8589e-07
6.65027e-05
2.45655e-07
6.65367e-05
2.02153e-07
6.65745e-05
1.54001e-07
6.66162e-05
1.00103e-07
6.66567e-05
3.68869e-08
-2.80175e-08
6.66998e-05
6.70184e-05
-9.74788e-07
6.68716e-05
-7.05896e-07
6.68465e-05
-3.35054e-07
6.68759e-05
-5.55164e-08
6.69667e-05
2.37032e-07
6.70781e-05
4.45871e-07
6.71878e-05
5.62119e-07
6.72918e-05
6.2921e-07
6.73886e-05
6.68555e-07
6.74774e-05
6.86375e-07
6.75581e-05
6.88335e-07
6.76311e-05
6.79988e-07
6.76975e-05
6.64948e-07
6.7758e-05
6.45286e-07
6.78135e-05
6.22362e-07
6.78648e-05
5.97146e-07
6.79127e-05
5.70288e-07
6.79578e-05
5.42188e-07
6.80008e-05
5.13076e-07
6.80423e-05
4.83065e-07
6.80828e-05
4.52181e-07
6.81229e-05
4.20366e-07
6.8163e-05
3.87501e-07
6.82037e-05
3.53395e-07
6.82455e-05
3.17788e-07
6.82888e-05
2.80332e-07
6.83341e-05
2.40581e-07
6.83818e-05
1.97939e-07
6.84323e-05
1.51695e-07
6.84855e-05
1.00824e-07
6.8541e-05
4.4527e-08
6.85966e-05
-1.86816e-08
-8.57125e-08
6.86543e-05
6.90892e-05
-6.7993e-07
6.89443e-05
-5.61028e-07
6.89022e-05
-2.92988e-07
6.89071e-05
-6.03886e-08
6.89606e-05
1.83558e-07
6.90374e-05
3.69074e-07
6.91177e-05
4.81845e-07
6.91962e-05
5.50706e-07
6.92717e-05
5.9299e-07
6.93433e-05
6.14782e-07
6.94104e-05
6.21201e-07
6.94733e-05
6.17152e-07
6.95323e-05
6.05969e-07
6.95879e-05
5.89678e-07
6.96406e-05
5.69638e-07
6.96909e-05
5.46821e-07
6.97393e-05
5.2189e-07
6.97862e-05
4.95265e-07
6.98321e-05
4.672e-07
6.98774e-05
4.37828e-07
6.99223e-05
4.07186e-07
6.99675e-05
3.75232e-07
7.00131e-05
3.41854e-07
7.00597e-05
3.06869e-07
7.01074e-05
2.70029e-07
7.01567e-05
2.31002e-07
7.02079e-05
1.89374e-07
7.02613e-05
1.44621e-07
7.03168e-05
9.61408e-08
7.03745e-05
4.31889e-08
7.04338e-05
-1.48043e-08
7.04937e-05
-7.8547e-08
-1.46949e-07
7.05549e-05
7.11539e-05
-4.67488e-07
7.10285e-05
-4.35624e-07
7.09818e-05
-2.4626e-07
7.09759e-05
-5.45738e-08
7.10095e-05
1.49963e-07
7.10655e-05
3.13087e-07
7.11277e-05
4.19644e-07
7.11906e-05
4.87869e-07
7.12526e-05
5.30998e-07
7.13126e-05
5.54722e-07
7.13701e-05
5.63707e-07
7.1425e-05
5.62262e-07
7.14775e-05
5.53439e-07
7.1528e-05
5.39194e-07
7.15768e-05
5.20873e-07
7.16242e-05
4.99435e-07
7.16705e-05
4.75543e-07
7.17162e-05
4.49628e-07
7.17614e-05
4.21955e-07
7.18066e-05
3.92667e-07
7.18519e-05
3.61812e-07
7.18978e-05
3.29355e-07
7.19445e-05
2.95193e-07
7.19922e-05
2.59155e-07
7.20412e-05
2.21006e-07
7.20918e-05
1.80443e-07
7.2144e-05
1.37096e-07
7.21981e-05
9.05195e-08
7.22541e-05
4.02262e-08
7.23116e-05
-1.43232e-08
7.23703e-05
-7.35361e-08
7.24296e-05
-1.37806e-07
-2.06779e-07
7.24894e-05
7.32526e-05
-3.14801e-07
7.31455e-05
-3.28541e-07
7.30968e-05
-1.97544e-07
7.30844e-05
-4.21683e-08
7.31057e-05
1.28622e-07
7.31481e-05
2.70758e-07
7.31983e-05
3.69398e-07
7.32509e-05
4.35244e-07
7.3304e-05
4.77885e-07
7.33564e-05
5.02335e-07
7.34074e-05
5.12765e-07
7.34567e-05
5.1294e-07
7.35045e-05
5.05621e-07
7.3551e-05
4.92676e-07
7.35965e-05
4.75415e-07
7.36411e-05
4.5478e-07
7.36853e-05
4.31424e-07
7.37291e-05
4.05786e-07
7.37729e-05
3.78137e-07
7.3817e-05
3.48629e-07
7.38614e-05
3.17319e-07
7.39066e-05
2.84181e-07
7.39527e-05
2.49124e-07
7.39999e-05
2.11992e-07
7.40483e-05
1.72573e-07
7.40981e-05
1.30599e-07
7.41495e-05
8.57516e-08
7.42023e-05
3.76667e-08
7.42566e-05
-1.4038e-08
7.4312e-05
-6.97478e-08
7.43682e-05
-1.29746e-07
7.44247e-05
-1.94261e-07
-2.63137e-07
7.4481e-05
7.53944e-05
-2.06732e-07
7.53043e-05
-2.38405e-07
7.52559e-05
-1.49196e-07
7.52393e-05
-2.55223e-08
7.52522e-05
1.15711e-07
7.52847e-05
2.38245e-07
7.53262e-05
3.27875e-07
7.53715e-05
3.89984e-07
7.54183e-05
4.31111e-07
7.54652e-05
4.55405e-07
7.55115e-05
4.66483e-07
7.55568e-05
4.67595e-07
7.56012e-05
4.61213e-07
7.56448e-05
4.49089e-07
7.56877e-05
4.32479e-07
7.57302e-05
4.12297e-07
7.57725e-05
3.89184e-07
7.58147e-05
3.63577e-07
7.58571e-05
3.35755e-07
7.58998e-05
3.05877e-07
7.59431e-05
2.74007e-07
7.59872e-05
2.40135e-07
7.60321e-05
2.04182e-07
7.60781e-05
1.66013e-07
7.61252e-05
1.25446e-07
7.61736e-05
8.22511e-08
7.62231e-05
3.61669e-08
7.62739e-05
-1.30944e-08
7.63257e-05
-6.58198e-08
7.63782e-05
-1.22274e-07
7.64311e-05
-1.8264e-07
7.64839e-05
-2.47025e-07
-3.15257e-07
7.6536e-05
7.75843e-05
-1.31453e-07
7.75105e-05
-1.6461e-07
7.7465e-05
-1.0367e-07
7.7446e-05
-6.54946e-09
7.74528e-05
1.08903e-07
7.74778e-05
2.13243e-07
7.75125e-05
2.93209e-07
7.75519e-05
3.50526e-07
7.75938e-05
3.89279e-07
7.76365e-05
4.12684e-07
7.76792e-05
4.23759e-07
7.77215e-05
4.25266e-07
7.77634e-05
4.19385e-07
7.78047e-05
4.07728e-07
7.78457e-05
3.91482e-07
7.78865e-05
3.7152e-07
7.79272e-05
3.48465e-07
7.79681e-05
3.22748e-07
7.80092e-05
2.94652e-07
7.80507e-05
2.64342e-07
7.80928e-05
2.31894e-07
7.81356e-05
1.97309e-07
7.81793e-05
1.60527e-07
7.82239e-05
1.2144e-07
7.82694e-05
7.98947e-08
7.8316e-05
3.57068e-08
7.83635e-05
-1.13309e-08
7.84118e-05
-6.14345e-08
7.84608e-05
-1.14807e-07
7.85101e-05
-1.71615e-07
7.85594e-05
-2.31955e-07
7.86082e-05
-2.95832e-07
-3.62985e-07
7.8656e-05
7.98268e-05
-7.99195e-08
7.97683e-05
-1.06137e-07
7.97276e-05
-6.30093e-08
7.97082e-05
1.29458e-08
7.97107e-05
1.06372e-07
7.97299e-05
1.94076e-07
7.97589e-05
2.64131e-07
7.97936e-05
3.15892e-07
7.98313e-05
3.51557e-07
7.98705e-05
3.73436e-07
7.99103e-05
3.83947e-07
7.99502e-05
3.85384e-07
7.999e-05
3.79636e-07
8.00296e-05
3.68157e-07
8.0069e-05
3.52049e-07
8.01084e-05
3.32134e-07
8.01478e-05
3.09011e-07
8.01875e-05
2.83101e-07
8.02274e-05
2.54684e-07
8.02678e-05
2.23933e-07
8.03088e-05
1.90935e-07
8.03504e-05
1.55704e-07
8.03927e-05
1.18203e-07
8.04358e-05
7.8349e-08
8.04797e-05
3.60231e-08
8.05243e-05
-8.9158e-09
8.05696e-05
-5.66211e-08
8.06154e-05
-1.07244e-07
8.06615e-05
-1.60913e-07
8.07076e-05
-2.17718e-07
8.07534e-05
-2.77676e-07
8.07982e-05
-3.40704e-07
-4.06435e-07
8.08417e-05
8.21258e-05
-4.53218e-08
8.2081e-05
-6.13348e-08
8.20466e-05
-2.85451e-08
8.20282e-05
3.13172e-08
8.20281e-05
1.06465e-07
8.20429e-05
1.79312e-07
8.20674e-05
2.39605e-07
8.2098e-05
2.85347e-07
8.21321e-05
3.17371e-07
8.21684e-05
3.37189e-07
8.22057e-05
3.46648e-07
8.22435e-05
3.47605e-07
8.22814e-05
3.41665e-07
8.23195e-05
3.30113e-07
8.23576e-05
3.13953e-07
8.23958e-05
2.93948e-07
8.24341e-05
2.70665e-07
8.24727e-05
2.44509e-07
8.25116e-05
2.15758e-07
8.2551e-05
1.84589e-07
8.25908e-05
1.51097e-07
8.26312e-05
1.15316e-07
8.26722e-05
7.72269e-08
8.27137e-05
3.67747e-08
8.27559e-05
-6.12431e-09
8.27985e-05
-5.15696e-08
8.28416e-05
-9.96645e-08
8.28849e-05
-1.50502e-07
8.29281e-05
-2.0415e-07
8.2971e-05
-2.6063e-07
8.30132e-05
-3.19893e-07
8.30543e-05
-3.8178e-07
-4.45821e-07
8.30937e-05
8.4485e-05
-2.25895e-08
8.44519e-05
-2.81765e-08
8.44242e-05
-8.38474e-10
8.44082e-05
4.72584e-08
8.4407e-05
1.07695e-07
8.44187e-05
1.67639e-07
8.44396e-05
2.18683e-07
8.44667e-05
2.58242e-07
8.44978e-05
2.86255e-07
8.45314e-05
3.0359e-07
8.45665e-05
3.11587e-07
8.46024e-05
3.11709e-07
8.46388e-05
3.05289e-07
8.46754e-05
2.93442e-07
8.47123e-05
2.77065e-07
8.47494e-05
2.56855e-07
8.47867e-05
2.33341e-07
8.48243e-05
2.0691e-07
8.48623e-05
1.77831e-07
8.49006e-05
1.46285e-07
8.49393e-05
1.12377e-07
8.49784e-05
7.61542e-08
8.50181e-05
3.7621e-08
8.50581e-05
-3.2521e-09
8.50985e-05
-4.65151e-08
8.51391e-05
-9.2228e-08
8.51799e-05
-1.40449e-07
8.52206e-05
-1.91221e-07
8.5261e-05
-2.44559e-07
8.53008e-05
-3.0043e-07
8.53397e-05
-3.5873e-07
8.53771e-05
-4.19231e-07
-4.81382e-07
8.54127e-05
8.69076e-05
-8.0205e-09
8.6884e-05
-4.54161e-09
8.68629e-05
2.02187e-08
8.68502e-05
5.99265e-08
8.68491e-05
1.0883e-07
8.68589e-05
1.57872e-07
8.68771e-05
2.00459e-07
8.69014e-05
2.3395e-07
8.69299e-05
2.57776e-07
8.69611e-05
2.72333e-07
8.69942e-05
2.78546e-07
8.70283e-05
2.77536e-07
8.70632e-05
2.7039e-07
8.70986e-05
2.58055e-07
8.71344e-05
2.41318e-07
8.71704e-05
2.20807e-07
8.72068e-05
1.97009e-07
8.72434e-05
1.70287e-07
8.72803e-05
1.40902e-07
8.73176e-05
1.09035e-07
8.73551e-05
7.47976e-08
8.7393e-05
3.8253e-08
8.74312e-05
-5.75238e-10
8.74697e-05
-4.16906e-08
8.75083e-05
-8.51121e-08
8.75469e-05
-1.30864e-07
8.75854e-05
-1.78965e-07
8.76236e-05
-2.29415e-07
8.76612e-05
-2.82185e-07
8.7698e-05
-3.37199e-07
8.77336e-05
-3.94305e-07
8.77676e-05
-4.53223e-07
-5.13334e-07
8.77995e-05
8.93965e-05
1.0262e-09
8.93804e-05
1.15738e-08
8.93654e-05
3.52137e-08
8.93563e-05
6.89609e-08
8.93562e-05
1.08972e-07
8.93651e-05
1.49012e-07
8.93814e-05
1.84104e-07
8.94035e-05
2.11863e-07
8.94298e-05
2.31505e-07
8.9459e-05
2.43123e-07
8.94902e-05
2.47327e-07
8.95228e-05
2.44957e-07
8.95563e-05
2.36883e-07
8.95905e-05
2.23898e-07
8.96251e-05
2.06682e-07
8.96601e-05
1.85794e-07
8.96954e-05
1.61674e-07
8.97311e-05
1.34661e-07
8.9767e-05
1.05003e-07
8.98031e-05
7.28796e-08
8.98395e-05
3.84092e-08
8.98761e-05
1.66717e-09
8.99128e-05
-3.73044e-08
8.99496e-05
-7.84852e-08
8.99864e-05
-1.21867e-07
9.00229e-05
-1.67442e-07
9.00592e-05
-2.15194e-07
9.00949e-05
-2.6509e-07
9.01297e-05
-3.17064e-07
9.01635e-05
-3.71004e-07
9.0196e-05
-4.26723e-07
9.02266e-05
-4.83896e-07
-5.41859e-07
9.02552e-05
9.19545e-05
6.39388e-09
9.19441e-05
2.19341e-08
9.19343e-05
4.50059e-08
9.19289e-05
7.44103e-08
9.19303e-05
1.07585e-07
9.1939e-05
1.40298e-07
9.19542e-05
1.68905e-07
9.19746e-05
1.91417e-07
9.19991e-05
2.0703e-07
9.20266e-05
2.15675e-07
9.20561e-05
2.17741e-07
9.20872e-05
2.13853e-07
9.21194e-05
2.04701e-07
9.21524e-05
1.90941e-07
9.21859e-05
1.73155e-07
9.22199e-05
1.51832e-07
9.22542e-05
1.27369e-07
9.22888e-05
1.00077e-07
9.23236e-05
7.01905e-08
9.23586e-05
3.78844e-08
9.23937e-05
3.28261e-09
9.24289e-05
-3.3529e-08
9.24641e-05
-7.2492e-08
9.24992e-05
-1.13566e-07
9.2534e-05
-1.56717e-07
9.25685e-05
-2.01912e-07
9.26024e-05
-2.49107e-07
9.26355e-05
-2.98238e-07
9.26677e-05
-3.49213e-07
9.26986e-05
-4.01892e-07
9.27279e-05
-4.56061e-07
9.27554e-05
-5.1136e-07
-5.67098e-07
9.27806e-05
9.45842e-05
9.34618e-09
9.45781e-05
2.80152e-08
9.45726e-05
5.05549e-08
9.45704e-05
7.66174e-08
9.45735e-05
1.04468e-07
9.45825e-05
1.31239e-07
9.45971e-05
1.54316e-07
9.46164e-05
1.72135e-07
9.46395e-05
1.8398e-07
9.46654e-05
1.8972e-07
9.46936e-05
1.89609e-07
9.47233e-05
1.84116e-07
9.47542e-05
1.73788e-07
9.4786e-05
1.59168e-07
9.48184e-05
1.40749e-07
9.48513e-05
1.18958e-07
9.48845e-05
9.41477e-08
9.4918e-05
6.66016e-08
9.49516e-05
3.65407e-08
9.49854e-05
4.1337e-09
9.50191e-05
-3.04928e-08
9.50528e-05
-6.72441e-08
9.50864e-05
-1.06048e-07
9.51197e-05
-1.46847e-07
9.51526e-05
-1.89588e-07
9.51849e-05
-2.34214e-07
9.52164e-05
-2.80658e-07
9.5247e-05
-3.28836e-07
9.52764e-05
-3.78633e-07
9.53044e-05
-4.29889e-07
9.53307e-05
-4.8237e-07
9.53551e-05
-5.35694e-07
-5.89155e-07
9.53771e-05
9.72881e-05
1.07373e-08
9.72851e-05
3.10061e-08
9.72829e-05
5.28024e-08
9.72834e-05
7.61001e-08
9.72882e-05
9.9686e-08
9.72978e-05
1.21598e-07
9.73122e-05
1.39984e-07
9.73306e-05
1.53661e-07
9.73526e-05
1.62053e-07
9.73773e-05
1.65032e-07
9.74041e-05
1.62778e-07
9.74325e-05
1.55655e-07
9.74622e-05
1.44105e-07
9.74928e-05
1.28577e-07
9.75241e-05
1.09493e-07
9.75558e-05
8.72228e-08
9.75879e-05
6.2079e-08
9.76202e-05
3.43188e-08
9.76526e-05
4.14776e-09
9.7685e-05
-2.82717e-08
9.77173e-05
-6.28122e-08
9.77494e-05
-9.93728e-08
9.77812e-05
-1.37871e-07
9.78126e-05
-1.78234e-07
9.78434e-05
-2.20392e-07
9.78735e-05
-2.64272e-07
9.79026e-05
-3.09791e-07
9.79306e-05
-3.56845e-07
9.79573e-05
-4.05306e-07
9.79824e-05
-4.54999e-07
9.80057e-05
-5.05678e-07
9.8027e-05
-5.56947e-07
-6.08097e-07
9.80459e-05
0.000100069
1.11399e-08
0.000100068
3.18397e-08
0.000100068
5.26068e-08
0.000100071
7.3455e-08
0.000100077
9.34952e-08
0.000100087
1.1136e-07
0.000100101
1.25744e-07
0.000100119
1.35782e-07
0.00010014
1.41046e-07
0.000100164
1.41446e-07
0.000100189
1.37134e-07
0.000100217
1.28407e-07
0.000100245
1.15631e-07
0.000100275
9.91868e-08
0.000100305
7.94344e-08
0.000100335
5.66963e-08
0.000100366
3.125e-08
0.000100397
3.32797e-09
0.000100428
-2.68793e-08
0.000100459
-5.92167e-08
0.00010049
-9.35578e-08
0.00010052
-1.29797e-07
0.00010055
-1.67845e-07
0.000100579
-2.07617e-07
0.000100608
-2.49033e-07
0.000100636
-2.92005e-07
0.000100663
-3.36437e-07
0.000100688
-3.82216e-07
0.000100712
-4.29201e-07
0.000100734
-4.77212e-07
0.000100754
-5.25993e-07
0.000100773
-5.75146e-07
-6.23964e-07
0.000100788
0.000102928
1.09378e-08
0.000102929
3.12381e-08
0.000102931
5.07172e-08
0.000102935
6.92906e-08
0.000102942
8.62692e-08
0.000102953
1.00677e-07
0.000102967
1.116e-07
0.000102984
1.18426e-07
0.000103005
1.20865e-07
0.000103027
1.18882e-07
0.000103052
1.12623e-07
0.000103078
1.02351e-07
0.000103105
8.83805e-08
0.000103133
7.10393e-08
0.000103162
5.06402e-08
0.000103191
2.74661e-08
0.000103221
1.764e-09
0.00010325
-2.6256e-08
0.00010328
-5.64178e-08
0.000103309
-8.85742e-08
0.000103338
-1.22601e-07
0.000103367
-1.58392e-07
0.000103395
-1.9585e-07
0.000103422
-2.34885e-07
0.000103448
-2.75408e-07
0.000103474
-3.17322e-07
0.000103498
-3.60522e-07
0.00010352
-4.04889e-07
0.000103541
-4.50278e-07
0.000103561
-4.96503e-07
0.000103578
-5.43309e-07
0.000103593
-5.90298e-07
-6.36775e-07
0.000103606
0.000105869
1.03917e-08
0.000105871
2.97605e-08
0.000105874
4.77753e-08
0.000105879
6.41927e-08
0.000105887
7.84459e-08
0.000105897
8.98254e-08
0.000105911
9.76975e-08
0.000105928
1.01656e-07
0.000105947
1.01531e-07
0.000105969
9.7347e-08
0.000105992
8.92629e-08
0.000106017
7.75225e-08
0.000106043
6.24084e-08
0.00010607
4.42104e-08
0.000106097
2.32045e-08
0.000106125
-3.58677e-10
0.000106153
-2.62582e-08
0.000106181
-5.4304e-08
0.000106209
-8.43334e-08
0.000106237
-1.16208e-07
0.000106264
-1.49806e-07
0.000106291
-1.85023e-07
0.000106317
-2.21759e-07
0.000106342
-2.5992e-07
0.000106366
-2.99411e-07
0.000106388
-3.4013e-07
0.00010641
-3.81969e-07
0.00010643
-4.24805e-07
0.000106448
-4.68491e-07
0.000106464
-5.12844e-07
0.000106479
-5.57611e-07
0.000106491
-6.024e-07
-6.46535e-07
0.000106501
0.000108894
9.68485e-09
0.000108896
2.78493e-08
0.000108899
4.43342e-08
0.000108905
5.8714e-08
0.000108913
7.04966e-08
0.000108924
7.91634e-08
0.000108937
8.42942e-08
0.000108953
8.56499e-08
0.000108971
8.3172e-08
0.000108992
7.69435e-08
0.000109014
6.71453e-08
0.000109037
5.40158e-08
0.000109062
3.78175e-08
0.000109087
1.8813e-08
0.000109113
-2.74995e-09
0.00010914
-2.66468e-08
0.000109166
-5.26791e-08
0.000109192
-8.06745e-08
0.000109219
-1.10483e-07
0.000109244
-1.41976e-07
0.00010927
-1.75036e-07
0.000109294
-2.09561e-07
0.000109318
-2.45451e-07
0.00010934
-2.8261e-07
0.000109362
-3.20942e-07
0.000109382
-3.60344e-07
0.000109401
-4.00706e-07
0.000109418
-4.41906e-07
0.000109433
-4.838e-07
0.000109447
-5.26209e-07
0.000109458
-5.68885e-07
0.000109467
-6.11449e-07
-6.53247e-07
0.000109474
0.000112005
8.95504e-09
0.000112007
2.58724e-08
0.000112011
4.08887e-08
0.000112016
5.33852e-08
0.000112024
6.29169e-08
0.000112034
6.91156e-08
0.000112046
7.17364e-08
0.000112061
7.0688e-08
0.000112078
6.60151e-08
0.000112097
5.78628e-08
0.000112118
4.64399e-08
0.00011214
3.19887e-08
0.000112163
1.47605e-08
0.000112187
-5.00152e-09
0.000112211
-2.70717e-08
0.000112236
-5.12469e-08
0.000112261
-7.73482e-08
0.000112285
-1.05219e-07
0.000112309
-1.34723e-07
0.000112333
-1.6574e-07
0.000112356
-1.9816e-07
0.000112379
-2.31883e-07
0.0001124
-2.66814e-07
0.00011242
-3.02857e-07
0.000112439
-3.39917e-07
0.000112457
-3.77894e-07
0.000112473
-4.16679e-07
0.000112487
-4.56153e-07
0.000112499
-4.96178e-07
0.00011251
-5.36582e-07
0.000112518
-5.77128e-07
0.000112524
-6.17452e-07
-6.56923e-07
0.000112528
0.000115205
8.31877e-09
0.000115207
2.41644e-08
0.00011521
3.79139e-08
0.000115214
4.87419e-08
0.000115221
5.62383e-08
0.00011523
6.01705e-08
0.000115241
6.04542e-08
0.000115255
5.71402e-08
0.000115271
5.03783e-08
0.000115288
4.03801e-08
0.000115307
2.73891e-08
0.000115327
1.1659e-08
0.000115349
-6.56338e-09
0.000115371
-2.70481e-08
0.000115393
-4.95869e-08
0.000115416
-7.39951e-08
0.000115439
-1.00111e-07
0.000115461
-1.27794e-07
0.000115484
-1.56919e-07
0.000115505
-1.87377e-07
0.000115526
-2.19065e-07
0.000115546
-2.51891e-07
0.000115565
-2.85763e-07
0.000115583
-3.2059e-07
0.000115599
-3.5628e-07
0.000115614
-3.92738e-07
0.000115627
-4.29859e-07
0.000115639
-4.67532e-07
0.000115648
-5.05625e-07
0.000115655
-5.43977e-07
0.000115661
-5.82363e-07
0.000115664
-6.20437e-07
-6.57597e-07
0.000115664
0.000118496
7.891e-09
0.000118497
2.30701e-08
0.000118499
3.59144e-08
0.000118503
4.53684e-08
0.000118508
5.106e-08
0.000118515
5.28993e-08
0.000118525
5.09688e-08
0.000118536
4.54697e-08
0.00011855
3.66671e-08
0.000118566
2.48483e-08
0.000118583
1.03001e-08
0.000118601
-6.70519e-09
0.00011862
-2.59191e-08
0.00011864
-4.71198e-08
0.000118661
-7.0113e-08
0.000118682
-9.47301e-08
0.000118702
-1.20826e-07
0.000118723
-1.48274e-07
0.000118743
-1.76963e-07
0.000118762
-2.06795e-07
0.000118781
-2.37678e-07
0.000118799
-2.69526e-07
0.000118815
-3.02255e-07
0.00011883
-3.35782e-07
0.000118844
-3.7002e-07
0.000118856
-4.0488e-07
0.000118867
-4.40266e-07
0.000118875
-4.76075e-07
0.000118882
-5.12185e-07
0.000118886
-5.48447e-07
0.000118888
-5.84651e-07
0.000118889
-6.20472e-07
-6.55337e-07
0.000118886
0.000121881
7.80632e-09
0.000121881
2.29974e-08
0.000121882
3.54913e-08
0.000121883
4.39629e-08
0.000121886
4.81026e-08
0.000121891
4.79952e-08
0.000121898
4.39165e-08
0.000121907
3.62432e-08
0.000121919
2.5375e-08
0.000121932
1.16905e-08
0.000121947
-4.46877e-09
0.000121963
-2.28035e-08
0.00012198
-4.3057e-08
0.000121998
-6.50114e-08
0.000122016
-8.84833e-08
0.000122035
-1.13319e-07
0.000122053
-1.39389e-07
0.000122072
-1.66582e-07
0.000122089
-1.94803e-07
0.000122107
-2.23964e-07
0.000122123
-2.53987e-07
0.000122138
-2.84796e-07
0.000122152
-3.16317e-07
0.000122165
-3.48475e-07
0.000122176
-3.81193e-07
0.000122186
-4.14391e-07
0.000122193
-4.47984e-07
0.000122199
-4.81877e-07
0.000122203
-5.15962e-07
0.000122205
-5.50103e-07
0.000122204
-5.84108e-07
0.000122201
-6.17675e-07
-6.50262e-07
0.000122196
0.000125363
8.24778e-09
0.000125362
2.44947e-08
0.00012536
3.74388e-08
0.000125358
4.54325e-08
0.000125358
4.82888e-08
0.00012536
4.63325e-08
0.000125363
4.00865e-08
0.00012537
3.01475e-08
0.000125378
1.70828e-08
0.000125388
1.38517e-09
0.0001254
-1.65335e-08
0.000125414
-3.6336e-08
0.000125428
-5.77504e-08
0.000125444
-8.05591e-08
0.00012546
-1.04588e-07
0.000125476
-1.29698e-07
0.000125493
-1.55776e-07
0.000125509
-1.82729e-07
0.000125525
-2.10475e-07
0.00012554
-2.38946e-07
0.000125554
-2.68077e-07
0.000125567
-2.97805e-07
0.000125578
-3.28068e-07
0.000125589
-3.58805e-07
0.000125598
-3.89949e-07
0.000125605
-4.21433e-07
0.00012561
-4.53182e-07
0.000125613
-4.85115e-07
0.000125614
-5.17139e-07
0.000125613
-5.49132e-07
0.00012561
-5.80924e-07
0.000125605
-6.12234e-07
-6.42558e-07
0.000125597
0.000128944
9.49521e-09
0.00012894
2.83747e-08
0.000128935
4.28944e-08
0.000128929
5.10344e-08
0.000128924
5.28582e-08
0.000128922
4.90464e-08
0.000128921
4.04629e-08
0.000128923
2.79989e-08
0.000128928
1.2441e-08
0.000128935
-5.5712e-09
0.000128944
-2.55345e-08
0.000128955
-4.7061e-08
0.000128967
-6.98574e-08
0.00012898
-9.37039e-08
0.000128994
-1.18436e-07
0.000129008
-1.43931e-07
0.000129022
-1.70096e-07
0.000129037
-1.96857e-07
0.00012905
-2.24155e-07
0.000129063
-2.51941e-07
0.000129075
-2.80166e-07
0.000129086
-3.08786e-07
0.000129096
-3.37757e-07
0.000129104
-3.6703e-07
0.000129111
-3.96554e-07
0.000129116
-4.26277e-07
0.000129119
-4.56137e-07
0.00012912
-4.86069e-07
0.000129118
-5.15995e-07
0.000129115
-5.45812e-07
0.00012911
-5.7537e-07
0.000129102
-6.04418e-07
-6.32485e-07
0.000129092
0.000132627
1.20161e-08
0.000132619
3.59295e-08
0.000132608
5.35791e-08
0.000132597
6.2584e-08
0.000132586
6.35184e-08
0.000132578
5.76197e-08
0.000132572
4.62513e-08
0.000132569
3.0721e-08
0.000132569
1.2112e-08
0.000132573
-8.74475e-09
0.000132578
-3.12299e-08
0.000132586
-5.48935e-08
0.000132596
-7.9418e-08
0.000132606
-1.04583e-07
0.000132618
-1.30241e-07
0.000132631
-1.56289e-07
0.000132643
-1.82661e-07
0.000132656
-2.09312e-07
0.000132668
-2.3621e-07
0.000132679
-2.6333e-07
0.00013269
-2.90648e-07
0.000132699
-3.18143e-07
0.000132707
-3.45789e-07
0.000132714
-3.73558e-07
0.000132718
-4.01417e-07
0.000132721
-4.29329e-07
0.000132723
-4.57252e-07
0.000132722
-4.85136e-07
0.000132719
-5.12921e-07
0.000132713
-5.40524e-07
0.000132706
-5.67818e-07
0.000132696
-5.94583e-07
-6.20389e-07
0.000132684
0.000136414
1.66486e-08
0.0001364
4.93216e-08
0.000136382
7.21873e-08
0.000136361
8.27526e-08
0.000136342
8.26244e-08
0.000136326
7.39424e-08
0.000136313
5.88414e-08
0.000136305
3.92411e-08
0.0001363
1.66289e-08
0.0001363
-7.92243e-09
0.000136302
-3.36564e-08
0.000136307
-6.00584e-08
0.000136315
-8.67946e-08
0.000136324
-1.13658e-07
0.000136334
-1.40528e-07
0.000136345
-1.67341e-07
0.000136356
-1.9407e-07
0.000136368
-2.20707e-07
0.000136379
-2.47258e-07
0.000136389
-2.73732e-07
0.000136399
-3.00137e-07
0.000136407
-3.26479e-07
0.000136414
-3.52759e-07
0.000136419
-3.78972e-07
0.000136423
-4.05106e-07
0.000136425
-4.31146e-07
0.000136425
-4.57068e-07
0.000136422
-4.82842e-07
0.000136418
-5.08425e-07
0.000136411
-5.33758e-07
0.000136402
-5.5874e-07
0.000136391
-5.83183e-07
-6.06701e-07
0.000136377
0.000140307
2.49855e-08
0.000140284
7.2307e-08
0.000140254
1.0301e-07
0.000140221
1.15456e-07
0.00014019
1.13324e-07
0.000140164
1.00255e-07
0.000140143
7.96169e-08
0.000140128
5.42334e-08
0.000140119
2.61176e-08
0.000140114
-3.38116e-09
0.000140114
-3.33733e-08
0.000140117
-6.33033e-08
0.000140123
-9.28531e-08
0.000140131
-1.21862e-07
0.000140141
-1.50267e-07
0.000140152
-1.78066e-07
0.000140163
-2.05291e-07
0.000140174
-2.31993e-07
0.000140185
-2.58226e-07
0.000140196
-2.84046e-07
0.000140205
-3.09501e-07
0.000140213
-3.34633e-07
0.00014022
-3.59475e-07
0.000140225
-3.84051e-07
0.000140228
-4.08373e-07
0.000140229
-4.32451e-07
0.000140229
-4.56281e-07
0.000140226
-4.79853e-07
0.00014022
-5.03148e-07
0.000140213
-5.26128e-07
0.000140203
-5.4872e-07
0.00014019
-5.70774e-07
-5.9195e-07
0.000140176
0.000144309
4.02325e-08
0.00014427
1.11565e-07
0.00014422
1.52861e-07
0.000144169
1.66255e-07
0.000144123
1.59519e-07
0.000144085
1.38811e-07
0.000144055
1.09476e-07
0.000144033
7.56163e-08
0.00014402
3.98363e-08
0.000144013
3.71789e-09
0.000144011
-3.17869e-08
0.000144014
-6.6159e-08
0.00014402
-9.91705e-08
0.000144029
-1.30767e-07
0.00014404
-1.60994e-07
0.000144052
-1.89946e-07
0.000144064
-2.17748e-07
0.000144077
-2.44526e-07
0.000144089
-2.70405e-07
0.0001441
-2.95498e-07
0.000144111
-3.19906e-07
0.00014412
-3.43714e-07
0.000144127
-3.66992e-07
0.000144133
-3.89797e-07
0.000144137
-4.12173e-07
0.000144139
-4.34153e-07
0.000144138
-4.55757e-07
0.000144135
-4.76999e-07
0.00014413
-4.9788e-07
0.000144122
-5.18385e-07
0.000144112
-5.38471e-07
0.000144099
-5.5803e-07
-5.76774e-07
0.000144084
0.000148419
6.92539e-08
0.000148351
1.79088e-07
0.000148272
2.32212e-07
0.000148196
2.42442e-07
0.00014813
2.25292e-07
0.000148078
1.90979e-07
0.00014804
1.47908e-07
0.000148013
1.01754e-07
0.000147998
5.55383e-08
0.000147991
1.08388e-08
0.00014799
-3.15229e-08
0.000147995
-7.12246e-08
0.000148004
-1.08255e-07
0.000148016
-1.42762e-07
0.00014803
-1.74963e-07
0.000148046
-2.05102e-07
0.000148061
-2.33427e-07
0.000148077
-2.6017e-07
0.000148092
-2.85541e-07
0.000148106
-3.09728e-07
0.000148119
-3.32892e-07
0.000148131
-3.55169e-07
0.00014814
-3.76673e-07
0.000148148
-3.975e-07
0.000148154
-4.17724e-07
0.000148157
-4.37406e-07
0.000148158
-4.56592e-07
0.000148156
-4.75317e-07
0.000148152
-4.93605e-07
0.000148145
-5.11464e-07
0.000148135
-5.28879e-07
0.000148123
-5.45787e-07
-5.61957e-07
0.000148108
0.000152631
1.27e-07
0.000152514
2.9658e-07
0.00015239
3.56368e-07
0.00015228
3.52166e-07
0.000152192
3.13186e-07
0.000152128
2.55452e-07
0.000152084
1.91513e-07
0.000152057
1.28368e-07
0.000152044
6.86944e-08
0.000152042
1.35043e-08
0.000152047
-3.68582e-08
0.000152058
-8.25137e-08
0.000152074
-1.23844e-07
0.000152092
-1.61314e-07
0.000152113
-1.95391e-07
0.000152134
-2.26518e-07
0.000152156
-2.55102e-07
0.000152177
-2.81504e-07
0.000152198
-3.06039e-07
0.000152217
-3.28981e-07
0.000152235
-3.50559e-07
0.00015225
-3.70968e-07
0.000152264
-3.9037e-07
0.000152276
-4.08899e-07
0.000152284
-4.26666e-07
0.000152291
-4.4376e-07
0.000152294
-4.60251e-07
0.000152295
-4.76197e-07
0.000152293
-4.91642e-07
0.000152289
-5.06616e-07
0.000152281
-5.21131e-07
0.00015227
-5.35167e-07
-5.4856e-07
0.000152257
0.000156935
2.43732e-07
0.000156727
5.03877e-07
0.000156537
5.46962e-07
0.000156387
5.02329e-07
0.000156279
4.21046e-07
0.000156209
3.25328e-07
0.000156169
2.31841e-07
0.00015615
1.46985e-07
0.000156147
7.12854e-08
0.000156157
4.28317e-09
0.000156174
-5.46199e-08
0.000156198
-1.06281e-07
0.000156226
-1.51675e-07
0.000156256
-1.91701e-07
0.000156288
-2.27145e-07
0.00015632
-2.58691e-07
0.000156352
-2.86936e-07
0.000156383
-3.12392e-07
0.000156412
-3.35494e-07
0.00015644
-3.56605e-07
0.000156466
-3.76034e-07
0.000156489
-3.94035e-07
0.000156509
-4.10822e-07
0.000156527
-4.26569e-07
0.000156542
-4.4142e-07
0.000156553
-4.55493e-07
0.000156562
-4.68885e-07
0.000156567
-4.81671e-07
0.00015657
-4.93914e-07
0.000156569
-5.05662e-07
0.000156565
-5.1695e-07
0.000156557
-5.27792e-07
-5.38106e-07
0.000156547
0.000161293
4.89104e-07
0.000160928
8.68477e-07
0.000160648
8.27228e-07
0.000160456
6.94113e-07
0.000160339
5.38117e-07
0.00016028
3.84766e-07
0.000160259
2.52796e-07
0.000160263
1.42653e-07
0.000160285
4.94676e-08
0.000160319
-2.96837e-08
0.000160361
-9.67354e-08
0.000160408
-1.53587e-07
0.000160459
-2.02013e-07
0.000160511
-2.43457e-07
0.000160563
-2.79076e-07
0.000160614
-3.09838e-07
0.000160663
-3.36559e-07
0.000160711
-3.59921e-07
0.000160756
-3.80485e-07
0.000160798
-3.9872e-07
0.000160837
-4.1501e-07
0.000160873
-4.29673e-07
0.000160905
-4.42971e-07
0.000160933
-4.5512e-07
0.000160958
-4.66295e-07
0.000160979
-4.7664e-07
0.000160997
-4.86271e-07
0.00016101
-4.95285e-07
0.00016102
-5.03757e-07
0.000161026
-5.11748e-07
0.000161029
-5.19308e-07
0.000161027
-5.26477e-07
-5.33234e-07
0.000161022
0.000165515
1.12749e-06
0.000164913
1.47105e-06
0.000164574
1.16549e-06
0.000164382
8.86806e-07
0.000164299
6.2126e-07
0.000164289
3.94332e-07
0.00016432
2.21507e-07
0.000164376
8.71459e-08
0.000164447
-2.2112e-08
0.000164529
-1.11795e-07
0.000164618
-1.85064e-07
0.000164709
-2.4497e-07
0.000164801
-2.94191e-07
0.000164893
-3.34764e-07
0.000164982
-3.68262e-07
0.000165068
-3.95974e-07
0.00016515
-4.18971e-07
0.000165229
-4.38125e-07
0.000165302
-4.54143e-07
0.000165371
-4.67599e-07
0.000165435
-4.78959e-07