/*--------------------------------*- C++ -*----------------------------------*\
  =========                 |
  \\      /  F ield         | OpenFOAM: The Open Source CFD Toolbox
   \\    /   O peration     | Website:  https://openfoam.org
    \\  /    A nd           | Version:  10
     \\/     M anipulation  |
\*---------------------------------------------------------------------------*/
FoamFile
{
    format      ascii;
    class       volScalarField;
    location    "300";
    object      yPlus;
}
// * * * * * * * * * * * * * * * * * * * * * * * * * * * * * * * * * * * * * //

dimensions      [0 0 0 0 0 0 0];

internalField   uniform 0;

boundaryField
{
    outlet
    {
        type            calculated;
        value           uniform 0;
    }
    inlet
    {
        type            calculated;
        value           uniform 0;
    }
    lowerWall
    {
        type            calculated;
        value           nonuniform List<scalar> 
148
(
12.7112
17.6462
20.7197
22.3204
23.0464
23.2756
23.2269
23.0279
22.7546
22.4519
22.1454
21.849
21.5694
21.3096
21.0702
20.8506
20.6497
20.4659
20.298
20.1445
20.004
19.8755
19.758
19.6505
19.5523
19.4627
19.3813
19.3076
19.2411
19.1828
19.1259
19.1025
18.9575
2.21297
5.6448
7.7448
8.87859
9.88862
10.8166
11.7494
11.7751
12.3759
12.7888
12.9532
12.8807
12.8113
12.7888
25.747
2.21297
9.63661
11.9408
11.7358
11.5223
11.7114
11.8502
11.8661
11.7637
11.4906
10.864
9.87695
9.26335
8.14314
7.14727
1.88556
18.1525
26.5242
32.6335
37.6669
42.0295
45.9123
49.4183
52.6066
55.5187
58.1924
60.6658
62.9789
65.1722
67.2852
69.3551
71.4169
73.5045
75.6529
77.8983
80.2538
82.6685
85.1646
87.7361
90.3639
93.0098
95.6138
98.0921
100.342
102.244
103.668
104.508
104.726
104.347
103.49
101.94
99.7612
97.22
94.533
91.8507
89.2656
86.8292
84.5653
82.4808
80.571
78.8253
77.2304
75.7725
74.4373
73.2119
72.0839
71.0424
70.0776
69.1808
68.3446
67.5625
66.829
66.1393
65.4895
64.8758
64.2955
63.7458
63.2244
62.7294
62.259
61.8113
61.3851
60.9789
60.5914
60.2215
59.8678
59.5297
59.2058
58.8955
58.5979
58.3122
58.0381
57.7744
57.5219
57.2788
57.0471
56.8249
56.613
56.4329
56.1677
)
;
    }
    upperWall
    {
        type            calculated;
        value           nonuniform List<scalar> 
133
(
31.2591
34.0073
36.6584
39.0131
41.075
42.8885
44.4872
45.8958
47.1355
48.225
49.1815
50.0197
50.7531
51.3936
51.9518
52.4373
52.8583
53.2223
53.5359
53.805
54.0347
54.2295
54.3935
54.5302
54.6429
54.7342
54.8066
54.8622
54.9031
54.9309
54.9471
54.9529
54.95
54.9357
54.9074
54.8664
54.8132
54.7479
54.6711
54.583
54.484
54.3742
54.254
54.1234
53.9827
53.8318
53.6707
53.4996
53.3182
53.1266
52.9245
52.7117
52.488
52.253
52.0065
51.7481
51.4775
51.1941
50.8977
50.5877
50.2639
49.9259
49.5734
49.2062
48.8241
48.4271
48.0156
47.5899
47.1505
46.6983
46.2346
45.7607
45.2786
44.7905
44.2988
43.8065
43.3168
42.8333
42.3596
41.8994
41.4568
41.0354
40.6385
40.2696
39.9312
39.6257
39.3546
39.1188
38.9184
38.755
38.6266
38.5305
38.4636
38.423
38.4058
38.4092
38.4307
38.4678
38.518
38.5794
38.65
38.728
38.812
38.9005
38.9921
39.086
39.1809
39.276
39.3706
39.4638
39.5553
39.6448
39.7321
39.8174
39.9015
39.9851
40.0699
40.1578
40.2513
40.3534
40.4676
40.5977
40.7474
40.92
41.1181
41.343
41.5939
41.8686
42.1622
42.4673
42.7852
43.0614
43.5176
)
;
    }
    frontAndBack
    {
        type            empty;
    }
}


// ************************************************************************* //
