# y+ ()       
# Time        	patch         	min           	max           	average       
1800          	lowerWall	4.899248e+00	7.993804e+01	4.320663e+01
1800          	upperWall	3.060454e+01	4.715438e+01	4.149111e+01
