/*--------------------------------*- C++ -*----------------------------------*\
  =========                 |
  \\      /  F ield         | OpenFOAM: The Open Source CFD Toolbox
   \\    /   O peration     | Website:  https://openfoam.org
    \\  /    A nd           | Version:  10
     \\/     M anipulation  |
\*---------------------------------------------------------------------------*/
FoamFile
{
    format      ascii;
    class       volScalarField;
    location    "0.025";
    object      nut;
}
// * * * * * * * * * * * * * * * * * * * * * * * * * * * * * * * * * * * * * //

dimensions      [0 2 -1 0 0 0 0];

internalField   nonuniform List<scalar> 
6820
(
0
0
0
0
0
0
0
0
0
0
0
0
0
0
0
0
0
0
0
0
0
0
0
0
0
0
0
0
0
0
0
0
3.0611e-08
0
0
0
0
0
0
0
0
0
0
0
0
0
0
0
0
0
0
0
0
0
0
0
0
0
0
0
0
0
0
0
0
0
0
0
0
0
0
0
0
0
0
0
0
0
0
0
0
0
0
0
0
0
0
0
0
0
0
0
0
0
0
0
0
0
0
0
0
0
0
0
0
0
0
0
0
0
0
0
0
0
0
0
0
0
0
0
0
0
0
0
0
0
0
0
0
0
0
0
1.48566e-05
0
0
0
0
0
0
0
0
0
0
0
0
0
0
0
0
0
0
0
0
0
0
0
0
0
0
0
0
0
0
0
0
5.75578e-06
3.90912e-05
3.08233e-05
1.88439e-05
9.17739e-06
3.2591e-06
9.12912e-09
0
0
0
0
0
0
0
0
0
0
0
0
0
0
0
0
0
0
0
0
0
0
0
0
0
0
0
7.69067e-06
1.40246e-05
1.87569e-05
1.81895e-05
1.6419e-05
1.46219e-05
1.25638e-05
1.0388e-05
8.28719e-06
6.32938e-06
4.55103e-06
2.98464e-06
1.642e-06
5.20104e-07
0
0
0
0
0
0
0
0
0
0
0
0
0
0
0
0
0
0
0
1.11235e-06
0
5.66932e-06
8.58392e-06
9.05839e-06
8.74028e-06
7.70801e-06
6.24091e-06
4.64167e-06
3.04439e-06
1.52354e-06
1.42299e-07
0
0
0
0
0
0
0
0
0
0
0
0
0
0
0
0
0
0
0
0
0
0
0
0
0
0
0
3.85458e-07
4.70466e-07
5.45662e-08
0
0
0
0
0
0
0
0
0
0
0
0
0
0
0
0
0
0
0
0
0
0
0
0
0
0
0
0
0
0
0
0
0
0
0
0
0
0
0
0
0
0
0
0
0
0
0
0
0
0
0
0
0
0
0
0
0
0
0
0
0
0
0
0
0
0
0
0
0
0
0
0
0
0
0
0
0
0
0
0
0
0
0
0
0
0
0
0
0
0
0
0
0
0
0
0
0
0
0
0
0
0
0
0
0
0
0
0
0
0
0
0
0
0
0
0
0
0
0
0
0
0
0
0
0
0
0
0
0
0
0
0
0
0
0
0
0
0
0
0
0
0
0
0
0
0
0
0
0
0
0
0
0
0
0
0
0
0
0
0
0
0
0
0
0
0
0
0
0
0
0
0
0
0
0
0
0
0
0
0
0
0
0
0
0
0
0
0
0
0
0
0
0
0
0
0
0
0
0
0
0
0
0
0
0
0
0
0
0
0
0
0
0
0
0
0
0
0
0
0
0
0
0
0
0
0
0
0
0
0
0
0
0
0
0
0
0
0
0
0
0
0
0
0
0
0
0
0
0
0
0
0
0
0
0
0
0
0
0
0
0
0
0
0
0
0
0
0
0
0
0
0
0
0
0
0
0
0
0
0
0
0
0
0
0
0
0
0
0
0
0
0
0
0
0
0
0
0
0
0
0
0
0
0
0
0
0
0
0
0
0
0
0
0
0
0
0
3.98074e-08
5.98384e-09
0
0
0
0
0
0
0
0
0
0
0
0
0
0
0
0
0
0
0
0
0
0
0
0
0
0
0
0
0
0
2.28425e-07
4.60174e-07
4.22206e-07
0
0
0
0
0
0
0
0
0
0
0
0
0
0
0
0
0
0
0
0
0
0
0
0
0
0
0
0
0
2.16741e-07
4.61671e-07
6.69541e-07
6.32768e-07
0
0
0
0
0
0
0
0
0
0
0
0
0
0
0
0
0
0
0
0
0
0
0
0
0
0
0
8.80679e-08
3.23069e-07
5.40686e-07
7.39232e-07
8.98664e-07
8.50344e-07
2.34821e-07
0
0
0
0
0
0
0
0
0
0
0
0
0
0
0
0
0
0
0
0
0
0
0
0
0
1.20027e-07
3.27129e-07
5.13851e-07
6.78661e-07
8.19642e-07
9.2215e-07
8.63819e-07
3.88563e-07
0
0
0
0
0
0
0
0
0
0
0
0
0
0
0
0
0
0
0
0
0
0
0
0
1.42483e-07
3.14278e-07
4.62674e-07
5.86879e-07
6.85537e-07
7.56875e-07
7.92659e-07
7.23253e-07
4.06416e-07
0
0
0
0
0
0
0
0
0
0
0
0
0
0
0
0
0
0
0
0
0
0
7.47194e-08
2.27709e-07
3.53975e-07
4.541e-07
5.28065e-07
5.75199e-07
5.94533e-07
5.84486e-07
5.4361e-07
4.60242e-07
3.09402e-07
0
0
0
0
0
0
0
0
0
0
0
0
0
0
0
0
0
0
0
0
0
0
5.73006e-08
1.36866e-07
1.8914e-07
2.14606e-07
2.13299e-07
1.84675e-07
1.28016e-07
4.19519e-08
0
0
0
0
0
0
0
0
0
0
0
0
0
0
0
0
0
0
0
0
0
0
1.09009e-07
1.93215e-07
2.43181e-07
2.61574e-07
2.50386e-07
2.10911e-07
1.43822e-07
4.93782e-08
0
0
0
0
0
0
0
0
0
0
0
0
0
0
0
0
0
0
0
0
0
0
0
0
0
0
0
0
0
0
0
0
0
0
0
0
0
0
0
0
0
0
0
0
0
0
0
0
0
0
0
0
0
2.93286e-08
1.31087e-07
1.79103e-07
1.79714e-07
1.38538e-07
6.03496e-08
0
0
0
0
0
0
0
0
0
0
0
0
0
0
0
0
0
0
0
0
0
0
0
0
0
0
0
0
0
0
0
0
0
0
0
0
0
0
0
0
0
0
0
0
0
0
0
0
0
0
0
0
0
0
0
0
0
0
0
0
0
0
0
0
0
0
0
0
0
0
0
0
0
0
0
0
0
0
0
0
0
0
0
0
0
0
0
0
0
0
0
0
0
0
0
0
0
0
0
0
0
0
0
0
0
0
0
0
0
0
0
0
0
0
0
0
0
0
0
0
0
0
0
0
0
0
0
0
0
0
0
0
0
0
0
0
0
0
0
0
0
0
0
0
0
0
0
0
0
0
0
0
0
0
0
0
0
0
0
0
0
0
0
0
0
0
0
0
0
0
0
0
0
0
0
0
0
0
0
0
0
0
0
0
0
0
0
0
0
0
0
0
0
0
0
0
0
0
0
0
0
0
0
0
0
0
0
0
0
0
0
0
0
0
0
0
0
0
0
0
0
0
0
0
0
0
0
0
0
0
0
0
0
0
0
0
0
0
0
0
0
0
0
0
0
0
4.18858e-05
7.40442e-05
5.85318e-05
3.99979e-05
2.96414e-05
2.40685e-05
2.08102e-05
1.87258e-05
1.72757e-05
1.61955e-05
1.53452e-05
1.46421e-05
1.40351e-05
1.3493e-05
1.29963e-05
1.25311e-05
1.20879e-05
1.16498e-05
1.1203e-05
1.07427e-05
1.02681e-05
9.78091e-06
9.28504e-06
8.78546e-06
8.28783e-06
7.79777e-06
7.32075e-06
6.86167e-06
6.42744e-06
5.98059e-06
5.36035e-06
0
0
0
0
0
0
0
0
0
0
0
0
0
0
0
0
0
0
0
1.40959e-07
4.57976e-07
8.36268e-07
1.28545e-06
1.81587e-06
2.43853e-06
3.16495e-06
4.00701e-06
4.97648e-06
6.08489e-06
7.34205e-06
8.75766e-06
1.03433e-05
1.33193e-05
4.17355e-08
0
0
0
0
0
0
0
0
0
0
0
0
0
0
0
0
0
0
0
0
0
0
0
0
0
0
0
0
0
0
0
0
2.25371e-08
0
0
0
0
0
0
0
0
0
0
0
0
0
0
0
0
0
0
0
0
0
0
0
0
0
0
0
0
0
0
0
0
1.05613e-08
0
0
0
0
0
0
0
0
0
0
0
0
0
0
0
0
0
0
0
0
0
0
0
0
0
0
0
0
0
0
0
0
5.90263e-07
0
0
0
0
0
0
0
0
0
0
0
0
0
1.64254e-06
6.10359e-06
1.08447e-05
1.52664e-05
9.20008e-06
1.12378e-05
1.51052e-05
1.79762e-05
1.93497e-05
1.93644e-05
1.86622e-05
1.78099e-05
1.69544e-05
1.58703e-05
1.42981e-05
1.22489e-05
1.00343e-05
8.01162e-06
6.30142e-06
4.78724e-06
3.32105e-06
1.84597e-06
3.79317e-07
0
0
0
0
0
0
0
0
0
0
0
0
0
0
0
0
0
0
0
0
0
0
0
0
0
0
0
0
0
0
0
0
0
0
0
0
0
0
0
0
0
0
0
0
0
0
0
0
0
0
0
0
2.97476e-08
3.45281e-08
2.4285e-08
1.35426e-08
5.51867e-09
0
0
0
0
0
1.99221e-09
6.57628e-07
0
0
0
0
0
0
0
0
0
0
0
0
0
3.8425e-07
3.85592e-06
7.86073e-06
6.28208e-06
9.42676e-06
1.40377e-05
1.802e-05
2.05396e-05
2.14348e-05
2.12222e-05
2.05407e-05
1.97904e-05
1.90042e-05
1.79291e-05
1.63e-05
1.4128e-05
1.17537e-05
9.58986e-06
7.79638e-06
6.24881e-06
4.76362e-06
3.25518e-06
1.73369e-06
2.41499e-07
0
0
0
0
0
0
0
0
0
0
0
0
0
0
0
0
0
0
0
0
0
0
0
0
0
0
0
0
0
0
0
0
0
0
0
0
0
0
0
0
0
0
0
0
0
0
0
0
0
0
0
0
0
0
0
0
0
0
0
0
0
4.66821e-10
2.40045e-08
0
0
0
0
0
0
0
0
0
0
0
0
0
0
2.92786e-06
3.55635e-06
7.44043e-06
1.19908e-05
1.64234e-05
1.96928e-05
2.13836e-05
2.18521e-05
2.16621e-05
2.12109e-05
2.06721e-05
2.00118e-05
1.90054e-05
1.74146e-05
1.52521e-05
1.28634e-05
1.06892e-05
8.92093e-06
7.43467e-06
6.02104e-06
4.56864e-06
3.07614e-06
1.5912e-06
1.5207e-07
0
0
0
0
0
0
0
0
0
0
0
0
0
0
0
0
0
0
0
0
0
0
0
0
0
0
0
0
0
0
0
0
0
0
0
0
0
0
0
0
0
0
0
0
0
0
0
0
0
0
0
0
0
0
0
0
0
0
0
0
0
0
0
0
0
0
0
0
0
0
0
0
0
0
0
5.67331e-07
2.71028e-06
5.87358e-06
9.98451e-06
1.43201e-05
1.78441e-05
2.0066e-05
2.11638e-05
2.15976e-05
2.1684e-05
2.15286e-05
2.11787e-05
2.06207e-05
1.96888e-05
1.81705e-05
1.6069e-05
1.37207e-05
1.15844e-05
9.88079e-06
8.49116e-06
7.18404e-06
5.82323e-06
4.39493e-06
2.94751e-06
1.53046e-06
1.61979e-07
0
0
0
0
0
0
0
0
0
0
0
0
0
0
0
0
0
0
0
0
0
0
0
0
0
0
0
0
0
0
0
0
0
0
0
0
0
0
0
0
0
0
0
0
0
0
0
0
0
0
0
0
0
0
0
0
0
0
0
0
0
0
0
0
0
0
0
0
0
0
0
0
0
0
1.63338e-06
4.44851e-06
8.1471e-06
1.20983e-05
1.55542e-05
1.80639e-05
1.96555e-05
2.06679e-05
2.13694e-05
2.17811e-05
2.18482e-05
2.16134e-05
2.11228e-05
2.02585e-05
1.88176e-05
1.67864e-05
1.44899e-05
1.24022e-05
1.07728e-05
9.48969e-06
8.30063e-06
7.04402e-06
5.69301e-06
4.29594e-06
2.90984e-06
1.56435e-06
2.59163e-07
0
0
0
0
0
0
0
0
0
0
0
0
0
0
0
0
0
0
0
0
0
0
0
0
0
0
0
0
0
0
0
0
0
0
0
0
0
0
0
0
0
0
0
0
0
0
0
0
0
0
0
0
0
0
0
0
0
0
0
0
0
0
0
0
0
0
0
0
0
0
0
0
7.55544e-08
2.77976e-06
6.115e-06
9.66961e-06
1.29517e-05
1.56011e-05
1.7561e-05
1.90466e-05
2.02931e-05
2.13182e-05
2.1968e-05
2.21599e-05
2.1986e-05
2.15441e-05
2.07435e-05
1.93799e-05
1.7422e-05
1.51828e-05
1.31502e-05
1.16007e-05
1.04306e-05
9.36777e-06
8.22487e-06
6.96074e-06
5.62343e-06
4.2774e-06
2.96061e-06
1.68031e-06
4.30154e-07
0
0
0
0
0
0
0
0
0
0
0
0
0
0
0
0
0
0
0
0
0
0
0
0
0
0
0
0
0
0
0
0
0
0
0
0
0
0
0
0
0
0
0
0
0
0
0
0
0
0
0
0
0
0
0
0
0
0
0
0
0
0
0
0
0
0
0
0
0
0
0
7.19915e-07
3.77663e-06
7.00441e-06
1.00979e-05
1.28037e-05
1.50362e-05
1.69018e-05
1.85831e-05
2.01336e-05
2.13999e-05
2.21771e-05
2.24215e-05
2.22778e-05
2.18768e-05
2.11389e-05
1.98535e-05
1.79717e-05
1.57957e-05
1.38245e-05
1.23607e-05
1.13095e-05
1.03802e-05
9.35989e-06
8.19194e-06
6.92285e-06
5.62486e-06
4.34477e-06
3.09479e-06
1.87156e-06
6.75704e-07
0
0
0
0
0
0
0
0
0
0
0
0
0
0
0
0
0
0
0
0
0
0
0
0
0
0
0
0
0
0
0
0
0
0
0
0
0
0
0
0
0
0
0
0
0
0
0
0
0
0
0
0
0
0
0
0
0
0
0
0
0
0
0
0
0
0
0
0
0
0
1.20135e-06
4.17167e-06
7.11122e-06
9.84058e-06
1.22657e-05
1.44242e-05
1.64374e-05
1.83778e-05
2.01535e-05
2.15403e-05
2.23536e-05
2.2604e-05
2.24761e-05
2.21155e-05
2.14424e-05
2.02363e-05
1.84335e-05
1.63259e-05
1.44222e-05
1.30495e-05
1.21224e-05
1.13331e-05
1.04434e-05
9.38044e-06
8.18789e-06
6.94498e-06
5.70834e-06
4.4961e-06
3.30561e-06
2.13749e-06
1.00438e-06
0
0
0
0
0
0
0
0
0
0
0
0
0
0
0
0
0
0
0
0
0
0
0
0
0
0
0
0
0
0
0
0
0
0
0
0
0
0
0
0
0
0
0
0
0
0
0
0
0
0
0
0
0
0
0
0
0
0
0
0
0
0
0
0
0
0
0
0
0
1.7142e-06
4.4094e-06
7.03253e-06
9.50495e-06
1.18236e-05
1.40539e-05
1.62542e-05
1.83818e-05
2.02617e-05
2.16645e-05
2.24529e-05
2.26868e-05
2.25735e-05
2.22583e-05
2.16531e-05
2.05276e-05
1.88059e-05
1.67714e-05
1.49412e-05
1.36645e-05
1.28659e-05
1.2222e-05
1.14699e-05
1.052e-05
9.41206e-06
8.2313e-06
7.04399e-06
5.8755e-06
4.72495e-06
3.59104e-06
2.48555e-06
1.42857e-06
4.34029e-07
0
0
0
0
0
0
0
0
0
0
0
0
0
0
0
0
0
0
0
0
0
0
0
0
0
0
0
0
0
0
0
0
0
0
0
0
0
0
0
0
0
0
0
0
0
0
0
0
0
0
0
0
0
0
0
0
0
0
0
0
0
0
0
0
0
0
0
2.06598e-06
4.49022e-06
6.89146e-06
9.25202e-06
1.15948e-05
1.39488e-05
1.62884e-05
1.84941e-05
2.03687e-05
2.17151e-05
2.24474e-05
2.26607e-05
2.2569e-05
2.23062e-05
2.17716e-05
2.0727e-05
1.90881e-05
1.71316e-05
1.53804e-05
1.42043e-05
1.35375e-05
1.30429e-05
1.24341e-05
1.16045e-05
1.05888e-05
9.47716e-06
8.34514e-06
7.22562e-06
6.12071e-06
5.02805e-06
3.95725e-06
2.92814e-06
1.95808e-06
1.05112e-06
1.97631e-07
0
0
0
0
0
0
0
0
0
0
0
0
0
0
0
0
0
0
0
0
0
0
0
0
0
0
0
0
0
0
0
0
0
0
0
0
0
0
0
0
0
0
0
0
0
0
0
0
0
0
0
0
0
0
0
0
0
0
0
0
0
0
0
0
2.88258e-07
2.43231e-06
4.64623e-06
6.91752e-06
9.24911e-06
1.16428e-05
1.40692e-05
1.64418e-05
1.86133e-05
2.04027e-05
2.16549e-05
2.23243e-05
2.25252e-05
2.24657e-05
2.22616e-05
2.17991e-05
2.0835e-05
1.92806e-05
1.74064e-05
1.57398e-05
1.46678e-05
1.4135e-05
1.37923e-05
1.33312e-05
1.2628e-05
1.17114e-05
1.06757e-05
9.60493e-06
8.53969e-06
7.48548e-06
6.43962e-06
5.41011e-06
4.41588e-06
3.47536e-06
2.59514e-06
1.76868e-06
9.82568e-07
2.25169e-07
0
0
0
0
0
0
0
0
0
0
0
0
0
0
0
0
0
0
0
0
0
0
0
0
0
0
0
0
0
0
0
0
0
0
0
0
0
0
0
0
0
0
0
0
0
0
0
0
0
0
0
0
0
0
0
0
0
0
0
0
0
0
8.06135e-07
2.77512e-06
4.87556e-06
7.10287e-06
9.44316e-06
1.18584e-05
1.42761e-05
1.65872e-05
1.86518e-05
2.03188e-05
2.14696e-05
2.20853e-05
2.22868e-05
2.2269e-05
2.21277e-05
2.17372e-05
2.08528e-05
1.93842e-05
1.75969e-05
1.60198e-05
1.50549e-05
1.4657e-05
1.44671e-05
1.41565e-05
1.35846e-05
1.27735e-05
1.18199e-05
1.08162e-05
9.81061e-06
8.81224e-06
7.81837e-06
6.83548e-06
5.88197e-06
4.97713e-06
4.12931e-06
3.33336e-06
2.57617e-06
1.84674e-06
1.14223e-06
4.6535e-07
0
0
0
0
0
0
0
0
0
0
0
0
0
0
0
0
0
0
0
0
0
0
0
0
0
0
0
0
0
0
0
0
0
0
0
0
0
0
0
0
0
0
0
0
0
0
0
0
0
0
0
0
0
0
0
0
0
0
0
0
1.34182e-06
3.21821e-06
5.26644e-06
7.46699e-06
9.78008e-06
1.21416e-05
1.44655e-05
1.66477e-05
1.8569e-05
2.01054e-05
2.11638e-05
2.17402e-05
2.19544e-05
2.1985e-05
2.19079e-05
2.15881e-05
2.07821e-05
1.94007e-05
1.77046e-05
1.62218e-05
1.53661e-05
1.51025e-05
1.50648e-05
1.49059e-05
1.4469e-05
1.37686e-05
1.2903e-05
1.19719e-05
1.1031e-05
1.00936e-05
9.15698e-06
8.22604e-06
7.31829e-06
6.45393e-06
5.64339e-06
4.8829e-06
4.15955e-06
3.46154e-06
2.78479e-06
2.13262e-06
1.51208e-06
9.2746e-07
3.79444e-07
0
0
0
0
0
0
0
0
0
0
0
0
0
0
0
0
0
0
0
0
0
0
0
0
0
0
0
0
0
0
0
0
0
0
0
0
0
0
0
0
0
0
0
0
0
0
0
0
0
0
0
0
0
0
0
0
2.51252e-07
1.88709e-06
3.71885e-06
5.72758e-06
7.87694e-06
1.01122e-05
1.23627e-05
1.45473e-05
1.65769e-05
1.83518e-05
1.97684e-05
2.07498e-05
2.13009e-05
2.15369e-05
2.16192e-05
2.16057e-05
2.13539e-05
2.06248e-05
1.93322e-05
1.77316e-05
1.63474e-05
1.56023e-05
1.54713e-05
1.55835e-05
1.55757e-05
1.5276e-05
1.46904e-05
1.39179e-05
1.30646e-05
1.21935e-05
1.13219e-05
1.04477e-05
9.57412e-06
8.71735e-06
7.8981e-06
7.12873e-06
6.40738e-06
5.72196e-06
5.05981e-06
4.41554e-06
3.79207e-06
3.19653e-06
2.63438e-06
2.10801e-06
1.61811e-06
1.16414e-06
7.45832e-07
3.63802e-07
1.84537e-08
0
0
0
0
0
0
0
0
0
0
0
0
0
0
0
0
0
0
0
0
0
0
0
0
0
0
0
0
0
0
0
0
0
0
0
0
0
0
0
0
0
0
0
0
0
0
0
0
0
0
0
8.87777e-07
2.48642e-06
4.27186e-06
6.21427e-06
8.26937e-06
1.03804e-05
1.24823e-05
1.45064e-05
1.63787e-05
1.8015e-05
1.93252e-05
2.02436e-05
2.07797e-05
2.10425e-05
2.1177e-05
2.12242e-05
2.10372e-05
2.03833e-05
1.9181e-05
1.768e-05
1.63988e-05
1.57651e-05
1.57637e-05
1.60217e-05
1.61628e-05
1.60008e-05
1.55329e-05
1.48579e-05
1.40871e-05
1.32904e-05
1.24894e-05
1.16827e-05
1.08717e-05
1.00711e-05
9.30186e-06
8.57775e-06
7.89891e-06
7.25435e-06
6.63121e-06
6.02316e-06
5.43241e-06
4.86593e-06
4.33008e-06
3.8282e-06
3.36124e-06
2.92909e-06
2.53195e-06
2.17058e-06
1.84564e-06
1.55687e-06
1.30275e-06
1.08157e-06
8.91282e-07
7.29655e-07
5.94355e-07
4.82941e-07
3.92836e-07
3.21269e-07
2.65243e-07
2.21597e-07
1.87191e-07
1.59205e-07
1.35417e-07
1.14315e-07
9.49597e-08
7.67013e-08
5.8964e-08
4.12531e-08
2.33609e-08
5.54781e-09
0
0
0
0
0
0
0
0
0
0
0
0
0
0
0
0
0
0
0
0
0
0
0
0
0
0
0
0
0
1.56726e-07
1.52478e-06
3.07667e-06
4.79133e-06
6.63521e-06
8.56454e-06
1.0528e-05
1.24704e-05
1.43352e-05
1.60605e-05
1.75725e-05
1.87908e-05
1.96578e-05
2.01861e-05
2.04779e-05
2.06627e-05
2.07666e-05
2.06404e-05
2.006e-05
1.89495e-05
1.75526e-05
1.63783e-05
1.58563e-05
1.59804e-05
1.63786e-05
1.66644e-05
1.66388e-05
1.62904e-05
1.57162e-05
1.50321e-05
1.43141e-05
1.35882e-05
1.28536e-05
1.21103e-05
1.13713e-05
1.06569e-05
9.98234e-06
9.34959e-06
8.74891e-06
8.16754e-06
7.59846e-06
7.04328e-06
6.50895e-06
6.00251e-06
5.52803e-06
5.08688e-06
4.67921e-06
4.30544e-06
3.96622e-06
3.66205e-06
3.39265e-06
3.15674e-06
2.95251e-06
2.77756e-06
2.62922e-06
2.50476e-06
2.4014e-06
2.31639e-06
2.24696e-06
2.19035e-06
2.14371e-06
2.10419e-06
2.06897e-06
2.03538e-06
2.00113e-06
1.96425e-06
1.92304e-06
1.87577e-06
1.82074e-06
1.75664e-06
1.68327e-06
1.6019e-06
1.51507e-06
1.42582e-06
1.3368e-06
1.24976e-06
1.1654e-06
1.08336e-06
1.00246e-06
9.21362e-07
8.39755e-07
7.59158e-07
6.831e-07
6.13825e-07
5.50588e-07
4.82541e-07
3.9462e-07
2.65774e-07
5.16061e-08
0
0
0
0
0
0
0
0
0
0
0
8.44873e-07
2.16184e-06
3.63905e-06
5.2532e-06
6.97211e-06
8.75649e-06
1.05625e-05
1.23449e-05
1.40569e-05
1.56454e-05
1.70445e-05
1.81813e-05
1.90044e-05
1.95285e-05
1.98489e-05
2.008e-05
2.02355e-05
2.01659e-05
1.96574e-05
1.86405e-05
1.7352e-05
1.62887e-05
1.58783e-05
1.61228e-05
1.66537e-05
1.70782e-05
1.71859e-05
1.69571e-05
1.64862e-05
1.58923e-05
1.5257e-05
1.46104e-05
1.39524e-05
1.32816e-05
1.26091e-05
1.19544e-05
1.13339e-05
1.07509e-05
1.01973e-05
9.6606e-06
9.13324e-06
8.6163e-06
8.11674e-06
7.64215e-06
7.19739e-06
6.78436e-06
6.40345e-06
6.05508e-06
5.73988e-06
5.45819e-06
5.20963e-06
4.99297e-06
4.8062e-06
4.64667e-06
4.51142e-06
4.39729e-06
4.30098e-06
4.2192e-06
4.14867e-06
4.08623e-06
4.02891e-06
3.97388e-06
3.91847e-06
3.86017e-06
3.79673e-06
3.72623e-06
3.64687e-06
3.55674e-06
3.45373e-06
3.33603e-06
3.20303e-06
3.05615e-06
2.89884e-06
2.73567e-06
2.57116e-06
2.40872e-06
2.25029e-06
2.09613e-06
1.94515e-06
1.79505e-06
1.64469e-06
1.49324e-06
1.3457e-06
1.20054e-06
1.06708e-06
9.18675e-07
7.80928e-07
5.77545e-07
4.57729e-07
3.91658e-07
0
0
0
0
0
0
0
0
0
3.9693e-07
1.49074e-06
2.73554e-06
4.11692e-06
5.6129e-06
7.19503e-06
8.82972e-06
1.04806e-05
1.21105e-05
1.36806e-05
1.51444e-05
1.64417e-05
1.75057e-05
1.82906e-05
1.88123e-05
1.91592e-05
1.94318e-05
1.96332e-05
1.96161e-05
1.91783e-05
1.8257e-05
1.70814e-05
1.61328e-05
1.58333e-05
1.6192e-05
1.68469e-05
1.7402e-05
1.76383e-05
1.75277e-05
1.71615e-05
1.66607e-05
1.61116e-05
1.55479e-05
1.49706e-05
1.43768e-05
1.37755e-05
1.31854e-05
1.26232e-05
1.2094e-05
1.15907e-05
1.11015e-05
1.06187e-05
1.01427e-05
9.68044e-06
9.24007e-06
8.82709e-06
8.44398e-06
8.09141e-06
7.76979e-06
7.47963e-06
7.22113e-06
6.99376e-06
6.79609e-06
6.6259e-06
6.48031e-06
6.35601e-06
6.24947e-06
6.15702e-06
6.07493e-06
5.99955e-06
5.92733e-06
5.85495e-06
5.77933e-06
5.69763e-06
5.60735e-06
5.50637e-06
5.39303e-06
5.26595e-06
5.12371e-06
4.96478e-06
4.78782e-06
4.59258e-06
4.3807e-06
4.15588e-06
3.92316e-06
3.68781e-06
3.45409e-06
3.22472e-06
3.00034e-06
2.78009e-06
2.56131e-06
2.34311e-06
2.12357e-06
1.90958e-06
1.69556e-06
1.49939e-06
1.28069e-06
1.10304e-06
8.41715e-07
8.08164e-07
7.60295e-07
0
0
0
0
0
0
0
0
1.78537e-07
1.06183e-06
2.08344e-06
3.23586e-06
4.50534e-06
5.87262e-06
7.31334e-06
8.79927e-06
1.03005e-05
1.17865e-05
1.32243e-05
1.45726e-05
1.5776e-05
1.6773e-05
1.75228e-05
1.80419e-05
1.84117e-05
1.87203e-05
1.89621e-05
1.89937e-05
1.86258e-05
1.78024e-05
1.67439e-05
1.59135e-05
1.57235e-05
1.61893e-05
1.69578e-05
1.7634e-05
1.79923e-05
1.79973e-05
1.7736e-05
1.73304e-05
1.68704e-05
1.63929e-05
1.58999e-05
1.53871e-05
1.48615e-05
1.43406e-05
1.38411e-05
1.33694e-05
1.29198e-05
1.24812e-05
1.20456e-05
1.16134e-05
1.11913e-05
1.07879e-05
1.04093e-05
1.00586e-05
9.73667e-06
9.44396e-06
9.18084e-06
8.94738e-06
8.74289e-06
8.56572e-06
8.41336e-06
8.28258e-06
8.1697e-06
8.0708e-06
7.98178e-06
7.89855e-06
7.81705e-06
7.73342e-06
7.64405e-06
7.54564e-06
7.43524e-06
7.31032e-06
7.16888e-06
7.0095e-06
6.83122e-06
6.63333e-06
6.4152e-06
6.17656e-06
5.91807e-06
5.64191e-06
5.35198e-06
5.05326e-06
4.75098e-06
4.44946e-06
4.15168e-06
3.85857e-06
3.56997e-06
3.28388e-06
3.0009e-06
2.71902e-06
2.44718e-06
2.17549e-06
1.92946e-06
1.65438e-06
1.44969e-06
1.13761e-06
1.19475e-06
1.17437e-06
0
0
0
0
0
0
0
1.08101e-07
8.06804e-07
1.62766e-06
2.56832e-06
3.62167e-06
4.77599e-06
6.01505e-06
7.31847e-06
8.66296e-06
1.0024e-05
1.13767e-05
1.26926e-05
1.39345e-05
1.50513e-05
1.59863e-05
1.67032e-05
1.72189e-05
1.7608e-05
1.79472e-05
1.82244e-05
1.8302e-05
1.80036e-05
1.72803e-05
1.63426e-05
1.5633e-05
1.55506e-05
1.61152e-05
1.69858e-05
1.7772e-05
1.82445e-05
1.83609e-05
1.82038e-05
1.78948e-05
1.75262e-05
1.71378e-05
1.67322e-05
1.6304e-05
1.5858e-05
1.54103e-05
1.49776e-05
1.45672e-05
1.41747e-05
1.37896e-05
1.3404e-05
1.3018e-05
1.26385e-05
1.22745e-05
1.19325e-05
1.16162e-05
1.13266e-05
1.10642e-05
1.08291e-05
1.06213e-05
1.04397e-05
1.02825e-05
1.01468e-05
1.0029e-05
9.92524e-06
9.83105e-06
9.74205e-06
9.6538e-06
9.56196e-06
9.46245e-06
9.3515e-06
9.22575e-06
9.08228e-06
8.91873e-06
8.73334e-06
8.5251e-06
8.29357e-06
8.03883e-06
7.76122e-06
7.46154e-06
7.14137e-06
6.80344e-06
6.45177e-06
6.09119e-06
5.72669e-06
5.36251e-06
5.00178e-06
4.64597e-06
4.29596e-06
3.95085e-06
3.6129e-06
3.27987e-06
2.96222e-06
2.64509e-06
2.36118e-06
2.04012e-06
1.81756e-06
1.45743e-06
1.61245e-06
1.6208e-06
0
0
0
0
0
0
1.6564e-07
7.01949e-07
1.34357e-06
2.09164e-06
2.94384e-06
3.89422e-06
4.93315e-06
6.04714e-06
7.21937e-06
8.43074e-06
9.66128e-06
1.08902e-05
1.20932e-05
1.32361e-05
1.42719e-05
1.51485e-05
1.58338e-05
1.63448e-05
1.67496e-05
1.71149e-05
1.74235e-05
1.75446e-05
1.73157e-05
1.66942e-05
1.58802e-05
1.5293e-05
1.53151e-05
1.59696e-05
1.69298e-05
1.7814e-05
1.83915e-05
1.86142e-05
1.85596e-05
1.83477e-05
1.80723e-05
1.77752e-05
1.74596e-05
1.71189e-05
1.6756e-05
1.63853e-05
1.60232e-05
1.56777e-05
1.53456e-05
1.5017e-05
1.46844e-05
1.43476e-05
1.40138e-05
1.36921e-05
1.339e-05
1.31114e-05
1.28575e-05
1.26288e-05
1.24252e-05
1.22464e-05
1.20911e-05
1.19572e-05
1.18414e-05
1.17397e-05
1.16478e-05
1.15608e-05
1.1474e-05
1.13826e-05
1.12819e-05
1.11675e-05
1.10357e-05
1.08829e-05
1.07065e-05
1.05041e-05
1.02745e-05
1.0017e-05
9.73193e-06
9.42009e-06
9.08284e-06
8.72201e-06
8.34006e-06
7.94029e-06
7.52694e-06
7.10482e-06
6.67882e-06
6.25321e-06
5.83144e-06
5.41555e-06
5.0075e-06
4.60739e-06
4.21888e-06
3.8393e-06
3.48033e-06
3.12236e-06
2.80502e-06
2.44245e-06
2.20551e-06
1.80023e-06
2.05154e-06
2.09537e-06
0
0
0
0
0
2.58955e-07
6.64074e-07
1.15664e-06
1.74027e-06
2.41599e-06
3.1821e-06
4.03406e-06
4.96414e-06
5.96141e-06
7.01221e-06
8.10108e-06
9.2118e-06
1.03272e-05
1.14259e-05
1.2477e-05
1.34372e-05
1.4259e-05
1.49144e-05
1.54203e-05
1.58384e-05
1.62264e-05
1.65633e-05
1.67263e-05
1.65664e-05
1.60476e-05
1.53585e-05
1.48939e-05
1.50162e-05
1.5751e-05
1.6788e-05
1.77574e-05
1.84299e-05
1.87529e-05
1.87982e-05
1.86833e-05
1.85022e-05
1.82979e-05
1.80742e-05
1.78234e-05
1.75464e-05
1.72558e-05
1.69674e-05
1.66899e-05
1.6421e-05
1.61516e-05
1.58744e-05
1.55891e-05
1.5303e-05
1.50257e-05
1.47653e-05
1.45259e-05
1.43092e-05
1.41151e-05
1.39436e-05
1.37938e-05
1.36644e-05
1.35526e-05
1.34549e-05
1.33669e-05
1.32839e-05
1.32008e-05
1.31124e-05
1.30137e-05
1.28998e-05
1.27665e-05
1.26099e-05
1.24265e-05
1.2214e-05
1.19704e-05
1.1695e-05
1.13876e-05
1.10492e-05
1.06814e-05
1.02866e-05
9.86738e-06
9.42701e-06
8.96928e-06
8.49863e-06
8.01988e-06
7.53788e-06
7.0569e-06
6.5807e-06
6.11181e-06
5.65305e-06
5.20524e-06
4.77315e-06
4.35346e-06
3.95913e-06
3.56614e-06
3.22141e-06
2.8237e-06
2.5792e-06
2.13556e-06
2.4887e-06
2.57453e-06
2.67349e-08
0
0
1.11266e-07
3.45586e-07
6.46128e-07
1.01758e-06
1.46424e-06
1.98947e-06
2.59457e-06
3.2786e-06
4.03819e-06
4.8673e-06
5.75725e-06
6.69708e-06
7.67434e-06
8.67591e-06
9.68748e-06
1.06904e-05
1.16567e-05
1.25468e-05
1.3318e-05
1.39461e-05
1.44476e-05
1.48779e-05
1.5286e-05
1.56487e-05
1.58515e-05
1.57597e-05
1.5343e-05
1.47786e-05
1.44348e-05
1.46521e-05
1.54569e-05
1.65575e-05
1.7599e-05
1.83563e-05
1.87727e-05
1.89147e-05
1.88958e-05
1.88094e-05
1.86989e-05
1.85686e-05
1.84097e-05
1.82209e-05
1.80132e-05
1.78015e-05
1.75949e-05
1.73921e-05
1.7185e-05
1.69663e-05
1.6736e-05
1.65011e-05
1.6272e-05
1.60572e-05
1.58617e-05
1.56868e-05
1.55327e-05
1.53987e-05
1.52838e-05
1.5186e-05
1.51023e-05
1.50288e-05
1.49606e-05
1.48924e-05
1.48187e-05
1.4734e-05
1.4633e-05
1.45106e-05
1.43623e-05
1.41842e-05
1.39731e-05
1.37268e-05
1.34439e-05
1.31239e-05
1.27675e-05
1.23764e-05
1.1953e-05
1.15004e-05
1.10224e-05
1.05228e-05
1.00061e-05
9.47708e-06
8.9407e-06
8.4019e-06
7.86516e-06
7.33452e-06
6.813e-06
6.30413e-06
5.80927e-06
5.33402e-06
4.87441e-06
4.44474e-06
4.01713e-06
3.64574e-06
3.2149e-06
2.96437e-06
2.48664e-06
2.93636e-06
3.07315e-06
1.6996e-07
1.29278e-07
2.3574e-07
4.00552e-07
6.15133e-07
8.88468e-07
1.22352e-06
1.62347e-06
2.09162e-06
2.62953e-06
3.23675e-06
3.91089e-06
4.64736e-06
5.43938e-06
6.27822e-06
7.15398e-06
8.05609e-06
8.97275e-06
9.88778e-06
1.0776e-05
1.1602e-05
1.23276e-05
1.29321e-05
1.34309e-05
1.38728e-05
1.42988e-05
1.46843e-05
1.49245e-05
1.48986e-05
1.45822e-05
1.41402e-05
1.39138e-05
1.42193e-05
1.50837e-05
1.62347e-05
1.73353e-05
1.81665e-05
1.8669e-05
1.89036e-05
1.8979e-05
1.89866e-05
1.89703e-05
1.8934e-05
1.88679e-05
1.8769e-05
1.86461e-05
1.8513e-05
1.83792e-05
1.82444e-05
1.81011e-05
1.79426e-05
1.77686e-05
1.75863e-05
1.74063e-05
1.72379e-05
1.70864e-05
1.69535e-05
1.6839e-05
1.67416e-05
1.666e-05
1.65916e-05
1.65332e-05
1.64802e-05
1.64275e-05
1.63694e-05
1.63001e-05
1.62138e-05
1.6105e-05
1.59687e-05
1.58005e-05
1.55967e-05
1.53543e-05
1.50716e-05
1.47477e-05
1.43828e-05
1.39782e-05
1.35364e-05
1.30605e-05
1.25545e-05
1.20227e-05
1.14698e-05
1.09005e-05
1.032e-05
9.73334e-06
9.14552e-06
8.56112e-06
7.98443e-06
7.41877e-06
6.86822e-06
6.33441e-06
5.82361e-06
5.3311e-06
4.87266e-06
4.41684e-06
4.02543e-06
3.56824e-06
3.31941e-06
2.81512e-06
3.36991e-06
3.5585e-06
2.45446e-08
1.39158e-07
2.79513e-07
4.44535e-07
6.48572e-07
9.03775e-07
1.21185e-06
1.57513e-06
1.99692e-06
2.47901e-06
3.02145e-06
3.62278e-06
4.27974e-06
4.98717e-06
5.73837e-06
6.52561e-06
7.3406e-06
8.17374e-06
9.01119e-06
9.83074e-06
1.06008e-05
1.12879e-05
1.1874e-05
1.23726e-05
1.28259e-05
1.32675e-05
1.36728e-05
1.39474e-05
1.39846e-05
1.37653e-05
1.3442e-05
1.33278e-05
1.37139e-05
1.46269e-05
1.58153e-05
1.69622e-05
1.78564e-05
1.84372e-05
1.87594e-05
1.89264e-05
1.9027e-05
1.91042e-05
1.9162e-05
1.91898e-05
1.91826e-05
1.91468e-05
1.90953e-05
1.90372e-05
1.89733e-05
1.88973e-05
1.88029e-05
1.86896e-05
1.85646e-05
1.8439e-05
1.83226e-05
1.82215e-05
1.81375e-05
1.80703e-05
1.8018e-05
1.79787e-05
1.79492e-05
1.79257e-05
1.79032e-05
1.7876e-05
1.78377e-05
1.77823e-05
1.77034e-05
1.75954e-05
1.74531e-05
1.72719e-05
1.70484e-05
1.67798e-05
1.64649e-05
1.61031e-05
1.56955e-05
1.5244e-05
1.47519e-05
1.42232e-05
1.36627e-05
1.30755e-05
1.24669e-05
1.18423e-05
1.12073e-05
1.05672e-05
9.92732e-06
9.29233e-06
8.66689e-06
8.05463e-06
7.46009e-06
6.88508e-06
6.3364e-06
5.80871e-06
5.31926e-06
4.83354e-06
4.42058e-06
3.93693e-06
3.68872e-06
3.1602e-06
3.80946e-06
4.05333e-06
0
1.17385e-07
2.75715e-07
4.23811e-07
6.02556e-07
8.27591e-07
1.09945e-06
1.4196e-06
1.79125e-06
2.2163e-06
2.69512e-06
3.22686e-06
3.80922e-06
4.43837e-06
5.10921e-06
5.81583e-06
6.55182e-06
7.30942e-06
8.07685e-06
8.83469e-06
9.55511e-06
1.02088e-05
1.07797e-05
1.1279e-05
1.17419e-05
1.21955e-05
1.26167e-05
1.29222e-05
1.3019e-05
1.28925e-05
1.26826e-05
1.26741e-05
1.31325e-05
1.40834e-05
1.52968e-05
1.64771e-05
1.74231e-05
1.80733e-05
1.84768e-05
1.87311e-05
1.89212e-05
1.90893e-05
1.92393e-05
1.93598e-05
1.94438e-05
1.94958e-05
1.95267e-05
1.95452e-05
1.9553e-05
1.95447e-05
1.95146e-05
1.94623e-05
1.93947e-05
1.93228e-05
1.92571e-05
1.92042e-05
1.91665e-05
1.91431e-05
1.91321e-05
1.91303e-05
1.91342e-05
1.91393e-05
1.91401e-05
1.91305e-05
1.91038e-05
1.90537e-05
1.89737e-05
1.88582e-05
1.8702e-05
1.85009e-05
1.82517e-05
1.79525e-05
1.76022e-05
1.72013e-05
1.67515e-05
1.62555e-05
1.57172e-05
1.51414e-05
1.45336e-05
1.38993e-05
1.32446e-05
1.2575e-05
1.18964e-05
1.12142e-05
1.05339e-05
9.86022e-06
9.19799e-06
8.551e-06
7.92406e-06
7.31895e-06
6.74292e-06
6.18991e-06
5.67879e-06
5.17205e-06
4.74639e-06
4.24452e-06
4.00651e-06
3.46179e-06
4.21958e-06
4.51008e-06
0
0
0
0
1.79957e-07
4.03528e-07
6.66353e-07
9.69089e-07
1.31502e-06
1.70627e-06
2.14369e-06
2.62724e-06
3.15569e-06
3.72653e-06
4.33617e-06
4.98029e-06
5.65407e-06
6.35137e-06
7.06231e-06
7.77019e-06
8.45094e-06
9.07903e-06
9.64003e-06
1.01424e-05
1.06146e-05
1.10786e-05
1.15136e-05
1.1848e-05
1.20018e-05
1.19643e-05
1.18626e-05
1.19534e-05
1.24765e-05
1.3456e-05
1.46833e-05
1.58855e-05
1.68727e-05
1.75836e-05
1.80614e-05
1.83974e-05
1.86724e-05
1.89275e-05
1.91666e-05
1.93778e-05
1.95528e-05
1.96935e-05
1.9809e-05
1.99075e-05
1.99909e-05
2.00552e-05
2.00954e-05
2.01112e-05
2.01089e-05
2.00995e-05
2.00936e-05
2.00987e-05
2.01177e-05
2.01497e-05
2.01922e-05
2.02412e-05
2.02924e-05
2.03405e-05
2.03792e-05
2.04019e-05
2.04014e-05
2.03706e-05
2.0303e-05
2.01924e-05
2.00337e-05
1.98228e-05
1.95568e-05
1.9234e-05
1.88541e-05
1.84183e-05
1.79287e-05
1.73891e-05
1.68043e-05
1.61797e-05
1.55217e-05
1.48365e-05
1.41307e-05
1.34105e-05
1.26822e-05
1.19517e-05
1.12244e-05
1.05056e-05
9.80028e-06
9.1124e-06
8.44707e-06
7.80609e-06
7.19705e-06
6.61335e-06
6.07538e-06
5.54308e-06
5.10021e-06
4.57705e-06
4.34452e-06
3.78263e-06
4.63117e-06
4.96555e-06
0
0
0
0
0
3.34582e-08
2.61772e-07
5.25967e-07
8.29287e-07
1.17385e-06
1.56052e-06
1.98959e-06
2.46044e-06
2.9715e-06
3.52021e-06
4.10333e-06
4.71712e-06
5.35653e-06
6.01325e-06
6.6731e-06
7.3156e-06
7.91875e-06
8.4694e-06
8.97305e-06
9.45193e-06
9.92351e-06
1.03702e-05
1.07317e-05
1.094e-05
1.09878e-05
1.09892e-05
1.11736e-05
1.17548e-05
1.27551e-05
1.39872e-05
1.52011e-05
1.62194e-05
1.69816e-05
1.75255e-05
1.79353e-05
1.82876e-05
1.86217e-05
1.89416e-05
1.92354e-05
1.94935e-05
1.9716e-05
1.99099e-05
2.00826e-05
2.02366e-05
2.03691e-05
2.04761e-05
2.05572e-05
2.0618e-05
2.06687e-05
2.07195e-05
2.07781e-05
2.08478e-05
2.09279e-05
2.10154e-05
2.11057e-05
2.11934e-05
2.12725e-05
2.13364e-05
2.13777e-05
2.13892e-05
2.13637e-05
2.12943e-05
2.11754e-05
2.1002e-05
2.07706e-05
2.04789e-05
2.01261e-05
1.97126e-05
1.92404e-05
1.87127e-05
1.81338e-05
1.75093e-05
1.68454e-05
1.61487e-05
1.5426e-05
1.4684e-05
1.39294e-05
1.31684e-05
1.24069e-05
1.16507e-05
1.09048e-05
1.01743e-05
9.46315e-06
8.77659e-06
8.11621e-06
7.4899e-06
6.89036e-06
6.33968e-06
5.79501e-06
5.34773e-06
4.81449e-06
4.60054e-06
4.03099e-06
4.99342e-06
5.35383e-06
0
0
0
0
0
0
0
0
0
2.76809e-07
6.52931e-07
1.06476e-06
1.51239e-06
1.99514e-06
2.51146e-06
3.0592e-06
3.63576e-06
4.23731e-06
4.85732e-06
5.48442e-06
6.10189e-06
6.69133e-06
7.24075e-06
7.75282e-06
8.24408e-06
8.72829e-06
9.19138e-06
9.58351e-06
9.84801e-06
9.98007e-06
1.00815e-05
1.03551e-05
1.09901e-05
1.2007e-05
1.32389e-05
1.44596e-05
1.55045e-05
1.63144e-05
1.69216e-05
1.7403e-05
1.78303e-05
1.82404e-05
1.86371e-05
1.90081e-05
1.9343e-05
1.96401e-05
1.99054e-05
2.01459e-05
2.03653e-05
2.05627e-05
2.07359e-05
2.08854e-05
2.10163e-05
2.11374e-05
2.1258e-05
2.13852e-05
2.1522e-05
2.16677e-05
2.18186e-05
2.19694e-05
2.21136e-05
2.2244e-05
2.23533e-05
2.24335e-05
2.24768e-05
2.24756e-05
2.2423e-05
2.23128e-05
2.21405e-05
2.19026e-05
2.15973e-05
2.12243e-05
2.07848e-05
2.02816e-05
1.97186e-05
1.91012e-05
1.84356e-05
1.77287e-05
1.69879e-05
1.62206e-05
1.5434e-05
1.46352e-05
1.38309e-05
1.30274e-05
1.22307e-05
1.14461e-05
1.06789e-05
9.93324e-06
9.21437e-06
8.52389e-06
7.86998e-06
7.24481e-06
6.67203e-06
6.10644e-06
5.64617e-06
5.09597e-06
4.89134e-06
4.30876e-06
5.35906e-06
5.73887e-06
0
0
0
0
0
0
0
0
0
0
0
2.37668e-07
6.38535e-07
1.07349e-06
1.54151e-06
2.04089e-06
2.56948e-06
3.12426e-06
3.70026e-06
4.2888e-06
4.87681e-06
5.44924e-06
5.99511e-06
6.51417e-06
7.01745e-06
7.51504e-06
7.99593e-06
8.41984e-06
8.74e-06
8.95339e-06
9.14942e-06
9.50573e-06
1.01884e-05
1.1217e-05
1.24453e-05
1.36709e-05
1.47424e-05
1.5602e-05
1.62761e-05
1.68337e-05
1.73398e-05
1.7828e-05
1.83e-05
1.87424e-05
1.91429e-05
1.94985e-05
1.98141e-05
2.00974e-05
2.03542e-05
2.0587e-05
2.07972e-05
2.09876e-05
2.1164e-05
2.13345e-05
2.1507e-05
2.1687e-05
2.18762e-05
2.2073e-05
2.22726e-05
2.24683e-05
2.26522e-05
2.2816e-05
2.29512e-05
2.30496e-05
2.31031e-05
2.31045e-05
2.3047e-05
2.29253e-05
2.27353e-05
2.24748e-05
2.21429e-05
2.17403e-05
2.12694e-05
2.07339e-05
2.01387e-05
1.949e-05
1.87945e-05
1.80595e-05
1.72925e-05
1.65011e-05
1.56924e-05
1.48737e-05
1.40516e-05
1.32323e-05
1.24217e-05
1.16251e-05
1.08476e-05
1.00933e-05
9.36724e-06
8.67085e-06
8.01251e-06
7.38366e-06
6.80966e-06
6.24244e-06
5.7878e-06
5.23649e-06
5.05956e-06
4.47677e-06