/*--------------------------------*- C++ -*----------------------------------*\
  =========                 |
  \\      /  F ield         | OpenFOAM: The Open Source CFD Toolbox
   \\    /   O peration     | Website:  https://openfoam.org
    \\  /    A nd           | Version:  10
     \\/     M anipulation  |
\*---------------------------------------------------------------------------*/
FoamFile
{
    format      ascii;
    class       volScalarField;
    location    "0.025";
    object      p;
}
// * * * * * * * * * * * * * * * * * * * * * * * * * * * * * * * * * * * * * //

dimensions      [0 2 -2 0 0 0 0];

internalField   nonuniform List<scalar> 
6820
(
-10.3161
-10.6206
-10.6726
-10.697
-10.74
-10.7782
-10.8119
-10.8457
-10.88
-10.9147
-10.9502
-10.9868
-11.0245
-11.0635
-11.1036
-11.1449
-11.1872
-11.2303
-11.274
-11.3179
-11.3617
-11.4047
-11.4465
-11.4864
-11.5237
-11.5578
-11.5875
-11.6118
-11.6299
-11.6407
-11.6399
-11.6218
-11.5756
-10.5163
-10.6434
-10.6857
-10.7097
-10.7467
-10.7815
-10.8134
-10.8458
-10.879
-10.9128
-10.9475
-10.9834
-11.0204
-11.0586
-11.098
-11.1386
-11.1801
-11.2224
-11.2653
-11.3085
-11.3516
-11.3941
-11.4356
-11.4755
-11.5133
-11.5483
-11.5799
-11.6071
-11.6294
-11.6458
-11.6542
-11.6518
-11.6381
-10.5158
-10.6034
-10.6676
-10.7027
-10.7416
-10.779
-10.813
-10.8465
-10.8803
-10.9145
-10.9493
-10.985
-11.0216
-11.0592
-11.0978
-11.1374
-11.1778
-11.219
-11.2606
-11.3025
-11.3444
-11.3858
-11.4265
-11.4659
-11.5038
-11.5396
-11.573
-11.6034
-11.6303
-11.653
-11.6714
-11.6833
-11.6951
-10.5717
-10.6435
-10.697
-10.7255
-10.7577
-10.7908
-10.8218
-10.8529
-10.8847
-10.9173
-10.9507
-10.9852
-11.0208
-11.0574
-11.0952
-11.1339
-11.1736
-11.2141
-11.2551
-11.2966
-11.3381
-11.3794
-11.4202
-11.4601
-11.4988
-11.5361
-11.5716
-11.6048
-11.636
-11.6646
-11.6913
-11.7157
-11.7427
-10.6003
-10.6411
-10.6857
-10.7169
-10.7502
-10.7844
-10.8167
-10.8488
-10.8814
-10.9144
-10.9482
-10.9827
-11.0182
-11.0546
-11.092
-11.1303
-11.1693
-11.2091
-11.2495
-11.2902
-11.3311
-11.372
-11.4124
-11.4523
-11.4916
-11.5299
-11.5672
-11.6037
-11.6394
-11.6744
-11.7098
-11.746
-11.7878
-10.6285
-10.6613
-10.704
-10.7353
-10.7657
-10.797
-10.8272
-10.8573
-10.888
-10.9195
-10.9517
-10.9849
-11.0191
-11.0543
-11.0905
-11.1276
-11.1657
-11.2045
-11.244
-11.284
-11.3244
-11.3652
-11.4054
-11.4459
-11.4861
-11.5261
-11.5659
-11.6056
-11.6458
-11.6869
-11.7302
-11.7769
-11.8311
-10.6515
-10.6733
-10.7071
-10.735
-10.7631
-10.793
-10.8228
-10.8528
-10.8834
-10.9148
-10.947
-10.98
-11.014
-11.0489
-11.0847
-11.1214
-11.1589
-11.1971
-11.2361
-11.2756
-11.3156
-11.3557
-11.3965
-11.4373
-11.4783
-11.5197
-11.5616
-11.6044
-11.6487
-11.6954
-11.7459
-11.8016
-11.8664
-10.6713
-10.6877
-10.7178
-10.7456
-10.7731
-10.8018
-10.8306
-10.8595
-10.8889
-10.9191
-10.9501
-10.9819
-11.0147
-11.0484
-11.0831
-11.1187
-11.1551
-11.1923
-11.2305
-11.2692
-11.3085
-11.3484
-11.389
-11.4302
-11.472
-11.5148
-11.5588
-11.6045
-11.6527
-11.7043
-11.7609
-11.8241
-11.8971
-10.6884
-10.7007
-10.7257
-10.7504
-10.7753
-10.8018
-10.829
-10.8568
-10.8854
-10.9148
-10.9451
-10.9764
-11.0085
-11.0417
-11.0757
-11.1106
-11.1464
-11.1827
-11.2207
-11.259
-11.2979
-11.3376
-11.3782
-11.4197
-11.4623
-11.5063
-11.5521
-11.6002
-11.6517
-11.7074
-11.7689
-11.8379
-11.9172
-10.7033
-10.7129
-10.7344
-10.7576
-10.7815
-10.8071
-10.8335
-10.8606
-10.8884
-10.917
-10.9464
-10.9767
-11.0078
-11.04
-11.073
-11.1069
-11.1418
-11.1778
-11.2139
-11.2514
-11.2897
-11.329
-11.3693
-11.4109
-11.454
-11.4989
-11.5461
-11.5962
-11.6502
-11.709
-11.7742
-11.8472
-11.9305
-10.7164
-10.7241
-10.7425
-10.7635
-10.7854
-10.809
-10.8338
-10.8594
-10.886
-10.9134
-10.9418
-10.9711
-11.0013
-11.0325
-11.0646
-11.0977
-11.1317
-11.1667
-11.2024
-11.2392
-11.277
-11.3159
-11.3561
-11.3977
-11.4412
-11.4867
-11.535
-11.5866
-11.6424
-11.7033
-11.7709
-11.8463
-11.9318
-10.7279
-10.7343
-10.7502
-10.7693
-10.7899
-10.8123
-10.8362
-10.8609
-10.8867
-10.9133
-10.9408
-10.9692
-10.9986
-11.0288
-11.0598
-11.0919
-11.1248
-11.1588
-11.1936
-11.2295
-11.2665
-11.3048
-11.3445
-11.3859
-11.4293
-11.4751
-11.5238
-11.5762
-11.6329
-11.6949
-11.7635
-11.8397
-11.9253
-10.738
-10.7433
-10.7572
-10.7746
-10.7936
-10.8145
-10.8368
-10.8603
-10.8847
-10.91
-10.9363
-10.9635
-10.9917
-11.0208
-11.0508
-11.0817
-11.1136
-11.1465
-11.1804
-11.2154
-11.2516
-11.2892
-11.3283
-11.3693
-11.4124
-11.4581
-11.5068
-11.5593
-11.6162
-11.6783
-11.7467
-11.8224
-11.9067
-10.7468
-10.7514
-10.7635
-10.7793
-10.797
-10.8166
-10.8378
-10.8601
-10.8836
-10.908
-10.9333
-10.9596
-10.9867
-11.0147
-11.0437
-11.0736
-11.1044
-11.1361
-11.169
-11.2029
-11.2381
-11.2748
-11.313
-11.3532
-11.3956
-11.4407
-11.4889
-11.5407
-11.5968
-11.658
-11.7251
-11.7988
-11.8802
-10.7544
-10.7584
-10.7691
-10.7835
-10.7998
-10.8181
-10.8379
-10.859
-10.8811
-10.9043
-10.9284
-10.9534
-10.9792
-11.006
-11.0336
-11.0622
-11.0917
-11.1222
-11.1538
-11.1865
-11.2206
-11.2561
-11.2933
-11.3324
-11.3738
-11.4178
-11.4648
-11.5154
-11.5701
-11.6295
-11.6942
-11.7649
-11.8423
-10.7609
-10.7644
-10.7739
-10.787
-10.802
-10.819
-10.8377
-10.8576
-10.8786
-10.9006
-10.9236
-10.9475
-10.9722
-10.9978
-11.0242
-11.0515
-11.0798
-11.109
-11.1393
-11.1707
-11.2034
-11.2376
-11.2734
-11.3112
-11.3511
-11.3936
-11.4389
-11.4876
-11.54
-11.5967
-11.6582
-11.7247
-11.797
-10.7662
-10.7694
-10.7779
-10.7898
-10.8036
-10.8194
-10.8368
-10.8555
-10.8753
-10.896
-10.9177
-10.9402
-10.9636
-10.9877
-11.0128
-11.0386
-11.0654
-11.0931
-11.1219
-11.1517
-11.1829
-11.2154
-11.2496
-11.2856
-11.3237
-11.3641
-11.4073
-11.4534
-11.503
-11.5563
-11.6137
-11.6754
-11.7419
-10.7706
-10.7734
-10.7811
-10.7918
-10.8046
-10.8192
-10.8354
-10.8528
-10.8714
-10.8909
-10.9113
-10.9326
-10.9546
-10.9774
-11.0011
-11.0255
-11.0508
-11.077
-11.1041
-11.1323
-11.1618
-11.1925
-11.2248
-11.2587
-11.2946
-11.3326
-11.373
-11.4161
-11.4622
-11.5114
-11.5641
-11.6203
-11.6803
-10.7739
-10.7764
-10.7834
-10.7931
-10.8048
-10.8183
-10.8333
-10.8495
-10.8668
-10.885
-10.9041
-10.9239
-10.9445
-10.9658
-10.9879
-11.0107
-11.0343
-11.0587
-11.084
-11.1104
-11.1378
-11.1664
-11.1964
-11.228
-11.2613
-11.2964
-11.3337
-11.3733
-11.4153
-11.46
-11.5074
-11.5577
-11.6108
-10.7763
-10.7786
-10.7848
-10.7936
-10.8043
-10.8167
-10.8305
-10.8455
-10.8615
-10.8784
-10.8961
-10.9146
-10.9337
-10.9535
-10.974
-10.9951
-11.017
-11.0396
-11.063
-11.0873
-11.1126
-11.1389
-11.1665
-11.1954
-11.2257
-11.2577
-11.2914
-11.327
-11.3646
-11.4043
-11.4461
-11.49
-11.536
-10.7777
-10.7797
-10.7854
-10.7934
-10.8031
-10.8144
-10.8271
-10.8408
-10.8556
-10.8711
-10.8874
-10.9044
-10.9219
-10.9401
-10.9589
-10.9782
-10.9982
-11.0188
-11.0401
-11.0621
-11.085
-11.1088
-11.1337
-11.1596
-11.1867
-11.2152
-11.245
-11.2763
-11.3091
-11.3435
-11.3794
-11.4167
-11.4553
-10.7782
-10.78
-10.7851
-10.7923
-10.8011
-10.8114
-10.8229
-10.8355
-10.8489
-10.8631
-10.8779
-10.8934
-10.9093
-10.9258
-10.9428
-10.9602
-10.9782
-10.9967
-11.0158
-11.0355
-11.0558
-11.0769
-11.0988
-11.1216
-11.1452
-11.1699
-11.1956
-11.2223
-11.2501
-11.2789
-11.3087
-11.3393
-11.3706
-10.7778
-10.7794
-10.7839
-10.7904
-10.7983
-10.8076
-10.818
-10.8294
-10.8415
-10.8543
-10.8677
-10.8816
-10.8959
-10.9106
-10.9257
-10.9412
-10.9571
-10.9734
-10.9901
-11.0073
-11.0249
-11.0431
-11.0618
-11.0812
-11.1012
-11.1218
-11.1431
-11.1651
-11.1877
-11.2108
-11.2344
-11.2583
-11.2824
-10.7764
-10.7779
-10.7819
-10.7877
-10.7948
-10.8031
-10.8124
-10.8226
-10.8334
-10.8448
-10.8567
-10.8689
-10.8815
-10.8944
-10.9076
-10.921
-10.9347
-10.9486
-10.9628
-10.9773
-10.9921
-11.0072
-11.0227
-11.0384
-11.0546
-11.0711
-11.0879
-11.1049
-11.1222
-11.1397
-11.1571
-11.1744
-11.1913
-10.7743
-10.7756
-10.7791
-10.7843
-10.7906
-10.7979
-10.8062
-10.8151
-10.8247
-10.8347
-10.845
-10.8557
-10.8666
-10.8776
-10.8888
-10.9002
-10.9116
-10.9231
-10.9348
-10.9465
-10.9583
-10.9703
-10.9823
-10.9944
-11.0066
-11.0188
-11.031
-11.0432
-11.0552
-11.0669
-11.0783
-11.0891
-11.0991
-10.7713
-10.7724
-10.7755
-10.7801
-10.7856
-10.792
-10.7992
-10.8069
-10.8152
-10.8237
-10.8325
-10.8415
-10.8506
-10.8597
-10.8688
-10.8779
-10.887
-10.896
-10.9049
-10.9138
-10.9225
-10.9311
-10.9396
-10.948
-10.9561
-10.964
-10.9715
-10.9787
-10.9855
-10.9916
-10.997
-11.0015
-11.005
-10.7674
-10.7684
-10.7712
-10.7751
-10.7799
-10.7855
-10.7917
-10.7983
-10.8053
-10.8125
-10.8198
-10.8272
-10.8345
-10.8417
-10.8488
-10.8558
-10.8625
-10.869
-10.8753
-10.8812
-10.8869
-10.8922
-10.8972
-10.9018
-10.9059
-10.9095
-10.9125
-10.9148
-10.9164
-10.9171
-10.9168
-10.9153
-10.9125
-10.7628
-10.7637
-10.7661
-10.7695
-10.7735
-10.7782
-10.7834
-10.7888
-10.7945
-10.8002
-10.8059
-10.8115
-10.817
-10.8222
-10.8272
-10.8318
-10.836
-10.8399
-10.8433
-10.8463
-10.8488
-10.8507
-10.8521
-10.8528
-10.8528
-10.8521
-10.8505
-10.848
-10.8446
-10.84
-10.8342
-10.827
-10.8184
-10.7575
-10.7583
-10.7603
-10.7632
-10.7667
-10.7707
-10.775
-10.7795
-10.784
-10.7884
-10.7927
-10.7968
-10.8005
-10.8039
-10.8069
-10.8093
-10.8112
-10.8126
-10.8134
-10.8135
-10.8129
-10.8115
-10.8094
-10.8064
-10.8025
-10.7977
-10.7918
-10.7847
-10.7765
-10.7669
-10.7559
-10.7434
-10.7292
-10.7515
-10.7521
-10.7538
-10.7562
-10.759
-10.7621
-10.7654
-10.7687
-10.7719
-10.7748
-10.7775
-10.7798
-10.7817
-10.783
-10.7838
-10.7839
-10.7833
-10.782
-10.7799
-10.777
-10.7732
-10.7685
-10.7628
-10.7561
-10.7483
-10.7393
-10.7291
-10.7176
-10.7047
-10.6903
-10.6744
-10.6569
-10.6377
-10.7448
-10.7454
-10.747
-10.7491
-10.7516
-10.7542
-10.7568
-10.7594
-10.7616
-10.7635
-10.7649
-10.7658
-10.7661
-10.7656
-10.7645
-10.7625
-10.7597
-10.756
-10.7514
-10.7457
-10.739
-10.7312
-10.7223
-10.7121
-10.7006
-10.6879
-10.6737
-10.6581
-10.6409
-10.6222
-10.6017
-10.5795
-10.5554
-10.7373
-10.7378
-10.739
-10.7406
-10.7424
-10.7441
-10.7457
-10.747
-10.748
-10.7484
-10.7483
-10.7474
-10.7459
-10.7435
-10.7402
-10.736
-10.7307
-10.7245
-10.7171
-10.7085
-10.6988
-10.6877
-10.6754
-10.6617
-10.6466
-10.63
-10.6119
-10.5922
-10.571
-10.548
-10.5233
-10.4969
-10.4686
-10.7294
-10.7301
-10.7317
-10.7336
-10.7355
-10.7371
-10.7385
-10.7393
-10.7395
-10.7391
-10.7379
-10.7358
-10.7328
-10.7288
-10.7238
-10.7177
-10.7104
-10.702
-10.6923
-10.6812
-10.6688
-10.6551
-10.6398
-10.6231
-10.6048
-10.5849
-10.5634
-10.5401
-10.5152
-10.4885
-10.4599
-10.4295
-10.3972
-10.7204
-10.7206
-10.7216
-10.7228
-10.7238
-10.7246
-10.725
-10.7248
-10.7238
-10.7221
-10.7195
-10.7159
-10.7112
-10.7055
-10.6985
-10.6903
-10.6808
-10.6699
-10.6577
-10.644
-10.6287
-10.612
-10.5937
-10.5737
-10.5521
-10.5288
-10.5038
-10.4771
-10.4486
-10.4183
-10.3863
-10.3525
-10.3169
-10.7117
-10.7133
-10.7159
-10.7182
-10.72
-10.7211
-10.7215
-10.7209
-10.7195
-10.717
-10.7134
-10.7087
-10.7028
-10.6957
-10.6873
-10.6775
-10.6663
-10.6536
-10.6394
-10.6236
-10.6062
-10.5872
-10.5665
-10.5441
-10.5199
-10.4939
-10.4661
-10.4364
-10.4049
-10.3716
-10.3363
-10.2992
-10.2601
-10.6993
-10.6991
-10.7006
-10.7024
-10.7037
-10.7044
-10.7043
-10.7032
-10.701
-10.6977
-10.6931
-10.6873
-10.68
-10.6714
-10.6613
-10.6496
-10.6364
-10.6216
-10.6051
-10.5869
-10.567
-10.5453
-10.5219
-10.4966
-10.4695
-10.4406
-10.4098
-10.3773
-10.3429
-10.3067
-10.2687
-10.2291
-10.1877
-10.6921
-10.697
-10.7022
-10.7052
-10.707
-10.7079
-10.7076
-10.706
-10.7031
-10.699
-10.6936
-10.6868
-10.6786
-10.669
-10.6578
-10.645
-10.6306
-10.6146
-10.5968
-10.5772
-10.5558
-10.5325
-10.5073
-10.4803
-10.4513
-10.4203
-10.3874
-10.3526
-10.3158
-10.2771
-10.2365
-10.194
-10.1495
-10.6657
-10.668
-10.6754
-10.6803
-10.6836
-10.6858
-10.6863
-10.6851
-10.6824
-10.6781
-10.6721
-10.6645
-10.6553
-10.6444
-10.6318
-10.6174
-10.6012
-10.5832
-10.5634
-10.5416
-10.518
-10.4924
-10.465
-10.4356
-10.4042
-10.371
-10.3359
-10.2989
-10.2601
-10.2195
-10.1773
-10.1334
-10.088
-10.6766
-10.6854
-10.6925
-10.6953
-10.6974
-10.6983
-10.6975
-10.6953
-10.6917
-10.6867
-10.6803
-10.6723
-10.6627
-10.6516
-10.6387
-10.6241
-10.6076
-10.5893
-10.5691
-10.547
-10.5228
-10.4966
-10.4683
-10.4379
-10.4054
-10.3708
-10.3342
-10.2954
-10.2545
-10.2117
-10.1667
-10.1199
-10.071
-10.5695
-10.6352
-10.6561
-10.6624
-10.6704
-10.6752
-10.6763
-10.675
-10.6717
-10.6664
-10.6592
-10.6501
-10.6391
-10.6263
-10.6115
-10.5948
-10.5762
-10.5555
-10.5328
-10.508
-10.4811
-10.4522
-10.4211
-10.388
-10.3527
-10.3154
-10.2762
-10.2349
-10.1917
-10.1468
-10.1
-10.0516
-10.0015
-11.4879
-11.6326
-11.2102
-11.0948
-11.3784
-12.3121
-13.6797
-15.393
-17.4055
-19.6434
-22.0456
-24.477
-26.6512
-28.3164
-29.2089
-29.1682
-28.1979
-26.4374
-24.1125
-21.4513
-18.6482
-15.8685
-13.2401
-10.8501
-8.74609
-6.94091
-5.42202
-4.16206
-3.12745
-2.2844
-1.6023
-1.0548
-0.619436
-0.27691
-0.0106435
0.193484
0.347286
0.460482
0.541072
0.595604
0.629385
0.646745
0.651238
0.645787
0.632802
0.614269
0.591803
0.566705
0.540004
0.5125
0.48481
0.457397
0.43061
0.404699
0.379839
0.356147
0.333691
0.312504
0.292587
0.273924
0.256481
0.240211
0.225061
0.210971
0.197877
0.185716
0.174422
0.163931
0.154182
0.145113
0.136667
0.128788
0.121426
0.11453
0.108056
0.10196
0.0962044
0.0907512
0.0855672
0.0806215
0.0758857
0.0713339
0.0669425
0.0626898
0.0585563
0.0545243
0.0505777
0.0467017
0.0428831
0.0391102
0.0353714
0.0316585
0.0279588
0.0242717
0.020574
0.0168901
0.0131495
0.00947426
0.00560192
0.00203779
-11.6357
-11.6954
-11.4733
-11.5412
-11.9412
-12.79
-14.0105
-15.5498
-17.3713
-19.4052
-21.5216
-23.5353
-25.2962
-26.6193
-27.2978
-27.2075
-26.3518
-24.8257
-22.7823
-20.402
-17.8643
-15.3249
-12.9023
-10.678
-8.69938
-6.98375
-5.52505
-4.30265
-3.289
-2.45516
-1.77422
-1.22257
-0.779708
-0.427756
-0.151099
0.0637326
0.228146
0.351625
0.441969
0.505624
0.547894
0.573102
0.584808
0.585958
0.578989
0.56592
0.548405
0.527782
0.505121
0.481259
0.456849
0.43239
0.408258
0.384734
0.362018
0.340251
0.319522
0.299883
0.281355
0.263935
0.247604
0.232329
0.218068
0.204772
0.192388
0.180859
0.170129
0.16014
0.150837
0.142165
0.134071
0.126506
0.119421
0.112771
0.106514
0.100611
0.0950247
0.0897212
0.0846693
0.0798398
0.0752062
0.0707442
0.0664315
0.0622479
0.0581749
0.0541959
0.0502954
0.0464599
0.0426766
0.0389346
0.0352229
0.0315337
0.027855
0.0241862
0.0205053
0.0168354
0.01311
0.00944401
0.00559019
0.00202479
-11.6982
-11.761
-11.7319
-11.8696
-12.2655
-13.0123
-14.0882
-15.4448
-17.0372
-18.7893
-20.6044
-22.3665
-23.9002
-25.0355
-25.6053
-25.5118
-24.7502
-23.3912
-21.5624
-19.4208
-17.1225
-14.8036
-12.5718
-10.5033
-8.64477
-7.01659
-5.61801
-4.43428
-3.44322
-2.62034
-1.94222
-1.38785
-0.938678
-0.578223
-0.291877
-0.0668527
0.1078
0.241288
0.341245
0.413967
0.464692
0.497753
0.516713
0.524523
0.523646
0.516127
0.503653
0.4876
0.469071
0.448944
0.427903
0.406481
0.385084
0.364021
0.34352
0.323742
0.3048
0.286764
0.269674
0.253543
0.238366
0.224124
0.210787
0.198317
0.186669
0.175798
0.165654
0.156188
0.14735
0.139091
0.131365
0.124125
0.117329
0.110936
0.104906
0.099203
0.0937939
0.0886468
0.0837325
0.0790243
0.0744973
0.070129
0.0658985
0.061787
0.0577771
0.0538532
0.050001
0.0462077
0.0424613
0.0387515
0.035068
0.0314035
0.0277466
0.0240969
0.0204335
0.0167783
0.0130686
0.0094125
0.00557783
0.00201137
-11.7757
-11.8598
-11.916
-12.0979
-12.5102
-13.2114
-14.1876
-15.3984
-16.8026
-18.3463
-19.9373
-21.4495
-22.7314
-23.6557
-24.0987
-23.978
-23.2816
-22.0627
-20.4253
-18.4997
-16.419
-14.3029
-12.2483
-10.3261
-8.58219
-7.03919
-5.7006
-4.55658
-3.58968
-2.77949
-2.10582
-1.55018
-1.0959
-0.727917
-0.432636
-0.197986
-0.0135034
0.129692
0.239042
0.32073
0.379879
0.420781
0.447011
0.461528
0.466806
0.464912
0.457564
0.446167
0.43186
0.415555
0.397968
0.379665
0.361083
0.342555
0.324337
0.306613
0.289517
0.27314
0.257538
0.242742
0.228762
0.215591
0.203213
0.191599
0.180717
0.17053
0.160995
0.152072
0.143717
0.135889
0.128545
0.121644
0.115149
0.109023
0.103229
0.097735
0.0925104
0.0875261
0.0827554
0.0781735
0.0737578
0.0694871
0.0653423
0.0613059
0.0573618
0.0534955
0.0496937
0.0459444
0.0422365
0.0385603
0.0349063
0.0312676
0.0276336
0.0240037
0.0203587
0.0167188
0.0130255
0.00937965
0.00556472
0.00199746
-11.8418
-11.9407
-12.0582
-12.2852
-12.7018
-13.3486
-14.2223
-15.2947
-16.5276
-17.8618
-19.2197
-20.5016
-21.5876
-22.3628
-22.7182
-22.5822
-21.9436
-20.8465
-19.3761
-17.6414
-15.7557
-13.8237
-11.9322
-10.1471
-8.51245
-7.05221
-5.77313
-4.66955
-3.72816
-2.93223
-2.26459
-1.70911
-1.25096
-0.876451
-0.573031
-0.329367
-0.135511
0.0170667
0.135571
0.22605
0.293549
0.342277
0.375778
0.397028
0.408511
0.412307
0.410158
0.403497
0.393496
0.381095
0.367046
0.351943
0.33625
0.320331
0.304464
0.288858
0.273668
0.259004
0.244941
0.231527
0.218785
0.206725
0.19534
0.184615
0.174528
0.165049
0.156148
0.147789
0.139936
0.132555
0.125608
0.119061
0.112879
0.10703
0.101482
0.096206
0.0911735
0.0863587
0.0817375
0.0772873
0.0729873
0.0688184
0.0647629
0.0608048
0.0569292
0.0531229
0.0493736
0.0456701
0.0420023
0.0383612
0.0347379
0.031126
0.0275158
0.0239067
0.0202807
0.0166568
0.0129805
0.00934549
0.00555097
0.0019831
-11.9037
-12.0228
-12.1815
-12.4344
-12.8424
-13.439
-14.2247
-15.1764
-16.2581
-17.4199
-18.5915
-19.6832
-20.5909
-21.2168
-21.4764
-21.3147
-20.721
-19.7283
-18.4044
-16.8391
-15.1288
-13.3644
-11.6237
-9.96695
-8.43623
-7.05607
-5.83579
-4.77316
-3.85846
-3.07825
-2.41814
-1.86423
-1.40343
-1.02343
-0.712711
-0.460687
-0.257957
-0.0963682
0.0310304
0.13011
0.205823
0.262322
0.303095
0.331093
0.348811
0.35835
0.361465
0.359613
0.353993
0.345577
0.335143
0.323316
0.310588
0.297348
0.283899
0.270474
0.257248
0.244353
0.231879
0.219893
0.208432
0.197521
0.187165
0.177361
0.168097
0.159354
0.151109
0.143335
0.136005
0.129088
0.122554
0.116374
0.110517
0.104957
0.0996644
0.0946142
0.0897815
0.0851432
0.0806775
0.0763643
0.0721848
0.0681217
0.0641592
0.0602826
0.0564785
0.0527347
0.04904
0.0453843
0.0417582
0.0381537
0.0345623
0.0309785
0.027393
0.0238056
0.0201995
0.0165922
0.0129337
0.00930991
0.00553647
0.00196822
-11.9537
-12.0875
-12.2694
-12.5363
-12.9319
-13.4813
-14.1851
-15.0239
-15.9659
-16.9659
-17.9619
-18.8785
-19.6309
-20.1378
-20.3282
-20.1539
-19.6032
-18.702
-17.5062
-16.0907
-14.5376
-12.9255
-11.3235
-9.78658
-8.35434
-7.05141
-5.88895
-4.86751
-3.98047
-3.21729
-2.56613
-2.01514
-1.55293
-1.16849
-0.851326
-0.591632
-0.380566
-0.210373
-0.0743821
0.0330908
0.116867
0.181032
0.229035
0.26379
0.287771
0.303088
0.31152
0.314541
0.313373
0.309013
0.302268
0.293791
0.284099
0.273607
0.262642
0.25146
0.240257
0.229183
0.218349
0.207836
0.1977
0.187976
0.178684
0.169833
0.161422
0.153441
0.145877
0.13871
0.131921
0.125485
0.11938
0.11358
0.108062
0.102801
0.0977744
0.0929591
0.0883341
0.0838792
0.0795752
0.0754044
0.0713502
0.0673973
0.0635315
0.0597396
0.0560097
0.0523309
0.0486931
0.0450871
0.0415044
0.0379378
0.0343798
0.030825
0.0272653
0.0237004
0.020115
0.016525
0.0128849
0.00927298
0.00552133
0.00195288
-11.9954
-12.1412
-12.3375
-12.6094
-12.9874
-13.4902
-14.1185
-14.8561
-15.6748
-16.5346
-17.3816
-18.1511
-18.7707
-19.1712
-19.2942
-19.101
-18.5825
-17.7589
-16.6749
-15.3924
-13.9801
-12.5064
-11.0319
-9.60662
-8.26752
-7.03883
-5.93298
-4.95276
-4.09414
-3.34917
-2.70826
-2.1615
-1.69907
-1.31125
-0.988525
-0.721884
-0.503054
-0.3247
-0.180451
-0.0648308
0.0268422
0.0985576
0.153711
0.19519
0.22545
0.246583
0.260372
0.268317
0.271661
0.271425
0.26844
0.26338
0.256792
0.249115
0.240698
0.231818
0.222695
0.213496
0.204351
0.195357
0.186586
0.178088
0.169896
0.162031
0.154501
0.147309
0.140449
0.133911
0.127682
0.121746
0.116084
0.11068
0.105512
0.100562
0.0958107
0.0912394
0.0868299
0.0825653
0.0784293
0.0744064
0.0704824
0.0666439
0.0628785
0.0591748
0.0555221
0.0519109
0.0483321
0.0447778
0.0412404
0.0377133
0.0341898
0.0306654
0.0271325
0.023591
0.0200271
0.0164551
0.0128341
0.00923454
0.00550541
0.001937
-12.0232
-12.1762
-12.378
-12.6463
-13.0024
-13.46
-14.0186
-14.6641
-15.3714
-16.105
-16.8183
-17.4561
-17.9585
-18.2683
-18.3371
-18.1326
-17.6456
-16.8912
-15.9061
-14.7412
-13.4553
-12.1068
-10.7494
-9.42785
-8.17656
-7.01901
-5.96836
-5.02914
-4.19951
-3.47374
-2.84429
-2.303
-1.84151
-1.45134
-1.12397
-0.851121
-0.625131
-0.439093
-0.286952
-0.163459
-0.0640892
0.0150411
0.0772575
0.125404
0.161919
0.188883
0.208071
0.220988
0.228896
0.232841
0.233676
0.232101
0.228682
0.223881
0.218073
0.211554
0.204565
0.197293
0.189885
0.182456
0.175092
0.167858
0.160801
0.153952
0.147334
0.140956
0.134824
0.128937
0.123288
0.117868
0.112667
0.107671
0.102867
0.0982393
0.0937736
0.0894551
0.0852692
0.0812021
0.0772402
0.0733709
0.0695819
0.0658622
0.062201
0.0585887
0.0550162
0.051475
0.0479576
0.0444569
0.0409664
0.0374803
0.0339927
0.0304997
0.0269947
0.0234774
0.0199358
0.0163826
0.0127815
0.00919473
0.00548886
0.00192068
-12.0409
-12.197
-12.3987
-12.6584
-12.9907
-13.4048
-13.8991
-14.4613
-15.0693
-15.6919
-16.2891
-16.814
-17.2164
-17.4481
-17.4688
-17.2518
-16.7895
-16.094
-15.1948
-14.1343
-12.9614
-11.7264
-10.4762
-9.25091
-8.08224
-6.9926
-5.99556
-5.09693
-4.29665
-3.59092
-2.974
-2.43933
-1.97993
-1.58845
-1.25731
-0.979027
-0.746504
-0.553287
-0.393652
-0.26259
-0.155749
-0.069366
-0.000195684
0.0545538
0.0972846
0.130065
0.154666
0.172594
0.185119
0.193298
0.198009
0.199974
0.199784
0.197921
0.194779
0.190677
0.185875
0.18058
0.174957
0.169136
0.163219
0.157287
0.151398
0.145599
0.139919
0.134383
0.129003
0.123787
0.118737
0.113852
0.109127
0.104554
0.100125
0.0958314
0.0916614
0.0876047
0.0836504
0.0797879
0.0760065
0.0722962
0.0686474
0.0650507
0.0614977
0.0579802
0.0544908
0.0510224
0.0475687
0.0441237
0.0406818
0.0372383
0.033788
0.0303277
0.0268515
0.0233595
0.0198411
0.0163073
0.0127267
0.00915335
0.00547151
0.00190381
-12.0441
-12.1997
-12.3965
-12.6433
-12.9496
-13.3214
-13.7562
-14.2429
-14.7619
-15.286
-15.781
-16.207
-16.5222
-16.6866
-16.6669
-16.4411
-16.0022
-15.3594
-14.5366
-13.5687
-12.497
-11.3647
-10.2126
-9.07646
-7.98529
-6.96031
-6.01511
-5.15646
-4.38572
-3.7007
-3.09727
-2.57029
-2.11403
-1.72224
-1.38824
-1.10529
-0.866879
-0.667013
-0.500308
-0.362009
-0.24795
-0.1545
-0.0785076
-0.0172426
0.0316565
0.0702313
0.10024
0.123194
0.140368
0.15283
0.161472
0.167033
0.170125
0.171252
0.170831
0.169199
0.166636
0.163366
0.159572
0.155402
0.150972
0.146378
0.141692
0.136972
0.132261
0.127591
0.122987
0.118464
0.114033
0.109699
0.105465
0.101329
0.0972892
0.09334
0.0894758
0.0856899
0.0819752
0.0783244
0.0747298
0.0711841
0.0676802
0.0642109
0.0607698
0.0573505
0.0539471
0.050554
0.0471662
0.0437788
0.0403873
0.0369878
0.0335762
0.0301496
0.0267034
0.0232374
0.019743
0.0162294
0.0126701
0.00911061
0.00545354
0.00188656
-12.0367
-12.1888
-12.3772
-12.6081
-12.8875
-13.2189
-13.5989
-14.0174
-14.4572
-14.8946
-15.3004
-15.641
-15.8814
-15.9884
-15.9341
-15.7004
-15.2813
-14.684
-13.928
-13.042
-12.0609
-11.0213
-9.95878
-8.90506
-7.88644
-6.92282
-6.02759
-5.20811
-4.46689
-3.80311
-3.21398
-2.69565
-2.24355
-1.85241
-1.51644
-1.2296
-0.985965
-0.78
-0.606672
-0.461493
-0.340494
-0.240188
-0.157527
-0.0898528
-0.0348547
0.00947781
0.0448863
0.072871
0.0947096
0.111484
0.124098
0.133304
0.139731
0.143902
0.146252
0.147139
0.146861
0.145662
0.143741
0.141261
0.138357
0.135136
0.131686
0.128075
0.124359
0.120582
0.116776
0.112966
0.109173
0.105408
0.10168
0.0979954
0.0943562
0.090763
0.0872146
0.0837085
0.0802413
0.0768092
0.0734078
0.0700323
0.0666783
0.0633409
0.0600156
0.056698
0.0533836
0.0500686
0.046749
0.0434213
0.040082
0.0367281
0.0333565
0.029965
0.0265498
0.0231109
0.0196413
0.0161486
0.0126113
0.00906622
0.00543473
0.00186874
-12.0153
-12.1613
-12.3388
-12.5519
-12.8041
-13.0967
-13.4263
-13.7832
-14.1524
-14.5135
-14.8414
-15.1079
-15.2839
-15.3416
-15.2582
-15.0187
-14.6178
-14.0611
-13.3645
-12.5516
-11.6515
-10.6957
-9.71496
-8.73726
-7.78638
-6.88083
-6.03356
-5.25231
-4.54043
-3.89823
-3.32409
-2.81529
-2.36828
-1.97872
-1.64162
-1.35166
-1.10347
-0.891975
-0.712492
-0.560812
-0.433174
-0.326245
-0.237091
-0.163135
-0.102124
-0.0520867
-0.0113071
0.0217036
0.0482216
0.06933
0.0859433
0.0988296
0.108635
0.115896
0.121064
0.124517
0.126571
0.127485
0.127478
0.126728
0.125385
0.123572
0.121388
0.118915
0.116222
0.113361
0.110376
0.107301
0.104163
0.100983
0.0977776
0.0945576
0.0913316
0.0881053
0.0848824
0.0816648
0.0784529
0.0752465
0.0720442
0.0688444
0.065645
0.0624437
0.0592378
0.056025
0.0528025
0.0495679
0.0463187
0.0430526
0.0397672
0.0364604
0.0331301
0.0297746
0.0263914
0.0229805
0.0195365
0.0160653
0.0125508
0.00902054
0.00541542
0.00185052
-11.9841
-12.1219
-12.2865
-12.4803
-12.7053
-12.9612
-13.2443
-13.5457
-13.8522
-14.1461
-14.4062
-14.6088
-14.7295
-14.7454
-14.6376
-14.3935
-14.0088
-13.4878
-12.8434
-12.0952
-11.2677
-10.3875
-9.48123
-8.57354
-7.68577
-6.835
-6.03363
-5.2895
-4.60663
-3.9862
-3.4276
-2.92909
-2.48802
-2.10091
-1.76353
-1.4712
-1.21912
-1.00267
-0.817513
-0.65973
-0.525775
-0.412477
-0.317026
-0.236935
-0.170016
-0.114345
-0.0682348
-0.0302166
0.000977933
0.0264338
0.0470719
0.0636699
0.0768849
0.0872715
0.0952979
0.101359
0.105785
0.108853
0.110798
0.111814
0.112067
0.111693
0.110805
0.109499
0.107852
0.105931
0.103788
0.101466
0.0990021
0.0964238
0.0937545
0.0910121
0.0882112
0.0853626
0.082475
0.0795545
0.0766057
0.0736319
0.070635
0.0676164
0.0645767
0.0615157
0.0584333
0.0553288
0.0522013
0.0490498
0.0458735
0.042671
0.0394413
0.0361832
0.0328956
0.0295776
0.0262275
0.0228454
0.019428
0.015979
0.012488
0.00897311
0.00539527
0.00183146
-11.9403
-12.0683
-12.2188
-12.3929
-12.5911
-12.8126
-13.0531
-13.3046
-13.5555
-13.7905
-13.9918
-14.1392
-14.2127
-14.1931
-14.0649
-13.8177
-13.4479
-12.9588
-12.3609
-11.6705
-10.908
-10.0961
-9.25762
-8.41431
-7.58523
-6.78601
-6.02838
-5.32017
-4.66582
-4.06721
-3.52457
-3.03699
-2.60263
-2.21878
-1.8819
-1.58794
-1.33264
-1.11181
-0.921479
-0.758008
-0.618074
-0.498682
-0.397149
-0.311089
-0.238385
-0.177166
-0.125783
-0.0827903
-0.0469316
-0.0171264
0.00754876
0.0278793
0.044534
0.0580799
0.0689992
0.0777015
0.0845341
0.0897914
0.093723
0.0965401
0.0984209
0.0995158
0.0999525
0.0998385
0.099264
0.0983048
0.0970243
0.0954755
0.0937023
0.0917412
0.0896223
0.0873706
0.0850061
0.0825456
0.0800023
0.0773871
0.0747086
0.0719738
0.0691881
0.0663556
0.0634798
0.0605631
0.0576075
0.0546141
0.0515842
0.0485182
0.0454165
0.0422794
0.0391069
0.0358989
0.0326551
0.0293754
0.0260593
0.0227068
0.0193167
0.0158906
0.0124238
0.00892458
0.00537495
0.00181167
-11.8878
-12.0048
-12.1402
-12.2942
-12.4666
-12.6556
-12.8571
-13.0637
-13.2653
-13.4487
-13.5988
-13.6988
-13.7319
-13.6824
-13.5373
-13.2882
-12.9319
-12.4712
-11.9147
-11.2757
-10.5714
-9.82094
-9.04416
-8.25996
-7.48532
-6.73449
-6.01843
-5.34482
-4.71836
-4.14149
-3.6151
-3.13898
-2.71201
-2.33216
-1.99652
-1.70165
-1.44377
-1.21914
-1.02413
-0.855402
-0.709846
-0.58465
-0.477269
-0.385422
-0.307073
-0.24041
-0.183826
-0.135906
-0.0954094
-0.0612647
-0.0325492
-0.00847276
0.0116406
0.0283693
0.0422088
0.0535832
0.0628546
0.0703321
0.0762807
0.0809265
0.0844622
0.0870528
0.0888391
0.0899408
0.0904599
0.0904831
0.090084
0.0893248
0.0882582
0.0869287
0.0853736
0.0836244
0.0817074
0.0796449
0.0774551
0.0751534
0.0727527
0.0702637
0.0676951
0.0650543
0.0623474
0.0595793
0.0567543
0.0538757
0.0509464
0.0479685
0.044944
0.0418745
0.038761
0.0356047
0.0324062
0.0291662
0.0258852
0.0225634
0.0192015
0.0157989
0.0123572
0.00887409
0.00535387
0.00179039
-11.8247
-11.93
-12.0499
-12.1841
-12.3317
-12.4906
-12.6566
-12.8231
-12.9811
-13.1195
-13.2254
-13.2848
-13.2836
-13.2088
-13.05
-12.8001
-12.4565
-12.0213
-11.5016
-10.9085
-10.2564
-9.56151
-8.8408
-8.11081
-7.38659
-6.68105
-6.00437
-5.36396
-4.76466
-4.20931
-3.69932
-3.23509
-2.8161
-2.4409
-2.10721
-1.81209
-1.55227
-1.32441
-1.12523
-0.951669
-0.800858
-0.670163
-0.557184
-0.45975
-0.375913
-0.303925
-0.242228
-0.189441
-0.144346
-0.105883
-0.0731353
-0.0453107
-0.0217275
-0.00179839
0.014983
0.0290533
0.0407884
0.0505125
0.0585048
0.065006
0.0702232
0.0743347
0.0774942
0.079834
0.0814676
0.0824928
0.082993
0.0830401
0.0826953
0.0820111
0.0810323
0.0797969
0.0783375
0.0766819
0.0748536
0.0728725
0.0707558
0.068518
0.0661713
0.0637263
0.061192
0.0585757
0.0558842
0.0531227
0.050296
0.0474082
0.0444625
0.0414618
0.0384086
0.035305
0.0321527
0.0289531
0.025708
0.0224175
0.0190842
0.0157058
0.0122896
0.00882291
0.00533305
0.0017684
-11.7543
-11.8474
-11.9516
-12.0664
-12.1904
-12.3212
-12.4549
-12.5854
-12.705
-12.804
-12.8717
-12.8962
-12.8659
-12.7701
-12.6002
-12.3504
-12.0185
-11.6063
-11.1195
-10.5674
-9.9621
-9.31727
-8.64749
-7.96713
-7.28953
-6.62627
-5.98678
-5.37812
-4.80514
-4.27096
-3.77742
-3.32538
-2.91485
-2.54492
-2.2138
-1.91907
-1.65791
-1.42737
-1.22452
-1.04657
-0.890876
-0.755
-0.636686
-0.53388
-0.444726
-0.367548
-0.300841
-0.243262
-0.193621
-0.150875
-0.114114
-0.082549
-0.0554949
-0.0323579
-0.0126223
0.00415997
0.0183777
0.0303682
0.0404246
0.0488016
0.0557198
0.0613713
0.0659225
0.069518
0.0722829
0.0743257
0.0757401
0.0766073
0.0769973
0.0769706
0.0765792
0.0758681
0.0748761
0.0736364
0.0721778
0.0705251
0.0686994
0.0667193
0.0646005
0.0623567
0.0599997
0.0575397
0.0549855
0.0523447
0.0496239
0.0468288
0.0439644
0.0410348
0.0380439
0.0349947
0.0318902
0.0287325
0.0255243
0.0222661
0.0189626
0.015609
0.0122193
0.00876947
0.00531112
0.0017449
-11.6758
-11.7564
-11.8451
-11.9412
-12.0429
-12.148
-12.2524
-12.351
-12.4367
-12.5016
-12.5363
-12.5311
-12.4763
-12.3631
-12.1844
-11.9355
-11.6146
-11.2231
-10.7659
-10.2506
-9.6873
-9.08764
-8.4641
-7.82916
-7.19457
-6.57072
-5.96625
-5.38782
-4.84024
-4.32679
-3.84961
-3.40997
-3.0083
-2.64413
-2.31616
-2.02241
-1.76048
-1.5278
-1.32176
-1.13985
-0.979665
-0.838933
-0.715558
-0.607609
-0.513325
-0.431105
-0.359504
-0.297223
-0.243102
-0.196119
-0.155376
-0.120089
-0.0895723
-0.0632277
-0.0405321
-0.0210277
-0.00431432
0.00995798
0.0220955
0.032366
0.0410037
0.0482135
0.0541745
0.059043
0.0629557
0.0660317
0.0683749
0.0700756
0.0712126
0.0718544
0.0720606
0.0718827
0.0713659
0.0705491
0.0694664
0.0681472
0.0666171
0.0648986
0.063011
0.0609712
0.0587941