/*--------------------------------*- C++ -*----------------------------------*\
  =========                 |
  \\      /  F ield         | OpenFOAM: The Open Source CFD Toolbox
   \\    /   O peration     | Website:  https://openfoam.org
    \\  /    A nd           | Version:  10
     \\/     M anipulation  |
\*---------------------------------------------------------------------------*/
FoamFile
{
    format      ascii;
    class       surfaceScalarField;
    location    "0.025";
    object      phi;
}
// * * * * * * * * * * * * * * * * * * * * * * * * * * * * * * * * * * * * * //

dimensions      [0 3 -1 0 0 0 0];

internalField   nonuniform List<scalar> 
13452
(
5.94578e-05
8.10685e-07
5.84884e-05
9.69371e-07
5.74853e-05
1.00307e-06
5.64619e-05
1.02344e-06
5.54473e-05
1.01465e-06
5.44539e-05
9.93348e-07
5.34866e-05
9.67291e-07
5.25488e-05
9.37846e-07
5.16429e-05
9.05834e-07
5.07712e-05
8.71771e-07
4.99354e-05
8.35809e-07
4.91374e-05
7.97958e-07
4.83792e-05
7.58165e-07
4.76629e-05
7.16346e-07
4.69905e-05
6.7241e-07
4.63642e-05
6.26288e-07
4.57862e-05
5.77956e-07
4.52588e-05
5.27459e-07
4.47838e-05
4.74949e-07
4.43631e-05
4.20691e-07
4.3998e-05
3.65117e-07
4.36892e-05
3.08839e-07
4.34365e-05
2.52669e-07
4.32388e-05
1.97691e-07
4.30935e-05
1.45287e-07
4.29965e-05
9.70145e-08
4.29415e-05
5.49811e-08
4.29186e-05
2.29024e-08
4.29152e-05
3.45842e-09
4.29185e-05
-3.31906e-09
4.29152e-05
3.26767e-09
4.288e-05
3.52233e-08
1.06775e-07
4.27732e-05
6.24887e-05
3.12281e-07
6.29641e-05
4.94037e-07
6.34122e-05
5.5497e-07
6.38239e-05
6.11674e-07
6.41923e-05
6.46277e-07
6.45175e-05
6.68189e-07
6.48014e-05
6.83379e-07
6.50469e-05
6.92314e-07
6.52573e-05
6.95456e-07
6.54357e-05
6.93333e-07
6.55854e-05
6.86184e-07
6.57092e-05
6.74121e-07
6.58101e-05
6.57209e-07
6.5891e-05
6.35488e-07
6.59544e-05
6.08987e-07
6.6003e-05
5.77767e-07
6.6039e-05
5.41942e-07
6.60647e-05
5.01714e-07
6.60822e-05
4.57417e-07
6.60934e-05
4.09519e-07
6.60998e-05
3.58692e-07
6.61029e-05
3.05825e-07
6.61035e-05
2.5201e-07
6.61026e-05
1.98651e-07
6.61004e-05
1.47456e-07
6.60972e-05
1.00244e-07
6.60929e-05
5.92685e-08
6.60878e-05
2.793e-08
6.60826e-05
8.67576e-09
6.60765e-05
2.8232e-09
6.60664e-05
1.3393e-08
6.60543e-05
4.72623e-08
1.11135e-07
6.605e-05
6.38364e-05
2.37291e-07
6.39172e-05
4.13183e-07
6.39944e-05
4.77798e-07
6.40768e-05
5.29309e-07
6.41632e-05
5.59878e-07
6.42553e-05
5.76026e-07
6.43539e-05
5.84803e-07
6.44586e-05
5.87639e-07
6.45688e-05
5.85282e-07
6.46836e-05
5.78461e-07
6.48023e-05
5.67559e-07
6.49236e-05
5.52759e-07
6.50467e-05
5.34171e-07
6.51703e-05
5.1186e-07
6.52934e-05
4.85868e-07
6.54149e-05
4.56257e-07
6.55337e-05
4.2313e-07
6.56488e-05
3.86661e-07
6.57591e-05
3.4715e-07
6.58636e-05
3.04982e-07
6.59616e-05
2.60733e-07
6.60522e-05
2.1516e-07
6.61351e-05
1.69147e-07
6.62098e-05
1.2391e-07
6.62764e-05
8.0863e-08
6.63352e-05
4.14431e-08
6.63872e-05
7.31763e-09
6.64336e-05
-1.8477e-08
6.64774e-05
-3.51705e-08
6.65203e-05
-4.00556e-08
6.65638e-05
-3.01139e-08
6.661e-05
1.08467e-09
5.41883e-08
6.66669e-05
6.56424e-05
1.77939e-07
6.57e-05
3.5556e-07
6.57455e-05
4.32347e-07
6.57872e-05
4.87558e-07
6.58262e-05
5.20974e-07
6.58641e-05
5.38046e-07
6.59027e-05
5.46244e-07
6.59426e-05
5.47708e-07
6.59845e-05
5.43362e-07
6.60289e-05
5.34083e-07
6.60761e-05
5.20401e-07
6.61262e-05
5.02614e-07
6.61795e-05
4.8093e-07
6.62358e-05
4.55511e-07
6.62952e-05
4.26488e-07
6.63574e-05
3.94008e-07
6.64223e-05
3.58257e-07
6.64895e-05
3.19474e-07
6.65586e-05
2.78039e-07
6.66292e-05
2.34355e-07
6.67009e-05
1.89032e-07
6.67733e-05
1.42831e-07
6.68459e-05
9.65436e-08
6.69184e-05
5.13605e-08
6.69907e-05
8.58421e-09
6.70628e-05
-3.06969e-08
6.71346e-05
-6.44399e-08
6.72068e-05
-9.06499e-08
6.72795e-05
-1.07926e-07
6.73533e-05
-1.13856e-07
6.74293e-05
-1.06063e-07
6.75094e-05
-7.90065e-08
-3.5258e-08
6.75988e-05
6.74923e-05
1.42387e-07
6.75389e-05
3.09025e-07
6.75823e-05
3.88882e-07
6.76266e-05
4.4334e-07
6.767e-05
4.77526e-07
6.77126e-05
4.95426e-07
6.77553e-05
5.03605e-07
6.77985e-05
5.04498e-07
6.78427e-05
4.9914e-07
6.78883e-05
4.88465e-07
6.79356e-05
4.73091e-07
6.79848e-05
4.53385e-07
6.80362e-05
4.29609e-07
6.80897e-05
4.01984e-07
6.81455e-05
3.7069e-07
6.82036e-05
3.35928e-07
6.82639e-05
2.97928e-07
6.83264e-05
2.56971e-07
6.83909e-05
2.1351e-07
6.84574e-05
1.67931e-07
6.85255e-05
1.20896e-07
6.85951e-05
7.32302e-08
6.86661e-05
2.55333e-08
6.87383e-05
-2.08598e-08
6.88117e-05
-6.48181e-08
6.88861e-05
-1.05114e-07
6.89619e-05
-1.40191e-07
6.90396e-05
-1.68315e-07
6.91196e-05
-1.87984e-07
6.92029e-05
-1.97158e-07
6.92908e-05
-1.9393e-07
6.93862e-05
-1.74453e-07
-1.40383e-07
6.94914e-05
6.94136e-05
1.1285e-07
6.94578e-05
2.64791e-07
6.95002e-05
3.46518e-07
6.95423e-05
4.01241e-07
6.95836e-05
4.36163e-07
6.96245e-05
4.54556e-07
6.96658e-05
4.62261e-07
6.97083e-05
4.62086e-07
6.97521e-05
4.55272e-07
6.97978e-05
4.42826e-07
6.98454e-05
4.25447e-07
6.98952e-05
4.03578e-07
6.99473e-05
3.77529e-07
7.00017e-05
3.47573e-07
7.00585e-05
3.13929e-07
7.01175e-05
2.76848e-07
7.01789e-05
2.36593e-07
7.02424e-05
1.93457e-07
7.03079e-05
1.47989e-07
7.03753e-05
1.00507e-07
7.04446e-05
5.16688e-08
7.05153e-05
2.49911e-09
7.05877e-05
-4.69111e-08
7.06617e-05
-9.48286e-08
7.07373e-05
-1.40453e-07
7.08148e-05
-1.82589e-07
7.08945e-05
-2.19896e-07
7.09771e-05
-2.50917e-07
7.10635e-05
-2.74337e-07
7.11549e-05
-2.8854e-07
7.12531e-05
-2.92136e-07
7.13612e-05
-2.8254e-07
-2.61163e-07
7.14819e-05
7.13868e-05
9.23879e-08
7.14222e-05
2.29428e-07
7.14591e-05
3.09542e-07
7.14982e-05
3.62211e-07
7.15385e-05
3.95809e-07
7.15796e-05
4.13453e-07
7.16218e-05
4.20109e-07
7.16653e-05
4.18603e-07
7.17103e-05
4.10248e-07
7.17571e-05
3.96043e-07
7.18058e-05
3.76722e-07
7.18566e-05
3.52771e-07
7.19096e-05
3.24543e-07
7.19648e-05
2.92352e-07
7.20223e-05
2.56445e-07
7.2082e-05
2.17116e-07
7.2144e-05
1.74651e-07
7.22081e-05
1.29337e-07
7.22742e-05
8.18388e-08
7.23424e-05
3.23437e-08
7.24124e-05
-1.83548e-08
7.24844e-05
-6.953e-08
7.25582e-05
-1.20679e-07
7.2634e-05
-1.70625e-07
7.2712e-05
-2.18473e-07
7.27926e-05
-2.63196e-07
7.28764e-05
-3.03672e-07
7.29642e-05
-3.38719e-07
7.30571e-05
-3.67249e-07
7.31567e-05
-3.8806e-07
7.32647e-05
-4.00216e-07
7.33844e-05
-4.02217e-07
-3.95303e-07
7.35185e-05
7.34213e-05
7.63822e-08
7.3453e-05
1.97671e-07
7.34889e-05
2.73719e-07
7.35273e-05
3.23797e-07
7.35672e-05
3.55907e-07
7.36078e-05
3.72797e-07
7.36494e-05
3.78493e-07
7.36924e-05
3.75695e-07
7.37368e-05
3.65789e-07
7.37831e-05
3.498e-07
7.38313e-05
3.285e-07
7.38816e-05
3.02425e-07
7.39342e-05
2.71962e-07
7.39891e-05
2.37479e-07
7.40463e-05
1.99244e-07
7.41058e-05
1.57602e-07
7.41676e-05
1.12843e-07
7.42318e-05
6.51716e-08
7.42979e-05
1.56748e-08
7.43663e-05
-3.6072e-08
7.44369e-05
-8.89417e-08
7.45098e-05
-1.424e-07
7.45849e-05
-1.95795e-07
7.46625e-05
-2.48247e-07
7.4743e-05
-2.98922e-07
7.48267e-05
-3.46945e-07
7.49145e-05
-3.91399e-07
7.50071e-05
-4.31368e-07
7.51059e-05
-4.66037e-07
7.52125e-05
-4.94613e-07
7.53288e-05
-5.16594e-07
7.54579e-05
-5.31283e-07
-5.39907e-07
7.56025e-05
7.55148e-05
6.4009e-08
7.55418e-05
1.70757e-07
7.55738e-05
2.41704e-07
7.5609e-05
2.8856e-07
7.56466e-05
3.18298e-07
7.56859e-05
3.33523e-07
7.57268e-05
3.37591e-07
7.57694e-05
3.33041e-07
7.58139e-05
3.21286e-07
7.58604e-05
3.03336e-07
7.59089e-05
2.79966e-07
7.59596e-05
2.51734e-07
7.60126e-05
2.1904e-07
7.60677e-05
1.8229e-07
7.61252e-05
1.41758e-07
7.6185e-05
9.78176e-08
7.6247e-05
5.0836e-08
7.63117e-05
5.03384e-10
7.63784e-05
-5.1035e-08
7.64474e-05
-1.05081e-07
7.65188e-05
-1.60289e-07
7.65926e-05
-2.16201e-07
7.6669e-05
-2.72198e-07
7.67483e-05
-3.27553e-07
7.68309e-05
-3.81543e-07
7.69174e-05
-4.33454e-07
7.70086e-05
-4.82575e-07
7.71054e-05
-5.28243e-07
7.72093e-05
-5.69915e-07
7.73219e-05
-6.07154e-07
7.74451e-05
-6.39827e-07
7.75817e-05
-6.67841e-07
-6.92491e-07
7.77342e-05
7.76695e-05
5.4037e-08
7.76932e-05
1.47073e-07
7.77233e-05
2.11654e-07
7.77574e-05
2.54472e-07
7.77944e-05
2.81294e-07
7.78334e-05
2.94518e-07
7.78741e-05
2.96856e-07
7.79166e-05
2.90559e-07
7.79609e-05
2.76988e-07
7.80071e-05
2.57119e-07
7.80554e-05
2.31713e-07
7.81058e-05
2.01349e-07
7.81584e-05
1.66431e-07
7.82132e-05
1.27404e-07
7.82704e-05
8.45652e-08
7.83299e-05
3.8315e-08
7.83918e-05
-1.10056e-08
7.84557e-05
-6.34322e-08
7.85224e-05
-1.17687e-07
7.85914e-05
-1.7409e-07
7.8663e-05
-2.31863e-07
7.87372e-05
-2.90481e-07
7.88144e-05
-3.49412e-07
7.88949e-05
-4.08052e-07
7.89792e-05
-4.6581e-07
7.90679e-05
-5.22124e-07
7.91618e-05
-5.76476e-07
7.9262e-05
-6.28428e-07
7.93697e-05
-6.77686e-07
7.94867e-05
-7.24114e-07
7.96148e-05
-7.67877e-07
7.97562e-05
-8.09302e-07
-8.49703e-07
7.99134e-05
7.98866e-05
4.5799e-08
7.99073e-05
1.26319e-07
7.99348e-05
1.84137e-07
7.99667e-05
2.22623e-07
8.00017e-05
2.46227e-07
8.00392e-05
2.57057e-07
8.00787e-05
2.57316e-07
8.01203e-05
2.48981e-07
8.01639e-05
2.33361e-07
8.02097e-05
2.114e-07
8.02575e-05
1.83846e-07
8.03076e-05
1.51289e-07
8.03599e-05
1.14135e-07
8.04145e-05
7.28195e-08
8.04714e-05
2.75925e-08
8.05308e-05
-2.10398e-08
8.05926e-05
-7.27823e-08
8.06566e-05
-1.27457e-07
8.07232e-05
-1.84322e-07
8.07924e-05
-2.43251e-07
8.08643e-05
-3.03723e-07
8.0939e-05
-3.65249e-07
8.1017e-05
-4.27366e-07
8.10985e-05
-4.89587e-07
8.11842e-05
-5.51447e-07
8.12746e-05
-6.12533e-07
8.13706e-05
-6.725e-07
8.14733e-05
-7.3111e-07
8.15839e-05
-7.88282e-07
8.17039e-05
-8.44118e-07
8.1835e-05
-8.99009e-07
8.19793e-05
-9.53568e-07
-1.0091e-06
8.21387e-05
8.21674e-05
3.88141e-08
8.21859e-05
1.07876e-07
8.22114e-05
1.58608e-07
8.22417e-05
1.92299e-07
8.22757e-05
2.12252e-07
8.23125e-05
2.20293e-07
8.23516e-05
2.18216e-07
8.23928e-05
2.07717e-07
8.24362e-05
1.89999e-07
8.24816e-05
1.65948e-07
8.25292e-05
1.36271e-07
8.2579e-05
1.01535e-07
8.2631e-05
6.21544e-08
8.26851e-05
1.86731e-08
8.27415e-05
-2.8823e-08
8.28003e-05
-7.97787e-08
8.28614e-05
-1.3393e-07
8.29249e-05
-1.9098e-07
8.2991e-05
-2.50423e-07
8.30598e-05
-3.11991e-07
8.31313e-05
-3.75279e-07
8.32059e-05
-4.39866e-07
8.32839e-05
-5.05363e-07
8.33657e-05
-5.71388e-07
8.34519e-05
-6.37593e-07
8.3543e-05
-7.03699e-07
8.36401e-05
-7.69512e-07
8.37439e-05
-8.34956e-07
8.38557e-05
-9.00121e-07
8.39769e-05
-9.65281e-07
8.41089e-05
-1.03097e-06
8.42533e-05
-1.09797e-06
-1.16748e-06
8.44117e-05
8.45138e-05
3.27561e-08
8.45303e-05
9.13639e-08
8.4554e-05
1.35001e-07
8.45825e-05
1.63725e-07
8.46149e-05
1.79866e-07
8.46503e-05
1.84925e-07
8.46882e-05
1.80345e-07
8.47283e-05
1.67551e-07
8.47707e-05
1.47632e-07
8.48152e-05
1.21415e-07
8.48619e-05
8.95823e-08
8.49107e-05
5.26941e-08
8.49619e-05
1.09862e-08
8.50153e-05
-3.47495e-08
8.5071e-05
-8.453e-08
8.51291e-05
-1.37826e-07
8.51895e-05
-1.94373e-07
8.52524e-05
-2.53866e-07
8.53179e-05
-3.15906e-07
8.53861e-05
-3.80194e-07
8.54572e-05
-4.46392e-07
8.55315e-05
-5.14152e-07
8.56093e-05
-5.83157e-07
8.5691e-05
-6.53119e-07
8.57772e-05
-7.23798e-07
8.58686e-05
-7.95028e-07
8.59658e-05
-8.66739e-07
8.60698e-05
-9.38985e-07
8.61817e-05
-1.01198e-06
8.63025e-05
-1.08611e-06
8.64335e-05
-1.162e-06
8.65761e-05
-1.2405e-06
-1.32268e-06
8.67313e-05
8.69275e-05
2.74047e-08
8.69424e-05
7.64469e-08
8.69643e-05
1.13087e-07
8.69914e-05
1.36688e-07
8.70224e-05
1.48805e-07
8.70567e-05
1.50637e-07
8.70937e-05
1.43343e-07
8.71332e-05
1.2811e-07
8.71749e-05
1.05903e-07
8.72188e-05
7.74735e-08
8.7265e-05
4.34352e-08
8.73132e-05
4.48271e-09
8.73636e-05
-3.94284e-08
8.74163e-05
-8.73824e-08
8.74711e-05
-1.3937e-07
8.75282e-05
-1.94956e-07
8.75877e-05
-2.53847e-07
8.76496e-05
-3.15758e-07
8.7714e-05
-3.80359e-07
8.77812e-05
-4.47361e-07
8.78513e-05
-5.16481e-07
8.79246e-05
-5.87435e-07
8.80014e-05
-6.59977e-07
8.80822e-05
-7.339e-07
8.81674e-05
-8.09052e-07
8.82578e-05
-8.85361e-07
8.83539e-05
-9.62853e-07
8.84566e-05
-1.04167e-06
8.85667e-05
-1.12212e-06
8.86852e-05
-1.20463e-06
8.88131e-05
-1.28986e-06
8.89513e-05
-1.37865e-06
-1.47189e-06
8.91005e-05
8.94103e-05
2.26065e-08
8.94239e-05
6.28703e-08
8.94443e-05
9.27219e-08
8.94698e-05
1.11172e-07
8.94994e-05
1.19192e-07
8.95323e-05
1.17698e-07
8.95681e-05
1.07603e-07
8.96063e-05
8.98801e-08
8.96469e-05
6.53664e-08
8.96896e-05
3.47422e-08
8.97345e-05
-1.44412e-09
8.97816e-05
-4.26141e-08
8.98307e-05
-8.85822e-08
8.98821e-05
-1.38742e-07
8.99356e-05
-1.92911e-07
8.99914e-05
-2.50749e-07
9.00495e-05
-3.11957e-07
9.011e-05
-3.76273e-07
9.01731e-05
-4.43411e-07
9.02388e-05
-5.13114e-07
9.03075e-05
-5.85144e-07
9.03793e-05
-6.59275e-07
9.04547e-05
-7.35323e-07
9.05339e-05
-8.13146e-07
9.06175e-05
-8.92668e-07
9.07061e-05
-9.73886e-07
9.08001e-05
-1.05689e-06
9.09003e-05
-1.1419e-06
9.10074e-05
-1.22923e-06
9.11222e-05
-1.31935e-06
9.12452e-05
-1.41289e-06
9.13772e-05
-1.51065e-06
-1.61333e-06
9.15186e-05
9.19642e-05
1.82558e-08
9.19766e-05
5.04357e-08
9.19956e-05
7.37612e-08
9.20197e-05
8.70916e-08
9.20479e-05
9.09667e-08
9.20796e-05
8.60533e-08
9.21141e-05
7.30577e-08
9.21512e-05
5.27671e-08
9.21907e-05
2.58981e-08
9.22324e-05
-6.9461e-09
9.22762e-05
-4.52611e-08
9.23221e-05
-8.85584e-08
9.23701e-05
-1.3656e-07
9.24202e-05
-1.88821e-07
9.24724e-05
-2.45088e-07
9.25267e-05
-3.05073e-07
9.25832e-05
-3.68498e-07
9.26421e-05
-4.35119e-07
9.27034e-05
-5.04692e-07
9.27672e-05
-5.76992e-07
9.28339e-05
-6.51822e-07
9.29036e-05
-7.29007e-07
9.29767e-05
-8.08412e-07
9.30535e-05
-8.89952e-07
9.31345e-05
-9.73602e-07
9.322e-05
-1.05941e-06
9.33106e-05
-1.14751e-06
9.34069e-05
-1.23814e-06
9.35093e-05
-1.33163e-06
9.36183e-05
-1.42843e-06
9.37345e-05
-1.5291e-06
9.38582e-05
-1.63436e-06
-1.74469e-06
9.39896e-05
9.45911e-05
1.42776e-08
9.46026e-05
3.89909e-08
9.46203e-05
5.60906e-08
9.46429e-05
6.44011e-08
9.46698e-05
6.41559e-08
9.47e-05
5.58107e-08
9.47332e-05
3.98982e-08
9.47689e-05
1.70437e-08
9.48069e-05
-1.21528e-08
9.48472e-05
-4.71684e-08
9.48894e-05
-8.75501e-08
9.49338e-05
-1.32879e-07
9.49801e-05
-1.8285e-07
9.50283e-05
-2.37104e-07
9.50786e-05
-2.95375e-07
9.5131e-05
-3.57405e-07
9.51854e-05
-4.2294e-07
9.5242e-05
-4.91759e-07
9.5301e-05
-5.63649e-07
9.53624e-05
-6.38418e-07
9.54265e-05
-7.15904e-07
9.54935e-05
-7.95973e-07
9.55636e-05
-8.78529e-07
9.56372e-05
-9.63527e-07
9.57145e-05
-1.05098e-06
9.57961e-05
-1.14096e-06
9.58822e-05
-1.23362e-06
9.59732e-05
-1.32919e-06
9.60696e-05
-1.428e-06
9.61716e-05
-1.53045e-06
9.62795e-05
-1.63701e-06
9.63935e-05
-1.74829e-06
-1.8646e-06
9.65134e-05
9.72932e-05
1.06193e-08
9.73037e-05
2.84206e-08
9.73202e-05
3.96154e-08
9.73416e-05
4.30538e-08
9.7367e-05
3.87552e-08
9.73958e-05
2.7001e-08
9.74275e-05
8.1767e-09
9.74618e-05
-1.72313e-08
9.74984e-05
-4.87296e-08
9.75371e-05
-8.58712e-08
9.75778e-05
-1.28257e-07
9.76204e-05
-1.75521e-07
9.76649e-05
-2.27366e-07
9.77113e-05
-2.83485e-07
9.77596e-05
-3.43624e-07
9.78097e-05
-4.07547e-07
9.78618e-05
-4.7503e-07
9.79159e-05
-5.4587e-07
9.79721e-05
-6.19886e-07
9.80306e-05
-6.96913e-07
9.80915e-05
-7.7682e-07
9.81551e-05
-8.59501e-07
9.82214e-05
-9.44892e-07
9.82909e-05
-1.03297e-06
9.83637e-05
-1.12377e-06
9.84401e-05
-1.21738e-06
9.85204e-05
-1.31395e-06
9.86049e-05
-1.41368e-06
9.86938e-05
-1.51686e-06
9.87872e-05
-1.62383e-06
9.88851e-05
-1.73497e-06
9.89876e-05
-1.85075e-06
-1.97131e-06
9.90943e-05
0.000100072
7.24286e-09
0.000100082
1.86385e-08
0.000100098
2.42617e-08
0.000100118
2.30175e-08
0.000100142
1.47808e-08
0.000100169
-3.06325e-10
0.000100199
-2.19817e-08
0.000100232
-4.98771e-08
0.000100267
-8.35957e-08
0.000100303
-1.22763e-07
0.000100342
-1.67035e-07
0.000100383
-2.16097e-07
0.000100425
-2.69671e-07
0.000100469
-3.27492e-07
0.000100515
-3.89328e-07
0.000100562
-4.54962e-07
0.000100611
-5.24196e-07
0.000100662
-5.9685e-07
0.000100715
-6.72763e-07
0.00010077
-7.51797e-07
0.000100827
-8.33841e-07
0.000100886
-9.18812e-07
0.000100948
-1.00666e-06
0.000101013
-1.09739e-06
0.00010108
-1.19102e-06
0.00010115
-1.28764e-06
0.000101224
-1.38738e-06
0.0001013
-1.49043e-06
0.000101381
-1.59699e-06
0.000101464
-1.70734e-06
0.000101551
-1.82174e-06
0.000101641
-1.94058e-06
-2.06381e-06
0.000101733
0.000102931
4.1217e-09
0.00010294
9.58058e-09
0.000102955
9.97312e-09
0.000102973
4.26956e-09
0.000102996
-7.75104e-09
0.000103022
-2.60558e-08
0.00010305
-5.04851e-08
0.000103081
-8.0772e-08
0.000103114
-1.16607e-07
0.000103149
-1.57682e-07
0.000103186
-2.03709e-07
0.000103224
-2.54415e-07
0.000103264
-3.09553e-07
0.000103305
-3.68892e-07
0.000103348
-4.32221e-07
0.000103392
-4.99346e-07
0.000103438
-5.70091e-07
0.000103486
-6.44295e-07
0.000103535
-7.21816e-07
0.000103586
-8.02536e-07
0.000103638
-8.86359e-07
0.000103692
-9.73214e-07
0.000103749
-1.06306e-06
0.000103807
-1.1559e-06
0.000103868
-1.25176e-06
0.000103931
-1.3507e-06
0.000103997
-1.45282e-06
0.000104064
-1.55825e-06
0.000104135
-1.66715e-06
0.000104207
-1.77971e-06
0.000104281
-1.8961e-06
0.000104357
-2.01655e-06
-2.14092e-06
0.000104434
0.000105872
1.23648e-09
0.00010588
1.20056e-09
0.000105893
-3.29255e-09
0.000105911
-1.32035e-08
0.000105932
-2.88151e-08
0.000105956
-5.01797e-08
0.000105983
-7.72227e-08
0.000106012
-1.09763e-07
0.000106043
-1.47566e-07
0.000106075
-1.90389e-07
0.00010611
-2.37992e-07
0.000106145
-2.90147e-07
0.000106182
-3.46638e-07
0.000106221
-4.07264e-07
0.00010626
-4.71839e-07
0.000106301
-5.4019e-07
0.000106343
-6.12159e-07
0.000106387
-6.87603e-07
0.000106431
-7.66396e-07
0.000106477
-8.48431e-07
0.000106524
-9.33622e-07
0.000106573
-1.0219e-06
0.000106623
-1.11324e-06
0.000106675
-1.20761e-06
0.000106728
-1.30504e-06
0.000106783
-1.40555e-06
0.000106839
-1.50921e-06
0.000106897
-1.6161e-06
0.000106956
-1.72631e-06
0.000107017
-1.83994e-06
0.000107078
-1.95707e-06
0.000107139
-2.07784e-06
-2.20198e-06
0.0001072
0.000108896
-1.4276e-09
0.000108904
-6.53576e-09
0.000108916
-1.55612e-08
0.000108932
-2.94027e-08
0.000108952
-4.83802e-08
0.000108974
-7.26101e-08
0.000108999
-1.02088e-07
0.000109026
-1.36704e-07
0.000109055
-1.76293e-07
0.000109085
-2.2067e-07
0.000109117
-2.69642e-07
0.00010915
-3.2302e-07
0.000109184
-3.80623e-07
0.000109219
-4.42276e-07
0.000109255
-5.07817e-07
0.000109291
-5.77091e-07
0.000109329
-6.49958e-07
0.000109368
-7.26287e-07
0.000109408
-8.05966e-07
0.000109448
-8.88892e-07
0.000109489
-9.74985e-07
0.000109532
-1.06418e-06
0.000109575
-1.15643e-06
0.000109619
-1.2517e-06
0.000109664
-1.34999e-06
0.00010971
-1.45129e-06
0.000109756
-1.55564e-06
0.000109803
-1.66304e-06
0.00010985
-1.77353e-06
0.000109897
-1.88712e-06
0.000109944
-2.00382e-06
0.00010999
-2.12367e-06
-2.2463e-06
0.000110034
0.000112007
-3.87899e-09
0.000112014
-1.36497e-08
0.000112025
-2.68532e-08
0.00011204
-4.43284e-08
0.000112058
-6.64162e-08
0.000112079
-9.3282e-08
0.000112102
-1.24978e-07
0.000112127
-1.61458e-07
0.000112153
-2.02614e-07
0.000112181
-2.48313e-07
0.000112209
-2.98408e-07
0.000112239
-3.52748e-07
0.00011227
-4.1118e-07
0.000112301
-4.73558e-07
0.000112333
-5.39739e-07
0.000112365
-6.09589e-07
0.000112398
-6.82979e-07
0.000112432
-7.59792e-07
0.000112466
-8.3992e-07
0.0001125
-9.23266e-07
0.000112535
-1.00975e-06
0.00011257
-1.09929e-06
0.000112605
-1.19184e-06
0.000112641
-1.28734e-06
0.000112677
-1.38576e-06
0.000112713
-1.48706e-06
0.000112748
-1.59122e-06
0.000112783
-1.69821e-06
0.000112818
-1.80799e-06
0.000112851
-1.92051e-06
0.000112883
-2.03569e-06
0.000112913
-2.15349e-06
-2.2735e-06
0.00011294
0.000115207
-6.12431e-09
0.000115213
-2.01579e-08
0.000115224
-3.71785e-08
0.000115237
-5.79688e-08
0.000115254
-8.28805e-08
0.000115272
-1.12116e-07
0.000115293
-1.45774e-07
0.000115316
-1.8386e-07
0.000115339
-2.26322e-07
0.000115364
-2.73071e-07
0.00011539
-3.24003e-07
0.000115416
-3.79e-07
0.000115443
-4.37942e-07
0.00011547
-5.00705e-07
0.000115497
-5.67167e-07
0.000115525
-6.37208e-07
0.000115553
-7.10712e-07
0.00011558
-7.87569e-07
0.000115608
-8.67675e-07
0.000115636
-9.50933e-07
0.000115663
-1.03725e-06
0.000115691
-1.12656e-06
0.000115718
-1.21876e-06
0.000115744
-1.31381e-06
0.00011577
-1.41161e-06
0.000115795
-1.51212e-06
0.000115819
-1.61524e-06
0.000115842
-1.72092e-06
0.000115863
-1.82904e-06
0.000115882
-1.93951e-06
0.000115898
-2.05218e-06
0.000115912
-2.16696e-06
-2.28336e-06
0.000115922
0.000118498
-8.16951e-09
0.000118504
-2.60739e-08
0.000118513
-4.65486e-08
0.000118526
-7.03226e-08
0.00011854
-9.77514e-08
0.000118557
-1.29065e-07
0.000118576
-1.64401e-07
0.000118596
-2.03811e-07
0.000118617
-2.47286e-07
0.000118639
-2.94783e-07
0.000118661
-3.46234e-07
0.000118683
-4.01555e-07
0.000118706
-4.60651e-07
0.000118729
-5.23422e-07
0.000118751
-5.89763e-07
0.000118774
-6.59569e-07
0.000118796
-7.32733e-07
0.000118817
-8.09151e-07
0.000118838
-8.88719e-07
0.000118859
-9.71339e-07
0.000118879
-1.05691e-06
0.000118897
-1.14535e-06
0.000118915
-1.23655e-06
0.000118932
-1.33042e-06
0.000118947
-1.42686e-06
0.000118961
-1.52577e-06
0.000118972
-1.62704e-06
0.000118982
-1.73054e-06
0.000118989
-1.83613e-06
0.000118993
-1.94365e-06
0.000118994
-2.0529e-06
0.000118991
-2.16374e-06
-2.27567e-06
0.000118983
0.000121883
-1.0018e-08
0.000121888
-3.14052e-08
0.000121897
-5.49624e-08
0.000121908
-8.13655e-08
0.000121921
-1.1097e-07
0.000121936
-1.44026e-07
0.000121952
-1.80708e-07
0.00012197
-2.21105e-07
0.000121988
-2.65253e-07
0.000122006
-3.13146e-07
0.000122025
-3.64751e-07
0.000122043
-4.20016e-07
0.000122061
-4.78871e-07
0.000122079
-5.41237e-07
0.000122096
-6.07024e-07
0.000122113
-6.76138e-07
0.000122129
-7.48482e-07
0.000122143
-8.23953e-07
0.000122157
-9.0245e-07
0.00012217
-9.83866e-07
0.000122181
-1.0681e-06
0.000122191
-1.15503e-06
0.000122199
-1.24456e-06
0.000122205
-1.33656e-06
0.000122209
-1.43091e-06
0.00012221
-1.52748e-06
0.00012221
-1.6261e-06
0.000122206
-1.72663e-06
0.000122198
-1.82888e-06
0.000122187
-1.93266e-06
0.000122172
-2.03773e-06
0.000122152
-2.1439e-06
-2.25067e-06
0.000122127
0.000125365
-1.16786e-08
0.00012537
-3.61747e-08
0.000125377
-6.24521e-08
0.000125387
-9.11332e-08
0.000125399
-1.2257e-07
0.000125412
-1.5703e-07
0.000125426
-1.94716e-07
0.00012544
-2.35752e-07
0.000125455
-2.80212e-07
0.00012547
-3.28127e-07
0.000125485
-3.79497e-07
0.000125499
-4.34297e-07
0.000125513
-4.92481e-07
0.000125526
-5.5399e-07
0.000125537
-6.18748e-07
0.000125548
-6.86674e-07
0.000125557
-7.57676e-07
0.000125565
-8.31653e-07
0.000125571
-9.08503e-07
0.000125575
-9.88115e-07
0.000125577
-1.07037e-06
0.000125578
-1.15515e-06
0.000125575
-1.24233e-06
0.000125571
-1.33176e-06
0.000125563
-1.42329e-06
0.000125552
-1.51676e-06
0.000125538
-1.61199e-06
0.00012552
-1.7088e-06
0.000125498
-1.80696e-06
0.000125472
-1.90626e-06
0.000125441
-2.00643e-06
0.000125404
-2.10724e-06
-2.2082e-06
0.000125362
0.000128947
-1.31506e-08
0.000128951
-4.03798e-08
0.000128957
-6.89939e-08
0.000128966
-9.95596e-08
0.000128976
-1.32428e-07
0.000128986
-1.67888e-07
0.000128998
-2.06168e-07
0.00012901
-2.47431e-07
0.000129021
-2.91786e-07
0.000129032
-3.39299e-07
0.000129043
-3.89999e-07
0.000129052
-4.43889e-07
0.000129061
-5.00944e-07
0.000129068
-5.61121e-07
0.000129074
-6.2436e-07
0.000129078
-6.90587e-07
0.00012908
-7.59716e-07
0.00012908
-8.31649e-07
0.000129077
-9.0628e-07
0.000129073
-9.83494e-07
0.000129066
-1.06317e-06
0.000129056
-1.14516e-06
0.000129043
-1.22933e-06
0.000129026
-1.31553e-06
0.000129007
-1.40357e-06
0.000128983
-1.49328e-06
0.000128956
-1.58445e-06
0.000128924
-1.67687e-06
0.000128887
-1.77032e-06
0.000128845
-1.86453e-06
0.000128798
-1.95924e-06
0.000128745
-2.05422e-06
-2.14898e-06
0.000128686
0.00013263
-1.44667e-08
0.000132634
-4.4105e-08
0.00013264
-7.47265e-08
0.000132647
-1.06835e-07
0.000132655
-1.40779e-07
0.000132664
-1.76864e-07
0.000132674
-2.15345e-07
0.000132683
-2.56422e-07
0.000132691
-3.0024e-07
0.000132699
-3.46899e-07
0.000132705
-3.96462e-07
0.00013271
-4.48954e-07
0.000132714
-5.04375e-07
0.000132715
-5.62699e-07
0.000132715
-6.23878e-07
0.000132712
-6.87848e-07
0.000132707
-7.54528e-07
0.000132699
-8.23823e-07
0.000132688
-8.95625e-07
0.000132675
-9.69814e-07
0.000132658
-1.04626e-06
0.000132637
-1.12481e-06
0.000132613
-1.20532e-06
0.000132585
-1.28761e-06
0.000132553
-1.3715e-06
0.000132517
-1.45678e-06
0.000132476
-1.54324e-06
0.000132429
-1.63065e-06
0.000132378
-1.71877e-06
0.000132321
-1.80732e-06
0.000132257
-1.89603e-06
0.000132188
-1.98465e-06
-2.07271e-06
0.000132112
0.000136419
-1.55945e-08
0.000136423
-4.72801e-08
0.000136427
-7.94994e-08
0.000136433
-1.12702e-07
0.00013644
-1.47254e-07
0.000136446
-1.83491e-07
0.000136453
-2.21701e-07
0.000136458
-2.6212e-07
0.000136463
-3.04928e-07
0.000136466
-3.5026e-07
0.000136468
-3.98203e-07
0.000136468
-4.48808e-07
0.000136466
-5.02093e-07
0.000136461
-5.58048e-07
0.000136454
-6.16639e-07
0.000136444
-6.77808e-07
0.000136431
-7.41481e-07
0.000136415
-8.07566e-07
0.000136395
-8.75956e-07
0.000136372
-9.46527e-07
0.000136344
-1.01914e-06
0.000136313
-1.09366e-06
0.000136278
-1.1699e-06
0.000136238
-1.24769e-06
0.000136193
-1.32683e-06
0.000136144
-1.40712e-06
0.000136089
-1.48833e-06
0.000136028
-1.57022e-06
0.000135962
-1.65254e-06
0.00013589
-1.73503e-06
0.000135811
-1.81741e-06
0.000135726
-1.89945e-06
-1.98071e-06
0.000135634
0.000140317
-1.66882e-08
0.00014032
-5.02589e-08
0.000140324
-8.38637e-08
0.000140329
-1.1787e-07
0.000140335
-1.52667e-07
0.00014034
-1.88629e-07
0.000140344
-2.26091e-07
0.000140348
-2.65342e-07
0.000140349
-3.06608e-07
0.000140349
-3.50062e-07
0.000140347
-3.95824e-07
0.000140342
-4.4397e-07
0.000140334
-4.94541e-07
0.000140324
-5.47541e-07
0.00014031
-6.02948e-07
0.000140293
-6.60715e-07
0.000140272
-7.20773e-07
0.000140248
-7.83033e-07
0.000140219
-8.47388e-07
0.000140186
-9.13717e-07
0.000140149
-9.81881e-07
0.000140107
-1.05173e-06
0.00014006
-1.12308e-06
0.000140008
-1.19576e-06
0.000139951
-1.26957e-06
0.000139888
-1.34429e-06
0.00013982
-1.41969e-06
0.000139745
-1.49554e-06
0.000139664
-1.57158e-06
0.000139577
-1.64755e-06
0.000139482
-1.72318e-06
0.000139381
-1.79821e-06
-1.87224e-06
0.000139273
0.000144325
-1.75044e-08
0.000144328
-5.25807e-08
0.000144331
-8.70929e-08
0.000144334
-1.21395e-07
0.000144338
-1.5594e-07
0.00014434
-1.91144e-07
0.000144342
-2.27382e-07
0.000144341
-2.64989e-07
0.000144339
-3.04235e-07
0.000144334
-3.45324e-07
0.000144327
-3.88407e-07
0.000144316
-4.33583e-07
0.000144303
-4.80913e-07
0.000144286
-5.30417e-07
0.000144265
-5.82088e-07
0.00014424
-6.35887e-07
0.000144211
-6.91755e-07
0.000144177
-7.4961e-07
0.000144139
-8.09351e-07
0.000144097
-8.70859e-07
0.000144049
-9.33998e-07
0.000143996
-9.98614e-07
0.000143937
-1.06454e-06
0.000143873
-1.13159e-06
0.000143803
-1.19958e-06
0.000143727
-1.26828e-06
0.000143645
-1.33747e-06
0.000143556
-1.40693e-06
0.000143461
-1.4764e-06
0.000143359
-1.54565e-06
0.00014325
-1.61441e-06
0.000143134
-1.68247e-06
-1.74947e-06
0.000143012
0.000148449
-1.88154e-08
0.000148452
-5.57101e-08
0.000148456
-9.11311e-08
0.00014846
-1.25411e-07
0.000148464
-1.5919e-07
0.000148466
-1.93007e-07
0.000148466
-2.27341e-07
0.000148463
-2.62612e-07
0.000148458
-2.99149e-07
0.00014845
-3.37201e-07
0.000148438
-3.76947e-07
0.000148423
-4.18512e-07
0.000148404
-4.61971e-07
0.000148381
-5.07359e-07
0.000148354
-5.54679e-07
0.000148322
-6.03901e-07
0.000148285
-6.54973e-07
0.000148243
-7.0782e-07
0.000148196
-7.62345e-07
0.000148144
-8.18434e-07
0.000148086
-8.75957e-07
0.000148022
-9.34766e-07
0.000147952
-9.94697e-07
0.000147876
-1.05557e-06
0.000147794
-1.1172e-06
0.000147705
-1.17938e-06
0.000147609
-1.24188e-06
0.000147507
-1.3045e-06
0.000147398
-1.36699e-06
0.000147281
-1.42912e-06
0.000147157
-1.49063e-06
0.000147026
-1.55131e-06
-1.61081e-06
0.000146887
0.00015269
-1.92104e-08
0.000152691
-5.74867e-08
0.000152694
-9.33645e-08
0.000152695
-1.27302e-07
0.000152696
-1.60033e-07
0.000152695
-1.92144e-07
0.000152692
-2.24202e-07
0.000152686
-2.56723e-07
0.000152677
-2.90098e-07
0.000152665
-3.2462e-07
0.000152648
-3.60505e-07
0.000152628
-3.97908e-07
0.000152603
-4.36926e-07
0.000152573
-4.77613e-07
0.000152538
-5.19986e-07
0.000152498
-5.64031e-07
0.000152453
-6.09708e-07
0.000152402
-6.56952e-07
0.000152346
-7.05679e-07
0.000152283
-7.55787e-07
0.000152214
-8.07154e-07
0.000152139
-8.59644e-07
0.000152057
-9.13104e-07
0.000151969
-9.6737e-07
0.000151874
-1.02226e-06
0.000151772
-1.07759e-06
0.000151664
-1.13315e-06
0.000151548
-1.18875e-06
0.000151425
-1.24416e-06
0.000151295
-1.29917e-06
0.000151158
-1.35357e-06
0.000151014
-1.40717e-06
-1.45968e-06
0.000150863
0.000157055
-2.24312e-08
0.00015706
-6.32163e-08
0.000157066
-9.9203e-08
0.000157071
-1.31727e-07
0.000157073
-1.62244e-07
0.000157072
-1.91519e-07
0.000157068
-2.20268e-07
0.000157061
-2.49119e-07
0.000157049
-2.78515e-07
0.000157033
-3.08773e-07
0.000157013
-3.4013e-07
0.000156988
-3.72748e-07
0.000156958
-4.06734e-07
0.000156922
-4.42148e-07
0.000156881
-4.79015e-07
0.000156834
-5.1733e-07
0.000156782
-5.5706e-07
0.000156723
-5.98152e-07
0.000156658
-6.40533e-07
0.000156586
-6.8411e-07
0.000156508
-7.28776e-07
0.000156423
-7.74408e-07
0.00015633
-8.20867e-07
0.000156231
-8.68004e-07
0.000156124
-9.15655e-07
0.00015601
-9.63648e-07
0.000155889
-1.0118e-06
0.00015576
-1.05991e-06
0.000155624
-1.1078e-06
0.00015548
-1.15525e-06
0.000155328
-1.20207e-06
0.000155169
-1.24804e-06
-1.29292e-06
0.000155003
0.000161538
-2.20072e-08
0.000161541
-6.60231e-08
0.000161544
-1.0276e-07
0.000161547
-1.34567e-07
0.000161548
-1.63108e-07
0.000161546
-1.89374e-07
0.00016154
-2.14426e-07
0.00016153
-2.39091e-07
0.000161515
-2.63898e-07
0.000161496
-2.89227e-07
0.000161471
-3.15357e-07
0.000161441
-3.42479e-07
0.000161405
-3.70715e-07
0.000161363
-4.00142e-07
0.000161315
-4.30798e-07
0.00016126
-4.62689e-07
0.000161199
-4.95798e-07
0.000161131
-5.30086e-07
0.000161056
-5.65495e-07
0.000160973
-6.0195e-07
0.000160884
-6.39361e-07
0.000160787
-6.77622e-07
0.000160683
-7.16615e-07
0.000160571
-7.56211e-07
0.000160452
-7.96268e-07
0.000160325
-8.36633e-07
0.00016019
-8.77148e-07
0.000160048
-9.17647e-07
0.000159898
-9.57959e-07
0.000159741
-9.97911e-07
0.000159576
-1.03733e-06
0.000159404
-1.07605e-06
-1.11383e-06
0.000159225
0.000166164
-3.25328e-08
0.000166177
-7.90203e-08
0.000166187
-1.13034e-07
0.000166194
-1.4092e-07
0.000166196
-1.65228e-07
0.000166193
-1.86837e-07
0.000166186
-2.07018e-07
0.000166173
-2.26641e-07
0.000166156