/*--------------------------------*- C++ -*----------------------------------*\
  =========                 |
  \\      /  F ield         | OpenFOAM: The Open Source CFD Toolbox
   \\    /   O peration     | Website:  https://openfoam.org
    \\  /    A nd           | Version:  10
     \\/     M anipulation  |
\*---------------------------------------------------------------------------*/
FoamFile
{
    format      ascii;
    class       volVectorField;
    location    "0.025";
    object      U;
}
// * * * * * * * * * * * * * * * * * * * * * * * * * * * * * * * * * * * * * //

dimensions      [0 1 -1 0 0 0 0];

internalField   nonuniform List<vector> 
6820
(
(7.28191 0.0246944 0)
(7.17923 0.0396813 0)
(7.05836 0.0443654 0)
(6.9325 0.0467227 0)
(6.80816 0.0474711 0)
(6.68595 0.0472637 0)
(6.56648 0.0465348 0)
(6.45046 0.0454655 0)
(6.33821 0.0441595 0)
(6.22999 0.0426813 0)
(6.12603 0.0410656 0)
(6.02655 0.0393299 0)
(5.9318 0.0374813 0)
(5.842 0.0355203 0)
(5.75742 0.033443 0)
(5.67831 0.0312431 0)
(5.60495 0.0289141 0)
(5.5376 0.0264502 0)
(5.47653 0.0238494 0)
(5.42195 0.0211141 0)
(5.37408 0.0182545 0)
(5.33303 0.0152903 0)
(5.29885 0.0122531 0)
(5.27147 0.00919289 0)
(5.25066 0.00618038 0)
(5.23604 0.00330488 0)
(5.22699 0.000704181 0)
(5.22262 -0.00136172 0)
(5.22137 -0.00267775 0)
(5.22168 -0.00324844 0)
(5.22211 -0.00297517 0)
(5.22079 -0.00143451 0)
(5.21381 0.00354165 0)
(7.35915 0.0257192 0)
(7.42082 0.0353166 0)
(7.47595 0.0368102 0)
(7.52638 0.0384854 0)
(7.57269 0.039503 0)
(7.6138 0.0401696 0)
(7.64975 0.0407421 0)
(7.68098 0.0412056 0)
(7.70787 0.0415347 0)
(7.7308 0.0417125 0)
(7.75013 0.0417148 0)
(7.76623 0.0415152 0)
(7.77946 0.0410885 0)
(7.79014 0.0404102 0)
(7.79861 0.0394571 0)
(7.80517 0.0382079 0)
(7.8101 0.0366455 0)
(7.8137 0.0347576 0)
(7.81621 0.0325407 0)
(7.81785 0.0300006 0)
(7.81885 0.0271574 0)
(7.81938 0.0240482 0)
(7.81957 0.0207286 0)
(7.81953 0.0172797 0)
(7.81934 0.0138131 0)
(7.81902 0.010459 0)
(7.81858 0.00738903 0)
(7.818 0.00492041 0)
(7.81738 0.00331798 0)
(7.81675 0.0027287 0)
(7.81591 0.00334653 0)
(7.8144 0.00609479 0)
(7.8136 0.0112336 0)
(7.33545 0.00680311 0)
(7.34598 0.00975446 0)
(7.35564 0.0120356 0)
(7.36438 0.0151 0)
(7.37397 0.0175533 0)
(7.3843 0.0195447 0)
(7.39525 0.0212807 0)
(7.40693 0.022748 0)
(7.4193 0.0239429 0)
(7.43227 0.0248777 0)
(7.44572 0.0255547 0)
(7.45955 0.0259695 0)
(7.47363 0.0261147 0)
(7.48785 0.0259807 0)
(7.50207 0.0255561 0)
(7.51616 0.0248299 0)
(7.53002 0.0237933 0)
(7.5435 0.0224413 0)
(7.55648 0.0207769 0)
(7.56886 0.0188105 0)
(7.58053 0.0165665 0)
(7.5914 0.0140849 0)
(7.6014 0.0114209 0)
(7.61047 0.00865673 0)
(7.6186 0.00590256 0)
(7.6258 0.00327786 0)
(7.63214 0.000964018 0)
(7.63773 -0.000880258 0)
(7.64283 -0.00203786 0)
(7.64783 -0.00233042 0)
(7.65265 -0.0013973 0)
(7.65802 0.00118023 0)
(7.66292 0.00629684 0)
(7.33497 0.0090716 0)
(7.34284 0.0194081 0)
(7.34913 0.0243723 0)
(7.3536 0.0275084 0)
(7.35797 0.0293085 0)
(7.3623 0.0302772 0)
(7.36654 0.0308128 0)
(7.3709 0.0310393 0)
(7.37546 0.0310153 0)
(7.38027 0.030784 0)
(7.38538 0.0303649 0)
(7.39081 0.0297624 0)
(7.39659 0.0289743 0)
(7.40271 0.0279946 0)
(7.40919 0.0268147 0)
(7.41599 0.0254262 0)
(7.4231 0.0238224 0)
(7.43049 0.022 0)
(7.43812 0.0199637 0)
(7.44594 0.017722 0)
(7.45391 0.015297 0)
(7.46198 0.0127232 0)
(7.47009 0.0100411 0)
(7.47821 0.00732095 0)
(7.48631 0.00463413 0)
(7.49438 0.00209758 0)
(7.50242 -0.000155742 0)
(7.51046 -0.00202648 0)
(7.51854 -0.00333965 0)
(7.52674 -0.00386009 0)
(7.53504 -0.00334586 0)
(7.54383 -0.00114795 0)
(7.55282 0.00246387 0)
(7.33403 0.00610327 0)
(7.33909 0.0118362 0)
(7.34442 0.0140387 0)
(7.34907 0.0159345 0)
(7.35377 0.0174949 0)
(7.35849 0.0186713 0)
(7.36311 0.0196206 0)
(7.36775 0.0203632 0)
(7.37249 0.0208835 0)
(7.37736 0.0211798 0)
(7.38241 0.0212469 0)
(7.38765 0.0210758 0)
(7.39311 0.0206572 0)
(7.3988 0.0199825 0)
(7.40474 0.019043 0)
(7.41093 0.0178328 0)
(7.41736 0.0163484 0)
(7.42404 0.0145906 0)
(7.43095 0.0125693 0)
(7.43807 0.0102962 0)
(7.44539 0.00779763 0)
(7.45288 0.00511395 0)
(7.46052 0.00228685 0)
(7.46831 -0.000606362 0)
(7.47623 -0.00348732 0)
(7.48426 -0.00623697 0)
(7.49241 -0.00874581 0)
(7.50074 -0.0108298 0)
(7.50929 -0.0123396 0)
(7.51816 -0.0130765 0)
(7.52739 -0.0128198 0)
(7.53735 -0.0111772 0)
(7.548 -0.00817072 0)
(7.33378 0.00500654 0)
(7.33809 0.0120531 0)
(7.34311 0.0165389 0)
(7.34755 0.0199564 0)
(7.35188 0.022358 0)
(7.35623 0.0238871 0)
(7.36057 0.0248423 0)
(7.36497 0.025365 0)
(7.36952 0.0255229 0)
(7.37424 0.0253691 0)
(7.37916 0.0249366 0)
(7.38431 0.0242425 0)
(7.38969 0.0232947 0)
(7.39531 0.0220967 0)
(7.40119 0.0206487 0)
(7.40731 0.0189505 0)
(7.41367 0.0170028 0)
(7.42027 0.0148096 0)
(7.42709 0.0123872 0)
(7.43412 0.0097466 0)
(7.44134 0.00692043 0)
(7.44874 0.00393961 0)
(7.45631 0.000867405 0)
(7.46404 -0.00225514 0)
(7.47194 -0.00534316 0)
(7.48003 -0.00830972 0)
(7.48832 -0.0110419 0)
(7.49688 -0.0134132 0)
(7.50578 -0.0153021 0)
(7.51514 -0.0165372 0)
(7.52509 -0.0169482 0)
(7.53596 -0.0162223 0)
(7.54785 -0.014408 0)
(7.33349 0.0040452 0)
(7.33655 0.00983015 0)
(7.3406 0.0130378 0)
(7.34452 0.0151201 0)
(7.34855 0.0165151 0)
(7.35276 0.0173772 0)
(7.35704 0.0178996 0)
(7.36142 0.0181635 0)
(7.36596 0.0181843 0)
(7.37067 0.0179715 0)
(7.37557 0.0175277 0)
(7.38068 0.0168484 0)
(7.38601 0.0159264 0)
(7.39157 0.0147554 0)
(7.39736 0.0133281 0)
(7.40338 0.0116414 0)
(7.40963 0.00969372 0)
(7.41611 0.00748414 0)
(7.4228 0.00503559 0)
(7.4297 0.00233987 0)
(7.4368 -0.000571936 0)
(7.4441 -0.00366217 0)
(7.45159 -0.00686451 0)
(7.45927 -0.0101375 0)
(7.46716 -0.0134096 0)
(7.4753 -0.0166008 0)
(7.48373 -0.0196144 0)
(7.49252 -0.0223374 0)
(7.50177 -0.0246532 0)
(7.51162 -0.0264234 0)
(7.52222 -0.0275199 0)
(7.53387 -0.0277451 0)
(7.54675 -0.0271438 0)
(7.33334 0.00331634 0)
(7.3358 0.00863284 0)
(7.33945 0.0122318 0)
(7.34324 0.0149591 0)
(7.34712 0.017022 0)
(7.35116 0.0184373 0)
(7.35527 0.0193354 0)
(7.35948 0.0198087 0)
(7.36383 0.0199035 0)
(7.36836 0.0196564 0)
(7.37307 0.0190939 0)
(7.37799 0.0182321 0)
(7.38313 0.0170796 0)
(7.38849 0.0156427 0)
(7.39409 0.0139235 0)
(7.39992 0.0119267 0)
(7.40598 0.00965722 0)
(7.41227 0.00711803 0)
(7.41878 0.00434406 0)
(7.4255 0.00135082 0)
(7.43244 -0.00185354 0)
(7.43961 -0.00523497 0)
(7.44699 -0.00875643 0)
(7.45462 -0.0123554 0)
(7.4625 -0.0159723 0)
(7.47069 -0.0195378 0)
(7.47923 -0.022972 0)
(7.48822 -0.0261881 0)
(7.49774 -0.0291 0)
(7.50796 -0.0316117 0)
(7.51903 -0.0336404 0)
(7.53124 -0.0350694 0)
(7.54476 -0.0359519 0)
(7.33324 0.00276996 0)
(7.33516 0.00742883 0)
(7.33824 0.0105963 0)
(7.34158 0.0127658 0)
(7.3451 0.0142106 0)
(7.34884 0.0150424 0)
(7.35274 0.0154158 0)
(7.35679 0.0154354 0)
(7.36102 0.0151472 0)
(7.36544 0.0145773 0)
(7.37005 0.0137411 0)
(7.37486 0.0126439 0)
(7.37989 0.0112851 0)
(7.38514 0.00966598 0)
(7.39061 0.00778317 0)
(7.3963 0.0056372 0)
(7.40221 0.00322523 0)
(7.40836 0.00055592 0)
(7.41474 -0.00240321 0)
(7.42134 -0.00557672 0)
(7.42815 -0.00895549 0)
(7.43519 -0.0125179 0)
(7.44248 -0.0162322 0)
(7.45003 -0.0200515 0)
(7.45788 -0.0239264 0)
(7.46608 -0.0278014 0)
(7.47469 -0.0316151 0)
(7.48379 -0.0353021 0)
(7.4935 -0.038799 0)
(7.50397 -0.042042 0)
(7.51536 -0.0449859 0)
(7.52793 -0.0475792 0)
(7.54184 -0.0498959 0)
(7.33318 0.00232985 0)
(7.33474 0.00641204 0)
(7.33743 0.00938131 0)
(7.34055 0.0115442 0)
(7.3439 0.0131183 0)
(7.3475 0.0141602 0)
(7.35128 0.0147483 0)
(7.3552 0.0149463 0)
(7.35929 0.0147855 0)
(7.36356 0.0142872 0)
(7.36802 0.0134679 0)
(7.37267 0.0123379 0)
(7.37753 0.0109013 0)
(7.38261 0.00916326 0)
(7.3879 0.00712352 0)
(7.39341 0.00479429 0)
(7.39913 0.00218735 0)
(7.40507 -0.000680361 0)
(7.41123 -0.00384501 0)
(7.41763 -0.00726823 0)
(7.42427 -0.0109231 0)
(7.43115 -0.014784 0)
(7.43829 -0.0188222 0)
(7.44573 -0.0229997 0)
(7.4535 -0.0272756 0)
(7.46164 -0.0316062 0)
(7.47024 -0.0359463 0)
(7.47938 -0.0402514 0)
(7.48916 -0.0444835 0)
(7.49973 -0.0486121 0)
(7.51124 -0.0526278 0)
(7.52393 -0.0565301 0)
(7.53791 -0.0604107 0)
(7.33314 0.00197276 0)
(7.33442 0.00551926 0)
(7.33676 0.0081743 0)
(7.33956 0.0100617 0)
(7.34264 0.011335 0)
(7.34598 0.0120529 0)
(7.34952 0.0122959 0)
(7.35324 0.0121396 0)
(7.35715 0.0116294 0)
(7.36125 0.0107944 0)
(7.36554 0.00965402 0)
(7.37004 0.00822007 0)
(7.37473 0.00649671 0)
(7.37964 0.00449171 0)
(7.38475 0.00219823 0)
(7.39009 -0.000391413 0)
(7.39565 -0.00326617 0)
(7.40142 -0.00641502 0)
(7.40742 -0.00981171 0)
(7.41365 -0.0134698 0)
(7.42012 -0.0173671 0)
(7.42684 -0.0214834 0)
(7.43384 -0.025797 0)
(7.44115 -0.0302803 0)
(7.44881 -0.0349041 0)
(7.45687 -0.0396392 0)
(7.46541 -0.0444573 0)
(7.4745 -0.0493344 0)
(7.48426 -0.0542553 0)
(7.49481 -0.059216 0)
(7.50629 -0.0642351 0)
(7.5189 -0.0693488 0)
(7.53273 -0.0746616 0)
(7.33311 0.00167308 0)
(7.33418 0.00472834 0)
(7.33624 0.00708068 0)
(7.3388 0.00877329 0)
(7.34168 0.00992827 0)
(7.34485 0.0105983 0)
(7.34824 0.0108382 0)
(7.35183 0.0106984 0)
(7.35561 0.0102079 0)
(7.35957 0.00938338 0)
(7.36372 0.00823636 0)
(7.36806 0.00677374 0)
(7.3726 0.0049943 0)
(7.37734 0.0029068 0)
(7.38227 0.000524854 0)
(7.3874 -0.00216525 0)
(7.39275 -0.00516599 0)
(7.39831 -0.00847256 0)
(7.40409 -0.012064 0)
(7.41011 -0.0159402 0)
(7.41636 -0.0200857 0)
(7.42288 -0.0244831 0)
(7.42968 -0.029115 0)
(7.4368 -0.0339618 0)
(7.44428 -0.0390035 0)
(7.45218 -0.0442222 0)
(7.46055 -0.0496039 0)
(7.46949 -0.055141 0)
(7.47909 -0.0608373 0)
(7.48945 -0.0667105 0)
(7.50071 -0.0728012 0)
(7.51302 -0.0791717 0)
(7.52644 -0.0859328 0)
(7.33309 0.00141585 0)
(7.33401 0.00402361 0)
(7.33582 0.00606436 0)
(7.33814 0.00751845 0)
(7.3408 0.00845914 0)
(7.34375 0.00892098 0)
(7.34694 0.00894271 0)
(7.35033 0.00856758 0)
(7.35391 0.00782643 0)
(7.35768 0.00674037 0)
(7.36164 0.0053251 0)
(7.36578 0.00359251 0)
(7.37011 0.00154567 0)
(7.37465 -0.000825589 0)
(7.37939 -0.00350137 0)
(7.38432 -0.00647668 0)
(7.38946 -0.00975379 0)
(7.3948 -0.0133323 0)
(7.40037 -0.0172019 0)
(7.40617 -0.0213599 0)
(7.4122 -0.0257977 0)
(7.41851 -0.0305046 0)
(7.4251 -0.0354702 0)
(7.43201 -0.0406838 0)
(7.43928 -0.0461362 0)
(7.44696 -0.0518214 0)
(7.45513 -0.0577393 0)
(7.46384 -0.0638976 0)
(7.47318 -0.0703165 0)
(7.48325 -0.0770308 0)
(7.49414 -0.0840967 0)
(7.50599 -0.0915934 0)
(7.51883 -0.0996313 0)
(7.33308 0.00119049 0)
(7.33387 0.00338893 0)
(7.33547 0.00512274 0)
(7.33759 0.00634333 0)
(7.34006 0.00709671 0)
(7.34283 0.0074116 0)
(7.34584 0.00731796 0)
(7.34907 0.00684898 0)
(7.3525 0.00602796 0)
(7.35611 0.00486921 0)
(7.35991 0.00338201 0)
(7.36389 0.00156834 0)
(7.36805 -0.000551916 0)
(7.37239 -0.00299772 0)
(7.37692 -0.00576983 0)
(7.38165 -0.00886269 0)
(7.38656 -0.0122765 0)
(7.39168 -0.0160109 0)
(7.397 -0.020061 0)
(7.40255 -0.0244243 0)
(7.40833 -0.0290964 0)
(7.41438 -0.0340718 0)
(7.4207 -0.0393455 0)
(7.42734 -0.0449139 0)
(7.43433 -0.0507761 0)
(7.44172 -0.0569354 0)
(7.44957 -0.0634022 0)
(7.45793 -0.0701956 0)
(7.46689 -0.0773472 0)
(7.47651 -0.0849032 0)
(7.48688 -0.0929292 0)
(7.49809 -0.101513 0)
(7.51015 -0.11076 0)
(7.33307 0.000989758 0)
(7.33376 0.00281319 0)
(7.33519 0.00424818 0)
(7.33712 0.00523035 0)
(7.3394 0.00577957 0)
(7.34197 0.00591112 0)
(7.3448 0.00564207 0)
(7.34783 0.00499469 0)
(7.35107 0.00398686 0)
(7.35448 0.00263079 0)
(7.35807 0.000935102 0)
(7.36185 -0.00109938 0)
(7.36579 -0.00346055 0)
(7.36991 -0.00614677 0)
(7.37421 -0.00916325 0)
(7.37869 -0.0125073 0)
(7.38336 -0.0161785 0)
(7.38822 -0.0201776 0)
(7.39329 -0.0245028 0)
(7.39857 -0.0291536 0)
(7.40407 -0.0341293 0)
(7.40983 -0.0394292 0)
(7.41586 -0.0450544 0)
(7.42219 -0.0510078 0)
(7.42885 -0.0572965 0)
(7.4359 -0.0639323 0)
(7.44337 -0.0709345 0)
(7.45132 -0.0783317 0)
(7.45981 -0.0861639 0)
(7.46889 -0.0944851 0)
(7.47862 -0.103366 0)
(7.48907 -0.112897 0)
(7.50024 -0.123173 0)
(7.33306 0.000808646 0)
(7.33367 0.00228721 0)
(7.33495 0.00343438 0)
(7.33671 0.00418045 0)
(7.33881 0.00452852 0)
(7.3412 0.00448614 0)
(7.34385 0.00406408 0)
(7.34671 0.00327846 0)
(7.34977 0.00214302 0)
(7.35301 0.000667101 0)
(7.35642 -0.00114306 0)
(7.36 -0.00328236 0)
(7.36374 -0.00575831 0)
(7.36765 -0.00856371 0)
(7.37172 -0.0117044 0)
(7.37597 -0.0151823 0)
(7.38039 -0.0189994 0)
(7.38498 -0.0231588 0)
(7.38977 -0.0276626 0)
(7.39476 -0.0325135 0)
(7.39996 -0.0377147 0)
(7.40539 -0.0432704 0)
(7.41108 -0.0491866 0)
(7.41704 -0.0554721 0)
(7.42332 -0.0621398 0)
(7.42995 -0.0692082 0)
(7.43696 -0.0767029 0)
(7.4444 -0.0846582 0)
(7.4523 -0.093119 0)
(7.46072 -0.102142 0)
(7.46969 -0.111799 0)
(7.47926 -0.122178 0)
(7.4894 -0.133362 0)
(7.33305 0.000643645 0)
(7.3336 0.00180403 0)
(7.33475 0.0026762 0)
(7.33635 0.00319023 0)
(7.33828 0.00333669 0)
(7.3405 0.0031147 0)
(7.34297 0.0025272 0)
(7.34564 0.0015824 0)
(7.3485 0.000288194 0)
(7.35154 -0.0013502 0)
(7.35474 -0.00332992 0)
(7.3581 -0.00564831 0)
(7.36161 -0.00830895 0)
(7.36527 -0.0113097 0)
(7.36909 -0.0146545 0)
(7.37307 -0.0183461 0)
(7.37721 -0.0223874 0)
(7.38151 -0.0267823 0)
(7.38599 -0.0315349 0)
(7.39065 -0.0366499 0)
(7.39551 -0.0421334 0)
(7.40058 -0.0479929 0)
(7.40589 -0.0542385 0)
(7.41145 -0.0608834 0)
(7.4173 -0.0679451 0)
(7.42345 -0.0754468 0)
(7.42994 -0.0834183 0)
(7.4368 -0.0918973 0)
(7.44405 -0.100931 0)
(7.45174 -0.110577 0)
(7.45986 -0.120903 0)
(7.46847 -0.131993 0)
(7.47751 -0.143915 0)
(7.33305 0.00049228 0)
(7.33354 0.00135836 0)
(7.33457 0.00196925 0)
(7.33603 0.00225773 0)
(7.3378 0.00220633 0)
(7.33985 0.00180814 0)
(7.34214 0.00106106 0)
(7.34463 -3.16086e-05 0)
(7.34731 -0.00146554 0)
(7.35014 -0.00323798 0)
(7.35314 -0.00534791 0)
(7.35628 -0.00779525 0)
(7.35956 -0.0105835 0)
(7.36299 -0.0137144 0)
(7.36656 -0.0171929 0)
(7.37026 -0.0210241 0)
(7.37411 -0.0252132 0)
(7.37811 -0.0297665 0)
(7.38227 -0.034691 0)
(7.38659 -0.0399944 0)
(7.39109 -0.0456861 0)
(7.39577 -0.0517772 0)
(7.40066 -0.0582814 0)
(7.40577 -0.0652155 0)
(7.41113 -0.0726008 0)
(7.41675 -0.0804633 0)
(7.42265 -0.0888354 0)
(7.42885 -0.0977562 0)
(7.43538 -0.107272 0)
(7.44224 -0.117439 0)
(7.44945 -0.128319 0)
(7.45701 -0.139988 0)
(7.46488 -0.1525 0)
(7.33304 0.000352772 0)
(7.33348 0.000946123 0)
(7.33442 0.00131011 0)
(7.33574 0.0013814 0)
(7.33736 0.00113728 0)
(7.33925 0.000565811 0)
(7.34136 -0.000339866 0)
(7.34367 -0.0015815 0)
(7.34614 -0.00315919 0)
(7.34877 -0.00507368 0)
(7.35155 -0.00732672 0)
(7.35446 -0.00992083 0)
(7.35749 -0.0128604 0)
(7.36066 -0.0161494 0)
(7.36394 -0.0197933 0)
(7.36735 -0.0237985 0)
(7.37089 -0.0281713 0)
(7.37456 -0.0329193 0)
(7.37836 -0.0380509 0)
(7.38231 -0.0435755 0)
(7.3864 -0.0495044 0)
(7.39066 -0.0558507 0)
(7.39509 -0.0626302 0)
(7.39971 -0.0698619 0)
(7.40453 -0.0775686 0)
(7.40957 -0.0857778 0)
(7.41483 -0.0945222 0)
(7.42033 -0.10384 0)
(7.42607 -0.113776 0)
(7.43207 -0.12438 0)
(7.43831 -0.135708 0)
(7.44479 -0.147828 0)
(7.45146 -0.160778 0)
(7.33304 0.000223911 0)
(7.33343 0.000564491 0)
(7.33428 0.00069618 0)
(7.33547 0.00055999 0)
(7.33695 0.000130282 0)
(7.33868 -0.000608558 0)
(7.34062 -0.0016669 0)
(7.34274 -0.00305014 0)
(7.34502 -0.00476149 0)
(7.34744 -0.00680405 0)
(7.34999 -0.00918143 0)
(7.35267 -0.0118978 0)
(7.35545 -0.0149587 0)
(7.35835 -0.0183697 0)
(7.36135 -0.0221378 0)
(7.36446 -0.0262705 0)
(7.36768 -0.030776 0)
(7.371 -0.0356636 0)
(7.37443 -0.0409436 0)
(7.37799 -0.0466276 0)
(7.38166 -0.0527287 0)
(7.38547 -0.0592623 0)
(7.38941 -0.0662459 0)
(7.39351 -0.0737 0)
(7.39775 -0.0816487 0)
(7.40216 -0.0901196 0)
(7.40673 -0.0991444 0)
(7.41148 -0.10876 0)
(7.41639 -0.119006 0)
(7.42147 -0.129929 0)
(7.4267 -0.141577 0)
(7.43207 -0.154005 0)
(7.43752 -0.167242 0)
(7.33303 0.000104677 0)
(7.33339 0.000210931 0)
(7.33415 0.000125276 0)
(7.33523 -0.000207233 0)
(7.33657 -0.000813796 0)
(7.33814 -0.00171269 0)
(7.33991 -0.0029172 0)
(7.34185 -0.00443599 0)
(7.34393 -0.00627538 0)
(7.34614 -0.00844118 0)
(7.34846 -0.0109393 0)
(7.35088 -0.0137761 0)
(7.35341 -0.0169584 0)
(7.35602 -0.0204937 0)
(7.35872 -0.0243899 0)
(7.36151 -0.028656 0)
(7.36438 -0.0333013 0)
(7.36734 -0.0383361 0)
(7.37038 -0.0437717 0)
(7.37351 -0.0496208 0)
(7.37674 -0.0558973 0)
(7.38006 -0.0626174 0)
(7.38348 -0.069799 0)
(7.38701 -0.0774629 0)
(7.39064 -0.0856323 0)
(7.39439 -0.0943337 0)
(7.39824 -0.103597 0)
(7.4022 -0.113454 0)
(7.40625 -0.123942 0)
(7.41039 -0.135099 0)
(7.41459 -0.146964 0)
(7.41884 -0.159585 0)
(7.42308 -0.172977 0)
(7.33303 -5.45289e-06 0)
(7.33335 -0.00011577 0)
(7.33403 -0.000403786 0)
(7.335 -0.000920431 0)
(7.33622 -0.00169349 0)
(7.33764 -0.00274301 0)
(7.33923 -0.0040844 0)
(7.34098 -0.00572873 0)
(7.34286 -0.00768467 0)
(7.34485 -0.00996001 0)
(7.34694 -0.0125624 0)
(7.34911 -0.0154995 0)
(7.35137 -0.0187794 0)
(7.35369 -0.0224108 0)
(7.35608 -0.0264027 0)
(7.35854 -0.0307649 0)
(7.36105 -0.0355079 0)
(7.36363 -0.0406431 0)
(7.36626 -0.0461827 0)
(7.36896 -0.0521403 0)
(7.37171 -0.0585309 0)
(7.37453 -0.0653709 0)
(7.3774 -0.0726787 0)
(7.38034 -0.0804746 0)
(7.38334 -0.088781 0)
(7.3864 -0.0976227 0)
(7.3895 -0.107026 0)
(7.39265 -0.117021 0)
(7.39582 -0.127637 0)
(7.39901 -0.138907 0)
(7.40217 -0.150862 0)
(7.4053 -0.16354 0)
(7.40834 -0.176945 0)
(7.33303 -0.000106911 0)
(7.33331 -0.000416701 0)
(7.33392 -0.000891999 0)
(7.33479 -0.00157987 0)
(7.33588 -0.002508 0)
(7.33715 -0.00369768 0)
(7.33858 -0.00516604 0)
(7.34015 -0.00692629 0)
(7.34182 -0.0089893 0)
(7.34359 -0.0113649 0)
(7.34544 -0.0140624 0)
(7.34736 -0.0170912 0)
(7.34934 -0.0204608 0)
(7.35136 -0.0241808 0)
(7.35343 -0.0282615 0)
(7.35554 -0.0327134 0)
(7.35769 -0.0375478 0)
(7.35987 -0.0427766 0)
(7.36207 -0.0484125 0)
(7.36431 -0.0544691 0)
(7.36657 -0.0609615 0)
(7.36886 -0.0679055 0)
(7.37117 -0.0753188 0)
(7.3735 -0.0832202 0)
(7.37584 -0.0916303 0)
(7.37818 -0.100571 0)
(7.38052 -0.110065 0)
(7.38284 -0.120136 0)
(7.38513 -0.13081 0)
(7.38735 -0.142112 0)
(7.3895 -0.154065 0)
(7.39153 -0.166697 0)
(7.3934 -0.180006 0)
(7.33302 -0.000200144 0)
(7.33328 -0.000692971 0)
(7.33382 -0.00133997 0)
(7.3346 -0.00218481 0)
(7.33556 -0.00325461 0)
(7.33669 -0.00457111 0)
(7.33795 -0.00615249 0)
(7.33933 -0.00801337 0)
(7.34081 -0.0101661 0)
(7.34235 -0.012622 0)
(7.34396 -0.0153918 0)
(7.34561 -0.0184859 0)
(7.3473 -0.0219149 0)
(7.34902 -0.0256894 0)
(7.35076 -0.0298203 0)
(7.35251 -0.034319 0)
(7.35427 -0.0391972 0)
(7.35604 -0.0444672 0)
(7.35781 -0.0501421 0)
(7.35957 -0.0562357 0)
(7.36133 -0.0627625 0)
(7.36307 -0.0697381 0)
(7.3648 -0.0771791 0)
(7.3665 -0.0851028 0)
(7.36817 -0.0935273 0)
(7.36979 -0.102472 0)
(7.37136 -0.111956 0)
(7.37285 -0.121998 0)
(7.37425 -0.132619 0)
(7.37553 -0.143837 0)
(7.37667 -0.155669 0)
(7.37763 -0.168134 0)
(7.37839 -0.181223 0)
(7.33302 -0.000285291 0)
(7.33325 -0.000944895 0)
(7.33372 -0.00174826 0)
(7.33441 -0.00273591 0)
(7.33526 -0.00393426 0)
(7.33625 -0.00536552 0)
(7.33735 -0.00704887 0)
(7.33855 -0.00900036 0)
(7.33982 -0.0112339 0)
(7.34115 -0.0137622 0)
(7.34251 -0.0165973 0)
(7.3439 -0.0197507 0)
(7.3453 -0.0232337 0)
(7.34671 -0.0270578 0)
(7.34811 -0.0312343 0)
(7.3495 -0.0357749 0)
(7.35088 -0.0406914 0)
(7.35223 -0.0459961 0)
(7.35355 -0.0517016 0)
(7.35484 -0.0578211 0)
(7.35608 -0.0643683 0)
(7.35727 -0.0713576 0)
(7.3584 -0.0788035 0)
(7.35947 -0.0867211 0)
(7.36046 -0.095126 0)
(7.36136 -0.104033 0)
(7.36215 -0.113459 0)
(7.36282 -0.123417 0)
(7.36334 -0.133921 0)
(7.3637 -0.144984 0)
(7.36386 -0.156616 0)
(7.36379 -0.16883 0)
(7.36346 -0.181609 0)
(7.33302 -0.000362566 0)
(7.33322 -0.00117285 0)
(7.33363 -0.0021164 0)
(7.33423 -0.00323041 0)
(7.33497 -0.00453995 0)
(7.33582 -0.00606682 0)
(7.33676 -0.00783036 0)
(7.33778 -0.00984723 0)
(7.33885 -0.0121323 0)
(7.33994 -0.0146992 0)
(7.34106 -0.0175611 0)
(7.34217 -0.0207304 0)
(7.34328 -0.0242194 0)
(7.34436 -0.0280401 0)
(7.34542 -0.0322046 0)
(7.34644 -0.036725 0)
(7.34742 -0.0416132 0)
(7.34834 -0.0468815 0)
(7.3492 -0.0525424 0)
(7.34999 -0.0586086 0)
(7.35071 -0.0650929 0)
(7.35134 -0.0720082 0)
(7.35187 -0.0793677 0)
(7.3523 -0.0871844 0)
(7.35261 -0.0954709 0)
(7.35279 -0.104239 0)
(7.35282 -0.113501 0)
(7.35268 -0.123268 0)
(7.35235 -0.133547 0)
(7.35181 -0.144346 0)
(7.35103 -0.155671 0)
(7.34998 -0.167527 0)
(7.34865 -0.179894 0)
(7.33302 -0.000432203 0)
(7.33319 -0.00137778 0)
(7.33355 -0.00244668 0)
(7.33407 -0.00367342 0)
(7.3347 -0.0050825 0)
(7.33542 -0.00669597 0)
(7.33622 -0.00853388 0)
(7.33706 -0.0106138 0)
(7.33793 -0.0129516 0)
(7.33881 -0.0155617 0)
(7.33968 -0.0184578 0)
(7.34054 -0.0216528 0)
(7.34135 -0.0251592 0)
(7.34213 -0.0289891 0)
(7.34285 -0.0331543 0)
(7.3435 -0.0376666 0)
(7.34408 -0.0425375 0)
(7.34458 -0.0477786 0)
(7.34498 -0.0534014 0)
(7.34529 -0.0594174 0)
(7.34548 -0.0658378 0)
(7.34555 -0.0726739 0)
(7.3455 -0.0799365 0)
(7.34529 -0.0876359 0)
(7.34494 -0.0957817 0)
(7.3444 -0.104383 0)
(7.34368 -0.113447 0)
(7.34276 -0.12298 0)
(7.3416 -0.132987 0)
(7.34019 -0.14347 0)
(7.33851 -0.154428 0)
(7.33653 -0.165862 0)
(7.33423 -0.177751 0)
(7.33301 -0.000494324 0)
(7.33316 -0.00155909 0)
(7.33347 -0.0027352 0)
(7.33391 -0.00405315 0)
(7.33443 -0.00553529 0)
(7.33503 -0.00720256 0)
(7.33567 -0.00907467 0)
(7.33633 -0.0111696 0)
(7.337 -0.0135041 0)
(7.33765 -0.0160936 0)
(7.33827 -0.0189529 0)
(7.33884 -0.0220961 0)
(7.33936 -0.0255363 0)
(7.33981 -0.0292866 0)
(7.34017 -0.0333591 0)
(7.34044 -0.037766 0)
(7.34062 -0.0425188 0)
(7.34068 -0.0476288 0)
(7.34062 -0.0531069 0)
(7.34043 -0.0589637 0)
(7.34009 -0.0652095 0)
(7.33961 -0.0718538 0)
(7.33896 -0.0789056 0)
(7.33813 -0.0863731 0)
(7.33711 -0.0942633 0)
(7.33589 -0.102582 0)
(7.33445 -0.111334 0)
(7.33276 -0.120523 0)
(7.33082 -0.130147 0)
(7.32859 -0.140208 0)
(7.32607 -0.1507 0)
(7.32323 -0.16162 0)
(7.32005 -0.172944 0)
(7.33301 -0.000549641 0)
(7.33314 -0.00172077 0)
(7.33341 -0.00299361 0)
(7.33378 -0.00439682 0)
(7.33421 -0.0059529 0)
(7.3347 -0.00768316 0)
(7.33521 -0.00960754 0)
(7.33571 -0.0117441 0)
(7.3362 -0.0141095 0)
(7.33665 -0.0167191 0)
(7.33704 -0.0195872 0)
(7.33736 -0.0227273 0)
(7.3376 -0.0261523 0)
(7.33774 -0.0298743 0)
(7.33778 -0.033905 0)
(7.33769 -0.0382556 0)
(7.33748 -0.0429368 0)
(7.33712 -0.0479587 0)
(7.33661 -0.053331 0)
(7.33594 -0.0590628 0)
(7.3351 -0.0651627 0)
(7.33408 -0.0716383 0)
(7.33285 -0.0784965 0)
(7.33142 -0.0857427 0)
(7.32977 -0.0933816 0)
(7.32788 -0.101416 0)
(7.32574 -0.109847 0)
(7.32333 -0.118675 0)
(7.32063 -0.127896 0)
(7.31763 -0.137506 0)
(7.31431 -0.147498 0)
(7.31064 -0.157863 0)
(7.30662 -0.168578 0)
(7.33301 -0.000597891 0)
(7.33312 -0.00185726 0)
(7.33334 -0.00320004 0)
(7.33363 -0.00464883 0)
(7.33397 -0.00622349 0)
(7.33433 -0.00794475 0)
(7.33468 -0.00983329 0)
(7.33501 -0.0119089 0)
(7.33529 -0.0141901 0)
(7.33552 -0.0166942 0)
(7.33566 -0.0194373 0)
(7.3357 -0.0224344 0)
(7.33564 -0.0256992 0)
(7.33546 -0.0292447 0)
(7.33514 -0.033083 0)
(7.33468 -0.0372252 0)
(7.33407 -0.0416817 0)
(7.33328 -0.0464623 0)
(7.33232 -0.0515758 0)
(7.33117 -0.0570303 0)
(7.32982 -0.0628332 0)
(7.32826 -0.0689907 0)
(7.32647 -0.0755078 0)
(7.32445 -0.0823884 0)
(7.32218 -0.0896348 0)
(7.31965 -0.0972478 0)
(7.31685 -0.105226 0)
(7.31375 -0.113568 0)
(7.31035 -0.122268 0)
(7.30663 -0.131318 0)
(7.30258 -0.140711 0)
(7.29818 -0.150436 0)
(7.29343 -0.160468 0)
(7.33301 -0.000642148 0)
(7.33311 -0.00198811 0)
(7.33331 -0.00341173 0)
(7.33357 -0.00493518 0)
(7.33385 -0.00657855 0)
(7.33413 -0.00836122 0)
(7.33439 -0.0103018 0)
(7.33459 -0.012418 0)
(7.33473 -0.0147267 0)
(7.33477 -0.0172434 0)
(7.33471 -0.0199828 0)
(7.33452 -0.0229588 0)
(7.3342 -0.0261841 0)
(7.33373 -0.0296708 0)
(7.3331 -0.0334301 0)
(7.3323 -0.0374724 0)
(7.33132 -0.0418071 0)
(7.33014 -0.0464429 0)
(7.32876 -0.0513877 0)
(7.32716 -0.0566482 0)
(7.32533 -0.0622302 0)
(7.32327 -0.0681382 0)
(7.32095 -0.0743756 0)
(7.31838 -0.0809442 0)
(7.31553 -0.0878441 0)
(7.31239 -0.095074 0)
(7.30896 -0.102631 0)
(7.30522 -0.110509 0)
(7.30116 -0.118701 0)
(7.29676 -0.127198 0)
(7.29202 -0.135989 0)
(7.28692 -0.145061 0)
(7.28145 -0.154391 0)
(7.33301 -0.000678678 0)
(7.33308 -0.00207745 0)
(7.33323 -0.00351403 0)
(7.33341 -0.00500391 0)
(7.33359 -0.00656977 0)
(7.33374 -0.00823614 0)
(7.33385 -0.0100272 0)
(7.33388 -0.0119658 0)
(7.33381 -0.014073 0)
(7.33364 -0.0163674 0)
(7.33333 -0.018866 0)
(7.33288 -0.0215837 0)
(7.33228 -0.024534 0)
(7.3315 -0.0277292 0)
(7.33054 -0.03118 0)
(7.32938 -0.0348964 0)
(7.32802 -0.0388871 0)
(7.32644 -0.0431599 0)
(7.32462 -0.0477216 0)
(7.32257 -0.0525779 0)
(7.32027 -0.0577334 0)
(7.31771 -0.0631915 0)
(7.31488 -0.0689542 0)
(7.31176 -0.0750221 0)
(7.30836 -0.0813943 0)
(7.30466 -0.0880682 0)
(7.30064 -0.0950395 0)
(7.2963 -0.102302 0)
(7.29164 -0.109848 0)
(7.28663 -0.117667 0)
(7.28129 -0.125748 0)
(7.27558 -0.13408 0)
(7.26954 -0.142637 0)
(7.33301 -0.000723293 0)
(7.33312 -0.00222596 0)
(7.33331 -0.00377875 0)
(7.33352 -0.00539132 0)
(7.33371 -0.00707837 0)
(7.33384 -0.00885563 0)
(7.33389 -0.0107407 0)
(7.33384 -0.0127524 0)
(7.33366 -0.0149087 0)
(7.33334 -0.0172265 0)
(7.33286 -0.0197217 0)
(7.33221 -0.0224089 0)
(7.33137 -0.0253015 0)
(7.33034 -0.0284115 0)
(7.3291 -0.0317498 0)
(7.32763 -0.0353262 0)
(7.32594 -0.0391492 0)
(7.324 -0.0432262 0)
(7.32181 -0.0475632 0)
(7.31936 -0.0521653 0)
(7.31664 -0.057036 0)
(7.31363 -0.0621774 0)
(7.31033 -0.0675904 0)
(7.30673 -0.0732739 0)
(7.30282 -0.0792256 0)
(7.2986 -0.085441 0)
(7.29404 -0.0919143 0)
(7.28916 -0.0986377 0)
(7.28393 -0.105602 0)
(7.27835 -0.112795 0)
(7.27242 -0.120204 0)
(7.26612 -0.127816 0)
(7.25947 -0.135607 0)
(7.333 -0.000746574 0)
(7.33305 -0.00222419 0)
(7.33315 -0.0036501 0)
(7.33326 -0.00505469 0)
(7.33334 -0.00648041 0)
(7.33334 -0.0079603 0)
(7.33326 -0.00952356 0)
(7.33305 -0.0111968 0)
(7.33269 -0.0130023 0)
(7.33218 -0.0149584 0)
(7.33149 -0.017081 0)
(7.3306 -0.0193835 0)
(7.32951 -0.0218779 0)
(7.3282 -0.0245745 0)
(7.32665 -0.0274824 0)
(7.32487 -0.0306096 0)
(7.32283 -0.033963 0)
(7.32052 -0.0375488 0)
(7.31794 -0.0413718 0)
(7.31508 -0.045436 0)
(7.31193 -0.0497443 0)
(7.30848 -0.0542982 0)
(7.30472 -0.0590981 0)
(7.30064 -0.064143 0)
(7.29625 -0.0694304 0)
(7.29153 -0.0749563 0)
(7.28648 -0.0807152 0)
(7.28109 -0.0867001 0)
(7.27536 -0.0929024 0)
(7.26929 -0.099312 0)
(7.26288 -0.105917 0)
(7.25613 -0.112706 0)
(7.24905 -0.119659 0)
(7.33304 -0.000845573 0)
(7.33326 -0.00260221 0)
(7.33356 -0.00434515 0)
(7.33382 -0.00605558 0)
(7.33398 -0.00775133 0)
(7.33402 -0.00945386 0)
(7.33392 -0.0111892 0)
(7.33366 -0.0129845 0)
(7.33321 -0.0148643 0)
(7.33258 -0.01685 0)
(7.33173 -0.018961 0)
(7.33068 -0.0212139 0)
(7.32939 -0.0236233 0)
(7.32786 -0.0262016 0)
(7.32608 -0.0289596 0)
(7.32404 -0.0319065 0)
(7.32172 -0.0350497 0)
(7.31912 -0.0383956 0)
(7.31623 -0.0419489 0)
(7.31304 -0.0457131 0)
(7.30954 -0.0496902 0)
(7.30573 -0.0538807 0)
(7.30159 -0.0582839 0)
(7.29712 -0.0628974 0)
(7.29231 -0.0677173 0)
(7.28716 -0.072738 0)
(7.28167 -0.0779526 0)
(7.27583 -0.0833525 0)
(7.26965 -0.0889277 0)
(7.2631 -0.0946668 0)
(7.25621 -0.100557 0)
(7.24896 -0.106585 0)
(7.24136 -0.112732 0)
(7.33298 -0.000797433 0)
(7.33301 -0.00221716 0)
(7.33318 -0.00344416 0)
(7.33335 -0.00460079 0)
(7.33345 -0.00574912 0)
(7.33343 -0.00691683 0)
(7.33325 -0.00813592 0)
(7.3329 -0.00943343 0)
(7.33234 -0.0108275 0)
(7.33157 -0.0123322 0)
(7.33057 -0.0139598 0)
(7.32933 -0.0157208 0)
(7.32783 -0.0176242 0)
(7.32606 -0.019678 0)
(7.32402 -0.0218894 0)
(7.32169 -0.0242648 0)
(7.31906 -0.02681 0)
(7.31613 -0.0295299 0)
(7.31288 -0.0324288 0)
(7.30932 -0.0355099 0)
(7.30543 -0.0387759 0)
(7.3012 -0.0422282 0)
(7.29664 -0.0458672 0)
(7.29174 -0.0496923 0)
(7.2865 -0.0537016 0)
(7.28091 -0.0578918 0)
(7.27497 -0.0622585 0)
(7.26869 -0.0667959 0)
(7.26206 -0.0714969 0)
(7.25509 -0.076353 0)
(7.24778 -0.0813543 0)
(7.24013 -0.0864907 0)
(7.23217 -0.0917442 0)
(7.33313 -0.00127951 0)
(7.33372 -0.00374029 0)
(7.33431 -0.00580208 0)
(7.33468 -0.00757092 0)
(7.33486 -0.00916041 0)
(7.33486 -0.0106276 0)
(7.33465 -0.0120326 0)
(7.33421 -0.0134273 0)
(7.33355 -0.0148489 0)
(7.33265 -0.0163263 0)
(7.3315 -0.0178823 0)
(7.3301 -0.0195352 0)
(7.32842 -0.021299 0)
(7.32647 -0.0231853 0)
(7.32422 -0.0252032 0)
(7.32167 -0.0273602 0)
(7.3188 -0.0296622 0)
(7.3156 -0.0321134 0)
(7.31208 -0.0347172 0)
(7.30821 -0.0374754 0)
(7.30398 -0.0403885 0)
(7.29941 -0.0434559 0)
(7.29446 -0.0466756 0)
(7.28915 -0.0500445 0)
(7.28348 -0.0535581 0)
(7.27743 -0.0572106 0)
(7.271 -0.0609949 0)
(7.26421 -0.0649028 0)
(7.25705 -0.0689247 0)
(7.24952 -0.0730501 0)
(7.24164 -0.0772668 0)
(7.2334 -0.0815634 0)
(7.22483 -0.0859206 0)
(7.33302 -0.000623202 0)
(7.3335 -0.00165331 0)
(7.33428 -0.0024977 0)
(7.33491 -0.0033219 0)
(7.33533 -0.00412536 0)
(7.33555 -0.00492158 0)
(7.33554 -0.00574222 0)
(7.33527 -0.00660045 0)
(7.33476 -0.00750329 0)
(7.334 -0.00845968 0)
(7.333 -0.00947813 0)
(7.33174 -0.010566 0)
(7.33023 -0.0117304 0)
(7.32846 -0.012978 0)
(7.32644 -0.0143152 0)
(7.32416 -0.0157479 0)
(7.32162 -0.017282 0)
(7.31883 -0.0189225 0)
(7.31578 -0.0206745 0)
(7.31249 -0.0225424 0)
(7.30895 -0.0245303 0)
(7.30518 -0.0266419 0)
(7.30118 -0.0288798 0)
(7.29697 -0.0312465 0)
(7.29256 -0.0337433 0)
(7.28796 -0.0363711 0)
(7.28319 -0.0391296 0)
(7.27826 -0.0420181 0)
(7.2732 -0.0450344 0)
(7.26803 -0.0481762 0)
(7.26276 -0.0514391 0)
(7.25742 -0.0548206 0)
(7.25204 -0.0583102 0)
(7.33444 -0.00389006 0)
(7.33944 -0.00764362 0)
(7.34543 -0.00955224 0)
(7.35196 -0.0110043 0)
(7.35893 -0.0121006 0)
(7.36611 -0.0129651 0)
(7.37337 -0.0137534 0)
(7.38068 -0.0145355 0)
(7.38799 -0.0153452 0)
(7.3953 -0.0162091 0)
(7.40259 -0.0171461 0)
(7.40985 -0.0181691 0)
(7.4171 -0.019288 0)
(7.42432 -0.0205109 0)
(7.43152 -0.0218447 0)
(7.4387 -0.0232954 0)
(7.44587 -0.0248685 0)
(7.45302 -0.0265687 0)
(7.46014 -0.0284004 0)
(7.46725 -0.0303673 0)
(7.47432 -0.0324727 0)
(7.48136 -0.0347189 0)
(7.48835 -0.0371078 0)
(7.49527 -0.0396401 0)
(7.50213 -0.0423159 0)
(7.50889 -0.045134 0)
(7.51554 -0.0480921 0)
(7.52205 -0.0511869 0)
(7.5284 -0.0544141 0)
(7.53457 -0.0577673 0)
(7.54053 -0.0612412 0)
(7.54623 -0.0648253 0)
(7.55165 -0.0685145 0)
(7.32967 -0.00422404 0)
(7.3237 -0.00906365 0)