/*--------------------------------*- C++ -*----------------------------------*\
  =========                 |
  \\      /  F ield         | OpenFOAM: The Open Source CFD Toolbox
   \\    /   O peration     | Website:  https://openfoam.org
    \\  /    A nd           | Version:  10
     \\/     M anipulation  |
\*---------------------------------------------------------------------------*/
FoamFile
{
    format      ascii;
    class       volScalarField;
    location    "0.16";
    object      k;
}
// * * * * * * * * * * * * * * * * * * * * * * * * * * * * * * * * * * * * * //

dimensions      [0 2 -2 0 0 0 0];

internalField   nonuniform List<scalar> 
6820
(
0.198347
0.194832
0.191272
0.187709
0.184195
0.180758
0.177412
0.174164
0.171016
0.167969
0.165023
0.162176
0.159427
0.156773
0.154213
0.151744
0.149368
0.147082
0.14489
0.142792
0.140791
0.138893
0.137102
0.135425
0.13387
0.132442
0.131152
0.130008
0.129004
0.128129
0.127407
0.126757
0.126863
0.200924
0.200882
0.200418
0.199905
0.19937
0.198804
0.198201
0.197561
0.196883
0.19617
0.195426
0.194653
0.193855
0.193037
0.1922
0.191349
0.190483
0.189606
0.188718
0.18782
0.186911
0.18599
0.185057
0.184111
0.183148
0.182166
0.181179
0.180114
0.178927
0.177613
0.176156
0.174542
0.172731
0.236777
0.0163069
0.014322
0.0107022
0.00645741
0.00732811
0.00882551
0.0105162
0.0123135
0.0141237
0.0159144
0.0176651
0.0193607
0.0209899
0.0225435
0.0240135
0.0253925
0.0266734
0.0278488
0.0289107
0.0298503
0.030658
0.0313246
0.0318356
0.0321822
0.0323784
0.0324066
0.0323354
0.0322002
0.0320006
0.0317255
0.0313685
0.030891
0.210828
0.14767
0.104342
0.0788224
0.0631193
0.0525355
0.0447771
0.0387316
0.0338195
0.029714
0.0262159
0.0231955
0.0205637
0.0182566
0.0162263
0.0144363
0.0128574
0.0114661
0.0102421
0.00916799
0.00822815
0.0074079
0.00669377
0.00607781
0.00554705
0.00506873
0.00463123
0.00422911
0.00385944
0.00352121
0.00321214
0.00293022
0.00267111
0.223134
0.0842166
0.0226668
0.00506578
0.0011905
0.000695634
0.000848774
0.0010505
0.00121451
0.00134592
0.00145424
0.00154384
0.00161644
0.00167316
0.00171531
0.00174458
0.00176294
0.00177257
0.0017756
0.00177517
0.00177147
0.00176229
0.00174781
0.0017271
0.00170076
0.0016698
0.00163525
0.00159832
0.00156033
0.0015226
0.00148642
0.00145329
0.00142429
0.216029
0.11986
0.0627403
0.0392159
0.0297857
0.0253237
0.022386
0.0197406
0.0170845
0.0144736
0.0120701
0.0100078
0.00834386
0.00706715
0.00612181
0.00544344
0.00497182
0.00465726
0.0044617
0.00436111
0.00433664
0.00437615
0.00446764
0.00460117
0.00476858
0.00496346
0.00518091
0.0054157
0.00566383
0.00592264
0.00619029
0.00646628
0.00675062
0.213071
0.134726
0.0778455
0.050859
0.0395056
0.0349109
0.0332406
0.0329353
0.0333484
0.0341446
0.0351189
0.0361425
0.0371235
0.0379999
0.038744
0.0393426
0.0397901
0.0400919
0.0402579
0.0402944
0.0402151
0.0400366
0.0397763
0.0394512
0.0390771
0.0386682
0.038236
0.0377896
0.037335
0.0368761
0.036415
0.0359557
0.0354894
0.204697
0.177214
0.14391
0.112356
0.0900591
0.0772139
0.0708141
0.0683774
0.0682661
0.0693373
0.0707917
0.0722922
0.0737242
0.0750419
0.0762262
0.0772501
0.078092
0.0787361
0.0791822
0.079441
0.0795292
0.0794661
0.0792708
0.0789609
0.0785485
0.07804
0.0774359
0.0767339
0.0759324
0.0750347
0.0740498
0.0729984
0.0718834
0.204183
0.180132
0.157886
0.140252
0.125797
0.115391
0.108652
0.104709
0.102702
0.101878
0.10165
0.101758
0.102094
0.102597
0.103187
0.103794
0.104369
0.104895
0.105367
0.105785
0.106151
0.106469
0.106741
0.106968
0.107147
0.107269
0.107322
0.107292
0.107166
0.106936
0.1066
0.106164
0.105625
0.204568
0.178625
0.156678
0.141912
0.131054
0.122828
0.116785
0.112549
0.109744
0.108016
0.107065
0.106667
0.106647
0.106873
0.107241
0.107686
0.108168
0.108674
0.109195
0.10973
0.110276
0.110834
0.111401
0.111973
0.112544
0.113109
0.113664
0.114207
0.114736
0.115253
0.115754
0.116241
0.116704
0.205295
0.175589
0.150706
0.135176
0.12523
0.118469
0.113702
0.11029
0.107883
0.106243
0.10519
0.104589
0.10431
0.104254
0.104362
0.104601
0.104948
0.105385
0.105903
0.106498
0.107168
0.107911
0.108727
0.109608
0.110549
0.111542
0.112578
0.113651
0.114752
0.115871
0.116999
0.118124
0.119237
0.206329
0.171211
0.142663
0.125436
0.114961
0.108196
0.103601
0.100384
0.0981298
0.0965922
0.095593
0.0949994
0.0947022
0.0946155
0.0946916
0.0949012
0.0952252
0.0956508
0.0961737
0.0967952
0.0975196
0.0983524
0.0992978
0.100358
0.101532
0.102816
0.104202
0.105682
0.107243
0.10887
0.110549
0.112259
0.113991
0.207723
0.165231
0.132244
0.113038
0.101851
0.0949917
0.0906134
0.0877643
0.0859333
0.084816
0.0842018
0.0839392
0.0839213
0.0840659
0.0843143
0.0846305
0.0849966
0.0854084
0.0858735
0.0864078
0.0870319
0.0877684
0.0886395
0.0896644
0.0908574
0.0922271
0.0937751
0.0954956
0.0973768
0.0994005
0.101545
0.103781
0.106093
0.209535
0.157267
0.11966
0.0990207
0.0876506
0.0810927
0.077249
0.0750777
0.074
0.0736499
0.0737645
0.074148
0.0746646
0.0752191
0.0757447
0.0762037
0.0765829
0.0768878
0.0771397
0.0773726
0.0776288
0.0779561
0.0784043
0.0790212
0.0798495
0.0809233
0.0822654
0.0838864
0.0857836
0.0879414
0.0903351
0.0929269
0.0956895
0.211757
0.147084
0.105245
0.0841195
0.0734466
0.0679967
0.065454
0.0646836
0.0650227
0.0660262
0.0673696
0.0688125
0.0701874
0.0713846
0.0723368
0.0730126
0.0734079
0.0735403
0.0734451
0.0731729
0.0727876
0.0723642
0.0719853
0.0717375
0.0717054
0.0719656
0.0725813
0.0735977
0.0750384
0.0769051
0.0791795
0.081821
0.0847899
0.214247
0.134862
0.0900323
0.0698678
0.0611232
0.0578669
0.0575902
0.0590402
0.0614463
0.0642774
0.067162
0.0698469
0.0721709
0.0740424
0.075417
0.0762838
0.0766551
0.0765592
0.0760379
0.0751463
0.0739547
0.0725502
0.0710369
0.0695335
0.0681675
0.0670678
0.0663544
0.0661296
0.0664693
0.0674178
0.0689869
0.0711526
0.0738708
0.216661
0.121605
0.0758162
0.0583052
0.0528256
0.0528473
0.0556615
0.0598784
0.0646379
0.0693761
0.0737381
0.0775196
0.0806199
0.0830054
0.0846797
0.0856661
0.0859966
0.0857059
0.0848306
0.0834127
0.0815051
0.0791795
0.0765318
0.0736859
0.0707916
0.0680186
0.0655448
0.0635424
0.0621636
0.0615264
0.0617066
0.0627316
0.0645758
0.218445
0.109505
0.0651832
0.051882
0.0507202
0.0546411
0.0607459
0.0675671
0.0742621
0.0803537
0.0856059
0.0899352
0.0933443
0.0958786
0.0975971
0.0985575
0.0988082
0.0983851
0.0973126
0.0956075
0.0932881
0.0903849
0.0869523
0.0830796
0.0788973
0.0745772
0.0703255
0.0663691
0.0629366
0.0602373
0.0584415
0.0576695
0.0579506
0.21899
0.101768
0.0610273
0.0527301
0.0560341
0.0634759
0.0721006
0.0805458
0.0881573
0.0946654
0.100017
0.104268
0.107517
0.109871
0.111425
0.112255
0.112416
0.111942
0.110843
0.109114
0.106737
0.103696
0.0999872
0.0956392
0.0907235
0.0853672
0.0797552
0.0741244
0.0687477
0.0639104
0.0598818
0.0569
0.0550837
0.217925
0.101527
0.0655338
0.0616915
0.0683084
0.077821
0.0874646
0.0961709
0.103573
0.109627
0.114435
0.118145
0.12091
0.122861
0.124104
0.12472
0.124762
0.124261
0.123221
0.121624
0.119431
0.116589
0.113046
0.108763
0.103736
0.0980141
0.0917146
0.0850292
0.0782192
0.0715994
0.0655063
0.0602842
0.0561529
0.21539
0.110087
0.0788936
0.0776198
0.085405
0.0950452
0.104142
0.111954
0.118347
0.123421
0.127349
0.130312
0.132466
0.13394
0.134829
0.135206
0.13512
0.134597
0.13364
0.132229
0.130318
0.12784
0.124711
0.120844
0.116166
0.110643
0.1043
0.0972467
0.0896805
0.0818881
0.0742184
0.0670784
0.0607707
0.212051
0.125641
0.0986406
0.0976158
0.104405
0.112566
0.120054
0.126327
0.13135
0.135256
0.138216
0.140392
0.141921
0.14291
0.143438
0.143566
0.143334
0.142763
0.141858
0.140603
0.138959
0.136858
0.134211
0.130904
0.126821
0.121857
0.11595
0.10911
0.10144
0.0931493
0.0845428
0.0760339
0.0679684
0.208751
0.143784
0.120501
0.118221
0.122741
0.128622
0.134085
0.138646
0.142259
0.145021
0.147062
0.148507
0.149461
0.150007
0.150206
0.150103
0.149728
0.149098
0.148218
0.147075
0.145641
0.143861
0.141652
0.1389
0.135466
0.131206
0.125987
0.119729
0.112431
0.104202
0.0952645
0.0859835
0.0767028
0.206046
0.160212
0.140572
0.136795
0.138837
0.142375
0.145862
0.148815
0.151137
0.152866
0.154084
0.154874
0.155313
0.155459
0.155357
0.155038
0.154524
0.153824
0.152941
0.151865
0.150577
0.149038
0.147179
0.144901
0.142066
0.13851
0.13406
0.128564
0.12193
0.11416
0.105375
0.0958545
0.0859025
0.204076
0.172888
0.156859
0.152108
0.152118
0.153664
0.155458
0.157033
0.158247
0.159092
0.159604
0.159835
0.159833
0.159639
0.159281
0.158781
0.158149
0.157385
0.15649
0.155454
0.154265
0.152895
0.151293
0.14938
0.147032
0.144088
0.140353
0.135631
0.129756
0.122638
0.114292
0.104901
0.0947038
0.20273
0.181801
0.169111
0.164032
0.162629
0.162644
0.16307
0.163496
0.163767
0.163843
0.163735
0.163468
0.163071
0.16257
0.161984
0.16132
0.160574
0.159739
0.158811
0.157786
0.156655
0.155397
0.153977
0.152335
0.15037
0.147932
0.144825
0.140826
0.135719
0.129337
0.121605
0.112604
0.102498
0.201838
0.187795
0.177955
0.173011
0.170731
0.169637
0.169004
0.168507
0.168004
0.167451
0.166832
0.16615
0.165418
0.164652
0.163863
0.163049
0.162201
0.161309
0.160359
0.159342
0.158247
0.15706
0.155763
0.154312
0.152633
0.150594
0.148013
0.14466
0.140287
0.134672
0.12766
0.119237
0.109486
0.201247
0.191778
0.184248
0.179678
0.176881
0.174961
0.173454
0.172139
0.170921
0.169765
0.168631
0.167486
0.166339
0.165212
0.164124
0.163085
0.162091
0.16113
0.160173
0.159191
0.158163
0.157075
0.155912
0.154647
0.153225
0.151543
0.149438
0.146693
0.143047
0.138244
0.132066
0.124413
0.115288
0.200859
0.194403
0.188632
0.184464
0.181329
0.178766
0.176538
0.174529
0.172696
0.171028
0.169508
0.168108
0.166806
0.165589
0.16445
0.163385
0.162383
0.16143
0.160498
0.159559
0.15859
0.157575
0.156502
0.155355
0.154097
0.152649
0.150872
0.148565
0.145472
0.141318
0.135846
0.128889
0.120387
0.200587
0.196237
0.191879
0.188107
0.184675
0.181439
0.178358
0.175425
0.172685
0.170199
0.168002
0.166098
0.164472
0.163093
0.161919
0.1609
0.159997
0.159171
0.158386
0.157605
0.1568
0.155948
0.155035
0.15405
0.152963
0.151713
0.150185
0.148199
0.145515
0.141863
0.136972
0.13064
0.122763
0.200428
0.197332
0.193708
0.189847
0.185777
0.181703
0.177858
0.174398
0.1714
0.168871
0.166779
0.165066
0.16367
0.162529
0.161586
0.160788
0.16009
0.159453
0.158841
0.15822
0.15756
0.156839
0.156043
0.155159
0.154161
0.152994
0.151548
0.149653
0.147077
0.143552
0.138807
0.13263
0.124908
0.200291
0.198216
0.195125
0.19088
0.185713
0.180213
0.174958
0.170325
0.166468
0.16338
0.160975
0.159135
0.157741
0.156685
0.155875
0.155235
0.154705
0.154234
0.153775
0.153289
0.15274
0.152098
0.151339
0.150435
0.149343
0.147993
0.146266
0.143997
0.140975
0.136972
0.131774
0.125234
0.117288
0.200412
0.197573
0.192375
0.18529
0.177625
0.170553
0.164684
0.160152
0.156821
0.154455
0.152817
0.151706
0.150961
0.150458
0.150103
0.149825
0.149568
0.149286
0.14894
0.148495
0.147916
0.14717
0.146223
0.145036
0.143557
0.141709
0.139388
0.136462
0.132776
0.128171
0.122511
0.115717
0.10777
0.20079
0.195214
0.185538
0.174284
0.163672
0.154858
0.148125
0.143289
0.139991
0.137857
0.136565
0.135855
0.135529
0.135432
0.135448
0.135486
0.135476
0.135359
0.135086
0.134611
0.13389
0.132876
0.131519
0.129761
0.127529
0.124744
0.121316
0.117158
0.11219
0.106365
0.0996671
0.0921509
0.0838871
0.202115
0.188046
0.169988
0.149745
0.13442
0.125178
0.119953
0.116963
0.115156
0.11405
0.113409
0.113048
0.112807
0.112567
0.112246
0.111793
0.111168
0.110338
0.109277
0.107964
0.106381
0.104504
0.1023
0.0997152
0.096675
0.093092
0.0888825
0.0839888
0.0783998
0.072166
0.065397
0.0582724
0.0509527
0.206282
0.166491
0.125789
0.0914819
0.0679807
0.0526572
0.0421801
0.0346091
0.0289567
0.0247142
0.0215588
0.0192277
0.0175111
0.0162471
0.0152507
0.0144203
0.0137107
0.0130912
0.0125368
0.0120266
0.0115429
0.0110716
0.010602
0.0101259
0.00963778
0.00913449
0.00861521
0.00808182
0.00753914
0.00699506
0.00645948
0.00594656
0.00546158
0.210134
0.148912
0.105743
0.0811305
0.0672275
0.0588573
0.0533752
0.0494971
0.0465693
0.0442307
0.0422695
0.0405577
0.0390141
0.0375774
0.036193
0.0348277
0.0334671
0.0321054
0.0307416
0.0293778
0.0280181
0.0266679
0.0253335
0.024021
0.0227367
0.0214859
0.0202731
0.019102
0.0179753
0.0168954
0.0158635
0.0148833
0.013939
0.240223
0.000572973
0.0387674
0.000209166
3.70682e-05
0.00160237
0.00142956
0.000826022
0.000662044
0.000741228
0.000833402
0.000888523
0.00106613
0.00134498
0.00163349
0.00192286
0.00223644
0.00257868
0.00294255
0.00332388
0.00372211
0.00413637
0.00456442
0.00500363
0.00545161
0.00590614
0.00636497
0.00682575
0.00728607
0.00774364
0.00819571
0.0086393
0.00907068
0.200087
0.199967
0.199815
0.199688
0.199591
0.199522
0.199479
0.199458
0.199457
0.199475
0.199509
0.199558
0.199619
0.199691
0.199771
0.199858
0.19995
0.200045
0.200142
0.200238
0.200332
0.200424
0.200511
0.200593
0.200669
0.200737
0.200797
0.200848
0.200889
0.20092
0.200938
0.200948
0.200931
0.199874
0.199551
0.199192
0.198806
0.198403
0.197986
0.19756
0.197125
0.196683
0.196235
0.195784
0.19533
0.194875
0.19442
0.193968
0.193518
0.193074
0.192636
0.192205
0.191783
0.191371
0.190969
0.190579
0.190201
0.189836
0.189485
0.189147
0.188824
0.188517
0.188221
0.187933
0.187696
0.187531
0.128258
0.130343
0.131727
0.132039
0.131799
0.132017
0.132431
0.134094
0.139514
0.140101
0.12254
0.0856213
0.0438812
0.013975
0.00293284
0.00637693
0.0153281
0.0244341
0.0330028
0.0424794
0.0536714
0.0649387
0.0726746
0.0729361
0.0635313
0.0487222
0.0405741
0.04844
0.0668832
0.0802806
0.0834463
0.0890728
0.0977576
0.0962991
0.100258
0.135545
0.178936
0.164262
0.141319
0.187489
0.27875
0.361623
0.390938
0.363817
0.311813
0.253773
0.191539
0.137817
0.113473
0.120598
0.140196
0.153619
0.155379
0.149943
0.142668
0.133629
0.118905
0.0984635
0.0807603
0.0767224
0.0867689
0.0887966
0.065638
0.0719797
0.158311
0.26477
0.336318
0.380549
0.416623
0.442501
0.445684
0.427044
0.405355
0.377991
0.318724
0.229404
0.138148
0.0733115
0.0475849
0.0541143
0.0762462
0.0995561
0.116388
0.125009
0.127073
0.12502
0.120208
0.111929
0.0978382
0.0776413
0.060378
0.0624484
0.0782325
0.0853697
0.0780487
0.063206
0.0510035
0.0410464
0.0329038
0.0205404
0.1705
0.167377
0.164632
0.162176
0.159607
0.156872
0.154325
0.147839
0.130787
0.0994074
0.0626262
0.0299149
0.00884612
0.00191674
0.00570744
0.0145191
0.0245039
0.0341229
0.0433933
0.0531637
0.0637306
0.0734163
0.0790267
0.0774347
0.0669068
0.0508059
0.0402194
0.0456549
0.0640351
0.0800054
0.0843399
0.0878313
0.0960237
0.0965937
0.0986844
0.129459
0.17577
0.172829
0.146574
0.176618
0.256772
0.332059
0.358158
0.334204
0.290923
0.24336
0.189507
0.138625
0.112552
0.117987
0.138146
0.153225
0.156157
0.150982
0.143806
0.135953
0.123587
0.104458
0.0845759
0.075443
0.0826296
0.0909722
0.0749698
0.0646149
0.125272
0.229432
0.313266
0.364673
0.39826
0.418506
0.420835
0.406217
0.384806
0.346885
0.277805
0.190557
0.112294
0.0628683
0.047229
0.0568157
0.0779809
0.0995626
0.115286
0.123455
0.12537
0.123163
0.117964
0.109039
0.0946807
0.0759343
0.0618123
0.0649022
0.0783537
0.0827606
0.0738714
0.0584406
0.0455204
0.0350135
0.0265265
0.0157726
0.030291
0.0293448
0.0284338
0.0283673
0.0295358
0.0303732
0.0280592
0.0227803
0.0144831
0.00252901
0.00283736
0.00138785
0.00126574
0.00620219
0.0146326
0.0249843
0.0359539
0.0464069
0.0560482
0.065427
0.0746856
0.0822485
0.085345
0.0816274
0.069916
0.0527923
0.0400835
0.0430079
0.0608457
0.079146
0.0855515
0.0874128
0.0942041
0.0964306
0.0974738
0.123457
0.170784
0.179664
0.154217
0.167288
0.22991
0.294074
0.317245
0.299195
0.266063
0.229227
0.18442
0.137806
0.11123
0.115385
0.136065
0.152734
0.15685
0.151958
0.144722
0.137652
0.127493
0.110386
0.0895476
0.0757716
0.0783006
0.0898053
0.0835636
0.0650991
0.0973046
0.188274
0.280031
0.341925
0.378416
0.397218
0.398378
0.383042
0.355384
0.306287
0.232334
0.152694
0.0901091
0.0556519
0.048339
0.0596479
0.0794121
0.0993175
0.114056
0.12182
0.123592
0.121278
0.115861
0.106651
0.0924595
0.0751029
0.0630373
0.0661593
0.077618
0.0802347
0.0704366
0.0546534
0.0411445
0.0301649
0.0213326
0.0119442
0.00239203
0.00207114
0.00179875
0.00165309
0.00155429
0.00146714
0.00121725
0.000429732
8.21624e-05
0.000704688
0.00134018
0.00360593
0.00862102
0.0165467
0.0270077
0.0389662
0.0508726
0.061485
0.0706099
0.0788034
0.0861259
0.0911166
0.0914246
0.0854274
0.0725413
0.0546848
0.040198
0.0405544
0.0573852
0.0776201
0.0867428
0.0878417
0.0926405
0.0958311
0.0964976
0.117774
0.16424
0.184029
0.163593
0.162
0.203882
0.253924
0.274096
0.262772
0.239564
0.212737
0.176869
0.135398
0.109376
0.112742
0.13397
0.152173
0.157466
0.152879
0.145482
0.138829
0.130567
0.115936
0.0953777
0.0778882
0.0747445
0.0859025
0.0891527
0.0714905
0.0785386
0.146001
0.236536
0.308016
0.351326
0.372014
0.370689
0.350489
0.314534
0.257828
0.185685
0.118924
0.0733849
0.0521229
0.0506737
0.0622883
0.0803726
0.0987794
0.112687
0.120077
0.121697
0.119314
0.113814
0.104569
0.0908205
0.0748415
0.0642862
0.0668045
0.075982
0.0769938
0.0667656
0.0511577
0.0374971
0.0262704
0.0171602
0.00894792
0.00139965
0.00138599
0.00139309
0.00142076
0.00147224
0.00157178
0.00178494
0.00227619
0.00326509
0.00511787
0.00845017
0.0138397
0.0217188
0.0321534
0.0444738
0.0572381
0.0688529
0.0784381
0.0861301
0.0924834
0.0974184
0.0995736
0.097004
0.0887315
0.0747657
0.0564954
0.0406251
0.0384058
0.0537584
0.0754249
0.0875997
0.0889778
0.0916241
0.0949286
0.0956292
0.112585
0.156514
0.185396
0.173394
0.161926
0.183823
0.218517
0.235018
0.229115
0.213981
0.195549
0.167756
0.131652
0.106961
0.110046
0.131906
0.151576
0.158009
0.153737
0.146133
0.139599
0.132813
0.120809
0.101629
0.0817229
0.0727897
0.080496
0.090478
0.0802975
0.0710996
0.109289
0.186363
0.260963
0.311165
0.334553
0.329872
0.304434
0.263199
0.205421
0.142161
0.0920718
0.0629629
0.0518553
0.0535576
0.0643604
0.0807778
0.0979673
0.111171
0.118165
0.119598
0.11718
0.111716
0.102626
0.08947
0.0747476
0.0652252
0.0667058
0.0733741
0.0727685
0.0623019
0.0471636
0.0337169
0.0226111
0.0135488
0.00656919
0.0070978
0.00751789
0.00795571
0.00840826
0.00891911
0.00959814
0.0106234
0.0122384
0.0147434
0.0185384
0.0241316
0.0319561
0.042114
0.0540872
0.0666884
0.0784449
0.088246
0.0957821
0.101417
0.105548
0.10789
0.107172
0.101837
0.0914559
0.0765952
0.0582601
0.041448
0.0367074
0.0500896
0.0726121
0.0878716
0.0905466
0.0913311
0.0939413
0.0947761
0.107996
0.148073
0.183577
0.181964
0.166608
0.172146
0.192171
0.203859
0.200804
0.191227
0.179162
0.158042
0.126954
0.10404
0.10731
0.12992
0.150986
0.158487
0.154518
0.146694
0.140068
0.134308
0.124806
0.107846
0.0869771
0.0729353
0.0750675
0.0875826
0.0875579
0.0736561
0.0847086
0.137389
0.204025
0.25598
0.280045
0.273098
0.246774
0.206469
0.154855
0.106249
0.0741558
0.0587092
0.0538338
0.0561902
0.0655767
0.080637
0.0969284
0.109483
0.116001
0.1172
0.114792
0.109489
0.100718
0.0882511
0.0746365
0.0657589
0.0659779
0.0701393
0.0679335
0.057277
0.0427613
0.0298197
0.0191541
0.0104368
0.00476385
0.0349757
0.0343824
0.0337959
0.0332868
0.0329656
0.0330108
0.0336879
0.0353417
0.0383528
0.0431293
0.0499676
0.0588439
0.0692731
0.0803167
0.0908221
0.0998128
0.106804
0.111846
0.115244
0.117102
0.116914
0.113517
0.105719
0.0935379
0.0780434
0.0600166
0.0427588
0.0356347
0.0465362
0.0692693
0.0874147
0.0922145
0.0917851
0.0931155
0.0939087
0.104039
0.139413
0.178775
0.187786
0.174159
0.168674
0.176048
0.181764
0.179023
0.172613
0.164806
0.148627
0.121744
0.100739
0.104576
0.128075
0.150449
0.15891
0.155205
0.147167
0.14032
0.135171
0.127833
0.113598
0.0931876
0.0753122
0.0709841
0.0817238
0.0903367
0.081488
0.0753289
0.0996465
0.147026
0.191727
0.212809
0.207075
0.185756
0.152019
0.112401
0.0815611
0.0656877
0.0592564
0.0565402
0.0578121
0.0658372
0.0800736
0.0957218
0.107564
0.113466
0.114381
0.11204
0.107028
0.0987286
0.0870262
0.0743859
0.0658607
0.0647274
0.0665644
0.0629668
0.0522572
0.0384276
0.0260967
0.0160127
0.00782854
0.00348794
0.0706069
0.0691451
0.0677355
0.0665229
0.0656831
0.0654334
0.066048
0.0678309
0.0710446
0.0758551
0.0821956
0.089707
0.0977695
0.105636
0.112627
0.118295
0.122486
0.125249
0.12664
0.126455
0.124033
0.118338
0.108516
0.094943
0.0791217
0.0617823
0.0446315
0.035382
0.0432962
0.0654709
0.0861485
0.0936633
0.0928674
0.0926605
0.0930667
0.100696
0.131005
0.171542
0.189908
0.18201
0.171248
0.168884
0.168228
0.16403
0.158843
0.153306
0.140218
0.116439
0.0972282
0.101915
0.126425
0.15
0.159281
0.155781
0.147536
0.140409
0.135536
0.129894
0.118537
0.0998004
0.0797017
0.0692049
0.0748774
0.0877737
0.0886126
0.078327
0.0801741
0.103087
0.132231
0.147472
0.145705
0.131772
0.107593
0.0833341
0.0696722
0.0651311
0.0621534
0.0583727
0.0579893
0.0653085
0.079291
0.0943743
0.105304
0.110407
0.110994
0.108796
0.104213
0.0965292
0.0856562
0.0738855
0.0655202
0.0630508
0.0627895
0.0579837
0.047323
0.0342539
0.0226536
0.013269
0.0057419
0.00269353
0.104935
0.104049
0.103099
0.102202
0.101514
0.101212
0.1015
0.102588
0.104624
0.10764
0.11151
0.115957
0.120601
0.125039
0.128926
0.13202
0.134167
0.13525
0.135085
0.133258
0.129034
0.121524
0.110181
0.0956656
0.0798331
0.0635348
0.0470898
0.0361351
0.0406406
0.0613423
0.0840241
0.0946166
0.0943663
0.0927091
0.0923434
0.0979176
0.123211
0.162649
0.188124
0.187867
0.176726
0.1681
0.161857
0.155404
0.150017
0.145019
0.133238
0.111358
0.0936833
0.0993803
0.124922
0.149593
0.159565
0.156211
0.14777
0.140356
0.135525
0.131079
0.122429
0.10625
0.0856165
0.0701388
0.0690665
0.0811284
0.0906444
0.0862804
0.0782297
0.0808911
0.0921228
0.100309
0.100884
0.0926642
0.0792342
0.0703198
0.0690321
0.0689314
0.0645507
0.0582265
0.0568207
0.0643865
0.0784841
0.0928361
0.102542
0.106653
0.106886
0.10492
0.100909
0.0939838
0.084009
0.0730423
0.0647308
0.0610196
0.0589322
0.0531303
0.0426226
0.0303489
0.0195326
0.0109076
0.00411823
0.00228069
0.117234
0.117824
0.118406
0.119019
0.119723
0.120581
0.121662
0.123036
0.124744
0.126788
0.129139
0.131712
0.134359
0.136894
0.139117
0.140823
0.141803
0.141825
0.140575
0.13754
0.131973
0.12313
0.110753
0.0957305
0.0801767
0.0652078
0.0500796
0.0380319
0.0388855
0.0571014
0.0810651
0.0948725
0.096043
0.0933177
0.0918671
0.0956603
0.116253
0.152844
0.182822
0.190286
0.182122
0.170756
0.160678
0.152069
0.145636
0.139809
0.127789
0.10668
0.0902573
0.0971294
0.123728
0.149279
0.159716
0.156409
0.147801
0.140159
0.135234
0.131526
0.125169
0.112023
0.0924094
0.0736605
0.0657787
0.0729491
0.0864338
0.0915088
0.0856806
0.0788936
0.07706
0.0779307
0.0771212
0.072968
0.0697511
0.071559
0.0747137
0.0725927
0.0643141
0.0559665
0.0549145
0.0635252
0.0777299
0.0909606
0.0990846
0.102036
0.101914
0.100276
0.0969773
0.0909504
0.0819507
0.071763
0.0634736
0.0586707
0.055042
0.0484417
0.038171
0.0267285
0.016747
0.00891976
0.00290587
0.00216583
0.120505
0.121938
0.123364
0.124795
0.126256
0.127776
0.129385
0.131104
0.13293
0.134862
0.136894
0.138987
0.141056
0.142977
0.144592
0.145708
0.146098
0.145492
0.143524
0.139642
0.133113
0.123338
0.110333
0.09519
0.0801618
0.0667076
0.0534544
0.041119
0.0383567
0.0529993
0.0772769
0.094252
0.0976458
0.0945144
0.0918128
0.0939327
0.110336
0.142816
0.174735
0.18874
0.185274
0.174173
0.16246
0.152473
0.144697
0.137102
0.12366
0.102433
0.0870717
0.0953061
0.122968
0.14914
0.159759
0.156372
0.147599
0.139777
0.13472
0.131391
0.126784
0.116721
0.0993724
0.0792489
0.06568
0.0659078
0.0778649
0.0898368
0.0924011
0.0872227
0.0809729
0.0768118
0.0739938
0.0730688
0.0757686
0.0800617
0.0801214
0.0726728
0.0609496
0.0524204
0.0530669
0.0630068
0.0769271
0.0885309
0.0947499
0.0964279
0.0959704
0.0947497
0.0922903
0.0872932
0.0793543
0.0699633
0.0617324
0.056035
0.0511683
0.0439819
0.0340373
0.0234442
0.0143093
0.00727839
0.00204423
0.00226371
0.115994
0.118302
0.120637
0.122986
0.125345
0.127715
0.130107
0.132508
0.134891
0.137243
0.139546
0.141762
0.143826
0.145641
0.14707
0.147933
0.148005
0.147006
0.144544
0.140042
0.132803
0.12238
0.109061
0.0941184
0.0798238
0.0679495
0.0569847
0.0453055
0.0393514
0.0494439
0.072785
0.092623
0.0988938
0.0962214
0.0924089
0.0928614
0.105613
0.133594
0.164941
0.183472
0.185044
0.176382
0.165182
0.154918
0.145882
0.135997
0.120396
0.0985171
0.0842169
0.0940601
0.12278
0.149248
0.159706
0.156077
0.147141
0.13919
0.134006
0.130807
0.127397
0.120104
0.105815
0.0861581
0.0686704
0.0618468
0.0683454
0.0817275
0.0918478
0.0941516
0.091323
0.0873722
0.0846686
0.0847978
0.0868403
0.0867122
0.0804772
0.0683948
0.0555713
0.0487924
0.05183
0.0628106
0.0758293
0.0853256
0.0894161
0.0897752
0.0890164
0.0882824
0.0867592
0.0829016
0.0761108
0.0675702
0.0594917
0.053128
0.0473165
0.0397338
0.0301901
0.0204697
0.0121962
0.005951
0.00147799
0.00251181
0.108806
0.111981
0.115235
0.118526
0.121819
0.12509
0.128308
0.131424
0.134401
0.137221
0.139869
0.142317
0.144511
0.146365
0.147746
0.148477
0.14834
0.14705
0.144193
0.139177
0.131365
0.120482
0.107079
0.0926015
0.0792266
0.068897
0.0604091
0.0503471
0.0420491
0.0468916
0.0677648
0.0898605
0.0994411
0.0980566
0.0936843
0.0926164
0.102142
0.125822
0.155011
0.17558
0.18145
0.176441
0.167423
0.157877
0.147798
0.135447
0.11742
0.0947619
0.0817681
0.093542
0.123291
0.14966
0.159555
0.155507
0.146408
0.138381
0.133087
0.129874
0.127178
0.122112
0.11115
0.0935237
0.0741718
0.0614469
0.0608925
0.0707961
0.0836136
0.0925576
0.0960781
0.0960318
0.0949439
0.094064
0.0920535
0.0861991
0.0752413
0.0613781
0.0498486
0.0459327
0.0512935
0.062669
0.0741506
0.0811903
0.0830664
0.0821392
0.0811237
0.0809117
0.0803727
0.0777238
0.0721557
0.0645483
0.0567665
0.0499904
0.0435157
0.0357033
0.0266153
0.0177777
0.0103677
0.00488952
0.00115337
0.00285106
0.0990186
0.103005
0.107167
0.111432
0.115731
0.119997
0.124156
0.128131
0.131875
0.135354
0.138542
0.1414
0.143872
0.145871
0.147275
0.147926
0.14762
0.146073
0.142848
0.137352
0.129039
0.117831
0.104528
0.0907273
0.0784488
0.0695851
0.063504
0.0558662
0.0464749
0.045885
0.0625442
0.085874
0.0990151
0.0996451
0.0953513
0.0931474
0.099842
0.119532
0.145911
0.166757
0.175658
0.174527
0.168502
0.16017
0.149168
0.134451
0.114162
0.0909941
0.0798149
0.0939105
0.124612
0.150406
0.159291
0.154639
0.145383
0.137334
0.131954
0.128651
0.126301
0.122839
0.114991
0.100444
0.0813254
0.0645277
0.0570772
0.0608788
0.0716559
0.0829836
0.090799
0.0944975
0.0951562
0.0933752
0.0884764
0.0794951
0.0669107
0.0537716
0.0449015
0.0440635
0.051206
0.0622357
0.0716648
0.0760865
0.0758249
0.0737367
0.0725235
0.072824
0.0732454
0.071809
0.067507
0.0609271
0.0536207
0.0466999
0.0398192
0.0318924
0.0232612
0.0152945
0.00875054
0.00403245
0.00101545
0.00323421
0.0885313
0.0931796
0.0981738
0.103396
0.10872
0.114016
0.119153
0.124029
0.128571
0.132727
0.136457
0.139716
0.142451
0.144583
0.146009
0.146589
0.146128
0.144327
0.140725
0.134753
0.125992
0.11458
0.101538
0.088585
0.077565
0.0701085
0.0661505
0.0614251
0.0524625
0.0469877
0.0576332
0.0805776
0.0973962
0.100714
0.0970356
0.0941171
0.0985274
0.114434
0.137793
0.158191
0.16916
0.171417
0.16824
0.160936
0.148963
0.132214
0.11018
0.087107
0.0784622
0.0953415
0.126831
0.151474
0.158872
0.153449
0.144057
0.136035
0.13059
0.127154
0.124901
0.122469
0.117197
0.106135
0.0890426
0.0704298
0.057325
0.0542336
0.0601297
0.0700644
0.0791541
0.085001
0.0871352
0.0855026
0.079798
0.0700754
0.0578907
0.0468043
0.0410787
0.0430245
0.0512198
0.0612114
0.0682557
0.0701227
0.0679927
0.0649831
0.063653
0.0644023
0.065668
0.0653581
0.0623092
0.0568414
0.0502075
0.0434234
0.036378
0.0283938
0.0201381
0.0129722
0.00727302
0.0033151
0.00101277
0.00360177
0.0776051
0.0825594
0.0881502
0.094201
0.100505
0.106846
0.11303
0.118901
0.124341
0.129264
0.133609
0.137324
0.140361
0.142657
0.144127
0.14465
0.144033
0.141956
0.13795
0.131502
0.122354
0.11087
0.0982487
0.0862751
0.0766375
0.0705839
0.0683714
0.0666028
0.0595984
0.0506251
0.0539137
0.0740138
0.094256
0.101105
0.09848
0.0951739
0.0979521
0.110516
0.130507
0.150028
0.162644
0.167471
0.166317
0.159426
0.146461
0.12827
0.105236
0.0831137
0.0779184
0.0980415
0.129992
0.152789
0.158225
0.151911
0.142428
0.134476
0.128967
0.125371
0.123062
0.1212
0.117839
0.110089
0.0961738
0.0780447
0.0613547
0.0518534
0.0514569
0.0575371
0.0656181
0.0721837
0.0754415
0.0745121
0.0690562
0.0597951
0.0491317
0.0408518
0.0383695
0.0425558
0.0510026
0.0593778
0.0639447
0.0635897
0.0600811
0.0565183
0.0551782
0.0562543
0.0581417
0.0587633
0.0568782
0.0525714
0.0468032
0.0404395
0.033447
0.0253802
0.017297
0.0107778
0.00586587
0.00267515
0.00109453
0.00389459
0.0676789
0.0723552
0.0780987
0.0846727
0.0917771
0.0990956
0.106334
0.113243
0.119628
0.125353
0.13033
0.134502
0.137832
0.140279
0.141782
0.142233
0.141432
0.13904
0.1346
0.127694
0.118247
0.10684
0.0948007
0.0839109
0.0757225
0.0711046
0.0703056
0.071123
0.0672782
0.0570096
0.0527025
0.0666912
0.0890738
0.100662
0.0998801
0.0964119
0.0979877
0.107758
0.124274
0.142109
0.155615
0.162282
0.162154
0.155067
0.141362
0.122529
0.0993029
0.0791862
0.0785212
0.102242
0.134065
0.154198
0.157249
0.150003
0.140498
0.132643
0.127053
0.123264
0.120814
0.119198
0.117107
0.112118
0.101782
0.0859613
0.0681709
0.0539114
0.0470562
0.0476213
0.0525812
0.058246
0.0618301
0.0615611
0.0568944
0.0490459
0.0409272
0.0360431
0.0366412
0.0423246
0.050228
0.0566243
0.0589388
0.0569961
0.0528164
0.0491847
0.0479631
0.0491877
0.0513753
0.0526277
0.0517261
0.0485693
0.0438269
0.0381393
0.0313727
0.0231099
0.0148657
0.00874375
0.00450689
0.00208192
0.00123269
0.00405756
0.0596538
0.06325
0.0684636
0.0750364
0.0825908
0.0906934
0.0989113
0.10686
0.114235
0.120819
0.126482
0.131156
0.134815
0.13744
0.138993
0.13937
0.138362
0.135625
0.130744
0.123425
0.113791
0.102616
0.0913122
0.0815934
0.0748713
0.071721
0.0721223
0.0748719
0.0746841
0.0658446
0.0553878
0.0601712
0.0812485
0.0985858
0.101612
0.0985178
0.0988208
0.106098
0.119358
0.134676
0.147651
0.154967
0.155028
0.147619
0.133889
0.115234
0.0925312
0.075711
0.0807779
0.108167
0.13889
0.155453
0.155823
0.147714
0.138274
0.130512
0.124793
0.120766
0.11812
0.116548
0.115213
0.112285
0.105308
0.0928345
0.0762231
0.0596024
0.0474721
0.0419716
0.0420998
0.0449822
0.0475344
0.047416
0.0438936
0.0383653
0.0336525
0.0324022
0.0355641
0.0418771
0.0486136
0.053024
0.0536828
0.0510622
0.047075
0.0439233
0.042953