/*--------------------------------*- C++ -*----------------------------------*\
  =========                 |
  \\      /  F ield         | OpenFOAM: The Open Source CFD Toolbox
   \\    /   O peration     | Website:  https://openfoam.org
    \\  /    A nd           | Version:  10
     \\/     M anipulation  |
\*---------------------------------------------------------------------------*/
FoamFile
{
    format      ascii;
    class       volScalarField;
    location    "0.16";
    object      nut;
}
// * * * * * * * * * * * * * * * * * * * * * * * * * * * * * * * * * * * * * //

dimensions      [0 2 -1 0 0 0 0];

internalField   nonuniform List<scalar> 
6820
(
0
0
0
0
0
0
0
0
0
0
0
0
0
0
0
0
0
0
0
0
0
0
0
0
0
0
0
0
0
0
0
2.47946e-09
4.49894e-08
0
0
0
0
0
0
0
0
0
0
0
0
0
0
0
0
0
0
0
0
0
0
0
0
0
0
0
0
0
0
0
0
4.40145e-09
0
0
0
0
0
0
0
0
0
0
0
0
0
0
0
0
0
0
0
0
0
0
0
0
0
0
0
0
0
0
0
0
0
0
0
0
0
0
0
0
0
0
0
0
0
0
0
0
0
0
0
0
0
0
0
0
0
0
0
0
0
0
0
0
0
0
1.46454e-05
0
0
0
0
0
0
0
0
0
0
0
0
0
0
0
0
0
0
0
0
0
0
0
0
0
0
0
0
0
0
0
0
5.6974e-06
3.77639e-05
2.96618e-05
1.84893e-05
9.31535e-06
3.58744e-06
3.17138e-07
0
0
0
0
0
0
0
0
0
0
0
0
0
0
0
0
0
0
0
0
0
0
0
0
0
0
0
6.73541e-06
1.2068e-05
1.63744e-05
1.57774e-05
1.40189e-05
1.21722e-05
1.00168e-05
7.70938e-06
5.45678e-06
3.34298e-06
1.43203e-06
0
0
0
0
0
0
0
0
0
0
0
0
0
0
0
0
0
0
0
0
0
0
0
0
2.26724e-06
4.78045e-06
5.11703e-06
4.71205e-06
3.5879e-06
2.01001e-06
2.89904e-07
0
0
0
0
0
0
0
0
0
0
0
0
0
0
0
0
0
0
0
0
0
0
0
0
0
0
0
0
0
0
0
0
0
0
0
0
0
0
0
0
0
0
0
0
0
0
0
0
0
0
0
0
0
0
0
0
0
0
0
0
0
0
0
0
0
0
0
0
0
0
0
0
0
0
0
0
0
0
0
0
0
0
0
0
0
0
0
0
0
0
0
0
0
0
0
0
0
0
0
0
0
0
0
0
0
0
0
0
0
0
0
0
0
0
0
0
0
0
0
0
0
0
0
0
0
0
0
0
0
0
0
0
0
0
0
0
0
0
0
0
0
0
0
0
0
0
0
0
0
0
0
0
0
0
0
0
0
0
0
0
0
0
0
0
0
0
0
0
0
0
0
0
0
0
0
0
0
0
0
0
0
0
0
0
0
0
0
0
0
0
0
0
0
0
0
0
0
0
0
0
0
0
0
0
0
0
0
0
0
0
0
0
0
0
0
0
0
0
0
0
0
0
0
0
0
0
0
0
0
0
0
0
0
0
0
0
0
0
0
0
0
0
0
0
0
0
0
0
0
0
0
0
0
0
0
0
0
0
0
0
0
0
0
0
0
0
0
0
0
0
0
0
0
0
0
0
0
0
0
0
0
0
0
0
0
0
0
0
0
0
0
0
0
0
0
0
0
0
0
0
0
0
0
0
0
0
0
0
0
0
0
0
0
0
0
0
0
0
0
0
0
0
0
0
0
0
0
0
0
0
0
0
0
0
0
0
0
0
0
0
0
0
0
0
0
0
0
0
0
0
1.10672e-08
3.91659e-08
0
0
0
0
0
0
0
0
0
0
0
0
0
0
0
0
0
0
0
0
0
0
0
0
0
0
0
0
0
0
8.50504e-08
1.47809e-07
1.55231e-07
8.26291e-08
0
0
0
0
0
0
0
0
0
0
0
0
0
0
0
0
0
0
0
0
0
0
0
0
0
0
0
0
5.75375e-08
1.04911e-07
1.18081e-07
1.13356e-07
1.37845e-07
0
0
0
0
0
0
0
0
0
0
0
0
0
0
0
0
0
0
0
0
0
0
0
0
0
0
3.57419e-08
9.71345e-08
1.1595e-07
9.50378e-08
4.69193e-08
2.63452e-08
1.49627e-07
0
0
0
0
0
0
0
0
0
0
0
0
0
0
0
0
0
0
0
0
0
0
0
0
0
1.91101e-08
4.94265e-08
3.65482e-08
0
0
0
0
1.96019e-08
0
0
0
0
0
0
0
0
0
0
0
0
0
0
0
0
0
0
0
0
0
0
0
0
1.27731e-08
2.38513e-09
0
0
0
0
0
0
0
0
0
0
0
0
0
0
0
0
0
0
0
0
0
0
0
0
0
0
0
0
0
1.23635e-08
0
0
0
0
0
0
0
0
0
0
0
0
0
0
0
0
0
0
0
0
0
0
0
0
0
0
0
0
0
0
0
0
0
0
0
0
0
0
0
0
0
0
0
0
0
0
0
0
0
0
0
0
0
0
0
0
0
0
0
4.3346e-08
1.09974e-07
1.21829e-07
8.12096e-08
0
0
0
0
0
0
0
0
0
0
0
0
0
0
0
0
0
0
0
0
0
0
0
0
0
0
0
0
0
0
0
0
0
0
0
0
0
0
0
0
0
0
0
0
0
0
0
0
0
0
0
0
0
0
0
0
6.27788e-09
2.09291e-07
3.46818e-07
4.16479e-07
4.19085e-07
3.57387e-07
2.35264e-07
5.71407e-08
0
0
0
0
0
0
0
0
0
0
0
0
0
0
0
0
0
0
0
0
0
0
0
0
0
0
0
0
0
0
0
0
0
0
0
0
0
0
0
0
0
0
0
0
0
0
0
0
0
0
0
0
0
0
0
5.55109e-08
2.0285e-07
3.04329e-07
3.48514e-07
3.27854e-07
2.38946e-07
8.21016e-08
0
0
0
0
0
0
0
0
0
0
0
0
0
0
0
0
0
0
0
0
0
0
0
0
0
0
0
0
0
0
0
0
0
0
0
0
0
0
0
0
0
0
0
0
0
0
0
0
0
0
0
0
0
0
0
0
0
0
0
0
0
0
0
0
0
0
0
0
0
0
0
0
0
0
0
0
0
0
0
0
0
0
0
0
0
0
0
0
0
0
0
0
0
0
0
0
0
0
0
0
0
0
0
0
0
0
0
0
0
0
0
0
0
0
0
0
0
0
0
0
0
0
0
0
0
0
0
0
0
0
0
0
0
0
0
0
0
0
0
0
0
0
0
0
0
0
0
0
0
0
0
0
0
0
0
0
0
0
0
0
0
0
0
0
0
0
0
0
0
0
0
0
0
0
0
0
0
0
0
0
0
0
0
0
0
0
0
3.72222e-05
4.54096e-05
3.81217e-05
3.24211e-05
2.88819e-05
2.64392e-05
2.45681e-05
2.30358e-05
2.17278e-05
2.05789e-05
1.95401e-05
1.8531e-05
1.75105e-05
1.64675e-05
1.53987e-05
1.4304e-05
1.31873e-05
1.20554e-05
1.09186e-05
9.78923e-06
8.68036e-06
7.60497e-06
6.57486e-06
5.60024e-06
4.68942e-06
3.84871e-06
3.08236e-06
2.40177e-06
1.83366e-06
1.42212e-06
0
0
0
0
0
0
0
0
0
0
0
0
0
0
2.46471e-07
7.08639e-07
1.24183e-06
1.84997e-06
2.53567e-06
3.30014e-06
4.14316e-06
5.06307e-06
6.05677e-06
7.11977e-06
8.24617e-06
9.4286e-06
1.06582e-05
1.19246e-05
1.32156e-05
1.45175e-05
1.58159e-05
1.71011e-05
1.94447e-05
4.16261e-08
0
0
0
0
0
0
0
0
0
0
0
0
0
0
0
0
0
0
0
0
0
0
0
0
0
6.3729e-10
6.11842e-09
1.21911e-08
1.88307e-08
2.60136e-08
3.3744e-08
4.34698e-08
2.22877e-08
0
0
0
0
0
0
0
0
0
0
0
0
0
0
0
0
0
0
0
0
0
0
0
0
0
0
0
0
0
0
1.89195e-08
3.54672e-08
1.01614e-08
0
0
0
0
0
0
0
0
0
0
0
0
0
0
0
0
0
0
0
0
0
0
0
0
0
0
0
0
0
0
5.37602e-09
1.90189e-08
1.48197e-07
0
0
0
0
0
0
0
0
0
0
5.92573e-06
1.40099e-05
7.08419e-06
3.09379e-06
4.4289e-06
6.74354e-06
8.28643e-06
9.16696e-06
9.67693e-06
9.93939e-06
9.87475e-06
9.3632e-06
8.37426e-06
7.05145e-06
5.52923e-06
2.62493e-06
0
0
0
0
0
0
0
0
0
0
0
0
0
0
0
0
0
0
0
0
0
0
0
0
0
0
0
0
0
0
0
0
0
0
0
0
0
0
0
0
0
6.60904e-07
4.94206e-05
1.88841e-05
0
4.55531e-05
6.29723e-05
5.12091e-05
3.68972e-05
2.68714e-05
2.09233e-05
1.48412e-05
1.02218e-05
1.34224e-05
1.84378e-05
2.07066e-05
2.04646e-05
1.86108e-05
1.57585e-05
1.23324e-05
8.86069e-06
6.32603e-06
6.45472e-06
1.25349e-05
2.78953e-05
3.88399e-05
4.15846e-05
3.67477e-05
3.08562e-05
1.62346e-05
1.11145e-05
0
0
5.62534e-08
0
0
0
0
0
0
0
0
0
0
6.12531e-06
4.8422e-06
2.3684e-06
4.25897e-06
7.0656e-06
9.35126e-06
1.08776e-05
1.17097e-05
1.20675e-05
1.21058e-05
1.1788e-05
1.10109e-05
9.75343e-06
8.16e-06
6.4313e-06
3.70016e-06
0
0
0
0
0
0
0
0
0
0
0
0
0
0
0
0
0
0
0
0
0
0
0
0
0
0
0
0
0
0
0
0
0
0
0
0
0
0
0
0
0
0
0
0
1.58741e-05
5.36788e-05
5.79046e-05
4.6579e-05
3.45779e-05
2.6534e-05
2.1202e-05
1.43259e-05
1.17136e-05
1.66248e-05
2.15442e-05
2.3486e-05
2.31678e-05
2.15009e-05
1.90331e-05
1.60913e-05
1.31153e-05
1.10059e-05
1.13807e-05
1.72681e-05
3.09191e-05
4.097e-05
4.31596e-05
3.76738e-05
3.11245e-05
1.60469e-05
1.05834e-05
0
0
0
0
0
0
0
0
0
0
0
0
2.93689e-07
1.21208e-06
1.48959e-06
3.85813e-06
6.68949e-06
9.4163e-06
1.16051e-05
1.30164e-05
1.36894e-05
1.38471e-05
1.36497e-05
1.30803e-05
1.20627e-05
1.06016e-05
8.83607e-06
6.98348e-06
4.49303e-06
0
0
0
0
0
0
0
0
0
0
0
0
0
0
0
0
0
0
0
0
0
0
0
0
0
0
0
0
0
0
0
0
0
0
0
0
0
0
0
0
0
0
0
0
2.87853e-05
5.10922e-05
5.07282e-05
4.13813e-05
3.20162e-05
2.5939e-05
2.06672e-05
1.3843e-05
1.36904e-05
1.94006e-05
2.38566e-05
2.55017e-05
2.52242e-05
2.3855e-05
2.18459e-05
1.9432e-05
1.69717e-05
1.52576e-05
1.57524e-05
2.10995e-05
3.28335e-05
4.18621e-05
4.36559e-05
3.78298e-05
3.08558e-05
1.56683e-05
9.938e-06
0
0
0
0
0
0
0
0
0
0
0
0
5.28609e-07
1.63528e-06
3.531e-06
6.12514e-06
8.993e-06
1.16444e-05
1.36732e-05
1.48928e-05
1.53765e-05
1.53299e-05
1.48975e-05
1.40841e-05
1.28491e-05
1.12231e-05
9.33869e-06
7.40321e-06
5.13992e-06
0
0
0
0
0
0
0
0
0
0
0
0
0
0
0
0
0
0
0
0
0
0
0
0
0
0
0
0
0
0
0
0
0
0
0
0
0
0
0
0
0
0
0
1.23714e-06
3.07164e-05
4.46949e-05
4.35423e-05
3.65508e-05
2.98315e-05
2.55299e-05
1.97491e-05
1.40613e-05
1.60894e-05
2.18213e-05
2.56955e-05
2.71448e-05
2.70122e-05
2.60013e-05
2.44629e-05
2.25605e-05
2.05863e-05
1.92305e-05
1.97942e-05
2.44985e-05
3.4307e-05
4.20564e-05
4.34079e-05
3.74286e-05
3.03062e-05
1.52254e-05
9.45142e-06
0
0
0
0
0
0
0
0
0
0
0
6.11317e-08
1.26676e-06
3.11756e-06
5.57308e-06
8.41809e-06
1.13032e-05
1.38136e-05
1.56267e-05
1.66265e-05
1.69063e-05
1.66506e-05
1.59912e-05
1.49533e-05
1.35254e-05
1.17599e-05
9.78864e-06
7.79535e-06
5.70304e-06
5.77759e-07
0
0
0
0
0
0
0
0
0
0
0
0
0
0
0
0
0
0
0
0
0
0
0
0
0
0
0
0
0
0
0
0
0
0
0
0
0
0
0
0
0
0
4.23153e-06
2.75701e-05
3.74903e-05
3.70813e-05
3.25842e-05
2.85859e-05
2.54355e-05
1.89781e-05
1.53125e-05
1.86765e-05
2.38799e-05
2.72355e-05
2.86293e-05
2.87347e-05
2.81124e-05
2.70288e-05
2.56017e-05
2.40676e-05
2.30126e-05
2.35692e-05
2.75519e-05
3.55152e-05
4.18589e-05
4.26759e-05
3.66139e-05
2.94521e-05
1.46959e-05
8.96516e-06
0
0
0
0
0
0
0
0
0
0
0
3.79337e-07
2.34228e-06
4.80623e-06
7.66778e-06
1.06808e-05
1.35086e-05
1.58113e-05
1.73641e-05
1.81249e-05
1.82028e-05
1.77581e-05
1.69048e-05
1.56787e-05
1.40916e-05
1.22167e-05
1.01926e-05
8.17502e-06
6.20662e-06
1.98481e-06
0
0
0
0
0
0
0
0
0
0
0
0
0
0
0
0
0
0
0
0
0
0
0
0
0
0
0
0
0
0
0
0
0
0
0
0
0
0
0
0
0
0
5.09679e-06
2.27859e-05
3.08418e-05
3.17219e-05
2.98576e-05
2.85448e-05
2.53377e-05
1.89967e-05
1.73756e-05
2.10494e-05
2.55128e-05
2.85254e-05
3.00017e-05
3.04052e-05
3.01687e-05
2.95064e-05
2.85141e-05
2.73764e-05
2.65719e-05
2.70594e-05
3.02888e-05
3.65545e-05
4.14985e-05
4.17206e-05
3.55891e-05
2.84222e-05
1.41219e-05
8.48208e-06
0
0
0
0
0
0
0
0
0
0
0
1.08338e-06
3.6804e-06
6.61357e-06
9.72064e-06
1.27442e-05
1.53933e-05
1.74247e-05
1.87125e-05
1.92651e-05
1.91848e-05
1.85991e-05
1.76005e-05
1.62324e-05
1.45285e-05
1.25817e-05
1.0543e-05
8.54318e-06
6.6733e-06
3.37669e-06
0
0
0
0
0
0
0
0
0
0
0
0
0
0
0
0
0
0
0
0
0
0
9.17181e-08
0
0
0
0
0
0
0
0
0
0
0
0
0
0
0
0
0
0
0
4.62149e-06
1.817e-05
2.53993e-05
2.78379e-05
2.88955e-05
2.95292e-05
2.52765e-05
2.00755e-05
1.96663e-05
2.29173e-05
2.675e-05
2.96272e-05
3.12838e-05
3.19979e-05
3.21151e-05
3.18336e-05
3.12396e-05
3.04611e-05
2.98625e-05
3.02266e-05
3.26877e-05
3.7396e-05
4.10025e-05
4.06307e-05
3.44676e-05
2.73241e-05
1.35282e-05
7.99281e-06
0
0
0
0
0
0
0
0
0
0
0
1.96737e-06
5.0209e-06
8.2335e-06
1.1408e-05
1.43097e-05
1.67252e-05
1.8505e-05
1.95884e-05
1.99999e-05
1.98208e-05
1.91473e-05
1.80559e-05
1.65968e-05
1.48235e-05
1.28459e-05
1.08314e-05
8.8958e-06
7.12391e-06
4.63606e-06
0
0
0
0
0
0
0
0
0
0
0
0
0
0
0
0
0
0
0
0
0
1.77485e-06
3.13406e-06
2.02923e-06
8.58965e-07
3.28189e-08
0
0
0
0
0
0
0
0
0
0
0
0
0
0
0
0
3.68026e-06
1.4529e-05
2.15852e-05
2.60651e-05
3.01375e-05
3.07222e-05
2.57897e-05
2.178e-05
2.15795e-05
2.42213e-05
2.77011e-05
3.06071e-05
3.24752e-05
3.34626e-05
3.38816e-05
3.39417e-05
3.3717e-05
3.32671e-05
3.2837e-05
3.30384e-05
3.47457e-05
3.80477e-05
4.04087e-05
3.94525e-05
3.32839e-05
2.61931e-05
1.29411e-05
7.52407e-06
0
0
0
0
0
0
0
0
0
0
0
3.02126e-06
6.24547e-06
9.48012e-06
1.25416e-05
1.52462e-05
1.74453e-05
1.9042e-05
1.99993e-05
2.03362e-05
2.01121e-05
1.94009e-05
1.82674e-05
1.67675e-05
1.49711e-05
1.30033e-05
1.10487e-05
9.22262e-06
7.5708e-06
5.70014e-06
0
0
0
0
0
0
0
0
0
0
0
0
0
0
0
0
0
0
0
0
0
3.5874e-06
6.07176e-06
5.19503e-06
3.73961e-06
2.43233e-06
1.24459e-06
0
0
0
0
0
0
0
0
0
0
0
0
0
0
0
2.76753e-06
1.2224e-05
1.99773e-05
2.72107e-05
3.27979e-05
3.17148e-05
2.68925e-05
2.3309e-05
2.28234e-05
2.50998e-05
2.84974e-05
3.15046e-05
3.35421e-05
3.47275e-05
3.53893e-05
3.57577e-05
3.58797e-05
3.57323e-05
3.54388e-05
3.54509e-05
3.64363e-05
3.84785e-05
3.9701e-05
3.81874e-05
3.20398e-05
2.50276e-05
1.23463e-05
7.06443e-06
0
0
0
0
0
0
0
0
0
0
8.91768e-07
3.93398e-06
7.08505e-06
1.01872e-05
1.30768e-05
1.56021e-05
1.7644e-05
1.91258e-05
2.00155e-05
2.03239e-05
2.00945e-05
1.93848e-05
1.8251e-05
1.67525e-05
1.49731e-05
1.30508e-05
1.11858e-05
9.50722e-06
8.01307e-06
6.57562e-06
6.31287e-07
0
0
0
0
0
0
0
0
0
0
0
0
0
0
0
0
0
0
0
0
5.42618e-06
8.90294e-06
8.31358e-06
6.63061e-06
4.86583e-06
3.20644e-06
1.5667e-06
0
0
0
0
0
0
0
0
0
0
0
0
0
0
2.04053e-06
1.16261e-05
2.13456e-05
3.07828e-05
3.50503e-05
3.26762e-05
2.78286e-05
2.41226e-05
2.34893e-05
2.57662e-05
2.92327e-05
3.23105e-05
3.44195e-05
3.57101e-05
3.65576e-05
3.72064e-05
3.76557e-05
3.77879e-05
3.76064e-05
3.74189e-05
3.77351e-05
3.86686e-05
3.88763e-05
3.68471e-05
3.07441e-05
2.38371e-05
1.17501e-05
6.62418e-06
0
0
0
0
0
0
0
0
0
0
1.86745e-06
4.72055e-06
7.66462e-06
1.05529e-05
1.32385e-05
1.55877e-05
1.74946e-05
1.88883e-05
1.97349e-05
2.00366e-05
1.9824e-05
1.91409e-05
1.80353e-05
1.65684e-05
1.48365e-05
1.29884e-05
1.1235e-05
9.7294e-06
8.43482e-06
7.30549e-06
3.52136e-06
0
0
0
0
0
0
0
0
2.13468e-05
0
0
0
0
0
0
0
0
0
0
0
7.36692e-06
1.1636e-05
1.13484e-05
9.48776e-06
7.29963e-06
5.1873e-06
3.16946e-06
1.09018e-06
0
0
0
0
0
0
0
0
0
0
0
0
0
1.4404e-06
1.2983e-05
2.4969e-05
3.40226e-05
3.63542e-05
3.31284e-05
2.79339e-05
2.42252e-05
2.38628e-05
2.63863e-05
2.99264e-05
3.29694e-05
3.50272e-05
3.63298e-05
3.73098e-05
3.82116e-05
3.89683e-05
3.93593e-05
3.9273e-05
3.88909e-05
3.86053e-05
3.85807e-05
3.79077e-05
3.54253e-05
2.93991e-05
2.26261e-05
1.11472e-05
6.20002e-06
0
0
0
0
0
0
0
0
0
3.22327e-07
2.73222e-06
5.34719e-06
8.04708e-06
1.07002e-05
1.31751e-05
1.53507e-05
1.71288e-05
1.84405e-05
1.92493e-05
1.95499e-05
1.93615e-05
1.87157e-05
1.76529e-05
1.62357e-05
1.45717e-05
1.28193e-05
1.11923e-05
9.86937e-06
8.80699e-06
7.92629e-06
5.90377e-06
0
0
0
1.87056e-07
5.81335e-07
1.58005e-07
0
1.29478e-08
3.09319e-05
0
0
0
0
0
0
0
0
0
0
0
9.45958e-06
1.42835e-05
1.42693e-05
1.22671e-05
9.69607e-06
7.16366e-06
4.78962e-06
2.40781e-06
0
0
0
0
0
0
0
0
0
0
0
0
0
8.82853e-07
1.5017e-05
2.77895e-05
3.55259e-05
3.6506e-05
3.24971e-05
2.71958e-05
2.39575e-05
2.41941e-05
2.70133e-05
3.05283e-05
3.34028e-05
3.52901e-05
3.65184e-05
3.75781e-05
3.87016e-05
3.97426e-05
4.03728e-05
4.03731e-05
3.98171e-05
3.90126e-05
3.81834e-05
3.67709e-05
3.39108e-05
2.79999e-05
2.13952e-05
1.05403e-05
5.80105e-06
0
0
0
0
0
0
0
0
0
1.32718e-06
3.50962e-06
5.87705e-06
8.32439e-06
1.0736e-05
1.2995e-05
1.49924e-05
1.66369e-05
1.78618e-05
1.86282e-05
1.8924e-05
1.87574e-05
1.81491e-05
1.71331e-05
1.57746e-05
1.4191e-05
1.2549e-05
1.10577e-05
9.91225e-06
9.09321e-06
8.44686e-06
7.48771e-06
0
0
0
1.00398e-06
1.56877e-06
1.21235e-06
2.6704e-07
3.01317e-07
1.86617e-05
3.61194e-05
0
0
0
0
0
0
0
0
0
0
1.17224e-05
1.68536e-05
1.70495e-05
1.49259e-05
1.20167e-05
9.10995e-06
6.41298e-06
3.7491e-06
8.76664e-07
0
0
0
0
0
0
0
0
0
0
0
0
5.05006e-07
1.58836e-05
2.85531e-05
3.52802e-05
3.52731e-05
3.0906e-05
2.60273e-05
2.36493e-05
2.4579e-05
2.75993e-05
3.09551e-05
3.35378e-05
3.51527e-05
3.62289e-05
3.73133e-05
3.86202e-05
3.99168e-05
4.07666e-05
4.08515e-05
4.01556e-05
3.89269e-05
3.74466e-05
3.54361e-05
3.22808e-05
2.65269e-05
2.01282e-05
9.91577e-06
5.4247e-06
0
0
0
0
0
0
0
0
4.41364e-07
2.17077e-06
4.13619e-06
6.26808e-06
8.47634e-06
1.06599e-05
1.27144e-05
1.45409e-05
1.60548e-05
1.71918e-05
1.79117e-05
1.81966e-05
1.80454e-05
1.74695e-05
1.64992e-05
1.52031e-05
1.37071e-05
1.21847e-05
1.08344e-05
9.85152e-06
9.25971e-06
8.8496e-06
8.44571e-06
4.00966e-06
0
0
1.61282e-06
2.44052e-06
2.12241e-06
1.07794e-06
1.29015e-07
7.98709e-06
3.18606e-05
1.02521e-05
0
0
0
0
0
0
0
0
1.27773e-06
1.41395e-05
1.93436e-05
1.96624e-05
1.74224e-05
1.42238e-05
1.10008e-05
8.02338e-06
5.10397e-06
1.98854e-06
0
0
0
0
0
0
0
0
0
0
0
0
1.0384e-07
1.54116e-05
2.76152e-05
3.36045e-05
3.30886e-05
2.88732e-05
2.48141e-05
2.34441e-05
2.49802e-05
2.80541e-05
3.11288e-05
3.33243e-05
3.45889e-05
3.54477e-05
3.65024e-05
3.79475e-05
3.94626e-05
4.05082e-05
4.06791e-05
3.98877e-05
3.83389e-05
3.63605e-05
3.38903e-05
3.05173e-05
2.49522e-05
1.87934e-05
9.24968e-06
5.06372e-06
0
0
0
0
0
0
0
1.65723e-08
1.32447e-06
2.8785e-06
4.64153e-06
6.5539e-06
8.5382e-06
1.05058e-05
1.23641e-05
1.40239e-05
1.54075e-05
1.64542e-05
1.7123e-05
1.73903e-05
1.72467e-05
1.66965e-05
1.57689e-05
1.45371e-05
1.31334e-05
1.17351e-05
1.05277e-05
9.68879e-06
9.28392e-06
9.10296e-06
8.98683e-06
7.22927e-06
0
0
1.63876e-06
2.97411e-06
2.71333e-06
1.50524e-06
0
1.04299e-06
1.57669e-05
1.70126e-05
3.30522e-06
0
0
0
0
0
0
0
4.86777e-06
1.66626e-05
2.17357e-05
2.20777e-05
1.97159e-05
1.62818e-05
1.28119e-05
9.60347e-06
6.45976e-06
3.12683e-06
0
0
0
0
0
0
0
0
0
0
0
0
0
1.41565e-05
2.57576e-05
3.12338e-05
3.0531e-05
2.67806e-05
2.37329e-05
2.33376e-05
2.53122e-05
2.82937e-05
3.09948e-05
3.27442e-05
3.36158e-05
3.4218e-05
3.51979e-05
3.67293e-05
3.84122e-05
3.96185e-05
3.98733e-05
3.90349e-05
3.72764e-05
3.49536e-05
3.21553e-05
2.86231e-05
2.32482e-05
1.73402e-05
8.49318e-06
4.69301e-06
0
0
0
0
0
0
0
8.22408e-07
2.007e-06
3.40649e-06
4.98963e-06
6.70574e-06
8.48805e-06
1.02589e-05
1.19362e-05
1.34402e-05
1.47002e-05
1.56588e-05
1.62742e-05
1.65184e-05
1.63751e-05
1.58446e-05
1.49575e-05
1.37922e-05
1.24845e-05
1.12111e-05
1.0144e-05
9.43077e-06
9.15911e-06
9.17205e-06
9.22219e-06
8.72469e-06
1.99604e-06
0
4.62983e-07
2.82669e-06
2.77062e-06
1.41662e-06
0
0
3.06548e-06
1.15871e-05
9.64695e-06
0
0
0
0
0
0
0
8.64173e-06
1.92172e-05
2.39969e-05
2.42596e-05
2.17668e-05
1.81594e-05
1.45201e-05
1.11345e-05
7.80086e-06
4.27956e-06
4.16042e-07
0
0
0
0
0
0
0
0
0
0
0
0
1.26088e-05
2.35301e-05
2.85594e-05
2.78446e-05
2.47807e-05
2.28287e-05
2.32714e-05
2.54889e-05
2.82529e-05
3.05274e-05
3.18243e-05
3.23192e-05
3.2674e-05
3.35555e-05
3.51136e-05
3.68904e-05
3.81997e-05
3.8524e-05
3.76852e-05
3.58296e-05
3.33152e-05
3.03092e-05
2.66427e-05
2.14026e-05
1.57138e-05
7.58959e-06
4.27579e-06
0
0
0
0
0
0
5.85568e-07
1.45664e-06
2.52628e-06
3.78498e-06
5.2059e-06
6.7451e-06
8.34402e-06
9.93441e-06
1.14438e-05
1.28014e-05
1.3943e-05
1.48148e-05
1.53745e-05
1.55901e-05
1.54411e-05
1.49265e-05
1.40797e-05
1.29839e-05
1.17754e-05
1.0625e-05
9.69008e-06
9.08461e-06
8.89178e-06
9.03139e-06
9.19149e-06
9.16171e-06
6.19455e-06
0
0
1.51321e-06
2.0529e-06
7.0297e-07
0
0
0
3.17434e-06
7.78541e-06
4.80536e-06
0
0
0
0
0
0
1.23658e-05
2.17141e-05
2.60784e-05
2.61651e-05
2.35389e-05
1.98318e-05
1.61046e-05
1.25961e-05
9.10921e-06
5.43277e-06
1.43153e-06
0
0
0
0
0
0
0
0
0
0
0
0
1.08639e-05
2.09585e-05
2.55862e-05
2.509e-05
2.29496e-05
2.20884e-05
2.31569e-05
2.54261e-05
2.78885e-05
2.97441e-05
3.06612e-05
3.08841e-05
3.10752e-05
3.18689e-05
3.33818e-05
3.51428e-05
3.64637e-05
3.68204e-05
3.60163e-05
3.41677e-05
3.15984e-05
2.84793e-05
2.46589e-05
1.94204e-05
1.38544e-05
6.47942e-06
3.77578e-06
0
0
0
0
0
4.58235e-07
1.08415e-06
1.87958e-06
2.85038e-06
3.98773e-06
5.26814e-06
6.65271e-06
8.08976e-06
9.51925e-06
1.08775e-05
1.21016e-05
1.31337e-05
1.39232e-05
1.44275e-05
1.4612e-05
1.44543e-05
1.39545e-05
1.31498e-05
1.21271e-05
1.10203e-05
9.98893e-06
9.17366e-06
8.65745e-06
8.49786e-06
8.67597e-06
8.89517e-06
8.9677e-06
7.89892e-06
1.10749e-06
0
0
2.8261e-07
0
0
0
0
0
2.63804e-06
4.43626e-06
0
0
0
0
0
3.79478e-06
1.58325e-05
2.40612e-05
2.79169e-05
2.77446e-05
2.50019e-05
2.12813e-05
1.75463e-05
1.3966e-05
1.03642e-05
6.57009e-06
2.46939e-06
0
0
0
0
0
0
0
0
0
0
0
0
8.91658e-06
1.80006e-05
2.23388e-05
2.23682e-05
2.13289e-05
2.14192e-05
2.28678e-05
2.50466e-05
2.71972e-05
2.87305e-05
2.94459e-05
2.96114e-05
2.98105e-05
3.05631e-05
3.19455e-05
3.354e-05
3.4737e-05
3.50557e-05
3.42946e-05
3.2522e-05
2.9983e-05
2.67882e-05
2.2745e-05
1.73003e-05
1.1703e-05
5.15955e-06
3.19397e-06
0
0
7.38311e-09
1.04698e-07
4.20301e-07
8.57857e-07
1.42412e-06
2.14322e-06
3.02017e-06
4.04638e-06
5.20029e-06
6.44655e-06
7.7388e-06
9.02376e-06
1.02452e-05
1.13474e-05
1.2278e-05
1.29894e-05
1.3439e-05
1.35913e-05
1.34243e-05
1.29406e-05
1.21816e-05
1.12355e-05
1.02311e-05
9.3129e-06
8.60118e-06
8.15384e-06
7.99452e-06
8.12468e-06
8.32674e-06
8.34776e-06
7.98137e-06
4.73139e-06
0
0
0
0
0
0
0
0
0
1.50828e-06
1.29393e-06
0
0
0
0
8.94582e-06
1.89097e-05
2.6169e-05
2.94327e-05
2.89457e-05
2.61365e-05
2.24982e-05
1.88259e-05
1.52193e-05
1.15421e-05
7.67127e-06
3.51283e-06
0
0
0
0
0
0
0
0
0
0
0
0
6.87305e-06
1.47929e-05
1.90053e-05
1.98208e-05
1.98625e-05
2.06435e-05
2.22679e-05
2.43118e-05
2.6245e-05
2.76623e-05
2.84626e-05
2.88768e-05
2.93121e-05
3.00939e-05
3.12521e-05
3.25011e-05
3.34035e-05
3.3576e-05
3.28168e-05
3.11159e-05
2.85944e-05
2.52717e-05
2.09057e-05
1.50256e-05
9.1429e-06
3.6809e-06
2.59149e-06
0
0
2.25928e-07
3.86779e-07
6.86497e-07
1.07913e-06
1.58526e-06
2.23136e-06
3.02224e-06
3.94922e-06
4.99176e-06
6.11697e-06
7.2825e-06
8.44053e-06
9.54112e-06
1.05347e-05
1.13738e-05
1.20132e-05
1.24116e-05
1.25341e-05
1.23606e-05
1.18972e-05
1.11885e-05
1.03221e-05
9.41921e-06
8.60698e-06
7.98151e-06
7.58022e-06
7.39784e-06
7.41839e-06
7.51063e-06
7.41019e-06
7.10318e-06
5.66582e-06
4.11208e-07
0
0
0
0
0
0
0
0
0
6.30754e-07
3.19184e-07
0
0
4.02043e-06
1.29255e-05
2.15607e-05
2.7939e-05
3.05306e-05
2.97244e-05
2.69399e-05
2.3478e-05
1.99225e-05
1.63279e-05
1.26151e-05
8.71095e-06
4.53967e-06
9.33446e-09
0
0
0
0
0
0
0
0
0
0
0
4.9486e-06
1.1668e-05
1.59141e-05
1.75433e-05
1.83824e-05
1.95642e-05
2.12703e-05
2.32629e-05
2.51907e-05
2.67945e-05
2.80216e-05
2.89897e-05
2.98544e-05
3.07098e-05
3.15612e-05
3.23096e-05
3.27531e-05
3.2645e-05
3.17818e-05
3.00454e-05
2.74058e-05
2.38036e-05
1.90045e-05
1.2577e-05
6.07714e-06
2.28058e-06
2.22306e-06
7.23861e-07
1.46441e-06
3.82e-07
5.93152e-07
8.62293e-07
1.19616e-06
1.63107e-06
2.19707e-06
2.8996e-06
3.73004e-06
4.66837e-06
5.68319e-06
6.73493e-06
7.77987e-06
8.77298e-06
9.66958e-06
1.0426e-05
1.1e-05
1.13517e-05
1.14486e-05
1.12735e-05
1.08359e-05
1.01818e-05
9.39659e-06
8.59238e-06
7.87782e-06
7.32316e-06
6.94524e-06
6.71723e-06
6.59328e-06
6.49666e-06
6.21909e-06
5.67876e-06
4.81014e-06
2.12375e-06
0
0
0
0
0
0
0
0
0
0
7.74793e-07
8.44431e-07
2.45851e-06
8.17194e-06
1.59381e-05
2.37832e-05
2.9239e-05
3.11125e-05
3.00623e-05
2.74271e-05
2.42166e-05
2.08106e-05
1.72589e-05
1.35496e-05
9.65632e-06
5.5199e-06
1.05421e-06
0
0
0
0
0
0
0
0
0
0
0
3.37958e-06
9.10104e-06
1.34225e-05
1.55041e-05
1.66889e-05
1.80716e-05
1.99098e-05
2.20581e-05
2.42762e-05
2.63872e-05
2.83142e-05
2.99979e-05
3.1336e-05
3.22446e-05
3.27427e-05
3.29181e-05
3.28013e-05
3.22856e-05
3.11615e-05
2.91934e-05
2.62064e-05
2.21037e-05
1.67617e-05
9.9295e-06
2.90307e-06
1.27773e-06
2.21603e-06
2.18524e-06
3.03456e-06
4.19214e-07
6.93611e-07
9.3326e-07
1.20506e-06
1.5635e-06
2.04465e-06
2.65687e-06
3.39271e-06
4.23279e-06
5.14664e-06
6.09653e-06
7.04159e-06
7.94035e-06
8.7518e-06
9.43555e-06
9.95204e-06
1.02642e-05
1.03425e-05
1.01726e-05
9.76676e-06
9.17145e-06
8.46832e-06
7.75885e-06
7.13255e-06
6.63489e-06
6.26248e-06
5.97141e-06
5.69334e-06
5.36737e-06
4.86102e-06
4.01829e-06
2.97545e-06
1.43213e-06
0
0
0
0
0
0
0
0
0
0
0
1.521e-06
4.96426e-06
1.08639e-05
1.83572e-05
2.5483e-05
2.98992e-05
3.11123e-05
2.99848e-05
2.76248e-05
2.47035e-05
2.14582e-05
1.79725e-05
1.43025e-05
1.04633e-05
6.41193e-06
2.06915e-06
0
0
0
0
0
0
0
0
0
0
0
2.14542e-06
7.30805e-06
1.16111e-05
1.35375e-05
1.46997e-05
1.62647e-05
1.84133e-05
2.09821e-05
2.37597e-05
2.6576e-05
2.92657e-05
3.1594e-05
3.32849e-05
3.41699e-05
3.43081e-05
3.39304e-05
3.32375e-05
3.22257e-05
3.06726e-05
2.82423e-05
2.46468e-05
1.9798e-05
1.37914e-05
7.06263e-06
1.93494e-06
1.26512e-06
2.60813e-06
4.04815e-06
4.17169e-06
3.59127e-07
7.16203e-07
9.34054e-07
1.1459e-06
1.42522e-06
1.81574e-06
2.33181e-06
2.9696e-06
3.71142e-06
4.52796e-06
5.38286e-06
6.23712e-06
7.0516e-06
7.78783e-06
8.4081e-06
8.87565e-06
9.15647e-06
9.22389e-06
9.06658e-06
8.69836e-06
8.16571e-06
7.54573e-06
6.92794e-06
6.38124e-06
5.92727e-06
5.54318e-06
5.17251e-06
4.74178e-06
4.18762e-06
3.43368e-06
2.32049e-06
8.66086e-07
0
0
0
0
0
0
0
0
0
0
0
0
1.84576e-06
6.53457e-06
1.29097e-05
2.03117e-05
2.64079e-05
2.97764e-05
3.05497e-05
2.95601e-05
2.75547e-05
2.49163e-05
2.18241e-05
1.8419e-05
1.48176e-05
1.10722e-05
7.15797e-06
3.00314e-06
0
0
0
0
0
0
0
0
0
0
0
7.31043e-07
5.46406e-06
1.00292e-05
1.14836e-05
1.26041e-05
1.4529e-05
1.7208e-05
2.03787e-05
2.38001e-05
2.72636e-05
3.05208e-05
3.32383e-05
3.507e-05
3.58335e-05
3.56309e-05
3.47744e-05
3.35503e-05
3.20005e-05
2.9881e-05
2.67862e-05
2.23558e-05
1.65454e-05
9.77666e-06
3.90158e-06
2.42517e-06
1.88201e-06
3.33492e-06
6.24502e-06
5.03679e-06
1.58284e-07
6.27151e-07
8.42733e-07
1.01027e-06
1.22023e-06
1.5228e-06
1.94093e-06
2.47803e-06
3.12051e-06
3.84126e-06
4.60546e-06
5.37553e-06
6.1138e-06
6.78355e-06
7.3492e-06
7.77652e-06
8.03423e-06
8.09834e-06
7.95999e-06
7.63488e-06
7.16927e-06
6.63492e-06
6.10731e-06
5.6331e-06
5.21176e-06
4.80391e-06
4.34594e-06
3.76931e-06
3.01081e-06
2.02373e-06
7.01005e-07
0
0
0
0
0
0
0
0
0
0
0
0
0
2.42629e-06
7.8861e-06
1.47353e-05
2.14255e-05
2.62946e-05
2.88812e-05
2.95511e-05
2.8867e-05
2.72163e-05
2.48166e-05
2.18561e-05
1.85356e-05
1.50238e-05
1.1408e-05
7.68358e-06
3.78675e-06
0
0
0
0
0
0
0
0
0
0
0
0
1.80177e-06
8.02475e-06
9.33025e-06
1.08018e-05
1.33556e-05
1.66965e-05
2.04501e-05
2.43374e-05
2.81308e-05
3.15811e-05
3.43494e-05
3.60907e-05
3.66392e-05
3.61216e-05
3.48705e-05
3.31815e-05
3.10874e-05
2.83181e-05
2.44309e-05
1.90403e-05
1.21928e-05
4.56634e-06
0
0
2.01365e-06
4.47e-06
8.99762e-06
5.89629e-06
0
3.97271e-07
6.36993e-07
7.86246e-07
9.49386e-07
1.17804e-06
1.50341e-06
1.93971e-06
2.48113e-06
3.10511e-06
3.77956e-06
4.46867e-06
5.13609e-06
5.74636e-06
6.26533e-06
6.66052e-06
6.90259e-06
6.9699e-06
6.85642e-06
6.58033e-06
6.18761e-06
5.74294e-06
5.30483e-06
4.89642e-06
4.49708e-06
4.05567e-06
3.50997e-06
2.80057e-06
1.87404e-06
6.96383e-07
0
0
0
0
0
0
0
0
0
0
0
0
0
0
3.27656e-06
9.27135e-06
1.57121e-05
2.12448e-05
2.517e-05
2.7439e-05
2.82862e-05
2.79454e-05
2.65783e-05
2.43516e-05
2.14902e-05
1.82485e-05
1.48422e-05
1.13921e-05
7.91171e-06
4.3434e-06
6.04394e-07
0
0
0
0
0
0
0
0
0
0
0
0
5.33529e-06
7.03175e-06
9.35279e-06
1.27198e-05
1.67303e-05
2.09295e-05
2.49772e-05
2.86908e-05
3.1919e-05
3.44021e-05
3.58405e-05
3.6089e-05
3.52707e-05
3.36887e-05
3.15917e-05
2.8971e-05
2.55353e-05
2.08336e-05
1.45278e-05
6.72416e-06
0
0
0
4.37531e-07
4.90907e-06
1.04413e-05
3.75121e-06
0
4.40665e-08
3.2601e-07
4.8048e-07
6.23667e-07
8.00956e-07
1.04618e-06
1.38512e-06
1.82367e-06
2.34731e-06
2.92896e-06
3.53585e-06
4.13344e-06
4.68736e-06
5.16428e-06
5.5325e-06
5.76407e-06
5.83991e-06
5.75758e-06
5.53814e-06
5.22589e-06
4.87493e-06
4.52319e-06
4.17101e-06
3.78287e-06
3.30353e-06
2.67878e-06
1.85912e-06
8.06942e-07
0
0
0
0
0
0
0
0
0
0
0
0
0
0
0
3.95142e-06
9.69396e-06
1.52312e-05
1.99067e-05
2.3436e-05
2.57498e-05
2.68542e-05
2.67746e-05
2.55852e-05
2.34566e-05
2.06558e-05
1.74879e-05
1.42127e-05
1.09773e-05
7.8028e-06
4.62941e-06
1.37457e-06
0
0
0
0
0
0
0
0
0
0
0
6.30845e-07
2.18829e-06
4.41736e-06
7.69435e-06
1.17692e-05
1.63162e-05
2.08376e-05
2.48881e-05
2.82943e-05
3.1031e-05
3.29875e-05
3.39593e-05
3.38286e-05
3.26928e-05
3.07942e-05
2.83106e-05
2.51889e-05
2.11366e-05
1.57569e-05
8.85807e-06
6.413e-07
0
0
0
2.65558e-06
7.74255e-06
1.00535e-05
0
0
0
0
4.35162e-08
2.09145e-07
3.74653e-07
5.67754e-07
8.22958e-07
1.16172e-06
1.5828e-06
2.0679e-06
2.58952e-06
3.11602e-06
3.61437e-06
4.05174e-06
4.39707e-06
4.62415e-06
4.71727e-06
4.67786e-06
4.52836e-06
4.30766e-06
4.05441e-06
3.78391e-06
3.47699e-06
3.08979e-06
2.57106e-06
1.87856e-06
9.75646e-07
0
0
0
0
0
0
0
0
0
0
0
0
0
0
0
0
3.59303e-06
8.77847e-06
1.37174e-05
1.80483e-05
2.15246e-05
2.39663e-05
2.5243e-05
2.52936e-05
2.41686e-05
2.2063e-05
1.92949e-05
1.62229e-05
1.31411e-05
1.02018e-05
7.41051e-06
4.68989e-06
1.9532e-06
0
0
0
0
0
0
0
0
0
0
0
0
0
1.67778e-06
5.23635e-06
9.40799e-06
1.4075e-05
1.88041e-05
2.30057e-05
2.63049e-05
2.86429e-05
3.00533e-05
3.04934e-05
2.99185e-05
2.8413e-05
2.61604e-05
2.32843e-05
1.97254e-05
1.52559e-05
9.65702e-06
2.99636e-06
0
0
0
4.60085e-07
8.47607e-06
0
0
0
0
0
0
0
0
0
1.04817e-07
2.95992e-07
5.39851e-07
8.53257e-07
1.23187e-06
1.65702e-06
2.10199e-06
2.53618e-06
2.92809e-06
3.24832e-06
3.47374e-06
3.59276e-06
3.60957e-06
3.54395e-06
3.42311e-06
3.26542e-06
3.06502e-06
2.79132e-06
2.40131e-06
1.854e-06
1.11776e-06
1.68769e-07
0
0
0
0
0
0
0
0
0
0
0
0
0
0
0
0
2.54526e-06
7.33619e-06
1.19739e-05
1.61519e-05
1.96003e-05
2.20778e-05
2.33878e-05
2.3428e-05
2.2256e-05
2.01188e-05
1.74012e-05
1.4506e-05
1.17318e-05
9.19961e-06
6.87071e-06
4.63721e-06
2.40909e-06
1.38702e-07
0
0
0
0
0
0
0
0
0
0
0
0
0
1.75406e-06
5.24155e-06
9.28514e-06
1.38377e-05
1.84264e-05
2.2292e-05
2.48927e-05
2.61454e-05
2.61922e-05
2.51767e-05
2.32574e-05
2.06199e-05
1.73946e-05
1.3587e-05
9.11884e-06
3.98233e-06
0
0
0
0
7.49152e-07
1.94709e-06
0
0
0
0
0
0
0
0
0
0
0
0
1.8994e-07
4.62099e-07
7.86051e-07
1.14348e-06
1.50866e-06
1.8534e-06
2.15166e-06
2.38418e-06
2.54239e-06
2.62959e-06
2.6572e-06
2.63551e-06
2.56197e-06
2.41547e-06
2.16226e-06
1.76614e-06
1.19956e-06
4.41595e-07
0
0
0
0
0
0
0
0
0
0
0
0
0
0
0
0
0
1.49941e-06
5.94277e-06
1.02998e-05
1.42869e-05
1.76195e-05
2.00073e-05
2.12013e-05
2.10918e-05
1.97904e-05
1.76281e-05
1.50475e-05
1.24497e-05
1.00878e-05
8.02411e-06
6.17883e-06
4.43268e-06
2.70718e-06
9.58225e-07
0
0
0
0
0
0
0
0
0
0
0
0
0
0
1.94697e-06
4.57356e-06
7.87929e-06
1.1882e-05
1.60702e-05
1.95906e-05
2.16582e-05
2.19926e-05
2.08293e-05
1.85745e-05
1.55849e-05
1.21062e-05
8.26923e-06
4.1424e-06
0
0
0
0
0
1.09824e-06
2.51995e-06
0
0
0
0
0
0
0
0
0
0
0
0
0
0
3.80231e-08
2.91474e-07
5.70858e-07
8.54998e-07
1.12371e-06
1.3618e-06
1.56061e-06
1.71663e-06
1.82731e-06
1.8853e-06
1.87359e-06
1.76601e-06
1.53262e-06
1.14578e-06
5.87937e-07
0
0
0
0
0
0
0
0
0
0
0
0
0
0
0
0
0
0
6.91877e-07
4.71427e-06
8.72026e-06
1.24363e-05
1.55391e-05
1.76804e-05
1.85939e-05
1.82249e-05
1.67822e-05
1.46664e-05
1.23127e-05
1.00579e-05
8.10573e-06
6.51442e-06
5.23404e-06
4.04709e-06
2.62918e-06
1.08765e-06
0
0
0
0
0
0
0
0
0
0
0
0
0
0
1.32594e-06
4.01159e-06
5.95602e-06
7.78732e-06
1.02999e-05
1.32786e-05
1.60077e-05
1.76e-05
1.73389e-05
1.52922e-05
1.21028e-05
8.38068e-06
4.4986e-06
6.38047e-07
0
0
0
0
0
0
1.02385e-06
0
0
0
0
0
0
0
0
0
0
0
0
0
0
0
0
0
1.38868e-07
3.73116e-07
6.06447e-07
8.28219e-07
1.02656e-06
1.18639e-06
1.28846e-06
1.30927e-06
1.22322e-06
1.00511e-06
6.34616e-07
1.01389e-07
0
0
0
0
0
0
0
0
0
0
0
0
0
0
0
0
0
0
0
3.51813e-06
7.13727e-06
1.04994e-05
1.32318e-05
1.49665e-05
1.54883e-05
1.48454e-05
1.33302e-05
1.13538e-05
9.31575e-06
7.53012e-06
6.07985e-06
4.80859e-06
3.22104e-06
1.59342e-06
5.33559e-07
1.96391e-07
0
0
0
0
0
0
0
1.51015e-07
5.99741e-07
0
0
0
0
0
1.99138e-06
9.37595e-06
1.26401e-05
1.23211e-05
1.07942e-05
1.01448e-05
1.08588e-05
1.22098e-05
1.32505e-05
1.28609e-05
1.04471e-05
6.60931e-06
2.28932e-06
0
0
0
0
0
0
0
0
0
0
0
0
0
0
0
0
0
0
0
0
0
0
0
0
0
0
0
0
1.32182e-07
3.34822e-07
5.12566e-07
6.41208e-07
6.94321e-07
6.45557e-07
4.70993e-07
1.54316e-07
0
0
0
0
0
0
0
0
0
0
0
0
0
0
0
0
0
0
0
0
2.45055e-06
5.58613e-06
8.44783e-06
1.06509e-05
1.18771e-05
1.20184e-05
1.12349e-05
9.90595e-06
8.41272e-06
6.8906e-06
5.18834e-06
2.48198e-06
1.56702e-06
9.76788e-07
3.89312e-07
2.11564e-07
7.18185e-08
0
0
0
0
0
2.78205e-07
2.16639e-06
7.72285e-06
8.62994e-06
0
0
0
0
0
2.48721e-06
1.93209e-05
2.64394e-05
2.53985e-05
2.00696e-05
1.4404e-05