/*--------------------------------*- C++ -*----------------------------------*\
  =========                 |
  \\      /  F ield         | OpenFOAM: The Open Source CFD Toolbox
   \\    /   O peration     | Website:  https://openfoam.org
    \\  /    A nd           | Version:  10
     \\/     M anipulation  |
\*---------------------------------------------------------------------------*/
FoamFile
{
    format      ascii;
    class       volScalarField;
    location    "0.16";
    object      p;
}
// * * * * * * * * * * * * * * * * * * * * * * * * * * * * * * * * * * * * * //

dimensions      [0 2 -2 0 0 0 0];

internalField   nonuniform List<scalar> 
6820
(
-9.08997
-9.39464
-9.44734
-9.4727
-9.51684
-9.55639
-9.59164
-9.62706
-9.66309
-9.69974
-9.73742
-9.77649
-9.8172
-9.85976
-9.9044
-9.95134
-10.0007
-10.0528
-10.1077
-10.1654
-10.2262
-10.2899
-10.3565
-10.4259
-10.4976
-10.5714
-10.6464
-10.7215
-10.7966
-10.871
-10.9503
-11.0219
-11.1083
-9.28995
-9.41722
-9.46007
-9.48501
-9.52304
-9.55922
-9.59262
-9.62666
-9.66171
-9.69765
-9.73477
-9.77337
-9.81366
-9.85582
-9.90004
-9.9465
-9.99538
-10.0468
-10.101
-10.1579
-10.2177
-10.2804
-10.3459
-10.4141
-10.4845
-10.5572
-10.6307
-10.7045
-10.7798
-10.8573
-10.9353
-11.0098
-11.0812
-9.28939
-9.37722
-9.44203
-9.47798
-9.51801
-9.55664
-9.59203
-9.62718
-9.66284
-9.69908
-9.73624
-9.77468
-9.81464
-9.85632
-9.89992
-9.94562
-9.99359
-10.044
-10.0969
-10.1524
-10.2106
-10.2714
-10.3349
-10.4008
-10.4689
-10.5395
-10.6124
-10.6873
-10.7631
-10.8392
-10.9157
-10.9889
-11.0584
-9.34514
-9.41717
-9.47119
-9.50047
-9.53372
-9.56804
-9.60048
-9.63319
-9.66692
-9.70162
-9.73752
-9.77489
-9.81392
-9.85476
-9.89759
-9.94255
-9.98976
-10.0394
-10.0915
-10.1462
-10.2035
-10.2635
-10.3262
-10.3914
-10.4593
-10.529
-10.601
-10.6746
-10.7494
-10.8258
-10.9034
-10.9805
-11.0552
-9.37359
-9.41461
-9.45977
-9.49176
-9.52605
-9.56139
-9.59515
-9.62883
-9.66325
-9.69843
-9.73462
-9.77207
-9.81103
-9.85165
-9.89411
-9.93855
-9.9851
-10.0339
-10.0851
-10.1387
-10.1947
-10.2533
-10.3144
-10.3779
-10.4438
-10.512
-10.5826
-10.6555
-10.7305
-10.8077
-10.8868
-10.9673
-11.0491
-9.4016
-9.43451
-9.47777
-9.50984
-9.54121
-9.57362
-9.60518
-9.63686
-9.66944
-9.70299
-9.7377
-9.7738
-9.8115
-9.85093
-9.89223
-9.93552
-9.98092
-10.0285
-10.0785
-10.1307
-10.1855
-10.2428
-10.3025
-10.3648
-10.4297
-10.4969
-10.5668
-10.6391
-10.714
-10.7917
-10.8726
-10.957
-11.0463
-9.42429
-9.44629
-9.48062
-9.50924
-9.53822
-9.56926
-9.6004
-9.63192
-9.66438
-9.69785
-9.73243
-9.76831
-9.80572
-9.84475
-9.88553
-9.92821
-9.97285
-10.0196
-10.0684
-10.1196
-10.1731
-10.2289
-10.2872
-10.348
-10.4112
-10.477
-10.5454
-10.6168
-10.6913
-10.7695
-10.8519
-10.9396
-11.0345
-9.44376
-9.46037
-9.49096
-9.51942
-9.54778
-9.57764
-9.60769
-9.63807
-9.6693
-9.70154
-9.73489
-9.76953
-9.80573
-9.84356
-9.88306
-9.9244
-9.96748
-10.0127
-10.0602
-10.1099
-10.1617
-10.216
-10.2726
-10.3317
-10.3933
-10.4577
-10.5249
-10.5953
-10.6692
-10.7473
-10.8306
-10.9202
-11.0186
-9.46055
-9.47298
-9.49843
-9.52384
-9.5495
-9.57704
-9.6055
-9.63472
-9.665
-9.69643
-9.72904
-9.76289
-9.79832
-9.83539
-9.87415
-9.91446
-9.9567
-10.0008
-10.047
-10.0952
-10.1456
-10.1983
-10.2532
-10.3106
-10.3705
-10.4332
-10.4988
-10.5677
-10.6406
-10.718
-10.801
-10.8911
-10.9905
-9.47509
-9.48482
-9.50676
-9.53059
-9.55525
-9.58182
-9.60947
-9.63791
-9.66733
-9.69783
-9.72946
-9.76217
-9.79664
-9.83229
-9.86963
-9.90863
-9.94941
-9.99196
-10.0364
-10.0829
-10.1315
-10.1822
-10.2351
-10.2905
-10.3483
-10.409
-10.4726
-10.5398
-10.6109
-10.6868
-10.7685
-10.8573
-10.9553
-9.48775
-9.49555
-9.51433
-9.53589
-9.55856
-9.58311
-9.60902
-9.63595
-9.66401
-9.69325
-9.72368
-9.75491
-9.78866
-9.82328
-9.85929
-9.89696
-9.93633
-9.97741
-10.0203
-10.0651
-10.1119
-10.1607
-10.2116
-10.2649
-10.3206
-10.3791
-10.4405
-10.5053
-10.5742
-10.6477
-10.7269
-10.8129
-10.9075
-9.49875
-9.50519
-9.52146
-9.54117
-9.56245
-9.58575
-9.61062
-9.63663
-9.6638
-9.69214
-9.72176
-9.75293
-9.78442
-9.81769
-9.85233
-9.8885
-9.92625
-9.9656
-10.0067
-10.0495
-10.0941
-10.1407
-10.1893
-10.2401
-10.2933
-10.3491
-10.4077
-10.4697
-10.5355
-10.6057
-10.6812
-10.7629
-10.8522
-9.50828
-9.51372
-9.5279
-9.54577
-9.56545
-9.58713
-9.61043
-9.63497
-9.66069
-9.68761
-9.71571
-9.74527
-9.7756
-9.80741
-9.84056
-9.87514
-9.9112
-9.94876
-9.9879
-10.0287
-10.0712
-10.1155
-10.1617
-10.2099
-10.2604
-10.3133
-10.3689
-10.4275
-10.4897
-10.5559
-10.6268
-10.703
-10.7856
-9.51646
-9.52114
-9.5336
-9.54983
-9.56808
-9.5884
-9.61045
-9.63384
-9.65845
-9.68428
-9.71124
-9.73945
-9.76862
-9.79904
-9.8307
-9.86364
-9.89793
-9.93358
-9.97067
-10.0092
-10.0494
-10.0911
-10.1346
-10.18
-10.2273
-10.2769
-10.3289
-10.3836
-10.4415
-10.5028
-10.5681
-10.6378
-10.7125
-9.52339
-9.52747
-9.53849
-9.55322
-9.57006
-9.58896
-9.60958
-9.63156
-9.65475
-9.67911
-9.70458
-9.73119
-9.75881
-9.78756
-9.81747
-9.84857
-9.88089
-9.91446
-9.94932
-9.98553
-10.0231
-10.0622
-10.1028
-10.1451
-10.1891
-10.2351
-10.2832
-10.3337
-10.3867
-10.4427
-10.5018
-10.5643
-10.6306
-9.52914
-9.53274
-9.54254
-9.5559
-9.57142
-9.58898
-9.60827
-9.62895
-9.65086
-9.67391
-9.69804
-9.72322
-9.74938
-9.77656
-9.80478
-9.83405
-9.8644
-9.89584
-9.92842
-9.96215
-9.99709
-10.0333
-10.0708
-10.1098
-10.1502
-10.1922
-10.236
-10.2817
-10.3295
-10.3795
-10.4318
-10.4866
-10.5439
-9.53376
-9.53696
-9.54572
-9.55783
-9.57209
-9.58833
-9.60626
-9.62555
-9.64603
-9.6676
-9.69018
-9.71371
-9.73816
-9.76353
-9.78982
-9.81705
-9.84521
-9.87432
-9.9044
-9.93547
-9.96756
-10.0007
-10.0349
-10.0703
-10.1069
-10.1448
-10.184
-10.2247
-10.2669
-10.3106
-10.3559
-10.4027
-10.451
-9.5373
-9.54016
-9.548
-9.55898
-9.57203
-9.587
-9.60361
-9.62154
-9.64062
-9.66075
-9.68181
-9.70376
-9.72654
-9.75014
-9.77453
-9.79972
-9.82569
-9.85245
-9.87999
-9.90833
-9.93748
-9.96745
-9.99825
-10.0299
-10.0625
-10.096
-10.1304
-10.1657
-10.202
-10.2393
-10.2773
-10.3161
-10.3553
-9.53979
-9.54235
-9.54939
-9.55931
-9.57122
-9.58495
-9.60024
-9.61679
-9.63442
-9.65302
-9.67247
-9.69271
-9.71367
-9.73533
-9.75766
-9.78063
-9.80424
-9.82847
-9.8533
-9.87873
-9.90476
-9.93137
-9.95857
-9.98635
-10.0147
-10.0436
-10.073
-10.103
-10.1333
-10.164
-10.1948
-10.2256
-10.2561
-9.54126
-9.54355
-9.54986
-9.55882
-9.56964
-9.58217
-9.59615
-9.61133
-9.62751
-9.64457
-9.6624
-9.68092
-9.70007
-9.71978
-9.74003
-9.76078
-9.78201
-9.80367
-9.82576
-9.84824
-9.87109
-9.89428
-9.91779
-9.94159
-9.96563
-9.98987
-10.0142
-10.0387
-10.063
-10.0871
-10.1108
-10.1339
-10.1559
-9.54175
-9.54379
-9.54944
-9.55749
-9.56727
-9.57863
-9.59133
-9.60513
-9.61985
-9.63534
-9.6515
-9.66824
-9.68548
-9.70316
-9.72123
-9.73964
-9.75837
-9.77735
-9.79657
-9.81597
-9.83552
-9.85518
-9.87489
-9.89461
-9.91426
-9.93377
-9.95304
-9.97195
-9.99036
-10.0081
-10.0249
-10.0406
-10.0546
-9.54126
-9.54309
-9.54813
-9.55533
-9.56411
-9.57433
-9.58578
-9.59821
-9.61145
-9.62536
-9.63983
-9.65476
-9.67007
-9.68568
-9.70154
-9.7176
-9.73379
-9.75007
-9.76639
-9.78269
-9.79891
-9.81501
-9.8309
-9.84653
-9.86179
-9.87659
-9.89081
-9.90432
-9.91693
-9.92847
-9.93867
-9.94733
-9.95402
-9.53984
-9.54146
-9.54594
-9.55235
-9.56017
-9.56929
-9.5795
-9.59057
-9.60234
-9.61467
-9.62743
-9.64054
-9.65388
-9.6674
-9.68101
-9.69465
-9.70826
-9.72178
-9.73515
-9.74829
-9.76115
-9.77365
-9.7857
-9.79722
-9.80811
-9.81826
-9.82752
-9.83575
-9.84277
-9.84839
-9.85236
-9.85448
-9.85436
-9.53752
-9.53895
-9.54289
-9.54855
-9.55546
-9.5635
-9.57249
-9.58222
-9.59252
-9.60325
-9.61429
-9.62554
-9.63689
-9.64827
-9.6596
-9.6708
-9.68181
-9.69255
-9.70295
-9.71293
-9.72243
-9.73135
-9.7396
-9.74708
-9.75369
-9.75929
-9.76376
-9.76693
-9.76863
-9.76868
-9.76684
-9.76294
-9.75661
-9.53432
-9.53557
-9.53902
-9.54397
-9.55
-9.55702
-9.56483
-9.57325
-9.58211
-9.59128
-9.60062
-9.61004
-9.61943
-9.62869
-9.63776
-9.64654
-9.65495
-9.66293
-9.67038
-9.67724
-9.6834
-9.68879
-9.6933
-9.69683
-9.69927
-9.70048
-9.70034
-9.69868
-9.69536
-9.69019
-9.68297
-9.67354
-9.66159
-9.53028
-9.53137
-9.53435
-9.53862
-9.54382
-9.54983
-9.55648
-9.56359
-9.57101
-9.57858
-9.5862
-9.59375
-9.60113
-9.60825
-9.61502
-9.62135
-9.62716
-9.63236
-9.63688
-9.64063
-9.64351
-9.64544
-9.64631
-9.64601
-9.64444
-9.64147
-9.63696
-9.63078
-9.62278
-9.61281
-9.60069
-9.58628
-9.56934
-9.52544
-9.52637
-9.52894
-9.53259
-9.537
-9.54208
-9.54765
-9.55354
-9.5596
-9.56568
-9.57167
-9.57745
-9.58292
-9.58799
-9.59255
-9.59652
-9.59981
-9.60234
-9.60401
-9.60475
-9.60446
-9.60305
-9.60041
-9.59644
-9.59104
-9.58409
-9.57546
-9.56505
-9.55271
-9.53831
-9.52171
-9.5028
-9.48138
-9.51984
-9.52063
-9.52279
-9.52584
-9.52949
-9.53363
-9.5381
-9.54272
-9.54737
-9.55189
-9.55619
-9.56013
-9.56363
-9.56658
-9.5689
-9.57048
-9.57125
-9.57112
-9.57
-9.56779
-9.56442
-9.55979
-9.5538
-9.54636
-9.53736
-9.5267
-9.51428
-9.49999
-9.48371
-9.46534
-9.44477
-9.42192
-9.39663
-9.51353
-9.5142
-9.51603
-9.51858
-9.5216
-9.52496
-9.52851
-9.53207
-9.53551
-9.53869
-9.54149
-9.54381
-9.54553
-9.54655
-9.54679
-9.54616
-9.54456
-9.54192
-9.53814
-9.53315
-9.52685
-9.51916
-9.51
-9.49926
-9.48688
-9.47274
-9.45678
-9.43889
-9.41899
-9.39699
-9.37282
-9.34641
-9.31765
-9.50654
-9.50708
-9.50855
-9.51057
-9.51287
-9.51534
-9.51782
-9.52016
-9.52223
-9.52391
-9.52508
-9.52563
-9.52547
-9.5245
-9.52263
-9.51976
-9.51583
-9.51073
-9.5044
-9.49674
-9.48768
-9.47714
-9.46503
-9.45129
-9.43582
-9.41856
-9.39944
-9.37838
-9.35531
-9.33018
-9.30294
-9.27355
-9.24193
-9.49894
-9.49945
-9.50077
-9.50253
-9.50447
-9.50644
-9.50827
-9.50981
-9.51092
-9.51147
-9.51136
-9.51047
-9.50872
-9.50601
-9.50225
-9.49737
-9.49128
-9.48391
-9.47517
-9.46501
-9.45333
-9.44009
-9.42519
-9.4086
-9.39022
-9.37002
-9.34793
-9.32391
-9.29791
-9.26989
-9.23982
-9.20768
-9.17344
-9.49067
-9.49101
-9.49197
-9.49318
-9.49437
-9.49543
-9.49622
-9.49659
-9.4964
-9.49555
-9.49393
-9.49145
-9.488
-9.48351
-9.47788
-9.47104
-9.46291
-9.45342
-9.44249
-9.43006
-9.41606
-9.40043
-9.38312
-9.36406
-9.34322
-9.32054
-9.29598
-9.26952
-9.24112
-9.21078
-9.17848
-9.14423
-9.10801
-9.48199
-9.48258
-9.48389
-9.48539
-9.48672
-9.48773
-9.48826
-9.48814
-9.48727
-9.48554
-9.48286
-9.47914
-9.4743
-9.46826
-9.46096
-9.45232
-9.44227
-9.43076
-9.41771
-9.40308
-9.38681
-9.36886
-9.34916
-9.3277
-9.30442
-9.27931
-9.25234
-9.22349
-9.19277
-9.16016
-9.12567
-9.08934
-9.05116
-9.47227
-9.47236
-9.47304
-9.47378
-9.47427
-9.47439
-9.47397
-9.47284
-9.47089
-9.46801
-9.46411
-9.45911
-9.45292
-9.44547
-9.43669
-9.42651
-9.41487
-9.40171
-9.38697
-9.37061
-9.35257
-9.33282
-9.31132
-9.28804
-9.26297
-9.23607
-9.20736
-9.17682
-9.14446
-9.11031
-9.07438
-9.03671
-8.99733
-9.4629
-9.46442
-9.4668
-9.46879
-9.47003
-9.47053
-9.47015
-9.46875
-9.46626
-9.46263
-9.45778
-9.45166
-9.44422
-9.43538
-9.42509
-9.4133
-9.39997
-9.38503
-9.36845
-9.3502
-9.33022
-9.3085
-9.28501
-9.25974
-9.23267
-9.20381
-9.17315
-9.14072
-9.10653
-9.07062
-9.03301
-8.99376
-8.95291
-9.44996
-9.44955
-9.45079
-9.4521
-9.45284
-9.45292
-9.45211
-9.45023
-9.44721
-9.44297
-9.43745
-9.43059
-9.42234
-9.41264
-9.40144
-9.3887
-9.37437
-9.3584
-9.34077
-9.32144
-9.30037
-9.27756
-9.25298
-9.22663
-9.19851
-9.16863
-9.137
-9.10365
-9.06861
-9.03191
-8.9936
-8.95374
-8.91238
-9.44236
-9.44731
-9.45228
-9.45503
-9.45643
-9.45677
-9.45575
-9.45335
-9.4496
-9.44448
-9.43794
-9.42995
-9.42048
-9.40947
-9.39689
-9.3827
-9.36686
-9.34934
-9.33012
-9.30916
-9.28645
-9.26197
-9.23573
-9.20773
-9.17797
-9.14647
-9.11326
-9.07837
-9.04185
-9.00374
-8.96411
-8.92304
-8.88055
-9.41539
-9.41745
-9.42446
-9.42899
-9.43174
-9.43333
-9.43325
-9.43148
-9.42815
-9.42326
-9.41682
-9.40882
-9.39926
-9.3881
-9.37533
-9.36092
-9.34484
-9.32707
-9.30758
-9.28636
-9.26339
-9.23866
-9.21219
-9.18397
-9.15402
-9.12237
-9.08905
-9.05409
-9.01754
-8.97946
-8.93991
-8.89893
-8.85664
-9.42657
-9.43543
-9.44245
-9.44506
-9.44683
-9.44721
-9.44573
-9.44272
-9.43826
-9.43226
-9.4247
-9.41558
-9.40486
-9.39252
-9.37853
-9.36287
-9.34551
-9.32643
-9.30561
-9.28304
-9.25872
-9.23265
-9.20482
-9.17525
-9.14396
-9.11099
-9.07636
-9.04013
-9.00235
-8.96309
-8.92242
-8.88042
-8.83724
-9.31809
-9.38371
-9.40416
-9.41
-9.41741
-9.42176
-9.42232
-9.42064
-9.4171
-9.4117
-9.40453
-9.3957
-9.38522
-9.37309
-9.3593
-9.34384
-9.32669
-9.30783
-9.28726
-9.26497
-9.24095
-9.21521
-9.18776
-9.15862
-9.12783
-9.09541
-9.0614
-9.02584
-8.9888
-8.9503
-8.91042
-8.86921
-8.82673
-11.1181
-10.9877
-10.3715
-10.3033
-11.1777
-13.2784
-16.3527
-19.9105
-23.2411
-25.6021
-26.7183
-26.3852
-24.7957
-22.3131
-19.3074
-16.1141
-13.0222
-10.2442
-7.88419
-5.95088
-4.4047
-3.19296
-2.26411
-1.5732
-1.08345
-0.76608
-0.597079
-0.5603
-0.67028
-0.985906
-1.69008
-3.03452
-5.30562
-8.67766
-14.5215
-23.7665
-34.1391
-43.6831
-52.2943
-61.118
-69.9306
-77.0075
-79.9945
-78.1247
-72.0379
-63.2001
-52.7295
-41.7649
-31.6049
-23.3034
-17.1602
-12.8176
-9.73058
-7.46698
-5.75848
-4.44782
-3.43541
-2.65133
-2.04522
-1.58607
-1.26024
-1.08506
-1.11934
-1.45427
-2.68484
-6.04584
-12.2732
-20.8317
-29.7931
-36.4247
-38.619
-35.7558
-28.7659
-20.3104
-13.2588
-8.62333
-5.7975
-4.02595
-2.87375
-2.09023
-1.5335
-1.1316
-0.840976
-0.629159
-0.472445
-0.354511
-0.264378
-0.194807
-0.141107
-0.0999615
-0.0690927
-0.0465271
-0.0317661
-0.0221218
-0.0202179
-0.0152772
-0.0240905
-0.00244622
-0.0348289
0.0531581
-11.1482
-11.0835
-10.8247
-10.9725
-11.8928
-13.7023
-16.2232
-18.9488
-21.4668
-23.299
-24.1898
-23.9574
-22.6923
-20.6218
-18.033
-15.2304
-12.4804
-9.97302
-7.8074
-6.00575
-4.54686
-3.39348
-2.50556
-1.84659
-1.38615
-1.10054
-0.97078
-0.983898
-1.15189
-1.52968
-2.27381
-3.63635
-5.92493
-9.31636
-14.9447
-23.9186
-34.4176
-44.3621
-53.2094
-61.8823
-70.3117
-76.9875
-79.8017
-78.0621
-72.2757
-63.7339
-53.4599
-42.521
-32.2203
-23.7045
-17.3813
-12.9322
-9.79433
-7.50881
-5.79064
-4.4757
-3.46245
-2.68071
-2.08049
-1.63177
-1.32205
-1.16826
-1.23281
-1.60668
-2.73279
-5.66017
-11.0942
-18.6612
-26.6739
-32.6493
-34.6616
-32.1483
-26.0492
-18.783
-12.7133
-8.59388
-5.94739
-4.21416
-3.05303
-2.2457
-1.66328
-1.23796
-0.92669
-0.697069
-0.525407
-0.395225
-0.29526
-0.217915
-0.158132
-0.112288
-0.077876
-0.0527117
-0.0360373
-0.0249489
-0.0217961
-0.0159952
-0.0236615
-0.00251268
-0.0327842
0.0496843
-11.1169
-11.1289
-11.0844
-11.3459
-12.1672
-13.6101
-15.6266
-17.8892
-19.9828
-21.5275
-22.2625
-22.0478
-20.9457
-19.1442
-16.886
-14.423
-11.9781
-9.71643
-7.73253
-6.05822
-4.68648
-3.59298
-2.74799
-2.12288
-1.69329
-1.4405
-1.35051
-1.41444
-1.64291
-2.08678
-2.88131
-4.27258
-6.57562
-9.97081
-15.4003
-24.0654
-34.5737
-44.8182
-53.8919
-62.4077
-70.3914
-76.5893
-79.1973
-77.5974
-72.1504
-63.9516
-53.934
-43.0972
-32.7313
-24.0547
-17.5795
-13.0363
-9.85381
-7.55031
-5.82547
-4.50866
-3.49655
-2.71894
-2.12631
-1.68952
-1.39759
-1.26659
-1.35897
-1.76891
-2.82678
-5.38388
-10.0761
-16.6539
-23.6988
-29.0047
-30.8385
-28.7096
-23.5327
-17.4097
-12.2314
-8.56647
-6.08358
-4.3918
-3.22644
-2.39865
-1.79267
-1.34496
-1.01336
-0.765904
-0.579128
-0.436487
-0.326483
-0.241203
-0.175257
-0.124734
-0.0868685
-0.0592145
-0.0407276
-0.0282755
-0.0238919
-0.0172174
-0.0236624
-0.00295936
-0.0309698
0.0460661
-11.136
-11.2185
-11.3088
-11.6381
-12.4035
-13.6867
-15.3491
-17.1718
-18.8196
-20.0135
-20.5535
-20.3302
-19.3721
-17.8149
-15.8503
-13.6864
-11.5127
-9.47397
-7.6597
-6.10801
-4.82281
-3.7904
-2.99005
-2.4004
-2.00288
-1.78362
-1.73341
-1.84796
-2.13807
-2.65133
-3.50231
-4.92446
-7.23617
-10.626
-15.8657
-24.1713
-34.5698
-45.019
-54.303
-62.6715
-70.1938
-75.8868
-78.2719
-76.8051
-71.7067
-63.8732
-54.1528
-43.4817
-33.1219
-24.341
-17.7467
-13.1257
-9.90692
-7.59041
-5.86238
-4.54639
-3.53758
-2.76594
-2.18258
-1.75914
-1.48629
-1.37932
-1.49863
-1.94191
-2.96052
-5.21085
-9.23424
-14.8656
-20.9535
-25.5951
-27.2682
-25.5556
-21.29
-16.2167
-11.8119
-8.53601
-6.20327
-4.5575
-3.39344
-2.54899
-1.92164
-1.45244
-1.10074
-0.835408
-0.633356
-0.47806
-0.357835
-0.264472
-0.192244
-0.136936
-0.0955172
-0.0652952
-0.0449401
-0.0311144
-0.025533
-0.0180981
-0.0233953
-0.00330919
-0.0291156
0.0426139
-11.1461
-11.269
-11.4368
-11.798
-12.4906
-13.5573
-14.9028
-16.364
-17.6919
-18.6531
-19.0708
-18.8489
-18.0041
-16.6443
-14.9256
-13.0191
-11.084
-9.24666
-7.5901
-6.1559
-4.9559
-3.98507
-3.23051
-2.67744
-2.31275
-2.12718
-2.11615
-2.28005
-2.6315
-3.21553
-4.12779
-5.58204
-7.89297
-11.2622
-16.312
-24.2101
-34.3843
-44.9403
-54.412
-62.6673
-69.7601
-74.9632
-77.1162
-75.7557
-70.9847
-63.5139
-54.1126
-43.6591
-33.3737
-24.5495
-17.8754
-13.1973
-9.95268
-7.62902
-5.90171
-4.58943
-3.58623
-2.82244
-2.25004
-1.84131
-1.58842
-1.50643
-1.65147
-2.12215
-3.11998
-5.12984
-8.58089
-13.3534
-18.5337
-22.5372
-24.0732
-22.7822
-19.3645
-15.2061
-11.4489
-8.50317
-6.30976
-4.71316
-3.55454
-2.69666
-2.04989
-1.56011
-1.1886
-0.905402
-0.687947
-0.51983
-0.389228
-0.287665
-0.2091
-0.149016
-0.104097
-0.0713746
-0.0492231
-0.0341028
-0.0273839
-0.0192446
-0.0233926
-0.00391319
-0.02744
0.0391289
-11.1581
-11.3131
-11.53
-11.9042
-12.53
-13.4325
-14.5404
-15.7171
-16.7663
-17.502
-17.7872
-17.5484
-16.7936
-15.6019
-14.0951
-12.4129
-10.6894
-9.0344
-7.52433
-6.20213
-5.08542
-4.17612
-3.46803
-2.95222
-2.62063
-2.46837
-2.49519
-2.70611
-3.11671
-3.7704
-4.74871
-6.23936
-8.54292
-11.8729
-16.7279
-24.1818
-34.0172
-44.5633
-54.186
-62.3793
-69.1121
-73.8738
-75.7964
-74.5075
-70.0233
-62.8934
-53.8174
-43.6208
-33.4725
-24.6674
-17.9576
-13.247
-9.98937
-7.6655
-5.94327
-4.63785
-3.64267
-2.88865
-2.32878
-1.93604
-1.70362
-1.64685
-1.81703
-2.30921
-3.29374
-5.12334
-8.11032
-12.1476
-16.5136
-19.9352
-21.3553
-20.4542
-17.7717
-14.3667
-11.134
-8.46752
-6.40439
-4.85928
-3.70981
-2.84161
-2.17728
-1.66774
-1.27671
-0.975639
-0.742664
-0.561575
-0.420459
-0.310597
-0.225632
-0.160735
-0.112295
-0.0770702
-0.0531311
-0.0367479
-0.0289368
-0.0201777
-0.0232504
-0.00447064
-0.0257813
0.035797
-11.1567
-11.3293
-11.5673
-11.9323
-12.486
-13.2402
-14.1385
-15.0729
-15.895
-16.4586
-16.6507
-16.4077
-15.7306
-14.6795
-13.3527
-11.8648
-10.3281
-8.83773
-7.46308
-6.24705
-5.21116
-4.36277
-3.70126
-3.22287
-2.9241
-2.80415
-2.86674
-3.12127
-3.58707
-4.30715
-5.35404
-6.88553
-9.17853
-12.4515
-17.1032
-24.0845
-33.469
-43.8727
-53.5904
-61.7739
-68.2412
-72.6366
-74.3466
-73.0963
-68.8486
-62.0257
-53.2701
-43.36
-33.406
-24.6831
-17.9857
-13.2712
-10.0154
-7.69929
-5.98697
-4.69177
-3.70715
-2.96486
-2.41902
-2.0434
-1.83179
-1.79981
-1.99436
-2.50295
-3.47424
-5.16831
-7.79414
-11.2377
-14.9196
-17.8412
-19.1597
-18.5811
-16.487
-13.6719
-10.857
-8.42986
-6.48955
-4.99713
-3.85975
-2.98389
-2.30362
-1.77508
-1.36481
-1.04589
-0.797299
-0.603111
-0.451373
-0.333145
-0.241765
-0.172088
-0.120191
-0.0825394
-0.0568954
-0.0393424
-0.0305251
-0.0212327
-0.0232682
-0.00519338
-0.0242735
0.0325029
-11.1464
-11.3275
-11.5712
-11.9174
-12.4041
-13.0349
-13.7641
-14.5051
-15.1419
-15.5586
-15.6649
-15.41
-14.7934
-13.8603
-12.688
-11.3693
-9.99809
-8.65629
-7.40662
-6.2908
-5.33282
-4.54418
-3.92885
-3.48751
-3.22075
-3.13146
-3.22693
-3.52061
-4.0358
-4.8165
-5.93113
-7.50664
-9.78787
-12.9878
-17.4231
-23.9076
-32.738
-42.8586
-52.5937
-60.8057
-67.111
-71.2339
-72.7669
-71.5316
-67.4712
-60.9181
-52.4728
-42.8728
-33.1649
-24.5861
-17.9524
-13.2662
-10.0292
-7.72973
-6.0325
-4.75111
-3.77969
-3.0511
-2.5207
-2.16311
-1.9725
-1.96426
-2.18192
-2.7026
-3.65724
-5.24296
-7.59149
-10.5762
-13.7181
-16.2304
-17.4549
-17.1122
-15.4562
-13.0883
-10.6085
-8.39088
-6.56684
-5.12757
-4.00477
-3.12356
-2.42877
-1.88194
-1.45267
-1.1159
-0.851591
-0.644192
-0.481747
-0.35511
-0.257313
-0.182885
-0.127575
-0.0875554
-0.060269
-0.0416187
-0.0318682
-0.0221273
-0.0232027
-0.00589042
-0.0228166
0.029363
-11.12
-11.3014
-11.5388
-11.8571
-12.2786
-12.8009
-13.3864
-13.966
-14.4502
-14.7485
-14.7886
-14.5288
-13.9659
-13.134
-12.0943
-10.9228
-9.69786
-8.48993
-7.3552
-6.33348
-5.45008
-4.71952
-4.14944
-3.74428
-3.50813
-3.44718
-3.57187
-3.89913
-4.45615
-5.28879
-6.46588
-8.08638
-10.3559
-13.4689
-17.6714
-23.6389
-31.8248
-41.5185
-51.17
-59.4237
-65.6636
-69.6167
-71.0236
-69.7953
-65.8833
-59.5684
-51.4253
-42.1565
-32.7428
-24.3686
-17.8516
-13.2283
-10.0291
-7.75607
-6.07967
-4.81579
-3.86022
-3.14731
-2.63365
-2.29482
-2.12519
-2.13938
-2.37772
-2.90704
-3.84071
-5.33164
-7.46076
-10.0935
-12.823
-15.0123
-16.143
-15.9539
-14.6111
-12.5838
-10.381
-8.35145
-6.63786
-5.25172
-4.14544
-3.26078
-2.55267
-1.98812
-1.54003
-1.18539
-0.905276
-0.684573
-0.511363
-0.376311
-0.27214
-0.193039
-0.13442
-0.0921439
-0.0633305
-0.0437031
-0.0331324
-0.0230498
-0.0232313
-0.00669151
-0.0214952
0.0262996
-11.0823
-11.2579
-11.4814
-11.7678
-12.1289
-12.5585
-13.0251
-13.4736
-13.8343
-14.0358
-14.0206
-13.7552
-13.2362
-12.4897
-11.564
-10.5209
-9.42547
-8.3381
-7.3088
-6.37505
-5.56259
-4.88798
-4.36175
-3.99135
-3.78387
-3.74831
-3.89774
-4.25198
-4.84148
-5.71425
-6.94298
-8.60553
-10.8632
-13.8785
-17.8314
-23.2651
-30.7316
-39.8576
-49.3032
-57.578
-63.828
-67.7118
-69.0554
-67.8445
-64.0605
-57.9658
-50.1247
-41.2099
-32.1366
-24.0259
-17.6787
-13.1543
-10.013
-7.77732
-6.12795
-4.88559
-3.94857
-3.25319
-2.7575
-2.43792
-2.28898
-2.32411
-2.58005
-3.11479
-4.02353
-5.42546
-7.36941
-9.7213
-12.1297
-14.0653
-15.1001
-15.0041
-13.8899
-12.1341
-10.1703
-8.31267
-6.70416
-5.37073
-4.2824
-3.39581
-2.67532
-2.09347
-1.62665
-1.25408
-0.958052
-0.723963
-0.539961
-0.396518
-0.286041
-0.202368
-0.140553
-0.0961404
-0.0659186
-0.0454318
-0.03415
-0.0238264
-0.0232034
-0.00747232
-0.0202405
0.0233966
-11.0293
-11.1947
-11.3994
-11.6519
-11.9567
-12.3059
-12.6727
-13.0132
-13.2729
-13.3962
-13.3376
-13.0701
-12.5903
-11.9177
-11.0909
-10.16
-9.17917
-8.20019
-7.26734
-6.41545
-5.66998
-5.04881
-4.56454
-4.22703
-4.04576
-4.03202
-4.20093
-4.57453
-5.18553
-6.08388
-7.34713
-9.04249
-11.2853
-14.1945
-17.8828
-22.7704
-29.46
-37.8932
-46.9919
-55.2301
-61.533
-65.4352
-66.7848
-65.6206
-61.9667
-56.0935
-48.567
-40.0341
-31.3466
-23.5563
-17.4313
-13.0421
-9.97964
-7.79247
-6.17658
-4.95997
-4.04438
-3.36834
-2.89169
-2.59168
-2.4629
-2.51735
-2.78772
-3.32438
-4.20487
-5.52067
-7.29866
-9.41134
-11.5534
-13.2775
-14.2211
-14.1858
-13.2519
-11.7261
-9.97492
-8.27606
-6.76747
-5.48593
-4.4165
-3.52905
-2.79681
-2.19786
-1.71228
-1.32166
-1.00959
-0.762054
-0.56726
-0.415491
-0.298825
-0.210727
-0.145879
-0.0994981
-0.0680319
-0.0468453
-0.0349992
-0.0245592
-0.0232252
-0.00831895
-0.0191152
0.0205794
-10.9659
-11.1179
-11.3008
-11.519
-11.7725
-12.0524
-12.336
-12.5882
-12.7664
-12.8268
-12.7337
-12.4657
-12.0196
-11.4105
-10.6692
-9.83633
-8.95705
-8.07545
-7.23059
-6.45451
-5.77191
-5.20129
-4.75669
-4.44976
-4.29179
-4.29576
-4.47828
-4.86267
-5.48297
-6.38995
-7.66457
-9.37462
-11.5934
-14.3884
-17.8009
-22.1364
-28.0121
-35.6501
-44.2529
-52.3644
-58.7234
-62.7088
-64.1334
-63.0609
-59.5627
-53.9341
-46.7496
-38.6331
-30.3773
-22.9617
-17.1092
-12.8907
-9.92772
-7.80054
-6.22483
-5.03825
-4.14702
-3.49217
-3.03547
-2.7552
-2.6458
-2.71777
-2.99956
-3.53448
-4.38401
-5.61638
-7.24153
-9.14073
-11.0488
-12.588
-13.4488
-13.4597
-12.6787
-11.3548
-9.79555
-8.24348
-6.82966
-5.59882
-4.54873
-3.66101
-2.91728
-2.30119
-1.79668
-1.38779
-1.05954
-0.798493
-0.59294
-0.432953
-0.310253
-0.217915
-0.150228
-0.102071
-0.0695437
-0.047828
-0.0355695
-0.0251387
-0.0231997
-0.0091408
-0.018056
0.0179334
-10.8899
-11.0264
-11.1865
-11.3712
-11.5784
-11.7987
-12.0128
-12.1928
-12.3049
-12.3152
-12.1957
-11.9294
-11.5136
-10.9601
-10.2934
-9.54659
-8.75729
-7.96305
-7.19824
-6.49204
-5.86802
-5.34479
-4.93724
-4.65821
-4.52024
-4.53742
-4.72717
-5.11324
-5.72979
-6.62653
-7.88483
-9.58091
-11.7568
-14.426
-17.556
-21.3425
-26.3912
-33.1544
-41.1299
-48.9957
-55.3755
-59.479
-61.0388
-60.1127
-56.8157
-51.4754
-44.6746
-37.0154
-29.2372
-22.2479
-16.7148
-12.6999
-9.85639
-7.80053
-6.27181
-5.11963
-4.2557
-3.62386
-3.18792
-2.92739
-2.83645
-2.924
-3.21431
-3.74385
-4.56023
-5.71238
-7.19679
-8.90352
-10.6031
-11.9782
-12.7645
-12.8134
-12.1648
-11.0195
-9.63333
-8.21686
-6.89275
-5.71109
-4.68026
-3.79236
-3.03697
-2.40341
-1.87958
-1.45212
-1.10751
-0.832896
-0.616651
-0.448599
-0.320077
-0.223737
-0.153457
-0.103765
-0.0704059
-0.0483737
-0.0358932
-0.0256234
-0.0232002
-0.0100155
-0.0171331
0.0153485
-10.8057
-10.9256
-11.0623
-11.2153
-11.3809
-11.5498
-11.706
-11.8269
-11.886
-11.8566
-11.7171
-11.4542
-11.0656
-10.5606
-9.95891
-9.28765
-8.57806
-7.86212
-7.16989
-6.52779
-5.958
-5.47879
-5.10538
-4.8513
-4.72977
-4.7554
-4.94578
-5.32414
-5.92351
-6.79038
-8.00267
-9.64616
-11.7477
-14.2716
-17.1152
-20.3681
-24.6027
-30.4452
-37.6888
-45.1777
-51.5088
-55.7321
-57.4703
-56.7468
-53.7099
-48.717
-42.3525
-35.1958
-27.9404
-21.425
-16.2529
-12.4712
-9.7652
-7.79154
-6.31657
-5.20321
-4.36944
-3.76236
-3.34798
-3.10703
-3.03349
-3.13461
-3.43059
-3.95134
-4.73297
-5.80825
-7.16376
-8.69811
-10.213
-11.4429
-12.1616
-12.2411
-11.707
-10.7193
-9.48924
-8.19814
-6.95887
-5.82461
-4.81243
-3.92387
-3.1562
-2.50448
-1.96071
-1.51425
-1.15304
-0.864829
-0.637998
-0.462089
-0.328011
-0.22796
-0.15538
-0.104433
-0.0705021
-0.0483874
-0.0358885
-0.0259347
-0.0231504
-0.010852
-0.0162564
0.0129573
-10.7122
-10.8151
-10.9291
-11.0527
-11.1813
-11.3065
-11.4146
-11.4874
-11.504
-11.4438
-11.2898
-11.0317
-10.6679
-10.2057
-9.66121
-9.05648
-8.41757
-7.7717
-7.14511
-6.56153
-6.04159
-5.60286
-5.2605
-5.02822
-4.91946
-4.94873
-5.13316
-5.49461
-6.06354
-6.88185
-8.01944
-9.56557
-11.5485
-13.8966
-16.4488
-19.1961
-22.6571
-27.5752
-34.0101
-41.0051
-47.1909
-51.5027
-53.4397
-52.968
-50.2551
-45.6762
-39.8049
-33.197
-26.5071
-20.5075
-15.731
-12.207
-9.65419
-7.77275
-6.35812
-5.28792
-4.4871
-3.9065
-3.51438
-3.29274
-3.2355
-3.34816
-3.64711
-4.15611
-4.90171
-5.90344
-7.14099
-8.52132
-9.87326
-10.9744
-11.6322
-11.7364
-11.3012
-10.4529
-9.36419
-8.18936
-7.03039
-5.94147
-4.9468
-4.05649
-3.27537
-2.60439
-2.03981
-1.57376
-1.19566
-0.893806
-0.65654
-0.473046
-0.333745
-0.230339
-0.155811
-0.103945
-0.0697539
-0.0478379
-0.0355678
-0.0261216
-0.0231295
-0.0117637
-0.0155485
0.0105559
-10.6135
-10.6993
-10.7915
-10.888
-10.984
-11.0718
-11.1398
-11.1735
-11.1563
-11.0722
-10.9081
-10.6561
-10.3149
-9.89078
-9.39651
-8.85038
-8.27412
-7.69086
-7.12342
-6.593
-6.11856
-5.71673
-5.40223
-5.18853
-5.08884
-5.11711
-5.28935
-5.62534
-6.15171
-6.90516
-7.94288
-9.34776
-11.1594
-13.2899
-15.5408
-17.821
-20.5756
-24.6083
-30.1952
-36.6016
-42.5355
-46.8745
-49.0058
-48.8218
-46.4922
-42.3916
-37.0673
-31.0506
-24.9636
-19.5136
-15.1589
-11.9108
-9.52384
-7.74352
-6.39544
-5.37261
-4.60746
-4.05495
-3.68571
-3.48306
-3.44098
-3.56322
-3.86263
-4.35739
-5.06595
-5.99752
-7.12698
-8.36947
-9.57756
-10.5647
-11.1681
-11.2923
-10.9433
-10.2191
-9.25923
-8.19278
-7.10988
-6.06401
-5.08512
-4.19132
-3.39498
-2.70315
-2.11656
-1.63016
-1.23481
-0.919285
-0.671786
-0.481046
-0.336931
-0.230598
-0.154538
-0.10214
-0.0680421
-0.0466359
-0.0348583
-0.0261083
-0.0230452
-0.0126088
-0.0148383
0.00840291
-10.5087
-10.5781
-10.65
-10.722
-10.7895
-10.8457
-10.8807
-10.8828
-10.8391
-10.737
-10.5665
-10.3215
-10.0013
-9.61098
-9.16111
-8.66675
-8.14603
-7.61864
-7.10435
-6.62198
-6.18879
-5.82027
-5.5304
-5.33212
-5.23798
-5.26097
-5.41549
-5.71862
-6.19264
-6.86769
-7.78616
-9.01538
-10.6036
-12.4692
-14.4021
-16.2587
-18.396
-21.6206
-26.3644
-32.1121
-37.6932
-41.9783
-44.2746
-44.3957
-42.4947
-38.9234
-34.1885
-28.7966
-23.3421
-18.4652
-14.5481
-11.5871
-9.37515
-7.70343
-6.42756
-5.45606
-4.72915
-4.20623
-3.86043
-3.67646
-3.64839
-3.77837
-4.07599
-4.55445
-5.22541
-6.09025
-7.12065
-8.23967
-9.32072
-10.2073
-10.762
-10.903
-10.6298
-10.0171
-9.1756
-8.21084
-7.20023
-6.1949
-5.22947
-4.32968
-3.51563
-2.80081
-2.19062
-1.68288
-1.26985
-0.940643
-0.683177
-0.48562
-0.33719
-0.228438
-0.151333
-0.0988579
-0.0652689
-0.0447429
-0.0337808
-0.0259758
-0.0230377
-0.0136102
-0.0143818
0.00609981
-10.4013
-10.4549
-10.508
-10.558
-10.6007
-10.63
-10.6378
-10.6146
-10.5501
-10.4346
-10.2606
-10.0233
-9.72249
-9.36244
-8.95187
-8.50325
-8.03177
-7.55413
-7.08743
-6.64828
-6.25222
-5.91349
-5.64512
-5.45921
-5.36739
-5.38135
-5.51355
-5.77799
-6.19258
-6.7794
-7.56727
-8.60129
-9.92691
-11.4863
-13.0822
-14.5569
-16.1787
-18.701
-22.6482
-27.6988
-32.8403
-36.9836
-39.3933
-39.8149
-38.3649
-35.3511
-31.2294
-26.4828
-21.6797
-17.3863
-13.9111
-11.241
-9.20949
-7.65228
-6.45359
-5.53704
-4.85074
-4.35877
-4.03696
-3.87137
-3.85622
-3.99225
-4.28611
-4.74667
-5.37994
-6.18145
-7.12111
-8.12959
-9.09828
-9.89606
-10.4077
-10.5632
-10.3575
-9.84617
-9.11467
-8.24627
-7.30468
-6.33721
-5.38227
-4.47313
-3.63804
-2.8974
-2.26157
-1.73128
-1.30006
-0.95718
-0.690094
-0.48625
-0.334104
-0.223534
-0.145953
-0.0939201
-0.0613054
-0.0420614
-0.0322465
-0.0256095
-0.0229368
-0.0144817
-0.0138246
0.00417568
-10.291
-10.3299
-10.3659
-10.3964
-10.4179
-10.4247
-10.4102
-10.3668
-10.2863
-10.1614
-9.98614
-9.75712
-9.47436
-9.14151
-8.76583
-8.3577
-7.92983
-7.49642
-7.0722
-6.67173
-6.30889
-5.99658
-5.74672
-5.5704
-5.47808
-5.48
-5.58644
-5.80833
-6.15896
-6.65279
-7.30651
-8.14238
-9.19091
-10.4206
-11.6698
-12.7993
-14.0079
-15.9504
-19.1786
-23.5295
-28.1648
-32.081
-34.5385
-35.2308
-34.2241
-31.766
-28.2588
-24.1637
-20.0164
-16.3017
-13.2603
-10.8777
-9.02863
-7.59016
-6.47277
-5.61429
-4.97076
-4.51097
-4.21364
-4.06617
-4.06294
-4.20356
-4.49204
-4.93352
-5.52947
-6.27109
-7.12775
-8.03719
-8.90647
-9.62603
-10.0997
-10.2682
-10.1237
-9.70585
-9.078
-8.30213
-7.42697
-6.49453
-5.54634
-4.62349
-3.76304
-2.99297
-2.32893
-1.7746
-1.3246
-0.9681
-0.691845
-0.482361
-0.327214
-0.215532
-0.138133
-0.0871432
-0.0560495
-0.0385743
-0.0303323
-0.0251948
-0.0230441
-0.015696
-0.0137084
0.00185296
-10.1802
-10.2056
-10.226
-10.2395
-10.2426
-10.2306
-10.1979
-10.1385
-10.046
-9.91466
-9.73993
-9.51945
-9.25344
-8.94507
-8.6004
-8.22811
-7.83886
-7.44469
-7.05825
-6.69225
-6.35893
-6.06985
-5.83573
-5.6665