/*--------------------------------*- C++ -*----------------------------------*\
  =========                 |
  \\      /  F ield         | OpenFOAM: The Open Source CFD Toolbox
   \\    /   O peration     | Website:  https://openfoam.org
    \\  /    A nd           | Version:  10
     \\/     M anipulation  |
\*---------------------------------------------------------------------------*/
FoamFile
{
    format      ascii;
    class       surfaceScalarField;
    location    "0.16";
    object      phi;
}
// * * * * * * * * * * * * * * * * * * * * * * * * * * * * * * * * * * * * * //

dimensions      [0 3 -1 0 0 0 0];

internalField   nonuniform List<scalar> 
13452
(
5.94586e-05
8.09819e-07
5.84917e-05
9.66978e-07
5.74931e-05
9.98568e-07
5.64768e-05
1.01629e-06
5.54723e-05
1.00449e-06
5.44923e-05
9.80042e-07
5.35413e-05
9.50987e-07
5.26223e-05
9.19023e-07
5.1737e-05
8.85305e-07
5.08863e-05
8.50664e-07
5.00708e-05
8.15538e-07
4.92906e-05
7.80163e-07
4.8546e-05
7.44646e-07
4.7837e-05
7.08969e-07
4.7164e-05
6.73032e-07
4.65273e-05
6.36641e-07
4.59278e-05
5.99534e-07
4.53664e-05
5.61426e-07
4.48444e-05
5.21964e-07
4.43636e-05
4.80779e-07
4.39261e-05
4.37515e-07
4.35343e-05
3.9183e-07
4.31909e-05
3.43394e-07
4.28989e-05
2.9194e-07
4.26616e-05
2.373e-07
4.24819e-05
1.79758e-07
4.23632e-05
1.18652e-07
4.23072e-05
5.60034e-08
4.23102e-05
-2.94805e-09
4.23685e-05
-5.83599e-08
4.24883e-05
-1.19732e-07
4.26683e-05
-1.80055e-07
-2.6029e-07
4.29286e-05
6.24883e-05
3.11827e-07
6.2963e-05
4.92304e-07
6.34101e-05
5.51464e-07
6.38206e-05
6.0578e-07
6.41877e-05
6.37388e-07
6.4512e-05
6.55777e-07
6.47959e-05
6.67089e-07
6.50429e-05
6.72039e-07
6.52568e-05
6.71393e-07
6.54414e-05
6.66009e-07
6.56005e-05
6.56464e-07
6.57375e-05
6.4318e-07
6.58556e-05
6.26485e-07
6.5958e-05
6.06579e-07
6.60475e-05
5.83582e-07
6.61266e-05
5.57501e-07
6.61979e-05
5.2824e-07
6.62637e-05
4.95676e-07
6.63261e-05
4.59576e-07
6.63872e-05
4.19665e-07
6.6449e-05
3.75677e-07
6.65135e-05
3.27359e-07
6.65824e-05
2.74465e-07
6.66575e-05
2.16856e-07
6.67402e-05
1.54554e-07
6.68319e-05
8.8098e-08
6.69308e-05
1.9713e-08
6.70352e-05
-4.83587e-08
6.71494e-05
-1.17112e-07
6.72787e-05
-1.87697e-07
6.7423e-05
-2.64068e-07
6.75861e-05
-3.43084e-07
-4.37193e-07
6.7763e-05
6.38366e-05
2.36624e-07
6.39181e-05
4.10804e-07
6.39964e-05
4.73188e-07
6.40803e-05
5.21871e-07
6.41687e-05
5.49029e-07
6.42632e-05
5.61259e-07
6.43645e-05
5.65742e-07
6.44725e-05
5.64093e-07
6.45866e-05
5.5727e-07
6.47064e-05
5.46231e-07
6.48313e-05
5.31578e-07
6.49607e-05
5.13694e-07
6.50944e-05
4.92854e-07
6.52318e-05
4.69182e-07
6.53726e-05
4.42757e-07
6.55165e-05
4.13548e-07
6.56634e-05
3.81419e-07
6.58128e-05
3.46269e-07
6.59645e-05
3.07872e-07
6.61182e-05
2.6597e-07
6.62735e-05
2.20358e-07
6.643e-05
1.70836e-07
6.65872e-05
1.17239e-07
6.67447e-05
5.944e-08
6.69021e-05
-2.84432e-09
6.70586e-05
-6.84708e-08
6.7217e-05
-1.38672e-07
6.73811e-05
-2.12488e-07
6.7553e-05
-2.88971e-07
6.77333e-05
-3.67985e-07
6.79201e-05
-4.50889e-07
6.81134e-05
-5.36356e-07
-6.22989e-07
6.82992e-05
6.56426e-05
1.77082e-07
6.57009e-05
3.52494e-07
6.57477e-05
4.26422e-07
6.57915e-05
4.78044e-07
6.58334e-05
5.07164e-07
6.58753e-05
5.19313e-07
6.5919e-05
5.22101e-07
6.59652e-05
5.17848e-07
6.60148e-05
5.0768e-07
6.60684e-05
4.92681e-07
6.61264e-05
4.7357e-07
6.61893e-05
4.50803e-07
6.62574e-05
4.24716e-07
6.63311e-05
3.95454e-07
6.64107e-05
3.63148e-07
6.64965e-05
3.27797e-07
6.65886e-05
2.89268e-07
6.66874e-05
2.47531e-07
6.67929e-05
2.02368e-07
6.69053e-05
1.53517e-07
6.70248e-05
1.00843e-07
6.71516e-05
4.41047e-08
6.72858e-05
-1.69528e-08
6.74276e-05
-8.24378e-08
6.75771e-05
-1.52346e-07
6.77349e-05
-2.26178e-07
6.79004e-05
-3.04265e-07
6.80743e-05
-3.86317e-07
6.82571e-05
-4.71812e-07
6.84494e-05
-5.60293e-07
6.86503e-05
-6.51743e-07
6.88584e-05
-7.44451e-07
-8.35486e-07
6.90709e-05
6.74925e-05
1.41333e-07
6.75398e-05
3.05267e-07
6.75845e-05
3.81641e-07
6.76308e-05
4.31764e-07
6.76772e-05
4.60777e-07
6.77238e-05
4.72745e-07
6.77715e-05
4.74366e-07
6.78211e-05
4.68245e-07
6.78732e-05
4.55604e-07
6.79283e-05
4.37566e-07
6.7987e-05
4.14909e-07
6.80496e-05
3.8813e-07
6.81167e-05
3.57606e-07
6.81887e-05
3.23466e-07
6.8266e-05
2.85886e-07
6.83489e-05
2.44869e-07
6.84379e-05
2.00266e-07
6.85333e-05
1.52136e-07
6.86354e-05
1.0025e-07
6.87446e-05
4.43304e-08
6.88612e-05
-1.56941e-08
6.89853e-05
-8.00284e-08
6.91172e-05
-1.48813e-07
6.92569e-05
-2.22153e-07
6.94047e-05
-3.00126e-07
6.9561e-05
-3.82539e-07
6.97262e-05
-4.69496e-07
6.99007e-05
-5.60783e-07
7.00848e-05
-6.55884e-07
7.02788e-05
-7.54293e-07
7.04825e-05
-8.55451e-07
7.06959e-05
-9.57885e-07
-1.05853e-06
7.0919e-05
6.94138e-05
1.11603e-07
6.94587e-05
2.60344e-07
6.95024e-05
3.37964e-07
6.95465e-05
3.87598e-07
6.95908e-05
4.16456e-07
6.96357e-05
4.27886e-07
6.96822e-05
4.27854e-07
6.97311e-05
4.19333e-07
6.9783e-05
4.03737e-07
6.98383e-05
3.82245e-07
6.98975e-05
3.55692e-07
6.9961e-05
3.24615e-07
7.00292e-05
2.89451e-07
7.01024e-05
2.50293e-07
7.01809e-05
2.07391e-07
7.0265e-05
1.60717e-07
7.03552e-05
1.10127e-07
7.04516e-05
5.57228e-08
7.05545e-05
-2.72307e-09
7.06644e-05
-6.55638e-08
7.07815e-05
-1.32704e-07
7.09059e-05
-2.0443e-07
7.10379e-05
-2.80866e-07
7.11779e-05
-3.62116e-07
7.1326e-05
-4.48249e-07
7.14826e-05
-5.39188e-07
7.16481e-05
-6.34941e-07
7.18227e-05
-7.35372e-07
7.2007e-05
-8.40161e-07
7.22016e-05
-9.48913e-07
7.24071e-05
-1.06102e-06
7.26245e-05
-1.17527e-06
-1.28957e-06
7.28556e-05
7.1387e-05
9.09579e-08
7.1423e-05
2.24315e-07
7.14613e-05
2.997e-07
7.15024e-05
3.46514e-07
7.15457e-05
3.73139e-07
7.15908e-05
3.82769e-07
7.16382e-05
3.8049e-07
7.16882e-05
3.69285e-07
7.17413e-05
3.50627e-07
7.17979e-05
3.25677e-07
7.18583e-05
2.95277e-07
7.19229e-05
2.59965e-07
7.19921e-05
2.20244e-07
7.20663e-05
1.76128e-07
7.21457e-05
1.2798e-07
7.22307e-05
7.57447e-08
7.23217e-05
1.915e-08
7.24187e-05
-4.13113e-08
7.25222e-05
-1.06237e-07
7.26324e-05
-1.7571e-07
7.27495e-05
-2.49824e-07
7.28738e-05
-3.28755e-07
7.30056e-05
-4.12642e-07
7.31451e-05
-5.01606e-07
7.32926e-05
-5.95736e-07
7.34484e-05
-6.9505e-07
7.36131e-05
-7.99577e-07
7.3787e-05
-9.09272e-07
7.39708e-05
-1.02395e-06
7.41652e-05
-1.14336e-06
7.43713e-05
-1.26708e-06
7.45905e-05
-1.39448e-06
-1.52461e-06
7.48255e-05
7.34215e-05
7.47684e-08
7.34539e-05
1.91886e-07
7.3491e-05
2.62589e-07
7.35315e-05
3.06043e-07
7.35744e-05
3.30262e-07
7.36191e-05
3.38071e-07
7.36659e-05
3.3361e-07
7.37155e-05
3.19729e-07
7.37682e-05
2.9796e-07
7.38244e-05
2.69471e-07
7.38845e-05
2.35138e-07
7.3949e-05
1.95513e-07
7.4018e-05
1.51195e-07
7.4092e-05
1.02137e-07
7.41712e-05
4.87598e-08
7.42559e-05
-8.93848e-09
7.43464e-05
-7.13593e-08
7.44431e-05
-1.37997e-07
7.45462e-05
-2.093e-07
7.46558e-05
-2.85352e-07
7.47723e-05
-3.66286e-07
7.48958e-05
-4.52274e-07
7.50266e-05
-5.43466e-07
7.5165e-05
-6.39998e-07
7.53112e-05
-7.41986e-07
7.54657e-05
-8.49512e-07
7.56288e-05
-9.6265e-07
7.5801e-05
-1.08145e-06
7.59829e-05
-1.20589e-06
7.61755e-05
-1.33594e-06
7.63799e-05
-1.47154e-06
7.65981e-05
-1.61261e-06
-1.7591e-06
7.68325e-05
7.5515e-05
6.22158e-08
7.55426e-05
1.64317e-07
7.55759e-05
2.29309e-07
7.56131e-05
2.68781e-07
7.56537e-05
2.89716e-07
7.5697e-05
2.94791e-07
7.57431e-05
2.87476e-07
7.57924e-05
2.70452e-07
7.58451e-05
2.45273e-07
7.59014e-05
2.1308e-07
7.59618e-05
1.74738e-07
7.60266e-05
1.30779e-07
7.60959e-05
8.19072e-08
7.61702e-05
2.77748e-08
7.62497e-05
-3.07347e-08
7.63347e-05
-9.39159e-08
7.64253e-05
-1.61913e-07
7.65218e-05
-2.34511e-07
7.66244e-05
-3.11955e-07
7.67334e-05
-3.94378e-07
7.68491e-05
-4.81901e-07
7.69715e-05
-5.7469e-07
7.71009e-05
-6.72903e-07
7.72376e-05
-7.76698e-07
7.73819e-05
-8.86226e-07
7.7534e-05
-1.00163e-06
7.76944e-05
-1.12305e-06
7.78636e-05
-1.25065e-06
7.80423e-05
-1.38457e-06
7.82313e-05
-1.52502e-06
7.8432e-05
-1.67222e-06
7.8646e-05
-1.82664e-06
-1.98886e-06
7.88758e-05
7.76697e-05
5.20696e-08
7.7694e-05
1.39991e-07
7.77254e-05
1.98002e-07
7.77615e-05
2.32672e-07
7.78014e-05
2.4977e-07
7.78444e-05
2.51765e-07
7.78904e-05
2.41482e-07
7.79396e-05
2.21306e-07
7.79921e-05
1.92737e-07
7.80483e-05
1.56871e-07
7.81085e-05
1.14554e-07
7.81731e-05
6.61805e-08
7.82418e-05
1.3192e-08
7.83155e-05
-4.58574e-08
7.83942e-05
-1.09443e-07
7.84782e-05
-1.77987e-07
7.85678e-05
-2.5147e-07
7.86631e-05
-3.29824e-07
7.87644e-05
-4.1321e-07
7.88717e-05
-5.01763e-07
7.89854e-05
-5.95607e-07
7.91057e-05
-6.94904e-07
7.92326e-05
-7.99826e-07
7.93664e-05
-9.10548e-07
7.95075e-05
-1.02725e-06
7.9656e-05
-1.15013e-06
7.98123e-05
-1.27941e-06
7.9977e-05
-1.41532e-06
8.01506e-05
-1.55818e-06
8.03339e-05
-1.70835e-06
8.05281e-05
-1.86635e-06
8.07344e-05
-2.03299e-06
-2.2092e-06
8.09548e-05
7.98867e-05
4.3664e-08
7.99081e-05
1.18613e-07
7.99368e-05
1.69264e-07
7.99707e-05
1.98852e-07
8.00086e-05
2.11827e-07
8.005e-05
2.10365e-07
8.00947e-05
1.96781e-07
8.01428e-05
1.73188e-07
8.01945e-05
1.4104e-07
8.025e-05
1.01393e-07
8.03094e-05
5.51628e-08
8.03735e-05
2.1031e-09
8.04419e-05
-5.52604e-08
8.0515e-05
-1.18948e-07
8.05931e-05
-1.87522e-07
8.06763e-05
-2.61205e-07
8.07648e-05
-3.40007e-07
8.08589e-05
-4.23886e-07
8.09586e-05
-5.12953e-07
8.10642e-05
-6.07339e-07
8.11758e-05
-7.07169e-07
8.12935e-05
-8.12603e-07
8.14175e-05
-9.23819e-07
8.15479e-05
-1.04101e-06
8.16851e-05
-1.16438e-06
8.18291e-05
-1.29417e-06
8.19804e-05
-1.43066e-06
8.21392e-05
-1.57418e-06
8.23062e-05
-1.72513e-06
8.24818e-05
-1.88403e-06
8.26671e-05
-2.05157e-06
8.28628e-05
-2.22877e-06
-2.41668e-06
8.30703e-05
8.21676e-05
3.65185e-08
8.21866e-05
9.95701e-08
8.22133e-05
1.42549e-07
8.22456e-05
1.66604e-07
8.22824e-05
1.75034e-07
8.2323e-05
1.6973e-07
8.23672e-05
1.52599e-07
8.24149e-05
1.25465e-07
8.24663e-05
8.96849e-08
8.25214e-05
4.62491e-08
8.25805e-05
-3.92898e-09
8.26434e-05
-6.0809e-08
8.27111e-05
-1.22886e-07
8.27831e-05
-1.90947e-07
8.28598e-05
-2.64282e-07
8.29415e-05
-3.42864e-07
8.30282e-05
-4.26715e-07
8.31201e-05
-5.15806e-07
8.32174e-05
-6.10217e-07
8.33201e-05
-7.10064e-07
8.34284e-05
-8.15471e-07
8.35424e-05
-9.26593e-07
8.36622e-05
-1.04361e-06
8.37879e-05
-1.16672e-06
8.39197e-05
-1.29616e-06
8.40577e-05
-1.43219e-06
8.42021e-05
-1.57513e-06
8.43533e-05
-1.72535e-06
8.45115e-05
-1.88333e-06
8.46772e-05
-2.04967e-06
8.48507e-05
-2.22512e-06
8.50327e-05
-2.41077e-06
-2.60757e-06
8.52236e-05
8.4514e-05
3.03087e-08
8.45311e-05
8.24842e-08
8.45558e-05
1.17805e-07
8.45862e-05
1.3618e-07
8.46213e-05
1.39931e-07
8.46604e-05
1.30628e-07
8.47032e-05
1.0983e-07
8.47496e-05
7.90922e-08
8.47996e-05
3.96511e-08
8.48534e-05
-7.57757e-09
8.49113e-05
-6.17553e-08
8.4973e-05
-1.22546e-07
8.50392e-05
-1.89065e-07
8.51097e-05
-2.61461e-07
8.51848e-05
-3.39349e-07
8.52645e-05
-4.22614e-07
8.53491e-05
-5.1125e-07
8.54385e-05
-6.05239e-07
8.55329e-05
-7.04636e-07
8.56324e-05
-8.09542e-07
8.5737e-05
-9.20073e-07
8.58468e-05
-1.03638e-06
8.59618e-05
-1.15863e-06
8.60821e-05
-1.28703e-06
8.62077e-05
-1.42181e-06
8.63388e-05
-1.56326e-06
8.64754e-05
-1.71171e-06
8.66176e-05
-1.86755e-06
8.67655e-05
-2.03128e-06
8.69194e-05
-2.20351e-06
8.70792e-05
-2.38498e-06
8.72452e-05
-2.57673e-06
-2.77956e-06
8.74172e-05
8.69277e-05
2.48154e-08
8.69431e-05
6.70258e-08
8.69661e-05
9.48118e-08
8.69949e-05
1.07378e-07
8.70286e-05
1.06271e-07
8.70664e-05
9.27573e-08
8.71082e-05
6.81126e-08
8.71536e-05
3.36674e-08
8.72027e-05
-9.46095e-09
8.72555e-05
-6.04034e-08
8.73122e-05
-1.1842e-07
8.73727e-05
-1.83043e-07
8.74373e-05
-2.53672e-07
8.7506e-05
-3.30186e-07
8.7579e-05
-4.12319e-07
8.76563e-05
-4.99928e-07
8.7738e-05
-5.92978e-07
8.78242e-05
-6.91448e-07
8.7915e-05
-7.95375e-07
8.80103e-05
-9.04838e-07
8.81101e-05
-1.01994e-06
8.82146e-05
-1.14082e-06
8.83236e-05
-1.26763e-06
8.84371e-05
-1.40058e-06
8.85552e-05
-1.53988e-06
8.86778e-05
-1.68582e-06
8.88048e-05
-1.83871e-06
8.89362e-05
-1.99894e-06
8.90719e-05
-2.16698e-06
8.92118e-05
-2.3434e-06
8.93556e-05
-2.52885e-06
8.95032e-05
-2.72425e-06
-2.93012e-06
8.96537e-05
8.94105e-05
1.98871e-08
8.94245e-05
5.29463e-08
8.94459e-05
7.34369e-08
8.94731e-05
8.02051e-08
8.95052e-05
7.42113e-08
8.95415e-05
5.64434e-08
8.95816e-05
2.79362e-08
8.96255e-05
-1.01878e-08
8.9673e-05
-5.69416e-08
8.97241e-05
-1.11511e-07
8.97789e-05
-1.73219e-07
8.98374e-05
-2.41563e-07
8.98998e-05
-3.16057e-07
8.99661e-05
-3.96469e-07
9.00363e-05
-4.82566e-07
9.01106e-05
-5.74196e-07
9.01889e-05
-6.71294e-07
9.02713e-05
-7.7383e-07
9.03577e-05
-8.81819e-07
9.04482e-05
-9.95319e-07
9.05427e-05
-1.11441e-06
9.06411e-05
-1.23922e-06
9.07433e-05
-1.36988e-06
9.08493e-05
-1.50656e-06
9.09589e-05
-1.64948e-06
9.1072e-05
-1.79888e-06
9.11883e-05
-1.95505e-06
9.13077e-05
-2.11834e-06
9.14299e-05
-2.28915e-06
9.15544e-05
-2.46796e-06
9.16809e-05
-2.65531e-06
9.18086e-05
-2.85192e-06
-3.05807e-06
9.19365e-05
9.19643e-05
1.54193e-08
9.19772e-05
4.00529e-08
9.19971e-05
5.35483e-08
9.20227e-05
5.45937e-08
9.20532e-05
4.37178e-08
9.2088e-05
2.16624e-08
9.21267e-05
-1.07378e-08
9.2169e-05
-5.25338e-08
9.22149e-05
-1.02851e-07
9.22643e-05
-1.60935e-07
9.23173e-05
-2.26159e-07
9.23737e-05
-2.98018e-07
9.24338e-05
-3.76081e-07
9.24974e-05
-4.60071e-07
9.25646e-05
-5.49762e-07
9.26354e-05
-6.44993e-07
9.27097e-05
-7.45675e-07
9.27877e-05
-8.51762e-07
9.28691e-05
-9.63248e-07
9.2954e-05
-1.08017e-06
9.30421e-05
-1.20258e-06
9.31335e-05
-1.33057e-06
9.32278e-05
-1.46425e-06
9.3325e-05
-1.60377e-06
9.34249e-05
-1.74931e-06
9.3527e-05
-1.90105e-06
9.36312e-05
-2.05925e-06
9.37371e-05
-2.22418e-06
9.38441e-05
-2.39616e-06
9.39517e-05
-2.57555e-06
9.40591e-05
-2.76273e-06
9.41654e-05
-2.95822e-06
-3.16204e-06
9.42694e-05
9.45912e-05
1.13391e-08
9.46031e-05
2.82002e-08
9.46216e-05
3.50441e-08
9.46457e-05
3.05192e-08
9.46745e-05
1.48491e-08
9.47076e-05
-1.1429e-08
9.47445e-05
-4.76459e-08
9.4785e-05
-9.30044e-08
9.48289e-05
-1.46733e-07
9.48761e-05
-2.08143e-07
9.49266e-05
-2.76649e-07
9.49803e-05
-3.51763e-07
9.50373e-05
-4.3308e-07
9.50976e-05
-5.20303e-07
9.5161e-05
-6.132e-07
9.52276e-05
-7.11598e-07
9.52973e-05
-8.15386e-07
9.53701e-05
-9.24497e-07
9.54457e-05
-1.0389e-06
9.55241e-05
-1.1586e-06
9.56052e-05
-1.28363e-06
9.56887e-05
-1.41403e-06
9.57743e-05
-1.5499e-06
9.58619e-05
-1.69132e-06
9.5951e-05
-1.83844e-06
9.60413e-05
-1.99138e-06
9.61324e-05
-2.15034e-06
9.62237e-05
-2.31549e-06
9.63146e-05
-2.48705e-06
9.64043e-05
-2.66526e-06
9.64919e-05
-2.85032e-06
9.65762e-05
-3.04255e-06
-3.24175e-06
9.66559e-05
9.72933e-05
7.59538e-09
9.73042e-05
1.72787e-08
9.73214e-05
1.78418e-08
9.73439e-05
7.95514e-09
9.73712e-05
-1.2368e-08
9.74025e-05
-4.27583e-08
9.74375e-05
-8.2684e-08
9.7476e-05
-1.31475e-07
9.75177e-05
-1.88449e-07
9.75626e-05
-2.52979e-07
9.76104e-05
-3.24514e-07
9.76612e-05
-4.02585e-07
9.7715e-05
-4.86802e-07
9.77715e-05
-5.76858e-07
9.78308e-05
-6.72512e-07
9.78928e-05
-7.73578e-07
9.79574e-05
-8.79925e-07
9.80243e-05
-9.91459e-07
9.80935e-05
-1.10812e-06
9.81648e-05
-1.22989e-06
9.8238e-05
-1.35676e-06
9.83127e-05
-1.48874e-06
9.83886e-05
-1.62587e-06
9.84655e-05
-1.7682e-06
9.85429e-05
-1.91581e-06
9.86203e-05
-2.06876e-06
9.86971e-05
-2.22717e-06
9.87727e-05
-2.39112e-06
9.88464e-05
-2.56072e-06
9.89172e-05
-2.73607e-06
9.89841e-05
-2.9172e-06
9.90458e-05
-3.10423e-06
-3.2968e-06
9.91008e-05
0.000100073
4.15208e-09
0.000100083
7.20815e-09
0.000100099
1.88067e-09
0.00010012
-1.31086e-08
0.000100145
-3.78849e-08
0.000100175
-7.22113e-08
0.000100208
-1.15667e-07
0.000100244
-1.67687e-07
0.000100283
-2.27668e-07
0.000100325
-2.95039e-07
0.00010037
-3.69282e-07
0.000100417
-4.49949e-07
0.000100467
-5.36659e-07
0.000100519
-6.29102e-07
0.000100574
-7.27024e-07
0.00010063
-8.30225e-07
0.000100689
-9.38549e-07
0.00010075
-1.05188e-06
0.000100812
-1.17013e-06
0.000100875
-1.29323e-06
0.000100939
-1.42114e-06
0.000101004
-1.55385e-06
0.00010107
-1.69132e-06
0.000101135
-1.83356e-06
0.0001012
-1.98058e-06
0.000101264
-2.13239e-06
0.000101325
-2.28899e-06
0.000101385
-2.4504e-06
0.000101441
-2.61659e-06
0.000101492
-2.78754e-06
0.000101538
-2.96314e-06
0.000101577
-3.14333e-06
-3.32762e-06
0.000101608
0.000102931
9.83756e-10
0.000102941
-2.06929e-09
0.000102955
-1.28838e-08
0.000102975
-3.26735e-08
0.000102999
-6.16546e-08
0.000103026
-9.96897e-08
0.000103057
-1.46448e-07
0.000103091
-2.01451e-07
0.000103127
-2.64165e-07
0.000103166
-3.34064e-07
0.000103208
-4.10665e-07
0.000103251
-4.93535e-07
0.000103297
-5.823e-07
0.000103344
-6.76645e-07
0.000103394
-7.76305e-07
0.000103444
-8.81064e-07
0.000103497
-9.90742e-07
0.00010355
-1.10519e-06
0.000103604
-1.2243e-06
0.000103659
-1.34796e-06
0.000103714
-1.47609e-06
0.000103769
-1.60862e-06
0.000103823
-1.74548e-06
0.000103876
-1.88662e-06
0.000103927
-2.03197e-06
0.000103976
-2.18148e-06
0.000104022
-2.33507e-06
0.000104065
-2.49265e-06
0.000104102
-2.6541e-06
0.000104134
-2.81927e-06
0.000104159
-2.98793e-06
0.000104175
-3.15989e-06
-3.33455e-06
0.000104182
0.000105872
-1.92966e-09
0.00010588
-1.05924e-08
0.000105894
-2.64796e-08
0.000105912
-5.07331e-08
0.000105934
-8.36234e-08
0.000105959
-1.25087e-07
0.000105988
-1.74865e-07
0.000106019
-2.32548e-07
0.000106052
-2.9766e-07
0.000106088
-3.69719e-07
0.000106125
-4.48268e-07
0.000106165
-5.32891e-07
0.000106206
-6.23219e-07
0.000106248
-7.18933e-07
0.000106291
-8.19758e-07
0.000106336
-9.25457e-07
0.000106381
-1.03583e-06
0.000106426
-1.1507e-06
0.000106472
-1.26992e-06
0.000106517
-1.39334e-06
0.000106562
-1.52085e-06
0.000106606
-1.65232e-06
0.000106648
-1.78764e-06
0.000106688
-1.92669e-06
0.000106726
-2.06934e-06
0.000106759
-2.21547e-06
0.000106789
-2.36491e-06
0.000106814
-2.51751e-06
0.000106833
-2.67303e-06
0.000106845
-2.83125e-06
0.000106849
-2.99182e-06
0.000106844
-3.15443e-06
-3.31845e-06
0.000106827
0.000108896
-4.59764e-09
0.000108904
-1.83907e-08
0.000108916
-3.89254e-08
0.000108933
-6.7273e-08
0.000108953
-1.03734e-07
0.000108976
-1.48298e-07
0.000109002
-2.00761e-07
0.00010903
-2.60772e-07
0.000109061
-3.27904e-07
0.000109093
-4.0171e-07
0.000109126
-4.81759e-07
0.000109161
-5.67648e-07
0.000109197
-6.59015e-07
0.000109233
-7.55533e-07
0.00010927
-8.56916e-07
0.000109308
-9.62911e-07
0.000109345
-1.07329e-06
0.000109382
-1.18786e-06
0.000109419
-1.30642e-06
0.000109454
-1.4288e-06
0.000109488
-1.55484e-06
0.00010952
-1.68437e-06
0.00010955
-1.81722e-06
0.000109577
-1.95322e-06
0.000109599
-2.09218e-06
0.000109618
-2.23391e-06
0.000109631
-2.37819e-06
0.000109638
-2.52476e-06
0.000109639
-2.67334e-06
0.000109631
-2.82359e-06
0.000109614
-2.97513e-06
0.000109587
-3.12755e-06
-3.28019e-06
0.000109549
0.000112007
-7.02941e-09
0.000112014
-2.54829e-08
0.000112025
-5.02303e-08
0.00011204
-8.22753e-08
0.000112059
-1.2193e-07
0.000112079
-1.69223e-07
0.000112103
-2.23992e-07
0.000112128
-2.85932e-07
0.000112155
-3.54655e-07
0.000112183
-4.29749e-07
0.000112212
-5.10804e-07
0.000112241
-5.97429e-07
0.000112272
-6.89264e-07
0.000112302
-7.85981e-07
0.000112333
-8.87281e-07
0.000112362
-9.92893e-07
0.000112392
-1.10257e-06
0.00011242
-1.21608e-06
0.000112447
-1.33321e-06
0.000112472
-1.45375e-06
0.000112494
-1.57748e-06
0.000112514
-1.7042e-06
0.000112531
-1.8337e-06
0.000112543
-1.96575e-06
0.000112551
-2.10011e-06
0.000112554
-2.23652e-06
0.00011255
-2.37471e-06
0.00011254
-2.51437e-06
0.000112522
-2.65515e-06
0.000112495
-2.79666e-06
0.000112458
-2.93846e-06
0.000112411
-3.08008e-06
-3.22089e-06
0.000112351
0.000115207
-9.2311e-09
0.000115213
-3.18814e-08
0.000115223
-6.03972e-08
0.000115237
-9.57162e-08
0.000115253
-1.38152e-07
0.000115271
-1.87756e-07
0.000115292
-2.44402e-07
0.000115314
-3.07821e-07
0.000115337
-3.77662e-07
0.000115361
-4.53539e-07
0.000115385
-5.35062e-07
0.000115409
-6.21854e-07
0.000115434
-7.13558e-07
0.000115457
-8.09841e-07
0.00011548
-9.10395e-07
0.000115503
-1.01493e-06
0.000115523
-1.12319e-06
0.000115542
-1.2349e-06
0.000115559
-1.34983e-06
0.000115573
-1.46772e-06
0.000115583
-1.58833e-06
0.000115591
-1.71142e-06
0.000115594
-1.83673e-06
0.000115592
-1.96399e-06
0.000115585
-2.09291e-06
0.000115571
-2.22319e-06
0.000115551
-2.35451e-06
0.000115523
-2.48651e-06
0.000115487
-2.6188e-06
0.000115441
-2.75096e-06
0.000115385
-2.88252e-06
0.000115318
-3.01299e-06
-3.14175e-06
0.000115239
0.000118498
-1.12082e-08
0.000118504
-3.75976e-08
0.000118513
-6.94316e-08
0.000118524
-1.07583e-07
0.000118539
-1.52359e-07
0.000118555
-2.03827e-07
0.000118572
-2.61887e-07
0.000118591
-3.26301e-07
0.00011861
-3.96747e-07
0.000118629
-4.72866e-07
0.000118648
-5.54287e-07
0.000118667
-6.40642e-07
0.000118685
-7.3158e-07
0.000118702
-8.26766e-07
0.000118718
-9.25882e-07
0.000118731
-1.02863e-06
0.000118743
-1.13472e-06
0.000118752
-1.24388e-06
0.000118758
-1.35583e-06
0.00011876
-1.47029e-06
0.000118759
-1.587e-06
0.000118753
-1.70567e-06
0.000118743
-1.826e-06
0.000118726
-1.9477e-06
0.000118704
-2.07044e-06
0.000118674
-2.19388e-06
0.000118638
-2.31767e-06
0.000118593
-2.44142e-06
0.000118538
-2.56472e-06
0.000118475
-2.68711e-06
0.0001184
-2.80814e-06
0.000118315
-2.92729e-06
-3.04399e-06
0.000118217
0.000121883
-1.29644e-08
0.000121888
-4.26382e-08
0.000121896
-7.733e-08
0.000121906
-1.17847e-07
0.000121918
-1.64485e-07
0.000121932
-2.17322e-07
0.000121946
-2.76282e-07
0.000121961
-3.41153e-07
0.000121976
-4.11644e-07
0.000121991
-4.87421e-07
0.000122004
-5.68129e-07
0.000122017
-6.53416e-07
0.000122029
-7.42933e-07
0.000122038
-8.36345e-07
0.000122046
-9.3333e-07
0.000122051
-1.03358e-06
0.000122053
-1.13678e-06
0.000122051
-1.24265e-06
0.000122046
-1.35088e-06
0.000122037
-1.46118e-06
0.000122024
-1.57324e-06
0.000122005
-1.68677e-06
0.00012198
-1.80142e-06
0.000121949
-1.91689e-06
0.000121912
-2.0328e-06
0.000121867
-2.14882e-06
0.000121813
-2.26455e-06
0.000121752
-2.3796e-06
0.00012168
-2.49354e-06
0.000121599
-2.60593e-06
0.000121507
-2.71629e-06
0.000121404
-2.82415e-06
-2.92899e-06
0.000121289
0.000125365
-1.45091e-08
0.000125369
-4.70266e-08
0.000125376
-8.41233e-08
0.000125385
-1.26539e-07
0.000125395
-1.74555e-07
0.000125406
-2.28258e-07
0.000125417
-2.87588e-07
0.000125428
-3.52362e-07
0.000125439
-4.22315e-07
0.000125449
-4.97136e-07
0.000125457
-5.76493e-07
0.000125464
-6.60044e-07
0.000125468
-7.47451e-07
0.00012547
-8.38383e-07
0.00012547
-9.32514e-07
0.000125465
-1.02953e-06
0.000125458
-1.1291e-06
0.000125446
-1.23094e-06
0.00012543
-1.33472e-06
0.000125409
-1.44013e-06
0.000125382
-1.54685e-06
0.00012535
-1.65454e-06
0.000125312
-1.76288e-06
0.000125266
-1.8715e-06
0.000125214
-1.98005e-06
0.000125153
-2.08816e-06
0.000125084
-2.19543e-06
0.000125006
-2.30147e-06
0.000124918
-2.40584e-06
0.00012482
-2.50813e-06
0.000124712
-2.60788e-06
0.000124592
-2.70462e-06
-2.79791e-06
0.000124461
0.000128946
-1.58428e-08
0.00012895
-5.07629e-08
0.000128956
-8.97913e-08
0.000128963
-1.33597e-07
0.000128971
-1.82452e-07
0.000128979
-2.36455e-07
0.000128987
-2.95567e-07
0.000128994
-3.59635e-07
0.000129
-4.28423e-07
0.000129005
-5.01647e-07
0.000129007
-5.78995e-07
0.000129007
-6.60143e-07
0.000129005
-7.44762e-07
0.000128999
-8.32526e-07
0.00012899
-9.2311e-07
0.000128976
-1.01619e-06
0.000128959
-1.11145e-06
0.000128936
-1.20857e-06
0.000128909
-1.30723e-06
0.000128876
-1.40709e-06
0.000128837
-1.50783e-06
0.000128791
-1.6091e-06
0.000128739
-1.71056e-06
0.000128679
-1.81185e-06
0.000128612
-1.9126e-06
0.000128536
-2.01243e-06
0.000128452
-2.11096e-06
0.000128358
-2.2078e-06
0.000128255
-2.30254e-06
0.000128141
-2.39477e-06
0.000128017
-2.48407e-06
0.000127883
-2.57003e-06
-2.65224e-06
0.000127737
0.00013263
-1.69994e-08
0.000132633
-5.39341e-08
0.000132638
-9.44759e-08
0.000132644
-1.39215e-07
0.00013265
-1.88411e-07
0.000132655
-2.42173e-07
0.00013266
-3.00487e-07
0.000132664
-3.63229e-07
0.000132666
-4.302e-07
0.000132665
-5.01146e-07
0.000132662
-5.75782e-07
0.000132656
-6.53805e-07
0.000132646
-7.34902e-07
0.000132632
-8.18759e-07
0.000132614
-9.05055e-07
0.000132591
-9.93474e-07
0.000132563
-1.08369e-06
0.00013253
-1.17539e-06
0.000132491
-1.26824e-06
0.000132446
-1.36192e-06
0.000132394
-1.45607e-06
0.000132336
-1.55037e-06
0.00013227
-1.64446e-06
0.000132196
-1.73798e-06
0.000132114
-1.83057e-06
0.000132023
-1.92186e-06
0.000131924
-2.01148e-06
0.000131815
-2.09906e-06
0.000131696
-2.1842e-06
0.000131568
-2.26653e-06
0.00013143
-2.34568e-06
0.000131281
-2.42125e-06
-2.49291e-06
0.000131122
0.000136419
-1.79489e-08
0.000136422
-5.64771e-08
0.000136425
-9.80373e-08
0.000136429
-1.43151e-07
0.000136433
-1.92088e-07
0.000136436
-2.44986e-07
0.000136437
-3.01862e-07
0.000136437
-3.62632e-07
0.000136433
-4.27133e-07
0.000136427
-4.95143e-07
0.000136418
-5.66406e-07
0.000136405
-6.40643e-07
0.000136388
-7.17557e-07
0.000136366
-7.96846e-07
0.000136339
-8.78202e-07
0.000136307
-9.61312e-07
0.000136269
-1.04586e-06
0.000136225
-1.13153e-06
0.000136175
-1.21799e-06
0.000136118
-1.30493e-06
0.000136054
-1.392e-06
0.000135982
-1.47886e-06
0.000135903
-1.56517e-06
0.000135815
-1.65059e-06
0.00013572
-1.73477e-06
0.000135615
-1.81735e-06
0.000135502
-1.89798e-06
0.000135379
-1.97631e-06
0.000135247
-2.052e-06
0.000135105
-2.12469e-06
0.000134953
-2.19405e-06
0.000134792
-2.25975e-06
-2.32151e-06
0.00013462
0.000140317
-1.88479e-08
0.000140319
-5.87512e-08
0.000140322
-1.01036e-07
0.000140325
-1.46124e-07
0.000140327
-1.94304e-07
0.000140328
-2.4575e-07
0.000140327
-3.0053e-07
0.000140323
-3.58616e-07
0.000140315
-4.19899e-07
0.000140304
-4.84202e-07
0.000140289
-5.51309e-07
0.00014027
-6.2097e-07
0.000140245
-6.92917e-07
0.000140215
-7.66867e-07
0.000140179
-8.4253e-07
0.000140138
-9.19605e-07
0.00014009
-9.97789e-07
0.000140035
-1.07677e-06
0.000139973
-1.15625e-06
0.000139904
-1.23588e-06
0.000139827
-1.31537e-06
0.000139743
-1.39437e-06
0.00013965
-1.47256e-06
0.000139549
-1.54961e-06
0.00013944
-1.62519e-06
0.000139321
-1.69897e-06
0.000139194
-1.77063e-06
0.000139058
-1.83984e-06
0.000138912
-1.90629e-06
0.000138757
-1.96968e-06
0.000138592
-2.0297e-06
0.000138419
-2.08607e-06
-2.13857e-06
0.000138236
0.000144325
-1.94539e-08
0.000144327
-6.03004e-08
0.000144328
-1.02752e-07
0.00014433
-1.47206e-07
0.000144329
-1.94016e-07
0.000144327
-2.43401e-07
0.000144322
-2.95477e-07
0.000144314
-3.50273e-07
0.000144301
-4.07733e-07
0.000144285
-4.67725e-07
0.000144264
-5.30071e-07
0.000144237
-5.94554e-07
0.000144205
-6.60934e-07
0.000144167
-7.28952e-07
0.000144123
-7.98338e-07
0.000144072
-8.68811e-07
0.000144015
-9.40084e-07
0.00014395
-1.01187e-06
0.000143877
-1.08386e-06
0.000143797
-1.15576e-06
0.000143709
-1.22727e-06
0.000143613
-1.29807e-06
0.000143508
-1.36787e-06
0.000143395
-1.43635e-06
0.000143273
-1.50322e-06
0.000143142
-1.56817e-06
0.000143002
-1.63091e-06
0.000142854
-1.69116e-06
0.000142696
-1.74864e-06
0.000142529
-1.80308e-06
0.000142354
-1.85425e-06
0.00014217
-1.90189e-06
-1.94583e-06
0.000141977
0.000148449
-2.05515e-08
0.000148451
-6.2617e-08
0.000148454
-1.05173e-07
0.000148455
-1.4858e-07
0.000148455
-1.93373e-07
0.000148451
-2.39905e-07
0.000148444
-2.88405e-07
0.000148433
-3.39006e-07
0.000148417
-3.91728e-07
0.000148395
-4.46503e-07
0.000148369
-5.032e-07
0.000148336
-5.61644e-07
0.000148296
-6.2163e-07
0.00014825
-6.82926e-07
0.000148197
-7.45289e-07
0.000148137
-8.0846e-07
0.000148069
-8.72176e-07
0.000147993
-9.36166e-07
0.00014791
-1.00015e-06
0.000147818
-1.06386e-06
0.000147717
-1.12701e-06
0.000147609
-1.18931e-06
0.000147491
-1.25048e-06
0.000147365
-1.31026e-06
0.00014723
-1.36836e-06
0.000147087
-1.42453e-06
0.000146934
-1.4785e-06
0.000146773
-1.53002e-06
0.000146603
-1.57886e-06
0.000146425
-1.6248e-06
0.000146239
-1.66762e-06
0.000146044
-1.70713e-06
-1.74319e-06
0.000145841
0.000152689
-2.07007e-08
0.00015269
-6.34876e-08
0.000152691
-1.05615e-07
0.00015269
-1.47574e-07
0.000152686
-1.89997e-07
0.00015268
-2.33291e-07
0.000152669
-2.77791e-07
0.000152654
-3.23745e-07
0.000152633
-3.71255e-07
0.000152607
-4.20318e-07
0.000152575
-4.7086e-07
0.000152536
-5.22753e-07
0.00015249
-5.7583e-07
0.000152437
-6.29893e-07
0.000152376
-6.8473e-07
0.000152308
-7.40112e-07
0.000152232
-7.95803e-07
0.000152147
-8.51561e-07
0.000152054
-9.07138e-07
0.000151953
-9.62287e-07
0.000151842
-1.01676e-06
0.000151723
-1.0703e-06
0.000151595
-1.12266e-06
0.000151459
-1.17361e-06
0.000151313
-1.22291e-06
0.000151159
-1.27033e-06
0.000150996
-1.31564e-06
0.000150825
-1.35865e-06
0.000150645
-1.39915e-06
0.000150457
-1.43697e-06
0.000150262
-1.47193e-06
0.000150058
-1.50387e-06
-1.53271e-06
0.000149848
0.000157055
-2.37418e-08
0.000157059
-6.84081e-08
0.000157064
-1.09747e-07
0.000157065
-1.49079e-07
0.000157063
-1.87791e-07
0.000157056
-2.265e-07
0.000157044
-2.65713e-07
0.000157026
-3.0582e-07
0.000157002
-3.47004e-07
0.000156971
-3.89322e-07
0.000156933
-4.32749e-07
0.000156887
-4.77196e-07
0.000156834
-5.22533e-07
0.000156773
-5.68598e-07
0.000156703
-6.15207e-07
0.000156625
-6.62165e-07
0.000156539
-7.09264e-07
0.000156443
-7.56294e-07
0.000156339
-8.03039e-07
0.000156226
-8.49282e-07
0.000156104
-8.94806e-07
0.000155973
-9.39394e-07
0.000155833
-9.82836e-07
0.000155685
-1.02492e-06
0.000155527
-1.06546e-06
0.000155361
-1.10426e-06
0.000155187
-1.14113e-06
0.000155004
-1.17591e-06
0.000154813
-1.20844e-06
0.000154615
-1.23857e-06
0.000154409
-1.26618e-06
0.000154196
-1.29114e-06
-1.31338e-06
0.000153977
0.000161538
-2.2969e-08
0.000161539
-7.00955e-08
0.000161541
-1.11174e-07
0.00016154
-1.48568e-07
0.000161536
-1.83861e-07
0.000161528
-2.17891e-07
0.000161514
-2.51544e-07
0.000161493
-2.85438e-07
0.000161466
-3.19873e-07
0.000161432
-3.5499e-07
0.00016139
-3.90835e-07
0.00016134
-4.27368e-07
0.000161282
-4.64499e-07
0.000161215
-5.02102e-07
0.00016114
-5.40027e-07
0.000161056
-5.7811e-07
0.000160963
-6.1618e-07
0.000160861
-6.54061e-07
0.000160749
-6.91573e-07
0.000160629
-7.2854e-07
0.000160499
-7.64784e-07
0.000160359
-8.0013e-07
0.000160211
-8.34411e-07
0.000160054
-8.67462e-07
0.000159887
-8.99127e-07
0.000159712
-9.29257e-07
0.000159529
-9.57714e-07
0.000159337
-9.84366e-07
0.000159138
-1.00909e-06
0.000158931
-1.03179e-06
0.000158717
-1.05235e-06
0.000158497
-1.07068e-06
-1.08674e-06
0.00015827
0.000166164
-3.3444e-08
0.000166176
-8.23666e-08
0.000166185
-1.19718e-07
0.000166188
-1.51827e-07
0.000166185
-1.8117e-07
0.000166176