/*--------------------------------*- C++ -*----------------------------------*\
  =========                 |
  \\      /  F ield         | OpenFOAM: The Open Source CFD Toolbox
   \\    /   O peration     | Website:  https://openfoam.org
    \\  /    A nd           | Version:  10
     \\/     M anipulation  |
\*---------------------------------------------------------------------------*/
FoamFile
{
    format      ascii;
    class       volVectorField;
    location    "0.16";
    object      U;
}
// * * * * * * * * * * * * * * * * * * * * * * * * * * * * * * * * * * * * * //

dimensions      [0 1 -1 0 0 0 0];

internalField   nonuniform List<vector> 
6820
(
(7.28194 0.0246694 0)
(7.17943 0.0395997 0)
(7.05895 0.0442036 0)
(6.93378 0.0464562 0)
(6.81049 0.047083 0)
(6.6897 0.0467487 0)
(6.57205 0.0459022 0)
(6.45818 0.0447419 0)
(6.34836 0.0433889 0)
(6.2427 0.0419253 0)
(6.1413 0.0404016 0)
(6.0442 0.0388486 0)
(5.95141 0.0372838 0)
(5.86295 0.0357141 0)
(5.77884 0.0341381 0)
(5.69912 0.0325474 0)
(5.62387 0.0309277 0)
(5.55318 0.0292611 0)
(5.4872 0.0275245 0)
(5.42611 0.025692 0)
(5.37014 0.0237365 0)
(5.31958 0.0216299 0)
(5.27473 0.0193436 0)
(5.23595 0.0168499 0)
(5.20362 0.0141264 0)
(5.17812 0.0111787 0)
(5.15979 0.00788482 0)
(5.14919 0.00419373 0)
(5.14607 0.000441468 0)
(5.14996 -0.00298381 0)
(5.15976 -0.00679847 0)
(5.17993 -0.011143 0)
(5.20035 -0.0148637 0)
(7.35914 0.0256906 0)
(7.42074 0.035225 0)
(7.47578 0.0366297 0)
(7.52607 0.0381857 0)
(7.57222 0.0390558 0)
(7.61319 0.0395519 0)
(7.64906 0.0399403 0)
(7.68036 0.0402198 0)
(7.70753 0.0403815 0)
(7.73101 0.0404276 0)
(7.75125 0.0403536 0)
(7.76868 0.0401532 0)
(7.78369 0.0398192 0)
(7.79665 0.0393419 0)
(7.80793 0.0387085 0)
(7.81783 0.0379021 0)
(7.82666 0.0369009 0)
(7.83471 0.0356807 0)
(7.84223 0.0342112 0)
(7.84947 0.0324578 0)
(7.85668 0.0303846 0)
(7.8641 0.0279529 0)
(7.87193 0.025121 0)
(7.88039 0.021849 0)
(7.88968 0.0181019 0)
(7.89994 0.0138819 0)
(7.91137 0.00924975 0)
(7.92338 0.0044388 0)
(7.93603 -0.000456444 0)
(7.95034 -0.00533546 0)
(7.96655 -0.011019 0)
(7.98456 -0.0167173 0)
(8.00484 -0.025384 0)
(7.33545 0.00678542 0)
(7.34603 0.00968848 0)
(7.35579 0.0119002 0)
(7.36468 0.0148683 0)
(7.37448 0.0171953 0)
(7.38505 0.0190294 0)
(7.39629 0.0205796 0)
(7.40832 0.021839 0)
(7.4211 0.0228136 0)
(7.43456 0.0235283 0)
(7.44864 0.0239996 0)
(7.46328 0.0242384 0)
(7.47842 0.0242521 0)
(7.49402 0.0240424 0)
(7.51002 0.0236072 0)
(7.5264 0.0229378 0)
(7.54313 0.0220186 0)
(7.56017 0.0208317 0)
(7.57749 0.0193512 0)
(7.59506 0.0175467 0)
(7.61284 0.0153873 0)
(7.63078 0.0128422 0)
(7.64884 0.0098817 0)
(7.66694 0.00648041 0)
(7.68506 0.00263216 0)
(7.70314 -0.00170787 0)
(7.72107 -0.00643876 0)
(7.73954 -0.0114061 0)
(7.75883 -0.016713 0)
(7.77907 -0.0225384 0)
(7.80021 -0.0290086 0)
(7.8221 -0.0361989 0)
(7.84431 -0.0438728 0)
(7.33497 0.00904048 0)
(7.34288 0.0192914 0)
(7.34928 0.02414 0)
(7.35394 0.0271276 0)
(7.35858 0.0287464 0)
(7.36329 0.029504 0)
(7.36804 0.0298047 0)
(7.37303 0.0297805 0)
(7.37837 0.0294991 0)
(7.38412 0.0290136 0)
(7.39034 0.0283524 0)
(7.39709 0.0275283 0)
(7.4044 0.0265459 0)
(7.41232 0.0254 0)
(7.42088 0.0240825 0)
(7.43011 0.0225791 0)
(7.44005 0.0208691 0)
(7.45071 0.0189342 0)
(7.46212 0.0167474 0)
(7.4743 0.0142767 0)
(7.48726 0.0114938 0)
(7.50101 0.00836502 0)
(7.51559 0.00485458 0)
(7.53101 0.000936707 0)
(7.54729 -0.00340001 0)
(7.56446 -0.00819483 0)
(7.58253 -0.0134883 0)
(7.60149 -0.0193667 0)
(7.6214 -0.0258045 0)
(7.64235 -0.0327194 0)
(7.66436 -0.0401515 0)
(7.68726 -0.0479399 0)
(7.71086 -0.0560367 0)
(7.33403 0.00606523 0)
(7.33913 0.0116987 0)
(7.34457 0.0137688 0)
(7.3494 0.015494 0)
(7.35437 0.0168429 0)
(7.35946 0.0177667 0)
(7.36456 0.0184249 0)
(7.36982 0.0188429 0)
(7.37533 0.0190127 0)
(7.38114 0.0189409 0)
(7.38731 0.0186314 0)
(7.39389 0.018083 0)
(7.40093 0.0172947 0)
(7.40848 0.0162579 0)
(7.41658 0.0149662 0)
(7.42527 0.0134046 0)
(7.4346 0.0115511 0)
(7.44461 0.00938805 0)
(7.45533 0.00688713 0)
(7.4668 0.00401704 0)
(7.47906 0.00075513 0)
(7.49213 -0.00293325 0)
(7.50604 -0.00708331 0)
(7.52079 -0.0117265 0)
(7.5364 -0.0168973 0)
(7.55292 -0.0225933 0)
(7.57038 -0.0288457 0)
(7.58883 -0.0356342 0)
(7.6083 -0.0429253 0)
(7.62884 -0.0507285 0)
(7.65046 -0.0590583 0)
(7.67313 -0.0678419 0)
(7.69685 -0.0768145 0)
(7.33378 0.00496072 0)
(7.33813 0.0118866 0)
(7.34326 0.0162119 0)
(7.34787 0.0194219 0)
(7.35246 0.0215674 0)
(7.35718 0.0227933 0)
(7.36199 0.0234023 0)
(7.367 0.0235418 0)
(7.37231 0.0232861 0)
(7.37796 0.0226951 0)
(7.384 0.0218076 0)
(7.39048 0.0206453 0)
(7.39742 0.0192204 0)
(7.40488 0.017528 0)
(7.41288 0.0155669 0)
(7.42146 0.0133278 0)
(7.43066 0.010783 0)
(7.44051 0.00793464 0)
(7.45103 0.00473999 0)
(7.46227 0.0011709 0)
(7.47425 -0.00281269 0)
(7.487 -0.00724199 0)
(7.50054 -0.0121438 0)
(7.5149 -0.0175478 0)
(7.53011 -0.0234833 0)
(7.5462 -0.0299705 0)
(7.56321 -0.0370445 0)
(7.58116 -0.0447338 0)
(7.60011 -0.0530542 0)
(7.62011 -0.0620042 0)
(7.64123 -0.0715541 0)
(7.66357 -0.081605 0)
(7.68718 -0.0919604 0)
(7.33349 0.00399203 0)
(7.33659 0.00963562 0)
(7.34073 0.0126542 0)
(7.34483 0.0144946 0)
(7.34911 0.015592 0)
(7.35367 0.0161005 0)
(7.35841 0.0162154 0)
(7.3634 0.0160213 0)
(7.36869 0.0155391 0)
(7.37431 0.0147842 0)
(7.38031 0.0137642 0)
(7.38672 0.0124772 0)
(7.39359 0.0109223 0)
(7.40094 0.00908276 0)
(7.40882 0.00694983 0)
(7.41726 0.00449402 0)
(7.42628 0.00169744 0)
(7.43594 -0.00148008 0)
(7.44623 -0.00504735 0)
(7.45719 -0.0090226 0)
(7.46886 -0.0134519 0)
(7.48125 -0.0183703 0)
(7.4944 -0.0238137 0)
(7.50833 -0.0298192 0)
(7.52306 -0.0364227 0)
(7.53863 -0.0436535 0)
(7.55508 -0.0515433 0)
(7.57245 -0.0601141 0)
(7.59081 -0.0693737 0)
(7.61022 -0.0793251 0)
(7.63076 -0.0899595 0)
(7.65258 -0.101239 0)
(7.67581 -0.113078 0)
(7.33334 0.00325581 0)
(7.33584 0.00841152 0)
(7.33959 0.0117971 0)
(7.34353 0.0142521 0)
(7.34767 0.0159798 0)
(7.35205 0.0169967 0)
(7.35662 0.0174346 0)
(7.36142 0.01739 0)
(7.36651 0.0169133 0)
(7.37194 0.0160448 0)
(7.37774 0.0148123 0)
(7.38395 0.0132305 0)
(7.39061 0.0113143 0)
(7.39774 0.00904692 0)
(7.40538 0.00645122 0)
(7.41356 0.00350649 0)
(7.4223 0.000206163 0)
(7.43164 -0.00351946 0)
(7.44161 -0.00767618 0)
(7.45222 -0.0122928 0)
(7.46351 -0.0174007 0)
(7.47548 -0.0230345 0)
(7.48818 -0.0292296 0)
(7.50161 -0.0360216 0)
(7.51582 -0.0434466 0)
(7.53083 -0.0515392 0)
(7.54667 -0.0603364 0)
(7.5634 -0.0698741 0)
(7.58107 -0.0801847 0)
(7.59975 -0.0912987 0)
(7.61954 -0.103237 0)
(7.64062 -0.11601 0)
(7.66311 -0.129617 0)
(7.33324 0.00270226 0)
(7.3352 0.00718032 0)
(7.33836 0.0101077 0)
(7.34186 0.0119678 0)
(7.34562 0.0130307 0)
(7.34969 0.0134076 0)
(7.35404 0.0132541 0)
(7.35866 0.0126773 0)
(7.3636 0.011726 0)
(7.36889 0.0104303 0)
(7.37455 0.00880929 0)
(7.38062 0.00686586 0)
(7.38712 0.00461434 0)
(7.39408 0.00200876 0)
(7.40155 -0.000971227 0)
(7.40953 -0.00431887 0)
(7.41804 -0.00804556 0)
(7.42711 -0.012177 0)
(7.43678 -0.0167554 0)
(7.44705 -0.0218187 0)
(7.45795 -0.0273998 0)
(7.4695 -0.0335366 0)
(7.48172 -0.040269 0)
(7.49464 -0.0476385 0)
(7.50827 -0.0556877 0)
(7.52265 -0.0644599 0)
(7.53781 -0.0739998 0)
(7.5538 -0.0843531 0)
(7.57067 -0.0955643 0)
(7.58851 -0.10768 0)
(7.6074 -0.120751 0)
(7.6275 -0.134838 0)
(7.64896 -0.15002 0)
(7.33318 0.00225509 0)
(7.33477 0.00613735 0)
(7.33755 0.00884053 0)
(7.34082 0.0106629 0)
(7.3444 0.0118178 0)
(7.34833 0.0123602 0)
(7.35253 0.0123687 0)
(7.35702 0.0119089 0)
(7.36181 0.011014 0)
(7.36694 0.00970625 0)
(7.37242 0.00800037 0)
(7.37831 0.0058975 0)
(7.3846 0.00341637 0)
(7.3913 0.000586236 0)
(7.39848 -0.00266603 0)
(7.40616 -0.00634887 0)
(7.41435 -0.0104775 0)
(7.42307 -0.0150681 0)
(7.43235 -0.0201536 0)
(7.44219 -0.0257649 0)
(7.45262 -0.0319356 0)
(7.46366 -0.0387038 0)
(7.47532 -0.0461098 0)
(7.48762 -0.0541959 0)
(7.50059 -0.0630066 0)
(7.51425 -0.072589 0)
(7.52863 -0.0829937 0)
(7.54377 -0.0942756 0)
(7.55972 -0.106495 0)
(7.57656 -0.11972 0)
(7.59434 -0.134031 0)
(7.61323 -0.149534 0)
(7.63329 -0.166351 0)
(7.33314 0.00189121 0)
(7.33445 0.00521878 0)
(7.33687 0.00758199 0)
(7.33982 0.00909444 0)
(7.34311 0.00990444 0)
(7.34676 0.0100683 0)
(7.35072 0.0096663 0)
(7.35497 0.00877525 0)
(7.35955 0.00744258 0)
(7.36446 0.00569911 0)
(7.36972 0.00356637 0)
(7.37538 0.001055 0)
(7.38146 -0.00189473 0)
(7.38795 -0.00520316 0)
(7.39488 -0.00890288 0)
(7.40228 -0.0130249 0)
(7.41015 -0.0175967 0)
(7.41853 -0.0226398 0)
(7.42742 -0.0281877 0)
(7.43684 -0.0342759 0)
(7.4468 -0.040941 0)
(7.45731 -0.0482237 0)
(7.4684 -0.0561674 0)
(7.48007 -0.0648186 0)
(7.49235 -0.074227 0)
(7.50525 -0.0844463 0)
(7.51879 -0.0955352 0)
(7.53301 -0.107558 0)
(7.54796 -0.120589 0)
(7.56367 -0.134711 0)
(7.58021 -0.150027 0)
(7.59768 -0.166669 0)
(7.61613 -0.184785 0)
(7.33311 0.00158501 0)
(7.33421 0.004403 0)
(7.33634 0.00643839 0)
(7.33904 0.00772379 0)
(7.34213 0.00837589 0)
(7.34559 0.00844481 0)
(7.34938 0.00798482 0)
(7.35348 0.00704683 0)
(7.3579 0.00566083 0)
(7.36265 0.00384321 0)
(7.36774 0.00160989 0)
(7.37318 -0.0010184 0)
(7.37899 -0.00409089 0)
(7.38522 -0.00760813 0)
(7.39185 -0.0115651 0)
(7.39892 -0.0159851 0)
(7.40642 -0.0208942 0)
(7.41439 -0.0263154 0)
(7.42283 -0.0322801 0)
(7.43175 -0.038823 0)
(7.44116 -0.0459806 0)
(7.45107 -0.0537933 0)
(7.4615 -0.062305 0)
(7.47245 -0.0715629 0)
(7.48394 -0.0816186 0)
(7.49597 -0.0925283 0)
(7.50857 -0.104355 0)
(7.52176 -0.117168 0)
(7.53555 -0.13105 0)
(7.54999 -0.146095 0)
(7.56512 -0.162417 0)
(7.58098 -0.180164 0)
(7.59758 -0.19949 0)
(7.33309 0.00132157 0)
(7.33403 0.00367438 0)
(7.33591 0.00537379 0)
(7.33837 0.00638868 0)
(7.34122 0.00678595 0)
(7.34445 0.00659673 0)
(7.348 0.00585852 0)
(7.35187 0.0046142 0)
(7.35605 0.00289579 0)
(7.36055 0.000721157 0)
(7.36539 -0.00189965 0)
(7.37057 -0.00495857 0)
(7.37612 -0.00843143 0)
(7.38204 -0.0123571 0)
(7.38835 -0.0167344 0)
(7.39507 -0.0215829 0)
(7.40219 -0.0269281 0)
(7.40973 -0.0327951 0)
(7.41771 -0.0392153 0)
(7.42611 -0.0462239 0)
(7.43497 -0.0538585 0)
(7.44426 -0.0621609 0)
(7.45401 -0.0711763 0)
(7.46422 -0.0809542 0)
(7.47489 -0.0915488 0)
(7.48602 -0.10302 0)
(7.49763 -0.115434 0)
(7.50972 -0.128867 0)
(7.52231 -0.143405 0)
(7.5354 -0.159148 0)
(7.549 -0.176216 0)
(7.56314 -0.194759 0)
(7.57779 -0.214921 0)
(7.33308 0.00109037 0)
(7.33389 0.00301704 0)
(7.33556 0.00438611 0)
(7.3378 0.00513682 0)
(7.34045 0.00530842 0)
(7.34347 0.00492595 0)
(7.34683 0.00401821 0)
(7.35051 0.00261788 0)
(7.3545 0.000749844 0)
(7.35879 -0.00157085 0)
(7.36341 -0.0043392 0)
(7.36834 -0.00756074 0)
(7.37362 -0.0112266 0)
(7.37924 -0.0153622 0)
(7.38521 -0.0199771 0)
(7.39155 -0.0250905 0)
(7.39825 -0.0307273 0)
(7.40533 -0.0369139 0)
(7.41279 -0.043681 0)
(7.42064 -0.0510633 0)
(7.42887 -0.0590985 0)
(7.43749 -0.0678278 0)
(7.44649 -0.0772963 0)
(7.45587 -0.0875533 0)
(7.46564 -0.0986531 0)
(7.47579 -0.110656 0)
(7.48632 -0.123628 0)
(7.49722 -0.137645 0)
(7.50849 -0.152794 0)
(7.52011 -0.169174 0)
(7.53209 -0.1869 0)
(7.54439 -0.206115 0)
(7.55697 -0.226945 0)
(7.33307 0.000884228 0)
(7.33378 0.00242006 0)
(7.33527 0.00346814 0)
(7.33731 0.00395114 0)
(7.33975 0.0038816 0)
(7.34256 0.00327069 0)
(7.3457 0.00213359 0)
(7.34915 0.000491789 0)
(7.35289 -0.00163766 0)
(7.35693 -0.0042425 0)
(7.36127 -0.00731512 0)
(7.36592 -0.0108562 0)
(7.37087 -0.0148632 0)
(7.37615 -0.0193507 0)
(7.38174 -0.0243305 0)
(7.38767 -0.0298201 0)
(7.39392 -0.0358423 0)
(7.40051 -0.0424231 0)
(7.40743 -0.0495922 0)
(7.41469 -0.0573832 0)
(7.42227 -0.0658331 0)
(7.43018 -0.0749824 0)
(7.43841 -0.0848757 0)
(7.44695 -0.0955617 0)
(7.45579 -0.107094 0)
(7.46493 -0.119533 0)
(7.47434 -0.132943 0)
(7.48401 -0.147399 0)
(7.49392 -0.162984 0)
(7.50405 -0.179793 0)
(7.51435 -0.197931 0)
(7.52479 -0.217529 0)
(7.53529 -0.23869 0)
(7.33306 0.000698199 0)
(7.33369 0.00187451 0)
(7.33502 0.00261405 0)
(7.33688 0.00283349 0)
(7.33912 0.0025282 0)
(7.34173 0.00170143 0)
(7.34467 0.000361947 0)
(7.3479 -0.00147428 0)
(7.35142 -0.00379366 0)
(7.35522 -0.00658748 0)
(7.3593 -0.00985184 0)
(7.36366 -0.0135889 0)
(7.3683 -0.0178025 0)
(7.37323 -0.0225061 0)
(7.37844 -0.0277142 0)
(7.38394 -0.0334456 0)
(7.38973 -0.0397236 0)
(7.3958 -0.0465744 0)
(7.40215 -0.0540275 0)
(7.40878 -0.0621159 0)
(7.41568 -0.0708758 0)
(7.42284 -0.0803465 0)
(7.43025 -0.0905711 0)
(7.43789 -0.101597 0)
(7.44575 -0.113475 0)
(7.45381 -0.126262 0)
(7.46204 -0.14002 0)
(7.47043 -0.154818 0)
(7.47892 -0.170732 0)
(7.48749 -0.187848 0)
(7.49608 -0.206257 0)
(7.50462 -0.226069 0)
(7.51304 -0.247365 0)
(7.33305 0.000528832 0)
(7.33362 0.00137369 0)
(7.33481 0.00181923 0)
(7.33649 0.0017813 0)
(7.33856 0.00124238 0)
(7.34096 0.000197033 0)
(7.34368 -0.00135394 0)
(7.34669 -0.00340278 0)
(7.34996 -0.00594173 0)
(7.35349 -0.00896558 0)
(7.35727 -0.0124726 0)
(7.36131 -0.0164652 0)
(7.3656 -0.0209483 0)
(7.37015 -0.0259328 0)
(7.37494 -0.0314325 0)
(7.37998 -0.0374647 0)
(7.38527 -0.0440506 0)
(7.39079 -0.0512146 0)
(7.39654 -0.0589843 0)
(7.40252 -0.0673905 0)
(7.4087 -0.076467 0)
(7.41508 -0.0862509 0)
(7.42164 -0.0967825 0)
(7.42836 -0.108106 0)
(7.43521 -0.120268 0)
(7.44218 -0.133323 0)
(7.44922 -0.147326 0)
(7.4563 -0.162339 0)
(7.46338 -0.17843 0)
(7.47039 -0.195672 0)
(7.47729 -0.214142 0)
(7.48397 -0.233929 0)
(7.49037 -0.255089 0)
(7.33305 0.000373737 0)
(7.33355 0.000912594 0)
(7.33462 0.00107985 0)
(7.33615 0.00079353 0)
(7.33803 2.78694e-05 0)
(7.34025 -0.00122867 0)
(7.34275 -0.00298024 0)
(7.34553 -0.00522366 0)
(7.34855 -0.00795431 0)
(7.35181 -0.0111691 0)
(7.35531 -0.0148678 0)
(7.35903 -0.0190535 0)
(7.36297 -0.0237328 0)
(7.36712 -0.0289165 0)
(7.37149 -0.034619 0)
(7.37606 -0.0408576 0)
(7.38083 -0.0476531 0)
(7.38579 -0.0550292 0)
(7.39092 -0.0630126 0)
(7.39622 -0.0716325 0)
(7.40167 -0.0809209 0)
(7.40725 -0.0909123 0)
(7.41293 -0.101644 0)
(7.4187 -0.113157 0)
(7.42452 -0.125494 0)
(7.43036 -0.138701 0)
(7.43618 -0.152829 0)
(7.44194 -0.167931 0)
(7.44759 -0.184064 0)
(7.45305 -0.201286 0)
(7.45826 -0.219658 0)
(7.46313 -0.239247 0)
(7.46757 -0.260087 0)
(7.33304 0.000231243 0)
(7.33349 0.000487348 0)
(7.33446 0.000392885 0)
(7.33584 -0.000130572 0)
(7.33755 -0.00111422 0)
(7.33957 -0.00257466 0)
(7.34186 -0.00452062 0)
(7.3444 -0.00695376 0)
(7.34717 -0.00987339 0)
(7.35015 -0.0132793 0)
(7.35333 -0.0171732 0)
(7.35671 -0.0215595 0)
(7.36027 -0.0264449 0)
(7.36401 -0.0318401 0)
(7.36793 -0.037758 0)
(7.372 -0.0442149 0)
(7.37623 -0.0512295 0)
(7.38059 -0.0588234 0)
(7.38508 -0.0670205 0)
(7.38968 -0.0758471 0)
(7.39436 -0.0853319 0)
(7.39911 -0.0955056 0)
(7.40391 -0.106401 0)
(7.40871 -0.118054 0)
(7.41348 -0.130502 0)
(7.4182 -0.143784 0)
(7.42281 -0.157943 0)
(7.42726 -0.173021 0)
(7.4315 -0.189064 0)
(7.43545 -0.206117 0)
(7.43905 -0.224223 0)
(7.44218 -0.243429 0)
(7.44479 -0.263749 0)
(7.33304 9.99002e-05 0)
(7.33344 9.52248e-05 0)
(7.33431 -0.000243641 0)
(7.33555 -0.000991183 0)
(7.3371 -0.00218164 0)
(7.33893 -0.00383508 0)
(7.34101 -0.00596346 0)
(7.34332 -0.00857164 0)
(7.34582 -0.0116614 0)
(7.34851 -0.015234 0)
(7.35138 -0.0192923 0)
(7.35441 -0.0238407 0)
(7.35759 -0.0288864 0)
(7.36091 -0.0344391 0)
(7.36436 -0.0405115 0)
(7.36793 -0.0471185 0)
(7.3716 -0.0542777 0)
(7.37537 -0.0620089 0)
(7.3792 -0.070334 0)
(7.38309 -0.0792766 0)
(7.387 -0.0888624 0)
(7.39091 -0.0991185 0)
(7.3948 -0.110074 0)
(7.39863 -0.121758 0)
(7.40236 -0.134203 0)
(7.40596 -0.147442 0)
(7.40936 -0.161507 0)
(7.41252 -0.176432 0)
(7.41538 -0.192249 0)
(7.41787 -0.208991 0)
(7.41991 -0.226685 0)
(7.4214 -0.245359 0)
(7.42228 -0.265011 0)
(7.33303 -2.07646e-05 0)
(7.33339 -0.000265524 0)
(7.33417 -0.000831224 0)
(7.33528 -0.00178826 0)
(7.33667 -0.00317231 0)
(7.33832 -0.00500595 0)
(7.34019 -0.00730364 0)
(7.34225 -0.010073 0)
(7.3445 -0.0133181 0)
(7.34689 -0.0170421 0)
(7.34943 -0.021249 0)
(7.3521 -0.0259439 0)
(7.35488 -0.0311339 0)
(7.35777 -0.0368284 0)
(7.36074 -0.0430388 0)
(7.36379 -0.0497785 0)
(7.36689 -0.0570631 0)
(7.37003 -0.0649097 0)
(7.37319 -0.0733371 0)
(7.37635 -0.0823657 0)
(7.37948 -0.0920169 0)
(7.38255 -0.102313 0)
(7.38554 -0.113278 0)
(7.38839 -0.124936 0)
(7.39109 -0.13731 0)
(7.39357 -0.150427 0)
(7.3958 -0.16431 0)
(7.39771 -0.178983 0)
(7.39925 -0.194466 0)
(7.40034 -0.210779 0)
(7.40091 -0.227933 0)
(7.40088 -0.245943 0)
(7.40017 -0.264791 0)
(7.33303 -0.000131343 0)
(7.33335 -0.000596372 0)
(7.33404 -0.00137089 0)
(7.33503 -0.00252126 0)
(7.33627 -0.00408362 0)
(7.33773 -0.00608199 0)
(7.33939 -0.00853249 0)
(7.34122 -0.0114445 0)
(7.34319 -0.0148236 0)
(7.34529 -0.0186741 0)
(7.3475 -0.0230002 0)
(7.3498 -0.0278072 0)
(7.35218 -0.0331017 0)
(7.35462 -0.0388921 0)
(7.35711 -0.0451886 0)
(7.35963 -0.052003 0)
(7.36215 -0.0593487 0)
(7.36467 -0.0672406 0)
(7.36716 -0.0756947 0)
(7.36959 -0.0847278 0)
(7.37194 -0.0943577 0)
(7.37417 -0.104602 0)
(7.37625 -0.11548 0)
(7.37815 -0.12701 0)
(7.37983 -0.139209 0)
(7.38123 -0.152095 0)
(7.38232 -0.165683 0)
(7.38302 -0.179987 0)
(7.3833 -0.195018 0)
(7.38307 -0.210783 0)
(7.38227 -0.227283 0)
(7.38082 -0.244515 0)
(7.37867 -0.262454 0)
(7.33303 -0.000232586 0)
(7.33331 -0.000898312 0)
(7.33392 -0.00186312 0)
(7.33479 -0.00318959 0)
(7.33589 -0.00491351 0)
(7.33717 -0.00705966 0)
(7.33862 -0.00964532 0)
(7.34021 -0.0126813 0)
(7.34192 -0.0161744 0)
(7.34372 -0.0201297 0)
(7.34559 -0.0245522 0)
(7.34752 -0.0294469 0)
(7.34949 -0.0348202 0)
(7.35148 -0.0406795 0)
(7.35347 -0.0470334 0)
(7.35545 -0.053892 0)
(7.3574 -0.0612662 0)
(7.35929 -0.0691681 0)
(7.3611 -0.0776102 0)
(7.3628 -0.0866058 0)
(7.36436 -0.096168 0)
(7.36576 -0.10631 0)
(7.36696 -0.117045 0)
(7.36792 -0.128385 0)
(7.36861 -0.14034 0)
(7.36896 -0.152922 0)
(7.36895 -0.166137 0)
(7.36851 -0.17999 0)
(7.3676 -0.194482 0)
(7.36614 -0.209609 0)
(7.36408 -0.225363 0)
(7.36134 -0.241731 0)
(7.35788 -0.25868 0)
(7.33302 -0.000324541 0)
(7.33327 -0.00117184 0)
(7.33381 -0.00230806 0)
(7.33457 -0.003792 0)
(7.33552 -0.00565845 0)
(7.33663 -0.00793224 0)
(7.33788 -0.010631 0)
(7.33923 -0.0137663 0)
(7.34066 -0.0173454 0)
(7.34216 -0.021374 0)
(7.34369 -0.0258569 0)
(7.34525 -0.030799 0)
(7.3468 -0.0362057 0)
(7.34834 -0.0420836 0)
(7.34984 -0.0484397 0)
(7.35128 -0.0552822 0)
(7.35265 -0.0626199 0)
(7.35391 -0.070462 0)
(7.35504 -0.0788182 0)
(7.35602 -0.0876978 0)
(7.35682 -0.0971102 0)
(7.35741 -0.107064 0)
(7.35774 -0.117567 0)
(7.3578 -0.128626 0)
(7.35752 -0.140245 0)
(7.35688 -0.152429 0)
(7.35583 -0.165176 0)
(7.35431 -0.178484 0)
(7.35229 -0.192346 0)
(7.34969 -0.20675 0)
(7.34648 -0.221679 0)
(7.34258 -0.237112 0)
(7.33795 -0.25301 0)
(7.33302 -0.000407476 0)
(7.33324 -0.0014175 0)
(7.3337 -0.00270611 0)
(7.33436 -0.00432853 0)
(7.33517 -0.00631843 0)
(7.33611 -0.00870048 0)
(7.33716 -0.0114927 0)
(7.33828 -0.014707 0)
(7.33945 -0.0183515 0)
(7.34064 -0.0224319 0)
(7.34184 -0.026953 0)
(7.34302 -0.0319191 0)
(7.34416 -0.0373349 0)
(7.34525 -0.0432053 0)
(7.34626 -0.0495357 0)
(7.34717 -0.056332 0)
(7.34796 -0.0636004 0)
(7.3486 -0.0713471 0)
(7.34907 -0.0795783 0)
(7.34934 -0.0882995 0)
(7.34939 -0.0975159 0)
(7.34918 -0.107231 0)
(7.34868 -0.117449 0)
(7.34785 -0.128169 0)
(7.34667 -0.139392 0)
(7.34508 -0.151113 0)
(7.34304 -0.163327 0)
(7.34052 -0.176024 0)
(7.33747 -0.189191 0)
(7.33383 -0.202809 0)
(7.32957 -0.216854 0)
(7.32463 -0.231299 0)
(7.31898 -0.246103 0)
(7.33302 -0.00048156 0)
(7.33321 -0.00163549 0)
(7.3336 -0.00305659 0)
(7.33416 -0.00479621 0)
(7.33484 -0.00688614 0)
(7.33561 -0.00935005 0)
(7.33646 -0.0122054 0)
(7.33735 -0.015464 0)
(7.33825 -0.019134 0)
(7.33914 -0.0232212 0)
(7.34 -0.0277302 0)
(7.34081 -0.032665 0)
(7.34154 -0.0380296 0)
(7.34217 -0.0438279 0)
(7.34269 -0.0500639 0)
(7.34307 -0.056742 0)
(7.34329 -0.063866 0)
(7.34332 -0.0714397 0)
(7.34314 -0.0794664 0)
(7.34273 -0.0879485 0)
(7.34205 -0.0968873 0)
(7.34107 -0.106283 0)
(7.33978 -0.116133 0)
(7.33812 -0.126435 0)
(7.33607 -0.137182 0)
(7.3336 -0.148366 0)
(7.33065 -0.159976 0)
(7.32721 -0.171996 0)
(7.32322 -0.184407 0)
(7.31865 -0.197187 0)
(7.31346 -0.210306 0)
(7.3076 -0.223732 0)
(7.30106 -0.237426 0)
(7.33302 -0.000547055 0)
(7.33318 -0.00182674 0)
(7.33351 -0.00336165 0)
(7.33397 -0.00519977 0)
(7.33453 -0.00737163 0)
(7.33515 -0.00990051 0)
(7.33581 -0.0128038 0)
(7.33647 -0.0160934 0)
(7.33712 -0.0197774 0)
(7.33772 -0.0238612 0)
(7.33825 -0.0283486 0)
(7.3387 -0.0332427 0)
(7.33903 -0.038546 0)
(7.33923 -0.0442606 0)
(7.33927 -0.0503885 0)
(7.33914 -0.0569314 0)
(7.3388 -0.0638908 0)
(7.33824 -0.0712673 0)
(7.33743 -0.0790611 0)
(7.33635 -0.0872711 0)
(7.33497 -0.095895 0)
(7.33327 -0.104929 0)
(7.33121 -0.114367 0)
(7.32876 -0.124201 0)
(7.3259 -0.134422 0)
(7.32259 -0.145017 0)
(7.31881 -0.15597 0)
(7.31451 -0.167261 0)
(7.30967 -0.178869 0)
(7.30426 -0.190766 0)
(7.29824 -0.202921 0)
(7.29158 -0.2153 0)
(7.28427 -0.227864 0)
(7.33301 -0.000604114 0)
(7.33315 -0.00199076 0)
(7.33342 -0.00361756 0)
(7.33379 -0.00552767 0)
(7.33423 -0.00774884 0)
(7.33469 -0.0103026 0)
(7.33516 -0.0132054 0)
(7.3356 -0.0164689 0)
(7.33599 -0.0201014 0)
(7.33629 -0.0241087 0)
(7.3365 -0.028495 0)
(7.33658 -0.0332633 0)
(7.33651 -0.038416 0)
(7.33628 -0.0439549 0)
(7.33585 -0.0498809 0)
(7.33521 -0.0561948 0)
(7.33433 -0.062896 0)
(7.3332 -0.0699836 0)
(7.33179 -0.0774552 0)
(7.33008 -0.0853069 0)
(7.32804 -0.0935336 0)
(7.32565 -0.102128 0)
(7.32287 -0.111081 0)
(7.3197 -0.120382 0)
(7.31609 -0.130016 0)
(7.31203 -0.139969 0)
(7.30749 -0.150219 0)
(7.30243 -0.160746 0)
(7.29684 -0.171524 0)
(7.29069 -0.182523 0)
(7.28395 -0.193712 0)
(7.27661 -0.205054 0)
(7.26866 -0.216512 0)
(7.33301 -0.000653503 0)
(7.33312 -0.00213162 0)
(7.33335 -0.00383597 0)
(7.33364 -0.00580697 0)
(7.33397 -0.00807177 0)
(7.3343 -0.0106516 0)
(7.3346 -0.0135622 0)
(7.33485 -0.0168148 0)
(7.335 -0.0204164 0)
(7.33504 -0.0243716 0)
(7.33495 -0.0286829 0)
(7.33469 -0.0333517 0)
(7.33425 -0.0383784 0)
(7.3336 -0.0437625 0)
(7.33273 -0.0495029 0)
(7.33161 -0.0555979 0)
(7.33022 -0.0620446 0)
(7.32854 -0.0688395 0)
(7.32655 -0.0759775 0)
(7.32423 -0.0834524 0)
(7.32156 -0.0912563 0)
(7.31851 -0.0993797 0)
(7.31507 -0.107811 0)
(7.31121 -0.116536 0)
(7.30691 -0.125539 0)
(7.30214 -0.134802 0)
(7.2969 -0.144303 0)
(7.29115 -0.154019 0)
(7.28488 -0.163924 0)
(7.27807 -0.173988 0)
(7.2707 -0.184178 0)
(7.26277 -0.194459 0)
(7.25426 -0.204796 0)
(7.33301 -0.000695029 0)
(7.3331 -0.00224396 0)
(7.33327 -0.0039954 0)
(7.33348 -0.00598266 0)
(7.3337 -0.00822956 0)
(7.33388 -0.0107561 0)
(7.334 -0.0135786 0)
(7.33403 -0.0167094 0)
(7.33393 -0.0201576 0)
(7.3337 -0.0239297 0)
(7.33329 -0.0280296 0)
(7.33269 -0.0324601 0)
(7.33188 -0.0372221 0)
(7.33083 -0.0423155 0)
(7.32953 -0.0477389 0)
(7.32795 -0.0534898 0)
(7.32607 -0.0595644 0)
(7.32388 -0.0659577 0)
(7.32136 -0.0726629 0)
(7.31848 -0.079672 0)
(7.31524 -0.0869748 0)
(7.3116 -0.0945595 0)
(7.30755 -0.102412 0)
(7.30308 -0.110517 0)
(7.29816 -0.118855 0)
(7.29278 -0.127408 0)
(7.28693 -0.136151 0)
(7.28059 -0.14506 0)
(7.27374 -0.154109 0)
(7.26638 -0.163266 0)
(7.2585 -0.1725 0)
(7.25008 -0.181777 0)
(7.24115 -0.191064 0)
(7.33301 -0.000731866 0)
(7.33309 -0.00234764 0)
(7.33324 -0.00415365 0)
(7.3334 -0.00618182 0)
(7.33355 -0.00845549 0)
(7.33364 -0.0109926 0)
(7.33363 -0.0138065 0)
(7.3335 -0.0169066 0)
(7.33321 -0.0202992 0)
(7.33274 -0.0239878 0)
(7.33207 -0.0279741 0)
(7.33117 -0.0322582 0)
(7.33002 -0.0368389 0)
(7.3286 -0.0417141 0)
(7.32689 -0.0468804 0)
(7.32487 -0.0523337 0)
(7.32253 -0.0580685 0)
(7.31985 -0.0640781 0)
(7.31681 -0.0703547 0)
(7.3134 -0.0768887 0)
(7.3096 -0.083669 0)
(7.30539 -0.0906827 0)
(7.30077 -0.0979153 0)
(7.29572 -0.10535 0)
(7.29022 -0.112969 0)
(7.28427 -0.120751 0)
(7.27785 -0.128675 0)
(7.27097 -0.136716 0)
(7.2636 -0.144847 0)
(7.25574 -0.153041 0)
(7.2474 -0.161268 0)
(7.23857 -0.169495 0)
(7.22925 -0.177693 0)
(7.33301 -0.000760326 0)
(7.33306 -0.0024067 0)
(7.33315 -0.00419533 0)
(7.33324 -0.00615009 0)
(7.33327 -0.0082962 0)
(7.33321 -0.0106566 0)
(7.33303 -0.0132506 0)
(7.3327 -0.0160935 0)
(7.33218 -0.0191964 0)
(7.33146 -0.022567 0)
(7.33051 -0.0262098 0)
(7.32931 -0.030127 0)
(7.32783 -0.0343188 0)
(7.32606 -0.0387837 0)
(7.32398 -0.0435183 0)
(7.32157 -0.0485181 0)
(7.31882 -0.0537768 0)
(7.31571 -0.0592867 0)
(7.31223 -0.0650384 0)
(7.30836 -0.0710211 0)
(7.30409 -0.0772222 0)
(7.29941 -0.0836274 0)
(7.29431 -0.0902206 0)
(7.28878 -0.0969841 0)
(7.2828 -0.103899 0)
(7.27639 -0.110943 0)
(7.26952 -0.118095 0)
(7.26219 -0.125331 0)
(7.25441 -0.132624 0)
(7.24618 -0.139947 0)
(7.23749 -0.147273 0)
(7.22835 -0.15457 0)
(7.21878 -0.161814 0)
(7.33301 -0.000796543 0)
(7.3331 -0.00252362 0)
(7.33323 -0.00439731 0)
(7.33334 -0.00643501 0)
(7.33337 -0.00865305 0)
(7.33328 -0.0110643 0)
(7.33303 -0.01368 0)
(7.33258 -0.01651 0)
(7.33192 -0.0195611 0)
(7.331 -0.0228377 0)
(7.32982 -0.0263419 0)
(7.32835 -0.0300742 0)
(7.32657 -0.0340337 0)
(7.32447 -0.0382176 0)
(7.32203 -0.0426223 0)
(7.31923 -0.0472426 0)
(7.31607 -0.0520722 0)
(7.31253 -0.0571034 0)
(7.3086 -0.0623274 0)
(7.30426 -0.0677336 0)
(7.29952 -0.0733102 0)
(7.29436 -0.0790439 0)
(7.28878 -0.0849198 0)
(7.28277 -0.0909215 0)
(7.27633 -0.0970314 0)
(7.26945 -0.10323 0)
(7.26214 -0.109498 0)
(7.2544 -0.115812 0)
(7.24623 -0.12215 0)
(7.23763 -0.128488 0)
(7.22862 -0.134801 0)
(7.2192 -0.141062 0)
(7.20938 -0.14725 0)
(7.333 -0.000810562 0)
(7.33302 -0.00248481 0)
(7.33307 -0.00419124 0)
(7.33307 -0.00596642 0)
(7.33297 -0.00785516 0)
(7.33274 -0.00988893 0)
(7.33234 -0.0120923 0)
(7.33173 -0.014485 0)
(7.33088 -0.0170805 0)
(7.32976 -0.019887 0)
(7.32837 -0.022909 0)
(7.32666 -0.0261482 0)
(7.32463 -0.0296039 0)
(7.32227 -0.0332733 0)
(7.31954 -0.0371521 0)
(7.31645 -0.0412342 0)
(7.31298 -0.045512 0)
(7.30912 -0.0499768 0)
(7.30486 -0.0546182 0)
(7.30019 -0.0594245 0)
(7.29511 -0.0643828 0)
(7.28961 -0.0694786 0)
(7.28368 -0.0746963 0)
(7.27733 -0.0800192 0)
(7.27056 -0.0854292 0)
(7.26337 -0.0909076 0)
(7.25575 -0.0964342 0)
(7.24773 -0.101988 0)
(7.2393 -0.107549 0)
(7.23047 -0.113092 0)
(7.22126 -0.118597 0)
(7.21168 -0.124039 0)
(7.20174 -0.129398 0)
(7.33303 -0.000901606 0)
(7.33324 -0.00283336 0)
(7.33348 -0.00482914 0)
(7.33364 -0.00687526 0)
(7.33363 -0.00898802 0)
(7.33343 -0.011185 0)
(7.333 -0.0134852 0)
(7.33231 -0.0159066 0)
(7.33133 -0.0184621 0)
(7.33005 -0.0211609 0)
(7.32844 -0.0240091 0)
(7.32649 -0.0270097 0)
(7.32419 -0.0301633 0)
(7.32152 -0.0334688 0)
(7.31847 -0.0369231 0)
(7.31503 -0.0405219 0)
(7.31119 -0.0442596 0)
(7.30695 -0.0481294 0)
(7.3023 -0.0521232 0)
(7.29724 -0.0562318 0)
(7.29175 -0.0604449 0)
(7.28585 -0.0647509 0)
(7.27953 -0.0691372 0)
(7.2728 -0.0735902 0)
(7.26565 -0.0780952 0)
(7.2581 -0.0826368 0)
(7.25015 -0.0871986 0)
(7.24181 -0.0917636 0)
(7.23309 -0.0963141 0)
(7.224 -0.100832 0)
(7.21457 -0.105299 0)
(7.20479 -0.109696 0)
(7.1947 -0.114007 0)
(7.33298 -0.000841192 0)
(7.33298 -0.00239624 0)
(7.33308 -0.00381522 0)
(7.33313 -0.00522496 0)
(7.33304 -0.00669267 0)
(7.33277 -0.00824532 0)
(7.33226 -0.00991199 0)
(7.33149 -0.0117151 0)
(7.33041 -0.0136665 0)
(7.32903 -0.0157727 0)
(7.3273 -0.018037 0)
(7.32522 -0.0204603 0)
(7.32278 -0.023041 0)
(7.31996 -0.0257758 0)
(7.31675 -0.02866 0)
(7.31314 -0.0316875 0)
(7.30912 -0.0348506 0)
(7.30469 -0.0381411 0)
(7.29984 -0.0415493 0)
(7.29458 -0.0450646 0)
(7.28889 -0.0486753 0)
(7.28278 -0.0523693 0)
(7.27625 -0.0561332 0)
(7.26931 -0.0599532 0)
(7.26196 -0.063815 0)
(7.25421 -0.0677037 0)
(7.24607 -0.071604 0)
(7.23756 -0.0755001 0)
(7.22869 -0.079376 0)
(7.21947 -0.0832153 0)
(7.20992 -0.0870017 0)
(7.20006 -0.0907177 0)
(7.1899 -0.0943487 0)
(7.33313 -0.00132116 0)
(7.33372 -0.00391107 0)
(7.33425 -0.00615843 0)
(7.33452 -0.00817139 0)
(7.33453 -0.0100584 0)
(7.33428 -0.0118708 0)
(7.33371 -0.0136608 0)
(7.33282 -0.015471 0)
(7.33159 -0.0173274 0)
(7.33 -0.0192468 0)
(7.32803 -0.0212401 0)
(7.32568 -0.023313 0)
(7.32293 -0.0254677 0)
(7.31978 -0.0277043 0)
(7.31621 -0.0300207 0)
(7.31222 -0.0324136 0)
(7.3078 -0.0348791 0)
(7.30296 -0.0374121 0)
(7.29769 -0.0400068 0)
(7.29199 -0.0426568 0)
(7.28587 -0.0453549 0)
(7.27933 -0.0480934 0)
(7.27238 -0.0508638 0)
(7.26502 -0.0536571 0)
(7.25727 -0.0564636 0)
(7.24914 -0.0592733 0)
(7.24065 -0.0620757 0)
(7.2318 -0.0648599 0)
(7.22262 -0.0676148 0)
(7.21312 -0.0703291 0)
(7.20334 -0.0729915 0)
(7.19328 -0.0755902 0)
(7.18298 -0.0781155 0)
(7.33302 -0.000637066 0)
(7.33346 -0.00172227 0)
(7.33417 -0.00264952 0)
(7.33466 -0.00358712 0)
(7.33491 -0.00453902 0)
(7.33488 -0.00552181 0)
(7.33455 -0.00656882 0)
(7.3339 -0.00769344 0)
(7.33292 -0.00890126 0)
(7.33162 -0.0101981 0)
(7.32998 -0.0115876 0)
(7.32801 -0.0130712 0)
(7.3257 -0.0146483 0)
(7.32305 -0.0163169 0)
(7.32005 -0.0180739 0)
(7.3167 -0.019915 0)
(7.313 -0.0218348 0)
(7.30894 -0.0238271 0)
(7.30452 -0.0258848 0)
(7.29974 -0.0280005 0)
(7.2946 -0.0301659 0)
(7.28911 -0.0323727 0)
(7.28325 -0.0346123 0)
(7.27705 -0.0368756 0)
(7.27051 -0.0391538 0)
(7.26362 -0.0414378 0)
(7.25641 -0.0437185 0)
(7.24888 -0.0459868 0)
(7.24103 -0.0482334 0)
(7.23289 -0.0504493 0)
(7.22447 -0.0526249 0)
(7.21578 -0.0547511 0)
(7.20684 -0.056821 0)
(7.33445 -0.00392992 0)
(7.33953 -0.0077828 0)
(7.34564 -0.00982204 0)
(7.35236 -0.0114378 0)
(7.35956 -0.0127248 0)
(7.36701 -0.0137992 0)
(7.37454 -0.0148067 0)
(7.38207 -0.0158064 0)
(7.38952 -0.0168203 0)
(7.39682 -0.0178631 0)
(7.40389 -0.0189417 0)
(7.41065 -0.0200574 0)
(7.41706 -0.0212085 0)
(7.42304 -0.0223919 0)
(7.42855 -0.0236039 0)
(7.43351 -0.02484 0)
(7.4379 -0.0260958 0)
(7.44166 -0.0273664 0)
(7.44477 -0.0286471 0)
(7.44719 -0.0299328 0)
(7.4489 -0.0312183 0)
(7.44989 -0.0324983 0)
(7.45014 -0.0337672 0)
(7.44966 -0.0350193 0)
(7.44843 -0.0362487 0)
(7.44647 -0.0374494 0)
(7.44379 -0.0386154 0)
(7.44038 -0.0397409 0)
(7.43628 -0.0408202 0)
(7.4315 -0.0418481 0)
(7.42606 -0.0428215 0)
(7.41998 -0.0437345 0)
(7.41329 -0.0445845 0)
(7.32966 -0.00427455 0)
(7.32358 -0.00923741 0)
(7.3132 -0.0124712 0)
(7.30029 -0.0151475 0)
(7.28626 -0.0173755 0)
(7.2712 -0.0192623 0)
(7.2552 -0.0209384 0)
(7.23842 -0.0224674 0)
(7.22097 -0.0238773 0)
(7.2029 -0.0251847 0)