/*--------------------------------*- C++ -*----------------------------------*\
  =========                 |
  \\      /  F ield         | OpenFOAM: The Open Source CFD Toolbox
   \\    /   O peration     | Website:  https://openfoam.org
    \\  /    A nd           | Version:  10
     \\/     M anipulation  |
\*---------------------------------------------------------------------------*/
FoamFile
{
    format      ascii;
    class       volScalarField;
    location    "1600";
    object      k;
}
// * * * * * * * * * * * * * * * * * * * * * * * * * * * * * * * * * * * * * //

dimensions      [0 2 -2 0 0 0 0];

internalField   nonuniform List<scalar> 
6820
(
0.318932
0.614648
0.847396
0.983377
1.04836
1.06927
1.06475
1.0465
1.0217
0.994573
0.967461
0.941558
0.917415
0.895218
0.874954
0.856516
0.839754
0.824505
0.810613
0.79793
0.786323
0.775675
0.76588
0.756848
0.748497
0.740756
0.73356
0.726855
0.720572
0.714757
0.708814
0.705707
0.688547
0.838908
1.45739
1.5306
1.40688
1.25037
1.11087
0.996111
0.903238
0.827887
0.76631
0.715544
0.673419
0.638187
0.608546
0.583483
0.562195
0.54404
0.528503
0.515163
0.50368
0.493771
0.485204
0.477784
0.471351
0.465767
0.460921
0.456715
0.453073
0.449925
0.447245
0.44495
0.443291
0.441798
0.379893
0.662259
0.793338
0.827975
0.818186
0.790403
0.756381
0.72117
0.686891
0.654427
0.624111
0.596043
0.570195
0.546474
0.524757
0.504903
0.486769
0.470214
0.4551
0.441303
0.428702
0.417191
0.406671
0.397051
0.388251
0.380196
0.37282
0.366065
0.359875
0.354207
0.349014
0.344279
0.339943
0.246132
0.3393
0.411878
0.458885
0.485704
0.49888
0.503287
0.502158
0.497536
0.490704
0.482486
0.473435
0.46393
0.45424
0.44455
0.434992
0.425659
0.41661
0.407888
0.399515
0.391503
0.383859
0.376578
0.369655
0.363079
0.356841
0.350925
0.34532
0.340011
0.334984
0.330225
0.325723
0.321455
0.216724
0.25341
0.285799
0.312244
0.332455
0.347125
0.357301
0.364011
0.368096
0.370197
0.370789
0.37023
0.368792
0.366686
0.364075
0.361089
0.357829
0.354377
0.350798
0.347142
0.343452
0.33976
0.336091
0.332465
0.328898
0.325403
0.321987
0.318659
0.315422
0.312281
0.309237
0.306291
0.303443
0.2067
0.22375
0.239981
0.254416
0.266684
0.276738
0.28477
0.291069
0.295923
0.299585
0.302262
0.304127
0.305322
0.305962
0.306143
0.305944
0.305432
0.304663
0.303682
0.302531
0.301241
0.299841
0.298355
0.296804
0.295205
0.293571
0.291916
0.29025
0.288581
0.286918
0.285267
0.283633
0.282021
0.202776
0.211442
0.220463
0.228911
0.236465
0.243012
0.248579
0.253258
0.257158
0.260378
0.263012
0.265139
0.26683
0.268145
0.269136
0.269846
0.270314
0.270573
0.270652
0.270576
0.270366
0.270042
0.26962
0.269115
0.26854
0.267906
0.267222
0.266498
0.265741
0.264959
0.264156
0.263339
0.262513
0.201168
0.205683
0.210952
0.216189
0.221064
0.22544
0.229296
0.232659
0.235575
0.238089
0.240245
0.242083
0.243642
0.244952
0.246043
0.246939
0.247664
0.248237
0.248676
0.248995
0.249208
0.249329
0.249367
0.249333
0.249234
0.24908
0.248877
0.248631
0.248347
0.248032
0.24769
0.247325
0.246941
0.200484
0.202809
0.205913
0.20924
0.212483
0.215494
0.218222
0.220663
0.222834
0.224755
0.226448
0.227934
0.229235
0.230369
0.231352
0.232201
0.232928
0.233546
0.234066
0.234497
0.234849
0.23513
0.235347
0.235506
0.235613
0.235673
0.235693
0.235675
0.235624
0.235544
0.235438
0.23531
0.235162
0.200184
0.20134
0.203132
0.205234
0.207404
0.209501
0.211457
0.21325
0.214879
0.216349
0.217669
0.218852
0.219908
0.220849
0.221684
0.222423
0.223075
0.223648
0.224148
0.224583
0.224958
0.225279
0.225551
0.225778
0.225964
0.226113
0.226229
0.226315
0.226373
0.226407
0.226419
0.226411
0.226386
0.200051
0.200588
0.201579
0.202869
0.204298
0.205746
0.207146
0.208465
0.209689
0.210815
0.211845
0.212781
0.213631
0.214399
0.215093
0.215717
0.216278
0.216781
0.217229
0.217628
0.217983
0.218295
0.21857
0.21881
0.219018
0.219197
0.219349
0.219477
0.219583
0.219669
0.219737
0.219789
0.219826
0.199992
0.200208
0.200718
0.201471
0.202377
0.203351
0.204335
0.205293
0.206205
0.207061
0.207858
0.208595
0.209273
0.209895
0.210464
0.210983
0.211456
0.211885
0.212274
0.212626
0.212943
0.213229
0.213485
0.213714
0.213918
0.214099
0.214259
0.2144
0.214523
0.21463
0.214722
0.214801
0.214867
0.199966
0.200017
0.200248
0.200654
0.201196
0.201823
0.202489
0.203165
0.203829
0.204469
0.205076
0.205648
0.206182
0.206679
0.20714
0.207565
0.207957
0.208317
0.208647
0.208949
0.209225
0.209477
0.209706
0.209915
0.210103
0.210274
0.210428
0.210566
0.21069
0.210802
0.210901
0.21099
0.211068
0.199954
0.199924
0.199997
0.200187
0.200483
0.200858
0.201286
0.201741
0.202206
0.202669
0.203119
0.203552
0.203964
0.204353
0.204718
0.20506
0.205379
0.205675
0.20595
0.206204
0.206439
0.206655
0.206855
0.207038
0.207206
0.207359
0.2075
0.207629
0.207746
0.207853
0.207951
0.20804
0.208121
0.199949
0.199879
0.199866
0.199926
0.200061
0.200262
0.200513
0.200799
0.201107
0.201425
0.201744
0.20206
0.202367
0.202662
0.202944
0.203212
0.203464
0.203702
0.203925
0.204134
0.204329
0.20451
0.204678
0.204835
0.20498
0.205114
0.205239
0.205354
0.20546
0.205558
0.205649
0.205732
0.20581
0.199947
0.199858
0.199799
0.199785
0.19982
0.199903
0.200029
0.200189
0.200374
0.200577
0.200789
0.201006
0.201223
0.201437
0.201646
0.201847
0.202041
0.202225
0.202401
0.202566
0.202723
0.20287
0.203009
0.203138
0.20326
0.203373
0.20348
0.203579
0.203672
0.203758
0.203839
0.203914
0.203985
0.199947
0.199848
0.199766
0.19971
0.199685
0.199693
0.199734
0.199804
0.199898
0.20001
0.200137
0.200273
0.200415
0.20056
0.200704
0.200848
0.200988
0.201124
0.201256
0.201382
0.201503
0.201618
0.201727
0.201831
0.201929
0.202021
0.202109
0.202191
0.202269
0.202343
0.202412
0.202478
0.202539
0.199946
0.199843
0.19975
0.199672
0.199612
0.199575
0.19956
0.199568
0.199596
0.199642
0.199702
0.199774
0.199855
0.199941
0.200032
0.200125
0.200219
0.200312
0.200404
0.200494
0.200582
0.200667
0.200749
0.200827
0.200903
0.200975
0.201044
0.20111
0.201172
0.201232
0.201289
0.201344
0.201396
0.199946
0.199841
0.199743
0.199652
0.199574
0.199509
0.19946
0.199428
0.199411
0.199409
0.19942
0.199443
0.199475
0.199515
0.199562
0.199612
0.199666
0.199723
0.19978
0.199838
0.199896
0.199954
0.20001
0.200066
0.20012
0.200172
0.200223
0.200273
0.200321
0.200367
0.200412
0.200455
0.200497
0.199946
0.199841
0.199739
0.199643
0.199554
0.199474
0.199405
0.199347
0.199301
0.199266
0.199243
0.19923
0.199226
0.19923
0.199241
0.199257
0.199279
0.199304
0.199332
0.199363
0.199395
0.199428
0.199462
0.199497
0.199532
0.199567
0.199601
0.199635
0.199669
0.199703
0.199736
0.199768
0.1998
0.199946
0.19984
0.199737
0.199638
0.199544
0.199456
0.199375
0.199302
0.199237
0.199181
0.199135
0.199097
0.199067
0.199044
0.199029
0.199019
0.199015
0.199016
0.19902
0.199028
0.199039
0.199052
0.199067
0.199084
0.199102
0.199121
0.199141
0.199162
0.199183
0.199205
0.199227
0.19925
0.199272
0.199946
0.19984
0.199736
0.199636
0.199539
0.199446
0.199359
0.199277
0.199202
0.199133
0.199071
0.199017
0.19897
0.198929
0.198895
0.198866
0.198843
0.198825
0.198812
0.198802
0.198796
0.198793
0.198793
0.198796
0.1988
0.198807
0.198815
0.198825
0.198836
0.198848
0.198861
0.198875
0.19889
0.199946
0.19984
0.199736
0.199635
0.199536
0.199441
0.19935
0.199264
0.199182
0.199106
0.199036
0.198972
0.198914
0.198861
0.198815
0.198774
0.198739
0.198708
0.198682
0.198661
0.198643
0.198629
0.198618
0.19861
0.198605
0.198602
0.198602
0.198603
0.198607
0.198611
0.198618
0.198625
0.198634
0.199946
0.19984
0.199736
0.199634
0.199535
0.199439
0.199346
0.199257
0.199173
0.199093
0.199019
0.19895
0.198886
0.198828
0.198775
0.198728
0.198686
0.198648
0.198616
0.198587
0.198563
0.198543
0.198526
0.198512
0.198501
0.198493
0.198488
0.198484
0.198483
0.198483
0.198485
0.198489
0.198494
0.199946
0.19984
0.199735
0.199633
0.199534
0.199438
0.199345
0.199255
0.19917
0.19909
0.199015
0.198945
0.19888
0.198821
0.198767
0.198719
0.198676
0.198637
0.198603
0.198574
0.198549
0.198527
0.198509
0.198494
0.198482
0.198473
0.198466
0.198462
0.198459
0.198459
0.19846
0.198462
0.198466
0.199946
0.199839
0.199735
0.199633
0.199534
0.199438
0.199346
0.199258
0.199175
0.199097
0.199024
0.198958
0.198897
0.198842
0.198793
0.198749
0.19871
0.198676
0.198647
0.198622
0.198601
0.198584
0.19857
0.198559
0.198551
0.198545
0.198541
0.198539
0.19854
0.198541
0.198544
0.198549
0.198554
0.199946
0.19984
0.199735
0.199634
0.199536
0.199442
0.199352
0.199268
0.19919
0.199118
0.199053
0.198995
0.198944
0.198899
0.198861
0.198828
0.198801
0.198778
0.19876
0.198746
0.198735
0.198728
0.198724
0.198722
0.198722
0.198724
0.198728
0.198733
0.198739
0.198747
0.198755
0.198764
0.198774
0.199946
0.19984
0.199736
0.199636
0.199541
0.199451
0.199368
0.199292
0.199225
0.199167
0.199117
0.199075
0.199042
0.199016
0.198996
0.198983
0.198975
0.198971
0.198971
0.198975
0.198981
0.19899
0.199001
0.199013
0.199026
0.199041
0.199056
0.199072
0.199087
0.199104
0.19912
0.199136
0.199153
0.199946
0.199841
0.199739
0.199643
0.199554
0.199475
0.199405
0.199348
0.199302
0.199268
0.199245
0.199232
0.199229
0.199233
0.199243
0.19926
0.19928
0.199304
0.199331
0.19936
0.19939
0.199421
0.199452
0.199483
0.199514
0.199544
0.199574
0.199603
0.199631
0.199658
0.199684
0.19971
0.199734
0.199947
0.199843
0.199747
0.19966
0.199587
0.19953
0.199491
0.199468
0.199463
0.199472
0.199495
0.199529
0.199572
0.199622
0.199677
0.199736
0.199796
0.199858
0.199919
0.19998
0.20004
0.200098
0.200154
0.200208
0.200259
0.200308
0.200354
0.200398
0.20044
0.200478
0.200515
0.200549
0.200582
0.199948
0.19985
0.199767
0.199705
0.199669
0.199661
0.19968
0.199725
0.199791
0.199875
0.199971
0.200078
0.200189
0.200304
0.20042
0.200534
0.200645
0.200753
0.200857
0.200955
0.201049
0.201137
0.20122
0.201298
0.20137
0.201438
0.201501
0.201559
0.201612
0.201662
0.201708
0.20175
0.201788
0.199951
0.199869
0.199823
0.199821
0.199868
0.199962
0.200096
0.200262
0.200449
0.20065
0.200858
0.201067
0.201273
0.201472
0.201663
0.201844
0.202015
0.202175
0.202324
0.202462
0.202589
0.202707
0.202815
0.202914
0.203005
0.203088
0.203164
0.203232
0.203295
0.203351
0.203402
0.203447
0.203488
0.199959
0.199926
0.199977
0.200121
0.200351
0.200649
0.200993
0.201362
0.201739
0.202113
0.202473
0.202816
0.203137
0.203435
0.20371
0.203963
0.204193
0.204403
0.204593
0.204765
0.204921
0.205061
0.205187
0.205301
0.205402
0.205492
0.205573
0.205644
0.205707
0.205762
0.205811
0.205853
0.205889
0.199987
0.200103
0.200415
0.200903
0.201515
0.202193
0.20289
0.203572
0.204217
0.204816
0.205363
0.205858
0.206302
0.206698
0.207052
0.207365
0.207643
0.207888
0.208104
0.208295
0.208463
0.208609
0.208738
0.208849
0.208946
0.209029
0.2091
0.20916
0.20921
0.209252
0.209285
0.209311
0.20933
0.200091
0.200674
0.201674
0.202931
0.204281
0.205607
0.206838
0.207945
0.208922
0.209772
0.210508
0.211141
0.211683
0.212148
0.212546
0.212885
0.213174
0.213421
0.213629
0.213806
0.213954
0.214077
0.214179
0.214261
0.214327
0.214377
0.214415
0.21444
0.214455
0.21446
0.214457
0.214446
0.214429
0.200506
0.202612
0.20538
0.20823
0.210863
0.213156
0.215082
0.216669
0.217964
0.219015
0.219866
0.220552
0.221105
0.22155
0.221907
0.222191
0.222416
0.222592
0.222726
0.222824
0.222893
0.222937
0.222958
0.22296
0.222946
0.222917
0.222875
0.222821
0.222758
0.222686
0.222606
0.222518
0.222425
0.202133
0.209236
0.216717
0.222799
0.227378
0.23075
0.233208
0.234988
0.236273
0.237193
0.237847
0.238306
0.238619
0.238825
0.238946
0.239003
0.239008
0.238971
0.2389
0.238799
0.238674
0.238527
0.238362
0.238181
0.237986
0.237778
0.237559
0.237331
0.237094
0.23685
0.236599
0.236343
0.236082
0.208298
0.22678
0.244129
0.257372
0.266317
0.271773
0.274802
0.276302
0.276882
0.276921
0.276649
0.276201
0.275653
0.275051
0.274417
0.273765
0.273101
0.272428
0.271747
0.27106
0.270365
0.269665
0.268959
0.268248
0.267533
0.266815
0.266095
0.265374
0.264653
0.263933
0.263215
0.2625
0.261789
0.245775
0.310442
0.343758
0.358933
0.365582
0.368297
0.368993
0.368462
0.367138
0.3653
0.363136
0.360774
0.358305
0.355793
0.353284
0.350808
0.348387
0.346036
0.343763
0.341573
0.339469
0.337451
0.33552
0.333674
0.33191
0.330227
0.328621
0.32709
0.32563
0.32424
0.322916
0.321656
0.320455
0.214305
0.253643
0.294732
0.333812
0.370031
0.403432
0.434077
0.462012
0.487322
0.510132
0.530592
0.548864
0.565116
0.579516
0.592227
0.603409
0.613209
0.621766
0.629207
0.63565
0.641202
0.64596
0.650011
0.653433
0.656298
0.658668
0.660601
0.662146
0.66335
0.664251
0.664886
0.665285
0.665484
0.735573
0.85259
1.00785
1.1897
1.37881
1.5637
1.7358
1.88588
2.00671
2.09624
2.15691
2.19393
2.2133
2.2205
2.21984
2.21432
2.20582
2.19537
2.18359
2.17083
2.15735
2.14333
2.12898
2.11438
2.09961
2.0847
2.06957
2.05415
2.03827
2.0218
2.00454
1.98633
1.96698
1.94629
1.92406
1.90016
1.87446
1.84686
1.8173
1.78575
1.7522
1.71668
1.67925
1.64002
1.59915
1.55684
1.51331
1.46884
1.42372
1.37827
1.33286
1.28782
1.24352
1.20032
1.15854
1.11851
1.08051
1.04479
1.01154
0.980936
0.953092
0.928081
0.905936
0.886652
0.870191
0.856486
0.845444
0.836954
0.830888
0.827107
0.82546
0.825791
0.827936
0.831727
0.836991
0.843552
0.851231
0.859848
0.869224
0.879178
0.889534
0.900122
0.910775
0.921333
0.931649
0.941585
0.951014
0.959824
0.967911
0.975191
0.981584
0.987033
0.991478
0.994894
0.997228
0.998493
0.998668
0.997701
0.996147
0.99219
0.442145
0.45086
0.470836
0.504404
0.552315
0.61538
0.694005
0.786932
0.890984
1.00133
1.11202
1.21876
1.31814
1.40772
1.48593
1.55196
1.60583
1.64819
1.68034
1.7038
1.71999
1.73018
1.73548
1.73677
1.73471
1.72984
1.72254
1.71311
1.70175
1.6886
1.67375
1.65724
1.6391
1.61932
1.59788
1.57476
1.54995
1.52347
1.49531
1.46554
1.43422
1.40144
1.36731
1.33198
1.29564
1.25848
1.22074
1.18267
1.14455
1.10665
1.06926
1.03268
0.997171
0.963006
0.930425
0.899646
0.870854
0.844205
0.819816
0.797774
0.77813
0.760905
0.746093
0.733663
0.723561
0.715717
0.71005
0.706462
0.704852
0.70511
0.70712
0.710762
0.715915
0.722448
0.730232
0.739128
0.748995
0.759691
0.771068
0.782975
0.795262
0.807781
0.82038
0.832914
0.845245
0.85724
0.868776
0.879737
0.89002
0.899534
0.908193
0.915932
0.922685
0.928417
0.933068
0.93664
0.939106
0.940422
0.940992
0.940069
0.335355
0.330787
0.327013
0.324714
0.324873
0.328515
0.336767
0.350681
0.371354
0.399824
0.436587
0.481756
0.53497
0.595347
0.661434
0.731219
0.802207
0.871749
0.937614
0.99763
1.05066
1.0963
1.1346
1.16594
1.19082
1.20996
1.22395
1.23332
1.23858
1.24018
1.23849
1.23383
1.22646
1.21661
1.20444
1.19013
1.17381
1.15562
1.13569
1.11418
1.09122
1.06698
1.04162
1.01532
0.988296
0.96074
0.932877
0.904932
0.877138
0.849725
0.822919
0.796936
0.771981
0.748239
0.725875
0.705031
0.685826
0.668351
0.652674
0.638839
0.626868
0.616763
0.608509
0.602076
0.597423
0.594497
0.593242
0.593592
0.595478
0.598827
0.603565
0.609612
0.616885
0.625298
0.634759
0.64517
0.656429
0.668429
0.681054
0.694183
0.707694
0.72146
0.735349
0.74923
0.762976
0.776462
0.789567
0.802178
0.814187
0.8255
0.836025
0.845689
0.854416
0.862163
0.868861
0.874501
0.879048
0.882461
0.884998
0.886917
0.31678
0.311662
0.30666
0.301825
0.297287
0.293202
0.289785
0.287315
0.286172
0.286659
0.289173
0.294189
0.302226
0.313803
0.329423
0.349454
0.374083
0.403122
0.436169
0.472307
0.510482
0.549385
0.587922
0.624812
0.659339
0.690703
0.718369
0.742242
0.76228
0.778605
0.791376
0.800773
0.807011
0.810312
0.810895
0.808977
0.804766
0.798464
0.790266
0.780363
0.768948
0.75621
0.742343
0.72754
0.711996
0.695907
0.67947
0.662878
0.646321
0.629983
0.614037
0.598646
0.583959
0.570109
0.557213
0.54537
0.534661
0.525151
0.516887
0.509902
0.504214
0.49983
0.496747
0.494953
0.494428
0.495148
0.497084
0.500205
0.504476
0.509859
0.516316
0.523803
0.532276
0.541682
0.551967
0.56307
0.574921
0.587448
0.600563
0.614179
0.628197
0.642512
0.657012
0.671586
0.686116
0.700487
0.714584
0.728295
0.741513
0.754139
0.766076
0.777244
0.787559
0.796965
0.805388
0.812803
0.819169
0.824442
0.828745
0.833255
0.300242
0.296663
0.293111
0.289569
0.286046
0.282565
0.279163
0.275893
0.272826
0.270053
0.267658
0.265742
0.264437
0.263906
0.264351
0.265993
0.269087
0.273862
0.280541
0.289254
0.30007
0.312893
0.327585
0.343797
0.361211
0.379341
0.39769
0.415726
0.433067
0.449299
0.464082
0.477229
0.488601
0.49813
0.505804
0.511653
0.515739
0.518148
0.518986
0.518371
0.516433
0.513309
0.509143
0.504083
0.498277
0.491878
0.485034
0.477893
0.470596
0.463281
0.456077
0.449104
0.442473
0.436281
0.430619
0.425562
0.421175
0.417511
0.414615
0.412521
0.411252
0.410829
0.411262
0.412557
0.414716
0.417738
0.421619
0.426352
0.43193
0.438342
0.445577
0.45362
0.462454
0.472055
0.482399
0.493452
0.505178
0.517528
0.530448
0.543874
0.557731
0.571937
0.586402
0.601034
0.615728
0.630381
0.644884
0.659133
0.673019
0.686444
0.699307
0.711522
0.722997
0.733664
0.743445
0.752298
0.760177
0.767028
0.772853
0.779645
0.280168
0.278051
0.275908
0.27373
0.271509
0.269248
0.266961
0.26466
0.262362
0.260091
0.257872
0.25573
0.2537
0.251818
0.250136
0.248712
0.24762
0.246943
0.246775
0.24721
0.248346
0.250259
0.253022
0.256663
0.261199
0.266591
0.272779
0.279621
0.28699
0.294701
0.302556
0.31036
0.317932
0.325114
0.331771
0.337795
0.343109
0.347663
0.351435
0.354424
0.356649
0.358149
0.358975
0.359189
0.358865
0.358082
0.356922
0.355473
0.35382
0.352051
0.350247
0.34849
0.346854
0.34541
0.344221
0.343345
0.342833
0.34273
0.343074
0.3439
0.345236
0.347103
0.349524
0.352513
0.356085
0.360251
0.365021
0.370403
0.376407
0.383038
0.390301
0.398201
0.406738
0.415911
0.425715
0.436141
0.447177
0.458789
0.470953
0.48363
0.496766
0.510301
0.524167
0.538291
0.552586
0.56696
0.581318
0.595561
0.609587
0.623298
0.636593
0.649381
0.661567
0.673073
0.683815
0.693735
0.702784
0.710896
0.717963
0.726678
0.261538
0.260397
0.259213
0.257983
0.256698
0.25536
0.253971
0.252538
0.251067
0.249566
0.248043
0.246508
0.244974
0.243451
0.241955
0.2405
0.239108
0.237803
0.236614
0.235575
0.234725
0.234102
0.233749
0.233704
0.234005
0.234679
0.235749
0.23722
0.239087
0.241325
0.243899
0.246754
0.249825
0.253043
0.256335
0.259628
0.262855
0.265956
0.26888
0.27159
0.274058
0.276268
0.278215
0.279907
0.281357
0.282589
0.283633
0.284524
0.285302
0.286008
0.286687
0.287382
0.288136
0.288993
0.289992
0.291172
0.292567
0.294211
0.296133
0.29836
0.300915
0.30382
0.307094
0.310756
0.31482
0.319304
0.32422
0.329585
0.335412
0.341715
0.348509
0.355806
0.363617
0.371957
0.380835
0.390252
0.400216
0.410712
0.421732
0.433258
0.44526
0.457699
0.470527
0.483688
0.497116
0.510735
0.524464
0.538215
0.551895
0.565411
0.578665
0.591566
0.604017
0.615932
0.627226
0.637827
0.647679
0.656713
0.664714
0.674954
0.246471
0.245902
0.245292
0.244638
0.243937
0.243186
0.242386
0.241539
0.240649
0.239718
0.238751
0.237754
0.236731
0.235688
0.23463
0.233563
0.232492
0.231426
0.230374
0.229347
0.22836
0.227428
0.22657
0.225805
0.225152
0.224634
0.22427
0.224079
0.224074
0.224265
0.224658
0.225251
0.226037
0.227002
0.228128
0.229392
0.230767
0.232228
0.233747
0.235301
0.236866
0.238426
0.239965
0.241477
0.242955
0.244402
0.245824
0.247229
0.248631
0.250047
0.251495
0.252996
0.254572
0.256244
0.258034
0.259965
0.262057
0.264331
0.266805
0.269497
0.272423
0.275599
0.27904
0.282759
0.28677
0.291087
0.295724
0.300694
0.306014
0.311697
0.317762
0.324221
0.331099
0.338409
0.346171
0.354394
0.363094
0.372276
0.381941
0.39209
0.402711
0.413783
0.425277
0.437157
0.449376
0.461877
0.474595
0.487455
0.500378
0.51328
0.52607
0.53866
0.550956
0.562871
0.574317
0.585212
0.595497
0.605099
0.613718
0.625055
0.234967
0.234714
0.234428
0.234108
0.233748
0.233348
0.232907
0.232425
0.231904
0.231346
0.230754
0.230129
0.229477
0.228799
0.228099
0.227379
0.226641
0.225888
0.225124
0.224352
0.223578
0.222808
0.22205
0.221314
0.220608
0.219944
0.219334
0.218789
0.218323
0.217946
0.217667
0.217497
0.217441
0.217504
0.217686
0.217987
0.218403
0.218929
0.219558
0.220282
0.221093
0.221983
0.222946
0.223975
0.225068
0.226221
0.227436
0.228715
0.230061
0.23148
0.232981
0.234571
0.236261
0.238062
0.239984
0.242038
0.244235
0.246587
0.249103
0.251793
0.254667
0.257734
0.261003
0.264483
0.268183
0.272112
0.276281
0.280702
0.285388
0.29035
0.295606
0.301172
0.307069
0.313314
0.319928
0.326927
0.334331
0.342156
0.350413
0.359112
0.368256
0.377841
0.387855
0.398278
0.409082
0.420229
0.43167
0.44335
0.455202
0.467157
0.479134
0.491052
0.502827
0.51437
0.525598
0.536423
0.546785
0.556607
0.565529
0.577523
0.226336
0.226255
0.226148
0.226015
0.225851
0.225656
0.225428
0.225167
0.224874
0.22455
0.224197
0.223816
0.223411
0.222983
0.222535
0.222066
0.22158
0.221076
0.220557
0.220024
0.219479
0.218925
0.218367
0.217807
0.217251
0.216704
0.216173
0.215665
0.215187
0.214748
0.214356
0.214018
0.213742
0.213536
0.213405
0.213356
0.213391
0.213515
0.21373
0.214036
0.214434
0.214925
0.215508
0.216183
0.216949
0.217809
0.218762
0.21981
0.220956
0.222202
0.223553
0.225013
0.226586
0.228278
0.230093
0.232037
0.234115
0.236332
0.238691
0.241198
0.243857
0.246671
0.249645
0.252783
0.256091
0.259572
0.263235
0.267087
0.271136
0.275395
0.279876
0.284595
0.289569
0.294814
0.300353
0.306203
0.312386
0.318922
0.325829
0.333125
0.34082
0.348924
0.357438
0.366357
0.375667
0.385349
0.395371
0.405695
0.416271
0.427045
0.43795
0.448918
0.459874
0.470735
0.481426
0.491857
0.501971
0.511688
0.520612
0.532837
0.219851
0.219862
0.219853
0.219823
0.21977
0.219693
0.219591
0.219463
0.21931
0.219131
0.21893
0.218706
0.218463
0.218201
0.217921
0.217626
0.217316
0.216991
0.216653
0.216302
0.21594
0.215568
0.215188
0.214802
0.214413
0.214023
0.213637
0.213258
0.212891
0.212541
0.212214
0.211915
0.211652
0.21143
0.211256
0.211135
0.211074
0.211078
0.211153
0.211303
0.211531
0.211843
0.212242
0.21273
0.213312
0.213988
0.214764
0.21564
0.21662
0.217708
0.218905
0.220214
0.221638
0.22318
0.224841
0.226625
0.228532
0.230563
0.232721
0.235005
0.237415
0.239954
0.242619
0.245414
0.248338
0.251394
0.254585
0.257916
0.261391
0.265021
0.268814
0.272783
0.276942
0.281306
0.285894
0.290725
0.295821
0.301201
0.306888
0.312901
0.319258
0.325976
0.333065
0.340531
0.348374
0.356587
0.365156
0.374057
0.383258
0.392719
0.402392
0.41222
0.422141
0.432085
0.441985
0.451755
0.461343
0.470669
0.479327
0.491384
0.214931
0.214988
0.215031
0.215058
0.215067
0.215058
0.21503
0.214982
0.214914
0.214827
0.214721
0.214598
0.21446
0.214307
0.214142
0.213964
0.213774
0.213574
0.213365
0.213146
0.212918
0.212684
0.212443
0.212197
0.211948
0.211697
0.211447
0.211201
0.21096
0.210729
0.210512
0.210313
0.210136
0.209987
0.20987
0.209791
0.209757
0.209771
0.20984
0.20997
0.210165
0.210431
0.210772
0.211194
0.211701
0.212296
0.212983
0.213767
0.214651
0.215637
0.216728
0.217927
0.219234
0.220652
0.222182
0.223823
0.225575
0.227439
0.229411
0.231491
0.233677
0.235966
0.238357
0.240847
0.243435
0.246121
0.248904
0.251787
0.254772
0.257866
0.261074
0.264406
0.267873
0.271489
0.275269
0.27923
0.283392
0.287776
0.292402
0.297291
0.302465
0.307943
0.313741
0.319874
0.326349
0.333171
0.340338
0.347839
0.355658
0.363769
0.37214
0.380728
0.389486
0.398357
0.407285
0.416192
0.425037
0.433738
0.441901
0.453446
0.211148
0.211228
0.211297
0.211353
0.211397
0.211427
0.211442
0.211441
0.211425
0.211395
0.21135
0.211293
0.211223
0.211143
0.211054
0.210955
0.210849
0.210735
0.210616
0.21049
0.21036
0.210226
0.210089
0.209949
0.209809
0.209669
0.209531
0.209396
0.209268
0.209148
0.209039
0.208945
0.208868
0.208813
0.208784
0.208786
0.208823
0.2089
0.209022
0.209194
0.209422
0.209711
0.210066
0.210491
0.210992
0.211573
0.212238
0.212991
0.213836
0.214775
0.21581
0.216944
0.218179
0.219514
0.220949
0.222485
0.224118
0.225848
0.227672
0.229586
0.231586
0.233669
0.235831
0.238068
0.240377
0.242754
0.245199
0.24771
0.250289
0.252938
0.255662
0.258466
0.261361
0.264356
0.267464
0.2707
0.274082
0.277628
0.281358
0.285291
0.28945
0.293856
0.298526
0.30348
0.308731
0.31429
0.320165
0.326355
0.332856
0.339654
0.346732
0.35406
0.361606
0.369325
0.377176
0.385091
0.393039
0.400944
0.408434
0.419184
0.208206
0.208294
0.208373
0.208444
0.208505
0.208555
0.208594
0.208621
0.208637
0.208642
0.208636
0.208621
0.208597
0.208565
0.208526
0.208482
0.208432
0.208379
0.208323
0.208264
0.208203
0.208142
0.20808
0.20802
0.207962
0.207907
0.207856
0.207811
0.207774
0.207747
0.207731
0.20773
0.207746
0.207782
0.207842
0.20793
0.208049
0.208204
0.208399
0.208638
0.208927
0.20927
0.209672
0.210137
0.21067
0.211276
0.211957
0.212719
0.213563
0.214493
0.215511
0.216618
0.217815
0.219103
0.220479
0.221944
0.223494
0.225127
0.226838
0.228623
0.230478
0.232398
0.234377
0.23641
0.238492
0.240619
0.242788
0.244996
0.247243
0.24953
0.251858
0.254232
0.256658
0.259145
0.261703
0.264345
0.267085
0.269939
0.272925
0.276062
0.279371
0.28287
0.28658
0.290521
0.294709
0.29916
0.303885
0.308893
0.314187
0.319764
0.325616
0.331728
0.338079
0.344637
0.351375
0.358235
0.365199
0.372197
0.378891
0.388637
0.205893
0.20598
0.206062
0.206137
0.206204
0.206264
0.206316
0.206359
0.206393
0.20642
0.206438
0.20645
0.206455
0.206455
0.206451
0.206443
0.206433
0.206422
0.206409
0.206398
0.206387
0.206378
0.206372
0.20637
0.206373
0.206382
0.206398
0.206423
0.206458
0.206505
0.206565
0.206642
0.206737
0.206853
0.206992
0.207159
0.207357
0.207588
0.207857
0.208169
0.208526
0.208933
0.209395
0.209915
0.210497
0.211146
0.211864
0.212655
0.213523
0.214467
0.215492
0.216597
0.217782
0.219048
0.220392
0.221813
0.223308
0.224872
0.226501
0.228191
0.229934
0.231726
0.233561
0.235431
0.237332
0.239258
0.241204
0.243168
0.245146
0.247139
0.249146
0.251171
0.253218
0.255292
0.257403
0.259561
0.261778
0.264067
0.266444
0.268927
0.271532
0.27428
0.277188
0.280276
0.283562
0.287064
0.290795
0.294767
0.298991
0.30347
0.308205
0.313189
0.318413
0.323855
0.3295
0.335302
0.341254
0.347294
0.353124
0.361731
0.204062
0.204144
0.204222
0.204295
0.204363
0.204426
0.204483
0.204533
0.204578
0.204616
0.204649
0.204678
0.204702
0.204723
0.204742
0.204759
0.204776
0.204793
0.204812
0.204834
0.204858
0.204888
0.204922
0.204963
0.205011
0.205068
0.205135
0.205213
0.205304
0.205409
0.20553
0.205669
0.205828
0.20601
0.206217
0.206452
0.206718
0.207018
0.207355
0.207733
0.208156
0.208627
0.209149
0.209727
0.210363
0.211062
0.211825
0.212655
0.213556
0.214528
0.215572
0.216688
0.217878
0.219138
0.220468
0.221864
0.223322
0.224839
0.22641
0.228027
0.229686
0.231378
0.233099
0.23484
0.236596
0.23836
0.240127
0.241893
0.243654
0.245408
0.247156
0.248897
0.250637
0.252377
0.254127
0.255892
0.257685
0.259516
0.261399
0.263348
0.265379
0.26751
0.269758
0.27214
0.274674
0.277377
0.280265
0.283353
0.286652
0.290171
0.293916
0.297888
0.302085
0.306494
0.311109
0.315897
0.320856
0.325938
0.330886
0.33829
0.202607
0.202681
0.202752
0.20282
0.202885
0.202946
0.203003
0.203055
0.203104
0.203149
0.20319
0.203228
0.203264
0.203298
0.203332
0.203366
0.203401
0.203438
0.203479
0.203524
0.203574
0.20363
0.203694
0.203766
0.203847
0.20394
0.204045
0.204163
0.204296
0.204446
0.204614
0.204802
0.205013
0.205247
0.205509
0.2058
0.206123
0.206481
0.206877
0.207314
0.207795
0.208322
0.208901
0.209532
0.21022
0.210966
0.211774
0.212646
0.213582
0.214585
0.215653
0.216788
0.217989
0.219252
0.220577
0.221959
0.223395
0.224878
0.226405
0.227967
0.229559
0.231174
0.232803
0.234441
0.236079
0.237712
0.239333
0.240937
0.242522
0.244082
0.245619
0.247131
0.248621
0.250091
0.251547
0.252996
0.254446
0.255907
0.257389
0.258906
0.260472
0.262101
0.26381
0.265613
0.267528
0.269571
0.271757
0.274101
0.276616
0.279314
0.282204
0.28529
0.288577
0.292059
0.295736
0.299585
0.30361
0.307774
0.311861
0.318059
0.201453
0.201517
0.201579
0.20164
0.201698
0.201754
0.201808
0.20186
0.201909
0.201955
0.202
0.202043
0.202086
0.202128
0.202171
0.202216
0.202263
0.202314
0.202369
0.20243
0.202497
0.202572
0.202657
0.202751
0.202857
0.202975
0.203108
0.203256
0.203421
0.203604
0.203808
0.204034
0.204284
0.20456
0.204865
0.205201
0.20557
0.205975
0.206418
0.206903
0.207433
0.208009
0.208635
0.209313
0.210045
0.210835
0.211683
0.212591
0.213561
0.214592
0.215685
0.216839
0.218052
0.219321
0.220645
0.222018
0.223436
0.224894
0.226386
0.227904
0.229443
0.230993
0.232547
0.234099
0.235641
0.237165
0.238665
0.240137
0.241576
0.242978
0.244342
0.245666
0.246953
0.248203
0.249422
0.250614
0.251786
0.252948
0.254107
0.255276
0.256465
0.257689
0.25896
0.260294
0.261704
0.263206
0.264814
0.266542
0.268404
0.270412
0.272576
0.274905
0.277404
0.280074
0.28292
0.285925
0.289098
0.292412
0.29569
0.300729
0.200544
0.200596
0.200649
0.2007
0.200751
0.200801
0.20085
0.200898
0.200945
0.20099
0.201036
0.201081
0.201126
0.201173
0.201221
0.201272
0.201327
0.201386
0.20145
0.201522
0.201601
0.201689
0.201787
0.201897
0.20202
0.202156
0.202308
0.202477
0.202665
0.202873
0.203103
0.203357
0.203637
0.203944
0.204281
0.204651
0.205055
0.205497
0.205978
0.206501
0.207068
0.207683
0.208347
0.209062
0.209831
0.210655
0.211536
0.212475
0.213472
0.214527
0.215639
0.216808
0.21803
0.219304
0.220626
0.22199
0.223393
0.224829
0.22629
0.227769
0.22926
0.230755
0.232245
0.233723
0.235182
0.236614
0.238013
0.239373
0.24069
0.24196
0.24318
0.24435
0.245469
0.24654
0.247565
0.248548
0.249496
0.250415
0.251314
0.252201
0.253088
0.253985
0.254904
0.255858
0.256859
0.257922
0.259059
0.260283
0.261607
0.263043
0.264602
0.266293
0.268124
0.270098
0.272223
0.274488
0.276906
0.279453
0.281996
0.285957
0.199836
0.199878
0.19992
0.199962
0.200005
0.200048
0.200091
0.200134
0.200177
0.20022
0.200264
0.200308
0.200354
0.200402
0.200453
0.200507
0.200566
0.200629
0.2007
0.200777
0.200864
0.20096
0.201067
0.201187
0.20132
0.201468
0.201634
0.201817
0.20202
0.202245
0.202493
0.202766
0.203066
0.203395
0.203756
0.20415
0.20458
0.205047
0.205555
0.206106
0.206702
0.207344
0.208036
0.208779
0.209575
0.210424
0.211329
0.212289
0.213305
0.214375
0.2155
0.216677
0.217904
0.219177
0.220493
0.221846
0.223231
0.224643
0.226073
0.227515
0.228962
0.230405
0.231837
0.233249
0.234634
0.235985
0.237295
0.238559
0.239772
0.240929
0.242028
0.243068
0.244048
0.24497
0.245836
0.246648
0.247413
0.248136
0.248824
0.249484
0.250127
0.250761
0.251396
0.252045
0.252718
0.253426
0.254182
0.254997
0.255883
0.256851
0.257912
0.259074
0.260347