/*--------------------------------*- C++ -*----------------------------------*\
  =========                 |
  \\      /  F ield         | OpenFOAM: The Open Source CFD Toolbox
   \\    /   O peration     | Website:  https://openfoam.org
    \\  /    A nd           | Version:  10
     \\/     M anipulation  |
\*---------------------------------------------------------------------------*/
FoamFile
{
    format      ascii;
    class       volScalarField;
    location    "1600";
    object      nut;
}
// * * * * * * * * * * * * * * * * * * * * * * * * * * * * * * * * * * * * * //

dimensions      [0 2 -1 0 0 0 0];

internalField   nonuniform List<scalar> 
6820
(
5.21161e-05
7.23496e-05
8.49505e-05
9.1513e-05
9.44881e-05
9.54259e-05
9.5224e-05
9.44044e-05
9.32791e-05
9.20325e-05
9.07694e-05
8.9546e-05
8.83905e-05
8.73147e-05
8.63208e-05
8.54064e-05
8.45666e-05
8.37953e-05
8.30863e-05
8.24337e-05
8.1832e-05
8.1276e-05
8.07613e-05
8.02836e-05
7.98395e-05
7.94255e-05
7.90388e-05
7.86768e-05
7.83359e-05
7.80193e-05
7.76934e-05
7.7528e-05
7.65252e-05
0.00148779
0.000914492
0.000722322
0.000566085
0.000444964
0.000364554
0.000311028
0.000273876
0.000246823
0.000226541
0.000210742
0.000198385
0.000188225
0.000179921
0.000173043
0.000167267
0.000162375
0.000158201
0.000154617
0.000151526
0.000148846
0.000146516
0.000144481
0.0001427
0.000141136
0.000139761
0.000138546
0.00013747
0.000136508
0.000135663
0.000134893
0.00013424
0.00013329
0.00388235
0.00172611
0.00129522
0.00105715
0.000883653
0.000756982
0.000663656
0.000593356
0.000538662
0.00049523
0.000459793
0.000430501
0.000405787
0.000384675
0.000366437
0.000350536
0.00033655
0.000324169
0.000313133
0.000303254
0.00029436
0.000286329
0.000279044
0.000272418
0.000266374
0.000260841
0.000255769
0.000251106
0.000246801
0.000242835
0.000239118
0.000235702
0.000232342
0.00701486
0.0030933
0.00211865
0.00169399
0.00142842
0.00124177
0.00110356
0.000997707
0.000914036
0.000846515
0.000790841
0.000744244
0.000704627
0.000670539
0.000640856
0.000614798
0.000591689
0.000571092
0.000552562
0.000535856
0.000520648
0.00050682
0.000494101
0.000482469
0.000471666
0.000461751
0.000452447
0.000443903
0.000435787
0.000428344
0.000421166
0.000414582
0.000408131
0.00947863
0.00539463
0.00361892
0.00279676
0.00231358
0.00199145
0.00176049
0.00158676
0.00145105
0.00134224
0.00125305
0.0011787
0.00111573
0.00106176
0.00101494
0.000973976
0.000937767
0.00090559
0.000876723
0.000850758
0.000827177
0.000805769
0.00078612
0.000768154
0.00075151
0.000736208
0.000721907
0.000708705
0.000696257
0.000684725
0.00067376
0.000663544
0.000653767
0.0106282
0.0077634
0.00561755
0.00439956
0.00363522
0.00311496
0.00273997
0.0024579
0.00223822
0.00206258
0.00191909
0.00179982
0.00169916
0.00161315
0.00153881
0.00147397
0.00141689
0.00136632
0.00132114
0.00128061
0.00124396
0.00121076
0.00118045
0.00115275
0.00112725
0.00110379
0.00108202
0.00106189
0.00104307
0.00102557
0.00100911
0.000993708
0.000979147
0.0110845
0.00948062
0.00757881
0.00621462
0.00525
0.00454844
0.00402207
0.00361581
0.00329415
0.00303404
0.00281986
0.00264081
0.0024891
0.00235911
0.00224655
0.00214826
0.00206171
0.001985
0.00191652
0.0018551
0.00179967
0.00174945
0.0017037
0.00166192
0.00162355
0.00158827
0.00155564
0.00152545
0.00149737
0.00147123
0.00144678
0.00142391
0.00140241
0.0112619
0.0104723
0.00911496
0.00788286
0.00688557
0.00609514
0.00546645
0.00496065
0.00454794
0.00420654
0.00392047
0.003678
0.0034703
0.00329072
0.00313412
0.00299655
0.00287482
0.00276649
0.00266949
0.00258222
0.00250331
0.00243168
0.00236636
0.00230661
0.00225173
0.0022012
0.0021545
0.00211125
0.00207105
0.00203364
0.00199869
0.001966
0.00193534
0.0113319
0.0109613
0.0101483
0.00919368
0.00831236
0.00754597
0.00689415
0.00634289
0.00587564
0.00547744
0.00513576
0.00484048
0.00458348
0.00435829
0.00415971
0.00398356
0.00382644
0.00368558
0.00355871
0.00344393
0.00333968
0.00324463
0.00315767
0.00307785
0.00300436
0.00293651
0.0028737
0.0028154
0.00276116
0.0027106
0.00266334
0.00261911
0.00257762
0.0113604
0.011191
0.0107577
0.0101061
0.00941912
0.00876179
0.00816143
0.00762514
0.00715071
0.0067323
0.00636312
0.00603663
0.00574691
0.00548885
0.00525806
0.00505082
0.00486401
0.00469496
0.00454144
0.00440155
0.00427365
0.00415637
0.00404851
0.00394905
0.00385709
0.00377186
0.00369269
0.00361899
0.00355024
0.00348598
0.00342582
0.00336939
0.00331638
0.0113724
0.0112961
0.0110835
0.0106835
0.0102001
0.00969075
0.00919015
0.00871656
0.00827792
0.00787638
0.00751102
0.00717947
0.00687877
0.00660587
0.00635782
0.00613193
0.00592576
0.00573714
0.00556417
0.00540517
0.00525867
0.00512337
0.00499815
0.00488199
0.00477404
0.00467351
0.00457971
0.00449204
0.00440996
0.004333
0.00426071
0.00419274
0.00412873
0.0113776
0.0113432
0.0112429
0.0110225
0.0107093
0.010347
0.00996381
0.0095792
0.00920549
0.00884962
0.00851496
0.0082027
0.00791267
0.007644
0.0073954
0.00716543
0.00695261
0.00675551
0.00657276
0.0064031
0.00624537
0.00609853
0.00596162
0.00583378
0.00571422
0.00560226
0.00549727
0.00539866
0.00530594
0.00521865
0.00513636
0.00505871
0.00498537
0.01138
0.0113641
0.0113177
0.0112066
0.0110186
0.0107798
0.0105077
0.0102177
0.00992165
0.00962789
0.0093419
0.00906704
0.00880518
0.0085572
0.00832327
0.00810316
0.00789638
0.00770227
0.00752011
0.00734915
0.00718865
0.00703787
0.00689614
0.00676281
0.00663726
0.00651895
0.00640734
0.00630197
0.00620239
0.00610821
0.00601905
0.00593458
0.00585449
0.0113814
0.0113732
0.0113518
0.0112994
0.0111948
0.0110479
0.0108673
0.0106628
0.0104433
0.010216
0.00998659
0.00975918
0.00953663
0.00932089
0.00911314
0.00891408
0.00872401
0.00854299
0.00837088
0.00820745
0.00805235
0.00790524
0.0077657
0.00763336
0.00750781
0.00738866
0.00727555
0.00716812
0.00706604
0.00696899
0.00687668
0.00678883
0.00670518
0.0113823
0.0113772
0.011367
0.0113426
0.0112898
0.0112045
0.0110919
0.0109563
0.0108031
0.0106375
0.010464
0.0102863
0.0101076
0.00992993
0.00975513
0.00958437
0.0094185
0.00925805
0.00910337
0.0089546
0.0088118
0.00867491
0.00854383
0.00841839
0.00829842
0.00818371
0.00807405
0.00796922
0.007869
0.00777319
0.00768158
0.00759397
0.00751016
0.0113826
0.0113796
0.0113738
0.0113622
0.0113373
0.011291
0.0112247
0.0111398
0.0110388
0.0109247
0.0108005
0.0106691
0.0105329
0.0103941
0.0102543
0.010115
0.00997716
0.00984165
0.00970904
0.00957979
0.00945418
0.00933241
0.0092146
0.00910078
0.00899097
0.00888512
0.00878316
0.00868501
0.00859057
0.00849973
0.00841237
0.00832837
0.00824761
0.0113825
0.0113808
0.0113772
0.011371
0.0113592
0.0113362
0.0112992
0.0112488
0.0111857
0.0111111
0.0110267
0.0109344
0.0108358
0.0107325
0.0106261
0.0105178
0.0104085
0.0102992
0.0101906
0.0100832
0.00997743
0.00987368
0.00977219
0.00967315
0.00957669
0.0094829
0.00939182
0.00930348
0.00921788
0.009135
0.0090548
0.00897723
0.00890226
0.0113825
0.0113812
0.0113791
0.0113752
0.0113691
0.0113581
0.0113388
0.0113103
0.0112727
0.0112264
0.0111719
0.0111101
0.0110421
0.0109689
0.0108916
0.0108111
0.0107284
0.0106441
0.0105589
0.0104734
0.0103881
0.0103033
0.0102194
0.0101366
0.0100552
0.00997526
0.00989698
0.00982043
0.0097457
0.00967282
0.00960183
0.00953274
0.00946555
0.0113825
0.0113813
0.0113798
0.0113776
0.0113737
0.011368
0.0113586
0.0113433
0.0113219
0.0112944
0.0112608
0.0112213
0.0111765
0.011127
0.0110734
0.0110162
0.0109562
0.010894
0.01083
0.0107647
0.0106987
0.0106321
0.0105654
0.0104989
0.0104327
0.0103672
0.0103023
0.0102384
0.0101754
0.0101136
0.0100529
0.00999341
0.00993522
0.0113824
0.0113813
0.01138
0.0113785
0.0113762
0.0113727
0.0113676
0.0113599
0.0113483
0.0113326
0.0113127
0.0112886
0.0112604
0.0112283
0.0111927
0.0111538
0.0111121
0.011068
0.0110219
0.0109741
0.0109249
0.0108746
0.0108236
0.0107721
0.0107203
0.0106683
0.0106165
0.0105649
0.0105136
0.0104628
0.0104126
0.010363
0.0103142
0.0113824
0.0113813
0.0113801
0.0113788
0.0113773
0.0113751
0.0113721
0.0113676
0.0113616
0.0113531
0.0113418
0.0113275
0.0113104
0.0112904
0.0112677
0.0112423
0.0112145
0.0111844
0.0111524
0.0111186
0.0110833
0.0110467
0.011009
0.0109704
0.0109311
0.0108913
0.0108512
0.0108108
0.0107702
0.0107297
0.0106894
0.0106492
0.0106092
0.0113824
0.0113812
0.0113801
0.0113789
0.0113776
0.0113761
0.0113742
0.0113716
0.011368
0.0113633
0.0113572
0.0113489
0.0113389
0.0113268
0.0113127
0.0112967
0.0112787
0.0112588
0.0112373
0.0112141
0.0111895
0.0111636
0.0111365
0.0111083
0.0110793
0.0110495
0.0110191
0.0109882
0.0109568
0.0109252
0.0108933
0.0108613
0.0108293
0.0113824
0.0113812
0.0113801
0.0113789
0.0113778
0.0113765
0.0113751
0.0113734
0.0113712
0.0113684
0.0113646
0.01136
0.0113543
0.011347
0.0113384
0.0113284
0.0113169
0.0113039
0.0112896
0.0112739
0.0112569
0.0112387
0.0112193
0.011199
0.0111776
0.0111555
0.0111325
0.011109
0.0110848
0.0110601
0.011035
0.0110096
0.010984
0.0113824
0.0113812
0.0113801
0.0113789
0.0113778
0.0113766
0.0113754
0.0113741
0.0113726
0.0113707
0.0113683
0.0113653
0.0113615
0.0113571
0.0113517
0.0113452
0.0113376
0.0113288
0.0113189
0.0113078
0.0112957
0.0112824
0.0112681
0.0112528
0.0112366
0.0112195
0.0112017
0.0111831
0.0111638
0.011144
0.0111236
0.0111028
0.0110815
0.0113824
0.0113812
0.0113801
0.0113789
0.0113778
0.0113767
0.0113755
0.0113743
0.011373
0.0113715
0.0113696
0.0113674
0.0113644
0.0113609
0.011357
0.0113521
0.0113461
0.0113392
0.0113314
0.0113225
0.0113126
0.0113017
0.0112898
0.011277
0.0112633
0.0112488
0.0112334
0.0112173
0.0112006
0.0111832
0.0111652
0.0111467
0.0111278
0.0113824
0.0113812
0.0113801
0.0113789
0.0113778
0.0113766
0.0113755
0.0113742
0.0113729
0.0113712
0.0113693
0.0113668
0.0113637
0.0113601
0.011356
0.0113507
0.0113446
0.0113375
0.0113294
0.0113204
0.0113103
0.0112992
0.0112872
0.0112743
0.0112604
0.0112458
0.0112303
0.0112141
0.0111972
0.0111797
0.0111617
0.0111431
0.0111241
0.0113824
0.0113812
0.0113801
0.0113789
0.0113778
0.0113766
0.0113753
0.0113738
0.0113719
0.0113697
0.0113669
0.0113633
0.0113591
0.0113538
0.0113475
0.0113402
0.0113317
0.0113221
0.0113114
0.0112996
0.0112867
0.0112727
0.0112577
0.0112418
0.011225
0.0112073
0.0111889
0.0111698
0.0111501
0.0111298
0.011109
0.0110878
0.0110661
0.0113824
0.0113812
0.0113801
0.0113789
0.0113777
0.0113763
0.0113745
0.0113723
0.0113693
0.0113655
0.0113608
0.0113545
0.0113468
0.0113377
0.0113272
0.0113151
0.0113015
0.0112865
0.01127
0.0112523
0.0112333
0.0112132
0.011192
0.0111699
0.0111468
0.0111231
0.0110986
0.0110735
0.0110479
0.0110219
0.0109955
0.0109688
0.0109419
0.0113824
0.0113813
0.0113801
0.0113789
0.0113773
0.0113753
0.0113724
0.0113683
0.011363
0.0113555
0.0113458
0.0113338
0.0113196
0.0113031
0.0112845
0.0112637
0.0112409
0.0112163
0.01119
0.0111622
0.0111331
0.0111028
0.0110715
0.0110393
0.0110063
0.0109728
0.0109388
0.0109044
0.0108698
0.0108349
0.0108
0.0107651
0.0107302
0.0113825
0.0113813
0.0113801
0.0113784
0.011376
0.0113722
0.0113667
0.0113583
0.0113461
0.0113304
0.0113111
0.0112881
0.0112616
0.0112318
0.011199
0.0111635
0.0111257
0.0110857
0.011044
0.0110009
0.0109565
0.0109111
0.0108651
0.0108185
0.0107716
0.0107245
0.0106773
0.0106303
0.0105834
0.0105368
0.0104906
0.0104448
0.0103996
0.0113825
0.0113814
0.0113798
0.0113765
0.011372
0.011364
0.0113499
0.0113298
0.0113037
0.0112714
0.0112333
0.0111899
0.0111418
0.0110896
0.0110339
0.0109753
0.0109144
0.0108517
0.0107878
0.0107229
0.0106575
0.0105919
0.0105263
0.010461
0.0103962
0.010332
0.0102686
0.010206
0.0101444
0.0100837
0.0100242
0.0099658
0.00990853
0.0113826
0.011381
0.0113775
0.0113716
0.0113594
0.0113357
0.0113013
0.0112563
0.0112012
0.0111371
0.0110652
0.0109869
0.0109036
0.0108164
0.0107263
0.0106345
0.0105415
0.0104482
0.010355
0.0102625
0.0101709
0.0100807
0.00999191
0.00990485
0.0098196
0.00973626
0.0096549
0.00957556
0.00949825
0.00942298
0.00934974
0.00927851
0.00920925
0.0113825
0.0113788
0.0113715
0.0113527
0.0113123
0.0112512
0.0111713
0.0110751
0.0109656
0.0108458
0.0107187
0.0105868
0.0104521
0.0103163
0.0101807
0.0100464
0.0099142
0.00978462
0.0096581
0.00953494
0.00941533
0.00929938
0.00918713
0.0090786
0.00897374
0.0088725
0.00877479
0.00868053
0.0085896
0.00850191
0.00841733
0.00833576
0.00825708
0.0113813
0.0113725
0.0113446
0.0112755
0.0111624
0.0110161
0.0108447
0.0106562
0.0104574
0.0102539
0.0100496
0.00984759
0.00964987
0.00945783
0.00927233
0.00909388
0.00892271
0.00875888
0.00860229
0.00845278
0.00831011
0.00817402
0.00804421
0.00792039
0.00780227
0.00768953
0.00758191
0.00747912
0.00738091
0.00728702
0.00719721
0.00711125
0.00702895
0.0113782
0.0113392
0.0112229
0.0110038
0.0107266
0.0104167
0.0100938
0.00977089
0.00945631
0.00915473
0.00886847
0.00859844
0.00834473
0.0081069
0.00788423
0.00767584
0.0074808
0.00729817
0.00712704
0.00696653
0.00681584
0.00667422
0.00654096
0.00641543
0.00629704
0.00618527
0.00607962
0.00597964
0.00588492
0.0057951
0.00570983
0.0056288
0.00555172
0.0113586
0.011167
0.0107276
0.0101788
0.00961591
0.00907913
0.00858445
0.00813533
0.00773015
0.00736507
0.0070357
0.00673806
0.00646846
0.00622361
0.00600061
0.00579694
0.0056104
0.00543907
0.0052813
0.00513565
0.00500086
0.00487582
0.00475957
0.00465127
0.00455017
0.0044556
0.004367
0.00428383
0.00420563
0.004132
0.00406256
0.00399698
0.00393495
0.0112033
0.010286
0.00914597
0.00815386
0.00734259
0.00668178
0.00613782
0.00568278
0.00529723
0.00496618
0.00467942
0.0044291
0.00420901
0.00401425
0.00384087
0.00368569
0.0035461
0.00341996
0.00330548
0.00320118
0.0031058
0.00301828
0.00293771
0.00286334
0.00279448
0.00273057
0.00267111
0.00261566
0.00256384
0.00251531
0.00246977
0.00242698
0.00238668
0.00988212
0.00703463
0.00556295
0.00467247
0.00408052
0.00363708
0.00328471
0.0029951
0.00275426
0.00255229
0.00238143
0.00223562
0.00211013
0.00200124
0.00190603
0.00182219
0.00174786
0.00168155
0.00162207
0.00156843
0.00151982
0.00147559
0.00143516
0.00139808
0.00136394
0.00133242
0.00130323
0.00127611
0.00125086
0.00122729
0.00120523
0.00118456
0.00116514
0.00388335
0.00236715
0.00190983
0.00162451
0.00144089
0.0012837
0.00115041
0.00104218
0.000954484
0.000882868
0.000823743
0.000774363
0.00073264
0.000697014
0.000666295
0.000639586
0.000616175
0.000595518
0.000577169
0.000560784
0.000546068
0.000532799
0.00052077
0.000509836
0.000499846
0.000490702
0.000482292
0.00047455
0.000467386
0.000460761
0.000454595
0.000448871
0.000443515
0.000128162
0.00013943
0.0001503
0.000159954
0.000168408
0.000175845
0.000182401
0.000188179
0.000193265
0.000197736
0.000201662
0.000205105
0.00020812
0.000210754
0.000213053
0.000215055
0.000216795
0.000218302
0.000219604
0.000220726
0.000221688
0.000222509
0.000223205
0.000223792
0.000224282
0.000224687
0.000225016
0.000225279
0.000225484
0.000225637
0.000225745
0.000225812
0.000225846
8.50781e-05
0.000100982
0.000127111
0.000160997
0.000200637
0.000244601
0.000291553
0.000339479
0.000386284
0.000430609
0.000471617
0.000509446
0.000544584
0.000577661
0.000609331
0.000640055
0.000670211
0.000699891
0.00072926
0.000758288
0.000786996
0.00081536
0.000843455
0.00087129
0.000898941
0.000926497
0.000953983
0.000981437
0.00100886
0.0010363
0.00106375
0.00109118
0.00111888
0.00114667
0.0011745
0.00120237
0.00123029
0.00125829
0.00128636
0.00131463
0.00134318
0.00137204
0.00140129
0.00143099
0.00146124
0.00149219
0.00152397
0.00155675
0.0015907
0.00162598
0.00166283
0.00170144
0.00174205
0.00178488
0.00183017
0.00187815
0.00192904
0.00198306
0.0020404
0.00210122
0.00216565
0.0022338
0.00230571
0.00238138
0.00246079
0.00254384
0.00263038
0.00272023
0.00281317
0.00290891
0.00300719
0.00310763
0.00320997
0.00331371
0.00341866
0.00352423
0.00363028
0.00373627
0.00384184
0.00394673
0.00405051
0.00415286
0.00425334
0.00435186
0.00444799
0.00454152
0.00463217
0.00471982
0.00480414
0.00488524
0.00496252
0.00503669
0.00510635
0.00517357
0.00523443
0.00529612
0.00534588
0.00540613
0.00543981
0.0055093
0.000133309
0.000134646
0.00013762
0.000144814
0.000155355
0.000169175
0.00018696
0.000208727
0.000234922
0.000264618
0.000296126
0.000329963
0.000365345
0.000401728
0.000438682
0.000475668
0.000512309
0.000548081
0.000583063
0.000616884
0.00064968
0.000681525
0.000712692
0.000743197
0.000773199
0.00080284
0.00083213
0.00086115
0.00088996
0.000918635
0.000947236
0.000975778
0.00100436
0.00103301
0.00106177
0.00109066
0.0011197
0.00114894
0.00117843
0.00120823
0.00123842
0.00126909
0.00130032
0.00133223
0.00136492
0.00139852
0.00143319
0.00146909
0.0015064
0.0015453
0.001586
0.0016287
0.00167362
0.00172098
0.001771
0.00182387
0.00187979
0.00193895
0.00200148
0.00206752
0.00213713
0.00221037
0.00228724
0.00236767
0.00245159
0.00253884
0.00262925
0.00272258
0.00281861
0.002917
0.00301753
0.00311978
0.00322354
0.0033283
0.00343398
0.00353991
0.00364619
0.0037521
0.00385745
0.00396207
0.00406549
0.00416741
0.00426747
0.00436568
0.00446153
0.00455485
0.00464542
0.00473309
0.00481756
0.00489892
0.00497659
0.00505127
0.00512162
0.00518935
0.00525133
0.00531337
0.00536513
0.00542471
0.00546214
0.00553162
0.000228944
0.000225023
0.00022077
0.000217463
0.000215555
0.000215178
0.00021697
0.000221209
0.000228242
0.000238588
0.000252161
0.000269108
0.000289228
0.000312227
0.000337927
0.000366071
0.000396164
0.000427768
0.00046078
0.000493014
0.000525667
0.000558401
0.000591189
0.000623361
0.000655378
0.000687039
0.000718131
0.000748882
0.000779364
0.000809692
0.000839886
0.000870018
0.000900147
0.000930342
0.000960666
0.000991187
0.00102197
0.00105308
0.00108459
0.00111659
0.00114917
0.00118241
0.00121644
0.00125138
0.00128734
0.00132448
0.00136295
0.00140292
0.00144455
0.00148805
0.00153359
0.00158139
0.00163162
0.00168449
0.00174018
0.00179886
0.00186067
0.00192575
0.00199418
0.00206602
0.00214129
0.00221997
0.00230199
0.00238723
0.00247555
0.00256675
0.00266061
0.00275686
0.00285528
0.0029555
0.00305733
0.00316035
0.00326439
0.00336896
0.00347411
0.00357908
0.0036843
0.00378872
0.00389252
0.00399556
0.00409728
0.00419745
0.00429582
0.00439254
0.00448691
0.00457892
0.00466834
0.00475503
0.00483872
0.00491945
0.0049967
0.00507115
0.00514147
0.00520901
0.00527157
0.00533334
0.00538674
0.00544495
0.00548592
0.00555472
0.000401259
0.000393445
0.000385428
0.000377758
0.000370788
0.000364397
0.000358838
0.000354163
0.00035071
0.000348313
0.000347234
0.000347539
0.000349823
0.000354172
0.000361341
0.000371266
0.000384751
0.000401159
0.000421382
0.000443981
0.000469229
0.000495434
0.000523903
0.000551854
0.000582399
0.000611776
0.000640861
0.000670963
0.000701464
0.000732256
0.000763088
0.000794147
0.00082541
0.000856945
0.00088882
0.000921107
0.000953879
0.000987217
0.0010212
0.00105593
0.00109149
0.001128
0.00116557
0.00120432
0.0012444
0.00128594
0.0013291
0.00137405
0.00142095
0.00146997
0.00152129
0.00157507
0.00163148
0.00169067
0.00175278
0.00181791
0.00188617
0.0019576
0.00203224
0.00211005
0.00219099
0.00227496
0.00236181
0.00245138
0.00254347
0.00263781
0.00273419
0.00283228
0.00293189
0.00303263
0.00313436
0.00323663
0.00333939
0.00344215
0.00354515
0.00364747
0.00375001
0.00385114
0.00395179
0.00405163
0.00414995
0.00424673
0.00434188
0.00443569
0.00452711
0.00461643
0.00470341
0.00478791
0.00486967
0.0049487
0.00502455
0.00509787
0.00516725
0.00523376
0.00529624
0.00535699
0.0054116
0.00546761
0.00551175
0.00557918
0.00064308
0.000631245
0.000619558
0.000608263
0.000597714
0.000587762
0.00057858
0.000570003
0.000562217
0.000554909
0.000548256
0.0005419
0.000536242
0.000531023
0.000526908
0.000523683
0.000522274
0.000522418
0.000525206
0.000530284
0.00053865
0.000549473
0.000563813
0.00058044
0.000600367
0.000622476
0.000647112
0.000671977
0.000699729
0.000727378
0.000755296
0.000784715
0.000814851
0.000845967
0.000878031
0.000911045
0.000945033
0.000980038
0.00101612
0.00105335
0.00109181
0.00113161
0.00117284
0.00121562
0.00126008
0.00130636
0.00135458
0.00140489
0.00145743
0.00151235
0.00156977
0.00162983
0.00169264
0.00175829
0.00182685
0.00189838
0.00197288
0.00205033
0.00213068
0.00221384
0.00229967
0.00238799
0.00247862
0.00257132
0.00266584
0.00276189
0.00285925
0.00295756
0.00305666
0.00315611
0.00325591
0.00335555
0.00345508
0.00355411
0.00365298
0.00375069
0.00384868
0.00394434
0.00404006
0.0041348
0.0042277
0.00431935
0.00440948
0.00449833
0.00458527
0.00467033
0.00475336
0.00483421
0.00491268
0.00498874
0.00506201
0.00513285
0.00520048
0.00526517
0.00532657
0.00538545
0.00544067
0.00549348
0.00554024
0.0056057
0.000963176
0.000945711
0.000928773
0.00091246
0.000897101
0.000882588
0.000869065
0.000856338
0.00084453
0.000833311
0.000822807
0.000812678
0.000803186
0.000794036
0.000785621
0.000777673
0.000770687
0.000764441
0.000759514
0.000755604
0.00075346
0.000752798
0.000754413
0.000758007
0.000764346
0.000773065
0.000784979
0.000799208
0.000816558
0.000836449
0.000859162
0.000883364
0.000909665
0.00093797
0.000967924
0.000999517
0.00103275
0.00106763
0.00110419
0.00114248
0.00118255
0.00122447
0.00126833
0.0013142
0.00136219
0.00141239
0.0014649
0.00151983
0.00157728
0.00163733
0.00170007
0.00176555
0.00183384
0.00190495
0.00197888
0.00205561
0.00213506
0.00221714
0.00230172
0.00238863
0.00247767
0.0025686
0.00266118
0.00275512
0.00285015
0.00294596
0.00304229
0.0031388
0.00323535
0.00333146
0.00342727
0.00352212
0.00361636
0.0037096
0.00380229
0.00389335
0.00398477
0.00407337
0.00416137
0.00424859
0.00433433
0.00441885
0.00450201
0.00458404
0.00466458
0.00474358
0.00482092
0.00489649
0.00497013
0.00504172
0.00511105
0.00517814
0.00524279
0.0053045
0.00536387
0.0054199
0.00547436
0.00552403
0.0055719
0.00563522
0.00137887
0.00135329
0.0013287
0.00130512
0.00128281
0.00126171
0.0012419
0.00122322
0.00120573
0.00118915
0.00117354
0.00115866
0.00114465
0.00113134
0.00111895
0.00110732
0.00109672
0.00108699
0.00107845
0.00107092
0.00106476
0.00105984
0.00105653
0.00105479
0.00105496
0.001057
0.00106134
0.00106808
0.00107703
0.00108841
0.0011027
0.00111964
0.00113925
0.00116163
0.0011865
0.00121384
0.00124361
0.00127581
0.00131041
0.00134744
0.00138691
0.00142884
0.00147328
0.00152026
0.00156983
0.00162206
0.00167698
0.00173464
0.00179509
0.00185836
0.00192445
0.00199338
0.00206512
0.00213962
0.0022168
0.00229657
0.00237878
0.00246327
0.00254983
0.00263824
0.00272824
0.00281953
0.00291183
0.00300482
0.00309819
0.00319161
0.00328481
0.00337746
0.00346942
0.00356016
0.00365
0.00373802
0.00382509
0.00391069
0.00399607
0.00407819
0.00416005
0.0042399
0.00431855
0.00439626
0.00447274
0.00454811
0.00462233
0.0046956
0.00476778
0.00483881
0.00490864
0.00497715
0.00504425
0.00510976
0.00517363
0.00523554
0.00529581
0.00535325
0.00540944
0.00546152
0.00551432
0.0055596
0.00560843
0.00566767
0.00190181
0.0018655
0.0018307
0.0017974
0.00176577
0.00173578
0.00170745
0.00168067
0.00165541
0.00163147
0.00160885
0.00158737
0.00156712
0.00154799
0.00153012
0.00151344
0.00149813
0.00148407
0.00147151
0.00146029
0.0014507
0.00144255
0.00143622
0.00143165
0.00142854
0.00142746
0.00142837
0.00143144
0.0014367
0.00144418
0.0014541
0.00146656
0.00148161
0.00149938
0.0015199
0.00154319
0.00156927
0.00159817
0.00162991
0.00166451
0.001702
0.00174239
0.00178572
0.001832
0.00188125
0.0019335
0.00198874
0.002047
0.00210824
0.00217246
0.00223961
0.00230963
0.00238244
0.00245793
0.00253595
0.00261635
0.00269892
0.00278343
0.00286964
0.00295724
0.00304594
0.00313541
0.00322531
0.0033153
0.00340503
0.00349418
0.00358245
0.0036695
0.00375513
0.00383885
0.00392112
0.00400063
0.00408012
0.0041567
0.0042315
0.00430382
0.00437493
0.00444421
0.00451197
0.00457858
0.00464403
0.00470847
0.00477195
0.00483467
0.00489666
0.0049579
0.0050184
0.00507806
0.0051369
0.00519464
0.00525142
0.00530663
0.00536104
0.00541278
0.00546453
0.00551142
0.00556154
0.00560108
0.00565046
0.0057038
0.00253224
0.00248311
0.00243602
0.00239097
0.00234802
0.00230715
0.00226836
0.00223152
0.0021966
0.00216344
0.00213199
0.00210212
0.00207386
0.00204717
0.00202213
0.0019987
0.00197703
0.00195705
0.00193895
0.00192264
0.00190832
0.00189587
0.00188555
0.00187716
0.00187138
0.00186701
0.00186488
0.00186526
0.00186788
0.00187288
0.00188027
0.00189017
0.00190264
0.00191777
0.00193563
0.00195629
0.0019798
0.00200623
0.00203562
0.00206801
0.00210346
0.00214199
0.00218363
0.00222841
0.00227633
0.00232741
0.00238163
0.00243898
0.0024994
0.00256285
0.00262924
0.00269847
0.00277041
0.00284491
0.00292179
0.00300081
0.00308175
0.00316433
0.00324824
0.00333316
0.00341876
0.00350464
0.00359048
0.00367588
0.00376048
0.00384395
0.00392595
0.00400614
0.00408421
0.00415978
0.00423345
0.00430559
0.00437428
0.00444059
0.00450471
0.0045662
0.00462578
0.00468339
0.00473923
0.00479367
0.00484688
0.0048991
0.00495047
0.00500122
0.00505151
0.00510139
0.00515097
0.00520017
0.00524911
0.00529746
0.00534557
0.00539252
0.00543958
0.00548416
0.00553012
0.00557049
0.00561682
0.00564928
0.0056985
0.0057442
0.00325834
0.00319539
0.00313497
0.00307703
0.0030216
0.00296864
0.00291814
0.00286999
0.00282412
0.00278041
0.0027388
0.0026992
0.00266159
0.00262596
0.00259236
0.00256079
0.00253134
0.002504
0.00247891
0.00245602
0.00243551
0.00241728
0.00240157
0.00238815
0.00237747
0.00236913
0.00236371
0.00236002
0.00235915
0.00236116
0.00236566
0.00237292
0.00238285
0.00239556
0.00241108
0.00242947
0.00245077
0.00247505
0.00250234
0.00253268
0.00256613
0.0026027
0.00264244
0.00268534
0.00273143
0.00278069
0.0028331
0.00288863
0.0029472
0.00300875
0.00307317
0.00314032
0.00321005
0.00328217
0.00335646
0.00343267
0.00351053
0.00358973
0.00366994
0.00375081
0.00383196
0.003913
0.00399358
0.00407325
0.00415169
0.00422852
0.00430336
0.00437585
0.00444549
0.00451305
0.00457854
0.00464025
0.00469899
0.00475479
0.00480792
0.00485818
0.00490601
0.00495157
0.00499508
0.00503691
0.00507733
0.00511665
0.00515514
0.00519305
0.00523065
0.00526807
0.00530552
0.00534298
0.00538067
0.00541825
0.00545627
0.00549356
0.00553186
0.00556788
0.00560669
0.00563922
0.00568056
0.0057047
0.0057527
0.00578918
0.00405848
0.00398207
0.00390851
0.00383777
0.00376982
0.00370464
0.00364218
0.00358238
0.00352515
0.00347041
0.00341809
0.00336811
0.00332048
0.00327517
0.00323222
0.00319165
0.00315351
0.00311785
0.00308474
0.0030542
0.00302636
0.00300117
0.00297882
0.00295915
0.00294247
0.00292846
0.00291767
0.00290935
0.00290463
0.00290181
0.00290209
0.00290578
0.00291213
0.00292158
0.00293401
0.00294944
0.00296793
0.0029895
0.00301416
0.00304194
0.00307289
0.00310699
0.00314427
0.00318473
0.00322835
0.00327511
0.00332497
0.00337788
0.00343375
0.00349249
0.00355396
0.00361802
0.00368449
0.00375314
0.00382375
0.00389603
0.00396971
0.00404442
0.00411985
0.00419561
0.0042713
0.00434653
0.00442096
0.00449406
0.00456559
0.0046351
0.00470215
0.00476624
0.00482807
0.0048874
0.00494283
0.00499494
0.00504368
0.00508909
0.00513137
0.00517052
0.00520682
0.00524052
0.00527187
0.00530123
0.00532894
0.00535535
0.00538081
0.00540564
0.00543017
0.00545462
0.0054793
0.00550423
0.00552979
0.00555561
0.00558244
0.00560894
0.00563728
0.00566352
0.00569395
0.00571745
0.00575257
0.00576734
0.00581274
0.00583869
0.00490463
0.00481648
0.00473131
0.00464908
0.00456977
0.00449335
0.00441979
0.00434903
0.00428102
0.00421569
0.00415299
0.00409288
0.00403533
0.00398036
0.00392798
0.00387823
0.00383116
0.00378681
0.00374527
0.00370656
0.00367079
0.00363795
0.00360819
0.00358142
0.00355785
0.00353729
0.00352011
0.00350581
0.00349516
0.00348707
0.00348308
0.00348134
0.00348257
0.00348782
0.00349597
0.00350731
0.00352195
0.00353977
0.00356079
0.00358506
0.00361256
0.00364327
0.00367718
0.00371427
0.00375451
0.00379786
0.00384425
0.00389361
0.00394583
0.00400079
0.00405835
0.00411833
0.00418052
0.0042447
0.00431061
0.00437795
0.00444643
0.00451567
0.00458536
0.00465508
0.0047244
0.004793
0.00486049
0.00492629
0.00499029
0.00505185
0.00511043
0.00516684
0.00522026
0.00526989
0.00531603
0.00535857
0.00539747
0.00543275
0.00546456
0.005493
0.00551827
0.00554064
0.00556039
0.00557786
0.00559342
0.00560744
0.00562031
0.00563239
0.00564408
0.00565566
0.00566752
0.00567974
0.00569282
0.00570639
0.00572142
0.0057364
0.00575394
0.00576952
0.00579056
0.00580409
0.00583182
0.00583649
0.00587758
0.00589218
0.00576601
0.005669
0.00557485
0.00548355
0.0053951
0.00530947
0.00522666
0.00514663
0.00506935
0.00499479
0.00492293
0.00485373
0.0047872
0.00472335
0.00466222
0.00460384
0.00454827
0.00449557
0.0044458
0.00439901
0.00435531
0.00431471
0.00427733
0.00424314
0.0042123
0.00418469
0.00416056
0.00413962
0.00412232
0.00410812
0.00409767
0.00409038
0.00408647
0.00408619
0.00408852
0.00409475
0.00410454
0.00411743
0.00413369
0.00415337
0.00417634
0.00420254
0.00423198
0.00426463
0.00430042
0.00433928
0.00438114
0.00442588
0.00447338
0.0045235
0.00457608
0.0046309
0.00468777
0.00474642
0.00480658
0.00486796
0.00493024
0.00499303
0.00505602
0.00511875
0.00518081
0.00524201
0.00530176
0.00535949
0.00541536
0.00546821
0.00551913
0.00556644
0.00561047
0.00565094
0.00568772
0.00572073
0.00574994
0.00577536
0.00579712
0.00581532
0.00583016
0.00584189
0.00585079
0.00585718
0.00586143
0.00586391
0.00586502
0.00586515
0.00586472
0.00586405
0.0058636
0.00586348
0.00586431
0.0058657
0.00586884
0.00587209
0.00587845
0.0058829
0.00589389
0.00589686
0.00591625
0.00591044
0.00594551
0.00594822
0.0066124
0.00651018
0.00641048
0.00631333
0.00621874
0.00612673
0.00603731
0.00595047
0.00586623
0.00578457
0.00570549
0.00562901
0.00555514
0.00548392
0.00541538
0.00534959
0.00528661
0.00522649
0.00516932
0.00511517
0.00506412
0.00501622
0.00497157
0.0049302
0.0048922
0.00485754
0.00482639
0.0047986
0.00477442
0.00475362
0.00473644
0.00472276
0.0047125
0.00470598
0.0047025
0.00470304
0.00470678
0.00471347
0.0047241
0.00473831
0.00475568
0.00477626
0.00480017
0.00482731
0.00485755
0.00489085
0.00492707
0.00496608
0.00500775
0.00505192
0.00509841
0.00514699
0.00519744
0.00524946
0.00530281
0.00535718
0.00541223
0.00546755
0.00552289
0.00557764
0.00563156
0.00568457
0.00573568
0.00578459
0.00583199
0.00587608
0.00591741
0.00595549
0.00599015
0.00602119
0.00604848
0.00607194
0.00609155
0.00610732
0.00611935
0.00612776
0.00613273
0.00613449
0.00613331
0.00612948
0.00612335
0.00611529
0.00610568
0.0060949
0.00608339
0.00607146
0.00605962
0.00604799
0.00603728
0.00602709
0.00601877