/*--------------------------------*- C++ -*----------------------------------*\
  =========                 |
  \\      /  F ield         | OpenFOAM: The Open Source CFD Toolbox
   \\    /   O peration     | Website:  https://openfoam.org
    \\  /    A nd           | Version:  10
     \\/     M anipulation  |
\*---------------------------------------------------------------------------*/
FoamFile
{
    format      ascii;
    class       volScalarField;
    location    "1600";
    object      p;
}
// * * * * * * * * * * * * * * * * * * * * * * * * * * * * * * * * * * * * * //

dimensions      [0 2 -2 0 0 0 0];

internalField   nonuniform List<scalar> 
6820
(
6.39884
-4.49097
-8.01019
-8.74377
-9.14508
-9.48363
-9.67611
-9.77258
-9.83801
-9.89248
-9.93671
-9.97245
-10.003
-10.0304
-10.0553
-10.0783
-10.0996
-10.1198
-10.1389
-10.1571
-10.1746
-10.1915
-10.2078
-10.2235
-10.2386
-10.2531
-10.2669
-10.2797
-10.2913
-10.3014
-10.308
-10.3122
-10.2985
-15.4891
-11.8112
-11.0663
-10.2971
-9.93228
-9.86589
-9.86415
-9.86799
-9.88608
-9.91527
-9.94603
-9.97469
-10.0015
-10.027
-10.0509
-10.0734
-10.0946
-10.1147
-10.1339
-10.1523
-10.17
-10.187
-10.2034
-10.2193
-10.2347
-10.2494
-10.2635
-10.2768
-10.2892
-10.3004
-10.3095
-10.3183
-10.3225
-13.3405
-9.76642
-9.51112
-9.51303
-9.50679
-9.60522
-9.7059
-9.77365
-9.82815
-9.87802
-9.92132
-9.95792
-9.98982
-10.0185
-10.0445
-10.0684
-10.0906
-10.1114
-10.1311
-10.1498
-10.1678
-10.185
-10.2016
-10.2177
-10.2332
-10.2482
-10.2626
-10.2763
-10.2892
-10.3015
-10.3126
-10.3246
-10.3356
-10.8514
-9.3923
-9.54299
-9.65911
-9.64375
-9.69907
-9.76965
-9.81834
-9.85837
-9.89731
-9.9331
-9.96479
-9.9934
-10.0198
-10.0443
-10.0672
-10.0887
-10.109
-10.1284
-10.147
-10.1649
-10.1821
-10.1988
-10.215
-10.2306
-10.2458
-10.2605
-10.2747
-10.2885
-10.3019
-10.315
-10.3293
-10.3444
-10.392
-9.69463
-9.7351
-9.75132
-9.70708
-9.73474
-9.78707
-9.82815
-9.86431
-9.90043
-9.93445
-9.9652
-9.99327
-10.0193
-10.0436
-10.0663
-10.0876
-10.1079
-10.1273
-10.1458
-10.1637
-10.1809
-10.1976
-10.2138
-10.2296
-10.245
-10.26
-10.2746
-10.2891
-10.3035
-10.3181
-10.3341
-10.3516
-10.3267
-9.85149
-9.80538
-9.78341
-9.74462
-9.76314
-9.80485
-9.84135
-9.87485
-9.90834
-9.94018
-9.9694
-9.99635
-10.0215
-10.045
-10.0672
-10.0881
-10.1081
-10.1272
-10.1455
-10.1632
-10.1804
-10.197
-10.2133
-10.2291
-10.2446
-10.2599
-10.275
-10.29
-10.3052
-10.321
-10.3382
-10.3572
-10.2113
-9.88529
-9.83317
-9.81042
-9.78151
-9.79414
-9.82658
-9.85789
-9.88796
-9.9183
-9.94761
-9.975
-10.0006
-10.0247
-10.0474
-10.069
-10.0894
-10.109
-10.1278
-10.1459
-10.1635
-10.1805
-10.1971
-10.2133
-10.2292
-10.2448
-10.2603
-10.2757
-10.2913
-10.3072
-10.3238
-10.3417
-10.3614
-10.1052
-9.90016
-9.85769
-9.83749
-9.81518
-9.82347
-9.84845
-9.87493
-9.90163
-9.929
-9.95589
-9.98147
-10.0057
-10.0287
-10.0506
-10.0715
-10.0914
-10.1106
-10.129
-10.1469
-10.1642
-10.1811
-10.1976
-10.2138
-10.2297
-10.2454
-10.2611
-10.2768
-10.2927
-10.3091
-10.3262
-10.3446
-10.3645
-10.0363
-9.91339
-9.87785
-9.85983
-9.84301
-9.84898
-9.8687
-9.8913
-9.91509
-9.93987
-9.96456
-9.98844
-10.0114
-10.0333
-10.0543
-10.0745
-10.0939
-10.1126
-10.1307
-10.1483
-10.1654
-10.1821
-10.1985
-10.2146
-10.2305
-10.2463
-10.2621
-10.278
-10.2942
-10.3108
-10.3283
-10.3467
-10.3666
-9.99392
-9.92203
-9.8926
-9.87746
-9.86561
-9.87067
-9.88684
-9.90648
-9.92786
-9.95041
-9.97317
-9.99549
-10.0172
-10.0381
-10.0583
-10.0778
-10.0967
-10.1149
-10.1327
-10.1499
-10.1668
-10.1833
-10.1996
-10.2156
-10.2315
-10.2473
-10.2632
-10.2792
-10.2955
-10.3123
-10.3298
-10.3482
-10.3677
-9.9681
-9.92707
-9.9039
-9.89191
-9.88415
-9.88899
-9.90278
-9.92018
-9.93958
-9.96025
-9.98135
-10.0023
-10.0228
-10.0428
-10.0623
-10.0811
-10.0994
-10.1173
-10.1347
-10.1516
-10.1683
-10.1846
-10.2007
-10.2167
-10.2325
-10.2483
-10.2642
-10.2802
-10.2966
-10.3133
-10.3307
-10.3489
-10.3679
-9.95329
-9.93065
-9.91331
-9.90421
-9.8996
-9.9045
-9.91666
-9.93235
-9.95012
-9.96922
-9.9889
-10.0086
-10.0281
-10.0473
-10.066
-10.0843
-10.1021
-10.1195
-10.1365
-10.1532
-10.1696
-10.1858
-10.2017
-10.2176
-10.2333
-10.2491
-10.2649
-10.2809
-10.2972
-10.3138
-10.331
-10.3487
-10.3672
-9.94595
-9.934
-9.92156
-9.91499
-9.91274
-9.91779
-9.92879
-9.94311
-9.95952
-9.97728
-9.99571
-10.0144
-10.0329
-10.0513
-10.0694
-10.0871
-10.1044
-10.1214
-10.1381
-10.1546
-10.1707
-10.1867
-10.2025
-10.2182
-10.2338
-10.2495
-10.2652
-10.2811
-10.2972
-10.3136
-10.3305
-10.3478
-10.3655
-9.94356
-9.9376
-9.92908
-9.92467
-9.92416
-9.92937
-9.93948
-9.95267
-9.9679
-9.98448
-10.0018
-10.0195
-10.0372
-10.0549
-10.0723
-10.0895
-10.1064
-10.123
-10.1394
-10.1556
-10.1715
-10.1872
-10.2029
-10.2184
-10.2339
-10.2494
-10.2649
-10.2806
-10.2965
-10.3127
-10.3291
-10.3459
-10.363
-9.94437
-9.94165
-9.93613
-9.93349
-9.93428
-9.9396
-9.949
-9.96122
-9.9754
-9.99092
-10.0073
-10.024
-10.041
-10.0579
-10.0748
-10.0914
-10.1079
-10.1242
-10.1403
-10.1561
-10.1718
-10.1873
-10.2028
-10.2181
-10.2334
-10.2487
-10.2641
-10.2796
-10.2952
-10.3109
-10.3269
-10.3431
-10.3596
-9.94721
-9.94615
-9.94285
-9.94164
-9.94337
-9.94877
-9.95758
-9.96894
-9.98216
-9.9967
-10.0121
-10.028
-10.0442
-10.0605
-10.0768
-10.093
-10.109
-10.1249
-10.1407
-10.1562
-10.1717
-10.187
-10.2022
-10.2173
-10.2324
-10.2475
-10.2626
-10.2778
-10.293
-10.3084
-10.3239
-10.3395
-10.3553
-9.95129
-9.95104
-9.94933
-9.94923
-9.95163
-9.95704
-9.96534
-9.97593
-9.98828
-10.0019
-10.0165
-10.0316
-10.047
-10.0627
-10.0784
-10.0941
-10.1097
-10.1252
-10.1406
-10.1559
-10.1711
-10.1861
-10.2011
-10.216
-10.2308
-10.2456
-10.2604
-10.2753
-10.2901
-10.3051
-10.3201
-10.3351
-10.3501
-9.9561
-9.95622
-9.9556
-9.95633
-9.95919
-9.96456
-9.97239
-9.98229
-9.99383
-10.0066
-10.0203
-10.0347
-10.0495
-10.0645
-10.0796
-10.0948
-10.11
-10.1251
-10.1402
-10.1551
-10.17
-10.1848
-10.1994
-10.2141
-10.2286
-10.2431
-10.2576
-10.2721
-10.2865
-10.301
-10.3154
-10.3299
-10.3442
-9.96131
-9.96156
-9.96167
-9.96298
-9.96612
-9.97139
-9.97879
-9.98805
-9.99885
-10.0109
-10.0238
-10.0374
-10.0515
-10.0659
-10.0805
-10.0952
-10.1099
-10.1247
-10.1393
-10.154
-10.1685
-10.183
-10.1973
-10.2116
-10.2259
-10.2401
-10.2542
-10.2683
-10.2823
-10.2962
-10.3101
-10.324
-10.3377
-9.96669
-9.96697
-9.96755
-9.96922
-9.97249
-9.97761
-9.98459
-9.99325
-10.0033
-10.0146
-10.0268
-10.0397
-10.0532
-10.067
-10.081
-10.0952
-10.1095
-10.1238
-10.1381
-10.1524
-10.1666
-10.1807
-10.1948
-10.2088
-10.2227
-10.2365
-10.2502
-10.2639
-10.2774
-10.2909
-10.3042
-10.3174
-10.3305
-9.9721
-9.97237
-9.9732
-9.97507
-9.97835
-9.98325
-9.9898
-9.99789
-10.0073
-10.0179
-10.0294
-10.0417
-10.0545
-10.0677
-10.0812
-10.0949
-10.1087
-10.1226
-10.1366
-10.1505
-10.1643
-10.1781
-10.1918
-10.2054
-10.219
-10.2324
-10.2457
-10.2589
-10.272
-10.285
-10.2977
-10.3104
-10.3228
-9.97745
-9.9777
-9.97864
-9.98055
-9.98371
-9.98833
-9.99444
-10.002
-10.0108
-10.0207
-10.0316
-10.0432
-10.0554
-10.068
-10.081
-10.0943
-10.1076
-10.1211
-10.1347
-10.1482
-10.1617
-10.1751
-10.1885
-10.2017
-10.2149
-10.2279
-10.2408
-10.2535
-10.2661
-10.2786
-10.2908
-10.3029
-10.3147
-9.98269
-9.98291
-9.98384
-9.98566
-9.9886
-9.99286
-9.9985
-10.0055
-10.0137
-10.023
-10.0332
-10.0442
-10.0558
-10.068
-10.0805
-10.0932
-10.1062
-10.1193
-10.1324
-10.1456
-10.1587
-10.1718
-10.1847
-10.1976
-10.2104
-10.223
-10.2355
-10.2478
-10.2599
-10.2718
-10.2835
-10.295
-10.3062
-9.9878
-9.988
-9.98882
-9.99042
-9.99303
-9.99686
-10.002
-10.0084
-10.016
-10.0247
-10.0343
-10.0448
-10.0559
-10.0675
-10.0795
-10.0918
-10.1044
-10.1171
-10.1298
-10.1426
-10.1554
-10.1681
-10.1807
-10.1932
-10.2056
-10.2178
-10.2298
-10.2417
-10.2533
-10.2647
-10.2759
-10.2868
-10.2974
-9.9928
-9.99297
-9.99358
-9.99483
-9.99699
-10.0003
-10.0048
-10.0106
-10.0177
-10.0258
-10.0348
-10.0448
-10.0554
-10.0665
-10.0781
-10.09
-10.1022
-10.1145
-10.1269
-10.1393
-10.1517
-10.1641
-10.1763
-10.1885
-10.2005
-10.2123
-10.2239
-10.2353
-10.2464
-10.2573
-10.268
-10.2784
-10.2884
-9.99773
-9.99788
-9.99818
-9.99892
-10.0005
-10.0032
-10.0071
-10.0122
-10.0186
-10.0262
-10.0347
-10.0441
-10.0543
-10.065
-10.0762
-10.0877
-10.0995
-10.1115
-10.1236
-10.1357
-10.1478
-10.1598
-10.1717
-10.1834
-10.195
-10.2064
-10.2176
-10.2286
-10.2393
-10.2497
-10.2599
-10.2697
-10.2793
-10.0027
-10.0028
-10.0027
-10.0027
-10.0035
-10.0054
-10.0086
-10.0131
-10.0188
-10.0258
-10.0339
-10.0428
-10.0526
-10.0629
-10.0737
-10.085
-10.0964
-10.1081
-10.1199
-10.1316
-10.1434
-10.1551
-10.1667
-10.1781
-10.1893
-10.2004
-10.2112
-10.2217
-10.232
-10.2419
-10.2516
-10.2609
-10.27
-10.0078
-10.0079
-10.0071
-10.0062
-10.006
-10.007
-10.0093
-10.013
-10.0182
-10.0246
-10.0322
-10.0407
-10.0501
-10.0601
-10.0707
-10.0816
-10.0928
-10.1042
-10.1157
-10.1272
-10.1387
-10.1501
-10.1613
-10.1724
-10.1833
-10.194
-10.2044
-10.2146
-10.2244
-10.2339
-10.2431
-10.252
-10.2606
-10.0134
-10.0135
-10.0117
-10.0094
-10.008
-10.0078
-10.0091
-10.012
-10.0165
-10.0224
-10.0296
-10.0378
-10.0468
-10.0566
-10.0669
-10.0776
-10.0886
-10.0998
-10.111
-10.1223
-10.1335
-10.1447
-10.1556
-10.1664
-10.177
-10.1873
-10.1974
-10.2072
-10.2166
-10.2257
-10.2345
-10.243
-10.251
-10.0199
-10.0198
-10.0166
-10.0124
-10.0092
-10.0076
-10.0078
-10.0099
-10.0137
-10.0191
-10.0259
-10.0338
-10.0426
-10.0522
-10.0623
-10.0729
-10.0837
-10.0947
-10.1058
-10.1168
-10.1279
-10.1388
-10.1495
-10.16
-10.1703
-10.1803
-10.1901
-10.1995
-10.2086
-10.2173
-10.2257
-10.2337
-10.2414
-10.028
-10.0276
-10.022
-10.0151
-10.0097
-10.0063
-10.0052
-10.0063
-10.0095
-10.0145
-10.0209
-10.0286
-10.0373
-10.0468
-10.0568
-10.0672
-10.0779
-10.0888
-10.0998
-10.1107
-10.1216
-10.1323
-10.1428
-10.1531
-10.1631
-10.1729
-10.1823
-10.1915
-10.2002
-10.2086
-10.2167
-10.2243
-10.2316
-10.039
-10.0378
-10.0283
-10.0174
-10.009
-10.0035
-10.0008
-10.0009
-10.0035
-10.0081
-10.0144
-10.022
-10.0306
-10.04
-10.05
-10.0604
-10.0711
-10.082
-10.0928
-10.1037
-10.1144
-10.125
-10.1354
-10.1455
-10.1553
-10.1649
-10.1741
-10.1829
-10.1914
-10.1996
-10.2073
-10.2146
-10.2216
-10.0555
-10.0518
-10.0355
-10.0188
-10.0067
-9.99853
-9.99414
-9.9933
-9.99534
-9.99966
-10.0058
-10.0134
-10.0221
-10.0316
-10.0417
-10.0522
-10.0629
-10.0738
-10.0847
-10.0955
-10.1062
-10.1168
-10.1271
-10.1371
-10.1468
-10.1562
-10.1652
-10.1739
-10.1822
-10.1901
-10.1975
-10.2046
-10.2113
-10.0837
-10.0725
-10.043
-10.0179
-10.0012
-9.99001
-9.98394
-9.98234
-9.98407
-9.98831
-9.99454
-10.0023
-10.0112
-10.0209
-10.0311
-10.0418
-10.0527
-10.0637
-10.0747
-10.0857
-10.0964
-10.107
-10.1173
-10.1273
-10.137
-10.1463
-10.1553
-10.1639
-10.172
-10.1798
-10.1872
-10.1941
-10.2007
-10.1358
-10.1075
-10.0539
-10.0151
-9.99101
-9.97537
-9.96746
-9.96552
-9.96746
-9.97223
-9.97918
-9.98772
-9.99737
-10.0078
-10.0187
-10.03
-10.0414
-10.0528
-10.0641
-10.0753
-10.0863
-10.097
-10.1074
-10.1175
-10.1272
-10.1365
-10.1455
-10.154
-10.1621
-10.1697
-10.177
-10.1838
-10.1901
-10.215
-10.1522
-10.0701
-10.0194
-9.98303
-9.95698
-9.94374
-9.9391
-9.93927
-9.94312
-9.94996
-9.95896
-9.9694
-9.98082
-9.9929
-10.0054
-10.018
-10.0307
-10.0432
-10.0556
-10.0676
-10.0793
-10.0907
-10.1016
-10.1121
-10.1222
-10.1317
-10.1408
-10.1495
-10.1576
-10.1652
-10.1724
-10.179
-10.3593
-10.1261
-10.0007
-9.99367
-9.98384
-9.96962
-9.96616
-9.96787
-9.97017
-9.97351
-9.97851
-9.9849
-9.9923
-10.0005
-10.0095
-10.019
-10.0288
-10.0389
-10.0491
-10.0593
-10.0695
-10.0795
-10.0893
-10.0989
-10.1082
-10.1172
-10.1258
-10.134
-10.1419
-10.1494
-10.1564
-10.1631
-10.1694
-11.3082
-10.0748
-9.48357
-9.41089
-9.43
-9.47116
-9.52926
-9.58847
-9.64283
-9.69299
-9.73927
-9.78132
-9.81924
-9.85353
-9.88466
-9.91299
-9.93884
-9.96251
-9.98424
-10.0043
-10.0228
-10.0399
-10.0557
-10.0704
-10.0841
-10.0968
-10.1086
-10.1196
-10.1297
-10.1391
-10.1478
-10.1557
-10.1629
-15.0741
-12.8635
-11.8505
-11.2309
-10.8132
-10.5653
-10.4025
-10.2788
-10.1868
-10.1232
-10.0807
-10.0525
-10.0347
-10.0248
-10.0206
-10.0207
-10.0239
-10.0292
-10.0362
-10.0442
-10.053
-10.0621
-10.0715
-10.081
-10.0904
-10.0996
-10.1085
-10.1171
-10.1254
-10.1333
-10.1409
-10.148
-10.1548
-1.21417
-5.30102
-7.4128
-8.17598
-8.60733
-8.96795
-9.23602
-9.41511
-9.54165
-9.64001
-9.71826
-9.78016
-9.82987
-9.87101
-9.90588
-9.9359
-9.96209
-9.98526
-10.006
-10.0247
-10.0418
-10.0575
-10.0718
-10.0851
-10.0974
-10.1088
-10.1194
-10.1292
-10.1383
-10.1467
-10.1544
-10.1615
-10.1681
-10.3007
-10.0592
-10.3739
-10.6704
-10.7905
-10.8277
-10.8437
-10.8504
-10.8536
-10.8619
-10.8813
-10.9136
-10.958
-11.0125
-11.0746
-11.1413
-11.2096
-11.2768
-11.3406
-11.3989
-11.4504
-11.494
-11.5286
-11.5537
-11.5691
-11.5745
-11.57
-11.5557
-11.5315
-11.4975
-11.4538
-11.4004
-11.3373
-11.2644
-11.1815
-11.0885
-10.9853
-10.8716
-10.7473
-10.6121
-10.4658
-10.3083
-10.1394
-9.95909
-9.76717
-9.56374
-9.34895
-9.12304
-8.88626
-8.63906
-8.38202
-8.11581
-7.8412
-7.55912
-7.27059
-6.97673
-6.67875
-6.37793
-6.07562
-5.77317
-5.47196
-5.17337
-4.87871
-4.58926
-4.3062
-4.03061
-3.76345
-3.50557
-3.25765
-3.02026
-2.79382
-2.57861
-2.37478
-2.18239
-2.00136
-1.83155
-1.67268
-1.52442
-1.38639
-1.25811
-1.13912
-1.02892
-0.927008
-0.832847
-0.745925
-0.665759
-0.591861
-0.523788
-0.461083
-0.403392
-0.350219
-0.301438
-0.256182
-0.215165
-0.175841
-0.142288
-0.10485
-0.0818074
-0.0343782
-0.0409477
-10.3509
-10.3429
-10.5462
-10.7019
-10.7412
-10.7398
-10.74
-10.7447
-10.7541
-10.7729
-10.8039
-10.8465
-10.8988
-10.9587
-11.0242
-11.0926
-11.1616
-11.2291
-11.2926
-11.3506
-11.4018
-11.4451
-11.4795
-11.5046
-11.52
-11.5254
-11.521
-11.5068
-11.4828
-11.4489
-11.4054
-11.3522
-11.2893
-11.2165
-11.1339
-11.0412
-10.9383
-10.8249
-10.701
-10.5663
-10.4206
-10.2637
-10.0956
-9.91617
-9.72532
-9.52313
-9.30973
-9.08538
-8.85035
-8.60507
-8.35012
-8.08617
-7.81396
-7.53441
-7.24853
-6.95739
-6.66219
-6.36418
-6.06466
-5.76496
-5.46643
-5.17041
-4.8782
-4.59103
-4.31008
-4.0364
-3.77095
-3.51455
-3.26791
-3.03159
-2.806
-2.59145
-2.38809
-2.196
-2.01511
-1.84529
-1.68628
-1.53776
-1.39939
-1.27069
-1.1512
-1.04046
-0.937965
-0.843189
-0.755634
-0.674822
-0.60027
-0.531541
-0.468177
-0.409831
-0.355998
-0.306567
-0.260638
-0.218996
-0.178928
-0.14491
-0.10638
-0.0838617
-0.0332974
-0.0460616
-10.3643
-10.3768
-10.4694
-10.5828
-10.6511
-10.6878
-10.7147
-10.7355
-10.7518
-10.7698
-10.7945
-10.8277
-10.87
-10.9209
-10.979
-11.0422
-11.1078
-11.1732
-11.2358
-11.2937
-11.3448
-11.3881
-11.4227
-11.448
-11.4637
-11.4694
-11.4654
-11.4516
-11.4281
-11.3946
-11.3515
-11.2987
-11.2362
-11.1638
-11.0816
-10.9893
-10.8869
-10.7741
-10.6507
-10.5166
-10.3717
-10.2157
-10.0486
-9.87027
-9.68071
-9.47995
-9.26817
-9.04559
-8.81252
-8.56938
-8.31673
-8.05522
-7.78561
-7.50878
-7.2257
-6.93745
-6.64517
-6.3501
-6.05349
-5.75666
-5.46092
-5.16758
-4.8779
-4.5931
-4.31433
-4.04264
-3.77896
-3.52413
-3.27882
-3.04361
-2.81893
-2.60506
-2.40221
-2.21044
-2.02969
-1.85987
-1.70072
-1.55193
-1.4132
-1.28404
-1.16404
-1.05272
-0.949603
-0.854173
-0.765944
-0.684444
-0.609194
-0.539764
-0.475697
-0.416651
-0.362116
-0.311989
-0.265351
-0.223036
-0.182204
-0.147654
-0.108062
-0.0859257
-0.0324179
-0.0509543
-10.3706
-10.3962
-10.469
-10.5727
-10.6457
-10.6825
-10.7041
-10.7207
-10.7358
-10.754
-10.7792
-10.8127
-10.8543
-10.903
-10.9573
-11.0153
-11.075
-11.1341
-11.191
-11.2439
-11.2911
-11.3315
-11.3641
-11.3882
-11.4033
-11.4091
-11.4053
-11.3917
-11.3685
-11.3355
-11.2929
-11.2406
-11.1785
-11.1068
-11.0251
-10.9334
-10.8316
-10.7194
-10.5968
-10.4636
-10.3195
-10.1646
-9.99864
-9.82162
-9.63351
-9.43437
-9.22438
-9.00376
-8.77282
-8.53198
-8.28179
-8.02289
-7.75602
-7.48205
-7.20192
-6.91668
-6.62745
-6.33543
-6.04186
-5.74801
-5.45516
-5.16459
-4.87755
-4.59522
-4.31873
-4.04912
-3.7873
-3.5341
-3.29021
-3.05618
-2.83246
-2.61934
-2.41703
-2.22562
-2.04505
-1.87523
-1.71594
-1.56691
-1.42779
-1.29817
-1.17763
-1.06571
-0.961936
-0.865817
-0.776879
-0.694648
-0.618658
-0.548483
-0.483669
-0.423878
-0.368596
-0.317729
-0.270347
-0.227311
-0.185684
-0.150547
-0.109898
-0.0880393
-0.0317072
-0.0556685
-10.3778
-10.4113
-10.4721
-10.5524
-10.6138
-10.6494
-10.6742
-10.6962
-10.7172
-10.7397
-10.7669
-10.8002
-10.8397
-10.885
-10.935
-10.9884
-11.0434
-11.0981
-11.1507
-11.1997
-11.2433
-11.2805
-11.3104
-11.3322
-11.3454
-11.3498
-11.3451
-11.3308
-11.3073
-11.2743
-11.2318
-11.1798
-11.1181
-11.0467
-10.9655
-10.8744
-10.7732
-10.6618
-10.54
-10.4076
-10.2646
-10.1108
-9.94608
-9.77047
-9.58393
-9.38654
-9.17845
-8.9599
-8.73121
-8.49279
-8.24518
-7.989
-7.72499
-7.45398
-7.17691
-6.89478
-6.60871
-6.31986
-6.02943
-5.73866
-5.44882
-5.16113
-4.87684
-4.59709
-4.323
-4.05557
-3.79572
-3.54426
-3.30187
-3.06912
-2.84643
-2.63414
-2.43244
-2.24143
-2.06108
-1.89131
-1.7319
-1.58262
-1.44313
-1.31304
-1.19196
-1.07942
-0.974962
-0.878126
-0.788444
-0.705445
-0.628674
-0.557713
-0.492109
-0.431531
-0.375457
-0.323807
-0.275639
-0.231835
-0.189386
-0.1536
-0.111905
-0.0902071
-0.0311893
-0.0601516
-10.3836
-10.4189
-10.4704
-10.5348
-10.5899
-10.628
-10.6565
-10.6813
-10.7043
-10.7279
-10.755
-10.7869
-10.8242
-10.8664
-10.9128
-10.962
-11.0126
-11.0628
-11.1112
-11.1561
-11.1961
-11.2302
-11.2574
-11.277
-11.2884
-11.2913
-11.2853
-11.2702
-11.246
-11.2127
-11.17
-11.1178
-11.0562
-10.985
-10.9041
-10.8133
-10.7127
-10.6019
-10.4808
-10.3493
-10.2073
-10.0546
-9.89121
-9.71704
-9.53212
-9.33651
-9.13038
-8.91397
-8.6876
-8.45167
-8.2067
-7.95333
-7.69225
-7.42429
-7.15037
-6.87146
-6.58865
-6.30306
-6.01588
-5.72832
-5.44159
-5.15692
-4.8755
-4.59845
-4.32688
-4.06176
-3.804
-3.55439
-3.31362
-3.08224
-2.8607
-2.64932
-2.4483
-2.25776
-2.07768
-1.90799
-1.74851
-1.59902
-1.45916
-1.32862
-1.20699
-1.09382
-0.988664
-0.891088
-0.800632
-0.716834
-0.639248
-0.567462
-0.501028
-0.439619
-0.382715
-0.330237
-0.281241
-0.236622
-0.193324
-0.156827
-0.114099
-0.0924265
-0.030896
-0.0643352
-10.3876
-10.4225
-10.4678
-10.5218
-10.5712
-10.6089
-10.6386
-10.6646
-10.6891
-10.714
-10.7414
-10.7727
-10.8083
-10.848
-10.891
-10.9363
-10.9826
-11.0285
-11.0726
-11.1135
-11.1499
-11.1806
-11.2049
-11.2221
-11.2314
-11.2326
-11.2253
-11.2092
-11.1842
-11.1502
-11.1071
-11.0547
-10.993
-10.9218
-10.841
-10.7506
-10.6503
-10.5401
-10.4197
-10.289
-10.1479
-9.99633
-9.83418
-9.66144
-9.47812
-9.28431
-9.08016
-8.86592
-8.6419
-8.4085
-8.16624
-7.91573
-7.65766
-7.39284
-7.12214
-6.84654
-6.56709
-6.28488
-6.00106
-5.71682
-5.43334
-5.1518
-4.87337
-4.59916
-4.33023
-4.06754
-3.81199
-3.56436
-3.32531
-3.09542
-2.87512
-2.66475
-2.46449
-2.27448
-2.09474
-1.92519
-1.76569
-1.61602
-1.47584
-1.34485
-1.22267
-1.10886
-1.00301
-0.904682
-0.81343
-0.728806
-0.650375
-0.57773
-0.510431
-0.448152
-0.390378
-0.337029
-0.287165
-0.241686
-0.197511
-0.160241
-0.116492
-0.0946951
-0.0308531
-0.068166
-10.3902
-10.4238
-10.4645
-10.5109
-10.5551
-10.5915
-10.6216
-10.6486
-10.6742
-10.6999
-10.7274
-10.758
-10.7918
-10.829
-10.8688
-10.9105
-10.9529
-10.9948
-11.0349
-11.0719
-11.1046
-11.1321
-11.1535
-11.168
-11.1751
-11.1744
-11.1655
-11.1481
-11.1221
-11.0873
-11.0435
-10.9907
-10.9287
-10.8575
-10.7767
-10.6865
-10.5865
-10.4767
-10.3568
-10.2269
-10.0867
-9.93615
-9.77523
-9.60389
-9.42217
-9.23014
-9.02798
-8.81592
-8.59427
-8.36344
-8.12393
-7.87634
-7.62134
-7.35971
-7.09233
-6.82012
-6.54412
-6.26538
-5.98503
-5.70421
-5.42408
-5.14579
-4.87047
-4.5992
-4.33303
-4.07289
-3.81966
-3.57411
-3.3369
-3.1086
-2.88964
-2.68034
-2.48092
-2.29152
-2.11219
-1.94286
-1.78338
-1.63356
-1.49308
-1.36167
-1.23895
-1.12453
-1.01797
-0.91888
-0.826817
-0.741348
-0.662046
-0.588513
-0.520315
-0.45713
-0.398451
-0.34419
-0.293421
-0.247036
-0.201956
-0.163852
-0.119094
-0.0970113
-0.0310822
-0.0716047
-10.3915
-10.4235
-10.4605
-10.5014
-10.5411
-10.5758
-10.6058
-10.6332
-10.6593
-10.6853
-10.7127
-10.7423
-10.7745
-10.8093
-10.8462
-10.8845
-10.9232
-10.9613
-10.9975
-11.0308
-11.0601
-11.0843
-11.1028
-11.1147
-11.1196
-11.1169
-11.1063
-11.0875
-11.0603
-11.0245
-10.98
-10.9266
-10.8641
-10.7926
-10.7118
-10.6215
-10.5217
-10.4122
-10.2929
-10.1636
-10.0242
-9.87464
-9.71489
-9.54492
-9.36476
-9.17451
-8.97432
-8.76444
-8.54518
-8.31694
-8.0802
-7.83556
-7.58366
-7.32529
-7.06127
-6.79252
-6.52003
-6.24483
-5.96802
-5.6907
-5.41401
-5.13905
-4.86693
-4.5987
-4.33538
-4.07788
-3.82706
-3.58368
-3.34841
-3.12177
-2.90422
-2.69606
-2.49756
-2.30886
-2.13001
-1.96093
-1.80151
-1.65159
-1.51085
-1.37904
-1.2558
-1.14076
-1.03351
-0.933652
-0.840768
-0.754439
-0.674246
-0.5998
-0.530676
-0.466553
-0.406934
-0.351724
-0.300014
-0.25268
-0.206668
-0.167665
-0.121918
-0.0993743
-0.0316011
-0.0746153
-10.3918
-10.422
-10.456
-10.4925
-10.5286
-10.5614
-10.5908
-10.6181
-10.6443
-10.6703
-10.6972
-10.7258
-10.7564
-10.7889
-10.823
-10.8581
-10.8934
-10.9278
-10.9603
-10.9901
-11.0159
-11.037
-11.0526
-11.0619
-11.0644
-11.0597
-11.0474
-11.0271
-10.9987
-10.9618
-10.9165
-10.8624
-10.7995
-10.7276
-10.6465
-10.5562
-10.4565
-10.3473
-10.2283
-10.0996
-9.96099
-9.81239
-9.65377
-9.48513
-9.3065
-9.11799
-8.91977
-8.71206
-8.49518
-8.26953
-8.03557
-7.79389
-7.54513
-7.29002
-7.0294
-6.76414
-6.4952
-6.22359
-5.95037
-5.67661
-5.4034
-5.13184
-4.86298
-4.59785
-4.33744
-4.08265
-3.83431
-3.59318
-3.35989
-3.13498
-2.91889
-2.71196
-2.51445
-2.32649
-2.14815
-1.97938
-1.82007
-1.67007
-1.5291
-1.39692
-1.27318
-1.15754
-1.04959
-0.948968
-0.855258
-0.768057
-0.686957
-0.611577
-0.541502
-0.476413
-0.415824
-0.359631
-0.306948
-0.258622
-0.211653
-0.171687
-0.124969
-0.101784
-0.0324224
-0.0771676
-10.391
-10.4196
-10.4509
-10.4841
-10.517
-10.548
-10.5765
-10.6033
-10.6292
-10.6549
-10.6811
-10.7086
-10.7375
-10.7678
-10.7993
-10.8313
-10.8632
-10.8942
-10.9232
-10.9495
-10.972
-10.99
-11.0027
-11.0095
-11.0097
-11.003
-10.9888
-10.967
-10.9373
-10.8994
-10.8531
-10.7983
-10.7348
-10.6625
-10.5812
-10.4908
-10.3912
-10.2821
-10.1636
-10.0354
-9.8975
-9.74981
-9.59229
-9.42496
-9.24785
-9.06107
-8.86479
-8.65924
-8.44474
-8.22167
-7.9905
-7.75178
-7.50616
-7.25434
-6.99712
-6.73536
-6.47
-6.202
-5.93239
-5.66222
-5.39253
-5.12439
-4.85883
-4.59684
-4.33939
-4.08735
-3.84155
-3.6027
-3.37145
-3.1483
-2.93374
-2.7281
-2.53161
-2.34443
-2.16664
-1.99821
-1.83904
-1.68899
-1.54782
-1.41528
-1.29107
-1.17482
-1.0662
-0.964803
-0.870263
-0.782181
-0.700161
-0.623829
-0.552782
-0.486702
-0.425115
-0.367908
-0.31422
-0.264864
-0.216913
-0.175921
-0.128252
-0.104243
-0.0335536
-0.0792394
-10.3894
-10.4163
-10.4454
-10.4757
-10.5061
-10.5351
-10.5625
-10.5886
-10.6139
-10.639
-10.6644
-10.6906
-10.7178
-10.746
-10.7749
-10.804
-10.8328
-10.8604
-10.8861
-10.909
-10.9283
-10.9433
-10.9532
-10.9574
-10.9553
-10.9465
-10.9306
-10.9072
-10.8761
-10.837
-10.7898
-10.7343
-10.6702
-10.5975
-10.5159
-10.4254
-10.3258
-10.2169
-10.0988
-9.97111
-9.83393
-9.68714
-9.53072
-9.36469
-9.18909
-9.00404
-8.8097
-8.60632
-8.39419
-8.1737
-7.94531
-7.70956
-7.46707
-7.21854
-6.96473
-6.70648
-6.4447
-6.18032
-5.91434
-5.64776
-5.38162
-5.11692
-4.85468
-4.59586
-4.34139
-4.09214
-3.8489
-3.61236
-3.38316
-3.16184
-2.94885
-2.74451
-2.54908
-2.36272
-2.18551
-2.01744
-1.85844
-1.70837
-1.56701
-1.43413
-1.30944
-1.19261
-1.0833
-0.981141
-0.885765
-0.796793
-0.713841
-0.636542
-0.564503
-0.497409
-0.434799
-0.376549
-0.32183
-0.271406
-0.222448
-0.18037
-0.131766
-0.106753
-0.0349957
-0.0808171
-10.3868
-10.4122
-10.4393
-10.4673
-10.4954
-10.5227
-10.5488
-10.574
-10.5984
-10.6227
-10.6471
-10.6719
-10.6974
-10.7235
-10.7499
-10.7762
-10.802
-10.8264
-10.8489
-10.8686
-10.8848
-10.8968
-10.9039
-10.9056
-10.9012
-10.8903
-10.8726
-10.8476
-10.8152
-10.7749
-10.7268
-10.6704
-10.6057
-10.5325
-10.4507
-10.3601
-10.2605
-10.1518
-10.034
-9.9069
-9.77043
-9.62455
-9.46924
-9.30452
-9.13044
-8.94712
-8.75473
-8.55351
-8.34376
-8.12586
-7.90025
-7.66747
-7.42812
-7.18287
-6.93247
-6.67773
-6.41953
-6.15877
-5.89642
-5.63344
-5.37084
-5.1096
-4.85069
-4.59505
-4.34358
-4.09713
-3.85645
-3.62226
-3.39516
-3.17569
-2.96427
-2.76127
-2.56692
-2.38139
-2.20479
-2.0371
-1.87828
-1.72821
-1.58667
-1.45346
-1.3283
-1.21089
-1.1009
-0.997968
-0.901753
-0.811882
-0.727985
-0.649703
-0.576655
-0.508525
-0.444869
-0.38555
-0.329771
-0.278245
-0.228258
-0.185035
-0.135512
-0.109318
-0.0367425
-0.0818975
-10.3832
-10.4073
-10.4326
-10.4586
-10.4847
-10.5103
-10.5351
-10.5592
-10.5827
-10.6059
-10.6292
-10.6526
-10.6763
-10.7003
-10.7243
-10.748
-10.7709
-10.7923
-10.8117
-10.8283
-10.8415
-10.8506
-10.855
-10.8542
-10.8475
-10.8346
-10.815
-10.7884
-10.7546
-10.7132
-10.664
-10.6068
-10.5415
-10.4678
-10.3857
-10.2949
-10.1954
-10.0869
-9.96948
-9.84292
-9.70718
-9.56222
-9.40803
-9.24462
-9.07207
-8.89049
-8.70006
-8.50102
-8.29365
-8.07833
-7.85551
-7.6257
-7.38948
-7.14751
-6.90052
-6.64929
-6.39466
-6.13752
-5.87879
-5.61941
-5.36036
-5.10257
-4.84699
-4.59453
-4.34606
-4.10241
-3.86433
-3.63249
-3.4075
-3.18988
-2.98007
-2.77841
-2.58515
-2.40048
-2.2245
-2.05722
-1.89859
-1.74851
-1.60681
-1.47328
-1.34766
-1.22966
-1.11898
-1.01528
-0.918216
-0.827437
-0.742582
-0.663302
-0.589226
-0.520041
-0.455317
-0.394902
-0.338039
-0.28538
-0.234339
-0.189917
-0.139483
-0.111942
-0.0387813
-0.0824902
-10.3789
-10.4016
-10.4252
-10.4495
-10.4738
-10.4979
-10.5214
-10.5442
-10.5666
-10.5887
-10.6107
-10.6326
-10.6546
-10.6766
-10.6983
-10.7194
-10.7395
-10.758
-10.7744
-10.7881
-10.7984
-10.8047
-10.8065
-10.8032
-10.7943
-10.7793
-10.7579
-10.7297
-10.6944
-10.6518
-10.6016
-10.5437
-10.4777
-10.4036
-10.3211
-10.2302
-10.1307
-10.0224
-9.90535
-9.77934
-9.64435
-9.50032
-9.34725
-9.18518
-9.01417
-8.83435
-8.64588
-8.44901
-8.24404
-8.03131
-7.81128
-7.58443
-7.35134
-7.11264
-6.86905
-6.62131
-6.37025
-6.11671
-5.8616
-5.60581
-5.35029
-5.09594
-4.84369
-4.59441
-4.34895
-4.1081
-3.8726
-3.64312
-3.42025
-3.2045
-2.9963
-2.79599
-2.60384
-2.42003
-2.24467
-2.0778
-1.91938
-1.76931
-1.62744
-1.49359
-1.36751
-1.24893
-1.13755
-1.03307
-0.93515
-0.843451
-0.757625
-0.677332
-0.60221
-0.531949
-0.466135
-0.404602
-0.346629
-0.292806
-0.240687
-0.195013
-0.143674
-0.114626
-0.0410937
-0.0826167
-10.3736
-10.3951
-10.4173
-10.44
-10.4627
-10.4853
-10.5074
-10.529
-10.5503
-10.5711
-10.5917
-10.6121
-10.6324
-10.6523
-10.6717
-10.6904
-10.7078
-10.7236
-10.7372
-10.7481
-10.7556
-10.7592
-10.7585
-10.7527
-10.7416
-10.7246
-10.7014
-10.6716
-10.635
-10.5911
-10.5399
-10.4811
-10.4145
-10.3399
-10.2571
-10.1661
-10.0666
-9.95852
-9.84182
-9.71638
-9.58213
-9.43904
-9.28712
-9.12639
-8.95693
-8.77887
-8.59238
-8.3977
-8.19511
-7.98498
-7.76773
-7.54384
-7.31387
-7.07844
-6.83823
-6.59398
-6.34646
-6.09651
-5.84499
-5.59278
-5.34077
-5.08985
-4.84091
-4.59479
-4.35232
-4.11428
-3.88136
-3.65424
-3.43348
-3.21959
-3.013
-2.81405
-2.623
-2.44006
-2.26534
-2.09888
-1.94066
-1.7906
-1.64857
-1.51439
-1.38785
-1.26868
-1.15661
-1.05134
-0.952549
-0.859918
-0.773106
-0.691783
-0.615598
-0.544243
-0.477317
-0.414641
-0.355535
-0.300519
-0.247298
-0.200324
-0.148079
-0.117372
-0.0436565
-0.0823083
-10.3676
-10.3879
-10.4088
-10.43
-10.4513
-10.4724
-10.4932
-10.5136
-10.5335
-10.5531
-10.5723
-10.5911
-10.6096
-10.6276
-10.6448
-10.6611
-10.676
-10.6892
-10.7001
-10.7083
-10.7131
-10.7142
-10.711
-10.7029
-10.6896
-10.6707
-10.6457
-10.6143
-10.5762
-10.5312
-10.479
-10.4193
-10.3521
-10.277
-10.1939
-10.1027
-10.0033
-9.89542
-9.77911
-9.65424
-9.52075
-9.37862
-9.22785
-9.06848
-8.90058
-8.72429
-8.53978
-8.34728
-8.14709
-7.93955
-7.72507
-7.50413
-7.27727
-7.04509
-6.80824
-6.56745
-6.32346
-6.07707
-5.82912
-5.58045
-5.33193
-5.08441
-4.83876
-4.59579
-4.35629
-4.12103
-3.89068
-3.6659
-3.44724
-3.23521
-3.03022
-2.83262
-2.64269
-2.46061
-2.28652
-2.12046
-1.96245
-1.8124
-1.6702
-1.5357
-1.40868
-1.28892
-1.17614
-1.07007
-0.970405
-0.876828
-0.789017
-0.706648
-0.629382
-0.556913
-0.488854
-0.425014
-0.36475
-0.308514
-0.254165
-0.205845
-0.152689
-0.120184
-0.0464415
-0.0816041
-10.3608
-10.3801
-10.3997
-10.4196
-10.4395
-10.4593
-10.4787
-10.4978
-10.5165
-10.5347
-10.5524
-10.5697
-10.5864
-10.6025
-10.6176
-10.6317
-10.6442
-10.6548
-10.6632
-10.6688
-10.6711
-10.6697
-10.6641
-10.6538
-10.6384
-10.6176
-10.5908
-10.5579
-10.5185
-10.4723
-10.419
-10.3586
-10.2906
-10.2151
-10.1317
-10.0404
-9.94096
-9.83335
-9.71744
-9.59316
-9.46045
-9.31928
-9.16967
-9.01166
-8.84534
-8.67083
-8.4883
-8.29799
-8.10018
-7.89522
-7.6835
-7.4655
-7.24173
-7.01277
-6.77927
-6.5419
-6.30141
-6.05855
-5.81414
-5.56898
-5.32391
-5.07977
-4.83737
-4.59751
-4.36096
-4.12845
-3.90065
-3.67819
-3.46161
-3.25142
-3.04802
-2.85176
-2.66292
-2.4817
-2.30823
-2.14258
-1.98475
-1.83471
-1.69234
-1.5575
-1.43
-1.30963
-1.19614
-1.08927
-0.988708
-0.894172
-0.805345
-0.721915
-0.64355
-0.569948
-0.500736
-0.43571
-0.374266
-0.316783
-0.261281
-0.211572
-0.157492
-0.123064
-0.0494167
-0.0805494
-10.3534
-10.3716
-10.3901
-10.4087
-10.4273
-10.4458
-10.464
-10.4818
-10.4991
-10.516
-10.5323
-10.548
-10.563
-10.5772
-10.5903
-10.6021
-10.6124
-10.6207
-10.6266
-10.6297
-10.6296
-10.6259
-10.618
-10.6056
-10.5882
-10.5655
-10.5371
-10.5026
-10.4618
-10.4145
-10.3602
-10.299
-10.2304
-10.1544
-10.0707
-9.97927
-9.87993
-9.77255
-9.65706
-9.53338
-9.40145
-9.26127
-9.11283
-8.9562
-8.79145
-8.61872
-8.43818
-8.25005
-8.05462
-7.85223
-7.64326
-7.42817
-7.20747
-6.98171
-6.75151
-6.51754
-6.2805
-6.04113
-5.80021
-5.55852
-5.31686
-5.07605
-4.83686
-4.60007
-4.36643
-4.13664
-3.91135
-3.69117
-3.47666
-3.26827
-3.06644
-2.87151
-2.68374
-2.50336
-2.3305
-2.16523
-2.00759
-1.85754
-1.71498
-1.57979
-1.45181
-1.33083
-1.21661
-1.10891
-1.00744
-0.911934
-0.822077
-0.737568
-0.658086
-0.583333
-0.512948
-0.446717
-0.384069
-0.325316
-0.268634
-0.217497
-0.162475
-0.126012
-0.0525471
-0.0791935
-10.3455
-10.3626
-10.38
-10.3975
-10.4149
-10.4321
-10.449
-10.4655
-10.4815
-10.497
-10.5119
-10.526
-10.5393
-10.5517
-10.5629
-10.5726
-10.5807
-10.5867
-10.5904
-10.5912
-10.5888
-10.5828
-10.5728
-10.5583
-10.539
-10.5145
-10.4845
-10.4485
-10.4065
-10.358
-10.3028
-10.2407
-10.1716
-10.0951
-10.0112
-9.91965
-9.82038
-9.71326
-9.5982
-9.47514