/*--------------------------------*- C++ -*----------------------------------*\
  =========                 |
  \\      /  F ield         | OpenFOAM: The Open Source CFD Toolbox
   \\    /   O peration     | Website:  https://openfoam.org
    \\  /    A nd           | Version:  10
     \\/     M anipulation  |
\*---------------------------------------------------------------------------*/
FoamFile
{
    format      ascii;
    class       surfaceScalarField;
    location    "1600";
    object      phi;
}
// * * * * * * * * * * * * * * * * * * * * * * * * * * * * * * * * * * * * * //

dimensions      [0 3 -1 0 0 0 0];

internalField   nonuniform List<scalar> 
13452
(
6.29962e-05
-2.72773e-06
6.37617e-05
-7.65542e-07
6.45325e-05
-7.70724e-07
6.38572e-05
6.75284e-07
6.25157e-05
1.34144e-06
6.10809e-05
1.43483e-06
5.97493e-05
1.33157e-06
5.85556e-05
1.19372e-06
5.74947e-05
1.06086e-06
5.65536e-05
9.41157e-07
5.57165e-05
8.37099e-07
5.49679e-05
7.48525e-07
5.42945e-05
6.7349e-07
5.3685e-05
6.09467e-07
5.31306e-05
5.54351e-07
5.26241e-05
5.0655e-07
5.21593e-05
4.64798e-07
5.17312e-05
4.28072e-07
5.13357e-05
3.9556e-07
5.0969e-05
3.66623e-07
5.06283e-05
3.40754e-07
5.03107e-05
3.17548e-07
5.0014e-05
2.9669e-07
4.97361e-05
2.7794e-07
4.9475e-05
2.61131e-07
4.92288e-05
2.46176e-07
4.89957e-05
2.33106e-07
4.87736e-05
2.22087e-07
4.85598e-05
2.13781e-07
4.83508e-05
2.0904e-07
4.81376e-05
2.13199e-07
4.78961e-05
2.41418e-07
3.32442e-07
4.75637e-05
6.28938e-05
-3.63115e-06
6.27372e-05
-6.09005e-07
6.21166e-05
-1.50118e-07
6.2391e-05
4.00873e-07
6.28729e-05
8.59554e-07
6.32658e-05
1.04193e-06
6.35102e-05
1.08715e-06
6.36209e-05
1.08302e-06
6.36282e-05
1.05357e-06
6.35612e-05
1.00816e-06
6.34429e-05
9.55424e-07
6.32899e-05
9.01482e-07
6.31142e-05
8.49205e-07
6.2924e-05
7.9968e-07
6.27251e-05
7.53264e-07
6.25216e-05
7.10065e-07
6.23164e-05
6.70011e-07
6.21115e-05
6.32921e-07
6.19085e-05
5.98577e-07
6.17084e-05
5.66766e-07
6.15118e-05
5.37289e-07
6.13194e-05
5.09976e-07
6.11314e-05
4.84683e-07
6.0948e-05
4.61304e-07
6.07694e-05
4.39789e-07
6.05954e-05
4.20144e-07
6.0426e-05
4.02515e-07
6.02609e-05
3.87155e-07
6.00998e-05
3.74951e-07
5.9942e-05
3.66788e-07
5.9787e-05
3.68216e-07
5.96464e-05
3.82002e-07
4.21616e-07
5.95572e-05
6.23344e-05
-2.20416e-06
6.26284e-05
-9.02936e-07
6.27865e-05
-3.08264e-07
6.30959e-05
9.15181e-08
6.3447e-05
5.08376e-07
6.3749e-05
7.39921e-07
6.3995e-05
8.41152e-07
6.41899e-05
8.88157e-07
6.4338e-05
9.05423e-07
6.44458e-05
9.00414e-07
6.45202e-05
8.81023e-07
6.45676e-05
8.54092e-07
6.45932e-05
8.23571e-07
6.46014e-05
7.91487e-07
6.45956e-05
7.59042e-07
6.45786e-05
7.27038e-07
6.45527e-05
6.95959e-07
6.45196e-05
6.66062e-07
6.44807e-05
6.37477e-07
6.44372e-05
6.10264e-07
6.439e-05
5.84449e-07
6.43399e-05
5.60035e-07
6.42876e-05
5.37028e-07
6.42334e-05
5.15446e-07
6.41779e-05
4.95345e-07
6.41212e-05
4.76829e-07
6.40636e-05
4.60128e-07
6.40052e-05
4.45579e-07
6.39461e-05
4.34005e-07
6.38866e-05
4.26248e-07
6.38294e-05
4.25449e-07
6.37807e-05
4.30686e-07
4.4294e-07
6.37594e-05
6.47915e-05
-1.41264e-06
6.47391e-05
-8.50489e-07
6.47873e-05
-3.56439e-07
6.48994e-05
-2.06069e-08
6.50724e-05
3.35387e-07
6.52454e-05
5.6694e-07
6.54026e-05
6.83942e-07
6.5543e-05
7.47745e-07
6.56656e-05
7.82793e-07
6.57704e-05
7.95609e-07
6.58587e-05
7.92767e-07
6.59322e-05
7.80562e-07
6.59929e-05
7.62898e-07
6.60424e-05
7.41921e-07
6.60825e-05
7.19017e-07
6.61143e-05
6.95181e-07
6.61392e-05
6.71084e-07
6.61581e-05
6.47157e-07
6.61719e-05
6.2368e-07
6.61813e-05
6.00845e-07
6.6187e-05
5.78789e-07
6.61894e-05
5.57613e-07
6.6189e-05
5.37405e-07
6.61862e-05
5.18256e-07
6.61813e-05
5.0028e-07
6.61745e-05
4.83636e-07
6.6166e-05
4.68574e-07
6.61562e-05
4.55433e-07
6.61453e-05
4.4484e-07
6.61342e-05
4.37382e-07
6.61252e-05
4.34445e-07
6.61214e-05
4.34505e-07
4.36753e-07
6.61276e-05
6.70182e-05
-9.7406e-07
6.6871e-05
-7.03246e-07
6.68448e-05
-3.30307e-07
6.68727e-05
-4.84857e-08
6.69616e-05
2.46543e-07
6.70704e-05
4.5806e-07
6.71772e-05
5.77196e-07
6.72775e-05
6.47418e-07
6.73701e-05
6.90171e-07
6.7454e-05
7.11717e-07
6.7529e-05
7.17763e-07
6.75957e-05
7.13911e-07
6.76547e-05
7.03827e-07
6.7707e-05
6.89641e-07
6.77533e-05
6.72782e-07
6.77941e-05
6.54295e-07
6.78303e-05
6.34917e-07
6.78623e-05
6.15149e-07
6.78907e-05
5.9534e-07
6.79158e-05
5.75743e-07
6.7938e-05
5.56551e-07
6.79577e-05
5.37913e-07
6.79751e-05
5.19958e-07
6.79906e-05
5.02815e-07
6.80042e-05
4.86622e-07
6.80163e-05
4.71551e-07
6.80271e-05
4.57833e-07
6.80367e-05
4.45752e-07
6.80459e-05
4.35725e-07
6.80552e-05
4.28069e-07
6.80664e-05
4.23227e-07
6.80809e-05
4.19985e-07
4.17581e-07
6.81001e-05
6.9089e-05
-6.79009e-07
6.89436e-05
-5.57824e-07
6.89005e-05
-2.87238e-07
6.89039e-05
-5.1859e-08
6.89553e-05
1.95079e-07
6.90296e-05
3.83803e-07
6.91068e-05
5.0002e-07
6.91816e-05
5.72601e-07
6.92528e-05
6.18925e-07
6.93194e-05
6.45122e-07
6.93808e-05
6.56363e-07
6.94371e-05
6.57607e-07
6.94887e-05
6.52252e-07
6.95359e-05
6.42389e-07
6.95793e-05
6.29455e-07
6.96191e-05
6.14507e-07
6.96557e-05
5.98306e-07
6.96894e-05
5.81385e-07
6.97206e-05
5.64129e-07
6.97496e-05
5.46823e-07
6.97764e-05
5.29686e-07
6.98014e-05
5.12894e-07
6.98248e-05
4.96596e-07
6.98467e-05
4.80933e-07
6.98673e-05
4.66049e-07
6.98867e-05
4.52106e-07
6.99052e-05
4.39292e-07
6.99232e-05
4.27818e-07
6.9941e-05
4.17921e-07
6.99593e-05
4.09719e-07
6.99793e-05
4.03224e-07
7.00017e-05
3.97584e-07
3.92192e-07
7.00271e-05
7.11537e-05
-4.66335e-07
7.10276e-05
-4.31803e-07
7.09799e-05
-2.39461e-07
7.09725e-05
-4.4513e-08
7.10041e-05
1.63524e-07
7.10575e-05
3.30387e-07
7.11166e-05
4.40949e-07
7.11757e-05
5.13489e-07
7.12333e-05
5.61291e-07
7.12883e-05
5.90103e-07
7.134e-05
6.04645e-07
7.13884e-05
6.0929e-07
7.14334e-05
6.07158e-07
7.14756e-05
6.00282e-07
7.15149e-05
5.9009e-07
7.15518e-05
5.77636e-07
7.15864e-05
5.6369e-07
7.1619e-05
5.48803e-07
7.16497e-05
5.33381e-07
7.16788e-05
5.1773e-07
7.17064e-05
5.02083e-07
7.17327e-05
4.86631e-07
7.17578e-05
4.71532e-07
7.17818e-05
4.56928e-07
7.18049e-05
4.42956e-07
7.18272e-05
4.29757e-07
7.1849e-05
4.17473e-07
7.18706e-05
4.06238e-07
7.18924e-05
3.96164e-07
7.19148e-05
3.87239e-07
7.19388e-05
3.79305e-07
7.19646e-05
3.7176e-07
3.64095e-07
7.19927e-05
7.32523e-05
-3.13378e-07
7.31445e-05
-3.24024e-07
7.30947e-05
-1.89625e-07
7.30807e-05
-3.05204e-08
7.31e-05
1.44266e-07
7.31397e-05
2.90666e-07
7.31868e-05
3.93867e-07
7.32356e-05
4.64619e-07
7.32844e-05
5.12564e-07
7.33317e-05
5.42778e-07
7.33768e-05
5.59493e-07
7.34196e-05
5.66542e-07
7.346e-05
5.66764e-07
7.34982e-05
5.62106e-07
7.35343e-05
5.53969e-07
7.35685e-05
5.43396e-07
7.36011e-05
5.31154e-07
7.36321e-05
5.17807e-07
7.36617e-05
5.03774e-07
7.369e-05
4.89371e-07
7.37173e-05
4.74846e-07
7.37435e-05
4.60393e-07
7.37688e-05
4.46174e-07
7.37934e-05
4.32328e-07
7.38174e-05
4.18979e-07
7.38409e-05
4.06241e-07
7.38642e-05
3.94216e-07
7.38875e-05
3.82976e-07
7.39111e-05
3.72546e-07
7.39355e-05
3.62845e-07
7.39611e-05
3.5366e-07
7.39883e-05
3.44538e-07
3.35038e-07
7.40174e-05
7.53941e-05
-2.05009e-07
7.53032e-05
-2.33113e-07
7.52536e-05
-1.40069e-07
7.52353e-05
-1.2212e-08
7.52461e-05
1.33501e-07
7.52759e-05
2.60813e-07
7.53143e-05
3.55549e-07
7.53557e-05
4.23145e-07
7.53981e-05
4.70198e-07
7.544e-05
5.0092e-07
7.54804e-05
5.18997e-07
7.55192e-05
5.27751e-07
7.55563e-05
5.29736e-07
7.55916e-05
5.26788e-07
7.56253e-05
5.20262e-07
7.56575e-05
5.11174e-07
7.56884e-05
5.00284e-07
7.5718e-05
4.8816e-07
7.57466e-05
4.75227e-07
7.57741e-05
4.6181e-07
7.58008e-05
4.48161e-07
7.58267e-05
4.34478e-07
7.5852e-05
4.20922e-07
7.58767e-05
4.07625e-07
7.5901e-05
3.94698e-07
7.5925e-05
3.82229e-07
7.59489e-05
3.70285e-07
7.5973e-05
3.58894e-07
7.59975e-05
3.4803e-07
7.60228e-05
3.37577e-07
7.60491e-05
3.27316e-07
7.60768e-05
3.16889e-07
3.05914e-07
7.61059e-05
7.7584e-05
-1.2941e-07
7.75093e-05
-1.58476e-07
7.74625e-05
-9.32472e-08
7.74418e-05
8.50888e-09
7.74464e-05
1.28913e-07
7.74687e-05
2.38531e-07
7.75001e-05
3.24138e-07
7.75357e-05
3.87511e-07
7.75731e-05
4.32796e-07
7.76108e-05
4.63278e-07
7.76477e-05
4.82046e-07
7.76835e-05
4.9194e-07
7.7718e-05
4.95224e-07
7.77512e-05
4.93599e-07
7.77831e-05
4.88352e-07
7.78138e-05
4.80462e-07
7.78434e-05
4.70675e-07
7.78721e-05
4.59551e-07
7.78998e-05
4.47518e-07
7.79267e-05
4.34903e-07
7.79529e-05
4.2196e-07
7.79785e-05
4.08888e-07
7.80035e-05
3.95844e-07
7.80282e-05
3.82951e-07
7.80526e-05
3.70307e-07
7.80769e-05
3.57981e-07
7.81011e-05
3.46012e-07
7.81256e-05
3.34399e-07
7.81506e-05
3.23087e-07
7.81762e-05
3.11951e-07
7.82027e-05
3.00786e-07
7.82303e-05
2.89301e-07
2.77175e-07
7.8259e-05
7.98264e-05
-7.75425e-08
7.97671e-05
-9.91068e-08
7.9725e-05
-5.12114e-08
7.97037e-05
2.98371e-08
7.97039e-05
1.28681e-07
7.97203e-05
2.22151e-07
7.97461e-05
2.98366e-07
7.97769e-05
3.56735e-07
7.98101e-05
3.99522e-07
7.98443e-05
4.29108e-07
7.98784e-05
4.47983e-07
7.99118e-05
4.58524e-07
7.99443e-05
4.62705e-07
7.99758e-05
4.62073e-07
8.00064e-05
4.5783e-07
8.00359e-05
4.50908e-07
8.00646e-05
4.42024e-07
8.00924e-05
4.31727e-07
8.01195e-05
4.20441e-07
8.01459e-05
4.08491e-07
8.01717e-05
3.96128e-07
8.0197e-05
3.8355e-07
8.0222e-05
3.70909e-07
8.02466e-05
3.58319e-07
8.02711e-05
3.45867e-07
8.02954e-05
3.33606e-07
8.03199e-05
3.21557e-07
8.03446e-05
3.097e-07
8.03697e-05
2.97969e-07
8.03954e-05
2.86243e-07
8.04218e-05
2.7434e-07
8.04491e-05
2.62026e-07
2.49038e-07
8.04773e-05
8.21255e-05
-4.26061e-08
8.20798e-05
-5.33759e-08
8.20439e-05
-1.53125e-08
8.20236e-05
5.01139e-08
8.20211e-05
1.31144e-07
8.2033e-05
2.10238e-07
8.20542e-05
2.77195e-07
8.20809e-05
3.30079e-07
8.21106e-05
3.69795e-07
8.21418e-05
3.97925e-07
8.21734e-05
4.16393e-07
8.22048e-05
4.27138e-07
8.22356e-05
4.31854e-07
8.22658e-05
4.31918e-07
8.22952e-05
4.28435e-07
8.23238e-05
4.22277e-07
8.23517e-05
4.14125e-07
8.23789e-05
4.0451e-07
8.24055e-05
3.93845e-07
8.24315e-05
3.82448e-07
8.24571e-05
3.70568e-07
8.24823e-05
3.58395e-07
8.25071e-05
3.46076e-07
8.25317e-05
3.33719e-07
8.25562e-05
3.214e-07
8.25806e-05
3.0916e-07
8.26052e-05
2.97009e-07
8.26299e-05
2.84919e-07
8.26551e-05
2.72824e-07
8.26807e-05
2.60613e-07
8.27069e-05
2.48133e-07
8.27337e-05
2.35196e-07
2.21596e-07
8.27612e-05
8.44847e-05
-1.95359e-08
8.44506e-05
-1.92737e-08
8.44214e-05
1.38646e-08
8.44035e-05
6.80104e-08
8.43999e-05
1.34799e-07
8.44086e-05
2.01462e-07
8.44262e-05
2.5966e-07
8.44494e-05
3.06879e-07
8.4476e-05
3.43131e-07
8.45046e-05
3.69356e-07
8.4534e-05
3.86975e-07
8.45636e-05
3.97534e-07
8.4593e-05
4.02453e-07
8.4622e-05
4.02941e-07
8.46505e-05
3.99993e-07
8.46783e-05
3.94412e-07
8.47056e-05
3.86839e-07
8.47323e-05
3.77777e-07
8.47586e-05
3.67623e-07
8.47843e-05
3.56686e-07
8.48097e-05
3.45206e-07
8.48347e-05
3.33369e-07
8.48595e-05
3.21313e-07
8.4884e-05
3.09139e-07
8.49085e-05
2.96916e-07
8.4933e-05
2.84679e-07
8.49576e-05
2.7243e-07
8.49824e-05
2.60142e-07
8.50074e-05
2.47751e-07
8.50329e-05
2.35163e-07
8.50588e-05
2.22255e-07
8.50851e-05
2.08878e-07
1.94879e-07
8.51118e-05
8.69073e-05
-4.63499e-09
8.68827e-05
5.3021e-09
8.68602e-05
3.64007e-08
8.68455e-05
8.26541e-08
8.68419e-05
1.38382e-07
8.68488e-05
1.94613e-07
8.68636e-05
2.44834e-07
8.6884e-05
2.86482e-07
8.69081e-05
3.19068e-07
8.69343e-05
3.43065e-07
8.69618e-05
3.59479e-07
8.69899e-05
3.69514e-07
8.7018e-05
3.74342e-07
8.70459e-05
3.75005e-07
8.70735e-05
3.72384e-07
8.71007e-05
3.67209e-07
8.71275e-05
3.60071e-07
8.71538e-05
3.51445e-07
8.71797e-05
3.41704e-07
8.72053e-05
3.31145e-07
8.72305e-05
3.19998e-07
8.72554e-05
3.08439e-07
8.72801e-05
2.96601e-07
8.73047e-05
2.84579e-07
8.73292e-05
2.72434e-07
8.73537e-05
2.60198e-07
8.73782e-05
2.47872e-07
8.74029e-05
2.35429e-07
8.74279e-05
2.22818e-07
8.74531e-05
2.09961e-07
8.74785e-05
1.96762e-07
8.75043e-05
1.83107e-07
1.68884e-07
8.75303e-05
8.93962e-05
4.73336e-09
8.93791e-05
2.23398e-08
8.93627e-05
5.28566e-08
8.93517e-05
9.36502e-08
8.93491e-05
1.40961e-07
8.93551e-05
1.88654e-07
8.9368e-05
2.31846e-07
8.93863e-05
2.68241e-07
8.94082e-05
2.9714e-07
8.94326e-05
3.18716e-07
8.94584e-05
3.33661e-07
8.9485e-05
3.42898e-07
8.9512e-05
3.47383e-07
8.9539e-05
3.47997e-07
8.95658e-05
3.45515e-07
8.95925e-05
3.40587e-07
8.96188e-05
3.33755e-07
8.96448e-05
3.25455e-07
8.96704e-05
3.16039e-07
8.96958e-05
3.05786e-07
8.97209e-05
2.94913e-07
8.97457e-05
2.83587e-07
8.97704e-05
2.71934e-07
8.97949e-05
2.60044e-07
8.98194e-05
2.47972e-07
8.98438e-05
2.35749e-07
8.98683e-05
2.23377e-07
8.98929e-05
2.10835e-07
8.99177e-05
1.98081e-07
8.99426e-05
1.85057e-07
8.99676e-05
1.7169e-07
8.99928e-05
1.57894e-07
1.43596e-07
9.00181e-05
9.19542e-05
1.04084e-08
9.19429e-05
3.35892e-08
9.19317e-05
6.40656e-08
9.19244e-05
1.01012e-07
9.19234e-05
1.41957e-07
9.19292e-05
1.82778e-07
9.19411e-05
2.19937e-07
9.19578e-05
2.51543e-07
9.19781e-05
2.76882e-07
9.20008e-05
2.95967e-07
9.20252e-05
3.09273e-07
9.20506e-05
3.17507e-07
9.20766e-05
3.21441e-07
9.21027e-05
3.21817e-07
9.2129e-05
3.19305e-07
9.21551e-05
3.14483e-07
9.2181e-05
3.07837e-07
9.22067e-05
2.99766e-07
9.22321e-05
2.90596e-07
9.22573e-05
2.80584e-07
9.22823e-05
2.69936e-07
9.23071e-05
2.58808e-07
9.23317e-05
2.47317e-07
9.23562e-05
2.35548e-07
9.23806e-05
2.23555e-07
9.2405e-05
2.11366e-07
9.24294e-05
1.98987e-07
9.24538e-05
1.86403e-07
9.24783e-05
1.73585e-07
9.25029e-05
1.60488e-07
9.25275e-05
1.47061e-07
9.25521e-05
1.33247e-07
1.18995e-07
9.25767e-05
9.45839e-05
1.36502e-08
9.4577e-05
4.05134e-08
9.45701e-05
7.09634e-08
9.45661e-05
1.05047e-07
9.45669e-05
1.41124e-07
9.45732e-05
1.76444e-07
9.45846e-05
2.08508e-07
9.46003e-05
2.35852e-07
9.46194e-05
2.5786e-07
9.46408e-05
2.74486e-07
9.4664e-05
2.86068e-07
9.46884e-05
2.93158e-07
9.47135e-05
2.96382e-07
9.47389e-05
2.96365e-07
9.47645e-05
2.93682e-07
9.47902e-05
2.88841e-07
9.48157e-05
2.82275e-07
9.48412e-05
2.74346e-07
9.48664e-05
2.6535e-07
9.48915e-05
2.55526e-07
9.49163e-05
2.45062e-07
9.4941e-05
2.34103e-07
9.49656e-05
2.22761e-07
9.499e-05
2.11113e-07
9.50144e-05
1.9921e-07
9.50387e-05
1.87083e-07
9.50629e-05
1.7474e-07
9.50871e-05
1.62174e-07
9.51114e-05
1.49365e-07
9.51356e-05
1.36283e-07
9.51597e-05
1.22896e-07
9.51838e-05
1.09165e-07
9.50611e-08
9.52077e-05
9.72879e-05
1.53094e-08
9.72841e-05
4.42886e-08
9.72806e-05
7.44691e-08
9.72794e-05
1.0624e-07
9.7282e-05
1.38485e-07
9.72891e-05
1.69363e-07
9.73005e-05
1.97142e-07
9.73156e-05
2.20747e-07
9.73337e-05
2.39702e-07
9.73542e-05
2.53968e-07
9.73765e-05
2.63811e-07
9.74e-05
2.69673e-07
9.74243e-05
2.72075e-07
9.74491e-05
2.71543e-07
9.74742e-05
2.68572e-07
9.74995e-05
2.63608e-07
9.75247e-05
2.57032e-07
9.75499e-05
2.4917e-07
9.75749e-05
2.40288e-07
9.75999e-05
2.30604e-07
9.76246e-05
2.20291e-07
9.76492e-05
2.09483e-07
9.76737e-05
1.98281e-07
9.76981e-05
1.86759e-07
9.77223e-05
1.74967e-07
9.77465e-05
1.62934e-07
9.77705e-05
1.50673e-07
9.77945e-05
1.38183e-07
9.78184e-05
1.25454e-07
9.78423e-05
1.12468e-07
9.78659e-05
9.92079e-08
9.78895e-05
8.56492e-08
7.17805e-08
9.79127e-05
0.000100068
1.5955e-08
0.000100067
4.58359e-08
0.000100066
7.542e-08
0.000100067
1.05155e-07
0.000100071
1.34252e-07
0.000100079
1.61466e-07
0.000100091
1.85614e-07
0.000100105
2.05944e-07
0.000100123
2.22128e-07
0.000100143
2.34168e-07
0.000100164
2.42299e-07
0.000100187
2.46896e-07
0.000100211
2.48401e-07
0.000100235
2.47265e-07
0.00010026
2.43915e-07
0.000100285
2.38741e-07
0.00010031
2.32079e-07
0.000100335
2.2422e-07
0.000100359
2.15401e-07
0.000100384
2.0582e-07
0.000100409
1.95632e-07
0.000100433
1.84961e-07
0.000100458
1.73899e-07
0.000100482
1.62515e-07
0.000100506
1.50856e-07
0.00010053
1.38952e-07
0.000100554
1.26819e-07
0.000100578
1.14463e-07
0.000100601
1.01879e-07
0.000100625
8.90648e-08
0.000100648
7.60071e-08
0.000100671
6.27005e-08
4.91385e-08
0.000100693
0.000102928
1.59671e-08
0.000102928
4.58655e-08
0.000102929
7.45443e-08
0.000102932
1.02372e-07
0.000102937
1.28759e-07
0.000102946
1.52855e-07
0.000102958
1.73868e-07
0.000102972
1.91301e-07
0.000102989
2.04965e-07
0.000103009
2.14917e-07
0.000103029
2.21386e-07
0.000103052
2.24708e-07
0.000103075
2.25269e-07
0.000103099
2.23462e-07
0.000103123
2.19662e-07
0.000103147
2.14208e-07
0.000103172
2.07399e-07
0.000103197
1.99489e-07
0.000103222
1.90691e-07
0.000103246
1.81181e-07
0.000103271
1.711e-07
0.000103295
1.60557e-07
0.000103319
1.49639e-07
0.000103343
1.38407e-07
0.000103367
1.26907e-07
0.000103391
1.15168e-07
0.000103415
1.0321e-07
0.000103438
9.10413e-08
0.000103461
7.8667e-08
0.000103484
6.60886e-08
0.000103507
5.33051e-08
0.000103529
4.03164e-08
2.71245e-08
0.000103552
0.000105869
1.56027e-08
0.00010587
4.4925e-08
0.000105872
7.24638e-08
0.000105876
9.84454e-08
0.000105882
1.22405e-07
0.000105891
1.43756e-07
0.000105903
1.61989e-07
0.000105918
1.76812e-07
0.000105935
1.88157e-07
0.000105953
1.96138e-07
0.000105974
2.00994e-07
0.000105995
2.0304e-07
0.000106018
2.02625e-07
0.000106042
2.00098e-07
0.000106065
1.9579e-07
0.00010609
1.89999e-07
0.000106114
1.82988e-07
0.000106139
1.74982e-07
0.000106163
1.66169e-07
0.000106187
1.56706e-07
0.000106212
1.46715e-07
0.000106236
1.36297e-07
0.00010626
1.25528e-07
0.000106284
1.14464e-07
0.000106308
1.0315e-07
0.000106332
9.16116e-08
0.000106355
7.98727e-08
0.000106378
6.79431e-08
0.000106401
5.58361e-08
0.000106423
4.35534e-08
0.000106446
3.11055e-08
0.000106467
1.84922e-08
5.72576e-09
0.000106489
0.000108894
1.5041e-08
0.000108895
4.34446e-08
0.000108898
6.97118e-08
0.000108903
9.3901e-08
0.00010891
1.15623e-07
0.000108919
1.34481e-07
0.000108931
1.5018e-07
0.000108945
1.62591e-07
0.000108961
1.71757e-07
0.00010898
1.77849e-07
0.000108999
1.81124e-07
0.000109021
1.81889e-07
0.000109043
1.80468e-07
0.000109066
1.77175e-07
0.000109089
1.72306e-07
0.000109113
1.66125e-07
0.000109137
1.58864e-07
0.000109161
1.50721e-07
0.000109186
1.4186e-07
0.00010921
1.32418e-07
0.000109234
1.22506e-07
0.000109258
1.12209e-07
0.000109282
1.01595e-07
0.000109306
9.07168e-08
0.000109329
7.96114e-08
0.000109353
6.83092e-08
0.000109376
5.68288e-08
0.000109399
4.51882e-08
0.000109421
3.33961e-08
0.000109443
2.14657e-08
0.000109465
9.40345e-09
0.000109486
-2.78012e-09
-1.50746e-08
0.000109507
0.000112005
1.44162e-08
0.000112007
4.17812e-08
0.00011201
6.6764e-08
0.000112014
8.92423e-08
0.000112021
1.08874e-07
0.00011203
1.25412e-07
0.000112042
1.38733e-07
0.000112055
1.48855e-07
0.000112071
1.55922e-07
0.000112089
1.60163e-07
0.000112108
1.6186e-07
0.000112129
1.61321e-07
0.00011215
1.5885e-07
0.000112173
1.54739e-07
0.000112196
1.49253e-07
0.000112219
1.42627e-07
0.000112243
1.35066e-07
0.000112267
1.26742e-07
0.000112291
1.17798e-07
0.000112315
1.08354e-07
0.000112339
9.85029e-08
0.000112363
8.83206e-08
0.000112387
7.78671e-08
0.00011241
6.71863e-08
0.000112434
5.63141e-08
0.000112457
4.52762e-08
0.000112479
3.4093e-08
0.000112502
2.27799e-08
0.000112524
1.13504e-08
0.000112546
-1.8381e-10
0.000112567
-1.18111e-08
0.000112588
-2.35213e-08
-3.53017e-08
0.000112608
0.000115205
1.38409e-08
0.000115207
4.02574e-08
0.000115209
6.40762e-08
0.000115214
8.49782e-08
0.00011522
1.02655e-07
0.000115228
1.16994e-07
0.000115239
1.28029e-07
0.000115252
1.35917e-07
0.000115267
1.40905e-07
0.000115284
1.43283e-07
0.000115302
1.43367e-07
0.000115322
1.41468e-07
0.000115343
1.37883e-07
0.000115365
1.32883e-07
0.000115387
1.2671e-07
0.00011541
1.19573e-07
0.000115434
1.11651e-07
0.000115458
1.03093e-07
0.000115481
9.40247e-08
0.000115505
8.45445e-08
0.000115529
7.47338e-08
0.000115553
6.46557e-08
0.000115576
5.43607e-08
0.000115599
4.38864e-08
0.000115622
3.32643e-08
0.000115645
2.25151e-08
0.000115668
1.1659e-08
0.00011569
7.09143e-10
0.000115711
-1.03197e-08
0.000115733
-2.14168e-08
0.000115753
-3.25686e-08
0.000115774
-4.37662e-08
-5.49943e-08
0.000115793
0.000118496
1.34263e-08
0.000118497
3.92072e-08
0.000118499
6.21354e-08
0.000118503
8.16684e-08
0.000118508
9.75353e-08
0.000118515
1.09762e-07
0.000118524
1.18545e-07
0.000118536
1.24191e-07
0.00011855
1.27055e-07
0.000118566
1.27501e-07
0.000118583
1.25884e-07
0.000118602
1.22528e-07
0.000118622
1.17726e-07
0.000118643
1.11737e-07
0.000118665
1.0478e-07
0.000118688
9.70423e-08
0.000118711
8.86809e-08
0.000118734
7.98235e-08
0.000118758
7.05732e-08
0.000118781
6.10147e-08
0.000118805
5.12119e-08
0.000118828
4.12188e-08
0.000118851
3.10725e-08
0.000118874
2.08075e-08
0.000118897
1.04433e-08
0.00011892
2.20634e-12
0.000118942
-1.05046e-08
0.000118964
-2.10606e-08
0.000118985
-3.16579e-08
0.000119006
-4.22814e-08
0.000119026
-5.2924e-08
0.000119046
-6.35721e-08
-7.42171e-08
0.000119065
0.000121881
1.33033e-08
0.000121882
3.90275e-08
0.000121882
6.15248e-08
0.000121884
7.99876e-08
0.000121887
9.42045e-08
0.000121893
1.04373e-07
0.0001219
1.10878e-07
0.00012191
1.14197e-07
0.000121923
1.14816e-07
0.000121937
1.13187e-07
0.000121953
1.09713e-07
0.000121971
1.04742e-07
0.00012199
9.85696e-08
0.00012201
9.14439e-08
0.000122031
8.35689e-08
0.000122053
7.51113e-08
0.000122076
6.62053e-08
0.000122099
5.69569e-08
0.000122122
4.7452e-08
0.000122145
3.77545e-08
0.000122168
2.7917e-08
0.000122192
1.7976e-08
0.000122215
7.96279e-09
0.000122238
-2.10346e-09
0.00012226
-1.22041e-08
0.000122283
-2.23291e-08
0.000122305
-3.24656e-08
0.000122326
-4.26071e-08
0.000122347
-5.27422e-08
0.000122368
-6.28648e-08
0.000122388
-7.29638e-08
0.000122407
-8.30333e-08
-9.30622e-08
0.000122426
0.000125363
1.36516e-08
0.000125362
4.02571e-08
0.00012536
6.30234e-08
0.00012536
8.08215e-08
0.00012536
9.35602e-08
0.000125363
1.01671e-07
0.000125368
1.05783e-07
0.000125376
1.06586e-07
0.000125386
1.04731e-07
0.000125398
1.00779e-07
0.000125413
9.51982e-08
0.000125429
8.83699e-08
0.000125447
8.06003e-08
0.000125466
7.21315e-08
0.000125487
6.31532e-08
0.000125508
5.38124e-08
0.00012553
4.4221e-08
0.000125552
3.44652e-08
0.000125575
2.46077e-08
0.000125598
1.46961e-08
0.000125621
4.76386e-09
0.000125645
-5.16522e-09
0.000125668
-1.50752e-08
0.000125691
-2.4955e-08
0.000125713
-3.47977e-08
0.000125735
-4.45981e-08
0.000125757
-5.43524e-08
0.000125779
-6.40566e-08
0.0001258
-7.37067e-08
0.00012582
-8.32978e-08
0.00012584
-9.28249e-08
0.000125859
-1.02283e-07
-1.11666e-07
0.000125878
0.000128944
1.47477e-08
0.000128941
4.3699e-08
0.000128936
6.7754e-08
0.000128931
8.5409e-08
0.000128928
9.68195e-08
0.000128927
1.02768e-07
0.000128928
1.04217e-07
0.000128933
1.02149e-07
0.00012894
9.7425e-08
0.00012895
9.07497e-08
0.000128963
8.26771e-08
0.000128977
7.36346e-08
0.000128994
6.39448e-08
0.000129012
5.38473e-08
0.000129032
4.35169e-08
0.000129053
3.30805e-08
0.000129074
2.26258e-08
0.000129097
1.2215e-08
0.000129119
1.88696e-09
0.000129142
-8.33143e-09
0.000129166
-1.84285e-08
0.000129189
-2.83962e-08
0.000129212
-3.82354e-08
0.000129235
-4.79469e-08
0.000129258
-5.75362e-08
0.00012928
-6.70067e-08
0.000129302
-7.63638e-08
0.000129324
-8.56098e-08
0.000129345
-9.47477e-08
0.000129365
-1.03777e-07
0.000129385
-1.127e-07
0.000129404
-1.21513e-07
-1.30216e-07
0.000129423
0.000132627
1.70563e-08
0.00013262
5.06378e-08
0.00013261
7.74261e-08
0.0001326
9.55514e-08
0.000132591
1.05675e-07
0.000132585
1.09131e-07
0.000132582
1.07374e-07
0.000132582
1.01797e-07
0.000132586
9.35522e-08
0.000132593
8.3529e-08
0.000132603
7.23925e-08
0.000132616
6.06272e-08
0.000132632
4.85753e-08
0.000132649
3.64713e-08
0.000132668
2.44727e-08
0.000132689
1.26774e-08
0.00013271
1.14712e-09
0.000132732
-1.00904e-08
0.000132755
-2.10203e-08
0.000132779
-3.16487e-08
0.000132802
-4.19822e-08
0.000132826
-5.20401e-08
0.000132849
-6.18366e-08
0.000132873
-7.13941e-08
0.000132896
-8.07275e-08
0.000132919
-8.98567e-08
0.000132941
-9.87937e-08
0.000132963
-1.07554e-07
0.000132985
-1.16144e-07
0.000133005
-1.24576e-07
0.000133026
-1.32851e-07
0.000133045
-1.40979e-07
-1.48958e-07
0.000133064
0.000136414
2.1413e-08
0.000136401
6.32295e-08
0.000136384
9.4726e-08
0.000136366
1.13911e-07
0.000136349
1.22476e-07
0.000136335
1.22647e-07
0.000136326
1.16645e-07
0.000136321
1.06466e-07
0.000136321
9.36603e-08
0.000136325
7.93515e-08
0.000136334
6.43362e-08
0.000136345
4.91582e-08
0.000136359
3.41718e-08
0.000136376
1.95942e-08
0.000136395
5.55013e-09
0.000136416
-7.90093e-09
0.000136438
-2.0741e-08
0.000136461
-3.29802e-08
0.000136484
-4.46459e-08
0.000136508
-5.57745e-08
0.000136533
-6.64081e-08
0.000136557
-7.65883e-08
0.000136582
-8.63577e-08
0.000136606
-9.57544e-08
0.00013663
-1.04815e-07
0.000136654
-1.13571e-07
0.000136677
-1.22052e-07
0.0001367
-1.30279e-07
0.000136722
-1.38274e-07
0.000136744
-1.46052e-07
0.000136764
-1.53628e-07
0.000136784
-1.61012e-07
-1.68214e-07
0.000136804
0.000140308
2.94085e-08
0.000140286
8.52267e-08
0.000140257
1.23943e-07
0.000140226
1.44407e-07
0.000140198
1.50377e-07
0.000140175
1.45573e-07
0.000140158
1.33439e-07
0.000140148
1.16865e-07
0.000140144
9.7918e-08
0.000140145
7.79913e-08
0.000140151
5.80073e-08
0.000140162
3.85467e-08
0.000140176
1.99415e-08
0.000140194
2.36255e-09
0.000140213
-1.41299e-08
0.000140235
-2.95362e-08
0.000140258
-4.39044e-08
0.000140282
-5.72981e-08
0.000140307
-6.97997e-08
0.000140333
-8.14874e-08
0.000140359
-9.24456e-08
0.000140385
-1.02747e-07
0.000140412
-1.12467e-07
0.000140437
-1.21665e-07
0.000140463
-1.30402e-07
0.000140488
-1.38724e-07
0.000140513
-1.4668e-07
0.000140537
-1.54302e-07
0.00014056
-1.61625e-07
0.000140583
-1.68673e-07
0.000140605
-1.75471e-07
0.000140626
-1.82036e-07
-1.88384e-07
0.000140646
0.00014431
4.42476e-08
0.000144272
1.23309e-07
0.000144224
1.71895e-07
0.000144176
1.92617e-07
0.000144133
1.93312e-07
0.000144098
1.80205e-07
0.000144073
1.58708e-07
0.000144057
1.32975e-07
0.000144049
1.05656e-07
0.000144048
7.83663e-08
0.000144054
5.20864e-08
0.000144066
2.73529e-08
0.000144081
4.40714e-09
0.0001441
-1.6694e-08
0.000144122
-3.59943e-08
0.000144146
-5.3601e-08
0.000144172
-6.96464e-08
0.000144199
-8.42792e-08
0.000144227
-9.76435e-08
0.000144255
-1.09882e-07
0.000144284
-1.21121e-07
0.000144312
-1.31483e-07
0.000144341
-1.41069e-07
0.000144369
-1.49977e-07
0.000144397
-1.58286e-07
0.000144425
-1.6607e-07
0.000144451
-1.73387e-07
0.000144477
-1.80294e-07
0.000144503
-1.86831e-07
0.000144527
-1.93039e-07
0.00014455
-1.98947e-07
0.000144573
-2.04586e-07
-2.09975e-07
0.000144594
0.000148419
7.2794e-08
0.000148353
1.89476e-07
0.000148276
2.49082e-07
0.000148203
2.65877e-07
0.000148141
2.55423e-07
0.000148093
2.27987e-07
0.00014806
1.92025e-07
0.000148039
1.53253e-07
0.00014803
1.14724e-07
0.000148031
7.80421e-08
0.000148039
4.405e-08
0.000148053
1.30854e-08
0.000148072
-1.48328e-08
0.000148095
-3.98492e-08
0.000148121
-6.21854e-08
0.00014815
-8.20942e-08
0.00014818
-9.98352e-08
0.000148212
-1.15658e-07
0.000148244
-1.29797e-07
0.000148276
-1.42461e-07
0.000148309
-1.53839e-07
0.000148342
-1.641e-07
0.000148374
-1.73388e-07
0.000148406
-1.81831e-07
0.000148437
-1.89539e-07
0.000148468
-1.96607e-07
0.000148497
-2.03116e-07
0.000148526
-2.09135e-07
0.000148554
-2.14723e-07
0.000148581
-2.19929e-07
0.000148607
-2.24795e-07
0.000148632
-2.29357e-07
-2.33645e-07
0.000148655
0.000152632
1.30001e-07
0.000152516
3.05457e-07
0.000152394
3.70862e-07
0.000152288
3.72417e-07
0.000152204
3.39351e-07
0.000152144
2.87714e-07
0.000152106
2.30098e-07
0.000152086
1.73527e-07
0.00015208
1.20697e-07
0.000152085
7.26437e-08
0.000152099
2.97237e-08
0.000152121
-8.16871e-09
0.000152147
-4.14123e-08
0.000152178
-7.04696e-08
0.000152211
-9.58138e-08
0.000152247
-1.17894e-07
0.000152285
-1.37132e-07
0.000152323
-1.53903e-07
0.000152362
-1.68545e-07
0.0001524
-1.8135e-07
0.000152439
-1.92575e-07
0.000152477
-2.02441e-07
0.000152515
-2.1114e-07
0.000152552
-2.18833e-07
0.000152588
-2.25662e-07
0.000152624
-2.31746e-07
0.000152658
-2.37186e-07
0.000152691
-2.42068e-07
0.000152722
-2.46466e-07
0.000152753
-2.50441e-07
0.000152782
-2.54046e-07
0.00015281
-2.57324e-07
-2.60313e-07
0.000152837
0.000156935
2.46142e-07
0.00015673
5.11144e-07
0.000156542
5.58963e-07
0.000156395
5.19255e-07
0.000156291
4.43058e-07
0.000156226
3.52593e-07
0.000156192
2.64572e-07
0.00015618
1.85413e-07
0.000156185
1.15641e-07
0.000156203
5.48188e-08
0.00015623
2.36253e-09
0.000156264
-4.25838e-08
0.000156304
-8.09856e-08
0.000156347
-1.13748e-07
0.000156393
-1.41656e-07
0.000156441
-1.65407e-07
0.000156489
-1.85604e-07
0.000156538
-2.02778e-07
0.000156587
-2.17376e-07
0.000156635
-2.29788e-07
0.000156683
-2.40338e-07
0.00015673
-2.4931e-07
0.000156776
-2.56936e-07
0.00015682
-2.63422e-07
0.000156864
-2.68932e-07
0.000156905
-2.73616e-07
0.000156946
-2.77591e-07
0.000156985
-2.80963e-07
0.000157022
-2.83815e-07
0.000157058
-2.86225e-07
0.000157092
-2.88249e-07
0.000157125
-2.89943e-07
-2.91353e-07
0.000157156
0.000161294
4.90901e-07
0.000160931
8.74133e-07
0.000160653
8.36749e-07
0.000160464
7.07697e-07
0.000160352
5.55888e-07
0.000160297
4.06849e-07
0.000160283
2.79413e-07
0.000160294
1.74025e-07
0.000160324
8.57736e-08
0.000160367
1.17726e-08
0.000160419
-4.99031e-08
0.000160478
-1.01151e-07
0.00016054
-1.43747e-07
0.000160606
-1.79134e-07
0.000160673
-2.08477e-07
0.00016074
-2.32746e-07
0.000160807
-2.52772e-07
0.000160874
-2.69244e-07
0.000160939
-2.82744e-07
0.000161003
-2.9375e-07
0.000161065
-3.02672e-07
0.000161126
-3.09841e-07
0.000161184
-3.15546e-07
0.000161241
-3.20019e-07
0.000161296
-3.23461e-07
0.000161348
-3.26035e-07
0.000161398
-3.27882e-07
0.000161446
-3.29116e-07
0.000161492
-3.29836e-07
0.000161536
-3.30121e-07
0.000161578
-3.3004e-07
0.000161618
-3.29646e-07
-3.28989e-07
0.000161655
0.000165516
1.12871e-06
0.000164915
1.4752e-06
0.000164579
1.17264e-06
0.000164389
8.97095e-07
0.000164311
6.34737e-07
0.000164306
4.11062e-07
0.000164344
2.41789e-07
0.000164407
1.11176e-07
0.000164487
5.83093e-09
0.000164578
-7.97626e-08
0.000164677
-1.48761e-07
0.00016478
-2.04213e-07
0.000164885
-2.488e-07
0.000164991
-2.84559e-07
0.000165095
-3.13065e-07
0.000165198
-3.35615e-07
0.000165299
-3.53284e-07
0.000165396
-3.66956e-07
0.000165491
-3.77349e-07
0.000165582
-3.8505e-07
0.00016567
-3.9054e-07
0.000165755
-3.94217e-07
0.000165835
-3.96405e-07
0.000165913
-3.97374e-07
0.000165987
-3.97345e-07
0.000166057
-3.965e-07
0.000166124
-3.94992e-07
0.000166188
-3.92948e-07
0.000166249
-3.90471e-07
0.000166306
-3.87653e-07
0.000166361
-3.84571e-07
0.000166412
-3.81293e-07
-3.7789e-07