/*--------------------------------*- C++ -*----------------------------------*\
  =========                 |
  \\      /  F ield         | OpenFOAM: The Open Source CFD Toolbox
   \\    /   O peration     | Website:  https://openfoam.org
    \\  /    A nd           | Version:  10
     \\/     M anipulation  |
\*---------------------------------------------------------------------------*/
FoamFile
{
    format      ascii;
    class       volScalarField;
    location    "0.095";
    object      k;
}
// * * * * * * * * * * * * * * * * * * * * * * * * * * * * * * * * * * * * * //

dimensions      [0 2 -2 0 0 0 0];

internalField   nonuniform List<scalar> 
6820
(
0.198343
0.194801
0.191192
0.18755
0.183921
0.180329
0.176784
0.173286
0.169836
0.16643
0.163065
0.159738
0.156441
0.153169
0.149914
0.146666
0.143413
0.140142
0.136834
0.13347
0.130023
0.126463
0.122752
0.118847
0.114695
0.110239
0.105413
0.100147
0.0943694
0.0880237
0.0810123
0.0735938
0.0644516
0.200926
0.200915
0.200506
0.20008
0.199661
0.199241
0.198814
0.198378
0.197932
0.197475
0.19701
0.196538
0.19606
0.195578
0.195095
0.194611
0.194129
0.193648
0.19317
0.192693
0.192213
0.191726
0.191219
0.190679
0.19008
0.189388
0.188556
0.187522
0.186206
0.184517
0.182356
0.179614
0.176376
0.236713
0.016777
0.00420788
0.00939207
0.00761147
0.00804592
0.00985898
0.0119636
0.0142567
0.0166828
0.0192096
0.0218238
0.0245186
0.0272915
0.0301443
0.033082
0.0361136
0.039252
0.0425141
0.0459213
0.0494995
0.0532792
0.0572948
0.0615835
0.0661833
0.0711287
0.0764461
0.0821455
0.0882127
0.0945971
0.101208
0.107895
0.114499
0.210767
0.148006
0.105023
0.079741
0.0641327
0.0535627
0.0457621
0.0396288
0.0345925
0.0303334
0.0266594
0.0234489
0.0206224
0.0181271
0.0159288
0.0140066
0.012349
0.0109503
0.0098076
0.00891812
0.00827799
0.00788289
0.00773098
0.00782687
0.00818538
0.00883496
0.00981916
0.0111967
0.0130382
0.0154179
0.0183943
0.0220174
0.0262108
0.223477
0.082569
0.0207798
0.00393999
0.000581022
0.000393553
0.000756931
0.00111661
0.00141816
0.00168161
0.00192016
0.00213666
0.00232916
0.00249437
0.00262916
0.00273106
0.00279837
0.00283003
0.00282534
0.00278411
0.00270653
0.00259293
0.00244379
0.00225993
0.00204318
0.00179666
0.00152772
0.00124552
0.000972032
0.000732353
0.000565753
0.000527349
0.000655981
0.21729
0.113919
0.0522359
0.0285264
0.0194637
0.0150517
0.0119527
0.00920325
0.00665351
0.00442717
0.00270514
0.00154086
0.000843369
0.000463003
0.000268251
0.000172433
0.000127397
0.000108853
0.000104628
0.000108937
0.000118008
0.000128958
0.000138681
0.000145205
0.000139837
0.000138558
1.8907e-05
0.000411254
0.000290493
0.000100552
5.32005e-07
0.000241063
0.000103183
0.213127
0.134753
0.0662109
0.0325779
0.0184389
0.0124116
0.00958725
0.00813786
0.00750239
0.00718497
0.00695212
0.00674956
0.00656971
0.00640793
0.00625529
0.0061012
0.00593748
0.00576072
0.00557158
0.00537297
0.00516942
0.00496446
0.00475984
0.0045561
0.00435207
0.00414832
0.0039383
0.00373472
0.00351967
0.00330765
0.00309254
0.00286951
0.00263525
0.203442
0.182934
0.129866
0.0699737
0.034133
0.0177088
0.0106355
0.00749655
0.00637551
0.00598667
0.00581046
0.00572335
0.00569629
0.00570992
0.00574384
0.00578018
0.00580715
0.00582004
0.00581969
0.00580963
0.0057935
0.00577332
0.00574957
0.00572178
0.00568936
0.0056514
0.00560821
0.0055558
0.00549706
0.00542677
0.00534409
0.00524537
0.00513149
0.202024
0.189814
0.166831
0.125065
0.0788013
0.0450938
0.0254204
0.0152588
0.011798
0.0107161
0.0103034
0.0102156
0.0103481
0.0105868
0.0108155
0.010957
0.010989
0.0109283
0.0108065
0.0106495
0.010469
0.0102667
0.0100405
0.00978959
0.00951656
0.00922683
0.00892777
0.00862709
0.00833137
0.008045
0.00777026
0.00750705
0.00725275
0.201346
0.193188
0.181817
0.16343
0.131053
0.0921192
0.0596957
0.0388292
0.0319144
0.0299976
0.0294749
0.0296849
0.0303637
0.031203
0.0319156
0.0323347
0.0324355
0.0322738
0.0319392
0.0314879
0.0309341
0.0302707
0.0294881
0.0285844
0.0275667
0.0264505
0.0252565
0.0240082
0.0227287
0.0214389
0.020154
0.0188843
0.0176324
0.200896
0.195439
0.188351
0.179612
0.165593
0.143904
0.11772
0.0952456
0.0859176
0.0820404
0.0795069
0.0775678
0.076131
0.0750731
0.0742088
0.0732826
0.0721991
0.0709935
0.069733
0.0684474
0.0671291
0.0657522
0.0642894
0.0627194
0.0610295
0.0592144
0.0572756
0.0552198
0.053057
0.050799
0.0484574
0.0460419
0.0435582
0.200616
0.196839
0.192347
0.187743
0.18169
0.172421
0.159717
0.146735
0.138427
0.133358
0.129094
0.125163
0.121667
0.118651
0.116044
0.113597
0.111245
0.109004
0.106889
0.104899
0.103011
0.101193
0.0994091
0.0976257
0.0958134
0.0939457
0.0919985
0.0899517
0.0877895
0.0854983
0.0830665
0.0804835
0.0777419
0.200435
0.197756
0.194809
0.192221
0.189442
0.185688
0.180521
0.174471
0.168949
0.164302
0.159733
0.155097
0.150568
0.146175
0.142036
0.138216
0.134779
0.131739
0.12907
0.126725
0.124649
0.122785
0.121076
0.119477
0.117945
0.116441
0.114933
0.113394
0.111801
0.110129
0.108355
0.106459
0.104418
0.200319
0.198344
0.196334
0.194853
0.193591
0.192034
0.189733
0.186617
0.183023
0.179329
0.175455
0.171404
0.167327
0.163251
0.159295
0.155579
0.152177
0.149115
0.146385
0.14396
0.141797
0.139854
0.138081
0.136437
0.134894
0.133424
0.132002
0.130608
0.129222
0.127823
0.126392
0.124911
0.123359
0.200244
0.198723
0.197282
0.196398
0.195848
0.195242
0.194204
0.19252
0.190205
0.187376
0.184102
0.180471
0.176634
0.172734
0.168929
0.165349
0.16207
0.159122
0.1565
0.154175
0.152106
0.150247
0.148559
0.147011
0.145577
0.144234
0.14296
0.141735
0.140542
0.139364
0.138186
0.136996
0.135775
0.200197
0.198963
0.197855
0.197281
0.197054
0.196848
0.196338
0.195306
0.193687
0.191496
0.188801
0.185742
0.182485
0.179187
0.175976
0.172937
0.170117
0.167529
0.165166
0.163011
0.161042
0.159237
0.157577
0.156045
0.154622
0.15329
0.152033
0.150835
0.149682
0.148558
0.147454
0.14636
0.145258
0.20017
0.199107
0.198178
0.197741
0.197632
0.197571
0.197288
0.196582
0.195341
0.19354
0.191241
0.188572
0.185685
0.182724
0.17981
0.177024
0.174416
0.172007
0.1698
0.167785
0.165947
0.164266
0.162726
0.161308
0.159994
0.158767
0.157611
0.156513
0.15546
0.15444
0.153444
0.152465
0.151487
0.200156
0.199181
0.198321
0.197908
0.197797
0.197742
0.197509
0.196914
0.19585
0.194298
0.192314
0.190003
0.18749
0.184892
0.182307
0.179805
0.177432
0.175211
0.173151
0.171251
0.169502
0.167891
0.166405
0.165029
0.163749
0.162551
0.161423
0.160353
0.159331
0.158344
0.157381
0.156446
0.155523
0.200152
0.199201
0.198328
0.197858
0.197667
0.197537
0.197261
0.196681
0.195703
0.194311
0.192547
0.190494
0.188253
0.185919
0.183576
0.181287
0.179094
0.177023
0.175087
0.173286
0.171618
0.170074
0.168642
0.167312
0.16607
0.164906
0.163808
0.162768
0.161771
0.160797
0.159835
0.158903
0.158011
0.200158
0.199177
0.198225
0.197639
0.197314
0.197054
0.196681
0.196057
0.195106
0.193814
0.192217
0.19038
0.188384
0.186305
0.184211
0.182152
0.180165
0.178273
0.176487
0.17481
0.173242
0.171776
0.170406
0.169121
0.167914
0.166775
0.165695
0.164663
0.163653
0.162651
0.161653
0.160686
0.159793
0.200171
0.19911
0.198022
0.197269
0.196765
0.196338
0.195831
0.195129
0.194166
0.19293
0.191451
0.189778
0.187975
0.186101
0.18421
0.182344
0.180533
0.178796
0.177146
0.175587
0.174119
0.172738
0.171438
0.170213
0.169056
0.167956
0.166897
0.165859
0.164827
0.163795
0.162762
0.161762
0.160861
0.200193
0.198998
0.197714
0.196743
0.196023
0.195398
0.194732
0.193927
0.192927
0.191721
0.190331
0.188797
0.187164
0.18548
0.183785
0.18211
0.180478
0.178906
0.177403
0.175973
0.174615
0.173328
0.172108
0.170949
0.169841
0.168763
0.167697
0.166632
0.165565
0.164491
0.163414
0.162367
0.161426
0.200226
0.198835
0.197285
0.196043
0.195068
0.19422
0.193379
0.192458
0.191407
0.190215
0.188894
0.187473
0.185986
0.184465
0.182939
0.181433
0.179963
0.178541
0.177175
0.175867
0.174619
0.173427
0.172289
0.171194
0.170117
0.169042
0.167962
0.166874
0.165777
0.16467
0.163555
0.162467
0.161483
0.200271
0.198604
0.196702
0.195125
0.193852
0.192755
0.191725
0.19068
0.189573
0.188387
0.187128
0.185812
0.184461
0.183096
0.181737
0.180397
0.179089
0.177821
0.176597
0.175418
0.174286
0.173195
0.172128
0.171066
0.169995
0.168911
0.167814
0.166702
0.165576
0.164434
0.163281
0.162149
0.161118
0.200335
0.198282
0.195916
0.193927
0.192313
0.19095
0.189728
0.188564
0.187407
0.186231
0.185031
0.183813
0.182588
0.181365
0.180156
0.178969
0.17781
0.176684
0.175594
0.174539
0.173512
0.172498
0.171475
0.170435
0.169374
0.168293
0.167191
0.166069
0.164926
0.163762
0.162582
0.161418
0.160343
0.200423
0.197831
0.194848
0.19234
0.190324
0.188664
0.187241
0.18596
0.18476
0.183603
0.182473
0.181362
0.180269
0.179195
0.178143
0.177115
0.176112
0.175135
0.174185
0.173247
0.1723
0.171331
0.170335
0.169312
0.168262
0.167186
0.166083
0.164954
0.163798
0.162616
0.161412
0.160217
0.159099
0.200548
0.197195
0.193391
0.190248
0.187785
0.185829
0.184228
0.182862
0.181645
0.180527
0.179475
0.178472
0.177506
0.176571
0.175663
0.17478
0.173919
0.173073
0.172235
0.17138
0.170493
0.169573
0.168619
0.167631
0.166611
0.165559
0.164473
0.163355
0.162204
0.16102
0.159806
0.158593
0.157442
0.20073
0.196264
0.191319
0.187346
0.184337
0.182046
0.180264
0.178829
0.177626
0.176581
0.175645
0.174785
0.17398
0.173214
0.172476
0.171761
0.171052
0.17032
0.169557
0.168757
0.167918
0.167043
0.16613
0.16518
0.164193
0.163168
0.162105
0.161003
0.159861
0.15868
0.157461
0.156231
0.155047
0.200999
0.19489
0.188417
0.183469
0.179914
0.177348
0.175456
0.174011
0.172863
0.171914
0.1711
0.170379
0.169723
0.169106
0.168511
0.167928
0.167327
0.166688
0.166006
0.165282
0.164516
0.163709
0.16286
0.161969
0.161035
0.160058
0.159034
0.157965
0.156848
0.155682
0.15447
0.153234
0.152024
0.201428
0.19269
0.183939
0.177634
0.173381
0.170515
0.168558
0.167186
0.166193
0.165446
0.16486
0.164376
0.163954
0.163539
0.163102
0.162633
0.162123
0.16157
0.160972
0.16033
0.159643
0.158911
0.158132
0.157306
0.156431
0.155505
0.154526
0.153492
0.152401
0.151251
0.150044
0.148799
0.147557
0.202094
0.189274
0.177564
0.16984
0.165025
0.162001
0.160071
0.158806
0.157958
0.157378
0.156969
0.156668
0.156421
0.15617
0.155886
0.155559
0.155182
0.154755
0.154276
0.153745
0.15316
0.152521
0.151826
0.151075
0.150265
0.149394
0.148461
0.147461
0.146394
0.145257
0.14405
0.142788
0.141505
0.203303
0.183073
0.166642
0.156956
0.151604
0.148665
0.14705
0.146157
0.145675
0.145437
0.145339
0.145311
0.145306
0.145283
0.145221
0.145104
0.144923
0.144675
0.144356
0.143966
0.143504
0.14297
0.142364
0.141686
0.140933
0.140106
0.139201
0.138217
0.13715
0.135999
0.134762
0.133452
0.132092
0.206227
0.168
0.143281
0.131098
0.125395
0.122832
0.121837
0.121657
0.121915
0.122405
0.123003
0.123628
0.124218
0.124733
0.125146
0.125441
0.125613
0.125659
0.125582
0.125384
0.125069
0.12464
0.1241
0.123452
0.122697
0.121838
0.120876
0.119809
0.118639
0.117364
0.115985
0.114511
0.112957
0.212653
0.135103
0.0979809
0.0839643
0.079192
0.0780974
0.0785599
0.0797165
0.0811786
0.082751
0.0843198
0.0858077
0.0871586
0.0883345
0.0893136
0.0900867
0.0906535
0.0910186
0.0911895
0.0911748
0.090984
0.0906271
0.0901143
0.0894561
0.0886619
0.0877405
0.0866993
0.0855444
0.0842811
0.0829141
0.0814482
0.0798947
0.0782588
0.220179
0.0978344
0.0556875
0.0431503
0.0397893
0.0393816
0.0400457
0.0411688
0.0425028
0.0439082
0.045295
0.0466008
0.0477841
0.0488205
0.0496975
0.0504103
0.0509578
0.0513421
0.0515674
0.0516402
0.051569
0.0513637
0.0510347
0.0505918
0.0500448
0.0494031
0.048675
0.0478683
0.0469904
0.0460483
0.0450485
0.044
0.0429032
0.221494
0.0901728
0.0473859
0.0346775
0.0304938
0.0287354
0.0277261
0.0269993
0.0264133
0.0259107
0.0254684
0.0250749
0.0247253
0.0244168
0.0241424
0.023893
0.0236583
0.0234277
0.0231916
0.0229418
0.0226719
0.0223774
0.022055
0.0217029
0.0213202
0.0209069
0.0204637
0.0199921
0.0194939
0.0189714
0.0184273
0.0178622
0.0172919
0.213278
0.134362
0.089171
0.0653845
0.0520243
0.0437242
0.0380564
0.0339023
0.0307037
0.0281477
0.0260457
0.0242776
0.0227638
0.0214461
0.0202848
0.0192503
0.0183215
0.0174815
0.0167171
0.0160189
0.015379
0.0147909
0.0142488
0.0137482
0.0132855
0.0128574
0.012461
0.0120939
0.0117542
0.0114402
0.0111496
0.0108847
0.0106298
0.240256
0.00044289
0.0365828
2.18234e-05
0.000134865
7.81641e-05
0.000680585
0.000651228
0.000373846
0.000126133
0.000465416
0.000554631
0.00114646
0.00109307
0.00199472
0.00175784
0.00299608
0.0032411
0.00166627
0.000450695
0.000341303
0.000505672
0.00053265
0.000473649
0.000421153
0.000406893
0.000418109
0.000432045
0.00043974
0.000446866
0.000462538
0.000490865
0.000529836
0.200085
0.19994
0.199741
0.19954
0.199344
0.199147
0.198947
0.198741
0.198529
0.198308
0.19808
0.197846
0.1976
0.197339
0.197066
0.19678
0.196485
0.196181
0.195868
0.195551
0.195232
0.194911
0.19459
0.194272
0.193958
0.19365
0.19335
0.193059
0.19278
0.192513
0.19226
0.192026
0.191795
0.199876
0.199571
0.199245
0.198911
0.198577
0.198251
0.197934
0.197629
0.197336
0.197055
0.196788
0.196533
0.196289
0.196056
0.195834
0.195622
0.195418
0.195221
0.195031
0.194847
0.194668
0.194493
0.194321
0.194152
0.193984
0.193816
0.193648
0.19348
0.193309
0.193137
0.192962
0.192784
0.192602
0.0599129
0.0658046
0.0737638
0.099053
0.115595
0.111341
0.101986
0.0956795
0.0877821
0.0771307
0.0699819
0.071526
0.0806904
0.0938773
0.107847
0.119053
0.124616
0.12289
0.112071
0.0969123
0.0922905
0.0989706
0.0959746
0.0728834
0.0413051
0.0167817
0.00547468
0.00420339
0.00592176
0.00113383
0.0220434
0.0748265
0.122357
0.155589
0.181394
0.205335
0.227129
0.244512
0.256604
0.262395
0.260179
0.249734
0.228332
0.190955
0.137818
0.080872
0.0419046
0.035414
0.0541967
0.080338
0.101276
0.113592
0.118928
0.119814
0.11782
0.113253
0.105552
0.0941869
0.0797931
0.0648645
0.0533226
0.049005
0.0538984
0.0671529
0.0854104
0.104197
0.119581
0.129298
0.13299
0.131675
0.126854
0.119755
0.111008
0.100798
0.0892522
0.0767555
0.0640577
0.052183
0.0422596
0.0353366
0.032203
0.0331851
0.0380158
0.045893
0.0556631
0.066041
0.0757434
0.0836248
0.0887888
0.0904175
0.0868349
0.0759587
0.0592705
0.0463618
0.0443872
0.0503658
0.0575625
0.0597066
0.0483564
0.0385082
0.171085
0.168194
0.166391
0.162633
0.159258
0.156833
0.148647
0.122476
0.0973493
0.0820399
0.0734014
0.071026
0.0749286
0.0832522
0.0936499
0.1026
0.107049
0.104499
0.0948559
0.0878297
0.0937462
0.10104
0.0894375
0.0602065
0.0296436
0.0102701
0.00392321
0.00496132
0.00841806
0.00437848
0.00937329
0.0515193
0.104151
0.143448
0.170785
0.193189
0.213828
0.230566
0.241818
0.246168
0.242952
0.23118
0.207196
0.166442
0.112452
0.0610632
0.0344798
0.039843
0.0639387
0.0894485
0.107311
0.116675
0.120057
0.119891
0.117395
0.112586
0.104736
0.0932434
0.0787396
0.0637804
0.052374
0.0484083
0.0538194
0.0676001
0.0861986
0.105017
0.120139
0.129449
0.132782
0.131281
0.126464
0.119485
0.110875
0.100745
0.0891814
0.0765676
0.0636829
0.0516105
0.041556
0.0346405
0.0316861
0.0330099
0.0383045
0.0466742
0.0568523
0.067473
0.0772423
0.0850398
0.0899829
0.0912252
0.0870756
0.0755225
0.0581849
0.0446874
0.0423937
0.0487998
0.0572508
0.0611725
0.0515639
0.0396189
0.121793
0.128992
0.135926
0.142131
0.147412
0.152718
0.158346
0.156503
0.136641
0.106867
0.0842409
0.073333
0.0714649
0.075003
0.0810143
0.0868771
0.0897774
0.0870906
0.0828169
0.0875386
0.0996527
0.0994319
0.076944
0.0444454
0.0181675
0.00538641
0.00380835
0.00687975
0.0106231
0.00952223
0.00493257
0.0288747
0.0789528
0.125225
0.157388
0.180102
0.198917
0.214492
0.224736
0.228065
0.223943
0.210068
0.182482
0.138523
0.0855068
0.0438225
0.0319374
0.0478644
0.0747131
0.0978628
0.112088
0.118606
0.120325
0.119352
0.116505
0.111533
0.103576
0.0919877
0.0774242
0.06251
0.0513413
0.047835
0.0538462
0.0681854
0.0871024
0.105894
0.120689
0.129543
0.132484
0.130777
0.125948
0.119077
0.110601
0.100555
0.0889901
0.0762837
0.0632414
0.0510032
0.0408509
0.0339736
0.0312239
0.03291
0.0386835
0.0475744
0.0581995
0.069065
0.0788352
0.0864854
0.0913192
0.0926544
0.0888104
0.0775226
0.0599977
0.0458197
0.0429788
0.0494498
0.0586613
0.0639164
0.0560032
0.0421606
0.0320052
0.039227
0.0474292
0.0572091
0.0687516
0.0829598
0.102094
0.124989
0.140595
0.136718
0.115957
0.0933891
0.0790698
0.0735675
0.0734601
0.0755415
0.0768848
0.077482
0.0836784
0.0973083
0.104018
0.0889824
0.0579221
0.0275
0.00880383
0.00312084
0.0054116
0.00986628
0.0133096
0.0143491
0.00774963
0.0134196
0.0502395
0.0986797
0.137757
0.164253
0.182782
0.196603
0.205357
0.207506
0.201506
0.184876
0.153166
0.106773
0.0591346
0.032071
0.0354912
0.0590648
0.0856809
0.105015
0.115405
0.119402
0.119825
0.118295
0.11523
0.110157
0.102122
0.0904628
0.0758832
0.0610907
0.0502588
0.0473118
0.0539924
0.0689065
0.0881057
0.106802
0.121203
0.129549
0.132065
0.13013
0.125272
0.118489
0.110133
0.100176
0.0886335
0.075871
0.0627117
0.0503471
0.0401335
0.0333274
0.0308136
0.0328816
0.0391257
0.0485047
0.0595475
0.0706668
0.0804891
0.0880497
0.092788
0.0941889
0.0906772
0.0798449
0.0624371
0.0477586
0.0443331
0.050665
0.0603573
0.0667693
0.0607823
0.0456042
0.0011437
0.00221926
0.00403126
0.00699115
0.0116718
0.0193353
0.0329895
0.0565041
0.0880222
0.115905
0.127576
0.121525
0.106978
0.0936091
0.0853897
0.0819874
0.0821841
0.0884442
0.100278
0.107187
0.0957478
0.0670244
0.0353187
0.0128551
0.00338815
0.00377686
0.0085646
0.0137542
0.0170074
0.0185336
0.0141885
0.00876057
0.0257048
0.0658084
0.108565
0.141168
0.162822
0.176529
0.183674
0.18393
0.175554
0.15465
0.118297
0.0730665
0.037567
0.0285302
0.0449957
0.0720478
0.0956991
0.110414
0.117227
0.119206
0.118719
0.116846
0.113657
0.108517
0.100414
0.0886999
0.0741417
0.0595426
0.0491453
0.0468531
0.0542635
0.0697555
0.0891849
0.107705
0.12163
0.12941
0.131463
0.129261
0.12433
0.117599
0.109338
0.0994745
0.0879885
0.0752277
0.0620189
0.0495922
0.0393722
0.0326846
0.0304442
0.0329102
0.0396051
0.0494116
0.0607887
0.072082
0.0818841
0.0892808
0.0938635
0.0953384
0.0922883
0.0821388
0.0650594
0.0499479
0.0458229
0.0517979
0.0617275
0.0691648
0.0653284
0.0495827
1.85226e-05
0.000216496
0.00034351
0.000405668
0.00101813
0.00137894
0.00276887
0.00977693
0.0279248
0.0569642
0.0876361
0.109062
0.117292
0.116002
0.111434
0.108124
0.108689
0.111788
0.110542
0.0962609
0.068742
0.038232
0.0151939
0.00388459
0.00261274
0.0069501
0.0130793
0.0187065
0.0221426
0.0232912
0.0212236
0.0132284
0.012974
0.0349923
0.0715771
0.107021
0.133242
0.149405
0.156629
0.155196
0.142716
0.1164
0.0787625
0.0428548
0.0259152
0.0343588
0.0588894
0.0850214
0.103811
0.113848
0.117685
0.118216
0.117162
0.115101
0.111844
0.106648
0.0984784
0.0867187
0.0722174
0.0578807
0.0480132
0.0464664
0.0546556
0.070713
0.0903045
0.108553
0.121912
0.129057
0.130603
0.128105
0.123073
0.116373
0.108208
0.0984448
0.0870348
0.0743137
0.061114
0.0486976
0.0385441
0.0320364
0.0301105
0.0329888
0.0401138
0.0502866
0.0619189
0.0733439
0.0831624
0.09049
0.0949947
0.0965316
0.0938412
0.0842835
0.0675587
0.052089
0.0472539
0.052767
0.0627247
0.0709674
0.0692995
0.0537434
0.00237832
0.00212003
0.0018505
0.00154335
0.00110859
0.000346631
0.000216826
7.46024e-05
0.00249384
0.0124992
0.0323687
0.0572881
0.0796358
0.0948978
0.102981
0.106324
0.10604
0.0991529
0.0829467
0.0587209
0.0331636
0.0135671
0.00337941
0.00179974
0.00567053
0.0120839
0.0191299
0.0253133
0.0292018
0.0301168
0.0285905
0.0222246
0.013776
0.0168207
0.0369811
0.0656479
0.0918743
0.109737
0.117545
0.114348
0.0985052
0.0716301
0.0422594
0.0243821
0.0274134
0.0480557
0.074467
0.0962273
0.109436
0.11539
0.117037
0.11665
0.115285
0.113129
0.109824
0.104569
0.0963277
0.0845296
0.0701208
0.0561168
0.0468711
0.0461544
0.0551628
0.0717598
0.0914328
0.109307
0.122009
0.128461
0.12948
0.126709
0.121618
0.114982
0.106919
0.0972487
0.0859044
0.0732244
0.0600568
0.0476947
0.0376629
0.0313847
0.0298024
0.0330922
0.0406087
0.0510668
0.0628425
0.074293
0.0840621
0.0912975
0.095729
0.0973676
0.0951357
0.0863314
0.0701297
0.0543793
0.0487791
0.0536823
0.0633857
0.072071
0.0723242
0.0575662
0.00496994
0.00475331
0.00449936
0.00420216
0.00381364
0.0032508
0.0026854
0.00159263
0.000174538
0.00232593
0.00394249
0.0136854
0.0284766
0.0433307
0.0544732
0.0598062
0.058067
0.0491717
0.0350436
0.0197642
0.00785092
0.00155179
0.00118424
0.00501391
0.0114115
0.0192895
0.0274352
0.0343776
0.0387465
0.0398101
0.0379043
0.0328862
0.0235996
0.0155926
0.0177482
0.0309822
0.0485004
0.0627385
0.0690371
0.0649179
0.0511457
0.0332601
0.0210544
0.0233104
0.0407701
0.0657741
0.088804
0.104459
0.112492
0.115355
0.115591
0.114694
0.113174
0.11096
0.107606
0.102284
0.093964
0.0821368
0.0678589
0.0542602
0.0457281
0.0459194
0.0557781
0.0728847
0.0925594
0.109968
0.121953
0.127703
0.128224
0.125214
0.120083
0.113512
0.105544
0.0959581
0.0846783
0.0720468
0.0589285
0.0466487
0.0367742
0.0307585
0.0295346
0.0332183
0.0410731
0.0517316
0.0635396
0.0749054
0.084573
0.0917548
0.0962026
0.0980112
0.0962448
0.0881835
0.0725506
0.056584
0.0502155
0.0544469
0.0637056
0.0724769
0.0742151
0.0605163
0.00696516
0.00663644
0.0063065
0.0059779
0.00565794
0.00531215
0.0049453
0.00433338
0.00339544
0.00187595
0.00133708
0.00232266
0.00322632
0.00729661
0.012154
0.0145815
0.013492
0.00991606
0.00525277
0.00136162
0.00182235
0.00169927
0.00536007
0.0116228
0.0199561
0.0295252
0.0388455
0.0463781
0.0509779
0.0522479
0.0502016
0.0453948
0.0374203
0.0268651
0.0185213
0.0168508
0.0211117
0.0267859
0.0292413
0.026342
0.0203914
0.016921
0.0220223
0.0378614
0.060546
0.0829962
0.0997427
0.109325
0.113333
0.11418
0.113625
0.11247
0.11086
0.108593
0.105183
0.0997856
0.0913844
0.0795413
0.0654379
0.0523213
0.0445946
0.0457661
0.0564968
0.0740763
0.0936806
0.110554
0.121785
0.126835
0.126878
0.123642
0.118472
0.111955
0.104069
0.0945638
0.0833553
0.0707897
0.0577474
0.0455844
0.0359062
0.0301883
0.0293393
0.0334002
0.0415407
0.0523227
0.0640649
0.0752184
0.084649
0.0916858
0.0961295
0.0981508
0.0969348
0.0897272
0.0747829
0.0586766
0.0515241
0.0550414
0.0637787
0.0724187
0.0751874
0.0622959
0.0162118
0.0145991
0.0129918
0.0114208
0.00993614
0.00859762
0.00745822
0.00653073
0.00574713
0.00487068
0.00364979
0.00215145
0.000346985
0.00155486
0.000671764
0.000617721
9.51957e-05
0.000981101
0.00107441
0.0014713
0.00347439
0.00734458
0.013442
0.0220759
0.0326383
0.0436635
0.0534976
0.060909
0.0652335
0.0664737
0.064713
0.0601973
0.0532849
0.0439193
0.03335
0.0245294
0.0193891
0.0173401
0.0164567
0.0162274
0.0184733
0.0260697
0.0405464
0.0601216
0.0802253
0.0963304
0.106422
0.11119
0.112562
0.112277
0.111321
0.110022
0.108337
0.106012
0.102541
0.0970649
0.088584
0.076744
0.0628655
0.0503133
0.0434842
0.0457012
0.0573137
0.0753202
0.0947807
0.111056
0.121504
0.125856
0.125438
0.121991
0.116779
0.110305
0.102486
0.0930523
0.0819186
0.0694369
0.0565019
0.044497
0.0350603
0.02968
0.0292283
0.033657
0.042036
0.0528742
0.0644985
0.0754074
0.0845562
0.0913864
0.0957777
0.0979801
0.0972759
0.0908834
0.0766449
0.0604703
0.0525814
0.0554369
0.0637263
0.0722301
0.0757785
0.0631727
0.0406103
0.0370954
0.0333924
0.0295364
0.025595
0.021682
0.0179484
0.0145786
0.0117278
0.00947436
0.00770852
0.00619193
0.00475872
0.00367229
0.00294692
0.00273584
0.00294417
0.00357017
0.00485691
0.00719812
0.011232
0.0176849
0.0268354
0.03809
0.0500774
0.0611988
0.0702138
0.0765001
0.0799311
0.0808183
0.0794128
0.0757891
0.0701452
0.0627043
0.0538214
0.0447033
0.0370931
0.0321886
0.0304476
0.0324116
0.0388283
0.050185
0.0653596
0.0814575
0.0951352
0.10439
0.109214
0.11087
0.110783
0.109927
0.108751
0.107339
0.105578
0.103195
0.0996671
0.0941138
0.0855586
0.0737468
0.0601516
0.0482524
0.0424131
0.0457337
0.0582257
0.0766022
0.0958408
0.111457
0.121098
0.124761
0.123904
0.120256
0.115
0.108552
0.100784
0.0914124
0.0803568
0.067977
0.0551821
0.0433797
0.0342335
0.0292321
0.0291987
0.0339882
0.0425682
0.0533993
0.0648419
0.0754712
0.0843185
0.0908984
0.0951642
0.0974637
0.0972029
0.0916062
0.0781412
0.0620298
0.0535018
0.0557653
0.0636776
0.0720861
0.076361
0.0638185
0.0743776
0.070197
0.0655805
0.0605152
0.0550083
0.0491087
0.0429319
0.0366799
0.0306382
0.0251315
0.0204345
0.0166703
0.0138139
0.011755
0.0104749
0.00996362
0.0102992
0.0116863
0.0144917
0.0192343
0.0263715
0.0359481
0.0473412
0.0593392
0.0705481
0.0798569
0.0866975
0.0910207
0.0930752
0.0933237
0.092087
0.0894918
0.0855458
0.0803473
0.0741499
0.0675413
0.0616007
0.0575996
0.0566942
0.059502
0.0660617
0.0756951
0.086583
0.0964412
0.103607
0.10767
0.109231
0.109221
0.108408
0.107241
0.105902
0.104387
0.102557
0.10013
0.0965527
0.090925
0.0823038
0.0705521
0.0573079
0.0461572
0.0413996
0.0458726
0.0592288
0.0779075
0.0968422
0.111742
0.120559
0.123545
0.122267
0.118427
0.113119
0.106681
0.0989469
0.0896295
0.0786565
0.0663991
0.0537808
0.0422302
0.0334274
0.0288469
0.0292468
0.0343777
0.0431098
0.0538626
0.0650327
0.0752943
0.0837972
0.0901442
0.0943259
0.0967239
0.0968434
0.0919757
0.0793162
0.0633914
0.0543231
0.0560624
0.0636488
0.0719802
0.0769738
0.0645893
0.101893
0.0986839
0.0950314
0.0908774
0.0861595
0.0808212
0.0748407
0.0682696
0.0612729
0.0541461
0.0472858
0.0411072
0.0359486
0.0320208
0.0294394
0.0282786
0.0287964
0.0312455
0.035847
0.0426898
0.0515512
0.0617794
0.0723658
0.082207
0.0904171
0.0965227
0.100477
0.102537
0.10308
0.102548
0.101244
0.0993376
0.0968633
0.0938043
0.0902485
0.0865065
0.0831898
0.0811367
0.0811978
0.0836059
0.08808
0.0937938
0.0994435
0.103891
0.106616
0.107723
0.107638
0.106814
0.1056
0.104212
0.102737
0.101137
0.0992631
0.0968089
0.0931893
0.0874888
0.0788131
0.067162
0.0543475
0.0440476
0.0404616
0.0461253
0.060316
0.0792185
0.0977644
0.111893
0.119874
0.122197
0.120516
0.11649
0.111121
0.104674
0.0969566
0.0876852
0.0768014
0.0646901
0.05229
0.0410465
0.0326449
0.0285285
0.0293732
0.0348173
0.0436427
0.0542466
0.0650692
0.0748775
0.0829486
0.0890013
0.0930792
0.0955839
0.0960985
0.0920014
0.080267
0.0646857
0.055155
0.056392
0.0636676
0.0719205
0.0776118
0.0655505
0.121515
0.119236
0.116693
0.113837
0.110606
0.106924
0.102709
0.0979038
0.0925094
0.0866306
0.0805055
0.0744984
0.0690455
0.0645837
0.0614889
0.0600804
0.0605692
0.0630982
0.0676138
0.0738057
0.0810915
0.0886902
0.0957857
0.101714
0.10609
0.108833
0.110105
0.110208
0.109474
0.108225
0.106699
0.105055
0.103373
0.101664
0.0999297
0.0982665
0.0969185
0.0962642
0.096618
0.0979737
0.100057
0.102413
0.104466
0.105811
0.10631
0.106031
0.105145
0.103855
0.102361
0.100803
0.0992307
0.0975827
0.0956897
0.0932213
0.0895612
0.083788
0.0750749
0.0635768
0.0512834
0.0419438
0.0396159
0.0464957
0.0614759
0.0805136
0.0985836
0.11189
0.119026
0.120703
0.118636
0.114425
0.108981
0.102506
0.0947891
0.0855575
0.0747721
0.0628353
0.0507011
0.0398264
0.0318879
0.0282784
0.0295738
0.0352936
0.0441417
0.0545165
0.0649241
0.0742257
0.0818119
0.087518
0.0914543
0.0940533
0.0949713
0.0916917
0.0810087
0.0659124
0.0559558
0.056678
0.0636653
0.0718745
0.078266
0.0667031
0.134386
0.132729
0.130944
0.129007
0.126893
0.124562
0.121965
0.119051
0.115783
0.112165
0.108272
0.104282
0.100476
0.0972019
0.0948359
0.0936805
0.0938628
0.0954057
0.0981492
0.101744
0.105705
0.109506
0.112688
0.114948
0.116163
0.116376
0.115752
0.114522
0.112925
0.111157
0.109381
0.107726
0.106273
0.105058
0.104082
0.103339
0.102858
0.102695
0.102864
0.103321
0.103928
0.104525
0.104892
0.104859
0.10434
0.103346
0.101968
0.100355
0.098665
0.0970027
0.0953823
0.0937175
0.0918211
0.0893403
0.0856348
0.079791
0.0710688
0.0597934
0.0481287
0.0398656
0.0388761
0.0469821
0.0626905
0.0817653
0.0992718
0.11171
0.117997
0.119045
0.116604
0.112206
0.106671
0.100148
0.0924154
0.0832199
0.0725461
0.0608177
0.0490044
0.038567
0.0311573
0.0280954
0.0298397
0.0357889
0.0445829
0.0546479
0.0645815
0.0733479
0.0804362
0.0857746
0.0895289
0.0921687
0.0934381
0.0909575
0.0814031
0.0669559
0.0566844
0.0569234
0.0636918
0.0719096
0.0789845
0.0680169
0.144048
0.142651
0.141195
0.139671
0.138073
0.136394
0.134622
0.132744
0.13075
0.128641
0.126438
0.124203
0.122051
0.120143
0.118675
0.117791
0.117545
0.117911
0.118767
0.119905
0.121066
0.12199
0.122468
0.122371
0.12166
0.120384
0.118659
0.116648
0.11453
0.112416
0.110416
0.108631
0.107132
0.105952
0.105088
0.104503
0.104151
0.103961
0.103886
0.103859
0.10379
0.103605
0.103187
0.102437
0.101312
0.0998443
0.0981325
0.0963159
0.0945222
0.0928179
0.0911826
0.0895108
0.0876056
0.0851011
0.0813437
0.0754427
0.0667616
0.0558045
0.0448963
0.0378323
0.0382525
0.0475764
0.0639344
0.0829396
0.0997962
0.111326
0.116764
0.117198
0.114393
0.1098
0.104156
0.0975626
0.0898011
0.0806415
0.0700982
0.0586192
0.0471895
0.0372644
0.030451
0.0279727
0.0301535
0.0362715
0.0449215
0.0545826
0.0639701
0.0721672
0.0787577
0.0837425
0.0873197
0.0899803
0.0915549
0.0898379
0.0814641
0.067808
0.0573126
0.0570634
0.063697
0.071987
0.0797401
0.0694234
0.150436
0.149244
0.148019
0.146759
0.145461
0.144127
0.142757
0.141355
0.139928
0.138486
0.137045
0.13563
0.134279
0.133044
0.131978
0.131129
0.130505
0.130069
0.129753
0.129459
0.129068
0.128456
0.127522
0.126202
0.124478
0.12239
0.120026
0.117523
0.115039
0.112638
0.110402
0.108419
0.106756
0.105439
0.104454
0.103754
0.103267
0.102905
0.102591
0.10223
0.101737
0.101057
0.100121
0.0988846
0.0973515
0.0955826
0.0936839
0.0917751
0.0899476
0.0882286
0.0865718
0.0848669
0.0829232
0.0803757
0.0765707
0.0706541
0.0621032
0.0515981
0.0415993
0.0358624
0.0377504
0.0482623
0.0651734
0.0839953
0.100118
0.110705
0.115297
0.115132
0.111966
0.107168
0.101391
0.0947081
0.0869068
0.0777887
0.0674018
0.0562216
0.0452457
0.0359122
0.0297615
0.0278947
0.0304868
0.0367011
0.0451106
0.0542768
0.0630557
0.0706635
0.0767742
0.0814394
0.0848636
0.0875409
0.0893786
0.0883593
0.0811559
0.0684201
0.0578683
0.0571743
0.0637774
0.0721834
0.0805707
0.0708975
0.154552
0.153468
0.152372
0.151262
0.150137
0.148996
0.147841
0.146677
0.145507
0.144338
0.14318
0.142045
0.140947
0.139898
0.138908
0.137993
0.137127
0.136267
0.135371
0.134385
0.13324
0.131867
0.130204
0.128211
0.125884
0.123259
0.120422
0.117506
0.114675
0.111966
0.109446
0.107202
0.105298
0.103759
0.102563
0.101653
0.100948
0.100349
0.0997616
0.099087
0.0982459
0.0971963
0.0959008
0.094351
0.0925791
0.0906578
0.0886838
0.0867464
0.0848957
0.0831262
0.0813839
0.0795785
0.0775486
0.0749476