/*--------------------------------*- C++ -*----------------------------------*\
  =========                 |
  \\      /  F ield         | OpenFOAM: The Open Source CFD Toolbox
   \\    /   O peration     | Website:  https://openfoam.org
    \\  /    A nd           | Version:  10
     \\/     M anipulation  |
\*---------------------------------------------------------------------------*/
FoamFile
{
    format      ascii;
    class       volScalarField;
    location    "0.095";
    object      p;
}
// * * * * * * * * * * * * * * * * * * * * * * * * * * * * * * * * * * * * * //

dimensions      [0 2 -2 0 0 0 0];

internalField   nonuniform List<scalar> 
6820
(
-9.64926
-9.95078
-9.99392
-10.0055
-10.0321
-10.05
-10.0595
-10.0651
-10.0669
-10.0649
-10.0591
-10.0495
-10.0361
-10.0186
-9.99667
-9.97003
-9.93832
-9.90116
-9.85821
-9.8092
-9.75402
-9.6928
-9.6261
-9.55507
-9.48168
-9.409
-9.34132
-9.28445
-9.24522
-9.23166
-9.25158
-9.30631
-9.42091
-9.85129
-9.97534
-10.0092
-10.0208
-10.0418
-10.0568
-10.065
-10.0698
-10.0712
-10.0691
-10.0635
-10.0543
-10.0415
-10.0247
-10.0037
-9.97829
-9.94804
-9.91266
-9.87182
-9.82529
-9.77295
-9.71493
-9.65168
-9.58419
-9.51417
-9.44429
-9.37837
-9.32167
-9.2805
-9.26279
-9.27476
-9.32377
-9.40188
-9.85149
-9.9359
-9.99173
-10.0145
-10.0377
-10.0557
-10.0664
-10.073
-10.076
-10.0752
-10.071
-10.0632
-10.0518
-10.0367
-10.0178
-9.99475
-9.96749
-9.93582
-9.89961
-9.85888
-9.81374
-9.76461
-9.71217
-9.65759
-9.60253
-9.54934
-9.50099
-9.46118
-9.43392
-9.4232
-9.43204
-9.4591
-9.50227
-9.90903
-9.97797
-10.0234
-10.04
-10.0568
-10.0709
-10.0792
-10.0838
-10.0855
-10.0838
-10.079
-10.0709
-10.0596
-10.0448
-10.0265
-10.0045
-9.97857
-9.94869
-9.9148
-9.87698
-9.83546
-9.79072
-9.74356
-9.69517
-9.64721
-9.60187
-9.56179
-9.53001
-9.50954
-9.50277
-9.51078
-9.53043
-9.55832
-9.93989
-9.97785
-10.0145
-10.0339
-10.0521
-10.0676
-10.0777
-10.084
-10.0872
-10.087
-10.0837
-10.0772
-10.0675
-10.0545
-10.0381
-10.0184
-9.99508
-9.96829
-9.93805
-9.90453
-9.86809
-9.82927
-9.78893
-9.74821
-9.70865
-9.67212
-9.64076
-9.6168
-9.60225
-9.59823
-9.60461
-9.61758
-9.63313
-9.97091
-10.0008
-10.0359
-10.0558
-10.0717
-10.0849
-10.0936
-10.0987
-10.1008
-10.1
-10.0963
-10.0898
-10.0804
-10.068
-10.0526
-10.0342
-10.0127
-9.9882
-9.96079
-9.93072
-9.89838
-9.86435
-9.82947
-9.79483
-9.76179
-9.73195
-9.70703
-9.6887
-9.67825
-9.6761
-9.68146
-9.6908
-9.69976
-9.99733
-10.0165
-10.0429
-10.0597
-10.0735
-10.0859
-10.0947
-10.1005
-10.1036
-10.1039
-10.1016
-10.0965
-10.0887
-10.0781
-10.0649
-10.0489
-10.0302
-10.0089
-9.98518
-9.95938
-9.93194
-9.90345
-9.87474
-9.84681
-9.82086
-9.79823
-9.78027
-9.76815
-9.76264
-9.76367
-9.77015
-9.77907
-9.78655
-10.0213
-10.0351
-10.058
-10.0751
-10.0888
-10.1007
-10.1093
-10.1149
-10.1179
-10.1183
-10.1161
-10.1115
-10.1044
-10.0949
-10.083
-10.0687
-10.0521
-10.0334
-10.0128
-9.99067
-9.96744
-9.94374
-9.92034
-9.89815
-9.87824
-9.86169
-9.84957
-9.84272
-9.84159
-9.84594
-9.85469
-9.86556
-9.87558
-10.0433
-10.0531
-10.0712
-10.0857
-10.0974
-10.1077
-10.1156
-10.1211
-10.1242
-10.1252
-10.124
-10.1205
-10.1149
-10.1072
-10.0973
-10.0854
-10.0717
-10.0562
-10.0393
-10.0213
-10.0028
-9.98427
-9.96648
-9.95026
-9.93653
-9.9262
-9.9201
-9.91885
-9.92272
-9.93142
-9.94407
-9.95905
-9.97436
-10.0638
-10.071
-10.0859
-10.0993
-10.1105
-10.1206
-10.1286
-10.1343
-10.138
-10.1396
-10.1391
-10.1366
-10.1322
-10.1258
-10.1177
-10.1078
-10.0965
-10.0838
-10.0702
-10.0559
-10.0415
-10.0276
-10.0148
-10.0039
-9.99568
-9.99088
-9.99021
-9.99413
-10.0028
-10.0161
-10.0334
-10.0537
-10.0758
-10.0833
-10.0887
-10.1008
-10.1125
-10.1224
-10.1314
-10.1388
-10.1443
-10.148
-10.15
-10.1502
-10.1488
-10.1457
-10.141
-10.1349
-10.1274
-10.1188
-10.1093
-10.0992
-10.0889
-10.0789
-10.0698
-10.0621
-10.0566
-10.0539
-10.0546
-10.0595
-10.0688
-10.0828
-10.1013
-10.1241
-10.1506
-10.1805
-10.102
-10.1062
-10.1161
-10.1265
-10.1358
-10.1443
-10.1517
-10.1575
-10.1618
-10.1645
-10.1658
-10.1655
-10.1639
-10.1609
-10.1567
-10.1515
-10.1455
-10.1389
-10.1321
-10.1255
-10.1195
-10.1148
-10.1117
-10.1111
-10.1134
-10.1193
-10.1292
-10.1436
-10.1626
-10.1864
-10.2149
-10.2479
-10.2857
-10.1201
-10.1234
-10.1317
-10.1408
-10.1493
-10.1572
-10.1642
-10.17
-10.1745
-10.1778
-10.1798
-10.1805
-10.1802
-10.1789
-10.1767
-10.1738
-10.1704
-10.1669
-10.1635
-10.1606
-10.1587
-10.1582
-10.1598
-10.1639
-10.1712
-10.1821
-10.1971
-10.2166
-10.2409
-10.2701
-10.3045
-10.3441
-10.3895
-10.1377
-10.1404
-10.1474
-10.1555
-10.1634
-10.171
-10.1779
-10.184
-10.189
-10.1931
-10.1961
-10.1982
-10.1994
-10.1999
-10.1997
-10.1992
-10.1984
-10.1978
-10.1976
-10.1982
-10.2001
-10.2037
-10.2095
-10.2181
-10.2299
-10.2455
-10.2652
-10.2894
-10.3186
-10.353
-10.3928
-10.4385
-10.4908
-10.155
-10.1573
-10.1633
-10.1705
-10.1779
-10.1851
-10.192
-10.1982
-10.2037
-10.2083
-10.2123
-10.2155
-10.2181
-10.2202
-10.222
-10.2237
-10.2255
-10.2277
-10.2307
-10.2347
-10.2403
-10.2478
-10.2577
-10.2705
-10.2866
-10.3066
-10.3308
-10.3597
-10.3936
-10.4328
-10.4779
-10.5291
-10.5875
-10.172
-10.174
-10.1792
-10.1858
-10.1928
-10.1998
-10.2067
-10.2132
-10.2192
-10.2247
-10.2297
-10.2342
-10.2384
-10.2423
-10.2461
-10.2501
-10.2544
-10.2594
-10.2654
-10.2727
-10.2817
-10.2928
-10.3065
-10.3232
-10.3433
-10.3674
-10.3957
-10.4287
-10.4668
-10.5103
-10.5599
-10.6158
-10.6791
-10.1888
-10.1906
-10.1953
-10.2014
-10.208
-10.2149
-10.2219
-10.2287
-10.2352
-10.2415
-10.2474
-10.2531
-10.2587
-10.2643
-10.27
-10.2762
-10.2829
-10.2905
-10.2993
-10.3097
-10.3219
-10.3365
-10.3537
-10.374
-10.3979
-10.4256
-10.4576
-10.4944
-10.5363
-10.5836
-10.637
-10.6968
-10.764
-10.2055
-10.2071
-10.2114
-10.2171
-10.2235
-10.2304
-10.2375
-10.2447
-10.2518
-10.2589
-10.2659
-10.2728
-10.2799
-10.2872
-10.2949
-10.3032
-10.3123
-10.3224
-10.334
-10.3472
-10.3625
-10.3802
-10.4006
-10.4242
-10.4513
-10.4824
-10.5177
-10.5577
-10.6027
-10.6532
-10.7095
-10.7722
-10.842
-10.222
-10.2234
-10.2275
-10.2329
-10.2392
-10.2461
-10.2535
-10.2611
-10.2688
-10.2767
-10.2847
-10.2929
-10.3014
-10.3103
-10.3198
-10.3301
-10.3413
-10.3539
-10.3679
-10.3838
-10.4019
-10.4224
-10.4458
-10.4723
-10.5024
-10.5363
-10.5744
-10.6171
-10.6647
-10.7176
-10.7763
-10.8409
-10.9123
-10.2383
-10.2397
-10.2435
-10.2489
-10.2551
-10.2622
-10.2698
-10.2778
-10.2862
-10.2949
-10.3039
-10.3133
-10.3232
-10.3337
-10.345
-10.3572
-10.3706
-10.3854
-10.4018
-10.4202
-10.4408
-10.4639
-10.4898
-10.5189
-10.5515
-10.5878
-10.6283
-10.6731
-10.7227
-10.7773
-10.8373
-10.9029
-10.9749
-10.2545
-10.2558
-10.2596
-10.2648
-10.2711
-10.2783
-10.2863
-10.2948
-10.3038
-10.3134
-10.3234
-10.334
-10.3452
-10.3573
-10.3702
-10.3842
-10.3995
-10.4164
-10.4349
-10.4555
-10.4784
-10.5037
-10.5319
-10.5632
-10.5979
-10.6362
-10.6785
-10.7249
-10.7758
-10.8314
-10.8921
-10.9579
-11.0295
-10.2704
-10.2718
-10.2755
-10.2808
-10.2872
-10.2946
-10.3029
-10.3119
-10.3216
-10.332
-10.343
-10.3548
-10.3673
-10.3808
-10.3953
-10.411
-10.4281
-10.4468
-10.4673
-10.4899
-10.5147
-10.542
-10.5721
-10.6052
-10.6416
-10.6814
-10.725
-10.7725
-10.8241
-10.8801
-10.9406
-11.0059
-11.0762
-10.2862
-10.2875
-10.2913
-10.2966
-10.3032
-10.3109
-10.3196
-10.3291
-10.3395
-10.3507
-10.3627
-10.3755
-10.3893
-10.4041
-10.4201
-10.4374
-10.4561
-10.4765
-10.4988
-10.5231
-10.5496
-10.5786
-10.6103
-10.6448
-10.6824
-10.7234
-10.7677
-10.8157
-10.8675
-10.9233
-10.9831
-11.0471
-11.1155
-10.3017
-10.3031
-10.3068
-10.3123
-10.3191
-10.3271
-10.3362
-10.3463
-10.3573
-10.3693
-10.3822
-10.3961
-10.4111
-10.4271
-10.4444
-10.4631
-10.4833
-10.5052
-10.5289
-10.5547
-10.5827
-10.613
-10.6459
-10.6815
-10.72
-10.7615
-10.8063
-10.8543
-10.9057
-10.9607
-11.0193
-11.0814
-11.1474
-10.3168
-10.3182
-10.3221
-10.3278
-10.3348
-10.3431
-10.3527
-10.3633
-10.3751
-10.3879
-10.4017
-10.4166
-10.4326
-10.4498
-10.4684
-10.4883
-10.5099
-10.5331
-10.5581
-10.5851
-10.6142
-10.6456
-10.6794
-10.7157
-10.7547
-10.7965
-10.8412
-10.8888
-10.9395
-10.9932
-11.05
-11.1099
-11.1729
-10.3316
-10.333
-10.337
-10.3429
-10.3501
-10.3588
-10.3688
-10.3801
-10.3924
-10.406
-10.4206
-10.4364
-10.4534
-10.4717
-10.4913
-10.5124
-10.535
-10.5593
-10.5854
-10.6133
-10.6433
-10.6755
-10.7098
-10.7466
-10.7857
-10.8274
-10.8716
-10.9184
-10.9679
-11.02
-11.0747
-11.1319
-11.1917
-10.3458
-10.3474
-10.3515
-10.3576
-10.3652
-10.3743
-10.3848
-10.3966
-10.4096
-10.4239
-10.4393
-10.456
-10.474
-10.4932
-10.5138
-10.5359
-10.5595
-10.5847
-10.6117
-10.6404
-10.6711
-10.7037
-10.7384
-10.7752
-10.8142
-10.8554
-10.8989
-10.9446
-10.9925
-11.0427
-11.095
-11.1493
-11.2056
-10.3595
-10.3611
-10.3654
-10.3717
-10.3796
-10.389
-10.4
-10.4123
-10.4259
-10.4408
-10.457
-10.4744
-10.4932
-10.5132
-10.5347
-10.5575
-10.5819
-10.6079
-10.6354
-10.6647
-10.6958
-10.7286
-10.7634
-10.8
-10.8386
-10.879
-10.9215
-10.9658
-11.0119
-11.0599
-11.1095
-11.1608
-11.2136
-10.3725
-10.3741
-10.3786
-10.3853
-10.3935
-10.4035
-10.415
-10.4279
-10.4422
-10.4578
-10.4747
-10.4929
-10.5124
-10.5333
-10.5554
-10.579
-10.6041
-10.6306
-10.6586
-10.6883
-10.7195
-10.7524
-10.787
-10.8232
-10.8611
-10.9006
-10.9418
-10.9845
-11.0287
-11.0743
-11.1212
-11.1693
-11.2185
-10.3845
-10.3862
-10.391
-10.3978
-10.4064
-10.4167
-10.4286
-10.442
-10.4568
-10.4729
-10.4904
-10.5092
-10.5293
-10.5507
-10.5735
-10.5976
-10.6232
-10.6501
-10.6784
-10.7082
-10.7395
-10.7722
-10.8064
-10.8421
-10.8791
-10.9175
-10.9572
-10.9982
-11.0403
-11.0835
-11.1276
-11.1725
-11.2182
-10.3956
-10.3975
-10.4026
-10.4099
-10.4191
-10.43
-10.4425
-10.4565
-10.472
-10.4888
-10.5069
-10.5263
-10.547
-10.569
-10.5922
-10.6168
-10.6427
-10.6698
-10.6983
-10.7281
-10.7592
-10.7916
-10.8252
-10.8601
-10.8961
-10.9333
-10.9715
-11.0106
-11.0507
-11.0914
-11.1327
-11.1746
-11.2167
-10.4054
-10.4073
-10.4125
-10.42
-10.4294
-10.4406
-10.4535
-10.4679
-10.4838
-10.5011
-10.5197
-10.5396
-10.5608
-10.5833
-10.607
-10.6319
-10.6581
-10.6854
-10.714
-10.7437
-10.7746
-10.8066
-10.8396
-10.8736
-10.9086
-10.9444
-10.981
-11.0183
-11.0561
-11.0944
-11.133
-11.1718
-11.2107
-10.414
-10.4163
-10.4223
-10.4307
-10.4409
-10.4528
-10.4664
-10.4815
-10.4979
-10.5157
-10.5348
-10.5551
-10.5767
-10.5994
-10.6233
-10.6484
-10.6746
-10.702
-10.7304
-10.7598
-10.7902
-10.8216
-10.8539
-10.887
-10.9208
-10.9553
-10.9903
-11.0258
-11.0616
-11.0976
-11.1337
-11.1698
-11.2056
-10.4204
-10.4222
-10.4281
-10.4367
-10.4471
-10.4594
-10.4735
-10.4891
-10.5061
-10.5244
-10.5441
-10.565
-10.587
-10.6102
-10.6346
-10.66
-10.6864
-10.7138
-10.7422
-10.7714
-10.8015
-10.8323
-10.8639
-10.896
-10.9287
-10.9618
-10.9952
-11.0289
-11.0626
-11.0963
-11.1299
-11.1632
-11.1961
-10.4261
-10.4295
-10.4371
-10.4469
-10.4582
-10.4712
-10.4858
-10.5017
-10.519
-10.5376
-10.5573
-10.5783
-10.6004
-10.6236
-10.6478
-10.6731
-10.6994
-10.7265
-10.7545
-10.7833
-10.8129
-10.8431
-10.8738
-10.9051
-10.9367
-10.9686
-11.0007
-11.0329
-11.0649
-11.0968
-11.1284
-11.1596
-11.1901
-10.4254
-10.4276
-10.4352
-10.446
-10.4582
-10.4722
-10.4878
-10.5047
-10.523
-10.5425
-10.5631
-10.5848
-10.6076
-10.6313
-10.656
-10.6816
-10.7081
-10.7353
-10.7633
-10.7918
-10.821
-10.8506
-10.8806
-10.9109
-10.9414
-10.9719
-11.0025
-11.0329
-11.0631
-11.0929
-11.1222
-11.1509
-11.179
-10.4302
-10.4365
-10.4467
-10.4574
-10.4697
-10.4838
-10.4992
-10.5156
-10.5336
-10.5527
-10.573
-10.5944
-10.6168
-10.6403
-10.6647
-10.69
-10.7161
-10.743
-10.7706
-10.7988
-10.8275
-10.8567
-10.8862
-10.9159
-10.9457
-10.9756
-11.0054
-11.0349
-11.0642
-11.0929
-11.1211
-11.1487
-11.1753
-10.4122
-10.4177
-10.4318
-10.4465
-10.4619
-10.4788
-10.4967
-10.5156
-10.5351
-10.5556
-10.5771
-10.5996
-10.6226
-10.6467
-10.6716
-10.6973
-10.7235
-10.7504
-10.7778
-10.8057
-10.8339
-10.8624
-10.891
-10.9197
-10.9484
-10.9768
-11.0051
-11.0329
-11.0602
-11.087
-11.1131
-11.1384
-11.1628
-10.4261
-10.4368
-10.4493
-10.4605
-10.4738
-10.4886
-10.5045
-10.5215
-10.5398
-10.5593
-10.58
-10.6016
-10.6245
-10.6482
-10.6728
-10.6982
-10.7244
-10.7512
-10.7786
-10.8065
-10.8348
-10.8635
-10.8923
-10.9212
-10.9501
-10.9788
-11.0073
-11.0355
-11.0631
-11.0902
-11.1165
-11.142
-11.1666
-10.3309
-10.3987
-10.4267
-10.4433
-10.464
-10.4844
-10.5038
-10.5236
-10.544
-10.565
-10.5868
-10.6093
-10.6326
-10.6566
-10.6814
-10.7067
-10.7326
-10.7591
-10.7859
-10.8131
-10.8405
-10.868
-10.8956
-10.9231
-10.9504
-10.9774
-11.004
-11.0301
-11.0557
-11.0804
-11.1044
-11.1276
-11.1496
-9.49239
-9.88958
-9.046
-8.38323
-8.24176
-7.57136
-6.43926
-6.21892
-7.6984
-10.7075
-15.1039
-20.5244
-26.5006
-32.5429
-38.1241
-42.6289
-45.3759
-45.838
-43.8546
-39.8473
-34.6366
-28.9174
-22.894
-16.5938
-10.4706
-5.2903
-1.45068
1.1301
2.65565
3.16571
2.57375
0.304477
-4.53432
-12.1611
-21.6421
-31.4058
-40.1918
-47.3132
-52.4355
-55.3249
-55.8692
-53.9929
-49.896
-44.0047
-37.0384
-29.8972
-23.3535
-17.8048
-13.3146
-9.7743
-7.02974
-4.93309
-3.35408
-2.18157
-1.32385
-0.707227
-0.273606
0.022188
0.214989
0.331821
0.393817
0.417521
0.415905
0.398892
0.373648
0.344926
0.315553
0.287008
0.259972
0.234715
0.211326
0.189813
0.170139
0.152228
0.135984
0.121295
0.108041
0.0961098
0.0853782
0.0757293
0.0670346
0.0592029
0.0521291
0.0456693
0.0398834
0.0347826
0.0303448
0.0265459
0.0232809
0.0204744
0.0179051
0.0156119
0.0131907
0.0112059
0.00854259
0.00746453
0.0039705
0.00561671
-0.000954457
0.0077025
-9.5205
-9.66839
-9.19316
-8.8527
-8.37345
-7.08489
-5.6693
-5.95569
-7.69336
-10.5859
-14.6727
-19.7021
-25.2472
-30.8306
-35.9487
-40.0441
-42.5161
-42.9363
-41.1813
-37.6381
-32.9645
-27.6496
-21.8764
-15.8371
-10.0966
-5.30755
-1.7373
0.697447
2.14586
2.61818
2.011
-0.0924857
-4.42658
-11.2646
-19.9102
-29.0202
-37.3914
-44.2688
-49.2414
-52.0544
-52.5988
-50.8193
-46.9497
-41.4573
-35.0462
-28.5311
-22.5481
-17.4193
-13.2062
-9.83424
-7.18533
-5.13756
-3.57762
-2.40578
-1.53801
-0.905687
-0.453862
-0.139222
0.0720472
0.206359
0.284531
0.323001
0.334645
0.329333
0.314248
0.294232
0.272264
0.250006
0.228316
0.207616
0.188121
0.16994
0.153118
0.137652
0.123506
0.110621
0.0989251
0.0883415
0.0787831
0.0701617
0.062375
0.0553456
0.0489871
0.0431263
0.0378368
0.0331291
0.0289925
0.0254159
0.0223162
0.0196368
0.0171812
0.0149892
0.0126876
0.0107865
0.00826016
0.00717063
0.0039109
0.00526
-0.000598244
0.00674379
-9.53464
-9.58063
-9.19923
-8.68221
-8.14343
-7.31319
-6.48325
-6.43537
-7.76825
-10.6446
-14.5517
-19.132
-24.1437
-29.204
-33.8324
-37.5157
-39.7163
-40.0976
-38.5873
-35.5005
-31.2967
-26.3162
-20.7905
-15.0851
-9.79186
-5.40959
-2.10601
0.182216
1.54877
1.98164
1.37123
-0.595865
-4.48164
-10.5642
-18.3394
-26.7042
-34.5481
-41.0941
-45.8712
-48.5919
-49.1394
-47.4957
-43.9206
-38.8959
-33.0909
-27.2063
-21.7641
-17.0345
-13.0872
-9.88095
-7.32955
-5.33385
-3.79615
-2.62765
-1.75193
-1.10538
-0.636304
-0.303375
-0.0739
0.0778791
0.172354
0.225769
0.250893
0.257522
0.252841
0.241773
0.227439
0.211677
0.195516
0.179534
0.164071
0.149339
0.135469
0.122533
0.110556
0.0995342
0.0894397
0.0802329
0.071857
0.0642492
0.0573324
0.0510472
0.0453171
0.0400525
0.0352914
0.0310552
0.0273337
0.0241109
0.0213042
0.0188564
0.0165853
0.0145283
0.0123472
0.0105127
0.00811288
0.00699477
0.00395641
0.00496971
-0.000181687
0.00576677
-9.57041
-9.56508
-9.3101
-8.96172
-8.59366
-7.98851
-7.28606
-7.29625
-8.58631
-11.0887
-14.6163
-18.8166
-23.3049
-27.7742
-31.8538
-35.099
-37.0419
-37.4154
-36.1618
-33.4683
-29.6153
-24.8956
-19.6574
-14.3793
-9.57431
-5.59075
-2.54273
-0.401558
0.878119
1.26885
0.661728
-1.18763
-4.68072
-10.0584
-16.9625
-24.5178
-31.7433
-37.8729
-42.401
-45.0005
-45.5717
-44.1148
-40.9001
-36.3989
-31.2169
-25.9414
-21.0058
-16.6498
-12.9566
-9.91389
-7.46199
-5.52148
-4.0091
-2.84663
-1.96506
-1.30583
-0.820542
-0.469936
-0.222585
-0.0534541
0.0574004
0.125911
0.164702
0.183492
0.189451
0.187565
0.181091
0.172031
0.161585
0.15048
0.139185
0.128017
0.1172
0.10688
0.0971487
0.0880582
0.0796286
0.0718609
0.0647338
0.0582147
0.0522525
0.046805
0.0418124
0.0371929
0.0329763
0.0291849
0.0258168
0.0228663
0.0202687
0.0179826
0.01585
0.0139084
0.0118553
0.0101053
0.00784493
0.0067065
0.00391328
0.0046029
0.000202818
0.00474432
-9.63205
-9.60457
-9.42801
-9.16385
-8.87815
-8.51765
-8.21171
-8.4304
-9.5765
-11.7678
-14.884
-18.6333
-22.669
-26.6356
-30.1943
-32.9981
-34.7116
-35.0948
-33.9996
-31.5121
-27.8589
-23.3859
-18.5322
-13.7585
-9.44612
-5.83837
-3.03487
-1.04325
0.144549
0.491422
-0.104061
-1.84115
-4.99507
-9.74039
-15.8163
-22.5394
-29.0818
-34.7229
-38.9466
-41.4139
-42.0266
-40.7934
-37.9801
-34.0249
-29.4493
-24.7426
-20.274
-16.266
-12.8156
-9.93399
-7.58291
-5.70021
-4.21605
-3.06224
-2.17696
-1.50665
-1.00623
-0.638629
-0.373764
-0.187436
-0.0602041
0.023533
0.0761693
0.107319
0.124133
0.131653
0.133253
0.131094
0.126537
0.120461
0.113466
0.105979
0.0983111
0.0906896
0.0832747
0.0761752
0.0694605
0.0631708
0.0573187
0.0518985
0.0468838
0.0422516
0.0379605
0.0339692
0.0303048
0.0269969
0.0240485
0.0214541
0.0191532
0.0171057
0.0151683
0.013374
0.0114559
0.00978279
0.00766072
0.00649453
0.00394255
0.00427761
0.000630316
0.00370682
-9.69613
-9.66613
-9.54355
-9.35953
-9.17809
-9.00489
-8.95256
-9.32812
-10.4132
-12.3436
-15.0863
-18.4248
-22.039
-25.5939
-28.7608
-31.2343
-32.732
-32.9895
-31.8577
-29.4277
-25.9636
-21.8462
-17.4888
-13.2485
-9.40072
-6.13911
-3.56974
-1.72967
-0.636567
-0.334066
-0.911755
-2.53458
-5.3918
-9.5874
-14.9133
-20.8321
-26.6639
-31.7678
-35.649
-37.9727
-38.6306
-37.6392
-35.2407
-31.8163
-27.803
-23.6121
-19.5682
-15.8835
-12.6652
-9.94185
-7.69242
-5.86986
-4.41665
-3.27405
-2.3872
-1.70742
-1.19301
-0.809144
-0.527183
-0.32385
-0.180286
-0.0812612
-0.0146278
0.0290751
0.0569484
0.0740811
0.0839591
0.0888914
0.0903975
0.0895036
0.0869386
0.0832405
0.0788157
0.0739733
0.068945
0.0638998
0.0589575
0.0542004
0.0496767
0.0454114
0.0414052
0.0376553
0.034138
0.0308266
0.0277446
0.0249222
0.0223693
0.0200885
0.0180345
0.0161804
0.0144057
0.0127424
0.0109622
0.00937612
0.00739956
0.00620783
0.00391426
0.00390002
0.00104198
0.00264045
-9.78505
-9.76326
-9.68685
-9.57502
-9.47906
-9.42996
-9.52731
-9.99728
-11.0467
-12.7633
-15.129
-18.0165
-21.1888
-24.3411
-27.1504
-29.3058
-30.5116
-30.5747
-29.4218
-27.1551
-24.0381
-20.4083
-16.5896
-12.8527
-9.42295
-6.47883
-4.1347
-2.44651
-1.44839
-1.18862
-1.74446
-3.25053
-5.83975
-9.56099
-14.231
-19.4154
-24.5581
-29.1123
-32.6297
-34.7953
-35.4956
-34.741
-32.734
-29.7917
-26.2783
-22.5463
-18.8871
-15.5032
-12.5069
-9.93846
-7.79091
-6.0304
-4.61062
-3.48169
-2.59535
-1.90774
-1.38053
-0.981183
-0.682593
-0.462483
-0.302652
-0.188306
-0.107569
-0.0511513
-0.0120277
0.0149195
0.033272
0.045477
0.0532086
0.0576379
0.0596217
0.059814
0.0587212
0.0567363
0.0541625
0.05123
0.0481099
0.0449266
0.041764
0.0386762
0.0356895
0.032821
0.0300665
0.0274248
0.0249262
0.0226087
0.0204893
0.0185744
0.0168261
0.0152201
0.0136519
0.012147
0.0105147
0.00901406
0.0071856
0.00596428
0.00392928
0.00354169
0.00147917
0.00155393
-9.88133
-9.87511
-9.84067
-9.79274
-9.77357
-9.82529
-10.0327
-10.5568
-11.5469
-13.0675
-15.0995
-17.5403
-20.2123
-22.8761
-25.2526
-27.0454
-28.0017
-27.9833
-26.9478
-24.9841
-22.3064
-19.1771
-15.8493
-12.5533
-9.49528
-6.84457
-4.7167
-3.17776
-2.27233
-2.05177
-2.58288
-3.97227
-6.31352
-9.62029
-13.7246
-18.2651
-22.7807
-26.811
-29.9666
-31.9665
-32.6934
-32.1423
-30.4735
-27.9462
-24.8661
-21.5398
-18.23
-15.1267
-12.3422
-9.92478
-7.87879
-6.18186
-4.79778
-3.68483
-2.80106
-2.10726
-1.56846
-1.15445
-0.839735
-0.603119
-0.427119
-0.297429
-0.2025
-0.133237
-0.0826941
-0.0457492
-0.0187404
0.000906466
0.0150113
0.0248919
0.0315396
0.0357234
0.0380491
0.038996
0.0389417
0.0381795
0.0369336
0.0353723
0.0336165
0.0317516
0.0298311
0.0278933
0.0259535
0.0240255
0.0221427
0.0203452
0.0186563
0.0170899
0.0156214
0.0142373
0.0128548
0.0114969
0.0100132
0.00860347
0.00692814
0.00567773
0.00391553
0.00315462
0.00191594
0.000448615
-9.9897
-10.0021
-10.0049
-10.012
-10.0588
-10.1886
-10.4714
-11.0224
-11.9504
-13.3018
-15.0542
-17.119
-19.3476
-21.5456
-23.4898
-24.9521
-25.7358
-25.7076
-24.8236
-23.1544
-20.8619
-18.1513
-15.2366
-12.3244
-9.602
-7.22442
-5.30283
-3.90826
-3.09194
-2.90634
-3.40968
-4.68458
-6.79448
-9.73211
-13.345
-17.328
-21.2938
-24.8522
-27.6697
-29.5004
-30.2266
-29.8313
-28.4382
-26.2592
-23.5534
-20.5881
-17.5973
-14.7557
-12.1727
-9.90185
-7.95659
-6.3244
-4.97803
-3.88325
-3.00402
-2.30565
-1.75647
-1.32865
-0.998353
-0.745531
-0.553488
-0.408462
-0.299267
-0.217033
-0.154923
-0.107823
-0.0719994
-0.0447589
-0.0241404
-0.00868383
0.0027338
0.0109991
0.0168212
0.0207684
0.023294
0.0247553
0.0254302
0.0255314
0.0252167
0.024602
0.023767
0.0227707
0.0216483
0.0204324
0.0191669
0.0179002
0.0166639
0.0154781
0.0143277
0.0132032
0.0120386
0.0108496
0.00952519
0.00820788
0.00668939
0.00540613
0.00391851
0.00276494
0.00235994
-0.000681953
-10.1023
-10.1341
-10.1699
-10.223
-10.3235
-10.5111
-10.8434
-11.4031
-12.268
-13.4715
-14.9911
-16.7508
-18.6257
-20.4549
-22.0574
-23.2554
-23.8868
-23.8336
-23.0596
-21.6182
-19.6328
-17.2708
-14.7154
-12.1473
-9.73181
-7.60829
-5.88183
-4.6254
-3.89387
-3.73915
-4.21175
-5.37527
-7.2695
-9.87392
-13.0526
-16.5479
-20.0326
-23.1738
-25.6832
-27.3445
-28.0453
-27.7632
-26.5931
-24.7091
-22.3311
-19.6894
-16.9901
-14.392
-11.9999
-9.87072
-8.02494
-6.45829
-5.15137
-4.07677
-3.20397
-2.50261
-1.94427
-1.50351
-1.15819
-0.889484
-0.681547
-0.521211
-0.397698
-0.302393
-0.228586
-0.171186
-0.126402
-0.0914305
-0.0641751
-0.0430344
-0.0267522
-0.0143225
-0.00493178
0.00207876
0.00724001
0.0109749
0.0136162
0.015422
0.0165881
0.017262
0.0175505
0.0175346
0.0172688
0.016801
0.0161825
0.0154663
0.0146909
0.0138835
0.0130415
0.0121642
0.0112067
0.01018
0.00901551
0.00779344
0.00643614
0.00512101
0.00392082
0.00237133
0.00282118
-0.00181779
-10.2186
-10.2692
-10.3333
-10.4239
-10.5661
-10.7946
-11.1557
-11.7091
-12.5091
-13.5781
-14.8956
-16.3978
-17.9808
-19.5111
-20.8389
-21.8147
-22.3077
-22.2263
-21.54
-20.2862
-18.5622
-16.5052
-14.2701
-12.0123
-9.8766
-7.98797
-6.44467
-5.31927
-4.66771
-4.54004
-4.97974
-6.03538
-7.72922
-10.0318
-12.8226
-15.8845
-18.9415
-21.7093
-23.9365
-25.4332
-26.0946
-25.8968
-24.912
-23.2828
-21.194
-18.8427
-16.4093
-14.037
-11.8253
-9.83254
-8.08458
-6.58391
-5.31793
-4.26532
-3.40075
-2.69793
-2.13163
-1.67877
-1.319
-1.03474
-0.811073
-0.635469
-0.497602
-0.38914
-0.303524
-0.2357
-0.181831
-0.13901
-0.105009
-0.0780886
-0.0568594
-0.0401946
-0.0271736
-0.0170449
-0.00919879
-0.00314569
0.00150242
0.00504923
0.00772834
0.00971823
0.0111522
0.0121324
0.0127326
0.0130174
0.0130496
0.0128911
0.0125895
0.0121798
0.0116702
0.011065
0.0103368
0.00948837
0.00849309
0.00736901
0.0061765
0.00482447
0.00391286
0.00195111
0.00326845
-0.00298858
-10.335
-10.4027
-10.4905
-10.6104
-10.7836
-11.0392
-11.4134
-11.9494
-12.6843
-13.6315
-14.7718
-16.0511
-17.3837
-18.6593
-19.7545
-20.5453
-20.9279
-20.8272
-20.2165
-19.1243
-17.6282
-15.8403
-13.8901
-11.911
-10.0293
-8.3567
-6.98411
-5.98181
-5.40484
-5.30044
-5.70607
-6.65811
-8.16646
-10.1961
-12.64
-15.3149
-17.9881
-20.4178
-22.3859
-23.7267
-24.3431
-24.2099
-23.3811
-21.9725
-20.1386
-18.0472
-15.8553
-13.6919
-11.6502
-9.78849
-8.13637
-6.70177
-5.47792
-4.44896
-3.59427
-2.89144
-2.31832
-1.85421
-1.48054
-1.18107
-0.94183
-0.751009
-0.598764
-0.477076
-0.379557
-0.301205
-0.238146
-0.187376
-0.146542
-0.113764
-0.0875213
-0.0665629
-0.0498598
-0.0365666
-0.0259932
-0.0175825
-0.0108906
-0.00556776
-0.0013421
0.00199644
0.00460781
0.0066159
0.00811372
0.00918071
0.00988971
0.0103095
0.0104955
0.0104901
0.0103136
0.00997772
0.00947566
0.00880371
0.00797908
0.00695452
0.00593083
0.0045447
0.00393475
0.00155589
0.00375565
-0.00414796
-10.4492
-10.5318
-10.6389
-10.781
-10.9758
-11.2469
-11.6226
-12.1334
-12.8041
-13.6415
-14.627
-15.7148
-16.8339
-17.8936
-18.793
-19.4315
-19.7234
-19.6084
-19.0642
-18.1127
-16.8155
-15.2638
-13.5661
-11.8361
-10.184
-8.70893
-7.49424
-6.60644
-6.0983
-6.0136
-6.3847
-7.23818
-8.57549
-10.3589
-12.4934
-14.8237
-17.1539
-19.2786
-21.0101
-22.2048
-22.7727
-22.6876
-21.9891
-20.7708
-19.1606
-17.301
-15.3285
-13.358
-11.4761
-9.73982
-8.18124
-6.81248
-5.63169
-4.62782
-3.78452
-3.08305
-2.5042
-2.02964
-1.6426
-1.32822
-1.07357
-0.867587
-0.700946
-0.565977
-0.456479
-0.367515
-0.295184
-0.236391
-0.188656
-0.149964
-0.118657
-0.093362
-0.0729385
-0.0564451
-0.0431104
-0.0323098
-0.0235431
-0.0164147
-0.0106152
-0.00590365
-0.00209429
0.000957842
0.00336451
0.00522056
0.00661101
0.00761407
0.00829504
0.00870459
0.00887492
0.00882307
0.00856089
0.00807562
0.00742846
0.00650584
0.00565363
0.00422632
0.00391675
0.0011056
0.00420248
-0.00535807
-10.5595
-10.6545
-10.7763
-10.9342
-11.1424
-11.42
-11.7883
-12.2687
-12.8772
-13.6156
-14.4662
-15.3899
-16.3281
-17.2062
-17.942
-18.4536
-18.6718
-18.5475
-18.0624
-17.233
-16.1085
-14.7636
-13.2887
-11.7809
-10.3355
-9.0402
-7.97046
-7.18818
-6.7429
-6.67463
-7.0113
-7.77182
-8.95203
-10.5137
-12.3727
-14.3972
-16.422
-18.2734
-19.7905
-20.8482
-21.3652
-21.3145
-20.7244
-19.6695
-18.2555
-16.6027
-14.8289
-13.0363
-11.3043
-9.68783
-8.22021
-6.91679
-5.77973
-4.80216
-3.97162
-3.27274
-2.68918
-2.20489
-1.80497
-1.47597
-1.20605
-0.98494
-0.803887
-0.65559
-0.534054
-0.434419
-0.352759
-0.285892
-0.231214
-0.186573
-0.150174
-0.120516
-0.0963481
-0.0766309
-0.060511
-0.0472957
-0.0364288
-0.0274688
-0.0200691
-0.0139578
-0.00892364
-0.00480068
-0.00145882
0.00121143
0.00330642
0.00491277
0.00610468
0.00694069
0.00746509
0.00770134
0.00768167
0.00738511
0.00691826
0.00609889
0.00542154
0.00395856
0.00396405
0.000716174
0.00471963
-0.00653335
-10.6639
-10.7686
-10.9012
-11.0692
-11.2842
-11.561
-11.9156
-12.3626
-12.9114
-13.5606
-14.2934
-15.0768
-15.8617
-16.5875
-17.187
-17.594
-17.7525
-17.6228
-17.1899
-16.4666
-15.4925
-14.3286
-13.0504
-11.74
-10.4799
-9.34717
-8.40947
-7.72356
-7.33515
-7.28033
-7.58317
-8.25669
-9.29322
-10.6555
-12.2695
-14.0229
-15.7767
-17.3837
-18.7071
-19.6378
-20.1031
-20.076
-19.5757
-18.661
-17.4189
-15.9504
-14.3567
-12.7279
-11.1361
-9.63382
-8.25441
-7.01554
-5.92264
-4.9724
-4.15581
-3.46064
-2.87325
-2.37988
-1.96748
-1.62409
-1.339
-1.10278
-0.907296
-0.745632
-0.612017
-0.501673
-0.410655
-0.335694
-0.27406
-0.223461
-0.181964
-0.147939
-0.120019
-0.0970673
-0.0781487
-0.0625022
-0.0495163
-0.0387051
-0.0296853
-0.0221559
-0.0158808
-0.010674
-0.00638757
-0.00289725
-9.44231e-05
0.00211749
0.00382291
0.00508929
0.00597342
0.00650424
0.00673332
0.0066301
0.006347
0.00563182
0.00513044
0.00362211
0.00393702
0.000236359
0.00516215
-0.00778299
-10.7614
-10.8733
-11.0128
-11.1861
-11.4024
-11.673
-12.0094
-12.4212
-12.9135
-13.4825
-14.1128
-14.7758
-15.4312
-16.0293
-16.5156
-16.8366
-16.9472
-16.8155
-16.4293
-15.7986
-14.9554
-13.9497
-12.8443
-11.7089
-10.6141
-9.62746
-8.80915
-8.21049
-7.87303
-7.82896
-8.09897
-8.69165
-9.59732
-10.7808
-12.177
-13.6905
-15.2042
-16.5932
-17.7426
-18.5564
-18.9706
-18.9587
-18.5326
-17.7384
-16.6469
-15.3426
-13.9118
-12.4336
-10.973
-9.57916
-8.28503
-7.10972
-6.06118
-5.13907
-4.33745
-3.64694
-3.05649
-2.55457
-2.13001
-1.77238
-1.47215
-1.22081
-1.01085
-0.835785
-0.690065
-0.569
-0.468626
-0.385583
-0.317012
-0.260477
-0.213903
-0.175528
-0.143869
-0.117691
-0.0959743
-0.0778915
-0.0627765
-0.0500995
-0.0394419
-0.030474
-0.0229361
-0.0166227
-0.0113688
-0.00703625
-0.00350467
-0.000668022
0.00156786
0.00327877
0.00453382
0.00536776
0.00585243
0.00594775
0.00585281
0.00524378
0.00492194
0.00337325
0.00401703
-0.000136939
0.00571531
-0.00896422
-10.8507
-10.9673
-11.1105
-11.2852
-11.4984
-11.7586
-12.0739
-12.4504
-12.8897
-13.3869
-13.9276
-14.4878
-15.0338
-15.5251
-15.9176
-16.1684
-16.241
-16.1099
-15.7654
-15.2156
-14.4863
-13.6186
-12.6648
-11.6837
-10.7358
-9.87963
-9.16845
-8.64807
-8.35581
-8.32006
-8.55853
-9.07659
-9.8636
-10.8871
-12.0901
-13.3916
-14.6931
-15.8901
-16.8821
-17.589
-17.9537
-17.9505
-17.5857
-16.895
-15.9355
-14.7774
-13.494
-12.1542
-10.8161
-9.52519
-8.31335
-7.20043
-6.19624
-5.3029
-4.51708
-3.83202
-3.2391
-2.72901
-2.29247
-1.92063
-1.60523
-1.33869
-1.1142
-0.925691
-0.767856
-0.636088
-0.526395
-0.43532
-0.359869
-0.297456
-0.245856
-0.203174
-0.167809
-0.138425
-0.113922
-0.0934056
-0.0761584
-0.0616083
-0.0493034
-0.0388872
-0.0300778
-0.0226512
-0.0164258
-0.0112495
-0.00698989
-0.00353069
-0.000767095
0.00138587
0.00301027
0.00414632
0.00488575
0.00517866
0.0052711
0.00476636
0.00462452
0.00302247
0.0039812
-0.000644607
0.0061492
-0.0102542
-10.9315
-11.0505
-11.1945
-11.3673
-11.574
-11.8209
-12.1134
-12.4549
-12.8451
-13.2781
-13.741
-14.2131
-14.6669
-15.0691
-15.3841
-15.5777
-15.6205
-15.4922
-15.1851
-14.7059
-14.0757
-13.3282
-12.507
-11.6614
-10.8432
-10.103
-9.48716
-9.03641
-8.78379
-8.75417
-8.96257
-9.41216
-10.092
-10.9727
-12.0047
-13.1192
-14.2335
-15.2592
-16.1119
-16.722
-17.0397
-17.0404
-16.7263
-16.1245
-15.2808
-14.253
-13.1031
-11.8904
-10.6667
-9.47332
-8.34074
-7.28892
-6.32891
-5.46476
-4.69539
-4.01638
-3.42141
-2.90333
-2.45481
-2.06866
-1.73794
-1.45607
-1.21695
-1.01495
-0.845
-0.702574
-0.583638
-0.484624
-0.402392
-0.334196
-0.27766
-0.230748
-0.191739
-0.159197
-0.13194
-0.109011
-0.089641
-0.0732174
-0.0592574
-0.0473795
-0.0372812
-0.0287216
-0.021504
-0.0154635
-0.0104561
-0.00635568
-0.003047
-0.000436329
0.00157102
0.00302072
0.0040248
0.00452287
0.00480881
0.00441182
0.00445427
0.0028026
0.00410128
-0.000988197
0.0067456
-0.0114288
-11.0031
-11.1225
-11.265
-11.4332
-11.6309
-11.8626
-12.1316
-12.4394
-12.7843
-13.1601
-13.5554
-13.9525
-14.3285
-14.6566
-14.908
-15.0551
-15.0748
-14.9508
-14.6773
-14.2598
-13.7156
-13.0725
-12.3668
-11.6398
-10.9355
-10.2974
-9.76591
-9.37649
-9.15825
-9.1328
-9.31272
-9.69981
-10.2833
-11.0369
-11.9178
-12.8678
-13.8172
-14.6918
-15.4206
-15.9435
-16.2171
-16.2183
-15.9464
-15.4213
-14.6793
-13.7679
-12.7388
-11.643
-10.5258
-9.42494
-8.36865
-7.37656
-6.46045
-5.62577
-4.87332
-4.20073
-3.60388
-3.07776
-2.61707
-2.21631
-1.86998
-1.57255
-1.31865
-1.1031