/*--------------------------------*- C++ -*----------------------------------*\
  =========                 |
  \\      /  F ield         | OpenFOAM: The Open Source CFD Toolbox
   \\    /   O peration     | Website:  https://openfoam.org
    \\  /    A nd           | Version:  10
     \\/     M anipulation  |
\*---------------------------------------------------------------------------*/
FoamFile
{
    format      ascii;
    class       surfaceScalarField;
    location    "0.095";
    object      phi;
}
// * * * * * * * * * * * * * * * * * * * * * * * * * * * * * * * * * * * * * //

dimensions      [0 3 -1 0 0 0 0];

internalField   nonuniform List<scalar> 
13452
(
5.94506e-05
8.1788e-07
5.84636e-05
9.86967e-07
5.74312e-05
1.03245e-06
5.63651e-05
1.0661e-06
5.52928e-05
1.07224e-06
5.42251e-05
1.06776e-06
5.31644e-05
1.06067e-06
5.21118e-05
1.05258e-06
5.10672e-05
1.04461e-06
5.00296e-05
1.03759e-06
4.89975e-05
1.03208e-06
4.7969e-05
1.02852e-06
4.69416e-05
1.0274e-06
4.59124e-05
1.02925e-06
4.48777e-05
1.03468e-06
4.38333e-05
1.0444e-06
4.2774e-05
1.05926e-06
4.16938e-05
1.08024e-06
4.05853e-05
1.10844e-06
3.94402e-05
1.14512e-06
3.82486e-05
1.19159e-06
3.69995e-05
1.24916e-06
3.56805e-05
1.31899e-06
3.42786e-05
1.40186e-06
3.27808e-05
1.49782e-06
3.1175e-05
1.60581e-06
2.94519e-05
1.72311e-06
2.7607e-05
1.84487e-06
2.56439e-05
1.96308e-06
2.35746e-05
2.06938e-06
2.14345e-05
2.1401e-06
1.92419e-05
2.19256e-06
2.07665e-06
1.71653e-05
6.24906e-05
3.17643e-07
6.29665e-05
5.11046e-07
6.34142e-05
5.84721e-07
6.38243e-05
6.56015e-07
6.41891e-05
7.0742e-07
6.45081e-05
7.48761e-07
6.47824e-05
7.86426e-07
6.50137e-05
8.213e-07
6.5204e-05
8.54298e-07
6.53551e-05
8.86445e-07
6.54686e-05
9.18547e-07
6.55458e-05
9.51365e-07
6.55875e-05
9.85719e-07
6.55942e-05
1.02251e-06
6.55661e-05
1.06278e-06
6.55028e-05
1.10772e-06
6.54033e-05
1.15874e-06
6.52661e-05
1.2175e-06
6.50886e-05
1.28594e-06
6.48674e-05
1.36628e-06
6.4598e-05
1.46103e-06
6.42742e-05
1.5729e-06
6.38885e-05
1.70469e-06
6.34313e-05
1.85903e-06
6.28912e-05
2.03792e-06
6.22549e-05
2.24216e-06
6.15075e-05
2.47054e-06
6.06337e-05
2.7186e-06
5.96189e-05
2.97788e-06
5.84543e-05
3.23402e-06
5.71284e-05
3.46605e-06
5.56711e-05
3.64986e-06
3.73788e-06
5.40098e-05
6.38338e-05
2.4526e-07
6.39075e-05
4.37337e-07
6.39735e-05
5.18743e-07
6.40411e-05
5.88367e-07
6.41097e-05
6.38793e-07
6.41815e-05
6.76972e-07
6.42576e-05
7.10377e-07
6.4338e-05
7.40869e-07
6.44227e-05
7.69645e-07
6.45112e-05
7.97926e-07
6.46031e-05
8.26648e-07
6.46978e-05
8.56622e-07
6.47949e-05
8.88671e-07
6.48937e-05
9.23665e-07
6.49939e-05
9.62566e-07
6.50952e-05
1.00647e-06
6.51973e-05
1.05664e-06
6.53002e-05
1.11456e-06
6.54042e-05
1.18195e-06
6.55097e-05
1.26079e-06
6.56174e-05
1.35331e-06
6.57284e-05
1.46196e-06
6.58437e-05
1.58937e-06
6.59646e-05
1.73811e-06
6.60921e-05
1.91046e-06
6.62262e-05
2.10798e-06
6.63659e-05
2.33089e-06
6.65073e-05
2.57714e-06
6.66435e-05
2.84175e-06
6.67627e-05
3.11475e-06
6.68465e-05
3.38225e-06
6.68736e-05
3.62275e-06
3.8129e-06
6.67986e-05
6.56399e-05
1.88474e-07
6.56898e-05
3.8736e-07
6.57225e-05
4.86054e-07
6.57464e-05
5.64541e-07
6.57621e-05
6.23064e-07
6.57715e-05
6.67528e-07
6.5776e-05
7.05851e-07
6.57763e-05
7.40614e-07
6.57728e-05
7.73178e-07
6.57658e-05
8.04878e-07
6.57557e-05
8.36772e-07
6.57426e-05
8.69746e-07
6.57266e-05
9.04664e-07
6.57078e-05
9.42413e-07
6.56865e-05
9.83943e-07
6.56626e-05
1.03029e-06
6.56366e-05
1.08263e-06
6.56089e-05
1.14228e-06
6.55802e-05
1.21069e-06
6.55515e-05
1.28948e-06
6.55244e-05
1.38038e-06
6.55012e-05
1.48519e-06
6.54849e-05
1.60568e-06
6.54796e-05
1.7434e-06
6.54906e-05
1.89948e-06
6.55242e-05
2.0743e-06
6.5588e-05
2.26711e-06
6.56896e-05
2.47552e-06
6.58362e-05
2.69519e-06
6.60318e-05
2.91912e-06
6.62763e-05
3.13783e-06
6.65584e-05
3.34066e-06
3.51193e-06
6.68593e-05
6.74898e-05
1.55506e-07
6.75286e-05
3.48514e-07
6.75593e-05
4.55343e-07
6.75857e-05
5.38158e-07
6.76061e-05
6.02632e-07
6.76204e-05
6.53269e-07
6.76291e-05
6.97125e-07
6.76326e-05
7.3712e-07
6.7631e-05
7.74774e-07
6.76244e-05
8.11503e-07
6.76127e-05
8.48465e-07
6.75958e-05
8.86616e-07
6.75736e-05
9.2687e-07
6.75459e-05
9.70147e-07
6.75124e-05
1.01741e-06
6.7473e-05
1.06968e-06
6.74276e-05
1.1281e-06
6.73759e-05
1.19389e-06
6.73182e-05
1.2684e-06
6.72547e-05
1.35303e-06
6.71858e-05
1.44925e-06
6.71125e-05
1.55849e-06
6.70362e-05
1.68202e-06
6.69588e-05
1.8208e-06
6.6883e-05
1.97529e-06
6.68122e-05
2.1451e-06
6.67505e-05
2.32877e-06
6.67026e-05
2.52342e-06
6.66732e-05
2.72461e-06
6.6666e-05
2.92636e-06
6.66828e-05
3.12101e-06
6.67209e-05
3.30256e-06
3.46111e-06
6.67717e-05
6.94109e-05
1.28593e-07
6.94474e-05
3.12015e-07
6.9477e-05
4.2574e-07
6.95013e-05
5.13856e-07
6.95198e-05
5.84192e-07
6.95325e-05
6.40596e-07
6.95401e-05
6.89435e-07
6.95432e-05
7.34041e-07
6.95419e-05
7.76128e-07
6.95361e-05
8.17227e-07
6.9526e-05
8.58597e-07
6.95114e-05
9.01266e-07
6.9492e-05
9.4619e-07
6.94679e-05
9.94314e-07
6.94387e-05
1.04661e-06
6.94043e-05
1.10408e-06
6.93645e-05
1.16784e-06
6.93194e-05
1.23902e-06
6.92689e-05
1.31887e-06
6.92133e-05
1.40863e-06
6.9153e-05
1.50956e-06
6.90887e-05
1.62284e-06
6.90213e-05
1.74943e-06
6.89521e-05
1.88997e-06
6.88828e-05
2.04458e-06
6.88152e-05
2.21265e-06
6.87514e-05
2.39265e-06
6.86928e-05
2.58195e-06
6.86407e-05
2.77676e-06
6.85946e-05
2.97247e-06
6.85519e-05
3.16363e-06
6.85078e-05
3.34669e-06
3.5168e-06
6.84521e-05
7.13842e-05
1.10693e-07
7.1412e-05
2.84274e-07
7.14363e-05
4.01412e-07
7.14576e-05
4.92553e-07
7.14751e-05
5.66714e-07
7.14881e-05
6.27625e-07
7.14967e-05
6.80818e-07
7.15011e-05
7.29637e-07
7.15012e-05
7.75978e-07
7.14971e-05
8.21334e-07
7.14887e-05
8.66999e-07
7.14759e-05
9.14041e-07
7.14587e-05
9.63432e-07
7.14369e-05
1.01612e-06
7.14104e-05
1.07307e-06
7.13793e-05
1.13525e-06
7.13434e-05
1.20371e-06
7.13029e-05
1.2795e-06
7.1258e-05
1.36374e-06
7.12092e-05
1.45751e-06
7.11569e-05
1.56187e-06
7.1102e-05
1.67774e-06
7.10455e-05
1.80585e-06
7.09889e-05
1.94656e-06
7.09337e-05
2.0998e-06
7.08815e-05
2.26486e-06
7.08338e-05
2.44033e-06
7.07918e-05
2.62402e-06
7.07555e-05
2.81303e-06
7.07238e-05
3.00412e-06
7.06935e-05
3.19395e-06
7.06593e-05
3.38095e-06
3.56385e-06
7.06122e-05
7.34187e-05
9.72334e-08
7.34429e-05
2.60138e-07
7.3466e-05
3.78263e-07
7.34867e-05
4.71884e-07
7.35037e-05
5.49675e-07
7.35163e-05
6.15031e-07
7.35246e-05
6.7259e-07
7.35286e-05
7.25601e-07
7.35285e-05
7.76023e-07
7.35244e-05
8.25466e-07
7.35162e-05
8.75217e-07
7.35039e-05
9.2637e-07
7.34874e-05
9.79918e-07
7.34667e-05
1.03681e-06
7.34418e-05
1.09799e-06
7.34126e-05
1.1644e-06
7.33793e-05
1.23699e-06
7.33421e-05
1.31675e-06
7.33012e-05
1.40464e-06
7.32571e-05
1.50159e-06
7.32105e-05
1.60848e-06
7.31622e-05
1.72601e-06
7.31134e-05
1.85469e-06
7.30653e-05
1.99468e-06
7.30193e-05
2.14576e-06
7.2977e-05
2.3072e-06
7.29395e-05
2.47776e-06
7.29079e-05
2.65566e-06
7.28821e-05
2.83879e-06
7.28613e-05
3.02499e-06
7.28428e-05
3.21243e-06
7.28229e-05
3.40085e-06
3.59071e-06
7.2796e-05
7.55123e-05
8.73773e-08
7.55317e-05
2.40729e-07
7.55513e-05
3.58666e-07
7.55692e-05
4.53985e-07
7.55845e-05
5.34399e-07
7.55963e-05
6.03196e-07
7.56045e-05
6.64384e-07
7.5609e-05
7.21139e-07
7.56097e-05
7.7533e-07
7.56067e-05
8.28511e-07
7.55998e-05
8.82028e-07
7.55892e-05
9.36992e-07
7.55748e-05
9.94389e-07
7.55564e-05
1.05515e-06
7.55342e-05
1.12017e-06
7.55083e-05
1.19034e-06
7.54787e-05
1.26656e-06
7.54458e-05
1.34968e-06
7.54099e-05
1.44056e-06
7.53715e-05
1.53998e-06
7.53313e-05
1.64863e-06
7.52903e-05
1.76706e-06
7.52494e-05
1.89557e-06
7.52099e-05
2.0342e-06
7.5173e-05
2.18265e-06
7.514e-05
2.34023e-06
7.51119e-05
2.50588e-06
7.50893e-05
2.67822e-06
7.50723e-05
2.85575e-06
7.50602e-05
3.03712e-06
7.50512e-05
3.22148e-06
7.50427e-05
3.40933e-06
3.60176e-06
7.50316e-05
7.76671e-05
7.98905e-08
7.76833e-05
2.24463e-07
7.77011e-05
3.40917e-07
7.7718e-05
4.37098e-07
7.77328e-05
5.19554e-07
7.77446e-05
5.91392e-07
7.7753e-05
6.5599e-07
7.7758e-05
7.16165e-07
7.77595e-05
7.73857e-07
7.77574e-05
8.30608e-07
7.77517e-05
8.87713e-07
7.77424e-05
9.46263e-07
7.77296e-05
1.00723e-06
7.77132e-05
1.0715e-06
7.76934e-05
1.13995e-06
7.76704e-05
1.21341e-06
7.76442e-05
1.29268e-06
7.76154e-05
1.37853e-06
7.75843e-05
1.47169e-06
7.75514e-05
1.57282e-06
7.75176e-05
1.68245e-06
7.74837e-05
1.80097e-06
7.74507e-05
1.92856e-06
7.74197e-05
2.06517e-06
7.73919e-05
2.21045e-06
7.73684e-05
2.36378e-06
7.73499e-05
2.52429e-06
7.73372e-05
2.69094e-06
7.73303e-05
2.86269e-06
7.73286e-05
3.03877e-06
7.73312e-05
3.21889e-06
7.73367e-05
3.40386e-06
3.59484e-06
7.73436e-05
7.98841e-05
7.40858e-08
7.98976e-05
2.10962e-07
7.99131e-05
3.25413e-07
7.99282e-05
4.22009e-07
7.99417e-05
5.06029e-07
7.99528e-05
5.80329e-07
7.9961e-05
6.47802e-07
7.99661e-05
7.11027e-07
7.99681e-05
7.71846e-07
7.9967e-05
8.3176e-07
7.99627e-05
8.92032e-07
7.99552e-05
9.53739e-07
7.99446e-05
1.01783e-06
7.99309e-05
1.08516e-06
7.99144e-05
1.15654e-06
7.9895e-05
1.23273e-06
7.98732e-05
1.31447e-06
7.98494e-05
1.40241e-06
7.98239e-05
1.49718e-06
7.97974e-05
1.5993e-06
7.97707e-05
1.70917e-06
7.97446e-05
1.82707e-06
7.97201e-05
1.95306e-06
7.96982e-05
2.08702e-06
7.96801e-05
2.2286e-06
7.96666e-05
2.37726e-06
7.96586e-05
2.53227e-06
7.96567e-05
2.69286e-06
7.96611e-05
2.85833e-06
7.96716e-05
3.02824e-06
7.96879e-05
3.20259e-06
7.97095e-05
3.38225e-06
3.56812e-06
7.97362e-05
8.21651e-05
6.94672e-08
8.21764e-05
1.99576e-07
8.21903e-05
3.11573e-07
8.22043e-05
4.08005e-07
8.22173e-05
4.93039e-07
8.22283e-05
5.69266e-07
8.2237e-05
6.39176e-07
8.22429e-05
7.05056e-07
8.22461e-05
7.68669e-07
8.22464e-05
8.31456e-07
8.22438e-05
8.94624e-07
8.22384e-05
9.59201e-07
8.22301e-05
1.02609e-06
8.22192e-05
1.09609e-06
8.22057e-05
1.16997e-06
8.21901e-05
1.24841e-06
8.21725e-05
1.33205e-06
8.21534e-05
1.42147e-06
8.21334e-05
1.51717e-06
8.21132e-05
1.61958e-06
8.20934e-05
1.72897e-06
8.20749e-05
1.84552e-06
8.20588e-05
1.96922e-06
8.20459e-05
2.09989e-06
8.20373e-05
2.23719e-06
8.20339e-05
2.38062e-06
8.20366e-05
2.52962e-06
8.20459e-05
2.68356e-06
8.20623e-05
2.84197e-06
8.20859e-05
3.00457e-06
8.2117e-05
3.17146e-06
8.21559e-05
3.34336e-06
3.52078e-06
8.22033e-05
8.45115e-05
6.56922e-08
8.45213e-05
1.89869e-07
8.45336e-05
2.99234e-07
8.45465e-05
3.95141e-07
8.45587e-05
4.80812e-07
8.45694e-05
5.58536e-07
8.45781e-05
6.30462e-07
8.45846e-05
6.98623e-07
8.45886e-05
7.64662e-07
8.45901e-05
8.29935e-07
8.45891e-05
8.95584e-07
8.45857e-05
9.62587e-07
8.458e-05
1.0318e-06
8.45722e-05
1.10397e-06
8.45623e-05
1.1798e-06
8.45508e-05
1.2599e-06
8.4538e-05
1.34484e-06
8.45244e-05
1.43508e-06
8.45105e-05
1.53105e-06
8.44971e-05
1.63304e-06
8.44848e-05
1.74126e-06
8.44745e-05
1.85578e-06
8.44672e-05
1.97653e-06
8.44638e-05
2.10329e-06
8.44653e-05
2.23572e-06
8.44725e-05
2.37339e-06
8.44863e-05
2.51578e-06
8.45075e-05
2.66242e-06
8.45366e-05
2.8129e-06
8.45741e-05
2.96703e-06
8.46207e-05
3.12484e-06
8.46773e-05
3.2868e-06
3.45306e-06
8.4745e-05
8.69253e-05
6.25238e-08
8.69337e-05
1.8146e-07
8.69449e-05
2.8809e-07
8.69569e-05
3.83109e-07
8.69687e-05
4.68994e-07
8.69795e-05
5.47746e-07
8.69888e-05
6.21232e-07
8.69961e-05
6.91253e-07
8.70015e-05
7.59318e-07
8.70047e-05
8.26689e-07
8.70059e-05
8.9444e-07
8.7005e-05
9.63483e-07
8.70022e-05
1.03461e-06
8.69976e-05
1.10852e-06
8.69916e-05
1.18583e-06
8.69844e-05
1.26708e-06
8.69765e-05
1.35274e-06
8.69684e-05
1.44322e-06
8.69606e-05
1.53881e-06
8.69539e-05
1.63975e-06
8.6949e-05
1.74613e-06
8.69468e-05
1.85796e-06
8.69482e-05
1.97512e-06
8.69542e-05
2.09736e-06
8.69656e-05
2.22433e-06
8.69833e-05
2.35563e-06
8.70083e-05
2.4908e-06
8.70413e-05
2.62939e-06
8.70832e-05
2.77105e-06
8.71347e-05
2.91555e-06
8.71967e-05
3.0628e-06
8.72705e-05
3.213e-06
3.36597e-06
8.73576e-05
8.94083e-05
5.97914e-08
8.94157e-05
1.74039e-07
8.94259e-05
2.77905e-07
8.94372e-05
3.71763e-07
8.94487e-05
4.57523e-07
8.94595e-05
5.36914e-07
8.94692e-05
6.11564e-07
8.94774e-05
6.83054e-07
8.9484e-05
7.52757e-07
8.94888e-05
8.21829e-07
8.9492e-05
8.91262e-07
8.94936e-05
9.619e-07
8.94937e-05
1.03447e-06
8.94926e-05
1.1096e-06
8.94906e-05
1.18785e-06
8.9488e-05
1.26967e-06
8.94853e-05
1.35546e-06
8.9483e-05
1.44553e-06
8.94817e-05
1.54011e-06
8.94821e-05
1.63934e-06
8.9485e-05
1.74324e-06
8.94912e-05
1.85176e-06
8.95016e-05
1.96472e-06
8.95171e-05
2.08185e-06
8.95387e-05
2.20279e-06
8.95671e-05
2.32714e-06
8.96035e-05
2.45446e-06
8.96486e-05
2.58432e-06
8.97033e-05
2.71633e-06
8.97686e-05
2.85021e-06
8.98457e-05
2.9857e-06
8.9936e-05
3.12275e-06
3.26092e-06
9.0041e-05
9.19623e-05
5.73709e-08
9.1969e-05
1.67355e-07
9.19784e-05
2.68447e-07
9.19893e-05
3.60894e-07
9.20006e-05
4.46189e-07
9.20117e-05
5.25818e-07
9.20221e-05
6.01205e-07
9.20314e-05
6.73738e-07
9.20395e-05
7.44649e-07
9.20463e-05
8.14993e-07
9.20519e-05
8.85674e-07
9.20564e-05
9.57463e-07
9.20598e-05
1.03102e-06
9.20625e-05
1.10689e-06
9.20648e-05
1.18557e-06
9.2067e-05
1.26743e-06
9.20697e-05
1.35279e-06
9.20733e-05
1.44189e-06
9.20786e-05
1.53488e-06
9.20861e-05
1.63181e-06
9.20967e-05
1.73265e-06
9.21112e-05
1.83728e-06
9.21304e-05
1.94548e-06
9.21553e-05
2.05695e-06
9.21868e-05
2.17133e-06
9.22257e-05
2.28819e-06
9.22731e-05
2.40709e-06
9.23298e-05
2.52759e-06
9.23969e-05
2.64925e-06
9.24754e-05
2.7717e-06
9.25666e-05
2.89454e-06
9.26719e-05
3.01749e-06
3.13992e-06
9.27929e-05
9.45894e-05
5.51687e-08
9.45955e-05
1.61199e-07
9.46045e-05
2.59507e-07
9.4615e-05
3.50325e-07
9.46264e-05
4.34846e-07
9.46378e-05
5.14348e-07
9.4649e-05
5.90076e-07
9.46595e-05
6.63246e-07
9.46692e-05
7.34956e-07
9.4678e-05
8.06152e-07
9.4686e-05
8.77648e-07
9.46933e-05
9.50134e-07
9.47002e-05
1.02419e-06
9.47068e-05
1.10031e-06
9.47134e-05
1.17889e-06
9.47206e-05
1.26025e-06
9.47288e-05
1.34462e-06
9.47385e-05
1.43217e-06
9.47504e-05
1.52298e-06
9.47652e-05
1.61704e-06
9.47836e-05
1.71426e-06
9.48064e-05
1.81445e-06
9.48345e-05
1.91738e-06
9.48687e-05
2.02269e-06
9.49101e-05
2.13002e-06
9.49593e-05
2.23891e-06
9.50175e-05
2.34892e-06
9.50855e-05
2.45955e-06
9.51644e-05
2.57034e-06
9.52553e-05
2.68081e-06
9.53594e-05
2.79044e-06
9.54782e-05
2.89877e-06
3.00506e-06
9.5613e-05
9.72916e-05
5.31125e-08
9.72974e-05
1.55397e-07
9.7306e-05
2.50894e-07
9.73164e-05
3.39873e-07
9.7328e-05
4.23318e-07
9.734e-05
5.0233e-07
9.73521e-05
5.77998e-07
9.73639e-05
6.51386e-07
9.73754e-05
7.23462e-07
9.73865e-05
7.95069e-07
9.73972e-05
8.66927e-07
9.74077e-05
9.39647e-07
9.74182e-05
1.01373e-06
9.74289e-05
1.0896e-06
9.74402e-05
1.16759e-06
9.74525e-05
1.24793e-06
9.74663e-05
1.33079e-06
9.74822e-05
1.41628e-06
9.75008e-05
1.50439e-06
9.75228e-05
1.59507e-06
9.75489e-05
1.68816e-06
9.75799e-05
1.78345e-06
9.76166e-05
1.88065e-06
9.76599e-05
1.97939e-06
9.77107e-05
2.07926e-06
9.77698e-05
2.17982e-06
9.78381e-05
2.28056e-06
9.79167e-05
2.38099e-06
9.80065e-05
2.48057e-06
9.81085e-05
2.57875e-06
9.8224e-05
2.67495e-06
9.83543e-05
2.76853e-06
2.85877e-06
9.85005e-05
0.000100071
5.11446e-08
0.000100077
1.49804e-07
0.000100085
2.42436e-07
0.000100096
3.29372e-07
0.000100107
4.11447e-07
0.00010012
4.89619e-07
0.000100133
5.6484e-07
0.000100147
6.38038e-07
0.00010016
7.1006e-07
0.000100174
7.81644e-07
0.000100187
8.53422e-07
0.000100201
9.2592e-07
0.000100215
9.99569e-07
0.00010023
1.07471e-06
0.000100246
1.1516e-06
0.000100263
1.23043e-06
0.000100283
1.31128e-06
0.000100305
1.3942e-06
0.00010033
1.47913e-06
0.000100359
1.56595e-06
0.000100393
1.65447e-06
0.000100432
1.74444e-06
0.000100477
1.83552e-06
0.000100529
1.92733e-06
0.000100589
2.01945e-06
0.000100657
2.11139e-06
0.000100735
2.20264e-06
0.000100824
2.29268e-06
0.000100923
2.38093e-06
0.000101035
2.46679e-06
0.000101161
2.54962e-06
0.0001013
2.62871e-06
2.70338e-06
0.000101456
0.00010293
4.9218e-08
0.000102936
1.44295e-07
0.000102944
2.33978e-07
0.000102955
3.1866e-07
0.000102967
3.99076e-07
0.000102981
4.76061e-07
0.000102995
5.5045e-07
0.00010301
6.23048e-07
0.000103025
6.94589e-07
0.000103041
7.65714e-07
0.000103058
8.36963e-07
0.000103075
9.08783e-07
0.000103093
9.81531e-07
0.000103112
1.05548e-06
0.000103133
1.13081e-06
0.000103156
1.20765e-06
0.000103181
1.28603e-06
0.000103209
1.36593e-06
0.000103241
1.44725e-06
0.000103277
1.52981e-06
0.000103318
1.61339e-06
0.000103365
1.6977e-06
0.000103418
1.78237e-06
0.000103479
1.86701e-06
0.000103547
1.95117e-06
0.000103624
2.03435e-06
0.000103711
2.11604e-06
0.000103808
2.19567e-06
0.000103916
2.27267e-06
0.000104036
2.34642e-06
0.00010417
2.41625e-06
0.000104317
2.48142e-06
2.54131e-06
0.000104479
0.000105871
4.7293e-08
0.000105876
1.38764e-07
0.000105885
2.25378e-07
0.000105896
3.07586e-07
0.000105909
3.86051e-07
0.000105923
4.61507e-07
0.000105939
5.34686e-07
0.000105956
6.06281e-07
0.000105974
6.76925e-07
0.000105992
7.47162e-07
0.000106012
8.17448e-07
0.000106032
8.88151e-07
0.000106054
9.59555e-07
0.000106078
1.03186e-06
0.000106104
1.1052e-06
0.000106132
1.17961e-06
0.000106163
1.2551e-06
0.000106197
1.33158e-06
0.000106235
1.4089e-06
0.000106278
1.48686e-06
0.000106326
1.56519e-06
0.000106381
1.64356e-06
0.000106441
1.72162e-06
0.000106509
1.79893e-06
0.000106585
1.87504e-06
0.00010667
1.94945e-06
0.000106765
2.02164e-06
0.000106869
2.09104e-06
0.000106985
2.15708e-06
0.000107112
2.21914e-06
0.000107252
2.27657e-06
0.000107405
2.32864e-06
2.3748e-06
0.000107571
0.000108895
4.53358e-08
0.000108901
1.33116e-07
0.00010891
2.16508e-07
0.000108921
2.9601e-07
0.000108935
3.72229e-07
0.000108951
4.45817e-07
0.000108968
5.17412e-07
0.000108987
5.8761e-07
0.000109007
6.56947e-07
0.000109028
7.25878e-07
0.000109051
7.94776e-07
0.000109075
8.63935e-07
0.000109101
9.33568e-07
0.000109129
1.00381e-06
0.00010916
1.07474e-06
0.000109193
1.14634e-06
0.000109229
1.21856e-06
0.00010927
1.29126e-06
0.000109314
1.36427e-06
0.000109364
1.43734e-06
0.000109419
1.51019e-06
0.00010948
1.58247e-06
0.000109548
1.65379e-06
0.000109623
1.72373e-06
0.000109706
1.79183e-06
0.000109798
1.85759e-06
0.000109899
1.92049e-06
0.00011001
1.98e-06
0.000110132
2.03554e-06
0.000110264
2.08652e-06
0.000110409
2.13235e-06
0.000110565
2.17232e-06
2.20598e-06
0.000110734
0.000112007
4.33167e-08
0.000112012
1.2727e-07
0.000112022
2.07252e-07
0.000112034
2.83798e-07
0.000112049
3.57471e-07
0.000112066
4.28851e-07
0.000112084
4.98493e-07
0.000112105
5.66906e-07
0.000112128
6.34535e-07
0.000112152
7.01752e-07
0.000112178
7.68855e-07
0.000112206
8.36063e-07
0.000112236
9.03526e-07
0.000112268
9.71321e-07
0.000112303
1.03946e-06
0.000112342
1.10789e-06
0.000112384
1.17651e-06
0.00011243
1.24515e-06
0.000112481
1.3136e-06
0.000112536
1.38158e-06
0.000112598
1.4488e-06
0.000112665
1.51489e-06
0.00011274
1.57946e-06
0.000112821
1.64208e-06
0.000112911
1.70231e-06
0.000113009
1.75966e-06
0.000113116
1.81364e-06
0.000113232
1.86372e-06
0.000113358
1.90938e-06
0.000113494
1.95007e-06
0.000113642
1.98524e-06
0.0001138
2.01426e-06
2.0368e-06
0.000113969
0.000115207
4.12093e-08
0.000115213
1.21151e-07
0.000115222
1.97504e-07
0.000115235
2.70829e-07
0.000115251
3.41652e-07
0.00011527
4.10489e-07
0.00011529
4.77822e-07
0.000115313
5.44076e-07
0.000115338
6.09614e-07
0.000115365
6.74732e-07
0.000115394
7.39652e-07
0.000115426
8.0453e-07
0.00011546
8.69452e-07
0.000115497
9.34441e-07
0.000115537
9.9946e-07
0.00011558
1.06442e-06
0.000115628
1.12916e-06
0.000115679
1.1935e-06
0.000115736
1.2572e-06
0.000115797
1.31996e-06
0.000115865
1.38147e-06
0.000115938
1.44137e-06
0.000116018
1.49926e-06
0.000116106
1.55473e-06
0.000116201
1.60735e-06
0.000116304
1.65666e-06
0.000116415
1.70218e-06
0.000116535
1.74345e-06
0.000116665
1.77997e-06
0.000116804
1.81125e-06
0.000116952
1.83681e-06
0.00011711
1.85611e-06
1.86892e-06
0.000117278
0.000118498
3.89891e-08
0.000118505
1.1469e-07
0.000118515
1.87161e-07
0.000118529
2.5698e-07
0.000118546
3.24638e-07
0.000118566
3.90594e-07
0.000118588
4.5526e-07
0.000118613
5.18986e-07
0.000118641
5.82061e-07
0.000118671
6.44707e-07
0.000118703
7.07081e-07
0.000118739
7.69274e-07
0.000118777
8.31317e-07
0.000118818
8.93185e-07
0.000118863
9.54796e-07
0.000118911
1.01602e-06
0.000118964
1.07668e-06
0.000119021
1.13655e-06
0.000119082
1.19538e-06
0.00011915
1.25286e-06
0.000119222
1.30868e-06
0.000119301
1.36247e-06
0.000119387
1.41385e-06
0.000119479
1.46243e-06
0.000119578
1.5078e-06
0.000119686
1.54952e-06
0.000119801
1.58718e-06
0.000119924
1.62032e-06
0.000120055
1.64854e-06
0.000120195
1.67139e-06
0.000120343
1.68847e-06
0.0001205
1.69934e-06
1.70387e-06
0.000120665
0.000121884
3.66349e-08
0.000121891
1.07826e-07
0.000121902
1.76139e-07
0.000121916
2.42158e-07
0.000121935
3.0634e-07
0.000121956
3.6909e-07
0.000121981
4.30752e-07
0.000122008
4.91609e-07
0.000122038
5.51876e-07
0.000122071
6.11708e-07
0.000122107
6.71199e-07
0.000122146
7.30386e-07
0.000122188
7.89249e-07
0.000122234
8.47718e-07
0.000122283
9.05674e-07
0.000122336
9.62955e-07
0.000122393
1.01936e-06
0.000122455
1.07465e-06
0.000122522
1.12855e-06
0.000122594
1.18077e-06
0.000122672
1.23097e-06
0.000122755
1.27882e-06
0.000122845
1.32395e-06
0.000122942
1.36598e-06
0.000123045
1.40453e-06
0.000123155
1.43922e-06
0.000123273
1.46966e-06
0.000123398
1.49546e-06
0.00012353
1.51627e-06
0.000123669
1.53172e-06
0.000123816
1.54148e-06
0.000123971
1.54518e-06
1.54282e-06
0.000124132
0.000125366
3.4121e-08
0.000125373
1.00488e-07
0.000125385
1.64325e-07
0.000125401
2.26219e-07
0.000125421
2.86593e-07
0.000125444
3.45798e-07
0.000125471
4.04116e-07
0.000125501
4.61764e-07
0.000125534
5.1889e-07
0.00012557
5.75588e-07
0.000125609
6.31892e-07
0.000125652
6.87788e-07
0.000125698
7.43213e-07
0.000125747
7.98055e-07
0.000125801
8.52166e-07
0.000125858
9.05359e-07
0.00012592
9.57414e-07
0.000125987
1.00808e-06
0.000126058
1.05707e-06
0.000126135
1.10411e-06
0.000126217
1.14886e-06
0.000126305
1.19101e-06
0.000126399
1.2302e-06
0.000126499
1.2661e-06
0.000126605
1.29836e-06
0.000126717
1.32663e-06
0.000126836
1.35057e-06
0.000126962
1.36987e-06
0.000127094
1.38421e-06
0.000127233
1.3933e-06
0.000127377
1.39691e-06
0.000127528
1.39473e-06
1.38684e-06
0.000127684
0.000128948
3.14342e-08
0.000128956
9.26356e-08
0.000128968
1.51673e-07
0.000128985
2.09131e-07
0.000129007
2.6539e-07
0.000129032
3.20744e-07
0.00012906
3.75412e-07
0.000129093
4.29545e-07
0.000129128
4.83229e-07
0.000129167
5.36499e-07
0.00012921
5.89337e-07
0.000129256
6.41685e-07
0.000129306
6.93439e-07
0.000129359
7.44458e-07
0.000129417
7.94565e-07
0.000129479
8.43556e-07
0.000129545
8.91198e-07
0.000129616
9.37235e-07
0.000129691
9.81394e-07
0.000129772
1.02339e-06
0.000129858
1.06291e-06
0.00012995
1.09965e-06
0.000130046
1.1333e-06
0.000130149
1.16355e-06
0.000130257
1.19008e-06
0.000130371
1.2126e-06
0.000130491
1.23081e-06
0.000130616
1.24445e-06
0.000130747
1.25328e-06
0.000130884
1.25707e-06
0.000131025
1.25563e-06
0.000131171
1.24876e-06
1.2366e-06
0.000131321
0.000132632
2.8526e-08
0.00013264
8.41421e-08
0.000132654
1.37981e-07
0.000132673
1.90629e-07
0.000132696
2.42424e-07
0.000132723
2.93599e-07
0.000132754
3.44309e-07
0.000132789
3.9464e-07
0.000132827
4.44614e-07
0.00013287
4.94208e-07
0.000132916
5.43359e-07
0.000132965
5.91961e-07
0.000133019
6.39881e-07
0.000133076
6.86947e-07
0.000133138
7.32965e-07
0.000133204
7.77714e-07
0.000133274
8.20958e-07
0.000133349
8.62444e-07
0.000133428
9.01904e-07
0.000133513
9.39062e-07
0.000133602
9.73634e-07
0.000133696
1.00533e-06
0.000133796
1.03388e-06
0.0001339
1.05899e-06
0.00013401
1.0804e-06
0.000134125
1.09785e-06
0.000134244
1.11112e-06
0.000134369
1.11997e-06
0.000134498
1.12423e-06
0.000134631
1.12372e-06
0.000134769
1.11835e-06
0.000134909
1.10796e-06
1.09274e-06
0.000135053
0.000136421
2.54255e-08
0.00013643
7.50555e-08
0.000136445
1.23348e-07
0.000136465
1.70876e-07
0.000136489
2.17912e-07
0.000136518
2.6462e-07
0.000136552
3.1109e-07
0.000136589
3.5734e-07
0.00013663
4.03336e-07
0.000136675
4.49003e-07
0.000136724
4.94235e-07
0.000136778
5.38891e-07
0.000136835
5.82807e-07
0.000136896
6.25795e-07
0.000136961
6.67646e-07
0.000137031
7.08134e-07
0.000137105
7.47023e-07
0.000137183
7.84062e-07
0.000137266
8.18997e-07
0.000137353
8.51565e-07
0.000137446
8.81506e-07
0.000137542
9.08562e-07
0.000137644
9.3248e-07
0.00013775
9.53017e-07
0.00013786
9.69947e-07
0.000137975
9.83057e-07
0.000138094
9.92158e-07
0.000138217
9.97084e-07
0.000138343
9.97697e-07
0.000138473
9.93888e-07
0.000138606
9.8559e-07
0.000138741
9.72714e-07
9.55481e-07
0.000138878
0.000140319
2.1951e-08
0.000140329
6.49797e-08
0.000140345
1.072e-07
0.000140367
1.49195e-07
0.000140394
1.91149e-07
0.000140425
2.33129e-07
0.000140461
2.7514e-07
0.000140502
3.17125e-07
0.000140546
3.58981e-07
0.000140594
4.00583e-07
0.000140647
4.41778e-07
0.000140703
4.82394e-07
0.000140764
5.22243e-07
0.000140829
5.61123e-07
0.000140897
5.98817e-07
0.00014097
6.351e-07
0.000141048
6.69737e-07
0.000141129
7.0249e-07
0.000141215
7.33118e-07
0.000141305
7.6138e-07
0.0001414
7.87041e-07
0.000141498
8.0987e-07
0.000141601
8.29647e-07
0.000141708
8.46168e-07
0.000141819
8.59242e-07
0.000141933
8.687e-07
0.000142051
8.74396e-07
0.000142172
8.76208e-07
0.000142296
8.74046e-07
0.000142422
8.67844e-07
0.00014255
8.57583e-07
0.000142679
8.43223e-07
8.25009e-07
0.00014281
0.000144328
1.8391e-08
0.000144339
5.43875e-08
0.000144356
9.01693e-08
0.000144379
1.26288e-07
0.000144407
1.62822e-07
0.00014444
1.99751e-07
0.000144479
2.37001e-07
0.000144521
2.74433e-07
0.000144568
3.1189e-07
0.00014462
3.492e-07
0.000144675
3.86172e-07
0.000144735
4.22604e-07
0.000144799
4.5829e-07
0.000144867
4.93016e-07
0.000144939
5.26561e-07
0.000145016
5.58703e-07
0.000145096
5.89216e-07
0.000145181
6.17874e-07
0.00014527
6.44453e-07
0.000145362
6.68736e-07
0.000145459
6.90512e-07
0.000145559
7.09579e-07
0.000145663
7.25749e-07
0.00014577
7.38851e-07
0.000145881
7.48731e-07
0.000145994
7.55255e-07
0.00014611
7.58314e-07
0.000146229
7.57824e-07
0.000146349
7.53729e-07
0.000146471
7.45999e-07
0.000146594
7.34644e-07
0.000146717
7.19653e-07
7.01272e-07
0.000146841
0.000148452
1.3853e-08
0.000148465
4.17954e-08
0.000148485
7.0527e-08
0.00014851
1.00522e-07
0.000148542
1.3154e-07
0.000148578
1.6338e-07
0.000148619
1.95861e-07
0.000148665
2.28743e-07
0.000148715
2.61801e-07
0.000148769
2.94813e-07
0.000148828
3.27551e-07
0.000148891
3.59796e-07
0.000148958
3.91329e-07
0.000149029
4.21932e-07
0.000149104
4.51391e-07
0.000149183
4.79491e-07
0.000149267
5.06021e-07
0.000149354
5.30772e-07
0.000149445
5.53544e-07
0.000149539
5.74144e-07
0.000149637
5.92386e-07
0.000149739
6.081e-07
0.000149843
6.21128e-07
0.000149951
6.31331e-07
0.000150061
6.38586e-07
0.000150173
6.42795e-07
0.000150288
6.43881e-07
0.000150404
6.41791e-07
0.000150521
6.36501e-07
0.000150639
6.28009e-07
0.000150757
6.16353e-07
0.000150876
6.01555e-07
5.83855e-07
0.000150993
0.000152693
9.9476e-09
0.000152706
2.9188e-08
0.000152726
5.01993e-08
0.000152753
7.33973e-08
0.000152786
9.8352e-08
0.000152825
1.24684e-07
0.000152869
1.52047e-07
0.000152917
1.80077e-07
0.000152971
2.08511e-07
0.000153028
2.3707e-07
0.000153091
2.65476e-07
0.000153157
2.93485e-07
0.000153227
3.20865e-07
0.000153302
3.47397e-07
0.00015338
3.72875e-07
0.000153463
3.97095e-07
0.000153549
4.19861e-07
0.000153639
4.40983e-07
0.000153732
4.60284e-07
0.000153829
4.77592e-07
0.000153928
4.92752e-07
0.000154031
5.05618e-07
0.000154136
5.16062e-07
0.000154243
5.23971e-07
0.000154352
5.2925e-07
0.000154463
5.31828e-07
0.000154576
5.31652e-07
0.000154689
5.28692e-07
0.000154802
5.22942e-07
0.000154916
5.14416e-07
0.000155029
5.03162e-07
0.000155141
4.89208e-07
4.72776e-07
0.000155252
0.000157059
2.8554e-09
0.000157076
1.20708e-08
0.0001571
2.54465e-08
0.000157131
4.25002e-08
0.000157168
6.18484e-08
0.000157209
8.30417e-08
0.000157256
1.05613e-07
0.000157307
1.28979e-07
0.000157363
1.52883e-07
0.000157423
1.77023e-07
0.000157487
2.011e-07
0.000157556
2.2487e-07
0.000157628
2.48085e-07
0.000157705
2.70549e-07
0.000157786
2.92073e-07
0.000157871
3.12469e-07
0.000157959
3.31562e-07
0.000158051
3.4919e-07
0.000158146
3.65196e-07
0.000158244
3.79439e-07
0.000158345
3.91787e-07
0.000158449
4.02123e-07
0.000158554
4.10344e-07
0.000158662
4.16363e-07
0.000158771
4.2011e-07
0.000158881
4.21535e-07
0.000158992
4.20608e-07
0.000159104
4.17319e-07
0.000159215
4.11677e-07
0.000159326
4.03713e-07
0.000159435
3.93485e-07
0.000159544
3.81039e-07
3.66577e-07
0.00015965
0.000161543
-2.09231e-09
0.000161561
-5.0886e-09
0.000161588
-1.60152e-09
0.000161622
8.3219e-09
0.000161662
2.15896e-08
0.000161708
3.73322e-08
0.000161759
5.48239e-08
0.000161814
7.33697e-08
0.000161874
9.28198e-08
0.000161939
1.12651e-07
0.000162007
1.32521e-07
0.00016208
1.52222e-07
0.000162156
1.71452e-07
0.000162237
1.90058e-07
0.000162321
2.07878e-07
0.000162409
2.24739e-07
0.0001625
2.4049e-07
0.000162594
2.54992e-07
0.000162691
2.68115e-07
0.000162791
2.79741e-07
0.000162893
2.89766e-07
0.000162997
2.98095e-07
0.000163103
3.0465e-07
0.00016321
3.09368e-07
0.000163318
3.12197e-07
0.000163426
3.13104e-07
0.000163535
3.12068e-07
0.000163643
3.09088e-07
0.00016375
3.04176e-07
0.000163857
2.97362e-07
0.000163961
2.88694e-07
0.000164064
2.78206e-07
2.66071e-07
0.000164165
0.000166167
-1.57473e-08
0.000166192
-2.98734e-08
0.000166223
-3.2099e-08
0.000166259
-2.82007e-08
0.000166301
-2.04603e-08
0.000166348
-9.35452e-09
0.000166399
3.68002e-09
0.000166455
1.70073e-08
0.000166516
3.18235e-08
0.000166582
4.71376e-08
0.000166652
6.26351e-08
0.000166726
7.8075e-08
0.000166804
9.30794e-08
0.000166887
1.07682e-07
0.000166973
1.21668e-07
0.000167063
1.34889e-07
0.000167156
1.47231e-07
0.000167252
1.58583e-07
0.000167352
1.68841e-07
0.000167453
1.77914e-07
0.000167557
1.8572e-07
0.000167663
1.9219e-07
0.000167771
1.97263e-07
0.000167879
2.00895e-07
0.000167988
2.03053e-07
0.000168098
2.03716e-07
0.000168207
2.02878e-07
0.000168315
2.00545e-07
0.000168423
1.9674e-07
0.000168529
1.91494e-07
0.000168633
1.84859e-07
0.000168734
1.76881e-07
1.67705e-07
0.000168832
0.000170913
-2.85151e-08
0.000170947
-6.35899e-08
0.000170989
-7.39515e-08
0.000171037
-7.67085e-08
0.000171091
-7.38195e-08
0.000171148
-6.68271e-08
0.00017121
-5.77254e-08
0.000171274
-4.7466e-08
0.000171342
-3.62753e-08
0.000171414
-2.47127e-08
0.00017149
-1.29897e-08