/*--------------------------------*- C++ -*----------------------------------*\
  =========                 |
  \\      /  F ield         | OpenFOAM: The Open Source CFD Toolbox
   \\    /   O peration     | Website:  https://openfoam.org
    \\  /    A nd           | Version:  10
     \\/     M anipulation  |
\*---------------------------------------------------------------------------*/
FoamFile
{
    format      ascii;
    class       volVectorField;
    location    "0.095";
    object      U;
}
// * * * * * * * * * * * * * * * * * * * * * * * * * * * * * * * * * * * * * //

dimensions      [0 1 -1 0 0 0 0];

internalField   nonuniform List<vector> 
6820
(
(7.28171 0.0248887 0)
(7.17765 0.0402302 0)
(7.05396 0.0453276 0)
(6.92376 0.0481753 0)
(6.79339 0.0494892 0)
(6.66322 0.0499276 0)
(6.53363 0.0499326 0)
(6.40503 0.0496955 0)
(6.27747 0.0493326 0)
(6.15083 0.0489236 0)
(6.02496 0.0485216 0)
(5.89967 0.0481666 0)
(5.77467 0.0478942 0)
(5.64965 0.0477383 0)
(5.52421 0.0477349 0)
(5.39788 0.0479234 0)
(5.27008 0.0483486 0)
(5.14014 0.0490612 0)
(5.00724 0.0501184 0)
(4.87045 0.0515834 0)
(4.72864 0.0535221 0)
(4.58056 0.0559985 0)
(4.42477 0.0590647 0)
(4.25971 0.0627461 0)
(4.08379 0.0670197 0)
(3.89541 0.0717851 0)
(3.69323 0.0768284 0)
(3.4763 0.0817996 0)
(3.24451 0.0861125 0)
(2.99877 0.0892701 0)
(2.74089 0.0894057 0)
(2.47883 0.0887952 0)
(2.20275 0.0738957 0)
(7.35926 0.0259897 0)
(7.42111 0.0360757 0)
(7.47626 0.0381242 0)
(7.52656 0.0404583 0)
(7.57259 0.0422572 0)
(7.61315 0.0438534 0)
(7.64819 0.04553 0)
(7.67804 0.0473003 0)
(7.70295 0.0491709 0)
(7.72312 0.0511612 0)
(7.73876 0.0532888 0)
(7.75003 0.0555765 0)
(7.75706 0.0580558 0)
(7.75993 0.0607685 0)
(7.75869 0.0637686 0)
(7.75333 0.0671248 0)
(7.74376 0.0709232 0)
(7.72984 0.0752701 0)
(7.71133 0.0802949 0)
(7.6879 0.0861516 0)
(7.65907 0.0930191 0)
(7.62423 0.101099 0)
(7.58257 0.110605 0)
(7.53308 0.121751 0)
(7.47453 0.134719 0)
(7.40544 0.149615 0)
(7.32415 0.166414 0)
(7.2288 0.184872 0)
(7.11766 0.204433 0)
(6.98888 0.224208 0)
(6.84235 0.242388 0)
(6.67505 0.258203 0)
(6.49771 0.264238 0)
(7.3354 0.00703892 0)
(7.34541 0.0104837 0)
(7.354 0.0133253 0)
(7.36122 0.0170442 0)
(7.36894 0.0202675 0)
(7.37706 0.0231718 0)
(7.38553 0.0259929 0)
(7.39451 0.0287487 0)
(7.40401 0.0314688 0)
(7.41398 0.0342035 0)
(7.42437 0.0370002 0)
(7.43511 0.0399081 0)
(7.44615 0.0429821 0)
(7.45743 0.0462853 0)
(7.46889 0.0498912 0)
(7.48048 0.053888 0)
(7.49217 0.0583819 0)
(7.50396 0.0635016 0)
(7.51585 0.0694028 0)
(7.52788 0.0762723 0)
(7.54012 0.0843313 0)
(7.55266 0.0938358 0)
(7.56564 0.105073 0)
(7.5792 0.11835 0)
(7.59346 0.133971 0)
(7.60852 0.152193 0)
(7.62434 0.17317 0)
(7.64065 0.196847 0)
(7.65688 0.222888 0)
(7.67196 0.250411 0)
(7.68425 0.278159 0)
(7.69126 0.30368 0)
(7.68992 0.324886 0)
(7.33492 0.00944187 0)
(7.34228 0.0205738 0)
(7.34743 0.0264002 0)
(7.35018 0.0304856 0)
(7.35226 0.0333442 0)
(7.3537 0.0355034 0)
(7.35446 0.0373859 0)
(7.3547 0.0391438 0)
(7.35451 0.0408687 0)
(7.35392 0.0426393 0)
(7.35296 0.0445138 0)
(7.35165 0.0465409 0)
(7.35003 0.04877 0)
(7.34808 0.0512549 0)
(7.34584 0.0540566 0)
(7.3433 0.0572465 0)
(7.34051 0.0609089 0)
(7.33749 0.065144 0)
(7.33432 0.0700705 0)
(7.33107 0.0758274 0)
(7.32791 0.0825752 0)
(7.32502 0.0904953 0)
(7.32271 0.0997867 0)
(7.32138 0.110657 0)
(7.32153 0.123312 0)
(7.32382 0.137923 0)
(7.32904 0.154609 0)
(7.33805 0.173366 0)
(7.35171 0.194034 0)
(7.37074 0.216176 0)
(7.3953 0.23907 0)
(7.42532 0.261666 0)
(7.45784 0.282391 0)
(7.33398 0.00657511 0)
(7.33854 0.0132855 0)
(7.34277 0.0165287 0)
(7.34574 0.0195623 0)
(7.34823 0.0223932 0)
(7.35017 0.025007 0)
(7.35141 0.0275929 0)
(7.35206 0.0302014 0)
(7.35216 0.0328454 0)
(7.35172 0.0355611 0)
(7.35073 0.0383902 0)
(7.34918 0.0413743 0)
(7.34706 0.0445604 0)
(7.34436 0.0480026 0)
(7.34104 0.0517641 0)
(7.33709 0.0559186 0)
(7.33249 0.0605523 0)
(7.32721 0.0657655 0)
(7.32127 0.0716738 0)
(7.31468 0.0784077 0)
(7.30747 0.0861118 0)
(7.29972 0.0949409 0)
(7.29155 0.105053 0)
(7.28313 0.116596 0)
(7.27473 0.129693 0)
(7.26666 0.144414 0)
(7.25933 0.160749 0)
(7.25324 0.17857 0)
(7.24888 0.197602 0)
(7.24679 0.217396 0)
(7.2472 0.237316 0)
(7.2504 0.256749 0)
(7.25511 0.274661 0)
(7.33373 0.0055806 0)
(7.33755 0.0138091 0)
(7.34149 0.0195487 0)
(7.3443 0.0243389 0)
(7.34649 0.0282592 0)
(7.34815 0.031479 0)
(7.34922 0.0343273 0)
(7.34978 0.036983 0)
(7.34987 0.0395649 0)
(7.3495 0.0421552 0)
(7.34866 0.044824 0)
(7.34736 0.0476365 0)
(7.34557 0.0506573 0)
(7.34328 0.0539525 0)
(7.34047 0.0575926 0)
(7.33712 0.061655 0)
(7.3332 0.066227 0)
(7.32872 0.0714062 0)
(7.32367 0.0773018 0)
(7.31807 0.0840342 0)
(7.31193 0.0917333 0)
(7.30533 0.100534 0)
(7.29834 0.110569 0)
(7.29109 0.121958 0)
(7.28373 0.134793 0)
(7.27645 0.149117 0)
(7.26945 0.164904 0)
(7.26293 0.18203 0)
(7.25705 0.20026 0)
(7.25187 0.219245 0)
(7.24723 0.238511 0)
(7.24284 0.257687 0)
(7.23774 0.276174 0)
(7.33344 0.00472166 0)
(7.33603 0.0119073 0)
(7.33905 0.016604 0)
(7.3414 0.0203037 0)
(7.34335 0.0234766 0)
(7.34494 0.0263119 0)
(7.34606 0.0290381 0)
(7.34672 0.0317719 0)
(7.34696 0.0345368 0)
(7.34676 0.037408 0)
(7.34612 0.0404478 0)
(7.34504 0.0437022 0)
(7.3435 0.0472193 0)
(7.3415 0.051054 0)
(7.33902 0.0552685 0)
(7.33607 0.0599339 0)
(7.33262 0.0651309 0)
(7.3287 0.0709502 0)
(7.32431 0.077493 0)
(7.31949 0.0848688 0)
(7.31428 0.0931929 0)
(7.30875 0.102583 0)
(7.303 0.113151 0)
(7.29716 0.124995 0)
(7.29138 0.138183 0)
(7.28581 0.152742 0)
(7.28064 0.168639 0)
(7.276 0.185768 0)
(7.27197 0.203946 0)
(7.26852 0.222927 0)
(7.26542 0.242413 0)
(7.26226 0.26222 0)
(7.2583 0.28214 0)
(7.3333 0.00409483 0)
(7.3353 0.0110156 0)
(7.33795 0.016303 0)
(7.3402 0.0208442 0)
(7.34207 0.0248824 0)
(7.34356 0.0284744 0)
(7.34461 0.0317893 0)
(7.34522 0.0349547 0)
(7.34542 0.0381059 0)
(7.34521 0.0412892 0)
(7.3446 0.0445624 0)
(7.34357 0.0479929 0)
(7.34214 0.0516483 0)
(7.34028 0.0555966 0)
(7.33801 0.0599093 0)
(7.33531 0.0646627 0)
(7.33219 0.0699398 0)
(7.32867 0.0758306 0)
(7.32476 0.0824316 0)
(7.3205 0.089844 0)
(7.31595 0.0981725 0)
(7.31119 0.10752 0)
(7.30632 0.11798 0)
(7.30144 0.129631 0)
(7.2967 0.142527 0)
(7.29226 0.156684 0)
(7.28824 0.172075 0)
(7.28477 0.188622 0)
(7.28189 0.206202 0)
(7.27959 0.224665 0)
(7.27769 0.243861 0)
(7.27588 0.263759 0)
(7.27369 0.284371 0)
(7.3332 0.0036487 0)
(7.33468 0.0101196 0)
(7.33679 0.0151987 0)
(7.33869 0.0194319 0)
(7.34029 0.0231314 0)
(7.34162 0.0264463 0)
(7.3426 0.0295694 0)
(7.34322 0.0326495 0)
(7.34347 0.0357272 0)
(7.34336 0.0389019 0)
(7.34288 0.042251 0)
(7.34204 0.045832 0)
(7.34082 0.0497005 0)
(7.33923 0.0539148 0)
(7.33727 0.0585375 0)
(7.33493 0.0636363 0)
(7.33223 0.0692847 0)
(7.32919 0.0755623 0)
(7.32584 0.0825533 0)
(7.32222 0.0903456 0)
(7.31839 0.099028 0)
(7.31443 0.108686 0)
(7.31042 0.119396 0)
(7.30649 0.131219 0)
(7.30275 0.144196 0)
(7.29932 0.158336 0)
(7.29632 0.173616 0)
(7.29384 0.189981 0)
(7.29192 0.207351 0)
(7.29053 0.225643 0)
(7.28954 0.244801 0)
(7.28876 0.264875 0)
(7.28788 0.285978 0)
(7.33314 0.00330813 0)
(7.33428 0.00940599 0)
(7.33605 0.0144925 0)
(7.33776 0.0189231 0)
(7.33926 0.0229522 0)
(7.34054 0.0266757 0)
(7.3415 0.0302146 0)
(7.34214 0.0336737 0)
(7.34244 0.0371557 0)
(7.34242 0.0407155 0)
(7.34205 0.0444081 0)
(7.34135 0.048293 0)
(7.3403 0.0524309 0)
(7.33893 0.0568842 0)
(7.33722 0.0617187 0)
(7.33519 0.0670038 0)
(7.33287 0.0728134 0)
(7.33027 0.0792244 0)
(7.32743 0.0863172 0)
(7.32439 0.0941733 0)
(7.32123 0.102872 0)
(7.31801 0.11249 0)
(7.31483 0.12309 0)
(7.31178 0.134725 0)
(7.30897 0.147428 0)
(7.30652 0.161208 0)
(7.30452 0.176052 0)
(7.30303 0.19193 0)
(7.3021 0.208798 0)
(7.30171 0.226626 0)
(7.30177 0.245419 0)
(7.30219 0.265276 0)
(7.3028 0.286337 0)
(7.3331 0.00304878 0)
(7.33398 0.00881122 0)
(7.33544 0.0137918 0)
(7.33692 0.0181696 0)
(7.33824 0.022143 0)
(7.33938 0.0258149 0)
(7.34028 0.0293095 0)
(7.34089 0.0327446 0)
(7.34122 0.0361947 0)
(7.34127 0.0397376 0)
(7.34102 0.0434457 0)
(7.34048 0.0473834 0)
(7.33965 0.0516109 0)
(7.33853 0.0561882 0)
(7.33714 0.0611762 0)
(7.33549 0.0666385 0)
(7.3336 0.0726407 0)
(7.3315 0.0792505 0)
(7.32922 0.0865372 0)
(7.32682 0.0945698 0)
(7.32436 0.103415 0)
(7.32191 0.113134 0)
(7.31957 0.123779 0)
(7.31742 0.135392 0)
(7.31555 0.147996 0)
(7.31408 0.161601 0)
(7.31307 0.176201 0)
(7.3126 0.191778 0)
(7.31271 0.208316 0)
(7.31339 0.225815 0)
(7.31463 0.244311 0)
(7.31639 0.263914 0)
(7.31858 0.284759 0)
(7.33307 0.0028445 0)
(7.33377 0.00831117 0)
(7.33499 0.0131901 0)
(7.3363 0.0175803 0)
(7.33752 0.0216469 0)
(7.33861 0.0254849 0)
(7.3395 0.0291924 0)
(7.34015 0.0328628 0)
(7.34057 0.036574 0)
(7.34072 0.0403924 0)
(7.34062 0.0443761 0)
(7.34026 0.0485808 0)
(7.33965 0.0530611 0)
(7.33879 0.057873 0)
(7.3377 0.0630742 0)
(7.3364 0.0687243 0)
(7.33491 0.074885 0)
(7.33326 0.0816196 0)
(7.33151 0.0889916 0)
(7.3297 0.097063 0)
(7.32789 0.105893 0)
(7.32617 0.115533 0)
(7.3246 0.12603 0)
(7.32328 0.137416 0)
(7.3223 0.149715 0)
(7.32174 0.162935 0)
(7.32169 0.177078 0)
(7.32221 0.192139 0)
(7.32334 0.208118 0)
(7.32512 0.225034 0)
(7.32755 0.242934 0)
(7.33068 0.261924 0)
(7.33448 0.282112 0)
(7.33306 0.00267968 0)
(7.33362 0.00788812 0)
(7.33465 0.0126507 0)
(7.3358 0.0170063 0)
(7.3369 0.021075 0)
(7.33791 0.0249374 0)
(7.33877 0.0286783 0)
(7.33943 0.0323854 0)
(7.33989 0.0361327 0)
(7.34013 0.0399868 0)
(7.34016 0.0440102 0)
(7.33997 0.0482621 0)
(7.33957 0.0527993 0)
(7.33898 0.057678 0)
(7.33821 0.062954 0)
(7.33727 0.0686832 0)
(7.33621 0.0749219 0)
(7.33506 0.0817257 0)
(7.33385 0.0891494 0)
(7.33265 0.0972452 0)
(7.33152 0.106062 0)
(7.33052 0.115642 0)
(7.32973 0.126021 0)
(7.32925 0.137224 0)
(7.32914 0.14927 0)
(7.3295 0.162166 0)
(7.33039 0.175914 0)
(7.33189 0.190516 0)
(7.33405 0.205977 0)
(7.33693 0.222319 0)
(7.34055 0.239586 0)
(7.34502 0.257865 0)
(7.35034 0.277227 0)
(7.33305 0.00254311 0)
(7.33351 0.00752404 0)
(7.33439 0.0121668 0)
(7.33541 0.0164829 0)
(7.33644 0.0205656 0)
(7.3374 0.0244891 0)
(7.33826 0.0283286 0)
(7.33897 0.0321614 0)
(7.33951 0.0360556 0)
(7.33987 0.040073 0)
(7.34006 0.0442697 0)
(7.34007 0.0486985 0)
(7.33991 0.0534098 0)
(7.33959 0.0584533 0)
(7.33914 0.0638788 0)
(7.33858 0.069736 0)
(7.33793 0.0760748 0)
(7.33725 0.0829442 0)
(7.33656 0.0903919 0)
(7.33594 0.0984629 0)
(7.33543 0.107198 0)
(7.33512 0.116632 0)
(7.33506 0.126795 0)
(7.33535 0.137706 0)
(7.33606 0.14938 0)
(7.33727 0.161823 0)
(7.33905 0.175038 0)
(7.34148 0.189028 0)
(7.34461 0.203801 0)
(7.34853 0.219375 0)
(7.35329 0.235782 0)
(7.359 0.253084 0)
(7.36571 0.271317 0)
(7.33304 0.00242684 0)
(7.33343 0.0072057 0)
(7.33419 0.0117275 0)
(7.33512 0.0159894 0)
(7.33607 0.0200601 0)
(7.337 0.0240021 0)
(7.33785 0.0278791 0)
(7.33859 0.031759 0)
(7.33919 0.0357043 0)
(7.33966 0.0397729 0)
(7.33999 0.0440187 0)
(7.34019 0.0484933 0)
(7.34026 0.0532461 0)
(7.34021 0.0583255 0)
(7.34008 0.0637785 0)
(7.33988 0.0696516 0)
(7.33966 0.0759895 0)
(7.33944 0.0828355 0)
(7.33928 0.0902304 0)
(7.33923 0.0982114 0)
(7.33934 0.106811 0)
(7.3397 0.116058 0)
(7.34036 0.125972 0)
(7.3414 0.136568 0)
(7.3429 0.147855 0)
(7.34493 0.159835 0)
(7.34757 0.172508 0)
(7.35088 0.185874 0)
(7.35495 0.199935 0)
(7.35985 0.214699 0)
(7.36566 0.230182 0)
(7.3725 0.246417 0)
(7.38043 0.263406 0)
(7.33303 0.00232518 0)
(7.33337 0.00692177 0)
(7.33404 0.0113226 0)
(7.33489 0.0155209 0)
(7.33579 0.019569 0)
(7.3367 0.023522 0)
(7.33756 0.0274371 0)
(7.33835 0.0313751 0)
(7.33905 0.0353936 0)
(7.33965 0.039546 0)
(7.34014 0.0438822 0)
(7.34054 0.0484491 0)
(7.34085 0.0532913 0)
(7.34109 0.0584513 0)
(7.34128 0.0639705 0)
(7.34146 0.0698885 0)
(7.34164 0.0762437 0)
(7.34188 0.0830721 0)
(7.34222 0.0904072 0)
(7.34272 0.098279 0)
(7.34342 0.106713 0)
(7.3444 0.11573 0)
(7.34573 0.125344 0)
(7.34747 0.135565 0)
(7.34969 0.146395 0)
(7.35248 0.157834 0)
(7.3559 0.169878 0)
(7.36003 0.182519 0)
(7.36494 0.195754 0)
(7.37072 0.20958 0)
(7.37745 0.223993 0)
(7.38526 0.239002 0)
(7.3942 0.254583 0)
(7.33303 0.00223387 0)
(7.33333 0.00666304 0)
(7.33394 0.0109433 0)
(7.33472 0.0150686 0)
(7.33559 0.0190794 0)
(7.33648 0.0230229 0)
(7.33736 0.0269488 0)
(7.33821 0.0309101 0)
(7.33899 0.0349584 0)
(7.33971 0.0391421 0)
(7.34037 0.0435069 0)
(7.34096 0.048096 0)
(7.3415 0.0529506 0)
(7.34202 0.0581096 0)
(7.34252 0.0636106 0)
(7.34305 0.069489 0)
(7.34364 0.075778 0)
(7.34432 0.0825083 0)
(7.34515 0.0897074 0)
(7.34616 0.0973987 0)
(7.34743 0.105601 0)
(7.34901 0.114329 0)
(7.35097 0.12359 0)
(7.35337 0.133388 0)
(7.35628 0.14372 0)
(7.35977 0.154579 0)
(7.36391 0.165955 0)
(7.36878 0.177835 0)
(7.37445 0.190204 0)
(7.38101 0.203046 0)
(7.38853 0.216342 0)
(7.39715 0.230074 0)
(7.4069 0.244199 0)
(7.33303 0.00214968 0)
(7.3333 0.00642186 0)
(7.33386 0.0105812 0)
(7.3346 0.0146249 0)
(7.33544 0.0185859 0)
(7.33634 0.0225051 0)
(7.33726 0.0264268 0)
(7.33816 0.0303983 0)
(7.33904 0.0344664 0)
(7.3399 0.0386751 0)
(7.34072 0.0430662 0)
(7.34151 0.0476785 0)
(7.3423 0.0525488 0)
(7.34309 0.0577112 0)
(7.34391 0.0631979 0)
(7.34479 0.0690384 0)
(7.34577 0.0752601 0)
(7.34688 0.0818868 0)
(7.34817 0.0889396 0)
(7.34968 0.096435 0)
(7.35148 0.104385 0)
(7.35361 0.112798 0)
(7.35615 0.121676 0)
(7.35914 0.131015 0)
(7.36267 0.140808 0)
(7.36679 0.151042 0)
(7.37157 0.1617 0)
(7.37709 0.172762 0)
(7.38341 0.184205 0)
(7.39061 0.195999 0)
(7.39878 0.208111 0)
(7.40802 0.220504 0)
(7.41837 0.233123 0)
(7.33302 0.00207006 0)
(7.33328 0.00619184 0)
(7.33381 0.0102289 0)
(7.33452 0.0141826 0)
(7.33535 0.0180807 0)
(7.33626 0.0219591 0)
(7.33722 0.0258567 0)
(7.33819 0.0298154 0)
(7.33917 0.0338761 0)
(7.34016 0.0380784 0)
(7.34114 0.042459 0)
(7.34214 0.0470526 0)
(7.34315 0.0518915 0)
(7.34421 0.0570054 0)
(7.34534 0.0624219 0)
(7.34655 0.0681657 0)
(7.3479 0.074259 0)
(7.34941 0.0807204 0)
(7.35113 0.0875653 0)
(7.35311 0.0948045 0)
(7.3554 0.102445 0)
(7.35805 0.110488 0)
(7.36111 0.11893 0)
(7.36466 0.127763 0)
(7.36874 0.136973 0)
(7.37342 0.146542 0)
(7.37876 0.156447 0)
(7.38483 0.166659 0)
(7.39169 0.177147 0)
(7.39943 0.187871 0)
(7.40809 0.198786 0)
(7.4178 0.209838 0)
(7.42855 0.220966 0)
(7.33302 0.00199295 0)
(7.33327 0.00596754 0)
(7.33377 0.0098795 0)
(7.33447 0.0137346 0)
(7.33531 0.0175572 0)
(7.33624 0.0213792 0)
(7.33724 0.0252353 0)
(7.33829 0.0291623 0)
(7.33937 0.0331968 0)
(7.34049 0.0373739 0)
(7.34164 0.0417262 0)
(7.34284 0.0462842 0)
(7.34409 0.0510757 0)
(7.34541 0.056126 0)
(7.34683 0.0614577 0)
(7.34837 0.0670904 0)
(7.35007 0.0730407 0)
(7.35197 0.0793218 0)
(7.3541 0.085943 0)
(7.35651 0.0929095 0)
(7.35924 0.100222 0)
(7.36236 0.107877 0)
(7.3659 0.115865 0)
(7.36992 0.124173 0)
(7.37449 0.13278 0)
(7.37965 0.141665 0)
(7.38546 0.150796 0)
(7.39198 0.16014 0)
(7.39927 0.169658 0)
(7.4074 0.179302 0)
(7.41641 0.18902 0)
(7.4264 0.198746 0)
(7.43737 0.208416 0)
(7.33302 0.00191665 0)
(7.33326 0.00574434 0)
(7.33376 0.00952698 0)
(7.33445 0.0132743 0)
(7.3353 0.0170086 0)
(7.33626 0.0207582 0)
(7.33731 0.0245541 0)
(7.33844 0.0284286 0)
(7.33963 0.0324138 0)
(7.34089 0.0365399 0)
(7.3422 0.0408352 0)
(7.34359 0.0453259 0)
(7.34506 0.0500351 0)
(7.34663 0.0549838 0)
(7.34833 0.0601897 0)
(7.35018 0.0656678 0)
(7.35221 0.0714297 0)
(7.35447 0.0774838 0)
(7.35697 0.0838344 0)
(7.35977 0.0904817 0)
(7.36292 0.0974217 0)
(7.36645 0.104645 0)
(7.37041 0.112139 0)
(7.37486 0.119885 0)
(7.37984 0.127859 0)
(7.3854 0.136031 0)
(7.39159 0.144369 0)
(7.39847 0.152833 0)
(7.40608 0.161378 0)
(7.41448 0.169951 0)
(7.4237 0.178494 0)
(7.43383 0.186937 0)
(7.44484 0.195214 0)
(7.33302 0.00183972 0)
(7.33326 0.00551819 0)
(7.33375 0.00916577 0)
(7.33445 0.0127955 0)
(7.33531 0.0164285 0)
(7.33631 0.0200902 0)
(7.33743 0.0238084 0)
(7.33864 0.0276114 0)
(7.33994 0.031527 0)
(7.34133 0.0355816 0)
(7.34281 0.0397992 0)
(7.34438 0.0442018 0)
(7.34607 0.0488086 0)
(7.34788 0.0536358 0)
(7.34984 0.0586969 0)
(7.35198 0.0640023 0)
(7.35432 0.0695589 0)
(7.3569 0.0753701 0)
(7.35975 0.0814354 0)
(7.36291 0.0877503 0)
(7.36642 0.0943061 0)
(7.37031 0.101089 0)
(7.37464 0.108082 0)
(7.37944 0.115262 0)
(7.38476 0.1226 0)
(7.39065 0.130065 0)
(7.39713 0.137617 0)
(7.40426 0.145216 0)
(7.41208 0.152811 0)
(7.42063 0.160348 0)
(7.42993 0.167766 0)
(7.44005 0.174991 0)
(7.45096 0.181962 0)
(7.33302 0.00176088 0)
(7.33326 0.00528554 0)
(7.33376 0.00879079 0)
(7.33447 0.0122924 0)
(7.33536 0.0158104 0)
(7.3364 0.019368 0)
(7.33758 0.0229898 0)
(7.33888 0.0267002 0)
(7.34029 0.0305233 0)
(7.34181 0.0344811 0)
(7.34345 0.0385936 0)
(7.34521 0.0428787 0)
(7.3471 0.0473512 0)
(7.34914 0.0520234 0)
(7.35135 0.0569045 0)
(7.35376 0.0620005 0)
(7.35638 0.0673141 0)
(7.35926 0.0728446 0)
(7.36242 0.0785875 0)
(7.36589 0.0845341 0)
(7.36972 0.0906719 0)
(7.37393 0.0969838 0)
(7.37856 0.103448 0)
(7.38366 0.11004 0)
(7.38925 0.116726 0)
(7.39537 0.123474 0)
(7.40206 0.130242 0)
(7.40936 0.136985 0)
(7.41728 0.143653 0)
(7.42587 0.15019 0)
(7.43514 0.156534 0)
(7.44513 0.162615 0)
(7.45581 0.168376 0)
(7.33302 0.00167905 0)
(7.33326 0.00504326 0)
(7.33377 0.00839756 0)
(7.3345 0.0117599 0)
(7.33543 0.0151497 0)
(7.33652 0.0185882 0)
(7.33776 0.0220972 0)
(7.33915 0.0256982 0)
(7.34067 0.0294113 0)
(7.34232 0.033255 0)
(7.34411 0.0372455 0)
(7.34603 0.0413966 0)
(7.34812 0.0457193 0)
(7.35037 0.0502219 0)
(7.35281 0.0549096 0)
(7.35546 0.0597844 0)
(7.35834 0.064845 0)
(7.36149 0.0700869 0)
(7.36492 0.0755016 0)
(7.36866 0.081077 0)
(7.37276 0.086797 0)
(7.37723 0.0926413 0)
(7.38211 0.0985856 0)
(7.38744 0.104601 0)
(7.39323 0.110655 0)
(7.39952 0.116711 0)
(7.40634 0.122726 0)
(7.4137 0.128656 0)
(7.42164 0.13445 0)
(7.43017 0.140053 0)
(7.4393 0.145405 0)
(7.44906 0.150439 0)
(7.45942 0.155105 0)
(7.33302 0.00159321 0)
(7.33327 0.00478838 0)
(7.33379 0.00798147 0)
(7.33455 0.0111919 0)
(7.33551 0.0144383 0)
(7.33665 0.0177399 0)
(7.33797 0.0211157 0)
(7.33944 0.0245839 0)
(7.34107 0.0281611 0)
(7.34285 0.0318623 0)
(7.34479 0.0357 0)
(7.34688 0.0396843 0)
(7.34915 0.0438228 0)
(7.3516 0.0481201 0)
(7.35425 0.052578 0)
(7.35713 0.0571951 0)
(7.36024 0.0619668 0)
(7.36362 0.0668852 0)
(7.36729 0.0719389 0)
(7.37127 0.0771131 0)
(7.37559 0.0823889 0)
(7.38028 0.0877438 0)
(7.38535 0.0931515 0)
(7.39084 0.098582 0)
(7.39677 0.104002 0)
(7.40316 0.109372 0)
(7.41002 0.114653 0)
(7.41739 0.119798 0)
(7.42526 0.124758 0)
(7.43365 0.129481 0)
(7.44256 0.133913 0)
(7.452 0.137988 0)
(7.46195 0.141667 0)
(7.33302 0.00150245 0)
(7.33328 0.00451847 0)
(7.33382 0.00753944 0)
(7.33461 0.0105862 0)
(7.3356 0.0136769 0)
(7.3368 0.0168294 0)
(7.33819 0.0200604 0)
(7.33975 0.0233853 0)
(7.34148 0.0268176 0)
(7.34338 0.0303687 0)
(7.34545 0.0340475 0)
(7.3477 0.0378608 0)
(7.35013 0.0418123 0)
(7.35276 0.0459034 0)
(7.3556 0.0501321 0)
(7.35867 0.054494 0)
(7.36198 0.0589813 0)
(7.36556 0.0635831 0)
(7.36943 0.0682855 0)
(7.3736 0.0730709 0)
(7.3781 0.0779185 0)
(7.38295 0.0828041 0)
(7.38816 0.0877004 0)
(7.39376 0.0925766 0)
(7.39976 0.0973985 0)
(7.40618 0.102129 0)
(7.41303 0.106727 0)
(7.42032 0.111149 0)
(7.42805 0.115349 0)
(7.43623 0.119278 0)
(7.44485 0.122886 0)
(7.45392 0.126116 0)
(7.46339 0.128933 0)
(7.33303 0.00140585 0)
(7.33329 0.00423043 0)
(7.33385 0.00706554 0)
(7.33467 0.00993243 0)
(7.33572 0.012848 0)
(7.33698 0.015828 0)
(7.33844 0.0188867 0)
(7.34009 0.0220366 0)
(7.34193 0.0252883 0)
(7.34395 0.0286502 0)
(7.34615 0.0321287 0)
(7.34855 0.0357274 0)
(7.35114 0.0394475 0)
(7.35393 0.0432876 0)
(7.35694 0.0472433 0)
(7.36019 0.0513077 0)
(7.36368 0.0554707 0)
(7.36743 0.0597192 0)
(7.37146 0.0640374 0)
(7.37579 0.0684062 0)
(7.38043 0.0728037 0)
(7.38539 0.077205 0)
(7.3907 0.0815819 0)
(7.39636 0.0859038 0)
(7.40238 0.0901368 0)
(7.40877 0.0942448 0)
(7.41555 0.0981889 0)
(7.4227 0.101928 0)
(7.43023 0.10542 0)
(7.43815 0.10862 0)
(7.44642 0.111482 0)
(7.45506 0.113956 0)
(7.46401 0.116017 0)
(7.33303 0.00130268 0)
(7.3333 0.00392312 0)
(7.33388 0.006561 0)
(7.33474 0.00923903 0)
(7.33583 0.0119739 0)
(7.33715 0.0147798 0)
(7.33868 0.0176689 0)
(7.34041 0.0206507 0)
(7.34234 0.0237325 0)
(7.34447 0.0269192 0)
(7.34679 0.0302136 0)
(7.3493 0.0336161 0)
(7.35203 0.0371247 0)
(7.35496 0.0407348 0)
(7.35812 0.0444396 0)
(7.36151 0.0482294 0)
(7.36515 0.052092 0)
(7.36904 0.0560126 0)
(7.3732 0.0599737 0)
(7.37765 0.0639554 0)
(7.38238 0.0679351 0)
(7.38742 0.0718876 0)
(7.39277 0.0757852 0)
(7.39844 0.0795977 0)
(7.40443 0.083293 0)
(7.41075 0.0868366 0)
(7.41739 0.0901927 0)
(7.42437 0.0933235 0)
(7.43165 0.0961904 0)
(7.43925 0.0987537 0)
(7.44715 0.100974 0)
(7.45532 0.102807 0)
(7.46374 0.104235 0)
(7.33303 0.00119161 0)
(7.33331 0.00359046 0)
(7.33393 0.00601013 0)
(7.33483 0.00847265 0)
(7.33598 0.0109928 0)
(7.33737 0.013583 0)
(7.33898 0.0162533 0)
(7.3408 0.0190116 0)
(7.34284 0.0218632 0)
(7.34507 0.0248113 0)
(7.34751 0.0278569 0)
(7.35015 0.0309985 0)
(7.35301 0.0342324 0)
(7.35607 0.0375523 0)
(7.35936 0.0409494 0)
(7.36288 0.0444127 0)
(7.36664 0.0479287 0)
(7.37065 0.0514816 0)
(7.37491 0.0550531 0)
(7.37944 0.0586226 0)
(7.38423 0.0621672 0)
(7.3893 0.0656619 0)
(7.39466 0.0690796 0)
(7.4003 0.0723913 0)
(7.40622 0.0755663 0)
(7.41242 0.0785727 0)
(7.4189 0.0813771 0)
(7.42565 0.0839455 0)
(7.43266 0.0862433 0)
(7.43992 0.0882356 0)
(7.44741 0.0898888 0)
(7.4551 0.091165 0)
(7.46297 0.0920513 0)
(7.33303 0.00107258 0)
(7.33333 0.00323778 0)
(7.33397 0.00543581 0)
(7.3349 0.00769096 0)
(7.33609 0.0100168 0)
(7.33753 0.0124226 0)
(7.33921 0.0149146 0)
(7.3411 0.0174962 0)
(7.34321 0.0201687 0)
(7.34554 0.0229313 0)
(7.34807 0.0257813 0)
(7.35082 0.0287142 0)
(7.35378 0.0317236 0)
(7.35695 0.034801 0)
(7.36035 0.0379359 0)
(7.36397 0.0411159 0)
(7.36783 0.0443267 0)
(7.37192 0.047552 0)
(7.37625 0.0507733 0)
(7.38083 0.0539703 0)
(7.38565 0.0571209 0)
(7.39073 0.0602012 0)
(7.39605 0.0631857 0)
(7.40163 0.0660475 0)
(7.40744 0.0687586 0)
(7.4135 0.0712899 0)
(7.41978 0.0736119 0)
(7.42628 0.0756946 0)
(7.43299 0.077508 0)
(7.43989 0.0790223 0)
(7.44695 0.0802095 0)
(7.45416 0.0810378 0)
(7.46148 0.0814997 0)
(7.33303 0.000941713 0)
(7.33335 0.00284096 0)
(7.33404 0.00477052 0)
(7.33504 0.0067542 0)
(7.33631 0.00880524 0)
(7.33784 0.0109332 0)
(7.3396 0.0131449 0)
(7.34159 0.0154433 0)
(7.3438 0.0178293 0)
(7.34623 0.0203015 0)
(7.34886 0.0228561 0)
(7.35171 0.0254874 0)
(7.35477 0.0281877 0)
(7.35804 0.0309473 0)
(7.36152 0.0337547 0)
(7.36523 0.0365965 0)
(7.36915 0.0394574 0)
(7.3733 0.0423204 0)
(7.37768 0.0451669 0)
(7.38228 0.0479765 0)
(7.3871 0.0507275 0)
(7.39215 0.0533969 0)
(7.39741 0.0559604 0)
(7.40289 0.0583928 0)
(7.40858 0.0606681 0)
(7.41446 0.0627601 0)
(7.42053 0.0646422 0)
(7.42677 0.066288 0)
(7.43316 0.0676715 0)
(7.43969 0.0687675 0)
(7.44633 0.0695527 0)
(7.45307 0.0700011 0)
(7.45987 0.0701087 0)
(7.33303 0.00080394 0)
(7.33335 0.00244488 0)
(7.33406 0.00414786 0)
(7.33509 0.00593512 0)
(7.33639 0.0078102 0)
(7.33796 0.00977325 0)
(7.33978 0.0118235 0)
(7.34184 0.0139577 0)
(7.34412 0.0161713 0)
(7.34662 0.0184587 0)
(7.34934 0.0208135 0)
(7.35227 0.0232279 0)
(7.35541 0.0256931 0)
(7.35877 0.0281988 0)
(7.36233 0.0307335 0)
(7.36611 0.0332838 0)
(7.37009 0.0358354 0)
(7.37429 0.0383722 0)
(7.37869 0.0408769 0)
(7.38329 0.0433311 0)
(7.3881 0.0457149 0)
(7.3931 0.0480077 0)
(7.39829 0.050188 0)
(7.40366 0.0522334 0)
(7.40919 0.0541215 0)
(7.41488 0.0558295 0)
(7.42072 0.0573348 0)
(7.42668 0.0586151 0)
(7.43275 0.0596489 0)
(7.4389 0.0604156 0)
(7.44513 0.0608964 0)
(7.4514 0.0610703 0)
(7.45768 0.0609368 0)
(7.33304 0.000638083 0)
(7.33343 0.00192155 0)
(7.33424 0.0032497 0)
(7.33538 0.00465727 0)
(7.33679 0.00615649 0)
(7.33846 0.00775196 0)
(7.34038 0.00944406 0)
(7.34252 0.0112298 0)
(7.34489 0.0131045 0)
(7.34747 0.0150614 0)
(7.35026 0.0170918 0)
(7.35326 0.0191858 0)
(7.35647 0.0213324 0)
(7.35987 0.0235195 0)
(7.36349 0.025734 0)
(7.3673 0.0279614 0)
(7.37131 0.0301862 0)
(7.37552 0.032392 0)
(7.37991 0.0345612 0)
(7.38449 0.0366755 0)
(7.38926 0.0387159 0)
(7.39419 0.0406626 0)
(7.39928 0.0424955 0)
(7.40452 0.0441941 0)
(7.4099 0.0457382 0)
(7.4154 0.0471074 0)
(7.42101 0.048282 0)
(7.42671 0.0492429 0)
(7.43247 0.0499721 0)
(7.43829 0.0504526 0)
(7.44413 0.0506695 0)
(7.44997 0.0506062 0)
(7.4558 0.0502643 0)
(7.33303 0.000492573 0)
(7.33338 0.00154854 0)
(7.33418 0.00272414 0)
(7.33534 0.00401883 0)
(7.33679 0.00541168 0)
(7.33852 0.00689488 0)
(7.34051 0.00846156 0)
(7.34273 0.0101006 0)
(7.34518 0.0118038 0)
(7.34784 0.0135641 0)
(7.35072 0.0153735 0)
(7.3538 0.0172233 0)
(7.35709 0.019104 0)
(7.36057 0.0210057 0)
(7.36425 0.0229176 0)
(7.36811 0.0248278 0)
(7.37216 0.0267235 0)
(7.37638 0.0285908 0)
(7.38078 0.0304154 0)
(7.38534 0.0321818 0)
(7.39005 0.0338741 0)
(7.39491 0.0354759 0)
(7.39989 0.0369704 0)
(7.405 0.0383407 0)
(7.4102 0.0395701 0)
(7.4155 0.040642 0)
(7.42086 0.0415404 0)
(7.42628 0.0422499 0)
(7.43173 0.0427562 0)
(7.43718 0.0430458 0)
(7.44264 0.0431072 0)
(7.44806 0.0429274 0)
(7.45343 0.0425092 0)
(7.33307 0.000206863 0)
(7.33361 0.000641125 0)
(7.33461 0.00118994 0)
(7.33594 0.00191803 0)
(7.33751 0.00280572 0)
(7.33934 0.00383111 0)
(7.3414 0.00498165 0)
(7.34367 0.00624409 0)
(7.34616 0.00760536 0)
(7.34886 0.00904866 0)
(7.35177 0.0105588 0)
(7.35487 0.0121228 0)
(7.35818 0.0137266 0)
(7.36167 0.0153571 0)
(7.36535 0.0170007 0)
(7.36921 0.0186438 0)
(7.37325 0.0202719 0)
(7.37746 0.0218708 0)
(7.38182 0.0234254 0)
(7.38633 0.0249208 0)
(7.39098 0.0263416 0)
(7.39576 0.0276725 0)
(7.40065 0.0288982 0)
(7.40563 0.0300034 0)
(7.4107 0.0309734 0)
(7.41582 0.0317938 0)
(7.42099 0.0324512 0)
(7.42619 0.0329328 0)
(7.43139 0.0332271 0)
(7.43658 0.0333236 0)
(7.44173 0.0332137 0)
(7.44682 0.0328879 0)
(7.45184 0.0323496 0)
(7.33303 0.000137703 0)
(7.33347 0.000591484 0)
(7.3345 0.00126462 0)
(7.33593 0.00204456 0)
(7.33763 0.00291031 0)
(7.33958 0.00386971 0)
(7.34177 0.00489751 0)
(7.34419 0.00596712 0)
(7.34681 0.00708854 0)
(7.34964 0.00825652 0)
(7.35266 0.00946093 0)
(7.35586 0.0106936 0)
(7.35925 0.0119459 0)
(7.36282 0.0132113 0)
(7.36656 0.0144809 0)
(7.37046 0.015745 0)
(7.37452 0.016994 0)
(7.37873 0.0182176 0)
(7.38307 0.019405 0)
(7.38754 0.0205449 0)
(7.39212 0.0216257 0)
(7.3968 0.0226357 0)
(7.40156 0.0235632 0)
(7.4064 0.0243965 0)
(7.41128 0.0251241 0)
(7.41619 0.0257352 0)
(7.42112 0.0262193 0)
(7.42605 0.0265667 0)
(7.43095 0.0267685 0)
(7.43581 0.0268164 0)
(7.4406 0.0267041 0)
(7.44532 0.0264233 0)
(7.44994 0.0259778 0)
(7.33314 -0.000500783 0)
(7.33402 -0.00133626 0)
(7.3353 -0.00170525 0)
(7.33678 -0.00173323 0)
(7.33851 -0.00149537 0)
(7.34048 -0.00102345 0)
(7.34264 -0.000363269 0)
(7.345 0.000447777 0)
(7.3476 0.00135609 0)
(7.35039 0.00233594 0)
(7.35338 0.00337039 0)
(7.35656 0.0044485 0)
(7.35992 0.00554375 0)
(7.36347 0.00665035 0)
(7.36719 0.00775821 0)
(7.37108 0.00885503 0)
(7.37512 0.00992948 0)
(7.37931 0.0109707 0)
(7.38363 0.011968 0)
(7.38807 0.0129107 0)
(7.39261 0.0137883 0)
(7.39725 0.0145906 0)
(7.40196 0.0153075 0)
(7.40673 0.0159294 0)
(7.41154 0.0164471 0)
(7.41636 0.0168517 0)
(7.42119 0.017135 0)
(7.426 0.0172896 0)
(7.43077 0.0173089 0)
(7.43548 0.0171873 0)
(7.44012 0.0169206 0)
(7.44465 0.0165041 0)
(7.44906 0.0159422 0)
(7.33309 -0.000198153 0)
(7.33405 -0.00032888 0)
(7.33579 -0.000239006 0)
(7.33778 -5.86621e-05 0)
(7.33996 0.000208145 0)
(7.34233 0.000540841 0)
(7.34489 0.000924345 0)
(7.3476 0.00136479 0)
(7.35044 0.00183988 0)
(7.35343 0.00234446 0)
(7.3566 0.00287832 0)
(7.35992 0.00343364 0)
(7.36338 0.00401982 0)
(7.36702 0.0046239 0)
(7.3708 0.00523853 0)
(7.37472 0.00585914 0)
(7.37877 0.00647968 0)
(7.38294 0.00709346 0)
(7.38722 0.00769363 0)
(7.3916 0.00827321 0)
(7.39605 0.00882511 0)
(7.40057 0.00934221 0)
(7.40514 0.00981753 0)
(7.40974 0.0102442 0)
(7.41435 0.0106158 0)
(7.41895 0.0109259 0)
(7.42353 0.0111689 0)
(7.42807 0.0113393 0)
(7.43255 0.0114321 0)
(7.43696 0.0114427 0)
(7.44127 0.0113678 0)
(7.44546 0.0112023 0)
(7.44955 0.01095 0)
(7.33436 -0.00334447 0)
(7.33907 -0.00606723 0)
(7.34472 -0.00694011 0)
(7.35083 -0.0073169 0)
(7.35726 -0.00729401 0)
(7.36379 -0.00698017 0)
(7.37026 -0.00652557 0)
(7.37665 -0.00600381 0)
(7.38292 -0.00542664 0)
(7.38906 -0.00481505 0)
(7.39506 -0.00418768 0)
(7.40095 -0.00356242 0)
(7.40673 -0.00293391 0)
(7.4124 -0.00231762 0)
(7.41798 -0.00172211 0)
(7.4235 -0.0011518 0)
(7.42898 -0.000611637 0)
(7.43443 -0.000106765 0)
(7.43988 0.000357883 0)
(7.44532 0.000777447 0)
(7.45079 0.00114713 0)
(7.45629 0.00146227 0)
(7.46184 0.00171835 0)
(7.46744 0.0019111 0)
(7.4731 0.00203656 0)
(7.47883 0.00209106 0)
(7.48463 0.00207134 0)
(7.49051 0.00197461 0)
(7.49646 0.00179849 0)
(7.50249 0.00154117 0)
(7.50858 0.00120115 0)
(7.51475 0.000777089 0)
(7.52098 0.000270952 0)
(7.32981 -0.00380036 0)
(7.32486 -0.00778509 0)
(7.31678 -0.0099068 0)
(7.30735 -0.0113146 0)
(7.29799 -0.0121391 0)
(7.28882 -0.0125129 0)
(7.27997 -0.0125927 0)
(7.27161 -0.0124695 0)
(7.26381 -0.0122001 0)
(7.2566 -0.0118322 0)
(7.24999 -0.0114015 0)
(7.24399 -0.0109297 0)
(7.23856 -0.0104486 0)
(7.23369 -0.00996936 0)
(7.22934 -0.00950394 0)
(7.22547 -0.00906454 0)
(7.22204 -0.00866145 0)
(7.21901 -0.00830343 0)
(7.21632 -0.0079982 0)
(7.21393 -0.00775269 0)
(7.21179 -0.00757311 0)
(7.20985 -0.00746508 0)
(7.20805 -0.00743368 0)
(7.20635 -0.00748348 0)
(7.20469 -0.00761846 0)
(7.20303 -0.00784219 0)
(7.20132 -0.00815751 0)
(7.19951 -0.00856634 0)
(7.19756 -0.00906977 0)
(7.19543 -0.00966756 0)
(7.19307 -0.0103592 0)
(7.19046 -0.0111411 0)
(7.18757 -0.0120113 0)
(1.94956 0.0488998 0)
(1.73632 0.0160264 0)
(1.18679 -0.0709585 0)
(0.255365 -0.186226 0)
(-0.0875797 -0.27923 0)
(-0.020287 -0.292072 0)
(0.50565 0.00905055 0)
(1.5004 0.718518 0)
(2.5701 1.51228 0)
(3.55532 2.21038 0)
(4.46461 2.71612 0)
(5.30098 2.96243 0)
(6.05108 2.92307 0)
(6.70885 2.60545 0)
(7.27106 2.02727 0)
(7.71686 1.21307 0)
(7.99823 0.224529 0)
(8.08484 -0.849193 0)
(7.96923 -1.88356 0)
(7.59389 -2.70857 0)
(7.01046 -3.25491 0)
(6.50595 -3.66726 0)
(6.21866 -4.05219 0)
(5.92261 -4.2483 0)
(5.41032 -4.04157 0)
(4.75392 -3.43473 0)
(4.14611 -2.60147 0)