/*--------------------------------*- C++ -*----------------------------------*\
  =========                 |
  \\      /  F ield         | OpenFOAM: The Open Source CFD Toolbox
   \\    /   O peration     | Website:  https://openfoam.org
    \\  /    A nd           | Version:  10
     \\/     M anipulation  |
\*---------------------------------------------------------------------------*/
FoamFile
{
    format      ascii;
    class       volScalarField;
    location    "0.185";
    object      p;
}
// * * * * * * * * * * * * * * * * * * * * * * * * * * * * * * * * * * * * * //

dimensions      [0 2 -2 0 0 0 0];

internalField   nonuniform List<scalar> 
6820
(
6.58022
-7.7522
-9.75481
-9.94009
-10.1008
-10.047
-10.022
-10.0494
-10.1027
-10.172
-10.251
-10.3361
-10.4257
-10.5192
-10.6163
-10.7171
-10.8215
-10.9296
-11.0414
-11.157
-11.2769
-11.4008
-11.5291
-11.662
-11.7994
-11.9415
-12.0884
-12.2398
-12.396
-12.5546
-12.7216
-12.875
-13.0742
1.20346
-7.54852
-9.55892
-9.81786
-10.0306
-10.0406
-10.0371
-10.0709
-10.1244
-10.1909
-10.2667
-10.3488
-10.436
-10.5276
-10.6234
-10.723
-10.8266
-10.934
-11.0454
-11.1608
-11.28
-11.4037
-11.5318
-11.6646
-11.802
-11.944
-12.0909
-12.2424
-12.3989
-12.5592
-12.7278
-12.8967
-13.1156
-0.874961
-6.33465
-8.76369
-9.36101
-9.74891
-9.90186
-9.96044
-10.0214
-10.0906
-10.1669
-10.2494
-10.3367
-10.4277
-10.522
-10.6195
-10.7203
-10.8244
-10.9321
-11.0434
-11.1585
-11.2776
-11.4009
-11.5286
-11.6607
-11.7975
-11.9395
-12.0866
-12.2388
-12.3967
-12.5601
-12.7326
-12.9099
-13.1113
-2.44059
-6.14951
-8.46425
-9.11965
-9.50877
-9.7249
-9.83367
-9.9265
-10.0186
-10.1097
-10.2017
-10.2954
-10.3909
-10.4888
-10.5892
-10.6922
-10.7981
-10.9071
-11.0194
-11.1351
-11.2546
-11.378
-11.5057
-11.6378
-11.7747
-11.9167
-12.0643
-12.218
-12.3793
-12.5493
-12.7325
-12.9327
-13.1666
-3.72327
-6.19097
-8.15381
-8.84239
-9.25975
-9.54162
-9.70421
-9.82747
-9.9389
-10.043
-10.1439
-10.2442
-10.3447
-10.446
-10.5488
-10.6536
-10.7607
-10.8703
-10.9828
-11.0984
-11.2173
-11.34
-11.4668
-11.598
-11.734
-11.8756
-12.0232
-12.1782
-12.3428
-12.5195
-12.714
-12.9338
-13.1963
-4.67787
-6.31082
-7.96626
-8.68575
-9.11251
-9.41642
-9.60486
-9.74435
-9.8675
-9.98066
-10.0882
-10.1933
-10.2976
-10.4018
-10.5067
-10.6128
-10.7205
-10.8303
-10.9425
-11.0574
-11.1754
-11.2968
-11.4221
-11.5517
-11.6862
-11.8265
-11.9739
-12.13
-12.2967
-12.4777
-12.6793
-12.91
-13.187
-5.4199
-6.5192
-7.87461
-8.56426
-8.97722
-9.28956
-9.50186
-9.66047
-9.79732
-9.92064
-10.0354
-10.1456
-10.2535
-10.3603
-10.4669
-10.574
-10.6823
-10.7922
-10.9041
-11.0183
-11.1352
-11.2552
-11.3789
-11.5068
-11.6397
-11.7784
-11.9243
-12.079
-12.245
-12.4261
-12.6284
-12.8593
-13.1327
-5.99985
-6.74489
-7.8323
-8.47517
-8.87666
-9.19108
-9.41782
-9.58869
-9.73408
-9.8641
-9.98396
-10.098
-10.2088
-10.3177
-10.4258
-10.5339
-10.6426
-10.7524
-10.8637
-10.977
-11.0925
-11.2109
-11.3326
-11.4583
-11.5885
-11.7245
-11.8675
-12.0193
-12.1824
-12.3603
-12.558
-12.7815
-13.0407
-6.45869
-6.97199
-7.83722
-8.42044
-8.80138
-9.10644
-9.33822
-9.51735
-9.66994
-9.80628
-9.93135
-10.0494
-10.1632
-10.2743
-10.3838
-10.4927
-10.6017
-10.7112
-10.8218
-10.9339
-11.0479
-11.1643
-11.2836
-11.4065
-11.5337
-11.6663
-11.8054
-11.9528
-12.1106
-12.2817
-12.4701
-12.6799
-12.9175
-6.82618
-7.18639
-7.87007
-8.3872
-8.74394
-9.03661
-9.26938
-9.45405
-9.61174
-9.75254
-9.88135
-10.0023
-10.1182
-10.2308
-10.3412
-10.4505
-10.5594
-10.6684
-10.7779
-10.8886
-11.0007
-11.1147
-11.2312
-11.3508
-11.4742
-11.6023
-11.7362
-11.8774
-12.0277
-12.1892
-12.3647
-12.5567
-12.7688
-7.12357
-7.38172
-7.92123
-8.37322
-8.70354
-8.98053
-9.20901
-9.39517
-9.55544
-9.69913
-9.83079
-9.95416
-10.0719
-10.1859
-10.2972
-10.4068
-10.5154
-10.6237
-10.7321
-10.841
-10.9509
-11.0623
-11.1755
-11.2913
-11.4102
-11.533
-11.6607
-11.7943
-11.9353
-12.085
-12.2451
-12.4168
-12.6015
-7.36634
-7.55561
-7.98213
-8.37269
-8.67514
-8.9348
-9.15613
-9.34153
-9.50298
-9.64849
-9.78215
-9.90725
-10.0264
-10.1411
-10.2528
-10.3624
-10.4705
-10.5777
-10.6845
-10.7914
-10.8988
-11.007
-11.1166
-11.228
-11.3417
-11.4584
-11.5788
-11.7036
-11.8338
-11.97
-12.1131
-12.2633
-12.4203
-7.56577
-7.70779
-8.04663
-8.38182
-8.65655
-8.89837
-9.11046
-9.29277
-9.45358
-9.59949
-9.73408
-9.86017
-9.98007
-10.0954
-10.2072
-10.3164
-10.4237
-10.5297
-10.6348
-10.7394
-10.844
-10.9488
-11.0543
-11.1608
-11.2688
-11.3787
-11.491
-11.6062
-11.7246
-11.8465
-11.9719
-12.1004
-12.2306
-7.73015
-7.83916
-8.11036
-8.39702
-8.64494
-8.86892
-9.0705
-9.24811
-9.40706
-9.55248
-9.6873
-9.81387
-9.93415
-10.0496
-10.1612
-10.2698
-10.3761
-10.4806
-10.5836
-10.6857
-10.7871
-10.8881
-10.9891
-11.0903
-11.1921
-11.2946
-11.3982
-11.5031
-11.6091
-11.7163
-11.824
-11.9313
-12.0363
-7.86562
-7.95112
-8.17028
-8.41533
-8.63816
-8.84491
-9.03546
-9.20726
-9.3633
-9.5073
-9.64155
-9.76794
-9.88809
-10.0032
-10.1143
-10.2221
-10.3271
-10.4298
-10.5306
-10.6299
-10.7279
-10.8248
-10.921
-11.0166
-11.1118
-11.2066
-11.3012
-11.3954
-11.4889
-11.5814
-11.6719
-11.7592
-11.8413
-7.97675
-8.0452
-8.22433
-8.43432
-8.63421
-8.82466
-9.00413
-9.1694
-9.32177
-9.46368
-9.59682
-9.72258
-9.84224
-9.95683
-10.0671
-10.1738
-10.2772
-10.378
-10.4763
-10.5726
-10.6669
-10.7596
-10.8507
-10.9404
-11.0287
-11.1156
-11.2009
-11.2844
-11.3656
-11.4439
-11.5181
-11.587
-11.6484
-8.06697
-8.12284
-8.27114
-8.45199
-8.63136
-8.80675
-8.97548
-9.13395
-9.28217
-9.42152
-9.55307
-9.67777
-9.79658
-9.91028
-10.0195
-10.1248
-10.2266
-10.3251
-10.4208
-10.5139
-10.6044
-10.6926
-10.7785
-10.8621
-10.9435
-11.0223
-11.0985
-11.1715
-11.2409
-11.3057
-11.3649
-11.4171
-11.4604
-8.13887
-8.18532
-8.30985
-8.46675
-8.62813
-8.78987
-8.9485
-9.10017
-9.24399
-9.38046
-9.51009
-9.63344
-9.75113
-9.86372
-9.97169
-10.0754
-10.1753
-10.2716
-10.3645
-10.4541
-10.5407
-10.6243
-10.7049
-10.7824
-10.8567
-10.9277
-10.9949
-11.0579
-11.1159
-11.1683
-11.2139
-11.2514
-11.2789
-8.19436
-8.2337
-8.33988
-8.4773
-8.6232
-8.77282
-8.9222
-9.06738
-9.20681
-9.34029
-9.46784
-9.58965
-9.70605
-9.81737
-9.92393
-10.026
-10.1239
-10.2177
-10.3077
-10.3939
-10.4765
-10.5555
-10.6307
-10.7022
-10.7697
-10.833
-10.8916
-10.9451
-10.9928
-11.0339
-11.0673
-11.092
-11.1063
-8.23486
-8.26879
-8.36084
-8.4826
-8.61544
-8.75453
-8.89569
-9.03488
-9.17012
-9.30064
-9.42606
-9.54623
-9.66121
-9.77114
-9.87618
-9.97649
-10.0722
-10.1636
-10.2506
-10.3333
-10.4118
-10.4861
-10.5561
-10.6217
-10.6825
-10.7385
-10.789
-10.8338
-10.872
-10.9029
-10.9257
-10.9394
-10.9427
-8.26136
-8.29118
-8.37241
-8.48178
-8.60386
-8.73406
-8.86814
-9.00206
-9.13351
-9.26133
-9.38476
-9.50338
-9.61699
-9.72556
-9.82909
-9.92764
-10.0213
-10.1101
-10.1942
-10.2735
-10.3481
-10.4178
-10.4828
-10.5426
-10.5972
-10.6463
-10.6894
-10.7262
-10.7559
-10.778
-10.7917
-10.7963
-10.7905
-8.27451
-8.30124
-8.3743
-8.47406
-8.58754
-8.71051
-8.83873
-8.96821
-9.09642
-9.22186
-9.3435
-9.46067
-9.57296
-9.68016
-9.78217
-9.87893
-9.97046
-10.0568
-10.1379
-10.2137
-10.2844
-10.3498
-10.4098
-10.4642
-10.5129
-10.5556
-10.5919
-10.6214
-10.6436
-10.658
-10.664
-10.661
-10.6481
-8.27459
-8.29909
-8.36617
-8.45876
-8.56571
-8.68312
-8.80686
-8.93294
-9.05871
-9.18239
-9.30273
-9.41884
-9.53013
-9.63624
-9.73695
-9.83214
-9.92173
-10.0057
-10.084
-10.1567
-10.2237
-10.285
-10.3404
-10.3898
-10.433
-10.4699
-10.5001
-10.5232
-10.539
-10.5469
-10.5465
-10.5375
-10.519
-8.2617
-8.28465
-8.34758
-8.43518
-8.53752
-8.65102
-8.77162
-8.89536
-9.01945
-9.14194
-9.26137
-9.37667
-9.48713
-9.59226
-9.69174
-9.78539
-9.87308
-9.95475
-10.0304
-10.0999
-10.1634
-10.2206
-10.2717
-10.3164
-10.3546
-10.3862
-10.4109
-10.4284
-10.4386
-10.441
-10.4354
-10.4216
-10.399
-8.23555
-8.25756
-8.31801
-8.40265
-8.50236
-8.61379
-8.73292
-8.85576
-8.97943
-9.10179
-9.22121
-9.33649
-9.44678
-9.5515
-9.65024
-9.74277
-9.82894
-9.90867
-9.98191
-10.0487
-10.1089
-10.1626
-10.2097
-10.2502
-10.2839
-10.3108
-10.3308
-10.3436
-10.349
-10.347
-10.3373
-10.3198
-10.2941
-8.19557
-8.2172
-8.27667
-8.36023
-8.45912
-8.5701
-8.68915
-8.81223
-8.93633
-9.05922
-9.17913
-9.29474
-9.40511
-9.50959
-9.60774
-9.69926
-9.78401
-9.86188
-9.93286
-9.99694
-10.0541
-10.1044
-10.1479
-10.1845
-10.2141
-10.2368
-10.2526
-10.2612
-10.2627
-10.257
-10.244
-10.2237
-10.196
-8.14084
-8.16269
-8.22281
-8.30741
-8.40778
-8.52065
-8.6419
-8.76735
-8.89382
-9.01892
-9.14077
-9.25796
-9.36945
-9.47457
-9.57283
-9.66395
-9.74778
-9.82426
-9.89338
-9.95518
-10.0097
-10.0571
-10.0973
-10.1304
-10.1565
-10.1756
-10.1877
-10.1929
-10.1911
-10.1825
-10.1669
-10.1446
-10.1155
-8.06999
-8.09258
-8.15479
-8.24219
-8.34568
-8.46188
-8.58656
-8.71535
-8.84497
-8.97293
-9.09726
-9.21645
-9.32945
-9.43552
-9.53419
-9.62516
-9.70831
-9.7836
-9.85107
-9.91081
-9.96291
-10.0075
-10.0447
-10.0747
-10.0976
-10.1134
-10.1224
-10.1245
-10.12
-10.1089
-10.0914
-10.0677
-10.0379
-7.98124
-8.00548
-8.07211
-8.1655
-8.27569
-8.39899
-8.53075
-8.66624
-8.80193
-8.9352
-9.064
-9.18679
-9.30254
-9.41054
-9.51035
-9.60175
-9.68468
-9.75916
-9.82531
-9.88328
-9.93325
-9.97543
-10.01
-10.0372
-10.0572
-10.0702
-10.0764
-10.0759
-10.0691
-10.056
-10.0369
-10.012
-9.9815
-7.87182
-7.89803
-7.97031
-8.07089
-8.18862
-8.31965
-8.45912
-8.60199
-8.74453
-8.88396
-9.01813
-9.14544
-9.2648
-9.37552
-9.47719
-9.56965
-9.65289
-9.72702
-9.79222
-9.84876
-9.89688
-9.93688
-9.96906
-9.99369
-10.0111
-10.0214
-10.0251
-10.0224
-10.0135
-9.99876
-9.97842
-9.9529
-9.92233
-7.73892
-7.76951
-7.85279
-7.96749
-8.10003
-8.2457
-8.39885
-8.55388
-8.70689
-8.85514
-8.99652
-9.12956
-9.25331
-9.36722
-9.47103
-9.56468
-9.64831
-9.72212
-9.78643
-9.84157
-9.88791
-9.92582
-9.95568
-9.97787
-9.99275
-10.0007
-10.002
-9.99703
-9.98616
-9.96972
-9.94801
-9.92144
-9.89017
-7.57611
-7.60955
-7.70265
-7.82964
-7.97517
-8.13479
-8.30228
-8.47114
-8.63697
-8.79668
-8.94799
-9.08932
-9.21974
-9.33879
-9.44632
-9.54245
-9.62745
-9.70171
-9.76568
-9.81984
-9.86471
-9.90078
-9.92854
-9.94847
-9.96103
-9.96665
-9.96577
-9.95881
-9.94619
-9.92832
-9.9056
-9.87854
-9.84737
-7.38136
-7.42755
-7.54744
-7.70432
-7.87725
-8.06123
-8.24967
-8.43598
-8.61616
-8.78761
-8.94836
-9.09715
-9.23332
-9.35663
-9.46713
-9.56508
-9.65092
-9.72517
-9.78842
-9.84127
-9.88436
-9.91828
-9.94362
-9.96096
-9.97084
-9.97377
-9.97026
-9.96077
-9.94579
-9.92577
-9.90113
-9.87236
-9.83972
-7.13322
-7.17851
-7.31199
-7.48897
-7.68631
-7.89843
-8.11542
-8.32821
-8.53195
-8.72362
-8.90108
-9.06321
-9.2097
-9.34066
-9.45655
-9.55801
-9.64583
-9.72084
-9.78388
-9.8358
-9.8774
-9.90945
-9.93267
-9.94774
-9.95528
-9.9559
-9.95016
-9.9386
-9.92174
-9.90011
-9.87422
-9.84465
-9.81179
-6.84976
-6.94264
-7.14385
-7.37388
-7.6084
-7.85
-8.09073
-8.32263
-8.54231
-8.74747
-8.93625
-9.10771
-9.26165
-9.39829
-9.51818
-9.62212
-9.71104
-9.78596
-9.8479
-9.89789
-9.9369
-9.96586
-9.98563
-9.99701
-10.0007
-9.9975
-9.98791
-9.97255
-9.95199
-9.92676
-9.8974
-9.86448
-9.82848
-6.42148
-6.48838
-6.72009
-7.00701
-7.30856
-7.61765
-7.91761
-8.19857
-8.45785
-8.69376
-8.9056
-9.09389
-9.25973
-9.40444
-9.52952
-9.63647
-9.72678
-9.80188
-9.86314
-9.91181
-9.94908
-9.97599
-9.99355
-10.0026
-10.004
-9.99838
-9.98645
-9.96878
-9.94594
-9.91851
-9.88703
-9.85228
-9.8149
-6.05236
-6.30382
-6.65667
-6.97031
-7.28342
-7.61048
-7.92808
-8.22744
-8.50677
-8.76249
-8.99227
-9.1958
-9.3737
-9.52712
-9.65769
-9.76726
-9.85773
-9.93098
-9.9888
-10.0328
-10.0646
-10.0855
-10.0967
-10.0993
-10.0942
-10.0822
-10.064
-10.0402
-10.0113
-9.97763
-9.93962
-9.89808
-9.85318
-4.99519
-5.25963
-5.86651
-6.40682
-6.90098
-7.36775
-7.78271
-8.14838
-8.47226
-8.75712
-9.00598
-9.22226
-9.40888
-9.56849
-9.70353
-9.81628
-9.90887
-9.98332
-10.0415
-10.0853
-10.1161
-10.1356
-10.145
-10.1455
-10.1381
-10.1236
-10.1027
-10.076
-10.0436
-10.0059
-9.96243
-9.91435
-9.8581
-5.043
-5.6014
-6.03877
-6.39707
-6.86557
-7.35159
-7.80493
-8.22828
-8.61306
-8.95093
-9.24172
-9.48807
-9.69327
-9.86131
-9.99651
-10.103
-10.1848
-10.2453
-10.2877
-10.3147
-10.3286
-10.3314
-10.3248
-10.3103
-10.2891
-10.2621
-10.23
-10.1933
-10.152
-10.1054
-10.0514
-9.98794
-9.90363
-0.0981274
-3.78892
-5.10988
-5.77352
-6.56416
-7.23127
-7.76336
-8.22644
-8.62788
-8.96901
-9.25752
-9.49942
-9.69961
-9.86298
-9.99418
-10.0974
-10.1765
-10.2348
-10.2754
-10.3009
-10.3136
-10.3154
-10.308
-10.2929
-10.2712
-10.2441
-10.2123
-10.1767
-10.1381
-10.0961
-10.0533
-10.0055
-9.96201
-13.0824
-13.5525
-15.6035
-18.3802
-21.6412
-24.8371
-27.3019
-28.4488
-28.2151
-26.6205
-23.3595
-18.1731
-11.7823
-5.7006
-0.956868
2.3824
4.4626
5.32112
5.12885
3.88057
1.58484
-1.71748
-6.09774
-11.5684
-18.0145
-25.1299
-32.398
-39.1076
-44.4645
-47.7907
-48.5975
-46.7252
-42.6922
-37.6506
-32.9381
-29.3798
-27.0712
-25.642
-24.6411
-23.7347
-22.7249
-21.5092
-20.0462
-18.3395
-16.4282
-14.377
-12.2651
-10.1748
-8.18116
-6.34492
-4.70817
-3.29377
-2.10707
-1.13957
-0.373043
0.216401
0.654963
0.968646
1.18158
1.31508
1.38721
1.41291
1.40417
1.37046
1.319
1.25484
1.18098
1.09812
1.00399
0.893587
0.758819
0.583868
0.332988
-0.107263
-1.03508
-2.99526
-6.64524
-12.395
-19.8784
-27.5414
-33.095
-34.6656
-31.624
-24.6847
-16.2272
-8.92613
-4.18122
-1.69058
-0.506264
0.0750054
0.386463
0.549998
0.633624
0.668286
0.698293
0.698372
0.70906
0.660829
0.533956
0.52287
-13.2916
-13.7531
-15.6213
-18.2646
-21.302
-24.2504
-26.343
-27.1978
-26.6653
-24.7421
-21.2797
-16.3023
-10.5502
-5.17196
-0.89776
2.2224
4.32803
5.35674
5.3362
4.2632
2.03994
-1.29163
-5.78637
-11.4492
-18.1458
-25.5356
-33.0537
-39.9372
-45.3544
-48.6364
-49.3056
-47.284
-43.059
-37.8494
-33.0127
-29.3592
-26.9538
-25.4176
-24.3154
-23.3324
-22.2806
-21.0585
-19.6218
-17.969
-16.1325
-14.1691
-12.1499
-10.1492
-8.23599
-6.46653
-4.88089
-3.50174
-2.33579
-1.37675
-0.60901
-0.0112456
0.440447
0.770178
1.00062
1.152
1.24169
1.28411
1.29094
1.27141
1.2326
1.17941
1.1147
1.03916
0.950547
0.843743
0.710722
0.536526
0.288808
-0.134713
-1.01207
-2.85993
-6.30547
-11.7403
-18.8157
-26.0631
-31.3215
-32.8256
-29.9751
-23.4269
-15.4443
-8.56739
-4.09538
-1.72327
-0.568068
0.0158097
0.334947
0.507207
0.597754
0.642341
0.673881
0.688044
0.681718
0.674528
0.470431
0.621511
-13.3667
-14.0399
-15.7852
-18.1812
-20.8345
-23.2865
-24.9499
-25.4431
-24.6145
-22.4771
-19.0449
-14.5022
-9.46948
-4.76419
-0.91888
1.97637
4.04269
5.18288
5.31892
4.41541
2.31315
-1.0028
-5.56628
-11.372
-18.2635
-25.8609
-33.5485
-40.5154
-45.9097
-49.0905
-49.6077
-47.446
-43.079
-37.7769
-32.8987
-29.2185
-26.7633
-25.1517
-23.9706
-22.9268
-21.8425
-20.6186
-19.2091
-17.6088
-15.8442
-13.9653
-12.0353
-10.1214
-8.28637
-6.58249
-5.04766
-3.70427
-2.5601
-1.61084
-0.843264
-0.238472
0.225243
0.570145
0.817447
0.986305
1.09331
1.15235
1.17477
1.16953
1.14351
1.10148
1.04618
0.978252
0.895502
0.792764
0.662062
0.489121
0.244307
-0.163727
-0.990496
-2.72056
-5.94799
-11.0458
-17.6858
-24.4924
-29.4411
-30.8771
-28.2252
-22.0921
-14.6177
-8.193
-4.00684
-1.75545
-0.628748
-0.0421139
0.284168
0.464435
0.56146
0.615837
0.648733
0.676864
0.653316
0.68683
0.406881
0.713757
-13.5205
-14.2484
-15.7456
-17.7673
-19.949
-21.8896
-23.1046
-23.2579
-22.2431
-20.1118
-16.9504
-12.9596
-8.60521
-4.48095
-1.00598
1.68105
3.65709
4.84534
5.10361
4.34289
2.38879
-0.86211
-5.43967
-11.3242
-18.3345
-26.0497
-33.8066
-40.7577
-46.0537
-49.0893
-49.4517
-47.1598
-42.715
-37.412
-32.5873
-28.9544
-26.4984
-24.8433
-23.6054
-22.5155
-21.4077
-20.1866
-18.8058
-17.2572
-15.5626
-13.7652
-11.9213
-10.0913
-8.33243
-6.69293
-5.20863
-3.90144
-2.78002
-1.8418
-1.07572
-0.465177
0.00945514
0.368641
0.632151
0.818042
0.942106
1.01768
1.05571
1.06487
1.05183
1.0212
0.975589
0.915585
0.839075
0.740874
0.613011
0.441888
0.200388
-0.192056
-0.966948
-2.57367
-5.57048
-10.3119
-16.4947
-22.8435
-27.475
-28.8444
-26.3999
-20.7041
-13.7662
-7.81443
-3.92031
-1.78832
-0.688474
-0.0989022
0.233933
0.421608
0.524801
0.588826
0.622948
0.66487
0.624238
0.697652
0.344362
0.799742
-13.5898
-14.3006
-15.5307
-17.1427
-18.8211
-20.2441
-21.0517
-20.9884
-19.9652
-18.0107
-15.2051
-11.7286
-7.94224
-4.30249
-1.15447
1.34034
3.19735
4.38124
4.71896
4.0707
2.26522
-0.873192
-5.40225
-11.2888
-18.3258
-26.0535
-33.7698
-40.6072
-45.7369
-48.5877
-48.798
-46.3956
-41.9454
-36.7444
-32.0739
-28.5638
-26.1564
-24.4907
-23.2186
-22.0977
-20.9756
-19.7621
-18.4116
-16.9143
-15.2876
-13.569
-11.8082
-10.0593
-8.37444
-6.7981
-5.36395
-4.09331
-2.99551
-2.06951
-1.30625
-0.691202
-0.206758
0.165811
0.444851
0.647314
0.788168
0.880159
0.93379
0.957451
0.957539
0.938535
0.902895
0.851149
0.781255
0.688077
0.563639
0.394964
0.157228
-0.21956
-0.941601
-2.42072
-5.17751
-9.54867
-15.2597
-21.1396
-25.4487
-26.752
-24.5223
-19.2829
-12.9052
-7.44096
-3.84042
-1.82453
-0.749304
-0.156181
0.183163
0.378138
0.487525
0.56121
0.596529
0.651994
0.594586
0.706696
0.283484
0.878573
-13.5874
-14.2382
-15.2296
-16.4704
-17.7278
-18.7533
-19.2787
-19.0931
-18.1022
-16.3183
-13.819
-10.7654
-7.44549
-4.21844
-1.3701
0.941276
2.67162
3.81288
4.19234
3.63079
1.95622
-1.03505
-5.44899
-11.25
-18.2089
-25.8335
-33.3953
-40.0242
-44.9245
-47.5553
-47.6177
-45.1422
-40.7726
-35.7863
-31.3718
-28.056
-25.7424
-24.0958
-22.8103
-21.6725
-20.5448
-19.3436
-18.0256
-16.5794
-15.0189
-13.3764
-11.6958
-10.0255
-8.41262
-6.89821
-5.51379
-4.27998
-3.20662
-2.29397
-1.53477
-0.916451
-0.423293
-0.038244
0.25564
0.474201
0.63156
0.739838
0.80908
0.847335
0.860737
0.853594
0.828216
0.785061
0.722161
0.634487
0.514061
0.348466
0.114882
-0.246809
-0.91678
-2.267
-4.77835
-8.7703
-14.0002
-19.4045
-23.3889
-24.6279
-22.6207
-17.8536
-12.0537
-7.08331
-3.77172
-1.86608
-0.812569
-0.215004
0.131172
0.333695
0.449527
0.532958
0.569529
0.63822
0.564556
0.713745
0.224762
0.949274
-13.5137
-14.0911
-14.893
-15.853
-16.7953
-17.5195
-17.8174
-17.5225
-16.5557
-14.9227
-12.6906
-9.99847
-7.07864
-4.21568
-1.64802
0.479476
2.08512
3.15627
3.54902
3.05587
1.49475
-1.33304
-5.56906
-11.1906
-17.9571
-25.3574
-32.6518
-38.9835
-43.599
-45.9828
-45.9057
-43.4133
-39.2252
-34.5702
-30.5071
-27.4462
-25.263
-23.6612
-22.381
-21.2393
-20.1145
-18.9307
-17.6472
-16.2521
-14.7564
-13.1876
-11.5844
-9.99011
-8.44729
-6.99355
-5.65838
-4.46162
-3.41341
-2.51517
-1.76123
-1.14084
-0.64005
-0.243422
0.0646143
0.298788
0.472359
0.596792
0.681642
0.734587
0.761475
0.766426
0.751607
0.717393
0.66188
0.580196
0.464399
0.302546
0.0735929
-0.273734
-0.893712
-2.11665
-4.38149
-7.99046
-12.7356
-17.6632
-21.3244
-22.5023
-20.7246
-16.4426
-11.2306
-6.75136
-3.71821
-1.91502
-0.88004
-0.276929
0.0768418
0.287662
0.41056
0.503993
0.541992
0.623539
0.534364
0.718642
0.168733
1.01137
-13.3907
-13.8918
-14.5363
-15.2687
-15.9553
-16.4392
-16.5611
-16.1906
-15.2593
-13.7669
-11.7716
-9.39358
-6.8216
-4.28236
-1.97577
-0.0340633
1.44721
2.43115
2.81068
2.37462
0.922737
-1.73437
-5.74241
-11.0944
-17.5519
-24.6058
-31.5248
-37.4799
-41.7625
-43.8869
-43.6851
-41.2547
-37.3618
-33.1507
-29.5178
-26.7544
-24.7275
-23.1903
-21.9314
-20.7978
-19.6841
-18.5225
-17.2759
-15.9322
-14.4998
-13.0025
-11.4742
-9.95346
-8.47874
-7.08443
-5.79798
-4.6384
-3.61601
-2.73317
-1.98564
-1.36434
-0.856969
-0.449651
-0.128152
0.121152
0.31064
0.451096
0.551553
0.619295
0.659856
0.67715
0.673196
0.64828
0.60055
0.525334
0.414789
0.257366
0.0335857
-0.300177
-0.873277
-1.97338
-3.99535
-7.22359
-11.4869
-15.9425
-19.2857
-20.4072
-18.8663
-15.078
-10.4551
-6.45409
-3.68309
-1.97301
-0.953194
-0.343248
0.0193235
0.239627
0.370486
0.474279
0.513991
0.607968
0.504235
0.721274
0.115848
1.06457
-13.2287
-13.6527
-14.1632
-14.7125
-15.1987
-15.4986
-15.4877
-15.0632
-14.1693
-12.8055
-11.0222
-8.92087
-6.65433
-4.40494
-2.34072
-0.583796
0.771034
1.66276
2.00411
1.61289
0.276313
-2.19553
-5.9377
-10.9459
-16.9902
-23.5824
-30.0237
-35.5298
-39.442
-41.314
-41.0247
-38.7529
-35.2714
-31.6
-28.4467
-26.0011
-24.1447
-22.6869
-21.4629
-20.3481
-19.2532
-18.1188
-16.9113
-15.6192
-14.249
-12.8212
-11.3653
-9.91582
-8.50732
-7.1712
-5.93292
-4.81059
-3.8146
-2.94807
-2.20804
-1.58693
-1.07402
-0.656881
-0.322596
-0.0586391
0.146477
0.30283
0.418904
0.501553
0.555983
0.585876
0.593102
0.577853
0.538319
0.470049
0.365383
0.213103
-0.00490154
-0.325893
-0.856181
-1.84078
-3.62873
-6.48506
-10.2763
-14.2702
-17.3042
-18.3762
-17.0794
-13.7881
-9.74462
-6.19852
-3.66852
-2.04133
-1.03345
-0.415273
-0.0423046
0.189104
0.329132
0.443788
0.485621
0.591557
0.474423
0.721591
0.0664891
1.10878
-13.0387
-13.3898
-13.787
-14.1888
-14.5159
-14.6719
-14.5604
-14.1017
-13.2514
-12.009
-10.4168
-8.55964
-6.56242
-4.57345
-2.73406
-1.15694
0.0682022
0.869204
1.15927
0.796523
-0.419929
-2.68165
-6.11931
-10.7258
-16.2795
-22.3203
-28.1993
-33.199
-36.7181
-38.3576
-38.0414
-36.0311
-33.0677
-29.9964
-27.3344
-25.2051
-23.5235
-22.1552
-20.9773
-19.891
-18.822
-17.7192
-16.5531
-15.313
-14.004
-12.6436
-11.2579
-9.8775
-8.53341
-7.25423
-6.06353
-4.97848
-4.00939
-3.16002
-2.42853
-1.80868
-1.2912
-0.865092
-0.518679
-0.24053
-0.0200586
0.152081
0.283794
0.381481
0.449991
0.492759
0.51149
0.506289
0.475374
0.414524
0.316354
0.169953
-0.0416125
-0.350477
-0.842619
-1.72171
-3.28979
-5.79016
-9.12616
-12.6747
-15.4122
-16.4442
-15.3979
-12.5998
-9.11377
-5.98914
-3.6755
-2.12086
-1.12197
-0.494012
-0.108654
0.135839
0.286453
0.412554
0.457024
0.574397
0.445195
0.719606
0.0209671
1.14411
-12.8297
-13.1134
-13.4145
-13.6971
-13.8993
-13.9458
-13.7618
-13.2855
-12.4822
-11.352
-9.93109
-8.29032
-6.53207
-4.77785
-3.14684
-1.74189
-0.647197
0.0636077
0.301589
-0.0471393
-1.14811
-3.17999
-6.27112
-10.4215
-15.427
-20.861
-26.1307
-30.5958
-33.7091
-35.1416
-34.879
-33.2422
-30.8743
-28.41
-26.2134
-24.3815
-22.872
-21.5996
-20.4769
-19.4275
-18.3907
-17.3238
-16.2013
-15.0134
-13.7646
-12.4699
-11.1523
-9.83885
-8.55741
-7.33396
-6.19023
-5.14242
-4.20068
-3.36926
-2.64725
-2.02967
-1.50858
-1.0743
-0.716389
-0.424481
-0.188904
-0.00106447
0.146336
0.259211
0.342034
0.397967
0.428545
0.433784
0.411927
0.358974
0.267897
0.128124
-0.0762841
-0.373421
-0.832221
-1.61781
-2.98523
-5.15307
-8.0585
-11.1842
-13.6424
-14.6466
-13.8552
-11.5368
-8.57236
-5.82748
-3.70398
-2.2122
-1.21968
-0.580225
-0.180149
0.0796748
0.242462
0.380663
0.428388
0.556631
0.416844
0.715397
-0.0204816
1.17088
-12.6087
-12.8316
-13.052
-13.2391
-13.3439
-13.3079
-13.0728
-12.5915
-11.8375
-10.8121
-9.54585
-8.09791
-6.55251
-5.00996
-3.57133
-2.32928
-1.36195
-0.741157
-0.551799
-0.89272
-1.89081
-3.69297
-6.41281
-10.0601
-14.4645
-19.2496
-23.8865
-27.8091
-30.5321
-31.8252
-31.7338
-30.5634
-28.7991
-26.8899
-25.1051
-23.5421
-22.1977
-21.025
-19.9646
-18.959
-17.9601
-16.9328
-15.8556
-14.7204
-13.5309
-12.3003
-11.0488
-9.80023
-8.57976
-7.41084
-6.31346
-5.30283
-4.38882
-3.57606
-2.86444
-2.25007
-1.72627
-1.28458
-0.915748
-0.610475
-0.360005
-0.156517
0.00665138
0.134897
0.232295
0.301709
0.344493
0.360577
0.348227
0.303656
0.220245
0.0878429
-0.108644
-0.394161
-0.824097
-1.52932
-2.71947
-4.58565
-7.09354
-9.82573
-12.0272
-13.0177
-12.4805
-10.6158
-8.12414
-5.71218
-3.75326
-2.31582
-1.3273
-0.674298
-0.256862
0.0207102
0.197323
0.348291
0.399963
0.538455
0.389678
0.709105
-0.0576953
1.18955
-12.3818
-12.551
-12.7042
-12.8149
-12.8446
-12.7476
-12.4792
-12.0032
-11.3001
-10.3721
-9.2454
-7.96936
-6.6138
-5.26202
-4.00009
-2.91055
-2.06477
-1.53184
-1.38863
-1.72206
-2.63053
-4.22261
-6.58393
-9.72074
-13.4983
-17.6079
-21.6028
-25.0037
-27.4158
-28.6808
-28.8467
-28.1417
-26.9043
-25.4579
-24.0207
-22.6962
-21.5081
-20.4366
-19.4435
-18.4872
-17.5308
-16.5463
-15.5161
-14.4339
-13.3029
-12.1349
-10.9475
-9.76203
-8.60093
-7.48539
-6.43373
-5.46016
-4.57423
-3.78077
-3.08038
-2.47012
-1.94443
-1.49603
-1.11682
-0.798523
-0.533321
-0.314187
-0.135126
0.00871428
0.120982
0.204221
0.259594
0.286939
0.284559
0.248863
0.173669
0.0493547
-0.13841
-0.412126
-0.81693
-1.45492
-2.49387
-4.0957
-6.24766
-8.62351
-10.5962
-11.5869
-11.2951
-9.84393
-7.76625
-5.63968
-3.82246
-2.4323
-1.44534
-0.776302
-0.338621
-0.0408007
0.15131
0.315698
0.372064
0.520129
0.364024
0.70094
-0.0905704
1.2007
-12.1537
-12.2764
-12.3739
-12.4243
-12.3971
-12.2566
-11.9686
-11.5057
-10.8539
-10.0164
-9.01571
-7.89336
-6.70736
-5.52727
-4.42662
-3.47815
-2.74655
-2.29671
-2.19718
-2.5226
-3.35157
-4.76115
-6.80723
-9.48369
-12.6784
-16.1489
-19.5441
-22.4878
-24.6718
-25.9581
-26.3579
-26.024
-25.1948
-24.1145
-22.9662
-21.8525
-20.811
-19.8398
-18.917
-18.0142
-17.104
-16.1648
-15.1831
-14.154
-13.0807
-11.9738
-10.8488
-9.72467
-8.6214
-7.55814
-6.55159
-5.61497
-4.7574
-3.98385
-3.29545
-2.69012
-2.16331
-1.70885
-1.31971
-0.98867
-0.708831
-0.473991
-0.27885
-0.119141
0.00833819
0.105786
0.174154
0.213195
0.221252
0.194933
0.128492
0.0129335
-0.165295
-0.426775
-0.809164
-1.39185
-2.3062
-3.6852
-5.53032
-7.59479
-9.37155
-10.3731
-10.3067
-9.21652
-7.49021
-5.60555
-3.9112
-2.56246
-1.57419
-0.886037
-0.424967
-0.104419
0.104829
0.283246
0.345076
0.501976
0.340229
0.691171
-0.119046
1.20498
-11.9286
-12.0115
-12.0637
-12.0671
-11.9975
-11.8274
-11.5305
-11.0865
-10.4858
-9.73231
-8.8456
-7.86063
-6.82598
-5.79998
-4.84562
-4.0263
-3.40042
-3.02725
-2.96761
-3.28462
-4.04139
-5.29344
-7.07376
-9.36589
-12.0733
-15.0049
-17.8927
-20.4488
-22.4261
-23.6998
-24.2494
-24.1745
-23.6475
-22.8549
-21.9475
-21.0191
-20.1133
-19.2396
-18.3884
-17.5418
-16.6806
-15.7889
-14.8568
-13.8808
-12.8645
-11.8173
-10.7531
-9.68859
-8.64172
-7.62968
-6.66766
-5.76785
-4.93892
-4.18583
-3.51014
-2.91048
-2.38324
-1.92328
-1.5246
-1.181
-0.886537
-0.635848
-0.424368
-0.248447
-0.105361
0.0067181
0.0885219
0.13971
0.158676
0.142239
0.0850829
-0.0211049
-0.189006
-0.437619
-0.799221
-1.33636
-2.15074
-3.34904
-4.9408
-6.74462
-8.35953
-9.37695
-9.50569
-8.71782
-7.28443
-5.60603
-4.02009
-2.70745
-1.71423
-1.00322
-0.515278
-0.169628
0.0583712
0.251385
0.319456
0.484388
0.318657
0.680128
-0.143067
1.20302
-11.7095
-11.759
-11.7747
-11.742
-11.642
-11.4532
-11.1558
-10.7349
-10.1843
-9.50851
-8.7247
-7.86251
-6.96277
-6.07459
-5.25197
-4.54978
-4.02032
-3.71666
-3.69216
-3.99988
-4.69014
-5.80353
-7.35844
-9.33259
-11.6432
-14.1377
-16.6078
-18.8285
-20.5997
-21.8156
-22.4432
-22.5444
-22.2421
-21.6771
-20.9701
-20.2034
-19.4214
-18.6409
-17.861
-17.0721
-16.2619
-15.4193
-14.5374
-13.6146
-12.6545
-11.6657
-10.6606
-9.65424
-8.66244
-7.70065
-6.7826
-5.9195
-5.11945
-4.38733
-3.72501
-3.13172
-2.60467
-2.13966
-1.73172
-1.37566
-1.06647
-0.799687
-0.571513
-0.378954
-0.219795
-0.0926063
0.00310907
0.0669151
0.0972678
0.0912095
0.0438571
-0.0523921
-0.209243
-0.44424
-0.785724
-1.28429
-2.01919
-3.0752
-4.46609
-6.06088
-7.54568
-8.57773
-8.86607
-8.32549
-7.13776
-5.63946
-4.15096
-2.86892
-1.86604
-1.12773
-0.609018
-0.235864
0.0125129
0.220662
0.295734
0.467828
0.299698
0.668188
-0.162576
1.19539
-11.499
-11.5208
-11.5079
-11.4483
-11.3273
-11.1284
-10.8368
-10.4418
-9.9398
-9.33578
-8.64487
-7.89233
-7.11264
-6.3473
-5.64256
-5.04558
-4.60279
-4.36106
-4.36657
-4.66368
-5.2922
-6.28156
-7.64095
-9.34598
-11.3258
-13.4573
-15.5764
-17.505
-19.0832
-20.2196
-20.8808
-21.1011
-20.966
-20.5799
-20.0381
-19.4108
-18.7406
-18.0479
-17.3379
-16.6073
-15.849
-15.0565
-14.2254
-13.3555
-12.4507
-11.5191
-10.5718
-9.62213
-8.68416
-7.77172
-6.89717
-6.07068
-5.29977
-4.58912
-3.94079
-3.35448
-2.82815
-2.35846
-1.94142
-1.57283
-1.2487
-0.965448
-0.720108
-0.510387
-0.334608
-0.191772
-0.0816295
-0.00471145
0.0375074
0.0423129
0.00526832
-0.0805109
-0.225673
-0.446285
-0.767611
-1.23185
-1.90224
-2.84689
-4.08199
-5.51388
-6.89614
-7.93678
-8.3524
-8.01724
-7.04283
-5.70696
-4.30687
-3.04906
-2.03063
-1.25981
-0.705914
-0.30257
-0.0321035
0.191722
0.274524
0.452837
0.283777
0.655782
-0.17749
1.18255
-11.2986
-11.2981
-11.2629
-11.1839
-11.0496
-10.8473
-10.5661
-10.1987
-9.74329
-9.20527
-8.598
-7.94314
-7.26991
-6.61346
-6.01335
-5.51
-5.14417
-4.9567
-4.98716
-5.27234
-5.84357
-6.72178
-7.91003
-9.38392
-11.083
-12.9079
-14.7282
-16.4033
-17.8055
-18.8569
-19.523
-19.8206
-19.8077
-19.5608
-19.1541
-18.6459
-18.0754
-17.4644
-16.8219
-16.1492
-15.4434
-14.7013
-13.9211
-13.1038
-12.2536
-11.378
-10.4871
-9.59273
-8.7075
-7.84363
-7.01217
-6.22227
-5.48077
-4.79209
-4.15832
-3.57956
-3.05437
-2.58023
-2.15411
-1.77281
-1.43334
-1.13309
-0.869961
-0.642423
-0.449375
-0.29028
-0.165147
-0.0746011
-0.0200384
-0.00390841
-0.0301785
-0.105004
-0.237932
-0.443474
-0.744214
-1.17621
-1.79159
-2.64653
-3.75921
-5.06313
-6.36278
-7.40849
-7.93151
-7.77761
-6.99772
-5.81215
-4.49199
-3.25095
-2.20969
-1.3999
-0.805857
-0.369182
-0.07474
0.165326
0.256534
0.440034
0.271348
0.643371
-0.187735
1.16491
-11.1103
-11.092
-11.0403
-10.948
-10.8063
-10.6057
-10.3382
-9.99914
-9.58812
-9.11059
-8.57852
-8.01055
-7.4315
-6.87122
-6.36336
-5.94253
-5.64414
-5.50339
-5.55385
-5.82583
-6.34382
-7.12246
-8.1608
-9.43558
-10.8956
-12.4603
-14.0262
-15.4817
-16.7243
-17.6881
-18.3392
-18.6827
-18.7568
-18.6167
-18.3191
-17.9119
-17.4297
-16.8938
-16.3157
-15.6996
-15.0461
-14.3545
-13.625
-12.8598
-12.0632
-11.2425
-10.4068
-9.56659
-8.7331
-7.91714
-7.12848
-6.37522
-5.66349
-4.99728
-4.37865
-3.80793
-3.2842
-2.80573
-2.37037
-1.97596
-1.62055
-1.30258
-1.02088
-0.774716
-0.563641
-0.387592
-0.246853
-0.142142
-0.0747594
-0.0468668
-0.0619352
-0.125372
-0.245603
-0.435525
-0.715174
-1.11573
-1.68137
-2.45997
-3.47193
-4.6706
-5.9035
-6.95824
-7.5835
-7.60089
-7.00504
-5.96053
-4.71184
-3.47878
-2.40573
-1.54873
-0.90876
-0.435045
-0.114518
0.142377
0.242582
0.430127
0.262919
0.631467
-0.193247
1.14287
-10.9341
-10.902
-10.8384
-10.7377
-10.5934
-10.3982
-10.1467
-9.83589
-9.4666
-9.04425
-8.5795
-8.08846
-7.59227
-7.11632
-6.68916
-6.34037
-6.10037
-5.99921
-6.0651
-6.32284
-6.79147
-7.48099
-8.38803
-9.49112
-10.7471
-12.0905
-13.4391
-14.7036
-15.8024
-16.6794
-17.3022
-17.6688
-17.803
-17.7435
-17.5334
-17.2111
-16.8062
-16.3389
-15.8215
-15.2604
-14.6583
-14.0168
-13.3376
-12.6237
-11.8799
-11.113
-10.3313
-9.5442
-8.76165
-7.99309
-7.24707
-6.53063
-5.84909
-5.20593
-4.603
-4.04076
-3.51874
-3.03586
-2.59091