/*--------------------------------*- C++ -*----------------------------------*\
  =========                 |
  \\      /  F ield         | OpenFOAM: The Open Source CFD Toolbox
   \\    /   O peration     | Website:  https://openfoam.org
    \\  /    A nd           | Version:  10
     \\/     M anipulation  |
\*---------------------------------------------------------------------------*/
FoamFile
{
    format      ascii;
    class       surfaceScalarField;
    location    "0.185";
    object      phi;
}
// * * * * * * * * * * * * * * * * * * * * * * * * * * * * * * * * * * * * * //

dimensions      [0 3 -1 0 0 0 0];

internalField   nonuniform List<scalar> 
13452
(
4.01953e-05
2.00731e-05
2.59436e-05
1.42517e-05
1.8548e-05
7.39564e-06
1.51847e-05
3.36325e-06
1.37805e-05
1.4042e-06
1.30839e-05
6.96656e-07
1.26423e-05
4.41608e-07
1.23039e-05
3.38409e-07
1.20191e-05
2.84743e-07
1.17763e-05
2.42877e-07
1.15713e-05
2.04988e-07
1.14005e-05
1.70717e-07
1.12602e-05
1.40319e-07
1.11465e-05
1.13711e-07
1.10561e-05
9.04254e-08
1.09862e-05
6.98433e-08
1.09349e-05
5.13691e-08
1.09004e-05
3.45018e-08
1.08816e-05
1.87803e-08
1.08779e-05
3.65351e-09
1.08883e-05
-1.03255e-08
1.09123e-05
-2.40007e-08
1.09496e-05
-3.73052e-08
1.09997e-05
-5.01196e-08
1.10621e-05
-6.2418e-08
1.11361e-05
-7.39973e-08
1.12206e-05
-8.44804e-08
1.1313e-05
-9.24164e-08
1.14114e-05
-9.84005e-08
1.15037e-05
-9.23375e-08
1.15912e-05
-8.7505e-08
1.1589e-05
2.28732e-09
-5.10742e-08
1.164e-05
6.59055e-05
1.6158e-05
6.19082e-05
1.8249e-05
5.56616e-05
1.36422e-05
4.98111e-05
9.21379e-06
4.53352e-05
5.88006e-06
4.2144e-05
3.88789e-06
3.98604e-05
2.72518e-06
3.81855e-05
2.01331e-06
3.6914e-05
1.55628e-06
3.5915e-05
1.24191e-06
3.51083e-05
1.01166e-06
3.44438e-05
8.35238e-07
3.38887e-05
6.95361e-07
3.34211e-05
5.81376e-07
3.30252e-05
4.86245e-07
3.269e-05
4.05073e-07
3.2407e-05
3.34354e-07
3.217e-05
2.7153e-07
3.19741e-05
2.14695e-07
3.18153e-05
1.62432e-07
3.16911e-05
1.13925e-07
3.15988e-05
6.82093e-08
3.15369e-05
2.46595e-08
3.15036e-05
-1.68507e-08
3.14974e-05
-5.61628e-08
3.15164e-05
-9.30458e-08
3.15586e-05
-1.26698e-07
3.16216e-05
-1.55398e-07
3.17011e-05
-1.77939e-07
3.17938e-05
-1.85028e-07
3.18889e-05
-1.82609e-07
3.20169e-05
-1.25631e-07
-6.38604e-08
3.20296e-05
6.91821e-05
1.07374e-05
7.25126e-05
1.49184e-05
7.30752e-05
1.30797e-05
7.17152e-05
1.05737e-05
6.94887e-05
8.10653e-06
6.71312e-05
6.24548e-06
6.49249e-05
4.93147e-06
6.29601e-05
3.97807e-06
6.12472e-05
3.26917e-06
5.97642e-05
2.72492e-06
5.84821e-05
2.29373e-06
5.73732e-05
1.94418e-06
5.64128e-05
1.65578e-06
5.558e-05
1.4142e-06
5.48572e-05
1.20897e-06
5.42301e-05
1.03222e-06
5.36865e-05
8.77934e-07
5.32166e-05
7.41451e-07
5.28122e-05
6.19132e-07
5.24665e-05
5.08108e-07
5.21741e-05
4.06297e-07
5.19304e-05
3.11911e-07
5.17314e-05
2.23634e-07
5.15738e-05
1.40755e-07
5.14547e-05
6.29203e-08
5.13718e-05
-1.01484e-08
5.13229e-05
-7.77717e-08
5.13051e-05
-1.37609e-07
5.13142e-05
-1.87015e-07
5.13476e-05
-2.18403e-07
5.13939e-05
-2.28951e-07
5.14599e-05
-1.9158e-07
-1.03989e-07
5.15e-05
6.88465e-05
7.47397e-06
7.21632e-05
1.16016e-05
7.45412e-05
1.07017e-05
7.59568e-05
9.15818e-06
7.65433e-05
7.51999e-06
7.66179e-05
6.17084e-06
7.63883e-05
5.16109e-06
7.59796e-05
4.3868e-06
7.5472e-05
3.77678e-06
7.4914e-05
3.28291e-06
7.43361e-05
2.87164e-06
7.37584e-05
2.52187e-06
7.31949e-05
2.21928e-06
7.26553e-05
1.95382e-06
7.21456e-05
1.71863e-06
7.16695e-05
1.5083e-06
7.1229e-05
1.31842e-06
7.08251e-05
1.1454e-06
7.04579e-05
9.86315e-07
7.01272e-05
8.38779e-07
6.98326e-05
7.00927e-07
6.95733e-05
5.71194e-07
6.93486e-05
4.48395e-07
6.91575e-05
3.31823e-07
6.89992e-05
2.21191e-07
6.88724e-05
1.16668e-07
6.87757e-05
1.89804e-08
6.87083e-05
-7.03063e-08
6.86694e-05
-1.48033e-07
6.86595e-05
-2.08552e-07
6.86772e-05
-2.46612e-07
6.87341e-05
-2.48487e-07
-2.0133e-07
6.88314e-05
6.95597e-05
5.37101e-06
7.18389e-05
9.32251e-06
7.35437e-05
8.99682e-06
7.48182e-05
7.88372e-06
7.57156e-05
6.62254e-06
7.63738e-05
5.51271e-06
7.6879e-05
4.65585e-06
7.72732e-05
3.99258e-06
7.75845e-05
3.4655e-06
7.78312e-05
3.03619e-06
7.80261e-05
2.67675e-06
7.81792e-05
2.36875e-06
7.82979e-05
2.10063e-06
7.83877e-05
1.86401e-06
7.84542e-05
1.65209e-06
7.85027e-05
1.45986e-06
7.85376e-05
1.28351e-06
7.85629e-05
1.12007e-06
7.85821e-05
9.67137e-07
7.85981e-05
8.2277e-07
7.86136e-05
6.8546e-07
7.86308e-05
5.53988e-07
7.86517e-05
4.27451e-07
7.86782e-05
3.05339e-07
7.87119e-05
1.87524e-07
7.87542e-05
7.43484e-08
7.88061e-05
-3.29214e-08
7.88687e-05
-1.32892e-07
7.89444e-05
-2.23807e-07
7.90383e-05
-3.02394e-07
7.91567e-05
-3.65001e-07
7.93142e-05
-4.06036e-07
-4.21258e-07
7.95341e-05
7.08412e-05
3.91382e-06
7.26315e-05
7.53226e-06
7.39432e-05
7.68507e-06
7.48802e-05
6.94675e-06
7.55187e-05
5.984e-06
7.59781e-05
5.05336e-06
7.63454e-05
4.28857e-06
7.6661e-05
3.67691e-06
7.69455e-05
3.18104e-06
7.72087e-05
2.77302e-06
7.74548e-05
2.43058e-06
7.76863e-05
2.1373e-06
7.79051e-05
1.88181e-06
7.81131e-05
1.65605e-06
7.83112e-05
1.45394e-06
7.85003e-05
1.27073e-06
7.86812e-05
1.10265e-06
7.88546e-05
9.46711e-07
7.90212e-05
8.00502e-07
7.91819e-05
6.62073e-07
7.93375e-05
5.29874e-07
7.94888e-05
4.02663e-07
7.96368e-05
2.79499e-07
7.97823e-05
1.59777e-07
7.99266e-05
4.32429e-08
8.0071e-05
-7.00099e-08
8.02179e-05
-1.79868e-07
8.03707e-05
-2.85724e-07
8.05333e-05
-3.86412e-07
8.07115e-05
-4.80581e-07
8.09141e-05
-5.6757e-07
8.11557e-05
-6.47631e-07
-7.24895e-07
8.14593e-05
7.23899e-05
2.89026e-06
7.38454e-05
6.07671e-06
7.49788e-05
6.55176e-06
7.58048e-05
6.12074e-06
7.63729e-05
5.4159e-06
7.67668e-05
4.65947e-06
7.70627e-05
3.99257e-06
7.7303e-05
3.43669e-06
7.75108e-05
2.97319e-06
7.76997e-05
2.58414e-06
7.78767e-05
2.25358e-06
7.80457e-05
1.96834e-06
7.82088e-05
1.71867e-06
7.83675e-05
1.49733e-06
7.85228e-05
1.29869e-06
7.86752e-05
1.11831e-06
7.88252e-05
9.526e-07
7.89733e-05
7.98679e-07
7.91196e-05
6.54174e-07
7.92645e-05
5.17139e-07
7.94084e-05
3.85986e-07
7.95517e-05
2.59413e-07
7.96948e-05
1.36382e-07
7.98385e-05
1.60635e-08
7.99839e-05
-1.02165e-07
8.01325e-05
-2.18642e-07
8.02863e-05
-3.33587e-07
8.04476e-05
-4.47117e-07
8.06206e-05
-5.59368e-07
8.08108e-05
-6.70786e-07
8.10264e-05
-7.83172e-07
8.12793e-05
-9.00483e-07
-1.03048e-06
8.15848e-05
7.41264e-05
2.16919e-06
7.5297e-05
4.90606e-06
7.6284e-05
5.56477e-06
7.70435e-05
5.36122e-06
7.75985e-05
4.86092e-06
7.79983e-05
4.25966e-06
7.83006e-05
3.69028e-06
7.85428e-05
3.19449e-06
7.87474e-05
2.76859e-06
7.89284e-05
2.4031e-06
7.90942e-05
2.08776e-06
7.92498e-05
1.81283e-06
7.93981e-05
1.57035e-06
7.95413e-05
1.35414e-06
7.96808e-05
1.15921e-06
7.98176e-05
9.81508e-07
7.99524e-05
8.1771e-07
8.00861e-05
6.6507e-07
8.02189e-05
5.21306e-07
8.03516e-05
3.84513e-07
8.04844e-05
2.53096e-07
8.06181e-05
1.25717e-07
8.07533e-05
1.22384e-09
8.08907e-05
-1.21315e-07
8.10312e-05
-2.42686e-07
8.11762e-05
-3.63611e-07
8.13274e-05
-4.84829e-07
8.14875e-05
-6.07163e-07
8.16598e-05
-7.31763e-07
8.18495e-05
-8.6047e-07
8.20631e-05
-9.96733e-07
8.23091e-05
-1.14654e-06
-1.3184e-06
8.25971e-05
7.60178e-05
1.65384e-06
7.69575e-05
3.96638e-06
7.78115e-05
4.7108e-06
7.84999e-05
4.67276e-06
7.90293e-05
4.33154e-06
7.94281e-05
3.86089e-06
7.97383e-05
3.38e-06
7.99914e-05
2.94146e-06
8.02067e-05
2.55323e-06
8.03972e-05
2.21263e-06
8.05708e-05
1.91414e-06
8.07326e-05
1.65102e-06
8.08859e-05
1.41707e-06
8.10329e-05
1.20713e-06
8.11753e-05
1.01687e-06
8.13141e-05
8.42652e-07
8.14504e-05
6.81423e-07
8.15849e-05
5.30611e-07
8.17181e-05
3.8804e-07
8.18508e-05
2.51856e-07
8.19834e-05
1.20474e-07
8.21166e-05
-7.48133e-09
8.22511e-05
-1.3321e-07
8.23875e-05
-2.57777e-07
8.2527e-05
-3.82198e-07
8.26709e-05
-5.07493e-07
8.28209e-05
-6.34792e-07
8.29792e-05
-7.6547e-07
8.31488e-05
-9.01425e-07
8.33338e-05
-1.04539e-06
8.35387e-05
-1.20164e-06
8.37689e-05
-1.3768e-06
-1.57851e-06
8.4029e-05
7.80341e-05
1.27937e-06
7.87883e-05
3.2121e-06
7.9525e-05
3.97416e-06
8.01467e-05
4.05105e-06
8.0647e-05
3.83122e-06
8.10396e-05
3.46827e-06
8.13533e-05
3.06634e-06
8.1613e-05
2.68171e-06
8.18358e-05
2.33047e-06
8.20332e-05
2.01526e-06
8.22129e-05
1.73438e-06
8.23801e-05
1.48381e-06
8.25382e-05
1.25904e-06
8.26894e-05
1.05594e-06
8.28354e-05
8.70859e-07
8.29774e-05
7.00604e-07
8.31164e-05
5.42401e-07
8.32532e-05
3.9386e-07
8.33883e-05
2.52914e-07
8.35224e-05
1.17766e-07
8.3656e-05
-1.31579e-08
8.37898e-05
-1.41261e-07
8.39244e-05
-2.67803e-07
8.40606e-05
-3.93974e-07
8.41994e-05
-5.20955e-07
8.43419e-05
-6.49997e-07
8.44896e-05
-7.82533e-07
8.46445e-05
-9.2032e-07
8.48087e-05
-1.06569e-06
8.49851e-05
-1.22178e-06
8.51765e-05
-1.39299e-06
8.53854e-05
-1.58575e-06
-1.80612e-06
8.5613e-05
8.01557e-05
1.00202e-06
8.0763e-05
2.60477e-06
8.13979e-05
3.33921e-06
8.19586e-05
3.49036e-06
8.24285e-05
3.36131e-06
8.28111e-05
3.08566e-06
8.31248e-05
2.75269e-06
8.33889e-05
2.41763e-06
8.36177e-05
2.10169e-06
8.38213e-05
1.81157e-06
8.40071e-05
1.54862e-06
8.41798e-05
1.31113e-06
8.43427e-05
1.09613e-06
8.44982e-05
9.0046e-07
8.46479e-05
7.21136e-07
8.47931e-05
5.55385e-07
8.49348e-05
4.00726e-07
8.50737e-05
2.54953e-07
8.52105e-05
1.16118e-07
8.53458e-05
-1.75171e-08
8.54801e-05
-1.47491e-07
8.56141e-05
-2.7522e-07
8.57483e-05
-4.02016e-07
8.58835e-05
-5.29155e-07
8.60204e-05
-6.57936e-07
8.61602e-05
-7.89764e-07
8.63039e-05
-9.26253e-07
8.6453e-05
-1.06935e-06
8.66088e-05
-1.22153e-06
8.6773e-05
-1.38596e-06
8.69467e-05
-1.56674e-06
8.71305e-05
-1.76952e-06
-1.99859e-06
8.7323e-05
8.23702e-05
7.92276e-07
8.28616e-05
2.11332e-06
8.34085e-05
2.79238e-06
8.39131e-05
2.98574e-06
8.43523e-05
2.92207e-06
8.47228e-05
2.71519e-06
8.50347e-05
2.44078e-06
8.53021e-05
2.15024e-06
8.55364e-05
1.86738e-06
8.57463e-05
1.60171e-06
8.59381e-05
1.35683e-06
8.61163e-05
1.13287e-06
8.62842e-05
9.28195e-07
8.64441e-05
7.40558e-07
8.65977e-05
5.67575e-07
8.67462e-05
4.06904e-07
8.68906e-05
2.56349e-07
8.70316e-05
1.13901e-07
8.717e-05
-2.22619e-08
8.73063e-05
-1.53803e-07
8.7441e-05
-2.82218e-07
8.75747e-05
-4.0892e-07
8.77079e-05
-5.35242e-07
8.78413e-05
-6.62504e-07
8.79754e-05
-7.92068e-07
8.81111e-05
-9.25406e-07
8.8249e-05
-1.06419e-06
8.839e-05
-1.21039e-06
8.85349e-05
-1.36641e-06
8.86841e-05
-1.53517e-06
8.88376e-05
-1.72017e-06
8.89941e-05
-1.92605e-06
-2.15545e-06
8.91509e-05
8.46698e-05
6.30221e-07
8.50703e-05
1.71285e-06
8.55416e-05
2.32106e-06
8.59955e-05
2.53186e-06
8.64048e-05
2.51278e-06
8.67614e-05
2.35857e-06
8.70694e-05
2.13276e-06
8.73383e-05
1.88139e-06
8.75768e-05
1.62889e-06
8.7792e-05
1.38651e-06
8.79894e-05
1.15939e-06
8.81732e-05
9.49113e-07
8.83462e-05
7.55142e-07
8.85108e-05
5.76029e-07
8.86684e-05
4.09947e-07
8.88203e-05
2.54949e-07
8.89676e-05
1.09115e-07
8.91109e-05
-2.9375e-08
8.92508e-05
-1.62212e-07
8.9388e-05
-2.90967e-07
8.95228e-05
-4.17092e-07
8.96559e-05
-5.41969e-07
8.97876e-05
-6.66923e-07
8.99183e-05
-7.93273e-07
9.00487e-05
-9.22382e-07
9.0179e-05
-1.05571e-06
9.03097e-05
-1.19489e-06
9.0441e-05
-1.34177e-06
9.05731e-05
-1.4985e-06
9.07056e-05
-1.66761e-06
9.08372e-05
-1.85185e-06
9.0966e-05
-2.0548e-06
-2.27767e-06
9.10882e-05
8.70501e-05
5.02296e-07
8.73793e-05
1.38362e-06
8.77865e-05
1.9139e-06
8.81947e-05
2.12361e-06
8.85752e-05
2.13227e-06
8.8917e-05
2.01685e-06
8.92195e-05
1.83019e-06
8.94885e-05
1.61243e-06
8.97302e-05
1.3872e-06
8.99501e-05
1.16655e-06
9.01529e-05
9.56639e-07
9.0342e-05
7.6002e-07
9.05201e-05
5.77047e-07
9.06892e-05
4.06922e-07
9.08508e-05
2.48302e-07
9.10062e-05
9.9596e-08
9.11561e-05
-4.08605e-08
9.13015e-05
-1.74702e-07
9.14427e-05
-3.03486e-07
9.15805e-05
-4.28688e-07
9.17151e-05
-5.51698e-07
9.18469e-05
-6.73843e-07
9.19764e-05
-7.96407e-07
9.21038e-05
-9.20669e-07
9.22294e-05
-1.04794e-06
9.23533e-05
-1.17959e-06
9.24755e-05
-1.31712e-06
9.25959e-05
-1.46218e-06
9.2714e-05
-1.61656e-06
9.28286e-05
-1.78229e-06
9.29382e-05
-1.96138e-06
9.30398e-05
-2.15638e-06
-2.36738e-06
9.31295e-05
8.95086e-05
3.99191e-07
8.97821e-05
1.11012e-06
9.01353e-05
1.56077e-06
9.0503e-05
1.75593e-06
9.08565e-05
1.77874e-06
9.1183e-05
1.69035e-06
9.1479e-05
1.53421e-06
9.17468e-05
1.34459e-06
9.19906e-05
1.14339e-06
9.22145e-05
9.42717e-07
9.24219e-05
7.49194e-07
9.26159e-05
5.66024e-07
9.27988e-05
3.94192e-07
9.29723e-05
2.33421e-07
9.31378e-05
8.27693e-08
9.32964e-05
-5.90485e-08
9.3449e-05
-1.93463e-07
9.35963e-05
-3.21934e-07
9.37387e-05
-4.45892e-07
9.38767e-05
-5.66711e-07
9.40107e-05
-6.85701e-07
9.4141e-05
-8.04115e-07
9.42677e-05
-9.23171e-07
9.43911e-05
-1.04407e-06
9.45112e-05
-1.16801e-06
9.46279e-05
-1.29625e-06
9.47408e-05
-1.43008e-06
9.48495e-05
-1.57087e-06
9.4953e-05
-1.72004e-06
9.50498e-05
-1.87906e-06
9.51377e-05
-2.04929e-06
9.52136e-05
-2.23235e-06
-2.42749e-06
9.52737e-05
9.20446e-05
3.14415e-07
9.22745e-05
8.80207e-07
9.25826e-05
1.25276e-06
9.29146e-05
1.42388e-06
9.32433e-05
1.45008e-06
9.35548e-05
1.37884e-06
9.38435e-05
1.2455e-06
9.41093e-05
1.07878e-06
9.43544e-05
8.98295e-07
9.45814e-05
7.15642e-07
9.47931e-05
5.3751e-07
9.49917e-05
3.67423e-07
9.51791e-05
2.06775e-07
9.53569e-05
5.56673e-08
9.55262e-05
-8.65304e-08
9.5688e-05
-2.20851e-07
9.58431e-05
-3.48528e-07
9.5992e-05
-4.70866e-07
9.61353e-05
-5.89172e-07
9.62733e-05
-7.04716e-07
9.64063e-05
-8.18715e-07
9.65345e-05
-9.32336e-07
9.6658e-05
-1.0467e-06
9.67769e-05
-1.1629e-06
9.68909e-05
-1.28201e-06
9.69997e-05
-1.4051e-06
9.71029e-05
-1.53324e-06
9.71995e-05
-1.66749e-06
9.72884e-05
-1.80888e-06
9.73677e-05
-1.95839e-06
9.74352e-05
-2.11676e-06
9.74877e-05
-2.28487e-06
-2.4614e-06
9.75216e-05
9.46582e-05
2.43361e-07
9.4854e-05
6.84399e-07
9.51247e-05
9.82102e-07
9.54258e-05
1.12276e-06
9.5732e-05
1.14389e-06
9.60292e-05
1.08162e-06
9.63105e-05
9.64271e-07
9.65737e-05
8.15557e-07
9.68194e-05
6.52536e-07
9.70492e-05
4.85896e-07
9.72646e-05
3.22054e-07
9.74675e-05
1.64581e-07
9.76592e-05
1.5079e-08
9.7841e-05
-1.26113e-07
9.80138e-05
-2.59405e-07
9.81786e-05
-3.85637e-07
9.8336e-05
-5.05883e-07
9.84864e-05
-6.21312e-07
9.86304e-05
-7.33116e-07
9.87681e-05
-8.4246e-07
9.88999e-05
-9.50464e-07
9.90257e-05
-1.05819e-06
9.91457e-05
-1.16666e-06
9.92596e-05
-1.27683e-06
9.93672e-05
-1.38962e-06
9.9468e-05
-1.5059e-06
9.95613e-05
-1.6265e-06
9.9646e-05
-1.75219e-06
9.97207e-05
-1.88362e-06
9.97836e-05
-2.02133e-06
9.98324e-05
-2.16556e-06
9.98642e-05
-2.31662e-06
-2.4728e-06
9.98756e-05
9.73502e-05
1.82691e-07
9.75193e-05
5.15245e-07
9.77594e-05
7.42065e-07
9.80341e-05
8.48068e-07
9.83204e-05
8.57589e-07
9.86044e-05
7.9754e-07
9.88784e-05
6.9031e-07
9.91388e-05
5.55136e-07
9.93849e-05
4.06487e-07
9.96169e-05
2.53859e-07
9.98358e-05
1.03145e-07
0.000100043
-4.22539e-08
0.000100238
-1.8071e-07
0.000100424
-3.11775e-07
0.0001006
-4.35727e-07
0.000100768
-5.5328e-07
0.000100928
-6.65386e-07
0.000101079
-7.73105e-07
0.000101224
-8.77526e-07
0.000101361
-9.79716e-07
0.000101491
-1.0807e-06
0.000101614
-1.18142e-06
0.000101731
-1.28279e-06
0.000101839
-1.38562e-06
0.00010194
-1.49067e-06
0.000102033
-1.59862e-06
0.000102117
-1.71004e-06
0.00010219
-1.82543e-06
0.000102251
-1.94513e-06
0.000102299
-2.06929e-06
0.000102332
-2.19779e-06
0.000102346
-2.33049e-06
-2.4655e-06
0.000102338
0.000100122
1.29924e-07
0.00010027
3.66858e-07
0.000100485
5.26843e-07
0.000100738
5.95589e-07
0.000101007
5.88466e-07
0.000101279
5.25137e-07
0.000101547
4.22987e-07
0.000101805
2.97356e-07
0.000102051
1.60199e-07
0.000102285
1.96604e-08
0.000102507
-1.19076e-07
0.000102718
-2.52961e-07
0.000102918
-3.80493e-07
0.000103107
-5.01235e-07
0.000103287
-6.15424e-07
0.000103457
-7.23707e-07
0.000103619
-8.26957e-07
0.000103772
-9.26155e-07
0.000103917
-1.0223e-06
0.000104053
-1.11638e-06
0.000104182
-1.2093e-06
0.000104303
-1.30193e-06
0.000104415
-1.39503e-06
0.000104518
-1.48929e-06
0.000104613
-1.5853e-06
0.000104698
-1.68354e-06
0.000104772
-1.78438e-06
0.000104835
-1.88807e-06
0.000104884
-1.99466e-06
0.000104919
-2.10405e-06
0.000104937
-2.21581e-06
0.000104936
-2.32952e-06
-2.44322e-06
0.000104914
0.000102975
8.31699e-08
0.000103107
2.34521e-07
0.000103303
3.31405e-07
0.000103537
3.61333e-07
0.000103792
3.33719e-07
0.000104054
2.62636e-07
0.000104316
1.61313e-07
0.000104571
4.17225e-08
0.000104818
-8.65456e-08
0.000105055
-2.16771e-07
0.00010528
-3.44616e-07
0.000105495
-4.6752e-07
0.000105698
-5.84241e-07
0.000105892
-6.9446e-07
0.000106075
-7.98454e-07
0.000106248
-8.96864e-07
0.000106411
-9.9053e-07
0.000106566
-1.08038e-06
0.000106711
-1.16736e-06
0.000106847
-1.25235e-06
0.000106974
-1.33621e-06
0.000107091
-1.41968e-06
0.0001072
-1.50341e-06
0.000107298
-1.58796e-06
0.000107387
-1.67375e-06
0.000107464
-1.76112e-06
0.00010753
-1.85024e-06
0.000107583
-1.94113e-06
0.000107622
-2.03367e-06
0.000107646
-2.12753e-06
0.000107652
-2.22209e-06
0.000107639
-2.31676e-06
-2.40963e-06
0.000107606
0.000105911
4.09412e-08
0.000106031
1.14385e-07
0.000106211
1.51347e-07
0.000106431
1.41516e-07
0.000106674
9.04457e-08
0.000106929
7.97275e-09
0.000107186
-9.60938e-08
0.000107441
-2.12678e-07
0.000107689
-3.34365e-07
0.000107928
-4.55879e-07
0.000108157
-5.73815e-07
0.000108376
-6.86211e-07
0.000108583
-7.92195e-07
0.000108781
-8.91659e-07
0.000108967
-9.84998e-07
0.000109143
-1.07291e-06
0.000109309
-1.15624e-06
0.000109464
-1.2359e-06
0.00010961
-1.3128e-06
0.000109745
-1.38776e-06
0.000109871
-1.46156e-06
0.000109986
-1.53485e-06
0.000110091
-1.60819e-06
0.000110185
-1.68199e-06
0.000110267
-1.75656e-06
0.000110338
-1.83208e-06
0.000110397
-1.90857e-06
0.000110442
-1.98591e-06
0.000110472
-2.06379e-06
0.000110486
-2.14176e-06
0.000110483
-2.2191e-06
0.000110461
-2.29509e-06
-2.36795e-06
0.00011042
0.000108932
2.02822e-09
0.000109043
3.22913e-09
0.000109212
-1.72537e-08
0.000109421
-6.74829e-08
0.000109656
-1.44338e-07
0.000109905
-2.41153e-07
0.00011016
-3.5092e-07
0.000110414
-4.67049e-07
0.000110664
-5.84118e-07
0.000110906
-6.98278e-07
0.00011114
-8.07117e-07
0.000111363
-9.0936e-07
0.000111575
-1.00459e-06
0.000111777
-1.093e-06
0.000111967
-1.17518e-06
0.000112146
-1.25193e-06
0.000112314
-1.32415e-06
0.000112471
-1.39277e-06
0.000112616
-1.45868e-06
0.000112751
-1.52269e-06
0.000112875
-1.58548e-06
0.000112988
-1.64764e-06
0.000113089
-1.70964e-06
0.000113179
-1.77179e-06
0.000113257
-1.8343e-06
0.000113322
-1.89721e-06
0.000113374
-1.96043e-06
0.000113412
-2.02373e-06
0.000113435
-2.08669e-06
0.000113442
-2.14878e-06
0.000113432
-2.20924e-06
0.000113404
-2.26732e-06
-2.32142e-06
0.000113358
0.000112041
-3.46302e-08
0.000112146
-1.01752e-07
0.000112307
-1.77991e-07
0.000112509
-2.69225e-07
0.000112738
-3.73802e-07
0.000112984
-4.87414e-07
0.000113239
-6.05348e-07
0.000113495
-7.23161e-07
0.000113748
-8.37255e-07
0.000113995
-9.45177e-07
0.000114233
-1.04555e-06
0.000114462
-1.13784e-06
0.000114679
-1.22219e-06
0.000114886
-1.29915e-06
0.00011508
-1.36957e-06
0.000115262
-1.43442e-06
0.000115433
-1.4947e-06
0.000115592
-1.55139e-06
0.000115738
-1.60539e-06
0.000115873
-1.65749e-06
0.000115996
-1.70834e-06
0.000116107
-1.75848e-06
0.000116205
-1.80829e-06
0.000116292
-1.85801e-06
0.000116365
-1.90775e-06
0.000116425
-1.95747e-06
0.000116472
-2.007e-06
0.000116504
-2.05602e-06
0.000116522
-2.10406e-06
0.000116523
-2.15055e-06
0.000116509
-2.19471e-06
0.000116477
-2.23584e-06
-2.27247e-06
0.000116428
0.00011524
-6.99221e-08
0.000115341
-2.03083e-07
0.000115497
-3.34264e-07
0.000115695
-4.67245e-07
0.000115923
-6.01223e-07
0.000116169
-7.33656e-07
0.000116425
-8.61738e-07
0.000116685
-9.82919e-07
0.000116943
-1.09529e-06
0.000117196
-1.19776e-06
0.00011744
-1.29003e-06
0.000117675
-1.37239e-06
0.000117898
-1.44556e-06
0.00011811
-1.51056e-06
0.000118309
-1.56854e-06
0.000118495
-1.62069e-06
0.000118668
-1.66816e-06
0.000118829
-1.712e-06
0.000118977
-1.75317e-06
0.000119112
-1.79245e-06
0.000119234
-1.83049e-06
0.000119343
-1.86777e-06
0.000119439
-1.90463e-06
0.000119523
-1.94126e-06
0.000119593
-1.97769e-06
0.000119649
-2.01383e-06
0.000119691
-2.04943e-06
0.00011972
-2.08416e-06
0.000119733
-2.1175e-06
0.000119731
-2.1489e-06
0.000119714
-2.17761e-06
0.000119681
-2.20298e-06
-2.22374e-06
0.000119633
0.000118531
-1.0473e-07
0.000118631
-3.03225e-07
0.000118786
-4.89513e-07
0.000118984
-6.65362e-07
0.000119213
-8.30415e-07
0.000119463
-9.83485e-07
0.000119725
-1.12338e-06
0.000119991
-1.24927e-06
0.000120257
-1.36082e-06
0.000120517
-1.45832e-06
0.00012077
-1.54256e-06
0.000121012
-1.61471e-06
0.000121243
-1.67617e-06
0.000121461
-1.72848e-06
0.000121665
-1.77314e-06
0.000121856
-1.81164e-06
0.000122033
-1.84529e-06
0.000122197
-1.87528e-06
0.000122346
-1.90263e-06
0.000122482
-1.92815e-06
0.000122604
-1.95249e-06
0.000122712
-1.97612e-06
0.000122807
-1.99934e-06
0.000122888
-2.0223e-06
0.000122955
-2.04499e-06
0.000123009
-2.06727e-06
0.000123048
-2.08889e-06
0.000123073
-2.10946e-06
0.000123084
-2.12849e-06
0.000123081
-2.14543e-06
0.000123063
-2.15959e-06
0.00012303
-2.17037e-06
-2.17665e-06
0.000122983
0.000121916
-1.39917e-07
0.000122018
-4.04595e-07
0.000122176
-6.47156e-07
0.000122378
-8.67375e-07
0.000122612
-1.06513e-06
0.000122869
-1.24034e-06
0.000123139
-1.3933e-06
0.000123414
-1.52476e-06
0.00012369
-1.63598e-06
0.00012396
-1.72861e-06
0.000124222
-1.80459e-06
0.000124473
-1.86602e-06
0.000124712
-1.91505e-06
0.000124937
-1.95377e-06
0.000125148
-1.98413e-06
0.000125345
-2.00792e-06
0.000125526
-2.02669e-06
0.000125693
-2.04178e-06
0.000125844
-2.0543e-06
0.000125981
-2.06511e-06
0.000126104
-2.07489e-06
0.000126212
-2.08412e-06
0.000126305
-2.09306e-06
0.000126385
-2.10186e-06
0.00012645
-2.11049e-06
0.000126502
-2.11877e-06
0.00012654
-2.12645e-06
0.000126563
-2.13313e-06
0.000126573
-2.13836e-06
0.000126569
-2.14161e-06
0.000126552
-2.14227e-06
0.000126521
-2.13982e-06
-2.13331e-06
0.000126478
0.0001254
-1.76486e-07
0.000125505
-5.10023e-07
0.00012567
-8.11384e-07
0.000125881
-1.07829e-06
0.000126126
-1.31074e-06
0.000126396
-1.50965e-06
0.000126679
-1.67669e-06
0.000126968
-1.81422e-06
0.000127257
-1.92509e-06
0.000127541
-2.0124e-06
0.000127816
-2.07933e-06
0.000128079
-2.12901e-06
0.000128328
-2.1644e-06
0.000128563
-2.18824e-06
0.000128782
-2.20297e-06
0.000128984
-2.21072e-06
0.000129171
-2.21332e-06
0.000129342
-2.21229e-06
0.000129496
-2.20884e-06
0.000129635
-2.20393e-06
0.000129758
-2.19827e-06
0.000129867
-2.19233e-06
0.00012996
-2.18641e-06
0.000130039
-2.18062e-06
0.000130103
-2.17491e-06
0.000130153
-2.16913e-06
0.00013019
-2.16299e-06
0.000130213
-2.15613e-06
0.000130223
-2.14811e-06
0.00013022
-2.13843e-06
0.000130204
-2.12655e-06
0.000130176
-2.11199e-06
-2.09391e-06
0.000130137
0.000128984
-2.15395e-07
0.000129096
-6.22261e-07
0.000129271
-9.8606e-07
0.000129495
-1.30239e-06
0.000129756
-1.57148e-06
0.000130041
-1.79534e-06
0.000130342
-1.9771e-06
0.000130648
-2.1208e-06
0.000130954
-2.23099e-06
0.000131254
-2.31227e-06
0.000131544
-2.36913e-06
0.000131821
-2.40581e-06
0.000132083
-2.42617e-06
0.000132328
-2.43363e-06
0.000132556
-2.4312e-06
0.000132767
-2.42142e-06
0.00013296
-2.40642e-06
0.000133136
-2.38791e-06
0.000133294
-2.36727e-06
0.000133436
-2.34554e-06
0.000133561
-2.32347e-06
0.00013367
-2.30159e-06
0.000133764
-2.28018e-06
0.000133843
-2.25936e-06
0.000133907
-2.23909e-06
0.000133957
-2.21919e-06
0.000133993
-2.19941e-06
0.000134017
-2.17939e-06
0.000134027
-2.15872e-06
0.000134026
-2.13694e-06
0.000134013
-2.11359e-06
0.000133989
-2.08825e-06
-2.06021e-06
0.000133955
0.000132672
-2.58337e-07
0.000132796
-7.45943e-07
0.000132988
-1.17816e-06
0.000133234
-1.54818e-06
0.000133519
-1.85657e-06
0.00013383
-2.10661e-06
0.000134156
-2.30312e-06
0.000134487
-2.45214e-06
0.000134816
-2.56015e-06
0.000135138
-2.63352e-06
0.000135447
-2.67821e-06
0.000135741
-2.6997e-06
0.000136017
-2.70282e-06
0.000136275
-2.69179e-06
0.000136514
-2.67019e-06
0.000136734
-2.641e-06
0.000136934
-2.60667e-06
0.000137116
-2.56915e-06
0.000137278
-2.52995e-06
0.000137423
-2.49022e-06
0.00013755
-2.45077e-06
0.000137661
-2.41214e-06
0.000137755
-2.37464e-06
0.000137834
-2.33839e-06
0.000137898
-2.30333e-06
0.000137949
-2.26932e-06
0.000137985
-2.23607e-06
0.000138009
-2.20325e-06
0.000138021
-2.17046e-06
0.000138021
-2.13729e-06
0.000138011
-2.10328e-06
0.000137991
-2.06803e-06
-2.03091e-06
0.000137961
0.000136466
-3.06159e-07
0.000136604
-8.83967e-07
0.000136817
-1.39145e-06
0.000137089
-1.81956e-06
0.000137402
-2.16996e-06
0.000137743
-2.44757e-06
0.000138099
-2.65914e-06
0.00013846
-2.81289e-06
0.000138817
-2.91742e-06
0.000139165
-2.98102e-06
0.000139498
-3.01132e-06
0.000139813
-3.01515e-06
0.000140109
-2.99848e-06
0.000140384
-2.96641e-06
0.000140637
-2.92317e-06
0.000140868
-2.87226e-06
0.000141078
-2.81648e-06
0.000141266
-2.75803e-06
0.000141435
-2.69859e-06
0.000141584
-2.63941e-06
0.000141715
-2.58137e-06
0.000141828
-2.52503e-06
0.000141924
-2.4707e-06
0.000142004
-2.4185e-06
0.000142069
-2.36838e-06
0.00014212
-2.32016e-06
0.000142157
-2.27358e-06
0.000142182
-2.22831e-06
0.000142196
-2.18397e-06
0.000142199
-2.14016e-06
0.000142192
-2.09646e-06
0.000142176
-2.05254e-06
-2.00781e-06
0.000142153
0.000140373
-3.63508e-07
0.000140537
-1.04756e-06
0.000140787
-1.64184e-06
0.000141102
-2.1345e-06
0.000141461
-2.52931e-06
0.000141848
-2.83392e-06
0.000142247
-3.05801e-06
0.000142647
-3.21292e-06
0.000143039
-3.31001e-06
0.000143418
-3.35979e-06
0.000143778
-3.37175e-06
0.000144117
-3.35421e-06
0.000144433
-3.31432e-06
0.000144725
-3.25806e-06
0.000144992
-3.19034e-06
0.000145235
-3.11515e-06
0.000145454
-3.03566e-06
0.00014565
-2.95429e-06
0.000145825
-2.8729e-06
0.000145978
-2.79283e-06
0.000146112
-2.71498e-06
0.000146227
-2.63996e-06
0.000146324
-2.56807e-06
0.000146405
-2.49941e-06
0.000146471
-2.43391e-06
0.000146522
-2.37139e-06
0.00014656
-2.31157e-06
0.000146586
-2.25409e-06
0.0001466
-2.19857e-06
0.000146605
-2.14462e-06
0.0001466
-2.09179e-06
0.000146587
-2.03973e-06
-1.98783e-06
0.000146567
0.000144389
-4.28251e-07
0.000144577
-1.23567e-06
0.000144864
-1.92829e-06
0.000145223
-2.49336e-06
0.000145632
-2.93805e-06
0.00014607
-3.27252e-06
0.000146522
-3.50948e-06
0.000146972
-3.66383e-06
0.000147413
-3.75023e-06
0.000147835
-3.78196e-06
0.000148234
-3.77083e-06
0.000148607
-3.72704e-06
0.000148952
-3.65912e-06
0.000149268
-3.57415e-06
0.000149555
-3.47781e-06
0.000149815
-3.37466e-06
0.000150047
-3.2682e-06
0.000150254
-3.16113e-06
0.000150437
-3.05541e-06
0.000150596
-2.95246e-06
0.000150734
-2.85322e-06
0.000150853
-2.75824e-06
0.000150952
-2.66782e-06
0.000151035
-2.58201e-06
0.000151102
-2.5007e-06
0.000151154
-2.42366e-06
0.000151193
-2.35059e-06
0.00015122
-2.28111e-06
0.000151236
-2.21483e-06
0.000151243
-2.15133e-06
0.000151242
-2.0902e-06
0.000151233
-2.03109e-06
-1.97339e-06
0.000151218
0.000148539
-5.19747e-07
0.000148789
-1.48493e-06
0.000149154
-2.29346e-06
0.000149595
-2.93456e-06
0.000150082
-3.42535e-06
0.000150592
-3.7825e-06
0.000151107
-4.02424e-06
0.000151614
-4.17037e-06
0.000152103
-4.23913e-06
0.000152567
-4.24657e-06
0.000153003
-4.20674e-06
0.000153408
-4.13158e-06
0.00015378
-4.03101e-06
0.000154118
-3.91309e-06
0.000154425
-3.78428e-06
0.0001547
-3.64966e-06
0.000154945
-3.51312e-06
0.000155161
-3.37757e-06
0.000155351
-3.24512e-06
0.000155516
-3.11723e-06
0.000155657
-2.99483e-06
0.000155778
-2.87847e-06
0.000155878
-2.76837e-06
0.000155961
-2.66452e-06
0.000156027
-2.56676e-06
0.000156078
-2.47478e-06
0.000156116
-2.38822e-06
0.000156141
-2.30666e-06
0.000156156
-2.22966e-06
0.000156161
-2.15677e-06
0.000156159
-2.08752e-06
0.000156149
-2.0215e-06
-1.95801e-06
0.000156134
0.000152783
-6.13579e-07
0.000153068
-1.76996e-06
0.000153494
-2.71943e-06
0.000154017
-3.45799e-06
0.000154601
-4.00933e-06
0.000155213
-4.39406e-06
0.000155827
-4.63789e-06
0.000156425
-4.76837e-06
0.000156995
-4.80943e-06
0.00015753
-4.78142e-06
0.000158025
-4.70171e-06
0.000158478
-4.58465e-06
0.000158889
-4.44186e-06
0.000159258
-4.28257e-06
0.000159588
-4.11403e-06
0.00015988
-3.9418e-06
0.000160137
-3.77004e-06
0.000160361
-3.60179e-06
0.000160555
-3.43917e-06
0.000160721
-3.28359e-06
0.000160863
-3.13589e-06
0.000160981
-2.99649e-06
0.000161078
-2.86548e-06
0.000161156
-2.74272e-06
0.000161217
-2.62791e-06
0.000161263
-2.52066e-06
0.000161295
-2.4205e-06
0.000161315
-2.32696e-06
0.000161325
-2.23955e-06
0.000161326
-2.1578e-06
0.00016132
-2.08123e-06
0.000161308
-2.00946e-06
-1.9417e-06
0.000161292
0.000157244
-8.06256e-07
0.00015769
-2.21534e-06
0.000158274
-3.30358e-06
0.00015893
-4.11443e-06
0.000159623
-4.70258e-06
0.000160325
-5.09593e-06
0.000161015
-5.32752e-06
0.000161678
-5.43108e-06
0.000162303
-5.43466e-06
0.000162884
-5.36231e-06
0.000163417
-5.23452e-06
0.0001639
-5.06806e-06
0.000164334
-4.87631e-06
0.000164722
-4.66978e-06
0.000165064
-4.45653e-06
0.000165365
-4.24258e-06
0.000165627
-4.03234e-06
0.000165854
-3.82889e-06
0.000166049
-3.63428e-06
0.000166216
-3.44978e-06
0.000166356
-3.27602e-06
0.000166472
-3.11322e-06
0.000166568
-2.96126e-06
0.000166645
-2.81978e-06
0.000166706
-2.6883e-06
0.000166751
-2.56625e-06
0.000166784
-2.45303e-06
0.000166805
-2.34806e-06
0.000166816
-2.25078e-06
0.000166819
-2.16067e-06
0.000166815
-2.0773e-06
0.000166806
-2.00023e-06
-1.92866e-06
0.000166793
0.00016169
-9.58146e-07
0.000162208
-2.73287e-06
0.00016294
-4.03538e-06
0.000163793
-4.96763e-06
0.000164691
-5.60104e-06
0.000165579
-5.98369e-06
0.000166427
-6.17592e-06
0.000167224
-6.22747e-06
0.000167963
-6.17412e-06
0.000168646
-6.04451e-06
0.000169273
-5.86155e-06
0.000169847
-5.64292e-06
0.000170373
-5.40225e-06
0.000170854
-5.15001e-06
0.000171291
-4.89409e-06
0.000171689
-4.64032e-06
0.000172049
-4.39294e-06
0.000172376
-4.15493e-06
0.000172669
-3.92822e-06
0.000172934
-3.71399e-06
0.00017317
-3.51279e-06
0.000173382
-3.32472e-06
0.00017357
-3.14956e-06
0.000173737
-2.98685e-06
0.000173885
-2.83597e-06
0.000174015
-2.69626e-06
0.000174129
-2.56702e-06
0.000174229
-2.44763e-06
0.000174315
-2.33754e-06
0.000174391
-2.2363e-06
0.000174457
-2.14381e-06
0.000174517
-2.05972e-06
-1.98426e-06
0.000174573
0.000166688
-1.4923e-06
0.00016754
-3.58557e-06
0.000168476
-4.97055e-06
0.000169486
-5.97761e-06
0.000170572
-6.68766e-06
0.000171716
-7.12705e-06
0.000172897
-7.35688e-06
0.000174093
-7.42343e-06
0.000175279
-7.36084e-06
0.000176435
-7.20036e-06