/*--------------------------------*- C++ -*----------------------------------*\
  =========                 |
  \\      /  F ield         | OpenFOAM: The Open Source CFD Toolbox
   \\    /   O peration     | Website:  https://openfoam.org
    \\  /    A nd           | Version:  10
     \\/     M anipulation  |
\*---------------------------------------------------------------------------*/
FoamFile
{
    format      ascii;
    class       volVectorField;
    location    "0.185";
    object      U;
}
// * * * * * * * * * * * * * * * * * * * * * * * * * * * * * * * * * * * * * //

dimensions      [0 1 -1 0 0 0 0];

internalField   nonuniform List<vector> 
6820
(
(5.57365 0.459116 0)
(3.88347 0.24587 0)
(2.59035 0.00873835 0)
(1.95919 -0.0642701 0)
(1.73469 -0.0596039 0)
(1.62451 -0.0341576 0)
(1.5606 -0.0155067 0)
(1.51581 -0.00544708 0)
(1.47849 -0.000871055 0)
(1.44652 0.00060858 0)
(1.41939 0.0006313 0)
(1.39664 8.24592e-05 0)
(1.37782 -0.00062888 0)
(1.36246 -0.0013219 0)
(1.35012 -0.00192704 0)
(1.34043 -0.00242898 0)
(1.3331 -0.00283598 0)
(1.32791 -0.00316314 0)
(1.32468 -0.00342473 0)
(1.32333 -0.00361238 0)
(1.32375 -0.00384165 0)
(1.32584 -0.00407439 0)
(1.32957 -0.00427891 0)
(1.3349 -0.00447272 0)
(1.34175 -0.00461027 0)
(1.35008 -0.00472698 0)
(1.35973 -0.00483552 0)
(1.37065 -0.00486638 0)
(1.38211 -0.0048586 0)
(1.39488 -0.00423054 0)
(1.40363 -0.00393515 0)
(1.419 0.00393889 0)
(1.39273 -0.0119834 0)
(7.66983 0.863773 0)
(7.71771 0.890513 0)
(7.0015 0.598038 0)
(6.20024 0.347058 0)
(5.58831 0.179069 0)
(5.14518 0.0924963 0)
(4.8298 0.0520563 0)
(4.60277 0.0334889 0)
(4.43311 0.0249237 0)
(4.30157 0.020499 0)
(4.19648 0.0177394 0)
(4.11054 0.0157001 0)
(4.03912 0.014002 0)
(3.97911 0.0124755 0)
(3.92838 0.0110317 0)
(3.88538 0.00962081 0)
(3.849 0.00821468 0)
(3.81837 0.00679666 0)
(3.79286 0.00535441 0)
(3.77196 0.0038931 0)
(3.75527 0.00235316 0)
(3.74251 0.000778763 0)
(3.73342 -0.000825281 0)
(3.72781 -0.00245802 0)
(3.72551 -0.0041587 0)
(3.72631 -0.00582949 0)
(3.72998 -0.00741541 0)
(3.73628 -0.00878306 0)
(3.74481 -0.00992907 0)
(3.75525 -0.010005 0)
(3.76637 -0.00984897 0)
(3.77944 -0.00428482 0)
(3.79165 0.00131531 0)
(7.56353 0.520127 0)
(8.22534 0.66304 0)
(8.46559 0.575359 0)
(8.36582 0.457611 0)
(8.13161 0.343418 0)
(7.85669 0.258464 0)
(7.58876 0.198739 0)
(7.34757 0.155824 0)
(7.1364 0.124545 0)
(6.95329 0.101201 0)
(6.795 0.0832937 0)
(6.65817 0.069234 0)
(6.53974 0.0579697 0)
(6.43709 0.0487789 0)
(6.34803 0.0411361 0)
(6.27073 0.0346451 0)
(6.20367 0.0290065 0)
(6.1456 0.023994 0)
(6.0955 0.0194352 0)
(6.0525 0.0151925 0)
(6.01592 0.0111933 0)
(5.98518 0.0073527 0)
(5.95981 0.00360746 0)
(5.93937 -7.7833e-05 0)
(5.92351 -0.00371646 0)
(5.91192 -0.00727707 0)
(5.9044 -0.0106973 0)
(5.90065 -0.01382 0)
(5.90024 -0.0164423 0)
(5.90281 -0.0179289 0)
(5.90769 -0.0181788 0)
(5.91406 -0.0147026 0)
(5.92221 -0.00864558 0)
(7.43339 0.340892 0)
(7.8848 0.51392 0)
(8.24373 0.488661 0)
(8.44275 0.428537 0)
(8.54316 0.357074 0)
(8.57434 0.296316 0)
(8.56082 0.250085 0)
(8.52215 0.214481 0)
(8.46933 0.186468 0)
(8.40876 0.16376 0)
(8.34458 0.144747 0)
(8.27952 0.128452 0)
(8.21538 0.114233 0)
(8.15348 0.101635 0)
(8.09468 0.0903476 0)
(8.03947 0.0801354 0)
(7.98817 0.0708029 0)
(7.94093 0.0621835 0)
(7.8978 0.0541349 0)
(7.85877 0.0465371 0)
(7.82381 0.0392924 0)
(7.79284 0.0323117 0)
(7.76578 0.02553 0)
(7.74254 0.0189096 0)
(7.72301 0.0124485 0)
(7.70711 0.00614806 0)
(7.69462 5.49732e-05 0)
(7.68546 -0.00566851 0)
(7.67953 -0.0107856 0)
(7.67679 -0.0147388 0)
(7.67729 -0.0170492 0)
(7.68101 -0.01611 0)
(7.69041 -0.010414 0)
(7.39684 0.250804 0)
(7.68015 0.420416 0)
(7.92383 0.402977 0)
(8.07812 0.35267 0)
(8.18901 0.297665 0)
(8.27181 0.251747 0)
(8.33336 0.21759 0)
(8.38104 0.191506 0)
(8.41883 0.170728 0)
(8.4488 0.153584 0)
(8.47252 0.138957 0)
(8.4912 0.126159 0)
(8.50585 0.114754 0)
(8.51704 0.104427 0)
(8.5254 0.094937 0)
(8.53153 0.0860907 0)
(8.53595 0.0777365 0)
(8.53913 0.0697501 0)
(8.54147 0.0620289 0)
(8.54331 0.0544868 0)
(8.54495 0.0470559 0)
(8.54667 0.0396798 0)
(8.54869 0.0323157 0)
(8.55122 0.0249455 0)
(8.55445 0.0175687 0)
(8.55853 0.0102176 0)
(8.56365 0.00298087 0)
(8.56982 -0.00396765 0)
(8.57726 -0.0104376 0)
(8.58635 -0.0160615 0)
(8.59768 -0.0203999 0)
(8.61229 -0.0226439 0)
(8.63222 -0.0220295 0)
(7.37404 0.180425 0)
(7.57429 0.335398 0)
(7.76135 0.34119 0)
(7.87629 0.311655 0)
(7.95305 0.272174 0)
(8.00907 0.233733 0)
(8.05126 0.202116 0)
(8.0863 0.176771 0)
(8.11763 0.156205 0)
(8.14643 0.139257 0)
(8.17326 0.124953 0)
(8.19845 0.112568 0)
(8.22219 0.101622 0)
(8.24472 0.0917862 0)
(8.26616 0.0827852 0)
(8.28661 0.0744052 0)
(8.30615 0.0664805 0)
(8.32485 0.058878 0)
(8.3428 0.0514887 0)
(8.36008 0.0442218 0)
(8.37677 0.0370034 0)
(8.39297 0.0297715 0)
(8.40877 0.0224783 0)
(8.42425 0.0150947 0)
(8.43954 0.0076171 0)
(8.45476 6.87345e-05 0)
(8.47006 -0.00748772 0)
(8.48583 -0.0149475 0)
(8.50239 -0.0221989 0)
(8.52025 -0.0290523 0)
(8.54009 -0.0353061 0)
(8.56325 -0.0407327 0)
(8.59118 -0.045301 0)
(7.35907 0.13247 0)
(7.50348 0.272346 0)
(7.65617 0.293737 0)
(7.75664 0.276591 0)
(7.82331 0.246678 0)
(7.87095 0.214458 0)
(7.90516 0.186469 0)
(7.93167 0.163437 0)
(7.9542 0.144361 0)
(7.97436 0.128349 0)
(7.99302 0.114645 0)
(8.01072 0.102664 0)
(8.02774 0.0919868 0)
(8.04425 0.0823044 0)
(8.06036 0.073386 0)
(8.07615 0.0650508 0)
(8.09168 0.0571505 0)
(8.10699 0.0495597 0)
(8.12211 0.0421714 0)
(8.13706 0.0348935 0)
(8.15189 0.027648 0)
(8.16663 0.0203683 0)
(8.18133 0.0129999 0)
(8.19605 0.00550165 0)
(8.21087 -0.00215224 0)
(8.22594 -0.0099699 0)
(8.24142 -0.0179578 0)
(8.25754 -0.0261171 0)
(8.27461 -0.034414 0)
(8.29312 -0.0428054 0)
(8.31372 -0.0513362 0)
(8.33755 -0.0601937 0)
(8.36558 -0.0699292 0)
(7.34966 0.0987352 0)
(7.45358 0.219639 0)
(7.57694 0.248966 0)
(7.66608 0.241808 0)
(7.72841 0.221748 0)
(7.77478 0.197225 0)
(7.80896 0.17401 0)
(7.83527 0.153721 0)
(7.85709 0.136133 0)
(7.87611 0.120864 0)
(7.89327 0.107501 0)
(7.90922 0.0956483 0)
(7.92434 0.084982 0)
(7.93886 0.0752517 0)
(7.95295 0.0662536 0)
(7.96673 0.0578147 0)
(7.98028 0.0497881 0)
(7.99368 0.0420488 0)
(8.00698 0.0344892 0)
(8.02023 0.0270159 0)
(8.03348 0.0195476 0)
(8.04678 0.0120125 0)
(8.06019 0.00434659 0)
(8.07378 -0.00350686 0)
(8.08764 -0.0115978 0)
(8.10186 -0.0199704 0)
(8.11661 -0.0286678 0)
(8.13209 -0.0377271 0)
(8.1486 -0.0472028 0)
(8.16656 -0.0572034 0)
(8.1865 -0.0679672 0)
(8.2093 -0.0799459 0)
(8.23553 -0.0938876 0)
(7.34383 0.0747402 0)
(7.41936 0.177578 0)
(7.51845 0.211362 0)
(7.59624 0.211745 0)
(7.65325 0.198729 0)
(7.69731 0.179642 0)
(7.73113 0.15986 0)
(7.75778 0.141705 0)
(7.78008 0.125519 0)
(7.79956 0.111192 0)
(7.81709 0.0984796 0)
(7.83328 0.0870859 0)
(7.84852 0.0767433 0)
(7.86306 0.067232 0)
(7.87708 0.0583675 0)
(7.89071 0.0499928 0)
(7.90405 0.041974 0)
(7.91718 0.0341955 0)
(7.93017 0.0265553 0)
(7.94307 0.0189621 0)
(7.95594 0.0113336 0)
(7.96883 0.00359389 0)
(7.98181 -0.00432812 0)
(7.99495 -0.0124986 0)
(8.00832 -0.0209818 0)
(8.02205 -0.0298451 0)
(8.03628 -0.0391665 0)
(8.05119 -0.0490451 0)
(8.06703 -0.0596246 0)
(8.08416 -0.0711184 0)
(8.10295 -0.0838779 0)
(8.12399 -0.098481 0)
(8.14754 -0.115692 0)
(7.34018 0.0574568 0)
(7.39568 0.14379 0)
(7.4751 0.178593 0)
(7.5424 0.183883 0)
(7.59415 0.176144 0)
(7.63559 0.161846 0)
(7.66852 0.145629 0)
(7.69506 0.129933 0)
(7.71746 0.115411 0)
(7.73708 0.102169 0)
(7.75474 0.0901434 0)
(7.77102 0.0791759 0)
(7.78631 0.069087 0)
(7.80087 0.0597126 0)
(7.81487 0.0509053 0)
(7.82845 0.0425314 0)
(7.8417 0.0344707 0)
(7.8547 0.0266144 0)
(7.86752 0.0188636 0)
(7.88022 0.0111269 0)
(7.89285 0.00331989 0)
(7.90546 -0.00463829 0)
(7.91812 -0.0128252 0)
(7.93088 -0.0213182 0)
(7.94384 -0.0302 0)
(7.95709 -0.0395633 0)
(7.97075 -0.0495197 0)
(7.98499 -0.0602099 0)
(8 -0.0718263 0)
(8.01602 -0.0846398 0)
(8.0333 -0.0990513 0)
(8.05217 -0.115669 0)
(8.07265 -0.135171 0)
(7.3379 0.0447647 0)
(7.37919 0.116592 0)
(7.44289 0.150384 0)
(7.50086 0.158968 0)
(7.5476 0.155271 0)
(7.58625 0.144822 0)
(7.61795 0.131535 0)
(7.64407 0.117842 0)
(7.66637 0.104671 0)
(7.68604 0.0923347 0)
(7.70378 0.08092 0)
(7.72014 0.0703707 0)
(7.73548 0.0605707 0)
(7.75006 0.0513934 0)
(7.76403 0.0427139 0)
(7.77755 0.034413 0)
(7.7907 0.0263794 0)
(7.80356 0.0185102 0)
(7.8162 0.0107098 0)
(7.82868 0.00288789 0)
(7.84104 -0.00504163 0)
(7.85335 -0.0131618 0)
(7.86564 -0.0215569 0)
(7.87799 -0.0303145 0)
(7.89046 -0.0395305 0)
(7.90314 -0.0493143 0)
(7.91613 -0.0597981 0)
(7.92953 -0.0711487 0)
(7.94349 -0.0835874 0)
(7.95815 -0.0974116 0)
(7.97362 -0.113025 0)
(7.99004 -0.131003 0)
(8.00728 -0.151893 0)
(7.33644 0.0352591 0)
(7.36761 0.0946326 0)
(7.41882 0.126083 0)
(7.46854 0.136469 0)
(7.51053 0.135561 0)
(7.54638 0.128065 0)
(7.57669 0.117277 0)
(7.60227 0.105475 0)
(7.6244 0.0937022 0)
(7.64406 0.0823824 0)
(7.66188 0.0716906 0)
(7.67831 0.0616491 0)
(7.69369 0.0522003 0)
(7.70828 0.0432588 0)
(7.72224 0.034729 0)
(7.7357 0.0265124 0)
(7.74875 0.0185124 0)
(7.76147 0.0106353 0)
(7.77393 0.00279073 0)
(7.78618 -0.00510825 0)
(7.79826 -0.0131481 0)
(7.81023 -0.0214149 0)
(7.82213 -0.0299969 0)
(7.83401 -0.0389883 0)
(7.84593 -0.0484937 0)
(7.85796 -0.0586337 0)
(7.87015 -0.0695533 0)
(7.88258 -0.0814319 0)
(7.89532 -0.0944983 0)
(7.90844 -0.109045 0)
(7.92194 -0.125444 0)
(7.93581 -0.144199 0)
(7.94983 -0.165716 0)
(7.3355 0.027987 0)
(7.35938 0.076788 0)
(7.40074 0.105143 0)
(7.44329 0.11624 0)
(7.48089 0.117225 0)
(7.51399 0.111997 0)
(7.54278 0.103283 0)
(7.56763 0.0931096 0)
(7.58945 0.0825523 0)
(7.609 0.0721182 0)
(7.62681 0.0620589 0)
(7.64327 0.0524664 0)
(7.6587 0.043337 0)
(7.67331 0.0346212 0)
(7.68726 0.0262482 0)
(7.70067 0.018136 0)
(7.71363 0.0101987 0)
(7.72622 0.00234935 0)
(7.7385 -0.00549846 0)
(7.75051 -0.0134295 0)
(7.76231 -0.0215293 0)
(7.77392 -0.0298855 0)
(7.7854 -0.0385891 0)
(7.79678 -0.0477383 0)
(7.8081 -0.0574418 0)
(7.81939 -0.0678249 0)
(7.83071 -0.0790354 0)
(7.84208 -0.0912516 0)
(7.85351 -0.104692 0)
(7.86499 -0.119625 0)
(7.87648 -0.13637 0)
(7.88783 -0.155345 0)
(7.8988 -0.176823 0)
(7.33487 0.022303 0)
(7.35347 0.0621746 0)
(7.38708 0.0870769 0)
(7.42349 0.0980498 0)
(7.45707 0.10015 0)
(7.48752 0.0965327 0)
(7.51471 0.0894389 0)
(7.53872 0.0806354 0)
(7.56012 0.071169 0)
(7.57949 0.0615848 0)
(7.59724 0.052176 0)
(7.61371 0.0430772 0)
(7.62915 0.034321 0)
(7.64376 0.0258859 0)
(7.65769 0.0177214 0)
(7.67104 0.0097613 0)
(7.6839 0.00193071 0)
(7.69635 -0.00584889 0)
(7.70843 -0.0136578 0)
(7.72019 -0.0215781 0)
(7.73167 -0.0296929 0)
(7.7429 -0.0380884 0)
(7.75392 -0.0468556 0)
(7.76475 -0.0560923 0)
(7.77542 -0.0659072 0)
(7.78594 -0.0764233 0)
(7.79632 -0.0877829 0)
(7.80656 -0.100153 0)
(7.81663 -0.11373 0)
(7.82648 -0.128746 0)
(7.83598 -0.145459 0)
(7.84494 -0.164195 0)
(7.85311 -0.185113 0)
(7.33445 0.0177658 0)
(7.34916 0.0500911 0)
(7.37669 0.0714382 0)
(7.40791 0.0816805 0)
(7.43787 0.0842886 0)
(7.46582 0.0817553 0)
(7.49141 0.0759032 0)
(7.5145 0.0682306 0)
(7.53539 0.0597066 0)
(7.55449 0.0508784 0)
(7.57212 0.04206 0)
(7.58853 0.0334158 0)
(7.60395 0.0250087 0)
(7.61853 0.0168419 0)
(7.63241 0.00888412 0)
(7.64569 0.00108337 0)
(7.65844 -0.00662459 0)
(7.67073 -0.0143106 0)
(7.6826 -0.0220497 0)
(7.69409 -0.0299199 0)
(7.70524 -0.0380016 0)
(7.71607 -0.0463787 0)
(7.72661 -0.05514 0)
(7.73687 -0.0643803 0)
(7.74686 -0.0742039 0)
(7.75657 -0.0847266 0)
(7.76599 -0.096079 0)
(7.7751 -0.108409 0)
(7.78382 -0.121884 0)
(7.79207 -0.136692 0)
(7.7997 -0.153029 0)
(7.80647 -0.171135 0)
(7.81217 -0.191073 0)
(7.33415 0.0140697 0)
(7.34599 0.039988 0)
(7.36876 0.0578358 0)
(7.39562 0.0669213 0)
(7.42236 0.0695519 0)
(7.44801 0.067648 0)
(7.47203 0.0626754 0)
(7.49414 0.0558829 0)
(7.51446 0.0481406 0)
(7.53324 0.0399754 0)
(7.55069 0.031705 0)
(7.56701 0.0235084 0)
(7.58237 0.015467 0)
(7.5969 0.0076005 0)
(7.61072 -0.000108879 0)
(7.62391 -0.00770237 0)
(7.63653 -0.0152355 0)
(7.64865 -0.0227728 0)
(7.66029 -0.0303837 0)
(7.6715 -0.0381417 0)
(7.6823 -0.0461233 0)
(7.69272 -0.0544082 0)
(7.70275 -0.0630802 0)
(7.71242 -0.0722285 0)
(7.72171 -0.0819493 0)
(7.7306 -0.0923467 0)
(7.73907 -0.103535 0)
(7.74706 -0.115639 0)
(7.75448 -0.128792 0)
(7.76122 -0.143138 0)
(7.76714 -0.158815 0)
(7.77197 -0.175986 0)
(7.77554 -0.19464 0)
(7.33393 0.0109998 0)
(7.34362 0.0314353 0)
(7.36266 0.045926 0)
(7.3859 0.0535668 0)
(7.40983 0.0558409 0)
(7.43337 0.0541938 0)
(7.45591 0.0497904 0)
(7.47705 0.0436549 0)
(7.49677 0.0365452 0)
(7.51517 0.0289481 0)
(7.5324 0.0211688 0)
(7.54859 0.0133884 0)
(7.56386 0.00569807 0)
(7.57832 -0.00187116 0)
(7.59205 -0.00932654 0)
(7.60513 -0.0167 0)
(7.61761 -0.0240393 0)
(7.62953 -0.0314021 0)
(7.64094 -0.0388525 0)
(7.65186 -0.0464587 0)
(7.6623 -0.054292 0)
(7.67229 -0.0624268 0)
(7.68182 -0.0709404 0)
(7.69089 -0.0799139 0)
(7.69949 -0.0894328 0)
(7.70758 -0.0995871 0)
(7.71512 -0.110472 0)
(7.72204 -0.122186 0)
(7.72825 -0.134831 0)
(7.73363 -0.148507 0)
(7.73802 -0.163299 0)
(7.74119 -0.179308 0)
(7.74297 -0.196467 0)
(7.33378 0.00840182 0)
(7.34184 0.0240958 0)
(7.35796 0.0354108 0)
(7.37822 0.0414221 0)
(7.39972 0.0430473 0)
(7.42138 0.0413499 0)
(7.44254 0.0372424 0)
(7.46274 0.0315529 0)
(7.48183 0.0249257 0)
(7.49984 0.0177968 0)
(7.51682 0.0104494 0)
(7.53285 0.00305804 0)
(7.54801 -0.00428387 0)
(7.56238 -0.0115397 0)
(7.57601 -0.0187104 0)
(7.58896 -0.0258219 0)
(7.60129 -0.0329163 0)
(7.61301 -0.0400463 0)
(7.62417 -0.0472709 0)
(7.63479 -0.0546534 0)
(7.64487 -0.0622596 0)
(7.65442 -0.0701576 0)
(7.66345 -0.0784172 0)
(7.67193 -0.0871099 0)
(7.67985 -0.0963089 0)
(7.68717 -0.106089 0)
(7.69383 -0.116524 0)
(7.69977 -0.127689 0)
(7.70488 -0.139653 0)
(7.70904 -0.152478 0)
(7.71212 -0.166207 0)
(7.71389 -0.180887 0)
(7.71425 -0.196416 0)
(7.33366 0.00616233 0)
(7.34049 0.0177042 0)
(7.35433 0.0260333 0)
(7.37216 0.0303032 0)
(7.39159 0.0310561 0)
(7.4116 0.0290577 0)
(7.43151 0.0250127 0)
(7.45082 0.0195808 0)
(7.46932 0.0132974 0)
(7.48693 0.00654078 0)
(7.50366 -0.000436242 0)
(7.51951 -0.00747392 0)
(7.53455 -0.0144838 0)
(7.5488 -0.0214291 0)
(7.56232 -0.0283082 0)
(7.57514 -0.0351432 0)
(7.5873 -0.0419721 0)
(7.59883 -0.0488429 0)
(7.60974 -0.0558097 0)
(7.62005 -0.0629302 0)
(7.62978 -0.0702645 0)
(7.63891 -0.0778732 0)
(7.64744 -0.0858177 0)
(7.65536 -0.0941588 0)
(7.66264 -0.102957 0)
(7.66923 -0.112269 0)
(7.67509 -0.122153 0)
(7.68013 -0.132656 0)
(7.68428 -0.143821 0)
(7.6874 -0.155678 0)
(7.68938 -0.168234 0)
(7.69004 -0.181496 0)
(7.68928 -0.195339 0)
(7.33357 0.00419598 0)
(7.33946 0.0120486 0)
(7.35152 0.0175704 0)
(7.36739 0.020036 0)
(7.38509 0.0197478 0)
(7.40369 0.0172458 0)
(7.42249 0.0130662 0)
(7.441 0.00772646 0)
(7.45894 0.00166163 0)
(7.47618 -0.00480974 0)
(7.49264 -0.0114697 0)
(7.50832 -0.0181786 0)
(7.52322 -0.0248579 0)
(7.53736 -0.0314751 0)
(7.55077 -0.0380293 0)
(7.56345 -0.0445418 0)
(7.57545 -0.0510485 0)
(7.58677 -0.0575942 0)
(7.59743 -0.0642293 0)
(7.60744 -0.0710071 0)
(7.61681 -0.0779818 0)
(7.62553 -0.0852072 0)
(7.63359 -0.092736 0)
(7.64098 -0.100619 0)
(7.64766 -0.108903 0)
(7.65359 -0.117631 0)
(7.65872 -0.126841 0)
(7.66298 -0.136562 0)
(7.66628 -0.14681 0)
(7.66854 -0.157591 0)
(7.66964 -0.168885 0)
(7.66943 -0.180671 0)
(7.66787 -0.19281 0)
(7.3335 0.00243706 0)
(7.33867 0.00695935 0)
(7.34937 0.00982957 0)
(7.36368 0.0104573 0)
(7.37997 0.00899833 0)
(7.39737 0.00582691 0)
(7.41524 0.00134362 0)
(7.43306 -0.00405308 0)
(7.4505 -0.010019 0)
(7.4674 -0.0162952 0)
(7.48364 -0.0227022 0)
(7.49916 -0.0291247 0)
(7.51394 -0.0354991 0)
(7.52798 -0.0418008 0)
(7.54127 -0.0480329 0)
(7.55383 -0.0542179 0)
(7.56566 -0.060391 0)
(7.57679 -0.0665951 0)
(7.58722 -0.072877 0)
(7.59695 -0.0792856 0)
(7.60598 -0.0858691 0)
(7.61432 -0.0926745 0)
(7.62194 -0.0997458 0)
(7.62884 -0.107123 0)
(7.63497 -0.114842 0)
(7.64031 -0.122932 0)
(7.64481 -0.131413 0)
(7.6484 -0.140296 0)
(7.65102 -0.149581 0)
(7.65258 -0.159252 0)
(7.65301 -0.16927 0)
(7.65217 -0.179593 0)
(7.65005 -0.190081 0)
(7.33345 0.000830435 0)
(7.33809 0.00229239 0)
(7.34774 0.00263869 0)
(7.36084 0.00141078 0)
(7.376 -0.00131756 0)
(7.39245 -0.00529006 0)
(7.40955 -0.0102122 0)
(7.42679 -0.0157836 0)
(7.44382 -0.02174 0)
(7.46044 -0.0278796 0)
(7.47648 -0.0340627 0)
(7.49187 -0.0402015 0)
(7.50655 -0.0462507 0)
(7.52048 -0.0521975 0)
(7.53367 -0.0580526 0)
(7.54611 -0.0638427 0)
(7.55779 -0.0696048 0)
(7.56873 -0.0753816 0)
(7.57893 -0.0812185 0)
(7.58839 -0.0871609 0)
(7.59711 -0.0932528 0)
(7.60508 -0.0995348 0)
(7.6123 -0.106044 0)
(7.61875 -0.112811 0)
(7.6244 -0.11986 0)
(7.62923 -0.12721 0)
(7.63318 -0.134867 0)
(7.63622 -0.142829 0)
(7.63829 -0.151079 0)
(7.63931 -0.159589 0)
(7.63924 -0.168307 0)
(7.63798 -0.177179 0)
(7.63555 -0.186069 0)
(7.33341 -0.000664717 0)
(7.33766 -0.00206951 0)
(7.34655 -0.00415546 0)
(7.35875 -0.00725595 0)
(7.37306 -0.0113381 0)
(7.38877 -0.0162284 0)
(7.40529 -0.021716 0)
(7.4221 -0.0275828 0)
(7.43884 -0.033636 0)
(7.45526 -0.0397285 0)
(7.47118 -0.0457608 0)
(7.48649 -0.0516743 0)
(7.50111 -0.0574444 0)
(7.51499 -0.0630721 0)
(7.52811 -0.0685773 0)
(7.54045 -0.0739923 0)
(7.55202 -0.0793569 0)
(7.5628 -0.0847145 0)
(7.57279 -0.0901094 0)
(7.58201 -0.0955843 0)
(7.59045 -0.101179 0)
(7.59811 -0.106929 0)
(7.60497 -0.112864 0)
(7.61103 -0.119007 0)
(7.61627 -0.125375 0)
(7.62066 -0.131974 0)
(7.62417 -0.138801 0)
(7.62676 -0.145844 0)
(7.62841 -0.153077 0)
(7.62905 -0.160458 0)
(7.62865 -0.167933 0)
(7.62715 -0.175439 0)
(7.62457 -0.182848 0)
(7.33338 -0.00208687 0)
(7.33736 -0.00623287 0)
(7.34573 -0.0106946 0)
(7.3573 -0.0156866 0)
(7.37101 -0.0211878 0)
(7.38622 -0.0270784 0)
(7.40234 -0.0332106 0)
(7.41887 -0.0394334 0)
(7.43542 -0.0456165 0)
(7.45173 -0.0516649 0)
(7.46759 -0.0575203 0)
(7.48286 -0.0631568 0)
(7.49746 -0.0685741 0)
(7.51131 -0.073792 0)
(7.52438 -0.0788436 0)
(7.53665 -0.0837705 0)
(7.5481 -0.0886183 0)
(7.55874 -0.0934339 0)
(7.56856 -0.0982625 0)
(7.57756 -0.103146 0)
(7.58575 -0.108121 0)
(7.59312 -0.11322 0)
(7.59967 -0.118467 0)
(7.60539 -0.123879 0)
(7.61028 -0.129465 0)
(7.6143 -0.135225 0)
(7.61746 -0.141148 0)
(7.61971 -0.147213 0)
(7.62105 -0.153388 0)
(7.62143 -0.159627 0)
(7.62085 -0.165872 0)
(7.61926 -0.172061 0)
(7.61671 -0.178074 0)
(7.33337 -0.00347462 0)
(7.33719 -0.0103016 0)
(7.34523 -0.0171247 0)
(7.35644 -0.0240498 0)
(7.36982 -0.0310527 0)
(7.38477 -0.0380513 0)
(7.40072 -0.0449492 0)
(7.41716 -0.0516538 0)
(7.4337 -0.058091 0)
(7.45004 -0.0642139 0)
(7.46596 -0.0700036 0)
(7.4813 -0.075465 0)
(7.49596 -0.0806221 0)
(7.50985 -0.0855128 0)
(7.52294 -0.0901837 0)
(7.53519 -0.0946861 0)
(7.54658 -0.0990722 0)
(7.55712 -0.103393 0)
(7.5668 -0.107695 0)
(7.57563 -0.112021 0)
(7.5836 -0.116407 0)
(7.59074 -0.120881 0)
(7.59702 -0.125465 0)
(7.60247 -0.130171 0)
(7.60706 -0.135002 0)
(7.6108 -0.139955 0)
(7.61368 -0.145012 0)
(7.61569 -0.15015 0)
(7.61683 -0.155332 0)
(7.61706 -0.160511 0)
(7.61641 -0.16563 0)
(7.61483 -0.170627 0)
(7.61241 -0.175396 0)
(7.33336 -0.00485985 0)
(7.33712 -0.0143681 0)
(7.34504 -0.0235734 0)
(7.35612 -0.0324717 0)
(7.36941 -0.0410184 0)
(7.38433 -0.0491509 0)
(7.4003 -0.0568112 0)
(7.41681 -0.0639577 0)
(7.43346 -0.0705711 0)
(7.44993 -0.0766562 0)
(7.46599 -0.082239 0)
(7.48147 -0.0873629 0)
(7.49625 -0.0920828 0)
(7.51023 -0.0964611 0)
(7.52337 -0.100563 0)
(7.53563 -0.104454 0)
(7.547 -0.108195 0)
(7.55747 -0.111843 0)
(7.56704 -0.115451 0)
(7.57573 -0.119059 0)
(7.58353 -0.122706 0)
(7.59046 -0.126416 0)
(7.59654 -0.13021 0)
(7.60175 -0.134095 0)
(7.60612 -0.138074 0)
(7.60964 -0.142136 0)
(7.61232 -0.146263 0)
(7.61417 -0.150429 0)
(7.61518 -0.154595 0)
(7.61536 -0.158717 0)
(7.61473 -0.162739 0)
(7.61328 -0.166605 0)
(7.61109 -0.17022 0)
(7.33337 -0.00627983 0)
(7.33716 -0.0185449 0)
(7.34518 -0.0302246 0)
(7.3564 -0.0412141 0)
(7.36991 -0.051452 0)
(7.3851 -0.0608942 0)
(7.4014 -0.0695166 0)
(7.41826 -0.0773212 0)
(7.43527 -0.0843343 0)
(7.45209 -0.0906027 0)
(7.46848 -0.0961903 0)
(7.48425 -0.101173 0)
(7.49926 -0.105634 0)
(7.51343 -0.109658 0)
(7.5267 -0.113329 0)
(7.53904 -0.116727 0)
(7.55044 -0.119925 0)
(7.56089 -0.12299 0)
(7.5704 -0.125978 0)
(7.57898 -0.128936 0)
(7.58665 -0.131902 0)
(7.59342 -0.134904 0)
(7.59932 -0.137961 0)
(7.60435 -0.141081 0)
(7.60854 -0.144263 0)
(7.6119 -0.147497 0)
(7.61444 -0.150765 0)
(7.61618 -0.15404 0)
(7.61714 -0.157285 0)
(7.61733 -0.160457 0)
(7.61678 -0.163507 0)
(7.61549 -0.166382 0)
(7.61355 -0.168999 0)
(7.33338 -0.00777247 0)
(7.3373 -0.0229264 0)
(7.3456 -0.0371754 0)
(7.35721 -0.0502918 0)
(7.37115 -0.0621803 0)
(7.38682 -0.0728073 0)
(7.40363 -0.0821871 0)
(7.421 -0.0903798 0)
(7.43851 -0.0974762 0)
(7.4558 -0.103585 0)
(7.47262 -0.108825 0)
(7.48878 -0.113317 0)
(7.50412 -0.117182 0)
(7.51856 -0.120533 0)
(7.53204 -0.123476 0)
(7.54453 -0.126107 0)
(7.55602 -0.128512 0)
(7.56651 -0.130763 0)
(7.57601 -0.132923 0)
(7.58454 -0.135042 0)
(7.59212 -0.137158 0)
(7.59879 -0.139301 0)
(7.60456 -0.141488 0)
(7.60946 -0.143726 0)
(7.61352 -0.146016 0)
(7.61677 -0.148345 0)
(7.61923 -0.150697 0)
(7.62092 -0.153044 0)
(7.62188 -0.155354 0)
(7.62213 -0.157586 0)
(7.62172 -0.159697 0)
(7.62066 -0.16164 0)
(7.61905 -0.163345 0)
(7.33341 -0.00939129 0)
(7.33761 -0.0277019 0)
(7.3465 -0.0448083 0)
(7.3589 -0.0603826 0)
(7.37375 -0.074315 0)
(7.39038 -0.0865792 0)
(7.40815 -0.0972059 0)
(7.42644 -0.106284 0)
(7.4448 -0.113943 0)
(7.46285 -0.120332 0)
(7.48033 -0.125611 0)
(7.49704 -0.129945 0)
(7.51284 -0.133489 0)
(7.52765 -0.136391 0)
(7.54141 -0.138787 0)
(7.55409 -0.140795 0)
(7.5657 -0.142519 0)
(7.57625 -0.144048 0)
(7.58575 -0.145455 0)
(7.59425 -0.146798 0)
(7.60176 -0.148121 0)
(7.60833 -0.149458 0)
(7.614 -0.150828 0)
(7.61879 -0.152242 0)
(7.62275 -0.1537 0)
(7.6259 -0.155192 0)
(7.6283 -0.156703 0)
(7.62996 -0.158208 0)
(7.63094 -0.159677 0)
(7.63127 -0.161076 0)
(7.63099 -0.162363 0)
(7.63013 -0.163501 0)
(7.62878 -0.164425 0)
(7.33344 -0.0111813 0)
(7.338 -0.0329136 0)
(7.34763 -0.0529523 0)
(7.36098 -0.07081 0)
(7.37689 -0.0863691 0)
(7.39463 -0.0996607 0)
(7.41352 -0.110806 0)
(7.43292 -0.119997 0)
(7.45232 -0.127457 0)
(7.47134 -0.133416 0)
(7.48969 -0.138095 0)
(7.50717 -0.141705 0)
(7.52362 -0.144441 0)
(7.53897 -0.146476 0)
(7.55316 -0.147965 0)
(7.56618 -0.149042 0)
(7.57804 -0.14982 0)
(7.58875 -0.150396 0)
(7.59836 -0.150849 0)
(7.60689 -0.15124 0)
(7.61441 -0.151618 0)
(7.62094 -0.152015 0)
(7.62655 -0.152455 0)
(7.63128 -0.152949 0)
(7.63517 -0.153498 0)
(7.63828 -0.154095 0)
(7.64065 -0.154726 0)
(7.64232 -0.15537 0)
(7.64335 -0.156001 0)
(7.64378 -0.156588 0)
(7.64367 -0.157097 0)
(7.64305 -0.157495 0)
(7.64203 -0.157728 0)
(7.33351 -0.0132625 0)
(7.33881 -0.0391114 0)
(7.34987 -0.0629351 0)
(7.36504 -0.0841248 0)
(7.38289 -0.102522 0)
(7.40256 -0.118106 0)
(7.42325 -0.130973 0)
(7.44427 -0.141338 0)
(7.46508 -0.149479 0)
(7.48532 -0.155695 0)
(7.50469 -0.160284 0)
(7.52301 -0.163529 0)
(7.54015 -0.165691 0)
(7.55604 -0.166999 0)
(7.57065 -0.167655 0)
(7.58398 -0.167828 0)
(7.59605 -0.167661 0)
(7.6069 -0.16727 0)
(7.61658 -0.166748 0)
(7.62514 -0.166168 0)
(7.63263 -0.165584 0)
(7.63911 -0.165034 0)
(7.64465 -0.164544 0)
(7.6493 -0.164126 0)
(7.65312 -0.163785 0)
(7.65616 -0.163514 0)
(7.65848 -0.163302 0)
(7.66014 -0.16313 0)
(7.66118 -0.162975 0)
(7.66167 -0.16281 0)
(7.66165 -0.162606 0)
(7.66118 -0.162333 0)
(7.66033 -0.161943 0)
(7.33355 -0.0156438 0)
(7.33942 -0.0458025 0)
(7.35177 -0.0728479 0)
(7.36863 -0.0960777 0)
(7.38838 -0.11557 0)
(7.41011 -0.131565 0)
(7.43292 -0.14437 0)
(7.45601 -0.154361 0)
(7.47876 -0.16192 0)
(7.50076 -0.167407 0)
(7.52169 -0.171162 0)
(7.54134 -0.173495 0)
(7.55959 -0.174685 0)
(7.5764 -0.174977 0)
(7.59173 -0.174585 0)
(7.60563 -0.173691 0)
(7.61812 -0.172448 0)
(7.62927 -0.170981 0)
(7.63915 -0.169391 0)
(7.64783 -0.167759 0)
(7.65539 -0.166143 0)
(7.66189 -0.164587 0)
(7.66742 -0.163121 0)
(7.67204 -0.16176 0)
(7.67582 -0.16051 0)
(7.67883 -0.159371 0)
(7.68114 -0.158332 0)
(7.68281 -0.15738 0)
(7.68389 -0.156494 0)
(7.68446 -0.155653 0)
(7.68458 -0.15483 0)
(7.6843 -0.154003 0)
(7.68373 -0.153126 0)
(7.3338 -0.0187741 0)
(7.34164 -0.0554512 0)
(7.35733 -0.0887213 0)
(7.37789 -0.117488 0)
(7.40113 -0.14153 0)
(7.42598 -0.160884 0)
(7.4515 -0.175865 0)
(7.47687 -0.187004 0)
(7.50157 -0.194882 0)
(7.5252 -0.200055 0)
(7.54749 -0.203038 0)
(7.56829 -0.204291 0)
(7.58748 -0.204208 0)
(7.60505 -0.203119 0)
(7.62099 -0.2013 0)
(7.63535 -0.198974 0)
(7.64818 -0.196321 0)
(7.65956 -0.193485 0)
(7.66958 -0.190573 0)
(7.67832 -0.187672 0)
(7.68587 -0.184841 0)
(7.69232 -0.182123 0)
(7.69776 -0.179547 0)
(7.70227 -0.177127 0)
(7.70592 -0.174869 0)
(7.7088 -0.172771 0)
(7.71098 -0.170823 0)
(7.71253 -0.169014 0)
(7.71351 -0.167327 0)
(7.714 -0.165741 0)
(7.71405 -0.164234 0)
(7.71373 -0.162785 0)
(7.71312 -0.161352 0)
(7.33369 -0.0221632 0)
(7.34197 -0.0636979 0)
(7.35959 -0.0989909 0)
(7.38313 -0.128014 0)
(7.41009 -0.151684 0)
(7.43912 -0.170515 0)
(7.46883 -0.184977 0)
(7.49812 -0.195629 0)
(7.52631 -0.203002 0)
(7.55293 -0.207597 0)
(7.57771 -0.209891 0)
(7.60051 -0.210326 0)
(7.62126 -0.209299 0)
(7.64 -0.20716 0)
(7.65678 -0.204206 0)
(7.67169 -0.200691 0)
(7.68486 -0.19682 0)
(7.69639 -0.192761 0)
(7.70641 -0.188643 0)
(7.71504 -0.184566 0)
(7.7224 -0.180605 0)
(7.7286 -0.176809 0)
(7.73375 -0.173213 0)
(7.73794 -0.169837 0)
(7.74127 -0.166688 0)
(7.74382 -0.163767 0)
(7.74568 -0.161066 0)
(7.74693 -0.158576 0)
(7.74764 -0.156283 0)
(7.74789 -0.154169 0)
(7.74775 -0.152216 0)
(7.74728 -0.150407 0)
(7.74661 -0.148698 0)
(7.3348 -0.0284675 0)
(7.34937 -0.0842225 0)
(7.37475 -0.132621 0)
(7.40469 -0.171808 0)
(7.43645 -0.202128 0)
(7.46924 -0.224379 0)
(7.50198 -0.239808 0)
(7.53373 -0.249746 0)
(7.5639 -0.255333 0)
(7.59214 -0.257529 0)
(7.61819 -0.257136 0)
(7.64193 -0.254808 0)
(7.66336 -0.251067 0)
(7.68253 -0.24633 0)
(7.69955 -0.240929 0)
(7.71454 -0.235124 0)
(7.72766 -0.22912 0)
(7.73905 -0.223073 0)
(7.74888 -0.217102 0)
(7.75729 -0.211293 0)
(7.76442 -0.205709 0)
(7.77039 -0.200392 0)
(7.77533 -0.195366 0)
(7.77934 -0.190644 0)
(7.78253 -0.18623 0)
(7.78499 -0.18212 0)
(7.7868 -0.178307 0)
(7.78803 -0.17478 0)
(7.78877 -0.17153 0)
(7.78909 -0.168544 0)
(7.78905 -0.165809 0)
(7.78872 -0.163315 0)
(7.7882 -0.161016 0)
(7.33378 -0.0321976 0)
(7.3475 -0.0875873 0)
(7.37733 -0.131238 0)
(7.41487 -0.167267 0)
(7.45527 -0.196936 0)
(7.49627 -0.219917 0)
(7.53598 -0.236646 0)
(7.57343 -0.24789 0)
(7.60832 -0.254394 0)
(7.6406 -0.256955 0)
(7.67031 -0.256378 0)
(7.69757 -0.253398 0)
(7.72253 -0.248654 0)
(7.74535 -0.242685 0)
(7.76616 -0.235927 0)
(7.78509 -0.228727 0)
(7.80228 -0.221351 0)
(7.81785 -0.213999 0)
(7.8319 -0.206815 0)
(7.84455 -0.199902 0)
(7.8559 -0.193327 0)
(7.86606 -0.187131 0)
(7.87512 -0.181333 0)
(7.88316 -0.175941 0)
(7.89029 -0.170948 0)
(7.89658 -0.166346 0)
(7.9021 -0.16212 0)
(7.90694 -0.158256 0)
(7.91115 -0.154745 0)
(7.91482 -0.151579 0)
(7.91803 -0.14876 0)
(7.92086 -0.14629 0)
(7.92345 -0.144141 0)
(7.3389 -0.0546477 0)
(7.37172 -0.152289 0)
(7.41406 -0.221853 0)
(7.45704 -0.26902 0)
(7.50282 -0.299978 0)
(7.55229 -0.318705 0)
(7.60394 -0.328911 0)
(7.65663 -0.333284 0)
(7.70947 -0.333527 0)
(7.76141 -0.330798 0)
(7.81154 -0.32591 0)
(7.8592 -0.319443 0)
(7.9039 -0.311829 0)
(7.94535 -0.30341 0)
(7.98341 -0.294464 0)
(8.01804 -0.28522 0)
(8.04934 -0.275871 0)
(8.07744 -0.266573 0)
(8.10252 -0.257455 0)
(8.12481 -0.248613 0)
(8.14453 -0.240118 0)
(8.1619 -0.232022 0)
(8.17713 -0.224355 0)
(8.19045 -0.217133 0)
(8.20203 -0.21036 0)
(8.21206 -0.204035 0)
(8.2207 -0.198151 0)
(8.22807 -0.192702 0)
(8.23431 -0.187693 0)
(8.23953 -0.183129 0)
(8.24386 -0.179064 0)
(8.24738 -0.175504 0)
(8.25031 -0.172618 0)
(7.33753 -0.0405913 0)
(7.38826 -0.106267 0)
(7.47709 -0.164304 0)
(7.57813 -0.220283 0)
(7.68529 -0.267916 0)
(7.7934 -0.304843 0)
(7.89647 -0.331701 0)
(7.99099 -0.349184 0)
(8.07501 -0.358379 0)
(8.14749 -0.360762 0)
(8.20823 -0.357807 0)
(8.25767 -0.350841 0)
(8.29663 -0.341012 0)
(8.32612 -0.329266 0)
(8.34725 -0.316358 0)
(8.36116 -0.302875 0)
(8.36891 -0.289263 0)
(8.37147 -0.275846 0)
(8.36972 -0.262857 0)
(8.36442 -0.25045 0)
(8.35623 -0.23872 0)
(8.34572 -0.227719 0)
(8.33335 -0.217463 0)
(8.31953 -0.207944 0)
(8.30456 -0.199136 0)
(8.28872 -0.191002 0)
(8.27222 -0.183498 0)
(8.2552 -0.176581 0)
(8.23779 -0.170223 0)
(8.22002 -0.164405 0)
(8.20203 -0.159225 0)
(8.18354 -0.154655 0)
(8.16523 -0.151626 0)
(7.39946 -0.197013 0)
(7.59543 -0.376701 0)
(7.76766 -0.459907 0)
(7.89401 -0.513978 0)
(7.97654 -0.542757 0)
(8.01337 -0.55209 0)
(8.00881 -0.548616 0)
(7.97128 -0.535707 0)
(7.90852 -0.515887 0)
(7.82717 -0.49144 0)
(7.73305 -0.464179 0)
(7.63094 -0.435512 0)
(7.5246 -0.406532 0)
(7.41686 -0.378053 0)
(7.30983 -0.350651 0)
(7.20504 -0.324707 0)
(7.10349 -0.300449 0)
(7.00586 -0.277988 0)
(6.91253 -0.257351 0)
(6.82368 -0.238501 0)
(6.73934 -0.221364 0)
(6.65945 -0.205835 0)
(6.58385 -0.191798 0)
(6.51236 -0.179125 0)
(6.44477 -0.167684 0)
(6.38085 -0.157344 0)
(6.32036 -0.147966 0)
(6.26303 -0.139423 0)
(6.20861 -0.131557 0)
(6.15669 -0.124231 0)
(6.10696 -0.117351 0)
(6.05835 -0.110163 0)
(6.01131 -0.105915 0)
(7.16006 -0.186021 0)
(6.91055 -0.34551 0)
(6.49879 -0.392949 0)
(6.03437 -0.394477 0)
(5.59345 -0.366376 0)
(5.17633 -0.322493 0)
(4.78714 -0.273765 0)
(4.43269 -0.225827 0)
(4.11353 -0.181674 0)
(3.82801 -0.142791 0)
(3.57411 -0.109573 0)
(3.34923 -0.0818287 0)
(3.15054 -0.0590691 0)
(2.97521 -0.0406661 0)
(2.82057 -0.0259615 0)
(2.68413 -0.0143334 0)
(2.56361 -0.00522688 0)
(2.457 0.00183545 0)
(2.36249 0.00725435 0)
(2.2785 0.0113606 0)
(2.20365 0.0144243 0)
(2.13674 0.0166648 0)
(2.07672 0.01826 0)
(2.0227 0.0193554 0)
(1.97391 0.0200749 0)
(1.9297 0.020526 0)
(1.88951 0.0208269 0)
(1.85295 0.0210981 0)
(1.81953 0.0215569 0)
(1.78943 0.0225089 0)
(1.76178 0.0242583 0)
(1.73848 0.0293674 0)
(1.71777 0.0249233 0)
(1.4694 0.00172366 0)
(1.83888 0.253822 0)
(2.56016 0.477095 0)
(3.33999 0.566549 0)
(4.06407 0.448974 0)
(4.64985 0.127774 0)
(5.0579 -0.337842 0)
(5.39114 -0.88585 0)
(5.80443 -1.52591 0)