# y+ ()       
# Time        	patch         	min           	max           	average       
300           	lowerWall	5.298114e+00	8.275474e+01	4.341762e+01
300           	upperWall	3.060454e+01	4.721236e+01	4.142188e+01
