/*--------------------------------*- C++ -*----------------------------------*\
  =========                 |
  \\      /  F ield         | OpenFOAM: The Open Source CFD Toolbox
   \\    /   O peration     | Website:  https://openfoam.org
    \\  /    A nd           | Version:  10
     \\/     M anipulation  |
\*---------------------------------------------------------------------------*/
FoamFile
{
    format      ascii;
    class       volScalarField;
    location    "0.16";
    object      p;
}
// * * * * * * * * * * * * * * * * * * * * * * * * * * * * * * * * * * * * * //

dimensions      [0 2 -2 0 0 0 0];

internalField   nonuniform List<scalar> 
6820
(
7.06948
-7.26139
-9.25976
-9.43955
-9.59305
-9.53016
-9.494
-9.50802
-9.54553
-9.59664
-9.6548
-9.71623
-9.77922
-9.84293
-9.90684
-9.97063
-10.034
-10.0967
-10.1584
-10.219
-10.2781
-10.3355
-10.3909
-10.444
-10.4943
-10.5415
-10.5853
-10.6248
-10.6603
-10.6889
-10.7174
-10.7233
-10.7717
1.69211
-7.05836
-9.06453
-9.31788
-9.52339
-9.52417
-9.50939
-9.52984
-9.56756
-9.6159
-9.67089
-9.72949
-9.79018
-9.8521
-9.91468
-9.9775
-10.0402
-10.1024
-10.1638
-10.2242
-10.2833
-10.3407
-10.3961
-10.4493
-10.4999
-10.5474
-10.5914
-10.6314
-10.6673
-10.6973
-10.7257
-10.7415
-10.7922
-0.387304
-5.84558
-8.27049
-8.86209
-9.24265
-9.38637
-9.43374
-9.48129
-9.53488
-9.59309
-9.65504
-9.71893
-9.7836
-9.84843
-9.91306
-9.97728
-10.0409
-10.1038
-10.1657
-10.2264
-10.2857
-10.3433
-10.3991
-10.4526
-10.5037
-10.5519
-10.5969
-10.6382
-10.6757
-10.708
-10.7372
-10.7544
-10.7702
-1.95398
-5.66157
-7.97245
-8.62224
-9.00409
-9.21105
-9.30869
-9.38831
-9.46498
-9.53835
-9.61007
-9.68072
-9.75046
-9.81943
-9.88757
-9.95479
-10.021
-10.0862
-10.1502
-10.2128
-10.2739
-10.3334
-10.391
-10.4465
-10.4998
-10.5505
-10.5985
-10.6436
-10.6857
-10.7244
-10.7605
-10.7912
-10.8198
-3.23794
-5.7044
-7.66353
-8.3466
-8.75681
-9.02966
-9.18129
-9.29159
-9.38792
-9.47462
-9.55576
-9.63372
-9.70909
-9.78232
-9.85393
-9.92409
-9.99284
-10.0602
-10.1261
-10.1906
-10.2535
-10.3147
-10.3743
-10.4321
-10.4881
-10.5421
-10.5943
-10.6447
-10.6937
-10.7415
-10.7895
-10.8384
-10.892
-4.19407
-5.82581
-7.47766
-8.19174
-8.61148
-8.90654
-9.08427
-9.21112
-9.31955
-9.41583
-9.50416
-9.58764
-9.6676
-9.74474
-9.81951
-9.89227
-9.96324
-10.0326
-10.1003
-10.1665
-10.2311
-10.2943
-10.356
-10.4162
-10.4751
-10.5328
-10.5896
-10.6458
-10.7024
-10.7602
-10.8215
-10.8886
-10.9687
-4.9379
-6.03603
-7.38799
-8.07238
-8.4785
-8.78222
-8.98407
-9.13037
-9.25292
-9.35986
-9.456
-9.54531
-9.62978
-9.71046
-9.78812
-9.86334
-9.93646
-10.0077
-10.0772
-10.1451
-10.2115
-10.2764
-10.34
-10.4025
-10.464
-10.5249
-10.5857
-10.6469
-10.7098
-10.7755
-10.8468
-10.9265
-11.0212
-5.51995
-6.26384
-7.34794
-7.98571
-8.38055
-8.68661
-8.90324
-9.06219
-9.19378
-9.308
-9.40997
-9.50393
-9.59224
-9.67619
-9.75668
-9.83435
-9.90962
-9.98278
-10.0541
-10.1236
-10.1917
-10.2584
-10.3239
-10.3886
-10.4527
-10.5166
-10.5811
-10.6468
-10.7152
-10.7876
-10.8668
-10.9555
-11.0596
-5.98119
-6.49339
-7.35542
-7.93375
-8.30827
-8.60528
-8.82733
-8.99499
-9.13432
-9.25552
-9.36347
-9.46233
-9.5547
-9.64205
-9.7254
-9.80552
-9.88293
-9.958
-10.031
-10.1023
-10.172
-10.2405
-10.3079
-10.3746
-10.4411
-10.5078
-10.5755
-10.6451
-10.7178
-10.7954
-10.8801
-10.9746
-11.0833
-6.35142
-6.71056
-7.39118
-7.90363
-8.25423
-8.53919
-8.76263
-8.93635
-9.08139
-9.20778
-9.32032
-9.42306
-9.51872
-9.60891
-9.69475
-9.77706
-9.85643
-9.9333
-10.008
-10.0809
-10.1522
-10.2222
-10.2914
-10.36
-10.4285
-10.4977
-10.5681
-10.6407
-10.7169
-10.7981
-10.8864
-10.984
-11.0941
-6.65189
-6.90901
-7.44561
-7.89314
-8.21762
-8.48729
-8.70691
-8.88269
-9.03099
-9.16106
-9.27739
-9.38364
-9.48244
-9.57545
-9.66379
-9.74832
-9.82967
-9.90833
-9.9847
-10.0591
-10.132
-10.2036
-10.2743
-10.3446
-10.415
-10.4861
-10.5587
-10.6337
-10.7122
-10.7957
-10.8858
-10.9841
-11.0932
-6.8981
-7.08639
-7.51015
-7.89652
-8.19345
-8.4462
-8.6592
-8.83483
-8.98505
-9.11781
-9.23715
-9.34631
-9.44778
-9.54321
-9.63373
-9.72022
-9.80335
-9.88363
-9.96151
-10.0374
-10.1116
-10.1845
-10.2567
-10.3284
-10.4002
-10.4729
-10.547
-10.6235
-10.7033
-10.7878
-10.8781
-10.9755
-11.0818
-7.10135
-7.24244
-7.5787
-7.90996
-8.17952
-8.41489
-8.61922
-8.79243
-8.9428
-9.0769
-9.19825
-9.30966
-9.41339
-9.51097
-9.60351
-9.69186
-9.77669
-9.85854
-9.93786
-10.0151
-10.0906
-10.1647
-10.238
-10.3109
-10.3839
-10.4576
-10.5327
-10.61
-10.6903
-10.7745
-10.8638
-10.959
-11.0611
-7.26994
-7.37808
-7.64688
-7.92989
-8.17304
-8.39105
-8.58547
-8.75471
-8.90408
-9.03868
-9.16143
-9.27465
-9.38028
-9.47975
-9.57409
-9.66412
-9.75049
-9.83375
-9.91435
-9.99274
-10.0693
-10.1445
-10.2187
-10.2924
-10.3662
-10.4404
-10.5159
-10.5932
-10.6731
-10.7562
-10.8434
-10.9353
-11.0324
-7.41
-7.4947
-7.71166
-7.95337
-8.17184
-8.37315
-8.55718
-8.72138
-8.86875
-9.00299
-9.1264
-9.24085
-9.34796
-9.449
-9.5449
-9.63641
-9.72417
-9.8087
-9.89047
-9.9699
-10.0474
-10.1234
-10.1983
-10.2726
-10.3467
-10.4211
-10.4964
-10.5732
-10.6519
-10.7332
-10.8176
-10.9053
-10.9969
-7.52613
-7.59385
-7.77098
-7.97797
-8.17393
-8.3595
-8.53313
-8.69162
-8.83627
-8.96955
-9.09313
-9.20842
-9.31673
-9.41911
-9.51639
-9.60923
-9.69824
-9.7839
-9.86668
-9.94698
-10.0252
-10.1018
-10.1771
-10.2516
-10.3257
-10.3998
-10.4745
-10.5501
-10.6271
-10.7059
-10.7868
-10.87
-10.9557
-7.62175
-7.67697
-7.8235
-8.00168
-8.17759
-8.34868
-8.51229
-8.66484
-8.80634
-8.93821
-9.06154
-9.17732
-9.28651
-9.38998
-9.48841
-9.58241
-9.67249
-9.75914
-9.84276
-9.92377
-10.0026
-10.0795
-10.155
-10.2294
-10.3032
-10.3767
-10.4502
-10.5243
-10.5991
-10.6749
-10.752
-10.8304
-10.91
-7.69943
-7.74532
-7.86832
-8.02292
-8.18131
-8.33937
-8.49362
-8.64026
-8.77842
-8.90862
-9.03141
-9.14741
-9.25727
-9.36164
-9.46108
-9.55608
-9.64711
-9.73459
-9.81891
-9.90045
-9.97959
-10.0567
-10.1321
-10.2062
-10.2792
-10.3517
-10.4238
-10.4958
-10.568
-10.6406
-10.7136
-10.787
-10.8606
-7.7611
-7.79997
-7.90487
-8.04037
-8.18378
-8.33035
-8.47614
-8.61721
-8.75204
-8.88049
-9.00263
-9.1187
-9.22908
-9.33423
-9.43454
-9.53042
-9.62227
-9.71045
-9.79533
-9.87726
-9.95658
-10.0336
-10.1087
-10.1822
-10.2544
-10.3255
-10.3958
-10.4656
-10.535
-10.6041
-10.6729
-10.7413
-10.8091
-7.80815
-7.8417
-7.93273
-8.05296
-8.18384
-8.32054
-8.45889
-8.59492
-8.72666
-8.85342
-8.97487
-9.09093
-9.20174
-9.30754
-9.40861
-9.50526
-9.59779
-9.68654
-9.77181
-9.85394
-9.93324
-10.01
-10.0846
-10.1572
-10.2282
-10.2977
-10.366
-10.4333
-10.4997
-10.5651
-10.6296
-10.6931
-10.7554
-7.84156
-7.8711
-7.95157
-8.05981
-8.18046
-8.30895
-8.44104
-8.57275
-8.70183
-8.82716
-8.94807
-9.06422
-9.1755
-9.28198
-9.38381
-9.4812
-9.57438
-9.66363
-9.74923
-9.83146
-9.91063
-9.987
-10.0609
-10.1325
-10.2021
-10.2698
-10.336
-10.4006
-10.4638
-10.5256
-10.586
-10.6448
-10.7017
-7.86193
-7.8885
-7.96107
-8.06012
-8.17271
-8.29463
-8.42169
-8.54993
-8.67689
-8.80114
-8.92172
-9.03805
-9.14983
-9.25697
-9.35949
-9.45752
-9.55123
-9.64084
-9.7266
-9.80877
-9.8876
-9.96336
-10.0363
-10.1067
-10.1747
-10.2405
-10.3043
-10.3662
-10.4262
-10.4843
-10.5405
-10.5948
-10.6468
-7.86957
-7.89398
-7.96084
-8.05315
-8.15976
-8.2768
-8.4002
-8.52603
-8.65167
-8.77544
-8.89616
-9.01304
-9.12561
-9.23362
-9.33701
-9.43581
-9.53013
-9.62015
-9.70607
-9.78814
-9.86659
-9.94168
-10.0136
-10.0827
-10.149
-10.2128
-10.2742
-10.3332
-10.39
-10.4446
-10.4969
-10.5468
-10.5942
-7.86446
-7.88742
-7.95042
-8.03815
-8.1407
-8.25452
-8.37561
-8.50006
-8.62513
-8.74897
-8.8702
-8.98785
-9.10133
-9.21027
-9.3145
-9.414
-9.50883
-9.59912
-9.68506
-9.76686
-9.84476
-9.91898
-9.98974
-10.0573
-10.1218
-10.1834
-10.2422
-10.2984
-10.352
-10.4031
-10.4516
-10.4974
-10.5405
-7.84631
-7.86844
-7.92923
-8.01442
-8.11488
-8.22731
-8.34773
-8.47224
-8.59798
-8.72292
-8.84552
-8.96468
-9.07966
-9.19
-9.29546
-9.39596
-9.4915
-9.58222
-9.66827
-9.74986
-9.82721
-9.90055
-9.97011
-10.0361
-10.0987
-10.1581
-10.2145
-10.2678
-10.3183
-10.366
-10.4108
-10.4527
-10.4917
-7.81447
-7.83632
-7.89642
-7.98093
-8.0811
-8.19374
-8.31489
-8.44055
-8.56779
-8.69445
-8.81887
-8.93982
-9.05648
-9.16832
-9.27503
-9.37649
-9.47269
-9.56373
-9.64977
-9.73101
-9.80767
-9.87998
-9.94818
-10.0125
-10.0731
-10.1302
-10.1839
-10.2344
-10.2818
-10.3262
-10.3675
-10.4058
-10.4411
-7.76799
-7.79016
-7.85117
-7.93713
-8.03929
-8.15447
-8.27859
-8.40751
-8.53813
-8.66815
-8.79577
-8.91967
-9.03895
-9.15302
-9.26155
-9.3644
-9.46157
-9.55314
-9.6393
-9.72026
-9.79625
-9.86753
-9.93435
-9.99694
-10.0555
-10.1103
-10.1615
-10.2091
-10.2535
-10.2945
-10.3324
-10.3672
-10.3988
-7.70539
-7.7284
-7.79176
-7.8809
-7.98668
-8.10581
-8.23408
-8.36719
-8.50194
-8.6359
-8.76718
-8.89439
-9.01657
-9.13309
-9.2436
-9.34794
-9.44612
-9.53824
-9.6245
-9.70512
-9.78036
-9.85051
-9.91584
-9.97661
-10.0331
-10.0855
-10.134
-10.1788
-10.2201
-10.258
-10.2926
-10.3241
-10.3524
-7.62485
-7.6496
-7.71763
-7.81312
-7.92609
-8.05289
-8.18894
-8.32956
-8.47127
-8.61154
-8.74839
-8.88038
-9.00657
-9.12634
-9.23938
-9.34559
-9.445
-9.53777
-9.62415
-9.7044
-9.77884
-9.84778
-9.91152
-9.97038
-10.0246
-10.0745
-10.1203
-10.1622
-10.2005
-10.2351
-10.2664
-10.2945
-10.3193
-7.52349
-7.55029
-7.62419
-7.72721
-7.84815
-7.98322
-8.12763
-8.27636
-8.42577
-8.57313
-8.71637
-8.85397
-8.98493
-9.10864
-9.2248
-9.33333
-9.43434
-9.52803
-9.6147
-9.69467
-9.76833
-9.83603
-9.89814
-9.95502
-10.007
-10.0543
-10.0974
-10.1364
-10.1715
-10.2031
-10.2312
-10.2561
-10.278
-7.39843
-7.42969
-7.5148
-7.63227
-7.76842
-7.91863
-8.07731
-8.23888
-8.3995
-8.5565
-8.70783
-8.8521
-8.98843
-9.11635
-9.23568
-9.34646
-9.44888
-9.54325
-9.62994
-9.70936
-9.78196
-9.84815
-9.90835
-9.96298
-10.0124
-10.057
-10.097
-10.1328
-10.1646
-10.1927
-10.2173
-10.2386
-10.2568
-7.24312
-7.27728
-7.37239
-7.50241
-7.6519
-7.81651
-7.99005
-8.16607
-8.3402
-8.50942
-8.6715
-8.82491
-8.96881
-9.10278
-9.22676
-9.34091
-9.44557
-9.5412
-9.6283
-9.7074
-9.77904
-9.84376
-9.90206
-9.95441
-10.0013
-10.043
-10.0801
-10.1127
-10.1413
-10.1662
-10.1876
-10.2059
-10.2212
-7.05545
-7.10245
-7.22453
-7.38469
-7.5619
-7.75124
-7.94618
-8.14013
-8.32917
-8.51072
-8.68288
-8.84443
-8.99477
-9.1337
-9.26132
-9.37795
-9.48406
-9.58023
-9.66707
-9.74521
-9.81529
-9.87792
-9.93368
-9.98313
-10.0268
-10.065
-10.0984
-10.1272
-10.1518
-10.1726
-10.1899
-10.2039
-10.2148
-6.81383
-6.85993
-6.99571
-7.17617
-7.37806
-7.59589
-7.81978
-8.04069
-8.25381
-8.45614
-8.64559
-8.82109
-8.98234
-9.12951
-9.26308
-9.38376
-9.49232
-9.58964
-9.67658
-9.75398
-9.82264
-9.88332
-9.93671
-9.98344
-10.0241
-10.0592
-10.0892
-10.1146
-10.1357
-10.153
-10.1669
-10.1776
-10.1856
-6.53633
-6.63011
-6.83374
-7.06738
-7.30663
-7.55414
-7.80202
-8.04232
-8.2717
-8.48788
-8.68903
-8.87425
-9.04335
-9.19658
-9.33451
-9.45796
-9.56787
-9.66525
-9.75114
-9.82655
-9.89244
-9.9497
-9.99915
-10.0415
-10.0776
-10.1078
-10.1327
-10.1529
-10.1687
-10.1805
-10.1889
-10.194
-10.1965
-6.1131
-6.18089
-6.41511
-6.70579
-7.01226
-7.32751
-7.6349
-7.92457
-8.19386
-8.44112
-8.66565
-8.86799
-9.04926
-9.21082
-9.35414
-9.48075
-9.59213
-9.68972
-9.77485
-9.84877
-9.91262
-9.96742
-10.0141
-10.0535
-10.0863
-10.1131
-10.1345
-10.151
-10.163
-10.1709
-10.1752
-10.1764
-10.1751
-5.74851
-6.00085
-6.35617
-6.67355
-6.99157
-7.32478
-7.64982
-7.95793
-8.24736
-8.51454
-8.75716
-8.97491
-9.1684
-9.33878
-9.48767
-9.61691
-9.72839
-9.82396
-9.90538
-9.97428
-10.0321
-10.0803
-10.1198
-10.1518
-10.1771
-10.1964
-10.2103
-10.2192
-10.2235
-10.2235
-10.2194
-10.2119
-10.2011
-4.69446
-4.95994
-5.56934
-6.11346
-6.61264
-7.08573
-7.50831
-7.88287
-8.21694
-8.5133
-8.77497
-9.00536
-9.20742
-9.38378
-9.53686
-9.66893
-9.78209
-9.87834
-9.95953
-10.0274
-10.0835
-10.1293
-10.166
-10.1947
-10.2163
-10.2316
-10.2413
-10.2456
-10.2447
-10.2388
-10.2272
-10.2109
-10.1861
-4.74478
-5.30415
-5.74414
-6.10622
-6.5795
-7.07143
-7.5319
-7.96365
-8.35817
-8.70712
-9.01035
-9.27048
-9.49077
-9.67517
-9.82795
-9.95328
-10.055
-10.1366
-10.2013
-10.2515
-10.2897
-10.3179
-10.3376
-10.3503
-10.3571
-10.3588
-10.3562
-10.3496
-10.3389
-10.3234
-10.301
-10.2692
-10.2172
0.197803
-3.49359
-4.81683
-5.4839
-6.27905
-6.9519
-7.49099
-7.96239
-8.37353
-8.72575
-9.02673
-9.28247
-9.49782
-9.67766
-9.82657
-9.94872
-10.0479
-10.1275
-10.1904
-10.2393
-10.2764
-10.3036
-10.3226
-10.3346
-10.3409
-10.3424
-10.34
-10.3342
-10.3259
-10.3146
-10.3027
-10.2858
-10.2735
-10.604
-10.7282
-11.2915
-11.9152
-12.6291
-13.4729
-14.5598
-16.0188
-17.8805
-19.9533
-21.7996
-22.8749
-22.6844
-20.7465
-16.8014
-11.3955
-5.83816
-1.34878
1.48495
2.5112
1.67802
-0.76273
-4.53019
-9.30482
-14.7358
-20.4577
-26.0731
-31.1726
-35.3288
-38.1014
-39.1753
-38.4679
-36.25
-33.0787
-29.5425
-25.9593
-22.2932
-18.3801
-14.2577
-10.3363
-7.05863
-4.54627
-2.68094
-1.30127
-0.281161
0.468977
1.01203
1.39109
1.63519
1.76096
1.77357
1.65554
1.38683
0.809111
-0.682493
-4.07652
-9.97829
-17.7296
-25.9684
-33.2651
-38.3647
-40.407
-39.0321
-34.0638
-26.434
-18.2655
-11.6262
-7.11445
-4.23683
-2.38317
-1.16348
-0.356692
0.171556
0.510735
0.723232
0.852628
0.928524
0.970037
0.987983
0.986897
0.965493
0.916994
0.826446
0.669576
0.400208
-0.0880073
-1.08435
-3.2343
-7.23729
-12.9782
-19.0852
-23.2931
-23.8183
-20.3854
-14.5785
-8.82096
-4.4599
-1.96244
-0.322986
-0.268346
-10.7247
-10.789
-11.2798
-11.9099
-12.6534
-13.5367
-14.6439
-16.0696
-17.8174
-19.6938
-21.2858
-22.0893
-21.6455
-19.5795
-15.818
-10.9625
-6.11762
-2.22397
0.26556
1.23751
0.602576
-1.57755
-4.97337
-9.29479
-14.2291
-19.453
-24.6178
-29.3292
-33.1727
-35.7431
-36.7786
-36.2276
-34.3462
-31.608
-28.4636
-25.1228
-21.5659
-17.7294
-13.7666
-10.0853
-7.02181
-4.64066
-2.83727
-1.47984
-0.461891
0.295924
0.851284
1.24463
1.5034
1.64356
1.67013
1.56564
1.30556
0.775129
-0.559594
-3.63548
-9.08889
-16.391
-24.2535
-31.262
-36.1794
-38.1569
-36.8578
-32.1341
-24.9507
-17.3527
-11.2136
-7.01295
-4.28402
-2.48823
-1.28473
-0.475991
0.0621603
0.414479
0.64083
0.783332
0.870755
0.921764
0.94691
0.950694
0.93172
0.883216
0.790252
0.628721
0.354721
-0.128435
-1.07655
-3.06823
-6.75032
-12.0427
-17.7001
-21.6258
-22.1711
-19.063
-13.7377
-8.42442
-4.33743
-1.97962
-0.332211
-0.319475
-10.7449
-10.9
-11.3892
-12.0131
-12.7435
-13.6186
-14.7005
-16.0501
-17.6311
-19.2371
-20.5004
-20.9782
-20.2892
-18.1966
-14.7711
-10.5748
-6.46635
-3.15092
-0.996227
-0.116854
-0.590152
-2.46342
-5.51014
-9.42222
-13.895
-18.6199
-23.2938
-27.5744
-31.0852
-33.4588
-34.4731
-34.0967
-32.5516
-30.207
-27.38
-24.2198
-20.7495
-17.0186
-13.2643
-9.8437
-6.99072
-4.73508
-2.99265
-1.6592
-0.645715
0.117764
0.683841
1.09024
1.36275
1.51642
1.55633
1.46559
1.21454
0.719251
-0.473735
-3.2315
-8.2038
-14.9982
-22.4253
-29.1031
-33.8159
-35.7234
-34.5072
-30.0619
-23.3807
-16.4047
-10.7913
-6.9086
-4.33018
-2.59394
-1.40823
-0.598631
-0.0510572
0.314357
0.554774
0.71073
0.810079
0.870974
0.903704
0.912757
0.896629
0.848554
0.75373
0.588337
0.310644
-0.167242
-1.06952
-2.90769
-6.27086
-11.1086
-16.3058
-19.9439
-20.51
-17.732
-12.8952
-8.02977
-4.21767
-1.99868
-0.345556
-0.370231
-10.8625
-11.0542
-11.4886
-12.0731
-12.7776
-13.6222
-14.6415
-15.853
-17.1955
-18.4811
-19.3911
-19.5661
-18.7306
-16.7666
-13.7995
-10.278
-6.83886
-4.02762
-2.17113
-1.41063
-1.7944
-3.39034
-6.08383
-9.61458
-13.6703
-17.9462
-22.1545
-26.0012
-29.1714
-31.3528
-32.3556
-32.1489
-30.8997
-28.8628
-26.2573
-23.2206
-19.8449
-16.2773
-12.7779
-9.62178
-6.96591
-4.82776
-3.14567
-1.83859
-0.832222
-0.0652471
0.509871
0.928018
1.21321
1.37947
1.4318
1.35453
1.11377
0.645265
-0.418465
-2.86122
-7.32815
-13.5633
-20.4996
-26.8067
-31.2941
-33.1283
-32.008
-27.8825
-21.7604
-15.4467
-10.3701
-6.80361
-4.37473
-2.69947
-1.53352
-0.724386
-0.167989
0.210423
0.4651
0.634864
0.746582
0.81785
0.858655
0.873391
0.860517
0.813362
0.717347
0.549003
0.268718
-0.203127
-1.06106
-2.7508
-5.80088
-10.1862
-14.9226
-18.2743
-18.8632
-16.4173
-12.068
-7.64586
-4.10378
-2.01988
-0.362238
-0.4204
-10.9781
-11.1891
-11.5855
-12.1223
-12.7681
-13.5307
-14.4221
-15.436
-16.5074
-17.4722
-18.0791
-18.0631
-17.2304
-15.5101
-13.0134
-10.0811
-7.19967
-4.8129
-3.2152
-2.56625
-2.90917
-4.28848
-6.64558
-9.80108
-13.4779
-17.3679
-21.1837
-24.6524
-27.5086
-29.5056
-30.4933
-30.4114
-29.3641
-27.5176
-25.0478
-22.1156
-18.8811
-15.5405
-12.3212
-9.41924
-6.94554
-4.91838
-3.29656
-2.01806
-1.02131
-0.253031
0.329329
0.757749
1.05446
1.23231
1.29609
1.23175
1.00293
0.555307
-0.393651
-2.53278
-6.48471
-12.1203
-18.5142
-24.4089
-28.6464
-30.4015
-29.3947
-25.6342
-20.1232
-14.4987
-9.95798
-6.70042
-4.41858
-2.8054
-1.66099
-0.853551
-0.288873
0.102472
0.37164
0.555607
0.680166
0.762291
0.811652
0.832552
0.82343
0.777744
0.681247
0.510937
0.229267
-0.235672
-1.05103
-2.59958
-5.34828
-9.29211
-13.5753
-16.6453
-17.2573
-15.1391
-11.2686
-7.27848
-3.99775
-2.04376
-0.38206
-0.470691
-11.0881
-11.3085
-11.6652
-12.1382
-12.7043
-13.3655
-14.1252
-14.961
-15.8042
-16.5228
-16.9269
-16.8143
-16.034
-14.5386
-12.4276
-9.97034
-7.54761
-5.523
-4.15521
-3.59964
-3.91199
-5.11885
-7.17555
-9.95712
-13.254
-16.7893
-20.2744
-23.4407
-26.0456
-27.8821
-28.8287
-28.7938
-27.833
-26.0824
-23.7179
-20.9293
-17.9081
-14.8417
-11.9032
-9.2355
-6.92829
-5.00631
-3.44491
-2.1972
-1.2126
-0.4453
0.142414
0.579544
0.886516
1.07493
1.1491
1.09678
0.881243
0.450687
-0.402362
-2.26059
-5.70503
-10.7136
-16.5172
-21.9556
-25.9159
-27.5843
-26.7171
-23.3684
-18.5104
-13.583
-9.56277
-6.60086
-4.46196
-2.91175
-1.7907
-0.986208
-0.413805
-0.00958114
0.274335
0.472946
0.610877
0.704423
0.762901
0.79047
0.785601
0.741946
0.645698
0.474435
0.1926
-0.264665
-1.03985
-2.45684
-4.92122
-8.44237
-12.2868
-15.0837
-15.7186
-13.9188
-10.5099
-6.93379
-3.90151
-2.07052
-0.404296
-0.521546
-11.156
-11.3759
-11.7013
-12.1242
-12.6278
-13.2086
-13.8569
-14.5433
-15.206
-15.7368
-15.9863
-15.8004
-15.0693
-13.7663
-11.9775
-9.91644
-7.88331
-6.17437
-5.01315
-4.5412
-4.82193
-5.8794
-7.67097
-10.0974
-12.9989
-16.1569
-19.3136
-22.2063
-24.5977
-26.288
-27.1347
-27.0818
-26.1627
-24.5092
-22.3014
-19.733
-16.982
-14.2009
-11.5234
-9.06678
-6.91256
-5.09135
-3.59068
-2.37581
-1.4058
-0.641769
-0.0506621
0.393529
0.709393
0.90731
0.990771
0.949387
0.747841
0.333421
-0.44313
-2.05194
-5.0146
-9.38781
-14.5636
-19.5048
-23.1612
-24.7449
-24.0387
-21.1439
-16.9629
-12.7186
-9.19018
-6.50629
-4.50543
-3.01896
-1.923
-1.12263
-0.543014
-0.125927
0.173048
0.386801
0.538691
0.644256
0.712442
0.747251
0.747212
0.706209
0.61098
0.439819
0.159086
-0.28969
-1.02724
-2.32371
-4.52503
-7.64951
-11.0774
-13.6142
-14.271
-12.7742
-9.80255
-6.61629
-3.81633
-2.10032
-0.428316
-0.573753
-11.2031
-11.4207
-11.7207
-12.0994
-12.5433
-13.044
-13.5884
-14.1466
-14.6621
-15.0455
-15.1815
-14.954
-14.2821
-13.1509
-11.6354
-9.90742
-8.20515
-6.76929
-5.79084
-5.39752
-5.65143
-6.57673
-8.13507
-10.2403
-12.7598
-15.5173
-18.302
-20.8816
-23.028
-24.536
-25.2816
-25.2192
-24.3814
-22.8895
-20.9087
-18.608
-16.1362
-13.6202
-11.1763
-8.90985
-6.89761
-5.17345
-3.73372
-2.55356
-1.60051
-0.842042
-0.249547
0.200009
0.523331
0.729652
0.821407
0.789746
0.602111
0.20494
-0.511798
-1.90813
-4.43193
-8.18627
-12.7155
-17.1273
-20.4563
-21.9564
-21.4359
-19.0246
-15.5194
-11.9203
-8.84399
-6.41761
-4.54951
-3.12745
-2.05821
-1.26308
-0.67673
-0.246747
0.0676645
0.297139
0.463658
0.581926
0.660488
0.703149
0.708541
0.670836
0.577414
0.407421
0.129082
-0.310351
-1.01277
-2.20051
-4.16324
-6.92328
-9.96393
-12.2574
-12.9342
-11.7203
-9.15475
-6.32941
-3.74305
-2.13323
-0.453375
-0.628057
-11.2292
-11.4393
-11.7137
-12.0504
-12.4391
-12.8698
-13.3267
-13.7791
-14.1768
-14.4471
-14.5005
-14.2496
-13.6364
-12.656
-11.3737
-9.92752
-8.50665
-7.30651
-6.48876
-6.16702
-6.39948
-7.20927
-8.56503
-10.3899
-12.5681
-14.9485
-17.3535
-19.5885
-21.4551
-22.7758
-23.4388
-23.3961
-22.6761
-21.3777
-19.6366
-17.5926
-15.3726
-13.0911
-10.8554
-8.76235
-6.88313
-5.25271
-3.87393
-2.73017
-1.79632
-1.04567
-0.453807
-0.000613849
0.32869
0.542262
0.641427
0.618331
0.443965
0.0657791
-0.603109
-1.82575
-3.96714
-7.14613
-11.0361
-14.9023
-17.8884
-19.3079
-18.992
-17.0713
-14.2096
-11.1967
-8.52559
-6.33537
-4.59489
-3.23786
-2.19682
-1.40796
-0.81528
-0.372291
-0.0419725
0.2039
0.385808
0.517532
0.607198
0.658388
0.669879
0.636166
0.545357
0.377602
0.102954
-0.326249
-0.995898
-2.08688
-3.83734
-6.2697
-8.9579
-11.0281
-11.7225
-10.7669
-8.57171
-6.07497
-3.682
-2.1693
-0.478823
-0.685286
-11.2387
-11.4391
-11.6899
-11.9892
-12.3281
-12.6955
-13.0744
-13.4363
-13.7381
-13.9208
-13.9154
-13.6569
-13.1044
-12.2591
-11.1768
-9.96887
-8.78663
-7.78878
-7.11118
-6.85303
-7.06799
-7.7771
-8.95566
-10.5373
-12.4204
-14.4731
-16.5418
-18.4608
-20.0671
-21.2152
-21.8013
-21.7769
-21.163
-20.0354
-18.5017
-16.6783
-14.6773
-12.6037
-10.5565
-8.62329
-6.86921
-5.32924
-4.01123
-2.9053
-1.99277
-1.25212
-0.662901
-0.207799
0.126018
0.34566
0.451476
0.436001
0.273977
-0.0839674
-0.711583
-1.79652
-3.61895
-6.29013
-9.57988
-12.9085
-15.5486
-16.8921
-16.7856
-15.3321
-13.0505
-10.5497
-8.23443
-6.25998
-4.64245
-3.35094
-2.3394
-1.55775
-0.95906
-0.50285
-0.156033
0.10704
0.305215
0.451252
0.552835
0.613293
0.631589
0.602592
0.515214
0.350748
0.0810796
-0.336962
-0.975905
-1.98164
-3.54655
-5.69041
-8.06473
-9.93439
-10.6435
-9.91924
-8.0555
-5.8534
-3.63314
-2.20869
-0.504142
-0.746166
-11.2337
-11.4222
-11.6499
-11.9143
-12.2076
-12.5187
-12.8311
-13.1188
-13.3448
-13.4619
-13.4167
-13.1612
-12.6674
-11.9407
-11.0289
-10.0225
-9.04254
-8.21776
-7.6615
-7.45916
-7.65926
-8.28064
-9.30366
-10.6723
-12.2991
-14.0697
-15.8515
-17.5024
-18.8849
-19.8754
-20.3822
-20.363
-19.8302
-18.8404
-17.4794
-15.8456
-14.0382
-12.1524
-10.2776
-8.49227
-6.85595
-5.40316
-4.14552
-3.07866
-2.18937
-1.46082
-0.876197
-0.420897
-0.0839993
0.14054
0.252318
0.243867
0.09329
-0.243989
-0.832836
-1.80886
-3.37483
-5.62059
-8.37935
-11.2076
-13.5159
-14.7861
-14.8731
-13.8312
-12.0431
-9.97469
-7.96869
-6.19195
-4.69324
-3.4676
-2.48671
-1.71307
-1.10858
-0.638795
-0.274731
0.00650149
0.22196
0.383267
0.497672
0.568209
0.594071
0.570553
0.487431
0.327275
0.0638415
-0.342065
-0.951973
-1.88296
-3.28803
-5.18275
-7.28345
-8.97693
-9.69765
-9.1767
-7.60502
-5.66384
-3.59628
-2.25175
-0.52906
-0.811291
-11.2162
-11.3919
-11.5976
-11.8304
-12.0831
-12.3451
-12.6006
-12.8266
-12.9923
-13.0598
-12.9886
-12.7436
-12.3062
-11.6844
-10.9188
-10.083
-9.2742
-8.5967
-8.14454
-7.9904
-8.17724
-8.72176
-9.60823
-10.7895
-12.1909
-13.7146
-15.2465
-16.6649
-17.8505
-18.6986
-19.1315
-19.1103
-18.6399
-17.7631
-16.5497
-15.0829
-13.4495
-11.7343
-10.0174
-8.36896
-6.84344
-5.47459
-4.27673
-3.24993
-2.38561
-1.67112
-1.09298
-0.639139
-0.300527
-0.07219
0.0449051
0.0432305
-0.0964792
-0.413244
-0.96402
-1.85064
-3.21438
-5.11859
-7.43508
-9.82715
-11.8345
-13.0299
-13.2727
-12.5637
-11.1741
-9.4632
-7.72625
-6.13208
-4.74853
-3.58891
-2.63964
-1.8747
-1.26447
-0.780579
-0.398321
-0.0977762
0.136152
0.313842
0.442064
0.523561
0.557796
0.540541
0.4625
0.307629
0.0516244
-0.341144
-0.923251
-1.78859
-3.05734
-4.74042
-6.60714
-8.14925
-8.87899
-8.53404
-7.21658
-5.50459
-3.57135
-2.29921
-0.553627
-0.881013
-11.1883
-11.3506
-11.5353
-11.7392
-11.9557
-12.1748
-12.3822
-12.558
-12.6766
-12.7082
-12.6219
-12.3925
-12.0081
-11.4782
-10.8374
-10.1456
-9.48098
-8.92812
-8.5645
-8.45129
-8.62598
-9.10303
-9.86977
-10.8865
-12.0897
-13.396
-14.7076
-15.9205
-16.9323
-17.6542
-18.0187
-17.99
-17.5687
-16.7875
-15.7027
-14.3843
-12.9075
-11.3472
-9.77474
-8.25305
-6.83181
-5.54366
-4.40481
-3.41881
-2.58099
-1.88234
-1.31246
-0.861656
-0.522612
-0.291464
-0.169634
-0.164554
-0.293454
-0.589935
-1.10304
-1.91182
-3.1144
-4.74986
-6.71418
-8.74772
-10.4957
-11.6209
-11.9592
-11.499
-10.4209
-9.00553
-7.50555
-6.08151
-4.80974
-3.71615
-2.79934
-2.04364
-1.42754
-0.928771
-0.527123
-0.205871
0.0479208
0.243288
0.386411
0.479829
0.523286
0.5131
0.440955
0.292286
0.0448129
-0.33382
-0.888919
-1.69611
-2.84905
-4.35437
-6.02414
-7.4389
-8.17589
-7.98209
-6.88458
-5.37361
-3.55868
-2.35226
-0.578261
-0.955444
-11.1515
-11.3003
-11.4653
-11.6433
-11.8279
-12.0102
-12.1774
-12.3125
-12.3947
-12.4006
-12.3069
-12.0959
-11.7607
-11.3112
-10.7768
-10.2065
-9.66316
-9.21521
-8.92622
-8.84717
-9.01025
-9.42773
-10.0894
-10.9619
-11.9912
-13.1066
-14.2246
-15.2565
-16.1151
-16.724
-17.025
-16.986
-16.6043
-15.9045
-14.9319
-13.7451
-12.4088
-10.9889
-9.54868
-8.14434
-6.82121
-5.61053
-4.52971
-3.585
-2.77498
-2.0938
-1.53379
-1.08749
-0.749189
-0.516079
-0.389971
-0.378049
-0.495723
-0.771834
-1.24767
-1.98533
-3.05432
-4.4757
-6.16254
-7.90995
-9.4399
-10.479
-10.8748
-10.5934
-9.75997
-8.59384
-7.30609
-6.04163
-4.87845
-3.85083
-2.96721
-2.22112
-1.59879
-1.08408
-0.661529
-0.317879
-0.0425869
0.17196
0.331197
0.437573
0.491139
0.488831
0.423374
0.281749
0.0437875
-0.319768
-0.848279
-1.60319
-2.65737
-4.01414
-5.51988
-6.82922
-7.573
-7.50925
-6.60266
-5.2693
-3.55938
-2.41259
-0.603753
-1.0345
-11.1076
-11.2431
-11.3899
-11.5445
-11.7013
-11.8521
-11.9859
-12.0885
-12.143
-12.1312
-12.036
-11.8449
-11.5547
-11.1752
-10.7314
-10.2632
-9.82129
-9.46102
-9.23424
-9.18308
-9.33479
-9.69958
-10.2691
-11.0152
-11.8925
-12.8406
-13.789
-14.6619
-15.3852
-15.8936
-16.1367
-16.0857
-15.7358
-15.1052
-14.2304
-13.1602
-11.9501
-10.6576
-9.33835
-8.04269
-6.81182
-5.67538
-4.65143
-3.74824
-2.96707
-2.30476
-1.7561
-1.31561
-0.979102
-0.744737
-0.614646
-0.595713
-0.701472
-0.956686
-1.39551
-2.06636
-3.01919
-4.26346
-5.72545
-7.24073
-8.58581
-9.53533
-9.95742
-9.80796
-9.17385
-8.22344
-7.12805
-6.01394
-4.95644
-3.99476
-3.14498
-2.40869
-1.77946
-1.24739
-0.802037
-0.43393
-0.135211
0.100245
0.276975
0.39743
0.462024
0.468396
0.410374
0.276549
0.0489316
-0.298725
-0.800804
-1.50784
-2.47684
-3.70911
-5.07871
-6.30185
-7.05336
-7.10326
-6.36493
-5.19116
-3.5755
-2.48237
-0.631218
-1.11806
-11.0578
-11.1806
-11.3106
-11.4444
-11.5771
-11.7013
-11.8077
-11.8845
-11.9183
-11.8951
-11.8023
-11.6316
-11.382
-11.0631
-10.6961
-10.3134
-9.95603
-9.66855
-9.49308
-9.46415
-9.60447
-9.92243
-10.411
-11.0466
-11.791
-12.593
-13.393
-14.1266
-14.7309
-15.1501
-15.3407
-15.277
-14.9528
-14.3815
-13.5922
-12.6255
-11.5286
-10.3515
-9.14305
-7.94804
-6.80384
-5.73842
-4.76998
-3.9083
-3.15676
-2.51451
-1.97847
-1.54494
-1.21113
-0.976062
-0.842125
-0.815874
-0.908929
-1.14245
-1.5443
-2.15161
-2.99988
-4.0914
-5.36328
-6.68221
-7.86647
-8.73113
-9.16369
-9.11829
-8.6523
-7.89156
-6.97182
-6
-5.04574
-4.15014
-3.33479
-2.60827
-1.97113
-1.41982
-0.949271
-0.554187
-0.229724
0.0286016
0.224387
0.360131
0.436691
0.452515
0.402615
0.277238
0.0606251
-0.270497
-0.746196
-1.40858
-2.30283
-3.42971
-4.68573
-5.83891
-6.60062
-6.75314
-6.16732
-5.14029
-3.61004
-2.56421
-0.662057
-1.20619
-11.0038
-11.1145
-11.2292
-11.3447
-11.4566
-11.5585
-11.6426
-11.6993
-11.7179
-11.6879
-11.6001
-11.4493
-11.2362
-10.9696
-10.6673
-10.3559
-10.0686
-9.84102
-9.7073
-9.69553
-9.82434
-10.1005
-10.5181
-11.0572
-11.6856
-12.3603
-13.0308
-13.6427
-14.1427
-14.483
-14.6265
-14.55
-14.2469
-13.7265
-13.012
-12.1371
-11.1418
-10.0692
-8.96219
-7.86034
-6.7975
-5.79984
-4.8854
-4.06498
-3.34361
-2.72236
-2.19999
-1.77441
-1.44401
-1.20864
-1.07083
-1.03675
-1.11632
-1.3273
-1.69212
-2.23871
-2.9915
-3.94798
-5.05462
-6.20312
-7.24645
-8.03452
-8.47082
-8.51047
-8.18839
-7.59588
-6.8377
-6.00148
-5.14871
-4.3196
-3.5393
-2.82229
-2.17579
-1.60279
-1.10403
-0.678906
-0.325872
-0.0424354
0.174169
0.326501
0.415978
0.441979
0.4008
0.284396
0.0792658
-0.234916
-0.68434
-1.30449
-2.1319
-3.16818
-4.32996
-5.42528
-6.20137
-6.45102
-6.00838
-5.11946
-3.66692
-2.66113
-0.697972
-1.29928
-10.9464
-11.0459
-11.1467
-11.2462
-11.3403
-11.4237
-11.4898
-11.5308
-11.5386
-11.5052
-11.4242
-11.2923
-11.1114
-10.8895
-10.6417
-10.3895
-10.1598
-9.98109
-9.88087
-9.8818
-9.99894
-10.2378
-10.5929
-11.0478
-11.5753
-12.1392
-12.697
-13.2029
-13.6117
-13.8829
-13.9844
-13.8958
-13.61
-13.1335
-12.4848
-11.6915
-10.7874
-9.80954
-8.79525
-7.77958
-6.79302
-5.85989
-4.99779
-4.21812
-3.52721
-2.92765
-2.41979
-2.00291
-1.67649
-1.44103
-1.2992
-1.25666
-1.3219
-1.50951
-1.83725
-2.32573
-2.99096
-3.82724
-4.78916
-5.78922
-6.70908
-7.42837
-7.86397
-7.9737
-7.77591
-7.33407
-6.72599
-6.02029
-5.26813
-4.50636
-3.76181
-3.05379
-2.39594
-1.79807
-1.2673
-0.808379
-0.423411
-0.112229
0.127174
0.29748
0.400813
0.437642
0.405663
0.298605
0.105238
-0.191861
-0.615309
-1.19524
-1.96199
-2.91888
-3.9997
-5.05036
-5.84691
-6.19293
-5.8892
-5.13273
-3.75093
-2.77686
-0.740885
-1.39808
-10.8872
-10.9763
-11.0647
-11.1502
-11.2293
-11.2973
-11.349
-11.3781
-11.3785
-11.344
-11.2706
-11.1563
-11.0037
-10.8198
-10.6174
-10.4141
-10.2313
-10.0921
-10.0182
-10.028
-10.1334
-10.3386
-10.6389
-11.0204
-11.4602
-11.928
-12.3881
-12.8019
-13.1314
-13.3421
-13.4065
-13.3065
-13.0353
-12.597
-12.0061
-11.2854
-10.4632
-9.57116
-8.64173
-7.70577
-6.79065
-5.91882
-5.10725
-4.36763
-3.70719
-3.12978
-2.63703
-2.22942
-1.90732
-1.67185
-1.52571
-1.47402
-1.52404
-1.6875
-1.97819
-2.41094
-2.99561
-3.72452
-4.55943
-5.43001
-6.24118
-6.89838
-7.33008
-7.49815
-7.40901
-7.10387
-6.6371
-6.05859
-5.40731
-4.71438
-4.00642
-3.30661
-2.63475
-2.00792
-1.44041
-0.942983
-0.522103
-0.180059
0.0843759
0.27413
0.392233
0.440439
0.417992
0.320484
0.138965
-0.141148
-0.539162
-1.08082
-1.79205
-2.67868
-3.6912
-4.70813
-5.53273
-5.97783
-5.81253
-5.18535
-3.86812
-2.91617
-0.793353
-1.50354
-10.8263
-10.9059
-10.9834
-11.0567
-11.123
-11.1785
-11.2187
-11.2389
-11.2342
-11.2005
-11.1348
-11.0366
-10.9084
-10.7566
-10.5919
-10.4286
-10.2838
-10.176
-10.1226
-10.1379
-10.2314
-10.4064
-10.6585
-10.976
-11.3398
-11.7245
-12.1001
-12.4343
-12.695
-12.8532
-12.8852
-12.7752
-12.5165
-12.1116
-11.5718
-10.9158
-10.1672
-9.353
-8.50121
-7.63892
-6.79062
-5.97692
-5.21396
-4.51346
-3.88328
-3.32822
-2.85094
-2.45293
-2.13534
-1.89975
-1.74888
-1.68731
-1.72121
-1.85979
-2.11354
-2.49279
-3.00298
-3.63548
-4.35832
-5.11548
-5.83192
-6.4317
-6.85748