/*--------------------------------*- C++ -*----------------------------------*\
  =========                 |
  \\      /  F ield         | OpenFOAM: The Open Source CFD Toolbox
   \\    /   O peration     | Website:  https://openfoam.org
    \\  /    A nd           | Version:  10
     \\/     M anipulation  |
\*---------------------------------------------------------------------------*/
FoamFile
{
    format      ascii;
    class       surfaceScalarField;
    location    "0.16";
    object      phi;
}
// * * * * * * * * * * * * * * * * * * * * * * * * * * * * * * * * * * * * * //

dimensions      [0 3 -1 0 0 0 0];

internalField   nonuniform List<scalar> 
13452
(
4.01929e-05
2.00755e-05
2.59366e-05
1.42563e-05
1.85351e-05
7.40148e-06
1.51654e-05
3.36974e-06
1.37541e-05
1.41131e-06
1.30497e-05
7.0436e-07
1.25999e-05
4.49845e-07
1.22526e-05
3.47278e-07
1.19582e-05
2.94413e-07
1.17046e-05
2.53567e-07
1.14877e-05
2.16952e-07
1.13034e-05
1.8424e-07
1.11477e-05
1.55718e-07
1.10164e-05
1.31341e-07
1.09057e-05
1.10682e-07
1.08125e-05
9.31712e-08
1.07343e-05
7.8264e-08
1.06688e-05
6.55064e-08
1.06142e-05
5.45485e-08
1.05691e-05
4.51381e-08
1.0532e-05
3.71083e-08
1.05016e-05
3.03721e-08
1.04767e-05
2.4913e-08
1.04559e-05
2.07873e-08
1.04378e-05
1.80817e-08
1.04207e-05
1.70806e-08
1.04028e-05
1.78954e-08
1.0381e-05
2.17913e-08
1.03539e-05
2.71358e-08
1.03114e-05
4.24804e-08
1.0263e-05
4.84655e-08
1.01383e-05
1.24657e-07
1.40296e-09
1.01369e-05
6.59034e-05
1.61624e-05
6.19001e-05
1.82596e-05
5.56446e-05
1.3657e-05
4.97837e-05
9.23064e-06
4.52972e-05
5.89782e-06
4.20953e-05
3.90624e-06
3.98011e-05
2.74407e-06
3.81154e-05
2.03298e-06
3.68327e-05
1.57713e-06
3.58218e-05
1.26442e-06
3.50024e-05
1.03639e-06
3.43238e-05
8.62851e-07
3.37529e-05
7.26597e-07
3.32671e-05
6.17077e-07
3.28505e-05
5.27351e-07
3.2491e-05
4.52634e-07
3.21797e-05
3.8954e-07
3.19096e-05
3.35641e-07
3.1675e-05
2.89191e-07
3.14712e-05
2.48935e-07
3.12943e-05
2.13992e-07
3.11409e-05
1.83772e-07
3.10079e-05
1.57928e-07
3.08923e-05
1.36324e-07
3.07914e-05
1.19003e-07
3.07022e-05
1.06324e-07
3.06213e-05
9.87265e-08
3.05455e-05
9.76357e-08
3.04701e-05
1.02564e-07
3.03924e-05
1.20181e-07
3.03035e-05
1.37312e-07
3.02381e-05
1.90054e-07
1.93125e-07
3.00464e-05
6.91814e-05
1.07425e-05
7.25085e-05
1.49324e-05
7.30643e-05
1.31013e-05
7.16944e-05
1.06005e-05
6.9456e-05
8.13624e-06
6.70855e-05
6.27674e-06
6.4866e-05
4.96358e-06
6.2888e-05
4.01094e-06
6.1162e-05
3.30313e-06
5.96658e-05
2.76061e-06
5.83702e-05
2.33203e-06
5.72469e-05
1.98613e-06
5.62709e-05
1.7026e-06
5.54207e-05
1.46727e-06
5.46783e-05
1.26982e-06
5.40283e-05
1.10255e-06
5.34582e-05
9.59631e-07
5.29573e-05
8.3659e-07
5.25165e-05
7.30005e-07
5.21282e-05
6.37255e-07
5.17858e-05
5.56363e-07
5.14837e-05
4.85874e-07
5.12168e-05
4.24777e-07
5.09807e-05
3.72458e-07
5.0771e-05
3.28663e-07
5.05838e-05
2.93586e-07
5.04148e-05
2.67716e-07
5.026e-05
2.52401e-07
5.01143e-05
2.48347e-07
4.99741e-05
2.60376e-07
4.98263e-05
2.85095e-07
4.96744e-05
3.41922e-07
4.15211e-07
4.94523e-05
6.88457e-05
7.47983e-06
7.21605e-05
1.16176e-05
7.45353e-05
1.07265e-05
7.59456e-05
9.19023e-06
7.65244e-05
7.55744e-06
7.65889e-05
6.21224e-06
7.63471e-05
5.20532e-06
7.59248e-05
4.43328e-06
7.54025e-05
3.82545e-06
7.48289e-05
3.33415e-06
7.42348e-05
2.9262e-06
7.364e-05
2.58084e-06
7.30586e-05
2.28404e-06
7.24998e-05
2.02604e-06
7.19693e-05
1.80031e-06
7.14702e-05
1.60166e-06
7.10039e-05
1.42596e-06
7.05706e-05
1.26989e-06
7.01698e-05
1.13081e-06
6.98004e-05
1.00664e-06
6.9461e-05
8.95749e-07
6.915e-05
7.96937e-07
6.88654e-05
7.09377e-07
6.86052e-05
6.32603e-07
6.83674e-05
5.66511e-07
6.81495e-05
5.11433e-07
6.79492e-05
4.68079e-07
6.77637e-05
4.37882e-07
6.75897e-05
4.22359e-07
6.74247e-05
4.25335e-07
6.72612e-05
4.4859e-07
6.71004e-05
5.02776e-07
5.94885e-07
6.69207e-05
6.95588e-05
5.37785e-06
7.18354e-05
9.34095e-06
7.35369e-05
9.02503e-06
7.48071e-05
7.92002e-06
7.56992e-05
6.66538e-06
7.63505e-05
5.56095e-06
7.68471e-05
4.70867e-06
7.72309e-05
4.0495e-06
7.75299e-05
3.52649e-06
7.77625e-05
3.10156e-06
7.79415e-05
2.74719e-06
7.8077e-05
2.4453e-06
7.81764e-05
2.18468e-06
7.82451e-05
1.95729e-06
7.82888e-05
1.75661e-06
7.83125e-05
1.578e-06
7.83204e-05
1.41801e-06
7.83163e-05
1.274e-06
7.83032e-05
1.14394e-06
7.82836e-05
1.02626e-06
7.82595e-05
9.19812e-07
7.82327e-05
8.23779e-07
7.82044e-05
7.37678e-07
7.81756e-05
6.61342e-07
7.81472e-05
5.94926e-07
7.81197e-05
5.38962e-07
7.80934e-05
4.94346e-07
7.80687e-05
4.62545e-07
7.80457e-05
4.45357e-07
7.80252e-05
4.45892e-07
7.80065e-05
4.67307e-07
7.7993e-05
5.16266e-07
5.99457e-07
7.79884e-05
7.08402e-05
3.92167e-06
7.26277e-05
7.5535e-06
7.39352e-05
7.71749e-06
7.48668e-05
6.98842e-06
7.54989e-05
6.03327e-06
7.59508e-05
5.10908e-06
7.63094e-05
4.35e-06
7.66152e-05
3.74371e-06
7.68885e-05
3.25327e-06
7.71389e-05
2.8511e-06
7.73708e-05
2.51527e-06
7.75864e-05
2.2297e-06
7.77878e-05
1.98336e-06
7.79765e-05
1.76851e-06
7.81537e-05
1.57942e-06
7.83201e-05
1.41165e-06
7.84763e-05
1.26181e-06
7.8623e-05
1.12726e-06
7.8761e-05
1.00597e-06
7.88908e-05
8.96399e-07
7.90133e-05
7.97381e-07
7.91289e-05
7.08115e-07
7.92385e-05
6.28106e-07
7.93427e-05
5.57156e-07
7.94423e-05
4.95361e-07
7.95381e-05
4.43133e-07
7.96313e-05
4.01188e-07
7.97231e-05
3.7066e-07
7.98155e-05
3.5295e-07
7.99113e-05
3.50189e-07
8.00141e-05
3.64503e-07
8.01308e-05
3.99472e-07
4.56e-07
8.02743e-05
7.23889e-05
2.89913e-06
7.38416e-05
6.1008e-06
7.49705e-05
6.58857e-06
7.57907e-05
6.16822e-06
7.63517e-05
5.4723e-06
7.67372e-05
4.72355e-06
7.70236e-05
4.06357e-06
7.72531e-05
3.51425e-06
7.7449e-05
3.05737e-06
7.76247e-05
2.67541e-06
7.77872e-05
2.35273e-06
7.79404e-05
2.07655e-06
7.80863e-05
1.83744e-06
7.82263e-05
1.6285e-06
7.83613e-05
1.44444e-06
7.84918e-05
1.28117e-06
7.86181e-05
1.13546e-06
7.87406e-05
1.00479e-06
7.88594e-05
8.87192e-07
7.89746e-05
7.81119e-07
7.90866e-05
6.85409e-07
7.91955e-05
5.99223e-07
7.93016e-05
5.22008e-07
7.94053e-05
4.53478e-07
7.9507e-05
3.93598e-07
7.96076e-05
3.42589e-07
7.97079e-05
3.00896e-07
7.98093e-05
2.69233e-07
7.99138e-05
2.48448e-07
8.00243e-05
2.39696e-07
8.0145e-05
2.43827e-07
8.02824e-05
2.62073e-07
2.92373e-07
8.0446e-05
7.41253e-05
2.17909e-06
7.52931e-05
4.93303e-06
7.62756e-05
5.60604e-06
7.70293e-05
5.41457e-06
7.7577e-05
4.92454e-06
7.79683e-05
4.33225e-06
7.82609e-05
3.77102e-06
7.84921e-05
3.283e-06
7.86845e-05
2.86494e-06
7.88522e-05
2.50772e-06
7.90035e-05
2.20149e-06
7.91432e-05
1.93686e-06
7.92744e-05
1.70625e-06
7.9399e-05
1.50381e-06
7.95186e-05
1.32491e-06
7.96339e-05
1.16587e-06
7.97456e-05
1.02372e-06
7.98543e-05
8.9611e-07
7.99603e-05
7.81164e-07
8.0064e-05
6.77404e-07
8.01658e-05
5.83688e-07
8.02658e-05
4.99166e-07
8.03646e-05
4.23243e-07
8.04625e-05
3.55554e-07
8.05602e-05
2.95935e-07
8.06583e-05
2.44414e-07
8.07581e-05
2.01165e-07
8.08608e-05
1.66493e-07
8.09686e-05
1.40703e-07
8.10841e-05
1.24109e-07
8.12115e-05
1.16513e-07
8.13561e-05
1.17451e-07
1.23657e-07
8.15248e-05
7.60168e-05
1.66479e-06
7.69535e-05
3.99626e-06
7.7803e-05
4.75658e-06
7.84855e-05
4.73203e-06
7.90077e-05
4.4024e-06
7.9398e-05
3.94195e-06
7.96986e-05
3.47041e-06
7.99408e-05
3.04081e-06
8.01442e-05
2.66155e-06
8.03215e-05
2.33037e-06
8.04809e-05
2.04215e-06
8.06272e-05
1.7905e-06
8.07638e-05
1.56962e-06
8.0893e-05
1.3747e-06
8.10161e-05
1.20178e-06
8.11344e-05
1.0476e-06
8.12486e-05
9.09484e-07
8.13594e-05
7.85264e-07
8.14674e-05
6.73181e-07
8.1573e-05
5.71825e-07
8.16766e-05
4.8008e-07
8.17787e-05
3.97089e-07
8.18797e-05
3.22211e-07
8.19803e-05
2.54994e-07
8.20811e-05
1.95144e-07
8.2183e-05
1.42494e-07
8.22872e-05
9.69456e-08
8.23953e-05
5.843e-08
8.25092e-05
2.6763e-08
8.26317e-05
1.58574e-09
8.27663e-05
-1.80552e-08
8.29174e-05
-3.366e-08
-4.87838e-08
8.30899e-05
7.8033e-05
1.29135e-06
7.87844e-05
3.24488e-06
7.95165e-05
4.02444e-06
8.01323e-05
4.11624e-06
8.06254e-05
3.9093e-06
8.10096e-05
3.55777e-06
8.13137e-05
3.16632e-06
8.15628e-05
2.79172e-06
8.17738e-05
2.45052e-06
8.19584e-05
2.14578e-06
8.21243e-05
1.87621e-06
8.22767e-05
1.63818e-06
8.24187e-05
1.42754e-06
8.25529e-05
1.24056e-06
8.26807e-05
1.07397e-06
8.28034e-05
9.24933e-07
8.29218e-05
7.91085e-07
8.30366e-05
6.70437e-07
8.31484e-05
5.61348e-07
8.32578e-05
4.62471e-07
8.33651e-05
3.72714e-07
8.3471e-05
2.91202e-07
8.3576e-05
2.17246e-07
8.36807e-05
1.50304e-07
8.37859e-05
8.99484e-08
8.38926e-05
3.58239e-08
8.40019e-05
-1.24153e-08
8.41155e-05
-5.51624e-08
8.42353e-05
-9.29913e-08
8.43636e-05
-1.26748e-07
8.45034e-05
-1.57863e-07
8.46581e-05
-1.88386e-07
-2.21724e-07
8.48311e-05
8.01546e-05
1.01504e-06
8.07591e-05
2.64042e-06
8.13896e-05
3.39396e-06
8.19444e-05
3.56142e-06
8.24072e-05
3.44652e-06
8.27815e-05
3.18345e-06
8.30857e-05
2.86205e-06
8.33394e-05
2.53805e-06
8.35568e-05
2.23313e-06
8.37482e-05
1.95444e-06
8.39206e-05
1.70374e-06
8.40791e-05
1.47971e-06
8.42269e-05
1.27977e-06
8.43663e-05
1.10116e-06
8.4499e-05
9.41265e-07
8.46262e-05
7.97703e-07
8.47489e-05
6.68385e-07
8.48678e-05
5.51513e-07
8.49836e-05
4.45564e-07
8.50968e-05
3.49256e-07
8.5208e-05
2.6152e-07
8.53178e-05
1.81468e-07
8.54266e-05
1.0836e-07
8.55354e-05
4.15712e-08
8.56448e-05
-1.94516e-08
8.57558e-05
-7.52276e-08
8.58697e-05
-1.26307e-07
8.59879e-05
-1.73338e-07
8.61121e-05
-2.17182e-07
8.62443e-05
-2.58992e-07
8.63869e-05
-3.00441e-07
8.65423e-05
-3.4377e-07
-3.92011e-07
8.67126e-05
8.23692e-05
8.06322e-07
8.28578e-05
2.1518e-06
8.34002e-05
2.85152e-06
8.38991e-05
3.06254e-06
8.43314e-05
3.01425e-06
8.46938e-05
2.82105e-06
8.49966e-05
2.55923e-06
8.52539e-05
2.2807e-06
8.54773e-05
2.00976e-06
8.56754e-05
1.75637e-06
8.58546e-05
1.52454e-06
8.60195e-05
1.31483e-06
8.61732e-05
1.12599e-06
8.63182e-05
9.56166e-07
8.64561e-05
8.03351e-07
8.65882e-05
6.65594e-07
8.67155e-05
5.4109e-07
8.68388e-05
4.28231e-07
8.69588e-05
3.25613e-07
8.7076e-05
2.32019e-07
8.71911e-05
1.46406e-07
8.73047e-05
6.78738e-08
8.74174e-05
-4.3612e-09
8.753e-05
-7.0998e-08
8.76432e-05
-1.32689e-07
8.77581e-05
-1.90087e-07
8.78757e-05
-2.43903e-07
8.79973e-05
-2.94965e-07
8.81245e-05
-3.44311e-07
8.82587e-05
-3.93255e-07
8.84018e-05
-4.43528e-07
8.85554e-05
-4.97333e-07
-5.57228e-07
8.87206e-05
8.46688e-05
6.45259e-07
8.50666e-05
1.75407e-06
8.55336e-05
2.38444e-06
8.5982e-05
2.61423e-06
8.63845e-05
2.61169e-06
8.67334e-05
2.4722e-06
8.70327e-05
2.25992e-06
8.7292e-05
2.02142e-06
8.75201e-05
1.78164e-06
8.77242e-05
1.55226e-06
8.79099e-05
1.33888e-06
8.80812e-05
1.14349e-06
8.82413e-05
9.6595e-07
8.83922e-05
8.05201e-07
8.85358e-05
6.59798e-07
8.86732e-05
5.28177e-07
8.88055e-05
4.08801e-07
8.89335e-05
3.00242e-07
8.90579e-05
2.01208e-07
8.91793e-05
1.10548e-07
8.92985e-05
2.7243e-08
8.9416e-05
-4.96113e-08
8.95325e-05
-1.2083e-07
8.96486e-05
-1.87168e-07
8.97653e-05
-2.49359e-07
8.98834e-05
-3.08151e-07
9.00038e-05
-3.64363e-07
9.01278e-05
-4.18928e-07
9.02564e-05
-4.72967e-07
9.0391e-05
-5.27834e-07
9.05327e-05
-5.85188e-07
9.06824e-05
-6.47055e-07
-7.15492e-07
9.08407e-05
8.70491e-05
5.18288e-07
8.73757e-05
1.42747e-06
8.77788e-05
1.98135e-06
8.81817e-05
2.21131e-06
8.85558e-05
2.23759e-06
8.88902e-05
2.13785e-06
8.91845e-05
1.96558e-06
8.94445e-05
1.76145e-06
8.96765e-05
1.54961e-06
8.98862e-05
1.34258e-06
9.00782e-05
1.14694e-06
9.0256e-05
9.65682e-07
9.04224e-05
7.99548e-07
9.05794e-05
6.48129e-07
9.07288e-05
5.10457e-07
9.08716e-05
3.85313e-07
9.1009e-05
2.71402e-07
9.11418e-05
1.67463e-07
9.12707e-05
7.23113e-08
9.13964e-05
-1.51391e-08
9.15195e-05
-9.58771e-08
9.16407e-05
-1.70804e-07
9.17606e-05
-2.40755e-07
9.188e-05
-3.06525e-07
9.19995e-05
-3.68898e-07
9.21201e-05
-4.28681e-07
9.22425e-05
-4.86749e-07
9.23676e-05
-5.44077e-07
9.24964e-05
-6.01791e-07
9.26298e-05
-6.61193e-07
9.27684e-05
-7.23791e-07
9.29127e-05
-7.91357e-07
-8.6547e-07
9.30627e-05
8.95077e-05
4.16089e-07
8.97787e-05
1.15646e-06
9.0128e-05
1.63208e-06
9.04907e-05
1.84864e-06
9.08382e-05
1.89008e-06
9.11578e-05
1.81823e-06
9.14462e-05
1.67723e-06
9.17057e-05
1.5019e-06
9.19407e-05
1.31465e-06
9.21552e-05
1.12806e-06
9.2353e-05
9.49197e-07
9.25369e-05
7.81688e-07
9.27096e-05
6.26909e-07
9.28728e-05
4.84961e-07
9.30279e-05
3.55271e-07
9.31763e-05
2.3691e-07
9.33189e-05
1.28797e-07
9.34566e-05
2.98165e-08
9.359e-05
-6.11159e-08
9.37199e-05
-1.45025e-07
9.38469e-05
-2.22867e-07
9.39716e-05
-2.95533e-07
9.40947e-05
-3.63865e-07
9.42169e-05
-4.28677e-07
9.43388e-05
-4.90777e-07
9.44611e-05
-5.50995e-07
9.45845e-05
-6.10217e-07
9.47099e-05
-6.69406e-07
9.48377e-05
-7.29634e-07
9.49686e-05
-7.9209e-07
9.51029e-05
-8.58084e-07
9.52407e-05
-9.29103e-07
-1.00629e-06
9.53815e-05
9.20438e-05
3.32158e-07
9.22714e-05
9.28868e-07
9.25758e-05
1.32765e-06
9.29032e-05
1.52123e-06
9.32263e-05
1.56696e-06
9.35315e-05
1.51304e-06
9.38133e-05
1.39548e-06
9.40716e-05
1.24357e-06
9.43088e-05
1.07746e-06
9.45276e-05
9.09212e-07
9.47309e-05
7.45966e-07
9.49209e-05
5.91657e-07
9.50997e-05
4.4807e-07
9.5269e-05
3.15672e-07
9.54301e-05
1.94187e-07
9.55841e-05
8.29175e-08
9.57319e-05
-1.90443e-08
9.58744e-05
-1.12688e-07
9.60123e-05
-1.99012e-07
9.61463e-05
-2.78984e-07
9.6277e-05
-3.53525e-07
9.64049e-05
-4.23509e-07
9.65308e-05
-4.89773e-07
9.66553e-05
-5.53127e-07
9.67789e-05
-6.1438e-07
9.69023e-05
-6.74353e-07
9.70259e-05
-7.33905e-07
9.71505e-05
-7.93945e-07
9.72763e-05
-8.55451e-07
9.74037e-05
-9.19464e-07
9.75327e-05
-9.87075e-07
9.76631e-05
-1.05948e-06
-1.13746e-06
9.77942e-05
9.46574e-05
2.61877e-07
9.48511e-05
7.35178e-07
9.51185e-05
1.06024e-06
9.54155e-05
1.22431e-06
9.57167e-05
1.26576e-06
9.60082e-05
1.22145e-06
9.62833e-05
1.12041e-06
9.654e-05
9.86908e-07
9.67789e-05
8.38544e-07
9.70016e-05
6.86482e-07
9.721e-05
5.37579e-07
9.74059e-05
3.95814e-07
9.75908e-05
2.63169e-07
9.77661e-05
1.40337e-07
9.7933e-05
2.72418e-08
9.80926e-05
-7.66446e-08
9.82457e-05
-1.72097e-07
9.8393e-05
-2.60007e-07
9.85353e-05
-3.41298e-07
9.86732e-05
-4.16887e-07
9.88073e-05
-4.87661e-07
9.89383e-05
-5.5447e-07
9.90666e-05
-6.1813e-07
9.91929e-05
-6.79435e-07
9.93177e-05
-7.39171e-07
9.94415e-05
-7.98123e-07
9.95647e-05
-8.57096e-07
9.96876e-05
-9.16916e-07
9.98106e-05
-9.78441e-07
9.99337e-05
-1.04255e-06
0.000100057
-1.11011e-06
0.000100179
-1.18204e-06
-1.25882e-06
0.000100301
9.73495e-05
2.01896e-07
9.75168e-05
5.67909e-07
9.77539e-05
8.23082e-07
9.80249e-05
9.53319e-07
9.83069e-05
9.83817e-07
9.85861e-05
9.42258e-07
9.88547e-05
8.51714e-07
9.91096e-05
7.32017e-07
9.935e-05
5.98162e-07
9.95764e-05
4.60122e-07
9.97897e-05
3.24226e-07
9.99913e-05
1.94273e-07
0.000100182
7.22573e-08
0.000100364
-4.1035e-08
0.000100536
-1.45571e-07
0.000100701
-2.41777e-07
0.00010086
-3.30339e-07
0.000101012
-4.12076e-07
0.000101158
-4.87858e-07
0.0001013
-5.58558e-07
0.000101437
-6.25029e-07
0.000101571
-6.88092e-07
0.000101701
-7.48535e-07
0.000101829
-8.07119e-07
0.000101955
-8.64589e-07
0.000102078
-9.21678e-07
0.0001022
-9.79113e-07
0.000102321
-1.03762e-06
0.00010244
-1.09793e-06
0.000102558
-1.16074e-06
0.000102675
-1.22673e-06
0.00010279
-1.29657e-06
-1.37048e-06
0.000102901
0.000100121
1.49724e-07
0.000100268
4.21138e-07
0.000100481
6.10317e-07
0.00010073
7.0397e-07
0.000100996
7.18345e-07
0.000101264
6.73888e-07
0.000101527
5.88671e-07
0.00010178
4.78634e-07
0.000102022
3.56254e-07
0.000102252
2.30149e-07
0.000102471
1.05933e-07
0.000102678
-1.29623e-08
0.000102875
-1.24683e-07
0.000103062
-2.28472e-07
0.000103241
-3.2428e-07
0.000103412
-4.12493e-07
0.000103575
-4.93755e-07
0.000103732
-5.68846e-07
0.000103883
-6.38596e-07
0.000104028
-7.03848e-07
0.000104168
-7.6542e-07
0.000104304
-8.24103e-07
0.000104436
-8.80648e-07
0.000104565
-9.35776e-07
0.000104691
-9.90177e-07
0.000104813
-1.04452e-06
0.000104934
-1.09943e-06
0.000105052
-1.15555e-06
0.000105167
-1.21345e-06
0.00010528
-1.27369e-06
0.00010539
-1.33674e-06
0.000105497
-1.40308e-06
-1.47271e-06
0.000105599
0.000102974
1.03456e-07
0.000103105
2.90121e-07
0.000103299
4.16865e-07
0.000103531
4.72211e-07
0.000103782
4.66464e-07
0.000104042
4.14486e-07
0.0001043
3.30196e-07
0.000104553
2.26162e-07
0.000104797
1.12498e-07
0.00010503
-3.61606e-09
0.000105254
-1.17415e-07
0.000105467
-2.25976e-07
0.00010567
-3.27718e-07
0.000105863
-4.22026e-07
0.000106048
-5.08913e-07
0.000106224
-5.88791e-07
0.000106393
-6.62308e-07
0.000106554
-7.30231e-07
0.000106709
-7.93376e-07
0.000106858
-8.52562e-07
0.000107001
-9.08581e-07
0.000107139
-9.62191e-07
0.000107272
-1.0141e-06
0.000107402
-1.06499e-06
0.000107527
-1.11549e-06
0.000107649
-1.16617e-06
0.000107767
-1.2176e-06
0.000107881
-1.27028e-06
0.000107993
-1.32467e-06
0.0001081
-1.38118e-06
0.000108203
-1.44011e-06
0.000108302
-1.50178e-06
-1.56604e-06
0.000108396
0.000105911
6.15947e-08
0.00010603
1.70976e-07
0.000106208
2.38274e-07
0.000106426
2.54199e-07
0.000106668
2.25201e-07
0.00010692
1.61908e-07
0.000107176
7.48164e-08
0.000107428
-2.64023e-08
0.000107674
-1.3382e-07
0.000107913
-2.41706e-07
0.000108141
-3.46247e-07
0.000108361
-4.45128e-07
0.00010857
-5.37159e-07
0.00010877
-6.21957e-07
0.000108961
-6.99683e-07
0.000109143
-7.70832e-07
0.000109316
-8.36098e-07
0.000109483
-8.96271e-07
0.000109641
-9.52171e-07
0.000109793
-1.00461e-06
0.000109939
-1.05436e-06
0.000110079
-1.10214e-06
0.000110214
-1.14864e-06
0.000110343
-1.19446e-06
0.000110468
-1.24018e-06
0.000110588
-1.2863e-06
0.000110704
-1.33329e-06
0.000110815
-1.38154e-06
0.000110922
-1.4314e-06
0.000111024
-1.48314e-06
0.00011112
-1.53693e-06
0.000111212
-1.59294e-06
-1.65091e-06
0.000111296
0.000108932
2.29155e-08
0.000109043
6.04519e-08
0.00010921
7.05796e-08
0.000109418
4.62578e-08
0.000109652
-8.49561e-09
0.0001099
-8.62213e-08
0.000110154
-1.79231e-07
0.000110408
-2.80344e-07
0.000110658
-3.83636e-07
0.000110901
-4.84814e-07
0.000111136
-5.81074e-07
0.000111361
-6.70802e-07
0.000111578
-7.53287e-07
0.000111784
-8.28468e-07
0.000111981
-8.96718e-07
0.000112169
-9.58675e-07
0.000112348
-1.01512e-06
0.000112519
-1.0669e-06
0.000112681
-1.11486e-06
0.000112837
-1.15982e-06
0.000112985
-1.20253e-06
0.000113126
-1.2437e-06
0.000113262
-1.28396e-06
0.000113391
-1.32387e-06
0.000113515
-1.36395e-06
0.000113633
-1.40461e-06
0.000113746
-1.44625e-06
0.000113854
-1.48915e-06
0.000113956
-1.53356e-06
0.000114052
-1.57964e-06
0.000114143
-1.62745e-06
0.000114227
-1.67705e-06
-1.72811e-06
0.000114304
0.000112041
-1.36255e-08
0.000112146
-4.42814e-08
0.000112306
-8.98636e-08
0.000112508
-1.55236e-07
0.000112737
-2.3786e-07
0.000112983
-3.32644e-07
0.000113238
-4.34199e-07
0.000113496
-5.37506e-07
0.00011375
-6.3847e-07
0.000114
-7.34209e-07
0.000114242
-8.22969e-07
0.000114475
-9.03905e-07
0.000114698
-9.76868e-07
0.000114912
-1.04219e-06
0.000115116
-1.10053e-06
0.00011531
-1.15272e-06
0.000115495
-1.19968e-06
0.00011567
-1.24232e-06
0.000115837
-1.28155e-06
0.000115995
-1.3182e-06
0.000116146
-1.35303e-06
0.000116289
-1.38672e-06
0.000116425
-1.41988e-06
0.000116554
-1.45302e-06
0.000116676
-1.48657e-06
0.000116793
-1.52091e-06
0.000116903
-1.55631e-06
0.000117006
-1.59301e-06
0.000117104
-1.63114e-06
0.000117195
-1.67077e-06
0.00011728
-1.71188e-06
0.000117357
-1.75442e-06
-1.79801e-06
0.000117427
0.00011524
-4.89556e-08
0.000115341
-1.45778e-07
0.000115498
-2.46482e-07
0.000115697
-3.53855e-07
0.000115925
-4.66218e-07
0.000116173
-5.80258e-07
0.000116431
-6.92503e-07
0.000116693
-7.9984e-07
0.000116955
-8.99876e-07
0.000117211
-9.91116e-07
0.000117461
-1.07289e-06
0.000117703
-1.14518e-06
0.000117934
-1.20847e-06
0.000118156
-1.26356e-06
0.000118367
-1.31144e-06
0.000118567
-1.35318e-06
0.000118757
-1.38987e-06
0.000118937
-1.42256e-06
0.000119108
-1.4522e-06
0.00011927
-1.47967e-06
0.000119422
-1.50574e-06
0.000119567
-1.53107e-06
0.000119703
-1.55624e-06
0.000119832
-1.58172e-06
0.000119953
-1.60789e-06
0.000120067
-1.63504e-06
0.000120174
-1.66341e-06
0.000120274
-1.69312e-06
0.000120367
-1.72425e-06
0.000120453
-1.75678e-06
0.000120532
-1.79063e-06
0.000120603
-1.8257e-06
-1.86158e-06
0.000120667
0.000118531
-8.39594e-08
0.000118632
-2.46515e-07
0.000118788
-4.0275e-07
0.000118987
-5.53459e-07
0.000119219
-6.97429e-07
0.000119471
-8.32716e-07
0.000119736
-9.57482e-07
0.000120007
-1.07033e-06
0.000120277
-1.17049e-06
0.000120544
-1.25783e-06
0.000120804
-1.33281e-06
0.000121055
-1.3963e-06
0.000121296
-1.44949e-06
0.000121526
-1.4937e-06
0.000121745
-1.53033e-06
0.000121953
-1.56074e-06
0.000122149
-1.58622e-06
0.000122334
-1.60797e-06
0.000122509
-1.62702e-06
0.000122674
-1.64432e-06
0.000122829
-1.66064e-06
0.000122974
-1.67665e-06
0.000123111
-1.6929e-06
0.000123239
-1.70982e-06
0.000123359
-1.72773e-06
0.000123471
-1.74688e-06
0.000123575
-1.76742e-06
0.000123671
-1.78943e-06
0.00012376
-1.8129e-06
0.000123841
-1.83776e-06
0.000123914
-1.86386e-06
0.000123979
-1.89104e-06
-1.91887e-06
0.000124037
0.000121917
-1.19505e-07
0.000122019
-3.48929e-07
0.000122179
-5.62109e-07
0.000122383
-7.57877e-07
0.000122621
-9.3527e-07
0.000122882
-1.09349e-06
0.000123156
-1.23217e-06
0.000123438
-1.35156e-06
0.00012372
-1.45245e-06
0.000123998
-1.53612e-06
0.000124269
-1.60418e-06
0.000124531
-1.65846e-06
0.000124783
-1.7009e-06
0.000125022
-1.73342e-06
0.00012525
-1.75786e-06
0.000125465
-1.77592e-06
0.000125668
-1.78913e-06
0.000125859
-1.79884e-06
0.000126038
-1.80623e-06
0.000126206
-1.81228e-06
0.000126363
-1.81782e-06
0.00012651
-1.82351e-06
0.000126647
-1.82987e-06
0.000126775
-1.8373e-06
0.000126893
-1.8461e-06
0.000127003
-1.85644e-06
0.000127104
-1.86843e-06
0.000127196
-1.88208e-06
0.000127281
-1.89733e-06
0.000127357
-1.91406e-06
0.000127425
-1.93208e-06
0.000127485
-1.95122e-06
-1.97102e-06
0.000127537
0.000125401
-1.56599e-07
0.000125507
-4.55864e-07
0.000125674
-7.28772e-07
0.000125888
-9.72141e-07
0.000126138
-1.18515e-06
0.000126413
-1.36802e-06
0.000126702
-1.52179e-06
0.000126999
-1.64833e-06
0.000127297
-1.75005e-06
0.00012759
-1.8297e-06
0.000127876
-1.89013e-06
0.000128152
-1.93424e-06
0.000128416
-1.96478e-06
0.000128667
-1.98433e-06
0.000128904
-1.99524e-06
0.000129128
-1.99958e-06
0.000129338
-1.99917e-06
0.000129535
-1.99554e-06
0.000129718
-1.98999e-06
0.00012989
-1.98359e-06
0.000130049
-1.97719e-06
0.000130197
-1.97146e-06
0.000130334
-1.96693e-06
0.000130461
-1.96394e-06
0.000130577
-1.96276e-06
0.000130684
-1.96351e-06
0.000130782
-1.96624e-06
0.000130871
-1.97091e-06
0.000130951
-1.97741e-06
0.000131023
-1.98558e-06
0.000131086
-1.99518e-06
0.000131141
-2.00598e-06
-2.01752e-06
0.000131187
0.000128985
-1.96203e-07
0.000129099
-5.70076e-07
0.000129277
-9.06603e-07
0.000129505
-1.20053e-06
0.000129771
-1.45129e-06
0.000130063
-1.66022e-06
0.000130372
-1.82987e-06
0.000130687
-1.9638e-06
0.000131003
-2.06613e-06
0.000131315
-2.14112e-06
0.000131617
-2.19298e-06
0.000131909
-2.2257e-06
0.000132187
-2.24297e-06
0.000132451
-2.24806e-06
0.000132699
-2.2439e-06
0.000132933
-2.23296e-06
0.000133151
-2.21738e-06
0.000133354
-2.19891e-06
0.000133543
-2.17899e-06
0.000133719
-2.15878e-06
0.000133881
-2.13917e-06
0.00013403
-2.12086e-06
0.000134167
-2.10434e-06
0.000134293
-2.08994e-06
0.000134408
-2.07788e-06
0.000134513
-2.06825e-06
0.000134608
-2.06104e-06
0.000134693
-2.05616e-06
0.000134769
-2.05347e-06
0.000134837
-2.05275e-06
0.000134895
-2.05376e-06
0.000134945
-2.05625e-06
-2.05977e-06
0.000134988
0.000132673
-2.40013e-07
0.000132799
-6.96205e-07
0.000132995
-1.10259e-06
0.000133246
-1.45154e-06
0.000133538
-1.7429e-06
0.000133857
-1.97929e-06
0.000134192
-2.16497e-06
0.000134534
-2.30552e-06
0.000134874
-2.40704e-06
0.000135209
-2.47555e-06
0.000135533
-2.51677e-06
0.000135843
-2.53592e-06
0.000136138
-2.53769e-06
0.000136416
-2.52616e-06
0.000136677
-2.50482e-06
0.00013692
-2.47663e-06
0.000137147
-2.44401e-06
0.000137357
-2.40896e-06
0.000137551
-2.37306e-06
0.00013773
-2.33755e-06
0.000137894
-2.30338e-06
0.000138044
-2.27124e-06
0.000138182
-2.24162e-06
0.000138307
-2.21481e-06
0.00013842
-2.19099e-06
0.000138522
-2.1702e-06
0.000138613
-2.15238e-06
0.000138694
-2.1374e-06
0.000138766
-2.12506e-06
0.000138828
-2.1151e-06
0.000138882
-2.10722e-06
0.000138926
-2.10114e-06
-2.09636e-06
0.000138963
0.000136467
-2.88868e-07
0.000136608
-8.37133e-07
0.000136826
-1.32047e-06
0.000137103
-1.72907e-06
0.000137424
-2.0639e-06
0.000137774
-2.32929e-06
0.000138141
-2.53144e-06
0.000138514
-2.67813e-06
0.000138884
-2.77762e-06
0.000139246
-2.83786e-06
0.000139596
-2.86622e-06
0.000139929
-2.86934e-06
0.000140245
-2.85303e-06
0.000140541
-2.82225e-06
0.000140817
-2.78118e-06
0.000141074
-2.73326e-06
0.000141311
-2.68129e-06
0.00014153
-2.62751e-06
0.00014173
-2.57366e-06
0.000141914
-2.52107e-06
0.000142081
-2.47072e-06
0.000142233
-2.42331e-06
0.000142371
-2.37931e-06
0.000142495
-2.33898e-06
0.000142606
-2.30243e-06
0.000142706
-2.26966e-06
0.000142794
-2.24056e-06
0.000142872
-2.21494e-06
0.000142939
-2.19256e-06
0.000142997
-2.17313e-06
0.000143046
-2.15632e-06
0.000143087
-2.14185e-06
-2.12919e-06
0.00014312
0.000140374
-3.47424e-07
0.000140541
-1.00409e-06
0.000140797
-1.57615e-06
0.000141119
-2.05105e-06
0.000141487
-2.43193e-06
0.000141884
-2.72584e-06
0.000142294
-2.942e-06
0.000142707
-3.09134e-06
0.000143115
-3.18485e-06
0.000143509
-3.23277e-06
0.000143888
-3.24433e-06
0.000144246
-3.22767e-06
0.000144583
-3.18978e-06
0.000144897
-3.13651e-06
0.000145188
-3.07272e-06
0.000145457
-3.00235e-06
0.000145705
-2.92855e-06
0.000145931
-2.85379e-06
0.000146137
-2.77996e-06
0.000146325
-2.70847e-06
0.000146494
-2.64032e-06
0.000146647
-2.5762e-06
0.000146784
-2.51655e-06
0.000146907
-2.46158e-06
0.000147016
-2.41135e-06
0.000147112
-2.36579e-06
0.000147196
-2.32473e-06
0.000147269
-2.28791e-06
0.000147332
-2.25505e-06
0.000147384
-2.2258e-06
0.000147428
-2.19976e-06
0.000147463
-2.17658e-06
-2.15568e-06
0.000147489
0.000144391
-4.13514e-07
0.000144583
-1.19597e-06
0.000144875
-1.86851e-06
0.000145242
-2.41777e-06
0.00014566
-2.8503e-06
0.00014611
-3.17577e-06
0.000146574
-3.4064e-06
0.00014704
-3.55673e-06
0.000147496
-3.64108e-06
0.000147936
-3.67247e-06
0.000148354
-3.66247e-06
0.000148747
-3.62107e-06
0.000149114
-3.55671e-06
0.000149454
-3.4763e-06
0.000149767
-3.3855e-06
0.000150053
-3.28879e-06
0.000150314
-3.18967e-06
0.000150551
-3.09086e-06
0.000150766
-2.99435e-06
0.000150959
-2.90161e-06
0.000151132
-2.81363e-06
0.000151287
-2.73107e-06
0.000151425
-2.65428e-06
0.000151547
-2.58341e-06
0.000151654
-2.51843e-06
0.000151747
-2.4592e-06
0.000151828
-2.40548e-06
0.000151897
-2.35694e-06
0.000151955
-2.31324e-06
0.000152003
-2.27399e-06
0.000152042
-2.23876e-06
0.000152073
-2.20719e-06
-2.17865e-06
0.000152096
0.000148541
-5.06541e-07
0.000148794
-1.44944e-06
0.000149166
-2.24024e-06
0.000149616
-2.86759e-06
0.000150114
-3.34811e-06
0.000150636
-3.69799e-06
0.000151165
-3.93504e-06
0.000151687
-4.07872e-06
0.000152193
-4.14697e-06
0.000152676
-4.15556e-06
0.000153132
-4.11834e-06
0.000153558
-4.04706e-06
0.000153952
-3.9515e-06
0.000154316
-3.8396e-06
0.000154648
-3.71777e-06
0.00015495
-3.59103e-06
0.000155224
-3.46324e-06
0.00015547
-3.33731e-06
0.000155691
-3.21538e-06
0.000155888
-3.09893e-06
0.000156064
-2.98895e-06
0.000156219
-2.88603e-06
0.000156355
-2.79044e-06
0.000156474
-2.70223e-06
0.000156577
-2.62127e-06
0.000156665
-2.54732e-06
0.000156739
-2.48004e-06
0.000156801
-2.41904e-06
0.000156852
-2.36388e-06
0.000156892
-2.31411e-06
0.000156923
-2.26923e-06
0.000156944
-2.22878e-06
-2.19203e-06
0.000156958
0.000152785
-6.01975e-07
0.000153074
-1.73897e-06
0.000153507
-2.67323e-06
0.00015404
-3.4003e-06
0.000154635
-3.9434e-06
0.00015526
-4.32272e-06
0.000155888
-4.56359e-06
0.000156503
-4.69324e-06
0.000157091
-4.73533e-06
0.000157646
-4.70995e-06
0.000158162
-4.63426e-06
0.000158637
-4.52244e-06
0.000159071
-4.38597e-06
0.000159466
-4.23397e-06
0.000159822
-4.07361e-06
0.000160141
-3.9104e-06
0.000160426
-3.74846e-06
0.00016068
-3.59084e-06
0.000160904
-3.43964e-06
0.000161101
-3.2963e-06
0.000161274
-3.16169e-06
0.000161424
-3.03624e-06
0.000161554
-2.92007e-06
0.000161665
-2.81307e-06
0.000161758
-2.71496e-06
0.000161836
-2.62535e-06
0.0001619
-2.5438e-06
0.000161951
-2.46981e-06
0.00016199
-2.40288e-06
0.000162018
-2.34251e-06
0.000162037
-2.28819e-06
0.000162048
-2.23947e-06
-2.19551e-06
0.000162052
0.000157246
-7.96462e-07
0.000157696
-2.18921e-06
0.000158288
-3.26487e-06
0.000158954
-4.06652e-06
0.000159659
-4.64848e-06
0.000160375
-5.03828e-06
0.00016108
-5.26866e-06
0.00016176
-5.37301e-06
0.000162403
-5.37914e-06
0.000163004
-5.31084e-06
0.000163558
-5.18839e-06
0.000164064
-5.02841e-06
0.000164522
-4.84412e-06
0.000164934
-4.64595e-06
0.000165303
-4.44189e-06
0.00016563
-4.23791e-06
0.00016592
-4.03838e-06
0.000166176
-3.84637e-06
0.0001664
-3.66393e-06
0.000166596
-3.49232e-06
0.000166767
-3.3322e-06
0.000166914
-3.18376e-06
0.000167041
-3.04689e-06
0.000167149
-2.92125e-06
0.00016724
-2.80632e-06
0.000167317
-2.70153e-06
0.000167379
-2.60625e-06
0.000167429
-2.51987e-06
0.000167468
-2.4418e-06
0.000167497
-2.37146e-06
0.000167517
-2.30838e-06
0.00016753
-2.25205e-06
-2.20162e-06
0.000167536
0.000161692
-9.50184e-07
0.000162215
-2.71182e-06
0.000162954
-4.00455e-06
0.000163818
-4.93005e-06
0.000164729
-5.55942e-06
0.000165631
-5.94041e-06
0.000166495
-6.13309e-06
0.000167309
-6.18697e-06
0.000168068
-6.13762e-06
0.000168771
-6.01349e-06
0.00016942
-5.83734e-06
0.000170018
-5.62671e-06
0.000170569
-5.39512e-06
0.000171076
-5.15292e-06
0.000171542
-4.90791e-06
0.00017197
-4.66586e-06
0.000172362
-4.43095e-06
0.000172722
-4.20611e-06
0.000173051
-3.99323e-06
0.000173353
-3.79346e-06
0.000173628
-3.60732e-06
0.000173879
-3.43488e-06
0.000174108
-3.27587e-06
0.000174316
-3.1298e-06
0.000174506
-2.99602e-06
0.000174678
-2.87381e-06
0.000174834
-2.76243e-06
0.000174976
-2.66117e-06
0.000175103
-2.56946e-06
0.000175219
-2.48676e-06
0.000175323
-2.41291e-06
0.000175419
-2.3475e-06
-2.29077e-06
0.000175508
0.00016669
-1.48621e-06
0.000167547
-3.56968e-06
0.000168491
-4.9476e-06
0.000169511
-5.95011e-06
0.000170609
-6.65803e-06
0.000171766
-7.09767e-06
0.000172963
-7.33002e-06
0.000174178
-7.40122e-06
0.000175385
-7.34524e-06
0.000176565
-7.19307e-06
0.000177699
-6.97143e-06
0.000178774
-6.70224e-06
0.000179783
-6.40324e-06
0.000180718
-6.08846e-06
0.000181579
-5.76878e-06