/*--------------------------------*- C++ -*----------------------------------*\
  =========                 |
  \\      /  F ield         | OpenFOAM: The Open Source CFD Toolbox
   \\    /   O peration     | Website:  https://openfoam.org
    \\  /    A nd           | Version:  10
     \\/     M anipulation  |
\*---------------------------------------------------------------------------*/
FoamFile
{
    format      ascii;
    class       volVectorField;
    location    "0.16";
    object      U;
}
// * * * * * * * * * * * * * * * * * * * * * * * * * * * * * * * * * * * * * //

dimensions      [0 1 -1 0 0 0 0];

internalField   nonuniform List<vector> 
6820
(
(5.57355 0.459155 0)
(3.88298 0.245929 0)
(2.58917 0.00881404 0)
(1.95725 -0.0641687 0)
(1.73193 -0.0594742 0)
(1.62084 -0.0340103 0)
(1.55597 -0.0153521 0)
(1.51014 -0.0052828 0)
(1.4717 -0.000689007 0)
(1.4385 0.000817555 0)
(1.40999 0.000876479 0)
(1.3857 0.000372831 0)
(1.36514 -0.000284383 0)
(1.34778 -0.000914298 0)
(1.33315 -0.00144712 0)
(1.32082 -0.00186689 0)
(1.31045 -0.00218125 0)
(1.30176 -0.00240562 0)
(1.2945 -0.0025558 0)
(1.28847 -0.00264516 0)
(1.2835 -0.00268391 0)
(1.27943 -0.00267892 0)
(1.2761 -0.00263407 0)
(1.27336 -0.00254971 0)
(1.27103 -0.00242598 0)
(1.26896 -0.0022578 0)
(1.26686 -0.00205021 0)
(1.26463 -0.00174523 0)
(1.26146 -0.00142859 0)
(1.25837 -0.000593385 0)
(1.25013 -0.000497351 0)
(1.24966 0.00577872 0)
(1.20914 -0.0134893 0)
(7.6698 0.863914 0)
(7.71725 0.890822 0)
(7.00009 0.598442 0)
(6.19763 0.347507 0)
(5.58445 0.179556 0)
(5.14005 0.0930338 0)
(4.82341 0.0526504 0)
(4.59512 0.0341487 0)
(4.42416 0.0256616 0)
(4.29128 0.0213307 0)
(4.18474 0.0186851 0)
(4.09723 0.0167852 0)
(4.02405 0.0152577 0)
(3.96205 0.0139394 0)
(3.90903 0.0127482 0)
(3.86339 0.0116423 0)
(3.82392 0.0106013 0)
(3.78969 0.0096165 0)
(3.75996 0.00868558 0)
(3.73414 0.00781061 0)
(3.71171 0.00699735 0)
(3.69226 0.00625559 0)
(3.67539 0.00559965 0)
(3.66076 0.00504874 0)
(3.64803 0.00462604 0)
(3.63687 0.00437534 0)
(3.6269 0.00433528 0)
(3.61775 0.00463841 0)
(3.6089 0.00519513 0)
(3.60007 0.00669413 0)
(3.59009 0.00770512 0)
(3.58079 0.012568 0)
(3.56888 0.0129314 0)
(7.56352 0.520326 0)
(8.22517 0.663586 0)
(8.46484 0.576181 0)
(8.36408 0.458596 0)
(8.12857 0.34448 0)
(7.85221 0.259561 0)
(7.58276 0.199862 0)
(7.34004 0.15699 0)
(7.12736 0.125785 0)
(6.94274 0.102553 0)
(6.78293 0.0848043 0)
(6.6445 0.0709566 0)
(6.52437 0.0599654 0)
(6.41984 0.0511175 0)
(6.32867 0.0438969 0)
(6.24894 0.037919 0)
(6.17907 0.0328984 0)
(6.11772 0.0286249 0)
(6.06377 0.0249449 0)
(6.01626 0.0217471 0)
(5.97439 0.0189537 0)
(5.93745 0.0165136 0)
(5.90485 0.0143987 0)
(5.87603 0.012602 0)
(5.8505 0.0111373 0)
(5.82778 0.0100456 0)
(5.80739 0.00938752 0)
(5.7889 0.00928691 0)
(5.77175 0.00981075 0)
(5.75544 0.0113828 0)
(5.73922 0.013569 0)
(5.72196 0.0181514 0)
(5.7031 0.0217569 0)
(7.43337 0.341106 0)
(7.88464 0.514522 0)
(8.2433 0.489632 0)
(8.44185 0.429813 0)
(8.54155 0.358576 0)
(8.57172 0.297978 0)
(8.55694 0.25186 0)
(8.51683 0.216348 0)
(8.46242 0.188431 0)
(8.40014 0.165847 0)
(8.33418 0.147005 0)
(8.26727 0.130945 0)
(8.20118 0.117043 0)
(8.13722 0.104862 0)
(8.0762 0.0941092 0)
(8.01856 0.0845691 0)
(7.96454 0.0760655 0)
(7.91423 0.0684534 0)
(7.8676 0.0616151 0)
(7.82456 0.055457 0)
(7.78496 0.0499077 0)
(7.74863 0.0449173 0)
(7.71537 0.040457 0)
(7.68496 0.0365203 0)
(7.65716 0.0331244 0)
(7.63174 0.0303188 0)
(7.60842 0.0281819 0)
(7.58692 0.0268561 0)
(7.56691 0.0264792 0)
(7.54803 0.0274252 0)
(7.52993 0.0297879 0)
(7.51161 0.0346935 0)
(7.49412 0.0426579 0)
(7.39682 0.251056 0)
(7.67995 0.421111 0)
(7.9233 0.404071 0)
(8.07718 0.354115 0)
(8.18755 0.299411 0)
(8.2697 0.253752 0)
(8.33042 0.219819 0)
(8.37707 0.193939 0)
(8.41362 0.173365 0)
(8.44215 0.156445 0)
(8.46423 0.142082 0)
(8.4811 0.129607 0)
(8.49375 0.11861 0)
(8.50274 0.108796 0)
(8.50872 0.0999479 0)
(8.51227 0.0918995 0)
(8.51389 0.0845265 0)
(8.51401 0.0777347 0)
(8.513 0.0714536 0)
(8.51117 0.0656331 0)
(8.50874 0.060241 0)
(8.50594 0.0552622 0)
(8.50291 0.0507 0)
(8.49979 0.046577 0)
(8.49666 0.0429386 0)
(8.49361 0.0398595 0)
(8.49068 0.0374457 0)
(8.4879 0.0358553 0)
(8.48531 0.0352803 0)
(8.48293 0.0360493 0)
(8.48082 0.0384875 0)
(8.47893 0.0433617 0)
(8.47814 0.051399 0)
(7.37402 0.180717 0)
(7.57409 0.336204 0)
(7.76076 0.342445 0)
(7.87518 0.313298 0)
(7.95132 0.274152 0)
(8.00661 0.236012 0)
(8.04796 0.204677 0)
(8.08202 0.179612 0)
(8.11223 0.15934 0)
(8.13977 0.142718 0)
(8.16518 0.128789 0)
(8.18879 0.116847 0)
(8.21076 0.106435 0)
(8.23135 0.0972436 0)
(8.25068 0.0890234 0)
(8.26882 0.0815871 0)
(8.28585 0.0747989 0)
(8.30185 0.0685584 0)
(8.31688 0.0627923 0)
(8.33102 0.0574489 0)
(8.34434 0.0524956 0)
(8.3569 0.0479173 0)
(8.36879 0.043717 0)
(8.38007 0.039917 0)
(8.39082 0.0365607 0)
(8.40113 0.0337183 0)
(8.41108 0.0314886 0)
(8.42083 0.0300128 0)
(8.43051 0.0294674 0)
(8.44039 0.0301143 0)
(8.45075 0.0322535 0)
(8.46221 0.0363758 0)
(8.47547 0.0429298 0)
(7.35905 0.132802 0)
(7.50327 0.273266 0)
(7.65559 0.295173 0)
(7.75552 0.278481 0)
(7.82153 0.248969 0)
(7.86837 0.217113 0)
(7.90166 0.189468 0)
(7.92713 0.166777 0)
(7.9485 0.148058 0)
(7.96737 0.132437 0)
(7.98461 0.119179 0)
(8.00075 0.107719 0)
(8.01608 0.0976592 0)
(8.03074 0.0887141 0)
(8.04486 0.0806782 0)
(8.05848 0.0733979 0)
(8.07167 0.0667547 0)
(8.08445 0.0606556 0)
(8.09684 0.0550294 0)
(8.10887 0.0498238 0)
(8.12054 0.0450036 0)
(8.13188 0.0405503 0)
(8.14292 0.0364616 0)
(8.15369 0.0327522 0)
(8.16423 0.0294554 0)
(8.17461 0.0266253 0)
(8.1849 0.0243382 0)
(8.19523 0.0226994 0)
(8.20575 0.0218365 0)
(8.21672 0.0219234 0)
(8.22846 0.0231322 0)
(8.24159 0.025717 0)
(8.25667 0.0296726 0)
(7.34964 0.099108 0)
(7.45338 0.220677 0)
(7.57637 0.250587 0)
(7.66498 0.243947 0)
(7.72666 0.22435 0)
(7.77224 0.200251 0)
(7.80551 0.177443 0)
(7.83079 0.15756 0)
(7.85145 0.140399 0)
(7.8692 0.125595 0)
(7.88497 0.112758 0)
(7.8994 0.101511 0)
(7.91287 0.0915535 0)
(7.92561 0.0826598 0)
(7.93779 0.0746513 0)
(7.9495 0.0673833 0)
(7.96083 0.06074 0)
(7.97183 0.0546306 0)
(7.98254 0.0489851 0)
(7.99301 0.0437521 0)
(8.00327 0.0388959 0)
(8.01334 0.034396 0)
(8.02326 0.0302463 0)
(8.03307 0.026455 0)
(8.04283 0.0230456 0)
(8.05259 0.0200572 0)
(8.06245 0.0175441 0)
(8.07252 0.0155783 0)
(8.08298 0.0142412 0)
(8.09407 0.0136297 0)
(8.10608 0.0138148 0)
(8.11955 0.0148685 0)
(8.13492 0.0166192 0)
(7.34381 0.0751543 0)
(7.41916 0.178732 0)
(7.51789 0.213168 0)
(7.59516 0.214132 0)
(7.65154 0.201643 0)
(7.69484 0.183046 0)
(7.72777 0.163735 0)
(7.75342 0.146054 0)
(7.77462 0.130362 0)
(7.79288 0.116569 0)
(7.80908 0.104453 0)
(7.82383 0.0937403 0)
(7.83751 0.0841862 0)
(7.85037 0.0755966 0)
(7.86259 0.0678141 0)
(7.87429 0.0607115 0)
(7.88556 0.0541873 0)
(7.89648 0.0481612 0)
(7.9071 0.0425706 0)
(7.91746 0.0373673 0)
(7.92761 0.0325169 0)
(7.93759 0.0279974 0)
(7.94744 0.0237987 0)
(7.95721 0.0199223 0)
(7.96698 0.0163805 0)
(7.9768 0.0131964 0)
(7.98678 0.0104013 0)
(7.99705 0.00803322 0)
(8.00777 0.00612744 0)
(8.01919 0.00471302 0)
(8.03157 0.00377606 0)
(8.04536 0.0032632 0)
(8.06086 0.0029209 0)
(7.34017 0.0579125 0)
(7.39548 0.145063 0)
(7.47455 0.180587 0)
(7.54136 0.186523 0)
(7.59249 0.179373 0)
(7.63318 0.165625 0)
(7.66527 0.149939 0)
(7.69085 0.134778 0)
(7.71219 0.120811 0)
(7.73065 0.108168 0)
(7.74706 0.0968079 0)
(7.76199 0.0865936 0)
(7.77582 0.0773705 0)
(7.78882 0.0690003 0)
(7.80116 0.0613635 0)
(7.81296 0.0543566 0)
(7.82433 0.0478926 0)
(7.83532 0.041899 0)
(7.84601 0.036317 0)
(7.85645 0.0310998 0)
(7.86667 0.0262123 0)
(7.87673 0.0216295 0)
(7.88667 0.0173362 0)
(7.89655 0.0133257 0)
(7.90644 0.00959867 0)
(7.91642 0.00616155 0)
(7.92659 0.00302283 0)
(7.93708 0.000189528 0)
(7.94804 -0.00234306 0)
(7.9597 -0.00459905 0)
(7.97228 -0.00665181 0)
(7.98612 -0.00863011 0)
(8.00144 -0.0108086 0)
(7.33788 0.0452617 0)
(7.379 0.117982 0)
(7.44237 0.152564 0)
(7.49985 0.161859 0)
(7.54599 0.158811 0)
(7.58393 0.148971 0)
(7.61482 0.136274 0)
(7.64004 0.123175 0)
(7.66134 0.110619 0)
(7.67991 0.0989439 0)
(7.69648 0.0882566 0)
(7.71158 0.0785249 0)
(7.72557 0.0696577 0)
(7.73871 0.0615549 0)
(7.75117 0.0541201 0)
(7.76308 0.047265 0)
(7.77453 0.0409122 0)
(7.78561 0.0349955 0)
(7.79637 0.0294599 0)
(7.80687 0.0242605 0)
(7.81716 0.0193613 0)
(7.82729 0.0147347 0)
(7.83731 0.01036 0)
(7.84729 0.00622247 0)
(7.85728 0.00231111 0)
(7.86738 -0.00138348 0)
(7.87767 -0.00487345 0)
(7.88829 -0.00817841 0)
(7.89937 -0.0113353 0)
(7.91109 -0.0144069 0)
(7.92364 -0.0175052 0)
(7.93728 -0.0207999 0)
(7.95212 -0.0245592 0)
(7.33642 0.035797 0)
(7.36743 0.0961384 0)
(7.41832 0.128447 0)
(7.46757 0.139606 0)
(7.509 0.139407 0)
(7.54417 0.132578 0)
(7.57372 0.122436 0)
(7.59845 0.111282 0)
(7.61964 0.100179 0)
(7.63829 0.0895745 0)
(7.65501 0.0796658 0)
(7.67028 0.0704992 0)
(7.68444 0.0620425 0)
(7.69773 0.054237 0)
(7.71033 0.0470159 0)
(7.72235 0.040312 0)
(7.73391 0.0340621 0)
(7.74508 0.0282095 0)
(7.75592 0.0227046 0)
(7.76649 0.0175045 0)
(7.77685 0.0125728 0)
(7.78705 0.0078792 0)
(7.79713 0.00339782 0)
(7.80717 -0.000894101 0)
(7.81723 -0.00501825 0)
(7.82738 -0.00899796 0)
(7.83773 -0.0128625 0)
(7.84838 -0.0166525 0)
(7.85944 -0.0204285 0)
(7.87107 -0.0242786 0)
(7.8834 -0.0283346 0)
(7.89662 -0.0327809 0)
(7.91077 -0.0378609 0)
(7.33548 0.028565 0)
(7.35921 0.078407 0)
(7.40027 0.107687 0)
(7.44238 0.119617 0)
(7.47945 0.121368 0)
(7.51192 0.116861 0)
(7.53999 0.108845 0)
(7.56405 0.0993702 0)
(7.585 0.0895333 0)
(7.60362 0.079864 0)
(7.62044 0.0706372 0)
(7.63585 0.0619692 0)
(7.65017 0.0538814 0)
(7.66363 0.0463513 0)
(7.67638 0.039337 0)
(7.68854 0.0327874 0)
(7.70023 0.0266498 0)
(7.71151 0.0208739 0)
(7.72244 0.0154132 0)
(7.7331 0.0102258 0)
(7.74353 0.00527425 0)
(7.75378 0.0005249 0)
(7.76392 -0.00405315 0)
(7.774 -0.00848958 0)
(7.78408 -0.0128152 0)
(7.79425 -0.017065 0)
(7.80457 -0.021282 0)
(7.81515 -0.0255222 0)
(7.82609 -0.0298616 0)
(7.83748 -0.0344017 0)
(7.84943 -0.0392809 0)
(7.86206 -0.0446816 0)
(7.87538 -0.0508152 0)
(7.33486 0.0229197 0)
(7.35331 0.0639028 0)
(7.38664 0.0897936 0)
(7.42264 0.101659 0)
(7.45573 0.104579 0)
(7.48559 0.101733 0)
(7.51213 0.0953855 0)
(7.53541 0.0873262 0)
(7.55602 0.0786243 0)
(7.57455 0.0698476 0)
(7.59141 0.0613127 0)
(7.60694 0.0531784 0)
(7.62142 0.0455028 0)
(7.63502 0.038291 0)
(7.64792 0.0315211 0)
(7.66023 0.0251572 0)
(7.67203 0.019157 0)
(7.68341 0.0134772 0)
(7.69444 0.00807558 0)
(7.70516 0.00291192 0)
(7.71565 -0.00205151 0)
(7.72594 -0.00685074 0)
(7.7361 -0.0115206 0)
(7.74618 -0.0160966 0)
(7.75624 -0.0206167 0)
(7.76635 -0.0251248 0)
(7.77658 -0.0296733 0)
(7.787 -0.0343278 0)
(7.79769 -0.0391719 0)
(7.80873 -0.0443117 0)
(7.82019 -0.0498818 0)
(7.83212 -0.056052 0)
(7.8445 -0.0629981 0)
(7.33443 0.0184195 0)
(7.34902 0.0519235 0)
(7.37629 0.0743197 0)
(7.40713 0.0855089 0)
(7.43664 0.0889871 0)
(7.46406 0.0872716 0)
(7.48905 0.0822094 0)
(7.51148 0.0753215 0)
(7.53167 0.0676001 0)
(7.55002 0.0596151 0)
(7.56687 0.0517039 0)
(7.58247 0.044055 0)
(7.59706 0.0367564 0)
(7.6108 0.0298376 0)
(7.62383 0.023295 0)
(7.63626 0.017106 0)
(7.64818 0.0112377 0)
(7.65966 0.00565252 0)
(7.67076 0.000311397 0)
(7.68155 -0.00482472 0)
(7.69207 -0.00979426 0)
(7.70238 -0.0146351 0)
(7.71253 -0.0193855 0)
(7.72258 -0.0240857 0)
(7.73257 -0.0287794 0)
(7.74257 -0.0335162 0)
(7.75264 -0.0383543 0)
(7.76283 -0.0433639 0)
(7.7732 -0.0486307 0)
(7.7838 -0.0542584 0)
(7.79466 -0.0603712 0)
(7.80582 -0.0671206 0)
(7.81724 -0.0746474 0)
(7.33414 0.0147582 0)
(7.34586 0.0419184 0)
(7.36839 0.0608717 0)
(7.39491 0.0709549 0)
(7.42125 0.0745014 0)
(7.44642 0.0734572 0)
(7.46991 0.0693125 0)
(7.49145 0.0633395 0)
(7.51115 0.056431 0)
(7.52928 0.049137 0)
(7.54607 0.041798 0)
(7.56171 0.034617 0)
(7.57638 0.0277 0)
(7.59024 0.0210922 0)
(7.60339 0.0148024 0)
(7.61593 0.00881755 0)
(7.62795 0.00311148 0)
(7.63951 -0.00234887 0)
(7.65068 -0.00760002 0)
(7.66151 -0.01268 0)
(7.67205 -0.0176274 0)
(7.68235 -0.0224817 0)
(7.69246 -0.0272837 0)
(7.70243 -0.0320765 0)
(7.71231 -0.0369072 0)
(7.72215 -0.0418283 0)
(7.73199 -0.0469007 0)
(7.74187 -0.0521948 0)
(7.75185 -0.0577935 0)
(7.76194 -0.0637933 0)
(7.77216 -0.0703044 0)
(7.78251 -0.0774566 0)
(7.79294 -0.0853583 0)
(7.33392 0.0117206 0)
(7.34351 0.0334559 0)
(7.36234 0.0491039 0)
(7.38528 0.0577883 0)
(7.40885 0.0610192 0)
(7.43198 0.0602682 0)
(7.45406 0.0567248 0)
(7.4747 0.0514369 0)
(7.49389 0.045185 0)
(7.51176 0.0384786 0)
(7.52844 0.0316456 0)
(7.54408 0.0248905 0)
(7.55882 0.0183282 0)
(7.57276 0.0120142 0)
(7.58601 0.00596641 0)
(7.59865 0.000179285 0)
(7.61075 -0.00536765 0)
(7.62239 -0.0107036 0)
(7.6336 -0.0158625 0)
(7.64445 -0.0208814 0)
(7.65499 -0.0257992 0)
(7.66525 -0.0306559 0)
(7.6753 -0.0354939 0)
(7.68516 -0.0403577 0)
(7.69488 -0.045296 0)
(7.70451 -0.0503622 0)
(7.71407 -0.0556165 0)
(7.72361 -0.0611267 0)
(7.73314 -0.0669696 0)
(7.74268 -0.0732315 0)
(7.75222 -0.0800065 0)
(7.76175 -0.0874023 0)
(7.77122 -0.0954984 0)
(7.33377 0.00915163 0)
(7.34174 0.0261979 0)
(7.35768 0.0387164 0)
(7.37768 0.0458116 0)
(7.39888 0.0484289 0)
(7.42019 0.0476579 0)
(7.44096 0.0444362 0)
(7.46075 0.0396153 0)
(7.47942 0.033862 0)
(7.497 0.0276346 0)
(7.51356 0.0212386 0)
(7.52918 0.014871 0)
(7.54395 0.00864786 0)
(7.55796 0.00262899 0)
(7.5713 -0.00316298 0)
(7.58402 -0.00872968 0)
(7.5962 -0.0140884 0)
(7.60788 -0.0192662 0)
(7.61912 -0.0242961 0)
(7.62998 -0.0292146 0)
(7.64048 -0.0340607 0)
(7.65069 -0.0388751 0)
(7.66063 -0.0437008 0)
(7.67035 -0.0485828 0)
(7.67988 -0.0535697 0)
(7.68926 -0.058714 0)
(7.69851 -0.0640729 0)
(7.70765 -0.0697094 0)
(7.7167 -0.0756922 0)
(7.72566 -0.0820958 0)
(7.73452 -0.0889977 0)
(7.74324 -0.0964846 0)
(7.75178 -0.104611 0)
(7.33365 0.00693769 0)
(7.3404 0.0198775 0)
(7.35409 0.0294497 0)
(7.37171 0.0348378 0)
(7.39089 0.0366117 0)
(7.41062 0.0355636 0)
(7.43022 0.0324232 0)
(7.44922 0.0278734 0)
(7.46739 0.0224718 0)
(7.48468 0.0166184 0)
(7.50111 0.0105876 0)
(7.51669 0.00456066 0)
(7.53149 -0.00135265 0)
(7.54556 -0.00709385 0)
(7.55897 -0.0126396 0)
(7.57176 -0.01799 0)
(7.58399 -0.023161 0)
(7.59571 -0.0281784 0)
(7.60697 -0.0330743 0)
(7.61781 -0.0378848 0)
(7.62827 -0.0426487 0)
(7.63839 -0.0474064 0)
(7.64821 -0.0522004 0)
(7.65776 -0.0570753 0)
(7.66707 -0.0620778 0)
(7.67616 -0.0672578 0)
(7.68507 -0.0726682 0)
(7.6938 -0.0783654 0)
(7.70235 -0.0844087 0)
(7.71073 -0.0908603 0)
(7.71891 -0.0977819 0)
(7.72685 -0.105241 0)
(7.73452 -0.11327 0)
(7.33356 0.00499292 0)
(7.33939 0.014282 0)
(7.35134 0.0210795 0)
(7.36704 0.0246906 0)
(7.38455 0.0254452 0)
(7.40293 0.0239103 0)
(7.42151 0.0206465 0)
(7.43979 0.0161944 0)
(7.45751 0.0110108 0)
(7.47454 0.00543516 0)
(7.49083 -0.000294135 0)
(7.50637 -0.00601693 0)
(7.52119 -0.0116348 0)
(7.53531 -0.0170951 0)
(7.54878 -0.0223774 0)
(7.56163 -0.0274836 0)
(7.5739 -0.0324304 0)
(7.58565 -0.0372441 0)
(7.5969 -0.0419574 0)
(7.60771 -0.0466068 0)
(7.6181 -0.051231 0)
(7.62811 -0.0558705 0)
(7.63778 -0.0605673 0)
(7.64713 -0.0653645 0)
(7.65619 -0.0703067 0)
(7.66499 -0.07544 0)
(7.67353 -0.0808122 0)
(7.68183 -0.0864724 0)
(7.68988 -0.0924706 0)
(7.69767 -0.0988569 0)
(7.7052 -0.105679 0)
(7.7124 -0.112986 0)
(7.71926 -0.120795 0)
(7.33349 0.00325076 0)
(7.33862 0.00923919 0)
(7.34924 0.0134102 0)
(7.36343 0.0152031 0)
(7.37958 0.0148016 0)
(7.39684 0.0126064 0)
(7.41456 0.00904257 0)
(7.43224 0.00453088 0)
(7.44957 -0.000563348 0)
(7.46638 -0.00596105 0)
(7.48257 -0.0114634 0)
(7.49809 -0.0169359 0)
(7.51293 -0.0222963 0)
(7.52711 -0.0275019 0)
(7.54064 -0.0325386 0)
(7.55355 -0.037412 0)
(7.56586 -0.0421413 0)
(7.57763 -0.0467543 0)
(7.58887 -0.0512845 0)
(7.59963 -0.0557688 0)
(7.60994 -0.0602457 0)
(7.61983 -0.0647552 0)
(7.62933 -0.0693378 0)
(7.63847 -0.0740345 0)
(7.64727 -0.0788868 0)
(7.65575 -0.0839364 0)
(7.66392 -0.0892251 0)
(7.67178 -0.0947947 0)
(7.67933 -0.100686 0)
(7.68656 -0.106937 0)
(7.69346 -0.113583 0)
(7.69998 -0.120659 0)
(7.70609 -0.128169 0)
(7.33344 0.00165772 0)
(7.33806 0.00460662 0)
(7.34766 0.00626929 0)
(7.36069 0.00621784 0)
(7.37578 0.00455346 0)
(7.39215 0.00155823 0)
(7.40919 -0.00244919 0)
(7.42638 -0.0071467 0)
(7.4434 -0.0122498 0)
(7.46004 -0.0175377 0)
(7.47616 -0.022852 0)
(7.49168 -0.0280875 0)
(7.50656 -0.0331821 0)
(7.5208 -0.0381068 0)
(7.53438 -0.0428573 0)
(7.54734 -0.0474461 0)
(7.55969 -0.0518973 0)
(7.57146 -0.0562423 0)
(7.58268 -0.0605169 0)
(7.59338 -0.0647595 0)
(7.60359 -0.0690093 0)
(7.61334 -0.0733059 0)
(7.62266 -0.0776887 0)
(7.63157 -0.0821966 0)
(7.64009 -0.0868678 0)
(7.64824 -0.0917396 0)
(7.65603 -0.0968481 0)
(7.66346 -0.102228 0)
(7.67052 -0.10791 0)
(7.67722 -0.113926 0)
(7.68352 -0.120296 0)
(7.68941 -0.127046 0)
(7.69486 -0.134169 0)
(7.33341 0.000169394 0)
(7.33765 0.000262564 0)
(7.34652 -0.000499832 0)
(7.3587 -0.00242102 0)
(7.37299 -0.00544113 0)
(7.38871 -0.00936137 0)
(7.40525 -0.0139474 0)
(7.42211 -0.0189603 0)
(7.43893 -0.0241877 0)
(7.45548 -0.0294645 0)
(7.4716 -0.0346741 0)
(7.48717 -0.0397417 0)
(7.50213 -0.0446275 0)
(7.51645 -0.0493185 0)
(7.53013 -0.0538218 0)
(7.54315 -0.0581579 0)
(7.55554 -0.0623569 0)
(7.56732 -0.0664543 0)
(7.57852 -0.0704885 0)
(7.58916 -0.0744993 0)
(7.59926 -0.0785266 0)
(7.60887 -0.0826095 0)
(7.618 -0.0867859 0)
(7.62667 -0.0910925 0)
(7.63491 -0.0955639 0)
(7.64273 -0.100233 0)
(7.65014 -0.105131 0)
(7.65715 -0.110284 0)
(7.66375 -0.115718 0)
(7.66993 -0.121452 0)
(7.67568 -0.127502 0)
(7.68099 -0.133881 0)
(7.68582 -0.140574 0)
(7.33338 -0.00125278 0)
(7.33737 -0.00390025 0)
(7.34575 -0.00704035 0)
(7.35734 -0.0108591 0)
(7.3711 -0.0153089 0)
(7.38639 -0.0202451 0)
(7.40261 -0.0254972 0)
(7.41928 -0.0308941 0)
(7.43602 -0.0362873 0)
(7.45257 -0.0415647 0)
(7.46874 -0.0466524 0)
(7.48439 -0.0515098 0)
(7.49946 -0.0561233 0)
(7.51389 -0.0605007 0)
(7.52765 -0.0646644 0)
(7.54075 -0.0686471 0)
(7.55318 -0.0724874 0)
(7.56497 -0.0762273 0)
(7.57613 -0.0799096 0)
(7.5867 -0.0835769 0)
(7.59669 -0.0872704 0)
(7.60614 -0.0910292 0)
(7.61508 -0.0948902 0)
(7.62351 -0.0988879 0)
(7.63146 -0.103054 0)
(7.63896 -0.107416 0)
(7.646 -0.112001 0)
(7.6526 -0.11683 0)
(7.65875 -0.12192 0)
(7.66445 -0.127286 0)
(7.6697 -0.132934 0)
(7.67448 -0.13887 0)
(7.67879 -0.145076 0)
(7.33337 -0.00264476 0)
(7.33721 -0.00798372 0)
(7.34531 -0.0134982 0)
(7.35659 -0.0192662 0)
(7.37007 -0.0252377 0)
(7.38517 -0.0313067 0)
(7.40131 -0.037355 0)
(7.41797 -0.043271 0)
(7.43479 -0.0489631 0)
(7.45148 -0.0543689 0)
(7.46781 -0.0594547 0)
(7.48366 -0.0642126 0)
(7.4989 -0.0686546 0)
(7.5135 -0.0728086 0)
(7.5274 -0.0767126 0)
(7.5406 -0.0804111 0)
(7.5531 -0.0839521 0)
(7.56491 -0.087384 0)
(7.57605 -0.0907548 0)
(7.58655 -0.0941102 0)
(7.59644 -0.0974931 0)
(7.60573 -0.100943 0)
(7.61446 -0.104497 0)
(7.62265 -0.108187 0)
(7.63032 -0.112042 0)
(7.63749 -0.116088 0)
(7.64417 -0.120345 0)
(7.65037 -0.12483 0)
(7.65609 -0.129556 0)
(7.66135 -0.13453 0)
(7.66612 -0.139753 0)
(7.67041 -0.145226 0)
(7.67422 -0.150926 0)
(7.33337 -0.00404107 0)
(7.33716 -0.0120837 0)
(7.34517 -0.0200038 0)
(7.35637 -0.0277706 0)
(7.36982 -0.0353148 0)
(7.38495 -0.0425507 0)
(7.40119 -0.0493995 0)
(7.41801 -0.0558018 0)
(7.43503 -0.0617221 0)
(7.45195 -0.0671507 0)
(7.46853 -0.0721009 0)
(7.48461 -0.0766042 0)
(7.50009 -0.0807058 0)
(7.51488 -0.0844597 0)
(7.52894 -0.0879246 0)
(7.54227 -0.0911609 0)
(7.55485 -0.0942284 0)
(7.56669 -0.0971842 0)
(7.57782 -0.100082 0)
(7.58826 -0.102971 0)
(7.59804 -0.105897 0)
(7.60718 -0.1089 0)
(7.61572 -0.112015 0)
(7.62367 -0.115273 0)
(7.63106 -0.118701 0)
(7.63792 -0.122319 0)
(7.64425 -0.126146 0)
(7.65008 -0.130194 0)
(7.65541 -0.13447 0)
(7.66024 -0.138977 0)
(7.66459 -0.143714 0)
(7.66845 -0.148675 0)
(7.67184 -0.153837 0)
(7.33337 -0.0054786 0)
(7.33722 -0.0163122 0)
(7.34535 -0.0267411 0)
(7.35675 -0.0366352 0)
(7.37048 -0.0459094 0)
(7.38595 -0.0544977 0)
(7.40258 -0.0623565 0)
(7.41983 -0.0694706 0)
(7.4373 -0.0758514 0)
(7.45466 -0.0815322 0)
(7.47166 -0.0865653 0)
(7.48812 -0.0910162 0)
(7.50393 -0.0949592 0)
(7.519 -0.0984727 0)
(7.5333 -0.101636 0)
(7.54679 -0.104526 0)
(7.55947 -0.107216 0)
(7.57137 -0.109773 0)
(7.58249 -0.11226 0)
(7.59287 -0.114731 0)
(7.60254 -0.117235 0)
(7.61153 -0.119815 0)
(7.61986 -0.122506 0)
(7.62757 -0.12534 0)
(7.63468 -0.128341 0)
(7.64122 -0.131529 0)
(7.64721 -0.134918 0)
(7.65267 -0.138517 0)
(7.65761 -0.14233 0)
(7.66204 -0.146358 0)
(7.66598 -0.150595 0)
(7.66943 -0.155032 0)
(7.6724 -0.159644 0)
(7.33338 -0.0069955 0)
(7.33738 -0.0207645 0)
(7.34583 -0.0338079 0)
(7.35764 -0.0458742 0)
(7.37186 -0.0568459 0)
(7.38787 -0.0666684 0)
(7.40508 -0.075338 0)
(7.42292 -0.082899 0)
(7.44097 -0.0894288 0)
(7.45888 -0.0950241 0)
(7.4764 -0.0997929 0)
(7.49334 -0.103848 0)
(7.50956 -0.107303 0)
(7.52499 -0.110265 0)
(7.53957 -0.112838 0)
(7.55328 -0.115116 0)
(7.56613 -0.117185 0)
(7.57811 -0.119123 0)
(7.58927 -0.120996 0)
(7.59962 -0.122864 0)
(7.6092 -0.124778 0)
(7.61805 -0.126781 0)
(7.6262 -0.12891 0)
(7.63369 -0.131192 0)
(7.64054 -0.133651 0)
(7.64679 -0.136304 0)
(7.65246 -0.139163 0)
(7.65758 -0.142233 0)
(7.66216 -0.145518 0)
(7.66623 -0.149013 0)
(7.66981 -0.152711 0)
(7.6729 -0.156603 0)
(7.67554 -0.160662 0)
(7.33341 -0.00864539 0)
(7.33771 -0.0256299 0)
(7.34677 -0.0415876 0)
(7.35942 -0.0561685 0)
(7.3746 -0.0692422 0)
(7.39163 -0.0807626 0)
(7.40986 -0.0907433 0)
(7.42869 -0.0992587 0)
(7.44766 -0.106425 0)
(7.4664 -0.11238 0)
(7.48465 -0.117276 0)
(7.50222 -0.121267 0)
(7.51897 -0.124505 0)
(7.53482 -0.127134 0)
(7.54973 -0.129286 0)
(7.56369 -0.131079 0)
(7.57669 -0.132621 0)
(7.58876 -0.134004 0)
(7.59993 -0.135307 0)
(7.61023 -0.136599 0)
(7.61971 -0.137936 0)
(7.6284 -0.139366 0)
(7.63634 -0.140925 0)
(7.64358 -0.142644 0)
(7.65016 -0.144545 0)
(7.6561 -0.146644 0)
(7.66144 -0.14895 0)
(7.66621 -0.151468 0)
(7.67043 -0.154198 0)
(7.67413 -0.157134 0)
(7.67733 -0.160266 0)
(7.68004 -0.163584 0)
(7.6823 -0.167059 0)
(7.33345 -0.0104732 0)
(7.33811 -0.0309501 0)
(7.34794 -0.0499066 0)
(7.36158 -0.0668348 0)
(7.37786 -0.0815979 0)
(7.39605 -0.0942094 0)
(7.41546 -0.104775 0)
(7.43546 -0.113473 0)
(7.45553 -0.120518 0)
(7.47531 -0.126126 0)
(7.4945 -0.130514 0)
(7.51289 -0.133886 0)
(7.53036 -0.136429 0)
(7.54681 -0.138316 0)
(7.56221 -0.139699 0)
(7.57654 -0.140712 0)
(7.58981 -0.141474 0)
(7.60206 -0.142084 0)
(7.61332 -0.142627 0)
(7.62364 -0.143177 0)
(7.63306 -0.14379 0)
(7.64163 -0.144517 0)
(7.64942 -0.145394 0)
(7.65645 -0.14645 0)
(7.66277 -0.147707 0)
(7.66843 -0.149179 0)
(7.67347 -0.150875 0)
(7.67792 -0.152798 0)
(7.68181 -0.154945 0)
(7.68518 -0.15731 0)
(7.68806 -0.159882 0)
(7.69046 -0.16265 0)
(7.69244 -0.165586 0)
(7.33353 -0.012599 0)
(7.33893 -0.0372762 0)
(7.35022 -0.0600972 0)
(7.36572 -0.0804351 0)
(7.38398 -0.0981134 0)
(7.40414 -0.113095 0)
(7.42541 -0.125461 0)
(7.44707 -0.135415 0)
(7.46861 -0.143222 0)
(7.48965 -0.149174 0)
(7.50991 -0.15356 0)
(7.52919 -0.15666 0)
(7.54738 -0.158728 0)
(7.5644 -0.159993 0)
(7.58024 -0.160655 0)
(7.59489 -0.160885 0)
(7.60838 -0.160828 0)
(7.62075 -0.160607 0)
(7.63205 -0.16032 0)
(7.64232 -0.16005 0)
(7.65164 -0.159861 0)
(7.66006 -0.159805 0)
(7.66763 -0.159919 0)
(7.67441 -0.160234 0)
(7.68046 -0.16077 0)
(7.68581 -0.161538 0)
(7.69051 -0.162547 0)
(7.69461 -0.163796 0)
(7.69814 -0.165281 0)
(7.70115 -0.166995 0)
(7.70365 -0.168925 0)
(7.70569 -0.171058 0)
(7.70729 -0.173365 0)
(7.33356 -0.0150309 0)
(7.33956 -0.0441109 0)
(7.35216 -0.0702383 0)
(7.36936 -0.092695 0)
(7.38956 -0.111544 0)
(7.41182 -0.127011 0)
(7.43525 -0.139392 0)
(7.45903 -0.149052 0)
(7.48256 -0.156363 0)
(7.50541 -0.161678 0)
(7.52727 -0.165331 0)
(7.54793 -0.167626 0)
(7.56727 -0.168839 0)
(7.58523 -0.169213 0)
(7.60181 -0.168961 0)
(7.61703 -0.168266 0)
(7.63094 -0.167284 0)
(7.64358 -0.166146 0)
(7.65504 -0.164959 0)
(7.66538 -0.16381 0)
(7.67468 -0.162769 0)
(7.68301 -0.16189 0)
(7.69043 -0.161213 0)
(7.69701 -0.160769 0)
(7.70282 -0.160578 0)
(7.7079 -0.160652 0)
(7.71232 -0.160997 0)
(7.71611 -0.161614 0)
(7.71934 -0.162496 0)
(7.72203 -0.163637 0)
(7.72424 -0.165022 0)
(7.726 -0.166639 0)
(7.72736 -0.168456 0)
(7.33381 -0.0182188 0)
(7.34179 -0.0539254 0)
(7.35774 -0.0863798 0)
(7.37868 -0.114472 0)
(7.4024 -0.137966 0)
(7.42781 -0.156884 0)
(7.45397 -0.171529 0)
(7.48008 -0.182424 0)
(7.50557 -0.190138 0)
(7.53007 -0.195222 0)
(7.55332 -0.198185 0)
(7.57514 -0.199484 0)
(7.59543 -0.199507 0)
(7.61416 -0.198587 0)
(7.63134 -0.196996 0)
(7.64701 -0.194962 0)
(7.66122 -0.192665 0)
(7.67405 -0.190254 0)
(7.68559 -0.187843 0)
(7.6959 -0.185523 0)
(7.70509 -0.183363 0)
(7.71324 -0.181416 0)
(7.72041 -0.179717 0)
(7.7267 -0.178294 0)
(7.73216 -0.177162 0)
(7.73686 -0.176331 0)
(7.74087 -0.175804 0)
(7.74424 -0.175577 0)
(7.74701 -0.175646 0)
(7.74925 -0.176 0)
(7.75098 -0.176624 0)
(7.75226 -0.177506 0)
(7.75312 -0.17861 0)
(7.3337 -0.0216689 0)
(7.34212 -0.0623422 0)
(7.36002 -0.0969164 0)
(7.38395 -0.125353 0)
(7.41142 -0.148559 0)
(7.44103 -0.167038 0)
(7.47142 -0.181252 0)
(7.50147 -0.191749 0)
(7.53048 -0.199056 0)
(7.55801 -0.203665 0)
(7.58376 -0.206047 0)
(7.60759 -0.20664 0)
(7.62945 -0.205839 0)
(7.64935 -0.20399 0)
(7.66736 -0.201392 0)
(7.68355 -0.198297 0)
(7.69805 -0.194915 0)
(7.71097 -0.191415 0)
(7.72242 -0.187934 0)
(7.73252 -0.184575 0)
(7.74139 -0.181418 0)
(7.74913 -0.178523 0)
(7.75583 -0.175929 0)
(7.76159 -0.173665 0)
(7.76648 -0.171746 0)
(7.77059 -0.17018 0)
(7.77399 -0.168969 0)
(7.77673 -0.168109 0)
(7.77887 -0.167593 0)
(7.78048 -0.167409 0)
(7.78161 -0.167544 0)
(7.7823 -0.167984 0)
(7.78264 -0.168689 0)
(7.33482 -0.0280439 0)
(7.34953 -0.0830698 0)
(7.3752 -0.130873 0)
(7.40555 -0.169589 0)
(7.43782 -0.199552 0)
(7.47121 -0.221549 0)
(7.50463 -0.236819 0)
(7.53713 -0.246685 0)
(7.56814 -0.252282 0)
(7.59728 -0.254562 0)
(7.62429 -0.254325 0)
(7.64906 -0.25222 0)
(7.67157 -0.248766 0)
(7.69187 -0.24438 0)
(7.71007 -0.239391 0)
(7.72629 -0.234062 0)
(7.74068 -0.228596 0)
(7.75338 -0.223155 0)
(7.76456 -0.217859 0)
(7.77434 -0.212801 0)
(7.78288 -0.208047 0)
(7.79028 -0.203643 0)
(7.79666 -0.19962 0)
(7.80213 -0.195997 0)
(7.80677 -0.192782 0)
(7.81067 -0.189978 0)
(7.81389 -0.187581 0)
(7.81651 -0.185586 0)
(7.81857 -0.183986 0)
(7.82015 -0.182773 0)
(7.82128 -0.181936 0)
(7.82204 -0.181465 0)
(7.82246 -0.181317 0)
(7.3338 -0.0318397 0)
(7.34766 -0.0866179 0)
(7.37779 -0.129777 0)
(7.41575 -0.165428 0)
(7.45667 -0.194833 0)
(7.49828 -0.217656 0)
(7.53868 -0.234328 0)
(7.57689 -0.245607 0)
(7.61262 -0.252229 0)
(7.6458 -0.254985 0)
(7.67646 -0.254674 0)
(7.70475 -0.252026 0)
(7.73081 -0.247678 0)
(7.7548 -0.242167 0)
(7.77686 -0.235932 0)
(7.79713 -0.229319 0)
(7.81573 -0.222598 0)
(7.83279 -0.21597 0)
(7.84841 -0.209585 0)
(7.8627 -0.203548 0)
(7.87576 -0.197928 0)
(7.88769 -0.19277 0)
(7.89857 -0.188098 0)
(7.90849 -0.18392 0)
(7.91751 -0.180234 0)
(7.92572 -0.177031 0)
(7.93316 -0.1743 0)
(7.9399 -0.172026 0)
(7.946 -0.170201 0)
(7.9515 -0.168816 0)
(7.95648 -0.167873 0)
(7.961 -0.167371 0)
(7.96516 -0.167286 0)
(7.33892 -0.0543714 0)
(7.37188 -0.151549 0)
(7.41451 -0.22076 0)
(7.45789 -0.267677 0)
(7.50416 -0.298478 0)
(7.55421 -0.317133 0)
(7.60651 -0.327347 0)
(7.65996 -0.331812 0)
(7.71365 -0.332228 0)
(7.76657 -0.329756 0)
(7.81782 -0.325211 0)
(7.86672 -0.319169 0)
(7.9128 -0.312063 0)
(7.95575 -0.304231 0)
(7.99542 -0.295949 0)
(8.03177 -0.287444 0)
(8.06488 -0.278907 0)
(8.09487 -0.270495 0)
(8.1219 -0.262334 0)
(8.14619 -0.254521 0)
(8.16794 -0.247128 0)
(8.18735 -0.240205 0)
(8.20463 -0.233784 0)
(8.21998 -0.22788 0)
(8.23356 -0.222498 0)
(8.24553 -0.217633 0)
(8.25603 -0.213278 0)
(8.26519 -0.209424 0)
(8.27311 -0.206075 0)
(8.27988 -0.203232 0)
(8.28561 -0.200948 0)
(8.29037 -0.199224 0)
(8.29434 -0.198238 0)
(7.33755 -0.0403932 0)
(7.38842 -0.10573 0)
(7.4775 -0.163499 0)
(7.5789 -0.219298 0)
(7.68652 -0.26686 0)
(7.79522 -0.303837 0)
(7.89899 -0.330872 0)
(7.99435 -0.348656 0)
(8.07931 -0.358268 0)
(8.15279 -0.361171 0)
(8.21459 -0.358827 0)
(8.26509 -0.352551 0)
(8.30508 -0.343478 0)
(8.33553 -0.332547 0)
(8.35754 -0.320506 0)
(8.37219 -0.307939 0)
(8.38054 -0.295287 0)
(8.38354 -0.282875 0)
(8.38204 -0.270933 0)
(8.37681 -0.259617 0)
(8.36849 -0.249021 0)
(8.35764 -0.239196 0)
(8.34471 -0.230158 0)
(8.3301 -0.221897 0)
(8.31413 -0.214385 0)
(8.29705 -0.20758 0)
(8.27907 -0.201437 0)
(8.26034 -0.195905 0)
(8.24097 -0.19095 0)
(8.22099 -0.186545 0)
(8.20052 -0.182777 0)
(8.17929 -0.179601 0)
(8.15795 -0.177972 0)
(7.39945 -0.196852 0)
(7.59551 -0.376316 0)
(7.768 -0.459398 0)
(7.89475 -0.513448 0)
(7.97777 -0.542312 0)
(8.01514 -0.55183 0)
(8.01109 -0.548627 0)
(7.974 -0.536056 0)
(7.91152 -0.516622 0)
(7.83026 -0.49259 0)
(7.736 -0.46576 0)
(7.63348 -0.437527 0)
(7.52643 -0.408979 0)
(7.41768 -0.380928 0)
(7.30933 -0.35395 0)
(7.20289 -0.328431 0)
(7.09939 -0.304602 0)
(6.9995 -0.282579 0)
(6.9036 -0.262395 0)
(6.81188 -0.244018 0)
(6.72439 -0.227376 0)
(6.64105 -0.21237 0)
(6.56174 -0.198884 0)
(6.48627 -0.18679 0)
(6.41445 -0.175958 0)
(6.34605 -0.166255 0)
(6.28084 -0.157539 0)
(6.21857 -0.149678 0)
(6.15899 -0.142507 0)
(6.10172 -0.135885 0)
(6.04645 -0.129703 0)
(5.99215 -0.12318 0)
(5.93922 -0.11964 0)
(7.16011 -0.185949 0)
(6.91079 -0.345367 0)
(6.49936 -0.392806 0)
(6.03527 -0.39439 0)
(5.59461 -0.366381 0)
(5.17764 -0.322604 0)
(4.78845 -0.27398 0)
(4.4338 -0.226131 0)
(4.11427 -0.182045 0)
(3.82818 -0.143206 0)
(3.57353 -0.110013 0)
(3.34775 -0.0822788 0)
(3.14799 -0.0595223 0)
(2.97145 -0.0411224 0)
(2.81547 -0.0264275 0)
(2.67754 -0.0148217 0)
(2.55542 -0.0057548 0)
(2.44706 0.00124678 0)
(2.35067 0.00658123 0)
(2.26465 0.0105778 0)
(2.18761 0.0135059 0)
(2.11834 0.0155849 0)
(2.05579 0.0169939 0)
(1.99906 0.0178794 0)
(1.94737 0.0183669 0)
(1.90006 0.0185653 0)
(1.85657 0.0185946 0)
(1.81651 0.0185754 0)
(1.77939 0.018729 0)
(1.74539 0.0193564 0)
(1.71361 0.0207931 0)
(1.68609 0.0255491 0)
(1.6608 0.020946 0)
(1.28372 -0.00263888 0)
(1.51559 0.102577 0)
(1.8614 0.199899 0)
(2.18738 0.276023 0)
(2.4695 0.327306 0)
(2.72185 0.366576 0)
(2.98378 0.396712 0)
(3.29682 0.400038 0)