# y+ ()       
# Time        	patch         	min           	max           	average       
700           	lowerWall	4.039273e-01	6.530986e+01	3.740639e+01
700           	upperWall	3.125910e+01	5.508438e+01	4.626003e+01
