/*--------------------------------*- C++ -*----------------------------------*\
  =========                 |
  \\      /  F ield         | OpenFOAM: The Open Source CFD Toolbox
   \\    /   O peration     | Website:  https://openfoam.org
    \\  /    A nd           | Version:  10
     \\/     M anipulation  |
\*---------------------------------------------------------------------------*/
FoamFile
{
    format      ascii;
    class       volScalarField;
    location    "0.055";
    object      nut;
}
// * * * * * * * * * * * * * * * * * * * * * * * * * * * * * * * * * * * * * //

dimensions      [0 2 -1 0 0 0 0];

internalField   nonuniform List<scalar> 
6820
(
0.000503209
0.000397074
0.000324506
0.000269353
0.000236472
0.000214069
0.000197432
0.000184693
0.000174388
0.000165724
0.000158253
0.00015168
0.00014581
0.000140505
0.000135664
0.000131211
0.000127088
0.000123249
0.000119658
0.000116285
0.000113105
0.000110098
0.000107245
0.000104529
0.000101935
9.94491e-05
9.70525e-05
9.47326e-05
9.24532e-05
9.02297e-05
8.79265e-05
8.56408e-05
8.28473e-05
8.18507e-05
0.000143723
0.000196415
0.000210833
0.00020641
0.000197552
0.000187294
0.000177393
0.000168437
0.000160409
0.000153209
0.000146717
0.000140827
0.000135447
0.000130506
0.000125945
0.000121713
0.000117769
0.000114079
0.000110613
0.000107347
0.000104259
0.000101333
9.85529e-05
9.59064e-05
9.3383e-05
9.09756e-05
8.86756e-05
8.64961e-05
8.44085e-05
8.25774e-05
8.07453e-05
8.04826e-05
3.85904e-05
2.73945e-05
4.30435e-05
7.44595e-05
9.58678e-05
0.000109232
0.000116485
0.00011979
0.000120727
0.000120196
0.000118757
0.000116762
0.000114428
0.000111903
0.000109277
0.000106612
0.000103948
0.000101313
9.87228e-05
9.61901e-05
9.37215e-05
9.13213e-05
8.89916e-05
8.67336e-05
8.45482e-05
8.24366e-05
8.04006e-05
7.84463e-05
7.65811e-05
7.4832e-05
7.32217e-05
7.18438e-05
7.08342e-05
1.99675e-05
2.35297e-05
2.20727e-05
1.27933e-05
2.91835e-06
1.2412e-05
2.29341e-05
3.15923e-05
3.85701e-05
4.412e-05
4.84828e-05
5.18721e-05
5.44612e-05
5.63878e-05
5.77712e-05
5.87092e-05
5.92817e-05
5.95543e-05
5.9581e-05
5.94066e-05
5.90678e-05
5.85953e-05
5.8015e-05
5.73488e-05
5.66162e-05
5.58347e-05
5.50214e-05
5.41944e-05
5.3375e-05
5.25888e-05
5.18711e-05
5.12585e-05
5.07948e-05
1.32443e-05
1.50855e-05
1.99352e-05
2.2029e-05
2.14763e-05
1.95315e-05
1.69031e-05
1.39576e-05
1.09111e-05
7.89211e-06
4.98454e-06
2.26445e-06
6.99233e-07
2.80756e-06
4.92542e-06
6.84705e-06
8.56785e-06
1.00957e-05
1.14423e-05
1.26206e-05
1.36443e-05
1.45268e-05
1.52818e-05
1.59226e-05
1.64623e-05
1.69148e-05
1.72941e-05
1.76163e-05
1.78979e-05
1.81602e-05
1.84165e-05
1.86873e-05
1.89256e-05
1.01903e-05
1.10263e-05
1.18545e-05
1.26557e-05
1.32911e-05
1.38341e-05
1.42299e-05
1.44441e-05
1.44889e-05
1.43862e-05
1.41575e-05
1.38258e-05
1.34123e-05
1.29315e-05
1.24023e-05
1.18404e-05
1.12593e-05
1.06702e-05
1.00823e-05
9.50262e-06
8.93666e-06
8.38823e-06
7.85981e-06
7.35261e-06
6.86664e-06
6.4009e-06
5.95298e-06
5.52089e-06
5.10044e-06
4.69785e-06
4.31459e-06
4.02066e-06
3.84336e-06
7.53421e-06
8.25866e-06
8.68762e-06
8.92432e-06
8.82276e-06
8.62128e-06
8.46334e-06
8.38001e-06
8.3646e-06
8.39247e-06
8.4366e-06
8.4783e-06
8.50811e-06
8.52394e-06
8.52261e-06
8.50281e-06
8.46474e-06
8.40936e-06
8.33796e-06
8.252e-06
8.15298e-06
8.04227e-06
7.92112e-06
7.79061e-06
7.6516e-06
7.505e-06
7.35154e-06
7.19362e-06
7.03362e-06
6.88399e-06
6.75412e-06
6.7013e-06
6.73946e-06
5.75094e-06
6.6209e-06
7.02358e-06
7.13769e-06
6.88771e-06
6.52872e-06
6.2019e-06
5.93176e-06
5.71676e-06
5.5477e-06
5.41247e-06
5.30143e-06
5.20745e-06
5.12527e-06
5.05143e-06
4.98353e-06
4.91959e-06
4.85795e-06
4.7973e-06
4.73664e-06
4.67518e-06
4.61235e-06
4.54767e-06
4.48089e-06
4.4119e-06
4.34114e-06
4.26952e-06
4.20006e-06
4.13709e-06
4.0931e-06
4.08028e-06
4.13831e-06
4.27949e-06
4.4761e-06
5.25871e-06
5.56261e-06
5.71901e-06
5.63924e-06
5.43359e-06
5.19288e-06
4.95156e-06
4.72904e-06
4.53328e-06
4.36263e-06
4.2128e-06
4.07985e-06
3.96053e-06
3.85227e-06
3.75296e-06
3.66094e-06
3.57495e-06
3.494e-06
3.41732e-06
3.34427e-06
3.27435e-06
3.2072e-06
3.14269e-06
3.081e-06
3.02294e-06
2.97012e-06
2.92613e-06
2.89615e-06
2.891e-06
2.9215e-06
3.011e-06
3.16911e-06
3.54625e-06
4.24916e-06
4.53825e-06
4.7051e-06
4.67363e-06
4.51536e-06
4.31826e-06
4.12125e-06
3.94094e-06
3.78204e-06
3.64208e-06
3.51729e-06
3.40471e-06
3.30201e-06
3.20742e-06
3.11966e-06
3.0378e-06
2.96111e-06
2.88898e-06
2.82092e-06
2.75657e-06
2.69568e-06
2.6382e-06
2.58433e-06
2.53465e-06
2.4904e-06
2.45359e-06
2.42781e-06
2.4179e-06
2.43182e-06
2.47716e-06
2.5654e-06
2.7031e-06
2.85512e-06
3.47175e-06
3.74234e-06
3.89745e-06
3.90192e-06
3.8008e-06
3.65838e-06
3.50504e-06
3.35539e-06
3.21673e-06
3.09072e-06
2.97671e-06
2.87352e-06
2.77981e-06
2.69431e-06
2.61589e-06
2.54362e-06
2.47671e-06
2.41452e-06
2.35659e-06
2.3026e-06
2.25242e-06
2.20613e-06
2.16409e-06
2.12705e-06
2.09635e-06
2.07398e-06
2.06299e-06
2.06722e-06
2.09184e-06
2.14145e-06
2.22029e-06
2.33349e-06
2.32795e-06
2.86401e-06
3.13211e-06
3.29192e-06
3.32875e-06
3.26646e-06
3.15461e-06
3.02392e-06
2.89161e-06
2.76697e-06
2.65299e-06
2.54973e-06
2.45633e-06
2.37169e-06
2.29466e-06
2.22428e-06
2.15975e-06
2.10042e-06
2.04581e-06
1.99556e-06
1.94946e-06
1.90749e-06
1.86979e-06
1.8368e-06
1.80929e-06
1.78845e-06
1.77597e-06
1.7741e-06
1.7854e-06
1.81273e-06
1.85835e-06
1.92239e-06
2.00919e-06
1.91611e-06
2.38381e-06
2.65285e-06
2.81589e-06
2.87278e-06
2.84054e-06
2.75861e-06
2.65474e-06
2.54465e-06
2.43701e-06
2.33558e-06
2.24158e-06
2.15524e-06
2.07628e-06
2.00419e-06
1.9384e-06
1.87837e-06
1.82363e-06
1.77377e-06
1.72851e-06
1.68768e-06
1.65126e-06
1.61942e-06
1.59257e-06
1.57132e-06
1.55661e-06
1.54962e-06
1.55177e-06
1.56449e-06
1.58897e-06
1.62599e-06
1.67359e-06
1.73567e-06
1.58683e-06
1.99914e-06
2.27056e-06
2.44079e-06
2.5164e-06
2.51054e-06
2.45348e-06
2.36988e-06
2.27521e-06
2.17893e-06
2.08605e-06
1.99889e-06
1.91833e-06
1.84453e-06
1.77719e-06
1.71591e-06
1.66024e-06
1.60977e-06
1.56417e-06
1.52317e-06
1.48666e-06
1.45461e-06
1.42717e-06
1.4046e-06
1.38735e-06
1.37603e-06
1.37132e-06
1.37393e-06
1.38441e-06
1.40286e-06
1.42916e-06
1.4605e-06
1.50043e-06
1.31766e-06
1.68762e-06
1.96207e-06
2.14087e-06
2.23147e-06
2.246e-06
2.20915e-06
2.14334e-06
2.06364e-06
1.97943e-06
1.89608e-06
1.81634e-06
1.74158e-06
1.67233e-06
1.60869e-06
1.55052e-06
1.4976e-06
1.44967e-06
1.4065e-06
1.36791e-06
1.33379e-06
1.30408e-06
1.27886e-06
1.25825e-06
1.24249e-06
1.23185e-06
1.22657e-06
1.22679e-06
1.23248e-06
1.24308e-06
1.25802e-06
1.27429e-06
1.29512e-06
1.09297e-06
1.43268e-06
1.71058e-06
1.89881e-06
2.00302e-06
2.03538e-06
2.01652e-06
1.96643e-06
1.89942e-06
1.82488e-06
1.74864e-06
1.6741e-06
1.60322e-06
1.53697e-06
1.47576e-06
1.41969e-06
1.36864e-06
1.32247e-06
1.28096e-06
1.24396e-06
1.2113e-06
1.18291e-06
1.15874e-06
1.13877e-06
1.12301e-06
1.11145e-06
1.104e-06
1.1004e-06
1.10024e-06
1.10262e-06
1.10679e-06
1.10989e-06
1.11474e-06
9.01673e-07
1.22224e-06
1.50447e-06
1.70238e-06
1.81889e-06
1.86633e-06
1.86264e-06
1.82591e-06
1.76992e-06
1.70408e-06
1.63452e-06
1.56505e-06
1.49794e-06
1.43448e-06
1.3753e-06
1.32069e-06
1.27069e-06
1.22524e-06
1.18422e-06
1.14748e-06
1.11487e-06
1.08627e-06
1.06152e-06
1.04051e-06
1.02305e-06
1.00893e-06
9.97814e-07
9.89223e-07
9.82523e-07
9.76698e-07
9.7095e-07
9.62742e-07
9.54434e-07
7.35807e-07
1.04764e-06
1.3354e-06
1.54283e-06
1.67068e-06
1.73139e-06
1.74114e-06
1.71641e-06
1.67033e-06
1.61219e-06
1.54832e-06
1.48285e-06
1.41845e-06
1.3567e-06
1.29854e-06
1.24442e-06
1.19456e-06
1.14897e-06
1.10759e-06
1.07029e-06
1.03689e-06
1.00722e-06
9.81047e-07
9.5813e-07
9.38168e-07
9.20783e-07
9.05501e-07
8.91706e-07
8.78673e-07
8.65383e-07
8.51067e-07
8.33549e-07
8.1476e-07
5.89809e-07
9.02988e-07
1.19764e-06
1.41413e-06
1.55239e-06
1.62477e-06
1.64624e-06
1.63193e-06
1.59436e-06
1.54277e-06
1.48364e-06
1.42141e-06
1.35901e-06
1.29833e-06
1.24048e-06
1.18611e-06
1.13554e-06
1.0889e-06
1.04616e-06
1.00722e-06
9.71916e-07
9.40029e-07
9.11298e-07
8.8541e-07
8.61988e-07
8.40579e-07
8.20642e-07
8.01518e-07
7.82478e-07
7.62576e-07
7.41104e-07
7.16284e-07
6.89545e-07
4.60309e-07
7.84876e-07
1.08743e-06
1.31226e-06
1.45996e-06
1.54272e-06
1.5746e-06
1.56966e-06
1.53986e-06
1.49427e-06
1.4395e-06
1.3802e-06
1.31953e-06
1.25961e-06
1.20174e-06
1.14676e-06
1.0951e-06
1.04698e-06
1.00243e-06
9.61386e-07
9.23684e-07
8.89101e-07
8.57353e-07
8.28094e-07
8.00914e-07
7.75333e-07
7.50799e-07
7.26672e-07
7.02267e-07
6.76746e-07
6.49487e-07
6.19045e-07
5.8649e-07
3.46934e-07
6.92246e-07
1.00264e-06
1.23463e-06
1.39061e-06
1.4824e-06
1.52326e-06
1.5263e-06
1.50292e-06
1.46205e-06
1.41037e-06
1.35271e-06
1.29249e-06
1.23204e-06
1.17291e-06
1.11606e-06
1.06208e-06
1.01128e-06
9.63764e-07
9.1951e-07
8.78389e-07
8.40192e-07
8.0464e-07
7.71395e-07
7.40057e-07
7.10165e-07
6.81204e-07
6.52597e-07
6.2374e-07
5.93931e-07
5.62641e-07
5.28782e-07
4.93006e-07
2.55583e-07
6.26329e-07
9.42496e-07
1.18006e-06
1.34315e-06
1.44299e-06
1.49203e-06
1.50255e-06
1.48544e-06
1.44945e-06
1.40127e-06
1.34585e-06
1.28675e-06
1.22648e-06
1.16672e-06
1.10857e-06
1.05273e-06
9.99586e-07
9.49327e-07
9.01983e-07
8.57473e-07
8.1563e-07
7.76218e-07
7.3894e-07
7.03447e-07
6.69344e-07
6.36194e-07
6.03519e-07
5.70837e-07
5.37604e-07
5.03421e-07
4.67504e-07
4.30374e-07
2.06037e-07
5.89995e-07
9.07128e-07
1.14791e-06
1.31638e-06
1.42254e-06
1.47787e-06
1.49385e-06
1.48085e-06
1.44746e-06
1.40041e-06
1.34484e-06
1.28451e-06
1.22212e-06
1.15958e-06
1.09815e-06
1.03865e-06
9.81586e-07
9.27222e-07
8.75653e-07
8.26849e-07
7.80692e-07
7.36994e-07
6.95515e-07
6.55971e-07
6.18046e-07
5.814e-07
5.45673e-07
5.10515e-07
4.75555e-07
4.40535e-07
4.05022e-07
3.69355e-07
2.24986e-07
5.86506e-07
8.97721e-07
1.13937e-06
1.31225e-06
1.42454e-06
1.48663e-06
1.50916e-06
1.50192e-06
1.47322e-06
1.42967e-06
1.37638e-06
1.3172e-06
1.25493e-06
1.19159e-06
1.12856e-06
1.0668e-06
1.0069e-06
9.49253e-07
8.94037e-07
8.41319e-07
7.91072e-07
7.43202e-07
6.97566e-07
6.53988e-07
6.12272e-07
5.72212e-07
5.33602e-07
4.96261e-07
4.60021e-07
4.24823e-07
3.90551e-07
3.57664e-07
3.0374e-07
6.17308e-07
9.14957e-07
1.15389e-06
1.32815e-06
1.44318e-06
1.50797e-06
1.53238e-06
1.52587e-06
1.49668e-06
1.45154e-06
1.39578e-06
1.33343e-06
1.2675e-06
1.20015e-06
1.13291e-06
1.06681e-06
1.00254e-06
9.4052e-07
8.80988e-07
8.24057e-07
7.69752e-07
7.18037e-07
6.6884e-07
6.22072e-07
5.77636e-07
5.35442e-07
4.95419e-07
4.57527e-07
4.21772e-07
3.88237e-07
3.57068e-07
3.28617e-07
4.16481e-07
6.82017e-07
9.61601e-07
1.197e-06
1.37418e-06
1.49533e-06
1.56768e-06
1.59994e-06
1.60067e-06
1.57755e-06
1.53702e-06
1.48429e-06
1.42345e-06
1.35763e-06
1.28917e-06
1.21981e-06
1.15078e-06
1.08296e-06
1.01694e-06
9.53115e-07
8.91741e-07
8.32964e-07
7.76868e-07
7.23494e-07
6.72867e-07
6.25005e-07
5.79938e-07
5.37715e-07
4.9842e-07
4.62171e-07
4.29144e-07
3.99562e-07
3.73655e-07
5.5194e-07
7.78583e-07
1.03643e-06
1.26282e-06
1.43539e-06
1.55284e-06
1.62122e-06
1.64899e-06
1.64488e-06
1.6168e-06
1.5714e-06
1.51402e-06
1.44881e-06
1.37891e-06
1.30664e-06
1.23368e-06
1.16123e-06
1.09014e-06
1.02098e-06
9.54155e-07
8.89938e-07
8.28512e-07
7.70005e-07
7.14519e-07
6.6214e-07
6.1296e-07
5.67076e-07
5.24604e-07
4.8568e-07
4.5046e-07
4.19107e-07
3.91857e-07
3.68623e-07
7.08819e-07
9.07823e-07
1.14845e-06
1.37337e-06
1.55384e-06
1.684e-06
1.76669e-06
1.80808e-06
1.8154e-06
1.7958e-06
1.75575e-06
1.70078e-06
1.63544e-06
1.56337e-06
1.48737e-06
1.40956e-06
1.33153e-06
1.25442e-06
1.17906e-06
1.10603e-06
1.03572e-06
9.68432e-07
9.04358e-07
8.43654e-07
7.86446e-07
7.32843e-07
6.8295e-07
6.3687e-07
5.94701e-07
5.56527e-07
5.22407e-07
4.92428e-07
4.66238e-07
8.90738e-07
1.06949e-06
1.28703e-06
1.49291e-06
1.65472e-06
1.76608e-06
1.83122e-06
1.8578e-06
1.8538e-06
1.82633e-06
1.78137e-06
1.72378e-06
1.6574e-06
1.58523e-06
1.5096e-06
1.43229e-06
1.35467e-06
1.27778e-06
1.2024e-06
1.12914e-06
1.05844e-06
9.90647e-07
9.26034e-07
8.64805e-07
8.07125e-07
7.53131e-07
7.02933e-07
6.56619e-07
6.14254e-07
5.75879e-07
5.41479e-07
5.11156e-07
4.84184e-07
1.10399e-06
1.27411e-06
1.49107e-06
1.71764e-06
1.91323e-06
2.0605e-06
2.15634e-06
2.20501e-06
2.21383e-06
2.19086e-06
2.14383e-06
2.07943e-06
2.00315e-06
1.91932e-06
1.83122e-06
1.74132e-06
1.65138e-06
1.56268e-06
1.47611e-06
1.3923e-06
1.31166e-06
1.23449e-06
1.16099e-06
1.09129e-06
1.02549e-06
9.63637e-07
9.05761e-07
8.51865e-07
8.01923e-07
7.55865e-07
7.13575e-07
6.74982e-07
6.39302e-07
1.35981e-06
1.51879e-06
1.69492e-06
1.86444e-06
1.99981e-06
2.09593e-06
2.15648e-06
2.18664e-06
2.19085e-06
2.173e-06
2.13679e-06
2.08573e-06
2.02308e-06
1.9518e-06
1.8745e-06
1.7934e-06
1.71036e-06
1.62689e-06
1.54416e-06
1.46311e-06
1.38441e-06
1.30857e-06
1.23592e-06
1.16672e-06
1.1011e-06
1.03915e-06
9.80874e-07
9.26268e-07
8.75285e-07
8.27865e-07
7.83883e-07
7.43458e-07
7.0529e-07
1.67054e-06
1.85018e-06
2.08973e-06
2.3674e-06
2.61075e-06
2.78283e-06
2.88129e-06
2.91778e-06
2.90617e-06
2.85943e-06
2.78843e-06
2.70149e-06
2.60466e-06
2.50222e-06
2.39713e-06
2.29142e-06
2.18648e-06
2.08328e-06
1.98248e-06
1.88458e-06
1.78991e-06
1.69872e-06
1.61116e-06
1.52733e-06
1.44728e-06
1.37102e-06
1.29852e-06
1.22971e-06
1.16452e-06
1.10284e-06
1.04453e-06
9.89511e-07
9.36842e-07
2.06658e-06
2.20426e-06
2.28246e-06
2.3648e-06
2.46077e-06
2.56243e-06
2.65725e-06
2.73317e-06
2.78171e-06
2.79952e-06
2.78766e-06
2.74982e-06
2.69079e-06
2.61554e-06
2.52865e-06
2.43403e-06
2.33485e-06
2.2336e-06
2.13216e-06
2.03189e-06
1.93378e-06
1.83847e-06
1.74638e-06
1.65774e-06
1.57267e-06
1.49116e-06
1.41316e-06
1.33862e-06
1.26744e-06
1.19962e-06
1.13509e-06
1.07426e-06
1.01533e-06
2.56784e-06
2.87775e-06
3.30081e-06
3.72545e-06
4.00795e-06
4.13637e-06
4.15712e-06
4.11071e-06
4.02339e-06
3.91219e-06
3.78722e-06
3.65391e-06
3.51537e-06
3.37364e-06
3.23032e-06
3.08682e-06
2.94444e-06
2.8044e-06
2.66775e-06
2.53533e-06
2.4078e-06
2.28562e-06
2.16904e-06
2.05815e-06
1.95292e-06
1.85318e-06
1.75871e-06
1.66921e-06
1.58442e-06
1.50408e-06
1.42803e-06
1.35645e-06
1.28822e-06
3.27159e-06
3.18506e-06
2.91931e-06
2.88389e-06
3.07787e-06
3.35487e-06
3.60862e-06
3.79147e-06
3.8931e-06
3.92495e-06
3.90671e-06
3.85766e-06
3.79336e-06
3.72483e-06
3.6589e-06
3.59909e-06
3.54659e-06
3.50115e-06
3.46181e-06
3.42728e-06
3.39628e-06
3.36763e-06
3.34033e-06
3.31356e-06
3.28665e-06
3.25906e-06
3.23036e-06
3.20022e-06
3.16846e-06
3.13511e-06
3.10037e-06
3.06597e-06
3.02953e-06
4.30785e-06
5.53852e-06
6.29915e-06
6.54954e-06
6.45104e-06
6.23595e-06
6.09449e-06
6.11001e-06
6.28902e-06
6.5927e-06
6.96754e-06
7.36627e-06
7.75451e-06
8.11013e-06
8.42081e-06
8.68125e-06
8.89074e-06
9.05136e-06
9.16676e-06
9.24136e-06
9.27978e-06
9.28654e-06
9.26586e-06
9.22154e-06
9.15691e-06
9.07476e-06
8.97747e-06
8.86676e-06
8.74427e-06
8.61068e-06
8.46795e-06
8.31706e-06
8.16085e-06
5.63418e-06
3.57994e-06
2.76313e-06
4.62669e-06
7.34628e-06
9.91465e-06
1.20959e-05
1.38255e-05
1.51159e-05
1.60088e-05
1.65518e-05
1.67937e-05
1.67827e-05
1.65647e-05
1.6181e-05
1.56686e-05
1.50595e-05
1.43811e-05
1.3656e-05
1.29028e-05
1.21365e-05
1.13686e-05
1.0608e-05
9.86146e-06
9.13351e-06
8.42712e-06
7.74395e-06
7.08398e-06
6.44709e-06
5.82928e-06
5.23297e-06
4.64384e-06
4.0813e-06
1.14378e-05
1.65118e-05
1.82746e-05
1.97808e-05
2.02441e-05
1.94869e-05
1.77312e-05
1.5252e-05
1.24068e-05
9.74086e-06
8.15458e-06
8.5821e-06
1.07358e-05
1.36424e-05
1.67169e-05
1.97055e-05
2.24992e-05
2.50527e-05
2.73513e-05
2.93966e-05
3.11989e-05
3.27731e-05
3.41363e-05
3.53062e-05
3.63006e-05
3.71363e-05
3.78297e-05
3.83963e-05
3.8852e-05
3.92126e-05
3.94991e-05
3.9731e-05
3.99591e-05
2.4885e-05
2.86578e-05
3.90102e-05
5.34555e-05
6.77239e-05
8.16519e-05
9.45034e-05
0.000105672
0.000115113
0.000122901
0.000129143
0.000133996
0.000137628
0.000140204
0.000141877
0.000142786
0.000143053
0.000142787
0.000142079
0.00014101
0.000139646
0.000138045
0.000136254
0.000134314
0.000132257
0.000130111
0.000127898
0.000125634
0.000123337
0.000121008
0.000118667
0.000116319
0.000114184
0.000543321
0.000510569
0.000491583
0.00046787
0.000443818
0.000421447
0.000399917
0.000379295
0.000359851
0.000341604
0.00032454
0.000308645
0.000293878
0.000280174
0.000267463
0.000255673
0.000244727
0.000234553
0.000225081
0.000216246
0.000207986
0.000200247
0.000192979
0.000186136
0.000179678
0.000173568
0.00016777
0.000162259
0.000156987
0.00015196
0.000147007
0.000142697
0.000138709
7.55894e-05
6.11792e-05
4.56385e-05
3.70797e-05
4.12022e-05
5.13907e-05
6.11948e-05
6.97512e-05
7.81485e-05
8.70273e-05
9.47488e-05
0.000100764
9.49868e-05
7.18362e-05
5.79306e-05
5.13083e-05
4.34417e-05
3.59927e-05
3.03895e-05
2.67181e-05
2.43441e-05
2.23167e-05
1.98575e-05
1.66051e-05
1.25829e-05
8.33774e-06
4.09301e-06
2.5301e-06
9.03576e-06
1.18522e-05
1.12329e-05
1.35201e-05
1.76341e-05
2.42114e-05
2.84875e-05
2.77672e-05
2.44069e-05
2.10313e-05
1.83582e-05
1.61925e-05
1.43483e-05
1.27536e-05
1.13706e-05
1.01634e-05
9.09968e-06
8.15483e-06
7.31153e-06
6.5567e-06
5.87945e-06
5.27028e-06
4.72105e-06
4.22505e-06
3.77688e-06
3.37218e-06
3.0073e-06
2.67898e-06
2.38426e-06
2.12057e-06
1.88565e-06
1.6771e-06
1.49169e-06
1.32551e-06
1.17541e-06
1.04149e-06
9.28055e-07
8.40458e-07
7.7915e-07
7.37246e-07
7.05182e-07
6.76221e-07
6.47192e-07
6.16588e-07
5.84024e-07
5.50723e-07
5.18912e-07
4.90054e-07
4.6359e-07
4.3729e-07
4.08849e-07
3.77404e-07
3.43986e-07
3.10796e-07
2.80027e-07
2.53007e-07
2.29998e-07
2.10564e-07
1.94065e-07
1.79814e-07
1.67951e-07
1.57566e-07
1.48962e-07
1.41789e-07
1.35908e-07
1.30971e-07
1.27176e-07
1.23675e-07
1.21872e-07
1.18989e-07
1.19563e-07
1.14645e-07
0.000103838
8.97524e-05
7.36132e-05
6.58877e-05
6.67157e-05
7.12801e-05
7.48906e-05
7.67062e-05
7.87056e-05
8.2288e-05
8.70024e-05
9.12714e-05
9.65809e-05
8.9528e-05
6.61636e-05
5.08727e-05
4.42202e-05
3.70772e-05
3.04374e-05
2.59887e-05
2.33265e-05
2.12573e-05
1.88676e-05
1.57571e-05
1.20219e-05
7.80865e-06
2.1006e-06
5.63885e-06
1.08534e-05
9.92678e-06
1.05215e-05
1.39309e-05
2.00835e-05
2.7207e-05
2.95196e-05
2.72617e-05
2.36626e-05
2.05586e-05
1.81063e-05
1.6067e-05
1.43074e-05
1.27739e-05
1.14314e-05
1.02473e-05
9.19526e-06
8.25576e-06
7.41421e-06
6.65862e-06
5.97857e-06
5.36499e-06
4.81021e-06
4.30795e-06
3.85311e-06
3.44156e-06
3.06973e-06
2.73443e-06
2.43275e-06
2.16221e-06
1.9207e-06
1.70604e-06
1.51528e-06
1.34469e-06
1.19113e-06
1.05464e-06
9.39684e-07
8.521e-07
7.92758e-07
7.54418e-07
7.26349e-07
7.00482e-07
6.72725e-07
6.41287e-07
6.06104e-07
5.69125e-07
5.33429e-07
5.01173e-07
4.72149e-07
4.44112e-07
4.14498e-07
3.82122e-07
3.47784e-07
3.1361e-07
2.81841e-07
2.53893e-07
2.30099e-07
2.10055e-07
1.93092e-07
1.7871e-07
1.66567e-07
1.55883e-07
1.47071e-07
1.39759e-07
1.33784e-07
1.28803e-07
1.2496e-07
1.21424e-07
1.19423e-07
1.16353e-07
1.16534e-07
1.11121e-07
9.47686e-05
9.22352e-05
8.48383e-05
7.96235e-05
7.71446e-05
7.52399e-05
7.21778e-05
6.853e-05
6.65023e-05
6.73623e-05
7.03307e-05
7.39075e-05
7.85611e-05
8.43354e-05
7.80419e-05
5.83371e-05
4.3469e-05
3.72769e-05
3.18323e-05
2.62356e-05
2.20321e-05
1.91976e-05
1.66847e-05
1.37078e-05
9.99683e-06
5.37696e-06
5.03142e-06
1.0043e-05
9.46433e-06
7.3953e-06
1.06394e-05
1.56116e-05
2.42926e-05
2.9932e-05
2.96917e-05
2.63422e-05
2.28495e-05
2.0086e-05
1.78608e-05
1.59535e-05
1.42782e-05
1.2801e-05
1.14944e-05
1.03319e-05
9.29236e-06
8.35971e-06
7.52105e-06
6.76524e-06
6.0825e-06
5.46438e-06
4.9038e-06
4.39496e-06
3.93311e-06
3.51436e-06
3.13529e-06
2.79282e-06
2.48409e-06
2.2067e-06
1.95862e-06
1.73782e-06
1.54153e-06
1.36603e-06
1.20806e-06
1.06747e-06
9.48886e-07
8.58946e-07
7.99488e-07
7.63425e-07
7.39054e-07
7.16892e-07
6.91667e-07
6.60958e-07
6.24688e-07
5.85338e-07
5.46811e-07
5.1205e-07
4.81313e-07
4.52428e-07
4.22597e-07
3.90304e-07
3.56087e-07
3.2196e-07
2.90175e-07
2.62213e-07
2.38453e-07
2.18494e-07
2.01627e-07
1.87222e-07
1.74699e-07
1.64461e-07
1.55671e-07
1.48382e-07
1.42437e-07
1.37542e-07
1.33746e-07
1.30418e-07
1.28298e-07
1.25771e-07
1.25205e-07
1.20716e-07
6.74505e-05
6.66426e-05
6.30021e-05
5.91162e-05
5.56189e-05
5.16978e-05
4.69818e-05
4.27008e-05
4.08664e-05
4.187e-05
4.44637e-05
4.8192e-05
5.29468e-05
6.03525e-05
6.78486e-05
6.51682e-05
5.10833e-05
3.74857e-05
3.1015e-05
2.73363e-05
2.34261e-05
1.95195e-05
1.60318e-05
1.2804e-05
9.90576e-06
9.1245e-06
1.06447e-05
8.79769e-06
4.16136e-06
7.549e-06
1.14098e-05
2.04423e-05
2.89792e-05
3.1314e-05
2.88402e-05
2.51579e-05
2.20762e-05
1.96648e-05
1.76337e-05
1.58401e-05
1.42426e-05
1.28202e-05
1.15501e-05
1.04111e-05
9.38644e-06
8.46272e-06
7.62843e-06
6.87335e-06
6.18851e-06
5.56625e-06
5.00014e-06
4.4849e-06
4.01615e-06
3.59022e-06
3.20386e-06
2.85408e-06
2.53812e-06
2.25362e-06
1.99867e-06
1.77142e-06
1.56927e-06
1.38864e-06
1.22618e-06
1.08163e-06
9.5974e-07
8.6787e-07
8.08771e-07
7.7548e-07
7.55315e-07
7.37363e-07
7.15129e-07
6.85446e-07
6.48094e-07
6.06009e-07
5.63944e-07
5.25724e-07
4.92194e-07
4.61335e-07
4.30163e-07
3.96837e-07
3.61634e-07
3.2646e-07
2.93599e-07
2.64622e-07
2.39982e-07
2.19303e-07
2.0187e-07
1.8704e-07
1.74264e-07
1.6374e-07
1.54667e-07
1.47172e-07
1.41075e-07
1.36066e-07
1.32203e-07
1.28838e-07
1.26731e-07
1.2418e-07
1.23816e-07
1.1938e-07
2.55593e-05
2.49248e-05
2.21147e-05
1.88464e-05
1.60598e-05
1.39324e-05
1.31647e-05
1.4654e-05
1.73599e-05
1.95212e-05
2.07777e-05
2.23782e-05
2.60141e-05
3.20461e-05
4.07979e-05
4.97094e-05
5.17478e-05
4.45337e-05
3.39067e-05
2.62124e-05
2.22536e-05
1.96933e-05
1.72842e-05
1.49358e-05
1.28348e-05
1.05584e-05
6.23974e-06
7.78948e-07
5.83512e-06
7.78543e-06
1.66699e-05
2.73304e-05
3.21125e-05
3.09155e-05
2.73272e-05
2.39808e-05
2.1396e-05
1.9277e-05
1.74048e-05
1.57157e-05
1.41948e-05
1.28273e-05
1.1595e-05
1.04818e-05
9.47459e-06
8.56191e-06
7.73349e-06
6.98018e-06
6.294e-06
5.66815e-06
5.09691e-06
4.57551e-06
4.09995e-06
3.66685e-06
3.27313e-06
2.91596e-06
2.59268e-06
2.30103e-06
2.0392e-06
1.80547e-06
1.59741e-06
1.41148e-06
1.2442e-06
1.09506e-06
9.68884e-07
8.73845e-07
8.13888e-07
7.82528e-07
7.66286e-07
7.52825e-07
7.34301e-07
7.06604e-07
6.69144e-07
6.25147e-07
5.80169e-07
5.38972e-07
5.03091e-07
4.70754e-07
4.38837e-07
4.05181e-07
3.69773e-07
3.34378e-07
3.01273e-07
2.72089e-07
2.47331e-07
2.26631e-07
2.09238e-07
1.94471e-07
1.81843e-07
1.70984e-07
1.6199e-07
1.5448e-07
1.48351e-07
1.43342e-07
1.3944e-07
1.36153e-07
1.33909e-07
1.31672e-07
1.30868e-07
1.27061e-07
5.68966e-06
7.45321e-06
9.32479e-06
1.10193e-05
1.25929e-05
1.40866e-05
1.53667e-05
1.60577e-05
1.57308e-05
1.42473e-05
1.2141e-05
1.06404e-05
1.19844e-05
1.64384e-05
2.15805e-05
2.67789e-05
3.32325e-05
3.7835e-05
3.69842e-05
3.16669e-05
2.50978e-05
1.94335e-05
1.50135e-05
1.13744e-05
8.57017e-06
6.99815e-06
7.65535e-06
7.49842e-06
4.93868e-06
1.41955e-05
2.61192e-05
3.24748e-05
3.24314e-05
2.91508e-05
2.56707e-05
2.29643e-05
2.08076e-05
1.89091e-05
1.71701e-05
1.55797e-05
1.41344e-05
1.28224e-05
1.16301e-05
1.05455e-05
9.55811e-06
8.65823e-06
7.83695e-06
7.08636e-06
6.39959e-06
5.77073e-06
5.19478e-06
4.66749e-06
4.18529e-06
3.74506e-06
3.34398e-06
2.97936e-06
2.64867e-06
2.34974e-06
2.08088e-06
1.84048e-06
1.62629e-06
1.43484e-06
1.26257e-06
1.10873e-06
9.7822e-07
8.79963e-07
8.19153e-07
7.89871e-07
7.77889e-07
7.69433e-07
7.55251e-07
7.30149e-07
6.92999e-07
6.47188e-07
5.99045e-07
5.54339e-07
5.15405e-07
4.80815e-07
4.47364e-07
4.12588e-07
3.76183e-07
3.39763e-07
3.05609e-07
2.75427e-07
2.49797e-07
2.28379e-07
2.10408e-07
1.95174e-07
1.82196e-07
1.71145e-07
1.61958e-07
1.54208e-07
1.47917e-07
1.42796e-07
1.38812e-07
1.35466e-07
1.33201e-07
1.30895e-07
1.30261e-07
1.26369e-07
9.55323e-06
1.11123e-05
1.27881e-05
1.40826e-05
1.47962e-05
1.49567e-05
1.46385e-05
1.38778e-05
1.27418e-05
1.14382e-05
1.03919e-05
1.01156e-05
1.09857e-05
1.35795e-05
1.78231e-05
2.13204e-05
2.19531e-05
2.20564e-05
2.41458e-05
2.60471e-05
2.57508e-05
2.35592e-05
2.0555e-05
1.78506e-05
1.54474e-05
1.26588e-05
7.55355e-06
2.87851e-06
1.50353e-05
2.66759e-05
3.30159e-05
3.34007e-05
3.04219e-05
2.69775e-05
2.42584e-05
2.21361e-05
2.02751e-05
1.85402e-05
1.6922e-05
1.54297e-05
1.40606e-05
1.28058e-05
1.1656e-05
1.06025e-05
9.63701e-06
8.75148e-06
7.93858e-06
7.19173e-06
6.50518e-06
5.87394e-06
5.2937e-06
4.76079e-06
4.27205e-06
3.82471e-06
3.41619e-06
3.04401e-06
2.70579e-06
2.39948e-06
2.12348e-06
1.8763e-06
1.65584e-06
1.45869e-06
1.28115e-06
1.1222e-06
9.86693e-07
8.84338e-07
8.21749e-07
7.93868e-07
7.85903e-07
7.82668e-07
7.73425e-07
7.51737e-07
7.15722e-07
6.68759e-07
6.17881e-07
5.69905e-07
5.2807e-07
4.91405e-07
4.56688e-07
4.21176e-07
3.8426e-07
3.47376e-07
3.12775e-07
2.82217e-07
2.56334e-07
2.34796e-07
2.16809e-07
2.01613e-07
1.88666e-07
1.77638e-07
1.68296e-07
1.6061e-07
1.54354e-07
1.49266e-07
1.45279e-07
1.42027e-07
1.3967e-07
1.37654e-07
1.36677e-07
1.33333e-07
6.23044e-06
7.37729e-06
8.62736e-06
9.61963e-06
1.01929e-05
1.03681e-05
1.0261e-05
9.99947e-06
9.71347e-06
9.56089e-06
9.72353e-06
1.03672e-05
1.14679e-05
1.30102e-05
1.55127e-05
1.94383e-05
2.29828e-05
2.35154e-05
2.08996e-05
1.74226e-05
1.51439e-05
1.39454e-05
1.26615e-05
1.04665e-05
6.65844e-06
3.63553e-06
1.08767e-05
2.10165e-05
2.96064e-05
3.39686e-05
3.37787e-05
3.09378e-05
2.77138e-05
2.51544e-05
2.317e-05
2.14207e-05
1.97526e-05
1.81584e-05
1.66604e-05
1.52667e-05
1.39746e-05
1.27788e-05
1.16737e-05
1.06534e-05
9.71151e-06
8.84179e-06
8.03852e-06
7.29646e-06
6.61098e-06
5.97798e-06
5.39389e-06
4.85563e-06
4.36049e-06
3.90606e-06
3.49007e-06
3.11025e-06
2.76441e-06
2.4506e-06
2.16731e-06
1.91318e-06
1.68623e-06
1.48314e-06
1.30007e-06
1.13575e-06
9.94947e-07
8.88123e-07
8.23408e-07
7.96781e-07
7.92983e-07
7.95414e-07
7.91788e-07
7.74277e-07
7.40055e-07
6.92324e-07
6.38751e-07
5.87237e-07
5.42033e-07
5.02728e-07
4.66157e-07
4.29323e-07
3.91308e-07
3.53359e-07
3.17695e-07
2.86133e-07
2.59378e-07
2.37125e-07
2.18567e-07
2.02911e-07
1.89597e-07
1.78287e-07
1.68784e-07
1.60972e-07
1.54546e-07
1.4934e-07
1.45296e-07
1.42011e-07
1.39654e-07
1.37596e-07
1.36785e-07
1.3338e-07
4.65609e-06
5.48647e-06
6.37731e-06
7.11525e-06
7.60164e-06
7.84876e-06
7.92444e-06
7.90924e-06
7.9002e-06
8.02927e-06
8.45272e-06
9.28538e-06
1.05586e-05
1.21589e-05
1.39764e-05
1.63699e-05
1.98434e-05
2.3529e-05
2.56652e-05
2.54731e-05
2.35642e-05
2.1172e-05
1.94056e-05
1.90874e-05
2.07671e-05
2.45339e-05
2.92489e-05
3.30349e-05
3.43991e-05
3.31738e-05
3.04872e-05
2.77286e-05
2.55475e-05
2.38274e-05
2.22681e-05
2.07312e-05
1.92188e-05
1.77649e-05
1.63879e-05
1.50922e-05
1.38775e-05
1.27423e-05
1.16839e-05
1.06985e-05
9.78173e-06
8.92929e-06
8.13694e-06
7.40075e-06
6.71719e-06
6.08305e-06
5.49554e-06
4.95216e-06
4.45074e-06
3.98925e-06
3.56572e-06
3.17816e-06
2.82455e-06
2.5031e-06
2.21239e-06
1.95116e-06
1.71754e-06
1.50827e-06
1.31941e-06
1.14934e-06
1.00271e-06
8.90678e-07
8.23022e-07
7.97038e-07
7.9719e-07
8.05497e-07
8.08062e-07
7.95529e-07
7.63917e-07
7.16065e-07
6.60178e-07
6.05269e-07
5.567e-07
5.1474e-07
4.7637e-07
4.38378e-07
3.99536e-07
3.60886e-07
3.24584e-07
2.92485e-07
2.65346e-07
2.42875e-07
2.24236e-07
2.08584e-07
1.95306e-07
1.84045e-07
1.74597e-07
1.66746e-07
1.6035e-07
1.55312e-07
1.51258e-07
1.48096e-07
1.45701e-07
1.43935e-07
1.42864e-07
1.39968e-07
3.92817e-06
4.52641e-06
5.17201e-06
5.72617e-06
6.1084e-06
6.31184e-06
6.38131e-06
6.39246e-06
6.44805e-06
6.67535e-06
7.20076e-06
8.09496e-06
9.35623e-06
1.09214e-05
1.26602e-05
1.44719e-05
1.6582e-05
1.9368e-05
2.2601e-05
2.54747e-05
2.7432e-05
2.85375e-05
2.93094e-05
3.0224e-05
3.14138e-05
3.25991e-05
3.31884e-05
3.26849e-05
3.11015e-05
2.89909e-05
2.70011e-05
2.53992e-05
2.40539e-05
2.27519e-05
2.14049e-05
2.00325e-05
1.86774e-05
1.73653e-05
1.6107e-05
1.49077e-05
1.37707e-05
1.26972e-05
1.16869e-05
1.0738e-05
9.84799e-06
9.01429e-06
8.23414e-06
7.50489e-06
6.82407e-06
6.18941e-06
5.59888e-06
5.05065e-06
4.54306e-06
4.07451e-06
3.64339e-06
3.24798e-06
2.88649e-06
2.55726e-06
2.25897e-06
1.99046e-06
1.74995e-06
1.53426e-06
1.3393e-06
1.16314e-06
1.01024e-06
8.92433e-07
8.21238e-07
7.95516e-07
7.99608e-07
8.14152e-07
8.23577e-07
8.16857e-07
7.88651e-07
7.41236e-07
6.83253e-07
6.24835e-07
5.72553e-07
5.27475e-07
4.86815e-07
4.47186e-07
4.07053e-07
3.67232e-07
3.29809e-07
2.96676e-07
2.68647e-07
2.45456e-07
2.2625e-07
2.1015e-07
1.96513e-07
1.84966e-07
1.75287e-07
1.67318e-07
1.60869e-07
1.55765e-07
1.51638e-07
1.48457e-07
1.46088e-07
1.44299e-07
1.43414e-07
1.40476e-07
3.35348e-06
3.78793e-06
4.2481e-06
4.64085e-06
4.91003e-06
5.05241e-06
5.10602e-06
5.1388e-06
5.24643e-06
5.54425e-06
6.13293e-06
7.05237e-06
8.27609e-06
9.73829e-06
1.13625e-05
1.30486e-05
1.47227e-05
1.64876e-05
1.85503e-05
2.0908e-05
2.32817e-05
2.53532e-05
2.698e-05
2.81781e-05
2.89276e-05
2.91197e-05
2.8721e-05
2.78514e-05
2.67665e-05
2.57108e-05
2.47609e-05
2.38336e-05
2.28271e-05
2.17163e-05
2.05375e-05
1.93354e-05
1.81388e-05
1.69632e-05
1.58191e-05
1.47145e-05
1.36551e-05
1.26443e-05
1.16834e-05
1.07724e-05
9.91072e-06
9.0972e-06
8.33051e-06
7.60922e-06
6.93195e-06
6.29736e-06
5.70422e-06
5.15137e-06
4.63771e-06
4.16211e-06
3.72332e-06
3.31994e-06
2.95041e-06
2.61324e-06
2.30722e-06
2.03125e-06
1.78365e-06
1.56127e-06
1.3599e-06
1.17727e-06
1.01759e-06
8.93255e-07
8.17669e-07
7.91558e-07
7.9936e-07
8.20355e-07
8.37239e-07
8.37178e-07
8.13262e-07
7.66997e-07
7.0734e-07
6.45546e-07
5.8949e-07
5.41169e-07
4.98135e-07
4.56883e-07
4.15586e-07
3.7482e-07
3.36579e-07
3.02766e-07
2.74238e-07
2.50742e-07
2.31394e-07
2.15265e-07
2.01661e-07
1.9018e-07
1.8058e-07
1.72692e-07
1.66306e-07
1.61162e-07
1.57261e-07
1.54283e-07
1.51942e-07
1.50466e-07
1.49393e-07
1.46941e-07
2.85223e-06
3.161e-06
3.48086e-06
3.75112e-06
3.93394e-06
4.027e-06
4.06204e-06
4.10369e-06
4.24671e-06
4.59652e-06
5.227e-06
6.14752e-06
7.31723e-06
8.67581e-06
1.01634e-05
1.17243e-05
1.32912e-05
1.48081e-05
1.62957e-05
1.78269e-05
1.9413e-05
2.09616e-05
2.23186e-05
2.33845e-05
2.40992e-05
2.44674e-05
2.4543e-05
2.44049e-05
2.41229e-05
2.37198e-05
2.31755e-05
2.24732e-05
2.16305e-05
2.06888e-05
1.96876e-05
1.8654e-05
1.76064e-05
1.65593e-05
1.55252e-05
1.45138e-05
1.3532e-05
1.25845e-05
1.1674e-05
1.08024e-05
9.9705e-06
9.17853e-06
8.42651e-06