/*--------------------------------*- C++ -*----------------------------------*\
  =========                 |
  \\      /  F ield         | OpenFOAM: The Open Source CFD Toolbox
   \\    /   O peration     | Website:  https://openfoam.org
    \\  /    A nd           | Version:  10
     \\/     M anipulation  |
\*---------------------------------------------------------------------------*/
FoamFile
{
    format      ascii;
    class       volScalarField;
    location    "0.055";
    object      p;
}
// * * * * * * * * * * * * * * * * * * * * * * * * * * * * * * * * * * * * * //

dimensions      [0 2 -2 0 0 0 0];

internalField   nonuniform List<scalar> 
6820
(
6.80323
-7.52749
-9.52539
-9.70481
-9.85798
-9.79485
-9.75855
-9.77251
-9.81011
-9.86146
-9.92009
-9.98226
-10.0463
-10.1115
-10.1773
-10.2434
-10.3097
-10.376
-10.4421
-10.5079
-10.5732
-10.6377
-10.7014
-10.7638
-10.8249
-10.8841
-10.9409
-10.9946
-11.0448
-11.0879
-11.1299
-11.1438
-11.2028
1.42573
-7.32459
-9.33031
-9.58325
-9.78841
-9.7889
-9.77395
-9.79431
-9.83209
-9.88065
-9.93609
-9.99541
-10.0571
-10.1205
-10.1849
-10.2501
-10.3157
-10.3815
-10.4473
-10.5128
-10.5779
-10.6424
-10.7061
-10.7687
-10.8299
-10.8894
-10.9466
-11.001
-11.0521
-11.0981
-11.1425
-11.1761
-11.2547
-0.65388
-6.11204
-8.53658
-9.12776
-9.50796
-9.65134
-9.69849
-9.74593
-9.79954
-9.85796
-9.92033
-9.98491
-10.0506
-10.1168
-10.1832
-10.2497
-10.3161
-10.3825
-10.4486
-10.5143
-10.5795
-10.6441
-10.7079
-10.7708
-10.8324
-10.8927
-10.9512
-11.0076
-11.0624
-11.1148
-11.1708
-11.228
-11.3356
-2.22072
-5.92824
-8.23885
-8.88835
-9.26991
-9.47659
-9.57402
-9.65351
-9.73018
-9.80371
-9.87579
-9.94706
-10.0177
-10.088
-10.1578
-10.2272
-10.2961
-10.3646
-10.4326
-10.5
-10.5668
-10.6329
-10.6982
-10.7627
-10.8263
-10.8891
-10.951
-11.0125
-11.0747
-11.1394
-11.2142
-11.3066
-11.4581
-3.50487
-5.97128
-7.93021
-8.61304
-9.02303
-9.29566
-9.44715
-9.55738
-9.65376
-9.74066
-9.82219
-9.90075
-9.97698
-10.0514
-10.1246
-10.1967
-10.2679
-10.3383
-10.4079
-10.4767
-10.5448
-10.6122
-10.679
-10.7452
-10.811
-10.8768
-10.943
-11.0107
-11.0823
-11.1609
-11.2557
-11.3772
-11.5598
-4.4612
-6.0929
-7.74458
-8.45846
-8.87798
-9.17286
-9.35045
-9.47724
-9.58573
-9.6822
-9.77089
-9.85494
-9.93573
-10.014
-10.0902
-10.1648
-10.238
-10.3101
-10.3811
-10.4513
-10.5206
-10.5894
-10.6576
-10.7255
-10.7936
-10.8623
-10.9327
-11.0064
-11.0861
-11.1759
-11.2846
-11.4219
-11.6134
-5.20524
-6.30334
-7.65517
-8.33938
-8.74533
-9.04889
-9.25062
-9.39687
-9.51947
-9.62657
-9.72303
-9.81284
-9.89803
-9.97967
-10.0586
-10.1354
-10.2105
-10.2842
-10.3566
-10.428
-10.4985
-10.5683
-10.6377
-10.7071
-10.7769
-10.8479
-10.9213
-10.9989
-11.0835
-11.1792
-11.2931
-11.4328
-11.6146
-5.78752
-6.53138
-7.61537
-8.25299
-8.64767
-8.95358
-9.17008
-9.32897
-9.46059
-9.57494
-9.67718
-9.77156
-9.86048
-9.94527
-10.0269
-10.1059
-10.1829
-10.2581
-10.3319
-10.4045
-10.4761
-10.5469
-10.6174
-10.688
-10.7592
-10.832
-10.9075
-10.9875
-11.0747
-11.1725
-11.2863
-11.4213
-11.5867
-6.249
-6.76117
-7.62311
-8.2013
-8.57568
-8.87254
-9.09447
-9.26206
-9.40139
-9.52267
-9.63083
-9.73002
-9.82288
-9.9109
-9.99515
-10.0764
-10.1552
-10.232
-10.307
-10.3807
-10.4533
-10.5251
-10.5965
-10.668
-10.7402
-10.814
-10.8905
-10.9714
-11.0588
-11.1554
-11.2648
-11.3901
-11.5354
-6.61948
-6.97859
-7.65913
-8.17145
-8.5219
-8.80672
-9.03003
-9.20366
-9.34866
-9.47507
-9.58774
-9.6907
-9.78671
-9.87741
-9.96392
-10.0471
-10.1275
-10.2057
-10.2819
-10.3566
-10.43
-10.5026
-10.5747
-10.6467
-10.7194
-10.7936
-10.8702
-10.9506
-11.0365
-11.1296
-11.2321
-11.3455
-11.4706
-6.92021
-7.17731
-7.71383
-8.16124
-8.48557
-8.75509
-8.97457
-9.15022
-9.29844
-9.42847
-9.54484
-9.6512
-9.75021
-9.84353
-9.93231
-10.0174
-10.0994
-10.1789
-10.2563
-10.3319
-10.4061
-10.4793
-10.5518
-10.6241
-10.6969
-10.7708
-10.8467
-10.9255
-11.0084
-11.0965
-11.1907
-11.2913
-11.3976
-7.16671
-7.35497
-7.77865
-8.16489
-8.46167
-8.71426
-8.92709
-9.10256
-9.25263
-9.38529
-9.50456
-9.61371
-9.71523
-9.81077
-9.90148
-9.98823
-10.0717
-10.1524
-10.2307
-10.307
-10.3818
-10.4553
-10.528
-10.6003
-10.6727
-10.7457
-10.8201
-10.8965
-10.9755
-11.0578
-11.1433
-11.2316
-11.3211
-7.37025
-7.51131
-7.84748
-8.17861
-8.44802
-8.68321
-8.88733
-9.06034
-9.21051
-9.34443
-9.46561
-9.57688
-9.68048
-9.77797
-9.87043
-9.95872
-10.0435
-10.1253
-10.2045
-10.2815
-10.3567
-10.4305
-10.5031
-10.575
-10.6467
-10.7185
-10.7909
-10.8643
-10.9389
-11.015
-11.092
-11.1691
-11.2442
-7.53915
-7.64726
-7.91597
-8.19884
-8.44182
-8.65963
-8.85381
-9.0228
-9.17191
-9.30623
-9.4287
-9.54163
-9.64697
-9.74613
-9.84013
-9.92977
-10.0157
-10.0984
-10.1783
-10.2559
-10.3313
-10.4051
-10.4775
-10.5488
-10.6194
-10.6895
-10.7596
-10.8296
-10.8997
-10.9697
-11.0389
-11.1061
-11.1694
-7.67955
-7.76422
-7.98107
-8.22263
-8.4409
-8.64198
-8.82574
-8.98964
-9.13667
-9.27055
-9.39357
-9.50759
-9.61423
-9.71474
-9.81003
-9.90084
-9.98777
-10.0713
-10.1518
-10.2297
-10.3054
-10.379
-10.4509
-10.5214
-10.5907
-10.659
-10.7265
-10.7932
-10.8589
-10.9232
-10.9853
-11.0443
-11.0981
-7.79602
-7.86371
-8.04073
-8.24755
-8.4433
-8.6286
-8.80192
-8.96006
-9.1043
-9.23712
-9.36019
-9.47491
-9.58257
-9.68421
-9.78061
-9.87244
-9.96024
-10.0445
-10.1255
-10.2036
-10.2792
-10.3526
-10.4239
-10.4934
-10.5612
-10.6276
-10.6925
-10.7558
-10.8173
-10.8765
-10.9326
-10.9847
-11.0312
-7.89202
-7.9472
-8.09361
-8.27161
-8.44728
-8.61808
-8.78133
-8.93346
-9.07449
-9.20581
-9.32851
-9.44357
-9.55194
-9.65445
-9.75177
-9.84445
-9.93298
-10.0178
-10.0991
-10.1774
-10.2529
-10.3259
-10.3965
-10.4649
-10.5312
-10.5956
-10.658
-10.7182
-10.7759
-10.8306
-10.8817
-10.9284
-10.9693
-7.97011
-8.01596
-8.13882
-8.29322
-8.45135
-8.60907
-8.76293
-8.90909
-9.04669
-9.17625
-9.29831
-9.41345
-9.52233
-9.62555
-9.72363
-9.81704
-9.90619
-9.99142
-10.0731
-10.1514
-10.2267
-10.2991
-10.3689
-10.4361
-10.501
-10.5634
-10.6233
-10.6806
-10.7349
-10.7859
-10.8329
-10.8754
-10.9122
-8.03222
-8.07103
-8.17579
-8.31106
-8.45419
-8.60039
-8.74574
-8.88627
-9.02049
-9.14821
-9.2695
-9.38458
-9.49383
-9.59763
-9.69638
-9.79043
-9.88011
-9.96573
-10.0476
-10.1259
-10.2009
-10.2728
-10.3417
-10.4078
-10.4711
-10.5317
-10.5894
-10.6441
-10.6956
-10.7435
-10.7873
-10.8266
-10.8606
-8.07974
-8.11324
-8.2041
-8.3241
-8.45466
-8.59096
-8.72882
-8.86426
-8.99531
-9.12126
-9.24176
-9.35672
-9.46625
-9.57055
-9.66987
-9.76446
-9.85459
-9.9405
-10.0224
-10.1006
-10.1753
-10.2465
-10.3146
-10.3795
-10.4414
-10.5002
-10.5558
-10.6083
-10.6573
-10.7026
-10.7439
-10.7809
-10.813
-8.11365
-8.14314
-8.22344
-8.33142
-8.45173
-8.57979
-8.71135
-8.84242
-8.97075
-9.09519
-9.21507
-9.33001
-9.43989
-9.54474
-9.64466
-9.73982
-9.83041
-9.91663
-9.99868
-10.0768
-10.1511
-10.2217
-10.289
-10.3528
-10.4133
-10.4705
-10.5244
-10.5749
-10.6219
-10.6652
-10.7046
-10.7399
-10.7708
-8.13458
-8.16108
-8.23347
-8.33225
-8.44448
-8.56594
-8.69244
-8.82
-8.94615
-9.06944
-9.18891
-9.30394
-9.41421
-9.5196
-9.62009
-9.71577
-9.80674
-9.89319
-9.97526
-10.0532
-10.127
-10.1971
-10.2634
-10.3261
-10.3853
-10.441
-10.4933
-10.5421
-10.5873
-10.6289
-10.6668
-10.7009
-10.7311
-8.14282
-8.16717
-8.23384
-8.32586
-8.43208
-8.54865
-8.67145
-8.79656
-8.92134
-9.04411
-9.16366
-9.27917
-9.39016
-9.49635
-9.59763
-9.69399
-9.7855
-9.87229
-9.9545
-10.0323
-10.1059
-10.1753
-10.2409
-10.3026
-10.3606
-10.4151
-10.4659
-10.5132
-10.557
-10.5973
-10.634
-10.6672
-10.6969
-8.13837
-8.16126
-8.22406
-8.31149
-8.41364
-8.52696
-8.64743
-8.77113
-8.89531
-9.01811
-9.13811
-9.25435
-9.36618
-9.47324
-9.57531
-9.67233
-9.76432
-9.85138
-9.93363
-10.0112
-10.0844
-10.1532
-10.2179
-10.2786
-10.3355
-10.3886
-10.4381
-10.4841
-10.5265
-10.5656
-10.6013
-10.6338
-10.6632
-8.12093
-8.14298
-8.20358
-8.28846
-8.38852
-8.50043
-8.62022
-8.74396
-8.86879
-8.99266
-9.11402
-9.23174
-9.34507
-9.45352
-9.55681
-9.65485
-9.7476
-9.83516
-9.91765
-9.99523
-10.0681
-10.1364
-10.2004
-10.2602
-10.316
-10.368
-10.4163
-10.461
-10.5023
-10.5403
-10.5751
-10.607
-10.6359
-8.08987
-8.11165
-8.17154
-8.25574
-8.35551
-8.46763
-8.58813
-8.71301
-8.83932
-8.9649
-9.08806
-9.20756
-9.32255
-9.4325
-9.53707
-9.63611
-9.72959
-9.81759
-9.90023
-9.97769
-10.0502
-10.1179
-10.181
-10.2399
-10.2946
-10.3453
-10.3923
-10.4358
-10.4759
-10.5128
-10.5467
-10.5778
-10.6064
-8.04423
-8.06633
-8.12714
-8.21279
-8.31456
-8.42922
-8.5527
-8.68085
-8.81056
-8.93952
-9.0659
-9.18838
-9.30603
-9.41827
-9.52474
-9.62527
-9.71986
-9.80858
-9.89158
-9.96908
-10.0413
-10.1085
-10.1709
-10.2288
-10.2824
-10.332
-10.3778
-10.42
-10.4589
-10.4946
-10.5275
-10.5577
-10.5854
-7.98256
-8.0055
-8.06866
-8.1575
-8.26288
-8.3815
-8.50914
-8.64149
-8.77534
-8.90824
-9.0383
-9.16412
-9.28471
-9.39946
-9.50798
-9.61013
-9.70588
-9.79534
-9.8787
-9.95619
-10.0281
-10.0946
-10.1562
-10.213
-10.2655
-10.3137
-10.3581
-10.3989
-10.4364
-10.4709
-10.5025
-10.5317
-10.5586
-7.90301
-7.92769
-7.99554
-8.09075
-8.20335
-8.32968
-8.46514
-8.60503
-8.7459
-8.88517
-9.02086
-9.15154
-9.27624
-9.39435
-9.50554
-9.60971
-9.70691
-9.79728
-9.88108
-9.95859
-10.0301
-10.0961
-10.1567
-10.2124
-10.2635
-10.3103
-10.3532
-10.3925
-10.4284
-10.4612
-10.4913
-10.5189
-10.5442
-7.80272
-7.82946
-7.90319
-8.00595
-8.12653
-8.26116
-8.40499
-8.55304
-8.70163
-8.84804
-8.99018
-9.12652
-9.25607
-9.37822
-9.49266
-9.59932
-9.69831
-9.78984
-9.87422
-9.95181
-10.023
-10.0882
-10.1478
-10.2022
-10.2518
-10.297
-10.3382
-10.3756
-10.4097
-10.4408
-10.4692
-10.4952
-10.5191
-7.67881
-7.71002
-7.795
-7.91224
-8.04811
-8.19793
-8.35611
-8.51708
-8.67698
-8.83311
-8.98345
-9.12659
-9.26165
-9.38816
-9.50594
-9.61505
-9.71569
-9.80818
-9.89292
-9.97034
-10.0409
-10.1051
-10.1634
-10.2162
-10.264
-10.3072
-10.3463
-10.3815
-10.4133
-10.442
-10.468
-10.4915
-10.5129
-7.52472
-7.55884
-7.65383
-7.78366
-7.93289
-8.09715
-8.27026
-8.44573
-8.61919
-8.78763
-8.9488
-9.10118
-9.24392
-9.37662
-9.49921
-9.61187
-9.71497
-9.80896
-9.89438
-9.9718
-10.0418
-10.1049
-10.1618
-10.2129
-10.2587
-10.2998
-10.3365
-10.3693
-10.3987
-10.425
-10.4486
-10.4699
-10.4891
-7.33836
-7.38534
-7.50736
-7.66742
-7.84446
-8.03357
-8.22817
-8.4217
-8.6102
-8.79111
-8.9625
-9.12316
-9.2725
-9.41033
-9.53675
-9.65211
-9.75689
-9.85168
-9.93713
-10.0139
-10.0827
-10.1441
-10.1989
-10.2475
-10.2906
-10.3287
-10.3622
-10.3917
-10.4177
-10.4404
-10.4603
-10.4778
-10.493
-7.09808
-7.14417
-7.27991
-7.46031
-7.6621
-7.87977
-8.10342
-8.324
-8.53669
-8.73849
-8.9273
-9.10205
-9.26245
-9.40868
-9.54123
-9.66081
-9.76824
-9.86439
-9.95017
-10.0265
-10.0941
-10.1538
-10.2065
-10.2527
-10.2931
-10.3284
-10.3589
-10.3853
-10.408
-10.4275
-10.4442
-10.4586
-10.471
-6.82202
-6.91583
-7.11952
-7.35322
-7.59251
-7.84001
-8.08782
-8.32797
-8.55709
-8.77291
-8.97358
-9.15822
-9.32665
-9.47911
-9.6162
-9.73874
-9.84771
-9.94413
-10.0291
-10.1036
-10.1686
-10.2252
-10.2741
-10.3162
-10.3521
-10.3826
-10.4082
-10.4295
-10.4468
-10.4609
-10.4719
-10.4805
-10.4871
-6.40017
-6.46801
-6.70235
-6.9932
-7.29981
-7.61517
-7.92262
-8.2123
-8.48149
-8.72857
-8.95281
-9.15476
-9.33555
-9.49652
-9.63917
-9.76504
-9.87564
-9.97242
-10.0567
-10.1299
-10.193
-10.2472
-10.2934
-10.3325
-10.3653
-10.3923
-10.4143
-10.4317
-10.4451
-10.4549
-10.4617
-10.4659
-10.4684
-6.03706
-6.28947
-6.64505
-6.9628
-7.28122
-7.6148
-7.94016
-8.2485
-8.53804
-8.80522
-9.04772
-9.26523
-9.45837
-9.62832
-9.77669
-9.90534
-10.0162
-10.1111
-10.1918
-10.2601
-10.3173
-10.3649
-10.404
-10.4356
-10.4608
-10.4801
-10.4943
-10.5038
-10.5091
-10.5105
-10.5082
-10.503
-10.495
-4.98435
-5.25002
-5.85977
-6.40431
-6.90398
-7.37759
-7.8007
-8.17576
-8.51026
-8.80696
-9.06886
-9.29938
-9.50144
-9.67767
-9.83052
-9.96226
-10.075
-10.1708
-10.2514
-10.3187
-10.3742
-10.4194
-10.4555
-10.4837
-10.5049
-10.5199
-10.5293
-10.5335
-10.5328
-10.5273
-10.5165
-10.5015
-10.4785
-5.03565
-5.59532
-6.03616
-6.39937
-6.87386
-7.36702
-7.82867
-8.26149
-8.65692
-9.00663
-9.31043
-9.57096
-9.7915
-9.97601
-10.1288
-10.254
-10.3554
-10.4367
-10.5008
-10.5505
-10.588
-10.6154
-10.6343
-10.646
-10.6518
-10.6526
-10.649
-10.6414
-10.6297
-10.6132
-10.5898
-10.5574
-10.5045
-0.0953631
-3.78689
-5.11114
-5.77946
-6.57595
-7.25017
-7.79056
-8.26311
-8.67523
-9.02822
-9.32977
-9.58588
-9.80142
-9.98127
-10.13
-10.2519
-10.3507
-10.4297
-10.492
-10.5402
-10.5764
-10.6027
-10.6207
-10.6316
-10.6369
-10.6373
-10.6338
-10.6269
-10.6177
-10.6055
-10.5929
-10.5755
-10.5628
-10.9585
-12.416
-15.0287
-16.8673
-17.3937
-16.8746
-15.7037
-13.8106
-10.8442
-6.9353
-2.9346
0.0532426
1.36854
0.785706
-1.65243
-5.45832
-10.1931
-15.3909
-20.6209
-25.6088
-30.2429
-34.4878
-38.2807
-41.4633
-43.7828
-44.9717
-44.8159
-43.2789
-40.5343
-36.9
-32.6709
-28.0456
-23.2274
-18.5209
-14.2592
-10.6382
-7.67739
-5.30294
-3.4215
-1.94761
-0.807132
0.0636579
0.718457
1.20156
1.54901
1.78991
1.94765
2.0409
2.08456
2.09047
2.06805
2.02483
1.96681
1.8988
1.82464
1.74732
1.66918
1.59196
1.51693
1.44496
1.37664
1.31229
1.25205
1.19595
1.14387
1.09564
1.05097
1.00952
0.970872
0.934597
0.900255
0.867438
0.835798
0.805047
0.774957
0.745352
0.716091
0.687061
0.658175
0.629365
0.600576
0.571768
0.542901
0.513947
0.484866
0.455626
0.426199
0.396552
0.366638
0.336514
0.306061
0.275343
0.244204
0.212924
0.180852
0.149315
0.115459
0.0852364
0.0461982
0.0243681
-11.2589
-12.4888
-14.8229
-16.5387
-17.04
-16.5387
-15.3619
-13.4575
-10.5743
-6.88213
-3.14178
-0.358666
0.826455
0.249918
-1.99498
-5.58418
-10.0216
-14.8996
-19.8647
-24.6497
-29.1107
-33.1774
-36.7699
-39.7405
-41.8702
-42.9314
-42.7432
-41.2952
-38.7532
-35.373
-31.3772
-26.9542
-22.3523
-17.9079
-13.919
-10.5231
-7.71762
-5.43905
-3.61201
-2.1652
-1.03392
-0.160844
0.503281
0.999716
1.36251
1.61949
1.79322
1.9019
1.96015
1.97967
1.96984
1.93818
1.89073
1.83231
1.76681
1.69726
1.62605
1.55496
1.48533
1.41811
1.35391
1.29313
1.23597
1.1825
1.13267
1.08633
1.04327
1.00316
0.965646
0.930321
0.896775
0.864627
0.833546
0.803262
0.773562
0.74428
0.715284
0.68647
0.657757
0.629082
0.600398
0.571668
0.542859
0.513943
0.484888
0.455664
0.426244
0.396602
0.366677
0.336556
0.306092
0.275366
0.244214
0.212929
0.180837
0.149308
0.115417
0.085234
0.0461354
0.0243832
-11.5215
-12.678
-14.6236
-16.0604
-16.4643
-15.9815
-14.8245
-12.9581
-10.2573
-6.9387
-3.66035
-1.21959
-0.118768
-0.638514
-2.69799
-5.97796
-10.0796
-14.5946
-19.2159
-23.7204
-27.9535
-31.8113
-35.1927
-37.9538
-39.899
-40.8368
-40.6318
-39.2939
-36.9583
-33.8063
-30.0143
-25.792
-21.4383
-17.2898
-13.5842
-10.4087
-7.7527
-5.56765
-3.79551
-2.37749
-1.25734
-0.383737
0.288258
0.796918
1.17427
1.44679
1.63619
1.76013
1.83291
1.86609
1.86894
1.84898
1.81224
1.76359
1.70692
1.64531
1.5812
1.51642
1.45236
1.39002
1.33009
1.27301
1.21904
1.1683
1.1208
1.07643
1.03504
0.996338
0.960015
0.925697
0.893002
0.861572
0.831096
0.801321
0.772046
0.743118
0.714415
0.685842
0.657325
0.628806
0.600245
0.571609
0.54287
0.514004
0.484984
0.455783
0.426375
0.396741
0.366874
0.336689
0.306217
0.275482
0.244318
0.213027
0.180915
0.149392
0.115466
0.0853176
0.0461619
0.0244699
-11.7471
-12.7092
-14.2065
-15.349
-15.6688
-15.2077
-14.1058
-12.3733
-9.98806
-7.16907
-4.4326
-2.38403
-1.44661
-1.85621
-3.65262
-6.59234
-10.3145
-14.4567
-18.7139
-22.8804
-26.8198
-30.421
-33.5677
-36.1121
-37.8781
-38.7153
-38.5287
-37.3186
-35.1641
-32.191
-28.5765
-24.5779
-20.5186
-16.69
-13.2632
-10.2953
-7.78083
-5.68735
-3.97115
-2.58384
-1.47681
-0.604488
0.07388
0.593592
0.98463
1.2721
1.47678
1.61577
1.70301
1.74983
1.76544
1.75729
1.73141
1.69267
1.645
1.59151
1.53466
1.47635
1.41802
1.36072
1.30519
1.25194
1.20128
1.15339
1.10832
1.06602
1.02638
0.98917
0.954106
0.920852
0.889056
0.858382
0.82854
0.799295
0.77046
0.741896
0.713492
0.685162
0.656839
0.628475
0.600032
0.571485
0.542812
0.513992
0.485003
0.455821
0.426424
0.396795
0.36692
0.336738
0.306258
0.275516
0.244339
0.213042
0.180913
0.149394
0.115439
0.0853191
0.0461168
0.024477
-11.8776
-12.6289
-13.7069
-14.5342
-14.7326
-14.2928
-13.3043
-11.7952
-9.79534
-7.50098
-5.30829
-3.6722
-2.92406
-3.26284
-4.76523
-7.32024
-10.6495
-14.4158
-18.3245
-22.1617
-25.7869
-29.095
-31.9765
-34.2977
-35.9071
-36.675
-36.5134
-35.391
-33.3467
-30.5034
-27.0753
-23.3501
-19.6236
-16.1181
-12.9552
-10.1814
-7.80191
-5.79844
-4.13894
-2.78397
-1.69192
-0.822643
-0.139424
0.390127
0.793938
1.09569
1.31523
1.469
1.57056
1.63101
1.65941
1.66316
1.64826
1.61958
1.58106
1.53585
1.48643
1.43475
1.3823
1.33018
1.27919
1.2299
1.18267
1.13773
1.09518
1.05503
1.01722
0.981561
0.947817
0.915684
0.884837
0.854967
0.825801
0.797122
0.76876
0.740588
0.712507
0.68444
0.656331
0.628137
0.599828
0.571385
0.542789
0.514026
0.485077
0.455922
0.426541
0.396921
0.367041
0.336862
0.306375
0.275627
0.244438
0.213135
0.180988
0.149471
0.115489
0.0853921
0.0461463
0.0245441
-11.9133
-12.4754
-13.2205
-13.7903
-13.8997
-13.5048
-12.6514
-11.3713
-9.71764
-7.86113
-6.10798
-4.81789
-4.26379
-4.5998
-5.88549
-8.07083
-10.9854
-14.3691
-17.9442
-21.4844
-24.8324
-27.8744
-30.5053
-32.6206
-34.0894
-34.7679
-34.5628
-33.4388
-31.4473
-28.7414
-25.5564
-22.1579
-18.778
-15.5796
-12.6595
-10.0661
-7.81561
-5.90071
-4.29857
-2.97747
-1.90222
-1.03774
-0.3512
0.186939
0.602557
0.917894
1.15179
1.32003
1.43574
1.50975
1.55096
1.56667
1.56286
1.54437
1.51515
1.47836
1.43653
1.39164
1.34521
1.29842
1.25211
1.2069
1.16322
1.12133
1.0814
1.0435
1.0076
0.973572
0.941214
0.91026
0.880414
0.851389
0.822935
0.79485
0.766981
0.739216
0.711467
0.68367
0.655777
0.627753
0.599577
0.571235
0.542713
0.514004
0.48509
0.455959
0.426592
0.396978
0.367095
0.336917
0.306424
0.275669
0.244468
0.21316
0.180996
0.149481
0.115474
0.0853959
0.0461159
0.0245436
-11.8798
-12.3088
-12.8345
-13.2225
-13.2639
-12.9024
-12.1611
-11.0742
-9.70391
-8.19698
-6.7949
-5.77976
-5.37477
-5.71662
-6.85621
-8.75169
-11.2806
-14.2608
-17.4767
-20.7178
-23.8113
-26.6241
-29.0447
-30.9622
-32.2503
-32.788
-32.4925
-31.3567
-29.4612
-26.9699
-24.0937
-21.0426
-17.9919
-15.0723
-12.3734
-9.94866
-7.82211
-5.99437
-4.45001
-3.16411
-2.10733
-1.24935
-0.561021
-0.0155687
0.410849
0.739009
0.986726
1.16908
1.29873
1.38619
1.44019
1.46792
1.47527
1.46708
1.44729
1.41908
1.38498
1.34702
1.30678
1.26545
1.22396
1.18295
1.14292
1.10419
1.06698
1.03141
0.997489
0.965157
0.934247
0.904527
0.875733
0.8476
0.819897
0.792441
0.765095
0.737761
0.710366
0.682857
0.655196
0.627358
0.599327
0.571097
0.54266
0.514013
0.485145
0.456044
0.426697
0.397093
0.367211
0.337036
0.306535
0.275775
0.244564
0.213249
0.18107
0.149554
0.115525
0.085461
0.0461494
0.0245944
-11.8145
-12.1429
-12.5092
-12.7607
-12.7484
-12.4185
-11.7812
-10.8684
-9.74177
-8.52609
-7.41296
-6.62279
-6.33801
-6.67878
-7.69141
-9.3442
-11.5389
-14.1324
-16.959
-19.8493
-22.644
-25.2017
-27.3949
-29.0926
-30.1943
-30.6111
-30.2825
-29.2215
-27.5133
-25.2991
-22.7465
-20.0194
-17.262
-14.5914
-12.0951
-9.82908
-7.82183
-6.07962
-4.5932
-3.34365
-2.30692
-1.45708
-0.76847
-0.216995
0.219179
0.559362
0.820315
1.01638
1.15971
1.2605
1.32724
1.36699
1.38558
1.3878
1.37756
1.35805
1.33183
1.30095
1.26702
1.2313
1.19474
1.15806
1.1218
1.08633
1.05193
1.01877
0.986914
0.956348
0.926949
0.898523
0.870832
0.843635
0.816721
0.789925
0.763125
0.73624
0.709211
0.681999
0.654575
0.626923
0.599038
0.570919
0.542566
0.513978
0.485152
0.456079
0.426748
0.397152
0.36727
0.337096
0.30659
0.275822
0.244602
0.213281
0.181087
0.149569
0.11552
0.0854657
0.0461309
0.0245859
-11.7252
-11.975
-12.2288
-12.385
-12.3381
-12.0411
-11.4974
-10.7359
-9.81494
-8.84009
-7.9643
-7.36128
-7.17932
-7.51925
-8.42227
-9.86651
-11.7739
-14.0265
-16.4863
-19.0119
-21.4674
-23.7238
-25.6558
-27.1469
-28.1074
-28.461
-28.1652
-27.2343
-25.7389
-23.7916
-21.5262
-19.0797
-16.5792
-14.133
-11.824
-9.70789
-7.81529
-6.15674
-4.7282
-3.51596
-2.50071
-1.66057
-0.973159
-0.416956
0.0279088
0.379277
0.652839
0.862177
1.0189
1.13284
1.21224
1.26402
1.29389
1.30659
1.30601
1.29533
1.27712
1.25345
1.22598
1.19599
1.16449
1.13225
1.09987
1.06776
1.03625
1.00558
0.975864
0.94713
0.919303
0.892224
0.865686
0.83947
0.813385
0.787281
0.761057
0.734644
0.708001
0.681101
0.653927
0.626475
0.598746
0.570748
0.542486
0.513967
0.485189
0.456151
0.426842
0.397259
0.367382
0.337211
0.306701
0.275927
0.244697
0.213371
0.181162
0.149641
0.115574
0.0855255
0.0461697
0.0246233
-11.6265
-11.8157
-11.9894
-12.0783
-12.0088
-11.7434
-11.2832
-10.6543
-9.90909
-9.13577
-8.45655
-8.00851
-7.91136
-8.24914
-9.05852
-10.3251
-11.9869
-13.9472
-16.0892
-18.2901
-20.4306
-22.3976
-24.0853
-25.3949
-26.2379
-26.546
-26.2874
-25.4735
-24.1596
-22.4356
-20.4125
-18.2086
-15.9369
-13.6953
-11.5605
-9.58579
-7.80305
-6.22608
-4.85511
-3.68093
-2.68847
-1.85951
-1.17473
-0.615085
-0.162611
0.199078
0.484591
0.706718
0.876508
1.00339
1.09537
1.15914
1.20032
1.22357
1.23274
1.231
1.22092
1.20459
1.18369
1.15956
1.13324
1.10556
1.07714
1.04849
1.01997
0.991867
0.964359
0.937523
0.911329
0.885653
0.860317
0.835127
0.809908
0.78453
0.758906
0.732985
0.706741
0.680162
0.653244
0.625994
0.598423
0.570545
0.542373
0.51392
0.485188
0.456181
0.426892
0.397319
0.367445
0.337274
0.30676
0.27598
0.244741
0.213406
0.181184
0.14966
0.115576
0.0855296
0.0461604
0.0246062
-11.524
-11.6664
-11.7832
-11.8268
-11.7463
-11.5134
-11.1285
-10.6147
-10.0178
-9.41128
-8.89295
-8.57142
-8.54327
-8.8778
-9.60667
-10.7205
-12.1708
-13.8786
-15.746
-17.6673
-19.5372
-21.2552
-22.7289
-23.8698
-24.5985
-24.8591
-24.6254
-23.9039
-22.7376
-21.2004
-19.3864
-17.3975
-15.3323
-13.2781
-11.3049
-9.46338
-7.78567
-6.28802
-4.97412
-3.83858
-2.87004
-2.05363
-1.37287
-0.811041
-0.352041
0.019085
0.315859
0.550267
0.732767
0.872373
0.976777
1.05249
1.10498
1.13883
1.15784
1.16514
1.1633
1.15443
1.14023
1.12206
1.10104
1.07801
1.05367
1.02856
1.0031
0.977642
0.95241
0.927533
0.903026
0.878805
0.85472
0.830599
0.806286
0.781666
0.756669
0.731261
0.705434
0.67919
0.652541
0.625503
0.598097
0.570347
0.542273
0.513892
0.485214
0.456243
0.426979
0.397421
0.367554
0.337386
0.30687
0.276086
0.244838
0.213492
0.181262
0.149733
0.115636
0.0855868
0.0462059
0.0246333
-11.4231
-11.53
-11.6073
-11.6217
-11.5383
-11.337
-11.0187
-10.6037
-10.1318
-9.66346
-9.27712
-9.05881
-9.08601
-9.41531
-10.0737
-11.055
-12.3213
-13.8083
-15.4344
-17.1092
-18.7404
-20.2389
-21.5201
-22.5073
-23.1338
-23.3506
-23.1332
-22.4859
-21.4439
-20.0686
-18.4391
-16.6422
-14.7638
-12.8811
-11.0577
-9.34128
-7.76377
-6.34303
-5.08549
-3.98897
-3.04533
-2.24272
-1.56729
-1.00451
-0.540064
-0.160393
0.146935
0.393088
0.587913
0.739981
0.856662
0.944243
1.00804
1.05252
1.08143
1.09785
1.10435
1.10305
1.09565
1.08357
1.06793
1.04966
1.02948
1.00799
0.985679
0.962932
0.940039
0.917179
0.894415
0.871699
0.848912
0.825902
0.802532
0.778701
0.754356
0.729481
0.704083
0.678183
0.651806
0.624983
0.597744
0.570122
0.542144
0.513834
0.485205
0.456269
0.427026
0.397481
0.367618
0.337452
0.306932
0.276142
0.244884
0.213529
0.181287
0.149753
0.115645
0.0855884
0.0462033
0.0246065
-11.3266
-11.407
-11.4572
-11.4541
-11.3742
-11.2036
-10.9443
-10.6143
-10.2472
-9.89269
-9.61369
-9.47837
-9.54871
-9.87059
-10.4666
-11.3326
-12.4385
-13.732
-15.1448
-16.6001
-18.0177
-19.3189
-20.4286
-21.2801
-21.8147
-21.9894
-21.783
-21.1985
-20.2644
-19.0311
-17.5648
-15.9396
-14.2299
-12.5039
-10.8191
-9.22009
-7.738
-6.39165
-5.18957
-4.13224
-3.21433
-2.42665
-1.75778
-1.19523
-0.726384
-0.339062
-0.0218976
0.235446
0.442191
0.60644
0.735223
0.834578
0.909648
0.96478
1.00363
1.02925
1.04419
1.05054
1.05005
1.04414
1.03399
1.02056
1.00462
0.986837
0.967736
0.947765
0.927269
0.90648
0.885508
0.864345
0.8429
0.821043
0.798652
0.775643
0.751976
0.727653
0.702701
0.677157
0.651062
0.624461
0.597396
0.569908
0.542032
0.513797
0.485224
0.456327
0.427111
0.397582
0.367728
0.337566
0.307045
0.276251
0.244986
0.213625
0.181371
0.14983
0.115712
0.0856458
0.0462571
0.0246259
-11.2363
-11.2975
-11.33
-11.3179
-11.2457
-11.1043
-10.8968
-10.6389
-10.359
-10.0977
-9.90542
-9.83621
-9.93938
-10.2518
-10.7919
-11.557
-12.5229
-13.6468
-14.8718
-16.1325
-17.3598
-18.4847
-19.4416
-20.1711
-20.6225
-20.7587
-20.5607
-20.0299
-19.1891
-18.08
-16.758
-15.2862
-13.7288
-12.1459
-10.5894
-9.10049
-7.70907
-6.43447
-5.28677
-4.26862
-3.37708
-2.60534
-1.94415
-1.38296
-0.91074
-0.516645
-0.190367
0.0776023
0.295845
0.471979
0.61267
0.723689
0.809984
0.875767
0.924602
0.959485
0.982927
0.997024
1.00352
1.00388
0.9993
0.990785
0.979168
0.965148
0.949319
0.93218
0.914132
0.895463
0.876328
0.856762
0.836701
0.816036
0.79466
0.7725
0.749534
0.72578
0.701284
0.676102
0.650293
0.623915
0.597023
0.569667
0.54189
0.513729
0.485208
0.456347
0.427154
0.397639
0.367792
0.337631
0.307107
0.276307
0.245034
0.213666
0.181401
0.14985
0.115712
0.0856434
0.0462593
0.0245883
-11.1532
-11.2008
-11.2225
-11.2074
-11.1455
-11.0314
-10.8691
-10.6722
-10.4645
-10.2792
-10.1564
-10.139
-10.2661
-10.567
-11.0566
-11.7329
-12.5762
-13.5515
-14.6112
-15.7
-16.7585
-17.7265
-18.5468
-19.1676
-19.5445
-19.6453
-19.4529
-18.9677
-18.2079
-17.2077
-16.0135
-14.6789
-13.2591
-11.8071
-10.3691
-8.98316
-7.67772
-6.47214
-5.37757
-4.3984
-3.53371
-2.77878
-2.12631
-1.56751
-1.0929
-0.692893
-0.358214
-0.0801856
0.149125
0.336834
0.489225
0.611783
0.709244
0.785668
0.844512
0.888704
0.920715
0.942629
0.956196
0.96289
0.963951
0.960422
0.953184
0.942988
0.930482
0.916222
0.900667
0.884158
0.866903
0.848972
0.830335
0.8109
0.790572
0.769293
0.747052
0.723885
0.699859
0.675049
0.649532
0.623383
0.596668
0.569449
0.541776
0.513692
0.485228
0.456408
0.427242
0.397745
0.367907
0.33775
0.307227
0.276423
0.245144
0.213768
0.181495
0.149932
0.115789
0.0857015
0.0463223
0.0246018
-11.0775
-11.1161
-11.1319
-11.1178
-11.0676
-10.9787
-10.8554
-10.7096
-10.5612
-10.437
-10.3693
-10.3917
-10.5351
-10.8227
-11.2662
-11.8639
-12.5998
-13.4448
-14.3593
-15.2965
-16.2055
-17.0343
-17.7334
-18.2573
-18.5675
-18.636
-18.4475
-18.0015
-17.3122
-16.4077
-15.3269
-14.115
-12.8196
-11.487
-10.1585
-8.86879
-7.64473
-6.50536
-5.46254
-4.52198
-3.68445
-2.94703
-2.30419
-1.74877
-1.27269
-0.867586
-0.525201
-0.237673
0.00227601
0.201246
0.365123
0.499085
0.607642
0.694683
0.763548
0.817085
0.857716
0.887505
0.9082
0.921293
0.928054
0.929565
0.926756
0.920429
0.911287
0.899945
0.886918
0.872604
0.85726
0.841001
0.823821
0.805649
0.786401
0.766026
0.744529
0.721961
0.698411
0.673975
0.648751
0.622828
0.596288
0.569201
0.541628
0.513618
0.485207
0.456423
0.427282
0.397798
0.367968
0.337813
0.307287
0.276479
0.245192
0.213807
0.181525
0.14995
0.115803
0.0856931
0.0463278
0.0245517
-11.0095
-11.0423
-11.0558
-11.0453
-11.0073
-10.9412
-10.8513
-10.748
-10.6479
-10.5726
-10.5478
-10.6
-10.7534
-11.0261
-11.4274
-11.9553
-12.5967
-13.3275
-14.1146
-14.9184
-15.6954
-16.4012
-16.9928
-17.4306
-17.6814
-17.7207
-17.5347
-17.1222
-16.4944
-15.6743
-14.694
-13.592
-12.4091
-11.1854
-9.95796
-8.75808
-7.61089
-6.53489
-5.5423
-4.63981
-3.82959
-3.11025
-2.47784
-1.92666
-1.44996
-1.04054
-0.691115
-0.394628
-0.144462
0.0654581
0.240604
0.385832
0.505406
0.603034
0.681922
0.744827
0.794117
0.831825
0.859697
0.879237
0.891741
0.898332
0.899987
0.89756
0.891811
0.883412
0.872938
0.860844
0.847441
0.832882
0.817193
0.800318
0.782182
0.76274
0.742008
0.720055
0.696991
0.672935
0.648007
0.622313
0.595949
0.568998
0.541527
0.513593
0.485238
0.456494
0.42738
0.397914
0.368094
0.337943
0.307418
0.276606
0.245314
0.213921
0.181631
0.150043
0.115892
0.0857577
0.0464041
0.0245602
-10.9483
-10.9779
-10.9913
-10.9859
-10.96
-10.914
-10.8524
-10.7841
-10.7228
-10.686
-10.694
-10.7678
-10.9258
-11.1825
-11.5446
-12.0103
-12.5685
-13.1991
-13.8744
-14.561
-15.2221
-15.8196
-16.3163
-16.6781
-16.8763
-16.8894
-16.7052
-16.3217
-15.7477
-15.002
-14.1112
-13.1077
-12.0264
-10.9022
-9.76789
-8.65173
-7.57704
-6.56154
-5.61753
-4.75244
-3.96951
-3.26868
-2.64736
-2.10119
-1.62465
-1.21163
-0.855775
-0.55084
-0.290857
-0.0702863
0.115917
0.272274
0.402785
0.510962
0.599866
0.672152
0.730126
0.775784
0.810864
0.83688
0.855154
0.866849
0.872987
0.874478
0.872137
0.866694
0.858786
0.848928
0.837482
0.824645
0.810471
0.794918
0.777917
0.759427
0.739471
0.718139
0.69556
0.671881
0.647243
0.621772
0.595578
0.568755
0.54138
0.513518
0.485214
0.456505
0.427415
0.397963
0.36815
0.338001
0.307474
0.276657
0.245359
0.213956
0.18166
0.150057
0.115905
0.0857413
0.0464116
0.0244949
-10.894
-10.9222
-10.9373
-10.9377
-10.9231
-10.8947
-10.8567
-10.8168
-10.7864
-10.7793
-10.8118
-10.9
-11.0587
-11.2984
-11.6243
-12.0343
-12.519
-13.0617
-13.6391
-14.223
-14.7823
-15.2845
-15.6977
-15.9926
-16.1443
-16.1341
-15.951
-15.5928
-15.0662
-14.3862
-13.5751
-12.6599
-11.6705
-10.6372
-9.58865
-8.55046
-7.54402
-6.58615
-5.68901
-4.86048
-4.10469
-3.42264
-2.81295
-2.27244
-1.79674
-1.38075
-1.01904
-0.706121
-0.436691
-0.205747
-0.00868107
0.158674
0.300046
0.418733
0.517641
0.599314
0.665984
0.71961
0.761914
0.794419
0.818473
0.835277
0.845899
0.851305
0.852366
0.849877
0.844535
0.836917
0.827439
0.816344
0.80371
0.78951
0.773673
0.75616
0.737001
0.716299
0.694212
0.670911
0.646562
0.621311
0.595285
0.56859
0.541312
0.513521
0.485269
0.456598
0.427533
0.398097
0.368294
0.338148
0.307621
0.276799
0.245496
0.214084
0.181782
0.150161
0.11601
0.0858116
0.0465036
0.024498
-10.8449
-10.873
-10.8904
-10.8968
-10.8925
-10.879
-10.8605
-10.8434
-10.8369
-10.8524
-10.9024
-10.9997
-11.1553
-11.3774
-11.6695
-12.0295
-12.4494
-12.9149
-13.4066
-13.9009
-14.3713
-14.7901
-15.1303
-15.3666
-15.4775
-15.4469
-15.2649
-14.929
-14.4441
-13.8226
-13.0825
-12.2467
-11.3405
-10.3901
-9.42062
-8.45496
-7.5127
-6.60961
-5.75756
-4.96466
-4.23569
-3.57255
-2.97487
-2.44056
-1.96627
-1.54788
-1.1808
-0.860312
-0.581761
-0.340686
-0.13293
0.0453108
0.197474
0.326635
0.43553
0.526584
0.60195
0.663541
0.713065
0.75205
0.781871
0.803767
0.818856
0.828158
0.832605
0.833052
0.830261
0.824871
0.817357
0.808004
0.796922
0.784089
0.769432
0.752906
0.734544
0.714469
0.692863
0.669927
0.645853
0.620811
0.594943
0.568366
0.541176
0.51345
0.485245
0.456606
0.427562
0.39814
0.368343
0.338199
0.307671