/*--------------------------------*- C++ -*----------------------------------*\
  =========                 |
  \\      /  F ield         | OpenFOAM: The Open Source CFD Toolbox
   \\    /   O peration     | Website:  https://openfoam.org
    \\  /    A nd           | Version:  10
     \\/     M anipulation  |
\*---------------------------------------------------------------------------*/
FoamFile
{
    format      ascii;
    class       surfaceScalarField;
    location    "0.055";
    object      phi;
}
// * * * * * * * * * * * * * * * * * * * * * * * * * * * * * * * * * * * * * //

dimensions      [0 3 -1 0 0 0 0];

internalField   nonuniform List<scalar> 
13452
(
4.01924e-05
2.00761e-05
2.59349e-05
1.42575e-05
1.85317e-05
7.40321e-06
1.51597e-05
3.37197e-06
1.37456e-05
1.41408e-06
1.30379e-05
7.07701e-07
1.25842e-05
4.53696e-07
1.22326e-05
3.51602e-07
1.19335e-05
2.99178e-07
1.16747e-05
2.5874e-07
1.14522e-05
2.22504e-07
1.12621e-05
1.90138e-07
1.11002e-05
1.6192e-07
1.09624e-05
1.37792e-07
1.08451e-05
1.1731e-07
1.07452e-05
9.9886e-08
1.06602e-05
8.49581e-08
1.05882e-05
7.20533e-08
1.05274e-05
6.08011e-08
1.04764e-05
5.0929e-08
1.04342e-05
4.22521e-08
1.03995e-05
3.46691e-08
1.03713e-05
2.81582e-08
1.03485e-05
2.2802e-08
1.03298e-05
1.87754e-08
1.03132e-05
1.65373e-08
1.02967e-05
1.65026e-08
1.02761e-05
2.06558e-08
1.02475e-05
2.85472e-08
1.01938e-05
5.3778e-08
1.01165e-05
7.72526e-08
9.87905e-06
2.37454e-07
1.48941e-07
9.73011e-06
6.59031e-05
1.61633e-05
6.18982e-05
1.82624e-05
5.56397e-05
1.36617e-05
4.97745e-05
9.23718e-06
4.52824e-05
5.90611e-06
4.20739e-05
3.91628e-06
3.97718e-05
2.75579e-06
3.8077e-05
2.04638e-06
3.6784e-05
1.59217e-06
3.57617e-05
1.28105e-06
3.49296e-05
1.05456e-06
3.42373e-05
8.8245e-07
3.36517e-05
7.47518e-07
3.31503e-05
6.39177e-07
3.27172e-05
5.50453e-07
3.23406e-05
4.76523e-07
3.20116e-05
4.13962e-07
3.17233e-05
3.60302e-07
3.14704e-05
3.13752e-07
3.12483e-05
2.73011e-07
3.10534e-05
2.37154e-07
3.08825e-05
2.05553e-07
3.07328e-05
1.77847e-07
3.06017e-05
1.53941e-07
3.04864e-05
1.34027e-07
3.03842e-05
1.18744e-07
3.02916e-05
1.09132e-07
3.02044e-05
1.07783e-07
3.01159e-05
1.17075e-07
3.00204e-05
1.4933e-07
2.98954e-05
2.02202e-07
2.97793e-05
3.53555e-07
5.13635e-07
2.94146e-05
6.91814e-05
1.07434e-05
7.2508e-05
1.49357e-05
7.30621e-05
1.31077e-05
7.16888e-05
1.06104e-05
6.94452e-05
8.14976e-06
6.70676e-05
6.29388e-06
6.48391e-05
4.98424e-06
6.28505e-05
4.03502e-06
6.11121e-05
3.33052e-06
5.9602e-05
2.79118e-06
5.82909e-05
2.36563e-06
5.71508e-05
2.02257e-06
5.61566e-05
1.74169e-06
5.52871e-05
1.50876e-06
5.45241e-05
1.31342e-06
5.38527e-05
1.14792e-06
5.32603e-05
1.00636e-06
5.27364e-05
8.84203e-07
5.22722e-05
7.77967e-07
5.18602e-05
6.84954e-07
5.14943e-05
6.03112e-07
5.11689e-05
5.30924e-07
5.08794e-05
4.67344e-07
5.06216e-05
4.11788e-07
5.03914e-05
3.6415e-07
5.01852e-05
3.24957e-07
4.99989e-05
2.95418e-07
4.98284e-05
2.78301e-07
4.96683e-05
2.77206e-07
4.95153e-05
3.02304e-07
4.93586e-05
3.58942e-07
4.92216e-05
4.90573e-07
6.7143e-07
4.90638e-05
6.88457e-05
7.48077e-06
7.21605e-05
1.16209e-05
7.45353e-05
1.07329e-05
7.59452e-05
9.2005e-06
7.65228e-05
7.57215e-06
7.65849e-05
6.23181e-06
7.63391e-05
5.22998e-06
7.5911e-05
4.46315e-06
7.5381e-05
3.86053e-06
7.47978e-05
3.3744e-06
7.4192e-05
2.97146e-06
7.35837e-05
2.63087e-06
7.29869e-05
2.33848e-06
7.24111e-05
2.08452e-06
7.18621e-05
1.8624e-06
7.13432e-05
1.66686e-06
7.08559e-05
1.49367e-06
7.04007e-05
1.33944e-06
6.99772e-05
1.20144e-06
6.95847e-05
1.07747e-06
6.92219e-05
9.65839e-07
6.88876e-05
8.65237e-07
6.85802e-05
7.74778e-07
6.8298e-05
6.93997e-07
6.80392e-05
6.22896e-07
6.78021e-05
5.62093e-07
6.75846e-05
5.12905e-07
6.7385e-05
4.77947e-07
6.72014e-05
4.60751e-07
6.7035e-05
4.68734e-07
6.68868e-05
5.07087e-07
6.67809e-05
5.96539e-07
7.22892e-07
6.67294e-05
6.95587e-05
5.37884e-06
7.18352e-05
9.34434e-06
7.35367e-05
9.03146e-06
7.48071e-05
7.9301e-06
7.56996e-05
6.67965e-06
7.63515e-05
5.57991e-06
7.68488e-05
4.7327e-06
7.7233e-05
4.0789e-06
7.75321e-05
3.56146e-06
7.77643e-05
3.1422e-06
7.79423e-05
2.79351e-06
7.80759e-05
2.49725e-06
7.81722e-05
2.24211e-06
7.82369e-05
2.0199e-06
7.82753e-05
1.82399e-06
7.82925e-05
1.64962e-06
7.82929e-05
1.49325e-06
7.82803e-05
1.35212e-06
7.82576e-05
1.22407e-06
7.82277e-05
1.10742e-06
7.81926e-05
1.00087e-06
7.81544e-05
9.03492e-07
7.81145e-05
8.14686e-07
7.80743e-05
7.34222e-07
7.80349e-05
6.6226e-07
7.79975e-05
5.99459e-07
7.79634e-05
5.47009e-07
7.79344e-05
5.06969e-07
7.79133e-05
4.81854e-07
7.79061e-05
4.75934e-07
7.79221e-05
4.91062e-07
7.79849e-05
5.33737e-07
5.85782e-07
7.8122e-05
7.08402e-05
3.92271e-06
7.26274e-05
7.55709e-06
7.39347e-05
7.72421e-06
7.48659e-05
6.99883e-06
7.54978e-05
6.04783e-06
7.59495e-05
5.12818e-06
7.63082e-05
4.37398e-06
7.66143e-05
3.77281e-06
7.68881e-05
3.28768e-06
7.71393e-05
2.89093e-06
7.73723e-05
2.56053e-06
7.75892e-05
2.28033e-06
7.77921e-05
2.03921e-06
7.79827e-05
1.82936e-06
7.81618e-05
1.6449e-06
7.83301e-05
1.48131e-06
7.84883e-05
1.33505e-06
7.8637e-05
1.20339e-06
7.87769e-05
1.08414e-06
7.89087e-05
9.75615e-07
7.90331e-05
8.76503e-07
7.91508e-05
7.85844e-07
7.92624e-05
7.02989e-07
7.93691e-05
6.27602e-07
7.94717e-05
5.59655e-07
7.95717e-05
4.99474e-07
7.9671e-05
4.47679e-07
7.97726e-05
4.05322e-07
7.98812e-05
3.73308e-07
8.00042e-05
3.52951e-07
8.01529e-05
3.42375e-07
8.03465e-05
3.4008e-07
3.25943e-07
8.06063e-05
7.23888e-05
2.90021e-06
7.38414e-05
6.10456e-06
7.49699e-05
6.59561e-06
7.57897e-05
6.17909e-06
7.635e-05
5.48747e-06
7.67348e-05
4.74341e-06
7.70204e-05
4.08841e-06
7.72489e-05
3.54431e-06
7.74438e-05
3.0928e-06
7.76184e-05
2.71628e-06
7.77799e-05
2.39905e-06
7.7932e-05
2.12823e-06
7.80769e-05
1.89431e-06
7.8216e-05
1.6903e-06
7.835e-05
1.51082e-06
7.84797e-05
1.35165e-06
7.86053e-05
1.20946e-06
7.87271e-05
1.08159e-06
7.88453e-05
9.65937e-07
7.89601e-05
8.60798e-07
7.90718e-05
7.64848e-07
7.91805e-05
6.77066e-07
7.92868e-05
5.96702e-07
7.93912e-05
5.23259e-07
7.94944e-05
4.56455e-07
7.95976e-05
3.96212e-07
7.97028e-05
3.42539e-07
7.98126e-05
2.95503e-07
7.99313e-05
2.54631e-07
8.00652e-05
2.19004e-07
8.02231e-05
1.84494e-07
8.04177e-05
1.45458e-07
8.42071e-08
8.06595e-05
7.41253e-05
2.18021e-06
7.52929e-05
4.93696e-06
7.62751e-05
5.61339e-06
7.70283e-05
5.42592e-06
7.75754e-05
4.94037e-06
7.79658e-05
4.35295e-06
7.82573e-05
3.79691e-06
7.84873e-05
3.31432e-06
7.86783e-05
2.90184e-06
7.88443e-05
2.55028e-06
7.89936e-05
2.24973e-06
7.91312e-05
1.99068e-06
7.926e-05
1.76548e-06
7.93821e-05
1.56818e-06
7.94989e-05
1.39407e-06
7.96112e-05
1.23933e-06
7.97198e-05
1.10089e-06
7.98251e-05
9.76256e-07
7.99276e-05
8.6341e-07
8.00277e-05
7.60711e-07
8.01257e-05
6.66835e-07
8.02221e-05
5.80727e-07
8.03172e-05
5.01554e-07
8.04118e-05
4.28666e-07
8.05067e-05
3.61546e-07
8.06032e-05
2.99746e-07
8.0703e-05
2.42742e-07
8.08087e-05
1.89811e-07
8.09238e-05
1.39477e-07
8.10534e-05
8.93936e-08
8.12035e-05
3.44614e-08
8.13815e-05
-3.25922e-08
-1.25635e-07
8.15914e-05
7.60167e-05
1.66595e-06
7.69533e-05
4.00035e-06
7.78025e-05
4.76424e-06
7.84845e-05
4.74386e-06
7.9006e-05
4.41889e-06
7.93955e-05
3.96352e-06
7.9695e-05
3.49738e-06
7.99359e-05
3.07344e-06
8.01377e-05
2.70001e-06
8.03132e-05
2.37475e-06
8.04705e-05
2.09245e-06
8.06145e-05
1.84667e-06
8.07485e-05
1.63149e-06
8.08747e-05
1.44201e-06
8.09946e-05
1.27418e-06
8.11093e-05
1.12461e-06
8.12197e-05
9.90514e-07
8.13263e-05
8.69582e-07
8.14298e-05
7.59905e-07
8.15307e-05
6.59902e-07
8.16292e-05
5.68263e-07
8.1726e-05
4.83904e-07
8.18217e-05
4.05912e-07
8.19169e-05
3.335e-07
8.20125e-05
2.65938e-07
8.21097e-05
2.02471e-07
8.22103e-05
1.4216e-07
8.23164e-05
8.37216e-08
8.24308e-05
2.50943e-08
8.2557e-05
-3.67656e-08
8.26984e-05
-1.06993e-07
8.28585e-05
-1.92701e-07
-3.03891e-07
8.30368e-05
7.8033e-05
1.29255e-06
7.87842e-05
3.24914e-06
7.9516e-05
4.03242e-06
8.01313e-05
4.12857e-06
8.06237e-05
3.92649e-06
8.1007e-05
3.58025e-06
8.13099e-05
3.19444e-06
8.15576e-05
2.82576e-06
8.17669e-05
2.49065e-06
8.19496e-05
2.19211e-06
8.21133e-05
1.92876e-06
8.2263e-05
1.69689e-06
8.24022e-05
1.49228e-06
8.25332e-05
1.31109e-06
8.26574e-05
1.14993e-06
8.27761e-05
1.00588e-06
8.28902e-05
8.76434e-07
8.30003e-05
7.59474e-07
8.3107e-05
6.53203e-07
8.32108e-05
5.56102e-07
8.33122e-05
4.66876e-07
8.34117e-05
3.84413e-07
8.35099e-05
3.07733e-07
8.36075e-05
2.35934e-07
8.37053e-05
1.68115e-07
8.38045e-05
1.03293e-07
8.39064e-05
4.02493e-08
8.40127e-05
-2.26157e-08
8.41254e-05
-8.7604e-08
8.42465e-05
-1.57883e-07
8.43776e-05
-2.38059e-07
8.45191e-05
-3.34223e-07
-4.53099e-07
8.46683e-05
8.01546e-05
1.01628e-06
8.07589e-05
2.64484e-06
8.1389e-05
3.40227e-06
8.19433e-05
3.57427e-06
8.24054e-05
3.46445e-06
8.27787e-05
3.20691e-06
8.30818e-05
2.8914e-06
8.33339e-05
2.57358e-06
8.35495e-05
2.27505e-06
8.37388e-05
2.00287e-06
8.39088e-05
1.75872e-06
8.40645e-05
1.54121e-06
8.42091e-05
1.34766e-06
8.4345e-05
1.17523e-06
8.44737e-05
1.02119e-06
8.45965e-05
8.8305e-07
8.47144e-05
7.58604e-07
8.48279e-05
6.45919e-07
8.49378e-05
5.43321e-07
8.50445e-05
4.49357e-07
8.51487e-05
3.62757e-07
8.52507e-05
2.82396e-07
8.53512e-05
2.07246e-07
8.54508e-05
1.36321e-07
8.55503e-05
6.86083e-08
8.56506e-05
2.98284e-09
8.57528e-05
-6.19132e-08
8.58579e-05
-1.27786e-07
8.59672e-05
-1.969e-07
8.60815e-05
-2.72179e-07
8.62009e-05
-3.5742e-07
8.6324e-05
-4.57373e-07
-5.76169e-07
8.64471e-05
8.23691e-05
8.07596e-07
8.28576e-05
2.15638e-06
8.33997e-05
2.86017e-06
8.3898e-05
3.07593e-06
8.43295e-05
3.03295e-06
8.46909e-05
2.84554e-06
8.49924e-05
2.58989e-06
8.52482e-05
2.31783e-06
8.54696e-05
2.05359e-06
8.56655e-05
1.80704e-06
8.5842e-05
1.58214e-06
8.60039e-05
1.37933e-06
8.61543e-05
1.1973e-06
8.62954e-05
1.03409e-06
8.6429e-05
8.87603e-07
8.65563e-05
7.55781e-07
8.66782e-05
6.36702e-07
8.67955e-05
5.2863e-07
8.69088e-05
4.30019e-07
8.70186e-05
3.39488e-07
8.71256e-05
2.55803e-07
8.72302e-05
1.77844e-07
8.73328e-05
1.04557e-07
8.74343e-05
3.49139e-08
8.7535e-05
-3.21562e-08
8.76358e-05
-9.78282e-08
8.77374e-05
-1.63475e-07
8.78404e-05
-2.30751e-07
8.79452e-05
-3.01702e-07
8.80518e-05
-3.788e-07
8.81593e-05
-4.64951e-07
8.82655e-05
-5.63564e-07
-6.76841e-07
8.83662e-05
8.46688e-05
6.46576e-07
8.50663e-05
1.75883e-06
8.55331e-05
2.39345e-06
8.59808e-05
2.62818e-06
8.63826e-05
2.63119e-06
8.67304e-05
2.49775e-06
8.70283e-05
2.29192e-06
8.72859e-05
2.06022e-06
8.75121e-05
1.82747e-06
8.77138e-05
1.6053e-06
8.78967e-05
1.39924e-06
8.80649e-05
1.21117e-06
8.82213e-05
1.04089e-06
8.83681e-05
8.87248e-07
8.8507e-05
7.48707e-07
8.86392e-05
6.23602e-07
8.87656e-05
5.10287e-07
8.8887e-05
4.07216e-07
8.90041e-05
3.12967e-07
8.91173e-05
2.26239e-07
8.92273e-05
1.45847e-07
8.93344e-05
7.06883e-08
8.94393e-05
-2.88013e-10
8.95423e-05
-6.81094e-08
8.9644e-05
-1.3385e-07
8.97448e-05
-1.98662e-07
8.98452e-05
-2.63842e-07
8.99453e-05
-3.3088e-07
9.00451e-05
-4.01495e-07
9.01439e-05
-4.77629e-07
9.02403e-05
-5.61341e-07
9.03316e-05
-6.54869e-07
-7.59054e-07
9.04139e-05
8.70491e-05
5.19652e-07
8.73755e-05
1.43242e-06
8.77782e-05
1.99073e-06
8.81806e-05
2.22585e-06
8.85538e-05
2.25792e-06
8.88871e-05
2.16451e-06
8.918e-05
1.999e-06
8.94382e-05
1.80199e-06
8.96681e-05
1.59754e-06
8.98753e-05
1.3981e-06
9.00644e-05
1.21019e-06
9.02389e-05
1.03671e-06
9.04014e-05
8.78325e-07
9.05541e-05
7.34547e-07
9.06985e-05
6.04321e-07
9.08358e-05
4.86335e-07
9.09669e-05
3.79198e-07
9.10925e-05
2.81541e-07
9.12134e-05
1.92067e-07
9.13301e-05
1.09561e-07
9.14431e-05
3.28954e-08
9.15528e-05
-3.89946e-08
9.16596e-05
-1.07126e-07
9.1764e-05
-1.72502e-07
9.18663e-05
-2.36145e-07
9.19667e-05
-2.99129e-07
9.20655e-05
-3.62614e-07
9.21625e-05
-4.27857e-07
9.22572e-05
-4.96214e-07
9.23487e-05
-5.691e-07
9.24352e-05
-6.47844e-07
9.25141e-05
-7.33742e-07
-8.26738e-07
9.25817e-05
8.95077e-05
4.17504e-07
8.97785e-05
1.16161e-06
9.01274e-05
1.64184e-06
9.04894e-05
1.86379e-06
9.08361e-05
1.91128e-06
9.11546e-05
1.84604e-06
9.14414e-05
1.71211e-06
9.16992e-05
1.54424e-06
9.1932e-05
1.36475e-06
9.21439e-05
1.18616e-06
9.23387e-05
1.01546e-06
9.25192e-05
8.56203e-07
9.26878e-05
7.09694e-07
9.28464e-05
5.75959e-07
9.29964e-05
4.54344e-07
9.31389e-05
3.43839e-07
9.32748e-05
2.43279e-07
9.34049e-05
1.51458e-07
9.35297e-05
6.71983e-08
9.36499e-05
-1.06272e-08
9.37659e-05
-8.30828e-08
9.38781e-05
-1.51177e-07
9.39868e-05
-2.15876e-07
9.40924e-05
-2.78124e-07
9.41952e-05
-3.38863e-07
9.42951e-05
-3.9905e-07
9.43921e-05
-4.59669e-07
9.4486e-05
-5.21724e-07
9.4576e-05
-5.86215e-07
9.4661e-05
-6.54084e-07
9.47392e-05
-7.26073e-07
9.48083e-05
-8.02775e-07
-8.83585e-07
9.48651e-05
9.20437e-05
3.33629e-07
9.22711e-05
9.3423e-07
9.25751e-05
1.33782e-06
9.29019e-05
1.53702e-06
9.32241e-05
1.58906e-06
9.35281e-05
1.54204e-06
9.38084e-05
1.43187e-06
9.40648e-05
1.28777e-06
9.42998e-05
1.1298e-06
9.4516e-05
9.69969e-07
9.47161e-05
8.15338e-07
9.49025e-05
6.69779e-07
9.50772e-05
5.35007e-07
9.52417e-05
4.11423e-07
9.53974e-05
2.98679e-07
9.55452e-05
1.9601e-07
9.56861e-05
1.02436e-07
9.58206e-05
1.68962e-08
9.59495e-05
-6.16791e-08
9.60732e-05
-1.3433e-07
9.61922e-05
-2.02048e-07
9.63068e-05
-2.65779e-07
9.64173e-05
-3.26421e-07
9.65241e-05
-3.84839e-07
9.66271e-05
-4.41873e-07
9.67264e-05
-4.98341e-07
9.68217e-05
-5.5504e-07
9.69127e-05
-6.12727e-07
9.69986e-05
-6.72081e-07
9.70782e-05
-7.33657e-07
9.71498e-05
-7.97753e-07
9.72115e-05
-8.64472e-07
-9.32919e-07
9.72609e-05
9.46574e-05
2.63411e-07
9.48508e-05
7.40767e-07
9.51178e-05
1.07084e-06
9.54141e-05
1.24076e-06
9.57144e-05
1.28879e-06
9.60047e-05
1.25168e-06
9.62782e-05
1.15835e-06
9.6533e-05
1.03301e-06
9.67696e-05
8.9318e-07
9.69896e-05
7.49957e-07
9.71948e-05
6.10133e-07
9.7387e-05
4.77627e-07
9.75676e-05
3.54359e-07
9.77381e-05
2.40962e-07
9.78995e-05
1.37301e-07
9.80527e-05
4.279e-08
9.81985e-05
-4.34009e-08
9.83376e-05
-1.22214e-07
9.84706e-05
-1.94622e-07
9.85978e-05
-2.61584e-07
9.87198e-05
-3.24019e-07
9.88368e-05
-3.82802e-07
9.89492e-05
-4.38753e-07
9.9057e-05
-4.92647e-07
9.91603e-05
-5.45211e-07
9.92591e-05
-5.97121e-07
9.9353e-05
-6.48993e-07
9.94417e-05
-7.0136e-07
9.95242e-05
-7.54637e-07
9.95996e-05
-8.09076e-07
9.96666e-05
-8.64665e-07
9.97233e-05
-9.21189e-07
-9.77641e-07
9.9768e-05
9.73494e-05
2.03499e-07
9.75165e-05
5.73739e-07
9.77532e-05
8.34128e-07
9.80235e-05
9.70458e-07
9.83044e-05
1.0078e-06
9.85824e-05
9.73736e-07
9.88495e-05
8.91237e-07
9.91025e-05
7.80059e-07
9.93405e-05
6.55129e-07
9.95641e-05
5.26355e-07
9.97742e-05
4.00007e-07
9.9972e-05
2.79829e-07
0.000100159
1.6776e-07
0.000100335
6.45355e-08
0.000100502
-2.98611e-08
0.000100661
-1.15899e-07
0.000100812
-1.94305e-07
0.000100956
-2.65929e-07
0.000101093
-3.31667e-07
0.000101223
-3.92403e-07
0.000101348
-4.4899e-07
0.000101468
-5.02227e-07
0.000101582
-5.52856e-07
0.000101691
-6.01557e-07
0.000101795
-6.48944e-07
0.000101893
-6.9556e-07
0.000101986
-7.41856e-07
0.000102073
-7.8818e-07
0.000102153
-8.34738e-07
0.000102225
-8.81565e-07
0.000102289
-9.28451e-07
0.000102343
-9.75e-07
-1.02021e-06
0.000102385
0.000100121
1.51403e-07
0.000100268
4.27228e-07
0.00010048
6.21834e-07
0.000100729
7.21822e-07
0.000100993
7.43313e-07
0.00010126
7.06645e-07
0.000101522
6.29798e-07
0.000101773
5.28635e-07
0.000102013
4.15568e-07
0.00010224
2.99154e-07
0.000102455
1.8495e-07
0.000102658
7.63429e-08
0.000102851
-2.48636e-08
0.000103033
-1.17955e-07
0.000103207
-2.0292e-07
0.000103371
-2.80176e-07
0.000103527
-3.50391e-07
0.000103675
-4.14358e-07
0.000103817
-4.72911e-07
0.000103951
-5.26876e-07
0.000104079
-5.77041e-07
0.000104201
-6.24139e-07
0.000104317
-6.68833e-07
0.000104427
-7.11714e-07
0.000104531
-7.53291e-07
0.00010463
-7.93984e-07
0.000104722
-8.34113e-07
0.000104808
-8.73874e-07
0.000104886
-9.13322e-07
0.000104957
-9.52348e-07
0.000105019
-9.90629e-07
0.000105072
-1.02768e-06
-1.06259e-06
0.000105114
0.000102974
1.05219e-07
0.000103105
2.96485e-07
0.000103298
4.28874e-07
0.000103529
4.90798e-07
0.00010378
4.92435e-07
0.000104038
4.48538e-07
0.000104295
3.72937e-07
0.000104545
2.78126e-07
0.000104787
1.74153e-07
0.000105018
6.81468e-08
0.000105238
-3.51864e-08
0.000105447
-1.32958e-07
0.000105646
-2.23633e-07
0.000105835
-3.06629e-07
0.000106014
-3.81987e-07
0.000106184
-4.50141e-07
0.000106345
-5.11746e-07
0.000106498
-5.67568e-07
0.000106644
-6.18404e-07
0.000106782
-6.65039e-07
0.000106913
-7.08207e-07
0.000107037
-7.4858e-07
0.000107155
-7.86751e-07
0.000107267
-8.23232e-07
0.000107372
-8.5844e-07
0.000107471
-8.92694e-07
0.000107563
-9.26205e-07
0.000107648
-9.59062e-07
0.000107726
-9.91216e-07
0.000107796
-1.02247e-06
0.000107858
-1.05246e-06
0.000107911
-1.0807e-06
-1.10637e-06
0.000107955
0.00010591
6.34475e-08
0.000106029
1.7763e-07
0.000106207
2.50794e-07
0.000106425
2.73537e-07
0.000106665
2.52185e-07
0.000106916
1.97259e-07
0.00010717
1.19166e-07
0.000107421
2.7505e-08
0.000107665
-6.98567e-08
0.0001079
-1.6724e-07
0.000108126
-2.60878e-07
0.000108341
-3.48494e-07
0.000108547
-4.28932e-07
0.000108742
-5.01837e-07
0.000108927
-5.67387e-07
0.000109103
-6.26088e-07
0.00010927
-6.78632e-07
0.000109428
-7.25792e-07
0.000109578
-7.68356e-07
0.00010972
-8.07082e-07
0.000109855
-8.42667e-07
0.000109982
-8.75734e-07
0.000110102
-9.06818e-07
0.000110215
-9.36361e-07
0.000110321
-9.64708e-07
0.000110421
-9.92096e-07
0.000110513
-1.01866e-06
0.000110598
-1.0444e-06
0.000110676
-1.06922e-06
0.000110747
-1.09288e-06
0.000110809
-1.11501e-06
0.000110864
-1.13513e-06
-1.15256e-06
0.00011091
0.000108932
2.48655e-08
0.000109042
6.74103e-08
0.000109209
8.36249e-08
0.000109417
6.63589e-08
0.000109649
1.95071e-08
0.000109896
-4.9579e-08
0.000110149
-1.33295e-07
0.000110401
-2.24533e-07
0.000110648
-3.17426e-07
0.000110889
-4.07728e-07
0.00011112
-4.9268e-07
0.000111343
-5.70698e-07
0.000111555
-6.41103e-07
0.000111757
-7.03854e-07
0.000111949
-7.59335e-07
0.000112131
-8.08187e-07
0.000112303
-8.5118e-07
0.000112467
-8.89131e-07
0.000112621
-9.22844e-07
0.000112767
-9.5307e-07
0.000112905
-9.80485e-07
0.000113035
-1.00568e-06
0.000113157
-1.02914e-06
0.000113272
-1.05125e-06
0.00011338
-1.07231e-06
0.00011348
-1.09248e-06
0.000113573
-1.11186e-06
0.000113659
-1.13039e-06
0.000113738
-1.14795e-06
0.000113809
-1.16428e-06
0.000113874
-1.17904e-06
0.00011393
-1.19182e-06
-1.20205e-06
0.00011398
0.000112041
-1.15713e-08
0.000112145
-3.70066e-08
0.000112305
-7.6282e-08
0.000112506
-1.34368e-07
0.000112734
-2.08849e-07
0.000112979
-2.94735e-07
0.000113233
-3.86723e-07
0.000113488
-4.79862e-07
0.000113741
-5.70113e-07
0.000113988
-6.54639e-07
0.000114227
-7.31725e-07
0.000114457
-8.00557e-07
0.000114677
-8.61007e-07
0.000114886
-9.1343e-07
0.000115085
-9.58485e-07
0.000115274
-9.97e-07
0.000115453
-1.02987e-06
0.000115622
-1.058e-06
0.000115781
-1.08222e-06
0.000115931
-1.10331e-06
0.000116073
-1.12193e-06
0.000116206
-1.13866e-06
0.000116331
-1.15396e-06
0.000116448
-1.16817e-06
0.000116557
-1.18155e-06
0.000116659
-1.19421e-06
0.000116753
-1.20622e-06
0.00011684
-1.2175e-06
0.00011692
-1.2279e-06
0.000116993
-1.23719e-06
0.000117059
-1.24506e-06
0.000117118
-1.25114e-06
-1.25497e-06
0.000117171
0.00011524
-4.67926e-08
0.000115341
-1.38178e-07
0.000115497
-2.32359e-07
0.000115695
-3.32226e-07
0.000115922
-4.36217e-07
0.000116169
-5.41122e-07
0.000116425
-6.43551e-07
0.000116686
-7.40456e-07
0.000116945
-8.295e-07
0.0001172
-9.09229e-07
0.000117447
-9.79008e-07
0.000117686
-1.03885e-06
0.000117914
-1.08926e-06
0.000118131
-1.13105e-06
0.000118338
-1.16522e-06
0.000118534
-1.19282e-06
0.000118719
-1.21494e-06
0.000118894
-1.23256e-06
0.000119058
-1.24661e-06
0.000119213
-1.2579e-06
0.000119358
-1.2671e-06
0.000119494
-1.27479e-06
0.000119621
-1.2814e-06
0.00011974
-1.28726e-06
0.000119851
-1.29258e-06
0.000119955
-1.29748e-06
0.00012005
-1.30197e-06
0.000120139
-1.30599e-06
0.00012022
-1.30938e-06
0.000120295
-1.31194e-06
0.000120364
-1.31338e-06
0.000120426
-1.31344e-06
-1.31172e-06
0.000120483
0.000118531
-8.16833e-08
0.000118631
-2.38586e-07
0.000118787
-3.8809e-07
0.000118986
-5.31086e-07
0.000119216
-6.66478e-07
0.000119467
-7.92419e-07
0.000119731
-9.07153e-07
0.00012
-1.00935e-06
0.000120269
-1.09828e-06
0.000120533
-1.17386e-06
0.000120791
-1.23659e-06
0.000121039
-1.28737e-06
0.000121277
-1.32739e-06
0.000121504
-1.358e-06
0.00012172
-1.3806e-06
0.000121923
-1.39653e-06
0.000122116
-1.40708e-06
0.000122296
-1.4134e-06
0.000122466
-1.41648e-06
0.000122626
-1.41721e-06
0.000122775
-1.41629e-06
0.000122914
-1.41429e-06
0.000123045
-1.41165e-06
0.000123166
-1.40868e-06
0.000123279
-1.40558e-06
0.000123384
-1.40245e-06
0.000123481
-1.39928e-06
0.000123571
-1.39602e-06
0.000123654
-1.3925e-06
0.000123731
-1.38855e-06
0.000123802
-1.38393e-06
0.000123867
-1.37838e-06
-1.37158e-06
0.000123926
0.000121917
-1.17112e-07
0.000122019
-3.40671e-07
0.000122178
-5.46923e-07
0.000122381
-7.34789e-07
0.000122618
-9.0342e-07
0.000122878
-1.05211e-06
0.000123151
-1.18058e-06
0.000123431
-1.28912e-06
0.000123712
-1.3786e-06
0.000123988
-1.45032e-06
0.000124257
-1.50593e-06
0.000124517
-1.54731e-06
0.000124766
-1.57638e-06
0.000125003
-1.5951e-06
0.000125228
-1.6053e-06
0.00012544
-1.60869e-06
0.00012564
-1.60677e-06
0.000125827
-1.60087e-06
0.000126003
-1.59212e-06
0.000126167
-1.58147e-06
0.000126321
-1.56966e-06
0.000126464
-1.5573e-06
0.000126597
-1.54482e-06
0.000126721
-1.53253e-06
0.000126836
-1.52062e-06
0.000126942
-1.50917e-06
0.000127041
-1.49819e-06
0.000127133
-1.48761e-06
0.000127218
-1.47728e-06
0.000127296
-1.46703e-06
0.000127369
-1.45667e-06
0.000127437
-1.44601e-06
-1.43475e-06
0.0001275
0.0001254
-1.54091e-07
0.000125507
-4.47285e-07
0.000125673
-7.13085e-07
0.000125887
-9.48389e-07
0.000126136
-1.15249e-06
0.000126409
-1.32568e-06
0.000126698
-1.4691e-06
0.000126994
-1.58466e-06
0.00012729
-1.67485e-06
0.000127582
-1.74242e-06
0.000127866
-1.7903e-06
0.00012814
-1.82138e-06
0.000128402
-1.83845e-06
0.000128651
-1.84412e-06
0.000128887
-1.84072e-06
0.000129108
-1.83034e-06
0.000129316
-1.81477e-06
0.000129511
-1.79554e-06
0.000129693
-1.77391e-06
0.000129862
-1.75091e-06
0.00013002
-1.72736e-06
0.000130167
-1.70387e-06
0.000130303
-1.68089e-06
0.000130429
-1.65873e-06
0.000130546
-1.63758e-06
0.000130654
-1.6175e-06
0.000130754
-1.59849e-06
0.000130847
-1.58048e-06
0.000130933
-1.56332e-06
0.000131013
-1.54686e-06
0.000131087
-1.5309e-06
0.000131157
-1.51526e-06
-1.49963e-06
0.000131222
0.000128985
-1.9358e-07
0.000129098
-5.6119e-07
0.000129276
-8.90448e-07
0.000129504
-1.17617e-06
0.000129769
-1.41789e-06
0.00013006
-1.61705e-06
0.000130368
-1.77624e-06
0.000130682
-1.89911e-06
0.000130997
-1.98982e-06
0.000131307
-2.05269e-06
0.000131609
-2.09195e-06
0.000131899
-2.11163e-06
0.000132176
-2.11542e-06
0.000132439
-2.10666e-06
0.000132686
-2.08825e-06
0.000132919
-2.06269e-06
0.000133136
-2.03211e-06
0.000133339
-1.99824e-06
0.000133527
-1.96252e-06
0.000133702
-1.92607e-06
0.000133865
-1.88977e-06
0.000134015
-1.85427e-06
0.000134154
-1.82004e-06
0.000134283
-1.78738e-06
0.000134402
-1.75647e-06
0.000134512
-1.72737e-06
0.000134613
-1.70006e-06
0.000134707
-1.67446e-06
0.000134794
-1.65044e-06
0.000134875
-1.62782e-06
0.000134951
-1.60643e-06
0.000135022
-1.58611e-06
-1.56657e-06
0.000135089
0.000132673
-2.37283e-07
0.000132799
-6.87042e-07
0.000132994
-1.08603e-06
0.000133245
-1.42668e-06
0.000133536
-1.70893e-06
0.000133854
-1.93548e-06
0.000134189
-2.11067e-06
0.00013453
-2.24014e-06
0.00013487
-2.33004e-06
0.000135204
-2.38644e-06
0.000135527
-2.41509e-06
0.000135836
-2.42127e-06
0.000136131
-2.40969e-06
0.000136408
-2.38444e-06
0.000136669
-2.34906e-06
0.000136913
-2.30649e-06
0.00013714
-2.25918e-06
0.000137351
-2.20912e-06
0.000137546
-2.1579e-06
0.000137727
-2.10674e-06
0.000137894
-2.05659e-06
0.000138048
-2.00812e-06
0.000138189
-1.96181e-06
0.00013832
-1.91795e-06
0.00013844
-1.87671e-06
0.000138551
-1.83813e-06
0.000138653
-1.80218e-06
0.000138747
-1.76874e-06
0.000138835
-1.73766e-06
0.000138916
-1.70876e-06
0.000138991
-1.68182e-06
0.000139062
-1.65665e-06
-1.63292e-06
0.000139128
0.000136467
-2.86036e-07
0.000136608
-8.27719e-07
0.000136825
-1.30355e-06
0.000137102
-1.70378e-06
0.000137423
-2.02946e-06
0.000137772
-2.28499e-06
0.000138138
-2.47666e-06
0.000138511
-2.6123e-06
0.000138881
-2.70022e-06
0.000139243
-2.74844e-06
0.000139592
-2.76437e-06
0.000139925
-2.75468e-06
0.000140241
-2.72522e-06
0.000140538
-2.681e-06
0.000140815
-2.6262e-06
0.000141072
-2.5643e-06
0.000141311
-2.49812e-06
0.000141532
-2.4299e-06
0.000141736
-2.3614e-06
0.000141923
-2.29396e-06
0.000142095
-2.22856e-06
0.000142253
-2.16592e-06
0.000142397
-2.1065e-06
0.00014253
-2.05058e-06
0.000142652
-1.9983e-06
0.000142763
-1.94967e-06
0.000142866
-1.90462e-06
0.00014296
-1.86302e-06
0.000143047
-1.82469e-06
0.000143128
-1.78941e-06
0.000143203
-1.75695e-06
0.000143273
-1.72714e-06
-1.69959e-06
0.00014334
0.000140374
-3.44512e-07
0.000140541
-9.94497e-07
0.000140796
-1.55901e-06
0.000141118
-2.02553e-06
0.000141486
-2.39728e-06
0.000141882
-2.68138e-06
0.000142293
-2.88713e-06
0.000142706
-3.0255e-06
0.000143113
-3.10757e-06
0.000143509
-3.14362e-06
0.000143887
-3.14294e-06
0.000144246
-3.11372e-06
0.000144584
-3.06298e-06
0.0001449
-2.99663e-06
0.000145193
-2.91955e-06
0.000145464
-2.83573e-06
0.000145715
-2.74833e-06
0.000145945
-2.65986e-06
0.000146155
-2.57222e-06
0.000146348
-2.48684e-06
0.000146524
-2.40475e-06
0.000146685
-2.32667e-06
0.000146832
-2.25306e-06
0.000146965
-2.18415e-06
0.000147087
-2.12004e-06
0.000147198
-2.06071e-06
0.0001473
-2.00603e-06
0.000147392
-1.95582e-06
0.000147477
-1.90984e-06
0.000147556
-1.86784e-06
0.000147628
-1.82951e-06
0.000147696
-1.79461e-06
-1.76266e-06
0.000147759
0.000144391
-4.10529e-07
0.000144582
-1.18623e-06
0.000144875
-1.85121e-06
0.000145241
-2.39211e-06
0.000145659
-2.81558e-06
0.000146109
-3.13132e-06
0.000146574
-3.35166e-06
0.00014704
-3.49118e-06
0.000147496
-3.56428e-06
0.000147937
-3.58403e-06
0.000148356
-3.56206e-06
0.000148751
-3.50843e-06
0.000149119
-3.43162e-06
0.000149461
-3.3386e-06
0.000149777
-3.23505e-06
0.000150066
-3.12552e-06
0.000150332
-3.01354e-06
0.000150574
-2.90186e-06
0.000150794
-2.7925e-06
0.000150994
-2.68698e-06
0.000151176
-2.58632e-06
0.00015134
-2.4912e-06
0.000151489
-2.40204e-06
0.000151624
-2.31901e-06
0.000151746
-2.24213e-06
0.000151857
-2.17132e-06
0.000151957
-2.10638e-06
0.000152048
-2.04707e-06
0.000152132
-1.9931e-06
0.000152208
-1.94416e-06
0.000152278
-1.89992e-06
0.000152344
-1.86009e-06
-1.82413e-06
0.000152405
0.000148541
-5.03537e-07
0.000148794
-1.43971e-06
0.000149166
-2.22301e-06
0.000149616
-2.84213e-06
0.000150114
-3.31371e-06
0.000150637
-3.65401e-06
0.000151166
-3.88093e-06
0.000151689
-4.014e-06
0.000152196
-4.07121e-06
0.000152681
-4.06843e-06
0.000153138
-4.01956e-06
0.000153566
-3.93643e-06
0.000153963
-3.82887e-06
0.00015433
-3.70489e-06
0.000154665
-3.57095e-06
0.000154972
-3.43211e-06
0.000155251
-3.29228e-06
0.000155503
-3.15444e-06
0.000155732
-3.02074e-06
0.000155937
-2.89273e-06
0.000156122
-2.77143e-06
0.000156289
-2.65747e-06
0.000156438
-2.55119e-06
0.000156572
-2.45268e-06
0.000156691
-2.36187e-06
0.000156799
-2.27857e-06
0.000156895
-2.20249e-06
0.000156981
-2.13332e-06
0.000157058
-2.07068e-06
0.000157129
-2.01418e-06
0.000157192
-1.9634e-06
0.00015725
-1.91794e-06
-1.87713e-06
0.000157303
0.000152785
-5.9895e-07
0.000153074
-1.72928e-06
0.000153507
-2.65617e-06
0.00015404
-3.37516e-06
0.000154636
-3.90951e-06
0.000155262
-4.27946e-06
0.000155891
-4.51044e-06
0.000156507
-4.62974e-06
0.000157097
-4.66109e-06
0.000157653
-4.62469e-06
0.000158171
-4.53777e-06
0.000158649
-4.41458e-06
0.000159087
-4.26667e-06
0.000159485
-4.10325e-06
0.000159846
-3.93152e-06
0.000160171
-3.75707e-06
0.000160463
-3.58407e-06
0.000160724
-3.41561e-06
0.000160957
-3.25385e-06
0.000161165
-3.10028e-06
0.000161349
-2.95581e-06
0.000161512
-2.82094e-06
0.000161657
-2.69584e-06
0.000161785
-2.58045e-06
0.000161898
-2.47455e-06
0.000161997
-2.3778e-06
0.000162084
-2.28982e-06
0.000162161
-2.21017e-06
0.000162229
-2.13841e-06
0.000162289
-2.0741e-06
0.000162342
-2.01676e-06
0.00016239
-1.96601e-06
-1.92101e-06
0.000162434
0.000157246
-7.93529e-07
0.000157697
-2.17982e-06
0.000158289
-3.24836e-06
0.000158956
-4.04219e-06
0.000159662
-4.61567e-06
0.000160379
-4.99639e-06
0.000161086
-5.21716e-06
0.000161767
-5.31149e-06
0.000162414
-5.30727e-06
0.000163017
-5.22838e-06
0.000163575
-5.0952e-06
0.000164084
-4.9244e-06
0.000164547
-4.7293e-06
0.000164964
-4.52037e-06
0.000165338
-4.30568e-06
0.000165673
-4.09125e-06
0.00016597
-3.88152e-06
0.000166234
-3.67962e-06
0.000166468
-3.48764e-06
0.000166674
-3.3069e-06
0.000166857
-3.13813e-06
0.000167017
-2.98158e-06
0.000167159
-2.8372e-06
0.000167283
-2.7047e-06
0.000167392
-2.58365e-06
0.000167488
-2.47351e-06
0.000167572
-2.37373e-06
0.000167645
-2.28375e-06
0.00016771
-2.20301e-06
0.000167767
-2.13102e-06
0.000167817
-2.06728e-06
0.000167863
-2.01137e-06
-1.9624e-06
0.000167904
0.000161692
-9.47366e-07
0.000162215
-2.70286e-06
0.000162956
-3.98883e-06
0.00016382
-4.90691e-06
0.000164733
-5.52821e-06
0.000165637
-5.90051e-06
0.000166504
-6.08395e-06
0.000167321
-6.12805e-06
0.000168082
-6.0685e-06
0.000168787
-5.93383e-06
0.000169439
-5.74688e-06
0.00017004
-5.5253e-06
0.000170593
-5.2827e-06
0.000171102
-5.02955e-06
0.00017157
-4.77374e-06
0.000172
-4.52113e-06
0.000172395
-4.27599e-06
0.000172756
-4.04132e-06
0.000173088
-3.8191e-06
0.000173392
-3.61054e-06
0.00017367
-3.41625e-06
0.000173924
-3.23637e-06
0.000174158
-3.07071e-06
0.000174372
-2.91884e-06
0.000174569
-2.78019e-06
0.000174749
-2.65409e-06
0.000174915
-2.53988e-06
0.000175069
-2.4369e-06
0.00017521
-2.34461e-06
0.000175342
-2.26251e-06
0.000175465
-2.19047e-06
0.000175582
-2.12808e-06
-2.07549e-06
0.000175695
0.00016669
-1.4836e-06
0.000167548
-3.5615e-06
0.000168493
-4.9332e-06
0.000169515
-5.92856e-06
0.000170615
-6.62831e-06
0.000171773
-7.05878e-06
0.00017297
-7.28103e-06
0.000174183
-7.34137e-06
0.000175389
-7.27395e-06
0.000176565
-7.10997e-06
0.000177694
-6.87636e-06
0.000178764
-6.59521e-06
0.000179766
-6.28444e-06
0.000180695
-5.95823e-06
0.000181548
-5.62758e-06
0.000182328
-5.30079e-06