/*--------------------------------*- C++ -*----------------------------------*\
  =========                 |
  \\      /  F ield         | OpenFOAM: The Open Source CFD Toolbox
   \\    /   O peration     | Website:  https://openfoam.org
    \\  /    A nd           | Version:  10
     \\/     M anipulation  |
\*---------------------------------------------------------------------------*/
FoamFile
{
    format      ascii;
    class       volVectorField;
    location    "0.055";
    object      U;
}
// * * * * * * * * * * * * * * * * * * * * * * * * * * * * * * * * * * * * * //

dimensions      [0 1 -1 0 0 0 0];

internalField   nonuniform List<vector> 
6820
(
(5.57353 0.459165 0)
(3.88286 0.245942 0)
(2.58887 0.00883154 0)
(1.95671 -0.0641435 0)
(1.73109 -0.0594404 0)
(1.61963 -0.0339734 0)
(1.55431 -0.0153198 0)
(1.50799 -0.00525813 0)
(1.46899 -0.00067278 0)
(1.43519 0.000825232 0)
(1.40603 0.000875751 0)
(1.38104 0.000363867 0)
(1.35974 -0.000301126 0)
(1.34161 -0.000938251 0)
(1.32618 -0.00147822 0)
(1.31304 -0.0019059 0)
(1.30185 -0.00222983 0)
(1.29235 -0.00246628 0)
(1.2843 -0.00263186 0)
(1.27754 -0.00274073 0)
(1.2719 -0.00280382 0)
(1.26725 -0.00282849 0)
(1.26345 -0.00281875 0)
(1.26038 -0.00277427 0)
(1.25789 -0.00269198 0)
(1.25581 -0.00255727 0)
(1.25385 -0.00236234 0)
(1.25182 -0.00201864 0)
(1.24871 -0.00158335 0)
(1.24521 -0.000250966 0)
(1.23453 0.000488673 0)
(1.22996 0.0119967 0)
(1.16308 -0.0125066 0)
(7.66981 0.863946 0)
(7.71716 0.890904 0)
(6.99973 0.598569 0)
(6.19683 0.347674 0)
(5.58307 0.179769 0)
(5.13794 0.0932985 0)
(4.82045 0.0529716 0)
(4.59115 0.0345288 0)
(4.41906 0.0261018 0)
(4.28488 0.0218309 0)
(4.17692 0.0192445 0)
(4.08785 0.0174019 0)
(4.01299 0.0159282 0)
(3.9492 0.0146584 0)
(3.89428 0.0135087 0)
(3.84664 0.0124356 0)
(3.8051 0.0114173 0)
(3.76875 0.0104428 0)
(3.73686 0.00950739 0)
(3.70886 0.00861022 0)
(3.68428 0.00775426 0)
(3.66272 0.00694668 0)
(3.64382 0.00619989 0)
(3.62728 0.00553479 0)
(3.61277 0.00498269 0)
(3.59999 0.00460153 0)
(3.58857 0.00446014 0)
(3.57807 0.00476565 0)
(3.5679 0.00560281 0)
(3.55729 0.0081314 0)
(3.54494 0.0114604 0)
(3.52972 0.024271 0)
(3.51217 0.0354692 0)
(7.56353 0.520365 0)
(8.22517 0.663723 0)
(8.46472 0.576441 0)
(8.36369 0.458983 0)
(8.12769 0.344991 0)
(7.85061 0.260194 0)
(7.58024 0.200615 0)
(7.33639 0.157864 0)
(7.12238 0.126781 0)
(6.93625 0.103675 0)
(6.77475 0.0860531 0)
(6.63447 0.0723322 0)
(6.51232 0.061468 0)
(6.40563 0.0527453 0)
(6.31216 0.0456442 0)
(6.23002 0.0397764 0)
(6.15762 0.0348523 0)
(6.09367 0.0306575 0)
(6.03704 0.0270333 0)
(5.98682 0.0238632 0)
(5.94223 0.0210637 0)
(5.90259 0.0185781 0)
(5.86734 0.016374 0)
(5.83596 0.0144443 0)
(5.80799 0.01281 0)
(5.783 0.0115321 0)
(5.76053 0.0107221 0)
(5.74015 0.0106025 0)
(5.72126 0.0114809 0)
(5.70347 0.0142033 0)
(5.68586 0.0192916 0)
(5.66876 0.0309478 0)
(5.65315 0.0466252 0)
(7.43336 0.341141 0)
(7.88464 0.514652 0)
(8.24331 0.489901 0)
(8.44185 0.430258 0)
(8.54147 0.359224 0)
(8.57145 0.298848 0)
(8.55632 0.252964 0)
(8.51567 0.217692 0)
(8.46051 0.190018 0)
(8.39726 0.167677 0)
(8.33011 0.149078 0)
(8.26179 0.133256 0)
(8.19408 0.119581 0)
(8.12831 0.107616 0)
(8.06529 0.0970676 0)
(8.00551 0.0877145 0)
(7.94921 0.0793763 0)
(7.89649 0.0719025 0)
(7.84737 0.0651686 0)
(7.80176 0.0590737 0)
(7.75955 0.0535384 0)
(7.72061 0.0485048 0)
(7.68476 0.0439374 0)
(7.65183 0.0398267 0)
(7.62162 0.0361949 0)
(7.59394 0.03311 0)
(7.56857 0.0306955 0)
(7.54531 0.0291921 0)
(7.52391 0.0289258 0)
(7.50438 0.0306468 0)
(7.48668 0.0349339 0)
(7.47202 0.0443036 0)
(7.46288 0.0580845 0)
(7.39682 0.251094 0)
(7.67993 0.421245 0)
(7.92327 0.404333 0)
(8.07716 0.354542 0)
(8.18756 0.300038 0)
(8.26977 0.254613 0)
(8.33057 0.220941 0)
(8.37728 0.195348 0)
(8.41387 0.175081 0)
(8.44239 0.158483 0)
(8.4644 0.144454 0)
(8.48111 0.13232 0)
(8.49349 0.121663 0)
(8.5021 0.112186 0)
(8.50757 0.103661 0)
(8.51048 0.0959171 0)
(8.51134 0.0888227 0)
(8.51059 0.0822758 0)
(8.5086 0.0761971 0)
(8.50568 0.0705266 0)
(8.50209 0.0652216 0)
(8.49807 0.0602562 0)
(8.49378 0.0556233 0)
(8.48939 0.0513384 0)
(8.48504 0.047445 0)
(8.48084 0.0440271 0)
(8.47692 0.041219 0)
(8.47345 0.0392414 0)
(8.47063 0.0383906 0)
(8.46897 0.0391784 0)
(8.46909 0.0420198 0)
(8.47295 0.048016 0)
(8.48261 0.056051 0)
(7.37402 0.180758 0)
(7.57408 0.336346 0)
(7.76072 0.342716 0)
(7.87511 0.313728 0)
(7.95121 0.274766 0)
(8.00647 0.236836 0)
(8.04782 0.205737 0)
(8.0819 0.180931 0)
(8.11216 0.160939 0)
(8.13977 0.144616 0)
(8.16528 0.130999 0)
(8.189 0.119382 0)
(8.21113 0.109305 0)
(8.2319 0.10045 0)
(8.25142 0.0925609 0)
(8.26977 0.0854433 0)
(8.28701 0.0789535 0)
(8.30322 0.0729819 0)
(8.31846 0.067445 0)
(8.33281 0.0622793 0)
(8.34633 0.0574394 0)
(8.3591 0.0528967 0)
(8.37121 0.0486402 0)
(8.38272 0.0446792 0)
(8.39375 0.0410465 0)
(8.40442 0.0378064 0)
(8.4149 0.0350571 0)
(8.42545 0.0329503 0)
(8.43641 0.0316604 0)
(8.44848 0.0314478 0)
(8.46243 0.0323766 0)
(8.48023 0.0346379 0)
(8.50303 0.0367592 0)
(7.35905 0.132844 0)
(7.50326 0.273415 0)
(7.65556 0.295459 0)
(7.75545 0.278933 0)
(7.8214 0.249614 0)
(7.86817 0.217977 0)
(7.90138 0.190574 0)
(7.92675 0.168145 0)
(7.94802 0.149706 0)
(7.96678 0.134381 0)
(7.98391 0.121431 0)
(7.99995 0.110286 0)
(8.01517 0.100545 0)
(8.02973 0.0919167 0)
(8.04375 0.0841908 0)
(8.05729 0.0772067 0)
(8.07039 0.070838 0)
(8.0831 0.0649828 0)
(8.09543 0.0595595 0)
(8.1074 0.054504 0)
(8.11903 0.0497676 0)
(8.13035 0.045317 0)
(8.14139 0.0411333 0)
(8.15219 0.0372137 0)
(8.16284 0.0335714 0)
(8.17341 0.0302391 0)
(8.18407 0.0272637 0)
(8.19504 0.024711 0)
(8.20666 0.0226231 0)
(8.21949 0.0210357 0)
(8.23419 0.0197296 0)
(8.2521 0.0183961 0)
(8.27389 0.0154721 0)
(7.34964 0.0991519 0)
(7.45338 0.220833 0)
(7.57634 0.250886 0)
(7.66491 0.244419 0)
(7.72654 0.225022 0)
(7.77204 0.201148 0)
(7.80522 0.178589 0)
(7.83038 0.158975 0)
(7.85091 0.142102 0)
(7.8685 0.127602 0)
(7.88409 0.115081 0)
(7.89832 0.104159 0)
(7.91156 0.0945311 0)
(7.92406 0.0859669 0)
(7.93596 0.0782819 0)
(7.94739 0.0713242 0)
(7.95841 0.0649698 0)
(7.96908 0.0591186 0)
(7.97946 0.0536901 0)
(7.98957 0.0486199 0)
(7.99946 0.0438581 0)
(8.00916 0.0393673 0)
(8.01871 0.0351216 0)
(8.02817 0.0311061 0)
(8.03762 0.0273152 0)
(8.04714 0.0237514 0)
(8.0569 0.0204155 0)
(8.0671 0.0173014 0)
(8.07803 0.014352 0)
(8.09014 0.0114491 0)
(8.10391 0.00823135 0)
(8.12018 0.00414306 0)
(8.13925 -0.0021311 0)
(7.34381 0.0751997 0)
(7.41915 0.178895 0)
(7.51786 0.213479 0)
(7.59509 0.214623 0)
(7.65141 0.202343 0)
(7.69464 0.183981 0)
(7.72747 0.164931 0)
(7.75302 0.147533 0)
(7.77407 0.132144 0)
(7.79217 0.11867 0)
(7.80819 0.106888 0)
(7.82272 0.0965172 0)
(7.83615 0.0873106 0)
(7.84875 0.0790681 0)
(7.86066 0.0716265 0)
(7.87204 0.0648513 0)
(7.88295 0.058633 0)
(7.89348 0.0528818 0)
(7.90368 0.0475238 0)
(7.91359 0.0424979 0)
(7.92326 0.037754 0)
(7.93274 0.0332517 0)
(7.94207 0.0289585 0)
(7.95132 0.024848 0)
(7.96056 0.0208966 0)
(7.9699 0.0170793 0)
(7.97947 0.0133576 0)
(7.98945 0.00966862 0)
(8.00008 0.0058847 0)
(8.01168 0.00179359 0)
(8.02457 -0.00302355 0)
(8.03917 -0.0091921 0)
(8.0555 -0.0177397 0)
(7.34017 0.0579593 0)
(7.39548 0.145232 0)
(7.47452 0.180911 0)
(7.54129 0.187036 0)
(7.59236 0.180103 0)
(7.63298 0.1666 0)
(7.66497 0.151185 0)
(7.69043 0.136317 0)
(7.71162 0.122665 0)
(7.72992 0.110354 0)
(7.74613 0.0993405 0)
(7.76083 0.0894838 0)
(7.77441 0.0806247 0)
(7.78712 0.0726204 0)
(7.79914 0.065345 0)
(7.81059 0.0586884 0)
(7.82156 0.0525551 0)
(7.83213 0.0468633 0)
(7.84236 0.0415427 0)
(7.85229 0.0365331 0)
(7.86197 0.0317832 0)
(7.87144 0.0272485 0)
(7.88076 0.0228895 0)
(7.88999 0.0186688 0)
(7.89919 0.0145469 0)
(7.90846 0.0104758 0)
(7.91792 0.00638735 0)
(7.92772 0.00218009 0)
(7.93801 -0.00231197 0)
(7.949 -0.00734078 0)
(7.96086 -0.0133124 0)
(7.97374 -0.0208056 0)
(7.98748 -0.0305691 0)
(7.33788 0.04531 0)
(7.379 0.118158 0)
(7.44234 0.152902 0)
(7.49978 0.162392 0)
(7.54587 0.159571 0)
(7.58373 0.149988 0)
(7.61452 0.137574 0)
(7.63961 0.124782 0)
(7.66076 0.112557 0)
(7.67915 0.101231 0)
(7.69552 0.0909093 0)
(7.71038 0.0815557 0)
(7.7241 0.0730749 0)
(7.73693 0.0653616 0)
(7.74905 0.0583138 0)
(7.76057 0.0518361 0)
(7.7716 0.045843 0)
(7.78221 0.040259 0)
(7.79245 0.0350179 0)
(7.80239 0.0300612 0)
(7.81206 0.025337 0)
(7.82151 0.0207978 0)
(7.83079 0.0163982 0)
(7.83996 0.012092 0)
(7.84908 0.00782713 0)
(7.85824 0.0035393 0)
(7.8675 -0.000858376 0)
(7.87699 -0.00548796 0)
(7.88681 -0.0105284 0)
(7.89706 -0.0162315 0)
(7.90778 -0.0229575 0)
(7.91894 -0.0311904 0)
(7.93032 -0.0414413 0)
(7.33642 0.0358469 0)
(7.36742 0.0963212 0)
(7.41829 0.128799 0)
(7.46751 0.140162 0)
(7.50888 0.140201 0)
(7.54397 0.133639 0)
(7.57341 0.123793 0)
(7.59801 0.112961 0)
(7.61905 0.102204 0)
(7.63751 0.0919655 0)
(7.65402 0.082441 0)
(7.66904 0.0736727 0)
(7.68291 0.0656247 0)
(7.69588 0.0582334 0)
(7.70811 0.0514265 0)
(7.71973 0.0451303 0)
(7.73083 0.039274 0)
(7.74149 0.0337919 0)
(7.75177 0.0286236 0)
(7.76172 0.0237135 0)
(7.77139 0.0190097 0)
(7.78082 0.0144628 0)
(7.79006 0.0100231 0)
(7.79915 0.00563828 0)
(7.80816 0.00124789 0)
(7.81714 -0.00322194 0)
(7.82616 -0.00786685 0)
(7.83527 -0.012814 0)
(7.84453 -0.0182361 0)
(7.85397 -0.0243606 0)
(7.86355 -0.0314818 0)
(7.87314 -0.0399719 0)
(7.88247 -0.0501529 0)
(7.33548 0.0286165 0)
(7.35921 0.0785968 0)
(7.40024 0.108053 0)
(7.44231 0.120197 0)
(7.47932 0.122195 0)
(7.51171 0.117968 0)
(7.53968 0.110262 0)
(7.56361 0.101125 0)
(7.5844 0.0916508 0)
(7.60283 0.0823671 0)
(7.61942 0.0735461 0)
(7.63458 0.0653005 0)
(7.64861 0.057648 0)
(7.66173 0.0505617 0)
(7.6741 0.0439943 0)
(7.68584 0.0378886 0)
(7.69704 0.032185 0)
(7.70778 0.0268245 0)
(7.71812 0.0217508 0)
(7.7281 0.0169102 0)
(7.73777 0.012251 0)
(7.74718 0.0077223 0)
(7.75637 0.00327201 0)
(7.76538 -0.00115643 0)
(7.77425 -0.00562717 0)
(7.78303 -0.010217 0)
(7.79175 -0.0150219 0)
(7.80045 -0.020163 0)
(7.80913 -0.0257938 0)
(7.81776 -0.0321044 0)
(7.82627 -0.0393194 0)
(7.83446 -0.0477051 0)
(7.8421 -0.057441 0)
(7.33486 0.0229729 0)
(7.3533 0.0641001 0)
(7.3866 0.0901748 0)
(7.42257 0.102262 0)
(7.4556 0.105441 0)
(7.48538 0.102888 0)
(7.51181 0.0968653 0)
(7.53496 0.0891598 0)
(7.55541 0.0808389 0)
(7.57375 0.0724679 0)
(7.59038 0.064361 0)
(7.60565 0.0566738 0)
(7.61982 0.0494609 0)
(7.63309 0.0427235 0)
(7.64559 0.0364349 0)
(7.65745 0.0305536 0)
(7.66876 0.0250311 0)
(7.67958 0.0198168 0)
(7.68997 0.0148595 0)
(7.69998 0.010109 0)
(7.70966 0.00551518 0)
(7.71904 0.00102757 0)
(7.72817 -0.00340634 0)
(7.73707 -0.00784382 0)
(7.74578 -0.0123489 0)
(7.75433 -0.0169963 0)
(7.76273 -0.0218754 0)
(7.77099 -0.0270936 0)
(7.77909 -0.0327786 0)
(7.78697 -0.0390782 0)
(7.79452 -0.0461515 0)
(7.80154 -0.0541738 0)
(7.80783 -0.0632215 0)
(7.33443 0.0184746 0)
(7.34901 0.0521285 0)
(7.37626 0.0747166 0)
(7.40706 0.0861381 0)
(7.43651 0.0898867 0)
(7.46385 0.0884772 0)
(7.48873 0.0837542 0)
(7.51103 0.077237 0)
(7.53105 0.0699155 0)
(7.54921 0.0623576 0)
(7.56583 0.0548983 0)
(7.58117 0.0477233 0)
(7.59545 0.0409177 0)
(7.60884 0.0345072 0)
(7.62147 0.0284843 0)
(7.63344 0.0228215 0)
(7.64485 0.0174804 0)
(7.65575 0.0124173 0)
(7.66619 0.00758589 0)
(7.67623 0.00293864 0)
(7.68591 -0.00157258 0)
(7.69526 -0.0059971 0)
(7.70432 -0.0103866 0)
(7.7131 -0.0147962 0)
(7.72164 -0.0192872 0)
(7.72995 -0.0239286 0)
(7.73804 -0.028799 0)
(7.74587 -0.0339879 0)
(7.75343 -0.0395949 0)
(7.76063 -0.0457267 0)
(7.76737 -0.0524864 0)
(7.77345 -0.0599761 0)
(7.77871 -0.0682027 0)
(7.33414 0.0148156 0)
(7.34585 0.0421317 0)
(7.36836 0.061285 0)
(7.39484 0.0716106 0)
(7.42112 0.0754393 0)
(7.4462 0.0747146 0)
(7.46959 0.0709247 0)
(7.49099 0.0653398 0)
(7.51053 0.058851 0)
(7.52847 0.052006 0)
(7.54502 0.0451437 0)
(7.5604 0.0384645 0)
(7.57476 0.0320718 0)
(7.58826 0.0260077 0)
(7.60101 0.0202777 0)
(7.61309 0.0148648 0)
(7.62459 0.00973848 0)
(7.63556 0.00486091 0)
(7.64606 0.000190139 0)
(7.65612 -0.00431799 0)
(7.66579 -0.00870906 0)
(7.6751 -0.01303 0)
(7.68407 -0.0173299 0)
(7.69273 -0.0216604 0)
(7.70109 -0.0260773 0)
(7.70916 -0.0306409 0)
(7.71693 -0.0354168 0)
(7.72437 -0.0404752 0)
(7.73144 -0.0458884 0)
(7.73806 -0.051727 0)
(7.74413 -0.0580487 0)
(7.74948 -0.0649006 0)
(7.75399 -0.0722454 0)
(7.33392 0.0117802 0)
(7.3435 0.0336781 0)
(7.3623 0.0495345 0)
(7.3852 0.0584715 0)
(7.40872 0.0619967 0)
(7.43176 0.0615791 0)
(7.45373 0.0584062 0)
(7.47424 0.0535243 0)
(7.49327 0.0477121 0)
(7.51094 0.0414775 0)
(7.5274 0.0351468 0)
(7.54277 0.0289223 0)
(7.5572 0.022917 0)
(7.57079 0.0171838 0)
(7.58364 0.0117381 0)
(7.59582 0.00657144 0)
(7.6074 0.00166019 0)
(7.61844 -0.0030282 0)
(7.62897 -0.00753142 0)
(7.63905 -0.0118902 0)
(7.64871 -0.016147 0)
(7.65797 -0.0203458 0)
(7.66686 -0.024532 0)
(7.67539 -0.0287523 0)
(7.68358 -0.0330556 0)
(7.69142 -0.0374926 0)
(7.69889 -0.0421151 0)
(7.70598 -0.0469748 0)
(7.71264 -0.0521199 0)
(7.71878 -0.0575909 0)
(7.72433 -0.0634112 0)
(7.72915 -0.069589 0)
(7.73315 -0.0760616 0)
(7.33377 0.00921392 0)
(7.34173 0.0264297 0)
(7.35764 0.0391652 0)
(7.37761 0.0465236 0)
(7.39874 0.0494473 0)
(7.41997 0.0490237 0)
(7.44063 0.0461886 0)
(7.46029 0.0417917 0)
(7.4788 0.0364986 0)
(7.49619 0.0307661 0)
(7.51252 0.0248984 0)
(7.52788 0.0190909 0)
(7.54235 0.0134582 0)
(7.55602 0.00805824 0)
(7.56895 0.00291198 0)
(7.58122 -0.00198414 0)
(7.59288 -0.00664929 0)
(7.60397 -0.0111123 0)
(7.61455 -0.0154078 0)
(7.62464 -0.0195736 0)
(7.63427 -0.0236494 0)
(7.64348 -0.0276757 0)
(7.65228 -0.0316937 0)
(7.66069 -0.0357449 0)
(7.6687 -0.0398706 0)
(7.67633 -0.0441118 0)
(7.68354 -0.0485072 0)
(7.69033 -0.0530921 0)
(7.69663 -0.0578945 0)
(7.7024 -0.0629321 0)
(7.70756 -0.0682035 0)
(7.71201 -0.0736916 0)
(7.7157 -0.0793223 0)
(7.33365 0.00700286 0)
(7.34039 0.0201194 0)
(7.35406 0.0299177 0)
(7.37163 0.0355794 0)
(7.39075 0.0376721 0)
(7.4104 0.0369856 0)
(7.42989 0.0342478 0)
(7.44876 0.0301401 0)
(7.46677 0.0252191 0)
(7.48388 0.0198836 0)
(7.50008 0.014407 0)
(7.51541 0.00896954 0)
(7.52992 0.00368 0)
(7.54365 -0.00140422 0)
(7.55667 -0.00626076 0)
(7.56902 -0.0108907 0)
(7.58075 -0.0153104 0)
(7.5919 -0.019546 0)
(7.60251 -0.0236295 0)
(7.61261 -0.0275957 0)
(7.62222 -0.0314813 0)
(7.63138 -0.0353232 0)
(7.6401 -0.039158 0)
(7.64838 -0.0430213 0)
(7.65624 -0.0469473 0)
(7.66368 -0.0509674 0)
(7.67067 -0.0551088 0)
(7.6772 -0.0593932 0)
(7.68323 -0.0638328 0)
(7.68872 -0.0684284 0)
(7.69361 -0.0731628 0)
(7.69783 -0.0780035 0)
(7.70136 -0.0828739 0)
(7.33356 0.00506126 0)
(7.33938 0.0145347 0)
(7.3513 0.0215675 0)
(7.36696 0.0254629 0)
(7.38441 0.0265487 0)
(7.4027 0.0253894 0)
(7.42118 0.0225441 0)
(7.43934 0.0185521 0)
(7.4569 0.0138692 0)
(7.47375 0.00883427 0)
(7.48983 0.00368517 0)
(7.50513 -0.00141865 0)
(7.51966 -0.00637922 0)
(7.53346 -0.0111443 0)
(7.54655 -0.0156936 0)
(7.55898 -0.0200287 0)
(7.57078 -0.0241659 0)
(7.58198 -0.0281303 0)
(7.59261 -0.0319524 0)
(7.60271 -0.0356656 0)
(7.61231 -0.0393041 0)
(7.62141 -0.0429017 0)
(7.63004 -0.0464911 0)
(7.63821 -0.0501028 0)
(7.64593 -0.0537643 0)
(7.6532 -0.0574991 0)
(7.66 -0.0613252 0)
(7.66633 -0.0652535 0)
(7.67215 -0.069285 0)
(7.67743 -0.0734094 0)
(7.68214 -0.0776003 0)
(7.68624 -0.0818181 0)
(7.68972 -0.0859898 0)
(7.33349 0.00332254 0)
(7.33861 0.00950336 0)
(7.3492 0.0139189 0)
(7.36335 0.016007 0)
(7.37944 0.0159488 0)
(7.39662 0.014143 0)
(7.41424 0.0110131 0)
(7.4318 0.00697888 0)
(7.44898 0.00240494 0)
(7.46561 -0.00243017 0)
(7.4816 -0.00732766 0)
(7.49689 -0.0121534 0)
(7.51147 -0.0168252 0)
(7.52534 -0.0212999 0)
(7.53852 -0.025563 0)
(7.55103 -0.0296189 0)
(7.5629 -0.0334852 0)
(7.57415 -0.0371873 0)
(7.58482 -0.040755 0)
(7.59493 -0.0442204 0)
(7.60451 -0.0476155 0)
(7.61357 -0.0509713 0)
(7.62213 -0.0543166 0)
(7.6302 -0.0576772 0)
(7.6378 -0.0610751 0)
(7.64493 -0.064527 0)
(7.65158 -0.0680436 0)
(7.65774 -0.0716279 0)
(7.6634 -0.0752737 0)
(7.66855 -0.0789638 0)
(7.67316 -0.0826677 0)
(7.67722 -0.0863439 0)
(7.68072 -0.0899264 0)
(7.33344 0.00173326 0)
(7.33804 0.00488291 0)
(7.34762 0.00679959 0)
(7.36061 0.00705395 0)
(7.37563 0.0057448 0)
(7.39193 0.00315237 0)
(7.40887 -0.000406077 0)
(7.42595 -0.00460924 0)
(7.44283 -0.00917309 0)
(7.4593 -0.0138769 0)
(7.47523 -0.0185623 0)
(7.49053 -0.0231237 0)
(7.50517 -0.0274984 0)
(7.51912 -0.0316569 0)
(7.53239 -0.0355932 0)
(7.54498 -0.0393183 0)
(7.55692 -0.0428535 0)
(7.56823 -0.0462268 0)
(7.57892 -0.0494693 0)
(7.58904 -0.052613 0)
(7.59859 -0.0556892 0)
(7.60761 -0.0587272 0)
(7.6161 -0.0617531 0)
(7.62409 -0.0647893 0)
(7.63158 -0.0678534 0)
(7.63858 -0.0709575 0)
(7.6451 -0.0741072 0)
(7.65114 -0.0773006 0)
(7.65669 -0.0805269 0)
(7.66175 -0.0837664 0)
(7.66631 -0.0869879 0)
(7.67037 -0.0901524 0)
(7.67396 -0.0932024 0)
(7.33341 0.000248897 0)
(7.33763 0.000551445 0)
(7.34648 5.25217e-05 0)
(7.35861 -0.00155244 0)
(7.37285 -0.00420581 0)
(7.38849 -0.00771056 0)
(7.40494 -0.0118336 0)
(7.42169 -0.0163367 0)
(7.43839 -0.0210077 0)
(7.45479 -0.0256816 0)
(7.47073 -0.0302412 0)
(7.4861 -0.0346115 0)
(7.50084 -0.0387514 0)
(7.5149 -0.042647 0)
(7.52829 -0.0463033 0)
(7.54099 -0.0497387 0)
(7.55302 -0.0529798 0)
(7.56439 -0.0560578 0)
(7.57514 -0.0590057 0)
(7.58527 -0.0618562 0)
(7.59482 -0.0646402 0)
(7.6038 -0.0673858 0)
(7.61223 -0.0701173 0)
(7.62015 -0.0728544 0)
(7.62755 -0.0756118 0)
(7.63446 -0.0783982 0)
(7.64087 -0.081216 0)
(7.64682 -0.0840605 0)
(7.65229 -0.0869193 0)
(7.65729 -0.0897722 0)
(7.66184 -0.0925899 0)
(7.66594 -0.0953375 0)
(7.66962 -0.0979661 0)
(7.33338 -0.00116906 0)
(7.33736 -0.00359833 0)
(7.34571 -0.00646558 0)
(7.35726 -0.009958 0)
(7.37097 -0.01403 0)
(7.38618 -0.0185387 0)
(7.40232 -0.0233144 0)
(7.41889 -0.0281867 0)
(7.43551 -0.0330069 0)
(7.45192 -0.0376628 0)
(7.46793 -0.0420797 0)
(7.48341 -0.0462161 0)
(7.49827 -0.0500575 0)
(7.51247 -0.0536096 0)
(7.52599 -0.056893 0)
(7.5388 -0.0599373 0)
(7.55092 -0.0627775 0)
(7.56237 -0.0654509 0)
(7.57315 -0.0679942 0)
(7.5833 -0.0704427 0)
(7.59284 -0.0728284 0)
(7.60179 -0.0751793 0)
(7.61018 -0.0775189 0)
(7.61802 -0.0798658 0)
(7.62534 -0.0822326 0)
(7.63216 -0.0846265 0)
(7.63849 -0.087048 0)
(7.64436 -0.0894916 0)
(7.64976 -0.0919448 0)
(7.65473 -0.0943889 0)
(7.65929 -0.0967982 0)
(7.66343 -0.0991435 0)
(7.66723 -0.101384 0)
(7.33337 -0.00255658 0)
(7.3372 -0.00766845 0)
(7.34527 -0.012901 0)
(7.35651 -0.0183332 0)
(7.36994 -0.0239169 0)
(7.38497 -0.0295477 0)
(7.40103 -0.0351084 0)
(7.41761 -0.0404877 0)
(7.43432 -0.0455941 0)
(7.45088 -0.0503648 0)
(7.46708 -0.0547653 0)
(7.48277 -0.0587867 0)
(7.49785 -0.0624398 0)
(7.51225 -0.0657505 0)
(7.52595 -0.0687544 0)
(7.53892 -0.0714931 0)
(7.55117 -0.0740104 0)
(7.56271 -0.0763502 0)
(7.57356 -0.0785541 0)
(7.58374 -0.0806606 0)
(7.59329 -0.0827038 0)
(7.60221 -0.0847129 0)
(7.61056 -0.0867118 0)
(7.61834 -0.0887187 0)
(7.62559 -0.0907461 0)
(7.63233 -0.0928005 0)
(7.63859 -0.0948827 0)
(7.64438 -0.0969872 0)
(7.64974 -0.0991031 0)
(7.65467 -0.101214 0)
(7.65922 -0.103299 0)
(7.66341 -0.105333 0)
(7.66727 -0.107284 0)
(7.33336 -0.00394834 0)
(7.33714 -0.0117551 0)
(7.34513 -0.0193844 0)
(7.35629 -0.0268064 0)
(7.3697 -0.0339533 0)
(7.38477 -0.0407409 0)
(7.40093 -0.0470911 0)
(7.41768 -0.0529446 0)
(7.4346 -0.0582658 0)
(7.45141 -0.0630444 0)
(7.46788 -0.0672928 0)
(7.48384 -0.0710416 0)
(7.49917 -0.0743343 0)
(7.51381 -0.0772231 0)
(7.52771 -0.0797642 0)
(7.54086 -0.0820152 0)
(7.55325 -0.0840317 0)
(7.56489 -0.0858665 0)
(7.57582 -0.0875674 0)
(7.58604 -0.0891772 0)
(7.59559 -0.0907327 0)
(7.6045 -0.0922647 0)
(7.6128 -0.0937979 0)
(7.62053 -0.0953508 0)
(7.62771 -0.096936 0)
(7.63438 -0.0985602 0)
(7.64056 -0.100225 0)
(7.64629 -0.101925 0)
(7.65159 -0.103652 0)
(7.65649 -0.105393 0)
(7.66104 -0.10713 0)
(7.66525 -0.108846 0)
(7.66918 -0.110512 0)
(7.33337 -0.00538124 0)
(7.33721 -0.0159703 0)
(7.34532 -0.0261004 0)
(7.35668 -0.0356418 0)
(7.37036 -0.0445114 0)
(7.38578 -0.0526442 0)
(7.40235 -0.0599974 0)
(7.41954 -0.0665563 0)
(7.43693 -0.0723319 0)
(7.4542 -0.0773573 0)
(7.47111 -0.0816838 0)
(7.48748 -0.085376 0)
(7.50319 -0.0885065 0)
(7.51815 -0.0911522 0)
(7.53233 -0.0933898 0)
(7.54571 -0.0952937 0)
(7.55827 -0.0969331 0)
(7.57005 -0.0983717 0)
(7.58106 -0.0996659 0)
(7.59132 -0.100865 0)
(7.60089 -0.10201 0)
(7.60978 -0.103137 0)
(7.61804 -0.104272 0)
(7.62571 -0.105435 0)
(7.63281 -0.106642 0)
(7.63939 -0.107899 0)
(7.64549 -0.10921 0)
(7.65113 -0.110573 0)
(7.65636 -0.111981 0)
(7.6612 -0.113423 0)
(7.6657 -0.114886 0)
(7.66989 -0.116357 0)
(7.67381 -0.117812 0)
(7.33338 -0.00689354 0)
(7.33737 -0.0204097 0)
(7.34579 -0.0331467 0)
(7.35758 -0.0448531 0)
(7.37176 -0.0554126 0)
(7.38773 -0.0647719 0)
(7.40488 -0.0729274 0)
(7.42267 -0.0799238 0)
(7.44065 -0.0858382 0)
(7.4585 -0.090767 0)
(7.47595 -0.0948174 0)
(7.49282 -0.0981015 0)
(7.50898 -0.100731 0)
(7.52434 -0.102813 0)
(7.53885 -0.104447 0)
(7.5525 -0.105728 0)
(7.56529 -0.106736 0)
(7.57723 -0.107546 0)
(7.58835 -0.108221 0)
(7.59869 -0.108816 0)
(7.60828 -0.109376 0)
(7.61717 -0.109937 0)
(7.6254 -0.110529 0)
(7.63301 -0.111173 0)
(7.64004 -0.111884 0)
(7.64653 -0.112673 0)
(7.65254 -0.113543 0)
(7.65809 -0.114493 0)
(7.66323 -0.115519 0)
(7.66801 -0.116614 0)
(7.67245 -0.117768 0)
(7.6766 -0.118971 0)
(7.68051 -0.120205 0)
(7.33341 -0.00853901 0)
(7.3377 -0.0252633 0)
(7.34674 -0.0409086 0)
(7.35936 -0.0551249 0)
(7.37451 -0.0677831 0)
(7.39151 -0.0788382 0)
(7.4097 -0.0883047 0)
(7.4285 -0.096257 0)
(7.44742 -0.102811 0)
(7.46613 -0.108105 0)
(7.48434 -0.112291 0)
(7.50187 -0.115521 0)
(7.51859 -0.117947 0)
(7.53443 -0.119711 0)
(7.54932 -0.120944 0)
(7.56328 -0.121762 0)
(7.57629 -0.122271 0)
(7.5884 -0.122559 0)
(7.59962 -0.122703 0)
(7.61001 -0.122768 0)
(7.61961 -0.122806 0)
(7.62847 -0.122859 0)
(7.63663 -0.122961 0)
(7.64415 -0.123136 0)
(7.65108 -0.123402 0)
(7.65746 -0.12377 0)
(7.66333 -0.124246 0)
(7.66875 -0.124831 0)
(7.67376 -0.125523 0)
(7.6784 -0.126316 0)
(7.68271 -0.127203 0)
(7.68674 -0.128176 0)
(7.69052 -0.129217 0)
(7.33344 -0.0103626 0)
(7.3381 -0.0305724 0)
(7.34791 -0.0492108 0)
(7.36154 -0.065769 0)
(7.37779 -0.0801111 0)
(7.39595 -0.0922513 0)
(7.41534 -0.102296 0)
(7.43531 -0.110424 0)
(7.45536 -0.116848 0)
(7.47512 -0.121788 0)
(7.49429 -0.125457 0)
(7.51268 -0.12806 0)
(7.53015 -0.129786 0)
(7.54662 -0.130804 0)
(7.56205 -0.131266 0)
(7.57643 -0.131306 0)
(7.58978 -0.13104 0)
(7.60213 -0.130566 0)
(7.61353 -0.129968 0)
(7.62402 -0.129315 0)
(7.63367 -0.128664 0)
(7.64252 -0.12806 0)
(7.65064 -0.127538 0)
(7.65808 -0.127124 0)
(7.6649 -0.12684 0)
(7.67116 -0.126696 0)
(7.6769 -0.1267 0)
(7.68218 -0.126856 0)
(7.68704 -0.127162 0)
(7.69154 -0.127616 0)
(7.69572 -0.128211 0)
(7.69962 -0.128944 0)
(7.7033 -0.129796 0)
(7.33352 -0.0124848 0)
(7.33892 -0.0368901 0)
(7.3502 -0.0593908 0)
(7.36568 -0.0793592 0)
(7.38393 -0.0966198 0)
(7.40409 -0.111137 0)
(7.42535 -0.122991 0)
(7.44701 -0.132386 0)
(7.46855 -0.13959 0)
(7.4896 -0.144891 0)
(7.50987 -0.148582 0)
(7.52919 -0.150939 0)
(7.54742 -0.15222 0)
(7.56451 -0.152651 0)
(7.58043 -0.152433 0)
(7.59518 -0.151736 0)
(7.60881 -0.150706 0)
(7.62135 -0.149462 0)
(7.63286 -0.148104 0)
(7.64339 -0.146712 0)
(7.65303 -0.145351 0)
(7.66182 -0.14407 0)
(7.66984 -0.142908 0)
(7.67715 -0.141893 0)
(7.68381 -0.141045 0)
(7.68988 -0.140378 0)
(7.69542 -0.139901 0)
(7.70048 -0.139615 0)
(7.70512 -0.139521 0)
(7.70939 -0.139616 0)
(7.71332 -0.139894 0)
(7.71697 -0.140351 0)
(7.72038 -0.140967 0)
(7.33356 -0.0149136 0)
(7.33955 -0.0437171 0)
(7.35214 -0.0695205 0)
(7.36934 -0.0916039 0)
(7.38953 -0.110031 0)
(7.41179 -0.125027 0)
(7.43522 -0.136889 0)
(7.45902 -0.145983 0)
(7.48257 -0.152682 0)
(7.50544 -0.157341 0)
(7.52734 -0.160292 0)
(7.54806 -0.161842 0)
(7.56747 -0.162266 0)
(7.58554 -0.16181 0)
(7.60224 -0.160685 0)
(7.61762 -0.159076 0)
(7.63171 -0.157139 0)
(7.64458 -0.155005 0)
(7.65631 -0.152781 0)
(7.66698 -0.150555 0)
(7.67666 -0.148397 0)
(7.68544 -0.146362 0)
(7.69339 -0.144492 0)
(7.70059 -0.142818 0)
(7.7071 -0.141363 0)
(7.713 -0.140141 0)
(7.71835 -0.139162 0)
(7.7232 -0.138431 0)
(7.72762 -0.137948 0)
(7.73167 -0.137712 0)
(7.73538 -0.137716 0)
(7.73882 -0.137958 0)
(7.74205 -0.138415 0)
(7.33381 -0.0180998 0)
(7.34179 -0.0535303 0)
(7.35774 -0.0856653 0)
(7.37869 -0.113393 0)
(7.40242 -0.136478 0)
(7.42785 -0.154942 0)
(7.45404 -0.169091 0)
(7.48018 -0.179445 0)
(7.50572 -0.186577 0)
(7.53028 -0.191037 0)
(7.5536 -0.193337 0)
(7.5755 -0.193931 0)
(7.5959 -0.193213 0)
(7.61477 -0.191514 0)
(7.63211 -0.18911 0)
(7.64797 -0.186227 0)
(7.66242 -0.183049 0)
(7.67553 -0.179724 0)
(7.68739 -0.17637 0)
(7.69809 -0.173079 0)
(7.70773 -0.169921 0)
(7.71639 -0.16695 0)
(7.72417 -0.164207 0)
(7.73114 -0.16172 0)
(7.73738 -0.159508 0)
(7.74297 -0.157586 0)
(7.74798 -0.15596 0)
(7.75247 -0.154634 0)
(7.75651 -0.153607 0)
(7.76014 -0.152878 0)
(7.76343 -0.152439 0)
(7.76642 -0.152285 0)
(7.76915 -0.152391 0)
(7.3337 -0.0215485 0)
(7.34212 -0.0619446 0)
(7.36002 -0.0961981 0)
(7.38397 -0.124267 0)
(7.41145 -0.147059 0)
(7.44109 -0.165076 0)
(7.47152 -0.178783 0)
(7.50162 -0.18873 0)
(7.5307 -0.195444 0)
(7.55831 -0.19942 0)
(7.58416 -0.201133 0)
(7.60811 -0.201021 0)
(7.63012 -0.199481 0)
(7.65019 -0.196861 0)
(7.6684 -0.193463 0)
(7.68485 -0.18954 0)
(7.69964 -0.185305 0)
(7.71289 -0.180929 0)
(7.72474 -0.17655 0)
(7.7353 -0.172277 0)
(7.74469 -0.16819 0)
(7.75302 -0.164354 0)
(7.7604 -0.160812 0)
(7.76692 -0.157596 0)
(7.77268 -0.154727 0)
(7.77775 -0.152219 0)
(7.78222 -0.150078 0)
(7.78615 -0.148308 0)
(7.78961 -0.146908 0)
(7.79266 -0.145874 0)
(7.79537 -0.145201 0)
(7.79778 -0.144884 0)
(7.79999 -0.144888 0)
(7.33482 -0.0279258 0)
(7.34954 -0.0826835 0)
(7.37523 -0.130181 0)
(7.40561 -0.16855 0)
(7.43792 -0.198125 0)
(7.47137 -0.219693 0)
(7.50486 -0.234493 0)
(7.53745 -0.24385 0)
(7.56856 -0.248899 0)
(7.59781 -0.250595 0)
(7.62497 -0.249741 0)
(7.6499 -0.246987 0)
(7.67261 -0.242857 0)
(7.69314 -0.23777 0)
(7.71159 -0.232058 0)
(7.7281 -0.225987 0)
(7.74282 -0.219765 0)
(7.7559 -0.213552 0)
(7.76749 -0.207476 0)
(7.77774 -0.201631 0)
(7.7868 -0.196087 0)
(7.79478 -0.190895 0)
(7.80181 -0.186091 0)
(7.80799 -0.181696 0)
(7.81342 -0.177727 0)
(7.81818 -0.174189 0)
(7.82236 -0.171088 0)
(7.82602 -0.168423 0)
(7.82924 -0.166195 0)
(7.83206 -0.164402 0)
(7.83456 -0.163039 0)
(7.83678 -0.162106 0)
(7.83879 -0.161564 0)
(7.3338 -0.0317235 0)
(7.34767 -0.0862404 0)
(7.37782 -0.129098 0)
(7.41583 -0.164401 0)
(7.45681 -0.193409 0)
(7.4985 -0.21579 0)
(7.53901 -0.23198 0)
(7.57733 -0.242738 0)
(7.61318 -0.248805 0)
(7.64649 -0.250974 0)
(7.67728 -0.250047 0)
(7.70569 -0.246757 0)
(7.73186 -0.241742 0)
(7.75596 -0.235542 0)
(7.77812 -0.228597 0)
(7.79847 -0.221257 0)
(7.81716 -0.213794 0)
(7.8343 -0.206414 0)
(7.85002 -0.19927 0)
(7.86441 -0.192472 0)
(7.8776 -0.186095 0)
(7.88967 -0.180189 0)
(7.90074 -0.174783 0)
(7.91088 -0.169893 0)
(7.92019 -0.165523 0)
(7.92873 -0.161672 0)
(7.93659 -0.158337 0)
(7.94383 -0.15551 0)
(7.9505 -0.153191 0)
(7.95669 -0.151379 0)
(7.96245 -0.150083 0)
(7.96787 -0.149311 0)
(7.97306 -0.149038 0)
(7.33892 -0.0542619 0)
(7.3719 -0.151196 0)
(7.41458 -0.220135 0)
(7.45803 -0.26675 0)
(7.50437 -0.297212 0)
(7.55448 -0.315487 0)
(7.60681 -0.325273 0)
(7.66024 -0.329259 0)
(7.71387 -0.329146 0)
(7.76667 -0.326098 0)
(7.81773 -0.320931 0)
(7.8664 -0.314227 0)
(7.91221 -0.306427 0)
(7.95487 -0.297875 0)
(7.99423 -0.288853 0)
(8.03027 -0.279596 0)
(8.06308 -0.2703 0)
(8.0928 -0.26113 0)
(8.1196 -0.252216 0)
(8.1437 -0.243663 0)
(8.16532 -0.23555 0)
(8.18469 -0.227934 0)
(8.202 -0.220853 0)
(8.21746 -0.21433 0)
(8.23126 -0.208379 0)
(8.24356 -0.203003 0)
(8.25451 -0.198204 0)
(8.26424 -0.193981 0)
(8.27286 -0.190345 0)
(8.28046 -0.187305 0)
(8.28716 -0.184921 0)
(8.29305 -0.1832 0)
(8.29829 -0.182314 0)
(7.33755 -0.0403054 0)
(7.38845 -0.105434 0)
(7.47754 -0.162934 0)
(7.57892 -0.218387 0)
(7.6865 -0.265525 0)
(7.79512 -0.302001 0)
(7.89881 -0.328466 0)
(7.99408 -0.345621 0)
(8.07899 -0.354557 0)
(8.15248 -0.356751 0)
(8.21437 -0.353674 0)
(8.26509 -0.346652 0)
(8.30542 -0.336828 0)
(8.33637 -0.32515 0)
(8.35903 -0.312371 0)
(8.3745 -0.29908 0)
(8.38384 -0.285724 0)
(8.388 -0.272632 0)
(8.38784 -0.260038 0)
(8.3841 -0.248103 0)
(8.37743 -0.236927 0)
(8.36838 -0.226567 0)
(8.35739 -0.217046 0)
(8.34485 -0.20836 0)
(8.33107 -0.20049 0)
(8.31629 -0.193401 0)
(8.30071 -0.187056 0)
(8.28446 -0.181415 0)
(8.26765 -0.17645 0)
(8.25029 -0.172144 0)
(8.23251 -0.168593 0)
(8.21401 -0.165764 0)
(8.19544 -0.164594 0)
(7.39944 -0.196732 0)
(7.59546 -0.375954 0)
(7.76797 -0.458756 0)
(7.89485 -0.51248 0)
(7.97813 -0.540976 0)
(8.01595 -0.550096 0)
(8.01256 -0.546478 0)
(7.97637 -0.533487 0)
(7.91506 -0.513639 0)
(7.83523 -0.489207 0)
(7.74266 -0.461995 0)
(7.64211 -0.433403 0)
(7.53728 -0.40452 0)
(7.43099 -0.376154 0)
(7.32532 -0.348882 0)
(7.22178 -0.323088 0)
(7.12135 -0.299001 0)
(7.02471 -0.276739 0)
(6.9322 -0.256331 0)
(6.844 -0.237748 0)
(6.76013 -0.22092 0)
(6.6805 -0.20575 0)
(6.60495 -0.192123 0)
(6.53328 -0.17992 0)
(6.46527 -0.169011 0)
(6.40067 -0.159269 0)
(6.33923 -0.150558 0)
(6.28066 -0.142753 0)
(6.22471 -0.135695 0)
(6.17095 -0.129249 0)
(6.11906 -0.123318 0)
(6.06798 -0.117138 0)
(6.01812 -0.113983 0)
(7.16014 -0.185867 0)
(6.91102 -0.34514 0)
(6.5 -0.392447 0)
(6.03652 -0.393912 0)
(5.59668 -0.365801 0)
(5.18073 -0.321941 0)
(4.79275 -0.27325 0)
(4.4395 -0.225349 0)
(4.12154 -0.181223 0)
(3.83718 -0.14235 0)
(3.58439 -0.109126 0)
(3.3606 -0.0813599 0)
(3.16294 -0.0585677 0)
(2.98859 -0.0401266 0)
(2.83489 -0.0253835 0)
(2.69932 -0.013722 0)
(2.57962 -0.00459164 0)
(2.47374 0.00248121 0)
(2.37988 0.00789407 0)
(2.29644 0.011975 0)
(2.22202 0.0149921 0)
(2.1554 0.0171626 0)
(2.09553 0.0186633 0)
(2.04148 0.0196383 0)
(1.99247 0.0202106 0)
(1.94784 0.0204868 0)
(1.90699 0.0205842 0)
(1.86953 0.0206218 0)
(1.83495 0.0208155 0)
(1.8034 0.0214672 0)
(1.77399 0.0228815 0)
(1.74865 0.0276058 0)
(1.72554 0.0227717 0)
(1.27068 0.149821 0)
(1.97666 0.436999 0)
(2.73005 0.420907 0)
(3.1561 0.175582 0)
(3.27183 -0.106537 0)
(3.26434 -0.341061 0)
(3.28026 -0.568631 0)