/*--------------------------------*- C++ -*----------------------------------*\
  =========                 |
  \\      /  F ield         | OpenFOAM: The Open Source CFD Toolbox
   \\    /   O peration     | Website:  https://openfoam.org
    \\  /    A nd           | Version:  10
     \\/     M anipulation  |
\*---------------------------------------------------------------------------*/
FoamFile
{
    format      ascii;
    class       volScalarField;
    location    "0.05";
    object      k;
}
// * * * * * * * * * * * * * * * * * * * * * * * * * * * * * * * * * * * * * //

dimensions      [0 2 -2 0 0 0 0];

internalField   nonuniform List<scalar> 
6820
(
0.198343
0.194807
0.191208
0.187584
0.183984
0.180433
0.176943
0.173517
0.170159
0.166866
0.16364
0.160478
0.15738
0.154342
0.151364
0.148443
0.145576
0.14276
0.139992
0.137267
0.134579
0.131919
0.129279
0.126644
0.123998
0.121317
0.118569
0.115711
0.112674
0.109396
0.10561
0.101716
0.0943347
0.200926
0.200909
0.200488
0.200043
0.199597
0.19914
0.198666
0.198172
0.197658
0.197124
0.196571
0.196001
0.195416
0.194817
0.194207
0.193588
0.192961
0.192329
0.191693
0.191055
0.190417
0.189781
0.189149
0.188522
0.187902
0.187289
0.186682
0.186079
0.185474
0.184843
0.184193
0.183279
0.18284
0.236716
0.0163794
0.0365399
0.00982448
0.00686591
0.00807595
0.00959559
0.0116018
0.0137588
0.0160033
0.0183062
0.0206475
0.0230141
0.0253967
0.0277888
0.0301857
0.0325852
0.0349867
0.0373918
0.0398043
0.0422306
0.0446804
0.0471673
0.0497096
0.0523325
0.0550692
0.0579646
0.0610775
0.0644896
0.0683067
0.0726755
0.077808
0.0838422
0.210782
0.147934
0.104867
0.0795125
0.0638816
0.0532948
0.0454925
0.039372
0.0343605
0.0301368
0.026507
0.0233471
0.020574
0.0181305
0.0159765
0.0140837
0.0124312
0.0110033
0.00978673
0.00876903
0.00793726
0.0072777
0.00677662
0.00642149
0.00620246
0.0061141
0.00615728
0.00634166
0.00668862
0.00724084
0.00805856
0.00929303
0.010982
0.223472
0.0825819
0.0208959
0.00402758
0.000629296
0.000407505
0.000739801
0.00106874
0.00133684
0.00156327
0.00176196
0.00193731
0.00208928
0.00221667
0.00231844
0.00239419
0.00244415
0.00246913
0.00247031
0.00244908
0.00240687
0.00234487
0.0022641
0.00216518
0.00204821
0.00191268
0.00175733
0.00158035
0.00137902
0.00115204
0.000880491
0.000637976
0.000215605
0.217273
0.113949
0.0528499
0.0292693
0.020256
0.0159431
0.0129013
0.0101229
0.00743871
0.00501229
0.00307043
0.00171596
0.000886891
0.000433681
0.000208166
0.000103548
5.76908e-05
3.921e-05
3.3629e-05
3.45143e-05
3.89332e-05
4.53532e-05
5.28495e-05
6.0815e-05
6.83576e-05
7.43533e-05
7.67759e-05
8.60655e-05
1.34949e-05
0.000120246
0.000315628
0.000299684
0.000181592
0.21347
0.133193
0.0659247
0.0336571
0.0202646
0.0145871
0.0118736
0.0103906
0.00947624
0.00885477
0.00840307
0.00806448
0.007814
0.00762291
0.00744687
0.00726206
0.00705255
0.00680386
0.00650873
0.00617529
0.00582459
0.00547888
0.00515285
0.00485187
0.00457595
0.00432195
0.00408562
0.00386284
0.00364669
0.00344448
0.00325602
0.00306021
0.00286523
0.204041
0.180299
0.127714
0.0715949
0.0378697
0.0218928
0.0146638
0.0112132
0.00940071
0.00835169
0.00769921
0.00728435
0.00704326
0.00695234
0.00689963
0.00685377
0.0068113
0.00676996
0.00672661
0.00668015
0.00663121
0.00657967
0.00652599
0.00647049
0.00641337
0.00635424
0.00629237
0.00622667
0.00615681
0.00607897
0.00599248
0.00589856
0.00579493
0.202609
0.187288
0.161582
0.121545
0.0802748
0.0505551
0.0326689
0.0225713
0.0168217
0.0133739
0.0111585
0.00964566
0.00864097
0.00825855
0.00801498
0.00781322
0.00766095
0.00753473
0.00741494
0.00730534
0.007213
0.00713384
0.00706298
0.00700029
0.00694817
0.00690676
0.00687279
0.00684227
0.0068137
0.00678788
0.00676686
0.00675091
0.00673739
0.201901
0.190812
0.175914
0.15541
0.124949
0.090943
0.0623323
0.0423294
0.0295791
0.021616
0.0165024
0.0130688
0.0108699
0.0100817
0.00965024
0.00934606
0.00914054
0.00897381
0.00881315
0.00866409
0.00853424
0.00841738
0.00830693
0.00820239
0.00810657
0.00802017
0.00794068
0.00786505
0.00779256
0.00772484
0.00766458
0.007613
0.00756896
0.201407
0.193264
0.18243
0.170022
0.153693
0.132388
0.107766
0.083403
0.0625136
0.0463608
0.0346728
0.0266715
0.0216848
0.0195149
0.0182137
0.0172682
0.0165226
0.0158905
0.0153366
0.0148505
0.0144204
0.0140334
0.0136798
0.0133536
0.013051
0.0127685
0.0125028
0.0122512
0.0120127
0.0117871
0.0115748
0.0113761
0.0111906
0.201072
0.194916
0.186871
0.178358
0.168465
0.155987
0.140114
0.121169
0.101038
0.082166
0.0664059
0.05464
0.0469339
0.0423221
0.0392355
0.0368145
0.0347826
0.0330469
0.0315495
0.030242
0.0290819
0.0280419
0.027101
0.0262417
0.0254503
0.0247169
0.0240336
0.023395
0.022797
0.0222369
0.0217129
0.0212242
0.0207702
0.200834
0.196081
0.189914
0.183635
0.176997
0.169695
0.161328
0.151245
0.139126
0.125511
0.111788
0.0995922
0.0898974
0.082554
0.0768593
0.0720944
0.0679786
0.0644127
0.061323
0.0586315
0.056266
0.0541661
0.0522833
0.050578
0.0490193
0.0475843
0.0462561
0.0450221
0.0438734
0.0428033
0.041808
0.0408856
0.0400352
0.200668
0.196886
0.192021
0.187275
0.182609
0.177891
0.17291
0.167259
0.160558
0.15275
0.144251
0.135816
0.128121
0.121398
0.115492
0.11013
0.105235
0.100829
0.0969014
0.0934018
0.0902704
0.0874539
0.084907
0.0825899
0.0804676
0.078512
0.0767026
0.0750251
0.0734699
0.0720297
0.0707005
0.0694789
0.0683618
0.200552
0.197448
0.193484
0.189755
0.186312
0.183104
0.180035
0.176873
0.173322
0.169171
0.164413
0.159228
0.153885
0.148563
0.143275
0.138082
0.133139
0.128568
0.124421
0.120691
0.117341
0.114327
0.111606
0.109139
0.106892
0.104835
0.102943
0.101198
0.0995839
0.0980906
0.0967105
0.0954368
0.0942614
0.200472
0.197835
0.194487
0.191434
0.188769
0.18645
0.184378
0.182359
0.180173
0.177656
0.174744
0.171382
0.167601
0.163507
0.159207
0.154861
0.150617
0.146584
0.142821
0.139348
0.136158
0.133232
0.130545
0.128075
0.125797
0.123691
0.121737
0.119922
0.11823
0.116652
0.11518
0.113804
0.112511
0.200418
0.198093
0.195155
0.192529
0.190327
0.188499
0.186942
0.185485
0.183929
0.182103
0.179893
0.177217
0.174077
0.17055
0.16677
0.162886
0.159037
0.155328
0.151824
0.148558
0.145535
0.142746
0.140174
0.137798
0.135596
0.133549
0.13164
0.129852
0.128174
0.126593
0.125099
0.123683
0.122325
0.200385
0.198252
0.195563
0.193169
0.191189
0.189561
0.188176
0.186878
0.185498
0.183891
0.181952
0.179631
0.176942
0.173947
0.170744
0.167445
0.164148
0.160934
0.157856
0.154942
0.152203
0.149638
0.147238
0.144989
0.142877
0.140888
0.13901
0.13723
0.135539
0.133922
0.132366
0.130869
0.129412
0.200368
0.198331
0.195752
0.193423
0.191477
0.189862
0.188475
0.187176
0.185818
0.184274
0.18246
0.180334
0.177908
0.175233
0.172385
0.169449
0.166504
0.163614
0.160824
0.158158
0.15563
0.15324
0.150982
0.148847
0.146824
0.144902
0.14307
0.141317
0.139629
0.137976
0.136349
0.134763
0.133223
0.200367
0.19834
0.195746
0.193363
0.191335
0.189621
0.188128
0.186728
0.185292
0.183717
0.181937
0.179927
0.177701
0.175299
0.172779
0.170201
0.167617
0.165073
0.162596
0.160205
0.157909
0.155708
0.153598
0.151575
0.149631
0.147758
0.145946
0.144181
0.142433
0.140686
0.13894
0.137221
0.135565
0.200379
0.198281
0.195562
0.193023
0.190817
0.188911
0.187222
0.185638
0.184047
0.182366
0.180545
0.178567
0.176443
0.174204
0.171889
0.16954
0.167192
0.164876
0.16261
0.160406
0.15827
0.156202
0.1542
0.152258
0.150372
0.14853
0.146709
0.144886
0.143047
0.14119
0.13932
0.137471
0.135697
0.200408
0.19815
0.195195
0.192394
0.189914
0.187729
0.185768
0.183933
0.182131
0.180294
0.178387
0.176398
0.174336
0.17222
0.170075
0.167924
0.165789
0.163682
0.161614
0.159588
0.157606
0.155666
0.153763
0.151897
0.150051
0.148197
0.146314
0.144394
0.142441
0.140456
0.138448
0.136452
0.134533
0.200454
0.197935
0.194617
0.191439
0.188587
0.186044
0.18375
0.181617
0.179568
0.177547
0.175525
0.173491
0.171447
0.169402
0.167365
0.165347
0.163354
0.161391
0.159458
0.157555
0.155678
0.153825
0.151988
0.150154
0.14829
0.146373
0.144403
0.142383
0.140319
0.138214
0.136078
0.133948
0.131893
0.200523
0.197616
0.193779
0.190088
0.186757
0.183776
0.181088
0.178616
0.176289
0.17406
0.171899
0.169795
0.16774
0.165732
0.16377
0.16185
0.159969
0.15812
0.156298
0.154496
0.152707
0.150921
0.149106
0.147236
0.145296
0.143286
0.141212
0.139077
0.13689
0.134655
0.132383
0.130111
0.127911
0.200621
0.197159
0.192605
0.188243
0.184325
0.180838
0.177723
0.174901
0.172297
0.16986
0.16756
0.165374
0.163289
0.161291
0.159368
0.157507
0.155696
0.153922
0.152173
0.150434
0.148689
0.146912
0.145068
0.143143
0.141136
0.139051
0.136893
0.134667
0.132381
0.13004
0.127656
0.125268
0.12294
0.200763
0.196502
0.190958
0.185716
0.181064
0.176974
0.173366
0.170144
0.167225
0.16455
0.16208
0.159783
0.157635
0.155613
0.153695
0.151858
0.150083
0.148351
0.146644
0.14492
0.143144
0.141296
0.139367
0.137352
0.135253
0.133072
0.130814
0.128483
0.126087
0.123632
0.121131
0.118623
0.116166
0.200972
0.195544
0.188642
0.182284
0.176786
0.172061
0.167975
0.164388
0.161191
0.158307
0.155684
0.153283
0.151069
0.14901
0.147077
0.145244
0.143476
0.141749
0.140034
0.138284
0.136471
0.134581
0.132609
0.13055
0.128404
0.12617
0.123854
0.121459
0.118993
0.116463
0.113883
0.11129
0.108737
0.201287
0.194095
0.185273
0.177436
0.170875
0.165382
0.160723
0.156698
0.153158
0.150006
0.147175
0.144615
0.142282
0.140136
0.138143
0.136262
0.134431
0.132612
0.130782
0.128916
0.126999
0.125018
0.122965
0.120832
0.118617
0.116318
0.113936
0.111475
0.108942
0.106345
0.103697
0.101036
0.0984046
0.201764
0.191902
0.180487
0.170915
0.16327
0.157071
0.151912
0.147499
0.143643
0.140229
0.137182
0.134437
0.131944
0.12966
0.127547
0.125555
0.123629
0.121731
0.119836
0.117922
0.115969
0.113964
0.111895
0.109752
0.10753
0.105226
0.10284
0.100375
0.0978381
0.0952377
0.0925877
0.0899221
0.0872754
0.20254
0.188339
0.173098
0.161139
0.152063
0.144953
0.139158
0.134266
0.130029
0.126309
0.123006
0.120021
0.117288
0.114766
0.112418
0.110207
0.108097
0.106054
0.104048
0.102054
0.100051
0.098019
0.0959453
0.0938185
0.09163
0.0893744
0.0870495
0.0846566
0.082201
0.0796918
0.077142
0.074582
0.0720362
0.20384
0.182382
0.162176
0.147768
0.137364
0.129338
0.122797
0.117261
0.112469
0.108274
0.104558
0.101226
0.0982162
0.0954792
0.0929687
0.0906401
0.0884511
0.0863628
0.0843409
0.0823567
0.0803878
0.0784175
0.0764343
0.07443
0.0723989
0.0703366
0.0682399
0.0661071
0.0639387
0.0617388
0.0595149
0.0572882
0.0550729
0.206196
0.171498
0.143982
0.126441
0.114443
0.105407
0.0981567
0.092121
0.0869923
0.0825862
0.0787727
0.0754501
0.0725344
0.0699526
0.0676395
0.0655366
0.0635915
0.0617586
0.0600004
0.0582885
0.0566045
0.0549388
0.0532884
0.0516537
0.0500358
0.0484335
0.0468429
0.0452574
0.0436699
0.0420758
0.0404735
0.038873
0.0372804
0.211564
0.146628
0.107561
0.0863055
0.0732261
0.0642666
0.0577294
0.0527635
0.0488742
0.0457519
0.0431951
0.0410681
0.0392769
0.0377528
0.036442
0.0352997
0.0342883
0.0333756
0.0325345
0.0317418
0.0309778
0.0302256
0.0294712
0.0287039
0.0279169
0.0271081
0.0262802
0.0254399
0.0245972
0.0237638
0.0229507
0.0221699
0.0214258
0.219666
0.105794
0.0587552
0.040581
0.0321844
0.0273558
0.0241178
0.0217522
0.0199373
0.0184991
0.0173328
0.0163727
0.0155759
0.0149124
0.0143588
0.0138962
0.0135085
0.0131825
0.0129059
0.0126666
0.0124518
0.0122484
0.0120436
0.0118266
0.0115899
0.011331
0.0110521
0.0107598
0.0104638
0.0101757
0.00990524
0.00966091
0.009445
0.224624
0.0783788
0.0327762
0.019301
0.0146882
0.0125669
0.0112186
0.0101654
0.0092673
0.00848056
0.00779189
0.00719599
0.0066877
0.00626016
0.00590526
0.00561498
0.0053824
0.00520181
0.00506823
0.00497656
0.00492087
0.00489397
0.0048875
0.0048924
0.00489977
0.00490192
0.00489315
0.00487038
0.00483354
0.00478492
0.00472814
0.00466798
0.00460762
0.223269
0.0823613
0.0374244
0.0238171
0.0188767
0.0163461
0.014533
0.0129833
0.0115854
0.0103167
0.00917431
0.00815557
0.00725286
0.00645554
0.00575277
0.00513393
0.00458919
0.00410961
0.00368713
0.00331449
0.0029852
0.00269358
0.00243464
0.00220404
0.001998
0.00181336
0.00164782
0.00149999
0.00136867
0.0012525
0.00115125
0.00106372
0.000991055
0.21327
0.134519
0.0890443
0.065179
0.0518853
0.0437238
0.0382342
0.0342773
0.0312777
0.0289158
0.0270045
0.025421
0.0240854
0.0229424
0.0219522
0.0210857
0.0203215
0.0196432
0.0190381
0.0184959
0.0180087
0.0175699
0.0171735
0.0168148
0.0164891
0.0161913
0.0159161
0.0156622
0.0154279
0.0152111
0.0150071
0.0148166
0.014624
0.24025
0.000465271
0.0365736
4.5552e-05
0.0104105
0.00147401
0.0296194
0.00640351
0.00241191
0.000316735
0.00261384
0.00257259
0.000853894
0.000285075
0.000441175
0.000496449
0.000488099
0.000515586
0.000563202
0.000610784
0.000662027
0.000723605
0.000794278
0.000867578
0.000937292
0.00100246
0.00106855
0.00114195
0.00122923
0.00133448
0.00145823
0.00159933
0.00175568
0.200085
0.199944
0.199753
0.199566
0.199389
0.199219
0.199054
0.198891
0.19873
0.198568
0.198408
0.198247
0.198086
0.197926
0.197768
0.19761
0.197455
0.197302
0.197153
0.197008
0.196869
0.196735
0.196608
0.196488
0.196376
0.196272
0.196179
0.196096
0.196024
0.195964
0.195916
0.195885
0.195853
0.199875
0.199567
0.199235
0.19889
0.198543
0.198196
0.197854
0.197517
0.197187
0.196864
0.196548
0.196239
0.195936
0.195639
0.195348
0.195063
0.194782
0.194504
0.19423
0.193958
0.193688
0.193418
0.193149
0.192879
0.192607
0.192333
0.192055
0.191773
0.191487
0.191195
0.190897
0.190592
0.190279
0.0968682
0.129999
0.162208
0.170089
0.168761
0.166939
0.168877
0.1708
0.172533
0.167144
0.150762
0.141938
0.144171
0.15221
0.162041
0.172106
0.182128
0.192222
0.201528
0.208955
0.21332
0.213435
0.207815
0.197722
0.188427
0.176978
0.148508
0.0987786
0.0470839
0.0166212
0.0152495
0.0334542
0.055886
0.0718784
0.0778806
0.0753259
0.067821
0.0591292
0.0521214
0.0484503
0.048646
0.0524102
0.0589632
0.0673501
0.0766636
0.0861629
0.0953248
0.103841
0.11159
0.118593
0.124933
0.130653
0.13564
0.139557
0.141848
0.141871
0.139218
0.134225
0.128306
0.123635
0.122307
0.125653
0.133677
0.144667
0.155748
0.164326
0.16929
0.171064
0.170705
0.169064
0.166566
0.16338
0.159677
0.15581
0.152266
0.149395
0.14714
0.145032
0.142491
0.139173
0.135123
0.13064
0.125982
0.121145
0.115823
0.109495
0.101453
0.090801
0.0767782
0.0596218
0.0412873
0.0248548
0.0127459
0.00545513
0.00187928
0.000445597
5.71555e-05
1.15249e-05
1.1017e-05
7.03316e-06
0.177405
0.170789
0.168455
0.169009
0.170625
0.172343
0.169838
0.163949
0.159176
0.160524
0.162122
0.156216
0.149168
0.148445
0.153826
0.162144
0.171062
0.179754
0.187656
0.193742
0.196882
0.195756
0.190372
0.184168
0.178028
0.160989
0.121719
0.0693212
0.0271856
0.0111167
0.0200845
0.0413826
0.0619411
0.0743866
0.0772014
0.0725953
0.0642451
0.0556831
0.0494654
0.0469409
0.0483817
0.0532925
0.0607655
0.0697877
0.079451
0.0890562
0.0981371
0.106443
0.113901
0.12057
0.126566
0.131965
0.136694
0.14045
0.142698
0.142778
0.140203
0.135177
0.128995
0.123819
0.121829
0.124502
0.132051
0.142948
0.154321
0.163392
0.168815
0.170889
0.170696
0.169158
0.16675
0.163652
0.160025
0.156206
0.152688
0.14986
0.147711
0.145783
0.143436
0.140212
0.136046
0.131216
0.126099
0.120902
0.115539
0.109683
0.102909
0.0947511
0.084665
0.0721304
0.0571513
0.0409136
0.0257351
0.0138939
0.00631534
0.00235448
0.000679641
9.96062e-05
2.38361e-05
4.29017e-05
0.0929867
0.102953
0.110576
0.115741
0.118481
0.117756
0.112335
0.104711
0.0996377
0.103919
0.120351
0.139278
0.14988
0.15218
0.152751
0.155681
0.161008
0.167294
0.173352
0.177992
0.180052
0.179112
0.176701
0.174053
0.164273
0.135261
0.0877902
0.0407222
0.0131942
0.0113168
0.0276211
0.0494999
0.0671009
0.0758315
0.0756569
0.0693025
0.0604153
0.0522548
0.0470416
0.0458095
0.0485678
0.0546276
0.0629671
0.0725362
0.0824486
0.0920635
0.100985
0.109025
0.116159
0.12248
0.12813
0.133215
0.137691
0.14129
0.143496
0.14364
0.141173
0.136174
0.129806
0.12418
0.121532
0.123488
0.130491
0.141219
0.152838
0.162395
0.168298
0.170691
0.170658
0.169203
0.166865
0.163851
0.160315
0.156573
0.153113
0.150347
0.148312
0.146579
0.144477
0.141456
0.137331
0.132305
0.126798
0.121181
0.115568
0.109787
0.103518
0.0964879
0.0885526
0.0796558
0.069719
0.0586474
0.0465411
0.0340532
0.0224488
0.0130847
0.00670354
0.00299385
0.00126801
0.000446878
0.0143031
0.0197341
0.0256718
0.0306709
0.0336988
0.0335539
0.0308597
0.0274325
0.0264347
0.0317813
0.0485117
0.0771562
0.108844
0.133265
0.147106
0.153604
0.157253
0.16047
0.163654
0.166232
0.1676
0.16815
0.167566
0.160926
0.13853
0.0977314
0.0515473
0.0182017
0.00738893
0.0168622
0.0368321
0.0571521
0.0710845
0.0761082
0.0732309
0.0654945
0.0564222
0.0489564
0.0449639
0.0451548
0.0492746
0.0564514
0.0655707
0.0755718
0.0856164
0.0951389
0.103823
0.111548
0.118334
0.124301
0.129613
0.134395
0.138632
0.142081
0.144251
0.144466
0.142125
0.137191
0.130691
0.124661
0.121378
0.122606
0.129016
0.139514
0.151331
0.161362
0.167758
0.170489
0.17062
0.16924
0.166962
0.16403
0.160592
0.156943
0.153553
0.150852
0.14892
0.14737
0.145537
0.142803
0.138862
0.133791
0.127967
0.121859
0.115788
0.109771
0.103571
0.0968908
0.0895661
0.0816529
0.0733611
0.0649406
0.056559
0.0483225
0.0402362
0.03242
0.0249031
0.0179711
0.0122369
0.00704229
0.00237536
0.000270189
0.000836928
0.00149418
0.00212281
0.00243322
0.00240964
0.00232506
0.00240142
0.00302184
0.00686096
0.0202172
0.0457819
0.0778336
0.10761
0.129785
0.143909
0.152173
0.156915
0.159421
0.160245
0.158693
0.151077
0.130941
0.0959638
0.0546917
0.021574
0.00628234
0.0097903
0.025952
0.0463489
0.0637467
0.0737069
0.0751906
0.0699751
0.061268
0.0523814
0.0459033
0.0433326
0.0450499
0.0505404
0.0587667
0.0685506
0.0788525
0.0889064
0.0982383
0.106617
0.113986
0.120408
0.126025
0.131011
0.135505
0.139514
0.142822
0.144956
0.145243
0.143037
0.138194
0.131605
0.125221
0.121339
0.121845
0.127627
0.137835
0.149795
0.160273
0.167165
0.170246
0.170548
0.169236
0.167011
0.164153
0.160815
0.157264
0.153952
0.151312
0.149464
0.148069
0.146486
0.144073
0.140426
0.135476
0.129482
0.122914
0.116252
0.109756
0.103363
0.0967858
0.0897405
0.082136
0.0741172
0.0659841
0.0580294
0.0504954
0.043437
0.0370162
0.0309439
0.0256856
0.020523
0.0159472
1.97119e-05
8.84782e-05
5.56402e-05
2.89894e-05
0.000205414
0.000109309
0.000183022
0.000304253
0.000146561
0.000100067
5.14516e-05
0.000675088
0.00714877
0.0236673
0.0480974
0.0745487
0.0978173
0.115366
0.126825
0.133014
0.133224
0.125588
0.107682
0.0794652
0.0468605
0.0196845
0.00531595
0.00575991
0.0180066
0.0365136
0.0552245
0.0689437
0.0748422
0.0730659
0.0659613
0.0567429
0.0484288
0.0432257
0.0422557
0.0455669
0.052395
0.0615644
0.07187
0.0823275
0.0922677
0.101318
0.109333
0.116318
0.122369
0.127642
0.132318
0.136542
0.140336
0.143509
0.145609
0.145965
0.143896
0.139164
0.132527
0.12584
0.121403
0.121201
0.126331
0.136193
0.148237
0.159127
0.166513
0.169955
0.170433
0.169185
0.167001
0.164211
0.160969
0.157522
0.154296
0.151722
0.149945
0.148669
0.147295
0.145191
0.141902
0.137231
0.13127
0.124383
0.117106
0.109924
0.103049
0.0963501
0.0894995
0.0822225
0.0744724
0.0664532
0.0584739
0.050856
0.0437296
0.0372996
0.0312504
0.0260919
0.0209276
0.0164817
0.0026407
0.00238549
0.00211365
0.00185267
0.00165183
0.00149929
0.00139694
0.00130348
0.00113588
0.000926219
0.000345107
0.000326565
0.000479798
0.00224074
0.00953109
0.0230631
0.0397272
0.0556527
0.0677982
0.0741384
0.073128
0.0639917
0.0477797
0.0285248
0.0120432
0.00309312
0.00372469
0.0131797
0.0289184
0.0470711
0.0628907
0.0724709
0.0743809
0.0697709
0.061318
0.0520803
0.0447244
0.0410642
0.0418388
0.0467646
0.0548482
0.0648147
0.0754757
0.0859369
0.0956457
0.104337
0.111946
0.118529
0.124209
0.12915
0.133533
0.137503
0.141096
0.14414
0.146205
0.146625
0.144689
0.140074
0.133416
0.126473
0.121534
0.120659
0.125127
0.134594
0.146662
0.157924
0.165792
0.169603
0.170263
0.169074
0.166922
0.16419
0.161042
0.157705
0.154576
0.152079
0.150369
0.149185
0.14797
0.146126
0.1432
0.138922
0.133221
0.126272
0.118514
0.110545
0.102871
0.0956707
0.0887587
0.0817708
0.0744284
0.066717
0.0588477
0.0511694
0.0439028
0.037333
0.0311818
0.0259695
0.0207674
0.0162878
0.00566042
0.00548039
0.00527494
0.0048548
0.00441709
0.00417475
0.00401138
0.00383429
0.00356707
0.00319538
0.00258611
0.00197713
0.00101278
0.000507345
0.00123387
0.00233442
0.00607848
0.0120594
0.0177171
0.020455
0.0194989
0.0150253
0.00892057
0.00359058
0.0012045
0.00347193
0.0111642
0.0240914
0.0405319
0.0568541
0.0688867
0.0740502
0.0722766
0.0654275
0.0562324
0.0474731
0.041445
0.0395645
0.042179
0.0486821
0.057886
0.0684669
0.0793005
0.0896147
0.0989865
0.107257
0.114434
0.120612
0.12593
0.130551
0.134655
0.138386
0.141788
0.144707
0.146733
0.147208
0.145392
0.140882
0.1342
0.127023
0.121644
0.120168
0.124003
0.133043
0.145075
0.15666
0.164991
0.169172
0.170017
0.168884
0.166753
0.16407
0.161014
0.157792
0.154774
0.152368
0.150733
0.149626
0.148523
0.146869
0.144252
0.140399
0.135142
0.128451
0.120543
0.111932
0.103286
0.0951434
0.0876713
0.0806488
0.0736762
0.0664658
0.0589817
0.0514642
0.0441668
0.0374709
0.0311865
0.0258837
0.0206301
0.0161158
0.00672208
0.00666834
0.00665859
0.00605603
0.00528689
0.00495789
0.00479317
0.00466469
0.00453036
0.00439024
0.00420216
0.00395817
0.00345955
0.00277762
0.00191732
0.000267568
0.00166634
0.000607572
0.00117448
0.00146922
0.000983169
0.000383871
0.000719176
0.00221619
0.00539415
0.011588
0.0220028
0.0363328
0.0520136
0.0651639
0.0726549
0.0734748
0.0686223
0.0602558
0.0509398
0.0431392
0.0387801
0.0388694
0.0433553
0.0513307
0.061466
0.0724488
0.0832661
0.0932925
0.102239
0.110046
0.11678
0.122562
0.127535
0.131857
0.135695
0.139193
0.142407
0.145199
0.147178
0.147693
0.145973
0.141527
0.134763
0.12732
0.121556
0.119611
0.122911
0.131533
0.143478
0.155328
0.164089
0.168634
0.169665
0.168582
0.166464
0.163824
0.160859
0.157759
0.154866
0.15257
0.151025
0.149997
0.148974
0.147439
0.145033
0.141542
0.136792
0.130629
0.123017
0.114205
0.104771
0.0954523
0.0868346
0.0791041
0.0720371
0.0652248
0.0583313
0.0513101
0.0442748
0.0376205
0.0312527
0.0258413
0.0205074
0.0159356
0.00753173
0.00744842
0.00749579
0.00676971
0.00571572
0.00524515
0.00506905
0.0050548
0.00513228
0.00525165
0.00537968
0.00548486
0.0055177
0.00539017
0.00505391
0.00433131
0.00358498
0.00295586
0.00256433
0.00255793
0.00291639
0.00376577
0.00535278
0.00826801
0.0135539
0.0223447
0.0348257
0.0492516
0.0623526
0.0710179
0.0737281
0.0707768
0.0636784
0.0545476
0.0457058
0.0393147
0.0369247
0.0391083
0.0454163
0.0546861
0.0655161
0.0766698
0.0872869
0.0969033
0.10536
0.11268
0.118973
0.124377
0.129029
0.133075
0.136667
0.139944
0.142966
0.145617
0.147529
0.148059
0.1464
0.141968
0.135064
0.127328
0.121203
0.11887
0.121753
0.130013
0.141847
0.153907
0.163055
0.167943
0.169154
0.168117
0.166006
0.163407
0.160536
0.157569
0.154819
0.152653
0.15122
0.150281
0.149327
0.147857
0.14556
0.142298
0.137972
0.132429
0.125484
0.117082
0.107481
0.097295
0.0873129
0.0781781
0.0701396
0.063037
0.0564667
0.0500865
0.0436835
0.0374503
0.0312567
0.0258572
0.0204638
0.0158074
0.0109959
0.0107687
0.0106042
0.0100534
0.009144
0.00856144
0.00824673
0.00809801
0.00804035
0.00801381
0.0079835
0.0079381
0.00789089
0.00784095
0.00778165
0.00769204
0.00752943
0.00738301
0.00743517
0.00777126
0.00849696
0.00989215
0.0125273
0.0173067
0.0251605
0.0362272
0.0491387
0.0612728
0.0699501
0.0735921
0.0720545
0.0662725
0.0578143
0.0486272
0.0408171
0.0362518
0.0360691
0.0403813
0.0483678
0.0586829
0.0699348
0.0810255
0.0912765
0.100387
0.108311
0.11514
0.121008
0.126056
0.130413
0.134207
0.137575
0.140648
0.143486
0.145991
0.147814
0.148321
0.146688
0.142274
0.135302
0.127364
0.120887
0.118079
0.120477
0.128387
0.140112
0.152341
0.161825
0.167021
0.168396
0.167402
0.165303
0.162755
0.159993
0.157176
0.15459
0.152578
0.151278
0.150445
0.149564
0.148132
0.145863
0.142683
0.138595
0.133538
0.127342
0.119797
0.110826
0.100661
0.0898947
0.0793168
0.0696202
0.0611629
0.0538916
0.0475133
0.0416074
0.0360441
0.0304376
0.0254345
0.0202382
0.0156618
0.0202901
0.0197776
0.0193014
0.0186479
0.0177144
0.0168879
0.0162669
0.015784
0.0153559
0.0149152
0.0144248
0.0138851
0.0133325
0.0128247
0.0124183
0.0121653
0.0120898
0.0122409
0.0126869
0.0136209
0.0153662
0.0184324
0.0234744
0.0309995
0.040882
0.0519918
0.0623793
0.0700212
0.0735947
0.0727714
0.0680406
0.0604382
0.0514286
0.0428363
0.0365855
0.03421
0.0363788
0.0427392
0.0521618
0.0632132
0.0745975
0.085405
0.0951529
0.103691
0.111068
0.117417
0.122885
0.127604
0.13169
0.135254
0.138419
0.141303
0.143971
0.146336
0.148069
0.148549
0.146945
0.142577
0.135604
0.127546
0.120761
0.117421
0.119175
0.126602
0.138168
0.150528
0.160284
0.165729
0.167238
0.166291
0.164232
0.16177
0.159151
0.156516
0.154124
0.152296
0.151155
0.150445
0.149641
0.148236
0.145948
0.142736
0.138679
0.133833
0.128144
0.121451
0.113557
0.104371
0.0940572
0.0831006
0.0722037
0.0620652
0.0531313
0.0455328
0.0390562
0.0335138
0.0283367
0.0239038
0.0192503
0.0151848
0.0391442
0.0382079
0.0373221
0.0363092
0.0350054
0.0336355
0.0323883
0.0312646
0.0301918
0.0290984
0.027946
0.0267405
0.0255321
0.0244053
0.0234646
0.0228213
0.0225901
0.0228836
0.0238746
0.0258762
0.0292011
0.0341603
0.0408749
0.0490245
0.0577153
0.0656181
0.0713754
0.0740305
0.073221
0.0691177
0.0623037
0.0537626
0.0449228
0.037548
0.0333467
0.0334346
0.0379672
0.0461653
0.0566908
0.0681317
0.0793646
0.0897
0.0988452
0.106778
0.113613
0.119507
0.124603
0.129022
0.132861
0.136217
0.139195
0.141907
0.144416
0.14665
0.148298
0.148758
0.147197
0.142903
0.135974
0.127858
0.12084
0.117011
0.118037
0.124768
0.135981
0.14834
0.158249
0.163823
0.16541
0.164539
0.1626
0.160312
0.157908
0.15551
0.153358
0.151753
0.150802
0.150235
0.149513
0.148122
0.145782
0.142466
0.138288
0.13338
0.127808
0.121542
0.114471
0.106455
0.097412
0.0874253
0.0768184
0.0661338
0.0559723
0.046836
0.0389273
0.0323291
0.0266258
0.0220588
0.0176666
0.0141169
0.0672048
0.0659843
0.064792
0.0634278
0.0616833
0.0596695
0.0576178
0.0556308
0.0537005
0.0517861
0.0498632
0.0479453
0.0460893
0.0443925
0.0429826
0.0420081
0.0416304
0.042012
0.0433622
0.0458208
0.0494472
0.0541658
0.0596466
0.0652679
0.0702039
0.0736142
0.0748449
0.0735407
0.0696526
0.0634223
0.0554325
0.0467099
0.0387322
0.0331782
0.0314369
0.0341184
0.0408652
0.0505623
0.0617903
0.0732657
0.084094
0.0938128
0.102297
0.109622
0.115939
0.12141
0.126167
0.130312
0.133928
0.137094
0.139902
0.142454
0.144816
0.146925
0.148495
0.148941
0.147437
0.143245
0.136405
0.12829
0.121107
0.116859
0.117178
0.123098
0.133722
0.145826
0.15566
0.161145
0.162629
0.161796
0.160115
0.158173
0.156122
0.15406
0.152221
0.1509
0.150185
0.149786
0.149149
0.147758
0.145336
0.141866
0.137478
0.132338
0.12657
0.120239
0.113348
0.105856
0.0977056
0.0888818
0.0794677
0.0696961
0.0599196
0.0505667
0.0419632
0.0344253
0.0278098
0.0224696
0.0176543
0.0138528
0.0930339
0.0916919
0.0903021
0.0886746
0.0866267
0.0842031
0.081611
0.079022
0.0765139
0.0741058
0.0717999
0.0696078
0.0675644
0.0657349
0.0642141
0.0631207
0.0625804
0.0627283
0.0636124
0.0652161
0.0674276
0.0700265
0.0726436
0.0747985
0.0759781
0.0757242
0.0737005
0.0697344
0.0638537
0.0563609
0.0479491
0.0397774
0.0333555
0.0301634
0.0311448
0.036358
0.0449982
0.0557505
0.067251
0.0784317
0.0886536
0.0976644
0.105471
0.112208
0.118044
0.123129
0.127577
0.131475
0.134888
0.13788
0.140533
0.142939
0.145163
0.147158
0.148654
0.149094
0.147661
0.1436
0.136894
0.128834
0.121548
0.116945
0.116602
0.121687
0.131609
0.1433
0.152883
0.158063
0.159132
0.158038
0.156547
0.155126
0.153623
0.152051
0.150643
0.149695
0.149283
0.149093
0.148555
0.14715
0.144615
0.14095
0.136301
0.130845
0.124728
0.118048
0.110868
0.103231
0.0951705
0.0867347
0.0780038
0.0691163
0.0602516
0.0516453
0.0434825
0.0360469
0.0292618
0.0235982
0.0184623
0.0142802
0.11114
0.109597
0.107961
0.106082
0.103835
0.101237
0.0984372
0.0956009
0.0928404
0.0902149
0.0877532
0.085474
0.083398
0.0815555
0.0799883
0.0787466
0.0778829
0.07742
0.0773338
0.0775577
0.0779537
0.0783238
0.0783924
0.0778373
0.0763289
0.0735754
0.0693706
0.0636451
0.0565381
0.0485037
0.0404154
0.0335496
0.0293345
0.0288998
0.0326492
0.040116
0.0501778
0.061481
0.0728393
0.0834532
0.0929329
0.101198
0.108344
0.114535
0.119931
0.124666
0.128836
0.132509
0.135737
0.138572
0.141083
0.143355
0.145454
0.147342
0.148774
0.149215
0.147867
0.143963
0.137433
0.129483
0.122149
0.11725
0.116293
0.120539
0.129694
0.140887
0.150143
0.154959
0.155514
0.153865
0.152136
0.151101
0.15029
0.149388
0.148566
0.148116
0.148101
0.14818
0.147768
0.146348
0.14368
0.139789
0.134846
0.129047
0.122552
0.115474
0.107903
0.0999247
0.0916282
0.0831129
0.0744861
0.0658739
0.0574079
0.0492576
0.0415458
0.0345133
0.0280606
0.0226622
0.0177227
0.0135645
0.12086
0.119179
0.117384
0.115375
0.113075
0.110496
0.107737
0.104923
0.102158
0.0995091
0.0970136
0.0946924
0.0925588
0.0906229
0.0888925
0.0873721
0.0860548
0.0849185
0.0839182
0.0829663
0.0819286
0.0806342
0.0788702
0.0764033
0.0730086
0.0685073
0.0628115
0.0559828
0.0483233
0.0404827
0.0335021
0.0286731
0.0271789
0.0296615
0.0359636
0.0452023
0.0561136
0.0674616
0.078323
0.088178
0.0968497
0.104379
0.110909
0.116603
0.121604
0.126024
0.129941
0.133409
0.136469
0.139162
0.141546
0.143697
0.145682
0.147474
0.14885
0.149302
0.148053
0.144331
0.138016
0.130224
0.122895
0.117756
0.116236
0.119651
0.127979
0.13859
0.147461
0.151881
0.151904
0.149608
0.147316
0.146259
0.146097
0.146021
0.145958
0.146159
0.14666
0.147089
0.146842
0.145417
0.142604
0.138465
0.133205
0.127046
0.120168
0.112702
0.104754
0.096431
0.0878485
0.079137
0.0704322
0.0618782
0.0536098
0.0457798
0.038481
0.0319037
0.0259045
0.0209091
0.0162886
0.0122535
0.127822
0.125974
0.124
0.121834
0.119428
0.116795
0.114001
0.111139
0.108294
0.105526
0.102874
0.100356
0.0979808
0.0957482
0.0936497
0.0916685
0.0897723
0.0879138
0.0860239
0.084006
0.0817356
0.079068
0.0758413
0.0718945
0.0670931
0.0613623
0.0547338
0.0474198
0.0399115
0.0330482
0.0279535
0.0257693
0.0272644
0.0325229
0.040903
0.0512839
0.0624464
0.0733931
0.083498
0.0924912
0.100353
0.107193
0.113165
0.118414
0.123062
0.127197
0.130885
0.134168
0.137077
0.139642
0.141913
0.143958
0.145843
0.147552
0.148882
0.149356
0.148218
0.144699