/*--------------------------------*- C++ -*----------------------------------*\
  =========                 |
  \\      /  F ield         | OpenFOAM: The Open Source CFD Toolbox
   \\    /   O peration     | Website:  https://openfoam.org
    \\  /    A nd           | Version:  10
     \\/     M anipulation  |
\*---------------------------------------------------------------------------*/
FoamFile
{
    format      ascii;
    class       volScalarField;
    location    "0.05";
    object      nut;
}
// * * * * * * * * * * * * * * * * * * * * * * * * * * * * * * * * * * * * * //

dimensions      [0 2 -1 0 0 0 0];

internalField   nonuniform List<scalar> 
6820
(
0
0
0
0
0
0
0
0
0
0
0
0
0
0
0
0
0
0
0
0
0
0
0
0
0
0
0
0
0
0
0
0
0
0
0
0
0
0
0
0
0
0
0
0
0
0
0
0
0
0
0
0
0
0
0
0
0
0
0
0
0
0
0
0
0
0
0
0
0
0
0
0
0
0
0
0
0
0
0
0
0
0
0
0
0
0
0
0
0
0
0
0
0
0
0
0
0
0
0
0
0
0
0
0
0
0
0
0
0
0
0
0
0
0
0
0
0
0
0
0
0
0
0
0
0
0
0
0
0
0
0
0
1.64182e-05
0
0
0
0
0
0
0
0
0
0
0
0
0
0
0
0
0
0
0
0
2.07184e-07
4.04295e-07
5.90143e-07
7.79917e-07
9.91688e-07
1.24806e-06
1.56962e-06
1.90922e-06
1.54478e-06
0
0
0
6.34869e-06
4.95839e-05
3.74973e-05
1.79394e-05
5.71661e-06
0
0
0
0
0
0
0
0
0
0
0
0
0
0
0
0
1.03239e-08
2.36695e-08
3.97154e-08
5.85318e-08
7.95049e-08
1.00372e-07
1.24877e-07
5.26181e-08
1.18142e-07
0
0
0
0
1.4355e-05
3.04731e-05
3.91735e-05
3.6639e-05
3.19414e-05
2.78394e-05
2.39287e-05
2.00708e-05
1.62351e-05
1.22223e-05
7.73905e-06
2.51345e-06
0
0
0
0
0
0
0
0
0
2.40447e-07
7.28721e-07
9.28194e-07
9.25349e-07
7.9152e-07
5.8214e-07
3.29183e-07
6.6574e-08
0
0
0
0
8.8146e-06
1.83055e-05
3.15684e-05
3.52199e-05
3.34813e-05
3.1181e-05
2.89353e-05
2.66615e-05
2.41796e-05
2.0881e-05
1.52907e-05
3.8795e-06
0
0
0
0
0
0
0
0
3.73655e-07
7.56334e-07
8.55042e-07
7.91012e-07
6.36195e-07
4.32013e-07
2.07058e-07
0
0
0
0
0
0
6.75467e-06
1.1676e-05
2.23211e-05
2.96976e-05
3.3006e-05
3.45311e-05
3.49029e-05
3.48534e-05
3.50107e-05
3.54347e-05
3.49121e-05
2.46534e-05
0
0
0
0
0
0
0
0
4.62993e-07
6.74743e-07
6.9341e-07
6.0021e-07
4.44892e-07
2.57258e-07
5.94183e-08
0
0
0
0
0
0
5.15261e-06
8.13965e-06
1.61038e-05
2.34377e-05
2.84437e-05
3.26033e-05
3.58071e-05
3.85782e-05
4.22109e-05
4.81726e-05
5.73119e-05
4.99364e-05
0
0
0
0
0
0
0
2.32739e-08
3.20199e-07
4.19339e-07
3.95635e-07
2.98458e-07
1.60804e-07
4.43091e-09
0
0
0
0
0
0
0
3.90479e-06
5.8051e-06
1.16883e-05
1.78629e-05
2.25866e-05
2.73317e-05
3.18897e-05
3.58365e-05
3.92459e-05
4.12672e-05
3.72904e-05
2.01959e-05
2.0826e-06
0
0
0
0
0
3.37304e-08
3.42873e-07
4.53478e-07
4.32998e-07
3.31548e-07
1.84687e-07
1.79372e-08
0
0
0
0
0
0
0
0
2.93943e-06
4.05113e-06
8.23283e-06
1.31336e-05
1.69057e-05
2.06005e-05
2.41999e-05
2.70151e-05
2.83262e-05
2.67196e-05
2.05154e-05
1.10054e-05
3.14313e-06
0
0
0
0
0
0
1.12536e-08
4.18739e-08
0
0
0
0
0
0
0
0
0
0
0
0
2.22172e-06
2.7893e-06
5.62123e-06
9.278e-06
1.20189e-05
1.44745e-05
1.66772e-05
1.80265e-05
1.79362e-05
1.58247e-05
1.16767e-05
6.74535e-06
2.79739e-06
5.75669e-07
0
0
0
0
1.50204e-08
6.12747e-09
0
0
0
0
0
0
0
0
0
0
0
0
0
1.69325e-06
1.88068e-06
3.65549e-06
6.17911e-06
7.94995e-06
9.32029e-06
1.0345e-05
1.06369e-05
9.94424e-06
8.20034e-06
5.66465e-06
2.99837e-06
8.82162e-07
0
0
0
0
0
0
0
0
0
0
0
0
0
0
0
0
0
0
0
0
1.30715e-06
1.23258e-06
2.22944e-06
3.84329e-06
4.84384e-06
5.45576e-06
5.77709e-06
5.59382e-06
4.83651e-06
3.60104e-06
2.11202e-06
6.92237e-07
0
0
0
0
0
0
0
0
0
0
0
0
0
0
0
0
0
0
0
0
0
1.02351e-06
7.62204e-07
1.1869e-06
2.08116e-06
2.46334e-06
2.50691e-06
2.34383e-06
1.87373e-06
1.10301e-06
1.48726e-07
0
0
0
0
0
0
0
0
0
0
0
0
0
0
0
0
0
0
0
0
0
0
0
8.13948e-07
4.1454e-07
4.20898e-07
7.69645e-07
6.93435e-07
3.60842e-07
0
0
0
0
0
0
0
0
0
0
0
0
0
0
0
0
0
0
0
0
0
0
0
0
0
0
0
6.56798e-07
1.47484e-07
0
0
0
0
0
0
0
0
0
0
0
0
0
0
0
0
0
0
0
0
0
0
0
0
0
0
0
1.65204e-07
7.63082e-08
0
0
5.36779e-07
0
0
0
0
0
0
0
0
0
0
0
0
0
0
0
0
0
0
0
0
0
0
0
0
0
0
0
4.72581e-07
9.60899e-07
8.58021e-07
0
0
4.42803e-07
0
0
0
0
0
0
0
0
0
0
0
0
0
0
0
0
0
0
0
0
0
0
0
0
0
3.35951e-08
6.05524e-07
1.19559e-06
1.73025e-06
1.62334e-06
0
0
3.66309e-07
0
0
0
0
0
0
0
0
0
0
0
0
0
0
0
0
0
0
0
0
0
0
0
0
2.4833e-07
8.52168e-07
1.46705e-06
2.09133e-06
2.64895e-06
2.52407e-06
3.43594e-07
0
3.00837e-07
0
0
0
0
0
0
0
0
0
0
0
0
0
0
0
0
0
0
0
0
0
0
0
4.77143e-07
1.11241e-06
1.75718e-06
2.40516e-06
3.05462e-06
3.62737e-06
3.48568e-06
1.2283e-06
0
2.4037e-07
0
0
0
0
0
0
0
0
0
0
0
0
0
0
0
0
0
0
0
0
0
0
6.30439e-07
1.29787e-06
1.97039e-06
2.644e-06
3.31247e-06
3.97404e-06
4.54947e-06
4.38683e-06
2.07692e-06
0
1.81709e-07
0
0
0
0
0
0
0
0
0
0
0
0
0
0
0
0
0
0
0
0
3.73944e-07
1.05435e-06
1.73983e-06
2.42705e-06
3.11168e-06
3.78955e-06
4.45433e-06
5.10396e-06
5.65878e-06
5.46458e-06
3.11335e-06
0
1.14957e-07
0
0
0
0
0
0
0
0
0
0
0
0
0
0
0
0
0
0
0
3.69185e-07
1.08341e-06
1.79941e-06
2.51363e-06
3.22199e-06
3.91961e-06
4.60186e-06
5.26257e-06
5.89987e-06
6.43518e-06
6.21568e-06
3.86367e-06
0
4.6698e-08
0
0
0
0
0
0
0
0
0
0
0
0
0
0
0
0
0
3.79128e-07
1.09903e-06
1.817e-06
2.53119e-06
3.23898e-06
3.93697e-06
4.6211e-06
5.28652e-06
5.92857e-06
6.5412e-06
7.12198e-06
7.59394e-06
7.32294e-06
4.96316e-06
0
0
0
0
0
0
0
0
0
0
0
0
0
0
0
0
0
0
1.59639e-07
9.11561e-07
1.65936e-06
2.40053e-06
3.13223e-06
3.8508e-06
4.55187e-06
5.23068e-06
5.88201e-06
6.50111e-06
7.08234e-06
7.6238e-06
8.05215e-06
7.7499e-06
5.4425e-06
0
0
0
0
0
0
0
0
0
0
0
0
0
0
0
2.17175e-09
7.6128e-07
1.50536e-06
2.23471e-06
2.94985e-06
3.65047e-06
4.33549e-06
5.003e-06
5.64999e-06
6.2726e-06
6.86636e-06
7.4262e-06
7.94722e-06
8.42365e-06
8.85275e-06
9.16507e-06
8.78597e-06
6.50352e-06
0
0
0
0
0
0
0
0
0
0
0
0
0
0
0
3.58615e-07
1.12993e-06
1.88283e-06
2.61736e-06
3.3335e-06
4.03009e-06
4.70507e-06
5.35546e-06
5.97742e-06
6.56639e-06
7.11744e-06
7.62541e-06
8.08572e-06
8.49365e-06
8.84785e-06
9.08578e-06
8.66734e-06
6.4998e-06
0
0
0
0
0
0
0
0
0
0
0
6.61239e-07
1.47651e-06
2.24203e-06
2.96099e-06
3.63886e-06
4.28136e-06
4.89334e-06
5.47871e-06
6.03996e-06
6.57788e-06
7.09173e-06
7.57933e-06
8.03722e-06
8.46089e-06
8.84526e-06
9.18482e-06
9.47445e-06
9.70889e-06
9.88558e-06
9.94885e-06
9.4311e-06
7.33883e-06
0
0
0
0
0
0
0
0
0
0
4.25996e-07
1.2606e-06
2.02782e-06
2.73419e-06
3.38829e-06
3.99882e-06
4.5733e-06
5.11711e-06
5.63362e-06
6.12424e-06
6.58855e-06
7.02456e-06
7.42898e-06
7.79754e-06
8.12529e-06
8.40707e-06
8.63793e-06
8.81378e-06
8.93143e-06
8.99092e-06
8.94798e-06
8.39602e-06
6.52547e-06
0
9.35175e-07
0
0
8.8768e-07
2.09907e-06
3.23481e-06
4.25406e-06
5.09958e-06
5.77347e-06
6.3125e-06
6.75039e-06
7.11165e-06
7.41671e-06
7.68205e-06
7.92092e-06
8.14273e-06
8.35308e-06
8.55461e-06
8.7476e-06
8.93035e-06
9.09965e-06
9.25113e-06
9.37957e-06
9.47893e-06
9.54283e-06
9.56502e-06
9.53979e-06
9.46242e-06
9.33098e-06
9.11001e-06
8.4929e-06
6.80179e-06
0
0
0
1.36363e-06
3.13508e-06
4.40009e-06
5.26091e-06
5.85842e-06
6.26198e-06
6.52502e-06
6.69783e-06
6.8166e-06
6.90422e-06
6.97634e-06
7.04396e-06
7.11733e-06
7.20212e-06
7.29901e-06
7.40589e-06
7.51885e-06
7.63229e-06
7.73905e-06
7.83074e-06
7.89842e-06
7.93272e-06
7.92482e-06
7.86843e-06
7.75958e-06
7.59844e-06
7.38849e-06
7.10737e-06
6.52739e-06
5.17796e-06
1.70706e-05
1.62193e-05
1.28028e-05
1.2189e-05
1.21467e-05
1.19395e-05
1.15544e-05
1.10569e-05
1.05049e-05
9.96112e-06
9.46208e-06
9.0172e-06
8.62631e-06
8.2868e-06
8.00018e-06
7.7692e-06
7.59286e-06
7.46652e-06
7.38366e-06
7.33639e-06
7.31537e-06
7.30973e-06
7.30734e-06
7.29554e-06
7.26103e-06
7.1904e-06
7.07361e-06
6.90598e-06
6.68759e-06
6.42235e-06
6.09643e-06
5.57069e-06
4.50835e-06
2.26089e-05
2.3317e-05
1.74212e-05
1.47512e-05
1.34635e-05
1.24954e-05
1.16274e-05
1.0759e-05
9.86299e-06
9.00633e-06
8.24811e-06
7.60055e-06
7.04909e-06
6.58034e-06
6.20299e-06
5.916e-06
5.7078e-06
5.56756e-06
5.48674e-06
5.45708e-06
5.46949e-06
5.5136e-06
5.57714e-06
5.64626e-06
5.70432e-06
5.72647e-06
5.68922e-06
5.58302e-06
5.40424e-06
5.16969e-06
4.88155e-06
4.42375e-06
3.55989e-06
7.92939e-05
5.30093e-05
3.19161e-05
2.22687e-05
1.5955e-05
1.07888e-05
6.47561e-06
2.9637e-06
2.25554e-07
0
0
0
0
0
0
0
0
0
0
0
0
0
0
0
0
0
0
0
0
0
0
0
0
0
0
0
0
0
0
0
0
0
0
0
0
0
0
0
0
0
0
0
0
0
0
0
0
0
0
0
0
0
0
0
0
0
3.92157e-08
0
0
0
0
0
0
0
0
0
0
0
0
0
0
0
0
0
0
0
0
0
0
0
0
0
0
0
0
0
0
0
0
2.07085e-08
0
0
0
0
0
0
0
0
0
0
0
0
0
0
0
0
0
0
0
0
0
0
0
0
0
0
0
0
0
0
0
0
9.212e-09
0
0
0
0
0
0
0
0
0
0
0
0
0
0
0
0
0
0
0
0
0
0
0
0
0
0
0
0
0
0
0
0
0
0
0
0
0
0
0
0
0
0
0
0
0
0
0
0
0
9.04163e-06
2.01228e-05
3.54004e-05
5.75388e-05
8.3167e-05
2.95427e-05
0
0
0
0
0
1.01552e-05
8.7178e-06
8.40933e-06
1.16685e-05
1.36843e-05
1.37079e-05
1.25093e-05
1.07586e-05
8.78777e-06
6.86335e-06
5.19102e-06
3.83841e-06
2.73694e-06
1.7546e-06
7.76192e-07
0
0
0
0
0
0
0
0
0
0
0
0
0
0
0
0
0
0
0
0
0
0
0
0
0
0
0
0
0
0
0
0
0
0
0
0
0
0
0
0
0
0
0
0
0
0
0
0
0
0
0
0
0
0
0
0
0
0
0
0
0
4.97684e-07
8.01181e-07
1.50061e-07
0
0
0
0
0
0
0
0
0
0
3.40292e-06
1.62134e-05
3.15603e-05
4.8383e-05
4.87146e-05
0
0
0
0
0
5.87338e-06
1.07751e-05
7.88489e-06
1.03893e-05
1.4042e-05
1.56879e-05
1.54304e-05
1.4058e-05
1.20844e-05
9.88802e-06
7.81169e-06
6.07337e-06
4.712e-06
3.62278e-06
2.64872e-06
1.66587e-06
6.1492e-07
0
0
0
0
0
0
0
0
0
0
0
0
0
0
0
0
0
0
0
0
0
0
0
0
0
0
0
0
0
0
0
0
0
0
0
0
0
0
0
0
0
0
0
0
0
0
0
0
0
0
0
0
0
0
0
0
0
0
0
0
4.78393e-07
1.27631e-06
1.45621e-06
1.62374e-06
1.08718e-06
0
0
0
0
0
0
0
0
0
6.25805e-06
1.70246e-05
2.36653e-05
1.64454e-05
0
0
0
0
0
1.05034e-05
8.46062e-06
8.15247e-06
1.2422e-05
1.57104e-05
1.68584e-05
1.63634e-05
1.48267e-05
1.26977e-05
1.04128e-05
8.33585e-06
6.66143e-06
5.3915e-06
4.38999e-06
3.48486e-06
2.5521e-06
1.53876e-06
4.43226e-07
0
0
0
0
0
0
0
0
0
0
0
0
0
0
0
0
0
0
0
0
0
0
0
0
0
0
0
0
0
0
0
0
0
0
0
0
0
0
0
0
0
0
0
0
0
0
0
0
0
0
0
0
0
0
0
0
0
0
0
2.85313e-07
8.79348e-07
1.46107e-06
1.79267e-06
1.11467e-06
0
0
0
0
0
0
0
0
0
1.09906e-06
8.35184e-06
1.22035e-05
9.46096e-06
0
0
0
0
8.06135e-06
9.12092e-06
6.50811e-06
9.92822e-06
1.43122e-05
1.69247e-05
1.76356e-05
1.69117e-05
1.51979e-05
1.2963e-05
1.06741e-05
8.67894e-06
7.13507e-06
6.00592e-06
5.12642e-06
4.3151e-06
3.45357e-06
2.49753e-06
1.45203e-06
3.43206e-07
0
0
0
0
0
0
0
0
0
0
0
0
0
0
0
0
0
0
0
0
0
0
0
0
0
0
0
0
0
0
0
0
0
0
0
0
0
0
0
0
0
0
0
0
0
0
0
0
0
0
0
0
0
0
0
0
0
0
5.21177e-07
2.58051e-06
3.96888e-06
3.17276e-06
1.2258e-06
0
0
0
0
0
0
0
0
0
1.77865e-06
9.06544e-06
1.29762e-05
8.58244e-06
0
0
0
5.93806e-06
8.76379e-06
5.67778e-06
7.42911e-06
1.21682e-05
1.5921e-05
1.79039e-05
1.82395e-05
1.72473e-05
1.53514e-05
1.30559e-05
1.08202e-05
8.95729e-06
7.58459e-06
6.62417e-06
5.88235e-06
5.17298e-06
4.38775e-06
3.49349e-06
2.50178e-06
1.4426e-06
3.47157e-07
0
0
0
0
0
0
0
0
0
0
0
0
0
0
0
0
0
0
0
0
0
0
0
0
0
0
0
0
0
0
0
0
0
0
0
0
0
0
0
0
0
0
0
0
0
0
0
0
0
0
0
0
0
0
0
0
0
1.85224e-07
3.92384e-07
6.87589e-07
8.16432e-07
2.67725e-07
0
0
0
0
0
0
0
0
0
1.32968e-06
9.00733e-06
1.34653e-05
4.41292e-06
0
0
5.68069e-06
7.34865e-06
4.74129e-06
5.36569e-06
9.85734e-06
1.41931e-05
1.72305e-05
1.86867e-05
1.86303e-05
1.73494e-05
1.53072e-05
1.3009e-05
1.08808e-05
9.19767e-06
8.03361e-06
7.26379e-06
6.66801e-06
6.06236e-06
5.35317e-06
4.52045e-06
3.58332e-06
2.57446e-06
1.52692e-06
4.67151e-07
0
0
0
0
0
0
0
0
0
0
0
0
0
0
0
0
0
0
0
0
0
0
0
0
0
0
0
0
0
0
0
0
0
0
0
0
0
0
0
0
0
0
0
0
0
0
0
0
0
0
0
0
0
0
0
0
7.5955e-07
1.43994e-06
1.42241e-06
9.30212e-07
3.30218e-07
0
0
0
0
0
0
0
0
0
0
0
0
0
1.33174e-06
4.6127e-06
4.89962e-06
3.12046e-06
3.86668e-06
7.84342e-06
1.21742e-05
1.58432e-05
1.82703e-05
1.92121e-05
1.87424e-05
1.72066e-05
1.50819e-05
1.28422e-05
1.08762e-05
9.42222e-06
8.5018e-06
7.93718e-06
7.48845e-06
6.98301e-06
6.34632e-06
5.5727e-06
4.6892e-06
3.73151e-06
2.73273e-06
1.72003e-06
7.13296e-07
0
0
0
0
0
0
0
0
0
0
0
0
0
0
0
0
0
0
0
0
0
0
0
0
0
0
0
0
0
0
0
0
0
0
0
0
0
0
0
0
0
0
0
0
0
0
0
0
0
0
0
0
0
0
0
1.97601e-06
2.11945e-06
1.4942e-06
8.11047e-07
4.76227e-08
0
0
0
0
0
0
0
0
0
0
0
0
1.72689e-07
1.7472e-06
1.97323e-06
1.53697e-06
3.13111e-06
6.37055e-06
1.02419e-05
1.40739e-05
1.71621e-05
1.89942e-05
1.9401e-05
1.85544e-05
1.68364e-05
1.46991e-05
1.25782e-05
1.0833e-05
9.659e-06
9.00975e-06
8.65394e-06
8.34495e-06
7.93127e-06
7.36085e-06
6.6426e-06
5.81086e-06
4.90421e-06
3.95595e-06
2.99216e-06
2.03282e-06
1.09277e-06
1.81253e-07
0
0
0
0
0
0
0
0
0
0
0
0
0
0
0
0
0
0
0
0
0
0
0
0
0
0
0
0
0
0
0
0
0
0
0
0
0
0
0
0
0
0
0
0
0
0
0
0
0
0
0
0
0
2.08796e-06
1.65459e-06
1.03391e-06
3.64613e-07
0
0
0
0
0
0
0
0
0
0
0
0
0
1.02642e-07
4.94889e-07
1.42913e-06
2.99678e-06
5.38281e-06
8.59231e-06
1.22321e-05
1.56207e-05
1.81035e-05
1.93099e-05
1.92233e-05
1.80857e-05
1.62678e-05
1.41848e-05
1.22468e-05
1.07871e-05
9.9397e-06
9.57501e-06
9.41842e-06
9.23396e-06
8.89973e-06
8.38771e-06
7.72054e-06
6.93872e-06
6.08282e-06
5.18628e-06
4.27427e-06
3.36549e-06
2.47438e-06
1.61198e-06
7.83989e-07
0
0
0
0
0
0
0
1.29517e-07
4.39271e-07
0
0
0
0
0
0
0
0
0
0
0
0
0
0
0
0
0
0
0
0
0
0
0
0
0
0
0
0
0
0
0
0
0
0
0
0
0
0
0
0
0
0
0
1.89901e-06
1.13104e-06
4.83153e-07
0
0
0
0
0
0
0
0
0
0
0
0
0
0
3.15487e-07
1.22904e-06
2.54997e-06
4.49786e-06
7.20778e-06
1.05104e-05
1.38956e-05
1.67342e-05
1.85552e-05
1.91825e-05
1.87044e-05
1.7374e-05
1.55324e-05
1.35714e-05
1.18896e-05
1.07825e-05
1.02945e-05
1.02081e-05
1.02281e-05
1.01469e-05
9.8776e-06
9.41557e-06
8.79537e-06
8.06215e-06
7.25739e-06
6.41397e-06
5.55613e-06
4.70154e-06
3.86361e-06
3.05304e-06
2.2764e-06
1.5373e-06
8.46479e-07
2.44855e-07
0
0
1.01096e-07
8.82398e-07
1.74541e-06
2.07825e-06
1.3409e-06
0
0
0
0
0
0
0
0
0
0
0
0
0
0
0
0
0
0
0
0
0
0
0
0
0
0
0
0
0
0
0
0
0
0
0
0
0
0
0
0
0
0
3.9846e-07
3.45734e-07
0
0
0
0
0
0
0
0
0
0
0
0
0
0
0
4.97808e-07
1.81281e-06
3.58287e-06
5.9718e-06
8.93488e-06
1.21369e-05
1.50722e-05
1.72781e-05
1.84858e-05
1.86497e-05
1.78953e-05
1.64601e-05
1.46666e-05
1.29046e-05
1.15618e-05
1.0866e-05
1.07452e-05
1.09096e-05
1.1073e-05
1.10705e-05
1.08512e-05
1.04313e-05
9.85489e-06
9.16989e-06
8.41757e-06
7.62949e-06
6.8285e-06
6.03114e-06
5.25015e-06
4.4957e-06
3.77443e-06
3.09e-06
2.45149e-06
1.89635e-06
1.51549e-06
1.44527e-06
1.80192e-06
2.54952e-06
3.35957e-06
3.68561e-06
3.11013e-06
1.44216e-06
0
0
0
0
0
0
0
0
0
0
0
0
0
0
0
0
0
0
0
0
0
0
0
0
0
0
0
0
0
0
0
0
0
0
0
0
0
0
0
0
0
0
0
0
0
0
0
0
0
0
0
0
0
0
0
0
0
0
7.52873e-07
2.49403e-06
4.71781e-06
7.41231e-06
1.0371e-05
1.3235e-05
1.56198e-05
1.72372e-05
1.79535e-05
1.77821e-05
1.68513e-05
1.5388e-05
1.37197e-05
1.22471e-05
1.13277e-05
1.10773e-05
1.12994e-05
1.16687e-05
1.19367e-05
1.19878e-05
1.18047e-05
1.14208e-05
1.08864e-05
1.02505e-05
9.55291e-06
8.82319e-06
8.08236e-06
7.34556e-06
6.6247e-06
5.92972e-06
5.26754e-06
4.64157e-06
4.05911e-06
3.55336e-06
3.20865e-06
3.15537e-06
3.50407e-06
4.21372e-06
4.96397e-06
5.26338e-06
4.81488e-06
3.48286e-06
1.30367e-06
0
0
0
0
0
0
0
0
0
0
0
0
0
0
0
0
0
0
0
0
0
0
0
0
0
0
0
0
0
0
0
0
0
0
0
0
0
0
0
0
0
0
0
0
0
0
0
0
0
0
0
0
0
0
0
0
0
1.13848e-06
3.2912e-06
5.79802e-06
8.53184e-06
1.12547e-05
1.36796e-05
1.55502e-05
1.6697e-05
1.70545e-05
1.66551e-05
1.56277e-05
1.42111e-05
1.27589e-05
1.16782e-05
1.12498e-05
1.14379e-05
1.19474e-05
1.24642e-05
1.27972e-05
1.28793e-05
1.27215e-05
1.23697e-05
1.18775e-05
1.12929e-05
1.06532e-05
9.98544e-06
9.30853e-06
8.63601e-06
7.97873e-06
7.34627e-06
6.74588e-06
6.18116e-06
5.65793e-06
5.20459e-06
4.89833e-06
4.86271e-06
5.2023e-06
5.87134e-06
6.55591e-06
6.81188e-06
6.45821e-06
5.44556e-06
3.64503e-06
1.47052e-06
0
0
0
0
0
0
0
0
0
0
0
0
0
0
0
0
0
0
0
0
0
0
0
0
0
0
0
0
0
0
0
0
0
0
0
0
0
0
0
0
0
0
0
0
0
0
0
0
0
0
0
0
0
0
0
0
1.56227e-06
3.96198e-06
6.52946e-06
9.11288e-06
1.15133e-05
1.35272e-05
1.49874e-05
1.57866e-05
1.58883e-05
1.53375e-05
1.42828e-05
1.2999e-05
1.18737e-05
1.12844e-05
1.13717e-05
1.19432e-05
1.26627e-05
1.32674e-05
1.36294e-05
1.37244e-05
1.35848e-05
1.32641e-05
1.28161e-05
1.22862e-05
1.17084e-05
1.11067e-05
1.04978e-05
9.89341e-06
9.30334e-06
8.73664e-06
8.20073e-06
7.69958e-06
7.23786e-06
6.8396e-06
6.57458e-06
6.55869e-06
6.88993e-06
7.51742e-06
8.13207e-06
8.33069e-06
8.04073e-06
7.32374e-06
5.93296e-06
4.00917e-06
2.23963e-06
1.07293e-06
4.92557e-07
1.44934e-07
0
0
0
0
0
0
0
0
0
0
0
0
0
0
0
0
0
0
0
0
0
0
0
0
0
0
0
0
0
0
0
0
0
0
0
0
0
0
0
0
0
0
0
0
0
0
0
0
0
0
0
0
1.92626e-06
4.36692e-06
6.83222e-06
9.18563e-06
1.12736e-05
1.29486e-05
1.40907e-05
1.46239e-05
1.45336e-05
1.38914e-05
1.28874e-05
1.18472e-05
1.11711e-05
1.11378e-05
1.17016e-05
1.25619e-05
1.34066e-05
1.40448e-05
1.44074e-05
1.45034e-05
1.43793e-05
1.40914e-05
1.36915e-05
1.32206e-05
1.27091e-05
1.21777e-05
1.16408e-05
1.11085e-05
1.05893e-05
1.00916e-05
9.62303e-06
9.18779e-06
8.78978e-06
8.44906e-06
8.22806e-06
8.23438e-06
8.55889e-06
9.14537e-06
9.68843e-06
9.8199e-06
9.56431e-06
9.10784e-06
8.14356e-06
6.5336e-06
4.84929e-06
3.63447e-06
2.97563e-06
2.57356e-06
1.87667e-06
3.42356e-07
0
0
0
0
0
0
0
0
0
0
0
0
0
0
0
0
0
0
0
0
0
0
0
0
0
0
0
0
0
0
0
0
0
0
0
0
0
0
0
0
0
0
0
0
0
0
0
0
0
0
2.20228e-06
4.53883e-06
6.8173e-06
8.91927e-06
1.072e-05
1.21029e-05
1.29755e-05
1.32872e-05
1.3053e-05
1.23879e-05
1.154e-05
1.08778e-05
1.07536e-05
1.12677e-05
1.22054e-05
1.32421e-05
1.41339e-05
1.47628e-05
1.5107e-05
1.51987e-05
1.50915e-05
1.48407e-05
1.44937e-05
1.40867e-05
1.36459e-05
1.31891e-05
1.27283e-05
1.22718e-05
1.18271e-05
1.14017e-05
1.10032e-05
1.06362e-05
1.03041e-05
1.00234e-05
9.84928e-06
9.88056e-06
1.02004e-05
1.07475e-05
1.12198e-05
1.12795e-05
1.10345e-05
1.07959e-05
1.02504e-05
9.00754e-06
7.4645e-06
6.22655e-06
5.49147e-06
5.02706e-06
4.30398e-06
2.75677e-06
1.58867e-07
0
0
0
0
0
0
0
0
0
0
0
0
0
0
0
0
0
0
0
0
0
0
0
0
0
0
0
0
0
0
0
0
0
0
0
0
0
0
0
0
0
0
0
0
0
0
0
0
2.40068e-07
2.40351e-06
4.55843e-06
6.60824e-06
8.44726e-06
9.96946e-06
1.10799e-05
1.17096e-05
1.18368e-05
1.15179e-05
1.09267e-05
1.03719e-05
1.02194e-05
1.0678e-05
1.16428e-05
1.28164e-05
1.39229e-05
1.47999e-05
1.53907e-05
1.57075e-05
1.57957e-05
1.57104e-05
1.55026e-05
1.5214e-05
1.48759e-05
1.45102e-05
1.41319e-05
1.37508e-05
1.33739e-05
1.3007e-05
1.26571e-05
1.23314e-05
1.2035e-05
1.17709e-05
1.15526e-05
1.14282e-05
1.14873e-05
1.18051e-05
1.2315e-05
1.27196e-05
1.27077e-05
1.24565e-05
1.23924e-05
1.22382e-05
1.13966e-05
1.00513e-05
8.82431e-06
8.02274e-06
7.49555e-06
6.74534e-06
5.18364e-06
2.52667e-06
0
0
0
0
0
0
0
0
0
0
0
0
0
0
0
0
0
0
0
0
0
0
0
0
0
0
8.24085e-08
3.07112e-07
0
0
0
0
0
0
0
0
0
0
0
0
0
0
0
0
0
0
0
0
5.69034e-07
2.54543e-06
4.47599e-06
6.27085e-06
7.83643e-06
9.08299e-06
9.93539e-06
1.03502e-05
1.0343e-05
1.00266e-05
9.64313e-06
9.53118e-06
9.95799e-06
1.09214e-05
1.218e-05
1.34524e-05
1.4544e-05
1.5365e-05
1.59038e-05
1.61931e-05
1.62837e-05
1.62274e-05
1.60693e-05
1.58447e-05
1.55798e-05
1.52932e-05
1.4997e-05
1.46991e-05
1.44049e-05
1.41192e-05
1.38477e-05
1.35975e-05
1.33739e-05
1.318e-05
1.30263e-05
1.29545e-05
1.30447e-05
1.33635e-05
1.38399e-05
1.41818e-05
1.41031e-05
1.38368e-05
1.39078e-05
1.4104e-05
1.36788e-05
1.25832e-05
1.14064e-05
1.05529e-05
9.96245e-06
9.18437e-06
7.61298e-06
4.89983e-06
1.18237e-06
0
0
0
0
0
0
0
0
0
0
0
0
0
0
0
0
0
0
0
0
0
0
0
6.39004e-08
3.69601e-07
1.20927e-06
1.42485e-06
0
0
0
0
0
0
0
0
0
0
0
0
0
0
0
0
0
0
0
0
8.69557e-07
2.62504e-06
4.30665e-06
5.83311e-06
7.12311e-06
8.10297e-06
8.71947e-06
8.96254e-06
8.89988e-06
8.71377e-06
8.69631e-06
9.12855e-06
1.00831e-05
1.13853e-05
1.27722e-05
1.40339e-05
1.50546e-05
1.57992e-05
1.62846e-05
1.65534e-05
1.66552e-05
1.6636e-05
1.65339e-05
1.63782e-05
1.61906e-05
1.59864e-05
1.57753e-05
1.55637e-05
1.53553e-05
1.51535e-05
1.49633e-05
1.47912e-05
1.46426e-05
1.45206e-05
1.44337e-05
1.44171e-05
1.45414e-05
1.48642e-05
1.53109e-05
1.55962e-05
1.54585e-05
1.51743e-05
1.53465e-05
1.58439e-05
1.58314e-05
1.50297e-05
1.3946e-05
1.30607e-05
1.24084e-05
1.15982e-05
1.00232e-05
7.26537e-06
3.4001e-06
0
0
0
0
0
0
0
0
0
0
0
0
0
0
0
0
0
0
0
0
0
1.7809e-07
6.51282e-07
1.18248e-06
1.33461e-06
2.27388e-06
2.50505e-06
0
0
0
0
0
0
0
0
0
0
0
0
0
0
0
0
0
0
0
0
1.12493e-06
2.64175e-06
4.06355e-06
5.31888e-06
6.33979e-06
7.07152e-06
7.49051e-06
7.63432e-06
7.63777e-06
7.74269e-06
8.21401e-06
9.165e-06
1.04814e-05
1.19345e-05
1.33165e-05
1.44961e-05
1.54183e-05
1.60834e-05
1.65234e-05
1.67826e-05
1.69055e-05
1.69309e-05
1.68903e-05
1.68075e-05
1.67003e-05
1.65812e-05
1.64579e-05
1.6335e-05
1.62149e-05
1.60999e-05
1.59936e-05
1.59018e-05
1.58303e-05
1.57823e-05
1.57644e-05
1.58058e-05
1.59678e-05
1.6299e-05
1.67214e-05
1.69587e-05
1.67735e-05
1.64747e-05
1.67209e-05
1.74662e-05
1.78442e-05
1.73687e-05
1.64219e-05
1.55294e-05
1.48193e-05
1.39705e-05
1.23907e-05
9.59986e-06
5.59049e-06
7.49395e-07
0
0
0
0
0
0
0
0
0
0
0
0
0
0
0
0
0
0
2.58034e-08
7.55775e-07
1.36194e-06
1.70176e-06
2.1612e-06
2.17235e-06
3.22115e-06
3.45853e-06
0
0
0
0
0
0
0
0
0
0
0
0
0
0
0
0
0
0
0
0
1.31713e-06
2.58895e-06
3.75107e-06
4.74335e-06
5.51433e-06
6.03564e-06
6.32698e-06
6.4889e-06
6.71804e-06
7.24768e-06
8.20232e-06
9.5124e-06
1.09891e-05
1.24408e-05
1.37324e-05
1.4795e-05
1.5614e-05
1.6209e-05
1.66168e-05
1.68783e-05
1.70311e-05
1.71072e-05
1.7132e-05
1.7125e-05
1.71007e-05
1.70688e-05
1.70354e-05
1.70034e-05
1.69739e-05
1.69478e-05
1.69276e-05
1.69185e-05
1.69258e-05
1.69531e-05
1.70055e-05
1.71066e-05
1.73085e-05
1.76507e-05
1.80527e-05
1.82488e-05
1.80265e-05
1.77182e-05
1.80167e-05
1.89569e-05
1.96897e-05
1.95603e-05
1.87937e-05
1.79236e-05
1.71642e-05
1.62722e-05
1.46858e-05
1.18763e-05
7.73817e-06
2.6135e-06
0
0
0
0
0
0
0
0
0
0
0
0
0
0
0
0
0
5.84026e-07
1.4257e-06
2.02787e-06
2.52044e-06
2.73347e-06
3.12115e-06
3.00191e-06
4.13221e-06
4.39933e-06
0
0
0
0
0
0
0
0
0
0
0
0
0
0
0
0
0
0
0
3.43714e-07
1.4397e-06
2.46934e-06
3.38171e-06
4.1312e-06
4.69011e-06
5.06938e-06
5.34678e-06
5.68198e-06
6.27131e-06
7.23024e-06
8.51666e-06
9.98013e-06
1.14537e-05
1.28083e-05
1.39687e-05
1.49082e-05
1.56345e-05
1.61751e-05
1.6565e-05
1.68392e-05
1.70287e-05
1.71595e-05
1.72522e-05
1.73229e-05
1.7383e-05
1.74401e-05
1.74983e-05
1.75591e-05
1.76221e-05
1.7687e-05
1.77552e-05
1.78308e-05
1.79193e-05
1.80239e-05
1.8149e-05
1.8313e-05
1.85591e-05
1.89179e-05
1.93067e-05
1.94719e-05
1.92249e-05
1.89129e-05
1.9245e-05
2.03287e-05
2.13695e-05
2.15916e-05
2.10444e-05
2.02288e-05
1.94299e-05
1.84871e-05
1.68831e-05
1.40579e-05
9.80058e-06
4.37531e-06
0
0
0
0
0
0
0
0
0
0
0
0
0
0
0
0
1.01245e-06
1.94954e-06
2.67112e-06
3.15121e-06
3.5386e-06
3.63394e-06
3.95955e-06
3.71742e-06
4.96005e-06
5.22795e-06
0
0
0
0
0
0
0
0
0
0
0
0
0
0
0
0
0
0
0
6.03722e-07
1.48084e-06
2.2815e-06
2.96729e-06
3.51423e-06
3.93045e-06
4.2795e-06
4.69201e-06
5.32758e-06
6.28162e-06
7.52607e-06
8.94363e-06
1.03955e-05
1.17658e-05
1.29795e-05
1.40017e-05
1.48298e-05
1.54815e-05
1.59843e-05
1.63686e-05
1.66631e-05
1.68934e-05
1.70811e-05
1.72432e-05
1.73927e-05
1.75386e-05
1.76861e-05
1.78374e-05
1.79924e-05
1.81493e-05
1.83066e-05
1.84643e-05
1.86257e-05
1.87956e-05
1.89774e-05
1.91741e-05
1.94e-05
1.96895e-05
2.00641e-05
2.04394e-05
2.05749e-05
2.03067e-05
1.99917e-05
2.03412e-05
2.15245e-05
2.28266e-05
2.33985e-05
2.311e-05
2.23879e-05
2.15659e-05
2.05678e-05
1.89374e-05
1.61042e-05
1.17537e-05
6.02981e-06
0
0
0
0
0
0
0
0
0
0
0
0
0
0
4.83893e-08
1.41697e-06
2.50731e-06
3.32296e-06
3.92461e-06
4.28445e-06
4.56655e-06
4.54636e-06
4.80452e-06
4.44493e-06
5.7662e-06
6.06674e-06
3.96027e-08
0
0
0
0
0
0
0
0
0
0
0
0
0
0
0
0
0
6.09091e-08
7.77714e-07
1.44903e-06
2.04411e-06
2.54404e-06
2.95744e-06
3.33907e-06
3.79633e-06
4.45447e-06
5.38504e-06
6.56618e-06
7.90792e-06
9.29931e-06
1.06417e-05
1.18648e-05
1.29303e-05
1.3827e-05
1.45634e-05
1.51589e-05
1.56378e-05
1.60251e-05
1.63448e-05
1.66184e-05
1.68644e-05
1.70969e-05
1.73264e-05
1.75591e-05
1.77983e-05
1.8044e-05
1.82946e-05
1.8547e-05
1.87984e-05
1.90479e-05
1.92975e-05
1.95516e-05
1.98135e-05
2.00855e-05
2.03777e-05
2.07162e-05
2.11137e-05
2.14833e-05
2.15969e-05
2.13124e-05
2.09909e-05
2.13384e-05
2.25792e-05
2.40922e-05
2.49989e-05
2.50002e-05
2.44112e-05
2.35836e-05
2.25196e-05
2.08371e-05
1.79803e-05
1.35408e-05
7.49513e-06
3.54708e-07
0
0
0
0
0
0
0
0
0
0
0
0
1.04373e-08
1.59581e-06
2.86643e-06
3.84473e-06
4.54338e-06
5.03094e-06
5.27602e-06
5.45792e-06
5.32643e-06
5.52522e-06
5.05081e-06
6.4961e-06
6.78368e-06
9.33167e-07
0
0
0
0
0
0
0
0
0
0
0
0
0
0
0
0
0
3.10857e-07
8.51039e-07
1.34469e-06
1.77867e-06
2.16364e-06
2.54828e-06
3.02008e-06
3.67318e-06
4.55661e-06
5.65163e-06
6.89074e-06
8.18841e-06
9.4643e-06
1.06564e-05
1.17261e-05
1.26567e-05
1.34485e-05
1.41129e-05
1.46674e-05
1.51322e-05
1.55287e-05
1.58772e-05
1.61966e-05
1.65026e-05
1.6807e-05
1.71176e-05
1.74381e-05
1.77694e-05
1.81097e-05
1.84555e-05
1.88024e-05
1.91464e-05
1.94852e-05
1.98197e-05
2.01536e-05
2.04899e-05
2.083e-05
2.11805e-05
2.15593e-05
2.19696e-05
2.23222e-05
2.24032e-05
2.2096e-05
2.17677e-05
2.21119e-05
2.33921e-05
2.50795e-05
2.63018e-05
2.66162e-05
2.62021e-05
2.53949e-05
2.42628e-05
2.25079e-05
1.96213e-05
1.51315e-05
8.79613e-06
9.85643e-07
0
0
0
0
0
0
0
0
0
0
0
0
1.69929e-06
3.20155e-06
4.36538e-06
5.22654e-06
5.80369e-06
6.1722e-06
6.29902e-06
6.37684e-06
6.13432e-06
6.26624e-06
5.68144e-06
7.20994e-06
7.5363e-06
2.14253e-06
2.53416e-07
0
0
0
0
0
0
0
0
0
0
0
0
0
0
0
6.16678e-08
4.70882e-07
8.57677e-07
1.21435e-06
1.55366e-06
1.91852e-06
2.37766e-06
2.99757e-06
3.80866e-06
4.79498e-06
5.90746e-06
7.08273e-06
8.25836e-06
9.38263e-06
1.04195e-05
1.13489e-05
1.21649e-05
1.28715e-05
1.34797e-05
1.40043e-05
1.44629e-05
1.48741e-05
1.52558e-05
1.56244e-05
1.59931e-05
1.63711e-05
1.67636e-05
1.71724e-05
1.7596e-05
1.80311e-05
1.84728e-05
1.89155e-05
1.93542e-05
1.97855e-05
2.02094e-05
2.06285e-05
2.10456e-05
2.14614e-05
2.18789e-05
2.23088e-05
2.27447e-05
2.30948e-05
2.31591e-05
2.28452e-05
2.25246e-05
2.28736e-05
2.41785e-05
2.59896e-05
2.74663e-05
2.80651e-05
2.7829e-05
2.70461e-05
2.58266e-05
2.39533e-05
2.09885e-05
1.64482e-05
9.84183e-06
1.22017e-06
0
0
0
0
0
0
0
0
0
0
0
1.42346e-06
3.21694e-06
4.63385e-06
5.69398e-06
6.44234e-06
6.902e-06
7.15522e-06
7.16688e-06
7.14369e-06
6.7911e-06
6.864e-06
6.16776e-06
7.84172e-06
8.13827e-06
2.83858e-06
9.88626e-07
3.13483e-07
0
0
0
0
0
0
0
0
0
0
0
0
0
0
2.28203e-07
5.18758e-07
8.01676e-07
1.09109e-06
1.42318e-06
1.84864e-06
2.4112e-06
3.12828e-06
3.98755e-06
4.9551e-06
5.98631e-06
7.03521e-06
8.06115e-06
9.03275e-06
9.92915e-06
1.07396e-05
1.1462e-05
1.21009e-05
1.26664e-05
1.31717e-05
1.36326e-05
1.40654e-05
1.44858e-05
1.49074e-05
1.53405e-05
1.57918e-05
1.62642e-05
1.67572e-05
1.72677e-05
1.77908e-05
1.83202e-05
1.88493e-05
1.93719e-05
1.98836e-05
2.03834e-05
2.0873e-05
2.13546e-05
2.18282e-05
2.22943e-05
2.27568e-05
2.32016e-05
2.35387e-05
2.35931e-05
2.33131e-05
2.30769e-05
2.35145e-05
2.48808e-05
2.67638e-05
2.83727e-05
2.91306e-05
2.89871e-05
2.81774e-05
2.68311e-05
2.48008e-05
2.17374e-05
1.72162e-05
1.05586e-05
1.17271e-06
0
0
0
0
0
0
0
0
0
0
9.65547e-07
3.11692e-06
4.84163e-06
6.15974e-06
7.10347e-06
7.72685e-06
8.05892e-06
8.18899e-06
8.08115e-06
7.95332e-06
7.49247e-06
7.49937e-06
6.69747e-06
8.46974e-06
8.82014e-06
4.03355e-06
2.19982e-06
1.49621e-06
1.07835e-06
7.24169e-07
4.01381e-07
1.18069e-07
0
0
0
0
0
0
0
0
0
1.42481e-07
3.37613e-07
5.44817e-07
7.77592e-07
1.06336e-06
1.4355e-06
1.91979e-06
2.52514e-06
3.24294e-06
4.05147e-06
4.92166e-06
5.82231e-06
6.724e-06
7.60149e-06
8.43515e-06
9.2115e-06
9.92355e-06
1.05706e-05
1.11573e-05
1.16929e-05
1.21895e-05
1.26609e-05
1.31211e-05
1.35832e-05
1.40581e-05
1.45539e-05
1.50756e-05
1.56245e-05
1.61993e-05
1.67957e-05
1.7408e-05
1.80289e-05
1.86512e-05
1.9268e-05
1.9874e-05
2.04671e-05
2.10481e-05
2.16182e-05
2.21766e-05
2.27221e-05
2.32549e-05
2.37581e-05
2.41507e-05
2.42885e-05
2.41582e-05
2.41245e-05
2.47255e-05
2.6122e-05
2.78904e-05
2.93073e-05
2.98523e-05
2.94715e-05
2.8379e-05
2.67175e-05
2.44045e-05
2.11869e-05
1.67215e-05
1.03045e-05
3.51284e-07
0
0
0
0
0
0
0
0
0
0
2.46206e-06
4.595e-06
6.25603e-06
7.48146e-06
8.31461e-06
8.81863e-06
9.02784e-06
9.03779e-06
8.81092e-06
8.57829e-06
8.00534e-06
7.95345e-06
7.04129e-06
8.99126e-06
9.29315e-06
4.31647e-06
2.55998e-06
1.86386e-06
1.44242e-06
1.08532e-06
7.64608e-07
4.8445e-07
2.49387e-07
6.36632e-08
0
0
0
0
0
0
5.8711e-08
1.8549e-07
3.35208e-07
5.18574e-07
7.53752e-07
1.0606e-06
1.45364e-06
1.93805e-06
2.50946e-06
3.15613e-06
3.86161e-06
4.60727e-06
5.37384e-06
6.14252e-06
6.89598e-06
7.61965e-06
8.30314e-06
8.94119e-06
9.53378e-06
1.00854e-05
1.06041e-05
1.11001e-05
1.15849e-05
1.20704e-05
1.25677e-05
1.30861e-05
1.36323e-05
1.42099e-05
1.48193e-05
1.54577e-05
1.61203e-05
1.68003e-05
1.74901e-05
1.81819e-05
1.88685e-05
1.95444e-05
2.02071e-05
2.08566e-05
2.14932e-05
2.21154e-05
2.27213e-05
2.33111e-05
2.38755e-05
2.43602e-05
2.46776e-05
2.48661e-05
2.52318e-05
2.61047e-05
2.74366e-05
2.87519e-05
2.94458e-05
2.91748e-05
2.80026e-05
2.61948e-05
2.39385e-05
2.12458e-05
1.80301e-05
1.40953e-05
8.71838e-06
0
0
0
0
0
0
0
0
0
0
1.53042e-06
4.15159e-06
6.24242e-06
7.81904e-06
8.93053e-06
9.63266e-06
9.99973e-06
1.00733e-05
9.95545e-06
9.60805e-06
9.27142e-06
8.5938e-06
8.48043e-06
7.46745e-06
9.54396e-06
9.9272e-06
5.30975e-06
3.59961e-06
2.85455e-06
2.35216e-06
1.90679e-06
1.50097e-06
1.14642e-06
8.46108e-07
5.98144e-07
4.02829e-07
2.59295e-07
1.64338e-07
1.13394e-07
1.01156e-07
1.22713e-07
1.75264e-07
2.59895e-07
3.82304e-07
5.51501e-07
7.76961e-07
1.06575e-06
1.42097e-06
1.84177e-06
2.32414e-06
2.86188e-06
3.44695e-06
4.06927e-06
4.71646e-06
5.37428e-06
6.0282e-06
6.66553e-06
7.27717e-06
7.85839e-06
8.40869e-06
8.93129e-06
9.43262e-06
9.92184e-06
1.041e-05
1.09089e-05
1.14298e-05
1.19823e-05
1.25732e-05
1.32057e-05
1.38794e-05
1.45907e-05
1.5334e-05
1.61022e-05
1.68878e-05
1.76828e-05
1.84802e-05
1.92737e-05
2.00611e-05
2.08414e-05
2.16135e-05
2.23735e-05
2.3118e-05
2.38497e-05
2.45721e-05
2.52593e-05
2.58553e-05
2.63736e-05
2.69555e-05
2.76832e-05
2.8381e-05
2.86554e-05
2.81033e-05
2.65636e-05
2.41932e-05
2.12915e-05
1.80608e-05
1.45357e-05
1.07124e-05
6.71613e-06
3.11714e-06
0
0
0
0
0
0
0
0
0
0
2.93172e-06
5.54796e-06
7.5985e-06
9.10519e-06
1.01204e-05
1.07064e-05
1.09462e-05
1.08878e-05
1.06409e-05
1.01671e-05
9.72026e-06
8.92778e-06
8.75912e-06
7.63881e-06
9.93326e-06
1.02456e-05
4.86762e-06
3.31151e-06
2.59267e-06
2.1061e-06
1.67961e-06
1.2886e-06
9.46629e-07
6.62588e-07
4.34024e-07
2.57706e-07
1.30233e-07
4.64613e-08
6.80117e-10
0
4.9084e-09