/*--------------------------------*- C++ -*----------------------------------*\
  =========                 |
  \\      /  F ield         | OpenFOAM: The Open Source CFD Toolbox
   \\    /   O peration     | Website:  https://openfoam.org
    \\  /    A nd           | Version:  10
     \\/     M anipulation  |
\*---------------------------------------------------------------------------*/
FoamFile
{
    format      ascii;
    class       volScalarField;
    location    "0.05";
    object      p;
}
// * * * * * * * * * * * * * * * * * * * * * * * * * * * * * * * * * * * * * //

dimensions      [0 2 -2 0 0 0 0];

internalField   nonuniform List<scalar> 
6820
(
-9.51312
-9.81507
-9.85955
-9.87302
-9.90201
-9.92291
-9.93596
-9.9456
-9.95214
-9.95539
-9.95555
-9.95267
-9.94663
-9.93723
-9.9242
-9.90721
-9.8858
-9.85943
-9.82744
-9.78901
-9.74317
-9.68874
-9.62426
-9.54802
-9.45787
-9.35126
-9.22507
-9.07574
-8.89876
-8.68995
-8.4449
-8.15522
-7.85831
-9.7148
-9.83925
-9.87428
-9.88767
-9.91086
-9.92871
-9.94023
-9.94883
-9.95475
-9.95766
-9.95766
-9.95476
-9.94881
-9.9396
-9.92687
-9.91028
-9.88941
-9.86374
-9.83265
-9.79537
-9.75102
-9.69851
-9.63656
-9.56361
-9.47781
-9.377
-9.25855
-9.11965
-8.95681
-8.768
-8.54895
-8.31444
-8.06552
-9.71492
-9.79978
-9.85679
-9.8813
-9.90671
-9.92733
-9.94127
-9.95148
-9.95862
-9.96254
-9.96341
-9.96127
-9.95606
-9.94761
-9.9357
-9.92005
-9.90028
-9.87596
-9.84656
-9.81146
-9.76995
-9.72119
-9.66424
-9.59805
-9.5215
-9.43342
-9.3328
-9.21899
-9.09245
-8.95549
-8.81729
-8.69231
-8.64423
-9.7722
-9.84152
-9.88806
-9.90622
-9.92516
-9.94178
-9.95311
-9.96125
-9.96684
-9.96966
-9.96974
-9.96708
-9.96158
-9.95304
-9.94126
-9.92595
-9.90677
-9.88333
-9.85514
-9.82169
-9.78237
-9.73652
-9.68344
-9.62241
-9.55276
-9.474
-9.38605
-9.28961
-9.18707
-9.0833
-8.9901
-8.92369
-8.93385
-9.80274
-9.84108
-9.87877
-9.89976
-9.91996
-9.93794
-9.95098
-9.96059
-9.96746
-9.97148
-9.97267
-9.97108
-9.96663
-9.95919
-9.94857
-9.93453
-9.91681
-9.89506
-9.8689
-9.83793
-9.80169
-9.75972
-9.71158
-9.65689
-9.59545
-9.52739
-9.45344
-9.37529
-9.29658
-9.22316
-9.16725
-9.14288
-9.18676
-9.83336
-9.86365
-9.89969
-9.92111
-9.93882
-9.95435
-9.96574
-9.97395
-9.97965
-9.98279
-9.98335
-9.98137
-9.97675
-9.96937
-9.95906
-9.94563
-9.92882
-9.90835
-9.88394
-9.85525
-9.82199
-9.78386
-9.74064
-9.69227
-9.63892
-9.58118
-9.52035
-9.45873
-9.40042
-9.35147
-9.32259
-9.32514
-9.38354
-9.85929
-9.87879
-9.90614
-9.92436
-9.93997
-9.9545
-9.96596
-9.97462
-9.98094
-9.98487
-9.98634
-9.98536
-9.98187
-9.97575
-9.96684
-9.955
-9.94003
-9.92172
-9.89987
-9.87428
-9.84476
-9.81121
-9.77364
-9.73225
-9.68753
-9.64043
-9.59261
-9.54667
-9.50672
-9.47833
-9.47017
-9.49074
-9.55515
-9.88265
-9.89682
-9.92061
-9.939
-9.95442
-9.96834
-9.97936
-9.98764
-9.99361
-9.99731
-9.9987
-9.9978
-9.99456
-9.98887
-9.98066
-9.9698
-9.95615
-9.93958
-9.91996
-9.89718
-9.87119
-9.84204
-9.80992
-9.77523
-9.7387
-9.7015
-9.66545
-9.63317
-9.60845
-9.59608
-9.60265
-9.63413
-9.69938
-9.90398
-9.91407
-9.93301
-9.94876
-9.96201
-9.9742
-9.98434
-9.99227
-9.99823
-10.0022
-10.0041
-10.004
-10.0017
-9.99722
-9.99046
-9.98133
-9.96973
-9.95559
-9.93885
-9.91951
-9.89763
-9.8734
-9.84715
-9.81944
-9.79116
-9.76358
-9.73855
-9.71854
-9.70684
-9.70734
-9.72485
-9.7633
-9.8275
-9.92377
-9.93124
-9.94692
-9.96145
-9.97415
-9.98594
-9.996
-10.004
-10.0101
-10.0144
-10.0167
-10.0171
-10.0155
-10.0119
-10.0063
-9.99861
-9.98877
-9.9768
-9.96271
-9.94658
-9.92858
-9.909
-9.88828
-9.8671
-9.84641
-9.82751
-9.81215
-9.80256
-9.80146
-9.81188
-9.8372
-9.87983
-9.94215
-9.9424
-9.94806
-9.96087
-9.97357
-9.98488
-9.99542
-10.0046
-10.0122
-10.0182
-10.0225
-10.0252
-10.0263
-10.0256
-10.0232
-10.019
-10.0131
-10.0054
-9.99594
-9.98487
-9.97231
-9.9585
-9.94381
-9.92876
-9.91408
-9.90074
-9.89
-9.88346
-9.88302
-9.89089
-9.90935
-9.94067
-9.98623
-10.047
-9.96014
-9.96455
-9.97515
-9.98646
-9.99695
-10.0069
-10.016
-10.0236
-10.0298
-10.0347
-10.038
-10.0398
-10.0401
-10.039
-10.0363
-10.0321
-10.0265
-10.0195
-10.0114
-10.0023
-9.99244
-9.98236
-9.9726
-9.9639
-9.9572
-9.95369
-9.95476
-9.96201
-9.97718
-10.0019
-10.0378
-10.0854
-10.145
-9.97718
-9.98071
-9.98956
-9.99954
-10.0091
-10.0183
-10.0268
-10.0341
-10.0404
-10.0454
-10.0492
-10.0517
-10.053
-10.053
-10.0518
-10.0495
-10.0461
-10.0417
-10.0366
-10.0309
-10.0252
-10.0197
-10.0151
-10.0121
-10.0117
-10.0148
-10.0227
-10.0366
-10.058
-10.088
-10.1276
-10.1771
-10.2364
-9.99367
-9.99657
-10.0041
-10.0129
-10.0217
-10.0304
-10.0387
-10.0461
-10.0526
-10.0581
-10.0626
-10.0661
-10.0685
-10.0699
-10.0704
-10.07
-10.0688
-10.067
-10.0649
-10.0627
-10.0608
-10.0596
-10.0598
-10.0621
-10.0672
-10.0761
-10.0899
-10.1095
-10.136
-10.1703
-10.213
-10.2641
-10.3234
-10.0097
-10.0122
-10.0186
-10.0265
-10.0347
-10.0429
-10.0508
-10.0582
-10.0649
-10.0707
-10.0758
-10.0801
-10.0835
-10.0863
-10.0883
-10.0897
-10.0908
-10.0916
-10.0923
-10.0935
-10.0953
-10.0983
-10.103
-10.1101
-10.1203
-10.1345
-10.1534
-10.178
-10.2089
-10.2469
-10.2922
-10.3449
-10.4049
-10.0254
-10.0275
-10.0332
-10.0403
-10.048
-10.0558
-10.0636
-10.071
-10.078
-10.0844
-10.0903
-10.0955
-10.1001
-10.1043
-10.108
-10.1114
-10.1147
-10.1181
-10.1217
-10.1261
-10.1314
-10.1383
-10.1472
-10.1586
-10.1734
-10.1921
-10.2155
-10.2442
-10.2789
-10.3199
-10.3676
-10.4218
-10.4826
-10.0408
-10.0427
-10.0477
-10.0543
-10.0615
-10.069
-10.0767
-10.0842
-10.0915
-10.0984
-10.1049
-10.111
-10.1168
-10.1223
-10.1277
-10.1329
-10.1384
-10.1442
-10.1506
-10.1579
-10.1666
-10.177
-10.1897
-10.2051
-10.2239
-10.2466
-10.2739
-10.3062
-10.344
-10.3876
-10.4373
-10.493
-10.5547
-10.056
-10.0577
-10.0622
-10.0683
-10.0752
-10.0825
-10.0902
-10.0979
-10.1055
-10.113
-10.1203
-10.1274
-10.1344
-10.1413
-10.1483
-10.1555
-10.1631
-10.1712
-10.1803
-10.1905
-10.2023
-10.216
-10.2321
-10.2511
-10.2734
-10.2996
-10.3301
-10.3654
-10.4059
-10.4517
-10.503
-10.5598
-10.6223
-10.0709
-10.0724
-10.0766
-10.0824
-10.089
-10.0963
-10.104
-10.1119
-10.1199
-10.128
-10.136
-10.1441
-10.1522
-10.1605
-10.1691
-10.178
-10.1876
-10.198
-10.2095
-10.2223
-10.2369
-10.2536
-10.2728
-10.2949
-10.3203
-10.3494
-10.3827
-10.4205
-10.4631
-10.5106
-10.5633
-10.621
-10.684
-10.0856
-10.087
-10.091
-10.0965
-10.103
-10.1102
-10.118
-10.1262
-10.1346
-10.1433
-10.1521
-10.1612
-10.1705
-10.1801
-10.1902
-10.201
-10.2125
-10.225
-10.2388
-10.2541
-10.2712
-10.2906
-10.3124
-10.3372
-10.3653
-10.3969
-10.4325
-10.4722
-10.5165
-10.5653
-10.6189
-10.6772
-10.7404
-10.1
-10.1014
-10.1052
-10.1106
-10.117
-10.1242
-10.1322
-10.1407
-10.1496
-10.1589
-10.1685
-10.1785
-10.1889
-10.1999
-10.2115
-10.2238
-10.2371
-10.2516
-10.2674
-10.2849
-10.3044
-10.3261
-10.3503
-10.3773
-10.4075
-10.4412
-10.4786
-10.5199
-10.5654
-10.6151
-10.6692
-10.7276
-10.7906
-10.1142
-10.1156
-10.1193
-10.1246
-10.131
-10.1383
-10.1465
-10.1553
-10.1647
-10.1746
-10.185
-10.196
-10.2075
-10.2197
-10.2327
-10.2465
-10.2615
-10.2778
-10.2955
-10.315
-10.3364
-10.3601
-10.3863
-10.4152
-10.4472
-10.4825
-10.5212
-10.5636
-10.6098
-10.66
-10.7141
-10.7723
-10.8347
-10.1282
-10.1295
-10.1332
-10.1384
-10.1449
-10.1524
-10.1608
-10.17
-10.1799
-10.1904
-10.2016
-10.2135
-10.2261
-10.2395
-10.2537
-10.2691
-10.2856
-10.3034
-10.3228
-10.344
-10.3672
-10.3926
-10.4204
-10.4509
-10.4842
-10.5207
-10.5603
-10.6034
-10.65
-10.7001
-10.7539
-10.8114
-10.8727
-10.1418
-10.1431
-10.1468
-10.1521
-10.1586
-10.1663
-10.175
-10.1846
-10.195
-10.2062
-10.2181
-10.2309
-10.2444
-10.2589
-10.2743
-10.2909
-10.3088
-10.3281
-10.3489
-10.3716
-10.3962
-10.4229
-10.452
-10.4837
-10.518
-10.5552
-10.5953
-10.6386
-10.6851
-10.7348
-10.7878
-10.8442
-10.9039
-10.155
-10.1564
-10.1601
-10.1655
-10.1722
-10.1801
-10.1891
-10.1991
-10.2101
-10.2219
-10.2346
-10.2482
-10.2627
-10.2782
-10.2947
-10.3125
-10.3316
-10.3521
-10.3742
-10.3981
-10.4239
-10.4518
-10.4818
-10.5143
-10.5493
-10.5869
-10.6272
-10.6703
-10.7163
-10.7653
-10.8171
-10.8719
-10.9297
-10.1678
-10.1692
-10.173
-10.1785
-10.1854
-10.1935
-10.2029
-10.2133
-10.2248
-10.2372
-10.2505
-10.2648
-10.2802
-10.2966
-10.3141
-10.3328
-10.3529
-10.3745
-10.3976
-10.4224
-10.4491
-10.4777
-10.5085
-10.5414
-10.5766
-10.6142
-10.6543
-10.6969
-10.742
-10.7897
-10.84
-10.8928
-10.9482
-10.1802
-10.1816
-10.1855
-10.1912
-10.1983
-10.2067
-10.2165
-10.2274
-10.2394
-10.2524
-10.2664
-10.2815
-10.2977
-10.3149
-10.3333
-10.353
-10.374
-10.3965
-10.4204
-10.446
-10.4734
-10.5026
-10.5337
-10.5668
-10.602
-10.6394
-10.6789
-10.7207
-10.7646
-10.8108
-10.8592
-10.9098
-10.9625
-10.1919
-10.1933
-10.1974
-10.2032
-10.2105
-10.2193
-10.2293
-10.2406
-10.2531
-10.2666
-10.2812
-10.2969
-10.3137
-10.3316
-10.3507
-10.3711
-10.3928
-10.4159
-10.4404
-10.4665
-10.4942
-10.5236
-10.5548
-10.5878
-10.6227
-10.6594
-10.6981
-10.7386
-10.7811
-10.8254
-10.8716
-10.9195
-10.9693
-10.2029
-10.2044
-10.2087
-10.2148
-10.2224
-10.2316
-10.2421
-10.2539
-10.2669
-10.281
-10.2963
-10.3127
-10.3301
-10.3487
-10.3685
-10.3896
-10.4119
-10.4355
-10.4605
-10.4869
-10.5149
-10.5444
-10.5754
-10.6081
-10.6424
-10.6783
-10.7159
-10.7551
-10.7959
-10.8382
-10.882
-10.9272
-10.9738
-10.2131
-10.2147
-10.219
-10.2253
-10.2332
-10.2426
-10.2534
-10.2655
-10.2789
-10.2934
-10.3091
-10.3259
-10.3439
-10.363
-10.3833
-10.4047
-10.4274
-10.4513
-10.4765
-10.5031
-10.531
-10.5603
-10.5909
-10.623
-10.6564
-10.6913
-10.7275
-10.765
-10.8037
-10.8437
-10.8849
-10.9271
-10.9703
-10.2224
-10.2241
-10.2288
-10.2356
-10.2439
-10.2539
-10.2653
-10.278
-10.292
-10.3071
-10.3233
-10.3407
-10.3592
-10.3788
-10.3995
-10.4213
-10.4443
-10.4685
-10.4938
-10.5204
-10.5481
-10.5771
-10.6072
-10.6386
-10.6711
-10.7048
-10.7395
-10.7753
-10.8121
-10.8497
-10.8882
-10.9274
-10.9673
-10.2304
-10.2321
-10.2368
-10.2437
-10.2522
-10.2624
-10.274
-10.287
-10.3013
-10.3167
-10.3334
-10.3511
-10.3699
-10.3898
-10.4108
-10.4329
-10.4561
-10.4803
-10.5056
-10.5319
-10.5593
-10.5877
-10.6172
-10.6476
-10.6789
-10.7111
-10.7441
-10.7779
-10.8124
-10.8475
-10.8831
-10.9192
-10.9556
-10.2374
-10.2396
-10.2451
-10.2528
-10.2621
-10.273
-10.2854
-10.299
-10.3138
-10.3297
-10.3467
-10.3648
-10.384
-10.4042
-10.4254
-10.4476
-10.4708
-10.495
-10.5201
-10.5462
-10.5732
-10.6011
-10.6297
-10.6592
-10.6894
-10.7203
-10.7517
-10.7837
-10.8161
-10.8489
-10.8818
-10.9149
-10.948
-10.2421
-10.2438
-10.2491
-10.2569
-10.2663
-10.2774
-10.2901
-10.3041
-10.3193
-10.3357
-10.3531
-10.3716
-10.3911
-10.4116
-10.433
-10.4553
-10.4785
-10.5026
-10.5275
-10.5532
-10.5796
-10.6068
-10.6345
-10.6628
-10.6916
-10.7208
-10.7504
-10.7802
-10.8102
-10.8403
-10.8704
-10.9004
-10.9302
-10.2467
-10.2498
-10.2568
-10.2659
-10.2764
-10.2883
-10.3016
-10.316
-10.3314
-10.3479
-10.3656
-10.3842
-10.4037
-10.4242
-10.4456
-10.4679
-10.491
-10.5148
-10.5394
-10.5647
-10.5906
-10.6171
-10.6441
-10.6715
-10.6992
-10.7272
-10.7553
-10.7836
-10.8118
-10.8398
-10.8676
-10.8949
-10.9216
-10.2444
-10.2464
-10.2534
-10.2629
-10.2739
-10.2866
-10.3011
-10.3165
-10.3327
-10.3499
-10.368
-10.3871
-10.4071
-10.4279
-10.4495
-10.4719
-10.495
-10.5186
-10.5429
-10.5677
-10.5929
-10.6185
-10.6444
-10.6705
-10.6967
-10.7229
-10.7491
-10.7751
-10.8009
-10.8264
-10.8516
-10.8761
-10.8999
-10.2482
-10.2546
-10.2645
-10.275
-10.2865
-10.2993
-10.3127
-10.3275
-10.3436
-10.3607
-10.3788
-10.3977
-10.4174
-10.4378
-10.4593
-10.4815
-10.5043
-10.5278
-10.5518
-10.5763
-10.6011
-10.6263
-10.6518
-10.6774
-10.7029
-10.7286
-10.7537
-10.7788
-10.8034
-10.8275
-10.8506
-10.8733
-10.8951
-10.2292
-10.2343
-10.2477
-10.2612
-10.2752
-10.2905
-10.3066
-10.3234
-10.341
-10.3592
-10.378
-10.3976
-10.4181
-10.4393
-10.4609
-10.483
-10.5056
-10.5288
-10.5523
-10.5761
-10.6001
-10.6242
-10.6484
-10.6725
-10.6964
-10.72
-10.7435
-10.7663
-10.7886
-10.8101
-10.831
-10.851
-10.8701
-10.2433
-10.2539
-10.2661
-10.2768
-10.2893
-10.3029
-10.3173
-10.3326
-10.349
-10.3664
-10.3848
-10.404
-10.4241
-10.4448
-10.4663
-10.4884
-10.5111
-10.5343
-10.558
-10.5819
-10.6062
-10.6306
-10.655
-10.6794
-10.7036
-10.7276
-10.7511
-10.7741
-10.7965
-10.818
-10.8387
-10.8583
-10.8769
-10.146
-10.2136
-10.2407
-10.256
-10.2752
-10.294
-10.3114
-10.329
-10.3471
-10.3656
-10.3847
-10.4044
-10.4246
-10.4454
-10.4667
-10.4885
-10.5107
-10.5332
-10.5559
-10.5788
-10.6017
-10.6247
-10.6474
-10.6699
-10.6921
-10.7137
-10.7348
-10.7551
-10.7747
-10.7933
-10.8108
-10.8272
-10.8423
-7.40753
-9.10185
-10.9412
-11.9985
-12.4277
-12.4986
-10.7159
-7.13706
-3.31558
-1.51821
-3.01662
-6.581
-11.2226
-16.4605
-21.8362
-27.0496
-31.988
-36.6184
-40.8503
-44.4676
-47.1506
-48.5678
-48.4508
-46.772
-43.7613
-39.7971
-35.2357
-30.3679
-25.4976
-20.9464
-16.924
-13.4909
-10.6153
-8.23388
-6.28162
-4.69758
-3.42519
-2.41325
-1.61674
-0.996848
-0.52055
-0.160104
0.107591
0.301568
0.437423
0.527896
0.583281
0.611837
0.620172
0.613546
0.596123
0.571181
0.541286
0.508424
0.474133
0.439602
0.405762
0.373338
0.342865
0.314676
0.288893
0.265448
0.244145
0.224739
0.207017
0.190818
0.176034
0.162583
0.150381
0.139337
0.129349
0.120319
0.112148
0.104748
0.0980343
0.091926
0.0863447
0.0812155
0.0764674
0.0720363
0.0678644
0.0639019
0.0601058
0.0564402
0.0528751
0.0493859
0.0459522
0.042558
0.0391891
0.0358363
0.0324868
0.0291412
0.0257761
0.022421
0.0189987
0.0156537
0.0120766
0.008889
0.00481161
0.00246374
-8.09578
-9.41121
-10.9123
-11.8156
-12.0702
-11.7521
-10.1016
-7.05347
-4.04468
-2.69778
-3.63654
-6.75008
-11.1808
-16.0714
-21.0531
-25.9489
-30.6317
-35.0111
-38.9683
-42.2998
-44.7266
-45.9686
-45.8161
-44.2769
-41.5535
-37.9338
-33.6981
-29.1313
-24.5713
-20.3301
-16.5756
-13.3457
-10.6112
-8.32312
-6.43013
-4.88097
-3.62607
-2.61949
-1.82014
-1.19208
-0.704387
-0.330801
-0.0492525
0.158616
0.307936
0.411134
0.478368
0.517843
0.536152
0.538581
0.52934
0.511768
0.488489
0.461555
0.432561
0.402749
0.3731
0.344389
0.317199
0.291918
0.26872
0.247583
0.228345
0.210789
0.194718
0.179988
0.16651
0.154217
0.143044
0.132916
0.123743
0.115437
0.10791
0.10108
0.0948701
0.0892054
0.0840136
0.0792252
0.0747745
0.0706015
0.066653
0.0628826
0.0592512
0.0557261
0.0522804
0.048892
0.0455435
0.0422207
0.0389118
0.0356091
0.0323017
0.028991
0.0256557
0.0223246
0.0189251
0.0155949
0.0120405
0.00885316
0.00481866
0.00242085
-8.73096
-9.54943
-10.6091
-11.2981
-11.4835
-11.1939
-9.91656
-7.65527
-5.39026
-4.22704
-5.01496
-7.6525
-11.4857
-15.9233
-20.5098
-25.0105
-29.3312
-33.3832
-37.0309
-40.0725
-42.2493
-43.3365
-43.1963
-41.8356
-39.3912
-36.0689
-32.1195
-27.8564
-23.6329
-19.715
-16.2272
-13.1942
-10.5966
-8.40121
-6.56877
-5.05647
-3.82112
-2.8218
-2.02124
-1.38637
-0.888355
-0.502441
-0.207632
0.0137018
0.176226
0.292035
0.371078
0.421491
0.449847
0.461437
0.460506
0.450441
0.433924
0.413063
0.389509
0.364556
0.339231
0.314357
0.290565
0.268297
0.247777
0.22903
0.211932
0.196292
0.181933
0.168729
0.156607
0.145518
0.135416
0.126239
0.117914
0.110362
0.103504
0.0972676
0.0915813
0.0863782
0.0815917
0.0771581
0.0730167
0.0691124
0.0653959
0.0618254
0.0583651
0.0549859
0.0516639
0.0483803
0.04512
0.0418714
0.0386246
0.035374
0.0321101
0.0288356
0.0255313
0.0222252
0.0188491
0.0155344
0.0120035
0.00881636
0.00482606
0.00237732
-9.05559
-9.63094
-10.3997
-10.9102
-11.0036
-10.6705
-9.66417
-8.03777
-6.50549
-5.85809
-6.60058
-8.77149
-12.0368
-15.9484
-20.1037
-24.2334
-28.1874
-31.8704
-35.1641
-37.8919
-39.8399
-40.8275
-40.731
-39.5238
-37.2819
-34.184
-30.5028
-26.5742
-22.7107
-19.1152
-15.8814
-13.0347
-10.57
-8.46738
-6.69702
-5.22353
-4.00976
-3.01961
-2.21953
-1.57925
-1.07204
-0.674676
-0.367255
-0.13292
0.0424824
0.170725
0.26152
0.322869
0.361316
0.382154
0.389645
0.387215
0.377595
0.362945
0.344969
0.325008
0.304137
0.283221
0.262942
0.243789
0.226041
0.209769
0.194886
0.181232
0.168649
0.157028
0.146313
0.136475
0.127485
0.119297
0.111852
0.105083
0.0989217
0.0933018
0.0881609
0.0834384
0.0790742
0.0750101
0.0711909
0.0675662
0.0640915
0.0607287
0.0574464
0.0542187
0.0510253
0.0478504
0.0446815
0.0415097
0.0383273
0.0351304
0.0319115
0.0286745
0.0254021
0.0221218
0.0187701
0.0154712
0.0119646
0.00877766
0.0048327
0.0023323
-9.32571
-9.74826
-10.3043
-10.6816
-10.735
-10.4448
-9.69015
-8.53736
-7.4821
-7.11796
-7.84187
-9.71372
-12.5258
-15.9667
-19.7119
-23.4928
-27.1302
-30.5001
-33.4808
-35.9322
-37.687
-38.5703
-38.4464
-37.2813
-35.153
-32.2598
-28.8839
-25.3248
-21.8231
-18.5336
-15.5369
-12.8673
-10.5323
-8.52208
-6.81486
-5.38185
-4.19155
-3.21243
-2.4145
-1.77025
-1.25502
-0.847132
-0.527804
-0.280977
-0.0930544
0.0473773
0.14981
0.22208
0.270645
0.300793
0.316801
0.322121
0.319523
0.311216
0.298949
0.284112
0.267821
0.250985
0.234331
0.218399
0.203516
0.189802
0.17721
0.16561
0.154864
0.144884
0.135628
0.127088
0.119251
0.11209
0.105559
0.0996032
0.0941643
0.0891854
0.0846113
0.0803884
0.0764631
0.0727832
0.0692988
0.0659647
0.062741
0.059594
0.0564961
0.0534256
0.0503655
0.0473031
0.044229
0.0411367
0.0380208
0.0348795
0.0317073
0.028509
0.0252697
0.022016
0.0186894
0.0154069
0.0119256
0.00873863
0.00484023
0.00228702
-9.51879
-9.83447
-10.24
-10.5228
-10.5577
-10.3169
-9.74859
-8.93174
-8.23002
-8.08965
-8.82026
-10.4795
-12.9225
-15.9222
-19.2425
-22.6639
-25.9997
-29.0991
-31.8263
-34.0422
-35.5886
-36.3109
-36.1018
-34.9552
-32.9714
-30.3468
-27.3262
-24.1422
-20.9801
-17.9702
-15.1931
-12.692
-10.4836
-8.56539
-6.92212
-5.5311
-4.36606
-3.39977
-2.60567
-1.95891
-1.43687
-1.01943
-0.688955
-0.430199
-0.23015
-0.0777985
0.0360958
0.119218
0.177918
0.217425
0.242023
0.255193
0.259734
0.257891
0.251459
0.24187
0.230281
0.217643
0.204726
0.192116
0.180192
0.16912
0.158895
0.149417
0.140572
0.132289
0.124546
0.11735
0.110708
0.104611
0.0990279
0.093916
0.0892272
0.0849138
0.0809284
0.0772246
0.0737554
0.0704748
0.0673384
0.0643062
0.0613431
0.0584199
0.0555135
0.0526058
0.0496836
0.0467375
0.0437612
0.040751
0.0377037
0.0346197
0.0314956
0.0283371
0.0251318
0.0219056
0.018605
0.0153393
0.011884
0.00869703
0.00484659
0.0022395
-9.68006
-9.92331
-10.2234
-10.437
-10.4659
-10.2863
-9.8865
-9.34518
-8.92466
-8.95258
-9.66926
-11.1373
-13.2603
-15.8674
-18.7698
-21.7901
-24.7691
-27.5588
-30.0145
-31.9775
-33.3058
-33.8919
-33.6598
-32.6161
-30.8571
-28.5481
-25.8811
-23.0391
-20.1791
-17.4219
-14.8495
-12.5099
-10.4249
-8.59772
-7.01883
-5.67107
-4.53295
-3.58123
-2.79259
-2.14477
-1.61717
-1.1912
-0.850369
-0.580293
-0.368562
-0.204591
-0.0794314
0.0144234
0.0832206
0.132124
0.165383
0.186484
0.198262
0.202997
0.202519
0.198298
0.19153
0.183204
0.174132
0.164947
0.156074
0.147728
0.139944
0.132656
0.125774
0.119245
0.113065
0.10726
0.101857
0.0968621
0.0922608
0.0880233
0.0841121
0.0804887
0.0771141
0.0739491
0.0709533
0.0680871
0.0653117
0.0625927
0.0598997
0.0572086
0.0545003
0.0517612
0.0489816
0.0461559
0.0432807
0.0403551
0.0373788
0.034354
0.0312794
0.0281621
0.0249919
0.0217939
0.01852
0.0152716
0.0118432
0.00865598
0.00485476
0.00219211
-9.81208
-10.0042
-10.2311
-10.3975
-10.4311
-10.3137
-10.0526
-9.72116
-9.51295
-9.67056
-10.3772
-11.6921
-13.5516
-15.8241
-18.3559
-20.9954
-23.6028
-26.0465
-28.1932
-29.9058
-31.0665
-31.5725
-31.3691
-30.4648
-28.9375
-26.9161
-24.5538
-22.0062
-19.4134
-16.8875
-14.5075
-12.3223
-10.357
-8.61938
-7.10503
-5.80159
-4.69189
-3.75638
-2.97481
-2.3274
-1.7955
-1.36204
-1.0117
-0.730959
-0.508032
-0.332787
-0.196587
-0.0921366
-0.0133167
0.0449705
0.0869374
0.116054
0.13516
0.14657
0.152153
0.153412
0.151579
0.147677
0.142557
0.136894
0.131162
0.125624
0.120356
0.115325
0.110467
0.105749
0.101184
0.0968182
0.0926951
0.0888404
0.0852552
0.0819227
0.0788168
0.0759084
0.0731668
0.0705602
0.0680555
0.0656189
0.0632179
0.0608233
0.0584101
0.055959
0.0534556
0.0508904
0.0482579
0.0455561
0.0427849
0.0399464
0.0370428
0.0340787
0.0310549
0.0279797
0.0248456
0.0216766
0.0184302
0.0151995
0.0117989
0.00861142
0.00486106
0.00214151
-9.92894
-10.086
-10.2646
-10.4018
-10.4469
-10.3878
-10.2412
-10.0727
-10.0259
-10.2793
-10.9722
-12.1563
-13.7921
-15.7797
-17.9934
-20.3025
-22.582
-24.7133
-26.5811
-28.0755
-29.0867
-29.5223
-29.3421
-28.5528
-27.2135
-25.4269
-23.3216
-21.0317
-18.6801
-16.3679
-14.1685
-12.1303
-10.2806
-8.63081
-7.18088
-5.9226
-4.84266
-3.9249
-3.15194
-2.50637
-1.97144
-1.53158
-1.17261
-0.881888
-0.64829
-0.462154
-0.315178
-0.200297
-0.111541
-0.0439091
0.00677246
0.0439538
0.0704729
0.0886592
0.100404
0.107246
0.110452
0.111078
0.110011
0.107969
0.10547
0.10282
0.100139
0.0974309
0.0946574
0.091805
0.0889065
0.0860253
0.0832247
0.0805483
0.0780132
0.0756164
0.0733435
0.0711751
0.0690889
0.0670608
0.0650646
0.0630731
0.0610598
0.0590011
0.0568775
0.0546745
0.0523828
0.0499972
0.0475166
0.0449425
0.0422785
0.0395297
0.0367012
0.0337995
0.030828
0.0277962
0.0246991
0.0215598
0.0183417
0.015129
0.0117567
0.00856874
0.00487048
0.00209174
-10.0343
-10.1675
-10.3149
-10.4355
-10.4953
-10.4884
-10.4346
-10.3905
-10.4634
-10.7848
-11.46
-12.5319
-13.9756
-15.7163
-17.6529
-19.6743
-21.6702
-23.5336
-25.1624
-26.4571
-27.3251
-27.6927
-27.5245
-26.824
-25.6379
-24.0511
-22.1712
-20.1119
-17.9798
-15.8645
-13.8339
-11.935
-10.1964
-8.6325
-7.24659
-6.03408
-4.98507
-4.08648
-3.32362
-2.6813
-2.14461
-1.69943
-1.33274
-1.03276
-0.789057
-0.592449
-0.434996
-0.309881
-0.211307
-0.134379
-0.0749912
-0.0297235
0.00426426
0.029305
0.0473048
0.0598317
0.0681794
0.0734361
0.0765232
0.0781929
0.0790055
0.0793196
0.0793006
0.0789805
0.0783499
0.0774179
0.0762352
0.0748842
0.0734474
0.0719867
0.0705358
0.0691055
0.0676931
0.0662894
0.0648808
0.0634511
0.061981
0.0604498
0.0588372
0.0571256
0.0553008
0.0533537
0.0512799
0.0490791
0.0467542
0.0443111
0.0417568
0.0390997
0.0363477
0.0335098
0.0305917
0.0276041
0.0245448
0.0214359
0.0182467
0.0150526
0.0117097
0.00852113
0.00487689
0.00203745
-10.1325
-10.2502
-10.3788
-10.492
-10.5685
-10.6066
-10.6269
-10.6765
-10.8363
-11.2031
-11.8558
-12.829
-14.1065
-15.6316
-17.3229
-19.0875
-20.8293
-22.4534
-23.8676
-24.9846
-25.7273
-26.0337
-25.8723
-25.2454
-24.1913
-22.7795
-21.099
-19.2461
-17.3127
-15.378
-13.5045
-11.7372
-10.1053
-8.62501
-7.30248
-6.1361
-5.119
-4.24089
-3.48952
-2.85182
-2.31463
-1.86523
-1.49173
-1.18327
-0.930047
-0.72342
-0.55582
-0.4207
-0.312452
-0.226307
-0.158236
-0.104864
-0.0633698
-0.0314193
-0.00708634
0.0112152
0.0248005
0.0347854
0.0421182
0.0475851
0.0517904
0.0551403
0.0578497
0.0599844
0.0615548
0.0625949
0.063177
0.0634011
0.0633689
0.0631609
0.0628275
0.0623939
0.0618696
0.0612555
0.0605469
0.0597355
0.0588091
0.0577537
0.0565552
0.0552019
0.0536856
0.0520025
0.0501533
0.0481426
0.0459781
0.0436697
0.0412282
0.0386653
0.0359919
0.0332195
0.0303561
0.0274138
0.0243932
0.0213152
0.0181555
0.0149801
0.011667
0.00847739
0.0048883
0.00198517
-10.2259
-10.3339
-10.4519
-10.5636
-10.6564
-10.7322
-10.8101
-10.9291
-11.1501
-11.5444
-12.1707
-13.0557
-14.1885
-15.5254
-17.0008
-18.5369
-20.051
-21.4599
-22.6824
-23.6431
-24.2749
-24.5257
-24.3683
-23.8044
-22.8647
-21.6055
-20.1009
-18.432
-16.6779
-14.9087
-13.1812
-11.538
-10.0081
-8.60897
-7.34891
-6.22882
-5.24443
-4.38795
-3.64939
-3.01762
-2.48115
-2.02862
-1.64926
-1.33308
-1.07097
-0.854805
-0.677418
-0.532551
-0.4148
-0.319539
-0.242834
-0.181363
-0.132335
-0.0934212
-0.0626909
-0.0385423
-0.0196386
-0.00484243
0.00682095
0.0161708
0.023851
0.0303099
0.0358069
0.0404534
0.0442852
0.0473492
0.049741
0.0515829
0.0529949
0.054076
0.0548932
0.0554859
0.0558764
0.0560761
0.0560894
0.0559156
0.0555501
0.0549853
0.0542136
0.0532294
0.0520302
0.050618
0.048999
0.047183
0.0451822
0.043011
0.0406842
0.038217
0.0356233
0.0329171
0.0301092
0.0272128
0.0242316
0.0211852
0.0180557
0.0148995
0.0116172
0.00842663
0.00489497
0.00192658
-10.3147
-10.4173
-10.5305
-10.6443
-10.7524
-10.8588
-10.9806
-11.1495
-11.4115
-11.8191
-12.4152
-13.2203
-14.2261
-15.3985
-16.6842
-18.0185
-19.3304
-20.5478
-21.6001
-22.4216
-22.9544
-23.1549
-22.9999
-22.4895
-21.6481
-20.5219
-19.1721
-17.667
-16.0748
-14.457
-12.8649
-11.3384
-9.90566
-8.58507
-7.38633
-6.31244
-5.36138
-4.52755
-3.803
-3.17841
-2.64384
-2.18927
-1.80499
-1.48188
-1.21152
-0.986333
-0.799549
-0.645219
-0.518163
-0.413912
-0.328641
-0.259095
-0.202523
-0.156614
-0.119435
-0.0893738
-0.0650785
-0.0453931
-0.0293201
-0.0160104
-0.00478242
0.00485495
0.0132017
0.0204099
0.0265514
0.0316922
0.0359415
0.0394422
0.0423359
0.0447404
0.04674
0.0483887
0.0497208
0.0507585
0.0515154
0.051999
0.0522117
0.0521527
0.0518209
0.0512167
0.0503439
0.0492104
0.0478279
0.0462115
0.0443787
0.0423481
0.0401388
0.0377695
0.0352573
0.0326189
0.0298676
0.0270181
0.0240768
0.0210624
0.0179634
0.0148263
0.011575
0.00838262
0.00490926
0.00187177
-10.4005
-10.5005
-10.6121
-10.7297
-10.851
-10.9812
-11.1353
-11.3385
-11.6257
-12.0353
-12.5986
-13.3303
-14.2238
-15.2518
-16.371
-17.5272
-18.6603
-19.7081
-20.6093
-21.3073
-21.7526
-21.9082
-21.7536
-21.2883
-20.5316
-19.5213
-18.3078
-16.9489
-15.5027
-14.0231
-12.5564
-11.1392
-9.79896
-8.55402
-7.41524
-6.38727
-5.46997
-4.65965
-3.9502
-3.33395
-2.80244
-2.34687
-1.95861
-1.62936
-1.35142
-1.11773
-0.921964
-0.75848
-0.622339
-0.509247
-0.415499
-0.337922
-0.273815
-0.22089
-0.177223
-0.141198
-0.111451
-0.0868099
-0.0662566
-0.0489153
-0.0340698
-0.02119
-0.00993414
-0.000112529
0.00838076
0.0156402
0.0217906
0.0269906
0.0314034
0.0351661
0.0383786
0.0411101
0.0434089
0.0453077
0.0468288
0.0479883
0.0487954
0.0492562
0.0493759
0.0491614
0.0486228
0.0477739
0.0466324
0.0452191
0.0435565
0.0416682
0.0395775
0.0373068
0.0348767
0.0323064
0.0296121
0.0268098
0.0239089
0.0209269
0.0178591
0.0147417
0.0115226
0.00832862
0.00491631
0.00180821
-10.4818
-10.5811
-10.6931
-10.8152
-10.9473
-11.0954
-11.272
-11.4974
-11.7976
-12.2007
-12.7291
-13.393
-14.1865
-15.0875
-16.0603
-17.0599
-18.0352
-18.933
-19.7008
-20.2897
-20.6575
-20.7725
-20.6172
-20.1901
-19.5066
-18.5973
-17.5041
-16.2753
-14.9606
-13.6072
-12.2563
-10.9415
-9.68886
-8.51658
-7.43621
-6.45367
-5.57037
-4.78427
-4.09088
-3.48406
-2.95668
-2.50114
-2.1098
-1.77522
-1.49037
-1.24873
-1.04441
-0.872098
-0.727116
-0.605352
-0.503237
-0.417692
-0.346074
-0.28613
-0.235952
-0.193925
-0.158676
-0.129021
-0.103926
-0.0824901
-0.063966
-0.0477855
-0.0335675
-0.0210834
-0.0101936
-0.000778481
0.0073087
0.0142447
0.0202104
0.0253621
0.0298187
0.0336623
0.0369526
0.0397352
0.0420417
0.0438959
0.0453143
0.0463094
0.046893
0.0470787
0.0468827
0.0463254
0.0454306
0.0442248
0.042736
0.0409929
0.039023
0.0368527
0.0345061
0.0320051
0.0293685
0.0266139
0.0237538
0.0208042
0.0177676
0.0146693
0.0114821
0.00828538
0.00493438
0.00175105
-10.5598
-10.6593
-10.7724
-10.8984
-11.0388
-11.1991
-11.3903
-11.628
-11.9317
-12.3217
-12.8139
-13.4148
-14.1189
-14.9076
-15.7518
-16.6135
-17.45
-18.2157
-18.866
-19.3587
-19.658
-19.7369
-19.58
-19.1854
-18.5652
-17.7442
-16.757
-15.6441
-14.4479
-13.2094
-11.9652
-10.7461
-9.57624
-8.47353
-7.44987
-6.51208
-5.66284
-4.90151
-4.22502
-3.6286
-3.10636
-2.65183
-2.25832
-1.91919
-1.62808
-1.37905
-1.16662
-0.98583
-0.832268
-0.702021
-0.591669
-0.498236
-0.419149
-0.352201
-0.295502
-0.247446
-0.206658
-0.171944
-0.142255
-0.11667
-0.0944129
-0.0748799
-0.057652
-0.0424632
-0.0291389
-0.0175311
-0.00747266
0.00123108
0.00877896
0.0153459
0.0210715
0.0260541
0.0303611
0.0340479
0.0371583
0.0397239
0.0417681
0.04331
0.0443679
0.0449618
0.0451147
0.0448535
0.0442083
0.0432119
0.0418981
0.0403004
0.0384514
0.0363813
0.0341179
0.0316858
0.0291069
0.0264001
0.023581
0.0206643
0.0176595
0.0145811
0.0114272
0.00822809
0.00494119
0.00168259
-10.6326
-10.7327
-10.8471
-10.9763
-11.1221
-11.2902
-11.4894
-11.7318
-12.0318
-12.4041
-12.8595
-13.4018
-14.0254
-14.7149
-15.4458
-16.1866
-16.9011
-17.5509
-18.0977
-18.5059
-18.7449
-18.7917
-18.6326
-18.2656
-17.7002
-16.9564
-16.0627
-15.0531
-13.9636
-12.8297
-11.6838
-10.5537
-9.46199
-8.4257
-7.45688
-6.563
-5.7477
-5.01153
-4.35265
-3.76749
-3.25133
-2.79873
-2.40389
-2.06098
-1.7643
-1.50842
-1.28833
-1.09943
-0.937561
-0.799038
-0.680594
-0.579371
-0.492876
-0.418952
-0.35574
-0.301645
-0.255293
-0.215486
-0.181164
-0.151386
-0.125351
-0.102422
-0.0821437
-0.0642127
-0.0484202
-0.0345896
-0.022531
-0.0120307
-0.00287174
0.00513926
0.0121578
0.0183017
0.0236506
0.0282647
0.0321986
0.0354935
0.0381794
0.0402817
0.0418251
0.0428364
0.0433456
0.0433862
0.0429952
0.0422116
0.0410752
0.039625
0.0378983
0.0359296
0.0337501
0.0313876
0.0288666
0.0262074
0.0234291
0.0205448
0.0175712
0.0145116
0.0113902
0.00818701
0.00496326
0.00162477
-10.7007
-10.8013
-10.9166
-11.0475
-11.1964
-11.3681
-11.5698
-11.8108
-12.1019
-12.453
-12.8715
-13.359
-13.9101
-14.5116
-15.1428
-15.7774
-16.3849
-16.9331
-17.3894
-17.7235
-17.9095
-17.9277
-17.7663
-17.423
-16.9052
-16.229
-15.418
-14.5004
-13.5069
-12.4681
-11.4126
-10.3653
-9.34696
-8.37391
-7.45797
-6.60699
-5.82536
-5.11457
-4.47386
-3.90073
-3.39149
-2.94167
-2.54632
-2.20037
-1.89875
-1.63658
-1.40929
-1.21263
-1.04275
-0.89617
-0.769797
-0.660898
-0.56707
-0.486215
-0.416511
-0.35638
-0.304455
-0.259534
-0.220548
-0.186544
-0.156695
-0.130335
-0.106973
-0.0862709
-0.0679839
-0.0519057
-0.037823
-0.0255028
-0.0147104
-0.00523409
0.00309904
0.0104219
0.0168302
0.0223913
0.0271644
0.0312025
0.0345424
0.0372152
0.0392522
0.040687
0.0415565
0.0419013
0.0417655
0.0411947
0.0402351
0.0389312
0.0373256
0.0354568
0.0333602
0.0310662
0.0286025
0.0259908
0.0232534
0.0204018
0.0174603
0.0144203
0.011333
0.00812651
0.00496936
0.00155194
-10.7629
-10.8636
-10.9791
-11.1103
-11.2598
-11.4317
-11.6318
-11.867
-12.1451
-12.4729
-12.855
-13.2916
-13.7772
-14.3004
-14.8437
-15.3852
-15.8991
-16.3584
-16.7355
-17.0048
-17.1444
-17.1374
-16.9737
-16.6508
-16.1744
-15.5575
-14.8195
-13.9839
-13.0768
-12.1244
-11.1519
-10.1814
-9.23202
-8.31901
-7.45388
-6.64466
-5.89625
-5.21093
-4.58881
-4.02835
-3.52679
-3.08053
-2.68543
-2.33714
-2.0312
-1.76328
-1.52923
-1.32519
-1.14758
-0.993175
-0.859048
-0.742603
-0.641534
-0.553812
-0.477654
-0.411509
-0.354016
-0.303977
-0.260315
-0.222064
-0.188378
-0.158563
-0.132094
-0.108597
-0.087795
-0.0694497
-0.0533233
-0.0391628
-0.0267151
-0.0157512