/*--------------------------------*- C++ -*----------------------------------*\
  =========                 |
  \\      /  F ield         | OpenFOAM: The Open Source CFD Toolbox
   \\    /   O peration     | Website:  https://openfoam.org
    \\  /    A nd           | Version:  10
     \\/     M anipulation  |
\*---------------------------------------------------------------------------*/
FoamFile
{
    format      ascii;
    class       surfaceScalarField;
    location    "0.05";
    object      phi;
}
// * * * * * * * * * * * * * * * * * * * * * * * * * * * * * * * * * * * * * //

dimensions      [0 3 -1 0 0 0 0];

internalField   nonuniform List<scalar> 
13452
(
5.9452e-05
8.16492e-07
5.84687e-05
9.83271e-07
5.7443e-05
1.02566e-06
5.63877e-05
1.05538e-06
5.53309e-05
1.05671e-06
5.42844e-05
1.04653e-06
5.32516e-05
1.03279e-06
5.22345e-05
1.0171e-06
5.1234e-05
1.00049e-06
5.02503e-05
9.8371e-07
4.92832e-05
9.67149e-07
4.83321e-05
9.51063e-07
4.73965e-05
9.3566e-07
4.64753e-05
9.21129e-07
4.55677e-05
9.07672e-07
4.46721e-05
8.95521e-07
4.37872e-05
8.84966e-07
4.29108e-05
8.76374e-07
4.20406e-05
8.70215e-07
4.11735e-05
8.671e-07
4.03057e-05
8.67825e-07
3.94322e-05
8.73431e-07
3.85469e-05
8.85296e-07
3.76417e-05
9.05245e-07
3.67059e-05
9.35742e-07
3.57258e-05
9.80105e-07
3.46829e-05
1.04291e-06
3.35523e-05
1.13059e-06
3.23008e-05
1.2515e-06
3.08787e-05
1.42214e-06
2.92293e-05
1.64936e-06
2.7209e-05
2.02034e-06
2.47757e-06
2.47314e-05
6.249e-05
3.1681e-07
6.29652e-05
5.08086e-07
6.34119e-05
5.78996e-07
6.38206e-05
6.46642e-07
6.4184e-05
6.93364e-07
6.45016e-05
7.28841e-07
6.47751e-05
7.59317e-07
6.50067e-05
7.85543e-07
6.51989e-05
8.08284e-07
6.53542e-05
8.28387e-07
6.54749e-05
8.46429e-07
6.55631e-05
8.62873e-07
6.56206e-05
8.78156e-07
6.5649e-05
8.92705e-07
6.56498e-05
9.06957e-07
6.56239e-05
9.21396e-07
6.55723e-05
9.36576e-07
6.54955e-05
9.53156e-07
6.53938e-05
9.71947e-07
6.52669e-05
9.93959e-07
6.51142e-05
1.02048e-06
6.49345e-05
1.05318e-06
6.47256e-05
1.09423e-06
6.44843e-05
1.14652e-06
6.42061e-05
1.21395e-06
6.38844e-05
1.30175e-06
6.351e-05
1.41736e-06
6.30699e-05
1.57071e-06
6.25442e-05
1.77719e-06
6.19098e-05
2.05652e-06
6.11161e-05
2.44306e-06
6.01514e-05
2.98506e-06
3.72692e-06
5.8902e-05
6.38342e-05
2.44036e-07
6.3909e-05
4.33238e-07
6.39769e-05
5.11138e-07
6.40471e-05
5.76435e-07
6.41189e-05
6.21594e-07
6.41943e-05
6.53446e-07
6.42742e-05
6.79351e-07
6.43587e-05
7.01045e-07
6.44474e-05
7.19589e-07
6.45398e-05
7.3604e-07
6.46351e-05
7.51117e-07
6.47326e-05
7.65357e-07
6.48315e-05
7.79239e-07
6.4931e-05
7.93212e-07
6.50302e-05
8.07723e-07
6.51284e-05
8.23257e-07
6.52246e-05
8.40362e-07
6.53181e-05
8.5969e-07
6.5408e-05
8.82033e-07
6.54935e-05
9.08382e-07
6.5574e-05
9.39993e-07
6.56487e-05
9.78481e-07
6.5717e-05
1.02595e-06
6.57784e-05
1.08515e-06
6.58326e-05
1.15977e-06
6.58796e-05
1.25468e-06
6.59204e-05
1.37662e-06
6.59566e-05
1.5345e-06
6.59925e-05
1.74127e-06
6.6036e-05
2.01308e-06
6.61049e-05
2.37413e-06
6.62366e-05
2.8534e-06
3.45412e-06
6.65094e-05
6.56402e-05
1.86889e-07
6.56914e-05
3.82056e-07
6.57263e-05
4.76263e-07
6.57534e-05
5.49304e-07
6.57737e-05
6.01312e-07
6.57891e-05
6.38077e-07
6.5801e-05
6.67414e-07
6.58102e-05
6.91791e-07
6.58174e-05
7.12457e-07
6.58228e-05
7.30619e-07
6.58268e-05
7.47145e-07
6.58294e-05
7.62683e-07
6.58309e-05
7.77803e-07
6.58311e-05
7.93036e-07
6.58299e-05
8.08907e-07
6.58272e-05
8.25974e-07
6.58227e-05
8.44854e-07
6.58161e-05
8.66261e-07
6.58071e-05
8.91045e-07
6.57952e-05
9.20242e-07
6.57801e-05
9.55133e-07
6.57612e-05
9.97323e-07
6.57383e-05
1.04884e-06
6.57112e-05
1.11228e-06
6.568e-05
1.19097e-06
6.56455e-05
1.28917e-06
6.56097e-05
1.41242e-06
6.55765e-05
1.56773e-06
6.55538e-05
1.76395e-06
6.55548e-05
2.01207e-06
6.56072e-05
2.32173e-06
6.57511e-05
2.70947e-06
3.14355e-06
6.60617e-05
6.74901e-05
1.53555e-07
6.75302e-05
3.42012e-07
6.7563e-05
4.43395e-07
6.75927e-05
5.19681e-07
6.76175e-05
5.76424e-07
6.76376e-05
6.18021e-07
6.76536e-05
6.51418e-07
6.7666e-05
6.79423e-07
6.7675e-05
7.03429e-07
6.76809e-05
7.24729e-07
6.76837e-05
7.44301e-07
6.76835e-05
7.62879e-07
6.76802e-05
7.81102e-07
6.76737e-05
7.99565e-07
6.76638e-05
8.18853e-07
6.76501e-05
8.39581e-07
6.76326e-05
8.62423e-07
6.76107e-05
8.88146e-07
6.75841e-05
9.1765e-07
6.75523e-05
9.52011e-07
6.75149e-05
9.92536e-07
6.74714e-05
1.04083e-06
6.74214e-05
1.09885e-06
6.73646e-05
1.16907e-06
6.73011e-05
1.25448e-06
6.72315e-05
1.3588e-06
6.71574e-05
1.48652e-06
6.70821e-05
1.64299e-06
6.70121e-05
1.83394e-06
6.69584e-05
2.06578e-06
6.69397e-05
2.34043e-06
6.6987e-05
2.66219e-06
2.99742e-06
6.71331e-05
6.94113e-05
1.26281e-07
6.9449e-05
3.04335e-07
6.94807e-05
4.11684e-07
6.95082e-05
4.92213e-07
6.95309e-05
5.53633e-07
6.95493e-05
5.99688e-07
6.95641e-05
6.36637e-07
6.95758e-05
6.67688e-07
6.95848e-05
6.94471e-07
6.95911e-05
7.18381e-07
6.95949e-05
7.40502e-07
6.95961e-05
7.61658e-07
6.95947e-05
7.82553e-07
6.95904e-05
8.03838e-07
6.95831e-05
8.26153e-07
6.95725e-05
8.5016e-07
6.95584e-05
8.76572e-07
6.95403e-05
9.06192e-07
6.9518e-05
9.39945e-07
6.94911e-05
9.7892e-07
6.94593e-05
1.02441e-06
6.94221e-05
1.07795e-06
6.93796e-05
1.14141e-06
6.93316e-05
1.217e-06
6.92788e-05
1.30735e-06
6.92221e-05
1.41551e-06
6.91636e-05
1.54493e-06
6.91073e-05
1.6993e-06
6.90594e-05
1.88189e-06
6.90298e-05
2.0954e-06
6.90326e-05
2.33763e-06
6.90891e-05
2.60562e-06
2.87162e-06
6.92149e-05
7.13846e-05
1.08035e-07
7.14135e-05
2.75454e-07
7.14398e-05
3.85303e-07
7.14642e-05
4.67813e-07
7.1486e-05
5.31886e-07
7.15045e-05
5.81146e-07
7.15201e-05
6.21045e-07
7.1533e-05
6.54846e-07
7.15432e-05
6.84276e-07
7.15508e-05
7.10746e-07
7.15559e-05
7.35389e-07
7.15585e-05
7.59082e-07
7.15585e-05
7.82584e-07
7.15557e-05
8.066e-07
7.155e-05
8.318e-07
7.15413e-05
8.58879e-07
7.15293e-05
8.88576e-07
7.15138e-05
9.2171e-07
7.14945e-05
9.59204e-07
7.14713e-05
1.00212e-06
7.1444e-05
1.05171e-06
7.14126e-05
1.10939e-06
7.13772e-05
1.17684e-06
7.13382e-05
1.25598e-06
7.12966e-05
1.34895e-06
7.1254e-05
1.45813e-06
7.1213e-05
1.58589e-06
7.11779e-05
1.73447e-06
7.11546e-05
1.90511e-06
7.11521e-05
2.09792e-06
7.11812e-05
2.30852e-06
7.12562e-05
2.53062e-06
2.74278e-06
7.13851e-05
7.34191e-05
9.42401e-08
7.34443e-05
2.50197e-07
7.34695e-05
3.60123e-07
7.34932e-05
4.44078e-07
7.35145e-05
5.10625e-07
7.35326e-05
5.63072e-07
7.35476e-05
6.05973e-07
7.356e-05
6.42508e-07
7.35698e-05
6.74508e-07
7.35771e-05
7.03429e-07
7.3582e-05
7.30458e-07
7.35845e-05
7.56541e-07
7.35846e-05
7.82492e-07
7.35822e-05
8.09022e-07
7.35771e-05
8.36869e-07
7.35693e-05
8.66729e-07
7.35585e-05
8.99355e-07
7.35447e-05
9.35565e-07
7.35276e-05
9.76262e-07
7.35073e-05
1.02246e-06
7.34837e-05
1.0753e-06
7.3457e-05
1.13608e-06
7.34276e-05
1.20624e-06
7.33962e-05
1.28736e-06
7.33641e-05
1.3811e-06
7.3333e-05
1.48914e-06
7.3306e-05
1.61293e-06
7.3287e-05
1.75346e-06
7.32816e-05
1.91058e-06
7.32968e-05
2.0827e-06
7.33406e-05
2.26466e-06
7.34221e-05
2.4492e-06
2.6203e-06
7.35445e-05
7.55126e-05
8.40609e-08
7.55331e-05
2.29712e-07
7.55547e-05
3.38582e-07
7.55755e-05
4.23254e-07
7.55948e-05
4.9133e-07
7.56119e-05
5.46012e-07
7.56266e-05
5.91214e-07
7.56391e-05
6.29981e-07
7.56495e-05
6.64195e-07
7.56576e-05
6.95316e-07
7.56635e-05
7.24546e-07
7.56672e-05
7.52856e-07
7.56686e-05
7.81078e-07
7.56676e-05
8.0997e-07
7.56643e-05
8.40247e-07
7.56583e-05
8.72637e-07
7.56498e-05
9.07883e-07
7.56386e-05
9.46776e-07
7.56247e-05
9.90177e-07
7.56081e-05
1.03902e-06
7.55891e-05
1.09435e-06
7.55679e-05
1.15727e-06
7.55451e-05
1.22899e-06
7.55218e-05
1.31073e-06
7.54992e-05
1.40369e-06
7.54794e-05
1.50894e-06
7.54651e-05
1.62716e-06
7.54602e-05
1.75842e-06
7.54691e-05
1.90167e-06
7.54974e-05
2.05443e-06
7.55504e-05
2.21159e-06
7.56333e-05
2.3663e-06
2.5069e-06
7.57467e-05
7.76674e-05
7.6264e-08
7.76847e-05
2.12406e-07
7.77043e-05
3.18943e-07
7.77241e-05
4.03504e-07
7.77429e-05
4.7253e-07
7.77598e-05
5.29052e-07
7.77747e-05
5.76377e-07
7.77874e-05
6.17286e-07
7.77979e-05
6.53636e-07
7.78064e-05
6.86868e-07
7.78127e-05
7.18188e-07
7.7817e-05
7.48581e-07
7.78192e-05
7.78888e-07
7.78192e-05
8.09918e-07
7.78171e-05
8.42376e-07
7.78128e-05
8.76982e-07
7.78062e-05
9.14462e-07
7.77974e-05
9.55569e-07
7.77865e-05
1.0011e-06
7.77736e-05
1.05191e-06
7.7759e-05
1.1089e-06
7.77433e-05
1.173e-06
7.77271e-05
1.24516e-06
7.77116e-05
1.32628e-06
7.76981e-05
1.41714e-06
7.76888e-05
1.5183e-06
7.76861e-05
1.62984e-06
7.76933e-05
1.75123e-06
7.7714e-05
1.8809e-06
7.77524e-05
2.01609e-06
7.78118e-05
2.15217e-06
7.78948e-05
2.28334e-06
2.40127e-06
7.80004e-05
7.98844e-05
7.01651e-08
7.98989e-05
1.97915e-07
7.99162e-05
3.01638e-07
7.9934e-05
3.85691e-07
7.99513e-05
4.55254e-07
7.99672e-05
5.13108e-07
7.99815e-05
5.62086e-07
7.99941e-05
6.04724e-07
8.00049e-05
6.42845e-07
8.00139e-05
6.7787e-07
8.00211e-05
7.10999e-07
8.00264e-05
7.43229e-07
8.00299e-05
7.75413e-07
8.00315e-05
8.08304e-07
8.00313e-05
8.42633e-07
8.00291e-05
8.79097e-07
8.00252e-05
9.18394e-07
8.00196e-05
9.61229e-07
8.00123e-05
1.00833e-06
8.00038e-05
1.06044e-06
7.99944e-05
1.11832e-06
7.99847e-05
1.18271e-06
7.99755e-05
1.25434e-06
7.9968e-05
1.33379e-06
7.99636e-05
1.42152e-06
7.99643e-05
1.51764e-06
7.99722e-05
1.62186e-06
7.99902e-05
1.73326e-06
8.0021e-05
1.85008e-06
8.00675e-05
1.96962e-06
8.01317e-05
2.08796e-06
8.02146e-05
2.20047e-06
2.30135e-06
8.03145e-05
8.21653e-05
6.52699e-08
8.21777e-05
1.85594e-07
8.21932e-05
2.86093e-07
8.22098e-05
3.691e-07
8.22264e-05
4.38691e-07
8.22421e-05
4.97399e-07
8.22565e-05
5.47674e-07
8.22694e-05
5.91796e-07
8.22808e-05
6.315e-07
8.22905e-05
6.68158e-07
8.22985e-05
7.02933e-07
8.2305e-05
7.36804e-07
8.23098e-05
7.70608e-07
8.2313e-05
8.05109e-07
8.23146e-05
8.41019e-07
8.23147e-05
8.79006e-07
8.23133e-05
9.19721e-07
8.23108e-05
9.63811e-07
8.23072e-05
1.01192e-06
8.23029e-05
1.06468e-06
8.22985e-05
1.12271e-06
8.22947e-05
1.18659e-06
8.22922e-05
1.25681e-06
8.22923e-05
1.33371e-06
8.22963e-05
1.41746e-06
8.23061e-05
1.5079e-06
8.23235e-05
1.60445e-06
8.23507e-05
1.70603e-06
8.23899e-05
1.81087e-06
8.2443e-05
1.91655e-06
8.2511e-05
2.0199e-06
8.25941e-05
2.11741e-06
2.20509e-06
8.26904e-05
8.45118e-05
6.12383e-08
8.45224e-05
1.75016e-07
8.45363e-05
2.7216e-07
8.45516e-05
3.53818e-07
8.45672e-05
4.23132e-07
8.45822e-05
4.82346e-07
8.45963e-05
5.33584e-07
8.46092e-05
5.78877e-07
8.46209e-05
6.19861e-07
8.46312e-05
6.57857e-07
8.46401e-05
6.93988e-07
8.46477e-05
7.29211e-07
8.4654e-05
7.64353e-07
8.46589e-05
8.00152e-07
8.46626e-05
8.37289e-07
8.46653e-05
8.76397e-07
8.46669e-05
9.18078e-07
8.46678e-05
9.62911e-07
8.46683e-05
1.01145e-06
8.46687e-05
1.06423e-06
8.46697e-05
1.12173e-06
8.46719e-05
1.18435e-06
8.46763e-05
1.25241e-06
8.4684e-05
1.32606e-06
8.46962e-05
1.40522e-06
8.47146e-05
1.48954e-06
8.47407e-05
1.57832e-06
8.47763e-05
1.67041e-06
8.4823e-05
1.7642e-06
8.4882e-05
1.85761e-06
8.49537e-05
1.94815e-06
8.50379e-05
2.03327e-06
2.11025e-06
8.51327e-05
8.69256e-05
5.78349e-08
8.69348e-05
1.65803e-07
8.69474e-05
2.59544e-07
8.69617e-05
3.39553e-07
8.69766e-05
4.08234e-07
8.69913e-05
4.67558e-07
8.70055e-05
5.19389e-07
8.70189e-05
5.65536e-07
8.70312e-05
6.07522e-07
8.70425e-05
6.46602e-07
8.70526e-05
6.83847e-07
8.70617e-05
7.20178e-07
8.70696e-05
7.56391e-07
8.70766e-05
7.93196e-07
8.70826e-05
8.31235e-07
8.70879e-05
8.71099e-07
8.70927e-05
9.13332e-07
8.70971e-05
9.58443e-07
8.71017e-05
1.0069e-06
8.71068e-05
1.05912e-06
8.71131e-05
1.11547e-06
8.71212e-05
1.17621e-06
8.71321e-05
1.24149e-06
8.71469e-05
1.3113e-06
8.71667e-05
1.38542e-06
8.71928e-05
1.46338e-06
8.72267e-05
1.54442e-06
8.72697e-05
1.62745e-06
8.73229e-05
1.71102e-06
8.7387e-05
1.79346e-06
8.74623e-05
1.87284e-06
8.75482e-05
1.94737e-06
2.0152e-06
8.76433e-05
8.94085e-05
5.48908e-08
8.94166e-05
1.57655e-07
8.94282e-05
2.48023e-07
8.94415e-05
3.26175e-07
8.94558e-05
3.93963e-07
8.94703e-05
4.53099e-07
8.94844e-05
5.05221e-07
8.9498e-05
5.51937e-07
8.95109e-05
5.94649e-07
8.9523e-05
6.34534e-07
8.95342e-05
6.7261e-07
8.95446e-05
7.09755e-07
8.95543e-05
7.46728e-07
8.95633e-05
7.84204e-07
8.95717e-05
8.22781e-07
8.95798e-05
8.62999e-07
8.95878e-05
9.05343e-07
8.9596e-05
9.50248e-07
8.96048e-05
9.98098e-07
8.96147e-05
1.04922e-06
8.96264e-05
1.10384e-06
8.96404e-05
1.16213e-06
8.96578e-05
1.22411e-06
8.96795e-05
1.28963e-06
8.97065e-05
1.3584e-06
8.974e-05
1.42988e-06
8.97811e-05
1.5033e-06
8.98309e-05
1.57768e-06
8.98901e-05
1.65179e-06
8.99593e-05
1.72427e-06
9.00385e-05
1.79369e-06
9.0127e-05
1.85881e-06
1.91835e-06
9.02239e-05
9.19625e-05
5.22836e-08
9.19698e-05
1.50324e-07
9.19804e-05
2.37373e-07
9.19931e-05
3.13494e-07
9.2007e-05
3.8013e-07
9.20213e-05
4.38767e-07
9.20357e-05
4.90854e-07
9.20498e-05
5.37824e-07
9.20635e-05
5.80958e-07
9.20766e-05
6.21358e-07
9.20893e-05
6.59978e-07
9.21014e-05
6.97648e-07
9.2113e-05
7.35084e-07
9.21243e-05
7.72913e-07
9.21354e-05
8.11687e-07
9.21465e-05
8.51888e-07
9.21579e-05
8.9394e-07
9.217e-05
9.38208e-07
9.21831e-05
9.84993e-07
9.21978e-05
1.03453e-06
9.22146e-05
1.08696e-06
9.22344e-05
1.14234e-06
9.22579e-05
1.2006e-06
9.22861e-05
1.26152e-06
9.23197e-05
1.32473e-06
9.23599e-05
1.38968e-06
9.24076e-05
1.45567e-06
9.24634e-05
1.5218e-06
9.25282e-05
1.58706e-06
9.2602e-05
1.65039e-06
9.2685e-05
1.7107e-06
9.27767e-05
1.76716e-06
1.81887e-06
9.28762e-05
9.45895e-05
4.99211e-08
9.45962e-05
1.43608e-07
9.46062e-05
2.27398e-07
9.46184e-05
3.01345e-07
9.46319e-05
3.6661e-07
9.46462e-05
4.24483e-07
9.46608e-05
4.76251e-07
9.46754e-05
5.2319e-07
9.46899e-05
5.66468e-07
9.47041e-05
6.07105e-07
9.47181e-05
6.45988e-07
9.47319e-05
6.83891e-07
9.47455e-05
7.21481e-07
9.47591e-05
7.59334e-07
9.47728e-05
7.9795e-07
9.47869e-05
8.37757e-07
9.48018e-05
8.79115e-07
9.48176e-05
9.22323e-07
9.4835e-05
9.67606e-07
9.48544e-05
1.01512e-06
9.48765e-05
1.06493e-06
9.49018e-05
1.11701e-06
9.49312e-05
1.17121e-06
9.49654e-05
1.22727e-06
9.50054e-05
1.2848e-06
9.50518e-05
1.34326e-06
9.51055e-05
1.40199e-06
9.5167e-05
1.46024e-06
9.52369e-05
1.51717e-06
9.53154e-05
1.57193e-06
9.54024e-05
1.62372e-06
9.54976e-05
1.67197e-06
1.71603e-06
9.56004e-05
9.72917e-05
4.77325e-08
9.7298e-05
1.37338e-07
9.73075e-05
2.17914e-07
9.73192e-05
2.89564e-07
9.73326e-05
3.53249e-07
9.7347e-05
4.101e-07
9.7362e-05
4.61263e-07
9.73773e-05
5.0788e-07
9.73927e-05
5.51011e-07
9.74083e-05
5.91592e-07
9.74238e-05
6.30444e-07
9.74394e-05
6.6828e-07
9.74552e-05
7.05713e-07
9.74712e-05
7.4327e-07
9.74878e-05
7.81393e-07
9.75051e-05
8.20454e-07
9.75235e-05
8.60755e-07
9.75433e-05
9.02527e-07
9.75649e-05
9.45933e-07
9.7589e-05
9.91055e-07
9.7616e-05
1.0379e-06
9.76467e-05
1.08637e-06
9.76816e-05
1.13627e-06
9.77215e-05
1.18733e-06
9.77672e-05
1.23912e-06
9.78193e-05
1.29116e-06
9.78785e-05
1.34285e-06
9.79452e-05
1.39354e-06
9.80198e-05
1.44255e-06
9.81025e-05
1.48921e-06
9.81933e-05
1.53292e-06
9.8292e-05
1.57326e-06
1.60976e-06
9.83983e-05
0.000100071
4.56613e-08
0.000100077
1.31373e-07
0.000100086
2.08761e-07
0.000100098
2.77997e-07
0.000100111
3.39911e-07
0.000100126
3.95502e-07
0.000100141
4.45798e-07
0.000100157
4.91821e-07
0.000100174
5.34529e-07
0.000100191
5.74778e-07
0.000100208
6.13317e-07
0.000100225
6.50797e-07
0.000100243
6.87777e-07
0.000100262
7.24726e-07
0.000100281
7.62034e-07
0.000100301
8.00016e-07
0.000100323
8.38918e-07
0.000100347
8.78912e-07
0.000100373
9.201e-07
0.000100401
9.62512e-07
0.000100433
1.00609e-06
0.000100469
1.05071e-06
0.000100509
1.09615e-06
0.000100554
1.14209e-06
0.000100605
1.18815e-06
0.000100662
1.23387e-06
0.000100727
1.27873e-06
0.000100798
1.32216e-06
0.000100877
1.3636e-06
0.000100964
1.40253e-06
0.000101058
1.43848e-06
0.00010116
1.47113e-06
1.50013e-06
0.00010127
0.00010293
4.36615e-08
0.000102936
1.25594e-07
0.000102945
1.99789e-07
0.000102956
2.66497e-07
0.00010297
3.26456e-07
0.000102985
3.8056e-07
0.000103001
4.29733e-07
0.000103018
4.74894e-07
0.000103035
5.16905e-07
0.000103054
5.56541e-07
0.000103072
5.94483e-07
0.000103092
6.31322e-07
0.000103112
6.67555e-07
0.000103133
7.03599e-07
0.000103155
7.3979e-07
0.000103179
7.76389e-07
0.000103204
8.13588e-07
0.000103232
8.51507e-07
0.000103262
8.90199e-07
0.000103295
9.29643e-07
0.000103331
9.69747e-07
0.000103371
1.01035e-06
0.000103416
1.0512e-06
0.000103466
1.09201e-06
0.000103522
1.1324e-06
0.000103584
1.17194e-06
0.000103653
1.21018e-06
0.000103728
1.24663e-06
0.000103811
1.28084e-06
0.000103901
1.31238e-06
0.000103999
1.34088e-06
0.000104104
1.36607e-06
1.38766e-06
0.000104216
0.000105871
4.16945e-08
0.000105876
1.19896e-07
0.000105885
1.90867e-07
0.000105897
2.54926e-07
0.000105911
3.12751e-07
0.000105926
3.65149e-07
0.000105943
4.12957e-07
0.000105961
4.56999e-07
0.00010598
4.98051e-07
0.000105999
5.3681e-07
0.00010602
5.73889e-07
0.000106041
6.09816e-07
0.000106064
6.45031e-07
0.000106088
6.79896e-07
0.000106113
7.14694e-07
0.000106139
7.49638e-07
0.000106168
7.84868e-07
0.000106199
8.2046e-07
0.000106233
8.56422e-07
0.00010627
8.92697e-07
0.000106311
9.29163e-07
0.000106355
9.65634e-07
0.000106405
1.00187e-06
0.000106459
1.03756e-06
0.000106519
1.07236e-06
0.000106585
1.10589e-06
0.000106658
1.13775e-06
0.000106737
1.16752e-06
0.000106823
1.19482e-06
0.000106916
1.2193e-06
0.000107016
1.24064e-06
0.000107123
1.25863e-06
1.27301e-06
0.000107238
0.000108895
3.97273e-08
0.000108901
1.14192e-07
0.00010891
1.81875e-07
0.000108922
2.43154e-07
0.000108936
2.98667e-07
0.000108952
3.4915e-07
0.00010897
3.95361e-07
0.000108988
4.3804e-07
0.000109009
4.77882e-07
0.00010903
5.15511e-07
0.000109052
5.51473e-07
0.000109076
5.86232e-07
0.000109101
6.20175e-07
0.000109127
6.53609e-07
0.000109155
6.86769e-07
0.000109185
7.19819e-07
0.000109217
7.52856e-07
0.000109251
7.85916e-07
0.000109289
8.18971e-07
0.00010933
8.51934e-07
0.000109374
8.84663e-07
0.000109423
9.16961e-07
0.000109476
9.48582e-07
0.000109534
9.79236e-07
0.000109598
1.0086e-06
0.000109668
1.03633e-06
0.000109743
1.06207e-06
0.000109825
1.08548e-06
0.000109914
1.10621e-06
0.000110009
1.12398e-06
0.000110111
1.13852e-06
0.00011022
1.14962e-06
1.15709e-06
0.000110336
0.000112006
3.77309e-08
0.000112012
1.084e-07
0.000112021
1.72699e-07
0.000112034
2.31058e-07
0.000112048
2.84079e-07
0.000112065
3.3244e-07
0.000112083
3.7683e-07
0.000112104
4.17912e-07
0.000112125
4.56306e-07
0.000112148
4.92565e-07
0.000112172
5.2717e-07
0.000112198
5.60528e-07
0.000112225
5.92968e-07
0.000112254
6.24749e-07
0.000112285
6.56057e-07
0.000112318
6.87014e-07
0.000112353
7.17679e-07
0.000112391
7.48051e-07
0.000112432
7.78075e-07
0.000112476
8.07642e-07
0.000112524
8.36595e-07
0.000112576
8.64732e-07
0.000112633
8.9181e-07
0.000112695
9.17554e-07
0.000112762
9.41671e-07
0.000112834
9.63851e-07
0.000112912
9.83783e-07
0.000112997
1.00116e-06
0.000113087
1.01571e-06
0.000113184
1.02716e-06
0.000113287
1.03529e-06
0.000113397
1.03993e-06
1.0409e-06
0.000113513
0.000115207
3.56797e-08
0.000115212
1.02449e-07
0.000115222
1.63243e-07
0.000115234
2.18526e-07
0.00011525
2.68876e-07
0.000115267
3.1492e-07
0.000115287
3.57279e-07
0.000115308
3.96549e-07
0.000115331
4.33277e-07
0.000115356
4.6795e-07
0.000115382
5.00986e-07
0.00011541
5.32733e-07
0.000115439
5.63471e-07
0.000115471
5.93408e-07
0.000115504
6.22688e-07
0.00011554
6.51394e-07
0.000115578
6.79551e-07
0.000115619
7.07129e-07
0.000115663
7.34051e-07
0.00011571
7.60192e-07
0.000115761
7.85384e-07
0.000115817
8.09426e-07
0.000115876
8.32085e-07
0.000115941
8.53105e-07
0.00011601
8.72217e-07
0.000116085
8.89145e-07
0.000116165
9.03612e-07
0.000116251
9.15356e-07
0.000116342
9.24129e-07
0.00011644
9.2971e-07
0.000116543
9.31905e-07
0.000116653
9.30551e-07
9.25524e-07
0.000116768
0.000118498
3.35493e-08
0.000118504
9.62717e-08
0.000118514
1.53404e-07
0.000118527
2.0544e-07
0.000118543
2.52931e-07
0.000118562
2.96456e-07
0.000118582
3.36578e-07
0.000118605
3.73827e-07
0.00011863
4.08681e-07
0.000118656
4.41565e-07
0.000118684
4.72835e-07
0.000118714
5.02788e-07
0.000118746
5.31649e-07
0.00011878
5.59586e-07
0.000118816
5.867e-07
0.000118854
6.13042e-07
0.000118895
6.38604e-07
0.000118939
6.63335e-07
0.000118986
6.8714e-07
0.000119036
7.09882e-07
0.00011909
7.31388e-07
0.000119148
7.51463e-07
0.00011921
7.69885e-07
0.000119277
7.86419e-07
0.000119348
8.00818e-07
0.000119425
8.12836e-07
0.000119506
8.2223e-07
0.000119592
8.28771e-07
0.000119684
8.32246e-07
0.000119782
8.32467e-07
0.000119884
8.29268e-07
0.000119992
8.22508e-07
8.12111e-07
0.000120106
0.000121884
3.13193e-08
0.00012189
8.98109e-08
0.0001219
1.43106e-07
0.000121914
1.91716e-07
0.000121931
2.3617e-07
0.00012195
2.76995e-07
0.000121972
3.14699e-07
0.000121996
3.49746e-07
0.000122022
3.82551e-07
0.00012205
4.13475e-07
0.00012208
4.42818e-07
0.000122112
4.70824e-07
0.000122146
4.97672e-07
0.000122182
5.23487e-07
0.000122221
5.48337e-07
0.000122262
5.7224e-07
0.000122305
5.95166e-07
0.000122351
6.17043e-07
0.000122401
6.37761e-07
0.000122453
6.57179e-07
0.00012251
6.75127e-07
0.00012257
6.91415e-07
0.000122634
7.05836e-07
0.000122702
7.18171e-07
0.000122775
7.282e-07
0.000122852
7.35701e-07
0.000122934
7.40462e-07
0.00012302
7.42285e-07
0.000123111
7.40987e-07
0.000123207
7.36408e-07
0.000123308
7.28408e-07
0.000123414
7.1686e-07
7.01731e-07
0.000123524
0.000125366
2.89632e-08
0.000125373
8.29925e-08
0.000125384
1.32232e-07
0.000125398
1.77207e-07
0.000125416
2.18417e-07
0.000125436
2.56346e-07
0.00012546
2.91442e-07
0.000125485
3.24108e-07
0.000125513
3.54696e-07
0.000125543
3.83506e-07
0.000125575
4.10784e-07
0.000125609
4.36721e-07
0.000125645
4.61455e-07
0.000125684
4.85071e-07
0.000125725
5.07605e-07
0.000125768
5.29049e-07
0.000125814
5.49349e-07
0.000125862
5.68419e-07
0.000125914
5.86142e-07
0.000125969
6.02374e-07
0.000126027
6.1695e-07
0.000126089
6.29688e-07
0.000126154
6.40394e-07
0.000126223
6.4887e-07
0.000126297
6.54915e-07
0.000126374
6.58337e-07
0.000126455
6.58952e-07
0.000126541
6.56589e-07
0.000126631
6.51095e-07
0.000126725
6.42339e-07
0.000126823
6.3021e-07
0.000126926
6.14606e-07
5.95542e-07
0.000127032
0.000128948
2.64707e-08
0.000128955
7.57847e-08
0.000128966
1.20751e-07
0.000128982
1.619e-07
0.000129
1.99698e-07
0.000129022
2.34572e-07
0.000129047
2.66912e-07
0.000129074
2.97057e-07
0.000129103
3.25296e-07
0.000129135
3.5187e-07
0.000129169
3.76973e-07
0.000129204
4.0075e-07
0.000129243
4.23296e-07
0.000129283
4.44662e-07
0.000129326
4.64857e-07
0.000129371
4.83848e-07
0.000129419
5.01568e-07
0.000129469
5.1792e-07
0.000129523
5.32782e-07
0.000129579
5.46011e-07
0.000129639
5.57447e-07
0.000129701
5.66917e-07
0.000129767
5.74243e-07
0.000129837
5.79246e-07
0.00012991
5.81748e-07
0.000129987
5.81581e-07
0.000130067
5.78584e-07
0.000130151
5.72615e-07
0.000130239
5.63547e-07
0.00013033
5.51269e-07
0.000130424
5.35698e-07
0.000130522
5.16744e-07
4.94455e-07
0.000130623
0.000132632
2.37871e-08
0.000132639
6.80467e-08
0.000132652
1.08436e-07
0.000132668
1.45498e-07
0.000132688
1.79658e-07
0.000132712
2.11288e-07
0.000132738
2.40715e-07
0.000132767
2.68208e-07
0.000132798
2.93992e-07
0.000132832
3.18246e-07
0.000132867
3.41112e-07
0.000132905
3.62688e-07
0.000132946
3.8303e-07
0.000132988
4.02157e-07
0.000133033
4.20051e-07
0.00013308
4.36662e-07
0.00013313
4.51911e-07
0.000133182
4.65694e-07
0.000133237
4.77886e-07
0.000133295
4.88345e-07
0.000133355
4.9692e-07
0.000133419
5.03449e-07
0.000133485
5.07772e-07
0.000133555
5.09726e-07
0.000133627
5.09156e-07
0.000133703
5.05917e-07
0.000133782
4.99874e-07
0.000133863
4.90909e-07
0.000133948
4.78923e-07
0.000134035
4.63831e-07
0.000134125
4.45578e-07
0.000134218
4.24104e-07
3.99492e-07
0.000134313
0.000136421
2.09581e-08
0.000136429
5.98613e-08
0.000136442
9.54396e-08
0.00013646
1.28227e-07
0.000136481
1.58591e-07
0.000136505
1.86838e-07
0.000136533
2.13226e-07
0.000136563
2.37955e-07
0.000136596
2.61183e-07
0.000136631
2.83032e-07
0.000136668
3.03593e-07
0.000136708
3.22922e-07
0.00013675
3.41044e-07
0.000136794
3.57949e-07
0.000136841
3.73596e-07
0.00013689
3.87921e-07
0.000136941
4.00833e-07
0.000136994
4.12225e-07
0.00013705
4.21971e-07
0.000137108
4.29935e-07
0.000137169
4.35974e-07
0.000137233
4.39939e-07
0.000137299
4.41685e-07
0.000137368
4.41068e-07
0.000137439
4.37954e-07
0.000137513
4.32216e-07
0.000137589
4.23743e-07
0.000137667
4.12439e-07
0.000137748
3.98224e-07
0.000137831
3.81033e-07
0.000137915
3.60829e-07
0.000138002
3.37562e-07
3.11338e-07
0.00013809
0.000140319
1.77657e-08
0.000140328
5.07671e-08
0.000140342
8.10964e-08
0.000140361
1.09301e-07
0.000140384
1.35664e-07
0.000140411
1.60398e-07
0.00014044
1.83675e-07
0.000140473
2.05612e-07
0.000140507
2.26283e-07
0.000140545
2.45745e-07
0.000140584
2.64039e-07
0.000140626
2.8118e-07
0.00014067
2.97158e-07
0.000140716
3.11938e-07
0.000140764
3.25463e-07
0.000140814
3.37655e-07
0.000140867
3.48419e-07
0.000140921
3.57643e-07
0.000140978
3.65206e-07
0.000141037
3.70979e-07
0.000141098
3.74828e-07
0.000141162
3.7662e-07
0.000141227
3.76224e-07
0.000141295
3.73515e-07
0.000141364
3.68377e-07
0.000141436
3.60706e-07
0.000141509
3.50411e-07
0.000141584
3.37419e-07
0.000141661
3.21672e-07
0.000141738
3.03131e-07
0.000141817
2.81782e-07
0.000141897
2.57605e-07
2.30729e-07
0.000141978
0.000144328
1.45825e-08
0.000144337
4.13708e-08
0.000144352
6.61989e-08
0.000144372
8.9588e-08
0.000144396
1.11735e-07
0.000144423
1.32772e-07
0.000144454
1.5279e-07
0.000144488
1.71812e-07
0.000144524
1.89832e-07
0.000144563
2.06846e-07
0.000144605
2.22848e-07
0.000144648
2.37812e-07
0.000144693
2.51696e-07
0.000144741
2.64439e-07
0.00014479
2.75969e-07
0.000144842
2.862e-07
0.000144895
2.95031e-07
0.000144951
3.02352e-07
0.000145008
3.08045e-07
0.000145067
3.11989e-07
0.000145127
3.1406e-07
0.00014519
3.1414e-07
0.000145254
3.1211e-07
0.00014532
3.07864e-07
0.000145387
3.01302e-07
0.000145455
2.92337e-07
0.000145525
2.80894e-07
0.000145595
2.66916e-07
0.000145666
2.50359e-07
0.000145738
2.31196e-07
0.000145811
2.09426e-07
0.000145883
1.85028e-07
1.58136e-07
0.000145956
0.000148452
1.036e-08
0.000148464
2.99899e-08
0.000148481
4.87919e-08
0.000148503
6.71947e-08
0.00014853
8.51276e-08
0.00014856
1.02557e-07
0.000148594
1.19472e-07
0.00014863
1.35758e-07
0.000148668
1.51287e-07
0.000148709
1.65996e-07
0.000148752
1.79839e-07
0.000148797
1.92757e-07
0.000148844
2.04682e-07
0.000148893
2.15535e-07
0.000148944
2.25238e-07
0.000148996
2.337e-07
0.00014905
2.4082e-07
0.000149106
2.4649e-07
0.000149164
2.506e-07
0.000149223
2.53039e-07
0.000149283
2.53697e-07
0.000149345
2.52466e-07
0.000149408
2.49248e-07
0.000149471
2.4395e-07
0.000149536
2.36489e-07
0.000149602
2.26792e-07
0.000149668
2.14802e-07
0.000149734
2.0048e-07
0.000149801
1.83806e-07
0.000149867
1.64773e-07
0.000149933
1.43399e-07
0.000149999
1.19696e-07
9.37741e-08
0.000150063
0.000152692
6.9888e-09
0.000152704
1.89037e-08
0.000152721
3.11605e-08
0.000152744
4.40447e-08
0.000152772
5.73222e-08
0.000152804
7.07964e-08
0.000152839
8.43724e-08
0.000152877
9.77756e-08
0.000152918
1.10749e-07
0.00015296
1.23158e-07
0.000153005
1.349e-07
0.000153052
1.45871e-07
0.000153101
1.55978e-07
0.000153151
1.65117e-07
0.000153203
1.73211e-07
0.000153257
1.80172e-07
0.000153312
1.85896e-07
0.000153368
1.90279e-07
0.000153425
1.93215e-07
0.000153484
1.94605e-07
0.000153543
1.94348e-07
0.000153603
1.92352e-07
0.000153664
1.88529e-07
0.000153725
1.828e-07
0.000153787
1.75096e-07
0.000153848
1.65355e-07
0.000153909
1.53524e-07
0.00015397
1.39578e-07
0.00015403
1.23499e-07
0.00015409
1.05264e-07
0.000154148
8.49648e-08
0.000154206
6.2564e-08
3.81133e-08
0.000154261
0.000157058
4.06289e-10
0.000157073
3.46563e-09
0.000157096
9.10547e-09
0.000157123
1.69668e-08
0.000157154
2.61229e-08
0.000157188
3.62108e-08
0.000157226
4.71012e-08
0.000157265
5.79997e-08
0.000157308
6.86184e-08
0.000157352
7.88826e-08
0.000157398
8.86567e-08
0.000157446
9.78059e-08
0.000157496
1.06229e-07
0.000157547
1.13781e-07
0.0001576
1.20403e-07
0.000157654
1.26014e-07
0.00015771
1.3051e-07
0.000157766
1.33796e-07
0.000157824
1.35782e-07
0.000157882
1.36378e-07
0.000157941
1.35499e-07
0.000158
1.33067e-07
0.000158059
1.29013e-07
0.000158119
1.23272e-07
0.000158178
1.15798e-07
0.000158237
1.06519e-07
0.000158295
9.535e-08
0.000158352
8.23228e-08
0.000158409
6.74731e-08
0.000158463
5.07742e-08
0.000158516
3.24466e-08
0.000158566
1.24348e-08
-9.53297e-09
0.000158613
0.000161543
-3.9554e-09
0.000161558
-1.1811e-08
0.000161581
-1.39394e-08
0.00016161
-1.20653e-08
0.000161644
-7.72632e-09
0.000161682
-1.9833e-09
0.000161723
6.36408e-09
0.000161766
1.50063e-08
0.000161811
2.35209e-08
0.000161858
3.19017e-08
0.000161907
3.99542e-08
0.000161957
4.75548e-08
0.000162009
5.45321e-08
0.000162062
6.07629e-08
0.000162116
6.6288e-08
0.000162171
7.09639e-08
0.000162227
7.46812e-08
0.000162283
7.73561e-08
0.00016234
7.89088e-08
0.000162397
7.92624e-08
0.000162454
7.83449e-08
0.000162511
7.609e-08
0.000162568
7.24398e-08
0.000162624
6.73371e-08
0.000162679
6.07443e-08
0.000162733
5.26537e-08
0.000162785
4.28854e-08
0.000162836
3.15824e-08
0.000162885
1.85918e-08
0.000162932
3.18657e-09
0.000162977
-1.20917e-08
0.000163019
-2.96069e-08
-4.86702e-08
0.000163058
0.000166167
-1.76022e-08
0.000166191
-3.58552e-08
0.00016622
-4.30278e-08
0.000166253
-4.49802e-08
0.000166289
-4.37688e-08
0.000166327
-4.00128e-08
0.000166368
-3.45605e-08
0.000166412
-2.85069e-08
0.000166458
-2.22128e-08
0.000166505
-1.58408e-08
0.000166555
-9.57307e-09
0.000166606
-3.40787e-09
0.000166658
2.31682e-09
0.000166712
7.007e-09
0.000166767
1.13728e-08
0.000166823
1.50755e-08
0.000166879
1.80245e-08
0.000166936
2.01359e-08
0.000166994
2.13349e-08
0.000167052
2.15567e-08
0.000167109
2.0745e-08
0.000167167
1.88509e-08
0.000167223
1.58378e-08
0.000167279
1.17123e-08
0.000167333
6.53693e-09
0.000167385
6.19343e-10
0.000167436
-7.95699e-09
0.000167485
-1.71918e-08
0.000167531
-2.75876e-08
0.000167573
-3.91958e-08
0.000167613
-5.19003e-08
0.000167649
-6.58585e-08
-8.0918e-08
0.000167681
0.000170912
-2.94156e-08
0.000170944
-6.72625e-08
0.000170982
-8.08948e-08
0.000171024
-8.76802e-08
0.00017107
-8.94388e-08
0.000171118
-8.75673e-08
0.000171167
-8.38783e-08
0.000171218
-7.9259e-08
0.00017127
-7.41813e-08
0.000171323
-6.89597e-08
0.000171377
-6.37919e-08
0.000171432