/*--------------------------------*- C++ -*----------------------------------*\
  =========                 |
  \\      /  F ield         | OpenFOAM: The Open Source CFD Toolbox
   \\    /   O peration     | Website:  https://openfoam.org
    \\  /    A nd           | Version:  10
     \\/     M anipulation  |
\*---------------------------------------------------------------------------*/
FoamFile
{
    format      ascii;
    class       volVectorField;
    location    "0.05";
    object      U;
}
// * * * * * * * * * * * * * * * * * * * * * * * * * * * * * * * * * * * * * //

dimensions      [0 1 -1 0 0 0 0];

internalField   nonuniform List<vector> 
6820
(
(7.28175 0.0248496 0)
(7.17796 0.0401078 0)
(7.05488 0.0450909 0)
(6.92572 0.0477862 0)
(6.79692 0.0489096 0)
(6.66895 0.0491196 0)
(6.54231 0.0488583 0)
(6.41753 0.0483166 0)
(6.29477 0.0476091 0)
(6.17405 0.0468124 0)
(6.05537 0.0459734 0)
(5.93868 0.0451233 0)
(5.82391 0.0442847 0)
(5.71097 0.0434752 0)
(5.59974 0.0427101 0)
(5.49007 0.0420042 0)
(5.3818 0.0413741 0)
(5.2747 0.0408391 0)
(5.16852 0.0404236 0)
(5.06293 0.0401586 0)
(4.95751 0.0400848 0)
(4.85174 0.0402558 0)
(4.74497 0.0407434 0)
(4.63632 0.0416443 0)
(4.52469 0.0430901 0)
(4.40864 0.0452621 0)
(4.28624 0.0484091 0)
(4.15491 0.0529007 0)
(4.01124 0.0591659 0)
(3.85052 0.0682762 0)
(3.6653 0.0802874 0)
(3.45086 0.100857 0)
(3.17066 0.130058 0)
(7.35923 0.0259417 0)
(7.42101 0.0359285 0)
(7.47605 0.0378436 0)
(7.52621 0.0399979 0)
(7.57206 0.0415637 0)
(7.61246 0.042865 0)
(7.64736 0.0441761 0)
(7.67716 0.0455012 0)
(7.70218 0.0468356 0)
(7.72269 0.0481852 0)
(7.73897 0.0495505 0)
(7.75129 0.0509329 0)
(7.75988 0.0523374 0)
(7.76493 0.0537726 0)
(7.76664 0.0552515 0)
(7.76513 0.0567927 0)
(7.76054 0.0584214 0)
(7.75295 0.060172 0)
(7.74241 0.0620903 0)
(7.72891 0.0642376 0)
(7.71242 0.0666958 0)
(7.69282 0.0695744 0)
(7.66992 0.0730215 0)
(7.64342 0.0772375 0)
(7.61288 0.0824986 0)
(7.57764 0.0891839 0)
(7.53683 0.097833 0)
(7.48911 0.109197 0)
(7.43282 0.12438 0)
(7.36481 0.145093 0)
(7.28331 0.173329 0)
(7.177 0.215705 0)
(7.06203 0.269649 0)
(7.3354 0.00700472 0)
(7.34549 0.0103655 0)
(7.35426 0.0130948 0)
(7.36174 0.0166633 0)
(7.36979 0.0196889 0)
(7.3783 0.0223375 0)
(7.38721 0.0248337 0)
(7.39665 0.0271838 0)
(7.40663 0.0294056 0)
(7.41705 0.0315353 0)
(7.42786 0.0336021 0)
(7.43897 0.0356317 0)
(7.45029 0.0376498 0)
(7.46172 0.0396827 0)
(7.47317 0.0417588 0)
(7.48454 0.0439106 0)
(7.49574 0.0461766 0)
(7.50667 0.048604 0)
(7.51724 0.0512526 0)
(7.52736 0.054199 0)
(7.53693 0.0575434 0)
(7.54587 0.0614181 0)
(7.55411 0.0660001 0)
(7.56158 0.0715282 0)
(7.56824 0.07833 0)
(7.57406 0.0868535 0)
(7.57908 0.097739 0)
(7.58346 0.111852 0)
(7.58746 0.130553 0)
(7.59187 0.155494 0)
(7.59757 0.189908 0)
(7.60881 0.236669 0)
(7.62745 0.301687 0)
(7.33492 0.00938495 0)
(7.34236 0.0203744 0)
(7.34769 0.0260207 0)
(7.35075 0.0298806 0)
(7.35326 0.0324619 0)
(7.35529 0.0342859 0)
(7.35679 0.0357681 0)
(7.35794 0.0370525 0)
(7.35885 0.0382192 0)
(7.35954 0.0393347 0)
(7.36006 0.0404433 0)
(7.36043 0.0415766 0)
(7.36066 0.0427621 0)
(7.36075 0.0440262 0)
(7.3607 0.045396 0)
(7.36049 0.0469024 0)
(7.36009 0.0485819 0)
(7.35948 0.0504796 0)
(7.35862 0.0526519 0)
(7.35747 0.0551711 0)
(7.35597 0.0581306 0)
(7.35408 0.0616519 0)
(7.35176 0.065895 0)
(7.34897 0.071071 0)
(7.3457 0.0774621 0)
(7.342 0.0854449 0)
(7.33801 0.0955313 0)
(7.33404 0.108407 0)
(7.33063 0.125001 0)
(7.32911 0.146569 0)
(7.33094 0.17451 0)
(7.34154 0.211184 0)
(7.36234 0.254876 0)
(7.33399 0.00650462 0)
(7.33862 0.0130468 0)
(7.34302 0.0160812 0)
(7.34629 0.0188551 0)
(7.34919 0.0213655 0)
(7.35168 0.0235869 0)
(7.35363 0.0257001 0)
(7.35515 0.0277452 0)
(7.35631 0.0297296 0)
(7.35712 0.0316763 0)
(7.35759 0.0336077 0)
(7.35774 0.0355441 0)
(7.35755 0.0375087 0)
(7.35702 0.0395273 0)
(7.35614 0.0416305 0)
(7.35487 0.0438543 0)
(7.35318 0.0462415 0)
(7.35105 0.0488443 0)
(7.34843 0.0517272 0)
(7.34527 0.0549713 0)
(7.34152 0.0586783 0)
(7.33714 0.062978 0)
(7.33208 0.0680359 0)
(7.32628 0.0740641 0)
(7.31974 0.0813358 0)
(7.31249 0.0902006 0)
(7.30463 0.101107 0)
(7.29643 0.114618 0)
(7.28833 0.131417 0)
(7.28136 0.152332 0)
(7.27669 0.177986 0)
(7.27778 0.20936 0)
(7.28625 0.243968 0)
(7.33374 0.00549576 0)
(7.33762 0.0135211 0)
(7.34174 0.0190095 0)
(7.34483 0.0234886 0)
(7.34741 0.0270296 0)
(7.34959 0.0297959 0)
(7.35133 0.0321045 0)
(7.35272 0.0341246 0)
(7.3538 0.0359495 0)
(7.35461 0.0376593 0)
(7.35515 0.0393165 0)
(7.35542 0.0409695 0)
(7.35541 0.0426608 0)
(7.35511 0.0444304 0)
(7.35451 0.0463164 0)
(7.35357 0.0483613 0)
(7.35228 0.0506142 0)
(7.35059 0.0531321 0)
(7.34846 0.0559834 0)
(7.34588 0.0592518 0)
(7.34278 0.0630408 0)
(7.33915 0.0674786 0)
(7.33494 0.0727253 0)
(7.33016 0.0789807 0)
(7.32483 0.0864929 0)
(7.31901 0.0955673 0)
(7.31287 0.106572 0)
(7.30671 0.119942 0)
(7.30101 0.136137 0)
(7.29667 0.15565 0)
(7.29475 0.178627 0)
(7.29754 0.205237 0)
(7.30615 0.233225 0)
(7.33345 0.00462289 0)
(7.3361 0.0115716 0)
(7.33928 0.0159756 0)
(7.3419 0.0193145 0)
(7.34422 0.0220485 0)
(7.34631 0.0243572 0)
(7.34807 0.0264625 0)
(7.34952 0.0284689 0)
(7.3507 0.0304196 0)
(7.35162 0.0323531 0)
(7.35228 0.0343031 0)
(7.35267 0.0362973 0)
(7.35281 0.0383626 0)
(7.35267 0.0405282 0)
(7.35224 0.0428338 0)
(7.35151 0.0453204 0)
(7.35045 0.0480345 0)
(7.34905 0.051033 0)
(7.34727 0.0543846 0)
(7.34509 0.0581728 0)
(7.34251 0.0624995 0)
(7.33949 0.0674893 0)
(7.33605 0.0732937 0)
(7.33222 0.0800962 0)
(7.32806 0.0881154 0)
(7.32369 0.0976082 0)
(7.31932 0.108864 0)
(7.31531 0.122194 0)
(7.31213 0.137877 0)
(7.31059 0.156137 0)
(7.31159 0.176846 0)
(7.3167 0.19972 0)
(7.3266 0.22292 0)
(7.3333 0.00398244 0)
(7.33537 0.0106343 0)
(7.33817 0.0155925 0)
(7.34067 0.0197327 0)
(7.3429 0.0232903 0)
(7.34488 0.026313 0)
(7.34654 0.0289589 0)
(7.3479 0.03135 0)
(7.349 0.0335619 0)
(7.34985 0.0356619 0)
(7.35046 0.0377089 0)
(7.35084 0.0397537 0)
(7.35097 0.0418445 0)
(7.35086 0.0440334 0)
(7.35049 0.0463542 0)
(7.34985 0.0488546 0)
(7.34892 0.05159 0)
(7.3477 0.0546225 0)
(7.34616 0.0580237 0)
(7.3443 0.0618784 0)
(7.3421 0.0662867 0)
(7.33959 0.0713665 0)
(7.33678 0.0772566 0)
(7.33372 0.084118 0)
(7.33052 0.0921351 0)
(7.32732 0.101511 0)
(7.32434 0.112457 0)
(7.32194 0.125171 0)
(7.32057 0.139788 0)
(7.32088 0.156343 0)
(7.32358 0.174563 0)
(7.32968 0.193971 0)
(7.33955 0.213142 0)
(7.33321 0.00352327 0)
(7.33474 0.00969359 0)
(7.337 0.0144044 0)
(7.33913 0.0181871 0)
(7.34106 0.0213429 0)
(7.34284 0.0240111 0)
(7.34439 0.0263752 0)
(7.34571 0.0285692 0)
(7.34682 0.0306692 0)
(7.34772 0.0327334 0)
(7.3484 0.0348105 0)
(7.34887 0.036941 0)
(7.34912 0.039161 0)
(7.34914 0.041492 0)
(7.34894 0.0439945 0)
(7.34849 0.0467131 0)
(7.34779 0.0496968 0)
(7.34684 0.0530038 0)
(7.34562 0.0567015 0)
(7.34414 0.0608681 0)
(7.3424 0.0655947 0)
(7.34044 0.0709876 0)
(7.3383 0.077168 0)
(7.33603 0.0842719 0)
(7.33377 0.0924464 0)
(7.33166 0.101844 0)
(7.32993 0.112605 0)
(7.32891 0.12484 0)
(7.32897 0.138579 0)
(7.33065 0.153742 0)
(7.33443 0.17 0)
(7.34096 0.186837 0)
(7.35033 0.203184 0)
(7.33314 0.00317009 0)
(7.33434 0.00893703 0)
(7.33624 0.013619 0)
(7.33818 0.0175587 0)
(7.34 0.0210021 0)
(7.3417 0.0240365 0)
(7.34321 0.0267734 0)
(7.34451 0.0293089 0)
(7.34561 0.0317076 0)
(7.34651 0.0340251 0)
(7.34721 0.0363131 0)
(7.34771 0.0386186 0)
(7.34801 0.0409877 0)
(7.34812 0.043482 0)
(7.34803 0.0461289 0)
(7.34772 0.0489765 0)
(7.34721 0.0520789 0)
(7.34648 0.0554955 0)
(7.34555 0.0592935 0)
(7.34442 0.0635496 0)
(7.34312 0.0683498 0)
(7.34168 0.0737897 0)
(7.34016 0.0799744 0)
(7.33863 0.0870163 0)
(7.33723 0.0950293 0)
(7.3361 0.104121 0)
(7.33547 0.114378 0)
(7.3356 0.125842 0)
(7.33683 0.138477 0)
(7.33952 0.152143 0)
(7.34403 0.166513 0)
(7.35072 0.181117 0)
(7.35955 0.195168 0)
(7.3331 0.00289874 0)
(7.33404 0.00830102 0)
(7.33562 0.0128416 0)
(7.3373 0.0166854 0)
(7.33892 0.02002 0)
(7.34045 0.0229381 0)
(7.34185 0.0255539 0)
(7.34309 0.027976 0)
(7.34416 0.0302828 0)
(7.34507 0.0325376 0)
(7.34581 0.0347952 0)
(7.34639 0.0371031 0)
(7.3468 0.039503 0)
(7.34703 0.0420288 0)
(7.34709 0.0447327 0)
(7.34699 0.0476627 0)
(7.34671 0.0508691 0)
(7.34627 0.0544074 0)
(7.34567 0.0583391 0)
(7.34494 0.0627318 0)
(7.34411 0.0676602 0)
(7.34322 0.0732056 0)
(7.34233 0.0794538 0)
(7.34154 0.0864917 0)
(7.34096 0.0944018 0)
(7.34074 0.103253 0)
(7.34108 0.113086 0)
(7.34221 0.123898 0)
(7.34437 0.135613 0)
(7.34786 0.148068 0)
(7.35287 0.160968 0)
(7.35962 0.173919 0)
(7.36798 0.186356 0)
(7.33308 0.00268312 0)
(7.33382 0.00776183 0)
(7.33515 0.0121671 0)
(7.33665 0.0159838 0)
(7.33815 0.0193674 0)
(7.3396 0.0224042 0)
(7.34095 0.0251835 0)
(7.34218 0.0277905 0)
(7.34326 0.030289 0)
(7.3442 0.032732 0)
(7.345 0.0351684 0)
(7.34564 0.0376434 0)
(7.34615 0.0402006 0)
(7.3465 0.0428856 0)
(7.34672 0.0457406 0)
(7.34679 0.04881 0)
(7.34674 0.0521424 0)
(7.34656 0.0557902 0)
(7.34628 0.0598108 0)
(7.34592 0.0642665 0)
(7.34552 0.0692234 0)
(7.34514 0.0747507 0)
(7.34484 0.080918 0)
(7.3447 0.0877918 0)
(7.34485 0.095429 0)
(7.34543 0.103869 0)
(7.34659 0.113122 0)
(7.34853 0.123156 0)
(7.35145 0.13388 0)
(7.35552 0.145133 0)
(7.36089 0.156664 0)
(7.36764 0.168165 0)
(7.37564 0.179239 0)
(7.33306 0.0025077 0)
(7.33366 0.00730206 0)
(7.3348 0.0115591 0)
(7.33612 0.0153034 0)
(7.33747 0.0186448 0)
(7.33881 0.0216547 0)
(7.34009 0.024409 0)
(7.34126 0.0269874 0)
(7.34233 0.0294569 0)
(7.34328 0.0318749 0)
(7.34412 0.0342935 0)
(7.34484 0.0367599 0)
(7.34544 0.0393176 0)
(7.34592 0.0420089 0)
(7.3463 0.0448768 0)
(7.34657 0.0479661 0)
(7.34676 0.0513232 0)
(7.34686 0.0549969 0)
(7.34691 0.0590387 0)
(7.34694 0.0635025 0)
(7.34699 0.0684438 0)
(7.34712 0.0739182 0)
(7.34738 0.0799789 0)
(7.34788 0.0866723 0)
(7.34872 0.0940335 0)
(7.35001 0.102078 0)
(7.3519 0.110795 0)
(7.35454 0.120135 0)
(7.35807 0.130003 0)
(7.36262 0.140253 0)
(7.36827 0.150681 0)
(7.37506 0.161054 0)
(7.38282 0.171096 0)
(7.33305 0.00236136 0)
(7.33355 0.00690394 0)
(7.33452 0.0110116 0)
(7.3357 0.0146813 0)
(7.33695 0.0179967 0)
(7.33821 0.0210233 0)
(7.33944 0.0238285 0)
(7.34061 0.0264821 0)
(7.3417 0.0290438 0)
(7.34269 0.0315649 0)
(7.3436 0.0340921 0)
(7.34441 0.0366685 0)
(7.34512 0.0393352 0)
(7.34575 0.0421324 0)
(7.3463 0.0451007 0)
(7.34677 0.0482811 0)
(7.34719 0.0517155 0)
(7.34758 0.0554478 0)
(7.34795 0.059523 0)
(7.34835 0.0639874 0)
(7.34881 0.0688868 0)
(7.3494 0.0742653 0)
(7.35019 0.0801622 0)
(7.35125 0.0866087 0)
(7.35268 0.0936231 0)
(7.35459 0.101205 0)
(7.35709 0.109331 0)
(7.3603 0.117946 0)
(7.36433 0.126959 0)
(7.36926 0.136245 0)
(7.37513 0.145646 0)
(7.38195 0.154992 0)
(7.38958 0.164092 0)
(7.33304 0.00223621 0)
(7.33347 0.0065545 0)
(7.33431 0.0105139 0)
(7.33537 0.0140973 0)
(7.33652 0.0173635 0)
(7.33771 0.0203668 0)
(7.33889 0.0231632 0)
(7.34003 0.0258132 0)
(7.34112 0.0283723 0)
(7.34215 0.0308904 0)
(7.3431 0.0334136 0)
(7.34399 0.0359853 0)
(7.34481 0.0386462 0)
(7.34558 0.0414361 0)
(7.34629 0.0443938 0)
(7.34697 0.0475581 0)
(7.34762 0.0509681 0)
(7.34828 0.054663 0)
(7.34897 0.0586822 0)
(7.34972 0.0630645 0)
(7.35059 0.0678466 0)
(7.35163 0.0730617 0)
(7.3529 0.0787369 0)
(7.35448 0.0848902 0)
(7.35645 0.091527 0)
(7.35891 0.0986358 0)
(7.36195 0.106185 0)
(7.36565 0.114117 0)
(7.3701 0.122353 0)
(7.37535 0.130787 0)
(7.38143 0.139298 0)
(7.38833 0.147763 0)
(7.39592 0.15605 0)
(7.33303 0.00212663 0)
(7.3334 0.00624264 0)
(7.33415 0.0100565 0)
(7.33511 0.0135472 0)
(7.33618 0.0167575 0)
(7.33731 0.0197348 0)
(7.33847 0.0225292 0)
(7.33961 0.0251949 0)
(7.34072 0.0277831 0)
(7.34179 0.0303402 0)
(7.34282 0.0329091 0)
(7.34381 0.0355295 0)
(7.34475 0.0382394 0)
(7.34567 0.0410747 0)
(7.34655 0.0440709 0)
(7.34744 0.0472627 0)
(7.34833 0.0506842 0)
(7.34926 0.0543693 0)
(7.35025 0.0583505 0)
(7.35135 0.062659 0)
(7.35259 0.0673228 0)
(7.35404 0.0723655 0)
(7.35575 0.077804 0)
(7.35779 0.083646 0)
(7.36023 0.0898878 0)
(7.36315 0.0965107 0)
(7.36663 0.10348 0)
(7.37074 0.110742 0)
(7.37554 0.118226 0)
(7.38105 0.125849 0)
(7.3873 0.133516 0)
(7.39428 0.141142 0)
(7.40189 0.148633 0)
(7.33303 0.00202843 0)
(7.33336 0.0059594 0)
(7.33402 0.00963098 0)
(7.33491 0.0130229 0)
(7.33592 0.0161665 0)
(7.337 0.0191016 0)
(7.33813 0.0218711 0)
(7.33927 0.0245223 0)
(7.3404 0.0271009 0)
(7.34152 0.0296498 0)
(7.34261 0.032209 0)
(7.34369 0.0348165 0)
(7.34474 0.0375079 0)
(7.3458 0.0403174 0)
(7.34685 0.0432779 0)
(7.34793 0.046421 0)
(7.34904 0.0497769 0)
(7.35023 0.0533748 0)
(7.35151 0.0572419 0)
(7.35292 0.0614026 0)
(7.35452 0.0658777 0)
(7.35634 0.0706827 0)
(7.35844 0.0758264 0)
(7.36089 0.0813089 0)
(7.36375 0.0871195 0)
(7.36708 0.0932356 0)
(7.37094 0.0996214 0)
(7.37539 0.106228 0)
(7.38048 0.112994 0)
(7.38622 0.119853 0)
(7.39263 0.126731 0)
(7.3997 0.133567 0)
(7.40736 0.140292 0)
(7.33303 0.00193842 0)
(7.33332 0.00569734 0)
(7.33393 0.00922932 0)
(7.33475 0.0125175 0)
(7.33571 0.015586 0)
(7.33677 0.0184689 0)
(7.33788 0.0212045 0)
(7.33903 0.023835 0)
(7.34019 0.0264024 0)
(7.34136 0.0289463 0)
(7.34253 0.031504 0)
(7.3437 0.0341103 0)
(7.34488 0.0367981 0)
(7.34608 0.0395981 0)
(7.3473 0.0425393 0)
(7.34858 0.0456492 0)
(7.34991 0.0489534 0)
(7.35134 0.0524756 0)
(7.3529 0.0562369 0)
(7.35461 0.0602553 0)
(7.35652 0.0645447 0)
(7.35868 0.0691135 0)
(7.36114 0.0739635 0)
(7.36395 0.0790888 0)
(7.36716 0.0844742 0)
(7.37083 0.0900947 0)
(7.37501 0.0959153 0)
(7.37974 0.101892 0)
(7.38505 0.107972 0)
(7.39098 0.1141 0)
(7.39751 0.120219 0)
(7.40466 0.126284 0)
(7.41236 0.132242 0)
(7.33303 0.00185411 0)
(7.33329 0.00545025 0)
(7.33386 0.00884444 0)
(7.33464 0.0120244 0)
(7.33556 0.0150093 0)
(7.33659 0.0178286 0)
(7.3377 0.0205162 0)
(7.33886 0.0231093 0)
(7.34005 0.0256452 0)
(7.34128 0.0281598 0)
(7.34252 0.030687 0)
(7.34379 0.0332585 0)
(7.34508 0.0359041 0)
(7.34642 0.0386515 0)
(7.3478 0.0415265 0)
(7.34925 0.0445529 0)
(7.3508 0.0477523 0)
(7.35245 0.0511438 0)
(7.35426 0.0547436 0)
(7.35624 0.0585643 0)
(7.35844 0.0626142 0)
(7.3609 0.0668961 0)
(7.36366 0.0714068 0)
(7.36678 0.0761361 0)
(7.37029 0.0810658 0)
(7.37424 0.0861702 0)
(7.37868 0.0914156 0)
(7.38363 0.0967621 0)
(7.38913 0.102164 0)
(7.3952 0.107576 0)
(7.40183 0.112951 0)
(7.40904 0.118252 0)
(7.41677 0.123437 0)
(7.33302 0.0017735 0)
(7.33328 0.00521291 0)
(7.33381 0.00846996 0)
(7.33456 0.011537 0)
(7.33546 0.0144305 0)
(7.33647 0.0171763 0)
(7.33758 0.0198046 0)
(7.33876 0.0223487 0)
(7.34 0.0248424 0)
(7.34127 0.0273182 0)
(7.34259 0.029807 0)
(7.34396 0.0323377 0)
(7.34537 0.0349369 0)
(7.34684 0.0376291 0)
(7.34838 0.0404364 0)
(7.35001 0.0433787 0)
(7.35175 0.0464733 0)
(7.35362 0.0497346 0)
(7.35565 0.0531739 0)
(7.35788 0.0567986 0)
(7.36033 0.0606119 0)
(7.36305 0.0646119 0)
(7.36608 0.0687909 0)
(7.36945 0.0731353 0)
(7.37321 0.077625 0)
(7.3774 0.0822339 0)
(7.38203 0.0869298 0)
(7.38716 0.0916761 0)
(7.39279 0.0964329 0)
(7.39894 0.10116 0)
(7.40562 0.105819 0)
(7.41285 0.110378 0)
(7.42057 0.114798 0)
(7.33302 0.00169491 0)
(7.33327 0.00498084 0)
(7.33378 0.00810011 0)
(7.3345 0.0110494 0)
(7.33539 0.0138435 0)
(7.3364 0.0165055 0)
(7.33752 0.0190625 0)
(7.33872 0.021544 0)
(7.34 0.0239799 0)
(7.34134 0.0263994 0)
(7.34273 0.0288299 0)
(7.34419 0.031297 0)
(7.34571 0.033824 0)
(7.34731 0.036432 0)
(7.34899 0.0391397 0)
(7.35079 0.0419632 0)
(7.3527 0.0449159 0)
(7.35476 0.0480083 0)
(7.357 0.0512474 0)
(7.35944 0.0546366 0)
(7.36212 0.0581749 0)
(7.36506 0.0618567 0)
(7.36831 0.0656714 0)
(7.37189 0.069603 0)
(7.37585 0.0736305 0)
(7.3802 0.0777276 0)
(7.38499 0.0818639 0)
(7.39023 0.0860056 0)
(7.39595 0.0901172 0)
(7.40214 0.0941631 0)
(7.40883 0.0981084 0)
(7.41603 0.101923 0)
(7.42369 0.105573 0)
(7.33302 0.00161694 0)
(7.33326 0.00475016 0)
(7.33376 0.00772967 0)
(7.33447 0.0105559 0)
(7.33535 0.013243 0)
(7.33637 0.0158118 0)
(7.3375 0.0182867 0)
(7.33874 0.0206942 0)
(7.34005 0.023061 0)
(7.34145 0.025413 0)
(7.34292 0.0277748 0)
(7.34447 0.0301687 0)
(7.3461 0.0326151 0)
(7.34782 0.0351318 0)
(7.34964 0.0377341 0)
(7.35158 0.0404346 0)
(7.35365 0.0432429 0)
(7.35589 0.0461657 0)
(7.35831 0.0492062 0)
(7.36093 0.0523637 0)
(7.36379 0.0556339 0)
(7.36692 0.0590079 0)
(7.37035 0.0624725 0)
(7.3741 0.0660101 0)
(7.3782 0.0695985 0)
(7.38268 0.0732117 0)
(7.38756 0.0768206 0)
(7.39287 0.0803936 0)
(7.39861 0.0838982 0)
(7.4048 0.0873013 0)
(7.41144 0.0905706 0)
(7.41855 0.0936774 0)
(7.4261 0.0965887 0)
(7.33302 0.00153837 0)
(7.33325 0.00451745 0)
(7.33375 0.0073538 0)
(7.33446 0.0100511 0)
(7.33534 0.0126228 0)
(7.33637 0.0150883 0)
(7.33752 0.0174692 0)
(7.33879 0.0197892 0)
(7.34016 0.0220716 0)
(7.34162 0.0243394 0)
(7.34316 0.0266136 0)
(7.3448 0.0289135 0)
(7.34653 0.0312563 0)
(7.34836 0.0336566 0)
(7.35031 0.0361265 0)
(7.35238 0.0386751 0)
(7.3546 0.0413088 0)
(7.35699 0.0440308 0)
(7.35956 0.0468413 0)
(7.36234 0.0497364 0)
(7.36536 0.052709 0)
(7.36863 0.0557481 0)
(7.37219 0.0588384 0)
(7.37606 0.0619612 0)
(7.38027 0.0650941 0)
(7.38482 0.0682117 0)
(7.38975 0.0712861 0)
(7.39507 0.0742874 0)
(7.40079 0.077185 0)
(7.40692 0.0799481 0)
(7.41346 0.0825458 0)
(7.42043 0.0849499 0)
(7.4278 0.0871297 0)
(7.33302 0.0014581 0)
(7.33325 0.00427968 0)
(7.33375 0.00696832 0)
(7.33446 0.00953035 0)
(7.33535 0.0119793 0)
(7.33639 0.014333 0)
(7.33758 0.0166114 0)
(7.33888 0.0188354 0)
(7.3403 0.0210257 0)
(7.34181 0.0232023 0)
(7.34343 0.0253833 0)
(7.34515 0.0275851 0)
(7.34697 0.0298218 0)
(7.3489 0.0321049 0)
(7.35096 0.0344433 0)
(7.35315 0.0368432 0)
(7.35549 0.0393078 0)
(7.358 0.0418372 0)
(7.3607 0.0444285 0)
(7.3636 0.0470754 0)
(7.36674 0.0497681 0)
(7.37012 0.0524937 0)
(7.37377 0.0552354 0)
(7.37772 0.0579737 0)
(7.38197 0.0606859 0)
(7.38656 0.0633473 0)
(7.39148 0.0659306 0)
(7.39676 0.0684076 0)
(7.4024 0.0707488 0)
(7.40841 0.0729249 0)
(7.4148 0.0749065 0)
(7.42158 0.0766652 0)
(7.42871 0.0781728 0)
(7.33302 0.00137516 0)
(7.33326 0.00403399 0)
(7.33376 0.00656872 0)
(7.33448 0.00898771 0)
(7.33538 0.0113042 0)
(7.33645 0.0135344 0)
(7.33766 0.0156962 0)
(7.33901 0.0178079 0)
(7.34047 0.0198874 0)
(7.34205 0.0219515 0)
(7.34374 0.0240158 0)
(7.34554 0.0260936 0)
(7.34744 0.0281963 0)
(7.34947 0.0303326 0)
(7.35163 0.0325086 0)
(7.35393 0.0347278 0)
(7.35638 0.0369909 0)
(7.35899 0.0392954 0)
(7.36179 0.0416362 0)
(7.3648 0.0440047 0)
(7.36802 0.0463896 0)
(7.37148 0.0487762 0)
(7.37519 0.0511474 0)
(7.37917 0.053483 0)
(7.38344 0.0557607 0)
(7.38801 0.057956 0)
(7.39288 0.0600427 0)
(7.39808 0.0619936 0)
(7.40359 0.0637807 0)
(7.40944 0.065376 0)
(7.41562 0.0667513 0)
(7.42215 0.0678787 0)
(7.42898 0.0687328 0)
(7.33302 0.00128866 0)
(7.33326 0.00377806 0)
(7.33377 0.0061523 0)
(7.3345 0.0084218 0)
(7.33542 0.0106 0)
(7.33652 0.0127023 0)
(7.33776 0.0147449 0)
(7.33915 0.016744 0)
(7.34066 0.0187149 0)
(7.34229 0.0206719 0)
(7.34404 0.0226273 0)
(7.3459 0.0245917 0)
(7.34789 0.0265736 0)
(7.34999 0.0285788 0)
(7.35223 0.0306107 0)
(7.35461 0.03267 0)
(7.35714 0.0347549 0)
(7.35983 0.0368606 0)
(7.36271 0.0389797 0)
(7.36577 0.0411019 0)
(7.36905 0.0432143 0)
(7.37254 0.0453014 0)
(7.37627 0.0473452 0)
(7.38024 0.0493256 0)
(7.38448 0.0512203 0)
(7.38898 0.0530054 0)
(7.39376 0.0546559 0)
(7.39881 0.0561455 0)
(7.40416 0.0574478 0)
(7.40979 0.0585358 0)
(7.41571 0.0593826 0)
(7.42193 0.0599609 0)
(7.42841 0.0602484 0)
(7.33302 0.00119766 0)
(7.33327 0.0035087 0)
(7.33379 0.00571268 0)
(7.33454 0.00782096 0)
(7.33549 0.00984615 0)
(7.33662 0.011802 0)
(7.3379 0.0137028 0)
(7.33934 0.0155624 0)
(7.3409 0.0173936 0)
(7.34259 0.0192082 0)
(7.34441 0.0210165 0)
(7.34634 0.0228268 0)
(7.3484 0.0246451 0)
(7.35058 0.0264753 0)
(7.35289 0.0283186 0)
(7.35534 0.030174 0)
(7.35794 0.0320374 0)
(7.3607 0.0339026 0)
(7.36363 0.0357604 0)
(7.36674 0.0375997 0)
(7.37004 0.0394064 0)
(7.37354 0.0411646 0)
(7.37726 0.0428558 0)
(7.38119 0.04446 0)
(7.38536 0.0459552 0)
(7.38976 0.0473183 0)
(7.39441 0.048525 0)
(7.3993 0.0495506 0)
(7.40443 0.0503696 0)
(7.40981 0.0509565 0)
(7.41543 0.0512862 0)
(7.4213 0.0513323 0)
(7.42738 0.0510757 0)
(7.33302 0.00110149 0)
(7.33328 0.0032252 0)
(7.33381 0.00525259 0)
(7.33458 0.00719727 0)
(7.33556 0.00907222 0)
(7.33671 0.0108904 0)
(7.33803 0.0126643 0)
(7.3395 0.0144052 0)
(7.34111 0.0161231 0)
(7.34284 0.0178269 0)
(7.3447 0.0195236 0)
(7.34669 0.0212186 0)
(7.34879 0.0229152 0)
(7.35103 0.0246145 0)
(7.35339 0.0263154 0)
(7.35589 0.0280145 0)
(7.35853 0.0297062 0)
(7.36132 0.0313823 0)
(7.36427 0.0330326 0)
(7.36739 0.0346449 0)
(7.37068 0.0362045 0)
(7.37415 0.0376952 0)
(7.37782 0.0390986 0)
(7.38168 0.0403951 0)
(7.38573 0.0415634 0)
(7.38999 0.0425815 0)
(7.39446 0.0434265 0)
(7.39913 0.0440748 0)
(7.40401 0.0445028 0)
(7.40909 0.0446865 0)
(7.41436 0.0446023 0)
(7.41984 0.0442255 0)
(7.42548 0.04354 0)
(7.33303 0.000998734 0)
(7.33329 0.00292057 0)
(7.33385 0.00475318 0)
(7.33465 0.0065099 0)
(7.33566 0.00820232 0)
(7.33687 0.00984194 0)
(7.33824 0.0114398 0)
(7.33976 0.0130057 0)
(7.34143 0.0145482 0)
(7.34322 0.0160746 0)
(7.34514 0.0175906 0)
(7.34719 0.0190998 0)
(7.34935 0.020604 0)
(7.35164 0.022103 0)
(7.35405 0.023594 0)
(7.35659 0.0250724 0)
(7.35927 0.0265313 0)
(7.36208 0.0279616 0)
(7.36504 0.0293521 0)
(7.36815 0.0306897 0)
(7.37142 0.0319596 0)
(7.37484 0.0331451 0)
(7.37843 0.034228 0)
(7.38219 0.0351889 0)
(7.38612 0.0360075 0)
(7.39021 0.0366623 0)
(7.39448 0.0371317 0)
(7.39892 0.0373934 0)
(7.40351 0.0374251 0)
(7.40827 0.0372046 0)
(7.41318 0.0367104 0)
(7.41824 0.0359195 0)
(7.42341 0.0348188 0)
(7.33303 0.000889595 0)
(7.3333 0.00260253 0)
(7.33387 0.00424461 0)
(7.3347 0.00583218 0)
(7.33573 0.00737611 0)
(7.33696 0.0088852 0)
(7.33836 0.0103669 0)
(7.33991 0.0118271 0)
(7.34161 0.0132701 0)
(7.34344 0.0146993 0)
(7.34539 0.016117 0)
(7.34747 0.0175238 0)
(7.34967 0.0189189 0)
(7.35198 0.0203 0)
(7.35442 0.0216627 0)
(7.35698 0.023001 0)
(7.35966 0.0243069 0)
(7.36247 0.0255709 0)
(7.36541 0.0267812 0)
(7.36848 0.0279247 0)
(7.37168 0.0289867 0)
(7.37503 0.0299512 0)
(7.37851 0.0308008 0)
(7.38213 0.0315172 0)
(7.38589 0.0320813 0)
(7.38978 0.0324733 0)
(7.39381 0.032673 0)
(7.39797 0.0326602 0)
(7.40225 0.0324145 0)
(7.40664 0.0319157 0)
(7.41114 0.0311441 0)
(7.41575 0.0300786 0)
(7.42044 0.0287092 0)
(7.33303 0.000769581 0)
(7.33332 0.00224153 0)
(7.33394 0.00364391 0)
(7.33483 0.00499347 0)
(7.33592 0.00630154 0)
(7.33722 0.00757785 0)
(7.33869 0.00883051 0)
(7.34031 0.0100654 0)
(7.34207 0.0112866 0)
(7.34395 0.0124969 0)
(7.34596 0.0136976 0)
(7.34809 0.0148883 0)
(7.35032 0.016067 0)
(7.35267 0.0172299 0)
(7.35513 0.0183713 0)
(7.3577 0.019484 0)
(7.36038 0.0205589 0)
(7.36318 0.0215854 0)
(7.36609 0.0225513 0)
(7.36911 0.0234429 0)
(7.37225 0.0242454 0)
(7.3755 0.0249428 0)
(7.37887 0.0255181 0)
(7.38234 0.0259533 0)
(7.38593 0.0262303 0)
(7.38961 0.0263302 0)
(7.3934 0.0262341 0)
(7.39728 0.0259229 0)
(7.40124 0.0253781 0)
(7.40528 0.0245811 0)
(7.40938 0.0235147 0)
(7.41354 0.02216 0)
(7.41773 0.0205093 0)
(7.33303 0.000645411 0)
(7.33332 0.00189514 0)
(7.33394 0.00311657 0)
(7.33484 0.00432424 0)
(7.33595 0.00552076 0)
(7.33726 0.00670742 0)
(7.33875 0.00788512 0)
(7.3404 0.00905278 0)
(7.34219 0.0102084 0)
(7.3441 0.0113503 0)
(7.34614 0.012477 0)
(7.34829 0.0135863 0)
(7.35055 0.0146749 0)
(7.35291 0.015738 0)
(7.35537 0.0167698 0)
(7.35794 0.0177628 0)
(7.3606 0.0187085 0)
(7.36336 0.0195965 0)
(7.36622 0.0204156 0)
(7.36917 0.021153 0)
(7.37221 0.0217952 0)
(7.37534 0.0223274 0)
(7.37856 0.0227342 0)
(7.38186 0.0229996 0)
(7.38523 0.023107 0)
(7.38867 0.0230396 0)
(7.39217 0.0227806 0)
(7.39573 0.0223131 0)
(7.39934 0.0216206 0)
(7.40298 0.0206868 0)
(7.40665 0.0194963 0)
(7.41033 0.0180322 0)
(7.41402 0.0162889 0)
(7.33304 0.000491461 0)
(7.3334 0.00140839 0)
(7.33412 0.00228391 0)
(7.33512 0.00314625 0)
(7.33634 0.00400614 0)
(7.33775 0.00487004 0)
(7.33932 0.00574195 0)
(7.34104 0.00662209 0)
(7.34288 0.00750789 0)
(7.34485 0.00839579 0)
(7.34692 0.00928161 0)
(7.34909 0.0101603 0)
(7.35137 0.011026 0)
(7.35374 0.0118718 0)
(7.3562 0.0126899 0)
(7.35875 0.0134717 0)
(7.36138 0.014207 0)
(7.3641 0.0148846 0)
(7.3669 0.0154923 0)
(7.36978 0.0160171 0)
(7.37273 0.0164451 0)
(7.37574 0.0167616 0)
(7.37882 0.0169517 0)
(7.38195 0.0169999 0)
(7.38513 0.0168906 0)
(7.38835 0.0166079 0)
(7.39161 0.0161362 0)
(7.39488 0.0154602 0)
(7.39817 0.0145646 0)
(7.40146 0.0134353 0)
(7.40473 0.0120593 0)
(7.40798 0.0104219 0)
(7.41118 0.00851955 0)
(7.33302 0.000368443 0)
(7.33333 0.00111461 0)
(7.33403 0.00189976 0)
(7.33503 0.00272222 0)
(7.33626 0.00356787 0)
(7.3377 0.00442826 0)
(7.33931 0.00529694 0)
(7.34107 0.00616151 0)
(7.34296 0.00701486 0)
(7.34496 0.00785533 0)
(7.34707 0.00868049 0)
(7.34928 0.00948625 0)
(7.35157 0.010268 0)
(7.35395 0.0110199 0)
(7.35642 0.0117359 0)
(7.35895 0.012409 0)
(7.36156 0.0130309 0)
(7.36423 0.0135924 0)
(7.36695 0.0140836 0)
(7.36974 0.0144933 0)
(7.37257 0.0148101 0)
(7.37544 0.0150216 0)
(7.37834 0.0151149 0)
(7.38127 0.0150769 0)
(7.38421 0.014894 0)
(7.38717 0.0145521 0)
(7.39011 0.0140375 0)
(7.39305 0.0133375 0)
(7.39596 0.0124398 0)
(7.39884 0.0113323 0)
(7.40168 0.0100026 0)
(7.40446 0.00843871 0)
(7.40716 0.00663152 0)
(7.33306 9.08092e-05 0)
(7.33356 0.000235288 0)
(7.33446 0.000432849 0)
(7.33563 0.000712051 0)
(7.337 0.00106475 0)
(7.33854 0.00148427 0)
(7.34022 0.00197861 0)
(7.34203 0.0025275 0)
(7.34394 0.00310619 0)
(7.34596 0.00370092 0)
(7.34807 0.00430277 0)
(7.35027 0.00490277 0)
(7.35256 0.0054919 0)
(7.35492 0.00606158 0)
(7.35735 0.0066044 0)
(7.35985 0.00711079 0)
(7.36241 0.00757001 0)
(7.36502 0.0079712 0)
(7.36768 0.00830324 0)
(7.37038 0.00855462 0)
(7.37312 0.00871343 0)
(7.37588 0.00876746 0)
(7.37866 0.00870435 0)
(7.38144 0.00851155 0)
(7.38421 0.0081767 0)
(7.38697 0.00768785 0)
(7.38971 0.00703183 0)
(7.39241 0.00619758 0)
(7.39506 0.00517306 0)
(7.39764 0.003944 0)
(7.40014 0.00252114 0)
(7.40255 0.000880699 0)
(7.40483 -0.000977472 0)
(7.33302 3.06586e-05 0)
(7.33342 0.000229443 0)
(7.33432 0.000608672 0)
(7.33553 0.00107717 0)
(7.33697 0.0015877 0)
(7.33861 0.00212799 0)
(7.34041 0.00266169 0)
(7.34232 0.00318584 0)
(7.34432 0.0037096 0)
(7.34641 0.00423026 0)
(7.34858 0.00474157 0)
(7.35083 0.00523901 0)
(7.35314 0.00571789 0)
(7.35552 0.00616539 0)
(7.35796 0.00658232 0)
(7.36044 0.00696506 0)
(7.36295 0.00730662 0)
(7.3655 0.0075994 0)
(7.36808 0.0078354 0)
(7.37067 0.00800613 0)
(7.37326 0.00810269 0)
(7.37586 0.00811592 0)
(7.37844 0.00803635 0)
(7.38099 0.00785395 0)
(7.38351 0.00756002 0)
(7.38599 0.00714077 0)
(7.38841 0.006575 0)
(7.39075 0.00586459 0)
(7.39301 0.00500287 0)
(7.3952 0.00398187 0)
(7.39731 0.00277474 0)
(7.39927 0.00138049 0)
(7.40112 -0.000189444 0)
(7.33314 -0.000584139 0)
(7.33401 -0.00162682 0)
(7.33525 -0.00225937 0)
(7.33664 -0.00257965 0)
(7.33815 -0.00268234 0)
(7.3398 -0.00261076 0)
(7.34154 -0.00243484 0)
(7.3434 -0.00218634 0)
(7.34537 -0.00187922 0)
(7.34744 -0.00153348 0)
(7.34958 -0.00116905 0)
(7.3518 -0.000799884 0)
(7.35408 -0.000436407 0)
(7.35642 -8.09035e-05 0)
(7.35882 0.000249642 0)
(7.36127 0.000543644 0)
(7.36375 0.00079321 0)
(7.36627 0.0009902 0)
(7.3688 0.00112602 0)
(7.37135 0.00119187 0)
(7.3739 0.00117886 0)
(7.37643 0.00107794 0)
(7.37895 0.000880114 0)
(7.38143 0.000576915 0)
(7.38386 0.000158617 0)
(7.3862 -0.000379396 0)
(7.38847 -0.00103294 0)
(7.39068 -0.00182238 0)
(7.39278 -0.00275785 0)
(7.39474 -0.00384176 0)
(7.39655 -0.00510017 0)
(7.39824 -0.00652492 0)
(7.39976 -0.00811491 0)
(7.33308 -0.000233165 0)
(7.33398 -0.000462182 0)
(7.33558 -0.000495482 0)
(7.33736 -0.000488225 0)
(7.33925 -0.000431777 0)
(7.34126 -0.000332416 0)
(7.34334 -0.000196808 0)
(7.34549 -3.77305e-05 0)
(7.3477 0.000131136 0)
(7.34995 0.000303112 0)
(7.35225 0.000475558 0)
(7.3546 0.000646616 0)
(7.35701 0.000814332 0)
(7.35945 0.000983637 0)
(7.36191 0.00114283 0)
(7.36439 0.00128495 0)
(7.36689 0.00140625 0)
(7.36939 0.00150227 0)
(7.37189 0.00156779 0)
(7.37438 0.00159713 0)
(7.37684 0.00158429 0)
(7.37927 0.00152292 0)
(7.38166 0.00140651 0)
(7.384 0.00122886 0)
(7.38627 0.000982128 0)
(7.38849 0.000663342 0)
(7.39063 0.000277392 0)
(7.39264 -0.000195157 0)
(7.39455 -0.000763895 0)
(7.39634 -0.00143657 0)
(7.39801 -0.00220032 0)
(7.39955 -0.0030733 0)
(7.40096 -0.00405814 0)
(7.33437 -0.00341608 0)
(7.33918 -0.00629509 0)
(7.345 -0.00735341 0)
(7.35136 -0.00794901 0)
(7.35812 -0.00817308 0)
(7.36506 -0.00813751 0)
(7.37205 -0.00798552 0)
(7.37904 -0.00778218 0)
(7.386 -0.00755405 0)
(7.3929 -0.00731802 0)
(7.39973 -0.0070855 0)
(7.40649 -0.0068646 0)
(7.41318 -0.00666215 0)
(7.41981 -0.00649098 0)
(7.42637 -0.00635039 0)
(7.43288 -0.00624291 0)
(7.43936 -0.00617354 0)
(7.44581 -0.00614736 0)
(7.45224 -0.00616947 0)
(7.45866 -0.00624505 0)
(7.4651 -0.00637941 0)
(7.47155 -0.00657794 0)
(7.47802 -0.00684618 0)
(7.48453 -0.00719014 0)
(7.49108 -0.00761463 0)
(7.49769 -0.00812893 0)
(7.50434 -0.00874941 0)
(7.51106 -0.00947067 0)
(7.51784 -0.0102957 0)
(7.52468 -0.0112315 0)
(7.53158 -0.0122848 0)
(7.53855 -0.0134626 0)
(7.54555 -0.0147692 0)
(7.32979 -0.00387673 0)
(7.32467 -0.00803641 0)
(7.31622 -0.0103825 0)
(7.3062 -0.0120742 0)
(7.29598 -0.0132391 0)
(7.28568 -0.0140015 0)
(7.27538 -0.0145096 0)
(7.26526 -0.0148474 0)
(7.25538 -0.0150657 0)
(7.24577 -0.0152042 0)
(7.23643 -0.0152934 0)
(7.22737 -0.0153559 0)
(7.21858 -0.0154099 0)
(7.21003 -0.0154695 0)
(7.2017 -0.0155459 0)
(7.19357 -0.0156501 0)
(7.18559 -0.0157929 0)
(7.17774 -0.0159837 0)
(7.16997 -0.0162313 0)
(7.16225 -0.0165437 0)
(7.15453 -0.0169283 0)
(7.14678 -0.0173924 0)
(7.13894 -0.0179422 0)
(7.13098 -0.0185841 0)
(7.12284 -0.0193233 0)
(7.11448 -0.0201637 0)
(7.10586 -0.0211091 0)
(7.09693 -0.0221631 0)
(7.08764 -0.02333 0)
(7.07796 -0.0246121 0)
(7.06784 -0.0260118 0)
(7.05723 -0.0275259 0)
(7.04613 -0.0291587 0)
(2.85685 0.161311 0)
(2.83637 0.236044 0)
(2.87224 0.233311 0)
(2.85935 0.189133 0)
(2.77306 0.159113 0)
(2.81288 0.0320096 0)
(2.95247 -0.153337 0)
(2.99715 -0.217661 0)
(2.8171 -0.119282 0)
(2.3192 0.110124 0)
(2.50149 0.71866 0)
(3.5079 1.52273 0)
(4.68333 2.16591 0)
(5.67042 2.50314 0)