/*--------------------------------*- C++ -*----------------------------------*\
  =========                 |
  \\      /  F ield         | OpenFOAM: The Open Source CFD Toolbox
   \\    /   O peration     | Website:  https://openfoam.org
    \\  /    A nd           | Version:  10
     \\/     M anipulation  |
\*---------------------------------------------------------------------------*/
FoamFile
{
    format      ascii;
    class       volScalarField;
    location    "0.09";
    object      epsilon;
}
// * * * * * * * * * * * * * * * * * * * * * * * * * * * * * * * * * * * * * //

dimensions      [0 2 -3 0 0 0 0];

internalField   nonuniform List<scalar> 
6820
(
23.2969
22.5752
21.9094
21.2853
20.7019
20.1632
19.6734
19.2344
18.8457
18.5051
18.2094
17.9549
17.7377
17.5542
17.4007
17.2741
17.1712
17.0895
17.0265
16.98
16.9482
16.9292
16.9215
16.9238
16.9349
16.9537
16.9788
17.0121
17.0396
17.1237
16.9678
17.9589
13.5914
5.03386
6.8183
7.83932
8.46759
8.89804
9.23146
9.5217
9.79519
10.064
10.3331
10.6043
10.8782
11.1543
11.4322
11.7115
11.9913
12.2713
12.5509
12.8294
13.1066
13.3819
13.6551
13.9259
14.1941
14.4599
14.7234
14.9855
15.2472
15.511
15.7898
16.0556
16.5226
16.5399
3.7036
4.14719
4.56526
4.91422
5.19794
5.43121
5.62808
5.79977
5.95472
6.09904
6.23704
6.37162
6.50472
6.63756
6.77088
6.90511
7.04043
7.17691
7.31449
7.45307
7.59251
7.73266
7.87339
8.01455
8.15606
8.29791
8.44013
8.58314
8.72681
8.87409
9.02034
9.18086
9.32714
3.54009
3.61093
3.72473
3.85372
3.98117
4.09942
4.20622
4.30199
4.38823
4.46671
4.53914
4.60705
4.67166
4.73399
4.7948
4.85469
4.9141
4.97336
5.03269
5.09224
5.15214
5.21243
5.27316
5.33435
5.39603
5.45822
5.52096
5.5844
5.6486
5.71407
5.78073
5.84955
5.92116
3.52064
3.50151
3.50498
3.52611
3.55868
3.59721
3.6378
3.67804
3.71665
3.75309
3.78727
3.81933
3.84954
3.8782
3.90562
3.93207
3.95781
3.98304
4.00793
4.03264
4.05727
4.08192
4.10666
4.13156
4.15665
4.182
4.20766
4.23368
4.26015
4.28718
4.31486
4.34328
4.37249
3.5194
3.48247
3.45303
3.43232
3.41995
3.4145
3.41422
3.41751
3.42307
3.42998
3.43758
3.44546
3.45338
3.46119
3.46885
3.47634
3.48369
3.49093
3.4981
3.50525
3.51242
3.51964
3.52697
3.53442
3.54204
3.54985
3.55788
3.56616
3.57475
3.58367
3.59299
3.60272
3.61288
3.51943
3.47974
3.44283
3.40949
3.38025
3.35523
3.3342
3.31668
3.30212
3.28998
3.27976
3.27106
3.26355
3.25699
3.25117
3.24597
3.24127
3.23701
3.23313
3.22959
3.22637
3.22345
3.22082
3.21848
3.21642
3.21465
3.21316
3.21196
3.21107
3.21051
3.21027
3.21038
3.21082
3.51947
3.47943
3.44109
3.40466
3.37041
3.33852
3.30907
3.28205
3.25734
3.23479
3.21417
3.19528
3.17792
3.1619
3.14705
3.13323
3.12032
3.10822
3.09683
3.0861
3.07596
3.06637
3.05728
3.04866
3.04048
3.03272
3.02537
3.0184
3.01182
3.00561
2.99977
2.9943
2.98917
3.51948
3.47941
3.44085
3.40382
3.36835
3.33448
3.30225
3.27168
3.24278
3.21551
3.18982
3.16561
3.14281
3.12131
3.10103
3.08186
3.06372
3.04652
3.0302
3.01468
2.99991
2.98583
2.97239
2.95955
2.94728
2.93554
2.9243
2.91354
2.90324
2.89339
2.88395
2.87494
2.86631
3.51948
3.4794
3.44082
3.40368
3.36796
3.33361
3.30062
3.26897
3.23863
3.2096
3.18183
3.15529
3.12995
3.10575
3.08264
3.06058
3.0395
3.01935
3.00008
2.98164
2.96399
2.94707
2.93084
2.91528
2.90033
2.88598
2.87218
2.85892
2.84617
2.8339
2.82211
2.81076
2.79985
3.51948
3.4794
3.44081
3.40365
3.36788
3.33344
3.30027
3.26833
3.23758
3.20798
3.1795
3.15211
3.12576
3.10043
3.07607
3.05266
3.03015
3.00851
2.9877
2.96769
2.94843
2.9299
2.91206
2.89488
2.87833
2.86238
2.84701
2.83219
2.81789
2.8041
2.7908
2.77797
2.76559
3.51948
3.4794
3.4408
3.40364
3.36786
3.33339
3.30019
3.26818
3.23732
3.20757
3.17888
3.15121
3.12453
3.09879
3.07396
3.05001
3.0269
3.00461
2.9831
2.96235
2.94232
2.92298
2.90431
2.88628
2.86886
2.85204
2.83579
2.82008
2.8049
2.79022
2.77603
2.76232
2.74906
3.51948
3.4794
3.44079
3.40363
3.36784
3.33337
3.30015
3.26813
3.23725
3.20746
3.17871
3.15097
3.12418
3.09831
3.07332
3.04919
3.02586
3.00333
2.98154
2.96048
2.94012
2.92043
2.90138
2.88296
2.86514
2.84789
2.8312
2.81504
2.7994
2.78426
2.7696
2.75541
2.74167
3.51948
3.47939
3.44079
3.40362
3.36783
3.33336
3.30013
3.2681
3.23721
3.20741
3.17865
3.15088
3.12406
3.09816
3.07312
3.04893
3.02554
3.00291
2.98103
2.95987
2.93938
2.91955
2.90036
2.88178
2.86378
2.84635
2.82947
2.81311
2.79726
2.78191
2.76702
2.7526
2.73862
3.51947
3.47939
3.44079
3.40362
3.36782
3.33334
3.30011
3.26808
3.23718
3.20738
3.17861
3.15083
3.12401
3.09809
3.07304
3.04883
3.02541
3.00277
2.98085
2.95965
2.93912
2.91925
2.90001
2.88136
2.8633
2.84581
2.82885
2.81241
2.79648
2.78103
2.76605
2.75153
2.73744
3.51947
3.47939
3.44078
3.40361
3.36782
3.33333
3.3001
3.26806
3.23716
3.20735
3.17858
3.15079
3.12396
3.09804
3.07299
3.04877
3.02535
3.00269
2.98077
2.95955
2.93901
2.91912
2.89986
2.8812
2.86312
2.8456
2.82861
2.81215
2.79618
2.7807
2.76569
2.75113
2.737
3.51947
3.47939
3.44078
3.40361
3.36781
3.33332
3.30009
3.26804
3.23714
3.20732
3.17855
3.15076
3.12393
3.098
3.07294
3.04872
3.02529
3.00263
2.98071
2.95949
2.93894
2.91905
2.89978
2.88111
2.86303
2.84549
2.8285
2.81203
2.79605
2.78056
2.76553
2.75095
2.73681
3.51947
3.47939
3.44078
3.4036
3.3678
3.33331
3.30007
3.26803
3.23712
3.2073
3.17852
3.15073
3.1239
3.09797
3.07291
3.04868
3.02525
3.00259
2.98066
2.95943
2.93889
2.91899
2.89972
2.88105
2.86296
2.84542
2.82843
2.81195
2.79597
2.78047
2.76544
2.75086
2.73671
3.51947
3.47939
3.44078
3.4036
3.3678
3.33331
3.30006
3.26802
3.23711
3.20728
3.1785
3.15071
3.12387
3.09794
3.07287
3.04864
3.02521
3.00254
2.98061
2.95939
2.93884
2.91894
2.89966
2.88099
2.8629
2.84536
2.82836
2.81188
2.7959
2.7804
2.76536
2.75078
2.73662
3.51947
3.47939
3.44077
3.4036
3.36779
3.3333
3.30006
3.26801
3.23709
3.20727
3.17848
3.15069
3.12384
3.09791
3.07284
3.04861
3.02517
3.0025
2.98057
2.95934
2.93879
2.91889
2.89961
2.88094
2.86284
2.8453
2.8283
2.81182
2.79583
2.78033
2.76529
2.7507
2.73654
3.51947
3.47939
3.44077
3.40359
3.36779
3.33329
3.30005
3.268
3.23708
3.20725
3.17846
3.15067
3.12382
3.09788
3.07281
3.04858
3.02514
3.00247
2.98053
2.9593
2.93875
2.91884
2.89956
2.88089
2.86279
2.84525
2.82824
2.81176
2.79577
2.78026
2.76522
2.75063
2.73646
3.51947
3.47938
3.44077
3.40359
3.36779
3.33329
3.30004
3.26799
3.23707
3.20724
3.17845
3.15065
3.1238
3.09786
3.07279
3.04855
3.02511
3.00244
2.9805
2.95926
2.93871
2.9188
2.89952
2.88084
2.86274
2.8452
2.82819
2.8117
2.79571
2.7802
2.76515
2.75055
2.73638
3.51947
3.47938
3.44077
3.40359
3.36778
3.33329
3.30004
3.26798
3.23706
3.20723
3.17844
3.15064
3.12378
3.09784
3.07277
3.04853
3.02508
3.00241
2.98047
2.95923
2.93867
2.91876
2.89948
2.88079
2.86269
2.84514
2.82813
2.81164
2.79565
2.78013
2.76508
2.75048
2.7363
3.51947
3.47938
3.44077
3.40359
3.36778
3.33328
3.30003
3.26797
3.23705
3.20722
3.17843
3.15062
3.12377
3.09782
3.07275
3.0485
3.02506
3.00238
2.98044
2.9592
2.93864
2.91872
2.89944
2.88075
2.86265
2.8451
2.82808
2.81158
2.79558
2.78007
2.76501
2.7504
2.73622
3.51947
3.47938
3.44077
3.40359
3.36778
3.33328
3.30003
3.26797
3.23705
3.20721
3.17842
3.15061
3.12375
3.09781
3.07273
3.04848
3.02504
3.00236
2.98041
2.95917
2.9386
2.91869
2.8994
2.88071
2.8626
2.84505
2.82803
2.81153
2.79552
2.78
2.76494
2.75032
2.73614
3.51947
3.47938
3.44077
3.40359
3.36778
3.33328
3.30003
3.26797
3.23704
3.20721
3.17841
3.1506
3.12374
3.09779
3.07272
3.04847
3.02502
3.00234
2.98039
2.95914
2.93858
2.91866
2.89937
2.88067
2.86256
2.845
2.82798
2.81148
2.79547
2.77994
2.76487
2.75025
2.73606
3.51947
3.47938
3.44077
3.40359
3.36778
3.33328
3.30002
3.26796
3.23704
3.2072
3.1784
3.15059
3.12373
3.09778
3.0727
3.04845
3.025
3.00232
2.98036
2.95912
2.93855
2.91863
2.89933
2.88064
2.86252
2.84496
2.82793
2.81142
2.79541
2.77988
2.7648
2.75018
2.73598
3.51947
3.47938
3.44077
3.40359
3.36778
3.33328
3.30002
3.26796
3.23704
3.2072
3.1784
3.15059
3.12373
3.09778
3.07269
3.04844
3.02499
3.0023
2.98035
2.9591
2.93853
2.91861
2.89931
2.88061
2.86249
2.84492
2.82789
2.81138
2.79536
2.77982
2.76474
2.75011
2.7359
3.51947
3.47938
3.44077
3.40359
3.36778
3.33327
3.30002
3.26796
3.23703
3.20719
3.17839
3.15058
3.12372
3.09776
3.07268
3.04843
3.02497
3.00229
2.98033
2.95908
2.93851
2.91858
2.89928
2.88058
2.86245
2.84489
2.82785
2.81133
2.79531
2.77977
2.76468
2.75004
2.73583
3.51947
3.47938
3.44077
3.40359
3.36778
3.33328
3.30003
3.26797
3.23704
3.2072
3.1784
3.15059
3.12373
3.09778
3.07269
3.04844
3.02498
3.00229
2.98034
2.95908
2.9385
2.91858
2.89927
2.88057
2.86244
2.84487
2.82783
2.81131
2.79528
2.77973
2.76464
2.75
2.73578
3.51947
3.47939
3.44077
3.40359
3.36778
3.33328
3.30002
3.26796
3.23703
3.20719
3.17839
3.15058
3.12372
3.09776
3.07268
3.04842
3.02497
3.00228
2.98032
2.95907
2.93849
2.91856
2.89926
2.88055
2.86243
2.84485
2.82781
2.81129
2.79526
2.77971
2.76462
2.74997
2.73575
3.51947
3.47938
3.44077
3.40359
3.36779
3.3333
3.30006
3.268
3.23708
3.20725
3.17845
3.15064
3.12378
3.09783
3.07275
3.04849
3.02504
3.00235
2.98039
2.95914
2.93856
2.91864
2.89933
2.88063
2.86251
2.84494
2.8279
2.81138
2.79536
2.77981
2.76473
2.75009
2.73588
3.51948
3.4794
3.44079
3.40362
3.36782
3.33332
3.30007
3.26801
3.23709
3.20725
3.17845
3.15065
3.1238
3.09786
3.07279
3.04855
3.02511
3.00244
2.98051
2.95929
2.93874
2.91884
2.89958
2.88091
2.86283
2.8453
2.82832
2.81185
2.79588
2.78039
2.76536
2.75078
2.73663
3.51947
3.47939
3.44079
3.40365
3.36789
3.33343
3.30023
3.26821
3.23733
3.20754
3.17878
3.15103
3.12423
3.09835
3.07335
3.04919
3.02585
3.00329
2.98147
2.96038
2.93998
2.92025
2.90116
2.88268
2.86479
2.84748
2.83071
2.81447
2.79874
2.7835
2.76873
2.75441
2.74053
3.51949
3.47947
3.44095
3.40384
3.36811
3.33369
3.30054
3.26862
3.23789
3.2083
3.17981
3.15237
3.12595
3.1005
3.076
3.05239
3.02965
3.00774
2.98662
2.96627
2.94665
2.92773
2.90948
2.89188
2.87489
2.85849
2.84265
2.82736
2.81259
2.79831
2.78451
2.77116
2.75826
3.5195
3.47953
3.44117
3.40446
3.36933
3.33572
3.30359
3.27291
3.24363
3.21572
3.18913
3.1638
3.13969
3.11674
3.09488
3.07407
3.05424
3.03533
3.01731
3.0001
2.98367
2.96797
2.95296
2.93859
2.92482
2.91162
2.89896
2.8868
2.87512
2.86388
2.85307
2.84265
2.83261
3.51969
3.48122
3.44561
3.41286
3.38296
3.35588
3.3315
3.30966
3.29014
3.27272
3.25718
3.24333
3.23098
3.21994
3.21007
3.20121
3.19325
3.18607
3.17956
3.17365
3.16825
3.1633
3.15872
3.15448
3.15052
3.14681
3.1433
3.13997
3.13678
3.13372
3.13076
3.12788
3.12507
3.52527
3.51369
3.51621
3.52949
3.55074
3.57792
3.60943
3.64398
3.6806
3.71857
3.75729
3.7963
3.83525
3.87387
3.91193
3.94927
3.98578
4.02135
4.05593
4.08947
4.12195
4.15334
4.18365
4.21288
4.24104
4.26815
4.29423
4.31931
4.3434
4.36654
4.38876
4.41009
4.43058
3.83318
4.36506
4.84914
5.31405
5.77435
6.22543
6.66299
7.08518
7.49162
7.88271
8.25921
8.62202
8.97203
9.31009
9.63694
9.95325
10.2596
10.5566
10.8445
11.124
11.3953
11.6588
11.9148
12.1636
12.4056
12.641
12.8701
13.0931
13.3104
13.5222
13.7286
13.93
14.1267
30.2663
32.7713
35.3126
37.865
40.4147
42.9529
45.4712
47.9623
50.4191
52.8354
55.2057
57.5253
59.7899
61.9963
64.1416
66.2237
68.241
70.1924
72.0771
73.8949
75.6459
77.3306
78.9495
80.5037
81.9942
83.4224
84.7896
86.0974
87.3475
88.5414
89.6811
90.7679
91.8051
86.5634
235.167
416.085
591.115
732.012
824.866
869.114
872.697
847.276
804.159
752.824
699.938
649.455
603.216
561.794
525.104
492.837
464.637
440.171
419.098
401.048
385.618
372.394
360.966
350.943
341.955
333.651
325.698
317.775
309.578
300.813
291.202
280.48
268.399
254.726
239.256
221.828
202.341
180.8
157.363
132.419
106.672
81.2221
57.5811
37.4815
22.3676
12.6751
7.49756
5.17763
4.2888
4.02048
4.00424
4.08324
4.18899
4.29021
4.37274
4.43121
4.46501
4.47614
4.4679
4.44401
4.40813
4.36357
4.31321
4.25945
4.20424
4.14915
4.0954
4.04396
3.99555
3.95067
3.90965
3.87268
3.83977
3.81086
3.78575
3.76415
3.74563
3.72966
3.71552
3.70233
3.68897
3.67413
3.65628
3.63377
3.60488
3.56796
3.52158
3.46465
3.3965
3.31698
3.22627
3.12475
3.01271
2.89019
2.75669
2.61235
2.45241
2.30189
2.02626
19.0638
27.5409
44.0751
70.2397
106.655
152.541
205.676
262.446
318.384
368.868
409.705
438.284
454.104
458.51
453.997
443.103
428.52
412.394
396.131
380.506
365.871
352.333
339.877
328.411
317.794
307.838
298.323
288.998
279.605
269.881
259.572
248.435
236.246
222.803
207.938
191.53
173.527
153.978
133.08
111.229
89.0814
67.5943
47.9898
31.568
19.3091
11.3937
7.04467
4.98851
4.13291
3.83388
3.78222
3.83766
3.93383
4.03715
4.13018
4.20432
4.25628
4.28596
4.29519
4.28679
4.26395
4.22985
4.18742
4.13921
4.08741
4.03379
3.97984
3.92672
3.87536
3.82651
3.7807
3.73833
3.69964
3.66476
3.63369
3.60634
3.5825
3.56186
3.54398
3.52825
3.5139
3.49994
3.4852
3.46829
3.44769
3.42179
3.38903
3.34801
3.29761
3.23713
3.16626
3.08505
2.99372
2.89245
2.78116
2.6593
2.5269
2.37931
2.24009
1.98226
9.473
9.82717
10.7137
12.5124
15.634
20.602
28.115
38.9827
53.9005
73.1316
96.2768
122.227
149.347
175.793
199.832
220.373
236.473
247.689
254.24
256.816
256.322
253.648
249.526
244.476
238.812
232.685
226.127
219.094
211.492
203.199
194.08
184.002
172.846
160.517
146.969
132.221
116.384
99.6982
82.5613
65.5592
49.4608
35.1494
23.4518
14.8694
9.33389
6.21209
4.64537
3.93136
3.64785
3.57792
3.61301
3.69607
3.79531
3.89236
3.97677
4.04309
4.08927
4.11544
4.12321
4.11494
4.09335
4.0612
4.02103
3.97514
3.92548
3.8737
3.82116
3.76897
3.71803
3.66907
3.62264
3.57918
3.53899
3.50226
3.46907
3.43942
3.41318
3.39015
3.36999
3.3522
3.33613
3.32095
3.30561
3.28888
3.26939
3.24567
3.21626
3.1798
3.1352
3.08168
3.01884
2.94659
2.86501
2.77415
2.67383
2.56343
2.44288
2.30762
2.17973
1.93975
6.00072
6.09144
6.20219
6.36679
6.62674
7.03255
7.66132
8.64363
10.1797
12.5357
16.0124
20.8896
27.3493
35.4045
44.863
55.3533
66.4454
77.8036
88.8843
99.125
108.058
115.372
120.929
124.737
126.905
127.587
126.935
125.076
122.089
118.014
112.864
106.637
99.3422
91.0176
81.7514
71.7021
61.1181
50.3495
39.8464
30.1296
21.7188
15.0161
10.1744
7.02998
5.18131
4.17846
3.67319
3.44926
3.38409
3.40777
3.4785
3.57009
3.66578
3.75484
3.8307
3.88979
3.93078
3.95389
3.96045
3.95245
3.93219
3.90201
3.86415
3.82064
3.77324
3.72345
3.67253
3.62153
3.5713
3.52255
3.47583
3.4316
3.39019
3.35184
3.31669
3.28482
3.25618
3.23065
3.20799
3.18783
3.16964
3.15272
3.13618
3.11897
3.09985
3.07751
3.05062
3.01789
2.97826
2.93092
2.87539
2.81145
2.73905
2.65812
2.56838
2.46913
2.36022
2.23713
2.12048
1.89832
4.40652
4.44591
4.48799
4.53576
4.59336
4.66551
4.75777
4.879
5.04606
5.29046
5.66348
6.23572
7.0882
8.29757
9.9214
11.9833
14.4839
17.3321
20.4885
23.8978
27.4705
31.0846
34.597
37.8579
40.7248
43.0739
44.8057
45.8463
46.1451
45.6719
44.4164
42.3895
39.6296
36.21
32.2472
27.9068
23.4018
18.9815
14.9041
11.3948
8.59669
6.53645
5.12992
4.23035
3.68805
3.38505
3.23951
3.19659
3.2191
3.28112
3.36417
3.45493
3.54389
3.6244
3.69215
3.74467
3.78102
3.80143
3.80697
3.7993
3.78033
3.75208
3.71648
3.67533
3.63022
3.58251
3.53336
3.48375
3.43447
3.38622
3.33953
3.29485
3.25254
3.21287
3.17603
3.14213
3.1112
3.08321
3.058
3.03532
3.01474
2.99572
2.97752
2.95925
2.93985
2.91816
2.89298
2.86315
2.82764
2.78565
2.73663
2.68027
2.61639
2.54481
2.46516
2.37667
2.27906
2.16789
2.0623
1.85778
3.62511
3.63979
3.6557
3.67327
3.69313
3.71617
3.7434
3.77578
3.81457
3.86236
3.92474
4.01208
4.14009
4.32875
4.59992
4.97239
5.46423
6.04198
6.69122
7.40127
8.1604
8.95358
9.76128
10.5591
11.318
12.0056
12.5871
13.0277
13.2947
13.3597
13.202
12.8112
12.1912
11.3631
10.3666
9.25951
8.1125
6.99993
5.98794
5.12317
4.427
3.89756
3.51756
3.26307
3.10955
3.03464
3.01905
3.0465
3.10339
3.17843
3.26236
3.34772
3.42865
3.50078
3.56106
3.6077
3.63995
3.65799
3.66267
3.65534
3.6376
3.61117
3.57774
3.53888
3.49603
3.45041
3.40311
3.35501
3.30689
3.25937
3.21299
3.16818
3.12531
3.08465
3.04642
3.01077
2.9778
2.9475
2.91983
2.8946
2.87154
2.8502
2.83001
2.81024
2.79001
2.76832
2.74412
2.71638
2.68415
2.64665
2.6033
2.55371
2.49763
2.43474
2.36459
2.28634
2.1996
2.09999
2.00517
1.81799
3.21173
3.21324
3.2154
3.21842
3.22254
3.22801
3.2351
3.24404
3.25504
3.26831
3.28433
3.3043
3.33061
3.36723
3.4197
3.49445
3.59683
3.72463
3.87455
4.04233
4.22313
4.41161
4.6019
4.78754
4.96157
5.11663
5.24518
5.33979
5.39353
5.40052
5.35648
5.25945
5.11047
4.9141
4.6787
4.41607
4.14057
3.86756
3.61152
3.38444
3.19474
3.04699
2.94223
2.87874
2.85274
2.85914
2.8921
2.94545
3.0131
3.08927
3.16869
3.24671
3.31942
3.3837
3.43727
3.4787
3.50737
3.52334
3.5273
3.52031
3.50372
3.47899
3.44759
3.41092
3.37025
3.32671
3.28127
3.23478
3.18794
3.14135
3.09552
3.05087
3.00774
2.96643
2.92715
2.89009
2.85536
2.82303
2.79308
2.76544
2.73992
2.7162
2.69384
2.67227
2.65077
2.62854
2.60468
2.57828
2.54852
2.51465
2.47611
2.43246
2.38336
2.32842
2.2671
2.19849
2.12207
2.03355
1.94912
1.77885
2.98362
2.97765
2.97204
2.96689
2.96232
2.95846
2.95545
2.95342
2.95244
2.95256
2.95378
2.95616
2.95991
2.96557
2.97414
2.98732
3.00639
3.03227
3.06515
3.1044
3.14879
3.19664
3.24591
3.29434
3.33954
3.37907
3.41056
3.43179
3.4408
3.43605
3.41653
3.38194
3.33277
3.27048
3.19746
3.11703
3.03328
2.95075
2.87409
2.80768
2.75522
2.71946
2.702
2.70326
2.72256
2.75819
2.8077
2.86808
2.936
3.00801
3.08072
3.15093
3.21581
3.27297
3.32058
3.35744
3.38297
3.39716
3.4005
3.39385
3.37833
3.35519
3.32569
3.29108
3.25249
3.21096
3.16737
3.12251
3.07705
3.03153
2.98645
2.94219
2.89909
2.85744
2.81746
2.77933
2.74319
2.70914
2.67722
2.64739
2.61956
2.59352
2.56895
2.54543
2.52239
2.4992
2.47512
2.44942
2.42136
2.3903
2.3557
2.31712
2.27417
2.22637
2.17314
2.11348
2.04676
1.96876
1.89423
1.74031
2.85672
2.8461
2.83571
2.82561
2.81587
2.80656
2.79778
2.78959
2.78205
2.7752
2.76904
2.76354
2.75868
2.75444
2.75092
2.74835
2.74699
2.74717
2.74915
2.75304
2.75872
2.76587
2.77397
2.78232
2.79014
2.79655
2.80071
2.80181
2.79915
2.7922
2.78064
2.76446
2.74394
2.71974
2.69288
2.66475
2.63705
2.61169
2.5907
2.57606
2.56954
2.57257
2.58607
2.61039
2.64527
2.68985
2.74276
2.80217
2.86596
2.93179
2.99724
3.05992
3.11763
3.16843
3.21079
3.24364
3.26642
3.27905
3.28187
3.27555
3.26103
3.23935
3.21162
3.17894
3.14233
3.10272
3.06095
3.01773
2.97368
2.92934
2.88514
2.84148
2.79866
2.75695
2.71658
2.67773
2.64054
2.60513
2.57156
2.53986
2.50997
2.48179
2.4551
2.4296
2.40488
2.38044
2.35574
2.33017
2.30315
2.27414
2.24266
2.20829
2.17061
2.12912
2.08317
2.03169
1.97396
1.90581
1.84062
1.70235
2.78763
2.77399
2.76052
2.74724
2.73421
2.72147
2.70909
2.69712
2.68562
2.67462
2.66413
2.65417
2.6447
2.63568
2.62709
2.61889
2.61106
2.60365
2.5967
2.59025
2.58434
2.57893
2.57396
2.56927
2.56467
2.55993
2.55479
2.54903
2.54243
2.53485
2.52626
2.51673
2.5065
2.49595
2.48568
2.47641
2.46903
2.46456
2.46404
2.46851
2.47891
2.49599
2.52025
2.55184
2.59057
2.63586
2.68677
2.74205
2.80015
2.85934
2.91775
2.9735
3.02477
3.06994
3.10767
3.137
3.15737
3.16862
3.17099
3.16499
3.15137
3.13105
3.10496
3.07409
3.03934
3.00158
2.96156
2.91996
2.87735
2.83423
2.79103
2.74811
2.70576
2.66424
2.62377
2.58451
2.54661
2.5102
2.47536
2.44212
2.41051
2.38045
2.35184
2.32446
2.29803
2.27222
2.2466
2.22075
2.19421
2.16656
2.13743
2.10644
2.07318
2.03714
1.99761
1.95349
1.90397
1.84494
1.78844
1.665
2.75168
2.7361
2.72063
2.70532
2.69018
2.67526
2.6606
2.64625
2.63225
2.61865
2.60546
2.59271
2.5804
2.56852
2.55703
2.54591
2.53512
2.52462
2.51441
2.50446
2.49477
2.48535
2.47619
2.4673
2.45865
2.45023
2.44201
2.43399
2.42618
2.41861
2.41136
2.40459
2.39852
2.39344
2.38974
2.38791
2.38848
2.39206
2.39928
2.41074
2.42698
2.44844
2.47537
2.50782
2.54562
2.58831
2.63519
2.68529
2.73742
2.79021
2.84214
2.89164
2.93719
2.97737
3.01102
3.03722
3.05544
3.06547
3.06743
3.06171
3.04893
3.02984
3.00528
2.97609
2.9431
2.90709
2.86876
2.82874
2.78756
2.74571
2.70357
2.6615
2.61978
2.57865
2.5383
2.49892
2.46063
2.42356
2.3878
2.35341
2.32041
2.28881
2.25854
2.22949
2.20147
2.17425
2.14758
2.12114
2.09464
2.0678
2.04032
2.01194
1.98227
1.95082
1.91685
1.87925
1.83709
1.78638
1.73787
1.62834
2.73412
2.71735
2.70067
2.68409
2.66764
2.65136
2.63528
2.61943
2.60386
2.58861
2.57371
2.55918
2.54505
2.53132
2.51798
2.50502
2.49243
2.48019
2.46827
2.45667
2.44536
2.43436
2.42367
2.41331
2.40331
2.3937
2.38454
2.37588
2.36781
2.36043
2.35388
2.34833
2.34398
2.3411
2.33998
2.34097
2.34445
2.35083
2.36053
2.37394
2.3914
2.41317
2.43941
2.47011
2.50509
2.54399
2.58624
2.63106
2.67748
2.72435
2.77042
2.81435
2.85481
2.89058
2.92058
2.944
2.96029
2.9692
2.97077
2.9653
2.95326
2.93531
2.91214
2.88452
2.85319
2.81884
2.78213
2.74364
2.70388
2.66329
2.62227
2.58113
2.54015
2.49955
2.45954
2.42026
2.38185
2.34443
2.30809
2.27289
2.23888
2.20608
2.17448
2.14402
2.1146
2.08608
2.05832
2.03114
2.00438
1.97788
1.95149
1.92502
1.89817
1.87048
1.84123
1.80927
1.77362
1.73037
1.68909
1.59246
2.72617
2.70873
2.69135
2.67404
2.65684
2.63975
2.62282
2.60607
2.58954
2.57328
2.5573
2.54165
2.52635
2.51141
2.49684
2.48266
2.46886
2.45543
2.44238
2.42971
2.41741
2.40549
2.39397
2.38287
2.37223
2.36209
2.35252
2.3436
2.33543
2.32812
2.32181
2.31668
2.31291
2.31073
2.31038
2.31214
2.31631
2.32318
2.33305
2.34621
2.3629
2.38328
2.40745
2.43539
2.46693
2.50176
2.5394
2.5792
2.62034
2.66185
2.70266
2.74161
2.77754
2.80937
2.83611
2.85702
2.87154
2.87942
2.88062
2.87534
2.86397
2.84704
2.82516
2.79899
2.7692
2.73642
2.70125
2.66424
2.62586
2.58655
2.54665
2.5065
2.46634
2.4264
2.38686
2.34788
2.30958
2.27207
2.23544
2.19976
2.16508
2.13143
2.09884
2.06728
2.03671
2.00708
1.97831
1.95035
1.92314
1.89667
1.87089
1.84575
1.82104
1.79635
1.77098
1.74381
1.7138
1.67715
1.6423
1.55748
2.72283
2.70506
2.68732
2.66963
2.65201
2.63449
2.61708
2.59982
2.58274
2.56587
2.54924
2.53289
2.51684
2.50112
2.48574
2.47072
2.45608
2.44182
2.42795
2.41449
2.40144
2.38882
2.37666
2.36498
2.35382
2.34324
2.33329
2.32407
2.31566
2.30817
2.30175
2.29654
2.29272
2.29046
2.29
2.29155
2.29535
2.30164
2.31066
2.32261
2.33769
2.356
2.37762
2.4025
2.4305
2.46134
2.49462
2.52978
2.56611
2.6028
2.63889
2.67338
2.70525
2.73352
2.75733
2.77594
2.78885
2.79575
2.79657
2.79143
2.78064
2.76463
2.74392
2.7191
2.69075
2.65945
2.62575
2.59016
2.55313
2.51506
2.47631
2.43716
2.39788
2.35868
2.31974
2.2812
2.24319
2.2058
2.16913
2.13324
2.0982
2.06403
2.03077
1.99843
1.967
1.93649
1.90688
1.87819
1.85048
1.82383
1.79834
1.77405
1.75087
1.72849
1.70625
1.68306
1.65784
1.62691
1.5977
1.52357
2.72153
2.7036
2.68569
2.66782
2.65
2.63225
2.61459
2.59706
2.57966
2.56245
2.54544
2.52866
2.51214
2.49591
2.47999
2.4644
2.44917
2.4343
2.41982
2.40575
2.3921
2.3789
2.36617
2.35396
2.3423
2.33124
2.32086
2.31122
2.30242
2.29455
2.28775
2.28214
2.27789
2.27515
2.27411
2.27496
2.2779
2.28312
2.29082
2.30117
2.31431
2.33033
2.34928
2.3711
2.39568
2.42277
2.45201
2.48293
2.5149
2.54722
2.57906
2.60954
2.63775
2.66281
2.68393
2.70044
2.71184
2.71782
2.71825
2.71321
2.70292
2.68773
2.66809
2.64449
2.61748
2.58757
2.55527
2.52103
2.48531
2.44846
2.41083
2.37271
2.33435
2.29594
2.25768
2.21969
2.1821
2.14501
2.1085
2.07264
2.03748
2.00307
1.96945
1.93663
1.90464
1.8735
1.84325
1.81397
1.78579
1.75887
1.73344
1.70965
1.68753
1.66686
1.64707
1.62709
1.60586
1.57982
1.55546
1.49086
2.72103
2.70304
2.68505
2.6671
2.64918
2.63133
2.61355
2.59586
2.5783
2.56088
2.54364
2.52659
2.50977
2.49321
2.47692
2.46093
2.44527
2.42995
2.41501
2.40045
2.38631
2.37261
2.35939
2.34668
2.33453
2.32299
2.31212
2.30199
2.29269
2.28432
2.27698
2.2708
2.26591
2.26246
2.26061
2.26052
2.26237
2.26631
2.27252
2.28113
2.29225
2.30596
2.32229
2.34119
2.36255
2.38615
2.41168
2.43872
2.46675
2.49511
2.52311
2.54995
2.57483
2.59697
2.61563
2.6302
2.64018
2.64527
2.64531
2.64031
2.63044
2.61597
2.5973
2.57484
2.54907
2.52045
2.48946
2.45653
2.42205
2.3864
2.34988
2.31278
2.27535
2.23778
2.20024
2.16289
2.12583
2.08916
2.05297
2.01731
1.98226
1.94784
1.9141
1.88107
1.84879
1.81728
1.78663
1.75693
1.72837
1.7012
1.6757
1.65217
1.63074
1.61129
1.59336
1.57592
1.55793
1.53598
1.51573
1.45951
2.72083
2.7028
2.68479
2.6668
2.64884
2.63092
2.61308
2.59531
2.57764
2.5601
2.54271
2.52549
2.50847
2.49167
2.47511
2.45883
2.44285
2.42718
2.41186
2.39691
2.38235
2.36823
2.35456
2.3414
2.32878
2.31676
2.30539
2.29475
2.28492
2.27598
2.26803
2.26118
2.25557
2.25131
2.24855
2.24743
2.24809
2.25069
2.25536
2.26221
2.27135
2.28283
2.29666
2.31282
2.33118
2.35156
2.37369
2.39719
2.42161
2.44639
2.47089
2.49442
2.51627
2.53573
2.55212
2.56488
2.57354
2.57777
2.5774
2.5724
2.56287
2.54905
2.53124
2.50981
2.48519
2.45779
2.42804
2.39634
2.36306
2.32855
2.29312
2.25704
2.22054
2.18382
2.14706
2.11038
2.07392
2.03777
2.00201
1.96671
1.93191
1.89767
1.86403
1.83101
1.79867
1.76703
1.73619
1.70627
1.67747
1.6501
1.62452
1.60109
1.58009
1.56149
1.54492
1.52944
1.51404
1.49545
1.47861
1.42967
2.72071
2.70267
2.68464
2.66663
2.64865
2.6307
2.61281
2.59499
2.57726
2.55963
2.54213
2.52479
2.50761
2.49063
2.47387
2.45736
2.44112
2.42517
2.40953
2.39425
2.37934
2.36484
2.35077
2.33719
2.32413
2.31165
2.2998
2.28865
2.27827
2.26875
2.26017
2.25263
2.24626
2.24116
2.23746
2.23529
2.23477
2.23604
2.23919
2.24435
2.25158
2.26094
2.27243
2.28602
2.3016
2.31902
2.33802
2.35829
2.37942
2.40092
2.42223
2.44275
2.46182
2.47881
2.49312
2.50419
2.51159
2.51499
2.5142
2.50916
2.49992
2.48665
2.46962
2.44913
2.42557
2.3993
2.37071
2.34018
2.30805
2.27465
2.24027
2.20519
2.16961
2.13376
2.09778
2.06183
2.02602
1.99045
1.9552
1.92034
1.88593
1.852
1.81861
1.78579
1.75357
1.72201
1.69118
1.66121
1.63233
1.60486
1.57922
1.55584
1.53509
1.51706
1.50147
1.48748
1.4741
1.45822
1.44416
1.40147
2.72062
2.70258
2.68453
2.66651
2.64851
2.63054
2.61261
2.59475
2.57697
2.55927
2.54169
2.52424
2.50694
2.48981
2.47289
2.45618
2.43972
2.42352
2.40762
2.39205
2.37682
2.36198
2.34756
2.33359
2.32012
2.30721
2.29489
2.28325
2.27233
2.26224
2.25303
2.24482
2.2377
2.23177
2.22715
2.22395
2.22228
2.22224
2.22396
2.22749
2.23292
2.24029
2.2496
2.2608
2.27382
2.2885
2.30464
2.32194
2.34006
2.35857
2.37696
2.39471
2.41123
2.42595
2.43832
2.44782
2.45403
2.45663
2.45542
2.45029
2.44127
2.42849
2.41215
2.39253
2.36994
2.34472
2.31722
2.28779
2.25675
2.22442
2.19107
2.15696
2.1223
2.0873
2.05212
2.01691
1.98178
1.94683
1.91216
1.87782
1.84387
1.81036
1.77734
1.74484
1.7129
1.68156
1.6509
1.62106
1.59224
1.56479
1.53915
1.51581
1.49522
1.47756
1.46267
1.44978
1.43795
1.42425
1.41242
1.37501
2.72054
2.70248
2.68443
2.66639
2.64837
2.63038
2.61243
2.59453
2.5767
2.55895
2.54129
2.52375
2.50635
2.48909
2.47202
2.45514
2.43849
2.42208
2.40594
2.39011
2.3746
2.35945
2.34469
2.33037
2.31652
2.30319
2.29044
2.27833
2.2669
2.25625
2.24645
2.23758
2.22974
2.22301
2.2175
2.21331
2.21054
2.20928
2.20962
2.21163
2.21537
2.22088
2.22815
2.23715
2.24779
2.25996
2.27346
2.28804
2.3034
2.31916
2.33488
2.35009
2.36427
2.37689
2.38745
2.39548
2.40057
2.4024
2.40076
2.39552
2.38667
2.37431
2.3586
2.33975
2.31806
2.29382
2.26734
2.23895
2.20896
2.17764
2.14528
2.11212
2.07836
2.04421
2.00983
1.97537
1.94094
1.90665
1.87258
1.8388
1.80538
1.77236
1.73979
1.7077
1.67614
1.64515
1.61479
1.58519
1.55656
1.52924
1.50367
1.4804
1.45992
1.44253
1.42812
1.41605
1.40541
1.39342
1.38336
1.35038
2.72045
2.70239
2.68433
2.66627
2.64824
2.63023
2.61225
2.59432
2.57644
2.55863
2.54091
2.52329
2.50579
2.48843
2.47122
2.45419
2.43737
2.42077
2.40442
2.38834
2.37257
2.35714
2.34208
2.32743
2.31322
2.29951
2.28635
2.27378
2.26188
2.25071
2.24033
2.23084
2.2223
2.21481
2.20846
2.20333
2.19952
2.1971
2.19615
2.19674
2.1989
2.20268
2.20806
2.21501
2.22347
2.23331
2.24439
2.25647
2.26929
2.28253
2.2958
2.30867
2.32069
2.33137
2.34026
2.34691
2.35094
2.35203
2.34996
2.34458
2.33587
2.32387
2.30871
2.29058
2.26971
2.24637
2.22086
2.19345
2.16445
2.13411
2.10271
2.07046
2.0376
2.00429
1.97071
1.937
1.90328
1.86965
1.83622
1.80304
1.77018
1.73769
1.70562
1.67401
1.6429
1.61233
1.58236
1.55311
1.52476
1.49765
1.47224
1.44907
1.4287
1.41149
1.39744
1.38597
1.37623
1.36559
1.35694
1.32762
2.72037
2.70229
2.68422
2.66615
2.6481
2.63007
2.61206
2.5941
2.57618
2.55833
2.54054
2.52285
2.50526
2.4878
2.47047
2.45331
2.43633
2.41955
2.403
2.38671
2.37071
2.35502
2.33967
2.32471
2.31018
2.29611
2.28256
2.26957
2.25722
2.24555
2.23463
2.22454
2.21535
2.20715
2.2
2.19399
2.18919
2.18569
2.18353
2.18279
2.18348
2.18565
2.18928
2.19434
2.20077
2.20848
2.21731
2.2271
2.23759
2.24851
2.25952
2.27024
2.28026
2.28916
2.29649
2.30186
2.30488
2.30527
2.30277
2.29725
2.28863
2.27694
2.26228
2.24479
2.22468
2.20219
2.17757
2.1511
2.12304
2.09365
2.06317
2.03183
1.99983
1.96736
1.93457
1.90162
1.86862
1.83568
1.80288
1.77032
1.73805
1.70612
1.67459
1.6435
1.61288
1.58278
1.55326
1.52441
1.49642
1.4696
1.44439
1.42136
1.40111
1.38404
1.37025
1.35923
1.35019
1.34062
1.33307
1.3068
2.72028
2.7022
2.68411
2.66603
2.64796
2.62991
2.61188
2.59388
2.57592
2.55802
2.54018
2.52242
2.50476
2.4872
2.46976
2.45248
2.43535
2.41842
2.40169
2.3852
2.36898
2.35305
2.33744
2.3222
2.30735
2.29295
2.27904
2.26566
2.25288
2.24074
2.22932
2.21867
2.20887
2.19998
2.19209
2.18525
2.17954
2.17502
2.17174
2.16975
2.16908
2.16975
2.17175
2.17506
2.17962
2.18535
2.19213
2.19979
2.20814
2.21693
2.22586
2.2346
2.24278
2.25002
2.25592
2.26008
2.26217
2.26188
2.25898
2.25329
2.24475
2.23333
2.21911
2.2022
2.18279
2.16109
2.13732
2.11173
2.08458
2.0561
2.02653
1.99607
1.96494
1.9333
1.90131
1.86912
1.83684
1.80459
1.77246
1.74053
1.70886
1.67751
1.64654
1.61598
1.58589
1.55629
1.52724
1.49883
1.47124
1.44474
1.41978
1.39692
1.37678
1.35984
1.34624
1.33556
1.32707
1.31835
1.31169
1.28792
2.72019
2.7021
2.684
2.6659
2.64782
2.62974
2.61169
2.59366
2.57567
2.55772
2.53983
2.52201
2.50427
2.48662
2.46909
2.45169
2.43444
2.41736
2.40047
2.3838
2.36737
2.35122
2.33538
2.31987
2.30474
2.29002
2.27577
2.26203
2.24884
2.23627
2.22437
2.2132
2.20282
2.19331
2.18471
2.1771
2.17053
2.16506
2.16073
2.15759
2.15565
2.15493
2.15543
2.15712
2.15995
2.16385
2.16872
2.17443
2.1808
2.18762
2.19464
2.20156
2.20805
2.21376
2.21833
2.22139
2.22261
2.22169
2.21839
2.21254
2.20403
2.19284
2.17901
2.16263
2.14386
2.12289
2.09992
2.07518
2.04891
2.02132
1.99264
1.96308
1.93281
1.90201
1.87083
1.83942
1.80789
1.77635
1.7449
1.71361
1.68256
1.6518
1.6214
1.59139
1.56182
1.53273
1.50418
1.47623
1.44905
1.4229
1.39819
1.37551
1.35548
1.33863