/*--------------------------------*- C++ -*----------------------------------*\
  =========                 |
  \\      /  F ield         | OpenFOAM: The Open Source CFD Toolbox
   \\    /   O peration     | Website:  https://openfoam.org
    \\  /    A nd           | Version:  10
     \\/     M anipulation  |
\*---------------------------------------------------------------------------*/
FoamFile
{
    format      ascii;
    class       volScalarField;
    location    "0.09";
    object      k;
}
// * * * * * * * * * * * * * * * * * * * * * * * * * * * * * * * * * * * * * //

dimensions      [0 2 -2 0 0 0 0];

internalField   nonuniform List<scalar> 
6820
(
0.196709
0.190616
0.184994
0.179724
0.174798
0.17025
0.166114
0.162407
0.159125
0.156249
0.153752
0.151603
0.14977
0.14822
0.146925
0.145855
0.144987
0.144297
0.143765
0.143372
0.143103
0.142943
0.142878
0.142898
0.142991
0.14315
0.143361
0.143643
0.143874
0.144585
0.143269
0.151636
0.114748
0.201954
0.200831
0.197543
0.193922
0.190841
0.188584
0.187155
0.186431
0.186263
0.186519
0.187093
0.187904
0.188893
0.190015
0.191235
0.192529
0.193876
0.195259
0.196667
0.198089
0.199516
0.200944
0.202366
0.203781
0.205186
0.206581
0.207973
0.209366
0.21078
0.212297
0.213745
0.216459
0.217062
0.200488
0.200474
0.199118
0.19707
0.194841
0.19269
0.190725
0.188986
0.187488
0.186232
0.185206
0.184395
0.183779
0.18334
0.183057
0.182912
0.182889
0.182973
0.183149
0.183405
0.183732
0.184119
0.184559
0.185044
0.185569
0.186129
0.186721
0.187345
0.187994
0.188697
0.189386
0.190209
0.190798
0.199662
0.199121
0.198219
0.196983
0.195545
0.194012
0.192458
0.190931
0.189463
0.188074
0.186776
0.185577
0.184479
0.183482
0.182584
0.18178
0.181066
0.180436
0.179884
0.179406
0.178995
0.178646
0.178355
0.178117
0.177928
0.177785
0.177684
0.177625
0.177604
0.177627
0.177684
0.177794
0.177933
0.199429
0.198466
0.197531
0.196513
0.195399
0.194214
0.192986
0.19174
0.190495
0.189267
0.188068
0.186908
0.185793
0.184727
0.183713
0.182752
0.181846
0.180992
0.180191
0.179441
0.178739
0.178085
0.177475
0.176909
0.176383
0.175896
0.175446
0.175033
0.174654
0.17431
0.173998
0.17372
0.173468
0.199398
0.198267
0.197202
0.196166
0.195133
0.194088
0.193029
0.191958
0.190884
0.189812
0.18875
0.187703
0.186678
0.185676
0.184703
0.18376
0.182848
0.181969
0.181124
0.180313
0.179535
0.17879
0.178077
0.177396
0.176747
0.176127
0.175537
0.174975
0.174442
0.173935
0.173456
0.173002
0.172573
0.199395
0.19822
0.197098
0.196021
0.194978
0.193957
0.192952
0.191958
0.190973
0.189997
0.189032
0.188079
0.18714
0.186217
0.185313
0.184429
0.183566
0.182724
0.181906
0.181111
0.18034
0.179593
0.178869
0.178169
0.177493
0.17684
0.176209
0.175602
0.175016
0.174452
0.17391
0.173388
0.172886
0.199395
0.198211
0.197069
0.195969
0.194908
0.193881
0.192884
0.191912
0.190961
0.190029
0.189115
0.188217
0.187336
0.186472
0.185624
0.184794
0.183981
0.183186
0.182409
0.181651
0.180912
0.180191
0.17949
0.178807
0.178143
0.177498
0.176871
0.176262
0.175671
0.175099
0.174544
0.174006
0.173485
0.199395
0.198209
0.197063
0.195955
0.194884
0.19385
0.192848
0.191877
0.190934
0.190017
0.189123
0.188251
0.1874
0.186568
0.185755
0.18496
0.184184
0.183425
0.182683
0.181959
0.181252
0.180561
0.179888
0.17923
0.17859
0.177965
0.177356
0.176764
0.176186
0.175625
0.175078
0.174547
0.174031
0.199395
0.198209
0.197061
0.195951
0.194877
0.193838
0.192833
0.191859
0.190916
0.190001
0.189113
0.18825
0.18741
0.186593
0.185798
0.185022
0.184267
0.18353
0.182811
0.18211
0.181426
0.180758
0.180107
0.179472
0.178853
0.178249
0.17766
0.177085
0.176525
0.17598
0.175448
0.174931
0.174427
0.199395
0.198209
0.197061
0.19595
0.194875
0.193834
0.192827
0.191852
0.190907
0.189992
0.189104
0.188243
0.187407
0.186595
0.185806
0.185039
0.184293
0.183567
0.18286
0.182172
0.181502
0.180849
0.180213
0.179593
0.178988
0.178399
0.177825
0.177266
0.17672
0.176189
0.175671
0.175167
0.174675
0.199395
0.198209
0.19706
0.195949
0.194874
0.193833
0.192825
0.191849
0.190903
0.189987
0.189098
0.188237
0.187402
0.186591
0.185804
0.18504
0.184297
0.183576
0.182875
0.182193
0.181529
0.180884
0.180255
0.179644
0.179049
0.178469
0.177904
0.177354
0.176819
0.176297
0.175789
0.175295
0.174813
0.199395
0.198209
0.19706
0.195949
0.194873
0.193832
0.192824
0.191847
0.190901
0.189984
0.189095
0.188234
0.187398
0.186587
0.185801
0.185037
0.184296
0.183576
0.182876
0.182196
0.181536
0.180894
0.180269
0.179662
0.179071
0.178496
0.177936
0.177392
0.176862
0.176346
0.175844
0.175356
0.17488
0.199395
0.198209
0.19706
0.195949
0.194873
0.193831
0.192823
0.191846
0.1909
0.189983
0.189093
0.188232
0.187396
0.186585
0.185798
0.185034
0.184293
0.183573
0.182874
0.182195
0.181536
0.180894
0.180271
0.179666
0.179077
0.178504
0.177947
0.177405
0.176878
0.176365
0.175866
0.175381
0.174909
0.199395
0.198208
0.19706
0.195948
0.194872
0.193831
0.192822
0.191845
0.190899
0.189981
0.189092
0.18823
0.187394
0.186583
0.185796
0.185032
0.18429
0.183571
0.182872
0.182193
0.181533
0.180893
0.18027
0.179665
0.179076
0.178504
0.177948
0.177408
0.176882
0.17637
0.175873
0.175389
0.174918
0.199395
0.198208
0.19706
0.195948
0.194872
0.19383
0.192822
0.191844
0.190898
0.18998
0.189091
0.188229
0.187392
0.186581
0.185794
0.18503
0.184288
0.183568
0.182869
0.18219
0.181531
0.18089
0.180268
0.179663
0.179074
0.178503
0.177947
0.177406
0.176881
0.17637
0.175873
0.17539
0.17492
0.199395
0.198208
0.19706
0.195948
0.194872
0.19383
0.192821
0.191844
0.190897
0.189979
0.18909
0.188227
0.187391
0.186579
0.185792
0.185028
0.184287
0.183567
0.182867
0.182188
0.181529
0.180888
0.180265
0.17966
0.179072
0.1785
0.177945
0.177404
0.176879
0.176368
0.175871
0.175388
0.174919
0.199395
0.198208
0.19706
0.195948
0.194872
0.19383
0.192821
0.191843
0.190896
0.189979
0.189089
0.188226
0.18739
0.186578
0.185791
0.185027
0.184285
0.183565
0.182866
0.182186
0.181527
0.180886
0.180263
0.179658
0.17907
0.178498
0.177942
0.177402
0.176877
0.176366
0.175869
0.175386
0.174916
0.199395
0.198208
0.197059
0.195948
0.194871
0.193829
0.19282
0.191843
0.190896
0.189978
0.189088
0.188225
0.187389
0.186577
0.18579
0.185025
0.184283
0.183563
0.182864
0.182185
0.181525
0.180884
0.180261
0.179656
0.179068
0.178496
0.17794
0.1774
0.176874
0.176363
0.175867
0.175383
0.174913
0.199395
0.198208
0.197059
0.195948
0.194871
0.193829
0.19282
0.191842
0.190895
0.189977
0.189087
0.188225
0.187388
0.186576
0.185788
0.185024
0.184282
0.183562
0.182862
0.182183
0.181523
0.180882
0.180259
0.179654
0.179066
0.178494
0.177938
0.177397
0.176872
0.176361
0.175864
0.175381
0.174911
0.199395
0.198208
0.197059
0.195947
0.194871
0.193829
0.19282
0.191842
0.190895
0.189977
0.189087
0.188224
0.187387
0.186575
0.185787
0.185023
0.184281
0.183561
0.182861
0.182182
0.181522
0.180881
0.180258
0.179652
0.179064
0.178492
0.177936
0.177395
0.17687
0.176358
0.175861
0.175378
0.174908
0.199395
0.198208
0.197059
0.195947
0.194871
0.193829
0.19282
0.191842
0.190895
0.189976
0.189086
0.188223
0.187386
0.186574
0.185787
0.185022
0.18428
0.183559
0.18286
0.18218
0.18152
0.180879
0.180256
0.179651
0.179062
0.17849
0.177934
0.177393
0.176867
0.176356
0.175859
0.175375
0.174905
0.199395
0.198208
0.197059
0.195947
0.194871
0.193829
0.192819
0.191842
0.190894
0.189976
0.189086
0.188223
0.187386
0.186574
0.185786
0.185021
0.184279
0.183558
0.182859
0.182179
0.181519
0.180878
0.180254
0.179649
0.17906
0.178488
0.177932
0.177391
0.176865
0.176354
0.175856
0.175372
0.174901
0.199395
0.198208
0.197059
0.195947
0.194871
0.193829
0.192819
0.191841
0.190894
0.189976
0.189085
0.188222
0.187385
0.186573
0.185785
0.18502
0.184278
0.183557
0.182858
0.182178
0.181518
0.180876
0.180253
0.179647
0.179059
0.178486
0.17793
0.177389
0.176863
0.176351
0.175853
0.175369
0.174898
0.199395
0.198208
0.197059
0.195947
0.194871
0.193829
0.192819
0.191841
0.190894
0.189975
0.189085
0.188222
0.187385
0.186572
0.185784
0.18502
0.184277
0.183556
0.182857
0.182177
0.181517
0.180875
0.180252
0.179646
0.179057
0.178485
0.177928
0.177387
0.17686
0.176349
0.175851
0.175366
0.174895
0.199395
0.198208
0.197059
0.195947
0.194871
0.193828
0.192819
0.191841
0.190894
0.189975
0.189085
0.188222
0.187384
0.186572
0.185784
0.185019
0.184277
0.183556
0.182856
0.182176
0.181516
0.180874
0.18025
0.179644
0.179055
0.178483
0.177926
0.177385
0.176858
0.176346
0.175848
0.175364
0.174892
0.199395
0.198208
0.197059
0.195947
0.194871
0.193828
0.192819
0.191841
0.190893
0.189975
0.189085
0.188221
0.187384
0.186572
0.185783
0.185018
0.184276
0.183555
0.182855
0.182175
0.181515
0.180873
0.180249
0.179643
0.179054
0.178481
0.177924
0.177383
0.176856
0.176344
0.175846
0.175361
0.174889
0.199395
0.198208
0.197059
0.195947
0.194871
0.193828
0.192819
0.191841
0.190893
0.189975
0.189085
0.188221
0.187384
0.186571
0.185783
0.185018
0.184276
0.183555
0.182854
0.182174
0.181514
0.180872
0.180248
0.179642
0.179053
0.17848
0.177923
0.177381
0.176854
0.176342
0.175843
0.175358
0.174886
0.199395
0.198208
0.197059
0.195947
0.194871
0.193828
0.192819
0.191841
0.190893
0.189975
0.189084
0.188221
0.187383
0.186571
0.185783
0.185018
0.184275
0.183554
0.182854
0.182174
0.181513
0.180871
0.180247
0.179641
0.179052
0.178479
0.177921
0.177379
0.176852
0.17634
0.175841
0.175356
0.174883
0.199395
0.198208
0.197059
0.195947
0.194871
0.193828
0.192819
0.191841
0.190894
0.189975
0.189085
0.188221
0.187384
0.186572
0.185783
0.185018
0.184275
0.183554
0.182854
0.182174
0.181513
0.180871
0.180247
0.179641
0.179051
0.178478
0.177921
0.177379
0.176851
0.176338
0.175839
0.175354
0.174881
0.199395
0.198208
0.197059
0.195947
0.194871
0.193828
0.192819
0.191841
0.190893
0.189975
0.189084
0.188221
0.187384
0.186571
0.185783
0.185018
0.184275
0.183554
0.182854
0.182174
0.181513
0.180871
0.180247
0.17964
0.179051
0.178477
0.17792
0.177378
0.17685
0.176337
0.175838
0.175352
0.174879
0.199395
0.198208
0.197059
0.195948
0.194871
0.193829
0.19282
0.191843
0.190895
0.189977
0.189087
0.188224
0.187386
0.186574
0.185786
0.18502
0.184278
0.183557
0.182856
0.182176
0.181515
0.180873
0.180249
0.179642
0.179052
0.178479
0.177921
0.177378
0.176851
0.176337
0.175838
0.175352
0.174879
0.199395
0.198209
0.19706
0.195949
0.194872
0.19383
0.192821
0.191843
0.190896
0.189978
0.189087
0.188224
0.187387
0.186575
0.185787
0.185022
0.184279
0.183558
0.182858
0.182178
0.181517
0.180874
0.18025
0.179643
0.179053
0.178479
0.177921
0.177378
0.17685
0.176336
0.175836
0.175349
0.174875
0.199395
0.198208
0.19706
0.19595
0.194875
0.193835
0.192827
0.191851
0.190905
0.189987
0.189097
0.188234
0.187397
0.186585
0.185796
0.185031
0.184288
0.183566
0.182865
0.182184
0.181522
0.180879
0.180253
0.179645
0.179053
0.178478
0.177918
0.177373
0.176842
0.176326
0.175823
0.175334
0.174857
0.199396
0.198212
0.197066
0.195957
0.194883
0.193842
0.192834
0.191857
0.190911
0.189993
0.189104
0.188241
0.187404
0.186591
0.185801
0.185035
0.18429
0.183566
0.182862
0.182178
0.181513
0.180865
0.180235
0.179622
0.179025
0.178443
0.177877
0.177326
0.176789
0.176265
0.175755
0.175258
0.174773
0.199396
0.198213
0.197071
0.195969
0.194902
0.193869
0.192866
0.191893
0.190947
0.190029
0.189137
0.18827
0.187426
0.186606
0.185808
0.185032
0.184276
0.183541
0.182824
0.182126
0.181446
0.180783
0.180137
0.179508
0.178894
0.178295
0.177711
0.177142
0.176586
0.176044
0.175515
0.174999
0.174495
0.199402
0.19824
0.197114
0.196018
0.194952
0.193916
0.192908
0.191927
0.190972
0.19004
0.189131
0.188245
0.18738
0.186536
0.185712
0.184908
0.184123
0.183357
0.182609
0.181879
0.181166
0.18047
0.179791
0.179127
0.178479
0.177846
0.177227
0.176623
0.176033
0.175456
0.174892
0.174341
0.173803
0.199421
0.198284
0.197214
0.196182
0.195158
0.194136
0.193118
0.19211
0.191116
0.190141
0.189187
0.188255
0.187346
0.186461
0.185598
0.184758
0.183939
0.183141
0.182364
0.181605
0.180865
0.180143
0.179439
0.178751
0.178079
0.177423
0.176782
0.176155
0.175544
0.174946
0.174361
0.17379
0.173232
0.199655
0.198885
0.198077
0.197302
0.196604
0.195976
0.195405
0.194881
0.194397
0.193951
0.193542
0.193167
0.192826
0.192518
0.192241
0.191996
0.191779
0.191589
0.191426
0.191288
0.191172
0.191078
0.191005
0.190951
0.190914
0.190895
0.190892
0.190905
0.190931
0.190972
0.191025
0.191091
0.191168
0.205419
0.216602
0.227661
0.238503
0.249093
0.259415
0.269459
0.279212
0.288667
0.297818
0.30666
0.315191
0.32341
0.331318
0.338918
0.346213
0.353209
0.35991
0.366324
0.372458
0.378319
0.383915
0.389255
0.394347
0.399199
0.403821
0.408222
0.412409
0.416391
0.420177
0.423774
0.427191
0.430439
0.319815
0.626952
0.955102
1.27064
1.54654
1.76471
1.91988
2.01777
2.07084
2.09282
2.09625
2.09035
2.08089
2.07096
2.06218
2.05557
2.05211
2.05277
2.05836
2.06938
2.08592
2.10767
2.13398
2.16388
2.19608
2.22906
2.26106
2.29013
2.31421
2.33116
2.33878
2.33487
2.31724
2.28369
2.23211
2.16047
2.06694
1.95
1.80869
1.64299
1.45433
1.24649
1.02674
0.807141
0.604934
0.439701
0.325382
0.261404
0.233804
0.226524
0.228877
0.235267
0.242913
0.250415
0.257076
0.262586
0.266865
0.269968
0.272025
0.273199
0.273661
0.273576
0.273091
0.272333
0.27141
0.27041
0.269403
0.268444
0.267574
0.266822
0.266206
0.265735
0.265408
0.265221
0.265163
0.265219
0.265371
0.265598
0.265875
0.266172
0.266455
0.266682
0.266806
0.266772
0.266518
0.265975
0.265067
0.26371
0.261818
0.259301
0.256071
0.252041
0.247133
0.241275
0.234406
0.226473
0.217492
0.207246
0.197276
0.179147
0.228259
0.25551
0.299456
0.363078
0.449445
0.559775
0.69213
0.840684
0.996509
1.14904
1.28795
1.40596
1.50014
1.57162
1.62424
1.66225
1.69063
1.71347
1.73358
1.75278
1.77219
1.7925
1.81406
1.83682
1.86033
1.8837
1.90567
1.92466
1.93885
1.94625
1.94478
1.93232
1.90675
1.86601
1.8082
1.7316
1.63491
1.51738
1.37922
1.22205
1.04962
0.86865
0.689583
0.526354
0.393724
0.301396
0.248342
0.224176
0.216945
0.218358
0.223826
0.230914
0.238282
0.245173
0.251179
0.256115
0.259944
0.26272
0.264555
0.265589
0.265968
0.265834
0.265317
0.26453
0.263572
0.262524
0.261452
0.260411
0.259442
0.258578
0.25784
0.25724
0.256786
0.256476
0.256303
0.256258
0.256325
0.256485
0.256715
0.256988
0.257271
0.257523
0.257701
0.257751
0.257615
0.257224
0.256506
0.255379
0.253758
0.251554
0.248676
0.245039
0.240562
0.235172
0.228806
0.221409
0.212994
0.203345
0.193936
0.176689
0.191503
0.19361
0.198145
0.205973
0.217999
0.235523
0.260473
0.295333
0.342684
0.404358
0.480593
0.569484
0.667141
0.768406
0.86788
0.961406
1.04526
1.11736
1.17772
1.22784
1.26987
1.30593
1.33773
1.36637
1.39234
1.4156
1.43564
1.45156
1.46211
1.46581
1.46098
1.44582
1.41857
1.37755
1.32134
1.24891
1.15986
1.05473
0.9354
0.80557
0.671258
0.540934
0.424761
0.332207
0.268283
0.231013
0.213339
0.207732
0.208869
0.213572
0.219977
0.226945
0.23376
0.239981
0.245354
0.249762
0.253186
0.255674
0.25732
0.258239
0.258555
0.25839
0.257859
0.257062
0.256086
0.255008
0.25389
0.252783
0.25173
0.250764
0.249909
0.249183
0.248595
0.24815
0.247846
0.247677
0.24763
0.247691
0.24784
0.248051
0.248294
0.248534
0.248726
0.248822
0.248766
0.248494
0.247935
0.247011
0.245639
0.243729
0.241193
0.237943
0.233898
0.228981
0.22313
0.216286
0.208456
0.199426
0.190601
0.174269
0.178087
0.178357
0.178852
0.179739
0.181218
0.183523
0.186966
0.192005
0.199295
0.209702
0.224269
0.244123
0.270282
0.303407
0.343555
0.390072
0.441891
0.497759
0.55546
0.612587
0.667039
0.717309
0.762548
0.802459
0.837083
0.866555
0.890901
0.909901
0.923027
0.929463
0.92816
0.917954
0.89769
0.866387
0.82342
0.768733
0.703088
0.628336
0.547656
0.465649
0.38806
0.320871
0.268678
0.23301
0.211974
0.201792
0.198789
0.200282
0.204492
0.210218
0.216626
0.223119
0.229284
0.234842
0.239627
0.243557
0.24662
0.248855
0.250337
0.251161
0.25143
0.251249
0.250716
0.249922
0.248944
0.247852
0.246704
0.245548
0.244427
0.243373
0.242413
0.241566
0.240847
0.240263
0.239818
0.239508
0.239327
0.239263
0.2393
0.239417
0.239586
0.239775
0.239944
0.240049
0.240036
0.239846
0.239412
0.23866
0.237509
0.235872
0.233661
0.230787
0.227167
0.222726
0.217395
0.211115
0.203885
0.195491
0.187266
0.171876
0.173184
0.172885
0.172649
0.172516
0.172521
0.172702
0.173108
0.173803
0.17488
0.176471
0.178761
0.181995
0.186469
0.192501
0.2004
0.210425
0.222788
0.237516
0.254717
0.274338
0.296089
0.319447
0.343706
0.368058
0.391665
0.413722
0.43348
0.450238
0.463323
0.472061
0.475776
0.473826
0.465673
0.450997
0.429841
0.402758
0.370935
0.336247
0.301156
0.268397
0.240433
0.218836
0.203941
0.195038
0.19093
0.190431
0.192553
0.196501
0.201633
0.207419
0.213429
0.219319
0.224828
0.22977
0.234023
0.237528
0.240273
0.242286
0.243626
0.244369
0.244602
0.244414
0.24389
0.243108
0.24214
0.241047
0.239884
0.238695
0.237521
0.236395
0.235343
0.234387
0.233544
0.232824
0.232234
0.231777
0.231448
0.231241
0.231143
0.231138
0.231203
0.231307
0.231418
0.231494
0.231486
0.231342
0.230997
0.230383
0.229423
0.228031
0.226122
0.223608
0.220404
0.216431
0.211621
0.205909
0.199288
0.191542
0.18393
0.169502
0.172095
0.171569
0.171066
0.170594
0.170162
0.169784
0.169477
0.16926
0.169152
0.169181
0.169381
0.169796
0.170483
0.171506
0.17294
0.17486
0.17735
0.180338
0.18384
0.187892
0.192515
0.197706
0.203418
0.209552
0.215959
0.222432
0.22872
0.234528
0.239534
0.243401
0.245795
0.246417
0.245041
0.241566
0.236066
0.228837
0.220398
0.211453
0.202787
0.195131
0.18903
0.184786
0.182474
0.182007
0.183201
0.185812
0.189565
0.194168
0.199327
0.204765
0.210227
0.215496
0.220392
0.22478
0.228565
0.231697
0.234163
0.235983
0.237199
0.237875
0.238081
0.237892
0.237381
0.236619
0.235668
0.234585
0.233418
0.23221
0.230999
0.229816
0.228687
0.227636
0.22668
0.225832
0.225103
0.224496
0.224014
0.223653
0.223406
0.223258
0.223193
0.223185
0.223206
0.223219
0.223181
0.223045
0.222753
0.222241
0.221437
0.22026
0.218627
0.216449
0.213643
0.210128
0.205832
0.200686
0.194676
0.187583
0.18059
0.167138
0.172324
0.171695
0.171076
0.170471
0.169885
0.169323
0.168789
0.168289
0.16783
0.167421
0.16707
0.166793
0.166604
0.166521
0.166565
0.166756
0.167108
0.167608
0.168248
0.169021
0.169923
0.170949
0.172088
0.173324
0.17463
0.175972
0.177301
0.178562
0.179688
0.18061
0.181256
0.181563
0.181486
0.181006
0.180146
0.178978
0.177623
0.176247
0.175041
0.174203
0.173909
0.1743
0.175465
0.177441
0.180205
0.183687
0.187769
0.192306
0.197131
0.202072
0.206962
0.211646
0.215991
0.219892
0.22327
0.226079
0.228304
0.229956
0.231066
0.231684
0.231868
0.231683
0.23119
0.230452
0.229524
0.228457
0.227296
0.22608
0.224845
0.22362
0.22243
0.221299
0.220245
0.219282
0.218422
0.217673
0.217039
0.21652
0.216114
0.215811
0.215598
0.215456
0.21536
0.21528
0.215181
0.215018
0.214742
0.214295
0.213611
0.212614
0.211224
0.209357
0.206926
0.203851
0.200056
0.195468
0.190063
0.183623
0.17725
0.164778
0.172898
0.172236
0.171577
0.170923
0.170278
0.169643
0.169023
0.168421
0.16784
0.167284
0.166757
0.166262
0.165805
0.165392
0.165031
0.16473
0.164493
0.16432
0.164211
0.16416
0.164163
0.164215
0.164311
0.164446
0.164612
0.164802
0.165008
0.165219
0.165424
0.165614
0.165778
0.165912
0.166015
0.166097
0.166177
0.166288
0.166477
0.166806
0.167348
0.16818
0.169379
0.171011
0.17312
0.175729
0.178826
0.18237
0.18629
0.19049
0.194861
0.199281
0.203629
0.207787
0.21165
0.215128
0.218155
0.220686
0.222703
0.224209
0.225228
0.225798
0.225966
0.225786
0.225313
0.224601
0.223699
0.222654
0.221506
0.220292
0.219044
0.21779
0.216555
0.215359
0.214222
0.213159
0.212182
0.211301
0.210523
0.209851
0.209285
0.208821
0.20845
0.208158
0.207926
0.20773
0.207539
0.207318
0.207023
0.206605
0.206003
0.20515
0.203969
0.202379
0.200296
0.197637
0.194323
0.190278
0.185468
0.179671
0.173913
0.16242
0.173446
0.172784
0.172123
0.171462
0.170804
0.170151
0.169507
0.168873
0.168253
0.167648
0.167061
0.166493
0.165949
0.165429
0.164937
0.164476
0.164048
0.163656
0.163301
0.162982
0.1627
0.162452
0.162237
0.162054
0.161901
0.161779
0.161687
0.161625
0.161595
0.161599
0.161644
0.161735
0.161885
0.162107
0.162421
0.162854
0.163437
0.164205
0.165201
0.166464
0.168036
0.169949
0.172223
0.174866
0.177863
0.181181
0.184769
0.188557
0.192462
0.196393
0.200255
0.203952
0.207396
0.21051
0.213234
0.215526
0.217363
0.218744
0.219684
0.220213
0.220369
0.220197
0.219745
0.21906
0.218187
0.217167
0.216038
0.214833
0.213581
0.21231
0.211042
0.209797
0.208593
0.207446
0.206368
0.20537
0.20446
0.203644
0.202925
0.202302
0.20177
0.201321
0.200939
0.200608
0.200304
0.199997
0.199653
0.199228
0.198672
0.197925
0.196915
0.195567
0.193798
0.191525
0.188668
0.185143
0.180909
0.175741
0.170585
0.16006
0.173855
0.173207
0.172557
0.171905
0.171255
0.170606
0.169963
0.169326
0.168699
0.168083
0.167481
0.166894
0.166325
0.165773
0.165241
0.164731
0.164243
0.163779
0.163341
0.162929
0.162546
0.162191
0.161866
0.161572
0.16131
0.161083
0.160894
0.160745
0.160642
0.160592
0.160603
0.160684
0.160849
0.161112
0.161493
0.162012
0.162694
0.163564
0.164651
0.16598
0.167577
0.169459
0.171637
0.17411
0.176864
0.179872
0.183094
0.186474
0.189948
0.193442
0.196877
0.200175
0.203258
0.206059
0.208522
0.210605
0.212286
0.213558
0.21443
0.214923
0.21507
0.214908
0.214478
0.213821
0.212978
0.211986
0.210879
0.209688
0.208441
0.207162
0.205872
0.204591
0.203336
0.202121
0.200959
0.19986
0.198835
0.19789
0.197029
0.196255
0.195567
0.194959
0.194424
0.193948
0.193514
0.1931
0.19268
0.192218
0.191673
0.190993
0.190116
0.188971
0.18748
0.185559
0.183126
0.180093
0.17641
0.171849
0.167277
0.157701
0.174117
0.173485
0.17285
0.172213
0.171576
0.17094
0.170307
0.169679
0.169058
0.168446
0.167845
0.167257
0.166683
0.166125
0.165584
0.16506
0.164555
0.16407
0.163606
0.163165
0.162747
0.162355
0.161991
0.161656
0.161354
0.161087
0.160861
0.160679
0.160548
0.160475
0.160469
0.16054
0.160701
0.160965
0.161349
0.16187
0.162548
0.163402
0.164455
0.165724
0.167226
0.168972
0.170969
0.173213
0.175694
0.178387
0.181259
0.184268
0.187358
0.19047
0.193537
0.19649
0.199261
0.201791
0.204026
0.205928
0.207472
0.208648
0.209459
0.209922
0.210062
0.20991
0.209502
0.208873
0.208061
0.207097
0.206016
0.204843
0.203606
0.202327
0.201027
0.199722
0.198429
0.197161
0.195931
0.19475
0.193627
0.192569
0.191583
0.190672
0.189838
0.189079
0.188392
0.187768
0.187195
0.186661
0.186143
0.185618
0.185053
0.184405
0.183623
0.182641
0.181387
0.17978
0.177734
0.175159
0.171994
0.168012
0.163999
0.155345
0.174266
0.173647
0.173025
0.172401
0.171777
0.171153
0.170531
0.169913
0.169301
0.168696
0.168101
0.167517
0.166946
0.166388
0.165846
0.16532
0.164811
0.164321
0.163849
0.163398
0.162969
0.162564
0.162185
0.161834
0.161515
0.161231
0.160987
0.160788
0.16064
0.16055
0.160528
0.160582
0.160724
0.160967
0.161324
0.16181
0.162441
0.163235
0.164206
0.16537
0.166738
0.16832
0.170118
0.172131
0.174347
0.176749
0.179308
0.181988
0.184744
0.187525
0.190272
0.192925
0.195426
0.197718
0.199754
0.201495
0.202917
0.204007
0.204765
0.205201
0.205335
0.205193
0.204806
0.204205
0.203423
0.20249
0.201435
0.200285
0.199063
0.19779
0.196486
0.195168
0.193849
0.192543
0.191261
0.190014
0.188811
0.187659
0.186565
0.185534
0.184569
0.183672
0.182842
0.182074
0.181363
0.1807
0.180072
0.179464
0.178853
0.178205
0.17748
0.176622
0.175564
0.174228
0.172529
0.170372
0.167689
0.16425
0.160766
0.152997
0.174341
0.17373
0.173117
0.172503
0.171888
0.171274
0.170661
0.170051
0.169446
0.168848
0.168258
0.167677
0.167108
0.166552
0.166009
0.165482
0.16497
0.164476
0.164
0.163544
0.163109
0.162696
0.162308
0.161948
0.161618
0.161323
0.161066
0.160852
0.160688
0.160581
0.160538
0.160569
0.160683
0.160891
0.161207
0.161641
0.162209
0.162924
0.163799
0.164845
0.166073
0.16749
0.169098
0.170894
0.172871
0.175012
0.177295
0.179687
0.182152
0.184643
0.187111
0.189504
0.191766
0.193849
0.195708
0.197306
0.198618
0.199629
0.200337
0.200748
0.200877
0.200745
0.200379
0.199805
0.199053
0.19815
0.197124
0.195998
0.194794
0.193533
0.192233
0.190908
0.189574
0.188242
0.186922
0.185625
0.184359
0.183132
0.181949
0.180817
0.17974
0.178721
0.177762
0.176861
0.176017
0.175226
0.174483
0.173779
0.173101
0.172427
0.171727
0.170954
0.170051
0.168943
0.167547
0.165764
0.16352
0.160584
0.157593
0.150665
0.174373
0.173768
0.17316
0.172551
0.171942
0.171334
0.170726
0.170122
0.169521
0.168927
0.168339
0.16776
0.167191
0.166633
0.166089
0.165558
0.165042
0.164543
0.164061
0.163598
0.163155
0.162734
0.162337
0.161967
0.161626
0.161318
0.161047
0.160817
0.160635
0.160507
0.16044
0.160442
0.160522
0.16069
0.160956
0.161333
0.161831
0.162463
0.163239
0.16417
0.165263
0.166525
0.167957
0.169558
0.171321
0.173231
0.17527
0.17741
0.179619
0.181857
0.18408
0.186241
0.188292
0.190188
0.191887
0.193355
0.194567
0.195507
0.196168
0.196555
0.196678
0.196556
0.196208
0.19566
0.194938
0.194065
0.193068
0.191967
0.190785
0.18954
0.188248
0.186925
0.185584
0.184235
0.18289
0.181557
0.180244
0.178958
0.177706
0.176492
0.175323
0.174201
0.17313
0.172111
0.171146
0.170234
0.169377
0.168572
0.167815
0.167094
0.16639
0.165669
0.16488
0.163957
0.162818
0.161364
0.159513
0.157034
0.154497
0.148359
0.174385
0.173782
0.173177
0.172571
0.171965
0.171359
0.170755
0.170152
0.169554
0.16896
0.168372
0.167792
0.167221
0.16666
0.166111
0.165575
0.165052
0.164545
0.164055
0.163583
0.16313
0.162698
0.162289
0.161906
0.161551
0.161228
0.16094
0.160692
0.160489
0.160336
0.160241
0.160211
0.160254
0.160379
0.160594
0.160911
0.16134
0.16189
0.16257
0.163391
0.164359
0.165478
0.166752
0.168177
0.169748
0.171453
0.173276
0.175193
0.177175
0.179187
0.181192
0.183147
0.185008
0.186735
0.188289
0.189638
0.190757
0.191629
0.192247
0.19261
0.192727
0.192612
0.192282
0.191759
0.191064
0.190222
0.189253
0.18818
0.187021
0.185794
0.184515
0.183199
0.181858
0.180502
0.179141
0.177784
0.176437
0.175109
0.173803
0.172527
0.171284
0.170079
0.168916
0.167798
0.166727
0.165708
0.164744
0.163839
0.162997
0.162216
0.161487
0.160788
0.160077
0.159297
0.15837
0.157196
0.15569
0.153622
0.151494
0.146089
0.174387
0.173785
0.173181
0.172577
0.171972
0.171367
0.170763
0.170161
0.169562
0.168968
0.168378
0.167795
0.16722
0.166655
0.166099
0.165556
0.165025
0.164509
0.164008
0.163524
0.163059
0.162614
0.162191
0.161793
0.161421
0.16108
0.160773
0.160504
0.160277
0.160098
0.159974
0.15991
0.159914
0.159994
0.160159
0.160416
0.160777
0.161248
0.161839
0.162557
0.163409
0.164398
0.165527
0.166793
0.168192
0.169714
0.171343
0.17306
0.174838
0.176649
0.178457
0.180225
0.181915
0.183488
0.184909
0.186148
0.18718
0.187988
0.188563
0.188903
0.189013
0.188903
0.188588
0.188087
0.18742
0.186606
0.185666
0.18462
0.183486
0.18228
0.181018
0.179713
0.178377
0.17702
0.175652
0.174281
0.172913
0.171555
0.170212
0.168889
0.167592
0.166323
0.165087
0.163889
0.162731
0.16162
0.160562
0.159565
0.158639
0.157791
0.157022
0.15632
0.155657
0.154982
0.154223
0.153283
0.152072
0.150365
0.148601
0.143867
0.174386
0.173784
0.173181
0.172576
0.171971
0.171367
0.170762
0.17016
0.16956
0.168963
0.168371
0.167784
0.167205
0.166633
0.166071
0.165519
0.164979
0.164452
0.16394
0.163444
0.162965
0.162505
0.162067
0.161652
0.161262
0.160902
0.160574
0.160282
0.16003
0.159823
0.159668
0.159569
0.159535
0.15957
0.159685
0.159885
0.16018
0.160577
0.161083
0.161706
0.16245
0.16332
0.164317
0.165439
0.166682
0.168037
0.169491
0.171026
0.172621
0.174249
0.175878
0.177476
0.179008
0.18044
0.181738
0.182874
0.183824
0.184572
0.185105
0.185421
0.185522
0.185416
0.185115
0.184635
0.183992
0.183206
0.182295
0.181276
0.180167
0.178983
0.17774
0.17645
0.175124
0.173772
0.172404
0.171027
0.169647
0.168271
0.166903
0.165549
0.164212
0.162897
0.161607
0.160347
0.159121
0.157936
0.156799
0.155722
0.154719
0.153803
0.152986
0.152265
0.151623
0.151019
0.150389
0.149638
0.148675
0.147278
0.145832
0.141705
0.174384
0.173782
0.173178
0.172573
0.171968
0.171363
0.170758
0.170154
0.169552
0.168953
0.168358
0.167767
0.167182
0.166605
0.166035
0.165475
0.164926
0.164389
0.163865
0.163356
0.162863
0.162388
0.161933
0.161501
0.161093
0.160712
0.160363
0.160047
0.15977
0.159535
0.159349
0.159216
0.159142
0.159135
0.1592
0.159345
0.159578
0.159904
0.160331
0.160865
0.16151
0.162269
0.163144
0.164134
0.165234
0.166437
0.167731
0.169102
0.170529
0.171989
0.173455
0.174897
0.176284
0.177585
0.178768
0.179808
0.180681
0.18137
0.181862
0.182154
0.182245
0.182141
0.181851
0.181389
0.180769
0.180009
0.179124
0.178133
0.177049
0.175889
0.174667
0.173394
0.172081
0.17074
0.169377
0.168001
0.166617
0.165232
0.16385
0.162476
0.161114
0.159767
0.15844
0.157136
0.15586
0.154618
0.153419
0.152276
0.151206
0.150228
0.149359
0.148608
0.147969
0.147409
0.146871
0.146268
0.145507
0.144373
0.1432
0.139612
0.174381
0.173778
0.173175
0.17257
0.171964
0.171358
0.170752
0.170146
0.169542
0.168941
0.168342
0.167748
0.167158
0.166575
0.165998
0.16543
0.164872
0.164325
0.163789
0.163267
0.162761
0.162271
0.161801
0.161351
0.160924
0.160524
0.160153
0.159814
0.159511
0.159248
0.159031
0.158864
0.158753
0.158704
0.158722
0.158815
0.158988
0.159248
0.159601
0.160051
0.160603
0.16126
0.162023
0.162891
0.163859
0.164923
0.166071
0.167289
0.168562
0.169869
0.171184
0.172483
0.173735
0.174914
0.17599
0.176939
0.177739
0.178371
0.178823
0.17909
0.179169
0.179064
0.178783
0.178337
0.177738
0.177002
0.176143
0.175177
0.17412
0.172984
0.171784
0.17053
0.169235
0.167906
0.166554
0.165184
0.163803
0.162417
0.16103
0.159646
0.15827
0.156904
0.155553
0.15422
0.15291
0.151628
0.150383
0.149189
0.148065
0.147032
0.146114
0.145328
0.144677
0.144139
0.143665
0.143173
0.142573
0.141657
0.140712
0.1376
0.174378
0.173775
0.173171
0.172565
0.171959
0.171352
0.170745
0.170138
0.169532
0.168928
0.168326
0.167728
0.167134
0.166545
0.165962
0.165387
0.16482
0.164263
0.163717
0.163183
0.162664
0.16216
0.161674
0.161207
0.160763
0.160343
0.159951
0.159589
0.159262
0.158972
0.158726
0.158526
0.158379
0.158289
0.158263
0.158305
0.158422
0.158619
0.158902
0.159274
0.15974
0.160302
0.16096
0.161715
0.162562
0.163497
0.164509
0.165588
0.166719
0.167884
0.16906
0.170225
0.171353
0.172418
0.173394
0.174257
0.174986
0.175563
0.175976
0.176216
0.176282
0.176175
0.1759
0.175467
0.174886
0.174172
0.173338
0.172398
0.171365
0.170254
0.169077
0.167845
0.166569
0.165258
0.163919
0.16256
0.161188
0.159806
0.158421
0.157036
0.155655
0.154281
0.152917
0.151568
0.150236
0.148928
0.147653