/*--------------------------------*- C++ -*----------------------------------*\
  =========                 |
  \\      /  F ield         | OpenFOAM: The Open Source CFD Toolbox
   \\    /   O peration     | Website:  https://openfoam.org
    \\  /    A nd           | Version:  10
     \\/     M anipulation  |
\*---------------------------------------------------------------------------*/
FoamFile
{
    format      ascii;
    class       volScalarField;
    location    "0.09";
    object      nut;
}
// * * * * * * * * * * * * * * * * * * * * * * * * * * * * * * * * * * * * * //

dimensions      [0 2 -1 0 0 0 0];

internalField   nonuniform List<scalar> 
6820
(
0.000149484
0.000144853
0.000140581
0.000136577
0.000132833
0.000129377
0.000126234
0.000123417
0.000120923
0.000118737
0.00011684
0.000115207
0.000113814
0.000112636
0.000111651
0.000110838
0.000110179
0.000109654
0.00010925
0.000108952
0.000108747
0.000108625
0.000108576
0.000108591
0.000108662
0.000108783
0.000108943
0.000109157
0.000109333
0.000109873
0.000108873
0.000115231
8.71901e-05
0.000729198
0.00053239
0.000448009
0.000399703
0.000368374
0.000346724
0.00033108
0.000319349
0.000310261
0.000303012
0.00029708
0.00029212
0.000287895
0.000284241
0.00028104
0.000278207
0.000275675
0.000273395
0.000271329
0.000269446
0.00026772
0.000266132
0.000264665
0.000263306
0.000262043
0.000260865
0.000259768
0.00025874
0.000257786
0.000256893
0.0002561
0.00025522
0.000256376
0.000976776
0.000872181
0.000781621
0.000711261
0.000657313
0.00061527
0.000581695
0.00055423
0.000531288
0.000511786
0.000494964
0.000480273
0.000467311
0.000455771
0.00044542
0.000436072
0.000427583
0.000419834
0.00041273
0.000406192
0.000400153
0.000394558
0.000389359
0.000384516
0.000379991
0.000375755
0.000371775
0.000368029
0.000364482
0.000361118
0.000357863
0.000354669
0.000351271
0.00101349
0.00098823
0.000949374
0.000906192
0.000864422
0.000826377
0.000792542
0.000762651
0.000736209
0.000712706
0.000691688
0.000672772
0.00065564
0.000640036
0.000625745
0.000612595
0.000600442
0.000589165
0.000578666
0.000568859
0.000559674
0.000551048
0.000542928
0.000535269
0.000528029
0.000521172
0.000514665
0.000508479
0.000502581
0.000496951
0.000491537
0.000486353
0.000481225
0.00101671
0.00101241
0.00100191
0.00098566
0.000965602
0.000943709
0.000921416
0.000899602
0.000878733
0.00085902
0.000840521
0.000823213
0.000807034
0.000791903
0.000777734
0.000764445
0.000751956
0.000740197
0.000729102
0.000718612
0.000708677
0.000699249
0.000690288
0.000681754
0.000673615
0.000665841
0.000658402
0.000651273
0.000644427
0.000637843
0.000631487
0.00062535
0.000619372
0.00101676
0.00101592
0.0010136
0.00100903
0.00100204
0.000992918
0.000982188
0.000970393
0.000957998
0.000945363
0.000932746
0.000920321
0.000908202
0.000896458
0.000885124
0.000874218
0.000863741
0.000853687
0.000844041
0.000834789
0.000825911
0.000817389
0.000809203
0.000801335
0.000793765
0.000786476
0.000779451
0.000772672
0.000766121
0.000759784
0.000753641
0.00074768
0.00074188
0.00101671
0.00101623
0.00101553
0.00101428
0.00101219
0.0010091
0.00100496
0.000999889
0.000994016
0.000987514
0.000980549
0.000973268
0.000965793
0.000958224
0.000950638
0.000943096
0.000935641
0.000928307
0.000921116
0.000914084
0.00090722
0.000900531
0.000894019
0.000887682
0.00088152
0.000875527
0.000869699
0.00086403
0.000858513
0.000853141
0.000847906
0.0008428
0.000837816
0.0010167
0.00101622
0.00101574
0.00101518
0.00101442
0.00101335
0.00101188
0.00100995
0.00100755
0.0010047
0.00100144
0.00099782
0.0009939
0.000989738
0.000985387
0.000980897
0.000976309
0.00097166
0.00096698
0.000962295
0.000957624
0.000952985
0.000948391
0.000943851
0.000939374
0.000934966
0.000930629
0.000926367
0.00092218
0.00091807
0.000914034
0.000910073
0.000906184
0.0010167
0.00101621
0.00101575
0.00101528
0.0010148
0.00101425
0.00101359
0.00101279
0.00101179
0.00101059
0.00100917
0.00100753
0.00100568
0.00100364
0.00100142
0.000999051
0.000996545
0.000993927
0.000991217
0.000988434
0.000985595
0.000982713
0.000979804
0.000976877
0.000973943
0.000971011
0.000968087
0.000965177
0.000962286
0.000959418
0.000956575
0.000953762
0.00095098
0.0010167
0.00101621
0.00101574
0.00101529
0.00101484
0.00101439
0.00101393
0.00101344
0.0010129
0.00101229
0.0010116
0.00101082
0.00100993
0.00100895
0.00100786
0.00100667
0.00100539
0.00100402
0.00100257
0.00100104
0.000999456
0.000997813
0.000996123
0.000994392
0.000992628
0.000990838
0.000989027
0.0009872
0.000985363
0.000983519
0.000981673
0.000979828
0.000977987
0.0010167
0.00101621
0.00101574
0.00101528
0.00101484
0.00101441
0.00101398
0.00101356
0.00101313
0.0010127
0.00101224
0.00101176
0.00101125
0.00101069
0.0010101
0.00100946
0.00100878
0.00100804
0.00100726
0.00100644
0.00100557
0.00100466
0.00100372
0.00100274
0.00100173
0.00100069
0.000999633
0.00099855
0.00099745
0.000996334
0.000995207
0.000994069
0.000992925
0.0010167
0.00101621
0.00101574
0.00101528
0.00101484
0.0010144
0.00101398
0.00101357
0.00101317
0.00101277
0.00101238
0.00101199
0.00101159
0.00101119
0.00101078
0.00101035
0.00100991
0.00100945
0.00100898
0.00100848
0.00100797
0.00100743
0.00100688
0.0010063
0.00100571
0.00100511
0.00100448
0.00100384
0.00100319
0.00100252
0.00100185
0.00100116
0.00100047
0.0010167
0.00101621
0.00101574
0.00101528
0.00101483
0.0010144
0.00101398
0.00101357
0.00101317
0.00101278
0.0010124
0.00101203
0.00101167
0.0010113
0.00101095
0.00101059
0.00101024
0.00100988
0.00100952
0.00100916
0.00100879
0.00100842
0.00100804
0.00100766
0.00100727
0.00100688
0.00100647
0.00100606
0.00100565
0.00100523
0.0010048
0.00100438
0.00100394
0.0010167
0.00101621
0.00101574
0.00101528
0.00101483
0.0010144
0.00101398
0.00101357
0.00101317
0.00101278
0.0010124
0.00101203
0.00101168
0.00101132
0.00101098
0.00101065
0.00101032
0.00100999
0.00100967
0.00100936
0.00100904
0.00100873
0.00100843
0.00100812
0.00100781
0.00100751
0.00100721
0.0010069
0.0010066
0.00100629
0.00100599
0.00100569
0.00100539
0.0010167
0.00101621
0.00101574
0.00101528
0.00101483
0.0010144
0.00101398
0.00101357
0.00101317
0.00101278
0.0010124
0.00101203
0.00101167
0.00101133
0.00101099
0.00101065
0.00101033
0.00101001
0.00100971
0.0010094
0.00100911
0.00100882
0.00100853
0.00100825
0.00100798
0.00100771
0.00100744
0.00100718
0.00100692
0.00100667
0.00100642
0.00100617
0.00100593
0.0010167
0.00101621
0.00101574
0.00101528
0.00101483
0.0010144
0.00101397
0.00101356
0.00101316
0.00101278
0.0010124
0.00101203
0.00101167
0.00101132
0.00101098
0.00101065
0.00101033
0.00101002
0.00100971
0.00100941
0.00100912
0.00100884
0.00100856
0.00100829
0.00100802
0.00100776
0.00100751
0.00100726
0.00100702
0.00100679
0.00100656
0.00100633
0.00100611
0.0010167
0.00101621
0.00101574
0.00101528
0.00101483
0.0010144
0.00101397
0.00101356
0.00101316
0.00101277
0.0010124
0.00101203
0.00101167
0.00101132
0.00101098
0.00101065
0.00101033
0.00101001
0.00100971
0.00100941
0.00100912
0.00100884
0.00100856
0.00100829
0.00100803
0.00100777
0.00100753
0.00100728
0.00100705
0.00100682
0.00100659
0.00100638
0.00100617
0.0010167
0.00101621
0.00101574
0.00101528
0.00101483
0.0010144
0.00101397
0.00101356
0.00101316
0.00101277
0.00101239
0.00101203
0.00101167
0.00101132
0.00101098
0.00101065
0.00101032
0.00101001
0.0010097
0.00100941
0.00100912
0.00100883
0.00100856
0.00100829
0.00100803
0.00100777
0.00100753
0.00100729
0.00100705
0.00100682
0.0010066
0.00100639
0.00100618
0.0010167
0.00101621
0.00101574
0.00101528
0.00101483
0.00101439
0.00101397
0.00101356
0.00101316
0.00101277
0.00101239
0.00101202
0.00101166
0.00101132
0.00101098
0.00101064
0.00101032
0.00101001
0.0010097
0.0010094
0.00100911
0.00100883
0.00100856
0.00100829
0.00100803
0.00100777
0.00100752
0.00100728
0.00100705
0.00100682
0.0010066
0.00100638
0.00100618
0.0010167
0.00101621
0.00101574
0.00101528
0.00101483
0.00101439
0.00101397
0.00101356
0.00101316
0.00101277
0.00101239
0.00101202
0.00101166
0.00101131
0.00101097
0.00101064
0.00101032
0.00101
0.0010097
0.0010094
0.00100911
0.00100883
0.00100855
0.00100828
0.00100802
0.00100777
0.00100752
0.00100728
0.00100705
0.00100682
0.0010066
0.00100638
0.00100617
0.0010167
0.00101621
0.00101574
0.00101528
0.00101483
0.00101439
0.00101397
0.00101356
0.00101316
0.00101277
0.00101239
0.00101202
0.00101166
0.00101131
0.00101097
0.00101064
0.00101032
0.00101
0.0010097
0.0010094
0.00100911
0.00100882
0.00100855
0.00100828
0.00100802
0.00100777
0.00100752
0.00100728
0.00100704
0.00100681
0.00100659
0.00100638
0.00100617
0.0010167
0.00101621
0.00101574
0.00101528
0.00101483
0.00101439
0.00101397
0.00101356
0.00101316
0.00101277
0.00101239
0.00101202
0.00101166
0.00101131
0.00101097
0.00101064
0.00101032
0.00101
0.00100969
0.0010094
0.00100911
0.00100882
0.00100855
0.00100828
0.00100802
0.00100776
0.00100751
0.00100727
0.00100704
0.00100681
0.00100659
0.00100637
0.00100616
0.0010167
0.00101621
0.00101574
0.00101528
0.00101483
0.00101439
0.00101397
0.00101356
0.00101316
0.00101277
0.00101239
0.00101202
0.00101166
0.00101131
0.00101097
0.00101064
0.00101031
0.00101
0.00100969
0.00100939
0.0010091
0.00100882
0.00100854
0.00100828
0.00100801
0.00100776
0.00100751
0.00100727
0.00100703
0.00100681
0.00100658
0.00100637
0.00100616
0.0010167
0.00101621
0.00101574
0.00101528
0.00101483
0.00101439
0.00101397
0.00101356
0.00101316
0.00101277
0.00101239
0.00101202
0.00101166
0.00101131
0.00101097
0.00101064
0.00101031
0.00101
0.00100969
0.00100939
0.0010091
0.00100882
0.00100854
0.00100827
0.00100801
0.00100776
0.00100751
0.00100727
0.00100703
0.0010068
0.00100658
0.00100636
0.00100615
0.0010167
0.00101621
0.00101574
0.00101528
0.00101483
0.00101439
0.00101397
0.00101356
0.00101316
0.00101277
0.00101239
0.00101202
0.00101166
0.00101131
0.00101097
0.00101063
0.00101031
0.00101
0.00100969
0.00100939
0.0010091
0.00100882
0.00100854
0.00100827
0.00100801
0.00100775
0.0010075
0.00100726
0.00100703
0.0010068
0.00100657
0.00100636
0.00100614
0.0010167
0.00101621
0.00101574
0.00101528
0.00101483
0.00101439
0.00101397
0.00101356
0.00101316
0.00101277
0.00101239
0.00101202
0.00101166
0.00101131
0.00101097
0.00101063
0.00101031
0.00100999
0.00100969
0.00100939
0.0010091
0.00100881
0.00100854
0.00100827
0.00100801
0.00100775
0.0010075
0.00100726
0.00100702
0.00100679
0.00100657
0.00100635
0.00100614
0.0010167
0.00101621
0.00101574
0.00101528
0.00101483
0.00101439
0.00101397
0.00101356
0.00101316
0.00101277
0.00101239
0.00101202
0.00101166
0.00101131
0.00101097
0.00101063
0.00101031
0.00100999
0.00100969
0.00100939
0.0010091
0.00100881
0.00100854
0.00100827
0.001008
0.00100775
0.0010075
0.00100725
0.00100702
0.00100679
0.00100656
0.00100634
0.00100613
0.0010167
0.00101621
0.00101574
0.00101528
0.00101483
0.00101439
0.00101397
0.00101356
0.00101316
0.00101277
0.00101239
0.00101202
0.00101166
0.00101131
0.00101096
0.00101063
0.00101031
0.00100999
0.00100969
0.00100939
0.00100909
0.00100881
0.00100853
0.00100826
0.001008
0.00100774
0.00100749
0.00100725
0.00100701
0.00100678
0.00100656
0.00100634
0.00100613
0.0010167
0.00101621
0.00101574
0.00101528
0.00101483
0.00101439
0.00101397
0.00101356
0.00101316
0.00101277
0.00101239
0.00101202
0.00101166
0.00101131
0.00101096
0.00101063
0.00101031
0.00100999
0.00100969
0.00100939
0.00100909
0.00100881
0.00100853
0.00100826
0.001008
0.00100774
0.00100749
0.00100725
0.00100701
0.00100678
0.00100655
0.00100634
0.00100612
0.0010167
0.00101621
0.00101574
0.00101528
0.00101483
0.00101439
0.00101397
0.00101356
0.00101316
0.00101277
0.00101239
0.00101202
0.00101166
0.00101131
0.00101097
0.00101063
0.00101031
0.00100999
0.00100969
0.00100939
0.00100909
0.00100881
0.00100853
0.00100826
0.001008
0.00100774
0.00100749
0.00100725
0.00100701
0.00100678
0.00100655
0.00100633
0.00100612
0.0010167
0.00101621
0.00101574
0.00101528
0.00101483
0.00101439
0.00101397
0.00101356
0.00101316
0.00101277
0.00101239
0.00101202
0.00101166
0.00101131
0.00101097
0.00101063
0.00101031
0.00101
0.00100969
0.00100939
0.0010091
0.00100881
0.00100853
0.00100826
0.001008
0.00100774
0.00100749
0.00100724
0.00100701
0.00100677
0.00100654
0.00100632
0.00100611
0.0010167
0.00101621
0.00101574
0.00101528
0.00101483
0.0010144
0.00101397
0.00101356
0.00101316
0.00101277
0.00101239
0.00101203
0.00101167
0.00101131
0.00101097
0.00101064
0.00101032
0.00101
0.00100969
0.00100939
0.0010091
0.00100881
0.00100853
0.00100825
0.00100799
0.00100773
0.00100747
0.00100722
0.00100698
0.00100674
0.0010065
0.00100627
0.00100605
0.0010167
0.00101621
0.00101574
0.00101528
0.00101483
0.0010144
0.00101398
0.00101357
0.00101317
0.00101278
0.0010124
0.00101203
0.00101167
0.00101132
0.00101097
0.00101064
0.00101031
0.00100998
0.00100967
0.00100936
0.00100905
0.00100875
0.00100846
0.00100817
0.00100788
0.0010076
0.00100732
0.00100705
0.00100678
0.00100651
0.00100625
0.00100599
0.00100573
0.0010167
0.00101621
0.00101574
0.00101529
0.00101484
0.00101441
0.00101399
0.00101358
0.00101318
0.00101279
0.0010124
0.00101202
0.00101164
0.00101127
0.0010109
0.00101053
0.00101016
0.00100979
0.00100943
0.00100906
0.00100869
0.00100832
0.00100795
0.00100757
0.00100719
0.00100681
0.00100643
0.00100605
0.00100566
0.00100527
0.00100488
0.00100448
0.00100409
0.0010167
0.00101622
0.00101575
0.0010153
0.00101485
0.00101441
0.00101397
0.00101352
0.00101307
0.00101262
0.00101214
0.00101166
0.00101115
0.00101063
0.00101008
0.00100951
0.00100891
0.00100829
0.00100765
0.00100699
0.0010063
0.00100559
0.00100486
0.00100411
0.00100334
0.00100255
0.00100175
0.00100093
0.0010001
0.000999263
0.000998411
0.000997551
0.000996683
0.00101671
0.00101622
0.00101574
0.00101524
0.00101469
0.00101407
0.00101337
0.00101257
0.00101167
0.00101066
0.00100954
0.00100831
0.00100697
0.00100553
0.00100399
0.00100236
0.00100064
0.000998849
0.000996986
0.000995062
0.000993083
0.000991058
0.000988992
0.000986894
0.000984769
0.000982623
0.000980462
0.00097829
0.000976113
0.000973935
0.000971759
0.00096959
0.000967431
0.00101671
0.001016
0.00101488
0.00101325
0.00101112
0.00100847
0.00100532
0.00100169
0.000997624
0.000993172
0.000988388
0.000983325
0.000978035
0.000972564
0.000966957
0.000961254
0.000955488
0.000949689
0.000943885
0.000938098
0.000932346
0.000926646
0.000921012
0.000915454
0.000909983
0.000904605
0.000899328
0.000894154
0.000889089
0.000884135
0.000879293
0.000874566
0.000869952
0.0010153
0.00100706
0.000995508
0.000981405
0.000965375
0.000948031
0.000929931
0.000911522
0.00089314
0.000875022
0.000857335
0.000840186
0.000823644
0.000807744
0.000792501
0.000777915
0.000763974
0.00075066
0.000737952
0.000725824
0.00071425
0.000703204
0.000692658
0.000682588
0.000672969
0.000663775
0.000654986
0.000646578
0.000638532
0.000630827
0.000623447
0.000616374
0.000609589
0.000935928
0.000815557
0.000728194
0.000659297
0.000602451
0.000555237
0.000515757
0.000482425
0.000453991
0.00042949
0.000408181
0.000389491
0.000372976
0.000358286
0.000345142
0.000333319
0.000322636
0.000312942
0.000304113
0.000296043
0.000288646
0.000281846
0.000275578
0.000269787
0.000264424
0.000259449
0.000254822
0.000250514
0.000246493
0.000242736
0.000239219
0.000235922
0.000232827
0.000125477
0.000128847
0.000132096
0.000135204
0.000138173
0.000141007
0.000143711
0.000146289
0.000148745
0.000151084
0.000153311
0.000155429
0.000157442
0.000159355
0.000161173
0.000162898
0.000164536
0.000166089
0.000167563
0.00016896
0.000170284
0.000171538
0.000172727
0.000173853
0.00017492
0.000175929
0.000176885
0.00017779
0.000178646
0.000179457
0.000180223
0.000180948
0.000181635
0.000106342
0.00015043
0.000197315
0.000245819
0.000294067
0.000339785
0.000381692
0.000419878
0.000455523
0.000490192
0.000525333
0.00056185
0.000600056
0.000639903
0.000681268
0.000724201
0.000769026
0.000816225
0.000866293
0.000919617
0.000976429
0.00103679
0.00110058
0.00116746
0.0012368
0.00130772
0.00137903
0.00144927
0.0015168
0.00157986
0.00163654
0.00168491
0.00172298
0.00174878
0.00176036
0.0017558
0.00173333
0.00169132
0.00162845
0.00154387
0.00143754
0.00131091
0.00116812
0.00101827
0.000878703
0.000777925
0.000751759
0.000820251
0.000950201
0.0010768
0.00117266
0.00124407
0.00130058
0.00134727
0.00138639
0.00141916
0.00144645
0.00146908
0.00148784
0.00150347
0.00151668
0.00152807
0.00153821
0.00154754
0.00155647
0.00156531
0.0015743
0.00158363
0.00159339
0.00160365
0.00161439
0.00162556
0.00163705
0.00164875
0.00166052
0.00167224
0.00168377
0.00169499
0.0017058
0.00171612
0.00172589
0.0017351
0.00174373
0.00175179
0.0017593
0.00176618
0.00177228
0.00177729
0.00178067
0.00178164
0.00177918
0.00177208
0.0017591
0.00173905
0.00171102
0.00167451
0.00162966
0.00157624
0.00152163
0.00142549
0.000245975
0.000213343
0.000183111
0.000168912
0.000170457
0.000184877
0.00020962
0.000242364
0.000280707
0.000322137
0.000364395
0.00040591
0.000446017
0.00048483
0.000522983
0.000561218
0.000600302
0.00064074
0.000682799
0.000726666
0.000772561
0.000820742
0.000871411
0.000924609
0.000980111
0.00103739
0.0010956
0.0011536
0.00121
0.00126319
0.00131137
0.00135266
0.00138505
0.00140654
0.00141514
0.00140897
0.00138631
0.00134577
0.00128646
0.00120838
0.00111306
0.00100467
0.000891798
0.000789862
0.000722544
0.000717552
0.000787918
0.000906674
0.00102491
0.00111929
0.00119211
0.00125048
0.001299
0.00134002
0.0013748
0.00140416
0.0014288
0.00144937
0.00146654
0.00148092
0.0014931
0.00150362
0.00151295
0.00152151
0.00152966
0.00153768
0.00154583
0.00155429
0.00156319
0.00157262
0.00158259
0.0015931
0.00160408
0.00161544
0.00162706
0.00163882
0.00165058
0.00166222
0.00167361
0.00168465
0.00169525
0.00170535
0.00171493
0.00172397
0.00173243
0.00174026
0.00174728
0.00175318
0.00175745
0.00175931
0.00175778
0.00175167
0.00173975
0.00172087
0.00169415
0.00165908
0.0016158
0.00156407
0.0015111
0.00141743
0.000348421
0.000343296
0.000329816
0.000305157
0.000273577
0.000242325
0.000217185
0.000201369
0.000196082
0.00020122
0.000215911
0.000238803
0.000268214
0.000302289
0.000339233
0.000377483
0.000415825
0.00045365
0.000491004
0.000528331
0.000566205
0.000605135
0.000645455
0.000687298
0.000730599
0.000775098
0.000820316
0.000865524
0.000909726
0.000951654
0.0009898
0.00102246
0.00104781
0.00106398
0.00106916
0.0010617
0.0010403
0.00100425
0.000953808
0.000890873
0.000819898
0.000749225
0.000692397
0.000667983
0.000694008
0.000773177
0.000881785
0.000987886
0.00107635
0.00114736
0.0012054
0.00125413
0.00129579
0.00133163
0.00136238
0.00138861
0.00141083
0.00142955
0.00144529
0.00145855
0.00146984
0.00147959
0.00148823
0.00149611
0.00150357
0.00151086
0.00151823
0.00152586
0.00153391
0.00154247
0.0015516
0.00156133
0.00157163
0.00158243
0.00159366
0.00160519
0.00161692
0.00162871
0.00164042
0.00165194
0.00166316
0.00167398
0.00168436
0.00169423
0.00170356
0.00171226
0.00172016
0.00172693
0.00173209
0.00173488
0.00173433
0.0017293
0.00171857
0.00170103
0.00167581
0.0016424
0.00160092
0.00155111
0.00149999
0.00140909
0.000475669
0.000470004
0.000464179
0.000456676
0.00044601
0.000431032
0.000410642
0.000383858
0.000351155
0.000315717
0.0002827
0.000256762
0.000240399
0.00023401
0.000236781
0.000247393
0.000264489
0.000286603
0.000312408
0.000340718
0.000370586
0.000401378
0.000432758
0.000464613
0.000496936
0.000529701
0.000562755
0.000595741
0.000628053
0.000658828
0.000686964
0.000711175
0.000730064
0.000742234
0.000746432
0.000741756
0.000727933
0.000705718
0.000677438
0.000647689
0.00062403
0.000617088
0.000638556
0.000695085
0.00078049
0.00087707
0.00096824
0.00104665
0.00111212
0.00116712
0.00121414
0.00125498
0.00129069
0.00132192
0.00134907
0.00137251
0.00139258
0.00140965
0.00142413
0.00143641
0.00144691
0.001456
0.00146404
0.00147135
0.0014782
0.00148485
0.00149152
0.00149839
0.00150562
0.00151332
0.00152158
0.00153045
0.00153993
0.00155001
0.00156063
0.00157171
0.00158313
0.00159479
0.00160656
0.0016183
0.00162988
0.00164121
0.0016522
0.00166276
0.00167283
0.00168231
0.00169101
0.00169863
0.00170467
0.0017084
0.0017089
0.00170504
0.00169564
0.00167961
0.00165608
0.00162456
0.00158512
0.00153747
0.00148843
0.00140057
0.000612579
0.000605055
0.000597749
0.000590542
0.00058317
0.000575359
0.000566856
0.000557221
0.000545471
0.000529778
0.000507811
0.000478054
0.000441491
0.000401936
0.000364305
0.000332553
0.000308417
0.000292939
0.000285002
0.000283437
0.000287224
0.000295457
0.000307311
0.000322046
0.000339011
0.00035764
0.000377439
0.000397944
0.000418682
0.000439125
0.000458675
0.000476675
0.000492475
0.000505546
0.000515662
0.000523143
0.000529162
0.000536078
0.000547668
0.00056897
0.000605202
0.000659385
0.000729697
0.000809287
0.000889598
0.000964169
0.00103006
0.00108714
0.00113666
0.0011801
0.00121863
0.00125301
0.0012837
0.00131097
0.001335
0.001356
0.00137418
0.0013898
0.00140316
0.00141459
0.00142441
0.00143293
0.00144045
0.00144726
0.00145359
0.00145969
0.00146573
0.00147192
0.00147838
0.00148526
0.00149266
0.00150063
0.00150923
0.00151847
0.00152831
0.00153871
0.0015496
0.00156088
0.00157242
0.0015841
0.0015958
0.00160739
0.00161876
0.00162982
0.00164047
0.0016506
0.00166001
0.0016684
0.00167529
0.00167998
0.00168157
0.00167896
0.00167101
0.00165663
0.00163499
0.00160555
0.00156837
0.00152312
0.00147637
0.00139186
0.000735288
0.000727852
0.00072044
0.000713042
0.000705623
0.000698137
0.000690556
0.000682877
0.000675076
0.000666952
0.000657902
0.00064674
0.00063182
0.000611558
0.000585169
0.000553423
0.000518057
0.000484439
0.000454589
0.00042929
0.000408753
0.000392904
0.000381516
0.000374284
0.000370863
0.000370899
0.000374046
0.000379982
0.000388418
0.000399107
0.000411861
0.000426574
0.000443275
0.000462187
0.000483811
0.000508988
0.000538895
0.000574878
0.000618083
0.000668892
0.000726432
0.000788475
0.000851924
0.000913671
0.0009714
0.00102396
0.00107125
0.00111377
0.00115223
0.00118724
0.00121924
0.00124845
0.00127501
0.00129895
0.00132033
0.00133923
0.00135577
0.00137013
0.00138252
0.00139319
0.00140241
0.00141043
0.00141751
0.00142389
0.00142978
0.00143539
0.0014409
0.00144647
0.00145225
0.00145837
0.00146493
0.00147202
0.00147971
0.00148802
0.00149698
0.00150655
0.0015167
0.00152735
0.00153841
0.00154977
0.0015613
0.00157289
0.0015844
0.00159573
0.00160677
0.00161738
0.00162737
0.00163645
0.00164413
0.00164975
0.00165244
0.00165113
0.00164473
0.00163215
0.00161255
0.00158539
0.00155068
0.00150805
0.0014638
0.00138293
0.000832136
0.000825685
0.000819189
0.000812643
0.000806035
0.000799352
0.000792579
0.000785722
0.000778803
0.000771858
0.000764881
0.000757735
0.000750046
0.000741154
0.000730167
0.000716184
0.00069874
0.000678811
0.000657536
0.00063605
0.000615336
0.000596179
0.000579169
0.000564736
0.000553175
0.000544685
0.000539395
0.0005374
0.000538777
0.000543613
0.000552011
0.000564103
0.000580053
0.000600045
0.000624263
0.000652837
0.000685771
0.000722848
0.000763544
0.000806988
0.000852023
0.000897357
0.000941776
0.000984344
0.00102451
0.00106209
0.00109718
0.00113
0.00116075
0.0011896
0.00121659
0.0012417
0.00126489
0.00128608
0.00130523
0.00132235
0.00133749
0.00135075
0.0013623
0.00137232
0.00138101
0.0013886
0.00139529
0.0014013
0.00140681
0.001412
0.00141704
0.00142208
0.00142725
0.00143267
0.00143846
0.00144471
0.00145149
0.00145886
0.00146686
0.0014755
0.00148476
0.0014946
0.00150496
0.00151574
0.00152684
0.00153815
0.00154953
0.00156089
0.00157208
0.00158298
0.00159339
0.00160301
0.00161139
0.00161789
0.00162166
0.0016217
0.0016169
0.00160623
0.00158882
0.00156411
0.00153207
0.00149225
0.0014507
0.00137373
0.00090173
0.000896636
0.000891469
0.000886225
0.000880899
0.000875486
0.000869983
0.000864392
0.000858726
0.000853011
0.000847287
0.000841586
0.000835905
0.000830163
0.000824159
0.000817533
0.000810011
0.000801414
0.000791762
0.000781267
0.000770281
0.000759234
0.000748584
0.000738786
0.000730262
0.00072339
0.000718501
0.000715884
0.000715785
0.000718415
0.000723953
0.000732541
0.000744276
0.000759201
0.000777286
0.000798403
0.000822317
0.000848664
0.000876968
0.000906663
0.000937147
0.000967847
0.000998285
0.00102811
0.00105713
0.00108524
0.00111242
0.00113867
0.00116395
0.00118822
0.00121135
0.00123322
0.00125368
0.00127261
0.0012899
0.00130552
0.00131946
0.00133178
0.0013426
0.00135204
0.00136027
0.00136748
0.00137383
0.00137952
0.0013847
0.00138954
0.00139417
0.00139874
0.00140337
0.00140818
0.00141327
0.00141873
0.00142465
0.00143111
0.00143814
0.00144579
0.00145407
0.00146296
0.00147244
0.00148243
0.00149286
0.00150363
0.00151462
0.00152573
0.00153684
0.0015478
0.00155842
0.00156842
0.00157736
0.00158465
0.00158946
0.00159083
0.00158768
0.00157899
0.00156388
0.00154177
0.00151255
0.00147573
0.00143705
0.00136425
0.000947767
0.000944064
0.000940277
0.000936405
0.000932449
0.000928407
0.000924281
0.000920076
0.000915801
0.000911472
0.000907112
0.000902757
0.00089844
0.000894192
0.000890017
0.000885876
0.000881714
0.000877449
0.000873014
0.000868384
0.000863592
0.000858734
0.000853963
0.000849478
0.000845507
0.000842294
0.000840082
0.00083911
0.000839595
0.000841736
0.000845699
0.000851612
0.000859565
0.000869594
0.00088168
0.000895743
0.00091164
0.000929171
0.00094809
0.000968123
0.000988992
0.00101044
0.00103225
0.00105426
0.00107632
0.00109835
0.00112025
0.00114191
0.00116322
0.00118403
0.00120417
0.00122345
0.00124171
0.00125877
0.00127452
0.00128887
0.00130179
0.00131331
0.00132348
0.00133242
0.00134025
0.00134712
0.00135318
0.00135859
0.00136348
0.00136801
0.00137229
0.00137646
0.00138062
0.00138489
0.00138935
0.00139411
0.00139924
0.00140483
0.00141092
0.00141758
0.00142484
0.00143271
0.00144118
0.00145022
0.00145978
0.00146978
0.00148014
0.00149075
0.00150151
0.00151228
0.00152288
0.00153305
0.00154239
0.00155033
0.0015561
0.00155875
0.00155725
0.00155058
0.00153785
0.00151845
0.00149219
0.00145852
0.00142286
0.00135445
0.000975842
0.000973345
0.000970768
0.000968111
0.000965375
0.000962564
0.000959681
0.000956731
0.000953724
0.00095067
0.000947586
0.000944491
0.000941412
0.000938378
0.000935416
0.000932556
0.000929817
0.000927205
0.000924719
0.000922356
0.000920119
0.000918027
0.00091612
0.000914462
0.000913138
0.000912255
0.000911936
0.00091231
0.000913512
0.000915671
0.000918906
0.000923319
0.000928991
0.000935973
0.000944289
0.000953926
0.000964842
0.000976965
0.000990199
0.00100444
0.00101956
0.00103545
0.00105201
0.00106914
0.00108674
0.00110471
0.00112295
0.00114131
0.00115966
0.00117781
0.0011956
0.00121281
0.00122927
0.00124479
0.00125924
0.00127252
0.00128458
0.0012954
0.00130502
0.00131352
0.001321
0.00132758
0.00133337
0.00133853
0.00134317
0.00134743
0.00135141
0.00135523
0.00135899
0.00136278
0.0013667
0.00137083
0.00137525
0.00138004
0.00138526
0.00139097
0.00139722
0.00140404
0.00141145
0.00141944
0.00142799
0.00143705
0.00144656
0.00145643
0.0014666
0.00147692
0.00148726
0.00149738
0.00150691
0.00151532
0.00152191
0.00152575
0.00152586
0.0015212
0.00151089
0.00149426
0.00147105
0.00144064
0.00140812
0.0013443
0.000991579
0.000989998
0.000988351
0.000986639
0.000984863
0.000983026
0.000981133
0.000979189
0.000977202
0.00097518
0.000973135
0.00097108
0.000969031
0.000967006
0.000965029
0.000963124
0.000961318
0.000959633
0.000958093
0.000956716
0.000955521
0.000954527
0.000953759
0.000953245
0.000953024
0.000953144
0.000953662
0.000954642
0.000956156
0.000958278
0.000961085
0.000964646
0.000969025
0.000974277
0.000980441
0.000987543
0.000995593
0.00100459
0.00101451
0.00102533
0.00103701
0.0010495
0.00106277
0.00107674
0.00109134
0.0011065
0.0011221
0.00113802
0.00115411
0.0011702
0.00118611
0.00120165
0.00121663
0.00123087
0.00124423
0.0012566
0.00126791
0.00127812
0.00128726
0.00129538
0.00130254
0.00130885
0.00131442
0.00131936
0.00132378
0.0013278
0.00133152
0.00133504
0.00133844
0.00134183
0.00134528
0.00134886
0.00135265
0.00135673
0.00136115
0.00136599
0.00137128
0.00137709
0.00138343
0.00139033
0.00139779
0.00140579
0.00141429
0.00142324
0.00143259
0.00144224
0.00145207
0.00146189
0.00147138
0.00148007
0.00148729
0.00149219
0.0014938
0.0014911
0.00148319
0.00146934
0.00144924
0.00142216
0.00139287
0.0013338
0.000999654
0.000998687
0.000997673
0.000996613
0.000995508
0.000994361
0.000993174
0.000991954
0.000990706
0.000989437
0.000988155
0.00098687
0.000985591
0.000984332
0.000983107
0.000981933
0.000980827
0.000979808
0.000978898
0.000978117
0.000977485
0.000977025
0.00097676
0.000976714
0.000976914
0.000977391
0.000978179
0.000979317
0.000980848
0.000982818
0.000985277
0.000988274
0.00099186
0.000996081
0.00100098
0.0010066
0.00101297
0.00102011
0.00102804
0.00103677
0.00104631
0.00105663
0.00106772
0.00107955
0.00109207
0.0011052
0.00111885
0.00113292
0.00114725
0.0011617
0.0011761
0.00119026
0.00120401
0.00121717
0.0012296
0.00124118
0.00125183
0.00126152
0.00127023
0.001278
0.00128489
0.00129097
0.00129633
0.00130108
0.00130531
0.00130912
0.00131261
0.00131587
0.00131897
0.00132201
0.00132504
0.00132815
0.0013314
0.00133485
0.00133857
0.00134262
0.00134704
0.00135189
0.00135722
0.00136305
0.0013694
0.00137628
0.00138368
0.00139158
0.00139995
0.00140872
0.00141783
0.00142711
0.00143633
0.00144506
0.0014527
0.00145847
0.00146143
0.00146058
0.00145499
0.0014439
0.00142689
0.00140318
0.00137715
0.00132294
0.00100343
0.00100283
0.0010022
0.00100154
0.00100085
0.00100014
0.000999407
0.000998656
0.000997891
0.000997118
0.000996344
0.000995574
0.000994818
0.000994082
0.000993378
0.000992715
0.000992106
0.000991563
0.0009911
0.000990734
0.00099048
0.000990358
0.000990387
0.000990589
0.000990985
0.000991601
0.000992464
0.000993603
0.000995051
0.000996843
0.000999016
0.00100161
0.00100467
0.00100823
0.00101233
0.00101703
0.00102235
0.00102833
0.001035
0.00104238
0.0010505
0.00105936
0.00106896
0.00107927
0.00109026
0.00110188
0.00111404
0.00112666
0.0011396
0.00115272
0.00116588
0.00117889
0.00119159
0.00120382
0.00121544
0.00122633
0.00123641
0.00124562
0.00125395
0.00126141
0.00126805
0.00127392
0.0012791
0.00128367
0.00128774
0.00129137
0.00129466
0.00129769
0.00130053
0.00130327
0.00130595
0.00130866
0.00131144
0.00131435
0.00131746
0.00132081
0.00132446
0.00132845
0.00133284
0.00133767
0.00134295
0.00134873
0.001355
0.00136178
0.00136906
0.00137681
0.00138501
0.00139356
0.00140226
0.00141079
0.00141863
0.00142505
0.00142916