/*--------------------------------*- C++ -*----------------------------------*\
  =========                 |
  \\      /  F ield         | OpenFOAM: The Open Source CFD Toolbox
   \\    /   O peration     | Website:  https://openfoam.org
    \\  /    A nd           | Version:  10
     \\/     M anipulation  |
\*---------------------------------------------------------------------------*/
FoamFile
{
    format      ascii;
    class       volScalarField;
    location    "0.09";
    object      p;
}
// * * * * * * * * * * * * * * * * * * * * * * * * * * * * * * * * * * * * * //

dimensions      [0 2 -2 0 0 0 0];

internalField   nonuniform List<scalar> 
6820
(
-8.83674
-10.2008
-10.6143
-10.7097
-10.7905
-10.8419
-10.8728
-10.8971
-10.918
-10.9365
-10.9535
-10.9695
-10.9849
-10.9998
-11.0142
-11.0283
-11.042
-11.0554
-11.0685
-11.0813
-11.0936
-11.1056
-11.117
-11.1278
-11.1378
-11.1466
-11.1538
-11.1583
-11.1593
-11.1506
-11.1351
-11.0738
-10.9683
-11.6369
-11.2325
-10.9386
-10.8432
-10.8446
-10.8613
-10.8794
-10.899
-10.9184
-10.9365
-10.9535
-10.9695
-10.9847
-10.9992
-11.0133
-11.0269
-11.0402
-11.0531
-11.0658
-11.0781
-11.0901
-11.1018
-11.113
-11.1236
-11.1336
-11.1427
-11.1505
-11.1572
-11.1609
-11.167
-11.1626
-11.2016
-11.2265
-10.4939
-10.3657
-10.5906
-10.7283
-10.7898
-10.8342
-10.8662
-10.8915
-10.9131
-10.9321
-10.9494
-10.9656
-10.9811
-10.9959
-11.0103
-11.0243
-11.0379
-11.0513
-11.0643
-11.0771
-11.0895
-11.1015
-11.1131
-11.1242
-11.1346
-11.1442
-11.1528
-11.1602
-11.1658
-11.171
-11.1724
-11.1812
-11.1748
-10.8605
-10.8772
-10.8528
-10.83
-10.8381
-10.8585
-10.8786
-10.8978
-10.9164
-10.934
-10.9506
-10.9665
-10.9817
-10.9964
-11.0106
-11.0245
-11.038
-11.0512
-11.0641
-11.0768
-11.0891
-11.1011
-11.1127
-11.1239
-11.1346
-11.1446
-11.1539
-11.1626
-11.1703
-11.179
-11.1866
-11.2044
-11.2234
-10.7505
-10.6966
-10.7404
-10.7852
-10.8203
-10.8503
-10.8749
-10.8963
-10.9157
-10.9336
-10.9503
-10.9661
-10.9813
-10.9959
-11.0101
-11.0239
-11.0375
-11.0507
-11.0637
-11.0765
-11.0889
-11.1011
-11.113
-11.1245
-11.1355
-11.1462
-11.1564
-11.1662
-11.1758
-11.1863
-11.1971
-11.2136
-11.2309
-10.7912
-10.7844
-10.8027
-10.8198
-10.838
-10.8594
-10.8801
-10.8993
-10.9176
-10.9348
-10.951
-10.9666
-10.9816
-10.9961
-11.0102
-11.024
-11.0375
-11.0508
-11.0638
-11.0765
-11.089
-11.1013
-11.1134
-11.1251
-11.1366
-11.1478
-11.1588
-11.1697
-11.1808
-11.1929
-11.2061
-11.2232
-11.2425
-10.7905
-10.7797
-10.7945
-10.8161
-10.838
-10.8604
-10.8812
-10.9003
-10.9183
-10.9353
-10.9514
-10.9668
-10.9816
-10.9961
-11.0101
-11.0239
-11.0374
-11.0506
-11.0636
-11.0765
-11.0891
-11.1015
-11.1138
-11.1258
-11.1377
-11.1495
-11.1613
-11.1732
-11.1856
-11.199
-11.2136
-11.231
-11.2504
-10.8001
-10.797
-10.8101
-10.828
-10.8463
-10.8656
-10.8845
-10.9025
-10.9197
-10.9361
-10.9519
-10.9671
-10.9818
-10.9961
-11.0101
-11.0237
-11.0372
-11.0504
-11.0635
-11.0764
-11.0891
-11.1017
-11.1142
-11.1265
-11.1388
-11.1512
-11.1636
-11.1764
-11.1897
-11.2041
-11.2197
-11.2374
-11.2569
-10.8086
-10.8075
-10.8179
-10.8337
-10.8507
-10.8689
-10.8869
-10.9043
-10.9209
-10.937
-10.9524
-10.9674
-10.9819
-10.996
-11.0099
-11.0235
-11.037
-11.0502
-11.0633
-11.0762
-11.089
-11.1018
-11.1144
-11.1271
-11.1398
-11.1526
-11.1656
-11.1791
-11.1933
-11.2084
-11.2247
-11.2427
-11.2621
-10.8171
-10.8177
-10.827
-10.8411
-10.8566
-10.8732
-10.89
-10.9064
-10.9224
-10.9379
-10.953
-10.9677
-10.982
-10.996
-11.0098
-11.0233
-11.0367
-11.0499
-11.063
-11.0759
-11.0889
-11.1017
-11.1146
-11.1275
-11.1405
-11.1538
-11.1673
-11.1814
-11.1961
-11.2118
-11.2286
-11.2468
-11.2663
-10.8254
-10.8267
-10.835
-10.8476
-10.8617
-10.8771
-10.8928
-10.9085
-10.9239
-10.9389
-10.9536
-10.968
-10.9821
-10.9959
-11.0096
-11.023
-11.0363
-11.0495
-11.0626
-11.0756
-11.0886
-11.1015
-11.1146
-11.1277
-11.141
-11.1546
-11.1686
-11.1831
-11.1983
-11.2144
-11.2315
-11.2498
-11.2693
-10.8333
-10.8351
-10.8426
-10.8539
-10.8669
-10.881
-10.8958
-10.9107
-10.9254
-10.94
-10.9543
-10.9684
-10.9822
-10.9958
-11.0093
-11.0226
-11.0359
-11.049
-11.062
-11.0751
-11.0881
-11.1012
-11.1144
-11.1277
-11.1412
-11.1551
-11.1694
-11.1842
-11.1997
-11.2161
-11.2334
-11.2517
-11.2712
-10.8408
-10.8427
-10.8496
-10.8598
-10.8717
-10.8849
-10.8987
-10.9128
-10.927
-10.941
-10.9549
-10.9687
-10.9823
-10.9957
-11.009
-11.0222
-11.0353
-11.0484
-11.0614
-11.0744
-11.0875
-11.1006
-11.1139
-11.1274
-11.1411
-11.1552
-11.1697
-11.1847
-11.2004
-11.2169
-11.2343
-11.2526
-11.2719
-10.8478
-10.8497
-10.856
-10.8653
-10.8763
-10.8885
-10.9016
-10.9149
-10.9285
-10.9421
-10.9556
-10.969
-10.9823
-10.9955
-11.0086
-11.0217
-11.0347
-11.0477
-11.0606
-11.0736
-11.0867
-11.0999
-11.1132
-11.1267
-11.1406
-11.1547
-11.1694
-11.1845
-11.2003
-11.2168
-11.2342
-11.2524
-11.2715
-10.8543
-10.8562
-10.862
-10.8705
-10.8806
-10.892
-10.9043
-10.917
-10.9299
-10.943
-10.9561
-10.9692
-10.9823
-10.9952
-11.0082
-11.0211
-11.0339
-11.0468
-11.0597
-11.0726
-11.0857
-11.0988
-11.1122
-11.1257
-11.1396
-11.1538
-11.1685
-11.1836
-11.1994
-11.2159
-11.233
-11.251
-11.2698
-10.8603
-10.862
-10.8674
-10.8752
-10.8846
-10.8953
-10.9068
-10.9189
-10.9313
-10.9439
-10.9566
-10.9694
-10.9821
-10.9949
-11.0076
-11.0203
-11.033
-11.0458
-11.0585
-11.0714
-11.0844
-11.0975
-11.1108
-11.1243
-11.1381
-11.1523
-11.1669
-11.182
-11.1977
-11.2139
-11.2309
-11.2485
-11.2669
-10.8657
-10.8674
-10.8724
-10.8796
-10.8883
-10.8983
-10.9092
-10.9207
-10.9325
-10.9447
-10.957
-10.9694
-10.9819
-10.9943
-11.0069
-11.0194
-11.0319
-11.0445
-11.0572
-11.0699
-11.0828
-11.0958
-11.109
-11.1224
-11.1362
-11.1502
-11.1647
-11.1796
-11.1951
-11.2111
-11.2277
-11.2449
-11.2628
-10.8706
-10.8722
-10.8768
-10.8835
-10.8916
-10.901
-10.9113
-10.9222
-10.9336
-10.9453
-10.9573
-10.9693
-10.9815
-10.9937
-11.006
-11.0183
-11.0306
-11.0431
-11.0556
-11.0682
-11.0809
-11.0937
-11.1068
-11.1201
-11.1337
-11.1476
-11.1618
-11.1765
-11.1916
-11.2072
-11.2234
-11.2401
-11.2574
-10.8749
-10.8764
-10.8807
-10.8869
-10.8946
-10.9034
-10.9131
-10.9236
-10.9345
-10.9458
-10.9573
-10.9691
-10.9809
-10.9929
-11.0049
-11.017
-11.0291
-11.0414
-11.0537
-11.0661
-11.0786
-11.0913
-11.1042
-11.1173
-11.1306
-11.1443
-11.1582
-11.1726
-11.1873
-11.2024
-11.2181
-11.2341
-11.2507
-10.8787
-10.8801
-10.8841
-10.8899
-10.8971
-10.9054
-10.9147
-10.9246
-10.9351
-10.946
-10.9572
-10.9686
-10.9802
-10.9918
-11.0036
-11.0155
-11.0274
-11.0394
-11.0515
-11.0637
-11.076
-11.0885
-11.1011
-11.1139
-11.127
-11.1403
-11.1539
-11.1678
-11.1821
-11.1967
-11.2117
-11.2271
-11.2429
-10.8819
-10.8832
-10.887
-10.8924
-10.8992
-10.9071
-10.9159
-10.9254
-10.9355
-10.946
-10.9569
-10.9679
-10.9792
-10.9906
-11.0021
-11.0137
-11.0254
-11.0372
-11.049
-11.061
-11.073
-11.0852
-11.0976
-11.1101
-11.1228
-11.1357
-11.1489
-11.1623
-11.176
-11.19
-11.2043
-11.219
-11.2339
-10.8845
-10.8858
-10.8893
-10.8945
-10.9008
-10.9083
-10.9168
-10.9259
-10.9356
-10.9458
-10.9562
-10.967
-10.978
-10.9891
-11.0003
-11.0117
-11.0231
-11.0346
-11.0462
-11.0579
-11.0696
-11.0815
-11.0935
-11.1057
-11.118
-11.1305
-11.1431
-11.156
-11.1691
-11.1825
-11.196
-11.2098
-11.2239
-10.8866
-10.8877
-10.8911
-10.896
-10.902
-10.9092
-10.9172
-10.926
-10.9354
-10.9452
-10.9554
-10.9658
-10.9765
-10.9874
-10.9983
-11.0094
-11.0205
-11.0318
-11.0431
-11.0544
-11.0659
-11.0774
-11.089
-11.1008
-11.1126
-11.1246
-11.1367
-11.149
-11.1614
-11.174
-11.1868
-11.1997
-11.2128
-10.888
-10.8891
-10.8923
-10.8969
-10.9027
-10.9095
-10.9172
-10.9257
-10.9347
-10.9442
-10.9541
-10.9643
-10.9747
-10.9853
-10.996
-11.0067
-11.0176
-11.0285
-11.0395
-11.0506
-11.0617
-11.0728
-11.084
-11.0953
-11.1067
-11.1181
-11.1296
-11.1413
-11.153
-11.1648
-11.1767
-11.1887
-11.2007
-10.8888
-10.8899
-10.8929
-10.8973
-10.9028
-10.9094
-10.9169
-10.925
-10.9338
-10.9431
-10.9527
-10.9626
-10.9727
-10.983
-10.9934
-11.0039
-11.0145
-11.0251
-11.0358
-11.0465
-11.0572
-11.0679
-11.0787
-11.0894
-11.1003
-11.1111
-11.122
-11.1329
-11.1439
-11.1549
-11.1659
-11.1769
-11.1879
-10.889
-10.89
-10.8928
-10.897
-10.9023
-10.9086
-10.9158
-10.9237
-10.9322
-10.9412
-10.9506
-10.9602
-10.9701
-10.9801
-10.9903
-11.0005
-11.0108
-11.0211
-11.0314
-11.0417
-11.0521
-11.0624
-11.0727
-11.0829
-11.0932
-11.1034
-11.1137
-11.1239
-11.134
-11.1442
-11.1543
-11.1643
-11.1742
-10.8885
-10.8895
-10.8922
-10.8963
-10.9015
-10.9077
-10.9147
-10.9224
-10.9307
-10.9395
-10.9487
-10.9581
-10.9677
-10.9775
-10.9874
-10.9973
-11.0073
-11.0172
-11.0272
-11.0371
-11.047
-11.0568
-11.0666
-11.0763
-11.086
-11.0956
-11.1051
-11.1145
-11.1239
-11.1331
-11.1422
-11.1512
-11.1601
-10.8872
-10.8881
-10.8906
-10.8943
-10.8992
-10.905
-10.9118
-10.9193
-10.9275
-10.9361
-10.9451
-10.9544
-10.9638
-10.9734
-10.9831
-10.9928
-11.0025
-11.0122
-11.0218
-11.0314
-11.0409
-11.0503
-11.0596
-11.0688
-11.0779
-11.0868
-11.0957
-11.1044
-11.1129
-11.1213
-11.1295
-11.1375
-11.1453
-10.8854
-10.8865
-10.8892
-10.8932
-10.8982
-10.9041
-10.9109
-10.9183
-10.9263
-10.9348
-10.9436
-10.9526
-10.9618
-10.9711
-10.9804
-10.9898
-10.9991
-11.0084
-11.0176
-11.0267
-11.0357
-11.0445
-11.0532
-11.0618
-11.0702
-11.0785
-11.0866
-11.0944
-11.1021
-11.1096
-11.1168
-11.1238
-11.1305
-10.8824
-10.8826
-10.8844
-10.8875
-10.8919
-10.8975
-10.9041
-10.9115
-10.9196
-10.9282
-10.9371
-10.9462
-10.9554
-10.9648
-10.9741
-10.9834
-10.9927
-11.0018
-11.0108
-11.0197
-11.0284
-11.0369
-11.0452
-11.0533
-11.0612
-11.0688
-11.0763
-11.0834
-11.0903
-11.097
-11.1033
-11.1094
-11.1151
-10.8802
-10.8822
-10.8854
-10.8895
-10.8943
-10.9001
-10.9066
-10.9138
-10.9215
-10.9296
-10.938
-10.9466
-10.9553
-10.9641
-10.9729
-10.9817
-10.9904
-10.9989
-11.0073
-11.0156
-11.0237
-11.0315
-11.0392
-11.0466
-11.0537
-11.0606
-11.0672
-11.0736
-11.0796
-11.0853
-11.0907
-11.0957
-11.1004
-10.8722
-10.8701
-10.8698
-10.8721
-10.8765
-10.8826
-10.8899
-10.898
-10.9067
-10.9158
-10.9252
-10.9347
-10.9441
-10.9536
-10.9629
-10.9721
-10.9811
-10.9898
-10.9984
-11.0066
-11.0146
-11.0224
-11.0298
-11.0369
-11.0437
-11.0501
-11.0562
-11.062
-11.0674
-11.0724
-11.077
-11.0812
-11.085
-10.8777
-10.8832
-10.8874
-10.8905
-10.8942
-10.8989
-10.9046
-10.911
-10.918
-10.9255
-10.9333
-10.9413
-10.9494
-10.9576
-10.9657
-10.9738
-10.9818
-10.9896
-10.9972
-11.0045
-11.0117
-11.0185
-11.0251
-11.0313
-11.0372
-11.0428
-11.048
-11.0529
-11.0573
-11.0614
-11.065
-11.0682
-11.071
-10.8483
-10.8371
-10.8339
-10.8378
-10.8451
-10.8542
-10.8643
-10.875
-10.886
-10.897
-10.908
-10.9187
-10.9292
-10.9393
-10.9492
-10.9586
-10.9678
-10.9765
-10.9848
-10.9928
-11.0003
-11.0075
-11.0142
-11.0205
-11.0264
-11.0318
-11.0368
-11.0413
-11.0453
-11.0489
-11.052
-11.0546
-11.0567
-10.8958
-10.912
-10.9133
-10.9076
-10.9052
-10.9061
-10.909
-10.9131
-10.9183
-10.9243
-10.9309
-10.9378
-10.945
-10.9522
-10.9595
-10.9668
-10.9739
-10.9808
-10.9876
-10.994
-11.0002
-11.0061
-11.0116
-11.0167
-11.0215
-11.0259
-11.0298
-11.0333
-11.0364
-11.039
-11.0411
-11.0427
-11.0439
-10.786
-10.7478
-10.7422
-10.7659
-10.7861
-10.8042
-10.8221
-10.8393
-10.8554
-10.8706
-10.8848
-10.8981
-10.9107
-10.9224
-10.9335
-10.9439
-10.9536
-10.9628
-10.9713
-10.9793
-10.9867
-10.9936
-10.9999
-11.0056
-11.0108
-11.0155
-11.0196
-11.0231
-11.0261
-11.0286
-11.0304
-11.0317
-11.0324
-10.9983
-11.0228
-10.9936
-10.9567
-10.9333
-10.9252
-10.9219
-10.9211
-10.9227
-10.926
-10.9304
-10.9357
-10.9414
-10.9474
-10.9536
-10.9598
-10.966
-10.9721
-10.9779
-10.9835
-10.9888
-10.9938
-10.9985
-11.0027
-11.0065
-11.0099
-11.0128
-11.0153
-11.0172
-11.0187
-11.0197
-11.0201
-11.02
-10.5826
-10.5008
-10.5578
-10.6386
-10.6949
-10.7332
-10.7664
-10.7954
-10.8203
-10.8419
-10.8611
-10.8782
-10.8936
-10.9075
-10.9202
-10.9318
-10.9425
-10.9522
-10.9612
-10.9693
-10.9768
-10.9835
-10.9896
-10.995
-10.9997
-11.0038
-11.0073
-11.0101
-11.0123
-11.0139
-11.0148
-11.0151
-11.0147
-11.559
-11.2809
-11.0751
-10.9839
-10.9467
-10.9259
-10.913
-10.9073
-10.9063
-10.9082
-10.912
-10.917
-10.9228
-10.9291
-10.9356
-10.9422
-10.9487
-10.955
-10.9611
-10.9669
-10.9723
-10.9774
-10.982
-10.9862
-10.99
-10.9932
-10.9959
-10.9981
-10.9997
-11.0008
-11.0013
-11.0013
-11.0007
-9.60096
-10.1625
-10.4671
-10.5831
-10.6646
-10.7279
-10.7728
-10.8067
-10.8338
-10.8561
-10.8747
-10.8907
-10.9047
-10.9172
-10.9285
-10.9387
-10.948
-10.9564
-10.9642
-10.9712
-10.9775
-10.9832
-10.9883
-10.9927
-10.9965
-10.9997
-11.0023
-11.0042
-11.0055
-11.0061
-11.0061
-11.0055
-11.0042
-10.7923
-10.9105
-11.0354
-11.1239
-11.2036
-11.2788
-11.3691
-11.49
-11.6506
-11.8397
-12.0548
-12.2868
-12.5261
-12.7641
-12.9931
-13.2044
-13.3966
-13.5654
-13.7101
-13.8311
-13.9294
-14.0065
-14.0643
-14.1045
-14.1285
-14.1377
-14.133
-14.1148
-14.0834
-14.0382
-13.9785
-13.9028
-13.8092
-13.6953
-13.5578
-13.393
-13.1967
-12.9638
-12.6891
-12.3668
-11.991
-11.556
-11.0567
-10.4892
-9.85132
-9.14398
-8.37219
-7.54616
-6.68355
-5.80907
-4.94799
-4.12161
-3.34828
-2.6434
-2.01771
-1.47646
-1.01968
-0.643125
-0.339702
-0.100755
0.0828458
0.219977
0.318826
0.386677
0.429842
0.453679
0.462659
0.460461
0.450069
0.433871
0.413748
0.391163
0.367233
0.342791
0.318446
0.294629
0.271632
0.24964
0.228763
0.209052
0.190517
0.173141
0.15689
0.141721
0.12759
0.114453
0.102267
0.0910028
0.0805984
0.0710566
0.062224
0.0542316
0.0465947
0.0400127
0.0328041
0.0279445
0.019413
0.0185135
0.00400673
0.0148012
-11.5283
-11.5874
-11.4915
-11.4085
-11.3481
-11.3347
-11.3712
-11.4587
-11.5931
-11.7762
-11.99
-12.2224
-12.4621
-12.6993
-12.9263
-13.1303
-13.3162
-13.4791
-13.619
-13.7365
-13.8323
-13.9078
-13.9644
-14.0035
-14.0266
-14.0349
-14.0293
-14.0103
-13.9779
-13.9318
-13.8708
-13.7937
-13.6985
-13.5824
-13.4425
-13.2749
-13.0753
-12.8389
-12.5604
-12.2343
-11.8549
-11.4169
-10.9153
-10.3467
-9.70992
-9.00731
-8.24565
-7.4375
-6.60148
-5.75844
-4.92819
-4.12973
-3.38075
-2.69591
-2.08543
-1.55453
-1.10361
-0.729138
-0.424833
-0.182843
0.00525898
0.147776
0.252456
0.326264
0.375286
0.404731
0.418977
0.421652
0.415717
0.403559
0.387074
0.367745
0.346715
0.324849
0.302786
0.280986
0.259768
0.239345
0.219847
0.201348
0.183876
0.16743
0.151989
0.137525
0.124002
0.111386
0.0996405
0.0887462
0.0786485
0.069356
0.0607319
0.0529049
0.0454324
0.0389614
0.0319599
0.027115
0.0190377
0.0176953
0.00463172
0.0129454
-11.1851
-11.1532
-11.1618
-11.2035
-11.253
-11.314
-11.393
-11.4972
-11.6307
-11.7941
-11.9804
-12.185
-12.4003
-12.6182
-12.8285
-13.0318
-13.2148
-13.3775
-13.5179
-13.6352
-13.7302
-13.8043
-13.8592
-13.8967
-13.9181
-13.9248
-13.9177
-13.897
-13.863
-13.8149
-13.7519
-13.6725
-13.5746
-13.4557
-13.3124
-13.1412
-12.9377
-12.6972
-12.4144
-12.084
-11.7004
-11.2586
-10.7545
-10.1859
-9.55325
-8.86047
-8.1156
-7.33169
-6.52478
-5.71181
-4.91053
-4.13893
-3.41365
-2.74841
-2.15291
-1.63232
-1.18739
-0.815232
-0.510307
-0.265528
-0.073148
0.0745796
0.184968
0.264657
0.319501
0.354553
0.374092
0.381685
0.380269
0.372222
0.35945
0.343455
0.325406
0.306194
0.286487
0.266774
0.247401
0.228606
0.210545
0.193309
0.176946
0.161472
0.14688
0.133154
0.12027
0.108203
0.0969245
0.0864222
0.0766511
0.0676251
0.0592246
0.0515739
0.0442756
0.0379182
0.0311301
0.0262902
0.0186776
0.0168618
0.00527596
0.0110475
-11.2889
-11.3567
-11.3798
-11.3843
-11.392
-11.4171
-11.4683
-11.5509
-11.6661
-11.8131
-11.9851
-12.1747
-12.3736
-12.574
-12.7687
-12.9538
-13.1217
-13.2724
-13.4045
-13.5169
-13.6098
-13.6835
-13.7387
-13.7766
-13.7981
-13.8043
-13.7961
-13.7738
-13.7377
-13.6871
-13.6213
-13.5388
-13.4374
-13.3147
-13.1673
-12.9916
-12.7832
-12.5376
-12.2495
-11.9139
-11.5259
-11.0814
-10.5777
-10.0137
-9.39069
-8.71309
-7.98946
-7.23145
-6.45258
-5.66811
-4.8947
-4.14913
-3.44687
-2.80076
-2.22001
-1.7097
-1.27089
-0.901258
-0.595981
-0.348682
-0.152259
0.000488978
0.116445
0.201921
0.262539
0.303185
0.32803
0.340579
0.343733
0.339861
0.330874
0.318289
0.303296
0.286814
0.269536
0.251979
0.234518
0.217413
0.200844
0.184924
0.169718
0.155259
0.141557
0.128605
0.116393
0.104904
0.094119
0.0840329
0.0746101
0.0658692
0.0577083
0.0502461
0.0431316
0.0368913
0.0303211
0.0254778
0.0183343
0.0160228
0.00593135
0.00912217
-11.2627
-11.2835
-11.2901
-11.3084
-11.3425
-11.3929
-11.4632
-11.5568
-11.675
-11.817
-11.9782
-12.1533
-12.3363
-12.5215
-12.7025
-12.8754
-13.0348
-13.1784
-13.3041
-13.4107
-13.4981
-13.567
-13.6181
-13.6525
-13.6712
-13.6749
-13.6643
-13.6396
-13.6008
-13.5472
-13.478
-13.3915
-13.2858
-13.1582
-13.0056
-12.8243
-12.6102
-12.359
-12.066
-11.7268
-11.3374
-10.8943
-10.3953
-9.83977
-9.22973
-8.57025
-7.86907
-7.13627
-6.38422
-5.62719
-4.88068
-4.16028
-3.48035
-2.8529
-2.28663
-1.78654
-1.35396
-0.987075
-0.681713
-0.432162
-0.231941
-0.0743755
0.0469932
0.138151
0.204478
0.25069
0.280845
0.298376
0.306144
0.306504
0.301366
0.29226
0.280396
0.266714
0.251936
0.236604
0.221118
0.205765
0.190744
0.176191
0.162189
0.148789
0.136015
0.123874
0.112365
0.101484
0.0912189
0.0815725
0.072519
0.0640817
0.0561764
0.0489148
0.0419945
0.0358755
0.0295281
0.0246756
0.0180052
0.0151805
0.0065936
0.00718063
-11.2722
-11.3062
-11.3344
-11.3633
-11.3982
-11.4442
-11.5073
-11.5915
-11.6983
-11.827
-11.9738
-12.1341
-12.3022
-12.4726
-12.6396
-12.7992
-12.9469
-13.0802
-13.1974
-13.2975
-13.3802
-13.4456
-13.4941
-13.5262
-13.5425
-13.5437
-13.5301
-13.5021
-13.4594
-13.4015
-13.3274
-13.2358
-13.1246
-12.9913
-12.833
-12.6462
-12.4271
-12.1718
-11.8759
-11.5354
-11.1467
-10.7069
-10.2143
-9.66937
-9.07429
-8.43362
-7.75429
-7.04572
-6.31948
-5.58891
-4.86837
-4.17229
-3.51401
-2.90472
-2.35267
-1.86274
-1.43649
-1.07256
-0.767376
-0.515848
-0.312081
-0.14991
-0.0232953
0.0734247
0.145384
0.197123
0.23258
0.255109
0.267527
0.272168
0.270938
0.265376
0.256708
0.245897
0.233687
0.220646
0.207198
0.193655
0.180239
0.167104
0.154355
0.142058
0.130251
0.118957
0.108184
0.0979399
0.088222
0.0790395
0.0703769
0.062262
0.0546285
0.0475802
0.0408645
0.0348718
0.028752
0.0238858
0.0176902
0.0143397
0.00725844
0.00523437
-11.2765
-11.3065
-11.3328
-11.3617
-11.3993
-11.4494
-11.5153
-11.5993
-11.7024
-11.8237
-11.9604
-12.1085
-12.2634
-12.4204
-12.5746
-12.7222
-12.8594
-12.9837
-13.0931
-13.1867
-13.2637
-13.3242
-13.3683
-13.3966
-13.4094
-13.4072
-13.3904
-13.3589
-13.3125
-13.2506
-13.1722
-13.0758
-12.9596
-12.8211
-12.6576
-12.4659
-12.2425
-11.9836
-11.6855
-11.3445
-10.9577
-10.5226
-10.0384
-9.50515
-8.9252
-8.30283
-7.64464
-6.95948
-6.25818
-5.55313
-4.85764
-4.18506
-3.54775
-2.95614
-2.41804
-1.9382
-1.51837
-1.1576
-0.852849
-0.599616
-0.39256
-0.226007
-0.0943237
0.00782534
0.0853275
0.142543
0.183283
0.210817
0.227912
0.236876
0.239607
0.237649
0.232241
0.224366
0.21479
0.204104
0.192757
0.181083
0.169326
0.157662
0.146212
0.135061
0.124262
0.11385
0.103848
0.0942706
0.0851267
0.0764324
0.0681826
0.0604095
0.0530643
0.0462426
0.0397421
0.0338813
0.0279935
0.0231106
0.0173894
0.0135051
0.0079213
0.00329529
-11.2818
-11.312
-11.3423
-11.3761
-11.4173
-11.4687
-11.5332
-11.613
-11.7092
-11.8211
-11.9465
-12.0821
-12.2239
-12.3678
-12.5096
-12.6455
-12.7723
-12.8873
-12.9888
-13.0755
-13.1468
-13.2023
-13.2423
-13.2668
-13.2762
-13.2706
-13.2502
-13.215
-13.1646
-13.0985
-13.0155
-12.9143
-12.7931
-12.6496
-12.4814
-12.2853
-12.0582
-11.7966
-11.4974
-11.1572
-10.7735
-10.3442
-9.86855
-9.34705
-8.78194
-8.17743
-7.53979
-6.87731
-6.20011
-5.51969
-4.84837
-4.19849
-3.58148
-3.00708
-2.48265
-2.01283
-1.59949
-1.24207
-0.938007
-0.683342
-0.473259
-0.302553
-0.165991
-0.0585573
0.0243865
0.0870155
0.133007
0.165544
0.187334
0.200655
0.207394
0.209094
0.207007
0.202129
0.19525
0.186982
0.177795
0.168047
0.158004
0.147861
0.137759
0.127797
0.118045
0.108553
0.0993539
0.0904738
0.0819312
0.07375
0.0659352
0.0585233
0.0514835
0.0449018
0.0386275
0.0329048
0.0272532
0.0223521
0.0171025
0.0126814
0.00857758
0.00137525
-11.2864
-11.3164
-11.348
-11.3834
-11.4255
-11.4771
-11.5404
-11.6171
-11.7078
-11.8119
-11.9277
-12.0522
-12.1822
-12.314
-12.444
-12.5688
-12.6854
-12.7915
-12.8851
-12.965
-13.0304
-13.081
-13.1164
-13.1369
-13.1424
-13.1332
-13.1092
-13.0703
-13.016
-12.9457
-12.8584
-12.7527
-12.6269
-12.479
-12.3065
-12.1067
-11.8766
-11.6132
-11.3135
-10.9747
-10.5945
-10.1712
-9.70434
-9.19455
-8.64412
-8.0571
-7.43946
-6.79898
-6.14509
-5.48845
-4.84045
-4.21248
-3.61513
-3.05746
-2.54643
-2.08653
-1.67976
-1.32586
-1.02273
-0.766907
-0.554059
-0.379437
-0.238193
-0.12563
-0.0373579
0.0306096
0.0818128
0.119338
0.145834
0.163539
0.174325
0.179733
0.18102
0.179199
0.175076
0.169285
0.162317
0.154551
0.146275
0.137703
0.128994
0.120265
0.1116
0.103064
0.0947009
0.0865483
0.0786347
0.0709913
0.063634
0.0566031
0.0498858
0.043558
0.0375207
0.031943
0.0265315
0.0216122
0.0168295
0.0118729
0.00922275
-0.000513952
-11.2903
-11.3202
-11.3529
-11.3896
-11.4327
-11.4841
-11.5457
-11.6188
-11.7038
-11.8003
-11.9066
-12.0206
-12.1394
-12.2597
-12.3785
-12.4926
-12.5994
-12.6965
-12.7822
-12.8553
-12.9147
-12.96
-12.9908
-13.0071
-13.0088
-12.9959
-12.9682
-12.9255
-12.8674
-12.793
-12.7016
-12.5917
-12.4617
-12.3097
-12.1334
-11.9304
-11.6979
-11.4331
-11.1335
-10.7966
-10.4203
-10.0034
-9.54547
-9.04739
-8.51146
-7.9416
-7.34345
-6.72431
-6.09296
-5.45927
-4.83376
-4.22694
-3.64861
-3.10722
-2.60931
-2.15923
-1.75908
-1.40888
-1.10692
-0.850191
-0.634841
-0.456543
-0.310824
-0.193296
-0.0998197
-0.0265996
0.0297631
0.0722544
0.103455
0.125564
0.14043
0.149589
0.154301
0.155591
0.154281
0.151022
0.146329
0.1406
0.134142
0.12719
0.119919
0.112465
0.104927
0.0973825
0.0898887
0.0824938
0.0752364
0.0681559
0.0612785
0.0546484
0.0482709
0.0422112
0.0364219
0.0309966
0.0258287
0.0208927
0.0165701
0.0110838
0.00985236
-0.00236094
-11.2932
-11.323
-11.3561
-11.3934
-11.4365
-11.487
-11.5465
-11.6158
-11.6954
-11.7847
-11.8824
-11.9867
-12.095
-12.2046
-12.3128
-12.4167
-12.514
-12.6024
-12.6804
-12.7465
-12.7999
-12.8398
-12.8659
-12.8778
-12.8755
-12.8587
-12.8273
-12.7808
-12.7189
-12.6407
-12.5453
-12.4314
-12.2976
-12.1418
-11.9622
-11.7564
-11.522
-11.2565
-10.9575
-10.6228
-10.2509
-9.84057
-9.39174
-8.90538
-8.38379
-7.83075
-7.25159
-6.65315
-6.04359
-5.43203
-4.82821
-4.2418
-3.68188
-3.1563
-2.67123
-2.23087
-1.83738
-1.49102
-1.19045
-0.933079
-0.715488
-0.533757
-0.383773
-0.261455
-0.162909
-0.0845327
-0.0230729
0.0243513
0.0602486
0.0867718
0.105744
0.118691
0.126873
0.131324
0.132879
0.132208
0.129843
0.126202
0.121612
0.116326
0.110539
0.104401
0.0980283
0.0915102
0.0849181
0.0783106
0.0717367
0.0652438
0.0588687
0.0526591
0.0466389
0.0408615
0.0353314
0.0300662
0.0251452
0.0201952
0.016324
0.0103178
0.0104623
-0.00415484
-11.295
-11.3246
-11.3578
-11.395
-11.4377
-11.487
-11.544
-11.6095
-11.6837
-11.7662
-11.8558
-11.9509
-12.0494
-12.149
-12.247
-12.3413
-12.4294
-12.5094
-12.5797
-12.6389
-12.6861
-12.7206
-12.7417
-12.7492
-12.7427
-12.722
-12.6867
-12.6366
-12.5708
-12.4889
-12.3897
-12.2721
-12.1347
-11.9756
-11.7931
-11.585
-11.3491
-11.0832
-10.7853
-10.4534
-10.0861
-9.68263
-9.24304
-8.76839
-8.26097
-7.7244
-7.16374
-6.58537
-5.99685
-5.40665
-4.82372
-4.257
-3.71487
-3.20465
-2.73213
-2.30137
-1.91456
-1.57219
-1.27322
-1.01546
-0.795884
-0.610963
-0.456932
-0.330004
-0.226531
-0.143105
-0.0766213
-0.0243071
0.016269
0.0472092
0.0703064
0.0870717
0.0987638
0.106421
0.11089
0.112857
0.11287
0.111368
0.108694
0.10512
0.100859
0.0960781
0.0909069
0.0854501
0.0797913
0.0740002
0.0681365
0.0622556
0.0564048
0.0506356
0.0449899
0.0395091
0.0342492
0.0291524
0.0244812
0.0195211
0.0160909
0.00957831
0.0110486
-0.00588575
-11.2955
-11.3248
-11.3577
-11.3945
-11.4362
-11.4839
-11.5383
-11.5999
-11.6689
-11.7448
-11.8268
-11.9134
-12.0027
-12.0927
-12.1813
-12.2662
-12.3455
-12.4173
-12.4801
-12.5325
-12.5735
-12.6024
-12.6185
-12.6214
-12.6107
-12.586
-12.5468
-12.4929
-12.4235
-12.3379
-12.2351
-12.114
-11.9732
-11.8112
-11.6261
-11.4161
-11.1792
-10.9135
-10.617
-10.2882
-9.92592
-9.52955
-9.09931
-8.63633
-8.14288
-7.62244
-7.07977
-6.52084
-5.95265
-5.38302
-4.82022
-4.27248
-3.74755
-3.25223
-2.79198
-2.37068
-1.99058
-1.65231
-1.35514
-1.09722
-0.875914
-0.688047
-0.530187
-0.398837
-0.290589
-0.202229
-0.130803
-0.0736516
-0.0284235
0.00692789
0.0341614
0.0547696
0.0700052
0.0809091
0.0883376
0.0929891
0.0954289
0.0961113
0.0953992
0.0935817
0.0908884
0.0875022
0.0835689
0.0792067
0.0745119
0.0695656
0.064438
0.0591928
0.053888
0.0485786
0.0433242
0.0381545
0.0331757
0.0282559
0.023837
0.0188718
0.0158707
0.00886838
0.0116082
-0.00754482
-11.2947
-11.3236
-11.3559
-11.3919
-11.4324
-11.478
-11.5296
-11.5873
-11.6512
-11.7209
-11.7957
-11.8742
-11.9549
-12.036
-12.1155
-12.1916
-12.2624
-12.3263
-12.3816
-12.4273
-12.4622
-12.4854
-12.4965
-12.4947
-12.4796
-12.4508
-12.4078
-12.3501
-12.277
-12.1878
-12.0816
-11.9572
-11.8134
-11.6487
-11.4615
-11.25
-11.0126
-10.7473
-10.4527
-10.1274
-9.77038
-9.3813
-8.96047
-8.5091
-8.02942
-7.52475
-6.99958
-6.45945
-5.91088
-5.36108
-4.81766
-4.28821
-3.77989
-3.29902
-2.85074
-2.43877
-2.06536
-1.73129
-1.4361
-1.17826
-0.955466
-0.764893
-0.603425
-0.467845
-0.354981
-0.261812
-0.185535
-0.123608
-0.0737636
-0.034015
-0.00264166
0.021827
0.0406341
0.0548201
0.0652481
0.0726276
0.0775382
0.0804501
0.0817431
0.0817234
0.0806372
0.0786831
0.0760223
0.0727866
0.0690854
0.0650109
0.0606445
0.0560578
0.05132
0.0464892
0.0416426
0.0367982
0.0321112
0.0273771
0.0232129
0.0182483
0.0156633
0.00819046
0.0121383
-0.00912479
-11.2926
-11.3209
-11.3523
-11.3872
-11.4261
-11.4696
-11.5181
-11.5719
-11.6309
-11.6947
-11.7626
-11.8335
-11.9061
-11.9787
-12.0497
-12.1174
-12.1801
-12.2362
-12.2844
-12.3233
-12.3521
-12.3698
-12.3756
-12.3691
-12.3496
-12.3167
-12.2698
-12.2083
-12.1317
-12.0391
-11.9296
-11.8021
-11.6555
-11.4885
-11.2994
-11.0869
-10.8492
-10.5849
-10.2925
-9.97096
-9.61948
-9.23784
-8.82648
-8.38663
-7.92049
-7.43123
-6.92305
-6.40112
-5.87147
-5.34076
-4.81599
-4.30415
-3.81186
-3.345
-2.90839
-2.50559
-2.13884
-1.80908
-1.51603
-1.25848
-1.03443
-0.841387
-0.676531
-0.536917
-0.419601
-0.321755
-0.240728
-0.174096
-0.11968
-0.0755571
-0.0400481
-0.0117086
0.0106917
0.0281899
0.041653
0.0517997
0.059222
0.0644047
0.0677437
0.069561
0.0701193
0.0696327
0.0682772
0.0661985
0.0635189
0.0603422
0.0567606
0.0528545
0.0487036
0.0443694
0.0399465
0.0354413
0.0310564
0.0265168
0.0226093
0.0176518
0.0154687
0.00754666
0.0126372
-0.01062
-11.2892
-11.3166
-11.347
-11.3806
-11.4177
-11.4588
-11.5042
-11.554
-11.6082
-11.6663
-11.7277
-11.7915
-11.8564
-11.9211
-11.984
-12.0437
-12.0985
-12.1472
-12.1883
-12.2207
-12.2434
-12.2555
-12.2562
-12.2449
-12.221
-12.1839
-12.1331
-12.0679
-11.9877
-11.8918
-11.7792
-11.6489
-11.4998
-11.3306
-11.1401
-10.9268
-10.6893
-10.4262
-10.1364
-9.81897
-9.47324
-9.09917
-8.69728
-8.26886
-7.81603
-7.34179
-6.85009
-6.34575
-5.83434
-5.322
-4.81516
-4.32028
-3.84346
-3.39015
-2.9649
-2.57111
-2.21099
-1.88559
-1.59484
-1.33777
-1.1127
-0.917415
-0.749392
-0.60594
-0.484342
-0.381957
-0.296288
-0.22503
-0.166097
-0.11763
-0.0779976
-0.0457839
-0.0197754
0.00105921
0.017588
0.0305366
0.0405076
0.0479993
0.0534219
0.0571133
0.0593512
0.0603652
0.0603461
0.0594531
0.0578216
0.055567
0.0527926
0.0495876
0.0460424
0.0422221
0.0382378
0.0340852
0.0300121
0.0256759
0.0220266
0.0170833
0.0152873
0.00693856
0.0131044
-0.0120272
-11.2843
-11.3108
-11.34
-11.372
-11.4071
-11.4457
-11.4879
-11.5339
-11.5833
-11.636
-11.6913
-11.7483
-11.8059
-11.8631
-11.9183
-11.9703
-12.0177
-12.0592
-12.0934
-12.1194
-12.1361
-12.1426
-12.1382
-12.1221
-12.0938
-12.0525
-11.9978
-11.929
-11.8454
-11.7462
-11.6306
-11.4977
-11.3463
-11.1754
-10.9837
-10.77
-10.533
-10.2715
-9.9846
-9.67145
-9.33166
-8.96526
-8.57285
-8.15572
-7.71593
-7.25633
-6.78063
-6.29328
-5.79944
-5.30475
-4.81516
-4.33658
-3.87467
-3.43448
-3.02027
-2.6353
-2.28177
-1.96077
-1.67245
-1.41605
-1.19017
-0.992866
-0.821891
-0.674799
-0.549093
-0.442314
-0.352118
-0.276322
-0.212932
-0.160161
-0.116424
-0.0803406
-0.0507151
-0.0265261
-0.00690641
0.00887406
0.0214268
0.0312617
0.0388027
0.0444018
0.0483521
0.0508977
0.0522438
0.0525634
0.0520047
0.0506948
0.0487486
0.0462637
0.0433416
0.040051
0.0365195
0.0327318
0.0289799
0.0248555
0.0214659
0.0165438
0.0151198
0.00636747
0.0135403
-0.013345
-11.2781
-11.3035
-11.3313
-11.3616
-11.3946
-11.4306
-11.4696
-11.5116
-11.5565
-11.6039
-11.6533
-11.7039
-11.7547
-11.8048
-11.8527
-11.8975
-11.9377
-11.9722
-11.9999
-12.0196
-12.0304
-12.0314
-12.0218
-12.001
-11.9682
-11.9228
-11.8642
-11.7918
-11.7048
-11.6026
-11.4842
-11.3488
-11.1954
-11.023
-10.8304
-10.6166
-10.3804
-10.1208
-9.83705
-9.52846
-9.19475
-8.83609
-8.45312
-8.04715
-7.62013
-7.17479
-6.71457
-6.24363
-5.7667
-5.28899
-4.81596
-4.35305
-3.90549
-3.47797
-3.07449
-2.69816
-2.35112
-2.03458
-1.74879
-1.49323
-1.26673
-1.06763
-0.893912
-0.743378
-0.613738
-0.502714
-0.408113
-0.327874
-0.260098
-0.203069
-0.155256
-0.115314
-0.08207
-0.0545146
-0.0317846
-0.0131473
0.00201554
0.014224
0.0239143
0.031452
0.0371444
0.0412499
0.0439878
0.0455447
0.0460815
0.0457373
0.0446381
0.0428908
0.0406076
0.0378614
0.0347952
0.0313839
0.0279618
0.0240573
0.0209282
0.0160348
0.0149673
0.00583429
0.013947
-0.0145752
-11.2706
-11.2947
-11.321
-11.3495
-11.3802
-11.4135
-11.4493
-11.4875
-11.528
-11.5703
-11.6141
-11.6586
-11.703
-11.7462
-11.7873
-11.8251
-11.8585
-11.8863
-11.9076
-11.9211
-11.9262
-11.9218
-11.9071
-11.8816
-11.8444
-11.7949
-11.7325
-11.6566
-11.5663
-11.4611
-11.3401
-11.2025
-11.0473
-10.8736
-10.6804
-10.4667
-10.2316
-9.97423
-9.69385
-9.39001
-9.06252
-8.71164
-8.33807
-7.94308
-7.52857
-7.09709
-6.65187
-6.19674
-5.73608
-5.27468
-4.81754
-4.36969
-3.93594
-3.52064
-3.12756
-2.75966
-2.41904
-2.10695
-1.82378
-1.56922
-1.34229
-1.14159
-0.96534
-0.811559
-0.678161
-0.563045
-0.464166
-0.379585
-0.3075
-0.246268
-0.194415
-0.150633
-0.113777
-0.0828494
-0.0569955
-0.035482
-0.0176855
-0.00307754
0.0087891
0.0182927
0.0257537
0.0314447
0.0355984
0.0384148
0.0400677
0.0407079
0.040473
0.0394787
0.0378487
0.0356596
0.0330701
0.0300454
0.0269606
0.0232835
0.0204154
0.0155577
0.0148317
0.0053398
0.0143282
-0.0157219
-11.2618
-11.2845
-11.3092
-11.3357