/*--------------------------------*- C++ -*----------------------------------*\
  =========                 |
  \\      /  F ield         | OpenFOAM: The Open Source CFD Toolbox
   \\    /   O peration     | Website:  https://openfoam.org
    \\  /    A nd           | Version:  10
     \\/     M anipulation  |
\*---------------------------------------------------------------------------*/
FoamFile
{
    format      ascii;
    class       volVectorField;
    location    "0.09";
    object      U;
}
// * * * * * * * * * * * * * * * * * * * * * * * * * * * * * * * * * * * * * //

dimensions      [0 1 -1 0 0 0 0];

internalField   nonuniform List<vector> 
6820
(
(7.33663 -0.25471 0)
(7.37112 -0.152742 0)
(7.32902 -0.0594699 0)
(7.25216 -0.0117195 0)
(7.17477 0.0079694 0)
(7.10491 0.0139748 0)
(7.04385 0.0144646 0)
(6.99099 0.0130895 0)
(6.94488 0.0113409 0)
(6.90411 0.00976622 0)
(6.8676 0.00850581 0)
(6.83455 0.00754698 0)
(6.80435 0.00683352 0)
(6.77653 0.00630618 0)
(6.75075 0.00591549 0)
(6.72674 0.00562384 0)
(6.70429 0.00540391 0)
(6.68321 0.00523652 0)
(6.66335 0.0051087 0)
(6.64459 0.00501206 0)
(6.6268 0.0049418 0)
(6.60988 0.00489624 0)
(6.59371 0.00487673 0)
(6.5782 0.0048887 0)
(6.5632 0.00494293 0)
(6.54859 0.00506211 0)
(6.53412 0.00529226 0)
(6.51957 0.00568533 0)
(6.50403 0.00669408 0)
(6.48728 0.00748655 0)
(6.46505 0.0145789 0)
(6.43329 0.014949 0)
(6.38759 0.0286721 0)
(7.32387 0.121386 0)
(7.3044 0.123275 0)
(7.30896 0.0779695 0)
(7.32919 0.0527907 0)
(7.34727 0.039191 0)
(7.35533 0.0313858 0)
(7.35435 0.0269338 0)
(7.34725 0.0241883 0)
(7.3363 0.0222918 0)
(7.32309 0.020853 0)
(7.30867 0.0196764 0)
(7.2937 0.018662 0)
(7.27859 0.0177594 0)
(7.26359 0.0169426 0)
(7.24883 0.0161969 0)
(7.2344 0.0155136 0)
(7.22035 0.0148867 0)
(7.20669 0.0143122 0)
(7.19343 0.0137874 0)
(7.18057 0.0133111 0)
(7.1681 0.0128833 0)
(7.156 0.0125057 0)
(7.14425 0.0121829 0)
(7.13284 0.0119239 0)
(7.12174 0.0117432 0)
(7.11092 0.0116749 0)
(7.10041 0.0117559 0)
(7.09007 0.0121502 0)
(7.08049 0.0129059 0)
(7.0706 0.0149265 0)
(7.06556 0.0182834 0)
(7.06026 0.0267199 0)
(7.08081 0.0435735 0)
(7.32565 -0.0437925 0)
(7.32324 -0.0517325 0)
(7.33517 -0.0262009 0)
(7.343 -0.00271977 0)
(7.34793 0.0104304 0)
(7.35212 0.0168829 0)
(7.35512 0.0199568 0)
(7.35665 0.0212463 0)
(7.3567 0.0215933 0)
(7.35539 0.0214713 0)
(7.35296 0.0211274 0)
(7.34963 0.0206885 0)
(7.3456 0.0202208 0)
(7.34104 0.0197574 0)
(7.33609 0.019314 0)
(7.33085 0.0188975 0)
(7.3254 0.0185106 0)
(7.31981 0.0181544 0)
(7.31413 0.0178295 0)
(7.30839 0.0175373 0)
(7.30261 0.0172801 0)
(7.29682 0.017062 0)
(7.29101 0.0168899 0)
(7.28521 0.0167746 0)
(7.27939 0.0167339 0)
(7.27354 0.0167931 0)
(7.26766 0.0170076 0)
(7.26167 0.0174094 0)
(7.25573 0.0182624 0)
(7.2495 0.0192465 0)
(7.24401 0.0219375 0)
(7.23816 0.0226558 0)
(7.23432 0.0271763 0)
(7.33338 0.011788 0)
(7.33035 0.0329172 0)
(7.32954 0.0333489 0)
(7.33255 0.0276436 0)
(7.33796 0.0242597 0)
(7.34348 0.0227891 0)
(7.34809 0.0222337 0)
(7.35175 0.0220138 0)
(7.35455 0.0218733 0)
(7.35656 0.0217302 0)
(7.35785 0.0215594 0)
(7.35854 0.0213553 0)
(7.3587 0.0211224 0)
(7.35841 0.0208681 0)
(7.35775 0.0206005 0)
(7.35676 0.020327 0)
(7.35551 0.0200546 0)
(7.35404 0.0197894 0)
(7.35237 0.0195373 0)
(7.35055 0.0193047 0)
(7.34859 0.0190984 0)
(7.3465 0.0189272 0)
(7.34431 0.0188023 0)
(7.342 0.0187393 0)
(7.3396 0.018761 0)
(7.33708 0.0188993 0)
(7.33446 0.0192081 0)
(7.33171 0.0197484 0)
(7.32894 0.0206761 0)
(7.32606 0.0220064 0)
(7.32369 0.0243153 0)
(7.3217 0.0268961 0)
(7.32162 0.0316853 0)
(7.33122 -0.00352243 0)
(7.33003 -0.0043268 0)
(7.33359 0.0012781 0)
(7.33716 0.00873178 0)
(7.34044 0.0141025 0)
(7.34371 0.0171147 0)
(7.34686 0.0187608 0)
(7.34984 0.0196839 0)
(7.35257 0.0201886 0)
(7.35502 0.020446 0)
(7.35714 0.0205519 0)
(7.35895 0.0205602 0)
(7.36048 0.0205044 0)
(7.36173 0.0204067 0)
(7.36273 0.0202823 0)
(7.3635 0.0201424 0)
(7.36407 0.0199955 0)
(7.36446 0.0198493 0)
(7.36468 0.0197106 0)
(7.36476 0.0195867 0)
(7.36469 0.0194859 0)
(7.3645 0.0194181 0)
(7.36419 0.0193962 0)
(7.36376 0.0194368 0)
(7.36322 0.0195639 0)
(7.36256 0.0198078 0)
(7.36181 0.0202179 0)
(7.36096 0.02084 0)
(7.3601 0.0217907 0)
(7.35924 0.0230471 0)
(7.3587 0.024921 0)
(7.3585 0.0267986 0)
(7.35908 0.0293117 0)
(7.33264 0.00208287 0)
(7.33223 0.00990939 0)
(7.33392 0.014111 0)
(7.33641 0.0159905 0)
(7.33939 0.0171068 0)
(7.34256 0.0178909 0)
(7.3456 0.0185101 0)
(7.34843 0.0189843 0)
(7.35107 0.0193126 0)
(7.35352 0.0195243 0)
(7.35578 0.0196496 0)
(7.35787 0.0197097 0)
(7.3598 0.0197207 0)
(7.36156 0.0196952 0)
(7.36318 0.0196433 0)
(7.36465 0.0195736 0)
(7.36598 0.0194935 0)
(7.36719 0.0194104 0)
(7.36828 0.0193316 0)
(7.36925 0.019265 0)
(7.37011 0.0192197 0)
(7.37087 0.0192066 0)
(7.37153 0.0192393 0)
(7.3721 0.0193354 0)
(7.37257 0.0195179 0)
(7.37295 0.0198156 0)
(7.37326 0.0202701 0)
(7.37352 0.0209205 0)
(7.3738 0.0218413 0)
(7.37414 0.0230292 0)
(7.37474 0.0246173 0)
(7.37567 0.0263171 0)
(7.37713 0.0283439 0)
(7.33258 0.000832889 0)
(7.33242 0.00452597 0)
(7.33426 0.00808515 0)
(7.33685 0.0112949 0)
(7.33962 0.0138886 0)
(7.34244 0.0156717 0)
(7.34513 0.0168345 0)
(7.34768 0.0175914 0)
(7.35011 0.0180776 0)
(7.35243 0.0183864 0)
(7.35463 0.0185781 0)
(7.35672 0.0186892 0)
(7.35872 0.0187436 0)
(7.36062 0.0187579 0)
(7.36243 0.0187443 0)
(7.36415 0.0187123 0)
(7.36578 0.0186701 0)
(7.36733 0.0186251 0)
(7.3688 0.0185848 0)
(7.37019 0.0185573 0)
(7.37151 0.0185519 0)
(7.37275 0.0185795 0)
(7.37391 0.0186536 0)
(7.37501 0.0187908 0)
(7.37604 0.0190124 0)
(7.37701 0.0193435 0)
(7.37795 0.0198171 0)
(7.37887 0.0204633 0)
(7.37984 0.0213274 0)
(7.3809 0.0224061 0)
(7.38218 0.0237464 0)
(7.38373 0.0251845 0)
(7.38564 0.026742 0)
(7.33284 0.00133618 0)
(7.33301 0.00536527 0)
(7.33456 0.00892786 0)
(7.33678 0.0116245 0)
(7.33925 0.0136094 0)
(7.34185 0.0149837 0)
(7.34441 0.0159332 0)
(7.34686 0.0165985 0)
(7.3492 0.017056 0)
(7.35144 0.0173629 0)
(7.35358 0.0175631 0)
(7.35564 0.0176868 0)
(7.35762 0.0177553 0)
(7.35954 0.0177843 0)
(7.36139 0.0177858 0)
(7.36319 0.0177691 0)
(7.36493 0.0177426 0)
(7.36661 0.0177137 0)
(7.36824 0.01769 0)
(7.36982 0.0176797 0)
(7.37135 0.0176919 0)
(7.37282 0.0177374 0)
(7.37425 0.0178289 0)
(7.37563 0.0179817 0)
(7.37698 0.0182146 0)
(7.3783 0.0185485 0)
(7.37961 0.0190088 0)
(7.38094 0.0196172 0)
(7.38233 0.0204 0)
(7.38384 0.021353 0)
(7.38553 0.0224847 0)
(7.38746 0.0237026 0)
(7.38964 0.0249807 0)
(7.33291 0.00133549 0)
(7.3332 0.0046881 0)
(7.33459 0.00773693 0)
(7.33661 0.0102142 0)
(7.33891 0.0121866 0)
(7.34133 0.0136522 0)
(7.34374 0.0146994 0)
(7.34607 0.0154377 0)
(7.34833 0.0159468 0)
(7.35049 0.0162898 0)
(7.35258 0.0165151 0)
(7.3546 0.0166562 0)
(7.35655 0.0167368 0)
(7.35846 0.0167743 0)
(7.36031 0.016782 0)
(7.36212 0.0167702 0)
(7.36389 0.0167477 0)
(7.36562 0.0167226 0)
(7.36731 0.0167026 0)
(7.36897 0.0166961 0)
(7.3706 0.0167119 0)
(7.37219 0.0167603 0)
(7.37376 0.0168531 0)
(7.3753 0.0170039 0)
(7.37683 0.0172286 0)
(7.37836 0.0175441 0)
(7.3799 0.017969 0)
(7.38148 0.0185181 0)
(7.38314 0.0192053 0)
(7.38492 0.020025 0)
(7.38687 0.0209701 0)
(7.38901 0.0219849 0)
(7.39136 0.0230351 0)
(7.33297 0.00131233 0)
(7.33334 0.00433379 0)
(7.3346 0.00713979 0)
(7.33642 0.00945125 0)
(7.33851 0.0112871 0)
(7.34075 0.0126649 0)
(7.34302 0.0136649 0)
(7.34525 0.0143834 0)
(7.34742 0.0148905 0)
(7.34953 0.0152397 0)
(7.35158 0.0154729 0)
(7.35356 0.0156209 0)
(7.35549 0.0157064 0)
(7.35738 0.0157465 0)
(7.35922 0.0157546 0)
(7.36103 0.0157416 0)
(7.3628 0.0157165 0)
(7.36455 0.0156877 0)
(7.36627 0.0156631 0)
(7.36796 0.0156508 0)
(7.36964 0.0156596 0)
(7.37129 0.0156989 0)
(7.37294 0.0157795 0)
(7.37458 0.0159131 0)
(7.37621 0.0161126 0)
(7.37787 0.0163914 0)
(7.37956 0.0167625 0)
(7.3813 0.0172354 0)
(7.38314 0.0178162 0)
(7.38509 0.0184985 0)
(7.38719 0.0192703 0)
(7.38947 0.0200965 0)
(7.39192 0.0209479 0)
(7.333 0.00125091 0)
(7.33341 0.00395203 0)
(7.33454 0.00646645 0)
(7.33619 0.00857339 0)
(7.33811 0.0102778 0)
(7.34019 0.0115948 0)
(7.34232 0.0125774 0)
(7.34445 0.0132972 0)
(7.34654 0.0138129 0)
(7.34859 0.0141721 0)
(7.35059 0.0144138 0)
(7.35254 0.0145675 0)
(7.35444 0.0146559 0)
(7.35631 0.0146961 0)
(7.35814 0.0147019 0)
(7.35994 0.0146844 0)
(7.36171 0.0146528 0)
(7.36346 0.0146156 0)
(7.36519 0.0145808 0)
(7.36691 0.0145564 0)
(7.36861 0.0145506 0)
(7.3703 0.014572 0)
(7.37199 0.0146302 0)
(7.37369 0.014735 0)
(7.3754 0.0148967 0)
(7.37715 0.0151253 0)
(7.37893 0.0154295 0)
(7.38079 0.0158149 0)
(7.38273 0.0162829 0)
(7.38479 0.0168266 0)
(7.38699 0.0174336 0)
(7.38935 0.0180803 0)
(7.39187 0.0187443 0)
(7.33302 0.00116767 0)
(7.33343 0.00359477 0)
(7.33447 0.00586078 0)
(7.33596 0.00779073 0)
(7.33773 0.00937136 0)
(7.33965 0.0106126 0)
(7.34166 0.0115533 0)
(7.34368 0.0122508 0)
(7.34569 0.0127562 0)
(7.34768 0.0131116 0)
(7.34962 0.0133518 0)
(7.35153 0.0135043 0)
(7.35341 0.0135903 0)
(7.35525 0.0136266 0)
(7.35707 0.0136265 0)
(7.35886 0.013601 0)
(7.36063 0.0135594 0)
(7.36238 0.0135101 0)
(7.36412 0.0134608 0)
(7.36584 0.0134191 0)
(7.36756 0.0133927 0)
(7.36928 0.0133892 0)
(7.37101 0.0134169 0)
(7.37275 0.0134837 0)
(7.37451 0.0135977 0)
(7.37632 0.0137659 0)
(7.37817 0.0139938 0)
(7.3801 0.0142839 0)
(7.38212 0.014635 0)
(7.38425 0.0150401 0)
(7.38651 0.0154878 0)
(7.38892 0.015961 0)
(7.39147 0.016443 0)
(7.33303 0.00107404 0)
(7.33343 0.00325406 0)
(7.33438 0.0052888 0)
(7.33574 0.00704273 0)
(7.33736 0.00849498 0)
(7.33915 0.00965244 0)
(7.34104 0.0105435 0)
(7.34296 0.0112126 0)
(7.34489 0.0117021 0)
(7.34681 0.0120484 0)
(7.3487 0.0122824 0)
(7.35057 0.0124293 0)
(7.35242 0.0125091 0)
(7.35424 0.0125379 0)
(7.35603 0.0125286 0)
(7.35781 0.012492 0)
(7.35957 0.0124371 0)
(7.36132 0.0123721 0)
(7.36306 0.0123043 0)
(7.36479 0.0122409 0)
(7.36653 0.0121886 0)
(7.36826 0.0121544 0)
(7.37002 0.0121449 0)
(7.37179 0.0121665 0)
(7.37359 0.012225 0)
(7.37544 0.0123253 0)
(7.37734 0.0124702 0)
(7.37932 0.0126601 0)
(7.38139 0.0128923 0)
(7.38357 0.0131597 0)
(7.38586 0.0134523 0)
(7.38829 0.0137566 0)
(7.39086 0.0140598 0)
(7.33303 0.00097637 0)
(7.33342 0.00292987 0)
(7.33429 0.0047519 0)
(7.33554 0.00633824 0)
(7.33703 0.00766461 0)
(7.3387 0.00873406 0)
(7.34047 0.00956708 0)
(7.3423 0.010198 0)
(7.34415 0.0106621 0)
(7.346 0.0109908 0)
(7.34784 0.0112115 0)
(7.34966 0.0113469 0)
(7.35147 0.0114156 0)
(7.35327 0.0114327 0)
(7.35504 0.0114104 0)
(7.3568 0.0113591 0)
(7.35855 0.0112874 0)
(7.36029 0.0112031 0)
(7.36203 0.011113 0)
(7.36377 0.0110236 0)
(7.36551 0.0109409 0)
(7.36726 0.0108707 0)
(7.36903 0.0108184 0)
(7.37082 0.0107887 0)
(7.37266 0.0107859 0)
(7.37453 0.0108126 0)
(7.37647 0.01087 0)
(7.37848 0.0109568 0)
(7.38058 0.0110692 0)
(7.38278 0.0112006 0)
(7.38509 0.0113416 0)
(7.38753 0.0114812 0)
(7.39009 0.0116089 0)
(7.33303 0.000878487 0)
(7.3334 0.00262125 0)
(7.3342 0.00424531 0)
(7.33534 0.00567003 0)
(7.33673 0.00687081 0)
(7.33828 0.0078477 0)
(7.33995 0.00861551 0)
(7.34169 0.00920074 0)
(7.34346 0.00963227 0)
(7.34524 0.00993689 0)
(7.34703 0.0101385 0)
(7.34881 0.0102574 0)
(7.35058 0.0103106 0)
(7.35235 0.0103119 0)
(7.3541 0.0102731 0)
(7.35584 0.0102036 0)
(7.35758 0.0101117 0)
(7.35931 0.0100046 0)
(7.36104 0.00988855 0)
(7.36277 0.00976924 0)
(7.36452 0.00965188 0)
(7.36628 0.00954118 0)
(7.36806 0.00944131 0)
(7.36987 0.00935571 0)
(7.37171 0.0092869 0)
(7.37361 0.00923611 0)
(7.37557 0.00920297 0)
(7.3776 0.00918517 0)
(7.37971 0.00917828 0)
(7.38192 0.00917568 0)
(7.38423 0.00916894 0)
(7.38665 0.00914837 0)
(7.38919 0.0091048 0)
(7.33303 0.00078249 0)
(7.33337 0.00232728 0)
(7.33411 0.00376579 0)
(7.33517 0.00503488 0)
(7.33645 0.00611134 0)
(7.33791 0.00699288 0)
(7.33948 0.00768994 0)
(7.34113 0.00822281 0)
(7.34283 0.00861495 0)
(7.34455 0.00888901 0)
(7.34628 0.00906563 0)
(7.34802 0.00916285 0)
(7.34975 0.00919589 0)
(7.35148 0.00917749 0)
(7.35321 0.00911829 0)
(7.35493 0.0090272 0)
(7.35665 0.00891178 0)
(7.35837 0.0087785 0)
(7.36009 0.008633 0)
(7.36182 0.00848022 0)
(7.36356 0.00832447 0)
(7.36532 0.00816946 0)
(7.3671 0.00801821 0)
(7.36892 0.00787293 0)
(7.37077 0.00773485 0)
(7.37268 0.00760395 0)
(7.37464 0.00747877 0)
(7.37667 0.00735619 0)
(7.37878 0.00723137 0)
(7.38098 0.00709784 0)
(7.38327 0.00694767 0)
(7.38567 0.00677202 0)
(7.38817 0.00656274 0)
(7.33303 0.000689431 0)
(7.33335 0.00204691 0)
(7.33404 0.00331022 0)
(7.33501 0.00442907 0)
(7.33621 0.00538238 0)
(7.33757 0.00616626 0)
(7.33906 0.0067878 0)
(7.34063 0.00726248 0)
(7.34225 0.00760918 0)
(7.34391 0.00784685 0)
(7.34559 0.00799316 0)
(7.34728 0.00806385 0)
(7.34897 0.00807245 0)
(7.35067 0.00803039 0)
(7.35237 0.00794731 0)
(7.35407 0.00783129 0)
(7.35577 0.00768912 0)
(7.35747 0.00752657 0)
(7.35918 0.00734854 0)
(7.3609 0.00715916 0)
(7.36263 0.00696188 0)
(7.36439 0.00675946 0)
(7.36617 0.00655389 0)
(7.36798 0.0063463 0)
(7.36983 0.00613686 0)
(7.37173 0.00592455 0)
(7.37369 0.00570706 0)
(7.37571 0.00548073 0)
(7.3778 0.00524045 0)
(7.37998 0.00497985 0)
(7.38224 0.00469144 0)
(7.3846 0.00436691 0)
(7.38705 0.00399892 0)
(7.33303 0.000599732 0)
(7.33333 0.00177906 0)
(7.33396 0.00287584 0)
(7.33487 0.00384934 0)
(7.33599 0.00468082 0)
(7.33727 0.00536538 0)
(7.33867 0.00590757 0)
(7.34017 0.00631908 0)
(7.34173 0.00661498 0)
(7.34333 0.00681095 0)
(7.34495 0.00692195 0)
(7.3466 0.00696154 0)
(7.34825 0.00694157 0)
(7.34992 0.00687214 0)
(7.35158 0.00676179 0)
(7.35326 0.0066177 0)
(7.35493 0.00644586 0)
(7.35662 0.00625124 0)
(7.35831 0.00603797 0)
(7.36002 0.00580938 0)
(7.36174 0.00556809 0)
(7.36348 0.00531595 0)
(7.36525 0.00505404 0)
(7.36705 0.00478259 0)
(7.36889 0.00450084 0)
(7.37077 0.00420703 0)
(7.37271 0.00389822 0)
(7.37471 0.00357033 0)
(7.37678 0.00321813 0)
(7.37891 0.00283536 0)
(7.38113 0.00241488 0)
(7.38343 0.00194882 0)
(7.38581 0.00143053 0)
(7.33303 0.000513443 0)
(7.3333 0.00152256 0)
(7.3339 0.00246016 0)
(7.33475 0.00329265 0)
(7.33579 0.00400358 0)
(7.337 0.00458755 0)
(7.33833 0.00504717 0)
(7.33976 0.00539117 0)
(7.34125 0.00563147 0)
(7.34279 0.0057809 0)
(7.34437 0.00585194 0)
(7.34597 0.00585617 0)
(7.34759 0.00580374 0)
(7.34921 0.00570343 0)
(7.35085 0.00556266 0)
(7.3525 0.00538763 0)
(7.35415 0.00518347 0)
(7.35581 0.00495435 0)
(7.35748 0.00470361 0)
(7.35917 0.00443378 0)
(7.36087 0.00414668 0)
(7.36259 0.00384334 0)
(7.36434 0.00352403 0)
(7.36613 0.00318818 0)
(7.36794 0.00283436 0)
(7.3698 0.00246015 0)
(7.37171 0.00206219 0)
(7.37368 0.00163612 0)
(7.3757 0.00117666 0)
(7.37779 0.000677707 0)
(7.37994 0.000132439 0)
(7.38218 -0.000466597 0)
(7.38448 -0.00112535 0)
(7.33302 0.00043041 0)
(7.33328 0.00127628 0)
(7.33384 0.00206092 0)
(7.33463 0.00275623 0)
(7.33562 0.00334789 0)
(7.33676 0.00383033 0)
(7.33802 0.00420478 0)
(7.33939 0.00447765 0)
(7.34082 0.00465825 0)
(7.34231 0.00475691 0)
(7.34384 0.00478395 0)
(7.34539 0.00474903 0)
(7.34697 0.00466072 0)
(7.34856 0.00452643 0)
(7.35017 0.00435247 0)
(7.35178 0.00414404 0)
(7.35341 0.00390538 0)
(7.35504 0.00363983 0)
(7.35669 0.00334995 0)
(7.35835 0.0030375 0)
(7.36003 0.00270352 0)
(7.36173 0.00234834 0)
(7.36346 0.00197149 0)
(7.36521 0.00157178 0)
(7.367 0.00114717 0)
(7.36882 0.000694796 0)
(7.37069 0.000210976 0)
(7.37261 -0.000308795 0)
(7.37458 -0.00086978 0)
(7.3766 -0.00147788 0)
(7.37869 -0.00213958 0)
(7.38084 -0.00286191 0)
(7.38305 -0.00365013 0)
(7.33302 0.000350374 0)
(7.33327 0.00103907 0)
(7.33379 0.00167602 0)
(7.33453 0.00223743 0)
(7.33546 0.00271091 0)
(7.33654 0.00309097 0)
(7.33775 0.00337785 0)
(7.33905 0.0035762 0)
(7.34043 0.0036932 0)
(7.34187 0.00373707 0)
(7.34335 0.00371614 0)
(7.34486 0.00363842 0)
(7.3464 0.00351091 0)
(7.34796 0.00333972 0)
(7.34953 0.00313002 0)
(7.35111 0.00288601 0)
(7.35271 0.00261104 0)
(7.35432 0.00230762 0)
(7.35594 0.00197751 0)
(7.35757 0.00162175 0)
(7.35922 0.00124068 0)
(7.36089 0.000833927 0)
(7.36258 0.000400455 0)
(7.3643 -6.15059e-05 0)
(7.36605 -0.000554434 0)
(7.36783 -0.00108153 0)
(7.36965 -0.00164669 0)
(7.37151 -0.00225447 0)
(7.37341 -0.00291005 0)
(7.37537 -0.00361909 0)
(7.37737 -0.00438769 0)
(7.37942 -0.00522245 0)
(7.38152 -0.00612793 0)
(7.33302 0.000273027 0)
(7.33325 0.000809858 0)
(7.33374 0.00130362 0)
(7.33445 0.00173408 0)
(7.33532 0.00209056 0)
(7.33635 0.00236792 0)
(7.3375 0.00256575 0)
(7.33875 0.00268731 0)
(7.34008 0.00273801 0)
(7.34147 0.00272424 0)
(7.34291 0.00265254 0)
(7.34438 0.00252947 0)
(7.34588 0.00236036 0)
(7.3474 0.00215014 0)
(7.34894 0.00190288 0)
(7.35049 0.00162178 0)
(7.35205 0.00130931 0)
(7.35363 0.000967157 0)
(7.35522 0.000596352 0)
(7.35682 0.000197222 0)
(7.35843 -0.000230529 0)
(7.36007 -0.00068784 0)
(7.36172 -0.00117628 0)
(7.36339 -0.00169806 0)
(7.36509 -0.002256 0)
(7.36682 -0.00285353 0)
(7.36858 -0.00349466 0)
(7.37038 -0.00418393 0)
(7.37221 -0.00492635 0)
(7.37408 -0.00572731 0)
(7.37598 -0.00659252 0)
(7.37793 -0.00752807 0)
(7.37992 -0.00853787 0)
(7.33302 0.000198045 0)
(7.33324 0.000587534 0)
(7.3337 0.000941728 0)
(7.33437 0.00124322 0)
(7.3352 0.00148287 0)
(7.33618 0.00165601 0)
(7.33728 0.00176201 0)
(7.33849 0.00180321 0)
(7.33977 0.00178368 0)
(7.34112 0.0017083 0)
(7.34251 0.00158176 0)
(7.34394 0.00141014 0)
(7.3454 0.00119673 0)
(7.34689 0.000945242 0)
(7.34839 0.000658699 0)
(7.34991 0.000339383 0)
(7.35144 -1.11826e-05 0)
(7.35298 -0.000392109 0)
(7.35453 -0.000803113 0)
(7.3561 -0.00124453 0)
(7.35767 -0.00171724 0)
(7.35926 -0.00222273 0)
(7.36087 -0.002763 0)
(7.3625 -0.00334064 0)
(7.36414 -0.00395871 0)
(7.36581 -0.0046208 0)
(7.3675 -0.00533097 0)
(7.36922 -0.00609365 0)
(7.37097 -0.00691367 0)
(7.37274 -0.00779608 0)
(7.37455 -0.00874618 0)
(7.37638 -0.00976956 0)
(7.37825 -0.0108694 0)
(7.33302 0.000125143 0)
(7.33322 0.000371388 0)
(7.33366 0.000589633 0)
(7.3343 0.000765066 0)
(7.33509 0.000890231 0)
(7.33603 0.000960798 0)
(7.33709 0.000975946 0)
(7.33825 0.00093722 0)
(7.33949 0.000847511 0)
(7.34079 0.000710345 0)
(7.34215 0.000529829 0)
(7.34355 0.000307809 0)
(7.34497 4.86957e-05 0)
(7.34642 -0.000245062 0)
(7.34789 -0.000571722 0)
(7.34937 -0.000929939 0)
(7.35087 -0.00131902 0)
(7.35237 -0.00173881 0)
(7.35388 -0.00218968 0)
(7.35541 -0.00267255 0)
(7.35694 -0.00318882 0)
(7.35848 -0.00374039 0)
(7.36004 -0.00432966 0)
(7.36161 -0.00495944 0)
(7.36319 -0.00563299 0)
(7.36479 -0.00635398 0)
(7.36641 -0.0071264 0)
(7.36805 -0.00795459 0)
(7.3697 -0.0088431 0)
(7.37138 -0.00979666 0)
(7.37307 -0.0108201 0)
(7.37479 -0.0119185 0)
(7.37652 -0.0130946 0)
(7.33302 5.39406e-05 0)
(7.33321 0.000159663 0)
(7.33363 0.000242794 0)
(7.33424 0.000290289 0)
(7.335 0.000295966 0)
(7.3359 0.000257632 0)
(7.33692 0.000174797 0)
(7.33804 4.87773e-05 0)
(7.33925 -0.000118075 0)
(7.34051 -0.000323151 0)
(7.34183 -0.000563486 0)
(7.34319 -0.000838546 0)
(7.34458 -0.00114516 0)
(7.346 -0.00148208 0)
(7.34743 -0.00184869 0)
(7.34888 -0.00224474 0)
(7.35033 -0.00267038 0)
(7.3518 -0.00312626 0)
(7.35327 -0.00361348 0)
(7.35475 -0.00413354 0)
(7.35624 -0.00468839 0)
(7.35773 -0.00528033 0)
(7.35923 -0.00591208 0)
(7.36074 -0.00658667 0)
(7.36225 -0.00730751 0)
(7.36378 -0.00807828 0)
(7.36531 -0.0089029 0)
(7.36686 -0.00978551 0)
(7.36842 -0.0107304 0)
(7.36999 -0.011742 0)
(7.37156 -0.0128245 0)
(7.37315 -0.0139827 0)
(7.37475 -0.0152186 0)
(7.33302 -1.54288e-05 0)
(7.3332 -4.52535e-05 0)
(7.3336 -9.0223e-05 0)
(7.33418 -0.000161335 0)
(7.33491 -0.000263713 0)
(7.33578 -0.00039945 0)
(7.33676 -0.000569648 0)
(7.33785 -0.000773928 0)
(7.33902 -0.00101101 0)
(7.34026 -0.00127936 0)
(7.34155 -0.00157786 0)
(7.34288 -0.00190408 0)
(7.34424 -0.00225809 0)
(7.34562 -0.00263938 0)
(7.34702 -0.00304783 0)
(7.34843 -0.00348383 0)
(7.34985 -0.00394819 0)
(7.35127 -0.00444212 0)
(7.3527 -0.00496721 0)
(7.35414 -0.00552542 0)
(7.35557 -0.00611904 0)
(7.35701 -0.0067507 0)
(7.35845 -0.0074233 0)
(7.35989 -0.00814006 0)
(7.36133 -0.0089044 0)
(7.36278 -0.00971998 0)
(7.36423 -0.0105906 0)
(7.36568 -0.0115202 0)
(7.36713 -0.0125129 0)
(7.36859 -0.0135725 0)
(7.37004 -0.0147031 0)
(7.3715 -0.0159088 0)
(7.37295 -0.0171911 0)
(7.33302 -8.44335e-05 0)
(7.3332 -0.000254174 0)
(7.33358 -0.000440466 0)
(7.33414 -0.000652281 0)
(7.33485 -0.000890094 0)
(7.33569 -0.0011524 0)
(7.33665 -0.00143692 0)
(7.33771 -0.00174169 0)
(7.33885 -0.00206548 0)
(7.34005 -0.00240775 0)
(7.34131 -0.00276854 0)
(7.34261 -0.00314808 0)
(7.34393 -0.00354745 0)
(7.34528 -0.00396774 0)
(7.34665 -0.00441033 0)
(7.34802 -0.00487688 0)
(7.3494 -0.00536927 0)
(7.35078 -0.00588963 0)
(7.35217 -0.00644028 0)
(7.35355 -0.00702377 0)
(7.35493 -0.00764285 0)
(7.35631 -0.00830049 0)
(7.35769 -0.00899983 0)
(7.35906 -0.0097442 0)
(7.36043 -0.010537 0)
(7.36179 -0.011382 0)
(7.36315 -0.0122826 0)
(7.3645 -0.0132426 0)
(7.36585 -0.0142658 0)
(7.36719 -0.0153557 0)
(7.36852 -0.0165159 0)
(7.36984 -0.0177499 0)
(7.37115 -0.0190588 0)
(7.33301 -0.000148239 0)
(7.33318 -0.000433533 0)
(7.33353 -0.000719628 0)
(7.33406 -0.00101833 0)
(7.33474 -0.00133458 0)
(7.33556 -0.0016704 0)
(7.3365 -0.00202577 0)
(7.33754 -0.00239957 0)
(7.33867 -0.00279048 0)
(7.33986 -0.00319757 0)
(7.3411 -0.00362041 0)
(7.34238 -0.00405907 0)
(7.34368 -0.00451428 0)
(7.345 -0.00498719 0)
(7.34634 -0.00547932 0)
(7.34768 -0.00599255 0)
(7.34902 -0.00652904 0)
(7.35037 -0.0070912 0)
(7.35171 -0.00768166 0)
(7.35304 -0.00830325 0)
(7.35437 -0.00895899 0)
(7.35568 -0.00965203 0)
(7.35699 -0.0103857 0)
(7.35829 -0.0111633 0)
(7.35958 -0.0119884 0)
(7.36085 -0.0128645 0)
(7.36212 -0.0137951 0)
(7.36337 -0.0147838 0)
(7.3646 -0.015834 0)
(7.36582 -0.016949 0)
(7.36703 -0.018132 0)
(7.36821 -0.0193863 0)
(7.36937 -0.0207124 0)
(7.33302 -0.000224577 0)
(7.3332 -0.000688731 0)
(7.33356 -0.00118023 0)
(7.33408 -0.00169397 0)
(7.33475 -0.00221431 0)
(7.33555 -0.0027294 0)
(7.33646 -0.0032337 0)
(7.33747 -0.00372607 0)
(7.33857 -0.0042081 0)
(7.33972 -0.00468293 0)
(7.34093 -0.00515452 0)
(7.34218 -0.00562704 0)
(7.34345 -0.00610474 0)
(7.34474 -0.00659174 0)
(7.34605 -0.00709195 0)
(7.34735 -0.00760913 0)
(7.34866 -0.00814687 0)
(7.34996 -0.00870869 0)
(7.35125 -0.009298 0)
(7.35253 -0.00991819 0)
(7.3538 -0.0105726 0)
(7.35506 -0.0112647 0)
(7.3563 -0.0119977 0)
(7.35753 -0.012775 0)
(7.35874 -0.0136001 0)
(7.35992 -0.0144761 0)
(7.36109 -0.0154064 0)
(7.36224 -0.0163942 0)
(7.36337 -0.0174425 0)
(7.36447 -0.0185542 0)
(7.36554 -0.019732 0)
(7.36659 -0.0209788 0)
(7.36761 -0.0222946 0)
(7.333 -0.000250029 0)
(7.3331 -0.000704165 0)
(7.33339 -0.00114504 0)
(7.33387 -0.00160888 0)
(7.33452 -0.00210644 0)
(7.33533 -0.00263417 0)
(7.33627 -0.00318348 0)
(7.33731 -0.00374563 0)
(7.33842 -0.00431414 0)
(7.3396 -0.0048851 0)
(7.34082 -0.00545684 0)
(7.34207 -0.00602938 0)
(7.34334 -0.00660407 0)
(7.34462 -0.00718315 0)
(7.3459 -0.00776944 0)
(7.34718 -0.00836617 0)
(7.34845 -0.00897681 0)
(7.34971 -0.00960497 0)
(7.35096 -0.0102543 0)
(7.35219 -0.0109286 0)
(7.3534 -0.0116315 0)
(7.35459 -0.0123667 0)
(7.35576 -0.0131379 0)
(7.35691 -0.0139487 0)
(7.35803 -0.0148026 0)
(7.35913 -0.015703 0)
(7.3602 -0.0166533 0)
(7.36124 -0.0176566 0)
(7.36225 -0.018716 0)
(7.36323 -0.0198341 0)
(7.36417 -0.0210135 0)
(7.36508 -0.0222569 0)
(7.36596 -0.0235642 0)
(7.33305 -0.000424505 0)
(7.33329 -0.00133977 0)
(7.33365 -0.00230579 0)
(7.33412 -0.00325631 0)
(7.33473 -0.00414059 0)
(7.33546 -0.00494258 0)
(7.33632 -0.00566616 0)
(7.33729 -0.00632231 0)
(7.33835 -0.00692413 0)
(7.33947 -0.00748481 0)
(7.34065 -0.00801654 0)
(7.34186 -0.00853009 0)
(7.3431 -0.00903471 0)
(7.34435 -0.0095383 0)
(7.3456 -0.0100476 0)
(7.34685 -0.0105684 0)
(7.34809 -0.0111057 0)
(7.34932 -0.0116641 0)
(7.35052 -0.0122476 0)
(7.35171 -0.01286 0)
(7.35287 -0.0135048 0)
(7.35401 -0.0141854 0)
(7.35512 -0.014905 0)
(7.3562 -0.0156667 0)
(7.35724 -0.0164733 0)
(7.35826 -0.0173278 0)
(7.35924 -0.0182329 0)
(7.36018 -0.0191911 0)
(7.36109 -0.0202048 0)
(7.36195 -0.0212762 0)
(7.36278 -0.0224073 0)
(7.36356 -0.0236 0)
(7.36429 -0.0248541 0)
(7.33293 -0.000166411 0)
(7.33282 -0.000407854 0)
(7.33297 -0.00070634 0)
(7.33343 -0.00118951 0)
(7.33414 -0.00184518 0)
(7.33503 -0.00261296 0)
(7.33606 -0.0034387 0)
(7.33717 -0.00428473 0)
(7.33834 -0.00512737 0)
(7.33956 -0.00595297 0)
(7.34079 -0.00675503 0)
(7.34204 -0.00753208 0)
(7.3433 -0.00828584 0)
(7.34454 -0.00901998 0)
(7.34578 -0.00973929 0)
(7.347 -0.0104491 0)
(7.3482 -0.0111548 0)
(7.34938 -0.0118621 0)
(7.35053 -0.0125761 0)
(7.35166 -0.0133021 0)
(7.35275 -0.0140448 0)
(7.35381 -0.014809 0)
(7.35484 -0.0155989 0)
(7.35583 -0.0164187 0)
(7.35679 -0.0172722 0)
(7.3577 -0.018163 0)
(7.35858 -0.0190943 0)
(7.35941 -0.0200694 0)
(7.3602 -0.0210908 0)
(7.36094 -0.0221612 0)
(7.36163 -0.0232828 0)
(7.36228 -0.0244575 0)
(7.36288 -0.0256855 0)
(7.33316 -0.000872483 0)
(7.33362 -0.00289902 0)
(7.33392 -0.00487931 0)
(7.33418 -0.00655506 0)
(7.33458 -0.00788344 0)
(7.33517 -0.00892707 0)
(7.33595 -0.00975564 0)
(7.33687 -0.0104266 0)
(7.33791 -0.0109866 0)
(7.33903 -0.0114721 0)
(7.34021 -0.011911 0)
(7.34143 -0.0123239 0)
(7.34266 -0.0127263 0)
(7.34391 -0.0131296 0)
(7.34514 -0.0135423 0)
(7.34636 -0.0139707 0)
(7.34756 -0.01442 0)
(7.34874 -0.0148941 0)
(7.34988 -0.0153965 0)
(7.35099 -0.0159301 0)
(7.35206 -0.0164974 0)
(7.35309 -0.0171008 0)
(7.35408 -0.0177426 0)
(7.35503 -0.018425 0)
(7.35593 -0.0191499 0)
(7.35678 -0.0199192 0)
(7.35759 -0.0207348 0)
(7.35834 -0.0215984 0)
(7.35904 -0.0225114 0)
(7.35969 -0.0234754 0)
(7.36029 -0.0244915 0)
(7.36083 -0.025561 0)
(7.36131 -0.0266833 0)
(7.33266 0.000525571 0)
(7.33187 0.00176879 0)
(7.3319 0.00239702 0)
(7.33261 0.00207683 0)
(7.33366 0.00111174 0)
(7.33485 -0.000175043 0)
(7.3361 -0.00158623 0)
(7.33739 -0.00301682 0)
(7.33868 -0.0044082 0)
(7.33996 -0.00572884 0)
(7.34123 -0.00696625 0)
(7.34248 -0.00811962 0)
(7.34371 -0.00919449 0)
(7.34491 -0.0101996 0)
(7.34608 -0.0111452 0)
(7.34723 -0.0120418 0)
(7.34834 -0.0128996 0)
(7.34942 -0.0137283 0)
(7.35046 -0.0145367 0)
(7.35147 -0.0153329 0)
(7.35243 -0.0161243 0)
(7.35336 -0.0169174 0)
(7.35424 -0.0177182 0)
(7.35507 -0.0185321 0)
(7.35586 -0.0193638 0)
(7.3566 -0.0202176 0)
(7.35729 -0.0210974 0)
(7.35792 -0.0220066 0)
(7.3585 -0.0229481 0)
(7.35903 -0.0239246 0)
(7.3595 -0.0249382 0)
(7.3599 -0.0259909 0)
(7.36025 -0.027083 0)
(7.33353 -0.00202526 0)
(7.33442 -0.00684947 0)
(7.33402 -0.0113468 0)
(7.33329 -0.0141627 0)
(7.33307 -0.0157845 0)
(7.33339 -0.0167167 0)
(7.33408 -0.0172159 0)
(7.33503 -0.0174537 0)
(7.33615 -0.0175483 0)
(7.33738 -0.0175761 0)
(7.33869 -0.0175852 0)
(7.34002 -0.0176049 0)
(7.34136 -0.0176526 0)
(7.34269 -0.0177379 0)
(7.344 -0.0178658 0)
(7.34527 -0.0180388 0)
(7.34651 -0.0182575 0)
(7.3477 -0.0185218 0)
(7.34885 -0.0188311 0)
(7.34994 -0.0191847 0)
(7.35098 -0.0195823 0)
(7.35197 -0.0200233 0)
(7.3529 -0.0205074 0)
(7.35378 -0.0210347 0)
(7.3546 -0.0216051 0)
(7.35536 -0.0222188 0)
(7.35605 -0.0228761 0)
(7.35669 -0.0235774 0)
(7.35726 -0.0243229 0)
(7.35777 -0.025113 0)
(7.35821 -0.025948 0)
(7.35859 -0.0268285 0)
(7.3589 -0.0277533 0)
(7.33179 0.00339249 0)
(7.329 0.00920622 0)
(7.32947 0.0118384 0)
(7.33181 0.0115579 0)
(7.33391 0.0094695 0)
(7.33567 0.00677861 0)
(7.33725 0.00398673 0)
(7.33868 0.00128154 0)
(7.34001 -0.00123613 0)
(7.34125 -0.00352433 0)
(7.34243 -0.00558054 0)
(7.34356 -0.00742031 0)
(7.34467 -0.00906632 0)
(7.34575 -0.0105437 0)
(7.34681 -0.0118771 0)
(7.34785 -0.0130897 0)
(7.34886 -0.0142021 0)
(7.34985 -0.0152326 0)
(7.35081 -0.0161973 0)
(7.35175 -0.0171101 0)
(7.35265 -0.0179828 0)
(7.35351 -0.0188261 0)
(7.35434 -0.0196487 0)
(7.35512 -0.0204587 0)
(7.35585 -0.0212626 0)
(7.35654 -0.0220664 0)
(7.35717 -0.0228751 0)
(7.35775 -0.0236932 0)
(7.35827 -0.0245244 0)
(7.35872 -0.0253719 0)
(7.35912 -0.0262384 0)
(7.35945 -0.0271262 0)
(7.35971 -0.0280363 0)
(7.33408 -0.00612929 0)
(7.33405 -0.018963 0)
(7.33028 -0.0270075 0)
(7.32662 -0.0305198 0)
(7.32504 -0.0312872 0)
(7.32527 -0.0308507 0)
(7.32633 -0.0298814 0)
(7.32783 -0.0287035 0)
(7.3296 -0.0275146 0)
(7.33153 -0.0264184 0)
(7.33353 -0.0254592 0)
(7.33554 -0.0246517 0)
(7.33754 -0.0239952 0)
(7.33951 -0.0234808 0)
(7.34144 -0.0230965 0)
(7.3433 -0.022829 0)
(7.34511 -0.0226658 0)
(7.34685 -0.0225953 0)
(7.34853 -0.0226074 0)
(7.35013 -0.0226933 0)
(7.35166 -0.0228457 0)
(7.35312 -0.0230583 0)
(7.3545 -0.0233261 0)
(7.35581 -0.023645 0)
(7.35703 -0.0240116 0)
(7.35818 -0.0244232 0)
(7.35924 -0.0248777 0)
(7.36023 -0.0253732 0)
(7.36113 -0.0259084 0)
(7.36194 -0.0264822 0)
(7.36268 -0.0270937 0)
(7.36333 -0.0277424 0)
(7.3639 -0.0284264 0)
(7.32967 0.0198573 0)
(7.32497 0.0369981 0)
(7.32931 0.0376855 0)
(7.33512 0.0322779 0)
(7.33877 0.0258631 0)
(7.34097 0.019554 0)
(7.34279 0.0136581 0)
(7.34455 0.0083776 0)
(7.34632 0.00375823 0)
(7.34816 -0.00024669 0)
(7.35009 -0.00370651 0)
(7.35211 -0.00669299 0)
(7.35421 -0.00927527 0)
(7.35635 -0.0115162 0)
(7.35853 -0.0134704 0)
(7.36072 -0.0151848 0)
(7.3629 -0.0166991 0)
(7.36506 -0.018047 0)
(7.36718 -0.0192565 0)
(7.36925 -0.0203516 0)
(7.37127 -0.0213521 0)
(7.37322 -0.0222751 0)
(7.37509 -0.0231348 0)
(7.37689 -0.0239432 0)
(7.3786 -0.0247109 0)
(7.38023 -0.0254464 0)
(7.38176 -0.0261576 0)
(7.38319 -0.0268508 0)
(7.38454 -0.0275317 0)
(7.38578 -0.0282051 0)
(7.38692 -0.0288755 0)
(7.38796 -0.029546 0)
(7.3889 -0.0302203 0)
(7.32507 -0.0330812 0)
(7.29738 -0.0587686 0)
(7.27807 -0.0617009 0)
(7.27376 -0.0593289 0)
(7.28036 -0.0558269 0)
(7.2918 -0.0517803 0)
(7.30505 -0.0478353 0)
(7.31878 -0.0443245 0)
(7.33222 -0.0412969 0)
(7.34496 -0.0387347 0)
(7.35684 -0.0366008 0)
(7.36781 -0.0348437 0)
(7.37788 -0.0334096 0)
(7.38707 -0.0322496 0)
(7.39546 -0.0313205 0)
(7.40309 -0.0305854 0)
(7.41003 -0.0300134 0)
(7.41633 -0.0295788 0)
(7.42204 -0.0292603 0)
(7.42721 -0.0290405 0)
(7.43189 -0.0289053 0)
(7.4361 -0.0288432 0)
(7.4399 -0.0288447 0)
(7.44331 -0.0289023 0)
(7.44636 -0.0290097 0)
(7.44907 -0.0291618 0)
(7.45148 -0.0293546 0)
(7.45359 -0.0295847 0)
(7.45544 -0.0298493 0)
(7.45704 -0.0301461 0)
(7.4584 -0.0304732 0)
(7.45954 -0.0308288 0)
(7.46049 -0.0312102 0)
(7.33915 0.134725 0)
(7.3762 0.127073 0)
(7.39342 0.0872057 0)