# y+ ()       
# Time        	patch         	min           	max           	average       
300           	lowerWall	1.885559e+00	1.047262e+02	4.686745e+01
300           	upperWall	3.125910e+01	5.495295e+01	4.604504e+01
