/*--------------------------------*- C++ -*----------------------------------*\
  =========                 |
  \\      /  F ield         | OpenFOAM: The Open Source CFD Toolbox
   \\    /   O peration     | Website:  https://openfoam.org
    \\  /    A nd           | Version:  10
     \\/     M anipulation  |
\*---------------------------------------------------------------------------*/
FoamFile
{
    format      ascii;
    class       volScalarField;
    location    "500";
    object      epsilon;
}
// * * * * * * * * * * * * * * * * * * * * * * * * * * * * * * * * * * * * * //

dimensions      [0 2 -3 0 0 0 0];

internalField   nonuniform List<scalar> 
6820
(
23.3479
22.8004
22.2986
21.7955
21.2906
20.7982
20.3323
19.9019
19.5115
19.1624
18.8538
18.5833
18.3485
18.1462
17.9735
17.8275
17.7055
17.6049
17.5236
17.4593
17.4103
17.3749
17.3515
17.3388
17.3356
17.3411
17.354
17.375
17.3794
17.5324
17.2281
19.1044
11.8967
5.24754
7.4065
8.54797
9.1635
9.54959
9.84074
10.0949
10.3377
10.5798
10.8252
11.075
11.329
11.5868
11.8476
12.1107
12.3754
12.6411
12.9071
13.173
13.4383
13.7028
13.9662
14.2284
14.4896
14.75
15.0106
15.2726
15.5378
15.8007
16.1936
16.2953
16.752
17.9004
3.71893
4.27987
4.80507
5.21578
5.52683
5.76843
5.96453
6.13152
6.28022
6.41771
6.54867
6.67614
6.80214
6.92793
7.05431
7.18173
7.31041
7.44044
7.57181
7.70446
7.83829
7.97322
8.10918
8.24617
8.38425
8.52372
8.66497
8.80928
8.95712
9.12768
9.27929
9.43275
9.99885
3.5376
3.62335
3.7716
3.93763
4.09556
4.23613
4.35835
4.46441
4.55734
4.64002
4.71493
4.78407
4.84901
4.911
4.97096
5.02963
5.08755
5.1451
5.20259
5.26023
5.31817
5.37654
5.43542
5.4949
5.5551
5.61616
5.67829
5.74197
5.80763
5.87769
5.95021
6.01909
6.14398
3.52015
3.50151
3.51115
3.54398
3.59069
3.64318
3.69618
3.74683
3.79393
3.83718
3.87676
3.91308
3.94663
3.97787
4.00725
4.03518
4.06197
4.08793
4.11329
4.13824
4.16295
4.18756
4.21219
4.23693
4.2619
4.28722
4.31301
4.3395
4.3669
4.39565
4.42608
4.45736
4.49478
3.51931
3.48209
3.45345
3.43537
3.42736
3.42746
3.43326
3.44265
3.45399
3.46618
3.47848
3.4905
3.50201
3.51293
3.52325
3.53303
3.54232
3.55122
3.55979
3.56814
3.57632
3.58441
3.59248
3.60059
3.60881
3.61721
3.62586
3.63487
3.64435
3.65444
3.66533
3.67709
3.69012
3.51943
3.47964
3.44271
3.40975
3.38151
3.35816
3.33935
3.32445
3.31275
3.30354
3.29622
3.2903
3.28541
3.28129
3.27771
3.27455
3.27171
3.26913
3.26677
3.2646
3.26261
3.26082
3.25921
3.2578
3.25661
3.25567
3.25499
3.25462
3.25462
3.25502
3.25592
3.25739
3.25949
3.51947
3.47942
3.44105
3.40466
3.37057
3.33905
3.31021
3.28406
3.26043
3.23913
3.21989
3.20245
3.18657
3.17202
3.15862
3.14619
3.13462
3.12378
3.1136
3.10399
3.09491
3.08631
3.07815
3.07041
3.06307
3.05611
3.04953
3.04334
3.03754
3.03215
3.02719
3.02269
3.01869
3.51948
3.47941
3.44084
3.40381
3.36835
3.33454
3.30244
3.2721
3.24352
3.21668
3.1915
3.1679
3.14576
3.12498
3.10544
3.08704
3.06968
3.05325
3.03769
3.02292
3.00887
2.9955
2.98274
2.97056
2.95893
2.94781
2.93719
2.92704
2.91736
2.90813
2.89936
2.89105
2.88321
3.51948
3.4794
3.44081
3.40367
3.36795
3.33361
3.30064
3.26903
3.23877
3.20984
3.18223
3.1559
3.1308
3.10688
3.08409
3.06237
3.04166
3.02189
3.00302
2.98499
2.96775
2.95124
2.93543
2.92028
2.90574
2.8918
2.87841
2.86557
2.85324
2.84141
2.83008
2.81923
2.80885
3.51948
3.4794
3.4408
3.40365
3.36788
3.33343
3.30026
3.26832
3.23758
3.20801
3.17956
3.15222
3.12594
3.1007
3.07645
3.05316
3.0308
3.00932
2.98868
2.96885
2.94978
2.93145
2.91382
2.89686
2.88053
2.86481
2.84967
2.83509
2.82106
2.80754
2.79453
2.78201
2.76998
3.51948
3.4794
3.4408
3.40364
3.36785
3.33339
3.30017
3.26816
3.23731
3.20755
3.17887
3.1512
3.12453
3.09881
3.07401
3.05009
3.02703
3.00478
2.98333
2.96264
2.94268
2.92343
2.90484
2.88691
2.86959
2.85288
2.83674
2.82115
2.80611
2.79158
2.77756
2.76403
2.75098
3.51948
3.4794
3.44079
3.40363
3.36784
3.33337
3.30014
3.26811
3.23723
3.20743
3.17868
3.15093
3.12414
3.09827
3.07328
3.04915
3.02583
3.0033
2.98153
2.96049
2.94014
2.92047
2.90145
2.88306
2.86527
2.84807
2.83142
2.81532
2.79974
2.78468
2.77011
2.75602
2.74239
3.51948
3.47939
3.44079
3.40362
3.36783
3.33335
3.30012
3.26809
3.23719
3.20739
3.17862
3.15084
3.12402
3.09811
3.07307
3.04887
3.02547
3.00284
2.98096
2.95979
2.9393
2.91947
2.90028
2.8817
2.86371
2.84629
2.82942
2.81308
2.79726
2.78194
2.7671
2.75273
2.73881
3.51947
3.47939
3.44079
3.40362
3.36782
3.33334
3.30011
3.26807
3.23717
3.20736
3.17858
3.1508
3.12397
3.09804
3.07299
3.04877
3.02534
3.00269
2.98077
2.95955
2.93902
2.91914
2.89989
2.88124
2.86318
2.84568
2.82872
2.81229
2.79636
2.78093
2.76597
2.75147
2.73742
3.51947
3.47939
3.44078
3.40361
3.36781
3.33333
3.30009
3.26805
3.23715
3.20733
3.17855
3.15077
3.12393
3.098
3.07294
3.04871
3.02528
3.00262
2.98069
2.95946
2.93891
2.91901
2.89974
2.88107
2.86299
2.84546
2.82847
2.812
2.79604
2.78056
2.76556
2.75101
2.73689
3.51947
3.47939
3.44078
3.40361
3.36781
3.33332
3.30008
3.26803
3.23713
3.20731
3.17853
3.15074
3.1239
3.09796
3.0729
3.04867
3.02524
3.00257
2.98063
2.9594
2.93885
2.91895
2.89967
2.881
2.8629
2.84536
2.82836
2.81188
2.79591
2.78041
2.76539
2.75081
2.73667
3.51947
3.47939
3.44078
3.4036
3.3678
3.33331
3.30007
3.26802
3.23711
3.20729
3.1785
3.15071
3.12387
3.09793
3.07287
3.04863
3.0252
3.00253
2.98059
2.95936
2.9388
2.9189
2.89962
2.88094
2.86284
2.8453
2.8283
2.81181
2.79583
2.78033
2.76529
2.75071
2.73655
3.51947
3.47939
3.44078
3.4036
3.3678
3.3333
3.30006
3.26801
3.2371
3.20727
3.17849
3.15069
3.12384
3.09791
3.07284
3.0486
3.02516
3.00249
2.98055
2.95932
2.93876
2.91886
2.89958
2.8809
2.8628
2.84525
2.82825
2.81176
2.79577
2.78026
2.76522
2.75063
2.73646
3.51947
3.47939
3.44077
3.4036
3.36779
3.3333
3.30005
3.268
3.23709
3.20726
3.17847
3.15067
3.12382
3.09788
3.07281
3.04857
3.02513
3.00246
2.98052
2.95928
2.93873
2.91882
2.89954
2.88085
2.86275
2.84521
2.8282
2.81171
2.79571
2.7802
2.76515
2.75055
2.73638
3.51947
3.47939
3.44077
3.40359
3.36779
3.33329
3.30005
3.26799
3.23708
3.20725
3.17845
3.15065
3.1238
3.09786
3.07279
3.04855
3.02511
3.00243
2.98049
2.95925
2.93869
2.91878
2.8995
2.88082
2.86271
2.84516
2.82815
2.81166
2.79566
2.78014
2.76509
2.75048
2.73631
3.51947
3.47938
3.44077
3.40359
3.36779
3.33329
3.30004
3.26798
3.23707
3.20723
3.17844
3.15064
3.12379
3.09784
3.07277
3.04853
3.02508
3.00241
2.98046
2.95922
2.93866
2.91875
2.89946
2.88078
2.86267
2.84512
2.82811
2.81161
2.79561
2.78009
2.76503
2.75042
2.73623
3.51947
3.47938
3.44077
3.40359
3.36778
3.33328
3.30004
3.26798
3.23706
3.20723
3.17843
3.15063
3.12377
3.09783
3.07275
3.04851
3.02506
3.00238
2.98044
2.9592
2.93863
2.91872
2.89943
2.88074
2.86264
2.84508
2.82807
2.81156
2.79556
2.78003
2.76497
2.75035
2.73616
3.51947
3.47938
3.44077
3.40359
3.36778
3.33328
3.30003
3.26797
3.23705
3.20722
3.17842
3.15062
3.12376
3.09781
3.07274
3.04849
3.02504
3.00236
2.98042
2.95917
2.93861
2.91869
2.8994
2.88071
2.8626
2.84505
2.82803
2.81152
2.79551
2.77998
2.76491
2.75029
2.7361
3.51947
3.47938
3.44077
3.40359
3.36778
3.33328
3.30003
3.26797
3.23705
3.20721
3.17841
3.15061
3.12375
3.0978
3.07272
3.04848
3.02503
3.00235
2.9804
2.95915
2.93859
2.91867
2.89938
2.88068
2.86257
2.84501
2.82799
2.81148
2.79547
2.77994
2.76486
2.75023
2.73603
3.51947
3.47938
3.44077
3.40359
3.36778
3.33328
3.30003
3.26797
3.23704
3.20721
3.17841
3.1506
3.12374
3.09779
3.07271
3.04846
3.02501
3.00233
2.98038
2.95914
2.93857
2.91865
2.89935
2.88066
2.86254
2.84498
2.82795
2.81144
2.79543
2.77989
2.76481
2.75018
2.73597
3.51947
3.47938
3.44077
3.40359
3.36778
3.33328
3.30002
3.26796
3.23704
3.2072
3.1784
3.15059
3.12373
3.09778
3.0727
3.04845
3.025
3.00232
2.98037
2.95912
2.93855
2.91863
2.89933
2.88064
2.86252
2.84495
2.82792
2.81141
2.79539
2.77985
2.76477
2.75013
2.73592
3.51947
3.47938
3.44077
3.40359
3.36778
3.33328
3.30002
3.26796
3.23704
3.2072
3.1784
3.15059
3.12373
3.09778
3.0727
3.04845
3.025
3.00231
2.98036
2.95911
2.93854
2.91861
2.89932
2.88062
2.8625
2.84493
2.8279
2.81138
2.79536
2.77981
2.76473
2.75009
2.73587
3.51947
3.47938
3.44077
3.40359
3.36778
3.33328
3.30002
3.26796
3.23704
3.2072
3.1784
3.15059
3.12373
3.09777
3.07269
3.04844
3.02499
3.0023
2.98035
2.9591
2.93853
2.9186
2.8993
2.8806
2.86248
2.84491
2.82787
2.81135
2.79533
2.77978
2.76469
2.75005
2.73583
3.51947
3.47938
3.44077
3.40359
3.36778
3.33327
3.30002
3.26796
3.23703
3.2072
3.17839
3.15059
3.12373
3.09777
3.07269
3.04844
3.02499
3.0023
2.98034
2.95909
2.93852
2.91859
2.89929
2.88059
2.86247
2.8449
2.82786
2.81134
2.79531
2.77976
2.76467
2.75002
2.7358
3.51947
3.47938
3.44077
3.40359
3.36778
3.33328
3.30002
3.26796
3.23703
3.2072
3.1784
3.15059
3.12373
3.09777
3.07269
3.04844
3.02499
3.0023
2.98034
2.95909
2.93852
2.91859
2.89929
2.88059
2.86246
2.84489
2.82786
2.81133
2.79531
2.77975
2.76466
2.75001
2.73579
3.51947
3.47938
3.44077
3.40359
3.36778
3.33328
3.30002
3.26796
3.23704
3.2072
3.1784
3.15059
3.12373
3.09778
3.0727
3.04845
3.025
3.00232
2.98037
2.95912
2.93855
2.91863
2.89933
2.88064
2.86252
2.84496
2.82793
2.81141
2.79539
2.77985
2.76477
2.75014
2.73593
3.51947
3.47938
3.44077
3.40359
3.36778
3.33328
3.30002
3.26796
3.23704
3.20721
3.17841
3.15061
3.12375
3.09781
3.07274
3.04851
3.02507
3.00241
2.98048
2.95926
2.93872
2.91883
2.89957
2.88091
2.86284
2.84532
2.82834
2.81188
2.79592
2.78044
2.76542
2.75085
2.7367
3.51947
3.47938
3.44077
3.40359
3.36778
3.33329
3.30005
3.268
3.23711
3.20731
3.17856
3.15081
3.12402
3.09815
3.07316
3.04903
3.0257
3.00316
2.98137
2.96029
2.93991
2.9202
2.90113
2.88267
2.8648
2.84751
2.83076
2.81454
2.79883
2.7836
2.76885
2.75455
2.74068
3.51947
3.47938
3.44078
3.40362
3.36785
3.33343
3.30029
3.26838
3.23767
3.2081
3.17963
3.15222
3.12583
3.10041
3.07594
3.05236
3.02965
3.00777
2.98668
2.96636
2.94677
2.92789
2.90967
2.89209
2.87513
2.85877
2.84296
2.8277
2.81296
2.79871
2.78494
2.77162
2.75874
3.51947
3.47942
3.44096
3.40413
3.36893
3.33533
3.30326
3.27267
3.24351
3.21573
3.18926
3.16406
3.14006
3.1172
3.09544
3.0747
3.05494
3.03611
3.01814
3.00099
2.98462
2.96897
2.954
2.93968
2.92596
2.91282
2.90021
2.88811
2.87649
2.86531
2.85456
2.84422
2.83424
3.5195
3.48076
3.44539
3.41322
3.38398
3.35747
3.33353
3.31197
3.29262
3.27529
3.25979
3.24593
3.23355
3.22249
3.21258
3.20371
3.19573
3.18855
3.18207
3.1762
3.17086
3.16599
3.16152
3.15741
3.15359
3.15005
3.14673
3.14361
3.14066
3.13786
3.13518
3.13261
3.13013
3.52507
3.51485
3.52107
3.53656
3.55843
3.58515
3.61571
3.64919
3.68478
3.72179
3.75968
3.79799
3.83638
3.87454
3.91227
3.94938
3.98574
4.02126
4.05585
4.08948
4.1221
4.1537
4.18426
4.2138
4.24232
4.26983
4.29634
4.32189
4.34649
4.37016
4.39294
4.41486
4.43594
3.842
4.38777
4.87739
5.34258
5.7949
6.23575
6.66308
7.07552
7.47304
7.85623
8.22584
8.58262
8.92733
9.26067
9.58328
9.89572
10.1985
10.4919
10.7765
11.0526
11.3204
11.5803
11.8325
12.0773
12.3149
12.5456
12.7696
12.9871
13.1983
13.4034
13.6027
13.7963
13.9846
30.2673
32.7691
35.3054
37.8488
40.3863
42.91
45.413
47.8884
50.3294
52.7301
55.0854
57.3904
59.6414
61.8349
63.9684
66.0396
68.047
69.9895
71.8665
73.6775
75.4229
77.1029
78.7183
80.2699
81.7588
83.1864
84.5541
85.8633
87.1157
88.3129
89.4568
90.5488
91.5919
21.085
312.347
727.681
948.572
966.332
900.328
826.749
769.484
727.948
695.048
665.124
635.65
606.257
577.487
550.016
524.306
500.501
478.485
457.991
438.722
420.427
402.931
386.121
369.938
354.359
339.403
325.121
311.598
298.926
287.178
276.382
266.497
257.409
248.946
240.905
233.09
225.341
217.561
209.716
201.832
193.984
186.272
178.815
171.726
165.109
159.038
153.54
148.579
144.044
139.765
135.532
131.14
126.424
121.29
115.726
109.798
103.646
97.4614
91.4672
85.8962
80.9628
76.8329
73.592
71.2228
69.6026
68.527
67.753
67.0448
66.2086
65.1095
63.6721
61.8722
59.7245
57.2706
54.569
51.6873
48.6977
45.6739
42.6912
39.8298
37.1836
34.8746
33.0627
31.9233
31.5679
31.9528
32.8704
34.039
35.2059
36.1995
36.9289
37.3628
37.5057
37.3794
37.0145
36.4374
35.6861
34.7416
33.8027
31.8578
17.9009
19.7065
78.7417
194.223
301.258
365.011
392.339
401.459
405.142
408.298
410.925
411.64
409.705
405.371
399.388
392.475
385.055
377.228
368.878
359.815
349.892
339.07
327.427
315.141
302.45
289.628
276.956
264.702
253.099
242.315
232.435
223.446
215.239
207.634
200.409
193.348
186.282
179.106
171.799
164.407
157.03
149.799
142.853
136.326
130.333
124.954
120.221
116.101
112.486
109.197
106.019
102.729
99.1474
95.161
90.742
85.9457
80.8988
75.7805
70.8013
66.1801
62.1204
58.7833
56.2599
54.5482
53.5464
53.0702
52.8917
52.783
52.5526
52.0636
51.237
50.0451
48.4996
46.64
44.5235
42.2173
39.7931
37.3241
34.8843
32.5517
30.4167
28.5955
27.2397
26.5143
26.5238
27.2248
28.4173
29.8297
31.2184
32.4174
33.3391
33.9531
34.2636
34.292
34.0681
33.6183
32.98
32.1353
31.285
29.4416
9.96504
7.73427
8.37559
20.1054
43.4215
70.0906
93.212
110.58
123.207
132.995
141.381
149.152
156.77
164.618
172.997
181.974
191.255
200.215
208.061
214.055
217.691
218.77
217.383
213.842
208.59
202.119
194.916
187.423
180.008
172.947
166.407
160.44
154.988
149.912
145.021
140.121
135.056
129.738
124.158
118.38
112.523
106.735
101.172
95.9762
91.2686
87.1358
83.62
80.7052
78.3059
76.2687
74.3915
72.4587
70.282
67.7343
64.7676
61.4148
57.7788
54.0131
50.3007
46.8331
43.7903
41.3213
39.5232
38.4191
37.9468
37.9645
38.279
38.6844
38.9984
39.0838
38.8561
38.2796
37.3582
36.1243
34.6294
32.9358
31.1112
29.2246
27.3458
25.5469
23.9105
22.5419
21.5795
21.1785
21.4449
22.352
23.7234
25.3069
26.869
28.2462
29.3489
30.143
30.6292
30.8257
30.7601
30.4577
29.9547
29.2352
28.496
26.805
6.34234
6.1091
5.54915
5.80742
7.98218
11.9774
16.8319
21.6435
25.9248
29.5637
32.6826
35.4981
38.262
41.2587
44.795
49.1559
54.526
60.9008
68.0326
75.452
82.5659
88.7972
93.71
97.0799
98.9
99.3389
98.6761
97.2374
95.3412
93.2583
91.1853
89.2299
87.408
85.656
83.8552
81.8685
79.5785
76.9177
73.8842
70.5411
67.0005
63.402
59.8901
56.5973
53.6334
51.0803
48.9872
47.3631
46.1668
45.3014
44.6195
43.9461
43.1121
41.9877
40.5059
38.6695
36.5442
34.243
31.9055
29.68
27.7075
26.1104
24.9803
24.3639
24.2481
24.5538
25.1466
25.8637
26.5454
27.0608
27.32
27.2766
26.9214
26.2743
25.3753
24.277
23.0381
21.72
20.3844
19.0944
17.92
16.9501
16.3051
16.1293
16.5371
17.5317
18.9744
20.6413
22.312
23.8234
25.0803
26.0413
26.6998
27.0688
27.1714
27.0311
26.6813
26.109
25.5005
24.0073
4.56085
4.59515
4.5243
4.44103
4.56816
5.03989
5.81243
6.74925
7.71144
8.61261
9.41945
10.1391
10.8078
11.4818
12.2335
13.1456
14.3016
15.7696
17.5806
19.7089
22.0651
24.5073
26.87
29.0004
30.7886
32.1837
33.1939
33.874
34.3069
34.5843
34.7884
34.9765
35.1699
35.3486
35.4556
35.4115
35.1365
34.5737
33.705
32.5567
31.1923
29.6991
28.1722
26.7013
25.3623
24.2141
23.298
22.6369
22.2301
22.0469
22.0216
22.057
22.041
21.8705
21.4742
20.8267
19.9495
18.9027
17.7702
16.6451
15.6183
14.772
14.1753
13.8794
13.9077
14.2444
14.8286
15.5624
16.33
17.021
17.5476
17.8534
17.9136
17.7307
17.3278
16.742
16.0185
15.2064
14.3556
13.517
12.745
12.1076
11.6996
11.6479
12.0759
13.0269
14.4146
16.0553
17.7464
19.3257
20.6897
21.7863
22.5986
23.1317
23.4022
23.4297
23.2437
22.8341
22.3709
21.1115
3.70944
3.73032
3.73629
3.72603
3.7281
3.78093
3.90189
4.08141
4.29485
4.51669
4.72947
4.92606
5.10851
5.28564
5.4712
5.68212
5.93651
6.25071
6.63564
7.09317
7.6137
8.17653
8.75301
9.31214
9.82663
10.2778
10.6581
10.9709
11.2285
11.4486
11.6505
11.8512
12.0607
12.279
12.4928
12.6773
12.8006
12.8321
12.7509
12.5518
12.2467
11.8609
11.428
10.9834
10.56
10.1854
9.88135
9.66422
9.54429
9.52337
9.5905
9.71823
9.86352
9.97515
10.006
9.92483
9.72352
9.41669
9.03628
8.62365
8.22264
7.87539
7.62106
7.49528
7.52743
7.73376
8.10827
8.61736
9.20311
9.79481
10.3236
10.7343
10.9917
11.0817
11.0087
10.7909
10.4563
10.0379
9.57131
9.09309
8.64141
8.26176
8.0191
8.01087
8.35589
9.13643
10.3318
11.815
13.4127
14.9675
16.3672
17.5463
18.4751
19.1473
19.5711
19.7602
19.7385
19.4977
19.1871
18.1849
3.26298
3.26743
3.27053
3.27035
3.26889
3.27278
3.28887
3.31987
3.36355
3.41472
3.46807
3.52023
3.57024
3.61941
3.67067
3.72804
3.79594
3.87837
3.97802
4.09548
4.2287
4.37309
4.52216
4.6687
4.80601
4.92908
5.03522
5.12425
5.19815
5.2605
5.31567
5.36803
5.42101
5.47617
5.53235
5.58524
5.62788
5.65202
5.6502
5.61775
5.55405
5.46266
5.3505
5.22646
5.09999
4.98008
4.8746
4.79024
4.73251
4.70549
4.71077
4.74571
4.80182
4.8649
4.91752
4.9434
4.93178
4.87985
4.79277
4.6817
4.56121
4.44723
4.35627
4.30544
4.31237
4.39331
4.55888
4.80844
5.12658
5.4841
5.84357
6.16716
6.42361
6.59251
6.66554
6.64541
6.54349
6.37704
6.16679
5.93516
5.70579
5.50556
5.37196
5.36627
5.58087
6.11297
7.00361
8.199
9.5746
10.9902
12.33
13.5153
14.5016
15.2691
15.8148
16.1442
16.2741
16.1964
16.0356
15.2986
3.01462
3.01031
3.00609
3.00151
2.99637
2.99138
2.98801
2.9876
2.99059
2.99636
3.00373
3.01167
3.01969
3.02793
3.03717
3.04854
3.06336
3.08283
3.10777
3.13835
3.17396
3.21325
3.25429
3.29487
3.3329
3.36669
3.39519
3.41804
3.43557
3.44857
3.45819
3.46562
3.47196
3.47789
3.4835
3.48816
3.49045
3.48843
3.48005
3.46364
3.43832
3.40425
3.36261
3.31537
3.26499
3.2141
3.16527
3.12083
3.08289
3.05327
3.03345
3.02413
3.0247
3.03271
3.04396
3.05331
3.05592
3.04857
3.03031
3.00251
2.96839
2.93242
2.89995
2.87727
2.87172
2.89159
2.94491
3.03716
3.16853
3.33216
3.51456
3.698
3.86419
3.99764
4.08798
4.13088
4.12769
4.08438
4.01024
3.91662
3.81616
3.72303
3.65592
3.64607
3.74867
4.04226
4.59662
5.42541
6.47085
7.63184
8.80333
9.90064
10.866
11.6657
12.2837
12.7157
12.9695
13.0351
13.01
12.5286
2.87462
2.86514
2.85583
2.84661
2.83732
2.82794
2.81864
2.80976
2.80158
2.79415
2.7873
2.78078
2.77444
2.76829
2.76256
2.75762
2.75392
2.75189
2.75184
2.75384
2.75773
2.76306
2.76917
2.77531
2.78069
2.78466
2.78675
2.78673
2.7846
2.78056
2.77493
2.76809
2.76043
2.75224
2.74366
2.7346
2.72478
2.71371
2.7008
2.68547
2.66731
2.64614
2.62208
2.59553
2.56711
2.53759
2.50779
2.47856
2.45068
2.4249
2.40194
2.38238
2.36659
2.35449
2.34543
2.33824
2.33145
2.32364
2.31382
2.30161
2.28725
2.27155
2.25581
2.24188
2.23221
2.23
2.23905
2.26303
2.30443
2.36327
2.43645
2.51793
2.59984
2.67403
2.73357
2.77379
2.79276
2.79118
2.77201
2.7399
2.70065
2.66101
2.62941
2.61942
2.65704
2.78808
3.07187
3.55334
4.23356
5.06601
5.97749
6.89299
7.75064
8.50636
9.13268
9.6144
9.94933
10.1246
10.2089
9.95483
2.79731
2.78447
2.77178
2.75922
2.74673
2.73424
2.72172
2.70922
2.69683
2.6846
2.67253
2.66058
2.64873
2.63696
2.62536
2.61406
2.60321
2.59297
2.58348
2.57477
2.56678
2.55937
2.55229
2.54527
2.53799
2.53018
2.52162
2.5122
2.50187
2.49069
2.47876
2.46623
2.45327
2.44003
2.42659
2.41301
2.39922
2.3851
2.37046
2.35508
2.33876
2.32134
2.30275
2.283
2.26221
2.24058
2.21836
2.19586
2.17339
2.1513
2.12994
2.10964
2.09074
2.07347
2.05792
2.04396
2.03129
2.01947
2.00802
1.99656
1.98481
1.9727
1.96032
1.94802
1.93643
1.92657
1.9199
1.91813
1.92294
1.93542
1.95556
1.98198
2.01208
2.04248
2.06973
2.09087
2.10396
2.10821
2.10404
2.09291
2.07709
2.0595
2.04372
2.03506
2.04387
2.09099
2.21098
2.44415
2.81732
3.32789
3.94389
4.61654
5.29453
5.93346
6.49975
6.97008
7.33317
7.57256
7.7296
7.65748
2.75651
2.74146
2.72654
2.71174
2.69702
2.68234
2.66768
2.65301
2.63836
2.62375
2.60918
2.59468
2.58022
2.56583
2.55152
2.53735
2.52338
2.50968
2.49628
2.4832
2.47042
2.45787
2.44544
2.43302
2.42046
2.40765
2.39449
2.38091
2.36689
2.35245
2.33764
2.32254
2.30725
2.29187
2.27646
2.2611
2.24578
2.2305
2.21516
2.19968
2.18394
2.1678
2.15118
2.13399
2.11621
2.09785
2.07897
2.05968
2.04012
2.02047
2.00093
1.98171
1.96305
1.94514
1.92817
1.91222
1.89729
1.88329
1.87001
1.85724
1.84471
1.83221
1.81956
1.8067
1.79368
1.78075
1.76837
1.75722
1.74813
1.74186
1.73895
1.73941
1.74272
1.74779
1.75326
1.7577
1.75991
1.75911
1.755
1.74784
1.73834
1.72758
1.71699
1.70854
1.70589
1.71698
1.75751
1.85128
2.0236
2.28971
2.64698
3.07542
3.54442
4.02042
4.47277
4.87621
5.21407
5.46779
5.65562
5.7075
2.73632
2.71988
2.70354
2.68729
2.67112
2.65499
2.63889
2.62281
2.60674
2.5907
2.57468
2.55871
2.54278
2.5269
2.51109
2.49538
2.4798
2.46438
2.44913
2.43406
2.41914
2.40434
2.38959
2.37484
2.35999
2.345
2.3298
2.31435
2.29866
2.28273
2.2666
2.25033
2.23398
2.21764
2.20137
2.18523
2.16926
2.15346
2.13779
2.12221
2.10662
2.09094
2.07505
2.05888
2.04235
2.02542
2.0081
1.9904
1.9724
1.95421
1.93596
1.9178
1.89989
1.88241
1.86549
1.84923
1.83368
1.81883
1.80459
1.79081
1.77731
1.76388
1.75035
1.73656
1.72242
1.70795
1.69326
1.67861
1.66434
1.65087
1.6386
1.62781
1.61857
1.61072
1.60385
1.59745
1.59097
1.58394
1.57604
1.56719
1.55751
1.54733
1.53711
1.52753
1.51976
1.51647
1.52359
1.55208
1.61719
1.73396
1.91093
2.14623
2.42804
2.73785
3.05466
3.35785
3.63091
3.8563
4.0362
4.15147
2.72705
2.70981
2.69263
2.67551
2.65845
2.64142
2.62443
2.60745
2.59049
2.57355
2.55664
2.53976
2.52292
2.50613
2.4894
2.47276
2.45622
2.43981
2.42354
2.4074
2.39138
2.37545
2.35957
2.3437
2.32778
2.31177
2.29563
2.27934
2.26289
2.24629
2.22958
2.21278
2.19598
2.17922
2.16257
2.14608
2.1298
2.11374
2.09788
2.08218
2.06659
2.05101
2.03538
2.01959
2.00358
1.98729
1.9707
1.95381
1.93665
1.91931
1.90187
1.88445
1.86718
1.85019
1.83358
1.81744
1.80181
1.78669
1.772
1.75765
1.74349
1.72935
1.71508
1.70053
1.6856
1.67025
1.6545
1.63843
1.62222
1.60606
1.5902
1.57487
1.56024
1.5464
1.53332
1.52091
1.50896
1.4973
1.48574
1.47417
1.46254
1.45089
1.43933
1.42802
1.41729
1.40791
1.40183
1.40325
1.41929
1.4592
1.53167
1.64149
1.78755
1.96305
2.15711
2.3567
2.54942
2.72164
2.8675
2.99517
2.72312
2.70545
2.68781
2.67022
2.65265
2.63512
2.6176
2.60009
2.5826
2.56513
2.54767
2.53025
2.51285
2.49551
2.47821
2.46099
2.44386
2.42684
2.40994
2.39315
2.37647
2.35989
2.34337
2.32687
2.31037
2.29382
2.2772
2.26049
2.24368
2.22677
2.2098
2.19278
2.17578
2.15885
2.14203
2.12538
2.10893
2.09271
2.07671
2.06089
2.04521
2.02961
2.01401
1.99833
1.98251
1.96649
1.95025
1.93377
1.91708
1.90022
1.88327
1.86633
1.84949
1.83286
1.81652
1.80053
1.78493
1.7697
1.75479
1.7401
1.72552
1.71091
1.69613
1.68107
1.66563
1.64976
1.63347
1.6168
1.59982
1.58268
1.56551
1.54846
1.5317
1.51533
1.49944
1.48406
1.46916
1.45471
1.44062
1.42685
1.41331
1.39998
1.38683
1.37384
1.36105
1.34865
1.3372
1.32807
1.32404
1.32946
1.34974
1.38982
1.45243
1.53703
1.63983
1.7544
1.87333
1.98781
2.09006
2.19791
2.72156
2.70368
2.68582
2.66797
2.65015
2.63234
2.61454
2.59674
2.57896
2.56119
2.54343
2.52569
2.50798
2.49031
2.47268
2.45511
2.43762
2.42021
2.40291
2.38571
2.36862
2.35161
2.33468
2.31779
2.30092
2.28404
2.26713
2.25017
2.23316
2.21609
2.19899
2.18188
2.16479
2.14777
2.13088
2.11413
2.09759
2.08124
2.06511
2.04916
2.03337
2.01767
2.00201
1.98631
1.97053
1.95461
1.93852
1.92225
1.90582
1.88925
1.8726
1.85596
1.83939
1.82299
1.80682
1.79093
1.77534
1.76003
1.74496
1.73004
1.71517
1.70024
1.68512
1.66972
1.65397
1.6378
1.62123
1.60429
1.58702
1.56953
1.55191
1.53428
1.51674
1.49941
1.48236
1.46566
1.44935
1.43343
1.41789
1.40269
1.3878
1.37317
1.35872
1.34441
1.33018
1.31605
1.30214
1.28886
1.27714
1.26869
1.26606
1.27231
1.29021
1.32137
1.36561
1.42082
1.48357
1.54908
1.611
1.68608
2.72095
2.70297
2.685
2.66704
2.64908
2.63113
2.61319
2.59525
2.57731
2.55938
2.54146
2.52356
2.50567
2.48782
2.47
2.45223
2.43452
2.41689
2.39934
2.38188
2.36451
2.34722
2.33001
2.31285
2.29573
2.27862
2.26151
2.24439
2.22724
2.21007
2.19289
2.17572
2.15859
2.14153
2.12458
2.10777
2.09114
2.0747
2.05844
2.04236
2.02644
2.01061
1.99484
1.97908
1.96326
1.94735
1.93132
1.91515
1.89885
1.88245
1.866
1.84954
1.83315
1.81689
1.80082
1.78497
1.76936
1.75397
1.73876
1.72365
1.70856
1.69339
1.67803
1.66241
1.64645
1.63012
1.61341
1.59635
1.57899
1.5614
1.54366
1.52587
1.5081
1.49044
1.47298
1.45576
1.43883
1.42221
1.40591
1.38992
1.3742
1.35872
1.34339
1.32817
1.31298
1.29779
1.28261
1.26754
1.25289
1.23922
1.22756
1.21934
1.21623
1.21978
1.23095
1.2497
1.27508
1.30504
1.33579
1.37814
2.72069
2.70267
2.68464
2.66662
2.6486
2.63058
2.61256
2.59454
2.57653
2.55851
2.54051
2.52252
2.50454
2.48659
2.46866
2.45078
2.43294
2.41517
2.39747
2.37984
2.36229
2.34481
2.32741
2.31006
2.29276
2.27549
2.25823
2.24098
2.22374
2.20649
2.18925
2.17204
2.15487
2.13777
2.12078
2.10392
2.08721
2.07067
2.0543
2.0381
2.02204
2.00608
1.99019
1.97432
1.95844
1.94249
1.92646
1.91034
1.89412
1.87782
1.86148
1.84515
1.82887
1.81269
1.79667
1.78083
1.76518
1.7497
1.73436
1.71909
1.70382
1.68846
1.67292
1.65713
1.64104
1.62461
1.60784
1.59075
1.57338
1.5558
1.53807
1.52027
1.50247
1.48475
1.46717
1.44977
1.4326
1.41568
1.39902
1.38261
1.36643
1.35043
1.33456
1.31876
1.30297
1.28713
1.27125
1.25533
1.23947
1.22387
1.20888
1.19507
1.18323
1.17426
1.169
1.168
1.17138
1.17855
1.18817
1.204
2.72055
2.7025
2.68445
2.66639
2.64833
2.63027
2.61221
2.59415
2.57609
2.55803
2.53998
2.52194
2.50391
2.4859
2.46791
2.44996
2.43205
2.41419
2.39638
2.37864
2.36097
2.34336
2.32582
2.30834
2.2909
2.27351
2.25614
2.23879
2.22146
2.20415
2.18686
2.16961
2.15241
2.13528
2.11824
2.10133
2.08455
2.06793
2.05145
2.03513
2.01894
2.00285
1.98684
1.97087
1.9549
1.9389
1.92284
1.90672
1.89054
1.8743
1.85804
1.84178
1.82557
1.80945
1.79346
1.77761
1.76191
1.74634
1.73088
1.71547
1.70004
1.68452
1.66884
1.65293
1.63674
1.62026
1.60346
1.58638
1.56905
1.55151
1.53384
1.5161
1.49835
1.48066
1.46307
1.44564
1.42839
1.41135
1.39452
1.3779
1.36147
1.34517
1.32898
1.31283
1.29667
1.28045
1.26416
1.2478
1.23141
1.21506
1.19886
1.18305
1.16792
1.15389
1.14146
1.13105
1.12304
1.11731
1.11431
1.1116
2.72045
2.70238
2.6843
2.66622
2.64814
2.63005
2.61196
2.59387
2.57578
2.55769
2.53961
2.52154
2.50348
2.48543
2.4674
2.4494
2.43144
2.41352
2.39564
2.37782
2.36006
2.34236
2.32472
2.30713
2.28959
2.27209
2.25463
2.2372
2.21981
2.20244
2.1851
2.16781
2.15058
2.13341
2.11634
2.09937
2.08253
2.06582
2.04925
2.03282
2.01651
2.00031
1.98418
1.9681
1.95204
1.93598
1.91989
1.90375
1.88758
1.87138
1.85516
1.83895
1.82279
1.8067
1.79071
1.77484
1.75909
1.74344
1.72788
1.71234
1.69678
1.68113
1.66533
1.64932
1.63307
1.61655
1.59975
1.58269
1.56541
1.54795
1.53036
1.5127
1.49502
1.47739
1.45985
1.44243
1.42517
1.40809
1.39119
1.37445
1.35787
1.34141
1.32502
1.30866
1.29227
1.27583
1.25931
1.24272
1.22607
1.2094
1.19277
1.17625
1.15997
1.14409
1.12886
1.11449
1.1013
1.08914
1.07957
1.06553
2.72036
2.70228
2.68418
2.66608
2.64798
2.62987
2.61176
2.59364
2.57553
2.55742
2.53931
2.52121
2.50312
2.48505
2.46699
2.44896
2.43095
2.41298
2.39506
2.37717
2.35934
2.34156
2.32384
2.30616
2.28854
2.27096
2.25342
2.23593
2.21846
2.20104
2.18366
2.16633
2.14906
2.13185
2.11474
2.09772
2.08082
2.06404
2.04738
2.03085
2.01444
1.99813
1.98189
1.96572
1.94957
1.93344
1.9173
1.90115
1.88497
1.86878
1.85258
1.83641
1.82027
1.80419
1.7882
1.77231
1.75651
1.74079
1.72513
1.70949
1.69382
1.67806
1.66216
1.64608
1.62978
1.61323
1.59645
1.57943
1.5622
1.54481
1.5273
1.50973
1.49214
1.47458
1.4571
1.43972
1.42248
1.40539
1.38845
1.37165
1.35498
1.33841
1.3219
1.3054
1.28888
1.2723
1.25566
1.23894
1.22217
1.20537
1.18856
1.1718
1.15514
1.13864
1.12241
1.10655
1.09127
1.07629
1.06373
1.04361
2.72027
2.70218
2.68407
2.66595
2.64783
2.6297
2.61157
2.59344
2.57531
2.55718
2.53905
2.52093
2.50281
2.48471
2.46663
2.44856
2.43052
2.41251
2.39454
2.3766
2.35871
2.34087
2.32307
2.30533
2.28763
2.26998
2.25238
2.23481
2.21729
2.19982
2.18239
2.16502
2.1477
2.13046
2.1133
2.09624
2.07928
2.06243
2.04569
2.02908
2.01257
1.99616
1.97983
1.96356
1.94734
1.93114
1.91495
1.89876
1.88257
1.86638
1.8502
1.83403
1.81791
1.80184
1.78584
1.76992
1.75407
1.73829
1.72255
1.70682
1.69105
1.6752
1.65923
1.64308
1.62674
1.61019
1.59342
1.57644
1.55927
1.54196
1.52453
1.50705
1.48954
1.47206
1.45464
1.43731
1.42009
1.403
1.38605
1.36922
1.35249
1.33585
1.31925
1.30266
1.28605
1.26939
1.25268
1.2359
1.21907
1.20221
1.18535
1.16851
1.15173
1.13504
1.1185
1.10213
1.0861
1.07001
1.05626
1.03328
2.72019
2.70208
2.68396
2.66583
2.6477
2.62955
2.61141
2.59325
2.5751
2.55695
2.5388
2.52066
2.50252
2.4844
2.46628
2.44819
2.43012
2.41207
2.39406
2.37608
2.35813
2.34024
2.32238
2.30457
2.28681
2.2691
2.25143
2.23381
2.21623
2.1987
2.18123
2.16381
2.14645
2.12917
2.11196
2.09485
2.07783
2.06092
2.04411
2.02742
2.01082
1.99432
1.97791
1.96156
1.94526
1.929
1.91276
1.89654
1.88033
1.86413
1.84794
1.83178
1.81566
1.79959
1.78357
1.76763
1.75174
1.7359
1.72009
1.70428
1.68843
1.67251
1.65647
1.64028
1.62391
1.60735
1.5906
1.57366
1.55656
1.53932
1.52197
1.50457
1.48715
1.46974
1.45238
1.4351
1.41792
1.40085
1.38388
1.36703
1.35027
1.33357
1.31691
1.30026
1.28359
1.26688
1.25012
1.23331
1.21646
1.19958
1.18271
1.16586
1.14906
1.13233
1.11571
1.0992
1.08294
1.06646
1.0523
1.02812
2.72011
2.702
2.68386
2.66572
2.64757
2.62941
2.61125
2.59308
2.57491
2.55674
2.53857
2.52041
2.50225
2.4841
2.46596
2.44784
2.42974
2.41166
2.39361
2.37558
2.3576
2.33965
2.32174
2.30388
2.28606
2.26828
2.25056
2.23288
2.21525
2.19767
2.18015
2.16268
2.14528
2.12795
2.1107
2.09353
2.07646
2.05949
2.04262
2.02585
2.00918
1.9926
1.9761
1.95967
1.94331
1.92699
1.9107
1.89444
1.8782
1.86199
1.84579
1.82963
1.8135
1.79742
1.78139
1.76542
1.74949
1.7336
1.71773
1.70186
1.68594
1.66995
1.65386
1.63764
1.62125
1.6047
1.58797
1.57107
1.55403
1.53686
1.51959
1.50227
1.48493
1.4676
1.4503
1.43307
1.41593
1.39887
1.38192
1.36505
1.34826
1.33153
1.31483
1.29813
1.28142
1.26468
1.2479
1.23107
1.21421
1.19735
1.18048
1.16364
1.14686
1.13014
1.11351
1.09698
1.08067
1.06409
1.04982
1.02519
2.72004
2.70191
2.68377
2.66562
2.64745
2.62928
2.6111
2.59292
2.57473
2.55654
2.53836
2.52017
2.50199
2.48382
2.46566
2.44751
2.42938
2.41127
2.39318
2.37512
2.3571
2.3391
2.32115
2.30323
2.28536
2.26753
2.24975
2.23202
2.21434
2.19671
2.17914
2.16163
2.14418
2.1268
2.1095
2.09229
2.07516
2.05813
2.0412
2.02436
2.00762
1.99096
1.9744
1.9579
1.94147
1.92509
1.90876
1.89246
1.87619
1.85995
1.84375
1.82757
1.81143
1.79534
1.77929
1.76329
1.74733
1.7314
1.71548
1.69954
1.68358
1.66754
1.65141
1.63515
1.61876
1.60222
1.58551
1.56866
1.55168
1.53458
1.5174
1.50016
1.48289
1.46564
1.44841
1.43123
1.41413
1.3971
1.38015
1.36329
1.34648
1.32973
1.313
1.29628
1.27954
1.26278
1.24598
1.22916
1.21231
1.19545
1.17861
1.16179
1.14503
1.12834
1.11174
1.09522
1.07893
1.06232
1.04804
1.02328