/*--------------------------------*- C++ -*----------------------------------*\
  =========                 |
  \\      /  F ield         | OpenFOAM: The Open Source CFD Toolbox
   \\    /   O peration     | Website:  https://openfoam.org
    \\  /    A nd           | Version:  10
     \\/     M anipulation  |
\*---------------------------------------------------------------------------*/
FoamFile
{
    format      ascii;
    class       volScalarField;
    location    "500";
    object      nut;
}
// * * * * * * * * * * * * * * * * * * * * * * * * * * * * * * * * * * * * * //

dimensions      [0 2 -1 0 0 0 0];

internalField   nonuniform List<scalar> 
6820
(
0.000149811
0.000146298
0.000143078
0.00013985
0.00013661
0.000133451
0.000130461
0.000127699
0.000125194
0.000122954
0.000120973
0.000119238
0.000117731
0.000116433
0.000115324
0.000114387
0.000113603
0.000112958
0.000112435
0.000112022
0.000111706
0.000111478
0.000111326
0.000111243
0.000111221
0.000111252
0.000111329
0.00011149
0.000111446
0.000112009
0.000109787
0.000119696
0.00013961
0.000736673
0.000548079
0.00046457
0.000414429
0.000380731
0.000356911
0.000339487
0.00032634
0.000316126
0.000307979
0.000301329
0.000295788
0.000291092
0.00028705
0.000283528
0.000280425
0.000277665
0.000275192
0.000272959
0.000270931
0.00026908
0.000267381
0.000265817
0.00026437
0.000263028
0.000261777
0.000260608
0.000259529
0.000258455
0.000257422
0.00025635
0.000254714
0.000257463
0.000977662
0.00087382
0.000783695
0.000713308
0.000659059
0.00061664
0.00058273
0.000555001
0.000531858
0.000512201
0.000495258
0.000480475
0.00046744
0.000455844
0.000445449
0.000436068
0.000427554
0.000419785
0.000412665
0.000406113
0.000400061
0.000394452
0.000389236
0.000384371
0.000379819
0.000375544
0.000371512
0.000367707
0.000364064
0.000360295
0.000357135
0.000354787
0.000345764
0.0010135
0.000988678
0.000949903
0.000906241
0.000863759
0.000825036
0.000790663
0.000760383
0.000733677
0.000710003
0.000688882
0.000669911
0.000652761
0.000637163
0.000622899
0.000609788
0.000597683
0.000586462
0.000576021
0.000566275
0.000557148
0.000548578
0.00054051
0.000532895
0.00052569
0.000518855
0.000512352
0.00050615
0.000500198
0.000494368
0.000488804
0.000484094
0.000477234
0.00101667
0.00101251
0.00100235
0.000986317
0.000966163
0.000943898
0.000921091
0.000898733
0.000877359
0.000857205
0.000838336
0.000820724
0.0008043
0.000788973
0.000774651
0.000761241
0.00074866
0.00073683
0.000725683
0.000715155
0.000705192
0.000695744
0.000686766
0.000678218
0.000670062
0.000662264
0.00065479
0.000647609
0.000640683
0.000633959
0.000627442
0.00062131
0.000615085
0.00101674
0.0010159
0.00101373
0.00100941
0.00100265
0.000993628
0.000982848
0.000970871
0.000958207
0.000945256
0.000932306
0.000919555
0.000907125
0.000895093
0.000883498
0.000872355
0.000861666
0.000851422
0.000841606
0.0008322
0.000823184
0.000814535
0.000806232
0.000798253
0.000790577
0.000783181
0.000776043
0.000769143
0.000762455
0.000755955
0.000749634
0.000743512
0.000737536
0.00101671
0.00101621
0.00101554
0.00101439
0.00101245
0.00100952
0.00100553
0.00100053
0.00099467
0.000988115
0.000981044
0.000973616
0.000965969
0.000958211
0.000950429
0.000942688
0.000935038
0.000927512
0.000920136
0.000912926
0.000905891
0.000899037
0.000892366
0.000885875
0.00087956
0.000873416
0.000867436
0.000861609
0.000855926
0.000850378
0.000844959
0.000839667
0.000834493
0.0010167
0.00101622
0.00101574
0.0010152
0.00101449
0.0010135
0.00101214
0.00101031
0.00100801
0.00100523
0.001002
0.000998393
0.000994452
0.000990244
0.000985825
0.00098125
0.000976564
0.000971806
0.000967011
0.000962204
0.000957408
0.000952641
0.000947917
0.000943246
0.000938636
0.000934092
0.000929616
0.000925212
0.000920877
0.000916614
0.000912422
0.000908304
0.000904257
0.0010167
0.00101621
0.00101574
0.00101528
0.00101481
0.00101429
0.00101367
0.00101292
0.001012
0.00101086
0.00100951
0.00100793
0.00100612
0.00100411
0.00100191
0.000999534
0.000997016
0.000994373
0.000991628
0.000988799
0.000985906
0.000982962
0.000979984
0.000976983
0.000973969
0.000970951
0.000967937
0.000964932
0.000961941
0.00095897
0.000956022
0.000953103
0.000950216
0.0010167
0.00101621
0.00101574
0.00101528
0.00101484
0.0010144
0.00101395
0.00101348
0.00101297
0.00101239
0.00101174
0.001011
0.00101016
0.00100922
0.00100817
0.00100701
0.00100575
0.0010044
0.00100296
0.00100144
0.000999849
0.000998196
0.000996488
0.000994734
0.000992942
0.000991117
0.000989266
0.000987395
0.00098551
0.000983615
0.000981715
0.000979817
0.000977924
0.0010167
0.00101621
0.00101574
0.00101528
0.00101484
0.00101441
0.00101398
0.00101357
0.00101315
0.00101273
0.00101229
0.00101183
0.00101134
0.00101081
0.00101025
0.00100964
0.00100898
0.00100827
0.00100751
0.00100671
0.00100585
0.00100496
0.00100402
0.00100305
0.00100204
0.001001
0.000999934
0.000998843
0.000997731
0.000996601
0.000995459
0.000994306
0.000993148
0.0010167
0.00101621
0.00101574
0.00101528
0.00101483
0.0010144
0.00101398
0.00101357
0.00101317
0.00101278
0.00101239
0.00101201
0.00101162
0.00101123
0.00101083
0.00101042
0.00100999
0.00100955
0.00100909
0.00100862
0.00100812
0.0010076
0.00100706
0.0010065
0.00100592
0.00100532
0.0010047
0.00100407
0.00100342
0.00100276
0.00100209
0.00100141
0.00100073
0.0010167
0.00101621
0.00101574
0.00101528
0.00101483
0.0010144
0.00101398
0.00101357
0.00101317
0.00101278
0.0010124
0.00101203
0.00101167
0.00101131
0.00101096
0.00101061
0.00101026
0.00100992
0.00100957
0.00100921
0.00100886
0.0010085
0.00100813
0.00100776
0.00100738
0.00100699
0.0010066
0.0010062
0.00100579
0.00100538
0.00100497
0.00100455
0.00100413
0.0010167
0.00101621
0.00101574
0.00101528
0.00101483
0.0010144
0.00101398
0.00101357
0.00101317
0.00101278
0.0010124
0.00101203
0.00101167
0.00101132
0.00101098
0.00101065
0.00101032
0.00101
0.00100968
0.00100937
0.00100906
0.00100876
0.00100845
0.00100815
0.00100785
0.00100756
0.00100726
0.00100696
0.00100667
0.00100637
0.00100608
0.00100579
0.0010055
0.0010167
0.00101621
0.00101574
0.00101528
0.00101483
0.0010144
0.00101398
0.00101356
0.00101317
0.00101278
0.0010124
0.00101203
0.00101167
0.00101132
0.00101098
0.00101065
0.00101033
0.00101001
0.0010097
0.0010094
0.00100911
0.00100882
0.00100854
0.00100826
0.00100799
0.00100772
0.00100746
0.0010072
0.00100695
0.0010067
0.00100646
0.00100622
0.00100598
0.0010167
0.00101621
0.00101574
0.00101528
0.00101483
0.0010144
0.00101397
0.00101356
0.00101316
0.00101277
0.0010124
0.00101203
0.00101167
0.00101132
0.00101098
0.00101065
0.00101033
0.00101001
0.0010097
0.00100941
0.00100911
0.00100883
0.00100855
0.00100828
0.00100802
0.00100776
0.00100751
0.00100726
0.00100702
0.00100679
0.00100657
0.00100634
0.00100613
0.0010167
0.00101621
0.00101574
0.00101528
0.00101483
0.0010144
0.00101397
0.00101356
0.00101316
0.00101277
0.00101239
0.00101203
0.00101167
0.00101132
0.00101098
0.00101065
0.00101032
0.00101001
0.0010097
0.0010094
0.00100911
0.00100883
0.00100855
0.00100828
0.00100802
0.00100777
0.00100752
0.00100728
0.00100704
0.00100681
0.00100659
0.00100637
0.00100616
0.0010167
0.00101621
0.00101574
0.00101528
0.00101483
0.00101439
0.00101397
0.00101356
0.00101316
0.00101277
0.00101239
0.00101202
0.00101166
0.00101132
0.00101097
0.00101064
0.00101032
0.00101001
0.0010097
0.0010094
0.00100911
0.00100883
0.00100855
0.00100828
0.00100802
0.00100776
0.00100752
0.00100728
0.00100704
0.00100681
0.00100659
0.00100638
0.00100617
0.0010167
0.00101621
0.00101574
0.00101528
0.00101483
0.00101439
0.00101397
0.00101356
0.00101316
0.00101277
0.00101239
0.00101202
0.00101166
0.00101131
0.00101097
0.00101064
0.00101032
0.00101
0.0010097
0.0010094
0.00100911
0.00100882
0.00100855
0.00100828
0.00100802
0.00100776
0.00100751
0.00100727
0.00100704
0.00100681
0.00100659
0.00100637
0.00100616
0.0010167
0.00101621
0.00101574
0.00101528
0.00101483
0.00101439
0.00101397
0.00101356
0.00101316
0.00101277
0.00101239
0.00101202
0.00101166
0.00101131
0.00101097
0.00101064
0.00101032
0.00101
0.00100969
0.0010094
0.00100911
0.00100882
0.00100855
0.00100828
0.00100801
0.00100776
0.00100751
0.00100727
0.00100704
0.00100681
0.00100658
0.00100637
0.00100616
0.0010167
0.00101621
0.00101574
0.00101528
0.00101483
0.00101439
0.00101397
0.00101356
0.00101316
0.00101277
0.00101239
0.00101202
0.00101166
0.00101131
0.00101097
0.00101064
0.00101031
0.00101
0.00100969
0.00100939
0.0010091
0.00100882
0.00100854
0.00100827
0.00100801
0.00100776
0.00100751
0.00100727
0.00100703
0.0010068
0.00100658
0.00100636
0.00100615
0.0010167
0.00101621
0.00101574
0.00101528
0.00101483
0.00101439
0.00101397
0.00101356
0.00101316
0.00101277
0.00101239
0.00101202
0.00101166
0.00101131
0.00101097
0.00101064
0.00101031
0.00101
0.00100969
0.00100939
0.0010091
0.00100882
0.00100854
0.00100827
0.00100801
0.00100776
0.00100751
0.00100726
0.00100703
0.0010068
0.00100658
0.00100636
0.00100615
0.0010167
0.00101621
0.00101574
0.00101528
0.00101483
0.00101439
0.00101397
0.00101356
0.00101316
0.00101277
0.00101239
0.00101202
0.00101166
0.00101131
0.00101097
0.00101064
0.00101031
0.00101
0.00100969
0.00100939
0.0010091
0.00100882
0.00100854
0.00100827
0.00100801
0.00100775
0.0010075
0.00100726
0.00100703
0.0010068
0.00100657
0.00100635
0.00100614
0.0010167
0.00101621
0.00101574
0.00101528
0.00101483
0.00101439
0.00101397
0.00101356
0.00101316
0.00101277
0.00101239
0.00101202
0.00101166
0.00101131
0.00101097
0.00101063
0.00101031
0.00101
0.00100969
0.00100939
0.0010091
0.00100881
0.00100854
0.00100827
0.00100801
0.00100775
0.0010075
0.00100726
0.00100702
0.00100679
0.00100657
0.00100635
0.00100614
0.0010167
0.00101621
0.00101574
0.00101528
0.00101483
0.00101439
0.00101397
0.00101356
0.00101316
0.00101277
0.00101239
0.00101202
0.00101166
0.00101131
0.00101097
0.00101063
0.00101031
0.00100999
0.00100969
0.00100939
0.0010091
0.00100881
0.00100854
0.00100827
0.001008
0.00100775
0.0010075
0.00100726
0.00100702
0.00100679
0.00100656
0.00100634
0.00100613
0.0010167
0.00101621
0.00101574
0.00101528
0.00101483
0.00101439
0.00101397
0.00101356
0.00101316
0.00101277
0.00101239
0.00101202
0.00101166
0.00101131
0.00101097
0.00101063
0.00101031
0.00100999
0.00100969
0.00100939
0.0010091
0.00100881
0.00100854
0.00100827
0.001008
0.00100775
0.0010075
0.00100725
0.00100702
0.00100679
0.00100656
0.00100634
0.00100613
0.0010167
0.00101621
0.00101574
0.00101528
0.00101483
0.00101439
0.00101397
0.00101356
0.00101316
0.00101277
0.00101239
0.00101202
0.00101166
0.00101131
0.00101096
0.00101063
0.00101031
0.00100999
0.00100969
0.00100939
0.0010091
0.00100881
0.00100853
0.00100826
0.001008
0.00100774
0.00100749
0.00100725
0.00100701
0.00100678
0.00100656
0.00100634
0.00100612
0.0010167
0.00101621
0.00101574
0.00101528
0.00101483
0.00101439
0.00101397
0.00101356
0.00101316
0.00101277
0.00101239
0.00101202
0.00101166
0.00101131
0.00101096
0.00101063
0.00101031
0.00100999
0.00100969
0.00100939
0.00100909
0.00100881
0.00100853
0.00100826
0.001008
0.00100774
0.00100749
0.00100725
0.00100701
0.00100678
0.00100655
0.00100633
0.00100612
0.0010167
0.00101621
0.00101574
0.00101528
0.00101483
0.00101439
0.00101397
0.00101356
0.00101316
0.00101277
0.00101239
0.00101202
0.00101166
0.00101131
0.00101096
0.00101063
0.00101031
0.00100999
0.00100969
0.00100939
0.00100909
0.00100881
0.00100853
0.00100826
0.001008
0.00100774
0.00100749
0.00100725
0.00100701
0.00100678
0.00100655
0.00100633
0.00100611
0.0010167
0.00101621
0.00101574
0.00101528
0.00101483
0.00101439
0.00101397
0.00101356
0.00101316
0.00101277
0.00101239
0.00101202
0.00101166
0.00101131
0.00101096
0.00101063
0.00101031
0.00100999
0.00100969
0.00100939
0.00100909
0.00100881
0.00100853
0.00100826
0.001008
0.00100774
0.00100749
0.00100725
0.00100701
0.00100677
0.00100655
0.00100633
0.00100611
0.0010167
0.00101621
0.00101574
0.00101528
0.00101483
0.00101439
0.00101397
0.00101356
0.00101316
0.00101277
0.00101239
0.00101202
0.00101166
0.00101131
0.00101096
0.00101063
0.00101031
0.00100999
0.00100969
0.00100939
0.00100909
0.00100881
0.00100853
0.00100826
0.001008
0.00100774
0.00100749
0.00100724
0.001007
0.00100677
0.00100654
0.00100632
0.0010061
0.0010167
0.00101621
0.00101574
0.00101528
0.00101483
0.00101439
0.00101397
0.00101356
0.00101316
0.00101277
0.00101239
0.00101202
0.00101166
0.00101131
0.00101097
0.00101063
0.00101031
0.00100999
0.00100968
0.00100938
0.00100909
0.0010088
0.00100852
0.00100825
0.00100798
0.00100772
0.00100747
0.00100722
0.00100697
0.00100673
0.0010065
0.00100627
0.00100604
0.0010167
0.00101621
0.00101574
0.00101528
0.00101483
0.00101439
0.00101397
0.00101356
0.00101316
0.00101277
0.00101239
0.00101202
0.00101166
0.0010113
0.00101096
0.00101062
0.00101029
0.00100997
0.00100966
0.00100935
0.00100904
0.00100875
0.00100845
0.00100816
0.00100788
0.0010076
0.00100732
0.00100705
0.00100678
0.00100651
0.00100625
0.00100599
0.00100573
0.0010167
0.00101621
0.00101574
0.00101528
0.00101483
0.00101439
0.00101397
0.00101356
0.00101315
0.00101276
0.00101237
0.00101199
0.00101162
0.00101125
0.00101088
0.00101051
0.00101015
0.00100978
0.00100942
0.00100906
0.00100869
0.00100832
0.00100795
0.00100758
0.00100721
0.00100683
0.00100646
0.00100607
0.00100569
0.00100531
0.00100492
0.00100453
0.00100414
0.0010167
0.00101621
0.00101574
0.00101527
0.00101482
0.00101438
0.00101394
0.0010135
0.00101305
0.00101259
0.00101213
0.00101164
0.00101115
0.00101063
0.00101008
0.00100952
0.00100893
0.00100832
0.00100769
0.00100703
0.00100635
0.00100565
0.00100493
0.00100419
0.00100343
0.00100265
0.00100186
0.00100105
0.00100023
0.000999396
0.000998554
0.000997703
0.000996845
0.0010167
0.00101621
0.00101571
0.00101519
0.00101464
0.00101403
0.00101334
0.00101256
0.00101168
0.00101069
0.00100959
0.00100838
0.00100706
0.00100564
0.00100412
0.0010025
0.00100081
0.000999032
0.000997188
0.000995281
0.000993321
0.000991312
0.000989264
0.000987181
0.000985071
0.00098294
0.000980792
0.000978633
0.000976467
0.000974299
0.000972133
0.000969973
0.000967821
0.00101669
0.00101596
0.00101486
0.00101328
0.00101119
0.00100856
0.00100543
0.00100183
0.000997802
0.000993395
0.000988663
0.000983656
0.000978423
0.000973011
0.000967461
0.000961812
0.000956096
0.000950344
0.000944581
0.000938828
0.000933106
0.000927429
0.000921811
0.000916265
0.000910797
0.000905418
0.000900132
0.000894944
0.000889859
0.000884879
0.000880005
0.00087524
0.000870584
0.00101524
0.00100708
0.000994955
0.000980624
0.000964787
0.000947896
0.000930333
0.000912443
0.000894521
0.000876795
0.000859428
0.000842535
0.000826189
0.000810437
0.000795299
0.000780783
0.000766883
0.000753587
0.000740877
0.00072873
0.000717125
0.000706037
0.000695441
0.000685313
0.00067563
0.000666368
0.000657507
0.000649026
0.000640904
0.000633123
0.000625665
0.000618514
0.000611652
0.000934354
0.000813416
0.000726852
0.000658855
0.000603184
0.000556833
0.000517907
0.000484928
0.000456707
0.000432323
0.000411067
0.000392392
0.000375866
0.00036115
0.000347972
0.000336113
0.000325391
0.00031566
0.000306796
0.000298694
0.000291269
0.000284443
0.000278155
0.000272347
0.000266971
0.000261986
0.000257354
0.000253044
0.000249025
0.000245274
0.000241766
0.000238481
0.000235401
0.000125479
0.000128845
0.000132086
0.000135185
0.000138141
0.00014096
0.000143649
0.000146213
0.000148656
0.000150983
0.000153199
0.000155306
0.000157311
0.000159216
0.000161026
0.000162746
0.000164378
0.000165928
0.000167398
0.000168792
0.000170114
0.000171368
0.000172557
0.000173683
0.00017475
0.000175761
0.000176719
0.000177626
0.000178486
0.0001793
0.00018007
0.0001808
0.000181492
3.8673e-05
9.47109e-05
0.000275769
0.000432836
0.000516543
0.000549868
0.000558738
0.000558121
0.000556065
0.000556228
0.000559596
0.000566087
0.000575507
0.00058783
0.000603108
0.00062128
0.000642044
0.000664835
0.000688897
0.000713415
0.00073764
0.000760988
0.000783091
0.000803819
0.000823281
0.000841815
0.000859961
0.000878411
0.000897919
0.00091917
0.000942638
0.000968449
0.000996304
0.0010255
0.00105504
0.0010839
0.00111121
0.00113645
0.00115961
0.00118109
0.00120168
0.0012224
0.0012444
0.00126891
0.00129706
0.00132978
0.00136746
0.00140958
0.00145447
0.00149936
0.0015408
0.00157538
0.00160045
0.00161461
0.0016179
0.0016118
0.001599
0.00158318
0.00156875
0.00156057
0.00156345
0.00158127
0.00161585
0.00166596
0.00172706
0.00179236
0.00185459
0.0019077
0.00194774
0.001973
0.00198347
0.00198032
0.00196535
0.00194069
0.00190855
0.00187121
0.00183098
0.00179035
0.00175225
0.00172072
0.00170234
0.00170832
0.00175481
0.00185668
0.00201415
0.00220478
0.00239358
0.00255212
0.00266788
0.00274127
0.00277884
0.00278838
0.00277673
0.00274912
0.00270935
0.00266004
0.0026028
0.00253846
0.00247221
0.00235595
0.000306362
0.000224626
0.000147396
0.000227579
0.00032821
0.000398743
0.000435041
0.000449114
0.000452609
0.000452938
0.000453847
0.000456939
0.000462959
0.0004724
0.000485576
0.000502482
0.000522698
0.000545412
0.00056956
0.000594019
0.000617807
0.000640205
0.000660813
0.000679546
0.000696598
0.000712391
0.000727528
0.000742731
0.000758753
0.000776275
0.000795773
0.000817399
0.000840902
0.000865638
0.000890678
0.000915013
0.000937777
0.00095845
0.000976962
0.000993697
0.00100941
0.00102511
0.00104195
0.00106113
0.00108383
0.00111107
0.00114346
0.00118085
0.00122197
0.00126442
0.00130495
0.0013401
0.001367
0.00138388
0.00139037
0.00138752
0.00137762
0.00136396
0.00135058
0.00134205
0.00134309
0.00135784
0.00138879
0.00143564
0.00149475
0.00155981
0.00162358
0.00167969
0.00172378
0.00175368
0.00176908
0.00177096
0.00176101
0.0017413
0.00171404
0.00168151
0.00164603
0.00161004
0.00157639
0.00154886
0.00153365
0.00154149
0.00158858
0.00169081
0.00184982
0.00204357
0.00223633
0.00239881
0.00251816
0.0025948
0.00263537
0.0026477
0.00263862
0.00261334
0.00257565
0.00252819
0.00247255
0.00240955
0.002345
0.0022294
0.000358711
0.000417983
0.000383524
0.000242423
0.000222239
0.000248044
0.000277734
0.000298814
0.000310351
0.000315306
0.000317165
0.000318795
0.000322288
0.000329078
0.000340002
0.000355266
0.000374438
0.000396558
0.00042037
0.000444584
0.000468094
0.000490103
0.000510164
0.000528165
0.000544281
0.000558919
0.000572658
0.000586181
0.0006002
0.000615363
0.000632143
0.000650731
0.000670958
0.000692288
0.000713893
0.000734831
0.000754248
0.000771587
0.000786701
0.000799891
0.000811838
0.000823494
0.000835964
0.000850409
0.000867983
0.000889744
0.000916475
0.000948388
0.000984776
0.00102382
0.00106272
0.00109821
0.00112729
0.00114783
0.00115896
0.0011612
0.00115625
0.00114683
0.00113642
0.00112907
0.00112908
0.0011406
0.0011667
0.00120823
0.00126291
0.00132552
0.00138927
0.00144767
0.00149584
0.00153104
0.00155246
0.00156069
0.00155716
0.00154381
0.00152277
0.00149626
0.00146654
0.00143598
0.00140722
0.00138368
0.00137073
0.00137794
0.0014208
0.00151641
0.00166972
0.00186165
0.00205691
0.00222471
0.0023505
0.00243364
0.00248026
0.00249804
0.00249377
0.00247274
0.00243877
0.00239458
0.00234188
0.00228146
0.00221977
0.00210707
0.000467484
0.000477832
0.000509458
0.000496617
0.000410548
0.000337934
0.000302051
0.000286482
0.000278796
0.000273219
0.000267731
0.000262209
0.000257332
0.000254008
0.000253142
0.000255526
0.000261711
0.000271835
0.000285505
0.000301832
0.000319635
0.000337729
0.000355169
0.00037139
0.000386217
0.000399811
0.000412566
0.000425016
0.000437744
0.000451292
0.000466077
0.000482303
0.000499891
0.000518451
0.000537321
0.000555697
0.0005728
0.000588066
0.000601275
0.000612608
0.00062261
0.000632097
0.000642043
0.00065347
0.00066739
0.000684746
0.00070633
0.000732595
0.000763369
0.000797586
0.00083322
0.000867565
0.000897811
0.000921672
0.000937865
0.000946301
0.000948041
0.000945101
0.00094021
0.000936599
0.00093782
0.000947491
0.000968772
0.00100343
0.00105081
0.00110741
0.00116764
0.00122542
0.00127564
0.00131499
0.00134201
0.00135671
0.00136014
0.00135393
0.00134001
0.00132045
0.0012974
0.00127307
0.00124988
0.00123073
0.00121997
0.00122543
0.00126086
0.00134395
0.00148402
0.00166753
0.00186157
0.00203395
0.00216739
0.00225912
0.00231411
0.00233953
0.00234207
0.00232703
0.00229835
0.00225886
0.00221041
0.0021538
0.00209607
0.00198839
0.000605771
0.000598486
0.000601177
0.000607091
0.000595514
0.000558537
0.000511135
0.000468391
0.000435055
0.000409577
0.00038928
0.000372145
0.000356942
0.000342991
0.000329934
0.000317664
0.000306364
0.000296524
0.000288804
0.00028377
0.000281656
0.000282297
0.000285237
0.000289914
0.000295826
0.000302626
0.000310143
0.000318364
0.000327388
0.000337368
0.000348457
0.000360736
0.00037416
0.000388508
0.00040338
0.000418243
0.000432541
0.000445818
0.000457839
0.000468652
0.000478584
0.000488178
0.000498105
0.000509069
0.00052174
0.000536728
0.000554562
0.000575641
0.000600094
0.000627567
0.000657042
0.000686846
0.000714934
0.00073936
0.000758738
0.000772542
0.000781176
0.000785854
0.00078839
0.000790986
0.000796071
0.000806197
0.000823864
0.000851034
0.000888326
0.000934277
0.000985348
0.00103682
0.00108408
0.00112359
0.00115332
0.00117262
0.00118191
0.00118234
0.00117549
0.00116315
0.00114722
0.00112968
0.00111262
0.00109843
0.00109037
0.00109419
0.00112089
0.00118725
0.00130667
0.00147335
0.00165955
0.00183287
0.00197291
0.00207374
0.00213836
0.00217297
0.00218388
0.00217634
0.00215436
0.00212088
0.00207793
0.00202635
0.00197359
0.00187285
0.000730178
0.000721843
0.000715543
0.000711894
0.000707485
0.000697391
0.000679882
0.000657202
0.000632961
0.000609749
0.000588569
0.000569373
0.000551667
0.000534837
0.000518261
0.000501373
0.000483775
0.000465385
0.000446542
0.000427961
0.000410537
0.000395083
0.00038215
0.000371968
0.000364506
0.00035956
0.000356853
0.000356096
0.00035702
0.000359398
0.000363046
0.000367822
0.000373612
0.000380312
0.000387805
0.00039595
0.000404583
0.000413546
0.000422732
0.00043212
0.000441796
0.000451935
0.000462759
0.000474491
0.000487312
0.000501351
0.000516696
0.000533415
0.000551551
0.000571057
0.000591683
0.000612879
0.000633806
0.000653484
0.000671037
0.000685942
0.000698169
0.000708185
0.000716844
0.000725236
0.000734569
0.00074613
0.000761291
0.000781406
0.000807432
0.00083934
0.00087573
0.000914006
0.000951039
0.000983942
0.0010106
0.00102987
0.00104155
0.00104615
0.00104468
0.00103848
0.00102905
0.001018
0.00100701
0.000997921
0.000992993
0.000995942
0.00101441
0.0010623
0.00115516
0.0012956
0.00146434
0.00163144
0.00177393
0.00188209
0.00195604
0.00200033
0.0020205
0.00202152
0.00200734
0.00198098
0.00194464
0.00189916
0.00185224
0.00176008
0.000828487
0.000821594
0.000814919
0.000808888
0.000803304
0.000797165
0.000789377
0.00077952
0.000767988
0.000755576
0.000742989
0.000730592
0.000718431
0.000706336
0.000694012
0.0006811
0.000667254
0.00065224
0.000636043
0.000618923
0.000601397
0.000584139
0.00056784
0.000553076
0.000540238
0.000529512
0.000520901
0.000514277
0.000509421
0.000506078
0.00050399
0.000502929
0.00050272
0.000503256
0.00050451
0.000506522
0.000509386
0.000513212
0.000518101
0.000524124
0.000531309
0.000539643
0.000549072
0.000559498
0.000570786
0.000582767
0.000595262
0.000608102
0.000621158
0.00063433
0.00064753
0.000660643
0.000673516
0.000685969
0.000697839
0.000709028
0.000719549
0.000729544
0.000739263
0.00074902
0.000759156
0.000770051
0.000782175
0.000796126
0.000812517
0.000831658
0.000853217
0.000876137
0.000898884
0.000919837
0.000937609
0.000951241
0.000960286
0.000964798
0.000965251
0.000962431
0.00095733
0.000951063
0.000944824
0.000939877
0.000937644
0.000940208
0.000952025
0.00098277
0.00104687
0.00115341
0.0012937
0.00144412
0.00158131
0.001692
0.00177272
0.00182558
0.00185478
0.00186462
0.0018588
0.00184029
0.00181134
0.00177283
0.00173245
0.00165015
0.000899601
0.000894279
0.000888921
0.000883624
0.000878455
0.000873319
0.000867964
0.000862147
0.000855787
0.000848982
0.000841916
0.000834736
0.000827495
0.000820146
0.000812566
0.000804579
0.000795989
0.000786633
0.000776425
0.000765409
0.00075377
0.000741821
0.000729948
0.000718549
0.000707969
0.00069846
0.000690161
0.000683105
0.000677239
0.000672453
0.000668609
0.000665569
0.000663222
0.000661494
0.000660369
0.000659885
0.000660132
0.000661232
0.000663305
0.000666443
0.000670689
0.000676022
0.00068236
0.000689575
0.000697502
0.000705957
0.000714756
0.000723731
0.000732751
0.000741725
0.00075059
0.000759291
0.00076777
0.000775978
0.000783899
0.000791573
0.000799087
0.000806549
0.000814066
0.000821716
0.000829548
0.000837609
0.000845996
0.000854922
0.000864703
0.000875607
0.000887601
0.000900184
0.000912484
0.00092355
0.000932622
0.000939239
0.000943237
0.000944703
0.000943941
0.000941422
0.000937749
0.000933605
0.000929726
0.000926878
0.000925864
0.000927695
0.00093452
0.000951894
0.000990489
0.0010615
0.00116555
0.00128835
0.0014099
0.00151519
0.00159732
0.00165548
0.00169184
0.00170958
0.0017118
0.00170118
0.00167991
0.00164885
0.00161541
0.00154384
0.00094688
0.00094305
0.000939151
0.000935199
0.000931221
0.000927232
0.000923202
0.000919078
0.000914814
0.000910409
0.000905896
0.000901318
0.000896697
0.000892024
0.000887254
0.000882315
0.000877119
0.00087158
0.000865635
0.000859269
0.000852526
0.000845516
0.000838397
0.000831356
0.000824578
0.000818221
0.0008124
0.000807178
0.000802572
0.000798563
0.000795112
0.000792175
0.000789715
0.000787715
0.000786182
0.000785147
0.000784667
0.000784807
0.000785635
0.000787199
0.000789516
0.000792568
0.0007963
0.000800624
0.000805436
0.00081062
0.000816067
0.000821678
0.000827383
0.000833142
0.000838942
0.000844786
0.000850669
0.000856568
0.000862447
0.000868275
0.00087404
0.00087975
0.000885421
0.000891061
0.000896661
0.000902211
0.000907724
0.000913292
0.000919108
0.000925419
0.000932377
0.000939856
0.000947371
0.0009542
0.000959637
0.000963218
0.000964797
0.000964512
0.000962688
0.000959759
0.000956206
0.000952523
0.000949197
0.000946703
0.000945493
0.000946033
0.000949201
0.000957678
0.000977946
0.00101948
0.00108785
0.00117757
0.00127479
0.00136578
0.00144194
0.00149989
0.00153963
0.00156278
0.00157147
0.00156784
0.00155379
0.00153005
0.0015035
0.00144295
0.000975719
0.000973163
0.000970536
0.000967839
0.000965078
0.000962261
0.000959394
0.000956471
0.000953487
0.000950441
0.000947342
0.000944204
0.000941038
0.000937848
0.000934626
0.000931353
0.000928002
0.000924541
0.000920943
0.000917193
0.000913297
0.000909284
0.000905208
0.000901137
0.000897146
0.000893308
0.000889681
0.000886307
0.00088321
0.000880398
0.000877873
0.000875633
0.000873682
0.000872031
0.000870704
0.000869731
0.000869151
0.000868998
0.000869303
0.000870082
0.000871329
0.000873022
0.000875117
0.000877557
0.00088028
0.000883222
0.000886327
0.00088955
0.000892863
0.000896259
0.000899756
0.000903383
0.000907176
0.000911155
0.000915314
0.000919625
0.000924039
0.000928501
0.000932954
0.000937341
0.000941609
0.00094571
0.000949621
0.000953366
0.000957051
0.00096086
0.000965003
0.000969598
0.000974559
0.000979543
0.000984038
0.000987526
0.000989648
0.000990282
0.000989542
0.00098771
0.000985159
0.000982295
0.000979513
0.000977178
0.000975614
0.000975093
0.000975972
0.000979386
0.000988718
0.0010104
0.00105094
0.00111078
0.0011821
0.001254
0.00131811
0.00136999
0.00140814
0.00143285
0.00144517
0.00144648
0.00143823
0.00142089
0.00140058
0.00135058
0.000991787
0.000990193
0.000988537
0.000986819
0.000985037
0.000983193
0.00098129
0.000979329
0.000977315
0.00097525
0.000973141
0.000970993
0.000968815
0.000966612
0.000964388
0.000962144
0.000959879
0.000957588
0.000955266
0.000952911
0.000950524
0.000948112
0.000945692
0.000943283
0.000940911
0.000938602
0.000936378
0.00093426
0.00093226
0.00093039
0.000928661
0.000927082
0.000925671
0.000924447
0.000923436
0.000922665
0.000922161
0.000921946
0.000922032
0.00092242
0.000923098
0.000924038
0.000925205
0.000926559
0.000928057
0.000929663
0.000931348
0.000933093
0.000934893
0.000936758
0.000938712
0.000940792
0.000943042
0.000945501
0.000948193
0.000951118
0.000954248
0.000957536
0.000960913
0.000964304
0.00096763
0.000970817
0.000973808
0.000976579
0.000979158
0.000981638
0.000984169
0.000986914
0.000989977
0.000993325
0.000996768
0.001
0.00100269
0.00100457
0.00100551
0.00100555
0.00100484
0.0010036
0.00100211
0.00100064
0.000999463
0.00099878
0.000998784
0.000999929
0.00100377
0.00101399
0.00103591
0.00107297
0.00112267
0.00117729
0.00122881
0.00127221
0.00130544
0.00132818
0.00134091
0.00134447
0.00133983
0.0013272
0.00131184
0.00127107
0.000999919
0.000998963
0.000997963
0.000996916
0.000995819
0.000994671
0.000993472
0.000992222
0.000990924
0.000989581
0.000988197
0.000986776
0.000985322
0.00098384
0.000982336
0.000980815
0.000979282
0.000977742
0.000976199
0.000974654
0.000973112
0.000971575
0.000970048
0.000968537
0.000967049
0.000965592
0.000964173
0.000962799
0.000961478
0.000960217
0.000959027
0.000957921
0.000956915
0.000956028
0.000955283
0.000954702
0.000954304
0.000954102
0.000954101
0.000954298
0.000954675
0.00095521
0.000955873
0.000956632
0.000957457
0.000958322
0.000959212
0.000960119
0.000961048
0.000962014
0.000963041
0.000964166
0.000965428
0.000966867
0.000968513
0.000970385
0.000972477
0.000974764
0.000977196
0.000979709
0.000982231
0.000984685
0.000987003
0.000989135
0.000991062
0.000992809
0.000994447
0.000996087
0.000997847
0.000999809
0.00100198
0.00100428
0.00100654
0.00100858
0.00101024
0.00101141
0.00101208
0.0010123
0.00101219
0.0010119
0.00101159
0.00101142
0.00101152
0.00101206
0.00101367
0.00101815
0.00102888
0.00104969
0.00108192
0.00112223
0.00116407
0.00120135
0.00123069
0.00125114
0.001263
0.00126703
0.00126413
0.00125442
0.0012425
0.00120902
0.00100364
0.00100305
0.00100244
0.0010018
0.00100113
0.00100042
0.000999672
0.00099889
0.000998071
0.000997218
0.000996331
0.000995413
0.000994467
0.000993496
0.000992505
0.000991497
0.000990479
0.000989455
0.00098843
0.000987407
0.000986389
0.000985377
0.000984374
0.000983381
0.000982399
0.00098143
0.000980476
0.000979541
0.000978629
0.000977746
0.000976901
0.000976105
0.000975373
0.000974721
0.000974168
0.000973731
0.000973423
0.000973253
0.000973222
0.000973325
0.000973547
0.000973867
0.000974261
0.000974704
0.000975172
0.000975646
0.000976116
0.000976578
0.00097704
0.000977517
0.000978033
0.000978618
0.000979308
0.000980136
0.000981131
0.000982314
0.00098369
0.000985247
0.000986955