/*--------------------------------*- C++ -*----------------------------------*\
  =========                 |
  \\      /  F ield         | OpenFOAM: The Open Source CFD Toolbox
   \\    /   O peration     | Website:  https://openfoam.org
    \\  /    A nd           | Version:  10
     \\/     M anipulation  |
\*---------------------------------------------------------------------------*/
FoamFile
{
    format      ascii;
    class       volScalarField;
    location    "500";
    object      p;
}
// * * * * * * * * * * * * * * * * * * * * * * * * * * * * * * * * * * * * * //

dimensions      [0 2 -2 0 0 0 0];

internalField   nonuniform List<scalar> 
6820
(
-7.83896
-8.61041
-9.05774
-9.20463
-9.28299
-9.34781
-9.39301
-9.42284
-9.4457
-9.46529
-9.48245
-9.49768
-9.51154
-9.52438
-9.53636
-9.54754
-9.55796
-9.5676
-9.57641
-9.58432
-9.59118
-9.59681
-9.60093
-9.60317
-9.60297
-9.59952
-9.59158
-9.57717
-9.55331
-9.51757
-9.44064
-9.3927
-9.15197
-9.3934
-9.53853
-9.51438
-9.44545
-9.41758
-9.42262
-9.43519
-9.44767
-9.46091
-9.47492
-9.48872
-9.50184
-9.51427
-9.52607
-9.53724
-9.54775
-9.55758
-9.56671
-9.57509
-9.58262
-9.58917
-9.59457
-9.59858
-9.60086
-9.60095
-9.59821
-9.59161
-9.58025
-9.56035
-9.53347
-9.4873
-9.40549
-9.29058
-9.39708
-9.26166
-9.26191
-9.29601
-9.3315
-9.36856
-9.40041
-9.42516
-9.44573
-9.46406
-9.48054
-9.49541
-9.50903
-9.52168
-9.5335
-9.54454
-9.55484
-9.56441
-9.5732
-9.58114
-9.58812
-9.59399
-9.59853
-9.60145
-9.60236
-9.60073
-9.59579
-9.58681
-9.57166
-9.55079
-9.51853
-9.48373
-9.46262
-9.3275
-9.24991
-9.29422
-9.3413
-9.36693
-9.39117
-9.41485
-9.43478
-9.45214
-9.46826
-9.48332
-9.4973
-9.51036
-9.52264
-9.53423
-9.54513
-9.55536
-9.5649
-9.57372
-9.58174
-9.58887
-9.59498
-9.5999
-9.6034
-9.60518
-9.60491
-9.60211
-9.59647
-9.58715
-9.57541
-9.56144
-9.55622
-9.57875
-9.32104
-9.29155
-9.32119
-9.35259
-9.37165
-9.39265
-9.41504
-9.43475
-9.45208
-9.46816
-9.4832
-9.49719
-9.51026
-9.52257
-9.53418
-9.54512
-9.55542
-9.56507
-9.57403
-9.58226
-9.58967
-9.59619
-9.60167
-9.60597
-9.60891
-9.61031
-9.61001
-9.60808
-9.60465
-9.60159
-9.60154
-9.61378
-9.65212
-9.32903
-9.31494
-9.33099
-9.35631
-9.37615
-9.39653
-9.41764
-9.43665
-9.45357
-9.46929
-9.48406
-9.49787
-9.51084
-9.52308
-9.53467
-9.54563
-9.55599
-9.56575
-9.57487
-9.58334
-9.59109
-9.59807
-9.60419
-9.60939
-9.6136
-9.61681
-9.6191
-9.62085
-9.62279
-9.62701
-9.63673
-9.6586
-9.70129
-9.3369
-9.32937
-9.3407
-9.36293
-9.38238
-9.40119
-9.42056
-9.43864
-9.45507
-9.47041
-9.4849
-9.49855
-9.51142
-9.52361
-9.5352
-9.54621
-9.55666
-9.56655
-9.57588
-9.58462
-9.59276
-9.60027
-9.60711
-9.61329
-9.61885
-9.62389
-9.62871
-9.63386
-9.64038
-9.65022
-9.66628
-9.69299
-9.73539
-9.34497
-9.34185
-9.35131
-9.37023
-9.38825
-9.40563
-9.42355
-9.44077
-9.45669
-9.47165
-9.48585
-9.49932
-9.51208
-9.52423
-9.53581
-9.54687
-9.55742
-9.56747
-9.57702
-9.58608
-9.59464
-9.60271
-9.61032
-9.61751
-9.62441
-9.63123
-9.63836
-9.64648
-9.65664
-9.67052
-9.69042
-9.71914
-9.75942
-9.35346
-9.35302
-9.36129
-9.37729
-9.39385
-9.41007
-9.42677
-9.4431
-9.45847
-9.47302
-9.48692
-9.50018
-9.51282
-9.52491
-9.53649
-9.5476
-9.55825
-9.56847
-9.57826
-9.58765
-9.59666
-9.60532
-9.61369
-9.62187
-9.63005
-9.6385
-9.64766
-9.65821
-9.67111
-9.68773
-9.7097
-9.73876
-9.7762
-9.36204
-9.36302
-9.37048
-9.38423
-9.39939
-9.41456
-9.43014
-9.44559
-9.46039
-9.47452
-9.4881
-9.50114
-9.51365
-9.52568
-9.53725
-9.5484
-9.55916
-9.56955
-9.57959
-9.58931
-9.59876
-9.608
-9.61711
-9.62624
-9.63559
-9.64546
-9.65631
-9.66875
-9.68361
-9.70191
-9.72477
-9.75318
-9.78763
-9.37043
-9.37212
-9.379
-9.39103
-9.40484
-9.419
-9.43358
-9.4482
-9.46242
-9.47613
-9.48939
-9.5022
-9.51457
-9.52651
-9.53807
-9.54927
-9.56013
-9.57069
-9.58097
-9.59103
-9.60091
-9.6107
-9.6205
-9.63048
-9.64085
-9.65193
-9.66412
-9.67796
-9.69411
-9.7133
-9.73626
-9.76351
-9.79511
-9.37852
-9.38052
-9.38692
-9.39759
-9.41017
-9.42337
-9.43705
-9.4509
-9.46454
-9.47782
-9.49076
-9.50334
-9.51555
-9.52741
-9.53895
-9.55018
-9.56115
-9.57187
-9.58238
-9.59275
-9.60304
-9.61334
-9.62376
-9.63448
-9.64572
-9.65776
-9.67097
-9.68578
-9.70269
-9.72221
-9.74477
-9.77061
-9.7996
-9.38623
-9.38831
-9.39427
-9.40385
-9.41535
-9.42766
-9.44051
-9.45364
-9.46672
-9.47958
-9.49219
-9.50454
-9.51659
-9.52836
-9.53987
-9.55113
-9.56218
-9.57306
-9.58379
-9.59445
-9.6051
-9.61585
-9.62682
-9.63817
-9.6501
-9.66288
-9.6768
-9.69221
-9.70947
-9.72891
-9.75078
-9.77514
-9.80178
-9.3935
-9.39556
-9.40111
-9.4098
-9.42034
-9.43182
-9.44392
-9.45638
-9.46893
-9.48138
-9.49367
-9.50577
-9.51766
-9.52934
-9.54081
-9.55209
-9.56322
-9.57422
-9.58516
-9.59607
-9.60705
-9.61818
-9.6296
-9.64145
-9.65391
-9.66721
-9.68159
-9.69731
-9.71461
-9.7337
-9.75471
-9.77759
-9.80211
-9.40031
-9.40228
-9.40745
-9.4154
-9.4251
-9.43583
-9.44724
-9.45909
-9.47113
-9.48318
-9.49515
-9.50702
-9.51874
-9.53032
-9.54174
-9.55303
-9.56422
-9.57534
-9.58644
-9.59757
-9.60882
-9.62027
-9.63204
-9.64427
-9.65711
-9.67074
-9.68536
-9.70114
-9.71826
-9.73683
-9.75688
-9.77833
-9.80096
-9.40664
-9.40851
-9.41332
-9.42065
-9.42962
-9.43966
-9.45045
-9.46173
-9.47329
-9.48495
-9.49663
-9.50826
-9.51981
-9.53128
-9.54265
-9.55393
-9.56517
-9.57638
-9.58761
-9.59892
-9.61038
-9.62207
-9.6341
-9.64659
-9.65966
-9.67347
-9.68814
-9.70381
-9.72057
-9.7385
-9.75756
-9.77766
-9.79858
-9.41249
-9.41425
-9.41873
-9.42551
-9.43386
-9.44328
-9.4535
-9.46427
-9.47538
-9.48667
-9.49805
-9.50946
-9.52084
-9.53219
-9.54349
-9.55477
-9.56602
-9.57729
-9.58862
-9.60006
-9.61167
-9.62354
-9.63574
-9.64838
-9.66156
-9.67539
-9.68997
-9.70539
-9.72169
-9.7389
-9.75697
-9.77579
-9.79518
-9.41784
-9.41949
-9.42367
-9.42999
-9.43779
-9.44666
-9.45636
-9.46666
-9.47736
-9.48831
-9.49941
-9.51058
-9.5218
-9.53303
-9.54426
-9.5555
-9.56676
-9.57806
-9.58945
-9.60098
-9.61268
-9.62465
-9.63693
-9.64962
-9.6628
-9.67655
-9.69092
-9.70598
-9.72174
-9.7382
-9.75529
-9.77292
-9.79092
-9.4227
-9.42424
-9.42816
-9.43407
-9.44138
-9.44977
-9.45901
-9.46888
-9.4792
-9.48982
-9.50065
-9.51161
-9.52266
-9.53377
-9.54492
-9.5561
-9.56734
-9.57865
-9.59007
-9.60163
-9.61338
-9.62537
-9.63766
-9.65032
-9.6634
-9.67696
-9.69104
-9.70567
-9.72084
-9.73653
-9.75268
-9.76919
-9.78593
-9.42704
-9.42849
-9.43217
-9.43772
-9.44462
-9.45258
-9.4614
-9.47088
-9.48085
-9.49118
-9.50176
-9.51251
-9.5234
-9.53438
-9.54543
-9.55655
-9.56775
-9.57904
-9.59044
-9.602
-9.61373
-9.62569
-9.63792
-9.65047
-9.66338
-9.67668
-9.6904
-9.70454
-9.71909
-9.73401
-9.74925
-9.76472
-9.78029
-9.43085
-9.43223
-9.43569
-9.44094
-9.44748
-9.45506
-9.4635
-9.47264
-9.4823
-9.49235
-9.50269
-9.51325
-9.52398
-9.53483
-9.54578
-9.55682
-9.56796
-9.5792
-9.59056
-9.60206
-9.61373
-9.62561
-9.63772
-9.6501
-9.66277
-9.67575
-9.68906
-9.70268
-9.71659
-9.73075
-9.74512
-9.75961
-9.77412
-9.43413
-9.43544
-9.43872
-9.44369
-9.44992
-9.45717
-9.46529
-9.47412
-9.48349
-9.49329
-9.50342
-9.5138
-9.52437
-9.53509
-9.54593
-9.55688
-9.56794
-9.5791
-9.59038
-9.6018
-9.61337
-9.62511
-9.63705
-9.64921
-9.66159
-9.67422
-9.68707
-9.70015
-9.71342
-9.72685
-9.74038
-9.75395
-9.76747
-9.43686
-9.43811
-9.44122
-9.44596
-9.45192
-9.45888
-9.46672
-9.47527
-9.4844
-9.49398
-9.50391
-9.51412
-9.52454
-9.53513
-9.54586
-9.55671
-9.56767
-9.57874
-9.58992
-9.60121
-9.61264
-9.62421
-9.63594
-9.64783
-9.65989
-9.67212
-9.68451
-9.69703
-9.70967
-9.72238
-9.73511
-9.74782
-9.76042
-9.43902
-9.44021
-9.44319
-9.44772
-9.45344
-9.46016
-9.46775
-9.47607
-9.48499
-9.49437
-9.50413
-9.51418
-9.52446
-9.53493
-9.54554
-9.55628
-9.56714
-9.57809
-9.58914
-9.60029
-9.61155
-9.62292
-9.6344
-9.64599
-9.6577
-9.66952
-9.68142
-9.69339
-9.7054
-9.71742
-9.72939
-9.74129
-9.75303
-9.44059
-9.44172
-9.44458
-9.44894
-9.45446
-9.46097
-9.46835
-9.47648
-9.48521
-9.49443
-9.50404
-9.51395
-9.52411
-9.53446
-9.54496
-9.55559
-9.56632
-9.57714
-9.58805
-9.59904
-9.6101
-9.62124
-9.63245
-9.64373
-9.65507
-9.66645
-9.67787
-9.68929
-9.70069
-9.71204
-9.7233
-9.73443
-9.74537
-9.44153
-9.44262
-9.44537
-9.44957
-9.45493
-9.46127
-9.46849
-9.47646
-9.48504
-9.49413
-9.50361
-9.51341
-9.52345
-9.5337
-9.54409
-9.5546
-9.56521
-9.5759
-9.58665
-9.59745
-9.6083
-9.61919
-9.63012
-9.64106
-9.65202
-9.66298
-9.67391
-9.68479
-9.69561
-9.70632
-9.71689
-9.7273
-9.73749
-9.44182
-9.44288
-9.44552
-9.44959
-9.4548
-9.46101
-9.4681
-9.47596
-9.48444
-9.49342
-9.50281
-9.51252
-9.52247
-9.53262
-9.54291
-9.55332
-9.5638
-9.57434
-9.58493
-9.59554
-9.60617
-9.61681
-9.62744
-9.63805
-9.64862
-9.65915
-9.66961
-9.67997
-9.69022
-9.70032
-9.71025
-9.71998
-9.72947
-9.44143
-9.44245
-9.44499
-9.44894
-9.45403
-9.46014
-9.46716
-9.47494
-9.48335
-9.49227
-9.5016
-9.51125
-9.52114
-9.53121
-9.54142
-9.55172
-9.56208
-9.57248
-9.5829
-9.59332
-9.60372
-9.61409
-9.62442
-9.63469
-9.64489
-9.65499
-9.66499
-9.67485
-9.68455
-9.69407
-9.70339
-9.71249
-9.72132
-9.44033
-9.4413
-9.44373
-9.44755
-9.45256
-9.45861
-9.46559
-9.47335
-9.48174
-9.49065
-9.49997
-9.50959
-9.51944
-9.52947
-9.53961
-9.54982
-9.56008
-9.57035
-9.58061
-9.59084
-9.60102
-9.61114
-9.62118
-9.63112
-9.64095
-9.65066
-9.66021
-9.66959
-9.67878
-9.68776
-9.69651
-9.70501
-9.71322
-9.43849
-9.43939
-9.44169
-9.44537
-9.4503
-9.45635
-9.46335
-9.47114
-9.47958
-9.48852
-9.49786
-9.50749
-9.51734
-9.52733
-9.53741
-9.54754
-9.55769
-9.56783
-9.57793
-9.58797
-9.59792
-9.60779
-9.61754
-9.62716
-9.63663
-9.64594
-9.65507
-9.664
-9.6727
-9.68117
-9.68939
-9.69734
-9.70499
-9.43589
-9.4367
-9.43879
-9.44229
-9.44717
-9.45327
-9.46036
-9.46825
-9.4768
-9.48586
-9.49531
-9.50504
-9.51495
-9.52498
-9.53508
-9.54519
-9.55529
-9.56534
-9.57531
-9.5852
-9.59497
-9.6046
-9.61409
-9.62342
-9.63256
-9.64151
-9.65024
-9.65874
-9.667
-9.67499
-9.68271
-9.69013
-9.69723
-9.43254
-9.43319
-9.43492
-9.43816
-9.44305
-9.44931
-9.45657
-9.46462
-9.47331
-9.48248
-9.49201
-9.50177
-9.5117
-9.52172
-9.53178
-9.54183
-9.55184
-9.56178
-9.57162
-9.58134
-9.59092
-9.60034
-9.60958
-9.61863
-9.62747
-9.63609
-9.64447
-9.65259
-9.66045
-9.66802
-9.6753
-9.68229
-9.68896
-9.42853
-9.42885
-9.42995
-9.43279
-9.43772
-9.44425
-9.45189
-9.46041
-9.46963
-9.4793
-9.48926
-9.49938
-9.50959
-9.51981
-9.53001
-9.54013
-9.55015
-9.56005
-9.5698
-9.57938
-9.58878
-9.59798
-9.60697
-9.61573
-9.62425
-9.63252
-9.64053
-9.64825
-9.65569
-9.66282
-9.66963
-9.67612
-9.68224
-9.42409
-9.42364
-9.42358
-9.42609
-9.43129
-9.4379
-9.44533
-9.45363
-9.46272
-9.47234
-9.48228
-9.49242
-9.50267
-9.51296
-9.52322
-9.53341
-9.54349
-9.55343
-9.5632
-9.57279
-9.58216
-9.59131
-9.60023
-9.60889
-9.61728
-9.6254
-9.63322
-9.64075
-9.64796
-9.65486
-9.66143
-9.66768
-9.67362
-9.41988
-9.41761
-9.41464
-9.41677
-9.424
-9.43327
-9.44312
-9.45344
-9.46409
-9.47483
-9.48552
-9.49614
-9.50664
-9.51699
-9.52719
-9.5372
-9.54702
-9.55664
-9.56605
-9.57523
-9.58417
-9.59287
-9.60131
-9.60949
-9.61738
-9.62498
-9.63229
-9.63928
-9.64595
-9.65229
-9.65829
-9.66392
-9.66917
-9.4171
-9.41194
-9.4043
-9.40185
-9.40427
-9.40962
-9.4175
-9.42737
-9.43832
-9.44973
-9.46138
-9.47311
-9.48481
-9.49636
-9.50771
-9.51882
-9.52968
-9.54025
-9.55053
-9.56051
-9.57017
-9.57951
-9.58852
-9.5972
-9.60554
-9.61352
-9.62116
-9.62843
-9.63535
-9.6419
-9.64809
-9.65395
-9.65947
-9.41737
-9.39742
-9.40013
-9.41976
-9.43633
-9.44703
-9.45665
-9.46685
-9.47696
-9.48662
-9.49603
-9.50534
-9.51455
-9.52366
-9.53263
-9.54149
-9.55021
-9.55877
-9.56716
-9.57537
-9.58338
-9.59116
-9.59872
-9.60602
-9.61306
-9.61983
-9.6263
-9.63248
-9.63834
-9.64388
-9.64907
-9.65391
-9.65835
-9.45471
-9.33142
-9.26823
-9.27173
-9.29391
-9.31545
-9.33657
-9.35813
-9.37912
-9.39888
-9.41744
-9.43492
-9.45139
-9.46692
-9.4816
-9.49551
-9.50872
-9.52127
-9.53321
-9.54458
-9.55541
-9.56571
-9.57551
-9.58483
-9.59367
-9.60204
-9.60996
-9.61742
-9.62444
-9.63102
-9.63717
-9.64291
-9.64823
-9.61453
-9.62765
-9.58627
-9.54399
-9.51984
-9.50913
-9.50442
-9.5023
-9.5023
-9.50441
-9.50822
-9.51316
-9.5189
-9.52523
-9.53199
-9.53907
-9.54633
-9.5537
-9.5611
-9.56847
-9.57577
-9.58295
-9.58997
-9.59681
-9.60343
-9.60982
-9.61595
-9.62181
-9.62737
-9.63263
-9.63758
-9.64219
-9.64645
-8.45024
-8.75052
-9.01542
-9.14121
-9.20605
-9.26201
-9.31139
-9.34962
-9.37923
-9.4041
-9.42597
-9.44536
-9.46269
-9.47844
-9.49296
-9.50647
-9.51912
-9.53101
-9.54224
-9.55285
-9.56291
-9.57244
-9.58148
-9.59004
-9.59813
-9.60578
-9.61298
-9.61975
-9.62609
-9.63201
-9.63751
-9.64261
-9.6473
-9.56676
-10.4174
-10.2396
-10.2476
-10.3779
-10.4405
-10.4232
-10.3737
-10.3274
-10.3028
-10.3036
-10.3219
-10.3479
-10.3772
-10.411
-10.452
-10.5019
-10.5606
-10.6267
-10.6985
-10.7737
-10.8492
-10.9211
-10.9851
-11.0372
-11.0745
-11.0953
-11.0994
-11.0878
-11.0621
-11.0243
-10.9762
-10.9189
-10.8525
-10.7762
-10.6881
-10.5857
-10.4666
-10.3285
-10.1699
-9.99047
-9.79072
-9.57242
-9.3382
-9.09136
-8.83557
-8.57443
-8.31107
-8.04771
-7.78542
-7.52405
-7.26236
-6.99843
-6.73002
-6.45512
-6.17239
-5.88143
-5.5831
-5.27954
-4.97412
-4.67116
-4.37545
-4.09164
-3.82355
-3.57375
-3.34328
-3.13177
-2.93782
-2.75934
-2.59395
-2.43925
-2.29299
-2.15309
-2.01774
-1.88533
-1.7545
-1.62407
-1.49305
-1.3607
-1.22661
-1.09106
-0.95559
-0.823418
-0.699283
-0.588083
-0.493038
-0.414585
-0.350855
-0.29894
-0.256053
-0.219934
-0.18906
-0.162048
-0.138505
-0.116654
-0.097588
-0.077858
-0.0583849
-0.043132
0.00123096
-9.57406
-10.237
-10.1626
-10.1799
-10.3319
-10.4188
-10.4145
-10.3685
-10.3196
-10.2903
-10.2881
-10.3061
-10.3325
-10.3613
-10.3935
-10.433
-10.4818
-10.5398
-10.6048
-10.6747
-10.7472
-10.8195
-10.888
-10.9489
-10.9981
-11.0327
-11.0511
-11.0531
-11.0397
-11.0126
-10.9737
-10.9247
-10.8669
-10.8001
-10.7236
-10.6354
-10.5331
-10.4143
-10.2766
-10.1188
-9.94038
-9.742
-9.52538
-9.29316
-9.04859
-8.79532
-8.53695
-8.2766
-8.01652
-7.75778
-7.50019
-7.24244
-6.98248
-6.71795
-6.44674
-6.16741
-5.87951
-5.58388
-5.28266
-4.97921
-4.67789
-4.38353
-4.10087
-3.83388
-3.58521
-3.356
-3.14592
-2.95351
-2.77661
-2.61275
-2.45942
-2.31428
-2.17519
-2.04029
-1.90796
-1.77682
-1.64569
-1.51358
-1.37973
-1.24368
-1.10568
-0.96724
-0.831748
-0.704264
-0.590102
-0.492797
-0.412869
-0.348324
-0.296066
-0.25315
-0.217218
-0.186686
-0.160124
-0.137128
-0.115836
-0.0974923
-0.0781346
-0.0600158
-0.043684
-0.00435505
-9.64737
-10.0524
-10.1242
-10.16
-10.2772
-10.3639
-10.3802
-10.3538
-10.3162
-10.2897
-10.2848
-10.2984
-10.3207
-10.3456
-10.3741
-10.4104
-10.457
-10.5135
-10.5772
-10.6452
-10.7149
-10.7837
-10.8486
-10.906
-10.9522
-10.9843
-11.0007
-11.0012
-10.9866
-10.9586
-10.9191
-10.8698
-10.8116
-10.7445
-10.6677
-10.5793
-10.477
-10.3584
-10.2214
-10.0646
-9.88772
-9.69136
-9.47721
-9.2478
-9.00631
-8.75626
-8.50116
-8.24408
-7.98725
-7.73178
-7.47749
-7.2231
-6.96654
-6.70543
-6.43762
-6.16164
-5.87703
-5.58457
-5.28637
-4.98572
-4.6869
-4.39468
-4.11378
-3.8482
-3.6007
-3.37252
-3.16341
-2.97196
-2.79599
-2.63299
-2.48041
-2.33584
-2.1971
-2.06229
-1.92978
-1.79817
-1.6663
-1.5332
-1.39807
-1.26047
-1.1206
-0.979946
-0.841942
-0.711811
-0.595136
-0.495709
-0.414188
-0.34856
-0.295629
-0.252346
-0.216276
-0.185779
-0.159386
-0.136663
-0.115678
-0.0978003
-0.0785506
-0.0616192
-0.0435844
-0.0100326
-9.70555
-9.97858
-10.1103
-10.1573
-10.2389
-10.3127
-10.3371
-10.3242
-10.2996
-10.2822
-10.2816
-10.296
-10.3178
-10.3416
-10.3678
-10.4006
-10.4427
-10.4941
-10.5524
-10.6148
-10.6787
-10.7419
-10.8017
-10.8548
-10.8977
-10.9275
-10.9425
-10.9422
-10.9274
-10.8995
-10.8601
-10.8108
-10.7525
-10.6852
-10.6081
-10.5194
-10.417
-10.2987
-10.1625
-10.0072
-9.83234
-9.6387
-9.42783
-9.2021
-8.96453
-8.71844
-8.46715
-8.21363
-7.96006
-7.70757
-7.45607
-7.20437
-6.95053
-6.69226
-6.42746
-6.15469
-5.8735
-5.58464
-5.29012
-4.99311
-4.69771
-4.40852
-4.1301
-3.8664
-3.62024
-3.39294
-3.1844
-2.99331
-2.81758
-2.65472
-2.50218
-2.35753
-2.21858
-2.08342
-1.95039
-1.81812
-1.68546
-1.55144
-1.4153
-1.2766
-1.13553
-0.993534
-0.853969
-0.722059
-0.603493
-0.50225
-0.419161
-0.35229
-0.298428
-0.254473
-0.217941
-0.187146
-0.160588
-0.1378
-0.116796
-0.0990406
-0.0795617
-0.06349
-0.0431859
-0.0155129
-9.75117
-9.94407
-10.0751
-10.1322
-10.197
-10.2601
-10.2892
-10.2885
-10.277
-10.2694
-10.2728
-10.2874
-10.3082
-10.3315
-10.3576
-10.3894
-10.4294
-10.4773
-10.531
-10.588
-10.6459
-10.7028
-10.7564
-10.8039
-10.8423
-10.8688
-10.8817
-10.8802
-10.8649
-10.837
-10.7978
-10.7486
-10.6901
-10.6225
-10.5448
-10.4557
-10.3531
-10.235
-10.0997
-9.94612
-9.77385
-9.58352
-9.3766
-9.1553
-8.92237
-8.68089
-8.43396
-8.18434
-7.93412
-7.68444
-7.43532
-7.18578
-6.93406
-6.67807
-6.41588
-6.14613
-5.8684
-5.58343
-5.29311
-5.00044
-4.70926
-4.42391
-4.14872
-3.88747
-3.64294
-3.41654
-3.20833
-3.01717
-2.84112
-2.67778
-2.52466
-2.37937
-2.23972
-2.10379
-1.96996
-1.83685
-1.70333
-1.56847
-1.43155
-1.29217
-1.15051
-1.00795
-0.867697
-0.734805
-0.614912
-0.512115
-0.427461
-0.359189
-0.304163
-0.259274
-0.222006
-0.190634
-0.163634
-0.140495
-0.119199
-0.101269
-0.0813011
-0.0657604
-0.0428494
-0.0208223
-9.78323
-9.92427
-10.0403
-10.105
-10.1618
-10.2155
-10.247
-10.2565
-10.2562
-10.2561
-10.2622
-10.2761
-10.2958
-10.3187
-10.3447
-10.3758
-10.4135
-10.4576
-10.5066
-10.5581
-10.6103
-10.6613
-10.7092
-10.7516
-10.7857
-10.809
-10.8198
-10.8172
-10.8015
-10.7735
-10.7344
-10.6851
-10.6263
-10.558
-10.4795
-10.3895
-10.2864
-10.1684
-10.0339
-9.88203
-9.71241
-9.52562
-9.32297
-9.10645
-8.87858
-8.64213
-8.39992
-8.1545
-7.9078
-7.66095
-7.41407
-7.16639
-6.91641
-6.66233
-6.40243
-6.13551
-5.86124
-5.58031
-5.29452
-5.00665
-4.72029
-4.43944
-4.16812
-3.90989
-3.6674
-3.44211
-3.2342
-3.04275
-2.86599
-2.70172
-2.54756
-2.40118
-2.26043
-2.12343
-1.98858
-1.85451
-1.72012
-1.58451
-1.44703
-1.30733
-1.16561
-1.02319
-0.883037
-0.749904
-0.629216
-0.525102
-0.438853
-0.368987
-0.312535
-0.266438
-0.228166
-0.195954
-0.168254
-0.144506
-0.122676
-0.1043
-0.0836393
-0.0683021
-0.0426371
-0.0258153
-9.80505
-9.91308
-10.0123
-10.0776
-10.1293
-10.1763
-10.2095
-10.2267
-10.2345
-10.2399
-10.2482
-10.2621
-10.2814
-10.3044
-10.3306
-10.3608
-10.3961
-10.4366
-10.481
-10.5274
-10.5742
-10.6197
-10.6622
-10.6993
-10.7289
-10.7486
-10.7568
-10.7527
-10.7362
-10.7079
-10.6687
-10.6192
-10.5601
-10.4912
-10.4119
-10.3212
-10.2176
-10.0996
-9.96589
-9.81564
-9.64862
-9.46532
-9.26691
-9.05519
-8.8324
-8.60106
-8.36371
-8.12264
-7.87965
-7.63577
-7.39125
-7.14546
-6.8972
-6.64493
-6.38722
-6.12307
-5.85223
-5.5754
-5.29427
-5.01141
-4.73013
-4.45412
-4.18706
-3.93226
-3.6922
-3.4683
-3.26085
-3.0691
-2.89151
-2.72608
-2.57058
-2.42281
-2.2807
-2.14241
-2.00638
-1.87127
-1.73601
-1.59976
-1.4619
-1.32217
-1.18081
-1.03908
-0.899705
-0.767024
-0.646095
-0.540957
-0.453129
-0.381486
-0.323339
-0.275745
-0.236189
-0.202872
-0.17422
-0.149613
-0.127018
-0.107937
-0.0864046
-0.0709331
-0.0425064
-0.0302568
-9.81953
-9.90552
-9.98909
-10.0512
-10.0998
-10.1432
-10.1771
-10.1989
-10.2121
-10.2216
-10.2321
-10.2468
-10.2662
-10.2891
-10.3149
-10.3438
-10.3768
-10.4138
-10.4541
-10.496
-10.538
-10.5785
-10.6157
-10.6479
-10.673
-10.6891
-10.6945
-10.6885
-10.6708
-10.6419
-10.6023
-10.5525
-10.4929
-10.4233
-10.3433
-10.2519
-10.1478
-10.0299
-9.89693
-9.74829
-9.58376
-9.40381
-9.20948
-9.00239
-8.78455
-8.55821
-8.32566
-8.08895
-7.84973
-7.60898
-7.36697
-7.12326
-6.87688
-6.62656
-6.37113
-6.10979
-5.8424
-5.56967
-5.29318
-5.01533
-4.73914
-4.46801
-4.20531
-3.95408
-3.71662
-3.49431
-3.28748
-3.09555
-2.91716
-2.75052
-2.59358
-2.44428
-2.30066
-2.16096
-2.02365
-1.88745
-1.75134
-1.6145
-1.47639
-1.3368
-1.19606
-1.05538
-0.91726
-0.785595
-0.664971
-0.559195
-0.469929
-0.396427
-0.336363
-0.287001
-0.245889
-0.211207
-0.181357
-0.155651
-0.13207
-0.112036
-0.0894729
-0.0735244
-0.0424387
-0.0339515
-9.82854
-9.89916
-9.96986
-10.0274
-10.0738
-10.1144
-10.1479
-10.1721
-10.1888
-10.2017
-10.2147
-10.2304
-10.2499
-10.2725
-10.2974
-10.3249
-10.3555
-10.3894
-10.4259
-10.4638
-10.5014
-10.5372
-10.5697
-10.5972
-10.618
-10.6304
-10.6331
-10.625
-10.6061
-10.5763
-10.5361
-10.4859
-10.4257
-10.3556
-10.2749
-10.1829
-10.0785
-9.96076
-9.82864
-9.68159
-9.51949
-9.34276
-9.15234
-8.94969
-8.73659
-8.51507
-8.28717
-8.05475
-7.8193
-7.58174
-7.34238
-7.10092
-6.85659
-6.60839
-6.35537
-6.09691
-5.83299
-5.56432
-5.29238
-5.01941
-4.74818
-4.4818
-4.22336
-3.97564
-3.74079
-3.52011
-3.31399
-3.12195
-2.94283
-2.77501
-2.61664
-2.46578
-2.3206
-2.17943
-2.04081
-1.90351
-1.76654
-1.62914
-1.49083
-1.35148
-1.21146
-1.07197
-0.935328
-0.805019
-0.685126
-0.579119
-0.488682
-0.413388
-0.351306
-0.299977
-0.257074
-0.220788
-0.189511
-0.162482
-0.13771
-0.116495
-0.0927598
-0.0760035
-0.0424509
-0.036786
-9.83363
-9.89318
-9.95374
-10.0063
-10.0502
-10.0884
-10.1208
-10.1462
-10.1655
-10.1812
-10.1963
-10.2131
-10.2326
-10.2544
-10.2783
-10.3042
-10.3326
-10.3636
-10.3968
-10.4308
-10.4643
-10.4957
-10.5237
-10.5469
-10.5637
-10.5726
-10.5725
-10.5624
-10.542
-10.5113
-10.4704
-10.4196
-10.3589
-10.2882
-10.207
-10.1146
-10.0101
-9.89268
-9.7615
-9.6161
-9.4564
-9.28279
-9.09614
-8.89773
-8.68918
-8.47229
-8.24889
-8.02066
-7.78895
-7.55463
-7.31804
-7.07899
-6.83691
-6.59099
-6.34051
-6.08501
-5.82457
-5.55989
-5.2924
-5.02414
-4.75768
-4.49586
-4.24151
-3.99719
-3.76489
-3.54584
-3.34047
-3.14839
-2.96861
-2.79968
-2.6399
-2.48752
-2.3408
-2.19817
-2.05823
-1.91983
-1.78201
-1.64407
-1.50558
-1.36648
-1.22719
-1.0889
-0.953755
-0.824908
-0.705966
-0.60003
-0.508713
-0.431811
-0.367749
-0.314366
-0.269512
-0.231432
-0.19853
-0.169981
-0.143831
-0.121232
-0.0962038
-0.0783368
-0.0425732
-0.0387304
-9.8359
-9.8872
-9.93975
-9.98743
-10.0285
-10.0645
-10.0958
-10.1216
-10.1426
-10.1604
-10.1772
-10.1947
-10.2139
-10.235
-10.2578
-10.2822
-10.3085
-10.3369
-10.3668
-10.3971
-10.4267
-10.454
-10.4779
-10.497
-10.51
-10.5156
-10.5128
-10.5006
-10.4787
-10.4469
-10.4052
-10.3537
-10.2925
-10.2213
-10.1396
-10.047
-9.94257
-9.82561
-9.69547
-9.55176
-9.39444
-9.22388
-9.04085
-8.84651
-8.64232
-8.42987
-8.21082
-7.98667
-7.75865
-7.52759
-7.29386
-7.05736
-6.81768
-6.57421
-6.3264
-6.07394
-5.81699
-5.55627
-5.29311
-5.02942
-4.76756
-4.51012
-4.25971
-4.01867
-3.78885
-3.57142
-3.36682
-3.17477
-2.99441
-2.82446
-2.66337
-2.50952
-2.36132
-2.21726
-2.07605
-1.93657
-1.79793
-1.65948
-1.52083
-1.38199
-1.2434
-1.10624
-0.97253
-0.845097
-0.727149
-0.621438
-0.529457
-0.451147
-0.38522
-0.329799
-0.282928
-0.242933
-0.208258
-0.178028
-0.150344
-0.126188
-0.0997641
-0.0805239
-0.0428367
-0.0398277
-9.83607
-9.881
-9.92713
-9.97024
-10.0085
-10.0425
-10.0725
-10.0983
-10.1202
-10.1394
-10.1572
-10.1751
-10.1941
-10.2145
-10.2361
-10.259
-10.2834
-10.3092
-10.3359
-10.3628
-10.3886
-10.4121
-10.432
-10.4473
-10.4568
-10.4593
-10.4538
-10.4396
-10.4161
-10.3831
-10.3405
-10.2884
-10.2266
-10.1549
-10.0729
-9.98012
-9.87586
-9.75948
-9.63046
-9.48846
-9.33349
-9.16588
-8.98635
-8.79592
-8.5959
-8.38772
-8.17286
-7.95268
-7.72831
-7.50052
-7.2697
-7.03586
-6.7987
-6.55781
-6.31277
-6.06342
-5.80998
-5.55317
-5.29426
-5.03501
-4.7776
-4.52439
-4.27778
-4.03992
-3.81252
-3.5967
-3.3929
-3.20095
-3.0201
-2.84921
-2.6869
-2.53167
-2.38205
-2.23664
-2.09421
-1.95371
-1.81429
-1.67536
-1.53659
-1.39801
-1.26011
-1.12402
-0.991636
-0.865515
-0.748514
-0.643074
-0.550556
-0.470994
-0.403328
-0.345933
-0.297039
-0.255073
-0.218532
-0.186509
-0.157169
-0.131324
-0.103422
-0.082594
-0.0432745
-0.0401891
-9.83462
-9.87447
-9.9154
-9.95442
-9.98991
-10.0219
-10.0506
-10.076
-10.0983
-10.1182
-10.1366
-10.1548
-10.1734
-10.193
-10.2135
-10.2349
-10.2573
-10.2806
-10.3044
-10.3279
-10.3501
-10.3699
-10.3862
-10.398
-10.4041
-10.4036
-10.3956
-10.3793
-10.3542
-10.32
-10.2765
-10.2236
-10.1612
-10.0891
-10.0068
-9.91398
-9.80997
-9.69426
-9.5664
-9.42613
-9.27346
-9.10873
-8.93256
-8.74589
-8.54987
-8.34579
-8.13498
-7.91867
-7.69788
-7.47336
-7.2455
-7.0144
-6.77988
-6.54166
-6.29948
-6.05328
-5.80335
-5.55041
-5.29566
-5.04073
-4.78762
-4.53851
-4.29557
-4.0608
-3.83577
-3.62155
-3.4186
-3.22681
-3.04554
-2.87381
-2.71036
-2.55384
-2.40288
-2.25618
-2.11259
-1.97112
-1.83098
-1.69162
-1.55276
-1.41446
-1.27723
-1.14216
-1.011
-0.886089
-0.769959
-0.664785
-0.571803
-0.491105
-0.421816
-0.362521
-0.311628
-0.267669
-0.229208
-0.195319
-0.164239
-0.136609
-0.107173
-0.084596
-0.0439158
-0.0399719
-9.83189
-9.86758
-9.90422
-9.93965
-9.97249
-10.0025
-10.0299
-10.0546
-10.0768
-10.0969
-10.1156
-10.1337
-10.1519
-10.1707
-10.19
-10.2099
-10.2304
-10.2512
-10.2721
-10.2925
-10.3113
-10.3277
-10.3405
-10.3489
-10.3519
-10.3486
-10.3381
-10.3198
-10.293
-10.2575
-10.213
-10.1594
-10.0964
-10.0239
-9.94143
-9.8486
-9.74493
-9.62994
-9.50327
-9.36472
-9.21432
-9.05237
-8.87944
-8.69637
-8.5042
-8.30408
-8.09719
-7.88464
-7.66739
-7.44613
-7.22127
-6.99297
-6.76118
-6.52571
-6.28645
-6.04344
-5.79701
-5.54789
-5.2972
-5.04647
-4.79753
-4.55238
-4.313
-4.08123
-3.85854
-3.64592
-3.44385
-3.25228
-3.07068
-2.89819
-2.73369
-2.57595
-2.42372
-2.2758
-2.13111
-1.98872
-1.84791
-1.70816
-1.56924
-1.43123
-1.29465
-1.16055
-1.03055
-0.906738
-0.7914
-0.686465
-0.593061
-0.511318
-0.440507
-0.379395
-0.326546
-0.280598
-0.240189
-0.204386
-0.171508
-0.14203
-0.111023
-0.0865854
-0.0447808
-0.0393531
-9.8281
-9.86034
-9.89339
-9.92565
-9.95602
-9.98417
-10.0102
-10.034
-10.0557
-10.0757
-10.0943
-10.1122
-10.1298
-10.1477
-10.1658
-10.1841
-10.2026
-10.2211
-10.2393
-10.2567
-10.2723
-10.2854
-10.295
-10.3003
-10.3003
-10.2942
-10.2813
-10.261
-10.2326
-10.1958
-10.1503
-10.0959
-10.0324
-9.95945
-9.87681
-9.78405
-9.68076
-9.56654
-9.44109
-9.30424
-9.15605
-8.99679
-8.82699
-8.64739
-8.45891
-8.26259
-8.05949
-7.85062
-7.63685
-7.41883
-7.19701
-6.97158
-6.74257
-6.50994
-6.27366
-6.03385
-5.79091
-5.54554
-5.29882
-5.05217
-4.80727
-4.56595
-4.33002
-4.10118
-3.88077
-3.66975
-3.4686
-3.27731
-3.09546
-2.9223
-2.75684
-2.59797
-2.44454
-2.29547
-2.14973
-2.00647
-1.86503
-1.72492
-1.58596
-1.44826
-1.31232
-1.17913
-1.05019
-0.927392
-0.812768
-0.708041
-0.614237
-0.531515
-0.459271
-0.396423
-0.341678
-0.293767
-0.251404
-0.213663
-0.178949
-0.147581
-0.114984
-0.0886136
-0.0458708
-0.038498
-9.82344
-9.85274
-9.88274
-9.91222
-9.94029
-9.96661
-9.99116
-10.014
-10.035
-10.0545
-10.0728
-10.0902
-10.1072
-10.1241
-10.1409
-10.1576
-10.1742
-10.1905
-10.2061
-10.2206
-10.2332
-10.2432
-10.2498
-10.252
-10.2492
-10.2405
-10.2253
-10.203
-10.173
-10.1349
-10.0884
-10.0332
-9.96908
-9.8958
-9.81301
-9.72037
-9.61752
-9.5041
-9.37987
-9.24472
-9.09868
-8.94203
-8.77523
-8.59895
-8.41403
-8.22137
-8.02194
-7.81665
-7.6063
-7.39152
-7.17274
-6.95023
-6.72408
-6.49434
-6.26107
-6.02449
-5.78501
-5.54333
-5.30049
-5.0578
-4.81681
-4.57918
-4.3466
-4.1206
-3.90244
-3.69301
-3.49281
-3.30186
-3.11984
-2.9461
-2.77977
-2.61986
-2.46532
-2.31514
-2.16842
-2.02435
-1.88231
-1.74188
-1.60289
-1.46549
-1.33015
-1.19782
-1.06987
-0.947996
-0.834014
-0.729458
-0.635266
-0.551617
-0.478011
-0.413502
-0.356919
-0.307086
-0.262786
-0.223104
-0.186535
-0.153258
-0.119059
-0.0907194
-0.0471655
-0.0375454
-9.81804
-9.84481
-9.87217
-9.89918
-9.92512
-9.94967
-9.97278
-9.99444
-10.0146
-10.0335
-10.0511
-10.0679
-10.0841
-10.0999
-10.1154
-10.1306
-10.1453
-10.1594
-10.1725
-10.1843
-10.194
-10.2011
-10.2048
-10.2042
-10.1987
-10.1875
-10.1701
-10.1459
-10.1142
-10.0748
-10.0273
-9.9713
-9.90664
-9.83302
-9.75013
-9.65765
-9.55526
-9.44267
-9.31967
-9.18617
-9.04223
-8.8881
-8.72419
-8.55111
-8.36959
-8.18046
-7.98458
-7.78278
-7.57579
-7.36422
-7.14851
-6.92894
-6.7057
-6.47889
-6.24868
-6.01533
-5.77928
-5.54124
-5.30218
-5.06333
-4.82612
-4.59207
-4.36272
-4.13948
-3.92352
-3.71569
-3.51646
-3.32592
-3.14381
-2.96958
-2.80247
-2.64159
-2.48601
-2.33482
-2.18716
-2.04232
-1.89972
-1.759
-1.62
-1.48288
-1.34812
-1.21659
-1.08954
-0.968508
-0.855096
-0.750679
-0.656105
-0.57157
-0.496663
-0.430556
-0.372192
-0.320477
-0.274265
-0.232655
-0.194229
-0.159042
-0.123234
-0.0929206
-0.0486206
-0.0365975
-9.812
-9.83655
-9.8616
-9.88641
-9.91038
-9.93324
-9.9549
-9.97536
-9.99457
-10.0126
-10.0295
-10.0454
-10.0607
-10.0753
-10.0895
-10.103
-10.1159
-10.1279
-10.1386
-10.1478
-10.1549
-10.1592
-10.1601
-10.1568
-10.1488
-10.1353
-10.1158
-10.0896
-10.0564
-10.0157
-9.96711
-9.91036
-9.84515
-9.7712
-9.68823
-9.59594
-9.49405
-9.3823
-9.26052
-9.12865
-8.98675
-8.83504
-8.67391
-8.50389
-8.32565
-8.13992
-7.94748
-7.74907
-7.54539
-7.337
-7.12434
-6.90775
-6.68745
-6.46362
-6.23648
-6.00634
-5.77369
-5.53922
-5.30385
-5.06873
-4.83517
-4.60458
-4.37836
-4.1578
-3.944
-3.73775
-3.53953
-3.34945
-3.16732
-2.99268
-2.82488
-2.66314
-2.50661
-2.35446
-2.20594
-2.06038
-1.91726
-1.77626
-1.63726
-1.50042
-1.36619
-1.2354
-1.10917
-0.988891
-0.875982
-0.771668
-0.676717
-0.591333
-0.515179
-0.447531
-0.387437
-0.333882
-0.285787
-0.24227
-0.201992
-0.164907
-0.127487
-0.0952192
-0.0501823
-0.0357265
-9.80541
-9.82799
-9.85099
-9.87381
-9.89597
-9.9172
-9.93743
-9.95663
-9.97476
-9.99179
-10.0078
-10.0228
-10.037
-10.0505
-10.0632
-10.0752
-10.0862
-10.0961
-10.1046
-10.1114
-10.1159
-10.1176
-10.1159
-10.1101
-10.0996
-10.0838
-10.0623
-10.0343
-9.99957
-9.95757
-9.90796
-9.85043
-9.78468
-9.71043
-9.62741
-9.53533
-9.43395
-9.32305
-9.20249
-9.0722
-8.93227
-8.7829
-8.62444
-8.45737
-8.28227
-8.09981
-7.91069
-7.71559
-7.51514
-7.3099
-7.1003
-6.8867
-6.66935
-6.44852
-6.22446
-5.99754
-5.76825
-5.53727
-5.3055
-5.07399
-4.84396
-4.6167
-4.39351
-4.17556
-3.96387
-3.75919
-3.56199
-3.37243
-3.19035
-3.0154
-2.847
-2.68447
-2.52706
-2.37404
-2.22472
-2.07848
-1.93489
-1.79363
-1.65463
-1.51805
-1.38432
-1.2542
-1.12872
-1.00911
-0.89664
-0.792394
-0.697069
-0.610868
-0.533517
-0.464384
-0.402611
-0.347257
-0.29731
-0.251909
-0.209794
-0.17083
-0.131797
-0.0976102
-0.0518025
-0.0349779
-9.79834
-9.81916
-9.84032
-9.86133
-9.88179
-9.90148
-9.9203
-9.93822
-9.95519
-9.97115
-9.9861
-10.0001
-10.0132
-10.0254
-10.0367
-10.047
-10.0563
-10.0642
-10.0706
-10.075
-10.0771
-10.0763
-10.0721
-10.0639
-10.0511
-10.0333
-10.0097
-9.98004
-9.94378
-9.90052
-9.84991
-9.79162