/*--------------------------------*- C++ -*----------------------------------*\
  =========                 |
  \\      /  F ield         | OpenFOAM: The Open Source CFD Toolbox
   \\    /   O peration     | Website:  https://openfoam.org
    \\  /    A nd           | Version:  10
     \\/     M anipulation  |
\*---------------------------------------------------------------------------*/
FoamFile
{
    format      ascii;
    class       surfaceScalarField;
    location    "500";
    object      phi;
}
// * * * * * * * * * * * * * * * * * * * * * * * * * * * * * * * * * * * * * //

dimensions      [0 3 -1 0 0 0 0];

internalField   nonuniform List<scalar> 
13452
(
6.02918e-05
-2.33196e-08
5.99932e-05
2.98631e-07
5.95888e-05
4.04364e-07
5.91145e-05
4.74266e-07
5.86101e-05
5.04449e-07
5.81288e-05
4.81256e-07
5.76928e-05
4.36042e-07
5.73022e-05
3.90521e-07
5.69518e-05
3.50474e-07
5.66355e-05
3.16238e-07
5.63482e-05
2.873e-07
5.60853e-05
2.6294e-07
5.5843e-05
2.42336e-07
5.56182e-05
2.24748e-07
5.54086e-05
2.09594e-07
5.52122e-05
1.96443e-07
5.50272e-05
1.84976e-07
5.48522e-05
1.74967e-07
5.4686e-05
1.66262e-07
5.45272e-05
1.58776e-07
5.43747e-05
1.5249e-07
5.42272e-05
1.47458e-07
5.40834e-05
1.43827e-07
5.39415e-05
1.41882e-07
5.37994e-05
1.42122e-07
5.36539e-05
1.45466e-07
5.35005e-05
1.53425e-07
5.33326e-05
1.67867e-07
5.31333e-05
1.99304e-07
5.28628e-05
2.70531e-07
5.24635e-05
3.99277e-07
5.17224e-05
7.41123e-07
2.14528e-06
4.95771e-05
6.2147e-05
-1.79968e-07
6.21725e-05
2.7309e-07
6.21941e-05
3.82837e-07
6.22102e-05
4.58141e-07
6.221e-05
5.04594e-07
6.21797e-05
5.11558e-07
6.21178e-05
4.9792e-07
6.20306e-05
4.7781e-07
6.19255e-05
4.55547e-07
6.18092e-05
4.32566e-07
6.16864e-05
4.10011e-07
6.15608e-05
3.88634e-07
6.14343e-05
3.68738e-07
6.13087e-05
3.5038e-07
6.11848e-05
3.33534e-07
6.10631e-05
3.18148e-07
6.09439e-05
3.04165e-07
6.08273e-05
2.91539e-07
6.07133e-05
2.80251e-07
6.06018e-05
2.70323e-07
6.04924e-05
2.6183e-07
6.0385e-05
2.54925e-07
6.02789e-05
2.49878e-07
6.01737e-05
2.47135e-07
6.00683e-05
2.47458e-07
5.99617e-05
2.5209e-07
5.98517e-05
2.63429e-07
5.97354e-05
2.8416e-07
5.96084e-05
3.26342e-07
5.9457e-05
4.21899e-07
5.92751e-05
5.81144e-07
5.91888e-05
8.27414e-07
1.45694e-06
5.98772e-05
6.36685e-05
-8.70847e-08
6.37271e-05
2.14548e-07
6.3787e-05
3.2292e-07
6.38504e-05
3.94758e-07
6.39051e-05
4.49839e-07
6.39418e-05
4.74875e-07
6.39603e-05
4.79437e-07
6.39633e-05
4.74783e-07
6.39535e-05
4.65348e-07
6.39332e-05
4.52852e-07
6.39045e-05
4.38689e-07
6.38693e-05
4.23922e-07
6.38288e-05
4.0918e-07
6.37844e-05
3.94812e-07
6.37369e-05
3.81042e-07
6.3687e-05
3.68029e-07
6.36353e-05
3.55893e-07
6.35821e-05
3.44737e-07
6.35276e-05
3.34672e-07
6.34721e-05
3.25836e-07
6.34155e-05
3.18421e-07
6.33578e-05
3.127e-07
6.32986e-05
3.09085e-07
6.32375e-05
3.08195e-07
6.31739e-05
3.1102e-07
6.31069e-05
3.1909e-07
6.30351e-05
3.35209e-07
6.29564e-05
3.6294e-07
6.28694e-05
4.13356e-07
6.27837e-05
5.07513e-07
6.27203e-05
6.44549e-07
6.2721e-05
8.26724e-07
1.12414e-06
6.30538e-05
6.55167e-05
-2.07196e-08
6.55575e-05
1.73799e-07
6.55943e-05
2.86073e-07
6.56353e-05
3.53805e-07
6.56777e-05
4.07426e-07
6.57147e-05
4.37858e-07
6.57446e-05
4.49474e-07
6.57678e-05
4.51611e-07
6.57845e-05
4.48692e-07
6.5795e-05
4.42318e-07
6.58e-05
4.33691e-07
6.58001e-05
4.23814e-07
6.57959e-05
4.1334e-07
6.57881e-05
4.02682e-07
6.5777e-05
3.92136e-07
6.57631e-05
3.81939e-07
6.57467e-05
3.72288e-07
6.57281e-05
3.63364e-07
6.57074e-05
3.55351e-07
6.56847e-05
3.48465e-07
6.56602e-05
3.42975e-07
6.56336e-05
3.39241e-07
6.5605e-05
3.37767e-07
6.55739e-05
3.39278e-07
6.554e-05
3.44868e-07
6.5503e-05
3.5616e-07
6.54623e-05
3.7584e-07
6.54178e-05
4.07473e-07
6.53721e-05
4.59041e-07
6.53389e-05
5.40695e-07
6.53348e-05
6.48726e-07
6.53852e-05
7.76305e-07
9.27368e-07
6.55819e-05
6.74274e-05
8.70281e-09
6.74475e-05
1.53702e-07
6.74708e-05
2.62686e-07
6.74989e-05
3.25715e-07
6.75322e-05
3.74164e-07
6.75649e-05
4.05115e-07
6.75946e-05
4.19854e-07
6.76207e-05
4.2548e-07
6.76433e-05
4.26085e-07
6.76624e-05
4.232e-07
6.76782e-05
4.17906e-07
6.76909e-05
4.11139e-07
6.77007e-05
4.03544e-07
6.77078e-05
3.95542e-07
6.77125e-05
3.87447e-07
6.77149e-05
3.7952e-07
6.77152e-05
3.71989e-07
6.77135e-05
3.65067e-07
6.77099e-05
3.58977e-07
6.77044e-05
3.53974e-07
6.7697e-05
3.50369e-07
6.76877e-05
3.48565e-07
6.76763e-05
3.49109e-07
6.76628e-05
3.52753e-07
6.76471e-05
3.60571e-07
6.76292e-05
3.74077e-07
6.76095e-05
3.95522e-07
6.75893e-05
4.27749e-07
6.75728e-05
4.75515e-07
6.75711e-05
5.42384e-07
6.75966e-05
6.23217e-07
6.76638e-05
7.09073e-07
7.89069e-07
6.78021e-05
6.93698e-05
2.29629e-08
6.93822e-05
1.41313e-07
6.94036e-05
2.41282e-07
6.94277e-05
3.01538e-07
6.94557e-05
3.46195e-07
6.94841e-05
3.76674e-07
6.95109e-05
3.93081e-07
6.95357e-05
4.00688e-07
6.95585e-05
4.03273e-07
6.95793e-05
4.02407e-07
6.95981e-05
3.99117e-07
6.96149e-05
3.9429e-07
6.96299e-05
3.88559e-07
6.96431e-05
3.82347e-07
6.96546e-05
3.75976e-07
6.96644e-05
3.69713e-07
6.96726e-05
3.63798e-07
6.96792e-05
3.58459e-07
6.96842e-05
3.53934e-07
6.96877e-05
3.50494e-07
6.96896e-05
3.48464e-07
6.96899e-05
3.48259e-07
6.96886e-05
3.50415e-07
6.96857e-05
3.55647e-07
6.96814e-05
3.64914e-07
6.9676e-05
3.7948e-07
6.96705e-05
4.01016e-07
6.96669e-05
4.31389e-07
6.96695e-05
4.72834e-07
6.96864e-05
5.25478e-07
6.97256e-05
5.84055e-07
6.97944e-05
6.40282e-07
6.83242e-07
6.99002e-05
7.13587e-05
3.06267e-08
7.1369e-05
1.30987e-07
7.13897e-05
2.20603e-07
7.14123e-05
2.78893e-07
7.14374e-05
3.21113e-07
7.14632e-05
3.50904e-07
7.14879e-05
3.68353e-07
7.15112e-05
3.77337e-07
7.15333e-05
3.81261e-07
7.15539e-05
3.81745e-07
7.15732e-05
3.79798e-07
7.15913e-05
3.76273e-07
7.1608e-05
3.71802e-07
7.16235e-05
3.6682e-07
7.16379e-05
3.61658e-07
7.1651e-05
3.56592e-07
7.16629e-05
3.51867e-07
7.16737e-05
3.47718e-07
7.16832e-05
3.44388e-07
7.16915e-05
3.42149e-07
7.16987e-05
3.41322e-07
7.17046e-05
3.42301e-07
7.17095e-05
3.45581e-07
7.17133e-05
3.51786e-07
7.17165e-05
3.61701e-07
7.17198e-05
3.76271e-07
7.17242e-05
3.96578e-07
7.1732e-05
4.2358e-07
7.1747e-05
4.57846e-07
7.17745e-05
4.97971e-07
7.18193e-05
5.39261e-07
7.18845e-05
5.75023e-07
5.97475e-07
7.19703e-05
7.34018e-05
3.41095e-08
7.34111e-05
1.21669e-07
7.34302e-05
2.01535e-07
7.34517e-05
2.57387e-07
7.34752e-05
2.97636e-07
7.34995e-05
3.26597e-07
7.35231e-05
3.44726e-07
7.35456e-05
3.54831e-07
7.3567e-05
3.59854e-07
7.35873e-05
3.61416e-07
7.36066e-05
3.60519e-07
7.36249e-05
3.5799e-07
7.36422e-05
3.54465e-07
7.36586e-05
3.50398e-07
7.36742e-05
3.4613e-07
7.36888e-05
3.41949e-07
7.37026e-05
3.38108e-07
7.37155e-05
3.34843e-07
7.37274e-05
3.32396e-07
7.37386e-05
3.31031e-07
7.37488e-05
3.3105e-07
7.37583e-05
3.32807e-07
7.37672e-05
3.36729e-07
7.37756e-05
3.43321e-07
7.37842e-05
3.53167e-07
7.37936e-05
3.66888e-07
7.38051e-05
3.85052e-07
7.38207e-05
4.07922e-07
7.38435e-05
4.35111e-07
7.38767e-05
4.64718e-07
7.39231e-05
4.9288e-07
7.39836e-05
5.14577e-07
5.24965e-07
7.40561e-05
7.55016e-05
3.49273e-08
7.55103e-05
1.13067e-07
7.55276e-05
1.84214e-07
7.5548e-05
2.36969e-07
7.55703e-05
2.75337e-07
7.55935e-05
3.03339e-07
7.56165e-05
3.21807e-07
7.56385e-05
3.3279e-07
7.56596e-05
3.38746e-07
7.56798e-05
3.41235e-07
7.56991e-05
3.41242e-07
7.57175e-05
3.39564e-07
7.57351e-05
3.36834e-07
7.5752e-05
3.33516e-07
7.57682e-05
3.29967e-07
7.57836e-05
3.26483e-07
7.57984e-05
3.23321e-07
7.58125e-05
3.2072e-07
7.5826e-05
3.18915e-07
7.58389e-05
3.18154e-07
7.58512e-05
3.18708e-07
7.58632e-05
3.20882e-07
7.58749e-05
3.25019e-07
7.58867e-05
3.31495e-07
7.58992e-05
3.40694e-07
7.59131e-05
3.5295e-07
7.59297e-05
3.68435e-07
7.59507e-05
3.86949e-07
7.59782e-05
4.07656e-07
7.60142e-05
4.28662e-07
7.60601e-05
4.46953e-07
7.61158e-05
4.58933e-07
4.61829e-07
7.61789e-05
7.76603e-05
3.42027e-08
7.76684e-05
1.04934e-07
7.76842e-05
1.68429e-07
7.77035e-05
2.17669e-07
7.77247e-05
2.54112e-07
7.77471e-05
2.81027e-07
7.77694e-05
2.99496e-07
7.77911e-05
3.11079e-07
7.7812e-05
3.17783e-07
7.78322e-05
3.21057e-07
7.78516e-05
3.21852e-07
7.78702e-05
3.20929e-07
7.78882e-05
3.18901e-07
7.79054e-05
3.16237e-07
7.79221e-05
3.13301e-07
7.79382e-05
3.10394e-07
7.79537e-05
3.07776e-07
7.79688e-05
3.05681e-07
7.79834e-05
3.04334e-07
7.79976e-05
3.0396e-07
7.80115e-05
3.04794e-07
7.80253e-05
3.07084e-07
7.80392e-05
3.11085e-07
7.80537e-05
3.17047e-07
7.80692e-05
3.25178e-07
7.80865e-05
3.35583e-07
7.81068e-05
3.4816e-07
7.81313e-05
3.6245e-07
7.81615e-05
3.77475e-07
7.81986e-05
3.9157e-07
7.82431e-05
4.02468e-07
7.82943e-05
4.07665e-07
4.05696e-07
7.83505e-05
7.98799e-05
3.26369e-08
7.98877e-05
9.7137e-08
7.99022e-05
1.53952e-07
7.99203e-05
1.99494e-07
7.99405e-05
2.33902e-07
7.9962e-05
2.59608e-07
7.99837e-05
2.77786e-07
8.00051e-05
2.89688e-07
8.00259e-05
2.96939e-07
8.00461e-05
3.00841e-07
8.00657e-05
3.023e-07
8.00846e-05
3.0203e-07
8.01028e-05
3.00619e-07
8.01206e-05
2.9853e-07
8.01377e-05
2.96125e-07
8.01544e-05
2.93705e-07
8.01707e-05
2.91526e-07
8.01865e-05
2.89813e-07
8.02021e-05
2.88776e-07
8.02174e-05
2.88614e-07
8.02327e-05
2.8952e-07
8.02481e-05
2.91684e-07
8.02639e-05
2.95277e-07
8.02805e-05
3.00437e-07
8.02985e-05
3.07231e-07
8.03185e-05
3.15596e-07
8.03414e-05
3.25265e-07
8.03681e-05
3.35671e-07
8.03997e-05
3.45861e-07
8.04369e-05
3.5447e-07
8.04795e-05
3.59833e-07
8.05269e-05
3.60243e-07
3.55016e-07
8.05776e-05
8.21624e-05
3.06407e-08
8.21699e-05
8.96338e-08
8.21833e-05
1.40579e-07
8.22004e-05
1.82393e-07
8.22197e-05
2.14643e-07
8.22403e-05
2.39027e-07
8.22614e-05
2.56676e-07
8.22824e-05
2.68639e-07
8.23031e-05
2.76232e-07
8.23234e-05
2.80599e-07
8.23431e-05
2.82585e-07
8.23622e-05
2.82858e-07
8.23809e-05
2.81972e-07
8.2399e-05
2.80373e-07
8.24168e-05
2.78418e-07
8.24341e-05
2.76399e-07
8.2451e-05
2.74563e-07
8.24677e-05
2.73125e-07
8.24842e-05
2.72271e-07
8.25007e-05
2.72173e-07
8.25172e-05
2.72983e-07
8.2534e-05
2.74832e-07
8.25515e-05
2.77819e-07
8.257e-05
2.8199e-07
8.25899e-05
2.87305e-07
8.26119e-05
2.93595e-07
8.26366e-05
3.00512e-07
8.26648e-05
3.07472e-07
8.26971e-05
3.13636e-07
8.27336e-05
3.17928e-07
8.27743e-05
3.19151e-07
8.28184e-05
3.16154e-07
3.08711e-07
8.28647e-05
8.451e-05
2.84533e-08
8.45172e-05
8.24195e-08
8.45296e-05
1.28134e-07
8.45457e-05
1.66282e-07
8.45641e-05
1.96269e-07
8.45839e-05
2.19224e-07
8.46044e-05
2.36149e-07
8.46251e-05
2.47946e-07
8.46457e-05
2.55684e-07
8.46659e-05
2.60353e-07
8.46858e-05
2.62727e-07
8.47052e-05
2.63425e-07
8.47242e-05
2.62962e-07
8.47428e-05
2.61764e-07
8.47611e-05
2.60172e-07
8.4779e-05
2.58467e-07
8.47967e-05
2.56883e-07
8.48142e-05
2.55616e-07
8.48316e-05
2.54833e-07
8.48491e-05
2.54674e-07
8.48669e-05
2.5525e-07
8.4885e-05
2.56644e-07
8.4904e-05
2.58891e-07
8.4924e-05
2.61969e-07
8.49455e-05
2.65765e-07
8.49691e-05
2.70055e-07
8.49951e-05
2.74464e-07
8.50241e-05
2.78452e-07
8.50565e-05
2.81318e-07
8.50921e-05
2.82239e-07
8.51309e-05
2.80368e-07
8.51721e-05
2.74941e-07
2.65988e-07
8.52149e-05
8.69244e-05
2.62099e-08
8.69313e-05
7.54948e-08
8.6943e-05
1.16469e-07
8.69582e-05
1.51062e-07
8.69758e-05
1.78711e-07
8.69949e-05
2.00135e-07
8.70148e-05
2.16175e-07
8.70352e-05
2.27606e-07
8.70555e-05
2.35305e-07
8.70758e-05
2.40119e-07
8.70958e-05
2.42745e-07
8.71154e-05
2.43748e-07
8.71348e-05
2.43605e-07
8.71539e-05
2.42712e-07
8.71726e-05
2.41394e-07
8.71912e-05
2.39914e-07
8.72096e-05
2.38491e-07
8.72279e-05
2.37301e-07
8.72462e-05
2.36487e-07
8.72647e-05
2.36161e-07
8.72836e-05
2.36397e-07
8.7303e-05
2.37236e-07
8.73232e-05
2.38665e-07
8.73446e-05
2.40613e-07
8.73674e-05
2.42927e-07
8.73921e-05
2.45359e-07
8.7419e-05
2.4755e-07
8.74485e-05
2.49028e-07
8.74805e-05
2.49228e-07
8.75152e-05
2.47538e-07
8.75522e-05
2.43367e-07
8.7591e-05
2.36214e-07
2.26248e-07
8.76307e-05
8.94078e-05
2.39834e-08
8.94144e-05
6.88564e-08
8.94254e-05
1.05467e-07
8.94398e-05
1.36633e-07
8.94566e-05
1.61894e-07
8.94751e-05
1.81696e-07
8.94945e-05
1.96713e-07
8.95145e-05
2.07604e-07
8.95348e-05
2.15096e-07
8.9555e-05
2.19905e-07
8.95751e-05
2.22648e-07
8.9595e-05
2.23839e-07
8.96147e-05
2.2391e-07
8.96341e-05
2.23229e-07
8.96534e-05
2.22095e-07
8.96726e-05
2.20755e-07
8.96917e-05
2.19406e-07
8.97108e-05
2.18205e-07
8.973e-05
2.17274e-07
8.97495e-05
2.16695e-07
8.97693e-05
2.16514e-07
8.97898e-05
2.16735e-07
8.98112e-05
2.17314e-07
8.98337e-05
2.18149e-07
8.98575e-05
2.19069e-07
8.98831e-05
2.19828e-07
8.99105e-05
2.20102e-07
8.994e-05
2.19497e-07
8.99717e-05
2.17571e-07
9.00053e-05
2.13878e-07
9.00407e-05
2.08011e-07
9.00773e-05
1.99647e-07
1.89029e-07
9.01145e-05
9.1962e-05
2.18092e-08
9.19684e-05
6.24923e-08
9.19788e-05
9.503e-08
9.19926e-05
1.22896e-07
9.20087e-05
1.45743e-07
9.20266e-05
1.63842e-07
9.20456e-05
1.77715e-07
9.20653e-05
1.87916e-07
9.20853e-05
1.95046e-07
9.21055e-05
1.99709e-07
9.21257e-05
2.02443e-07
9.21458e-05
2.03706e-07
9.21659e-05
2.0389e-07
9.21858e-05
2.03326e-07
9.22056e-05
2.02291e-07
9.22253e-05
2.01007e-07
9.22451e-05
1.99654e-07
9.22649e-05
1.98367e-07
9.22849e-05
1.97246e-07
9.23053e-05
1.9635e-07
9.23261e-05
1.957e-07
9.23475e-05
1.95275e-07
9.23698e-05
1.9501e-07
9.23932e-05
1.94787e-07
9.24178e-05
1.94434e-07
9.24439e-05
1.93724e-07
9.24717e-05
1.92376e-07
9.25011e-05
1.90072e-07
9.25322e-05
1.86475e-07
9.25648e-05
1.81263e-07
9.25987e-05
1.74165e-07
9.26333e-05
1.64979e-07
1.53977e-07
9.26684e-05
9.45893e-05
1.97016e-08
9.45954e-05
5.63839e-08
9.46053e-05
8.50763e-08
9.46185e-05
1.09758e-07
9.4634e-05
1.30181e-07
9.46514e-05
1.46508e-07
9.46699e-05
1.59132e-07
9.46893e-05
1.6851e-07
9.47092e-05
1.75138e-07
9.47294e-05
1.79523e-07
9.47498e-05
1.82126e-07
9.47701e-05
1.83352e-07
9.47904e-05
1.83549e-07
9.48108e-05
1.83015e-07
9.4831e-05
1.81996e-07
9.48514e-05
1.80694e-07
9.48717e-05
1.79267e-07
9.48923e-05
1.7783e-07
9.49131e-05
1.76464e-07
9.49342e-05
1.75207e-07
9.49558e-05
1.74062e-07
9.49781e-05
1.72992e-07
9.50012e-05
1.71919e-07
9.50253e-05
1.70721e-07
9.50505e-05
1.69238e-07
9.50769e-05
1.67266e-07
9.51047e-05
1.64573e-07
9.51339e-05
1.60908e-07
9.51644e-05
1.56018e-07
9.51959e-05
1.49679e-07
9.52284e-05
1.41712e-07
9.52614e-05
1.31999e-07
1.20816e-07
9.52945e-05
9.72916e-05
1.76628e-08
9.72974e-05
5.05058e-08
9.7307e-05
7.55352e-08
9.73196e-05
9.71341e-08
9.73346e-05
1.15134e-07
9.73515e-05
1.2963e-07
9.73697e-05
1.40911e-07
9.73889e-05
1.49349e-07
9.74087e-05
1.55349e-07
9.74289e-05
1.59333e-07
9.74493e-05
1.61693e-07
9.74699e-05
1.62779e-07
9.74905e-05
1.62896e-07
9.75112e-05
1.62306e-07
9.7532e-05
1.61229e-07
9.75529e-05
1.59842e-07
9.75738e-05
1.58281e-07
9.7595e-05
1.56644e-07
9.76165e-05
1.54993e-07
9.76384e-05
1.53352e-07
9.76607e-05
1.51709e-07
9.76837e-05
1.50017e-07
9.77074e-05
1.48194e-07
9.7732e-05
1.46124e-07
9.77576e-05
1.43661e-07
9.77842e-05
1.40633e-07
9.78119e-05
1.36849e-07
9.78407e-05
1.32116e-07
9.78705e-05
1.26251e-07
9.79011e-05
1.19099e-07
9.79322e-05
1.1055e-07
9.79637e-05
1.00537e-07
8.93325e-08
9.79952e-05
0.000100071
1.56884e-08
0.000100077
4.48298e-08
0.000100086
6.63442e-08
0.000100098
8.49464e-08
0.000100113
1.00529e-07
0.000100129
1.13143e-07
0.000100147
1.23e-07
0.000100166
1.30392e-07
0.000100186
1.35652e-07
0.000100206
1.39122e-07
0.000100227
1.41133e-07
0.000100247
1.41982e-07
0.000100268
1.41932e-07
0.000100289
1.41211e-07
0.000100311
1.40008e-07
0.000100332
1.38477e-07
0.000100354
1.36735e-07
0.000100375
1.34861e-07
0.000100397
1.32903e-07
0.00010042
1.30871e-07
0.000100443
1.28745e-07
0.000100466
1.26474e-07
0.000100491
1.23978e-07
0.000100516
1.21149e-07
0.000100541
1.1786e-07
0.000100568
1.13968e-07
0.000100596
1.09322e-07
0.000100624
1.03778e-07
0.000100653
9.72025e-08
0.000100683
8.94959e-08
0.000100713
8.0591e-08
0.000100743
7.04615e-08
5.93609e-08
0.000100773
0.00010293
1.37706e-08
0.000102935
3.93249e-08
0.000102944
5.74454e-08
0.000102956
7.31224e-08
0.00010297
8.62928e-08
0.000102987
9.69829e-08
0.000103004
1.05342e-07
0.000103023
1.11597e-07
0.000103043
1.16013e-07
0.000103063
1.18868e-07
0.000103084
1.20433e-07
0.000103105
1.20957e-07
0.000103126
1.20662e-07
0.000103147
1.1974e-07
0.000103169
1.18353e-07
0.000103191
1.16631e-07
0.000103213
1.14671e-07
0.000103235
1.12537e-07
0.000103258
1.10263e-07
0.000103281
1.0785e-07
0.000103304
1.05274e-07
0.000103328
1.02481e-07
0.000103353
9.93974e-08
0.000103378
9.5928e-08
0.000103404
9.19637e-08
0.000103431
8.73891e-08
0.000103458
8.20872e-08
0.000103486
7.59511e-08
0.000103514
6.88897e-08
0.000103543
6.0839e-08
0.000103572
5.17653e-08
0.0001036
4.16643e-08
3.07715e-08
0.000103629
0.000105871
1.19001e-08
0.000105876
3.39602e-08
0.000105885
4.87865e-08
0.000105896
6.15957e-08
0.00010591
7.23591e-08
0.000105926
8.10869e-08
0.000105943
8.78823e-08
0.000105962
9.29167e-08
0.000105982
9.63971e-08
0.000106002
9.85445e-08
0.000106023
9.95765e-08
0.000106044
9.96958e-08
0.000106066
9.90848e-08
0.000106088
9.79028e-08
0.00010611
9.62835e-08
0.000106132
9.43336e-08
0.000106154
9.21311e-08
0.000106177
8.97264e-08
0.0001062
8.71413e-08
0.000106224
8.43717e-08
0.000106248
8.13889e-08
0.000106272
7.81429e-08
0.000106297
7.45656e-08
0.000106322
7.05744e-08
0.000106348
6.60805e-08
0.000106375
6.09898e-08
0.000106401
5.52159e-08
0.000106429
4.8679e-08
0.000106456
4.13214e-08
0.000106484
3.31024e-08
0.000106512
2.4013e-08
0.000106539
1.40606e-08
3.46357e-09
0.000106567
0.000108895
1.00673e-08
0.0001089
2.87043e-08
0.000108909
4.03177e-08
0.00010892
5.03036e-08
0.000108934
5.86611e-08
0.00010895
6.53908e-08
0.000108967
7.05622e-08
0.000108986
7.43006e-08
0.000109005
7.67633e-08
0.000109026
7.81206e-08
0.000109047
7.85418e-08
0.000109068
7.81864e-08
0.00010909
7.71993e-08
0.000109112
7.57073e-08
0.000109135
7.3817e-08
0.000109157
7.16127e-08
0.00010918
6.91553e-08
0.000109204
6.64812e-08
0.000109227
6.36032e-08
0.000109251
6.05119e-08
0.000109275
5.71777e-08
0.0001093
5.35538e-08
0.000109325
4.95793e-08
0.00010935
4.51858e-08
0.000109376
4.02987e-08
0.000109402
3.48468e-08
0.000109429
2.87628e-08
0.000109455
2.19938e-08
0.000109482
1.44999e-08
0.000109509
6.26341e-09
0.000109536
-2.71517e-09
0.000109562
-1.24156e-08
-2.26424e-08
0.000109588
0.000112006
8.26244e-09
0.000112011
2.35282e-08
0.00011202
3.19932e-08
0.000112031
3.91879e-08
0.000112044
4.51345e-08
0.00011206
4.98306e-08
0.000112077
5.33214e-08
0.000112096
5.56953e-08
0.000112116
5.70665e-08
0.000112136
5.75604e-08
0.000112157
5.73027e-08
0.000112179
5.64126e-08
0.000112201
5.49988e-08
0.000112224
5.31573e-08
0.000112247
5.09683e-08
0.00011227
4.8495e-08
0.000112293
4.57809e-08
0.000112317
4.28504e-08
0.000112341
3.97079e-08
0.000112365
3.63401e-08
0.000112389
3.2717e-08
0.000112414
2.87953e-08
0.000112439
2.45232e-08
0.000112465
1.98418e-08
0.00011249
1.46924e-08
0.000112516
9.01886e-09
0.000112542
2.77237e-09
0.000112568
-4.08394e-09
0.000112594
-1.15731e-08
0.00011262
-1.97012e-08
0.000112646
-2.84579e-08
0.000112671
-3.78194e-08
-4.76094e-08
0.000112696
0.000115206
6.47668e-09
0.000115211
1.84041e-08
0.00011522
2.37703e-08
0.000115231
2.81929e-08
0.000115244
3.1716e-08
0.000115259
3.43404e-08
0.000115277
3.60961e-08
0.000115295
3.70421e-08
0.000115315
3.72554e-08
0.000115336
3.68216e-08
0.000115357
3.58266e-08
0.000115379
3.43517e-08
0.000115402
3.24716e-08
0.000115425
3.02519e-08
0.000115448
2.77477e-08
0.000115472
2.50013e-08
0.000115495
2.20401e-08
0.000115519
1.88765e-08
0.000115544
1.55078e-08
0.000115568
1.19164e-08
0.000115593
8.0731e-09
0.000115617
3.93805e-09
0.000115642
-5.33382e-10
0.000115668
-5.39087e-09
0.000115693
-1.06804e-08
0.000115719
-1.6447e-08
0.000115744
-2.27246e-08
0.00011577
-2.95391e-08
0.000115795
-3.69014e-08
0.00011582
-4.48107e-08
0.000115845
-5.32501e-08
0.000115869
-6.21954e-08
-7.14875e-08
0.000115893
0.000118498
4.70204e-09
0.000118503
1.33081e-08
0.000118511
1.56105e-08
0.000118522
1.72662e-08
0.000118535
1.83427e-08
0.000118551
1.88523e-08
0.000118568
1.8818e-08
0.000118587
1.8276e-08
0.000118607
1.72714e-08
0.000118628
1.58541e-08
0.000118649
1.40731e-08
0.000118672
1.19741e-08
0.000118695
9.59876e-09
0.000118718
6.98352e-09
0.000118742
4.15876e-09
0.000118765
1.14623e-09
0.000118789
-2.0421e-09
0.000118814
-5.4053e-09
0.000118838
-8.95427e-09
0.000118863
-1.27086e-08
0.000118888
-1.66992e-08
0.000118913
-2.09605e-08
0.000118938
-2.55345e-08
0.000118963
-3.04592e-08
0.000118988
-3.57762e-08
0.000119013
-4.15162e-08
0.000119038
-4.77076e-08
0.000119063
-5.43637e-08
0.000119087
-6.14919e-08
0.000119111
-6.90829e-08
0.000119135
-7.71212e-08
0.000119159
-8.55785e-08
-9.4317e-08
0.000119181
0.000121883
2.93269e-09
0.000121888
8.22069e-09
0.000121896
7.48076e-09
0.000121907
6.35861e-09
0.000121921
4.95107e-09
0.000121936
3.29377e-09
0.000121954
1.41169e-09
0.000121972
-6.76507e-10
0.000121993
-2.95379e-09
0.000122014
-5.40243e-09
0.000122036
-8.00813e-09
0.000122059
-1.07596e-08
0.000122082
-1.36476e-08
0.000122106
-1.66641e-08
0.00012213
-1.98035e-08
0.000122154
-2.30638e-08
0.000122178
-2.6449e-08
0.000122203
-2.99702e-08
0.000122228
-3.36441e-08
0.000122252
-3.74963e-08
0.000122277
-4.15556e-08
0.000122302
-4.58572e-08
0.000122327
-5.04352e-08
0.000122352
-5.53264e-08
0.000122377
-6.0561e-08
0.000122401
-6.61669e-08
0.000122426
-7.21616e-08
0.00012245
-7.85568e-08
0.000122474
-8.53514e-08
0.000122497
-9.25377e-08
0.00012252
-1.00096e-07
0.000122543
-1.08002e-07
-1.16133e-07
0.000122564
0.000125365
1.16558e-09
0.00012537
3.13113e-09
0.000125378
-6.43339e-10
0.000125389
-4.57521e-09
0.000125403
-8.52412e-09
0.000125419
-1.24137e-08
0.000125436
-1.62073e-08
0.000125455
-1.99006e-08
0.000125476
-2.35009e-08
0.000125498
-2.7021e-08
0.00012552
-3.04798e-08
0.000125543
-3.39008e-08
0.000125567
-3.73068e-08
0.000125591
-4.07184e-08
0.000125615
-4.41546e-08
0.00012564
-4.76338e-08
0.000125665
-5.11763e-08
0.000125689
-5.48036e-08
0.000125714
-5.85418e-08
0.000125739
-6.24193e-08
0.000125764
-6.64675e-08
0.000125789
-7.07196e-08
0.000125814
-7.52084e-08
0.000125838
-7.99651e-08
0.000125863
-8.50166e-08
0.000125887
-9.03846e-08
0.000125911
-9.60837e-08
0.000125935
-1.02121e-07
0.000125958
-1.08494e-07
0.00012598
-1.15192e-07
0.000126002
-1.222e-07
0.000126024
-1.29492e-07
-1.36962e-07
0.000126045
0.000128947
-5.96734e-10
0.000128952
-1.95758e-09
0.00012896
-8.77293e-09
0.000128971
-1.55752e-08
0.000128985
-2.21518e-08
0.000129001
-2.83579e-08
0.000129019
-3.41368e-08
0.000129038
-3.94965e-08
0.000129059
-4.44675e-08
0.000129081
-4.9091e-08
0.000129104
-5.34205e-08
0.000129128
-5.75151e-08
0.000129152
-6.1431e-08
0.000129176
-6.52181e-08
0.000129201
-6.89211e-08
0.000129226
-7.25787e-08
0.000129251
-7.62278e-08
0.000129276
-7.99019e-08
0.000129301
-8.36359e-08
0.000129326
-8.7462e-08
0.000129351
-9.1416e-08
0.000129376
-9.55295e-08
0.000129401
-9.98356e-08
0.000129425
-1.04361e-07
0.000129449
-1.09133e-07
0.000129473
-1.14166e-07
0.000129496
-1.19476e-07
0.000129519
-1.25066e-07
0.000129542
-1.30934e-07
0.000129564
-1.3707e-07
0.000129585
-1.4346e-07
0.000129606
-1.50083e-07
-1.56846e-07
0.000129625
0.000132631
-2.34201e-09
0.000132636
-7.01637e-09
0.000132644
-1.68957e-08
0.000132655
-2.66736e-08
0.000132669
-3.60073e-08
0.000132685
-4.46412e-08
0.000132704
-5.24927e-08
0.000132724
-5.95852e-08
0.000132745
-6.59717e-08
0.000132768
-7.1723e-08
0.000132791
-7.69298e-08
0.000132815
-8.16896e-08
0.00013284
-8.6094e-08
0.000132865
-9.02241e-08
0.00013289
-9.41499e-08
0.000132916
-9.79337e-08
0.000132941
-1.01627e-07
0.000132967
-1.0528e-07
0.000132992
-1.08932e-07
0.000133017
-1.12627e-07
0.000133042
-1.16398e-07
0.000133067
-1.20283e-07
0.000133091
-1.24312e-07
0.000133115
-1.28514e-07
0.000133139
-1.32909e-07
0.000133162
-1.37518e-07
0.000133185
-1.42348e-07
0.000133208
-1.47407e-07
0.000133229
-1.52691e-07
0.000133251
-1.58194e-07
0.000133271
-1.63899e-07
0.000133291
-1.69791e-07
-1.75785e-07
0.00013331
0.00013642
-4.03815e-09
0.000136425
-1.1968e-08
0.000136433
-2.49601e-08
0.000136444
-3.78923e-08
0.000136458
-5.01757e-08
0.000136475
-6.13865e-08
0.000136494
-7.14194e-08
0.000136515
-8.03185e-08
0.000136537
-8.81589e-08
0.00013656
-9.50462e-08
0.000136584
-1.01117e-07
0.000136609
-1.06515e-07
0.000136635
-1.11369e-07
0.00013666
-1.15793e-07
0.000136686
-1.19886e-07
0.000136712
-1.23732e-07
0.000136737
-1.27401e-07
0.000136763
-1.30955e-07
0.000136789
-1.34446e-07
0.000136814
-1.37922e-07
0.000136839
-1.41424e-07
0.000136864
-1.44989e-07
0.000136888
-1.4865e-07
0.000136912
-1.52434e-07
0.000136935
-1.56364e-07
0.000136958
-1.60458e-07
0.000136981
-1.64726e-07
0.000137002
-1.69173e-07
0.000137024
-1.738e-07
0.000137044
-1.78599e-07
0.000137064
-1.83563e-07
0.000137083
-1.88677e-07
-1.93873e-07
0.000137101
0.000140317
-5.61282e-09
0.000140322
-1.66397e-08
0.00014033
-3.28497e-08
0.000140341
-4.9245e-08
0.000140356
-6.47575e-08
0.000140373
-7.87361e-08
0.000140393
-9.10902e-08
0.000140414
-1.01894e-07
0.000140438
-1.11238e-07
0.000140462
-1.19266e-07
0.000140487
-1.26175e-07
0.000140512
-1.32161e-07
0.000140538
-1.374e-07
0.000140565
-1.42043e-07
0.000140591
-1.46221e-07
0.000140617
-1.50041e-07
0.000140644
-1.53597e-07
0.00014067
-1.5696e-07
0.000140695
-1.60197e-07
0.000140721
-1.6336e-07
0.000140746
-1.66497e-07
0.00014077
-1.69647e-07
0.000140795
-1.72847e-07
0.000140818
-1.76121e-07
0.000140841
-1.79497e-07
0.000140864
-1.8299e-07
0.000140886
-1.86613e-07
0.000140907
-1.90372e-07
0.000140928
-1.94268e-07
0.000140947
-1.98296e-07
0.000140966
-2.02449e-07
0.000140984
-2.0671e-07
-2.11021e-07
0.000141001
0.000144326
-6.90729e-09
0.00014433
-2.06628e-08
0.000144337
-4.03303e-08
0.000144349
-6.0752e-08
0.000144364
-7.99163e-08
0.000144382
-9.68922e-08
0.000144403
-1.11694e-07
0.000144425
-1.24461e-07
0.000144449
-1.35312e-07
0.000144475
-1.44458e-07
0.000144501
-1.52166e-07
0.000144527
-1.58693e-07
0.000144554
-1.64256e-07
0.000144581
-1.69049e-07
0.000144608
-1.73234e-07
0.000144635
-1.76947e-07
0.000144662
-1.80298e-07
0.000144688
-1.8338e-07
0.000144714
-1.86267e-07
0.00014474
-1.89022e-07
0.000144765
-1.91696e-07
0.00014479
-1.94336e-07
0.000144814
-1.96976e-07
0.000144837
-1.9965e-07
0.00014486
-2.0238e-07
0.000144882
-2.05187e-07
0.000144904
-2.08083e-07
0.000144925
-2.11078e-07
0.000144945
-2.14174e-07
0.000144964
-2.17372e-07
0.000144982
-2.20668e-07
0.000144999
-2.24062e-07
-2.27502e-07
0.000145016
0.000148449
-7.56115e-09
0.000148451
-2.33104e-08
0.000148458
-4.69707e-08
0.000148469
-7.23336e-08
0.000148485
-9.58102e-08
0.000148505
-1.16272e-07
0.000148527
-1.33863e-07
0.000148551
-1.48718e-07
0.000148577
-1.61022e-07
0.000148604
-1.71137e-07
0.000148631
-1.79465e-07
0.000148659
-1.86344e-07
0.000148686
-1.92055e-07
0.000148714
-1.96835e-07
0.000148742
-2.00881e-07
0.000148769
-2.04356e-07
0.000148796
-2.07386e-07
0.000148823
-2.10078e-07
0.000148849
-2.12514e-07
0.000148875
-2.14766e-07
0.0001489
-2.16889e-07
0.000148925
-2.18933e-07
0.000148949
-2.20935e-07
0.000148972
-2.22929e-07
0.000148995
-2.24941e-07
0.000149016
-2.2699e-07
0.000149037
-2.29092e-07
0.000149058
-2.31257e-07
0.000149077
-2.3349e-07
0.000149095
-2.3579e-07
0.000149113
-2.38151e-07
0.000149129
-2.40561e-07
-2.42979e-07
0.000149145
0.000152688
-6.56079e-09
0.000152688
-2.31398e-08
0.000152694
-5.25413e-08
0.000152705
-8.40568e-08
0.000152721
-1.12003e-07
0.000152741
-1.36086e-07
0.000152764
-1.56801e-07
0.00015279
-1.74077e-07
0.000152817
-1.88075e-07
0.000152845
-1.99309e-07
0.000152874
-2.08317e-07
0.000152903
-2.15534e-07
0.000152932
-2.21319e-07
0.000152961
-2.25976e-07
0.00015299
-2.29753e-07
0.000153019
-2.32846e-07
0.000153047
-2.3541e-07
0.000153074
-2.37566e-07
0.000153101
-2.39413e-07
0.000153127
-2.41029e-07
0.000153153
-2.42476e-07
0.000153178
-2.43807e-07
0.000153202
-2.45063e-07
0.000153225
-2.46278e-07
0.000153248
-2.4748e-07
0.000153269
-2.48689e-07
0.00015329
-2.49924e-07
0.00015331
-2.51195e-07
0.000153329
-2.52512e-07
0.000153347
-2.53881e-07
0.000153364
-2.55307e-07
0.000153381
-2.56799e-07
-2.58325e-07
0.000153396
0.000157046
-1.43183e-09
0.000157039
-1.58548e-08
0.000157043
-5.66078e-08
0.000157058
-9.85309e-08
0.000157078
-1.32502e-07
0.000157102
-1.60279e-07
0.000157129
-1.83326e-07
0.000157157
-2.0192e-07
0.000157185
-2.1664e-07
0.000157214
-2.28291e-07
0.000157243
-2.37514e-07
0.000157273
-2.44783e-07
0.000157302
-2.50489e-07
0.000157331
-2.54966e-07
0.00015736
-2.58475e-07
0.000157388
-2.61224e-07
0.000157416
-2.63374e-07
0.000157443
-2.65056e-07
0.00015747
-2.66372e-07
0.000157497
-2.67406e-07
0.000157522
-2.68222e-07
0.000157547
-2.68878e-07
0.000157572
-2.69414e-07
0.000157595
-2.6987e-07
0.000157618
-2.70273e-07
0.00015764
-2.70647e-07
0.000157661
-2.7101e-07
0.000157681
-2.71375e-07
0.000157701
-2.7175e-07
0.000157719
-2.72139e-07
0.000157736
-2.72536e-07
0.000157752
-2.7293e-07
-2.73294e-07
0.000157767
0.000161526
1.09157e-08
0.000161506
4.24127e-09
0.000161499
-4.92594e-08
0.000161503
-1.0286e-07
0.000161518
-1.4748e-07
0.000161542
-1.84402e-07
0.000161572
-2.13499e-07
0.000161606
-2.35289e-07
0.00016164
-2.51474e-07
0.000161676
-2.63643e-07
0.000161711
-2.72823e-07
0.000161746
-2.7971e-07
0.00016178
-2.84854e-07
0.000161814
-2.88679e-07
0.000161847
-2.91499e-07
0.000161879
-2.93538e-07
0.000161911
-2.94969e-07
0.000161942
-2.95921e-07
0.000161972
-2.96498e-07
0.000162001
-2.96775e-07
0.00016203
-2.96818e-07
0.000162058
-2.96675e-07
0.000162085
-2.9639e-07
0.000162111
-2.95993e-07
0.000162136
-2.95517e-07
0.00016216
-2.94981e-07
0.000162184
-2.94406e-07
0.000162206
-2.93808e-07
0.000162228
-2.93202e-07
0.000162248
-2.92599e-07
0.000162268
-2.92017e-07
0.000162286
-2.91474e-07
-2.90945e-07
0.000162304
0.0001661
6.46026e-08
0.000166097
7.2514e-09
0.000166114
-6.6585e-08
0.00016613
-1.19042e-07
0.000166146
-1.63343e-07
0.000166165
-2.02964e-07
0.000166187
-2.35432e-07
0.000166212
-2.60558e-07
0.00016624
-2.79948e-07
0.000166272
-2.94988e-07
0.000166306
-3.06556e-07
0.000166341
-3.15339e-07
0.000166378
-3.21931e-07
0.000166416
-3.26801e-07
0.000166455
-3.30302e-07
0.000166494
-3.32707e-07
0.000166534
-3.34229e-07
0.000166573
-3.3504e-07
0.000166612
-3.35274e-07
0.00016665
-3.35041e-07
0.000166687
-3.34427e-07
0.000166724
-3.33506e-07
0.00016676
-3.32336e-07
0.000166795
-3.30967e-07
0.000166829
-3.29439e-07
0.000166862
-3.27787e-07
0.000166894
-3.2604e-07