/*--------------------------------*- C++ -*----------------------------------*\
  =========                 |
  \\      /  F ield         | OpenFOAM: The Open Source CFD Toolbox
   \\    /   O peration     | Website:  https://openfoam.org
    \\  /    A nd           | Version:  10
     \\/     M anipulation  |
\*---------------------------------------------------------------------------*/
FoamFile
{
    format      ascii;
    class       volVectorField;
    location    "500";
    object      U;
}
// * * * * * * * * * * * * * * * * * * * * * * * * * * * * * * * * * * * * * //

dimensions      [0 1 -1 0 0 0 0];

internalField   nonuniform List<vector> 
6820
(
(7.31669 -0.387301 0)
(7.31539 -0.335164 0)
(7.2842 -0.20352 0)
(7.22633 -0.111118 0)
(7.16209 -0.0567962 0)
(7.10114 -0.0270388 0)
(7.04548 -0.0113119 0)
(6.99529 -0.00312237 0)
(6.95033 0.00109347 0)
(6.90998 0.00321708 0)
(6.87348 0.00424856 0)
(6.84021 0.00472168 0)
(6.80965 0.00491782 0)
(6.78142 0.00498296 0)
(6.75519 0.004992 0)
(6.73068 0.00498274 0)
(6.70769 0.00497377 0)
(6.68602 0.00497403 0)
(6.66553 0.004988 0)
(6.64606 0.00501876 0)
(6.62748 0.00506979 0)
(6.60966 0.00514638 0)
(6.59245 0.00525735 0)
(6.57571 0.00541656 0)
(6.55925 0.00564615 0)
(6.54281 0.00599662 0)
(6.52608 0.00654157 0)
(6.50865 0.00687904 0)
(6.49052 0.00786827 0)
(6.46068 0.0235225 0)
(6.44449 0.0189903 0)
(6.42024 -0.0370326 0)
(6.37259 0.00277523 0)
(7.33961 0.100779 0)
(7.35427 0.149921 0)
(7.35845 0.123233 0)
(7.35871 0.0898267 0)
(7.35938 0.0660041 0)
(7.35814 0.0500731 0)
(7.35291 0.0394837 0)
(7.34394 0.032516 0)
(7.33237 0.0278656 0)
(7.31918 0.0246408 0)
(7.30501 0.0223067 0)
(7.29032 0.0205487 0)
(7.27544 0.0191725 0)
(7.26059 0.018056 0)
(7.24592 0.0171224 0)
(7.23151 0.0163241 0)
(7.2174 0.0156311 0)
(7.20362 0.0150251 0)
(7.19018 0.0144952 0)
(7.17707 0.0140364 0)
(7.16429 0.0136488 0)
(7.1518 0.0133379 0)
(7.13958 0.0131153 0)
(7.12759 0.0130027 0)
(7.11578 0.0130358 0)
(7.10407 0.0132768 0)
(7.09243 0.0138312 0)
(7.08042 0.0148872 0)
(7.06856 0.0167803 0)
(7.05775 0.0197683 0)
(7.03765 0.0303488 0)
(7.01803 0.0381649 0)
(7.04501 0.0650944 0)
(7.32714 0.00612284 0)
(7.32429 -0.00159929 0)
(7.33132 -0.00620427 0)
(7.33977 -0.000825203 0)
(7.34686 0.00698406 0)
(7.35225 0.0126932 0)
(7.35553 0.0161834 0)
(7.35676 0.0182574 0)
(7.35632 0.0194154 0)
(7.35458 0.0199586 0)
(7.35178 0.0201134 0)
(7.34813 0.0200399 0)
(7.34382 0.0198381 0)
(7.33899 0.0195691 0)
(7.33379 0.0192711 0)
(7.32828 0.0189689 0)
(7.32256 0.0186788 0)
(7.31667 0.0184121 0)
(7.31065 0.0181778 0)
(7.30453 0.0179847 0)
(7.29833 0.0178429 0)
(7.29205 0.0177656 0)
(7.28568 0.0177722 0)
(7.2792 0.0178907 0)
(7.27259 0.0181662 0)
(7.26577 0.0186644 0)
(7.25871 0.0195143 0)
(7.25118 0.0208159 0)
(7.24322 0.0232325 0)
(7.23528 0.0275782 0)
(7.22651 0.032662 0)
(7.2169 0.0416799 0)
(7.21842 0.068163 0)
(7.32977 -0.00401055 0)
(7.3263 0.00244273 0)
(7.33113 0.0106425 0)
(7.33683 0.0167527 0)
(7.34151 0.0202812 0)
(7.34589 0.0217649 0)
(7.34976 0.0222217 0)
(7.3528 0.0223174 0)
(7.35505 0.0222689 0)
(7.3566 0.0221294 0)
(7.35751 0.0219345 0)
(7.35785 0.0217126 0)
(7.35767 0.0214798 0)
(7.35707 0.0212446 0)
(7.35609 0.0210138 0)
(7.35478 0.0207937 0)
(7.3532 0.0205906 0)
(7.35137 0.0204111 0)
(7.34933 0.020263 0)
(7.34709 0.0201558 0)
(7.34467 0.0201025 0)
(7.34207 0.0201205 0)
(7.33929 0.0202345 0)
(7.33632 0.0204802 0)
(7.33314 0.0209116 0)
(7.32971 0.0216072 0)
(7.32603 0.0227024 0)
(7.322 0.0243559 0)
(7.31773 0.0270451 0)
(7.31363 0.0312493 0)
(7.30991 0.0371241 0)
(7.30696 0.0456125 0)
(7.30941 0.0607392 0)
(7.33182 -0.000999367 0)
(7.33001 0.00670363 0)
(7.33263 0.0122752 0)
(7.33617 0.0150265 0)
(7.33952 0.0170131 0)
(7.34309 0.0184724 0)
(7.34661 0.0194163 0)
(7.34972 0.0200386 0)
(7.3524 0.0204569 0)
(7.3547 0.0207151 0)
(7.35665 0.0208527 0)
(7.35825 0.0209081 0)
(7.35953 0.0209092 0)
(7.36052 0.0208747 0)
(7.36124 0.0208196 0)
(7.36172 0.0207564 0)
(7.36197 0.0206965 0)
(7.36201 0.0206506 0)
(7.36186 0.0206302 0)
(7.36153 0.0206483 0)
(7.36101 0.0207208 0)
(7.36032 0.0208688 0)
(7.35946 0.0211204 0)
(7.3584 0.0215149 0)
(7.35716 0.0221088 0)
(7.35572 0.0229824 0)
(7.3541 0.0242603 0)
(7.35229 0.0260996 0)
(7.35046 0.0288297 0)
(7.34897 0.032719 0)
(7.34816 0.0379062 0)
(7.34876 0.0447927 0)
(7.35274 0.0540649 0)
(7.33247 0.000682089 0)
(7.33166 0.00631208 0)
(7.3335 0.0105147 0)
(7.33636 0.0131033 0)
(7.3392 0.0153426 0)
(7.34218 0.0170895 0)
(7.34519 0.0182215 0)
(7.34799 0.0189511 0)
(7.35054 0.0194495 0)
(7.35288 0.0197856 0)
(7.35502 0.0200029 0)
(7.35695 0.0201396 0)
(7.35869 0.0202235 0)
(7.36025 0.0202728 0)
(7.36163 0.0203018 0)
(7.36283 0.0203227 0)
(7.36388 0.0203468 0)
(7.36477 0.0203851 0)
(7.36551 0.0204497 0)
(7.3661 0.0205544 0)
(7.36655 0.0207165 0)
(7.36684 0.020958 0)
(7.367 0.0213083 0)
(7.367 0.0218069 0)
(7.36687 0.0225086 0)
(7.3666 0.0234875 0)
(7.36623 0.0248496 0)
(7.36583 0.0267251 0)
(7.36556 0.0293218 0)
(7.36572 0.0327765 0)
(7.36666 0.0371395 0)
(7.36899 0.0424404 0)
(7.37359 0.048444 0)
(7.33271 0.00110648 0)
(7.33242 0.00547561 0)
(7.334 0.00938788 0)
(7.33655 0.0121277 0)
(7.33912 0.0143191 0)
(7.34174 0.0159809 0)
(7.3444 0.0170921 0)
(7.34693 0.0178391 0)
(7.3493 0.0183722 0)
(7.35152 0.0187537 0)
(7.35362 0.0190217 0)
(7.35559 0.019211 0)
(7.35743 0.0193482 0)
(7.35915 0.0194513 0)
(7.36075 0.0195346 0)
(7.36224 0.0196105 0)
(7.36361 0.0196906 0)
(7.36487 0.0197863 0)
(7.36602 0.0199102 0)
(7.36706 0.0200765 0)
(7.36799 0.020303 0)
(7.36881 0.0206118 0)
(7.36953 0.0210315 0)
(7.37014 0.0215995 0)
(7.37066 0.0223652 0)
(7.37111 0.0233922 0)
(7.37155 0.0247631 0)
(7.37205 0.0265729 0)
(7.37278 0.0289387 0)
(7.37399 0.0319118 0)
(7.37595 0.035461 0)
(7.3791 0.0394594 0)
(7.3838 0.0435115 0)
(7.33286 0.00126979 0)
(7.33288 0.00502324 0)
(7.33428 0.00861948 0)
(7.33654 0.0112518 0)
(7.33891 0.0132852 0)
(7.34131 0.0148605 0)
(7.34376 0.0159797 0)
(7.34612 0.0167624 0)
(7.34835 0.0173303 0)
(7.35047 0.0177454 0)
(7.35249 0.0180466 0)
(7.35441 0.0182679 0)
(7.35624 0.018436 0)
(7.35798 0.0185699 0)
(7.35964 0.0186846 0)
(7.36122 0.0187929 0)
(7.36271 0.0189068 0)
(7.36413 0.0190381 0)
(7.36546 0.0191996 0)
(7.36672 0.0194056 0)
(7.36789 0.0196733 0)
(7.36899 0.020024 0)
(7.37002 0.0204842 0)
(7.37099 0.0210872 0)
(7.37192 0.0218748 0)
(7.37284 0.0228975 0)
(7.37381 0.0242147 0)
(7.37491 0.0258867 0)
(7.37629 0.0279681 0)
(7.37814 0.0304568 0)
(7.38067 0.0332756 0)
(7.38415 0.0362499 0)
(7.38872 0.0390343 0)
(7.33295 0.00133788 0)
(7.33316 0.00466147 0)
(7.3344 0.00787572 0)
(7.3364 0.0103468 0)
(7.33859 0.012269 0)
(7.34083 0.0137892 0)
(7.34312 0.0149134 0)
(7.34535 0.0157205 0)
(7.34749 0.0163124 0)
(7.34953 0.0167514 0)
(7.35148 0.0170763 0)
(7.35335 0.0173197 0)
(7.35515 0.0175083 0)
(7.35688 0.0176618 0)
(7.35854 0.0177956 0)
(7.36014 0.0179233 0)
(7.36167 0.0180573 0)
(7.36315 0.0182097 0)
(7.36457 0.018393 0)
(7.36593 0.0186215 0)
(7.36724 0.0189114 0)
(7.3685 0.0192822 0)
(7.36972 0.0197574 0)
(7.37091 0.0203652 0)
(7.3721 0.0211385 0)
(7.37333 0.0221145 0)
(7.37466 0.0233316 0)
(7.37616 0.0248214 0)
(7.37795 0.0265979 0)
(7.38017 0.0286283 0)
(7.38299 0.0308175 0)
(7.38654 0.0329926 0)
(7.39086 0.034895 0)
(7.333 0.00133186 0)
(7.33331 0.0043096 0)
(7.33443 0.00717718 0)
(7.3362 0.00948844 0)
(7.33822 0.0113132 0)
(7.34032 0.0127703 0)
(7.34246 0.0138786 0)
(7.34459 0.014695 0)
(7.34664 0.0153028 0)
(7.34862 0.0157598 0)
(7.35052 0.0161032 0)
(7.35236 0.0163641 0)
(7.35413 0.0165681 0)
(7.35584 0.0167354 0)
(7.35749 0.016882 0)
(7.35909 0.0170218 0)
(7.36064 0.0171674 0)
(7.36215 0.017331 0)
(7.36361 0.017525 0)
(7.36503 0.017763 0)
(7.36641 0.0180599 0)
(7.36777 0.0184329 0)
(7.36912 0.0189019 0)
(7.37046 0.0194893 0)
(7.37184 0.0202195 0)
(7.37328 0.0211171 0)
(7.37485 0.022203 0)
(7.37661 0.0234876 0)
(7.37865 0.0249604 0)
(7.38108 0.0265733 0)
(7.384 0.028231 0)
(7.38749 0.0297825 0)
(7.39152 0.0310477 0)
(7.33302 0.00127955 0)
(7.33338 0.0039711 0)
(7.3344 0.00653915 0)
(7.33599 0.00868412 0)
(7.33784 0.0104054 0)
(7.3398 0.011791 0)
(7.34182 0.0128694 0)
(7.34384 0.0136835 0)
(7.34581 0.0142989 0)
(7.34773 0.0147671 0)
(7.34959 0.0151236 0)
(7.35139 0.0153972 0)
(7.35314 0.0156126 0)
(7.35483 0.0157898 0)
(7.35648 0.0159448 0)
(7.35808 0.0160916 0)
(7.35964 0.016243 0)
(7.36116 0.016411 0)
(7.36265 0.0166075 0)
(7.36412 0.0168449 0)
(7.36556 0.0171368 0)
(7.36699 0.0174976 0)
(7.36842 0.0179433 0)
(7.36988 0.0184906 0)
(7.37139 0.0191559 0)
(7.37299 0.0199533 0)
(7.37471 0.0208904 0)
(7.37664 0.0219629 0)
(7.37882 0.0231468 0)
(7.38134 0.0243896 0)
(7.38427 0.0256047 0)
(7.38761 0.0266691 0)
(7.39135 0.0274618 0)
(7.33303 0.00120303 0)
(7.33341 0.00364691 0)
(7.33435 0.00595206 0)
(7.33578 0.00792679 0)
(7.33747 0.00953931 0)
(7.3393 0.0108494 0)
(7.3412 0.0118877 0)
(7.34312 0.0126882 0)
(7.34502 0.0133017 0)
(7.34688 0.0137736 0)
(7.34869 0.0141367 0)
(7.35046 0.0144179 0)
(7.35218 0.0146403 0)
(7.35386 0.0148233 0)
(7.3555 0.0149827 0)
(7.3571 0.0151324 0)
(7.35867 0.0152847 0)
(7.36021 0.0154512 0)
(7.36172 0.0156432 0)
(7.36322 0.0158719 0)
(7.36471 0.0161488 0)
(7.3662 0.0164857 0)
(7.36771 0.0168947 0)
(7.36925 0.0173871 0)
(7.37086 0.0179727 0)
(7.37256 0.0186569 0)
(7.3744 0.0194379 0)
(7.37642 0.0203024 0)
(7.37868 0.0212205 0)
(7.38122 0.0221413 0)
(7.38408 0.0229908 0)
(7.38726 0.0236726 0)
(7.39071 0.0241071 0)
(7.33304 0.00111513 0)
(7.33341 0.00333563 0)
(7.33427 0.00540669 0)
(7.33557 0.00721301 0)
(7.33713 0.00871333 0)
(7.33883 0.00994412 0)
(7.34062 0.0109337 0)
(7.34244 0.0117098 0)
(7.34426 0.0123125 0)
(7.34606 0.0127804 0)
(7.34783 0.0131436 0)
(7.34957 0.0134267 0)
(7.35127 0.0136513 0)
(7.35293 0.0138357 0)
(7.35456 0.0139952 0)
(7.35616 0.0141433 0)
(7.35774 0.0142917 0)
(7.35929 0.0144515 0)
(7.36083 0.0146328 0)
(7.36235 0.0148455 0)
(7.36388 0.015099 0)
(7.36542 0.0154026 0)
(7.36699 0.0157645 0)
(7.3686 0.0161917 0)
(7.37028 0.0166881 0)
(7.37205 0.017253 0)
(7.37396 0.0178784 0)
(7.37604 0.0185462 0)
(7.37831 0.0192253 0)
(7.38082 0.0198696 0)
(7.38359 0.0204182 0)
(7.38659 0.0207974 0)
(7.38979 0.0209554 0)
(7.33304 0.00102297 0)
(7.3334 0.00303685 0)
(7.33419 0.00489663 0)
(7.33538 0.00653933 0)
(7.33682 0.00792474 0)
(7.3384 0.00907244 0)
(7.34008 0.010006 0)
(7.34182 0.0107487 0)
(7.34357 0.0113322 0)
(7.34531 0.0117888 0)
(7.34703 0.0121456 0)
(7.34873 0.0124249 0)
(7.3504 0.0126465 0)
(7.35205 0.0128276 0)
(7.35367 0.0129827 0)
(7.35527 0.0131246 0)
(7.35685 0.0132644 0)
(7.35841 0.0134121 0)
(7.35997 0.0135769 0)
(7.36152 0.0137671 0)
(7.36308 0.0139902 0)
(7.36466 0.0142528 0)
(7.36627 0.0145601 0)
(7.36793 0.0149151 0)
(7.36966 0.0153175 0)
(7.37149 0.0157622 0)
(7.37343 0.0162378 0)
(7.37553 0.0167242 0)
(7.37779 0.0171918 0)
(7.38024 0.0176007 0)
(7.38289 0.0179021 0)
(7.38572 0.01804 0)
(7.38868 0.017982 0)
(7.33304 0.000930495 0)
(7.33338 0.00275049 0)
(7.33412 0.0044167 0)
(7.3352 0.00590161 0)
(7.33653 0.00717044 0)
(7.33801 0.00823156 0)
(7.3396 0.00910318 0)
(7.34125 0.00980467 0)
(7.34292 0.0103612 0)
(7.34461 0.0107996 0)
(7.34629 0.0111435 0)
(7.34795 0.0114132 0)
(7.3496 0.0116267 0)
(7.35122 0.0117997 0)
(7.35283 0.0119458 0)
(7.35443 0.0120769 0)
(7.356 0.0122033 0)
(7.35758 0.012334 0)
(7.35914 0.012477 0)
(7.36072 0.012639 0)
(7.3623 0.0128258 0)
(7.36391 0.0130416 0)
(7.36555 0.013289 0)
(7.36725 0.0135679 0)
(7.36901 0.013875 0)
(7.37087 0.0142025 0)
(7.37283 0.0145373 0)
(7.37491 0.0148593 0)
(7.37714 0.015142 0)
(7.37952 0.0153516 0)
(7.38205 0.0154498 0)
(7.38471 0.0153944 0)
(7.38746 0.0151659 0)
(7.33303 0.000839777 0)
(7.33336 0.00247624 0)
(7.33404 0.00396263 0)
(7.33504 0.00529571 0)
(7.33627 0.00644723 0)
(7.33766 0.00741876 0)
(7.33916 0.00822336 0)
(7.34073 0.00887684 0)
(7.34234 0.0093993 0)
(7.34397 0.00981285 0)
(7.3456 0.0101379 0)
(7.34723 0.0103925 0)
(7.34885 0.0105927 0)
(7.35045 0.0107528 0)
(7.35205 0.0108853 0)
(7.35363 0.0110012 0)
(7.35521 0.0111096 0)
(7.35679 0.0112187 0)
(7.35837 0.0113351 0)
(7.35995 0.0114642 0)
(7.36155 0.01161 0)
(7.36318 0.0117748 0)
(7.36485 0.011959 0)
(7.36656 0.0121604 0)
(7.36834 0.0123737 0)
(7.3702 0.0125895 0)
(7.37216 0.0127944 0)
(7.37422 0.0129696 0)
(7.37639 0.0130918 0)
(7.37868 0.0131334 0)
(7.38109 0.0130645 0)
(7.38359 0.0128536 0)
(7.38615 0.0124895 0)
(7.33303 0.000751771 0)
(7.33333 0.00221352 0)
(7.33397 0.00353085 0)
(7.3349 0.00471772 0)
(7.33605 0.00575195 0)
(7.33735 0.00663129 0)
(7.33877 0.00736447 0)
(7.34027 0.00796405 0)
(7.34181 0.00844609 0)
(7.34338 0.00882862 0)
(7.34497 0.00912904 0)
(7.34656 0.00936308 0)
(7.34815 0.00954499 0)
(7.34974 0.00968759 0)
(7.35132 0.00980214 0)
(7.3529 0.00989841 0)
(7.35447 0.00998472 0)
(7.35605 0.010068 0)
(7.35763 0.0101537 0)
(7.35922 0.0102461 0)
(7.36083 0.0103474 0)
(7.36247 0.0104586 0)
(7.36415 0.0105783 0)
(7.36587 0.0107029 0)
(7.36766 0.0108257 0)
(7.36951 0.0109371 0)
(7.37144 0.0110238 0)
(7.37346 0.0110692 0)
(7.37556 0.0110532 0)
(7.37776 0.0109537 0)
(7.38005 0.0107473 0)
(7.3824 0.0104108 0)
(7.38478 0.00993864 0)
(7.33303 0.000666801 0)
(7.33331 0.0019615 0)
(7.33391 0.00311837 0)
(7.33477 0.00416402 0)
(7.33584 0.00508142 0)
(7.33707 0.00586641 0)
(7.33842 0.00652432 0)
(7.33985 0.00706483 0)
(7.34133 0.00750068 0)
(7.34286 0.00784647 0)
(7.3444 0.00811678 0)
(7.34596 0.00832515 0)
(7.34752 0.008484 0)
(7.34908 0.00860463 0)
(7.35065 0.00869701 0)
(7.35221 0.00876978 0)
(7.35378 0.00883017 0)
(7.35535 0.00888405 0)
(7.35693 0.00893583 0)
(7.35853 0.00898842 0)
(7.36014 0.00904308 0)
(7.36179 0.00909935 0)
(7.36346 0.00915476 0)
(7.36518 0.00920468 0)
(7.36695 0.00924202 0)
(7.36878 0.00925717 0)
(7.37068 0.00923786 0)
(7.37264 0.00916942 0)
(7.37468 0.00903521 0)
(7.37678 0.00881745 0)
(7.37895 0.00849826 0)
(7.38115 0.00806023 0)
(7.38338 0.00750171 0)
(7.33303 0.000584836 0)
(7.33329 0.00171917 0)
(7.33385 0.00272255 0)
(7.33466 0.0036313 0)
(7.33567 0.00443254 0)
(7.33683 0.00512139 0)
(7.33811 0.00570065 0)
(7.33947 0.00617751 0)
(7.34091 0.00656198 0)
(7.34238 0.00686575 0)
(7.34388 0.00710083 0)
(7.34541 0.00727868 0)
(7.34694 0.00740998 0)
(7.34848 0.00750445 0)
(7.35003 0.00757079 0)
(7.35158 0.00761645 0)
(7.35314 0.00764763 0)
(7.3547 0.00766914 0)
(7.35628 0.00768438 0)
(7.35787 0.00769525 0)
(7.35948 0.00770204 0)
(7.36112 0.00770334 0)
(7.36279 0.00769594 0)
(7.36449 0.0076747 0)
(7.36624 0.00763246 0)
(7.36804 0.0075601 0)
(7.36989 0.00744658 0)
(7.3718 0.0072793 0)
(7.37375 0.00704454 0)
(7.37576 0.0067282 0)
(7.37781 0.0063166 0)
(7.37988 0.0057968 0)
(7.38196 0.00516955 0)
(7.33303 0.000505661 0)
(7.33328 0.00148544 0)
(7.3338 0.00234104 0)
(7.33456 0.00311651 0)
(7.33551 0.00380232 0)
(7.33661 0.0043935 0)
(7.33783 0.00489111 0)
(7.33914 0.00530026 0)
(7.34052 0.00562866 0)
(7.34195 0.00588555 0)
(7.34342 0.00608067 0)
(7.34491 0.00622352 0)
(7.34642 0.00632304 0)
(7.34794 0.00638751 0)
(7.34946 0.00642429 0)
(7.351 0.00643969 0)
(7.35255 0.00643886 0)
(7.3541 0.00642565 0)
(7.35567 0.00640255 0)
(7.35725 0.0063706 0)
(7.35885 0.00632932 0)
(7.36047 0.00627667 0)
(7.36212 0.00620897 0)
(7.36381 0.00612093 0)
(7.36553 0.00600564 0)
(7.36728 0.00585468 0)
(7.36908 0.00565835 0)
(7.37092 0.00540597 0)
(7.3728 0.00508634 0)
(7.37471 0.00468834 0)
(7.37664 0.00420152 0)
(7.37859 0.0036163 0)
(7.38053 0.00293486 0)
(7.33303 0.000428963 0)
(7.33326 0.00125914 0)
(7.33375 0.00197166 0)
(7.33447 0.00261685 0)
(7.33537 0.00318787 0)
(7.33642 0.00368005 0)
(7.33759 0.00409329 0)
(7.33885 0.00443107 0)
(7.34018 0.00469918 0)
(7.34157 0.00490478 0)
(7.343 0.00505559 0)
(7.34446 0.00515929 0)
(7.34594 0.00522321 0)
(7.34744 0.00525418 0)
(7.34895 0.0052583 0)
(7.35047 0.00524076 0)
(7.352 0.00520569 0)
(7.35354 0.00515605 0)
(7.35509 0.00509354 0)
(7.35666 0.00501847 0)
(7.35824 0.00492981 0)
(7.35985 0.00482508 0)
(7.36148 0.00470041 0)
(7.36313 0.00455058 0)
(7.36481 0.0043691 0)
(7.36652 0.0041484 0)
(7.36826 0.00388006 0)
(7.37003 0.00355513 0)
(7.37183 0.00316453 0)
(7.37364 0.00269951 0)
(7.37547 0.00215213 0)
(7.3773 0.00151524 0)
(7.37912 0.000791899 0)
(7.33302 0.000354395 0)
(7.33325 0.00103913 0)
(7.33371 0.00161242 0)
(7.33439 0.0021297 0)
(7.33525 0.00258638 0)
(7.33625 0.0029783 0)
(7.33737 0.00330471 0)
(7.33859 0.0035678 0)
(7.33988 0.00377179 0)
(7.34124 0.00392209 0)
(7.34263 0.00402464 0)
(7.34406 0.00408544 0)
(7.34552 0.00411032 0)
(7.34699 0.00410474 0)
(7.34848 0.00407355 0)
(7.34998 0.00402088 0)
(7.35149 0.00394991 0)
(7.35302 0.00386277 0)
(7.35455 0.00376046 0)
(7.3561 0.00364274 0)
(7.35767 0.00350813 0)
(7.35925 0.00335392 0)
(7.36085 0.00317621 0)
(7.36246 0.00297 0)
(7.3641 0.00272936 0)
(7.36576 0.00244756 0)
(7.36744 0.00211738 0)
(7.36914 0.00173136 0)
(7.37086 0.00128216 0)
(7.37258 0.000762922 0)
(7.3743 0.000167591 0)
(7.37602 -0.000509153 0)
(7.37772 -0.00126382 0)
(7.33302 0.000281601 0)
(7.33324 0.00082429 0)
(7.33368 0.00126145 0)
(7.33433 0.00165262 0)
(7.33515 0.00199514 0)
(7.33611 0.00228554 0)
(7.33719 0.00252276 0)
(7.33836 0.00270811 0)
(7.33962 0.00284451 0)
(7.34094 0.00293588 0)
(7.3423 0.0029866 0)
(7.34371 0.00300118 0)
(7.34514 0.00298402 0)
(7.34659 0.00293926 0)
(7.34806 0.00287061 0)
(7.34954 0.00278115 0)
(7.35103 0.00267318 0)
(7.35254 0.0025481 0)
(7.35405 0.00240627 0)
(7.35558 0.002247 0)
(7.35712 0.00206852 0)
(7.35867 0.00186801 0)
(7.36024 0.00164164 0)
(7.36182 0.00138476 0)
(7.36341 0.00109198 0)
(7.36502 0.000757415 0)
(7.36663 0.000374887 0)
(7.36826 -6.17686e-05 0)
(7.36989 -0.000558496 0)
(7.37152 -0.00112067 0)
(7.37315 -0.00175293 0)
(7.37476 -0.00245922 0)
(7.37635 -0.00323596 0)
(7.33302 0.000210238 0)
(7.33323 0.000613567 0)
(7.33365 0.00091701 0)
(7.33427 0.00118329 0)
(7.33505 0.00141148 0)
(7.33598 0.00159896 0)
(7.33702 0.00174473 0)
(7.33817 0.00184946 0)
(7.33939 0.00191507 0)
(7.34068 0.00194424 0)
(7.34202 0.00193999 0)
(7.3434 0.00190543 0)
(7.3448 0.00184367 0)
(7.34623 0.0017576 0)
(7.34768 0.00164983 0)
(7.34914 0.00152247 0)
(7.35062 0.00137699 0)
(7.3521 0.00121409 0)
(7.3536 0.00103363 0)
(7.3551 0.00083453 0)
(7.35661 0.000614821 0)
(7.35813 0.000371642 0)
(7.35966 0.000101362 0)
(7.36119 -0.000200345 0)
(7.36274 -0.000538279 0)
(7.36429 -0.000917595 0)
(7.36584 -0.00134353 0)
(7.36739 -0.00182122 0)
(7.36894 -0.00235545 0)
(7.37049 -0.00295048 0)
(7.37202 -0.00360985 0)
(7.37353 -0.00433654 0)
(7.37501 -0.00512699 0)
(7.33302 0.000139998 0)
(7.33322 0.000406006 0)
(7.33362 0.000577499 0)
(7.33422 0.00071951 0)
(7.33498 0.000832743 0)
(7.33587 0.00091569 0)
(7.33689 0.000967669 0)
(7.338 0.000989032 0)
(7.3392 0.000980912 0)
(7.34046 0.000944936 0)
(7.34177 0.000882932 0)
(7.34313 0.000796772 0)
(7.34451 0.000688308 0)
(7.34592 0.000559293 0)
(7.34735 0.000411272 0)
(7.34879 0.000245435 0)
(7.35025 6.24743e-05 0)
(7.35171 -0.00013753 0)
(7.35318 -0.000355205 0)
(7.35465 -0.000591916 0)
(7.35613 -0.000849789 0)
(7.35762 -0.00113164 0)
(7.35911 -0.00144092 0)
(7.3606 -0.00178157 0)
(7.36209 -0.00215789 0)
(7.36358 -0.00257435 0)
(7.36507 -0.00303542 0)
(7.36655 -0.00354535 0)
(7.36803 -0.00410806 0)
(7.36949 -0.00472691 0)
(7.37093 -0.00540465 0)
(7.37235 -0.00614351 0)
(7.37373 -0.00694013 0)
(7.33302 7.06274e-05 0)
(7.33321 0.0002008 0)
(7.3336 0.000241501 0)
(7.33417 0.000259186 0)
(7.33491 0.000256275 0)
(7.33578 0.000232681 0)
(7.33677 0.000188388 0)
(7.33786 0.000123654 0)
(7.33903 3.90239e-05 0)
(7.34027 -6.47438e-05 0)
(7.34157 -0.000186885 0)
(7.3429 -0.000326685 0)
(7.34427 -0.000483455 0)
(7.34566 -0.000656543 0)
(7.34707 -0.000845403 0)
(7.34849 -0.00104972 0)
(7.34992 -0.00126953 0)
(7.35136 -0.00150535 0)
(7.35281 -0.00175821 0)
(7.35425 -0.00202974 0)
(7.3557 -0.00232217 0)
(7.35715 -0.00263827 0)
(7.3586 -0.00298129 0)
(7.36004 -0.00335482 0)
(7.36148 -0.0037627 0)
(7.36292 -0.00420883 0)
(7.36434 -0.00469703 0)
(7.36575 -0.00523087 0)
(7.36715 -0.00581355 0)
(7.36853 -0.00644776 0)
(7.36989 -0.00713568 0)
(7.37121 -0.00787899 0)
(7.3725 -0.00867463 0)
(7.33302 1.9659e-06 0)
(7.3332 -2.61751e-06 0)
(7.33358 -9.21512e-05 0)
(7.33414 -0.000199647 0)
(7.33485 -0.000320667 0)
(7.3357 -0.000453348 0)
(7.33667 -0.000596688 0)
(7.33774 -0.000750323 0)
(7.3389 -0.000914126 0)
(7.34012 -0.00108806 0)
(7.3414 -0.00127233 0)
(7.34272 -0.00146733 0)
(7.34407 -0.00167351 0)
(7.34544 -0.00189128 0)
(7.34684 -0.00212108 0)
(7.34824 -0.00236346 0)
(7.34965 -0.00261915 0)
(7.35107 -0.00288921 0)
(7.35248 -0.00317506 0)
(7.3539 -0.00347857 0)
(7.35532 -0.00380202 0)
(7.35673 -0.00414815 0)
(7.35813 -0.00451998 0)
(7.35953 -0.00492082 0)
(7.36092 -0.00535408 0)
(7.3623 -0.00582319 0)
(7.36366 -0.00633142 0)
(7.365 -0.00688179 0)
(7.36633 -0.00747696 0)
(7.36763 -0.00811912 0)
(7.3689 -0.00880999 0)
(7.37015 -0.00955089 0)
(7.37134 -0.010339 0)
(7.33302 -6.59832e-05 0)
(7.3332 -0.0002044 0)
(7.33356 -0.000424215 0)
(7.3341 -0.000658789 0)
(7.33479 -0.000900952 0)
(7.33563 -0.00114604 0)
(7.33659 -0.00139163 0)
(7.33765 -0.00163714 0)
(7.33879 -0.00188274 0)
(7.34 -0.00212901 0)
(7.34127 -0.00237707 0)
(7.34258 -0.00262834 0)
(7.34392 -0.00288437 0)
(7.34528 -0.0031466 0)
(7.34665 -0.00341644 0)
(7.34804 -0.00369526 0)
(7.34943 -0.00398452 0)
(7.35082 -0.00428582 0)
(7.35222 -0.00460099 0)
(7.3536 -0.00493212 0)
(7.35499 -0.00528162 0)
(7.35636 -0.00565216 0)
(7.35772 -0.00604665 0)
(7.35908 -0.00646811 0)
(7.36041 -0.00691963 0)
(7.36173 -0.00740422 0)
(7.36303 -0.00792476 0)
(7.36431 -0.00848381 0)
(7.36557 -0.00908364 0)
(7.36679 -0.00972605 0)
(7.36799 -0.0104125 0)
(7.36915 -0.0111439 0)
(7.37027 -0.011918 0)
(7.33302 -0.000132918 0)
(7.33319 -0.000403966 0)
(7.33353 -0.000754769 0)
(7.33406 -0.00111979 0)
(7.33474 -0.00148765 0)
(7.33557 -0.00184956 0)
(7.33652 -0.0022013 0)
(7.33757 -0.0025419 0)
(7.33871 -0.00287177 0)
(7.33992 -0.00319216 0)
(7.34118 -0.00350528 0)
(7.34248 -0.00381383 0)
(7.34381 -0.00412051 0)
(7.34516 -0.00442784 0)
(7.34652 -0.00473813 0)
(7.3479 -0.00505354 0)
(7.34927 -0.00537612 0)
(7.35064 -0.00570796 0)
(7.35201 -0.00605119 0)
(7.35337 -0.00640813 0)
(7.35472 -0.00678122 0)
(7.35605 -0.00717309 0)
(7.35738 -0.0075865 0)
(7.35868 -0.00802426 0)
(7.35997 -0.00848918 0)
(7.36124 -0.00898396 0)
(7.36248 -0.00951111 0)
(7.36369 -0.0100729 0)
(7.36488 -0.0106712 0)
(7.36604 -0.0113077 0)
(7.36716 -0.0119834 0)
(7.36825 -0.0126993 0)
(7.36928 -0.013453 0)
(7.33302 -0.000197958 0)
(7.33318 -0.000599377 0)
(7.3335 -0.00108278 0)
(7.33401 -0.00158392 0)
(7.33468 -0.00208408 0)
(7.33551 -0.00256862 0)
(7.33646 -0.00303148 0)
(7.33751 -0.00347137 0)
(7.33865 -0.00388838 0)
(7.33986 -0.00428396 0)
(7.34112 -0.00466121 0)
(7.34242 -0.00502418 0)
(7.34375 -0.00537699 0)
(7.34509 -0.00572353 0)
(7.34645 -0.00606735 0)
(7.3478 -0.00641168 0)
(7.34916 -0.00675945 0)
(7.35051 -0.00711339 0)
(7.35186 -0.0074761 0)
(7.35319 -0.00785018 0)
(7.35451 -0.0082382 0)
(7.35581 -0.0086428 0)
(7.35709 -0.00906662 0)
(7.35836 -0.00951228 0)
(7.3596 -0.00998233 0)
(7.36081 -0.0104792 0)
(7.362 -0.0110051 0)
(7.36315 -0.0115621 0)
(7.36428 -0.0121517 0)
(7.36537 -0.0127754 0)
(7.36642 -0.0134342 0)
(7.36744 -0.0141288 0)
(7.3684 -0.0148575 0)
(7.33302 -0.000259068 0)
(7.33316 -0.00078603 0)
(7.33346 -0.00140519 0)
(7.33395 -0.00205234 0)
(7.33461 -0.00269484 0)
(7.33544 -0.00330893 0)
(7.33639 -0.00388747 0)
(7.33746 -0.00443062 0)
(7.33861 -0.00493975 0)
(7.33983 -0.0054175 0)
(7.34111 -0.00586809 0)
(7.34241 -0.00629639 0)
(7.34374 -0.00670712 0)
(7.34508 -0.0071047 0)
(7.34643 -0.00749328 0)
(7.34778 -0.00787663 0)
(7.34913 -0.00825818 0)
(7.35046 -0.00864108 0)
(7.35178 -0.00902833 0)
(7.35309 -0.00942276 0)
(7.35438 -0.00982718 0)
(7.35565 -0.0102443 0)
(7.35689 -0.0106768 0)
(7.35811 -0.0111272 0)
(7.3593 -0.0115981 0)
(7.36047 -0.0120917 0)
(7.3616 -0.0126103 0)
(7.3627 -0.0131554 0)
(7.36376 -0.0137289 0)
(7.36479 -0.0143318 0)
(7.36578 -0.0149651 0)
(7.36672 -0.0156292 0)
(7.36762 -0.0163226 0)
(7.33301 -0.000311819 0)
(7.33313 -0.0009544 0)
(7.33339 -0.00171496 0)
(7.33384 -0.00252414 0)
(7.33451 -0.00332613 0)
(7.33534 -0.00408409 0)
(7.33632 -0.00478584 0)
(7.3374 -0.00542806 0)
(7.33857 -0.00601174 0)
(7.33981 -0.00654317 0)
(7.34109 -0.00703176 0)
(7.34241 -0.00748687 0)
(7.34374 -0.0079167 0)
(7.34509 -0.00832829 0)
(7.34644 -0.00872769 0)
(7.34778 -0.00911994 0)
(7.34912 -0.00950926 0)
(7.35044 -0.00989917 0)
(7.35174 -0.0102928 0)
(7.35303 -0.0106929 0)
(7.35429 -0.0111021 0)
(7.35553 -0.0115227 0)
(7.35674 -0.0119572 0)
(7.35792 -0.0124077 0)
(7.35907 -0.0128763 0)
(7.36019 -0.0133649 0)
(7.36127 -0.0138753 0)
(7.36232 -0.0144092 0)
(7.36333 -0.0149676 0)
(7.3643 -0.0155519 0)
(7.36523 -0.0161628 0)
(7.36612 -0.0168011 0)
(7.36695 -0.0174657 0)
(7.33301 -0.000345773 0)
(7.33307 -0.00108659 0)
(7.33325 -0.00200464 0)
(7.33366 -0.00299535 0)
(7.33433 -0.00396535 0)
(7.33519 -0.00488443 0)
(7.33621 -0.00575409 0)
(7.33734 -0.00656821 0)
(7.33856 -0.00731748 0)
(7.33984 -0.0080006 0)
(7.34116 -0.00862309 0)
(7.34249 -0.00919268 0)
(7.34384 -0.00971736 0)
(7.34519 -0.0102052 0)
(7.34654 -0.0106637 0)
(7.34787 -0.0111 0)
(7.34919 -0.0115202 0)
(7.35049 -0.0119296 0)
(7.35177 -0.0123329 0)
(7.35303 -0.0127343 0)
(7.35426 -0.0131375 0)
(7.35546 -0.0135459 0)
(7.35663 -0.0139624 0)
(7.35778 -0.0143897 0)
(7.35888 -0.0148304 0)
(7.35995 -0.0152866 0)
(7.36099 -0.0157603 0)
(7.36199 -0.0162531 0)
(7.36294 -0.0167664 0)
(7.36386 -0.0173012 0)
(7.36473 -0.0178584 0)
(7.36555 -0.0184382 0)
(7.36632 -0.0190392 0)
(7.33299 -0.000334736 0)
(7.33293 -0.00113367 0)
(7.33299 -0.00227011 0)
(7.33335 -0.00352373 0)
(7.33402 -0.00466666 0)
(7.33489 -0.00563853 0)
(7.3359 -0.0064705 0)
(7.33704 -0.00719624 0)
(7.33829 -0.00783983 0)
(7.3396 -0.00842233 0)
(7.34095 -0.00896093 0)
(7.34233 -0.0094678 0)
(7.34371 -0.00995156 0)
(7.34509 -0.0104187 0)
(7.34646 -0.0108741 0)
(7.34781 -0.0113214 0)
(7.34914 -0.0117636 0)
(7.35045 -0.012203 0)
(7.35173 -0.0126418 0)
(7.35298 -0.0130818 0)
(7.3542 -0.0135248 0)
(7.35538 -0.0139728 0)
(7.35654 -0.0144274 0)
(7.35765 -0.0148902 0)
(7.35873 -0.015363 0)
(7.35977 -0.0158473 0)
(7.36077 -0.0163445 0)
(7.36173 -0.0168559 0)
(7.36265 -0.0173826 0)
(7.36352 -0.0179258 0)
(7.36436 -0.0184862 0)
(7.36514 -0.0190649 0)
(7.36588 -0.0196614 0)
(7.33295 -0.000234512 0)
(7.33262 -0.000986123 0)
(7.33239 -0.00232779 0)
(7.33273 -0.00401732 0)
(7.33358 -0.00580861 0)
(7.33466 -0.00755068 0)
(7.33584 -0.00913153 0)
(7.33709 -0.0104894 0)
(7.33839 -0.0116232 0)
(7.33972 -0.0125632 0)
(7.34106 -0.0133428 0)
(7.3424 -0.0139922 0)
(7.34374 -0.0145388 0)
(7.34508 -0.0150068 0)
(7.3464 -0.0154164 0)
(7.34771 -0.0157835 0)
(7.349 -0.0161209 0)
(7.35027 -0.0164385 0)
(7.35151 -0.0167444 0)
(7.35273 -0.0170446 0)
(7.35393 -0.0173442 0)
(7.35509 -0.0176472 0)
(7.35622 -0.0179567 0)
(7.35732 -0.0182754 0)
(7.35838 -0.0186055 0)
(7.3594 -0.0189489 0)
(7.36039 -0.019307 0)
(7.36133 -0.019681 0)
(7.36224 -0.0200718 0)
(7.3631 -0.0204802 0)
(7.36392 -0.0209064 0)
(7.36468 -0.0213506 0)
(7.36539 -0.0218115 0)
(7.3329 0.000101415 0)
(7.33207 -0.000941353 0)
(7.33123 -0.00231499 0)
(7.33105 -0.00304135 0)
(7.33151 -0.00336853 0)
(7.33242 -0.00375591 0)
(7.33365 -0.00431497 0)
(7.33509 -0.00498424 0)
(7.33664 -0.0057177 0)
(7.33822 -0.00649683 0)
(7.33981 -0.00730348 0)
(7.34138 -0.00811803 0)
(7.34293 -0.00892578 0)
(7.34445 -0.00971775 0)
(7.34594 -0.0104886 0)
(7.3474 -0.0112355 0)
(7.34883 -0.0119573 0)
(7.35022 -0.0126543 0)
(7.35158 -0.0133275 0)
(7.35291 -0.0139787 0)
(7.3542 -0.0146102 0)
(7.35546 -0.0152242 0)
(7.35668 -0.015823 0)
(7.35786 -0.0164093 0)
(7.35901 -0.0169854 0)
(7.36011 -0.0175535 0)
(7.36118 -0.0181158 0)
(7.3622 -0.0186744 0)
(7.36318 -0.019231 0)
(7.36412 -0.0197874 0)
(7.36502 -0.0203451 0)
(7.36586 -0.0209055 0)
(7.36666 -0.0214689 0)
(7.33241 0.00205769 0)
(7.33046 -0.000621141 0)
(7.33029 -0.0073789 0)
(7.33136 -0.0138533 0)
(7.33232 -0.0185841 0)
(7.33301 -0.0217723 0)
(7.33379 -0.0238351 0)
(7.3348 -0.0250777 0)
(7.33598 -0.0257388 0)
(7.33729 -0.0260086 0)
(7.3387 -0.0260273 0)
(7.34021 -0.025893 0)
(7.3418 -0.0256737 0)
(7.34343 -0.0254154 0)
(7.34511 -0.0251486 0)
(7.34681 -0.0248926 0)
(7.34852 -0.0246598 0)
(7.35022 -0.0244572 0)
(7.35192 -0.0242887 0)
(7.3536 -0.024156 0)
(7.35525 -0.0240595 0)
(7.35687 -0.0239986 0)
(7.35846 -0.0239722 0)
(7.36 -0.023979 0)
(7.3615 -0.0240177 0)
(7.36296 -0.0240869 0)
(7.36436 -0.0241852 0)
(7.36572 -0.0243113 0)
(7.36702 -0.0244641 0)
(7.36826 -0.0246423 0)
(7.36945 -0.0248453 0)
(7.37057 -0.0250722 0)
(7.37162 -0.0253218 0)
(7.32878 0.00627277 0)
(7.31725 0.0179313 0)
(7.3124 0.0251016 0)
(7.31391 0.027118 0)
(7.31772 0.0257754 0)
(7.32186 0.0229312 0)
(7.32603 0.0195431 0)
(7.33021 0.0159686 0)
(7.3343 0.0123903 0)
(7.33826 0.00894637 0)
(7.34208 0.00572113 0)
(7.34577 0.00274613 0)
(7.34932 2.34984e-05 0)
(7.35275 -0.00245657 0)
(7.35606 -0.00470935 0)
(7.35926 -0.00675329 0)
(7.36234 -0.0086081 0)
(7.3653 -0.0102932 0)
(7.36816 -0.0118268 0)
(7.37091 -0.0132258 0)
(7.37356 -0.0145055 0)
(7.3761 -0.0156797 0)
(7.37853 -0.0167608 0)
(7.38087 -0.0177597 0)
(7.38311 -0.0186862 0)
(7.38525 -0.0195491 0)
(7.38729 -0.020356 0)
(7.38924 -0.0211139 0)
(7.3911 -0.0218287 0)
(7.39286 -0.0225056 0)
(7.39454 -0.0231492 0)
(7.39613 -0.0237626 0)
(7.39762 -0.0243494 0)
(7.33379 -0.0333008 0)
(7.33301 -0.0723136 0)
(7.32811 -0.0857083 0)
(7.32656 -0.0871661 0)
(7.33012 -0.0847939 0)
(7.33734 -0.0808439 0)
(7.34629 -0.0760187 0)
(7.35577 -0.070975 0)
(7.36524 -0.0661693 0)
(7.37444 -0.0617741 0)
(7.38323 -0.0578178 0)
(7.3915 -0.0542915 0)
(7.39921 -0.0511736 0)
(7.40637 -0.0484311 0)
(7.41298 -0.0460255 0)
(7.41907 -0.0439186 0)
(7.42468 -0.0420755 0)
(7.42981 -0.0404645 0)
(7.43452 -0.0390577 0)
(7.43882 -0.0378304 0)
(7.44274 -0.0367612 0)
(7.44631 -0.0358315 0)
(7.44956 -0.035025 0)
(7.45249 -0.0343275 0)
(7.45515 -0.033727 0)
(7.45754 -0.0332127 0)
(7.45968 -0.0327753 0)
(7.46159 -0.0324067 0)
(7.46329 -0.0320998 0)
(7.46478 -0.0318484 0)
(7.46608 -0.0316469 0)
(7.46721 -0.031491 0)
(7.46815 -0.0313746 0)
(7.33141 0.164996 0)
(7.34786 0.185184 0)
(7.36034 0.152143 0)
(7.35674 0.118033 0)
(7.34259 0.0897865 0)