/*--------------------------------*- C++ -*----------------------------------*\
  =========                 |
  \\      /  F ield         | OpenFOAM: The Open Source CFD Toolbox
   \\    /   O peration     | Website:  https://openfoam.org
    \\  /    A nd           | Version:  10
     \\/     M anipulation  |
\*---------------------------------------------------------------------------*/
FoamFile
{
    format      ascii;
    class       volScalarField;
    location    "500";
    object      yPlus;
}
// * * * * * * * * * * * * * * * * * * * * * * * * * * * * * * * * * * * * * //

dimensions      [0 0 0 0 0 0 0];

internalField   uniform 0;

boundaryField
{
    outlet
    {
        type            calculated;
        value           uniform 0;
    }
    inlet
    {
        type            calculated;
        value           uniform 0;
    }
    lowerWall
    {
        type            calculated;
        value           nonuniform List<scalar> 
148
(
9.9937
9.87583
9.76655
9.65574
9.54325
9.43224
9.32599
9.22673
9.1358
9.05372
8.98048
8.91585
8.85934
8.81037
8.76832
8.73263
8.70267
8.67792
8.65784
8.64194
8.62977
8.62096
8.61514
8.61196
8.61111
8.6124
8.61549
8.62122
8.62093
8.65073
8.56989
8.98632
8.29591
4.66565
7.12043
8.84177
10.092
10.8644
10.8608
11.2326
11.9066
11.9722
11.8272
11.7413
11.88
12.5452
15.3154
19.2142
4.66565
11.4272
11.6504
11.8776
11.9802
11.9369
11.8505
11.8068
11.9207
12.3121
13.1595
14.8953
17.7215
21.1286
24.6716
28.1411
31.4531
34.5799
37.5197
40.2812
42.8769
45.3203
47.6242
49.801
51.8618
53.8169
55.6758
57.4464
59.1356
60.7487
62.2895
63.7604
65.1628
66.4971
67.7635
68.9627
70.0967
71.1705
72.1902
73.1459
74.0341
74.8566
75.6128
76.3021
76.9242
77.4801
77.9709
78.3992
78.7679
79.0801
79.3391
79.5475
79.7072
79.8188
79.8816
79.8932
79.8497
79.746
79.576
79.3335
79.0121
78.6063
78.1131
77.5326
76.8682
76.1281
75.3302
74.518
73.7976
73.148
72.4892
71.8197
71.1547
70.5111
69.904
69.3457
68.8452
68.4089
68.0405
67.7406
67.5068
67.3331
67.2097
67.1225
67.053
66.9782
66.8721
66.7083
66.4631
66.1193
65.6683
65.1099
64.4524
63.7094
62.8983
62.0383
61.1487
60.2421
59.4098
58.1725
)
;
    }
    upperWall
    {
        type            calculated;
        value           nonuniform List<scalar> 
133
(
30.6045
31.4255
32.2162
32.9719
33.693
34.3806
35.0365
35.6619
36.2577
36.8253
37.3656
37.8797
38.3686
38.8334
39.2749
39.6943
40.0925
40.4704
40.829
41.1691
41.4917
41.7975
42.0873
42.362
42.6224
42.869
43.1027
43.324
43.5336
43.7321
43.9202
44.0981
44.2668
44.4521
44.6548
44.8506
45.0392
45.2206
45.3945
45.5609
45.7195
45.8704
46.0132
46.1481
46.2747
46.3931
46.5031
46.6047
46.6976
46.7818
46.8572
46.9237
46.9812
47.0295
47.0686
47.0983
47.1185
47.1291
47.1299
47.1207
47.1016
47.0721
47.0322
46.9818
46.9205
46.8484
46.765
46.6704
46.5642
46.4462
46.3164
46.1746
46.0204
45.854
45.6751
45.4837
45.2797
45.0633
44.8345
44.5936
44.3406
44.0761
43.8005
43.5143
43.2183
42.9135
42.6007
42.2813
41.9567
41.6283
41.2981
40.9679
40.6398
40.3162
39.9993
39.6917
39.3957
39.1138
38.8482
38.6006
38.3728
38.1659
37.9808
37.8175
37.6757
37.5546
37.4527
37.3682
37.299
37.2425
37.1962
37.1575
37.1237
37.0926
37.0619
37.0298
36.9947
36.9554
36.9109
36.8607
36.8044
36.7419
36.6731
36.5982
36.5174
36.4312
36.3398
36.2437
36.1428
36.0393
35.9262
35.8314
35.6446
)
;
    }
    frontAndBack
    {
        type            empty;
    }
}


// ************************************************************************* //
