/*--------------------------------*- C++ -*----------------------------------*\
  =========                 |
  \\      /  F ield         | OpenFOAM: The Open Source CFD Toolbox
   \\    /   O peration     | Website:  https://openfoam.org
    \\  /    A nd           | Version:  10
     \\/     M anipulation  |
\*---------------------------------------------------------------------------*/
FoamFile
{
    format      ascii;
    class       volScalarField;
    location    "0.2";
    object      k;
}
// * * * * * * * * * * * * * * * * * * * * * * * * * * * * * * * * * * * * * //

dimensions      [0 2 -2 0 0 0 0];

internalField   nonuniform List<scalar> 
6820
(
0.198342
0.194799
0.19119
0.187553
0.183936
0.180367
0.176856
0.173408
0.170025
0.166705
0.163448
0.160249
0.157106
0.154013
0.150966
0.14796
0.144986
0.142036
0.139101
0.136169
0.133222
0.130241
0.1272
0.124064
0.120788
0.117313
0.113557
0.109415
0.10475
0.0993637
0.0930153
0.0855405
0.074962
0.200926
0.200918
0.20051
0.200081
0.199652
0.199214
0.19876
0.198287
0.197794
0.19728
0.196749
0.196202
0.195643
0.195073
0.194497
0.193916
0.193334
0.192752
0.192174
0.191601
0.191036
0.19048
0.189933
0.189393
0.188856
0.18831
0.187735
0.187093
0.186319
0.185309
0.18387
0.181863
0.179266
0.236713
0.0167845
0.00420788
0.0093824
0.00759111
0.00800572
0.0097835
0.0118321
0.0140436
0.0163583
0.0187401
0.0211724
0.0236448
0.0261519
0.0286915
0.0312648
0.0338765
0.0365342
0.0392499
0.0420397
0.0449255
0.0479363
0.0511094
0.0544931
0.0581492
0.0621552
0.0666076
0.071622
0.0773341
0.0838884
0.0914209
0.100039
0.109807
0.21077
0.148007
0.104998
0.0796746
0.0640193
0.053406
0.0455708
0.0394142
0.0343672
0.0301098
0.0264493
0.0232621
0.0204657
0.0180035
0.0158362
0.0139364
0.0122852
0.0108686
0.00967646
0.00870002
0.00793071
0.00736052
0.00698351
0.0067986
0.00681333
0.00704829
0.00754358
0.0083666
0.00963092
0.0115221
0.0142624
0.0182336
0.0236531
0.223536
0.0822405
0.0204968
0.00380679
0.000524232
0.000370492
0.000744762
0.00110166
0.00139117
0.00163561
0.00184985
0.00203839
0.00220099
0.0023362
0.00244268
0.00251966
0.00256697
0.00258466
0.00257296
0.00253232
0.00246328
0.00236615
0.00224057
0.00208532
0.00189841
0.00167738
0.00142147
0.00112436
0.000820747
0.000320896
0.00168045
0.00233397
0.00121649
0.217446
0.113066
0.0511562
0.0277371
0.0189512
0.0147544
0.0118456
0.00924288
0.00676527
0.00455043
0.0028059
0.00160736
0.00087825
0.000474118
0.000263935
0.000158713
0.000102213
6.89553e-05
6.51403e-05
9.94692e-05
0.00016049
0.000226748
0.000284819
0.000333563
0.000376145
0.000412129
0.000435066
0.000433882
0.000391655
0.000310309
5.41416e-05
5.10506e-05
6.14399e-05
0.21323
0.134582
0.0645785
0.0306517
0.016986
0.0115958
0.00935631
0.00839733
0.00802812
0.0078093
0.00763348
0.00748111
0.00733962
0.00720095
0.00706105
0.00691534
0.00675846
0.0065886
0.00640925
0.00622573
0.00603973
0.00584928
0.0056523
0.00544839
0.005238
0.0050212
0.00479704
0.00456432
0.00431809
0.00406036
0.00376077
0.00344575
0.00313739
0.203425
0.18366
0.126949
0.064593
0.0297725
0.0151631
0.00951913
0.00739199
0.00676503
0.00652924
0.00641531
0.00637421
0.00637204
0.00638672
0.00641136
0.00644266
0.00647618
0.00650696
0.00653175
0.00654911
0.00655864
0.00656014
0.00655303
0.00653622
0.00650838
0.00646817
0.00641429
0.00634525
0.00625944
0.00615469
0.00603178
0.00588016
0.00569838
0.201943
0.190795
0.165814
0.118939
0.0699362
0.0374081
0.0204966
0.0130343
0.0106417
0.00956741
0.00885539
0.00839173
0.00808687
0.00786079
0.00768696
0.00755757
0.00746051
0.00738292
0.00731861
0.0072641
0.00721619
0.00717206
0.0071296
0.00708724
0.00704379
0.00699839
0.0069504
0.00689927
0.00684459
0.00678567
0.00672245
0.00665375
0.00657825
0.201259
0.194127
0.181978
0.16003
0.122119
0.0796719
0.0475966
0.0298649
0.0228
0.0188517
0.0160607
0.0141354
0.012821
0.0118676
0.0111536
0.0106216
0.0102228
0.00991687
0.0096785
0.00949035
0.00933852
0.00921149
0.0091001
0.00899711
0.00889676
0.00879458
0.00868713
0.00857201
0.00844788
0.00831431
0.00817183
0.0080218
0.00786625
0.20081
0.196294
0.188858
0.177894
0.159671
0.132745
0.10251
0.0784097
0.0641804
0.0534242
0.0447805
0.0381828
0.0332315
0.0294451
0.0265169
0.024241
0.0224635
0.0210608
0.0199415
0.0190379
0.0182965
0.0176752
0.0171402
0.0166657
0.0162305
0.0158179
0.0154148
0.0150118
0.0146025
0.0141831
0.0137524
0.0133114
0.0128632
0.200539
0.197578
0.192931
0.186855
0.178124
0.165211
0.148408
0.131267
0.116899
0.103593
0.0915948
0.0812562
0.0725405
0.065279
0.0592644
0.0542885
0.0501845
0.0467961
0.0439845
0.0416311
0.0396373
0.0379225
0.0364197
0.0350722
0.0338356
0.0326753
0.0315653
0.0304866
0.0294261
0.0283751
0.0273294
0.0262889
0.0252552
0.200368
0.198381
0.195362
0.191696
0.186982
0.180662
0.172505
0.163039
0.15325
0.143014
0.132621
0.122576
0.11322
0.1048
0.0974221
0.0910919
0.0857226
0.0811834
0.0773332
0.0740383
0.0711887
0.068686
0.066436
0.0643652
0.0624201
0.060562
0.058763
0.0570024
0.0552655
0.0535411
0.0518239
0.0501131
0.048409
0.20026
0.198877
0.196837
0.194531
0.19183
0.188439
0.184061
0.178597
0.172225
0.165168
0.157546
0.149751
0.142116
0.134936
0.128423
0.122672
0.117672
0.113345
0.109583
0.106266
0.103314
0.10067
0.0982659
0.0960435
0.093953
0.0919532
0.0900121
0.0881041
0.0862101
0.0843151
0.0824111
0.0804954
0.0785633
0.200192
0.199187
0.197745
0.19621
0.194542
0.192548
0.18998
0.186628
0.182402
0.177343
0.171545
0.165302
0.158952
0.152822
0.147155
0.142076
0.137598
0.13367
0.130235
0.127225
0.124577
0.122234
0.120141
0.118247
0.116505
0.114874
0.113319
0.111812
0.110328
0.108848
0.107359
0.105852
0.104313
0.200149
0.199378
0.198297
0.197204
0.196086
0.19479
0.193098
0.190794
0.187723
0.183852
0.179283
0.17425
0.169039
0.16392
0.15909
0.154669
0.1507
0.147174
0.144066
0.141338
0.138942
0.136832
0.134963
0.133294
0.131786
0.130407
0.129128
0.127921
0.126766
0.125641
0.124532
0.123427
0.122301
0.200124
0.19949
0.198618
0.197765
0.196923
0.195964
0.194694
0.192902
0.190424
0.187201
0.183309
0.178939
0.174339
0.169744
0.165342
0.161252
0.157536
0.154213
0.151273
0.148691
0.146434
0.144465
0.142744
0.141236
0.139906
0.138723
0.137659
0.136686
0.135783
0.13493
0.134106
0.1333
0.132486
0.20011
0.199548
0.19878
0.198033
0.1973
0.196464
0.19535
0.193768
0.191574
0.188721
0.185279
0.181411
0.177326
0.173224
0.169267
0.165562
0.16217
0.159115
0.156399
0.154004
0.151906
0.150076
0.148481
0.147091
0.145874
0.144802
0.143848
0.142989
0.142204
0.141468
0.140756
0.140063
0.139379
0.200106
0.199566
0.198825
0.198088
0.197348
0.196497
0.195381
0.193836
0.191743
0.189068
0.185875
0.182305
0.178538
0.174751
0.171086
0.167644
0.164486
0.161638
0.159106
0.156878
0.154934
0.153246
0.151786
0.150525
0.149434
0.148485
0.147653
0.146915
0.146243
0.145597
0.144948
0.14431
0.14372
0.200108
0.199552
0.198774
0.197973
0.197141
0.196179
0.194956
0.193336
0.191229
0.188622
0.185583
0.182241
0.178751
0.175263
0.171897
0.16874
0.165843
0.163229
0.160905
0.15886
0.157076
0.155532
0.154199
0.153053
0.152067
0.151214
0.150472
0.149811
0.149184
0.148555
0.147909
0.147272
0.146728
0.200117
0.199508
0.198637
0.197709
0.196716
0.195572
0.194165
0.192391
0.190191
0.187569
0.184597
0.181392
0.178087
0.174808
0.171659
0.168709
0.166005
0.163568
0.161402
0.1595
0.157847
0.15642
0.155198
0.154153
0.153263
0.1525
0.151824
0.151194
0.150574
0.149945
0.149299
0.148663
0.148135
0.200133
0.199432
0.198414
0.197298
0.196082
0.194693
0.193044
0.191061
0.188713
0.186022
0.183065
0.179946
0.176781
0.173673
0.170707
0.167941
0.165412
0.163135
0.161115
0.159344
0.157808
0.156487
0.155359
0.154402
0.153585
0.152862
0.152192
0.151544
0.150901
0.150249
0.149582
0.14893
0.148389
0.200158
0.19932
0.198091
0.196722
0.195223
0.193534
0.191596
0.189364
0.186831
0.184034
0.181047
0.177964
0.174883
0.171889
0.16905
0.166413
0.164008
0.161848
0.159935
0.158261
0.156813
0.155573
0.154519
0.15362
0.152827
0.152097
0.151405
0.150732
0.150065
0.149393
0.148714
0.148054
0.147508
0.200192
0.199162
0.197646
0.195949
0.194098
0.192053
0.189782
0.187266
0.184519
0.181585
0.178535
0.175452
0.172414
0.169492
0.166738
0.164191
0.161874
0.159796
0.157957
0.156351
0.154964
0.153775
0.152748
0.151839
0.151009
0.150236
0.1495
0.148787
0.148085
0.147385
0.146684
0.146011
0.14545
0.20024
0.198944
0.197043
0.194928
0.192652
0.190201
0.187566
0.184749
0.181775
0.178688
0.175552
0.172435
0.169401
0.166505
0.16379
0.161285
0.159008
0.156968
0.155163
0.153588
0.152222
0.151033
0.14998
0.149029
0.148159
0.147349
0.146581
0.145842
0.14512
0.144405
0.143697
0.143023
0.142459
0.200307
0.198641
0.196221
0.193567
0.190773
0.187845
0.184798
0.181645
0.178414
0.175143
0.171882
0.168685
0.165599
0.162668
0.159927
0.157399
0.155101
0.153039
0.151216
0.149611
0.148189
0.146923
0.145788
0.144765
0.143832
0.14297
0.14216
0.141388
0.14064
0.139909
0.139192
0.138512
0.137939
0.2004
0.198217
0.195101
0.191768
0.188365
0.184919
0.181448
0.177961
0.17447
0.170999
0.16758
0.164253
0.161058
0.15803
0.155201
0.152594
0.150222
0.14809
0.146193
0.144502
0.142992
0.141645
0.140444
0.139367
0.138394
0.137503
0.136674
0.135891
0.135139
0.13441
0.133698
0.133026
0.132452
0.200536
0.197603
0.193517
0.189284
0.185113
0.181034
0.177053
0.173156
0.169331
0.165579
0.161917
0.158371
0.154972
0.151751
0.148738
0.145957
0.143408
0.141082
0.138978
0.13709
0.135407
0.133917
0.132601
0.131436
0.130398
0.129463
0.128609
0.127816
0.127067
0.126348
0.125654
0.125
0.124433
0.200736
0.196699
0.191292
0.185949
0.18092
0.176186
0.171691
0.167371
0.163176
0.159084
0.155098
0.151239
0.147537
0.14402
0.140721
0.137663
0.134846
0.13227
0.12994
0.127857
0.126013
0.124392
0.122974
0.121735
0.120649
0.119688
0.118826
0.118041
0.117311
0.116622
0.115961
0.115341
0.114795
0.201054
0.195274
0.187907
0.181001
0.174809
0.1692
0.164014
0.15911
0.154389
0.149801
0.145335
0.141012
0.136845
0.132852
0.129069
0.125533
0.122267
0.119291
0.116614
0.114237
0.112151
0.11034
0.10878
0.107444
0.106301
0.10532
0.10447
0.103723
0.103052
0.102437
0.101861
0.101324
0.100847
0.20157
0.192977
0.182929
0.174185
0.166743
0.160198
0.154203
0.148503
0.142968
0.137551
0.132264
0.127149
0.122236
0.117564
0.113177
0.109108
0.105382
0.102009
0.0989966
0.0963394
0.0940258
0.0920361
0.0903444
0.0889202
0.0877302
0.0867397
0.0859143
0.0852212
0.0846302
0.0841149
0.0836528
0.0832364
0.0828711
0.202514
0.188798
0.174352
0.162844
0.153683
0.145921
0.138832
0.131985
0.125228
0.118569
0.112092
0.105906
0.100099
0.0947291
0.0898261
0.0853955
0.0814306
0.0779179
0.0748395
0.072173
0.0698921
0.0679663
0.0663618
0.0650427
0.0639724
0.0631139
0.0624317
0.0618922
0.0614644
0.0611207
0.0608371
0.0605993
0.0604
0.204637
0.179633
0.15714
0.140746
0.128182
0.117693
0.108318
0.0995899
0.0912944
0.0833783
0.0759128
0.0690407
0.0629047
0.0575881
0.0530908
0.0493424
0.0462352
0.043657
0.0415116
0.0397246
0.038241
0.037019
0.0360244
0.0352271
0.0345997
0.0341165
0.0337539
0.03349
0.0333051
0.0331813
0.0331025
0.0330569
0.0330345
0.209887
0.156047
0.118742
0.0964693
0.0816617
0.0706094
0.0617205
0.0542377
0.0477481
0.0420225
0.0369554
0.0325209
0.0287225
0.02555
0.0229584
0.0208715
0.0191986
0.0178536
0.0167656
0.0158818
0.015165
0.0145886
0.0141323
0.0137792
0.0135149
0.0133263
0.0132017
0.0131305
0.0131032
0.013111
0.0131459
0.0132005
0.0132684
0.217479
0.117976
0.0730825
0.053319
0.0427031
0.0356222
0.0301782
0.0257343
0.0220813
0.0191198
0.0167473
0.0148385
0.0132657
0.0119235
0.0107421
0.00968637
0.00874533
0.00791947
0.00721084
0.00661782
0.00613385
0.00574861
0.00544998
0.00522569
0.00506442
0.00495623
0.00489257
0.00486609
0.00487036
0.00489961
0.00494858
0.0050124
0.00508675
0.220016
0.101032
0.0570962
0.0410254
0.0334891
0.0286743
0.0248883
0.0216637
0.0188871
0.0165219
0.0145262
0.0128413
0.0114034
0.0101576
0.00906393
0.00809703
0.00724132
0.00648602
0.00582169
0.00523878
0.00472746
0.00427817
0.00388212
0.00353168
0.00322036
0.00294272
0.00269425
0.00247109
0.00227
0.00208815
0.00192315
0.00177263
0.00163779
0.212872
0.136809
0.0925289
0.0685239
0.0546097
0.0457733
0.039699
0.0352759
0.0319122
0.0292669
0.027136
0.0253856
0.0239245
0.0226865
0.0216209
0.0206891
0.0198628
0.0191213
0.0184495
0.0178366
0.0172741
0.0167555
0.0162756
0.0158304
0.0154166
0.0150317
0.0146731
0.0143387
0.0140266
0.0137353
0.0134625
0.0132109
0.012964
0.240254
0.000451661
0.0370194
4.70495e-05
0.0104215
0.00138054
0.029369
0.00324226
0.00191585
0.00031219
0.00225006
0.00227699
0.000807689
0.0002709
0.000338839
0.000361786
0.0003645
0.000395673
0.00044151
0.000494019
0.000545522
0.000584272
0.000604889
0.000613602
0.000622827
0.000642012
0.000672959
0.000711756
0.000753694
0.00079733
0.000845018
0.000897519
0.000954376
0.200085
0.199938
0.199737
0.199537
0.199345
0.199159
0.198976
0.198796
0.198617
0.198438
0.19826
0.198082
0.197903
0.197724
0.197544
0.197363
0.197181
0.196999
0.196818
0.196638
0.19646
0.196285
0.196111
0.195942
0.195776
0.195616
0.195462
0.195314
0.195173
0.195037
0.194902
0.194774
0.194637
0.199874
0.199569
0.199243
0.198907
0.198568
0.198232
0.197901
0.197575
0.197256
0.196944
0.196638
0.19634
0.19605
0.195766
0.195489
0.19522
0.194957
0.1947
0.19445
0.194205
0.193966
0.193731
0.193501
0.193275
0.193052
0.192833
0.192615
0.1924
0.192186
0.191973
0.19176
0.191548
0.191335
0.0698703
0.0758092
0.0931928
0.114944
0.136496
0.16329
0.193383
0.208668
0.199211
0.180297
0.158186
0.129986
0.101557
0.080862
0.0813252
0.090476
0.0909622
0.0876443
0.0865323
0.0873234
0.0886536
0.0902118
0.0919125
0.0937333
0.0954171
0.0966086
0.0969436
0.096141
0.0944572
0.0937406
0.0941773
0.0894682
0.0720543
0.0444667
0.0197119
0.010548
0.0196868
0.0401173
0.062349
0.0797665
0.0898996
0.0933544
0.0921305
0.0882432
0.082988
0.0768311
0.0697578
0.0618504
0.0537783
0.0469299
0.0430529
0.0435663
0.0489205
0.0583191
0.0698219
0.0806693
0.0878835
0.0894678
0.0861285
0.0822214
0.0836931
0.0927063
0.104049
0.107737
0.0979502
0.0789911
0.0612884
0.0503555
0.045592
0.0589241
0.100232
0.139028
0.146787
0.138507
0.141078
0.17551
0.248423
0.335217
0.40684
0.447098
0.446412
0.408399
0.350459
0.290852
0.240896
0.205939
0.186044
0.176283
0.168295
0.154612
0.135233
0.1185
0.112886
0.117989
0.126101
0.13014
0.132541
0.140754
0.153301
0.131773
0.17057
0.157663
0.142073
0.12785
0.124977
0.139678
0.162661
0.172539
0.168863
0.159431
0.137722
0.106013
0.076171
0.0559452
0.0511536
0.0661686
0.0831581
0.0893062
0.0887436
0.087632
0.0877346
0.088944
0.0906195
0.0923219
0.0937999
0.0946576
0.0945296
0.0935541
0.0927993
0.0935346
0.0926099
0.0822444
0.0592742
0.0315082
0.0123495
0.0105505
0.0246876
0.0466253
0.0679143
0.0833396
0.0914104
0.0932214
0.0908962
0.0863712
0.0807993
0.0745259
0.0674628
0.0596504
0.0517431
0.0451269
0.0415596
0.0424736
0.0483212
0.0583021
0.0705034
0.0822325
0.0904949
0.0929809
0.0897515
0.0845802
0.0836726
0.0906506
0.101885
0.107554
0.100102
0.0820452
0.0637748
0.0522816
0.0468692
0.0565682
0.0935136
0.133698
0.146357
0.140145
0.142215
0.175537
0.246334
0.331897
0.404011
0.443575
0.44093
0.400223
0.340731
0.280928
0.231559
0.197963
0.180442
0.173723
0.168285
0.155929
0.136712
0.119535
0.113546
0.118497
0.126605
0.130942
0.13332
0.14045
0.151905
0.131378
0.122285
0.135493
0.144932
0.147163
0.142755
0.139919
0.144004
0.147933
0.148768
0.135981
0.106749
0.0728013
0.045659
0.0295566
0.0233743
0.0328928
0.0564489
0.0779187
0.0880298
0.0898419
0.0890185
0.0885466
0.0891772
0.0903269
0.0913715
0.0918332
0.0917587
0.0916606
0.0925155
0.0930198
0.0873042
0.0698754
0.0435738
0.0191394
0.00765684
0.0131416
0.0311758
0.053633
0.0733968
0.0865587
0.0924926
0.0926978
0.089352
0.0842621
0.0784178
0.0720468
0.0650015
0.0573002
0.0495869
0.0432481
0.0400435
0.0414056
0.0477756
0.0583355
0.0711872
0.0837162
0.092981
0.0964642
0.093616
0.0875023
0.0843268
0.0889751
0.0995686
0.106927
0.102043
0.0853168
0.0666193
0.0544012
0.0484201
0.0548144
0.0868476
0.127469
0.145071
0.141481
0.142996
0.174282
0.242028
0.325549
0.396808
0.434792
0.429441
0.386745
0.327244
0.268635
0.220903
0.189531
0.175008
0.171436
0.168259
0.156956
0.137818
0.120243
0.113941
0.118804
0.126927
0.131572
0.134041
0.140288
0.150836
0.131316
0.0331221
0.0484476
0.0687277
0.0911823
0.109979
0.121531
0.12686
0.128562
0.118795
0.0937863
0.0623299
0.0354351
0.0178211
0.00905435
0.005523
0.00777096
0.0233323
0.0491337
0.0723514
0.0855593
0.0901443
0.0905606
0.0900396
0.0899234
0.0900708
0.0903403
0.0908438
0.0918353
0.0924368
0.0886401
0.0752717
0.0522905
0.0269546
0.00944027
0.00664765
0.018406
0.0389346
0.0609225
0.0786203
0.0892906
0.0930648
0.0917498
0.0874927
0.0819199
0.0758459
0.0693936
0.062375
0.0548016
0.0473176
0.0413046
0.0385162
0.0403717
0.0472886
0.0584202
0.0718718
0.0851106
0.0953029
0.0998373
0.0976277
0.0909319
0.0856708
0.0877598
0.0971819
0.105846
0.103674
0.0887355
0.0698435
0.0567458
0.0502263
0.0537492
0.0804715
0.120376
0.14274
0.142509
0.143511
0.1719
0.235543
0.315811
0.384698
0.420008
0.411916
0.368544
0.310655
0.254434
0.209248
0.180953
0.170018
0.169568
0.168274
0.157712
0.138568
0.120648
0.114097
0.118928
0.127087
0.132045
0.134704
0.140246
0.149973
0.131293
0.00137023
0.00414115
0.0106458
0.0228316
0.0397357
0.0561011
0.0662742
0.0660748
0.0544332
0.0363405
0.0193423
0.00812287
0.00257998
0.000645104
0.000122337
0.000692725
0.00418456
0.0184664
0.0418132
0.0645308
0.0799934
0.0878113
0.0907215
0.0914239
0.0914015
0.0914928
0.091753
0.0912047
0.0870326
0.0754703
0.0556638
0.032152
0.0127255
0.00431946
0.00959035
0.0259229
0.0475468
0.0682087
0.08339
0.0914153
0.093076
0.0903725
0.0853291
0.0793519
0.0730829
0.0665606
0.0595775
0.0521522
0.0449352
0.039302
0.0369866
0.0393819
0.046869
0.0585635
0.072564
0.086416
0.0974325
0.103017
0.101663
0.0947779
0.0877171
0.087109
0.0948272
0.104308
0.10488
0.0922051
0.07346
0.0593634
0.0522648
0.0534253
0.074665
0.112534
0.139134
0.143051
0.143845
0.168599
0.227007
0.302539
0.367491
0.3992
0.388816
0.346315
0.291549
0.238713
0.196937
0.172616
0.165763
0.168218
0.168313
0.15814
0.138913
0.120733
0.114017
0.11888
0.127107
0.132386
0.135312
0.140304
0.149223
0.131156
0.000273489
0.00062737
0.000164018
0.000740397
0.003492
0.00839085
0.0125723
0.012063
0.00818879
0.00323439
0.0004975
0.000462277
0.00118951
0.00165794
0.00182459
0.00094145
0.000817513
0.00312645
0.0142561
0.0330978
0.0531069
0.0690264
0.0792999
0.0848996
0.0875614
0.0879672
0.0860735
0.0805728
0.0694928
0.0524102
0.0322568
0.0143516
0.00399497
0.00455048
0.0160105
0.0351205
0.0566258
0.075211
0.0874985
0.0928161
0.0924909
0.088573
0.0828749
0.0765626
0.0701248
0.0635417
0.056606
0.0493543
0.0424474
0.0372507
0.0354685
0.0384496
0.0465273
0.0587723
0.0732699
0.0876369
0.0993559
0.105941
0.1056
0.09892
0.0904459
0.0871311
0.0926409
0.102334
0.105536
0.0955917
0.0774621
0.0623184
0.0545125
0.0538492
0.0697299
0.104185
0.134055
0.142801
0.144053
0.164674
0.216696
0.285917
0.345446
0.372926
0.361041
0.321027
0.270609
0.221918
0.184424
0.165007
0.162519
0.167442
0.168324
0.158172
0.138811
0.120483
0.113704
0.118662
0.126998
0.132612
0.135868
0.140442
0.148551
0.130856
0.0027446
0.00225863
0.00169405
0.000536838
0.000100086
0.000806952
0.000884882
0.000903717
0.000720704
0.000761991
0.00139215
0.00228853
0.00307411
0.00354624
0.00366624
0.00328224
0.00222352
0.000440809
0.00142347
0.00880236
0.0220257
0.0372421
0.0506341
0.0602407
0.065664
0.0666389
0.0629158
0.0542569
0.0412397
0.0261223
0.0123861
0.00346165
0.00205469
0.00952023
0.0250696
0.0454583
0.0657855
0.0816075
0.0907306
0.0934064
0.0913087
0.0863762
0.0801457
0.0735525
0.0669646
0.060331
0.0534599
0.0464141
0.039866
0.0351664
0.0339777
0.03759
0.0462752
0.0590539
0.0739952
0.08878
0.10107
0.108561
0.109328
0.103219
0.0937992
0.087921
0.0907934
0.0999965
0.105529
0.0987185
0.0817996
0.0657073
0.0569849
0.0549745
0.065949
0.0957246
0.127413
0.141344
0.144081
0.160499
0.205104
0.266503
0.319328
0.342307
0.330029
0.293934
0.248578
0.204574
0.172315
0.158682
0.160502
0.167214
0.168202
0.157718
0.138212
0.119884
0.113157
0.118272
0.126764
0.132735
0.136372
0.140637
0.147929
0.130367
0.00544321
0.0050868
0.00466793
0.00408851
0.0034763
0.00294744
0.00256909
0.00258324
0.0029224
0.00349319
0.00414314
0.00470801
0.00509428
0.00529607
0.00528887
0.00513384
0.00464688
0.00322093
0.0011138
0.000561473
0.00375215
0.0106422
0.0191702
0.026798
0.0315537
0.0325381
0.029486
0.0230735
0.014925
0.0071751
0.00184767
0.000816328
0.00588163
0.0179957
0.0360616
0.0564622
0.0745694
0.0870325
0.0929016
0.0931552
0.0895634
0.083815
0.0771521
0.0703163
0.0635937
0.056925
0.0501438
0.0433433
0.0372086
0.0330703
0.0325362
0.0368216
0.0461254
0.059415
0.0747441
0.0898531
0.10258
0.110854
0.112751
0.107526
0.0976755
0.0895381
0.0894751
0.0974302
0.104776
0.101369
0.0863645
0.0696051
0.0597269
0.0567019
0.0635331
0.0876919
0.119309
0.13822
0.143679
0.156433
0.192965
0.245275
0.29044
0.309092
0.297711
0.266368
0.226152
0.187317
0.161396
0.154177
0.159805
0.167391
0.167773
0.156667
0.137068
0.118921
0.112377
0.117708
0.126407
0.13276
0.136821
0.140861
0.14732
0.129666
0.00648008
0.00634606
0.00617922
0.0059886
0.00575483
0.00549957
0.00531462
0.00528375
0.0053814
0.0055366
0.005695
0.00582336
0.00590626
0.0059362
0.00590424
0.00584096
0.00576293
0.00542989
0.00430142
0.00244862
0.000976741
0.00104256
0.00278113
0.00516812
0.00693941
0.00736242
0.00631404
0.00429218
0.00206461
0.000422223
0.000553306
0.0043363
0.0137177
0.0291723
0.0484921
0.0675307
0.0823924
0.0911333
0.0939138
0.092101
0.0873143
0.0809188
0.0738949
0.066844
0.0600052
0.053325
0.046668
0.0401604
0.0344996
0.0309897
0.0311708
0.0361673
0.0460935
0.0598633
0.0755208
0.0908644
0.1039
0.112813
0.115799
0.111695
0.101936
0.0919913
0.0888749
0.0948344
0.103261
0.103307
0.0909707
0.0740582
0.0628099
0.0588965
0.0625621
0.080721
0.110132
0.133033
0.142348
0.152717
0.181165
0.223619
0.260626
0.275585
0.266181
0.239418
0.20395
0.170968
0.152605
0.151877
0.160304
0.167662
0.166783
0.154887
0.13533
0.117587
0.111366
0.116966
0.12592
0.132686
0.137206
0.14108
0.146677
0.128728
0.00768233
0.00746932
0.00725652
0.00705432
0.00686905
0.0067082
0.00658433
0.00650604
0.00649267
0.00654384
0.00664619
0.00676636
0.00685185
0.00684081
0.00670822
0.006498
0.00628952
0.00615378
0.00592828
0.00525492
0.00405017
0.0027009
0.0017022
0.00119722
0.00103663
0.00101168
0.00106535
0.0011269
0.00115199
0.00169554
0.00446015
0.0117804
0.0249444
0.0427232
0.0616333
0.0777719
0.0886346
0.0936886
0.0937979
0.0903389
0.0846223
0.0777023
0.0703654
0.0631251
0.0561968
0.0495395
0.0430509
0.0368918
0.0317714
0.0289597
0.0299148
0.0356539
0.0461973
0.0604072
0.0763282
0.0918199
0.105043
0.114446
0.118429
0.115592
0.106413
0.0952308
0.0891555
0.0924632
0.101054
0.10431
0.0953448
0.0790424
0.0663534
0.0614328
0.0629406
0.0754269
0.100618
0.125635
0.139376
0.14921
0.170491
0.203122
0.232071
0.244186
0.237041
0.213723
0.18265
0.156651
0.146864
0.151863
0.161561
0.167529
0.164911
0.152235
0.132957
0.115878
0.110126
0.116037
0.125297
0.132509
0.137512
0.141251
0.145944
0.127521
0.0123387
0.0117371
0.0111439
0.0105856
0.0100926
0.00969507
0.00941749
0.00927488
0.00928951
0.00945047
0.00971092
0.00998087
0.0101399
0.0100683
0.00971393
0.00911807
0.00838551
0.00767552
0.00712257
0.00669558
0.0062185
0.00558222
0.00485912
0.00428111
0.00392782
0.0037841
0.00370976
0.003536
0.00365927
0.00562389
0.0116927
0.023295
0.0396364
0.0577869
0.0741655
0.0861709
0.0928758
0.0947024
0.092697
0.087979
0.081527
0.0741621
0.0665502
0.0591535
0.0521744
0.045586
0.0393202
0.0335746
0.0290672
0.0270246
0.028808
0.0353125
0.0464564
0.0610551
0.0771677
0.0927234
0.106026
0.115772
0.120622
0.119112
0.11093
0.0991493
0.0904329
0.0906075
0.0983354
0.104214
0.0991376
0.0844227
0.0704963
0.0642503
0.064397
0.0722403
0.0918135
0.116367
0.134039
0.145229
0.16119
0.185064
0.206688
0.216472
0.210697
0.189628
0.163216
0.145796
0.144778
0.153704
0.162767
0.166337
0.161795
0.14857
0.129916
0.113799
0.108664
0.114914
0.124524
0.132221
0.13772
0.141326
0.145051
0.126003
0.0240752
0.0227428
0.0214398
0.0202135
0.0191217
0.0182264
0.0175839
0.0172255
0.0171656
0.0173669
0.0177084
0.0180126
0.0180823
0.0177552
0.0169762
0.0157745
0.0142661
0.0126314
0.0110787
0.00977566
0.00877271
0.00801065
0.007405
0.00693551
0.00656295
0.00613039
0.00557638
0.00543084
0.00723767
0.0130575
0.0240659
0.0394445
0.056588
0.0723855
0.0845234
0.092037
0.0950828
0.0943852
0.0907934
0.0851007
0.0780367
0.0702838
0.0624397
0.0549328
0.0479546
0.041493
0.0355163
0.0302589
0.0264429
0.02524
0.0278984
0.0351781
0.0468915
0.0618149
0.0780393
0.0935759
0.106863
0.116817
0.122384
0.122176
0.115305
0.103579
0.092747
0.0895588
0.0953981
0.102969
0.101965
0.089919
0.0753416
0.0674025
0.066552
0.0712344
0.0848769
0.106248
0.126009
0.139685
0.152768
0.169689
0.185163
0.192385
0.186278
0.167065
0.147049
0.139926
0.146238
0.156301
0.162793
0.163355
0.157087
0.143772
0.126192
0.111364
0.106988
0.113587
0.123586
0.131809
0.137808
0.141252
0.143921
0.124125
0.0464667
0.0442635
0.042089
0.0400128
0.0381224
0.0365123
0.0352671
0.0344318
0.0339681
0.0337737
0.0336422
0.0333563
0.0327525
0.0317268
0.0301921
0.0281294
0.0256269
0.0228559
0.0200309
0.0173635
0.0150112
0.0130324
0.0113971
0.0100309
0.00879542
0.00774149
0.00757846
0.00982989
0.0162055
0.0273736
0.042212
0.0582523
0.0728695
0.0842595
0.0917097
0.0953193
0.0955688
0.0930213
0.0882244
0.0817326
0.0741389
0.0660549
0.0580352
0.0504788
0.0435669
0.0373037
0.0316957
0.0270123
0.0239712
0.0236745
0.0272425
0.0352898
0.0475233
0.062693
0.0789406
0.0943752
0.107563
0.117612
0.123739
0.12474
0.119372
0.108301
0.0960398
0.0895608
0.09262
0.100682
0.103474
0.0950976
0.080875
0.0710662
0.0690587
0.0720331
0.0807095
0.0969337
0.115894
0.131552
0.144159
0.156244
0.166612
0.170502
0.162879
0.146749
0.136389
0.139769
0.150039
0.157946
0.160394
0.157926
0.150511
0.137762
0.121789
0.108601
0.105109
0.112041
0.122464
0.131266
0.13775
0.140977
0.142477
0.121828
0.0763498
0.0738
0.0712271
0.0686982
0.0663029
0.0641367
0.0622836
0.0607751
0.0594662
0.0580818
0.0563559
0.0542473
0.0519742
0.0496356
0.0470081
0.0439224
0.040337
0.0363186
0.0320223
0.0276574
0.0234388
0.0195481
0.0161415
0.0132884
0.011331
0.0111757
0.014231
0.0216545
0.0333901
0.047851
0.062627
0.0755921
0.0855554
0.0922129
0.0957513
0.0964955
0.0947543
0.0908228
0.0850462
0.0778669
0.0698197
0.0614756
0.0533527
0.0458219
0.0390567
0.0330805
0.0279373
0.0239249
0.021744
0.022411
0.0269044
0.0356886
0.0483715
0.0636927
0.0798664
0.0951157
0.108132
0.118181
0.124724
0.12679
0.122996
0.11308
0.100162
0.0907723
0.0904222
0.0976326
0.103433
0.0994072
0.0868747
0.0754781
0.0717723
0.0739061
0.0795158
0.0902625
0.10555
0.120954
0.133723
0.143694
0.150311
0.150535
0.142008
0.132242
0.133597
0.144485
0.153802
0.156691
0.154559
0.149652
0.141948
0.130536
0.116753
0.105551
0.103035
0.11026
0.121135
0.130579
0.13752
0.14045
0.140642
0.119056
0.102552
0.100485
0.0983342
0.096129
0.0939163
0.0917402
0.0896291
0.0875665
0.0852152
0.0820298
0.0775682
0.0722763
0.0673441
0.0631811
0.0592438
0.0550794
0.0504081
0.04512
0.0392848
0.0331472
0.0270983
0.0216523
0.0173528
0.0149521
0.0155152
0.0200946
0.0290813
0.0415955
0.0556305
0.0689364
0.0799521
0.0881152
0.0935451
0.0965594
0.0973917
0.0961554
0.0929331
0.0878754
0.0812586
0.0734918
0.065081
0.0565637
0.0484244
0.0410107
0.0344924
0.0289128
0.0243483
0.0211133
0.0198744
0.0215458
0.0269541
0.0364152
0.0494511
0.0648123
0.0808069
0.0957879
0.10857
0.118548
0.125377
0.128342
0.126089
0.11769
0.104892
0.0932367
0.0892086
0.0942688
0.101813
0.102271
0.0928545
0.080788
0.0748537
0.0760895
0.0805734
0.0873837
0.097665
0.110016
0.121513
0.130152
0.134643
0.132957
0.127035
0.126904
0.138522
0.151125
0.154557
0.151042
0.144914
0.138601
0.131543
0.122224
0.111183
0.102269
0.100772
0.108216
0.119572
0.129732
0.13709
0.139626
0.138342
0.115754
0.121049
0.119577
0.118011
0.11634
0.114559
0.112645
0.110537
0.108152
0.104971
0.0998745
0.0917322
0.0818488
0.0734989
0.0673234
0.0620894
0.0568041
0.0508938
0.0441858
0.0369008
0.0296296
0.0232594
0.0188172
0.0173438
0.0198415
0.0267845
0.0376666
0.0508977
0.0642907
0.075963
0.0849767
0.0913243
0.0954455
0.0977453
0.0983958
0.0973853
0.0946551
0.090212
0.0841885
0.0768572
0.068615
0.0599444
0.051354
0.0433018
0.0361189
0.0299737
0.0249252
0.0210704
0.0187228
0.0184953
0.0211851
0.0274628
0.0375053
0.05077
0.0660423
0.0817462
0.0963775
0.108871
0.118724
0.125738
0.129431
0.128601
0.121928
0.109946
0.0968625
0.0892996
0.0911517
0.0988538
0.103228
0.0980858
0.0868645
0.0786984
0.078215
0.0825139
0.0879238
0.0943377
0.102324
0.110643
0.117265
0.120338
0.119742
0.121164
0.131318
0.147809
0.155343
0.149921
0.140697
0.13209
0.125522
0.119848
0.113161
0.105259
0.0988182
0.0983084
0.105877
0.11775
0.12871
0.136433
0.138457
0.135508
0.111876
0.131615
0.130594
0.129483
0.12825
0.126853
0.125231
0.12324
0.120703
0.117114
0.110528
0.0978549
0.0814927
0.068973
0.0609578
0.0548485
0.0487564
0.0418977
0.0343777
0.0270056
0.0210623
0.0179469
0.0187866
0.0242205
0.0339464
0.0466229
0.0602083
0.0726626
0.0826551
0.0898506
0.0946418
0.0976282
0.0992242
0.0995549
0.0985514
0.0960912
0.0921012
0.0866107
0.079772
0.0718617
0.0632659
0.0544492
0.0459016
0.0380645
0.0312569
0.025643
0.0212852
0.0182824
0.0169249
0.0177526
0.0214354
0.0284928
0.0389819
0.0523224
0.0673619
0.0826597
0.0968633
0.109025
0.118717
0.125836
0.1301
0.130523
0.125633
0.115021
0.101428
0.0908711
0.0888721
0.0950653
0.102085
0.101731
0.0931503
0.0836519
0.0805575
0.0841355
0.0899875
0.0953913
0.100491
0.105622
0.110147
0.113178
0.11727
0.127066
0.141997
0.155011
0.153016
0.139427
0.126994
0.117846
0.111936
0.107911
0.10394
0.0992358
0.0952498
0.0956069
0.103197
0.115645
0.127499
0.13552
0.136893
0.13209
0.107389
0.138677
0.137862
0.13697
0.13596
0.134774
0.133346
0.131496
0.128888
0.125268
0.118211
0.100363
0.0736693
0.0553805
0.0461616
0.039987
0.033862
0.0272996
0.0212428
0.0172891
0.0169898
0.0212546
0.0300633
0.0423169
0.0561139
0.0693668
0.0804833
0.0887655
0.0943655
0.0978888
0.0999466
0.1009
0.100838
0.0996818
0.0973023
0.0935961
0.0885298
0.0821635
0.0746649
0.0663128
0.0574895
0.0486544
0.0402918
0.0328342