/*--------------------------------*- C++ -*----------------------------------*\
  =========                 |
  \\      /  F ield         | OpenFOAM: The Open Source CFD Toolbox
   \\    /   O peration     | Website:  https://openfoam.org
    \\  /    A nd           | Version:  10
     \\/     M anipulation  |
\*---------------------------------------------------------------------------*/
FoamFile
{
    format      ascii;
    class       volScalarField;
    location    "0.2";
    object      nut;
}
// * * * * * * * * * * * * * * * * * * * * * * * * * * * * * * * * * * * * * //

dimensions      [0 2 -1 0 0 0 0];

internalField   nonuniform List<scalar> 
6820
(
0
0
0
0
0
0
0
0
0
0
0
0
0
0
0
0
0
0
0
0
0
0
0
0
0
0
0
0
0
0
0
0
0
0
0
0
0
0
0
0
0
0
0
0
0
0
0
0
0
0
0
0
0
0
0
0
0
0
0
0
0
0
0
1.74094e-08
1.88645e-07
1.3712e-07
0
0
0
0
0
0
0
0
0
0
0
0
0
0
0
0
0
0
0
0
0
0
0
0
0
0
0
0
0
2.35354e-08
9.67447e-08
2.23517e-07
1.36574e-07
0
0
0
0
0
0
0
0
0
0
0
0
0
0
0
0
0
0
0
0
0
0
0
9.16631e-10
1.14841e-08
2.07398e-08
2.72451e-08
2.75757e-08
1.36826e-08
0
0
0
0
1.69049e-05
0
0
0
0
0
0
0
0
0
0
0
0
0
0
0
1.29334e-07
5.41379e-07
8.80935e-07
1.1691e-06
1.42896e-06
1.68712e-06
1.97888e-06
2.36063e-06
2.93969e-06
3.95103e-06
5.96618e-06
9.71715e-06
6.85323e-06
1.86405e-07
0
0
0
6.34591e-06
5.31498e-05
3.93031e-05
1.61133e-05
3.40458e-06
0
0
0
0
0
0
0
0
0
0
0
0
0
8.65714e-09
4.05518e-08
9.31299e-08
1.66796e-07
2.60034e-07
3.74364e-07
5.11824e-07
6.64765e-07
7.99287e-07
8.39693e-07
6.95183e-07
3.73444e-07
7.76586e-09
0
0
0
1.55268e-05
3.77711e-05
5.20708e-05
4.74439e-05
3.60877e-05
2.35574e-05
9.9131e-06
0
0
0
0
0
0
0
0
0
0
6.62747e-07
1.23825e-06
1.49844e-06
1.55516e-06
1.48347e-06
1.3331e-06
1.1368e-06
9.16523e-07
6.86509e-07
4.57379e-07
2.34303e-07
2.72566e-08
0
0
0
0
9.55608e-06
2.36e-05
4.44787e-05
5.37432e-05
5.21027e-05
4.33677e-05
2.12756e-05
0
0
0
0
0
0
0
0
0
5.58319e-07
1.13999e-06
1.39615e-06
1.44585e-06
1.36824e-06
1.2143e-06
1.0164e-06
7.95113e-07
5.64382e-07
3.33636e-07
1.1171e-07
0
0
0
0
0
0
6.79503e-06
1.5017e-05
3.22074e-05
4.81679e-05
6.07531e-05
7.12302e-05
4.78063e-05
0
0
0
0
0
0
0
0
2.72868e-07
9.40375e-07
1.25693e-06
1.34874e-06
1.30017e-06
1.16639e-06
9.82969e-07
7.72922e-07
5.51213e-07
3.28442e-07
1.11923e-07
0
0
0
0
0
0
0
4.71379e-06
9.46602e-06
2.13458e-05
3.45778e-05
4.53659e-05
5.07889e-05
2.43594e-05
0
0
0
0
0
0
0
0
5.53005e-07
9.57503e-07
1.1201e-06
1.12576e-06
1.03173e-06
8.76345e-07
6.85309e-07
4.76329e-07
2.61854e-07
5.16401e-08
0
0
0
0
0
0
0
0
3.25193e-06
5.88831e-06
1.33169e-05
2.18142e-05
2.70629e-05
2.50805e-05
9.92784e-06
0
0
0
0
0
0
1.35784e-07
1.00855e-06
1.43762e-06
1.57454e-06
1.52498e-06
1.36067e-06
1.1292e-06
8.62104e-07
5.80557e-07
2.99544e-07
2.99655e-08
0
0
0
0
0
0
0
0
0
2.24059e-06
3.55673e-06
7.91039e-06
1.28577e-05
1.50938e-05
1.30621e-05
6.08833e-06
0
0
0
0
0
0
7.84629e-07
1.31022e-06
1.51508e-06
1.49725e-06
1.33274e-06
1.07712e-06
7.69875e-07
4.39007e-07
1.04982e-07
0
0
0
0
0
0
0
0
0
0
0
1.56651e-06
2.13674e-06
4.63113e-06
7.54488e-06
8.59529e-06
7.43184e-06
4.36801e-06
1.01705e-06
0
0
0
7.82866e-07
1.48311e-06
1.87679e-06
1.99121e-06
1.89056e-06
1.63973e-06
1.29228e-06
8.89708e-07
4.63305e-07
3.65745e-08
0
0
0
0
0
0
0
0
0
0
0
0
1.11917e-06
1.27286e-06
2.62845e-06
4.31139e-06
4.75625e-06
3.99506e-06
2.44542e-06
8.24407e-07
0
0
6.81013e-08
4.93625e-07
8.11728e-07
9.52027e-07
9.18682e-07
7.45014e-07
4.70015e-07
1.29239e-07
0
0
0
0
0
0
0
0
0
0
0
0
0
0
0
8.23954e-07
7.53335e-07
1.43313e-06
2.39924e-06
2.57194e-06
2.08354e-06
1.2793e-06
4.90186e-07
3.90986e-08
0
1.68038e-07
3.79548e-07
5.01931e-07
4.91857e-07
3.53981e-07
1.14191e-07
0
0
0
0
0
0
0
0
0
0
0
0
0
0
0
0
0
6.27295e-07
4.3234e-07
6.91224e-07
1.18188e-06
1.13476e-06
6.86295e-07
1.01293e-07
0
0
0
0
0
0
0
0
0
0
0
0
0
0
0
0
0
0
0
0
0
0
0
0
0
0
4.95059e-07
2.26629e-07
2.13613e-07
3.77689e-07
1.59995e-07
0
0
0
0
0
0
0
0
0
0
0
0
0
0
0
0
0
0
0
0
0
0
0
0
0
0
0
0
4.04296e-07
8.37776e-08
0
0
0
0
0
0
0
0
0
0
0
0
0
0
0
0
0
0
0
0
0
0
0
0
0
0
0
2.18017e-07
1.76072e-07
0
0
3.40323e-07
0
0
0
0
0
0
0
0
0
0
0
0
0
0
0
0
0
0
0
0
0
0
0
0
0
0
0
5.15979e-07
1.13459e-06
1.11346e-06
0
0
2.93523e-07
0
0
0
0
0
0
0
0
0
0
0
0
0
0
0
0
0
0
0
0
0
0
0
0
0
7.02063e-09
6.83975e-07
1.38988e-06
2.04226e-06
2.03361e-06
0
0
2.5741e-07
0
0
0
0
0
0
0
0
0
0
0
0
0
0
0
0
0
0
0
0
0
0
0
0
2.29798e-07
9.25693e-07
1.64494e-06
2.37642e-06
3.03957e-06
3.02723e-06
8.57727e-07
0
2.27625e-07
0
0
0
0
0
0
0
0
0
0
0
0
0
0
0
0
0
0
0
0
0
0
0
4.49399e-07
1.16258e-06
1.89793e-06
2.64195e-06
3.383e-06
4.04239e-06
4.01609e-06
1.82495e-06
0
2.0056e-07
0
0
0
0
0
0
0
0
0
0
0
0
0
0
0
0
0
0
0
0
0
0
6.44214e-07
1.37694e-06
2.12822e-06
2.88781e-06
3.64218e-06
4.37979e-06
5.02423e-06
4.97734e-06
2.76939e-06
0
1.74605e-07
0
0
0
0
0
0
0
0
0
0
0
0
0
0
0
0
0
0
0
0
2.56234e-07
9.75996e-07
1.71822e-06
2.47597e-06
3.24016e-06
4.00038e-06
4.74334e-06
5.45801e-06
6.07044e-06
5.99131e-06
3.76493e-06
0
1.44454e-07
0
0
0
0
0
0
0
0
0
0
0
0
0
0
0
0
0
0
0
3.5655e-07
1.10125e-06
1.86353e-06
2.63754e-06
3.41577e-06
4.18884e-06
4.94626e-06
5.67543e-06
6.36639e-06
6.94813e-06
6.84001e-06
4.6105e-06
0
1.14637e-07
0
0
0
0
0
0
0
0
0
0
0
0
0
0
0
0
0
1.39691e-07
8.71561e-07
1.6179e-06
2.37616e-06
3.14224e-06
3.91033e-06
4.67294e-06
5.42092e-06
6.14435e-06
6.83152e-06
7.4734e-06
8.00173e-06
7.85008e-06
5.61211e-06
0
6.21496e-08
0
0
0
0
0
0
0
0
0
0
0
0
0
0
0
0
8.14726e-08
8.44592e-07
1.61664e-06
2.39536e-06
3.17759e-06
3.95867e-06
4.73231e-06
5.49091e-06
6.22556e-06
6.92695e-06
7.58443e-06
8.19032e-06
8.67976e-06
8.49844e-06
6.28077e-06
0
3.16752e-08
0
0
0
0
0
0
0
0
0
0
0
0
0
0
2.34583e-07
9.80177e-07
1.7248e-06
2.46933e-06
3.21385e-06
3.95723e-06
4.69705e-06
5.4292e-06
6.14804e-06
6.84665e-06
7.51685e-06
8.15e-06
8.73626e-06
9.26845e-06
9.68467e-06
9.45383e-06
7.25055e-06
0
0
0
0
0
0
0
0
0
0
0
0
0
0
0
0
7.48311e-07
1.52421e-06
2.29274e-06
3.05453e-06
3.80937e-06
4.55579e-06
5.29111e-06
6.01125e-06
6.71079e-06
7.38319e-06
8.02084e-06
8.61593e-06
9.15975e-06
9.64648e-06
1.00183e-05
9.76419e-06
7.62516e-06
0
0
0
0
0
0
0
0
0
0
0
0
2.04156e-07
9.69656e-07
1.70446e-06
2.41152e-06
3.09564e-06
3.76155e-06
4.41347e-06
5.05474e-06
5.6871e-06
6.31067e-06
6.92399e-06
7.52392e-06
8.10579e-06
8.66362e-06
9.19029e-06
9.67823e-06
1.01189e-05
1.05059e-05
1.0785e-05
1.04847e-05
8.41746e-06
0
0
0
0
0
0
0
0
0
0
0
0
5.93004e-07
1.35993e-06
2.08539e-06
2.775e-06
3.43516e-06
4.07145e-06
4.68849e-06
5.28972e-06
5.87717e-06
6.45137e-06
7.01131e-06
7.55451e-06
8.07703e-06
8.57374e-06
9.03841e-06
9.46442e-06
9.84432e-06
1.01729e-05
1.0402e-05
1.01008e-05
8.20261e-06
0
4.3008e-07
0
0
0
0
2.69724e-07
1.20496e-06
2.07667e-06
2.8454e-06
3.50941e-06
4.07837e-06
4.56803e-06
4.99656e-06
5.38128e-06
5.73712e-06
6.07601e-06
6.40679e-06
6.73578e-06
7.06703e-06
7.40252e-06
7.74242e-06
8.08523e-06
8.42792e-06
8.76604e-06
9.09394e-06
9.40486e-06
9.6914e-06
9.94523e-06
1.01595e-05
1.02913e-05
9.98072e-06
8.302e-06
0
0
0
0
0
3.50499e-07
1.35877e-06
2.22349e-06
2.92465e-06
3.47449e-06
3.89772e-06
4.22146e-06
4.47469e-06
4.68481e-06
4.87406e-06
5.05814e-06
5.24647e-06
5.44367e-06
5.65142e-06
5.86977e-06
6.09786e-06
6.33412e-06
6.57627e-06
6.82124e-06
7.06506e-06
7.30301e-06
7.52955e-06
7.73873e-06
7.92391e-06
8.07964e-06
8.17412e-06
7.93608e-06
6.67691e-06
2.97606e-06
8.08062e-06
7.64138e-06
8.35508e-06
9.06528e-06
9.25063e-06
9.11751e-06
8.80976e-06
8.39773e-06
7.9351e-06
7.46028e-06
7.00121e-06
6.58065e-06
6.21557e-06
5.91504e-06
5.68064e-06
5.50813e-06
5.39042e-06
5.31986e-06
5.28954e-06
5.29356e-06
5.32692e-06
5.38502e-06
5.46335e-06
5.55721e-06
5.66157e-06
5.77098e-06
5.87957e-06
5.98086e-06
6.06861e-06
6.12039e-06
5.96841e-06
5.16152e-06
1.13592e-06
1.18264e-05
1.20799e-05
1.21833e-05
1.17868e-05
1.07772e-05
9.61179e-06
8.55237e-06
7.63215e-06
6.84745e-06
6.19801e-06
5.67122e-06
5.2446e-06
4.89525e-06
4.60513e-06
4.36305e-06
4.16242e-06
3.99984e-06
3.8735e-06
3.78191e-06
3.7232e-06
3.69496e-06
3.69425e-06
3.71781e-06
3.76211e-06
3.82347e-06
3.89796e-06
3.98133e-06
4.06892e-06
4.1557e-06
4.22593e-06
4.17138e-06
3.69826e-06
6.42416e-05
4.31621e-05
2.81199e-05
2.0999e-05
1.56474e-05
1.07963e-05
6.69681e-06
3.47253e-06
1.01245e-06
0
0
0
0
0
0
0
0
0
0
0
0
0
0
0
0
0
0
0
0
0
0
0
0
0
0
0
0
0
0
0
0
0
0
0
0
0
0
0
0
0
0
0
0
0
0
0
0
0
0
0
0
0
0
0
0
0
3.80625e-08
0
0
0
0
0
0
0
0
0
0
0
0
0
0
0
0
0
0
0
0
0
0
0
0
0
0
0
0
0
0
0
0
1.97196e-08
0
0
0
0
0
0
0
0
0
0
0
0
0
0
0
0
0
0
0
0
0
0
0
0
0
0
0
0
0
0
0
0
8.28853e-09
0
0
0
0
0
0
0
0
0
0
0
0
0
0
0
0
0
0
0
0
0
0
0
0
0
0
0
0
0
0
0
0
0
0
0
0
0
1.60354e-06
3.82454e-06
4.64001e-06
3.69042e-06
2.79795e-06
1.89522e-06
1.24083e-06
5.64208e-07
0
0
0
0
0
0
0
1.01497e-06
1.02195e-05
1.95821e-05
3.20299e-05
5.10533e-05
8.10208e-05
9.05388e-05
0
0
0
0
5.67511e-06
1.11264e-05
1.2676e-05
9.70285e-06
7.05081e-06
8.95675e-06
1.13779e-05
1.21157e-05
1.1425e-05
1.00184e-05
8.30167e-06
6.47197e-06
4.6774e-06
3.02716e-06
1.57906e-06
3.56195e-07
0
0
0
0
0
0
0
0
0
0
1.70342e-06
5.18657e-06
9.76445e-06
1.39446e-05
1.27016e-05
4.31326e-06
0
0
0
4.84915e-06
1.22905e-05
8.0319e-06
2.04679e-06
0
0
4.56066e-06
5.5768e-06
3.04785e-06
1.48632e-06
5.72918e-06
1.99296e-05
4.02574e-05
5.58719e-05
6.09612e-05
5.5908e-05
4.3557e-05
2.95226e-05
1.78562e-05
9.35263e-06
5.6608e-06
1.59281e-05
3.14605e-05
3.94499e-05
4.18208e-05
4.24277e-05
4.39357e-05
4.0981e-05
3.74444e-06
0
0
0
0
2.38097e-05
0
0
0
0
0
1.01609e-06
4.2874e-06
6.22472e-06
5.93158e-06
4.31772e-06
2.62457e-06
2.70918e-06
2.65496e-06
1.04647e-06
0
0
0
0
0
0
0
7.8116e-06
2.1201e-05
3.70608e-05
6.04129e-05
9.98884e-05
7.42675e-05
0
0
0
2.83902e-06
9.82681e-06
1.35802e-05
1.27574e-05
8.55102e-06
7.69637e-06
1.09454e-05
1.34471e-05
1.4064e-05
1.33114e-05
1.18057e-05
9.91468e-06
7.89299e-06
5.9347e-06
4.15378e-06
2.59314e-06
1.26368e-06
1.73113e-07
0
0
0
0
0
0
0
0
0
2.02057e-06
5.22369e-06
9.31952e-06
1.33419e-05
1.29909e-05
5.3887e-06
0
0
0
2.25856e-06
1.08797e-05
7.64732e-06
9.47858e-07
0
0
1.30951e-07
1.84662e-06
5.8121e-07
2.79981e-06
1.37276e-05
3.33778e-05
5.46797e-05
6.80899e-05
7.04414e-05
6.28898e-05
4.84183e-05
3.2412e-05
1.86087e-05
8.46275e-06
7.8598e-06
2.39385e-05
3.86506e-05
4.46801e-05
4.58416e-05
4.59385e-05
4.74054e-05
4.54623e-05
8.35438e-06
0
0
0
0
1.44633e-05
0
0
0
0
0
0
2.15015e-06
5.21715e-06
6.53358e-06
4.81443e-06
4.15602e-06
6.24573e-06
5.43239e-06
2.40636e-06
0
0
0
0
0
0
0
0
1.34858e-05
3.11182e-05
5.25788e-05
6.25799e-05
0
0
0
7.93266e-07
7.8261e-06
1.24414e-05
1.39537e-05
1.07748e-05
6.987e-06
8.85013e-06
1.26955e-05
1.4993e-05
1.5457e-05
1.46432e-05
1.30529e-05
1.10536e-05
8.94214e-06
6.92442e-06
5.10109e-06
3.49871e-06
2.119e-06
9.69199e-07
5.82275e-08
0
0
0
0
0
0
0
0
2.23153e-06
5.07435e-06
8.59319e-06
1.22385e-05
1.25492e-05
6.0601e-06
0
0
0
0
8.56987e-06
6.75381e-06
0
0
0
0
0
0
3.87361e-06
2.04877e-05
4.49409e-05
6.73465e-05
7.87378e-05
7.81322e-05
6.77913e-05
5.11582e-05
3.3379e-05
1.78731e-05
7.61267e-06
1.27545e-05
3.18333e-05
4.41129e-05
4.82674e-05
4.84383e-05
4.81424e-05
4.95577e-05
4.85439e-05
1.31694e-05
0
0
0
0
2.48584e-06
0
0
0
0
0
0
0
3.46961e-06
5.85609e-06
6.42471e-06
9.84289e-06
9.39346e-06
5.64e-06
2.20116e-06
0
0
0
0
0
0
0
0
0
9.44055e-06
1.55644e-05
9.93188e-06
0
0
1.39834e-06
6.41268e-06
1.06907e-05
1.34605e-05
1.21597e-05
7.7968e-06
6.56826e-06
1.05509e-05
1.43388e-05
1.63239e-05
1.66281e-05
1.57197e-05
1.40338e-05
1.19593e-05
9.80929e-06
7.77773e-06
5.94562e-06
4.32719e-06
2.91923e-06
1.72858e-06
7.69218e-07
3.60763e-08
0
0
0
0
0
0
3.36024e-07
2.38091e-06
4.85582e-06
7.80406e-06
1.0984e-05
1.17574e-05
6.46252e-06
0
0
0
0
5.73262e-06
5.54893e-06
0
0
0
0
0
0
4.46805e-06
2.56709e-05
5.46883e-05
7.90131e-05
8.90954e-05
8.55359e-05
7.20693e-05
5.28868e-05
3.30636e-05
1.60807e-05
7.79716e-06
2.01878e-05
3.90073e-05
4.84174e-05
5.09812e-05
5.0378e-05
4.9777e-05
5.11235e-05
5.09542e-05
1.81965e-05
0
0
0
0
0
0
0
0
0
0
0
0
6.00451e-08
7.23632e-06
1.11439e-05
8.64766e-06
5.07377e-06
2.26993e-06
6.44218e-07
0
0
0
0
0
0
0
0
0
0
5.74329e-07
1.1888e-06
1.10433e-06
2.6396e-06
5.52954e-06
8.99702e-06
1.20186e-05
1.21294e-05
8.7083e-06
5.2944e-06
7.87339e-06
1.25211e-05
1.59488e-05
1.76161e-05
1.77297e-05
1.66752e-05
1.48811e-05
1.27513e-05
1.05873e-05
8.5578e-06
6.72538e-06
5.09694e-06
3.66743e-06
2.4437e-06
1.44315e-06
6.70491e-07
9.02518e-08
0
0
0
0
0
6.92028e-07
2.4812e-06
4.60249e-06
7.02219e-06
9.70434e-06
1.07477e-05
6.61018e-06
0
0
0
0
2.53247e-06
4.01736e-06
0
0
0
0
0
0
4.49476e-06
2.92821e-05
6.27553e-05
9.02745e-05
0.000100355
9.41464e-05
7.70502e-05
5.44621e-05
3.17799e-05
1.34859e-05
1.02952e-05
2.93141e-05
4.5165e-05
5.18882e-05
5.31873e-05
5.20039e-05
5.11562e-05
5.2399e-05
5.29462e-05
2.33535e-05
0
0
0
0
0
0
0
0
0
0
0
0
0
2.34696e-06
2.57012e-06
1.12613e-06
1.05871e-06
1.39126e-06
9.23145e-07
0
0
0
0
0
0
0
0
0
0
0
0
1.52937e-06
4.12367e-06
7.189e-06
9.99495e-06
1.07465e-05
8.53179e-06
4.88487e-06
5.38153e-06
1.00922e-05
1.45266e-05
1.75154e-05
1.88541e-05
1.87232e-05
1.74912e-05
1.55991e-05
1.34393e-05
1.12799e-05
9.26127e-06
7.43312e-06
5.79919e-06
4.35387e-06
3.10413e-06
2.07052e-06
1.26674e-06
6.70187e-07
2.16945e-07
0
0
0
2.24095e-08
1.01481e-06
2.54042e-06
4.32439e-06
6.26105e-06
8.43483e-06
9.57381e-06
6.48324e-06
0
0
0
0
0
2.08438e-06
0
0
0
0
0
0
3.75075e-06
3.10078e-05
6.84673e-05
0.000100573
0.000112749
0.000104757
8.3468e-05
5.61201e-05
2.91954e-05
1.03655e-05
1.65426e-05
3.84421e-05
4.99773e-05
5.45373e-05
5.49163e-05
5.33534e-05
5.23169e-05
5.3429e-05
5.45678e-05
2.84645e-05
0
0
0
0
0
0
0
0
0
0
0
0
0
4.6621e-07
9.20199e-07
1.58984e-06
2.1232e-06
1.99476e-06
1.16405e-06
1.32017e-08
0
0
0
0
0
0
0
0
0
0
0
1.70578e-06
4.75076e-06
7.23917e-06
8.18161e-06
6.97372e-06
4.16872e-06
3.44024e-06
7.66051e-06
1.24874e-05
1.64618e-05
1.90007e-05
1.99674e-05
1.95523e-05
1.8147e-05
1.61862e-05
1.40219e-05
1.18806e-05
9.87892e-06
8.0595e-06
6.4254e-06
4.97068e-06
3.7024e-06
2.64475e-06
1.82065e-06
1.21921e-06
7.81131e-07
4.4344e-07
2.12197e-07
1.82505e-07
5.02399e-07
1.30161e-06
2.55594e-06
4.01429e-06
5.51092e-06
7.1818e-06
8.26863e-06
6.0676e-06
0
0
0
0
0
0
0
0
0
0
0
0
2.03991e-06
3.06304e-05
7.10298e-05
0.000108735
0.000125917
0.000118086
9.2258e-05
5.79473e-05
2.44478e-05
7.83317e-06
2.67905e-05
4.59534e-05
5.33794e-05
5.6391e-05
5.6172e-05
5.4428e-05
5.32607e-05
5.42276e-05
5.58461e-05
3.33695e-05
0
0
0
0
0
0
0
0
0
0
0
0
0
7.88352e-07
1.7679e-06
2.57162e-06
2.83836e-06
2.37652e-06
1.31083e-06
0
0
0
0
0
0
0
0
0
0
0
0
1.59502e-06
3.70778e-06
4.75068e-06
4.35958e-06
2.64099e-06
1.96801e-06
5.6816e-06
1.03412e-05
1.47988e-05
1.82797e-05
2.03301e-05
2.08812e-05
2.01827e-05
1.86388e-05
1.66442e-05
1.44959e-05
1.23816e-05
1.04018e-05
8.59593e-06
6.96748e-06
5.51024e-06
4.23164e-06
3.16013e-06
2.32837e-06
1.73609e-06
1.32505e-06
1.01888e-06
8.01028e-07
7.4042e-07
9.55781e-07
1.55558e-06
2.53352e-06
3.67376e-06
4.76828e-06
5.95253e-06
6.86628e-06
5.36707e-06
0
0
0
0
0
0
0
0
0
0
0
0
0
2.80344e-05
6.97534e-05
0.000113
0.000138509
0.00013483
0.00010515
5.98486e-05
1.57973e-05
9.07219e-06
3.84468e-05
5.11044e-05
5.55142e-05
5.75075e-05
5.69728e-05
5.52341e-05
5.39887e-05
5.48073e-05
5.68079e-05
3.79371e-05
0
0
0
0
0
0
0
0
0
0
0
0
0
1.05462e-06
2.15989e-06
2.89076e-06
3.01782e-06
2.45679e-06
1.31998e-06
0
0
0
0
0
0
0
0
0
0
0
0
8.00938e-07
1.60757e-06
1.72095e-06
1.01663e-06
1.39049e-06
4.39609e-06
8.47005e-06
1.29297e-05
1.69637e-05
1.98985e-05
2.14084e-05
2.15436e-05
2.06051e-05
1.89713e-05
1.69742e-05
1.48561e-05
1.27749e-05
1.08215e-05
9.03445e-06
7.41768e-06
5.96513e-06
4.68541e-06
3.61205e-06
2.78763e-06
2.22052e-06
1.84935e-06
1.58111e-06
1.3762e-06
1.27895e-06
1.38313e-06
1.77921e-06
2.47585e-06
3.29997e-06
4.02352e-06
4.74661e-06
5.39573e-06
4.39973e-06
0
0
0
0
0
0
0
0
0
0
0
0
0
2.3081e-05
6.4207e-05
0.000111291
0.000147618
0.000155334
0.000125792
6.07809e-05
6.2149e-07
1.86283e-05
4.76673e-05
5.40524e-05
5.66058e-05
5.79502e-05
5.73481e-05
5.57798e-05
5.45007e-05
5.51791e-05
5.7478e-05
4.20675e-05
0
0
0
0
0
0
0
0
0
0
0
0
0
1.14546e-06
2.25905e-06
2.9976e-06
3.12067e-06
2.52142e-06
1.30782e-06
0
0
0
0
0
0
0
0
0
0
0
0
3.2203e-07
7.86214e-07
1.22503e-06
1.95302e-06
3.81573e-06
7.05064e-06
1.11687e-05
1.53734e-05
1.88858e-05
2.1197e-05
2.2163e-05
2.19385e-05
2.08283e-05
1.9152e-05
1.71755e-05
1.50966e-05
1.30533e-05
1.11308e-05
9.3676e-06
7.76863e-06
6.32858e-06
5.05824e-06
3.99731e-06
3.19804e-06
2.67416e-06
2.35594e-06
2.1312e-06
1.93819e-06
1.79904e-06
1.7866e-06
1.9763e-06
2.38829e-06
2.89464e-06
3.26975e-06
3.56172e-06
3.88285e-06
3.19671e-06
0
0
0
0
0
0
0
0
0
0
0
0
0
1.54427e-05
5.41422e-05
0.00010169
0.000148231
0.000177615
0.000162653
5.37942e-05
0
3.42169e-05
5.28923e-05
5.53652e-05
5.68465e-05
5.77705e-05
5.73368e-05
5.60726e-05
5.47959e-05
5.53529e-05
5.78774e-05
4.56918e-05
0
0
0
0
0
0
0
0
0
0
0
0
0
1.31934e-06
2.57879e-06
3.44475e-06
3.59772e-06
2.87072e-06
1.39746e-06
0
0
0
0
0
0
0
0
0
0
0
0
5.9722e-07
1.35089e-06
2.11443e-06
3.45375e-06
6.01499e-06
9.67278e-06
1.37681e-05
1.7541e-05
2.0405e-05
2.20784e-05
2.25713e-05
2.20803e-05
2.08686e-05
1.91871e-05
1.72459e-05
1.52119e-05
1.32101e-05
1.13227e-05
9.58851e-06
8.01377e-06
6.59488e-06
5.34623e-06
4.31476e-06
3.56153e-06
3.1007e-06
2.84815e-06
2.67117e-06
2.48804e-06
2.30161e-06
2.16731e-06
2.14842e-06
2.27361e-06
2.45821e-06
2.49926e-06
2.39262e-06
2.34995e-06
1.79819e-06
0
0
0
0
0
0
0
0
0
0
0
0
0
4.64277e-06
3.92004e-05
8.26173e-05
0.000132481
0.000186597
0.000222625
0
0
4.60378e-05
5.49807e-05
5.55611e-05
5.63262e-05
5.70124e-05
5.69877e-05
5.61161e-05
5.48727e-05
5.53377e-05
5.80227e-05
4.87669e-05
0
0
0
0
0
0
0
0
0
0
0
0
0
1.67245e-06
3.27343e-06
4.38048e-06
4.53866e-06
3.51746e-06
1.53565e-06
0
0
0
0
0
0
0
0
0
0
0
0
7.55328e-07
1.65785e-06
2.91466e-06
5.13647e-06
8.40728e-06
1.22625e-05
1.60523e-05
1.92108e-05
2.13976e-05
2.25179e-05
2.26588e-05
2.19997e-05
2.07431e-05
1.90804e-05
1.71826e-05
1.51966e-05
1.32394e-05
1.13912e-05
9.6913e-06
8.14784e-06
6.7602e-06
5.54796e-06
4.56633e-06
3.88311e-06
3.50606e-06
3.33061e-06
3.20378e-06
3.02732e-06
2.78794e-06
2.52674e-06
2.29781e-06
2.13604e-06
1.99513e-06
1.71078e-06
1.23919e-06
8.20634e-07
2.49865e-07
0
0
0
0
0
0
0
0
0
0
0
0
0
0
1.92927e-05
5.35042e-05
9.23182e-05
0.000134465
0.000128408
0
1.93096e-05
5.10644e-05
5.52412e-05
5.48749e-05
5.50302e-05
5.57426e-05
5.63555e-05
5.5907e-05
5.47301e-05
5.51421e-05
5.7926e-05
5.12707e-05
2.41809e-06
0
0
0
0
0
0
0
0
0
0
0
0
2.12292e-06
4.20144e-06
5.61465e-06
5.72354e-06
4.23241e-06
1.5235e-06
0
0
0
0
0
0
0
0
0
0
0
0
9.1857e-07
2.21611e-06
4.27252e-06
7.24217e-06
1.0819e-05
1.44824e-05
1.77351e-05
2.02393e-05
2.18473e-05
2.25626e-05
2.24789e-05
2.17304e-05
2.0465e-05
1.88335e-05
1.69823e-05
1.50462e-05
1.31365e-05
1.13315e-05
9.67171e-06
8.16775e-06
6.82359e-06
5.6658e-06
4.75843e-06
4.17189e-06
3.89868e-06
3.80901e-06
3.73226e-06
3.55786e-06
3.25944e-06
2.86637e-06
2.42625e-06
1.97894e-06
1.51055e-06
9.06951e-07
1.03709e-07
0
0
0
0
0
0
0
0
0
0
0
0
0
0
0
0
0
1.87726e-05
3.70519e-05
3.91951e-05
7.11673e-06
3.49103e-07
3.33054e-05
5.18888e-05
5.43857e-05
5.32222e-05
5.29373e-05
5.40827e-05
5.54825e-05
5.54309e-05
5.43697e-05
5.47746e-05
5.75937e-05
5.31961e-05
8.54572e-06
0
0
0
0
0
0
0
0
0
0
0
0
2.40921e-06
4.93067e-06
6.62089e-06
6.62314e-06
4.56158e-06
1.07701e-06
0
0
0
0
0
0
0
0
0
0
0
0
1.31461e-06
3.26602e-06
5.9988e-06
9.3099e-06
1.27875e-05
1.6013e-05
1.8684e-05
2.06413e-05
2.18384e-05
2.22992e-05
2.20885e-05
2.12984e-05
2.00415e-05
1.84453e-05
1.66421e-05
1.47574e-05
1.28981e-05
1.1141e-05
9.52796e-06
8.07381e-06
6.78874e-06
5.70809e-06
4.90388e-06
4.44197e-06
4.28959e-06
4.29007e-06
4.26021e-06
4.08169e-06
3.71783e-06
3.18815e-06
2.53607e-06
1.80621e-06
1.01149e-06
9.19355e-08
0
0
0
0
0
0
0
0
0
0
0
0
0
0
0
0
0
0
0
0
0
0
1.41992e-05
3.61033e-05
5.04546e-05
5.24103e-05
5.03891e-05
5.01807e-05
5.21885e-05
5.43696e-05
5.46654e-05
5.37981e-05
5.42429e-05
5.70257e-05
5.45443e-05
1.47923e-05
0
0
0
0
0
0
0
0
0
0
0
0
2.27794e-06
5.02931e-06
6.87264e-06
6.72e-06
4.09461e-06
3.15226e-08
0
0
0
0
0
0
0
0
0
0
0
1.24934e-07
1.96839e-06
4.50436e-06
7.58156e-06
1.08682e-05
1.40167e-05
1.67676e-05
1.8971e-05
2.05566e-05
2.1501e-05
2.18122e-05
2.15282e-05
2.07172e-05
1.94747e-05
1.79151e-05
1.61605e-05
1.4329e-05
1.25233e-05
1.08194e-05
9.26219e-06
7.87185e-06
6.66679e-06
5.69203e-06
5.02395e-06
4.7129e-06
4.69206e-06
4.78112e-06
4.79137e-06
4.60098e-06
4.16495e-06
3.49415e-06
2.62937e-06
1.62055e-06
5.03011e-07
0
0
0
0
0
0
0
0
0
0
0
0
0
0
0
0
0
0
0
0
0
0
1.35793e-06
1.63811e-05
3.34151e-05
4.70845e-05
4.88556e-05
4.64455e-05
4.70838e-05
5.01536e-05
5.29606e-05
5.35912e-05
5.30303e-05
5.3552e-05
5.6215e-05
5.532e-05
2.09505e-05
0
0
0
0
0
0
0
0
0
0
0
0
1.65624e-06
4.3931e-06
6.24664e-06
5.87568e-06
2.70329e-06
0
0
0
0
0
0
0
0
0
0
0
0
4.10326e-07
2.73689e-06
5.58867e-06
8.68707e-06
1.17405e-05
1.4527e-05
1.69083e-05
1.88029e-05
2.01583e-05
2.09436e-05
2.11541e-05
2.08171e-05
1.99923e-05
1.87663e-05
1.7244e-05
1.55387e-05
1.37621e-05
1.20139e-05
1.03711e-05
8.88293e-06
7.57672e-06
6.48038e-06
5.64729e-06
5.14976e-06
5.00892e-06
5.12047e-06
5.28946e-06
5.32933e-06
5.11787e-06
4.60284e-06
3.78681e-06
2.70854e-06
1.4243e-06
0
0
0
0
0
0
0
0
0
0
0
0
0
0
0
0
0
0
0
0
0
0
0
1.05829e-06
1.34381e-05
2.62745e-05
4.10304e-05
4.35454e-05
4.19449e-05
4.3942e-05
4.79318e-05
5.11786e-05
5.22157e-05
5.20894e-05
5.27e-05
5.51463e-05
5.55302e-05
2.68245e-05
0
0
0
0
0
0
0
0
0
0
0
0
7.13339e-07
3.20858e-06
4.91113e-06
4.16681e-06
3.60248e-07
0
0
0
0
0
0
0
0
0
0
0
0
8.34468e-07
3.44183e-06
6.33704e-06
9.27262e-06
1.20556e-05
1.45559e-05
1.66842e-05
1.83707e-05
1.95607e-05
2.02209e-05
2.03465e-05
1.99639e-05
1.91288e-05
1.79207e-05
1.64358e-05
1.47801e-05
1.30607e-05
1.13765e-05
9.80766e-06
8.40939e-06
7.2176e-06
6.26887e-06
5.61875e-06
5.32111e-06
5.35616e-06
5.58846e-06
5.82141e-06
5.87702e-06
5.63423e-06
5.03352e-06
4.06862e-06
2.77581e-06
1.21856e-06
0
0
0
0
0
0
0
0
0
0
0
0
0
0
0
0
0
0
0
0
0
0
0
0
6.89932e-06
1.38565e-05
3.20675e-05
3.72809e-05
3.74895e-05
4.08229e-05
4.5425e-05
4.90218e-05
5.05947e-05
5.10015e-05
5.16724e-05
5.37974e-05
5.51851e-05
3.22331e-05
0
0
0
0
0
0
0
0
0
0
0
0
0
1.66614e-06
3.11017e-06
1.67409e-06
0
0
0
0
0
0
0
0
0
0
0
0
0
1.34034e-06
4.00389e-06
6.78123e-06
9.50487e-06
1.20522e-05
1.43295e-05
1.6257e-05
1.77669e-05
1.88084e-05
1.93536e-05
1.94015e-05
1.89782e-05
1.81351e-05
1.69447e-05
1.54964e-05
1.38908e-05
1.22335e-05
1.06255e-05
9.1527e-06
7.87789e-06
6.8446e-06
6.0923e-06
5.66474e-06
5.58035e-06
5.7775e-06
6.10613e-06
6.38095e-06
6.4361e-06
6.15141e-06
5.45902e-06
4.3424e-06
2.83384e-06
1.00454e-06
0
0
0
0
0
0
0
0
0
0
0
0
0
0
0
0
0
0
0
0
0
0
0
0
0
0
2.44468e-05
3.11214e-05
3.32827e-05
3.76957e-05
4.26978e-05
4.66439e-05
4.88324e-05
4.97816e-05
5.04358e-05
5.21431e-05
5.43043e-05
3.70121e-05
0
0
0
0
0
0
0
0
0
0
0
0
0
9.76724e-08
1.46883e-06
1.94553e-07
0
0
0
0
0
0
0
0
0
0
0
0
0
1.86007e-06
4.43142e-06
7.02928e-06
9.54142e-06
1.18747e-05
1.39462e-05
1.56822e-05
1.70215e-05
1.79209e-05
1.83579e-05
1.83335e-05
1.78721e-05
1.70208e-05
1.58464e-05
1.44337e-05
1.28815e-05
1.12976e-05
9.78906e-06
8.44984e-06
7.34988e-06
6.53365e-06
6.0283e-06
5.84571e-06
5.9609e-06
6.28602e-06
6.67691e-06
6.96801e-06
7.00592e-06
6.66969e-06
5.88103e-06
4.61083e-06
2.885e-06
7.82349e-07
0
0
0
0
0
0
0
0
0
0
0
0
0
0
0
0
0
0
0
0
0
0
0
0
0
0
2.3532e-05
2.5187e-05
2.91519e-05
3.45802e-05
3.99896e-05
4.4291e-05
4.70344e-05
4.84148e-05
4.89387e-05
5.01669e-05
5.29303e-05
4.10253e-05
6.35913e-06
0
0
0
0
0
0
0
0
0
0
0
0
0
1.86571e-07
1.83509e-06
0
0
0
0
0
0
0
0
0
0
0
0
3.59674e-08
2.35925e-06
4.76566e-06
7.16022e-06
9.45633e-06
1.15738e-05
1.34381e-05
1.49833e-05
1.61561e-05
1.69186e-05
1.72519e-05
1.71573e-05
1.66574e-05
1.57954e-05
1.46351e-05
1.326e-05
1.17717e-05
1.02851e-05
8.91765e-06
7.77175e-06
6.91701e-06
6.38042e-06
6.15302e-06
6.2027e-06
6.47436e-06
6.87942e-06
7.29465e-06
7.57668e-06
7.58252e-06
7.18783e-06
6.30108e-06
4.87735e-06
2.93305e-06
5.53979e-07
0
0
0
0
0
0
0
0
0
0
0
0
0
0
0
0
0
0
0
0
0
0
0
0
0
0
1.64748e-05
1.82607e-05
2.45176e-05
3.12387e-05
3.7321e-05
4.20566e-05
4.522e-05
4.68421e-05
4.71231e-05
4.78806e-05
5.1147e-05
4.41834e-05
1.40565e-05
0
0
0
0
0
0
0
0
0
0
0
0
0
0
0
0
0
0
0
0
0
0
0
0
0
0
0
6.53464e-07
2.8157e-06
5.02199e-06
7.19786e-06
9.26994e-06
1.11675e-05
1.28241e-05
1.41811e-05
1.51908e-05
1.58196e-05
1.60506e-05
1.58851e-05
1.53441e-05
1.44694e-05
1.33245e-05
1.19968e-05
1.0597e-05
9.25313e-06
8.09456e-06
7.22468e-06
6.68995e-06
6.4703e-06
6.50647e-06
6.7364e-06
7.1031e-06
7.53722e-06
7.94181e-06
8.19374e-06
8.15737e-06
7.70201e-06
6.71938e-06
5.14445e-06
2.98017e-06
3.18624e-07
0
0
0
0
0
0
0
0
0
0
0
0
0
0
0
0
0
0
0
0
0
0
0
0
0
0
4.79366e-07
1.01859e-05
1.9171e-05
2.73152e-05
3.43435e-05
3.97258e-05
4.32654e-05
4.4969e-05
4.49487e-05
4.53409e-05
4.90941e-05
4.647e-05
2.20892e-05
0
0
0
0
0
0
0
0
0
0
0
0
0
0
0
0
0
0
0
0
0
0
0
0
0
0
0
1.25778e-06
3.22201e-06
5.20889e-06
7.15543e-06
8.99783e-06
1.06734e-05
1.21227e-05
1.32931e-05
1.41414e-05
1.46373e-05
1.47652e-05
1.45268e-05
1.3943e-05
1.30569e-05
1.19375e-05
1.0683e-05
9.4205e-06
8.2945e-06
7.43877e-06
6.9301e-06
6.75459e-06
6.8296e-06
7.06509e-06
7.40142e-06
7.80148e-06
8.22165e-06
8.58933e-06
8.79816e-06
8.71707e-06
8.20624e-06
7.13659e-06
5.41736e-06
3.03293e-06
8.05561e-08
0
0
0
0
0
0
0
0
0
0
0
0
0
0
0
0
0
0
0
0
0
0
0
0
0
0
0
3.24433e-06
1.41666e-05
2.32825e-05
3.10646e-05
3.71033e-05
4.10054e-05
4.27125e-05
4.24256e-05
4.26602e-05
4.69664e-05
4.79685e-05
3.00522e-05
5.04394e-07
0
0
0
0
0
0
0
0
0
0
0
0
0
0
0
0
0
0
0
0
0
0
0
0
0
1.13271e-07
1.80381e-06
3.55324e-06
5.31237e-06
7.02652e-06
8.63948e-06
1.00952e-05
1.13403e-05
1.2327e-05
1.30161e-05
1.33796e-05
1.34039e-05
1.30922e-05
1.24683e-05
1.15824e-05
1.05163e-05
9.38758e-06
8.34393e-06
7.53846e-06
7.07724e-06
6.96492e-06
7.11035e-06
7.39705e-06
7.74413e-06
8.11685e-06
8.50296e-06
8.88121e-06
9.19848e-06
9.3618e-06
9.24278e-06
8.69019e-06
7.54953e-06
5.69713e-06
3.0919e-06
0
0
0
0
0
0
0
0
0
0
0
0
0
0
0
0
0
0
0
0
0
0
0
0
0
0
0
0
0
1.05882e-05
2.0333e-05
2.82985e-05
3.45116e-05
3.85053e-05
4.01176e-05
3.96721e-05
4.00319e-05
4.50055e-05
4.88609e-05
3.74016e-05
8.69306e-06
0
0
5.86545e-07
0
0
0
0
0
0
0
0
0
0
0
0
0
0
0
0
0
0
0
0
0
0
7.94855e-07
2.27752e-06
3.80524e-06
5.33438e-06
6.81695e-06
8.20295e-06
9.44205e-06
1.0486e-05
1.12913e-05
1.18224e-05
1.20543e-05
1.19762e-05
1.15959e-05
1.09462e-05
1.00917e-05
9.13606e-06
8.22041e-06
7.50377e-06
7.1112e-06
7.06839e-06
7.2905e-06
7.64862e-06
8.04181e-06
8.42203e-06
8.78201e-06
9.12868e-06
9.45607e-06
9.72513e-06
9.8537e-06
9.71538e-06
9.14631e-06
7.96198e-06
5.99631e-06
3.17219e-06
0
0
0
0
0
0
0
0
0
0
0
0
0
0
0
0
0
0
0
0
0
0
0
0
0
0
0
0
1.96352e-06
8.29418e-06
1.92392e-05
2.73562e-05
3.28171e-05
3.62439e-05
3.74933e-05
3.69732e-05
3.77493e-05
4.34737e-05
4.93554e-05
4.35254e-05
1.83751e-05
0
0
1.55448e-06
0
0
0
0
0
0
0
0
0
0
0
0
0
0
0
0
0
0
0
0
0
1.47832e-07
1.35766e-06
2.63386e-06
3.94386e-06
5.24909e-06
6.5073e-06
7.67388e-06
8.70356e-06
9.55273e-06
1.01821e-05
1.05599e-05
1.06656e-05
1.04946e-05
1.00652e-05
9.42672e-06
8.66706e-06
7.91449e-06
7.32155e-06
7.01753e-06
7.04271e-06
7.32729e-06
7.74669e-06
8.19234e-06
8.60362e-06
8.96537e-06
9.28995e-06
9.59505e-06
9.88258e-06
1.01222e-05
1.02398e-05
1.0111e-05
9.55939e-06
8.3664e-06
6.31251e-06
3.26981e-06
0
0
0
0
0
0
0
0
0
0
0
0
0
0
0
0
0
0
0
0
0
0
0
0
0
0
0
5.3659e-06
4.30333e-05
1.59806e-05
9.54662e-06
2.70252e-05
3.31054e-05
3.50724e-05
3.54014e-05
3.47447e-05
3.61355e-05
4.25789e-05
4.95989e-05
4.78406e-05
2.85627e-05
1.77597e-07
0
2.66526e-06
4.82798e-07
0
0
0
0
0
0
0
0
0
0
0
0
0
0
0
0
0
0
0
0
7.97741e-07
1.81427e-06
2.88535e-06
3.9815e-06
5.06859e-06
6.10906e-06
7.06288e-06
7.88938e-06
8.54951e-06
9.00878e-06
9.24108e-06
9.23381e-06
8.99468e-06
8.56006e-06
8.0028e-06
7.43434e-06
6.99061e-06
6.79023e-06
6.8767e-06
7.19698e-06
7.6441e-06
8.11699e-06
8.55208e-06
8.92651e-06
9.24802e-06
9.53963e-06
9.82281e-06
1.01016e-05
1.03495e-05
1.04976e-05
1.04234e-05
9.93888e-06
8.78865e-06
6.68551e-06
3.42626e-06
0
0
0
0
0
0
0
0
0
0
0
0
0
0
0
0
0
0
0
0
0
0
0
0
0
0
0
1.01805e-05
4.62133e-05
6.02661e-05
0
9.21042e-06
3.27377e-05
3.56445e-05
3.45295e-05
3.34249e-05
3.5404e-05
4.23454e-05
4.9606e-05
4.99798e-05
3.69627e-05
7.81535e-06
0
3.50129e-06
1.32329e-06
5.31493e-07
1.09225e-07
0
0
0
0
0
0
0
0
0
0
0
0
0
0
0
0
0
4.60261e-07
1.23937e-06
2.08098e-06
2.964e-06
3.86263e-06
4.74712e-06
5.58438e-06
6.3391e-06
6.97562e-06
7.46052e-06
7.76632e-06
7.8765e-06
7.79225e-06
7.54022e-06
7.17942e-06
6.8022e-06
6.52051e-06
6.43035e-06
6.56738e-06
6.89231e-06
7.32263e-06
7.77699e-06
8.20037e-06
8.56888e-06
8.88486e-06
9.16836e-06
9.44643e-06
9.74042e-06
1.00532e-05
1.03581e-05
1.05877e-05
1.06198e-05
1.02567e-05
9.20653e-06
7.10126e-06
3.62918e-06
0
0
0
0
0
0
0
0
0
0
0
0
0
0
0
0
0
0
0
0
0
0
0
0
0
0
0
9.62287e-06
4.79377e-05
7.97622e-05
4.01066e-06
0
1.74711e-05
3.51578e-05
3.48678e-05
3.31554e-05
3.55012e-05
4.2576e-05
4.9262e-05
4.99639e-05
4.12324e-05
1.66614e-05
0
4.60517e-06
2.44089e-06
1.62456e-06
1.16535e-06
7.81882e-07
4.37896e-07
1.37072e-07
0
0
0
0
0
0
0
0
0
0
0
0
0
3.99121e-07
9.51344e-07
1.56816e-06
2.2349e-06
2.93279e-06
3.63929e-06
4.32832e-06
4.97098e-06
5.53693e-06
5.99665e-06
6.32475e-06
6.5047e-06
6.53485e-06
6.43505e-06
6.25163e-06
6.05617e-06
5.93178e-06
5.94498e-06
6.11672e-06
6.41718e-06
6.78882e-06
7.17569e-06
7.53986e-06
7.86455e-06
8.15094e-06
8.41395e-06
8.67817e-06
8.9717e-06
9.31612e-06
9.71411e-06
1.01376e-05
1.05174e-05
1.07287e-05
1.05655e-05
9.70036e-06
7.66655e-06
3.98533e-06
0
0
0
0
0
0
0
0
0
0
0
0
0
0
0
0
0
0
0
0
0
0
0
0
0
0
0
1.46414e-05
7.53766e-05
0.000125765
1.60703e-05
0
0
2.40829e-05
3.33943e-05
3.30094e-05
3.58027e-05
4.27222e-05
4.82377e-05
4.80651e-05
4.12555e-05
2.21993e-05
0
5.20212e-06
3.08192e-06
2.24678e-06
1.75145e-06
1.32205e-06
9.24554e-07
5.64293e-07
2.52598e-07
0
0
0
0
0
0
0
0
0
0
0
2.68499e-07
6.59034e-07
1.10487e-06
1.59702e-06
2.1232e-06
2.66781e-06
3.21197e-06
3.73404e-06
4.21071e-06
4.61882e-06
4.93816e-06
5.1554e-06
5.26887e-06
5.29345e-06
5.26311e-06
5.22754e-06
5.23972e-06
5.33651e-06
5.52393e-06
5.77887e-06
6.06524e-06
6.35124e-06
6.6183e-06
6.86151e-06
7.0859e-06
7.30312e-06