/*--------------------------------*- C++ -*----------------------------------*\
  =========                 |
  \\      /  F ield         | OpenFOAM: The Open Source CFD Toolbox
   \\    /   O peration     | Website:  https://openfoam.org
    \\  /    A nd           | Version:  10
     \\/     M anipulation  |
\*---------------------------------------------------------------------------*/
FoamFile
{
    format      ascii;
    class       volScalarField;
    location    "0.2";
    object      p;
}
// * * * * * * * * * * * * * * * * * * * * * * * * * * * * * * * * * * * * * //

dimensions      [0 2 -2 0 0 0 0];

internalField   nonuniform List<scalar> 
6820
(
-9.22355
-9.5244
-9.56562
-9.5743
-9.5971
-9.61025
-9.6139
-9.61239
-9.60588
-9.59402
-9.57677
-9.55396
-9.52515
-9.48983
-9.44732
-9.3968
-9.33725
-9.26746
-9.18596
-9.09102
-8.98056
-8.85216
-8.70302
-8.53001
-8.32969
-8.09867
-7.83385
-7.53372
-7.19862
-6.83487
-6.45521
-6.07557
-5.77506
-9.42579
-9.54907
-9.58088
-9.58951
-9.60653
-9.61666
-9.61884
-9.61638
-9.60937
-9.59733
-9.58015
-9.55758
-9.52922
-9.49452
-9.45285
-9.40339
-9.34521
-9.27714
-9.19783
-9.10567
-8.99874
-8.87484
-8.73142
-8.56561
-8.37429
-8.15428
-7.90255
-7.61725
-7.29772
-6.94884
-6.5767
-6.20855
-5.85133
-9.42621
-9.50988
-9.56371
-9.58352
-9.60285
-9.61586
-9.6206
-9.61991
-9.61431
-9.60353
-9.58751
-9.56612
-9.53902
-9.50574
-9.46573
-9.41832
-9.36268
-9.29784
-9.2227
-9.13596
-9.03617
-8.92173
-8.79092
-8.64197
-8.47324
-8.2834
-8.0718
-7.83913
-7.58778
-7.32356
-7.05594
-6.80068
-6.58226
-9.4841
-9.55229
-9.59573
-9.60926
-9.62219
-9.6313
-9.63353
-9.63091
-9.62395
-9.61228
-9.59577
-9.57422
-9.54728
-9.51451
-9.47537
-9.42922
-9.37533
-9.31285
-9.24081
-9.15815
-9.0637
-8.95625
-8.83459
-8.69767
-8.54474
-8.37567
-8.19135
-7.99436
-7.78969
-7.5857
-7.39594
-7.23709
-7.1432
-9.51548
-9.5527
-9.58732
-9.60374
-9.61803
-9.62863
-9.63275
-9.63183
-9.62644
-9.61633
-9.60136
-9.5814
-9.55616
-9.52526
-9.48826
-9.44462
-9.39373
-9.33489
-9.26735
-9.19028
-9.10286
-9.0043
-8.89393
-8.77135
-8.63664
-8.49063
-8.33533
-8.17435
-8.01377
-7.86271
-7.73542
-7.64766
-7.63176
-9.54716
-9.57635
-9.60939
-9.62637
-9.63832
-9.64664
-9.6493
-9.64721
-9.64092
-9.63027
-9.61514
-9.59537
-9.5707
-9.54078
-9.50522
-9.46356
-9.41529
-9.35986
-9.2967
-9.22521
-9.14489
-9.0553
-8.95627
-8.84796
-8.73111
-8.60732
-8.4794
-8.35183
-8.23148
-8.12754
-8.05385
-8.02528
-8.06924
-9.5744
-9.59285
-9.6173
-9.63117
-9.64113
-9.64862
-9.6516
-9.65029
-9.64508
-9.63574
-9.62211
-9.60406
-9.58135
-9.5537
-9.52081
-9.4823
-9.43779
-9.3869
-9.32924
-9.26449
-9.19241
-9.11298
-9.02644
-8.93347
-8.83539
-8.7344
-8.63392
-8.53887
-8.45626
-8.39512
-8.36833
-8.38917
-8.48042
-9.59933
-9.61248
-9.63345
-9.64763
-9.65759
-9.66471
-9.66757
-9.66623
-9.66105
-9.65198
-9.63888
-9.62166
-9.60015
-9.57412
-9.54335
-9.50755
-9.46649
-9.4199
-9.3676
-9.30948
-9.2456
-9.17624
-9.10201
-9.02402
-8.94401
-8.86459
-8.78954
-8.72395
-8.67476
-8.6505
-8.6627
-8.72288
-8.84967
-9.62253
-9.63164
-9.64786
-9.65958
-9.66759
-9.67326
-9.67553
-9.67421
-9.66949
-9.66131
-9.64949
-9.63393
-9.61446
-9.59092
-9.56314
-9.53094
-9.49417
-9.45274
-9.40663
-9.35596
-9.30101
-9.24235
-9.1809
-9.11807
-9.05594
-8.99736
-8.94624
-8.90763
-8.88806
-8.89529
-8.93929
-9.02966
-9.18124
-9.64447
-9.651
-9.66406
-9.67471
-9.68239
-9.68792
-9.69046
-9.68969
-9.68575
-9.67853
-9.66792
-9.65385
-9.63623
-9.61497
-9.58997
-9.56118
-9.52855
-9.49213
-9.45208
-9.40869
-9.36246
-9.31418
-9.26501
-9.2166
-9.17117
-9.13172
-9.10209
-9.08708
-9.09266
-9.12566
-9.19444
-9.30671
-9.47393
-9.66555
-9.67032
-9.68064
-9.68967
-9.69621
-9.70085
-9.70298
-9.70226
-9.69871
-9.69229
-9.68291
-9.67051
-9.65504
-9.63642
-9.61465
-9.58973
-9.56173
-9.53082
-9.49729
-9.46158
-9.42437
-9.38661
-9.34965
-9.31523
-9.28569
-9.26396
-9.25372
-9.2594
-9.28625
-9.34008
-9.42771
-9.55508
-9.73074
-9.68606
-9.68962
-9.69788
-9.70572
-9.71172
-9.71616
-9.71853
-9.71843
-9.71584
-9.71069
-9.7029
-9.69243
-9.67927
-9.66343
-9.64495
-9.62394
-9.60056
-9.5751
-9.54795
-9.51972
-9.49119
-9.46345
-9.43793
-9.41644
-9.40129
-9.39529
-9.40184
-9.42487
-9.4689
-9.53873
-9.63973
-9.77628
-9.95453
-9.70619
-9.70892
-9.71558
-9.72232
-9.72769
-9.73174
-9.73406
-9.7343
-9.73237
-9.72824
-9.72187
-9.71325
-9.70241
-9.68939
-9.67432
-9.65735
-9.63875
-9.61888
-9.59823
-9.57748
-9.55753
-9.53952
-9.52491
-9.51552
-9.51353
-9.52156
-9.54266
-9.58022
-9.63802
-9.71989
-9.82991
-9.97116
-10.1478
-9.7261
-9.72826
-9.73373
-9.73961
-9.74457
-9.74853
-9.75112
-9.75202
-9.75113
-9.74839
-9.74378
-9.73731
-9.72904
-9.71908
-9.70757
-9.69476
-9.68097
-9.66663
-9.65232
-9.63879
-9.62696
-9.61804
-9.61344
-9.61492
-9.62452
-9.64458
-9.67777
-9.72696
-9.79518
-9.88542
-10.0007
-10.1429
-10.3148
-9.74591
-9.74768
-9.75226
-9.75747
-9.76212
-9.76603
-9.76888
-9.77038
-9.77041
-9.76895
-9.766
-9.76159
-9.75582
-9.74883
-9.74084
-9.73213
-9.72307
-9.71416
-9.70601
-9.69941
-9.6953
-9.69487
-9.69947
-9.71074
-9.73053
-9.7609
-9.8041
-9.86248
-9.93843
-10.0342
-10.1518
-10.2924
-10.4576
-9.76569
-9.76719
-9.77116
-9.77589
-9.78037
-9.78438
-9.78765
-9.78992
-9.79108
-9.7911
-9.79001
-9.78785
-9.78476
-9.78091
-9.77654
-9.77198
-9.76763
-9.76403
-9.76182
-9.76178
-9.76486
-9.77218
-9.78502
-9.80486
-9.83333
-9.87221
-9.92334
-9.9886
-10.0698
-10.1685
-10.2861
-10.4231
-10.5803
-9.78552
-9.78684
-9.79038
-9.7948
-9.79923
-9.80344
-9.8072
-9.81027
-9.81256
-9.81405
-9.81478
-9.81482
-9.81433
-9.81352
-9.81265
-9.81208
-9.81225
-9.81369
-9.81706
-9.82313
-9.8328
-9.84711
-9.86725
-9.89452
-9.93032
-9.97612
-10.0334
-10.1037
-10.1882
-10.288
-10.404
-10.5361
-10.6847
-9.8054
-9.80662
-9.80991
-9.81416
-9.81866
-9.82318
-9.82753
-9.8315
-9.83502
-9.83807
-9.84071
-9.84304
-9.84523
-9.84749
-9.85013
-9.85349
-9.85804
-9.86431
-9.87294
-9.88466
-9.90032
-9.92087
-9.94736
-9.98092
-10.0227
-10.074
-10.1358
-10.2094
-10.2955
-10.3949
-10.5079
-10.6344
-10.774
-9.82538
-9.82653
-9.82969
-9.83392
-9.83859
-9.84352
-9.84853
-9.85346
-9.85823
-9.86285
-9.86739
-9.87197
-9.87675
-9.88198
-9.88795
-9.89505
-9.90371
-9.91446
-9.9279
-9.94473
-9.96572
-9.99171
-10.0236
-10.0624
-10.109
-10.1644
-10.2295
-10.305
-10.3915
-10.4893
-10.5986
-10.7188
-10.8497
-9.84543
-9.84657
-9.84971
-9.85401
-9.85895
-9.86437
-9.87012
-9.87606
-9.88213
-9.88836
-9.89482
-9.90163
-9.90899
-9.91712
-9.92634
-9.937
-9.94955
-9.96446
-9.98232
-10.0038
-10.0294
-10.0601
-10.0966
-10.1396
-10.19
-10.2483
-10.3154
-10.3917
-10.4775
-10.5729
-10.6779
-10.7918
-10.9142
-9.86553
-9.8667
-9.8699
-9.87437
-9.87966
-9.88565
-9.89219
-9.89918
-9.90658
-9.91442
-9.92277
-9.93176
-9.94159
-9.9525
-9.96477
-9.97876
-9.99488
-10.0136
-10.0354
-10.0609
-10.0906
-10.1253
-10.1654
-10.2118
-10.2649
-10.3253
-10.3934
-10.4696
-10.5539
-10.6464
-10.7467
-10.8543
-10.9686
-9.88566
-9.88687
-9.8902
-9.89493
-9.90063
-9.90724
-9.91463
-9.9227
-9.93144
-9.94087
-9.95107
-9.96219
-9.9744
-9.98793
-10.0031
-10.0202
-10.0396
-10.0617
-10.087
-10.116
-10.1492
-10.1871
-10.2303
-10.2791
-10.3342
-10.3957
-10.4641
-10.5394
-10.6217
-10.7108
-10.8063
-10.9077
-11.0145
-9.90576
-9.90703
-9.91054
-9.91559
-9.92177
-9.92905
-9.93732
-9.9465
-9.95657
-9.96757
-9.97959
-9.99275
-10.0072
-10.0232
-10.0411
-10.061
-10.0833
-10.1085
-10.1369
-10.1689
-10.205
-10.2455
-10.291
-10.3416
-10.3979
-10.4599
-10.5279
-10.6018
-10.6816
-10.7671
-10.8578
-10.9533
-11.053
-9.92575
-9.9271
-9.93084
-9.93625
-9.94296
-9.95094
-9.9601
-9.97039
-9.98177
-9.99429
-10.008
-10.0231
-10.0397
-10.058
-10.0783
-10.1007
-10.1257
-10.1536
-10.1846
-10.2191
-10.2575
-10.3
-10.3471
-10.399
-10.4558
-10.5177
-10.5847
-10.6569
-10.7339
-10.8157
-10.9017
-10.9914
-11.0845
-9.94555
-9.947
-9.951
-9.95681
-9.96408
-9.9728
-9.98289
-9.99428
-10.007
-10.021
-10.0364
-10.0533
-10.0719
-10.0924
-10.1149
-10.1396
-10.167
-10.1971
-10.2303
-10.2669
-10.3071
-10.3513
-10.3995
-10.452
-10.5089
-10.5702
-10.6359
-10.706
-10.7801
-10.8581
-10.9395
-11.0238
-11.1107
-9.96505
-9.9666
-9.97089
-9.97713
-9.98498
-9.99444
-10.0054
-10.0179
-10.0318
-10.0472
-10.0642
-10.0828
-10.1032
-10.1255
-10.1499
-10.1767
-10.206
-10.2381
-10.2731
-10.3113
-10.3529
-10.3981
-10.4469
-10.4996
-10.5561
-10.6165
-10.6806
-10.7483
-10.8194
-10.8936
-10.9705
-11.0498
-11.131
-9.98414
-9.9858
-9.99039
-9.99711
-10.0056
-10.0158
-10.0277
-10.0413
-10.0564
-10.0732
-10.0917
-10.1119
-10.134
-10.1581
-10.1844
-10.2129
-10.2439
-10.2776
-10.3141
-10.3536
-10.3962
-10.4421
-10.4912
-10.5437
-10.5995
-10.6586
-10.7209
-10.7862
-10.8542
-10.9247
-10.9974
-11.0718
-11.1477
-10.0027
-10.0044
-10.0093
-10.0165
-10.0256
-10.0365
-10.0493
-10.0638
-10.0801
-10.0981
-10.1178
-10.1395
-10.163
-10.1886
-10.2163
-10.2463
-10.2788
-10.3137
-10.3513
-10.3917
-10.4349
-10.4811
-10.5301
-10.5821
-10.637
-10.6946
-10.7549
-10.8176
-10.8826
-10.9495
-11.0181
-11.088
-11.1589
-10.0204
-10.0224
-10.0276
-10.0354
-10.0451
-10.0569
-10.0706
-10.0862
-10.1036
-10.1229
-10.144
-10.1669
-10.1919
-10.2189
-10.248
-10.2793
-10.3129
-10.3489
-10.3874
-10.4284
-10.4719
-10.5181
-10.5668
-10.6181
-10.6718
-10.7278
-10.7861
-10.8462
-10.9082
-10.9717
-11.0364
-11.102
-11.1683
-10.0373
-10.0393
-10.0449
-10.0531
-10.0634
-10.0758
-10.0903
-10.1067
-10.125
-10.1453
-10.1674
-10.1915
-10.2176
-10.2457
-10.2759
-10.3082
-10.3427
-10.3795
-10.4185
-10.4599
-10.5035
-10.5495
-10.5976
-10.648
-10.7004
-10.7547
-10.8108
-10.8684
-10.9274
-10.9876
-11.0486
-11.1102
-11.1722
-10.0531
-10.0553
-10.0614
-10.0703
-10.0813
-10.0947
-10.1101
-10.1276
-10.147
-10.1684
-10.1917
-10.2169
-10.244
-10.2732
-10.3043
-10.3375
-10.3727
-10.41
-10.4494
-10.4909
-10.5345
-10.58
-10.6275
-10.6767
-10.7277
-10.7803
-10.8343
-10.8895
-10.9456
-11.0026
-11.0602
-11.118
-11.176
-10.0674
-10.0697
-10.076
-10.0852
-10.0967
-10.1105
-10.1266
-10.1448
-10.165
-10.1872
-10.2113
-10.2374
-10.2654
-10.2954
-10.3273
-10.3611
-10.3969
-10.4346
-10.4742
-10.5157
-10.559
-10.604
-10.6507
-10.6989
-10.7484
-10.7992
-10.8511
-10.9039
-10.9574
-11.0114
-11.0657
-11.12
-11.1744
-10.0803
-10.083
-10.0902
-10.1005
-10.113
-10.1279
-10.145
-10.1642
-10.1853
-10.2084
-10.2334
-10.2603
-10.2891
-10.3197
-10.3522
-10.3865
-10.4226
-10.4605
-10.5001
-10.5413
-10.5842
-10.6285
-10.6742
-10.7212
-10.7694
-10.8184
-10.8683
-10.9189
-10.9698
-11.0211
-11.0724
-11.1235
-11.1744
-10.0906
-10.093
-10.1002
-10.1106
-10.1235
-10.1389
-10.1566
-10.1765
-10.1984
-10.2223
-10.2481
-10.2758
-10.3053
-10.3366
-10.3697
-10.4044
-10.4409
-10.479
-10.5186
-10.5596
-10.6021
-10.6458
-10.6907
-10.7365
-10.7833
-10.8307
-10.8787
-10.9271
-10.9757
-11.0243
-11.0728
-11.121
-11.1688
-10.0998
-10.1038
-10.1129
-10.1248
-10.1388
-10.1552
-10.1737
-10.1943
-10.2169
-10.2413
-10.2676
-10.2957
-10.3255
-10.3571
-10.3904
-10.4253
-10.4617
-10.4996
-10.539
-10.5796
-10.6215
-10.6645
-10.7084
-10.7531
-10.7986
-10.8445
-10.8908
-10.9373
-10.9839
-11.0303
-11.0765
-11.1221
-11.1672
-10.1026
-10.1054
-10.1146
-10.1271
-10.1419
-10.1592
-10.1788
-10.2006
-10.2242
-10.2496
-10.2768
-10.3057
-10.3363
-10.3686
-10.4024
-10.4376
-10.4744
-10.5124
-10.5517
-10.5921
-10.6336
-10.6759
-10.719
-10.7627
-10.8069
-10.8514
-10.8961
-10.9407
-10.9852
-11.0295
-11.0732
-11.1164
-11.1589
-10.1099
-10.1167
-10.1284
-10.142
-10.1576
-10.1747
-10.1941
-10.2159
-10.2395
-10.265
-10.2921
-10.321
-10.3516
-10.3838
-10.4175
-10.4526
-10.4891
-10.5269
-10.5659
-10.6059
-10.6468
-10.6886
-10.731
-10.7739
-10.8172
-10.8607
-10.9042
-10.9477
-10.9909
-11.0337
-11.076
-11.1175
-11.1582
-10.0935
-10.0996
-10.1153
-10.132
-10.1501
-10.1712
-10.1935
-10.217
-10.242
-10.2686
-10.2969
-10.3267
-10.358
-10.3908
-10.425
-10.4605
-10.4972
-10.535
-10.5738
-10.6136
-10.6541
-10.6952
-10.7368
-10.7788
-10.8209
-10.8631
-10.9052
-10.947
-10.9885
-11.0293
-11.0697
-11.1093
-11.1479
-10.1093
-10.1206
-10.1349
-10.1488
-10.1655
-10.1844
-10.2048
-10.2271
-10.2513
-10.2774
-10.3051
-10.3346
-10.3656
-10.3981
-10.4321
-10.4674
-10.504
-10.5417
-10.5804
-10.6201
-10.6605
-10.7015
-10.7431
-10.7849
-10.827
-10.8691
-10.911
-10.9527
-10.994
-11.0347
-11.0745
-11.1136
-11.1518
-10.0149
-10.0831
-10.1124
-10.131
-10.1545
-10.1784
-10.202
-10.2265
-10.2525
-10.2797
-10.3084
-10.3385
-10.37
-10.4028
-10.437
-10.4724
-10.5089
-10.5463
-10.5847
-10.6238
-10.6636
-10.7038
-10.7444
-10.7851
-10.8259
-10.8666
-10.9071
-10.9471
-10.9866
-11.0255
-11.0635
-11.1006
-11.1366
-5.381
-5.7485
-5.91845
-7.12904
-10.7616
-17.7656
-26.6729
-33.2271
-34.1847
-29.7242
-21.163
-11.1854
-3.67885
-0.298812
-0.640532
-3.51236
-8.00577
-13.3618
-19.0625
-24.7574
-30.2035
-35.2449
-39.7404
-43.5018
-46.2816
-47.8246
-47.9368
-46.5302
-43.7204
-39.7961
-35.1543
-30.1979
-25.256
-20.572
-16.3326
-12.6648
-9.61117
-7.13748
-5.16744
-3.61709
-2.40988
-1.47967
-0.77085
-0.237662
0.156933
0.442625
0.64306
0.776991
0.859292
0.901723
0.913524
0.901989
0.872917
0.830961
0.779924
0.723014
0.66303
0.602533
0.543731
0.488333
0.437782
0.392844
0.352727
0.315605
0.276549
0.225684
0.151807
0.0522382
-0.0922637
-0.339276
-0.870372
-2.07729
-4.23997
-7.55897
-12.6212
-20.0518
-29.6488
-40.1055
-49.2397
-55.0797
-56.6785
-54.3043
-49.1252
-43.0666
-37.7822
-33.4277
-29.2232
-24.6972
-19.967
-15.3568
-11.1868
-7.72974
-5.12239
-3.33535
-2.21062
-1.667
-1.30832
-1.06698
-0.299137
-0.526327
-5.63856
-5.76453
-5.75985
-7.10141
-10.9249
-17.5879
-25.595
-31.4157
-32.3296
-28.2631
-20.4293
-11.582
-5.0923
-2.18746
-2.31659
-4.70335
-8.56392
-13.2985
-18.4581
-23.7074
-28.8067
-33.5701
-37.8201
-41.354
-43.9389
-45.3522
-45.4193
-44.0758
-41.4454
-37.8111
-33.5275
-28.939
-24.3356
-19.9528
-15.9772
-12.5238
-9.62593
-7.25281
-5.34088
-3.81975
-2.62295
-1.69122
-0.973627
-0.427559
-0.0180583
0.283238
0.49917
0.648017
0.744356
0.799817
0.823647
0.823181
0.804293
0.77173
0.729397
0.680586
0.628182
0.574782
0.522633
0.473514
0.428856
0.389503
0.354842
0.32304
0.289205
0.243246
0.173027
0.0746201
-0.0697311
-0.315541
-0.833421
-2.01084
-4.15598
-7.48766
-12.5624
-19.98
-29.5423
-39.9508
-49.0416
-54.8728
-56.5184
-54.2599
-49.1682
-43.0946
-37.6493
-33.0963
-28.7938
-24.3013
-19.6844
-15.2053
-11.1441
-7.76033
-5.19692
-3.43346
-2.3152
-1.76529
-1.39693
-1.14232
-0.359056
-0.528805
-6.40612
-6.5078
-6.8197
-8.22308
-11.6151
-17.4225
-24.3361
-29.2835
-29.9239
-26.1108
-19.2218
-11.8357
-6.49903
-4.0531
-4.06933
-5.98022
-9.25148
-13.3937
-18.0123
-22.7812
-27.4628
-31.8718
-35.8229
-39.1052
-41.4901
-42.773
-42.8054
-41.5517
-39.1399
-35.8233
-31.9031
-27.6749
-23.4055
-19.3277
-15.6188
-12.3783
-9.63328
-7.35925
-5.50613
-4.01609
-2.83185
-1.90055
-1.17576
-0.618026
-0.194496
0.121812
0.352858
0.516399
0.626711
0.695237
0.731176
0.7419
0.733336
0.710306
0.676799
0.636184
0.591423
0.545148
0.499638
0.456733
0.417934
0.384101
0.354774
0.328034
0.298984
0.2574
0.190561
0.0928606
-0.0526113
-0.299409
-0.806912
-1.95317
-4.07037
-7.39773
-12.4605
-19.824
-29.2939
-39.5911
-48.5886
-54.3877
-56.0862
-53.9596
-48.9927
-42.9575
-37.4188
-32.7295
-28.3666
-23.921
-19.4155
-15.0589
-11.098
-7.78214
-5.25981
-3.51916
-2.40866
-1.85511
-1.47966
-1.21308
-0.417087
-0.529076
-7.12039
-7.37583
-7.94103
-9.36268
-12.3272
-17.054
-22.5201
-26.2799
-26.493
-23.2136
-17.7266
-11.9821
-7.75517
-5.71316
-5.66762
-7.21279
-9.97622
-13.5748
-17.6702
-21.9625
-26.2119
-30.2294
-33.8352
-36.8304
-38.9977
-40.1521
-40.1751
-39.0483
-36.8801
-33.8803
-30.3045
-26.4191
-22.4803
-18.7096
-15.2645
-12.2302
-9.63233
-7.45549
-5.66218
-4.20537
-3.03591
-2.10702
-1.37669
-0.808573
-0.37197
-0.0413226
0.204399
0.382362
0.506502
0.588082
0.636192
0.658202
0.660089
0.646738
0.622207
0.589932
0.552943
0.513893
0.475093
0.438429
0.405407
0.376899
0.3526
0.330581
0.306051
0.268734
0.2053
0.108025
-0.0397095
-0.289353
-0.788469
-1.90018
-3.97719
-7.28025
-12.3021
-19.5663
-28.8826
-39.0045
-47.8617
-53.6091
-55.3679
-53.3916
-48.5907
-42.6528
-37.0928
-32.3316
-27.9465
-23.5613
-19.1644
-14.9209
-11.0512
-7.79697
-5.3124
-3.5933
-2.49105
-1.93536
-1.55487
-1.2781
-0.472561
-0.526607
-7.70875
-8.0556
-8.75253
-10.1241
-12.579
-16.1746
-20.1447
-22.839
-23.0172
-20.6027
-16.5203
-12.1559
-8.80686
-7.08724
-6.99654
-8.28054
-10.6449
-13.7768
-17.3906
-21.2273
-25.0588
-28.6916
-31.9473
-34.643
-36.5904
-37.6332
-37.6625
-36.6608
-34.7144
-31.9981
-28.7391
-25.1852
-21.5756
-18.1077
-14.9169
-12.0793
-9.62277
-7.5415
-5.80889
-4.38718
-3.2346
-2.31008
-1.57588
-0.998733
-0.550082
-0.205838
0.0540495
0.246114
0.383897
0.478445
0.538743
0.572112
0.584544
0.580975
0.565518
0.54167
0.512506
0.480694
0.448577
0.418089
0.390772
0.367479
0.348001
0.330409
0.310057
0.276799
0.216676
0.119757
-0.030903
-0.284649
-0.776943
-1.85068
-3.87403
-7.13005
-12.0795
-19.1985
-28.3008
-38.1848
-46.8552
-52.5296
-54.3537
-52.547
-47.9554
-42.1778
-36.6729
-31.9059
-27.5377
-23.2263
-18.9341
-14.7935
-11.0052
-7.80597
-5.35537
-3.65616
-2.56242
-2.00604
-1.62246
-1.33707
-0.525246
-0.521215
-8.21732
-8.61801
-9.35882
-10.6326
-12.6564
-15.3959
-18.2967
-20.3039
-20.5104
-18.7558
-15.6936
-12.3448
-9.68918
-8.26908
-8.16654
-9.23863
-11.2645
-13.9869
-17.1612
-20.5631
-23.9894
-27.2543
-30.1821
-32.6005
-34.3465
-35.2815
-35.3034
-34.3973
-32.6374
-30.1768
-27.2209
-23.9941
-20.7071
-17.5288
-14.5777
-11.9254
-9.60429
-7.61703
-5.94589
-4.56103
-3.42735
-2.50915
-1.77279
-1.18802
-0.728404
-0.371374
-0.0978962
0.107886
0.259082
0.366476
0.438921
0.483681
0.506734
0.513039
0.506752
0.491424
0.470158
0.44563
0.420217
0.395873
0.374143
0.35586
0.340895
0.327361
0.310761
0.281219
0.22418
0.127653
-0.0263108
-0.285202
-0.772592
-1.80652
-3.76327
-6.94773
-11.7918
-18.7202
-27.5496
-37.1335
-45.5691
-51.1476
-53.0405
-51.4245
-47.0877
-41.5374
-36.1661
-31.4587
-27.1462
-22.9205
-18.7281
-14.6797
-10.9623
-7.81093
-5.39007
-3.70857
-2.62303
-2.06677
-1.68159
-1.38902
-0.574599
-0.512932
-8.67941
-9.11213
-9.85131
-11.0111
-12.7009
-14.848
-17.0379
-18.5222
-18.6741
-17.3775
-15.079
-12.5205
-10.4415
-9.30001
-9.21635
-10.1205
-11.8545
-14.2108
-16.9833
-19.9757
-23.0073
-25.9103
-28.5206
-30.6777
-32.228
-33.0482
-33.0525
-32.2296
-30.6449
-28.4336
-25.7764
-22.8671
-19.8846
-16.975
-14.2461
-11.768
-9.57693
-7.6822
-6.07308
-4.72659
-3.6137
-2.70372
-1.96691
-1.37594
-0.906509
-0.537565
-0.251134
-0.0320776
0.132245
0.252323
0.336839
0.392974
0.426682
0.442921
0.445871
0.439114
0.425766
0.408517
0.38976
0.371472
0.355213
0.341782
0.331068
0.321251
0.307971
0.281737
0.227579
0.131493
-0.0258597
-0.290494
-0.774821
-1.76844
-3.64688
-6.73437
-11.4382
-18.1313
-26.6316
-35.8556
-44.0098
-49.4694
-51.4334
-50.0296
-45.9948
-40.7416
-35.5824
-30.998
-26.7782
-22.6477
-18.5495
-14.5819
-10.9249
-7.81373
-5.41795
-3.7515
-2.67331
-2.11751
-1.73188
-1.43348
-0.620237
-0.501806
-9.08301
-9.52828
-10.2377
-11.2752
-12.6848
-14.3785
-16.0402
-17.1497
-17.2785
-16.3325
-14.6176
-12.6786
-11.0744
-10.1812
-10.1338
-10.9081
-12.3954
-14.4332
-16.8473
-19.4663
-22.128
-24.6806
-26.977
-28.8723
-30.2285
-30.9381
-30.9282
-30.189
-28.7771
-26.8076
-24.4327
-21.8157
-19.1097
-16.4447
-13.9211
-11.6069
-9.54107
-7.7372
-6.19036
-4.88354
-3.79321
-2.89329
-2.15773
-1.56201
-1.08395
-0.704026
-0.40534
-0.173509
0.00360071
0.136151
0.232625
0.300091
0.344451
0.370653
0.382883
0.384732
0.379323
0.369357
0.357228
0.344916
0.333976
0.32518
0.31841
0.311932
0.301507
0.278087
0.226602
0.131045
-0.0295424
-0.300004
-0.782599
-1.73652
-3.52677
-6.49203
-11.0198
-17.4338
-25.5529
-34.3626
-42.1916
-47.5098
-49.5453
-48.3758
-44.6916
-39.8072
-34.9355
-30.5339
-26.4396
-22.4115
-18.4012
-14.5031
-10.8953
-7.81662
-5.44085
-3.78621
-2.71391
-2.15827
-1.77283
-1.46974
-0.661641
-0.487842
-9.43423
-9.87625
-10.5387
-11.453
-12.6248
-13.9664
-15.2405
-16.086
-16.2024
-15.5214
-14.2588
-12.8113
-11.5979
-10.9224
-10.9187
-11.5931
-12.8733
-14.6349
-16.7332
-19.0191
-21.3472
-23.5795
-25.5833
-27.2317
-28.4071
-29.0145
-28.9909
-28.3283
-27.0733
-25.3203
-23.1955
-20.8368
-18.3778
-15.9354
-13.6019
-11.4428
-9.49725
-7.78232
-6.29772
-5.03165
-3.96549
-3.07739
-2.34474
-1.74575
-1.2603
-0.870366
-0.560176
-0.316126
-0.126621
0.0181414
0.126413
0.205127
0.260107
0.296268
0.317783
0.328242
0.330762
0.328042
0.322464
0.316012
0.310234
0.30587
0.302766
0.29926
0.291221
0.270069
0.220928
0.126083
-0.0373069
-0.313228
-0.794817
-1.71065
-3.40555
-6.22507
-10.5408
-16.634
-24.3243
-32.6719
-40.1363
-45.2907
-47.3974
-46.4858
-43.2016
-38.757
-34.2417
-30.0779
-26.1359
-22.2153
-18.2862
-14.4459
-10.8764
-7.82215
-5.46092
-3.81427
-2.7457
-2.18927
-1.80422
-1.49736
-0.69838
-0.471116
-9.7354
-10.163
-10.7705
-11.5689
-12.5435
-13.6142
-14.6031
-15.2578
-15.3718
-14.8976
-13.9857
-12.9232
-12.0252
-11.5352
-11.5773
-12.1753
-13.2826
-14.8051
-16.6248
-18.614
-20.6443
-22.5913
-24.3352
-25.7646
-26.7774
-27.29
-27.2501
-26.6504
-25.528
-23.9601
-22.0518
-19.921
-17.6843
-15.4456
-13.2891
-11.2763
-9.44612
-7.81789
-6.39523
-5.17076
-4.13022
-3.25559
-2.5275
-1.9267
-1.4351
-1.03618
-0.715292
-0.459629
-0.258171
-0.101505
0.0183637
0.108201
0.173733
0.219818
0.250601
0.269651
0.280072
0.284553
0.285452
0.284737
0.283937
0.283772
0.284034
0.283124
0.276994
0.257533
0.210313
0.116348
-0.0491298
-0.329614
-0.810242
-1.69026
-3.28603
-5.94001
-10.0094
-15.7424
-22.9611
-30.8058
-37.8712
-42.84
-45.0183
-44.3918
-41.5586
-37.6187
-33.5215
-29.6411
-25.8719
-22.0626
-18.2076
-14.4135
-10.8713
-7.83333
-5.48071
-3.83753
-2.76978
-2.21092
-1.8259
-1.51594
-0.730016
-0.451792
-9.99228
-10.3981
-10.9481
-11.6413
-12.4536
-13.3155
-14.0941
-14.6134
-14.7312
-14.4152
-13.7721
-13.0109
-12.3676
-12.0347
-12.1211
-12.6596
-13.6222
-14.9384
-16.5127
-18.2374
-20.0006
-21.6917
-23.204
-24.438
-25.3041
-25.7305
-25.6735
-25.1253
-24.1153
-22.7073
-20.9894
-19.0624
-17.027
-14.9752
-12.9832
-11.1082
-9.38827
-7.84429
-6.483
-5.30078
-4.28714
-3.42754
-2.70556
-2.10442
-1.60793
-1.20107
-0.870325
-0.603705
-0.390785
-0.222568
-0.0913488
0.00944858
0.085427
0.141368
0.181368
0.208965
0.227232
0.238834
0.246099
0.250972
0.25496
0.258754
0.262098
0.263417
0.258735
0.240382
0.19458
0.101601
-0.0650542
-0.348703
-0.827628
-1.6742
-3.17059
-5.64484
-9.43808
-14.7747
-21.4839
-28.7913
-35.4293
-40.1907
-42.4394
-42.1254
-39.8015
-36.4231
-32.7968
-29.2331
-25.6526
-21.957
-18.1691
-14.4097
-10.8837
-7.85365
-5.50318
-3.85818
-2.78751
-2.22388
-1.83797
-1.52532
-0.75622
-0.430126
-10.2099
-10.5894
-11.0832
-11.6832
-12.3626
-13.0634
-13.6867
-14.1094
-14.2343
-14.0405
-13.6045
-13.0782
-12.6376
-12.4338
-12.56
-13.0512
-13.8927
-15.0317
-16.3914
-17.8815
-19.4056
-20.8666
-22.1703
-23.2283
-23.9629
-24.3121
-24.2378
-23.7323
-22.8194
-21.5516
-20.0026
-18.258
-16.405
-14.5244
-12.6848
-10.9392
-9.32433
-7.86197
-6.56126
-5.4217
-4.43606
-3.5929
-2.87854
-2.27846
-1.77835
-1.36464
-1.02491
-0.748028
-0.524179
-0.344811
-0.202528
-0.0909739
-0.0046906
0.0610055
0.110145
0.146216
0.172251
0.190882
0.20439
0.214691
0.223247
0.230736
0.236884
0.240072
0.236382
0.218574
0.173627
0.0816394
-0.0851937
-0.370184
-0.84587
-1.66093
-3.0608
-5.34819
-8.8433
-13.7531
-19.9225
-26.6618
-32.8488
-37.3866
-39.704
-39.7321
-37.9713
-35.2045
-32.0875
-28.8624
-25.4834
-21.9036
-18.1752
-14.4387
-10.9181
-7.88721
-5.53175
-3.87874
-2.80047
-2.22879
-1.84072
-1.52555
-0.776756
-0.406454
-10.3931
-10.7444
-11.1853
-11.7045
-12.2759
-12.8522
-13.3604
-13.7142
-13.8476
-13.7478
-13.4702
-13.1255
-12.8449
-12.7458
-12.9058
-13.3587
-14.0979
-15.0846
-16.2572
-17.5406
-18.8523
-20.1078
-21.2246
-22.1254
-22.7422
-23.0212
-22.9296
-22.4599
-21.6311
-20.4862
-19.0868
-17.5053
-15.8171
-14.093
-12.3943
-10.77
-9.25494
-7.87142
-6.63029
-5.53357
-4.57685
-3.75142
-3.04608
-2.44845
-1.94596
-1.52648
-1.17867
-0.892262
-0.658058
-0.467976
-0.31496
-0.19289
-0.0964795
-0.0211621
0.0370081
0.0814538
0.115153
0.14069
0.16029
0.175831
0.18874
0.199672
0.20832
0.213014
0.209904
0.192123
0.147442
0.056324
-0.109717
-0.393931
-0.864123
-1.64872
-2.95708
-5.05812
-8.24416
-12.7065
-18.3153
-24.4651
-30.1821
-34.4878
-36.8809
-37.2908
-36.128
-34.0003
-31.4091
-28.5371
-25.3711
-21.9086
-18.2319
-14.5064
-10.9797
-7.93882
-5.5703
-3.90202
-2.81043
-2.2264
-1.83476
-1.51695
-0.791535
-0.381181
-10.5473
-10.87
-11.2624
-11.7123
-12.1961
-12.6762
-13.0986
-13.4031
-13.5448
-13.5169
-13.3602
-13.155
-12.999
-12.9826
-13.1692
-13.5894
-14.2417
-15.0974
-16.1074
-17.2095
-18.3336
-19.4068
-20.3574
-21.118
-21.6294
-21.8452
-21.737
-21.2976
-20.5416
-19.5043
-18.2371
-16.8014
-15.2619
-13.6806
-12.1121
-10.6011
-9.18082
-7.87321
-6.69044
-5.63654
-4.70945
-3.90289
-3.20787
-2.614
-2.11037
-1.6862
-1.33124
-1.03606
-0.792111
-0.591792
-0.428408
-0.296101
-0.189776
-0.105003
-0.0379409
0.0147534
0.0559892
0.0882907
0.113815
0.13441
0.151453
0.165546
0.176357
0.182202
0.179304
0.161085
0.116099
0.0256073
-0.138816
-0.420028
-0.881899
-1.636
-2.85868
-4.78067
-7.65948
-11.6687
-16.7079
-22.2631
-27.5022
-31.5792
-34.0677
-34.8851
-34.3273
-32.8375
-30.7732
-28.266
-25.3241
-21.9805
-18.3473
-14.62
-11.0752
-8.014
-5.62314
-3.93107
-2.81934
-2.21798
-1.82091
-1.5001
-0.80061
-0.354758
-10.6761
-10.9711
-11.3203
-11.7115
-12.1246
-12.5299
-12.8881
-13.1568
-13.3061
-13.3329
-13.2673
-13.1679
-13.1075
-13.1549
-13.3611
-13.7524
-14.3302
-15.0729
-15.9418
-16.8852
-17.8442
-18.7565
-19.5599
-20.196
-20.6137
-20.773
-20.6491
-20.235
-19.542
-18.5991
-17.4489
-16.1434
-14.738
-13.2869
-11.8385
-10.4334
-9.10267
-7.86795
-6.74213
-5.7308
-4.83388
-4.04716
-3.36367
-2.7748
-2.27122
-1.84343
-1.48225
-1.17907
-0.926013
-0.715967
-0.542616
-0.400386
-0.284392
-0.190362
-0.114574
-0.053784
-0.00516384
0.0337342
0.0650001
0.0904467
0.111371
0.128327
0.14098
0.147643
0.144612
0.125558
0.0797581
-0.0104418
-0.17265
-0.448746
-0.899132
-1.62161
-2.764
-4.51887
-7.10449
-10.6732
-15.1519
-20.1225
-24.8936
-28.7572
-31.3516
-32.5715
-32.6008
-31.7301
-30.1894
-28.0588
-25.3534
-22.1306
-18.5317
-14.7887
-11.2123
-8.11903
-5.69495
-3.96913
-2.82927
-2.2051
-1.80021
-1.47584
-0.804193
-0.327673
-10.7842
-11.0531
-11.364
-11.7058
-12.0617
-12.4087
-12.7182
-12.9607
-13.1163
-13.1839
-13.186
-13.1658
-13.177
-13.2722
-13.491
-13.8557
-14.3686
-15.0138
-15.7601
-16.5652
-17.3796
-18.1503
-18.8239
-19.3501
-19.6849
-19.7939
-19.6555
-19.2628
-18.6246
-17.7644
-16.7178
-15.5286
-14.2442
-12.9116
-11.5738
-10.2673
-9.02122
-7.85628
-6.78582
-5.81662
-4.95021
-4.18416
-3.51325
-2.93056
-2.42815
-1.9978
-1.63132
-1.32094
-1.05943
-0.840195
-0.657308
-0.5055
-0.380112
-0.277051
-0.192733
-0.124025
-0.068195
-0.0228872
0.0139269
0.0439961
0.068529
0.0880532
0.10222
0.109367
0.105886
0.085669
0.0386385
-0.0516331
-0.211289
-0.480473
-0.91619
-1.60501
-2.67118
-4.27265
-6.58806
-9.74553
-13.6948
-18.1084
-22.4349
-26.099
-28.7917
-30.3889
-30.9689
-30.6875
-29.6662
-27.9272
-25.4734
-22.3736
-18.7984
-15.0237
-11.4002
-8.26076
-5.79059
-4.01944
-2.84227
-2.18924
-1.77381
-1.44514
-0.802639
-0.300422
-10.8742
-11.1191
-11.3966
-11.697
-12.0066
-12.308
-12.5801
-12.8027
-12.9626
-13.06
-13.1118
-13.1498
-13.2137
-13.3428
-13.5682
-13.9076
-14.3636
-14.9241
-15.564
-16.2488
-16.9369
-17.5835
-18.1431
-18.5727
-18.8345
-18.8989
-18.7472
-18.3727
-17.7822
-16.9948
-16.04
-14.9546
-13.7792
-12.5545
-11.3183
-10.1036
-8.9372
-7.83886
-6.82204
-5.89434
-5.05859
-4.31385
-3.65649
-3.08102
-2.58087
-2.14896
-1.7781
-1.46132
-1.19202
-0.964153
-0.772188
-0.611173
-0.476696
-0.364857
-0.272227
-0.195802
-0.132962
-0.08145
-0.0393112
-0.00487433
0.0229858
0.0447715
0.0601265
0.0674339
0.0632106
0.041571
-0.006986
-0.0976505
-0.254648
-0.5156
-0.933805
-1.58646
-2.57881
-4.03968
-6.11166
-8.89831
-12.3665
-16.2691
-20.1828
-23.656
-26.4259
-28.3545
-29.4339
-29.7117
-29.212
-27.8855
-25.7018
-22.7274
-19.1635
-15.338
-11.6487
-8.44643
-5.91497
-4.08512
-2.86024
-2.17179
-1.74299
-1.40905
-0.796448
-0.273494
-10.9496
-11.1727
-11.4211
-11.6869
-11.9589
-12.224
-12.467
-12.6739
-12.836
-12.9544
-13.0417
-13.1213
-13.2224
-13.3742
-13.6006
-13.9154
-14.3208
-14.8073
-15.3549
-15.9349
-16.5131
-17.0514
-17.5114
-17.8565
-18.0543
-18.0796
-17.9159
-17.5572
-17.0083
-16.285
-15.4116
-14.419
-13.3418
-12.2151
-11.0723
-9.94294
-8.85135
-7.8164
-6.85135
-5.96435
-5.15922
-4.4363
-3.79327
-3.22599
-2.72911
-2.29661
-1.92225
-1.59984
-1.32344
-1.08751
-0.886939
-0.71711
-0.57387
-0.453528
-0.352829
-0.26891
-0.199276
-0.14178
-0.0945576
-0.0560252
-0.0251335
-0.00140807
0.0147973
0.0219364
0.0166905
-0.00657667
-0.0568346
-0.148101
-0.302471
-0.554395
-0.95291
-1.56694
-2.48646
-3.81699
-5.67106
-8.13004
-11.1729
-14.6199
-18.156
-21.441
-24.2549
-26.46
-27.9883
-28.8029
-28.8366
-27.951
-26.0594
-23.213
-19.6452
-15.7462
-11.9686
-8.68336
-6.07273
-4.16886
-2.88475
-2.15404
-1.70901
-1.36881
-0.786244
-0.247342
-11.0123
-11.2158
-11.4392
-11.6758
-11.9171
-12.1531
-12.3729
-12.5668
-12.7292
-12.8615
-12.9731
-13.0813
-13.2072
-13.3727
-13.5955
-13.8861
-14.2462
-14.668
-15.1352
-15.6244
-16.1069
-16.5511
-16.9244
-17.1957
-17.3378
-17.3288
-17.1547
-16.8096
-16.2973
-15.6305
-14.8292
-13.9196
-12.9308
-11.8933
-10.8362
-9.78578
-8.76438
-7.7896
-6.87435
-6.02709
-5.25239
-4.5516
-3.92358
-3.36533
-2.87261
-2.44043
-2.06343
-1.73616
-1.45333
-1.20991
-1.00123
-0.822991
-0.671332
-0.542782
-0.434274
-0.343104
-0.266914
-0.203679
-0.151639
-0.109305
-0.075697
-0.0503649
-0.0336482
-0.0269998
-0.0335323
-0.0585819
-0.110597
-0.202518
-0.354313
-0.596877
-0.974402
-1.54798
-2.39498
-3.60264
-5.25988
-7.43
-10.1006
-13.1452
-16.3361
-19.4312
-22.2553
-24.687
-26.6224
-27.9622
-28.5521
-28.1439
-26.5707
-23.8547
-20.2646
-16.2644
-12.3711
-8.97874
-6.268
-4.27279
-2.91688
-2.13703
-1.67289
-1.32584
-0.772728
-0.222365
-11.0646
-11.2505
-11.4522
-11.6644
-11.8804
-12.0926
-12.2934
-12.4759
-12.6368
-12.7772
-12.9045
-13.0309
-13.172
-13.3438
-13.5591
-13.8258
-14.1448
-14.5096
-14.9068
-15.3171
-15.7167
-16.0792
-16.3773
-16.5848
-16.6785
-16.6399
-16.4567
-16.1237
-15.6437
-15.0268
-14.2898
-13.4543
-12.5452
-11.5886
-10.61
-9.63273
-8.677
-7.75918
-6.89168
-6.08305
-5.33841
-4.65993
-4.04742
-3.49893
-3.0112
-2.58018
-2.20132