/*--------------------------------*- C++ -*----------------------------------*\
  =========                 |
  \\      /  F ield         | OpenFOAM: The Open Source CFD Toolbox
   \\    /   O peration     | Website:  https://openfoam.org
    \\  /    A nd           | Version:  10
     \\/     M anipulation  |
\*---------------------------------------------------------------------------*/
FoamFile
{
    format      ascii;
    class       surfaceScalarField;
    location    "0.2";
    object      phi;
}
// * * * * * * * * * * * * * * * * * * * * * * * * * * * * * * * * * * * * * //

dimensions      [0 3 -1 0 0 0 0];

internalField   nonuniform List<scalar> 
13452
(
5.94497e-05
8.18734e-07
5.84614e-05
9.88371e-07
5.7428e-05
1.0334e-06
5.63624e-05
1.06552e-06
5.52934e-05
1.06904e-06
5.42325e-05
1.06094e-06
5.31832e-05
1.04928e-06
5.21474e-05
1.0358e-06
5.11257e-05
1.0217e-06
5.01178e-05
1.0079e-06
4.91228e-05
9.9499e-07
4.81394e-05
9.83426e-07
4.71657e-05
9.7364e-07
4.61997e-05
9.66069e-07
4.52385e-05
9.61192e-07
4.42789e-05
9.59576e-07
4.3317e-05
9.61923e-07
4.23479e-05
9.69117e-07
4.13656e-05
9.82299e-07
4.03626e-05
1.00294e-06
3.93297e-05
1.03294e-06
3.82549e-05
1.07477e-06
3.71234e-05
1.13155e-06
3.59161e-05
1.20726e-06
3.46092e-05
1.30685e-06
3.3173e-05
1.43622e-06
3.15708e-05
1.60224e-06
2.97584e-05
1.81233e-06
2.76862e-05
2.07224e-06
2.52949e-05
2.39133e-06
2.25468e-05
2.74812e-06
1.9346e-05
3.20074e-06
3.53236e-06
1.58137e-05
6.24903e-05
3.18743e-07
6.29649e-05
5.13816e-07
6.34099e-05
5.88355e-07
6.38159e-05
6.59593e-07
6.4175e-05
7.09898e-07
6.44869e-05
7.4901e-07
6.47529e-05
7.83259e-07
6.49752e-05
8.1351e-07
6.51563e-05
8.40679e-07
6.52983e-05
8.65808e-07
6.54036e-05
8.89709e-07
6.54739e-05
9.13129e-07
6.55107e-05
9.36832e-07
6.55152e-05
9.61631e-07
6.54879e-05
9.88421e-07
6.54293e-05
1.01823e-06
6.53389e-05
1.05231e-06
6.52158e-05
1.09217e-06
6.50584e-05
1.13972e-06
6.4864e-05
1.19739e-06
6.46286e-05
1.26832e-06
6.43468e-05
1.35657e-06
6.4011e-05
1.46738e-06
6.36107e-05
1.60756e-06
6.31317e-05
1.78585e-06
6.25546e-05
2.0133e-06
6.1853e-05
2.30385e-06
6.09915e-05
2.67383e-06
5.99208e-05
3.1429e-06
5.85816e-05
3.73059e-06
5.68749e-05
4.45477e-06
5.47394e-05
5.33622e-06
6.34483e-06
5.19269e-05
6.38332e-05
2.46923e-07
6.39055e-05
4.41495e-07
6.39696e-05
5.24348e-07
6.40348e-05
5.94368e-07
6.41005e-05
6.4413e-07
6.4169e-05
6.8059e-07
6.4241e-05
7.1124e-07
6.43165e-05
7.37964e-07
6.43952e-05
7.61996e-07
6.44764e-05
7.84593e-07
6.45594e-05
8.06719e-07
6.46434e-05
8.29193e-07
6.47274e-05
8.52823e-07
6.48105e-05
8.78448e-07
6.4892e-05
9.06981e-07
6.49707e-05
9.39469e-07
6.50459e-05
9.77161e-07
6.51165e-05
1.02159e-06
6.51815e-05
1.07465e-06
6.52402e-05
1.13876e-06
6.52915e-05
1.21699e-06
6.53348e-05
1.31331e-06
6.53694e-05
1.43279e-06
6.5395e-05
1.58198e-06
6.54115e-05
1.7693e-06
6.54194e-05
2.00543e-06
6.54191e-05
2.30411e-06
6.54109e-05
2.68201e-06
6.53932e-05
3.16059e-06
6.5361e-05
3.76282e-06
6.52958e-05
4.51995e-06
6.51739e-05
5.45815e-06
6.6004e-06
6.49183e-05
6.56393e-05
1.90741e-07
6.56877e-05
3.93037e-07
6.57182e-05
4.93812e-07
6.57395e-05
5.73073e-07
6.57526e-05
6.31101e-07
6.57593e-05
6.73852e-07
6.57612e-05
7.09308e-07
6.57591e-05
7.40115e-07
6.57534e-05
7.67722e-07
6.57444e-05
7.93563e-07
6.57323e-05
8.1878e-07
6.57172e-05
8.44333e-07
6.56989e-05
8.71148e-07
6.56771e-05
9.00178e-07
6.56517e-05
9.32441e-07
6.56221e-05
9.69086e-07
6.55878e-05
1.01145e-06
6.55482e-05
1.06114e-06
6.55028e-05
1.12011e-06
6.54507e-05
1.19078e-06
6.53916e-05
1.27614e-06
6.5325e-05
1.37995e-06
6.52509e-05
1.50689e-06
6.517e-05
1.6628e-06
6.50844e-05
1.85491e-06
6.49978e-05
2.09206e-06
6.49168e-05
2.38508e-06
6.48522e-05
2.74659e-06
6.48213e-05
3.19158e-06
6.48473e-05
3.73677e-06
6.4966e-05
4.40125e-06
6.52153e-05
5.2089e-06
6.16015e-06
6.56555e-05
6.74892e-05
1.58374e-07
6.75265e-05
3.5573e-07
6.7555e-05
4.65295e-07
6.75788e-05
5.4929e-07
6.75964e-05
6.13474e-07
6.76078e-05
6.62444e-07
6.76137e-05
7.03358e-07
6.76146e-05
7.39239e-07
6.76106e-05
7.71708e-07
6.76019e-05
8.0231e-07
6.75883e-05
8.32328e-07
6.75698e-05
8.62836e-07
6.75461e-05
8.94867e-07
6.75168e-05
9.29474e-07
6.74815e-05
9.67778e-07
6.74395e-05
1.01103e-06
6.73903e-05
1.06067e-06
6.73331e-05
1.11839e-06
6.7267e-05
1.18623e-06
6.71911e-05
1.26665e-06
6.71046e-05
1.36267e-06
6.70066e-05
1.47793e-06
6.68965e-05
1.61691e-06
6.67744e-05
1.78499e-06
6.66407e-05
1.98861e-06
6.64974e-05
2.23533e-06
6.63486e-05
2.53389e-06
6.62011e-05
2.89403e-06
6.60664e-05
3.32634e-06
6.59616e-05
3.84153e-06
6.59152e-05
4.44763e-06
6.59669e-05
5.15724e-06
5.95403e-06
6.6173e-05
6.94103e-05
1.32093e-07
6.94452e-05
3.20825e-07
6.94726e-05
4.37957e-07
6.94942e-05
5.27685e-07
6.95097e-05
5.97963e-07
6.95193e-05
6.5277e-07
6.95241e-05
6.98611e-07
6.95244e-05
7.38941e-07
6.95205e-05
7.7564e-07
6.95124e-05
8.10403e-07
6.95001e-05
8.44631e-07
6.94834e-05
8.79515e-07
6.94621e-05
9.16184e-07
6.94358e-05
9.55779e-07
6.9404e-05
9.99503e-07
6.93664e-05
1.04868e-06
6.93222e-05
1.10482e-06
6.92709e-05
1.16967e-06
6.92119e-05
1.2453e-06
6.91444e-05
1.33417e-06
6.90678e-05
1.4392e-06
6.89818e-05
1.56391e-06
6.88863e-05
1.71245e-06
6.87816e-05
1.88971e-06
6.86688e-05
2.10134e-06
6.85504e-05
2.35374e-06
6.84304e-05
2.65395e-06
6.83151e-05
3.00932e-06
6.82144e-05
3.42702e-06
6.81421e-05
3.91382e-06
6.81172e-05
4.47257e-06
6.8167e-05
5.1074e-06
5.79973e-06
6.83213e-05
7.13836e-05
1.14824e-07
7.14097e-05
2.94698e-07
7.14318e-05
4.15936e-07
7.14503e-05
5.09147e-07
7.14647e-05
5.83503e-07
7.14746e-05
6.42895e-07
7.14802e-05
6.93036e-07
7.14817e-05
7.37473e-07
7.14791e-05
7.78247e-07
7.14724e-05
8.17053e-07
7.14617e-05
8.55382e-07
7.14467e-05
8.94503e-07
7.14272e-05
9.35611e-07
7.14031e-05
9.79909e-07
7.1374e-05
1.02866e-06
7.13394e-05
1.08323e-06
7.12991e-05
1.14516e-06
7.12526e-05
1.2162e-06
7.11995e-05
1.29838e-06
7.11395e-05
1.39409e-06
7.10727e-05
1.50609e-06
7.0999e-05
1.63761e-06
7.0919e-05
1.79238e-06
7.08341e-05
1.97462e-06
7.07464e-05
2.18908e-06
7.06593e-05
2.44085e-06
7.0578e-05
2.73523e-06
7.051e-05
3.07733e-06
7.04656e-05
3.47143e-06
7.04587e-05
3.92068e-06
7.0507e-05
4.42432e-06
7.06334e-05
4.98093e-06
5.57236e-06
7.08608e-05
7.34181e-05
1.02006e-07
7.34406e-05
2.72206e-07
7.34614e-05
3.95145e-07
7.34792e-05
4.91295e-07
7.34932e-05
5.69529e-07
7.35027e-05
6.33449e-07
7.35078e-05
6.87912e-07
7.35088e-05
7.36405e-07
7.3506e-05
7.81094e-07
7.34993e-05
8.2378e-07
7.34887e-05
8.65991e-07
7.34741e-05
9.0907e-07
7.34554e-05
9.54279e-07
7.34325e-05
1.00287e-06
7.3405e-05
1.05614e-06
7.33727e-05
1.11548e-06
7.33355e-05
1.18242e-06
7.3293e-05
1.25867e-06
7.32452e-05
1.34619e-06
7.31921e-05
1.44721e-06
7.31339e-05
1.56425e-06
7.30713e-05
1.70019e-06
7.30055e-05
1.85823e-06
7.29382e-05
2.04189e-06
7.28724e-05
2.2549e-06
7.28122e-05
2.50104e-06
7.27635e-05
2.78389e-06
7.27344e-05
3.10647e-06
7.27353e-05
3.47052e-06
7.27798e-05
3.8762e-06
7.28842e-05
4.31991e-06
7.30688e-05
4.79634e-06
5.28776e-06
7.33534e-05
7.55117e-05
9.2794e-08
7.55294e-05
2.54451e-07
7.55467e-05
3.77919e-07
7.55617e-05
4.76237e-07
7.55739e-05
5.57366e-07
7.55825e-05
6.24846e-07
7.55875e-05
6.82931e-07
7.55889e-05
7.35003e-07
7.55867e-05
7.83226e-07
7.55811e-05
8.29418e-07
7.55719e-05
8.7518e-07
7.55591e-05
9.21895e-07
7.55425e-05
9.70854e-07
7.5522e-05
1.02333e-06
7.54976e-05
1.08063e-06
7.54689e-05
1.14412e-06
7.5436e-05
1.2153e-06
7.53989e-05
1.2958e-06
7.53577e-05
1.38745e-06
7.53126e-05
1.49226e-06
7.52644e-05
1.61249e-06
7.5214e-05
1.7506e-06
7.5163e-05
1.90921e-06
7.51138e-05
2.0911e-06
7.50697e-05
2.29899e-06
7.50353e-05
2.53544e-06
7.50167e-05
2.80247e-06
7.50219e-05
3.10129e-06
7.50608e-05
3.43159e-06
7.51457e-05
3.79125e-06
7.5291e-05
4.17469e-06
7.5513e-05
4.57426e-06
4.97315e-06
7.58276e-05
7.76664e-05
8.59519e-08
7.7681e-05
2.39843e-07
7.76964e-05
3.62556e-07
7.77104e-05
4.62212e-07
7.77221e-05
5.45647e-07
7.77307e-05
6.16254e-07
7.7736e-05
6.7769e-07
7.77379e-05
7.33072e-07
7.77365e-05
7.84638e-07
7.77317e-05
8.34177e-07
7.77236e-05
8.83278e-07
7.77122e-05
9.33353e-07
7.76973e-05
9.85707e-07
7.7679e-05
1.04162e-06
7.76573e-05
1.10237e-06
7.76321e-05
1.16931e-06
7.76035e-05
1.24386e-06
7.75718e-05
1.32755e-06
7.75372e-05
1.42202e-06
7.75004e-05
1.52907e-06
7.74623e-05
1.65062e-06
7.74242e-05
1.78868e-06
7.73881e-05
1.9453e-06
7.73567e-05
2.12251e-06
7.73336e-05
2.3221e-06
7.73235e-05
2.54549e-06
7.73326e-05
2.79341e-06
7.73683e-05
3.06556e-06
7.74398e-05
3.36009e-06
7.75578e-05
3.6733e-06
7.7734e-05
3.99849e-06
7.79813e-05
4.32689e-06
4.64318e-06
7.83113e-05
7.98835e-05
8.07872e-08
7.98953e-05
2.27991e-07
7.99085e-05
3.49425e-07
7.99207e-05
4.49975e-07
7.99311e-05
5.35247e-07
7.99389e-05
6.08416e-07
7.99439e-05
6.72694e-07
7.9946e-05
7.30976e-07
7.99452e-05
7.85443e-07
7.99415e-05
8.37887e-07
7.99349e-05
8.8989e-07
7.99254e-05
9.42866e-07
7.9913e-05
9.98117e-07
7.98977e-05
1.0569e-06
7.98796e-05
1.12047e-06
7.98588e-05
1.19011e-06
7.98355e-05
1.26713e-06
7.98101e-05
1.35293e-06
7.97832e-05
1.44896e-06
7.97555e-05
1.55674e-06
7.97283e-05
1.67785e-06
7.97031e-05
1.81384e-06
7.96822e-05
1.96621e-06
7.96685e-05
2.13626e-06
7.96656e-05
2.32496e-06
7.96784e-05
2.53276e-06
7.97125e-05
2.7593e-06
7.97749e-05
3.00317e-06
7.98735e-05
3.26142e-06
8.00174e-05
3.52942e-06
8.02159e-05
3.80002e-06
8.04785e-05
4.06424e-06
4.30864e-06
8.08131e-05
8.21644e-05
7.67988e-08
8.21742e-05
2.18231e-07
8.21857e-05
3.37929e-07
8.21969e-05
4.38792e-07
8.22068e-05
5.25347e-07
8.22146e-05
6.00542e-07
8.22201e-05
6.67219e-07
8.22231e-05
7.28024e-07
8.22234e-05
7.85074e-07
8.22212e-05
8.40119e-07
8.22164e-05
8.94705e-07
8.2209e-05
9.5022e-07
8.21992e-05
1.00794e-06
8.2187e-05
1.06909e-06
8.21726e-05
1.13486e-06
8.21563e-05
1.20644e-06
8.21384e-05
1.28504e-06
8.21194e-05
1.37189e-06
8.21002e-05
1.46824e-06
8.20816e-05
1.57532e-06
8.20651e-05
1.69434e-06
8.20525e-05
1.82644e-06
8.20461e-05
1.97257e-06
8.2049e-05
2.1334e-06
8.20648e-05
2.30919e-06
8.20979e-05
2.49959e-06
8.21538e-05
2.70344e-06
8.22385e-05
2.91849e-06
8.23587e-05
3.14117e-06
8.25217e-05
3.3664e-06
8.27346e-05
3.58711e-06
8.30041e-05
3.79476e-06
3.97796e-06
8.33348e-05
8.45109e-05
7.36388e-08
8.45191e-05
2.10113e-07
8.45291e-05
3.27882e-07
8.45392e-05
4.28687e-07
8.45484e-05
5.16145e-07
8.4556e-05
5.92938e-07
8.45616e-05
6.61597e-07
8.45651e-05
7.24534e-07
8.45664e-05
7.83766e-07
8.45656e-05
8.4099e-07
8.45626e-05
8.97705e-07
8.45575e-05
9.55264e-07
8.45505e-05
1.01491e-06
8.45418e-05
1.0778e-06
8.45316e-05
1.14506e-06
8.45203e-05
1.21778e-06
8.45083e-05
1.29704e-06
8.44963e-05
1.38388e-06
8.44852e-05
1.47933e-06
8.44762e-05
1.58436e-06
8.44707e-05
1.69982e-06
8.44707e-05
1.82645e-06
8.44786e-05
1.9647e-06
8.44972e-05
2.11473e-06
8.45302e-05
2.27619e-06
8.45817e-05
2.44813e-06
8.46563e-05
2.6288e-06
8.47594e-05
2.81547e-06
8.48963e-05
3.00425e-06
8.50726e-05
3.19004e-06
8.52935e-05
3.36621e-06
8.55632e-05
3.52507e-06
3.65724e-06
8.5884e-05
8.69247e-05
7.10644e-08
8.69316e-05
2.0324e-07
8.69405e-05
3.18955e-07
8.69499e-05
4.19326e-07
8.69588e-05
5.07257e-07
8.69666e-05
5.85169e-07
8.69728e-05
6.55344e-07
8.69774e-05
7.19983e-07
8.69801e-05
7.80985e-07
8.69812e-05
8.39978e-07
8.69805e-05
8.98403e-07
8.69782e-05
9.57555e-07
8.69745e-05
1.01862e-06
8.69696e-05
1.08268e-06
8.69639e-05
1.15078e-06
8.69577e-05
1.22389e-06
8.69518e-05
1.30294e-06
8.69469e-05
1.38881e-06
8.6944e-05
1.48228e-06
8.69443e-05
1.58406e-06
8.69494e-05
1.6947e-06
8.69613e-05
1.81454e-06
8.69823e-05
1.94366e-06
8.70153e-05
2.08173e-06
8.70635e-05
2.22799e-06
8.71306e-05
2.38104e-06
8.72207e-05
2.53875e-06
8.7338e-05
2.69818e-06
8.74868e-05
2.85542e-06
8.76712e-05
3.00561e-06
8.78946e-05
3.14281e-06
8.81593e-05
3.26036e-06
3.35082e-06
8.84657e-05
8.94077e-05
6.88989e-08
8.94137e-05
1.97287e-07
8.94217e-05
3.1089e-07
8.94305e-05
4.10532e-07
8.94392e-05
4.98582e-07
8.94471e-05
5.77216e-07
8.9454e-05
6.48501e-07
8.94595e-05
7.14438e-07
8.94637e-05
7.76802e-07
8.94666e-05
8.37135e-07
8.94682e-05
8.96808e-07
8.94687e-05
9.57049e-07
8.94683e-05
1.01897e-06
8.94674e-05
1.08359e-06
8.94663e-05
1.15183e-06
8.94657e-05
1.22456e-06
8.94661e-05
1.30255e-06
8.94684e-05
1.3865e-06
8.94737e-05
1.47699e-06
8.94832e-05
1.57447e-06
8.94987e-05
1.67921e-06
8.95221e-05
1.79123e-06
8.95554e-05
1.91026e-06
8.96015e-05
2.03567e-06
8.96632e-05
2.16634e-06
8.97436e-05
2.3006e-06
8.98462e-05
2.43618e-06
8.99743e-05
2.57007e-06
9.01311e-05
2.69857e-06
9.03195e-05
2.81724e-06
9.05413e-05
2.92097e-06
9.07975e-05
3.0042e-06
3.0612e-06
9.10871e-05
9.19617e-05
6.70118e-08
9.1967e-05
1.91985e-07
9.19745e-05
3.03428e-07
9.1983e-05
4.02067e-07
9.19917e-05
4.89876e-07
9.20001e-05
5.68819e-07
9.20078e-05
6.40773e-07
9.20147e-05
7.07566e-07
9.20206e-05
7.70847e-07
9.20257e-05
8.32067e-07
9.203e-05
8.92518e-07
9.20337e-05
9.53351e-07
9.20371e-05
1.0156e-06
9.20405e-05
1.08018e-06
9.20444e-05
1.14793e-06
9.20494e-05
1.21957e-06
9.20562e-05
1.29575e-06
9.20657e-05
1.37697e-06
9.20791e-05
1.46362e-06
9.20976e-05
1.55594e-06
9.21229e-05
1.65394e-06
9.21567e-05
1.75739e-06
9.22012e-05
1.86577e-06
9.22587e-05
1.97818e-06
9.23317e-05
2.09331e-06
9.24229e-05
2.20937e-06
9.25351e-05
2.32405e-06
9.26707e-05
2.43447e-06
9.2832e-05
2.53725e-06
9.30207e-05
2.62852e-06
9.32377e-05
2.70398e-06
9.34827e-05
2.75917e-06
2.78985e-06
9.37541e-05
9.45889e-05
6.53029e-08
9.45937e-05
1.87108e-07
9.46008e-05
2.96336e-07
9.46092e-05
3.93718e-07
9.46181e-05
4.80957e-07
9.46271e-05
5.59825e-07
9.46358e-05
6.32041e-07
9.46441e-05
6.99274e-07
9.46519e-05
7.63048e-07
9.46593e-05
8.24716e-07
9.46663e-05
8.85479e-07
9.46733e-05
9.46406e-07
9.46804e-05
1.00844e-06
9.46882e-05
1.07241e-06
9.46971e-05
1.13904e-06
9.47077e-05
1.20893e-06
9.47209e-05
1.28257e-06
9.47375e-05
1.36034e-06
9.47587e-05
1.44243e-06
9.47858e-05
1.52887e-06
9.48202e-05
1.6195e-06
9.48637e-05
1.71389e-06
9.49182e-05
1.81131e-06
9.49856e-05
1.91073e-06
9.50682e-05
2.01074e-06
9.51681e-05
2.10951e-06
9.52873e-05
2.20483e-06
9.54277e-05
2.29407e-06
9.55907e-05
2.37423e-06
9.57772e-05
2.44204e-06
9.59871e-05
2.49402e-06
9.62196e-05
2.52669e-06
2.53702e-06
9.64725e-05
9.72911e-05
6.36932e-08
9.72958e-05
1.82465e-07
9.73027e-05
2.89396e-07
9.73112e-05
3.85275e-07
9.73205e-05
4.71613e-07
9.73303e-05
5.50025e-07
9.73402e-05
6.2209e-07
9.73502e-05
6.89332e-07
9.73601e-05
7.53157e-07
9.737e-05
8.14816e-07
9.738e-05
8.75421e-07
9.73905e-05
9.35949e-07
9.74017e-05
9.97253e-07
9.7414e-05
1.06007e-06
9.74281e-05
1.125e-06
9.74445e-05
1.19254e-06
9.7464e-05
1.26306e-06
9.74875e-05
1.33676e-06
9.75163e-05
1.41371e-06
9.75514e-05
1.49378e-06
9.75942e-05
1.57664e-06
9.76464e-05
1.66172e-06
9.77095e-05
1.74819e-06
9.77853e-05
1.83492e-06
9.78756e-05
1.9205e-06
9.79819e-05
2.00317e-06
9.81059e-05
2.08088e-06
9.82486e-05
2.1513e-06
9.8411e-05
2.21187e-06
9.85931e-05
2.25991e-06
9.87945e-05
2.29268e-06
9.90136e-05
2.30756e-06
2.30253e-06
9.92481e-05
0.000100071
6.21182e-08
0.000100075
1.77892e-07
0.000100082
2.82409e-07
0.000100091
3.76536e-07
0.000100101
4.61651e-07
0.000100112
5.39239e-07
0.000100123
6.10754e-07
0.000100135
6.77593e-07
0.000100147
7.41044e-07
0.000100159
8.02259e-07
0.000100173
8.62254e-07
0.000100187
9.21915e-07
0.000100202
9.82003e-07
0.000100219
1.04315e-06
0.000100238
1.10587e-06
0.00010026
1.17055e-06
0.000100286
1.23741e-06
0.000100316
1.30656e-06
0.000100352
1.37793e-06
0.000100394
1.45128e-06
0.000100445
1.52615e-06
0.000100504
1.6019e-06
0.000100575
1.67763e-06
0.000100658
1.75221e-06
0.000100754
1.82426e-06
0.000100865
1.89217e-06
0.000100992
1.9541e-06
0.000101135
2.00805e-06
0.000101295
2.0519e-06
0.000101471
2.08351e-06
0.000101663
2.10081e-06
0.000101869
2.1019e-06
2.0855e-06
0.000102086
0.00010293
6.05241e-08
0.000102934
1.73247e-07
0.000102942
2.75196e-07
0.000102951
3.67311e-07
0.000102962
4.5088e-07
0.000102973
5.27279e-07
0.000102986
5.9785e-07
0.000103
6.63874e-07
0.000103015
7.26531e-07
0.00010303
7.8687e-07
0.000103046
8.45815e-07
0.000103064
9.04161e-07
0.000103084
9.62577e-07
0.000103105
1.0216e-06
0.000103129
1.08166e-06
0.000103157
1.14301e-06
0.000103189
1.20581e-06
0.000103225
1.27005e-06
0.000103267
1.33556e-06
0.000103317
1.402e-06
0.000103374
1.46887e-06
0.00010344
1.53546e-06
0.000103517
1.60087e-06
0.000103605
1.66401e-06
0.000103706
1.7236e-06
0.00010382
1.77819e-06
0.000103948
1.82619e-06
0.00010409
1.86592e-06
0.000104246
1.89569e-06
0.000104416
1.91385e-06
0.000104598
1.91889e-06
0.00010479
1.90949e-06
1.88493e-06
0.000104991
0.00010587
5.88649e-08
0.000105875
1.68407e-07
0.000105883
2.6759e-07
0.000105893
3.57418e-07
0.000105904
4.39117e-07
0.000105918
5.13965e-07
0.000105932
5.83209e-07
0.000105948
6.48023e-07
0.000105965
7.09481e-07
0.000105984
7.68538e-07
0.000106003
8.26023e-07
0.000106025
8.82642e-07
0.000106049
9.38976e-07
0.000106075
9.95479e-07
0.000106104
1.05248e-06
0.000106137
1.11016e-06
0.000106174
1.16858e-06
0.000106216
1.22766e-06
0.000106265
1.28715e-06
0.00010632
1.34667e-06
0.000106383
1.40566e-06
0.000106455
1.46342e-06
0.000106537
1.51908e-06
0.00010663
1.57162e-06
0.000106733
1.61988e-06
0.000106849
1.66261e-06
0.000106977
1.69847e-06
0.000107116
1.7261e-06
0.000107268
1.74419e-06
0.00010743
1.7515e-06
0.000107602
1.74698e-06
0.000107782
1.72977e-06
1.69954e-06
0.000107967
0.000108895
5.71006e-08
0.0001089
1.63262e-07
0.000108908
2.59441e-07
0.000108919
3.46692e-07
0.000108932
4.26189e-07
0.000108947
4.99132e-07
0.000108963
5.66676e-07
0.000108982
6.29898e-07
0.000109001
6.89772e-07
0.000109023
7.47161e-07
0.000109046
8.02803e-07
0.000109071
8.57321e-07
0.000109099
9.1121e-07
0.00010913
9.64846e-07
0.000109164
1.01847e-06
0.000109202
1.07221e-06
0.000109244
1.12605e-06
0.000109292
1.17983e-06
0.000109346
1.23328e-06
0.000109407
1.28598e-06
0.000109475
1.33736e-06
0.000109551
1.38676e-06
0.000109637
1.43334e-06
0.000109733
1.4762e-06
0.000109838
1.51432e-06
0.000109954
1.54664e-06
0.000110081
1.57208e-06
0.000110217
1.58955e-06
0.000110363
1.59808e-06
0.000110518
1.59676e-06
0.00011068
1.58492e-06
0.000110848
1.56205e-06
1.52811e-06
0.000111019
0.000112006
5.51955e-08
0.000112012
1.57714e-07
0.000112021
2.5061e-07
0.000112032
3.34973e-07
0.000112047
4.11932e-07
0.000112063
4.82616e-07
0.000112082
5.48096e-07
0.000112102
6.09358e-07
0.000112125
6.67283e-07
0.000112149
7.22645e-07
0.000112176
7.76099e-07
0.000112205
8.28184e-07
0.000112237
8.7932e-07
0.000112272
9.29808e-07
0.000112311
9.79829e-07
0.000112354
1.02944e-06
0.000112401
1.07857e-06
0.000112454
1.12704e-06
0.000112513
1.17453e-06
0.000112578
1.22063e-06
0.000112651
1.26479e-06
0.000112731
1.30637e-06
0.00011282
1.34463e-06
0.000112917
1.37878e-06
0.000113023
1.40795e-06
0.000113139
1.43126e-06
0.000113263
1.44786e-06
0.000113396
1.45693e-06
0.000113536
1.45774e-06
0.000113683
1.4497e-06
0.000113836
1.43239e-06
0.000113992
1.40556e-06
1.36938e-06
0.000114151
0.000115207
5.31186e-08
0.000115213
1.51677e-07
0.000115222
2.40975e-07
0.000115235
3.2212e-07
0.000115251
3.96203e-07
0.000115269
4.64283e-07
0.00011529
5.27353e-07
0.000115313
5.86312e-07
0.000115338
6.41954e-07
0.000115366
6.94968e-07
0.000115396
7.45928e-07
0.000115429
7.95298e-07
0.000115465
8.43428e-07
0.000115504
8.90556e-07
0.000115547
9.36804e-07
0.000115594
9.82183e-07
0.000115646
1.02659e-06
0.000115704
1.06981e-06
0.000115767
1.11153e-06
0.000115836
1.15134e-06
0.000115912
1.18873e-06
0.000115995
1.22312e-06
0.000116086
1.25387e-06
0.000116184
1.28028e-06
0.000116291
1.30165e-06
0.000116405
1.31728e-06
0.000116526
1.3265e-06
0.000116654
1.32871e-06
0.000116789
1.32341e-06
0.000116928
1.31023e-06
0.000117072
1.28895e-06
0.000117218
1.25952e-06
1.22221e-06
0.000117365
0.000118498
5.08403e-08
0.000118505
1.45069e-07
0.000118515
2.30415e-07
0.000118529
3.07991e-07
0.000118547
3.78847e-07
0.000118567
4.43976e-07
0.00011859
5.04295e-07
0.000118616
5.60621e-07
0.000118644
6.13668e-07
0.000118675
6.64041e-07
0.000118709
7.1224e-07
0.000118745
7.58659e-07
0.000118785
8.03587e-07
0.000118829
8.47205e-07
0.000118876
8.8959e-07
0.000118927
9.30717e-07
0.000118983
9.70458e-07
0.000119045
1.00859e-06
0.000119111
1.04481e-06
0.000119184
1.07873e-06
0.000119263
1.10988e-06
0.000119348
1.13775e-06
0.00011944
1.1618e-06
0.000119539
1.18145e-06
0.000119645
1.19614e-06
0.000119757
1.20531e-06
0.000119875
1.20847e-06
0.000119998
1.2052e-06
0.000120126
1.19516e-06
0.000120258
1.17817e-06
0.000120393
1.15415e-06
0.00012053
1.12318e-06
1.08559e-06
0.000120666
0.000121884
4.83362e-08
0.000121891
1.37821e-07
0.000121903
2.18834e-07
0.000121918
2.92482e-07
0.000121937
3.59768e-07
0.00012196
4.21619e-07
0.000121985
4.78878e-07
0.000122013
5.3228e-07
0.000122045
5.82458e-07
0.000122079
6.29943e-07
0.000122116
6.75163e-07
0.000122156
7.1845e-07
0.000122199
7.60035e-07
0.000122247
8.00055e-07
0.000122298
8.3855e-07
0.000122353
8.75469e-07
0.000122413
9.10674e-07
0.000122477
9.43944e-07
0.000122547
9.74988e-07
0.000122622
1.00345e-06
0.000122703
1.02893e-06
0.00012279
1.05099e-06
0.000122883
1.06916e-06
0.000122981
1.08299e-06
0.000123085
1.09203e-06
0.000123195
1.09587e-06
0.000123309
1.09414e-06
0.000123428
1.08658e-06
0.00012355
1.07298e-06
0.000123675
1.05328e-06
0.000123801
1.02751e-06
0.000123929
9.95817e-07
9.58574e-07
0.000124056
0.000125366
4.55769e-08
0.000125374
1.29852e-07
0.000125387
2.06106e-07
0.000125404
2.75433e-07
0.000125425
3.38782e-07
0.00012545
3.97016e-07
0.000125478
4.50901e-07
0.000125509
5.01096e-07
0.000125543
5.48156e-07
0.00012558
5.92538e-07
0.000125621
6.34605e-07
0.000125665
6.74629e-07
0.000125712
7.12793e-07
0.000125763
7.49194e-07
0.000125818
7.83843e-07
0.000125876
8.16674e-07
0.00012594
8.47545e-07
0.000126007
8.76242e-07
0.00012608
9.02501e-07
0.000126157
9.2601e-07
0.00012624
9.46424e-07
0.000126327
9.63374e-07
0.00012642
9.76487e-07
0.000126518
9.85395e-07
0.00012662
9.8976e-07
0.000126726
9.89282e-07
0.000126837
9.83723e-07
0.00012695
9.72912e-07
0.000127067
9.56764e-07
0.000127185
9.35287e-07
0.000127304
9.08589e-07
0.000127423
8.76861e-07
8.40488e-07
0.000127541
0.000128948
4.25486e-08
0.000128957
1.2112e-07
0.000128971
1.92188e-07
0.000128989
2.56818e-07
0.000129012
3.15901e-07
0.000129039
3.70221e-07
0.00012907
4.20468e-07
0.000129103
4.67218e-07
0.000129141
5.10952e-07
0.000129181
5.52058e-07
0.000129225
5.90835e-07
0.000129272
6.27506e-07
0.000129323
6.62209e-07
0.000129377
6.95008e-07
0.000129435
7.25895e-07
0.000129497
7.54793e-07
0.000129563
7.81563e-07
0.000129633
8.06013e-07
0.000129707
8.27907e-07
0.000129786
8.46976e-07
0.00012987
8.6293e-07
0.000129958
8.75467e-07
0.00013005
8.8429e-07
0.000130146
8.89118e-07
0.000130246
8.89704e-07
0.00013035
8.85841e-07
0.000130456
8.77379e-07
0.000130565
8.64232e-07
0.000130675
8.46387e-07
0.000130787
8.23909e-07
0.000130898
7.96945e-07
0.000131009
7.65702e-07
7.30548e-07
0.000131119
0.000132632
3.91988e-08
0.000132642
1.11489e-07
0.000132657
1.76858e-07
0.000132678
2.36347e-07
0.000132703
2.90779e-07
0.000132732
3.40862e-07
0.000132766
3.87201e-07
0.000132803
4.30291e-07
0.000132843
4.70532e-07
0.000132887
5.08243e-07
0.000132934
5.43662e-07
0.000132984
5.76961e-07
0.000133038
6.0824e-07
0.000133096
6.37535e-07
0.000133157
6.64819e-07
0.000133222
6.90014e-07
0.00013329
7.1299e-07
0.000133363
7.33577e-07
0.000133439
7.51569e-07
0.000133519
7.6674e-07
0.000133603
7.7885e-07
0.000133691
7.87659e-07
0.000133783
7.92939e-07
0.000133877
7.94481e-07
0.000133975
7.92111e-07
0.000134075
7.85697e-07
0.000134177
7.75158e-07
0.000134281
7.60469e-07
0.000134386
7.41669e-07
0.000134491
7.1886e-07
0.000134595
6.9221e-07
0.000134699
6.61936e-07
6.28384e-07
0.000134801
0.000136422
3.55614e-08
0.000136432
1.0102e-07
0.000136449
1.60246e-07
0.000136471
2.14231e-07
0.000136498
2.63706e-07
0.00013653
3.09287e-07
0.000136565
3.51489e-07
0.000136605
3.90723e-07
0.000136648
4.27312e-07
0.000136695
4.61508e-07
0.000136745
4.93494e-07
0.000136799
5.23395e-07
0.000136856
5.51279e-07
0.000136916
5.77161e-07
0.00013698
6.01006e-07
0.000137047
6.22735e-07
0.000137118
6.42228e-07
0.000137192
6.59336e-07
0.00013727
6.73883e-07
0.000137351
6.85684e-07
0.000137435
6.94545e-07
0.000137523
7.0028e-07
0.000137613
7.02717e-07
0.000137706
7.01709e-07
0.000137801
6.9714e-07
0.000137897
6.88934e-07
0.000137995
6.7706e-07
0.000138094
6.61535e-07
0.000138194
6.42428e-07
0.000138293
6.1986e-07
0.000138391
5.94001e-07
0.000138488
5.65054e-07
5.33334e-07
0.000138583
0.00014032
3.14453e-08
0.000140332
8.92911e-08
0.00014035
1.41727e-07
0.000140375
1.89716e-07
0.000140404
2.33874e-07
0.000140439
2.74698e-07
0.000140478
3.12593e-07
0.000140521
3.47869e-07
0.000140567
3.80762e-07
0.000140617
4.11449e-07
0.000140671
4.40055e-07
0.000140728
4.66656e-07
0.000140788
4.91293e-07
0.000140851
5.13961e-07
0.000140917
5.34618e-07
0.000140987
5.53186e-07
0.000141059
5.6956e-07
0.000141135
5.83611e-07
0.000141214
5.95195e-07
0.000141295
6.04158e-07
0.00014138
6.10353e-07
0.000141466
6.13636e-07
0.000141555
6.13886e-07
0.000141646
6.11001e-07
0.000141738
6.04911e-07
0.000141831
5.95583e-07
0.000141925
5.83022e-07
0.00014202
5.67272e-07
0.000142114
5.48423e-07
0.000142207
5.26602e-07
0.000142299
5.0198e-07
0.000142389
4.74751e-07
4.45201e-07
0.000142477
0.000144329
2.7153e-08
0.000144341
7.68293e-08
0.000144361
1.22045e-07
0.000144387
1.63666e-07
0.000144419
2.02168e-07
0.000144456
2.37939e-07
0.000144497
2.71277e-07
0.000144542
3.02394e-07
0.000144592
3.31443e-07
0.000144645
3.58527e-07
0.000144701
3.83714e-07
0.000144761
4.07042e-07
0.000144823
4.28519e-07
0.000144889
4.48125e-07
0.000144958
4.65812e-07
0.00014503
4.81504e-07
0.000145104
4.95106e-07
0.000145181
5.06509e-07
0.000145261
5.15594e-07
0.000145343
5.2224e-07
0.000145427
5.26332e-07
0.000145513
5.27765e-07
0.0001456
5.26455e-07
0.000145689
5.22335e-07
0.000145778
5.15372e-07
0.000145868
5.05558e-07
0.000145958
4.9292e-07
0.000146048
4.7752e-07
0.000146137
4.59451e-07
0.000146225
4.38837e-07
0.000146311
4.15835e-07
0.000146395
3.9061e-07
3.63415e-07
0.000146477
0.000148453
2.1773e-08
0.000148468
6.20607e-08
0.000148491
9.93075e-08
0.00014852
1.34206e-07
0.000148556
1.66917e-07
0.000148596
1.97623e-07
0.000148641
2.26465e-07
0.00014869
2.53529e-07
0.000148742
2.78867e-07
0.000148798
3.02502e-07
0.000148857
3.24445e-07
0.00014892
3.44694e-07
0.000148985
3.63232e-07
0.000149053
3.80027e-07
0.000149124
3.95026e-07
0.000149197
4.08163e-07
0.000149273
4.19357e-07
0.000149351
4.28515e-07
0.000149431
4.35543e-07
0.000149513
4.40348e-07
0.000149596
4.42842e-07
0.000149681
4.42953e-07
0.000149767
4.40621e-07
0.000149854
4.35812e-07
0.00014994
4.28512e-07
0.000150027
4.18736e-07
0.000150114
4.06524e-07
0.000150199
3.91945e-07
0.000150284
3.75094e-07
0.000150366
3.56091e-07
0.000150447
3.3508e-07
0.000150526
3.12213e-07
2.87712e-07
0.000150601
0.000152694
1.69307e-08
0.000152709
4.71281e-08
0.000152732
7.57745e-08
0.000152763
1.03295e-07
0.000152801
1.29661e-07
0.000152843
1.54873e-07
0.000152891
1.78894e-07
0.000152943
2.01691e-07
0.000152998
2.23198e-07
0.000153058
2.43336e-07
0.00015312
2.62048e-07
0.000153185
2.79293e-07
0.000153254
2.95029e-07
0.000153324
3.09212e-07
0.000153398
3.21789e-07
0.000153473
3.32694e-07
0.000153551
3.41856e-07
0.00015363
3.49196e-07
0.000153711
3.54637e-07
0.000153793
3.58108e-07
0.000153876
3.59543e-07
0.00015396
3.58891e-07
0.000154045
3.56115e-07
0.00015413
3.51197e-07
0.000154214
3.44138e-07
0.000154298
3.34962e-07
0.000154381
3.23713e-07
0.000154462
3.10458e-07
0.000154542
2.95284e-07
0.00015462
2.78296e-07
0.000154695
2.59618e-07
0.000154768
2.39369e-07
2.17736e-07
0.000154838
0.00015706
8.63881e-09
0.00015708
2.7289e-08
0.000157108
4.7236e-08
0.000157144
6.7853e-08
0.000157185
8.84193e-08
0.000157231
1.0864e-07
0.000157282
1.28244e-07
0.000157336
1.47076e-07
0.000157395
1.64967e-07
0.000157456
1.81775e-07
0.000157521
1.97411e-07
0.000157588
2.11814e-07
0.000157658
2.24936e-07
0.000157731
2.36725e-07
0.000157805
2.47129e-07
0.000157882
2.56082e-07
0.00015796
2.63517e-07
0.00015804
2.69369e-07
0.000158121
2.73575e-07
0.000158203
2.7608e-07
0.000158286
2.76837e-07
0.000158369
2.75812e-07
0.000158452
2.72984e-07
0.000158535
2.68347e-07
0.000158617
2.61913e-07
0.000158699
2.53711e-07
0.000158778
2.43785e-07
0.000158857
2.32201e-07
0.000158933
2.19036e-07
0.000159007
2.04386e-07
0.000159078
1.88361e-07
0.000159146
1.71067e-07
1.52661e-07
0.000159212
0.000161544
2.5861e-09
0.000161565
7.25123e-09
0.000161595
1.70368e-08
0.000161633
2.94931e-08
0.000161678
4.35139e-08
0.000161729
5.81231e-08
0.000161784
7.30733e-08
0.000161843
8.79987e-08
0.000161905
1.02429e-07
0.000161971
1.16125e-07
0.000162039
1.28949e-07
0.00016211
1.40805e-07
0.000162184
1.5162e-07
0.000162259
1.61334e-07
0.000162336
1.69899e-07
0.000162415
1.77255e-07
0.000162495
1.83349e-07
0.000162577
1.88131e-07
0.000162659
1.91554e-07
0.000162741
1.93577e-07
0.000162824
1.94164e-07
0.000162906
1.93292e-07
0.000162988
1.90948e-07
0.00016307
1.87132e-07
0.00016315
1.81855e-07
0.000163228
1.75142e-07
0.000163305
1.67033e-07
0.00016338
1.57578e-07
0.000163452
1.46838e-07
0.000163521
1.34891e-07
0.000163588
1.21857e-07
0.000163651
1.07784e-07
9.2783e-08
0.000163711
0.000166168
-1.20377e-08
0.000166196
-2.04985e-08
0.000166232
-1.88511e-08
0.000166274
-1.28527e-08
0.000166321
-3.5532e-09
0.000166373
5.98426e-09
0.00016643
1.62675e-08
0.000166491
2.72829e-08
0.000166555
3.82251e-08
0.000166622
4.8837e-08
0.000166692
5.88937e-08
0.000166765
6.82547e-08
0.00016684
7.68382e-08
0.000166917
8.45892e-08
0.000166995
9.14536e-08
0.000167075
9.73642e-08
0.000167156
1.02289e-07
0.000167238
1.0619e-07
0.00016732
1.0903e-07
0.000167403
1.10779e-07
0.000167486
1.11413e-07
0.000167568
1.10915e-07
0.00016765
1.0928e-07
0.000167731
1.06508e-07
0.00016781
1.02614e-07
0.000167887
9.76181e-08
0.000167963
9.15533e-08
0.000168036
8.4463e-08
0.000168106
7.63985e-08
0.000168174
6.73918e-08
0.000168238
5.76159e-08
0.000168299
4.70238e-08
3.57465e-08
0.000168356
0.000170915
-2.61436e-08
0.000170951
-5.7085e-08
0.000170997
-6.45373e-08
0.00017105
-6.57046e-08
0.000171109
-6.23696e-08
0.000171171
-5.62394e-08
0.000171236
-4.87446e-08
0.000171304
-4.06035e-08
0.000171374
-3.23514e-08
0.000171447
-2.42939e-08
0.000171523
-1.65971e-08
0.000171601