/*--------------------------------*- C++ -*----------------------------------*\
  =========                 |
  \\      /  F ield         | OpenFOAM: The Open Source CFD Toolbox
   \\    /   O peration     | Website:  https://openfoam.org
    \\  /    A nd           | Version:  10
     \\/     M anipulation  |
\*---------------------------------------------------------------------------*/
FoamFile
{
    format      ascii;
    class       volVectorField;
    location    "0.2";
    object      U;
}
// * * * * * * * * * * * * * * * * * * * * * * * * * * * * * * * * * * * * * //

dimensions      [0 1 -1 0 0 0 0];

internalField   nonuniform List<vector> 
6820
(
(7.28168 0.0249079 0)
(7.17747 0.0402576 0)
(7.0536 0.0453253 0)
(6.92334 0.0480985 0)
(6.79317 0.0492908 0)
(6.66357 0.0495625 0)
(6.53506 0.0493604 0)
(6.40815 0.048881 0)
(6.28297 0.0482467 0)
(6.15951 0.0475423 0)
(6.03769 0.0468241 0)
(5.91736 0.0461327 0)
(5.79836 0.0455013 0)
(5.68042 0.0449585 0)
(5.56326 0.0445323 0)
(5.44651 0.0442528 0)
(5.32974 0.0441549 0)
(5.21243 0.0442822 0)
(5.09392 0.0446899 0)
(4.9734 0.0454503 0)
(4.84987 0.0466575 0)
(4.72207 0.0484347 0)
(4.58838 0.0509412 0)
(4.44678 0.0543801 0)
(4.2947 0.0590046 0)
(4.12891 0.065117 0)
(3.94543 0.0730535 0)
(3.7393 0.0831702 0)
(3.50489 0.0956009 0)
(3.23562 0.110823 0)
(2.92358 0.126465 0)
(2.56951 0.146988 0)
(2.13901 0.15525 0)
(7.35926 0.0260314 0)
(7.42104 0.0361643 0)
(7.47595 0.0382199 0)
(7.52586 0.0405151 0)
(7.5713 0.0422235 0)
(7.61111 0.043673 0)
(7.64523 0.0451427 0)
(7.67405 0.0466432 0)
(7.69786 0.0481785 0)
(7.71693 0.0497651 0)
(7.73153 0.0514171 0)
(7.74188 0.0531518 0)
(7.7482 0.0549935 0)
(7.75063 0.0569737 0)
(7.74929 0.0591336 0)
(7.74422 0.0615262 0)
(7.73544 0.0642207 0)
(7.72287 0.067307 0)
(7.70637 0.0709036 0)
(7.68567 0.0751662 0)
(7.6604 0.0803006 0)
(7.63003 0.0865789 0)
(7.59378 0.0943605 0)
(7.55064 0.104117 0)
(7.49916 0.116464 0)
(7.43742 0.132189 0)
(7.36279 0.152289 0)
(7.27163 0.177959 0)
(7.15932 0.210556 0)
(7.01866 0.251687 0)
(6.84336 0.301802 0)
(6.61503 0.364609 0)
(6.34256 0.430486 0)
(7.33538 0.00709287 0)
(7.34529 0.0106226 0)
(7.35368 0.0135239 0)
(7.36064 0.0172718 0)
(7.36806 0.0204857 0)
(7.37582 0.0233354 0)
(7.38387 0.02605 0)
(7.39235 0.0286412 0)
(7.40123 0.0311342 0)
(7.41045 0.0335759 0)
(7.41991 0.0360096 0)
(7.42953 0.0384787 0)
(7.43921 0.0410308 0)
(7.44885 0.0437196 0)
(7.45834 0.046607 0)
(7.46758 0.0497675 0)
(7.47646 0.0532924 0)
(7.48487 0.0572971 0)
(7.49269 0.0619298 0)
(7.49984 0.0673827 0)
(7.50618 0.073908 0)
(7.51165 0.0818385 0)
(7.51614 0.0916153 0)
(7.51961 0.103822 0)
(7.52204 0.119231 0)
(7.52344 0.138852 0)
(7.52389 0.164015 0)
(7.52343 0.19637 0)
(7.5221 0.238096 0)
(7.51947 0.291506 0)
(7.51486 0.359847 0)
(7.50476 0.445262 0)
(7.48708 0.55114 0)
(7.3349 0.00951898 0)
(7.34215 0.0207706 0)
(7.34709 0.0266705 0)
(7.34957 0.0307787 0)
(7.35135 0.033608 0)
(7.35249 0.035686 0)
(7.35295 0.0374365 0)
(7.3529 0.0390134 0)
(7.35245 0.0405082 0)
(7.35163 0.0419997 0)
(7.35045 0.0435471 0)
(7.34893 0.0451997 0)
(7.34707 0.0470062 0)
(7.34484 0.049019 0)
(7.34221 0.0512976 0)
(7.33914 0.0539129 0)
(7.33559 0.0569518 0)
(7.33148 0.0605233 0)
(7.32674 0.0647656 0)
(7.32131 0.0698559 0)
(7.31512 0.0760232 0)
(7.3081 0.0835632 0)
(7.30023 0.0928602 0)
(7.29154 0.104411 0)
(7.28217 0.118861 0)
(7.27242 0.137035 0)
(7.26283 0.160005 0)
(7.25436 0.189105 0)
(7.24845 0.226046 0)
(7.24751 0.272862 0)
(7.25429 0.332237 0)
(7.27434 0.407334 0)
(7.30934 0.500389 0)
(7.33397 0.00667764 0)
(7.33842 0.0135503 0)
(7.34243 0.0169022 0)
(7.34514 0.0199889 0)
(7.34733 0.0228169 0)
(7.34895 0.0253705 0)
(7.34989 0.0278366 0)
(7.35024 0.0302637 0)
(7.35007 0.0326689 0)
(7.34938 0.0350913 0)
(7.34817 0.0375714 0)
(7.34644 0.0401508 0)
(7.34415 0.0428781 0)
(7.34128 0.0458098 0)
(7.33779 0.049013 0)
(7.33361 0.0525684 0)
(7.32867 0.0565745 0)
(7.32291 0.0611536 0)
(7.31624 0.0664577 0)
(7.30855 0.0726777 0)
(7.29975 0.0800539 0)
(7.28975 0.0888893 0)
(7.27846 0.0995653 0)
(7.26585 0.11256 0)
(7.25193 0.128467 0)
(7.23682 0.148017 0)
(7.22083 0.172098 0)
(7.20453 0.201753 0)
(7.18884 0.238196 0)
(7.17535 0.282788 0)
(7.16608 0.336883 0)
(7.16558 0.402386 0)
(7.17671 0.478965 0)
(7.33372 0.00570711 0)
(7.33742 0.0141326 0)
(7.34115 0.0200039 0)
(7.3437 0.0248605 0)
(7.34558 0.0287818 0)
(7.34692 0.0319388 0)
(7.34768 0.0346632 0)
(7.34793 0.0371377 0)
(7.34773 0.0394724 0)
(7.3471 0.0417537 0)
(7.34603 0.044062 0)
(7.3445 0.0464686 0)
(7.34251 0.0490426 0)
(7.34 0.0518563 0)
(7.33695 0.0549894 0)
(7.3333 0.0585329 0)
(7.329 0.0625943 0)
(7.32397 0.0673027 0)
(7.31816 0.0728164 0)
(7.3115 0.0793305 0)
(7.3039 0.087086 0)
(7.29533 0.0963808 0)
(7.28575 0.107582 0)
(7.27516 0.121139 0)
(7.26364 0.137597 0)
(7.25137 0.157606 0)
(7.23866 0.181924 0)
(7.22605 0.211416 0)
(7.21434 0.247039 0)
(7.20487 0.289802 0)
(7.19907 0.340492 0)
(7.19984 0.400152 0)
(7.20915 0.467812 0)
(7.33343 0.00487323 0)
(7.33591 0.0122986 0)
(7.33872 0.0171612 0)
(7.3408 0.0209539 0)
(7.34245 0.0241465 0)
(7.34372 0.0269278 0)
(7.34452 0.0295271 0)
(7.34488 0.0320587 0)
(7.34482 0.0345711 0)
(7.34435 0.037142 0)
(7.34346 0.039826 0)
(7.34214 0.0426738 0)
(7.34038 0.0457422 0)
(7.33815 0.0490964 0)
(7.33542 0.0528117 0)
(7.33216 0.056978 0)
(7.32833 0.0617031 0)
(7.32388 0.067118 0)
(7.31878 0.073382 0)
(7.31298 0.0806886 0)
(7.30647 0.0892736 0)
(7.29925 0.0994231 0)
(7.29134 0.111482 0)
(7.28285 0.125864 0)
(7.27392 0.143052 0)
(7.26485 0.163607 0)
(7.25605 0.188157 0)
(7.24819 0.217381 0)
(7.24212 0.251957 0)
(7.23913 0.292552 0)
(7.24069 0.339581 0)
(7.24922 0.393477 0)
(7.26629 0.453168 0)
(7.33329 0.00427179 0)
(7.33518 0.0114722 0)
(7.33762 0.0169538 0)
(7.33961 0.0216045 0)
(7.34117 0.0256705 0)
(7.34236 0.0292136 0)
(7.34309 0.0324086 0)
(7.34339 0.0353983 0)
(7.3433 0.0382935 0)
(7.34282 0.0411486 0)
(7.34196 0.0440432 0)
(7.34071 0.047055 0)
(7.33905 0.0502603 0)
(7.33698 0.0537401 0)
(7.33447 0.0575833 0)
(7.33149 0.0618902 0)
(7.32803 0.0667762 0)
(7.32406 0.0723767 0)
(7.31955 0.0788511 0)
(7.31451 0.0863896 0)
(7.30895 0.0952183 0)
(7.3029 0.105604 0)
(7.29646 0.117861 0)
(7.28976 0.132352 0)
(7.28304 0.14949 0)
(7.27664 0.169732 0)
(7.27105 0.193565 0)
(7.26695 0.221483 0)
(7.26524 0.253936 0)
(7.26717 0.291296 0)
(7.27409 0.333659 0)
(7.28814 0.381011 0)
(7.31063 0.432191 0)
(7.33319 0.00385114 0)
(7.33456 0.0106433 0)
(7.33647 0.015949 0)
(7.3381 0.020317 0)
(7.33941 0.0240627 0)
(7.34043 0.0273379 0)
(7.3411 0.030339 0)
(7.34141 0.0332095 0)
(7.34137 0.0360206 0)
(7.341 0.0388787 0)
(7.34028 0.041858 0)
(7.33921 0.045024 0)
(7.33779 0.0484456 0)
(7.336 0.0521972 0)
(7.33382 0.0563614 0)
(7.33125 0.0610325 0)
(7.32826 0.0663206 0)
(7.32486 0.0723545 0)
(7.32106 0.0792849 0)
(7.31686 0.0872892 0)
(7.31232 0.0965744 0)
(7.3075 0.10738 0)
(7.30254 0.11998 0)
(7.29761 0.134683 0)
(7.293 0.151823 0)
(7.28907 0.171756 0)
(7.28633 0.194833 0)
(7.28548 0.221379 0)
(7.28735 0.251631 0)
(7.29306 0.28571 0)
(7.3038 0.323458 0)
(7.32133 0.364538 0)
(7.34663 0.407731 0)
(7.33313 0.00353621 0)
(7.33416 0.00999706 0)
(7.33573 0.0153411 0)
(7.33719 0.0199272 0)
(7.33841 0.0240142 0)
(7.33938 0.0277039 0)
(7.34004 0.0311241 0)
(7.34038 0.0343919 0)
(7.34041 0.0376065 0)
(7.34012 0.0408278 0)
(7.33951 0.0441281 0)
(7.33859 0.0475813 0)
(7.33735 0.0512624 0)
(7.33579 0.0552519 0)
(7.3339 0.0596385 0)
(7.33169 0.064521 0)
(7.32915 0.070011 0)
(7.3263 0.0762353 0)
(7.32316 0.0833392 0)
(7.31977 0.0914888 0)
(7.31621 0.100872 0)
(7.31258 0.111702 0)
(7.30903 0.12421 0)
(7.30578 0.138649 0)
(7.30312 0.155281 0)
(7.30143 0.174362 0)
(7.30123 0.196124 0)
(7.30315 0.220743 0)
(7.30797 0.248291 0)
(7.31666 0.278699 0)
(7.33019 0.311636 0)
(7.34997 0.346568 0)
(7.37663 0.382296 0)
(7.33309 0.0033024 0)
(7.33387 0.00946952 0)
(7.33513 0.0147394 0)
(7.33637 0.0192957 0)
(7.33741 0.0233425 0)
(7.33826 0.0269886 0)
(7.33886 0.0303647 0)
(7.33918 0.0335941 0)
(7.33924 0.0367665 0)
(7.33904 0.0399704 0)
(7.33857 0.0432866 0)
(7.33783 0.046791 0)
(7.33682 0.0505593 0)
(7.33555 0.0546706 0)
(7.33402 0.0592098 0)
(7.33223 0.0642703 0)
(7.3302 0.0699558 0)
(7.32796 0.0763834 0)
(7.32555 0.0836843 0)
(7.32302 0.0920054 0)
(7.32048 0.10151 0)
(7.31803 0.112375 0)
(7.31586 0.124789 0)
(7.3142 0.138947 0)
(7.31335 0.155037 0)
(7.31369 0.173226 0)
(7.31569 0.193638 0)
(7.31995 0.216327 0)
(7.32714 0.241232 0)
(7.33806 0.268146 0)
(7.35349 0.29663 0)
(7.37451 0.326043 0)
(7.40147 0.35526 0)
(7.33306 0.00312338 0)
(7.33366 0.00903605 0)
(7.3347 0.0142358 0)
(7.33577 0.0188267 0)
(7.33672 0.0229806 0)
(7.33753 0.0267998 0)
(7.33813 0.0303909 0)
(7.33851 0.0338574 0)
(7.33866 0.0372864 0)
(7.33858 0.0407521 0)
(7.33827 0.0443259 0)
(7.33772 0.0480789 0)
(7.33696 0.0520835 0)
(7.33597 0.056416 0)
(7.33478 0.0611591 0)
(7.33341 0.0664025 0)
(7.33187 0.0722451 0)
(7.33022 0.0787956 0)
(7.32849 0.0861732 0)
(7.32678 0.0945075 0)
(7.32518 0.103937 0)
(7.32384 0.114608 0)
(7.32294 0.126667 0)
(7.32271 0.140254 0)
(7.32345 0.155495 0)
(7.32553 0.172479 0)
(7.32937 0.191243 0)
(7.3355 0.211748 0)
(7.34447 0.233838 0)
(7.35694 0.257219 0)
(7.37351 0.281398 0)
(7.39495 0.305706 0)
(7.4214 0.329132 0)
(7.33305 0.00298332 0)
(7.33352 0.00867837 0)
(7.33437 0.0137927 0)
(7.3353 0.0183713 0)
(7.33615 0.0225417 0)
(7.33689 0.0263928 0)
(7.33747 0.0300184 0)
(7.33787 0.0335162 0)
(7.33808 0.0369719 0)
(7.3381 0.0404638 0)
(7.33793 0.0440671 0)
(7.33758 0.0478558 0)
(7.33706 0.0519039 0)
(7.33637 0.0562876 0)
(7.33555 0.0610865 0)
(7.33461 0.0663852 0)
(7.33358 0.0722742 0)
(7.33253 0.0788504 0)
(7.33151 0.0862172 0)
(7.33061 0.0944834 0)
(7.32994 0.103761 0)
(7.32966 0.114162 0)
(7.32995 0.125792 0)
(7.33103 0.138743 0)
(7.33319 0.153079 0)
(7.33675 0.168827 0)
(7.34211 0.185953 0)
(7.3497 0.204346 0)
(7.35997 0.223787 0)
(7.37344 0.243934 0)
(7.39052 0.264281 0)
(7.41176 0.284177 0)
(7.43714 0.302741 0)
(7.33304 0.00287079 0)
(7.33341 0.00837784 0)
(7.33413 0.0134025 0)
(7.33494 0.0179632 0)
(7.33573 0.0221615 0)
(7.33644 0.0260808 0)
(7.33704 0.0298065 0)
(7.3375 0.0334268 0)
(7.33781 0.0370215 0)
(7.33797 0.0406636 0)
(7.33798 0.0444226 0)
(7.33785 0.048367 0)
(7.3376 0.052565 0)
(7.33723 0.0570869 0)
(7.33678 0.0620057 0)
(7.33627 0.0673982 0)
(7.33575 0.073345 0)
(7.33527 0.0799306 0)
(7.33492 0.0872425 0)
(7.33478 0.0953696 0)
(7.33497 0.104399 0)
(7.33565 0.114412 0)
(7.33698 0.125477 0)
(7.3392 0.137644 0)
(7.34255 0.150931 0)
(7.34733 0.165313 0)
(7.35386 0.180705 0)
(7.3625 0.19695 0)
(7.37362 0.213794 0)
(7.38759 0.230881 0)
(7.40469 0.247723 0)
(7.42527 0.263722 0)
(7.4492 0.278136 0)
(7.33303 0.00277761 0)
(7.33334 0.00812059 0)
(7.33395 0.0130533 0)
(7.33468 0.0175807 0)
(7.33541 0.0217803 0)
(7.3361 0.0257248 0)
(7.33671 0.0294886 0)
(7.33723 0.0331508 0)
(7.33763 0.0367863 0)
(7.33791 0.0404653 0)
(7.33809 0.0442559 0)
(7.33818 0.0482251 0)
(7.33818 0.0524395 0)
(7.33812 0.0569665 0)
(7.33803 0.0618746 0)
(7.33795 0.0672339 0)
(7.33792 0.0731158 0)
(7.33802 0.0795926 0)
(7.3383 0.0867358 0)
(7.33889 0.0946147 0)
(7.33988 0.103293 0)
(7.34143 0.112822 0)
(7.3437 0.12324 0)
(7.3469 0.134559 0)
(7.35125 0.146759 0)
(7.35701 0.159775 0)
(7.36443 0.173488 0)
(7.37382 0.187712 0)
(7.38543 0.202179 0)
(7.39952 0.216541 0)
(7.41628 0.230347 0)
(7.43589 0.243068 0)
(7.45818 0.254097 0)
(7.33302 0.00269783 0)
(7.33329 0.00789462 0)
(7.33382 0.012734 0)
(7.33449 0.0172174 0)
(7.33519 0.021407 0)
(7.33588 0.0253685 0)
(7.33653 0.0291704 0)
(7.33711 0.0328853 0)
(7.33762 0.0365835 0)
(7.33806 0.0403309 0)
(7.33843 0.0441914 0)
(7.33875 0.0482271 0)
(7.33903 0.0524991 0)
(7.33929 0.0570682 0)
(7.33957 0.0619952 0)
(7.33991 0.0673408 0)
(7.34037 0.0731652 0)
(7.341 0.0795272 0)
(7.34189 0.0864825 0)
(7.34313 0.0940811 0)
(7.34484 0.102364 0)
(7.34716 0.11136 0)
(7.35024 0.121078 0)
(7.35425 0.131501 0)
(7.3594 0.14258 0)
(7.36589 0.154226 0)
(7.37394 0.166297 0)
(7.38376 0.178596 0)
(7.39554 0.190862 0)
(7.40946 0.202766 0)
(7.4256 0.213911 0)
(7.44404 0.223844 0)
(7.46457 0.23208 0)
(7.33302 0.00262694 0)
(7.33326 0.00769003 0)
(7.33374 0.0124346 0)
(7.33436 0.0168634 0)
(7.33504 0.0210272 0)
(7.33574 0.0249842 0)
(7.33644 0.0287961 0)
(7.3371 0.0325279 0)
(7.33772 0.0362438 0)
(7.33831 0.0400053 0)
(7.33887 0.0438719 0)
(7.3394 0.0479016 0)
(7.33994 0.0521511 0)
(7.34051 0.056676 0)
(7.34115 0.0615307 0)
(7.34189 0.066768 0)
(7.3428 0.0724384 0)
(7.34394 0.0785886 0)
(7.34538 0.08526 0)
(7.34722 0.0924861 0)
(7.34958 0.100289 0)
(7.35256 0.108676 0)
(7.35632 0.117635 0)
(7.361 0.127127 0)
(7.36677 0.137082 0)
(7.37379 0.147394 0)
(7.38224 0.157913 0)
(7.39226 0.168443 0)
(7.40398 0.178736 0)
(7.41751 0.188496 0)
(7.43286 0.197382 0)
(7.45005 0.205017 0)
(7.46883 0.211023 0)
(7.33302 0.00256144 0)
(7.33324 0.00749846 0)
(7.33369 0.0121458 0)
(7.33429 0.0165097 0)
(7.33497 0.0206337 0)
(7.33569 0.0245706 0)
(7.33644 0.0283766 0)
(7.3372 0.0321116 0)
(7.33794 0.0358348 0)
(7.33869 0.0396034 0)
(7.33944 0.0434724 0)
(7.3402 0.047495 0)
(7.34101 0.0517223 0)
(7.34189 0.0562033 0)
(7.34288 0.0609848 0)
(7.34401 0.0661104 0)
(7.34535 0.07162 0)
(7.34695 0.0775481 0)
(7.3489 0.0839223 0)
(7.35128 0.0907607 0)
(7.35419 0.098069 0)
(7.35774 0.105837 0)
(7.36205 0.114035 0)
(7.36725 0.122609 0)
(7.37347 0.131477 0)
(7.38084 0.140524 0)
(7.38948 0.149601 0)
(7.39951 0.15852 0)
(7.41098 0.167057 0)
(7.42396 0.174954 0)
(7.43841 0.181924 0)
(7.4543 0.187662 0)
(7.47138 0.191884 0)
(7.33302 0.00249852 0)
(7.33322 0.00731277 0)
(7.33366 0.0118588 0)
(7.33425 0.0161475 0)
(7.33494 0.0202175 0)
(7.33571 0.0241166 0)
(7.33652 0.0278962 0)
(7.33737 0.0316103 0)
(7.33825 0.0353129 0)
(7.33915 0.0390559 0)
(7.34009 0.0428893 0)
(7.34108 0.0468611 0)
(7.34214 0.0510168 0)
(7.34331 0.0553991 0)
(7.34462 0.0600477 0)
(7.34612 0.064998 0)
(7.34785 0.0702808 0)
(7.34988 0.07592 0)
(7.35227 0.0819316 0)
(7.35512 0.0883212 0)
(7.3585 0.0950815 0)
(7.36251 0.102189 0)
(7.36726 0.109603 0)
(7.37285 0.117259 0)
(7.37937 0.125069 0)
(7.38694 0.132917 0)
(7.39563 0.140659 0)
(7.4055 0.148126 0)
(7.4166 0.155117 0)
(7.42893 0.161414 0)
(7.44243 0.166781 0)
(7.45704 0.170978 0)
(7.47252 0.173795 0)
(7.33302 0.00243585 0)
(7.33322 0.00712683 0)
(7.33365 0.011566 0)
(7.33425 0.0157685 0)
(7.33497 0.0197702 0)
(7.33578 0.0236149 0)
(7.33667 0.0273497 0)
(7.33762 0.031024 0)
(7.33863 0.0346868 0)
(7.33969 0.0383856 0)
(7.34082 0.0421656 0)
(7.34204 0.0460696 0)
(7.34335 0.0501374 0)
(7.3448 0.0544057 0)
(7.34642 0.0589068 0)
(7.34825 0.0636682 0)
(7.35034 0.0687115 0)
(7.35275 0.0740512 0)
(7.35555 0.0796928 0)
(7.35879 0.0856312 0)
(7.36256 0.0918485 0)
(7.36695 0.0983121 0)
(7.37202 0.104972 0)
(7.37788 0.111759 0)
(7.38458 0.118585 0)
(7.39221 0.125336 0)
(7.40081 0.131882 0)
(7.41042 0.138067 0)
(7.42105 0.143723 0)
(7.43266 0.148667 0)
(7.4452 0.152713 0)
(7.45858 0.155671 0)
(7.47258 0.157393 0)
(7.33302 0.00237146 0)
(7.33322 0.00693529 0)
(7.33366 0.01126 0)
(7.33428 0.015365 0)
(7.33504 0.0192838 0)
(7.33591 0.0230569 0)
(7.33688 0.0267277 0)
(7.33794 0.0303409 0)
(7.33907 0.0339407 0)
(7.3403 0.0375694 0)
(7.34161 0.0412674 0)
(7.34304 0.0450719 0)
(7.3446 0.0490172 0)
(7.34631 0.0531335 0)
(7.34821 0.0574466 0)
(7.35035 0.0619769 0)
(7.35276 0.0667382 0)
(7.35551 0.0717368 0)
(7.35863 0.07697 0)
(7.36221 0.0824247 0)
(7.3663 0.0880756 0)
(7.37096 0.093884 0)
(7.37627 0.0997959 0)
(7.38228 0.105741 0)
(7.38906 0.111633 0)
(7.39664 0.117368 0)
(7.40506 0.122826 0)
(7.41432 0.127874 0)
(7.42441 0.13237 0)
(7.4353 0.136166 0)
(7.44689 0.139114 0)
(7.45911 0.141074 0)
(7.47175 0.141938 0)
(7.33302 0.00230365 0)
(7.33323 0.00673346 0)
(7.33368 0.0109345 0)
(7.33433 0.0149294 0)
(7.33513 0.0187505 0)
(7.33607 0.0224356 0)
(7.33713 0.0260244 0)
(7.3383 0.0295577 0)
(7.33957 0.0330751 0)
(7.34095 0.0366145 0)
(7.34245 0.0402114 0)
(7.34408 0.0438982 0)
(7.34586 0.0477037 0)
(7.34782 0.0516524 0)
(7.34998 0.0557639 0)
(7.3524 0.0600521 0)
(7.35509 0.064524 0)
(7.35812 0.0691791 0)
(7.36153 0.0740078 0)
(7.36537 0.0789909 0)
(7.3697 0.084098 0)
(7.37457 0.0892867 0)
(7.38002 0.0945016 0)
(7.38611 0.0996743 0)
(7.39286 0.104723 0)
(7.40032 0.109554 0)
(7.40847 0.114061 0)
(7.41733 0.118133 0)
(7.42685 0.121652 0)
(7.437 0.1245 0)
(7.44768 0.126563 0)
(7.45882 0.127738 0)
(7.47024 0.127951 0)
(7.33302 0.00223093 0)
(7.33324 0.00651713 0)
(7.33372 0.0105834 0)
(7.3344 0.0144549 0)
(7.33526 0.0181628 0)
(7.33627 0.0217423 0)
(7.33742 0.02523 0)
(7.3387 0.0286625 0)
(7.34011 0.032075 0)
(7.34164 0.035501 0)
(7.34332 0.038971 0)
(7.34514 0.0425125 0)
(7.34713 0.046149 0)
(7.34931 0.0498998 0)
(7.35172 0.053779 0)
(7.35437 0.0577947 0)
(7.35732 0.0619484 0)
(7.36059 0.0662343 0)
(7.36423 0.0706378 0)
(7.36828 0.0751359 0)
(7.37278 0.0796951 0)
(7.37777 0.0842721 0)
(7.3833 0.0888126 0)
(7.38938 0.093252 0)
(7.39605 0.0975156 0)
(7.4033 0.10152 0)
(7.41115 0.105177 0)
(7.41956 0.108391 0)
(7.4285 0.111067 0)
(7.43793 0.113113 0)
(7.44775 0.114445 0)
(7.4579 0.114985 0)
(7.46822 0.114688 0)
(7.33302 0.00215198 0)
(7.33326 0.00628263 0)
(7.33376 0.0102014 0)
(7.33449 0.0139354 0)
(7.3354 0.017515 0)
(7.33649 0.0209733 0)
(7.33773 0.0243439 0)
(7.33913 0.0276599 0)
(7.34067 0.0309526 0)
(7.34235 0.0342512 0)
(7.34419 0.0375817 0)
(7.34619 0.0409671 0)
(7.34837 0.0444262 0)
(7.35076 0.0479734 0)
(7.35337 0.0516177 0)
(7.35623 0.0553626 0)
(7.35938 0.0592049 0)
(7.36285 0.0631344 0)
(7.36667 0.0671332 0)
(7.37087 0.0711755 0)
(7.37548 0.0752268 0)
(7.38054 0.079244 0)
(7.38607 0.0831756 0)
(7.39209 0.0869619 0)
(7.39861 0.0905365 0)
(7.40562 0.0938277 0)
(7.41311 0.0967596 0)
(7.42106 0.0992549 0)
(7.42942 0.101238 0)
(7.43815 0.102638 0)
(7.44717 0.103392 0)
(7.45641 0.103446 0)
(7.46575 0.102773 0)
(7.33302 0.0020656 0)
(7.33327 0.00602646 0)
(7.33381 0.0097832 0)
(7.33458 0.0133639 0)
(7.33556 0.016798 0)
(7.33673 0.020116 0)
(7.33807 0.0233486 0)
(7.33958 0.0265251 0)
(7.34125 0.029673 0)
(7.34308 0.0328172 0)
(7.34508 0.0359797 0)
(7.34725 0.0391792 0)
(7.34961 0.0424303 0)
(7.35218 0.0457431 0)
(7.35498 0.049123 0)
(7.35802 0.0525693 0)
(7.36134 0.0560756 0)
(7.36497 0.0596289 0)
(7.36892 0.0632092 0)
(7.37322 0.0667897 0)
(7.3779 0.0703363 0)
(7.38298 0.0738078 0)
(7.38846 0.0771567 0)
(7.39437 0.0803298 0)
(7.40069 0.0832691 0)
(7.40742 0.0859132 0)
(7.41454 0.0881992 0)
(7.42202 0.0900647 0)
(7.42982 0.0914506 0)
(7.43789 0.092303 0)
(7.44616 0.0925763 0)
(7.45457 0.0922337 0)
(7.46302 0.0912612 0)
(7.33303 0.00197072 0)
(7.33329 0.00574579 0)
(7.33386 0.00932515 0)
(7.33469 0.0127379 0)
(7.33573 0.0160127 0)
(7.33698 0.0191783 0)
(7.33842 0.022263 0)
(7.34004 0.0252928 0)
(7.34183 0.0282915 0)
(7.34379 0.0312804 0)
(7.34593 0.0342772 0)
(7.34825 0.0372965 0)
(7.35077 0.040349 0)
(7.35349 0.043441 0)
(7.35644 0.0465738 0)
(7.35963 0.0497438 0)
(7.36309 0.0529416 0)
(7.36682 0.0561522 0)
(7.37086 0.0593546 0)
(7.37522 0.0625216 0)
(7.37992 0.0656204 0)
(7.38496 0.0686128 0)
(7.39035 0.0714558 0)
(7.3961 0.0741024 0)
(7.4022 0.0765028 0)
(7.40862 0.0786052 0)
(7.41536 0.0803584 0)
(7.42238 0.0817128 0)
(7.42963 0.0826225 0)
(7.43708 0.0830475 0)
(7.44465 0.0829555 0)
(7.45232 0.0823219 0)
(7.45997 0.0811417 0)
(7.33303 0.00186627 0)
(7.33331 0.00543711 0)
(7.33392 0.00882059 0)
(7.33481 0.0120457 0)
(7.33592 0.0151392 0)
(7.33726 0.0181274 0)
(7.3388 0.0210353 0)
(7.34053 0.023886 0)
(7.34244 0.0266998 0)
(7.34454 0.0294946 0)
(7.34682 0.032285 0)
(7.34928 0.0350824 0)
(7.35194 0.0378945 0)
(7.35481 0.0407248 0)
(7.35789 0.0435722 0)
(7.36121 0.046431 0)
(7.36477 0.0492904 0)
(7.36859 0.0521343 0)
(7.37269 0.0549417 0)
(7.37707 0.0576866 0)
(7.38174 0.0603384 0)
(7.38672 0.0628625 0)
(7.39199 0.0652207 0)
(7.39755 0.0673721 0)
(7.4034 0.0692743 0)
(7.40951 0.0708847 0)
(7.41587 0.0721615 0)
(7.42243 0.0730659 0)
(7.42916 0.0735627 0)
(7.43602 0.0736226 0)
(7.44296 0.073223 0)
(7.44994 0.0723481 0)
(7.45687 0.0709986 0)
(7.33303 0.00175143 0)
(7.33333 0.00509918 0)
(7.33398 0.00827104 0)
(7.33492 0.011297 0)
(7.33611 0.0142033 0)
(7.33752 0.0170145 0)
(7.33915 0.019753 0)
(7.34098 0.0224384 0)
(7.343 0.0250875 0)
(7.34521 0.0277139 0)
(7.3476 0.0303286 0)
(7.35019 0.0329391 0)
(7.35296 0.0355496 0)
(7.35594 0.0381606 0)
(7.35912 0.0407684 0)
(7.36253 0.0433654 0)
(7.36616 0.0459395 0)
(7.37003 0.048474 0)
(7.37415 0.0509483 0)
(7.37851 0.0533382 0)
(7.38313 0.0556157 0)
(7.388 0.0577496 0)
(7.39313 0.0597066 0)
(7.39849 0.0614519 0)
(7.40407 0.06295 0)
(7.40986 0.0641662 0)
(7.41584 0.0650672 0)
(7.42196 0.0656228 0)
(7.42819 0.0658068 0)
(7.43451 0.0655977 0)
(7.44086 0.0649806 0)
(7.44721 0.0639455 0)
(7.45349 0.0624969 0)
(7.33303 0.0016248 0)
(7.33336 0.00472543 0)
(7.33406 0.00765939 0)
(7.33506 0.0104551 0)
(7.33632 0.0131362 0)
(7.33783 0.0157246 0)
(7.33957 0.0182404 0)
(7.34151 0.0207008 0)
(7.34365 0.0231203 0)
(7.34598 0.0255106 0)
(7.34849 0.0278805 0)
(7.35119 0.0302357 0)
(7.35408 0.0325787 0)
(7.35716 0.0349083 0)
(7.36043 0.0372196 0)
(7.36391 0.0395043 0)
(7.3676 0.0417498 0)
(7.37149 0.0439403 0)
(7.3756 0.0460563 0)
(7.37993 0.0480753 0)
(7.38447 0.0499718 0)
(7.38922 0.0517184 0)
(7.39418 0.0532863 0)
(7.39932 0.0546459 0)
(7.40464 0.0557676 0)
(7.41011 0.0566231 0)
(7.41571 0.057186 0)
(7.42141 0.0574327 0)
(7.42719 0.0573435 0)
(7.43299 0.0569031 0)
(7.4388 0.0561011 0)
(7.44458 0.0549321 0)
(7.45026 0.0534018 0)
(7.33303 0.00148631 0)
(7.33338 0.00432171 0)
(7.33412 0.00701066 0)
(7.33517 0.00958361 0)
(7.3365 0.0120627 0)
(7.33808 0.0144664 0)
(7.33989 0.0168105 0)
(7.34191 0.0191073 0)
(7.34414 0.0213664 0)
(7.34656 0.0235951 0)
(7.34916 0.0257979 0)
(7.35195 0.0279771 0)
(7.35492 0.0301321 0)
(7.35807 0.0322595 0)
(7.36141 0.0343532 0)
(7.36493 0.0364038 0)
(7.36864 0.0383991 0)
(7.37254 0.040324 0)
(7.37662 0.0421604 0)
(7.38089 0.0438881 0)
(7.38533 0.0454848 0)
(7.38995 0.046927 0)
(7.39472 0.0481903 0)
(7.39965 0.0492501 0)
(7.4047 0.0500826 0)
(7.40985 0.0506652 0)
(7.4151 0.0509774 0)
(7.4204 0.0510014 0)
(7.42573 0.0507228 0)
(7.43107 0.0501307 0)
(7.43637 0.0492188 0)
(7.44163 0.0479839 0)
(7.44678 0.0464335 0)
(7.33304 0.00133207 0)
(7.33342 0.00386314 0)
(7.33422 0.00625404 0)
(7.33536 0.00853313 0)
(7.33678 0.0107211 0)
(7.33847 0.0128363 0)
(7.3404 0.0148943 0)
(7.34254 0.016907 0)
(7.34487 0.0188833 0)
(7.3474 0.0208294 0)
(7.3501 0.0227489 0)
(7.35298 0.024643 0)
(7.35603 0.0265101 0)
(7.35925 0.0283462 0)
(7.36264 0.0301444 0)
(7.36619 0.0318951 0)
(7.3699 0.0335862 0)
(7.37378 0.035203 0)
(7.37782 0.0367289 0)
(7.382 0.0381454 0)
(7.38634 0.0394327 0)
(7.3908 0.0405702 0)
(7.39539 0.041537 0)
(7.40009 0.0423124 0)
(7.40487 0.0428766 0)
(7.40972 0.0432113 0)
(7.41463 0.0433002 0)
(7.41955 0.0431293 0)
(7.42448 0.0426878 0)
(7.42938 0.0419677 0)
(7.43422 0.0409651 0)
(7.439 0.0396781 0)
(7.44366 0.0381139 0)
(7.33304 0.00116675 0)
(7.33343 0.00339493 0)
(7.33425 0.00552773 0)
(7.33543 0.00759174 0)
(7.33691 0.00959816 0)
(7.33865 0.0115555 0)
(7.34064 0.0134706 0)
(7.34285 0.015348 0)
(7.34526 0.0171903 0)
(7.34786 0.0189987 0)
(7.35063 0.0207732 0)
(7.35358 0.0225119 0)
(7.35669 0.0242119 0)
(7.35996 0.0258682 0)
(7.36338 0.0274738 0)
(7.36695 0.0290199 0)
(7.37066 0.0304956 0)
(7.37451 0.0318881 0)
(7.37849 0.0331832 0)
(7.3826 0.0343652 0)
(7.38682 0.0354178 0)
(7.39113 0.0363239 0)
(7.39554 0.0370666 0)
(7.40002 0.0376295 0)
(7.40455 0.0379971 0)
(7.40912 0.0381553 0)
(7.4137 0.0380916 0)
(7.41827 0.0377959 0)
(7.42282 0.0372605 0)
(7.42731 0.0364801 0)
(7.43174 0.0354523 0)
(7.43607 0.0341765 0)
(7.44028 0.0326598 0)
(7.33305 0.000970829 0)
(7.33351 0.00279213 0)
(7.33445 0.00451119 0)
(7.33576 0.0061634 0)
(7.33737 0.00776715 0)
(7.33924 0.00933604 0)
(7.34135 0.0108792 0)
(7.34367 0.0124019 0)
(7.34618 0.0139063 0)
(7.34886 0.0153918 0)
(7.35171 0.0168562 0)
(7.35471 0.0182963 0)
(7.35787 0.0197071 0)
(7.36116 0.0210824 0)
(7.36459 0.0224142 0)
(7.36815 0.0236926 0)
(7.37184 0.0249066 0)
(7.37564 0.0260436 0)
(7.37954 0.02709 0)
(7.38354 0.0280315 0)
(7.38763 0.0288531 0)
(7.39179 0.02954 0)
(7.39601 0.0300775 0)
(7.40027 0.0304515 0)
(7.40456 0.0306491 0)
(7.40885 0.0306585 0)
(7.41313 0.0304696 0)
(7.41739 0.0300744 0)
(7.42159 0.0294668 0)
(7.42572 0.0286426 0)
(7.42976 0.0276005 0)
(7.4337 0.0263399 0)
(7.4375 0.024867 0)
(7.33304 0.000785206 0)
(7.33347 0.00231995 0)
(7.3344 0.00384859 0)
(7.33573 0.00537072 0)
(7.33738 0.00687505 0)
(7.33931 0.00835818 0)
(7.34148 0.00981656 0)
(7.34387 0.011247 0)
(7.34646 0.0126474 0)
(7.34922 0.0140152 0)
(7.35214 0.0153476 0)
(7.35521 0.016641 0)
(7.35842 0.0178912 0)
(7.36176 0.019093 0)
(7.36522 0.0202405 0)
(7.3688 0.0213265 0)
(7.37247 0.0223425 0)
(7.37624 0.0232789 0)
(7.38009 0.0241252 0)
(7.38401 0.0248705 0)
(7.38799 0.0255031 0)
(7.39201 0.0260116 0)
(7.39606 0.0263848 0)
(7.40012 0.0266122 0)
(7.40419 0.026684 0)
(7.40823 0.0265916 0)
(7.41223 0.0263278 0)
(7.41618 0.0258867 0)
(7.42006 0.0252642 0)
(7.42385 0.0244576 0)
(7.42753 0.0234661 0)
(7.4311 0.0222896 0)
(7.43453 0.0209338 0)
(7.33308 0.000471599 0)
(7.33371 0.00132391 0)
(7.33487 0.00218408 0)
(7.33639 0.00308708 0)
(7.33819 0.00402919 0)
(7.34024 0.00500647 0)
(7.34251 0.0060168 0)
(7.34497 0.00705217 0)
(7.34761 0.00809927 0)
(7.3504 0.00914639 0)
(7.35335 0.0101847 0)
(7.35644 0.0112068 0)
(7.35965 0.0122055 0)
(7.36298 0.0131734 0)
(7.36642 0.0141022 0)
(7.36995 0.0149831 0)
(7.37357 0.0158063 0)
(7.37727 0.0165617 0)
(7.38103 0.0172386 0)
(7.38484 0.0178264 0)
(7.38869 0.0183144 0)
(7.39256 0.0186923 0)
(7.39644 0.0189499 0)
(7.40032 0.019078 0)
(7.40418 0.0190682 0)
(7.408 0.018913 0)
(7.41177 0.0186062 0)
(7.41547 0.018143 0)
(7.41908 0.0175199 0)
(7.42259 0.0167349 0)
(7.42598 0.0157878 0)
(7.42924 0.0146779 0)
(7.43235 0.0134099 0)
(7.33304 0.000361046 0)
(7.33357 0.00117334 0)
(7.33474 0.00209237 0)
(7.33634 0.00305448 0)
(7.33824 0.00403362 0)
(7.34041 0.00500493 0)
(7.34282 0.00595353 0)
(7.34542 0.00688541 0)
(7.34818 0.00779968 0)
(7.35109 0.00869068 0)
(7.35414 0.00955392 0)
(7.35731 0.0103861 0)
(7.36059 0.011184 0)
(7.36396 0.0119436 0)
(7.36743 0.0126603 0)
(7.37097 0.0133281 0)
(7.37459 0.0139409 0)
(7.37825 0.0144919 0)
(7.38196 0.014974 0)
(7.3857 0.0153798 0)
(7.38945 0.015702 0)
(7.3932 0.0159335 0)
(7.39694 0.0160673 0)
(7.40065 0.0160972 0)
(7.40432 0.0160173 0)
(7.40792 0.0158226 0)
(7.41145 0.0155088 0)
(7.41489 0.0150727 0)
(7.41823 0.0145117 0)
(7.42145 0.0138241 0)
(7.42454 0.01301 0)
(7.42749 0.0120684 0)
(7.43028 0.0110039 0)
(7.33315 -0.000357464 0)
(7.33411 -0.00095294 0)
(7.33557 -0.00116854 0)
(7.33732 -0.0010972 0)
(7.3393 -0.00082958 0)
(7.34149 -0.000387537 0)
(7.34389 0.000178333 0)
(7.34649 0.000805423 0)
(7.34925 0.00146331 0)
(7.35216 0.00213682 0)
(7.35519 0.00281288 0)
(7.35834 0.00348045 0)
(7.36159 0.00413083 0)
(7.36494 0.00475652 0)
(7.36837 0.00535169 0)
(7.37186 0.00590855 0)
(7.37542 0.00642008 0)
(7.37902 0.00687941 0)
(7.38265 0.00727948 0)
(7.3863 0.00761317 0)
(7.38996 0.00787345 0)
(7.39361 0.00805352 0)
(7.39723 0.00814699 0)
(7.40081 0.00814795 0)
(7.40435 0.00805111 0)
(7.40781 0.00785184 0)
(7.41119 0.00754632 0)
(7.41447 0.0071318 0)
(7.41764 0.00660573 0)
(7.42069 0.00596752 0)
(7.4236 0.00522588 0)
(7.42637 0.00437311 0)
(7.42896 0.0034096 0)
(7.3331 -7.93957e-05 0)
(7.33416 -1.20522e-05 0)
(7.33604 0.000248727 0)
(7.33821 0.000539626 0)
(7.3406 0.000865298 0)
(7.34321 0.0012433 0)
(7.34595 0.0016485 0)
(7.3488 0.00205213 0)
(7.35177 0.00244893 0)
(7.35485 0.00283886 0)
(7.35804 0.00321952 0)
(7.36133 0.0035882 0)
(7.3647 0.00394216 0)
(7.36815 0.00427833 0)
(7.37167 0.00459231 0)
(7.37523 0.00488177 0)
(7.37884 0.00514325 0)
(7.38247 0.00537264 0)
(7.38612 0.00556593 0)
(7.38976 0.00571911 0)
(7.39339 0.00582825 0)
(7.39699 0.00588956 0)
(7.40055 0.00589939 0)
(7.40404 0.00585434 0)
(7.40746 0.00575129 0)
(7.4108 0.00558746 0)
(7.41403 0.00536041 0)
(7.41715 0.00506771 0)
(7.42015 0.00470797 0)
(7.42304 0.00427892 0)
(7.42579 0.00377112 0)
(7.42837 0.00319072 0)
(7.43079 0.00254364 0)
(7.33436 -0.00325091 0)
(7.33915 -0.00584736 0)
(7.34501 -0.00665715 0)
(7.35147 -0.00702852 0)
(7.35839 -0.00704722 0)
(7.36557 -0.00683796 0)
(7.37286 -0.00654265 0)
(7.38021 -0.00620257 0)
(7.3876 -0.00583609 0)
(7.395 -0.00546208 0)
(7.40237 -0.00509262 0)
(7.40969 -0.00473433 0)
(7.41697 -0.00439198 0)
(7.42417 -0.00406936 0)
(7.4313 -0.00377101 0)
(7.43835 -0.00349889 0)
(7.4453 -0.00325605 0)
(7.45216 -0.00304614 0)
(7.45892 -0.00287282 0)
(7.46558 -0.00273977 0)
(7.47214 -0.00265056 0)
(7.47859 -0.00260868 0)
(7.48494 -0.00261736 0)
(7.49119 -0.0026796 0)
(7.49734 -0.00279807 0)
(7.50339 -0.00297508 0)
(7.50935 -0.00321269 0)
(7.5152 -0.003513 0)
(7.52096 -0.00387712 0)
(7.5266 -0.00430708 0)
(7.53214 -0.00481398 0)
(7.53761 -0.00539086 0)
(7.54296 -0.00603338 0)
(7.32983 -0.00377492 0)
(7.32497 -0.00775527 0)
(7.31703 -0.00993684 0)
(7.30769 -0.0114793 0)
(7.29831 -0.0125143 0)
(7.28897 -0.0131671 0)
(7.27973 -0.0135787 0)
(7.27075 -0.0138276 0)
(7.26209 -0.0139624 0)
(7.25376 -0.0140184 0)
(7.24576 -0.0140187 0)
(7.23812 -0.0139787 0)
(7.2308 -0.0139098 0)
(7.22382 -0.013821 0)
(7.21714 -0.0137194 0)
(7.21076 -0.0136133 0)
(7.20465 -0.0135103 0)
(7.19878 -0.0134175 0)
(7.19314 -0.0133416 0)
(7.18769 -0.0132893 0)
(7.1824 -0.0132669 0)
(7.17724 -0.0132805 0)
(7.17218 -0.0133357 0)
(7.16719 -0.0134377 0)
(7.16223 -0.013591 0)
(7.15727 -0.0137997 0)
(7.15227 -0.0140672 0)
(7.14721 -0.0143961 0)
(7.14205 -0.0147886 0)
(7.13676 -0.0152449 0)
(7.13132 -0.0157587 0)
(7.1257 -0.0163362 0)
(7.11988 -0.0169813 0)
(1.66847 0.129192 0)
(1.37472 0.16582 0)
(1.1937 0.44196 0)
(1.39638 1.00396 0)
(1.91137 1.69996 0)
(2.53543 2.0836 0)
(3.18294 1.7607 0)
(3.80667 0.812949 0)
(4.13265 -0.314747 0)
(4.37248 -1.39327 0)
(4.64924 -2.18698 0)
(4.77119 -2.32595 0)
(4.7375 -1.76396 0)
(4.76849 -0.76887 0)
(4.87194 0.295423 0)
(4.98969 1.16021 0)
(5.45733 1.88479 0)
(6.213 2.43963 0)
(6.95842 2.72287 0)
(7.5371 2.72556 0)
(7.95372 2.51048 0)
(8.27327 2.14145 0)
(8.55067 1.65396 0)
(8.80608 1.06067 0)
(9.02925 0.370294 0)
(9.19802 -0.398587 0)
(9.29267 -1.2163 0)