# y+ ()       
# Time        	patch         	min           	max           	average       
1400          	lowerWall	3.989186e-01	6.501355e+01	3.722335e+01
1400          	upperWall	3.125910e+01	5.508446e+01	4.627214e+01
