# y+ ()       
# Time        	patch         	min           	max           	average       
1200          	lowerWall	4.805222e+00	7.998415e+01	4.254354e+01
1200          	upperWall	3.060454e+01	4.711055e+01	4.142716e+01
