/*--------------------------------*- C++ -*----------------------------------*\
  =========                 |
  \\      /  F ield         | OpenFOAM: The Open Source CFD Toolbox
   \\    /   O peration     | Website:  https://openfoam.org
    \\  /    A nd           | Version:  10
     \\/     M anipulation  |
\*---------------------------------------------------------------------------*/
FoamFile
{
    format      ascii;
    class       volScalarField;
    location    "0.145";
    object      p;
}
// * * * * * * * * * * * * * * * * * * * * * * * * * * * * * * * * * * * * * //

dimensions      [0 2 -2 0 0 0 0];

internalField   nonuniform List<scalar> 
6820
(
6.6072
-7.72302
-9.71953
-9.8973
-10.0484
-9.98261
-9.94303
-9.95299
-9.98579
-10.0315
-10.0836
-10.1383
-10.1939
-10.2496
-10.3048
-10.3592
-10.4126
-10.4649
-10.5159
-10.5654
-10.6135
-10.66
-10.705
-10.7486
-10.791
-10.8322
-10.8728
-10.9129
-10.954
-10.9943
-11.043
-11.078
-11.1685
1.22946
-7.52037
-9.52472
-9.77597
-9.979
-9.9768
-9.95854
-9.97489
-10.0079
-10.0508
-10.0998
-10.1516
-10.2049
-10.2588
-10.3127
-10.3661
-10.4189
-10.4707
-10.5213
-10.5707
-10.6186
-10.665
-10.71
-10.7536
-10.7959
-10.837
-10.8775
-10.9175
-10.9581
-10.9988
-11.0456
-11.0877
-11.1743
-0.850534
-6.30827
-8.73149
-9.32093
-9.69895
-9.83961
-9.88344
-9.92688
-9.97573
-10.0286
-10.0845
-10.1417
-10.199
-10.2557
-10.3116
-10.3665
-10.4202
-10.4726
-10.5236
-10.5732
-10.6213
-10.6678
-10.7128
-10.7563
-10.7986
-10.8397
-10.8799
-10.9196
-10.9595
-10.9991
-11.0415
-11.0775
-11.1172
-2.41776
-6.12489
-8.43432
-9.08214
-9.46156
-9.66551
-9.75963
-9.83514
-9.9071
-9.97515
-10.0409
-10.1049
-10.1674
-10.2285
-10.2881
-10.3461
-10.4026
-10.4575
-10.5107
-10.5623
-10.6122
-10.6605
-10.7071
-10.7523
-10.796
-10.8385
-10.8801
-10.9209
-10.9615
-11.0015
-11.0419
-11.0782
-11.11
-3.70236
-6.16843
-8.12625
-8.80745
-9.21533
-9.48529
-9.63351
-9.73983
-9.8316
-9.91313
-9.98849
-10.06
-10.1283
-10.1939
-10.2572
-10.3184
-10.3777
-10.4351
-10.4905
-10.5442
-10.596
-10.6462
-10.6947
-10.7417
-10.7873
-10.8317
-10.8752
-10.9179
-10.9601
-11.0017
-11.0428
-11.0814
-11.1158
-4.65922
-6.29058
-7.94121
-8.65348
-9.07095
-9.3632
-9.53759
-9.66057
-9.76457
-9.85583
-9.93857
-10.0158
-10.089
-10.1587
-10.2255
-10.2897
-10.3515
-10.4112
-10.4689
-10.5246
-10.5784
-10.6306
-10.6811
-10.7302
-10.778
-10.8247
-10.8705
-10.9156
-10.9603
-11.0045
-11.0485
-11.0916
-11.135
-5.40387
-6.50164
-7.85246
-8.53514
-8.93909
-9.2401
-9.43871
-9.58124
-9.69947
-9.80153
-9.89223
-9.97551
-10.0534
-10.1268
-10.1967
-10.2636
-10.3279
-10.3897
-10.4494
-10.5069
-10.5626
-10.6165
-10.6687
-10.7195
-10.769
-10.8174
-10.8649
-10.9117
-10.9581
-11.004
-11.0499
-11.0955
-11.1421
-5.98683
-6.73038
-7.81342
-8.44956
-8.84229
-9.14573
-9.35921
-9.51451
-9.64192
-9.75142
-9.84813
-9.93627
-10.0182
-10.0952
-10.1682
-10.2378
-10.3045
-10.3685
-10.4302
-10.4896
-10.5471
-10.6027
-10.6567
-10.7091
-10.7603
-10.8104
-10.8596
-10.9081
-10.9562
-11.0039
-11.0515
-11.0992
-11.1477
-6.44909
-6.96096
-7.82199
-8.39876
-8.77127
-9.06577
-9.28479
-9.44894
-9.58424
-9.70089
-9.80376
-9.89701
-9.98322
-10.0639
-10.14
-10.2123
-10.2814
-10.3476
-10.4112
-10.4726
-10.5318
-10.5891
-10.6447
-10.6987
-10.7515
-10.8031
-10.8539
-10.9039
-10.9534
-11.0025
-11.0516
-11.1006
-11.1502
-6.82045
-7.17927
-7.85894
-8.36992
-8.71859
-9.00114
-9.22168
-9.39202
-9.53319
-9.6552
-9.76287
-9.86022
-9.94997
-10.0337
-10.1126
-10.1874
-10.2588
-10.327
-10.3926
-10.4557
-10.5166
-10.5756
-10.6328
-10.6884
-10.7427
-10.7958
-10.848
-10.8994
-10.9503
-11.0008
-11.0512
-11.1015
-11.152
-7.12215
-7.37897
-7.91467
-8.36081
-8.68345
-8.95083
-9.16769
-9.34024
-9.48484
-9.61073
-9.72241
-9.8235
-9.91666
-10.0035
-10.0852
-10.1625
-10.2361
-10.3065
-10.374
-10.4389
-10.5015
-10.5621
-10.6208
-10.6779
-10.7336
-10.7882
-10.8417
-10.8945
-10.9467
-10.9984
-11.0498
-11.1011
-11.1525
-7.36973
-7.55773
-7.98063
-8.36568
-8.66087
-8.91145
-9.12182
-9.29439
-9.44109
-9.56988
-9.68479
-9.78906
-9.88516
-9.97473
-10.0589
-10.1385
-10.2142
-10.2866
-10.3559
-10.4225
-10.4867
-10.5488
-10.609
-10.6675
-10.7246
-10.7804
-10.8353
-10.8893
-10.9426
-10.9954
-11.0479
-11.1002
-11.1523
-7.57446
-7.71527
-8.05072
-8.38074
-8.64867
-8.88199
-9.08384
-9.25416
-9.40121
-9.53157
-9.64874
-9.75553
-9.85417
-9.94621
-10.0327
-10.1146
-10.1924
-10.2666
-10.3377
-10.406
-10.4718
-10.5354
-10.5971
-10.6569
-10.7153
-10.7724
-10.8284
-10.8836
-10.938
-10.9918
-11.0453
-11.0984
-11.1514
-7.74465
-7.85253
-8.12057
-8.40242
-8.64404
-8.86014
-9.05224
-9.21877
-9.36504
-9.49613
-9.61495
-9.72383
-9.82471
-9.91898
-10.0077
-10.0916
-10.1713
-10.2473
-10.3201
-10.3901
-10.4574
-10.5224
-10.5853
-10.6465
-10.7061
-10.7643
-10.8214
-10.8775
-10.9329
-10.9877
-11.042
-11.096
-11.1497
-7.88645
-7.97091
-8.18716
-8.42779
-8.64484
-8.84437
-9.02626
-9.18794
-9.33243
-9.46341
-9.58318
-9.6936
-9.7963
-9.8925
-9.98313
-10.0689
-10.1505
-10.2283
-10.3027
-10.3742
-10.443
-10.5093
-10.5736
-10.6359
-10.6967
-10.756
-10.8141
-10.8711
-10.9274
-10.983
-11.0381
-11.0928
-11.1473
-8.00445
-8.07195
-8.24843
-8.45442
-8.64908
-8.83302
-9.00467
-9.16086
-9.30286
-9.43315
-9.55338
-9.66498
-9.76923
-9.86716
-9.9596
-10.0472
-10.1305
-10.2099
-10.2859
-10.3588
-10.429
-10.4966
-10.5621
-10.6255
-10.6873
-10.7475
-10.8065
-10.8644
-10.9214
-10.9776
-11.0334
-11.0887
-11.1439
-8.10208
-8.15709
-8.30303
-8.48032
-8.65504
-8.82465
-8.98647
-9.13692
-9.27603
-9.40519
-9.5255
-9.63792
-9.74344
-9.84289
-9.93694
-10.0262
-10.1111
-10.1921
-10.2696
-10.3439
-10.4153
-10.4842
-10.5507
-10.6152
-10.6779
-10.739
-10.7987
-10.8573
-10.915
-10.9718
-11.0281
-11.084
-11.1396
-8.18191
-8.22762
-8.35008
-8.50387
-8.66121
-8.81794
-8.97061
-9.11538
-9.2514
-9.37918
-9.49929
-9.61231
-9.71891
-9.81971
-9.91525
-10.006
-10.0925
-10.1749
-10.2538
-10.3294
-10.402
-10.472
-10.5396
-10.605
-10.6685
-10.7303
-10.7907
-10.8498
-10.9079
-10.9652
-11.0218
-11.078
-11.1339
-8.24587
-8.28457
-8.389
-8.52379
-8.66629
-8.8117
-8.95609
-9.09554
-9.22851
-9.35486
-9.47466
-9.58815
-9.6957
-9.79775
-9.89469
-9.98693
-10.0748
-10.1587
-10.2389
-10.3157
-10.3895
-10.4605
-10.529
-10.5952
-10.6594
-10.7219
-10.7828
-10.8423
-10.9008
-10.9584
-11.0152
-11.0715
-11.1274
-8.29534
-8.32876
-8.41938
-8.53901
-8.6691
-8.80482
-8.94199
-9.07664
-9.2068
-9.33179
-9.45127
-9.56516
-9.6736
-9.77681
-9.87507
-9.96868
-10.0579
-10.1431
-10.2246
-10.3025
-10.3773
-10.4492
-10.5185
-10.5854
-10.6501
-10.713
-10.7743
-10.8341
-10.8928
-10.9504
-11.0072
-11.0633
-11.1191
-8.33131
-8.36073
-8.44088
-8.54862
-8.66863
-8.79631
-8.92744
-9.05803
-9.18584
-9.30974
-9.42907
-9.54348
-9.65287
-9.7573
-9.85691
-9.95191
-10.0425
-10.129
-10.2117
-10.2907
-10.3665
-10.4392
-10.5092
-10.5767
-10.6419
-10.7052
-10.7667
-10.8266
-10.8852
-10.9427
-10.9993
-11.0552
-11.1105
-8.35437
-8.38084
-8.45316
-8.55182
-8.66393
-8.78523
-8.91156
-9.03895
-9.16494
-9.28812
-9.40751
-9.52255
-9.63293
-9.73857
-9.8395
-9.93582
-10.0277
-10.1154
-10.1991
-10.2792
-10.3558
-10.4292
-10.4997
-10.5676
-10.6331
-10.6965
-10.758
-10.8178
-10.8762
-10.9334
-10.9895
-11.0448
-11.0994
-8.36481
-8.38916
-8.45585
-8.54789
-8.65415
-8.77078
-8.89368
-9.01893
-9.14393
-9.267
-9.38695
-9.50301
-9.6147
-9.7218
-9.82423
-9.92203
-10.0153
-10.1043
-10.1892
-10.2702
-10.3476
-10.4217
-10.4927
-10.5609
-10.6266
-10.69
-10.7514
-10.8109
-10.8689
-10.9256
-10.981
-11.0354
-11.0891
-8.36263
-8.38556
-8.44846
-8.53604
-8.63841
-8.75201
-8.87284
-8.99699
-9.12175
-9.24526
-9.36613
-9.48344
-9.59657
-9.70518
-9.80911
-9.90833
-10.0029
-10.0931
-10.1789
-10.2607
-10.3388
-10.4133
-10.4846
-10.553
-10.6186
-10.6818
-10.7428
-10.8019
-10.8592
-10.9151
-10.9696
-11.0229
-11.0754
-8.3475
-8.36962
-8.43041
-8.51557
-8.61602
-8.72842
-8.84884
-8.97334
-9.0991
-9.2241
-9.3468
-9.4661
-9.58128
-9.6919
-9.79773
-9.89869
-9.99483
-10.0863
-10.1732
-10.2559
-10.3346
-10.4096
-10.4811
-10.5495
-10.615
-10.6779
-10.7384
-10.7968
-10.8532
-10.9081
-10.9614
-11.0134
-11.0643
-8.31879
-8.34066
-8.40082
-8.48544
-8.58575
-8.69858
-8.81995
-8.9459
-9.0735
-9.2006
-9.32553
-9.44711
-9.56451
-9.67723
-9.78498
-9.88764
-9.98524
-10.0779
-10.1658
-10.2492
-10.3284
-10.4036
-10.4752
-10.5433
-10.6084
-10.6707
-10.7304
-10.7879
-10.8433
-10.8968
-10.9487
-10.9992
-11.0484
-8.27549
-8.29771
-8.35888
-8.44507
-8.54754
-8.66312
-8.78772
-8.91723
-9.04857
-9.17942
-9.30801
-9.43304
-9.55361
-9.66918
-9.77942
-9.88421
-9.98358
-10.0777
-10.1667
-10.2508
-10.3304
-10.4058
-10.4773
-10.5451
-10.6097
-10.6712
-10.7299
-10.7862
-10.8403
-10.8923
-10.9425
-10.9911
-11.0382
-8.21614
-8.23923
-8.30282
-8.39232
-8.49857
-8.61829
-8.74729
-8.88128
-9.01706
-9.15223
-9.28491
-9.41372
-9.53773
-9.65634
-9.7692
-9.8762
-9.97737
-10.0728
-10.1628
-10.2477
-10.3276
-10.403
-10.4741
-10.5414
-10.6052
-10.6657
-10.7232
-10.7781
-10.8305
-10.8808
-10.9291
-10.9757
-11.0207
-8.13888
-8.16374
-8.23209
-8.32807
-8.44168
-8.56929
-8.70634
-8.84813
-8.99123
-9.1331
-9.27178
-9.40587
-9.53442
-9.65686
-9.7729
-9.88246
-9.98561
-10.0825
-10.1735
-10.2589
-10.339
-10.4142
-10.4849
-10.5514
-10.6141
-10.6733
-10.7293
-10.7825
-10.833
-10.8812
-10.9272
-10.9713
-11.0136
-8.04079
-8.06774
-8.14203
-8.24566
-8.36738
-8.50345
-8.64907
-8.79926
-8.95035
-9.09968
-9.24517
-9.38531
-9.51915
-9.64609
-9.76586
-9.87841
-9.98386
-10.0825
-10.1746
-10.2605
-10.3407
-10.4157
-10.4857
-10.5512
-10.6126
-10.6703
-10.7246
-10.7758
-10.8243
-10.8702
-10.9138
-10.9555
-10.9953
-7.919
-7.95043
-8.03604
-8.15424
-8.29136
-8.44279
-8.60293
-8.76624
-8.92889
-9.08821
-9.2422
-9.38946
-9.52916
-9.66084
-9.78435
-9.89975
-10.0073
-10.1073
-10.2001
-10.2863
-10.3662
-10.4405
-10.5094
-10.5735
-10.6333
-10.689
-10.741
-10.7898
-10.8356
-10.8787
-10.9194
-10.9578
-10.9941
-7.76689
-7.80124
-7.8969
-8.02776
-8.17834
-8.34432
-8.51954
-8.69755
-8.874
-9.04589
-9.21099
-9.36783
-9.51556
-9.6538
-9.7825
-9.90185
-10.0122
-10.1141
-10.2081
-10.2946
-10.3743
-10.4478
-10.5156
-10.5781
-10.636
-10.6896
-10.7393
-10.7856
-10.8287
-10.869
-10.9067
-10.9423
-10.9758
-7.58235
-7.62958
-7.75233
-7.91347
-8.09193
-8.28285
-8.47969
-8.67589
-8.86753
-9.05206
-9.22759
-9.39294
-9.54752
-9.69116
-9.82398
-9.94632
-10.0587
-10.1617
-10.2559
-10.3421
-10.4208
-10.4928
-10.5586
-10.6188
-10.674
-10.7246
-10.7711
-10.8138
-10.8533
-10.8897
-10.9234
-10.9547
-10.9838
-7.3437
-7.39004
-7.52651
-7.70803
-7.9113
-8.13086
-8.35685
-8.58024
-8.79624
-9.00186
-9.19503
-9.3747
-9.5406
-9.69291
-9.83213
-9.95898
-10.0743
-10.1789
-10.2738
-10.3597
-10.4375
-10.508
-10.5719
-10.6299
-10.6825
-10.7303
-10.7738
-10.8134
-10.8495
-10.8825
-10.9128
-10.9408
-10.9667
-7.06908
-7.16316
-7.36758
-7.6024
-7.84317
-8.09257
-8.34273
-8.58571
-8.81818
-9.03789
-9.24302
-9.4327
-9.60676
-9.76546
-9.90941
-10.0394
-10.1564
-10.2615
-10.3557
-10.4401
-10.5155
-10.5829
-10.6432
-10.6972
-10.7454
-10.7885
-10.827
-10.8614
-10.8922
-10.9197
-10.9443
-10.9664
-10.9863
-6.64838
-6.71647
-6.95154
-7.24351
-7.55162
-7.86892
-8.17877
-8.47135
-8.74397
-8.99503
-9.22383
-9.43093
-9.61747
-9.78482
-9.93447
-10.0679
-10.1868
-10.2924
-10.3861
-10.4692
-10.5429
-10.6082
-10.6659
-10.717
-10.7622
-10.802
-10.8371
-10.8678
-10.8947
-10.9181
-10.9385
-10.9563
-10.9722
-6.28626
-6.5389
-6.89514
-7.21393
-7.53373
-7.86911
-8.19674
-8.50784
-8.80071
-9.07181
-9.31884
-9.54153
-9.74049
-9.9169
-10.0724
-10.2088
-10.3279
-10.4318
-10.5221
-10.6004
-10.6683
-10.727
-10.7778
-10.8215
-10.8592
-10.8914
-10.9187
-10.9417
-10.9606
-10.9758
-10.9874
-10.996
-11.0017
-5.23416
-5.50007
-6.11045
-6.656
-7.15703
-7.63245
-8.05782
-8.43563
-8.77342
-9.07397
-9.34032
-9.5759
-9.78365
-9.96621
-10.126
-10.2654
-10.3864
-10.491
-10.5811
-10.6585
-10.7246
-10.7809
-10.8287
-10.8691
-10.9029
-10.9309
-10.9537
-10.9717
-10.9851
-10.9938
-10.9973
-10.9966
-10.9877
-5.28593
-5.8458
-6.2872
-6.65122
-7.12676
-7.62128
-8.08467
-8.5197
-8.9179
-9.271
-9.57887
-9.84417
-10.0702
-10.2609
-10.4205
-10.5532
-10.6628
-10.7529
-10.8264
-10.8861
-10.9342
-10.9728
-11.0034
-11.0274
-11.046
-11.0601
-11.0703
-11.0769
-11.0799
-11.0785
-11.0705
-11.0538
-11.0173
-0.345961
-4.03758
-5.36222
-6.03114
-6.82846
-7.50385
-8.04582
-8.52047
-8.93527
-9.29161
-9.59722
-9.85812
-10.0792
-10.2653
-10.4211
-10.5506
-10.6577
-10.7458
-10.8177
-10.8761
-10.9232
-10.9609
-10.9908
-11.0143
-11.0325
-11.0464
-11.0569
-11.0644
-11.0698
-11.0727
-11.0754
-11.0735
-11.0765
-11.0706
-11.2725
-11.7014
-11.8922
-11.8454
-11.5974
-11.2459
-10.9219
-10.7521
-10.8256
-11.1917
-11.8418
-12.6928
-13.6238
-14.5402
-15.3493
-16.0966
-16.9785
-18.2372
-19.9903
-22.1563
-24.4946
-26.673
-28.3556
-29.2629
-29.2215
-28.1856
-26.2429
-23.5921
-20.4963
-17.2234
-13.9878
-10.9115
-8.03511
-5.37524
-2.9886
-0.974611
0.582402
1.65024
2.20884
2.22014
1.55422
-0.0594496
-2.99724
-7.48502
-13.2834
-19.6924
-25.8658
-31.0572
-34.6849
-36.3525
-35.9418
-33.5472
-29.5821
-24.6365
-19.391
-14.4882
-10.3527
-7.11158
-4.68442
-2.91908
-1.66732
-0.804726
-0.231238
0.13156
0.344068
0.452394
0.490974
0.484
0.44634
0.383507
0.292927
0.165604
-0.0160482
-0.289979
-0.765998
-1.75718
-3.88117
-7.87204
-13.9449
-21.1268
-27.3141
-30.1865
-28.7171
-23.0963
-15.5721
-8.90347
-4.53893
-2.20197
-1.042
-0.454085
-0.145228
0.00950265
0.075055
0.0909807
0.0867939
0.0714026
0.0549281
0.0339184
0.00631201
-11.1565
-11.282
-11.61
-11.7481
-11.6743
-11.4399
-11.131
-10.8605
-10.7453
-10.8687
-11.2746
-11.9584
-12.8517
-13.8359
-14.7906
-15.6054
-16.3145
-17.1112
-18.2351
-19.8015
-21.73
-23.7905
-25.6808
-27.1063
-27.8282
-27.7019
-26.6955
-24.8902
-22.458
-19.6221
-16.6085
-13.6003
-10.7107
-7.99044
-5.47062
-3.20915
-1.294
0.197719
1.22909
1.7714
1.78274
1.1442
-0.372435
-3.08872
-7.20884
-12.5412
-18.4761
-24.2383
-29.1156
-32.5442
-34.1466
-33.8092
-31.6196
-27.9633
-23.3982
-18.5631
-14.0403
-10.1977
-7.14494
-4.82132
-3.104
-1.86747
-1.00166
-0.415185
-0.034838
0.196655
0.323504
0.378945
0.386451
0.360556
0.30697
0.223227
0.100333
-0.0786693
-0.348734
-0.8067
-1.73521
-3.7039
-7.39929
-13.0342
-19.7145
-25.4854
-28.1802
-26.8502
-21.6468
-14.6732
-8.50038
-4.44118
-2.22716
-1.09379
-0.502402
-0.186802
-0.0266508
0.0446632
0.067315
0.0700043
0.0604919
0.0486354
0.0312832
0.00549233
-11.1172
-11.2603
-11.5306
-11.6494
-11.5785
-11.3655
-11.0932
-10.8718
-10.811
-10.9848
-11.4284
-12.1341
-13.0369
-14.02
-14.958
-15.7469
-16.4207
-17.1666
-18.1951
-19.5937
-21.278
-23.0432
-24.6345
-25.8061
-26.3597
-26.1748
-25.2243
-23.5745
-21.3669
-18.7865
-16.0228
-13.2351
-10.5297
-7.96564
-5.58483
-3.44629
-1.62953
-0.205719
0.784694
1.30671
1.3157
0.703154
-0.720777
-3.22416
-6.98467
-11.8502
-17.2971
-22.6266
-27.1699
-30.3877
-31.9213
-31.6574
-29.6768
-26.3382
-22.1656
-17.7484
-13.603
-10.0455
-7.17603
-4.95511
-3.28738
-2.06819
-1.20093
-0.602674
-0.205515
0.0446029
0.189895
0.262326
0.284596
0.270829
0.226911
0.150568
0.0328866
-0.142552
-0.408328
-0.849524
-1.7174
-3.52996
-6.92258
-12.1053
-18.267
-23.6088
-26.1235
-24.9328
-20.1609
-13.76
-8.09888
-4.34913
-2.25711
-1.14931
-0.553798
-0.230787
-0.0644578
0.0132609
0.0431327
0.0529932
0.049468
0.0423359
0.0285178
0.00490194
-11.1416
-11.2661
-11.4548
-11.5392
-11.4794
-11.3163
-11.1187
-10.9752
-10.9764
-11.1876
-11.6419
-12.3323
-13.1992
-14.1348
-15.0113
-15.7475
-16.391
-17.1066
-18.0595
-19.305
-20.7632
-22.2632
-23.5953
-24.5553
-24.9776
-24.7593
-23.8737
-22.3722
-20.3699
-18.02
-15.4835
-12.9001
-10.3706
-7.9589
-5.71427
-3.6962
-1.97746
-0.624036
0.321497
0.820082
0.826058
0.239404
-1.09613
-3.39686
-6.81062
-11.2163
-16.1712
-21.0556
-25.252
-28.2507
-29.7111
-29.5192
-27.7504
-24.7373
-20.9645
-16.9634
-13.1832
-9.89767
-7.20425
-5.08484
-3.46842
-2.26882
-1.40201
-0.793348
-0.380245
-0.111967
0.0516131
0.141121
0.178452
0.177278
0.143549
0.075211
-0.0365058
-0.207538
-0.468269
-0.892868
-1.70104
-3.35715
-6.44272
-11.1647
-16.7991
-21.7079
-24.0442
-22.995
-18.6668
-12.8539
-7.71049
-4.26659
-2.29238
-1.20857
-0.608521
-0.277554
-0.104192
-0.0192278
0.0184529
0.0358194
0.0383975
0.0361191
0.0256976
0.00465001
-11.1594
-11.2616
-11.401
-11.4754
-11.4452
-11.3376
-11.2076
-11.1277
-11.1739
-11.4026
-11.8408
-12.4793
-13.2644
-14.1007
-14.8812
-15.574
-16.2218
-16.9433
-17.8508
-18.9735
-20.242
-21.5184
-22.6328
-23.4167
-23.7309
-23.4867
-22.6582
-21.2849
-19.4609
-17.3145
-14.983
-12.5898
-10.2289
-7.96664
-5.85643
-3.95727
-2.33629
-1.05495
-0.157036
0.315692
0.318188
-0.241109
-1.49126
-3.60155
-6.68787
-10.651
-15.1204
-19.5558
-23.3972
-26.1688
-27.55
-27.4274
-25.8722
-23.1883
-19.8143
-16.217
-12.7833
-9.75454
-7.22997
-5.21088
-3.64722
-2.46929
-1.60479
-0.987138
-0.559028
-0.273113
-0.0914363
0.0152176
0.0678771
0.0797152
0.0566964
-0.00298881
-0.107889
-0.273516
-0.528273
-0.936379
-1.68634
-3.18798
-5.96757
-10.2281
-15.3347
-19.8108
-21.9704
-21.0641
-17.1877
-11.9711
-7.34323
-4.19663
-2.33458
-1.273
-0.667854
-0.328024
-0.146359
-0.0529854
-0.0067541
0.0185191
0.0273112
0.0299918
0.0227738
0.00466064
-11.189
-11.2771
-11.3837
-11.4485
-11.4421
-11.3836
-11.3152
-11.2913
-11.3698
-11.5954
-11.9898
-12.5457
-13.2219
-13.9494
-14.6752
-15.3558
-16.0219
-16.7495
-17.6104
-18.6203
-19.7233
-20.8096
-21.7406
-22.3762
-22.5987
-22.332
-21.5526
-20.2911
-18.6249
-16.6613
-14.5178
-12.303
-10.1044
-7.98809
-6.00968
-4.22705
-2.70263
-1.494
-0.645337
-0.199886
-0.201406
-0.732218
-1.8994
-3.83235
-6.6153
-10.1621
-14.1632
-18.1545
-21.638
-24.1773
-25.4745
-25.4193
-24.0776
-21.7203
-18.7325
-15.5163
-12.405
-9.61633
-7.25322
-5.33312
-3.82354
-2.66931
-1.80904
-1.18388
-0.741772
-0.438794
-0.239244
-0.115389
-0.047117
-0.0217931
-0.0335283
-0.0839061
-0.181144
-0.340341
-0.588132
-0.980082
-1.67485
-3.02756
-5.5079
-9.31326
-13.8973
-17.9451
-19.9318
-19.1711
-15.7508
-11.1298
-7.00537
-4.1416
-2.38428
-1.34302
-0.732224
-0.382526
-0.191108
-0.0880092
-0.0324106
0.00119632
0.0163107
0.0240658
0.0198318
0.00503256
-11.1983
-11.2755
-11.3628
-11.4249
-11.4411
-11.424
-11.4047
-11.4243
-11.5271
-11.7485
-12.1068
-12.5985
-13.1981
-13.8585
-14.5328
-15.1879
-15.8424
-16.5464
-17.347
-18.2506
-19.2095
-20.1326
-20.906
-21.4137
-21.5575
-21.2728
-20.5379
-19.3767
-17.8525
-16.0552
-14.0853
-12.0385
-9.99548
-8.02108
-6.17134
-4.50254
-3.07305
-1.93706
-1.13845
-0.720923
-0.726466
-1.22777
-2.31373
-4.08174
-6.58739
-9.75078
-13.3115
-16.8747
-20.0056
-22.3122
-23.5233
-23.5334
-22.3998
-20.3555
-17.7291
-14.8631
-12.0477
-9.48291
-7.27431
-5.45184
-3.99746
-2.86884
-2.01467
-1.38352
-0.928461
-0.60903
-0.391847
-0.250738
-0.166569
-0.127294
-0.127134
-0.167492
-0.256168
-0.407833
-0.647521
-1.02349
-1.66693
-2.87921
-5.07251
-8.43594
-12.5099
-16.1393
-17.9593
-17.3471
-14.3821
-10.3462
-6.70302
-4.1029
-2.44197
-1.41917
-0.802198
-0.441442
-0.238614
-0.124329
-0.0584694
-0.0160808
0.00544332
0.0183627
0.016839
0.00570066
-11.2055
-11.2783
-11.3562
-11.4183
-11.451
-11.4637
-11.4805
-11.5334
-11.6565
-11.8777
-12.2119
-12.6569
-13.1929
-13.7859
-14.403
-15.0226
-15.6536
-16.3255
-17.0655
-17.8716
-18.7025
-19.484
-20.1224
-20.5217
-20.5998
-20.3014
-19.6074
-18.5363
-17.14
-15.4941
-13.6845
-11.7955
-9.90117
-8.06391
-6.33902
-4.78082
-3.44408
-2.37992
-1.63138
-1.24159
-1.2507
-1.72186
-2.7282
-4.34225
-6.59619
-9.41278
-12.5698
-15.7323
-18.5261
-20.6067
-21.7326
-21.803
-20.8633
-19.106
-16.8064
-14.2562
-11.7105
-9.35441
-7.2937
-5.5673
-4.16904
-3.06783
-2.22163
-1.58602
-1.11907
-0.78381
-0.54924
-0.390813
-0.290436
-0.236694
-0.223977
-0.25357
-0.332776
-0.47576
-0.706106
-1.06604
-1.66241
-2.74522
-4.6691
-7.61151
-11.1954
-14.4216
-16.0842
-15.6237
-13.1072
-9.63413
-6.44036
-4.08101
-2.50769
-1.50163
-0.877903
-0.504758
-0.288756
-0.161788
-0.0847725
-0.0331663
-0.0051644
0.0130086
0.0138842
0.00675655
-11.2086
-11.2785
-11.3513
-11.4148
-11.4614
-11.4982
-11.5438
-11.6226
-11.7608
-11.9802
-12.2927
-12.6977
-13.1814
-13.7203
-14.2891
-14.8706
-15.4674
-16.0962
-16.7713
-17.4862
-18.2044
-18.8638
-19.3869
-19.694
-19.7167
-19.4086
-18.7527
-17.7632
-16.483
-14.9753
-13.3139
-11.5728
-9.81997
-8.11457
-6.51029
-5.05917
-3.81268
-2.81901
-2.11996
-1.75724
-1.7689
-2.2093
-3.13777
-4.60743
-6.63292
-9.13887
-11.9334
-14.7314
-17.2135
-19.0816
-20.1245
-20.2454
-19.4759
-17.9713
-15.9602
-13.6921
-11.3924
-9.23114
-7.312
-5.67998
-4.33854
-3.26641
-2.42997
-1.79139
-1.31363
-0.963159
-0.711439
-0.535606
-0.41868
-0.349925
-0.323938
-0.34195
-0.41074
-0.543852
-0.763531
-1.10708
-1.66078
-2.62703
-4.30414
-6.85407
-9.97559
-12.8197
-14.3375
-14.0308
-11.9479
-9.0034
-6.21902
-4.07558
-2.58135
-1.59054
-0.959369
-0.572345
-0.341348
-0.200212
-0.111174
-0.0499402
-0.0154301
0.00805695
0.01096
0.0081628
-11.2109
-11.2803
-11.3518
-11.4187
-11.4771
-11.5327
-11.6
-11.6977
-11.8462
-12.0625
-12.3562
-12.7274
-13.1661
-13.6553
-14.1763
-14.716
-15.2735
-15.8562
-16.4687
-17.1005
-17.7191
-18.2723
-18.6964
-18.9253
-18.9023
-18.5881
-17.9677
-17.0525
-15.8776
-14.4963
-12.9717
-11.3694
-9.75068
-8.17151
-6.68321
-5.33533
-4.17617
-3.25114
-2.60039
-2.26366
-2.27661
-2.68568
-3.53828
-4.87218
-6.68945
-8.9175
-11.3896
-13.8623
-16.0633
-17.7364
-18.6983
-18.8561
-18.2293
-16.9418
-15.1833
-13.1675
-11.0927
-9.11367
-7.32992
-5.79039
-4.50628
-3.46475
-2.63978
-1.99971
-1.51218
-1.14711
-0.878453
-0.685088
-0.551218
-0.466833
-0.42681
-0.43236
-0.489756
-0.611786
-0.819412
-1.14594
-1.66102
-2.52474
-3.98174
-6.17489
-8.86977
-11.3593
-12.7481
-12.5949
-10.921
-8.45875
-6.03813
-4.08566
-2.66284
-1.68592
-1.04639
-0.643831
-0.396013
-0.239297
-0.137438
-0.0662111
-0.0251989
0.00365149
0.00815589
0.010018
-11.2121
-11.2817
-11.3536
-11.4241
-11.4919
-11.562
-11.6455
-11.757
-11.9122
-12.1242
-12.4008
-12.7425
-13.1425
-13.5883
-14.0658
-14.564
-15.0791
-15.6124
-16.1627
-16.7173
-17.2472
-17.7085
-18.0479
-18.2109
-18.1502
-17.8329
-17.2462
-16.3989
-15.32
-14.0545
-12.6566
-11.1839
-9.69208
-8.23321
-6.85596
-5.60715
-4.53207
-3.67339
-3.0693
-2.75718
-2.7701
-3.14735
-3.92633
-5.1326
-6.75935
-8.73781
-10.9229
-13.1066
-15.0567
-16.5521
-17.4343
-17.616
-17.107
-16.0056
-14.4693
-12.6801
-10.8115
-9.0027
-7.34825
-5.89918
-4.67271
-3.66317
-2.85129
-2.21114
-1.71485
-1.33576
-1.05032
-0.839233
-0.687961
-0.587265
-0.532372
-0.524495
-0.569457
-0.679185
-0.873334
-1.18194
-1.66171
-2.43699
-3.70308
-5.58115
-7.89282
-10.0619
-11.3399
-11.3354
-10.0349
-7.99907
-5.89477
-4.11013
-2.75216
-1.78782
-1.13872
-0.718795
-0.452353
-0.278742
-0.163336
-0.0817976
-0.0343393
-0.000110084
0.00549027
0.0123304
-11.2128
-11.2834
-11.3568
-11.4312
-11.5068
-11.588
-11.6835
-11.8046
-11.9634
-12.17
-12.4306
-12.746
-13.1112
-13.5171
-13.9526
-14.4086
-14.88
-15.3639
-15.8551
-16.3395
-16.7911
-17.1725
-17.4395
-17.547
-17.4556
-17.138
-16.5832
-15.7982
-14.807
-13.6477
-12.3669
-11.0152
-9.64295
-8.29828
-7.02686
-5.8727
-4.87815
-4.08312
-3.52365
-3.23451
-3.24607
-3.59127
-4.29913
-5.38565
-6.83781
-8.59127
-10.5198
-12.4458
-14.171
-15.5046
-16.3094
-16.505
-16.0939
-15.1534
-13.8134
-12.2283
-10.5486
-8.89891
-7.36783
-6.00709
-4.8384
-3.86208
-3.06482
-2.42592
-1.92182
-1.52921
-1.22708
-0.998012
-0.828788
-0.711014
-0.640336
-0.617986
-0.649404
-0.745602
-0.92485
-1.21442
-1.66129
-2.36111
-3.46601
-5.07456
-7.05302
-8.94208
-10.128
-10.2609
-9.28811
-7.61786
-5.78477
-4.1481
-2.84965
-1.8964
-1.23608
-0.796794
-0.509931
-0.318175
-0.188578
-0.0964565
-0.0426565
-0.00305628
0.00305133
0.015221
-11.2129
-11.2848
-11.36
-11.4379
-11.5196
-11.6088
-11.7126
-11.8398
-11.9994
-12.1995
-12.445
-12.7365
-13.0705
-13.4402
-13.8367
-14.252
-14.6799
-15.115
-15.5498
-15.9697
-16.3516
-16.6636
-16.8688
-16.9297
-16.8138
-16.4984
-15.974
-15.2463
-14.3354
-13.2736
-12.101
-10.862
-9.6021
-8.36535
-7.19435
-6.1302
-5.21234
-4.47796
-3.9608
-3.69284
-3.70178
-4.01492
-4.65438
-5.62886
-6.92112
-8.4715
-10.1702
-11.8656
-13.3884
-14.575
-15.3059
-15.5085
-15.1791
-14.3781
-13.212
-11.8107
-10.304
-8.80297
-7.38953
-6.11494
-5.00407
-4.06208
-3.28084
-2.64444
-2.13339
-1.72767
-1.40883
-1.1614
-0.973566
-0.837841
-0.75037
-0.712417
-0.729096
-0.810519
-0.973466
-1.24276
-1.65814
-2.29351
-3.26516
-4.65035
-6.34938
-8.00249
-9.11329
-9.36557
-8.66874
-7.30483
-5.70388
-4.19936
-2.95602
-2.01198
-1.33838
-0.877505
-0.568387
-0.357244
-0.212875
-0.109936
-0.0499568
-0.0050365
0.000878981
0.0187512
-11.2122
-11.2855
-11.3625
-11.4435
-11.5298
-11.6249
-11.7342
-11.8646
-12.0231
-12.2159
-12.4466
-12.7161
-13.0214
-13.3573
-13.7167
-14.0923
-14.4775
-14.8657
-15.2477
-15.6093
-15.9296
-16.1815
-16.334
-16.3561
-16.221
-15.9096
-15.4142
-14.7395
-13.9023
-12.93
-11.8572
-10.7232
-9.56837
-8.43321
-7.35707
-6.37809
-5.53288
-4.85589
-4.37849
-4.12983
-4.13497
-4.41628
-4.99029
-5.86017
-7.00617
-8.37335
-9.86619
-11.3553
-12.6963
-13.7497
-14.4109
-14.6149
-14.3537
-13.6738
-12.6616
-11.4257
-10.0777
-8.71554
-7.4143
-6.2237
-5.17057
-4.26388
-3.49995
-2.86719
-2.34995
-1.9314
-1.5957
-1.32938
-1.12214
-0.967456
-0.862073
-0.807301
-0.807968
-0.873333
-1.01863
-1.26637
-1.65082
-2.2301
-3.09261
-4.29736
-5.76988
-7.23072
-8.27984
-8.62911
-8.15719
-7.04835
-5.64892
-4.2646
-3.07245
-2.1352
-1.44574
-0.960764
-0.627427
-0.3956
-0.23589
-0.121926
-0.0559896
-0.00583984
-0.000938511
0.0230678
-11.2107
-11.2852
-11.3639
-11.4473
-11.5368
-11.6356
-11.748
-11.8792
-12.0349
-12.2194
-12.4358
-12.6846
-12.9635
-13.2682
-13.5928
-13.9307
-14.2751
-14.6185
-14.9513
-15.26
-15.5257
-15.7254
-15.8332
-15.8232
-15.6732
-15.3677
-14.9001
-14.2744
-13.5049
-12.6148
-11.6342
-10.5974
-9.54065
-8.50073
-7.51378
-6.61502
-5.83823
-5.21521
-4.77488
-4.54362
-4.54388
-4.79381
-5.30548
-6.078
-7.09034
-8.29233
-9.60091
-10.9057
-12.0837
-13.0165
-13.6124
-13.8137
-13.6094
-13.0345
-12.1586
-11.072
-9.86959
-8.6373
-7.44315
-6.33444
-5.33892
-4.46842
-3.72297
-3.09487
-2.57202
-2.14076
-1.78787
-1.50196
-1.27433
-1.09953
-0.974981
-0.902077
-0.885384
-0.933368
-1.05972
-1.28468
-1.63815
-2.16701
-2.93922
-3.99956
-5.29228
-6.59932
-7.59643
-8.02062
-7.73095
-6.83841
-5.6186
-4.34554
-3.20065
-2.26709
-1.55859
-1.04659
-0.686847
-0.432914
-0.257256
-0.132084
-0.0604857
-0.00525684
-0.00234107
0.0282752
-11.208
-11.2836
-11.3635
-11.4485
-11.5401
-11.6409
-11.7544
-11.8848
-12.0361
-12.2118
-12.4142
-12.6434
-12.8976
-13.1732
-13.465
-13.767
-14.0725
-14.3739
-14.6615
-14.9224
-15.1401
-15.2948
-15.3647
-15.3283
-15.1674
-14.869
-14.4281
-13.8478
-13.1405
-12.3259
-11.4302
-10.4834
-9.51788
-8.56687
-7.66341
-6.83983
-6.12715
-5.55454
-5.1485
-4.93273
-4.92713
-5.14639
-5.59897
-6.28112
-7.17148
-8.22458
-9.36831
-10.5087
-11.5407
-12.3645
-12.8996
-13.0952
-12.9384
-12.4547
-11.6997
-10.7479
-9.67953
-8.56895
-7.47716
-6.44836
-5.51032
-4.67682
-3.95094
-3.32835
-2.80033
-2.35627
-1.98562
-1.67917
-1.42995
-1.23367
-1.08855
-0.996095
-0.960634
-0.989878
-1.09603
-1.29708
-1.61919
-2.1011
-2.79631
-3.73938
-4.88872
-6.07161
-7.02418
-7.50709
-7.37053
-6.66884
-5.61379
-4.44477
-3.34291
-2.40918
-1.6777
-1.13515
-0.74641
-0.468819
-0.276545
-0.140003
-0.0631199
-0.00302583
-0.00323136
0.0345385
-11.2043
-11.2805
-11.3612
-11.4471
-11.5396
-11.641
-11.754
-11.8819
-12.0278
-12.1942
-12.3826
-12.5932
-12.8243
-13.0726
-13.3338
-13.6021
-13.8712
-14.1335
-14.3796
-14.5977
-14.7732
-14.889
-14.9268
-14.869
-14.7003
-14.4103
-13.9948
-13.4568
-12.8066
-12.0614
-11.2438
-10.38
-9.49906
-8.63073
-7.80507
-7.05158
-6.39863
-5.87282
-5.49824
-5.29611
-5.28379
-5.4733
-5.87012
-6.46863
-7.24783
-8.16683
-9.16313
-10.1567
-11.0584
-11.7837
-12.2628
-12.4506
-12.3334
-11.9292
-11.2819
-10.4523
-9.50738
-8.51117
-7.51748
-6.56684
-5.6862
-4.89049
-4.18514
-3.56877
-3.03579
-2.57857
-2.18929
-1.86107
-1.58881
-1.36946
-1.20217
-1.08862
-1.03292
-1.04205
-1.12679
-1.30294
-1.59327
-2.03027
-2.65713
-3.50158
-4.53307
-5.61294
-6.52853
-7.06324
-7.064
-6.53772
-5.63694
-4.5657
-3.50222
-2.56354
-1.80411
-1.22675
-0.805862
-0.50289
-0.293263
-0.145221
-0.0635309
0.00112774
-0.0035229
0.0419924
-11.1989
-11.2754
-11.3564
-11.4424
-11.5349
-11.6356
-11.7469
-11.8711
-12.0106
-12.1672
-12.342
-12.5349
-12.7441
-12.967
-13.1995
-13.4364
-13.6716
-13.8978
-14.1062
-14.2861
-14.4245
-14.5069
-14.5179
-14.4428
-14.2692
-13.9885
-13.5973
-13.0985
-12.5009
-11.8193
-11.0734
-10.2861
-9.48326
-8.69149
-7.93799
-7.24954
-6.65192
-6.16926
-5.82335
-5.63304
-5.61336
-5.77416
-6.11858
-6.63988
-7.31797
-8.11627
-8.98082
-9.84344
-10.629
-11.2655
-11.6931
-11.8719
-11.7879
-11.4533
-10.9021
-10.1835
-9.353
-8.46466
-7.56533
-6.6914
-5.86823
-5.11112
-4.42719
-3.81759
-3.27959
-2.80853
-2.3994
-2.04779
-1.75069
-1.50641
-1.31513
-1.17881
-1.10133
-1.08898
-1.15117
-1.3016
-1.55989
-1.95343
-2.51775
-3.27622
-4.20747
-5.20355
-6.08928
-6.6759
-6.80638
-6.44577
-5.69155
-4.71268
-3.68245
-2.73281
-1.93916
-1.3217
-0.864969
-0.5346
-0.30682
-0.147201
-0.0612945
0.00752981
-0.00309368
0.0508187
-11.1924
-11.2689
-11.3495
-11.435
-11.5265
-11.6255
-11.7339
-11.8534
-11.9859
-12.1325
-12.2938
-12.4697
-12.6584
-12.8575
-13.0633
-13.2709
-13.4747
-13.6679
-13.8422
-13.9881
-14.0941
-14.1479
-14.1365
-14.0477
-13.8714
-13.6006
-13.2328
-12.7703
-12.2211
-11.5979
-10.9176
-10.2006
-9.46962
-8.74847
-8.06158
-7.43316
-6.88651
-6.44341
-6.12341
-5.94319
-5.91569
-6.04889
-6.34427
-6.79451
-7.38075
-8.07052
-8.81735
-9.56339
-10.2453
-10.8021
-11.1825
-11.3517
-11.2958
-11.0223
-10.5575
-9.94031
-9.21617
-8.43012
-7.62203
-6.82376
-6.05837
-5.34077
-4.67913
-4.07666
-3.53327
-3.04728
-2.6166
-2.23955
-1.91536
-1.64398
-1.42666
-1.26572
-1.16488
-1.12969
-1.16827
-1.29232
-1.51857
-1.87008
-2.37657
-3.05871
-3.9036
-4.82948
-5.69728
-6.33876
-6.59547
-6.39471
-5.78211
-4.8912
-3.88846
-2.92026
-2.08448
-1.42027
-0.923429
-0.563314
-0.316527
-0.145323
-0.0559328
0.0165288
-0.00182008
0.0611768
-11.1838
-11.2597
-11.3395
-11.4238
-11.5136
-11.6101
-11.7147
-11.8288
-11.9536
-12.09
-12.2383
-12.3979
-12.5673
-12.7442
-12.9252
-13.1058
-13.2808
-13.4439
-13.5877
-13.7034
-13.7813
-13.8107
-13.7809
-13.6816
-13.5045
-13.2441
-12.8984
-12.4698
-11.965
-11.3952
-10.775
-10.1225
-9.45736
-8.80105
-8.17538
-7.60209