/*--------------------------------*- C++ -*----------------------------------*\
  =========                 |
  \\      /  F ield         | OpenFOAM: The Open Source CFD Toolbox
   \\    /   O peration     | Website:  https://openfoam.org
    \\  /    A nd           | Version:  10
     \\/     M anipulation  |
\*---------------------------------------------------------------------------*/
FoamFile
{
    format      ascii;
    class       surfaceScalarField;
    location    "0.145";
    object      phi;
}
// * * * * * * * * * * * * * * * * * * * * * * * * * * * * * * * * * * * * * //

dimensions      [0 3 -1 0 0 0 0];

internalField   nonuniform List<scalar> 
13452
(
4.01914e-05
2.00771e-05
2.59319e-05
1.42595e-05
1.8526e-05
7.4059e-06
1.51509e-05
3.37508e-06
1.37333e-05
1.41759e-06
1.30218e-05
7.11563e-07
1.25639e-05
4.57843e-07
1.22079e-05
3.56041e-07
1.19039e-05
3.03967e-07
1.16399e-05
2.63974e-07
1.14116e-05
2.28311e-07
1.1215e-05
1.9667e-07
1.10456e-05
1.69357e-07
1.08993e-05
1.46339e-07
1.07721e-05
1.27199e-07
1.06607e-05
1.1138e-07
1.05623e-05
9.83455e-08
1.04747e-05
8.76485e-08
1.03958e-05
7.89373e-08
1.03238e-05
7.19491e-08
1.02573e-05
6.64945e-08
1.01949e-05
6.24437e-08
1.01352e-05
5.97103e-08
1.00769e-05
5.82529e-08
1.00189e-05
5.80197e-08
9.9598e-06
5.9079e-08
9.89866e-06
6.11418e-08
9.83365e-06
6.50075e-08
9.76561e-06
6.80401e-08
9.68777e-06
7.7844e-08
9.61581e-06
7.19563e-08
9.4937e-06
1.22114e-07
-3.92401e-08
9.53294e-06
6.59023e-05
1.61651e-05
6.18947e-05
1.8267e-05
5.56319e-05
1.36687e-05
4.97614e-05
9.24559e-06
4.52636e-05
5.91533e-06
4.20492e-05
3.92598e-06
3.97413e-05
2.76574e-06
3.80408e-05
2.05652e-06
3.67422e-05
1.60256e-06
3.57144e-05
1.29184e-06
3.48767e-05
1.06597e-06
3.41786e-05
8.94798e-07
3.35867e-05
7.61198e-07
3.30784e-05
6.5467e-07
3.26373e-05
5.68319e-07
3.22513e-05
4.97403e-07
3.1911e-05
4.38573e-07
3.16093e-05
3.89431e-07
3.134e-05
3.48241e-07
3.10982e-05
3.13745e-07
3.08796e-05
2.85026e-07
3.06807e-05
2.61423e-07
3.04979e-05
2.42467e-07
3.03283e-05
2.27839e-07
3.0169e-05
2.17306e-07
3.00173e-05
2.10786e-07
2.98705e-05
2.07984e-07
2.97261e-05
2.09371e-07
2.95814e-05
2.12778e-07
2.94364e-05
2.22843e-07
2.92868e-05
2.21566e-07
2.91708e-05
2.38033e-07
1.77559e-07
2.8954e-05
6.91812e-05
1.07453e-05
7.25065e-05
1.49417e-05
7.30576e-05
1.31177e-05
7.16796e-05
1.06236e-05
6.94297e-05
8.16518e-06
6.70451e-05
6.31059e-06
6.48093e-05
5.00153e-06
6.28134e-05
4.05245e-06
6.1068e-05
3.34791e-06
5.95513e-05
2.80859e-06
5.8234e-05
2.3833e-06
5.70878e-05
2.04094e-06
5.60877e-05
1.76134e-06
5.52119e-05
1.53045e-06
5.44422e-05
1.33804e-06
5.37631e-05
1.1765e-06
5.31616e-05
1.04006e-06
5.26267e-05
9.24313e-07
5.21491e-05
8.25861e-07
5.17207e-05
7.42086e-07
5.13348e-05
6.70972e-07
5.09853e-05
6.10972e-07
5.06668e-05
5.60913e-07
5.03747e-05
5.19921e-07
5.01047e-05
4.87344e-07
4.98527e-05
4.62755e-07
4.9615e-05
4.45705e-07
4.93881e-05
4.36237e-07
4.91679e-05
4.32997e-07
4.89527e-05
4.3801e-07
4.87315e-05
4.42851e-07
4.85096e-05
4.59864e-07
4.64199e-07
4.8223e-05
6.88455e-05
7.48295e-06
7.21598e-05
1.16274e-05
7.45335e-05
1.07439e-05
7.59414e-05
9.21572e-06
7.65157e-05
7.59093e-06
7.65729e-05
6.25335e-06
7.6321e-05
5.25344e-06
7.58856e-05
4.48783e-06
7.53476e-05
3.88594e-06
7.47559e-05
3.40029e-06
7.41413e-05
2.99786e-06
7.35242e-05
2.65804e-06
7.29186e-05
2.36697e-06
7.23339e-05
2.11513e-06
7.17758e-05
1.89618e-06
7.12472e-05
1.70508e-06
7.07495e-05
1.53781e-06
7.02826e-05
1.39116e-06
6.98459e-05
1.26256e-06
6.9438e-05
1.14995e-06
6.90573e-05
1.05169e-06
6.87018e-05
9.66476e-07
6.83694e-05
8.93304e-07
6.80579e-05
8.31411e-07
6.77651e-05
7.80228e-07
6.74884e-05
7.39382e-07
6.72256e-05
7.08545e-07
6.69741e-05
6.87705e-07
6.67309e-05
6.76257e-07
6.64937e-05
6.75171e-07
6.62546e-05
6.81908e-07
6.6013e-05
7.015e-07
7.35469e-07
6.57417e-05
6.95584e-05
5.38132e-06
7.18341e-05
9.35166e-06
7.35345e-05
9.04357e-06
7.48035e-05
7.94674e-06
7.5694e-05
6.70037e-06
7.63432e-05
5.60417e-06
7.68367e-05
4.75995e-06
7.72159e-05
4.10862e-06
7.75086e-05
3.59325e-06
7.77331e-05
3.17585e-06
7.79019e-05
2.82899e-06
7.80252e-05
2.53478e-06
7.811e-05
2.28216e-06
7.81619e-05
2.06318e-06
7.81867e-05
1.87146e-06
7.81892e-05
1.70252e-06
7.8174e-05
1.55306e-06
7.81446e-05
1.42058e-06
7.8104e-05
1.30311e-06
7.80548e-05
1.19915e-06
7.7999e-05
1.10752e-06
7.79381e-05
1.02735e-06
7.78734e-05
9.57966e-07
7.78059e-05
8.98923e-07
7.77362e-05
8.49919e-07
7.76648e-05
8.10809e-07
7.75918e-05
7.8152e-07
7.75174e-05
7.62192e-07
7.74408e-05
7.52807e-07
7.73618e-05
7.54128e-07
7.72775e-05
7.66286e-07
7.71866e-05
7.92375e-07
8.37261e-07
7.70848e-05
7.08399e-05
3.92549e-06
7.26262e-05
7.56536e-06
7.39319e-05
7.73785e-06
7.48611e-05
7.01754e-06
7.54903e-05
6.07116e-06
7.59388e-05
5.15567e-06
7.62936e-05
4.40515e-06
7.65949e-05
3.80731e-06
7.68629e-05
3.32524e-06
7.71073e-05
2.93145e-06
7.73322e-05
2.6041e-06
7.75398e-05
2.32724e-06
7.7732e-05
2.08996e-06
7.79104e-05
1.88469e-06
7.80761e-05
1.7058e-06
7.82296e-05
1.54898e-06
7.83717e-05
1.41095e-06
7.85031e-05
1.28918e-06
7.86246e-05
1.1817e-06
7.87367e-05
1.08699e-06
7.88403e-05
1.00389e-06
7.89362e-05
9.31517e-07
7.90249e-05
8.69206e-07
7.91074e-05
8.165e-07
7.91842e-05
7.73094e-07
7.92562e-05
7.38829e-07
7.9324e-05
7.13633e-07
7.93886e-05
6.9761e-07
7.94506e-05
6.90862e-07
7.95107e-05
6.93962e-07
7.95696e-05
7.07398e-07
7.96288e-05
7.33155e-07
7.72717e-07
7.96934e-05
7.23885e-05
2.9033e-06
7.38401e-05
6.1138e-06
7.49671e-05
6.61087e-06
7.57845e-05
6.20011e-06
7.63418e-05
5.51384e-06
7.67228e-05
4.77469e-06
7.70038e-05
4.12419e-06
7.72268e-05
3.58425e-06
7.74154e-05
3.13669e-06
7.75827e-05
2.76407e-06
7.7736e-05
2.45087e-06
7.78788e-05
2.18441e-06
7.80134e-05
1.9554e-06
7.8141e-05
1.75708e-06
7.82625e-05
1.58428e-06
7.83785e-05
1.43301e-06
7.84892e-05
1.30017e-06
7.85951e-05
1.18333e-06
7.86962e-05
1.08055e-06
7.87929e-05
9.90345e-07
7.88853e-05
9.11519e-07
7.89736e-05
8.43165e-07
7.90582e-05
7.84588e-07
7.91394e-05
7.35279e-07
7.92177e-05
6.94874e-07
7.92933e-05
6.63145e-07
7.9367e-05
6.39956e-07
7.94393e-05
6.2531e-07
7.95109e-05
6.19255e-07
7.95828e-05
6.22129e-07
7.9656e-05
6.34212e-07
7.97325e-05
6.56618e-07
6.89127e-07
7.98161e-05
7.4125e-05
2.1836e-06
7.52916e-05
4.94717e-06
7.62722e-05
5.63028e-06
7.7023e-05
5.44928e-06
7.7567e-05
4.96984e-06
7.79536e-05
4.38814e-06
7.82403e-05
3.83745e-06
7.84647e-05
3.3599e-06
7.86491e-05
2.95227e-06
7.88076e-05
2.60554e-06
7.89485e-05
2.30995e-06
7.90767e-05
2.05622e-06
7.91952e-05
1.83689e-06
7.93061e-05
1.64625e-06
7.94106e-05
1.47979e-06
7.95096e-05
1.33394e-06
7.9604e-05
1.20585e-06
7.9694e-05
1.09324e-06
7.97803e-05
9.94299e-07
7.98631e-05
9.0759e-07
7.99426e-05
8.31962e-07
8.00193e-05
7.66518e-07
8.00933e-05
7.10556e-07
8.0165e-05
6.63546e-07
8.02348e-05
6.25091e-07
8.0303e-05
5.94913e-07
8.03702e-05
5.72822e-07
8.04368e-05
5.58735e-07
8.05034e-05
5.52611e-07
8.05709e-05
5.54575e-07
8.06405e-05
5.64667e-07
8.07138e-05
5.83315e-07
6.09739e-07
8.07932e-05
7.60164e-05
1.66965e-06
7.69521e-05
4.01153e-06
7.77995e-05
4.7828e-06
7.84792e-05
4.7696e-06
7.89976e-05
4.45149e-06
7.93831e-05
4.00263e-06
7.96779e-05
3.54266e-06
7.99131e-05
3.12462e-06
8.01085e-05
2.75692e-06
8.02766e-05
2.43738e-06
8.04256e-05
2.16096e-06
8.05605e-05
1.92139e-06
8.06844e-05
1.71298e-06
8.07996e-05
1.53105e-06
8.09076e-05
1.37177e-06
8.10095e-05
1.23197e-06
8.11063e-05
1.1091e-06
8.11984e-05
1.00108e-06
8.12865e-05
9.06212e-07
8.1371e-05
8.23134e-07
8.14522e-05
7.50748e-07
8.15305e-05
6.88174e-07
8.16064e-05
6.34716e-07
8.16801e-05
5.89825e-07
8.17521e-05
5.53079e-07
8.18229e-05
5.24153e-07
8.18929e-05
5.02804e-07
8.19628e-05
4.88861e-07
8.20332e-05
4.82184e-07
8.21051e-05
4.82713e-07
8.21794e-05
4.90279e-07
8.22579e-05
5.04859e-07
5.2554e-07
8.23421e-05
7.80327e-05
1.29656e-06
7.87829e-05
3.26129e-06
7.9513e-05
4.05265e-06
8.0126e-05
4.15669e-06
8.06152e-05
3.96223e-06
8.09946e-05
3.62329e-06
8.12928e-05
3.24446e-06
8.15349e-05
2.88249e-06
8.17379e-05
2.55395e-06
8.19133e-05
2.26197e-06
8.20689e-05
2.00533e-06
8.22098e-05
1.78051e-06
8.23393e-05
1.58349e-06
8.24597e-05
1.41064e-06
8.25726e-05
1.25882e-06
8.26793e-05
1.12532e-06
8.27805e-05
1.00786e-06
8.28771e-05
9.04558e-07
8.29694e-05
8.13851e-07
8.30581e-05
7.34451e-07
8.31436e-05
6.65303e-07
8.32262e-05
6.05551e-07
8.33064e-05
5.54496e-07
8.33846e-05
5.11578e-07
8.34614e-05
4.7634e-07
8.35371e-05
4.48417e-07
8.36124e-05
4.27502e-07
8.36879e-05
4.13345e-07
8.37644e-05
4.05706e-07
8.38428e-05
4.04368e-07
8.3924e-05
4.09007e-07
8.40096e-05
4.19326e-07
4.34407e-07
8.41007e-05
8.01543e-05
1.0206e-06
8.07576e-05
2.65796e-06
8.13861e-05
3.42415e-06
8.1938e-05
3.60476e-06
8.2397e-05
3.5033e-06
8.27664e-05
3.25382e-06
8.30648e-05
2.94607e-06
8.33115e-05
2.63576e-06
8.35209e-05
2.34459e-06
8.37031e-05
2.07975e-06
8.38654e-05
1.84308e-06
8.40125e-05
1.63337e-06
8.41479e-05
1.44814e-06
8.42737e-05
1.28476e-06
8.43918e-05
1.14073e-06
8.45034e-05
1.01379e-06
8.46093e-05
9.01944e-07
8.47103e-05
8.03514e-07
8.48071e-05
7.1706e-07
8.49002e-05
6.41378e-07
8.499e-05
5.75464e-07
8.50771e-05
5.1848e-07
8.51619e-05
4.69735e-07
8.52448e-05
4.2865e-07
8.53264e-05
3.94744e-07
8.54072e-05
3.67606e-07
8.54878e-05
3.46875e-07
8.55689e-05
3.32225e-07
8.56513e-05
3.23329e-07
8.57358e-05
3.19854e-07
8.58235e-05
3.21363e-07
8.59154e-05
3.27405e-07
3.37094e-07
8.60127e-05
8.23688e-05
8.12221e-07
8.28563e-05
2.17045e-06
8.33968e-05
2.88367e-06
8.38928e-05
3.10875e-06
8.43213e-05
3.07485e-06
8.46789e-05
2.89623e-06
8.49759e-05
2.64909e-06
8.52263e-05
2.38529e-06
8.54418e-05
2.12914e-06
8.56309e-05
1.89065e-06
8.58e-05
1.67392e-06
8.59538e-05
1.47959e-06
8.60955e-05
1.30651e-06
8.62273e-05
1.15295e-06
8.6351e-05
1.01702e-06
8.64679e-05
8.96904e-07
8.65789e-05
7.90896e-07
8.66849e-05
6.97503e-07
8.67866e-05
6.15423e-07
8.68844e-05
5.43535e-07
8.6979e-05
4.80884e-07
8.70708e-05
4.26657e-07
8.71604e-05
3.80168e-07
8.72482e-05
3.40827e-07
8.73348e-05
3.08126e-07
8.74208e-05
2.81617e-07
8.75068e-05
2.6089e-07
8.75935e-05
2.45558e-07
8.76816e-05
2.35222e-07
8.77719e-05
2.29465e-07
8.78655e-05
2.27783e-07
8.79633e-05
2.29641e-07
2.34202e-07
8.80662e-05
8.46685e-05
6.51494e-07
8.50651e-05
1.77382e-06
8.55303e-05
2.41851e-06
8.59758e-05
2.66324e-06
8.63746e-05
2.67603e-06
8.67188e-05
2.55208e-06
8.70124e-05
2.35547e-06
8.72649e-05
2.13272e-06
8.74853e-05
1.90874e-06
8.76807e-05
1.69528e-06
8.78566e-05
1.49801e-06
8.80172e-05
1.31898e-06
8.81656e-05
1.15819e-06
8.83038e-05
1.01468e-06
8.84337e-05
8.87122e-07
8.85565e-05
7.74081e-07
8.86733e-05
6.74137e-07
8.87848e-05
5.85981e-07
8.88918e-05
5.08434e-07
8.89949e-05
4.40459e-07
8.90946e-05
3.81149e-07
8.91916e-05
3.2972e-07
8.92862e-05
2.85489e-07
8.93792e-05
2.4786e-07
8.9471e-05
2.16305e-07
8.95623e-05
1.90345e-07
8.96537e-05
1.6953e-07
8.97458e-05
1.53424e-07
8.98394e-05
1.41578e-07
8.99354e-05
1.3352e-07
9.00345e-05
1.28707e-07
9.01375e-05
1.26571e-07
1.26323e-07
9.02454e-05
8.70488e-05
5.2485e-07
8.73743e-05
1.44828e-06
8.77756e-05
2.0173e-06
8.81758e-05
2.26305e-06
8.85462e-05
2.30556e-06
8.8876e-05
2.22231e-06
8.91648e-05
2.06665e-06
8.94183e-05
1.87923e-06
8.96429e-05
1.68416e-06
8.98442e-05
1.494e-06
9.00268e-05
1.31541e-06
9.01943e-05
1.15145e-06
9.03495e-05
1.00297e-06
9.04945e-05
8.69677e-07
9.06309e-05
7.5072e-07
9.076e-05
6.45004e-07
9.08828e-05
5.51361e-07
9.10001e-05
4.68653e-07
9.11127e-05
3.95821e-07
9.12213e-05
3.31907e-07
9.13264e-05
2.76053e-07
9.14286e-05
2.27502e-07
9.15285e-05
1.8558e-07
9.16267e-05
1.49688e-07
9.17237e-05
1.19282e-07
9.18202e-05
9.38599e-08
9.19168e-05
7.2944e-08
9.20141e-05
5.60639e-08
9.2113e-05
4.27377e-08
9.2214e-05
3.24631e-08
9.2318e-05
2.46821e-08
9.24258e-05
1.88189e-08
1.41392e-08
9.2538e-05
8.95074e-05
4.22965e-07
8.97774e-05
1.17829e-06
9.01249e-05
1.66981e-06
9.04849e-05
1.903e-06
9.0829e-05
1.96153e-06
9.11442e-05
1.90706e-06
9.14273e-05
1.78358e-06
9.16807e-05
1.62585e-06
9.19085e-05
1.45627e-06
9.21151e-05
1.28745e-06
9.2304e-05
1.12651e-06
9.24783e-05
9.77143e-07
9.26404e-05
8.40841e-07
9.27923e-05
7.17813e-07
9.29354e-05
6.07604e-07
9.3071e-05
5.09412e-07
9.32001e-05
4.22284e-07
9.33235e-05
3.45236e-07
9.3442e-05
2.77316e-07
9.35563e-05
2.17638e-07
9.36669e-05
1.6539e-07
9.37746e-05
1.19841e-07
9.38799e-05
8.03296e-08
9.39833e-05
4.62557e-08
9.40855e-05
1.70674e-08
9.41871e-05
-7.75212e-09
9.42888e-05
-2.86997e-08
9.43911e-05
-4.62645e-08
9.44948e-05
-6.09447e-08
9.46005e-05
-7.32538e-08
9.47089e-05
-8.37455e-08
9.48207e-05
-9.29822e-08
-1.01642e-07
9.49365e-05
9.20435e-05
3.39334e-07
9.22701e-05
9.51671e-07
9.25728e-05
1.36708e-06
9.28978e-05
1.57807e-06
9.32176e-05
1.64171e-06
9.35187e-05
1.60599e-06
9.37954e-05
1.50679e-06
9.4048e-05
1.37333e-06
9.42785e-05
1.22572e-06
9.44899e-05
1.07605e-06
9.46849e-05
9.31501e-07
9.4866e-05
7.96094e-07
9.50351e-05
6.71707e-07
9.5194e-05
5.58917e-07
9.5344e-05
4.57566e-07
9.54864e-05
3.67084e-07
9.5622e-05
2.86691e-07
9.57517e-05
2.15534e-07
9.58762e-05
1.5275e-07
9.59964e-05
9.75179e-08
9.61127e-05
4.90685e-08
9.62258e-05
6.69478e-09
9.63364e-05
-3.02511e-08
9.6445e-05
-6.23647e-08
9.65523e-05
-9.01998e-08
9.66588e-05
-1.14279e-07
9.67652e-05
-1.35107e-07
9.68721e-05
-1.5318e-07
9.69802e-05
-1.68997e-07
9.709e-05
-1.83067e-07
9.72022e-05
-1.95927e-07
9.73173e-05
-2.08112e-07
-2.20242e-07
9.74359e-05
9.46572e-05
2.69336e-07
9.48499e-05
7.5889e-07
9.51158e-05
1.10127e-06
9.54104e-05
1.28346e-06
9.57085e-05
1.34357e-06
9.59963e-05
1.31823e-06
9.62667e-05
1.23631e-06
9.65181e-05
1.12202e-06
9.67509e-05
9.92898e-07
9.69668e-05
8.60129e-07
9.71677e-05
7.30614e-07
9.73554e-05
6.08403e-07
9.75315e-05
4.95571e-07
9.76975e-05
3.92917e-07
9.78546e-05
3.00482e-07
9.80038e-05
2.17863e-07
9.81461e-05
1.44414e-07
9.82822e-05
7.938e-08
9.8413e-05
2.19746e-08
9.85391e-05
-2.85733e-08
9.86612e-05
-7.29958e-08
9.87798e-05
-1.11976e-07
9.88957e-05
-1.46147e-07
9.90095e-05
-1.76097e-07
9.91216e-05
-2.02376e-07
9.92329e-05
-2.25504e-07
9.93437e-05
-2.45983e-07
9.94549e-05
-2.64305e-07
9.95668e-05
-2.80958e-07
9.96802e-05
-2.96434e-07
9.97955e-05
-3.11239e-07
9.99133e-05
-3.25871e-07
-3.40887e-07
0.000100034
9.73492e-05
2.09615e-07
9.75157e-05
5.92457e-07
9.77514e-05
8.65568e-07
9.80202e-05
1.01459e-06
9.82994e-05
1.06442e-06
9.85751e-05
1.04251e-06
9.88396e-05
9.71778e-07
9.90897e-05
8.71953e-07
9.93246e-05
7.57987e-07
9.95449e-05
6.39857e-07
9.97516e-05
5.23929e-07
9.99459e-05
4.14066e-07
0.000100129
3.12355e-07
0.000100302
2.19681e-07
0.000100467
1.36192e-07
0.000100623
6.15828e-08
0.000100772
-4.70548e-09
0.000100915
-6.33588e-08
0.000101052
-1.15112e-07
0.000101184
-1.60695e-07
0.000101312
-2.00812e-07
0.000101436
-2.36124e-07
0.000101557
-2.67252e-07
0.000101676
-2.9477e-07
0.000101793
-3.19219e-07
0.000101908
-3.41111e-07
0.000102023
-3.60936e-07
0.000102138
-3.7917e-07
0.000102253
-3.96282e-07
0.00010237
-4.12736e-07
0.000102487
-4.28999e-07
0.000102607
-4.45528e-07
-4.62813e-07
0.000102729
0.000100121
1.57678e-07
0.000100267
4.46438e-07
0.000100479
6.54108e-07
0.000100726
7.67123e-07
0.000100989
8.01424e-07
0.000101254
7.77212e-07
0.000101514
7.12392e-07
0.000101763
6.22792e-07
0.000102
5.2084e-07
0.000102225
4.15147e-07
0.000102437
3.11357e-07
0.000102638
2.12965e-07
0.000102829
1.21908e-07
0.000103009
3.90345e-08
0.000103181
-3.54917e-08
0.000103345
-1.01942e-07
0.000103501
-1.60837e-07
0.00010365
-2.12828e-07
0.000103794
-2.58619e-07
0.000103932
-2.98915e-07
0.000104066
-3.34398e-07
0.000104195
-3.65715e-07
0.000104321
-3.93468e-07
0.000104445
-4.1822e-07
0.000104566
-4.40499e-07
0.000104686
-4.60798e-07
0.000104804
-4.7959e-07
0.000104923
-4.97327e-07
0.000105041
-5.14449e-07
0.000105159
-5.31382e-07
0.000105279
-5.48549e-07
0.0001054
-5.66354e-07
-5.85217e-07
0.000105522
0.000102974
1.11617e-07
0.000103104
3.16075e-07
0.000103297
4.61786e-07
0.000103527
5.36987e-07
0.000103777
5.51664e-07
0.000104033
5.20425e-07
0.000104289
4.57007e-07
0.000104538
3.73864e-07
0.000104778
2.81046e-07
0.000105007
1.85727e-07
0.000105226
9.26825e-08
0.000105434
4.89623e-09
0.000105632
-7.5965e-08
0.00010582
-1.49208e-07
0.000105999
-2.14738e-07
0.00010617
-2.72859e-07
0.000106333
-3.241e-07
0.00010649
-3.6911e-07
0.00010664
-4.08585e-07
0.000106784
-4.4322e-07
0.000106923
-4.73687e-07
0.000107058
-5.0062e-07
0.000107189
-5.24607e-07
0.000107317
-5.46196e-07
0.000107443
-5.65895e-07
0.000107566
-5.84179e-07
0.000107688
-6.01493e-07
0.000107809
-6.18259e-07
0.000107929
-6.34881e-07
0.00010805
-6.51744e-07
0.00010817
-6.69222e-07
0.000108292
-6.87666e-07
-7.07431e-07
0.000108414
0.00010591
6.99292e-08
0.000106029
1.97476e-07
0.000106207
2.84129e-07
0.000106423
3.20304e-07
0.000106663
3.12122e-07
0.000106913
2.69948e-07
0.000107166
2.04089e-07
0.000107416
1.24089e-07
0.000107659
3.78084e-08
0.000107894
-4.90424e-08
0.000108119
-1.32636e-07
0.000108335
-2.10609e-07
0.000108541
-2.81699e-07
0.000108737
-3.45446e-07
0.000108924
-4.01909e-07
0.000109103
-4.51483e-07
0.000109273
-4.94754e-07
0.000109437
-5.32405e-07
0.000109593
-5.65146e-07
0.000109744
-5.93681e-07
0.000109889
-6.1868e-07
0.000110029
-6.40769e-07
0.000110165
-6.60525e-07
0.000110297
-6.78479e-07
0.000110426
-6.95118e-07
0.000110553
-7.1089e-07
0.000110678
-7.26211e-07
0.000110801
-7.41467e-07
0.000110923
-7.57018e-07
0.000111044
-7.73203e-07
0.000111166
-7.9034e-07
0.000111287
-8.08721e-07
-8.28623e-07
0.000111408
0.000108932
3.13875e-08
0.000109042
8.73742e-08
0.000109209
1.17148e-07
0.000109416
1.13365e-07
0.000109648
7.97069e-08
0.000109895
2.33573e-08
0.000110147
-4.81889e-08
0.000110399
-1.27888e-07
0.000110647
-2.09891e-07
0.000110888
-2.89934e-07
0.00011112
-3.65202e-07
0.000111344
-4.34045e-07
0.000111558
-4.95685e-07
0.000111762
-5.4999e-07
0.000111958
-5.97243e-07
0.000112144
-6.3799e-07
0.000112322
-6.72917e-07
0.000112493
-7.0277e-07
0.000112656
-7.28301e-07
0.000112812
-7.50235e-07
0.000112963
-7.69252e-07
0.000113108
-7.85976e-07
0.000113249
-8.00974e-07
0.000113385
-8.14761e-07
0.000113518
-8.27799e-07
0.000113647
-8.40508e-07
0.000113774
-8.53269e-07
0.000113899
-8.66426e-07
0.000114023
-8.80296e-07
0.000114144
-8.95168e-07
0.000114265
-9.11305e-07
0.000114386
-9.28947e-07
-9.48306e-07
0.000114505
0.000112041
-5.05319e-09
0.000112145
-1.70693e-08
0.000112305
-4.28215e-08
0.000112506
-8.74838e-08
0.000112735
-1.48862e-07
0.00011298
-2.22144e-07
0.000113234
-3.02144e-07
0.00011349
-3.83985e-07
0.000113744
-4.63657e-07
0.000113992
-5.38312e-07
0.000114233
-6.06193e-07
0.000114466
-6.66427e-07
0.000114689
-7.18806e-07
0.000114903
-7.636e-07
0.000115107
-8.01385e-07
0.000115302
-8.3291e-07
0.000115488
-8.59004e-07
0.000115665
-8.80511e-07
0.000115835
-8.98248e-07
0.000115998
-9.12979e-07
0.000116154
-9.25403e-07
0.000116304
-9.36147e-07
0.000116449
-9.45772e-07
0.000116589
-9.54775e-07
0.000116725
-9.63593e-07
0.000116857
-9.72615e-07
0.000116986
-9.82182e-07
0.000117112
-9.92594e-07
0.000117236
-1.00412e-06
0.000117358
-1.01699e-06
0.000117478
-1.03141e-06
0.000117597
-1.04756e-06
-1.06557e-06
0.000117714
0.00011524
-4.03341e-08
0.000115341
-1.18425e-07
0.000115498
-1.99229e-07
0.000115696
-2.85845e-07
0.000115924
-3.76944e-07
0.000116171
-4.69496e-07
0.000116429
-5.6024e-07
0.000116692
-6.4621e-07
0.000116953
-7.25104e-07
0.00011721
-7.95467e-07
0.000117461
-8.56633e-07
0.000117703
-9.08568e-07
0.000117936
-9.517e-07
0.000118159
-9.86773e-07
0.000118372
-1.01471e-06
0.000118576
-1.03651e-06
0.00011877
-1.05319e-06
0.000118955
-1.06573e-06
0.000119132
-1.07501e-06
0.000119301
-1.08186e-06
0.000119462
-1.08701e-06
0.000119617
-1.09109e-06
0.000119766
-1.09466e-06
0.00011991
-1.09821e-06
0.000120048
-1.10214e-06
0.000120182
-1.1068e-06
0.000120313
-1.1125e-06
0.00012044
-1.11949e-06
0.000120564
-1.12798e-06
0.000120685
-1.13817e-06
0.000120803
-1.15019e-06
0.00012092
-1.16418e-06
-1.1802e-06
0.000121035
0.000118531
-7.5335e-08
0.000118632
-2.19179e-07
0.000118788
-3.55568e-07
0.000118988
-4.85609e-07
0.000119219
-6.08441e-07
0.000119472
-7.22406e-07
0.000119738
-8.25882e-07
0.000120009
-9.17625e-07
0.000120281
-9.96952e-07
0.000120549
-1.06379e-06
0.000120811
-1.1186e-06
0.000121065
-1.16224e-06
0.000121309
-1.19587e-06
0.000121543
-1.22075e-06
0.000121767
-1.23822e-06
0.00012198
-1.24958e-06
0.000122183
-1.25607e-06
0.000122376
-1.25881e-06
0.000122559
-1.25881e-06
0.000122735
-1.25696e-06
0.000122902
-1.25402e-06
0.000123061
-1.25065e-06
0.000123214
-1.24739e-06
0.00012336
-1.24471e-06
0.000123501
-1.24299e-06
0.000123637
-1.24255e-06
0.000123768
-1.24365e-06
0.000123895
-1.24648e-06
0.000124018
-1.25122e-06
0.000124138
-1.25798e-06
0.000124255
-1.26686e-06
0.000124369
-1.2779e-06
-1.29111e-06
0.00012448
0.000121917
-1.10928e-07
0.000122019
-3.2178e-07
0.000122179
-5.15297e-07
0.000122384
-6.90625e-07
0.000122623
-8.47154e-07
0.000122885
-9.84368e-07
0.000123161
-1.10213e-06
0.000123444
-1.20083e-06
0.000123729
-1.28137e-06
0.00012401
-1.34507e-06
0.000124285
-1.39356e-06
0.000124551
-1.42868e-06
0.000124808
-1.45232e-06
0.000125054
-1.46635e-06
0.000125288
-1.47258e-06
0.000125511
-1.47265e-06
0.000125723
-1.46804e-06
0.000125924
-1.46006e-06
0.000126115
-1.44985e-06
0.000126297
-1.43838e-06
0.000126469
-1.42645e-06
0.000126633
-1.41473e-06
0.00012679
-1.40378e-06
0.000126939
-1.39404e-06
0.000127082
-1.38587e-06
0.000127219
-1.37954e-06
0.00012735
-1.37527e-06
0.000127477
-1.3732e-06
0.000127599
-1.37345e-06
0.000127717
-1.37608e-06
0.000127832
-1.38113e-06
0.000127942
-1.38862e-06
-1.39848e-06
0.00012805
0.000125401
-1.48127e-07
0.000125508
-4.29083e-07
0.000125675
-6.82651e-07
0.000125891
-9.0596e-07
0.000126142
-1.09854e-06
0.000126419
-1.26089e-06
0.000126711
-1.39427e-06
0.000127011
-1.50071e-06
0.000127312
-1.58273e-06
0.00012761
-1.64311e-06
0.000127901
-1.68475e-06
0.000128183
-1.71053e-06
0.000128454
-1.72318e-06
0.000128713
-1.72526e-06
0.000128959
-1.71905e-06
0.000129193
-1.70661e-06
0.000129415
-1.68969e-06
0.000129625
-1.66981e-06
0.000129823
-1.64824e-06
0.000130011
-1.62603e-06
0.000130188
-1.60405e-06
0.000130357
-1.58299e-06
0.000130516
-1.56339e-06
0.000130668
-1.54567e-06
0.000130812
-1.53016e-06
0.00013095
-1.5171e-06
0.000131081
-1.50663e-06
0.000131207
-1.49887e-06
0.000131327
-1.49386e-06
0.000131443
-1.4916e-06
0.000131554
-1.49206e-06
0.00013166
-1.49519e-06
-1.50084e-06
0.000131762
0.000128985
-1.87892e-07
0.0001291
-5.43849e-07
0.000129278
-8.61499e-07
0.000129508
-1.13589e-06
0.000129777
-1.36681e-06
0.000130072
-1.55587e-06
0.000130383
-1.70583e-06
0.000130703
-1.82041e-06
0.000131024
-1.90384e-06
0.000131341
-1.96045e-06
0.000131651
-1.99445e-06
0.00013195
-2.00985e-06
0.000132237
-2.0103e-06
0.000132511
-1.99908e-06
0.000132771
-1.97904e-06
0.000133017
-1.95266e-06
0.00013325
-1.92202e-06
0.000133469
-1.88886e-06
0.000133675
-1.85459e-06
0.000133869
-1.82039e-06
0.000134053
-1.78715e-06
0.000134225
-1.75559e-06
0.000134388
-1.72626e-06
0.000134542
-1.69955e-06
0.000134687
-1.67575e-06
0.000134825
-1.65504e-06
0.000134956
-1.63753e-06
0.000135081
-1.62326e-06
0.000135199
-1.61223e-06
0.000135312
-1.60439e-06
0.000135419
-1.59964e-06
0.000135522
-1.59789e-06
-1.59896e-06
0.00013562
0.000132673
-2.31926e-07
0.0001328
-6.70735e-07
0.000132997
-1.05886e-06
0.00013325
-1.38897e-06
0.000133545
-1.66125e-06
0.000133868
-1.87858e-06
0.000134207
-2.04545e-06
0.000134554
-2.16758e-06
0.000134902
-2.25117e-06
0.000135244
-2.30232e-06
0.000135576
-2.32677e-06
0.000135896
-2.32975e-06
0.000136201
-2.31592e-06
0.000136492
-2.28936e-06
0.000136766
-2.25352e-06
0.000137025
-2.21132e-06
0.000137268
-2.16519e-06
0.000137496
-2.11708e-06
0.00013771
-2.06858e-06
0.000137911
-2.02094e-06
0.000138099
-1.97511e-06
0.000138275
-1.93182e-06
0.00013844
-1.89159e-06
0.000138596
-1.85481e-06
0.000138741
-1.8217e-06
0.000138879
-1.79241e-06
0.000139008
-1.76697e-06
0.00013913
-1.74536e-06
0.000139246
-1.72751e-06
0.000139355
-1.71331e-06
0.000139458
-1.70258e-06
0.000139555
-1.69514e-06
-1.69073e-06
0.000139647
0.000136467
-2.81064e-07
0.000136609
-8.12609e-07
0.000136829
-1.27844e-06
0.000137109
-1.66904e-06
0.000137433
-1.98569e-06
0.000137788
-2.233e-06
0.00013816
-2.41737e-06
0.000138539
-2.54674e-06
0.000138917
-2.62945e-06
0.000139288
-2.67353e-06
0.000139648
-2.68637e-06
0.000139993
-2.67463e-06
0.000140321
-2.64409e-06
0.000140631
-2.59969e-06
0.000140923
-2.54561e-06
0.000141197
-2.48524e-06
0.000141454
-2.42139e-06
0.000141693
-2.35626e-06
0.000141916
-2.2916e-06
0.000142124
-2.22874e-06
0.000142317
-2.1687e-06
0.000142498
-2.1122e-06
0.000142666
-2.05974e-06
0.000142823
-2.01165e-06
0.000142969
-1.96812e-06
0.000143106
-1.92922e-06
0.000143234
-1.89492e-06
0.000143353
-1.86513e-06
0.000143466
-1.83972e-06
0.000143571
-1.8185e-06
0.00014367
-1.80126e-06
0.000143762
-1.78778e-06
-1.77772e-06
0.000143849
0.000140375
-3.39978e-07
0.000140543
-9.80746e-07
0.000140801
-1.53622e-06
0.000141126
-1.99413e-06
0.000141498
-2.35792e-06
0.0001419
-2.63489e-06
0.000142317
-2.83447e-06
0.000142738
-2.96771e-06
0.000143154
-3.04573e-06
0.000143559
-3.07882e-06
0.000143949
-3.07624e-06
0.000144321
-3.04614e-06
0.000144672
-2.99549e-06
0.000145003
-2.93013e-06
0.000145312
-2.8549e-06
0.0001456
-2.77372e-06
0.000145869
-2.68972e-06
0.000146118
-2.60537e-06
0.000146349
-2.52253e-06
0.000146563
-2.44264e-06
0.000146761
-2.36673e-06
0.000146944
-2.29551e-06
0.000147114
-2.22944e-06
0.000147271
-2.1688e-06
0.000147417
-2.11371e-06
0.000147551
-2.06415e-06
0.000147677
-2.02004e-06
0.000147793
-1.9812e-06
0.0001479
-1.94742e-06
0.000148
-1.91842e-06
0.000148093
-1.8939e-06
0.000148179
-1.87355e-06
-1.85694e-06
0.000148258
0.000144391
-4.06471e-07
0.000144584
-1.17396e-06
0.000144879
-1.83097e-06
0.000145249
-2.36438e-06
0.000145672
-2.78105e-06
0.000146128
-3.09089e-06
0.0001466
-3.30629e-06
0.000147074
-3.44195e-06
0.000147541
-3.51227e-06
0.000147993
-3.53032e-06
0.000148424
-3.50771e-06
0.000148832
-3.45444e-06
0.000149216
-3.37891e-06
0.000149574
-3.28805e-06
0.000149906
-3.18747e-06
0.000150214
-3.08164e-06
0.000150498
-2.97406e-06
0.000150761
-2.86741e-06
0.000151002
-2.76371e-06
0.000151223
-2.66441e-06
0.000151427
-2.57054e-06
0.000151615
-2.48277e-06
0.000151787
-2.40148e-06
0.000151945
-2.32687e-06
0.00015209
-2.25896e-06
0.000152223
-2.19765e-06
0.000152346
-2.14275e-06
0.000152459
-2.09401e-06
0.000152563
-2.05114e-06
0.000152658
-2.01379e-06
0.000152746
-1.98161e-06
0.000152826
-1.95424e-06
-1.93116e-06
0.000152901
0.000148541
-5.00008e-07
0.000148797
-1.42907e-06
0.000149171
-2.20555e-06
0.000149625
-2.81837e-06
0.000150128
-3.28439e-06
0.000150658
-3.62006e-06
0.000151195
-3.84336e-06
0.000151727
-3.97388e-06
0.000152244
-4.02964e-06
0.00015274
-4.0265e-06
0.000153211
-3.9783e-06
0.000153653
-3.8968e-06
0.000154066
-3.79176e-06
0.000154449
-3.67112e-06
0.000154803
-3.54125e-06
0.000155128
-3.40715e-06
0.000155427
-3.27267e-06
0.0001557
-3.1407e-06
0.00015595
-3.01338e-06
0.000156178
-2.89218e-06
0.000156385
-2.77812e-06
0.000156574
-2.67179e-06
0.000156746
-2.57349e-06
0.000156903
-2.48331e-06
0.000157045
-2.40114e-06
0.000157174
-2.32679e-06
0.000157291
-2.25995e-06
0.000157398
-2.20026e-06
0.000157494
-2.14734e-06
0.000157581
-2.10076e-06
0.000157659
-2.06005e-06
0.00015773
-2.02475e-06
-1.99422e-06
0.000157793
0.000152785
-5.95956e-07
0.000153076
-1.72032e-06
0.000153512
-2.6416e-06
0.00015405
-3.35558e-06
0.000154651
-3.88572e-06
0.000155283
-4.25241e-06
0.000155921
-4.48118e-06
0.000156547
-4.59936e-06
0.000157148
-4.63069e-06
0.000157716
-4.59533e-06
0.000158249
-4.51044e-06
0.000158742
-4.3902e-06
0.000159196
-4.24606e-06
0.000159612
-4.08713e-06
0.000159992
-3.92054e-06
0.000160336
-3.75179e-06
0.000160649
-3.58496e-06
0.000160931
-3.42308e-06
0.000161186
-3.26826e-06
0.000161416
-3.12192e-06
0.000161622
-2.98494e-06
0.000161808
-2.85775e-06
0.000161975
-2.7405e-06
0.000162125
-2.63309e-06
0.000162259
-2.53527e-06
0.000162379
-2.44667e-06
0.000162486
-2.36686e-06
0.000162581
-2.29538e-06
0.000162666
-2.23174e-06
0.00016274
-2.17546e-06
0.000162806
-2.12603e-06
0.000162864
-2.083e-06
-2.04558e-06
0.000162916
0.000157247
-7.91118e-07
0.000157699
-2.17262e-06
0.000158294
-3.23679e-06
0.000158965
-4.0269e-06
0.000159677
-4.59751e-06
0.000160401
-4.97637e-06
0.000161116
-5.19638e-06
0.000161808
-5.29107e-06
0.000162466
-5.2883e-06
0.000163082
-5.2119e-06
0.000163654
-5.08215e-06
0.000164179
-4.91563e-06
0.000164659
-4.72556e-06
0.000165094
-4.52229e-06
0.000165487
-4.3138e-06
0.000165842
-4.10603e-06
0.00016616
-3.90332e-06
0.000166446
-3.70873e-06
0.000166702
-3.5243e-06
0.000166931
-3.35128e-06
0.000167136
-3.19033e-06
0.00016732
-3.04166e-06
0.000167485
-2.90516e-06
0.000167632
-2.7805e-06
0.000167764
-2.66719e-06
0.000167882
-2.56465e-06
0.000167988
-2.47228e-06
0.000168082
-2.38946e-06
0.000168166
-2.31561e-06
0.00016824
-2.25016e-06
0.000168307
-2.19261e-06
0.000168366
-2.14245e-06
-2.09886e-06
0.00016842
0.000161693
-9.45518e-07
0.000162218
-2.69743e-06
0.000162961
-3.9803e-06
0.00016383
-4.89601e-06
0.000164749
-5.51586e-06
0.00016566
-5.88775e-06
0.000166535
-6.07189e-06
0.000167362
-6.11785e-06
0.000168135
-6.06129e-06
0.000168854
-5.93068e-06
0.000169521
-5.74881e-06
0.000170138
-5.53321e-06
0.00017071
-5.2974e-06
0.00017124
-5.05171e-06
0.00017173
-4.80392e-06
0.000172183
-4.55979e-06
0.000172604
-4.32346e-06
0.000172993
-4.09784e-06
0.000173353
-3.88481e-06
0.000173687
-3.6855e-06
0.000173997
-3.50042e-06
0.000174285
-3.32963e-06
0.000174553
-3.17287e-06
0.000174802
-3.02962e-06
0.000175034
-2.89925e-06
0.000175251
-2.781e-06
0.000175453
-2.67416e-06
0.000175641
-2.57798e-06
0.000175817
-2.49187e-06
0.000175982
-2.41528e-06
0.000176138
-2.34803e-06
0.000176285
-2.28965e-06
-2.24039e-06
0.000176427
0.00016669
-1.4823e-06
0.000167551
-3.55775e-06
0.000168498
-4.9275e-06
0.000169524
-5.9217e-06
0.000170629
-6.62131e-06
0.000171794
-7.05287e-06
0.000173
-7.27764e-06
0.000174224
-7.34197e-06
0.000175443
-7.28001e-06
0.000176635
-7.12287e-06
0.000177783
-6.89731e-06
0.000178875
-6.62522e-06
0.000179902
-6.32431e-06
0.000180859
-6.00855e-06
0.000181744
-5.68875e-06
0.000182557
-5.37301e-06
0.000183301
-5.06727e-06
0.000183979
-4.77561e-06
0.000184595
-4.50068e-06