/*--------------------------------*- C++ -*----------------------------------*\
  =========                 |
  \\      /  F ield         | OpenFOAM: The Open Source CFD Toolbox
   \\    /   O peration     | Website:  https://openfoam.org
    \\  /    A nd           | Version:  10
     \\/     M anipulation  |
\*---------------------------------------------------------------------------*/
FoamFile
{
    format      ascii;
    class       volVectorField;
    location    "0.145";
    object      U;
}
// * * * * * * * * * * * * * * * * * * * * * * * * * * * * * * * * * * * * * //

dimensions      [0 1 -1 0 0 0 0];

internalField   nonuniform List<vector> 
6820
(
(5.57349 0.459181 0)
(3.88265 0.245967 0)
(2.58836 0.00886361 0)
(1.95583 -0.0640987 0)
(1.72982 -0.0593807 0)
(1.61791 -0.0339036 0)
(1.5521 -0.0152452 0)
(1.50526 -0.00517763 0)
(1.4657 -0.000582086 0)
(1.43129 0.000931489 0)
(1.40147 0.0010034 0)
(1.37573 0.000518752 0)
(1.35359 -0.000113265 0)
(1.3345 -0.000711892 0)
(1.31795 -0.00120801 0)
(1.30352 -0.00158643 0)
(1.29083 -0.00185545 0)
(1.27957 -0.00203102 0)
(1.26949 -0.00212956 0)
(1.26036 -0.00216529 0)
(1.25197 -0.00214969 0)
(1.24417 -0.00209156 0)
(1.23678 -0.00199753 0)
(1.22964 -0.00187197 0)
(1.2226 -0.0017196 0)
(1.21553 -0.00153922 0)
(1.20822 -0.00134685 0)
(1.2007 -0.00110287 0)
(1.1923 -0.000943913 0)
(1.18452 -0.000413357 0)
(1.1723 -0.000929551 0)
(1.17022 0.00382442 0)
(1.13186 -0.0176114 0)
(7.6698 0.864005 0)
(7.71697 0.891041 0)
(6.9991 0.598759 0)
(6.19562 0.347894 0)
(5.58119 0.180014 0)
(5.13538 0.0935724 0)
(4.81719 0.0532738 0)
(4.58722 0.0348606 0)
(4.41445 0.0264667 0)
(4.27962 0.0222344 0)
(4.171 0.0196952 0)
(4.08126 0.0179119 0)
(4.00569 0.0165136 0)
(3.94113 0.0153397 0)
(3.88534 0.0143114 0)
(3.83669 0.0133902 0)
(3.79395 0.0125595 0)
(3.75614 0.0118131 0)
(3.7225 0.0111509 0)
(3.69239 0.0105761 0)
(3.66527 0.0100945 0)
(3.64066 0.00971369 0)
(3.61817 0.00944304 0)
(3.59741 0.00929405 0)
(3.57803 0.0092771 0)
(3.55972 0.00941109 0)
(3.54213 0.00968774 0)
(3.525 0.0101799 0)
(3.50793 0.0106851 0)
(3.49095 0.0117605 0)
(3.47314 0.011631 0)
(3.45734 0.0139928 0)
(3.43977 0.00973063 0)
(7.56353 0.520445 0)
(8.22512 0.663961 0)
(8.46444 0.576829 0)
(8.36295 0.459479 0)
(8.1263 0.34555 0)
(7.84845 0.260785 0)
(7.57724 0.201218 0)
(7.33255 0.158474 0)
(7.11771 0.127401 0)
(6.93079 0.104316 0)
(6.76855 0.0867334 0)
(6.62757 0.0730758 0)
(6.50474 0.0623058 0)
(6.39736 0.0537149 0)
(6.30315 0.0467904 0)
(6.22019 0.0411516 0)
(6.14685 0.0365176 0)
(6.08175 0.032683 0)
(6.02374 0.0294978 0)
(5.97183 0.026854 0)
(5.92516 0.0246743 0)
(5.88301 0.0229058 0)
(5.84472 0.0215141 0)
(5.80972 0.0204799 0)
(5.77751 0.0197951 0)
(5.74759 0.0194636 0)
(5.71953 0.0194853 0)
(5.69291 0.0198952 0)
(5.6673 0.0206071 0)
(5.64235 0.0218348 0)
(5.6175 0.0227102 0)
(5.59194 0.0244231 0)
(5.56509 0.0226114 0)
(7.43336 0.341222 0)
(7.88459 0.514902 0)
(8.24319 0.49034 0)
(8.44157 0.430878 0)
(8.54091 0.359994 0)
(8.57043 0.299731 0)
(8.55468 0.253921 0)
(8.51326 0.218691 0)
(8.45724 0.19104 0)
(8.39307 0.168715 0)
(8.32495 0.150137 0)
(8.25564 0.134356 0)
(8.18694 0.120757 0)
(8.12018 0.108914 0)
(8.05616 0.0985514 0)
(7.99534 0.0894608 0)
(7.93792 0.0814757 0)
(7.88399 0.0744594 0)
(7.83349 0.0683012 0)
(7.7863 0.0629126 0)
(7.74225 0.0582248 0)
(7.70113 0.0541865 0)
(7.66272 0.050762 0)
(7.62677 0.0479301 0)
(7.59304 0.0456813 0)
(7.56126 0.0440197 0)
(7.53116 0.0429504 0)
(7.50247 0.0425071 0)
(7.47489 0.0426573 0)
(7.44809 0.0435307 0)
(7.42173 0.0448223 0)
(7.39473 0.0470701 0)
(7.3677 0.0501353 0)
(7.39681 0.251186 0)
(7.67987 0.421524 0)
(7.9231 0.404809 0)
(8.07685 0.355214 0)
(8.18708 0.300895 0)
(8.26905 0.255637 0)
(8.32949 0.222108 0)
(8.37573 0.196632 0)
(8.4117 0.176461 0)
(8.43946 0.159949 0)
(8.46055 0.146003 0)
(8.4762 0.133964 0)
(8.48739 0.123428 0)
(8.49468 0.114114 0)
(8.49872 0.105812 0)
(8.50009 0.0983699 0)
(8.4993 0.0916747 0)
(8.49679 0.0856437 0)
(8.49292 0.0802169 0)
(8.48798 0.0753522 0)
(8.48223 0.0710227 0)
(8.47585 0.0672146 0)
(8.469 0.0639256 0)
(8.4618 0.0611646 0)
(8.45433 0.0589496 0)
(8.44665 0.0573096 0)
(8.4388 0.056278 0)
(8.43079 0.055906 0)
(8.4226 0.0562257 0)
(8.41416 0.0573437 0)
(8.40539 0.0592609 0)
(8.39583 0.0623298 0)
(8.38583 0.0669024 0)
(7.37401 0.180862 0)
(7.57401 0.336663 0)
(7.76053 0.343249 0)
(7.87472 0.314472 0)
(7.95058 0.275709 0)
(8.00553 0.237967 0)
(8.0465 0.207042 0)
(8.08013 0.1824 0)
(8.10983 0.162568 0)
(8.13678 0.146403 0)
(8.1615 0.132955 0)
(8.18431 0.121526 0)
(8.20538 0.111668 0)
(8.22495 0.10308 0)
(8.24312 0.0955185 0)
(8.25998 0.0888076 0)
(8.27559 0.082822 0)
(8.29003 0.0774719 0)
(8.30337 0.072693 0)
(8.3157 0.0684416 0)
(8.32709 0.0646897 0)
(8.33762 0.0614233 0)
(8.34736 0.0586407 0)
(8.35639 0.0563509 0)
(8.36479 0.0545729 0)
(8.37263 0.0533361 0)
(8.38001 0.0526768 0)
(8.38699 0.0526466 0)
(8.39365 0.0532966 0)
(8.40009 0.0547232 0)
(8.40636 0.0570228 0)
(8.41258 0.0604482 0)
(8.41891 0.065362 0)
(7.35904 0.132961 0)
(7.5032 0.273771 0)
(7.65536 0.296058 0)
(7.75505 0.279775 0)
(7.82073 0.250691 0)
(7.86715 0.219279 0)
(7.89993 0.19209 0)
(7.92479 0.169866 0)
(7.94545 0.15163 0)
(7.96352 0.136511 0)
(7.97985 0.123782 0)
(7.99499 0.112882 0)
(8.0092 0.103423 0)
(8.02265 0.095129 0)
(8.03543 0.087804 0)
(8.04762 0.0813045 0)
(8.05927 0.0755213 0)
(8.07039 0.0703709 0)
(8.08102 0.0657901 0)
(8.09118 0.0617331 0)
(8.10089 0.058169 0)
(8.11017 0.0550796 0)
(8.11905 0.052458 0)
(8.12757 0.0503077 0)
(8.13575 0.048641 0)
(8.14364 0.0474798 0)
(8.1513 0.0468526 0)
(8.15879 0.0468001 0)
(8.16616 0.0473671 0)
(8.17351 0.0486292 0)
(8.18091 0.0506611 0)
(8.18857 0.0536363 0)
(8.19663 0.0576305 0)
(7.34964 0.0992806 0)
(7.45331 0.221228 0)
(7.57615 0.251554 0)
(7.66452 0.24536 0)
(7.72588 0.226232 0)
(7.77103 0.20262 0)
(7.80378 0.180314 0)
(7.82842 0.160952 0)
(7.84835 0.14433 0)
(7.86523 0.13009 0)
(7.88003 0.117847 0)
(7.89337 0.107231 0)
(7.90564 0.0979514 0)
(7.91706 0.0897896 0)
(7.92779 0.082577 0)
(7.93794 0.076178 0)
(7.94758 0.0704861 0)
(7.95679 0.0654199 0)
(7.96559 0.0609178 0)
(7.97402 0.0569351 0)
(7.98212 0.0534411 0)
(7.98992 0.050417 0)
(7.99744 0.0478542 0)
(8.00472 0.0457535 0)
(8.01178 0.044124 0)
(8.01866 0.0429824 0)
(8.02541 0.0423523 0)
(8.03207 0.0422661 0)
(8.03871 0.0427617 0)
(8.04539 0.0438946 0)
(8.0522 0.0457186 0)
(8.0593 0.0483343 0)
(8.06683 0.0517435 0)
(7.3438 0.0753407 0)
(7.41909 0.179329 0)
(7.51768 0.214215 0)
(7.59471 0.215664 0)
(7.65076 0.203688 0)
(7.69365 0.185627 0)
(7.72606 0.166874 0)
(7.7511 0.149773 0)
(7.77158 0.134684 0)
(7.789 0.121521 0)
(7.80425 0.110069 0)
(7.81794 0.10006 0)
(7.83044 0.0912565 0)
(7.84201 0.0834746 0)
(7.85282 0.0765657 0)
(7.863 0.0704123 0)
(7.87263 0.0649228 0)
(7.88179 0.0600264 0)
(7.89053 0.0556692 0)
(7.89891 0.0518106 0)
(7.90694 0.0484221 0)
(7.91468 0.0454854 0)
(7.92216 0.0429911 0)
(7.92942 0.0409379 0)
(7.93649 0.0393315 0)
(7.94341 0.0381842 0)
(7.95023 0.0375138 0)
(7.95701 0.0373446 0)
(7.9638 0.0377046 0)
(7.97069 0.0386309 0)
(7.97776 0.0401551 0)
(7.98515 0.0423277 0)
(7.99298 0.0451182 0)
(7.34016 0.0581126 0)
(7.39542 0.145706 0)
(7.47434 0.181716 0)
(7.54092 0.188178 0)
(7.59173 0.181585 0)
(7.63201 0.16842 0)
(7.66359 0.153342 0)
(7.68857 0.138814 0)
(7.7092 0.125508 0)
(7.72686 0.113556 0)
(7.74235 0.102923 0)
(7.75625 0.093481 0)
(7.76895 0.0850813 0)
(7.7807 0.0775953 0)
(7.79169 0.0709123 0)
(7.80204 0.0649388 0)
(7.81184 0.0595974 0)
(7.82116 0.0548254 0)
(7.83007 0.0505732 0)
(7.83861 0.0468026 0)
(7.84682 0.0434858 0)
(7.85475 0.0406041 0)
(7.86243 0.0381465 0)
(7.8699 0.0361093 0)
(7.87721 0.0344945 0)
(7.88439 0.0333097 0)
(7.89151 0.0325665 0)
(7.89861 0.032281 0)
(7.90577 0.0324704 0)
(7.91306 0.033156 0)
(7.92056 0.0343507 0)
(7.92841 0.036072 0)
(7.9367 0.0382791 0)
(7.33787 0.0454757 0)
(7.37894 0.118671 0)
(7.44216 0.153776 0)
(7.49942 0.163636 0)
(7.54526 0.161188 0)
(7.5828 0.151981 0)
(7.6132 0.139944 0)
(7.63783 0.127534 0)
(7.65844 0.115699 0)
(7.67622 0.104778 0)
(7.69191 0.0948854 0)
(7.70602 0.0859944 0)
(7.71892 0.0780218 0)
(7.73087 0.0708764 0)
(7.74204 0.064471 0)
(7.75256 0.0587272 0)
(7.76252 0.0535775 0)
(7.77201 0.0489662 0)
(7.78108 0.0448483 0)
(7.78978 0.0411886 0)
(7.79817 0.0379604 0)
(7.80628 0.0351448 0)
(7.81416 0.0327294 0)
(7.82184 0.0307078 0)
(7.82938 0.0290783 0)
(7.83683 0.0278433 0)
(7.84422 0.027008 0)
(7.85163 0.0265799 0)
(7.85912 0.0265662 0)
(7.86675 0.026974 0)
(7.87463 0.0278014 0)
(7.88285 0.0290447 0)
(7.89149 0.0306576 0)
(7.33642 0.0360247 0)
(7.36737 0.0968736 0)
(7.41812 0.129741 0)
(7.46716 0.141505 0)
(7.50829 0.141952 0)
(7.54308 0.135802 0)
(7.57216 0.126372 0)
(7.59632 0.115962 0)
(7.61685 0.105636 0)
(7.63474 0.0958451 0)
(7.65062 0.0867926 0)
(7.66495 0.078531 0)
(7.67807 0.0710358 0)
(7.69023 0.0642571 0)
(7.7016 0.0581377 0)
(7.71232 0.0526201 0)
(7.72247 0.0476518 0)
(7.73214 0.0431867 0)
(7.7414 0.039186 0)
(7.75029 0.0356179 0)
(7.75887 0.0324572 0)
(7.76718 0.0296847 0)
(7.77526 0.0272866 0)
(7.78317 0.0252539 0)
(7.79094 0.0235811 0)
(7.79863 0.0222657 0)
(7.80629 0.0213069 0)
(7.81398 0.0207044 0)
(7.82176 0.0204565 0)
(7.8297 0.0205591 0)
(7.83789 0.0209993 0)
(7.84641 0.0217598 0)
(7.85533 0.0227923 0)
(7.33548 0.0288061 0)
(7.35915 0.079187 0)
(7.40008 0.109061 0)
(7.44199 0.121637 0)
(7.47878 0.124076 0)
(7.51088 0.120296 0)
(7.5385 0.113042 0)
(7.56202 0.104364 0)
(7.58235 0.0953604 0)
(7.60025 0.0865639 0)
(7.61626 0.0782545 0)
(7.63079 0.0705549 0)
(7.64414 0.063494 0)
(7.65653 0.057058 0)
(7.66814 0.0512143 0)
(7.67908 0.045922 0)
(7.68946 0.0411393 0)
(7.69935 0.0368269 0)
(7.70882 0.0329501 0)
(7.71792 0.0294793 0)
(7.72671 0.0263897 0)
(7.73523 0.0236618 0)
(7.74354 0.02128 0)
(7.75167 0.0192323 0)
(7.75967 0.0175097 0)
(7.7676 0.0161048 0)
(7.77551 0.015011 0)
(7.78346 0.0142211 0)
(7.7915 0.0137257 0)
(7.79971 0.0135118 0)
(7.80815 0.0135583 0)
(7.8169 0.0138391 0)
(7.82602 0.0143047 0)
(7.33486 0.023174 0)
(7.35326 0.0647267 0)
(7.38646 0.0912469 0)
(7.42227 0.103796 0)
(7.45509 0.107447 0)
(7.48461 0.105374 0)
(7.51072 0.0998371 0)
(7.5335 0.0926261 0)
(7.55352 0.0848108 0)
(7.57138 0.0769622 0)
(7.58749 0.0694017 0)
(7.6022 0.0622942 0)
(7.61577 0.0557053 0)
(7.62839 0.0496489 0)
(7.64024 0.0441125 0)
(7.65141 0.0390705 0)
(7.66202 0.0344918 0)
(7.67213 0.0303449 0)
(7.68182 0.0265997 0)
(7.69114 0.0232297 0)
(7.70014 0.0202113 0)
(7.70887 0.0175246 0)
(7.71739 0.0151528 0)
(7.72573 0.0130814 0)
(7.73395 0.011298 0)
(7.7421 0.00979107 0)
(7.75023 0.00854889 0)
(7.7584 0.00755859 0)
(7.76666 0.00680439 0)
(7.77507 0.00626665 0)
(7.78371 0.00591843 0)
(7.79263 0.00572803 0)
(7.80188 0.00564581 0)
(7.33443 0.0186865 0)
(7.34897 0.0527897 0)
(7.37612 0.0758491 0)
(7.40679 0.0877597 0)
(7.43604 0.0920098 0)
(7.46315 0.0911106 0)
(7.48774 0.0869056 0)
(7.5097 0.0809145 0)
(7.52935 0.0741303 0)
(7.54708 0.0671256 0)
(7.56324 0.0602425 0)
(7.57808 0.0536754 0)
(7.59184 0.0475198 0)
(7.60468 0.0418135 0)
(7.61676 0.0365625 0)
(7.62817 0.0317545 0)
(7.639 0.0273679 0)
(7.64934 0.0233772 0)
(7.65925 0.0197565 0)
(7.66879 0.0164807 0)
(7.678 0.0135271 0)
(7.68694 0.0108749 0)
(7.69566 0.0085056 0)
(7.70421 0.00640248 0)
(7.71263 0.00454978 0)
(7.72098 0.00293209 0)
(7.7293 0.00153335 0)
(7.73765 0.000335844 0)
(7.74609 -0.000681208 0)
(7.75466 -0.0015424 0)
(7.76342 -0.00227866 0)
(7.77244 -0.00292513 0)
(7.78176 -0.00353107 0)
(7.33413 0.0150375 0)
(7.34581 0.042825 0)
(7.36824 0.0624738 0)
(7.39459 0.073314 0)
(7.4207 0.0776712 0)
(7.44558 0.0774848 0)
(7.46871 0.0742409 0)
(7.48982 0.0692103 0)
(7.50902 0.0632861 0)
(7.52659 0.0570206 0)
(7.54275 0.0507588 0)
(7.5577 0.0447093 0)
(7.57163 0.0389853 0)
(7.58469 0.0336403 0)
(7.59698 0.0286926 0)
(7.60862 0.0241396 0)
(7.61968 0.0199664 0)
(7.63025 0.0161525 0)
(7.64037 0.0126747 0)
(7.65012 0.00950975 0)
(7.65953 0.00663513 0)
(7.66867 0.0040296 0)
(7.67758 0.00167315 0)
(7.68631 -0.000453157 0)
(7.69491 -0.00236778 0)
(7.70342 -0.00408938 0)
(7.7119 -0.00563764 0)
(7.72039 -0.00703405 0)
(7.72895 -0.00830304 0)
(7.73762 -0.00947259 0)
(7.74646 -0.0105761 0)
(7.75551 -0.0116505 0)
(7.76481 -0.0127441 0)
(7.33392 0.0120114 0)
(7.34346 0.0344009 0)
(7.3622 0.0507744 0)
(7.38499 0.0602493 0)
(7.40836 0.064327 0)
(7.43122 0.0644722 0)
(7.45297 0.06187 0)
(7.47323 0.0575661 0)
(7.49197 0.0523413 0)
(7.50934 0.046707 0)
(7.52547 0.0409951 0)
(7.5405 0.0354156 0)
(7.55458 0.0300904 0)
(7.56782 0.025083 0)
(7.58032 0.0204207 0)
(7.59218 0.0161081 0)
(7.60346 0.0121362 0)
(7.61424 0.00848825 0)
(7.62458 0.00514348 0)
(7.63453 0.00207974 0)
(7.64413 -0.000725336 0)
(7.65346 -0.00329372 0)
(7.66254 -0.00564674 0)
(7.67143 -0.00780529 0)
(7.68017 -0.00979018 0)
(7.68882 -0.0116227 0)
(7.69742 -0.0133253 0)
(7.70601 -0.0149222 0)
(7.71465 -0.0164405 0)
(7.72337 -0.0179104 0)
(7.73223 -0.0193663 0)
(7.74125 -0.0208459 0)
(7.75048 -0.0223955 0)
(7.33376 0.00945327 0)
(7.3417 0.0271784 0)
(7.35755 0.0404503 0)
(7.37743 0.0483668 0)
(7.39844 0.0518639 0)
(7.41951 0.052024 0)
(7.44 0.0497799 0)
(7.45945 0.0459805 0)
(7.47773 0.0412924 0)
(7.49487 0.0361755 0)
(7.51095 0.0309389 0)
(7.52604 0.0257847 0)
(7.54025 0.0208358 0)
(7.55367 0.0161595 0)
(7.56637 0.0117878 0)
(7.57844 0.00772903 0)
(7.58994 0.00397704 0)
(7.60093 0.000516877 0)
(7.61146 -0.00267109 0)
(7.6216 -0.00560888 0)
(7.63138 -0.0083194 0)
(7.64087 -0.0108256 0)
(7.6501 -0.0131504 0)
(7.65912 -0.0153164 0)
(7.66799 -0.0173465 0)
(7.67674 -0.0192642 0)
(7.68542 -0.0210941 0)
(7.69407 -0.0228625 0)
(7.70273 -0.024598 0)
(7.71145 -0.0263319 0)
(7.72026 -0.0280989 0)
(7.7292 -0.0299362 0)
(7.7383 -0.0318877 0)
(7.33365 0.00724918 0)
(7.34037 0.0208902 0)
(7.35398 0.0312411 0)
(7.37149 0.0374779 0)
(7.39051 0.0401611 0)
(7.41003 0.0400751 0)
(7.42939 0.0379442 0)
(7.44809 0.0344483 0)
(7.46594 0.0301445 0)
(7.48286 0.0254339 0)
(7.49888 0.0205941 0)
(7.51403 0.0158109 0)
(7.52836 0.0112009 0)
(7.54195 0.00682986 0)
(7.55485 0.00272958 0)
(7.56712 -0.0010904 0)
(7.57882 -0.00463517 0)
(7.59001 -0.00791891 0)
(7.60073 -0.0109609 0)
(7.61104 -0.0137834 0)
(7.62099 -0.0164097 0)
(7.63062 -0.0188639 0)
(7.63999 -0.0211699 0)
(7.64913 -0.0233518 0)
(7.65808 -0.0254341 0)
(7.6669 -0.0274417 0)
(7.67562 -0.0294006 0)
(7.68429 -0.0313381 0)
(7.69294 -0.0332836 0)
(7.70161 -0.0352683 0)
(7.71033 -0.0373263 0)
(7.71913 -0.0394933 0)
(7.72804 -0.0418102 0)
(7.33356 0.00531322 0)
(7.33936 0.0153233 0)
(7.35125 0.0229216 0)
(7.36685 0.0274053 0)
(7.38423 0.0290946 0)
(7.40243 0.0285481 0)
(7.42081 0.0263208 0)
(7.43886 0.0229497 0)
(7.45631 0.0188905 0)
(7.47304 0.0144836 0)
(7.48901 0.00997019 0)
(7.50421 0.00551509 0)
(7.51867 0.00122174 0)
(7.53241 -0.00284979 0)
(7.5455 -0.00667083 0)
(7.55796 -0.0102341 0)
(7.56986 -0.0135462 0)
(7.58123 -0.0166224 0)
(7.59213 -0.0194834 0)
(7.6026 -0.0221528 0)
(7.6127 -0.0246553 0)
(7.62245 -0.0270164 0)
(7.63192 -0.0292617 0)
(7.64114 -0.0314167 0)
(7.65016 -0.0335073 0)
(7.65901 -0.0355596 0)
(7.66774 -0.0376005 0)
(7.67638 -0.039658 0)
(7.68497 -0.0417613 0)
(7.69354 -0.0439412 0)
(7.70212 -0.0462306 0)
(7.71074 -0.0486633 0)
(7.71941 -0.0512765 0)
(7.33349 0.0035786 0)
(7.3386 0.0103049 0)
(7.34916 0.0152951 0)
(7.36328 0.0179806 0)
(7.37932 0.0185345 0)
(7.39645 0.0173489 0)
(7.41401 0.0148427 0)
(7.43151 0.0114328 0)
(7.44864 0.00748295 0)
(7.46522 0.0032725 0)
(7.48117 -0.000997261 0)
(7.49644 -0.00518784 0)
(7.51103 -0.00921247 0)
(7.52495 -0.0130216 0)
(7.53823 -0.0165932 0)
(7.55089 -0.0199247 0)
(7.56298 -0.0230257 0)
(7.57454 -0.025914 0)
(7.58561 -0.0286122 0)
(7.59623 -0.0311454 0)
(7.60645 -0.0335398 0)
(7.61632 -0.0358223 0)
(7.62587 -0.0380196 0)
(7.63515 -0.0401583 0)
(7.6442 -0.0422652 0)
(7.65306 -0.0443668 0)
(7.66175 -0.0464905 0)
(7.67033 -0.0486639 0)
(7.67882 -0.0509156 0)
(7.68725 -0.0532751 0)
(7.69565 -0.0557732 0)
(7.70403 -0.058441 0)
(7.71242 -0.0613118 0)
(7.33344 0.00199189 0)
(7.33804 0.00569227 0)
(7.3476 0.0081887 0)
(7.36058 0.00904507 0)
(7.37558 0.00835172 0)
(7.39186 0.00638183 0)
(7.40879 0.00344735 0)
(7.42586 -0.0001339 0)
(7.44274 -0.00407945 0)
(7.45923 -0.00816847 0)
(7.4752 -0.0122409 0)
(7.49056 -0.0161885 0)
(7.5053 -0.0199436 0)
(7.51939 -0.0234719 0)
(7.53286 -0.0267622 0)
(7.54571 -0.0298193 0)
(7.55798 -0.0326589 0)
(7.56971 -0.0353031 0)
(7.58093 -0.0377783 0)
(7.59169 -0.0401125 0)
(7.60202 -0.0423345 0)
(7.61197 -0.0444731 0)
(7.62158 -0.0465566 0)
(7.63089 -0.0486129 0)
(7.63994 -0.0506694 0)
(7.64877 -0.0527534 0)
(7.6574 -0.0548919 0)
(7.66588 -0.0571121 0)
(7.67423 -0.0594416 0)
(7.68248 -0.0619081 0)
(7.69066 -0.0645402 0)
(7.69878 -0.0673664 0)
(7.70685 -0.0704157 0)
(7.33341 0.000507986 0)
(7.33763 0.00136254 0)
(7.34648 0.00144424 0)
(7.35862 0.00044122 0)
(7.37287 -0.00159776 0)
(7.38853 -0.00448321 0)
(7.405 -0.00798795 0)
(7.4218 -0.0118777 0)
(7.43855 -0.0159428 0)
(7.45503 -0.0200187 0)
(7.47108 -0.0239874 0)
(7.4866 -0.0277715 0)
(7.50152 -0.031327 0)
(7.51582 -0.0346359 0)
(7.5295 -0.037699 0)
(7.54256 -0.0405301 0)
(7.55503 -0.0431518 0)
(7.56694 -0.0455915 0)
(7.57831 -0.0478796 0)
(7.5892 -0.0500472 0)
(7.59963 -0.0521256 0)
(7.60965 -0.0541455 0)
(7.6193 -0.0561366 0)
(7.62861 -0.0581278 0)
(7.63763 -0.0601469 0)
(7.64639 -0.0622212 0)
(7.65493 -0.0643773 0)
(7.66328 -0.0666413 0)
(7.67146 -0.0690393 0)
(7.67949 -0.0715969 0)
(7.68741 -0.0743398 0)
(7.69522 -0.077293 0)
(7.70294 -0.0804813 0)
(7.33338 -0.000911272 0)
(7.33736 -0.00279151 0)
(7.34573 -0.00508193 0)
(7.35731 -0.00797748 0)
(7.37105 -0.0114418 0)
(7.38632 -0.0153401 0)
(7.40253 -0.0195091 0)
(7.41919 -0.0237828 0)
(7.43592 -0.0280155 0)
(7.45248 -0.0320964 0)
(7.46867 -0.0359508 0)
(7.48437 -0.0395357 0)
(7.4995 -0.0428345 0)
(7.51403 -0.0458502 0)
(7.52792 -0.0486002 0)
(7.54119 -0.0511114 0)
(7.55385 -0.053416 0)
(7.56592 -0.0555493 0)
(7.57744 -0.0575475 0)
(7.58843 -0.0594463 0)
(7.59894 -0.0612804 0)
(7.60901 -0.0630828 0)
(7.61867 -0.064885 0)
(7.62797 -0.0667168 0)
(7.63694 -0.0686064 0)
(7.64561 -0.0705806 0)
(7.65402 -0.0726655 0)
(7.6622 -0.0748858 0)
(7.67018 -0.0772657 0)
(7.67797 -0.0798286 0)
(7.6856 -0.0825972 0)
(7.69309 -0.0855938 0)
(7.70045 -0.0888386 0)
(7.33337 -0.00230189 0)
(7.33721 -0.00687219 0)
(7.34531 -0.0115367 0)
(7.35659 -0.0163824 0)
(7.3701 -0.0213709 0)
(7.38521 -0.0264063 0)
(7.40138 -0.0313782 0)
(7.4181 -0.0361804 0)
(7.43498 -0.040725 0)
(7.45175 -0.0449509 0)
(7.4682 -0.0488244 0)
(7.48419 -0.0523358 0)
(7.49961 -0.0554946 0)
(7.51442 -0.0583248 0)
(7.52858 -0.06086 0)
(7.54209 -0.06314 0)
(7.55496 -0.0652073 0)
(7.56721 -0.0671052 0)
(7.57886 -0.0688761 0)
(7.58996 -0.0705607 0)
(7.60054 -0.0721974 0)
(7.61064 -0.073822 0)
(7.6203 -0.0754678 0)
(7.62955 -0.0771657 0)
(7.63843 -0.0789443 0)
(7.64698 -0.0808303 0)
(7.65524 -0.0828487 0)
(7.66322 -0.0850231 0)
(7.67096 -0.0873754 0)
(7.67848 -0.0899265 0)
(7.68579 -0.0926961 0)
(7.69292 -0.0957027 0)
(7.69987 -0.098962 0)
(7.33337 -0.00369916 0)
(7.33716 -0.0109764 0)
(7.34519 -0.0180514 0)
(7.35642 -0.0249026 0)
(7.36992 -0.0314724 0)
(7.38511 -0.0376852 0)
(7.40142 -0.0434703 0)
(7.41836 -0.0487738 0)
(7.43551 -0.0535643 0)
(7.45259 -0.0578339 0)
(7.46936 -0.0615962 0)
(7.48568 -0.0648821 0)
(7.50143 -0.0677346 0)
(7.51655 -0.0702048 0)
(7.531 -0.0723482 0)
(7.54476 -0.0742212 0)
(7.55785 -0.0758796 0)
(7.57028 -0.0773766 0)
(7.58207 -0.078762 0)
(7.59327 -0.080082 0)
(7.60391 -0.0813787 0)
(7.61403 -0.0826904 0)
(7.62366 -0.084052 0)
(7.63285 -0.0854948 0)
(7.64163 -0.0870474 0)
(7.65005 -0.0887357 0)
(7.65812 -0.0905834 0)
(7.66589 -0.092612 0)
(7.67337 -0.0948413 0)
(7.6806 -0.0972897 0)
(7.68759 -0.0999736 0)
(7.69435 -0.102909 0)
(7.70091 -0.106107 0)
(7.33337 -0.00513969 0)
(7.33723 -0.0152161 0)
(7.3454 -0.0248107 0)
(7.35684 -0.0338029 0)
(7.37065 -0.0421195 0)
(7.38622 -0.049705 0)
(7.40298 -0.056524 0)
(7.4204 -0.0625676 0)
(7.43807 -0.0678512 0)
(7.45566 -0.0724107 0)
(7.47294 -0.076299 0)
(7.48974 -0.0795813 0)
(7.50593 -0.0823302 0)
(7.52144 -0.0846221 0)
(7.53623 -0.0865335 0)
(7.55028 -0.0881384 0)
(7.56361 -0.0895069 0)
(7.57622 -0.0907038 0)
(7.58815 -0.0917882 0)
(7.59944 -0.0928133 0)
(7.61011 -0.0938268 0)
(7.62022 -0.0948709 0)
(7.62981 -0.0959828 0)
(7.6389 -0.0971955 0)
(7.64755 -0.098538 0)
(7.65579 -0.100036 0)
(7.66364 -0.101712 0)
(7.67116 -0.103586 0)
(7.67835 -0.105675 0)
(7.68525 -0.107996 0)
(7.69187 -0.11056 0)
(7.69823 -0.113381 0)
(7.70434 -0.116465 0)
(7.33339 -0.00666184 0)
(7.3374 -0.019687 0)
(7.34589 -0.0319126 0)
(7.35778 -0.0430964 0)
(7.3721 -0.0531324 0)
(7.38825 -0.0619767 0)
(7.40563 -0.0696336 0)
(7.42369 -0.0761538 0)
(7.442 -0.0816193 0)
(7.46022 -0.0861297 0)
(7.4781 -0.0897944 0)
(7.49546 -0.0927268 0)
(7.51216 -0.0950387 0)
(7.52813 -0.0968378 0)
(7.54332 -0.0982248 0)
(7.55771 -0.0992924 0)
(7.57131 -0.100125 0)
(7.58414 -0.100797 0)
(7.59624 -0.101375 0)
(7.60762 -0.101918 0)
(7.61835 -0.102477 0)
(7.62846 -0.103097 0)
(7.63799 -0.103814 0)
(7.64699 -0.104664 0)
(7.6555 -0.105674 0)
(7.66355 -0.106868 0)
(7.67119 -0.108267 0)
(7.67844 -0.10989 0)
(7.68534 -0.111751 0)
(7.69191 -0.113863 0)
(7.69817 -0.116236 0)
(7.70415 -0.11888 0)
(7.70986 -0.121798 0)
(7.33342 -0.0083194 0)
(7.33773 -0.0245792 0)
(7.34685 -0.0397426 0)
(7.3596 -0.0534691 0)
(7.37491 -0.0656403 0)
(7.39211 -0.0762208 0)
(7.41057 -0.0852325 0)
(7.42968 -0.0927563 0)
(7.44897 -0.0989127 0)
(7.46809 -0.103843 0)
(7.48679 -0.107701 0)
(7.50486 -0.110642 0)
(7.52217 -0.112816 0)
(7.53866 -0.114366 0)
(7.55429 -0.115424 0)
(7.56903 -0.116107 0)
(7.5829 -0.116521 0)
(7.59593 -0.116756 0)
(7.60815 -0.116894 0)
(7.6196 -0.117002 0)
(7.63033 -0.117137 0)
(7.64039 -0.11735 0)
(7.64983 -0.117681 0)
(7.65868 -0.118166 0)
(7.667 -0.118831 0)
(7.67483 -0.119702 0)
(7.68219 -0.120798 0)
(7.68914 -0.122135 0)
(7.6957 -0.123724 0)
(7.70189 -0.125576 0)
(7.70775 -0.127698 0)
(7.71328 -0.130094 0)
(7.71851 -0.132764 0)
(7.33345 -0.0101572 0)
(7.33814 -0.0299336 0)
(7.34804 -0.048124 0)
(7.3618 -0.0642295 0)
(7.37823 -0.0781247 0)
(7.39663 -0.0898333 0)
(7.41631 -0.0994694 0)
(7.43663 -0.107219 0)
(7.45709 -0.1133 0)
(7.47731 -0.117935 0)
(7.49701 -0.12134 0)
(7.51598 -0.123722 0)
(7.5341 -0.125269 0)
(7.55128 -0.126152 0)
(7.56748 -0.126523 0)
(7.58269 -0.126518 0)
(7.59694 -0.126251 0)
(7.61025 -0.125825 0)
(7.62266 -0.125324 0)
(7.63423 -0.124823 0)
(7.64501 -0.124381 0)
(7.65505 -0.124049 0)
(7.66441 -0.123871 0)
(7.67314 -0.123879 0)
(7.68128 -0.124103 0)
(7.68888 -0.124565 0)
(7.69599 -0.125282 0)
(7.70264 -0.126268 0)
(7.70887 -0.127534 0)
(7.71471 -0.129086 0)
(7.72019 -0.130928 0)
(7.72532 -0.133063 0)
(7.73015 -0.135486 0)
(7.33353 -0.0122958 0)
(7.33897 -0.0363036 0)
(7.35034 -0.0583962 0)
(7.36597 -0.0779562 0)
(7.38443 -0.0948185 0)
(7.40484 -0.108957 0)
(7.42641 -0.120459 0)
(7.44845 -0.129535 0)
(7.47043 -0.136457 0)
(7.49197 -0.141518 0)
(7.51281 -0.14501 0)
(7.53274 -0.147213 0)
(7.55166 -0.148383 0)
(7.56949 -0.148748 0)
(7.58621 -0.148509 0)
(7.60183 -0.147836 0)
(7.61638 -0.146876 0)
(7.62989 -0.14575 0)
(7.64243 -0.144559 0)
(7.65404 -0.143386 0)
(7.66479 -0.142299 0)
(7.67475 -0.141353 0)
(7.68396 -0.14059 0)
(7.69249 -0.140045 0)
(7.70039 -0.139745 0)
(7.70771 -0.13971 0)
(7.7145 -0.139956 0)
(7.7208 -0.140493 0)
(7.72664 -0.141328 0)
(7.73206 -0.142464 0)
(7.73708 -0.143903 0)
(7.74174 -0.145642 0)
(7.74605 -0.14767 0)
(7.33356 -0.0147427 0)
(7.3396 -0.0431879 0)
(7.35229 -0.0686255 0)
(7.36965 -0.090346 0)
(7.39005 -0.108423 0)
(7.41259 -0.123093 0)
(7.43636 -0.13466 0)
(7.46056 -0.143496 0)
(7.48457 -0.149979 0)
(7.50798 -0.154468 0)
(7.53047 -0.157295 0)
(7.55185 -0.15877 0)
(7.57198 -0.159168 0)
(7.59083 -0.158732 0)
(7.60837 -0.157676 0)
(7.62464 -0.156184 0)
(7.63968 -0.154412 0)
(7.65355 -0.152491 0)
(7.66632 -0.150531 0)
(7.67807 -0.148619 0)
(7.68887 -0.146829 0)
(7.69879 -0.145219 0)
(7.70791 -0.143832 0)
(7.71628 -0.142706 0)
(7.72398 -0.141865 0)
(7.73105 -0.14133 0)
(7.73755 -0.141114 0)
(7.74352 -0.141226 0)
(7.74902 -0.141671 0)
(7.75407 -0.142449 0)
(7.75871 -0.143558 0)
(7.76298 -0.144995 0)
(7.76692 -0.146742 0)
(7.33382 -0.017949 0)
(7.34184 -0.0530656 0)
(7.3579 -0.0848845 0)
(7.37901 -0.112304 0)
(7.40297 -0.135099 0)
(7.42869 -0.153301 0)
(7.45523 -0.16722 0)
(7.48179 -0.177385 0)
(7.50781 -0.18437 0)
(7.53292 -0.188729 0)
(7.55685 -0.190974 0)
(7.57943 -0.191561 0)
(7.60058 -0.190883 0)
(7.62024 -0.18927 0)
(7.63844 -0.186998 0)
(7.65521 -0.184293 0)
(7.67062 -0.181338 0)
(7.68473 -0.17828 0)
(7.69763 -0.175238 0)
(7.70941 -0.172304 0)
(7.72015 -0.169549 0)
(7.72993 -0.16703 0)
(7.73883 -0.164786 0)
(7.74693 -0.162849 0)
(7.75429 -0.161241 0)
(7.76098 -0.159977 0)
(7.76706 -0.159066 0)
(7.77257 -0.158513 0)
(7.77756 -0.15832 0)
(7.78208 -0.158484 0)
(7.78616 -0.158999 0)
(7.78983 -0.159858 0)
(7.79313 -0.161039 0)
(7.33371 -0.0214186 0)
(7.34217 -0.0615452 0)
(7.36018 -0.0955301 0)
(7.3843 -0.123343 0)
(7.41201 -0.1459 0)
(7.44195 -0.163716 0)
(7.47274 -0.177261 0)
(7.50328 -0.187091 0)
(7.53286 -0.193737 0)
(7.56104 -0.197697 0)
(7.58753 -0.199444 0)
(7.61218 -0.199419 0)
(7.63495 -0.198015 0)
(7.65584 -0.195579 0)
(7.67493 -0.192412 0)
(7.6923 -0.188766 0)
(7.70805 -0.18485 0)
(7.72231 -0.180837 0)
(7.73519 -0.176861 0)
(7.74681 -0.173031 0)
(7.75727 -0.169429 0)
(7.76668 -0.166116 0)
(7.77514 -0.163137 0)
(7.78273 -0.160524 0)
(7.78954 -0.158296 0)
(7.79562 -0.156468 0)
(7.80106 -0.155046 0)
(7.8059 -0.154031 0)
(7.8102 -0.153423 0)
(7.81401 -0.153216 0)
(7.81738 -0.153402 0)
(7.82035 -0.153972 0)
(7.82298 -0.154895 0)
(7.33482 -0.0278189 0)
(7.34959 -0.0823582 0)
(7.3754 -0.129643 0)
(7.40595 -0.167818 0)
(7.43849 -0.197226 0)
(7.47223 -0.218662 0)
(7.50608 -0.23337 0)
(7.5391 -0.242681 0)
(7.57071 -0.247731 0)
(7.60053 -0.24948 0)
(7.62832 -0.248727 0)
(7.65395 -0.246125 0)
(7.67742 -0.242192 0)
(7.69876 -0.237347 0)
(7.71808 -0.23192 0)
(7.73551 -0.226173 0)
(7.75118 -0.220312 0)
(7.76526 -0.214495 0)
(7.77787 -0.208848 0)
(7.78918 -0.203462 0)
(7.7993 -0.198406 0)
(7.80837 -0.193729 0)
(7.81649 -0.189465 0)
(7.82376 -0.185635 0)
(7.83026 -0.182252 0)
(7.83608 -0.179322 0)
(7.84129 -0.176846 0)
(7.84593 -0.174822 0)
(7.85008 -0.173249 0)
(7.85377 -0.172121 0)
(7.85706 -0.171432 0)
(7.85999 -0.171175 0)
(7.86261 -0.171314 0)
(7.3338 -0.0316379 0)
(7.34773 -0.0859818 0)
(7.37798 -0.128676 0)
(7.41616 -0.163839 0)
(7.45737 -0.192741 0)
(7.49936 -0.21506 0)
(7.54022 -0.231238 0)
(7.57898 -0.242039 0)
(7.61533 -0.248205 0)
(7.6492 -0.250527 0)
(7.68063 -0.249806 0)
(7.70976 -0.246771 0)
(7.73673 -0.242058 0)
(7.7617 -0.236204 0)
(7.78482 -0.229647 0)
(7.80622 -0.222735 0)
(7.82603 -0.215737 0)
(7.84438 -0.208857 0)
(7.86137 -0.202245 0)
(7.87712 -0.196009 0)
(7.89173 -0.190221 0)
(7.90529 -0.184929 0)
(7.91788 -0.180158 0)
(7.9296 -0.175921 0)
(7.94051 -0.172219 0)
(7.95067 -0.169046 0)
(7.96016 -0.166394 0)
(7.96901 -0.164251 0)
(7.97728 -0.162612 0)
(7.98502 -0.161471 0)
(7.99228 -0.160831 0)
(7.99913 -0.160695 0)
(8.00566 -0.161038 0)
(7.33892 -0.0542001 0)
(7.37194 -0.151013 0)
(7.41472 -0.21985 0)
(7.45833 -0.266388 0)
(7.50488 -0.296808 0)
(7.55524 -0.315081 0)
(7.60791 -0.324913 0)
(7.66177 -0.329 0)
(7.71593 -0.329047 0)
(7.76937 -0.326222 0)
(7.82121 -0.321344 0)
(7.87078 -0.314995 0)
(7.91764 -0.307612 0)
(7.96147 -0.299536 0)
(8.00213 -0.291045 0)
(8.03961 -0.282369 0)
(8.07395 -0.273697 0)
(8.10529 -0.265188 0)
(8.13381 -0.256967 0)
(8.15968 -0.249134 0)
(8.18313 -0.241759 0)
(8.20434 -0.234896 0)
(8.22352 -0.228575 0)
(8.24085 -0.222813 0)
(8.25649 -0.217617 0)
(8.2706 -0.212984 0)
(8.2833 -0.208906 0)
(8.29471 -0.205378 0)
(8.30493 -0.202401 0)
(8.31402 -0.199978 0)
(8.32209 -0.198161 0)
(8.32919 -0.196951 0)
(8.33551 -0.196526 0)
(7.33755 -0.0402647 0)
(7.38849 -0.105313 0)
(7.47767 -0.162749 0)
(7.57919 -0.218172 0)
(7.68697 -0.265333 0)
(7.79587 -0.301905 0)
(7.89994 -0.328552 0)
(7.99568 -0.345981 0)
(8.08116 -0.355286 0)
(8.1553 -0.357936 0)
(8.2179 -0.355397 0)
(8.26936 -0.348983 0)
(8.31043 -0.339827 0)
(8.3421 -0.328862 0)
(8.36543 -0.316835 0)
(8.38149 -0.304322 0)
(8.39132 -0.291762 0)
(8.39585 -0.279477 0)
(8.39593 -0.267695 0)
(8.39228 -0.25657 0)
(8.38554 -0.246196 0)
(8.37625 -0.236623 0)
(8.36487 -0.227866 0)
(8.35176 -0.219917 0)
(8.33724 -0.212748 0)
(8.32156 -0.206317 0)
(8.30491 -0.200578 0)
(8.28742 -0.195481 0)
(8.26922 -0.190992 0)
(8.25032 -0.187081 0)
(8.23084 -0.183834 0)
(8.21049 -0.1812 0)
(8.18993 -0.180137 0)
(7.39944 -0.196704 0)
(7.59549 -0.375887 0)
(7.76807 -0.458683 0)
(7.89507 -0.512449 0)
(7.97851 -0.541049 0)
(8.01648 -0.550339 0)
(8.01322 -0.546959 0)
(7.97709 -0.534268 0)
(7.91573 -0.514771 0)
(7.8357 -0.490726 0)
(7.74274 -0.463926 0)
(7.64158 -0.435756 0)
(7.5359 -0.407294 0)
(7.4285 -0.379341 0)
(7.32146 -0.352469 0)
(7.21626 -0.327054 0)
(7.11392 -0.303328 0)
(7.01509 -0.281404 0)
(6.92014 -0.261314 0)
(6.82927 -0.243027 0)
(6.74249 -0.226474 0)
(6.65974 -0.211557 0)
(6.58089 -0.198161 0)
(6.50575 -0.186165 0)
(6.43412 -0.175437 0)
(6.36578 -0.165847 0)
(6.3005 -0.157257 0)
(6.23803 -0.149535 0)
(6.17811 -0.142519 0)
(6.12038 -0.136067 0)
(6.06452 -0.130071 0)
(6.00954 -0.123748 0)
(5.9558 -0.12043 0)
(7.16014 -0.185857 0)
(6.91106 -0.345127 0)
(6.50008 -0.392454 0)
(6.03662 -0.393966 0)
(5.59674 -0.365926 0)
(5.18064 -0.322154 0)
(4.79238 -0.273559 0)
(4.43869 -0.225753 0)
(4.12013 -0.181712 0)
(3.83498 -0.14291 0)
(3.58123 -0.10974 0)
(3.35631 -0.0820081 0)
(3.15736 -0.0592333 0)
(2.9816 -0.0407949 0)
(2.82634 -0.0260436 0)
(2.68912 -0.0143667 0)
(2.56766 -0.00521788 0)
(2.45996 0.00187266 0)
(2.3642 0.00729932 0)
(2.2788 0.0113877 0)
(2.20237 0.0144042 0)
(2.1337 0.0165652 0)
(2.07173 0.0180475 0)
(2.01557 0.0189953 0)
(1.96441 0.0195329 0)
(1.91762 0.0197674 0)
(1.8746 0.0198176 0)
(1.83498 0.0198023 0)
(1.79824 0.0199404 0)
(1.76456 0.0205296 0)
(1.73304 0.0218954 0)
(1.70569 0.026545 0)
(1.68052 0.0217823 0)
(1.21408 -0.00608249 0)
(1.41159 0.0414583 0)
(1.64993 0.0443506 0)
(1.8263 0.0309237 0)
(1.9416 0.0204184 0)
(2.00204 0.0325983 0)
(2.01371 0.0739432 0)
(1.98484 0.144561 0)
(1.93527 0.237019 0)