# y+ ()       
# Time        	patch         	min           	max           	average       
1700          	lowerWall	4.779264e+00	7.990277e+01	4.347544e+01
1700          	upperWall	3.060454e+01	4.716516e+01	4.144464e+01
