# y+ ()       
# Time        	patch         	min           	max           	average       
600           	lowerWall	4.750961e+00	7.984175e+01	4.229051e+01
600           	upperWall	3.060454e+01	4.708006e+01	4.142613e+01
