/*--------------------------------*- C++ -*----------------------------------*\
  =========                 |
  \\      /  F ield         | OpenFOAM: The Open Source CFD Toolbox
   \\    /   O peration     | Website:  https://openfoam.org
    \\  /    A nd           | Version:  10
     \\/     M anipulation  |
\*---------------------------------------------------------------------------*/
FoamFile
{
    format      ascii;
    class       volScalarField;
    location    "0.12";
    object      k;
}
// * * * * * * * * * * * * * * * * * * * * * * * * * * * * * * * * * * * * * //

dimensions      [0 2 -2 0 0 0 0];

internalField   nonuniform List<scalar> 
6820
(
0.198344
0.194809
0.191212
0.18759
0.183989
0.180435
0.176938
0.173499
0.17012
0.166799
0.163532
0.160316
0.157147
0.154021
0.150932
0.147875
0.144843
0.141829
0.138822
0.135813
0.132789
0.129734
0.12663
0.123456
0.120184
0.116782
0.113211
0.109419
0.105347
0.100906
0.0960125
0.0905275
0.0838353
0.200926
0.200907
0.200483
0.200035
0.199588
0.199133
0.198664
0.198179
0.197679
0.197163
0.196634
0.196094
0.195546
0.19499
0.19443
0.193867
0.193302
0.192738
0.192176
0.191615
0.191056
0.190499
0.189941
0.18938
0.188809
0.18822
0.187599
0.186926
0.186174
0.185292
0.184246
0.182818
0.181352
0.236718
0.0163644
0.0365211
0.00980972
0.00685062
0.0080612
0.0095841
0.0115992
0.0137736
0.0160466
0.0183923
0.0207937
0.0232412
0.0257291
0.0282547
0.0308177
0.0334204
0.036067
0.0387644
0.041522
0.0443518
0.0472694
0.0502934
0.0534471
0.0567578
0.0602587
0.0639887
0.0679934
0.0723266
0.07705
0.0822308
0.0879646
0.0942532
0.210783
0.147919
0.104846
0.0794989
0.0638828
0.0533136
0.0455288
0.0394236
0.0344243
0.030209
0.0265834
0.0234232
0.0206457
0.0181943
0.0160303
0.0141271
0.0124668
0.0110372
0.00982911
0.00883412
0.00804323
0.00744621
0.00703253
0.00679315
0.00672281
0.00682234
0.00710098
0.00757906
0.00829061
0.00929094
0.0106489
0.0125025
0.0148852
0.223435
0.0827845
0.0210842
0.00412264
0.000672562
0.000425084
0.000744576
0.00106812
0.00133525
0.00156392
0.00176756
0.00195021
0.00211144
0.00224953
0.00236283
0.00245023
0.00251125
0.00254592
0.00255469
0.00253827
0.00249747
0.00243304
0.00234557
0.00223535
0.00210243
0.00194657
0.00176755
0.00156524
0.00134068
0.00109649
0.000838013
0.000579675
0.0003401
0.21716
0.114581
0.0537279
0.029984
0.0207963
0.0163563
0.0132157
0.0103523
0.00759418
0.00510544
0.00311511
0.00172855
0.000883346
0.000425146
0.000198976
9.50073e-05
5.11653e-05
3.49862e-05
3.1569e-05
3.44941e-05
4.09681e-05
4.95902e-05
5.9381e-05
6.93862e-05
7.8328e-05
8.52426e-05
8.54385e-05
8.53115e-05
4.56348e-05
0.000492902
0.000430526
0.000108838
0.00015283
0.213436
0.133304
0.0670597
0.0350974
0.0215742
0.0156474
0.0126787
0.0109628
0.00983826
0.00902287
0.00838645
0.00786572
0.00742799
0.00705441
0.00672495
0.00646332
0.00620207
0.00590888
0.00556922
0.00518811
0.00478912
0.00440188
0.00404815
0.00373707
0.0034678
0.00323466
0.00303013
0.00284808
0.00268144
0.00252677
0.00238396
0.0022508
0.00212685
0.204115
0.179758
0.129674
0.075551
0.0416723
0.0247962
0.0167331
0.0126615
0.0103912
0.00898246
0.00802124
0.00731084
0.0067482
0.00627154
0.00586854
0.00566055
0.00553898
0.00544529
0.00536574
0.00529557
0.00523133
0.00517006
0.00511069
0.00505333
0.00499774
0.0049429
0.00488731
0.00482926
0.00476788
0.00470184
0.00463056
0.00455407
0.00447224
0.202749
0.18639
0.161983
0.125373
0.0865993
0.0571792
0.0383285
0.0269956
0.0201595
0.0158468
0.0129463
0.0108573
0.00924888
0.00794873
0.00695706
0.00642623
0.00611897
0.00588977
0.00569769
0.00553611
0.00540511
0.00530501
0.00523558
0.0051948
0.00517843
0.00518056
0.00519484
0.00521543
0.00523774
0.00525839
0.00527528
0.00528709
0.00529348
0.202075
0.189735
0.17519
0.157239
0.131052
0.100478
0.0728225
0.0519215
0.037608
0.0281266
0.0217861
0.0174124
0.0143027
0.0120881
0.0106157
0.00978446
0.00925336
0.00883313
0.00846553
0.00813816
0.00785213
0.00761113
0.00741814
0.00727356
0.00717456
0.0071155
0.00708893
0.00708654
0.00710031
0.00712301
0.0071491
0.0071741
0.00719556
0.201605
0.192069
0.181039
0.17005
0.156766
0.139673
0.119118
0.0973687
0.0772539
0.0604918
0.0474661
0.0378006
0.0309008
0.0262321
0.0232956
0.0214481
0.0201638
0.0191626
0.0183256
0.017612
0.0170108
0.0165203
0.0161413
0.0158714
0.0157037
0.015626
0.0156223
0.0156741
0.0157624
0.0158691
0.0159792
0.0160799
0.0161643
0.201279
0.193684
0.185095
0.177323
0.169385
0.160068
0.148295
0.13366
0.117063
0.100246
0.0848922
0.0720866
0.0622348
0.0551896
0.0503804
0.0470505
0.0446079
0.042703
0.0411484
0.0398645
0.0388254
0.0380209
0.037444
0.0370817
0.0369113
0.0369005
0.0370099
0.0371968
0.0374199
0.0376416
0.0378335
0.0379722
0.0380423
0.201043
0.194857
0.187927
0.181954
0.176558
0.171324
0.165737
0.159043
0.150671
0.140615
0.129516
0.11845
0.108477
0.100215
0.093703
0.088619
0.0845633
0.0812496
0.0784539
0.0760903
0.0741235
0.0725241
0.0712611
0.0702988
0.0695955
0.0691022
0.0687642
0.0685236
0.0683253
0.0681175
0.0678618
0.0675245
0.0670673
0.200875
0.195685
0.189933
0.185217
0.181339
0.178025
0.174954
0.171667
0.167718
0.162851
0.157107
0.150836
0.144559
0.138731
0.133575
0.129083
0.12505
0.121412
0.118127
0.115195
0.112608
0.110345
0.108376
0.106667
0.105175
0.103855
0.102657
0.101529
0.100421
0.0992844
0.0980796
0.0967659
0.0952695
0.200756
0.196275
0.191352
0.187481
0.184549
0.182348
0.180668
0.179214
0.177662
0.175741
0.173292
0.170313
0.166946
0.163394
0.159781
0.156171
0.152587
0.149113
0.145827
0.142774
0.139972
0.137417
0.135087
0.132954
0.130983
0.129134
0.127364
0.125628
0.123878
0.122063
0.120135
0.118037
0.115649
0.200673
0.196685
0.192338
0.189031
0.18671
0.185168
0.18419
0.183523
0.182921
0.182184
0.181174
0.179813
0.178087
0.176034
0.173719
0.171206
0.168579
0.165918
0.163286
0.160732
0.158281
0.155941
0.153709
0.151568
0.149498
0.147468
0.145445
0.143388
0.141251
0.138976
0.136503
0.13375
0.130532
0.200618
0.196958
0.192984
0.190001
0.188016
0.186821
0.186198
0.18592
0.185772
0.18557
0.185173
0.18448
0.183443
0.18206
0.180373
0.178453
0.176375
0.174216
0.172034
0.169875
0.167766
0.16572
0.163737
0.161808
0.159915
0.158035
0.156133
0.154168
0.152083
0.149808
0.147252
0.144285
0.14066
0.200585
0.197119
0.193329
0.190469
0.188598
0.187518
0.187019
0.18688
0.186895
0.186896
0.186754
0.186384
0.185742
0.184825
0.183657
0.182284
0.180758
0.179131
0.177448
0.175743
0.174039
0.172349
0.170675
0.169015
0.167354
0.165671
0.163938
0.16211
0.160128
0.157895
0.155244
0.151993
0.147933
0.200571
0.197185
0.193435
0.190579
0.1887
0.187616
0.18712
0.186999
0.187054
0.187125
0.187093
0.186877
0.186435
0.185758
0.184863
0.183786
0.182569
0.181255
0.179882
0.17848
0.17707
0.175667
0.174275
0.172893
0.171512
0.170113
0.168669
0.167139
0.16544
0.163408
0.160835
0.157513
0.153344
0.200576
0.197159
0.193332
0.190381
0.188408
0.187241
0.186673
0.186494
0.186512
0.186576
0.186578
0.186445
0.18614
0.185655
0.185
0.184199
0.183283
0.18228
0.18122
0.180125
0.179013
0.177895
0.176777
0.175661
0.174539
0.173398
0.172213
0.170932
0.169443
0.167586
0.165161
0.161899
0.157642
0.2006
0.197041
0.193014
0.189869
0.187723
0.186404
0.185705
0.185417
0.185352
0.185367
0.185359
0.185262
0.185038
0.184676
0.18418
0.183566
0.182856
0.182073
0.181239
0.180373
0.179492
0.178606
0.177723
0.176846
0.175972
0.175088
0.174157
0.17312
0.171894
0.170355
0.168316
0.165479
0.161543
0.200644
0.19682
0.19246
0.189016
0.186617
0.185085
0.184208
0.183773
0.183596
0.183537
0.1835
0.18342
0.18326
0.183005
0.182655
0.182216
0.181703
0.181131
0.180515
0.179871
0.179211
0.178545
0.177879
0.17722
0.17656
0.175878
0.175144
0.174326
0.17337
0.17218
0.170587
0.168314
0.164975
0.200713
0.196477
0.191627
0.187765
0.185033
0.183237
0.182149
0.181549
0.18125
0.181114
0.181043
0.180973
0.180864
0.180696
0.180462
0.180162
0.179805
0.179399
0.178956
0.178488
0.178004
0.177514
0.177024
0.176535
0.176034
0.17551
0.174959
0.174367
0.173699
0.172884
0.171786
0.170176
0.167704
0.200816
0.195971
0.190431
0.18601
0.182855
0.180739
0.179409
0.178627
0.178199
0.177982
0.177877
0.177818
0.177761
0.177681
0.177564
0.177405
0.177204
0.176965
0.176695
0.176402
0.176093
0.175774
0.175439
0.175087
0.17472
0.174345
0.173965
0.173574
0.17315
0.17264
0.171947
0.170898
0.169233
0.200967
0.195225
0.188728
0.183589
0.179932
0.177471
0.175905
0.174964
0.174436
0.174169
0.174057
0.174027
0.174032
0.17404
0.174032
0.173996
0.173929
0.17383
0.173703
0.17355
0.173374
0.173175
0.172949
0.172702
0.172445
0.172188
0.171936
0.171687
0.171424
0.17111
0.170672
0.169987
0.168885
0.201186
0.19414
0.186332
0.180263
0.175998
0.17314
0.171315
0.170207
0.169581
0.16927
0.169162
0.169177
0.169261
0.169378
0.169502
0.169615
0.169709
0.169778
0.16982
0.169824
0.169785
0.169708
0.169602
0.169477
0.169344
0.169211
0.169081
0.168951
0.168808
0.168619
0.16833
0.167853
0.16708
0.201505
0.192563
0.182985
0.175781
0.170862
0.167645
0.165628
0.164428
0.163771
0.163473
0.163409
0.163496
0.163674
0.163901
0.164149
0.164396
0.164624
0.164825
0.164992
0.16511
0.165178
0.165204
0.165199
0.16517
0.165127
0.165074
0.165013
0.164939
0.164838
0.164686
0.164436
0.164031
0.163404
0.201985
0.190189
0.178139
0.169457
0.163731
0.16008
0.157834
0.156524
0.155838
0.155572
0.15559
0.1558
0.156137
0.156551
0.157007
0.157473
0.157908
0.158296
0.158632
0.158916
0.159152
0.159346
0.159504
0.15963
0.159731
0.159806
0.159854
0.15987
0.159839
0.15974
0.159538
0.159195
0.158675
0.202713
0.186593
0.171297
0.161005
0.154598
0.150689
0.148366
0.14706
0.14642
0.146228
0.14635
0.14668
0.14715
0.147711
0.148325
0.14895
0.14955
0.150105
0.150611
0.151065
0.151468
0.151824
0.152134
0.152403
0.15263
0.152817
0.15296
0.153054
0.153087
0.153043
0.152898
0.152633
0.152232
0.203893
0.180765
0.160826
0.1484
0.141096
0.136834
0.134413
0.133148
0.132639
0.132653
0.133027
0.133626
0.13437
0.135207
0.136098
0.137008
0.13791
0.138784
0.139616
0.140398
0.141123
0.141788
0.142392
0.142933
0.143411
0.143824
0.144169
0.144439
0.144628
0.144725
0.144715
0.144592
0.144357
0.20576
0.171518
0.146129
0.131931
0.124036
0.119522
0.116955
0.115605
0.115077
0.115138
0.115611
0.11637
0.117339
0.118457
0.119674
0.120944
0.122232
0.123507
0.124744
0.125925
0.127038
0.128073
0.129026
0.129893
0.130673
0.131365
0.131966
0.132474
0.132887
0.133199
0.133404
0.133506
0.133514
0.208838
0.156272
0.123825
0.107482
0.0988614
0.0940716
0.091405
0.0900451
0.0895827
0.089793
0.0905178
0.0916373
0.0930552
0.0946915
0.0964782
0.0983574
0.100279
0.102198
0.10408
0.105894
0.107619
0.10924
0.110745
0.112128
0.113386
0.114519
0.115526
0.116408
0.117167
0.117806
0.118324
0.11873
0.119041
0.215482
0.123446
0.0815546
0.0644476
0.0568009
0.0530347
0.0511426
0.0503474
0.0503292
0.0509325
0.0520441
0.0535665
0.055413
0.0575076
0.0597833
0.0621798
0.0646421
0.0671212
0.0695744
0.071966
0.0742681
0.0764596
0.0785256
0.0804566
0.082247
0.0838948
0.0854001
0.0867652
0.0879934
0.0890892
0.0900571
0.0909056
0.0916516
0.223065
0.0849847
0.0393232
0.0258649
0.0217113
0.0203323
0.0199297
0.0200004
0.0204006
0.0210848
0.0220288
0.0232103
0.0246045
0.0261816
0.0279053
0.029736
0.0316341
0.0335644
0.035498
0.0374117
0.0392867
0.0411075
0.0428609
0.0445358
0.0461238
0.0476185
0.0490163
0.0503153
0.0515148
0.0526156
0.0536191
0.0545275
0.0553507
0.226238
0.069042
0.0239488
0.0121555
0.00898205
0.00806808
0.00781416
0.00780917
0.00794179
0.00818508
0.00854008
0.00901346
0.00960726
0.0103151
0.0111231
0.0120124
0.0129629
0.0139564
0.0149773
0.0160136
0.0170549
0.0180918
0.0191147
0.0201137
0.0210795
0.0220037
0.02288
0.0237034
0.0244709
0.0251809
0.0258328
0.0264271
0.0269684
0.223916
0.078749
0.0332587
0.0200529
0.0156655
0.0137011
0.0124551
0.0114587
0.0105704
0.0097523
0.00900415
0.00833288
0.00774358
0.00723792
0.00681458
0.00646985
0.00619835
0.00599364
0.00584893
0.00575793
0.00571413
0.00571161
0.00574688
0.00581717
0.00591899
0.00604865
0.00620268
0.00637777
0.00657074
0.00677847
0.00699836
0.00722584
0.00747136
0.213301
0.134375
0.0884452
0.064368
0.0510036
0.0428096
0.0372841
0.0332698
0.0301902
0.0277302
0.0257082
0.024007
0.0225485
0.021279
0.0201584
0.0191575
0.0182541
0.0174313
0.0166756
0.0159759
0.0153241
0.0147143
0.0141414
0.0136006
0.0130883
0.0126016
0.012138
0.0116956
0.0112725
0.0108676
0.010479
0.0101091
0.00974328
0.24025
0.000465918
0.0364914
0.0330292
0.000605187
0.000181367
0.00254762
0.00130543
0.000358733
0.000249278
0.00068941
0.00111897
0.000889618
0.000408491
0.000277713
0.000351592
0.000390749
0.000392967
0.000399861
0.000413989
0.000426011
0.000434581
0.00044359
0.000453288
0.00046294
0.00047191
0.000479837
0.000486541
0.000491946
0.000496055
0.000498884
0.000500614
0.000500858
0.200085
0.199946
0.199757
0.199572
0.199396
0.199225
0.199056
0.198886
0.198713
0.198535
0.198352
0.198164
0.197968
0.197766
0.197558
0.197343
0.197121
0.196893
0.196659
0.196418
0.196173
0.195922
0.195661
0.19539
0.195109
0.194819
0.194519
0.19421
0.193894
0.193571
0.19324
0.192908
0.192558
0.199876
0.199567
0.199234
0.198889
0.198542
0.198197
0.19786
0.197531
0.197212
0.196904
0.196607
0.196322
0.19605
0.195789
0.195541
0.195304
0.195079
0.194865
0.194661
0.194469
0.194286
0.194113
0.19395
0.193795
0.193649
0.19351
0.19338
0.193256
0.193139
0.193028
0.192922
0.192822
0.192726
0.0772341
0.0736107
0.0726398
0.0729033
0.0730177
0.0742928
0.0833361
0.0962937
0.104808
0.127168
0.135043
0.113912
0.0825243
0.0553008
0.0642862
0.0946794
0.081949
0.0672695
0.0691321
0.0734104
0.075568
0.0781825
0.0842933
0.0950841
0.108973
0.122934
0.133252
0.136715
0.133577
0.124467
0.10897
0.0897207
0.0763383
0.0718097
0.0649818
0.0478949
0.0271182
0.0144043
0.013343
0.0174782
0.0200618
0.00977463
0.0184249
0.0748943
0.140161
0.18812
0.22117
0.245833
0.262095
0.26557
0.253463
0.22816
0.18965
0.133713
0.0757178
0.0490676
0.0619202
0.0920256
0.117544
0.131534
0.136469
0.136457
0.134149
0.130739
0.12666
0.122076
0.117084
0.111782
0.10632
0.10093
0.0959284
0.091668
0.0884807
0.0866384
0.0862682
0.0872523
0.0890331
0.0903596
0.0894985
0.0851465
0.0772164
0.0669771
0.0571103
0.0504416
0.0473058
0.0433726
0.0333175
0.0188681
0.00888681
0.0115881
0.0278982
0.0474447
0.0570889
0.0541221
0.0443169
0.0341485
0.0265648
0.0220146
0.0188968
0.0216044
0.176862
0.170005
0.161811
0.15195
0.139783
0.126062
0.115041
0.11298
0.128223
0.136843
0.116955
0.0805712
0.0482717
0.0276873
0.0255225
0.06444
0.0853682
0.0733773
0.0669578
0.0701963
0.07397
0.0768066
0.0812702
0.0895285
0.10072
0.112281
0.12093
0.124105
0.121239
0.112821
0.0980865
0.0817342
0.0733581
0.0708873
0.0613589
0.0413836
0.0215046
0.0128509
0.0159821
0.0226809
0.0266883
0.0193046
0.011308
0.0449985
0.106798
0.160962
0.197507
0.22077
0.233667
0.234914
0.223437
0.199504
0.157722
0.100174
0.0549784
0.0485401
0.0731244
0.103666
0.124755
0.134655
0.137279
0.136293
0.13367
0.130193
0.126108
0.121496
0.116419
0.110972
0.105312
0.0996869
0.0944316
0.0899199
0.0865266
0.0845417
0.0840778
0.0849924
0.0867139
0.0880323
0.0872994
0.0832531
0.0757668
0.0659891
0.0564592
0.0500039
0.0472236
0.0440084
0.0345273
0.0197622
0.00858717
0.00954065
0.024547
0.044482
0.0559035
0.0546875
0.0454778
0.0349927
0.0268705
0.0219755
0.0187104
0.0215842
0.102746
0.112662
0.122099
0.130468
0.13686
0.140123
0.139757
0.14009
0.133012
0.10748
0.0712189
0.0386042
0.0175767
0.00817578
0.00353775
0.0275673
0.0685467
0.078464
0.0695696
0.0671651
0.0707593
0.0747299
0.0786182
0.0846135
0.093036
0.102048
0.108926
0.111399
0.10887
0.100889
0.0871122
0.0750568
0.0718941
0.0694381
0.0557198
0.033538
0.0163091
0.0128813
0.0203455
0.0295963
0.0343531
0.0307132
0.0157969
0.0237562
0.0696203
0.124785
0.166963
0.192905
0.205344
0.205683
0.193916
0.166315
0.11891
0.067354
0.0429589
0.0558248
0.0868225
0.114325
0.13026
0.136561
0.137443
0.135809
0.133008
0.129512
0.125438
0.120809
0.115658
0.110071
0.104214
0.0983501
0.0928357
0.0880844
0.084498
0.0823664
0.0817965
0.0826331
0.0842946
0.0856
0.0849696
0.0811886
0.0741231
0.0648388
0.0557255
0.04958
0.0472446
0.0449063
0.0361996
0.0211545
0.00879156
0.00815502
0.0220105
0.0422428
0.0553532
0.0560543
0.0478422
0.0374553
0.0290511
0.0238885
0.0204228
0.0231997
0.0188877
0.0251163
0.0331429
0.0429302
0.0539445
0.0644796
0.071467
0.0701724
0.0576243
0.0385672
0.020228
0.00773185
0.0016626
0.000538809
0.000905436
0.00624499
0.0395361
0.0705696
0.0744101
0.0682028
0.0673302
0.0708949
0.07526
0.0801283
0.086305
0.0928732
0.0978663
0.0994622
0.0970274
0.0887749
0.0769776
0.0710087
0.0717974
0.0662127
0.0474436
0.0248833
0.0125437
0.0152537
0.0268634
0.0382918
0.0437442
0.0424056
0.0285203
0.0175061
0.0379846
0.0824426
0.126195
0.156323
0.171051
0.171726
0.156768
0.122989
0.0767316
0.0431914
0.0432688
0.0698425
0.101125
0.123106
0.133976
0.137433
0.137124
0.135098
0.132206
0.128712
0.124654
0.120012
0.114794
0.109074
0.103022
0.0969194
0.091152
0.0861639
0.0823728
0.0800791
0.0793928
0.0801495
0.0817571
0.0830533
0.082512
0.0789653
0.0722947
0.0635206
0.054879
0.0490976
0.0471919
0.0457168
0.0379216
0.0227572
0.00927066
0.00706133
0.0190347
0.0377214
0.050827
0.0532428
0.0473244
0.038744
0.0312544
0.026343
0.0226896
0.0252567
0.000144713
0.000197732
0.000775029
0.00215964
0.00452638
0.00759303
0.00967693
0.00879111
0.00481706
0.00220191
0.00129791
0.00084787
0.000817351
0.00100789
0.000350537
0.000580491
0.014731
0.0476909
0.0708165
0.0730292
0.0683737
0.0674143
0.0702772
0.0746135
0.0795815
0.084455
0.0878858
0.0886918
0.0852254
0.0767646
0.0697409
0.0706229
0.0714905
0.0594813
0.0365367
0.0166822
0.0114249
0.0205346
0.0356844
0.0486676
0.0549282
0.0544453
0.0445616
0.0263902
0.0224915
0.0446829
0.0791493
0.10861
0.124755
0.124941
0.106844
0.0738945
0.0427763
0.0353902
0.0555135
0.0871607
0.113791
0.129455
0.136105
0.137552
0.136484
0.134223
0.13128
0.127792
0.123747
0.119093
0.113811
0.107963
0.10172
0.095382
0.0893601
0.0841228
0.0801096
0.077638
0.076825
0.0774999
0.0790614
0.0803596
0.0799054
0.0765686
0.0702607
0.0620008
0.0538799
0.0485405
0.0471141
0.046557
0.0398544
0.024697
0.00994431
0.00595113
0.0156269
0.0321367
0.0446415
0.0483126
0.0445085
0.0378327
0.0315374
0.0273061
0.0239188
0.0268006
0.00022442
1.79923e-05
0.000419588
0.000334327
0.000528776
0.0002439
0.000224625
0.00024826
0.000196262
0.000319832
0.0007551
0.00147411
0.00216805
0.00256401
0.00224596
0.000836711
0.00184099
0.0214006
0.052036
0.0710812
0.0735559
0.06972
0.0676932
0.0688298
0.0717653
0.0750478
0.0772435
0.0769342
0.0726584
0.0675651
0.0684329
0.0728173
0.0676659
0.0479758
0.0242211
0.0108705
0.0141082
0.0290374
0.0467554
0.0605838
0.0675205
0.0675074
0.0607402
0.0444117
0.0272233
0.0254877
0.0402813
0.0595122
0.0717794
0.0703755
0.0551699
0.0360506
0.0298953
0.045581
0.0750885
0.103873
0.123465
0.133459
0.137026
0.13716
0.135618
0.133206
0.130227
0.126742
0.122704
0.118033
0.112688
0.106714
0.100283
0.0937076
0.0874231
0.081923
0.0776709
0.075005
0.0740545
0.0746466
0.0761738
0.0774945
0.077144
0.0740147
0.0680482
0.0602962
0.0527286
0.0478827
0.0469412
0.0472364
0.0416661
0.0266515
0.0106289
0.00487865
0.0125972
0.0277948
0.0405988
0.0455697
0.0430407
0.0371526
0.0311995
0.0271923
0.0238719
0.0271269
0.00198435
0.00181965
0.00166221
0.00150772
0.00135465
0.00120914
0.00115838
0.00126039
0.00154414
0.00202459
0.00264297
0.00326951
0.00375999
0.00399069
0.00389848
0.00281482
0.000387331
0.00510526
0.0259714
0.0529708
0.0704311
0.0747738
0.0722866
0.0692389
0.0678932
0.067906
0.068024
0.0667311
0.0651231
0.0673501
0.0730861
0.072207
0.0566471
0.0323731
0.0132761
0.00963938
0.021323
0.040692
0.0597744
0.0737231
0.0809201
0.081579
0.0765047
0.0646294
0.0462733
0.0306942
0.0258328
0.029224
0.032838
0.0308025
0.0255898
0.0264446
0.0411632
0.0675028
0.0956233
0.117184
0.129876
0.135599
0.137125
0.136429
0.134575
0.132051
0.129038
0.125549
0.121509
0.116813
0.111398
0.105293
0.0986701
0.0918532
0.0852976
0.0795217
0.0750142
0.0721369
0.0710367
0.0715455
0.0730523
0.0744209
0.0742015
0.0712931
0.0656551
0.0583937
0.0514052
0.0471002
0.0466664
0.0477676
0.0433867
0.0286957
0.0114117
0.00396947
0.0103665
0.0258577
0.0407547
0.047659
0.0455366
0.0388538
0.031772
0.0270028
0.0232563
0.0264875
0.00437307
0.00425236
0.00412245
0.00398959
0.00386628
0.0037764
0.00376409
0.00383579
0.00399456
0.00422725
0.00450576
0.00479686
0.00504203
0.00516306
0.0050676
0.00465948
0.0029753
0.000574299
0.00650376
0.0258082
0.0499627
0.0676172
0.0750714
0.0754535
0.0731738
0.0709369
0.0693975
0.0687768
0.0710137
0.0753206
0.0745163
0.0612205
0.0381307
0.0165152
0.0074408
0.0145821
0.0330931
0.0550294
0.074198
0.0875167
0.09445
0.0957492
0.092
0.0835897
0.0696905
0.0526589
0.0385143
0.030495
0.0269253
0.0263834
0.0311772
0.0448504
0.0668455
0.0915071
0.112348
0.126213
0.133577
0.136455
0.13669
0.135449
0.133366
0.130746
0.127697
0.124196
0.120139
0.115403
0.109904
0.103658
0.0968343
0.0897673
0.0829317
0.0768689
0.0720913
0.068986
0.0677224
0.0681457
0.0696463
0.0710916
0.0710412
0.0683897
0.0630934
0.0563109
0.0499191
0.0461827
0.0462494
0.0480595
0.0448957
0.0308322
0.012459
0.00341681
0.00857464
0.0244824
0.0416342
0.0505306
0.0487581
0.0411988
0.0329169
0.0272668
0.0229735
0.0257254
0.00529538
0.00528943
0.00527409
0.00525104
0.00522576
0.00520957
0.00521631
0.00524214
0.00530774
0.00545051
0.00570345
0.00603079
0.00627931
0.00626725
0.00594347
0.00553978
0.00488991
0.00242113
0.000374039
0.00614027
0.0223465
0.0430052
0.0603408
0.0708233
0.0753816
0.0766149
0.0767541
0.0774219
0.077725
0.0734504
0.0599953
0.0387917
0.0178093
0.00636082
0.00971866
0.0260002
0.0487336
0.0712402
0.0892353
0.101148
0.107294
0.108846
0.106434
0.100516
0.0911641
0.0786498
0.0654937
0.0552285
0.0501042
0.0514369
0.0598986
0.0749934
0.0934385
0.110714
0.123653
0.131558
0.135391
0.136486
0.135883
0.134252
0.131984
0.129278
0.126187
0.122656
0.118561
0.11376
0.108153
0.101747
0.0947083
0.0873823
0.080261
0.0739057
0.0688496
0.0655031
0.0640627
0.0643956
0.0659026
0.0674549
0.0676171
0.065273
0.0603544
0.0540511
0.0482687
0.0451257
0.0457101
0.0481906
0.046346
0.0333742
0.0141288
0.00336282
0.00705304
0.0227317
0.0412655
0.051744
0.0506168
0.0428182
0.0338899
0.0277057
0.0231297
0.02557
0.00721395
0.00722617
0.00722953
0.00722824
0.00723352
0.00726409
0.00734389
0.00753989
0.00791519
0.00850327
0.00923712
0.00988099
0.0100721
0.00954883
0.00842598
0.00708029
0.00602642
0.00477052
0.00219911
0.000497971
0.00452577
0.0159745
0.0315082
0.0462455
0.0572163
0.0638345
0.0669288
0.0666935
0.0612604
0.0491272
0.0319257
0.0149244
0.00482221
0.00668694
0.0207982
0.0429132
0.0670498
0.0882153
0.103853
0.113646
0.118552
0.119917
0.118522
0.114686
0.1087
0.100898
0.0923274
0.0851186
0.0818182
0.0837188
0.0907193
0.101452
0.113157
0.123209
0.130276
0.134334
0.136
0.135962
0.134777
0.132843
0.130418
0.127625
0.124474
0.120882
0.116711
0.111805
0.106056
0.0994641
0.0921973
0.0846091
0.077206
0.0705655
0.0652352
0.0616442
0.0600167
0.060252
0.0617734
0.0634609
0.0638816
0.0619069
0.0574279
0.0516281
0.0464659
0.0439337
0.0450501
0.0481549
0.0476346
0.0362199
0.016515
0.00383541
0.00591243
0.0207707
0.0396146
0.0509164
0.0504453
0.0428769
0.0338175
0.0274578
0.0228375
0.0255566
0.0162368
0.0162893
0.016315
0.0163302
0.0163665
0.0164701
0.0166999
0.0171568
0.0178621
0.0187129
0.0194225
0.0195405
0.0186597
0.0167447
0.014075
0.0111341
0.00852096
0.00663616
0.00483122
0.00231073
0.000426677
0.00196079
0.00806485
0.0171404
0.026315
0.0331684
0.0362511
0.0345302
0.0279342
0.0179777
0.00798413
0.00239725
0.00535232
0.0183088
0.0392234
0.0635748
0.0864535
0.104554
0.116881
0.124099
0.12751
0.128405
0.127539
0.125234
0.121682
0.117212
0.112471
0.108616
0.107079
0.108546
0.112799
0.118849
0.125092
0.13024
0.133715
0.135495
0.135823
0.135016
0.133392
0.131213
0.128642
0.125743
0.122487
0.118777
0.114467
0.109402
0.10347
0.0966704
0.0891717
0.0813343
0.073675
0.0667796
0.061202
0.057381
0.0555652
0.0556941
0.0572302
0.0590735
0.0597939
0.0582509
0.0542882
0.049041
0.0445099
0.0426073
0.0442758
0.04799
0.0487514
0.0392969
0.0197781
0.00496794
0.0052534
0.0190628
0.037806
0.0495918
0.0496445
0.0423115
0.0331687
0.0266682
0.0219795
0.0252706
0.038062
0.0379951
0.0378399
0.0376225
0.0373899
0.0371893
0.0370244
0.0368765
0.0366497
0.0360993
0.0348202
0.0324025
0.0287529
0.0241857
0.0193251
0.0149248
0.0113788
0.00876014
0.00687546
0.00503642
0.00273199
0.000620968
5.42227e-05
0.00164725
0.00465041
0.00751664
0.00864034
0.00734902
0.00439238
0.00144752
0.00117838
0.00653137
0.0192982
0.0389705
0.0625341
0.0857114
0.10496
0.118727
0.127318
0.131946
0.133921
0.134279
0.133595
0.132164
0.130139
0.127723
0.12529
0.12343
0.122738
0.123519
0.125589
0.128474
0.131411
0.133778
0.135225
0.135636
0.13507
0.133698
0.131732
0.129336
0.126598
0.123527
0.120078
0.116155
0.111624
0.106337
0.100188
0.0931752
0.085468
0.0774277
0.0695732
0.0624899
0.0567256
0.0527159
0.0507261
0.0507407
0.0522798
0.0542837
0.0553318
0.0542732
0.0509083
0.0462883
0.042406
0.0411524
0.0433837
0.0476852
0.049606
0.0423019
0.0238052
0.00699122
0.00523228
0.017794
0.0361514
0.0481296
0.0485118
0.0413393
0.0321324
0.0255073
0.020687
0.024442
0.0664912
0.0656915
0.0647101
0.0635595
0.0622754
0.0607924
0.0589768
0.056728
0.0538697
0.0500939
0.0450692
0.0387341
0.031551
0.0244946
0.0187493
0.0150093
0.0130542
0.012032
0.0111529
0.00997465
0.00823245
0.00592392
0.00351214
0.00166081
0.000698927
0.000423874
0.000410081
0.000600594
0.0016252
0.00485108
0.0121184
0.024939
0.0433762
0.0653995
0.0875283
0.106474
0.12049
0.129563
0.134715
0.137206
0.138071
0.138
0.137351
0.136334
0.135077
0.133707
0.132413
0.13144
0.131009
0.131249
0.132057
0.133252
0.134459
0.135315
0.135552
0.135047
0.13383
0.132028
0.129773
0.127139
0.12414
0.120762
0.116972
0.112707
0.107861
0.102304
0.0959344
0.088748
0.0809062
0.072762
0.0648253
0.057669
0.0518217
0.0476999
0.0455716
0.0454668
0.0469823
0.0491263
0.050505
0.0499613
0.0472607
0.0433555
0.0401601
0.0395756
0.0423799
0.0472605
0.0502292
0.0450869
0.0284469
0.010218
0.00597571
0.0169772
0.0347174
0.0467187
0.0473267
0.0402765
0.0310132
0.024271
0.019313
0.023304
0.0935333
0.0913314
0.0887849
0.0859003
0.0826692
0.0787788
0.0740435
0.0683945
0.0616923
0.0537578
0.0446304
0.0348987
0.0258111
0.018975
0.0154984
0.0153772
0.0175126
0.0202784
0.0222489
0.0227069
0.0216437
0.0194399
0.0166392
0.0138554
0.0116532
0.0104495
0.0105361
0.0123477
0.0167034
0.0246527
0.0370562
0.0538243
0.0733872
0.0930473
0.110131
0.123073
0.131703
0.136783
0.139373
0.140414
0.14058
0.140244
0.139598
0.138766
0.137843
0.136916
0.136081
0.135421
0.135044
0.134979
0.135155
0.135476
0.135715
0.135624
0.135024
0.133849
0.132146
0.129994
0.127425
0.12442
0.120957
0.117048
0.112723
0.107981
0.102756
0.0969334
0.0904075
0.0831603
0.0753317
0.0672519
0.0594082
0.0523485
0.0465686
0.0424493
0.0402435
0.0400192
0.0414663
0.0436956
0.0453703
0.045337
0.043336
0.0402269
0.0377816
0.0378895
0.0412769
0.0467231
0.0506247
0.0474799
0.0332876
0.0147272
0.00773354
0.0167959
0.0335427
0.0452299
0.0458772
0.0389161
0.029657
0.0228534
0.0178051
0.0218704
0.11283
0.109194
0.104903
0.0999728
0.0942221
0.0871311
0.0787165
0.0691519
0.0585338
0.0470573
0.0354096
0.0250052
0.017709
0.0149355
0.0168701
0.0223908
0.0296189
0.0366461
0.0420309
0.0450241
0.0455893
0.0442343
0.0417498
0.0389953
0.0367846
0.0358428
0.0367788
0.0403163
0.0471488
0.0575926
0.0712744
0.0869089
0.102543
0.11626
0.126881
0.134191
0.138672
0.141073
0.142093
0.142292
0.142069
0.141578
0.140912
0.140149
0.139361
0.138606
0.13793
0.137374
0.136964
0.136686
0.136466
0.136217
0.13578
0.134997
0.133775
0.132105
0.130014
0.127479
0.124414
0.120745
0.116492
0.111772
0.106728
0.101433
0.0958552
0.0898753
0.0833636
0.0762668
0.0686859
0.0609122
0.0533962
0.0466499
0.0411267
0.0371572
0.0349592
0.0346226
0.0359384
0.0381571
0.0400425
0.0404668
0.0391526
0.0368868
0.0352648
0.0360926
0.0400842
0.0460933
0.0508409
0.0494574
0.0379154
0.0201412
0.0104773
0.0171405
0.0324722
0.0435503
0.0441276
0.0372836
0.0281171
0.0213284
0.0162573
0.0202978
0.126616
0.121369
0.114969
0.107382
0.0980631
0.0867416
0.0740831
0.0607337
0.0471498
0.034076
0.0229926
0.0158955
0.014347
0.0185655
0.0272857
0.0383706
0.0496634
0.0595654
0.0671817
0.0721963
0.0747154
0.0751727
0.0742512
0.0727838
0.0716466
0.0716629
0.0735684
0.0778568
0.0846958
0.0937552
0.104162
0.11468
0.124104
0.131644
0.137073
0.140595
0.142609
0.143525
0.143685
0.143395
0.142923
0.1423
0.141569
0.14079
0.14002
0.139299
0.138649
0.138076
0.137563
0.137073
0.136528
0.135833
0.134874
0.13357
0.131889
0.129819
0.127282
0.124109
0.12014
0.115356
0.109938
0.104183
0.0983605
0.092597
0.086853
0.0809705
0.0747655
0.0681271
0.0611005
0.0539248
0.0470045
0.0408096
0.0357474
0.0320905
0.0300024
0.0295702
0.0306793
0.0327512
0.0347044
0.0354751
0.034778
0.0333462
0.0326046
0.0341863
0.0388132
0.0453924
0.0509075
0.0510218
0.0420174
0.0259217
0.0143221
0.0183183
0.0317378
0.0417503
0.0420201
0.0352573
0.0262614
0.0195713
0.0145464
0.0184513
0.13598
0.129286
0.120624
0.109622
0.0954601
0.0791801
0.0625879
0.0467338
0.0323747
0.0208801
0.0142272
0.013991
0.0203103
0.0317273
0.0458461
0.0602541
0.0731948
0.0837623
0.0917405
0.0973171
0.100851
0.102768
0.103557
0.103781
0.104059
0.104997
0.10711
0.110541
0.115203
0.120721
0.1265
0.131918
0.136508
0.140051
0.142544
0.144102
0.144872
0.145
0.144636
0.14398
0.143279
0.142496
0.141642
0.140772
0.139934
0.139157
0.138445
0.137777
0.137114
0.136404
0.135565
0.134496
0.133127
0.131424
0.129346
0.126763
0.123422
0.119059
0.113591
0.107234
0.100432
0.0936707
0.0872891
0.0813922
0.0758699
0.0704815
0.0649645
0.0591387
0.0529871
0.0466937
0.0406158
0.0351827
0.0307602
0.0275639
0.0256894
0.0251898
0.0260178
0.0277786
0.0296011
0.0305412
0.0303271
0.0296496
0.0297956
0.03217
0.0374695
0.0446406
0.0508601
0.0521969
0.0453138
0.0311244
0.0184872
0.0197974
0.0309327
0.0396171
0.0395143
0.0328807
0.0241503
0.0176465
0.0127404
0.0164025
0.142444
0.134101
0.122425
0.106341
0.0859593
0.0650246
0.0462769
0.03062
0.0190196
0.0131621
0.0144346
0.0227499
0.036385
0.052706
0.0691062
0.083735
0.0957057
0.1049
0.111637
0.116399
0.119664
0.121845
0.123295
0.124342
0.125304
0.126479
0.128073
0.130146