/*--------------------------------*- C++ -*----------------------------------*\
  =========                 |
  \\      /  F ield         | OpenFOAM: The Open Source CFD Toolbox
   \\    /   O peration     | Website:  https://openfoam.org
    \\  /    A nd           | Version:  10
     \\/     M anipulation  |
\*---------------------------------------------------------------------------*/
FoamFile
{
    format      ascii;
    class       volScalarField;
    location    "0.12";
    object      nut;
}
// * * * * * * * * * * * * * * * * * * * * * * * * * * * * * * * * * * * * * //

dimensions      [0 2 -1 0 0 0 0];

internalField   nonuniform List<scalar> 
6820
(
0
0
0
0
0
0
0
0
0
0
0
0
0
0
0
0
0
0
0
0
0
0
0
0
0
0
0
0
0
0
0
0
0
0
0
0
0
0
0
0
0
0
0
0
0
0
0
0
0
0
0
0
0
0
0
0
0
0
0
0
0
0
0
0
0
0
0
0
0
0
0
0
0
0
0
0
0
0
0
0
0
0
0
0
0
0
0
0
0
0
0
0
0
0
0
0
0
0
0
0
0
0
0
0
0
0
0
0
0
0
0
0
0
0
0
0
0
0
0
0
0
0
0
0
0
0
0
0
0
0
0
0
1.62342e-05
0
0
0
0
0
0
0
0
0
0
0
0
0
0
0
0
0
0
0
0
0
0
0
0
0
0
0
0
0
0
0
0
6.28167e-06
4.82208e-05
3.69256e-05
1.84717e-05
6.38632e-06
2.93441e-07
0
0
0
0
0
0
0
0
0
0
0
0
0
0
0
0
7.49314e-09
1.51115e-08
2.12962e-08
2.39738e-08
1.94481e-08
3.12481e-09
0
0
0
0
0
0
1.36242e-05
2.80484e-05
3.60487e-05
3.4295e-05
3.07201e-05
2.76896e-05
2.48534e-05
2.21667e-05
1.97075e-05
1.73989e-05
1.50583e-05
1.23676e-05
8.82174e-06
4.02294e-06
0
0
0
0
0
0
0
0
0
6.94258e-08
5.11437e-08
0
0
0
0
0
0
0
0
8.11678e-06
1.5901e-05
2.77312e-05
3.13234e-05
3.03275e-05
2.88097e-05
2.73493e-05
2.61017e-05
2.52475e-05
2.48748e-05
2.51244e-05
2.63171e-05
2.8927e-05
2.96572e-05
0
0
0
0
0
0
1.63381e-07
2.758e-07
2.16244e-07
7.23519e-08
0
0
0
0
0
0
0
0
0
6.26521e-06
9.49617e-06
1.8194e-05
2.44461e-05
2.76309e-05
2.94792e-05
3.02361e-05
3.05113e-05
3.10185e-05
3.22504e-05
3.47818e-05
3.96064e-05
4.72261e-05
4.2922e-05
9.99143e-06
0
0
0
0
4.50791e-08
1.77725e-07
1.64231e-07
6.39133e-08
0
0
0
0
0
0
0
0
0
0
4.85841e-06
6.42858e-06
1.23849e-05
1.787e-05
2.17817e-05
2.53644e-05
2.8091e-05
3.00044e-05
3.17804e-05
3.39298e-05
3.6573e-05
3.85596e-05
3.46776e-05
2.02675e-05
7.14351e-06
1.68533e-06
1.56915e-07
0
0
0
0
0
0
0
0
0
0
0
0
0
0
0
0
3.74636e-06
4.54901e-06
8.75808e-06
1.30074e-05
1.61289e-05
1.96736e-05
2.32972e-05
2.63506e-05
2.8732e-05
3.02633e-05
3.02556e-05
2.73141e-05
2.04747e-05
1.19886e-05
5.64249e-06
2.30734e-06
8.88565e-07
3.46246e-07
1.25116e-07
0
0
0
0
0
0
0
0
0
0
0
0
0
0
2.86367e-06
3.14025e-06
6.06636e-06
9.39025e-06
1.16646e-05
1.41399e-05
1.68877e-05
1.93766e-05
2.12625e-05
2.2062e-05
2.10831e-05
1.78547e-05
1.28908e-05
7.79285e-06
3.94595e-06
1.60708e-06
3.61158e-07
0
0
0
0
0
0
0
0
0
0
0
0
0
0
0
0
2.19098e-06
2.11251e-06
4.03729e-06
6.54969e-06
8.18058e-06
9.78495e-06
1.1544e-05
1.30827e-05
1.41113e-05
1.42721e-05
1.31973e-05
1.08666e-05
7.80294e-06
4.81449e-06
2.48019e-06
9.21444e-07
0
0
0
0
0
0
0
0
0
0
0
0
0
0
0
0
0
1.68291e-06
1.3526e-06
2.47142e-06
4.21226e-06
5.25083e-06
6.13858e-06
7.04548e-06
7.70346e-06
7.94246e-06
7.61957e-06
6.61871e-06
5.02046e-06
3.13559e-06
1.34381e-06
0
0
0
0
0
0
0
0
0
0
0
0
0
0
0
0
0
0
0
1.3018e-06
7.92798e-07
1.2992e-06
2.38396e-06
2.92719e-06
3.31028e-06
3.69465e-06
3.88967e-06
3.79092e-06
3.36e-06
2.58744e-06
1.55729e-06
4.40832e-07
0
0
0
0
0
0
0
0
0
0
0
0
0
0
0
0
0
0
0
0
1.01354e-06
3.69856e-07
4.08958e-07
9.41686e-07
1.04987e-06
1.02042e-06
1.00512e-06
8.72415e-07
5.57543e-07
6.50859e-08
0
0
0
0
0
0
0
0
0
0
0
0
0
0
0
0
0
0
0
0
0
0
0
7.932e-07
4.23275e-08
0
0
0
0
0
0
0
0
0
0
0
0
0
0
0
0
0
0
0
0
0
0
0
0
0
0
0
0
0
0
0
6.21658e-07
0
0
0
0
0
0
0
0
0
0
0
0
0
0
0
0
0
0
0
0
0
0
0
0
0
0
0
0
3.55711e-07
5.24191e-07
0
0
4.85452e-07
0
0
0
0
0
0
0
0
0
0
0
0
0
0
0
0
0
0
0
0
0
0
0
0
0
0
4.30324e-08
7.32511e-07
1.38404e-06
1.56377e-06
2.65019e-08
0
3.73457e-07
0
0
0
0
0
0
0
0
0
0
0
0
0
0
0
0
0
0
0
0
0
0
0
0
0
6.90718e-08
7.57404e-07
1.45214e-06
2.0923e-06
2.25776e-06
7.32128e-07
0
2.77039e-07
0
0
0
0
0
0
0
0
0
0
0
0
0
0
0
0
0
0
0
0
0
0
0
0
3.3423e-07
1.02665e-06
1.72858e-06
2.42042e-06
3.04506e-06
3.19759e-06
1.67214e-06
0
1.89504e-07
0
0
0
0
0
0
0
0
0
0
0
0
0
0
0
0
0
0
0
0
0
0
0
5.24563e-07
1.21425e-06
1.91379e-06
2.60958e-06
3.28207e-06
3.87678e-06
3.99325e-06
2.43313e-06
0
1.03851e-07
0
0
0
0
0
0
0
0
0
0
0
0
0
0
0
0
0
0
0
0
0
0
6.7878e-07
1.38028e-06
2.09076e-06
2.80046e-06
3.49669e-06
4.16145e-06
4.74395e-06
4.84357e-06
3.25404e-06
0
1.56613e-08
0
0
0
0
0
0
0
0
0
0
0
0
0
0
0
0
0
0
0
0
3.90472e-07
1.08116e-06
1.7837e-06
2.49325e-06
3.20337e-06
3.9055e-06
4.58881e-06
5.23858e-06
5.80775e-06
5.88743e-06
4.24883e-06
0
0
0
0
0
0
0
0
0
0
0
0
0
0
0
0
0
0
0
0
0
3.83165e-07
1.09745e-06
1.82041e-06
2.54816e-06
3.27575e-06
3.99701e-06
4.70419e-06
5.38818e-06
6.03732e-06
6.60651e-06
6.66416e-06
4.94546e-06
0
0
0
0
0
0
0
0
0
0
0
0
0
0
0
0
0
0
0
3.91452e-07
1.10351e-06
1.82055e-06
2.54129e-06
3.26362e-06
3.98476e-06
4.70099e-06
5.40771e-06
6.09932e-06
6.76959e-06
7.4109e-06
7.97896e-06
8.0168e-06
6.20865e-06
0
0
0
0
0
0
0
0
0
0
0
0
0
0
0
0
0
0
1.77058e-07
9.23691e-07
1.67317e-06
2.42374e-06
3.17359e-06
3.9202e-06
4.66047e-06
5.39063e-06
6.10647e-06
6.80311e-06
7.47539e-06
8.11739e-06
8.68205e-06
8.67294e-06
6.74427e-06
0
0
0
0
0
0
0
0
0
0
0
0
0
0
0
2.50273e-08
7.6933e-07
1.50594e-06
2.23564e-06
2.95952e-06
3.6782e-06
4.39198e-06
5.10071e-06
5.80342e-06
6.4985e-06
7.18375e-06
7.85646e-06
8.51338e-06
9.15094e-06
9.76494e-06
1.03044e-05
1.02437e-05
8.19457e-06
0
0
0
0
0
0
0
0
0
0
0
0
0
0
0
3.77797e-07
1.15257e-06
1.9185e-06
2.67634e-06
3.42705e-06
4.17087e-06
4.90759e-06
5.63647e-06
6.35614e-06
7.06468e-06
7.75976e-06
8.43868e-06
9.09844e-06
9.73589e-06
1.03477e-05
1.08795e-05
1.07733e-05
8.64715e-06
0
0
0
0
0
0
0
0
0
0
0
7.92975e-07
1.5776e-06
2.3203e-06
3.02566e-06
3.69981e-06
4.34925e-06
4.98014e-06
5.59799e-06
6.20734e-06
6.81124e-06
7.41173e-06
8.00966e-06
8.60488e-06
9.19635e-06
9.78239e-06
1.03607e-05
1.09287e-05
1.14834e-05
1.20214e-05
1.24843e-05
1.22981e-05
1.00671e-05
0
0
0
0
0
0
0
0
0
0
6.49357e-07
1.44746e-06
2.18773e-06
2.88011e-06
3.53527e-06
4.16334e-06
4.77335e-06
5.37259e-06
5.96653e-06
6.55897e-06
7.15203e-06
7.7465e-06
8.34199e-06
8.93721e-06
9.53013e-06
1.01184e-05
1.06992e-05
1.12699e-05
1.18277e-05
1.237e-05
1.28371e-05
1.26458e-05
1.04432e-05
0
5.29818e-07
0
3.01011e-07
1.74607e-06
2.94294e-06
4.0015e-06
4.96169e-06
5.77314e-06
6.41858e-06
6.93036e-06
7.33702e-06
7.66787e-06
7.94888e-06
8.1993e-06
8.43494e-06
8.66936e-06
8.91291e-06
9.17294e-06
9.45424e-06
9.75936e-06
1.0089e-05
1.04425e-05
1.08176e-05
1.12113e-05
1.16201e-05
1.20403e-05
1.24682e-05
1.29006e-05
1.3334e-05
1.37075e-05
1.34471e-05
1.12414e-05
0
0
3.99195e-07
2.78909e-06
4.43788e-06
5.4217e-06
6.16973e-06
6.76141e-06
7.15844e-06
7.3754e-06
7.50097e-06
7.57555e-06
7.62504e-06
7.67166e-06
7.73054e-06
7.81316e-06
7.92819e-06
8.08109e-06
8.27477e-06
8.51006e-06
8.78589e-06
9.10002e-06
9.44909e-06
9.82813e-06
1.0232e-05
1.06555e-05
1.10937e-05
1.15421e-05
1.19963e-05
1.24524e-05
1.2853e-05
1.26799e-05
1.07692e-05
2.42691e-05
1.7154e-05
1.32222e-05
1.24974e-05
1.22748e-05
1.2029e-05
1.18556e-05
1.16654e-05
1.13558e-05
1.09413e-05
1.04992e-05
1.00693e-05
9.67156e-06
9.31164e-06
8.99255e-06
8.71956e-06
8.49745e-06
8.32942e-06
8.2177e-06
8.16376e-06
8.16762e-06
8.22836e-06
8.34362e-06
8.50716e-06
8.71316e-06
8.95618e-06
9.23109e-06
9.53326e-06
9.85843e-06
1.02025e-05
1.05182e-05
1.03873e-05
8.89479e-06
2.28502e-05
2.58443e-05
1.83463e-05
1.44544e-05
1.2758e-05
1.17706e-05
1.09907e-05
1.02366e-05
9.46851e-06
8.73017e-06
8.04093e-06
7.41136e-06
6.86595e-06
6.40828e-06
6.0328e-06
5.73531e-06
5.51243e-06
5.36115e-06
5.27865e-06
5.26191e-06
5.3074e-06
5.41248e-06
5.57143e-06
5.77331e-06
6.01133e-06
6.27973e-06
6.57237e-06
6.88355e-06
7.20799e-06
7.5405e-06
7.84501e-06
7.83199e-06
6.85675e-06
7.22303e-05
5.70612e-05
3.36028e-05
2.22419e-05
1.52451e-05
9.83665e-06
5.40149e-06
1.71905e-06
0
0
0
0
0
0
0
0
0
0
0
0
0
0
0
0
0
0
0
0
0
0
0
0
0
0
0
0
0
0
0
0
0
0
0
0
0
0
0
0
0
0
0
0
0
0
0
0
0
0
0
0
0
0
0
0
0
0
3.9827e-08
0
0
0
0
0
0
0
0
0
0
0
0
0
0
0
0
0
0
0
0
0
0
0
0
0
0
0
0
0
0
0
0
2.13212e-08
0
0
0
0
0
0
0
0
0
0
0
0
0
0
0
0
0
0
0
0
0
0
0
0
0
0
0
0
0
0
0
0
9.87526e-09
0
0
0
0
0
0
0
0
0
0
0
0
0
0
0
0
0
0
0
0
0
0
0
0
0
0
0
0
0
0
0
0
0
0
0
0
0
0
7.92272e-07
3.72295e-06
7.56382e-06
1.03219e-05
8.26138e-06
7.34242e-06
8.15199e-06
5.41316e-06
3.87329e-06
2.97359e-06
0
0
0
0
0
0
1.01679e-06
1.03149e-05
2.48805e-05
4.98409e-05
9.9127e-05
0.000214329
0
0
0
0
0
0
8.73265e-07
6.89676e-06
7.8027e-06
5.41676e-06
4.11604e-06
2.83396e-06
4.61445e-07
0
0
0
0
0
0
0
3.79135e-05
6.30708e-05
8.84884e-06
0
1.57499e-05
3.10978e-05
2.73298e-05
2.24612e-05
2.43585e-05
2.66127e-05
2.55431e-05
2.25341e-05
1.86643e-05
1.44409e-05
1.02389e-05
6.31145e-06
2.8061e-06
0
0
0
0
0
0
0
2.35487e-06
4.88977e-06
7.30174e-06
9.50793e-06
1.12274e-05
1.18589e-05
1.07158e-05
7.45645e-06
2.33122e-06
0
0
0
0
0
0
0
0
0
0
0
1.42492e-06
3.97224e-06
4.97941e-06
4.10508e-06
5.00362e-06
3.1302e-06
7.23384e-06
3.57985e-06
0
0
0
0
0
0
0
2.01435e-06
6.9056e-06
1.11687e-05
1.04429e-05
1.25617e-05
1.03256e-05
5.33812e-06
2.59608e-06
2.78963e-06
8.27254e-07
0
0
0
0
0
0
8.99558e-06
2.39484e-05
4.84402e-05
9.4304e-05
0.000170945
0
0
0
0
0
0
2.08486e-06
8.82189e-06
8.13643e-06
5.71949e-06
4.92169e-06
3.39339e-06
4.10483e-07
0
0
0
0
0
0
0
0
8.30903e-06
0
7.51154e-06
2.54487e-05
2.92182e-05
2.4286e-05
2.36635e-05
2.81638e-05
3.02801e-05
2.89183e-05
2.55849e-05
2.12882e-05
1.66982e-05
1.22618e-05
8.21433e-06
4.66404e-06
1.69538e-06
0
0
0
0
0
1.82486e-06
4.30776e-06
6.80401e-06
9.17346e-06
1.1296e-05
1.28699e-05
1.33156e-05
1.19812e-05
8.53434e-06
3.21956e-06
0
0
0
0
0
0
0
0
0
0
0
2.61037e-06
5.64527e-06
6.87846e-06
5.91526e-06
6.67098e-06
4.31126e-06
8.05436e-06
4.03374e-06
0
0
0
0
0
0
0
1.37301e-07
5.24486e-06
1.16777e-05
1.55963e-05
1.20187e-05
7.04247e-06
3.19716e-06
6.623e-07
1.61189e-07
2.6357e-07
0
0
0
0
0
0
5.66026e-06
2.00491e-05
4.19378e-05
7.7423e-05
9.29935e-05
0
0
0
0
0
0
4.45352e-06
9.9248e-06
7.71475e-06
6.02365e-06
5.69098e-06
3.7875e-06
2.53188e-07
0
0
0
0
0
0
0
0
0
2.33851e-06
1.5718e-05
2.48618e-05
2.40886e-05
2.16293e-05
2.58187e-05
3.12485e-05
3.28415e-05
3.11319e-05
2.75015e-05
2.29816e-05
1.82905e-05
1.38528e-05
9.86207e-06
6.39894e-06
3.53502e-06
1.37588e-06
4.83978e-08
0
2.57231e-07
1.71862e-06
3.7868e-06
6.13484e-06
8.50905e-06
1.07641e-05
1.27543e-05
1.41698e-05
1.44581e-05
1.3001e-05
9.47539e-06
4.11771e-06
0
0
0
0
0
0
0
0
0
0
0
3.73504e-06
7.12259e-06
8.56256e-06
7.59376e-06
8.28774e-06
5.52805e-06
9.04303e-06
4.42913e-06
0
0
0
0
0
0
0
0
3.25831e-06
1.16584e-05
8.50943e-06
4.9841e-06
2.05566e-06
8.31541e-07
3.13806e-07
0
0
0
0
0
0
0
0
4.03068e-07
1.32619e-05
3.10989e-05
5.27566e-05
3.62301e-05
0
0
0
0
0
0
7.63599e-06
9.96373e-06
7.11538e-06
6.70851e-06
6.49272e-06
4.05079e-06
3.25948e-09
0
0
0
0
0
0
0
0
0
4.54134e-06
1.57816e-05
2.00533e-05
1.89555e-05
2.15572e-05
2.8766e-05
3.37982e-05
3.47508e-05
3.26633e-05
2.88186e-05
2.4236e-05
1.95928e-05
1.52571e-05
1.1388e-05
8.05751e-06
5.33342e-06
3.31125e-06
2.10139e-06
1.7895e-06
2.38317e-06
3.76471e-06
5.69272e-06
7.88349e-06
1.01136e-05
1.22346e-05
1.40844e-05
1.53511e-05
1.55075e-05
1.3964e-05
1.04033e-05
5.05438e-06
0
0
0
0
0
0
0
0
0
0
0
4.72392e-06
8.19523e-06
9.77932e-06
8.93546e-06
9.69103e-06
6.64543e-06
9.99598e-06
4.7423e-06
0
0
0
0
0
0
0
0
1.24044e-06
1.87895e-06
1.72805e-06
1.47417e-06
1.32745e-06
1.09266e-06
2.54104e-07
0
0
0
0
0
0
0
0
0
4.51317e-06
1.66511e-05
2.55374e-05
9.09623e-06
0
0
0
0
0
3.08905e-07
1.02668e-05
8.9649e-06
6.99903e-06
7.84545e-06
7.3081e-06
4.23664e-06
0
0
0
0
0
0
0
0
0
0
4.50795e-06
1.22007e-05
1.44729e-05
1.67565e-05
2.40907e-05
3.18242e-05
3.59515e-05
3.62519e-05
3.3819e-05
2.98661e-05
2.53304e-05
2.08047e-05
1.66021e-05
1.28669e-05
9.67614e-06
7.09954e-06
5.22088e-06
4.12915e-06
3.88405e-06
4.47096e-06
5.76771e-06
7.55611e-06
9.59102e-06
1.16742e-05
1.36594e-05
1.53763e-05
1.65145e-05
1.65673e-05
1.49657e-05
1.13924e-05
6.06618e-06
0
0
0
0
0
0
0
0
0
0
0
5.74627e-06
9.074e-06
1.06318e-05
9.83715e-06
1.05877e-05
7.37733e-06
1.05127e-05
4.77497e-06
0
0
0
0
0
0
0
0
2.49149e-07
5.8979e-07
1.18673e-06
1.81348e-06
1.98768e-06
1.61573e-06
7.51179e-07
0
0
0
0
0
0
0
0
0
0
5.0911e-06
8.5246e-06
2.43686e-06
0
0
0
0
0
6.57639e-06
1.06131e-05
7.58832e-06
7.88839e-06
9.27299e-06
8.09672e-06
4.41844e-06
0
0
0
0
0
0
0
0
0
0
3.07063e-06
7.99652e-06
1.15489e-05
1.85154e-05
2.75195e-05
3.4442e-05
3.7603e-05
3.73181e-05
3.46624e-05
3.07256e-05
2.63163e-05
2.1941e-05
1.78805e-05
1.42829e-05
1.12364e-05
8.81204e-06
7.08064e-06
6.10765e-06
5.92664e-06
6.50392e-06
7.7165e-06
9.36842e-06
1.12477e-05
1.31813e-05
1.50318e-05
1.66277e-05
1.7662e-05
1.76433e-05
1.60145e-05
1.24503e-05
7.15457e-06
8.60533e-07
0
0
0
0
0
0
0
0
0
7.41293e-08
7.16494e-06
1.03494e-05
1.17967e-05
1.0896e-05
1.14868e-05
8.0483e-06
1.07961e-05
4.71291e-06
0
0
0
0
0
0
0
1.93995e-07
7.7992e-07
1.48e-06
2.16691e-06
2.57102e-06
2.46658e-06
1.87908e-06
1.0003e-06
0
0
0
0
0
0
0
0
0
0
1.24454e-06
3.6506e-06
2.09535e-06
0
0
0
0
0
1.05864e-05
8.68221e-06
7.26649e-06
9.69844e-06
1.07844e-05
8.87922e-06
4.68194e-06
0
0
0
0
0
0
0
0
0
0
1.66156e-06
6.25336e-06
1.28989e-05
2.18998e-05
3.05231e-05
3.63539e-05
3.86648e-05
3.7974e-05
3.52595e-05
3.1441e-05
2.72011e-05
2.29872e-05
1.90724e-05
1.56181e-05
1.27232e-05
1.04568e-05
8.87537e-06
8.02114e-06
7.90273e-06
8.4694e-06
9.5984e-06
1.1114e-05
1.28351e-05
1.46152e-05
1.63314e-05
1.78173e-05
1.87708e-05
1.87107e-05
1.70848e-05
1.35545e-05
8.30365e-06
2.05996e-06
0
0
0
0
0
0
0
0
0
2.10472e-06
9.09886e-06
1.22404e-05
1.35026e-05
1.22563e-05
1.24644e-05
8.61559e-06
1.08474e-05
4.42761e-06
0
0
0
0
0
0
0
5.35219e-07
1.41105e-06
2.20662e-06
2.79241e-06
3.00795e-06
2.73256e-06
2.00431e-06
1.0303e-06
0
0
0
0
0
0
0
0
0
7.25237e-09
3.71003e-06
5.62867e-06
2.82452e-06
0
0
0
0
9.02794e-06
9.3865e-06
6.65971e-06
8.9226e-06
1.19345e-05
1.22698e-05
9.73215e-06
5.07904e-06
0
0
0
0
0
0
0
0
0
0
1.20469e-06
7.40747e-06
1.57427e-05
2.48934e-05
3.26306e-05
3.74767e-05
3.91863e-05
3.83153e-05
3.56774e-05
3.20338e-05
2.79766e-05
2.39258e-05
2.01612e-05
1.68585e-05
1.41234e-05
1.20204e-05
1.05909e-05
9.85449e-06
9.79634e-06
1.03503e-05
1.13944e-05
1.27715e-05
1.43299e-05
1.59512e-05
1.75325e-05
1.89188e-05
1.98149e-05
1.97453e-05
1.81558e-05
1.46877e-05
9.49996e-06
3.31609e-06
0
0
0
0
0
0
0
0
0
4.18015e-06
1.1106e-05
1.42239e-05
1.52995e-05
1.37202e-05
1.35393e-05
9.27053e-06
1.09599e-05
4.12552e-06
0
0
0
0
0
0
0
8.73912e-07
1.79187e-06
2.56747e-06
3.0955e-06
3.24053e-06
2.88404e-06
2.0515e-06
9.56072e-07
0
0
0
0
0
0
0
0
0
2.58103e-06
8.621e-06
1.20978e-05
5.8866e-06
0
0
0
7.73582e-06
8.9977e-06
6.05129e-06
7.54701e-06
1.17506e-05
1.42002e-05
1.37539e-05
1.07005e-05
5.58433e-06
0
0
0
0
0
0
0
0
0
0
1.00254e-06
8.98277e-06
1.8093e-05
2.68738e-05
3.37553e-05
3.79068e-05
3.9311e-05
3.84404e-05
3.59549e-05
3.25037e-05
2.86288e-05
2.47425e-05
2.11349e-05
1.79922e-05
1.54237e-05
1.34881e-05
1.2211e-05
1.15901e-05
1.15886e-05
1.21259e-05
1.30812e-05
1.4315e-05
1.57039e-05
1.71589e-05
1.86024e-05
1.98974e-05
2.07586e-05
2.07125e-05
1.91953e-05
1.58225e-05
1.07214e-05
4.61179e-06
0
0
0
0
0
0
0
0
0
5.99211e-06
1.27607e-05
1.58268e-05
1.67354e-05
1.49241e-05
1.43977e-05
9.81355e-06
1.09654e-05
3.66205e-06
0
0
0
0
0
0
2.47644e-07
1.34871e-06
2.38116e-06
3.26376e-06
3.85776e-06
3.95887e-06
3.41848e-06
2.31969e-06
9.59582e-07
0
0
0
0
0
0
0
0
0
0
0
2.26339e-06
0
0
1.15992e-06
6.83078e-06
7.29596e-06
4.86644e-06
6.07808e-06
1.0804e-05
1.47773e-05
1.63723e-05
1.52771e-05
1.17209e-05
6.10857e-06
0
0
0
0
0
0
0
0
0
0
9.53439e-07
1.01326e-05
1.94675e-05
2.77767e-05
3.40665e-05
3.78598e-05
3.91815e-05
3.84096e-05
3.61016e-05
3.28416e-05
2.91464e-05
2.54274e-05
2.19824e-05
1.90054e-05
1.66078e-05
1.48413e-05
1.37154e-05
1.32062e-05
1.32557e-05
1.37703e-05
1.46303e-05
1.57134e-05
1.69233e-05
1.82025e-05
1.9503e-05
2.07128e-05
2.15606e-05
2.15729e-05
2.01691e-05
1.69303e-05
1.1945e-05
5.92551e-06
0
0
0
0
0
0
0
0
0
7.51492e-06
1.40615e-05
1.70276e-05
1.77536e-05
1.57774e-05
1.4911e-05
1.01388e-05
1.06864e-05
3.04257e-06
0
0
0
0
0
0
8.92969e-07
2.42964e-06
3.8063e-06
4.87146e-06
5.42537e-06
5.25303e-06
4.2865e-06
2.74201e-06
9.98433e-07
0
0
0
0
0
0
0
0
0
0
0
0
0
1.52659e-06
4.08643e-06
4.27906e-06
2.92005e-06
4.91647e-06
9.71451e-06
1.44499e-05
1.7622e-05
1.84508e-05
1.67466e-05
1.26514e-05
6.56715e-06
0
0
0
0
0
0
0
0
0
0
9.71277e-07
1.06344e-05
1.99045e-05
2.78792e-05
3.38711e-05
3.7533e-05
3.88833e-05
3.8244e-05
3.61145e-05
3.30404e-05
2.95222e-05
2.59704e-05
2.26893e-05
1.98797e-05
1.76539e-05
1.60557e-05
1.50778e-05
1.46746e-05
1.47674e-05
1.52508e-05
1.60069e-05
1.69298e-05
1.79502e-05
1.90424e-05
2.01926e-05
2.13199e-05
2.21733e-05
2.2279e-05
2.1033e-05
1.79735e-05
1.31407e-05
7.23317e-06
1.17708e-06
0
0
0
0
0
0
0
8.08536e-07
8.91206e-06
1.52669e-05
1.8113e-05
1.86059e-05
1.64308e-05
1.51523e-05
1.02197e-05
1.00332e-05
2.11849e-06
0
0
0
0
0
0
2.03289e-06
4.06573e-06
5.70189e-06
6.73513e-06
6.97977e-06
6.31719e-06
4.83528e-06
2.86859e-06
8.61026e-07
0
0
0
0
0
0
0
0
0
0
0
0
0
9.7649e-07
1.19052e-06
1.54222e-06
4.4985e-06
8.88697e-06
1.37123e-05
1.78124e-05
2.01934e-05
2.0299e-05
1.79722e-05
1.33835e-05
6.94043e-06
0
0
0
0
0
0
0
0
0
0
8.67407e-07
1.06213e-05
1.97717e-05
2.75583e-05
3.34113e-05
3.70355e-05
3.84502e-05
3.79483e-05
3.59916e-05
3.30959e-05
2.97469e-05
2.63551e-05
2.32325e-05
2.0587e-05
1.85309e-05
1.7098e-05
1.6263e-05
1.5958e-05
1.60849e-05
1.65273e-05
1.71699e-05
1.79231e-05
1.87441e-05
1.96391e-05
2.06303e-05
2.16744e-05
2.25476e-05
2.27794e-05
2.17383e-05
1.89096e-05
1.42745e-05
8.50721e-06
2.57325e-06
0
0
0
0
0
0
0
1.49292e-06
1.02687e-05
1.64769e-05
1.91826e-05
1.93914e-05
1.69857e-05
1.52423e-05
1.016e-05
9.13094e-06
9.64482e-07
0
0
0
0
0
8.04137e-07
3.3609e-06
5.55707e-06
7.09727e-06
7.78779e-06
7.52724e-06
6.34975e-06
4.50489e-06
2.42024e-06
5.10988e-07
0
0
0
0
0
0
0
0
0
0
0
0
0
5.65426e-07
1.97757e-06
4.54937e-06
8.30568e-06
1.284e-05
1.72914e-05
2.06854e-05
2.22815e-05
2.16863e-05
1.88366e-05
1.3914e-05
7.26751e-06
0
0
0
0
0
0
0
0
0
0
7.17726e-07
1.03928e-05
1.94032e-05
2.70446e-05
3.28008e-05
3.641e-05
3.78953e-05
3.75271e-05
3.57327e-05
3.29989e-05
2.98001e-05
2.6551e-05
2.35744e-05
2.10855e-05
1.91945e-05
1.79225e-05
1.72239e-05
1.70088e-05
1.716e-05
1.7552e-05
1.80732e-05
1.86507e-05
1.92668e-05
1.99582e-05
2.0783e-05
2.1739e-05
2.26387e-05
2.30224e-05
2.22314e-05
1.96896e-05
1.53059e-05
9.71772e-06
3.92931e-06
0
0
0
0
0
0
0
1.70898e-06
1.15944e-05
1.77091e-05
2.02698e-05
2.0159e-05
1.74969e-05
1.52406e-05
9.9973e-06
8.02885e-06
0
0
0
0
0
0
1.90589e-06
4.51826e-06
6.52063e-06
7.64951e-06
7.79352e-06
6.98861e-06
5.44026e-06
3.53157e-06
1.69741e-06
1.42507e-07
0
0
0
0
0
0
0
0
0
0
0
0
0
1.62641e-06
4.12685e-06
7.55494e-06
1.17693e-05
1.62181e-05
2.01251e-05
2.27671e-05
2.36467e-05
2.25243e-05
1.93721e-05
1.43121e-05
7.596e-06
0
0
0
0
0
0
0
0
0
0
6.15324e-07
1.01174e-05
1.89432e-05
2.64246e-05
3.20822e-05
3.56771e-05
3.72301e-05
3.69837e-05
3.53279e-05
3.27234e-05
2.96403e-05
2.65057e-05
2.36568e-05
2.13151e-05
1.95844e-05
1.84693e-05
1.79019e-05
1.77696e-05
1.7938e-05
1.82741e-05
1.86715e-05
1.90744e-05
1.94893e-05
1.99795e-05
2.06349e-05
2.14949e-05
2.24168e-05
2.29647e-05
2.24603e-05
2.02613e-05
1.61888e-05
1.08272e-05
5.21187e-06
0
0
0
0
0
0
0
1.60245e-06
1.28482e-05
1.89095e-05
2.13086e-05
2.08485e-05
1.79249e-05
1.51285e-05
9.7346e-06
6.75413e-06
0
0
0
0
0
1.23675e-07
2.95397e-06
5.31362e-06
6.8399e-06
7.3655e-06
6.91741e-06
5.69478e-06
4.05711e-06
2.44491e-06
1.10238e-06
0
0
0
0
0
0
0
0
0
0
0
0
0
0
2.58751e-06
6.06605e-06
1.01259e-05
1.44666e-05
1.85721e-05
2.18707e-05
2.38838e-05
2.42895e-05
2.29119e-05
1.96877e-05
1.46482e-05
7.95321e-06
0
0
0
0
0
0
0
0
0
0
5.79481e-07
9.84064e-06
1.84356e-05
2.57316e-05
3.12791e-05
3.48532e-05
3.64607e-05
3.63068e-05
3.4742e-05
3.22106e-05
2.9193e-05
2.61379e-05
2.33986e-05
2.11978e-05
1.96271e-05
1.86693e-05
1.82321e-05
1.81805e-05
1.83651e-05
1.86477e-05
1.89293e-05
1.91714e-05
1.94029e-05
1.97087e-05
2.02011e-05
2.09559e-05
2.18816e-05
2.25841e-05
2.23837e-05
2.05758e-05
1.68778e-05
1.17995e-05
6.3946e-06
1.32235e-06
0
0
0
0
0
0
1.63223e-06
1.40024e-05
2.00619e-05
2.23023e-05
2.14807e-05
1.82971e-05
1.49327e-05
9.38606e-06
5.29952e-06
0
0
0
0
0
1.05008e-06
3.69007e-06
5.59419e-06
6.49339e-06
6.37967e-06
5.45439e-06
4.08917e-06
2.75524e-06
1.74256e-06
7.63121e-07
0
0
0
0
0
0
0
0
0
0
0
0
0
0
3.39128e-06
7.47126e-06
1.17685e-05
1.5972e-05
1.96903e-05
2.25366e-05
2.4189e-05
2.44055e-05
2.30099e-05
1.98802e-05
1.49659e-05
8.35408e-06
3.86881e-07
0
0
0
0
0
0
0
0
0
6.09603e-07
9.5767e-06
1.79006e-05
2.49859e-05
3.04084e-05
3.39447e-05
3.55713e-05
3.5447e-05
3.38923e-05
3.13558e-05
2.83463e-05
2.53408e-05
2.27038e-05
2.06502e-05
1.92499e-05
1.84591e-05
1.81593e-05
1.81953e-05
1.84052e-05
1.86492e-05
1.88371e-05
1.89487e-05
1.90334e-05
1.91902e-05
1.95411e-05
2.01841e-05
2.10793e-05
2.18959e-05
2.19827e-05
2.05915e-05
1.73248e-05
1.25886e-05
7.43637e-06
2.60711e-06
0
0
0
0
0
0
1.89712e-06
1.49924e-05
2.11196e-05
2.31928e-05
2.19966e-05
1.85607e-05
1.46113e-05
8.92221e-06
3.6598e-06
0
0
0
0
0
1.88972e-06
4.15217e-06
5.43129e-06
5.63858e-06
4.97865e-06
3.84873e-06
2.77244e-06
2.10302e-06
1.5092e-06
3.83084e-07
0
0
0
0
0
0
0
0
0
0
0
0
0
0
3.83819e-06
8.11706e-06
1.23911e-05
1.63955e-05
1.98415e-05
2.24517e-05
2.39796e-05
2.42083e-05
2.29415e-05
2.00072e-05
1.52905e-05
8.81315e-06
8.75002e-07
0
0
0
0
0
0
0
0
0
7.0248e-07
9.33124e-06
1.73491e-05
2.41988e-05
2.94721e-05
3.29269e-05
3.44931e-05
3.42894e-05
3.26336e-05
3.00084e-05
2.69655e-05
2.40063e-05
2.14921e-05
1.96146e-05
1.84125e-05
1.78113e-05
1.76678e-05
1.78097e-05
1.80671e-05
1.83013e-05
1.84335e-05
1.84622e-05
1.84552e-05
1.85187e-05
1.87677e-05
1.93002e-05
2.01178e-05
2.09724e-05
2.12831e-05
2.02955e-05
1.75019e-05
1.31677e-05
8.31858e-06
3.76501e-06
0
0
0
0
0
0
2.6892e-06
1.57571e-05
2.20506e-05
2.40058e-05
2.24603e-05
1.87894e-05
1.42369e-05
8.39482e-06
1.85955e-06
0
0
0
0
0
2.30593e-06
4.09611e-06
4.71131e-06
4.34123e-06
3.45129e-06
2.63557e-06
2.28378e-06
2.02505e-06
1.24634e-06
0
0
0
0
0
0
0
0
0
0
0
0
0
0
0
3.97978e-06
8.20618e-06
1.23432e-05
1.61668e-05
1.94475e-05
2.1961e-05
2.34929e-05
2.38334e-05
2.27701e-05
2.0095e-05
1.56373e-05
9.34688e-06
1.4654e-06
0
0
0
0
0
0
0
0
0
8.51323e-07
9.10321e-06
1.67826e-05
2.33631e-05
2.84312e-05
3.17047e-05
3.307e-05
3.26394e-05
3.07721e-05
2.80105e-05
2.49465e-05
2.20842e-05
1.97569e-05
1.81151e-05
1.7159e-05
1.67837e-05
1.68259e-05
1.71019e-05
1.74389e-05
1.77027e-05
1.78277e-05
1.78313e-05
1.77983e-05
1.78365e-05
1.80382e-05
1.84745e-05
1.91644e-05
1.99488e-05
2.03626e-05
1.97035e-05
1.73827e-05
1.34948e-05
8.99274e-06
4.74249e-06
7.93268e-07
0
0
0
0
0
3.53332e-06
1.61717e-05
2.27731e-05
2.4686e-05
2.28332e-05
1.89518e-05
1.37844e-05
7.77563e-06
0
0
0
0
0
1.42855e-07
2.49608e-06
3.71413e-06
3.68139e-06
2.99597e-06
2.39974e-06
2.30536e-06
2.29909e-06
1.81317e-06
6.17709e-07
0
0
0
0
0
0
0
0
0
0
0
0
0
0
2.774e-10
3.97297e-06
8.03157e-06
1.19861e-05
1.56414e-05
1.88007e-05
2.12679e-05
2.28474e-05
2.33366e-05
2.25163e-05
2.01517e-05
1.6016e-05
9.97381e-06
2.18104e-06
0
0
0
0
0
0
0
0
0
1.0486e-06
8.88513e-06
1.61819e-05
2.24208e-05
2.71587e-05
3.00747e-05
3.10542e-05
3.02638e-05
2.81437e-05
2.52959e-05
2.23206e-05
1.9683e-05
1.76567e-05
1.63377e-05
1.56874e-05
1.55785e-05
1.58361e-05
1.62731e-05
1.67188e-05
1.70473e-05
1.72074e-05
1.72351e-05
1.72316e-05
1.73033e-05
1.75122e-05
1.78809e-05
1.84113e-05
1.90147e-05
1.9372e-05
1.89031e-05
1.70008e-05
1.35836e-05
9.47358e-06
5.56486e-06
1.97192e-06
0
0
0
0
0
4.73306e-06
1.62737e-05
2.32012e-05
2.52743e-05
2.32485e-05
1.92101e-05
1.33988e-05
7.16577e-06
0
0
0
0
0
0
2.13173e-06
2.90084e-06
2.49582e-06
2.07549e-06
2.18156e-06
2.34603e-06
2.06388e-06
1.15249e-06
0
0
0
0
0
0
0
0
0
0
0
0
0
0
0
1.49689e-07
3.91747e-06
7.75929e-06
1.15061e-05
1.49855e-05
1.80244e-05
2.04489e-05
2.20818e-05
2.27322e-05
2.21822e-05
2.01767e-05
1.64341e-05
1.07166e-05
3.05572e-06
0
0
0
0
0
0
0
0
0
1.28336e-06
8.64877e-06
1.54711e-05
2.12139e-05
2.54082e-05
2.7748e-05
2.81971e-05
2.70348e-05
2.47866e-05
2.20667e-05
1.94142e-05
1.71997e-05
1.56128e-05
1.46983e-05
1.43955e-05
1.45705e-05
1.50488e-05
1.56472e-05
1.62024e-05
1.65999e-05
1.68036e-05
1.68676e-05
1.69081e-05
1.70331e-05
1.7278e-05
1.76108e-05
1.79851e-05
1.83367e-05
1.84792e-05
1.80079e-05
1.63874e-05
1.3409e-05
9.71986e-06
6.18365e-06
2.95059e-06
0
0
0
0
0
5.68159e-06
1.58551e-05
2.29829e-05
2.54219e-05
2.34406e-05
1.93983e-05
1.29531e-05
6.46184e-06
0
0
0
0
0
0
1.57554e-06
2.12435e-06
1.82802e-06
1.99889e-06
2.20952e-06
2.02691e-06
1.31808e-06
9.90322e-08
0
0
0
0
0
0
0
0
0
0
0
0
0
0
0
3.1467e-07
3.84509e-06
7.44437e-06
1.09638e-05
1.42519e-05
1.71574e-05
1.95287e-05
2.12086e-05
2.20233e-05
2.17635e-05
2.01641e-05
1.6895e-05
1.16023e-05
4.14009e-06
0
0
0
0
0
0
0
0
0
1.53333e-06
8.3147e-06
1.44781e-05
1.94788e-05
2.28893e-05
2.45202e-05
2.44942e-05
2.32136e-05
2.12187e-05
1.90186e-05
1.69889e-05
1.53657e-05
1.42766e-05
1.37614e-05
1.37738e-05
1.41905e-05
1.48428e-05
1.55535e-05
1.61687e-05
1.65864e-05
1.67864e-05
1.68399e-05
1.68786e-05
1.70187e-05
1.7284e-05
1.76007e-05
1.78622e-05
1.7978e-05
1.78356e-05
1.71989e-05
1.56802e-05
1.30489e-05
9.80184e-06
6.69691e-06
3.85605e-06
1.20356e-06
0
0
0
1.25105e-06
6.85978e-06
1.4922e-05
2.12737e-05
2.40064e-05
2.24681e-05
1.88957e-05
1.20819e-05
5.46293e-06
0
0
0
0
0
0
1.01457e-06
1.9096e-06
1.89638e-06
1.955e-06
1.73027e-06
1.1249e-06
1.48297e-07
0
0
0
0
0
0
0
0
0
0
0
0
0
0
0
0
4.95001e-07
3.76839e-06
7.10794e-06
1.03838e-05
1.34649e-05
1.62218e-05
1.85247e-05
2.02388e-05
2.12118e-05
2.12525e-05
2.01005e-05
1.73943e-05
1.2661e-05
5.51184e-06
0
0
0
0
0
0
0
0
0
1.75039e-06
7.73611e-06
1.29746e-05
1.69992e-05
1.95495e-05
2.06558e-05
2.06124e-05
1.98313e-05
1.8663e-05
1.7329e-05
1.59953e-05
1.48519e-05
1.40882e-05
1.38167e-05
1.40265e-05
1.4595e-05
1.53423e-05
1.60867e-05
1.66801e-05
1.70336e-05
1.71435e-05
1.70979e-05
1.70455e-05
1.71182e-05
1.73473e-05
1.76396e-05
1.78373e-05
1.7795e-05
1.7403e-05
1.65205e-05
1.4913e-05
1.24565e-05
9.63537e-06
7.03818e-06
4.6418e-06
2.39168e-06
5.67111e-07
0
4.77238e-07
3.1361e-06
7.53427e-06
1.29597e-05
1.71808e-05
1.93589e-05
1.83206e-05
1.5809e-05
9.39189e-06
3.29565e-06
0
0
2.16134e-07
0
0
0
2.85246e-06
2.55804e-06
1.8128e-06
1.29568e-06
6.77318e-07
0
0
0
0
0
0
0
0
0
0
0
0
0
0
0
0
0
0
6.8001e-07
3.68514e-06
6.75428e-06
9.77542e-06
1.26371e-05
1.52305e-05
1.74478e-05
1.91776e-05
2.02934e-05
2.06322e-05
1.99574e-05
1.79066e-05
1.39134e-05
7.28395e-06
0
0
0
0
0
0
0
0
0
1.853e-06
6.77805e-06
1.09096e-05
1.40107e-05
1.61056e-05
1.74291e-05
1.82333e-05
1.8595e-05
1.84251e-05
1.76847e-05
1.65645e-05
1.54419e-05
1.46795e-05
1.4464e-05
1.47748e-05
1.54421e-05
1.62422e-05
1.69724e-05
1.74848e-05
1.77037e-05
1.76452e-05
1.74169e-05
1.71854e-05
1.71044e-05
1.72276e-05
1.74672e-05
1.76369e-05
1.75399e-05
1.70289e-05
1.5967e-05
1.41813e-05
1.17044e-05
9.24919e-06
7.24661e-06
5.41246e-06
3.65673e-06
2.27889e-06
1.77781e-06
2.54883e-06
4.62775e-06
7.43858e-06
1.01853e-05
1.1944e-05
1.28653e-05
1.18259e-05
1.014e-05
4.62071e-06
0
0
0
1.27661e-06
0
0
0
2.27086e-06
2.17284e-06
1.03171e-06
1.84306e-07
0
0
0
0
0
0
0
0
0
0
0
0
0
0
0
0
0
0
0
8.76374e-07
3.60751e-06
6.40006e-06
9.15877e-06
1.17904e-05
1.42056e-05
1.63174e-05
1.80384e-05
1.92704e-05
1.98872e-05
1.96973e-05
1.83805e-05
1.53529e-05
9.61372e-06
8.56352e-08
0
0
0
0
0
0
0
0
1.77926e-06
5.58027e-06
8.88556e-06
1.17755e-05
1.44224e-05
1.6867e-05
1.88815e-05
2.00712e-05
2.01389e-05
1.91453e-05
1.75649e-05
1.60537e-05
1.51087e-05
1.49028e-05
1.53292e-05
1.61253e-05
1.70019e-05
1.77286e-05
1.81575e-05
1.8227e-05
1.7974e-05
1.75262e-05
1.70676e-05
1.67738e-05
1.67286e-05
1.68682e-05
1.70018e-05
1.68989e-05
1.63642e-05
1.52054e-05
1.31979e-05
1.05274e-05
8.37125e-06
6.999e-06
5.82278e-06
4.65768e-06
3.74658e-06
3.47966e-06
4.07957e-06
5.43803e-06
7.00429e-06
8.25058e-06
8.66786e-06
8.60393e-06
7.1624e-06
5.55543e-06
5.64976e-07
0
0
0
2.07158e-06
0
0
0
3.90328e-07
4.79387e-07
0
0
0
0
0
0
0
0
0
0
0
0
0
0
0
0
0
0
0
0
0
1.06264e-06
3.5189e-06
6.03351e-06
8.52653e-06
1.09212e-05
1.31455e-05
1.51322e-05
1.6816e-05
1.81279e-05
1.89822e-05
1.9251e-05
1.86992e-05
1.68679e-05
1.2623e-05
3.60161e-06
0
0
0
0
0
0
0
0
1.66857e-06
4.92677e-06
8.3694e-06
1.20265e-05
1.57204e-05
1.90494e-05
2.14791e-05
2.25163e-05
2.19423e-05
2.00567e-05
1.76683e-05
1.56791e-05
1.46155e-05
1.45279e-05
1.51652e-05
1.6158e-05
1.7159e-05
1.79204e-05
1.83003e-05
1.82518e-05
1.78309e-05
1.71841e-05
1.65077e-05
1.59907e-05
1.57449e-05
1.57434e-05
1.58178e-05
1.57361e-05
1.52845e-05
1.41965e-05
1.20059e-05
9.01797e-06
7.24748e-06
6.5692e-06
6.17632e-06
5.78042e-06
5.47767e-06
5.50034e-06
5.94937e-06
6.72013e-06
7.46582e-06
7.94327e-06
7.76245e-06
7.17397e-06
5.36982e-06
3.53384e-06
0
0
0
0
3.40049e-06
1.00308e-06
3.95936e-07
4.37252e-07
4.73487e-07
1.42999e-07
0
0
0
0
0
0
0
0
0
0
0
0
0
0
0
0
0
0
0
0
0
1.26349e-06
3.44707e-06
5.68542e-06
7.91213e-06
1.00649e-05
1.20872e-05
1.39282e-05
1.55427e-05
1.68879e-05
1.79167e-05
1.85708e-05
1.87224e-05
1.81905e-05
1.61375e-05
9.27048e-06
0
0
0
0
0
0
0
0
1.93909e-06
5.58464e-06
9.73639e-06
1.40932e-05
1.82172e-05
2.15902e-05
2.3662e-05
2.39644e-05
2.23564e-05
1.93805e-05
1.62129e-05
1.39448e-05
1.29951e-05
1.31877e-05
1.41112e-05
1.53237e-05
1.6463e-05
1.72902e-05
1.76695e-05
1.75644e-05
1.70459e-05
1.62696e-05
1.54302e-05
1.4715e-05
1.4252e-05
1.40544e-05
1.39957e-05
1.38787e-05
1.3547e-05
1.2805e-05
1.09753e-05
7.22108e-06
5.43236e-06
5.30683e-06
5.58673e-06
5.88546e-06
6.11236e-06
6.31035e-06
6.49509e-06
6.65577e-06
6.72515e-06
6.75553e-06
6.49011e-06
6.02984e-06
4.61425e-06
3.10306e-06
0
0
0
0
4.03346e-06
1.62427e-06
8.63442e-07
5.81006e-07
3.02938e-07
0
0
0
0
0
0
0
0
0
0
0
0
0
0
0
0
0
0
0
0
0
0
1.42013e-06
3.33755e-06
5.30548e-06
7.26943e-06
9.17962e-06
1.09922e-05
1.26701e-05
1.41837e-05
1.55103e-05
1.66329e-05
1.75478e-05
1.82227e-05
1.8747e-05
1.8882e-05
1.60046e-05
0
0
0
0
0
0
0
0
2.56349e-06
6.74482e-06
1.12907e-05
1.57712e-05
1.97291e-05
2.26926e-05
2.41486e-05
2.36232e-05
2.09834e-05
1.70153e-05
1.33234e-05