/*--------------------------------*- C++ -*----------------------------------*\
  =========                 |
  \\      /  F ield         | OpenFOAM: The Open Source CFD Toolbox
   \\    /   O peration     | Website:  https://openfoam.org
    \\  /    A nd           | Version:  10
     \\/     M anipulation  |
\*---------------------------------------------------------------------------*/
FoamFile
{
    format      ascii;
    class       volScalarField;
    location    "0.12";
    object      p;
}
// * * * * * * * * * * * * * * * * * * * * * * * * * * * * * * * * * * * * * //

dimensions      [0 2 -2 0 0 0 0];

internalField   nonuniform List<scalar> 
6820
(
-10.5106
-10.8129
-10.8585
-10.8736
-10.9047
-10.9282
-10.9443
-10.9576
-10.9684
-10.9765
-10.9821
-10.9855
-10.9865
-10.9851
-10.9811
-10.9744
-10.9645
-10.9513
-10.9343
-10.913
-10.887
-10.8555
-10.8179
-10.7734
-10.7212
-10.6602
-10.5897
-10.5089
-10.4173
-10.3151
-10.2048
-10.0818
-9.99113
-10.7121
-10.837
-10.8732
-10.8882
-10.9135
-10.934
-10.9487
-10.9611
-10.9713
-10.9792
-10.9848
-10.9883
-10.9896
-10.9885
-10.9851
-10.9789
-10.9699
-10.9576
-10.9418
-10.922
-10.8978
-10.8685
-10.8335
-10.7922
-10.7439
-10.6877
-10.6229
-10.5489
-10.4654
-10.3733
-10.2726
-10.1739
-10.0734
-10.7121
-10.7974
-10.8555
-10.8817
-10.9092
-10.9325
-10.9496
-10.9635
-10.975
-10.984
-10.9905
-10.9949
-10.9971
-10.9971
-10.9947
-10.9899
-10.9824
-10.9721
-10.9588
-10.942
-10.9216
-10.8972
-10.8686
-10.8353
-10.7973
-10.7544
-10.7069
-10.6553
-10.6011
-10.5466
-10.4979
-10.4619
-10.4679
-10.7692
-10.8389
-10.8866
-10.9064
-10.9275
-10.9468
-10.9613
-10.9732
-10.9831
-10.991
-10.9968
-11.0007
-11.0027
-11.0026
-11.0004
-10.996
-10.9892
-10.9798
-10.9677
-10.9526
-10.9344
-10.9129
-10.888
-10.8596
-10.8278
-10.7931
-10.7561
-10.7184
-10.6824
-10.6518
-10.6341
-10.6379
-10.6876
-10.7995
-10.8382
-10.877
-10.8996
-10.922
-10.9426
-10.9588
-10.9722
-10.9834
-10.9925
-10.9994
-11.0044
-11.0075
-11.0085
-11.0076
-11.0046
-10.9993
-10.9919
-10.982
-10.9696
-10.9547
-10.9372
-10.9173
-10.895
-10.8709
-10.8457
-10.8206
-10.7975
-10.7796
-10.771
-10.7794
-10.8126
-10.8906
-10.8297
-10.8604
-10.8975
-10.9206
-10.9404
-10.9586
-10.9731
-10.9851
-10.9952
-11.0033
-11.0097
-11.0143
-11.0171
-11.0183
-11.0177
-11.0152
-11.0108
-11.0045
-10.9963
-10.986
-10.9739
-10.9598
-10.9442
-10.9274
-10.91
-10.8931
-10.8783
-10.8678
-10.8648
-10.874
-10.9023
-10.957
-11.0532
-10.8552
-10.8751
-10.9035
-10.9233
-10.941
-10.9582
-10.9728
-10.9851
-10.9958
-11.0047
-11.0119
-11.0174
-11.0214
-11.0237
-11.0244
-11.0235
-11.0209
-11.0167
-11.0109
-11.0035
-10.9948
-10.9849
-10.9742
-10.9634
-10.9533
-10.9451
-10.9405
-10.942
-10.953
-10.9776
-11.0222
-11.0928
-11.2006
-10.878
-10.8925
-10.9174
-10.9374
-10.9548
-10.9713
-10.9855
-10.9974
-11.0076
-11.0163
-11.0233
-11.0288
-11.0329
-11.0356
-11.0369
-11.0368
-11.0353
-11.0325
-11.0286
-11.0236
-11.0178
-11.0115
-11.0052
-10.9997
-10.9959
-10.9952
-10.9993
-11.0108
-11.0328
-11.0692
-11.1253
-11.206
-11.3197
-10.8986
-10.9091
-10.9291
-10.9464
-10.9616
-10.9764
-10.9895
-11.0011
-11.0112
-11.0201
-11.0275
-11.0337
-11.0386
-11.0423
-11.0449
-11.0462
-11.0465
-11.0458
-11.0442
-11.0421
-11.0397
-11.0373
-11.0357
-11.0356
-11.0381
-11.0445
-11.0567
-11.077
-11.1082
-11.1538
-11.2181
-11.3049
-11.4202
-10.9177
-10.9255
-10.9422
-10.9582
-10.9729
-10.9871
-11.0002
-11.0117
-11.0219
-11.0308
-11.0386
-11.0451
-11.0505
-11.0549
-11.0582
-11.0607
-11.0623
-11.0633
-11.0638
-11.0641
-11.0646
-11.0657
-11.0682
-11.0727
-11.0805
-11.0929
-11.1116
-11.1387
-11.1767
-11.2285
-11.2974
-11.3863
-11.4995
-10.9354
-10.9414
-10.9552
-10.9694
-10.9826
-10.9955
-11.0076
-11.0185
-11.0284
-11.0374
-11.0453
-11.0523
-11.0584
-11.0637
-11.0681
-11.0719
-11.0752
-11.0781
-11.0808
-11.0838
-11.0873
-11.092
-11.0984
-11.1074
-11.1201
-11.1378
-11.162
-11.1946
-11.2377
-11.2936
-11.3647
-11.4532
-11.5617
-10.9521
-10.9569
-10.9684
-10.9811
-10.9935
-11.0057
-11.0175
-11.0284
-11.0385
-11.0477
-11.056
-11.0635
-11.0703
-11.0764
-11.0819
-11.0869
-11.0917
-11.0963
-11.1011
-11.1064
-11.1127
-11.1204
-11.1302
-11.143
-11.1597
-11.1816
-11.21
-11.2464
-11.2926
-11.3502
-11.4212
-11.5068
-11.6087
-10.968
-10.9719
-10.9816
-10.993
-11.0042
-11.0156
-11.0267
-11.0372
-11.0471
-11.0562
-11.0648
-11.0727
-11.0801
-11.087
-11.0935
-11.0998
-11.106
-11.1124
-11.1192
-11.1268
-11.1356
-11.1462
-11.1592
-11.1753
-11.1955
-11.2208
-11.2524
-11.2915
-11.3394
-11.3974
-11.4667
-11.548
-11.6422
-10.9833
-10.9865
-10.9948
-11.0049
-11.0154
-11.0262
-11.0369
-11.0472
-11.0572
-11.0666
-11.0755
-11.084
-11.0921
-11.0999
-11.1075
-11.115
-11.1227
-11.1307
-11.1394
-11.1491
-11.1602
-11.1733
-11.1889
-11.2078
-11.2306
-11.2584
-11.292
-11.3325
-11.3807
-11.4376
-11.5039
-11.5798
-11.6656
-10.9979
-11.0006
-11.0079
-11.017
-11.0267
-11.0368
-11.0471
-11.0572
-11.067
-11.0765
-11.0857
-11.0946
-11.1033
-11.1118
-11.1204
-11.129
-11.138
-11.1476
-11.158
-11.1695
-11.1827
-11.1979
-11.2158
-11.2368
-11.2618
-11.2913
-11.3262
-11.3671
-11.4148
-11.4697
-11.5322
-11.6021
-11.6794
-11.0121
-11.0144
-11.0208
-11.0291
-11.0381
-11.0477
-11.0577
-11.0676
-11.0775
-11.0872
-11.0968
-11.1062
-11.1156
-11.125
-11.1345
-11.1443
-11.1546
-11.1656
-11.1776
-11.1908
-11.2058
-11.2228
-11.2425
-11.2652
-11.2916
-11.3221
-11.3575
-11.398
-11.4443
-11.4964
-11.5546
-11.6183
-11.6872
-11.0258
-11.0279
-11.0336
-11.0411
-11.0496
-11.0588
-11.0684
-11.0782
-11.0881
-11.0979
-11.1078
-11.1177
-11.1276
-11.1377
-11.1481
-11.1589
-11.1703
-11.1826
-11.1959
-11.2106
-11.227
-11.2455
-11.2666
-11.2905
-11.3177
-11.3488
-11.384
-11.4236
-11.468
-11.517
-11.5705
-11.6282
-11.6893
-11.0391
-11.041
-11.0462
-11.0532
-11.0611
-11.0699
-11.0793
-11.089
-11.0989
-11.109
-11.1192
-11.1296
-11.1401
-11.151
-11.1622
-11.174
-11.1865
-11.1999
-11.2144
-11.2304
-11.2481
-11.2678
-11.2898
-11.3145
-11.3422
-11.3732
-11.4078
-11.4461
-11.4881
-11.5337
-11.5827
-11.6345
-11.6884
-11.0521
-11.0538
-11.0585
-11.0651
-11.0727
-11.0812
-11.0903
-11.1
-11.1099
-11.1202
-11.1307
-11.1415
-11.1526
-11.164
-11.176
-11.1886
-11.202
-11.2164
-11.232
-11.2489
-11.2676
-11.2881
-11.3108
-11.3359
-11.3637
-11.3943
-11.4278
-11.4644
-11.5039
-11.5461
-11.5907
-11.6371
-11.6847
-11.0647
-11.0663
-11.0707
-11.0768
-11.0841
-11.0924
-11.1014
-11.111
-11.1211
-11.1315
-11.1423
-11.1535
-11.1651
-11.1772
-11.1899
-11.2033
-11.2175
-11.2328
-11.2492
-11.267
-11.2863
-11.3074
-11.3305
-11.3557
-11.3833
-11.4132
-11.4455
-11.4802
-11.5172
-11.5561
-11.5966
-11.6381
-11.68
-11.0769
-11.0784
-11.0826
-11.0884
-11.0955
-11.1036
-11.1125
-11.1221
-11.1322
-11.1428
-11.1539
-11.1655
-11.1776
-11.1903
-11.2035
-11.2176
-11.2325
-11.2484
-11.2655
-11.2839
-11.3037
-11.3252
-11.3484
-11.3735
-11.4005
-11.4295
-11.4605
-11.4933
-11.5277
-11.5635
-11.6002
-11.6374
-11.6745
-11.0887
-11.0902
-11.0942
-11.0998
-11.1067
-11.1146
-11.1235
-11.1331
-11.1433
-11.1542
-11.1655
-11.1775
-11.19
-11.2031
-11.2169
-11.2315
-11.247
-11.2635
-11.2811
-11.2999
-11.3201
-11.3417
-11.3649
-11.3896
-11.416
-11.444
-11.4735
-11.5043
-11.5364
-11.5693
-11.6027
-11.6361
-11.6691
-11.1002
-11.1016
-11.1054
-11.1109
-11.1177
-11.1255
-11.1344
-11.144
-11.1544
-11.1654
-11.177
-11.1893
-11.2022
-11.2158
-11.2301
-11.2451
-11.2611
-11.278
-11.296
-11.3151
-11.3354
-11.357
-11.3799
-11.4042
-11.4298
-11.4567
-11.4847
-11.5138
-11.5436
-11.5739
-11.6044
-11.6346
-11.6642
-11.1112
-11.1126
-11.1164
-11.1218
-11.1284
-11.1362
-11.145
-11.1548
-11.1652
-11.1764
-11.1883
-11.2009
-11.2141
-11.228
-11.2427
-11.2581
-11.2744
-11.2917
-11.3099
-11.3291
-11.3494
-11.3709
-11.3935
-11.4172
-11.4419
-11.4677
-11.4943
-11.5216
-11.5494
-11.5775
-11.6054
-11.633
-11.6598
-11.1218
-11.1232
-11.1269
-11.1322
-11.1388
-11.1466
-11.1555
-11.1653
-11.1759
-11.1873
-11.1995
-11.2123
-11.2258
-11.2401
-11.2551
-11.2708
-11.2874
-11.3049
-11.3232
-11.3425
-11.3628
-11.384
-11.4061
-11.4292
-11.4531
-11.4778
-11.5031
-11.5288
-11.5548
-11.5808
-11.6066
-11.6319
-11.6565
-11.1319
-11.1333
-11.1369
-11.1423
-11.1489
-11.1567
-11.1656
-11.1755
-11.1862
-11.1978
-11.2101
-11.2231
-11.2369
-11.2514
-11.2666
-11.2826
-11.2993
-11.3169
-11.3353
-11.3545
-11.3746
-11.3955
-11.4171
-11.4395
-11.4626
-11.4862
-11.5103
-11.5346
-11.559
-11.5833
-11.6073
-11.6309
-11.6536
-11.1415
-11.1428
-11.1465
-11.1518
-11.1585
-11.1664
-11.1754
-11.1854
-11.1964
-11.2081
-11.2207
-11.2339
-11.248
-11.2627
-11.2781
-11.2943
-11.3112
-11.3288
-11.3472
-11.3663
-11.3862
-11.4067
-11.4278
-11.4496
-11.4718
-11.4944
-11.5174
-11.5404
-11.5634
-11.5863
-11.6088
-11.6308
-11.6521
-11.1504
-11.1517
-11.1555
-11.1608
-11.1675
-11.1755
-11.1846
-11.1947
-11.2057
-11.2176
-11.2302
-11.2437
-11.2578
-11.2727
-11.2882
-11.3045
-11.3214
-11.3391
-11.3573
-11.3763
-11.3958
-11.416
-11.4366
-11.4577
-11.4792
-11.5009
-11.5229
-11.5448
-11.5667
-11.5884
-11.6096
-11.6304
-11.6506
-11.1586
-11.16
-11.1638
-11.1693
-11.1762
-11.1843
-11.1936
-11.204
-11.2152
-11.2273
-11.2402
-11.2538
-11.2682
-11.2832
-11.2989
-11.3153
-11.3322
-11.3498
-11.368
-11.3867
-11.4059
-11.4256
-11.4458
-11.4662
-11.487
-11.5079
-11.5289
-11.5499
-11.5707
-11.5913
-11.6115
-11.6313
-11.6505
-11.1661
-11.1674
-11.1713
-11.1769
-11.1838
-11.1919
-11.2013
-11.2117
-11.2231
-11.2353
-11.2482
-11.262
-11.2764
-11.2915
-11.3073
-11.3236
-11.3406
-11.3581
-11.3761
-11.3946
-11.4136
-11.433
-11.4526
-11.4726
-11.4927
-11.5129
-11.5332
-11.5534
-11.5734
-11.5931
-11.6126
-11.6316
-11.6501
-11.1726
-11.1741
-11.1782
-11.1841
-11.1914
-11.1999
-11.2097
-11.2204
-11.232
-11.2445
-11.2577
-11.2716
-11.2862
-11.3014
-11.3172
-11.3335
-11.3504
-11.3678
-11.3856
-11.4038
-11.4224
-11.4413
-11.4605
-11.4798
-11.4993
-11.5188
-11.5383
-11.5577
-11.5769
-11.5959
-11.6146
-11.6329
-11.6507
-11.178
-11.1795
-11.1836
-11.1895
-11.1967
-11.2053
-11.2151
-11.2259
-11.2377
-11.2502
-11.2636
-11.2776
-11.2923
-11.3076
-11.3235
-11.3399
-11.3568
-11.3741
-11.3918
-11.4099
-11.4283
-11.4469
-11.4658
-11.4847
-11.5038
-11.5228
-11.5418
-11.5607
-11.5794
-11.5978
-11.6159
-11.6337
-11.6511
-11.1825
-11.1844
-11.1892
-11.1959
-11.2038
-11.2129
-11.2232
-11.2344
-11.2464
-11.2592
-11.2727
-11.2868
-11.3015
-11.3168
-11.3325
-11.3488
-11.3655
-11.3826
-11.4
-11.4177
-11.4357
-11.4539
-11.4722
-11.4907
-11.5091
-11.5275
-11.5459
-11.5641
-11.5821
-11.6
-11.6175
-11.6347
-11.6516
-11.1849
-11.1863
-11.1909
-11.1974
-11.2054
-11.2147
-11.2252
-11.2367
-11.249
-11.2621
-11.2759
-11.2903
-11.3053
-11.3208
-11.3368
-11.3532
-11.37
-11.3872
-11.4046
-11.4223
-11.4403
-11.4583
-11.4765
-11.4947
-11.5129
-11.5311
-11.5491
-11.567
-11.5847
-11.6022
-11.6194
-11.6362
-11.6528
-11.1873
-11.1903
-11.1966
-11.2045
-11.213
-11.2228
-11.2337
-11.2454
-11.2578
-11.2709
-11.2845
-11.2988
-11.3136
-11.3288
-11.3446
-11.3607
-11.3771
-11.3939
-11.411
-11.4283
-11.4457
-11.4633
-11.481
-11.4987
-11.5163
-11.5339
-11.5514
-11.5688
-11.586
-11.603
-11.6197
-11.6362
-11.6524
-11.1836
-11.185
-11.1909
-11.1991
-11.2089
-11.2197
-11.2313
-11.2437
-11.257
-11.271
-11.2853
-11.3001
-11.3154
-11.3312
-11.3473
-11.3638
-11.3806
-11.3976
-11.4149
-11.4324
-11.4499
-11.4676
-11.4852
-11.5029
-11.5205
-11.538
-11.5554
-11.5725
-11.5895
-11.6062
-11.6227
-11.6389
-11.6547
-11.1851
-11.1911
-11.2002
-11.2093
-11.219
-11.2297
-11.241
-11.253
-11.2655
-11.2785
-11.2923
-11.3067
-11.3215
-11.3368
-11.3524
-11.3684
-11.3847
-11.4013
-11.4181
-11.4351
-11.4521
-11.4693
-11.4865
-11.5037
-11.5208
-11.5379
-11.5548
-11.5716
-11.5882
-11.6046
-11.6208
-11.6368
-11.6525
-11.1653
-11.17
-11.1825
-11.1947
-11.2071
-11.2205
-11.2341
-11.248
-11.2623
-11.277
-11.2921
-11.3075
-11.3232
-11.3392
-11.3555
-11.3721
-11.3889
-11.4059
-11.4231
-11.4403
-11.4577
-11.4751
-11.4922
-11.5095
-11.5267
-11.5438
-11.5606
-11.5773
-11.5938
-11.6099
-11.6258
-11.6414
-11.6567
-11.1784
-11.1886
-11.1998
-11.209
-11.2196
-11.2309
-11.2426
-11.2548
-11.2677
-11.2811
-11.2951
-11.3095
-11.3244
-11.3397
-11.3554
-11.3714
-11.3877
-11.4042
-11.4208
-11.4376
-11.4545
-11.4714
-11.4886
-11.5056
-11.5224
-11.5392
-11.5559
-11.5724
-11.5888
-11.6049
-11.6209
-11.6367
-11.6522
-11.0803
-11.1477
-11.174
-11.1881
-11.2058
-11.2226
-11.2377
-11.2526
-11.2677
-11.2828
-11.2981
-11.3137
-11.3295
-11.3456
-11.3619
-11.3785
-11.3953
-11.4122
-11.4292
-11.4463
-11.4634
-11.4806
-11.4977
-11.5147
-11.5317
-11.5484
-11.565
-11.5813
-11.5974
-11.6132
-11.6286
-11.6437
-11.6585
-9.79574
-10.4996
-10.8854
-11.2848
-12.323
-14.7653
-19.4184
-25.9373
-31.7072
-32.706
-26.8147
-16.4473
-6.91555
-0.924429
2.03709
2.53758
1.29936
-1.4458
-5.37266
-10.2973
-16.0164
-22.2316
-28.6735
-35.0978
-41.1792
-46.4193
-50.2009
-51.9617
-51.4239
-48.6085
-43.978
-38.2615
-32.2852
-26.5062
-20.8396
-15.1728
-9.8204
-5.28966
-1.83301
0.572167
1.98349
2.3196
1.33682
-1.68354
-7.577
-16.1468
-25.8495
-34.7999
-41.6773
-45.7474
-46.7654
-44.7499
-40.1972
-34.0039
-27.2917
-21.0008
-15.6453
-11.3547
-8.04435
-5.55843
-3.73534
-2.42804
-1.51235
-0.888712
-0.478981
-0.222199
-0.0707888
0.0119358
0.0529647
0.0708073
0.0770015
0.0779502
0.0767142
0.0744664
0.0715008
0.0678479
0.0634415
0.0583479
0.0528265
0.0472032
0.0420591
0.0380535
0.0355201
0.0341995
0.0333786
0.0323976
0.0310067
0.0292916
0.0273907
0.0253414
0.0231908
0.0207552
0.0182735
0.015265
0.0128911
0.00915181
0.00845721
0.00239634
0.00769832
-0.00859754
-10.1359
-10.6883
-10.9991
-11.3589
-12.4153
-14.8983
-19.2808
-25.0302
-29.5589
-29.5536
-23.7961
-14.9255
-7.03127
-1.97184
0.719437
1.43386
0.399851
-2.00834
-5.59601
-10.1661
-15.5271
-21.4076
-27.5231
-33.606
-39.3258
-44.2187
-47.7362
-49.3774
-48.8992
-46.3133
-42.0431
-36.7783
-31.2339
-25.7456
-20.2547
-14.7745
-9.68316
-5.42238
-2.17197
0.0960225
1.41557
1.69767
0.719713
-2.05884
-7.30022
-14.8924
-23.6003
-31.7882
-38.1924
-42.0478
-43.0927
-41.3483
-37.3173
-31.8461
-25.8955
-20.2404
-15.3283
-11.3115
-8.15763
-5.75339
-3.96512
-2.66435
-1.73921
-1.09779
-0.66649
-0.386965
-0.213258
-0.109778
-0.0500708
-0.0158323
0.00451671
0.0175689
0.0266061
0.0330503
0.0374338
0.0399679
0.0407528
0.0399927
0.0380509
0.035352
0.032534
0.0302844
0.0290049
0.0285949
0.0284961
0.0281676
0.0274
0.0262669
0.0248956
0.0233235
0.0216002
0.0195547
0.0174183
0.0147254
0.0125898
0.00909078
0.00845767
0.00263225
0.00764818
-0.00805403
-10.539
-10.9111
-11.3037
-11.8633
-13.0303
-15.2858
-18.8936
-23.1822
-26.015
-25.2957
-20.4615
-13.501
-7.18922
-2.90279
-0.532052
0.255915
-0.551222
-2.7
-5.9613
-10.1658
-15.1279
-20.622
-26.369
-32.0804
-37.4235
-41.9652
-45.2174
-46.736
-46.3127
-43.9564
-40.0634
-35.2665
-30.1441
-24.9326
-19.6308
-14.3802
-9.5872
-5.60921
-2.5662
-0.434851
0.793866
1.0267
0.06419
-2.50433
-7.17335
-13.865
-21.5926
-28.9753
-34.8492
-38.4573
-39.5316
-38.0863
-34.6076
-29.8464
-24.6022
-19.5224
-15.0156
-11.2584
-8.25937
-5.93945
-4.18947
-2.89839
-1.96623
-1.3087
-0.856822
-0.555077
-0.359252
-0.234888
-0.156223
-0.105226
-0.0703241
-0.0447967
-0.0251461
-0.00970328
0.00227312
0.0111739
0.017269
0.0209143
0.0226063
0.0229021
0.022526
0.0222006
0.0223595
0.0229907
0.023684
0.0240253
0.0238613
0.0232663
0.02236
0.0211815
0.0197895
0.0180365
0.0161578
0.0137149
0.0117771
0.00851047
0.00795794
0.0024273
0.00722685
-0.00771519
-10.8052
-11.1557
-11.6149
-12.2374
-13.3098
-15.1281
-17.7499
-20.5903
-22.445
-21.6672
-17.9247
-12.5268
-7.41834
-3.72984
-1.63602
-0.889999
-1.53649
-3.45754
-6.42963
-10.2798
-14.8333
-19.8977
-25.2309
-30.5415
-35.4954
-39.6854
-42.6742
-44.0731
-43.7019
-41.5797
-38.0809
-33.7499
-29.017
-24.0636
-18.9757
-14.0048
-9.53872
-5.84602
-3.00683
-1.01126
0.127328
0.314957
-0.624849
-3.00753
-7.17913
-13.0612
-19.861
-26.4332
-31.7503
-35.0923
-36.1937
-35.0642
-32.1312
-28.0259
-23.4085
-18.8389
-14.7034
-11.1946
-8.34946
-6.11628
-4.40784
-3.12955
-2.19289
-1.52099
-1.04965
-0.726296
-0.508604
-0.363328
-0.265461
-0.197354
-0.147518
-0.109133
-0.078496
-0.0537275
-0.0338809
-0.0183809
-0.00678207
0.00142558
0.00686813
0.0102209
0.0122859
0.0138378
0.015382
0.0170389
0.0185482
0.0196035
0.0200963
0.020101
0.019733
0.0190342
0.0180676
0.0167002
0.0151591
0.0130295
0.0113309
0.00831959
0.00783879
0.00258055
0.00710049
-0.00717996
-11.0367
-11.3613
-11.8168
-12.4385
-13.4047
-14.8743
-16.8258
-18.8429
-19.9927
-19.1685
-16.1534
-11.8591
-7.68119
-4.52763
-2.66635
-1.9958
-2.52889
-4.23884
-6.94878
-10.4754
-14.6435
-19.2693
-24.1491
-29.0231
-33.5695
-37.406
-40.1365
-41.4167
-41.0993
-39.2272
-36.1336
-32.2377
-27.8469
-23.1394
-18.305
-13.662
-9.53828
-6.12634
-3.48616
-1.62587
-0.576735
-0.430117
-1.33772
-3.54692
-7.28797
-12.4636
-18.4241
-24.2252
-28.9853
-32.0565
-33.1809
-32.3502
-29.9101
-26.376
-22.3017
-18.1854
-14.3927
-11.1218
-8.42863
-6.28387
-4.61994
-3.35747
-2.41879
-1.73436
-1.24473
-0.900422
-0.661135
-0.494951
-0.377697
-0.292168
-0.227022
-0.175386
-0.133401
-0.0989935
-0.0710216
-0.0487269
-0.0314858
-0.0186241
-0.00936939
-0.00290739
0.00166427
0.00519091
0.0082403
0.0110223
0.0134094
0.0152034
0.0163509
0.0169367
0.0170758
0.016814
0.0162204
0.0151827
0.013927
0.0120662
0.0105714
0.0077963
0.00738395
0.00242428
0.00670116
-0.00680757
-11.2161
-11.5253
-11.9691
-12.5697
-13.4289
-14.6247
-16.0885
-17.4618
-18.091
-17.2634
-14.8244
-11.3977
-7.9876
-5.32257
-3.68274
-3.08958
-3.53689
-5.03667
-7.4814
-10.7063
-14.5247
-18.7454
-23.1729
-27.5842
-31.6962
-35.1662
-37.6368
-38.8048
-38.5609
-36.9605
-34.2525
-30.7266
-26.6244
-22.1693
-17.6427
-13.3639
-9.58399
-6.44238
-3.99515
-2.26905
-1.30767
-1.1977
-2.06535
-4.10557
-7.46802
-12.0361
-17.2649
-22.37
-26.6067
-29.4143
-30.5439
-29.9612
-27.9318
-24.8758
-21.2687
-17.5583
-14.0841
-11.041
-8.49736
-6.44224
-4.82552
-3.58177
-2.64355
-1.94844
-1.44178
-1.07727
-0.816733
-0.629683
-0.492868
-0.389607
-0.308775
-0.243498
-0.189798
-0.14543
-0.109066
-0.0797635
-0.0567136
-0.0390718
-0.0259139
-0.0162881
-0.0091928
-0.00370164
0.000835319
0.00473897
0.00802271
0.0105873
0.012427
0.013636
0.0143299
0.0145593
0.0143976
0.0137486
0.0128288
0.0112812
0.010024
0.00751111
0.00717269
0.00251093
0.00650922
-0.00628292
-11.3714
-11.6659
-12.0826
-12.6343
-13.3736
-14.3275
-15.406
-16.3293
-16.6355
-15.8422
-13.8464
-11.0927
-8.31078
-6.0772
-4.66074
-4.13846
-4.53332
-5.84256
-8.01652
-10.9333
-14.4213
-18.2799
-22.304
-26.2793
-29.96
-33.0571
-35.2678
-36.3463
-36.1987
-34.845
-32.4399
-29.1926
-25.344
-21.1801
-17.0159
-13.1174
-9.67005
-6.78526
-4.5248
-2.93082
-2.05412
-1.97523
-2.79736
-4.67152
-7.69255
-11.7342
-16.3333
-20.832
-24.6006
-27.1563
-28.2606
-27.8597
-26.1558
-23.498
-20.2991
-16.9566
-13.7795
-10.9538
-8.55641
-6.5916
-5.02447
-3.80217
-2.86685
-2.16296
-1.64058
-1.25667
-0.975266
-0.76742
-0.610889
-0.489597
-0.392702
-0.313391
-0.247609
-0.192965
-0.147954
-0.11145
-0.0824539
-0.0599419
-0.0428245
-0.0299973
-0.0203409
-0.0128324
-0.00673611
-0.00163968
0.00259111
0.00595265
0.00849175
0.0103195
0.0115559
0.0122577
0.0125028
0.0122141
0.0116011
0.0103387
0.00929185
0.00702167
0.00674513
0.00238946
0.00612496
-0.00588208
-11.4918
-11.7687
-12.1504
-12.6423
-13.2655
-14.0156
-14.8013
-15.4028
-15.4892
-14.7431
-13.1077
-10.8979
-8.63992
-6.78561
-5.58536
-5.13477
-5.48737
-6.63827
-8.55242
-11.1492
-14.2947
-17.8065
-21.4741
-25.0782
-28.388
-31.1552
-33.1347
-34.1354
-34.0504
-32.8462
-30.6298
-27.5997
-24.0254
-20.2158
-16.4473
-12.9229
-9.78845
-7.14605
-5.06583
-3.60026
-2.80343
-2.74908
-3.52155
-5.23383
-7.94168
-11.5182
-15.5696
-19.541
-22.8943
-25.208
-26.2577
-25.9831
-24.5409
-22.224
-19.3882
-16.3814
-13.4806
-10.8615
-8.60648
-6.73223
-5.21675
-4.01847
-3.08844
-2.37767
-1.84094
-1.43847
-1.13663
-0.90808
-0.731682
-0.592053
-0.478714
-0.384972
-0.306738
-0.2415
-0.187586
-0.143684
-0.108601
-0.0811211
-0.0599806
-0.0439163
-0.0316851
-0.0221621
-0.0145136
-0.00822101
-0.00302922
0.00115143
0.00441617
0.00689176
0.0087029
0.00991213
0.0106013
0.0107092
0.0104352
0.00948831
0.00867678
0.00667209
0.00646744
0.00242652
0.005881
-0.00536761
-11.5879
-11.8448
-12.1873
-12.6151
-13.1298
-13.7102
-14.2716
-14.6446
-14.5963
-13.9168
-12.5752
-10.7972
-8.96735
-7.43999
-6.43811
-6.06588
-6.3842
-7.40171
-9.08379
-11.369
-14.156
-17.2992
-20.6118
-23.8794
-26.876
-29.3728
-31.1566
-32.0519
-31.9488
-30.8111
-28.7461
-25.963
-22.7314
-19.3213
-15.9481
-12.7746
-9.92997
-7.51616
-5.6091
-4.2667
-3.54397
-3.50768
-4.22688
-5.78291
-8.20212
-11.3612
-14.926
-18.4287
-21.4054
-23.4873
-24.4671
-24.2854
-23.0635
-21.0454
-18.5348
-15.8334
-13.1886
-10.7652
-8.64842
-6.86452
-5.40243
-4.23057
-3.30814
-2.59241
-2.04271
-1.62258
-1.30074
-1.05158
-0.855158
-0.696879
-0.566703
-0.458125
-0.367065
-0.290918
-0.227854
-0.176376
-0.135085
-0.102565
-0.0773634
-0.0580451
-0.0432268
-0.0316692
-0.0224327
-0.0148993
-0.0087103
-0.00368733
0.000314172
0.00344112
0.00582555
0.00753686
0.00866066
0.00915197
0.00920188
0.0085534
0.00795781
0.00620256
0.00605598
0.00232935
0.00550772
-0.00494519
-11.659
-11.8934
-12.1951
-12.5596
-12.9776
-13.4201
-13.813
-14.0274
-13.8985
-13.2886
-12.1862
-10.7567
-9.2821
-8.03803
-7.21586
-6.92185
-7.21645
-8.11763
-9.59805
-11.6009
-14.0417
-16.8021
-19.7292
-22.637
-25.316
-27.5491
-29.1326
-29.8957
-29.754
-28.7022
-26.8474
-24.3828
-21.5369
-18.523
-15.5163
-12.6625
-10.0857
-7.8877
-6.1459
-4.9204
-4.26573
-4.24177
-4.90496
-6.31122
-8.46504
-11.2482
-14.3764
-17.4555
-20.087
-21.9511
-22.8576
-22.7479
-21.7143
-19.9585
-17.7377
-15.3131
-12.9048
-10.6661
-8.68312
-6.98899
-5.58173
-4.43847
-3.52588
-2.80707
-2.24581
-1.80891
-1.46753
-1.19784
-0.981233
-0.803969
-0.656547
-0.532713
-0.428449
-0.341077
-0.268624
-0.209398
-0.161788
-0.124163
-0.0948711
-0.072292
-0.0548929
-0.0413135
-0.030499
-0.0217252
-0.0145323
-0.0086536
-0.00389809
-9.98863e-05
0.00287979
0.00511681
0.00669968
0.00759725
0.0079918
0.00766152
0.007299
0.00581069
0.00573192
0.00233085
0.0052252
-0.00444401
-11.7105
-11.9213
-12.183
-12.4884
-12.8225
-13.1546
-13.4221
-13.5278
-13.3564
-12.8191
-11.9157
-10.7686
-9.58608
-8.58297
-7.92009
-7.69874
-7.97768
-8.77799
-10.0814
-11.8369
-13.9673
-16.3692
-18.9117
-21.4386
-23.7697
-25.713
-27.0828
-27.7336
-27.6011
-26.6901
-25.0908
-22.9601
-20.4783
-17.8194
-15.1396
-12.5762
-10.2483
-8.25362
-6.66849
-5.55317
-4.96072
-4.94438
-5.54999
-6.81342
-8.72393
-11.1693
-13.9069
-16.6047
-18.9224
-20.5842
-21.4159
-21.3601
-20.4858
-18.9583
-16.9947
-14.8202
-12.63
-10.5655
-8.71158
-7.10626
-5.75493
-4.64228
-3.74167
-3.02165
-2.45023
-1.99746
-1.63696
-1.34683
-1.10982
-0.913207
-0.748099
-0.608574
-0.490718
-0.391811
-0.309737
-0.242609
-0.188591
-0.145824
-0.112436
-0.0866098
-0.066648
-0.051057
-0.0386589
-0.0286255
-0.0204077
-0.0136564
-0.00813564
-0.00365893
-7.96019e-05
0.00268498
0.0047255
0.00602486
0.0067568
0.00673463
0.00659149
0.00535727
0.00533294
0.00225251
0.0048616
-0.00400788
-11.7449
-11.9316
-12.1555
-12.4075
-12.6706
-12.9156
-13.0912
-13.1249
-12.9366
-12.4696
-11.731
-10.8131
-9.87145
-9.07255
-8.54996
-8.39521
-8.66371
-9.37743
-10.5245
-12.0625
-13.922
-16.0095
-18.2091
-20.3847
-22.384
-24.0462
-25.2201
-25.7887
-25.6893
-24.9207
-23.5545
-21.7129
-19.5419
-17.192
-14.805
-12.508
-10.4116
-8.6079
-7.17037
-6.15831
-5.62251
-5.60993
-6.15743
-7.28555
-8.97343
-11.1161
-13.5056
-15.8626
-17.897
-19.3705
-20.1265
-20.1091
-19.3685
-18.0391
-16.3032
-14.3547
-12.3653
-10.4647
-8.73481
-7.21703
-5.92248
-4.84226
-3.95565
-3.23624
-2.65604
-2.18827
-1.80907
-1.4985
-1.24085
-1.02447
-0.841197
-0.685519
-0.553674
-0.442921
-0.351007
-0.275841
-0.215347
-0.167418
-0.129949
-0.10091
-0.0784243
-0.0608569
-0.0469029
-0.035625
-0.0263848
-0.0187568
-0.0124614
-0.00729336
-0.00309923
0.000209632
0.00272474
0.004442
0.0055252
0.00582395
0.005911
0.00494274
0.00498009
0.00223036
0.00455088
-0.00352096
-11.7653
-11.9288
-12.118
-12.3234
-12.528
-12.7056
-12.8153
-12.8035
-12.6151
-12.2151
-11.6145
-10.884
-10.1404
-9.51274
-9.11076
-9.01464
-9.27504
-9.9137
-10.9229
-12.2678
-13.8884
-15.7023
-17.6067
-19.4825
-21.1989
-22.6219
-23.6285
-24.1204
-24.0401
-23.3835
-22.2061
-20.6045
-18.7009
-16.6257
-14.5047
-12.4528
-10.5711
-8.94551
-7.6462
-6.73035
-6.24586
-6.23388
-6.72358
-7.72453
-9.20911
-11.0805
-13.1605
-15.2132
-16.9924
-18.2922
-18.9734
-18.9819
-18.353
-17.1953
-15.6611
-13.9163
-12.1116
-10.3647
-8.75391
-7.32212
-6.08492
-5.03875
-4.16809
-3.45105
-2.86341
-2.38148
-1.98393
-1.65287
-1.37424
-1.13761
-0.935651
-0.763326
-0.61708
-0.494172
-0.392214
-0.308896
-0.241885
-0.188807
-0.147301
-0.115107
-0.0901551
-0.0706544
-0.0551697
-0.0426545
-0.0323858
-0.0238726
-0.016794
-0.0109265
-0.00611075
-0.0022526
0.000738887
0.00287325
0.00430376
0.00491675
0.00522366
0.00451075
0.00459741
0.00217124
0.00419771
-0.00307245
-11.7752
-11.9167
-12.0749
-12.2404
-12.3976
-12.524
-12.5874
-12.5488
-12.371
-12.0331
-11.5479
-10.9703
-10.3891
-9.90396
-9.60459
-9.55938
-9.81321
-10.3865
-11.2744
-12.4482
-13.8567
-15.4286
-17.0747
-18.6915
-20.1666
-21.3863
-22.2462
-22.6638
-22.5914
-22.0242
-21.004
-19.6092
-17.9419
-16.1133
-14.2338
-12.4062
-10.7225
-9.26227
-8.09162
-7.26489
-6.82662
-6.81272
-7.24583
-8.12809
-9.42765
-11.0564
-12.8612
-14.6425
-16.1928
-17.3337
-17.9422
-17.9668
-17.431
-16.4219
-15.0661
-13.5048
-11.8698
-10.2669
-8.76999
-7.42242
-6.24293
-5.23228
-4.37939
-3.66642
-3.07265
-2.57734
-2.16169
-1.80999
-1.50995
-1.25249
-1.03125
-0.841736
-0.680659
-0.545291
-0.433102
-0.341547
-0.268013
-0.209832
-0.164366
-0.129107
-0.101776
-0.0804144
-0.0634547
-0.0497381
-0.0384578
-0.029066
-0.0212022
-0.0146279
-0.00917976
-0.00475957
-0.00127832
0.00128564
0.00307326
0.0040087
0.00454165
0.00409115
0.00423124
0.00213601
0.00386687
-0.00259659
-11.7762
-11.8977
-12.0291
-12.1614
-12.2811
-12.3694
-12.4016
-12.3495
-12.1886
-11.9074
-11.519
-11.0667
-10.6182
-10.2509
-10.0373
-10.0347
-10.2821
-10.7979
-11.5791
-12.6018
-13.8226
-15.1802
-16.5977
-17.9861
-19.2494
-20.2909
-21.0221
-21.3741
-21.3066
-20.8142
-19.9294
-18.7154
-17.2571
-15.6492
-13.9878
-12.3645
-10.8625
-9.55481
-8.50324
-7.75857
-7.36175
-7.34403
-7.72272
-8.49482
-9.6266
-11.0385
-12.5991
-14.1398
-15.485
-16.481
-17.0199
-17.053
-16.5948
-15.7142
-14.516
-13.12
-11.6405
-10.1723
-8.78419
-7.51891
-6.3973
-5.42349
-4.59012
-3.88288
-3.28421
-2.77619
-2.3426
-1.96997
-1.64794
-1.36896
-1.12774
-0.92045
-0.744087
-0.595956
-0.473371
-0.373527
-0.2935
-0.230301
-0.180989
-0.142784
-0.113181
-0.0900442
-0.0716671
-0.0567803
-0.0445005
-0.0342314
-0.0255785
-0.018291
-0.0122037
-0.00721623
-0.00324301
-0.000250386
0.00189053
0.00314223
0.0038918
0.00369364
0.00387496
0.00210195
0.00352793
-0.0021327
-11.7719
-11.8755
-11.9838
-12.089
-12.1794
-12.24
-12.2521
-12.1959
-12.055
-11.8246
-11.5174
-11.1673
-10.8267
-10.556
-10.4131
-10.4454
-10.6858
-11.1506
-11.8378
-12.7277
-13.7833
-14.9522
-16.1684
-17.3561
-18.4333
-19.3185
-19.9375
-20.2319
-20.1672
-19.7382
-18.9698
-17.9134
-16.6392
-15.2277
-13.7624
-12.3242
-10.9881
-9.82058
-8.87857
-8.20906
-7.84931
-7.8264
-8.15345
-8.82399
-9.80431
-11.023
-12.3673
-13.695
-14.8571
-15.7218
-16.1949
-16.2309
-15.8371
-15.0676
-14.0088
-12.7614
-11.4243
-10.082
-8.79766
-7.61265
-6.54895
-5.6132
-4.80102
-4.10111
-3.49872
-2.97857
-2.52701
-2.13297
-1.7882
-1.48685
-1.22485
-0.999113
-0.806983
-0.64579
-0.512674
-0.404534
-0.318097
-0.250021
-0.197029
-0.156046
-0.124324
-0.0995359
-0.0798341
-0.063842
-0.0505993
-0.0394689
-0.0300312
-0.0220264
-0.0152911
-0.00972495
-0.00524747
-0.00181526
0.000686674
0.00225997
0.00322896
0.00328623
0.00350964
0.00206314
0.0031827
-0.00166479
-11.7631
-11.851
-11.9401
-12.0236
-12.092
-12.1332
-12.1334
-12.0789
-11.9596
-11.7742
-11.5347
-11.2681
-11.0151
-10.8228
-10.7372
-10.797
-11.0295
-11.4485
-12.0529
-12.826
-13.7366
-14.7401
-15.7802
-16.7924
-17.7072
-18.4561
-18.9765
-19.2199
-19.1566
-18.781
-18.1126
-17.193
-16.0804
-14.8432
-13.5536
-12.2826
-11.0973
-10.0578
-9.21602
-8.61498
-8.28827
-8.25932
-8.53794
-9.11555
-9.95963
-11.0066
-12.1599
-13.2992
-14.2986
-15.0453
-15.457
-15.4917
-15.1513
-14.478
-13.5422
-12.4284
-11.2219
-9.99705
-8.81157
-7.70475
-6.69891
-5.80237
-5.01304
-4.32203
-3.71701
-3.18517
-2.71542
-2.29926
-1.93075
-1.60597
-1.32224
-1.07732
-0.868904
-0.694358
-0.550605
-0.434207
-0.341494
-0.268728
-0.212263
-0.168702
-0.135035
-0.108731
-0.0877994
-0.0707599
-0.0565877
-0.0446085
-0.0343888
-0.025664
-0.0182764
-0.0121285
-0.00714668
-0.00327798
-0.000420989
0.00146571
0.00264318
0.00294437
0.00319627
0.00206558
0.00286426
-0.00117967
-11.7524
-11.8269
-11.9003
-11.9667
-12.0186
-12.0468
-12.041
-11.9921
-11.8941
-11.7481
-11.5648
-11.3662
-11.1838
-11.0544
-11.0143
-11.0948
-11.3182
-11.696
-12.2271
-12.8977
-13.6814
-14.5402
-15.4266
-16.2859
-17.0595
-17.6897
-18.1239
-18.3223
-18.2591
-17.9286
-17.3459
-16.545
-15.5742
-14.4913
-13.3583
-12.2377
-11.1887
-10.2654
-9.51477
-8.97576
-8.67844
-8.64298
-8.8767
-9.36989
-10.092
-10.9869
-11.9718
-12.9453
-13.8006
-14.4416
-14.7967
-14.8273
-14.5314
-13.9413
-13.1141
-12.1206
-11.0336
-9.91837
-8.82704
-7.79638
-6.84834
-5.99216
-5.22734
-4.5468
-3.94018
-3.39692
-2.9085
-2.46919
-2.07564
-1.72614
-1.41954
-1.15456
-0.929313
-0.741136
-0.586696
-0.462152
-0.363384
-0.286203
-0.226559
-0.180697
-0.145325
-0.117699
-0.0956786
-0.0776878
-0.0626395
-0.0498368
-0.0388423
-0.0293937
-0.0213437
-0.0146012
-0.00910206
-0.00478643
-0.00156752
0.000636259
0.00202265
0.00256769
0.00284586
0.00203229
0.00250903
-0.000715736
-11.7402
-11.8035
-11.8642
-11.9176
-11.9578
-11.9776
-11.97
-11.9289
-11.8513
-11.7393
-11.6026
-11.459
-11.3331
-11.2536
-11.2491
-11.3444
-11.5575
-11.8977
-12.364
-12.9446
-13.6172
-14.35
-15.1026
-15.8291
-16.4801
-17.0074
-17.3669
-17.5255
-17.4613
-17.1686
-16.6594
-15.9614
-15.1145
-14.1675
-13.1738
-12.1876
-11.2613
-10.443
-9.77471
-9.29159
-9.02031
-8.97824
-9.17075
-9.58781
-10.2013
-10.9619
-11.799
-12.6268
-13.3552
-13.9022
-14.2056
-14.2303
-13.9715
-13.4536
-12.7226
-11.8373
-10.8597
-9.84682
-8.8452
-7.88874
-6.99846
-6.18386
-5.4453
-4.77688
-4.16965
-3.61502
-3.10712
-2.64323
-2.22298
-1.84712
-1.51631