/*--------------------------------*- C++ -*----------------------------------*\
  =========                 |
  \\      /  F ield         | OpenFOAM: The Open Source CFD Toolbox
   \\    /   O peration     | Website:  https://openfoam.org
    \\  /    A nd           | Version:  10
     \\/     M anipulation  |
\*---------------------------------------------------------------------------*/
FoamFile
{
    format      ascii;
    class       surfaceScalarField;
    location    "0.12";
    object      phi;
}
// * * * * * * * * * * * * * * * * * * * * * * * * * * * * * * * * * * * * * //

dimensions      [0 3 -1 0 0 0 0];

internalField   nonuniform List<scalar> 
13452
(
5.94526e-05
8.15834e-07
5.84707e-05
9.8191e-07
5.74468e-05
1.02392e-06
5.63932e-05
1.05363e-06
5.53378e-05
1.05539e-06
5.42917e-05
1.0461e-06
5.32579e-05
1.03375e-06
5.22379e-05
1.01998e-06
5.12321e-05
1.00588e-06
5.02398e-05
9.92231e-07
4.92603e-05
9.79485e-07
4.82924e-05
9.67958e-07
4.73345e-05
9.57934e-07
4.63848e-05
9.49686e-07
4.54413e-05
9.43509e-07
4.45015e-05
9.39742e-07
4.35627e-05
9.38787e-07
4.26216e-05
9.41125e-07
4.16743e-05
9.4734e-07
4.07161e-05
9.58131e-07
3.97418e-05
9.74337e-07
3.87448e-05
9.9697e-07
3.77176e-05
1.02724e-06
3.6651e-05
1.0666e-06
3.55342e-05
1.11681e-06
3.43542e-05
1.17994e-06
3.30957e-05
1.25852e-06
3.174e-05
1.35574e-06
3.02655e-05
1.47443e-06
2.86425e-05
1.6231e-06
2.68487e-05
1.79376e-06
2.48065e-05
2.04223e-06
2.28088e-06
2.25256e-05
6.249e-05
3.16156e-07
6.29657e-05
5.06263e-07
6.34133e-05
5.76246e-07
6.38237e-05
6.43239e-07
6.41895e-05
6.89652e-07
6.45103e-05
7.25227e-07
6.47878e-05
7.56285e-07
6.50241e-05
7.83655e-07
6.52218e-05
8.08186e-07
6.53832e-05
8.30816e-07
6.55105e-05
8.52222e-07
6.56055e-05
8.72978e-07
6.56698e-05
8.93644e-07
6.57047e-05
9.14787e-07
6.57112e-05
9.37004e-07
6.569e-05
9.6095e-07
6.56414e-05
9.87372e-07
6.55654e-05
1.01714e-06
6.54614e-05
1.05127e-06
6.53286e-05
1.091e-06
6.51651e-05
1.13778e-06
6.49687e-05
1.19341e-06
6.47359e-05
1.26003e-06
6.44622e-05
1.34029e-06
6.41416e-05
1.43747e-06
6.37659e-05
1.55556e-06
6.33248e-05
1.69964e-06
6.28047e-05
1.87583e-06
6.21867e-05
2.09245e-06
6.14505e-05
2.35931e-06
6.05543e-05
2.68994e-06
5.94896e-05
3.10691e-06
3.61747e-06
5.8153e-05
6.38345e-05
2.43054e-07
6.39102e-05
4.30564e-07
6.39793e-05
5.07127e-07
6.40511e-05
5.71436e-07
6.41248e-05
6.15973e-07
6.42024e-05
6.47596e-07
6.4285e-05
6.73697e-07
6.43726e-05
6.96055e-07
6.4465e-05
7.15778e-07
6.45619e-05
7.33978e-07
6.46627e-05
7.51441e-07
6.47669e-05
7.68779e-07
6.48739e-05
7.86562e-07
6.49834e-05
8.0534e-07
6.50947e-05
8.25679e-07
6.52075e-05
8.48186e-07
6.53213e-05
8.73551e-07
6.54359e-05
9.02575e-07
6.55509e-05
9.36203e-07
6.56664e-05
9.75564e-07
6.57821e-05
1.02203e-06
6.58983e-05
1.07725e-06
6.6015e-05
1.14328e-06
6.61327e-05
1.22263e-06
6.62517e-05
1.31841e-06
6.63728e-05
1.43449e-06
6.64966e-05
1.5758e-06
6.66242e-05
1.74832e-06
6.67565e-05
1.96011e-06
6.68954e-05
2.22037e-06
6.70431e-05
2.54223e-06
6.72104e-05
2.93968e-06
3.41841e-06
6.74094e-05
6.56406e-05
1.85564e-07
6.56927e-05
3.78456e-07
6.5729e-05
4.70838e-07
6.57579e-05
5.42494e-07
6.57803e-05
5.93558e-07
6.57981e-05
6.29832e-07
6.58126e-05
6.59144e-07
6.58247e-05
6.83984e-07
6.58349e-05
7.05629e-07
6.58435e-05
7.25319e-07
6.5851e-05
7.4396e-07
6.58575e-05
7.62247e-07
6.58633e-05
7.80802e-07
6.58684e-05
8.00222e-07
6.5873e-05
8.21101e-07
6.58771e-05
8.4406e-07
6.58809e-05
8.69786e-07
6.58844e-05
8.99057e-07
6.58878e-05
9.32772e-07
6.58914e-05
9.71981e-07
6.58955e-05
1.01793e-06
6.59007e-05
1.0721e-06
6.59077e-05
1.13627e-06
6.59177e-05
1.21256e-06
6.59326e-05
1.30355e-06
6.59547e-05
1.41235e-06
6.59878e-05
1.54271e-06
6.6037e-05
1.69911e-06
6.61102e-05
1.88692e-06
6.62181e-05
2.11247e-06
6.63789e-05
2.3815e-06
6.66147e-05
2.70384e-06
3.06666e-06
6.69664e-05
6.74905e-05
1.51886e-07
6.75314e-05
3.37471e-07
6.75657e-05
4.36535e-07
6.75972e-05
5.11028e-07
6.76243e-05
5.66489e-07
6.76468e-05
6.07307e-07
6.76655e-05
6.40426e-07
6.76809e-05
6.68662e-07
6.76931e-05
6.93419e-07
6.77024e-05
7.16008e-07
6.77089e-05
7.37429e-07
6.77127e-05
7.58442e-07
6.77138e-05
7.79719e-07
6.77121e-05
8.01892e-07
6.77076e-05
8.25583e-07
6.77003e-05
8.51431e-07
6.76899e-05
8.80136e-07
6.76765e-05
9.12474e-07
6.766e-05
9.49322e-07
6.76402e-05
9.91693e-07
6.76174e-05
1.04076e-06
6.75916e-05
1.09789e-06
6.75632e-05
1.16469e-06
6.75327e-05
1.24304e-06
6.75012e-05
1.3351e-06
6.74701e-05
1.44342e-06
6.74419e-05
1.57087e-06
6.74204e-05
1.72068e-06
6.74111e-05
1.89618e-06
6.74226e-05
2.10101e-06
6.74675e-05
2.33653e-06
6.7565e-05
2.60634e-06
2.89488e-06
6.77368e-05
6.94117e-05
1.24253e-07
6.94503e-05
2.98825e-07
6.94835e-05
4.0335e-07
6.95129e-05
4.81667e-07
6.95379e-05
5.4145e-07
6.95588e-05
5.86418e-07
6.95764e-05
6.22817e-07
6.95912e-05
6.53844e-07
6.96035e-05
6.81123e-07
6.96135e-05
7.06049e-07
6.96212e-05
7.29709e-07
6.96267e-05
7.52929e-07
6.963e-05
7.76425e-07
6.9631e-05
8.00865e-07
6.96297e-05
8.26904e-07
6.9626e-05
8.55166e-07
6.96197e-05
8.86358e-07
6.9611e-05
9.21238e-07
6.95996e-05
9.60656e-07
6.95858e-05
1.00557e-06
6.95695e-05
1.05706e-06
6.9551e-05
1.11638e-06
6.95307e-05
1.18493e-06
6.95094e-05
1.26433e-06
6.94882e-05
1.35636e-06
6.94686e-05
1.46301e-06
6.94531e-05
1.58637e-06
6.94452e-05
1.72857e-06
6.945e-05
1.89142e-06
6.94746e-05
2.0764e-06
6.95286e-05
2.28248e-06
6.9626e-05
2.50891e-06
2.74209e-06
6.97788e-05
7.13849e-05
1.05649e-07
7.14148e-05
2.68968e-07
7.14427e-05
3.75474e-07
7.1469e-05
4.55333e-07
7.14931e-05
5.17398e-07
7.15142e-05
5.65252e-07
7.15327e-05
6.04312e-07
7.15488e-05
6.37815e-07
7.15624e-05
6.67467e-07
7.15738e-05
6.94658e-07
7.1583e-05
7.20506e-07
7.15901e-05
7.45875e-07
7.1595e-05
7.71504e-07
7.15978e-05
7.98064e-07
7.15985e-05
8.26195e-07
7.15971e-05
8.56593e-07
7.15935e-05
8.89915e-07
7.15879e-05
9.26888e-07
7.15802e-05
9.683e-07
7.15708e-05
1.01503e-06
7.15598e-05
1.06804e-06
7.15477e-05
1.12842e-06
7.15353e-05
1.19735e-06
7.15235e-05
1.27613e-06
7.15138e-05
1.36611e-06
7.15081e-05
1.46871e-06
7.15092e-05
1.58523e-06
7.1521e-05
1.71678e-06
7.15486e-05
1.86387e-06
7.15987e-05
2.02628e-06
7.16797e-05
2.20144e-06
7.18026e-05
2.38605e-06
2.56854e-06
7.19761e-05
7.34194e-05
9.14917e-08
7.34457e-05
2.42717e-07
7.34724e-05
3.48767e-07
7.34981e-05
4.29622e-07
7.35217e-05
4.93782e-07
7.35425e-05
5.44493e-07
7.35605e-05
5.86259e-07
7.35761e-05
6.2221e-07
7.35895e-05
6.54141e-07
7.36006e-05
6.83469e-07
7.36098e-05
7.11349e-07
7.3617e-05
7.38683e-07
7.36223e-05
7.66238e-07
7.36256e-05
7.94704e-07
7.36271e-05
8.24723e-07
7.36267e-05
8.56958e-07
7.36246e-05
8.92048e-07
7.36208e-05
9.30674e-07
7.36156e-05
9.73555e-07
7.36091e-05
1.02147e-06
7.36019e-05
1.07525e-06
7.35945e-05
1.13579e-06
7.35879e-05
1.20403e-06
7.35831e-05
1.28092e-06
7.35818e-05
1.3674e-06
7.35862e-05
1.4643e-06
7.35992e-05
1.57221e-06
7.36246e-05
1.69136e-06
7.36673e-05
1.82118e-06
7.37334e-05
1.96021e-06
7.38299e-05
2.10493e-06
7.39653e-05
2.25064e-06
2.38742e-06
7.41464e-05
7.5513e-05
8.09476e-08
7.55345e-05
2.21234e-07
7.55576e-05
3.25695e-07
7.55804e-05
4.06814e-07
7.5602e-05
4.7211e-07
7.56218e-05
5.2471e-07
7.56396e-05
5.68459e-07
7.56555e-05
6.06338e-07
7.56695e-05
6.40172e-07
7.56816e-05
6.71364e-07
7.56919e-05
7.01061e-07
7.57004e-05
7.30175e-07
7.57071e-05
7.59475e-07
7.57122e-05
7.89663e-07
7.57155e-05
8.21392e-07
7.57172e-05
8.55219e-07
7.57175e-05
8.9177e-07
7.57165e-05
9.31671e-07
7.57145e-05
9.75567e-07
7.57119e-05
1.02412e-06
7.57091e-05
1.07802e-06
7.57069e-05
1.13795e-06
7.57064e-05
1.2046e-06
7.57087e-05
1.2786e-06
7.57156e-05
1.36048e-06
7.57293e-05
1.45054e-06
7.57528e-05
1.54879e-06
7.57894e-05
1.6547e-06
7.58437e-05
1.76694e-06
7.59206e-05
1.88326e-06
7.60259e-05
1.99963e-06
7.61657e-05
2.11083e-06
2.20848e-06
7.63447e-05
7.76677e-05
7.27845e-08
7.76861e-05
2.02924e-07
7.77072e-05
3.04512e-07
7.7729e-05
3.85059e-07
7.77502e-05
4.50908e-07
7.77699e-05
5.04998e-07
7.77878e-05
5.5055e-07
7.78039e-05
5.90265e-07
7.78181e-05
6.25924e-07
7.78306e-05
6.58894e-07
7.78414e-05
6.90304e-07
7.78505e-05
7.2107e-07
7.7858e-05
7.5196e-07
7.7864e-05
7.8365e-07
7.78686e-05
8.16749e-07
7.7872e-05
8.5184e-07
7.78743e-05
8.89496e-07
7.78757e-05
9.30268e-07
7.78766e-05
9.747e-07
7.78773e-05
1.02333e-06
7.78787e-05
1.0767e-06
7.78813e-05
1.1353e-06
7.78863e-05
1.19956e-06
7.78951e-05
1.26982e-06
7.79094e-05
1.34622e-06
7.79313e-05
1.42866e-06
7.79634e-05
1.51661e-06
7.80091e-05
1.60905e-06
7.80719e-05
1.70412e-06
7.8156e-05
1.79912e-06
7.82658e-05
1.88992e-06
7.84053e-05
1.97129e-06
2.03629e-06
7.85775e-05
7.98848e-05
6.63202e-08
7.99003e-05
1.87432e-07
7.99191e-05
2.85667e-07
7.99389e-05
3.65248e-07
7.99586e-05
4.31236e-07
7.99773e-05
4.86305e-07
7.99947e-05
5.33184e-07
8.00106e-05
5.74315e-07
8.00251e-05
6.11425e-07
8.00382e-05
6.45848e-07
8.00498e-05
6.78684e-07
8.006e-05
7.10838e-07
8.00689e-05
7.43061e-07
8.00765e-05
7.76008e-07
8.0083e-05
8.10254e-07
8.00886e-05
8.46331e-07
8.00933e-05
8.84747e-07
8.00976e-05
9.25983e-07
8.01018e-05
9.70494e-07
8.01064e-05
1.0187e-06
8.01122e-05
1.07097e-06
8.01198e-05
1.12762e-06
8.01305e-05
1.18886e-06
8.01456e-05
1.25474e-06
8.01668e-05
1.32509e-06
8.01959e-05
1.39947e-06
8.02356e-05
1.477e-06
8.02883e-05
1.55627e-06
8.03573e-05
1.63518e-06
8.04456e-05
1.71083e-06
8.05562e-05
1.77928e-06
8.06918e-05
1.83566e-06
1.87435e-06
8.08538e-05
8.21657e-05
6.10635e-08
8.2179e-05
1.74118e-07
8.21961e-05
2.68593e-07
8.22147e-05
3.46669e-07
8.22336e-05
4.12289e-07
8.22521e-05
4.67858e-07
8.22695e-05
5.1571e-07
8.22858e-05
5.58013e-07
8.23009e-05
5.96392e-07
8.23146e-05
6.32113e-07
8.23271e-05
6.66228e-07
8.23383e-05
6.99606e-07
8.23484e-05
7.32969e-07
8.23575e-05
7.66938e-07
8.23657e-05
8.02056e-07
8.23732e-05
8.38812e-07
8.23803e-05
8.77657e-07
8.23873e-05
9.18992e-07
8.23946e-05
9.63173e-07
8.24028e-05
1.0105e-06
8.24125e-05
1.0612e-06
8.24248e-05
1.1154e-06
8.24405e-05
1.17313e-06
8.2461e-05
1.2342e-06
8.24879e-05
1.2982e-06
8.2523e-05
1.36443e-06
8.25682e-05
1.43176e-06
8.26259e-05
1.4986e-06
8.26983e-05
1.56275e-06
8.27878e-05
1.62137e-06
8.28962e-05
1.67087e-06
8.30249e-05
1.70694e-06
1.72518e-06
8.31741e-05
8.45122e-05
5.66766e-08
8.45237e-05
1.62563e-07
8.45392e-05
2.53157e-07
8.45564e-05
3.29433e-07
8.45743e-05
3.94384e-07
8.4592e-05
4.50112e-07
8.46091e-05
4.98607e-07
8.46254e-05
5.41775e-07
8.46406e-05
5.81126e-07
8.46549e-05
6.17858e-07
8.46682e-05
6.52974e-07
8.46805e-05
6.87303e-07
8.46919e-05
7.21536e-07
8.47026e-05
7.56256e-07
8.47127e-05
7.91966e-07
8.47224e-05
8.29104e-07
8.4732e-05
8.68049e-07
8.47418e-05
9.09125e-07
8.47524e-05
9.5259e-07
8.47643e-05
9.98631e-07
8.47781e-05
1.04735e-06
8.47948e-05
1.09872e-06
8.48154e-05
1.1526e-06
8.48409e-05
1.20862e-06
8.48729e-05
1.2662e-06
8.49129e-05
1.32446e-06
8.49625e-05
1.38215e-06
8.50235e-05
1.43761e-06
8.50976e-05
1.4887e-06
8.51861e-05
1.53279e-06
8.52903e-05
1.56674e-06
8.54103e-05
1.5869e-06
1.58997e-06
8.55455e-05
8.69259e-05
5.29276e-08
8.69361e-05
1.524e-07
8.69502e-05
2.39076e-07
8.69663e-05
3.13263e-07
8.69835e-05
3.77199e-07
8.70009e-05
4.32699e-07
8.70181e-05
4.81477e-07
8.70346e-05
5.25206e-07
8.70505e-05
5.65268e-07
8.70656e-05
6.02783e-07
8.70798e-05
6.38686e-07
8.70934e-05
6.73758e-07
8.71063e-05
7.08645e-07
8.71187e-05
7.43888e-07
8.71307e-05
7.79941e-07
8.71426e-05
8.17187e-07
8.71547e-05
8.55942e-07
8.71674e-05
8.96451e-07
8.71811e-05
9.38885e-07
8.71964e-05
9.8333e-07
8.7214e-05
1.02977e-06
8.72346e-05
1.07806e-06
8.72593e-05
1.12792e-06
8.72891e-05
1.17885e-06
8.73251e-05
1.23017e-06
8.73687e-05
1.28088e-06
8.74211e-05
1.32973e-06
8.74836e-05
1.37508e-06
8.75574e-05
1.41495e-06
8.76431e-05
1.44703e-06
8.77412e-05
1.46867e-06
8.78512e-05
1.47692e-06
1.46941e-06
8.79717e-05
8.94088e-05
4.96506e-08
8.94179e-05
1.43337e-07
8.94308e-05
2.26145e-07
8.9446e-05
2.98051e-07
8.94625e-05
3.60726e-07
8.94795e-05
4.15715e-07
8.94965e-05
4.64491e-07
8.95132e-05
5.08512e-07
8.95294e-05
5.49029e-07
8.95451e-05
5.87072e-07
8.95603e-05
6.23512e-07
8.9575e-05
6.59074e-07
8.95893e-05
6.94358e-07
8.96033e-05
7.29859e-07
8.96172e-05
7.65985e-07
8.96314e-05
8.03063e-07
8.9646e-05
8.41345e-07
8.96614e-05
8.81003e-07
8.96782e-05
9.22128e-07
8.96968e-05
9.64716e-07
8.97179e-05
1.00866e-06
8.97422e-05
1.05371e-06
8.97707e-05
1.0995e-06
8.98041e-05
1.14545e-06
8.98434e-05
1.19081e-06
8.98897e-05
1.23458e-06
8.99439e-05
1.27553e-06
9.00068e-05
1.31214e-06
9.00791e-05
1.34268e-06
9.0161e-05
1.36516e-06
9.02522e-05
1.37746e-06
9.03519e-05
1.37727e-06
1.36304e-06
9.04582e-05
9.19628e-05
4.67269e-08
9.1971e-05
1.35136e-07
9.1983e-05
2.14154e-07
9.19974e-05
2.83626e-07
9.20133e-05
3.44803e-07
9.203e-05
3.9899e-07
9.20471e-05
4.47459e-07
9.20641e-05
4.91481e-07
9.2081e-05
5.32179e-07
9.20975e-05
5.70497e-07
9.21138e-05
6.07231e-07
9.21298e-05
6.4305e-07
9.21457e-05
6.78503e-07
9.21615e-05
7.14037e-07
9.21775e-05
7.50005e-07
9.21939e-05
7.86682e-07
9.2211e-05
8.24256e-07
9.22291e-05
8.62836e-07
9.22488e-05
9.02443e-07
9.22705e-05
9.43002e-07
9.22949e-05
9.84328e-07
9.23225e-05
1.02612e-06
9.2354e-05
1.06793e-06
9.23903e-05
1.10915e-06
9.24321e-05
1.14902e-06
9.24801e-05
1.18657e-06
9.2535e-05
1.22066e-06
9.25972e-05
1.24995e-06
9.26669e-05
1.27297e-06
9.2744e-05
1.28809e-06
9.28278e-05
1.29368e-06
9.2917e-05
1.28802e-06
1.27021e-06
9.30098e-05
9.45898e-05
4.40682e-08
9.45973e-05
1.27605e-07
9.46086e-05
2.02924e-07
9.46224e-05
2.69848e-07
9.46378e-05
3.29333e-07
9.46543e-05
3.82477e-07
9.46714e-05
4.30383e-07
9.46887e-05
4.74154e-07
9.47061e-05
5.1479e-07
9.47235e-05
5.53144e-07
9.47408e-05
5.89941e-07
9.4758e-05
6.25787e-07
9.47754e-05
6.61178e-07
9.47929e-05
6.96511e-07
9.48108e-05
7.32092e-07
9.48293e-05
7.68139e-07
9.48488e-05
8.0479e-07
9.48695e-05
8.42096e-07
9.4892e-05
8.8002e-07
9.49165e-05
9.18431e-07
9.49438e-05
9.57094e-07
9.49742e-05
9.95662e-07
9.50085e-05
1.03366e-06
9.50472e-05
1.07049e-06
9.50908e-05
1.10541e-06
9.51398e-05
1.13752e-06
9.51947e-05
1.16581e-06
9.52555e-05
1.18915e-06
9.53221e-05
1.20633e-06
9.53941e-05
1.21608e-06
9.54706e-05
1.21719e-06
9.55502e-05
1.20846e-06
1.18949e-06
9.56309e-05
9.7292e-05
4.16075e-08
9.7299e-05
1.20588e-07
9.73096e-05
1.9229e-07
9.73229e-05
2.56576e-07
9.7338e-05
3.14192e-07
9.73545e-05
3.66068e-07
9.73717e-05
4.13157e-07
9.73894e-05
4.5642e-07
9.74075e-05
4.96742e-07
9.74257e-05
5.34888e-07
9.74441e-05
5.71511e-07
9.74628e-05
6.07156e-07
9.74817e-05
6.42266e-07
9.7501e-05
6.77188e-07
9.75209e-05
7.12178e-07
9.75417e-05
7.47407e-07
9.75635e-05
7.82963e-07
9.75867e-05
8.18851e-07
9.76118e-05
8.5499e-07
9.7639e-05
8.91208e-07
9.76688e-05
9.27239e-07
9.77018e-05
9.62718e-07
9.77383e-05
9.97172e-07
9.77787e-05
1.03002e-06
9.78236e-05
1.06058e-06
9.7873e-05
1.08807e-06
9.79272e-05
1.11161e-06
9.79861e-05
1.13028e-06
9.80493e-05
1.14312e-06
9.81162e-05
1.1492e-06
9.81857e-05
1.14769e-06
9.82564e-05
1.13778e-06
1.11947e-06
9.83264e-05
0.000100071
3.92928e-08
0.000100078
1.13954e-07
0.000100088
1.82109e-07
0.000100101
2.4368e-07
0.000100116
2.99274e-07
0.000100132
3.49679e-07
0.00010015
3.95726e-07
0.000100168
4.38249e-07
0.000100187
4.78028e-07
0.000100206
5.15743e-07
0.000100225
5.51975e-07
0.000100245
5.87209e-07
0.000100266
6.21833e-07
0.000100287
6.56147e-07
0.000100309
6.90362e-07
0.000100331
7.24604e-07
0.000100355
7.58923e-07
0.000100381
7.93285e-07
0.000100408
8.27577e-07
0.000100438
8.61603e-07
0.00010047
8.95084e-07
0.000100505
9.27654e-07
0.000100544
9.58863e-07
0.000100585
9.88177e-07
0.000100631
1.01499e-06
0.00010068
1.03863e-06
0.000100734
1.05838e-06
0.00010079
1.07352e-06
0.00010085
1.08332e-06
0.000100912
1.08713e-06
0.000100976
1.08443e-06
0.000101039
1.07476e-06
1.05835e-06
0.0001011
0.00010293
3.70822e-08
0.000102937
1.07596e-07
0.000102946
1.72252e-07
0.000102959
2.31039e-07
0.000102974
2.84468e-07
0.00010299
3.33217e-07
0.000103008
3.78008e-07
0.000103027
4.19568e-07
0.000103046
4.58579e-07
0.000103066
4.95641e-07
0.000103087
5.31268e-07
0.000103108
5.65886e-07
0.00010313
5.99832e-07
0.000103153
6.33359e-07
0.000103177
6.66637e-07
0.000103202
6.99755e-07
0.000103228
7.3273e-07
0.000103256
7.65499e-07
0.000103285
7.97929e-07
0.000103317
8.29813e-07
0.000103351
8.60871e-07
0.000103388
8.90757e-07
0.000103428
9.19057e-07
0.000103471
9.45298e-07
0.000103517
9.6896e-07
0.000103566
9.8949e-07
0.000103618
1.00632e-06
0.000103673
1.01891e-06
0.000103729
1.02674e-06
0.000103787
1.02941e-06
0.000103845
1.02662e-06
0.000103902
1.01816e-06
1.00444e-06
0.000103955
0.000105871
3.49415e-08
0.000105877
1.01423e-07
0.000105887
1.62604e-07
0.000105899
2.18537e-07
0.000105914
2.6967e-07
0.000105931
3.16591e-07
0.000105949
3.59929e-07
0.000105968
4.0032e-07
0.000105988
4.38355e-07
0.000106009
4.74562e-07
0.000106031
5.09388e-07
0.000106054
5.43204e-07
0.000106077
5.76298e-07
0.000106102
6.0888e-07
0.000106127
6.41084e-07
0.000106154
6.72967e-07
0.000106182
7.04519e-07
0.000106212
7.3566e-07
0.000106244
7.66244e-07
0.000106278
7.96066e-07
0.000106314
8.24859e-07
0.000106352
8.52304e-07
0.000106393
8.78034e-07
0.000106437
9.01646e-07
0.000106483
9.22708e-07
0.000106532
9.40781e-07
0.000106583
9.55439e-07
0.000106635
9.66292e-07
0.000106689
9.73013e-07
0.000106743
9.75362e-07
0.000106796
9.73239e-07
0.000106848
9.66609e-07
9.55968e-07
0.000106896
0.000108896
3.28419e-08
0.000108902
9.53574e-08
0.000108911
1.53063e-07
0.000108924
2.0607e-07
0.000108938
2.54781e-07
0.000108955
2.99713e-07
0.000108974
3.41417e-07
0.000108994
3.80444e-07
0.000109015
4.1731e-07
0.000109037
4.52469e-07
0.00010906
4.86311e-07
0.000109084
5.19151e-07
0.000109109
5.51235e-07
0.000109135
5.82733e-07
0.000109163
6.13745e-07
0.000109191
6.44305e-07
0.000109221
6.74383e-07
0.000109253
7.03886e-07
0.000109287
7.32668e-07
0.000109322
7.60531e-07
0.00010936
7.87232e-07
0.0001094
8.12486e-07
0.000109442
8.35978e-07
0.000109486
8.57374e-07
0.000109532
8.7633e-07
0.000109581
8.92513e-07
0.00010963
9.05618e-07
0.000109681
9.15389e-07
0.000109733
9.21636e-07
0.000109784
9.24259e-07
0.000109834
9.23285e-07
0.000109882
9.188e-07
9.11335e-07
0.000109926
0.000112007
3.07584e-08
0.000112013
8.93294e-08
0.000112022
1.43534e-07
0.000112035
1.93535e-07
0.00011205
2.39701e-07
0.000112067
2.82491e-07
0.000112086
3.22388e-07
0.000112107
3.59871e-07
0.000112128
3.95384e-07
0.000112152
4.29319e-07
0.000112176
4.62007e-07
0.000112201
4.93716e-07
0.000112228
5.24649e-07
0.000112256
5.54943e-07
0.000112285
5.8467e-07
0.000112315
6.13842e-07
0.000112347
6.42415e-07
0.000112381
6.70294e-07
0.000112416
6.97337e-07
0.000112453
7.23361e-07
0.000112492
7.48147e-07
0.000112533
7.71453e-07
0.000112576
7.93015e-07
0.000112621
8.12565e-07
0.000112668
8.29841e-07
0.000112716
8.44604e-07
0.000112765
8.56649e-07
0.000112814
8.65824e-07
0.000112864
8.72046e-07
0.000112913
8.75315e-07
0.00011296
8.75742e-07
0.000113006
8.73483e-07
8.69068e-07
0.000113048
0.000115207
2.86693e-08
0.000115213
8.32789e-08
0.000115222
1.33936e-07
0.000115235
1.80842e-07
0.00011525
2.24344e-07
0.000115268
2.64849e-07
0.000115288
3.02784e-07
0.000115309
3.38559e-07
0.000115332
3.72556e-07
0.000115356
4.05106e-07
0.000115381
4.3649e-07
0.000115408
4.66929e-07
0.000115436
4.96589e-07
0.000115466
5.25576e-07
0.000115496
5.53938e-07
0.000115528
5.81674e-07
0.000115562
6.08729e-07
0.000115597
6.35009e-07
0.000115634
6.60382e-07
0.000115673
6.84683e-07
0.000115714
7.07724e-07
0.000115756
7.293e-07
0.000115799
7.49201e-07
0.000115845
7.67221e-07
0.000115891
7.83168e-07
0.000115939
7.96879e-07
0.000115988
8.0823e-07
0.000116036
8.17149e-07
0.000116085
8.23629e-07
0.000116132
8.27736e-07
0.000116178
8.29629e-07
0.000116222
8.29497e-07
8.2784e-07
0.000116264
0.000118498
2.65536e-08
0.000118504
7.71475e-08
0.000118514
1.24182e-07
0.000118527
1.67891e-07
0.000118543
2.08602e-07
0.000118561
2.4668e-07
0.000118581
2.82497e-07
0.000118603
3.16408e-07
0.000118627
3.48732e-07
0.000118652
3.79749e-07
0.000118679
4.0969e-07
0.000118707
4.38735e-07
0.000118737
4.67016e-07
0.000118768
4.94611e-07
0.0001188
5.21551e-07
0.000118834
5.47819e-07
0.000118869
5.7336e-07
0.000118906
5.98081e-07
0.000118945
6.21863e-07
0.000118985
6.44562e-07
0.000119027
6.66017e-07
0.00011907
6.86064e-07
0.000119115
7.04541e-07
0.000119161
7.21294e-07
0.000119208
7.3619e-07
0.000119255
7.49126e-07
0.000119304
7.60041e-07
0.000119352
7.6892e-07
0.0001194
7.75808e-07
0.000119446
7.80808e-07
0.000119492
7.841e-07
0.000119536
7.85883e-07
7.86612e-07
0.000119577
0.000121883
2.43941e-08
0.00012189
7.0886e-08
0.0001219
1.14205e-07
0.000121913
1.54612e-07
0.000121929
1.92416e-07
0.000121948
2.27941e-07
0.000121969
2.61509e-07
0.000121992
2.93419e-07
0.000122017
3.23939e-07
0.000122043
3.53294e-07
0.000122071
3.81672e-07
0.000122101
4.09215e-07
0.000122132
4.36024e-07
0.000122164
4.62154e-07
0.000122198
4.87619e-07
0.000122233
5.12395e-07
0.00012227
5.36424e-07
0.000122309
5.59619e-07
0.000122349
5.81875e-07
0.00012239
6.0307e-07
0.000122433
6.23072e-07
0.000122478
6.41754e-07
0.000122523
6.5899e-07
0.00012257
6.74673e-07
0.000122617
6.88716e-07
0.000122665
7.01063e-07
0.000122714
7.11697e-07
0.000122762
7.20642e-07
0.00012281
7.27971e-07
0.000122857
7.33806e-07
0.000122903
7.38327e-07
0.000122947
7.41723e-07
7.44392e-07
0.000122989
0.000125366
2.21669e-08
0.000125372
6.44279e-08
0.000125382
1.03901e-07
0.000125396
1.40872e-07
0.000125413
1.75628e-07
0.000125432
2.08458e-07
0.000125454
2.39637e-07
0.000125478
2.69413e-07
0.000125504
2.97999e-07
0.000125532
3.25577e-07
0.000125561
3.52289e-07
0.000125592
3.78242e-07
0.000125625
4.03509e-07
0.000125659
4.28122e-07
0.000125694
4.52084e-07
0.000125731
4.75363e-07
0.00012577
4.97901e-07
0.00012581
5.19618e-07
0.000125851
5.40422e-07
0.000125894
5.60213e-07
0.000125938
5.78886e-07
0.000125984
5.96341e-07
0.00012603
6.12487e-07
0.000126078
6.27252e-07
0.000126126
6.40584e-07
0.000126175
6.52462e-07
0.000126223
6.62897e-07
0.000126272
6.71936e-07
0.00012632
6.79666e-07
0.000126368
6.86212e-07
0.000126415
6.91744e-07
0.00012646
6.96428e-07
7.00609e-07
0.000126504
0.000128947
1.98629e-08
0.000128954
5.77443e-08
0.000128965
9.32418e-08
0.000128979
1.2666e-07
0.000128996
1.58259e-07
0.000129016
1.88285e-07
0.000129039
2.16965e-07
0.000129064
2.44496e-07
0.000129091
2.71042e-07
0.00012912
2.96736e-07
0.00012915
3.21685e-07
0.000129183
3.4596e-07
0.000129217
3.69609e-07
0.000129252
3.92648e-07
0.000129289
4.15065e-07
0.000129328
4.36824e-07
0.000129368
4.5787e-07
0.000129409
4.78133e-07
0.000129452
4.97533e-07
0.000129496
5.15986e-07
0.000129542
5.33411e-07
0.000129588
5.4973e-07
0.000129636
5.64882e-07
0.000129684
5.78818e-07
0.000129734
5.91514e-07
0.000129783
6.02971e-07
0.000129833
6.13217e-07
0.000129882
6.2231e-07
0.000129932
6.30339e-07
0.00012998
6.37419e-07
0.000130028
6.43702e-07
0.000130076
6.49325e-07
6.54576e-07
0.000130122
0.000132631
1.74301e-08
0.000132639
5.07011e-08
0.00013265
8.20122e-08
0.000132665
1.11692e-07
0.000132683
1.39973e-07
0.000132704
1.67058e-07
0.000132728
1.93124e-07
0.000132754
2.18313e-07
0.000132783
2.42735e-07
0.000132813
2.66478e-07
0.000132845
2.89607e-07
0.000132879
3.12162e-07
0.000132914
3.34163e-07
0.000132951
3.5561e-07
0.00013299
3.76479e-07
0.00013303
3.96734e-07
0.000133071
4.16319e-07
0.000133114
4.35174e-07
0.000133159
4.53228e-07
0.000133204
4.70413e-07
0.000133251
4.86665e-07
0.000133299
5.01927e-07
0.000133348
5.16156e-07
0.000133397
5.29324e-07
0.000133447
5.41424e-07
0.000133498
5.52469e-07
0.000133548
5.62497e-07
0.000133599
5.71566e-07
0.00013365
5.7976e-07
0.0001337
5.87183e-07
0.00013375
5.9396e-07
0.000133799
6.00202e-07
6.06147e-07
0.000133847
0.000136421
1.49094e-08
0.000136428
4.33706e-08
0.00013644
7.03489e-08
0.000136455
9.61786e-08
0.000136474
1.21036e-07
0.000136496
1.45071e-07
0.000136521
1.68415e-07
0.000136548
1.91155e-07
0.000136577
2.13349e-07
0.000136609
2.35041e-07
0.000136642
2.56254e-07
0.000136677
2.77002e-07
0.000136714
2.97283e-07
0.000136753
3.1708e-07
0.000136793
3.36363e-07
0.000136835
3.55089e-07
0.000136878
3.73206e-07
0.000136922
3.90657e-07
0.000136968
4.07382e-07
0.000137015
4.23326e-07
0.000137063
4.38437e-07
0.000137113
4.52673e-07
0.000137163
4.66006e-07
0.000137214
4.7842e-07
0.000137265
4.89918e-07
0.000137317
5.0052e-07
0.000137369
5.10264e-07
0.000137422
5.19206e-07
0.000137474
5.27418e-07
0.000137526
5.34986e-07
0.000137578
5.42012e-07
0.00013763
5.48576e-07
5.54874e-07
0.000137681
0.000140319
1.20915e-08
0.000140327
3.53081e-08
0.000140339
5.7608e-08
0.000140356
7.93562e-08
0.000140377
1.00647e-07
0.0001404
1.21556e-07
0.000140426
1.42143e-07
0.000140455
1.62421e-07
0.000140486
1.82387e-07
0.000140519
2.02036e-07
0.000140554
2.2135e-07
0.000140591
2.40307e-07
0.000140629
2.58884e-07
0.000140669
2.77051e-07
0.000140711
2.9477e-07
0.000140754
3.11993e-07
0.000140798
3.28672e-07
0.000140844
3.44752e-07
0.000140891
3.60185e-07
0.00014094
3.74921e-07
0.000140989
3.88922e-07
0.00014104
4.02156e-07
0.000141091
4.14604e-07
0.000141143
4.26258e-07
0.000141196
4.37126e-07
0.00014125
4.4723e-07
0.000141303
4.56604e-07
0.000141357
4.65296e-07
0.000141411
4.73368e-07
0.000141465
4.80885e-07
0.000141519
4.87929e-07
0.000141573
4.94555e-07
5.0092e-07
0.000141627
0.000144327
9.31861e-09
0.000144336
2.70711e-08
0.000144349
4.45399e-08
0.000144366
6.20492e-08
0.000144387
7.95787e-08
0.000144411
9.71712e-08
0.000144439
1.14842e-07
0.000144469
1.32519e-07
0.000144501
1.50131e-07
0.000144535
1.67626e-07
0.000144572
1.84942e-07
0.00014461
2.02025e-07
0.00014465
2.18832e-07
0.000144692
2.35316e-07
0.000144735
2.51429e-07
0.00014478
2.67122e-07
0.000144826
2.82344e-07
0.000144874
2.97047e-07
0.000144923
3.11184e-07
0.000144973
3.24717e-07
0.000145025
3.37611e-07
0.000145077
3.49842e-07
0.00014513
3.61396e-07
0.000145184
3.72269e-07
0.000145239
3.8247e-07
0.000145294
3.92019e-07
0.00014535
4.00944e-07
0.000145406
4.09286e-07
0.000145462
4.17091e-07
0.000145518
4.24411e-07
0.000145575
4.31304e-07
0.000145632
4.37806e-07
4.44043e-07
0.000145689
0.000148452
5.5817e-09
0.000148462
1.70139e-08
0.000148477
2.92013e-08
0.000148497
4.24326e-08
0.00014852
5.63117e-08
0.000148546
7.07378e-08
0.000148576
8.56407e-08
0.000148607
1.00857e-07
0.000148641
1.16252e-07
0.000148677
1.31723e-07
0.000148715
1.47134e-07
0.000148754
1.62403e-07
0.000148796
1.77481e-07
0.000148839
1.92313e-07
0.000148883
2.06844e-07
0.00014893
2.21024e-07
0.000148977
2.34803e-07
0.000149026
2.48135e-07
0.000149076
2.60981e-07
0.000149128
2.73305e-07
0.00014918
2.85078e-07
0.000149234
2.9628e-07
0.000149288
3.06901e-07
0.000149344
3.16938e-07
0.0001494
3.26401e-07
0.000149456
3.35303e-07
0.000149514
3.43669e-07
0.000149571
3.51526e-07
0.00014963
3.5891e-07
0.000149688
3.65857e-07
0.000149747
3.7241e-07
0.000149806
3.78585e-07
3.84483e-07
0.000149866
0.000152692
2.64051e-09
0.000152702
7.37515e-09
0.000152717
1.39036e-08
0.000152737
2.22665e-08
0.000152762
3.19111e-08
0.000152789
4.28478e-08
0.00015282
5.48011e-08
0.000152854
6.73862e-08
0.00015289
8.03973e-08
0.000152928
9.37471e-08
0.000152968
1.07194e-07
0.000153009
1.20614e-07
0.000153053
1.33939e-07
0.000153098
1.47098e-07
0.000153145
1.60034e-07
0.000153193
1.72695e-07
0.000153243
1.85032e-07
0.000153294
1.97e-07
0.000153347
2.08562e-07
0.0001534
2.19686e-07
0.000153455
2.30348e-07
0.000153511
2.40529e-07
0.000153567
2.50214e-07
0.000153625
2.59403e-07
0.000153683
2.68103e-07
0.000153742
2.76326e-07
0.000153802
2.84088e-07
0.000153862
2.91411e-07
0.000153922
2.98319e-07
0.000153983
3.04837e-07
0.000154045
3.10994e-07
0.000154107
3.16799e-07
3.22328e-07
0.000154169
0.000157058
-3.55082e-09
0.000157072
-6.85877e-09
0.000157092
-5.73998e-09
0.000157115
-8.92652e-10
0.000157141
5.10655e-09
0.000157171
1.2914e-08
0.000157204
2.22434e-08
0.000157239
3.25404e-08
0.000157276
4.35165e-08
0.000157314
5.49734e-08
0.000157355
6.64884e-08
0.000157398
7.80674e-08
0.000157442
8.96402e-08
0.000157488
1.01117e-07
0.000157536
1.12435e-07
0.000157585
1.23545e-07
0.000157635
1.34399e-07
0.000157687
1.44956e-07
0.000157741
1.55184e-07
0.000157795
1.65049e-07
0.000157851
1.7453e-07
0.000157908
1.83606e-07
0.000157966
1.92264e-07
0.000158025
2.00509e-07
0.000158085
2.08343e-07
0.000158145
2.15771e-07
0.000158207
2.228e-07
0.000158269
2.29444e-07
0.000158331
2.35718e-07
0.000158394
2.41636e-07
0.000158458
2.47218e-07
0.000158523
2.52462e-07
2.57429e-07
0.000158587
0.000161542
-6.80912e-09
0.000161555
-1.98325e-08
0.000161575
-2.60202e-08
0.000161601
-2.73247e-08
0.000161632
-2.53067e-08
0.000161665
-2.04775e-08
0.000161701
-1.37505e-08
0.00016174
-6.02569e-09
0.000161781
2.58435e-09
0.000161823
1.26125e-08
0.000161867
2.2374e-08
0.000161913
3.22624e-08
0.00016196
4.21667e-08
0.00016201
5.20352e-08
0.00016206
6.18241e-08
0.000162112
7.14674e-08
0.000162166
8.0916e-08
0.000162221
9.01328e-08
0.000162277
9.9091e-08
0.000162334
1.07761e-07
0.000162392
1.16139e-07
0.000162452
1.24194e-07
0.000162512
1.31866e-07
0.000162573
1.39188e-07
0.000162636
1.46178e-07
0.000162699
1.52837e-07
0.000162762
1.59165e-07
0.000162826
1.65171e-07
0.000162891
1.70863e-07
0.000162957
1.76249e-07
0.000163023
1.81342e-07
0.000163089
1.8614e-07
1.90688e-07
0.000163156
0.000166167
-1.98471e-08
0.000166189
-4.19875e-08
0.000166215
-5.21306e-08
0.000166244
-5.62403e-08
0.000166275
-5.66644e-08
0.000166309
-5.40449e-08
0.000166344
-4.94082e-08
0.000166382
-4.3477e-08
0.000166421
-3.6611e-08
0.000166463
-2.90704e-08
0.000166506
-2.12902e-08
0.000166552
-1.3287e-08
0.000166599
-5.14504e-09
0.000166648
2.99087e-09
0.000166699
1.11277e-08
0.000166751
1.9176e-08
0.000166805
2.7095e-08
0.00016686
3.48486e-08
0.000166917
4.24092e-08
0.000166975
4.97496e-08
0.000167034
5.68482e-08
0.000167095
6.37117e-08
0.000167157
7.0217e-08
0.000167219
7.65092e-08
0.000167283
8.2528e-08
0.000167347
8.82572e-08
0.000167413
9.37024e-08
0.000167479
9.88656e-08
0.000167546
1.0375e-07
0.000167614
1.08358e-07
0.000167683
1.127e-07
0.000167752
1.16771e-07
1.20614e-07
0.000167822
0.000170912
-3.08185e-08
0.000170941
-7.13766e-08
0.000170976
-8.71263e-08
0.000171015
-9.55387e-08
0.000171057
-9.8497e-08
0.0001711
-9.73615e-08
0.000171145
-9.40417e-08
0.000171191
-8.94431e-08
0.000171238
-8.39601e-08
0.000171287
-7.7829e-08
0.000171337
-7.13579e-08