/*--------------------------------*- C++ -*----------------------------------*\
  =========                 |
  \\      /  F ield         | OpenFOAM: The Open Source CFD Toolbox
   \\    /   O peration     | Website:  https://openfoam.org
    \\  /    A nd           | Version:  10
     \\/     M anipulation  |
\*---------------------------------------------------------------------------*/
FoamFile
{
    format      ascii;
    class       volVectorField;
    location    "0.12";
    object      U;
}
// * * * * * * * * * * * * * * * * * * * * * * * * * * * * * * * * * * * * * //

dimensions      [0 1 -1 0 0 0 0];

internalField   nonuniform List<vector> 
6820
(
(7.28177 0.0248331 0)
(7.1781 0.0400711 0)
(7.05522 0.0450457 0)
(6.92629 0.0477477 0)
(6.79769 0.0488962 0)
(6.66984 0.049152 0)
(6.54319 0.0489592 0)
(6.41819 0.0485104 0)
(6.29495 0.0479221 0)
(6.17341 0.0472732 0)
(6.05348 0.0466132 0)
(5.93504 0.0459762 0)
(5.81791 0.0453885 0)
(5.70191 0.0448718 0)
(5.5868 0.0444463 0)
(5.47231 0.0441326 0)
(5.35812 0.0439534 0)
(5.24386 0.0439345 0)
(5.1291 0.0441063 0)
(5.01334 0.0445052 0)
(4.89596 0.0451746 0)
(4.77626 0.0461665 0)
(4.65338 0.0475433 0)
(4.52633 0.0493793 0)
(4.39389 0.0517632 0)
(4.25463 0.0548008 0)
(4.10685 0.0586128 0)
(3.94849 0.0633664 0)
(3.7771 0.0691451 0)
(3.58993 0.076509 0)
(3.38214 0.0845664 0)
(3.15521 0.0970394 0)
(2.88073 0.110984 0)
(7.35923 0.0259136 0)
(7.42102 0.0358596 0)
(7.47615 0.0377459 0)
(7.52646 0.0398853 0)
(7.57255 0.0414535 0)
(7.61327 0.0427783 0)
(7.64859 0.0441384 0)
(7.67892 0.045543 0)
(7.70455 0.0469933 0)
(7.72575 0.0485015 0)
(7.74278 0.0500754 0)
(7.75589 0.051725 0)
(7.76529 0.0534648 0)
(7.77114 0.0553145 0)
(7.77358 0.0572999 0)
(7.77272 0.0594538 0)
(7.7686 0.0618179 0)
(7.76125 0.0644448 0)
(7.75065 0.0673998 0)
(7.7367 0.0707644 0)
(7.71925 0.0746396 0)
(7.69807 0.0791507 0)
(7.67282 0.0844534 0)
(7.64304 0.090741 0)
(7.60812 0.0982556 0)
(7.56724 0.107297 0)
(7.51934 0.118247 0)
(7.46297 0.131581 0)
(7.39643 0.147885 0)
(7.31687 0.168083 0)
(7.22266 0.192615 0)
(7.10478 0.225312 0)
(6.97475 0.261118 0)
(7.33541 0.00697402 0)
(7.34557 0.0102801 0)
(7.35446 0.0129606 0)
(7.3621 0.0164878 0)
(7.37035 0.0194825 0)
(7.3791 0.022114 0)
(7.38829 0.024611 0)
(7.39806 0.0269844 0)
(7.40842 0.0292574 0)
(7.41931 0.0314722 0)
(7.43069 0.0336652 0)
(7.44248 0.0358701 0)
(7.45465 0.038122 0)
(7.46711 0.0404584 0)
(7.47982 0.0429204 0)
(7.49271 0.045555 0)
(7.50575 0.0484171 0)
(7.51889 0.0515728 0)
(7.5321 0.0551026 0)
(7.54536 0.0591059 0)
(7.55865 0.0637055 0)
(7.57198 0.0690547 0)
(7.58537 0.0753456 0)
(7.59884 0.0828195 0)
(7.61243 0.0917829 0)
(7.62622 0.102622 0)
(7.64029 0.11584 0)
(7.65472 0.132058 0)
(7.66964 0.152151 0)
(7.68524 0.177072 0)
(7.70162 0.208559 0)
(7.71972 0.247789 0)
(7.73973 0.298135 0)
(7.33493 0.00933932 0)
(7.34243 0.0202466 0)
(7.3479 0.0258244 0)
(7.35114 0.0296317 0)
(7.35387 0.0321772 0)
(7.35616 0.033984 0)
(7.35794 0.035469 0)
(7.35939 0.036778 0)
(7.36062 0.0379934 0)
(7.36167 0.0391848 0)
(7.36256 0.0403998 0)
(7.36334 0.0416742 0)
(7.36402 0.0430406 0)
(7.36463 0.0445312 0)
(7.36517 0.0461801 0)
(7.36565 0.0480263 0)
(7.36609 0.0501155 0)
(7.36649 0.0525022 0)
(7.36688 0.0552521 0)
(7.36726 0.0584457 0)
(7.36768 0.0621828 0)
(7.36818 0.0665873 0)
(7.36883 0.0718136 0)
(7.36975 0.0780549 0)
(7.37108 0.0855547 0)
(7.37307 0.0946187 0)
(7.37604 0.105636 0)
(7.38048 0.119098 0)
(7.38705 0.13563 0)
(7.3969 0.156031 0)
(7.41118 0.181186 0)
(7.43314 0.212517 0)
(7.46341 0.249596 0)
(7.33399 0.00644486 0)
(7.33869 0.0128804 0)
(7.34323 0.0158242 0)
(7.34667 0.0185244 0)
(7.3498 0.0209778 0)
(7.35254 0.02316 0)
(7.35477 0.025254 0)
(7.3566 0.0273027 0)
(7.35809 0.0293164 0)
(7.35926 0.0313215 0)
(7.36012 0.0333439 0)
(7.36068 0.0354086 0)
(7.36095 0.0375434 0)
(7.36092 0.0397799 0)
(7.36059 0.0421544 0)
(7.35995 0.0447065 0)
(7.35899 0.0474848 0)
(7.3577 0.0505479 0)
(7.35608 0.053966 0)
(7.35411 0.0578228 0)
(7.3518 0.0622193 0)
(7.34915 0.0672777 0)
(7.3462 0.0731457 0)
(7.34298 0.0800022 0)
(7.33958 0.0880644 0)
(7.33613 0.0975935 0)
(7.33284 0.108904 0)
(7.33003 0.122369 0)
(7.32817 0.138417 0)
(7.32809 0.15755 0)
(7.33065 0.18017 0)
(7.33811 0.206941 0)
(7.35141 0.236832 0)
(7.33374 0.00542228 0)
(7.33769 0.013318 0)
(7.34194 0.0186969 0)
(7.34521 0.0230853 0)
(7.34801 0.0265556 0)
(7.35045 0.029272 0)
(7.35248 0.0315523 0)
(7.35417 0.0335665 0)
(7.3556 0.0354094 0)
(7.35678 0.0371629 0)
(7.35771 0.0388914 0)
(7.35841 0.0406454 0)
(7.35888 0.0424695 0)
(7.35911 0.0444068 0)
(7.3591 0.0465006 0)
(7.35883 0.0488016 0)
(7.35831 0.0513584 0)
(7.35752 0.0542275 0)
(7.35646 0.0574762 0)
(7.35513 0.0611842 0)
(7.35353 0.0654465 0)
(7.35169 0.0703759 0)
(7.34963 0.0761068 0)
(7.34742 0.0827986 0)
(7.34514 0.0906396 0)
(7.34294 0.0998501 0)
(7.34101 0.110683 0)
(7.33968 0.123423 0)
(7.33936 0.138365 0)
(7.34074 0.155822 0)
(7.34455 0.175937 0)
(7.35232 0.19894 0)
(7.36481 0.223827 0)
(7.33346 0.00453522 0)
(7.33617 0.0113276 0)
(7.33948 0.0155972 0)
(7.34228 0.0188229 0)
(7.34482 0.0214654 0)
(7.34716 0.0237045 0)
(7.34921 0.0257629 0)
(7.35097 0.0277463 0)
(7.3525 0.0296985 0)
(7.35378 0.0316597 0)
(7.35484 0.0336651 0)
(7.35568 0.0357447 0)
(7.35629 0.0379286 0)
(7.35669 0.0402493 0)
(7.35687 0.0427428 0)
(7.35684 0.0454355 0)
(7.35658 0.0483866 0)
(7.35611 0.0516539 0)
(7.35542 0.055302 0)
(7.35454 0.0594062 0)
(7.35348 0.0640547 0)
(7.35229 0.0693509 0)
(7.35101 0.0754151 0)
(7.34974 0.0823859 0)
(7.3486 0.0904211 0)
(7.34775 0.0996971 0)
(7.34744 0.110403 0)
(7.348 0.122736 0)
(7.34987 0.136865 0)
(7.3537 0.152934 0)
(7.36015 0.170899 0)
(7.37044 0.190677 0)
(7.38513 0.211364 0)
(7.33331 0.0038804 0)
(7.33544 0.0103507 0)
(7.33837 0.0151536 0)
(7.34105 0.019164 0)
(7.34349 0.022616 0)
(7.34572 0.0255564 0)
(7.34767 0.0281425 0)
(7.34934 0.0304959 0)
(7.35078 0.0326925 0)
(7.352 0.0347994 0)
(7.35302 0.0368757 0)
(7.35384 0.0389714 0)
(7.35446 0.0411321 0)
(7.35489 0.0434015 0)
(7.35513 0.0458255 0)
(7.35519 0.0484747 0)
(7.35506 0.0513792 0)
(7.35476 0.0545902 0)
(7.35431 0.0581707 0)
(7.35372 0.0621925 0)
(7.35302 0.066737 0)
(7.35228 0.0718961 0)
(7.35156 0.0777727 0)
(7.35095 0.0844814 0)
(7.35061 0.0921458 0)
(7.3507 0.100896 0)
(7.35149 0.110857 0)
(7.35331 0.122143 0)
(7.35658 0.13482 0)
(7.36186 0.148895 0)
(7.36975 0.164202 0)
(7.38119 0.180474 0)
(7.3966 0.196903 0)
(7.33321 0.00340681 0)
(7.33481 0.0093695 0)
(7.33719 0.013901 0)
(7.33949 0.0175306 0)
(7.34164 0.0205583 0)
(7.34366 0.023123 0)
(7.3455 0.0254075 0)
(7.34713 0.0275453 0)
(7.34858 0.0296119 0)
(7.34985 0.031665 0)
(7.35093 0.0337525 0)
(7.35185 0.0359145 0)
(7.35259 0.0381873 0)
(7.35316 0.0406073 0)
(7.35357 0.0432091 0)
(7.35381 0.0460132 0)
(7.35391 0.0490801 0)
(7.35387 0.0524655 0)
(7.35372 0.0562248 0)
(7.35348 0.0604193 0)
(7.3532 0.0651176 0)
(7.35295 0.0703958 0)
(7.35279 0.0763365 0)
(7.35284 0.0830273 0)
(7.35324 0.090557 0)
(7.35419 0.0990099 0)
(7.35592 0.108454 0)
(7.35875 0.118931 0)
(7.36304 0.13042 0)
(7.36929 0.142828 0)
(7.37796 0.155905 0)
(7.38976 0.169277 0)
(7.40495 0.182221 0)
(7.33315 0.00303909 0)
(7.3344 0.00857227 0)
(7.33643 0.0130521 0)
(7.33854 0.0168194 0)
(7.34057 0.0201185 0)
(7.34251 0.0230352 0)
(7.3443 0.0256787 0)
(7.3459 0.0281434 0)
(7.34733 0.0304921 0)
(7.34859 0.0327788 0)
(7.34969 0.0350532 0)
(7.35063 0.0373598 0)
(7.35141 0.0397406 0)
(7.35205 0.0422377 0)
(7.35255 0.0448957 0)
(7.35293 0.047765 0)
(7.35319 0.0508846 0)
(7.35336 0.054297 0)
(7.35346 0.0580527 0)
(7.35353 0.0622075 0)
(7.35361 0.0668217 0)
(7.35378 0.0719584 0)
(7.35411 0.0776826 0)
(7.35473 0.0840578 0)
(7.35578 0.0911415 0)
(7.35743 0.0989783 0)
(7.35991 0.107588 0)
(7.3635 0.116953 0)
(7.36853 0.126993 0)
(7.37537 0.137548 0)
(7.38439 0.148324 0)
(7.39609 0.158907 0)
(7.4106 0.168662 0)
(7.33311 0.0027532 0)
(7.3341 0.0078955 0)
(7.3358 0.0122105 0)
(7.33765 0.0158603 0)
(7.33947 0.01903 0)
(7.34124 0.0218099 0)
(7.34291 0.0243121 0)
(7.34444 0.0266433 0)
(7.34584 0.0288797 0)
(7.3471 0.031082 0)
(7.34823 0.0333022 0)
(7.34924 0.0355848 0)
(7.35011 0.0379694 0)
(7.35087 0.0404925 0)
(7.35152 0.0431888 0)
(7.35207 0.0460926 0)
(7.35253 0.0492445 0)
(7.35294 0.0526887 0)
(7.35332 0.0564699 0)
(7.35371 0.0606342 0)
(7.35417 0.0652285 0)
(7.35477 0.0702996 0)
(7.35559 0.0758922 0)
(7.35674 0.0820451 0)
(7.35836 0.0887856 0)
(7.36062 0.096123 0)
(7.36372 0.104036 0)
(7.36789 0.112464 0)
(7.3734 0.12128 0)
(7.38054 0.130287 0)
(7.38958 0.139173 0)
(7.40085 0.14752 0)
(7.41437 0.154783 0)
(7.33308 0.00252313 0)
(7.33388 0.00731577 0)
(7.33533 0.0114723 0)
(7.33699 0.0150744 0)
(7.33868 0.0182747 0)
(7.34036 0.0211568 0)
(7.34197 0.0238072 0)
(7.34348 0.0263078 0)
(7.34488 0.0287194 0)
(7.34617 0.0310913 0)
(7.34734 0.0334684 0)
(7.34839 0.0358911 0)
(7.34934 0.0383975 0)
(7.3502 0.0410242 0)
(7.35096 0.0438073 0)
(7.35166 0.0467834 0)
(7.35231 0.0499897 0)
(7.35293 0.0534627 0)
(7.35356 0.0572391 0)
(7.35424 0.0613558 0)
(7.35502 0.0658493 0)
(7.35598 0.070753 0)
(7.35721 0.0760951 0)
(7.35879 0.081894 0)
(7.36087 0.0881532 0)
(7.36359 0.0948542 0)
(7.36713 0.101947 0)
(7.37166 0.109339 0)
(7.37741 0.116883 0)
(7.38458 0.124361 0)
(7.39335 0.131471 0)
(7.40393 0.137821 0)
(7.41624 0.142954 0)
(7.33307 0.00233346 0)
(7.33372 0.00681598 0)
(7.33496 0.0108013 0)
(7.33644 0.0143102 0)
(7.33798 0.0174491 0)
(7.33954 0.0202857 0)
(7.34106 0.0228926 0)
(7.34251 0.025346 0)
(7.34388 0.027709 0)
(7.34516 0.030035 0)
(7.34636 0.0323715 0)
(7.34747 0.0347608 0)
(7.34849 0.0372405 0)
(7.34945 0.0398455 0)
(7.35035 0.0426089 0)
(7.3512 0.0455626 0)
(7.35203 0.0487385 0)
(7.35287 0.0521678 0)
(7.35375 0.055881 0)
(7.35471 0.0599066 0)
(7.35581 0.06427 0)
(7.35711 0.0689914 0)
(7.3587 0.0740826 0)
(7.36068 0.0795437 0)
(7.36314 0.0853577 0)
(7.36623 0.0914843 0)
(7.37008 0.0978521 0)
(7.37483 0.10435 0)
(7.38065 0.110819 0)
(7.38767 0.117042 0)
(7.396 0.122735 0)
(7.40573 0.127548 0)
(7.41676 0.131109 0)
(7.33305 0.00217318 0)
(7.33361 0.0063787 0)
(7.33468 0.0101921 0)
(7.33601 0.0136062 0)
(7.33743 0.0167005 0)
(7.3389 0.0195368 0)
(7.34037 0.0221784 0)
(7.34179 0.0246908 0)
(7.34316 0.0271292 0)
(7.34447 0.02954 0)
(7.34571 0.0319643 0)
(7.34688 0.034439 0)
(7.348 0.0369979 0)
(7.34906 0.0396723 0)
(7.35008 0.0424918 0)
(7.35109 0.0454852 0)
(7.3521 0.0486797 0)
(7.35313 0.0521013 0)
(7.35424 0.0557733 0)
(7.35545 0.0597158 0)
(7.35682 0.063944 0)
(7.35841 0.0684665 0)
(7.3603 0.0732822 0)
(7.36258 0.0783768 0)
(7.36532 0.0837183 0)
(7.36865 0.0892523 0)
(7.37267 0.0948951 0)
(7.37749 0.100529 0)
(7.38321 0.105994 0)
(7.38992 0.111088 0)
(7.39766 0.115558 0)
(7.40646 0.119102 0)
(7.41616 0.121432 0)
(7.33305 0.00203454 0)
(7.33352 0.00599131 0)
(7.33446 0.00963468 0)
(7.33565 0.0129427 0)
(7.33697 0.0159699 0)
(7.33835 0.0187658 0)
(7.33976 0.0213822 0)
(7.34114 0.0238745 0)
(7.3425 0.0262934 0)
(7.34381 0.0286832 0)
(7.34507 0.0310841 0)
(7.3463 0.0335327 0)
(7.34748 0.0360619 0)
(7.34864 0.0387016 0)
(7.34979 0.0414797 0)
(7.35093 0.0444213 0)
(7.3521 0.0475498 0)
(7.35333 0.0508855 0)
(7.35464 0.0544455 0)
(7.35608 0.0582423 0)
(7.35769 0.0622827 0)
(7.35954 0.0665656 0)
(7.36169 0.0710793 0)
(7.3642 0.0757987 0)
(7.36716 0.0806815 0)
(7.37065 0.0856642 0)
(7.37475 0.0906578 0)
(7.37953 0.0955446 0)
(7.38506 0.100174 0)
(7.39138 0.104362 0)
(7.39848 0.107894 0)
(7.40633 0.110516 0)
(7.41478 0.112013 0)
(7.33304 0.00191204 0)
(7.33345 0.00564313 0)
(7.33428 0.00912013 0)
(7.33537 0.0123165 0)
(7.3366 0.0152707 0)
(7.33791 0.0180248 0)
(7.33926 0.0206239 0)
(7.34063 0.0231171 0)
(7.34198 0.0255501 0)
(7.34332 0.0279631 0)
(7.34463 0.0303924 0)
(7.34591 0.0328703 0)
(7.34718 0.035426 0)
(7.34844 0.0380857 0)
(7.34971 0.0408728 0)
(7.35099 0.0438086 0)
(7.35232 0.0469113 0)
(7.35372 0.0501958 0)
(7.35522 0.0536732 0)
(7.35686 0.0573492 0)
(7.35868 0.0612232 0)
(7.36074 0.0652859 0)
(7.36308 0.0695176 0)
(7.36577 0.0738858 0)
(7.36887 0.0783418 0)
(7.37243 0.0828186 0)
(7.37652 0.0872279 0)
(7.38117 0.0914584 0)
(7.38643 0.0953745 0)
(7.39228 0.0988173 0)
(7.3987 0.101609 0)
(7.40563 0.103547 0)
(7.41291 0.104479 0)
(7.33304 0.00180165 0)
(7.3334 0.00532562 0)
(7.33415 0.00864059 0)
(7.33515 0.0117206 0)
(7.3363 0.0145919 0)
(7.33754 0.0172889 0)
(7.33885 0.0198491 0)
(7.34019 0.0223142 0)
(7.34154 0.0247241 0)
(7.34289 0.027115 0)
(7.34423 0.0295201 0)
(7.34557 0.0319694 0)
(7.34691 0.0344899 0)
(7.34826 0.0371056 0)
(7.34963 0.0398374 0)
(7.35104 0.0427034 0)
(7.3525 0.045718 0)
(7.35406 0.0488919 0)
(7.35572 0.0522312 0)
(7.35753 0.0557363 0)
(7.35953 0.0594006 0)
(7.36175 0.0632093 0)
(7.36425 0.0671376 0)
(7.36706 0.0711485 0)
(7.37024 0.0751913 0)
(7.37382 0.0791994 0)
(7.37784 0.0830896 0)
(7.38232 0.086761 0)
(7.38726 0.0900957 0)
(7.39264 0.0929612 0)
(7.39841 0.0952153 0)
(7.40449 0.0967021 0)
(7.41073 0.0973203 0)
(7.33303 0.00170033 0)
(7.33336 0.00503176 0)
(7.33404 0.00818888 0)
(7.33497 0.0111489 0)
(7.33605 0.0139304 0)
(7.33725 0.0165618 0)
(7.33852 0.0190757 0)
(7.33985 0.0215084 0)
(7.3412 0.0238955 0)
(7.34257 0.0262701 0)
(7.34395 0.0286619 0)
(7.34535 0.031098 0)
(7.34676 0.033602 0)
(7.3482 0.0361947 0)
(7.34967 0.0388935 0)
(7.3512 0.0417123 0)
(7.3528 0.0446617 0)
(7.35449 0.0477478 0)
(7.3563 0.0509722 0)
(7.35826 0.0543305 0)
(7.3604 0.0578118 0)
(7.36276 0.061397 0)
(7.36537 0.0650579 0)
(7.36826 0.068756 0)
(7.37147 0.0724407 0)
(7.37501 0.0760492 0)
(7.37891 0.0795061 0)
(7.38318 0.0827233 0)
(7.38778 0.0856024 0)
(7.3927 0.0880363 0)
(7.39786 0.0899163 0)
(7.40317 0.0911272 0)
(7.4085 0.09161 0)
(7.33303 0.00160577 0)
(7.33333 0.00475584 0)
(7.33396 0.00775869 0)
(7.33483 0.0105957 0)
(7.33586 0.0132806 0)
(7.33701 0.0158367 0)
(7.33826 0.018292 0)
(7.33957 0.0206774 0)
(7.34092 0.023024 0)
(7.34231 0.0253606 0)
(7.34373 0.0277138 0)
(7.34517 0.0301075 0)
(7.34665 0.0325625 0)
(7.34817 0.0350968 0)
(7.34973 0.037725 0)
(7.35136 0.0404583 0)
(7.35307 0.0433039 0)
(7.35489 0.0462648 0)
(7.35682 0.0493392 0)
(7.3589 0.0525196 0)
(7.36116 0.0557921 0)
(7.36361 0.0591357 0)
(7.3663 0.062521 0)
(7.36923 0.0659101 0)
(7.37242 0.0692556 0)
(7.3759 0.0725005 0)
(7.37967 0.0755791 0)
(7.3837 0.0784175 0)
(7.38798 0.080936 0)
(7.39246 0.0830517 0)
(7.39707 0.0846853 0)
(7.40172 0.0857558 0)
(7.4063 0.0862353 0)
(7.33303 0.00151612 0)
(7.33331 0.00449311 0)
(7.33389 0.0073444 0)
(7.33471 0.0100558 0)
(7.3357 0.012638 0)
(7.33682 0.0151108 0)
(7.33805 0.0174981 0)
(7.33935 0.0198271 0)
(7.34071 0.0221248 0)
(7.34212 0.0244172 0)
(7.34357 0.0267276 0)
(7.34507 0.0290772 0)
(7.34661 0.0314842 0)
(7.3482 0.0339636 0)
(7.34986 0.0365271 0)
(7.35158 0.0391831 0)
(7.3534 0.0419356 0)
(7.35532 0.0447847 0)
(7.35736 0.0477258 0)
(7.35954 0.0507488 0)
(7.36188 0.053838 0)
(7.36441 0.0569714 0)
(7.36714 0.0601201 0)
(7.37008 0.0632479 0)
(7.37325 0.066312 0)
(7.37664 0.0692623 0)
(7.38024 0.0720433 0)
(7.38405 0.0745948 0)
(7.38802 0.0768547 0)
(7.39211 0.0787619 0)
(7.39624 0.0802615 0)
(7.40034 0.0812999 0)
(7.4043 0.0818725 0)
(7.33303 0.00142988 0)
(7.33329 0.00423958 0)
(7.33384 0.00694098 0)
(7.33463 0.00952414 0)
(7.33558 0.0119979 0)
(7.33668 0.0143793 0)
(7.33788 0.0166889 0)
(7.33918 0.0189502 0)
(7.34055 0.0211867 0)
(7.34198 0.0234206 0)
(7.34347 0.0256725 0)
(7.34501 0.0279604 0)
(7.34661 0.0302998 0)
(7.34827 0.0327032 0)
(7.35 0.0351798 0)
(7.35181 0.0377353 0)
(7.35371 0.0403716 0)
(7.35572 0.0430869 0)
(7.35785 0.0458745 0)
(7.36011 0.0487233 0)
(7.36252 0.0516169 0)
(7.36509 0.0545338 0)
(7.36784 0.0574468 0)
(7.37077 0.0603233 0)
(7.37389 0.0631256 0)
(7.37718 0.0658117 0)
(7.38063 0.0683362 0)
(7.38422 0.0706521 0)
(7.38792 0.0727135 0)
(7.39166 0.0744773 0)
(7.3954 0.0759082 0)
(7.39906 0.0769742 0)
(7.40254 0.077687 0)
(7.33302 0.00134581 0)
(7.33327 0.00399184 0)
(7.33381 0.00654399 0)
(7.33456 0.00899607 0)
(7.33549 0.0113561 0)
(7.33657 0.0136389 0)
(7.33776 0.0158627 0)
(7.33906 0.0180476 0)
(7.34044 0.0202142 0)
(7.34189 0.022382 0)
(7.34341 0.0245686 0)
(7.345 0.0267898 0)
(7.34665 0.0290584 0)
(7.34838 0.0313847 0)
(7.35017 0.0337756 0)
(7.35206 0.0362348 0)
(7.35403 0.0387623 0)
(7.35612 0.0413543 0)
(7.35831 0.0440032 0)
(7.36064 0.0466969 0)
(7.3631 0.0494194 0)
(7.3657 0.0521501 0)
(7.36846 0.0548642 0)
(7.37136 0.0575331 0)
(7.37442 0.0601246 0)
(7.37761 0.0626041 0)
(7.38092 0.064936 0)
(7.38431 0.0670851 0)
(7.38777 0.0690185 0)
(7.39123 0.0707079 0)
(7.39465 0.0721332 0)
(7.39796 0.0732784 0)
(7.40109 0.0741656 0)
(7.33302 0.00126286 0)
(7.33327 0.00374695 0)
(7.33378 0.00614933 0)
(7.33452 0.00846704 0)
(7.33543 0.0107077 0)
(7.33649 0.0128844 0)
(7.33768 0.0150131 0)
(7.33898 0.0171111 0)
(7.34037 0.0191961 0)
(7.34185 0.0212847 0)
(7.3434 0.0233919 0)
(7.34503 0.0255308 0)
(7.34673 0.0277123 0)
(7.34851 0.0299443 0)
(7.35037 0.0322318 0)
(7.35232 0.0345769 0)
(7.35436 0.0369783 0)
(7.3565 0.0394311 0)
(7.35876 0.0419272 0)
(7.36113 0.0444548 0)
(7.36362 0.0469988 0)
(7.36624 0.0495405 0)
(7.36899 0.0520581 0)
(7.37187 0.0545272 0)
(7.37486 0.0569217 0)
(7.37795 0.0592142 0)
(7.38113 0.061378 0)
(7.38436 0.0633876 0)
(7.38762 0.0652213 0)
(7.39086 0.0668621 0)
(7.39403 0.0683014 0)
(7.39708 0.0695346 0)
(7.39996 0.0705895 0)
(7.33302 0.0011801 0)
(7.33326 0.00350232 0)
(7.33376 0.00575349 0)
(7.33448 0.0079335 0)
(7.33538 0.01005 0)
(7.33644 0.012115 0)
(7.33763 0.0141425 0)
(7.33893 0.0161478 0)
(7.34034 0.0181461 0)
(7.34184 0.0201515 0)
(7.34342 0.0221767 0)
(7.34508 0.0242328 0)
(7.34683 0.0263282 0)
(7.34866 0.0284692 0)
(7.35057 0.0306591 0)
(7.35257 0.0328985 0)
(7.35466 0.0351849 0)
(7.35685 0.0375129 0)
(7.35915 0.0398742 0)
(7.36156 0.0422573 0)
(7.36407 0.0446483 0)
(7.3667 0.0470307 0)
(7.36944 0.0493856 0)
(7.37228 0.051693 0)
(7.37521 0.0539318 0)
(7.37822 0.0560813 0)
(7.38128 0.0581219 0)
(7.38438 0.0600363 0)
(7.38748 0.0618112 0)
(7.39054 0.0634381 0)
(7.39354 0.0649164 0)
(7.39641 0.0662487 0)
(7.39914 0.0674654 0)
(7.33302 0.00109669 0)
(7.33325 0.00325549 0)
(7.33375 0.00535263 0)
(7.33446 0.00739025 0)
(7.33536 0.00937592 0)
(7.33641 0.0113203 0)
(7.3376 0.0132358 0)
(7.33892 0.0151353 0)
(7.34034 0.0170318 0)
(7.34187 0.018937 0)
(7.34348 0.0208617 0)
(7.34518 0.0228148 0)
(7.34697 0.0248032 0)
(7.34884 0.0268316 0)
(7.3508 0.0289022 0)
(7.35285 0.0310146 0)
(7.35499 0.0331658 0)
(7.35723 0.0353503 0)
(7.35956 0.0375602 0)
(7.36199 0.0397851 0)
(7.36453 0.0420127 0)
(7.36716 0.0442287 0)
(7.36988 0.0464178 0)
(7.37268 0.0485639 0)
(7.37556 0.0506509 0)
(7.37849 0.0526635 0)
(7.38147 0.0545881 0)
(7.38446 0.0564138 0)
(7.38744 0.0581338 0)
(7.39038 0.0597456 0)
(7.39324 0.0612537 0)
(7.39601 0.0626651 0)
(7.39864 0.0640099 0)
(7.33302 0.00101187 0)
(7.33325 0.0030045 0)
(7.33375 0.00494455 0)
(7.33446 0.0068365 0)
(7.33535 0.00868836 0)
(7.3364 0.0105102 0)
(7.3376 0.0123133 0)
(7.33893 0.0141088 0)
(7.34036 0.0159074 0)
(7.34191 0.017719 0)
(7.34355 0.0195521 0)
(7.34528 0.0214134 0)
(7.3471 0.0233083 0)
(7.34901 0.0252396 0)
(7.351 0.0272083 0)
(7.35309 0.0292132 0)
(7.35527 0.0312505 0)
(7.35753 0.0333148 0)
(7.35989 0.0353984 0)
(7.36234 0.0374919 0)
(7.36488 0.0395845 0)
(7.36751 0.0416642 0)
(7.37021 0.0437187 0)
(7.37299 0.0457354 0)
(7.37582 0.047702 0)
(7.3787 0.0496079 0)
(7.38161 0.0514441 0)
(7.38452 0.0532046 0)
(7.38741 0.054887 0)
(7.39027 0.0564928 0)
(7.39307 0.0580294 0)
(7.39578 0.0595058 0)
(7.39839 0.0609504 0)
(7.33302 0.000924835 0)
(7.33325 0.0027465 0)
(7.33375 0.00452349 0)
(7.33446 0.00626158 0)
(7.33536 0.00796833 0)
(7.33642 0.00965264 0)
(7.33764 0.0113241 0)
(7.33898 0.0129924 0)
(7.34044 0.0146665 0)
(7.34201 0.0163545 0)
(7.34368 0.0180636 0)
(7.34545 0.0197994 0)
(7.34731 0.0215659 0)
(7.34925 0.0233654 0)
(7.35129 0.0251983 0)
(7.35341 0.027063 0)
(7.35562 0.028956 0)
(7.35792 0.030872 0)
(7.3603 0.0328042 0)
(7.36276 0.0347447 0)
(7.36531 0.0366845 0)
(7.36793 0.0386138 0)
(7.37062 0.0405228 0)
(7.37337 0.0424019 0)
(7.37617 0.0442423 0)
(7.379 0.0460367 0)
(7.38185 0.0477798 0)
(7.38471 0.0494688 0)
(7.38755 0.0511042 0)
(7.39036 0.0526898 0)
(7.39312 0.054234 0)
(7.39581 0.0557462 0)
(7.39842 0.0572519 0)
(7.33302 0.000834964 0)
(7.33326 0.00248093 0)
(7.33375 0.00409212 0)
(7.33447 0.00567696 0)
(7.33537 0.00724372 0)
(7.33644 0.00880086 0)
(7.33766 0.0103567 0)
(7.33902 0.0119188 0)
(7.3405 0.0134938 0)
(7.34209 0.0150875 0)
(7.34378 0.0167047 0)
(7.34557 0.0183489 0)
(7.34745 0.0200224 0)
(7.34942 0.021726 0)
(7.35148 0.023459 0)
(7.35363 0.0252192 0)
(7.35586 0.0270027 0)
(7.35818 0.0288045 0)
(7.36058 0.0306185 0)
(7.36306 0.0324378 0)
(7.36561 0.0342549 0)
(7.36823 0.036062 0)
(7.37091 0.0378515 0)
(7.37364 0.0396162 0)
(7.37642 0.0413502 0)
(7.37922 0.0430488 0)
(7.38205 0.0447093 0)
(7.38487 0.0463313 0)
(7.38769 0.047917 0)
(7.39048 0.0494713 0)
(7.39324 0.0510029 0)
(7.39595 0.0525203 0)
(7.3986 0.0540464 0)
(7.33302 0.000740946 0)
(7.33326 0.00220117 0)
(7.33377 0.00363274 0)
(7.33451 0.00504426 0)
(7.33543 0.00644293 0)
(7.33652 0.00783627 0)
(7.33777 0.00923198 0)
(7.33916 0.010637 0)
(7.34067 0.0120573 0)
(7.34229 0.0134979 0)
(7.34401 0.0149631 0)
(7.34584 0.0164557 0)
(7.34775 0.0179776 0)
(7.34975 0.0195293 0)
(7.35185 0.02111 0)
(7.35402 0.0227172 0)
(7.35628 0.0243479 0)
(7.35861 0.0259973 0)
(7.36103 0.0276604 0)
(7.36351 0.029331 0)
(7.36607 0.0310031 0)
(7.36868 0.0326703 0)
(7.37135 0.0343268 0)
(7.37407 0.0359673 0)
(7.37682 0.0375875 0)
(7.37961 0.0391846 0)
(7.38241 0.0407574 0)
(7.38521 0.0423065 0)
(7.38802 0.0438347 0)
(7.39081 0.045347 0)
(7.39357 0.046851 0)
(7.39631 0.0483539 0)
(7.39901 0.0498746 0)
(7.33302 0.000642927 0)
(7.33326 0.0019144 0)
(7.33378 0.00317348 0)
(7.33452 0.00443237 0)
(7.33545 0.0056979 0)
(7.33655 0.00697524 0)
(7.33781 0.00826872 0)
(7.33921 0.00958154 0)
(7.34073 0.0109162 0)
(7.34237 0.0122746 0)
(7.34411 0.0136582 0)
(7.34595 0.0150675 0)
(7.34789 0.0165027 0)
(7.34992 0.0179631 0)
(7.35203 0.019447 0)
(7.35423 0.020952 0)
(7.35651 0.0224749 0)
(7.35886 0.0240115 0)
(7.36129 0.0255574 0)
(7.36379 0.0271078 0)
(7.36635 0.0286577 0)
(7.36897 0.0302025 0)
(7.37165 0.0317378 0)
(7.37436 0.0332602 0)
(7.37712 0.0347669 0)
(7.3799 0.0362568 0)
(7.3827 0.0377296 0)
(7.38552 0.0391869 0)
(7.38833 0.040632 0)
(7.39114 0.0420695 0)
(7.39394 0.043506 0)
(7.39673 0.0449476 0)
(7.39949 0.0464102 0)
(7.33303 0.00053648 0)
(7.33329 0.00159235 0)
(7.33384 0.00263574 0)
(7.33462 0.00367911 0)
(7.3356 0.0047295 0)
(7.33675 0.0057945 0)
(7.33805 0.00688078 0)
(7.33949 0.00799235 0)
(7.34106 0.00913174 0)
(7.34273 0.010301 0)
(7.3445 0.0115012 0)
(7.34638 0.0127329 0)
(7.34834 0.0139959 0)
(7.35039 0.0152889 0)
(7.35252 0.01661 0)
(7.35473 0.0179564 0)
(7.35703 0.019325 0)
(7.35939 0.0207117 0)
(7.36182 0.0221125 0)
(7.36432 0.0235229 0)
(7.36688 0.0249387 0)
(7.3695 0.0263558 0)
(7.37216 0.0277707 0)
(7.37487 0.0291804 0)
(7.37761 0.030583 0)
(7.38038 0.0319775 0)
(7.38318 0.0333639 0)
(7.38599 0.0347437 0)
(7.38882 0.0361192 0)
(7.39164 0.0374941 0)
(7.39447 0.0388733 0)
(7.3973 0.0402607 0)
(7.40012 0.0416687 0)
(7.33302 0.000428115 0)
(7.33328 0.00128944 0)
(7.33382 0.00217608 0)
(7.33461 0.00310038 0)
(7.33559 0.00405945 0)
(7.33675 0.00505072 0)
(7.33806 0.0060735 0)
(7.33952 0.00712636 0)
(7.3411 0.00820758 0)
(7.3428 0.00931547 0)
(7.3446 0.0104481 0)
(7.34649 0.011604 0)
(7.34849 0.0127822 0)
(7.35056 0.0139814 0)
(7.35273 0.0151996 0)
(7.35497 0.0164346 0)
(7.35728 0.0176837 0)
(7.35967 0.0189439 0)
(7.36213 0.0202122 0)
(7.36465 0.0214854 0)
(7.36723 0.0227605 0)
(7.36987 0.0240349 0)
(7.37255 0.0253063 0)
(7.37527 0.026573 0)
(7.37803 0.0278341 0)
(7.38083 0.0290895 0)
(7.38364 0.0303398 0)
(7.38648 0.0315865 0)
(7.38933 0.0328321 0)
(7.3922 0.0340796 0)
(7.39507 0.0353331 0)
(7.39795 0.0365955 0)
(7.40084 0.037877 0)
(7.33303 0.000291576 0)
(7.33335 0.000856216 0)
(7.33399 0.00143085 0)
(7.33487 0.00203761 0)
(7.33594 0.00268544 0)
(7.33717 0.00338377 0)
(7.33854 0.00413417 0)
(7.34005 0.00493293 0)
(7.34167 0.00577759 0)
(7.3434 0.00666717 0)
(7.34522 0.00759829 0)
(7.34713 0.00856728 0)
(7.34913 0.00957109 0)
(7.35122 0.0106067 0)
(7.35338 0.0116712 0)
(7.35562 0.0127612 0)
(7.35793 0.0138732 0)
(7.36031 0.0150038 0)
(7.36276 0.0161494 0)
(7.36527 0.0173066 0)
(7.36784 0.018472 0)
(7.37046 0.019643 0)
(7.37313 0.0208168 0)
(7.37585 0.0219917 0)
(7.3786 0.0231665 0)
(7.38139 0.0243404 0)
(7.3842 0.0255137 0)
(7.38704 0.026687 0)
(7.38991 0.0278614 0)
(7.39279 0.0290387 0)
(7.39569 0.0302212 0)
(7.39861 0.0314094 0)
(7.40154 0.032611 0)
(7.33302 0.000186491 0)
(7.33329 0.000609245 0)
(7.3339 0.00112715 0)
(7.33476 0.0017352 0)
(7.33584 0.0023891 0)
(7.3371 0.00308521 0)
(7.33852 0.00382648 0)
(7.34006 0.00460595 0)
(7.34173 0.00541623 0)
(7.34351 0.00625166 0)
(7.34538 0.00710705 0)
(7.34734 0.00798201 0)
(7.34939 0.00887597 0)
(7.35152 0.00978715 0)
(7.35373 0.0107137 0)
(7.35602 0.011654 0)
(7.35837 0.0126059 0)
(7.3608 0.0135676 0)
(7.36329 0.0145369 0)
(7.36583 0.0155121 0)
(7.36844 0.0164912 0)
(7.37109 0.0174729 0)
(7.37379 0.018456 0)
(7.37653 0.0194398 0)
(7.37932 0.0204238 0)
(7.38213 0.0214081 0)
(7.38498 0.0223932 0)
(7.38785 0.0233797 0)
(7.39075 0.0243692 0)
(7.39367 0.025363 0)
(7.39661 0.0263631 0)
(7.39957 0.0273701 0)
(7.40255 0.0283901 0)
(7.33306 -4.99863e-05 0)
(7.33352 -0.000167347 0)
(7.33435 -0.000208703 0)
(7.33537 -0.000137693 0)
(7.33653 6.91368e-05 0)
(7.33786 0.00039317 0)
(7.33932 0.000809135 0)
(7.3409 0.00130233 0)
(7.34258 0.00186742 0)
(7.34434 0.00250581 0)
(7.3462 0.00319336 0)
(7.34814 0.00392064 0)
(7.35017 0.0046839 0)
(7.35228 0.00547902 0)
(7.35446 0.00630208 0)
(7.35672 0.00714928 0)
(7.35905 0.008017 0)
(7.36145 0.00890193 0)
(7.36391 0.00980102 0)
(7.36643 0.0107113 0)
(7.36901 0.0116302 0)
(7.37165 0.012555 0)
(7.37433 0.0134832 0)
(7.37706 0.0144134 0)
(7.37983 0.015345 0)
(7.38264 0.0162772 0)
(7.38548 0.0172096 0)
(7.38836 0.0181421 0)
(7.39127 0.0190745 0)
(7.39421 0.0200069 0)
(7.39717 0.0209397 0)
(7.40016 0.0218716 0)
(7.40318 0.0228068 0)
(7.33301 -0.000111383 0)
(7.33333 -0.000163364 0)
(7.3341 -8.02298e-06 0)
(7.33519 0.000262487 0)
(7.3365 0.00062677 0)
(7.33796 0.00106088 0)
(7.33953 0.00153408 0)
(7.34122 0.0020331 0)
(7.34303 0.002548 0)
(7.34493 0.00306489 0)
(7.34689 0.0036003 0)
(7.34893 0.00415518 0)
(7.35105 0.00472619 0)
(7.35324 0.00531108 0)
(7.3555 0.00590947 0)
(7.35783 0.00652032 0)
(7.36023 0.00714232 0)
(7.36269 0.00777418 0)
(7.36521 0.00841466 0)
(7.36778 0.00906255 0)
(7.37041 0.00971673 0)
(7.37308 0.0103765 0)
(7.3758 0.0110412 0)
(7.37857 0.0117109 0)
(7.38137 0.0123846 0)
(7.38421 0.013062 0)
(7.38708 0.013743 0)
(7.38999 0.0144279 0)
(7.39292 0.0151171 0)
(7.39587 0.0158113 0)
(7.39885 0.0165112 0)
(7.40185 0.0172167 0)
(7.40488 0.0179313 0)
(7.33314 -0.000696278 0)
(7.33396 -0.0019308 0)
(7.33509 -0.00271227 0)
(7.33632 -0.00314119 0)
(7.33764 -0.0033389 0)
(7.33907 -0.00334078 0)
(7.3406 -0.00318429 0)
(7.34222 -0.00290912 0)
(7.34391 -0.00254884 0)
(7.34569 -0.00213469 0)
(7.34757 -0.0016637 0)
(7.34954 -0.00114531 0)
(7.35159 -0.000591106 0)
(7.35372 -7.60418e-06 0)
(7.35592 0.000599041 0)
(7.35819 0.00122407 0)
(7.36054 0.00186388 0)
(7.36294 0.00251543 0)
(7.36542 0.00317655 0)
(7.36795 0.00384439 0)
(7.37054 0.00451905 0)
(7.37318 0.00519686 0)
(7.37587 0.00586694 0)
(7.37862 0.00653658 0)
(7.38141 0.0072068 0)
(7.38424 0.00787563 0)
(7.38711 0.00854184 0)
(7.39001 0.00920448 0)
(7.39296 0.0098626 0)
(7.39594 0.0105151 0)
(7.39895 0.0111612 0)
(7.402 0.0117989 0)
(7.40508 0.0124304 0)
(7.33307 -0.000295594 0)
(7.33391 -0.000640162 0)
(7.33541 -0.000778659 0)
(7.33705 -0.000867852 0)
(7.33878 -0.000895805 0)
(7.34062 -0.000864704 0)
(7.34251 -0.000799483 0)
(7.34445 -0.000709602 0)
(7.34645 -0.000591591 0)
(7.34851 -0.000437246 0)
(7.35063 -0.000263917 0)
(7.35281 -7.54987e-05 0)
(7.35504 0.000128492 0)
(7.35734 0.000348596 0)
(7.35969 0.000583404 0)
(7.3621 0.000832086 0)
(7.36456 0.00109391 0)
(7.36708 0.00136784 0)
(7.36964 0.00165224 0)
(7.37226 0.00194673 0)
(7.37491 0.00224848 0)
(7.3776 0.00255872 0)
(7.38032 0.00288569 0)
(7.3831 0.0032193 0)
(7.38592 0.00355701 0)
(7.38878 0.00389974 0)
(7.39166 0.00424761 0)
(7.39458 0.00460069 0)
(7.39752 0.00495936 0)
(7.40049 0.0053241 0)
(7.40348 0.00569582 0)
(7.40648 0.00607532 0)
(7.4095 0.00646504 0)
(7.33438 -0.00347905 0)
(7.33916 -0.00645827 0)
(7.3449 -0.0075877 0)
(7.3511 -0.0082252 0)
(7.35764 -0.00846519 0)
(7.36426 -0.00842121 0)
(7.37082 -0.00823638 0)
(7.37727 -0.00797074 0)
(7.38356 -0.00765003 0)
(7.38965 -0.00729481 0)
(7.39553 -0.00691899 0)
(7.40118 -0.00652776 0)
(7.4066 -0.00612452 0)
(7.41179 -0.00571358 0)
(7.41674 -0.0052971 0)
(7.42147 -0.00487706 0)
(7.42597 -0.00445542 0)
(7.43027 -0.00403389 0)
(7.43436 -0.0036145 0)
(7.43826 -0.00319764 0)
(7.44197 -0.00278651 0)
(7.44553 -0.00237973 0)
(7.44893 -0.00196737 0)
(7.45216 -0.00155957 0)
(7.45524 -0.00115981 0)
(7.45818 -0.000768081 0)
(7.46101 -0.000385147 0)
(7.46372 -1.21288e-05 0)
(7.46634 0.000349781 0)
(7.46888 0.000699213 0)
(7.47136 0.00103449 0)
(7.47378 0.00135321 0)
(7.47618 0.00165551 0)
(7.32978 -0.00390119 0)
(7.32458 -0.00808933 0)
(7.316 -0.0104361 0)
(7.30583 -0.012095 0)
(7.29548 -0.0131895 0)
(7.2851 -0.0138403 0)
(7.27481 -0.0141932 0)
(7.2648 -0.0143319 0)
(7.25516 -0.0143054 0)
(7.24595 -0.0141505 0)
(7.23721 -0.0138957 0)
(7.22895 -0.0135626 0)
(7.22119 -0.0131676 0)
(7.21394 -0.0127236 0)
(7.20719 -0.012241 0)
(7.20093 -0.0117284 0)
(7.19516 -0.0111928 0)
(7.18986 -0.0106401 0)
(7.18502 -0.0100748 0)
(7.18063 -0.00950159 0)
(7.17667 -0.00892254 0)
(7.17312 -0.00834378 0)
(7.16996 -0.00777716 0)
(7.16717 -0.00721753 0)
(7.16474 -0.0066654 0)
(7.16264 -0.00612465 0)
(7.16085 -0.00559912 0)
(7.15936 -0.00509283 0)
(7.15814 -0.00461047 0)
(7.15717 -0.00415731 0)
(7.15643 -0.00373941 0)
(7.15589 -0.00336478 0)
(7.15552 -0.00303669 0)
(2.5854 0.0950427 0)
(2.41841 0.0964764 0)
(2.26021 0.140272 0)
(2.15613 0.268282 0)
(2.19295 0.50098 0)
(2.49685 0.793702 0)
(3.15805 0.96867 0)
(4.05724 0.72199 0)
(4.92959 -0.133885 0)
(5.81015 -1.49364 0)
(6.30656 -2.78034 0)
(6.0439 -3.27954 0)