/*--------------------------------*- C++ -*----------------------------------*\
  =========                 |
  \\      /  F ield         | OpenFOAM: The Open Source CFD Toolbox
   \\    /   O peration     | Website:  https://openfoam.org
    \\  /    A nd           | Version:  10
     \\/     M anipulation  |
\*---------------------------------------------------------------------------*/
FoamFile
{
    format      ascii;
    class       volScalarField;
    location    "0.12";
    object      nut;
}
// * * * * * * * * * * * * * * * * * * * * * * * * * * * * * * * * * * * * * //

dimensions      [0 2 -1 0 0 0 0];

internalField   nonuniform List<scalar> 
6820
(
0.000503208
0.000397093
0.000324569
0.000269479
0.000236672
0.000214356
0.000197814
0.000185179
0.000174987
0.000166445
0.000159102
0.000152667
0.000146941
0.000141788
0.000137106
0.000132818
0.000128866
0.000125204
0.000121795
0.000118609
0.000115621
0.000112807
0.000110157
0.00010765
0.000105271
0.000103006
0.000100842
9.87732e-05
9.67681e-05
9.48756e-05
9.29375e-05
9.12548e-05
8.84687e-05
8.18444e-05
0.000143705
0.000196387
0.000210809
0.000206403
0.000197573
0.000187351
0.000177493
0.000168584
0.00016061
0.000153466
0.000147035
0.000141208
0.000135895
0.000131023
0.000126532
0.000122373
0.000118503
0.000114889
0.000111499
0.000108312
0.000105304
0.000102452
9.97491e-05
9.71788e-05
9.47295e-05
9.23932e-05
9.01556e-05
8.80196e-05
8.59358e-05
8.39747e-05
8.18727e-05
8.01808e-05
3.85913e-05
2.74018e-05
4.30061e-05
7.43784e-05
9.57458e-05
0.000109074
0.000116296
0.000119578
0.000120497
0.000119955
0.000118511
0.000116513
0.000114182
0.000111661
0.000109042
0.000106386
0.000103732
0.000101107
9.85285e-05
9.60067e-05
9.35483e-05
9.11582e-05
8.88367e-05
8.65841e-05
8.44011e-05
8.22853e-05
8.02346e-05
7.82485e-05
7.63237e-05
7.44512e-05
7.26304e-05
7.07945e-05
6.90672e-05
1.99666e-05
2.35363e-05
2.2091e-05
1.28381e-05
2.92842e-06
1.22723e-05
2.27229e-05
3.13039e-05
3.81999e-05
4.36653e-05
4.79424e-05
5.12462e-05
5.37518e-05
5.55972e-05
5.69017e-05
5.77632e-05
5.82614e-05
5.84621e-05
5.8419e-05
5.81764e-05
5.7771e-05
5.72328e-05
5.65872e-05
5.5855e-05
5.5054e-05
5.41997e-05
5.33048e-05
5.23811e-05
5.1438e-05
5.04815e-05
4.95221e-05
4.8583e-05
4.77299e-05
1.3242e-05
1.50942e-05
1.9943e-05
2.20357e-05
2.14879e-05
1.95583e-05
1.69572e-05
1.40522e-05
1.10591e-05
8.10567e-06
5.2746e-06
2.63563e-06
6.23224e-07
2.26329e-06
4.25849e-06
6.06291e-06
7.66471e-06
9.07137e-06
1.02948e-05
1.13485e-05
1.22464e-05
1.30025e-05
1.36299e-05
1.41415e-05
1.45497e-05
1.48664e-05
1.51029e-05
1.52705e-05
1.53808e-05
1.54487e-05
1.54905e-05
1.55455e-05
1.56449e-05
1.01869e-05
1.10355e-05
1.18677e-05
1.2666e-05
1.32944e-05
1.38283e-05
1.42147e-05
1.44208e-05
1.44601e-05
1.43555e-05
1.41295e-05
1.38058e-05
1.34069e-05
1.29477e-05
1.24466e-05
1.19191e-05
1.13784e-05
1.08353e-05
1.02986e-05
9.77476e-06
9.26888e-06
8.78435e-06
8.32349e-06
7.88752e-06
7.4765e-06
7.08978e-06
6.7251e-06
6.38042e-06
6.05123e-06
5.72961e-06
5.40281e-06
5.04756e-06
4.64739e-06
7.52933e-06
8.26713e-06
8.70352e-06
8.94334e-06
8.84205e-06
8.63815e-06
8.47525e-06
8.38456e-06
8.35953e-06
8.37572e-06
8.40632e-06
8.43293e-06
8.44582e-06
8.44338e-06
8.4232e-06
8.38431e-06
8.32719e-06
8.25302e-06
8.1633e-06
8.05963e-06
7.94361e-06
7.81671e-06
7.68031e-06
7.53552e-06
7.3832e-06
7.22376e-06
7.05734e-06
6.88436e-06
6.70211e-06
6.50932e-06
6.30324e-06
6.07903e-06
5.8314e-06
5.74456e-06
6.62828e-06
7.03958e-06
7.15808e-06
6.91069e-06
6.5533e-06
6.22753e-06
5.95802e-06
5.74311e-06
5.57339e-06
5.43661e-06
5.32309e-06
5.22572e-06
5.13914e-06
5.0598e-06
4.98534e-06
4.91385e-06
4.84378e-06
4.7739e-06
4.70325e-06
4.63113e-06
4.55698e-06
4.48039e-06
4.40099e-06
4.31841e-06
4.23239e-06
4.14272e-06
4.04868e-06
3.94926e-06
3.84353e-06
3.72884e-06
3.60748e-06
3.47901e-06
4.46817e-06
5.26462e-06
5.57857e-06
5.74046e-06
5.66422e-06
5.46121e-06
5.22285e-06
4.9839e-06
4.76387e-06
4.5707e-06
4.40273e-06
4.25563e-06
4.12537e-06
4.00867e-06
3.90292e-06
3.80599e-06
3.71621e-06
3.63226e-06
3.55311e-06
3.47791e-06
3.40593e-06
3.33654e-06
3.26916e-06
3.20326e-06
3.13833e-06
3.07385e-06
3.00903e-06
2.94319e-06
2.87609e-06
2.80815e-06
2.74013e-06
2.67821e-06
2.62642e-06
3.53676e-06
4.25345e-06
4.55392e-06
4.72752e-06
4.70044e-06
4.54534e-06
4.35085e-06
4.15631e-06
3.97858e-06
3.82245e-06
3.68547e-06
3.56388e-06
3.45471e-06
3.35563e-06
3.26481e-06
3.18095e-06
3.10305e-06
3.03031e-06
2.96207e-06
2.89773e-06
2.83674e-06
2.77865e-06
2.72304e-06
2.66954e-06
2.61778e-06
2.56744e-06
2.51852e-06
2.47115e-06
2.42573e-06
2.38371e-06
2.34724e-06
2.3235e-06
2.31716e-06
2.84408e-06
3.47427e-06
3.75723e-06
3.92028e-06
3.93027e-06
3.8334e-06
3.6946e-06
3.54467e-06
3.39844e-06
3.26331e-06
3.14095e-06
3.03075e-06
2.93153e-06
2.84193e-06
2.76063e-06
2.6865e-06
2.61857e-06
2.55598e-06
2.49803e-06
2.44412e-06
2.39376e-06
2.34657e-06
2.30223e-06
2.26051e-06
2.22128e-06
2.1846e-06
2.15068e-06
2.12008e-06
2.09385e-06
2.07429e-06
2.06434e-06
2.07085e-06
2.09784e-06
2.3154e-06
2.8647e-06
3.14593e-06
3.31479e-06
3.35818e-06
3.30113e-06
3.19378e-06
3.06727e-06
2.93912e-06
2.81871e-06
2.70916e-06
2.61053e-06
2.52199e-06
2.44241e-06
2.37065e-06
2.30569e-06
2.24669e-06
2.19294e-06
2.14386e-06
2.09897e-06
2.0579e-06
2.02033e-06
1.98604e-06
1.95498e-06
1.92718e-06
1.90288e-06
1.8826e-06
1.86727e-06
1.85828e-06
1.85803e-06
1.86929e-06
1.89743e-06
1.9454e-06
1.90207e-06
2.38271e-06
2.66535e-06
2.83833e-06
2.9027e-06
2.87662e-06
2.80012e-06
2.70136e-06
2.59631e-06
2.49383e-06
2.39773e-06
2.3093e-06
2.22875e-06
2.15583e-06
2.08998e-06
2.03061e-06
1.97715e-06
1.92906e-06
1.88586e-06
1.84716e-06
1.81263e-06
1.78201e-06
1.75522e-06
1.73225e-06
1.71327e-06
1.69865e-06
1.68903e-06
1.68542e-06
1.68919e-06
1.70249e-06
1.72762e-06
1.76848e-06
1.82728e-06
1.57134e-06
1.99633e-06
2.28161e-06
2.46245e-06
2.54633e-06
2.54746e-06
2.49667e-06
2.41897e-06
2.3301e-06
2.23969e-06
2.15285e-06
2.07197e-06
1.99796e-06
1.93098e-06
1.87074e-06
1.81681e-06
1.76872e-06
1.72601e-06
1.68828e-06
1.6552e-06
1.6265e-06
1.60206e-06
1.5818e-06
1.56582e-06
1.55433e-06
1.54776e-06
1.54676e-06
1.55229e-06
1.56557e-06
1.58832e-06
1.62224e-06
1.66987e-06
1.73294e-06
1.30076e-06
1.68326e-06
1.97163e-06
2.16147e-06
2.26091e-06
2.2831e-06
2.25322e-06
2.19404e-06
2.12085e-06
2.04324e-06
1.96667e-06
1.89396e-06
1.82651e-06
1.76489e-06
1.70918e-06
1.65925e-06
1.61485e-06
1.57571e-06
1.54156e-06
1.51217e-06
1.48736e-06
1.46706e-06
1.45125e-06
1.44006e-06
1.43371e-06
1.43264e-06
1.4374e-06
1.4488e-06
1.4678e-06
1.49565e-06
1.53351e-06
1.58286e-06
1.64531e-06
1.07474e-06
1.427e-06
1.71874e-06
1.91818e-06
2.03159e-06
2.07207e-06
2.06072e-06
2.01783e-06
1.95791e-06
1.89053e-06
1.82161e-06
1.75465e-06
1.69164e-06
1.6336e-06
1.58096e-06
1.53381e-06
1.49207e-06
1.45559e-06
1.42417e-06
1.39764e-06
1.37587e-06
1.35881e-06
1.34645e-06
1.33892e-06
1.33642e-06
1.33929e-06
1.34799e-06
1.36313e-06
1.38538e-06
1.41558e-06
1.45448e-06
1.50276e-06
1.56204e-06
8.82215e-07
1.21558e-06
1.51142e-06
1.72044e-06
1.84627e-06
1.90206e-06
1.9062e-06
1.87704e-06
1.82853e-06
1.77025e-06
1.70843e-06
1.64696e-06
1.58818e-06
1.5334e-06
1.48333e-06
1.43825e-06
1.39825e-06
1.36331e-06
1.33335e-06
1.30828e-06
1.28802e-06
1.27256e-06
1.26191e-06
1.25618e-06
1.25553e-06
1.26021e-06
1.27056e-06
1.28697e-06
1.3099e-06
1.33984e-06
1.37722e-06
1.42216e-06
1.47639e-06
7.15309e-07
1.04047e-06
1.34145e-06
1.55964e-06
1.69666e-06
1.7657e-06
1.78336e-06
1.76634e-06
1.7279e-06
1.67748e-06
1.62152e-06
1.56422e-06
1.50831e-06
1.45544e-06
1.4066e-06
1.36231e-06
1.32285e-06
1.28831e-06
1.25871e-06
1.23402e-06
1.21422e-06
1.19929e-06
1.18925e-06
1.18415e-06
1.18411e-06
1.18927e-06
1.19984e-06
1.21605e-06
1.23813e-06
1.26633e-06
1.30086e-06
1.34144e-06
1.38995e-06
5.68627e-07
8.95987e-07
1.20322e-06
1.42985e-06
1.57685e-06
1.65728e-06
1.68648e-06
1.67974e-06
1.6497e-06
1.60574e-06
1.55443e-06
1.50029e-06
1.44632e-06
1.39447e-06
1.34595e-06
1.30148e-06
1.2615e-06
1.22622e-06
1.19575e-06
1.17013e-06
1.14939e-06
1.13354e-06
1.12259e-06
1.11657e-06
1.11554e-06
1.11958e-06
1.12877e-06
1.14322e-06
1.163e-06
1.18816e-06
1.21878e-06
1.25431e-06
1.29673e-06
4.39178e-07
7.7895e-07
1.09309e-06
1.32712e-06
1.48287e-06
1.57312e-06
1.61226e-06
1.61447e-06
1.59178e-06
1.55343e-06
1.50605e-06
1.45436e-06
1.40164e-06
1.35007e-06
1.30107e-06
1.25558e-06
1.21416e-06
1.17717e-06
1.14482e-06
1.11723e-06
1.09446e-06
1.07657e-06
1.06356e-06
1.05546e-06
1.05228e-06
1.05403e-06
1.06073e-06
1.07237e-06
1.08891e-06
1.11026e-06
1.13643e-06
1.16667e-06
1.20307e-06
3.27582e-07
6.88626e-07
1.009e-06
1.24894e-06
1.41201e-06
1.51048e-06
1.55786e-06
1.56736e-06
1.55044e-06
1.51606e-06
1.47101e-06
1.42021e-06
1.36715e-06
1.31427e-06
1.26322e-06
1.21512e-06
1.17069e-06
1.13042e-06
1.09463e-06
1.06352e-06
1.03721e-06
1.01579e-06
9.9929e-07
9.87741e-07
9.81138e-07
9.79457e-07
9.82652e-07
9.90645e-07
1.00333e-06
1.02053e-06
1.04218e-06
1.06743e-06
1.09834e-06
2.42295e-07
6.26472e-07
9.50226e-07
1.19416e-06
1.36311e-06
1.46854e-06
1.52306e-06
1.53901e-06
1.52728e-06
1.49665e-06
1.4539e-06
1.40405e-06
1.35075e-06
1.2966e-06
1.24342e-06
1.19247e-06
1.14462e-06
1.10047e-06
1.06045e-06
1.02485e-06
9.93878e-07
9.67681e-07
9.46364e-07
9.29988e-07
9.18581e-07
9.1213e-07
9.10583e-07
9.1384e-07
9.21767e-07
9.34121e-07
9.50821e-07
9.70904e-07
9.9651e-07
2.06977e-07
5.95292e-07
9.16849e-07
1.16213e-06
1.33499e-06
1.44543e-06
1.505e-06
1.52514e-06
1.51621e-06
1.48687e-06
1.44386e-06
1.39236e-06
1.33624e-06
1.2783e-06
1.22057e-06
1.16449e-06
1.11106e-06
1.06102e-06
1.01489e-06
9.7304e-07
9.35767e-07
9.03292e-07
8.75787e-07
8.53381e-07
8.36156e-07
8.24147e-07
8.17333e-07
8.15626e-07
8.18887e-07
8.26847e-07
8.39387e-07
8.5552e-07
8.77203e-07
2.42507e-07
5.97814e-07
9.09907e-07
1.15393e-06
1.32949e-06
1.4445e-06
1.50923e-06
1.53427e-06
1.52938e-06
1.50283e-06
1.46127e-06
1.40986e-06
1.35251e-06
1.29213e-06
1.23084e-06
1.17022e-06
1.11139e-06
1.05519e-06
1.00224e-06
9.53055e-07
9.08015e-07
8.67464e-07
8.31699e-07
8.00984e-07
7.75542e-07
7.55551e-07
7.41123e-07
7.32281e-07
7.28972e-07
7.30959e-07
7.38139e-07
7.4943e-07
7.66823e-07
3.30635e-07
6.34512e-07
9.29828e-07
1.16896e-06
1.34412e-06
1.46019e-06
1.52599e-06
1.55125e-06
1.54536e-06
1.5165e-06
1.47142e-06
1.41544e-06
1.35265e-06
1.28613e-06
1.21813e-06
1.15032e-06
1.08389e-06
1.01973e-06
9.585e-07
9.00724e-07
8.46844e-07
7.97265e-07
7.52378e-07
7.12578e-07
6.78264e-07
6.49823e-07
6.27596e-07
6.11829e-07
6.02647e-07
5.99935e-07
6.03598e-07
6.12572e-07
6.28437e-07
4.4788e-07
7.04226e-07
9.79015e-07
1.21241e-06
1.38847e-06
1.50864e-06
1.57992e-06
1.61081e-06
1.60979e-06
1.58447e-06
1.54127e-06
1.4854e-06
1.42098e-06
1.35118e-06
1.27841e-06
1.20449e-06
1.13077e-06
1.05826e-06
9.87732e-07
9.19783e-07
8.54921e-07
7.93606e-07
7.36303e-07
6.83516e-07
6.35817e-07
5.93853e-07
5.58336e-07
5.29977e-07
5.0941e-07
4.96984e-07
4.92923e-07
4.96182e-07
5.08371e-07
5.85885e-07
8.04685e-07
1.05614e-06
1.27861e-06
1.44822e-06
1.56293e-06
1.62845e-06
1.65305e-06
1.6453e-06
1.61303e-06
1.5628e-06
1.49994e-06
1.42857e-06
1.35185e-06
1.27211e-06
1.19107e-06
1.10999e-06
1.02976e-06
9.51072e-07
8.74414e-07
8.00201e-07
7.28806e-07
6.60616e-07
5.96093e-07
5.35834e-07
4.8064e-07
4.31585e-07
3.90059e-07
3.57718e-07
3.36177e-07
3.26714e-07
3.28918e-07
3.43555e-07
7.4443e-07
9.36637e-07
1.16962e-06
1.38856e-06
1.56377e-06
1.68878e-06
1.76609e-06
1.80169e-06
1.80268e-06
1.77611e-06
1.72839e-06
1.66501e-06
1.59048e-06
1.50842e-06
1.42162e-06
1.33218e-06
1.24167e-06
1.15124e-06
1.06168e-06
9.73571e-07
8.87312e-07
8.03191e-07
7.21438e-07
6.42272e-07
5.65957e-07
4.92868e-07
4.23595e-07
3.59122e-07
3.01154e-07
2.5259e-07
2.18156e-07
2.02667e-07
2.10438e-07
9.27501e-07
1.10019e-06
1.30944e-06
1.50796e-06
1.66302e-06
1.76766e-06
1.82581e-06
1.84491e-06
1.83279e-06
1.79646e-06
1.74181e-06
1.67368e-06
1.59586e-06
1.51133e-06
1.4224e-06
1.33081e-06
1.2379e-06
1.14468e-06
1.05189e-06
9.60056e-07
8.69571e-07
7.80702e-07
6.93636e-07
6.08497e-07
5.25373e-07
4.44331e-07
3.65432e-07
2.88741e-07
2.14345e-07
1.424e-07
7.32877e-08
1.11033e-08
3.59042e-08
1.14152e-06
1.30563e-06
1.51288e-06
1.72969e-06
1.91582e-06
2.05368e-06
2.13994e-06
2.17871e-06
2.17714e-06
2.14321e-06
2.08453e-06
2.00775e-06
1.91832e-06
1.82053e-06
1.71765e-06
1.61209e-06
1.50561e-06
1.39946e-06
1.29449e-06
1.19132e-06
1.09035e-06
9.91858e-07
8.96054e-07
8.03114e-07
7.13214e-07
6.26577e-07
5.43518e-07
4.64517e-07
3.9038e-07
3.22451e-07
2.63302e-07
2.17147e-07
1.91286e-07
1.39773e-06
1.55085e-06
1.71715e-06
1.8764e-06
2.00139e-06
2.08678e-06
2.13621e-06
2.1548e-06
2.14697e-06
2.11658e-06
2.06731e-06
2.00265e-06
1.92586e-06
1.8399e-06
1.74738e-06
1.65053e-06
1.55124e-06
1.45105e-06
1.35118e-06
1.25262e-06
1.15615e-06
1.0624e-06
9.71923e-07
8.8521e-07
8.02774e-07
7.25178e-07
6.53096e-07
5.87353e-07
5.28981e-07
4.7918e-07
4.3935e-07
4.10724e-07
3.93817e-07
1.7085e-06
1.88096e-06
2.10756e-06
2.37147e-06
2.60164e-06
2.76098e-06
2.84686e-06
2.8707e-06
2.84624e-06
2.78638e-06
2.70195e-06
2.60128e-06
2.49045e-06
2.37375e-06
2.25418e-06
2.1338e-06
2.01406e-06
1.89598e-06
1.78031e-06
1.66765e-06
1.55846e-06
1.45316e-06
1.35214e-06
1.25576e-06
1.16443e-06
1.07857e-06
9.98629e-07
9.25118e-07
8.58584e-07
7.99495e-07
7.48443e-07
7.05408e-07
6.71195e-07
2.10408e-06
2.23498e-06
2.30163e-06
2.37066e-06
2.4522e-06
2.53892e-06
2.61897e-06
2.6806e-06
2.71527e-06
2.71955e-06
2.6944e-06
2.64341e-06
2.57136e-06
2.4832e-06
2.38354e-06
2.27633e-06
2.16483e-06
2.05162e-06
1.9387e-06
1.82761e-06
1.7195e-06
1.61525e-06
1.51555e-06
1.42092e-06
1.33182e-06
1.24861e-06
1.17163e-06
1.10122e-06
1.03767e-06
9.81283e-07
9.32322e-07
8.91132e-07
8.56897e-07
2.60436e-06
2.90275e-06
3.30774e-06
3.71593e-06
3.98374e-06
4.09804e-06
4.1049e-06
4.04475e-06
3.94381e-06
3.81913e-06
3.68085e-06
3.53446e-06
3.3831e-06
3.22891e-06
3.07358e-06
2.91865e-06
2.7656e-06
2.61583e-06
2.47057e-06
2.33092e-06
2.19776e-06
2.07179e-06
1.95354e-06
1.84337e-06
1.74151e-06
1.64804e-06
1.56296e-06
1.48614e-06
1.4174e-06
1.35641e-06
1.30294e-06
1.25652e-06
1.21716e-06
3.30645e-06
3.21174e-06
2.93159e-06
2.87766e-06
3.05193e-06
3.31087e-06
3.54872e-06
3.71723e-06
3.80574e-06
3.82575e-06
3.79728e-06
3.74008e-06
3.67014e-06
3.59882e-06
3.53312e-06
3.47655e-06
3.43016e-06
3.39349e-06
3.3653e-06
3.34401e-06
3.32807e-06
3.31608e-06
3.30682e-06
3.29931e-06
3.29275e-06
3.28647e-06
3.27995e-06
3.27273e-06
3.26451e-06
3.25515e-06
3.24467e-06
3.23449e-06
3.22268e-06
4.33914e-06
5.54873e-06
6.29001e-06
6.52449e-06
6.40973e-06
6.1785e-06
6.02384e-06
6.03192e-06
6.2107e-06
6.52105e-06
6.90803e-06
7.32273e-06
7.72935e-06
8.10467e-06
8.43557e-06
8.71614e-06
8.94523e-06
9.12463e-06
9.25778e-06
9.34897e-06
9.40279e-06
9.42379e-06
9.41624e-06
9.38406e-06
9.33069e-06
9.25908e-06
9.17175e-06
9.07056e-06
8.95728e-06
8.83264e-06
8.69866e-06
8.55608e-06
8.40846e-06
5.66305e-06
3.59509e-06
2.74418e-06
4.58649e-06
7.30611e-06
9.88103e-06
1.20708e-05
1.38088e-05
1.51056e-05
1.60018e-05
1.65437e-05
1.67794e-05
1.6757e-05
1.65222e-05
1.61168e-05
1.55781e-05
1.49389e-05
1.42273e-05
1.34668e-05
1.2677e-05
1.18736e-05
1.1069e-05
1.0273e-05
9.49303e-06
8.73441e-06
8.00077e-06
7.29439e-06
6.6158e-06
5.96537e-06
5.33941e-06
4.74059e-06
4.15395e-06
3.59752e-06
1.14475e-05
1.65013e-05
1.82531e-05
1.97495e-05
2.01992e-05
1.94225e-05
1.76409e-05
1.51323e-05
1.22641e-05
9.61165e-06
8.1374e-06
8.772e-06
1.111e-05
1.41551e-05
1.7344e-05
2.04347e-05
2.33223e-05
2.59627e-05
2.8341e-05
3.04587e-05
3.23253e-05
3.39553e-05
3.53653e-05
3.65726e-05
3.75945e-05
3.84478e-05
3.91485e-05
3.9712e-05
4.01543e-05
4.04911e-05
4.07437e-05
4.09318e-05
4.11075e-05
2.49097e-05
2.86815e-05
3.90572e-05
5.35437e-05
6.78645e-05
8.18543e-05
9.4773e-05
0.000106011
0.00011552
0.000123373
0.000129676
0.000134581
0.000138259
0.000140873
0.000142577
0.000143507
0.000143789
0.00014353
0.000142822
0.000141747
0.000140371
0.000138753
0.000136941
0.000134974
0.000132888
0.000130708
0.000128458
0.000126154
0.000123814
0.000121439
0.00011905
0.000116652
0.000114466
0.000543345
0.000510582
0.000491574
0.000467821
0.00044371
0.000421263
0.000399639
0.000378907
0.000359339
0.000340957
0.000323748
0.000307703
0.000292779
0.000278916
0.000266046
0.000254097
0.000242995
0.000232669
0.00022305
0.000214072
0.000205677
0.000197811
0.000190422
0.000183468
0.000176907
0.000170705
0.000164825
0.000159242
0.000153909
0.000148833
0.000143838
0.0001395
0.000135481
7.91376e-05
7.46244e-05
6.79164e-05
6.24956e-05
5.77904e-05
5.42783e-05
5.13947e-05
4.79433e-05
4.27373e-05
3.54438e-05
3.0229e-05
3.31655e-05
3.91033e-05
3.43417e-05
2.05654e-05
2.87047e-05
4.13328e-05
4.34948e-05
4.00671e-05
3.68293e-05
3.37928e-05
3.32898e-05
3.94788e-05
4.3405e-05
5.1894e-05
5.4864e-05
4.55242e-05
3.25138e-05
2.2543e-05
1.75381e-05
1.57986e-05
1.46309e-05
1.28393e-05
1.04875e-05
8.453e-06
7.35332e-06
1.10264e-05
2.28441e-05
3.2648e-05
3.1939e-05
2.48634e-05
2.15386e-05
2.40635e-05
2.81424e-05
2.88889e-05
2.60196e-05
2.20915e-05
1.88526e-05
1.66382e-05
1.52566e-05
1.45546e-05
1.43782e-05
1.44567e-05
1.56663e-05
1.933e-05
2.64045e-05
4.11609e-05
5.46437e-05
5.65606e-05
4.83449e-05
3.61881e-05
2.44131e-05
1.45702e-05
6.96345e-06
4.55723e-06
1.24158e-05
2.65775e-05
4.09215e-05
4.712e-05
4.33863e-05
3.49554e-05
2.711e-05
2.14309e-05
1.73174e-05
1.4095e-05
1.14616e-05
9.28489e-06
7.47524e-06
5.96223e-06
4.69494e-06
3.63931e-06
2.7706e-06
2.06628e-06
1.50337e-06
1.06033e-06
7.22477e-07
4.86527e-07
3.58581e-07
3.24495e-07
3.31134e-07
3.35927e-07
3.27087e-07
3.09984e-07
2.93913e-07
2.88572e-07
2.92921e-07
3.07424e-07
3.13344e-07
3.32117e-07
2.83975e-07
0.000102343
0.00010117
9.79955e-05
9.39261e-05
8.80122e-05
8.06105e-05
7.25588e-05
6.45255e-05
5.68895e-05
5.09359e-05
4.9182e-05
4.905e-05
4.13914e-05
2.23374e-05
1.91113e-05
3.59019e-05
4.27669e-05
4.12864e-05
3.76088e-05
3.53207e-05
3.37268e-05
3.22524e-05
3.66049e-05
4.17716e-05
4.81402e-05
5.50668e-05
4.95334e-05
3.67525e-05
2.5122e-05
1.8296e-05
1.55944e-05
1.42468e-05
1.26077e-05
1.0554e-05
8.54199e-06
6.38627e-06
1.16892e-05
2.54937e-05
3.41704e-05
3.10933e-05
2.36021e-05
2.15026e-05
2.49621e-05
2.89889e-05
2.90719e-05
2.58324e-05
2.19721e-05
1.89285e-05
1.686e-05
1.55613e-05
1.48872e-05
1.47549e-05
1.48762e-05
1.58334e-05
1.93056e-05
2.56895e-05
3.94132e-05
5.46235e-05
5.89659e-05
5.20541e-05
4.01122e-05
2.80218e-05
1.77997e-05
1.04284e-05
8.51183e-06
1.5764e-05
3.02364e-05
4.38746e-05
4.82886e-05
4.30858e-05
3.42662e-05
2.66931e-05
2.13198e-05
1.73742e-05
1.42407e-05
1.1659e-05
9.50493e-06
7.6931e-06
6.16012e-06
4.86321e-06
3.77506e-06
2.87532e-06
2.14371e-06
1.55795e-06
1.0963e-06
7.43091e-07
4.94799e-07
3.59742e-07
3.26378e-07
3.37422e-07
3.46027e-07
3.39748e-07
3.24386e-07
3.09994e-07
3.05718e-07
3.10987e-07
3.23834e-07
3.29774e-07
3.43302e-07
2.94934e-07
9.04863e-05
9.20314e-05
9.31259e-05
9.41452e-05
9.41343e-05
9.20749e-05
8.74696e-05
8.07487e-05
7.30956e-05
6.56482e-05
5.70231e-05
4.32101e-05
2.20709e-05
1.27567e-05
3.1035e-05
4.07425e-05
4.12248e-05
3.80732e-05
3.50952e-05
3.35484e-05
3.30734e-05
3.18421e-05
3.38517e-05
3.95017e-05
4.42126e-05
5.2883e-05
5.26914e-05
4.19119e-05
2.90902e-05
2.00048e-05
1.56893e-05
1.38495e-05
1.22683e-05
1.03531e-05
7.81985e-06
4.45275e-06
1.44755e-05
2.94727e-05
3.55313e-05
2.95399e-05
2.22343e-05
2.1737e-05
2.62029e-05
2.98844e-05
2.9111e-05
2.55196e-05
2.17862e-05
1.8963e-05
1.70451e-05
1.58288e-05
1.51804e-05
1.50714e-05
1.52601e-05
1.6015e-05
1.90918e-05
2.49211e-05
3.71703e-05
5.36028e-05
6.07931e-05
5.58192e-05
4.45369e-05
3.24045e-05
2.20126e-05
1.49013e-05
1.31814e-05
2.02732e-05
3.47847e-05
4.70756e-05
4.91837e-05
4.24122e-05
3.33544e-05
2.61865e-05
2.11826e-05
1.74423e-05
1.44191e-05
1.1894e-05
9.75789e-06
7.93596e-06
6.37584e-06
5.04411e-06
3.91987e-06
2.9864e-06
2.22503e-06
1.61361e-06
1.12973e-06
7.57067e-07
4.91842e-07
3.45686e-07
3.13418e-07
3.32571e-07
3.48798e-07
3.48086e-07
3.36505e-07
3.24776e-07
3.21753e-07
3.27674e-07
3.39054e-07
3.45431e-07
3.5527e-07
3.09595e-07
6.31567e-05
6.50308e-05
6.69405e-05
6.90115e-05
7.08214e-05
7.16221e-05
7.04562e-05
6.64928e-05
5.92359e-05
4.793e-05
3.19806e-05
1.18876e-05
1.21103e-05
2.96143e-05
3.85856e-05
3.9671e-05
3.712e-05
3.4438e-05
3.2622e-05
3.16382e-05
3.17417e-05
3.14399e-05
3.20016e-05
3.66391e-05
4.08439e-05
4.85217e-05
5.38494e-05
4.75745e-05
3.50551e-05
2.36791e-05
1.6739e-05
1.34606e-05
1.14164e-05
9.16578e-06
5.1559e-06
4.63931e-06
2.02331e-05
3.41524e-05
3.57675e-05
2.69823e-05
2.09672e-05
2.2408e-05
2.77176e-05
3.06144e-05
2.88908e-05
2.50807e-05
2.15637e-05
1.8975e-05
1.72018e-05
1.60649e-05
1.5447e-05
1.535e-05
1.56116e-05
1.62615e-05
1.88782e-05
2.42232e-05
3.47279e-05
5.16581e-05
6.20218e-05
5.97186e-05
4.96076e-05
3.76745e-05
2.72179e-05
2.02918e-05
1.8792e-05
2.6074e-05
4.00917e-05
5.01467e-05
4.94847e-05
4.12715e-05
3.22733e-05
2.56554e-05
2.10512e-05
1.75277e-05
1.46239e-05
1.21585e-05
1.00382e-05
8.20199e-06
6.61072e-06
5.24116e-06
4.07888e-06
3.11048e-06
2.31851e-06
1.681e-06
1.17505e-06
7.83502e-07
5.02232e-07
3.45532e-07
3.13701e-07
3.39384e-07
3.61637e-07
3.65281e-07
3.56616e-07
3.4688e-07
3.44491e-07
3.50514e-07
3.59821e-07
3.66028e-07
3.71404e-07
3.27319e-07
2.1476e-05
2.31512e-05
2.49189e-05
2.67191e-05
2.82416e-05
2.89554e-05
2.8097e-05
2.48032e-05
1.81768e-05
8.67808e-06
9.01439e-06
2.15971e-05
3.17645e-05
3.66118e-05
3.67247e-05
3.46734e-05
3.26361e-05
3.12226e-05
3.02458e-05
2.95796e-05
2.97845e-05
3.03722e-05
3.07008e-05
3.37454e-05
3.79569e-05
4.31445e-05
5.14803e-05
5.1737e-05
4.24358e-05
3.0274e-05
2.0464e-05
1.4358e-05
1.05775e-05
7.1356e-06
2.97222e-06
1.2542e-05
2.85512e-05
3.82265e-05
3.3972e-05
2.36697e-05
2.01508e-05
2.37633e-05
2.94181e-05
3.10341e-05
2.83858e-05
2.45287e-05
2.12948e-05
1.89441e-05
1.73111e-05
1.62508e-05
1.56669e-05
1.55709e-05
1.58888e-05
1.65011e-05
1.8643e-05
2.35357e-05
3.23077e-05
4.86401e-05
6.20873e-05
6.32279e-05
5.50143e-05
4.37033e-05
3.34184e-05
2.673e-05
2.55732e-05
3.31208e-05
4.58591e-05
5.27125e-05
4.89931e-05
3.96483e-05
3.10362e-05
2.50794e-05
2.08999e-05
1.76126e-05
1.48415e-05
1.24402e-05
1.03346e-05
8.48154e-06
6.85687e-06
5.44792e-06
4.24639e-06
3.24178e-06
2.41767e-06
1.75207e-06
1.22169e-06
8.08812e-07
5.08784e-07
3.38405e-07
3.06171e-07
3.40211e-07
3.70706e-07
3.80708e-07
3.76605e-07
3.70073e-07
3.69126e-07
3.75806e-07
3.83464e-07
3.90039e-07
3.91286e-07
3.50314e-07
5.48515e-06
4.97238e-06
4.87641e-06
5.59642e-06
7.1877e-06
9.37954e-06
1.19825e-05
1.50735e-05
1.89065e-05
2.34483e-05
2.79788e-05
3.12857e-05
3.25346e-05
3.19982e-05
3.07905e-05
2.97923e-05
2.90841e-05
2.84423e-05
2.78772e-05
2.74768e-05
2.76421e-05
2.86778e-05
2.94799e-05
3.13799e-05
3.50706e-05
3.85076e-05
4.57354e-05
5.18616e-05
4.89029e-05
3.92861e-05
2.86064e-05
2.01149e-05
1.43538e-05
1.10922e-05
1.33914e-05
2.46399e-05
3.72444e-05
3.95328e-05
2.95583e-05
2.03608e-05
2.02445e-05
2.59731e-05
3.1017e-05
3.09684e-05
2.76016e-05
2.38996e-05
2.09953e-05
1.88763e-05
1.73761e-05
1.63885e-05
1.58411e-05
1.5741e-05
1.60903e-05
1.67204e-05
1.84347e-05
2.27909e-05
3.01203e-05
4.46831e-05
6.05159e-05
6.57489e-05
6.03857e-05
5.03752e-05
4.06453e-05
3.42963e-05
3.36011e-05
4.11617e-05
5.15148e-05
5.42537e-05
4.7521e-05
3.75842e-05
2.97042e-05
2.44875e-05
2.07461e-05
1.77076e-05
1.50773e-05
1.27417e-05
1.06496e-05
8.77793e-06
7.11835e-06
5.6687e-06
4.42652e-06
3.38409e-06
2.526e-06
1.83046e-06
1.27415e-06
8.38861e-07
5.19634e-07
3.36072e-07
3.05223e-07
3.48809e-07
3.87752e-07
4.03974e-07
4.0417e-07
4.00505e-07
4.00652e-07
4.07713e-07
4.13507e-07
4.20261e-07
4.1705e-07
3.78823e-07
7.4358e-06
7.45153e-06
7.81133e-06
8.74285e-06
1.03492e-05
1.25659e-05
1.51844e-05
1.80262e-05
2.08297e-05
2.32707e-05
2.50638e-05
2.60415e-05
2.63516e-05
2.63955e-05
2.64322e-05
2.64169e-05
2.62247e-05
2.58804e-05
2.55775e-05
2.54581e-05
2.56565e-05
2.66957e-05
2.80232e-05
2.95738e-05
3.2356e-05
3.513e-05
3.9141e-05
4.68146e-05
5.07853e-05
4.72882e-05
3.94829e-05
3.15093e-05
2.58658e-05
2.40689e-05
2.81754e-05
3.71914e-05
4.24849e-05
3.5931e-05
2.32369e-05
1.82101e-05
2.19014e-05
2.8819e-05
3.20736e-05
3.03182e-05
2.66055e-05
2.32345e-05
2.06721e-05
1.87691e-05
1.73934e-05
1.64747e-05
1.59643e-05
1.58595e-05
1.621e-05
1.68843e-05
1.82787e-05
2.1975e-05
2.82431e-05
4.02356e-05
5.70566e-05
6.65864e-05
6.50986e-05
5.73093e-05
4.86808e-05
4.28849e-05
4.27204e-05
4.95452e-05
5.6164e-05
5.42221e-05
4.50095e-05
3.51998e-05
2.83404e-05
2.38923e-05
2.05915e-05
1.78121e-05
1.53294e-05
1.30619e-05
1.09835e-05
9.09271e-06
7.39739e-06
5.90573e-06
4.62106e-06
3.5385e-06
2.64388e-06
1.91571e-06
1.33079e-06
8.70445e-07
5.2912e-07
3.28872e-07
2.986e-07
3.5371e-07
4.03045e-07
4.27092e-07
4.32849e-07
4.32946e-07
4.34796e-07
4.42628e-07
4.46957e-07
4.54224e-07
4.47068e-07
4.12651e-07
4.50143e-06
4.66452e-06
5.16159e-06
6.12796e-06
7.59165e-06
9.49626e-06
1.17258e-05
1.40893e-05
1.6374e-05
1.8401e-05
2.00435e-05
2.12964e-05
2.22419e-05
2.29366e-05
2.33835e-05
2.35822e-05
2.35788e-05
2.34742e-05
2.34164e-05
2.35351e-05
2.38584e-05
2.47394e-05
2.62765e-05
2.793e-05
3.02268e-05
3.25252e-05
3.44129e-05
3.90032e-05
4.58792e-05
4.91486e-05
4.73313e-05
4.30472e-05
3.93719e-05
3.85128e-05
4.13082e-05
4.44002e-05
4.01191e-05
2.73256e-05
1.75744e-05
1.84426e-05
2.54513e-05
3.15025e-05
3.21666e-05
2.91291e-05
2.55044e-05
2.25688e-05
2.03299e-05
1.86221e-05
1.73622e-05
1.6509e-05
1.60334e-05
1.59271e-05
1.6253e-05
1.69644e-05
1.81715e-05
2.11535e-05
2.65846e-05
3.59031e-05
5.17907e-05
6.49724e-05
6.81488e-05
6.36629e-05
5.68783e-05
5.19964e-05
5.21977e-05
5.70264e-05
5.86893e-05
5.22235e-05
4.15972e-05
3.26721e-05
2.70021e-05
2.33062e-05
2.04416e-05
1.79286e-05
1.55994e-05
1.34029e-05
1.13394e-05
9.42965e-06
7.69772e-06
6.1622e-06
4.83247e-06
3.70681e-06
2.77251e-06
2.00887e-06
1.39283e-06
9.05402e-07
5.40369e-07
3.22485e-07
2.9497e-07
3.64039e-07
4.24773e-07
4.57039e-07
4.6842e-07
4.72091e-07
4.75313e-07
4.83531e-07
4.86089e-07
4.93526e-07
4.82342e-07
4.51406e-07
3.5039e-06
3.79382e-06
4.36547e-06
5.28519e-06
6.55351e-06
8.12236e-06
9.90468e-06
1.1804e-05
1.3711e-05
1.5507e-05
1.70937e-05
1.84079e-05
1.94272e-05
2.01705e-05
2.06792e-05
2.09955e-05
2.11681e-05
2.12686e-05
2.13968e-05
2.16677e-05
2.21275e-05
2.29108e-05
2.43486e-05
2.61336e-05
2.83767e-05
3.06146e-05
3.1801e-05
3.30475e-05
3.7102e-05
4.27077e-05
4.61701e-05
4.67579e-05
4.59643e-05
4.54853e-05
4.49629e-05
4.06003e-05
2.94493e-05
1.77934e-05
1.58034e-05
2.21614e-05
2.98713e-05
3.29526e-05
3.11571e-05
2.76063e-05
2.44096e-05
2.19231e-05
1.99679e-05
1.84329e-05
1.72808e-05
1.64903e-05
1.60458e-05
1.59409e-05
1.62277e-05
1.69414e-05
1.8068e-05
2.04184e-05
2.50202e-05
3.21931e-05
4.53638e-05
6.04236e-05
6.83117e-05
6.80758e-05
6.3966e-05
6.04172e-05
6.04462e-05
6.18365e-05
5.80881e-05
4.82632e-05
3.7645e-05
3.01928e-05
2.57268e-05
2.2733e-05
2.02972e-05
1.80577e-05
1.58884e-05
1.37672e-05
1.17209e-05
9.79273e-06
8.02289e-06
6.44089e-06
5.06271e-06
3.89029e-06
2.91267e-06
2.1103e-06
1.46019e-06
9.4297e-07
5.51409e-07
3.12244e-07
2.87493e-07
3.73138e-07
4.47097e-07
4.88939e-07
5.06952e-07
5.14861e-07
5.19855e-07
5.28643e-07
5.29604e-07
5.37296e-07
5.22413e-07
4.95451e-07
3.16106e-06
3.48928e-06
4.03664e-06
4.84492e-06
5.91493e-06
7.22061e-06
8.71255e-06
1.03154e-05
1.19334e-05
1.34711e-05
1.48489e-05
1.60181e-05
1.69683e-05
1.77148e-05
1.82803e-05
1.86917e-05
1.89871e-05
1.92254e-05
1.94851e-05
1.98541e-05
2.04076e-05
2.11904e-05
2.24265e-05
2.41579e-05
2.63229e-05
2.89185e-05
3.04869e-05
3.05821e-05
3.08778e-05
3.31766e-05
3.6686e-05
3.93249e-05
4.01268e-05
3.91685e-05
3.53334e-05
2.70762e-05
1.73532e-05
1.4205e-05
1.99076e-05
2.82758e-05
3.30194e-05
3.25294e-05
2.93324e-05
2.60243e-05
2.33934e-05
2.12984e-05
1.95802e-05
1.81993e-05
1.7149e-05
1.64185e-05
1.60014e-05
1.5898e-05
1.61433e-05
1.68155e-05
1.79086e-05
1.98111e-05
2.35381e-05
2.9229e-05
3.89425e-05
5.32464e-05
6.46017e-05
6.88573e-05
6.80286e-05
6.6067e-05
6.51031e-05
6.22205e-05
5.40332e-05
4.29148e-05
3.36453e-05
2.79022e-05
2.45227e-05
2.21706e-05
2.01594e-05
1.82017e-05
1.62002e-05
1.41597e-05
1.21334e-05
1.01868e-05
8.37687e-06
6.74487e-06
5.31406e-06
4.09051e-06
3.06554e-06
2.2208e-06
1.53348e-06
9.83787e-07
5.63164e-07
2.99969e-07
2.80684e-07
3.8647e-07
4.75091e-07
5.2717e-07
5.52051e-07
5.64124e-07
5.70636e-07
5.79641e-07
5.78714e-07
5.86312e-07
5.67662e-07
5.44301e-07
2.91377e-06
3.26004e-06
3.78061e-06
4.50179e-06
5.42222e-06
6.52058e-06
7.75689e-06
9.07712e-06
1.04188e-05
1.17174e-05
1.29148e-05
1.39692e-05
1.48603e-05
1.55892e-05
1.61721e-05
1.66336e-05
1.70058e-05
1.7336e-05
1.76871e-05
1.81242e-05
1.8721e-05
1.95304e-05
2.06294e-05
2.21568e-05
2.41017e-05
2.66817e-05
2.92513e-05
3.0147e-05
2.93871e-05
2.84007e-05
2.82242e-05
2.85179e-05
2.80816e-05
2.59666e-05
2.16395e-05
1.63732e-05
1.46897e-05
1.98364e-05
2.78575e-05
3.30526e-05
3.3338e-05
3.05347e-05
2.72514e-05
2.45871e-05
2.24686e-05
2.0679e-05
1.91596e-05
1.79205e-05
1.69671e-05
1.62943e-05
1.59017e-05
1.57969e-05
1.60038e-05
1.66027e-05
1.76468e-05
1.92827e-05
2.22223e-05
2.68153e-05
3.36272e-05
4.48584e-05
5.70627e-05
6.47245e-05
6.7064e-05
6.6522e-05
6.39926e-05
5.75467e-05
4.73751e-05
3.72025e-05
3.0024e-05
2.58439e-05
2.33721e-05
2.16135e-05
2.00297e-05
1.83646e-05
1.65402e-05
1.45866e-05
1.25829e-05
1.0617e-05
8.76398e-06
7.0775e-06
5.58908e-06
4.30931e-06
3.23256e-06
2.34138e-06
1.61336e-06
1.02812e-06
5.75338e-07
2.83512e-07
2.71274e-07
4.00888e-07
5.05965e-07
5.69481e-07
6.02045e-07
6.18745e-07
6.26985e-07
6.36226e-07
6.33422e-07
6.40875e-07
6.18643e-07
5.99082e-07
2.73237e-06
3.07228e-06
3.54763e-06
4.1757e-06
4.95586e-06
5.87483e-06
6.90692e-06
8.01412e-06
9.14842e-06
1.02584e-05
1.12974e-05
1.22311e-05
1.30428e-05
1.37323e-05
1.43099e-05
1.47932e-05
1.52083e-05
1.5594e-05
1.6002e-05
1.64839e-05
1.7096e-05
1.79057e-05
1.89436e-05
2.02758e-05
2.19551e-05
2.41065e-05
2.69224e-05
2.93757e-05
3.00413e-05
2.89681e-05
2.71357e-05
2.52029e-05
2.3206e-05
2.09194e-05
1.88487e-05
1.89323e-05
2.31222e-05
2.93912e-05
3.35714e-05
3.37482e-05
3.11371e-05
2.79656e-05
2.53771e-05
2.33458e-05
2.15996e-05
2.00452e-05
1.87027e-05