/*--------------------------------*- C++ -*----------------------------------*\
  =========                 |
  \\      /  F ield         | OpenFOAM: The Open Source CFD Toolbox
   \\    /   O peration     | Website:  https://openfoam.org
    \\  /    A nd           | Version:  10
     \\/     M anipulation  |
\*---------------------------------------------------------------------------*/
FoamFile
{
    format      ascii;
    class       volScalarField;
    location    "0.12";
    object      p;
}
// * * * * * * * * * * * * * * * * * * * * * * * * * * * * * * * * * * * * * //

dimensions      [0 2 -2 0 0 0 0];

internalField   nonuniform List<scalar> 
6820
(
6.87595
-7.45549
-9.45546
-9.63708
-9.7928
-9.73258
-9.69956
-9.71727
-9.75904
-9.81495
-9.87851
-9.94595
-10.0156
-10.0866
-10.1586
-10.2313
-10.3043
-10.3776
-10.4509
-10.524
-10.5969
-10.6691
-10.7408
-10.8116
-10.8814
-10.95
-11.0171
-11.0822
-11.146
-11.2057
-11.27
-11.3134
-11.4119
1.49886
-7.25216
-9.25991
-9.51514
-9.72293
-9.72644
-9.71485
-9.73902
-9.78101
-9.83417
-9.89456
-9.95917
-10.0265
-10.0957
-10.1664
-10.238
-10.3103
-10.3831
-10.456
-10.529
-10.6017
-10.6741
-10.7455
-10.8164
-10.8863
-10.9549
-11.0222
-11.0875
-11.1513
-11.2117
-11.2738
-11.3235
-11.4071
-0.580096
-6.03885
-8.46523
-9.05874
-9.44162
-9.58811
-9.63871
-9.68999
-9.74783
-9.81084
-9.87816
-9.94802
-10.0193
-10.0914
-10.164
-10.237
-10.3103
-10.3836
-10.4569
-10.53
-10.6029
-10.6752
-10.7468
-10.8179
-10.8879
-10.9568
-11.0241
-11.0898
-11.1538
-11.214
-11.2718
-11.3141
-11.341
-2.14632
-5.85434
-8.16648
-8.81804
-9.20208
-9.41174
-9.51255
-9.59584
-9.67671
-9.75481
-9.83182
-9.90835
-9.98455
-10.0606
-10.1366
-10.2124
-10.2879
-10.3633
-10.4383
-10.513
-10.5872
-10.6609
-10.7338
-10.806
-10.8772
-10.9474
-11.0163
-11.0835
-11.1488
-11.2107
-11.2682
-11.3138
-11.3396
-3.42976
-5.89659
-7.85689
-8.54162
-8.95391
-9.22933
-9.384
-9.49782
-9.59816
-9.68939
-9.77559
-9.85919
-9.94082
-10.0209
-10.1
-10.1784
-10.2561
-10.3332
-10.4097
-10.4856
-10.5609
-10.6355
-10.7095
-10.7827
-10.8553
-10.9269
-10.9976
-11.0672
-11.1353
-11.2009
-11.2629
-11.3177
-11.359
-4.38529
-6.01738
-7.67031
-8.386
-8.80775
-9.10529
-9.28596
-9.4162
-9.5285
-9.62914
-9.72234
-9.81122
-9.89713
-9.98081
-10.0627
-10.1433
-10.2228
-10.3013
-10.3789
-10.4559
-10.5321
-10.6076
-10.6825
-10.7567
-10.8305
-10.9036
-10.9762
-11.0483
-11.1198
-11.1905
-11.2601
-11.3278
-11.3949
-5.12843
-6.22689
-7.57986
-8.26576
-8.6738
-8.9799
-9.18457
-9.33413
-9.46041
-9.57155
-9.67237
-9.76687
-9.85707
-9.94402
-10.0285
-10.1112
-10.1924
-10.2724
-10.3513
-10.4293
-10.5064
-10.5829
-10.6587
-10.734
-10.8089
-10.8835
-10.9581
-11.0327
-11.1077
-11.1831
-11.2596
-11.3377
-11.4202
-5.70971
-6.45391
-7.53895
-8.17816
-8.57484
-8.88317
-9.10251
-9.2646
-9.39976
-9.518
-9.62445
-9.72336
-9.81712
-9.90703
-9.99401
-10.0787
-10.1616
-10.2429
-10.323
-10.402
-10.48
-10.5573
-10.634
-10.7102
-10.7862
-10.8622
-10.9384
-11.0153
-11.0933
-11.173
-11.2556
-11.3426
-11.4376
-6.17009
-6.68258
-7.5455
-8.12518
-8.50145
-8.80062
-9.02524
-9.1959
-9.33863
-9.46365
-9.57587
-9.67943
-9.77697
-9.86996
-9.95945
-10.0462
-10.1308
-10.2135
-10.2947
-10.3747
-10.4537
-10.5318
-10.6093
-10.6864
-10.7634
-10.8407
-10.9185
-10.9975
-11.0784
-11.1619
-11.2495
-11.343
-11.4461
-6.53935
-6.89877
-7.58023
-8.09396
-8.4462
-8.73321
-8.9591
-9.13566
-9.28393
-9.41394
-9.53052
-9.6377
-9.73823
-9.83373
-9.92531
-10.0138
-10.0998
-10.1838
-10.2661
-10.3469
-10.4266
-10.5054
-10.5836
-10.6615
-10.7394
-10.8176
-10.8967
-10.9773
-11.0602
-11.1464
-11.2375
-11.3353
-11.443
-6.83876
-7.09615
-7.63353
-8.08227
-8.4083
-8.67989
-8.90183
-9.08028
-9.23161
-9.36509
-9.48521
-9.59563
-9.69899
-9.79694
-9.89062
-9.9809
-10.0684
-10.1536
-10.2369
-10.3186
-10.399
-10.4785
-10.5573
-10.6358
-10.7143
-10.7933
-10.8733
-10.9551
-11.0394
-11.1274
-11.2204
-11.3202
-11.4296
-7.08381
-7.27236
-7.69685
-8.08433
-8.38272
-8.63727
-8.85243
-9.03056
-9.18362
-9.31957
-9.44244
-9.55548
-9.66119
-9.76119
-9.85664
-9.94841
-10.0371
-10.1234
-10.2075
-10.2899
-10.3709
-10.4508
-10.53
-10.6089
-10.6877
-10.7671
-10.8476
-10.9299
-11.0148
-11.1032
-11.1967
-11.2965
-11.4049
-7.28579
-7.42712
-7.76406
-8.09636
-8.36727
-8.60432
-8.81065
-8.98618
-9.13919
-9.27624
-9.40085
-9.51584
-9.62344
-9.72521
-9.82225
-9.91539
-10.0053
-10.0925
-10.1774
-10.2604
-10.3419
-10.4222
-10.5016
-10.5806
-10.6596
-10.739
-10.8195
-10.9017
-10.9863
-11.0743
-11.1668
-11.2649
-11.3704
-7.453
-7.56136
-7.83079
-8.11476
-8.35916
-8.57872
-8.77498
-8.94635
-9.09814
-9.23545
-9.36117
-9.47765
-9.58681
-9.69007
-9.78846
-9.88279
-9.97368
-10.0617
-10.1472
-10.2307
-10.3124
-10.3928
-10.4723
-10.5512
-10.6299
-10.7089
-10.7888
-10.8702
-10.9537
-11.0401
-11.1304
-11.2254
-11.3263
-7.59158
-7.67648
-7.89401
-8.1366
-8.35621
-8.55892
-8.74464
-8.91077
-9.06034
-9.19702
-9.32312
-9.4405
-9.55077
-9.65519
-9.75467
-9.84997
-9.9417
-10.0303
-10.1164
-10.2001
-10.282
-10.3624
-10.4417
-10.5202
-10.5983
-10.6766
-10.7554
-10.8354
-10.9171
-11.0011
-11.0882
-11.1789
-11.274
-7.7061
-7.77401
-7.95166
-8.15944
-8.35643
-8.54326
-8.7184
-8.87863
-9.02525
-9.1607
-9.28667
-9.40455
-9.51564
-9.62098
-9.72138
-9.81749
-9.90989
-9.99906
-10.0854
-10.1693
-10.2512
-10.3313
-10.4101
-10.4879
-10.5651
-10.6422
-10.7195
-10.7975
-10.8766
-10.9575
-11.0405
-11.126
-11.2146
-7.80001
-7.85539
-8.00239
-8.18128
-8.35809
-8.53031
-8.69525
-8.84933
-8.99256
-9.12633
-9.25174
-9.36975
-9.48134
-9.58734
-9.68841
-9.78516
-9.87807
-9.96758
-10.0541
-10.138
-10.2196
-10.2993
-10.3774
-10.4543
-10.5303
-10.6057
-10.681
-10.7566
-10.8327
-10.9098
-10.9882
-11.068
-11.1494
-7.87587
-7.9219
-8.04531
-8.20052
-8.3597
-8.51873
-8.67414
-8.8221
-8.96173
-9.09355
-9.21812
-9.336
-9.44786
-9.55432
-9.65593
-9.75315
-9.84643
-9.93615
-10.0227
-10.1064
-10.1876
-10.2666
-10.3438
-10.4194
-10.4939
-10.5674
-10.6403
-10.713
-10.7856
-10.8584
-10.9317
-11.0054
-11.0796
-7.9356
-7.97459
-8.07984
-8.21586
-8.35994
-8.50733
-8.65409
-8.79626
-8.93232
-9.06211
-9.18569
-9.30328
-9.41527
-9.52206
-9.62406
-9.72163
-9.81515
-9.90496
-9.9914
-10.0748
-10.1554
-10.2336
-10.3096
-10.3838
-10.4564
-10.5277
-10.5979
-10.6674
-10.7362
-10.8045
-10.8723
-10.9398
-11.0067
-7.9806
-8.01426
-8.10557
-8.22623
-8.35765
-8.49502
-8.63415
-8.77106
-8.90377
-9.03159
-9.15415
-9.27138
-9.38339
-9.4904
-9.59267
-9.69048
-9.78411
-9.87387
-9.96005
-10.0429
-10.1228
-10.1999
-10.2746
-10.3471
-10.4176
-10.4864
-10.5537
-10.6196
-10.6843
-10.7479
-10.8103
-10.8715
-10.9313
-8.01186
-8.04148
-8.12218
-8.23075
-8.35182
-8.48081
-8.61349
-8.74586
-8.87567
-9.00175
-9.12346
-9.2404
-9.35248
-9.45973
-9.56227
-9.66029
-9.75401
-9.84366
-9.92951
-10.0118
-10.0908
-10.1667
-10.2399
-10.3105
-10.3788
-10.4449
-10.5091
-10.5713
-10.6318
-10.6906
-10.7476
-10.8027
-10.8556
-8.02998
-8.0566
-8.12933
-8.22862
-8.34151
-8.46378
-8.59124
-8.71991
-8.84734
-8.97205
-9.0931
-9.20986
-9.32204
-9.42951
-9.53227
-9.63042
-9.72411
-9.81354
-9.89891
-9.98045
-10.0584
-10.133
-10.2045
-10.273
-10.3389
-10.4021
-10.463
-10.5215
-10.5777
-10.6317
-10.6833
-10.7325
-10.779
-8.03527
-8.05972
-8.12668
-8.21912
-8.32589
-8.44313
-8.56674
-8.69277
-8.81862
-8.94257
-9.06343
-9.18038
-9.29294
-9.40085
-9.50401
-9.60241
-9.69616
-9.7854
-9.87032
-9.9511
-10.028
-10.1012
-10.1709
-10.2373
-10.3006
-10.3609
-10.4184
-10.4732
-10.5252
-10.5745
-10.6209
-10.6645
-10.7049
-8.02774
-8.05071
-8.11374
-8.2015
-8.30409
-8.41794
-8.53905
-8.66349
-8.78852
-8.91225
-9.03329
-9.15067
-9.26376
-9.37217
-9.47571
-9.57433
-9.66806
-9.75702
-9.84135
-9.92124
-9.9969
-10.0685
-10.1363
-10.2005
-10.2611
-10.3185
-10.3726
-10.4235
-10.4713
-10.516
-10.5576
-10.5959
-10.6307
-8.00708
-8.02919
-8.08995
-8.17508
-8.27545
-8.38775
-8.50801
-8.63228
-8.75771
-8.88226
-9.00437
-9.1229
-9.2371
-9.34649
-9.45081
-9.54994
-9.64387
-9.7327
-9.81656
-9.89562
-9.97009
-10.0402
-10.106
-10.1679
-10.2259
-10.2803
-10.331
-10.3782
-10.422
-10.4623
-10.4992
-10.5325
-10.5621
-7.97268
-7.99449
-8.05449
-8.13884
-8.2388
-8.35116
-8.47195
-8.59716
-8.72386
-8.84986
-8.97347
-9.09346
-9.20898
-9.31948
-9.42462
-9.52426
-9.61837
-9.70701
-9.79032
-9.86846
-9.94164
-10.0101
-10.0739
-10.1334
-10.1887
-10.24
-10.2874
-10.331
-10.3708
-10.407
-10.4394
-10.4682
-10.4931
-7.92357
-7.94568
-8.00653
-8.09223
-8.19406
-8.3088
-8.43237
-8.56063
-8.69047
-8.81955
-8.94606
-9.06867
-9.18644
-9.29878
-9.40533
-9.50591
-9.60051
-9.68919
-9.77209
-9.84941
-9.92135
-9.98814
-10.05
-10.1072
-10.1598
-10.2081
-10.2522
-10.2922
-10.3283
-10.3604
-10.3887
-10.4131
-10.4336
-7.85833
-7.88126
-7.94438
-8.03317
-8.1385
-8.25705
-8.38461
-8.51687
-8.6506
-8.78337
-8.91327
-9.03888
-9.15923
-9.27366
-9.38181
-9.48348
-9.57866
-9.66743
-9.74996
-9.82644
-9.89713
-9.96226
-10.0221
-10.0769
-10.1268
-10.1721
-10.2129
-10.2495
-10.2819
-10.3102
-10.3346
-10.3551
-10.3718
-7.77512
-7.79976
-7.86749
-7.96254
-8.07493
-8.20101
-8.33617
-8.47572
-8.61619
-8.75501
-8.8902
-9.02029
-9.14432
-9.26166
-9.37196
-9.47511
-9.57111
-9.66011
-9.74231
-9.81798
-9.88738
-9.95081
-10.0086
-10.0609
-10.1081
-10.1504
-10.1881
-10.2212
-10.25
-10.2746
-10.2952
-10.3118
-10.3245
-7.67109
-7.69777
-7.77132
-7.87381
-7.99407
-8.12829
-8.27165
-8.41915
-8.56711
-8.71281
-8.85414
-8.98958
-9.11809
-9.23905
-9.35215
-9.45728
-9.55452
-9.64405
-9.72615
-9.80114
-9.86935
-9.93113
-9.98684
-10.0368
-10.0813
-10.1206
-10.1551
-10.1849
-10.2102
-10.2314
-10.2484
-10.2616
-10.271
-7.54339
-7.57449
-7.6592
-7.77604
-7.91139
-8.0606
-8.21806
-8.37821
-8.53718
-8.69228
-8.84147
-8.98331
-9.11692
-9.24181
-9.35777
-9.46482
-9.56314
-9.65302
-9.7348
-9.80889
-9.87568
-9.9356
-9.98905
-10.0364
-10.078
-10.1142
-10.1454
-10.1717
-10.1935
-10.2109
-10.2243
-10.2337
-10.2393
-7.38548
-7.41948
-7.51414
-7.64347
-7.79207
-7.95557
-8.12777
-8.30222
-8.47452
-8.64166
-8.80137
-8.95213
-9.09306
-9.22374
-9.34408
-9.45423
-9.55451
-9.64535
-9.72725
-9.80071
-9.86627
-9.92443
-9.97568
-10.0205
-10.0593
-10.0925
-10.1204
-10.1434
-10.1618
-10.1759
-10.1859
-10.1923
-10.195
-7.19528
-7.24209
-7.36364
-7.52302
-7.69922
-7.88732
-8.08076
-8.27298
-8.46002
-8.6393
-8.8089
-8.96759
-9.11476
-9.25018
-9.37394
-9.48634
-9.58784
-9.67899
-9.76039
-9.83267
-9.89644
-9.9523
-10.0008
-10.0426
-10.078
-10.1075
-10.1317
-10.1508
-10.1652
-10.1752
-10.1812
-10.1833
-10.182
-6.95126
-6.99717
-7.13239
-7.31201
-7.51282
-7.72931
-7.95158
-8.17062
-8.38158
-8.58148
-8.76819
-8.94064
-9.09852
-9.24199
-9.3715
-9.48774
-9.5915
-9.68361
-9.76493
-9.83628
-9.89847
-9.95223
-9.99825
-10.0372
-10.0695
-10.0959
-10.1166
-10.1323
-10.1433
-10.1499
-10.1526
-10.1518
-10.1477
-6.67144
-6.76498
-6.96798
-7.20069
-7.43874
-7.68479
-7.93095
-8.16924
-8.39634
-8.60996
-8.80824
-8.99028
-9.15588
-9.30527
-9.439
-9.55789
-9.66286
-9.75491
-9.83507
-9.90434
-9.96367
-10.014
-10.056
-10.0906
-10.1183
-10.1398
-10.1556
-10.1662
-10.172
-10.1734
-10.1709
-10.1648
-10.1556
-6.24614
-6.3137
-6.54723
-6.83691
-7.1421
-7.45579
-7.76133
-8.04887
-8.31574
-8.5603
-8.78182
-8.98084
-9.15848
-9.31607
-9.45508
-9.57702
-9.68338
-9.77556
-9.85491
-9.92265
-9.97993
-10.0278
-10.0671
-10.0987
-10.1233
-10.1416
-10.154
-10.1612
-10.1634
-10.1612
-10.155
-10.1454
-10.133
-5.87957
-6.13165
-6.48623
-6.8025
-7.11911
-7.45064
-7.77374
-8.07964
-8.36658
-8.63101
-8.87057
-9.08497
-9.27477
-9.44115
-9.58569
-9.71023
-9.81665
-9.90679
-9.98242
-10.0452
-10.0965
-10.1377
-10.17
-10.1943
-10.2116
-10.2225
-10.2276
-10.2274
-10.2224
-10.2127
-10.1986
-10.1809
-10.1594
-4.82394
-5.08904
-5.69765
-6.24063
-6.73836
-7.20968
-7.63016
-8.00235
-8.33376
-8.62719
-8.88564
-9.11255
-9.31083
-9.48312
-9.63183
-9.7592
-9.86734
-9.95823
-10.0337
-10.0956
-10.1453
-10.1844
-10.214
-10.2354
-10.2494
-10.2568
-10.2581
-10.254
-10.2443
-10.2294
-10.2085
-10.1828
-10.1483
-4.87306
-5.43201
-5.87086
-6.23137
-6.70282
-7.19267
-7.65085
-8.08012
-8.47195
-8.818
-9.11809
-9.37482
-9.59143
-9.77188
-9.9204
-10.0412
-10.138
-10.2144
-10.2735
-10.3179
-10.35
-10.3716
-10.3846
-10.3902
-10.3896
-10.3837
-10.3733
-10.3586
-10.3396
-10.3156
-10.2844
-10.2438
-10.1827
0.0715849
-3.61959
-4.94168
-5.6072
-6.40054
-7.07131
-7.60811
-8.07705
-8.48552
-8.83485
-9.13273
-9.38511
-9.59685
-9.77278
-9.91749
-10.0351
-10.1295
-10.2039
-10.2614
-10.3045
-10.3355
-10.3562
-10.3684
-10.3734
-10.3724
-10.3663
-10.3561
-10.3422
-10.3256
-10.3059
-10.2853
-10.2595
-10.2381
-11.2923
-11.0687
-11.1307
-11.3699
-12.0049
-13.2451
-15.2966
-18.2426
-21.8927
-25.6718
-28.7549
-30.4243
-30.3052
-28.2606
-24.2192
-18.5482
-12.4078
-7.05902
-3.02285
-0.241232
1.53065
2.43727
2.41631
1.49816
-0.660079
-4.63033
-10.4828
-17.6734
-25.2807
-32.53
-38.9828
-44.438
-48.6931
-51.4102
-52.205
-50.6735
-46.5279
-40.2434
-33.3163
-27.1926
-22.0807
-17.4494
-13.0314
-9.10404
-6.0316
-3.83619
-2.30608
-1.22735
-0.455959
0.0966495
0.484719
0.741183
0.883876
0.916654
0.818806
0.550199
-0.0253499
-1.44262
-4.64032
-10.3155
-17.9468
-25.978
-32.5996
-36.4056
-36.7156
-33.3638
-26.905
-19.1357
-12.2971
-7.49487
-4.47408
-2.60285
-1.42828
-0.689298
-0.229087
0.0531469
0.223514
0.324913
0.384603
0.419375
0.43905
0.448995
0.451856
0.448814
0.440398
0.426998
0.408972
0.386845
0.361239
0.332858
0.302386
0.270545
0.23778
0.204902
0.17147
0.139677
0.105212
0.078499
0.035964
0.0307178
-11.3378
-11.1327
-11.1691
-11.4166
-12.0744
-13.3442
-15.3694
-18.1634
-21.5119
-24.9096
-27.6146
-28.9285
-28.4666
-26.1564
-22.1418
-16.9571
-11.5743
-6.8814
-3.25009
-0.670121
0.99282
1.85723
1.85717
0.960604
-0.999498
-4.53527
-9.82469
-16.4908
-23.7319
-30.762
-37.0748
-42.405
-46.527
-49.1259
-49.8436
-48.3002
-44.2879
-38.3766
-32.0005
-26.3642
-21.5396
-17.0678
-12.7943
-9.03145
-6.09678
-3.97835
-2.47603
-1.39932
-0.619542
-0.0553181
0.344675
0.612056
0.76395
0.804201
0.713171
0.447952
-0.0964068
-1.37064
-4.23865
-9.39079
-16.4349
-23.9537
-30.2235
-33.8688
-34.21
-31.0977
-25.109
-17.9783
-11.7427
-7.3362
-4.50692
-2.70789
-1.55151
-0.808379
-0.335076
-0.0367222
0.149964
0.266527
0.339625
0.385836
0.414985
0.432562
0.441401
0.442902
0.437811
0.426721
0.410201
0.388962
0.363778
0.335492
0.304888
0.272796
0.239703
0.206529
0.172756
0.140796
0.105946
0.0793157
0.0361016
0.0313789
-11.2869
-11.1935
-11.2919
-11.6191
-12.3263
-13.5839
-15.5084
-18.0862
-21.0959
-24.0286
-26.2005
-27.0286
-26.2142
-23.7964
-20.055
-15.5121
-10.8786
-6.77911
-3.518
-1.13576
0.421636
1.23104
1.24874
0.395022
-1.4202
-4.57347
-9.30417
-15.3771
-22.1505
-28.8752
-34.9916
-40.1674
-44.144
-46.6158
-47.2453
-45.6933
-41.86
-36.4014
-30.6344
-25.4926
-20.9466
-16.6373
-12.527
-8.94797
-6.15996
-4.12148
-2.6489
-1.57622
-0.789819
-0.215389
0.195463
0.472989
0.633452
0.680733
0.596544
0.336369
-0.185244
-1.33493
-3.88693
-8.50537
-14.9223
-21.8782
-27.754
-31.2159
-31.5874
-28.7371
-23.2619
-16.8097
-11.1927
-7.18074
-4.54029
-2.81346
-1.67636
-0.929937
-0.443858
-0.1293
0.0740194
0.20617
0.293126
0.351197
0.390179
0.415664
0.430674
0.436837
0.435144
0.426421
0.41145
0.391121
0.366368
0.338172
0.307428
0.275072
0.241638
0.208153
0.17403
0.141889
0.106661
0.0800929
0.0362528
0.0319858
-11.3404
-11.336
-11.4779
-11.844
-12.5607
-13.766
-15.5322
-17.8099
-20.3473
-22.6953
-24.3016
-24.7054
-23.7252
-21.465
-18.1938
-14.3132
-10.338
-6.7477
-3.81965
-1.63218
-0.179842
0.570525
0.598725
-0.199972
-1.89632
-4.71946
-8.91297
-14.3553
-20.5705
-26.8965
-32.7489
-37.7306
-41.5427
-43.8757
-44.4137
-42.881
-39.301
-34.3808
-29.2546
-24.5867
-20.3019
-16.1626
-12.2391
-8.86034
-6.22279
-4.26467
-2.82346
-1.75724
-0.966426
-0.383411
0.0371403
0.323983
0.492384
0.546097
0.468466
0.214896
-0.289104
-1.32985
-3.58142
-7.66609
-13.4286
-19.7808
-25.2279
-28.488
-28.8917
-26.3292
-21.4084
-15.6613
-10.6611
-7.03132
-4.57329
-2.91834
-1.80208
-1.05359
-0.555255
-0.224501
-0.00426844
0.143891
0.24517
0.315554
0.364774
0.398508
0.419959
0.430985
0.43282
0.426517
0.413091
0.393636
0.36926
0.341096
0.310154
0.277483
0.243665
0.209836
0.175341
0.142996
0.107391
0.0808545
0.0364292
0.0325305
-11.4019
-11.4732
-11.671
-12.0737
-12.7715
-13.8583
-15.3708
-17.2352
-19.2369
-21.0197
-22.1659
-22.3418
-21.4163
-19.4557
-16.6627
-13.3499
-9.92223
-6.7712
-4.14852
-2.15319
-0.807844
-0.115136
-0.085637
-0.820318
-2.40008
-4.94957
-8.65348
-13.4684
-19.0595
-24.8882
-30.3906
-35.1214
-38.7384
-40.9189
-41.3768
-39.9198
-36.687
-32.3752
-27.8835
-23.6487
-19.6067
-15.6503
-11.9385
-8.77216
-6.2857
-4.40766
-2.99961
-1.9424
-1.14943
-0.559523
-0.130535
0.164687
0.34037
0.399932
0.328527
0.0830958
-0.40564
-1.3536
-3.32736
-6.89419
-11.9921
-17.7108
-22.6979
-25.7366
-26.1735
-23.9233
-19.5889
-14.5567
-10.1564
-6.89027
-4.60676
-3.02306
-1.929
-1.17953
-0.669384
-0.322414
-0.0849573
0.0796661
0.195769
0.27894
0.3388
0.381093
0.4092
0.425215
0.43064
0.426786
0.414911
0.396316
0.372293
0.344128
0.312956
0.279938
0.245713
0.211517
0.176637
0.144074
0.1081
0.0815744
0.0366128
0.0330197
-11.4778
-11.6082
-11.8465
-12.256
-12.9005
-13.8385
-15.0868
-16.5835
-18.1492
-19.5063
-20.3428
-20.3962
-19.5458
-17.8355
-15.4272
-12.5752
-9.60577
-6.83904
-4.49695
-2.68747
-1.45121
-0.813555
-0.790735
-1.46139
-2.9176
-5.2366
-8.51934
-12.7505
-17.6953
-22.9428
-27.9977
-32.4026
-35.7822
-37.8001
-38.2112
-36.9126
-34.1202
-30.4451
-26.5367
-22.6792
-18.8644
-15.1114
-11.6355
-8.68749
-6.34899
-4.54983
-3.17672
-2.13125
-1.33853
-0.743551
-0.307467
-0.0048668
0.177444
0.24231
0.176697
-0.059626
-0.533458
-1.40574
-3.13267
-6.21406
-10.6558
-15.7228
-20.2228
-23.0218
-23.4951
-21.5789
-17.8492
-13.52
-9.68686
-6.75907
-4.64068
-3.12747
-2.05702
-1.3077
-0.786258
-0.423064
-0.168057
0.0135204
0.144983
0.241446
0.312379
0.363575
0.398592
0.419772
0.428889
0.427517
0.417175
0.399392
0.375656
0.347422
0.315953
0.28253
0.247848
0.213247
0.177958
0.145154
0.108811
0.082271
0.0368143
0.0334533
-11.5273
-11.6896
-11.9473
-12.3493
-12.9412
-13.7594
-14.8062
-16.0153
-17.2399
-18.2653
-18.8489
-18.7902
-17.9946
-16.4904
-14.404
-11.9417
-9.36665
-6.94041
-4.85636
-3.22459
-2.09826
-1.51487
-1.50152
-2.11545
-3.44406
-5.55253
-8.48163
-12.2011
-16.5329
-21.1637
-25.6916
-29.6931
-32.7889
-34.6448
-35.0605
-34.0041
-31.7043
-28.6288
-25.2146
-21.6755
-18.083
-14.5611
-11.3398
-8.60864
-6.41235
-4.69064
-3.35443
-2.3235
-1.53348
-0.935315
-0.493547
-0.18465
0.00359433
0.0733033
0.0130249
-0.213687
-0.671364
-1.48253
-2.99806
-5.64054
-9.456
-13.8712
-17.8672
-20.4133
-20.9264
-19.3577
-16.2308
-12.5693
-9.25669
-6.63835
-4.67535
-3.23189
-2.18638
-1.43831
-0.906026
-0.526564
-0.25363
-0.0545529
0.0928551
0.203152
0.285606
0.346041
0.388193
0.41466
0.427517
0.428627
0.419786
0.402765
0.379255
0.35089
0.319067
0.285189
0.250013
0.214976
0.179262
0.1462
0.109496
0.0829235
0.0370182
0.0338342
-11.5626
-11.7467
-12.0142
-12.4011
-12.9375
-13.6436
-14.5092
-15.4752
-16.4235
-17.1856
-17.5758
-17.4394
-16.6984
-15.3706
-13.5576
-11.4277
-9.19321
-7.06804
-5.22005
-3.75653
-2.73854
-2.20971
-2.20489
-2.77059
-3.97534
-5.88087
-8.50393
-11.7905
-15.5849
-19.6315
-23.609
-27.16
-29.9402
-31.6452
-32.114
-31.3417
-29.5094
-26.9311
-23.9056
-20.6372
-17.2786
-14.0174
-11.0591
-8.53666
-6.47522
-4.82958
-3.53232
-2.51871
-1.73387
-1.13446
-0.688484
-0.374401
-0.180944
-0.106718
-0.162066
-0.379055
-0.818791
-1.57906
-2.91918
-5.17939
-8.42086
-12.2076
-15.6982
-17.9855
-18.5407
-17.3192
-14.7679
-11.7157
-8.86747
-6.52812
-4.71102
-3.33662
-2.31732
-1.57154
-1.02886
-0.633037
-0.341734
-0.124544
0.0394543
0.164169
0.258623
0.328654
0.378181
0.410081
0.426739
0.430329
0.422941
0.406606
0.383235
0.35465
0.32239
0.287985
0.252258
0.21674
0.180574
0.147231
0.110169
0.083542
0.0372296
0.0341621
-11.5812
-11.7747
-12.0396
-12.4014
-12.8797
-13.4837
-14.1981
-14.9692
-15.6995
-16.2565
-16.4967
-16.3009
-15.6086
-14.4331
-12.8557
-11.0117
-9.07268
-7.21443
-5.58216
-4.27712
-3.36402
-2.88996
-2.89222
-3.41435
-4.50494
-6.21558
-8.55919
-11.475
-14.8168
-18.3612
-21.8368
-24.9509
-27.4181
-28.9877
-29.5243
-29.0052
-27.5373
-25.3213
-22.5915
-19.5734
-16.4761
-13.4973
-10.7981
-8.47121
-6.5369
-4.96627
-3.71
-2.71642
-1.93922
-1.34056
-0.891891
-0.573748
-0.375826
-0.29732
-0.347945
-0.555264
-0.975559
-1.69069
-2.88829
-4.82742
-7.56554
-10.7728
-13.777
-15.8095
-16.4048
-15.5106
-13.4806
-10.9619
-8.51764
-6.42795
-4.74813
-3.44221
-2.45027
-1.70774
-1.15503
-0.742676
-0.432468
-0.196461
-0.0151522
0.124619
0.231577
0.311564
0.36869
0.406133
0.426609
0.432641
0.426631
0.410888
0.387557
0.358655
0.325873
0.290872
0.254539
0.218502
0.181862
0.148221
0.110808
0.0841129
0.037439
0.034442
-11.5832
-11.7788
-12.035
-12.3685
-12.7909
-13.3036
-13.8879
-14.4961
-15.0493
-15.4437
-15.5688
-15.3335
-14.6905
-13.6496
-12.2755
-10.6778
-8.99566
-7.37404
-5.93799
-4.78101
-3.968
-3.54777
-3.55704
-4.03711
-5.02401
-6.55296
-8.63496
-11.2175
-14.1707
-17.2963
-20.3556
-23.099
-25.292
-26.7368
-27.3103
-26.9553
-25.7183
-23.7482
-21.2652
-18.5117
-15.7046
-13.013
-10.5578
-8.4111
-6.59682
-5.10044
-3.8871
-2.91613
-2.14897
-1.55306
-1.10324
-0.782143
-0.580489
-0.497874
-0.543656
-0.741368
-1.14129
-1.8137
-2.89518
-4.57229
-6.88758
-9.58697
-12.1459
-13.9381
-14.5646
-13.9566
-12.3715
-10.3021
-8.20367
-6.33734
-4.78732
-3.54932
-2.58575
-1.84735
-1.28489
-0.855726
-0.525954
-0.27031
-0.0708802
0.0846474
0.204653
0.294973
0.359926
0.403015
0.427324
0.435744
0.431017
0.415747
0.392331
0.362993
0.329583
0.293895
0.256888
0.220281
0.183136
0.149175
0.111415
0.0846356
0.0376432
0.0346688
-11.5702
-11.7619
-12.0034
-12.3053
-12.6731
-13.1036
-13.5773
-14.0528
-14.4657
-14.7343
-14.7733
-14.513
-13.9172
-12.9941
-11.7959
-10.4113
-8.95328
-7.54149
-6.28326
-5.26356
-4.54506
-4.17646
-4.19324
-4.63264
-5.52388
-6.88766
-8.72758
-11.001
-13.601
-16.3594
-19.0675
-21.5052
-23.4688
-24.7866
-25.3376
-25.0498
-23.9514
-22.1819
-19.9543
-17.4942
-14.9876
-12.5691
-10.3363
-8.35497
-6.65466
-5.23194
-4.06326
-3.11727
-2.36249
-1.77131
-1.32187
-0.998911
-0.794206
-0.707628
-0.748154
-0.936069
-1.31511
-1.94554
-2.92928
-4.39528
-6.36711
-8.64285
-10.816
-12.3908
-13.0316
-12.6526
-11.4262
-9.72479
-7.92111
-6.25605
-4.82945
-3.6588
-2.72451
-1.99099
-1.41893
-0.972514
-0.622361
-0.346118
-0.127641
0.0444212
0.178058
0.279096
0.352092
0.400899
0.429014
0.439729
0.436153
0.42121
0.397562
0.367652
0.333498
0.297029
0.259278
0.222049
0.184375
0.150075
0.111978
0.0851053
0.0378409
0.0348529
-11.5427
-11.7261
-11.9498
-12.2195
-12.5366
-12.8949
-13.2752
-13.6417
-13.9421
-14.1126
-14.0874
-13.8135
-13.2639
-12.4456
-11.4007
-10.201
-8.9386
-7.71257
-6.6147
-5.72118
-5.09095
-4.77093
-4.79523
-5.19635
-5.99832
-7.21281
-8.83422
-10.8235
-13.0933
-15.5064
-17.8874
-20.043
-21.7897
-22.9616
-23.4449
-23.1854
-22.2168
-20.6667
-18.7186
-16.5581
-14.3352
-12.1632
-10.1306
-8.30181
-6.71037
-5.36069
-4.2381
-3.31929
-2.5791
-1.99458
-1.54703
-1.22324
-1.01608
-0.925634
-0.960324
-1.13784
-1.49556
-2.08431
-2.98179
-4.27571
-5.97229
-7.90663
-9.76057
-11.1442
-11.7781
-11.5669
-10.6186
-9.21622
-7.66604
-6.1843
-4.87557
-3.7717
-2.86746
-2.13945
-1.55777
-1.09346
-0.721905
-0.42392
-0.18533
0.00413808
0.152038
0.2642
0.345444
0.400023
0.43189
0.444778
0.442192
0.427398
0.403341
0.372698
0.337659
0.300295
0.261715
0.223806
0.185569
0.150909
0.112483
0.0855081
0.0380185
0.0349814
-11.5026
-11.6749
-11.8785
-12.1161
-12.3862
-12.6809
-12.9823
-13.2599
-13.4714
-13.5668
-13.4955
-13.2175
-12.7125
-11.9871
-11.0758
-10.0367
-8.94526
-7.88343
-6.92952
-6.15105
-5.60237
-5.32751
-5.35868
-5.72422
-6.4433
-7.52225
-8.94925
-10.6851
-12.654
-14.742
-16.8042
-18.6766
-20.1971
-21.2162
-21.6369
-21.4231
-20.6039
-19.2825
-17.6039
-15.7157
-13.7435
-11.7897
-9.93821
-8.25128
-6.76414
-5.48664
-4.41129
-3.52159
-2.79808
-2.22205
-1.77785
-1.45422
-1.24511
-1.15079
-1.17901
-1.34517
-1.68089
-2.22814
-3.0464
-4.19532
-5.66846
-7.32885
-8.92319
-10.1406
-10.7491
-10.6532
-9.91966
-8.76418
-7.43579
-6.12269
-4.92698
-3.88931
-3.0158
-2.29374
-1.70221
-1.21911
-0.824872
-0.503774
-0.243834
-0.0359761
0.126877
0.250583
0.34026
0.400631
0.436152
0.451042
0.449239
0.434379
0.409708
0.378147
0.342068
0.303687
0.264189
0.225539
0.186709
0.151671
0.112929
0.0858493
0.038184
0.0350718
-11.451
-11.6102
-11.793
-11.9997
-12.2272
-12.4668
-12.7022
-12.9077
-13.0492
-13.0875
-12.984
-12.7085
-12.2464
-11.604
-10.8094
-9.91022
-8.96809
-8.05106
-7.22569
-6.55127
-6.07707
-5.84358
-5.88064
-6.21294
-6.8556
-7.81123
-9.0652
-10.5788
-12.2839
-14.0828
-15.8533
-17.4588
-18.7632
-19.6436
-20.025
-19.863
-19.1822
-18.0616
-16.6136
-14.9576
-13.2031
-11.4438
-9.75782
-8.20347
-6.81618
-5.60977
-4.58247
-3.7236
-3.01866
-2.45287
-2.01338
-1.69082
-1.48018
-1.38188
-1.40293
-1.55658
-1.8693
-2.37509
-3.11885
-4.14074
-5.42654
-6.86135
-8.2406
-9.31228
-9.88451
-9.86904
-9.3066
-8.3603
-7.22894
-6.07213
-4.98511
-4.01315
-3.17097
-2.45516
-1.85325
-1.35015
-0.931622
-0.585761
-0.30302
-0.0756578
0.102916
0.238593
0.336873
0.403017
0.44205
0.458724
0.457452
0.442268
0.41674
0.384043
0.346742
0.307199
0.266679
0.227218
0.187761
0.152328
0.113284
0.0861002
0.0383129
0.0351022
-11.3901
-11.535
-11.697
-11.8746
-12.0638
-12.2559
-12.4364
-12.5836
-12.6705
-12.6662
-12.5415
-12.2736
-11.8525
-11.2841
-10.5918
-9.81439
-9.00256
-8.21284
-7.50165
-6.92058
-6.51368
-6.31759
-6.35945
-6.66065
-7.23308
-8.07668
-9.17584
-10.4941
-11.9708
-13.5212
-15.0416
-16.4176
-17.5371
-18.3001
-18.6387
-18.5141
-17.9429
-16.9846
-15.7272
-14.2696
-12.7069
-11.1231
-9.58902
-8.1586
-6.86674
-5.73006
-4.75135
-3.92475
-3.24011
-2.68614
-2.25262
-1.93196
-1.72011
-1.61762
-1.63072
-1.77065
-2.0592
-2.52339
-3.19624
-4.10366
-5.2271
-6.46965
-7.66496
-8.60797
-9.14131
-9.1859
-8.76483
-7.99915
-7.04468
-6.03365
-5.05165
-4.1451
-3.33479
-2.6253
-2.01218
-1.48744
-1.04262
-0.669996
-0.362746
-0.114595
0.0805378
0.228629
0.33566
0.407511
0.449851
0.468033
0.466986
0.451173
0.424504
0.390427
0.351702
0.310842
0.26919
0.228846
0.188727
0.152886
0.113557
0.0862747
0.0384216
0.0350965
-11.3211
-11.4515
-11.5931
-11.7438
-11.8991
-12.0507
-12.1858
-12.2865
-12.3311
-12.2958
-12.1582
-11.9018
-11.5195
-11.0172
-10.4144
-9.74307
-9.04485
-8.3667
-7.75634
-7.25834
-6.91158
-6.74873
-6.79416
-7.0662
-7.5742
-8.31626
-9.27667
-10.4221
-11.6991
-13.0349
-14.3414
-15.5222
-16.4834
-17.1404
-17.4349
-17.3348
-16.8494
-16.0236
-14.9275
-13.6429
-12.2511
-10.8262
-9.43155
-8.11687
-6.91603
-5.84753
-4.91765
-4.12451
-3.46167
-2.92096
-2.49456
-2.1765
-1.96367
-1.85668
-1.86097
-1.98596
-2.24915
-2.67153
-3.27656
-4.07945
-5.05936
-6.13458
-7.16997
-7.99943
-8.49519
-8.58668
-8.28457
-7.67669
-6.88242
-6.0084
-5.12853
-4.28739
-3.50952
-2.80618
-2.18059
-1.63209
-1.15845
-0.756621
-0.422841
-0.152412
0.0601911
0.22116
0.337057
0.414489
0.459864
0.479206
0.478012
0.461206
0.433066
0.397319
0.356934
0.314575
0.271666
0.230361
0.189546
0.153286
0.113698
0.0863311
0.038477
0.0350257
-11.2462
-11.3619
-11.4843
-11.6106
-11.7362
-11.8534
-11.9512
-12.015
-12.0274
-11.9701
-11.8262
-11.5836
-11.2379
-10.7946
-10.2703
-9.6912
-9.09177
-8.51104
-7.98921
-7.56454
-7.27097
-7.13726
-7.18501
-7.42977
-7.87884
-8.52917
-9.36546
-10.3576
-11.4589
-12.607
-13.7272
-14.7384
-15.5608
-16.1237
-16.3771
-16.2934
-15.8773
-15.1627
-14.2054
-13.0726
-11.8332
-10.5519
-9.28511
-8.07843
-6.9643
-5.96225
-5.08118
-4.32241
-3.68265
-3.15647
-2.73818
-2.42333
-2.20962
-2.09774
-2.09232
-2.20114
-2.43781
-2.81821
-3.35822
-4.06512
-4.91715
-5.84568
-6.74139
-7.47083
-7.93041
-8.05885
-7.85799
-7.38937
-6.74168
-5.9977
-5.21802
-4.44272
-3.69793
-3.00035
-2.36052
-1.78549
-1.27986
-0.845847
-0.483103
-0.188697
0.0424036
0.21673
0.341564
0.42438
0.472438
0.492514
0.49073
0.472512
0.442521
0.404783
0.362481
0.318427
0.274125
0.231775
0.19023
0.153541
0.113721
0.0862861
0.0384985
0.0349151
-11.1664
-11.2681
-11.3725
-11.4769
-11.5767
-11.6651
-11.7327
-11.7675
-11.7558
-11.6836
-11.5381
-11.3109
-10.9993
-10.6087
-10.1531
-9.65418
-9.14049
-8.64445
-8.19987
-7.83936
-7.59228
-7.48364
-7.53236
-7.75153
-8.14676
-8.71436
-9.43986
-10.2962
-11.2429
-12.2266
-13.184
-14.0469
-14.7478
-15.2279
-15.4436
-15.371
-15.0118
-14.3913
-13.5538
-12.554
-11.4503
-10.2988
-9.14939
-8.0435
-7.01183
-6.07435
-5.24181
-4.51806
-3.90242
-3.39182
-2.9825
-2.67133
-2.45675
-2.33951
-2.32345
-2.41487
-2.62396
-2.96229
-3.43984
-4.05819
-4.7957
-5.59505
-6.36819
-7.00885
-7.43417
-7.5919
-7.47817
-7.13396
-6.62206
-6.00302
-5.32278
-4.61442
-3.9035
-3.211
-2.55455
-1.94939
-1.40777
-0.93791
-0.543294
-0.222948
0.0278005
0.21597
0.349754
0.437667
0.487954
0.508239
0.505334
0.4852
0.452913
0.412806
0.368285
0.322312
0.27647
0.232991
0.190687
0.153574
0.113565
0.0860928
0.0384531
0.0347362
-11.0838
-11.1722
-11.2601
-11.3451
-11.4228
-11.4872
-11.5304
-11.5427
-11.5134
-11.4317
-11.2883
-11.0772
-10.7972
-10.4535
-10.0579
-9.62852
-9.18899
-8.76625
-8.38864
-8.08383
-7.87696
-7.78957
-7.83803
-8.03324
-8.37947
-8.87271
-9.49956
-10.236
-11.047
-11.8869
-12.7024
-13.4361
-14.0309
-14.4375
-14.6185
-14.5531
-14.2406
-13.6999
-12.9656
-12.0828
-11.1001
-10.0659
-9.02421
-8.0123
-7.05894
-6.18402
-5.3995
-4.71115
-4.12044
-3.6263
-3.22662
-2.91946
-2.70391
-2.58078
-2.55313
-2.62597
-2.8065
-3.10277
-3.52021
-4.05649
-4.69085
-5.37573
-6.04068
-6.60245
-6.99534
-7.17651
-7.13879
-6.90734
-6.52319
-6.02609
-5.44599
-4.80653
-4.13058
-3.44217
-2.76591
-2.12598
-1.54336
-1.03309
-0.603158
-0.254559
0.0171234
0.219622
0.362294
0.454909
0.506857
0.526721
0.522072
0.499452
0.464368
0.421476
0.374405
0.32627
0.278725
0.234022
0.190926
0.153389
0.113232
0.0857556
0.0383491
0.0345046
-10.9992
-11.075
-11.1481
-11.216
-11.2749
-11.3196
-11.3433
-11.3384
-11.2966
-11.2097
-11.0708
-10.8761
-10.6252
-10.3231
-9.97983
-9.61064
-9.23502
-8.87539
-8.55544
-8.29848
-8.12591
-8.05608
-8.10302
-8.27568
-8.57729
-9.00374
-9.54285
-10.1735
-10.8654
-11.5798
-12.2716
-12.8927
-13.3951
-13.7372
-13.8869
-13.826
-13.5522
-13.0794
-12.4349
-11.6548
-10.7802
-9.85221
-8.90938
-7.9851
-7.10601
-6.29152
-5.55428
-4.90148
-4.33628
-3.85926
-3.46973
-3.16678
-2.95008
-2.82044
-2.78026