/*--------------------------------*- C++ -*----------------------------------*\
  =========                 |
  \\      /  F ield         | OpenFOAM: The Open Source CFD Toolbox
   \\    /   O peration     | Website:  https://openfoam.org
    \\  /    A nd           | Version:  10
     \\/     M anipulation  |
\*---------------------------------------------------------------------------*/
FoamFile
{
    format      ascii;
    class       surfaceScalarField;
    location    "0.12";
    object      phi;
}
// * * * * * * * * * * * * * * * * * * * * * * * * * * * * * * * * * * * * * //

dimensions      [0 3 -1 0 0 0 0];

internalField   nonuniform List<scalar> 
13452
(
4.01941e-05
2.00743e-05
2.59402e-05
1.42539e-05
1.85421e-05
7.39817e-06
1.51763e-05
3.36572e-06
1.37698e-05
1.40652e-06
1.3071e-05
6.9878e-07
1.26275e-05
4.43531e-07
1.22873e-05
3.40221e-07
1.20007e-05
2.86577e-07
1.17558e-05
2.44894e-07
1.15484e-05
2.07363e-07
1.13748e-05
1.73645e-07
1.12308e-05
1.44012e-07
1.11124e-05
1.18406e-07
1.1016e-05
9.63966e-08
1.09386e-05
7.73974e-08
1.08777e-05
6.0848e-08
1.08315e-05
4.62736e-08
1.07982e-05
3.3313e-08
1.07765e-05
2.16906e-08
1.07654e-05
1.10955e-08
1.07641e-05
1.25666e-09
1.07712e-05
-7.05308e-09
1.07858e-05
-1.46646e-08
1.08072e-05
-2.13306e-08
1.08341e-05
-2.69472e-08
1.08659e-05
-3.17747e-08
1.09008e-05
-3.49102e-08
1.09397e-05
-3.88728e-08
1.09757e-05
-3.60855e-08
1.10272e-05
-5.14554e-08
1.10438e-05
-1.66006e-08
-2.14326e-07
1.12581e-05
6.59044e-05
1.61603e-05
6.19042e-05
1.8254e-05
5.56541e-05
1.36483e-05
4.98004e-05
9.21943e-06
4.53225e-05
5.88448e-06
4.21304e-05
3.89084e-06
3.98473e-05
2.72664e-06
3.8174e-05
2.01346e-06
3.69052e-05
1.55539e-06
3.59098e-05
1.24031e-06
3.51074e-05
1.00974e-06
3.44476e-05
8.33477e-07
3.38973e-05
6.94276e-07
3.34342e-05
5.81553e-07
3.30422e-05
4.88348e-07
3.27098e-05
4.09841e-07
3.2428e-05
3.42604e-07
3.21902e-05
2.84164e-07
3.19907e-05
2.32726e-07
3.18255e-05
1.86955e-07
3.16907e-05
1.45841e-07
3.15832e-05
1.08798e-07
3.15006e-05
7.5536e-08
3.14405e-05
4.54487e-08
3.14007e-05
1.84048e-08
3.13795e-05
-5.65077e-09
3.13743e-05
-2.65834e-08
3.13832e-05
-4.38434e-08
3.14037e-05
-5.9345e-08
3.1436e-05
-6.84274e-08
3.14759e-05
-9.12977e-08
3.15602e-05
-1.00911e-07
-1.98905e-07
3.15447e-05
6.91815e-05
1.07402e-05
7.25101e-05
1.49254e-05
7.30694e-05
1.3089e-05
7.17056e-05
1.05832e-05
6.94757e-05
8.11433e-06
6.71161e-05
6.25052e-06
6.49094e-05
4.93329e-06
6.29462e-05
3.97667e-06
6.12368e-05
3.26484e-06
5.97589e-05
2.71819e-06
5.84833e-05
2.28527e-06
5.73821e-05
1.93477e-06
5.643e-05
1.6463e-06
5.56059e-05
1.40566e-06
5.48918e-05
1.20247e-06
5.42727e-05
1.02897e-06
5.3736e-05
8.79276e-07
5.32713e-05
7.48839e-07
5.28699e-05
6.34159e-07
5.25243e-05
5.32514e-07
5.22284e-05
4.41796e-07
5.19767e-05
3.60424e-07
5.17649e-05
2.8735e-07
5.15888e-05
2.21567e-07
5.14447e-05
1.62501e-07
5.13292e-05
1.09885e-07
5.1239e-05
6.35728e-08
5.11714e-05
2.37538e-08
5.11227e-05
-1.06022e-08
5.10911e-05
-3.68553e-08
5.10629e-05
-6.31078e-08
5.10382e-05
-7.61774e-08
-9.63313e-08
5.09356e-05
6.88459e-05
7.47735e-06
7.21612e-05
1.16101e-05
7.45368e-05
1.07135e-05
7.59488e-05
9.17122e-06
7.65308e-05
7.53229e-06
7.66005e-05
6.18082e-06
7.63662e-05
5.16763e-06
7.59536e-05
4.3893e-06
7.54433e-05
3.77508e-06
7.48843e-05
3.27725e-06
7.4307e-05
2.86257e-06
7.37315e-05
2.51024e-06
7.31716e-05
2.20621e-06
7.26367e-05
1.94061e-06
7.21324e-05
1.70676e-06
7.16619e-05
1.49944e-06
7.12268e-05
1.31442e-06
7.08273e-05
1.14828e-06
7.04632e-05
9.98275e-07
7.01335e-05
8.6219e-07
6.98371e-05
7.38251e-07
6.95724e-05
6.25098e-07
6.9338e-05
5.2175e-07
6.91322e-05
4.27371e-07
6.89533e-05
3.41452e-07
6.87993e-05
2.6383e-07
6.86684e-05
1.94527e-07
6.85582e-05
1.33951e-07
6.84653e-05
8.22265e-08
6.83872e-05
4.12606e-08
6.83139e-05
1.02123e-08
6.82409e-05
-3.22512e-09
1.04764e-08
6.81341e-05
6.95591e-05
5.37505e-06
7.18365e-05
9.3327e-06
7.35389e-05
9.0111e-06
7.48099e-05
7.90013e-06
7.57029e-05
6.63929e-06
7.63554e-05
5.52837e-06
7.68537e-05
4.66934e-06
7.72398e-05
4.00315e-06
7.75421e-05
3.47281e-06
7.77791e-05
3.04023e-06
7.79638e-05
2.67784e-06
7.81066e-05
2.36751e-06
7.82148e-05
2.09794e-06
7.82944e-05
1.86107e-06
7.83507e-05
1.6504e-06
7.8389e-05
1.46115e-06
7.84136e-05
1.2898e-06
7.84283e-05
1.1336e-06
7.84362e-05
9.90406e-07
7.84399e-05
8.5852e-07
7.84415e-05
7.36631e-07
7.84428e-05
6.23757e-07
7.84453e-05
5.1922e-07
7.84502e-05
4.22525e-07
7.84582e-05
3.33441e-07
7.847e-05
2.52044e-07
7.84859e-05
1.78625e-07
7.8506e-05
1.13828e-07
7.85297e-05
5.85848e-08
7.85557e-05
1.52044e-08
7.85798e-05
-1.38584e-08
7.85989e-05
-2.23168e-08
9.89521e-10
7.86084e-05
7.08405e-05
3.91857e-06
7.26289e-05
7.54434e-06
7.39378e-05
7.70218e-06
7.48711e-05
6.96682e-06
7.55051e-05
6.00524e-06
7.59591e-05
5.0744e-06
7.632e-05
4.30843e-06
7.66282e-05
3.69497e-06
7.6904e-05
3.19702e-06
7.71573e-05
2.78696e-06
7.73923e-05
2.44283e-06
7.76113e-05
2.14851e-06
7.78163e-05
1.8929e-06
7.80092e-05
1.6682e-06
7.8191e-05
1.4686e-06
7.83625e-05
1.28962e-06
7.85245e-05
1.12778e-06
7.86778e-05
9.80356e-07
7.8823e-05
8.45213e-07
7.89608e-05
7.20677e-07
7.9092e-05
6.05459e-07
7.92171e-05
4.98596e-07
7.93369e-05
3.99413e-07
7.9452e-05
3.07456e-07
7.95629e-05
2.22514e-07
7.96703e-05
1.44677e-07
7.97747e-05
7.42333e-08
7.98766e-05
1.18848e-08
7.99763e-05
-4.10767e-08
8.00748e-05
-8.3246e-08
8.01728e-05
-1.11905e-07
8.02725e-05
-1.2204e-07
-1.06927e-07
8.03804e-05
7.23892e-05
2.89573e-06
7.38428e-05
6.09075e-06
7.49731e-05
6.57184e-06
7.57953e-05
6.14467e-06
7.63587e-05
5.44181e-06
7.67472e-05
4.68592e-06
7.7037e-05
4.01857e-06
7.72704e-05
3.4616e-06
7.74706e-05
2.99676e-06
7.76512e-05
2.60645e-06
7.7819e-05
2.27501e-06
7.79779e-05
1.98959e-06
7.81301e-05
1.74072e-06
7.82769e-05
1.52141e-06
7.84191e-05
1.32633e-06
7.85575e-05
1.15129e-06
7.86922e-05
9.93009e-07
7.88237e-05
8.48866e-07
7.89522e-05
7.16786e-07
7.90777e-05
5.95121e-07
7.92006e-05
4.82583e-07
7.9321e-05
3.78192e-07
7.94392e-05
2.8124e-07
7.95554e-05
1.91241e-07
7.967e-05
1.07945e-07
7.97833e-05
3.13185e-08
7.9896e-05
-3.8449e-08
8.00087e-05
-1.00814e-07
8.01224e-05
-1.54797e-07
8.02381e-05
-1.98976e-07
8.03575e-05
-2.31234e-07
8.04836e-05
-2.48203e-07
-2.46602e-07
8.06233e-05
7.41256e-05
2.1754e-06
7.52943e-05
4.9221e-06
7.62782e-05
5.58788e-06
7.70338e-05
5.38908e-06
7.75841e-05
4.89156e-06
7.79784e-05
4.29157e-06
7.82746e-05
3.72239e-06
7.85101e-05
3.22613e-06
7.87073e-05
2.79948e-06
7.88805e-05
2.43329e-06
7.90379e-05
2.11765e-06
7.91843e-05
1.84311e-06
7.9323e-05
1.60204e-06
7.94559e-05
1.38852e-06
7.95844e-05
1.19786e-06
7.97094e-05
1.02629e-06
7.98316e-05
8.70789e-07
7.99516e-05
7.28903e-07
8.00697e-05
5.98665e-07
8.01863e-05
4.78494e-07
8.03017e-05
3.6714e-07
8.04163e-05
2.63633e-07
8.05303e-05
1.67249e-07
8.06441e-05
7.74786e-08
8.0758e-05
-6.00662e-09
8.08726e-05
-8.32776e-08
8.09884e-05
-1.54194e-07
8.1106e-05
-2.18425e-07
8.12265e-05
-2.75325e-07
8.13515e-05
-3.23944e-07
8.14832e-05
-3.62998e-07
8.16257e-05
-3.90686e-07
-4.06182e-07
8.17853e-05
7.60171e-05
1.6608e-06
7.69547e-05
3.98445e-06
7.78056e-05
4.737e-06
7.84901e-05
4.70459e-06
7.90147e-05
4.36693e-06
7.94081e-05
3.89824e-06
7.97123e-05
3.41818e-06
7.99587e-05
2.97974e-06
8.01669e-05
2.59129e-06
8.03496e-05
2.2505e-06
8.05151e-05
1.95219e-06
8.06683e-05
1.68996e-06
8.08124e-05
1.45791e-06
8.09497e-05
1.25117e-06
8.10819e-05
1.06574e-06
8.12099e-05
8.98266e-07
8.13347e-05
7.46007e-07
8.14569e-05
6.06709e-07
8.1577e-05
4.78528e-07
8.16955e-05
3.59962e-07
8.18129e-05
2.49803e-07
8.19294e-05
1.47097e-07
8.20455e-05
5.11058e-08
8.21617e-05
-3.8714e-08
8.22785e-05
-1.22723e-07
8.23963e-05
-2.01103e-07
8.2516e-05
-2.73885e-07
8.26385e-05
-3.40943e-07
8.27651e-05
-4.01977e-07
8.28977e-05
-4.56548e-07
8.30389e-05
-5.04196e-07
8.31927e-05
-5.44436e-07
-5.77942e-07
8.33645e-05
7.80333e-05
1.28708e-06
7.87855e-05
3.2322e-06
7.95191e-05
4.00345e-06
8.01368e-05
4.08684e-06
8.06324e-05
3.87133e-06
8.10197e-05
3.511e-06
8.13274e-05
3.11047e-06
8.15807e-05
2.72646e-06
8.17965e-05
2.37546e-06
8.19865e-05
2.06048e-06
8.21585e-05
1.7802e-06
8.23176e-05
1.53091e-06
8.2467e-05
1.30842e-06
8.26093e-05
1.10894e-06
8.27459e-05
9.29115e-07
8.28781e-05
7.66064e-07
8.30068e-05
6.17334e-07
8.31326e-05
4.80866e-07
8.32562e-05
3.54941e-07
8.3378e-05
2.38133e-07
8.34986e-05
1.29271e-07
8.36182e-05
2.74123e-08
8.37376e-05
-6.82064e-08
8.3857e-05
-1.58166e-07
8.39772e-05
-2.42902e-07
8.40988e-05
-3.22715e-07
8.42227e-05
-3.97798e-07
8.435e-05
-4.68264e-07
8.44822e-05
-5.34167e-07
8.46212e-05
-5.9557e-07
8.47697e-05
-6.52702e-07
8.49314e-05
-7.06048e-07
-7.57139e-07
8.51106e-05
8.01549e-05
1.01048e-06
8.07602e-05
2.6269e-06
8.13921e-05
3.37157e-06
8.19488e-05
3.53009e-06
8.24141e-05
3.40608e-06
8.27914e-05
3.13367e-06
8.30993e-05
2.80262e-06
8.33571e-05
2.46862e-06
8.35793e-05
2.15331e-06
8.3776e-05
1.86377e-06
8.39545e-05
1.60173e-06
8.41196e-05
1.3658e-06
8.42746e-05
1.15336e-06
8.4422e-05
9.61578e-07
8.45633e-05
7.87777e-07
8.46999e-05
6.29511e-07
8.48326e-05
4.84621e-07
8.49622e-05
3.51244e-07
8.50894e-05
2.27786e-07
8.52146e-05
1.12899e-07
8.53384e-05
5.44298e-09
8.54613e-05
-9.55045e-08
8.55839e-05
-1.90736e-07
8.57066e-05
-2.80876e-07
8.58301e-05
-3.66443e-07
8.59553e-05
-4.47859e-07
8.6083e-05
-5.25487e-07
8.62144e-05
-5.99666e-07
8.6351e-05
-6.70763e-07
8.64946e-05
-7.39247e-07
8.66478e-05
-8.05858e-07
8.68135e-05
-8.71722e-07
-9.38753e-07
8.69951e-05
8.23694e-05
8.01485e-07
8.28589e-05
2.13744e-06
8.34027e-05
2.82776e-06
8.39035e-05
3.02932e-06
8.43382e-05
2.97138e-06
8.47035e-05
2.7683e-06
8.50099e-05
2.49628e-06
8.52713e-05
2.20719e-06
8.54993e-05
1.92527e-06
8.57027e-05
1.66044e-06
8.58877e-05
1.41667e-06
8.60591e-05
1.19445e-06
8.622e-05
9.92486e-07
8.63727e-05
8.08856e-07
8.6519e-05
6.41501e-07
8.66601e-05
4.88404e-07
8.6797e-05
3.47697e-07
8.69305e-05
2.17711e-07
8.70613e-05
9.69815e-08
8.719e-05
-1.57647e-08
8.73171e-05
-1.21622e-07
8.74431e-05
-2.21516e-07
8.75686e-05
-3.16248e-07
8.76942e-05
-4.06497e-07
8.78206e-05
-4.9286e-07
8.79486e-05
-5.75871e-07
8.80792e-05
-6.56042e-07
8.82134e-05
-7.33907e-07
8.83527e-05
-8.10084e-07
8.84988e-05
-8.85348e-07
8.86538e-05
-9.60769e-07
8.88199e-05
-1.03784e-06
-1.11855e-06
8.89997e-05
8.46691e-05
6.40152e-07
8.50676e-05
1.73891e-06
8.5536e-05
2.35937e-06
8.59862e-05
2.57917e-06
8.63911e-05
2.56647e-06
8.67428e-05
2.41656e-06
8.70456e-05
2.19355e-06
8.73088e-05
1.94395e-06
8.75415e-05
1.69263e-06
8.77507e-05
1.45125e-06
8.7942e-05
1.22536e-06
8.81195e-05
1.01688e-06
8.82864e-05
8.25629e-07
8.84448e-05
6.50493e-07
8.85963e-05
4.89967e-07
8.87423e-05
3.42429e-07
8.88837e-05
2.06283e-07
8.90214e-05
8.00467e-08
8.9156e-05
-3.76263e-08
8.92881e-05
-1.47931e-07
8.94184e-05
-2.51919e-07
8.95474e-05
-3.50513e-07
8.96757e-05
-4.44527e-07
8.98039e-05
-5.34686e-07
8.99327e-05
-6.21651e-07
9.00629e-05
-7.06051e-07
9.01953e-05
-7.88523e-07
9.03312e-05
-8.69747e-07
9.04716e-05
-9.50519e-07
9.06181e-05
-1.0318e-06
9.07721e-05
-1.11484e-06
9.09356e-05
-1.20127e-06
-1.29293e-06
9.11099e-05
8.70494e-05
5.12924e-07
8.73768e-05
1.41155e-06
8.77811e-05
1.95501e-06
8.81858e-05
2.17448e-06
8.85622e-05
2.1901e-06
8.88993e-05
2.07945e-06
8.91969e-05
1.89593e-06
8.94607e-05
1.68017e-06
8.9697e-05
1.45628e-06
8.99115e-05
1.23672e-06
9.01089e-05
1.02803e-06
9.02926e-05
8.33149e-07
9.04655e-05
6.52774e-07
9.06295e-05
4.86438e-07
9.07864e-05
3.33122e-07
9.09372e-05
1.91549e-07
9.10831e-05
6.03753e-08
9.12249e-05
-6.17136e-08
9.13632e-05
-1.75945e-07
9.14987e-05
-2.83439e-07
9.1632e-05
-3.85211e-07
9.17637e-05
-4.8217e-07
9.18943e-05
-5.7514e-07
9.20245e-05
-6.64879e-07
9.21549e-05
-7.52099e-07
9.22864e-05
-8.375e-07
9.24197e-05
-9.21801e-07
9.25557e-05
-1.00578e-06
9.26955e-05
-1.09034e-06
9.28402e-05
-1.17652e-06
9.2991e-05
-1.26561e-06
9.3149e-05
-1.35923e-06
-1.45896e-06
9.3315e-05
8.9508e-05
4.10479e-07
8.97797e-05
1.13981e-06
9.01302e-05
1.60453e-06
9.04945e-05
1.81014e-06
9.08442e-05
1.84044e-06
9.11664e-05
1.75721e-06
9.14579e-05
1.60448e-06
9.1721e-05
1.41704e-06
9.19601e-05
1.21724e-06
9.21792e-05
1.01763e-06
9.2382e-05
8.25234e-07
9.25715e-05
6.43622e-07
9.27501e-05
4.74125e-07
9.29198e-05
3.16795e-07
9.30819e-05
1.71006e-07
9.32377e-05
3.57804e-08
9.3388e-05
-9.00118e-08
9.35339e-05
-2.07529e-07
9.36758e-05
-3.17891e-07
9.38145e-05
-4.22153e-07
9.39506e-05
-5.21288e-07
9.40846e-05
-6.1619e-07
9.42172e-05
-7.07686e-07
9.43488e-05
-7.96551e-07
9.44803e-05
-8.83531e-07
9.46121e-05
-9.69365e-07
9.47451e-05
-1.05482e-06
9.48801e-05
-1.14072e-06
9.50177e-05
-1.228e-06
9.51589e-05
-1.3177e-06
9.53044e-05
-1.41104e-06
9.54546e-05
-1.50953e-06
-1.61442e-06
9.56101e-05
9.2044e-05
3.26319e-07
9.22723e-05
9.11538e-07
9.25778e-05
1.29897e-06
9.29068e-05
1.48117e-06
9.32319e-05
1.51532e-06
9.35396e-05
1.44957e-06
9.38242e-05
1.31983e-06
9.40859e-05
1.15537e-06
9.43269e-05
9.76269e-07
9.45499e-05
7.94567e-07
9.47578e-05
6.1735e-07
9.49529e-05
4.48514e-07
9.51373e-05
2.89796e-07
9.53124e-05
1.41618e-07
9.54798e-05
3.6552e-09
9.56404e-05
-1.24835e-07
9.57952e-05
-2.44803e-07
9.59449e-05
-3.57277e-07
9.60903e-05
-4.63286e-07
9.6232e-05
-5.63821e-07
9.63705e-05
-6.59816e-07
9.65065e-05
-7.52146e-07
9.66404e-05
-8.41629e-07
9.67729e-05
-9.29046e-07
9.69045e-05
-1.01515e-06
9.70359e-05
-1.1007e-06
9.71675e-05
-1.18646e-06
9.73001e-05
-1.27326e-06
9.74341e-05
-1.362e-06
9.757e-05
-1.45367e-06
9.77084e-05
-1.54936e-06
9.78492e-05
-1.65038e-06
-1.75765e-06
9.79925e-05
9.46576e-05
2.55827e-07
9.4852e-05
7.17221e-07
9.51204e-05
1.03053e-06
9.54188e-05
1.1828e-06
9.57218e-05
1.21227e-06
9.60157e-05
1.15573e-06
9.62934e-05
1.04211e-06
9.65531e-05
8.95661e-07
9.67954e-05
7.33919e-07
9.7022e-05
5.68017e-07
9.72346e-05
4.0477e-07
9.7435e-05
2.4812e-07
9.76248e-05
1.00003e-07
9.78053e-05
-3.8931e-08
9.79778e-05
-1.688e-07
9.81431e-05
-2.90175e-07
9.83022e-05
-4.03868e-07
9.84557e-05
-5.10803e-07
9.86043e-05
-6.11932e-07
9.87487e-05
-7.08192e-07
9.88894e-05
-8.00478e-07
9.90269e-05
-8.89638e-07
9.91617e-05
-9.76477e-07
9.92944e-05
-1.06176e-06
9.94255e-05
-1.14624e-06
9.95555e-05
-1.23064e-06
9.96847e-05
-1.31573e-06
9.98137e-05
-1.40228e-06
9.99429e-05
-1.49112e-06
0.000100072
-1.58314e-06
0.000100202
-1.67925e-06
0.000100332
-1.78053e-06
-1.8876e-06
0.000100462
9.73497e-05
1.95656e-07
9.75175e-05
5.49385e-07
9.77556e-05
7.92438e-07
9.80279e-05
9.10512e-07
9.83115e-05
9.28675e-07
9.85927e-05
8.74521e-07
9.88638e-05
7.71056e-07
9.91214e-05
6.38061e-07
9.93648e-05
4.90493e-07
9.95945e-05
3.38292e-07
9.98115e-05
1.87748e-07
0.000100017
4.26212e-08
0.000100212
-9.51315e-08
0.000100398
-2.24763e-07
0.000100575
-3.46281e-07
0.000100745
-4.60148e-07
0.000100909
-5.67084e-07
0.000101066
-6.67939e-07
0.000101217
-7.63605e-07
0.000101364
-8.54972e-07
0.000101507
-9.42901e-07
0.000101645
-1.02821e-06
0.00010178
-1.11168e-06
0.000101913
-1.19405e-06
0.000102043
-1.27604e-06
0.00010217
-1.35835e-06
0.000102296
-1.44168e-06
0.000102421
-1.52675e-06
0.000102544
-1.61427e-06
0.000102666
-1.705e-06
0.000102786
-1.79966e-06
0.000102905
-1.89912e-06
-2.00368e-06
0.000103021
0.000100121
1.43316e-07
0.000100269
4.02117e-07
0.000100482
5.78853e-07
0.000100733
6.60026e-07
0.000101
6.61755e-07
0.00010127
6.04399e-07
0.000101535
5.05965e-07
0.000101791
3.82346e-07
0.000102035
2.4598e-07
0.000102268
1.05465e-07
0.000102489
-3.36343e-08
0.0001027
-1.6791e-07
0.0001029
-2.95547e-07
0.000103091
-4.15823e-07
0.000103274
-5.28724e-07
0.000103448
-6.34671e-07
0.000103616
-7.34337e-07
0.000103776
-8.28526e-07
0.000103931
-9.18093e-07
0.00010408
-1.00389e-06
0.000104223
-1.08675e-06
0.000104363
-1.16745e-06
0.000104498
-1.24674e-06
0.000104629
-1.32534e-06
0.000104757
-1.4039e-06
0.000104882
-1.48309e-06
0.000105003
-1.56353e-06
0.000105123
-1.64584e-06
0.000105239
-1.73062e-06
0.000105352
-1.81847e-06
0.000105463
-1.90995e-06
0.000105569
-2.00566e-06
-2.10569e-06
0.000105671
0.000102974
9.69066e-08
0.000103106
2.70678e-07
0.0001033
3.84707e-07
0.000103533
4.27309e-07
0.000103786
4.0866e-07
0.000104047
3.43536e-07
0.000104307
2.45795e-07
0.000104561
1.27962e-07
0.000104807
1.03052e-10
0.000105043
-1.30591e-07
0.000105269
-2.59429e-07
0.000105485
-3.83494e-07
0.00010569
-5.01243e-07
0.000105887
-6.1209e-07
0.000106074
-7.16082e-07
0.000106253
-8.13661e-07
0.000106424
-9.055e-07
0.000106588
-9.92389e-07
0.000106745
-1.07516e-06
0.000106896
-1.15465e-06
0.000107041
-1.23165e-06
0.00010718
-1.30692e-06
0.000107315
-1.38117e-06
0.000107444
-1.45506e-06
0.00010757
-1.52921e-06
0.000107691
-1.6042e-06
0.000107808
-1.68058e-06
0.000107921
-1.75887e-06
0.00010803
-1.83953e-06
0.000108134
-1.92303e-06
0.000108234
-2.00973e-06
0.000108328
-2.10004e-06
-2.19386e-06
0.000108417
0.000105911
5.49311e-08
0.00010603
1.51195e-07
0.000106209
2.05563e-07
0.000106428
2.08536e-07
0.00010667
1.6644e-07
0.000106924
8.98178e-08
0.000107181
-1.08935e-08
0.000107435
-1.2606e-07
0.000107683
-2.47789e-07
0.000107922
-3.70362e-07
0.000108153
-4.90006e-07
0.000108374
-6.04424e-07
0.000108585
-7.12454e-07
0.000108787
-8.13744e-07
0.000108979
-9.0848e-07
0.000109163
-9.97184e-07
0.000109338
-1.08057e-06
0.000109505
-1.15946e-06
0.000109664
-1.23467e-06
0.000109817
-1.30703e-06
0.000109962
-1.37733e-06
0.000110102
-1.44627e-06
0.000110235
-1.51454e-06
0.000110363
-1.58275e-06
0.000110485
-1.65146e-06
0.000110602
-1.72116e-06
0.000110714
-1.79232e-06
0.00011082
-1.86535e-06
0.000110921
-1.94059e-06
0.000111017
-2.01837e-06
0.000111106
-2.09888e-06
0.000111188
-2.18236e-06
-2.26855e-06
0.000111263
0.000108932
1.61688e-08
0.000109043
4.0424e-08
0.000109211
3.74663e-08
0.00010942
4.71618e-11
0.000109654
-6.79339e-08
0.000109903
-1.59105e-07
0.000110158
-2.65828e-07
0.000110413
-3.80962e-07
0.000110663
-4.98608e-07
0.000110908
-6.1449e-07
0.000111143
-7.25829e-07
0.00011137
-8.31031e-07
0.000111587
-9.2941e-07
0.000111794
-1.02093e-06
0.000111992
-1.10598e-06
0.00011218
-1.18524e-06
0.000112359
-1.25949e-06
0.000112529
-1.3296e-06
0.000112691
-1.39643e-06
0.000112844
-1.4608e-06
0.00011299
-1.52348e-06
0.000113129
-1.58517e-06
0.000113261
-1.64649e-06
0.000113387
-1.708e-06
0.000113505
-1.77021e-06
0.000113618
-1.83354e-06
0.000113724
-1.89836e-06
0.000113823
-1.96496e-06
0.000113916
-2.03359e-06
0.000114002
-2.10443e-06
0.000114081
-2.17756e-06
0.000114152
-2.25306e-06
-2.33055e-06
0.000114214
0.000112041
-2.04246e-08
0.000112146
-6.44587e-08
0.000112307
-1.23215e-07
0.000112508
-2.01761e-07
0.000112738
-2.97675e-07
0.000112985
-4.05944e-07
0.00011324
-5.21231e-07
0.000113498
-6.38548e-07
0.000113753
-7.53823e-07
0.000114003
-8.64189e-07
0.000114245
-9.67908e-07
0.000114478
-1.06416e-06
0.000114702
-1.1528e-06
0.000114915
-1.2342e-06
0.000115118
-1.30903e-06
0.000115311
-1.37813e-06
0.000115494
-1.44245e-06
0.000115667
-1.50292e-06
0.000115831
-1.56044e-06
0.000115986
-1.61586e-06
0.000116133
-1.66994e-06
0.000116271
-1.72335e-06
0.000116401
-1.7767e-06
0.000116523
-1.83049e-06
0.000116638
-1.88515e-06
0.000116746
-1.94103e-06
0.000116846
-1.99841e-06
0.000116938
-2.0575e-06
0.000117023
-2.11843e-06
0.0001171
-2.18127e-06
0.000117169
-2.24598e-06
0.000117228
-2.31252e-06
-2.38043e-06
0.000117278
0.00011524
-5.57704e-08
0.000115341
-1.65999e-07
0.000115498
-2.79897e-07
0.000115697
-4.00448e-07
0.000115925
-5.26088e-07
0.000116173
-6.53578e-07
0.000116431
-7.79491e-07
0.000116693
-9.00744e-07
0.000116954
-1.01496e-06
0.000117211
-1.12066e-06
0.00011746
-1.21717e-06
0.0001177
-1.30451e-06
0.000117931
-1.38317e-06
0.000118151
-1.45395e-06
0.000118359
-1.51788e-06
0.000118557
-1.57605e-06
0.000118744
-1.62954e-06
0.000118921
-1.67941e-06
0.000119087
-1.72663e-06
0.000119243
-1.77209e-06
0.00011939
-1.81654e-06
0.000119527
-1.86065e-06
0.000119656
-1.90498e-06
0.000119775
-1.95e-06
0.000119886
-1.99606e-06
0.000119988
-2.04346e-06
0.000120082
-2.09239e-06
0.000120168
-2.14297e-06
0.000120245
-2.19525e-06
0.000120313
-2.24919e-06
0.000120371
-2.30467e-06
0.00012042
-2.36157e-06
-2.41938e-06
0.000120459
0.000118531
-9.07529e-08
0.000118632
-2.66669e-07
0.000118788
-4.36042e-07
0.000118987
-5.99857e-07
0.000119218
-7.57011e-07
0.00011947
-9.05629e-07
0.000119734
-1.04391e-06
0.000120004
-1.1705e-06
0.000120274
-1.28461e-06
0.000120539
-1.38613e-06
0.000120798
-1.47553e-06
0.000121047
-1.5537e-06
0.000121286
-1.62183e-06
0.000121513
-1.68125e-06
0.000121728
-1.73338e-06
0.000121932
-1.77959e-06
0.000122124
-1.82118e-06
0.000122303
-1.85934e-06
0.000122472
-1.89514e-06
0.000122629
-1.9295e-06
0.000122776
-1.9632e-06
0.000122912
-1.9969e-06
0.000123038
-2.03113e-06
0.000123155
-2.06631e-06
0.000123261
-2.10275e-06
0.000123359
-2.14066e-06
0.000123446
-2.18018e-06
0.000123525
-2.22135e-06
0.000123594
-2.26413e-06
0.000123653
-2.3084e-06
0.000123702
-2.35397e-06
0.000123741
-2.40063e-06
-2.44785e-06
0.00012377
0.000121917
-1.26238e-07
0.000122019
-3.68899e-07
0.000122178
-5.95084e-07
0.000122382
-8.03808e-07
0.000122619
-9.94212e-07
0.000122879
-1.16556e-06
0.000123153
-1.31752e-06
0.000123433
-1.45037e-06
0.000123713
-1.5649e-06
0.000123989
-1.66238e-06
0.000124258
-1.74445e-06
0.000124517
-1.81293e-06
0.000124765
-1.86977e-06
0.000125001
-1.9169e-06
0.000125224
-1.95617e-06
0.000125433
-1.98928e-06
0.00012563
-2.01778e-06
0.000125814
-2.04302e-06
0.000125985
-2.06618e-06
0.000126143
-2.08824e-06
0.00012629
-2.11002e-06
0.000126426
-2.13216e-06
0.00012655
-2.15518e-06
0.000126663
-2.17946e-06
0.000126765
-2.20527e-06
0.000126857
-2.23275e-06
0.000126939
-2.26197e-06
0.000127011
-2.2929e-06
0.000127072
-2.32546e-06
0.000127123
-2.35945e-06
0.000127164
-2.39464e-06
0.000127194
-2.43077e-06
-2.46732e-06
0.000127213
0.0001254
-1.63231e-07
0.000125507
-4.75527e-07
0.000125673
-7.61224e-07
0.000125887
-1.01731e-06
0.000126136
-1.24308e-06
0.000126409
-1.43878e-06
0.000126697
-1.6055e-06
0.000126992
-1.74512e-06
0.000127287
-1.86007e-06
0.000127577
-1.95306e-06
0.00012786
-2.02698e-06
0.000128132
-2.08469e-06
0.000128391
-2.12899e-06
0.000128636
-2.16244e-06
0.000128868
-2.18739e-06
0.000129084
-2.20593e-06
0.000129286
-2.21987e-06
0.000129474
-2.23076e-06
0.000129648
-2.23989e-06
0.000129808
-2.24831e-06
0.000129955
-2.25688e-06
0.000130089
-2.26626e-06
0.000130211
-2.27693e-06
0.00013032
-2.28925e-06
0.000130419
-2.30342e-06
0.000130505
-2.31955e-06
0.000130581
-2.33764e-06
0.000130646
-2.35762e-06
0.0001307
-2.37931e-06
0.000130743
-2.4025e-06
0.000130775
-2.42689e-06
0.000130796
-2.45216e-06
-2.47777e-06
0.000130807
0.000128985
-2.02693e-07
0.000129098
-5.89308e-07
0.000129275
-9.38327e-07
0.000129503
-1.24465e-06
0.000129768
-1.50782e-06
0.000130058
-1.72922e-06
0.000130364
-1.9114e-06
0.000130677
-2.05795e-06
0.00013099
-2.17299e-06
0.000131297
-2.26076e-06
0.000131596
-2.32548e-06
0.000131882
-2.37112e-06
0.000132155
-2.40138e-06
0.000132412
-2.41955e-06
0.000132653
-2.42853e-06
0.000132878
-2.43082e-06
0.000133086
-2.42855e-06
0.000133279
-2.42346e-06
0.000133456
-2.41701e-06
0.000133618
-2.41032e-06
0.000133766
-2.4043e-06
0.000133899
-2.39962e-06
0.000134019
-2.39674e-06
0.000134126
-2.39598e-06
0.00013422
-2.39752e-06
0.000134302
-2.40141e-06
0.000134372
-2.4076e-06
0.00013443
-2.41595e-06
0.000134477
-2.42627e-06
0.000134513
-2.43828e-06
0.000134537
-2.45165e-06
0.000134551
-2.46607e-06
-2.48101e-06
0.000134554
0.000132673
-2.46315e-07
0.000132798
-7.14872e-07
0.000132993
-1.13336e-06
0.000133243
-1.49431e-06
0.000133533
-1.79764e-06
0.00013385
-2.04602e-06
0.000134182
-2.24372e-06
0.00013452
-2.39634e-06
0.000134857
-2.50995e-06
0.000135187
-2.59058e-06
0.000135506
-2.64392e-06
0.00013581
-2.67522e-06
0.000136097
-2.68913e-06
0.000136368
-2.68974e-06
0.00013662
-2.68055e-06
0.000136853
-2.66451e-06
0.000137069
-2.64404e-06
0.000137266
-2.62114e-06
0.000137447
-2.59739e-06
0.00013761
-2.57401e-06
0.000137758
-2.55194e-06
0.00013789
-2.53185e-06
0.000138008
-2.51421e-06
0.000138111
-2.4993e-06
0.000138201
-2.48724e-06
0.000138277
-2.47803e-06
0.000138341
-2.47159e-06
0.000138393
-2.46772e-06
0.000138433
-2.46617e-06
0.000138462
-2.46663e-06
0.000138479
-2.46873e-06
0.000138485
-2.47209e-06
-2.47617e-06
0.00013848
0.000136467
-2.94942e-07
0.000136607
-8.55111e-07
0.000136824
-1.35008e-06
0.0001371
-1.77019e-06
0.000137419
-2.11648e-06
0.000137766
-2.39331e-06
0.000138129
-2.60688e-06
0.000138498
-2.76499e-06
0.000138864
-2.87588e-06
0.000139221
-2.94747e-06
0.000139564
-2.98714e-06
0.00013989
-3.00151e-06
0.000140197
-2.99638e-06
0.000140484
-2.97672e-06
0.00014075
-2.94669e-06
0.000140996
-2.90974e-06
0.00014122
-2.86867e-06
0.000141425
-2.8257e-06
0.00014161
-2.78258e-06
0.000141777
-2.74063e-06
0.000141925
-2.7008e-06
0.000142057
-2.6638e-06
0.000142173
-2.63004e-06
0.000142274
-2.59978e-06
0.00014236
-2.57309e-06
0.000142431
-2.54993e-06
0.00014249
-2.53015e-06
0.000142536
-2.5135e-06
0.000142569
-2.49971e-06
0.000142591
-2.48841e-06
0.000142602
-2.47922e-06
0.000142601
-2.47179e-06
-2.46553e-06
0.000142591
0.000140374
-3.53216e-07
0.00014054
-1.02123e-06
0.000140794
-1.60436e-06
0.000141114
-2.09018e-06
0.00014148
-2.48191e-06
0.000141873
-2.78662e-06
0.00014228
-3.01353e-06
0.000142688
-3.17355e-06
0.00014309
-3.27767e-06
0.000143479
-3.33611e-06
0.00014385
-3.35807e-06
0.0001442
-3.35169e-06
0.000144527
-3.32393e-06
0.000144831
-3.28067e-06
0.000145111
-3.22673e-06
0.000145368
-3.16607e-06
0.000145601
-3.10183e-06
0.000145812
-3.03648e-06
0.000146001
-2.97189e-06
0.00014617
-2.90946e-06
0.000146319
-2.8502e-06
0.00014645
-2.79477e-06
0.000146564
-2.74357e-06
0.000146661
-2.69681e-06
0.000146742
-2.65451e-06
0.000146809
-2.61656e-06
0.000146861
-2.58275e-06
0.000146901
-2.5528e-06
0.000146927
-2.52635e-06
0.000146942
-2.50301e-06
0.000146945
-2.48233e-06
0.000146937
-2.46389e-06
-2.44709e-06
0.000146919
0.00014439
-4.18993e-07
0.000144581
-1.21216e-06
0.000144872
-1.89513e-06
0.000145237
-2.45466e-06
0.000145652
-2.89736e-06
0.000146098
-3.2329e-06
0.000146558
-3.47351e-06
0.000147018
-3.63372e-06
0.000147469
-3.72781e-06
0.000147901
-3.76878e-06
0.000148311
-3.76818e-06
0.000148696
-3.73601e-06
0.000149052
-3.68066e-06
0.000149381
-3.60906e-06
0.000149681
-3.52684e-06
0.000149953
-3.4385e-06
0.000150199
-3.34753e-06
0.000150419
-3.25663e-06
0.000150615
-3.16781e-06
0.000150788
-3.08251e-06
0.00015094
-3.00172e-06
0.000151071
-2.92607e-06
0.000151183
-2.85591e-06
0.000151278
-2.79136e-06
0.000151356
-2.73237e-06
0.000151418
-2.67876e-06
0.000151465
-2.63024e-06
0.000151499
-2.58647e-06
0.00015152
-2.54706e-06
0.000151528
-2.51157e-06
0.000151526
-2.47954e-06
0.000151512
-2.45054e-06
-2.42394e-06
0.000151489
0.000148541
-5.11631e-07
0.000148793
-1.4645e-06
0.000149163
-2.26498e-06
0.00014961
-2.90186e-06
0.000150104
-3.39178e-06
0.000150622
-3.75094e-06
0.000151146
-3.99716e-06
0.000151662
-4.14985e-06
0.000152161
-4.22692e-06
0.000152637
-4.24412e-06
0.000153084
-4.21526e-06
0.0001535
-4.15209e-06
0.000153884
-4.06435e-06
0.000154234
-3.96e-06
0.000154553
-3.84543e-06
0.00015484
-3.72564e-06
0.000155097
-3.60451e-06
0.000155326
-3.48496e-06
0.000155527
-3.36909e-06
0.000155703
-3.2584e-06
0.000155855
-3.15386e-06
0.000155985
-3.05605e-06
0.000156094
-2.96523e-06
0.000156184
-2.88143e-06
0.000156256
-2.8045e-06
0.000156312
-2.73417e-06
0.000156352
-2.67008e-06
0.000156377
-2.61181e-06
0.000156389
-2.55888e-06
0.000156388
-2.51082e-06
0.000156376
-2.46708e-06
0.000156352
-2.42717e-06
-2.39036e-06
0.000156319
0.000152784
-6.06673e-07
0.000153072
-1.75282e-06
0.000153503
-2.69595e-06
0.000154033
-3.43173e-06
0.000154625
-3.9834e-06
0.000155245
-4.37114e-06
0.000155868
-4.62027e-06
0.000156476
-4.75799e-06
0.000157057
-4.80789e-06
0.000157603
-4.79005e-06
0.00015811
-4.72159e-06
0.000158574
-4.61667e-06
0.000158997
-4.48675e-06
0.000159378
-4.34094e-06
0.000159719
-4.18642e-06
0.000160022
-4.02867e-06
0.000160289
-3.87185e-06
0.000160523
-3.71897e-06
0.000160726
-3.57216e-06
0.0001609
-3.43284e-06
0.000161048
-3.30188e-06
0.000161172
-3.17972e-06
0.000161273
-3.06646e-06
0.000161354
-2.96197e-06
0.000161415
-2.86597e-06
0.000161459
-2.77805e-06
0.000161487
-2.69774e-06
0.0001615
-2.62453e-06
0.000161499
-2.55789e-06
0.000161485
-2.4973e-06
0.00016146
-2.44223e-06
0.000161425
-2.3922e-06
-2.34637e-06
0.000161381
0.000157245
-8.00652e-07
0.000157694
-2.20162e-06
0.000158284
-3.28525e-06
0.000158947
-4.09471e-06
0.000159647
-4.68435e-06
0.000160358
-5.08168e-06
0.000161057
-5.31936e-06
0.00016173
-5.43077e-06
0.000162366
-5.44366e-06
0.000162957
-5.38176e-06
0.000163501
-5.26535e-06
0.000163995
-5.11101e-06
0.000164441
-4.93198e-06
0.000164838
-4.73864e-06
0.000165191
-4.539e-06
0.000165501
-4.33903e-06
0.000165773
-4.14311e-06
0.000166008
-3.9543e-06
0.00016621
-3.77465e-06
0.000166383
-3.60543e-06
0.000166528
-3.44729e-06
0.000166649
-3.30042e-06
0.000166747
-3.16472e-06
0.000166825
-3.03981e-06
0.000166884
-2.9252e-06
0.000166927
-2.82028e-06
0.000166953
-2.72442e-06
0.000166966
-2.63699e-06
0.000166965
-2.55738e-06
0.000166953
-2.48502e-06
0.00016693
-2.41939e-06
0.000166898
-2.36001e-06
-2.30601e-06
0.000166858
0.000161692
-9.53856e-07
0.000162213
-2.72268e-06
0.00016295
-4.02237e-06
0.00016381
-4.95469e-06
0.000164716
-5.59074e-06
0.000165613
-5.97824e-06
0.000166471
-6.17727e-06
0.000167277
-6.23728e-06
0.000168027
-6.19378e-06
0.000168721
-6.0752e-06
0.00016936
-5.90422e-06
0.000169947
-5.69835e-06
0.000170486
-5.47107e-06
0.00017098
-5.23271e-06
0.000171432
-4.99103e-06
0.000171845
-4.7518e-06
0.000172221
-4.5192e-06
0.000172563
-4.29613e-06
0.000172873
-4.08452e-06
0.000173153
-3.8855e-06
0.000173405
-3.6996e-06
0.000173632
-3.52691e-06
0.000173834
-3.36716e-06
0.000174014
-3.21986e-06
0.000174173
-3.08436e-06
0.000174313
-2.95993e-06
0.000174434
-2.84585e-06
0.000174539
-2.74139e-06
0.000174627
-2.64597e-06
0.000174701
-2.55905e-06
0.000174762
-2.48049e-06
0.000174812
-2.40985e-06
-2.34741e-06
0.000174854
0.000166689
-1.48931e-06
0.000167545
-3.57877e-06
0.000168485
-4.96259e-06
0.000169502
-5.9711e-06
0.000170596
-6.68515e-06
0.000171749
-7.13098e-06
0.000172941
-7.36947e-06
0.00017415
-7.44661e-06
0.000175353
-7.39622e-06
0.000176527
-7.24917e-06
0.000177655
-7.03208e-06
0.000178723
-6.76678e-06
0.000179723
-6.47095e-06
0.000180649