/*--------------------------------*- C++ -*----------------------------------*\
  =========                 |
  \\      /  F ield         | OpenFOAM: The Open Source CFD Toolbox
   \\    /   O peration     | Website:  https://openfoam.org
    \\  /    A nd           | Version:  10
     \\/     M anipulation  |
\*---------------------------------------------------------------------------*/
FoamFile
{
    format      ascii;
    class       volVectorField;
    location    "0.12";
    object      U;
}
// * * * * * * * * * * * * * * * * * * * * * * * * * * * * * * * * * * * * * //

dimensions      [0 1 -1 0 0 0 0];

internalField   nonuniform List<vector> 
6820
(
(5.5736 0.459136 0)
(3.88322 0.2459 0)
(2.58978 0.00877608 0)
(1.95831 -0.0642219 0)
(1.73352 -0.0595444 0)
(1.62307 -0.0340891 0)
(1.55892 -0.0154295 0)
(1.5139 -0.00535672 0)
(1.47636 -0.000761292 0)
(1.44417 0.00074383 0)
(1.41677 0.00079774 0)
(1.3937 0.00028538 0)
(1.37449 -0.000384785 0)
(1.35863 -0.0010324 0)
(1.34565 -0.00158763 0)
(1.33514 -0.00203427 0)
(1.32679 -0.00237964 0)
(1.32032 -0.00263896 0)
(1.31551 -0.00282653 0)
(1.31219 -0.00295449 0)
(1.31021 -0.00302561 0)
(1.3095 -0.00302241 0)
(1.30987 -0.00313362 0)
(1.31121 -0.00318433 0)
(1.31343 -0.00319425 0)
(1.3164 -0.00314596 0)
(1.31996 -0.00306595 0)
(1.32417 -0.00294162 0)
(1.32833 -0.00291282 0)
(1.33402 -0.00251794 0)
(1.33595 -0.00332406 0)
(1.35004 0.00111857 0)
(1.32828 -0.0237796 0)
(7.66981 0.863845 0)
(7.71746 0.890658 0)
(7.00083 0.598205 0)
(6.19914 0.347215 0)
(5.58689 0.179206 0)
(5.14357 0.0926117 0)
(4.82818 0.0521503 0)
(4.60127 0.0335639 0)
(4.43187 0.0249854 0)
(4.30072 0.020556 0)
(4.1961 0.0178037 0)
(4.1107 0.0157873 0)
(4.03985 0.0141323 0)
(3.9804 0.012674 0)
(3.93018 0.0113287 0)
(3.88759 0.0100514 0)
(3.85146 0.00881875 0)
(3.82087 0.00761847 0)
(3.79512 0.00644522 0)
(3.77364 0.00529777 0)
(3.75598 0.004169 0)
(3.74172 0.00309663 0)
(3.73052 0.00202254 0)
(3.72214 0.000996509 0)
(3.71628 3.78679e-05 0)
(3.71271 -0.000864131 0)
(3.7112 -0.001727 0)
(3.71149 -0.00241564 0)
(3.71324 -0.00312692 0)
(3.71651 -0.00330398 0)
(3.72033 -0.00496834 0)
(3.72769 -0.00469028 0)
(3.73361 -0.0124085 0)
(7.56352 0.520234 0)
(8.22522 0.663303 0)
(8.46515 0.575699 0)
(8.36494 0.457936 0)
(8.13028 0.343667 0)
(7.85503 0.258607 0)
(7.58695 0.19877 0)
(7.34582 0.155753 0)
(7.13494 0.124387 0)
(6.95233 0.100979 0)
(6.79472 0.083034 0)
(6.65871 0.0689675 0)
(6.54121 0.0577305 0)
(6.43956 0.0486059 0)
(6.35151 0.0410761 0)
(6.27518 0.0347536 0)
(6.20899 0.0293487 0)
(6.15164 0.0246459 0)
(6.10203 0.0204854 0)
(6.05923 0.0167469 0)
(6.02248 0.0133431 0)
(5.9911 0.010203 0)
(5.96455 0.00731949 0)
(5.94233 0.004646 0)
(5.924 0.00216474 0)
(5.90915 -0.000120983 0)
(5.89739 -0.00221223 0)
(5.88838 -0.0040501 0)
(5.88177 -0.0057206 0)
(5.87723 -0.00699262 0)
(5.87413 -0.00878525 0)
(5.87106 -0.00998074 0)
(5.86694 -0.0149679 0)
(7.43338 0.341013 0)
(7.88468 0.514231 0)
(8.24341 0.489102 0)
(8.44208 0.429018 0)
(8.54204 0.357506 0)
(8.57267 0.296627 0)
(8.55859 0.250228 0)
(8.51943 0.21443 0)
(8.46624 0.186219 0)
(8.40545 0.163327 0)
(8.34124 0.144159 0)
(8.27635 0.127749 0)
(8.21254 0.113472 0)
(8.15111 0.100881 0)
(8.09288 0.0896787 0)
(8.0383 0.0796397 0)
(7.98763 0.0705815 0)
(7.94095 0.0623515 0)
(7.89826 0.0548229 0)
(7.85948 0.0478914 0)
(7.82449 0.0414721 0)
(7.79315 0.035504 0)
(7.76527 0.0299403 0)
(7.74069 0.024741 0)
(7.71921 0.0198907 0)
(7.70064 0.0153985 0)
(7.68475 0.0112847 0)
(7.67133 0.00759265 0)
(7.66006 0.00431572 0)
(7.65056 0.00162778 0)
(7.64242 -0.000704024 0)
(7.63416 -0.00195792 0)
(7.62615 -0.00167641 0)
(7.39682 0.250951 0)
(7.68001 0.420793 0)
(7.92346 0.403516 0)
(8.07744 0.353295 0)
(8.1879 0.298299 0)
(8.27016 0.252322 0)
(8.33103 0.218046 0)
(8.37788 0.191799 0)
(8.41474 0.170832 0)
(8.44369 0.15349 0)
(8.46632 0.138673 0)
(8.48388 0.125711 0)
(8.49739 0.114185 0)
(8.50746 0.103801 0)
(8.51471 0.0943328 0)
(8.51973 0.0856087 0)
(8.52305 0.0774959 0)
(8.5251 0.0698906 0)
(8.52625 0.0627116 0)
(8.52681 0.0558956 0)
(8.52705 0.0493954 0)
(8.52717 0.0431783 0)
(8.52734 0.0372288 0)
(8.52771 0.0315396 0)
(8.52839 0.0261191 0)
(8.52945 0.0209949 0)
(8.53095 0.0162087 0)
(8.5329 0.011826 0)
(8.5353 0.00793794 0)
(8.53804 0.00474384 0)
(8.54091 0.0024133 0)
(8.54322 0.00155074 0)
(8.54537 0.00323439 0)
(7.37402 0.1806 0)
(7.57415 0.33585 0)
(7.76095 0.34184 0)
(7.87554 0.312425 0)
(7.95187 0.272994 0)
(8.00737 0.234547 0)
(8.04895 0.20288 0)
(8.08326 0.177453 0)
(8.11373 0.156788 0)
(8.14155 0.139736 0)
(8.16728 0.125338 0)
(8.19122 0.112885 0)
(8.21357 0.101912 0)
(8.23457 0.0921041 0)
(8.25435 0.0832088 0)
(8.27301 0.0750321 0)
(8.29062 0.0674298 0)
(8.30727 0.0602925 0)
(8.32302 0.0535362 0)
(8.33796 0.0470966 0)
(8.35217 0.0409266 0)
(8.3657 0.0349946 0)
(8.37863 0.029284 0)
(8.39103 0.0237889 0)
(8.40296 0.0185185 0)
(8.41448 0.0135035 0)
(8.42565 0.00879373 0)
(8.43655 0.00447937 0)
(8.44719 0.000654475 0)
(8.45763 -0.00247934 0)
(8.46799 -0.00463703 0)
(8.4784 -0.00530848 0)
(8.48915 -0.00355502 0)
(7.35905 0.132673 0)
(7.50333 0.272876 0)
(7.65577 0.294508 0)
(7.75588 0.277523 0)
(7.82211 0.2477 0)
(7.86923 0.21551 0)
(7.90285 0.187508 0)
(7.9287 0.164432 0)
(7.95049 0.145297 0)
(7.96983 0.129228 0)
(7.98759 0.115482 0)
(8.0043 0.103492 0)
(8.02024 0.0928553 0)
(8.03558 0.0832801 0)
(8.05041 0.0745543 0)
(8.06481 0.0665171 0)
(8.07884 0.0590418 0)
(8.09251 0.0520268 0)
(8.10586 0.0453904 0)
(8.11891 0.0390686 0)
(8.13167 0.0330128 0)
(8.14416 0.0271886 0)
(8.15641 0.0215758 0)
(8.16845 0.0161662 0)
(8.1803 0.0109669 0)
(8.192 0.00600272 0)
(8.2036 0.00131249 0)
(8.21515 -0.00302402 0)
(8.22676 -0.00691508 0)
(8.23852 -0.0102006 0)
(8.25055 -0.0126638 0)
(8.26309 -0.0139124 0)
(8.27652 -0.0134948 0)
(7.34965 0.0989673 0)
(7.45344 0.22025 0)
(7.57654 0.249863 0)
(7.66533 0.242907 0)
(7.72723 0.222974 0)
(7.77308 0.198518 0)
(7.80669 0.175326 0)
(7.83235 0.155031 0)
(7.85347 0.137425 0)
(7.87173 0.122139 0)
(7.88808 0.108779 0)
(7.90315 0.0969635 0)
(7.91734 0.0863862 0)
(7.93086 0.0768144 0)
(7.94389 0.0680637 0)
(7.95653 0.0599824 0)
(7.96887 0.0524466 0)
(7.98095 0.0453564 0)
(7.99284 0.0386317 0)
(8.00455 0.0322091 0)
(8.01614 0.0260402 0)
(8.02762 0.0200895 0)
(8.03903 0.0143346 0)
(8.0504 0.00876442 0)
(8.06176 0.00338012 0)
(8.07316 -0.00180322 0)
(8.08466 -0.00675186 0)
(8.09629 -0.0114166 0)
(8.10816 -0.0157073 0)
(8.12038 -0.0195008 0)
(8.13313 -0.0226218 0)
(8.14675 -0.0248161 0)
(8.1616 -0.0258684 0)
(7.34381 0.0750019 0)
(7.41922 0.17827 0)
(7.51806 0.212385 0)
(7.5955 0.21301 0)
(7.65209 0.20016 0)
(7.69565 0.181177 0)
(7.7289 0.161452 0)
(7.75494 0.143325 0)
(7.77657 0.127151 0)
(7.79533 0.112838 0)
(7.81209 0.100158 0)
(7.82746 0.0888331 0)
(7.84183 0.0786135 0)
(7.85546 0.0692987 0)
(7.86852 0.060725 0)
(7.88113 0.0527577 0)
(7.89339 0.0452873 0)
(7.90537 0.0382244 0)
(7.91712 0.0314961 0)
(7.9287 0.0250435 0)
(7.94015 0.01882 0)
(7.9515 0.0127905 0)
(7.96279 0.00693056 0)
(7.97406 0.00122608 0)
(7.98536 -0.004327 0)
(7.99673 -0.00971916 0)
(8.00825 -0.0149257 0)
(8.01998 -0.0199082 0)
(8.03205 -0.0246094 0)
(8.04459 -0.0289529 0)
(8.05781 -0.0328463 0)
(8.07205 -0.0361736 0)
(8.08766 -0.0389009 0)
(7.34017 0.0577484 0)
(7.39554 0.144566 0)
(7.47471 0.179745 0)
(7.54168 0.185318 0)
(7.59302 0.177782 0)
(7.63397 0.163621 0)
(7.66637 0.147494 0)
(7.69232 0.131857 0)
(7.71408 0.117379 0)
(7.73303 0.104182 0)
(7.74998 0.0922218 0)
(7.76551 0.0813567 0)
(7.78001 0.0714261 0)
(7.79374 0.0622856 0)
(7.80688 0.0538086 0)
(7.81955 0.0458846 0)
(7.83184 0.0384182 0)
(7.84385 0.0313284 0)
(7.85561 0.0245465 0)
(7.86719 0.0180156 0)
(7.87862 0.0116891 0)
(7.88995 0.00553071 0)
(7.90123 -0.000487467 0)
(7.91249 -0.00638417 0)
(7.92379 -0.0121688 0)
(7.93518 -0.0178414 0)
(7.94675 -0.0233947 0)
(7.95859 -0.0288132 0)
(7.9708 -0.0340728 0)
(7.98356 -0.0391424 0)
(7.99706 -0.0439952 0)
(8.01163 -0.0486138 0)
(8.02754 -0.053072 0)
(7.33788 0.0450862 0)
(7.37905 0.11745 0)
(7.44252 0.151663 0)
(7.50016 0.160571 0)
(7.5465 0.157111 0)
(7.58469 0.146833 0)
(7.61589 0.133666 0)
(7.64146 0.120059 0)
(7.66317 0.106958 0)
(7.6822 0.0946926 0)
(7.69929 0.0833671 0)
(7.71497 0.0729438 0)
(7.7296 0.063326 0)
(7.74344 0.0544075 0)
(7.75666 0.0460852 0)
(7.7694 0.0382637 0)
(7.78174 0.0308575 0)
(7.79376 0.0237919 0)
(7.80554 0.0170029 0)
(7.81711 0.0104357 0)
(7.82853 0.0040445 0)
(7.83985 -0.00220914 0)
(7.8511 -0.00835538 0)
(7.86235 -0.0144178 0)
(7.87364 -0.0204141 0)
(7.88503 -0.0263563 0)
(7.89661 -0.032252 0)
(7.90848 -0.038106 0)
(7.92074 -0.043923 0)
(7.93356 -0.0497137 0)
(7.94712 -0.0555084 0)
(7.9617 -0.0613687 0)
(7.9775 -0.0674355 0)
(7.33643 0.0356103 0)
(7.36748 0.0955721 0)
(7.41847 0.12749 0)
(7.46787 0.138237 0)
(7.50949 0.137602 0)
(7.5449 0.130306 0)
(7.57474 0.119666 0)
(7.5998 0.107976 0)
(7.62138 0.0962953 0)
(7.64047 0.0850676 0)
(7.65769 0.0744858 0)
(7.67351 0.0645905 0)
(7.68828 0.0553442 0)
(7.70223 0.0466817 0)
(7.71554 0.0385296 0)
(7.72834 0.0308133 0)
(7.74073 0.0234621 0)
(7.75279 0.0164109 0)
(7.76457 0.00960136 0)
(7.77614 0.00298162 0)
(7.78754 -0.00349375 0)
(7.79882 -0.00986481 0)
(7.81003 -0.0161649 0)
(7.82123 -0.0224232 0)
(7.83246 -0.0286653 0)
(7.8438 -0.0349141 0)
(7.85531 -0.041192 0)
(7.8671 -0.0475242 0)
(7.87928 -0.053943 0)
(7.89198 -0.0604936 0)
(7.90535 -0.0672482 0)
(7.91964 -0.0743174 0)
(7.93497 -0.0818717 0)
(7.33549 0.0283674 0)
(7.35926 0.0778076 0)
(7.4004 0.106673 0)
(7.44266 0.118169 0)
(7.47991 0.119459 0)
(7.5126 0.11446 0)
(7.54095 0.105918 0)
(7.56533 0.0958775 0)
(7.58665 0.0854319 0)
(7.60568 0.0751064 0)
(7.62296 0.0651712 0)
(7.63889 0.0557373 0)
(7.65378 0.0468207 0)
(7.66785 0.0383928 0)
(7.68127 0.030405 0)
(7.69415 0.0227992 0)
(7.7066 0.0155154 0)
(7.7187 0.00849518 0)
(7.7305 0.001684 0)
(7.74206 -0.0049684 0)
(7.75344 -0.0115076 0)
(7.76467 -0.0179745 0)
(7.77582 -0.0244068 0)
(7.78694 -0.0308394 0)
(7.79807 -0.0373056 0)
(7.80929 -0.0438388 0)
(7.82067 -0.050475 0)
(7.83228 -0.0572564 0)
(7.84424 -0.064236 0)
(7.85666 -0.0714842 0)
(7.86965 -0.0790996 0)
(7.8834 -0.0872222 0)
(7.89798 -0.0960298 0)
(7.33486 0.0227116 0)
(7.35335 0.0632716 0)
(7.38676 0.0887263 0)
(7.4229 0.100134 0)
(7.45616 0.102569 0)
(7.48623 0.0992064 0)
(7.51302 0.0923062 0)
(7.5366 0.0836535 0)
(7.55755 0.0743134 0)
(7.57647 0.0648497 0)
(7.59376 0.0555741 0)
(7.60977 0.0466404 0)
(7.62476 0.0381011 0)
(7.63894 0.0299553 0)
(7.65245 0.0221746 0)
(7.66541 0.0147161 0)
(7.67791 0.00753038 0)
(7.69003 0.000566555 0)
(7.70183 -0.0062255 0)
(7.71337 -0.0128936 0)
(7.7247 -0.0194829 0)
(7.73586 -0.0260359 0)
(7.74691 -0.0325934 0)
(7.7579 -0.0391948 0)
(7.76888 -0.04588 0)
(7.77991 -0.0526911 0)
(7.79106 -0.0596749 0)
(7.8024 -0.0668864 0)
(7.81401 -0.0743939 0)
(7.82599 -0.0822837 0)
(7.83843 -0.0906689 0)
(7.85144 -0.0997009 0)
(7.86505 -0.109548 0)
(7.33444 0.0182014 0)
(7.34906 0.0512619 0)
(7.37641 0.073201 0)
(7.40737 0.0839109 0)
(7.43703 0.0868817 0)
(7.46465 0.0846258 0)
(7.48988 0.0789855 0)
(7.51258 0.0714778 0)
(7.53308 0.0630906 0)
(7.55179 0.0543895 0)
(7.56903 0.0457072 0)
(7.58507 0.0372273 0)
(7.60012 0.0290322 0)
(7.61438 0.0211455 0)
(7.62796 0.0135575 0)
(7.64097 0.00623871 0)
(7.65351 -0.000850578 0)
(7.66565 -0.00775506 0)
(7.67744 -0.0145209 0)
(7.68894 -0.0211942 0)
(7.70019 -0.0278199 0)
(7.71126 -0.0344423 0)
(7.72218 -0.0411048 0)
(7.733 -0.0478511 0)
(7.74378 -0.0547266 0)
(7.75457 -0.0617803 0)
(7.76541 -0.0690668 0)
(7.77639 -0.0766502 0)
(7.78755 -0.0846074 0)
(7.79897 -0.0930326 0)
(7.8107 -0.102042 0)
(7.82283 -0.111787 0)
(7.83534 -0.122416 0)
(7.33414 0.0145307 0)
(7.34589 0.0412281 0)
(7.3685 0.0597046 0)
(7.39513 0.0692881 0)
(7.42161 0.0723059 0)
(7.44696 0.0706988 0)
(7.47066 0.0659526 0)
(7.49245 0.0593351 0)
(7.51243 0.0517353 0)
(7.53088 0.0436986 0)
(7.54802 0.0355612 0)
(7.56405 0.0275212 0)
(7.57914 0.019679 0)
(7.59345 0.0120743 0)
(7.60709 0.0047098 0)
(7.62015 -0.00243412 0)
(7.63271 -0.00939025 0)
(7.64484 -0.0161984 0)
(7.65659 -0.0229017 0)
(7.66803 -0.0295448 0)
(7.67919 -0.0361728 0)
(7.69012 -0.0428306 0)
(7.70087 -0.0495639 0)
(7.71149 -0.0564193 0)
(7.72201 -0.063446 0)
(7.73248 -0.0706974 0)
(7.74295 -0.0782331 0)
(7.75348 -0.0861213 0)
(7.76409 -0.0944423 0)
(7.77485 -0.103291 0)
(7.78577 -0.11278 0)
(7.79691 -0.12305 0)
(7.80822 -0.134226 0)
(7.33393 0.0114843 0)
(7.34354 0.0327391 0)
(7.36243 0.0478918 0)
(7.38547 0.0560575 0)
(7.40917 0.05874 0)
(7.43246 0.0574056 0)
(7.45473 0.0532393 0)
(7.47559 0.0472847 0)
(7.49503 0.0403185 0)
(7.51318 0.0328458 0)
(7.53017 0.0251902 0)
(7.54615 0.0175514 0)
(7.56125 0.0100391 0)
(7.57559 0.00270325 0)
(7.58925 -0.00444406 0)
(7.60233 -0.0114146 0)
(7.61489 -0.0182349 0)
(7.627 -0.0249406 0)
(7.6387 -0.031572 0)
(7.65005 -0.0381724 0)
(7.66109 -0.0447863 0)
(7.67187 -0.0514593 0)
(7.68241 -0.0582382 0)
(7.69278 -0.0651716 0)
(7.70299 -0.0723108 0)
(7.7131 -0.0797113 0)
(7.72314 -0.0874346 0)
(7.73315 -0.0955496 0)
(7.74315 -0.104135 0)
(7.75317 -0.113282 0)
(7.76322 -0.123093 0)
(7.77331 -0.133692 0)
(7.78339 -0.145179 0)
(7.33377 0.00890738 0)
(7.34177 0.0254568 0)
(7.35776 0.0374633 0)
(7.37785 0.0440227 0)
(7.39916 0.0460736 0)
(7.42061 0.0447007 0)
(7.44155 0.040837 0)
(7.46153 0.0353297 0)
(7.48041 0.0288419 0)
(7.49824 0.0218278 0)
(7.51506 0.0145885 0)
(7.53096 0.00731658 0)
(7.54604 0.000123001 0)
(7.56039 -0.00693774 0)
(7.57406 -0.0138486 0)
(7.58715 -0.0206169 0)
(7.59969 -0.027266 0)
(7.61176 -0.0338289 0)
(7.62338 -0.0403447 0)
(7.63462 -0.0468557 0)
(7.64552 -0.0534064 0)
(7.6561 -0.0600428 0)
(7.66641 -0.0668122 0)
(7.67648 -0.0737641 0)
(7.68635 -0.0809505 0)
(7.69605 -0.0884269 0)
(7.70561 -0.0962541 0)
(7.71504 -0.104498 0)
(7.72437 -0.113234 0)
(7.7336 -0.122543 0)
(7.74274 -0.132516 0)
(7.75175 -0.143257 0)
(7.76061 -0.154841 0)
(7.33365 0.00668631 0)
(7.34043 0.0191147 0)
(7.35417 0.0281602 0)
(7.37186 0.0329971 0)
(7.39113 0.034189 0)
(7.41098 0.0325229 0)
(7.43072 0.0287239 0)
(7.44987 0.023471 0)
(7.46823 0.0173179 0)
(7.48572 0.0106611 0)
(7.50236 0.00377061 0)
(7.51818 -0.00317678 0)
(7.53323 -0.0100759 0)
(7.54756 -0.0168733 0)
(7.56123 -0.0235508 0)
(7.5743 -0.0301143 0)
(7.58682 -0.036585 0)
(7.59882 -0.0429946 0)
(7.61036 -0.0493808 0)
(7.62147 -0.055785 0)
(7.63219 -0.0622513 0)
(7.64255 -0.0688252 0)
(7.6526 -0.0755538 0)
(7.66235 -0.0824859 0)
(7.67184 -0.0896725 0)
(7.68109 -0.0971675 0)
(7.69013 -0.105028 0)
(7.69895 -0.113317 0)
(7.70758 -0.122099 0)
(7.71601 -0.131447 0)
(7.72421 -0.141436 0)
(7.73217 -0.152151 0)
(7.73983 -0.163642 0)
(7.33356 0.00473538 0)
(7.33941 0.0135005 0)
(7.3514 0.0197585 0)
(7.36716 0.0228053 0)
(7.38475 0.0229646 0)
(7.40322 0.0207982 0)
(7.42191 0.0168623 0)
(7.44032 0.0116936 0)
(7.45818 0.00574536 0)
(7.47537 -0.000647103 0)
(7.49183 -0.00724865 0)
(7.50755 -0.0139035 0)
(7.52256 -0.0205177 0)
(7.53687 -0.0270433 0)
(7.55053 -0.0334651 0)
(7.56358 -0.0397899 0)
(7.57604 -0.0460397 0)
(7.58797 -0.0522462 0)
(7.5994 -0.0584472 0)
(7.61036 -0.0646845 0)
(7.62088 -0.0710017 0)
(7.63101 -0.0774443 0)
(7.64076 -0.0840586 0)
(7.65016 -0.0908923 0)
(7.65925 -0.0979945 0)
(7.66802 -0.105416 0)
(7.67651 -0.113209 0)
(7.6847 -0.12143 0)
(7.69261 -0.130136 0)
(7.70022 -0.139386 0)
(7.70751 -0.149241 0)
(7.71444 -0.159767 0)
(7.72097 -0.170993 0)
(7.33349 0.00298814 0)
(7.33864 0.00844227 0)
(7.34928 0.0120632 0)
(7.36352 0.0132813 0)
(7.37973 0.0122739 0)
(7.39706 0.00943659 0)
(7.41487 0.00519025 0)
(7.43265 -4.80367e-05 0)
(7.45008 -0.00591614 0)
(7.467 -0.0121391 0)
(7.48331 -0.018521 0)
(7.49896 -0.0249313 0)
(7.51392 -0.0312921 0)
(7.52822 -0.0375651 0)
(7.54187 -0.0437407 0)
(7.55488 -0.0498294 0)
(7.5673 -0.0558552 0)
(7.57914 -0.0618509 0)
(7.59045 -0.0678548 0)
(7.60125 -0.0739086 0)
(7.61156 -0.0800556 0)
(7.62143 -0.0863402 0)
(7.63087 -0.0928075 0)
(7.63991 -0.0995029 0)
(7.64857 -0.106472 0)
(7.65685 -0.113762 0)
(7.66477 -0.121419 0)
(7.67233 -0.129492 0)
(7.67953 -0.138028 0)
(7.68633 -0.147074 0)
(7.69274 -0.156677 0)
(7.69869 -0.166883 0)
(7.70415 -0.177707 0)
(7.33344 0.00139108 0)
(7.33807 0.0037977 0)
(7.34769 0.00490238 0)
(7.36076 0.00426821 0)
(7.37588 0.00199008 0)
(7.3923 -0.00165468 0)
(7.4094 -0.00635156 0)
(7.42666 -0.0117821 0)
(7.44375 -0.0176649 0)
(7.46045 -0.023782 0)
(7.47664 -0.0299789 0)
(7.49222 -0.0361537 0)
(7.50717 -0.0422481 0)
(7.52145 -0.0482374 0)
(7.53508 -0.0541215 0)
(7.54806 -0.0599172 0)
(7.56041 -0.0656532 0)
(7.57217 -0.0713653 0)
(7.58334 -0.077094 0)
(7.59396 -0.0828818 0)
(7.60405 -0.0887725 0)
(7.61365 -0.0948099 0)
(7.62276 -0.101038 0)
(7.63142 -0.107498 0)
(7.63964 -0.114235 0)
(7.64742 -0.121289 0)
(7.65478 -0.128701 0)
(7.66171 -0.136511 0)
(7.6682 -0.144758 0)
(7.67423 -0.153477 0)
(7.67979 -0.1627 0)
(7.68483 -0.172461 0)
(7.68933 -0.182757 0)
(7.33341 -9.98721e-05 0)
(7.33765 -0.000554393 0)
(7.34654 -0.00188005 0)
(7.35873 -0.00438897 0)
(7.37305 -0.00802739 0)
(7.38879 -0.0126011 0)
(7.40536 -0.0178797 0)
(7.42225 -0.0236274 0)
(7.4391 -0.0296348 0)
(7.45568 -0.0357396 0)
(7.47181 -0.0418281 0)
(7.48739 -0.047829 0)
(7.50235 -0.0537058 0)
(7.51665 -0.0594492 0)
(7.53028 -0.0650702 0)
(7.54324 -0.0705935 0)
(7.55555 -0.076053 0)
(7.56721 -0.0814883 0)
(7.57825 -0.086942 0)
(7.58869 -0.092458 0)
(7.59856 -0.0980798 0)
(7.60787 -0.103851 0)
(7.61666 -0.109812 0)
(7.62493 -0.116004 0)
(7.6327 -0.122466 0)
(7.63998 -0.129234 0)
(7.64678 -0.136343 0)
(7.65309 -0.143824 0)
(7.6589 -0.151707 0)
(7.6642 -0.160017 0)
(7.66897 -0.168774 0)
(7.67316 -0.177999 0)
(7.67677 -0.187677 0)
(7.33338 -0.00152331 0)
(7.33737 -0.00472109 0)
(7.34575 -0.00842686 0)
(7.35735 -0.0128353 0)
(7.37112 -0.0179047 0)
(7.3864 -0.0234948 0)
(7.40263 -0.0294389 0)
(7.41929 -0.0355689 0)
(7.43602 -0.0417388 0)
(7.45255 -0.0478392 0)
(7.46868 -0.0537988 0)
(7.48429 -0.05958 0)
(7.49929 -0.0651723 0)
(7.51362 -0.0705867 0)
(7.52727 -0.0758493 0)
(7.54022 -0.0809962 0)
(7.55248 -0.0860697 0)
(7.56405 -0.0911153 0)
(7.57495 -0.0961795 0)
(7.58521 -0.101308 0)
(7.59485 -0.106547 0)
(7.60388 -0.111937 0)
(7.61233 -0.117518 0)
(7.62022 -0.12333 0)
(7.62755 -0.129405 0)
(7.63434 -0.135775 0)
(7.6406 -0.14247 0)
(7.64631 -0.149513 0)
(7.65148 -0.156926 0)
(7.6561 -0.164724 0)
(7.66014 -0.172918 0)
(7.66357 -0.181516 0)
(7.66639 -0.190498 0)
(7.33337 -0.00291526 0)
(7.33721 -0.00880419 0)
(7.3453 -0.0148835 0)
(7.35657 -0.0212398 0)
(7.37004 -0.0278283 0)
(7.38512 -0.0345475 0)
(7.40122 -0.0412824 0)
(7.41785 -0.0479239 0)
(7.43462 -0.0543828 0)
(7.45123 -0.0605988 0)
(7.46749 -0.0665407 0)
(7.48322 -0.0722027 0)
(7.49834 -0.0776001 0)
(7.51277 -0.0827632 0)
(7.52648 -0.0877333 0)
(7.53945 -0.0925582 0)
(7.55168 -0.0972887 0)
(7.56318 -0.101977 0)
(7.57396 -0.106673 0)
(7.58404 -0.111427 0)
(7.59345 -0.116284 0)
(7.6022 -0.121286 0)
(7.61032 -0.126473 0)
(7.61782 -0.131879 0)
(7.62472 -0.137536 0)
(7.63103 -0.14347 0)
(7.63676 -0.149705 0)
(7.6419 -0.15626 0)
(7.64647 -0.163147 0)
(7.65043 -0.170376 0)
(7.6538 -0.177947 0)
(7.65654 -0.185862 0)
(7.65865 -0.194092 0)
(7.33336 -0.00430994 0)
(7.33715 -0.0128991 0)
(7.34515 -0.0213801 0)
(7.35632 -0.0297303 0)
(7.36975 -0.0378858 0)
(7.38483 -0.0457648 0)
(7.40101 -0.0532917 0)
(7.41776 -0.0604093 0)
(7.43469 -0.0670842 0)
(7.4515 -0.0733085 0)
(7.46794 -0.0790974 0)
(7.48387 -0.0844847 0)
(7.49915 -0.0895177 0)
(7.51371 -0.0942529 0)
(7.52751 -0.0987517 0)
(7.54053 -0.103077 0)
(7.55276 -0.107291 0)
(7.5642 -0.111454 0)
(7.57487 -0.115623 0)
(7.58479 -0.119848 0)
(7.59398 -0.124177 0)
(7.60246 -0.128653 0)
(7.61026 -0.133314 0)
(7.6174 -0.13819 0)
(7.62388 -0.143311 0)
(7.62974 -0.148698 0)
(7.63497 -0.15437 0)
(7.63958 -0.16034 0)
(7.64359 -0.166614 0)
(7.64697 -0.173194 0)
(7.64974 -0.180077 0)
(7.65187 -0.187256 0)
(7.65338 -0.1947 0)
(7.33337 -0.00574427 0)
(7.33721 -0.0171176 0)
(7.34532 -0.0280999 0)
(7.35668 -0.0385686 0)
(7.37035 -0.0484437 0)
(7.38575 -0.0576625 0)
(7.4023 -0.0661841 0)
(7.41945 -0.0739953 0)
(7.43679 -0.0811089 0)
(7.45399 -0.0875598 0)
(7.47081 -0.0934018 0)
(7.48705 -0.0987022 0)
(7.50261 -0.103537 0)
(7.51739 -0.107987 0)
(7.53135 -0.112134 0)
(7.54445 -0.116056 0)
(7.5567 -0.119829 0)
(7.56811 -0.123524 0)
(7.57868 -0.127203 0)
(7.58844 -0.130923 0)
(7.59741 -0.134736 0)
(7.60563 -0.138685 0)
(7.61311 -0.142807 0)
(7.61988 -0.147134 0)
(7.62596 -0.151691 0)
(7.63137 -0.156498 0)
(7.63612 -0.161569 0)
(7.64023 -0.166911 0)
(7.6437 -0.172528 0)
(7.64653 -0.178417 0)
(7.64874 -0.184567 0)
(7.65031 -0.190969 0)
(7.65126 -0.197588 0)
(7.33338 -0.00725633 0)
(7.33736 -0.0215549 0)
(7.34578 -0.0351409 0)
(7.35754 -0.0477701 0)
(7.3717 -0.0593296 0)
(7.38762 -0.0697682 0)
(7.40471 -0.0790845 0)
(7.42242 -0.0873243 0)
(7.4403 -0.0945664 0)
(7.45802 -0.100908 0)
(7.47531 -0.10646 0)
(7.49198 -0.111334 0)
(7.5079 -0.115646 0)
(7.52298 -0.119505 0)
(7.53716 -0.123016 0)
(7.55041 -0.126276 0)
(7.56275 -0.129371 0)
(7.57416 -0.13238 0)
(7.58467 -0.135374 0)
(7.59431 -0.138412 0)
(7.60311 -0.141545 0)
(7.61109 -0.144819 0)
(7.61829 -0.14827 0)
(7.62473 -0.151926 0)
(7.63043 -0.15581 0)
(7.63544 -0.159939 0)
(7.63975 -0.164322 0)
(7.6434 -0.168965 0)
(7.64639 -0.173865 0)
(7.64875 -0.179016 0)
(7.65047 -0.184405 0)
(7.65157 -0.190018 0)
(7.65207 -0.195821 0)
(7.33341 -0.00889966 0)
(7.33769 -0.0264001 0)
(7.34671 -0.0428853 0)
(7.35929 -0.0580121 0)
(7.37438 -0.071654 0)
(7.3913 -0.0837677 0)
(7.40939 -0.0943686 0)
(7.42806 -0.103532 0)
(7.44682 -0.111376 0)
(7.46533 -0.118038 0)
(7.48331 -0.123671 0)
(7.50056 -0.128431 0)
(7.51695 -0.132471 0)
(7.53239 -0.135935 0)
(7.54684 -0.138957 0)
(7.56027 -0.141657 0)
(7.57269 -0.144142 0)
(7.58411 -0.146508 0)
(7.59456 -0.148833 0)
(7.60407 -0.151188 0)
(7.61267 -0.153629 0)
(7.62041 -0.156203 0)
(7.62731 -0.158948 0)
(7.63341 -0.161893 0)
(7.63874 -0.165059 0)
(7.64333 -0.168461 0)
(7.64722 -0.172106 0)
(7.65042 -0.175996 0)
(7.65295 -0.180126 0)
(7.65484 -0.184487 0)
(7.65609 -0.189063 0)
(7.65673 -0.193838 0)
(7.65677 -0.198776 0)
(7.33344 -0.0107192 0)
(7.33809 -0.031695 0)
(7.34787 -0.0511615 0)
(7.36143 -0.0686171 0)
(7.37761 -0.083929 0)
(7.39567 -0.0971131 0)
(7.41492 -0.108276 0)
(7.43472 -0.117598 0)
(7.45457 -0.125293 0)
(7.47407 -0.131578 0)
(7.49295 -0.136668 0)
(7.51099 -0.140769 0)
(7.52805 -0.144069 0)
(7.54404 -0.146741 0)
(7.55891 -0.148937 0)
(7.57266 -0.150793 0)
(7.58529 -0.152427 0)
(7.59683 -0.153941 0)
(7.6073 -0.15542 0)
(7.61675 -0.156936 0)
(7.62522 -0.158549 0)
(7.63276 -0.160305 0)
(7.63942 -0.162242 0)
(7.64522 -0.164389 0)
(7.65023 -0.166764 0)
(7.65446 -0.16938 0)
(7.65796 -0.172242 0)
(7.66076 -0.175351 0)
(7.66289 -0.178699 0)
(7.66438 -0.182275 0)
(7.66524 -0.186062 0)
(7.66551 -0.190043 0)
(7.66522 -0.194183 0)
(7.33352 -0.0128348 0)
(7.3389 -0.0379895 0)
(7.35013 -0.061297 0)
(7.36554 -0.0821359 0)
(7.38368 -0.100333 0)
(7.40369 -0.115853 0)
(7.42477 -0.128778 0)
(7.44622 -0.13931 0)
(7.46749 -0.147719 0)
(7.48823 -0.154293 0)
(7.50813 -0.159322 0)
(7.52702 -0.163086 0)
(7.54475 -0.16584 0)
(7.56127 -0.167813 0)
(7.57654 -0.169204 0)
(7.59056 -0.170187 0)
(7.60335 -0.170905 0)
(7.61494 -0.171481 0)
(7.62539 -0.172016 0)
(7.63474 -0.172589 0)
(7.64305 -0.173266 0)
(7.65037 -0.174097 0)
(7.65675 -0.17512 0)
(7.66224 -0.176362 0)
(7.6669 -0.177841 0)
(7.67076 -0.179568 0)
(7.67387 -0.181545 0)
(7.67627 -0.183771 0)
(7.67799 -0.186236 0)
(7.67906 -0.188927 0)
(7.67952 -0.191826 0)
(7.67939 -0.194914 0)
(7.6787 -0.198155 0)
(7.33356 -0.015255 0)
(7.33953 -0.044789 0)
(7.35206 -0.0713793 0)
(7.36917 -0.0943135 0)
(7.38923 -0.113657 0)
(7.41133 -0.129638 0)
(7.43456 -0.142551 0)
(7.4581 -0.152761 0)
(7.48134 -0.16064 0)
(7.50386 -0.166541 0)
(7.52533 -0.170795 0)
(7.54556 -0.173707 0)
(7.56441 -0.175552 0)
(7.58183 -0.176573 0)
(7.5978 -0.176982 0)
(7.61234 -0.176964 0)
(7.6255 -0.176674 0)
(7.63732 -0.176243 0)
(7.64788 -0.175777 0)
(7.65725 -0.175363 0)
(7.66548 -0.17507 0)
(7.67266 -0.174952 0)
(7.67883 -0.175047 0)
(7.68408 -0.175383 0)
(7.68845 -0.175978 0)
(7.692 -0.176842 0)
(7.69478 -0.177977 0)
(7.69683 -0.17938 0)
(7.69821 -0.181041 0)
(7.69895 -0.182947 0)
(7.69909 -0.185078 0)
(7.69867 -0.187416 0)
(7.69774 -0.189924 0)
(7.33381 -0.0184288 0)
(7.34175 -0.0545591 0)
(7.35763 -0.0874431 0)
(7.37846 -0.115975 0)
(7.40203 -0.139921 0)
(7.42725 -0.159305 0)
(7.45319 -0.174431 0)
(7.47903 -0.185819 0)
(7.50421 -0.19404 0)
(7.52836 -0.199642 0)
(7.55119 -0.203136 0)
(7.57255 -0.204974 0)
(7.59233 -0.205548 0)
(7.61048 -0.205186 0)
(7.62702 -0.204163 0)
(7.64198 -0.202704 0)
(7.65541 -0.20099 0)
(7.66738 -0.199168 0)
(7.67798 -0.197353 0)
(7.68728 -0.195635 0)
(7.69537 -0.194081 0)
(7.70232 -0.192742 0)
(7.70822 -0.191653 0)
(7.71313 -0.19084 0)
(7.71713 -0.190314 0)
(7.72027 -0.190084 0)
(7.72261 -0.190147 0)
(7.72421 -0.190499 0)
(7.72512 -0.191129 0)
(7.72539 -0.192022 0)
(7.72506 -0.193158 0)
(7.72416 -0.194519 0)
(7.72276 -0.196066 0)
(7.3337 -0.0218641 0)
(7.34208 -0.0629321 0)
(7.3599 -0.0979083 0)
(7.38372 -0.126758 0)
(7.41103 -0.150391 0)
(7.44044 -0.16931 0)
(7.47059 -0.183976 0)
(7.50036 -0.194935 0)
(7.52904 -0.202712 0)
(7.55619 -0.207797 0)
(7.58152 -0.210661 0)
(7.60486 -0.211739 0)
(7.62617 -0.211425 0)
(7.64546 -0.210064 0)
(7.66278 -0.207955 0)
(7.67823 -0.205349 0)
(7.69191 -0.202455 0)
(7.70393 -0.199443 0)
(7.71441 -0.196445 0)
(7.72345 -0.193568 0)
(7.73118 -0.190889 0)
(7.73768 -0.188465 0)
(7.74307 -0.186335 0)
(7.74742 -0.184525 0)
(7.75081 -0.183049 0)
(7.75333 -0.181911 0)
(7.75504 -0.181109 0)
(7.756 -0.180637 0)
(7.75627 -0.180484 0)
(7.75591 -0.180634 0)
(7.75498 -0.181068 0)
(7.75352 -0.181769 0)
(7.75163 -0.182691 0)
(7.33482 -0.0282199 0)
(7.34949 -0.0836 0)
(7.37507 -0.131761 0)
(7.40529 -0.170841 0)
(7.43738 -0.201176 0)
(7.47056 -0.223554 0)
(7.50372 -0.239212 0)
(7.53592 -0.249473 0)
(7.56658 -0.255468 0)
(7.59532 -0.258149 0)
(7.62188 -0.258314 0)
(7.64613 -0.256608 0)
(7.66807 -0.25355 0)
(7.68774 -0.249555 0)
(7.70524 -0.24495 0)
(7.72069 -0.239998 0)
(7.73424 -0.234902 0)
(7.74604 -0.229821 0)
(7.75624 -0.224876 0)
(7.76497 -0.220157 0)
(7.77237 -0.215731 0)
(7.77856 -0.211642 0)
(7.78365 -0.207919 0)
(7.78775 -0.204578 0)
(7.79093 -0.201627 0)
(7.79328 -0.199065 0)
(7.79488 -0.196886 0)
(7.79578 -0.195082 0)
(7.79605 -0.193643 0)
(7.79574 -0.192556 0)
(7.79491 -0.191807 0)
(7.79362 -0.191383 0)
(7.79191 -0.191238 0)
(7.33379 -0.0319982 0)
(7.34762 -0.0870955 0)
(7.37765 -0.13058 0)
(7.41547 -0.166568 0)
(7.45621 -0.19632 0)
(7.49759 -0.219497 0)
(7.53772 -0.236527 0)
(7.57561 -0.248163 0)
(7.61098 -0.255139 0)
(7.64376 -0.258244 0)
(7.67398 -0.258274 0)
(7.70179 -0.255959 0)
(7.72734 -0.251936 0)
(7.75077 -0.246739 0)
(7.77222 -0.240807 0)
(7.79183 -0.234486 0)
(7.80971 -0.228042 0)
(7.82599 -0.221678 0)
(7.84076 -0.21554 0)
(7.85414 -0.209732 0)
(7.8662 -0.204323 0)
(7.87706 -0.199355 0)
(7.88678 -0.19485 0)
(7.89545 -0.190815 0)
(7.90313 -0.187245 0)
(7.9099 -0.184128 0)
(7.91582 -0.18145 0)
(7.92094 -0.179194 0)
(7.92531 -0.177349 0)
(7.92899 -0.175902 0)
(7.93204 -0.174851 0)
(7.93454 -0.174194 0)
(7.93658 -0.173901 0)
(7.33892 -0.0545063 0)
(7.37183 -0.151955 0)
(7.41436 -0.221435 0)
(7.45759 -0.268621 0)
(7.50369 -0.299694 0)
(7.55354 -0.318629 0)
(7.60563 -0.329133 0)
(7.65887 -0.333895 0)
(7.71234 -0.334615 0)
(7.76503 -0.332449 0)
(7.81601 -0.328206 0)
(7.86462 -0.322457 0)
(7.91036 -0.315631 0)
(7.95292 -0.30806 0)
(7.99213 -0.300017 0)
(8.02796 -0.291727 0)
(8.06045 -0.283376 0)
(8.08972 -0.27512 0)
(8.11595 -0.267084 0)
(8.13933 -0.259363 0)
(8.16006 -0.252028 0)
(8.17835 -0.245128 0)
(8.19441 -0.238692 0)
(8.20842 -0.232735 0)
(8.22055 -0.22726 0)
(8.23098 -0.22226 0)
(8.23983 -0.217725 0)
(8.24724 -0.213646 0)
(8.25332 -0.210022 0)
(8.25815 -0.206852 0)
(8.26185 -0.204187 0)
(8.2645 -0.202028 0)
(8.26628 -0.200549 0)
(7.33754 -0.0404953 0)
(7.38837 -0.106049 0)
(7.47738 -0.164063 0)
(7.5787 -0.22014 0)
(7.68624 -0.268007 0)
(7.79484 -0.305308 0)
(7.89849 -0.332675 0)
(7.99366 -0.350786 0)
(8.07838 -0.360711 0)
(8.15153 -0.363903 0)
(8.2129 -0.361818 0)
(8.26288 -0.355766 0)
(8.30223 -0.346879 0)
(8.33194 -0.336093 0)
(8.3531 -0.324155 0)
(8.36681 -0.31165 0)
(8.37413 -0.299018 0)
(8.37601 -0.286585 0)
(8.37334 -0.274583 0)
(8.36687 -0.263167 0)
(8.35726 -0.252433 0)
(8.34507 -0.242433 0)
(8.33079 -0.233182 0)
(8.3148 -0.224671 0)
(8.29744 -0.216871 0)
(8.27898 -0.20974 0)
(8.25963 -0.20323 0)
(8.23954 -0.19729 0)
(8.21885 -0.191884 0)
(8.19758 -0.186983 0)
(8.17588 -0.182672 0)
(8.15347 -0.178908 0)
(8.13101 -0.176643 0)
(7.39947 -0.196968 0)
(7.59553 -0.376646 0)
(7.76794 -0.459947 0)
(7.89453 -0.514224 0)
(7.97725 -0.543313 0)
(8.01419 -0.553043 0)
(8.00956 -0.550033 0)
(7.97175 -0.537625 0)
(7.90842 -0.518322 0)
(7.82619 -0.494388 0)
(7.73085 -0.46762 0)
(7.62717 -0.439417 0)
(7.5189 -0.41087 0)
(7.40889 -0.382794 0)
(7.29926 -0.355768 0)
(7.19154 -0.33018 0)
(7.08677 -0.306264 0)
(6.98565 -0.28414 0)
(6.88857 -0.263838 0)
(6.79573 -0.24533 0)
(6.70719 -0.228544 0)
(6.6229 -0.213382 0)
(6.54273 -0.199727 0)
(6.46651 -0.187453 0)
(6.39405 -0.176427 0)
(6.32514 -0.166517 0)
(6.25954 -0.157579 0)
(6.19703 -0.149481 0)
(6.13735 -0.142058 0)
(6.08014 -0.135165 0)
(6.02508 -0.128693 0)
(5.97116 -0.121863 0)
(5.91877 -0.117993 0)
(7.16007 -0.186021 0)
(6.91058 -0.345553 0)
(6.49879 -0.393083 0)
(6.03421 -0.394733 0)
(5.59295 -0.366765 0)
(5.17527 -0.32301 0)
(4.78528 -0.274388 0)
(4.42977 -0.22653 0)
(4.10935 -0.182429 0)
(3.82235 -0.143571 0)
(3.56677 -0.110361 0)
(3.34007 -0.082615 0)
(3.13941 -0.0598523 0)
(2.962 -0.0414528 0)
(2.80517 -0.0267643 0)
(2.66644 -0.0151705 0)
(2.54355 -0.0061204 0)
(2.43447 0.000860317 0)
(2.3374 0.00617038 0)
(2.25075 0.0101393 0)
(2.17314 0.0130368 0)
(2.10334 0.015082 0)
(2.04032 0.0164539 0)
(1.98317 0.0172989 0)
(1.93111 0.0177424 0)
(1.88349 0.0178936 0)
(1.83974 0.0178729 0)
(1.79949 0.0178016 0)
(1.76221 0.0179032 0)
(1.72814 0.0184806 0)
(1.69633 0.0198771 0)
(1.66887 0.0246031 0)
(1.64369 0.0200049 0)
(1.43147 -0.0429359 0)
(1.53916 -0.0015936 0)
(1.72052 0.0648538 0)
(1.97037 0.189607 0)
(2.32266 0.368194 0)