/*--------------------------------*- C++ -*----------------------------------*\
  =========                 |
  \\      /  F ield         | OpenFOAM: The Open Source CFD Toolbox
   \\    /   O peration     | Website:  https://openfoam.org
    \\  /    A nd           | Version:  10
     \\/     M anipulation  |
\*---------------------------------------------------------------------------*/
FoamFile
{
    format      ascii;
    class       volScalarField;
    location    "0.15";
    object      k;
}
// * * * * * * * * * * * * * * * * * * * * * * * * * * * * * * * * * * * * * //

dimensions      [0 2 -2 0 0 0 0];

internalField   nonuniform List<scalar> 
6820
(
0.198348
0.194833
0.191267
0.187685
0.184132
0.18063
0.177187
0.173804
0.170481
0.167214
0.164002
0.160842
0.15773
0.154664
0.15164
0.148657
0.145711
0.1428
0.13992
0.137069
0.134244
0.13144
0.128656
0.125887
0.12313
0.120383
0.117646
0.114919
0.112213
0.10954
0.106901
0.10458
0.101685
0.200923
0.20088
0.200417
0.199922
0.199421
0.198909
0.198386
0.19785
0.197301
0.196742
0.196173
0.195595
0.195011
0.194421
0.193827
0.193228
0.192625
0.19202
0.19141
0.190797
0.190181
0.18956
0.188934
0.188301
0.187662
0.187014
0.186356
0.185685
0.185002
0.184304
0.183598
0.1827
0.181648
0.236767
0.0165586
0.000322497
0.00768204
0.00737027
0.00751928
0.00907176
0.0109519
0.0129651
0.0150687
0.0172311
0.0194357
0.0216717
0.0239305
0.0262054
0.0284903
0.0307803
0.0330705
0.0353565
0.0376338
0.0398978
0.0421432
0.0443637
0.0465518
0.0486973
0.0507866
0.0528004
0.0547138
0.056489
0.0580854
0.0594321
0.060542
0.0614425
0.21081
0.147717
0.104455
0.0790813
0.0634954
0.0530088
0.0453273
0.0393302
0.0344364
0.0303193
0.0267817
0.0236973
0.020982
0.018578
0.0164453
0.0145558
0.01289
0.0114338
0.0101762
0.00910701
0.00821497
0.00748675
0.00690666
0.00645706
0.00611924
0.00587418
0.005704
0.00560013
0.00554565
0.0055172
0.00549972
0.00546948
0.00543127
0.222972
0.0853791
0.0235164
0.00541296
0.00128471
0.000691667
0.000822701
0.00103728
0.00123165
0.00140463
0.00156299
0.00170898
0.00184207
0.00196093
0.00206439
0.00215177
0.0022229
0.00227814
0.0023183
0.00234457
0.00235845
0.00236166
0.00235611
0.00234386
0.00232719
0.00230751
0.00228633
0.0022562
0.00221612
0.00216487
0.00210132
0.00202363
0.00193291
0.215525
0.123678
0.0667132
0.0415361
0.0303291
0.0242985
0.0200492
0.0163721
0.0129589
0.00984563
0.00716682
0.00502165
0.00341892
0.00228909
0.00152637
0.00102594
0.00070242
0.000494399
0.00036082
0.000275289
0.000221106
0.00018765
0.000167996
0.000158625
0.000157678
0.000164415
0.000177815
0.000197393
0.000222809
0.000253707
0.000289305
0.000328718
0.000369337
0.212366
0.139319
0.0844499
0.0558248
0.0415935
0.0338422
0.0289792
0.0254975
0.0227698
0.0205061
0.0185594
0.0168495
0.0153297
0.0139703
0.0127502
0.0116532
0.0106664
0.00977913
0.00898207
0.00826695
0.00762622
0.00705303
0.00654073
0.00608476
0.00568221
0.00533199
0.00503201
0.00477703
0.00455782
0.00436225
0.00417747
0.00399371
0.00380384
0.204308
0.178381
0.150286
0.122204
0.0977647
0.0787846
0.0645722
0.0538409
0.0454965
0.0388036
0.0333125
0.028741
0.0248976
0.0216476
0.018889
0.0165418
0.0145417
0.0128355
0.0113785
0.0101327
0.00906566
0.00814929
0.00736155
0.00668532
0.0061105
0.00563342
0.00525414
0.00497251
0.0047844
0.00467974
0.00464329
0.00465689
0.0047035
0.204023
0.179033
0.161046
0.149264
0.137861
0.126421
0.115524
0.105286
0.095388
0.0855629
0.0758797
0.0666138
0.0580073
0.050197
0.0432262
0.0370876
0.0317434
0.0271345
0.0231883
0.0198251
0.0169662
0.0145369
0.0124699
0.0107096
0.00921661
0.0079715
0.00697268
0.00622933
0.00575095
0.00553771
0.00557528
0.00583522
0.00627836
0.20442
0.176544
0.159675
0.151457
0.146179
0.141625
0.137212
0.132711
0.12785
0.12237
0.116095
0.108866
0.100559
0.0912319
0.081226
0.0710861
0.0613626
0.052455
0.0445642
0.0377274
0.0318829
0.026922
0.0227237
0.0191785
0.0162092
0.0137853
0.0119243
0.0106759
0.0100928
0.0101979
0.0109639
0.0123047
0.0140941
0.205172
0.172142
0.153712
0.146621
0.144298
0.143691
0.14352
0.143202
0.142544
0.141511
0.140023
0.137829
0.13454
0.129783
0.12337
0.115377
0.106114
0.096038
0.0856509
0.0754155
0.0656949
0.0567338
0.0486746
0.0415981
0.0355753
0.0307052
0.0271186
0.0249431
0.0242447
0.0249721
0.026938
0.0298289
0.0332916
0.20624
0.165992
0.145558
0.138908
0.138065
0.139434
0.141507
0.143558
0.145236
0.146405
0.147035
0.147116
0.14658
0.14526
0.142898
0.13922
0.134032
0.127309
0.119222
0.110115
0.100436
0.0906622
0.0812454
0.0725938
0.065072
0.0590002
0.0546325
0.052112
0.0514216
0.052358
0.0545536
0.0575226
0.0607879
0.207657
0.157978
0.135057
0.128619
0.128968
0.131986
0.135996
0.140186
0.144122
0.147587
0.150486
0.152787
0.154469
0.155484
0.155739
0.155101
0.153425
0.150584
0.146496
0.141172
0.134736
0.12744
0.119657
0.111845
0.104497
0.0980762
0.0929393
0.0892796
0.0870929
0.0861829
0.0862078
0.0867347
0.087344
0.209451
0.148187
0.122517
0.116338
0.117905
0.122486
0.128173
0.134053
0.139629
0.144642
0.148972
0.152581
0.155469
0.157644
0.159097
0.1598
0.159717
0.1588
0.157007
0.154316
0.150754
0.146424
0.141512
0.136277
0.131019
0.126032
0.121555
0.117731
0.11458
0.112003
0.10981
0.107743
0.105531
0.211539
0.137535
0.108756
0.102486
0.105044
0.111129
0.118568
0.126273
0.13364
0.140344
0.146235
0.15127
0.155466
0.158862
0.161493
0.163384
0.164548
0.16499
0.164711
0.163707
0.161985
0.159577
0.156552
0.153021
0.149128
0.145029
0.140869
0.136746
0.132692
0.128684
0.124649
0.120456
0.115929
0.213655
0.128097
0.0956487
0.0883047
0.0910988
0.0983087
0.107405
0.116977
0.126174
0.134523
0.141811
0.14799
0.1531
0.157224
0.160451
0.162859
0.164507
0.165441
0.165695
0.165292
0.164253
0.162601
0.160372
0.157618
0.154405
0.150801
0.146871
0.14265
0.138152
0.133364
0.128247
0.122718
0.116644
0.215315
0.122909
0.0860674
0.0758314
0.0772613
0.0845693
0.0948613
0.106236
0.11741
0.127626
0.136534
0.144052
0.150247
0.155246
0.159191
0.162209
0.164396
0.165824
0.166543
0.166586
0.165976
0.164731
0.16287
0.160419
0.15741
0.153859
0.149791
0.145226
0.140169
0.134599
0.128466
0.12171
0.114245
0.215932
0.12477
0.083153
0.067758
0.0654591
0.0710507
0.0814647
0.0942032
0.107307
0.119498
0.130131
0.139018
0.146229
0.15195
0.156387
0.159728
0.162119
0.16367
0.164461
0.164542
0.163948
0.1627
0.160814
0.158295
0.155143
0.151347
0.146909
0.141829
0.136095
0.129681
0.122567
0.114806
0.106469
0.215111
0.134299
0.0888157
0.0665788
0.0580138
0.0594217
0.0681422
0.0812432
0.0959338
0.110141
0.122694
0.133164
0.141581
0.148179
0.153243
0.157028
0.159735
0.16151
0.162456
0.162639
0.162098
0.160855
0.158905
0.156213
0.152768
0.148563
0.143589
0.137828
0.131256
0.123882
0.115804
0.107295
0.0986501
0.21294
0.149028
0.102452
0.0734211
0.0569417
0.0516774
0.0563168
0.0681065
0.0835354
0.0995153
0.114047
0.126236
0.135953
0.143453
0.149103
0.153243
0.156141
0.157991
0.158926
0.159035
0.158363
0.156921
0.154676
0.151593
0.147659
0.142865
0.137199
0.130653
0.123254
0.115138
0.106605
0.0981398
0.0901688
0.209991
0.164813
0.121154
0.0873681
0.0630313
0.0494874
0.0476435
0.0559234
0.070657
0.0877696
0.104174
0.118223
0.129442
0.138024
0.144406
0.149024
0.152224
0.154252
0.155272
0.155382
0.154613
0.152948
0.150363
0.146837
0.142352
0.1369
0.130487
0.123169
0.115115
0.106656
0.0982668
0.0904952
0.0837107
0.206986
0.178212
0.141215
0.105962
0.0754859
0.0535329
0.0435341
0.0460397
0.0581608
0.0752572
0.0930828
0.108955
0.121796
0.131589
0.138783
0.143909
0.147404
0.149579
0.150631
0.150653
0.149665
0.14766
0.144625
0.140548
0.135426
0.12928
0.122185
0.114335
0.106079
0.0978932
0.0902926
0.0837266
0.0783908
0.204458
0.187742
0.159531
0.126291
0.092386
0.0632877
0.0446704
0.0396622
0.0471252
0.0626366
0.0810434
0.0984873
0.113022
0.124207
0.132399
0.138184
0.142095
0.144506
0.145639
0.145591
0.144399
0.142071
0.138604
0.134009
0.12832
0.121637
0.11416
0.106214
0.0982309
0.0906789
0.0839848
0.0784854
0.0743041
0.202616
0.193606
0.17426
0.145794
0.111423
0.0773113
0.0507984
0.0374641
0.0385308
0.0506829
0.0684271
0.0868282
0.102895
0.115537
0.124852
0.131411
0.135814
0.138479
0.139667
0.139514
0.138072
0.13536
0.131405
0.126272
0.120095
0.113095
0.105566
0.0978645
0.0903912
0.0835645
0.0777847
0.073401
0.0705721
0.201428
0.196805
0.184865
0.162627
0.130374
0.0936343
0.0607527
0.0393218
0.0330092
0.040273
0.055985
0.0744837
0.0917312
0.105813
0.116385
0.123869
0.128873
0.131877
0.133202
0.133029
0.131453
0.128523
0.124309
0.118957
0.112674
0.105704
0.09832
0.0908653
0.0837899
0.0776231
0.0728772
0.0699304
0.0688719
0.200743
0.19841
0.191753
0.175677
0.147119
0.109779
0.072339
0.0438973
0.0301942
0.0316351
0.0440323
0.0615101
0.0792186
0.0944155
0.106185
0.11465
0.120333
0.123736
0.125204
0.124956
0.123152
0.119934
0.115492
0.110046
0.103782
0.0968626
0.0895553
0.0823434
0.075912
0.0709692
0.0680224
0.0672434
0.0684435
0.200367
0.199139
0.1959
0.185359
0.161669
0.125627
0.0852991
0.050944
0.0301648
0.0253214
0.0335008
0.049015
0.0664609
0.0823466
0.0951429
0.104602
0.111085
0.115071
0.116913
0.116852
0.115079
0.111797
0.10724
0.101626
0.0951457
0.0880855
0.0809728
0.0745747
0.0696961
0.0669025
0.0663578
0.0678474
0.0709247
0.200177
0.199434
0.198108
0.191858
0.173315
0.140096
0.0986599
0.0598209
0.0326516
0.0212433
0.0241646
0.0363709
0.0523037
0.0679423
0.0811788
0.091305
0.0983952
0.102828
0.104962
0.105092
0.10346
0.100265
0.0956752
0.0898939
0.0832938
0.0765322
0.0704925
0.0660374
0.0637255
0.0636716
0.0656096
0.0690662
0.0735466
0.200094
0.199535
0.199088
0.195816
0.18221
0.153154
0.112578
0.0709805
0.0385189
0.0208089
0.0179744
0.0259465
0.0393155
0.0537271
0.066635
0.0769482
0.0844293
0.0892412
0.0916444
0.0918552
0.0900353
0.0864191
0.0814585
0.0758451
0.0703938
0.0658696
0.0628438
0.0616134
0.0621947
0.0643793
0.0678298
0.0721741
0.0770855
0.200072
0.199535
0.199283
0.197413
0.186849
0.160871
0.121445
0.0786395
0.0430737
0.0208834
0.0129354
0.0160119
0.0252249
0.0363979
0.0470202
0.0559805
0.0629438
0.0678456
0.0706016
0.0710945
0.0694284
0.0661821
0.0623402
0.0589149
0.056587
0.0556246
0.0560278
0.0576948
0.0604907
0.0642418
0.0687263
0.0736974
0.0789357
0.200088
0.19947
0.198986
0.197596
0.18929
0.166813
0.130214
0.0881118
0.0508494
0.0249352
0.0119531
0.00965057
0.0139241
0.0209523
0.0283154
0.0349093
0.0403056
0.0441951
0.0463004
0.0467173
0.0461632
0.0456887
0.0460626
0.0474279
0.0494869
0.0519223
0.0546473
0.0577684
0.061414
0.0656094
0.0702554
0.0751868
0.0802439
0.200132
0.199306
0.198127
0.195087
0.183908
0.158354
0.120512
0.0797992
0.0452678
0.0213833
0.00847117
0.00433255
0.00570287
0.00961435
0.0141912
0.0185834
0.0224495
0.0255786
0.0279454
0.0299245
0.0321632
0.035102
0.0386551
0.0423806
0.0459051
0.0491836
0.0524409
0.0559551
0.059888
0.0642429
0.0689056
0.0737259
0.0785744
0.200228
0.198933
0.195757
0.188271
0.172003
0.144882
0.110445
0.0752245
0.0448689
0.022564
0.0090555
0.0030974
0.00224573
0.00398087
0.00656993
0.00921946
0.0117835
0.0144688
0.0176317
0.0215505
0.0261933
0.0311666
0.0359273
0.0400991
0.0436473
0.0468208
0.0499592
0.0533217
0.057016
0.0610172
0.0652156
0.0694927
0.0737523
0.200602
0.197654
0.188577
0.17076
0.144682
0.113819
0.0821495
0.0529766
0.0291926
0.0127075
0.0038124
0.000537606
0.000284523
0.00143058
0.0032659
0.00549059
0.00801306
0.0108719
0.0141248
0.0177341
0.0215189
0.0252106
0.0285773
0.0315361
0.0341812
0.0367177
0.039355
0.0422285
0.0453783
0.0487694
0.0523138
0.0559189
0.059503
0.201425
0.193176
0.177111
0.144933
0.102477
0.0681576
0.0433067
0.0254032
0.0129366
0.00525185
0.00138508
0.00021067
0.0001218
0.00038695
0.00102985
0.0021522
0.00376839
0.00581424
0.00816102
0.0106453
0.0131055
0.0154202
0.0175445
0.0195225
0.0214596
0.0234634
0.0255903
0.0278365
0.030168
0.0325521
0.0349587
0.0373667
0.0397448
0.205908
0.175184
0.128841
0.0801668
0.0429801
0.0221257
0.0118627
0.00700356
0.0046326
0.00336365
0.00260316
0.00209295
0.00171822
0.00142293
0.00118226
0.000985415
0.000826889
0.000702284
0.000607373
0.000538392
0.000492595
0.000468935
0.000469006
0.000498566
0.000570199
0.000707621
0.000951477
0.00136407
0.00202704
0.00302471
0.00441561
0.0061974
0.00833476
0.210294
0.150665
0.104378
0.0763559
0.0594964
0.0487541
0.0414104
0.0361039
0.0320898
0.0289532
0.0264217
0.0243321
0.0225615
0.0210292
0.0196843
0.0184904
0.0174201
0.0164535
0.0155753
0.0147727
0.014035
0.0133528
0.012718
0.0121234
0.011563
0.0110318
0.0105262
0.0100434
0.00958227
0.00914256
0.00872429
0.00833131
0.00795317
0.240233
0.000536192
0.038585
0.000197118
3.14328e-05
0.00119906
0.000529297
0.0043628
0.00167536
0.0161095
0.00267176
0.000672958
0.00115376
0.000919108
0.000709922
0.000714553
0.000788215
0.000837989
0.000872234
0.000904894
0.000932892
0.000951436
0.000959255
0.000956564
0.000944132
0.000923336
0.000895508
0.000861276
0.000820581
0.000773241
0.000719422
0.000660484
0.000598188
0.200086
0.199967
0.199812
0.19967
0.199543
0.199424
0.199308
0.199189
0.199065
0.198932
0.198789
0.198635
0.198469
0.19829
0.198098
0.197894
0.197676
0.197446
0.197203
0.196948
0.196681
0.196402
0.196111
0.195809
0.195496
0.195174
0.194842
0.194499
0.194146
0.193779
0.193394
0.192992
0.192554
0.199879
0.19956
0.199206
0.198834
0.198456
0.198081
0.197712
0.197354
0.197009
0.196678
0.196363
0.196064
0.195782
0.195516
0.195267
0.195034
0.194818
0.194617
0.194431
0.194261
0.194104
0.193962
0.193832
0.193715
0.193613
0.193529
0.193459
0.193398
0.193345
0.193293
0.19324
0.193182
0.193117
0.103224
0.104416
0.100847
0.0951678
0.0946208
0.104962
0.121986
0.127489
0.103244
0.0613238
0.0238356
0.00430059
0.00118394
0.00538455
0.00376435
0.0126436
0.0552071
0.0826007
0.0778122
0.0742244
0.0770889
0.0813909
0.0855479
0.0885808
0.0902156
0.0911327
0.0917083
0.090276
0.0845438
0.0787405
0.0919078
0.153183
0.207434
0.193326
0.136713
0.0799697
0.040791
0.0199669
0.0125939
0.0133248
0.017724
0.0228899
0.0278336
0.033071
0.0394255
0.046996
0.0549756
0.0622249
0.0679263
0.0717604
0.0736241
0.0733214
0.0701398
0.0642454
0.0521447
0.026946
0.028132
0.105319
0.213807
0.303861
0.371552
0.42313
0.458001
0.465481
0.444881
0.407868
0.317849
0.176207
0.0650638
0.029886
0.0467281
0.0791036
0.107507
0.125876
0.134598
0.13682
0.136017
0.134491
0.13307
0.131518
0.128994
0.124633
0.118849
0.113992
0.111997
0.11183
0.109951
0.102637
0.0893631
0.07413
0.0596945
0.0437137
0.0277712
0.0154085
0.00946354
0.0109403
0.0174163
0.0241986
0.0259933
0.0251546
0.179496
0.176793
0.174622
0.172583
0.168347
0.157993
0.135352
0.0977231
0.0562128
0.022133
0.00464061
0.00072571
0.00317097
0.00743702
0.00609583
0.00783642
0.0437079
0.0797325
0.0802684
0.0750576
0.0770429
0.081025
0.0847197
0.0872116
0.088396
0.0889167
0.0885682
0.0853092
0.0791125
0.0822239
0.129707
0.225119
0.269757
0.226539
0.147274
0.0796485
0.0381149
0.018966
0.0147702
0.0189657
0.0260745
0.0323458
0.0366857
0.040382
0.0453893
0.0525388
0.0609991
0.0690919
0.0754683
0.0796243
0.0815907
0.0814072
0.0785541
0.0727443
0.0624227
0.0379262
0.0232938
0.0798933
0.186455
0.281529
0.350696
0.399944
0.431244
0.435971
0.420944
0.382688
0.279055
0.13961
0.048686
0.0300721
0.0517811
0.0828651
0.109057
0.125871
0.1337
0.135507
0.134616
0.133157
0.131795
0.130198
0.127564
0.123234
0.117694
0.112886
0.110369
0.109313
0.106563
0.0983984
0.083867
0.0668312
0.0510995
0.0355309
0.0213032
0.0110756
0.00714242
0.0102239
0.0175735
0.0242495
0.0254964
0.0240699
0.061694
0.0615813
0.0615632
0.0611195
0.0583862
0.0501025
0.0354163
0.0202903
0.00795843
0.000628046
0.000384499
0.00260955
0.00526285
0.00836404
0.00788626
0.00523851
0.0319772
0.0735026
0.0821042
0.0760731
0.0766525
0.0802387
0.0834902
0.08549
0.0862294
0.0861406
0.0845772
0.0800144
0.0773957
0.101832
0.196138
0.30763
0.326826
0.252712
0.153736
0.0778381
0.0355746
0.0190643
0.0185481
0.0263417
0.0361285
0.0434006
0.0468124
0.0482506
0.0508864
0.0566496
0.0650499
0.0739573
0.0812952
0.0861121
0.0884383
0.0885498
0.086246
0.0809037
0.0721279
0.050837
0.0252664
0.0564998
0.154016
0.254201
0.327317
0.376137
0.404179
0.407819
0.397157
0.349059
0.231715
0.103041
0.0364814
0.0326838
0.0570863
0.0862616
0.110368
0.125754
0.132701
0.134085
0.133113
0.131745
0.130476
0.128879
0.126188
0.121885
0.116478
0.111618
0.108611
0.10679
0.103334
0.0945481
0.0790522
0.0604679
0.0435071
0.0283113
0.0157293
0.00760077
0.00568083
0.0103061
0.0184255
0.0251351
0.0259912
0.0238145
0.00524922
0.00493795
0.00461736
0.00415042
0.00341848
0.000848072
0.00611762
0.00035227
0.000786035
0.000977818
0.00193557
0.00425057
0.0067103
0.00906848
0.00942534
0.00468552
0.0214228
0.0640915
0.0824815
0.0773773
0.0760191
0.079004
0.0818584
0.0834127
0.0836704
0.0827838
0.0801001
0.0761126
0.0841743
0.144559
0.280837
0.387141
0.373814
0.269905
0.155012
0.0743955
0.0333419
0.0204758
0.0240691
0.0354065
0.0476067
0.0557252
0.0581192
0.0569081
0.0562679
0.0594856
0.0669308
0.0763497
0.0848605
0.0907481
0.0937841
0.0944137
0.0928183
0.0883415
0.0809166
0.0641709
0.0340454
0.0390614
0.117779
0.219851
0.29919
0.350377
0.376726
0.380919
0.369114
0.303207
0.178048
0.0706119
0.0299961
0.0374055
0.0622221
0.0892038
0.111475
0.125535
0.131588
0.132536
0.131499
0.13024
0.12908
0.127509
0.124792
0.120515
0.115187
0.110216
0.106707
0.104126
0.0999802
0.0907052
0.074605
0.0549493
0.0370244
0.0221546
0.0110021
0.00479448
0.0048078
0.0108399
0.0194511
0.0258088
0.0260258
0.0231651
0.00180442
0.00163452
0.00143533
0.00120852
0.000917751
0.00067412
0.000386868
0.00016551
0.000470316
0.00165552
0.0037184
0.00638392
0.00875675
0.010367
0.0108859
0.00564685
0.0130427
0.0521842
0.0804407
0.0789344
0.075415
0.0773637
0.0798525
0.0810046
0.080737
0.0790503
0.0759824
0.0762094
0.104579
0.209389
0.368873
0.455736
0.40708
0.276795
0.150962
0.069424
0.0316209
0.0233479
0.031341
0.0459551
0.0600643
0.0687598
0.0702291
0.0664143
0.0619942
0.061582
0.0669072
0.0761568
0.0858152
0.0931506
0.0973133
0.0987319
0.0979483
0.0946049
0.0884946
0.0763853
0.0480732
0.0314446
0.0816707
0.177277
0.262917
0.319342
0.346651
0.352016
0.329784
0.243042
0.123238
0.0463978
0.0293015
0.0431873
0.066766
0.0917414
0.112461
0.125217
0.130325
0.130826
0.129741
0.128604
0.127556
0.126014
0.123275
0.119003
0.113683
0.108528
0.104486
0.101139
0.0962701
0.0864771
0.0699071
0.0495902
0.0311995
0.0169365
0.00719694
0.0027346
0.00442954
0.0115436
0.0203411
0.0262724
0.0259312
0.0224466
0.000418953
0.000471991
0.000519967
0.000569446
0.000639168
0.000770025
0.00103335
0.00154169
0.00249209
0.00417788
0.0067226
0.00967858
0.0119001
0.012569
0.0124571
0.00763302
0.00761728
0.0390749
0.0750472
0.0803115
0.0752387
0.0754802
0.0775293
0.0783413
0.0775756
0.0754109
0.0735342
0.0832418
0.141143
0.285578
0.448354
0.506988
0.423229
0.272573
0.141952
0.0633051
0.0306932
0.0278346
0.0403157
0.0577342
0.0730331
0.0818645
0.0825425
0.0765556
0.0684346
0.063711
0.065719
0.0737526
0.0841481
0.0931242
0.0988335
0.101363
0.10149
0.0993591
0.0946569
0.0863297
0.064276
0.0355498
0.0525388
0.12844
0.215008
0.277485
0.30859
0.312501
0.270939
0.171917
0.0755834
0.0332843
0.0331345
0.0488555
0.0705511
0.0940269
0.113384
0.124758
0.128855
0.128913
0.127798
0.126787
0.125839
0.124317
0.121544
0.117244
0.111865
0.106462
0.101873
0.0977902
0.0922495
0.0820096
0.0651482
0.0445462
0.0261361
0.0127046
0.00435178
0.00146798
0.00457964
0.0124657
0.0211601
0.0263741
0.0253233
0.0212988
0.00358196
0.00332963
0.00309833
0.00292281
0.00284904
0.00294316
0.00331807
0.00418358
0.00584093
0.00847658
0.0117533
0.0146944
0.0161625
0.0155478
0.0141995
0.0100087
0.00518057
0.0262416
0.0656929
0.0804821
0.0758392
0.0737153
0.0749956
0.0755452
0.0744724
0.0725321
0.0742195
0.0989384
0.190089
0.359002
0.509911
0.534714
0.419858
0.257435
0.128819
0.0566483
0.0308796
0.0340483
0.0508796
0.0703892
0.0859684
0.0943305
0.0942951
0.0868267
0.0756949
0.0666294
0.0643984
0.0699497
0.0802156
0.0906768
0.0982481
0.102251
0.103435
0.102455
0.0992245
0.0935871
0.0790967
0.0494761
0.0379793
0.0811852
0.155581
0.219248
0.253572
0.249851
0.19075
0.101756
0.0438346
0.0311514
0.0390315
0.0534856
0.0737239
0.0962569
0.114241
0.124076
0.127103
0.126732
0.125605
0.124709
0.123838
0.122311
0.119487
0.115125
0.109635
0.103942
0.0988137
0.0940615
0.0879604
0.0774278
0.060489
0.0399008
0.0217928
0.00935073
0.00236291
0.000913551
0.00517932
0.0135275
0.0218747
0.0263239
0.024654
0.020159
0.00478191
0.00489222
0.00503501
0.00524945
0.00562352
0.00631343
0.00755452
0.00961051
0.01259
0.0161619
0.0194217
0.0212353
0.0209803
0.0187478
0.0160271
0.0123887
0.00541355
0.0153911
0.0525867
0.0778351
0.0771303
0.0726046
0.0724453
0.0728099
0.0718034
0.0710486
0.0788783
0.122291
0.241624
0.417326
0.545105
0.534028
0.396466
0.232793
0.112783
0.0501738
0.0325875
0.0421368
0.0628356
0.0834463
0.0982723
0.105488
0.104746
0.096586
0.0835897
0.0708565
0.0640056
0.0658498
0.0747254
0.0860479
0.095548
0.101373
0.103849
0.103945
0.102104
0.0983682
0.0900414
0.0675759
0.0413277
0.0484981
0.0943803
0.14663
0.176387
0.162023
0.104809
0.0505348
0.0321532
0.0362089
0.0443326
0.0568416
0.0766864
0.098568
0.114944
0.123047
0.12497
0.124197
0.123063
0.122257
0.121425
0.119864
0.116965
0.112515
0.106881
0.100883
0.0952485
0.0899126
0.0833893
0.0727647
0.0560133
0.0357317
0.0181691
0.00678664
0.00109446
0.000929542
0.0061396
0.0147206
0.0225205
0.026054
0.0237282
0.018844
0.00698079
0.0079776
0.00917707
0.0106152
0.0123855
0.0146262
0.0174514
0.0208097
0.0243081
0.0271617
0.028445
0.0275917
0.0248678
0.0211144
0.0175609
0.0145301
0.00770403
0.00816788
0.0372102
0.0705986
0.0780917
0.0727988
0.0704143
0.0703375
0.0698387
0.0712375
0.0870146
0.14868
0.284118
0.450757
0.547319
0.503278
0.355254
0.201236
0.0953244
0.0446601
0.0362734
0.0521891
0.0758433
0.096318
0.109364
0.114843
0.113392
0.105276
0.0917314
0.0765421
0.0653534
0.0626058
0.068645
0.079721
0.0908218
0.0987028
0.102783
0.103999
0.103338
0.10107
0.0965686
0.0833742
0.0576699
0.0402477
0.0509276
0.077826
0.0927466
0.0753568
0.0437401
0.0305261
0.036187
0.042695
0.0475063
0.0594572
0.0798762
0.100945
0.115317
0.121514
0.122331
0.121178
0.120023
0.119266
0.118432
0.116809
0.113821
0.109271
0.103485
0.0972003
0.0911224
0.0853179
0.0785415
0.0680592
0.0517784
0.0320551
0.0151823
0.00486649
0.000389238
0.00137453
0.00734819
0.0159362
0.0230058
0.0256104
0.0227435
0.0175714
0.0165508
0.0196199
0.0228061
0.0259782
0.0290826
0.0320864
0.0348644
0.0370842
0.038195
0.0376217
0.0351174
0.0310263
0.0262791
0.0219508
0.0186819
0.0165846
0.0114584
0.00572723
0.0224114
0.0578473
0.0765799
0.0744155
0.0696494
0.0683982
0.0686005
0.0727541
0.0965392
0.17099
0.307862
0.452544
0.513993
0.445574
0.301349
0.166093
0.0780387
0.0409452
0.0424
0.0641578
0.0893892
0.108353
0.118773
0.122181
0.120085
0.112584
0.0996707
0.0834636
0.0688237
0.061179
0.0630591
0.0724197
0.0843025
0.0942021
0.10021
0.102757
0.103118
0.102009
0.0995657
0.0932472
0.0764853
0.0532678
0.0397319
0.0396165
0.0385162
0.0292012
0.0267884
0.0366737
0.0454142
0.0462617
0.0488298
0.0622532
0.0835154
0.10319
0.115121
0.119291
0.119015
0.117487
0.116279
0.115525
0.114654
0.112955
0.109882
0.105247
0.0993359
0.0928198
0.0863954
0.0802621
0.0734215
0.0633406
0.0478404
0.0289197
0.0128
0.00348595
0.00012215
0.00215228
0.00876036
0.0171573
0.0233221
0.0249327
0.0215781
0.0162353
0.0375222
0.0421199
0.0461012
0.0491941
0.0512796
0.0522808
0.0520519
0.0503639
0.0470447
0.0422121
0.0364259
0.0305983
0.0256885
0.0223499
0.0205017
0.0196307
0.0166387
0.00843454
0.0118305
0.0408854
0.0696945
0.0760298
0.0708647
0.0675223
0.0678891
0.0746252
0.104214
0.182437
0.307111
0.420918
0.448843
0.36916
0.241901
0.130785
0.0624827
0.0399562
0.0513919
0.0777784
0.102786
0.11892
0.12622
0.127574
0.125005
0.118468
0.107012
0.0911306
0.0743272
0.0621606
0.0590002
0.0650699
0.0764362
0.0878862
0.0960167
0.100229
0.101653
0.101448
0.100154
0.0973717
0.0893946
0.0731205
0.0544872
0.0409134
0.0328518
0.0326238
0.0417491
0.0509332
0.0507346
0.0461618
0.0498139
0.0659451
0.0874822
0.104963
0.114074
0.116154
0.114796
0.112872
0.111567
0.110782
0.109863
0.108103
0.10498
0.100312
0.0943485
0.0877026
0.081068
0.0747689
0.0680602
0.0586398
0.0442318
0.0263492
0.0109814
0.00254099
0.000186692
0.00320792
0.0103321
0.0182938
0.0233675
0.024002
0.0203129
0.0149499
0.0643309
0.0674986
0.0693548
0.0696588
0.0683383
0.0653888
0.0608492
0.0548935
0.0479637
0.040804
0.0343274
0.029363
0.026377
0.0253118
0.0254829
0.0259195
0.0245231
0.0164137
0.00899203
0.0241054
0.0556999
0.0741379
0.0736938
0.0686169
0.0676772
0.0755464
0.10684
0.179266
0.281529
0.360757
0.362324
0.28587
0.183702
0.098236
0.0501208
0.0427372
0.0634923
0.0924597
0.11521
0.127512
0.131664
0.131319
0.128525
0.123077
0.113474
0.0989369
0.0813914
0.0656938
0.0572853
0.0587131
0.0679382
0.0799404
0.090061
0.0962681
0.0990167
0.0996275
0.0990568
0.0976859
0.0945492
0.0869189
0.0747368
0.0624145
0.0555192
0.0567511
0.0604904
0.0583405
0.0496728
0.0444816
0.0519642
0.0706731
0.0913564
0.105849
0.111867
0.111825
0.109379
0.107029
0.105596
0.104777
0.103843
0.102082
0.0989887
0.094387
0.0884955
0.0818741
0.0752065
0.0689215
0.0625237
0.0539842
0.0409535
0.0243483
0.00971066
0.00195048
0.000511767
0.00453507
0.0120387
0.0192836
0.0230945
0.0227785
0.0188882
0.0136637
0.0877014
0.0871226
0.0851264
0.0814886
0.0761697
0.0693319
0.0613982
0.0530696
0.0452189
0.0386878
0.0341047
0.031774
0.0315971
0.0330547
0.0352471
0.0369025
0.036393
0.0295203
0.0160029
0.014142
0.0369256
0.0643671
0.074903
0.0721332
0.0689462
0.0749315
0.102609
0.161613
0.23612
0.282891
0.269377
0.207396
0.132049
0.0707957
0.042651
0.0503634
0.0785053
0.107218
0.12582
0.133862
0.135315
0.133833
0.131058
0.126631
0.118894
0.106304
0.0893188
0.0714948
0.0583805
0.0543633
0.059786
0.0708472
0.0823163
0.0906478
0.0950921
0.0966693
0.0966444
0.0957871
0.0943005
0.0913466
0.085926
0.0793287
0.0747189
0.0720184
0.0665741
0.0559076
0.0451362
0.043802
0.0559381
0.0760196
0.0945535
0.105398
0.108147
0.105974
0.102437
0.0996503
0.0981057
0.097308
0.0964509
0.0948038
0.0918742
0.0874915
0.081851
0.0754627
0.0689828
0.062905
0.0569599
0.0494366
0.0379879
0.0228852
0.0089825
0.00165126
0.00108836
0.00617069
0.0138129
0.0199883
0.0224017
0.0212429
0.017341
0.0124279
0.102567
0.0981854
0.0924068
0.0851207
0.0765504
0.0673057
0.0582812
0.0503951
0.0443255
0.0404178
0.0387487
0.0391807
0.0413243
0.0445196
0.0479505
0.0505576
0.050973
0.0461802
0.0320751
0.0169806
0.0214474
0.0460338
0.0681626
0.0749695
0.0729505
0.0749424
0.0936546
0.134252
0.180735
0.202895
0.186836
0.143581
0.09068
0.0504753
0.0420663
0.0635172
0.0954954
0.120747
0.133948
0.138029
0.137569
0.135532
0.132934
0.129328
0.123214
0.112779
0.0973557
0.0789462
0.0623189
0.052822
0.0531152
0.0614553
0.0730414
0.0831927
0.0896267
0.0925038
0.0930708
0.0924223
0.0911636
0.0893841
0.0866797
0.0829719
0.0784466
0.0717474
0.0611097
0.0485482
0.0411083
0.0455671
0.0614814
0.0812436
0.0964283
0.103129
0.102525
0.0982651
0.0936964
0.0905421
0.088981
0.088335
0.0877092
0.0863462
0.083762
0.079799
0.0746377
0.0687398
0.0627093
0.0570429
0.0516408
0.0451388
0.035327
0.0218926
0.00879904
0.00164266
0.00200669
0.00814537
0.0155311
0.0202951
0.0212838
0.0194352
0.0156765
0.0112144
0.110196
0.102606
0.0937373
0.0838819
0.0737971
0.064494
0.0568482
0.0513215
0.0479914
0.0467729
0.0475471
0.0500775
0.0538711
0.0581882
0.0622326
0.0652454
0.0663433
0.0637739
0.0531575
0.0336093
0.0196996
0.0274513
0.0501559
0.0687391
0.0755913
0.0777394
0.0869947
0.108526
0.131649
0.140137
0.128481
0.0976477
0.0594789
0.0391646
0.0504241
0.0817937
0.112623
0.131698
0.139338
0.140396
0.138894
0.136733
0.134345
0.131308
0.12646
0.118085
0.10483
0.0872358
0.0686928
0.0544974
0.0490151
0.0529326
0.0629158
0.0739735
0.0823633
0.0869002
0.0883099
0.0878314
0.0863525
0.0842573
0.0814799
0.077603
0.0717861
0.0629286
0.0514402
0.0415659
0.0399076
0.0498801
0.0677887
0.0854767
0.0963021
0.0985388
0.0946386
0.0884888
0.083107
0.0797899
0.0784074
0.0781069
0.0779096
0.0770331
0.0750062
0.0716926
0.0672686
0.0621534
0.0568627
0.0518202
0.0470036
0.0413812
0.033043
0.0213014
0.00915703
0.00210029
0.00350156
0.0104058
0.0169732
0.0200762
0.0197479
0.0174147
0.0139415
0.0100387
0.108967
0.0992252
0.0887669
0.0784727
0.0693863
0.0622611
0.0573344
0.0544883
0.0535767
0.0545612
0.0573612
0.0616369
0.066759
0.07197
0.0765432
0.0798674
0.0814124
0.0804632
0.074353
0.0584615
0.0361222
0.0232191
0.0302231
0.0491327
0.065846
0.0755528
0.0829808
0.0924806
0.100989
0.102379
0.0898626
0.0619718
0.0381958
0.0407141
0.0686608
0.102833
0.12743
0.139178
0.142279
0.141549
0.139688
0.137599
0.135357
0.132657
0.128715
0.122116
0.111244
0.0955133
0.076735
0.0592864
0.0482728
0.0465757
0.0530598
0.0634894
0.0732321
0.0795735
0.0821766
0.0820343
0.0802467
0.0774374
0.0736936
0.0686379
0.0615678
0.0522497
0.0426341
0.0376139
0.0420291
0.0560161
0.073803
0.0877799
0.0934722
0.091184
0.0843379
0.076795
0.0710723
0.0679646
0.0670335
0.0672893
0.0677078
0.0675056
0.0662374
0.0637951
0.0603688
0.0563284
0.0520662
0.0478531
0.0436278
0.0386211
0.0313554
0.0210974
0.0100476
0.00337232
0.00575682
0.0127246
0.0179283
0.0193483
0.0179502
0.0153355
0.0122116
0.00889558
0.10499
0.0939957
0.0833816
0.0742354
0.0672738
0.0626396
0.0601145
0.0594875
0.0607104
0.0637452
0.0683227
0.0738706
0.0796788
0.0851479
0.0898271
0.0933361
0.0953073
0.0954329
0.0926868
0.0834542
0.0643171
0.041037
0.0272647
0.0298398
0.0428601
0.0569123
0.0675618
0.074326
0.0765243
0.0709137
0.0534357
0.0341689
0.033959
0.0587079
0.0938733
0.122356
0.137859
0.143231
0.143516
0.142053
0.140173
0.138155
0.135963
0.133435
0.130102
0.124912
0.116309
0.103035
0.0854761
0.0665729
0.0511473
0.0435098
0.0448872
0.0527604
0.0625695
0.0703673
0.0744025
0.0749142
0.0729583
0.0694266
0.0646763
0.0586022
0.0510393
0.0428043
0.0367941
0.0373706
0.0469365
0.062824
0.0782997
0.0871591
0.0873274
0.0809306
0.0719918
0.0639857
0.0586819
0.0562812
0.0560729
0.0570246
0.0581545
0.0587314
0.058353
0.0569549
0.0547389
0.0520119
0.0490103
0.0457841
0.0421224
0.0374095
0.0306518
0.0214114
0.0114888
0.00570417
0.00858137
0.0147023
0.0182207
0.0181632
0.0160186
0.0133085
0.0105571
0.00780512
0.0967523
0.0863138
0.0774368
0.0707876
0.0664598
0.0642205
0.0638765