/*--------------------------------*- C++ -*----------------------------------*\
  =========                 |
  \\      /  F ield         | OpenFOAM: The Open Source CFD Toolbox
   \\    /   O peration     | Website:  https://openfoam.org
    \\  /    A nd           | Version:  10
     \\/     M anipulation  |
\*---------------------------------------------------------------------------*/
FoamFile
{
    format      ascii;
    class       volScalarField;
    location    "0.15";
    object      nut;
}
// * * * * * * * * * * * * * * * * * * * * * * * * * * * * * * * * * * * * * //

dimensions      [0 2 -1 0 0 0 0];

internalField   nonuniform List<scalar> 
6820
(
0
0
0
0
0
0
0
0
0
0
0
0
0
0
0
0
0
0
0
0
0
0
0
0
0
0
0
0
0
0
0
0
1.18198e-08
0
0
0
0
0
0
0
0
0
0
0
0
0
0
0
0
0
0
0
0
0
0
0
0
0
0
0
0
0
0
0
0
0
0
0
0
0
0
0
0
0
0
0
0
0
0
0
0
0
0
0
0
0
0
0
0
0
0
0
0
0
0
0
0
0
0
0
0
0
0
0
0
0
0
0
0
0
0
0
0
0
0
0
0
0
0
0
0
0
0
0
0
0
0
0
0
0
0
0
1.3978e-05
0
0
0
0
0
0
0
0
0
0
0
0
0
0
0
0
0
0
0
0
0
0
0
0
0
0
0
0
0
0
0
0
4.71219e-06
3.38942e-05
2.82296e-05
1.8818e-05
9.96059e-06
4.06784e-06
6.00372e-07
0
0
0
0
0
0
0
0
0
0
0
0
0
0
0
0
0
0
0
0
0
0
0
0
0
0
0
3.079e-06
8.23878e-06
1.36964e-05
1.42368e-05
1.32134e-05
1.185e-05
1.00808e-05
8.12812e-06
6.21954e-06
4.44651e-06
2.8593e-06
1.49193e-06
3.56495e-07
0
0
0
0
0
0
0
0
0
0
0
0
0
0
0
0
0
0
0
0
0
0
0
2.51174e-06
4.14024e-06
4.71357e-06
4.31697e-06
3.32293e-06
2.12183e-06
9.12376e-07
0
0
0
0
0
0
0
0
0
0
0
0
0
0
0
0
0
0
0
0
0
0
0
0
0
0
0
0
0
0
0
0
0
0
0
0
0
0
0
0
0
0
0
0
0
0
0
0
0
0
0
0
0
0
0
0
0
0
0
0
0
0
0
0
0
0
0
0
0
0
0
0
0
0
0
0
0
0
0
0
0
0
0
0
0
0
0
0
0
0
0
0
0
0
0
0
0
0
0
0
0
0
0
0
0
0
0
0
0
0
0
0
0
0
0
0
0
0
0
0
0
0
0
0
0
0
0
0
0
0
0
0
0
0
0
0
0
0
0
0
0
0
0
0
0
0
0
0
0
0
0
0
0
4.74646e-07
0
0
0
0
0
0
0
0
0
0
0
0
0
0
0
0
0
0
0
0
0
0
0
0
0
0
0
0
0
0
0
3.68402e-07
1.12841e-06
0
0
0
0
0
0
0
0
0
0
0
0
0
0
0
0
0
0
0
0
0
0
0
0
0
0
0
0
0
0
2.4493e-07
6.37169e-07
1.63343e-06
0
0
0
0
0
0
0
0
0
0
0
0
0
0
0
0
0
0
0
0
0
0
0
0
0
0
0
0
2.11415e-07
3.98451e-07
5.2677e-07
8.77119e-07
2.04379e-06
0
0
0
0
0
0
0
0
0
0
0
0
0
0
0
0
0
0
0
0
0
0
0
0
0
0
0
1.82085e-07
3.69491e-07
4.48715e-07
4.73561e-07
7.8984e-07
2.11143e-06
0
0
0
0
0
0
0
0
0
0
0
0
0
0
0
0
0
0
0
0
0
0
0
0
0
1.50253e-07
4.06261e-07
5.49706e-07
5.86262e-07
5.16611e-07
4.0505e-07
6.57228e-07
2.07872e-06
0
0
0
0
0
0
0
0
0
0
0
0
0
0
0
0
0
0
0
0
0
0
0
0
9.50765e-08
3.42873e-07
4.74763e-07
4.93423e-07
4.08046e-07
2.23652e-07
1.40757e-08
2.28422e-07
1.73935e-06
0
0
0
0
0
0
0
0
0
0
0
0
0
0
0
0
0
0
0
0
0
0
0
3.01099e-07
5.16653e-07
6.11269e-07
5.90163e-07
4.60407e-07
2.35961e-07
0
0
0
1.35312e-06
0
0
0
0
0
0
0
0
0
0
0
0
0
0
0
0
0
0
0
0
0
0
2.61124e-07
4.58705e-07
5.33296e-07
4.89615e-07
3.37053e-07
8.74549e-08
0
0
0
0
7.82163e-07
0
0
0
0
0
0
0
0
0
0
0
0
0
0
0
0
0
0
0
0
7.0996e-08
3.72937e-07
5.46436e-07
5.93108e-07
5.18476e-07
3.32081e-07
4.8425e-08
0
0
0
0
0
2.03773e-07
0
0
0
0
0
0
0
0
0
0
0
0
0
0
0
0
0
0
0
1.05112e-07
3.81457e-07
5.28496e-07
5.47679e-07
4.44587e-07
2.29448e-07
0
0
0
0
0
0
0
0
0
0
0
0
0
0
0
0
0
0
0
0
0
0
0
0
0
0
1.27919e-07
3.83442e-07
5.09496e-07
5.06918e-07
3.80958e-07
1.41684e-07
0
0
0
0
0
0
0
0
0
0
0
0
0
0
0
0
0
0
0
0
0
0
0
0
0
0
2.53363e-07
4.73999e-07
5.65208e-07
5.27737e-07
3.66805e-07
9.26545e-08
0
0
0
0
0
0
0
0
0
0
0
0
0
0
0
0
0
0
0
0
0
0
0
0
0
0
1.46916e-07
3.36533e-07
4.03375e-07
3.46344e-07
1.69417e-07
0
0
0
0
0
0
0
0
0
0
0
0
0
6.32157e-08
0
0
0
0
0
0
0
0
0
0
0
0
1.63173e-07
4.18598e-07
5.61009e-07
5.81595e-07
4.78983e-07
2.57317e-07
0
0
0
0
0
0
0
0
0
0
0
0
0
0
2.08686e-07
0
0
0
0
0
0
0
0
0
0
0
0
7.23288e-08
1.64118e-07
1.54428e-07
3.689e-08
0
0
0
0
0
0
0
0
0
0
0
0
0
0
0
0
2.80226e-07
0
0
0
0
0
0
0
0
0
1.74188e-07
3.59372e-07
4.94174e-07
5.40341e-07
4.79567e-07
3.07494e-07
2.77753e-08
0
0
0
0
0
0
0
0
0
0
0
0
0
0
0
0
2.48874e-07
0
0
0
0
0
0
0
0
0
0
0
0
0
0
0
0
0
0
0
0
0
0
0
0
0
0
0
0
0
0
0
1.47789e-07
3.13439e-07
2.84472e-07
2.09504e-07
1.82665e-07
1.62432e-07
1.45269e-07
1.29031e-07
9.64828e-08
5.33542e-08
1.70413e-08
0
0
0
0
0
0
0
0
0
0
0
0
0
0
0
0
0
0
0
0
0
0
2.51085e-07
5.82432e-08
0
0
0
0
0
0
0
0
0
0
0
0
0
0
0
0
0
0
0
0
0
0
0
0
0
0
0
0
0
0
0
7.00481e-07
3.38392e-07
0
0
0
0
0
0
0
0
0
0
0
0
0
0
0
0
0
0
0
0
0
0
0
0
0
0
0
0
0
0
0
5.33606e-08
0
0
0
0
0
0
0
0
0
0
0
0
0
0
0
0
0
0
0
0
0
0
0
0
0
0
0
0
0
0
0
0
1.00407e-06
0
0
0
0
0
0
0
0
0
0
0
0
0
0
0
0
0
0
0
0
0
0
0
0
0
0
0
0
0
0
0
0
0
0
0
0
0
0
0
0
0
0
0
0
0
0
0
0
0
0
0
0
0
0
0
0
0
0
0
0
0
0
0
0
0
0
0
0
0
2.82153e-05
2.31538e-05
1.64236e-05
1.2113e-05
9.54106e-06
7.95896e-06
6.91277e-06
6.15577e-06
5.56113e-06
5.05701e-06
4.60775e-06
4.19868e-06
3.82571e-06
3.48828e-06
3.18618e-06
2.91874e-06
2.68461e-06
2.48199e-06
2.30861e-06
2.1606e-06
2.02936e-06
1.89477e-06
1.71698e-06
1.43495e-06
9.91305e-07
3.87846e-07
0
0
0
0
0
0
0
0
0
0
0
0
0
0
0
2.66213e-08
1.41451e-07
2.45512e-07
3.39068e-07
4.22071e-07
4.9425e-07
5.5518e-07
6.04309e-07
6.41014e-07
6.64638e-07
6.74547e-07
6.70206e-07
6.51181e-07
6.17127e-07
5.67883e-07
5.03466e-07
4.24111e-07
3.30142e-07
2.21943e-07
9.96058e-08
0
4.38707e-08
0
0
0
0
0
0
0
0
0
0
0
0
0
0
0
0
0
0
0
0
0
4.51955e-11
6.49756e-10
1.17759e-09
1.61182e-09
1.93884e-09
2.14627e-09
2.22308e-09
2.15816e-09
1.94731e-09
1.57056e-09
1.05734e-09
2.47954e-08
0
0
0
0
0
0
0
0
0
0
0
0
0
0
0
0
0
0
0
0
0
0
3.20448e-10
8.4718e-09
1.56156e-08
2.15863e-08
2.61995e-08
2.9247e-08
3.04869e-08
2.96141e-08
2.62312e-08
1.89174e-08
1.31354e-08
0
0
0
0
0
0
0
0
0
0
0
0
0
0
0
0
0
0
0
0
0
0
0
7.54456e-09
1.48026e-08
2.08969e-08
2.56385e-08
2.88121e-08
3.01643e-08
2.93772e-08
2.58126e-08
1.82849e-08
0
0
0
0
0
0
0
1.31772e-05
2.82309e-05
1.46934e-05
8.51222e-06
3.36546e-06
1.60457e-06
3.03673e-06
2.37384e-06
4.2657e-06
7.5738e-06
6.52206e-06
5.09799e-06
5.02056e-06
5.53943e-06
6.03929e-06
6.19443e-06
5.65752e-06
4.22088e-06
2.32071e-06
1.77328e-06
5.38408e-06
2.81246e-05
2.49411e-05
1.79205e-05
1.74068e-05
1.43447e-05
7.8748e-06
3.89853e-07
0
0
0
0
0
6.49285e-06
1.04036e-05
1.24245e-05
1.35225e-05
1.43773e-05
1.50755e-05
1.54e-05
1.51599e-05
1.4323e-05
1.29816e-05
1.12754e-05
9.32568e-06
7.25159e-06
4.8576e-06
3.47728e-06
0
0
0
0
0
0
0
1.42767e-05
0
0
3.4154e-05
5.89214e-05
4.93537e-05
2.93338e-05
1.78152e-05
1.84109e-05
1.94338e-05
1.859e-05
1.6476e-05
1.38128e-05
1.11531e-05
8.73613e-06
6.64188e-06
5.03199e-06
4.31355e-06
5.2098e-06
8.64051e-06
1.50892e-05
2.33993e-05
3.08814e-05
3.55871e-05
3.68855e-05
3.43604e-05
2.77097e-05
1.73171e-05
4.42959e-06
0
0
0
0
0
2.48498e-06
3.46916e-06
2.71427e-05
1.83933e-05
0
0
0
0
0
0
0
1.54445e-05
1.5954e-05
8.75656e-06
3.86552e-06
1.46946e-06
2.83432e-06
3.92699e-06
3.35388e-06
3.69316e-06
7.58687e-06
7.36837e-06
5.71725e-06
5.30891e-06
5.65026e-06
5.88821e-06
5.66304e-06
4.7347e-06
3.10522e-06
1.39425e-06
5.80427e-07
0
0
4.65547e-05
3.88427e-05
3.54582e-05
2.81114e-05
1.72274e-05
5.71001e-06
0
0
0
0
1.01261e-06
7.12781e-06
1.19349e-05
1.43349e-05
1.53699e-05
1.60816e-05
1.67079e-05
1.7018e-05
1.67374e-05
1.57803e-05
1.42391e-05
1.228e-05
1.00264e-05
7.63605e-06
4.88145e-06
2.7555e-06
2.19724e-07
0
0
0
0
0
0
0
0
1.34171e-05
4.7652e-05
5.93377e-05
4.6271e-05
2.70783e-05
1.92125e-05
2.12382e-05
2.23757e-05
2.13954e-05
1.90586e-05
1.6247e-05
1.35627e-05
1.12378e-05
9.34115e-06
8.02451e-06
7.67147e-06
8.92359e-06
1.25057e-05
1.86543e-05
2.62655e-05
3.31214e-05
3.75357e-05
3.87706e-05
3.62153e-05
2.93915e-05
1.86747e-05
5.53816e-06
0
0
0
0
0
2.64481e-06
4.2043e-06
2.83922e-05
1.90681e-05
0
0
0
0
0
0
0
7.19966e-06
4.58801e-06
1.32879e-06
1.07065e-06
2.75946e-06
3.68396e-06
4.29268e-06
3.92132e-06
3.06466e-06
6.70799e-06
7.48845e-06
5.89744e-06
5.15501e-06
5.26383e-06
5.25898e-06
4.73367e-06
3.60307e-06
2.07309e-06
7.48781e-07
0
0
0
8.38893e-05
6.69796e-05
5.608e-05
4.34736e-05
2.81352e-05
1.23094e-05
7.42552e-07
0
0
0
2.44775e-06
7.97281e-06
1.3023e-05
1.56685e-05
1.65786e-05
1.69711e-05
1.73602e-05
1.76056e-05
1.73462e-05
1.63893e-05
1.47784e-05
1.26828e-05
1.02353e-05
7.60983e-06
4.64709e-06
1.80462e-06
2.11669e-07
0
0
0
0
0
0
0
0
2.47112e-05
5.04137e-05
5.45995e-05
4.03141e-05
2.40304e-05
2.06905e-05
2.3529e-05
2.45843e-05
2.34517e-05
2.09984e-05
1.81693e-05
1.55675e-05
1.34157e-05
1.17795e-05
1.07934e-05
1.07905e-05
1.23052e-05
1.58847e-05
2.15976e-05
2.84384e-05
3.459e-05
3.86168e-05
3.97482e-05
3.72371e-05
3.04343e-05
1.96718e-05
6.60615e-06
0
0
0
0
0
2.88154e-06
4.93036e-06
2.95595e-05
1.95756e-05
0
0
0
0
0
0
1.35729e-06
6.44813e-07
1.20184e-06
1.53321e-06
2.31161e-06
3.44272e-06
4.13813e-06
4.48172e-06
4.25985e-06
2.84205e-06
5.46454e-06
7.14792e-06
5.83451e-06
4.78834e-06
4.62854e-06
4.43133e-06
3.72042e-06
2.54665e-06
1.25779e-06
3.32448e-07
0
0
1.51548e-05
9.32649e-05
8.94533e-05
7.54787e-05
5.94315e-05
4.01586e-05
1.96777e-05
4.42017e-06
0
0
3.15141e-07
4.04947e-06
9.0891e-06
1.40525e-05
1.68254e-05
1.75785e-05
1.75396e-05
1.75341e-05
1.7623e-05
1.73981e-05
1.65195e-05
1.49284e-05
1.27687e-05
1.01868e-05
7.36147e-06
4.24261e-06
8.2551e-07
0
0
0
0
0
0
0
0
0
2.73579e-05
4.71246e-05
4.70316e-05
3.32492e-05
2.18983e-05
2.25008e-05
2.55299e-05
2.63984e-05
2.51361e-05
2.26371e-05
1.98556e-05
1.7382e-05
1.54355e-05
1.40801e-05
1.34293e-05
1.37577e-05
1.54894e-05
1.90122e-05
2.42704e-05
3.03606e-05
3.57972e-05
3.93758e-05
4.03459e-05
3.78871e-05
3.12133e-05
2.05484e-05
7.66629e-06
0
0
0
0
0
3.09993e-06
5.30985e-06
3.01359e-05
1.97437e-05
0
0
0
0
0
9.33319e-08
3.51034e-07
3.92407e-07
8.87649e-07
1.95435e-06
3.14469e-06
4.15495e-06
4.66953e-06
4.73155e-06
4.48263e-06
3.01271e-06
4.15354e-06
6.46108e-06
5.60564e-06
4.32258e-06
3.87e-06
3.52804e-06
2.74612e-06
1.64479e-06
6.41925e-07
5.17264e-08
0
0
2.97703e-05
9.1998e-05
0.000103099
9.23376e-05
7.5577e-05
5.29937e-05
2.71991e-05
7.75394e-06
1.00315e-07
2.09382e-07
2.49721e-06
5.89059e-06
1.04824e-05
1.51986e-05
1.79858e-05
1.85766e-05
1.80764e-05
1.75517e-05
1.7355e-05
1.71237e-05
1.63606e-05
1.48529e-05
1.26805e-05
9.99902e-06
6.98734e-06
3.70809e-06
0
0
0
0
0
0
0
0
0
0
2.52528e-05
4.03213e-05
3.79523e-05
2.66335e-05
2.15821e-05
2.45171e-05
2.73545e-05
2.80208e-05
2.66668e-05
2.41616e-05
2.14525e-05
1.91233e-05
1.73942e-05
1.6325e-05
1.60017e-05
1.66364e-05
1.85461e-05
2.19792e-05
2.67893e-05
3.21734e-05
3.69216e-05
4.00354e-05
4.08067e-05
3.83753e-05
3.18619e-05
2.13746e-05
8.7382e-06
0
0
0
0
0
3.23033e-06
5.49948e-06
3.04222e-05
1.97483e-05
0
0
0
0
0
2.70321e-07
6.75649e-07
1.2584e-06
2.06027e-06
3.07272e-06
4.15307e-06
5.00557e-06
5.32006e-06
5.08755e-06
4.65247e-06
3.3485e-06
3.0348e-06
5.48461e-06
5.20777e-06
3.79376e-06
3.03839e-06
2.57327e-06
1.81168e-06
8.56878e-07
1.26384e-07
0
0
3.2746e-06
3.73027e-05
9.07319e-05
0.000110887
0.000106489
9.14336e-05
6.59701e-05
3.3545e-05
9.71322e-06
2.17558e-06
2.63207e-06
4.83756e-06
7.97231e-06
1.21245e-05
1.64813e-05
1.91466e-05
1.95762e-05
1.86655e-05
1.75691e-05
1.69464e-05
1.66116e-05
1.59575e-05
1.45791e-05
1.24452e-05
9.70064e-06
6.52504e-06
3.06492e-06
0
0
0
0
0
0
0
0
0
0
2.0516e-05
3.15457e-05
2.85917e-05
2.21332e-05
2.2802e-05
2.64317e-05
2.89464e-05
2.94733e-05
2.8071e-05
2.55797e-05
2.29533e-05
2.07788e-05
1.92773e-05
1.84963e-05
1.84884e-05
1.94015e-05
2.1452e-05
2.47691e-05
2.91427e-05
3.38657e-05
3.79606e-05
4.06146e-05
4.11791e-05
3.8774e-05
3.24473e-05
2.21926e-05
9.80922e-06
0
0
0
0
0
3.39274e-06
5.6666e-06
3.03503e-05
1.95994e-05
0
0
0
0
2.48436e-07
7.71027e-07
1.39503e-06
2.18153e-06
3.18078e-06
4.32376e-06
5.36707e-06
5.9968e-06
6.01793e-06
5.48292e-06
4.78185e-06
3.63273e-06
2.34729e-06
4.29781e-06
4.62264e-06
3.22167e-06
2.17625e-06
1.58178e-06
8.91709e-07
1.19719e-07
0
0
8.66771e-08
8.16851e-06
4.20774e-05
8.98233e-05
0.000115424
0.00011817
0.000106735
7.81468e-05
3.62702e-05
9.42521e-06
4.17343e-06
5.14929e-06
7.37238e-06
1.02607e-05
1.39618e-05
1.78559e-05
2.02605e-05
2.05333e-05
1.93217e-05
1.76969e-05
1.65391e-05
1.5956e-05
1.53496e-05
1.41199e-05
1.20734e-05
9.30745e-06
6.0012e-06
2.34698e-06
0
0
0
0
0
0
0
0
0
0
1.44746e-05
2.21722e-05
2.07866e-05
2.08772e-05
2.45872e-05
2.79961e-05
3.02947e-05
3.07805e-05
2.93517e-05
2.68738e-05
2.43334e-05
2.2325e-05
2.10611e-05
2.0568e-05
2.08602e-05
2.20214e-05
2.41757e-05
2.73524e-05
3.12985e-05
3.53971e-05
3.88677e-05
4.10677e-05
4.14232e-05
3.90536e-05
3.2945e-05
2.29747e-05
1.08529e-05
0
0
0
0
0
3.54085e-06
5.792e-06
3.01306e-05
1.94015e-05
0
0
0
1.25358e-07
6.93694e-07
1.41795e-06
2.31875e-06
3.42085e-06
4.66978e-06
5.86326e-06
6.71081e-06
6.97696e-06
6.6194e-06
5.79346e-06
4.85166e-06
3.79518e-06
2.20658e-06
3.04786e-06
3.83275e-06
2.6109e-06
1.31773e-06
5.7073e-07
0
0
0
0
9.87431e-07
1.2192e-05
4.51055e-05
8.87357e-05
0.000117883
0.000127685
0.000121664
8.77489e-05
3.1351e-05
7.70142e-06
6.26751e-06
7.81228e-06
1.00816e-05
1.26962e-05
1.5917e-05
1.92509e-05
2.12808e-05
2.14044e-05
2.00245e-05
1.79988e-05
1.62717e-05
1.52795e-05
1.46012e-05
1.35001e-05
1.15789e-05
8.83663e-06
5.43976e-06
1.60012e-06
0
0
0
0
0
0
0
0
0
0
8.31819e-06
1.40377e-05
1.68786e-05
2.19205e-05
2.6078e-05
2.9134e-05
3.14648e-05
3.19722e-05
3.04979e-05
2.80167e-05
2.55652e-05
2.37357e-05
2.27182e-05
2.25092e-05
2.30817e-05
2.44582e-05
2.66794e-05
2.96925e-05
3.32179e-05
3.67229e-05
3.9596e-05
4.13506e-05
4.14986e-05
3.91807e-05
3.33338e-05
2.3714e-05
1.18896e-05
1.00439e-06
0
0
0
0
3.69876e-06
5.92134e-06
2.96955e-05
1.91295e-05
0
0
1.00388e-07
7.03014e-07
1.51905e-06
2.56687e-06
3.81414e-06
5.17449e-06
6.47132e-06
7.44837e-06
7.87692e-06
7.66601e-06
6.91873e-06
5.87204e-06
4.80709e-06
3.8233e-06
2.37543e-06
1.97721e-06
2.86215e-06
1.94557e-06
4.81232e-07
0
0
0
0
0
1.94584e-06
1.51511e-05
4.65336e-05
8.69494e-05
0.000118511
0.000135355
0.000137186
8.92751e-05
1.63791e-05
7.10563e-06
8.54556e-06
1.06331e-05
1.29021e-05
1.51946e-05
1.7893e-05
2.05891e-05
2.21752e-05
2.21618e-05
2.07357e-05
1.84793e-05
1.6244e-05
1.47156e-05
1.38e-05
1.27577e-05
1.09776e-05
8.30333e-06
4.85919e-06
8.65504e-07
0
0
0
0
0
0
0
0
0
0
3.60344e-06
9.67906e-06
1.69946e-05
2.32873e-05
2.6873e-05
2.99679e-05
3.25509e-05
3.30552e-05
3.14801e-05
2.89739e-05
2.66173e-05
2.49796e-05
2.4214e-05
2.42803e-05
2.51094e-05
2.66658e-05
2.89168e-05
3.17433e-05
3.48526e-05
3.77897e-05
4.00897e-05
4.14088e-05
4.13537e-05
3.91051e-05
3.35658e-05
2.43658e-05
1.29058e-05
2.03289e-06
0
0
0
0
3.81916e-06
6.01061e-06
2.91266e-05
1.88079e-05
0
1.24335e-07
8.58539e-07
1.80039e-06
2.95602e-06
4.2936e-06
5.70229e-06
7.0178e-06
8.03265e-06
8.54243e-06
8.44359e-06
7.79053e-06
6.7811e-06
5.66991e-06
4.6452e-06
3.75694e-06
2.56777e-06
1.40806e-06
1.82962e-06
1.20767e-06
0
0
0
0
0
0
2.7393e-06
1.69135e-05
4.63185e-05
8.3879e-05
0.000116999
0.000141422
0.000155174
6.24281e-05
2.19732e-06
8.41162e-06
1.10267e-05
1.35679e-05
1.57373e-05
1.76519e-05
1.97856e-05
2.18072e-05
2.29335e-05
2.27996e-05
2.14176e-05
1.90959e-05
1.64895e-05
1.43815e-05
1.30526e-05
1.1946e-05
1.02893e-05
7.72024e-06
4.27455e-06
1.71314e-07
0
0
0
0
0
0
0
0
0
0
1.50925e-06
9.53717e-06
1.82835e-05
2.38042e-05
2.70699e-05
3.07317e-05
3.36101e-05
3.39992e-05
3.22528e-05
2.97054e-05
2.74526e-05
2.60173e-05
2.55036e-05
2.58312e-05
2.68891e-05
2.8588e-05
3.0832e-05
3.34505e-05
3.6148e-05
3.85417e-05
4.02944e-05
4.11925e-05
4.0944e-05
3.87893e-05
3.3612e-05
2.49097e-05
1.39001e-05
3.03616e-06
0
0
0
0
3.92334e-06
6.08449e-06
2.83802e-05
1.84071e-05
3.0897e-07
1.00473e-06
2.06142e-06
3.27641e-06
4.60545e-06
5.97637e-06
7.24271e-06
8.22971e-06
8.77307e-06
8.77229e-06
8.25294e-06
7.3706e-06
6.34624e-06
5.37068e-06
4.50869e-06
3.70864e-06
2.69306e-06
1.37859e-06
9.61598e-07
4.34738e-07
0
0
0
0
0
0
3.1537e-06
1.73533e-05
4.4298e-05
7.88247e-05
0.000112471
0.000145157
0.000171488
0
1.5365e-06
1.04892e-05
1.37013e-05
1.65217e-05
1.84659e-05
1.99529e-05
2.14979e-05
2.28646e-05
2.3564e-05
2.33286e-05
2.2042e-05
1.97825e-05
1.69738e-05
1.43462e-05
1.24711e-05
1.11358e-05
9.54132e-06
7.09911e-06
3.69922e-06
0
0
0
0
0
0
0
0
0
0
0
8.76141e-07
1.04797e-05
1.87162e-05
2.33338e-05
2.70954e-05
3.16094e-05
3.46226e-05
3.47422e-05
3.27615e-05
3.01651e-05
2.80249e-05
2.67969e-05
2.65294e-05
2.70997e-05
2.83556e-05
3.0159e-05
3.23611e-05
3.47532e-05
3.70462e-05
3.89243e-05
4.01602e-05
4.06569e-05
4.02282e-05
3.81936e-05
3.34345e-05
2.53106e-05
1.4836e-05
4.11587e-06
0
0
0
0
3.977e-06
6.10357e-06
2.74843e-05
1.79286e-05
1.22747e-06
2.17735e-06
3.40279e-06
4.67618e-06
5.9324e-06
7.0883e-06
8.00565e-06
8.55186e-06
8.6478e-06
8.30416e-06
7.63716e-06
6.82826e-06
6.03446e-06
5.31062e-06
4.59817e-06
3.80219e-06
2.78447e-06
1.4597e-06
4.67867e-07
0
0
0
0
0
0
0
2.99906e-06
1.63663e-05
4.02233e-05
7.08865e-05
0.000102901
0.000139586
8.74238e-05
0
6.54405e-06
1.27079e-05
1.65034e-05
1.93544e-05
2.09526e-05
2.1984e-05
2.29557e-05
2.37456e-05
2.40857e-05
2.37667e-05
2.25912e-05
2.04721e-05
1.76189e-05
1.46123e-05
1.21514e-05
1.04158e-05
8.77362e-06
6.45408e-06
3.14569e-06
0
0
0
0
0
0
0
0
0
0
0
5.22318e-07
1.06191e-05
1.79045e-05
2.24184e-05
2.73692e-05
3.2628e-05
3.5502e-05
3.52054e-05
3.29456e-05
3.02978e-05
2.82751e-05
2.72531e-05
2.72206e-05
2.80118e-05
2.94346e-05
3.1307e-05
3.34371e-05
3.55914e-05
3.74951e-05
3.88945e-05
3.96545e-05
3.97782e-05
3.91851e-05
3.72926e-05
3.30035e-05
2.55427e-05
1.56709e-05
5.392e-06
0
0
0
0
3.99342e-06
6.08461e-06
2.64249e-05
1.73563e-05
2.25422e-06
3.33516e-06
4.54909e-06
5.69913e-06
6.72482e-06
7.55403e-06
8.08945e-06
8.27486e-06
8.1254e-06
7.72545e-06
7.20094e-06
6.66132e-06
6.13733e-06
5.57359e-06
4.87455e-06
3.96452e-06
2.80071e-06
1.36785e-06
1.20291e-07
0
0
0
0
0
0
0
2.1227e-06
1.38704e-05
3.37897e-05
5.88703e-05
8.41131e-05
9.50478e-05
0
0
1.01838e-05
1.50856e-05
1.92828e-05
2.18929e-05
2.30649e-05
2.36513e-05
2.41194e-05
2.44542e-05
2.4518e-05
2.41292e-05
2.3055e-05
2.11106e-05
1.83346e-05
1.51223e-05
1.21453e-05
9.88371e-06
8.04378e-06
5.80553e-06
2.62607e-06
0
0
0
0
0
0
0
0
0
0
0
9.85922e-08
9.74422e-06
1.6423e-05
2.17327e-05
2.80433e-05
3.36729e-05
3.61305e-05
3.53039e-05
3.27363e-05
3.00364e-05
2.81316e-05
2.73095e-05
2.7498e-05
2.84887e-05
3.00504e-05
3.19623e-05
3.39999e-05
3.59172e-05
3.74613e-05
3.84348e-05
3.87763e-05
3.85686e-05
3.78267e-05
3.60813e-05
3.22907e-05
2.55668e-05
1.63551e-05
6.79716e-06
0
0
0
0
3.93925e-06
5.9927e-06
2.52081e-05
1.66783e-05
3.10739e-06
4.24532e-06
5.34727e-06
6.28559e-06
7.0292e-06
7.54734e-06
7.81232e-06
7.84644e-06
7.71212e-06
7.47933e-06
7.19735e-06
6.87076e-06
6.45063e-06
5.86215e-06
5.03903e-06
3.95325e-06
2.60941e-06
1.02183e-06
0
0
0
0
0
0
0
0
4.15852e-07
9.88126e-06
2.48478e-05
4.19335e-05
5.21455e-05
1.69836e-05
0
5.58044e-06
1.24099e-05
1.76378e-05
2.18092e-05
2.3959e-05
2.46958e-05
2.49004e-05
2.49859e-05
2.50044e-05
2.48722e-05
2.44234e-05
2.3428e-05
2.16608e-05
1.90413e-05
1.57857e-05
1.24411e-05
9.62391e-06
7.42776e-06
5.18415e-06
2.15313e-06
0
0
0
0
0
0
0
0
0
0
0
0
8.40848e-06
1.50387e-05
2.163e-05
2.89985e-05
3.45696e-05
3.63852e-05
3.49462e-05
3.20538e-05
2.9304e-05
2.75179e-05
2.68897e-05
2.72875e-05
2.84607e-05
3.01414e-05
3.20751e-05
3.40146e-05
3.57141e-05
3.69493e-05
3.7573e-05
3.75796e-05
3.71024e-05
3.62266e-05
3.46018e-05
3.12884e-05
2.53377e-05
1.6865e-05
7.95773e-06
0
0
0
0
3.82986e-06
5.85187e-06
2.38547e-05
1.58981e-05
3.77107e-06
4.89632e-06
5.82228e-06
6.52153e-06
7.02075e-06
7.34896e-06
7.53148e-06
7.60722e-06
7.60679e-06
7.54009e-06
7.39495e-06
7.13021e-06
6.67908e-06
5.97614e-06
4.98323e-06
3.70363e-06
2.17208e-06
4.3127e-07
0
0
0
0
0
0
0
0
0
4.65071e-06
1.41147e-05
2.19466e-05
1.69553e-05
0
1.15538e-06
9.07089e-06
1.45417e-05
2.01257e-05
2.38137e-05
2.54114e-05
2.57884e-05
2.57277e-05
2.55791e-05
2.54095e-05
2.51481e-05
2.46481e-05
2.37079e-05
2.21026e-05
1.96802e-05
1.65076e-05
1.29706e-05
9.67452e-06
7.00962e-06
4.63334e-06
1.73984e-06
0
0
0
0
0
0
0
0
0
0
0
0
7.15063e-06
1.41928e-05
2.20596e-05
2.99964e-05
3.51411e-05
3.61406e-05
3.40306e-05
3.08124e-05
2.80289e-05
2.63736e-05
2.59426e-05
2.65462e-05
2.78949e-05
2.96871e-05
3.16412e-05
3.34983e-05
3.50235e-05
3.60266e-05
3.64073e-05
3.61946e-05
3.5535e-05
3.45412e-05
3.29689e-05
3.00296e-05
2.48031e-05
1.71566e-05
8.90647e-06
0
0
0
0
3.63576e-06
5.63183e-06
2.23624e-05
1.50005e-05
4.0406e-06
5.12925e-06
5.88009e-06
6.39365e-06
6.76199e-06
7.04724e-06
7.26883e-06
7.43074e-06
7.52749e-06
7.54395e-06
7.445e-06
7.16869e-06
6.64386e-06
5.81787e-06
4.6762e-06
3.23361e-06
1.53477e-06
0
0
0
0
0
0
0
0
0
0
0
3.18741e-06
4.52969e-06
0
0
5.7163e-06
1.07246e-05
1.69221e-05
2.21225e-05
2.50703e-05
2.61907e-05
2.63528e-05
2.61757e-05
2.59329e-05
2.56741e-05
2.5335e-05
2.4796e-05
2.38946e-05
2.24291e-05
2.02147e-05
1.72078e-05
1.36364e-05
1.00077e-05
6.85463e-06
4.20755e-06
1.39812e-06
0
0
0
0
0
0
0
0
0
0
0
0
6.2087e-06
1.39222e-05
2.27579e-05
3.07922e-05
3.52158e-05
3.52617e-05
3.2453e-05
2.89442e-05
2.61785e-05
2.46955e-05
2.44867e-05
2.53083e-05
2.68382e-05
2.87492e-05
3.07416e-05
3.25553e-05
3.39756e-05
3.4853e-05
3.51275e-05
3.48398e-05
3.41056e-05
3.30105e-05
3.13817e-05
2.86161e-05
2.39325e-05
1.71162e-05
9.68806e-06
0
0
0
0
3.41014e-06
5.38459e-06
2.0794e-05
1.40261e-05
4.11971e-06
5.15537e-06
5.76139e-06
6.16117e-06
6.48177e-06
6.77666e-06
7.03876e-06
7.25209e-06
7.39964e-06
7.44853e-06
7.33968e-06
6.99946e-06
6.36663e-06
5.4122e-06
4.14281e-06
2.57934e-06
7.61826e-07
0
0
0
0
0
0
0
0
0
0
0
0
0
0
2.72831e-06
6.93083e-06
1.28594e-05
1.89367e-05
2.3236e-05
2.54994e-05
2.63426e-05
2.64628e-05
2.63082e-05
2.6074e-05
2.57933e-05
2.54174e-05
2.48578e-05
2.39896e-05
2.26426e-05
2.06273e-05
1.78292e-05
1.43422e-05
1.05425e-05
6.97594e-06
3.96038e-06
1.1376e-06
0
0
0
0
0
0
0
0
0
0
0
0
5.59935e-06
1.40227e-05
2.34224e-05
3.11547e-05
3.46154e-05
3.36131e-05
3.01403e-05
2.64499e-05
2.38218e-05
2.26059e-05
2.26796e-05
2.37503e-05
2.54774e-05
2.75236e-05
2.95858e-05
3.14129e-05
3.28187e-05
3.36958e-05
3.40135e-05
3.37958e-05
3.30862e-05
3.18928e-05
3.00694e-05
2.72028e-05
2.27436e-05
1.65652e-05
9.46671e-06
0
0
0
0
3.12983e-06
5.07002e-06
1.91374e-05
1.29606e-05
3.85978e-06
4.88015e-06
5.4211e-06
5.79292e-06
6.12211e-06
6.44256e-06
6.73634e-06
6.98451e-06
7.15914e-06
7.20555e-06
7.04958e-06
6.62265e-06
5.88218e-06
4.8194e-06
3.45062e-06
1.80334e-06
0
0
0
0
0
0
0
0
0
0
0
0
0
0
1.38674e-07
3.63911e-06
8.75301e-06
1.47689e-05
1.99162e-05
2.33546e-05
2.5205e-05
2.59972e-05
2.62215e-05
2.61817e-05
2.60159e-05
2.57572e-05
2.53805e-05
2.48246e-05
2.39942e-05
2.27499e-05
2.09149e-05
1.83381e-05
1.50114e-05
1.11791e-05
7.3244e-06
3.91989e-06
9.64139e-07
0
0
0
0
0
0
0
0
0
0
0
0
5.21285e-06
1.42092e-05
2.37654e-05
3.08554e-05
3.31651e-05
3.11051e-05
2.71246e-05
2.34867e-05
2.12207e-05
2.04416e-05
2.08988e-05
2.22606e-05
2.4194e-05
2.63816e-05
2.85382e-05
3.04333e-05
3.19128e-05
3.29015e-05
3.33771e-05
3.33181e-05
3.26685e-05
3.13344e-05
2.91644e-05
2.59107e-05
2.12902e-05
1.53349e-05
7.7455e-06
0
0
0
0
2.9236e-06
4.76711e-06
1.74949e-05
1.18574e-05
3.50604e-06
4.53682e-06
5.04791e-06
5.40451e-06
5.73034e-06
6.05542e-06
6.36056e-06
6.61693e-06
6.77786e-06
6.77549e-06
6.53953e-06
6.01882e-06
5.19076e-06
4.05832e-06
2.63765e-06
9.5647e-07
0
0
0
0
0
0
0
0
0
0
0
0
0
0
7.94903e-07
4.95008e-06
1.01994e-05
1.54726e-05
1.9762e-05
2.26795e-05
2.44041e-05
2.53106e-05
2.57177e-05
2.5831e-05
2.57629e-05
2.55586e-05
2.52142e-05
2.46888e-05
2.3908e-05
2.2758e-05
2.10831e-05
1.87203e-05
1.55926e-05
1.18283e-05
7.814e-06
4.06822e-06
8.76981e-07
0
0
0
0
0
0
0
0
0
0
0
0
4.87733e-06
1.41986e-05
2.35178e-05
2.9679e-05
3.07509e-05
2.77938e-05
2.36622e-05
2.0481e-05
1.89157e-05
1.88003e-05
1.97519e-05
2.14251e-05
2.3537e-05
2.58315e-05
2.8069e-05
3.00503e-05
3.16435e-05
3.27859e-05
3.34358e-05
3.35063e-05
3.28411e-05
3.12553e-05
2.85873e-05
2.47174e-05
1.95959e-05
1.33684e-05
4.92698e-06
0
0
0
0
2.71473e-06
4.34654e-06
1.57855e-05
1.0598e-05
2.97048e-06
4.04907e-06
4.56343e-06
4.92192e-06
5.25396e-06
5.59009e-06
5.90221e-06
6.14437e-06
6.25827e-06
6.18001e-06
5.85624e-06
5.25519e-06
4.36767e-06
3.1996e-06
1.76664e-06
9.56995e-08
0
0
0
0
0
0
0
0
0
0
0
0
0
0
9.31152e-07
5.42351e-06
1.03736e-05
1.50455e-05
1.88262e-05
2.15336e-05
2.33143e-05
2.44028e-05
2.50044e-05
2.5275e-05
2.53202e-05
2.51959e-05
2.49125e-05
2.44429e-05
2.37273e-05
2.26714e-05
2.11405e-05
1.89755e-05
1.60584e-05
1.24249e-05
8.35724e-06
4.34995e-06
8.66061e-07
0
0
0
0
0
0
0
0
0
0
0
0
4.42787e-06
1.37469e-05
2.2448e-05
2.74943e-05
2.74513e-05
2.40406e-05
2.0359e-05
1.8156e-05
1.76241e-05
1.83302e-05
1.98158e-05
2.17684e-05
2.39884e-05
2.63116e-05
2.8565e-05
3.05815e-05
3.22398e-05
3.34651e-05
3.41759e-05
3.42193e-05
3.33641e-05
3.13687e-05
2.80718e-05
2.34438e-05
1.75986e-05
1.07111e-05
1.48953e-06
0
0
0
0
2.72018e-06
3.84367e-06
1.3991e-05
9.02063e-06
2.40327e-06
3.52831e-06
4.03882e-06
4.38864e-06
4.71642e-06
5.0469e-06
5.33795e-06
5.53306e-06
5.57673e-06
5.41933e-06
5.02499e-06
4.37515e-06
3.46503e-06
2.29947e-06
8.93436e-07
0
0
0
0
0
0
0
0
0
0
0
0
0
0
0
4.91966e-07
5.05259e-06
9.72953e-06
1.4006e-05
1.75227e-05
2.01863e-05
2.20778e-05
2.3337e-05
2.41107e-05
2.45309e-05
2.46982e-05
2.46722e-05
2.44717e-05
2.40791e-05
2.34454e-05
2.24895e-05
2.10942e-05
1.91102e-05
1.63995e-05
1.29299e-05
8.88579e-06
4.70026e-06
9.14787e-07
0
0
0
0
0
0
0
0
0
0
0
0
3.75493e-06
1.2682e-05
2.04425e-05
2.4412e-05
2.37356e-05
2.06336e-05
1.80677e-05
1.71557e-05
1.76925e-05
1.91602e-05
2.11228e-05
2.33118e-05
2.55929e-05
2.78804e-05
3.00634e-05
3.20128e-05
3.36104e-05
3.47557e-05
3.53244e-05
3.51173e-05
3.38651e-05
3.13071e-05
2.72925e-05
2.18446e-05
1.51671e-05
7.40155e-06
0
0
0
0
0
2.43884e-06
2.61686e-06
1.15122e-05
6.35283e-06
1.73272e-06
2.90994e-06
3.42755e-06
3.77848e-06
4.10298e-06
4.41574e-06
4.66649e-06
4.80059e-06
4.77463e-06
4.55416e-06
4.11554e-06
3.44647e-06
2.5432e-06
1.41081e-06
6.40717e-08
0
0
0
0
0
0
0
0
0
0
0
0
0
0
0
5.06402e-08
4.44251e-06
8.79711e-06
1.27706e-05
1.61273e-05
1.878e-05
2.07559e-05
2.21448e-05
2.30617e-05
2.36199e-05
2.39107e-05
2.39925e-05
2.38887e-05
2.35891e-05
2.30525e-05
2.22069e-05
2.09466e-05
1.91325e-05
1.66179e-05
1.33247e-05
9.3549e-06
5.06503e-06
1.00641e-06
0
0
0
0
0
0
0
0
0
0
0
0
2.83563e-06
1.0981e-05
1.76718e-05
2.1005e-05
2.05541e-05
1.84651e-05
1.7148e-05
1.72612e-05
1.85748e-05
2.06382e-05
2.30309e-05
2.54785e-05
2.78581e-05
3.01092e-05
3.2174e-05
3.39607e-05
3.53554e-05
3.62367e-05
3.6452e-05
3.57837e-05
3.39606e-05
3.07314e-05
2.59587e-05
1.96859e-05
1.21473e-05
3.42846e-06
0
0
0
0
0
1.95511e-06
2.92401e-08
7.79755e-06
1.39543e-06
1.02221e-06
2.24477e-06
2.77035e-06
3.11681e-06
3.42168e-06
3.6956e-06
3.89159e-06
3.96501e-06
3.88507e-06
3.62772e-06
3.17525e-06
2.51713e-06
1.65015e-06
5.79722e-07
0
0
0
0
0
0
0
0
0
0
0
0
0
0
0
0
0
3.82746e-06
7.83586e-06
1.15427e-05
1.47504e-05
1.73622e-05
1.93766e-05
2.08542e-05
2.18853e-05
2.25643e-05
2.29712e-05
2.31612e-05
2.31602e-05
2.29635e-05
2.25362e-05
2.18126e-05
2.06937e-05
1.90463e-05
1.67197e-05
1.36048e-05
9.73933e-06
5.40545e-06
1.12609e-06
0
0
0
0
0
0
0
0
0
0
0
0
1.75808e-06
8.87799e-06
1.47609e-05
1.82987e-05
1.86822e-05
1.73826e-05
1.67056e-05
1.73795e-05
1.92497e-05
2.18403e-05
2.46847e-05
2.74724e-05
3.0037e-05
3.23147e-05
3.42732e-05
3.58485e-05
3.69369e-05
3.74111e-05
3.71131e-05
3.58351e-05
3.33317e-05
2.93798e-05
2.3854e-05
1.67994e-05
8.43165e-06
0
0
0
0
0
6.55059e-06
0
0
1.24628e-06
0
2.61011e-07
1.52339e-06
2.05383e-06
2.38505e-06
2.65762e-06
2.88715e-06
3.03519e-06
3.06621e-06
2.9575e-06
2.69081e-06
2.25148e-06
1.6305e-06
8.25748e-07
0
0
0
0
0
0
0
0
0
0
0
0
0
0
0
0
0
0
3.2688e-06
6.94201e-06
1.03861e-05
1.34233e-05
1.59559e-05
1.79669e-05
1.94947e-05
2.0608e-05
2.13838e-05
2.18914e-05
2.21817e-05
2.22818e-05
2.21916e-05
2.18816e-05
2.12908e-05
2.03235e-05
1.8848e-05
1.67081e-05
1.37711e-05
1.00263e-05
5.69426e-06
1.2579e-06
0
0
0
0
0
0
0
0
0
0
0
0
6.8743e-07
6.86914e-06
1.25826e-05
1.67449e-05
1.71156e-05
1.57247e-05
1.53441e-05
1.6526e-05
1.89615e-05
2.20811e-05
2.53991e-05
2.85806e-05
3.14169e-05
3.38108e-05
3.57193e-05
3.70877e-05
3.78255e-05
3.7816e-05
3.69187e-05
3.49587e-05
3.1736e-05
2.70674e-05
2.08441e-05
1.31212e-05
4.0699e-06
0
0
0
0
0
1.21744e-05
0
0
0
0
0
7.57951e-07
1.28382e-06
1.59019e-06
1.82857e-06
2.02278e-06
2.14195e-06
2.15585e-06
2.04574e-06
1.79656e-06
1.3956e-06
8.35366e-07
1.14658e-07
0
0
0
0
0
0
0
0
0
0
0
0
0
0
0
0
0
0
2.7848e-06
6.13355e-06
9.30978e-06
1.21558e-05
1.4578e-05
1.65485e-05
1.80887e-05
1.92494e-05
2.00932e-05
2.06797e-05
2.10555e-05
2.1248e-05
2.12609e-05
2.107e-05
2.06191e-05
1.98148e-05
1.8523e-05
1.65774e-05
1.38217e-05
1.02068e-05
5.90907e-06
1.38102e-06
0
0
0
0
0
0
0
0
0
0
0
0
0
5.34376e-06
1.1215e-05
1.47015e-05
1.29108e-05
1.19504e-05
1.24606e-05
1.44064e-05
1.74136e-05
2.09717e-05
2.46812e-05
2.8235e-05
3.13926e-05
3.39889e-05
3.59271e-05
3.71366e-05
3.75367e-05
3.70347e-05
3.55267e-05
3.2889e-05
2.89812e-05
2.36694e-05
1.68831e-05
8.70369e-06
0
0
0
0
0
0
1.42652e-05
0
0
0
0
0
0
4.70667e-07
7.54663e-07
9.70867e-07
1.14857e-06
1.2617e-06
1.28319e-06
1.19658e-06
9.88732e-07
6.48701e-07
1.70199e-07
0
0
0
0
0
0
0
0
0
0
0
0
0
0
0
0
0
0
0
2.39177e-06
5.42284e-06
8.32699e-06
1.09649e-05
1.3248e-05
1.51418e-05
1.66555e-05
1.78263e-05
1.8705e-05
1.93428e-05
1.97821e-05
2.00501e-05
2.01539e-05
2.00755e-05
1.97648e-05
1.91315e-05
1.80378e-05
1.63022e-05
1.37394e-05
1.0263e-05
6.02351e-06
1.46691e-06
0
0
0
0
0
0
0
0
0
0
0
0
0
4.07105e-06
9.76649e-06
1.0783e-05
3.96637e-06
6.39992e-06
8.65562e-06
1.13362e-05
1.46292e-05
1.83331e-05
2.22154e-05
2.60341e-05
2.95079e-05
3.23611e-05
3.43994e-05
3.551e-05
3.56174e-05
3.46625e-05
3.25941e-05
2.93544e-05
2.48734e-05
1.90859e-05
1.20079e-05
3.79556e-06
0
0
0
0
0
0
1.06054e-05
0
0
0
0
0
0
0
0
1.31573e-07
3.21252e-07
4.55362e-07
5.09547e-07
4.69364e-07
3.23125e-07
6.13335e-08
0
0
0
0
0
0
0
0
0
0
0
0
0
0
0
0
0
0
0
0
2.06694e-06
4.79054e-06
7.42282e-06
9.84023e-06
1.19603e-05
1.37457e-05
1.51973e-05
1.63422e-05
1.72214e-05
1.78785e-05
1.8352e-05
1.86689e-05
1.88404e-05
1.88557e-05
1.86736e-05
1.82105e-05
1.73269e-05
1.58233e-05
1.34754e-05
1.01528e-05
5.9945e-06
1.47509e-06
0
0
0
0
0
0
0
0
0
0
0
0
0
2.88454e-06
8.01123e-06
1.07397e-05
0
2.51384e-06
5.26828e-06
7.71884e-06
1.07129e-05
1.41756e-05
1.80063e-05
2.20017e-05
2.57799e-05
2.8898e-05
3.10374e-05
3.20437e-05
3.18624e-05
3.04901e-05
2.79479e-05
2.42592e-05
1.94401e-05
1.35319e-05
6.69152e-06
0
0
0
0
0
0
0
0
0
9.88378e-08
4.51713e-07
9.65795e-07