/*--------------------------------*- C++ -*----------------------------------*\
  =========                 |
  \\      /  F ield         | OpenFOAM: The Open Source CFD Toolbox
   \\    /   O peration     | Website:  https://openfoam.org
    \\  /    A nd           | Version:  10
     \\/     M anipulation  |
\*---------------------------------------------------------------------------*/
FoamFile
{
    format      ascii;
    class       volVectorField;
    location    "0.15";
    object      U;
}
// * * * * * * * * * * * * * * * * * * * * * * * * * * * * * * * * * * * * * //

dimensions      [0 1 -1 0 0 0 0];

internalField   nonuniform List<vector> 
6820
(
(7.28198 0.0246503 0)
(7.17964 0.0396062 0)
(7.05922 0.0443285 0)
(6.93365 0.0468093 0)
(6.80918 0.0477766 0)
(6.68614 0.0478882 0)
(6.56489 0.0475796 0)
(6.44585 0.0470323 0)
(6.3291 0.0463504 0)
(6.21459 0.0455996 0)
(6.10229 0.0448169 0)
(5.99217 0.0440227 0)
(5.88418 0.0432286 0)
(5.77828 0.0424403 0)
(5.67445 0.0416595 0)
(5.57267 0.0408849 0)
(5.47296 0.0401134 0)
(5.37534 0.03934 0)
(5.27987 0.0385573 0)
(5.18661 0.037755 0)
(5.0957 0.0369184 0)
(5.00731 0.0360261 0)
(4.92166 0.0350469 0)
(4.83909 0.0339353 0)
(4.76008 0.0326243 0)
(4.68527 0.0310193 0)
(4.61557 0.0289669 0)
(4.55235 0.0262972 0)
(4.49714 0.022551 0)
(4.45375 0.0175781 0)
(4.42254 0.00959842 0)
(4.42143 -0.00343477 0)
(4.42958 -0.0160305 0)
(7.35914 0.0256306 0)
(7.42094 0.0351192 0)
(7.4765 0.0365754 0)
(7.52768 0.038297 0)
(7.57512 0.0394592 0)
(7.61775 0.0403831 0)
(7.65559 0.0413399 0)
(7.68907 0.0423298 0)
(7.71852 0.0433423 0)
(7.74423 0.0443756 0)
(7.76651 0.0454207 0)
(7.78562 0.0464668 0)
(7.80184 0.0475036 0)
(7.8154 0.0485204 0)
(7.82653 0.0495057 0)
(7.83547 0.0504465 0)
(7.84242 0.0513281 0)
(7.84763 0.0521326 0)
(7.85131 0.052838 0)
(7.85371 0.0534157 0)
(7.8551 0.0538282 0)
(7.85577 0.0540239 0)
(7.85605 0.0539319 0)
(7.85634 0.0534526 0)
(7.85708 0.0524448 0)
(7.85886 0.0507104 0)
(7.86238 0.0479527 0)
(7.86854 0.0437935 0)
(7.8785 0.0374659 0)
(7.89363 0.0284173 0)
(7.91606 0.0140634 0)
(7.9446 -0.00546029 0)
(7.98583 -0.0382707 0)
(7.33548 0.00669414 0)
(7.34623 0.00946722 0)
(7.35631 0.0116117 0)
(7.36558 0.0145912 0)
(7.37583 0.0170261 0)
(7.38692 0.0190809 0)
(7.39878 0.0209771 0)
(7.41156 0.0227166 0)
(7.42528 0.0243106 0)
(7.43991 0.0257856 0)
(7.45544 0.0271578 0)
(7.47185 0.0284363 0)
(7.48913 0.0296257 0)
(7.50726 0.0307256 0)
(7.52624 0.0317313 0)
(7.54609 0.0326326 0)
(7.56683 0.0334144 0)
(7.58849 0.0340547 0)
(7.61112 0.0345236 0)
(7.63481 0.0347808 0)
(7.65964 0.034772 0)
(7.68573 0.0344235 0)
(7.71323 0.033635 0)
(7.74234 0.0322694 0)
(7.77325 0.0301373 0)
(7.80624 0.0269743 0)
(7.84158 0.0224102 0)
(7.87958 0.0159631 0)
(7.92052 0.00687919 0)
(7.96446 -0.00581408 0)
(8.01174 -0.0235903 0)
(8.06175 -0.0488588 0)
(8.11717 -0.0813712 0)
(7.33499 0.00891412 0)
(7.3431 0.0189939 0)
(7.34983 0.0237816 0)
(7.35489 0.0268319 0)
(7.35992 0.0286422 0)
(7.36496 0.0297201 0)
(7.36995 0.0304667 0)
(7.37505 0.0310085 0)
(7.38036 0.0314059 0)
(7.38593 0.0317042 0)
(7.39183 0.0319242 0)
(7.39812 0.0320715 0)
(7.40486 0.0321433 0)
(7.41212 0.0321302 0)
(7.41998 0.032017 0)
(7.42853 0.0317825 0)
(7.43784 0.0313994 0)
(7.44802 0.0308328 0)
(7.45918 0.030038 0)
(7.47145 0.0289589 0)
(7.48498 0.027523 0)
(7.49994 0.0256362 0)
(7.51651 0.0231767 0)
(7.5349 0.0199848 0)
(7.55536 0.0158516 0)
(7.57815 0.0104869 0)
(7.60356 0.00352119 0)
(7.63193 -0.00555768 0)
(7.66355 -0.017416 0)
(7.69869 -0.032907 0)
(7.7377 -0.0532461 0)
(7.77907 -0.0805868 0)
(7.82367 -0.114094 0)
(7.33406 0.0058944 0)
(7.33934 0.0112834 0)
(7.34511 0.0132349 0)
(7.35034 0.0149768 0)
(7.3557 0.0164823 0)
(7.36114 0.0177065 0)
(7.36651 0.0188115 0)
(7.37193 0.0198225 0)
(7.37745 0.0207284 0)
(7.38311 0.0215302 0)
(7.38897 0.0222239 0)
(7.39505 0.0227993 0)
(7.40142 0.0232429 0)
(7.40813 0.0235376 0)
(7.41523 0.0236613 0)
(7.42281 0.0235861 0)
(7.43093 0.0232773 0)
(7.43969 0.0226911 0)
(7.44919 0.021772 0)
(7.45956 0.0204517 0)
(7.47092 0.0186427 0)
(7.48344 0.0162331 0)
(7.4973 0.0130809 0)
(7.5127 0.0090017 0)
(7.52986 0.0037548 0)
(7.54903 -0.00295296 0)
(7.57048 -0.0115303 0)
(7.59441 -0.0225159 0)
(7.62105 -0.0365708 0)
(7.65045 -0.0545801 0)
(7.68266 -0.0774584 0)
(7.71676 -0.106825 0)
(7.75282 -0.141799 0)
(7.33381 0.00474923 0)
(7.33834 0.0113796 0)
(7.34381 0.0155622 0)
(7.34883 0.0187884 0)
(7.35382 0.0211145 0)
(7.35891 0.0226858 0)
(7.36401 0.0238013 0)
(7.3692 0.0246009 0)
(7.37456 0.0251488 0)
(7.3801 0.0254934 0)
(7.38588 0.0256622 0)
(7.39192 0.025664 0)
(7.39828 0.0254955 0)
(7.40499 0.0251438 0)
(7.41211 0.0245867 0)
(7.4197 0.0237925 0)
(7.42783 0.0227211 0)
(7.43658 0.0213201 0)
(7.44604 0.0195232 0)
(7.4563 0.01725 0)
(7.4675 0.0143966 0)
(7.47974 0.0108335 0)
(7.4932 0.00639983 0)
(7.50801 0.000889716 0)
(7.52436 -0.00596013 0)
(7.54242 -0.014459 0)
(7.56235 -0.0250291 0)
(7.5843 -0.0381603 0)
(7.60839 -0.0544796 0)
(7.63454 -0.0747534 0)
(7.66266 -0.0997198 0)
(7.69211 -0.130562 0)
(7.72259 -0.166822 0)
(7.33351 0.00373757 0)
(7.3368 0.00901481 0)
(7.34128 0.0118415 0)
(7.34578 0.0136733 0)
(7.35048 0.0149462 0)
(7.35541 0.0158118 0)
(7.36046 0.0164609 0)
(7.36564 0.0169715 0)
(7.37099 0.0173557 0)
(7.37653 0.0176175 0)
(7.3823 0.0177512 0)
(7.38831 0.0177407 0)
(7.39463 0.017563 0)
(7.40128 0.0171896 0)
(7.40831 0.016585 0)
(7.41579 0.0157065 0)
(7.42377 0.0145032 0)
(7.43233 0.0129114 0)
(7.44154 0.0108525 0)
(7.4515 0.0082378 0)
(7.4623 0.00494887 0)
(7.47405 0.000842766 0)
(7.48686 -0.00425253 0)
(7.50086 -0.0105489 0)
(7.51617 -0.0183084 0)
(7.5329 -0.027866 0)
(7.55116 -0.0396134 0)
(7.57099 -0.0540328 0)
(7.5924 -0.0716931 0)
(7.61526 -0.0932668 0)
(7.63934 -0.119391 0)
(7.66414 -0.150988 0)
(7.68924 -0.187883 0)
(7.33337 0.00295776 0)
(7.33605 0.0076838 0)
(7.34013 0.0108402 0)
(7.34448 0.0132716 0)
(7.34903 0.0151795 0)
(7.35378 0.0165754 0)
(7.35866 0.0175845 0)
(7.36366 0.0182929 0)
(7.36882 0.0187378 0)
(7.37417 0.0189444 0)
(7.37973 0.018926 0)
(7.38555 0.0186818 0)
(7.39164 0.0181997 0)
(7.39805 0.0174582 0)
(7.40484 0.0164256 0)
(7.41203 0.0150593 0)
(7.4197 0.0133093 0)
(7.4279 0.0111063 0)
(7.43669 0.00836428 0)
(7.44616 0.0049975 0)
(7.45636 0.000876429 0)
(7.4674 -0.0041454 0)
(7.47936 -0.0102531 0)
(7.49231 -0.0176657 0)
(7.50634 -0.0266471 0)
(7.52151 -0.037519 0)
(7.53783 -0.0506572 0)
(7.5553 -0.0665048 0)
(7.57383 -0.0855675 0)
(7.59324 -0.108421 0)
(7.61324 -0.13561 0)
(7.63338 -0.167867 0)
(7.65321 -0.205153 0)
(7.33327 0.00235978 0)
(7.3354 0.00634112 0)
(7.3389 0.00899497 0)
(7.3428 0.0108084 0)
(7.34697 0.012051 0)
(7.35142 0.0128286 0)
(7.35607 0.0132875 0)
(7.3609 0.0135224 0)
(7.36593 0.0135683 0)
(7.37117 0.0134384 0)
(7.37663 0.013131 0)
(7.38232 0.0126309 0)
(7.38829 0.0119126 0)
(7.39455 0.0109423 0)
(7.40115 0.0096766 0)
(7.40813 0.00806159 0)
(7.41554 0.006044 0)
(7.4234 0.0035446 0)
(7.43181 0.000465384 0)
(7.44079 -0.00330787 0)
(7.45042 -0.00788809 0)
(7.46074 -0.0134273 0)
(7.47181 -0.0201111 0)
(7.48368 -0.0281591 0)
(7.49639 -0.0378293 0)
(7.50993 -0.0494262 0)
(7.52429 -0.0633018 0)
(7.53939 -0.0798584 0)
(7.55507 -0.0995415 0)
(7.57112 -0.122841 0)
(7.58719 -0.150221 0)
(7.60285 -0.182277 0)
(7.61763 -0.219019 0)
(7.3332 0.001868 0)
(7.33497 0.00518585 0)
(7.33808 0.00757246 0)
(7.34173 0.00932899 0)
(7.34572 0.010664 0)
(7.35001 0.0116233 0)
(7.35452 0.0122738 0)
(7.3592 0.0126666 0)
(7.36407 0.0128187 0)
(7.36913 0.0127348 0)
(7.37439 0.0124112 0)
(7.37987 0.0118334 0)
(7.3856 0.0109776 0)
(7.39161 0.00981223 0)
(7.39792 0.00829368 0)
(7.40457 0.00636246 0)
(7.4116 0.0039791 0)
(7.41903 0.00104857 0)
(7.4269 -0.00249907 0)
(7.43528 -0.00679919 0)
(7.44418 -0.011969 0)
(7.45365 -0.0181604 0)
(7.46371 -0.0255517 0)
(7.47437 -0.034353 0)
(7.48562 -0.0448085 0)
(7.49744 -0.0571984 0)
(7.50974 -0.0718399 0)
(7.5224 -0.0890855 0)
(7.53522 -0.109316 0)
(7.54795 -0.13294 0)
(7.56022 -0.160341 0)
(7.57157 -0.192001 0)
(7.58155 -0.227914 0)
(7.33316 0.00145947 0)
(7.33464 0.00415483 0)
(7.33738 0.00615741 0)
(7.34071 0.00758242 0)
(7.3444 0.00857303 0)
(7.3484 0.00917605 0)
(7.35265 0.0094589 0)
(7.35711 0.00948242 0)
(7.36176 0.00927513 0)
(7.36662 0.00884644 0)
(7.37168 0.00819303 0)
(7.37695 0.00729808 0)
(7.38246 0.00613503 0)
(7.38823 0.00466974 0)
(7.39426 0.00285673 0)
(7.40059 0.000637914 0)
(7.40726 -0.00208075 0)
(7.41426 -0.00535575 0)
(7.42165 -0.00927125 0)
(7.42942 -0.0139402 0)
(7.43761 -0.019501 0)
(7.44622 -0.0261003 0)
(7.45525 -0.0339099 0)
(7.46469 -0.0431286 0)
(7.4745 -0.0539824 0)
(7.48459 -0.0667258 0)
(7.49486 -0.0816403 0)
(7.50514 -0.0990308 0)
(7.51522 -0.119218 0)
(7.52478 -0.142533 0)
(7.53348 -0.169281 0)
(7.54082 -0.199839 0)
(7.54638 -0.234154 0)
(7.33313 0.00110896 0)
(7.3344 0.00322724 0)
(7.33683 0.00485818 0)
(7.3399 0.00603513 0)
(7.34336 0.00686755 0)
(7.34717 0.0073933 0)
(7.35124 0.00765092 0)
(7.35553 0.00767325 0)
(7.36 0.00746942 0)
(7.36467 0.00703393 0)
(7.36952 0.00635271 0)
(7.37457 0.00540058 0)
(7.37982 0.00414497 0)
(7.3853 0.0025528 0)
(7.391 0.000571309 0)
(7.39694 -0.00183953 0)
(7.40315 -0.0047869 0)
(7.40965 -0.00832087 0)
(7.41644 -0.0125458 0)
(7.42353 -0.0175596 0)
(7.43091 -0.0234882 0)
(7.43858 -0.0304742 0)
(7.44651 -0.0386775 0)
(7.45465 -0.0482791 0)
(7.46295 -0.0594814 0)
(7.47129 -0.0725067 0)
(7.47953 -0.0875946 0)
(7.48748 -0.104998 0)
(7.4949 -0.124974 0)
(7.50147 -0.147783 0)
(7.50682 -0.17365 0)
(7.51047 -0.202859 0)
(7.51203 -0.2353 0)
(7.33311 0.000801931 0)
(7.33421 0.00238852 0)
(7.33638 0.00364025 0)
(7.33919 0.00452588 0)
(7.3424 0.00510399 0)
(7.34595 0.00539247 0)
(7.34977 0.00541221 0)
(7.35382 0.00518716 0)
(7.35805 0.00472674 0)
(7.36247 0.00402797 0)
(7.36707 0.00308057 0)
(7.37185 0.00185812 0)
(7.37681 0.000335366 0)
(7.38197 -0.00153713 0)
(7.38733 -0.00380358 0)
(7.39288 -0.0065176 0)
(7.39865 -0.00973554 0)
(7.40463 -0.0135526 0)
(7.41082 -0.0180564 0)
(7.41721 -0.0233461 0)
(7.42379 -0.0295398 0)
(7.43052 -0.0367695 0)
(7.43736 -0.0451821 0)
(7.44424 -0.0549406 0)
(7.45106 -0.0662228 0)
(7.4577 -0.0792192 0)
(7.464 -0.0941298 0)
(7.46975 -0.111158 0)
(7.47469 -0.130504 0)
(7.47849 -0.152359 0)
(7.48082 -0.176875 0)
(7.48117 -0.204248 0)
(7.47922 -0.23431 0)
(7.3331 0.000528266 0)
(7.33406 0.00162384 0)
(7.336 0.00250314 0)
(7.33857 0.00310453 0)
(7.34155 0.0034576 0)
(7.34488 0.00357241 0)
(7.34849 0.00345889 0)
(7.35232 0.00312869 0)
(7.35634 0.00258141 0)
(7.36053 0.00180509 0)
(7.36489 0.000777636 0)
(7.36941 -0.000521196 0)
(7.37408 -0.00213 0)
(7.3789 -0.00410075 0)
(7.38388 -0.0064747 0)
(7.38901 -0.00931795 0)
(7.39429 -0.012686 0)
(7.39971 -0.0166608 0)
(7.40527 -0.0213291 0)
(7.41092 -0.026785 0)
(7.41665 -0.0331358 0)
(7.4224 -0.040501 0)
(7.42812 -0.0490111 0)
(7.43372 -0.0588066 0)
(7.43908 -0.0700372 0)
(7.44407 -0.0828586 0)
(7.44851 -0.0974288 0)
(7.45217 -0.113902 0)
(7.45481 -0.132423 0)
(7.45609 -0.153119 0)
(7.4557 -0.176077 0)
(7.45316 -0.201413 0)
(7.44819 -0.228914 0)
(7.33309 0.00028131 0)
(7.33394 0.000923556 0)
(7.33568 0.00144139 0)
(7.33802 0.00175613 0)
(7.34077 0.00186965 0)
(7.34386 0.00177696 0)
(7.34723 0.00147365 0)
(7.35081 0.000959238 0)
(7.35457 0.000226763 0)
(7.3585 -0.000739002 0)
(7.36257 -0.00196142 0)
(7.36678 -0.00346066 0)
(7.37112 -0.0052789 0)
(7.37558 -0.00745131 0)
(7.38016 -0.0100301 0)
(7.38484 -0.0130712 0)
(7.38961 -0.0166334 0)
(7.39446 -0.0207896 0)
(7.39937 -0.0256199 0)
(7.40428 -0.0312116 0)
(7.40917 -0.0376609 0)
(7.41397 -0.0450728 0)
(7.4186 -0.0535598 0)
(7.42297 -0.0632401 0)
(7.42694 -0.0742364 0)
(7.43037 -0.0866716 0)
(7.43308 -0.100665 0)
(7.43484 -0.116326 0)
(7.4354 -0.133748 0)
(7.43446 -0.153005 0)
(7.43172 -0.174124 0)
(7.42673 -0.197154 0)
(7.41928 -0.221844 0)
(7.33308 5.60701e-05 0)
(7.33384 0.000279589 0)
(7.3354 0.000450933 0)
(7.33753 0.000484726 0)
(7.34006 0.000364904 0)
(7.34292 7.73871e-05 0)
(7.34605 -0.00038992 0)
(7.34939 -0.00104499 0)
(7.3529 -0.00189992 0)
(7.35656 -0.00297378 0)
(7.36036 -0.00428973 0)
(7.36426 -0.00588322 0)
(7.36827 -0.00778766 0)
(7.37236 -0.0100441 0)
(7.37653 -0.0127024 0)
(7.38076 -0.0158171 0)
(7.38501 -0.0194467 0)
(7.38928 -0.0236575 0)
(7.39352 -0.0285229 0)
(7.3977 -0.0341215 0)
(7.40174 -0.0405373 0)
(7.40559 -0.0478599 0)
(7.40916 -0.0561827 0)
(7.41233 -0.0656009 0)
(7.41499 -0.0762087 0)
(7.41696 -0.0880966 0)
(7.41807 -0.101346 0)
(7.41811 -0.116026 0)
(7.41684 -0.132183 0)
(7.41397 -0.149844 0)
(7.40922 -0.168986 0)
(7.40221 -0.189604 0)
(7.39276 -0.211422 0)
(7.33307 -0.000149655 0)
(7.33375 -0.000312986 0)
(7.33515 -0.000470962 0)
(7.33708 -0.000710013 0)
(7.33939 -0.00105977 0)
(7.34202 -0.00154388 0)
(7.3449 -0.00218319 0)
(7.34798 -0.00299431 0)
(7.35123 -0.00399569 0)
(7.3546 -0.00521021 0)
(7.35809 -0.00666479 0)
(7.36166 -0.00839214 0)
(7.36531 -0.0104268 0)
(7.36901 -0.0128088 0)
(7.37275 -0.0155836 0)
(7.37649 -0.0188013 0)
(7.38022 -0.0225158 0)
(7.3839 -0.0267861 0)
(7.38748 -0.0316761 0)
(7.39092 -0.0372536 0)
(7.39414 -0.0435894 0)
(7.39708 -0.050757 0)
(7.39964 -0.0588304 0)
(7.4017 -0.067882 0)
(7.40313 -0.0779799 0)
(7.40378 -0.0891848 0)
(7.40347 -0.101545 0)
(7.402 -0.115093 0)
(7.39915 -0.129837 0)
(7.39465 -0.145764 0)
(7.38828 -0.162812 0)
(7.37968 -0.18093 0)
(7.36874 -0.199831 0)
(7.33306 -0.000337804 0)
(7.33366 -0.000857862 0)
(7.33492 -0.00132614 0)
(7.33666 -0.00182675 0)
(7.33876 -0.00239827 0)
(7.34116 -0.00307116 0)
(7.3438 -0.00387201 0)
(7.34662 -0.00482275 0)
(7.34959 -0.00594575 0)
(7.35268 -0.00726638 0)
(7.35586 -0.0088132 0)
(7.3591 -0.0106187 0)
(7.36239 -0.012718 0)
(7.3657 -0.0151502 0)
(7.369 -0.0179583 0)
(7.37227 -0.0211888 0)
(7.37547 -0.0248908 0)
(7.37857 -0.029117 0)
(7.3815 -0.0339224 0)
(7.38423 -0.0393642 0)
(7.38666 -0.0455003 0)
(7.38873 -0.0523879 0)
(7.39034 -0.0600825 0)
(7.39137 -0.0686348 0)
(7.3917 -0.0780885 0)
(7.39116 -0.0884765 0)
(7.3896 -0.0998178 0)
(7.38684 -0.112113 0)
(7.38266 -0.125341 0)
(7.37685 -0.139451 0)
(7.3692 -0.154356 0)
(7.35941 -0.169971 0)
(7.34741 -0.186008 0)
(7.33305 -0.000510335 0)
(7.33359 -0.0013581 0)
(7.33471 -0.00211578 0)
(7.33627 -0.00286406 0)
(7.33817 -0.00364716 0)
(7.34034 -0.00450101 0)
(7.34273 -0.00545724 0)
(7.34529 -0.00654293 0)
(7.34798 -0.00778449 0)
(7.35076 -0.00921007 0)
(7.35362 -0.0108497 0)
(7.35652 -0.0127359 0)
(7.35943 -0.014903 0)
(7.36233 -0.0173876 0)
(7.36519 -0.020229 0)
(7.36798 -0.0234685 0)
(7.37065 -0.0271491 0)
(7.37317 -0.0313151 0)
(7.37548 -0.036012 0)
(7.37751 -0.041285 0)
(7.3792 -0.0471783 0)
(7.38046 -0.0537335 0)
(7.3812 -0.0609881 0)
(7.3813 -0.0689726 0)
(7.38063 -0.0777083 0)
(7.37907 -0.0872048 0)
(7.37645 -0.0974559 0)
(7.37261 -0.108437 0)
(7.36737 -0.120099 0)
(7.36055 -0.13237 0)
(7.35196 -0.14514 0)
(7.34136 -0.158301 0)
(7.32872 -0.171574 0)
(7.33305 -0.000667375 0)
(7.33352 -0.00181474 0)
(7.33451 -0.00284018 0)
(7.3359 -0.00382011 0)
(7.3376 -0.004802 0)
(7.33954 -0.0058256 0)
(7.34168 -0.00692604 0)
(7.34397 -0.00813369 0)
(7.34638 -0.00947752 0)
(7.34886 -0.010987 0)
(7.3514 -0.0126925 0)
(7.35395 -0.0146257 0)
(7.35649 -0.0168194 0)
(7.35899 -0.0193078 0)
(7.36142 -0.0221263 0)
(7.36373 -0.0253113 0)
(7.3659 -0.0288996 0)
(7.36786 -0.0329281 0)
(7.36957 -0.0374328 0)
(7.37096 -0.0424481 0)
(7.37195 -0.0480056 0)
(7.37247 -0.0541324 0)
(7.37242 -0.0608495 0)
(7.3717 -0.0681694 0)
(7.37018 -0.0760946 0)
(7.36775 -0.0846142 0)
(7.36425 -0.0937013 0)
(7.35956 -0.103311 0)
(7.35351 -0.113375 0)
(7.34595 -0.123805 0)
(7.33674 -0.134477 0)
(7.32568 -0.14527 0)
(7.31277 -0.15592 0)
(7.33304 -0.000809389 0)
(7.33346 -0.00222848 0)
(7.33433 -0.00349894 0)
(7.33555 -0.0046927 0)
(7.33705 -0.00585872 0)
(7.33877 -0.00703928 0)
(7.34066 -0.00827206 0)
(7.34269 -0.00959008 0)
(7.34481 -0.0110244 0)
(7.34699 -0.0126056 0)
(7.34919 -0.0143644 0)
(7.35139 -0.0163317 0)
(7.35356 -0.0185383 0)
(7.35566 -0.0210155 0)
(7.35766 -0.0237946 0)
(7.35951 -0.0269065 0)
(7.36118 -0.0303813 0)
(7.36261 -0.0342477 0)
(7.36376 -0.0385324 0)
(7.36454 -0.0432589 0)
(7.3649 -0.0484465 0)
(7.36475 -0.0541085 0)
(7.36401 -0.0602512 0)
(7.36257 -0.0668718 0)
(7.36034 -0.0739559 0)
(7.35719 -0.0814762 0)
(7.35301 -0.0893896 0)
(7.34767 -0.0976356 0)
(7.34105 -0.106134 0)
(7.33303 -0.114784 0)
(7.32348 -0.123457 0)
(7.31227 -0.132026 0)
(7.29941 -0.140245 0)
(7.33304 -0.000936487 0)
(7.33339 -0.00259952 0)
(7.33415 -0.00409136 0)
(7.33521 -0.00547945 0)
(7.33652 -0.00681292 0)
(7.33801 -0.00813537 0)
(7.33967 -0.00948594 0)
(7.34143 -0.0108991 0)
(7.34326 -0.012407 0)
(7.34513 -0.0140405 0)
(7.34701 -0.0158295 0)
(7.34887 -0.0178035 0)
(7.35067 -0.019991 0)
(7.35238 -0.02242 0)
(7.35396 -0.0251172 0)
(7.35537 -0.0281084 0)
(7.35657 -0.0314171 0)
(7.35751 -0.0350646 0)
(7.35813 -0.0390688 0)
(7.35837 -0.0434435 0)
(7.35816 -0.048197 0)
(7.35743 -0.053331 0)
(7.35609 -0.0588394 0)
(7.35406 -0.0647059 0)
(7.35124 -0.0709034 0)
(7.34754 -0.0773916 0)
(7.34285 -0.0841155 0)
(7.33707 -0.0910046 0)
(7.33011 -0.0979704 0)
(7.32186 -0.104908 0)
(7.31224 -0.111688 0)
(7.30113 -0.118184 0)
(7.2886 -0.12417 0)
(7.33303 -0.00104863 0)
(7.33334 -0.00292762 0)
(7.33398 -0.00461649 0)
(7.33489 -0.00617821 0)
(7.336 -0.00766121 0)
(7.33729 -0.00910956 0)
(7.3387 -0.0105632 0)
(7.3402 -0.0120574 0)
(7.34175 -0.013625 0)
(7.34332 -0.0152967 0)
(7.34488 -0.0171018 0)
(7.3464 -0.0190679 0)
(7.34784 -0.0212211 0)
(7.34917 -0.0235858 0)
(7.35035 -0.0261846 0)
(7.35134 -0.0290376 0)
(7.3521 -0.0321621 0)
(7.35258 -0.0355719 0)
(7.35272 -0.0392768 0)
(7.35247 -0.0432815 0)
(7.35176 -0.0475845 0)
(7.35053 -0.0521775 0)
(7.3487 -0.0570433 0)
(7.34619 -0.0621553 0)
(7.34293 -0.0674761 0)
(7.33883 -0.072956 0)
(7.3338 -0.0785323 0)
(7.32777 -0.0841284 0)
(7.32066 -0.0896525 0)
(7.31239 -0.0949989 0)
(7.30293 -0.100043 0)
(7.29216 -0.104662 0)
(7.28018 -0.108652 0)
(7.33302 -0.00114569 0)
(7.33328 -0.00321238 0)
(7.33382 -0.00507311 0)
(7.33458 -0.00678633 0)
(7.33551 -0.00839899 0)
(7.33658 -0.00995465 0)
(7.33775 -0.011493 0)
(7.339 -0.0130495 0)
(7.34027 -0.0146564 0)
(7.34154 -0.0163439 0)
(7.34279 -0.0181398 0)
(7.34398 -0.0200699 0)
(7.34507 -0.0221576 0)
(7.34603 -0.0244237 0)
(7.34683 -0.0268867 0)
(7.34743 -0.0295617 0)
(7.34778 -0.0324602 0)
(7.34784 -0.0355896 0)
(7.34756 -0.0389526 0)
(7.34688 -0.0425461 0)
(7.34575 -0.0463606 0)
(7.34411 -0.0503793 0)
(7.34188 -0.0545769 0)
(7.33902 -0.058919 0)
(7.33543 -0.0633607 0)
(7.33107 -0.0678466 0)
(7.32587 -0.0723096 0)
(7.31976 -0.0766707 0)
(7.31268 -0.0808383 0)
(7.30459 -0.0847101 0)
(7.29546 -0.0881683 0)
(7.28523 -0.0910996 0)
(7.27398 -0.0933237 0)
(7.33302 -0.00122753 0)
(7.33322 -0.00345343 0)
(7.33366 -0.00546052 0)
(7.33428 -0.00730287 0)
(7.33504 -0.00902563 0)
(7.3359 -0.0106715 0)
(7.33685 -0.0122799 0)
(7.33784 -0.0138858 0)
(7.33885 -0.0155211 0)
(7.33984 -0.017215 0)
(7.34078 -0.0189938 0)
(7.34165 -0.020881 0)
(7.34242 -0.0228971 0)
(7.34304 -0.0250594 0)
(7.34349 -0.0273818 0)
(7.34372 -0.0298747 0)
(7.34371 -0.0325441 0)
(7.3434 -0.0353914 0)
(7.34274 -0.0384129 0)
(7.3417 -0.0415987 0)
(7.34022 -0.0449328 0)
(7.33825 -0.0483916 0)
(7.33573 -0.0519435 0)
(7.33261 -0.0555485 0)
(7.32883 -0.0591576 0)
(7.32434 -0.062712 0)
(7.3191 -0.0661431 0)
(7.31305 -0.0693726 0)
(7.30617 -0.0723122 0)
(7.29841 -0.0748656 0)
(7.28978 -0.0769246 0)
(7.28022 -0.0783869 0)
(7.26985 -0.0790953 0)
(7.33302 -0.00129402 0)
(7.33317 -0.00365029 0)
(7.33351 -0.00577729 0)
(7.33399 -0.00772436 0)
(7.33458 -0.00953402 0)
(7.33525 -0.0112472 0)
(7.33597 -0.0129018 0)
(7.33672 -0.0145317 0)
(7.33746 -0.0161678 0)
(7.33817 -0.0178378 0)
(7.33883 -0.0195667 0)
(7.33939 -0.0213757 0)
(7.33984 -0.0232829 0)
(7.34014 -0.0253028 0)
(7.34026 -0.0274458 0)
(7.34017 -0.0297182 0)
(7.33982 -0.0321217 0)
(7.33918 -0.0346528 0)
(7.33822 -0.0373028 0)
(7.33688 -0.0400568 0)
(7.33512 -0.0428935 0)
(7.3329 -0.0457847 0)
(7.33018 -0.0486946 0)
(7.32691 -0.0515801 0)
(7.32305 -0.0543897 0)
(7.31855 -0.0570639 0)
(7.3134 -0.0595352 0)
(7.30755 -0.0617282 0)
(7.30099 -0.0635602 0)
(7.2937 -0.0649425 0)
(7.28568 -0.0657782 0)
(7.27692 -0.0659766 0)
(7.26752 -0.0654031 0)
(7.33301 -0.00134518 0)
(7.33313 -0.00380333 0)
(7.33337 -0.00602485 0)
(7.33373 -0.00805477 0)
(7.33415 -0.00993347 0)
(7.33464 -0.0117005 0)
(7.33515 -0.0133926 0)
(7.33567 -0.0150426 0)
(7.33617 -0.0166801 0)
(7.33663 -0.0183311 0)
(7.33701 -0.0200184 0)
(7.3373 -0.0217606 0)
(7.33746 -0.0235727 0)
(7.33747 -0.0254656 0)
(7.3373 -0.0274461 0)
(7.33691 -0.0295162 0)
(7.33628 -0.0316735 0)
(7.33537 -0.0339102 0)
(7.33414 -0.0362132 0)
(7.33256 -0.0385637 0)
(7.3306 -0.0409367 0)
(7.32821 -0.0433009 0)
(7.32537 -0.0456185 0)
(7.32204 -0.0478448 0)
(7.31819 -0.0499282 0)
(7.31379 -0.0518107 0)
(7.30883 -0.0534278 0)
(7.30328 -0.0547092 0)
(7.29715 -0.0555791 0)
(7.29042 -0.0559585 0)
(7.28311 -0.0557619 0)
(7.27522 -0.0549115 0)
(7.26685 -0.0532935 0)
(7.33301 -0.00138101 0)
(7.33308 -0.00391189 0)
(7.33324 -0.00619982 0)
(7.33347 -0.00828424 0)
(7.33374 -0.010202 0)
(7.33405 -0.0119898 0)
(7.33436 -0.0136826 0)
(7.33465 -0.0153117 0)
(7.33491 -0.0169055 0)
(7.33512 -0.0184891 0)
(7.33524 -0.020084 0)
(7.33526 -0.0217074 0)
(7.33515 -0.0233728 0)
(7.33489 -0.0250889 0)
(7.33445 -0.0268601 0)
(7.3338 -0.028686 0)
(7.33292 -0.0305611 0)
(7.33178 -0.0324748 0)
(7.33035 -0.0344111 0)
(7.3286 -0.0363485 0)
(7.3265 -0.0382599 0)
(7.32402 -0.0401123 0)
(7.32114 -0.0418669 0)
(7.31784 -0.0434792 0)
(7.31409 -0.0448989 0)
(7.30988 -0.0460707 0)
(7.3052 -0.0469345 0)
(7.30005 -0.0474259 0)
(7.29442 -0.0474769 0)
(7.28833 -0.0470178 0)
(7.2818 -0.0459751 0)
(7.27483 -0.0442828 0)
(7.26753 -0.0418462 0)
(7.333 -0.00140212 0)
(7.33304 -0.00397947 0)
(7.33312 -0.00631241 0)
(7.33324 -0.00843661 0)
(7.33339 -0.0103871 0)
(7.33353 -0.0121989 0)
(7.33367 -0.013905 0)
(7.33377 -0.0155347 0)
(7.33382 -0.0171141 0)
(7.33381 -0.0186656 0)
(7.3337 -0.0202078 0)
(7.33349 -0.0217552 0)
(7.33314 -0.0233178 0)
(7.33265 -0.0249015 0)
(7.33198 -0.0265077 0)
(7.33111 -0.028133 0)
(7.33003 -0.0297693 0)
(7.3287 -0.0314036 0)
(7.32711 -0.0330181 0)
(7.32524 -0.0345899 0)
(7.32305 -0.036091 0)
(7.32054 -0.0374884 0)
(7.31768 -0.038744 0)
(7.31447 -0.0398151 0)
(7.31089 -0.0406546 0)
(7.30693 -0.0412112 0)
(7.3026 -0.0414307 0)
(7.29789 -0.0412559 0)
(7.29283 -0.0406275 0)
(7.28742 -0.0394859 0)
(7.28169 -0.0377696 0)
(7.27566 -0.0354245 0)
(7.26943 -0.0323731 0)
(7.333 -0.00140847 0)
(7.333 -0.004002 0)
(7.33301 -0.00634536 0)
(7.33302 -0.00846683 0)
(7.33302 -0.0103975 0)
(7.33301 -0.0121705 0)
(7.33296 -0.013818 0)
(7.33286 -0.0153693 0)
(7.3327 -0.0168508 0)
(7.33247 -0.0182852 0)
(7.33214 -0.0196909 0)
(7.33171 -0.021082 0)
(7.33115 -0.0224679 0)
(7.33044 -0.0238537 0)
(7.32957 -0.0252392 0)
(7.32853 -0.0266197 0)
(7.32728 -0.0279855 0)
(7.32582 -0.0293223 0)
(7.32413 -0.0306108 0)
(7.32219 -0.0318276 0)
(7.31999 -0.0329444 0)
(7.31751 -0.0339287 0)
(7.31475 -0.0347439 0)
(7.31169 -0.0353496 0)
(7.30835 -0.0357021 0)
(7.30471 -0.0357547 0)
(7.30078 -0.0354587 0)
(7.29658 -0.0347637 0)
(7.29212 -0.0336183 0)
(7.28742 -0.0319721 0)
(7.28252 -0.0297737 0)
(7.27743 -0.0269797 0)
(7.27226 -0.023527 0)
(7.333 -0.00140289 0)
(7.33297 -0.00399676 0)
(7.33293 -0.00634836 0)
(7.33288 -0.00848326 0)
(7.33279 -0.0104305 0)
(7.33266 -0.0122193 0)
(7.33248 -0.0138773 0)
(7.33223 -0.0154295 0)
(7.33191 -0.0168985 0)
(7.3315 -0.0183032 0)
(7.33099 -0.019659 0)
(7.33037 -0.020977 0)
(7.32962 -0.0222641 0)
(7.32874 -0.0235229 0)
(7.3277 -0.0247519 0)
(7.3265 -0.0259451 0)
(7.32512 -0.0270926 0)
(7.32355 -0.0281798 0)
(7.32178 -0.0291881 0)
(7.3198 -0.0300947 0)
(7.3176 -0.0308731 0)
(7.31518 -0.0314931 0)
(7.31254 -0.031921 0)
(7.30967 -0.0321201 0)
(7.30658 -0.0320515 0)
(7.30328 -0.0316743 0)
(7.29978 -0.0309465 0)
(7.29609 -0.0298256 0)
(7.29224 -0.0282694 0)
(7.28825 -0.0262368 0)
(7.28416 -0.023687 0)
(7.27998 -0.0205866 0)
(7.27582 -0.0168861 0)
(7.33299 -0.00138286 0)
(7.33293 -0.00393525 0)
(7.33283 -0.00622701 0)
(7.33267 -0.00827627 0)
(7.33246 -0.0101137 0)
(7.33218 -0.011773 0)
(7.33184 -0.0132862 0)
(7.33143 -0.014683 0)
(7.33094 -0.0159884 0)
(7.33036 -0.0172229 0)
(7.32968 -0.0184022 0)
(7.3289 -0.0195377 0)
(7.328 -0.0206361 0)
(7.32697 -0.0216993 0)
(7.32581 -0.0227248 0)
(7.32451 -0.0237055 0)
(7.32305 -0.02463 0)
(7.32144 -0.0254829 0)
(7.31966 -0.0262452 0)
(7.31771 -0.0268945 0)
(7.31558 -0.0274052 0)
(7.31329 -0.027749 0)
(7.31083 -0.0278949 0)
(7.3082 -0.0278099 0)
(7.30542 -0.0274591 0)
(7.3025 -0.0268064 0)
(7.29946 -0.0258153 0)
(7.2963 -0.0244492 0)
(7.29307 -0.0226726 0)
(7.28978 -0.0204513 0)
(7.28648 -0.0177525 0)
(7.28317 -0.0145504 0)
(7.27995 -0.0108058 0)
(7.333 -0.00136217 0)
(7.33295 -0.00390451 0)
(7.33286 -0.00621617 0)
(7.3327 -0.00830724 0)
(7.33246 -0.0101975 0)
(7.33213 -0.0119087 0)
(7.33171 -0.0134634 0)
(7.33119 -0.0148841 0)
(7.33058 -0.0161915 0)
(7.32986 -0.0174035 0)
(7.32903 -0.0185345 0)
(7.32809 -0.0195945 0)
(7.32704 -0.0205893 0)
(7.32587 -0.0215208 0)
(7.32458 -0.0223873 0)
(7.32316 -0.0231833 0)
(7.32162 -0.0238999 0)
(7.31994 -0.0245244 0)
(7.31813 -0.0250407 0)
(7.3162 -0.0254297 0)
(7.31413 -0.025669 0)
(7.31195 -0.0257336 0)
(7.30965 -0.0255965 0)
(7.30725 -0.0252292 0)
(7.30476 -0.0246024 0)
(7.3022 -0.0236866 0)
(7.29959 -0.0224522 0)
(7.29695 -0.0208707 0)
(7.29431 -0.0189143 0)
(7.29169 -0.0165575 0)
(7.28913 -0.0137758 0)
(7.28664 -0.0105515 0)
(7.28432 -0.0068551 0)
(7.33298 -0.00131776 0)
(7.33288 -0.00372816 0)
(7.3327 -0.00583835 0)
(7.33244 -0.00767967 0)
(7.33209 -0.00930082 0)
(7.33166 -0.0107405 0)
(7.33113 -0.0120334 0)
(7.33051 -0.0132101 0)
(7.32979 -0.0142943 0)
(7.32897 -0.0153028 0)
(7.32805 -0.0162474 0)
(7.32704 -0.0171362 0)
(7.32591 -0.0179733 0)
(7.32469 -0.0187591 0)
(7.32336 -0.019489 0)
(7.32192 -0.020155 0)
(7.32038 -0.0207456 0)
(7.31873 -0.0212468 0)
(7.31699 -0.0216422 0)
(7.31515 -0.0219136 0)
(7.31322 -0.0220405 0)
(7.31122 -0.0220009 0)
(7.30915 -0.021771 0)
(7.30702 -0.0213261 0)
(7.30486 -0.0206406 0)
(7.30269 -0.0196888 0)
(7.30052 -0.0184453 0)
(7.29837 -0.0168856 0)
(7.29628 -0.0149866 0)
(7.29427 -0.0127271 0)
(7.29237 -0.0100876 0)
(7.2906 -0.00705435 0)
(7.28905 -0.00360481 0)
(7.33301 -0.0013325 0)
(7.33306 -0.00387348 0)
(7.33305 -0.00617458 0)
(7.33289 -0.00821214 0)
(7.33258 -0.0100025 0)
(7.33213 -0.0115721 0)
(7.33154 -0.0129489 0)
(7.33082 -0.0141598 0)
(7.32998 -0.0152295 0)
(7.32902 -0.0161801 0)
(7.32795 -0.0170299 0)
(7.32677 -0.0177907 0)
(7.3255 -0.0184687 0)
(7.32413 -0.0190667 0)
(7.32268 -0.0195853 0)
(7.32113 -0.0200227 0)
(7.31952 -0.0203741 0)
(7.31782 -0.0206306 0)
(7.31607 -0.0207803 0)
(7.31426 -0.0208082 0)
(7.3124 -0.0206976 0)
(7.31051 -0.02043 0)
(7.30861 -0.0199864 0)
(7.30671 -0.0193472 0)
(7.30483 -0.0184928 0)
(7.30299 -0.0174039 0)
(7.30121 -0.016062 0)
(7.29952 -0.0144494 0)
(7.29795 -0.01255 0)
(7.29653 -0.0103495 0)
(7.29527 -0.00783523 0)
(7.29421 -0.00499882 0)
(7.29341 -0.00182498 0)
(7.33296 -0.00121669 0)
(7.33284 -0.00331685 0)
(7.33271 -0.00503847 0)
(7.3325 -0.00650965 0)
(7.33218 -0.00780377 0)
(7.33174 -0.00894751 0)
(7.33118 -0.00997309 0)
(7.33049 -0.0109077 0)
(7.32967 -0.0117681 0)
(7.32874 -0.0125651 0)
(7.32771 -0.0133058 0)
(7.32657 -0.0139941 0)
(7.32533 -0.0146313 0)
(7.32401 -0.0152161 0)
(7.32261 -0.0157438 0)
(7.32114 -0.0162073 0)
(7.3196 -0.0165971 0)
(7.31801 -0.0169022 0)
(7.31637 -0.0171101 0)
(7.3147 -0.0172074 0)
(7.31301 -0.0171798 0)
(7.31132 -0.0170121 0)
(7.30963 -0.0166889 0)
(7.30798 -0.016194 0)
(7.30639 -0.0155111 0)
(7.30486 -0.0146239 0)
(7.30344 -0.0135165 0)
(7.30213 -0.0121733 0)
(7.30097 -0.0105802 0)
(7.29999 -0.00872403 0)
(7.2992 -0.00659301 0)
(7.29863 -0.00417974 0)
(7.29833 -0.00147014 0)
(7.3331 -0.00159 0)
(7.33351 -0.00454657 0)
(7.33374 -0.0069413 0)
(7.33366 -0.00886826 0)
(7.33333 -0.0104329 0)
(7.33279 -0.0116944 0)
(7.33207 -0.012716 0)
(7.33119 -0.0135513 0)
(7.33016 -0.0142381 0)
(7.32902 -0.0148054 0)
(7.32777 -0.015275 0)
(7.32642 -0.0156622 0)
(7.325 -0.0159766 0)
(7.3235 -0.0162236 0)
(7.32195 -0.0164054 0)
(7.32035 -0.0165215 0)
(7.3187 -0.0165691 0)
(7.31704 -0.0165429 0)
(7.31536 -0.0164361 0)
(7.31369 -0.0162399 0)
(7.31205 -0.0159446 0)
(7.31044 -0.0155394 0)
(7.30889 -0.0150133 0)
(7.30742 -0.014355 0)
(7.30605 -0.0135534 0)
(7.30481 -0.0125981 0)
(7.30372 -0.0114788 0)
(7.30281 -0.0101867 0)
(7.3021 -0.00871376 0)
(7.30161 -0.00705394 0)
(7.30138 -0.00520227 0)
(7.30142 -0.00315803 0)
(7.30179 -0.00091304 0)
(7.333 -0.000853146 0)
(7.33331 -0.00226678 0)
(7.33382 -0.00341528 0)
(7.3341 -0.00446754 0)
(7.33416 -0.00542184 0)
(7.33402 -0.0062884 0)
(7.33368 -0.00709462 0)
(7.33316 -0.00784851 0)
(7.33248 -0.00855153 0)
(7.33165 -0.00920669 0)
(7.3307 -0.00981613 0)
(7.32964 -0.0103805 0)
(7.32849 -0.0108996 0)
(7.32725 -0.011372 0)
(7.32594 -0.0117952 0)
(7.32456 -0.0121655 0)
(7.32314 -0.0124782 0)
(7.32169 -0.0127279 0)
(7.32022 -0.0129085 0)
(7.31874 -0.013013 0)
(7.31727 -0.013034 0)
(7.31584 -0.0129638 0)
(7.31445 -0.0127941 0)
(7.31313 -0.0125164 0)
(7.31191 -0.0121222 0)
(7.3108 -0.011603 0)
(7.30983 -0.0109502 0)
(7.30903 -0.0101553 0)
(7.30841 -0.00920967 0)
(7.30801 -0.00810478 0)
(7.30786 -0.00683055 0)
(7.30796 -0.00537698 0)
(7.30839 -0.00372585 0)
(7.33443 -0.00404525 0)
(7.33926 -0.00799843 0)
(7.34478 -0.00997752 0)
(7.35052 -0.0113671 0)
(7.35634 -0.0122667 0)
(7.36196 -0.0128022 0)
(7.3672 -0.0131317 0)
(7.372 -0.0133274 0)
(7.37631 -0.0134246 0)
(7.3801 -0.01345 0)
(7.38333 -0.0134217 0)
(7.38603 -0.0133505 0)
(7.38819 -0.0132427 0)
(7.38982 -0.0131021 0)
(7.39095 -0.0129304 0)
(7.3916 -0.0127275 0)
(7.39179 -0.0124922 0)
(7.39157 -0.0122223 0)
(7.39095 -0.0119149 0)
(7.38998 -0.0115669 0)
(7.38868 -0.0111748 0)
(7.38711 -0.010735 0)
(7.3853 -0.0102444 0)
(7.3833 -0.00970014 0)
(7.38114 -0.00910005 0)
(7.37889 -0.00844279 0)
(7.3766 -0.00772823 0)
(7.37431 -0.00695764 0)
(7.37209 -0.00613377 0)
(7.37 -0.00526027 0)
(7.36811 -0.00434267 0)
(7.36648 -0.00338745 0)
(7.36522 -0.00240335 0)
(7.32964 -0.0042576 0)
(7.32353 -0.00906652 0)
(7.31323 -0.0119572 0)
(7.30072 -0.0140737 0)