/*--------------------------------*- C++ -*----------------------------------*\
  =========                 |
  \\      /  F ield         | OpenFOAM: The Open Source CFD Toolbox
   \\    /   O peration     | Website:  https://openfoam.org
    \\  /    A nd           | Version:  10
     \\/     M anipulation  |
\*---------------------------------------------------------------------------*/
FoamFile
{
    format      ascii;
    class       volScalarField;
    location    "0.145";
    object      k;
}
// * * * * * * * * * * * * * * * * * * * * * * * * * * * * * * * * * * * * * //

dimensions      [0 2 -2 0 0 0 0];

internalField   nonuniform List<scalar> 
6820
(
0.198345
0.194812
0.191216
0.187591
0.183981
0.180411
0.176888
0.173414
0.16999
0.166613
0.163281
0.159991
0.15674
0.153523
0.150337
0.147175
0.144031
0.140899
0.137768
0.134627
0.131465
0.128263
0.125005
0.121667
0.118224
0.114644
0.11089
0.106916
0.102673
0.0980738
0.0930651
0.0874541
0.0808109
0.200925
0.200903
0.200478
0.200031
0.199589
0.199147
0.198698
0.19824
0.197772
0.197294
0.196806
0.19631
0.195807
0.195296
0.19478
0.19426
0.193735
0.193207
0.192675
0.192141
0.191602
0.191057
0.190502
0.189933
0.189341
0.188715
0.18804
0.187294
0.18645
0.185457
0.184293
0.182758
0.181112
0.236731
0.0166089
0.0086038
0.0103628
0.0071831
0.00786494
0.00964868
0.0116801
0.0139063
0.0162528
0.0186887
0.0211989
0.023773
0.0264043
0.0290891
0.0318257
0.0346147
0.0374591
0.040364
0.0433368
0.0463875
0.0495283
0.0527741
0.0561425
0.0596534
0.0633293
0.0671953
0.0712787
0.0756105
0.0802261
0.0851637
0.0904927
0.0962166
0.210779
0.147915
0.104873
0.0795661
0.0639801
0.0534508
0.0456953
0.0396077
0.034615
0.0303959
0.0267577
0.0235784
0.0207775
0.0183018
0.0161156
0.0141961
0.0125289
0.0111046
0.00991629
0.00895619
0.0082144
0.00767879
0.00733648
0.00717624
0.00719077
0.00737865
0.0077458
0.00830698
0.0090864
0.010123
0.0114605
0.0131907
0.0153229
0.223344
0.0833777
0.0215604
0.00433439
0.000752294
0.00044822
0.000748271
0.00107052
0.00134537
0.0015871
0.00180733
0.00200882
0.00218994
0.00234781
0.0024797
0.00258361
0.00265837
0.00270359
0.00271956
0.00270705
0.00266712
0.00260097
0.00250977
0.00239467
0.00225674
0.00209713
0.00191721
0.00171881
0.00150504
0.00128018
0.00105007
0.000825961
0.000621455
0.21689
0.116362
0.0558215
0.0314401
0.0216587
0.0168022
0.0133925
0.0103585
0.00750538
0.00497973
0.00299179
0.00162889
0.000814501
0.000384639
0.000179642
8.90173e-05
5.17664e-05
3.8981e-05
3.79211e-05
4.30451e-05
5.19028e-05
6.32243e-05
7.60193e-05
8.92483e-05
0.000101382
0.00011135
0.000114095
0.000119319
9.12024e-05
5.07614e-05
6.92549e-05
0.000142115
0.000163855
0.213215
0.134468
0.0701758
0.0381913
0.0238619
0.0170616
0.0133591
0.0110622
0.0094884
0.00833259
0.0074452
0.00675574
0.00625134
0.00594228
0.00580254
0.00574719
0.0056737
0.00551389
0.00524298
0.00484184
0.0043258
0.00375034
0.00319224
0.00271877
0.00236439
0.00212892
0.0019911
0.0019236
0.00189985
0.00190049
0.00191586
0.00193732
0.00195556
0.204019
0.179915
0.135247
0.08396
0.0486577
0.0292616
0.0191247
0.0136201
0.0103938
0.00834313
0.0069432
0.00593821
0.00523553
0.0048377
0.00473625
0.00484209
0.00502298
0.00518981
0.00532533
0.0054162
0.00546228
0.0054697
0.00543933
0.00537162
0.0052729
0.00515342
0.00502894
0.00491357
0.00481509
0.00473449
0.0046691
0.00461611
0.00457367
0.202772
0.185738
0.165236
0.134306
0.0981741
0.0674555
0.0455673
0.0312346
0.0220626
0.0161022
0.0120833
0.00924
0.00720457
0.00593751
0.00549526
0.00576643
0.00645194
0.00723242
0.00792334
0.00845161
0.00883826
0.00911204
0.009274
0.00931707
0.00924547
0.00907278
0.0088215
0.00852831
0.00822435
0.00792896
0.00765113
0.00739487
0.00716062
0.202176
0.188527
0.176442
0.163209
0.142177
0.114124
0.0853248
0.0611701
0.0432919
0.0308462
0.0223261
0.0164052
0.0123126
0.0100056
0.00976761
0.0114712
0.0143862
0.0175693
0.0203213
0.0224448
0.0240368
0.0251771
0.0258559
0.0260273
0.0256908
0.0249317
0.0238381
0.0225604
0.0212401
0.0199608
0.0187532
0.0176211
0.0165586
0.201767
0.190405
0.181104
0.173694
0.164607
0.151205
0.132535
0.110226
0.0875653
0.0673812
0.0510374
0.0386438
0.0300469
0.0257682
0.0264963
0.0316016
0.0388301
0.0456332
0.0506618
0.0539824
0.0561587
0.0575144
0.0579687
0.057194
0.0550231
0.0518094
0.04802
0.0439902
0.0401326
0.0366153
0.0334365
0.0305112
0.0277475
0.201483
0.191709
0.1843
0.179475
0.174904
0.168678
0.159082
0.145135
0.12753
0.108442
0.0904376
0.0755576
0.0652915
0.0609006
0.0628154
0.0695465
0.0779482
0.0850775
0.089769
0.0924518
0.0938975
0.0943291
0.093154
0.0891685
0.0817703
0.0723769
0.0628512
0.0539975
0.0463941
0.0400139
0.0346072
0.0299243
0.025807
0.201275
0.192659
0.1865
0.183143
0.18075
0.178215
0.174625
0.168954
0.16042
0.149052
0.136066
0.123601
0.113945
0.108746
0.108338
0.111426
0.115693
0.11916
0.121109
0.121833
0.121753
0.120715
0.117511
0.109662
0.0955642
0.0787912
0.063718
0.0515732
0.0423328
0.0354669
0.0304818
0.0269608
0.0245153
0.20113
0.193306
0.187985
0.185662
0.184564
0.183715
0.182484
0.18023
0.176396
0.170773
0.163761
0.156385
0.14994
0.145495
0.143466
0.143414
0.14428
0.145016
0.14511
0.144555
0.143388
0.141139
0.136014
0.123711
0.100801
0.0773118
0.0597713
0.0481184
0.0409319
0.0364682
0.033609
0.0320728
0.0318235
0.201031
0.193733
0.18896
0.187322
0.187095
0.187293
0.187457
0.187188
0.18609
0.183893
0.180612
0.17661
0.172482
0.168812
0.165953
0.163914
0.162406
0.161054
0.159595
0.157915
0.155881
0.153007
0.147668
0.134937
0.110922
0.0888814
0.0729532
0.0609666
0.0530336
0.048789
0.0473245
0.047734
0.0493209
0.200968
0.193974
0.189558
0.188355
0.188712
0.189546
0.190393
0.190941
0.190908
0.19009
0.188441
0.186105
0.183379
0.180598
0.178022
0.17575
0.17372
0.171789
0.169832
0.16775
0.165371
0.162218
0.157113
0.147856
0.130955
0.109455
0.0895724
0.0751962
0.0675167
0.064745
0.0651689
0.0673303
0.0700872
0.200935
0.194034
0.189842
0.18891
0.189624
0.190864
0.192117
0.193114
0.193649
0.193565
0.192793
0.191381
0.189482
0.187295
0.184997
0.182685
0.180381
0.178074
0.175752
0.173382
0.170818
0.167681
0.163155
0.155559
0.142961
0.124998
0.106851
0.0932219
0.0863497
0.0845437
0.0858477
0.0884729
0.0910471
0.200934
0.193898
0.18982
0.189069
0.189986
0.191456
0.192928
0.194127
0.194887
0.1951
0.194721
0.193781
0.192376
0.190623
0.188626
0.186456
0.184166
0.181806
0.179411
0.17696
0.174318
0.171153
0.166803
0.16007
0.149752
0.136189
0.122379
0.111953
0.106726
0.105627
0.107022
0.109212
0.110871
0.200964
0.193575
0.189488
0.188856
0.189897
0.19148
0.193059
0.194359
0.195234
0.195612
0.195466
0.194811
0.193695
0.192184
0.19035
0.188271
0.186026
0.183682
0.181278
0.178792
0.176108
0.172965
0.168892
0.163179
0.155235
0.145349
0.135459
0.12806
0.124172
0.123173
0.12395
0.125262
0.125974
0.201024
0.193066
0.188833
0.188262
0.189391
0.191035
0.192649
0.193974
0.194886
0.195328
0.195281
0.194758
0.193791
0.192433
0.190751
0.188824
0.186725
0.18451
0.182203
0.179777
0.177139
0.174099
0.170357
0.165538
0.159464
0.152544
0.145953
0.140961
0.138045
0.136791
0.13663
0.137032
0.137144
0.201118
0.192341
0.187828
0.187263
0.188457
0.190148
0.191779
0.193105
0.194017
0.194474
0.19447
0.194019
0.193153
0.19192
0.190379
0.188597
0.186635
0.184537
0.182323
0.179974
0.177427
0.174565
0.171205
0.167192
0.162545
0.157619
0.153072
0.149519
0.147118
0.145669
0.144944
0.144774
0.144644
0.201252
0.191341
0.186406
0.185807
0.187062
0.188803
0.190454
0.191778
0.192683
0.193144
0.193165
0.192768
0.191988
0.190871
0.189471
0.187842
0.186035
0.184088
0.182018
0.179815
0.177445
0.174845
0.171916
0.16862
0.165043
0.161434
0.158153
0.15548
0.153437
0.151987
0.151051
0.150575
0.15031
0.201437
0.189977
0.184463
0.183809
0.185142
0.186956
0.188648
0.189986
0.190897
0.191368
0.191415
0.191068
0.190363
0.189344
0.188061
0.186561
0.184889
0.183077
0.181145
0.179094
0.176912
0.174569
0.172021
0.169283
0.166446
0.163671
0.161154
0.159028
0.157306
0.155985
0.155024
0.154407
0.154026
0.20169
0.188116
0.181833
0.18112
0.182574
0.184506
0.186273
0.187656
0.188595
0.189096
0.189189
0.188909
0.188297
0.187397
0.186254
0.184913
0.183412
0.181783
0.180044
0.178206
0.176264
0.174192
0.171986
0.169683
0.167359
0.165121
0.163082
0.161328
0.159872
0.158695
0.157764
0.157076
0.156575
0.202038
0.18556
0.178289
0.17755
0.179215
0.181349
0.183262
0.184741
0.18575
0.186311
0.186466
0.186259
0.185737
0.184944
0.183924
0.182721
0.181371
0.179905
0.178344
0.176698
0.174969
0.173144
0.171236
0.169285
0.167346
0.165491
0.163786
0.162282
0.161
0.159932
0.159042
0.15833
0.157769
0.202524
0.18199
0.173449
0.172744
0.174743
0.177189
0.179334
0.180983
0.182125
0.182806
0.183083
0.183011
0.18264
0.182016
0.181184
0.180184
0.179051
0.177812
0.176477
0.175043
0.173515
0.171906
0.170239
0.168551
0.166886
0.16529
0.163806
0.162465
0.161281
0.160254
0.159364
0.158629
0.158051
0.20321
0.176961
0.166864
0.166382
0.168965
0.171929
0.174462
0.176393
0.177748
0.178601
0.17903
0.179104
0.178882
0.178415
0.17775
0.176926
0.175976
0.174927
0.173782
0.172541
0.171216
0.169825
0.168393
0.166951
0.165531
0.164165
0.162879
0.161693
0.160616
0.159648
0.158781
0.158046
0.157478
0.204216
0.169655
0.15757
0.15753
0.160986
0.164712
0.16783
0.170215
0.171945
0.173129
0.173865
0.174235
0.174304
0.174128
0.173753
0.173208
0.172508
0.171672
0.170716
0.169658
0.168519
0.16732
0.166085
0.16484
0.16361
0.162419
0.161284
0.16022
0.159233
0.158323
0.157487
0.156764
0.156203
0.205669
0.15927
0.145004
0.145994
0.150897
0.155792
0.15976
0.16277
0.164979
0.166554
0.167625
0.16829
0.168632
0.168713
0.168585
0.168279
0.167809
0.167194
0.166457
0.165618
0.164699
0.163722
0.162707
0.161677
0.160651
0.159645
0.158673
0.157745
0.156866
0.156039
0.15526
0.154573
0.154032
0.207885
0.144192
0.126973
0.129327
0.136192
0.142761
0.148052
0.152141
0.155269
0.157642
0.159411
0.160676
0.161529
0.162046
0.162283
0.162288
0.162097
0.161743
0.161251
0.160647
0.159952
0.159189
0.158378
0.157538
0.156688
0.15584
0.155007
0.154197
0.153414
0.152661
0.151938
0.151285
0.150754
0.211076
0.123212
0.103563
0.108391
0.11788
0.126443
0.133228
0.138522
0.142675
0.145937
0.148477
0.150415
0.151861
0.152902
0.153609
0.154037
0.154234
0.154238
0.154081
0.153789
0.153387
0.152896
0.152336
0.151726
0.151082
0.150415
0.149738
0.149058
0.148381
0.14771
0.147048
0.146431
0.145905
0.215277
0.098672
0.0754211
0.0814626
0.0924552
0.102516
0.111005
0.118138
0.124099
0.129005
0.13298
0.136153
0.138652
0.14059
0.142063
0.143147
0.143909
0.144401
0.144668
0.144746
0.144666
0.144456
0.144142
0.143743
0.143279
0.142764
0.142212
0.14163
0.141027
0.140407
0.139774
0.13916
0.138601
0.221649
0.0747927
0.0414556
0.0428651
0.0521435
0.0627078
0.0730443
0.0826318
0.0912443
0.0987682
0.10518
0.110532
0.114923
0.118472
0.121306
0.123541
0.125277
0.126597
0.127569
0.128247
0.128679
0.128902
0.12895
0.128849
0.128622
0.128287
0.12786
0.127356
0.126783
0.126151
0.125466
0.124757
0.124049
0.226764
0.0591958
0.0179169
0.0134741
0.0186338
0.0265697
0.0353325
0.0441196
0.0525539
0.0604215
0.0675708
0.0739076
0.0793981
0.0840643
0.0879675
0.0911877
0.0938082
0.0959051
0.0975445
0.098784
0.0996747
0.100262
0.100585
0.100678
0.100572
0.100291
0.099858
0.0992909
0.0986059
0.097817
0.0969351
0.0959825
0.0949746
0.228363
0.0576646
0.0125151
0.0037244
0.00475072
0.00870359
0.0136812
0.019032
0.0244092
0.0295963
0.0344523
0.0389001
0.0429108
0.0464825
0.0496257
0.0523556
0.0546909
0.0566518
0.05826
0.0595382
0.0605108
0.0612021
0.0616344
0.0618329
0.0618229
0.0616291
0.0612751
0.060783
0.0601728
0.0594625
0.0586673
0.0578054
0.056885
0.224941
0.074038
0.0269453
0.0148667
0.0125687
0.012957
0.0140647
0.0152888
0.0164086
0.0173788
0.0182319
0.0190328
0.0198478
0.0207172
0.0216491
0.0226411
0.0236798
0.0247336
0.0257647
0.0267386
0.0276252
0.0283991
0.0290406
0.0295421
0.0299045
0.0301328
0.0302355
0.0302229
0.0301069
0.0298999
0.0296136
0.0292604
0.0288515
0.21355
0.133476
0.0864168
0.0620685
0.0488162
0.0408309
0.0355149
0.0316859
0.028768
0.0264555
0.0245664
0.0229767
0.0216043
0.0203975
0.0193237
0.0183574
0.0174778
0.0166727
0.0159356
0.0152624
0.0146504
0.0140971
0.0136028
0.013168
0.0127909
0.0124676
0.0121927
0.0119602
0.0117636
0.011597
0.0114548
0.0113317
0.0112286
0.240252
0.000457414
0.0362321
2.23185e-05
0.000145822
9.12834e-05
0.000730452
0.000704734
0.000414506
0.000163393
0.000465454
0.00076894
0.000599916
0.00030659
0.000298686
0.000384815
0.00036871
0.000295141
0.000251115
0.000246399
0.000252665
0.000255114
0.000254152
0.000252111
0.000249302
0.000245474
0.00024063
0.000234886
0.000228317
0.000220969
0.00021288
0.00020414
0.000194691
0.200085
0.199948
0.199761
0.199574
0.19939
0.199206
0.199017
0.198819
0.19861
0.198389
0.198157
0.197913
0.197656
0.19739
0.197112
0.196812
0.196483
0.196129
0.195751
0.195355
0.194941
0.194512
0.194072
0.193624
0.19317
0.192709
0.192243
0.191773
0.191299
0.190822
0.190342
0.189863
0.189372
0.199878
0.199569
0.199236
0.198894
0.198553
0.198219
0.197898
0.19759
0.197297
0.19702
0.196759
0.196514
0.196283
0.196067
0.195865
0.195676
0.1955
0.195335
0.19518
0.195035
0.194898
0.194769
0.194644
0.194521
0.1944
0.194281
0.194163
0.194047
0.193934
0.193823
0.193714
0.193607
0.193502
0.0728134
0.0660998
0.0634764
0.0657166
0.0664212
0.0829069
0.118001
0.130693
0.108048
0.0725619
0.0373775
0.0440237
0.117546
0.110025
0.0811215
0.0746058
0.0711102
0.0683947
0.0692046
0.0784075
0.103238
0.150167
0.219894
0.290696
0.318179
0.28168
0.211736
0.144935
0.0978665
0.0665871
0.045628
0.0317018
0.0228389
0.0175878
0.0147965
0.0135856
0.0132187
0.0129695
0.0121227
0.010363
0.00785346
0.00519031
0.00315699
0.00235684
0.00300843
0.0050321
0.00820761
0.0121337
0.0160441
0.0188621
0.0190391
0.0159412
0.0113522
0.018749
0.0781815
0.172675
0.251302
0.302716
0.334097
0.347489
0.339712
0.31544
0.257299
0.155058
0.0610449
0.0268498
0.0457834
0.0834163
0.115288
0.133608
0.140557
0.141254
0.139776
0.138131
0.136815
0.135633
0.134198
0.132173
0.129473
0.126436
0.123594
0.121289
0.119123
0.115485
0.108448
0.0978035
0.0843098
0.0651509
0.0411321
0.0212237
0.0099597
0.00881403
0.0163977
0.0271553
0.0346716
0.0354163
0.0313707
0.0251547
0.0240886
0.0302592
0.176934
0.169648
0.160032
0.150097
0.146363
0.148331
0.140135
0.110023
0.0699362
0.0370039
0.0152709
0.0136094
0.0850856
0.117658
0.0887145
0.0764056
0.0727585
0.070599
0.0734644
0.0877112
0.122023
0.185394
0.276217
0.357897
0.373142
0.314729
0.227033
0.150023
0.0972629
0.0630433
0.0403763
0.0254859
0.016138
0.0105967
0.00747824
0.00577489
0.00479919
0.00408531
0.0033177
0.00247069
0.00173212
0.00143052
0.00186041
0.00317383
0.00544122
0.00872737
0.0129792
0.0177979
0.0223285
0.0253926
0.0256183
0.0216303
0.0148224
0.0121604
0.0487686
0.132494
0.216343
0.273841
0.306427
0.317876
0.310669
0.282261
0.210276
0.10925
0.0380018
0.025463
0.0526319
0.0896762
0.118604
0.134456
0.139979
0.140095
0.138521
0.136961
0.135735
0.134577
0.133091
0.130975
0.128202
0.12508
0.122085
0.119525
0.117006
0.112946
0.105181
0.09283
0.0767797
0.0566261
0.0335784
0.0158707
0.00689144
0.00774575
0.0166941
0.0278101
0.0347618
0.0346537
0.0301189
0.023874
0.0229342
0.0291423
0.103738
0.112581
0.120131
0.124874
0.123326
0.110194
0.0840714
0.0525949
0.0254157
0.0101221
0.00316571
0.00601297
0.0500608
0.110384
0.0981782
0.079534
0.0745288
0.073291
0.0785852
0.0983095
0.142578
0.222527
0.330698
0.411787
0.409451
0.33079
0.230533
0.148616
0.0935162
0.0578475
0.0343311
0.0192838
0.0103259
0.00538781
0.00282622
0.00155107
0.000932164
0.000651477
0.000594158
0.000807529
0.00140075
0.00247962
0.00413494
0.00650601
0.009807
0.0141921
0.0195156
0.0251834
0.030212
0.0334137
0.0335921
0.0292325
0.020888
0.0119813
0.0268782
0.0899862
0.17162
0.235382
0.272228
0.284745
0.276086
0.235903
0.154083
0.0673327
0.0232477
0.0284581
0.0602118
0.0955154
0.121458
0.134961
0.139152
0.138768
0.137163
0.135727
0.134604
0.133464
0.131921
0.129711
0.126826
0.123565
0.120384
0.117569
0.114734
0.11035
0.102093
0.0883154
0.0695369
0.0478297
0.0261005
0.0110635
0.00469011
0.00764372
0.0177891
0.0291388
0.0357429
0.0350121
0.0298887
0.0232341
0.0220621
0.0283196
0.0186321
0.0234401
0.0286436
0.0316657
0.0307859
0.0251923
0.0166291
0.00768627
0.00159524
0.000894022
0.0011384
0.00184224
0.0253401
0.0906986
0.104353
0.0848243
0.0764816
0.0760669
0.0839169
0.1087
0.161953
0.255186
0.370241
0.440887
0.42012
0.327093
0.22194
0.140815
0.0866576
0.0510528
0.0277077
0.013522
0.00595357
0.00250702
0.00123967
0.000989512
0.00120491
0.00168024
0.00236884
0.00331555
0.00458609
0.00628867
0.00862104
0.0118692
0.0162831
0.0218641
0.0282077
0.0345195
0.0397791
0.0429205
0.042916
0.038517
0.0293686
0.0171262
0.0154564
0.0522609
0.120305
0.184816
0.225725
0.240255
0.22626
0.174342
0.0967156
0.0358878
0.0176544
0.0347745
0.0679816
0.100871
0.123867
0.135118
0.138076
0.137285
0.135711
0.134425
0.133407
0.132278
0.130662
0.128324
0.125279
0.121828
0.118419
0.115333
0.112196
0.107536
0.0989519
0.084203
0.0631987
0.0396911
0.0192498
0.00687339
0.00314243
0.00816194
0.0192146
0.0303033
0.0360611
0.0344928
0.0289071
0.022206
0.0210812
0.0275681
0.000437849
0.000366479
0.000524847
0.000155941
0.000876019
0.00175765
0.00175505
0.00119519
0.000965347
0.00135483
0.00189025
0.000176813
0.00839732
0.0633954
0.101769
0.0916085
0.0792378
0.0784054
0.0884903
0.11699
0.176251
0.275219
0.38449
0.438615
0.402058
0.30386
0.202946
0.127944
0.0771883
0.0429223
0.0209318
0.00881143
0.00363507
0.00236481
0.00278047
0.0037011
0.00469237
0.00569221
0.00676783
0.00805309
0.00972023
0.0120157
0.0152474
0.0196841
0.0253888
0.0320807
0.0391247
0.0456562
0.0507551
0.0535746
0.0532798
0.0489629
0.0398303
0.0262468
0.0146393
0.0265387
0.0710198
0.12563
0.16533
0.179164
0.158935
0.106876
0.0498822
0.0184375
0.0193418
0.0426908
0.0754932
0.105759
0.125849
0.134917
0.136749
0.135653
0.134164
0.133035
0.132104
0.13096
0.129238
0.126727
0.123462
0.119753
0.116058
0.112673
0.109247
0.104345
0.0954831
0.0800408
0.0575881
0.032841
0.013676
0.00373055
0.00234667
0.00904733
0.0205954
0.031125
0.0359643
0.0336919
0.0278028
0.0211408
0.0200251
0.0266706
8.85118e-05
1.86882e-05
5.02975e-05
0.000109138
0.000155709
0.000267859
0.000570604
0.00120894
0.00203795
0.00270493
0.00343137
0.00206436
0.0045686
0.0348742
0.0869539
0.0962548
0.083703
0.0804832
0.0912887
0.121282
0.181742
0.276323
0.369654
0.404847
0.358355
0.265427
0.17704
0.111749
0.0656616
0.0338386
0.0146275
0.00589896
0.00397813
0.00525328
0.00738318
0.00932452
0.0108592
0.0121452
0.0134561
0.0151014
0.0173918
0.0206319
0.0250612
0.0307464
0.0374802
0.0447596
0.0518706
0.0580351
0.0625349
0.0647742
0.0641356
0.059953
0.0515022
0.0380579
0.0221334
0.0163798
0.0347917
0.0696048
0.0997463
0.10867
0.088214
0.051231
0.0219023
0.0136622
0.025338
0.0510693
0.082663
0.11021
0.12737
0.13433
0.135176
0.133882
0.132516
0.13153
0.130647
0.129443
0.127565
0.124825
0.121273
0.117235
0.113197
0.109487
0.105803
0.100743
0.091735
0.075886
0.0526889
0.0275169
0.0095891
0.00176214
0.00231992
0.0102855
0.0219708
0.0316308
0.0352833
0.0322156
0.0261143
0.0196978
0.0187455
0.02564
0.001966
0.00197456
0.00200041
0.00206627
0.00221126
0.00248236
0.00290092
0.00338717
0.00381179
0.00403459
0.00438908
0.00404827
0.00046736
0.0142319
0.0616217
0.0922507
0.0892202
0.0833396
0.0917588
0.12016
0.176292
0.257542
0.329355
0.346584
0.297706
0.219394
0.148541
0.093735
0.0524484
0.0243409
0.00967521
0.0056443
0.00752118
0.0113822
0.0150782
0.017904
0.0199507
0.0216426
0.0234394
0.0257537
0.0289228
0.0331739
0.0385717
0.0449623
0.0519577
0.058989
0.0654172
0.0706465
0.0741886
0.0756713
0.0746825
0.0707212
0.0633006
0.0511996
0.0347508
0.0200494
0.0183118
0.0311304
0.0463419
0.0492611
0.0363378
0.0199633
0.0124316
0.016959
0.0331137
0.0594318
0.0895207
0.114187
0.128368
0.133341
0.133366
0.131975
0.130743
0.12986
0.128966
0.127637
0.12554
0.122504
0.118596
0.114165
0.109733
0.105685
0.101784
0.0966746
0.0877086
0.0717844
0.0484184
0.0234766
0.00680865
0.000782591
0.00292616
0.011798
0.0232927
0.031896
0.0343913
0.030688
0.0244977
0.0183271
0.0174395
0.02447
0.00454017
0.00451857
0.00450743
0.00451698
0.00456908
0.00467336
0.00477635
0.00478084
0.00469903
0.00464491
0.00476931
0.00531249
0.0027579
0.00282632
0.0332346
0.0755013
0.0909057
0.0878392
0.0912014
0.1136
0.160084
0.22293
0.272174
0.275197
0.232276
0.174359
0.120806
0.0745269
0.0381866
0.0157053
0.00742375
0.00891757
0.0146423
0.0208716
0.0259594
0.0296104
0.0322551
0.0346258
0.0371908
0.0402992
0.0442019
0.0490063
0.0546394
0.0608377
0.0671811
0.0731725
0.0783312
0.0822601
0.0846661
0.085343
0.0840348
0.0803909
0.0740839
0.0640384
0.0494292
0.0325209
0.0201022
0.0168383
0.0186709
0.0178305
0.0136959
0.0117176
0.0148098
0.0237765
0.0413514
0.0677261
0.0960611
0.117591
0.128778
0.131945
0.131332
0.129916
0.128798
0.127945
0.126955
0.12542
0.123028
0.119625
0.115299
0.110425
0.105565
0.101176
0.0971093
0.0920771
0.0833842
0.0677824
0.0448024
0.0205539
0.0050728
0.000539657
0.00403011
0.013545
0.0245458
0.0318796
0.0331593
0.0288818
0.0226829
0.0168272
0.0160458
0.0232124
0.00693084
0.00670157
0.00652711
0.00641099
0.00631722
0.00614862
0.00582066
0.00541068
0.00514367
0.0051603
0.00525227
0.00571867
0.00520079
0.00086713
0.0117199
0.0484457
0.080784
0.0905189
0.0922855
0.105315
0.137416
0.180053
0.209275
0.205184
0.17525
0.136405
0.0943214
0.054101
0.0241996
0.00986283
0.00929529
0.0163439
0.0254591
0.0336461
0.0398324
0.0437953
0.0466633
0.0497592
0.0531134
0.056813
0.0609856
0.0656703
0.0707587
0.0760004
0.0810549
0.0855645
0.089216
0.0917727
0.0930742
0.0930166
0.091445
0.088139
0.0828708
0.0749371
0.0633154
0.0482486
0.0331078
0.0222568
0.0164316
0.0137916
0.0139906
0.0169896
0.0220093
0.0313505
0.0496604
0.0760029
0.102183
0.120285
0.128546
0.130149
0.12907
0.127662
0.126592
0.125665
0.12447
0.12263
0.119859
0.116027
0.11124
0.105898
0.100608
0.0958982
0.0917279
0.0869071
0.0787413
0.063883
0.0418089
0.0186003
0.0041487
0.000864198
0.00555669
0.0154354
0.0256114
0.0315315
0.0317007
0.0270522
0.0209729
0.0154303
0.0146663
0.0218575
0.0154548
0.0142647
0.0130885
0.0118554
0.0105143
0.00914969
0.00806632
0.00764101
0.00792327
0.00841755
0.00831544
0.00758077
0.0070683
0.0036365
0.00214121
0.0213272
0.0560999
0.0818005
0.0920558
0.100014
0.117617
0.141289
0.155763
0.151916
0.133935
0.104522
0.0673356
0.0334718
0.013165
0.00909062
0.0163483
0.0281169
0.0397286
0.0491973
0.0557644
0.0575716
0.058955
0.0628122
0.0672712
0.0716294
0.0758705
0.0800829
0.0842511
0.0882423
0.0918575
0.0948886
0.097157
0.0985293
0.0989183
0.098272
0.0964923
0.093447
0.0889906
0.0827374
0.0740244
0.0624313
0.0491933
0.0372307
0.0288999
0.0250659
0.024916
0.0263641
0.0293355
0.0385623
0.0581506
0.0842663
0.107688
0.122115
0.127638
0.127956
0.126548
0.12512
0.123979
0.122838
0.121311
0.11906
0.115836
0.111533
0.106281
0.100495
0.0948145
0.0898348
0.085633
0.0811552
0.0737731
0.0600858
0.0394151
0.0175352
0.00396671
0.00176247
0.00750991
0.0173953
0.026402
0.0307948
0.0299482
0.0250857
0.0192243
0.0140237
0.0132651
0.0204447
0.0247859
0.0214912
0.0182416
0.0152303
0.012874
0.0117255
0.0121711
0.0140535
0.0164876
0.0181071
0.0177352
0.0149845
0.0114405
0.00771314
0.00232959
0.00510474
0.0265963
0.0565966
0.0791175
0.0922431
0.103513
0.114857
0.120718
0.117378
0.1014
0.0723701
0.0397268
0.0161852
0.0086791
0.0151729
0.028901
0.043879
0.0566795
0.0663692
0.0718994
0.0654685
0.0621093
0.0675693
0.0746352
0.0807772
0.0857495
0.0898548
0.0933473
0.0963319
0.0988032
0.100699
0.10194
0.102453
0.102188
0.101112
0.0991539
0.0962228
0.0922224
0.086985
0.0802563
0.071766
0.0617971
0.051779
0.0436786
0.0386652
0.0355604
0.0332934
0.0347404
0.0456492
0.0671538
0.0923477
0.112274
0.122939
0.12604
0.12535
0.123673
0.12212
0.120738
0.119217
0.117222
0.11447
0.110749
0.105983
0.100319
0.0941801
0.088211
0.0830524
0.0788981
0.0748712
0.0684917
0.0563635
0.0375549
0.0172784
0.00457859
0.00335807
0.00986358
0.0192747
0.0267812
0.0296272
0.0279602
0.0231059
0.0175903
0.0127418
0.0119185
0.0189822
0.0218543
0.0182382
0.0157726
0.0148572
0.0158577
0.0188521
0.0234238
0.0286529
0.0332999
0.0360334
0.0355843
0.0312095
0.0237686
0.0160165
0.0083638
0.00240641
0.00695697
0.0256217
0.0495432
0.0691684
0.0824145
0.0900712
0.0915607
0.0842816
0.0647998
0.038401
0.0164379
0.00782004
0.0136229
0.0285805
0.0463641
0.0625771
0.0748554
0.0834685
0.0858481
0.0668858
0.0565269
0.0620767
0.0722609
0.0815954
0.0887105
0.0938298
0.0974984
0.100155
0.102055
0.103309
0.103939
0.103925
0.103239
0.10186
0.0997201
0.0967285
0.0927945
0.0878727
0.0819716
0.0751404
0.0674853
0.0594933
0.0520954
0.0456902
0.0397298
0.0358367
0.0391168
0.0536895
0.0767572
0.0997924
0.115599
0.122669
0.123744
0.12225
0.120253
0.118386
0.116556
0.114485
0.111913
0.108613
0.104414
0.0992684
0.0933329
0.0870157
0.0809349
0.0757366
0.071712
0.068194
0.0629484
0.0526749
0.0361259
0.0177533
0.00607588
0.00571221
0.0124708
0.0208852
0.0266545
0.0280228
0.0257365
0.0210696
0.0159989
0.0115259
0.0106195
0.0175069
0.0228768
0.0223599
0.0234847
0.0264113
0.0310109
0.0368592
0.0432968
0.0495129
0.0546194
0.0576399
0.0575533
0.0533712
0.0446823
0.0330915
0.0212562
0.0103719
0.00355892
0.00619371
0.0184449
0.0341865
0.047143
0.0540122
0.0532056
0.0434017
0.0270362
0.0119206
0.00611038
0.0126058
0.0284795
0.0482705
0.0671896
0.082309
0.0922437
0.0985566
0.0962494
0.0732534
0.0556968
0.0542622
0.0628326
0.0742195
0.0842907
0.0917818
0.0968834
0.100193
0.102244
0.103379
0.103773
0.103494
0.102558
0.100953
0.0986026
0.0953832
0.0911801
0.0859942
0.079974
0.0733649
0.0663574
0.0591024
0.0517957
0.0445037
0.0382548
0.0367704
0.0448861
0.0633543
0.0864189
0.105961
0.117399
0.12127
0.120686
0.118447
0.115953
0.113524
0.111037
0.108291
0.105104
0.1013
0.0967433
0.0914044
0.0854374
0.0792117
0.073277
0.0682297
0.0644185
0.0613968
0.057276
0.0489864
0.0349828
0.0188342
0.00843455
0.0086939
0.0150855
0.0220276
0.0259536
0.0260074
0.0233303
0.0190275
0.0145074
0.0104405
0.00941908
0.0160356
0.0331543
0.0361798
0.0405132
0.0459253
0.0521241
0.0587231
0.0652607
0.0712208
0.0760334
0.0790787
0.0796493
0.0768798
0.0698421
0.0582668
0.0437574
0.0287528
0.0153385
0.00644872
0.00455718
0.00858299
0.0144182
0.0179168
0.0165998
0.0108292
0.00511033
0.00499903
0.0137173
0.0304298
0.051315
0.0718434
0.0887515
0.100487
0.106868
0.109951
0.104464
0.0846037
0.0638418
0.0529102
0.053762
0.0625602
0.0738996
0.0840888
0.0917147
0.0967868
0.0998389
0.101425
0.101939
0.10161
0.100544
0.0987543
0.0961506
0.0925623
0.0878434
0.0820158
0.0753149
0.0680979
0.0606867
0.0532679
0.0459721
0.0394713
0.0361412
0.0399449
0.0534354
0.0741035
0.0951427
0.110295
0.117547
0.118691
0.116655
0.113548
0.110284
0.107047
0.103768
0.100335
0.0966254
0.0924975
0.0878317
0.0826036
0.076948
0.0711712
0.0657121
0.0610554
0.0575424
0.0549252
0.0517403
0.0453209
0.0339553
0.0203015
0.0114182
0.0119505
0.0174024
0.0225677
0.0247082
0.0236737
0.0208003
0.0169723
0.0130688
0.00944115
0.00830833
0.0145926
0.0523881
0.0568229
0.061957
0.0675721
0.073462
0.0793907
0.085077
0.0901998
0.0944074
0.0973253
0.0985225
0.0974338
0.0932834
0.0851031
0.0725953
0.0570231
0.0405869
0.0256567
0.0144817
0.00808997
0.00549412
0.0046332
0.00416705
0.00481834
0.00936399
0.0200916
0.0370516
0.0577405
0.078312
0.095464
0.10767
0.114765
0.117547
0.117529
0.111578
0.0962427
0.0764377
0.059473
0.0510823
0.0526563
0.0611808
0.0721676
0.0822325
0.0898321
0.0947811
0.0975203
0.098607
0.0984824
0.0974084
0.0954691
0.0925713
0.0885029
0.0831064
0.0764527
0.0688901
0.0609128
0.0530249
0.0456611
0.0394069
0.0357625
0.0374014
0.0469418
0.0641549
0.0845623
0.101975
0.112474
0.115964
0.11472
0.111204
0.106966
0.102664
0.0984894
0.0944575
0.0905175
0.0865643
0.0824552
0.0780642
0.0733555
0.0684308
0.0635152
0.0589008
0.0549072
0.0517819
0.0494143
0.0467989
0.0418464
0.0329192
0.0218557
0.0145904
0.0150327
0.0191469
0.0224547
0.0230078
0.0211371
0.0182226
0.0149313
0.0116877
0.00854076
0.00730659
0.0131892
0.0738529
0.07844
0.0832367
0.0881676
0.0931472
0.0980445
0.102677
0.106826
0.110266
0.112777
0.114133
0.114046
0.112104
0.107639
0.0998047
0.0882778
0.0739098
0.0585133
0.0442435
0.0329228
0.0254591
0.0219305
0.0223028
0.0269611
0.0368366
0.05185
0.0700534
0.0882908
0.103665
0.114677
0.12134
0.124289
0.124428
0.122602
0.117349
0.106315
0.0899101
0.0714112
0.0562478
0.0490712
0.0508501
0.0589767
0.0695156
0.0792878
0.086661
0.0913047
0.0935882
0.0940688
0.0931934
0.0911715
0.0879533
0.0833244
0.077167
0.0696687
0.0613568
0.0529597
0.0452387
0.0389842
0.0353096
0.0359802
0.0429506
0.0568546
0.0753105
0.0933455
0.106299
0.112318
0.112421
0.108864
0.103657
0.0980356
0.0926095
0.0876318
0.0831649
0.0791473
0.0754315
0.0718328
0.0681975
0.0644689
0.060711
0.0570576
0.0536444
0.0505752
0.047923
0.0456226
0.0430922
0.0389405
0.0318957
0.0231981
0.017444
0.0175485
0.0201788
0.0217734
0.0210423
0.0185822
0.0157205
0.0129501
0.010348
0.00769807
0.00638784
0.0118266
0.0941828
0.0978247
0.101617
0.105554
0.109562
0.113511
0.117243
0.120587
0.12339
0.12552
0.126837
0.127177
0.126371
0.12419
0.120206
0.113852
0.104897
0.0939085
0.0822624
0.0717285
0.0639428
0.060081
0.0608074
0.0663299
0.0762555
0.0890324
0.102252
0.11366
0.121989
0.127106
0.129563
0.129954
0.128749
0.126291
0.121969
0.114244
0.101827
0.0850692
0.0671599
0.053065
0.0466137
0.048416
0.0560966
0.0660881
0.0753795
0.0823067
0.0864481
0.0881091
0.0877916
0.0858431
0.0823225
0.0770982
0.0701859
0.0619843
0.0532924
0.0451349
0.0385789
0.0347235
0.0348375
0.0402536
0.0516249
0.0677644
0.0851832
0.0994909
0.107734
0.109517
0.106359
0.100365
0.0933016
0.0863313
0.0800921
0.0748439
0.070586
0.0671523
0.064295
0.0617621
0.0593668
0.0570356
0.0548003
0.0527153
0.05076
0.0487983
0.0466717
0.0442654
0.0413278
0.0371826
0.0311624
0.0242176
0.019618
0.0192417
0.0204755
0.0206628
0.0189927
0.0161623
0.0133989
0.0110849
0.0090641
0.00691334
0.00555651
0.0105155
0.112785
0.115092
0.117684
0.120539
0.123538
0.126529
0.129365
0.131914
0.134077
0.135766
0.136859
0.137236
0.136839
0.135648
0.133618
0.13058
0.126285
0.120671
0.114168
0.107747
0.102671
0.100102
0.100747
0.104614
0.110812
0.117842
0.124259
0.129156
0.132275