/*--------------------------------*- C++ -*----------------------------------*\
  =========                 |
  \\      /  F ield         | OpenFOAM: The Open Source CFD Toolbox
   \\    /   O peration     | Website:  https://openfoam.org
    \\  /    A nd           | Version:  10
     \\/     M anipulation  |
\*---------------------------------------------------------------------------*/
FoamFile
{
    format      ascii;
    class       volScalarField;
    location    "0.145";
    object      p;
}
// * * * * * * * * * * * * * * * * * * * * * * * * * * * * * * * * * * * * * //

dimensions      [0 2 -2 0 0 0 0];

internalField   nonuniform List<scalar> 
6820
(
-10.7792
-11.0825
-11.1309
-11.1502
-11.1868
-11.2173
-11.242
-11.2656
-11.2885
-11.3108
-11.333
-11.3553
-11.3781
-11.4016
-11.426
-11.4517
-11.4788
-11.5079
-11.5391
-11.5732
-11.6106
-11.6522
-11.6988
-11.7517
-11.8124
-11.8827
-11.9647
-12.0613
-12.1757
-12.3114
-12.4756
-12.6629
-12.9297
-10.9804
-11.1063
-11.1454
-11.1648
-11.1957
-11.2233
-11.2466
-11.2693
-11.2917
-11.3137
-11.3357
-11.3581
-11.381
-11.4047
-11.4295
-11.4555
-11.4832
-11.5128
-11.5448
-11.5797
-11.6181
-11.6608
-11.7087
-11.7631
-11.8253
-11.8974
-11.9814
-12.0803
-12.1975
-12.3379
-12.5067
-12.7196
-12.9885
-10.98
-11.0664
-11.1274
-11.1578
-11.1909
-11.2212
-11.2469
-11.2712
-11.2948
-11.3179
-11.3408
-11.364
-11.3877
-11.4123
-11.4379
-11.465
-11.4938
-11.5249
-11.5586
-11.5955
-11.6365
-11.6823
-11.7341
-11.7932
-11.8613
-11.9406
-12.0337
-12.144
-12.2762
-12.4366
-12.6364
-12.8896
-13.2412
-11.0366
-11.1074
-11.1579
-11.182
-11.2086
-11.2349
-11.258
-11.2802
-11.3022
-11.324
-11.346
-11.3684
-11.3915
-11.4156
-11.441
-11.4678
-11.4966
-11.5276
-11.5615
-11.5987
-11.6401
-11.6865
-11.7391
-11.7993
-11.8687
-11.9498
-12.0452
-12.1587
-12.2955
-12.4624
-12.6708
-12.9353
-13.2885
-11.0661
-11.1059
-11.1475
-11.1744
-11.2022
-11.2297
-11.2544
-11.2779
-11.301
-11.3238
-11.3467
-11.3699
-11.3938
-11.4186
-11.4446
-11.4722
-11.5017
-11.5335
-11.5682
-11.6064
-11.6488
-11.6964
-11.7503
-11.812
-11.8832
-11.9662
-12.0637
-12.1796
-12.3188
-12.4878
-12.6971
-12.9583
-13.2965
-11.0955
-11.1272
-11.1671
-11.1943
-11.2196
-11.2445
-11.2675
-11.2893
-11.3111
-11.3327
-11.3546
-11.377
-11.4002
-11.4244
-11.4499
-11.477
-11.5061
-11.5376
-11.5721
-11.6101
-11.6524
-11.6999
-11.7536
-11.8151
-11.886
-11.9683
-12.0649
-12.1791
-12.3155
-12.4797
-12.6804
-12.9259
-13.233
-11.1197
-11.1406
-11.1718
-11.1957
-11.2187
-11.2426
-11.2653
-11.2874
-11.3094
-11.3315
-11.3538
-11.3766
-11.4002
-11.4248
-11.4507
-11.4782
-11.5076
-11.5395
-11.5743
-11.6125
-11.655
-11.7025
-11.7561
-11.8172
-11.8873
-11.9683
-12.0627
-12.1733
-12.304
-12.4593
-12.6451
-12.8668
-13.1339
-11.1411
-11.1567
-11.1842
-11.2081
-11.2308
-11.2538
-11.2759
-11.2972
-11.3185
-11.3398
-11.3615
-11.3837
-11.4066
-11.4307
-11.456
-11.4829
-11.5118
-11.5431
-11.5771
-11.6146
-11.6561
-11.7025
-11.7548
-11.814
-11.8816
-11.9592
-12.0488
-12.1527
-12.2738
-12.4152
-12.5806
-12.7726
-12.995
-11.1601
-11.1715
-11.1941
-11.2152
-11.2355
-11.2565
-11.2774
-11.298
-11.3188
-11.3398
-11.3613
-11.3834
-11.4063
-11.4302
-11.4555
-11.4823
-11.511
-11.542
-11.5757
-11.6126
-11.6533
-11.6985
-11.7491
-11.8061
-11.8705
-11.9438
-12.0273
-12.1229
-12.2323
-12.3573
-12.4997
-12.6596
-12.8369
-11.1772
-11.1859
-11.2051
-11.2248
-11.2444
-11.2647
-11.2851
-11.3053
-11.3256
-11.3462
-11.3672
-11.3888
-11.4112
-11.4346
-11.4592
-11.4854
-11.5133
-11.5433
-11.5759
-11.6115
-11.6505
-11.6937
-11.7416
-11.7951
-11.855
-11.9223
-11.998
-12.0832
-12.1786
-12.285
-12.4023
-12.5292
-12.6631
-11.1927
-11.1996
-11.2157
-11.2334
-11.2513
-11.27
-11.289
-11.3083
-11.3278
-11.3477
-11.3682
-11.3893
-11.4112
-11.4341
-11.4582
-11.4837
-11.5109
-11.54
-11.5715
-11.6057
-11.6429
-11.6838
-11.7287
-11.7783
-11.8332
-11.8939
-11.961
-12.0348
-12.1155
-12.2027
-12.2952
-12.3906
-12.4846
-11.2068
-11.2124
-11.2262
-11.2423
-11.259
-11.2768
-11.2951
-11.3138
-11.3328
-11.3523
-11.3723
-11.3929
-11.4142
-11.4365
-11.4598
-11.4845
-11.5107
-11.5386
-11.5685
-11.6008
-11.6357
-11.6736
-11.7148
-11.7597
-11.8087
-11.8618
-11.9193
-11.981
-12.0463
-12.1141
-12.1825
-12.2484
-12.3069
-11.2199
-11.2246
-11.2364
-11.2509
-11.2663
-11.2828
-11.3
-11.3178
-11.3359
-11.3546
-11.3738
-11.3937
-11.4143
-11.4357
-11.4582
-11.4818
-11.5068
-11.5333
-11.5616
-11.5918
-11.6241
-11.6588
-11.6961
-11.736
-11.7787
-11.8241
-11.8718
-11.9213
-11.9717
-12.0212
-12.0675
-12.1073
-12.1355
-11.232
-11.2359
-11.2462
-11.2593
-11.2736
-11.289
-11.3054
-11.3224
-11.3399
-11.358
-11.3766
-11.3958
-11.4157
-11.4363
-11.4579
-11.4805
-11.5042
-11.5291
-11.5554
-11.5832
-11.6127
-11.6438
-11.6767
-11.7113
-11.7474
-11.7847
-11.8226
-11.8601
-11.8961
-11.9286
-11.955
-11.9721
-11.975
-11.2432
-11.2466
-11.2556
-11.2674
-11.2806
-11.295
-11.3104
-11.3265
-11.3431
-11.3603
-11.3781
-11.3964
-11.4154
-11.4351
-11.4555
-11.4768
-11.4989
-11.5221
-11.5463
-11.5716
-11.598
-11.6254
-11.6539
-11.683
-11.7125
-11.7419
-11.7704
-11.7968
-11.8197
-11.8372
-11.8465
-11.8447
-11.8275
-11.2535
-11.2565
-11.2645
-11.2752
-11.2873
-11.3008
-11.3153
-11.3306
-11.3464
-11.3629
-11.3799
-11.3974
-11.4155
-11.4342
-11.4535
-11.4735
-11.4941
-11.5154
-11.5375
-11.5601
-11.5834
-11.607
-11.6309
-11.6546
-11.6777
-11.6995
-11.7191
-11.7353
-11.7465
-11.7508
-11.7458
-11.7289
-11.6962
-11.2631
-11.2658
-11.2729
-11.2826
-11.2938
-11.3063
-11.3199
-11.3343
-11.3494
-11.365
-11.3811
-11.3977
-11.4147
-11.4323
-11.4503
-11.4688
-11.4877
-11.5071
-11.5267
-11.5467
-11.5667
-11.5866
-11.606
-11.6245
-11.6416
-11.6564
-11.668
-11.6751
-11.6763
-11.6698
-11.6533
-11.6248
-11.5809
-11.272
-11.2744
-11.2807
-11.2896
-11.2999
-11.3116
-11.3243
-11.3379
-11.3521
-11.3669
-11.3821
-11.3978
-11.4139
-11.4303
-11.447
-11.4641
-11.4813
-11.4987
-11.5161
-11.5333
-11.5502
-11.5664
-11.5816
-11.5953
-11.6067
-11.6152
-11.6197
-11.6192
-11.612
-11.5968
-11.5716
-11.5346
-11.4833
-11.2802
-11.2823
-11.2881
-11.2961
-11.3057
-11.3165
-11.3285
-11.3412
-11.3545
-11.3684
-11.3828
-11.3974
-11.4124
-11.4277
-11.4431
-11.4585
-11.474
-11.4894
-11.5045
-11.5191
-11.5329
-11.5457
-11.5569
-11.5661
-11.5726
-11.5755
-11.5741
-11.5672
-11.5535
-11.5317
-11.5003
-11.4578
-11.4023
-11.2877
-11.2897
-11.2949
-11.3023
-11.3111
-11.3211
-11.3323
-11.3442
-11.3567
-11.3697
-11.3832
-11.3969
-11.4108
-11.4248
-11.4389
-11.4529
-11.4667
-11.4802
-11.493
-11.5052
-11.5162
-11.5257
-11.5334
-11.5386
-11.5408
-11.5391
-11.5329
-11.5209
-11.5024
-11.476
-11.4406
-11.3951
-11.3381
-11.2946
-11.2964
-11.3012
-11.3079
-11.316
-11.3254
-11.3358
-11.3469
-11.3586
-11.3708
-11.3833
-11.396
-11.4088
-11.4217
-11.4344
-11.4469
-11.4591
-11.4707
-11.4815
-11.4912
-11.4997
-11.5063
-11.5109
-11.5127
-11.5113
-11.506
-11.4959
-11.4804
-11.4584
-11.4292
-11.3918
-11.3455
-11.2891
-11.3009
-11.3025
-11.3069
-11.3131
-11.3206
-11.3293
-11.3389
-11.3493
-11.3602
-11.3715
-11.3831
-11.3949
-11.4067
-11.4183
-11.4298
-11.4409
-11.4515
-11.4614
-11.4702
-11.4779
-11.484
-11.4882
-11.4901
-11.4892
-11.485
-11.4768
-11.4641
-11.4461
-11.4222
-11.3918
-11.354
-11.3085
-11.2545
-11.3066
-11.308
-11.312
-11.3178
-11.3247
-11.3328
-11.3417
-11.3514
-11.3615
-11.372
-11.3828
-11.3936
-11.4044
-11.415
-11.4252
-11.435
-11.4441
-11.4524
-11.4596
-11.4654
-11.4695
-11.4717
-11.4714
-11.4684
-11.462
-11.4519
-11.4374
-11.4182
-11.3936
-11.3632
-11.3264
-11.2832
-11.2329
-11.3116
-11.3129
-11.3166
-11.3219
-11.3284
-11.3359
-11.3442
-11.3532
-11.3626
-11.3723
-11.3822
-11.3921
-11.4019
-11.4114
-11.4206
-11.4291
-11.4369
-11.4438
-11.4495
-11.4537
-11.4562
-11.4567
-11.4548
-11.4502
-11.4425
-11.4312
-11.4159
-11.3964
-11.3721
-11.3428
-11.3082
-11.2682
-11.2226
-11.316
-11.3173
-11.3207
-11.3256
-11.3316
-11.3386
-11.3463
-11.3547
-11.3634
-11.3724
-11.3815
-11.3906
-11.3996
-11.4081
-11.4163
-11.4238
-11.4304
-11.4361
-11.4405
-11.4435
-11.4447
-11.444
-11.441
-11.4354
-11.4269
-11.4151
-11.3999
-11.3808
-11.3577
-11.3304
-11.2988
-11.2628
-11.2224
-11.3198
-11.321
-11.3242
-11.3288
-11.3343
-11.3408
-11.348
-11.3558
-11.3639
-11.3722
-11.3806
-11.3889
-11.397
-11.4047
-11.4119
-11.4184
-11.4241
-11.4287
-11.4322
-11.4341
-11.4345
-11.4329
-11.4292
-11.4231
-11.4144
-11.4029
-11.3883
-11.3704
-11.3492
-11.3246
-11.2964
-11.2649
-11.2301
-11.323
-11.3241
-11.3271
-11.3314
-11.3367
-11.3428
-11.3495
-11.3568
-11.3644
-11.3721
-11.3799
-11.3875
-11.3949
-11.4019
-11.4083
-11.4141
-11.419
-11.4228
-11.4255
-11.4268
-11.4266
-11.4246
-11.4206
-11.4145
-11.4061
-11.3953
-11.3819
-11.3658
-11.3469
-11.3253
-11.3011
-11.2743
-11.2452
-11.3256
-11.3266
-11.3294
-11.3335
-11.3384
-11.3441
-11.3505
-11.3572
-11.3643
-11.3714
-11.3786
-11.3856
-11.3923
-11.3986
-11.4044
-11.4095
-11.4138
-11.4171
-11.4192
-11.4201
-11.4196
-11.4175
-11.4137
-11.408
-11.4003
-11.3906
-11.3788
-11.3648
-11.3487
-11.3306
-11.3104
-11.2885
-11.265
-11.3275
-11.3285
-11.3312
-11.3351
-11.3399
-11.3454
-11.3514
-11.3579
-11.3646
-11.3713
-11.3781
-11.3846
-11.3909
-11.3967
-11.402
-11.4066
-11.4104
-11.4133
-11.4152
-11.4159
-11.4154
-11.4134
-11.41
-11.4051
-11.3985
-11.3902
-11.3803
-11.3687
-11.3555
-11.3408
-11.3248
-11.3077
-11.2896
-11.3287
-11.3296
-11.3322
-11.336
-11.3405
-11.3457
-11.3514
-11.3575
-11.3637
-11.3701
-11.3763
-11.3824
-11.3882
-11.3937
-11.3985
-11.4028
-11.4064
-11.4091
-11.411
-11.4118
-11.4115
-11.41
-11.4074
-11.4034
-11.3982
-11.3916
-11.3838
-11.3748
-11.3646
-11.3535
-11.3416
-11.329
-11.3161
-11.3292
-11.3302
-11.3329
-11.3368
-11.3413
-11.3465
-11.3522
-11.3582
-11.3643
-11.3704
-11.3764
-11.3822
-11.3877
-11.3928
-11.3974
-11.4015
-11.4049
-11.4076
-11.4094
-11.4105
-11.4105
-11.4097
-11.4078
-11.405
-11.4012
-11.3965
-11.3908
-11.3844
-11.3772
-11.3695
-11.3614
-11.3532
-11.345
-11.3289
-11.3297
-11.3322
-11.3359
-11.3403
-11.3453
-11.3507
-11.3565
-11.3623
-11.3682
-11.374
-11.3796
-11.3849
-11.3899
-11.3945
-11.3985
-11.402
-11.4049
-11.4071
-11.4086
-11.4093
-11.4094
-11.4086
-11.4071
-11.4049
-11.4021
-11.3987
-11.3949
-11.3907
-11.3863
-11.3818
-11.3776
-11.3737
-11.3279
-11.3292
-11.3322
-11.3365
-11.3411
-11.3465
-11.3521
-11.3578
-11.3636
-11.3694
-11.375
-11.3804
-11.3855
-11.3903
-11.3947
-11.3986
-11.4021
-11.405
-11.4075
-11.4093
-11.4107
-11.4114
-11.4117
-11.4115
-11.4108
-11.4098
-11.4086
-11.4072
-11.4057
-11.4043
-11.4032
-11.4026
-11.4025
-11.3254
-11.3262
-11.3291
-11.333
-11.3371
-11.3427
-11.3485
-11.3543
-11.3602
-11.366
-11.3718
-11.3773
-11.3826
-11.3876
-11.3923
-11.3965
-11.4004
-11.4039
-11.4069
-11.4096
-11.4118
-11.4136
-11.4151
-11.4163
-11.4172
-11.418
-11.4188
-11.4197
-11.4207
-11.4221
-11.424
-11.4265
-11.4297
-11.3228
-11.325
-11.3295
-11.3347
-11.3404
-11.3455
-11.3513
-11.357
-11.3626
-11.3682
-11.3736
-11.3788
-11.3838
-11.3885
-11.393
-11.3971
-11.401
-11.4045
-11.4078
-11.4108
-11.4136
-11.4162
-11.4187
-11.4211
-11.4235
-11.426
-11.4287
-11.4317
-11.435
-11.4389
-11.4434
-11.4487
-11.4549
-11.3159
-11.3167
-11.3208
-11.3262
-11.3323
-11.3386
-11.345
-11.3515
-11.3577
-11.3641
-11.3702
-11.376
-11.3816
-11.3869
-11.392
-11.3968
-11.4013
-11.4055
-11.4095
-11.4134
-11.417
-11.4206
-11.4241
-11.4276
-11.4313
-11.4352
-11.4394
-11.444
-11.4492
-11.4551
-11.4617
-11.4692
-11.4777
-11.3131
-11.3184
-11.3255
-11.3316
-11.3376
-11.3436
-11.3494
-11.3551
-11.3609
-11.3663
-11.3716
-11.3768
-11.3818
-11.3866
-11.3912
-11.3957
-11.4001
-11.4043
-11.4085
-11.4127
-11.4169
-11.4213
-11.4258
-11.4306
-11.4356
-11.441
-11.4468
-11.4531
-11.4601
-11.4678
-11.4764
-11.4859
-11.4964
-11.2916
-11.2955
-11.306
-11.3154
-11.3242
-11.3331
-11.3414
-11.3493
-11.3567
-11.3638
-11.3704
-11.3767
-11.3828
-11.3885
-11.3939
-11.3992
-11.4042
-11.4092
-11.414
-11.4187
-11.4234
-11.4281
-11.4329
-11.438
-11.4434
-11.4494
-11.4559
-11.4632
-11.4711
-11.48
-11.4897
-11.5005
-11.5124
-11.3022
-11.3116
-11.3205
-11.3265
-11.333
-11.3394
-11.3454
-11.3512
-11.357
-11.3626
-11.368
-11.3733
-11.3785
-11.3836
-11.3885
-11.3933
-11.3981
-11.4029
-11.4079
-11.413
-11.4185
-11.4245
-11.4311
-11.4379
-11.4447
-11.4518
-11.4596
-11.4679
-11.477
-11.487
-11.4978
-11.5097
-11.5227
-11.2032
-11.2701
-11.2947
-11.3062
-11.3204
-11.3329
-11.3428
-11.3517
-11.3598
-11.3673
-11.3743
-11.3809
-11.3871
-11.393
-11.3986
-11.404
-11.4092
-11.4143
-11.4192
-11.4241
-11.4289
-11.4335
-11.4382
-11.4435
-11.4497
-11.4567
-11.4644
-11.4729
-11.4823
-11.4926
-11.5038
-11.5162
-11.5296
-13.2023
-14.6343
-17.0676
-20.8991
-26.2538
-31.2474
-32.4553
-27.722
-18.1162
-8.11387
-1.35821
2.4364
4.05495
4.19468
3.07163
0.62103
-3.10184
-8.2205
-14.8536
-22.999
-32.2644
-41.7137
-49.7377
-54.4617
-54.4937
-49.8308
-42.1513
-33.8925
-27.0988
-22.7563
-20.8735
-20.8864
-22.1072
-23.9631
-26.0311
-27.987
-29.5564
-30.5
-30.6323
-29.8555
-28.1846
-25.747
-22.7454
-19.4099
-15.9614
-12.5902
-9.44764
-6.6428
-4.23864
-2.26137
-0.718307
0.390619
1.01243
1.02062
0.17002
-2.52559
-8.51682
-17.2635
-26.2824
-33.1247
-36.2862
-35.5071
-31.3637
-25.4256
-19.348
-14.145
-10.0955
-7.08994
-4.92473
-3.40556
-2.36554
-1.6715
-1.2215
-0.937848
-0.761589
-0.649095
-0.570219
-0.506522
-0.44876
-0.393746
-0.341316
-0.292425
-0.247964
-0.208338
-0.173583
-0.142971
-0.115231
-0.0897204
-0.0668953
-0.0474995
-0.0321488
-0.020332
-0.0117479
-0.00528754
-0.00143029
0.00145382
0.00338657
0.00224248
0.00976503
-0.0106547
-13.6091
-14.9013
-16.9836
-20.3767
-24.8036
-28.2433
-28.1619
-23.3159
-15.1328
-6.9524
-1.22053
2.26146
4.02076
4.33207
3.43883
1.10555
-2.65119
-7.94256
-14.8997
-23.5231
-33.3673
-43.407
-51.8916
-56.807
-56.7466
-51.8089
-43.7331
-35.1329
-28.0953
-23.5799
-21.5295
-21.3323
-22.2935
-23.858
-25.6266
-27.2987
-28.6241
-29.3883
-29.4268
-28.6518
-27.0737
-24.7988
-22.0007
-18.8823
-15.6431
-12.4595
-9.4741
-6.79171
-4.47618
-2.5585
-1.05262
0.0297882
0.635046
0.636869
-0.200213
-2.63351
-7.85556
-15.4783
-23.4703
-29.671
-32.6689
-32.2045
-28.7838
-23.7369
-18.4321
-13.75
-10.0038
-7.16155
-5.07624
-3.58818
-2.55199
-1.84742
-1.37988
-1.07583
-0.878753
-0.746495
-0.649789
-0.570588
-0.499651
-0.433577
-0.37194
-0.315446
-0.264789
-0.220226
-0.181633
-0.148192
-0.118598
-0.0920483
-0.0687284
-0.0490972
-0.0335522
-0.0215028
-0.01268
-0.00592701
-0.00183409
0.00133051
0.00313684
0.00235217
0.0088778
-0.00918638
-13.8099
-14.9225
-16.7369
-19.3344
-22.24
-24.1455
-23.3828
-19.2328
-12.7302
-6.11603
-1.16662
2.02736
3.82277
4.27661
3.55766
1.39279
-2.34262
-7.7483
-14.9665
-23.9822
-34.2948
-44.7648
-53.5534
-58.5673
-58.3798
-53.2503
-44.9149
-36.1249
-28.9668
-24.3566
-22.1765
-21.7826
-22.489
-23.7689
-25.2515
-26.6588
-27.7611
-28.3633
-28.3173
-27.5438
-26.0481
-23.9187
-21.3056
-18.3879
-15.3461
-12.3425
-9.51075
-6.95085
-4.72685
-2.87388
-1.41181
-0.361137
0.221743
0.216823
-0.600636
-2.81598
-7.37579
-13.9856
-20.993
-26.5462
-29.3768
-29.2154
-26.4641
-22.2092
-17.5822
-13.3681
-9.90772
-7.22624
-5.22292
-3.7689
-2.73903
-2.02564
-1.54149
-1.21738
-0.99941
-0.847092
-0.732126
-0.636918
-0.552305
-0.474726
-0.403525
-0.33917
-0.282152
-0.23254
-0.190015
-0.153626
-0.122024
-0.0942939
-0.0703954
-0.0505329
-0.0348969
-0.0228146
-0.0140231
-0.00727131
-0.00317413
0.000204809
0.00209093
0.00188255
0.00767889
-0.00794098
-13.8322
-14.7902
-16.1868
-17.985
-19.881
-20.9045
-19.912
-16.4003
-11.0966
-5.58702
-1.21632
1.73123
3.49873
4.04806
3.44577
1.45962
-2.1939
-7.64027
-15.0239
-24.3012
-34.9129
-45.6415
-54.557
-59.5417
-59.2176
-53.9897
-45.5795
-36.7862
-29.6558
-25.043
-22.778
-22.2061
-22.6695
-23.6798
-24.8954
-26.059
-26.958
-27.4136
-27.2911
-26.5174
-25.0939
-23.0953
-20.6515
-17.9212
-15.0667
-12.2368
-9.55552
-7.11793
-4.98784
-3.20383
-1.79127
-0.777282
-0.220984
-0.23505
-1.03117
-3.06589
-7.06326
-12.7847
-18.8881
-23.8235
-26.4877
-26.5904
-24.416
-20.8323
-16.7883
-12.9965
-9.80698
-7.284
-5.36444
-3.94722
-2.9262
-2.20577
-1.70607
-1.36235
-1.12353
-0.95089
-0.817223
-0.705489
-0.606668
-0.517091
-0.435899
-0.363332
-0.299675
-0.244817
-0.198251
-0.158897
-0.125328
-0.0964683
-0.0720125
-0.0519017
-0.0361206
-0.0238971
-0.0149661
-0.00802579
-0.00376851
-0.000150075
0.0016757
0.00204079
0.00684619
-0.00668706
-13.7919
-14.5887
-15.6772
-16.981
-18.1784
-18.5693
-17.3814
-14.3106
-9.89123
-5.25495
-1.39976
1.31985
3.02643
3.6482
3.1298
1.29805
-2.2176
-7.61769
-15.0441
-24.4185
-35.1268
-45.89
-54.7325
-59.5644
-59.1296
-53.9099
-45.6354
-37.0458
-30.1061
-25.5932
-23.2966
-22.5745
-22.8163
-23.5787
-24.5499
-25.4914
-26.2055
-26.5273
-26.334
-25.5585
-24.1998
-22.3209
-20.0346
-17.4808
-14.8049
-12.1422
-9.60777
-7.29168
-5.25717
-3.54566
-2.18732
-1.21436
-0.687726
-0.712335
-1.48274
-3.36159
-6.88737
-11.8522
-17.162
-21.5348
-24.0252
-24.3261
-22.6151
-19.5856
-16.045
-12.6369
-9.70374
-7.33574
-5.50104
-4.12315
-3.1134
-2.38773
-1.87357
-1.51075
-1.25111
-1.05789
-0.905078
-0.776288
-0.662718
-0.560652
-0.469065
-0.387984
-0.317482
-0.257246
-0.206557
-0.164171
-0.128559
-0.0984976
-0.0734457
-0.0530935
-0.0372356
-0.0249955
-0.0160879
-0.00913651
-0.0048598
-0.00106645
0.000749388
0.0016221
0.0058008
-0.00562053
-13.6653
-14.3124
-15.1324
-16.0108
-16.6793
-16.6504
-15.4011
-12.7334
-9.02892
-5.10654
-1.71872
0.778475
2.39268
3.06057
2.62155
0.91658
-2.42165
-7.68044
-15.0077
-24.2886
-34.8623
-45.4099
-53.9716
-58.5461
-58.041
-52.9624
-45.0419
-36.8691
-30.2865
-25.9792
-23.7078
-22.8697
-22.9178
-23.4587
-24.2097
-24.9499
-25.4954
-25.6948
-25.4363
-24.6591
-23.3599
-21.5921
-19.453
-17.0656
-14.5595
-12.0576
-9.66609
-7.47027
-5.53246
-3.89621
-2.59567
-1.66702
-1.17171
-1.20745
-1.94779
-3.68382
-6.81106
-11.1399
-15.7727
-19.6467
-21.9505
-22.3753
-21.0213
-18.449
-15.3483
-12.2905
-9.59911
-7.38205
-5.63289
-4.29661
-3.30047
-2.57138
-2.0439
-1.66252
-1.38216
-1.1681
-0.99569
-0.849286
-0.720398
-0.605323
-0.502901
-0.41296
-0.335359
-0.26957
-0.214663
-0.169221
-0.131587
-0.100357
-0.0747385
-0.0541559
-0.0382134
-0.0259186
-0.0169567
-0.00990309
-0.00552492
-0.00154487
0.000227867
0.00149366
0.00500276
-0.00457886
-13.4947
-13.9986
-14.5856
-15.1436
-15.4515
-15.1548
-13.8945
-11.5534
-8.4189
-5.08739
-2.1282
0.138228
1.63434
2.30263
1.93626
0.34405
-2.79763
-7.82364
-14.8986
-23.8796
-34.076
-44.1628
-52.2513
-56.4867
-55.9617
-51.1729
-43.8144
-36.2598
-30.1903
-26.1868
-23.9963
-23.0802
-22.9671
-23.3154
-23.8708
-24.4296
-24.8223
-24.9103
-24.593
-23.815
-22.5714
-20.9071
-18.9058
-16.6749
-14.33
-11.9822
-9.72953
-7.65237
-5.81176
-4.25275
-3.01259
-2.13038
-1.66695
-1.71283
-2.4199
-4.02051
-6.80252
-10.5911
-14.6465
-18.0776
-20.1841
-20.6716
-19.595
-17.4088
-14.6971
-11.9588
-9.4946
-7.42381
-5.76038
-4.4677
-3.48741
-2.7567
-2.21708
-1.81771
-1.5167
-1.28155
-1.08905
-0.924451
-0.77965
-0.651029
-0.537333
-0.438204
-0.35328
-0.281804
-0.222611
-0.17408
-0.1344
-0.101983
-0.0757972
-0.0550123
-0.0390439
-0.0267839
-0.0178726
-0.010827
-0.00643357
-0.00231809
-0.000552914
0.0011371
0.00410423
-0.00369183
-13.2834
-13.658
-14.0528
-14.3636
-14.4103
-13.9397
-12.7134
-10.6663
-8.01091
-5.17966
-2.61009
-0.581715
0.781944
1.40686
1.09713
-0.380587
-3.3158
-8.03417
-14.7099
-23.1857
-32.7713
-42.1766
-49.6345
-53.4821
-52.9955
-48.6435
-42.0273
-35.2652
-29.8404
-26.2201
-24.1582
-23.2018
-22.9615
-23.1461
-23.5296
-23.9262
-24.1812
-24.1694
-23.8001
-23.0229
-21.8318
-20.264
-18.3913
-16.3076
-14.1154
-11.9151
-9.797
-7.83648
-6.09302
-4.61249
-3.43438
-2.59959
-2.16756
-2.22148
-2.89225
-4.3628
-6.83854
-10.1585
-13.7106
-16.7425
-18.6516
-19.1658
-18.3132
-16.4585
-14.091
-11.6429
-9.39136
-7.46182
-5.88393
-4.6366
-3.67428
-2.94373
-2.39315
-1.97638
-1.6548
-1.39826
-1.18517
-1.00174
-0.840393
-0.697659
-0.572226
-0.463561
-0.371072
-0.293761
-0.230208
-0.178581
-0.136886
-0.103327
-0.0766177
-0.0556718
-0.0397053
-0.0274876
-0.0186067
-0.0115371
-0.00709173
-0.00284078
-0.0010897
0.000946267
0.00338221
-0.00285095
-13.0562
-13.3179
-13.5564
-13.6809
-13.5502
-12.9834
-11.8208
-10.0286
-7.76785
-5.35787
-3.13894
-1.34948
-0.129606
0.420318
0.139309
-1.21975
-3.93295
-8.28805
-14.4454
-22.2402
-31.0116
-39.5523
-46.2666
-49.7198
-49.3362
-45.5481
-39.8104
-33.9721
-29.283
-26.095
-24.1969
-23.2347
-22.8996
-22.9481
-23.1823
-23.4355
-23.5681
-23.4681
-23.0538
-22.2794
-21.1379
-19.6602
-17.9077
-15.9622
-13.9146
-11.8555
-9.86745
-8.02121
-6.37427
-4.97275
-3.85749
-3.07031
-2.66843
-2.72761
-3.35897
-4.70423
-6.9047
-9.81198
-12.9182
-15.5896
-17.3109
-17.8326
-17.1635
-15.5932
-13.529
-11.3437
-9.29066
-7.49706
-6.00412
-4.80359
-3.86124
-3.1326
-2.57226
-2.13866
-1.79657
-1.51831
-1.28403
-1.0811
-0.902532
-0.745091
-0.607446
-0.4889
-0.388625
-0.305357
-0.2374
-0.182679
-0.138993
-0.104322
-0.0771308
-0.0560783
-0.0401808
-0.0280837
-0.019311
-0.0122929
-0.00785187
-0.00350674
-0.00175604
0.000622821
0.00261914
-0.00213589
-12.8191
-12.9846
-13.0991
-13.0867
-12.838
-12.224
-11.1397
-9.5728
-7.64747
-5.60104
-3.6985
-2.14271
-1.07429
-0.612336
-0.89332
-2.13761
-4.6086
-8.55681
-14.1138
-21.109
-28.9283
-36.4862
-42.404
-45.4767
-45.2442
-42.1008
-37.3317
-32.4933
-28.5751
-25.8345
-24.1214
-23.1821
-22.7811
-22.7191
-22.8255
-22.9536
-22.9793
-22.8024
-22.3499
-21.5804
-20.4863
-19.093
-17.4529
-15.6373
-13.7267
-11.8024
-9.93973
-8.20502
-6.65345
-5.33079
-4.27845
-3.53839
-3.16481
-3.22624
-3.81541
-5.04019
-6.99243
-9.53499
-12.2461
-14.5939
-16.1395
-16.6552
-16.1349
-14.8073
-13.0094
-11.0618
-9.19368
-7.53051
-6.12159
-4.9691
-4.0486
-3.32357
-2.75464
-2.30476
-1.94216
-1.64177
-1.38566
-1.16247
-0.965951
-0.79317
-0.642816
-0.514035
-0.405749
-0.316406
-0.24401
-0.186223
-0.140606
-0.1049
-0.0773025
-0.0562152
-0.0404471
-0.0285121
-0.0198642
-0.0129003
-0.00845385
-0.00402205
-0.00226858
0.000399181
0.00198723
-0.00147537
-12.5851
-12.6712
-12.6902
-12.5802
-12.2584
-11.6334
-10.6377
-9.27146
-7.63171
-5.89818
-4.27769
-2.94367
-2.02954
-1.65738
-1.95473
-3.09777
-5.31628
-8.82584
-13.7305
-19.8652
-26.6763
-33.2206
-38.3458
-41.0442
-40.9819
-38.5303
-34.7784
-30.9464
-27.7723
-25.4632
-23.9436
-23.0487
-22.6065
-22.4572
-22.4566
-22.4777
-22.4112
-22.1685
-21.6847
-20.9224
-19.8739
-18.5598
-17.0251
-15.3317
-13.5506
-11.7546
-10.0127
-8.38643
-6.92853
-5.68397
-4.69399
-3.99997
-3.65258
-3.71321
-4.25799
-5.36728
-7.09556
-9.31614
-11.6783
-13.7361
-15.1182
-15.6171
-15.2165
-14.0953
-12.531
-10.7979
-9.10161
-7.5632
-6.23708
-5.13363
-4.23675
-3.517
-2.94061
-2.47496
-2.09178
-1.76876
-1.49006
-1.24578
-1.03051
-0.841715
-0.678137
-0.538769
-0.422266
-0.326754
-0.249915
-0.189111
-0.14164
-0.104984
-0.0770691
-0.0560364
-0.0404853
-0.0287946
-0.0203411
-0.0134915
-0.00908115
-0.0045976
-0.00283781
9.89869e-05
0.00134721
-0.000917462
-12.3599
-12.382
-12.3293
-12.1528
-11.7906
-11.1787
-10.2748
-9.08696
-7.6927
-6.23018
-4.8612
-3.7341
-2.97209
-2.68952
-3.00675
-4.06419
-6.03993
-9.10562
-13.3379
-18.5911
-24.391
-29.9457
-34.3091
-36.6694
-36.8208
-35.0974
-32.3379
-29.4297
-26.9199
-25.0042
-23.6756
-22.8404
-22.3776
-22.1619
-22.0741
-22.0054
-21.861
-21.5632
-21.0547
-20.3021
-19.2976
-18.0583
-16.6225
-15.0439
-13.3851
-11.7113
-10.0852
-8.56393
-7.19755
-6.02974
-5.10099
-4.45149
-4.128
-4.18504
-4.6839
-5.68295
-7.20904
-9.14546
-11.1999
-12.9986
-14.2289
-14.7034
-14.3981
-13.4519
-12.0923
-10.5525
-9.01556
-7.59619
-6.35143
-5.29785
-4.42624
-3.71339
-3.13065
-2.64966
-2.24571
-1.89943
-1.59728
-1.33094
-1.09605
-0.890508
-0.713166
-0.562854
-0.437935
-0.336183
-0.25492
-0.19118
-0.141967
-0.104486
-0.0763748
-0.0555095
-0.0402698
-0.0288939
-0.020677
-0.0139646
-0.00959493
-0.00507021
-0.00329745
-0.000131336
0.000814388
-0.000409402
-12.1494
-12.1218
-12.0177
-11.7991
-11.4207
-10.8384
-10.0268
-8.99878
-7.81716
-6.58915
-5.44319
-4.5049
-3.88558
-3.6893
-4.02434
-5.00628
-6.76393
-9.4175
-13.0104
-17.4141
-22.2448
-26.8693
-30.5451
-32.6645
-33.0811
-32.0437
-30.1412
-28.0004
-26.0465
-24.476
-23.3298
-22.5642
-22.0976
-21.8344
-21.6773
-21.5352
-21.3264
-20.9837
-20.4569
-19.7165
-18.7549
-17.5862
-16.2432
-14.7725
-13.2291
-11.6713
-10.1561
-8.73609
-7.45865
-6.36577
-5.49664
-4.88978
-4.58791
-4.63875
-5.09097
-5.98535
-7.3288
-9.01429
-10.7974
-12.3661
-13.4559
-13.9004
-13.6703
-12.8723
-11.6917
-10.326
-8.93657
-7.63053
-6.46554
-5.46253
-4.6178
-3.91343
-3.32538
-2.82938
-2.40434
-2.03401
-1.70734
-1.41787
-1.16236
-0.939294
-0.747624
-0.586017
-0.452506
-0.344476
-0.258845
-0.192283
-0.141473
-0.103315
-0.0751538
-0.0545907
-0.0397806
-0.0288168
-0.02091
-0.0143912
-0.0100986
-0.00556448
-0.00378143
-0.000412364
0.000282439
9.40347e-06
-11.9576
-11.8928
-11.7538
-11.5117
-11.1343
-10.5916
-9.87
-8.98479
-7.98737
-6.96234
-6.01303
-5.24493
-4.75618
-4.63994
-4.99017
-5.90218
-7.46907
-9.76584
-12.8041
-16.465
-20.4453
-24.2637
-27.369
-29.314
-29.9639
-29.4651
-28.2156
-26.6687
-25.1659
-23.8942
-22.9189
-22.2287
-21.7717
-21.4769
-21.2669
-21.0661
-20.8055
-20.4274
-19.8884
-19.1625
-18.2429
-17.1412
-15.8854
-14.5161
-13.0815
-11.6337
-10.2242
-8.90157
-7.71011
-6.68989
-5.87838
-5.31204
-5.02955
-5.07195
-5.47757
-6.27314
-7.45166
-8.91549
-10.4596
-11.8243
-12.7852
-13.1961
-13.0248
-12.352
-11.3279
-10.1186
-8.86558
-7.66732
-6.58043
-5.62859
-4.81231
-4.11797
-3.5256
-3.01479
-2.56815
-2.17274
-1.82031
-1.50644
-1.22922
-0.987763
-0.78117
-0.607918
-0.465667
-0.351354
-0.261453
-0.192227
-0.140007
-0.101366
-0.0733356
-0.0532383
-0.0389918
-0.028538
-0.0210014
-0.0147088
-0.0105021
-0.00596608
-0.00416335
-0.000620857
-0.0001421
0.000398263
-11.7862
-11.695
-11.5347
-11.2839
-10.9195
-10.4226
-9.78738
-9.02955
-8.19219
-7.34302
-6.56573
-5.94834
-5.57595
-5.53051
-5.89208
-6.73789
-8.13636
-10.1316
-12.7128
-15.7714
-19.0668
-22.2381
-24.8796
-26.6528
-27.4335
-27.2992
-26.5194
-25.426
-24.289
-23.2745
-22.4562
-21.8432
-21.4057
-21.0927
-20.844
-20.5978
-20.2969
-19.8922
-19.3466
-18.6377
-17.7593
-16.7212
-15.5475
-14.2732
-12.9411
-11.5974
-10.2885
-9.05907
-7.95034
-7.00017
-6.244
-5.71591
-5.45064
-5.48294
-5.84263
-6.54548
-7.57518
-8.84316
-10.1768
-11.3608
-12.2041
-12.5796
-12.4537
-11.8866
-10.9991
-9.93042
-8.80346
-7.7076
-6.69716
-5.79711
-5.01085
-4.32811
-3.73233
-3.20676
-2.73776
-2.31599
-1.93626
-1.59653
-1.29634
-1.03555
-0.813419
-0.628183
-0.477076
-0.356525
-0.262503
-0.190822
-0.137423
-0.0985303
-0.0708485
-0.0514084
-0.0378847
-0.0280638
-0.020984
-0.0149789
-0.0108967
-0.00639096
-0.00457724
-0.000888265
-0.000586133
0.00069363
-11.6374
-11.5289
-11.3577
-11.1085
-10.7656
-10.3175
-9.76331
-9.11903
-8.42078
-7.72355
-7.09549
-6.60977
-6.33918
-6.35434
-6.72248
-7.50524
-8.75261
-10.4894
-12.6933
-15.2672
-18.0195
-20.6752
-22.9296
-24.5241
-25.3521
-25.4551
-25.0144
-24.2688
-23.4275
-22.6316
-21.9545
-21.4172
-21.006
-20.6856
-20.4103
-20.1307
-19.7996
-19.3762
-18.8291
-18.1394
-17.3016
-16.3241
-15.2275
-14.0427
-12.8069
-11.5614
-10.348
-9.2074
-8.1779
-7.29489
-6.59157
-6.09942
-5.84937
-5.87053
-6.1855
-6.80182
-7.69744
-8.79238
-9.94125
-10.9651
-11.7017
-12.0413
-11.9501
-11.4721
-10.7039
-9.7615
-8.75094
-7.75242
-6.81689
-5.96929
-5.21473
-4.54521
-3.94688
-3.40637
-2.91395
-2.46417
-2.0553
-1.68795
-1.36337
-1.08222
-0.84389
-0.646352
-0.486319
-0.359632
-0.261698
-0.187831
-0.133543
-0.0946829
-0.0676118
-0.0490551
-0.0364325
-0.0273687
-0.0208159
-0.0151282
-0.0111714
-0.00669164
-0.00485198
-0.00103732
-0.000887148
0.00100179
-11.5105
-11.3922
-11.2185
-10.9787
-10.6628
-10.2641
-9.78535
-9.24196
-8.66459
-8.09827
-7.59865
-7.2264
-7.04311
-7.10848
-7.47815
-8.20075
-9.31204
-10.8243
-12.7101
-14.8849
-17.1955
-19.4305
-21.3588
-22.7841
-23.6158
-23.8732
-23.6766
-23.1961
-22.591
-21.9779
-21.4252
-20.96
-20.5791
-20.2598
-19.9681
-19.6653
-19.3131
-18.8781
-18.3341
-17.6654
-16.8676
-15.9477
-14.9239
-13.8229
-12.6776
-11.5246
-10.4016
-9.34546
-8.3915
-7.57258
-6.91947
-6.46099
-6.2244
-6.23385
-6.50588
-7.04204
-7.81707
-8.75918
-9.74593
-10.6281
-11.2686
-11.5726
-11.5075
-11.1045
-10.4405
-9.61162
-8.70868
-7.80281
-6.94082
-6.14652
-5.42551
-4.77093
-4.17084
-3.61499
-3.09769
-2.61781
-2.17754
-1.78052
-1.42991
-1.12724
-0.872051
-0.661917
-0.492943
-0.360292
-0.25873
-0.183013
-0.128185
-0.0896962
-0.0635444
-0.0461382
-0.0346314
-0.0264844
-0.0205685
-0.0152734
-0.0114907
-0.00707381
-0.00522367
-0.00130534
-0.00127314
0.00118374
-11.406
-11.284
-11.1141
-10.8891
-10.603
-10.2529
-9.84349
-9.38936
-8.91665
-8.46251
-8.07246
-7.79673
-7.68682
-7.79241
-8.15893
-8.82427
-9.81344
-11.1303
-12.7462
-14.5886
-16.5355
-18.4237
-20.0778
-21.3476
-22.1568
-22.5105
-22.4867
-22.2053
-21.7863
-21.3239
-20.8789
-20.4801
-20.1315
-19.8196
-19.5198
-19.2024
-18.8371
-18.3966
-17.8598
-17.2137
-16.4551
-15.5903
-14.635
-13.6126
-12.5522
-11.4862
-10.4484
-9.47223
-8.59001
-7.83198
-7.22641
-6.7994
-6.5748
-6.57236
-6.80378
-7.26623
-7.93311
-8.74047
-9.58496
-10.342
-10.8961
-11.1658
-11.1199
-10.7801
-10.2072
-9.48049
-8.67717
-7.85969
-7.07019
-6.33034
-5.64503
-5.00731
-4.40623
-3.83431
-3.29019
-2.77756
-2.30312
-1.87397
-1.49544
-1.17
-0.89725
-0.674266
-0.496409
-0.358052
-0.253231
-0.176082
-0.12114
-0.0834269
-0.0585578
-0.0426066
-0.0324436
-0.0253569
-0.0201424
-0.0152477
-0.0116138
-0.00723107
-0.00534611
-0.00133927
-0.00142425
0.00145925
-11.3222
-11.2013
-11.0398
-10.8331
-10.5783
-10.2749
-9.92866
-9.5532
-9.17087
-8.81239
-8.51511
-8.32049
-8.27106
-8.40765
-8.7669
-9.37795
-10.2578
-11.4051
-12.792
-14.3573
-16.0036
-17.6048
-19.0272
-20.1552
-20.9251
-21.3326
-21.4273
-21.2928
-21.0181
-20.6781
-20.3245
-19.9856
-19.6696
-19.3694
-19.0681
-18.7433
-18.3714
-17.9307
-17.4045
-16.7824
-16.0622
-15.2498
-14.359
-13.4104
-12.4295
-11.4451
-10.4874
-9.58679
-8.77245
-8.07208
-7.51138
-7.11378
-6.89996
-6.88589
-7.07936
-7.47455
-8.04481
-8.7335
-9.45326
-10.1001
-10.5769
-10.8139
-10.7819
-10.4954
-10.0023
-9.36762
-8.65677
-7.92393
-7.20626
-6.52243
-5.87545
-5.25686
-4.65551
-4.06645
-3.49294
-2.94422
-2.43219
-1.968
-1.55937
-1.20979
-0.91876
-0.682727
-0.496137
-0.352432
-0.244815
-0.166739
-0.112187
-0.0757254
-0.0525688
-0.0384408
-0.0299142
-0.0241026
-0.0197386
-0.0153464
-0.0119307
-0.00762787