/*--------------------------------*- C++ -*----------------------------------*\
  =========                 |
  \\      /  F ield         | OpenFOAM: The Open Source CFD Toolbox
   \\    /   O peration     | Website:  https://openfoam.org
    \\  /    A nd           | Version:  10
     \\/     M anipulation  |
\*---------------------------------------------------------------------------*/
FoamFile
{
    format      ascii;
    class       surfaceScalarField;
    location    "0.145";
    object      phi;
}
// * * * * * * * * * * * * * * * * * * * * * * * * * * * * * * * * * * * * * //

dimensions      [0 3 -1 0 0 0 0];

internalField   nonuniform List<scalar> 
13452
(
5.94539e-05
8.14554e-07
5.84743e-05
9.79628e-07
5.74526e-05
1.02169e-06
5.64002e-05
1.05243e-06
5.53441e-05
1.05604e-06
5.42949e-05
1.04921e-06
5.32552e-05
1.03976e-06
5.2226e-05
1.02913e-06
5.12078e-05
1.01825e-06
5.02e-05
1.00778e-06
4.92019e-05
9.9806e-07
4.82126e-05
9.89309e-07
4.72309e-05
9.81742e-07
4.62553e-05
9.75584e-07
4.52842e-05
9.71089e-07
4.43156e-05
9.68563e-07
4.33473e-05
9.68364e-07
4.23764e-05
9.7091e-07
4.13997e-05
9.76675e-07
4.04135e-05
9.86195e-07
3.94134e-05
1.00007e-06
3.83945e-05
1.01894e-06
3.7351e-05
1.04351e-06
3.62765e-05
1.07453e-06
3.51637e-05
1.1128e-06
3.40044e-05
1.15923e-06
3.27896e-05
1.21482e-06
3.15084e-05
1.2812e-06
3.0149e-05
1.35938e-06
2.86914e-05
1.45759e-06
2.71236e-05
1.56785e-06
2.5371e-05
1.75264e-06
1.98872e-06
2.33822e-05
6.24903e-05
3.14595e-07
6.29676e-05
5.02326e-07
6.34184e-05
5.70908e-07
6.38334e-05
6.37442e-07
6.42051e-05
6.84309e-07
6.45331e-05
7.21176e-07
6.48186e-05
7.54257e-07
6.50635e-05
7.84251e-07
6.52699e-05
8.11864e-07
6.54398e-05
8.37887e-07
6.5575e-05
8.62843e-07
6.56772e-05
8.87161e-07
6.57476e-05
9.11265e-07
6.57876e-05
9.35587e-07
6.57981e-05
9.60593e-07
6.57799e-05
9.86812e-07
6.57334e-05
1.01485e-06
6.56589e-05
1.04542e-06
6.55562e-05
1.07931e-06
6.5425e-05
1.11746e-06
6.52641e-05
1.1609e-06
6.50723e-05
1.21082e-06
6.48472e-05
1.26857e-06
6.45861e-05
1.33566e-06
6.4285e-05
1.41384e-06
6.39392e-05
1.50509e-06
6.3542e-05
1.61195e-06
6.30858e-05
1.73748e-06
6.25587e-05
1.88647e-06
6.19505e-05
2.06578e-06
6.1232e-05
2.28633e-06
6.04119e-05
2.57276e-06
2.94161e-06
5.9459e-05
6.38353e-05
2.40702e-07
6.39129e-05
4.24703e-07
6.39847e-05
4.99087e-07
6.40598e-05
5.62363e-07
6.41373e-05
6.06854e-07
6.42192e-05
6.39249e-07
6.43067e-05
6.66773e-07
6.43999e-05
6.9104e-07
6.44988e-05
7.13e-07
6.4603e-05
7.33611e-07
6.47124e-05
7.53508e-07
6.48264e-05
7.7316e-07
6.49447e-05
7.92991e-07
6.50668e-05
8.13409e-07
6.51926e-05
8.34821e-07
6.53217e-05
8.57667e-07
6.54542e-05
8.82439e-07
6.55899e-05
9.09698e-07
6.57291e-05
9.40083e-07
6.58722e-05
9.74327e-07
6.60199e-05
1.01327e-06
6.61728e-05
1.05786e-06
6.63322e-05
1.10919e-06
6.64994e-05
1.16852e-06
6.66759e-05
1.23732e-06
6.68637e-05
1.3173e-06
6.7065e-05
1.41065e-06
6.72825e-05
1.52e-06
6.75197e-05
1.64926e-06
6.77823e-05
1.80316e-06
6.80794e-05
1.98923e-06
6.84371e-05
2.21504e-06
2.48394e-06
6.88948e-05
6.56414e-05
1.82374e-07
6.56956e-05
3.7052e-07
6.57348e-05
4.59868e-07
6.57672e-05
5.2996e-07
6.57934e-05
5.80688e-07
6.5815e-05
6.17607e-07
6.58335e-05
6.48309e-07
6.58495e-05
6.75063e-07
6.58635e-05
6.98933e-07
6.58762e-05
7.20956e-07
6.58878e-05
7.41847e-07
6.58989e-05
7.62114e-07
6.59097e-05
7.82192e-07
6.59206e-05
8.02474e-07
6.59321e-05
8.23334e-07
6.59446e-05
8.4516e-07
6.59587e-05
8.68378e-07
6.59749e-05
8.93452e-07
6.59941e-05
9.20877e-07
6.60173e-05
9.51195e-07
6.60455e-05
9.84991e-07
6.60805e-05
1.02289e-06
6.61241e-05
1.06558e-06
6.61788e-05
1.11378e-06
6.62479e-05
1.16827e-06
6.63353e-05
1.22989e-06
6.64464e-05
1.29959e-06
6.65879e-05
1.37842e-06
6.67697e-05
1.46748e-06
6.70048e-05
1.56811e-06
6.73142e-05
1.67974e-06
6.7727e-05
1.80223e-06
1.91664e-06
6.82943e-05
6.74913e-05
1.47863e-07
6.75344e-05
3.27438e-07
6.75716e-05
4.22602e-07
6.76066e-05
4.94982e-07
6.76375e-05
5.4979e-07
6.7664e-05
5.91097e-07
6.76868e-05
6.25555e-07
6.77061e-05
6.55712e-07
6.77223e-05
6.8272e-07
6.77357e-05
7.0765e-07
6.77462e-05
7.31271e-07
6.77542e-05
7.54115e-07
6.77598e-05
7.76631e-07
6.7763e-05
7.99217e-07
6.77642e-05
8.22228e-07
6.77633e-05
8.46005e-07
6.77608e-05
8.70897e-07
6.7757e-05
8.97277e-07
6.77523e-05
9.2553e-07
6.77474e-05
9.56056e-07
6.77432e-05
9.89254e-07
6.77406e-05
1.02551e-06
6.7741e-05
1.06517e-06
6.77462e-05
1.10855e-06
6.77586e-05
1.15588e-06
6.77812e-05
1.20725e-06
6.78183e-05
1.26255e-06
6.78753e-05
1.32137e-06
6.79603e-05
1.38253e-06
6.80843e-05
1.44413e-06
6.82634e-05
1.50058e-06
6.85213e-05
1.54433e-06
1.55205e-06
6.88859e-05
6.94125e-05
1.19365e-07
6.94533e-05
2.86642e-07
6.94895e-05
3.86396e-07
6.95225e-05
4.62046e-07
6.95514e-05
5.20853e-07
6.95763e-05
5.66152e-07
6.95981e-05
6.03842e-07
6.9617e-05
6.36803e-07
6.96333e-05
6.66363e-07
6.96473e-05
6.93639e-07
6.96592e-05
7.19454e-07
6.96689e-05
7.44384e-07
6.96766e-05
7.68884e-07
6.96825e-05
7.93323e-07
6.96867e-05
8.18015e-07
6.96895e-05
8.43265e-07
6.9691e-05
8.69391e-07
6.96916e-05
8.96706e-07
6.96916e-05
9.25472e-07
6.96917e-05
9.5595e-07
6.96926e-05
9.8836e-07
6.96953e-05
1.02286e-06
6.97009e-05
1.05952e-06
6.97112e-05
1.09827e-06
6.97282e-05
1.13886e-06
6.97547e-05
1.18074e-06
6.97944e-05
1.22291e-06
6.9852e-05
1.26375e-06
6.99341e-05
1.30039e-06
7.00497e-05
1.32857e-06
7.02103e-05
1.33995e-06
7.04319e-05
1.3228e-06
1.25524e-06
7.07287e-05
7.13858e-05
9.99022e-08
7.14178e-05
2.54629e-07
7.14487e-05
3.55472e-07
7.14787e-05
4.32093e-07
7.15067e-05
4.92858e-07
7.15319e-05
5.40896e-07
7.15546e-05
5.81213e-07
7.15747e-05
6.16679e-07
7.15924e-05
6.48664e-07
7.16078e-05
6.78247e-07
7.1621e-05
7.06241e-07
7.16322e-05
7.33204e-07
7.16415e-05
7.59574e-07
7.16491e-05
7.85727e-07
7.16551e-05
8.11985e-07
7.16598e-05
8.38618e-07
7.16633e-05
8.65846e-07
7.16662e-05
8.93856e-07
7.16688e-05
9.22822e-07
7.16719e-05
9.5286e-07
7.16762e-05
9.84024e-07
7.16828e-05
1.01626e-06
7.1693e-05
1.04936e-06
7.17083e-05
1.08292e-06
7.1731e-05
1.11623e-06
7.17635e-05
1.14818e-06
7.18094e-05
1.17705e-06
7.18728e-05
1.20029e-06
7.19594e-05
1.21387e-06
7.20758e-05
1.2121e-06
7.22302e-05
1.18558e-06
7.24318e-05
1.12122e-06
1.00082e-06
7.26862e-05
7.34203e-05
8.48814e-08
7.34487e-05
2.26203e-07
7.34785e-05
3.2569e-07
7.35079e-05
4.02741e-07
7.35354e-05
4.65292e-07
7.35603e-05
5.1606e-07
7.35824e-05
5.59073e-07
7.3602e-05
5.97047e-07
7.36193e-05
6.31398e-07
7.36343e-05
6.63195e-07
7.36473e-05
6.93254e-07
7.36584e-05
7.22156e-07
7.36676e-05
7.50342e-07
7.36752e-05
7.78156e-07
7.36813e-05
8.05863e-07
7.36863e-05
8.3367e-07
7.36904e-05
8.61749e-07
7.3694e-05
8.90234e-07
7.36976e-05
9.1921e-07
7.37018e-05
9.4865e-07
7.37074e-05
9.7843e-07
7.37154e-05
1.00829e-06
7.3727e-05
1.03777e-06
7.37437e-05
1.06616e-06
7.37675e-05
1.0924e-06
7.38008e-05
1.11492e-06
7.38464e-05
1.13149e-06
7.39077e-05
1.13892e-06
7.3989e-05
1.13259e-06
7.40949e-05
1.1062e-06
7.423e-05
1.05051e-06
7.43983e-05
9.52932e-07
7.9954e-07
7.45996e-05
7.55139e-05
7.34764e-08
7.55375e-05
2.02556e-07
7.55636e-05
2.9956e-07
7.55901e-05
3.76309e-07
7.56157e-05
4.39683e-07
7.56395e-05
4.92211e-07
7.56614e-05
5.37209e-07
7.56813e-05
5.77192e-07
7.56991e-05
6.1357e-07
7.57149e-05
6.47358e-07
7.57288e-05
6.79345e-07
7.57409e-05
7.10098e-07
7.57512e-05
7.40033e-07
7.57599e-05
7.6945e-07
7.57672e-05
7.9856e-07
7.57734e-05
8.27516e-07
7.57787e-05
8.56431e-07
7.57836e-05
8.85362e-07
7.57885e-05
9.14281e-07
7.57941e-05
9.43075e-07
7.5801e-05
9.71474e-07
7.58103e-05
9.99035e-07
7.58229e-05
1.0251e-06
7.58404e-05
1.04872e-06
7.58642e-05
1.06856e-06
7.58964e-05
1.08276e-06
7.59391e-05
1.08878e-06
7.59948e-05
1.08315e-06
7.60663e-05
1.06114e-06
7.61559e-05
1.01657e-06
7.62653e-05
9.41109e-07
7.63944e-05
8.23817e-07
6.55011e-07
7.6539e-05
7.76686e-05
6.4458e-08
7.76891e-05
1.82097e-07
7.77133e-05
2.75342e-07
7.77386e-05
3.50966e-07
7.77637e-05
4.14599e-07
7.77874e-05
4.68517e-07
7.78092e-05
5.15356e-07
7.78291e-05
5.57302e-07
7.7847e-05
5.95676e-07
7.7863e-05
6.31433e-07
7.7877e-05
6.65311e-07
7.78892e-05
6.97839e-07
7.78999e-05
7.29393e-07
7.79091e-05
7.60256e-07
7.7917e-05
7.90636e-07
7.79239e-05
8.20663e-07
7.79299e-05
8.5038e-07
7.79355e-05
8.79749e-07
7.79412e-05
9.08643e-07
7.79474e-05
9.36834e-07
7.79549e-05
9.63944e-07
7.79646e-05
9.89405e-07
7.79772e-05
1.01241e-06
7.79941e-05
1.03186e-06
7.80164e-05
1.04626e-06
7.80456e-05
1.0536e-06
7.80831e-05
1.05124e-06
7.81305e-05
1.03577e-06
7.81889e-05
1.0027e-06
7.8259e-05
9.46459e-07
7.834e-05
8.60125e-07
7.8429e-05
7.34886e-07
5.64775e-07
7.85192e-05
7.98856e-05
5.71514e-08
7.99032e-05
1.6449e-07
7.99251e-05
2.53516e-07
7.99484e-05
3.27639e-07
7.99718e-05
3.91132e-07
7.99944e-05
4.45944e-07
8.00156e-05
4.94163e-07
8.00352e-05
5.37677e-07
8.00532e-05
5.77719e-07
8.00695e-05
6.15176e-07
8.0084e-05
6.50745e-07
8.00969e-05
6.84935e-07
8.01082e-05
7.18088e-07
8.01181e-05
7.50406e-07
8.01267e-05
7.82008e-07
8.01344e-05
8.12973e-07
8.01414e-05
8.43338e-07
8.01481e-05
8.73053e-07
8.01548e-05
9.0193e-07
8.0162e-05
9.29635e-07
8.01703e-05
9.55686e-07
8.01803e-05
9.79418e-07
8.01928e-05
9.99938e-07
8.02086e-05
1.01606e-06
8.02286e-05
1.02623e-06
8.02537e-05
1.02846e-06
8.02848e-05
1.0202e-06
8.03223e-05
9.98302e-07
8.03661e-05
9.58835e-07
8.04154e-05
8.97133e-07
8.04677e-05
8.0784e-07
8.05182e-05
6.84398e-07
5.23906e-07
8.05591e-05
8.21665e-05
5.10722e-08
8.21819e-05
1.49113e-07
8.22019e-05
2.33538e-07
8.22239e-05
3.05645e-07
8.22465e-05
3.68518e-07
8.22687e-05
4.23777e-07
8.22898e-05
4.73068e-07
8.23095e-05
5.17957e-07
8.23276e-05
5.59545e-07
8.23442e-05
5.98624e-07
8.23591e-05
6.35809e-07
8.23725e-05
6.7154e-07
8.23845e-05
7.06109e-07
8.23952e-05
7.39712e-07
8.24047e-05
7.72477e-07
8.24132e-05
8.04458e-07
8.2421e-05
8.35622e-07
8.24282e-05
8.65829e-07
8.24353e-05
8.94822e-07
8.24427e-05
9.22221e-07
8.24509e-05
9.47499e-07
8.24604e-05
9.69951e-07
8.24716e-05
9.88651e-07
8.24853e-05
1.00241e-06
8.25018e-05
1.00972e-06
8.25215e-05
1.00872e-06
8.25446e-05
9.97114e-07
8.25708e-05
9.72165e-07
8.25989e-05
9.30664e-07
8.26271e-05
8.68987e-07
8.26516e-05
7.83329e-07
8.26668e-05
6.6923e-07
5.26137e-07
8.26645e-05
8.4513e-05
4.58901e-08
8.45265e-05
1.35566e-07
8.45447e-05
2.15305e-07
8.45653e-05
2.8513e-07
8.45867e-05
3.4711e-07
8.46079e-05
4.02504e-07
8.46284e-05
4.52563e-07
8.46478e-05
4.98557e-07
8.46659e-05
5.4144e-07
8.46826e-05
5.81916e-07
8.46979e-05
6.20531e-07
8.47118e-05
6.57677e-07
8.47243e-05
6.93608e-07
8.47355e-05
7.28473e-07
8.47457e-05
7.6235e-07
8.47549e-05
7.95262e-07
8.47633e-05
8.27153e-07
8.47713e-05
8.57857e-07
8.4779e-05
8.87084e-07
8.47868e-05
9.14417e-07
8.4795e-05
9.39301e-07
8.4804e-05
9.61023e-07
8.48139e-05
9.78682e-07
8.48252e-05
9.91151e-07
8.48379e-05
9.97054e-07
8.48518e-05
9.94739e-07
8.48667e-05
9.82262e-07
8.48814e-05
9.57414e-07
8.48943e-05
9.17757e-07
8.49026e-05
8.60712e-07
8.49021e-05
7.83879e-07
8.48867e-05
6.84596e-07
5.64001e-07
8.48488e-05
8.69267e-05
4.13808e-08
8.69387e-05
1.23501e-07
8.69555e-05
1.98562e-07
8.69748e-05
2.65853e-07
8.69952e-05
3.2663e-07
8.70159e-05
3.81809e-07
8.70362e-05
4.32322e-07
8.70556e-05
4.79168e-07
8.70739e-05
5.23147e-07
8.70909e-05
5.64862e-07
8.71067e-05
6.04773e-07
8.71211e-05
6.43211e-07
8.71344e-05
6.8039e-07
8.71464e-05
7.16439e-07
8.71573e-05
7.51421e-07
8.71673e-05
7.85329e-07
8.71763e-05
8.18065e-07
8.71848e-05
8.49426e-07
8.71928e-05
8.79102e-07
8.72005e-05
9.06673e-07
8.72082e-05
9.31597e-07
8.7216e-05
9.53196e-07
8.72241e-05
9.70636e-07
8.72323e-05
9.82909e-07
8.72405e-05
9.88825e-07
8.72483e-05
9.87005e-07
8.72546e-05
9.75915e-07
8.72581e-05
9.53912e-07
8.72566e-05
9.1931e-07
8.72468e-05
8.70489e-07
8.72244e-05
8.06234e-07
8.71837e-05
7.25327e-07
6.30015e-07
8.71177e-05
8.94095e-05
3.73868e-08
8.94204e-05
1.12648e-07
8.94358e-05
1.83134e-07
8.94539e-05
2.47745e-07
8.94734e-05
3.07111e-07
8.94934e-05
3.61827e-07
8.95132e-05
4.12546e-07
8.95323e-05
4.60019e-07
8.95506e-05
5.04891e-07
8.95678e-05
5.4766e-07
8.95839e-05
5.88712e-07
8.95988e-05
6.28325e-07
8.96125e-05
6.66677e-07
8.9625e-05
7.03865e-07
8.96365e-05
7.39919e-07
8.96471e-05
7.74803e-07
8.96567e-05
8.08402e-07
8.96656e-05
8.4051e-07
8.96739e-05
8.70821e-07
8.96817e-05
8.9893e-07
8.96889e-05
9.24333e-07
8.96957e-05
9.46415e-07
8.97019e-05
9.64444e-07
8.97073e-05
9.77568e-07
8.97113e-05
9.8482e-07
8.97131e-05
9.85129e-07
8.97117e-05
9.77388e-07
8.97051e-05
9.60493e-07
8.96909e-05
9.33438e-07
8.9666e-05
8.95422e-07
8.96261e-05
8.46163e-07
8.95659e-05
7.85525e-07
7.16382e-07
8.94795e-05
9.19634e-05
3.37977e-08
9.19733e-05
1.02791e-07
9.19876e-05
1.68844e-07
9.20047e-05
2.30671e-07
9.20233e-05
2.88431e-07
9.20427e-05
3.42435e-07
9.20622e-05
3.93098e-07
9.20813e-05
4.40957e-07
9.20996e-05
4.86509e-07
9.21171e-05
5.30151e-07
9.21337e-05
5.72194e-07
9.21491e-05
6.1286e-07
9.21635e-05
6.5229e-07
9.21768e-05
6.90554e-07
9.21891e-05
7.27663e-07
9.22003e-05
7.63563e-07
9.22106e-05
7.98127e-07
9.222e-05
8.31147e-07
9.22284e-05
8.62335e-07
9.2236e-05
8.91324e-07
9.22427e-05
9.17665e-07
9.22483e-05
9.40833e-07
9.22525e-05
9.60221e-07
9.22549e-05
9.75155e-07
9.22548e-05
9.84908e-07
9.22512e-05
9.88732e-07
9.22427e-05
9.85912e-07
9.22274e-05
9.75831e-07
9.22028e-05
9.58058e-07
9.21657e-05
9.32446e-07
9.21125e-05
8.99403e-07
9.20385e-05
8.59548e-07
8.16014e-07
9.19388e-05
9.45904e-05
3.05337e-08
9.45995e-05
9.37591e-08
9.46128e-05
1.55542e-07
9.46289e-05
2.14529e-07
9.46468e-05
2.70535e-07
9.46656e-05
3.23629e-07
9.46847e-05
3.74021e-07
9.47036e-05
4.22059e-07
9.4722e-05
4.68101e-07
9.47397e-05
5.12447e-07
9.47565e-05
5.55335e-07
9.47725e-05
5.96937e-07
9.47874e-05
6.37358e-07
9.48013e-05
6.76642e-07
9.48142e-05
7.14778e-07
9.48261e-05
7.51701e-07
9.48369e-05
7.87285e-07
9.48467e-05
8.21337e-07
9.48554e-05
8.53603e-07
9.4863e-05
8.83765e-07
9.48692e-05
9.11448e-07
9.48738e-05
9.36229e-07
9.48764e-05
9.57643e-07
9.48764e-05
9.75198e-07
9.48729e-05
9.88406e-07
9.48648e-05
9.96814e-07
9.48506e-05
1.00006e-06
9.48285e-05
9.97931e-07
9.47961e-05
9.90458e-07
9.47506e-05
9.77979e-07
9.46886e-05
9.61361e-07
9.46065e-05
9.41696e-07
9.22095e-07
9.45004e-05
9.72925e-05
2.75365e-08
9.73009e-05
8.54172e-08
9.73133e-05
1.43095e-07
9.73286e-05
1.99213e-07
9.73458e-05
2.53341e-07
9.73641e-05
3.0534e-07
9.73829e-05
3.55247e-07
9.74017e-05
4.03252e-07
9.74202e-05
4.49583e-07
9.74382e-05
4.94452e-07
9.74555e-05
5.38027e-07
9.7472e-05
5.80433e-07
9.74876e-05
6.2174e-07
9.75023e-05
6.61971e-07
9.7516e-05
7.01102e-07
9.75286e-05
7.39065e-07
9.75402e-05
7.75741e-07
9.75505e-05
8.10959e-07
9.75596e-05
8.44505e-07
9.75673e-05
8.76119e-07
9.75732e-05
9.05511e-07
9.75771e-05
9.32366e-07
9.75784e-05
9.56359e-07
9.75764e-05
9.7718e-07
9.75702e-05
9.94556e-07
9.75588e-05
1.00829e-06
9.75405e-05
1.01832e-06
9.75137e-05
1.02475e-06
9.74762e-05
1.02795e-06
9.74256e-05
1.02858e-06
9.73592e-05
1.02778e-06
9.7274e-05
1.02689e-06
1.02882e-06
9.71672e-05
0.000100072
2.47622e-08
0.00010008
7.76568e-08
0.000100091
1.31387e-07
0.000100106
1.84628e-07
0.000100122
2.36773e-07
0.00010014
2.87518e-07
0.000100159
3.36753e-07
0.000100178
3.84528e-07
0.000100196
4.30963e-07
0.000100214
4.76182e-07
0.000100232
5.20292e-07
0.000100249
5.63373e-07
0.000100265
6.05463e-07
0.000100281
6.46567e-07
0.000100295
6.86652e-07
0.000100309
7.25649e-07
0.000100321
7.63454e-07
0.000100332
7.99927e-07
0.000100342
8.34897e-07
0.00010035
8.6817e-07
0.000100356
8.99541e-07
0.000100359
9.28804e-07
0.00010036
9.55769e-07
0.000100357
9.80285e-07
0.000100349
1.00227e-06
0.000100335
1.02174e-06
0.000100315
1.03885e-06
0.000100286
1.05395e-06
0.000100246
1.06762e-06
0.000100194
1.08073e-06
0.000100127
1.09452e-06
0.000100044
1.11039e-06
1.13094e-06
9.99416e-05
0.000102931
2.21772e-08
0.000102938
7.03904e-08
0.000102949
1.20319e-07
0.000102963
1.70683e-07
0.000102979
2.20755e-07
0.000102996
2.70097e-07
0.000103015
3.18478e-07
0.000103033
3.65832e-07
0.000103052
4.12178e-07
0.000103071
4.57565e-07
0.000103089
5.02046e-07
0.000103107
5.45657e-07
0.000103124
5.88409e-07
0.00010314
6.30292e-07
0.000103155
6.71266e-07
0.00010317
7.1127e-07
0.000103183
7.50217e-07
0.000103195
7.87999e-07
0.000103205
8.24494e-07
0.000103214
8.59573e-07
0.00010322
8.93112e-07
0.000103224
9.25003e-07
0.000103225
9.55177e-07
0.000103221
9.83619e-07
0.000103213
1.0104e-06
0.000103199
1.03569e-06
0.000103178
1.05981e-06
0.000103149
1.08327e-06
0.00010311
1.10677e-06
0.000103059
1.13124e-06
0.000102996
1.15794e-06
0.000102918
1.18821e-06
1.22424e-06
0.000102825
0.000105871
1.97545e-08
0.000105878
6.35454e-08
0.000105889
1.09801e-07
0.000105902
1.57292e-07
0.000105917
2.05209e-07
0.000105935
2.53012e-07
0.000105953
3.00368e-07
0.000105971
3.47114e-07
0.00010599
3.93183e-07
0.000106009
4.38559e-07
0.000106028
4.83242e-07
0.000106047
5.2723e-07
0.000106064
5.70512e-07
0.000106082
6.13063e-07
0.000106098
6.54841e-07
0.000106114
6.95793e-07
0.000106128
7.35853e-07
0.000106141
7.74947e-07
0.000106153
8.12999e-07
0.000106162
8.4994e-07
0.00010617
8.85718e-07
0.000106174
9.20315e-07
0.000106176
9.53758e-07
0.000106173
9.86141e-07
0.000106166
1.01764e-06
0.000106153
1.04856e-06
0.000106134
1.0793e-06
0.000106106
1.11045e-06
0.00010607
1.14276e-06
0.000106024
1.17715e-06
0.000105968
1.21479e-06
0.000105899
1.25688e-06
1.30523e-06
0.000105818
0.000108896
1.74726e-08
0.000108902
5.70607e-08
0.000108912
9.97527e-08
0.000108925
1.44373e-07
0.00010894
1.90059e-07
0.000108957
2.36192e-07
0.000108975
2.82357e-07
0.000108994
3.28309e-07
0.000109013
3.73911e-07
0.000109033
4.19087e-07
0.000109052
4.6379e-07
0.000109071
5.07987e-07
0.00010909
5.51644e-07
0.000109109
5.94726e-07
0.000109126
6.3719e-07
0.000109143
6.78995e-07
0.000109159
7.20093e-07
0.000109173
7.60444e-07
0.000109186
8.00012e-07
0.000109197
8.38782e-07
0.000109206
8.76764e-07
0.000109213
9.14008e-07
0.000109216
9.50619e-07
0.000109215
9.86768e-07
0.00010921
1.02271e-06
0.0001092
1.0588e-06
0.000109184
1.0955e-06
0.000109161
1.13342e-06
0.00010913
1.17327e-06
0.000109091
1.21593e-06
0.000109044
1.2624e-06
0.000108987
1.31371e-06
1.37129e-06
0.000108921
0.000112007
1.53125e-08
0.000112013
5.08823e-08
0.000112022
9.01005e-08
0.000112035
1.31845e-07
0.00011205
1.75221e-07
0.000112066
2.19552e-07
0.000112084
2.6436e-07
0.000112103
3.09332e-07
0.000112123
3.5427e-07
0.000112143
3.99047e-07
0.000112163
4.43576e-07
0.000112184
4.87796e-07
0.000112204
5.31654e-07
0.000112223
5.75104e-07
0.000112242
6.18106e-07
0.000112261
6.60627e-07
0.000112278
7.02639e-07
0.000112294
7.44127e-07
0.000112309
7.85094e-07
0.000112323
8.25565e-07
0.000112334
8.656e-07
0.000112342
9.05299e-07
0.000112348
9.4482e-07
0.000112351
9.84382e-07
0.000112349
1.02428e-06
0.000112343
1.0649e-06
0.000112332
1.1067e-06
0.000112315
1.15026e-06
0.000112292
1.19625e-06
0.000112262
1.2454e-06
0.000112226
1.29857e-06
0.000112183
1.35659e-06
1.42052e-06
0.000112134
0.000115207
1.32579e-08
0.000115212
4.49621e-08
0.000115222
8.07752e-08
0.000115234
1.1963e-07
0.000115249
1.60616e-07
0.000115265
2.03016e-07
0.000115283
2.46302e-07
0.000115302
2.90107e-07
0.000115322
3.34181e-07
0.000115343
3.78353e-07
0.000115364
4.22503e-07
0.000115386
4.66542e-07
0.000115407
5.10401e-07
0.000115428
5.54026e-07
0.000115449
5.97378e-07
0.000115469
6.40431e-07
0.000115488
6.83174e-07
0.000115507
7.25614e-07
0.000115524
7.6778e-07
0.00011554
8.09729e-07
0.000115554
8.51555e-07
0.000115566
8.93393e-07
0.000115575
9.35429e-07
0.000115582
9.77904e-07
0.000115585
1.02113e-06
0.000115584
1.06547e-06
0.00011558
1.11137e-06
0.000115571
1.15934e-06
0.000115557
1.20996e-06
0.000115538
1.26384e-06
0.000115515
1.32165e-06
0.000115488
1.38401e-06
1.45168e-06
0.000115457
0.000118498
1.12922e-08
0.000118504
3.9251e-08
0.000118513
7.17028e-08
0.000118525
1.07636e-07
0.000118539
1.46139e-07
0.000118556
1.86469e-07
0.000118574
2.28058e-07
0.000118593
2.70497e-07
0.000118614
3.13493e-07
0.000118636
3.56839e-07
0.000118658
4.00384e-07
0.00011868
4.44015e-07
0.000118703
4.8765e-07
0.000118726
5.31226e-07
0.000118749
5.74704e-07
0.000118771
6.18063e-07
0.000118793
6.61303e-07
0.000118814
7.04446e-07
0.000118834
7.47541e-07
0.000118853
7.90664e-07
0.000118871
8.33928e-07
0.000118887
8.77485e-07
0.000118901
9.2153e-07
0.000118912
9.66307e-07
0.000118921
1.01211e-06
0.000118928
1.05927e-06
0.000118931
1.1082e-06
0.000118931
1.15931e-06
0.000118928
1.21307e-06
0.000118922
1.26996e-06
0.000118913
1.33048e-06
0.000118902
1.39507e-06
1.46422e-06
0.000118889
0.000121883
9.40089e-09
0.000121889
3.37055e-08
0.000121898
6.28203e-08
0.000121909
9.57929e-08
0.000121924
1.3172e-07
0.000121941
1.69841e-07
0.000121959
2.09563e-07
0.000121979
2.50439e-07
0.000122
2.92142e-07
0.000122023
3.34432e-07
0.000122046
3.77131e-07
0.00012207
4.20108e-07
0.000122094
4.63265e-07
0.000122119
5.06533e-07
0.000122144
5.49868e-07
0.000122169
5.93253e-07
0.000122193
6.36695e-07
0.000122218
6.80224e-07
0.000122241
7.23898e-07
0.000122264
7.67805e-07
0.000122286
8.12062e-07
0.000122307
8.56825e-07
0.000122326
9.02281e-07
0.000122343
9.48657e-07
0.000122359
9.96214e-07
0.000122373
1.04525e-06
0.000122385
1.09608e-06
0.000122396
1.14905e-06
0.000122404
1.20452e-06
0.000122411
1.26284e-06
0.000122418
1.32433e-06
0.000122423
1.38927e-06
1.45796e-06
0.00012243
0.000125365
7.56241e-09
0.000125371
2.82632e-08
0.00012538
5.40271e-08
0.000125391
8.39655e-08
0.000125406
1.17193e-07
0.000125423
1.52945e-07
0.000125442
1.90607e-07
0.000125462
2.29705e-07
0.000125485
2.69882e-07
0.000125508
3.1087e-07
0.000125533
3.52468e-07
0.000125559
3.94525e-07
0.000125585
4.36931e-07
0.000125612
4.79605e-07
0.000125639
5.22502e-07
0.000125667
5.65602e-07
0.000125695
6.08912e-07
0.000125722
6.52465e-07
0.00012575
6.96321e-07
0.000125777
7.40567e-07
0.000125804
7.85318e-07
0.00012583
8.30716e-07
0.000125855
8.76931e-07
0.00012588
9.2416e-07
0.000125903
9.72622e-07
0.000125926
1.02255e-06
0.000125948
1.07421e-06
0.000125969
1.12784e-06
0.00012599
1.18369e-06
0.000126011
1.24199e-06
0.000126032
1.30294e-06
0.000126055
1.36668e-06
1.43333e-06
0.00012608
0.000128947
5.76735e-09
0.000128952
2.28915e-08
0.000128961
4.52839e-08
0.000128973
7.21207e-08
0.000128988
1.0254e-07
0.000129005
1.35776e-07
0.000129024
1.71194e-07
0.000129045
2.083e-07
0.000129069
2.46711e-07
0.000129093
2.86136e-07
0.00012912
3.26353e-07
0.000129147
3.67194e-07
0.000129175
4.08535e-07
0.000129205
4.50287e-07
0.000129235
4.92397e-07
0.000129265
5.34841e-07
0.000129297
5.77625e-07
0.000129328
6.20777e-07
0.00012936
6.64353e-07
0.000129393
7.08431e-07
0.000129425
7.53114e-07
0.000129457
7.98523e-07
0.000129489
8.44802e-07
0.000129521
8.92108e-07
0.000129553
9.40615e-07
0.000129585
9.90499e-07
0.000129617
1.04194e-06
0.00012965
1.0951e-06
0.000129684
1.15014e-06
0.000129719
1.20718e-06
0.000129755
1.2663e-06
0.000129794
1.32753e-06
1.39088e-06
0.000129837
0.000132631
3.96417e-09
0.000132636
1.74578e-08
0.000132645
3.63806e-08
0.000132657
5.99789e-08
0.000132672
8.74265e-08
0.00013269
1.17964e-07
0.000132711
1.50939e-07
0.000132733
1.85833e-07
0.000132757
2.22241e-07
0.000132784
2.59849e-07
0.000132812
2.98414e-07
0.000132841
3.3775e-07
0.000132872
3.77718e-07
0.000132904
4.1822e-07
0.000132937
4.59193e-07
0.000132971
5.00606e-07
0.000133007
5.42457e-07
0.000133043
5.84768e-07
0.000133079
6.27582e-07
0.000133117
6.70966e-07
0.000133155
7.15e-07
0.000133194
7.59784e-07
0.000133233
8.05427e-07
0.000133273
8.52047e-07
0.000133314
8.99767e-07
0.000133356
9.48706e-07
0.000133399
9.98974e-07
0.000133443
1.05067e-06
0.000133489
1.10385e-06
0.000133538
1.15857e-06
0.00013359
1.21483e-06
0.000133645
1.27255e-06
1.33167e-06
0.000133704
0.00013642
2.19184e-09
0.000136426
1.20136e-08
0.000136434
2.74125e-08
0.000136447
4.76775e-08
0.000136462
7.20212e-08
0.00013648
9.96927e-08
0.000136501
1.30013e-07
0.000136525
1.62448e-07
0.00013655
1.96576e-07
0.000136578
2.32064e-07
0.000136608
2.68648e-07
0.00013664
3.0613e-07
0.000136673
3.44357e-07
0.000136708
3.83219e-07
0.000136745
4.22645e-07
0.000136783
4.62593e-07
0.000136822
5.03052e-07
0.000136863
5.44031e-07
0.000136905
5.85561e-07
0.000136948
6.27689e-07
0.000136992
6.70475e-07
0.000137038
7.13988e-07
0.000137085
7.58306e-07
0.000137134
8.03504e-07
0.000137184
8.49659e-07
0.000137236
8.96836e-07
0.00013729
9.45086e-07
0.000137346
9.9444e-07
0.000137405
1.0449e-06
0.000137467
1.09645e-06
0.000137533
1.14901e-06
0.000137603
1.20246e-06
1.25668e-06
0.000137678
0.000140318
2.35558e-10
0.000140324
6.12596e-09
0.000140333
1.77843e-08
0.000140346
3.45128e-08
0.000140363
5.55786e-08
0.000140382
8.02409e-08
0.000140405
1.07752e-07
0.000140429
1.37551e-07
0.000140457
1.69203e-07
0.000140487
2.02345e-07
0.000140518
2.36696e-07
0.000140553
2.72039e-07
0.000140589
3.08209e-07
0.000140627
3.45085e-07
0.000140667
3.82585e-07
0.000140709
4.20656e-07
0.000140753
4.59274e-07
0.000140798
4.98438e-07
0.000140846
5.38163e-07
0.000140895
5.78476e-07
0.000140946
6.19415e-07
0.000140999
6.61022e-07
0.000141054
7.03342e-07
0.000141111
7.46416e-07
0.00014117
7.90276e-07
0.000141232
8.34945e-07
0.000141297
8.80424e-07
0.000141365
9.26697e-07
0.000141436
9.73719e-07
0.000141511
1.02141e-06
0.00014159
1.06967e-06
0.000141674
1.11834e-06
1.16724e-06
0.000141764
0.000144326
-1.56186e-09
0.000144332
2.8294e-10
0.000144342
8.11402e-09
0.000144355
2.11085e-08
0.000144372
3.86583e-08
0.000144392
6.00894e-08
0.000144416
8.45104e-08
0.000144442
1.11359e-07
0.000144471
1.40203e-07
0.000144503
1.70657e-07
0.000144537
2.02412e-07
0.000144574
2.35237e-07
0.000144613
2.68954e-07
0.000144655
3.03429e-07
0.000144699
3.38569e-07
0.000144745
3.7431e-07
0.000144794
4.10614e-07
0.000144844
4.47468e-07
0.000144898
4.84869e-07
0.000144953
5.22829e-07
0.000145011
5.61361e-07
0.000145072
6.00483e-07
0.000145135
6.4021e-07
0.000145201
6.80548e-07
0.00014527
7.21495e-07
0.000145342
7.63034e-07
0.000145417
8.05132e-07
0.000145496
8.47734e-07
0.000145579
8.90762e-07
0.000145666
9.34109e-07
0.000145758
9.77641e-07
0.000145855
1.02118e-06
1.06455e-06
0.000145958
0.000148451
-4.1987e-09
0.000148458
-7.07745e-09
0.000148469
-3.26573e-09
0.000148485
5.86853e-09
0.000148503
1.98394e-08
0.000148525
3.81881e-08
0.00014855
5.95148e-08
0.000148578
8.33508e-08
0.000148609
1.09288e-07
0.000148643
1.369e-07
0.00014868
1.65849e-07
0.000148719
1.95892e-07
0.000148761
2.26843e-07
0.000148806
2.58561e-07
0.000148853
2.90942e-07
0.000148904
3.23915e-07
0.000148957
3.57432e-07
0.000149013
3.91469e-07
0.000149072
4.26011e-07
0.000149134
4.61052e-07
0.000149198
4.96591e-07
0.000149266
5.32625e-07
0.000149337
5.69147e-07
0.000149412
6.06142e-07
0.00014949
6.4358e-07
0.000149571
6.81419e-07
0.000149657
7.196e-07
0.000149747
7.58043e-07
0.000149841
7.96649e-07
0.000149939
8.35296e-07
0.000150043
8.73839e-07
0.000150152
9.12096e-07
9.49899e-07
0.000150267
0.000152691
-6.01416e-09
0.000152698
-1.37294e-08
0.000152709
-1.47411e-08
0.000152725
-9.76084e-09
0.000152745
-2.77973e-10
0.000152768
1.49491e-08
0.000152795
3.27742e-08
0.000152825
5.32196e-08
0.000152858
7.59064e-08
0.000152895
1.00363e-07
0.000152935
1.2618e-07
0.000152977
1.53099e-07
0.000153023
1.80928e-07
0.000153072
2.09521e-07
0.000153124
2.38768e-07
0.00015318
2.6858e-07
0.000153238
2.98901e-07
0.0001533
3.297e-07
0.000153365
3.60953e-07
0.000153434
3.92642e-07
0.000153505
4.24753e-07
0.000153581
4.57267e-07
0.00015366
4.90154e-07
0.000153742
5.23373e-07
0.000153829
5.56873e-07
0.00015392
5.90592e-07
0.000154015
6.24459e-07
0.000154115
6.58386e-07
0.000154219
6.92267e-07
0.000154329
7.25978e-07
0.000154443
7.59379e-07
0.000154563
7.92297e-07
8.24575e-07
0.000154688
0.000157056
-1.07507e-08
0.000157067
-2.46817e-08
0.000157083
-3.01044e-08
0.000157101
-2.85381e-08
0.000157123
-2.16888e-08
0.000157148
-9.96846e-09
0.000157176
4.63764e-09
0.000157207
2.15738e-08
0.000157242
4.09652e-08
0.000157281
6.21738e-08
0.000157322
8.46534e-08
0.000157367
1.0818e-07
0.000157415
1.32555e-07
0.000157467
1.57627e-07
0.000157523
1.83295e-07
0.000157582
2.0946e-07
0.000157645
2.36072e-07
0.000157711
2.63094e-07
0.000157782
2.90492e-07
0.000157856
3.1824e-07
0.000157935
3.46321e-07
0.000158017
3.74717e-07
0.000158104
4.03403e-07
0.000158195
4.32334e-07
0.00015829
4.61444e-07
0.00015839
4.90657e-07
0.000158495
5.19889e-07
0.000158604
5.49044e-07
0.000158718
5.78017e-07
0.000158838
6.06688e-07
0.000158962
6.34928e-07
0.000159092
6.62583e-07
6.89512e-07
0.000159227
0.00016154
-1.27388e-08
0.00016155
-3.45507e-08
0.000161566
-4.59994e-08
0.000161587
-4.95635e-08
0.000161613
-4.70385e-08
0.000161642
-3.94604e-08
0.000161675
-2.81972e-08
0.000161711
-1.42943e-08
0.00016175
1.7458e-09
0.000161792
1.99552e-08
0.000161838
3.89819e-08
0.000161887
5.89404e-08
0.00016194
7.96621e-08
0.000161997
1.01023e-07
0.000162057
1.22953e-07
0.000162121
1.45262e-07
0.000162189
1.67909e-07
0.000162261
1.90898e-07
0.000162338
2.14196e-07
0.000162418
2.37772e-07
0.000162503
2.61602e-07
0.000162592
2.85664e-07
0.000162686
3.09926e-07
0.000162784
3.34304e-07
0.000162886
3.58715e-07
0.000162994
3.83095e-07
0.000163106
4.07383e-07
0.000163224
4.315e-07
0.000163347
4.55358e-07
0.000163474
4.78856e-07
0.000163607
5.01887e-07
0.000163746
5.24322e-07
5.46045e-07
0.000163889
0.000166165
-2.43032e-08
0.000166184
-5.29766e-08
0.000166205
-6.69239e-08
0.000166228
-7.25887e-08
0.000166253
-7.24745e-08
0.000166281
-6.75305e-08
0.000166312
-5.93084e-08
0.000166347
-4.87174e-08
0.000166385
-3.62878e-08
0.000166427
-2.23413e-08
0.000166473
-7.32135e-09
0.000166524
8.56173e-09
0.000166578
2.51293e-08
0.000166637
4.22108e-08
0.0001667
5.97343e-08
0.000166768
7.75742e-08
0.00016684
9.56847e-08
0.000166917
1.14031e-07
0.000166999
1.32549e-07
0.000167085
1.51227e-07
0.000167177
1.70049e-07
0.000167273
1.8906e-07
0.000167375
2.08371e-07
0.000167481
2.27908e-07
0.000167592
2.47483e-07
0.000167709
2.6697e-07
0.00016783
2.86291e-07
0.000167956
3.05378e-07
0.000168087
3.24164e-07
0.000168223
3.42574e-07
0.000168365
3.60525e-07
0.000168511
3.77922e-07
3.94681e-07
0.000168662
0.00017091
-3.37399e-08
0.000170936
-7.89827e-08
0.000170967
-9.74396e-08
0.000171001
-1.06903e-07
0.000171038
-1.09436e-07
0.000171077
-1.06627e-07
0.000171118
-1.00657e-07
0.000171162
-9.25846e-08
0.000171209
-8.28785e-08
0.000171258