/*--------------------------------*- C++ -*----------------------------------*\
  =========                 |
  \\      /  F ield         | OpenFOAM: The Open Source CFD Toolbox
   \\    /   O peration     | Website:  https://openfoam.org
    \\  /    A nd           | Version:  10
     \\/     M anipulation  |
\*---------------------------------------------------------------------------*/
FoamFile
{
    format      ascii;
    class       volScalarField;
    location    "0.065";
    object      nut;
}
// * * * * * * * * * * * * * * * * * * * * * * * * * * * * * * * * * * * * * //

dimensions      [0 2 -1 0 0 0 0];

internalField   nonuniform List<scalar> 
6820
(
0.000503209
0.000397074
0.000324506
0.000269354
0.000236475
0.000214074
0.000197439
0.0001847
0.000174395
0.000165728
0.000158249
0.000151666
0.00014578
0.000140452
0.00013558
0.000131086
0.000126909
0.000123001
0.000119322
0.000115839
0.000112523
0.000109347
0.000106288
0.000103321
0.000100423
9.75688e-05
9.47293e-05
9.18738e-05
8.89575e-05
8.59492e-05
8.27446e-05
7.92523e-05
7.53748e-05
8.18507e-05
0.000143722
0.000196414
0.000210832
0.00020641
0.000197554
0.000187299
0.000177401
0.000168448
0.000160425
0.000153229
0.000146742
0.000140856
0.000135481
0.000130544
0.000125986
0.000121757
0.000117815
0.000114125
0.000110657
0.000107386
0.000104292
0.000101355
9.8561e-05
9.58965e-05
9.33505e-05
9.09152e-05
8.85825e-05
8.636e-05
8.42289e-05
8.22996e-05
8.04559e-05
7.97138e-05
3.85902e-05
2.73941e-05
4.30423e-05
7.44564e-05
9.58626e-05
0.000109225
0.000116476
0.000119781
0.000120718
0.000120188
0.000118752
0.00011676
0.000114432
0.000111913
0.000109297
0.000106643
0.000103992
0.000101373
9.88036e-05
9.62954e-05
9.38566e-05
9.14923e-05
8.92062e-05
8.70012e-05
8.48803e-05
8.28472e-05
8.09074e-05
7.90708e-05
7.73522e-05
7.57829e-05
7.44075e-05
7.334e-05
7.27969e-05
1.99674e-05
2.35293e-05
2.20726e-05
1.2794e-05
2.91695e-06
1.24059e-05
2.29247e-05
3.15794e-05
3.85541e-05
4.41015e-05
4.84631e-05
5.18529e-05
5.44449e-05
5.63772e-05
5.77701e-05
5.8722e-05
5.93138e-05
5.96124e-05
5.96732e-05
5.95423e-05
5.92585e-05
5.8855e-05
5.83601e-05
5.77994e-05
5.71961e-05
5.65731e-05
5.59536e-05
5.53638e-05
5.48357e-05
5.44094e-05
5.41435e-05
5.41089e-05
5.44351e-05
1.32442e-05
1.50851e-05
1.99348e-05
2.20284e-05
2.14755e-05
1.95308e-05
1.69028e-05
1.39583e-05
1.0913e-05
7.895e-06
4.98778e-06
2.26606e-06
6.89901e-07
2.80698e-06
4.9331e-06
6.86698e-06
8.60571e-06
1.01589e-05
1.154e-05
1.27642e-05
1.38479e-05
1.48077e-05
1.56609e-05
1.64252e-05
1.71194e-05
1.77638e-05
1.83808e-05
1.89968e-05
1.96417e-05
2.03546e-05
2.11728e-05
2.21511e-05
2.32919e-05
1.01903e-05
1.10259e-05
1.18542e-05
1.26551e-05
1.32898e-05
1.38317e-05
1.42259e-05
1.44384e-05
1.44813e-05
1.43763e-05
1.41451e-05
1.38103e-05
1.33931e-05
1.29075e-05
1.23719e-05
1.18014e-05
1.12088e-05
1.06042e-05
9.99576e-06
9.38903e-06
8.7877e-06
8.19352e-06
7.60639e-06
7.0244e-06
6.44379e-06
5.85889e-06
5.262e-06
4.64414e-06
3.99667e-06
3.31992e-06
2.64897e-06
2.1394e-06
2.18243e-06
7.53426e-06
8.25834e-06
8.68735e-06
8.92395e-06
8.82196e-06
8.61965e-06
8.46044e-06
8.37538e-06
8.35775e-06
8.3829e-06
8.42378e-06
8.46165e-06
8.48697e-06
8.4976e-06
8.49026e-06
8.4635e-06
8.41735e-06
8.35252e-06
8.27003e-06
8.17095e-06
8.05626e-06
7.92673e-06
7.78282e-06
7.62463e-06
7.45187e-06
7.26394e-06
7.06013e-06
6.84081e-06
6.60833e-06
6.37394e-06
6.15959e-06
6.03239e-06
6.06904e-06
5.75108e-06
6.62067e-06
7.02338e-06
7.13739e-06
6.88701e-06
6.52729e-06
6.19939e-06
5.92779e-06
5.71091e-06
5.53943e-06
5.40117e-06
5.2864e-06
5.18785e-06
5.10014e-06
5.01964e-06
4.94379e-06
4.8704e-06
4.79758e-06
4.72375e-06
4.6476e-06
4.56797e-06
4.48386e-06
4.39437e-06
4.29875e-06
4.19649e-06
4.08774e-06
3.97379e-06
3.85885e-06
3.7515e-06
3.67175e-06
3.64995e-06
3.75005e-06
4.01818e-06
4.47632e-06
5.2586e-06
5.56258e-06
5.71889e-06
5.63872e-06
5.43232e-06
5.19052e-06
4.94775e-06
4.72336e-06
4.52525e-06
4.35167e-06
4.19821e-06
4.06078e-06
3.936e-06
3.82109e-06
3.71373e-06
3.61205e-06
3.51451e-06
3.41982e-06
3.32687e-06
3.2347e-06
3.14243e-06
3.04941e-06
2.95534e-06
2.86048e-06
2.76629e-06
2.6762e-06
2.5974e-06
2.54221e-06
2.53276e-06
2.59654e-06
2.77502e-06
3.08423e-06
3.54654e-06
4.24919e-06
4.53845e-06
4.70529e-06
4.67345e-06
4.51442e-06
4.3162e-06
4.11768e-06
3.93546e-06
3.77419e-06
3.63129e-06
3.50291e-06
3.38595e-06
3.27796e-06
3.17701e-06
3.08164e-06
2.99073e-06
2.90333e-06
2.81863e-06
2.73593e-06
2.65467e-06
2.57452e-06
2.49546e-06
2.418e-06
2.34354e-06
2.27489e-06
2.21704e-06
2.17846e-06
2.17138e-06
2.21374e-06
2.32352e-06
2.52221e-06
2.81268e-06
2.85545e-06
3.47195e-06
3.74282e-06
3.89803e-06
3.90223e-06
3.80042e-06
3.65693e-06
3.50215e-06
3.35067e-06
3.20972e-06
3.08091e-06
2.9635e-06
2.85622e-06
2.75762e-06
2.6663e-06
2.58103e-06
2.50075e-06
2.42456e-06
2.35174e-06
2.28178e-06
2.2144e-06
2.14968e-06
2.0881e-06
2.03087e-06
1.98013e-06
1.93947e-06
1.91436e-06
1.91271e-06
1.94439e-06
2.02165e-06
2.1539e-06
2.35067e-06
2.61089e-06
2.32831e-06
2.86435e-06
3.13291e-06
3.29298e-06
3.32968e-06
3.26685e-06
3.15405e-06
3.02203e-06
2.88804e-06
2.76129e-06
2.64476e-06
2.53843e-06
2.4414e-06
2.35247e-06
2.27044e-06
2.19429e-06
2.12317e-06
2.05642e-06
1.99361e-06
1.9345e-06
1.87913e-06
1.82794e-06
1.78182e-06
1.74237e-06
1.71209e-06
1.69464e-06
1.69495e-06
1.71927e-06
1.77444e-06
1.86746e-06
2.00225e-06
2.18208e-06
2.40529e-06
1.91646e-06
2.3843e-06
2.65399e-06
2.8175e-06
2.87446e-06
2.84186e-06
2.75918e-06
2.65421e-06
2.54268e-06
2.43326e-06
2.32968e-06
2.23315e-06
2.14385e-06
2.06147e-06
1.98549e-06
1.91535e-06
1.85054e-06
1.79069e-06
1.73556e-06
1.68514e-06
1.63969e-06
1.59985e-06
1.56672e-06
1.54202e-06
1.52814e-06
1.52825e-06
1.54618e-06
1.58623e-06
1.65242e-06
1.74806e-06
1.87477e-06
2.03197e-06
2.21924e-06
1.58712e-06
1.99976e-06
2.27206e-06
2.44299e-06
2.51892e-06
2.51295e-06
2.45542e-06
2.37102e-06
2.27526e-06
2.17763e-06
2.08314e-06
1.9941e-06
1.91142e-06
1.83525e-06
1.76536e-06
1.70141e-06
1.64306e-06
1.59008e-06
1.54241e-06
1.50018e-06
1.46381e-06
1.43403e-06
1.41196e-06
1.39917e-06
1.39767e-06
1.40986e-06
1.43834e-06
1.4857e-06
1.55396e-06
1.64453e-06
1.75734e-06
1.89008e-06
2.04396e-06
1.31787e-06
1.68834e-06
1.96392e-06
2.14369e-06
2.23488e-06
2.24961e-06
2.21262e-06
2.1464e-06
2.06606e-06
1.98105e-06
1.89675e-06
1.81596e-06
1.74008e-06
1.66972e-06
1.60507e-06
1.54611e-06
1.49279e-06
1.44511e-06
1.40319e-06
1.36727e-06
1.33784e-06
1.31561e-06
1.30157e-06
1.29697e-06
1.3033e-06
1.32214e-06
1.35508e-06
1.40345e-06
1.46802e-06
1.54899e-06
1.64536e-06
1.75452e-06
1.87869e-06
1.09305e-06
1.43347e-06
1.71277e-06
1.90223e-06
2.00733e-06
2.04024e-06
2.02163e-06
1.97158e-06
1.90447e-06
1.82976e-06
1.75332e-06
1.67866e-06
1.60778e-06
1.54177e-06
1.48117e-06
1.42624e-06
1.37711e-06
1.33389e-06
1.29677e-06
1.26603e-06
1.24209e-06
1.22556e-06
1.21717e-06
1.21781e-06
1.22842e-06
1.24994e-06
1.28314e-06
1.3285e-06
1.38606e-06
1.45529e-06
1.53514e-06
1.62274e-06
1.72113e-06
9.0158e-07
1.2231e-06
1.50697e-06
1.70639e-06
1.8241e-06
1.87244e-06
1.86942e-06
1.83323e-06
1.77772e-06
1.71239e-06
1.64347e-06
1.57484e-06
1.5089e-06
1.44706e-06
1.39013e-06
1.33857e-06
1.29268e-06
1.25269e-06
1.21885e-06
1.19145e-06
1.17084e-06
1.15746e-06
1.15183e-06
1.15446e-06
1.16588e-06
1.1865e-06
1.21655e-06
1.256e-06
1.30448e-06
1.36116e-06
1.425e-06
1.4932e-06
1.56931e-06
7.35507e-07
1.04858e-06
1.33822e-06
1.54739e-06
1.67673e-06
1.7387e-06
1.74955e-06
1.72586e-06
1.68085e-06
1.62393e-06
1.56152e-06
1.49788e-06
1.43578e-06
1.37699e-06
1.32257e-06
1.27324e-06
1.22942e-06
1.19143e-06
1.15953e-06
1.13397e-06
1.115e-06
1.10289e-06
1.09791e-06
1.1003e-06
1.11022e-06
1.12773e-06
1.15272e-06
1.18485e-06
1.22354e-06
1.26787e-06
1.31693e-06
1.36809e-06
1.4252e-06
5.89282e-07
9.04042e-07
1.20078e-06
1.41923e-06
1.55923e-06
1.63318e-06
1.65615e-06
1.64337e-06
1.60745e-06
1.55775e-06
1.50086e-06
1.44135e-06
1.38229e-06
1.32572e-06
1.27293e-06
1.22478e-06
1.18181e-06
1.14439e-06
1.1128e-06
1.08724e-06
1.06788e-06
1.05484e-06
1.04821e-06
1.04803e-06
1.05425e-06
1.06668e-06
1.08503e-06
1.10882e-06
1.13741e-06
1.16989e-06
1.20552e-06
1.24191e-06
1.28294e-06
4.59573e-07
7.8612e-07
1.09093e-06
1.31785e-06
1.4675e-06
1.55211e-06
1.58585e-06
1.58285e-06
1.5552e-06
1.5121e-06
1.46024e-06
1.40442e-06
1.34794e-06
1.29305e-06
1.24124e-06
1.19352e-06
1.15053e-06
1.11269e-06
1.08027e-06
1.05343e-06
1.03228e-06
1.01683e-06
1.00705e-06
1.00283e-06
1.00397e-06
1.01019e-06
1.02109e-06
1.03615e-06
1.05475e-06
1.07607e-06
1.09952e-06
1.12297e-06
1.15027e-06
3.4611e-07
6.93814e-07
1.00652e-06
1.2407e-06
1.39876e-06
1.49261e-06
1.5356e-06
1.54093e-06
1.52011e-06
1.48218e-06
1.43392e-06
1.3803e-06
1.32486e-06
1.27007e-06
1.2176e-06
1.1686e-06
1.1238e-06
1.08367e-06
1.04852e-06
1.01848e-06
9.93608e-07
9.73873e-07
9.59167e-07
9.49313e-07
9.44061e-07
9.43082e-07
9.45973e-07
9.52237e-07
9.61325e-07
9.72518e-07
9.85386e-07
9.98076e-07
1.01419e-06
2.55065e-07
6.28412e-07
9.46845e-07
1.18659e-06
1.35182e-06
1.45384e-06
1.50518e-06
1.51823e-06
1.50393e-06
1.47116e-06
1.4267e-06
1.37561e-06
1.32157e-06
1.26717e-06
1.21421e-06
1.16393e-06
1.11714e-06
1.07434e-06
1.03585e-06
1.00182e-06
9.72284e-07
9.47208e-07
9.26467e-07
9.09881e-07
8.97207e-07
8.88149e-07
8.82354e-07
8.79408e-07
8.7887e-07
8.80158e-07
8.82989e-07
8.85752e-07
8.91874e-07
2.0673e-07
5.92809e-07
9.12012e-07
1.15489e-06
1.32548e-06
1.43384e-06
1.49155e-06
1.51014e-06
1.50006e-06
1.46999e-06
1.42675e-06
1.37554e-06
1.3202e-06
1.26354e-06
1.2075e-06
1.15345e-06
1.10229e-06
1.05458e-06
1.01068e-06
9.70748e-07
9.34838e-07
9.02912e-07
8.74869e-07
8.50553e-07
8.29775e-07
8.12303e-07
7.97875e-07
7.8619e-07
7.76931e-07
7.69669e-07
7.64237e-07
7.59313e-07
7.5791e-07
2.27513e-07
5.9023e-07
9.03205e-07
1.14677e-06
1.32165e-06
1.43606e-06
1.50045e-06
1.52551e-06
1.52111e-06
1.49558e-06
1.4556e-06
1.40633e-06
1.35167e-06
1.29446e-06
1.23674e-06
1.17994e-06
1.12505e-06
1.07268e-06
1.02325e-06
9.76974e-07
9.33949e-07
8.94196e-07
8.57674e-07
8.2431e-07
7.94006e-07
7.66648e-07
7.42113e-07
7.20256e-07
7.00933e-07
6.83899e-07
6.69143e-07
6.5558e-07
6.46054e-07
3.07647e-07
6.22015e-07
9.21078e-07
1.16168e-06
1.33775e-06
1.45473e-06
1.52164e-06
1.54839e-06
1.54447e-06
1.51814e-06
1.47616e-06
1.42387e-06
1.36531e-06
1.3035e-06
1.24057e-06
1.17806e-06
1.11696e-06
1.05795e-06
1.00142e-06
9.47619e-07
8.96637e-07
8.48516e-07
8.03249e-07
7.60821e-07
7.21217e-07
6.8444e-07
6.50509e-07
6.19454e-07
5.91323e-07
5.66099e-07
5.43931e-07
5.24124e-07
5.0905e-07
4.21377e-07
6.87676e-07
9.68347e-07
1.2051e-06
1.38379e-06
1.50655e-06
1.58067e-06
1.61483e-06
1.61763e-06
1.59674e-06
1.55858e-06
1.50835e-06
1.45011e-06
1.38694e-06
1.32114e-06
1.25439e-06
1.18785e-06
1.12232e-06
1.05834e-06
9.96235e-07
9.36192e-07
8.7832e-07
8.22681e-07
7.69316e-07
7.18283e-07
6.69662e-07
6.23577e-07
5.80192e-07
5.3973e-07
5.02399e-07
4.68589e-07
4.37994e-07
4.12963e-07
5.57684e-07
7.85115e-07
1.04377e-06
1.27118e-06
1.44491e-06
1.56363e-06
1.63336e-06
1.66259e-06
1.66e-06
1.63349e-06
1.58964e-06
1.53375e-06
1.4699e-06
1.40114e-06
1.32971e-06
1.25719e-06
1.18468e-06
1.1129e-06
1.04233e-06
9.73271e-07
9.05877e-07
8.4025e-07
7.76449e-07
7.14528e-07
6.54559e-07
5.9665e-07
5.40964e-07
4.87728e-07
4.37251e-07
3.89919e-07
3.46284e-07
3.0668e-07
2.73086e-07
7.15358e-07
9.15113e-07
1.15625e-06
1.38175e-06
1.56285e-06
1.69367e-06
1.77704e-06
1.81911e-06
1.82707e-06
1.808e-06
1.76832e-06
1.71348e-06
1.64794e-06
1.57523e-06
1.49803e-06
1.41836e-06
1.33765e-06
1.25694e-06
1.17689e-06
1.09797e-06
1.02046e-06
9.44508e-07
8.70231e-07
7.97692e-07
7.26951e-07
6.58079e-07
5.9117e-07
5.26347e-07
4.63771e-07
4.03632e-07
3.46198e-07
2.91659e-07
2.40893e-07
8.98032e-07
1.07744e-06
1.29522e-06
1.5013e-06
1.66333e-06
1.77489e-06
1.84017e-06
1.8668e-06
1.86268e-06
1.83486e-06
1.78921e-06
1.7305e-06
1.66247e-06
1.588e-06
1.5093e-06
1.42802e-06
1.34541e-06
1.26238e-06
1.17958e-06
1.09751e-06
1.01651e-06
9.36835e-07
8.58682e-07
7.82211e-07
7.07572e-07
6.34919e-07
5.64419e-07
4.96259e-07
4.3066e-07
3.67873e-07
3.08176e-07
2.52064e-07
1.99368e-07
1.11199e-06
1.28255e-06
1.49927e-06
1.72535e-06
1.92034e-06
2.06692e-06
2.16197e-06
2.20971e-06
2.21739e-06
2.193e-06
2.14413e-06
2.07739e-06
1.99816e-06
1.91065e-06
1.81804e-06
1.72267e-06
1.62621e-06
1.52983e-06
1.43435e-06
1.34031e-06
1.24811e-06
1.15802e-06
1.07024e-06
9.84961e-07
9.02366e-07
8.22656e-07
7.46061e-07
6.7285e-07
6.03346e-07
5.37899e-07
4.7695e-07
4.20984e-07
3.70041e-07
1.36843e-06
1.52766e-06
1.70327e-06
1.87199e-06
2.00636e-06
2.10126e-06
2.16037e-06
2.18881e-06
2.19098e-06
2.17068e-06
2.13154e-06
2.07698e-06
2.01018e-06
1.93401e-06
1.85098e-06
1.76327e-06
1.67266e-06
1.58063e-06
1.48833e-06
1.39669e-06
1.30645e-06
1.21816e-06
1.13232e-06
1.04932e-06
9.69527e-07
8.93301e-07
8.21002e-07
7.53008e-07
6.89728e-07
6.31581e-07
5.79009e-07
5.32564e-07
4.91575e-07
1.67969e-06
1.85906e-06
2.09708e-06
2.37278e-06
2.61404e-06
2.78397e-06
2.88017e-06
2.91419e-06
2.89985e-06
2.85e-06
2.77541e-06
2.68435e-06
2.58278e-06
2.47493e-06
2.36371e-06
2.25111e-06
2.13852e-06
2.0269e-06
1.91697e-06
1.80926e-06
1.70421e-06
1.60218e-06
1.5035e-06
1.40845e-06
1.31733e-06
1.23041e-06
1.14796e-06
1.07025e-06
9.97541e-07
9.30011e-07
8.67901e-07
8.11177e-07
7.59528e-07
2.0761e-06
2.21332e-06
2.29002e-06
2.37027e-06
2.46362e-06
2.56226e-06
2.6538e-06
2.72628e-06
2.77114e-06
2.78501e-06
2.76886e-06
2.7263e-06
2.6621e-06
2.58117e-06
2.48807e-06
2.3867e-06
2.28028e-06
2.17132e-06
2.0618e-06
1.95318e-06
1.84658e-06
1.74281e-06
1.64248e-06
1.54605e-06
1.45386e-06
1.36618e-06
1.28321e-06
1.20514e-06
1.13214e-06
1.06438e-06
1.00201e-06
9.45415e-07
8.93225e-07
2.57754e-06
2.88559e-06
3.30507e-06
3.72624e-06
4.00551e-06
4.13067e-06
4.14802e-06
4.09799e-06
4.00678e-06
3.89135e-06
3.76177e-06
3.62347e-06
3.47954e-06
3.33204e-06
3.18259e-06
3.03265e-06
2.8836e-06
2.73674e-06
2.59324e-06
2.45408e-06
2.32008e-06
2.19187e-06
2.06989e-06
1.95447e-06
1.84577e-06
1.74384e-06
1.64868e-06
1.56015e-06
1.47816e-06
1.40248e-06
1.33305e-06
1.26975e-06
1.21202e-06
3.2812e-06
3.19332e-06
2.92466e-06
2.885e-06
3.07404e-06
3.34615e-06
3.59531e-06
3.77373e-06
3.87099e-06
3.89849e-06
3.87596e-06
3.82279e-06
3.75466e-06
3.68271e-06
3.61389e-06
3.55182e-06
3.49776e-06
3.45154e-06
3.41223e-06
3.37862e-06
3.34946e-06
3.3236e-06
3.30011e-06
3.27818e-06
3.25719e-06
3.23663e-06
3.21607e-06
3.19517e-06
3.17372e-06
3.15167e-06
3.12916e-06
3.10763e-06
3.08501e-06
4.31678e-06
5.54231e-06
6.29807e-06
6.54437e-06
6.44149e-06
6.22174e-06
6.076e-06
6.08834e-06
6.26572e-06
6.56941e-06
6.94565e-06
7.34687e-06
7.73838e-06
8.09783e-06
8.41273e-06
8.67764e-06
8.89176e-06
9.05712e-06
9.17733e-06
9.25678e-06
9.30011e-06
9.31185e-06
9.29626e-06
9.25717e-06
9.19795e-06
9.12147e-06
9.03012e-06
8.92567e-06
8.80979e-06
8.68312e-06
8.54765e-06
8.40407e-06
8.2557e-06
5.64258e-06
3.58485e-06
2.75855e-06
4.61548e-06
7.33429e-06
9.90366e-06
1.20864e-05
1.38173e-05
1.51083e-05
1.60008e-05
1.65419e-05
1.67803e-05
1.6764e-05
1.65388e-05
1.61462e-05
1.56232e-05
1.50018e-05
1.43097e-05
1.35698e-05
1.2801e-05
1.20184e-05
1.1234e-05
1.04569e-05
9.69417e-06
8.95065e-06
8.2296e-06
7.53297e-06
6.86096e-06
6.2137e-06
5.58731e-06
4.98438e-06
4.39013e-06
3.82409e-06
1.14408e-05
1.6509e-05
1.82683e-05
1.97712e-05
2.02299e-05
1.94661e-05
1.77019e-05
1.52133e-05
1.2361e-05
9.70064e-06
8.15337e-06
8.65263e-06
1.08712e-05
1.38281e-05
1.69461e-05
1.99755e-05
2.28088e-05
2.54009e-05
2.77372e-05
2.98191e-05
3.16563e-05
3.32635e-05
3.46574e-05
3.58554e-05
3.68747e-05
3.77321e-05
3.84435e-05
3.90243e-05
3.94901e-05
3.98564e-05
4.01444e-05
4.03731e-05
4.05945e-05
2.48923e-05
2.86649e-05
3.90243e-05
5.34821e-05
6.77666e-05
8.17138e-05
9.45868e-05
0.000105779
0.000115243
0.000123054
0.000129321
0.000134196
0.000137849
0.000140446
0.000142138
0.000143064
0.000143347
0.000143093
0.000142397
0.000141336
0.000139979
0.000138382
0.000136594
0.000134653
0.000132594
0.000130442
0.000128222
0.000125948
0.000123639
0.000121295
0.000118937
0.000116571
0.000114415
0.000543328
0.000510573
0.00049158
0.000467856
0.000443786
0.000421393
0.000399835
0.00037918
0.000359697
0.000341406
0.000324295
0.000308349
0.000293527
0.000279765
0.000266994
0.000255141
0.000244132
0.000233893
0.000224356
0.000215455
0.000207131
0.000199328
0.000191997
0.000185094
0.000178577
0.000172412
0.000166562
0.000161003
0.000155687
0.00015062
0.00014563
0.000141289
0.000137271
7.06611e-05
6.30983e-05
5.34752e-05
4.11165e-05
2.78023e-05
1.75737e-05
1.72549e-05
2.62711e-05
3.74307e-05
4.88561e-05
5.71345e-05
5.96996e-05
5.89623e-05
5.97364e-05
6.30097e-05
6.6387e-05
7.04561e-05
7.85105e-05
7.08914e-05
5.52204e-05
5.0309e-05
4.51516e-05
3.8186e-05
3.18048e-05
2.66821e-05
2.2454e-05
1.84785e-05
1.43491e-05
1.01453e-05
6.93179e-06
6.30842e-06
7.50059e-06
9.75512e-06
1.22279e-05
1.35046e-05
1.53056e-05
1.84353e-05
2.31354e-05
2.65482e-05
2.63678e-05
2.37845e-05
2.08793e-05
1.84846e-05
1.65042e-05
1.47513e-05
1.31633e-05
1.17317e-05
1.0449e-05
9.30032e-06
8.26917e-06
7.34213e-06
6.50877e-06
5.76034e-06
5.08873e-06
4.48632e-06
3.94619e-06
3.4624e-06
3.03018e-06
2.64578e-06
2.30622e-06
2.00892e-06
1.75127e-06
1.53046e-06
1.34336e-06
1.18659e-06
1.05684e-06
9.50902e-07
8.66306e-07
8.0034e-07
7.50081e-07
7.11985e-07
6.82571e-07
6.59905e-07
6.44415e-07
6.37043e-07
6.35657e-07
6.34002e-07
6.25749e-07
6.09299e-07
5.88076e-07
5.6651e-07
5.46281e-07
5.26492e-07
5.06046e-07
4.84738e-07
4.62531e-07
4.38707e-07
4.12109e-07
3.82154e-07
3.49654e-07
3.16638e-07
2.85474e-07
2.57865e-07
2.34402e-07
2.14952e-07
1.98485e-07
1.85097e-07
1.72617e-07
1.65738e-07
1.49671e-07
0.000104232
9.03583e-05
6.81792e-05
5.14694e-05
3.84351e-05
3.03002e-05
3.18074e-05
4.17358e-05
5.37141e-05
6.14529e-05
6.14868e-05
5.51784e-05
4.85293e-05
4.68475e-05
4.87078e-05
5.12077e-05
5.35562e-05
6.10586e-05
6.83637e-05
5.85096e-05
4.786e-05
4.42747e-05
3.8847e-05
3.22498e-05
2.65574e-05
2.19222e-05
1.77524e-05
1.35918e-05
9.47313e-06
6.05883e-06
4.00377e-06
5.70233e-06
9.81723e-06
1.17141e-05
1.29399e-05
1.56521e-05
2.03983e-05
2.56827e-05
2.77519e-05
2.61929e-05
2.32133e-05
2.04699e-05
1.82557e-05
1.63715e-05
1.46833e-05
1.31539e-05
1.17721e-05
1.05251e-05
9.39739e-06
8.37624e-06
7.45204e-06
6.61718e-06
5.86462e-06
5.18729e-06
4.57828e-06
4.03117e-06
3.54036e-06
3.1013e-06
2.71036e-06
2.36462e-06
2.06151e-06
1.79849e-06
1.57276e-06
1.38121e-06
1.22041e-06
1.08691e-06
9.77404e-07
8.89064e-07
8.19425e-07
7.65802e-07
7.24958e-07
6.93653e-07
6.70099e-07
6.54906e-07
6.49306e-07
6.5126e-07
6.54026e-07
6.50045e-07
6.36657e-07
6.16548e-07
5.93871e-07
5.70633e-07
5.46723e-07
5.21936e-07
4.96769e-07
4.71569e-07
4.45671e-07
4.17726e-07
3.86846e-07
3.53567e-07
3.19765e-07
2.87798e-07
2.5943e-07
2.35344e-07
2.15409e-07
1.98637e-07
1.85229e-07
1.72436e-07
1.65569e-07
1.49468e-07
9.86374e-05
9.97726e-05
9.0019e-05
7.7329e-05
6.64493e-05
6.07059e-05
6.04027e-05
6.27398e-05
6.31901e-05
5.84995e-05
4.87288e-05
3.79354e-05
3.26421e-05
3.37265e-05
3.56873e-05
3.66921e-05
3.80242e-05
4.2213e-05
5.24675e-05
5.67145e-05
4.8001e-05
4.14594e-05
3.8511e-05
3.34087e-05
2.72867e-05
2.18122e-05
1.70948e-05
1.26628e-05
8.32714e-06
3.72341e-06
1.92404e-06
7.77655e-06
1.05034e-05
1.07889e-05
1.28406e-05
1.73105e-05
2.37563e-05
2.81713e-05
2.82436e-05
2.55778e-05
2.25312e-05
2.00398e-05
1.80153e-05
1.62422e-05
1.46315e-05
1.31629e-05
1.18265e-05
1.06095e-05
9.49957e-06
8.48745e-06
7.56648e-06
6.73089e-06
5.97478e-06
5.29194e-06
4.67613e-06
4.12154e-06
3.62305e-06
3.17645e-06
2.77832e-06
2.42582e-06
2.11638e-06
1.84737e-06
1.61592e-06
1.4189e-06
1.25288e-06
1.11445e-06
1.0004e-06
9.07988e-07
8.34764e-07
7.77985e-07
7.34322e-07
7.00461e-07
6.74652e-07
6.57807e-07
6.51796e-07
6.55188e-07
6.61298e-07
6.62072e-07
6.53512e-07
6.37042e-07
6.1605e-07
5.9242e-07
5.66504e-07
5.38895e-07
5.10916e-07
4.83498e-07
4.56201e-07
4.27574e-07
3.96446e-07
3.63063e-07
3.29122e-07
2.96952e-07
2.68348e-07
2.4408e-07
2.23962e-07
2.07139e-07
1.93379e-07
1.80763e-07
1.73468e-07
1.57822e-07
7.39806e-05
7.71982e-05
7.60916e-05
7.22416e-05
6.72126e-05
6.22483e-05
5.73374e-05
5.14937e-05
4.3508e-05
3.33379e-05
2.37444e-05
2.06391e-05
2.40723e-05
2.71563e-05
2.74826e-05
2.65374e-05
2.66063e-05
2.89564e-05
3.52887e-05
4.42787e-05
4.61928e-05
3.98637e-05
3.5567e-05
3.31705e-05
2.90054e-05
2.36228e-05
1.82677e-05
1.33824e-05
9.03982e-06
6.57732e-06
8.56921e-06
1.02941e-05
9.16278e-06
9.87402e-06
1.40607e-05
2.11542e-05
2.76207e-05
2.96752e-05
2.77996e-05
2.46316e-05
2.18437e-05
1.96486e-05
1.77937e-05
1.61203e-05
1.45838e-05
1.31741e-05
1.1881e-05
1.06928e-05
9.60072e-06
8.59875e-06
7.68246e-06
6.84741e-06
6.08866e-06
5.40083e-06
4.77847e-06
4.21645e-06
3.71022e-06
3.25595e-06
2.85044e-06
2.49097e-06
2.17498e-06
1.89987e-06
1.66278e-06
1.46056e-06
1.28981e-06
1.14706e-06
1.02901e-06
9.32812e-07
8.55872e-07
7.95567e-07
7.48749e-07
7.12234e-07
6.84385e-07
6.66387e-07
6.60646e-07
6.66166e-07
6.7597e-07
6.81058e-07
6.76497e-07
6.62844e-07
6.42874e-07
6.18278e-07
5.89702e-07
5.58427e-07
5.26603e-07
4.95828e-07
4.65982e-07
4.35574e-07
4.03173e-07
3.68738e-07
3.3378e-07
3.00595e-07
2.71027e-07
2.45938e-07
2.2514e-07
2.07832e-07
1.93649e-07
1.80978e-07
1.73628e-07
1.57566e-07
3.31829e-05
3.58249e-05
3.60006e-05
3.43171e-05
3.11311e-05
2.63672e-05
2.0623e-05
1.47307e-05
1.07384e-05
1.24209e-05
1.78059e-05
2.25596e-05
2.48407e-05
2.4662e-05
2.31731e-05
2.18082e-05
2.16688e-05
2.32175e-05
2.68761e-05
3.17437e-05
3.69072e-05
3.74545e-05
3.31434e-05
2.97114e-05
2.7662e-05
2.48119e-05
2.10138e-05
1.71141e-05
1.40398e-05
1.24369e-05
1.1042e-05
7.97296e-06
6.85181e-06
1.08346e-05
1.84974e-05
2.65482e-05
3.05009e-05
2.97132e-05
2.66595e-05
2.36109e-05
2.12222e-05
1.92874e-05
1.75734e-05
1.5994e-05
1.45322e-05
1.31806e-05
1.19293e-05
1.077e-05
9.69712e-06
8.70732e-06
7.79757e-06
6.96446e-06
6.20398e-06
5.51168e-06
4.883e-06
4.31359e-06
3.79951e-06
3.33737e-06
2.92425e-06
2.55754e-06
2.23475e-06
1.95324e-06
1.71014e-06
1.50228e-06
1.32623e-06
1.17854e-06
1.05591e-06
9.55454e-07
8.74668e-07
8.10869e-07
7.60862e-07
7.21367e-07
6.90703e-07
6.70277e-07
6.63171e-07
6.69224e-07
6.81835e-07
6.9145e-07
6.91919e-07
6.8262e-07
6.65464e-07
6.41685e-07
6.11977e-07
5.78182e-07
5.43308e-07
5.0975e-07
4.7785e-07
4.46176e-07
4.13079e-07
3.78219e-07
3.42892e-07
3.09328e-07
2.79387e-07
2.54016e-07
2.32977e-07
2.15601e-07
2.01159e-07
1.88496e-07
1.80781e-07
1.64899e-07
4.37795e-06
7.03778e-06
8.856e-06
9.57007e-06
9.89507e-06
1.11618e-05
1.38649e-05
1.72137e-05
2.02602e-05
2.24119e-05
2.33993e-05
2.32337e-05
2.2273e-05
2.11686e-05
2.04918e-05
2.0416e-05
2.0954e-05
2.20921e-05
2.4371e-05
2.78307e-05
2.9688e-05
3.0705e-05
3.01148e-05
2.70949e-05
2.38326e-05
2.13356e-05
1.89195e-05
1.61843e-05
1.3398e-05
1.02634e-05
6.37417e-06
4.11965e-06
8.16946e-06
1.66144e-05
2.57105e-05
3.10094e-05
3.12339e-05
2.84625e-05
2.52533e-05
2.26861e-05
2.06801e-05
1.89482e-05
1.7353e-05
1.58638e-05
1.44754e-05
1.31804e-05
1.1971e-05
1.08421e-05
9.79067e-06
8.81508e-06
7.91339e-06
7.08322e-06
6.32159e-06
5.62514e-06
4.99028e-06
4.41351e-06
3.89154e-06
3.42143e-06
3.00056e-06
2.62645e-06
2.29666e-06
2.00859e-06
1.75937e-06
1.54584e-06
1.3646e-06
1.21217e-06
1.08521e-06
9.80762e-07
8.96223e-07
8.28896e-07
7.75647e-07
7.33229e-07
6.99986e-07
6.77553e-07
6.69621e-07
6.76697e-07
6.92204e-07
7.0599e-07
7.10976e-07
7.05629e-07
6.91084e-07
6.6802e-07
6.36995e-07
6.00266e-07
5.61669e-07
5.24472e-07
4.89587e-07
4.55725e-07
4.2106e-07
3.84961e-07
3.48501e-07
3.13839e-07
2.82857e-07
2.56592e-07
2.34801e-07
2.16883e-07
2.01989e-07
1.89014e-07
1.81478e-07
1.6508e-07
8.82733e-06
1.10757e-05
1.38957e-05
1.65428e-05
1.86761e-05
2.0282e-05
2.12664e-05
2.15905e-05
2.13001e-05
2.05521e-05
1.96185e-05
1.88127e-05
1.83787e-05
1.83978e-05
1.87917e-05
1.94313e-05
2.0301e-05
2.14712e-05
2.29371e-05
2.57753e-05
2.88365e-05
2.87357e-05
2.66013e-05
2.42804e-05
2.15668e-05
1.84704e-05
1.52931e-05
1.20827e-05
8.99093e-06
6.04619e-06
4.14247e-06
8.12151e-06
1.69383e-05
2.61039e-05
3.16969e-05
3.24016e-05
2.98889e-05
2.66412e-05
2.39653e-05
2.19184e-05
2.01952e-05
1.86131e-05
1.71245e-05
1.57248e-05
1.44096e-05
1.31718e-05
1.2006e-05
1.09098e-05
9.88216e-06
8.92255e-06
8.03015e-06
7.20371e-06
6.44146e-06
5.74117e-06
5.10031e-06
4.51622e-06
3.9863e-06
3.50807e-06
3.07922e-06
2.69744e-06
2.36038e-06
2.06546e-06
1.80983e-06
1.59033e-06
1.40357e-06
1.24607e-06
1.11445e-06
1.00572e-06
9.1721e-07
8.46233e-07
7.89586e-07
7.43927e-07
7.07483e-07
6.8202e-07
6.71898e-07
6.78642e-07
6.96322e-07
7.1428e-07
7.24375e-07
7.24023e-07
7.13433e-07
6.92518e-07
6.6146e-07
6.22765e-07
5.8107e-07
5.40608e-07
5.03009e-07
4.67246e-07
4.31377e-07
3.94492e-07
3.57414e-07
3.22198e-07
2.90716e-07
2.64077e-07
2.41993e-07
2.23981e-07
2.08873e-07
1.96001e-07
1.88168e-07
1.71947e-07
6.24993e-06
8.1395e-06
1.04286e-05
1.26419e-05
1.44653e-05
1.57254e-05
1.63698e-05
1.648e-05
1.62413e-05
1.59012e-05
1.56794e-05
1.56862e-05
1.59171e-05
1.63167e-05
1.68484e-05
1.75383e-05
1.84451e-05
1.9674e-05
2.11906e-05
2.31458e-05
2.64886e-05
2.9464e-05
2.9171e-05
2.60386e-05
2.21138e-05
1.84766e-05
1.52311e-05
1.23447e-05
1.0094e-05
9.79622e-06
1.37361e-05
2.11016e-05
2.85195e-05
3.29109e-05
3.32413e-05
3.07849e-05
2.76131e-05
2.49573e-05
2.29385e-05
2.1263e-05
1.97259e-05
1.82678e-05
1.6885e-05
1.5576e-05
1.43347e-05
1.31554e-05
1.20355e-05
1.09745e-05
9.97253e-06
9.0303e-06
8.14817e-06
7.32617e-06
6.56379e-06
5.85999e-06
5.21331e-06
4.62196e-06
4.08402e-06
3.59752e-06
3.16047e-06
2.77079e-06
2.42621e-06
2.12421e-06
1.86197e-06
1.63637e-06
1.44403e-06
1.28147e-06
1.14527e-06
1.03235e-06
9.39967e-07
8.65363e-07
8.05308e-07
7.56412e-07
7.16835e-07
6.88477e-07
6.76327e-07
6.82851e-07
7.02578e-07
7.24421e-07
7.39359e-07
7.4392e-07
7.37438e-07
7.18952e-07
6.88071e-07
6.4737e-07
6.02221e-07
5.57883e-07
5.16814e-07
4.78359e-07
4.40523e-07
4.02131e-07
3.63755e-07
3.27334e-07
2.9473e-07
2.67132e-07
2.44241e-07
2.25645e-07
2.10051e-07
1.9683e-07
1.89054e-07
1.72468e-07
4.8902e-06
6.31072e-06
7.97607e-06
9.61155e-06
1.10047e-05
1.20409e-05
1.27162e-05
1.30917e-05
1.32718e-05
1.33711e-05
1.34823e-05
1.36619e-05
1.39348e-05
1.43163e-05
1.48265e-05
1.55102e-05
1.64232e-05
1.76162e-05
1.91259e-05
2.08398e-05
2.31098e-05
2.65128e-05
2.96155e-05
3.04276e-05
2.88484e-05
2.61054e-05
2.34883e-05
2.18585e-05
2.1947e-05
2.42473e-05
2.82775e-05
3.22346e-05
3.41995e-05
3.34932e-05
3.0953e-05
2.80083e-05
2.5554e-05
2.36716e-05
2.20985e-05
2.06418e-05
1.92452e-05
1.79089e-05
1.66347e-05
1.54175e-05
1.42511e-05
1.31324e-05
1.20608e-05
1.10369e-05
1.00623e-05
9.13862e-06
8.26769e-06
7.45083e-06
6.68884e-06
5.98189e-06
5.32955e-06
4.73096e-06
4.18489e-06
3.68992e-06
3.24441e-06
2.84651e-06
2.4941e-06
2.18473e-06
1.91562e-06
1.68368e-06
1.48555e-06
1.31774e-06
1.1768e-06
1.05956e-06
9.63176e-07
8.84819e-07
8.21194e-07
7.68763e-07
7.25516e-07
6.93383e-07
6.78035e-07
6.83252e-07
7.04344e-07
7.29912e-07
7.50007e-07
7.60209e-07
7.58896e-07
7.44064e-07
7.14508e-07
6.72681e-07
6.24615e-07
5.76655e-07
5.32227e-07
4.91186e-07
4.51568e-07
4.11963e-07
3.72676e-07
3.35499e-07
3.02249e-07
2.74172e-07
2.50921e-07
2.32191e-07
2.16402e-07
2.03301e-07
1.95389e-07
1.7883e-07
4.39332e-06
5.49154e-06
6.75299e-06
8.00769e-06
9.12507e-06
1.00306e-05
1.06958e-05
1.11327e-05
1.13929e-05
1.15541e-05
1.16975e-05
1.18866e-05
1.216e-05
1.25442e-05
1.30635e-05
1.37508e-05
1.4651e-05
1.57887e-05
1.71725e-05
1.8775e-05
2.05204e-05
2.2764e-05
2.58167e-05
2.88812e-05
3.08609e-05
3.15499e-05
3.15312e-05
3.16347e-05
3.23126e-05
3.34258e-05
3.42981e-05
3.41083e-05
3.25778e-05
3.01854e-05
2.77237e-05
2.56799e-05
2.40571e-05
2.26492e-05
2.13115e-05
2.00086e-05
1.87495e-05
1.75399e-05
1.63756e-05
1.52503e-05
1.41602e-05
1.31041e-05
1.20827e-05
1.10977e-05
1.01518e-05
9.24791e-06
8.38912e-06
7.57814e-06
6.81706e-06
6.10725e-06
5.44938e-06
4.8435e-06
4.28915e-06
3.78545e-06
3.33119e-06
2.92476e-06
2.56421e-06
2.2472e-06
1.97099e-06
1.73254e-06
1.52851e-06
1.35541e-06
1.20972e-06
1.08819e-06
9.87851e-07
9.0576e-07
8.38534e-07
7.82507e-07
7.35497e-07
6.99465e-07
6.80752e-07
6.84379e-07
7.06522e-07
7.35553e-07
7.60686e-07
7.7665e-07
7.80896e-07
7.70271e-07
7.42542e-07
6.99831e-07
6.48734e-07
5.96714e-07
5.48288e-07
5.03947e-07
4.61843e-07
4.20368e-07
3.79554e-07
3.41033e-07
3.06571e-07
2.77467e-07
2.53361e-07
2.34012e-07
2.17719e-07
2.04245e-07
1.96399e-07
1.79448e-07
4.01149e-06
4.88154e-06
5.87511e-06
6.87689e-06
7.78492e-06
8.53234e-06
9.09468e-06
9.48603e-06
9.74841e-06
9.93781e-06
1.01105e-05
1.03149e-05
1.05898e-05
1.09691e-05
1.14824e-05
1.21587e-05
1.30277e-05
1.41112e-05
1.5397e-05
1.68739e-05
1.84708e-05
2.01404e-05
2.21046e-05
2.45207e-05
2.70545e-05
2.9196e-05
3.07065e-05
3.16902e-05
3.22401e-05
3.22498e-05
3.15621e-05
3.02138e-05
2.85016e-05
2.68042e-05
2.53318e-05
2.40599e-05
2.28693e-05
2.16881e-05
2.05128e-05
1.93626e-05
1.82473e-05
1.71646e-05
1.61088e-05
1.50757e-05
1.40632e-05
1.30715e-05
1.21021e-05
1.11576e-05
1.02417e-05
9.35872e-06
8.51304e-06
7.70865e-06
6.94894e-06
6.23652e-06
5.57317e-06
4.95989e-06
4.39702e-06
3.8843e-06
3.42093e-06
3.00561e-06
2.63659e-06
2.31162e-06
2.02806e-06
1.7829e-06
1.57283e-06
1.39434e-06
1.24387e-06
1.11803e-06
1.01371e-06
9.27835e-07
8.56874e-07
7.96975e-07
7.45701e-07
7.0497e-07
6.81825e-07
6.82792e-07
7.05247e-07
7.37468e-07
7.67801e-07
7.90092e-07
8.00824e-07
7.95548e-07
7.70768e-07
7.2805e-07
6.74442e-07
6.18559e-07
5.66139e-07
5.18462e-07
4.7391e-07
4.3072e-07
3.88653e-07
3.4915e-07
3.13885e-07
2.84191e-07
2.59652e-07
2.40123e-07
2.23637e-07
2.1028e-07
2.02382e-07
1.85644e-07
3.63721e-06
4.32952e-06
5.10997e-06
5.89848e-06
6.62366e-06
7.23955e-06
7.72735e-06
8.09059e-06
8.35153e-06
8.54721e-06
8.72263e-06
8.92323e-06
9.18941e-06
9.55636e-06
1.00535e-05
1.07069e-05
1.15384e-05
1.25604e-05
1.37616e-05
1.51201e-05
1.66045e-05
1.81339e-05
1.9661e-05
2.12632e-05
2.29872e-05
2.46908e-05
2.61336e-05
2.7128e-05
2.76126e-05
2.75732e-05
2.70921e-05
2.63326e-05
2.54622e-05
2.45735e-05
2.36702e-05
2.27246e-05
2.17329e-05
2.0719e-05
1.97095e-05
1.87175e-05
1.77437e-05
1.67842e-05
1.58354e-05
1.48947e-05
1.39613e-05
1.30355e-05