/*--------------------------------*- C++ -*----------------------------------*\
  =========                 |
  \\      /  F ield         | OpenFOAM: The Open Source CFD Toolbox
   \\    /   O peration     | Website:  https://openfoam.org
    \\  /    A nd           | Version:  10
     \\/     M anipulation  |
\*---------------------------------------------------------------------------*/
FoamFile
{
    format      ascii;
    class       volScalarField;
    location    "0.065";
    object      p;
}
// * * * * * * * * * * * * * * * * * * * * * * * * * * * * * * * * * * * * * //

dimensions      [0 2 -2 0 0 0 0];

internalField   nonuniform List<scalar> 
6820
(
6.24881
-8.08183
-10.0796
-10.2587
-10.4114
-10.3477
-10.3105
-10.3234
-10.3595
-10.409
-10.4653
-10.5246
-10.5851
-10.6459
-10.7063
-10.7661
-10.8246
-10.8817
-10.9367
-10.9894
-11.0391
-11.0854
-11.1277
-11.1651
-11.197
-11.2221
-11.2396
-11.2477
-11.2454
-11.2295
-11.2019
-11.1465
-11.1041
0.871312
-7.87894
-9.88451
-10.1372
-10.3419
-10.3418
-10.326
-10.3452
-10.3816
-10.4283
-10.4815
-10.5379
-10.5961
-10.6551
-10.7143
-10.7731
-10.831
-10.8876
-10.9425
-10.9951
-11.0449
-11.0913
-11.1339
-11.1717
-11.2041
-11.23
-11.2484
-11.258
-11.2573
-11.2443
-11.2194
-11.1766
-11.1453
-1.20831
-6.66641
-9.09079
-9.6817
-10.0615
-10.2043
-10.2506
-10.297
-10.3492
-10.4059
-10.466
-10.5278
-10.5901
-10.652
-10.7133
-10.7737
-10.8327
-10.8902
-10.9457
-10.999
-11.0495
-11.0968
-11.1403
-11.1796
-11.2138
-11.2422
-11.264
-11.2782
-11.2844
-11.2818
-11.2734
-11.2606
-11.2724
-2.77518
-6.48263
-8.79309
-9.44233
-9.8235
-10.0296
-10.1263
-10.2048
-10.2802
-10.3521
-10.4221
-10.4909
-10.5584
-10.6248
-10.6899
-10.7536
-10.8157
-10.8761
-10.9345
-10.9906
-11.0441
-11.0947
-11.1421
-11.1858
-11.2255
-11.2608
-11.2915
-11.3177
-11.3401
-11.361
-11.3863
-11.4282
-11.5184
-4.05936
-6.52572
-8.4845
-9.16708
-9.57671
-9.84885
-9.99967
-10.109
-10.2043
-10.2897
-10.3694
-10.4457
-10.5192
-10.5902
-10.6593
-10.7266
-10.792
-10.8555
-10.917
-10.9764
-11.0336
-11.0884
-11.1408
-11.1907
-11.2382
-11.2836
-11.3274
-11.3711
-11.4172
-11.4704
-11.5405
-11.6447
-11.8173
-5.01574
-6.64738
-8.29893
-9.01259
-9.4318
-9.72624
-9.90325
-10.0293
-10.1368
-10.232
-10.3191
-10.4012
-10.4796
-10.555
-10.6278
-10.6984
-10.7669
-10.8334
-10.8981
-10.961
-11.0221
-11.0816
-11.1396
-11.1966
-11.2529
-11.3096
-11.3681
-11.4309
-11.5021
-11.5883
-11.701
-11.8576
-12.0911
-5.75983
-6.85788
-8.20959
-8.89362
-9.2993
-9.60249
-9.80372
-9.94931
-10.0711
-10.1771
-10.2722
-10.3604
-10.4437
-10.523
-10.5992
-10.6728
-10.7441
-10.8135
-10.8812
-10.9472
-11.0119
-11.0756
-11.1386
-11.2015
-11.2654
-11.3316
-11.4022
-11.4802
-11.5706
-11.6805
-11.8212
-12.0078
-12.2667
-6.34217
-7.086
-8.16989
-8.80736
-9.20182
-9.50742
-9.72352
-9.88188
-10.0128
-10.1263
-10.2275
-10.3206
-10.408
-10.491
-10.5705
-10.6472
-10.7215
-10.7938
-10.8644
-10.9336
-11.0018
-11.0695
-11.1374
-11.2061
-11.277
-11.3518
-11.4328
-11.5236
-11.6291
-11.7561
-11.9147
-12.1169
-12.3819
-6.80373
-7.31587
-8.17774
-8.75581
-9.13003
-9.42667
-9.64829
-9.81549
-9.95431
-10.075
-10.1824
-10.2806
-10.3724
-10.4592
-10.5421
-10.6218
-10.6989
-10.774
-10.8475
-10.9198
-10.9914
-11.0629
-11.1352
-11.2091
-11.2861
-11.3682
-11.4577
-11.5581
-11.6742
-11.812
-11.9797
-12.1861
-12.4443
-7.17429
-7.53338
-8.21387
-8.72613
-9.07647
-9.36115
-9.58427
-9.75764
-9.90232
-10.0283
-10.1405
-10.2429
-10.3383
-10.4284
-10.5142
-10.5967
-10.6765
-10.7543
-10.8305
-10.9057
-10.9805
-11.0555
-11.1317
-11.2102
-11.2924
-11.3803
-11.4764
-11.5838
-11.7067
-11.85
-12.0201
-12.2229
-12.4667
-7.47511
-7.7322
-8.2687
-8.71608
-9.04038
-9.30984
-9.52924
-9.70479
-9.85287
-9.98275
-10.0989
-10.2051
-10.304
-10.3972
-10.486
-10.5712
-10.6537
-10.7341
-10.8129
-10.8909
-10.9685
-11.0467
-11.1263
-11.2086
-11.295
-11.3873
-11.4878
-11.5994
-11.7254
-11.8698
-12.037
-12.2307
-12.4557
-7.7217
-7.90996
-8.33366
-8.71992
-9.01672
-9.26935
-9.48221
-9.65773
-9.80787
-9.94061
-10.06
-10.1694
-10.2712
-10.3672
-10.4586
-10.5463
-10.6312
-10.7139
-10.7951
-10.8755
-10.9556
-11.0365
-11.119
-11.2042
-11.2936
-11.3889
-11.492
-11.6053
-11.7315
-11.8734
-12.034
-12.2153
-12.4194
-7.92534
-8.06641
-8.40263
-8.73383
-9.00333
-9.23864
-9.44292
-9.61613
-9.76656
-9.9008
-10.0224
-10.1342
-10.2386
-10.3371
-10.4309
-10.5209
-10.6081
-10.693
-10.7764
-10.8589
-10.9413
-11.0243
-11.109
-11.1964
-11.2878
-11.3846
-11.4885
-11.6015
-11.7254
-11.8622
-12.0137
-12.1805
-12.3633
-8.09433
-8.20246
-8.47125
-8.75424
-8.99738
-9.21541
-9.40987
-9.57921
-9.72877
-9.86366
-9.98684
-10.1007
-10.2072
-10.3079
-10.4038
-10.496
-10.5851
-10.672
-10.7572
-10.8416
-10.9257
-11.0104
-11.0966
-11.1853
-11.2776
-11.3747
-11.4779
-11.5888
-11.7086
-11.8384
-11.9792
-12.1308
-12.2928
-8.23481
-8.31952
-8.53648
-8.77821
-8.99672
-9.1981
-9.38226
-9.54666
-9.69433
-9.829
-9.95301
-10.0683
-10.1765
-10.279
-10.3768
-10.4708
-10.5617
-10.6502
-10.7371
-10.8229
-10.9084
-10.9943
-11.0814
-11.1706
-11.2628
-11.3591
-11.4604
-11.5678
-11.6821
-11.8038
-11.9332
-12.0696
-12.212
-8.35136
-8.4191
-8.59626
-8.8033
-8.99935
-9.18505
-9.35888
-9.51766
-9.66272
-9.79654
-9.92087
-10.0372
-10.1468
-10.2508
-10.3502
-10.4458
-10.5383
-10.6282
-10.7164
-10.8033
-10.8897
-10.9762
-11.0636
-11.1525
-11.2439
-11.3384
-11.4368
-11.5397
-11.6475
-11.7604
-11.8782
-12
-12.1243
-8.44742
-8.50266
-8.64924
-8.82751
-9.00354
-9.17483
-9.3387
-9.4916
-9.6336
-9.76613
-9.89033
-10.0072
-10.1179
-10.2232
-10.3239
-10.4209
-10.5146
-10.6057
-10.6948
-10.7825
-10.8694
-10.9561
-11.0432
-11.1313
-11.2211
-11.313
-11.4077
-11.5054
-11.6063
-11.7103
-11.8167
-11.9247
-12.0327
-8.52555
-8.57147
-8.69453
-8.84924
-9.0078
-9.16608
-9.32065
-9.46772
-9.60644
-9.73738
-9.86115
-9.97837
-10.0898
-10.1961
-10.298
-10.396
-10.4908
-10.5828
-10.6726
-10.7607
-10.8477
-10.9341
-11.0204
-11.1071
-11.1947
-11.2835
-11.3739
-11.466
-11.5597
-11.6548
-11.7504
-11.8457
-11.9392
-8.58766
-8.62656
-8.73154
-8.86717
-9.01078
-9.15762
-9.30376
-9.44531
-9.58077
-9.71003
-9.8332
-9.95057
-10.0626
-10.1698
-10.2726
-10.3715
-10.4671
-10.5597
-10.6499
-10.7382
-10.8249
-10.9106
-10.9957
-11.0806
-11.1655
-11.2509
-11.3367
-11.423
-11.5096
-11.5961
-11.6817
-11.7655
-11.8463
-8.63516
-8.66875
-8.75987
-8.88025
-9.01134
-9.14833
-9.28708
-9.42361
-9.55602
-9.68363
-9.80615
-9.92355
-10.036
-10.1439
-10.2474
-10.3471
-10.4432
-10.5363
-10.6266
-10.7147
-10.8008
-10.8855
-10.969
-11.0516
-11.1336
-11.2151
-11.2961
-11.3766
-11.4563
-11.5347
-11.6111
-11.6847
-11.7543
-8.66901
-8.69859
-8.77916
-8.88756
-9.00844
-9.13724
-9.26974
-9.40198
-9.53174
-9.65794
-9.77994
-9.89742
-10.0104
-10.1188
-10.2231
-10.3234
-10.42
-10.5133
-10.6036
-10.6912
-10.7766
-10.8599
-10.9416
-11.0218
-11.1006
-11.1782
-11.2544
-11.3293
-11.4024
-11.4732
-11.5413
-11.6059
-11.6659
-8.68982
-8.71642
-8.7891
-8.88832
-9.00115
-9.12339
-9.25087
-9.37964
-9.50729
-9.63239
-9.75403
-9.87167
-9.98503
-10.0941
-10.1989
-10.2996
-10.3965
-10.4898
-10.5798
-10.6668
-10.7511
-10.8329
-10.9125
-10.9899
-11.0654
-11.139
-11.2105
-11.2799
-11.3468
-11.4108
-11.4713
-11.528
-11.5798
-8.69789
-8.72234
-8.78931
-8.88179
-8.98862
-9.10599
-9.2298
-9.35615
-9.48245
-9.60705
-9.72879
-9.84691
-9.96097
-10.0708
-10.1763
-10.2776
-10.3747
-10.4681
-10.5577
-10.644
-10.7271
-10.8072
-10.8846
-10.9593
-11.0315
-11.1011
-11.1681
-11.2323
-11.2935
-11.3512
-11.4052
-11.4549
-11.4997
-8.6932
-8.7162
-8.77931
-8.8672
-8.96997
-9.0841
-9.20558
-9.33052
-9.45622
-9.58083
-9.703
-9.82179
-9.93663
-10.0472
-10.1533
-10.255
-10.3523
-10.4455
-10.5346
-10.6199
-10.7016
-10.7799
-10.8549
-10.9268
-10.9956
-11.0613
-11.1239
-11.1832
-11.2391
-11.2912
-11.3392
-11.3829
-11.4217
-8.67546
-8.69762
-8.75852
-8.84386
-8.94454
-9.05724
-9.17803
-9.30299
-9.4293
-9.55494
-9.67839
-9.79856
-9.91474
-10.0265
-10.1336
-10.236
-10.3336
-10.4267
-10.5154
-10.5998
-10.6801
-10.7566
-10.8293
-10.8984
-10.964
-11.026
-11.0844
-11.1392
-11.1902
-11.2372
-11.28
-11.3184
-11.352
-8.64403
-8.66591
-8.7261
-8.81075
-8.91111
-9.024
-9.14546
-9.27152
-9.39925
-9.52652
-9.65165
-9.77346
-9.89113
-10.0041
-10.1122
-10.2152
-10.3131
-10.406
-10.494
-10.5774
-10.6563
-10.7308
-10.8011
-10.8674
-10.9297
-10.9881
-11.0426
-11.0931
-11.1396
-11.1819
-11.22
-11.2538
-11.283
-8.59793
-8.62013
-8.68122
-8.7673
-8.86963
-8.98502
-9.1094
-9.23866
-9.36969
-9.50021
-9.62842
-9.75301
-9.8731
-9.98809
-10.0977
-10.2017
-10.3001
-10.3931
-10.4807
-10.5631
-10.6405
-10.7132
-10.7812
-10.8447
-10.9039
-10.9589
-11.0096
-11.0562
-11.0986
-11.1367
-11.1706
-11.2001
-11.2253
-8.53573
-8.55876
-8.62218
-8.71141
-8.81732
-8.93661
-9.06509
-9.19845
-9.3335
-9.46783
-9.59954
-9.72725
-9.85
-9.96717
-10.0784
-10.1835
-10.2825
-10.3755
-10.4626
-10.5441
-10.62
-10.6908
-10.7565
-10.8173
-10.8734
-10.925
-10.9722
-11.015
-11.0535
-11.0877
-11.1177
-11.1436
-11.1654
-8.45557
-8.48033
-8.54841
-8.64397
-8.75703
-8.88395
-9.02015
-9.16093
-9.30286
-9.44337
-9.58049
-9.7128
-9.83933
-9.95949
-10.0729
-10.1796
-10.2794
-10.3725
-10.4592
-10.5397
-10.6142
-10.683
-10.7464
-10.8046
-10.8577
-10.906
-10.9497
-10.9889
-11.0237
-11.0542
-11.0805
-11.1028
-11.121
-8.35459
-8.3814
-8.45532
-8.55838
-8.67937
-8.8145
-8.95897
-9.10778
-9.25727
-9.40473
-9.54807
-9.68577
-9.81683
-9.94064
-10.0569
-10.1655
-10.2665
-10.3601
-10.4465
-10.5262
-10.5993
-10.6662
-10.7273
-10.7828
-10.833
-10.8781
-10.9184
-10.9541
-10.9854
-11.0124
-11.0353
-11.0545
-11.0698
-8.22991
-8.26117
-8.3463
-8.46378
-8.59995
-8.75018
-8.90886
-9.07042
-9.23103
-9.38798
-9.53926
-9.68344
-9.81966
-9.94741
-10.0665
-10.177
-10.279
-10.3729
-10.4589
-10.5375
-10.609
-10.6739
-10.7325
-10.7852
-10.8322
-10.874
-10.9108
-10.9429
-10.9705
-10.9939
-11.0132
-11.0287
-11.0405
-8.07499
-8.10915
-8.20425
-8.33425
-8.48371
-8.64826
-8.82173
-8.99765
-9.17163
-9.34067
-9.50251
-9.65564
-9.79918
-9.93272
-10.0562
-10.1697
-10.2736
-10.3683
-10.4543
-10.5321
-10.6022
-10.6651
-10.7213
-10.7712
-10.8152
-10.8537
-10.8871
-10.9158
-10.9399
-10.9599
-10.9759
-10.9884
-10.9975
-7.88772
-7.93472
-8.05679
-8.21693
-8.39408
-8.58334
-8.77815
-8.97193
-9.16073
-9.34198
-9.51376
-9.67485
-9.82462
-9.96288
-10.0897
-10.2054
-10.3104
-10.4053
-10.4907
-10.5671
-10.6352
-10.6956
-10.7488
-10.7954
-10.8358
-10.8705
-10.8999
-10.9244
-10.9444
-10.9601
-10.972
-10.9803
-10.9852
-7.64652
-7.69261
-7.82836
-8.00876
-8.21057
-8.42826
-8.65196
-8.87261
-9.08539
-9.28729
-9.47621
-9.65107
-9.81156
-9.95783
-10.0904
-10.2098
-10.317
-10.4127
-10.4978
-10.5731
-10.6394
-10.6975
-10.7479
-10.7914
-10.8285
-10.8597
-10.8855
-10.9064
-10.9226
-10.9348
-10.9432
-10.9483
-10.9504
-7.36947
-7.46325
-7.66686
-7.90046
-8.13963
-8.387
-8.63467
-8.87467
-9.10365
-9.31931
-9.51981
-9.70424
-9.8724
-10.0245
-10.1612
-10.2832
-10.3914
-10.4869
-10.5707
-10.6437
-10.7069
-10.7612
-10.8074
-10.8463
-10.8784
-10.9045
-10.925
-10.9404
-10.9512
-10.9577
-10.9606
-10.96
-10.9566
-6.94668
-7.01447
-7.24868
-7.53932
-7.84569
-8.16078
-8.46792
-8.75725
-9.02607
-9.27273
-9.49651
-9.69794
-9.87814
-10.0384
-10.1803
-10.3052
-10.4147
-10.5101
-10.5929
-10.6641
-10.725
-10.7766
-10.8197
-10.8553
-10.8839
-10.9063
-10.9231
-10.9346
-10.9414
-10.9439
-10.9425
-10.938
-10.9309
-6.5826
-6.83493
-7.19028
-7.50769
-7.82569
-8.1588
-8.48364
-8.7914
-9.08033
-9.34685
-9.58862
-9.80535
-9.99761
-10.1666
-10.3138
-10.4412
-10.5506
-10.6438
-10.7226
-10.7886
-10.8433
-10.888
-10.9238
-10.9517
-10.9727
-10.9873
-10.9962
-10.9999
-10.9988
-10.9932
-10.9834
-10.9699
-10.9531
-5.52904
-5.79456
-6.40401
-6.94815
-7.4473
-7.92029
-8.34268
-8.71692
-9.05053
-9.34625
-9.6071
-9.83647
-10.0373
-10.2122
-10.3635
-10.4936
-10.6045
-10.6983
-10.7767
-10.8414
-10.8942
-10.9362
-10.9689
-10.9933
-11.0103
-11.0207
-11.0252
-11.024
-11.0175
-11.0057
-10.988
-10.9657
-10.9348
-5.5797
-6.13916
-6.57943
-6.94184
-7.41542
-7.90756
-8.3681
-8.79973
-9.19389
-9.54226
-9.84467
-10.1037
-10.3227
-10.5055
-10.6565
-10.7798
-10.8792
-10.9583
-11.02
-11.0671
-11.1018
-11.1261
-11.1416
-11.1497
-11.1516
-11.1482
-11.14
-11.1276
-11.1107
-11.0889
-11.0597
-11.0211
-10.962
-0.638122
-4.32955
-5.65315
-6.32062
-7.11612
-7.78922
-8.3284
-8.79967
-9.21044
-9.56202
-9.86211
-10.1167
-10.3306
-10.5088
-10.6557
-10.7757
-10.8724
-10.9492
-11.0091
-11.0547
-11.0881
-11.1114
-11.126
-11.1334
-11.1347
-11.1309
-11.123
-11.1113
-11.097
-11.0794
-11.061
-11.0375
-11.0183
-10.859
-11.5857
-14.619
-18.3028
-21.7372
-24.1297
-25.0754
-24.6626
-23.3506
-21.6187
-19.5649
-16.8408
-12.9714
-8.00961
-2.8226
1.46347
4.13813
4.85631
3.70118
0.800803
-3.6059
-9.17933
-15.5112
-22.0979
-28.4811
-34.3207
-39.343
-43.2803
-45.8716
-46.944
-46.4462
-44.5123
-41.4279
-37.5361
-33.1379
-28.4576
-23.7067
-19.136
-14.9858
-11.3974
-8.39568
-5.93784
-3.95913
-2.39256
-1.1739
-0.24331
0.453084
0.962088
1.32321
1.56907
1.72614
1.81558
1.85411
1.85481
1.82792
1.78137
1.72141
1.65289
1.5796
1.50446
1.42964
1.3567
1.28667
1.22015
1.15743
1.09859
1.04357
0.992226
0.944393
0.899853
0.858364
0.819655
0.783439
0.749423
0.717326
0.68688
0.657835
0.629943
0.602957
0.576632
0.550732
0.525044
0.499391
0.473636
0.447679
0.42145
0.3949
0.368
0.340723
0.313078
0.285024
0.256639
0.227752
0.198726
0.168766
0.139531
0.107494
0.0800805
0.0417219
0.0250708
-11.0506
-11.6871
-14.4847
-17.9183
-21.0429
-23.2746
-24.2736
-24.012
-22.8227
-21.1061
-18.9672
-16.1606
-12.3965
-7.83819
-3.23263
0.535452
2.92531
3.68442
2.67651
0.0688902
-3.93503
-9.05922
-14.9246
-21.0952
-27.1355
-32.6886
-37.4659
-41.2058
-43.6698
-44.7079
-44.2697
-42.4852
-39.6215
-35.9844
-31.8333
-27.3832
-22.8671
-18.5484
-14.6454
-11.2644
-8.41403
-6.05643
-4.13896
-2.60578
-1.40105
-0.471111
0.233217
0.755311
1.13227
1.39509
1.5692
1.67514
1.72927
1.74451
1.73101
1.69673
1.64792
1.58948
1.52524
1.45815
1.39043
1.32371
1.25907
1.1972
1.13847
1.08303
1.03089
0.981965
0.93615
0.893279
0.853157
0.815556
0.780233
0.746932
0.715407
0.68542
0.656746
0.62915
0.602403
0.576272
0.550531
0.524972
0.499421
0.473743
0.44784
0.421646
0.395113
0.368216
0.340931
0.31327
0.285193
0.256784
0.227868
0.198819
0.168826
0.139584
0.107509
0.0801053
0.0417194
0.0250413
-11.376
-12.2456
-14.6989
-17.746
-20.5605
-22.5868
-23.4658
-23.1908
-22.0331
-20.3135
-18.128
-15.3376
-11.8159
-7.77427
-3.80533
-0.566635
1.5178
2.24859
1.44994
-0.852664
-4.4557
-9.11297
-14.4777
-20.1679
-25.7991
-31.0186
-35.5243
-39.0553
-41.3853
-42.3813
-42.0042
-40.3823
-37.7533
-34.3721
-30.4644
-26.253
-21.9956
-17.953
-14.3069
-11.1315
-8.42845
-6.16894
-4.31275
-2.8142
-1.62499
-0.697304
0.0135662
0.547639
0.939612
1.21884
1.40968
1.53196
1.60167
1.6315
1.63152
1.60967
1.57219
1.52401
1.469
1.41014
1.34971
1.28936
1.23027
1.1732
1.11858
1.06664
1.01748
0.971073
0.927364
0.886239
0.847547
0.811107
0.776716
0.744161
0.713231
0.683723
0.655437
0.628163
0.601688
0.575786
0.550237
0.524837
0.499413
0.473834
0.448003
0.421858
0.395354
0.368471
0.341187
0.313516
0.285423
0.256995
0.228052
0.198983
0.168959
0.139708
0.107597
0.0801973
0.0417895
0.025066
-11.779
-12.6975
-14.7914
-17.417
-19.8327
-21.5408
-22.2655
-21.9858
-20.8896
-19.2234
-17.0955
-14.4641
-11.3045
-7.81554
-4.44393
-1.68638
0.100879
0.745799
0.106922
-1.88163
-5.09346
-9.29117
-14.1597
-19.3482
-24.5185
-29.3509
-33.5487
-36.8518
-39.0385
-39.9923
-39.6923
-38.2506
-35.8555
-32.7136
-29.0416
-25.0863
-21.118
-17.3687
-13.9783
-10.9999
-8.43773
-6.27408
-4.47961
-3.01715
-1.84518
-0.921388
-0.205418
0.339463
0.745572
1.0406
1.24777
1.3862
1.47142
1.51588
1.52952
1.52023
1.49426
1.45653
1.41092
1.36048
1.3075
1.25371
1.20034
1.14821
1.09784
1.04955
1.00347
0.959678
0.918153
0.87884
0.841639
0.806414
0.773007
0.741244
0.710953
0.681963
0.654097
0.627165
0.600971
0.575303
0.549947
0.524704
0.499406
0.473922
0.44816
0.422058
0.395578
0.368701
0.34141
0.313725
0.285608
0.257156
0.228183
0.19909
0.169033
0.139769
0.107623
0.0802191
0.0418051
0.0250235
-12.1793
-13.0676
-14.7641
-16.873
-18.8098
-20.1734
-20.7438
-20.4733
-19.489
-17.9769
-16.0383
-13.6784
-10.919
-7.93375
-5.06948
-2.71858
-1.19045
-0.654659
-1.21098
-2.9313
-5.76501
-9.52644
-13.9273
-18.6387
-23.3447
-27.7584
-31.6112
-34.6591
-36.6968
-37.6244
-37.4114
-36.1364
-33.9408
-31.0116
-27.5804
-23.9114
-20.257
-16.8047
-13.6603
-10.8687
-8.44173
-6.37213
-4.63964
-3.21447
-2.0613
-1.143
-0.42338
0.13111
0.550438
0.860613
1.08369
1.23802
1.33865
1.39775
1.42509
1.42849
1.41416
1.38704
1.35102
1.30916
1.26381
1.21674
1.16923
1.12219
1.0762
1.03166
0.988781
0.947686
0.908426
0.870997
0.835348
0.801389
0.769006
0.738068
0.70844
0.679986
0.652559
0.625995
0.600111
0.574705
0.549571
0.524513
0.499363
0.473992
0.448313
0.422268
0.395821
0.368961
0.341672
0.313978
0.285844
0.257371
0.228373
0.199258
0.169172
0.139894
0.107718
0.0803048
0.0418861
0.0250291
-12.4979
-13.2996
-14.6296
-16.2454
-17.739
-18.8066
-19.2475
-19.0153
-18.1826
-16.8686
-15.1537
-13.0689
-10.6664
-8.1039
-5.66048
-3.65381
-2.34866
-1.90831
-2.41998
-3.93194
-6.42078
-9.76077
-13.7164
-17.9861
-22.266
-26.2829
-29.7928
-32.5809
-34.4732
-35.3665
-35.2046
-34.0393
-31.998
-29.2755
-26.1144
-22.7639
-19.4331
-16.2672
-13.3532
-10.7375
-8.44019
-6.46289
-4.79258
-3.40582
-2.27296
-1.36175
-0.639944
-0.0770645
0.354527
0.679148
0.917663
1.08762
1.20352
1.27722
1.31832
1.33451
1.33197
1.31561
1.28935
1.25624
1.21869
1.17849
1.137
1.09519
1.05372
1.01305
0.973471
0.935168
0.898254
0.862777
0.828739
0.796099
0.76479
0.734721
0.705798
0.677918
0.650959
0.624782
0.599222
0.574089
0.549184
0.524315
0.499316
0.474061
0.448464
0.422473
0.396056
0.369205
0.341912
0.314203
0.286047
0.257548
0.228519
0.199378
0.169261
0.139963
0.107759
0.0803298
0.0419186
0.0249734
-12.6764
-13.3858
-14.4459
-15.701
-16.8675
-17.7013
-18.0399
-17.8315
-17.1102
-15.9551
-14.4356
-12.5978
-10.5082
-8.30828
-6.22562
-4.51848
-3.40934
-3.04612
-3.51694
-4.85607
-7.04115
-9.97866
-13.4911
-17.3278
-21.208
-24.866
-28.0674
-30.6162
-32.3514
-33.1656
-33.0005
-31.9085
-30.025
-27.546
-24.694
-21.6758
-18.6567
-15.7562
-13.0555
-10.6055
-8.4332
-6.54657
-4.93846
-3.59106
-2.47994
-1.57734
-0.854769
-0.28473
0.158144
0.496476
0.749918
0.935168
1.06618
1.15443
1.20931
1.23838
1.24774
1.2423
1.22594
1.20175
1.17214
1.13898
1.10366
1.06721
1.03038
0.993696
0.957513
0.922089
0.887595
0.854137
0.821767
0.790495
0.760299
0.731132
0.702939
0.675651
0.649182
0.623415
0.598205
0.573372
0.548721
0.524063
0.499236
0.474113
0.448613
0.422686
0.396307
0.369475
0.342183
0.314465
0.286292
0.257772
0.228716
0.199552
0.169406
0.14009
0.107861
0.0804104
0.0420109
0.0249613
-12.7757
-13.4008
-14.2602
-15.2444
-16.1466
-16.7824
-17.0255
-16.8234
-16.1898
-15.1768
-13.8404
-12.2313
-10.4214
-8.5376
-6.76769
-5.32216
-4.38792
-4.0946
-4.52497
-5.70974
-7.62564
-10.1941
-13.2732
-16.6643
-20.1309
-23.4279
-26.3285
-28.6372
-30.1943
-30.9089
-30.7475
-29.7656
-28.0913
-25.8969
-23.3655
-20.6634
-17.9286
-15.2693
-12.766
-10.4728
-8.42116
-6.62339
-5.07729
-3.77007
-2.68198
-1.78946
-1.06753
-0.491563
-0.0384085
0.312871
0.580692
0.780882
0.926793
1.02952
1.09818
1.14019
1.16158
1.16717
1.16086
1.14574
1.12424
1.09826
1.06925
1.0383
1.00623
0.973638
0.940952
0.908493
0.876494
0.845119
0.814475
0.784622
0.755584
0.727359
0.699933
0.673271
0.647318
0.621983
0.597139
0.572618
0.548233
0.523797
0.499149
0.474164
0.448762
0.422899
0.396555
0.369736
0.342441
0.314709
0.286511
0.257964
0.228878
0.199684
0.169508
0.140167
0.107916
0.0804356
0.0420577
0.0248904
-12.81
-13.3527
-14.0498
-14.8197
-15.5157
-15.9988
-16.1672
-15.9711
-15.4112
-14.5219
-13.35
-11.9474
-10.3862
-8.77858
-7.27965
-6.06174
-5.28174
-5.05269
-5.44806
-6.49652
-8.17641
-10.418
-13.1009
-16.0598
-19.0996
-22.0104
-24.5869
-26.6422
-28.033
-28.6841
-28.5717
-27.7412
-26.2987
-24.3842
-22.1462
-19.7249
-17.2433
-14.8035
-12.4841
-10.34
-8.40457
-6.69368
-5.20924
-3.94282
-2.87893
-1.99787
-1.27795
-0.697266
-0.234841
0.128597
0.410224
0.624968
0.785551
0.902639
0.985065
1.04007
1.07356
1.09032
1.0942
1.08828
1.07503
1.05637
1.0338
1.00848
0.98129
0.952892
0.923793
0.894379
0.864945
0.835714
0.806847
0.778456
0.750613
0.723362
0.696727
0.670712
0.645295
0.620413
0.595957
0.571773
0.547676
0.523484
0.499033
0.474201
0.44891
0.423121
0.396821
0.370021
0.342728
0.314985
0.286768
0.258198
0.229085
0.199865
0.169661
0.140297
0.108027
0.0805132
0.0421622
0.0248589
-12.7988
-13.2658
-13.8325
-14.4369
-14.9723
-15.3327
-15.4372
-15.2426
-14.7439
-13.9644
-12.943
-11.7286
-10.3892
-9.02267
-7.75828
-6.73787
-6.0927
-5.92055
-6.28599
-7.21475
-8.68874
-10.6461
-12.9826
-15.5566
-18.2015
-20.7395
-22.9951
-24.8099
-26.06
-26.6691
-26.612
-25.9233
-24.6862
-23.0126
-21.0265
-18.8504
-16.5958
-14.3576
-12.2104
-10.2077
-8.38402
-6.75783
-5.33447
-4.10933
-3.0707
-2.20238
-1.48577
-0.901567
-0.430882
-0.0560848
0.238752
0.46764
0.64264
0.773958
0.870114
0.938146
0.983824
1.01185
1.02604
1.02946
1.02459
1.01338
0.997387
0.977813
0.955607
0.931504
0.906079
0.879785
0.852982
0.825953
0.798914
0.772031
0.745423
0.71918
0.693367
0.668027
0.64317
0.618762
0.594712
0.570879
0.547087
0.523151
0.498909
0.474238
0.449061
0.423346
0.397087
0.370303
0.343006
0.315247
0.287006
0.258407
0.229261
0.20001
0.169775
0.140382
0.108093
0.0805384
0.0422236
0.0247726
-12.7521
-13.1507
-13.611
-14.0842
-14.4924
-14.7557
-14.8107
-14.6205
-14.1771
-13.4963
-12.6103
-11.5641
-10.4198
-9.2629
-8.2011
-7.35148
-6.82361
-6.70116
-7.04037
-7.86383
-9.15675
-10.8661
-12.902
-15.1429
-17.4456
-19.6577
-21.6294
-23.2275
-24.3434
-24.9027
-24.8814
-24.3037
-23.233
-21.7604
-19.9912
-18.0324
-15.9838
-13.9316
-11.9453
-10.0766
-8.36011
-6.8163
-5.45329
-4.26972
-3.25724
-2.40284
-1.6908
-1.10423
-0.626282
-0.24093
0.0665101
0.309114
0.498257
0.643656
0.753488
0.834559
0.892487
0.931877
0.956489
0.969378
0.973013
0.969381
0.960072
0.946353
0.929232
0.909513
0.887841
0.864737
0.840625
0.815848
0.790683
0.765344
0.740003
0.714794
0.689826
0.665181
0.640903
0.616987
0.593363
0.569903
0.546436
0.522778
0.498763
0.474268
0.449218
0.423586
0.397374
0.37061
0.343314
0.315542
0.28728
0.258654
0.22948
0.200201
0.169939
0.140517
0.108214
0.0806144
0.0423411
0.0247272
-12.6808
-13.0186
-13.3918
-13.762
-14.0712
-14.2591
-14.276
-14.0911
-13.6961
-13.1024
-12.3372
-11.4407
-10.4684
-9.49379
-8.60692
-7.90456
-7.47794
-7.39821
-7.71375
-8.44429
-9.57749
-11.0685
-12.8407
-14.7904
-16.7951
-18.7237
-20.4472
-21.8486
-22.8342
-23.3389
-23.3375
-22.8451
-21.911
-20.6102
-19.0315
-17.2676
-15.4064
-13.5257
-11.6896
-9.94733
-8.33349
-6.86959
-5.56602
-4.42416
-3.4386
-2.5992
-1.89288
-1.30506
-0.820821
-0.425709
-0.106277
0.149606
0.352606
0.511922
0.635362
0.729476
0.799705
0.850542
0.885681
0.908144
0.920401
0.924457
0.921943
0.914178
0.902232
0.886978
0.86913
0.849277
0.82791
0.805433
0.78218
0.758422
0.73438
0.710234
0.686137
0.662208
0.638529
0.615123
0.591942
0.568872
0.545747
0.522381
0.498607
0.474298
0.449381
0.423833
0.397666
0.370918
0.343617
0.315827
0.287537
0.258879
0.22967
0.200357
0.170064
0.140609
0.108291
0.0806386
0.042416
0.0246242
-12.5914
-12.8758
-13.1776
-13.4661
-13.6979
-13.8273
-13.8157
-13.6384
-13.2878
-12.7724
-12.115
-11.351
-10.5291
-9.71221
-8.97567
-8.39954
-8.05962
-8.01598
-8.30981
-8.95806
-9.95043
-11.2489
-12.7884
-14.4809
-16.222
-17.8989
-19.4004
-20.6243
-21.4902
-21.9398
-21.9479
-21.5234
-20.7048
-19.5531
-18.1429
-16.5537
-14.8628
-13.1398
-11.4436
-9.82068
-8.30486
-6.91832
-5.67312
-4.57294
-3.6149
-2.79146
-2.09193
-1.50391
-1.01431
-0.610217
-0.279394
-0.0106711
0.205893
0.378955
0.515927
0.623075
0.705646
0.768003
0.813759
0.845898
0.866879
0.878724
0.8831
0.881376
0.874686
0.863967
0.850005
0.833457
0.814879
0.794741
0.773434
0.751285
0.728564
0.705502
0.682292
0.659095
0.63603
0.613149
0.590429
0.567768
0.545005
0.521954
0.498439
0.474331
0.449558
0.424103
0.397986
0.371257
0.343953
0.316147
0.287832
0.259145
0.229905
0.20056
0.17024
0.140751
0.108423
0.0807147
0.0425481
0.0245628
-12.4902
-12.7285
-12.9718
-13.1958
-13.3676
-13.4525
-13.4208
-13.2531
-12.9427
-12.4967
-11.9344
-11.2866
-10.5956
-9.91481
-9.30712
-8.83876
-8.57252
-8.55884
-8.83237
-9.40755
-10.2757
-11.4046
-12.7391
-14.2046
-15.712
-17.1651
-18.4681
-19.533
-20.289
-20.6845
-20.6953
-20.3256
-19.6048
-18.5826
-17.3211
-15.8884
-14.3519
-12.7738
-11.2078
-9.69735
-8.27498
-6.96314
-5.77511
-4.7164
-3.78635
-2.97968
-2.28793
-1.70068
-1.20661
-0.794276
-0.452647
-0.171511
0.0583288
0.244963
0.395385
0.515553
0.610499
0.684439
0.740894
0.782797
0.812592
0.832314
0.843661
0.848053
0.846683
0.840557
0.830529
0.817327
0.801575
0.783805
0.764471
0.743954
0.722578
0.700618
0.678313
0.655865
0.633428
0.611087
0.588843
0.566607
0.544224
0.521503
0.498263
0.474368
0.449744
0.424382
0.398313
0.371598
0.344285
0.316455
0.288108
0.259385
0.230109
0.200726
0.170375
0.140847
0.108508
0.0807362
0.042635
0.0244414
-12.3817
-12.5804
-12.7759
-12.9489
-13.0742
-13.1257
-13.0807
-12.924
-12.6506
-12.2664
-11.788
-11.2419
-10.6642
-10.1004
-9.60255
-9.22559
-9.02133
-9.03188
-9.28612
-9.7962
-10.5547
-11.5344
-12.6887
-13.9541
-15.2553
-16.51
-17.6361
-18.558
-19.2134
-19.5568
-19.5653
-19.2395
-18.6017
-17.6918
-16.5616
-15.269
-13.8727
-12.4278
-10.9828
-9.57808
-8.24465
-7.00479
-5.87258
-4.855
-3.95325
-3.16405
-2.48093
-1.89534
-1.39763
-0.977745
-0.625861
-0.332718
-0.089879
0.110162
0.273954
0.407127
0.514475
0.600054
0.667277
0.719022
0.757708
0.78538
0.803765
0.814333
0.818337
0.816848
0.810792
0.800968
0.788067
0.772688
0.755344
0.736473
0.716452
0.695603
0.674212
0.65252
0.63072
0.60893
0.587176
0.565384
0.543401
0.521033
0.498088
0.474422
0.449959
0.424698
0.39868
0.371981
0.34466
0.316808
0.288431
0.259673
0.230363
0.200944
0.170565
0.140999
0.108653
0.0808142
0.0427834
0.0243651
-12.2695
-12.4346
-12.5911
-12.7239
-12.8137
-12.8408
-12.7878
-12.6433
-12.4038
-12.0744
-11.6694
-11.2114
-10.7314
-10.2673
-9.86267
-9.56269
-9.41002
-9.43964
-9.67535
-10.1273
-10.789
-11.6374
-12.6332
-13.7229
-14.8423
-15.9216
-16.8905
-17.6842
-18.2481
-18.5422
-18.5449
-18.2543
-17.6869
-16.8747
-15.8606
-14.6936
-13.4245
-12.1017
-10.7691
-9.46366
-8.21473
-7.04408
-5.96623
-4.98929
-4.116
-3.34482
-2.67108
-2.08795
-1.58732
-1.16052
-0.798889
-0.494113
-0.238525
-0.0252269
0.151864
0.298029
0.417808
0.515074
0.593129
0.654778
0.702418
0.738096
0.763569
0.780353
0.789762
0.792936
0.790872
0.784439
0.7744
0.76142
0.746074
0.728858
0.710201
0.690474
0.670005
0.649078
0.627923
0.606693
0.58544
0.564105
0.542541
0.520544
0.49791
0.474484
0.450188
0.425026
0.399055
0.372364
0.345027
0.317144
0.288729
0.25993
0.23058
0.201119
0.170708
0.141098
0.108746
0.0808306
0.0428812
0.0242228
-12.1564
-12.2932
-12.4182
-12.5194
-12.5824
-12.5919
-12.5352
-12.4036
-12.1949
-11.914
-11.5729
-11.1911
-10.7947
-10.4155
-10.0894
-9.8538
-9.74358
-9.78769
-10.0054
-10.4051
-10.9814
-11.7144
-12.5712
-13.5064
-14.4659
-15.3905
-16.2202
-16.8993
-17.3804
-17.6283
-17.6229
-17.3605
-16.853
-16.1259
-15.2145
-14.16
-13.0062
-11.7955
-10.5672
-9.35487
-8.18611
-7.08188
-6.05684
-5.11992
-4.27509
-3.52235
-2.85861
-2.27861
-1.77571
-1.34256
-0.971619
-0.655531
-0.387409
-0.160976
0.0293624
0.188518
0.320755
0.429757
0.518696
0.590304
0.646946
0.690671
0.723264
0.746291
0.761123
0.768972
0.770905
0.767867
0.760689
0.750105
0.736752
0.721185
0.703885
0.685272
0.665719
0.645553
0.625045
0.60438
0.583638
0.562778
0.541653
0.520051
0.497751
0.474583
0.450466
0.425411
0.399489
0.372806
0.345452
0.317538
0.289086
0.260246
0.230857
0.201355
0.170916
0.141261
0.108907
0.0809119
0.0430482
0.0241316
-12.0443
-12.1574
-12.257
-12.3337
-12.3765
-12.374
-12.3166
-12.1983
-12.0177
-11.7793
-11.4937
-11.1773
-10.8519
-10.5443
-10.284
-10.1017
-10.0258
-10.0799
-10.2803
-10.6332
-11.1338
-11.7655
-12.5004
-13.3003
-14.1195
-14.908
-15.6147
-16.1919
-16.5986
-16.8038
-16.789
-16.5492
-16.093
-15.4402
-14.6197
-13.6662
-12.617
-11.5092
-10.3775
-9.25251
-8.15972
-7.11914
-6.14529
-5.24764
-4.43116
-3.69712
-3.04386
-2.46754
-1.96291
-1.52387
-1.14398
-0.816835
-0.536338
-0.296853
-0.0932908
0.0788701
0.223605
0.344389
0.444258
0.525864
0.591536
0.643324
0.683044
0.712307
0.732551
0.745056
0.750965
0.751298
0.746961
0.738754
0.727381
0.713453
0.697505
0.680005
0.661368
0.641963
0.622099
0.602001
0.581776
0.561402
0.540733
0.519545
0.497596
0.474699
0.450764
0.425811
0.399929
0.373243
0.345862
0.317905
0.289406
0.260517
0.231084
0.201536
0.171064
0.141359
0.109003
0.0809202
0.0431559
0.0239654
-11.9354
-12.0288
-12.108
-12.1657
-12.1937
-12.1834
-12.1277
-12.0223
-11.867
-11.6659
-11.428
-11.1674
-10.9022
-10.6546
-10.449
-10.3103
-10.2618
-10.3227
-10.506
-10.8166
-11.2503
-11.7929
-12.421
-13.1025
-13.7989
-14.4678
-15.0662
-15.5531
-15.8931
-16.0592
-16.0344
-15.813
-15.4007
-14.8129
-14.0731
-13.2103
-12.2561
-11.2426
-10.2006
-9.1574
-8.13655
-7.15687
-6.23255
-5.37333
-4.58495
-3.86975
-3.22729
-2.65507
-2.14911
-1.70452
-1.31594
-0.977912
-0.685132
-0.432621
-0.215819
-0.0306102
0.126674
0.259291
0.370133
0.461767
0.536486
0.596342
0.64318
0.678663
0.704293
0.721424
0.731277
0.734946
0.733411
0.727545
0.718114
0.70579
0.691161
0.674743
0.656996
0.638333
0.619103
0.599568
0.579867
0.559994
0.539805
0.51906
0.497489
0.474882
0.451142
0.426296
0.400454
0.373763
0.346351
0.318351
0.289805
0.260866
0.231389
0.201794
0.171292
0.141536
0.109182
0.0810055
0.0433444
0.0238581
-11.8299
-11.907
-11.97
-12.0132
-12.0305
-12.0154
-11.9629
-11.8702
-11.7376
-11.5688
-11.3719
-11.1584
-10.9437
-10.746
-10.5854
-10.482
-10.4548
-10.5193
-10.6859
-10.9583
-11.3326
-11.797
-12.3318
-12.9099
-13.499
-14.0634
-14.5667
-14.974
-15.2549
-15.3856
-15.3508
-15.1445
-14.7701
-14.2395
-13.5717
-12.7904
-11.9225
-10.9958
-10.0369
-9.07038
-8.11762
-7.19618
-6.31971
-5.49801
-4.73736
-4.04097
-3.4095
-2.84164
-2.33461
-1.88468
-1.48754
-1.13868
-0.833619
-0.568039
-0.337925
-0.139591
0.0303147
0.174822
0.29667
0.398342
0.482094
0.549981
0.603883
0.64552
0.676463
0.698144
0.711865
0.7188
0.720007
0.716431
0.708904
0.698156
0.684827
0.669478
0.652611
0.634679
0.616072
0.597091
0.57791
0.558544
0.53885
0.518568