/*--------------------------------*- C++ -*----------------------------------*\
  =========                 |
  \\      /  F ield         | OpenFOAM: The Open Source CFD Toolbox
   \\    /   O peration     | Website:  https://openfoam.org
    \\  /    A nd           | Version:  10
     \\/     M anipulation  |
\*---------------------------------------------------------------------------*/
FoamFile
{
    format      ascii;
    class       volVectorField;
    location    "0.065";
    object      U;
}
// * * * * * * * * * * * * * * * * * * * * * * * * * * * * * * * * * * * * * //

dimensions      [0 1 -1 0 0 0 0];

internalField   nonuniform List<vector> 
6820
(
(5.57353 0.459165 0)
(3.88286 0.245943 0)
(2.58887 0.00883241 0)
(1.95672 -0.0641419 0)
(1.73111 -0.0594376 0)
(1.61966 -0.0339683 0)
(1.55433 -0.0153105 0)
(1.50799 -0.00524292 0)
(1.46893 -0.00064949 0)
(1.43503 0.000859049 0)
(1.40571 0.000923002 0)
(1.38049 0.000428085 0)
(1.35885 -0.000215605 0)
(1.34025 -0.000826125 0)
(1.32419 -0.00133294 0)
(1.3102 -0.00171931 0)
(1.29791 -0.00199175 0)
(1.28699 -0.00216406 0)
(1.27712 -0.00224975 0)
(1.26804 -0.00225918 0)
(1.25948 -0.00219843 0)
(1.25117 -0.00206887 0)
(1.24282 -0.00186664 0)
(1.23409 -0.00158156 0)
(1.22459 -0.0011967 0)
(1.21385 -0.000681954 0)
(1.20126 -3.76664e-06 0)
(1.18612 0.000934915 0)
(1.16713 0.00213057 0)
(1.14374 0.00419848 0)
(1.11066 0.00601838 0)
(1.07438 0.0157718 0)
(0.990515 -0.00153827 0)
(7.6698 0.863947 0)
(7.71715 0.890902 0)
(6.99973 0.598564 0)
(6.19687 0.347666 0)
(5.58315 0.17976 0)
(5.13809 0.0932933 0)
(4.82065 0.0529738 0)
(4.5914 0.0345447 0)
(4.41933 0.0261394 0)
(4.28515 0.0219007 0)
(4.17712 0.0193596 0)
(4.08791 0.0175795 0)
(4.01278 0.0161898 0)
(3.94858 0.0150312 0)
(3.89306 0.014027 0)
(3.84457 0.0131422 0)
(3.80186 0.0123656 0)
(3.76393 0.0116992 0)
(3.72997 0.0111544 0)
(3.69926 0.0107503 0)
(3.6712 0.0105145 0)
(3.64521 0.0104847 0)
(3.62071 0.0107116 0)
(3.59714 0.0112634 0)
(3.57386 0.0122318 0)
(3.55017 0.0137458 0)
(3.52526 0.0159745 0)
(3.49808 0.0192139 0)
(3.46735 0.0237466 0)
(3.43126 0.0306393 0)
(3.3876 0.0398946 0)
(3.33228 0.0573694 0)
(3.26476 0.0819807 0)
(7.56353 0.520368 0)
(8.22516 0.663721 0)
(8.46471 0.576428 0)
(8.36368 0.458957 0)
(8.12772 0.344955 0)
(7.8507 0.260155 0)
(7.58039 0.200581 0)
(7.33662 0.157848 0)
(7.12268 0.126797 0)
(6.93659 0.103741 0)
(6.77508 0.0861929 0)
(6.63473 0.0725749 0)
(6.51241 0.0618511 0)
(6.40541 0.0533165 0)
(6.31146 0.046464 0)
(6.22859 0.0409207 0)
(6.15518 0.0364165 0)
(6.08982 0.0327604 0)
(6.03131 0.029823 0)
(5.97861 0.0275237 0)
(5.9308 0.0258228 0)
(5.88704 0.0247186 0)
(5.84655 0.0242467 0)
(5.80857 0.0244838 0)
(5.77234 0.0255567 0)
(5.73707 0.0276571 0)
(5.70186 0.0310651 0)
(5.66573 0.0362065 0)
(5.62746 0.0436827 0)
(5.58563 0.0546153 0)
(5.53856 0.0703069 0)
(5.48399 0.0946319 0)
(5.42242 0.131151 0)
(7.43336 0.341145 0)
(7.88463 0.514655 0)
(8.24329 0.489893 0)
(8.44181 0.430234 0)
(8.54141 0.359184 0)
(8.57138 0.298796 0)
(8.55625 0.252909 0)
(8.5156 0.217649 0)
(8.46045 0.190007 0)
(8.3972 0.167724 0)
(8.33003 0.149215 0)
(8.26165 0.133525 0)
(8.19382 0.120037 0)
(8.12783 0.108326 0)
(8.06447 0.0981182 0)
(8.00417 0.0892141 0)
(7.94713 0.08146 0)
(7.89338 0.0747389 0)
(7.84285 0.0689671 0)
(7.79538 0.064094 0)
(7.75075 0.0601018 0)
(7.70867 0.0570086 0)
(7.66883 0.0548732 0)
(7.63086 0.0538028 0)
(7.59435 0.0539658 0)
(7.55882 0.0556121 0)
(7.52374 0.0590999 0)
(7.48849 0.0649569 0)
(7.45239 0.0739182 0)
(7.41471 0.0871747 0)
(7.37493 0.106259 0)
(7.33252 0.134111 0)
(7.29065 0.174241 0)
(7.39682 0.251099 0)
(7.67993 0.421251 0)
(7.92326 0.404333 0)
(8.07712 0.35453 0)
(8.1875 0.300013 0)
(8.26967 0.254578 0)
(8.33042 0.220907 0)
(8.37707 0.195327 0)
(8.41359 0.175095 0)
(8.44203 0.15856 0)
(8.46394 0.14463 0)
(8.48053 0.132645 0)
(8.49276 0.1222 0)
(8.50117 0.113015 0)
(8.50638 0.104885 0)
(8.50897 0.0976648 0)
(8.5094 0.0912554 0)
(8.50809 0.0855947 0)
(8.50538 0.0806523 0)
(8.50154 0.0764277 0)
(8.49679 0.0729515 0)
(8.49128 0.0702877 0)
(8.48514 0.0685404 0)
(8.47845 0.0678619 0)
(8.47124 0.0684669 0)
(8.46353 0.0706518 0)
(8.45533 0.0748225 0)
(8.44665 0.0815363 0)
(8.43757 0.0915531 0)
(8.42835 0.105922 0)
(8.41964 0.126028 0)
(8.41279 0.153693 0)
(8.41141 0.19071 0)
(7.37402 0.180764 0)
(7.57407 0.336355 0)
(7.76071 0.34272 0)
(7.87508 0.313722 0)
(7.95117 0.274752 0)
(8.00641 0.236819 0)
(8.04773 0.205727 0)
(8.08177 0.180943 0)
(8.11197 0.160995 0)
(8.13951 0.144745 0)
(8.16493 0.131241 0)
(8.18854 0.119786 0)
(8.21054 0.109936 0)
(8.23115 0.101391 0)
(8.25049 0.0939174 0)
(8.26864 0.087347 0)
(8.28566 0.0815698 0)
(8.30163 0.0765171 0)
(8.31663 0.0721547 0)
(8.33074 0.06848 0)
(8.34404 0.0655214 0)
(8.35663 0.0633408 0)
(8.36861 0.0620383 0)
(8.38012 0.0617593 0)
(8.3913 0.0627056 0)
(8.40236 0.0651499 0)
(8.41357 0.0694542 0)
(8.42535 0.0760938 0)
(8.43826 0.0856792 0)
(8.45327 0.0989674 0)
(8.47173 0.116838 0)
(8.49621 0.14012 0)
(8.52947 0.169029 0)
(7.35905 0.132852 0)
(7.50326 0.273427 0)
(7.65555 0.295466 0)
(7.75543 0.278931 0)
(7.82138 0.249604 0)
(7.86814 0.217965 0)
(7.90133 0.190571 0)
(7.92669 0.168168 0)
(7.94793 0.149778 0)
(7.96666 0.134533 0)
(7.98374 0.121704 0)
(7.99971 0.110732 0)
(8.01484 0.101228 0)
(8.0293 0.092921 0)
(8.04319 0.08562 0)
(8.05659 0.0791908 0)
(8.06953 0.073538 0)
(8.08207 0.0685977 0)
(8.09423 0.0643342 0)
(8.10605 0.0607391 0)
(8.11758 0.0578314 0)
(8.12886 0.0556591 0)
(8.13999 0.0543027 0)
(8.15107 0.0538794 0)
(8.16225 0.0545492 0)
(8.17375 0.0565222 0)
(8.18588 0.0600648 0)
(8.1991 0.0655048 0)
(8.21408 0.07322 0)
(8.23184 0.0836142 0)
(8.25371 0.0969939 0)
(8.28209 0.113441 0)
(8.31896 0.132059 0)
(7.34964 0.0991608 0)
(7.45337 0.220847 0)
(7.57633 0.250895 0)
(7.6649 0.244418 0)
(7.72653 0.225013 0)
(7.77203 0.201138 0)
(7.80521 0.178589 0)
(7.83037 0.159004 0)
(7.85089 0.142184 0)
(7.86847 0.127769 0)
(7.88404 0.115376 0)
(7.89824 0.104634 0)
(7.91145 0.0952535 0)
(7.9239 0.0870209 0)
(7.93575 0.079772 0)
(7.9471 0.07338 0)
(7.95805 0.0677509 0)
(7.96866 0.0628208 0)
(7.97898 0.0585526 0)
(7.98906 0.054934 0)
(7.99898 0.0519773 0)
(8.00879 0.0497194 0)
(8.0186 0.0482233 0)
(8.02851 0.0475795 0)
(8.0387 0.0479079 0)
(8.04937 0.0493585 0)
(8.06085 0.0521072 0)
(8.07359 0.0563471 0)
(8.08819 0.062256 0)
(8.10555 0.0699517 0)
(8.12678 0.0793467 0)
(8.15368 0.090036 0)
(8.18748 0.100751 0)
(7.34381 0.0752095 0)
(7.41915 0.17891 0)
(7.51786 0.213489 0)
(7.59509 0.214623 0)
(7.65142 0.202333 0)
(7.69465 0.183969 0)
(7.72749 0.164929 0)
(7.75305 0.147559 0)
(7.77412 0.132224 0)
(7.79223 0.118837 0)
(7.80825 0.107183 0)
(7.82279 0.0969957 0)
(7.83624 0.0880391 0)
(7.84884 0.0801303 0)
(7.86077 0.0731257 0)
(7.87217 0.0669144 0)
(7.88312 0.0614152 0)
(7.89371 0.056572 0)
(7.90401 0.0523504 0)
(7.9141 0.0487367 0)
(7.92404 0.0457362 0)
(7.93393 0.0433737 0)
(7.94387 0.0416927 0)
(7.95399 0.0407548 0)
(7.96448 0.040638 0)
(7.97557 0.0414315 0)
(7.98757 0.043225 0)
(8.00093 0.0460908 0)
(8.0162 0.0500421 0)
(8.03414 0.054983 0)
(8.05562 0.0605766 0)
(8.08194 0.0661546 0)
(8.11378 0.0704194 0)
(7.34016 0.0579696 0)
(7.39548 0.145248 0)
(7.47452 0.18092 0)
(7.5413 0.187032 0)
(7.59238 0.180089 0)
(7.63301 0.166581 0)
(7.66502 0.151174 0)
(7.69051 0.136334 0)
(7.71174 0.122734 0)
(7.73007 0.110509 0)
(7.74632 0.0996234 0)
(7.76107 0.0899479 0)
(7.7747 0.0813363 0)
(7.78748 0.073661 0)
(7.79958 0.0668148 0)
(7.81114 0.0607092 0)
(7.82227 0.0552749 0)
(7.83304 0.0504602 0)
(7.84354 0.0462305 0)
(7.85384 0.0425669 0)
(7.86403 0.0394658 0)
(7.87421 0.0369375 0)
(7.88449 0.0350043 0)
(7.89502 0.0336981 0)
(7.90597 0.0330549 0)
(7.9176 0.033107 0)
(7.9302 0.0338674 0)
(7.94416 0.0353086 0)
(7.95997 0.0373201 0)
(7.97823 0.0396631 0)
(7.9996 0.0418681 0)
(8.02494 0.0431677 0)
(8.05453 0.0423962 0)
(7.33788 0.0453205 0)
(7.379 0.118172 0)
(7.44234 0.152908 0)
(7.4998 0.162384 0)
(7.5459 0.159548 0)
(7.58379 0.149958 0)
(7.61462 0.137549 0)
(7.63975 0.12478 0)
(7.66095 0.112603 0)
(7.6794 0.101358 0)
(7.69584 0.0911591 0)
(7.71078 0.0819798 0)
(7.72461 0.073737 0)
(7.73756 0.0663397 0)
(7.74983 0.0597027 0)
(7.76156 0.0537504 0)
(7.77284 0.0484201 0)
(7.78378 0.0436629 0)
(7.79445 0.039443 0)
(7.80494 0.0357365 0)
(7.81535 0.0325303 0)
(7.82577 0.0298197 0)
(7.83633 0.0276061 0)
(7.84717 0.0258923 0)
(7.85847 0.0246757 0)
(7.87045 0.0239381 0)
(7.88339 0.0236298 0)
(7.89762 0.0236472 0)
(7.91354 0.0237966 0)
(7.9316 0.0237589 0)
(7.95223 0.0230132 0)
(7.97597 0.0208019 0)
(8.00285 0.0161479 0)
(7.33642 0.0358572 0)
(7.36742 0.0963339 0)
(7.4183 0.1288 0)
(7.46753 0.140145 0)
(7.50893 0.140165 0)
(7.54406 0.133591 0)
(7.57355 0.123745 0)
(7.5982 0.112931 0)
(7.61931 0.102215 0)
(7.63786 0.0920504 0)
(7.65447 0.0826392 0)
(7.66961 0.0740334 0)
(7.68364 0.0662079 0)
(7.69679 0.0591121 0)
(7.70924 0.0526884 0)
(7.72114 0.0468803 0)
(7.7326 0.0416366 0)
(7.74371 0.0369137 0)
(7.75456 0.032676 0)
(7.76524 0.0288951 0)
(7.77585 0.0255486 0)
(7.78649 0.022618 0)
(7.79727 0.0200849 0)
(7.80834 0.0179262 0)
(7.81986 0.0161061 0)
(7.83204 0.0145663 0)
(7.84512 0.0132096 0)
(7.85935 0.0118817 0)
(7.87504 0.0103414 0)
(7.89251 0.00823457 0)
(7.91201 0.00505918 0)
(7.93383 0.000118503 0)
(7.95782 -0.00736027 0)
(7.33548 0.0286261 0)
(7.35921 0.0786062 0)
(7.40025 0.108047 0)
(7.44235 0.120168 0)
(7.4794 0.122143 0)
(7.51183 0.117897 0)
(7.53986 0.110183 0)
(7.56386 0.101056 0)
(7.58474 0.0916143 0)
(7.60328 0.0823933 0)
(7.62 0.0736719 0)
(7.63532 0.0655715 0)
(7.64954 0.0581194 0)
(7.6629 0.0512999 0)
(7.67555 0.0450782 0)
(7.68765 0.0394115 0)
(7.69931 0.0342559 0)
(7.71061 0.02957 0)
(7.72164 0.0253162 0)
(7.73251 0.0214605 0)
(7.7433 0.0179711 0)
(7.75412 0.014816 0)
(7.76507 0.0119593 0)
(7.77629 0.00935568 0)
(7.78794 0.00694305 0)
(7.80017 0.00463274 0)
(7.81319 0.00229619 0)
(7.82719 -0.000250068 0)
(7.84239 -0.00326515 0)
(7.85899 -0.00710089 0)
(7.87711 -0.0122137 0)
(7.89685 -0.0192048 0)
(7.91798 -0.0286548 0)
(7.33486 0.0229813 0)
(7.35331 0.0641046 0)
(7.38663 0.0901595 0)
(7.42262 0.102218 0)
(7.45569 0.105367 0)
(7.48553 0.102787 0)
(7.51203 0.0967479 0)
(7.53527 0.0890419 0)
(7.55583 0.0807417 0)
(7.57429 0.0724189 0)
(7.59109 0.0643938 0)
(7.60655 0.0568296 0)
(7.62096 0.049789 0)
(7.63451 0.0432823 0)
(7.64736 0.0372931 0)
(7.65965 0.0317911 0)
(7.67149 0.0267397 0)
(7.68297 0.0221007 0)
(7.69417 0.0178359 0)
(7.7052 0.013907 0)
(7.71613 0.0102746 0)
(7.72708 0.00689577 0)
(7.73813 0.0037205 0)
(7.74942 0.000686526 0)
(7.76106 -0.00228719 0)
(7.77321 -0.00530882 0)
(7.786 -0.00852388 0)
(7.79959 -0.0121262 0)
(7.8141 -0.0163707 0)
(7.82964 -0.0215807 0)
(7.84624 -0.0281588 0)
(7.86387 -0.0365935 0)
(7.88227 -0.047304 0)
(7.33444 0.0184813 0)
(7.34902 0.0521267 0)
(7.37628 0.074689 0)
(7.40712 0.0860749 0)
(7.43662 0.0897848 0)
(7.46402 0.0883397 0)
(7.48899 0.0835899 0)
(7.51139 0.0770597 0)
(7.53154 0.0697443 0)
(7.54985 0.0622167 0)
(7.56666 0.0548174 0)
(7.58222 0.0477382 0)
(7.59677 0.0410708 0)
(7.61049 0.034848 0)
(7.62353 0.0290698 0)
(7.636 0.0237168 0)
(7.648 0.0187586 0)
(7.65964 0.0141591 0)
(7.67099 0.00987881 0)
(7.68215 0.00587516 0)
(7.69319 0.00210194 0)
(7.70421 -0.00149287 0)
(7.7153 -0.00497028 0)
(7.72657 -0.00840455 0)
(7.73812 -0.0118888 0)
(7.75005 -0.0155414 0)
(7.76248 -0.0195131 0)
(7.7755 -0.0239944 0)
(7.78919 -0.0292217 0)
(7.80356 -0.0354803 0)
(7.8186 -0.0431005 0)
(7.83419 -0.0524704 0)
(7.85008 -0.0638752 0)
(7.33414 0.0148198 0)
(7.34586 0.0421218 0)
(7.36839 0.0612425 0)
(7.39491 0.0715244 0)
(7.42125 0.0753051 0)
(7.4464 0.0745342 0)
(7.46988 0.070705 0)
(7.4914 0.0650926 0)
(7.51109 0.0585924 0)
(7.5292 0.0517569 0)
(7.54596 0.044929 0)
(7.56159 0.038314 0)
(7.57626 0.03202 0)
(7.59013 0.0260943 0)
(7.60332 0.0205473 0)
(7.61595 0.0153668 0)
(7.62811 0.0105264 0)
(7.63989 0.00599116 0)
(7.65136 0.00172035 0)
(7.6626 -0.00233187 0)
(7.67371 -0.00621683 0)
(7.68475 -0.00999296 0)
(7.69581 -0.0137285 0)
(7.70697 -0.0175047 0)
(7.71833 -0.0214203 0)
(7.72995 -0.0255958 0)
(7.74192 -0.0301781 0)
(7.75427 -0.0353439 0)
(7.76704 -0.0413024 0)
(7.78022 -0.0482937 0)
(7.79371 -0.0565799 0)
(7.80738 -0.0664573 0)
(7.82099 -0.0781059 0)
(7.33392 0.0117816 0)
(7.34351 0.0336585 0)
(7.36234 0.0494744 0)
(7.38529 0.0583585 0)
(7.40886 0.0618251 0)
(7.43199 0.0613491 0)
(7.45406 0.0581229 0)
(7.4747 0.0531968 0)
(7.49389 0.0473536 0)
(7.51175 0.0411045 0)
(7.52843 0.0347792 0)
(7.54409 0.0285833 0)
(7.55885 0.0226328 0)
(7.57284 0.0169835 0)
(7.58617 0.0116533 0)
(7.59894 0.00663541 0)
(7.61122 0.00190655 0)
(7.6231 -0.00256714 0)
(7.63466 -0.00682728 0)
(7.64596 -0.010922 0)
(7.65709 -0.0149061 0)
(7.6681 -0.018842 0)
(7.67907 -0.0228018 0)
(7.69007 -0.0268696 0)
(7.70116 -0.0311442 0)
(7.71239 -0.0357422 0)
(7.72381 -0.0407998 0)
(7.73544 -0.0464742 0)
(7.74727 -0.0529427 0)
(7.75925 -0.0603999 0)
(7.77128 -0.0690456 0)
(7.7832 -0.0790969 0)
(7.79479 -0.0906532 0)
(7.33377 0.00921173 0)
(7.34174 0.0263986 0)
(7.35769 0.0390846 0)
(7.3777 0.0463799 0)
(7.3989 0.0492333 0)
(7.42022 0.0487379 0)
(7.441 0.0458337 0)
(7.46079 0.0413742 0)
(7.47947 0.0360282 0)
(7.49706 0.0302548 0)
(7.51364 0.0243605 0)
(7.5293 0.0185426 0)
(7.54412 0.0129169 0)
(7.55821 0.00754244 0)
(7.57166 0.00243989 0)
(7.58454 -0.00239545 0)
(7.59693 -0.0069857 0)
(7.60889 -0.0113649 0)
(7.62051 -0.0155759 0)
(7.63183 -0.0196688 0)
(7.64293 -0.0237006 0)
(7.65386 -0.0277359 0)
(7.66468 -0.0318476 0)
(7.67545 -0.0361193 0)
(7.68622 -0.0406458 0)
(7.69701 -0.0455352 0)
(7.70784 -0.0509092 0)
(7.71872 -0.0569022 0)
(7.7296 -0.0636594 0)
(7.74043 -0.071332 0)
(7.7511 -0.0800662 0)
(7.76145 -0.090014 0)
(7.77129 -0.101215 0)
(7.33365 0.00699652 0)
(7.34041 0.0200752 0)
(7.35411 0.029814 0)
(7.37173 0.0354014 0)
(7.39093 0.0374111 0)
(7.41067 0.0366379 0)
(7.43028 0.033814 0)
(7.44929 0.0296237 0)
(7.46749 0.0246259 0)
(7.48481 0.0192211 0)
(7.50127 0.0136838 0)
(7.51691 0.00819445 0)
(7.53178 0.0028617 0)
(7.54596 -0.00225816 0)
(7.5595 -0.00714506 0)
(7.57248 -0.0118039 0)
(7.58495 -0.016257 0)
(7.59697 -0.0205388 0)
(7.60861 -0.0246931 0)
(7.61993 -0.0287708 0)
(7.63096 -0.0328296 0)
(7.64178 -0.0369339 0)
(7.65242 -0.0411551 0)
(7.66292 -0.0455729 0)
(7.67331 -0.0502753 0)
(7.68362 -0.0553588 0)
(7.69385 -0.0609283 0)
(7.70397 -0.0670948 0)
(7.71395 -0.0739723 0)
(7.72371 -0.0816741 0)
(7.73314 -0.0903007 0)
(7.74211 -0.0999525 0)
(7.75045 -0.110627 0)
(7.33356 0.00505019 0)
(7.33939 0.0144758 0)
(7.35135 0.0214382 0)
(7.36707 0.0252472 0)
(7.38459 0.0262362 0)
(7.40299 0.0249745 0)
(7.42159 0.0220249 0)
(7.4399 0.0179289 0)
(7.45765 0.0131441 0)
(7.47472 0.00800984 0)
(7.49106 0.00276397 0)
(7.50668 -0.00243496 0)
(7.52159 -0.00749074 0)
(7.53584 -0.012354 0)
(7.54946 -0.0170087 0)
(7.56251 -0.0214627 0)
(7.57504 -0.0257403 0)
(7.5871 -0.0298777 0)
(7.59874 -0.0339201 0)
(7.61 -0.0379192 0)
(7.62095 -0.0419328 0)
(7.63161 -0.046024 0)
(7.64202 -0.0502615 0)
(7.65222 -0.0547194 0)
(7.66222 -0.059477 0)
(7.67203 -0.0646185 0)
(7.68165 -0.0702315 0)
(7.69104 -0.0764045 0)
(7.70016 -0.0832241 0)
(7.70893 -0.0907708 0)
(7.71727 -0.0991091 0)
(7.72503 -0.108299 0)
(7.73211 -0.118311 0)
(7.33349 0.00330622 0)
(7.33863 0.00942831 0)
(7.34925 0.0137618 0)
(7.36346 0.0157505 0)
(7.37963 0.0155811 0)
(7.39691 0.0136564 0)
(7.41466 0.0104032 0)
(7.43238 0.00624285 0)
(7.44975 0.00154082 0)
(7.46661 -0.0034245 0)
(7.48286 -0.00845545 0)
(7.49847 -0.01342 0)
(7.51343 -0.0182389 0)
(7.52774 -0.0228737 0)
(7.54144 -0.0273155 0)
(7.55456 -0.0315768 0)
(7.56714 -0.0356853 0)
(7.57922 -0.0396792 0)
(7.59084 -0.0436047 0)
(7.60205 -0.0475139 0)
(7.61287 -0.0514633 0)
(7.62336 -0.0555136 0)
(7.63353 -0.0597289 0)
(7.6434 -0.0641766 0)
(7.653 -0.0689262 0)
(7.66232 -0.0740487 0)
(7.67134 -0.0796152 0)
(7.68003 -0.0856936 0)
(7.68836 -0.0923466 0)
(7.69624 -0.0996276 0)
(7.70361 -0.107573 0)
(7.71035 -0.116213 0)
(7.71637 -0.1255 0)
(7.33344 0.0017112 0)
(7.33806 0.00479045 0)
(7.34768 0.00661277 0)
(7.36073 0.00675427 0)
(7.37583 0.00531887 0)
(7.39223 0.00259059 0)
(7.4093 -0.00111083 0)
(7.42654 -0.00546286 0)
(7.44361 -0.0101814 0)
(7.46031 -0.0150468 0)
(7.4765 -0.0199027 0)
(7.49212 -0.0246467 0)
(7.50712 -0.0292203 0)
(7.5215 -0.0335994 0)
(7.53527 -0.0377858 0)
(7.54845 -0.0417992 0)
(7.56106 -0.0456728 0)
(7.57314 -0.0494484 0)
(7.58472 -0.0531744 0)
(7.59584 -0.0569035 0)
(7.60653 -0.0606915 0)
(7.61681 -0.0645963 0)
(7.62672 -0.0686775 0)
(7.63626 -0.0729953 0)
(7.64545 -0.0776099 0)
(7.65428 -0.0825802 0)
(7.66273 -0.087962 0)
(7.67077 -0.0938058 0)
(7.67838 -0.100154 0)
(7.68547 -0.10704 0)
(7.692 -0.114479 0)
(7.69788 -0.122479 0)
(7.70303 -0.130982 0)
(7.33341 0.00022072 0)
(7.33765 0.000440576 0)
(7.34654 -0.000165497 0)
(7.35873 -0.00189713 0)
(7.37305 -0.004692 0)
(7.38879 -0.00834979 0)
(7.40537 -0.0126355 0)
(7.42228 -0.01731 0)
(7.43916 -0.0221621 0)
(7.45578 -0.0270281 0)
(7.47198 -0.031794 0)
(7.48765 -0.0363885 0)
(7.50274 -0.0407758 0)
(7.51722 -0.0449484 0)
(7.53107 -0.0489198 0)
(7.54432 -0.0527181 0)
(7.55697 -0.0563825 0)
(7.56905 -0.0599585 0)
(7.58059 -0.0634966 0)
(7.59162 -0.0670498 0)
(7.60216 -0.0706724 0)
(7.61224 -0.0744193 0)
(7.62188 -0.078345 0)
(7.63109 -0.0825027 0)
(7.63988 -0.0869435 0)
(7.64824 -0.091715 0)
(7.65616 -0.0968597 0)
(7.66361 -0.102414 0)
(7.67056 -0.108403 0)
(7.67697 -0.114845 0)
(7.68277 -0.12174 0)
(7.68792 -0.12908 0)
(7.69236 -0.136804 0)
(7.33338 -0.00120366 0)
(7.33738 -0.00372832 0)
(7.34577 -0.00671576 0)
(7.35738 -0.0103488 0)
(7.37117 -0.0145776 0)
(7.38648 -0.0192564 0)
(7.40274 -0.0242142 0)
(7.41946 -0.0292805 0)
(7.43626 -0.0343076 0)
(7.45288 -0.0391858 0)
(7.46913 -0.0438439 0)
(7.4849 -0.0482451 0)
(7.5001 -0.0523804 0)
(7.51468 -0.0562631 0)
(7.52862 -0.0599224 0)
(7.54193 -0.0633984 0)
(7.55462 -0.0667387 0)
(7.56669 -0.069995 0)
(7.57818 -0.0732209 0)
(7.5891 -0.076471 0)
(7.59949 -0.0797989 0)
(7.60936 -0.0832568 0)
(7.61873 -0.0868949 0)
(7.62761 -0.09076 0)
(7.63601 -0.0948952 0)
(7.64393 -0.0993383 0)
(7.65135 -0.104121 0)
(7.65827 -0.109267 0)
(7.66464 -0.114792 0)
(7.67044 -0.120699 0)
(7.67564 -0.126979 0)
(7.68018 -0.133616 0)
(7.68405 -0.140548 0)
(7.33337 -0.0025978 0)
(7.33722 -0.00781793 0)
(7.34533 -0.0131836 0)
(7.35662 -0.0187701 0)
(7.37014 -0.0245254 0)
(7.38526 -0.0303428 0)
(7.40144 -0.0361041 0)
(7.41815 -0.0416983 0)
(7.43503 -0.0470356 0)
(7.45179 -0.0520559 0)
(7.46822 -0.0567287 0)
(7.48417 -0.0610501 0)
(7.49955 -0.0650373 0)
(7.5143 -0.0687235 0)
(7.52838 -0.0721535 0)
(7.54179 -0.0753792 0)
(7.55453 -0.0784568 0)
(7.56661 -0.0814439 0)
(7.57805 -0.0843981 0)
(7.58888 -0.0873753 0)
(7.59912 -0.0904289 0)
(7.60878 -0.0936093 0)
(7.61788 -0.0969625 0)
(7.62645 -0.10053 0)
(7.63448 -0.104349 0)
(7.64199 -0.108448 0)
(7.64895 -0.112852 0)
(7.65537 -0.117574 0)
(7.66123 -0.122621 0)
(7.6665 -0.127988 0)
(7.67117 -0.133659 0)
(7.6752 -0.139614 0)
(7.67859 -0.14579 0)
(7.33337 -0.0039962 0)
(7.33716 -0.011924 0)
(7.34519 -0.0196992 0)
(7.3564 -0.0272887 0)
(7.36988 -0.0346216 0)
(7.38504 -0.0416116 0)
(7.40131 -0.0481803 0)
(7.41819 -0.054269 0)
(7.43527 -0.0598444 0)
(7.45226 -0.0648991 0)
(7.46893 -0.0694498 0)
(7.48512 -0.0735325 0)
(7.50072 -0.0771971 0)
(7.51566 -0.0805034 0)
(7.5299 -0.0835165 0)
(7.54342 -0.086304 0)
(7.55623 -0.0889332 0)
(7.56832 -0.0914696 0)
(7.57972 -0.0939755 0)
(7.59046 -0.0965092 0)
(7.60055 -0.0991243 0)
(7.61001 -0.101869 0)
(7.61887 -0.104786 0)
(7.62713 -0.107913 0)
(7.63482 -0.11128 0)
(7.64194 -0.114911 0)
(7.6485 -0.118821 0)
(7.65448 -0.123019 0)
(7.65988 -0.127504 0)
(7.6647 -0.132267 0)
(7.66893 -0.137287 0)
(7.67255 -0.142543 0)
(7.67557 -0.147975 0)
(7.33337 -0.00543565 0)
(7.33722 -0.0161581 0)
(7.34537 -0.0264461 0)
(7.35678 -0.0361673 0)
(7.37053 -0.0452357 0)
(7.38603 -0.0535849 0)
(7.4027 -0.0611719 0)
(7.42 -0.067983 0)
(7.43753 -0.0740315 0)
(7.45496 -0.0793538 0)
(7.47205 -0.0840056 0)
(7.48862 -0.0880568 0)
(7.50455 -0.0915865 0)
(7.51977 -0.0946788 0)
(7.53423 -0.0974189 0)
(7.54791 -0.0998904 0)
(7.5608 -0.102174 0)
(7.57293 -0.104343 0)
(7.5843 -0.106468 0)
(7.59495 -0.108611 0)
(7.60489 -0.110827 0)
(7.61416 -0.113165 0)
(7.62277 -0.115667 0)
(7.63075 -0.118366 0)
(7.63811 -0.12129 0)
(7.64486 -0.124456 0)
(7.65102 -0.127878 0)
(7.6566 -0.131557 0)
(7.66159 -0.13549 0)
(7.666 -0.139664 0)
(7.66983 -0.144057 0)
(7.67307 -0.148645 0)
(7.67575 -0.153375 0)
(7.33338 -0.00695422 0)
(7.33738 -0.0206153 0)
(7.34584 -0.0335214 0)
(7.35767 -0.045419 0)
(7.37191 -0.0561896 0)
(7.38795 -0.0657786 0)
(7.40518 -0.0741829 0)
(7.42307 -0.0814484 0)
(7.44117 -0.0876547 0)
(7.45915 -0.0929014 0)
(7.47676 -0.0973004 0)
(7.49379 -0.100969 0)
(7.51014 -0.104024 0)
(7.5257 -0.106581 0)
(7.54044 -0.108746 0)
(7.55432 -0.110622 0)
(7.56736 -0.112301 0)
(7.57956 -0.113866 0)
(7.59093 -0.11539 0)
(7.60152 -0.11694 0)
(7.61135 -0.118571 0)
(7.62045 -0.120331 0)
(7.62884 -0.122259 0)
(7.63655 -0.124387 0)
(7.64362 -0.126738 0)
(7.65005 -0.129327 0)
(7.65586 -0.132161 0)
(7.66108 -0.135242 0)
(7.66571 -0.138561 0)
(7.66977 -0.142106 0)
(7.67327 -0.145853 0)
(7.67621 -0.14978 0)
(7.67865 -0.153838 0)
(7.33341 -0.00860548 0)
(7.33771 -0.0254852 0)
(7.34678 -0.0413091 0)
(7.35944 -0.0557258 0)
(7.37464 -0.0686042 0)
(7.39169 -0.0798986 0)
(7.40995 -0.0896237 0)
(7.42883 -0.0978555 0)
(7.44785 -0.104712 0)
(7.46666 -0.110336 0)
(7.48499 -0.114882 0)
(7.50265 -0.118508 0)
(7.51951 -0.121372 0)
(7.53549 -0.123621 0)
(7.55055 -0.125393 0)
(7.56467 -0.126814 0)
(7.57785 -0.127993 0)
(7.59011 -0.12903 0)
(7.60148 -0.130011 0)
(7.612 -0.131006 0)
(7.6217 -0.132078 0)
(7.63061 -0.133275 0)
(7.63877 -0.134639 0)
(7.64621 -0.1362 0)
(7.65297 -0.137979 0)
(7.65907 -0.139989 0)
(7.66455 -0.142236 0)
(7.66941 -0.144719 0)
(7.67369 -0.147428 0)
(7.6774 -0.150349 0)
(7.68057 -0.15346 0)
(7.6832 -0.156739 0)
(7.68534 -0.16014 0)
(7.33345 -0.0104342 0)
(7.33811 -0.0308086 0)
(7.34795 -0.049634 0)
(7.3616 -0.0664012 0)
(7.37789 -0.0809726 0)
(7.3961 -0.0933622 0)
(7.41554 -0.103677 0)
(7.43557 -0.112097 0)
(7.45569 -0.118838 0)
(7.47553 -0.124122 0)
(7.49479 -0.128168 0)
(7.51327 -0.131183 0)
(7.53083 -0.133361 0)
(7.5474 -0.134878 0)
(7.56293 -0.135892 0)
(7.5774 -0.136541 0)
(7.59084 -0.136949 0)
(7.60326 -0.137221 0)
(7.61471 -0.137446 0)
(7.62522 -0.1377 0)
(7.63484 -0.138046 0)
(7.64361 -0.138533 0)
(7.65158 -0.139201 0)
(7.6588 -0.14008 0)
(7.66529 -0.141188 0)
(7.67111 -0.142538 0)
(7.67627 -0.144135 0)
(7.68083 -0.145975 0)
(7.6848 -0.148049 0)
(7.68821 -0.150343 0)
(7.6911 -0.152837 0)
(7.69349 -0.15551 0)
(7.69544 -0.158321 0)
(7.33353 -0.0125607 0)
(7.33893 -0.0371373 0)
(7.35022 -0.0598304 0)
(7.36573 -0.0800119 0)
(7.384 -0.0975051 0)
(7.40419 -0.112274 0)
(7.42548 -0.1244 0)
(7.44718 -0.134089 0)
(7.46876 -0.14161 0)
(7.48985 -0.147257 0)
(7.51018 -0.151322 0)
(7.52954 -0.154089 0)
(7.54782 -0.155818 0)
(7.56495 -0.15674 0)
(7.58091 -0.15706 0)
(7.5957 -0.156955 0)
(7.60933 -0.156573 0)
(7.62186 -0.156039 0)
(7.63332 -0.155459 0)
(7.64378 -0.154915 0)
(7.65328 -0.154476 0)
(7.66187 -0.154194 0)
(7.66962 -0.154109 0)
(7.67657 -0.154249 0)
(7.68277 -0.154633 0)
(7.68827 -0.155272 0)
(7.69311 -0.156167 0)
(7.69732 -0.157316 0)
(7.70095 -0.158707 0)
(7.70403 -0.160328 0)
(7.7066 -0.162156 0)
(7.70869 -0.164174 0)
(7.71033 -0.166341 0)
(7.33356 -0.0149927 0)
(7.33956 -0.043973 0)
(7.35216 -0.0699736 0)
(7.36937 -0.0922752 0)
(7.38957 -0.11094 0)
(7.41184 -0.126196 0)
(7.4353 -0.138338 0)
(7.45911 -0.147734 0)
(7.48267 -0.15476 0)
(7.50556 -0.159773 0)
(7.52748 -0.163108 0)
(7.5482 -0.165074 0)
(7.56762 -0.165951 0)
(7.58569 -0.165987 0)
(7.60238 -0.165398 0)
(7.61772 -0.164371 0)
(7.63175 -0.163067 0)
(7.64454 -0.161619 0)
(7.65615 -0.160138 0)
(7.66665 -0.158714 0)
(7.67611 -0.157417 0)
(7.6846 -0.156304 0)
(7.69218 -0.155416 0)
(7.69892 -0.154782 0)
(7.70488 -0.154421 0)
(7.71011 -0.154344 0)
(7.71467 -0.154553 0)
(7.71859 -0.155045 0)
(7.72193 -0.15581 0)
(7.72474 -0.156834 0)
(7.72705 -0.1581 0)
(7.72891 -0.159589 0)
(7.73038 -0.161261 0)
(7.33381 -0.0181806 0)
(7.34179 -0.0537889 0)
(7.35774 -0.0861199 0)
(7.37869 -0.114062 0)
(7.40241 -0.13738 0)
(7.42784 -0.156097 0)
(7.45402 -0.170518 0)
(7.48015 -0.181166 0)
(7.50568 -0.188615 0)
(7.53022 -0.193417 0)
(7.55352 -0.196086 0)
(7.5754 -0.197081 0)
(7.59576 -0.196796 0)
(7.61458 -0.195565 0)
(7.63186 -0.193666 0)
(7.64763 -0.191328 0)
(7.66196 -0.188738 0)
(7.67492 -0.186043 0)
(7.68659 -0.183364 0)
(7.69706 -0.180793 0)
(7.70639 -0.178399 0)
(7.71469 -0.176236 0)
(7.72202 -0.174343 0)
(7.72846 -0.172743 0)
(7.73408 -0.171453 0)
(7.73893 -0.170479 0)
(7.74309 -0.169823 0)
(7.7466 -0.169479 0)
(7.74952 -0.169436 0)
(7.75189 -0.169683 0)
(7.75377 -0.170199 0)
(7.7552 -0.170968 0)
(7.75622 -0.171949 0)
(7.3337 -0.0216301 0)
(7.34212 -0.0622046 0)
(7.36001 -0.0966548 0)
(7.38395 -0.12494 0)
(7.41142 -0.147968 0)
(7.44104 -0.166242 0)
(7.47144 -0.180227 0)
(7.50151 -0.190473 0)
(7.53055 -0.19751 0)
(7.55811 -0.201833 0)
(7.58391 -0.203917 0)
(7.6078 -0.204206 0)
(7.62972 -0.203095 0)
(7.6497 -0.200935 0)
(7.6678 -0.198029 0)
(7.6841 -0.194632 0)
(7.69871 -0.190955 0)
(7.71176 -0.187173 0)
(7.72335 -0.183421 0)
(7.7336 -0.179807 0)
(7.74262 -0.176412 0)
(7.75051 -0.173296 0)
(7.75738 -0.1705 0)
(7.7633 -0.168051 0)
(7.76837 -0.165966 0)
(7.77265 -0.16425 0)
(7.77621 -0.162903 0)
(7.77912 -0.161921 0)
(7.78144 -0.161292 0)
(7.78323 -0.161005 0)
(7.78454 -0.161041 0)
(7.78543 -0.161386 0)
(7.78599 -0.161994 0)
(7.33482 -0.0280051 0)
(7.34953 -0.082934 0)
(7.37521 -0.130618 0)
(7.40556 -0.16919 0)
(7.43784 -0.198986 0)
(7.47124 -0.220793 0)
(7.50468 -0.235851 0)
(7.5372 -0.245487 0)
(7.56824 -0.250836 0)
(7.59742 -0.252856 0)
(7.62448 -0.252348 0)
(7.64931 -0.249966 0)
(7.67189 -0.246233 0)
(7.69227 -0.241567 0)
(7.71056 -0.236302 0)
(7.72688 -0.230703 0)
(7.74138 -0.224977 0)
(7.7542 -0.219286 0)
(7.7655 -0.213753 0)
(7.77541 -0.208472 0)
(7.78407 -0.20351 0)
(7.7916 -0.198914 0)
(7.79811 -0.194716 0)
(7.8037 -0.190934 0)
(7.80846 -0.187576 0)
(7.81247 -0.184644 0)
(7.81581 -0.182134 0)
(7.81853 -0.180039 0)
(7.82071 -0.178351 0)
(7.8224 -0.177059 0)
(7.82365 -0.176151 0)
(7.82453 -0.175616 0)
(7.82509 -0.175406 0)
(7.3338 -0.0318003 0)
(7.34766 -0.086482 0)
(7.37779 -0.129521 0)
(7.41576 -0.165025 0)
(7.45669 -0.194254 0)
(7.49831 -0.216877 0)
(7.53874 -0.233327 0)
(7.57698 -0.244365 0)
(7.61273 -0.250732 0)
(7.64593 -0.253222 0)
(7.67662 -0.252636 0)
(7.70493 -0.249709 0)
(7.731 -0.24508 0)
(7.75498 -0.239287 0)
(7.77703 -0.232772 0)
(7.79727 -0.225883 0)
(7.81583 -0.218891 0)
(7.83283 -0.212 0)
(7.84839 -0.205361 0)
(7.8626 -0.19908 0)
(7.87556 -0.193228 0)
(7.88738 -0.187852 0)
(7.89815 -0.182977 0)
(7.90794 -0.178611 0)
(7.91683 -0.174754 0)
(7.9249 -0.171398 0)
(7.93221 -0.16853 0)
(7.93882 -0.166138 0)
(7.94479 -0.164211 0)
(7.95017 -0.162743 0)
(7.95505 -0.161733 0)
(7.95948 -0.161181 0)
(7.96359 -0.161056 0)
(7.33892 -0.054332 0)
(7.37188 -0.151415 0)
(7.41452 -0.220514 0)
(7.45792 -0.2673 0)
(7.5042 -0.297949 0)
(7.55425 -0.31643 0)
(7.60653 -0.326446 0)
(7.65992 -0.330689 0)
(7.71353 -0.33086 0)
(7.76633 -0.328123 0)
(7.81742 -0.323296 0)
(7.86613 -0.316959 0)
(7.91199 -0.309549 0)
(7.95471 -0.30141 0)
(7.99413 -0.29282 0)
(8.03023 -0.284012 0)
(8.06308 -0.275179 0)
(8.09281 -0.26648 0)
(8.1196 -0.258044 0)
(8.14365 -0.249971 0)
(8.16517 -0.242334 0)
(8.18438 -0.235185 0)
(8.20148 -0.228556 0)
(8.21666 -0.222466 0)
(8.2301 -0.216919 0)
(8.24195 -0.211912 0)
(8.25237 -0.207438 0)
(8.26147 -0.203491 0)
(8.26937 -0.200072 0)
(8.27615 -0.197184 0)
(8.28192 -0.194879 0)
(8.28677 -0.193157 0)
(8.29089 -0.192191 0)
(7.33755 -0.0403611 0)
(7.38843 -0.105615 0)
(7.4775 -0.163269 0)
(7.57887 -0.218911 0)
(7.68644 -0.266272 0)
(7.79506 -0.303005 0)
(7.89874 -0.329758 0)
(7.99399 -0.347229 0)
(8.07885 -0.356507 0)
(8.15227 -0.359062 0)
(8.21403 -0.356366 0)
(8.26456 -0.34974 0)
(8.30463 -0.340324 0)
(8.33525 -0.329062 0)
(8.3575 -0.316705 0)
(8.37247 -0.303838 0)
(8.38122 -0.290904 0)
(8.3847 -0.278229 0)
(8.38376 -0.266043 0)
(8.37915 -0.254502 0)
(8.37151 -0.243703 0)
(8.36139 -0.233697 0)
(8.34925 -0.224501 0)
(8.33547 -0.216106 0)
(8.32035 -0.208487 0)
(8.30416 -0.201603 0)
(8.2871 -0.195409 0)
(8.26929 -0.189857 0)
(8.25087 -0.184915 0)
(8.23185 -0.180556 0)
(8.21236 -0.176871 0)
(8.19211 -0.173817 0)
(8.17176 -0.172339 0)
(7.39945 -0.196802 0)
(7.59548 -0.376159 0)
(7.76796 -0.459109 0)
(7.89475 -0.512999 0)
(7.97787 -0.541677 0)
(8.01542 -0.550989 0)
(8.01165 -0.547571 0)
(7.97497 -0.534784 0)
(7.91303 -0.515142 0)
(7.83245 -0.490917 0)
(7.739 -0.463911 0)
(7.63743 -0.435525 0)
(7.53145 -0.406845 0)
(7.42389 -0.378682 0)
(7.31684 -0.351609 0)
(7.21178 -0.326011 0)
(7.10975 -0.302116 0)
(7.01138 -0.280038 0)
(6.91707 -0.259806 0)
(6.82697 -0.241388 0)
(6.74112 -0.224711 0)
(6.65945 -0.209675 0)
(6.58181 -0.196164 0)
(6.50801 -0.184052 0)
(6.43783 -0.173209 0)
(6.37106 -0.163503 0)
(6.30744 -0.154793 0)
(6.24672 -0.146951 0)
(6.18865 -0.139814 0)
(6.13284 -0.133242 0)
(6.07896 -0.12713 0)
(6.02598 -0.120707 0)
(5.97433 -0.117271 0)
(7.16012 -0.185913 0)
(6.91089 -0.345262 0)
(6.49964 -0.392634 0)
(6.03584 -0.394154 0)
(5.59557 -0.366089 0)
(5.1791 -0.322267 0)
(4.7905 -0.273608 0)
(4.43655 -0.225737 0)
(4.1178 -0.181641 0)
(3.83257 -0.142799 0)
(3.57883 -0.109611 0)
(3.354 -0.0818839 0)
(3.15523 -0.0591349 0)
(2.97971 -0.0407402 0)
(2.82475 -0.026046 0)
(2.68787 -0.0144347 0)
(2.56679 -0.00535513 0)
(2.45948 0.00166716 0)
(2.36414 0.00703044 0)
(2.27917 0.0110635 0)
(2.20319 0.0140348 0)
(2.13498 0.0161624 0)
(2.07349 0.0176236 0)
(2.01782 0.0185628 0)
(1.96719 0.0191038 0)
(1.92095 0.0193533 0)
(1.8785 0.0194293 0)
(1.83948 0.0194512 0)
(1.80338 0.0196372 0)
(1.77037 0.0202888 0)
(1.73957 0.0217266 0)
(1.71295 0.0264783 0)
(1.6886 0.0217756 0)
(0.993902 0.119895 0)
(1.73092 0.659357 0)
(2.84459 1.01077 0)
(3.79044 1.02435 0)
(4.4451 0.734835 0)
(4.8198 0.272896 0)
(4.91447 -0.207837 0)
(4.79639 -0.594159 0)
(4.6573 -0.87207 0)
(4.68636 -1.12241 0)
(4.92917 -1.43074 0)
(5.26951 -1.79979 0)
(5.5156 -2.1142 0)