/*--------------------------------*- C++ -*----------------------------------*\
  =========                 |
  \\      /  F ield         | OpenFOAM: The Open Source CFD Toolbox
   \\    /   O peration     | Website:  https://openfoam.org
    \\  /    A nd           | Version:  10
     \\/     M anipulation  |
\*---------------------------------------------------------------------------*/
FoamFile
{
    format      ascii;
    class       volScalarField;
    location    "0.17";
    object      nut;
}
// * * * * * * * * * * * * * * * * * * * * * * * * * * * * * * * * * * * * * //

dimensions      [0 2 -1 0 0 0 0];

internalField   nonuniform List<scalar> 
6820
(
0.000503209
0.000397054
0.000324443
0.000269234
0.000236292
0.000213824
0.00019712
0.00018431
0.000173931
0.000165189
0.000157634
0.000150973
0.000145008
0.0001396
0.000134649
0.000130075
0.000125822
0.00012184
0.000118094
0.000114552
0.00011119
0.000107985
0.000104921
0.000101982
9.91546e-05
9.64288e-05
9.37932e-05
9.12483e-05
8.87689e-05
8.64166e-05
8.40437e-05
8.19615e-05
7.91707e-05
8.18571e-05
0.000143739
0.000196438
0.00021085
0.000206411
0.000197535
0.000187254
0.000177329
0.000168349
0.000160299
0.000153076
0.000146563
0.000140652
0.000135253
0.000130292
0.000125711
0.000121459
0.000117494
0.000113782
0.000110293
0.000107001
0.000103884
0.000100925
9.81083e-05
9.5419e-05
9.28451e-05
9.0377e-05
8.8e-05
8.57159e-05
8.34754e-05
8.13417e-05
7.90682e-05
7.72112e-05
3.85886e-05
2.73849e-05
4.30745e-05
7.45231e-05
9.59562e-05
0.000109338
0.000116601
0.000119911
0.000120848
0.000120316
0.000118873
0.000116873
0.000114536
0.000112008
0.000109381
0.000106717
0.000104055
0.000101424
9.88413e-05
9.63176e-05
9.38599e-05
9.14721e-05
8.91557e-05
8.69107e-05
8.47362e-05
8.26301e-05
8.05895e-05
7.86101e-05
7.66865e-05
7.48034e-05
7.29547e-05
7.10554e-05
6.92156e-05
1.99676e-05
2.3521e-05
2.20544e-05
1.27541e-05
2.90074e-06
1.25052e-05
2.30671e-05
3.17619e-05
3.87739e-05
4.43552e-05
4.87469e-05
5.21627e-05
5.47763e-05
5.67262e-05
5.81329e-05
5.9095e-05
5.96932e-05
5.99937e-05
6.00512e-05
5.99109e-05
5.96096e-05
5.91781e-05
5.86416e-05
5.80209e-05
5.73331e-05
5.6592e-05
5.58088e-05
5.49911e-05
5.41447e-05
5.32699e-05
5.23667e-05
5.1441e-05
5.05217e-05
1.32461e-05
1.50744e-05
1.99259e-05
2.20218e-05
2.14662e-05
1.95114e-05
1.68659e-05
1.38972e-05
1.08224e-05
7.77085e-06
4.82703e-06
2.06669e-06
8.00589e-07
3.05436e-06
5.22158e-06
7.18919e-06
8.95702e-06
1.05344e-05
1.19337e-05
1.31686e-05
1.42531e-05
1.5201e-05
1.60255e-05
1.67389e-05
1.73526e-05
1.7877e-05
1.83211e-05
1.86927e-05
1.89982e-05
1.92437e-05
1.94354e-05
1.95933e-05
1.97418e-05
1.01935e-05
1.10139e-05
1.18392e-05
1.26445e-05
1.32868e-05
1.38366e-05
1.42376e-05
1.44548e-05
1.44999e-05
1.43943e-05
1.41598e-05
1.38191e-05
1.33931e-05
1.28965e-05
1.23484e-05
1.17646e-05
1.11585e-05
1.05415e-05
9.92244e-06
9.30857e-06
8.70526e-06
8.11653e-06
7.54521e-06
6.99326e-06
6.46187e-06
5.95184e-06
5.46337e-06
4.99684e-06
4.55103e-06
4.12482e-06
3.71221e-06
3.29658e-06
2.86282e-06
7.53931e-06
8.24664e-06
8.66858e-06
8.90394e-06
8.80377e-06
8.60528e-06
8.45122e-06
8.37214e-06
8.36104e-06
8.39306e-06
8.44098e-06
8.48599e-06
8.51877e-06
8.53692e-06
8.53708e-06
8.51794e-06
8.47974e-06
8.42351e-06
8.35071e-06
8.263e-06
8.16211e-06
8.04978e-06
7.9277e-06
7.79749e-06
7.66062e-06
7.5185e-06
7.37215e-06
7.22255e-06
7.06936e-06
6.91167e-06
6.74525e-06
6.56369e-06
6.35818e-06
5.75812e-06
6.60977e-06
7.00348e-06
7.11462e-06
6.86379e-06
6.50463e-06
6.17756e-06
5.90676e-06
5.6907e-06
5.52022e-06
5.38329e-06
5.27022e-06
5.17384e-06
5.08895e-06
5.01208e-06
4.94082e-06
4.8732e-06
4.80761e-06
4.74282e-06
4.67797e-06
4.61245e-06
4.54589e-06
4.47808e-06
4.40893e-06
4.3384e-06
4.26651e-06
4.19306e-06
4.11772e-06
4.03932e-06
3.95608e-06
3.86426e-06
3.75979e-06
3.63432e-06
4.48549e-06
5.24908e-06
5.54188e-06
5.69385e-06
5.61214e-06
5.40527e-06
5.16318e-06
4.91989e-06
4.69469e-06
4.49552e-06
4.32075e-06
4.16606e-06
4.02752e-06
3.90187e-06
3.78651e-06
3.67931e-06
3.5786e-06
3.48313e-06
3.39193e-06
3.30422e-06
3.21936e-06
3.13683e-06
3.05614e-06
2.97688e-06
2.89859e-06
2.82076e-06
2.74268e-06
2.66338e-06
2.58125e-06
2.49409e-06
2.39863e-06
2.29149e-06
2.16635e-06
3.55794e-06
4.24139e-06
4.51732e-06
4.67812e-06
4.6436e-06
4.48344e-06
4.2846e-06
4.08537e-06
3.90212e-06
3.73946e-06
3.59489e-06
3.46462e-06
3.34566e-06
3.23569e-06
3.1329e-06
3.036e-06
2.94402e-06
2.85617e-06
2.77179e-06
2.6903e-06
2.61121e-06
2.53404e-06
2.45835e-06
2.38371e-06
2.30961e-06
2.23544e-06
2.16038e-06
2.08333e-06
2.00275e-06
1.91658e-06
1.82219e-06
1.71713e-06
1.59602e-06
2.86913e-06
3.4662e-06
3.72197e-06
3.8694e-06
3.86952e-06
3.76538e-06
3.62027e-06
3.46392e-06
3.31066e-06
3.16768e-06
3.03657e-06
2.91662e-06
2.80664e-06
2.70524e-06
2.6111e-06
2.52305e-06
2.44008e-06
2.36132e-06
2.28603e-06
2.21356e-06
2.14339e-06
2.075e-06
2.00791e-06
1.94164e-06
1.87561e-06
1.80917e-06
1.74148e-06
1.67146e-06
1.59775e-06
1.5187e-06
1.43236e-06
1.33742e-06
1.22956e-06
2.34428e-06
2.86086e-06
3.11285e-06
3.26347e-06
3.29468e-06
3.22832e-06
3.11289e-06
2.97847e-06
2.84193e-06
2.71238e-06
2.59271e-06
2.48292e-06
2.3821e-06
2.28911e-06
2.20275e-06
2.12199e-06
2.04595e-06
1.97389e-06
1.90515e-06
1.83917e-06
1.77543e-06
1.71343e-06
1.65269e-06
1.59271e-06
1.53291e-06
1.47266e-06
1.41118e-06
1.34759e-06
1.28083e-06
1.20983e-06
1.13347e-06
1.05188e-06
9.62322e-07
1.93475e-06
2.38317e-06
2.63521e-06
2.78784e-06
2.83799e-06
2.80065e-06
2.71424e-06
2.60585e-06
2.49082e-06
2.37763e-06
2.26993e-06
2.16887e-06
2.0746e-06
1.98682e-06
1.90493e-06
1.82831e-06
1.75631e-06
1.68833e-06
1.62378e-06
1.56212e-06
1.50287e-06
1.44552e-06
1.3896e-06
1.33462e-06
1.28008e-06
1.22541e-06
1.17002e-06
1.11329e-06
1.05465e-06
9.93739e-07
9.30448e-07
8.66404e-07
8.00922e-07
1.60772e-06
2.00099e-06
2.2549e-06
2.41377e-06
2.48171e-06
2.46987e-06
2.40754e-06
2.31874e-06
2.21858e-06
2.11629e-06
2.01675e-06
1.92218e-06
1.83342e-06
1.75054e-06
1.6732e-06
1.60092e-06
1.53314e-06
1.46932e-06
1.40895e-06
1.35154e-06
1.29663e-06
1.2438e-06
1.19263e-06
1.1427e-06
1.09361e-06
1.04499e-06
9.96486e-07
9.47876e-07
8.99127e-07
8.50661e-07
8.03375e-07
7.60102e-07
7.21752e-07
1.34074e-06
1.69183e-06
1.94859e-06
2.11546e-06
2.19772e-06
2.20562e-06
2.16287e-06
2.09133e-06
2.00568e-06
1.91511e-06
1.82483e-06
1.73751e-06
1.65446e-06
1.57616e-06
1.50264e-06
1.4337e-06
1.36902e-06
1.30822e-06
1.25093e-06
1.19676e-06
1.14533e-06
1.0963e-06
1.04933e-06
1.00413e-06
9.60453e-07
9.18125e-07
8.77096e-07
8.37532e-07
7.99903e-07
7.65234e-07
7.35052e-07
7.12535e-07
6.98919e-07
1.11813e-06
1.439e-06
1.69935e-06
1.87545e-06
1.97095e-06
1.99627e-06
1.97111e-06
1.91495e-06
1.84177e-06
1.76075e-06
1.67758e-06
1.59559e-06
1.51668e-06
1.44176e-06
1.37122e-06
1.30507e-06
1.24315e-06
1.18521e-06
1.13096e-06
1.08007e-06
1.03226e-06
9.8725e-07
9.4482e-07
9.04796e-07
8.67092e-07
8.3174e-07
7.98944e-07
7.69164e-07
7.43178e-07
7.22249e-07
7.07969e-07
7.03033e-07
7.08163e-07
9.28752e-07
1.23031e-06
1.49537e-06
1.68133e-06
1.78911e-06
1.82941e-06
1.8193e-06
1.77644e-06
1.71431e-06
1.64213e-06
1.56592e-06
1.48941e-06
1.41485e-06
1.34349e-06
1.27594e-06
1.21244e-06
1.15301e-06
1.09755e-06
1.04589e-06
9.9782e-07
9.53169e-07
9.11767e-07
8.73496e-07
8.3831e-07
8.0626e-07
7.7753e-07
7.52475e-07
7.31675e-07
7.15953e-07
7.06454e-07
7.04428e-07
7.11774e-07
7.28564e-07
7.64543e-07
1.05693e-06
1.32821e-06
1.52424e-06
1.64368e-06
1.69745e-06
1.70098e-06
1.67035e-06
1.61845e-06
1.55443e-06
1.48451e-06
1.41281e-06
1.34195e-06
1.27351e-06
1.20841e-06
1.14714e-06
1.08989e-06
1.0367e-06
9.8751e-07
9.42228e-07
9.00757e-07
8.63005e-07
8.28937e-07
7.98588e-07
7.72082e-07
7.49659e-07
7.31697e-07
7.1873e-07
7.11432e-07
7.10641e-07
7.17158e-07
7.32153e-07
7.55281e-07
6.1974e-07
9.12744e-07
1.19194e-06
1.39797e-06
1.52848e-06
1.59447e-06
1.61023e-06
1.59056e-06
1.54782e-06
1.49112e-06
1.42688e-06
1.35954e-06
1.29202e-06
1.22621e-06
1.16328e-06
1.1039e-06
1.04842e-06
9.97028e-07
9.49776e-07
9.06667e-07
8.67665e-07
8.32767e-07
8.01994e-07
7.75421e-07
7.53188e-07
7.35517e-07
7.22718e-07
7.15185e-07
7.13375e-07
7.17809e-07
7.28907e-07
7.47336e-07
7.72528e-07
4.90583e-07
7.94105e-07
1.08275e-06
1.29843e-06
1.43937e-06
1.5166e-06
1.5436e-06
1.53415e-06
1.50012e-06
1.45053e-06
1.39193e-06
1.329e-06
1.26491e-06
1.20186e-06
1.1412e-06
1.08378e-06
1.03015e-06
9.80588e-07
9.35258e-07
8.94229e-07
8.57535e-07
8.25208e-07
7.97289e-07
7.73847e-07
7.5499e-07
7.40874e-07
7.31694e-07
7.27684e-07
7.29085e-07
7.36158e-07
7.49053e-07
7.68091e-07
7.92645e-07
3.75649e-07
6.99493e-07
9.98277e-07
1.22287e-06
1.37341e-06
1.46081e-06
1.49786e-06
1.49755e-06
1.47117e-06
1.42765e-06
1.37366e-06
1.31409e-06
1.25243e-06
1.19102e-06
1.13148e-06
1.07489e-06
1.02192e-06
9.72977e-07
9.28305e-07
8.88044e-07
8.52275e-07
8.21041e-07
7.94378e-07
7.7233e-07
7.54952e-07
7.42318e-07
7.3451e-07
7.31621e-07
7.3373e-07
7.40912e-07
7.53149e-07
7.70554e-07
7.92498e-07
2.78346e-07
6.30029e-07
9.37821e-07
1.17014e-06
1.32943e-06
1.42627e-06
1.47282e-06
1.48141e-06
1.4628e-06
1.42578e-06
1.3771e-06
1.32177e-06
1.26343e-06
1.20462e-06
1.14713e-06
1.09216e-06
1.04048e-06
9.92599e-07
9.48834e-07
9.09369e-07
8.7431e-07
8.43711e-07
8.17601e-07
7.95995e-07
7.789e-07
7.6632e-07
7.58254e-07
7.5469e-07
7.55601e-07
7.60945e-07
7.70606e-07
7.84567e-07
8.02268e-07
2.12858e-07
5.88468e-07
9.01553e-07
1.13957e-06
1.30608e-06
1.41085e-06
1.46531e-06
1.48083e-06
1.4679e-06
1.43519e-06
1.38947e-06
1.33594e-06
1.27846e-06
1.21983e-06
1.162e-06
1.10633e-06
1.05374e-06
1.00482e-06
9.59938e-07
9.19326e-07
8.83094e-07
8.51292e-07
8.23923e-07
8.00962e-07
7.82365e-07
7.68077e-07
7.58028e-07
7.52138e-07
7.50306e-07
7.52425e-07
7.58329e-07
7.67934e-07
7.80745e-07
2.08164e-07
5.78291e-07
8.90621e-07
1.13232e-06
1.30532e-06
1.41807e-06
1.48103e-06
1.50486e-06
1.49954e-06
1.47342e-06
1.43321e-06
1.38411e-06
1.33002e-06
1.27384e-06
1.21763e-06
1.16285e-06
1.11052e-06
1.06132e-06
1.01568e-06
9.73887e-07
9.36085e-07
9.02348e-07
8.72688e-07
8.47079e-07
8.25465e-07
8.07772e-07
7.93907e-07
7.83765e-07
7.77221e-07
7.74145e-07
7.74366e-07
7.77772e-07
7.83967e-07
2.71686e-07
6.02662e-07
9.0629e-07
1.14814e-06
1.32469e-06
1.44201e-06
1.50933e-06
1.53675e-06
1.53382e-06
1.50891e-06
1.46885e-06
1.41904e-06
1.3636e-06
1.3056e-06
1.24724e-06
1.19009e-06
1.13523e-06
1.08337e-06
1.03495e-06
9.90237e-07
9.49373e-07
9.124e-07
8.793e-07
8.50016e-07
8.24467e-07
8.02551e-07
7.84156e-07
7.69164e-07
7.57448e-07
7.48881e-07
7.43309e-07
7.40635e-07
7.40535e-07
3.77833e-07
6.61952e-07
9.51437e-07
1.19265e-06
1.37444e-06
1.49992e-06
1.57675e-06
1.61387e-06
1.62003e-06
1.60301e-06
1.56935e-06
1.52432e-06
1.47206e-06
1.41575e-06
1.35774e-06
1.29977e-06
1.24308e-06
1.18853e-06
1.1367e-06
1.08795e-06
1.04249e-06
1.00043e-06
9.61797e-07
9.2655e-07
8.94629e-07
8.65945e-07
8.404e-07
8.17887e-07
7.98296e-07
7.8152e-07
7.67439e-07
7.55982e-07
7.46911e-07
5.10326e-07
7.54467e-07
1.02506e-06
1.25987e-06
1.43916e-06
1.56276e-06
1.63723e-06
1.67135e-06
1.67408e-06
1.65346e-06
1.61622e-06
1.56777e-06
1.51229e-06
1.45291e-06
1.39194e-06
1.33103e-06
1.27133e-06
1.21362e-06
1.1584e-06
1.106e-06
1.05657e-06
1.01018e-06
9.66836e-07
9.26497e-07
8.89092e-07
8.54537e-07
8.22745e-07
7.93634e-07
7.67126e-07
7.43157e-07
7.21661e-07
7.02634e-07
6.85878e-07
6.65986e-07
8.8139e-07
1.13689e-06
1.37277e-06
1.56226e-06
1.70061e-06
1.79123e-06
1.84062e-06
1.85624e-06
1.84534e-06
1.81448e-06
1.76924e-06
1.71418e-06
1.65291e-06
1.5882e-06
1.52211e-06
1.45614e-06
1.39135e-06
1.32846e-06
1.2679e-06
1.20994e-06
1.15471e-06
1.10225e-06
1.05252e-06
1.00546e-06
9.6098e-07
9.18995e-07
8.79417e-07
8.42169e-07
8.07192e-07
7.74428e-07
7.43906e-07
7.15423e-07
8.47676e-07
1.0419e-06
1.27552e-06
1.49416e-06
1.66666e-06
1.78766e-06
1.862e-06
1.89771e-06
1.90298e-06
1.88504e-06
1.84993e-06
1.80252e-06
1.74662e-06
1.68519e-06
1.62046e-06
1.55413e-06
1.48743e-06
1.42129e-06
1.35634e-06
1.29302e-06
1.23161e-06
1.17228e-06
1.11511e-06
1.0601e-06
1.00724e-06
9.56485e-07
9.07771e-07
8.61049e-07
8.16276e-07
7.73432e-07
7.32488e-07
6.93544e-07
6.56283e-07
1.06144e-06
1.24689e-06
1.48162e-06
1.72331e-06
1.93169e-06
2.09028e-06
2.19655e-06
2.25518e-06
2.27373e-06
2.26045e-06
2.2231e-06
2.16841e-06
2.10184e-06
2.02768e-06
1.94911e-06
1.8685e-06
1.78748e-06
1.70719e-06
1.62838e-06
1.55151e-06
1.47682e-06
1.40444e-06
1.3344e-06
1.26665e-06
1.20113e-06
1.13775e-06
1.07641e-06
1.01705e-06
9.59573e-07
9.03929e-07
8.50046e-07
7.97982e-07
7.47301e-07
1.31846e-06
1.49237e-06
1.68642e-06
1.87182e-06
2.02102e-06
2.12957e-06
2.20158e-06
2.24247e-06
2.25689e-06
2.24884e-06
2.2221e-06
2.18017e-06
2.12628e-06
2.06333e-06
1.99386e-06
1.91997e-06
1.84342e-06
1.76556e-06
1.68746e-06
1.60988e-06
1.53336e-06
1.45826e-06
1.38478e-06
1.31305e-06
1.2431e-06
1.17493e-06
1.1085e-06
1.04379e-06
9.80762e-07
9.19412e-07
8.59696e-07
8.01805e-07
7.44926e-07
1.63099e-06
1.82678e-06
2.08701e-06
2.38289e-06
2.64121e-06
2.82596e-06
2.93557e-06
2.98216e-06
2.97991e-06
2.94192e-06
2.87912e-06
2.79983e-06
2.7101e-06
2.61413e-06
2.51482e-06
2.4141e-06
2.31328e-06
2.21322e-06
2.11447e-06
2.01742e-06
1.9223e-06
1.82925e-06
1.73833e-06
1.64957e-06
1.56295e-06
1.47845e-06
1.39603e-06
1.31567e-06
1.23735e-06
1.16106e-06
1.0868e-06
1.01466e-06
9.4401e-07
2.02955e-06
2.18237e-06
2.27962e-06
2.38008e-06
2.49234e-06
2.60821e-06
2.71507e-06
2.80119e-06
2.85849e-06
2.88392e-06
2.87875e-06
2.84675e-06
2.79276e-06
2.72173e-06
2.63819e-06
2.546e-06
2.44824e-06
2.34734e-06
2.2451e-06
2.14282e-06
2.0414e-06
1.94147e-06
1.84339e-06
1.7474e-06
1.65359e-06
1.56201e-06
1.47268e-06
1.38561e-06
1.30084e-06
1.21851e-06
1.13868e-06
1.06193e-06
9.86941e-07
2.53396e-06
2.86345e-06
3.31004e-06
3.75304e-06
4.04976e-06
4.18997e-06
4.22075e-06
4.18293e-06
4.10298e-06
3.99806e-06
3.87837e-06
3.7494e-06
3.6143e-06
3.47512e-06
3.33342e-06
3.19058e-06
3.04789e-06
2.9065e-06
2.76742e-06
2.63148e-06
2.49932e-06
2.37139e-06
2.24795e-06
2.12915e-06
2.015e-06
1.90543e-06
1.80031e-06
1.69953e-06
1.60299e-06
1.51065e-06
1.42255e-06
1.33919e-06
1.25973e-06
3.24153e-06
3.17005e-06
2.92433e-06
2.90948e-06
3.12102e-06
3.411e-06
3.67416e-06
3.86403e-06
3.97094e-06
4.00654e-06
3.99056e-06
3.94235e-06
3.8775e-06
3.80719e-06
3.73844e-06
3.675e-06
3.61829e-06
3.56831e-06
3.52429e-06
3.48512e-06
3.44964e-06
3.41677e-06
3.38559e-06
3.35534e-06
3.3254e-06
3.29529e-06
3.26462e-06
3.23312e-06
3.20069e-06
3.16743e-06
3.13359e-06
3.10103e-06
3.06763e-06
4.2834e-06
5.53966e-06
6.32088e-06
6.58617e-06
6.50012e-06
6.29465e-06
6.15874e-06
6.17534e-06
6.35168e-06
6.65054e-06
7.01998e-06
7.41383e-06
7.7983e-06
8.1515e-06
8.46114e-06
8.72179e-06
8.93258e-06
9.09542e-06
9.21375e-06
9.29179e-06
9.33399e-06
9.34471e-06
9.32803e-06
9.28764e-06
9.22677e-06
9.14816e-06
9.05413e-06
8.94641e-06
8.82664e-06
8.69553e-06
8.55512e-06
8.40638e-06
8.25267e-06
5.61358e-06
3.57586e-06
2.78815e-06
4.6642e-06
7.38226e-06
9.94729e-06
1.21258e-05
1.38537e-05
1.51435e-05
1.60368e-05
1.65807e-05
1.68235e-05
1.68132e-05
1.65947e-05
1.6209e-05
1.56928e-05
1.50775e-05
1.43902e-05
1.36534e-05
1.28858e-05
1.2102e-05
1.13138e-05
1.05303e-05
9.75831e-06
9.00261e-06
8.26645e-06
7.55179e-06
6.85891e-06
6.18805e-06
5.53556e-06
4.90437e-06
4.28042e-06
3.6864e-06
1.14345e-05
1.65279e-05
1.82999e-05
1.98121e-05
2.02814e-05
1.95313e-05
1.77845e-05
1.53163e-05
1.24844e-05
9.8346e-06
8.26104e-06
8.68468e-06
1.08307e-05
1.37417e-05
1.68333e-05
1.98492e-05
2.26784e-05
2.52743e-05
2.76212e-05
2.97197e-05
3.15793e-05
3.3214e-05
3.46403e-05
3.58752e-05
3.69354e-05
3.78374e-05
3.85966e-05
3.9228e-05
3.97467e-05
4.01678e-05
4.05117e-05
4.07972e-05
4.10752e-05
2.48739e-05
2.86554e-05
3.90047e-05
5.34418e-05
6.77025e-05
8.16255e-05
9.44769e-05
0.000105652
0.000115103
0.000122909
0.000129174
0.000134053
0.000137715
0.000140324
0.000142032
0.000142976
0.000143279
0.000143048
0.000142374
0.000141337
0.000140005
0.000138432
0.000136668
0.000134752
0.000132716
0.000130588
0.00012839
0.000126138
0.00012385
0.000121526
0.000119187
0.00011684
0.0001147
0.00054331
0.000510569
0.000491598
0.000467909
0.000443885
0.000421544
0.000400044
0.000379451
0.000360032
0.000341805
0.000324756
0.000308871
0.000294106
0.000280398
0.000267677
0.000255871
0.000244903
0.000234702
0.000225198
0.000216326
0.000208025
0.000200242
0.000192926
0.000186033
0.000179522
0.000173358
0.000167506
0.000161939
0.00015661
0.000151528
0.000146519
0.000142155
0.000138111
7.19487e-05
6.86947e-05
6.72857e-05
6.82154e-05
7.06222e-05
7.30889e-05
7.22337e-05
6.54723e-05
6.03751e-05
5.99486e-05
5.94908e-05
5.63576e-05
5.03722e-05
4.32933e-05
3.75349e-05
3.22249e-05
2.80053e-05
2.90563e-05
3.50532e-05
4.0826e-05
4.04081e-05
3.99641e-05
4.1561e-05
3.98405e-05
3.52809e-05
3.10003e-05
2.93473e-05
2.96867e-05
2.93117e-05
2.81461e-05
2.65704e-05
2.39392e-05
2.00807e-05
1.55778e-05
1.08989e-05
6.53052e-06
5.40412e-06
9.86914e-06
1.51578e-05
1.88594e-05
2.07029e-05
2.18133e-05
2.29272e-05
2.36878e-05
2.34079e-05
2.19284e-05
1.98338e-05
1.78309e-05
1.6177e-05
1.47728e-05
1.34897e-05
1.22938e-05
1.12148e-05
1.03074e-05
9.65952e-06
9.33563e-06
9.26937e-06
9.57135e-06
1.09745e-05
1.39711e-05
2.18278e-05
3.53679e-05
4.5405e-05
4.69161e-05
4.25966e-05
3.61735e-05
2.87709e-05
2.0781e-05
1.31887e-05
7.70274e-06
8.93683e-06
1.63707e-05
2.74278e-05
3.97356e-05
4.75681e-05
4.67473e-05
3.87806e-05
2.86565e-05
2.04181e-05
1.51594e-05
1.20123e-05
9.94399e-06
8.39908e-06
7.17591e-06
6.25975e-06
5.69256e-06
5.52183e-06
5.81167e-06
6.66813e-06
8.46156e-06
1.23033e-05
1.95737e-05
2.96841e-05
3.87552e-05
4.24519e-05
3.97234e-05
3.00847e-05
1.8704e-05
1.84182e-05
2.05313e-05
9.81053e-05
9.46886e-05
9.17181e-05
9.023e-05
9.05695e-05
9.25799e-05
9.47965e-05
9.24573e-05
8.13957e-05
6.9364e-05
6.20742e-05
5.55365e-05
4.68767e-05
3.71389e-05
2.8001e-05
2.03031e-05
2.04203e-05
2.89872e-05
3.89835e-05
3.96536e-05
3.37649e-05
3.44557e-05
3.69986e-05
3.48172e-05
3.03303e-05
2.6962e-05
2.56356e-05
2.64755e-05
2.72072e-05
2.66756e-05
2.55257e-05
2.39894e-05
2.16889e-05
1.86316e-05
1.55089e-05
1.35633e-05
1.39685e-05
1.62112e-05
1.8524e-05
2.00284e-05
2.11909e-05
2.25953e-05
2.39336e-05
2.4374e-05
2.34483e-05
2.15236e-05
1.93891e-05
1.75392e-05
1.60079e-05
1.46634e-05
1.34246e-05
1.22856e-05
1.12764e-05
1.04386e-05
9.84478e-06
9.56732e-06
9.54428e-06
9.80173e-06
1.10715e-05
1.39632e-05
2.09668e-05
3.46945e-05
4.64141e-05
4.9213e-05
4.50468e-05
3.81041e-05
3.00757e-05
2.14363e-05
1.28697e-05
5.45364e-06
6.57447e-06
1.56744e-05
2.80464e-05
4.11509e-05
4.88838e-05
4.73312e-05
3.86889e-05
2.83725e-05
2.03334e-05
1.53185e-05
1.22784e-05
1.02148e-05
8.63101e-06
7.35198e-06
6.37955e-06
5.77436e-06
5.58428e-06
5.85571e-06
6.68848e-06
8.43469e-06
1.21569e-05
1.92769e-05
2.948e-05
3.9102e-05
4.35812e-05
4.16401e-05
3.29028e-05
2.25168e-05
2.36801e-05
2.1964e-05
9.02047e-05
8.98875e-05
8.9341e-05
8.94695e-05
9.07964e-05
9.36428e-05
9.7558e-05
0.000101332
9.99688e-05
8.89583e-05
7.33956e-05
5.98322e-05
4.80136e-05
3.66323e-05
2.61871e-05
2.15626e-05
2.78507e-05
3.82656e-05
4.04941e-05
3.14647e-05
2.71763e-05
3.29913e-05
3.48333e-05
3.15565e-05
2.74104e-05
2.48644e-05
2.38859e-05
2.43801e-05
2.58367e-05
2.62598e-05
2.53988e-05
2.40262e-05
2.24824e-05
2.07695e-05
1.91738e-05
1.82468e-05
1.82698e-05
1.89463e-05
1.98141e-05
2.08802e-05
2.23815e-05
2.40456e-05
2.5042e-05
2.46817e-05
2.30537e-05
2.08912e-05
1.88716e-05
1.72047e-05
1.57961e-05
1.45287e-05
1.33575e-05
1.22886e-05
1.13498e-05
1.05751e-05
1.00254e-05
9.77965e-06
9.79675e-06
1.00295e-05
1.11023e-05
1.38362e-05
1.99795e-05
3.34495e-05
4.68569e-05
5.13797e-05
4.77428e-05
4.04573e-05
3.18878e-05
2.27217e-05
1.34429e-05
4.36131e-06
4.94052e-06
1.57327e-05
2.94009e-05
4.31507e-05
5.04485e-05
4.784e-05
3.83868e-05
2.79289e-05
2.01935e-05
1.54766e-05
1.25569e-05
1.04989e-05
8.87229e-06
7.5325e-06
6.49233e-06
5.82309e-06
5.59372e-06
5.85486e-06
6.68439e-06
8.38532e-06
1.19591e-05
1.88616e-05
2.90819e-05
3.92605e-05
4.46717e-05
4.37359e-05
3.61861e-05
2.67428e-05
2.91136e-05
2.42221e-05
6.6476e-05
6.73881e-05
6.84407e-05
7.01628e-05
7.30086e-05
7.72207e-05
8.26338e-05
8.87817e-05
9.42298e-05
9.48745e-05
8.7279e-05
7.38335e-05
5.96653e-05
4.78297e-05
4.0233e-05
3.94621e-05
4.25743e-05
4.08683e-05
2.94972e-05
2.06236e-05
2.82347e-05
3.39468e-05
3.26468e-05
2.86551e-05
2.54513e-05
2.37043e-05
2.29651e-05
2.2871e-05
2.39868e-05
2.55275e-05
2.59296e-05
2.51118e-05
2.3746e-05
2.23057e-05
2.10732e-05
2.03356e-05
2.01677e-05
2.05164e-05
2.13753e-05
2.27623e-05
2.4404e-05
2.55917e-05
2.55975e-05
2.42863e-05
2.222e-05
2.01218e-05
1.8347e-05
1.6875e-05
1.55816e-05
1.4394e-05
1.32962e-05
1.22992e-05
1.14275e-05
1.07108e-05
1.02008e-05
9.97962e-06
1.00334e-05
1.02735e-05
1.11632e-05
1.36825e-05
1.90006e-05
3.17501e-05
4.68054e-05
5.35858e-05
5.09714e-05
4.35358e-05
3.44364e-05
2.47679e-05
1.5015e-05
5.73832e-06
5.4632e-06
1.68077e-05
3.15513e-05
4.56338e-05
5.2064e-05
4.8101e-05
3.78096e-05
2.73598e-05
2.00575e-05
1.56692e-05
1.28627e-05
1.08032e-05
9.12812e-06
7.72372e-06
6.61677e-06
5.88229e-06
5.59806e-06
5.83427e-06
6.66516e-06
8.33192e-06
1.17489e-05
1.8388e-05
2.85594e-05
3.92907e-05
4.574e-05
4.59642e-05
3.97774e-05
3.12813e-05
3.47651e-05
2.69658e-05
2.68444e-05
2.82662e-05
3.00219e-05
3.25438e-05
3.6218e-05
4.12893e-05
4.77459e-05
5.52283e-05
6.3106e-05
7.00665e-05
7.33825e-05
7.1038e-05
6.43076e-05
5.6348e-05
5.01764e-05
4.45774e-05
3.58058e-05
2.19669e-05
1.45854e-05
2.5559e-05
3.3105e-05
3.31125e-05
2.9499e-05
2.60435e-05
2.38622e-05
2.25476e-05
2.17886e-05
2.14479e-05
2.17904e-05
2.33023e-05
2.50629e-05
2.58572e-05
2.55458e-05
2.46263e-05
2.36195e-05
2.29354e-05
2.27759e-05
2.31997e-05
2.41439e-05
2.53394e-05
2.62451e-05
2.62547e-05
2.51337e-05
2.32301e-05
2.11667e-05
1.93539e-05
1.78473e-05
1.65426e-05
1.53546e-05
1.42516e-05
1.32318e-05
1.23061e-05
1.14961e-05
1.08313e-05
1.03563e-05
1.01518e-05
1.02336e-05
1.04939e-05
1.12289e-05
1.3491e-05
1.8104e-05
2.9604e-05
4.59393e-05
5.54506e-05
5.45319e-05
4.73228e-05
3.77989e-05
2.76925e-05
1.77491e-05
9.33341e-06
8.77773e-06
1.94084e-05
3.48044e-05
4.86821e-05
5.36456e-05
4.79885e-05
3.68818e-05
2.66433e-05
1.99092e-05
1.58731e-05
1.31769e-05
1.11131e-05
9.38475e-06
7.90924e-06
6.72788e-06
5.92077e-06
5.57551e-06
5.78207e-06
6.61919e-06
8.26462e-06
1.15215e-05
1.78397e-05
2.78418e-05
3.90422e-05
4.65835e-05
4.81171e-05
4.34906e-05
3.59858e-05
4.03058e-05
2.96879e-05
3.12878e-06
2.3985e-06
1.5516e-06
1.42286e-06
3.37843e-06
6.7597e-06
1.14299e-05
1.72742e-05
2.38292e-05
3.03523e-05
3.57293e-05
3.84763e-05
3.76497e-05
3.36123e-05
2.67544e-05
1.63626e-05
4.65413e-06
1.54453e-05
2.75567e-05
3.32441e-05
3.27985e-05
2.93937e-05
2.60115e-05
2.36401e-05
2.20049e-05
2.08023e-05
2.00017e-05
1.9672e-05
1.9763e-05
2.06025e-05
2.23747e-05
2.43402e-05
2.56552e-05
2.61413e-05
2.60996e-05
2.59162e-05
2.59051e-05
2.61795e-05
2.66168e-05
2.68852e-05
2.65789e-05
2.54823e-05
2.37651e-05
2.18604e-05
2.01247e-05
1.86528e-05
1.73747e-05
1.62104e-05
1.51239e-05
1.4108e-05
1.31656e-05
1.23065e-05
1.15524e-05
1.09341e-05
1.04912e-05
1.0298e-05
1.03981e-05
1.06884e-05
1.13075e-05
1.32594e-05
1.73133e-05
2.71591e-05
4.40577e-05
5.65766e-05
5.81743e-05
5.18249e-05
4.21645e-05
3.17644e-05
2.1869e-05
1.44185e-05
1.40061e-05
2.38706e-05
3.93403e-05
5.22164e-05
5.49838e-05
4.73402e-05
3.55704e-05
2.58241e-05
1.9783e-05
1.61018e-05
1.35073e-05
1.14342e-05
9.64671e-06
8.09325e-06
6.82997e-06
5.94269e-06
5.5288e-06
5.70032e-06
6.54786e-06
8.18773e-06
1.1291e-05
1.72406e-05
2.69281e-05
3.84444e-05
4.70738e-05
5.00398e-05
4.71276e-05
4.05616e-05
4.53086e-05
3.18997e-05
8.19089e-06
8.06153e-06
7.71482e-06
6.99098e-06
5.77643e-06
4.20087e-06
3.53127e-06
5.8279e-06
9.7703e-06
1.37821e-05
1.67473e-05
1.78725e-05
1.70816e-05
1.53526e-05
1.54455e-05
1.99619e-05
2.66392e-05
3.16818e-05
3.30856e-05
3.12481e-05
2.80554e-05
2.51667e-05
2.30066e-05
2.1285e-05
1.98235e-05
1.86767e-05
1.79385e-05
1.76788e-05
1.78455e-05
1.83969e-05
1.95374e-05
2.13084e-05
2.32442e-05
2.48313e-05
2.58869e-05
2.64927e-05
2.67986e-05
2.6894e-05
2.67342e-05
2.61788e-05
2.51307e-05
2.36757e-05
2.20673e-05
2.05498e-05
1.92136e-05
1.80226e-05
1.69195e-05
1.58765e-05
1.48893e-05
1.39597e-05
1.30913e-05
1.22946e-05
1.15919e-05
1.10161e-05
1.06033e-05
1.04178e-05
1.05245e-05
1.08467e-05
1.13959e-05
1.30076e-05
1.6601e-05
2.46555e-05
4.11145e-05
5.65678e-05
6.15457e-05
5.69578e-05
4.7684e-05
3.72359e-05
2.75596e-05
2.09616e-05
2.09121e-05
3.0316e-05
4.51524e-05
5.59815e-05
5.57648e-05
4.59821e-05
3.38764e-05
2.49584e-05
1.96962e-05
1.63544e-05
1.38538e-05
1.17668e-05
9.91408e-06
8.27577e-06
6.92108e-06
5.94085e-06
5.4464e-06
5.57784e-06
6.44296e-06
8.0983e-06
1.10663e-05
1.6619e-05
2.5843e-05
3.74554e-05
4.70704e-05
5.14998e-05
5.03618e-05
4.46182e-05
4.92928e-05
3.31359e-05
4.65203e-06
4.52336e-06
4.24544e-06
3.73186e-06
2.96895e-06
2.31822e-06
3.10142e-06
5.69016e-06
9.42043e-06
1.38159e-05
1.82577e-05
2.20768e-05
2.49297e-05
2.71133e-05
2.91265e-05
3.07589e-05
3.13164e-05
3.03275e-05
2.81557e-05
2.57141e-05
2.36541e-05
2.19845e-05
2.04434e-05
1.89499e-05
1.76251e-05
1.66143e-05
1.60013e-05
1.58096e-05
1.60294e-05
1.6581e-05
1.74156e-05
1.86135e-05
2.0145e-05
2.17497e-05
2.31522e-05
2.41761e-05
2.47514e-05
2.48811e-05
2.45811e-05
2.3882e-05
2.28735e-05
2.17116e-05
2.05483e-05
1.94548e-05
1.84247e-05
1.74321e-05
1.64682e-05
1.55387e-05
1.46497e-05
1.38038e-05
1.30058e-05
1.2268e-05
1.16137e-05
1.10769e-05
1.06924e-05
1.05124e-05
1.06137e-05
1.09616e-05
1.14849e-05
1.27729e-05
1.5916e-05
2.23407e-05
3.7218e-05
5.49856e-05
6.40463e-05
6.23522e-05
5.42976e-05
4.42428e-05
3.49875e-05
2.91447e-05
2.95755e-05
3.86302e-05
5.19208e-05
5.94706e-05
5.55668e-05
4.37644e-05
3.18661e-05
2.41232e-05
1.9666e-05
1.66357e-05
1.4221e-05
1.21143e-05
1.01894e-05
8.45873e-06
7.00303e-06
5.91776e-06
5.32977e-06
5.41337e-06
6.30114e-06
7.9942e-06
1.08549e-05
1.60045e-05
2.46266e-05
3.60509e-05
4.64189e-05
5.2215e-05
5.28022e-05
4.76777e-05
5.17261e-05
3.30275e-05
2.6822e-06
2.47439e-06
2.13325e-06
1.61113e-06
1.0278e-06
1.34509e-06
2.85402e-06
5.00258e-06
7.70622e-06
1.09424e-05
1.45705e-05
1.82338e-05
2.14473e-05
2.3854e-05
2.53365e-05
2.58135e-05
2.53285e-05
2.42369e-05
2.29886e-05
2.18119e-05
2.06632e-05
1.94254e-05
1.80914e-05
1.67801e-05
1.56426e-05
1.47864e-05
1.42727e-05
1.41259e-05
1.43386e-05
1.48835e-05
1.56762e-05
1.6645e-05
1.77714e-05
1.89844e-05
2.01531e-05
2.11137e-05
2.17477e-05
2.20024e-05
2.18875e-05
2.1467e-05
2.08413e-05
2.01098e-05
1.93322e-05
1.85261e-05
1.76955e-05
1.68524e-05
1.60148e-05
1.51964e-05
1.44031e-05
1.36378e-05
1.29072e-05
1.22259e-05
1.16179e-05
1.11169e-05
1.07576e-05
1.0582e-05
1.06672e-05
1.10263e-05
1.15553e-05
1.25864e-05
1.52311e-05
2.03822e-05
3.27237e-05
5.15129e-05
6.48814e-05
6.72778e-05
6.16016e-05
5.26725e-05
4.41701e-05
3.90695e-05
3.997e-05
4.83653e-05
5.89088e-05
6.19094e-05
5.39236e-05
4.0637e-05
2.96904e-05
2.33937e-05
1.9699e-05
1.69491e-05
1.46131e-05
1.24794e-05
1.04753e-05
8.64444e-06
7.07673e-06
5.87124e-06
5.17365e-06
5.20113e-06
6.11789e-06
7.87257e-06
1.06634e-05
1.54294e-05
2.3348e-05
3.42677e-05
4.50208e-05
5.19249e-05
5.40332e-05
4.9239e-05
5.21498e-05
3.13837e-05
1.92537e-06
1.70581e-06
1.38964e-06
1.01434e-06
9.62977e-07
1.74818e-06
3.11263e-06
4.87636e-06
6.96565e-06
9.31247e-06
1.18335e-05
1.43876e-05
1.6753e-05
1.86456e-05
1.9892e-05
2.049e-05
2.05904e-05
2.03446e-05
1.98394e-05
1.91141e-05
1.81933e-05
1.71178e-05
1.59639e-05
1.48389e-05
1.3856e-05
1.31073e-05
1.26568e-05
1.25394e-05
1.27502e-05
1.32645e-05
1.40301e-05
1.49569e-05
1.59633e-05
1.69829e-05
1.79408e-05
1.87538e-05
1.93504e-05
1.96875e-05
1.97637e-05
1.96145e-05
1.9292e-05
1.88413e-05
1.82911e-05
1.7663e-05
1.69818e-05
1.6274e-05
1.55597e-05
1.48497e-05
1.41486e-05
1.34609e-05
1.27957e-05
1.21693e-05
1.16055e-05
1.11367e-05
1.07985e-05
1.0626e-05
1.06876e-05
1.10375e-05
1.15861e-05
1.24544e-05
1.45728e-05
1.87883e-05
2.8217e-05
4.61744e-05
6.32365e-05
7.06386e-05
6.86935e-05
6.19336e-05
5.47215e-05
5.04548e-05
5.16103e-05
5.85489e-05
6.49053e-05
6.2327e-05
5.04582e-05
3.67392e-05
2.75716e-05
2.28219e-05
1.9798e-05
1.7302e-05
1.50357e-05
1.28663e-05
1.07758e-05
8.83643e-06
7.145e-06
5.80361e-06
4.9785e-06
4.94015e-06
5.89227e-06
7.73142e-06
1.04963e-05
1.49231e-05
2.20957e-05
3.22182e-05
4.28827e-05
5.0462e-05
5.37053e-05
4.89081e-05
5.0323e-05
2.82743e-05
1.46325e-06
1.28306e-06
1.07353e-06
9.65789e-07
1.26068e-06
2.04886e-06
3.21794e-06
4.69598e-06
6.426e-06
8.33392e-06
1.03238e-05
1.22821e-05
1.40775e-05
1.55832e-05
1.6717e-05
1.74467e-05
1.77671e-05
1.77115e-05
1.73508e-05
1.67552e-05
1.5975e-05
1.50562e-05
1.40615e-05
1.30783e-05
1.22063e-05
1.15362e-05
1.11361e-05
1.10447e-05
1.12619e-05
1.17564e-05
1.24806e-05
1.33649e-05
1.43288e-05
1.52952e-05
1.61945e-05
1.69648e-05
1.75599e-05
1.79545e-05
1.81465e-05
1.81522e-05
1.79967e-05
1.77058e-05
1.73042e-05
1.68189e-05
1.62768e-05
1.57008e-05
1.51055e-05
1.4499e-05
1.38865e-05
1.32743e-05
1.2673e-05
1.20994e-05
1.15771e-05
1.11368e-05
1.08145e-05
1.0643e-05
1.06773e-05
1.09963e-05
1.15582e-05
1.23515e-05
1.40026e-05
1.74541e-05
2.43105e-05
3.95158e-05
5.85755e-05
7.11181e-05
7.4106e-05
7.0742e-05
6.55561e-05
6.22858e-05
6.32544e-05
6.7538e-05
6.82942e-05
5.97713e-05
4.50949e-05
3.24651e-05
2.57381e-05
2.24226e-05
1.99662e-05
1.77026e-05
1.54943e-05
1.32802e-05
1.10961e-05
9.03978e-06
7.21196e-06
5.71664e-06
4.74196e-06
4.62679e-06
5.62402e-06
7.56957e-06
1.03552e-05
1.45086e-05
2.0961e-05
3.00832e-05
4.01618e-05
4.78539e-05
5.16859e-05
4.65868e-05
4.64065e-05
2.40768e-05
1.14693e-06
1.03576e-06
9.69971e-07
1.08216e-06
1.49699e-06
2.22187e-06
3.22005e-06
4.4584e-06
5.89755e-06
7.48013e-06
9.12767e-06
1.07448e-05
1.22314e-05
1.35041e-05
1.44855e-05
1.51268e-05
1.54277e-05
1.54243e-05
1.51612e-05
1.468e-05
1.40202e-05
1.32255e-05
1.23529e-05
1.14792e-05
1.06943e-05
1.00854e-05
9.72344e-06
9.65119e-06
9.87342e-06
1.03574e-05
1.10508e-05
1.18911e-05
1.28096e-05
1.37377e-05
1.46116e-05
1.53766e-05
1.59935e-05
1.64407e-05
1.67137e-05
1.68218e-05
1.67822e-05
1.66164e-05
1.6347e-05
1.59974e-05
1.55886e-05
1.51369e-05
1.46533e-05