/*--------------------------------*- C++ -*----------------------------------*\
  =========                 |
  \\      /  F ield         | OpenFOAM: The Open Source CFD Toolbox
   \\    /   O peration     | Website:  https://openfoam.org
    \\  /    A nd           | Version:  10
     \\/     M anipulation  |
\*---------------------------------------------------------------------------*/
FoamFile
{
    format      ascii;
    class       volScalarField;
    location    "0.17";
    object      p;
}
// * * * * * * * * * * * * * * * * * * * * * * * * * * * * * * * * * * * * * //

dimensions      [0 2 -2 0 0 0 0];

internalField   nonuniform List<scalar> 
6820
(
17.1596
2.82987
0.834657
0.658498
0.509459
0.57771
0.620186
0.613585
0.584565
0.543032
0.495526
0.445841
0.395691
0.345938
0.297087
0.249473
0.203351
0.158934
0.116397
0.0758819
0.0374999
0.00132788
-0.032595
-0.0642645
-0.0937369
-0.121076
-0.146551
-0.170086
-0.192987
-0.212899
-0.238778
-0.247835
-0.306954
11.7817
3.0323
1.02924
0.77965
0.578688
0.583401
0.604598
0.591625
0.562432
0.523681
0.479352
0.432484
0.38463
0.336644
0.289102
0.242433
0.196981
0.153026
0.110799
0.0704829
0.0322203
-0.00388746
-0.0377811
-0.069441
-0.0989034
-0.12623
-0.151626
-0.175123
-0.197594
-0.217822
-0.241599
-0.255639
-0.306592
9.70136
4.24405
1.82206
1.23429
0.858351
0.720225
0.679346
0.639279
0.59421
0.545554
0.494232
0.442044
0.390185
0.339281
0.289692
0.241616
0.195213
0.150628
0.107995
0.0674276
0.0290204
-0.00715689
-0.0410629
-0.0726827
-0.102044
-0.129183
-0.154243
-0.177171
-0.198478
-0.216794
-0.234223
-0.238698
-0.234432
8.1338
4.42705
2.11874
1.4725
1.09508
0.893595
0.802367
0.730163
0.661933
0.59803
0.536826
0.47773
0.420593
0.365319
0.311992
0.260684
0.211449
0.16435
0.119458
0.0768447
0.0365708
-0.00131429
-0.0367789
-0.0698057
-0.100398
-0.12855
-0.154284
-0.177432
-0.197961
-0.214486
-0.226387
-0.225725
-0.206586
6.8488
4.38308
2.42631
1.74663
1.34068
1.07308
0.927643
0.824497
0.736311
0.658762
0.587783
0.521052
0.457988
0.398118
0.34094
0.286305
0.234169
0.18451
0.137325
0.0926273
0.0504325
0.0107584
-0.0263783
-0.0609561
-0.0929476
-0.122283
-0.148857
-0.172339
-0.192284
-0.207231
-0.215309
-0.211271
-0.187315
5.89146
4.26044
2.61082
1.90002
1.48442
1.19446
1.02276
0.90287
0.802338
0.714937
0.636455
0.563823
0.495718
0.43149
0.370682
0.312944
0.258063
0.205911
0.15641
0.10952
0.0652211
0.02351
-0.0156035
-0.0520891
-0.0858881
-0.116877
-0.144849
-0.169373
-0.189799
-0.204757
-0.212405
-0.209347
-0.19171
5.14627
4.04883
2.69894
2.01768
1.61553
1.31673
1.12072
0.981178
0.8663
0.767981
0.681408
0.602643
0.529713
0.461599
0.39752
0.336922
0.279485
0.225013
0.173377
0.124494
0.0783122
0.0348055
-0.00602924
-0.0441635
-0.0795258
-0.111969
-0.141243
-0.166896
-0.18824
-0.20411
-0.212919
-0.212423
-0.200039
4.56267
3.81944
2.7373
2.10252
1.71152
1.41021
1.19924
1.04683
0.922657
0.816766
0.72404
0.640271
0.563107
0.491283
0.423916
0.360395
0.300332
0.243467
0.189616
0.138649
0.0904798
0.0450553
0.00235512
-0.0376017
-0.074745
-0.108927
-0.139893
-0.167221
-0.190282
-0.208135
-0.219544
-0.223019
-0.21691
4.0997
3.58813
2.72796
2.15248
1.78163
1.48918
1.27256
1.11118
0.979
0.865828
0.766787
0.677748
0.596131
0.520483
0.449802
0.383366
0.320687
0.26143
0.205354
0.152288
0.102112
0.054745
0.0101465
-0.031683
-0.0706895
-0.106747
-0.139635
-0.169
-0.194337
-0.214949
-0.229966
-0.238476
-0.239483
3.72753
3.369
2.69015
2.1804
1.83332
1.55272
1.33449
1.1668
1.02862
0.909934
0.80594
0.712626
0.627281
0.548315
0.474643
0.40548
0.340285
0.278681
0.220391
0.16521
0.112986
0.0636109
0.0170187
-0.0268163
-0.0678696
-0.106055
-0.14121
-0.173078
-0.201303
-0.225427
-0.244923
-0.259326
-0.268193
3.42493
3.16839
2.63346
2.1885
1.86736
1.60184
1.38718
1.21715
1.07539
0.952669
0.8445
0.747247
0.658289
0.576012
0.499309
0.427367
0.359606
0.295605
0.235048
0.177695
0.123361
0.0719086
0.0232395
-0.0227046
-0.0659393
-0.106431
-0.144093
-0.178779
-0.21029
-0.238394
-0.262867
-0.283596
-0.300601
3.17635
2.98862
2.56644
2.18251
1.88874
1.63992
1.43162
1.26145
1.11745
0.991658
0.880069
0.779446
0.687318
0.602077
0.522609
0.448082
0.377888
0.311576
0.248803
0.189299
0.132852
0.079294
0.0284949
-0.0196416
-0.0651776
-0.108141
-0.148526
-0.1863
-0.221416
-0.253839
-0.2836
-0.310852
-0.335968
2.97052
2.82996
2.4952
2.16622
1.89963
1.66796
1.46807
1.3
1.15548
1.02796
0.913906
0.810539
0.715626
0.627645
0.545528
0.468465
0.395844
0.327203
0.262178
0.200477
0.141861
0.0861319
0.0331251
-0.0172965
-0.065245
-0.110812
-0.154076
-0.195108
-0.234001
-0.270886
-0.305992
-0.33967
-0.372546
2.79911
2.69147
2.42408
2.1432
1.90283
1.68828
1.498
1.33358
1.18968
1.06123
0.945311
0.839618
0.742216
0.651717
0.567118
0.487643
0.41269
0.341787
0.274559
0.210691
0.149921
0.0920207
0.0367921
-0.0159431
-0.0663474
-0.114575
-0.16078
-0.205132
-0.247838
-0.289158
-0.329473
-0.369263
-0.409314
2.65599
2.57176
2.35611
2.11638
1.90049
1.70239
1.5222
1.36246
1.22017
1.09162
0.974534
0.86705
0.76755
0.674809
0.587916
0.506149
0.428934
0.355807
0.286386
0.220347
0.157406
0.0973093
0.0398271
-0.0152577
-0.0681549
-0.119075
-0.168242
-0.215903
-0.262357
-0.30796
-0.353195
-0.398614
-0.445088
2.53657
2.46927
2.29335
2.08818
1.89459
1.71197
1.54186
1.38746
1.24746
1.1194
1.00161
0.892683
0.791334
0.696529
0.607469
0.523504
0.444097
0.3688
0.297233
0.229061
0.163983
0.101724
0.0420222
-0.0153742
-0.0707177
-0.124268
-0.176306
-0.227142
-0.277139
-0.326721
-0.376425
-0.426838
-0.478851
2.4374
2.38257
2.23714
2.0606
1.88685
1.71842
1.558
1.40916
1.27186
1.1447
1.0266
0.916566
0.813635
0.716972
0.625903
0.539855
0.45834
0.380933
0.307261
0.236987
0.169798
0.1054
0.0435061
-0.0161652
-0.0739017
-0.130003
-0.184793
-0.238627
-0.291911
-0.345103
-0.398764
-0.453477
-0.510102
2.35591
2.31037
2.18836
2.03524
1.87877
1.72309
1.57168
1.42834
1.29392
1.16791
1.04974
0.938821
0.834485
0.736104
0.643133
0.55509
0.471539
0.392087
0.316375
0.244067
0.174837
0.108382
0.0443928
-0.0174377
-0.0774251
-0.1359
-0.193215
-0.249754
-0.305947
-0.362264
-0.419262
-0.477497
-0.537772
2.29019
2.25163
2.1476
2.0134
1.87166
1.72718
1.58387
1.44568
1.31409
1.18927
1.07114
0.959455
0.853819
0.753809
0.659011
0.569033
0.483496
0.402043
0.324331
0.250029
0.178815
0.110365
0.0443586
-0.0195297
-0.0816355
-0.142309
-0.201923
-0.260873
-0.319595
-0.378552
-0.438276
-0.499277
-0.562277
2.23884
2.20555
2.11527
1.99614
1.8667
1.73178
1.59553
1.46193
1.33294
1.20923
1.09114
0.978737
0.871872
0.770306
0.673759
0.581925
0.494485
0.411122
0.331511
0.255328
0.182251
0.11195
0.0440948
-0.0216537
-0.0856443
-0.148239
-0.209818
-0.270779
-0.331551
-0.392578
-0.454354
-0.517342
-0.582179
2.20089
2.17156
2.09171
1.98438
1.86491
1.73787
1.6075
1.47777
1.35091
1.22803
1.1098
0.996557
0.888382
0.785204
0.686861
0.59314
0.503782
0.418506
0.337009
0.258979
0.184094
0.112023
0.0424284
-0.0250364
-0.0907271
-0.15501
-0.218264
-0.280881
-0.343272
-0.405851
-0.469069
-0.533328
-0.599169
2.17574
2.14935
2.07725
1.97891
1.86723
1.74643
1.62069
1.49395
1.36867
1.24627
1.12769
1.01349
0.903959
0.799171
0.699078
0.603544
0.512367
0.425297
0.342056
0.262342
0.185836
0.112207
0.0411128
-0.0277951
-0.0948748
-0.160491
-0.225018
-0.288832
-0.352323
-0.415874
-0.479891
-0.544728
-0.61085
2.16309
2.13881
2.07229
1.98048
1.87451
1.75824
1.63574
1.51095
1.38644
1.26388
1.14444
1.0289
0.917694
0.811042
0.708998
0.611496
0.518384
0.429449
0.34443
0.263035
0.184951
0.109845
0.0373743
-0.0328115
-0.101069
-0.16776
-0.233246
-0.297889
-0.362052
-0.426086
-0.490346
-0.555133
-0.620827
2.163
2.14011
2.0773
1.98986
1.88768
1.77429
1.65369
1.52978
1.40527
1.28201
1.16136
1.04424
0.931242
0.822689
0.718716
0.619321
0.524392
0.433742
0.347127
0.264264
0.18484
0.108526
0.0349765
-0.0361575
-0.10523
-0.172596
-0.238605
-0.303604
-0.36793
-0.431906
-0.495851
-0.560033
-0.624778
2.17575
2.15364
2.09289
2.00778
1.90739
1.79504
1.67468
1.55022
1.42447
1.29946
1.17669
1.05725
0.941839
0.830881
0.724583
0.622987
0.526016
0.433501
0.345206
0.260851
0.180121
0.102682
0.0281873
-0.0437141
-0.113375
-0.181144
-0.247362
-0.312358
-0.376448
-0.439924
-0.503066
-0.566097
-0.629275
2.20202
2.18014
2.11994
2.03528
1.9349
1.82199
1.70049
1.57438
1.44657
1.31919
1.1939
1.07187
0.953902
0.84048
0.731865
0.628139
0.529243
0.435022
0.345244
0.259627
0.177853
0.099585
0.0244708
-0.0478436
-0.11771
-0.185474
-0.251467
-0.316008
-0.379396
-0.441908
-0.5038
-0.565291
-0.626609
2.24281
2.22055
2.15929
2.07296
1.97029
1.85448
1.72957
1.59969
1.46791
1.33652
1.20729
1.0815
0.960013
0.843378
0.731876
0.6256
0.524493
0.428389
0.337045
0.250162
0.16741
0.0884348
0.012874
-0.0596349
-0.129449
-0.196912
-0.262354
-0.326083
-0.388386
-0.449518
-0.50971
-0.569141
-0.627993
2.2996
2.27645
2.2127
2.12296
2.0164
1.8963
1.76682
1.63227
1.49582
1.35988
1.22629
1.09642
0.971197
0.851188
0.736705
0.627847
0.524554
0.42665
0.333874
0.245912
0.162412
0.0830015
0.00730328
-0.0650593
-0.134453
-0.201229
-0.26572
-0.328234
-0.389056
-0.448442
-0.506622
-0.563796
-0.620143
2.37427
2.34933
2.28075
2.18443
2.07039
1.94223
1.80454
1.66198
1.51799
1.37509
1.23523
1.0998
0.969725
0.84555
0.727549
0.615777
0.510127
0.410377
0.316223
0.22731
0.143251
0.0636436
-0.0119151
-0.0838214
-0.152457
-0.218184
-0.28134
-0.342237
-0.401155
-0.458342
-0.514013
-0.568333
-0.621452
2.46974
2.4427
2.36811
2.26406
2.14179
2.00504
1.85861
1.70748
1.55528
1.40471
1.25781
1.11606
0.980425
0.851467
0.72944
0.614367
0.506095
0.404351
0.308779
0.21897
0.134489
0.0548879
-0.0202744
-0.0914279
-0.158982
-0.223323
-0.284806
-0.34376
-0.40048
-0.455235
-0.508259
-0.559768
-0.60993
2.58894
2.55738
2.47141
2.35268
2.21489
2.06263
1.9015
1.73705
1.57309
1.41229
1.25664
1.10752
0.965752
0.831774
0.705719
0.587501
0.476868
0.37346
0.276845
0.186548
0.102076
0.0229338
-0.0513616
-0.121274
-0.187242
-0.249674
-0.308944
-0.365394
-0.41933
-0.47102
-0.520696
-0.56854
-0.614704
2.73848
2.70398
2.60791
2.47645
2.32508
2.15814
1.98178
1.80245
1.62451
1.45094
1.28396
1.12504
0.975019
0.834249
0.702766
0.580353
0.466624
0.361084
0.263175
0.172307
0.0878885
0.00933841
-0.063899
-0.132347
-0.196494
-0.256786
-0.313636
-0.367414
-0.41846
-0.467078
-0.513542
-0.558114
-0.600986
2.9205
2.87308
2.74985
2.588
2.40862
2.21659
2.01844
1.82074
1.62741
1.44099
1.26337
1.09572
0.938618
0.792224
0.656399
0.530783
0.414863
0.308031
0.209627
0.118973
0.0353933
-0.0417647
-0.11312
-0.179252
-0.240694
-0.297934
-0.351414
-0.401535
-0.448656
-0.493095
-0.535133
-0.575004
-0.612912
3.15674
3.11022
2.9732
2.7909
2.58661
2.3658
2.13835
1.9133
1.69544
1.48775
1.2923
1.11014
0.941535
0.786282
0.643869
0.513573
0.394555
0.285927
0.186791
0.0962688
0.0135267
-0.0622164
-0.13168
-0.195522
-0.254335
-0.308652
-0.358955
-0.405677
-0.449213
-0.489932
-0.528176
-0.564295
-0.598573
3.42905
3.33473
3.12968
2.89395
2.65204
2.40124
2.14945
1.90463
1.67011
1.44815
1.24055
1.04821
0.871261
0.709445
0.562157
0.428562
0.307684
0.198483
0.0999032
0.0109139
-0.0694665
-0.142152
-0.207978
-0.2677
-0.321993
-0.371452
-0.416605
-0.457917
-0.495804
-0.530648
-0.562813
-0.592637
-0.620518
3.84766
3.77932
3.54356
3.25058
2.9412
2.62237
2.31074
2.01617
1.74133
1.48785
1.25642
1.04648
0.856894
0.686291
0.533168
0.39598
0.273214
0.163426
0.0652558
-0.022555
-0.101157
-0.17159
-0.234781
-0.29155
-0.342613
-0.388591
-0.430018
-0.467362
-0.50103
-0.531431
-0.558953
-0.58414
-0.607522
4.20778
3.95487
3.59786
3.27793
2.95668
2.61958
2.28999
1.9767
1.68144
1.40777
1.15796
0.932321
0.730212
0.550454
0.391422
0.251268
0.128088
0.0200169
-0.0747128
-0.157732
-0.230515
-0.294377
-0.350467
-0.399779
-0.443156
-0.481299
-0.514773
-0.544028
-0.569384
-0.591152
-0.609468
-0.624961
-0.637678
5.25832
4.99202
4.38079
3.83403
3.33146
2.8542
2.4267
2.04651
1.70613
1.40278
1.13344
0.8947
0.683609
0.497528
0.334002
0.190765
0.0656989
-0.04319
-0.137764
-0.219743
-0.29069
-0.352013
-0.404956
-0.450598
-0.489852
-0.523462
-0.551987
-0.575815
-0.595071
-0.609868
-0.619542
-0.625166
-0.622868
5.20532
4.64503
4.20246
3.83682
3.35934
2.86258
2.39668
1.95894
1.55786
1.20174
0.890711
0.622132
0.39271
0.198471
0.0351391
-0.101443
-0.215135
-0.309418
-0.387359
-0.451621
-0.504487
-0.547899
-0.58349
-0.612622
-0.636409
-0.655728
-0.671208
-0.683176
-0.691521
-0.695548
-0.693019
-0.681758
-0.650605
10.1435
6.45159
5.12577
4.45519
3.65586
2.97814
2.43358
1.95615
1.53841
1.17901
0.870237
0.606057
0.381599
0.19197
0.0325688
-0.100781
-0.211859
-0.304032
-0.380258
-0.443108
-0.494797
-0.537217
-0.571978
-0.600431
-0.623729
-0.642796
-0.658492
-0.671296
-0.682122
-0.690453
-0.698614
-0.702291
-0.710855
-0.180055
-0.197379
-0.16139
0.127125
0.760737
1.73921
2.80446
3.5419
3.37974
1.81479
-1.50396
-6.51517
-12.5207
-18.2395
-22.4533
-24.5406
-24.4853
-22.6674
-19.6883
-15.6707
-10.3847
-4.25805
1.33114
5.20387
7.11508
7.34363
6.23375
4.03946
1.01822
-2.5682
-6.47167
-10.4506
-14.2586
-17.6231
-20.2463
-21.848
-22.245
-21.3945
-19.4249
-16.5812
-13.1609
-9.47006
-5.79583
-2.37315
0.651442
3.22408
5.35439
7.08109
8.45089
9.511
10.308
10.8874
11.292
11.5602
11.7246
11.8107
11.8365
11.8114
11.7363
11.6022
11.3875
10.9701
9.8931
7.38208
2.80332
-3.84036
-11.8626
-19.8462
-26.0061
-28.9339
-28.0691
-23.395
-15.8512
-7.28326
0.06636
4.94926
7.64436
9.02962
9.76886
10.1983
10.4661
10.6378
10.7465
10.812
10.8472
10.8594
10.8512
10.8191
10.7547
10.6368
10.4368
10.0636
9.33182
7.70574
4.66687
0.00274244
-4.55875
-7.9663
-6.02366
-5.60789
-0.22088
-0.16728
-0.0922674
0.227917
0.884987
1.84347
2.85436
3.52641
3.31266
1.70511
-1.51015
-6.20423
-11.7542
-17.0485
-21.001
-23.0299
-23.1123
-21.5433
-18.7386
-14.8057
-9.73377
-4.11812
0.840307
4.26508
6.00881
6.28492
5.35865
3.45041
0.771208
-2.44571
-5.97521
-9.59168
-13.0603
-16.1255
-18.5144
-19.9765
-20.3464
-19.5866
-17.8069
-15.2194
-12.0876
-8.68884
-5.28649
-2.09635
0.745935
3.18705
5.22933
6.90145
8.24115
9.28887
10.0861
10.6741
11.0924
11.3767
11.5574
11.6587
11.6975
11.6827
11.6147
11.4837
11.2687
10.8743
9.89462
7.59282
3.32663
-2.94485
-10.5663
-18.1753
-24.0717
-26.8994
-26.1217
-21.7013
-14.5495
-6.46342
0.428994
4.9996
7.54991
8.89773
9.64438
10.0935
10.3812
10.57
10.6926
10.7691
10.8127
10.8308
10.826
10.795
10.7295
10.6087
10.4051
10.0335
9.33058
7.80818
5.00546
0.689113
-3.51641
-6.79579
-5.00362
-5.27903
-0.159899
-0.122327
-0.012327
0.32857
0.963946
1.84114
2.73199
3.25487
2.9316
1.33772
-1.73909
-6.10536
-11.1453
-15.9225
-19.5423
-21.4909
-21.6857
-20.2729
-17.5511
-13.7042
-8.94525
-3.93213
0.385484
3.39152
4.98128
5.29602
4.52747
2.86881
0.501697
-2.36766
-5.53788
-8.80167
-11.937
-14.7056
-16.8626
-18.1876
-18.5299
-17.854
-16.2507
-13.9029
-11.0444
-7.92646
-4.78853
-1.82565
0.838464
3.15087
5.10635
6.7238
8.03255
9.06671
9.86287
10.4584
10.8894
11.1889
11.3852
11.5011
11.5524
11.5477
11.4866
11.3591
11.1434
10.7646
9.87289
7.78302
3.85595
-1.99834
-9.17175
-16.3677
-21.9749
-24.6929
-24.0041
-19.8571
-13.1378
-5.58532
0.807904
5.0468
7.44837
8.75961
9.51491
9.98451
10.2928
10.4993
10.6364
10.7244
10.7768
10.8009
10.7999
10.7702
10.704
10.5806
10.374
10.004
9.32812
7.90564
5.33406
1.36216
-2.49327
-5.64538
-4.02165
-4.92332
-0.150104
-0.09188
0.0509738
0.384609
0.945922
1.68492
2.39636
2.74462
2.3041
0.71422
-2.1623
-6.14861
-10.6923
-14.9712
-18.2492
-20.0268
-20.166
-18.7466
-16.0609
-12.3975
-8.09913
-3.75167
-0.0412492
2.59139
4.03956
4.37951
3.74809
2.3079
0.220555
-2.3291
-5.15816
-8.07981
-10.8918
-13.3764
-15.3124
-16.5038
-16.8143
-16.2105
-14.7671
-12.6419
-10.0428
-7.19488
-4.31189
-1.56713
0.926635
3.11543
4.98626
6.54911
7.82595
8.84521
9.63893
10.2406
10.6831
10.9969
11.2081
11.338
11.4015
11.4065
11.3522
11.2283
11.0121
10.6445
9.83408
7.95775
4.39147
-1.00556
-7.68795
-14.437
-19.7343
-22.3359
-21.7396
-17.888
-11.6425
-4.67159
1.18989
5.08675
7.34021
8.61667
9.38142
9.8719
10.2012
10.4259
10.578
10.678
10.7396
10.7703
10.7732
10.7451
10.6786
10.5531
10.344
9.9759
9.32607
7.99941
5.6511
2.01452
-1.50371
-4.53223
-3.09609
-4.54683
-0.136639
-0.067448
0.0749151
0.359947
0.808045
1.36437
1.85919
2.01757
1.49659
-0.00998459
-2.62292
-6.17495
-10.1841
-13.9512
-16.8284
-18.2863
-18.2611
-16.837
-14.3119
-11.0177
-7.29924
-3.60622
-0.434195
1.86843
3.17974
3.52863
3.01318
1.76721
-0.0670402
-2.32422
-4.83639
-7.43359
-9.93455
-12.1451
-13.8665
-14.9257
-15.2006
-14.6596
-13.3637
-11.4486
-9.09626
-6.50484
-3.86221
-1.32221
1.01083
3.08123
4.86925
6.37746
7.6215
8.62463
9.41457
10.0211
10.4739
10.8008
11.0262
11.1695
11.2446
11.2589
11.2115
11.0915
10.8756
10.5158
9.77875
8.11258
4.92017
0.0126616
-6.14075
-12.4115
-17.3781
-19.8546
-19.3536
-15.82
-10.0892
-3.74209
1.56438
5.11615
7.22504
8.46896
9.24388
9.75558
10.1063
10.3498
10.5174
10.63
10.7012
10.7388
10.746
10.7199
10.6533
10.5262
10.3153
9.94955
9.32436
8.088
5.95117
2.63514
-0.563636
-3.47239
-2.2401
-4.15325
-0.153223
-0.087931
0.0348293
0.254027
0.573704
0.940451
1.22062
1.20406
0.632693
-0.727142
-2.97725
-5.99026
-9.37329
-12.5375
-14.8598
-16.0704
-15.9779
-14.7159
-12.5455
-9.7521
-6.62204
-3.50609
-0.794511
1.21534
2.39376
2.73964
2.32169
1.24876
-0.355869
-2.34621
-4.56844
-6.86635
-9.07578
-11.0249
-12.5402
-13.4705
-13.7076
-13.2215
-12.0611
-10.3411
-8.21782
-5.86316
-3.44174
-1.09104
1.09135
3.04855
4.75565
6.2093
7.4197
8.40544
9.19017
9.80012
10.262
10.601
10.8395
10.9956
11.0819
11.1053
11.0646
10.9488
10.7344
10.3798
9.7053
8.23791
5.42129
1.02671
-4.56371
-10.3254
-14.9397
-17.2822
-16.8809
-13.6894
-8.51201
-2.8218
1.91933
5.13208
7.10329
8.3173
9.10279
9.63575
10.0082
10.2709
10.4547
10.5804
10.6619
10.7068
10.7187
10.6947
10.6285
10.5003
10.2881
9.92514
9.32286
8.16991
6.22956
3.2148
0.313531
-2.48037
-1.46618
-3.7484
-0.170536
-0.114811
-0.0177087
0.140076
0.352166
0.567975
0.679664
0.527206
-0.076545
-1.29373
-3.18765
-5.65443
-8.39209
-10.944
-12.8479
-13.8529
-13.8138
-12.8104
-11.03
-8.70217
-6.07325
-3.43815
-1.11923
0.628994
1.68013
2.01484
1.67884
0.758966
-0.63812
-2.38563
-4.34409
-6.37042
-8.31529
-10.0259
-11.3512
-12.1591
-12.3565
-11.9155
-10.8746
-9.32885
-7.41104
-5.26956
-3.04876
-0.87217
1.16894
3.01766
4.64561
6.0448
7.2208
8.18793
8.96604
9.57799
10.0475
10.3975
10.6483
10.8165
10.9136
10.9457
10.9118
10.8006
10.5889
10.2387
9.6151
8.32859
5.87729
2.0065
-2.99438
-8.21926
-12.4607
-14.6605
-14.3648
-11.5395
-6.94911
-1.93594
2.24429
5.13267
6.97547
8.1622
8.95831
9.51241
9.90684
10.1893
10.39
10.5295
10.6216
10.6743
10.6912
10.6699
10.6043
10.4756
10.2628
9.90305
9.3219
8.24472
6.48342
3.74653
1.11655
-1.56824
-0.782629
-3.338
-0.198042
-0.158222
-0.0898415
0.0141972
0.141221
0.244948
0.238193
-0.00156242
-0.610886
-1.70059
-3.30286
-5.32598
-7.53711
-9.60309
-11.1815
-12.0368
-12.0412
-11.2385
-9.77087
-7.82524
-5.61349
-3.3851
-1.4063
0.107868
1.0394
1.35748
1.09007
0.304983
-0.905847
-2.43294
-4.15167
-5.93208
-7.63911
-9.1362
-10.2902
-10.9862
-11.1447
-10.7395
-9.80069
-8.4069
-6.67042
-4.71929
-2.68028
-0.664306
1.24388
2.98856
4.53919
5.88416
7.02507
7.97241
8.74249
9.355
9.83092
10.1907
10.4528
10.6324
10.7398
10.7806
10.7533
10.6473
10.4395
10.0942
9.511
8.38278
6.27378
2.92122
-1.47594
-6.14248
-9.9929
-12.042
-11.8588
-9.42244
-5.44297
-1.10944
2.5306
5.1171
6.84243
8.00422
8.81066
9.38562
9.80224
10.1051
10.3234
10.4773
10.5808
10.6416
10.6639
10.6456
10.5811
10.4525
10.2398
9.88363
9.3219
8.31249
6.71114
4.22553
1.8375
-0.744257
-0.193503
-2.92842
-0.23194
-0.209887
-0.17037
-0.114229
-0.057375
-0.0405234
-0.133308
-0.428846
-1.02647
-2.00173
-3.36841
-5.04714
-6.85631
-8.5409
-9.83361
-10.5391
-10.5586
-9.91226
-8.70178
-7.07705
-5.21925
-3.33872
-1.65495
-0.348913
0.471461
0.768814
0.557941
-0.108818
-1.15362
-2.48138
-3.9823
-5.53935
-7.03127
-8.33574
-9.3355
-9.93069
-10.0523
-9.67594
-8.82461
-7.5634
-5.98744
-4.2072
-2.33389
-0.466741
1.31616
2.96109
4.43632
5.72745
6.83268
7.75911
8.5198
9.13146
9.61242
9.98087
10.2534
10.4435
10.5609
10.6101
10.5896
10.4892
10.2867
9.94783
9.39653
8.40124
6.60012
3.74136
-0.0551159
-4.15204
-7.59756
-9.49011
-9.42673
-7.39628
-4.03626
-0.36365
2.77285
5.08582
6.70507
7.84372
8.65984
9.25527
9.69438
10.0183
10.255
10.4242
10.5395
10.6091
10.6372
10.6222
10.5593
10.4311
10.2192
9.86727
9.32338
8.37386
6.91267
4.65002
2.47285
-0.0120191
0.302446
-2.52587
-0.272534
-0.269295
-0.258049
-0.244018
-0.244015
-0.293008
-0.446137
-0.773601
-1.34688
-2.21632
-3.38395
-4.78159
-6.26589
-7.63805
-8.69495
-9.28049
-9.30953
-8.78596
-7.78568
-6.43143
-4.87566
-3.29341
-1.86542
-0.743964
-0.0261703
0.24774
0.0830302
-0.480419
-1.37774
-2.52628
-3.82993
-5.18434
-6.48105
-7.61116
-8.47174
-8.97558
-9.0623
-8.709
-7.93321
-6.78868
-5.35593
-3.73005
-2.00836
-0.279316
1.38556
2.93501
4.33689
5.57468
6.64378
7.54827
8.29825
8.90767
9.39234
9.76827
10.0502
10.2504
10.3773
10.4347
10.4212
10.327
10.1309
9.80059
9.27569
8.38798
6.852
4.4437
1.22309
-2.30876
-5.34389
-7.07703
-7.13924
-5.52091
-2.76744
0.286292
2.96937
5.04027
6.56421
7.6808
8.50568
9.12124
9.58325
9.92911
10.1851
10.3703
10.4982
10.577
10.6114
10.6001
10.5391
10.412
10.2015
9.85437
9.32701
8.43003
7.08962
5.02143
3.02392
0.630054
0.711624
-2.13601
-0.31683
-0.331845
-0.346398
-0.3679
-0.412749
-0.51045
-0.704215
-1.04636
-1.58749
-2.35986
-3.35807
-4.52404
-5.74444
-6.86601
-7.73136
-8.21415
-8.2438
-7.81863
-6.99523
-5.87146
-4.57333
-3.24612
-2.0392
-1.08063
-0.456559
-0.207468
-0.334745
-0.8085
-1.57514
-2.56344
-3.68945
-4.86085
-5.98114
-6.95392
-7.68877
-8.10945
-8.16306
-7.82826
-7.11806
-6.07666
-4.77203
-3.28582
-1.70295
-0.102004
1.45181
2.91006
4.24072
5.42581
6.45843
7.34004
8.07809
8.68393
9.17101
9.55329
9.84375
10.0532
10.1892
10.255
10.2486
10.1612
9.97294
9.65326
9.15222
8.34966
7.03246
5.01573
2.3223
-0.670346
-3.30261
-4.87824
-5.06718
-3.85002
-1.66455
0.834018
3.12233
4.9825
6.42031
7.51517
8.34781
8.98326
9.46875
9.83752
10.1139
10.316
10.4572
10.5458
10.5868
10.5797
10.521
10.3955
10.1871
9.84532
9.3335
8.48265
7.24506
5.34424
3.49674
1.18845
1.04483
-1.7633
-0.363646
-0.395697
-0.433095
-0.484003
-0.5635
-0.696008
-0.914992
-1.25896
-1.76308
-2.44692
-3.30071
-4.27527
-5.28075
-6.1985
-6.90629
-7.30396
-7.33367
-6.98954
-6.31331
-5.38332
-4.30353
-3.19402
-2.17792
-1.36254
-0.823387
-0.599481
-0.696638
-1.09286
-1.74415
-2.58972
-3.55648
-4.56322
-5.52467
-6.35586
-6.97748
-7.32288
-7.34554
-7.02566
-6.37256
-5.42247
-4.23256
-2.87278
-1.41697
0.0652377
1.51467
2.88591
4.14757
5.28073
6.27666
7.13459
7.85954
8.46052
8.94878
9.33629
9.63438
9.85251
9.99733
10.0714
10.0726
9.99266
9.81343
9.50651
9.02907
8.29434
7.15119
5.45848
3.22253
0.719317
-1.53457
-2.96027
-3.26913
-2.42093
-0.73964
1.28281
3.23692
4.91456
6.27328
7.34615
8.18562
8.841
9.3508
9.74367
10.0416
10.2617
10.4168
10.5158
10.5639
10.5614
10.5054
10.3819
10.1762
9.84054
9.34362
8.53361
7.38305
5.62524
3.90033
1.6735
1.31553
-1.41057
-0.41088
-0.458191
-0.515037
-0.589447
-0.694732
-0.850786
-1.08322
-1.41997
-1.88488
-2.48869
-3.21943
-4.0356
-4.86582
-5.61828
-6.19787
-6.52527
-6.55323
-6.27465
-5.72092
-4.95442
-4.05992
-3.13597
-2.28401
-1.59375
-1.13079
-0.931556
-1.00458
-1.33401
-1.88394
-2.60283
-3.42742
-4.28671
-5.1058
-5.81007
-6.3301
-6.60759
-6.60162
-6.29383
-5.69064
-4.82153
-3.73448
-2.48918
-1.14971
0.222447
1.57384
2.8622
4.05715
5.13928
6.09845
6.93198
7.64279
8.23772
8.72597
9.11767
9.42254
9.64877
9.80209
9.88451
9.89387
9.82218
9.65323
9.36104
8.90823
8.22997
7.22255
5.78655
3.92602
1.84172
-0.0758538
-1.36515
-1.77696
-1.24515
0.0139852
1.64432
3.31982
4.83788
6.12231
7.17259
8.01825
8.69394
9.22922
9.64763
9.96847
10.2076
10.3777
10.4876
10.5433
10.5457
10.4928
10.3718
10.1694
9.84041
9.35808
8.58483
7.50821
5.87273
4.2477
2.09771
1.53776
-1.07891
-0.457226
-0.517747
-0.590593
-0.683164
-0.806828
-0.977521
-1.21457
-1.53787
-1.96304
-2.49486
-3.12056
-3.80527
-4.49235
-5.11043
-5.58541
-5.85505
-5.88126
-5.65682
-5.2052
-4.57584
-3.83758
-3.0711
-2.35974
-1.77828
-1.38309
-1.2074
-1.26117
-1.53324
-1.9945
-2.60147
-3.29974
-4.02759
-4.7196
-5.31051
-5.73968
-5.9562
-5.92402
-5.62621
-5.06681
-4.26972
-3.27501
-2.13349
-0.900571
0.369617
1.62901
2.83853
3.96911
5.00122
5.92369
6.73227
7.42799
8.01578
8.50293
8.89782
9.20869
9.44252
9.60413
9.69507
9.71307
9.65064
9.49324
9.21763
8.79104
8.16304
7.26251
6.02444
4.45737
2.71073
1.07438
-0.0959368
-0.585271
-0.304674
0.619547
1.93509
3.37737
4.75266
5.96573
6.99288
7.84458
8.54144
9.10375
9.5495
9.89488
10.1544
10.3402
10.4618
10.5255
10.5331
10.4837
10.3656
10.167
9.84528
9.37748
8.63803
7.62501
6.09526
4.55097
2.47366
1.72405
-0.768057
-0.501336
-0.572893
-0.658399
-0.764362
-0.900228
-1.07855
-1.31368
-1.61948
-2.00569
-2.47316
-3.00921
-3.58469
-4.15468
-4.66348
-5.05351
-5.27605
-5.30064
-5.12057
-4.75362
-4.23901
-3.63229
-2.99913
-2.4078
-1.92035
-1.58487
-1.43109
-1.46948
-1.6924
-2.07637
-2.5849
-3.17146
-3.78271
-4.36178
-4.85186
-5.20014
-5.36222
-5.30634
-5.01693
-4.49618
-3.7633
-2.85163
-1.80427
-0.668994
0.506719
1.67983
2.81446
3.88305
4.86626
5.75224
6.53542
7.21526
7.79492
8.27996
8.67716
8.99334
9.23432
9.40411
9.50377
9.53104
9.47893
9.33441
9.07709
8.67843
8.09801
7.2855
6.2004
4.85671
3.36971
1.95599
0.886968
0.347996
0.442527
1.10975
2.17211
3.41399
4.65763
5.80114
6.805
7.66314
8.38261
8.97406
9.44933
9.82117
10.1024
10.3051
10.4389
10.5111
10.5243
10.4787
10.3638
10.1693
9.8555
9.4023
8.69459
7.73726
6.30012
4.82161
2.81207
1.88413
-0.477175
-0.54209
-0.622493
-0.717528
-0.832726
-0.97574
-1.15629
-1.38483
-1.67074
-2.01962
-2.42983
-2.88938
-3.37405
-3.8481
-4.26801
-4.58907
-4.77332
-4.79663
-4.65317
-4.35649
-3.93756
-3.44103
-2.92017
-2.43071
-2.02396
-1.74061
-1.60679
-1.63285
-1.81375
-2.1306
-2.55293
-3.04117
-3.54947
-4.02866
-4.42949
-4.70613
-4.81989
-4.74285
-4.46075
-3.97432
-3.29887
-2.46203
-1.50021
-0.454471
0.633709
1.72596
2.78953
3.79852
4.73406
5.58386
6.34137
7.00465
7.57532
8.05738
8.4561
8.77699
9.02479
9.20271
9.31141
9.34861
9.30792
9.17772
8.94028
8.57117
8.03751
7.30217
6.33996
5.16819
3.87832
2.6362
1.65301
1.08854
1.04971
1.51764
2.36865
3.43106
4.55012
5.62545
6.60635
7.47205
8.21629
8.83963
9.34717
9.74772
10.0525
10.2731
10.4198
10.5008
10.5198
10.4782
10.3668
10.1769
9.87135
9.43289
8.75539
7.84792
6.49246
5.06822
3.12076
2.02486
-0.205682
-0.578963
-0.666132
-0.76789
-0.888795
-1.03491
-1.21362
-1.43234
-1.6972
-2.01092
-2.3704
-2.76468
-3.17368
-3.56895
-3.91647
-4.1816
-4.33483
-4.35721
-4.24386
-4.00519
-3.66568
-3.2611
-2.83445
-2.43105
-2.09313
-1.85483
-1.73884
-1.75492
-1.8999
-2.15865
-2.50582
-2.90793
-3.32579
-3.71709
-4.03934
-4.25286
-4.32407
-4.22844
-3.95294
-3.49722
-2.87334
-2.10409
-1.2201
-0.256523
0.750531
1.76702
2.76324
3.71502
4.60418
5.41827
6.14995
6.79614
7.35711
7.83544
8.23503
8.56015
8.81453
9.00065
9.1188
9.16668
9.13853
9.02409
8.80806
8.46988
7.98288
7.3189
6.46155
5.4288
4.29408
3.18791
2.2791
1.70449
1.56503
1.86773
2.53152
3.42708
4.42636
5.43484
6.39368
7.26887
8.04098
8.69981
9.243
9.67501
10.0051
10.2448
10.4051
10.4953
10.5204
10.4829
10.3752
10.1901
9.89315
9.46954
8.82101
7.95896
6.67586
5.29689
3.40492
2.15102
0.0462445
-0.610934
-0.702906
-0.808887
-0.932534
-1.07854
-1.25245
-1.45923
-1.70278
-1.98384
-2.29863
-2.63727
-2.98318
-3.3137
-3.60228
-3.82206
-3.95022
-3.97195
-3.88336
-3.69249
-3.41868
-3.09045
-2.7424
-2.41124
-2.13156
-1.93181
-1.83141
-1.83931
-1.9536
-2.1622
-2.44412
-2.77116
-3.10996
-3.42435
-3.67778
-3.83608
-3.87013
-3.75845
-3.48919
-3.06119
-2.48385
-1.77581
-0.962782
-0.0747036
0.857118
1.80263
2.73503
3.63199
4.47615
5.25509
5.96093
6.58967
7.14038
7.61438
8.0143
8.3433
8.60417
8.79867
8.92677
8.98617
8.9717
8.87442
8.68127
8.37513
7.93469
7.33852
6.57552
5.66232
4.65774
3.66656
2.8229
2.24234
2.01672
2.17127
2.66168
3.39873
4.28176
5.22463
6.16288
7.0505
7.85472
8.55373
9.13678
9.60349
9.96114
10.2213
10.3958
10.4955
10.5268
10.4935
10.3895
10.2093
9.92117
9.51245
8.89185
8.07153
6.85284
5.51208
3.66805
2.26646
0.277474
-0.638445
-0.733473
-0.841546
-0.965524
-1.10893
-1.27572
-1.46951
-1.69213
-1.94319
-2.21862
-2.50974
-2.80291
-3.08008
-3.32053
-3.50347
-3.61129
-3.63254
-3.56416
-3.41243
-3.19263
-2.92744
-2.64457
-2.37366
-2.14288
-1.97575
-1.88873
-1.88976
-1.97782
-2.14326
-2.36875
-2.63064
-2.90071
-3.14815
-3.3417
-3.45201
-3.45394
-3.32872
-3.06562
-2.66289
-2.12774
-1.47536
-0.727175
0.0914111
0.953395
1.83239
2.70436
3.54883
4.34938
5.09385
5.774
6.38506
6.92512
7.39434
7.79426
8.12695
8.39432
8.59752
8.73616
8.80799
8.80838
8.72963
8.56069
8.2875
7.89325
7.36182
6.68576
5.87937
4.98913
4.09782
3.30933
2.72073
2.41529
2.43178
2.75793
3.34199
4.11083
4.98902
5.9088
6.81304
7.65511
8.4003
9.02846
9.53372
9.92146
10.2035
10.393
10.5023
10.5397
10.5104
10.4102
10.2349
9.95578
9.56195
8.96838
8.18671
7.02559
5.71769
3.91296
2.37485
0.485728
-0.660241
-0.756755
-0.865111
-0.987495
-1.12649
-1.28491
-1.46497
-1.66746
-1.8912
-2.13213
-2.38272
-2.63178
-2.86496
-3.06608
-3.21909
-3.31042
-3.33127
-3.27933
-3.15953
-2.98392
-2.7705
-2.54138
-2.32036
-2.13028
-1.99045
-1.91464
-1.90977
-1.97538
-2.10377
-2.28066
-2.48631
-2.69696
-2.88648
-3.02827
-3.09724
-3.07174
-2.93542
-2.67861
-2.29918
-1.80255
-1.20099
-0.512255
0.242222
1.03927
1.85586
2.6706
3.46484
4.22325
4.934
5.58872
6.18205
6.71123
7.17544
7.57516
7.91151
8.1856
8.39793
8.54784
8.63307
8.64954
8.59062
8.44711
8.2076
7.85895
7.38918
6.79334
6.08314
5.29404
4.48895
3.74703
3.14821
2.76672
2.65154
2.81867
3.25201
3.90682
4.72083
5.62503
6.55161
7.43907
8.23818
8.9179
9.46637
9.88711
10.1925
10.3976
10.5167
10.5599
10.5343
10.4376
10.2673
9.99716
9.61833
9.05099
8.30576
7.19633
5.91758
4.14206
2.4799
0.666874
-0.677994
-0.774648
-0.881802
-1.00108
-1.13431
-1.28341
-1.44963
-1.63301
-1.83196
-2.04262
-2.25853
-2.47054
-2.66727
-2.83607
-2.96457
-3.04237
-3.06273
-3.02393
-2.9299
-2.79013
-2.61886
-2.43367
-2.25359
-2.09702
-1.97971
-1.91306
-1.90297
-1.94933
-2.04596
-2.18114
-2.33847
-2.49801
-2.63774
-2.73513
-2.7688
-2.7202
-2.57513
-2.32495
-1.96725
-1.50603
-0.951091
-0.317059
0.3781
1.11465
1.87261
2.6331
3.37929
4.09698
4.77487
5.40455
5.98026
6.49853
6.95766
7.3572
7.6974