/*--------------------------------*- C++ -*----------------------------------*\
  =========                 |
  \\      /  F ield         | OpenFOAM: The Open Source CFD Toolbox
   \\    /   O peration     | Website:  https://openfoam.org
    \\  /    A nd           | Version:  10
     \\/     M anipulation  |
\*---------------------------------------------------------------------------*/
FoamFile
{
    format      ascii;
    class       volVectorField;
    location    "0.17";
    object      U;
}
// * * * * * * * * * * * * * * * * * * * * * * * * * * * * * * * * * * * * * //

dimensions      [0 1 -1 0 0 0 0];

internalField   nonuniform List<vector> 
6820
(
(5.57346 0.459194 0)
(3.88249 0.245986 0)
(2.58796 0.00888858 0)
(1.95516 -0.0640649 0)
(1.72883 -0.0593377 0)
(1.61654 -0.0338568 0)
(1.55031 -0.0152008 0)
(1.50297 -0.00513735 0)
(1.46286 -0.000545347 0)
(1.42783 0.000965542 0)
(1.39731 0.0010356 0)
(1.37081 0.000549878 0)
(1.34782 -8.21548e-05 0)
(1.3278 -0.000679599 0)
(1.31026 -0.00117362 0)
(1.29475 -0.00154954 0)
(1.28091 -0.00181624 0)
(1.26843 -0.00199038 0)
(1.25706 -0.00208916 0)
(1.2466 -0.00212784 0)
(1.23686 -0.00211913 0)
(1.22768 -0.0020734 0)
(1.21894 -0.00199934 0)
(1.21052 -0.00190379 0)
(1.20231 -0.00179509 0)
(1.19425 -0.00167574 0)
(1.18622 -0.00156995 0)
(1.17839 -0.00144502 0)
(1.1702 -0.00146094 0)
(1.16354 -0.00120508 0)
(1.15356 -0.00217057 0)
(1.15582 0.00143688 0)
(1.12672 -0.0227115 0)
(7.6698 0.864051 0)
(7.71682 0.891146 0)
(6.99863 0.598904 0)
(6.19469 0.348068 0)
(5.57973 0.180222 0)
(5.13329 0.0938254 0)
(4.81437 0.0535783 0)
(4.58354 0.0352233 0)
(4.40978 0.0268935 0)
(4.2738 0.0227306 0)
(4.16387 0.0202658 0)
(4.07265 0.0185617 0)
(3.99543 0.0172462 0)
(3.92904 0.0161578 0)
(3.87124 0.0152163 0)
(3.82041 0.0143826 0)
(3.77531 0.0136384 0)
(3.73499 0.0129758 0)
(3.69867 0.0123918 0)
(3.66574 0.011886 0)
(3.63566 0.0114592 0)
(3.60801 0.0111123 0)
(3.58239 0.0108456 0)
(3.55849 0.0106586 0)
(3.53601 0.0105446 0)
(3.51471 0.0105013 0)
(3.49437 0.0104851 0)
(3.47487 0.0105299 0)
(3.45602 0.0103426 0)
(3.43819 0.0103703 0)
(3.42067 0.00855951 0)
(3.40737 0.00790617 0)
(3.39343 -0.00152821 0)
(7.56353 0.520508 0)
(8.22507 0.664143 0)
(8.46422 0.577123 0)
(8.36238 0.459866 0)
(8.12524 0.346022 0)
(7.84675 0.261345 0)
(7.57474 0.201876 0)
(7.3291 0.159245 0)
(7.11315 0.128301 0)
(6.92494 0.10536 0)
(6.76121 0.0879354 0)
(6.61855 0.074448 0)
(6.49383 0.0638604 0)
(6.38436 0.0554629 0)
(6.28785 0.0487403 0)
(6.20237 0.0433095 0)
(6.1263 0.0388872 0)
(6.05828 0.0352645 0)
(5.99714 0.0322873 0)
(5.94192 0.0298411 0)
(5.89178 0.0278406 0)
(5.846 0.0262213 0)
(5.80397 0.0249333 0)
(5.76517 0.0239366 0)
(5.72911 0.0231943 0)
(5.69541 0.0226726 0)
(5.66371 0.0223148 0)
(5.63374 0.0220834 0)
(5.60519 0.0217629 0)
(5.57795 0.0214083 0)
(5.55168 0.0197893 0)
(5.52575 0.0176755 0)
(5.49952 0.00975163 0)
(7.43335 0.341289 0)
(7.88455 0.515096 0)
(8.24308 0.490672 0)
(8.44136 0.431352 0)
(8.54052 0.360619 0)
(8.56976 0.30052 0)
(8.55361 0.254891 0)
(8.51166 0.219863 0)
(8.45495 0.192436 0)
(8.38991 0.170358 0)
(8.32074 0.152049 0)
(8.25017 0.136555 0)
(8.18001 0.123257 0)
(8.11157 0.11173 0)
(8.04564 0.101695 0)
(7.98268 0.0929399 0)
(7.92292 0.0852959 0)
(7.86642 0.0786212 0)
(7.81314 0.0727992 0)
(7.76298 0.0677332 0)
(7.71576 0.0633435 0)
(7.67131 0.0595637 0)
(7.62942 0.0563377 0)
(7.58988 0.0536166 0)
(7.55248 0.0513531 0)
(7.51699 0.0495011 0)
(7.48321 0.0479949 0)
(7.45094 0.0467739 0)
(7.41995 0.0456634 0)
(7.39001 0.0446052 0)
(7.3608 0.0430023 0)
(7.33119 0.0409979 0)
(7.30143 0.0381498 0)
(7.3968 0.251264 0)
(7.67981 0.421742 0)
(7.92297 0.405166 0)
(8.07663 0.355716 0)
(8.18677 0.301555 0)
(8.26866 0.256476 0)
(8.32903 0.223152 0)
(8.37518 0.197912 0)
(8.41105 0.178013 0)
(8.43867 0.161808 0)
(8.45959 0.148203 0)
(8.47503 0.136539 0)
(8.48591 0.126408 0)
(8.49279 0.117524 0)
(8.4963 0.109675 0)
(8.49701 0.102702 0)
(8.49543 0.0964886 0)
(8.49197 0.0909457 0)
(8.487 0.0860056 0)
(8.4808 0.0816164 0)
(8.47361 0.0777383 0)
(8.46563 0.0743401 0)
(8.45701 0.0713966 0)
(8.44787 0.0688857 0)
(8.43829 0.0667845 0)
(8.42835 0.0650674 0)
(8.41807 0.0636941 0)
(8.40745 0.0626199 0)
(8.39644 0.061743 0)
(8.38489 0.0610069 0)
(8.37258 0.0601864 0)
(8.35868 0.0594093 0)
(8.34312 0.0588588 0)
(7.37401 0.180951 0)
(7.57395 0.336911 0)
(7.76037 0.343645 0)
(7.87444 0.315014 0)
(7.95017 0.276403 0)
(8.00499 0.238827 0)
(8.04584 0.208092 0)
(8.07935 0.183668 0)
(8.10898 0.164085 0)
(8.13587 0.148205 0)
(8.16058 0.135076 0)
(8.1834 0.124002 0)
(8.20452 0.114536 0)
(8.22418 0.106372 0)
(8.24246 0.0992643 0)
(8.25944 0.0930333 0)
(8.27518 0.0875492 0)
(8.28976 0.0827163 0)
(8.30322 0.0784633 0)
(8.31565 0.0747364 0)
(8.32709 0.0714953 0)
(8.33763 0.0687095 0)
(8.34731 0.0663554 0)
(8.35619 0.0644142 0)
(8.36431 0.0628681 0)
(8.37172 0.0616993 0)
(8.37842 0.0608829 0)
(8.38441 0.0603938 0)
(8.38964 0.0601871 0)
(8.39399 0.0602505 0)
(8.39725 0.0605663 0)
(8.39904 0.0613082 0)
(8.39908 0.0629067 0)
(7.35904 0.13306 0)
(7.50315 0.274048 0)
(7.65522 0.296499 0)
(7.75478 0.280375 0)
(7.82031 0.251454 0)
(7.86656 0.220217 0)
(7.89917 0.193223 0)
(7.92385 0.171218 0)
(7.94433 0.153229 0)
(7.96223 0.13839 0)
(7.9784 0.125972 0)
(7.99338 0.115417 0)
(8.00744 0.106332 0)
(8.02075 0.0984436 0)
(8.0334 0.0915525 0)
(8.04547 0.0855125 0)
(8.05699 0.0802106 0)
(8.06799 0.0755584 0)
(8.0785 0.0714864 0)
(8.08851 0.067941 0)
(8.09806 0.0648807 0)
(8.10714 0.062274 0)
(8.11576 0.060097 0)
(8.12395 0.0583313 0)
(8.1317 0.0569621 0)
(8.13901 0.0559778 0)
(8.14586 0.0553664 0)
(8.15222 0.0551225 0)
(8.15803 0.0552413 0)
(8.16317 0.0557553 0)
(8.16748 0.0567236 0)
(8.17073 0.0583617 0)
(8.17274 0.060929 0)
(7.34963 0.0993913 0)
(7.45326 0.221535 0)
(7.576 0.252039 0)
(7.66426 0.246017 0)
(7.72547 0.22706 0)
(7.77046 0.20363 0)
(7.80304 0.181524 0)
(7.8275 0.162384 0)
(7.84722 0.146014 0)
(7.86391 0.132056 0)
(7.8785 0.120128 0)
(7.89163 0.109861 0)
(7.90366 0.100964 0)
(7.91484 0.0932173 0)
(7.9253 0.0864511 0)
(7.93517 0.0805269 0)
(7.94451 0.0753351 0)
(7.95337 0.07079 0)
(7.9618 0.0668249 0)
(7.96982 0.063388 0)
(7.97744 0.0604402 0)
(7.9847 0.0579517 0)
(7.9916 0.0559008 0)
(7.99814 0.054272 0)
(8.00433 0.0530552 0)
(8.01016 0.0522458 0)
(8.0156 0.0518439 0)
(8.02063 0.051861 0)
(8.02517 0.052321 0)
(8.02914 0.0532843 0)
(8.03242 0.0548514 0)
(8.03485 0.0572375 0)
(8.03636 0.060667 0)
(7.3438 0.0754623 0)
(7.41904 0.179666 0)
(7.51753 0.214745 0)
(7.59445 0.216376 0)
(7.65037 0.204581 0)
(7.6931 0.186711 0)
(7.72535 0.168166 0)
(7.75021 0.151295 0)
(7.7705 0.136465 0)
(7.78773 0.123593 0)
(7.80278 0.112466 0)
(7.81625 0.102815 0)
(7.82852 0.0944069 0)
(7.83985 0.0870542 0)
(7.85039 0.0806077 0)
(7.86027 0.0749478 0)
(7.86957 0.0699804 0)
(7.87836 0.0656314 0)
(7.88669 0.0618422 0)
(7.89459 0.0585671 0)
(7.90209 0.055771 0)
(7.90921 0.0534278 0)
(7.91597 0.0515191 0)
(7.92239 0.0500335 0)
(7.92845 0.0489664 0)
(7.93417 0.0483205 0)
(7.93952 0.0481074 0)
(7.94449 0.0483526 0)
(7.94902 0.0491007 0)
(7.95305 0.0504307 0)
(7.95653 0.0524625 0)
(7.95935 0.0554046 0)
(7.96154 0.0594541 0)
(7.34016 0.0582452 0)
(7.39537 0.146073 0)
(7.4742 0.182291 0)
(7.54067 0.188946 0)
(7.59134 0.182544 0)
(7.63148 0.169577 0)
(7.6629 0.154712 0)
(7.68771 0.140419 0)
(7.70816 0.127377 0)
(7.72563 0.115721 0)
(7.74092 0.10542 0)
(7.75461 0.0963447 0)
(7.76709 0.0883498 0)
(7.7786 0.081306 0)
(7.78932 0.0751022 0)
(7.79937 0.0696432 0)
(7.80885 0.0648498 0)
(7.8178 0.0606568 0)
(7.82629 0.0570113 0)
(7.83436 0.0538716 0)
(7.84202 0.0512055 0)
(7.84932 0.0489897 0)
(7.85627 0.0472087 0)
(7.86288 0.0458543 0)
(7.86916 0.0449264 0)
(7.87511 0.0444336 0)
(7.88074 0.0443955 0)
(7.88603 0.0448469 0)
(7.89095 0.0458435 0)
(7.89548 0.0474716 0)
(7.89959 0.049854 0)
(7.90326 0.0531809 0)
(7.90654 0.05762 0)
(7.33787 0.045619 0)
(7.37889 0.119067 0)
(7.44203 0.154394 0)
(7.49918 0.164459 0)
(7.54489 0.162211 0)
(7.58229 0.153209 0)
(7.61253 0.141393 0)
(7.637 0.129225 0)
(7.65744 0.117661 0)
(7.67504 0.107044 0)
(7.69054 0.0974914 0)
(7.70444 0.0889789 0)
(7.71712 0.0814246 0)
(7.72883 0.0747374 0)
(7.73974 0.0688303 0)
(7.74996 0.0636238 0)
(7.75959 0.0590493 0)
(7.76871 0.0550493 0)
(7.77736 0.0515771 0)
(7.78558 0.0485954 0)
(7.79342 0.0460754 0)
(7.80089 0.0439967 0)
(7.80803 0.0423464 0)
(7.81484 0.0411194 0)
(7.82135 0.0403188 0)
(7.82757 0.0399571 0)
(7.8335 0.0400588 0)
(7.83914 0.0406633 0)
(7.84449 0.0418298 0)
(7.84956 0.0436439 0)
(7.85435 0.0462202 0)
(7.8589 0.0497251 0)
(7.86328 0.054291 0)
(7.33641 0.0361787 0)
(7.36732 0.0972978 0)
(7.418 0.130402 0)
(7.46693 0.142383 0)
(7.50794 0.143039 0)
(7.5426 0.137101 0)
(7.57152 0.127898 0)
(7.59553 0.117737 0)
(7.6159 0.107688 0)
(7.63362 0.0982077 0)
(7.64931 0.0895034 0)
(7.66343 0.0816301 0)
(7.67634 0.0745653 0)
(7.68827 0.0682599 0)
(7.69938 0.0626572 0)
(7.70981 0.0576996 0)
(7.71964 0.0533342 0)
(7.72895 0.0495142 0)
(7.73778 0.0462003 0)
(7.7462 0.0433603 0)
(7.75423 0.0409691 0)
(7.76191 0.0390089 0)
(7.76926 0.0374692 0)
(7.77632 0.0363469 0)
(7.78309 0.0356471 0)
(7.7896 0.0353845 0)
(7.79586 0.0355849 0)
(7.80189 0.0362883 0)
(7.80772 0.0375515 0)
(7.81336 0.0394528 0)
(7.81885 0.0420912 0)
(7.82426 0.0456048 0)
(7.82969 0.0500884 0)
(7.33547 0.0289706 0)
(7.35911 0.0796393 0)
(7.39996 0.109764 0)
(7.44177 0.122568 0)
(7.47844 0.125225 0)
(7.51042 0.121665 0)
(7.5379 0.114644 0)
(7.56127 0.106221 0)
(7.58144 0.0975009 0)
(7.59918 0.0890228 0)
(7.61502 0.081071 0)
(7.62936 0.0737711 0)
(7.6425 0.0671544 0)
(7.65467 0.0612087 0)
(7.66603 0.0559021 0)
(7.67669 0.0511945 0)
(7.68676 0.047044 0)
(7.69629 0.0434118 0)
(7.70536 0.0402636 0)
(7.714 0.037571 0)
(7.72227 0.0353115 0)
(7.73018 0.033469 0)
(7.73779 0.0320343 0)
(7.74511 0.0310052 0)
(7.75217 0.0303872 0)
(7.759 0.0301948 0)
(7.76562 0.0304526 0)
(7.77208 0.0311972 0)
(7.77839 0.0324788 0)
(7.78461 0.0343636 0)
(7.7908 0.0369314 0)
(7.79705 0.0402901 0)
(7.80346 0.0444981 0)
(7.33485 0.0233486 0)
(7.35322 0.0652062 0)
(7.38635 0.0919908 0)
(7.42207 0.104778 0)
(7.45478 0.108656 0)
(7.48418 0.10681 0)
(7.51016 0.101513 0)
(7.53279 0.0945624 0)
(7.55267 0.0870374 0)
(7.57038 0.0795145 0)
(7.58633 0.07232 0)
(7.60085 0.0656228 0)
(7.61423 0.059491 0)
(7.62664 0.0539405 0)
(7.63825 0.0489603 0)
(7.64916 0.0445259 0)
(7.65947 0.0406071 0)
(7.66925 0.0371736 0)
(7.67856 0.0341972 0)
(7.68744 0.0316535 0)
(7.69595 0.0295228 0)
(7.70412 0.027791 0)
(7.71198 0.0264496 0)
(7.71958 0.0254966 0)
(7.72694 0.0249369 0)
(7.73411 0.024783 0)
(7.7411 0.0250561 0)
(7.74798 0.0257868 0)
(7.75478 0.0270159 0)
(7.76156 0.0287949 0)
(7.76841 0.0311828 0)
(7.77541 0.0342571 0)
(7.78269 0.0380436 0)
(7.33443 0.0188709 0)
(7.34893 0.0532954 0)
(7.37602 0.0766323 0)
(7.40659 0.0887917 0)
(7.43575 0.0932765 0)
(7.46274 0.0926114 0)
(7.48722 0.0886516 0)
(7.50905 0.0829272 0)
(7.52855 0.0764394 0)
(7.54615 0.0697677 0)
(7.56215 0.0632594 0)
(7.57683 0.0571131 0)
(7.59041 0.0514276 0)
(7.60305 0.0462431 0)
(7.61491 0.0415675 0)
(7.62607 0.0373902 0)
(7.63664 0.033691 0)
(7.64667 0.0304465 0)
(7.65623 0.027633 0)
(7.66536 0.0252291 0)
(7.67413 0.0232168 0)
(7.68256 0.0215825 0)
(7.69069 0.0203176 0)
(7.69858 0.019419 0)
(7.70624 0.0188893 0)
(7.71374 0.0187377 0)
(7.7211 0.01898 0)
(7.72839 0.019639 0)
(7.73565 0.0207441 0)
(7.74296 0.0223313 0)
(7.75039 0.0244386 0)
(7.75807 0.0271157 0)
(7.76608 0.0303607 0)
(7.33413 0.0152313 0)
(7.34578 0.0433557 0)
(7.36814 0.0632945 0)
(7.39442 0.0743934 0)
(7.42043 0.0789932 0)
(7.4452 0.0790471 0)
(7.46822 0.0760543 0)
(7.48921 0.0712958 0)
(7.5083 0.0656739 0)
(7.52573 0.0597481 0)
(7.54175 0.0538692 0)
(7.55655 0.0482504 0)
(7.57031 0.0430084 0)
(7.58319 0.0381996 0)
(7.59528 0.0338447 0)
(7.6067 0.0299431 0)
(7.61752 0.026482 0)
(7.6278 0.0234433 0)
(7.63761 0.0208071 0)
(7.64701 0.0185541 0)
(7.65602 0.0166676 0)
(7.66471 0.0151342 0)
(7.67312 0.0139443 0)
(7.68128 0.0130931 0)
(7.68924 0.0125804 0)
(7.69705 0.0124106 0)
(7.70476 0.0125934 0)
(7.71243 0.0131427 0)
(7.72011 0.0140762 0)
(7.72788 0.0154146 0)
(7.73582 0.0171766 0)
(7.74404 0.019387 0)
(7.75264 0.0220221 0)
(7.33392 0.012214 0)
(7.34343 0.0349551 0)
(7.36211 0.0516305 0)
(7.38483 0.0613733 0)
(7.40811 0.0657009 0)
(7.43088 0.0660926 0)
(7.45253 0.0637466 0)
(7.47268 0.0597201 0)
(7.49131 0.054803 0)
(7.50856 0.0495146 0)
(7.52455 0.044193 0)
(7.53945 0.0390532 0)
(7.55338 0.0342209 0)
(7.56646 0.029763 0)
(7.57879 0.0257093 0)
(7.59045 0.022067 0)
(7.60152 0.0188294 0)
(7.61205 0.0159825 0)
(7.62212 0.013509 0)
(7.63176 0.0113914 0)
(7.64103 0.00961336 0)
(7.64998 0.00816074 0)
(7.65864 0.00702259 0)
(7.66707 0.00619137 0)
(7.67532 0.0056631 0)
(7.68343 0.00543724 0)
(7.69145 0.00551641 0)
(7.69946 0.00590567 0)
(7.7075 0.00661134 0)
(7.71566 0.00763987 0)
(7.72402 0.00899318 0)
(7.73268 0.0106754 0)
(7.74172 0.012647 0)
(7.33376 0.00966415 0)
(7.34167 0.0277547 0)
(7.35748 0.0413394 0)
(7.37728 0.0495325 0)
(7.39822 0.0532863 0)
(7.41921 0.0536985 0)
(7.4396 0.0517155 0)
(7.45895 0.048198 0)
(7.47713 0.0438225 0)
(7.49417 0.0390571 0)
(7.51013 0.0342172 0)
(7.52511 0.0295106 0)
(7.53919 0.0250641 0)
(7.55246 0.0209489 0)
(7.56502 0.0171994 0)
(7.57692 0.0138268 0)
(7.58823 0.0108275 0)
(7.59901 0.0081897 0)
(7.60932 0.00589728 0)
(7.61921 0.00393286 0)
(7.62872 0.00227929 0)
(7.63791 0.000921239 0)
(7.64682 -0.000154491 0)
(7.6555 -0.000958627 0)
(7.664 -0.0014994 0)
(7.67237 -0.00178282 0)
(7.68068 -0.00181324 0)
(7.68897 -0.00159418 0)
(7.69731 -0.00112974 0)
(7.70578 -0.000425801 0)
(7.71445 0.000505739 0)
(7.72343 0.00165244 0)
(7.73276 0.00296407 0)
(7.33364 0.00746761 0)
(7.34034 0.0214867 0)
(7.35392 0.0321603 0)
(7.37136 0.0386816 0)
(7.39031 0.0416277 0)
(7.40976 0.0417989 0)
(7.42904 0.0399334 0)
(7.44766 0.0367236 0)
(7.46541 0.0327366 0)
(7.48225 0.0283821 0)
(7.49817 0.0239446 0)
(7.51321 0.0196156 0)
(7.52744 0.0155155 0)
(7.5409 0.0117142 0)
(7.55368 0.00824675 0)
(7.56581 0.00512506 0)
(7.57736 0.00234687 0)
(7.58839 -9.90571e-05 0)
(7.59894 -0.00222864 0)
(7.60906 -0.00405973 0)
(7.61881 -0.00561052 0)
(7.62822 -0.0068981 0)
(7.63736 -0.00793819 0)
(7.64627 -0.00874484 0)
(7.655 -0.00933053 0)
(7.66361 -0.00970653 0)
(7.67214 -0.0098836 0)
(7.68067 -0.0098729 0)
(7.68925 -0.0096874 0)
(7.69794 -0.00934299 0)
(7.70683 -0.00886213 0)
(7.71599 -0.00826929 0)
(7.72548 -0.00762044 0)
(7.33356 0.00553844 0)
(7.33934 0.0159381 0)
(7.35119 0.0238683 0)
(7.36674 0.0286437 0)
(7.38406 0.0306014 0)
(7.4022 0.0303164 0)
(7.42051 0.0283583 0)
(7.43848 0.0252767 0)
(7.45586 0.0215377 0)
(7.47251 0.0174906 0)
(7.4884 0.0133837 0)
(7.50351 0.00938729 0)
(7.51788 0.00561032 0)
(7.53153 0.0021157 0)
(7.54452 -0.00106468 0)
(7.55688 -0.0039207 0)
(7.56866 -0.00645625 0)
(7.57992 -0.00868409 0)
(7.59069 -0.0106217 0)
(7.60104 -0.0122889 0)
(7.611 -0.0137059 0)
(7.62063 -0.0148925 0)
(7.62997 -0.0158678 0)
(7.63907 -0.0166494 0)
(7.648 -0.0172542 0)
(7.65679 -0.0176985 0)
(7.6655 -0.0179991 0)
(7.6742 -0.0181736 0)
(7.68293 -0.0182423 0)
(7.69177 -0.0182287 0)
(7.70077 -0.0181631 0)
(7.71001 -0.0180783 0)
(7.71953 -0.0180321 0)
(7.33349 0.0038097 0)
(7.33858 0.0109351 0)
(7.34911 0.0162651 0)
(7.36318 0.0192484 0)
(7.37918 0.0200757 0)
(7.39625 0.0191556 0)
(7.41376 0.0169216 0)
(7.4312 0.0138041 0)
(7.44826 0.010177 0)
(7.46478 0.00632889 0)
(7.48067 0.00246833 0)
(7.49588 -0.00126075 0)
(7.5104 -0.00476591 0)
(7.52425 -0.00799476 0)
(7.53745 -0.0109223 0)
(7.55004 -0.013543 0)
(7.56206 -0.0158645 0)
(7.57354 -0.017902 0)
(7.58454 -0.0196756 0)
(7.5951 -0.0212074 0)
(7.60526 -0.0225202 0)
(7.61508 -0.0236366 0)
(7.62461 -0.0245786 0)
(7.63388 -0.0253673 0)
(7.64297 -0.0260235 0)
(7.6519 -0.0265679 0)
(7.66075 -0.0270217 0)
(7.66955 -0.027408 0)
(7.67838 -0.0277523 0)
(7.68727 -0.0280833 0)
(7.6963 -0.0284358 0)
(7.70551 -0.0288474 0)
(7.71494 -0.0293744 0)
(7.33344 0.00222828 0)
(7.33802 0.00633657 0)
(7.34756 0.00917936 0)
(7.3605 0.0103388 0)
(7.37547 0.00992282 0)
(7.39171 0.00822147 0)
(7.40859 0.00556209 0)
(7.42561 0.00227474 0)
(7.44245 -0.00134649 0)
(7.45889 -0.00507164 0)
(7.4748 -0.00873348 0)
(7.49012 -0.0122174 0)
(7.50481 -0.0154521 0)
(7.51886 -0.0183989 0)
(7.53228 -0.0210437 0)
(7.5451 -0.0233893 0)
(7.55733 -0.0254492 0)
(7.56904 -0.027244 0)
(7.58024 -0.0287978 0)
(7.59099 -0.0301368 0)
(7.60133 -0.0312875 0)
(7.61132 -0.0322758 0)
(7.62099 -0.0331272 0)
(7.6304 -0.0338666 0)
(7.63959 -0.0345183 0)
(7.64862 -0.0351069 0)
(7.65754 -0.0356576 0)
(7.6664 -0.0361972 0)
(7.67524 -0.0367549 0)
(7.68412 -0.0373628 0)
(7.69308 -0.038058 0)
(7.70217 -0.0388803 0)
(7.71142 -0.0398825 0)
(7.33341 0.000747343 0)
(7.33762 0.00201613 0)
(7.34645 0.00245017 0)
(7.35857 0.00175441 0)
(7.37278 -3.9985e-06 0)
(7.38841 -0.00261844 0)
(7.40486 -0.00584626 0)
(7.42161 -0.00944103 0)
(7.43833 -0.0131814 0)
(7.45478 -0.0168936 0)
(7.4708 -0.0204525 0)
(7.48629 -0.0237749 0)
(7.50119 -0.0268122 0)
(7.51547 -0.029543 0)
(7.52914 -0.0319656 0)
(7.54219 -0.0340919 0)
(7.55467 -0.035943 0)
(7.56659 -0.037545 0)
(7.578 -0.0389272 0)
(7.58894 -0.0401197 0)
(7.59945 -0.0411528 0)
(7.60958 -0.0420558 0)
(7.61937 -0.0428575 0)
(7.62888 -0.0435858 0)
(7.63815 -0.0442682 0)
(7.64723 -0.044932 0)
(7.65617 -0.0456052 0)
(7.66502 -0.0463172 0)
(7.67381 -0.0470988 0)
(7.6826 -0.0479837 0)
(7.69142 -0.0490088 0)
(7.70031 -0.0502133 0)
(7.70929 -0.0516445 0)
(7.33338 -0.00066922 0)
(7.33736 -0.00213047 0)
(7.34571 -0.00406462 0)
(7.35728 -0.00664978 0)
(7.371 -0.00983118 0)
(7.38625 -0.0134568 0)
(7.40244 -0.0173483 0)
(7.41907 -0.0213262 0)
(7.43579 -0.0252342 0)
(7.45233 -0.0289521 0)
(7.4685 -0.0323979 0)
(7.48419 -0.0355232 0)
(7.49932 -0.0383068 0)
(7.51385 -0.0407487 0)
(7.52776 -0.0428639 0)
(7.54106 -0.0446777 0)
(7.55376 -0.0462215 0)
(7.56589 -0.04753 0)
(7.57749 -0.0486391 0)
(7.58859 -0.0495845 0)
(7.59924 -0.0504009 0)
(7.60948 -0.0511217 0)
(7.61936 -0.0517791 0)
(7.62894 -0.0524037 0)
(7.63824 -0.0530257 0)
(7.64733 -0.0536746 0)
(7.65624 -0.0543801 0)
(7.66502 -0.0551727 0)
(7.6737 -0.0560841 0)
(7.68234 -0.0571476 0)
(7.69095 -0.0583989 0)
(7.69958 -0.0598757 0)
(7.70824 -0.0616187 0)
(7.33337 -0.00205747 0)
(7.33721 -0.0062058 0)
(7.3453 -0.0105123 0)
(7.35658 -0.0150458 0)
(7.37007 -0.0197501 0)
(7.38518 -0.0245123 0)
(7.40134 -0.0292069 0)
(7.41805 -0.0337146 0)
(7.43493 -0.0379366 0)
(7.4517 -0.0418031 0)
(7.46815 -0.0452731 0)
(7.48415 -0.0483315 0)
(7.49959 -0.050984 0)
(7.51442 -0.0532516 0)
(7.52863 -0.0551661 0)
(7.5422 -0.0567663 0)
(7.55514 -0.0580942 0)
(7.56749 -0.0591934 0)
(7.57928 -0.0601067 0)
(7.59054 -0.0608758 0)
(7.60131 -0.0615402 0)
(7.61165 -0.0621375 0)
(7.6216 -0.0627029 0)
(7.6312 -0.06327 0)
(7.6405 -0.063871 0)
(7.64954 -0.0645368 0)
(7.65837 -0.0652983 0)
(7.66703 -0.0661861 0)
(7.67555 -0.0672312 0)
(7.68396 -0.0684653 0)
(7.69231 -0.0699215 0)
(7.7006 -0.0716335 0)
(7.70886 -0.073635 0)
(7.33337 -0.00345494 0)
(7.33717 -0.0103102 0)
(7.34519 -0.0170265 0)
(7.35642 -0.0235647 0)
(7.36993 -0.0298496 0)
(7.38512 -0.0357889 0)
(7.40144 -0.0412968 0)
(7.41837 -0.0463066 0)
(7.43554 -0.0507761 0)
(7.45263 -0.0546888 0)
(7.46942 -0.0580515 0)
(7.48577 -0.0608897 0)
(7.50156 -0.0632429 0)
(7.51673 -0.0651597 0)
(7.53124 -0.0666941 0)
(7.54509 -0.067902 0)
(7.55829 -0.0688393 0)
(7.57085 -0.0695601 0)
(7.58281 -0.0701156 0)
(7.59421 -0.0705536 0)
(7.6051 -0.0709187 0)
(7.6155 -0.0712519 0)
(7.62548 -0.0715912 0)
(7.63508 -0.0719722 0)
(7.64434 -0.0724281 0)
(7.6533 -0.0729907 0)
(7.66201 -0.0736904 0)
(7.6705 -0.074557 0)
(7.67882 -0.0756202 0)
(7.68698 -0.0769093 0)
(7.69501 -0.0784538 0)
(7.70295 -0.0802842 0)
(7.7108 -0.082427 0)
(7.33337 -0.00489673 0)
(7.33724 -0.0145526 0)
(7.34541 -0.0237896 0)
(7.35687 -0.0324697 0)
(7.37068 -0.0405026 0)
(7.38627 -0.0478161 0)
(7.40305 -0.0543603 0)
(7.42049 -0.0601138 0)
(7.43818 -0.0650816 0)
(7.4558 -0.0692914 0)
(7.47312 -0.0727896 0)
(7.48996 -0.0756365 0)
(7.50621 -0.0779017 0)
(7.52179 -0.0796593 0)
(7.53667 -0.080985 0)
(7.55084 -0.0819527 0)
(7.56431 -0.0826334 0)
(7.57709 -0.0830932 0)
(7.58923 -0.0833932 0)
(7.60076 -0.0835892 0)
(7.61172 -0.083732 0)
(7.62217 -0.0838673 0)
(7.63214 -0.0840366 0)
(7.64169 -0.0842777 0)
(7.65086 -0.0846253 0)
(7.6597 -0.0851115 0)
(7.66823 -0.0857663 0)
(7.67651 -0.0866181 0)
(7.68456 -0.0876943 0)
(7.6924 -0.0890208 0)
(7.70008 -0.0906229 0)
(7.70759 -0.0925256 0)
(7.71495 -0.0947484 0)
(7.33339 -0.00642172 0)
(7.33741 -0.0190307 0)
(7.34591 -0.0309018 0)
(7.35782 -0.0417756 0)
(7.37217 -0.0515292 0)
(7.38834 -0.0601024 0)
(7.40575 -0.0674856 0)
(7.42385 -0.0737172 0)
(7.44219 -0.0788692 0)
(7.46045 -0.0830335 0)
(7.47838 -0.0863134 0)
(7.4958 -0.0888178 0)
(7.51257 -0.0906557 0)
(7.52863 -0.0919333 0)
(7.54393 -0.0927506 0)
(7.55846 -0.0932009 0)
(7.57223 -0.0933696 0)
(7.58526 -0.0933337 0)
(7.59758 -0.0931626 0)
(7.60924 -0.0929179 0)
(7.62029 -0.0926545 0)
(7.63077 -0.092421 0)
(7.64073 -0.0922606 0)
(7.65021 -0.092212 0)
(7.65928 -0.0923098 0)
(7.66796 -0.0925853 0)
(7.6763 -0.0930672 0)
(7.68433 -0.0937817 0)
(7.6921 -0.0947532 0)
(7.69961 -0.0960045 0)
(7.70691 -0.0975566 0)
(7.71401 -0.0994306 0)
(7.72093 -0.101639 0)
(7.33342 -0.00808368 0)
(7.33775 -0.0239343 0)
(7.34689 -0.0387483 0)
(7.35966 -0.0521692 0)
(7.37501 -0.0640618 0)
(7.39225 -0.0743755 0)
(7.41075 -0.0831185 0)
(7.4299 -0.0903602 0)
(7.44924 -0.0962118 0)
(7.46843 -0.100808 0)
(7.48718 -0.104295 0)
(7.50533 -0.106825 0)
(7.52274 -0.108547 0)
(7.53934 -0.109603 0)
(7.55509 -0.110122 0)
(7.56999 -0.110226 0)
(7.58405 -0.110019 0)
(7.5973 -0.109597 0)
(7.60978 -0.109042 0)
(7.62154 -0.108425 0)
(7.63262 -0.10781 0)
(7.64308 -0.10725 0)
(7.65297 -0.106791 0)
(7.66234 -0.106474 0)
(7.67123 -0.106334 0)
(7.6797 -0.106401 0)
(7.68779 -0.106702 0)
(7.69552 -0.107261 0)
(7.70294 -0.108099 0)
(7.71007 -0.109234 0)
(7.71693 -0.110682 0)
(7.72354 -0.112458 0)
(7.72991 -0.114568 0)
(7.33345 -0.00992754 0)
(7.33816 -0.0293043 0)
(7.34809 -0.0471522 0)
(7.36188 -0.0629565 0)
(7.37836 -0.0765758 0)
(7.39681 -0.0880191 0)
(7.41654 -0.0973874 0)
(7.43691 -0.104856 0)
(7.45743 -0.110634 0)
(7.47772 -0.114937 0)
(7.49749 -0.117977 0)
(7.51656 -0.119956 0)
(7.53478 -0.121062 0)
(7.55208 -0.121464 0)
(7.56843 -0.121316 0)
(7.58381 -0.120753 0)
(7.59826 -0.119894 0)
(7.61181 -0.118842 0)
(7.6245 -0.117687 0)
(7.63639 -0.116506 0)
(7.64754 -0.115364 0)
(7.65799 -0.114317 0)
(7.66782 -0.113413 0)
(7.67707 -0.112692 0)
(7.6858 -0.112188 0)
(7.69406 -0.111932 0)
(7.70188 -0.111946 0)
(7.70931 -0.112253 0)
(7.71639 -0.11287 0)
(7.72314 -0.113813 0)
(7.72958 -0.115092 0)
(7.73576 -0.116719 0)
(7.74167 -0.118693 0)
(7.33353 -0.0120741 0)
(7.33899 -0.0356951 0)
(7.3504 -0.0574556 0)
(7.36608 -0.0767232 0)
(7.38459 -0.0933174 0)
(7.40506 -0.107198 0)
(7.4267 -0.118441 0)
(7.44881 -0.127246 0)
(7.47086 -0.133878 0)
(7.49249 -0.138622 0)
(7.51342 -0.141767 0)
(7.53345 -0.143591 0)
(7.55248 -0.144347 0)
(7.57045 -0.144265 0)
(7.58734 -0.143544 0)
(7.60314 -0.142359 0)
(7.61791 -0.140856 0)
(7.63167 -0.139162 0)
(7.6445 -0.13738 0)
(7.65644 -0.135599 0)
(7.66758 -0.13389 0)
(7.67796 -0.132313 0)
(7.68765 -0.130917 0)
(7.69671 -0.12974 0)
(7.7052 -0.128817 0)
(7.71317 -0.128174 0)
(7.72066 -0.127832 0)
(7.72772 -0.127809 0)
(7.73438 -0.128117 0)
(7.74067 -0.128766 0)
(7.74663 -0.129764 0)
(7.75227 -0.131115 0)
(7.7576 -0.132811 0)
(7.33357 -0.0145305 0)
(7.33962 -0.0426041 0)
(7.35236 -0.06772 0)
(7.36977 -0.0891541 0)
(7.39024 -0.106966 0)
(7.41285 -0.12138 0)
(7.43669 -0.132687 0)
(7.46097 -0.141251 0)
(7.48507 -0.147443 0)
(7.50857 -0.151616 0)
(7.53116 -0.154101 0)
(7.55264 -0.155202 0)
(7.57291 -0.155196 0)
(7.5919 -0.154326 0)
(7.60961 -0.152807 0)
(7.62607 -0.150825 0)
(7.64133 -0.148538 0)
(7.65546 -0.146082 0)
(7.66853 -0.143569 0)
(7.68061 -0.141092 0)
(7.69179 -0.138729 0)
(7.70214 -0.136543 0)
(7.71173 -0.134582 0)
(7.72063 -0.13289 0)
(7.7289 -0.131496 0)
(7.73661 -0.130427 0)
(7.74379 -0.129702 0)
(7.7505 -0.129336 0)
(7.75678 -0.129337 0)
(7.76267 -0.129714 0)
(7.7682 -0.130468 0)
(7.7734 -0.131601 0)
(7.7783 -0.133098 0)
(7.33382 -0.0177489 0)
(7.34187 -0.0525142 0)
(7.35798 -0.0840287 0)
(7.37917 -0.111176 0)
(7.4032 -0.13372 0)
(7.429 -0.151677 0)
(7.45563 -0.16535 0)
(7.48228 -0.175257 0)
(7.5084 -0.181966 0)
(7.53361 -0.186028 0)
(7.55766 -0.187952 0)
(7.58036 -0.188192 0)
(7.60164 -0.187141 0)
(7.62145 -0.18513 0)
(7.63983 -0.182437 0)
(7.6568 -0.17929 0)
(7.67243 -0.175874 0)
(7.6868 -0.172343 0)
(7.7 -0.168815 0)
(7.71212 -0.16539 0)
(7.72323 -0.162142 0)
(7.73344 -0.159131 0)
(7.74281 -0.156404 0)
(7.75143 -0.153997 0)
(7.75935 -0.151936 0)
(7.76666 -0.150241 0)
(7.7734 -0.148927 0)
(7.77962 -0.148003 0)
(7.78537 -0.147474 0)
(7.79068 -0.147343 0)
(7.79561 -0.147607 0)
(7.80016 -0.148262 0)
(7.80437 -0.149287 0)
(7.33371 -0.0212316 0)
(7.3422 -0.061027 0)
(7.36027 -0.0947206 0)
(7.38446 -0.122269 0)
(7.41226 -0.144577 0)
(7.44229 -0.162146 0)
(7.47319 -0.175441 0)
(7.50382 -0.185008 0)
(7.53351 -0.191375 0)
(7.5618 -0.195036 0)
(7.58841 -0.196461 0)
(7.61319 -0.196092 0)
(7.6361 -0.194322 0)
(7.65715 -0.191499 0)
(7.67642 -0.187927 0)
(7.694 -0.183859 0)
(7.70999 -0.179509 0)
(7.72452 -0.175052 0)
(7.7377 -0.170627 0)
(7.74966 -0.166347 0)
(7.76051 -0.162296 0)
(7.77036 -0.158543 0)
(7.77929 -0.155136 0)
(7.7874 -0.15211 0)
(7.79477 -0.149492 0)
(7.80147 -0.147299 0)
(7.80756 -0.145542 0)
(7.81309 -0.144227 0)
(7.81813 -0.143355 0)
(7.82272 -0.142925 0)
(7.82691 -0.142932 0)
(7.83073 -0.143369 0)
(7.83423 -0.144204 0)
(7.33483 -0.0276494 0)
(7.34963 -0.081888 0)
(7.3755 -0.128908 0)
(7.40615 -0.166841 0)
(7.43879 -0.196019 0)
(7.47264 -0.217227 0)
(7.50661 -0.231702 0)
(7.53974 -0.240768 0)
(7.57147 -0.245558 0)
(7.60142 -0.247028 0)
(7.62935 -0.245979 0)
(7.65512 -0.243061 0)
(7.67874 -0.238797 0)
(7.70026 -0.233605 0)
(7.71977 -0.227818 0)
(7.73741 -0.221702 0)
(7.75333 -0.215465 0)
(7.76767 -0.209271 0)
(7.78058 -0.203246 0)
(7.79221 -0.197487 0)
(7.8027 -0.192066 0)
(7.81216 -0.187037 0)
(7.8207 -0.182436 0)
(7.82843 -0.17829 0)
(7.83543 -0.174614 0)
(7.84178 -0.171417 0)
(7.84754 -0.168705 0)
(7.85277 -0.16648 0)
(7.85754 -0.16474 0)
(7.86188 -0.163483 0)
(7.86583 -0.162704 0)
(7.86946 -0.162397 0)
(7.87279 -0.162525 0)
(7.33381 -0.0314847 0)
(7.34777 -0.0855544 0)
(7.3781 -0.128001 0)
(7.41638 -0.16293 0)
(7.4577 -0.191602 0)
(7.49981 -0.21369 0)
(7.54081 -0.229628 0)
(7.5797 -0.240176 0)
(7.61618 -0.246076 0)
(7.65018 -0.248116 0)
(7.68173 -0.247096 0)
(7.71097 -0.243748 0)
(7.73805 -0.238708 0)
(7.76312 -0.232516 0)
(7.78633 -0.225611 0)
(7.80783 -0.218343 0)
(7.82773 -0.210985 0)
(7.84618 -0.203745 0)
(7.86327 -0.196774 0)
(7.87913 -0.190184 0)
(7.89386 -0.184052 0)
(7.90755 -0.178428 0)
(7.9203 -0.173343 0)
(7.93219 -0.168813 0)
(7.94329 -0.164842 0)
(7.95367 -0.161429 0)
(7.96339 -0.158568 0)
(7.97251 -0.156253 0)
(7.98108 -0.154479 0)
(7.98915 -0.153242 0)
(7.99678 -0.152549 0)
(8.00404 -0.152401 0)
(8.011 -0.152774 0)
(7.33893 -0.0540704 0)
(7.37199 -0.150649 0)
(7.41486 -0.219275 0)
(7.45858 -0.265616 0)
(7.50524 -0.295843 0)
(7.55572 -0.313914 0)
(7.60849 -0.323529 0)
(7.66241 -0.327377 0)
(7.7166 -0.327164 0)
(7.77004 -0.324054 0)
(7.82184 -0.318869 0)
(7.87134 -0.312192 0)
(7.9181 -0.304464 0)
(7.96181 -0.296032 0)
(8.00234 -0.287176 0)
(8.03967 -0.27813 0)
(8.07388 -0.26909 0)
(8.1051 -0.260217 0)
(8.13351 -0.251642 0)
(8.15931 -0.243467 0)
(8.18272 -0.23577 0)
(8.20393 -0.228604 0)
(8.22316 -0.222008 0)
(8.24058 -0.216001 0)
(8.25636 -0.210593 0)
(8.27067 -0.205785 0)
(8.28363 -0.201575 0)
(8.29535 -0.197957 0)
(8.30593 -0.194936 0)
(8.31545 -0.192517 0)
(8.32401 -0.190751 0)
(8.33167 -0.189639 0)
(8.3386 -0.189352 0)
(7.33756 -0.0401656 0)
(7.38854 -0.105024 0)
(7.47778 -0.162264 0)
(7.57937 -0.217474 0)
(7.6872 -0.2644 0)
(7.79615 -0.300711 0)
(7.90025 -0.327068 0)
(7.99604 -0.344182 0)
(8.08156 -0.353146 0)
(8.15576 -0.355436 0)
(8.21846 -0.352523 0)
(8.27006 -0.345727 0)
(8.31134 -0.336187 0)
(8.34328 -0.324842 0)
(8.36696 -0.312443 0)
(8.38346 -0.299572 0)
(8.39382 -0.286671 0)
(8.39897 -0.274065 0)
(8.39976 -0.261983 0)
(8.39691 -0.250584 0)
(8.39106 -0.239963 0)
(8.38274 -0.230174 0)
(8.3724 -0.221236 0)
(8.3604 -0.213142 0)
(8.34705 -0.205868 0)
(8.33259 -0.199376 0)
(8.3172 -0.193621 0)
(8.30101 -0.188558 0)
(8.28412 -0.184152 0)
(8.26656 -0.180377 0)
(8.24842 -0.177322 0)
(8.22943 -0.174935 0)
(8.21022 -0.174164 0)
(7.39943 -0.196598 0)
(7.59548 -0.375601 0)
(7.76814 -0.458221 0)
(7.8953 -0.511805 0)
(7.97897 -0.540214 0)
(8.01727 -0.549303 0)
(8.01445 -0.545711 0)
(7.97888 -0.532802 0)
(7.91819 -0.513083 0)
(7.83896 -0.488822 0)
(7.74694 -0.461812 0)
(7.64685 -0.433446 0)
(7.54236 -0.404803 0)
(7.43628 -0.376689 0)
(7.33068 -0.349674 0)
(7.22704 -0.324137 0)
(7.12635 -0.300308 0)
(7.02926 -0.2783 0)
(6.93612 -0.258143 0)
(6.84712 -0.239808 0)
(6.76226 -0.223223 0)
(6.68146 -0.20829 0)
(6.60457 -0.194896 0)
(6.5314 -0.182917 0)
(6.46172 -0.172225 0)
(6.3953 -0.162689 0)
(6.3319 -0.154171 0)
(6.27125 -0.146543 0)
(6.21308 -0.139643 0)
(6.15702 -0.13333 0)
(6.10273 -0.127502 0)
(6.0492 -0.121378 0)
(5.99683 -0.118268 0)
(7.16017 -0.185796 0)
(6.91124 -0.344972 0)
(6.50056 -0.392226 0)
(6.03751 -0.39368 0)
(5.59813 -0.365591 0)
(5.18264 -0.321775 0)
(4.79509 -0.273139 0)
(4.44221 -0.225296 0)
(4.12455 -0.181223 0)
(3.84039 -0.142395 0)
(3.5877 -0.109204 0)
(3.36391 -0.0814586 0)
(3.16615 -0.0586753 0)
(2.99162 -0.0402329 0)
(2.83763 -0.0254806 0)
(2.70169 -0.0138038 0)
(2.58154 -0.00465412 0)
(2.47514 0.00244024 0)
(2.38069 0.00787526 0)
(2.29659 0.0119778 0)
(2.22145 0.0150148 0)
(2.15406 0.0172027 0)
(2.09336 0.0187179 0)
(2.03844 0.0197037 0)
(1.9885 0.0202829 0)
(1.94291 0.0205614 0)
(1.90105 0.020656 0)
(1.86255 0.0206847 0)
(1.8269 0.0208626 0)
(1.79426 0.0214879 0)
(1.76374 0.0228711 0)
(1.7373 0.0275372 0)
(1.71303 0.0226972 0)
(1.22079 -0.012189 0)
(1.35964 -0.00567868 0)
(1.46114 -0.0414148 0)
(1.48466 -0.10717 0)
(1.41451 -0.173995 0)
(1.25331 -0.197347 0)
(1.04889 -0.133717 0)
(1.00583 0.12541 0)
(1.36007 0.651835 0)
(2.01544 1.29516 0)