/*--------------------------------*- C++ -*----------------------------------*\
  =========                 |
  \\      /  F ield         | OpenFOAM: The Open Source CFD Toolbox
   \\    /   O peration     | Website:  https://openfoam.org
    \\  /    A nd           | Version:  10
     \\/     M anipulation  |
\*---------------------------------------------------------------------------*/
FoamFile
{
    format      ascii;
    class       volScalarField;
    location    "0.03";
    object      k;
}
// * * * * * * * * * * * * * * * * * * * * * * * * * * * * * * * * * * * * * //

dimensions      [0 2 -2 0 0 0 0];

internalField   nonuniform List<scalar> 
6820
(
0.198346
0.194821
0.191245
0.187656
0.184103
0.180615
0.177205
0.173881
0.170646
0.167504
0.164459
0.161511
0.158665
0.155923
0.153287
0.150761
0.148347
0.14605
0.14387
0.141813
0.139878
0.138069
0.136386
0.134827
0.13339
0.13207
0.130858
0.129741
0.128695
0.127712
0.126661
0.125869
0.123473
0.200924
0.200893
0.200442
0.199964
0.199471
0.198953
0.198408
0.197833
0.197225
0.196585
0.195914
0.195213
0.194485
0.19373
0.19295
0.192148
0.191324
0.19048
0.189619
0.188741
0.187849
0.186945
0.18603
0.185107
0.184179
0.183248
0.182321
0.181402
0.180499
0.179625
0.178795
0.178028
0.177412
0.236749
0.0166852
0.0577945
0.0062851
0.00755761
0.00770602
0.00914274
0.0109907
0.0129373
0.0149279
0.0169247
0.0189023
0.0208422
0.0227287
0.0245486
0.0262905
0.0279444
0.0295017
0.0309554
0.0322998
0.033531
0.0346467
0.0356474
0.0365359
0.0373189
0.0380069
0.0386164
0.0391708
0.0397035
0.0402612
0.0409041
0.0417539
0.0428128
0.210808
0.147779
0.104525
0.0791239
0.063468
0.0528892
0.0451169
0.0390397
0.0340817
0.029919
0.0263557
0.0232654
0.0205623
0.0181859
0.0160915
0.0142454
0.0126207
0.0111951
0.00994886
0.00886403
0.00792346
0.00711065
0.0064097
0.00580552
0.00528411
0.00483274
0.00444024
0.00409704
0.00379533
0.00352905
0.00329441
0.00309144
0.00292315
0.223296
0.0834744
0.0218695
0.00457579
0.00091081
0.000537124
0.000769447
0.00102731
0.00123596
0.00140656
0.00155062
0.00167263
0.00177373
0.00185428
0.00191492
0.00195681
0.0019816
0.00199129
0.00198811
0.00197431
0.00195211
0.00192352
0.00189032
0.00185395
0.0018155
0.00177561
0.00173447
0.00169172
0.00164637
0.00159662
0.00153999
0.00147161
0.00138921
0.216656
0.117028
0.0579712
0.0341735
0.0247055
0.020107
0.0169345
0.0140377
0.0111731
0.00844931
0.00607284
0.00418782
0.00281489
0.00187928
0.00126973
0.000882246
0.000637791
0.00048284
0.000383397
0.000318507
0.000275302
0.000245761
0.000224732
0.000208784
0.000195565
0.000183538
0.000172026
0.000161868
0.000156573
0.000161523
0.000175481
0.000193653
0.000216193
0.213473
0.133066
0.0716407
0.0422017
0.0295446
0.0239148
0.0211578
0.0196802
0.0188641
0.0184311
0.0182398
0.0182115
0.0182974
0.0184647
0.018689
0.018951
0.0192347
0.0195265
0.019815
0.0200906
0.0203438
0.0205623
0.0207286
0.0208132
0.0207663
0.0205139
0.02001
0.0194011
0.0189927
0.0188809
0.0190328
0.0193339
0.0197251
0.204693
0.176879
0.136728
0.0940565
0.0643174
0.0473914
0.038317
0.033517
0.0310435
0.0298935
0.0295442
0.0297072
0.0302101
0.0309422
0.0318302
0.0328238
0.0338885
0.0350001
0.0361394
0.0372889
0.0384341
0.0395616
0.040652
0.0416689
0.0425442
0.0431709
0.0434554
0.0434353
0.0433248
0.0433047
0.0434921
0.0438714
0.0444115
0.203646
0.181978
0.161152
0.138188
0.114838
0.0958619
0.0822128
0.0731102
0.0674082
0.0640834
0.0623859
0.0618049
0.0619906
0.0626995
0.0637627
0.0650649
0.0665229
0.0680588
0.0695926
0.0710643
0.0724421
0.0737044
0.0748226
0.0757464
0.0763917
0.0766495
0.0764582
0.0758998
0.0752031
0.0746127
0.0742827
0.0742142
0.0743674
0.20326
0.183949
0.167525
0.155019
0.142742
0.13035
0.118932
0.109453
0.10222
0.0970323
0.0934974
0.091223
0.0898786
0.0892056
0.0890099
0.0891513
0.0895265
0.09005
0.0906464
0.0912618
0.0918574
0.0923959
0.0928322
0.0931042
0.0931319
0.0928373
0.092199
0.0912969
0.0903028
0.089384
0.088662
0.0881613
0.0878569
0.203103
0.184832
0.168324
0.156703
0.147754
0.140079
0.13322
0.127095
0.121786
0.117353
0.113769
0.110948
0.108772
0.107122
0.105892
0.104989
0.104337
0.103871
0.103538
0.103294
0.103101
0.102916
0.102688
0.10235
0.101829
0.101069
0.100072
0.0989049
0.0976887
0.096535
0.0955297
0.0946976
0.0940176
0.203081
0.185148
0.168031
0.155828
0.146888
0.139774
0.133767
0.128505
0.123867
0.119837
0.116402
0.113523
0.11114
0.109183
0.107579
0.106262
0.105172
0.104257
0.103472
0.102779
0.102141
0.101517
0.10086
0.10012
0.0992545
0.0982415
0.0970934
0.0958589
0.0946103
0.0934133
0.0923211
0.0913538
0.0904932
0.203201
0.184926
0.166415
0.152799
0.143008
0.135715
0.130056
0.125426
0.121465
0.117996
0.114931
0.112219
0.10982
0.107698
0.105817
0.104141
0.102638
0.101278
0.100031
0.0988688
0.09776
0.0966676
0.0955563
0.0944003
0.0931877
0.0919174
0.0906023
0.0892708
0.0879611
0.0867071
0.0855375
0.0844648
0.0834728
0.203479
0.183895
0.163562
0.148456
0.137647
0.129685
0.12358
0.118655
0.114494
0.110868
0.107649
0.104763
0.10216
0.099802
0.097658
0.0956995
0.093902
0.092243
0.090699
0.0892441
0.0878539
0.0865032
0.0851684
0.0838346
0.0824972
0.0811591
0.0798302
0.0785262
0.0772664
0.076067
0.0749421
0.0738991
0.0729239
0.203887
0.182215
0.159639
0.142811
0.130793
0.121992
0.115293
0.109948
0.105488
0.101635
0.0982252
0.0951598
0.0923748
0.089827
0.0874848
0.0853215
0.083314
0.0814438
0.0796921
0.0780401
0.0764735
0.0749797
0.0735469
0.0721652
0.0708284
0.0695362
0.0682936
0.0671081
0.0659883
0.0649409
0.063972
0.0630849
0.0622678
0.204438
0.179925
0.154579
0.13582
0.122548
0.1129
0.10557
0.0997171
0.0948318
0.0906166
0.0868967
0.0835642
0.0805491
0.0778041
0.0752953
0.0729959
0.0708826
0.068936
0.0671392
0.0654759
0.0639326
0.0624992
0.0611675
0.0599296
0.0587794
0.0577142
0.0567349
0.0558432
0.0550418
0.0543324
0.0537164
0.0531946
0.0527578
0.205177
0.176846
0.148135
0.127268
0.11275
0.10232
0.0944397
0.0881681
0.082953
0.0784783
0.0745586
0.0710802
0.0679687
0.0651728
0.0626561
0.0603908
0.0583545
0.056529
0.0548992
0.053451
0.0521706
0.0510462
0.0500682
0.049228
0.0485179
0.0479323
0.0474675
0.0471201
0.0468879
0.0467681
0.0467585
0.0468567
0.0470554
0.206164
0.172726
0.140029
0.117008
0.101408
0.0904017
0.0821687
0.0756562
0.070276
0.0657013
0.0617449
0.0582935
0.0552746
0.0526376
0.0503454
0.0483695
0.0466868
0.0452768
0.0441218
0.0432051
0.04251
0.0420202
0.0417208
0.0415977
0.0416379
0.04183
0.0421635
0.0426293
0.0432193
0.0439252
0.0447399
0.0456575
0.0466728
0.207474
0.167224
0.129975
0.104958
0.0886155
0.0773636
0.0690733
0.062594
0.0573171
0.0529169
0.0492115
0.046093
0.0434921
0.0413599
0.0396588
0.0383573
0.0374269
0.0368395
0.0365676
0.0365837
0.0368597
0.0373686
0.0380843
0.0389826
0.0400412
0.0412404
0.0425626
0.0439926
0.0455165
0.0471202
0.0487931
0.0505281
0.0523274
0.209191
0.159922
0.117775
0.0912344
0.0747078
0.0636873
0.0557461
0.0496723
0.044864
0.0410142
0.0379571
0.0355946
0.0338602
0.0327014
0.0320704
0.0319199
0.032202
0.0328676
0.0338674
0.0351536
0.0366803
0.0384053
0.0402902
0.0423016
0.0444103
0.0465921
0.0488267
0.0510973
0.0533882
0.0556865
0.0579844
0.0602786
0.062584
0.211384
0.150384
0.103451
0.0762464
0.0602944
0.050091
0.0429908
0.037787
0.0339237
0.0311306
0.0292606
0.028215
0.0279114
0.0282688
0.0292043
0.0306335
0.0324737
0.0346455
0.0370755
0.0396975
0.0424539
0.0452953
0.0481816
0.0510805
0.0539674
0.0568234
0.0596333
0.0623853
0.0650714
0.0676878
0.0702349
0.0727174
0.0751651
0.214058
0.138311
0.0874249
0.060784
0.046287
0.0375498
0.0318638
0.0281119
0.025811
0.0247176
0.0246697
0.0255262
0.0271471
0.0293931
0.03213
0.0352341
0.0385954
0.0421193
0.0457268
0.0493538
0.0529504
0.056479
0.0599133
0.0632362
0.0664373
0.0695093
0.0724485
0.0752559
0.0779365
0.0804972
0.0829474
0.0853003
0.0875947
0.217084
0.123848
0.0706867
0.0460262
0.0338741
0.0273014
0.0237188
0.0221355
0.0221005
0.0233289
0.025581
0.0286323
0.0322741
0.03632
0.040611
0.0450171
0.049436
0.0537901
0.0580226
0.0620946
0.0659818
0.0696712
0.0731592
0.0764475
0.0795393
0.0824416
0.085166
0.0877265
0.0901381
0.0924153
0.0945736
0.096631
0.0986281
0.22012
0.108016
0.0548639
0.0335141
0.0245555
0.0209213
0.0202014
0.0214468
0.0241401
0.0278975
0.0323948
0.0373556
0.0425522
0.0478057
0.0529835
0.0579926
0.0627725
0.0672878
0.0715216
0.0754706
0.0791412
0.0825465
0.0856992
0.0886139
0.0913089
0.0938056
0.096126
0.098291
0.10032
0.10223
0.104038
0.105763
0.10744
0.222578
0.0931098
0.0422312
0.0252182
0.0202207
0.0201988
0.0228035
0.0270289
0.0322774
0.0381151
0.0442087
0.0503079
0.0562346
0.0618724
0.0671551
0.0720531
0.076563
0.0806972
0.0844783
0.0879322
0.0910871
0.0939712
0.0966057
0.0990153
0.101227
0.103268
0.105162
0.10693
0.10859
0.11016
0.111652
0.113084
0.114483
0.223729
0.0826864
0.0356141
0.0234097
0.0226804
0.0263175
0.0319479
0.0385363
0.0454887
0.0524164
0.0590656
0.0652832
0.070993
0.0761744
0.0808433
0.0850367
0.0888014
0.0921864
0.0952379
0.0979923
0.10048
0.102735
0.104787
0.106668
0.108404
0.110019
0.111534
0.112966
0.114329
0.115635
0.116894
0.118116
0.119318
0.22296
0.0807036
0.0379655
0.0300824
0.0329965
0.0394653
0.047087
0.054864
0.0622985
0.0691379
0.0752781
0.0807076
0.0854692
0.0896339
0.0932821
0.0964935
0.0993363
0.10187
0.104148
0.106208
0.108081
0.109792
0.111367
0.112829
0.1142
0.115497
0.116734
0.117922
0.119071
0.120187
0.121275
0.122336
0.123375
0.220207
0.0893014
0.0506614
0.0455652
0.0505434
0.0582426
0.0662341
0.0736203
0.0800815
0.0855666
0.0901544
0.0939775
0.0971794
0.0998922
0.102229
0.104277
0.106091
0.10772
0.109205
0.110582
0.111875
0.113103
0.114281
0.115419
0.116528
0.117614
0.118683
0.119738
0.120782
0.121817
0.122835
0.123825
0.124785
0.21597
0.107958
0.0735381
0.0694234
0.074504
0.0815562
0.0881978
0.0937088
0.0980087
0.101268
0.103727
0.105617
0.107125
0.108388
0.109503
0.110536
0.11152
0.112479
0.113427
0.114369
0.115307
0.116241
0.117171
0.118096
0.119014
0.119926
0.120831
0.121727
0.122615
0.123492
0.124357
0.125207
0.126041
0.211626
0.130283
0.100429
0.0957944
0.0990516
0.103569
0.107171
0.10939
0.110417
0.110637
0.110421
0.110049
0.109702
0.109483
0.109436
0.109572
0.109881
0.110342
0.110931
0.111622
0.112395
0.113228
0.114107
0.115017
0.115949
0.116894
0.117847
0.118801
0.119751
0.120695
0.121628
0.122547
0.123451
0.207798
0.152132
0.128105
0.122408
0.122277
0.122498
0.121627
0.119719
0.117279
0.114789
0.112566
0.110768
0.109441
0.108568
0.108097
0.107966
0.108113
0.108482
0.109023
0.109694
0.110462
0.111299
0.112185
0.113103
0.11404
0.114987
0.115937
0.116883
0.117821
0.118748
0.119659
0.120554
0.121434
0.205786
0.164346
0.141845
0.132507
0.127464
0.122915
0.117925
0.112713
0.107787
0.103522
0.100085
0.0974956
0.0956893
0.094566
0.0940152
0.0939303
0.0942157
0.0947893
0.0955826
0.0965395
0.097615
0.0987736
0.0999877
0.101236
0.102503
0.103775
0.105043
0.106301
0.107541
0.10876
0.109955
0.111122
0.112264
0.204562
0.172665
0.149172
0.132939
0.119692
0.109773
0.103195
0.0979791
0.0936414
0.0903916
0.0881505
0.0867346
0.0859773
0.0857439
0.0859243
0.0864274
0.0871786
0.0881168
0.0891925
0.090366
0.0916056
0.0928864
0.094189
0.0954991
0.0968054
0.0981
0.0993767
0.100631
0.10186
0.103061
0.104232
0.105373
0.106486
0.206198
0.165366
0.124828
0.0938201
0.0740521
0.0638956
0.062025
0.0664844
0.0711247
0.0733048
0.0734077
0.0725636
0.0716618
0.0710979
0.0709337
0.0711086
0.0715506
0.0722041
0.0730268
0.0739839
0.0750457
0.0761867
0.0773864
0.0786277
0.0798968
0.0811818
0.0824726
0.0837598
0.0850355
0.0862929
0.0875267
0.088732
0.0899106
0.212303
0.131933
0.0742306
0.0452266
0.0322571
0.027016
0.0267256
0.0306389
0.035796
0.0396672
0.0417947
0.0428031
0.0434
0.0439955
0.0447319
0.0456226
0.0466424
0.0477591
0.0489398
0.0501544
0.0513798
0.0526014
0.0538115
0.0550049
0.0561744
0.0573089
0.0583937
0.059413
0.0603535
0.0612062
0.0619697
0.0626416
0.0632529
0.218129
0.106128
0.0503898
0.028721
0.0199348
0.0156432
0.0129973
0.0110398
0.00941477
0.00801642
0.00682777
0.00584611
0.0050588
0.00444414
0.00397674
0.00363103
0.00338348
0.00321381
0.00310528
0.00304458
0.00302146
0.00302809
0.0030585
0.00310907
0.00317468
0.00324727
0.00332285
0.00339873
0.00347271
0.00354309
0.00360785
0.00366823
0.00371728
0.211754
0.141389
0.0958405
0.0712059
0.0576159
0.049487
0.0441727
0.0404392
0.0376681
0.0355327
0.0338296
0.0324269
0.0312491
0.0302476
0.0293845
0.0286308
0.0279643
0.0273668
0.0268227
0.0263198
0.0258496
0.0254064
0.0249861
0.0245854
0.0241986
0.0238179
0.0234385
0.0230576
0.0226733
0.0222845
0.0218896
0.0214906
0.0210706
0.240235
0.000526191
0.0374803
0.00019317
2.12379e-05
0.00128144
0.00106322
0.000581019
0.000278082
0.00116018
0.00208886
0.00173404
0.00089002
0.000701747
0.000974978
0.00128146
0.00155282
0.00183028
0.00212251
0.00242211
0.00273151
0.00306526
0.00343938
0.00386172
0.00433081
0.0048412
0.0053887
0.00597247
0.006594
0.0072554
0.00795814
0.00870352
0.00948997
0.200086
0.199958
0.199792
0.199641
0.199511
0.1994
0.199306
0.199226
0.19916
0.199107
0.199068
0.199042
0.19903
0.199032
0.19905
0.199084
0.199134
0.199201
0.199284
0.199385
0.199504
0.199641
0.199796
0.19997
0.200162
0.200373
0.200601
0.200848
0.201112
0.201394
0.20169
0.202007
0.202322
0.199875
0.199558
0.199209
0.19884
0.198459
0.198072
0.197679
0.197284
0.196886
0.196484
0.19608
0.195671
0.195258
0.19484
0.194416
0.193985
0.193547
0.193101
0.192645
0.192179
0.191703
0.191215
0.190715
0.190203
0.189676
0.189136
0.18858
0.18801
0.187423
0.186821
0.186202
0.185567
0.184915
0.127986
0.129858
0.130852
0.131679
0.133251
0.136832
0.143196
0.151714
0.160735
0.168605
0.174175
0.176957
0.176289
0.173872
0.171566
0.167006
0.149636
0.1118
0.0631636
0.0249162
0.0128648
0.0278445
0.0561624
0.0810356
0.0936455
0.0954213
0.0933683
0.0939563
0.0996337
0.108849
0.11839
0.126036
0.131512
0.135255
0.136859
0.135426
0.13158
0.128512
0.130314
0.138908
0.152488
0.166816
0.178007
0.184484
0.186981
0.187269
0.186867
0.186511
0.186298
0.186079
0.185739
0.185267
0.184719
0.184152
0.183585
0.182992
0.182318
0.18149
0.180441
0.17912
0.177513
0.175647
0.173574
0.171338
0.168944
0.166345
0.163458
0.160186
0.156425
0.152054
0.146909
0.140761
0.133311
0.12421
0.113126
0.0998667
0.0845686
0.0678809
0.051014
0.0354984
0.0226823
0.0132501
0.00707741
0.00347378
0.00158272
0.000680425
0.000282882
0.00011782
5.14535e-05
2.46382e-05
1.32774e-05
8.04954e-06
5.41031e-06
3.98202e-06
3.19204e-06
2.77121e-06
2.55366e-06
2.53121e-06
2.4157e-06
3.27944e-06
0.176504
0.175364
0.174154
0.172735
0.170884
0.16864
0.166427
0.164892
0.16446
0.165025
0.165998
0.166504
0.166286
0.163128
0.152484
0.129412
0.0927369
0.0513474
0.0199793
0.00969477
0.0223637
0.0486939
0.0747166
0.0906194
0.094926
0.0927297
0.0908022
0.0934973
0.101309
0.111754
0.121554
0.128795
0.13356
0.136582
0.137629
0.13578
0.131472
0.127755
0.128816
0.136882
0.150402
0.165142
0.176982
0.184051
0.186916
0.187346
0.186952
0.186565
0.186333
0.186116
0.185783
0.185315
0.184762
0.184186
0.18361
0.183019
0.182365
0.181584
0.18061
0.179382
0.17786
0.176046
0.173977
0.171706
0.169266
0.166642
0.163775
0.160586
0.157005
0.152977
0.148441
0.143301
0.137392
0.130464
0.122176
0.11213
0.099972
0.0855953
0.0694205
0.0525736
0.0367073
0.0234168
0.0135947
0.00719194
0.00348776
0.00156519
0.000657546
0.00026182
0.000100035
3.71205e-05
1.35436e-05
4.89525e-06
1.72286e-06
5.97479e-07
3.32585e-07
3.96372e-07
4.68511e-07
4.56324e-07
3.24935e-07
3.52657e-07
0.0451218
0.0485428
0.053303
0.0602964
0.0699959
0.0816725
0.0938106
0.104894
0.113918
0.120383
0.12387
0.124169
0.11896
0.105753
0.0835692
0.0550526
0.0276202
0.00950521
0.00631864
0.0196857
0.0443153
0.0700403
0.0877899
0.0943574
0.0928328
0.0893211
0.0890536
0.0942385
0.103926
0.115174
0.124893
0.131549
0.13555
0.137865
0.138386
0.136147
0.131402
0.127056
0.127385
0.134903
0.148329
0.16345
0.175922
0.183587
0.186832
0.187413
0.187031
0.18661
0.186354
0.186132
0.185803
0.185334
0.184773
0.184183
0.183594
0.182997
0.182351
0.181602
0.18069
0.179551
0.178128
0.176392
0.174356
0.17207
0.16959
0.166939
0.164085
0.160957
0.157478
0.153597
0.149294
0.144565
0.139394
0.133732
0.12749
0.120534
0.112683
0.103723
0.0934427
0.0817253
0.0686931
0.0548558
0.0411468
0.0287245
0.0185742
0.0111439
0.00626285
0.00335576
0.00175557
0.000917844
0.000486232
0.000261054
0.000141123
7.63186e-05
4.12761e-05
2.21509e-05
1.18709e-05
6.3125e-06
3.10395e-06
5.2195e-06
0.00279492
0.00282083
0.00314899
0.0041127
0.00626392
0.0101894
0.0160662
0.0233859
0.0309042
0.0370483
0.0403625
0.0391394
0.0333677
0.0245669
0.0137751
0.00417467
0.000482376
0.00595858
0.0214833
0.0444681
0.0684283
0.0860946
0.0937759
0.0930258
0.0888036
0.0863039
0.0886718
0.0963227
0.10743
0.119003
0.128315
0.134237
0.137452
0.139094
0.139129
0.136533
0.131377
0.126425
0.126024
0.132972
0.14626
0.161726
0.17482
0.183091
0.186736
0.187485
0.18712
0.186665
0.186381
0.186151
0.185825
0.185356
0.184787
0.184183
0.183579
0.182971
0.182327
0.181598
0.180735
0.179677
0.178362
0.176736
0.174776
0.172508
0.169993
0.167287
0.164404
0.161297
0.157887
0.154096
0.149884
0.145252
0.14022
0.134812
0.129041
0.122908
0.116417
0.109573
0.102387
0.0948738
0.0870503
0.0789423
0.0705918
0.0620668
0.0534678
0.044934
0.0366495
0.0288429
0.0217729
0.0156913
0.0107777
0.00707545
0.00447743
0.00276443
0.00168957
0.0010299
0.000635478
0.000396856
0.000250277
0.000279452
0.00125724
0.00103823
0.000770886
9.62295e-05
0.000348761
0.000822729
0.00164042
0.00144072
0.00102769
0.00129803
0.00178196
0.00127295
0.000839216
0.00107232
0.00178483
0.00462344
0.012759
0.0281457
0.0490739
0.0703768
0.0862708
0.0935742
0.0930866
0.0885969
0.0846742
0.0847053
0.0899587
0.0996592
0.111615
0.123057
0.131705
0.136803
0.139245
0.140263
0.139858
0.136937
0.131399
0.125864
0.124743
0.131102
0.144215
0.159986
0.173681
0.182562
0.186623
0.187553
0.187211
0.186722
0.186407
0.186166
0.185839
0.185369
0.184791
0.184171
0.183549
0.182927
0.182276
0.181556
0.180722
0.179728
0.178513
0.17701
0.175167
0.172969
0.170455
0.167693
0.16474
0.161601
0.15822
0.154507
0.150386
0.145823
0.140828
0.135435
0.129679
0.123591
0.117198
0.110529
0.103629
0.096555
0.0893748
0.0821639
0.0750013
0.0679673
0.0611407
0.0545959
0.0483985
0.0426028
0.0372491
0.0323633
0.0279469
0.0239728
0.020384
0.0171489
0.0142635
0.0118027
0.00974564
0.00810079
0.00666097
0.00604479
3.92544e-05
0.00285815
0.00282673
0.0024963
0.00241612
0.00237718
0.00222727
0.00187695
0.00173952
0.00192899
0.00189508
0.00169593
0.00252366
0.00589134
0.0130132
0.0247274
0.0408097
0.0592415
0.0764299
0.0886699
0.0939579
0.0928901
0.0882057
0.0835077
0.0819006
0.0850453
0.0928933
0.10403
0.116254
0.127177
0.134974
0.139209
0.140917
0.141372
0.140575
0.137363
0.13147
0.125378
0.123546
0.129305
0.142208
0.158244
0.172514
0.182
0.186489
0.187614
0.187303
0.186779
0.186429
0.186173
0.185843
0.18537
0.184782
0.184144
0.183502
0.182862
0.182199
0.181477
0.180659
0.179706
0.178571
0.177188
0.175485
0.173411
0.170958
0.168176
0.165143
0.161918
0.1585
0.154824
0.150797
0.146342
0.141429
0.136073
0.130316
0.124208
0.117789
0.111098
0.104181
0.0970919
0.0898988
0.0826785
0.0755124
0.0684829
0.0616698
0.0551469
0.0489776
0.0432123
0.0378848
0.0330124
0.0285859
0.0245713
0.0209098
0.0175807
0.0145878
0.0120317
0.00986953
0.00817869
0.00665482
0.00599481
0.0202127
0.0207188
0.0211081
0.0213419
0.0213949
0.0212732
0.0210427
0.0208684
0.0209775
0.0215618
0.022994
0.0259145
0.0309692
0.0386226
0.0489234
0.061229
0.0739693
0.084936
0.0920653
0.0943164
0.0921265
0.0872707
0.0822939
0.0797291
0.0813031
0.087434
0.0972704
0.109156
0.121116
0.131212
0.138046
0.14143
0.142466
0.142424
0.141283
0.137811
0.131592
0.124969
0.122442
0.127589
0.140251
0.156516
0.171334
0.181417
0.186337
0.187666
0.187391
0.186831
0.186443
0.186168
0.185832
0.185354
0.184754
0.184097
0.183432
0.18277
0.182091
0.181361
0.180545
0.179614
0.178533
0.177247
0.175686
0.173772
0.171453
0.168728
0.165656
0.162322
0.158789
0.15506
0.151069
0.14672
0.141933
0.136677
0.130972
0.124868
0.118423
0.111696
0.104739
0.0976079
0.0903684
0.0830947
0.0758675
0.0687701
0.0618842
0.0552861
0.0490426
0.0432074
0.0378174
0.0328919
0.028423
0.0243796
0.0207071
0.0173865
0.0144132
0.0118779
0.00971656
0.00802434
0.00647221
0.00584386
0.0452373
0.0462373
0.0472197
0.0481428
0.0489816
0.0497441
0.0504916
0.0513626
0.0525592
0.0543833
0.0572448
0.0613326
0.0667054
0.0731526
0.080108
0.0866532
0.0916689
0.094175
0.0936903
0.0904747
0.0855799
0.0806932
0.0777481
0.0783353
0.0831342
0.0917037
0.102767
0.114722
0.12597
0.135035
0.140873
0.143456
0.143897
0.143424
0.141984
0.138282
0.131765
0.124642
0.121438
0.125967
0.138356
0.154814
0.170158
0.180828
0.186179
0.187712
0.187472
0.186873
0.186441
0.186142
0.185798
0.185312
0.184699
0.184021
0.183331
0.182644
0.181944
0.181199
0.180377
0.179452
0.178399
0.177179
0.175735
0.173987
0.171854
0.169282
0.16627
0.162881
0.159207
0.155326
0.151247
0.146916
0.142236
0.137125
0.131545
0.125514
0.119088
0.11234
0.105342
0.0981615
0.0908692
0.0835381
0.0762474
0.0690798
0.0621181
0.0554413
0.0491198
0.0432119
0.0377584
0.0327817
0.0282763
0.0242147
0.0205457
0.0172505
0.0143149
0.0118199
0.00968109
0.00801353
0.0064546
0.00585961
0.0748833
0.0756234
0.0764132
0.0772123
0.0780144
0.0788352
0.0797185
0.0807409
0.0820236
0.0836481
0.0855626
0.087725
0.0900152
0.0921829
0.0938487
0.0945549
0.0938694
0.0915507
0.0877199
0.08299
0.0784815
0.0756364
0.0758057
0.0797468
0.087305
0.0975027
0.108974
0.120397
0.130616
0.138557
0.143432
0.145295
0.145221
0.144377
0.142678
0.138775
0.131989
0.124399
0.120543
0.12445
0.136537
0.153149
0.168993
0.180247
0.186034
0.187773
0.187557
0.186906
0.186417
0.186087
0.185729
0.185233
0.184604
0.183903
0.183186
0.18247
0.181745
0.18098
0.180145
0.179214
0.178168
0.176981
0.175613
0.174001
0.172061
0.169708
0.16688
0.163573
0.159845
0.155796
0.151514
0.147036
0.142322
0.137289
0.131855
0.125976
0.119662
0.112968
0.105972
0.0987591
0.0914143
0.0840206
0.0766612
0.06942
0.0623801
0.0556222
0.0492198
0.0432349
0.0377127
0.0326786
0.0281301
0.0240433
0.0203705
0.0170927
0.0141872
0.0117257
0.00960503
0.00796321
0.0063974
0.00583688
0.0878674
0.0880907
0.0884378
0.0888663
0.0893567
0.0898953
0.0904701
0.091068
0.0916585
0.0922458
0.0928047
0.0932517
0.0934424
0.0931676
0.0921908
0.0903019
0.0873995
0.0836077
0.0793842
0.0755612
0.0732418
0.0735196
0.0770947
0.0839723
0.0934315
0.10431
0.115435
0.125883
0.134906
0.141733
0.145727
0.146961
0.146447
0.145287
0.143365
0.139286
0.132262
0.124242
0.119761
0.123049
0.134808
0.151535
0.16785
0.179678
0.18591
0.187866
0.187676
0.186953
0.186382
0.185999
0.185612
0.1851
0.184453
0.183726
0.182978
0.182231
0.181476
0.180685
0.179829
0.178883
0.17783
0.17665
0.175316
0.173786
0.171996
0.169864
0.167298
0.16423
0.160638
0.156566
0.152109
0.14737
0.142416
0.13725
0.13182
0.126057
0.119911
0.113374
0.106484
0.0993172
0.0919666
0.0845326
0.0771133
0.0698012
0.0626835
0.0558431
0.0493565
0.0432901
0.0376934
0.0325952
0.0279962
0.0238757
0.0201894
0.0169184
0.0140324
0.0115958
0.0094867
0.00787004
0.00628516
0.00576565
0.0935465
0.0932003
0.0929727
0.092824
0.0927294
0.0926679
0.0926107
0.0925137
0.0923302
0.0920024
0.0914547
0.0905915
0.0893024
0.0874711
0.0850247
0.0819789
0.0785041
0.0749954
0.0720997
0.0706489
0.071472
0.0751256
0.0816598
0.0905488
0.100848
0.111517
0.121729
0.130955
0.138759
0.144555
0.147776
0.148474
0.147587
0.146157
0.144042
0.139814
0.132583
0.124171
0.119099
0.121776
0.133183
0.149986
0.166738
0.179127
0.185808
0.187993
0.187839
0.187045
0.186377
0.185907
0.185459
0.184907
0.184223
0.183463
0.18268
0.181898
0.181109
0.180286
0.179401
0.17843
0.177357
0.176164
0.17483
0.173328
0.171618
0.169641
0.16732
0.16456
0.16128
0.157434
0.153038
0.148171
0.142944
0.137457
0.131766
0.125869
0.119724
0.113286
0.106535
0.0994972
0.0922393
0.0848563
0.0774516
0.0701249
0.0629693
0.0560727
0.0495179
0.0433787
0.0377118
0.0325514
0.027902
0.0237461
0.0200419
0.01677
0.0138936
0.0114723
0.0093643
0.00776938
0.00613536
0.00570632
0.0897438
0.0890391
0.088429
0.0878805
0.0873653
0.0868536
0.0863116
0.0857029
0.0849763
0.0840706
0.0829198
0.0814595
0.0796407
0.0774502
0.074962
0.0723659
0.0700071
0.0683939
0.0681451
0.0698603
0.073938
0.0804115
0.088887
0.0986298
0.108772
0.118565
0.127544
0.135489
0.142156
0.147046
0.149607
0.149851
0.148649
0.146987
0.144705
0.140351
0.132945
0.124184
0.11856
0.120642
0.131679
0.148519
0.16567
0.178601
0.18573
0.188153
0.188043
0.187185
0.186419
0.185856
0.185326
0.184692
0.183931
0.183106
0.182267
0.181434
0.180604
0.179743
0.17882
0.177813
0.176704
0.17548
0.17412
0.172603
0.170903
0.168985
0.1668
0.164279
0.161332
0.157874
0.15384
0.149214
0.144038
0.138399
0.132403
0.126137
0.119658
0.112987
0.106125
0.0990852
0.0918977
0.0846196
0.0773237
0.0700903
0.0630021
0.0561447
0.0496041
0.0434607
0.0377783
0.0325977
0.0279292
0.0237609
0.0200548
0.0167928
0.0139315
0.011531
0.00942022
0.00786003
0.00613546
0.00593977
0.082516
0.0815399
0.0806358
0.0797791
0.0789465
0.0781135
0.0772511
0.0763255
0.0753004
0.074141
0.0728214
0.0713376
0.0697236
0.0680754
0.066583
0.0655378
0.0653274
0.066391
0.06913
0.0737901
0.0803566
0.0885144
0.0977016
0.10724
0.1165
0.125049
0.132709
0.139451
0.14512
0.149239
0.151245
0.151107
0.149637
0.147774
0.145347
0.14089
0.133343
0.12428
0.118149
0.119657
0.130312
0.14715
0.16466
0.178108
0.185679
0.188346
0.188287
0.187369
0.186509
0.185856
0.185243
0.184521
0.183662
0.182723
0.181771
0.180842
0.179938
0.179013
0.178032
0.176972
0.175811
0.174532
0.173118
0.171547
0.169799
0.167848
0.165669
0.163222
0.160457
0.157306
0.153693
0.149545
0.14481
0.139477
0.133579
0.127195
0.120431
0.113393
0.106176
0.098851
0.0914761
0.0841047
0.0767926
0.0695999
0.0625899
0.0558289
0.0493845
0.0433219
0.0376969
0.0325508
0.0279033
0.0237577
0.02009
0.0168926
0.0141153
0.0118189
0.00978165
0.00836085
0.00657536
0.00691275
0.07195
0.070937
0.0699908
0.0690976
0.0682438
0.0674161
0.0666008
0.0657858
0.0649645
0.0641419
0.0633437
0.0626289
0.0621007
0.0619222
0.0623202
0.0635687
0.065953
0.0697112
0.0749616
0.081643
0.0894948
0.0980936
0.106936
0.115542
0.123543
0.130754
0.137175
0.142866
0.147696
0.151174
0.152715
0.152254
0.150553
0.148514
0.145962
0.141423
0.133769
0.124454
0.117869
0.118834
0.129099
0.1459
0.163725
0.177657
0.185659
0.18857
0.188569
0.187595
0.186643
0.185901
0.18521
0.184407
0.183453
0.182398
0.181315
0.180247
0.179198
0.17814
0.177044
0.175886
0.17463
0.173254
0.171741
0.17007
0.168216
0.166155
0.163865
0.161328
0.158516
0.155398
0.151927
0.148044
0.143685
0.138796
0.133348
0.127354
0.120868
0.113976
0.106777
0.09937
0.0918481
0.0843053
0.0768375
0.0695382
0.0624878
0.0557458
0.0493511
0.0433318
0.0377148
0.0325321
0.0278145
0.0235925
0.0198776
0.0166925
0.0140023
0.011862
0.010018
0.008846
0.00723553
0.00819436
0.0614599
0.0606434
0.0599167
0.0592786
0.0587293
0.0582717
0.0579133
0.057668
0.0575614
0.0576356
0.0579561
0.0586171
0.0597434
0.0614916
0.0640329
0.0675278
0.0720896
0.0777449
0.0844036
0.0918522
0.0997796
0.107829
0.115658
0.122991
0.129658
0.135625
0.140976
0.145795
0.149936
0.152885
0.154036
0.153298
0.151394
0.149198
0.146537
0.141939
0.134216
0.124703
0.117723
0.118182
0.128059
0.144787
0.162879
0.177258
0.185672
0.188825
0.188886
0.18786
0.186818
0.185991
0.185224
0.184345
0.183304
0.182146
0.18094
0.179733
0.17853
0.177309
0.17604
0.174698
0.173258
0.171703
0.170013
0.168165
0.166125
0.163862
0.161353
0.158577
0.155512
0.152139
0.148434
0.14437
0.139921
0.135062
0.129775
0.124057
0.117919
0.111391
0.104523
0.0973787
0.0900443
0.0826287
0.0752592
0.0680661
0.0611582
0.0546032
0.0484249
0.0426199
0.0371819
0.032121
0.027465
0.0232601
0.0195478
0.0163795
0.0137468
0.0116992
0.0100155
0.00897192
0.00768941
0.00858194
0.0523934
0.0521164
0.0519817
0.0520001
0.0521848
0.0525529
0.0531279
0.0539412
0.0550347
0.0564628
0.0582942
0.0606101
0.0634998
0.0670506
0.0713311
0.076373
0.082151
0.08857
0.0954655
0.10262
0.109792
0.116755
0.123319
0.129355
0.134809
0.139717
0.144191
0.148306
0.151888
0.154401
0.155221
0.154241
0.152155
0.149817
0.147062
0.142428
0.134675
0.125023
0.117712
0.117713
0.127206
0.143829
0.162138
0.176921
0.185721
0.18911
0.189234
0.188161
0.187033
0.186123
0.185283
0.184334
0.183213
0.181959
0.180643
0.17931
0.177968
0.176593
0.175151
0.173616
0.171966
0.170182
0.168245
0.166128
0.163801
0.161233
0.158396
0.155267
0.15182
0.148036
0.143896
0.139388
0.134505
0.129248
0.123621
0.117635
0.111309
0.104673
0.0977737
0.0906742
0.0834599
0.0762358
0.0691203
0.0622311
0.055667
0.0494934
0.0437375
0.0383991
0.0334669
0.0289372
0.0248189
0.0211368
0.0179105
0.0151653
0.0128744
0.0110654
0.00955838
0.00855271
0.0074421
0.00766608
0.0474301
0.0480315
0.0488294
0.0498397
0.05108
0.0525706
0.0543361
0.0564058
0.0588137
0.0615982
0.0647999
0.0684574
0.0726015
0.0772449
0.0823765
0.0879525
0.0938922
0.100079
0.106371
0.112614
0.118665
0.124404
0.129745
0.134637
0.139079
0.143131
0.146908
0.150463
0.153593
0.15574
0.156273
0.155075
0.152823
0.150356
0.147524
0.142878
0.135138
0.12541
0.117838
0.117431
0.126553
0.143042
0.161516
0.176653
0.185811
0.189422
0.189611
0.188495
0.187284
0.186293
0.185385
0.18437
0.183176
0.181836
0.180418
0.178972
0.177505
0.175991
0.174395
0.172685
0.170839
0.168835
0.166653
0.164265
0.161641
0.158752
0.15557
0.152071
0.148232
0.144036
0.13947
0.134527
0.129208
0.123524
0.117495
0.111152
0.104535
0.0976974
0.0907032
0.0836268
0.0765514
0.0695647
0.0627541
0.0562006
0.0499739
0.0441295
0.0387066
0.0337285
0.0292056
0.0251411
0.0215319
0.0183729
0.0156427
0.0133215
0.0113484
0.00972488
0.00829512
0.0072135
0.00604275
0.00566028
0.0479726
0.049633
0.0515052
0.0536021
0.0559353
0.0585171
0.0613608
0.0644801
0.0678886
0.0715982
0.0756169
0.0799456
0.0845715
0.0894679
0.0945931
0.0998887
0.10528
0.110681
0.116001
0.121156
0.126072
0.130697
0.134996
0.138957
0.142595
0.145978
0.149209
0.152318
0.155077
0.156911
0.157188
0.155792
0.153386
0.150804
0.147912
0.143283
0.1356
0.12586
0.1181
0.117342
0.12611
0.142438
0.161024
0.176463
0.185942
0.189762
0.190014
0.188858
0.187569
0.1865
0.185526
0.18445
0.18319
0.181772
0.180264
0.178716
0.177137
0.1755
0.173766
0.1719
0.169876