/*--------------------------------*- C++ -*----------------------------------*\
  =========                 |
  \\      /  F ield         | OpenFOAM: The Open Source CFD Toolbox
   \\    /   O peration     | Website:  https://openfoam.org
    \\  /    A nd           | Version:  10
     \\/     M anipulation  |
\*---------------------------------------------------------------------------*/
FoamFile
{
    format      ascii;
    class       volScalarField;
    location    "0.03";
    object      nut;
}
// * * * * * * * * * * * * * * * * * * * * * * * * * * * * * * * * * * * * * //

dimensions      [0 2 -1 0 0 0 0];

internalField   nonuniform List<scalar> 
6820
(
0
0
0
0
0
0
0
0
0
0
0
0
0
0
0
0
0
0
0
0
0
0
0
0
0
0
0
0
0
0
0
0
0
0
0
0
0
0
0
0
0
0
0
0
0
0
0
0
0
0
0
0
0
0
0
0
0
0
0
0
0
0
0
0
0
0
0
0
0
0
0
0
0
0
0
0
0
0
0
0
0
0
0
0
0
0
0
0
0
0
0
0
0
0
0
0
0
0
0
0
0
0
0
0
0
0
0
0
0
0
0
0
0
0
0
0
0
0
0
0
0
0
0
0
0
0
0
0
0
0
0
0
1.53801e-05
0
0
0
0
0
0
0
0
0
0
0
0
0
0
0
0
0
0
0
0
0
0
0
0
0
0
0
0
0
0
0
0
6.06247e-06
4.24358e-05
3.29952e-05
1.90009e-05
8.51424e-06
2.45272e-06
0
0
0
0
0
0
0
0
0
0
0
0
0
0
0
0
0
0
0
0
0
0
0
0
0
0
0
0
1.01859e-05
1.85976e-05
2.37109e-05
2.26773e-05
2.05274e-05
1.85827e-05
1.65243e-05
1.4429e-05
1.24497e-05
1.06186e-05
8.94436e-06
7.44087e-06
6.11528e-06
4.96872e-06
4.00019e-06
3.20659e-06
2.58228e-06
2.11988e-06
1.81273e-06
1.65777e-06
1.65738e-06
1.82074e-06
2.16053e-06
2.66804e-06
3.21054e-06
3.276e-06
2.05748e-06
1.5612e-07
0
0
0
0
0
4.27688e-06
5.30982e-06
1.24843e-05
1.52265e-05
1.51907e-05
1.44904e-05
1.3264e-05
1.174e-05
1.01587e-05
8.60089e-06
7.10428e-06
5.70839e-06
4.4422e-06
3.32311e-06
2.36145e-06
1.56138e-06
9.21431e-07
4.35546e-07
9.70501e-08
0
0
0
1.77463e-07
4.99063e-07
7.37867e-07
5.66076e-07
0
0
0
0
0
0
0
2.8617e-06
0
7.8769e-07
3.51043e-06
5.58995e-06
7.33312e-06
8.15414e-06
8.11955e-06
7.58596e-06
6.76423e-06
5.77992e-06
4.73608e-06
3.70778e-06
2.74451e-06
1.87893e-06
1.13047e-06
5.07908e-07
1.06183e-08
0
0
0
0
0
0
0
0
0
0
0
0
0
0
0
1.96419e-06
0
0
0
0
0
0
0
0
0
0
0
0
0
0
0
0
0
0
0
0
0
0
0
0
0
0
0
0
0
0
0
0
1.26082e-06
0
0
0
0
0
0
0
0
0
0
0
0
0
0
0
0
0
0
0
0
0
0
0
0
0
0
0
0
0
0
0
0
6.41996e-07
0
0
0
0
0
0
0
0
0
0
0
0
0
0
0
0
0
0
0
0
0
0
0
0
0
0
0
0
0
0
0
0
1.13143e-07
0
0
0
0
0
0
0
0
0
0
0
0
0
0
0
0
0
0
0
0
0
0
0
0
0
0
0
0
0
0
0
0
0
0
0
0
0
0
0
0
0
0
0
0
0
0
0
0
0
0
0
0
0
0
0
0
0
0
0
0
0
0
0
0
0
0
0
0
0
0
0
0
0
0
0
0
0
0
0
0
0
0
0
0
0
0
0
0
0
0
0
0
0
0
0
0
0
0
0
0
0
0
0
0
0
0
0
0
0
0
0
0
0
0
0
0
0
0
0
0
0
0
0
0
0
0
0
0
0
0
0
0
0
0
0
0
0
0
0
0
0
0
0
0
0
0
0
0
0
0
0
0
0
0
0
0
0
0
0
0
0
0
0
0
0
0
0
0
0
0
0
0
0
0
0
0
0
0
0
0
0
0
0
0
0
0
0
0
0
0
0
0
0
5.15507e-08
0
0
0
0
0
0
0
0
0
0
0
0
0
0
0
0
0
0
0
0
0
0
0
0
0
0
0
0
0
0
0
2.73126e-07
5.45638e-07
4.60709e-07
0
0
0
0
0
0
0
0
0
0
0
0
0
0
0
0
0
0
0
0
0
0
0
0
0
0
0
0
0
2.85109e-07
6.05053e-07
8.87553e-07
8.13101e-07
0
0
0
0
0
0
0
0
0
0
0
0
0
0
0
0
0
0
0
0
0
0
0
0
0
0
0
1.21633e-07
4.44254e-07
7.65901e-07
1.08367e-06
1.35795e-06
1.27905e-06
2.09567e-07
0
0
0
0
0
0
0
0
0
0
0
0
0
0
0
0
0
0
0
0
0
0
0
0
0
1.9114e-07
5.14061e-07
8.3302e-07
1.14345e-06
1.44182e-06
1.6911e-06
1.60283e-06
5.88876e-07
0
0
0
0
0
0
0
0
0
0
0
0
0
0
0
0
0
0
0
0
0
0
0
0
2.62454e-07
5.7749e-07
8.83717e-07
1.17771e-06
1.45506e-06
1.71234e-06
1.91713e-06
1.816e-06
8.961e-07
0
0
0
0
0
0
0
0
0
0
0
0
0
0
0
0
0
0
0
0
0
0
1.26635e-07
4.30593e-07
7.22056e-07
9.99072e-07
1.25902e-06
1.49893e-06
1.71516e-06
1.90472e-06
2.04133e-06
1.91911e-06
1.11797e-06
0
0
0
0
0
0
0
0
0
0
0
0
0
0
0
0
0
0
0
0
0
2.95586e-08
3.09741e-07
5.72894e-07
8.1786e-07
1.04294e-06
1.24592e-06
1.42432e-06
1.57517e-06
1.69596e-06
1.76774e-06
1.63957e-06
1.01326e-06
0
0
0
0
0
0
0
0
0
0
0
0
0
0
0
0
0
0
0
1.33902e-07
3.99941e-07
6.39559e-07
8.53902e-07
1.04356e-06
1.20832e-06
1.34742e-06
1.45962e-06
1.54321e-06
1.59598e-06
1.6158e-06
1.59184e-06
1.43951e-06
9.73811e-07
0
0
0
0
0
0
0
0
0
0
0
0
0
0
0
0
0
0
0
0
1.08152e-07
2.79221e-07
4.24457e-07
5.44427e-07
6.39032e-07
7.07633e-07
7.49132e-07
7.62065e-07
7.4479e-07
6.95854e-07
6.13515e-07
4.78973e-07
2.63278e-07
0
0
0
0
0
0
0
0
0
0
0
0
0
0
0
0
1.96125e-07
4.07907e-07
5.76115e-07
7.05551e-07
8.00288e-07
8.635e-07
8.97452e-07
9.03508e-07
8.82305e-07
8.33802e-07
7.57447e-07
6.52227e-07
5.16911e-07
3.49969e-07
1.58596e-07
3.30194e-09
0
0
0
0
0
0
0
0
0
0
0
0
0
0
0
0
0
0
0
0
0
0
0
0
0
0
0
0
0
0
0
0
0
0
0
0
0
0
0
0
0
0
0
0
0
0
0
0
0
0
0
0
0
0
0
0
0
0
0
0
0
0
0
0
0
0
0
0
0
0
0
0
0
0
0
0
0
0
0
0
0
0
0
0
0
0
0
0
0
0
0
0
0
0
0
0
0
0
0
0
0
0
0
0
0
0
0
0
0
0
0
0
0
0
0
0
0
0
0
0
0
0
0
0
0
0
0
0
0
0
0
0
0
0
0
0
0
0
0
0
0
0
0
0
0
0
0
0
0
0
0
0
0
0
0
0
0
0
0
0
0
0
0
0
0
0
0
0
0
3.84285e-06
9.73571e-06
1.04399e-05
5.13291e-06
0
0
0
0
0
0
0
0
0
0
0
0
0
0
0
0
0
0
0
0
0
0
0
0
0
0
0
0
1.52487e-05
3.34721e-05
4.35152e-05
4.59566e-05
3.8073e-05
1.32536e-05
0
0
0
0
0
0
0
0
0
0
0
0
0
0
0
0
0
0
0
0
0
0
0
0
0
1.47557e-06
4.60202e-05
6.8974e-05
6.05145e-05
4.34512e-05
2.95259e-05
2.05614e-05
1.51819e-05
1.20278e-05
1.01915e-05
9.10048e-06
8.42574e-06
7.99131e-06
7.70475e-06
7.51703e-06
7.40028e-06
7.33568e-06
7.30775e-06
7.30229e-06
7.3061e-06
7.30731e-06
7.29577e-06
7.26328e-06
7.20495e-06
7.1151e-06
6.9864e-06
6.81838e-06
6.6138e-06
6.37743e-06
6.11551e-06
5.83584e-06
5.50237e-06
4.95904e-06
0
0
0
0
0
0
0
0
0
0
0
0
0
0
0
0
0
0
0
0
0
0
0
0
1.94057e-08
3.75533e-07
8.07634e-07
1.3263e-06
1.94256e-06
2.66694e-06
3.5108e-06
4.48936e-06
6.28544e-06
4.09938e-08
0
0
0
0
0
0
0
0
0
0
0
0
0
0
0
0
0
0
0
0
0
0
0
0
0
0
0
0
0
0
0
0
2.19912e-08
0
0
0
0
0
0
0
0
0
0
0
0
0
0
0
0
0
0
0
0
0
0
0
0
0
0
0
0
0
0
0
0
1.0147e-08
0
0
0
0
0
0
0
0
0
0
0
0
0
0
0
0
0
0
0
0
0
0
0
0
0
0
0
0
0
0
0
0
5.5649e-07
0
0
0
0
0
0
0
0
0
0
0
0
0
0
5.93549e-06
1.11673e-05
1.40828e-05
1.49825e-05
1.47815e-05
9.33159e-06
1.16157e-05
1.54056e-05
1.80771e-05
1.912e-05
1.87539e-05
1.76833e-05
1.65434e-05
1.55547e-05
1.45554e-05
1.33384e-05
1.18753e-05
1.02767e-05
8.6352e-06
6.94244e-06
5.1451e-06
3.25653e-06
1.38665e-06
0
0
0
0
0
0
0
0
0
0
0
0
0
0
0
0
0
0
0
0
0
0
0
0
0
0
0
0
0
0
0
0
0
0
0
0
0
0
0
0
0
0
0
0
0
0
0
0
0
0
0
0
1.21522e-09
4.69553e-08
4.27514e-08
2.71514e-08
1.40923e-08
6.02174e-09
9.9709e-11
0
0
5.76205e-09
6.52311e-07
0
0
0
0
0
0
0
0
0
0
0
0
0
1.0457e-06
4.73643e-06
7.91625e-06
1.01824e-05
1.13312e-05
7.19239e-06
1.00938e-05
1.4744e-05
1.85314e-05
2.06362e-05
2.10103e-05
2.02415e-05
1.91117e-05
1.81422e-05
1.73523e-05
1.64631e-05
1.52546e-05
1.37324e-05
1.20496e-05
1.03279e-05
8.56195e-06
6.68083e-06
4.68209e-06
2.68588e-06
8.28727e-07
0
0
0
0
0
0
0
0
0
0
0
0
0
0
0
0
0
0
0
0
0
0
0
0
0
0
0
0
0
0
0
0
0
0
0
0
0
0
0
0
0
0
0
0
0
0
0
0
0
0
0
0
0
0
0
0
0
0
0
0
7.83178e-10
1.42788e-07
0
0
0
0
0
0
0
0
0
0
0
0
0
4.57395e-07
2.6672e-06
4.96993e-06
5.72811e-06
4.60766e-06
8.25808e-06
1.30535e-05
1.7381e-05
2.02866e-05
2.14446e-05
2.12117e-05
2.03134e-05
1.94275e-05
1.88135e-05
1.82974e-05
1.75586e-05
1.64154e-05
1.49181e-05
1.32492e-05
1.15464e-05
9.80542e-06
7.94162e-06
5.93718e-06
3.9146e-06
2.03609e-06
3.56775e-07
0
0
0
0
0
0
0
0
0
0
0
0
0
0
0
0
0
0
0
0
0
0
0
0
0
0
0
0
0
0
0
0
0
0
0
0
0
0
0
0
0
0
0
0
0
0
0
0
0
0
0
0
0
0
0
0
0
0
0
0
0
0
0
0
0
0
0
0
0
0
0
0
0
0
0
6.76227e-07
7.39458e-07
3.19224e-06
6.92622e-06
1.13003e-05
1.56321e-05
1.89665e-05
2.07672e-05
2.11366e-05
2.06374e-05
1.99437e-05
1.94761e-05
1.92415e-05
1.89647e-05
1.83529e-05
1.72823e-05
1.58385e-05
1.42196e-05
1.25717e-05
1.0891e-05
9.08116e-06
7.10903e-06
5.09665e-06
3.22779e-06
1.5813e-06
1.19113e-07
0
0
0
0
0
0
0
0
0
0
0
0
0
0
0
0
0
0
0
0
0
0
0
0
0
0
0
0
0
0
0
0
0
0
0
0
0
0
0
0
0
0
0
0
0
0
0
0
0
0
0
0
0
0
0
0
0
0
0
0
0
0
0
0
0
0
0
0
0
0
0
0
0
0
9.74691e-07
2.9023e-06
5.86395e-06
9.72037e-06
1.38168e-05
1.7248e-05
1.9447e-05
2.03551e-05
2.03355e-05
1.99462e-05
1.96569e-05
1.96291e-05
1.97083e-05
1.96043e-05
1.90827e-05
1.80727e-05
1.66836e-05
1.51214e-05
1.35361e-05
1.19235e-05
1.01766e-05
8.24646e-06
6.25282e-06
4.40049e-06
2.79225e-06
1.3928e-06
1.35834e-07
0
0
0
0
0
0
0
0
0
0
0
0
0
0
0
0
0
0
0
0
0
0
0
0
0
0
0
0
0
0
0
0
0
0
0
0
0
0
0
0
0
0
0
0
0
0
0
0
0
0
0
0
0
0
0
0
0
0
0
0
0
0
0
0
0
0
0
0
0
0
0
0
1.99661e-07
2.00228e-06
4.73048e-06
8.21956e-06
1.19332e-05
1.52154e-05
1.75994e-05
1.89428e-05
1.94219e-05
1.94275e-05
1.93886e-05
1.95591e-05
1.99106e-05
2.02179e-05
2.02251e-05
1.9762e-05
1.88007e-05
1.74657e-05
1.5964e-05
1.44464e-05
1.2907e-05
1.12284e-05
9.34647e-06
7.37687e-06
5.54442e-06
3.97839e-06
2.64688e-06
1.4678e-06
3.87591e-07
0
0
0
0
0
0
0
0
0
0
0
0
0
0
0
0
0
0
0
0
0
0
0
0
0
0
0
0
0
0
0
0
0
0
0
0
0
0
0
0
0
0
0
0
0
0
0
0
0
0
0
0
0
0
0
0
0
0
0
0
0
0
0
0
0
0
0
0
0
0
0
5.07776e-07
3.21117e-06
6.39404e-06
9.72917e-06
1.28086e-05
1.5282e-05
1.69743e-05
1.79264e-05
1.83732e-05
1.8656e-05
1.90572e-05
1.96484e-05
2.02853e-05
2.07361e-05
2.08023e-05
2.03736e-05
1.94548e-05
1.81764e-05
1.67413e-05
1.52971e-05
1.38356e-05
1.22308e-05
1.04034e-05
8.46351e-06
6.65419e-06
5.13327e-06
3.8759e-06
2.78266e-06
1.78123e-06
8.32802e-07
0
0
0
0
0
0
0
0
0
0
0
0
0
0
0
0
0
0
0
0
0
0
0
0
0
0
0
0
0
0
0
0
0
0
0
0
0
0
0
0
0
0
0
0
0
0
0
0
0
0
0
0
0
0
0
0
0
0
0
0
0
0
0
0
0
0
0
0
0
0
1.01149e-06
4.00967e-06
7.10473e-06
1.00462e-05
1.25883e-05
1.45615e-05
1.59301e-05
1.68157e-05
1.74646e-05
1.81391e-05
1.89701e-05
1.98905e-05
2.07079e-05
2.12264e-05
2.13118e-05
2.09033e-05
2.00264e-05
1.881e-05
1.7448e-05
1.6083e-05
1.47043e-05
1.3178e-05
1.14114e-05
9.50735e-06
7.72489e-06
6.25125e-06
5.07262e-06
4.07385e-06
3.16092e-06
2.28274e-06
1.41368e-06
5.39956e-07
0
0
0
0
0
0
0
0
0
0
0
0
0
0
0
0
0
0
0
0
0
0
0
0
0
0
0
0
0
0
0
0
0
0
0
0
0
0
0
0
0
0
0
0
0
0
0
0
0
0
0
0
0
0
0
0
0
0
0
0
0
0
0
0
0
0
0
0
1.40522e-06
4.31021e-06
7.13522e-06
9.70483e-06
1.18723e-05
1.35691e-05
1.48439e-05
1.58615e-05
1.68372e-05
1.79187e-05
1.90975e-05
2.02275e-05
2.11254e-05
2.16525e-05
2.17327e-05
2.13401e-05
2.05095e-05
1.93621e-05
1.80799e-05
1.67994e-05
1.55077e-05
1.40648e-05
1.23648e-05
1.0503e-05
8.75169e-06
7.32764e-06
6.23114e-06
5.33372e-06
4.51913e-06
3.72152e-06
2.91082e-06
2.07735e-06
1.21963e-06
3.365e-07
0
0
0
0
0
0
0
0
0
0
0
0
0
0
0
0
0
0
0
0
0
0
0
0
0
0
0
0
0
0
0
0
0
0
0
0
0
0
0
0
0
0
0
0
0
0
0
0
0
0
0
0
0
0
0
0
0
0
0
0
0
0
0
0
0
0
1.70077e-06
4.34785e-06
6.85687e-06
9.10396e-06
1.10133e-05
1.25911e-05
1.39382e-05
1.52138e-05
1.65499e-05
1.7968e-05
1.93668e-05
2.05859e-05
2.14855e-05
2.19847e-05
2.20505e-05
2.16774e-05
2.09005e-05
1.98294e-05
1.86333e-05
1.7442e-05
1.62411e-05
1.48854e-05
1.3258e-05
1.14451e-05
9.72975e-06
8.35781e-06
7.34643e-06
6.55593e-06
5.84776e-06
5.14019e-06
4.39718e-06
3.61129e-06
2.78769e-06
1.9323e-06
1.05058e-06
1.54294e-07
0
0
0
0
0
0
0
0
0
0
0
0
0
0
0
0
0
0
0
0
0
0
0
0
0
0
0
0
0
0
0
0
0
0
0
0
0
0
0
0
0
0
0
0
0
0
0
0
0
0
0
0
0
0
0
0
0
0
0
0
0
0
0
0
1.93994e-06
4.27813e-06
6.476e-06
8.465e-06
1.02318e-05
1.18316e-05
1.33689e-05
1.49409e-05
1.65734e-05
1.81973e-05
1.96817e-05
2.08941e-05
2.17465e-05
2.22031e-05
2.22576e-05
2.19126e-05
2.11977e-05
2.02097e-05
1.91051e-05
1.80069e-05
1.68995e-05
1.56347e-05
1.40853e-05
1.23282e-05
1.06543e-05
9.33729e-06
8.41363e-06
7.73489e-06
7.1402e-06
6.53066e-06
5.86348e-06
5.13289e-06
4.35021e-06
3.52732e-06
2.67273e-06
1.80007e-06
9.31659e-07
9.05117e-08
0
0
0
0
0
0
0
0
0
0
0
0
0
0
0
0
0
0
0
0
0
0
0
0
0
0
0
0
0
0
0
0
0
0
0
0
0
0
0
0
0
0
0
0
0
0
0
0
0
0
0
0
0
0
0
0
0
0
0
0
0
2.2573e-08
2.10246e-06
4.1457e-06
6.09765e-06
7.93874e-06
9.69458e-06
1.14246e-05
1.31865e-05
1.49937e-05
1.67941e-05
1.84847e-05
1.99493e-05
2.10971e-05
2.18824e-05
2.22986e-05
2.23522e-05
2.20458e-05
2.14008e-05
2.05016e-05
1.94924e-05
1.84902e-05
1.74787e-05
1.63076e-05
1.48414e-05
1.31471e-05
1.15209e-05
1.02619e-05
9.42814e-06
8.86513e-06
8.39013e-06
7.886e-06
7.30186e-06
6.63295e-06
5.89711e-06
5.11276e-06
4.29145e-06
3.44661e-06
2.60003e-06
1.77758e-06
9.96817e-07
2.57954e-07
0
0
0
0
0
0
0
0
0
0
0
0
0
0
0
0
0
0
0
0
0
0
0
0
0
0
0
0
0
0
0
0
0
0
0
0
0
0
0
0
0
0
0
0
0
0
0
0
0
0
0
0
0
0
0
0
0
0
0
4.36492e-07
2.24925e-06
4.06787e-06
5.87533e-06
7.68069e-06
9.51113e-06
1.13904e-05
1.33137e-05
1.5234e-05
1.70685e-05
1.87202e-05
2.01033e-05
2.11634e-05
2.18832e-05
2.22711e-05
2.23367e-05
2.20788e-05
2.15103e-05
2.0704e-05
1.9793e-05
1.88885e-05
1.79742e-05
1.6899e-05
1.55208e-05
1.38967e-05
1.23248e-05
1.11276e-05
1.03856e-05
9.9414e-06
9.59126e-06
9.19914e-06
8.70487e-06
8.10374e-06
7.41974e-06
6.67859e-06
5.89601e-06
5.08521e-06
4.26653e-06
3.46607e-06
2.7034e-06
1.98272e-06
1.29463e-06
6.24103e-07
0
0
0
0
0
0
0
0
0
0
0
0
0
0
0
0
0
0
0
0
0
0
0
0
0
0
0
0
0
0
0
0
0
0
0
0
0
0
0
0
0
0
0
0
0
0
0
0
0
0
0
0
0
0
0
0
0
7.90405e-07
2.41849e-06
4.11543e-06
5.88123e-06
7.72206e-06
9.63768e-06
1.1608e-05
1.35861e-05
1.55021e-05
1.72752e-05
1.88298e-05
2.0109e-05
2.10833e-05
2.1751e-05
2.21259e-05
2.2216e-05
2.20146e-05
2.15271e-05
2.0816e-05
2.00047e-05
1.91988e-05
1.83821e-05
1.74045e-05
1.61186e-05
1.45721e-05
1.3062e-05
1.19307e-05
1.12821e-05
1.09587e-05
1.07374e-05
1.04629e-05
1.00647e-05
9.5373e-06
8.91021e-06
8.21663e-06
7.47699e-06
6.7051e-06
5.92e-06
5.14699e-06
4.40705e-06
3.70688e-06
3.03829e-06
2.38682e-06
1.74493e-06
1.11568e-06
5.0953e-07
0
0
0
0
0
0
0
0
0
0
0
0
0
0
0
0
0
0
0
0
0
0
0
0
0
0
0
0
0
0
0
0
0
0
0
0
0
0
0
0
0
0
0
0
0
0
0
0
0
0
0
0
0
0
1.15383e-06
2.69065e-06
4.34845e-06
6.12116e-06
7.99478e-06
9.94055e-06
1.1912e-05
1.38479e-05
1.568e-05
1.73426e-05
1.87812e-05
1.99594e-05
2.08622e-05
2.14948e-05
2.18712e-05
2.19955e-05
2.18562e-05
2.1452e-05
2.08371e-05
2.01258e-05
1.94183e-05
1.86989e-05
1.78197e-05
1.66302e-05
1.51685e-05
1.37283e-05
1.26677e-05
1.2114e-05
1.19124e-05
1.18225e-05
1.167e-05
1.13734e-05
1.09252e-05
1.03601e-05
9.71865e-06
9.02625e-06
8.29765e-06
7.55055e-06
6.80946e-06
6.09652e-06
5.42041e-06
4.77443e-06
4.14455e-06
3.52194e-06
2.90884e-06
2.31652e-06
1.75936e-06
1.24744e-06
7.85513e-07
3.76007e-07
2.02796e-08
0
0
0
0
0
0
0
0
0
0
0
0
0
0
0
0
0
0
0
0
0
0
0
0
0
0
0
0
0
0
0
0
0
0
0
0
0
0
0
0
0
0
0
0
0
0
0
0
1.92273e-07
1.552e-06
3.06296e-06
4.71462e-06
6.48698e-06
8.34891e-06
1.02571e-05
1.21579e-05
1.39931e-05
1.57053e-05
1.72446e-05
1.85723e-05
1.96645e-05
2.05135e-05
2.11265e-05
2.15155e-05
2.16809e-05
2.16065e-05
2.12863e-05
2.0767e-05
2.01546e-05
1.95444e-05
1.89213e-05
1.81409e-05
1.70513e-05
1.56818e-05
1.43198e-05
1.33353e-05
1.28777e-05
1.27979e-05
1.28407e-05
1.28133e-05
1.26228e-05
1.22589e-05
1.17607e-05
1.11758e-05
1.05351e-05
9.85433e-06
9.14977e-06
8.44477e-06
7.76217e-06
7.11279e-06
6.4918e-06
5.88576e-06
5.28486e-06
4.69045e-06
4.11395e-06
3.57017e-06
3.07056e-06
2.62135e-06
2.22551e-06
1.88431e-06
1.59817e-06
1.36631e-06
1.18671e-06
1.0558e-06
9.68719e-07
9.19885e-07
9.03444e-07
9.13578e-07
9.44647e-07
9.91216e-07
1.04804e-06
1.11004e-06
1.17238e-06
1.23064e-06
1.28101e-06
1.3204e-06
1.3464e-06
1.35705e-06
1.3508e-06
1.32686e-06
1.28579e-06
1.23e-06
1.16345e-06
1.0908e-06
1.01632e-06
9.42881e-07
8.71927e-07
8.02802e-07
7.35186e-07
6.66017e-07
6.00511e-07
5.30719e-07
4.83976e-07
4.09095e-07
4.66806e-07
4.72499e-07
0
0
0
0
0
0
0
0
0
0
0
0
6.75712e-07
2.0169e-06
3.51105e-06
5.13827e-06
6.86939e-06
8.66646e-06
1.0484e-05
1.22723e-05
1.39815e-05
1.55662e-05
1.69883e-05
1.82193e-05
1.92422e-05
2.00527e-05
2.06579e-05
2.10671e-05
2.1277e-05
2.12682e-05
2.10308e-05
2.06054e-05
2.009e-05
1.95752e-05
1.90469e-05
1.83651e-05
1.73784e-05
1.61082e-05
1.4833e-05
1.39302e-05
1.357e-05
1.3611e-05
1.37863e-05
1.38856e-05
1.38044e-05
1.35292e-05
1.31025e-05
1.25789e-05
1.19943e-05
1.1366e-05
1.07087e-05
1.00442e-05
9.39564e-06
8.77565e-06
8.18143e-06
7.60054e-06
7.02288e-06
6.44907e-06
5.89036e-06
5.36205e-06
4.87671e-06
4.44175e-06
4.0604e-06
3.73373e-06
3.4618e-06
3.24357e-06
3.07659e-06
2.95672e-06
2.8784e-06
2.83528e-06
2.82067e-06
2.82787e-06
2.85041e-06
2.88219e-06
2.91763e-06
2.95169e-06
2.97989e-06
2.99837e-06
3.00393e-06
2.99403e-06
2.96661e-06
2.91986e-06
2.85209e-06
2.76213e-06
2.65024e-06
2.51894e-06
2.37318e-06
2.21929e-06
2.06376e-06
1.91119e-06
1.76502e-06
1.62401e-06
1.48996e-06
1.35363e-06
1.22848e-06
1.08517e-06
9.90752e-07
8.25812e-07
9.34412e-07
9.45922e-07
0
0
0
0
0
0
0
0
0
0
0
9.04121e-09
1.17493e-06
2.49424e-06
3.95114e-06
5.52132e-06
7.17342e-06
8.87014e-06
1.05701e-05
1.22307e-05
1.38112e-05
1.52753e-05
1.65931e-05
1.77426e-05
1.87106e-05
1.9494e-05
2.00992e-05
2.05326e-05
2.0788e-05
2.08436e-05
2.06865e-05
2.0352e-05
1.99311e-05
1.95092e-05
1.90737e-05
1.84901e-05
1.76089e-05
1.64443e-05
1.52643e-05
1.44493e-05
1.41873e-05
1.43472e-05
1.46533e-05
1.48795e-05
1.491e-05
1.47271e-05
1.43763e-05
1.39182e-05
1.33941e-05
1.28229e-05
1.22177e-05
1.15983e-05
1.09878e-05
1.04002e-05
9.83481e-06
9.28035e-06
8.72683e-06
8.1745e-06
7.63456e-06
7.12287e-06
6.65293e-06
6.23289e-06
5.86632e-06
5.55404e-06
5.29566e-06
5.08964e-06
4.93292e-06
4.82072e-06
4.74688e-06
4.70438e-06
4.68587e-06
4.68401e-06
4.69179e-06
4.70264e-06
4.71063e-06
4.71054e-06
4.69796e-06
4.66931e-06
4.62192e-06
4.55396e-06
4.46429e-06
4.35203e-06
4.21638e-06
4.05689e-06
3.87427e-06
3.67129e-06
3.45318e-06
3.22665e-06
2.99902e-06
2.77535e-06
2.56018e-06
2.3513e-06
2.1526e-06
1.94955e-06
1.76504e-06
1.55008e-06
1.41093e-06
1.16383e-06
1.31971e-06
1.32607e-06
0
0
0
0
0
0
0
0
0
0
0
5.58904e-07
1.69057e-06
2.95853e-06
4.34469e-06
5.8247e-06
7.36914e-06
8.9446e-06
1.05155e-05
1.20461e-05
1.3503e-05
1.48566e-05
1.60826e-05
1.71627e-05
1.80859e-05
1.88497e-05
1.94589e-05
1.99177e-05
2.02174e-05
2.03345e-05
2.02542e-05
2.00072e-05
1.96776e-05
1.9346e-05
1.90011e-05
1.85145e-05
1.77406e-05
1.66873e-05
1.56104e-05
1.48889e-05
1.4726e-05
1.50022e-05
1.54361e-05
1.5788e-05
1.5931e-05
1.58433e-05
1.55721e-05
1.51838e-05
1.47248e-05
1.42152e-05
1.36667e-05
1.30972e-05
1.25289e-05
1.19772e-05
1.14432e-05
1.0917e-05
1.0389e-05
9.85946e-06
9.33965e-06
8.84609e-06
8.39323e-06
7.98995e-06
7.64002e-06
7.34401e-06
7.10095e-06
6.9086e-06
6.76322e-06
6.6594e-06
6.59026e-06
6.5481e-06
6.5249e-06
6.51274e-06
6.50411e-06
6.49208e-06
6.47053e-06
6.43417e-06
6.37872e-06
6.30088e-06
6.19846e-06
6.07028e-06
5.91602e-06
5.73586e-06
5.53026e-06
5.30008e-06
5.04715e-06
4.77489e-06
4.4887e-06
4.19502e-06
3.90094e-06
3.61107e-06
3.33035e-06
3.0557e-06
2.79367e-06
2.5259e-06
2.28549e-06
2.00555e-06
1.83029e-06
1.51287e-06
1.73159e-06
1.75052e-06
0
0
0
0
0
0
0
0
0
0
1.37081e-07
1.08225e-06
2.15698e-06
3.34965e-06
4.64283e-06
6.01452e-06
7.43883e-06
8.88701e-06
1.0329e-05
1.1735e-05
1.30771e-05
1.43307e-05
1.54753e-05
1.6495e-05
1.73803e-05
1.81285e-05
1.87432e-05
1.92263e-05
1.95675e-05
1.97425e-05
1.97349e-05
1.95717e-05
1.93303e-05
1.90861e-05
1.88292e-05
1.84382e-05
1.77725e-05
1.68349e-05
1.5868e-05
1.52453e-05
1.51819e-05
1.55709e-05
1.61285e-05
1.66035e-05
1.68589e-05
1.68682e-05
1.66801e-05
1.63657e-05
1.59758e-05
1.55323e-05
1.50453e-05
1.45302e-05
1.40083e-05
1.34959e-05
1.29959e-05
1.24997e-05
1.19986e-05
1.14928e-05
1.0994e-05
1.05193e-05
1.00843e-05
9.69822e-06
9.36505e-06
9.08498e-06
8.85636e-06
8.67618e-06
8.53993e-06
8.44144e-06
8.37314e-06
8.32667e-06
8.29345e-06
8.26512e-06
8.23384e-06
8.19256e-06
8.13514e-06
8.05651e-06
7.95274e-06
7.82106e-06
7.65994e-06
7.46899e-06
7.24881e-06
7.0007e-06
6.72639e-06
6.428e-06
6.10844e-06
5.77165e-06
5.42307e-06
5.06858e-06
4.71478e-06
4.36561e-06
4.02648e-06
3.69382e-06
3.37739e-06
3.05572e-06
2.77205e-06
2.44127e-06
2.24556e-06
1.87119e-06
2.17774e-06
2.22189e-06
0
0
0
0
0
0
0
0
0
0
6.8726e-07
1.56801e-06
2.56241e-06
3.65938e-06
4.84357e-06
6.09598e-06
7.39442e-06
8.71453e-06
1.0031e-05
1.13186e-05
1.25539e-05
1.37158e-05
1.47864e-05
1.57518e-05
1.66029e-05
1.7337e-05
1.79564e-05
1.84615e-05
1.88406e-05
1.90693e-05
1.91306e-05
1.90476e-05
1.88913e-05
1.87316e-05
1.85597e-05
1.82618e-05
1.77039e-05
1.6885e-05
1.60336e-05
1.55143e-05
1.55504e-05
1.60481e-05
1.67241e-05
1.73184e-05
1.76849e-05
1.77925e-05
1.76903e-05
1.74534e-05
1.71369e-05
1.67638e-05
1.63428e-05
1.58868e-05
1.54157e-05
1.49465e-05
1.44835e-05
1.402e-05
1.3548e-05
1.30681e-05
1.25925e-05
1.21394e-05
1.1725e-05
1.13595e-05
1.10467e-05
1.07863e-05
1.05759e-05
1.04117e-05
1.02882e-05
1.01984e-05
1.0134e-05
1.0086e-05
1.00452e-05
1.00027e-05
9.95035e-06
9.88105e-06
9.7887e-06
9.66845e-06
9.5168e-06
9.33161e-06
9.11205e-06
8.85863e-06
8.57294e-06
8.25737e-06
7.91489e-06
7.54883e-06
7.16307e-06
6.76208e-06
6.35135e-06
5.9364e-06
5.5235e-06
5.1161e-06
4.72028e-06
4.33219e-06
3.96472e-06
3.59352e-06
3.27123e-06
2.89535e-06
2.68413e-06
2.25994e-06
2.65671e-06
2.73993e-06
0
0
0
0
0
0
0
0
0
4.54611e-07
1.15406e-06
1.95882e-06
2.86313e-06
3.85749e-06
4.92903e-06
6.06172e-06
7.23689e-06
8.43407e-06
9.63189e-06
1.08091e-05
1.19455e-05
1.30229e-05
1.40254e-05
1.49403e-05
1.57593e-05
1.64793e-05
1.71017e-05
1.76257e-05
1.80392e-05
1.83178e-05
1.84443e-05
1.84383e-05
1.83638e-05
1.82851e-05
1.81944e-05
1.79864e-05
1.75347e-05
1.68358e-05
1.61036e-05
1.5691e-05
1.5826e-05
1.64275e-05
1.72159e-05
1.79246e-05
1.83997e-05
1.86057e-05
1.85917e-05
1.84359e-05
1.81966e-05
1.78981e-05
1.75474e-05
1.71547e-05
1.67384e-05
1.63157e-05
1.58924e-05
1.54636e-05
1.5022e-05
1.45691e-05
1.41175e-05
1.36865e-05
1.32933e-05
1.29486e-05
1.26562e-05
1.24151e-05
1.22218e-05
1.20716e-05
1.19581e-05
1.18735e-05
1.18087e-05
1.1754e-05
1.16999e-05
1.16373e-05
1.15578e-05
1.14544e-05
1.13215e-05
1.11546e-05
1.09508e-05
1.07089e-05
1.04289e-05
1.01123e-05
9.76168e-06
9.38052e-06
8.97286e-06
8.54301e-06
8.09561e-06
7.63554e-06
7.16829e-06
6.69904e-06
6.23377e-06
5.77556e-06
5.33105e-06
4.89607e-06
4.48637e-06
4.07444e-06
3.72213e-06
3.30929e-06
3.09155e-06
2.62628e-06
3.12625e-06
3.25421e-06
0
0
0
0
0
0
0
0
3.58646e-07
8.93022e-07
1.52163e-06
2.24292e-06
3.05217e-06
3.94179e-06
4.90122e-06
5.91716e-06
6.97409e-06
8.05486e-06
9.14145e-06
1.02157e-05
1.12603e-05
1.22591e-05
1.31978e-05
1.40651e-05
1.48528e-05
1.55581e-05
1.61817e-05
1.6722e-05
1.71667e-05
1.7492e-05
1.76804e-05
1.77479e-05
1.77516e-05
1.77497e-05
1.77357e-05
1.7613e-05
1.72645e-05
1.6685e-05
1.60742e-05
1.57701e-05
1.60024e-05
1.67022e-05
1.75959e-05
1.8413e-05
1.89933e-05
1.92972e-05
1.9373e-05
1.93014e-05
1.91433e-05
1.89238e-05
1.8648e-05
1.83235e-05
1.79665e-05
1.75944e-05
1.72147e-05
1.68239e-05
1.64163e-05
1.59939e-05
1.55702e-05
1.51655e-05
1.47982e-05
1.44797e-05
1.42136e-05
1.39982e-05
1.38289e-05
1.36996e-05
1.3603e-05
1.35302e-05
1.34713e-05
1.34162e-05
1.33545e-05
1.32768e-05
1.31748e-05
1.30415e-05
1.28715e-05
1.26608e-05
1.24074e-05
1.21107e-05
1.17718e-05
1.1393e-05
1.09781e-05
1.05316e-05
1.00586e-05
9.56439e-06
9.05428e-06
8.53367e-06
8.00822e-06
7.483e-06
6.96393e-06
6.45387e-06
5.9601e-06
5.47809e-06
5.02615e-06
4.5737e-06
4.19099e-06
3.7417e-06
3.51652e-06
3.01363e-06
3.60773e-06
3.79105e-06
1.38359e-07
0
0
0
0
0
3.87248e-08
3.49958e-07
7.39981e-07
1.21188e-06
1.76688e-06
2.40392e-06
3.11953e-06
3.90774e-06
4.76003e-06
5.66557e-06
6.61157e-06
7.58373e-06
8.56685e-06
9.54545e-06
1.05044e-05
1.14295e-05
1.23081e-05
1.31297e-05
1.38871e-05
1.45773e-05
1.52008e-05
1.57553e-05
1.62286e-05
1.65974e-05
1.68441e-05
1.69811e-05
1.70583e-05
1.7128e-05
1.71849e-05
1.71422e-05
1.68927e-05
1.64307e-05
1.59413e-05
1.57463e-05
1.60734e-05
1.68652e-05
1.7856e-05
1.87741e-05
1.94547e-05
1.98544e-05
2.00207e-05
2.00354e-05
1.99617e-05
1.9825e-05
1.96284e-05
1.93761e-05
1.90824e-05
1.8764e-05
1.84301e-05
1.80791e-05
1.77066e-05
1.73154e-05
1.69201e-05
1.65417e-05
1.62e-05
1.5907e-05
1.56663e-05
1.54751e-05
1.53276e-05
1.52161e-05
1.51323e-05
1.50663e-05
1.50076e-05
1.49454e-05
1.48691e-05
1.47691e-05
1.46374e-05
1.44673e-05
1.42539e-05
1.39942e-05
1.36868e-05
1.33324e-05
1.29329e-05
1.24921e-05
1.20145e-05
1.15057e-05
1.09717e-05
1.04184e-05
9.85188e-06
9.27769e-06
8.70162e-06
8.12857e-06
7.5644e-06
7.01167e-06
6.47821e-06
5.95895e-06
5.47452e-06
4.99094e-06
4.58702e-06
4.10965e-06
3.88727e-06
3.35562e-06
4.06253e-06
4.29768e-06
3.00093e-07
0
0
0
0
1.09043e-07
3.2145e-07
5.975e-07
9.41654e-07
1.35689e-06
1.8447e-06
2.40489e-06
3.03522e-06
3.73124e-06
4.48637e-06
5.29198e-06
6.13771e-06
7.01171e-06
7.90122e-06
8.79301e-06
9.67399e-06
1.05317e-05
1.13551e-05
1.21345e-05
1.28637e-05
1.35399e-05
1.41631e-05
1.47304e-05
1.52297e-05
1.56385e-05
1.59391e-05
1.61405e-05
1.62857e-05
1.64211e-05
1.6543e-05
1.65745e-05
1.64194e-05
1.60718e-05
1.57029e-05
1.56164e-05
1.60351e-05
1.69118e-05
1.79905e-05
1.90009e-05
1.9775e-05
2.02668e-05
2.05226e-05
2.06248e-05
2.06383e-05
2.05884e-05
2.0476e-05
2.03018e-05
2.00772e-05
1.98185e-05
1.95358e-05
1.92299e-05
1.88981e-05
1.85444e-05
1.8184e-05
1.7839e-05
1.75305e-05
1.72713e-05
1.70649e-05
1.69078e-05
1.67922e-05
1.67093e-05
1.66488e-05
1.66001e-05
1.65516e-05
1.64919e-05
1.641e-05
1.62961e-05
1.61422e-05
1.59419e-05
1.56909e-05
1.53869e-05
1.50295e-05
1.46203e-05
1.41625e-05
1.36607e-05
1.31208e-05
1.25493e-05
1.1953e-05
1.13387e-05
1.07129e-05
1.00818e-05
9.45142e-06
8.82662e-06
8.21341e-06
7.61427e-06
7.03758e-06
6.47782e-06
5.95767e-06
5.44002e-06
5.01147e-06
4.50383e-06
4.28023e-06
3.72051e-06
4.52425e-06
4.81609e-06
4.75718e-07
1.67423e-07
1.16556e-07
1.45804e-07
2.20846e-07
3.43637e-07
5.17923e-07
7.48328e-07
1.03897e-06
1.39275e-06
1.81139e-06
2.2952e-06
2.84273e-06
3.45079e-06
4.1143e-06
4.82645e-06
5.5788e-06
6.36161e-06
7.16415e-06
7.97521e-06
8.78358e-06
9.57848e-06
1.03501e-05
1.10901e-05
1.17927e-05
1.24551e-05
1.30767e-05
1.36542e-05
1.41756e-05
1.46195e-05
1.49684e-05
1.52282e-05
1.54353e-05
1.56307e-05
1.58121e-05
1.59129e-05
1.58475e-05
1.5611e-05
1.5361e-05
1.5382e-05
1.58891e-05
1.68434e-05
1.79999e-05
1.90922e-05
1.9951e-05
2.05282e-05
2.08691e-05
2.10566e-05
2.11563e-05
2.11937e-05
2.11673e-05
2.10739e-05
2.09215e-05
2.07249e-05
2.04953e-05
2.02356e-05
1.99452e-05
1.96294e-05
1.9304e-05
1.8992e-05
1.87153e-05
1.84877e-05
1.83127e-05
1.81858e-05
1.80979e-05
1.8038e-05
1.79945e-05
1.79554e-05
1.79087e-05
1.78424e-05
1.77453e-05
1.76077e-05
1.7422e-05
1.71826e-05
1.68859e-05
1.65307e-05
1.61179e-05
1.56503e-05
1.51324e-05
1.45702e-05
1.39704e-05
1.33405e-05
1.26881e-05
1.20203e-05
1.13444e-05
1.06664e-05
9.99249e-06
9.32757e-06
8.67755e-06
8.04467e-06
7.43768e-06
6.85036e-06
6.30733e-06
5.76786e-06
5.32689e-06
4.7998e-06
4.58887e-06
4.01137e-06
4.94127e-06
5.27474e-06
8.14654e-08
0
0
4.28913e-09
8.57578e-08
2.07501e-07
3.71917e-07
5.82764e-07
8.44258e-07
1.15957e-06
1.53082e-06
1.95901e-06
2.44375e-06
2.98308e-06
3.57344e-06
4.20968e-06
4.88523e-06
5.59227e-06
6.32202e-06
7.06516e-06
7.8122e-06
8.55394e-06
9.2818e-06
9.9884e-06
1.06683e-05
1.13189e-05
1.19388e-05
1.25245e-05
1.30646e-05
1.35392e-05
1.39316e-05
1.42451e-05
1.45101e-05
1.47619e-05
1.49998e-05
1.51667e-05
1.51879e-05
1.50596e-05
1.4927e-05
1.50546e-05
1.56473e-05
1.66727e-05
1.78976e-05
1.90613e-05
1.99953e-05
2.06502e-05
2.10702e-05
2.13386e-05
2.15217e-05
2.16452e-05
2.17054e-05
2.16956e-05
2.16199e-05
2.14911e-05
2.13212e-05
2.11151e-05
2.08749e-05
2.06071e-05
2.03283e-05
2.00617e-05
1.98298e-05
1.96469e-05
1.95168e-05
1.94341e-05
1.9388e-05
1.93657e-05
1.93535e-05
1.93384e-05
1.93071e-05
1.92471e-05
1.91471e-05
1.89972e-05
1.87902e-05
1.85208e-05
1.81864e-05
1.77869e-05
1.73242e-05
1.68025e-05
1.62274e-05
1.56063e-05
1.49469e-05
1.42575e-05
1.35464e-05
1.28217e-05
1.20907e-05
1.13601e-05
1.06364e-05
9.9245e-06
9.23056e-06
8.55675e-06
7.91232e-06
7.29049e-06
6.71762e-06
6.14984e-06
5.68953e-06
5.13769e-06
4.93156e-06
4.33321e-06
5.36454e-06
5.74038e-06
0
0
0
1.19525e-09
4.95066e-08
1.35793e-07
2.61155e-07
4.28368e-07
6.41442e-07
9.03343e-07
1.21606e-06
1.5808e-06
1.99769e-06
2.4656e-06
2.98203e-06
3.54308e-06
4.14361e-06
4.77734e-06
5.43706e-06
6.11501e-06
6.80316e-06
7.49356e-06
8.17865e-06
8.85176e-06
9.50781e-06
1.0144e-05
1.07587e-05
1.13483e-05
1.19024e-05
1.24034e-05
1.28354e-05
1.31995e-05
1.35203e-05
1.38277e-05
1.41216e-05
1.43539e-05
1.44603e-05
1.44389e-05
1.44229e-05
1.4657e-05
1.5334e-05
1.64265e-05
1.77134e-05
1.89414e-05
1.99435e-05
2.06693e-05
2.11618e-05
2.15035e-05
2.17611e-05
2.19605e-05
2.20967e-05
2.21597e-05
2.21504e-05
2.20798e-05
2.19604e-05
2.17998e-05
2.1603e-05
2.13786e-05
2.11436e-05
2.09206e-05
2.07314e-05
2.05904e-05
2.05008e-05
2.04565e-05
2.04453e-05
2.04521e-05
2.04617e-05
2.04594e-05
2.04313e-05
2.03647e-05
2.02481e-05
2.00722e-05
1.98304e-05
1.95185e-05
1.91351e-05
1.86816e-05
1.81615e-05
1.75806e-05
1.69463e-05
1.62669e-05
1.55514e-05
1.48089e-05
1.40482e-05
1.32775e-05
1.25046e-05
1.17361e-05
1.09786e-05
1.02367e-05
9.51658e-06
8.82009e-06
8.15668e-06
7.51865e-06
6.93406e-06
6.35521e-06
5.89291e-06
5.33138e-06
5.14957e-06
4.54366e-06
5.71921e-06
6.11253e-06
0
0
0
0
0
0
0
0
0
2.23444e-07
5.20961e-07
8.62229e-07
1.2481e-06
1.67847e-06
2.15205e-06
2.66639e-06
3.21795e-06
3.80205e-06
4.41312e-06
5.04488e-06
5.69065e-06
6.3437e-06
6.99746e-06
7.64608e-06
8.28502e-06
8.91162e-06
9.52439e-06
1.01201e-05
1.06897e-05
1.12176e-05
1.16895e-05
1.21045e-05
1.24814e-05
1.28449e-05
1.31957e-05
1.3494e-05
1.36854e-05
1.37704e-05
1.38702e-05
1.42098e-05
1.49697e-05
1.61276e-05
1.74753e-05
1.87685e-05
1.98422e-05
2.06447e-05
2.12158e-05
2.16356e-05
2.19695e-05
2.22424e-05
2.24482e-05
2.25748e-05
2.2621e-05
2.25975e-05
2.25185e-05
2.23957e-05
2.22383e-05
2.20583e-05
2.18735e-05
2.17057e-05
2.1575e-05
2.14937e-05
2.14638e-05
2.14777e-05
2.1521e-05
2.15765e-05
2.16268e-05
2.16556e-05
2.1648e-05
2.15909e-05
2.14732e-05
2.1286e-05
2.10231e-05
2.06814e-05
2.02606e-05
1.97632e-05
1.91943e-05
1.85612e-05
1.78726e-05
1.71382e-05
1.63677e-05
1.55709e-05
1.47571e-05
1.39352e-05
1.31131e-05
1.2298e-05
1.14965e-05
1.07138e-05
9.95599e-06
9.22495e-06
8.53057e-06
7.86451e-06
7.25644e-06
6.65547e-06
6.17985e-06
5.59943e-06
5.42945e-06
4.80858e-06
6.09386e-06
6.50789e-06
0
0
0
0
0
0
0
0
0
0
0
2.5939e-07
5.89881e-07
9.62502e-07
1.37662e-06
1.83054e-06
2.32164e-06
2.84635e-06
3.40031e-06
3.97845e-06
4.57527e-06
5.18506e-06
5.80221e-06
6.42164e-06
7.03932e-06
7.65275e-06
8.26037e-06
8.85914e-06
9.44109e-06
9.99269e-06
1.05007e-05
1.09629e-05
1.13933e-05
1.18123e-05
1.22216e-05
1.259e-05
1.28723e-05
1.30686e-05
1.3287e-05
1.37329e-05
1.45764e-05
1.58022e-05
1.72172e-05
1.85872e-05
1.97491e-05
2.06478e-05
2.13175e-05
2.1832e-05
2.2252e-05
2.25984e-05
2.28622e-05
2.30292e-05
2.30979e-05
2.30813e-05
2.29987e-05
2.28686e-05
2.27075e-05
2.2533e-05
2.23654e-05
2.22259e-05
2.21318e-05
2.20927e-05
2.21079e-05
2.21671e-05
2.22532e-05
2.2346e-05
2.2425e-05