/*--------------------------------*- C++ -*----------------------------------*\
  =========                 |
  \\      /  F ield         | OpenFOAM: The Open Source CFD Toolbox
   \\    /   O peration     | Website:  https://openfoam.org
    \\  /    A nd           | Version:  10
     \\/     M anipulation  |
\*---------------------------------------------------------------------------*/
FoamFile
{
    format      ascii;
    class       volScalarField;
    location    "0.03";
    object      p;
}
// * * * * * * * * * * * * * * * * * * * * * * * * * * * * * * * * * * * * * //

dimensions      [0 2 -2 0 0 0 0];

internalField   nonuniform List<scalar> 
6820
(
-10.1659
-10.4696
-10.5193
-10.5404
-10.5791
-10.6121
-10.6395
-10.6659
-10.6917
-10.7167
-10.7413
-10.7655
-10.7896
-10.8133
-10.8366
-10.8594
-10.8813
-10.9022
-10.9215
-10.9388
-10.9536
-10.965
-10.9722
-10.9741
-10.9693
-10.9562
-10.9328
-10.8966
-10.8441
-10.7715
-10.6723
-10.5414
-10.3666
-10.3665
-10.4928
-10.5329
-10.5537
-10.5864
-10.6161
-10.6418
-10.6669
-10.6917
-10.716
-10.7399
-10.7637
-10.7873
-10.8106
-10.8335
-10.8559
-10.8775
-10.8981
-10.9172
-10.9344
-10.9491
-10.9607
-10.9683
-10.9709
-10.9674
-10.9563
-10.9359
-10.9041
-10.8582
-10.7953
-10.7107
-10.6029
-10.4598
-10.3662
-10.453
-10.515
-10.5468
-10.5817
-10.6139
-10.6418
-10.6681
-10.6938
-10.7186
-10.7428
-10.7667
-10.7901
-10.8132
-10.8358
-10.8577
-10.8788
-10.8989
-10.9174
-10.9341
-10.9485
-10.96
-10.9678
-10.9712
-10.9692
-10.9607
-10.9444
-10.9189
-10.8827
-10.8343
-10.7728
-10.6973
-10.6176
-10.4225
-10.4936
-10.5449
-10.5703
-10.5985
-10.6265
-10.6515
-10.6755
-10.6993
-10.7227
-10.7457
-10.7686
-10.7912
-10.8136
-10.8357
-10.8571
-10.8779
-10.8977
-10.9162
-10.933
-10.9478
-10.9598
-10.9687
-10.9736
-10.9738
-10.9684
-10.9565
-10.9371
-10.9094
-10.8728
-10.8276
-10.7749
-10.7225
-10.4517
-10.4918
-10.5343
-10.5624
-10.5917
-10.6209
-10.6473
-10.6725
-10.6971
-10.7212
-10.7448
-10.768
-10.791
-10.8135
-10.8356
-10.8571
-10.8779
-10.8977
-10.9163
-10.9333
-10.9484
-10.9611
-10.971
-10.9775
-10.9801
-10.9781
-10.9711
-10.9586
-10.9404
-10.9167
-10.8891
-10.8594
-10.8356
-10.4806
-10.5126
-10.5533
-10.5816
-10.6082
-10.6346
-10.6591
-10.6824
-10.7054
-10.7281
-10.7505
-10.7727
-10.7946
-10.8164
-10.8378
-10.8587
-10.8791
-10.8986
-10.9171
-10.9343
-10.9499
-10.9635
-10.9748
-10.9834
-10.9889
-10.9911
-10.9896
-10.9844
-10.9759
-10.965
-10.9535
-10.944
-10.9432
-10.5045
-10.5256
-10.5575
-10.5824
-10.6067
-10.6319
-10.6561
-10.6795
-10.7027
-10.7255
-10.7481
-10.7705
-10.7927
-10.8146
-10.8362
-10.8573
-10.8779
-10.8977
-10.9167
-10.9345
-10.9509
-10.9657
-10.9787
-10.9897
-10.9984
-11.0048
-11.009
-11.0112
-11.0123
-11.0135
-11.0171
-11.0258
-11.0455
-10.5254
-10.5411
-10.5693
-10.5942
-10.618
-10.6422
-10.6656
-10.6881
-10.7103
-10.7323
-10.754
-10.7756
-10.7971
-10.8183
-10.8393
-10.86
-10.8803
-10.9
-10.919
-10.9372
-10.9544
-10.9704
-10.9851
-10.9985
-11.0105
-11.0213
-11.0312
-11.0407
-11.051
-11.0635
-11.0806
-11.1051
-11.1419
-10.5438
-10.5554
-10.5785
-10.6006
-10.6218
-10.644
-10.666
-10.6876
-10.7093
-10.7308
-10.7523
-10.7737
-10.7951
-10.8163
-10.8374
-10.8582
-10.8787
-10.8988
-10.9183
-10.9373
-10.9556
-10.9731
-10.9899
-11.0059
-11.0214
-11.0367
-11.0522
-11.0687
-11.0876
-11.1103
-11.1392
-11.1771
-11.2283
-10.5602
-10.5691
-10.5889
-10.6094
-10.6299
-10.6512
-10.6727
-10.6939
-10.715
-10.736
-10.757
-10.7779
-10.7988
-10.8197
-10.8404
-10.861
-10.8814
-10.9015
-10.9214
-10.9409
-10.9601
-10.979
-10.9976
-11.0162
-11.0349
-11.0544
-11.0751
-11.0981
-11.1246
-11.1562
-11.1953
-11.2441
-11.3066
-10.575
-10.582
-10.5987
-10.6172
-10.6358
-10.6555
-10.6755
-10.6956
-10.7158
-10.7361
-10.7565
-10.777
-10.7975
-10.8181
-10.8387
-10.8593
-10.8799
-10.9003
-10.9208
-10.9411
-10.9614
-10.9818
-11.0025
-11.0236
-11.0457
-11.0692
-11.0948
-11.1236
-11.1568
-11.1961
-11.2435
-11.3011
-11.3723
-10.5884
-10.5941
-10.6084
-10.6252
-10.6427
-10.6613
-10.6806
-10.7001
-10.7199
-10.7398
-10.7598
-10.7799
-10.8002
-10.8205
-10.8409
-10.8614
-10.882
-10.9027
-10.9235
-10.9446
-10.9659
-10.9876
-11.01
-11.0334
-11.0584
-11.0854
-11.1152
-11.149
-11.1878
-11.2333
-11.2873
-11.3514
-11.4287
-10.6006
-10.6053
-10.6177
-10.6328
-10.6489
-10.6663
-10.6844
-10.7029
-10.7217
-10.7408
-10.7602
-10.7797
-10.7995
-10.8195
-10.8397
-10.8601
-10.8807
-10.9016
-10.9229
-10.9446
-10.9669
-10.9899
-11.0141
-11.0397
-11.0672
-11.0974
-11.1309
-11.1687
-11.2121
-11.2624
-11.3211
-11.39
-11.4712
-10.6117
-10.6157
-10.6265
-10.6402
-10.6552
-10.6715
-10.6887
-10.7065
-10.7247
-10.7434
-10.7623
-10.7815
-10.801
-10.8207
-10.8408
-10.8611
-10.8818
-10.903
-10.9246
-10.9469
-10.97
-10.9942
-11.0199
-11.0473
-11.0771
-11.1097
-11.1461
-11.1872
-11.234
-11.2877
-11.3496
-11.4211
-11.504
-10.6218
-10.6254
-10.6348
-10.6472
-10.6611
-10.6763
-10.6925
-10.7094
-10.7268
-10.7447
-10.763
-10.7816
-10.8006
-10.8199
-10.8396
-10.8597
-10.8804
-10.9016
-10.9235
-10.9461
-10.97
-10.9951
-11.0219
-11.0508
-11.0823
-11.117
-11.1556
-11.199
-11.2481
-11.3039
-11.3675
-11.4401
-11.5229
-10.6311
-10.6342
-10.6426
-10.6538
-10.6667
-10.6809
-10.6963
-10.7124
-10.7292
-10.7464
-10.7642
-10.7824
-10.801
-10.82
-10.8395
-10.8595
-10.8801
-10.9014
-10.9235
-10.9466
-10.9709
-10.9968
-11.0245
-11.0545
-11.0873
-11.1233
-11.1634
-11.2082
-11.2585
-11.3151
-11.3791
-11.4511
-11.5323
-10.6395
-10.6423
-10.6498
-10.66
-10.6719
-10.6852
-10.6997
-10.715
-10.731
-10.7476
-10.7647
-10.7822
-10.8003
-10.8188
-10.8379
-10.8576
-10.8779
-10.8991
-10.9212
-10.9445
-10.9691
-10.9953
-11.0236
-11.0542
-11.0876
-11.1244
-11.1652
-11.2104
-11.261
-11.3174
-11.3805
-11.4507
-11.529
-10.6472
-10.6496
-10.6564
-10.6657
-10.6767
-10.6892
-10.7028
-10.7174
-10.7326
-10.7486
-10.7651
-10.7821
-10.7997
-10.8178
-10.8365
-10.8559
-10.876
-10.897
-10.9191
-10.9423
-10.967
-10.9934
-11.0219
-11.0528
-11.0864
-11.1234
-11.1641
-11.209
-11.2589
-11.3141
-11.3752
-11.4425
-11.5168
-10.654
-10.6562
-10.6623
-10.6709
-10.6811
-10.6927
-10.7056
-10.7193
-10.7339
-10.7491
-10.7649
-10.7813
-10.7983
-10.8159
-10.8341
-10.853
-10.8727
-10.8933
-10.915
-10.938
-10.9625
-10.9887
-11.0169
-11.0475
-11.0808
-11.1173
-11.1572
-11.2011
-11.2494
-11.3024
-11.3606
-11.4242
-11.4936
-10.6601
-10.6621
-10.6677
-10.6756
-10.685
-10.6959
-10.7079
-10.721
-10.7348
-10.7493
-10.7645
-10.7802
-10.7966
-10.8136
-10.8312
-10.8496
-10.8688
-10.889
-10.9103
-10.9328
-10.9568
-10.9826
-11.0103
-11.0402
-11.0727
-11.1081
-11.1467
-11.1889
-11.2349
-11.285
-11.3396
-11.3986
-11.4624
-10.6655
-10.6673
-10.6724
-10.6796
-10.6884
-10.6985
-10.7099
-10.7221
-10.7352
-10.749
-10.7635
-10.7785
-10.7942
-10.8105
-10.8275
-10.8452
-10.8638
-10.8833
-10.9039
-10.9257
-10.949
-10.9739
-11.0006
-11.0294
-11.0606
-11.0944
-11.1311
-11.1709
-11.214
-11.2606
-11.3108
-11.3647
-11.4224
-10.6701
-10.6718
-10.6765
-10.6831
-10.6913
-10.7007
-10.7113
-10.7229
-10.7352
-10.7483
-10.762
-10.7763
-10.7912
-10.8068
-10.8231
-10.84
-10.8578
-10.8765
-10.8962
-10.9171
-10.9394
-10.9631
-10.9886
-11.016
-11.0454
-11.0772
-11.1114
-11.1483
-11.188
-11.2305
-11.276
-11.3244
-11.3757
-10.674
-10.6756
-10.6799
-10.686
-10.6935
-10.7024
-10.7123
-10.7231
-10.7347
-10.747
-10.76
-10.7735
-10.7877
-10.8024
-10.8178
-10.8339
-10.8507
-10.8685
-10.8871
-10.9069
-10.9279
-10.9502
-10.974
-10.9995
-11.0269
-11.0562
-11.0875
-11.1211
-11.1569
-11.195
-11.2353
-11.2778
-11.3225
-10.6772
-10.6786
-10.6826
-10.6883
-10.6953
-10.7034
-10.7127
-10.7228
-10.7337
-10.7452
-10.7573
-10.77
-10.7833
-10.7971
-10.8116
-10.8266
-10.8424
-10.859
-10.8764
-10.8947
-10.9142
-10.9348
-10.9567
-10.9801
-11.0049
-11.0314
-11.0595
-11.0894
-11.121
-11.1543
-11.1893
-11.2258
-11.2637
-10.6797
-10.681
-10.6846
-10.6899
-10.6964
-10.704
-10.7126
-10.722
-10.7321
-10.7429
-10.7542
-10.7661
-10.7785
-10.7913
-10.8047
-10.8187
-10.8333
-10.8486
-10.8646
-10.8814
-10.8991
-10.9178
-10.9376
-10.9585
-10.9806
-11.0039
-11.0285
-11.0545
-11.0816
-11.11
-11.1395
-11.1699
-11.2012
-10.6814
-10.6826
-10.686
-10.6909
-10.6969
-10.7039
-10.7119
-10.7206
-10.7299
-10.7399
-10.7503
-10.7612
-10.7726
-10.7844
-10.7966
-10.8093
-10.8226
-10.8363
-10.8507
-10.8657
-10.8815
-10.898
-10.9153
-10.9335
-10.9526
-10.9726
-10.9934
-11.0152
-11.0377
-11.061
-11.085
-11.1093
-11.134
-10.6825
-10.6836
-10.6867
-10.6912
-10.6968
-10.7033
-10.7107
-10.7188
-10.7274
-10.7366
-10.7462
-10.7562
-10.7666
-10.7773
-10.7884
-10.7998
-10.8117
-10.8239
-10.8366
-10.8498
-10.8634
-10.8776
-10.8924
-10.9078
-10.9237
-10.9402
-10.9573
-10.9748
-10.9927
-11.0109
-11.0293
-11.0478
-11.066
-10.6828
-10.6838
-10.6867
-10.6909
-10.696
-10.702
-10.7087
-10.7161
-10.7239
-10.7322
-10.7409
-10.7498
-10.759
-10.7685
-10.7783
-10.7882
-10.7985
-10.809
-10.8197
-10.8308
-10.8422
-10.8539
-10.8659
-10.8782
-10.8908
-10.9036
-10.9166
-10.9298
-10.943
-10.9562
-10.9692
-10.9818
-10.994
-10.6823
-10.6833
-10.6861
-10.69
-10.6948
-10.7004
-10.7066
-10.7134
-10.7207
-10.7282
-10.7361
-10.7441
-10.7523
-10.7607
-10.7692
-10.7778
-10.7865
-10.7953
-10.8042
-10.8132
-10.8223
-10.8314
-10.8407
-10.85
-10.8593
-10.8685
-10.8776
-10.8866
-10.8952
-10.9035
-10.9112
-10.9183
-10.9245
-10.6811
-10.6821
-10.6846
-10.6882
-10.6926
-10.6977
-10.7033
-10.7093
-10.7157
-10.7223
-10.7291
-10.736
-10.743
-10.75
-10.757
-10.764
-10.7709
-10.7778
-10.7846
-10.7913
-10.7979
-10.8044
-10.8107
-10.8168
-10.8226
-10.8281
-10.8332
-10.8379
-10.842
-10.8454
-10.8481
-10.8499
-10.8506
-10.6792
-10.6801
-10.6827
-10.6863
-10.6905
-10.6954
-10.7008
-10.7064
-10.7123
-10.7183
-10.7244
-10.7304
-10.7364
-10.7422
-10.748
-10.7535
-10.7589
-10.764
-10.7689
-10.7735
-10.7778
-10.7817
-10.7852
-10.7883
-10.7909
-10.7929
-10.7943
-10.7949
-10.7948
-10.7937
-10.7916
-10.7883
-10.7838
-10.6764
-10.6772
-10.6795
-10.6828
-10.6866
-10.6909
-10.6955
-10.7004
-10.7054
-10.7105
-10.7154
-10.7203
-10.725
-10.7295
-10.7337
-10.7376
-10.7411
-10.7443
-10.747
-10.7493
-10.751
-10.7522
-10.7528
-10.7527
-10.7519
-10.7503
-10.7478
-10.7444
-10.74
-10.7346
-10.7279
-10.72
-10.7107
-10.6729
-10.674
-10.6768
-10.6805
-10.6846
-10.6891
-10.6937
-10.6985
-10.7031
-10.7077
-10.712
-10.7161
-10.7198
-10.7232
-10.7262
-10.7287
-10.7307
-10.7322
-10.733
-10.7332
-10.7328
-10.7316
-10.7295
-10.7267
-10.7229
-10.7181
-10.7123
-10.7053
-10.6972
-10.6877
-10.6769
-10.6647
-10.6509
-10.668
-10.6687
-10.671
-10.6741
-10.6776
-10.6815
-10.6856
-10.6896
-10.6935
-10.6972
-10.7006
-10.7036
-10.7062
-10.7083
-10.7098
-10.7107
-10.711
-10.7105
-10.7093
-10.7072
-10.7043
-10.7005
-10.6957
-10.6898
-10.6828
-10.6747
-10.6654
-10.6547
-10.6428
-10.6295
-10.6147
-10.5985
-10.5808
-10.6631
-10.6651
-10.6691
-10.6735
-10.6779
-10.6823
-10.6865
-10.6905
-10.6941
-10.6973
-10.7001
-10.7023
-10.704
-10.7051
-10.7055
-10.7052
-10.7041
-10.7021
-10.6993
-10.6955
-10.6907
-10.6848
-10.6778
-10.6696
-10.6601
-10.6494
-10.6372
-10.6237
-10.6086
-10.592
-10.5738
-10.5539
-10.5323
-10.654
-10.6543
-10.6575
-10.6615
-10.6656
-10.6699
-10.674
-10.6777
-10.681
-10.6838
-10.6859
-10.6874
-10.6882
-10.6881
-10.6873
-10.6855
-10.6828
-10.6791
-10.6743
-10.6684
-10.6613
-10.653
-10.6434
-10.6324
-10.6201
-10.6063
-10.591
-10.5743
-10.5559
-10.5361
-10.5146
-10.4915
-10.4669
-10.6497
-10.6551
-10.6616
-10.6669
-10.6716
-10.6761
-10.68
-10.6833
-10.6861
-10.6882
-10.6897
-10.6905
-10.6905
-10.6897
-10.688
-10.6853
-10.6817
-10.6769
-10.671
-10.6639
-10.6556
-10.6458
-10.6347
-10.6221
-10.608
-10.5924
-10.5751
-10.5561
-10.5354
-10.513
-10.4888
-10.4628
-10.4349
-10.6257
-10.6288
-10.6379
-10.6453
-10.6518
-10.6578
-10.6629
-10.6669
-10.6701
-10.6723
-10.6736
-10.6739
-10.6732
-10.6714
-10.6686
-10.6646
-10.6595
-10.653
-10.6453
-10.6363
-10.6258
-10.6138
-10.6004
-10.5854
-10.5688
-10.5505
-10.5306
-10.509
-10.4858
-10.4609
-10.4343
-10.4061
-10.3763
-10.6374
-10.6468
-10.6554
-10.6606
-10.6658
-10.6705
-10.6742
-10.6772
-10.6796
-10.6812
-10.682
-10.682
-10.681
-10.6791
-10.6761
-10.672
-10.6668
-10.6602
-10.6523
-10.6431
-10.6323
-10.62
-10.606
-10.5904
-10.573
-10.5539
-10.5329
-10.51
-10.4852
-10.4585
-10.4298
-10.3991
-10.3664
-10.5331
-10.5994
-10.6221
-10.631
-10.6422
-10.6511
-10.6569
-10.6611
-10.664
-10.6655
-10.6659
-10.665
-10.6629
-10.6597
-10.6551
-10.6493
-10.642
-10.6333
-10.6232
-10.6114
-10.598
-10.583
-10.5662
-10.5477
-10.5273
-10.5051
-10.481
-10.455
-10.4272
-10.3974
-10.3658
-10.3324
-10.2971
-10.1104
-10.2243
-9.78862
-9.33139
-9.44067
-10.3174
-11.7938
-13.7863
-16.1884
-18.8872
-21.7548
-24.62
-27.308
-29.6624
-31.4112
-32.3035
-32.184
-31.0629
-29.1213
-26.6398
-23.8842
-21.0402
-18.2259
-15.525
-13.0021
-10.7055
-8.66534
-6.8933
-5.38434
-4.12123
-3.07953
-2.23169
-1.54977
-1.00704
-0.579018
-0.244222
0.0152964
0.213983
0.363213
0.472133
0.548413
0.598545
0.628024
0.641444
0.642548
0.634331
0.619168
0.598942
0.575153
0.549006
0.521466
0.493307
0.465139
0.437428
0.410517
0.384648
0.35998
0.336608
0.314578
0.293901
0.274558
0.256513
0.239715
0.224105
0.209616
0.196177
0.18372
0.172172
0.161464
0.151529
0.142302
0.133722
0.125731
0.118273
0.111298
0.104757
0.0986058
0.0928036
0.0873124
0.082097
0.0771256
0.0723685
0.0677993
0.0633933
0.0591284
0.0549842
0.0509427
0.0469871
0.0431023
0.039275
0.035492
0.031744
0.0280164
0.0243093
0.0205939
0.0169037
0.0131463
0.0094869
0.00556772
0.00209894
-10.3009
-10.2945
-10.0199
-9.86985
-10.0954
-10.8598
-12.1448
-13.9424
-16.1931
-18.7716
-21.5097
-24.2269
-26.7454
-28.7989
-30.1698
-30.7161
-30.3882
-29.246
-27.4587
-25.2401
-22.7706
-20.1877
-17.6005
-15.0954
-12.7384
-10.5776
-8.64383
-6.95082
-5.49704
-4.26953
-3.24818
-2.40936
-1.7284
-1.18121
-0.745287
-0.400583
-0.130116
0.0798987
0.240429
0.360299
0.446924
0.506707
0.545106
0.566708
0.575283
0.573866
0.564881
0.550256
0.531538
0.509972
0.486565
0.462129
0.437308
0.412603
0.388391
0.364943
0.342444
0.321016
0.300725
0.281604
0.263652
0.246849
0.23116
0.216539
0.20293
0.190276
0.178515
0.167586
0.157428
0.147981
0.139186
0.130988
0.123334
0.116175
0.109463
0.103154
0.0972074
0.0915852
0.086252
0.0811755
0.0763259
0.0716756
0.0671998
0.0628756
0.0586821
0.0546003
0.0506132
0.0467051
0.0428618
0.0390707
0.0353194
0.0315991
0.0278959
0.0242101
0.0205144
0.0168404
0.0131008
0.00945158
0.00555625
0.00207906
-10.5157
-10.5071
-10.4167
-10.3937
-10.6512
-11.3576
-12.5371
-14.1777
-16.2211
-18.5491
-21.0076
-23.4011
-25.5207
-27.2065
-28.3205
-28.7424
-28.4311
-27.4408
-25.8954
-23.9438
-21.7289
-19.3781
-16.9987
-14.6764
-12.4764
-10.4458
-8.61508
-6.99962
-5.60093
-4.40987
-3.41022
-2.58193
-1.90341
-1.35306
-0.910329
-0.556595
-0.275876
-0.0550615
0.11636
0.246913
0.343751
0.413108
0.460404
0.490211
0.506308
0.511764
0.509039
0.500107
0.486555
0.469667
0.450491
0.429871
0.408489
0.386879
0.365448
0.344497
0.32424
0.304821
0.286332
0.268822
0.252312
0.236798
0.22226
0.208664
0.195971
0.184131
0.173095
0.16281
0.153224
0.144283
0.135938
0.128138
0.120836
0.113987
0.107549
0.101482
0.095749
0.0903142
0.085146
0.0802143
0.0754917
0.0709528
0.0665745
0.0623355
0.0582166
0.0541999
0.0502697
0.0464111
0.0426111
0.0388578
0.0351394
0.031448
0.0277703
0.0241067
0.0204314
0.0167743
0.0130532
0.00941467
0.00554389
0.00205898
-10.6628
-10.6686
-10.6659
-10.7468
-11.08
-11.7798
-12.8614
-14.3091
-16.0789
-18.0822
-20.189
-22.2302
-24.0972
-25.5892
-26.5766
-26.9603
-26.7094
-25.8588
-24.4983
-22.7512
-20.7467
-18.6018
-16.4152
-14.2663
-12.216
-10.3099
-8.57877
-7.03928
-5.69559
-4.54181
-3.56519
-2.74894
-2.07434
-1.52217
-1.07376
-0.711934
-0.4217
-0.190651
-0.00876495
0.132149
0.239015
0.317863
0.374011
0.41202
0.435674
0.448059
0.451669
0.448512
0.440214
0.428099
0.413244
0.396534
0.37868
0.36025
0.341682
0.323305
0.305361
0.288018
0.27139
0.255548
0.240531
0.226352
0.213007
0.200477
0.188733
0.177739
0.167455
0.15784
0.148847
0.140434
0.132556
0.125169
0.118233
0.111708
0.105556
0.0997408
0.0942292
0.0889897
0.0839931
0.0792122
0.0746219
0.070199
0.0659223
0.0617722
0.0577309
0.0537822
0.0499111
0.0461043
0.0423494
0.0386354
0.0349515
0.0312902
0.0276391
0.0239987
0.0203448
0.0167054
0.0130036
0.00937622
0.00553068
0.00203873
-10.8161
-10.8493
-10.9155
-11.0739
-11.4408
-12.1037
-13.0857
-14.3759
-15.9352
-17.6875
-19.5257
-21.341
-22.9451
-24.2272
-25.0661
-25.3866
-25.1575
-24.4007
-23.188
-21.6223
-19.8125
-17.8602
-15.854
-13.8671
-11.9579
-10.1705
-8.53533
-7.07015
-5.78115
-4.66528
-3.71285
-2.91004
-2.24077
-1.6881
-1.23518
-0.866206
-0.567233
-0.326561
-0.134672
0.0162528
0.132889
0.221095
0.286042
0.332232
0.363453
0.382807
0.392811
0.395502
0.392539
0.385279
0.374835
0.362121
0.347882
0.332715
0.317089
0.301362
0.285801
0.270599
0.255894
0.241776
0.228304
0.215508
0.203398
0.191972
0.181212
0.171095
0.161593
0.152671
0.144296
0.13643
0.129037
0.122081
0.115525
0.109336
0.103481
0.0979276
0.0926468
0.0876106
0.0827927
0.0781687
0.0737162
0.0694141
0.0652432
0.0611856
0.0572253
0.0533472
0.0495378
0.0457849
0.0420769
0.038404
0.0347559
0.031126
0.0275026
0.0238863
0.0202546
0.0166336
0.012952
0.00933617
0.00551658
0.00201823
-10.955
-11.0161
-11.1306
-11.3399
-11.7272
-12.3604
-13.261
-14.4184
-15.7967
-17.3306
-18.9286
-20.4817
-21.8564
-22.9544
-23.6741
-23.944
-23.733
-23.0577
-21.9755
-20.5701
-18.9336
-17.155
-15.3141
-13.4783
-11.7022
-10.0278
-8.48511
-7.09241
-5.85765
-4.78016
-3.85296
-3.0649
-2.40235
-1.85047
-1.39418
-1.01906
-0.712151
-0.462502
-0.261114
-0.100547
0.0255834
0.122948
0.196595
0.250938
0.289726
0.316069
0.332511
0.341111
0.343554
0.341228
0.335275
0.326641
0.316099
0.304276
0.29167
0.278666
0.265558
0.252564
0.239841
0.227504
0.215627
0.20426
0.193429
0.183145
0.173404
0.164197
0.155504
0.147303
0.139567
0.132269
0.12538
0.11887
0.112709
0.10687
0.101323
0.0960415
0.0910005
0.0861754
0.0815433
0.0770825
0.0727732
0.0685967
0.0645358
0.0605746
0.0566985
0.0528939
0.0491488
0.0454519
0.0417929
0.0381627
0.034552
0.0309547
0.0273603
0.0237691
0.0201606
0.0165587
0.0128981
0.00929447
0.00550161
0.0019974
-11.0844
-11.173
-11.3237
-11.5681
-11.965
-12.5648
-13.3852
-14.4172
-15.6298
-16.9673
-18.3506
-19.6887
-20.8754
-21.8149
-22.4207
-22.6341
-22.4303
-21.8205
-20.8495
-19.5847
-18.1038
-16.4838
-14.7955
-13.1005
-11.4496
-9.88256
-8.42861
-7.10643
-5.92526
-4.88645
-3.98537
-3.21326
-2.55872
-2.00891
-1.55041
-1.17012
-0.856112
-0.598164
-0.387813
-0.218018
-0.0826905
0.023617
0.105814
0.16823
0.21457
0.247923
0.270832
0.285384
0.293295
0.295972
0.294586
0.290108
0.283341
0.274939
0.265428
0.25522
0.244633
0.233909
0.22323
0.212728
0.202498
0.192607
0.183097
0.173994
0.165308
0.157041
0.149186
0.141731
0.134659
0.12795
0.121583
0.115536
0.109785
0.104307
0.0990804
0.0940817
0.0892898
0.0846841
0.0802449
0.0759537
0.0717933
0.0677474
0.0638008
0.0599397
0.056151
0.052423
0.0487447
0.045106
0.0414979
0.037912
0.0343402
0.0307769
0.0272124
0.0236474
0.020063
0.016481
0.0128422
0.00925119
0.00548582
0.00197626
-11.2023
-11.3136
-11.489
-11.7538
-12.1494
-12.7129
-13.4586
-14.3783
-15.4444
-16.6088
-17.8048
-18.9531
-19.9649
-20.7583
-21.2636
-21.4302
-21.2339
-20.681
-19.8065
-18.6656
-17.3235
-15.8468
-14.2984
-12.734
-11.2005
-9.73522
-8.36634
-7.11258
-5.98418
-4.98418
-4.10997
-3.35489
-2.7096
-2.16308
-1.70349
-1.31903
-0.99878
-0.733239
-0.514494
-0.335914
-0.191727
-0.0767146
0.0138672
0.084246
0.138079
0.17843
0.207832
0.228381
0.241805
0.249544
0.252791
0.252543
0.249624
0.244717
0.238372
0.231029
0.22303
0.21464
0.206062
0.197449
0.188917
0.180548
0.172401
0.164518
0.156922
0.149627
0.142639
0.135955
0.129569
0.12347
0.117644
0.112076
0.10675
0.101648
0.0967525
0.0920468
0.0875131
0.0831348
0.0788958
0.0747806
0.0707747
0.0668643
0.0630365
0.0592793
0.0555816
0.051933
0.0483241
0.044746
0.0411907
0.0376511
0.0341197
0.0305917
0.0270585
0.0235206
0.0199613
0.0164
0.0127839
0.00920615
0.0054691
0.00195462
-11.306
-11.4355
-11.6277
-11.9028
-12.2901
-12.8165
-13.4924
-14.3097
-15.2441
-16.2543
-17.2836
-18.2651
-19.1253
-19.7943
-20.2116
-20.3336
-20.139
-19.6319
-18.8399
-17.8075
-16.5894
-15.2426
-13.8226
-12.3792
-10.9555
-9.58645
-8.29886
-7.1113
-6.0347
-5.07347
-4.2267
-3.48962
-2.85471
-2.31264
-1.85308
-1.46546
-1.13982
-0.867413
-0.640871
-0.453984
-0.301302
-0.177856
-0.0790799
-0.000861058
0.0603834
0.107687
0.143578
0.170149
0.189137
0.20199
0.209927
0.213969
0.214967
0.213624
0.210515
0.206103
0.200755
0.194759
0.18834
0.181671
0.174885
0.168084
0.161343
0.154717
0.148245
0.141955
0.135862
0.129976
0.124299
0.11883
0.113563
0.108491
0.103604
0.0988912
0.0943397
0.0899374
0.0856713
0.0815288
0.0774973
0.0735645
0.0697187
0.0659488
0.0622442
0.0585948
0.0549914
0.0514252
0.0478882
0.044373
0.0408725
0.0373808
0.0338912
0.0303998
0.026899
0.0233893
0.019856
0.0163162
0.0127235
0.00915958
0.00545166
0.00193263
-11.3973
-11.5398
-11.7414
-12.0182
-12.391
-12.8789
-13.4888
-14.213
-15.0298
-15.904
-16.7874
-17.6231
-18.3493
-18.9068
-19.2447
-19.3262
-19.1323
-18.6647
-17.9445
-17.0078
-15.9001
-14.6707
-13.3679
-12.0363
-10.7151
-9.43685
-8.22676
-7.10306
-6.07714
-5.15446
-4.33557
-3.61732
-2.99383
-2.45733
-1.99887
-1.60906
-1.27891
-1.00038
-0.766658
-0.571965
-0.411185
-0.279606
-0.172854
-0.0869477
-0.0183859
0.0358189
0.0781699
0.11076
0.135334
0.153349
0.166035
0.174427
0.179399
0.181682
0.181873
0.180456
0.177821
0.174278
0.170073
0.165398
0.160407
0.155218
0.149924
0.144593
0.13928
0.134025
0.128855
0.123791
0.118847
0.114028
0.10934
0.10478
0.100347
0.096036
0.0918398
0.0877512
0.083762
0.0798634
0.0760467
0.0723027
0.0686229
0.0649986
0.0614216
0.0578839
0.0543783
0.0508975
0.0474352
0.0439852
0.0405417
0.0370996
0.0336537
0.0302003
0.0267331
0.0232527
0.0197464
0.016229
0.0126606
0.00911111
0.00543323
0.00191
-11.4726
-11.6234
-11.829
-12.1015
-12.4558
-12.9051
-13.4534
-14.093
-14.8048
-15.5584
-16.313
-17.0206
-17.6294
-18.0897
-18.3585
-18.4038
-18.2089
-17.7739
-17.1154
-16.2626
-15.2535
-14.1299
-12.9341
-11.7056
-10.48
-9.28705
-8.15065
-7.08838
-6.11187
-5.22737
-4.43664
-3.73792
-3.12679
-2.59689
-2.14056
-1.74953
-1.41572
-1.13182
-0.891562
-0.689592
-0.521136
-0.381752
-0.26727
-0.173852
-0.0980923
-0.0370614
0.0117151
0.0503139
0.080477
0.103676
0.121151
0.133947
0.142956
0.148924
0.152471
0.154107
0.154242
0.153208
0.15127
0.148641
0.145492
0.141958
0.13815
0.134151
0.13003
0.12584
0.121622
0.117406
0.113216
0.109069
0.104976
0.100946
0.0969817
0.0930854
0.0892562
0.0854918
0.0817887
0.0781423
0.0745475
0.0709989
0.0674906
0.0640168
0.0605717
0.0571496
0.053745
0.0503526
0.0469675
0.0435848
0.0402001
0.0368094
0.0334084
0.0299944
0.026562
0.0231118
0.0196334
0.016139
0.0125957
0.00906124
0.00541424
0.00188703
-11.5349
-11.6899
-11.8945
-12.1579
-12.4905
-12.9011
-13.3915
-13.9541
-14.572
-15.219
-15.8605
-16.4559
-16.962
-17.3369
-17.5441
-17.5566
-17.3597
-16.9525
-16.3477
-15.5689
-14.6475
-13.6194
-12.521
-11.3874
-10.2505
-9.13765
-8.07113
-7.0678
-6.1393
-5.29246
-4.53001
-3.85139
-3.25346
-2.73111
-2.27788
-1.88657
-1.54996
-1.26144
-1.0153
-0.806595
-0.630909
-0.484074
-0.362132
-0.261403
-0.178587
-0.110824
-0.0556791
-0.0110974
0.0246567
0.0530527
0.0753374
0.0925757
0.105669
0.115376
0.122339
0.127084
0.130043
0.131568
0.131947
0.131411
0.130148
0.128312
0.126028
0.123397
0.1205
0.117405
0.114164
0.11082
0.107406
0.10395
0.100471
0.0969854
0.0935043
0.0900357
0.0865849
0.0831549
0.0797469
0.0763607
0.0729952
0.0696482
0.0663171
0.0629989
0.0596903
0.0563878
0.0530878
0.0497869
0.0464818
0.043169
0.0398453
0.0365079
0.0331536
0.0297803
0.026384
0.0229652
0.0195158
0.0160454
0.0125281
0.00900928
0.00539412
0.00186324
-11.5807
-11.7363
-11.9363
-12.1872
-12.4961
-12.8687
-13.3051
-13.7979
-14.3319
-14.8847
-15.4269
-15.9243
-16.3407
-16.641
-16.7945
-16.7781
-16.5789
-16.1954
-15.6371
-14.9234
-14.0802
-13.138
-12.1281
-11.0817
-10.0271
-8.98927
-7.98885
-7.04189
-6.15988
-5.35003
-4.61585
-3.95776
-3.37374
-2.85982
-2.41061
-2.01991
-1.68133
-1.38895
-1.13757
-0.922703
-0.740253
-0.586343
-0.457236
-0.349419
-0.259711
-0.185329
-0.12389
-0.0733671
-0.0320402
0.00155654
0.0286739
0.0503805
0.0675896
0.0810793
0.091505
0.0994097
0.105245
0.109382
0.112126
0.113726
0.114391
0.114292
0.113569
0.112339
0.110698
0.108727
0.106489
0.104041
0.101425
0.0986794
0.0958321
0.0929071
0.0899232
0.0868951
0.0838341
0.0807485
0.0776446
0.0745266
0.0713973
0.0682581
0.0651097
0.0619518
0.0587838
0.0556044
0.0524122
0.0492055
0.0459826
0.0427417
0.0394808
0.0361982
0.0328919
0.0295605
0.0262013
0.0228149
0.0193952
0.0159494
0.012459
0.0089562
0.0053737
0.00183921
-11.6141
-11.7672
-11.9593
-12.1951
-12.4791
-12.8147
-13.2007
-13.6299
-14.0889
-14.5583
-15.0132
-15.4249
-15.763
-15.9981
-16.1044
-16.0623
-15.8605
-15.4972
-14.9795
-14.3232
-13.5497
-12.6846
-11.7553
-10.7887
-9.81025
-8.84247
-7.90441
-7.01122
-6.17409
-5.40044
-4.69436
-4.05711
-3.4876
-2.98287
-2.53854
-2.1493
-1.80956
-1.51406
-1.25811
-1.03764
-0.848913
-0.688323
-0.552368
-0.437709
-0.341293
-0.260427
-0.192785
-0.13638
-0.0895109
-0.050723
-0.018768
0.0074275
0.0287851
0.046092
0.0600173
0.0711227
0.0798784
0.0866717
0.0918238
0.0956045
0.0982384
0.0999132
0.100786
0.100989
0.100633
0.0998107
0.0986014
0.0970705
0.0952731
0.0932553
0.0910556
0.0887058
0.0862323
0.0836565
0.0809958
0.0782643
0.0754732
0.0726312
0.069745
0.06682
0.0638599
0.0608674
0.0578444
0.0547922
0.0517114
0.0486021
0.0454644
0.0422979
0.0391021
0.0358763
0.0326198
0.0293319
0.0260113
0.0226583
0.0192696
0.0158494
0.0123867
0.00890071
0.0053519
0.00181412
-11.6315
-11.7796
-11.9616
-12.1806
-12.4393
-12.7393
-13.0786
-13.4502
-13.8424
-14.2382
-14.6167
-14.9537
-15.2238
-15.4023
-15.4676
-15.4031
-15.199
-14.8531
-14.371
-13.7653
-13.0539
-12.2583
-11.4019
-10.5084
-9.60029
-8.69781
-7.81844
-6.97639
-6.18243
-5.44407
-4.7658
-4.14954
-3.59503
-3.10019
-2.66151
-2.27453
-1.93441
-1.63651
-1.37665
-1.15115
-0.956633
-0.789775
-0.647306
-0.52607
-0.423152
-0.335954
-0.262221
-0.200008
-0.147643
-0.103688
-0.0668996
-0.0362061
-0.0106816
0.0104703
0.0279308
0.042275
0.0539874
0.0634733
0.0710724
0.0770717
0.0817114
0.0851949
0.0876962
0.0893627
0.0903196
0.0906737
0.0905162
0.0899245
0.0889648
0.0876933
0.0861575
0.0843978
0.0824479
0.0803362
0.0780866
0.0757186
0.0732485
0.0706898
0.0680533
0.065348
0.0625811
0.0597582
0.056884
0.0539622
0.0509954
0.047986
0.0449355
0.0418451
0.0387158
0.0355481
0.0323424
0.029099
0.0258177
0.022499
0.0191418
0.0157478
0.0123134
0.00884463
0.00533026
0.00178903
-11.6374
-11.7785
-11.9485
-12.1495
-12.3828
-12.6488
-12.9447
-13.2641
-13.5964
-13.9272
-14.2386
-14.5104
-14.7212
-14.8505
-14.8801
-14.796
-14.5896
-14.2589
-13.8081
-13.2472
-12.591
-11.8578
-11.0676
-10.2409
-9.39756
-8.5558
-7.73154
-6.93798
-6.18543
-5.48133
-4.83045
-4.23524
-3.69609
-3.21172
-2.77938
-2.39541
-2.05565
-1.75604
-1.49291
-1.26297
-1.06316
-0.890457
-0.741824
-0.614294
-0.505096
-0.411739
-0.332041
-0.264112
-0.206313
-0.157227
-0.115624
-0.0804349
-0.0507332
-0.0257172
-0.0046972
0.0129145
0.0276168
0.0398303
0.0499104
0.0581597
0.0648353
0.0701576
0.0743159
0.0774728
0.0797675
0.0813202
0.082235
0.0826013
0.0824964
0.0819866
0.0811287
0.0799716
0.0785569
0.0769199
0.0750908
0.073095
0.070954
0.0686858
0.0663056
0.0638261
0.0612578
0.0586096
0.0558887
0.0531013
0.0502524
0.047346
0.0443857
0.0413742
0.0383138
0.0352064
0.0320535
0.0288562
0.0256158
0.0223327
0.0190083
0.0156415
0.0122365
0.0087856
0.00530684
0.00176242
-11.6293
-11.7617
-11.9186
-12.101
-12.3093
-12.543
-12.799
-13.0712
-13.3503
-13.6238
-13.8766
-14.0917
-14.2513
-14.3381
-14.3369
-14.2359
-14.0278
-13.7106
-13.2873
-12.7661
-12.1593
-11.4821
-10.7518
-9.98603
-9.20232
-8.41692
-7.64428
-6.8966
-6.18363
-5.51267
-4.88865
-4.3144
-3.79088
-3.31744
-2.89208
-2.51179
-2.17307
-1.87243
-1.60665
-1.37283
-1.16824
-0.990124
-0.83569
-0.702165
-0.586926
-0.487597
-0.40208
-0.328542
-0.265386
-0.211221
-0.164833
-0.125162
-0.0912838
-0.0623946
-0.0377979
-0.016896
0.000821779
0.01579
0.0283792
0.0389078
0.0476488
0.0548378
0.0606794
0.0653509
0.0690062
0.0717791
0.0737866
0.0751298
0.0758971
0.0761649
0.0759995
0.0754582
0.0745903
0.0734386
0.0720393
0.070424
0.0686192
0.0666478
0.0645293
0.0622801
0.0599145
0.0574443
0.0548796
0.0522291
0.0495
0.0466984
0.0438297
0.0408983
0.0379078
0.0348614
0.031762
0.0286115
0.0254125
0.0221654
0.0188742
0.0155349
0.0121596
0.00872688
0.00528431
0.00173616
-11.6108
-11.7334
-11.8764
-12.0399
-12.2239
-12.427
-12.6462
-12.8757
-13.1073
-13.3303
-13.5318
-13.6975
-13.8126
-13.8626
-13.8348
-13.7193
-13.5099
-13.2045
-12.8056
-12.3197
-11.7569
-11.1301
-10.454
-9.74376
-9.01483
-8.28164
-7.55723
-6.85282
-6.17758
-5.53856
-4.94075
-4.38727
-3.87952
-3.41741
-2.99954
-2.62354
-2.28652
-1.98548
-1.71765
-1.4805
-1.27162
-1.08853
-0.928669
-0.789458
-0.668433
-0.563337
-0.47216
-0.393136
-0.324714
-0.265535
-0.214406
-0.170279
-0.132237
-0.0994758
-0.0712951
-0.0470901
-0.0263395
-0.00859614
0.00652433
0.0193543
0.0301821
0.0392585
0.0468034
0.0530087
0.0580426
0.0620524
0.0651676
0.0675016
0.0691536
0.0702106
0.0707483
0.0708326
0.0705208
0.0698627
0.0689014
0.0676739
0.0662123
0.0645443
0.0626937
0.0606807
0.0585231
0.0562359
0.053832
0.0513226
0.0487172
0.046024
0.0432502
0.0404017
0.0374838
0.0345009
0.0314571
0.0283552
0.0251993
0.0219897
0.018733
0.0154225
0.0120782
0.00866435
0.00525928
0.00170773
-11.5807
-11.6926
-11.8211
-11.966
-12.1265
-12.3011
-12.4866
-12.6776
-12.8671
-13.0456
-13.2023
-13.3253
-13.402
-13.4204
-13.3699
-13.2423
-13.032
-12.7374
-12.3602
-11.9057
-11.3823
-10.8008
-10.1736
-9.51395
-8.83527
-8.15036
-7.47092
-6.80723
-6.16783
-5.55949
-4.98716
-4.45414
-3.9622
-3.51169
-3.10176
-2.73059
-2.39583
-2.09498
-1.82568
-1.58574
-1.37307
-1.18544
-1.02052
-0.875947
-0.749402
-0.638755
-0.542093
-0.45772
-0.384138
-0.320024
-0.264211
-0.215667
-0.173484
-0.136862
-0.105099
-0.077586
-0.0537922
-0.03326
-0.0155924
-0.000443376
0.0124897
0.0234725
0.0327393
0.0404965
0.0469263
0.0521894
0.0564281
0.0597675
0.0623182
0.0641772
0.0654297
0.0661502
0.066404
0.0662481
0.065732
0.0648988
0.0637859
0.0624259
0.0608468
0.0590732
0.0571261
0.0550239
0.0527824