/*--------------------------------*- C++ -*----------------------------------*\
  =========                 |
  \\      /  F ield         | OpenFOAM: The Open Source CFD Toolbox
   \\    /   O peration     | Website:  https://openfoam.org
    \\  /    A nd           | Version:  10
     \\/     M anipulation  |
\*---------------------------------------------------------------------------*/
FoamFile
{
    format      ascii;
    class       surfaceScalarField;
    location    "0.03";
    object      phi;
}
// * * * * * * * * * * * * * * * * * * * * * * * * * * * * * * * * * * * * * //

dimensions      [0 3 -1 0 0 0 0];

internalField   nonuniform List<scalar> 
13452
(
5.9456e-05
8.12417e-07
5.84826e-05
9.73488e-07
5.74729e-05
1.0097e-06
5.64401e-05
1.03271e-06
5.54134e-05
1.02672e-06
5.4405e-05
1.00844e-06
5.34193e-05
9.85672e-07
5.24594e-05
9.59869e-07
5.15275e-05
9.31935e-07
5.0625e-05
9.02484e-07
4.97532e-05
8.71776e-07
4.89133e-05
8.39938e-07
4.81063e-05
8.07042e-07
4.73331e-05
7.73134e-07
4.65949e-05
7.38251e-07
4.58924e-05
7.02447e-07
4.52266e-05
6.65802e-07
4.45982e-05
6.28443e-07
4.40076e-05
5.90557e-07
4.34552e-05
5.52411e-07
4.29408e-05
5.14377e-07
4.24639e-05
4.76954e-07
4.20231e-05
4.4081e-07
4.16163e-05
4.06827e-07
4.12401e-05
3.76173e-07
4.08897e-05
3.50391e-07
4.05581e-05
3.31584e-07
4.02355e-05
3.2257e-07
3.99081e-05
3.27447e-07
3.9556e-05
3.52051e-07
3.91521e-05
4.03926e-07
3.86473e-05
5.04792e-07
6.3745e-07
3.80099e-05
6.24891e-05
3.13649e-07
6.29643e-05
4.98255e-07
6.34119e-05
5.62139e-07
6.38226e-05
6.22036e-07
6.41892e-05
6.60122e-07
6.45118e-05
6.85869e-07
6.47921e-05
7.05318e-07
6.5033e-05
7.1901e-07
6.52374e-05
7.27501e-07
6.54085e-05
7.31424e-07
6.55491e-05
7.31135e-07
6.56622e-05
7.26878e-07
6.57503e-05
7.18861e-07
6.58162e-05
7.07269e-07
6.58622e-05
6.9228e-07
6.58905e-05
6.74091e-07
6.59034e-05
6.52934e-07
6.59027e-05
6.291e-07
6.58903e-05
6.02958e-07
6.58678e-05
5.74985e-07
6.58364e-05
5.45793e-07
6.57971e-05
5.1617e-07
6.57508e-05
4.87124e-07
6.56977e-05
4.59942e-07
6.56376e-05
4.36285e-07
6.55697e-05
4.18288e-07
6.54925e-05
4.08809e-07
6.54035e-05
4.11519e-07
6.52991e-05
4.31921e-07
6.51745e-05
4.76568e-07
6.50205e-05
5.5798e-07
6.48351e-05
6.90173e-07
8.94907e-07
6.45776e-05
6.38357e-05
2.39329e-07
6.39148e-05
4.19213e-07
6.39891e-05
4.87776e-07
6.40678e-05
5.43343e-07
6.41498e-05
5.78155e-07
6.42368e-05
5.98818e-07
6.43297e-05
6.12468e-07
6.44281e-05
6.20625e-07
6.45314e-05
6.24133e-07
6.4639e-05
6.23828e-07
6.475e-05
6.20205e-07
6.48633e-05
6.13575e-07
6.4978e-05
6.04177e-07
6.5093e-05
5.9221e-07
6.52074e-05
5.77854e-07
6.53202e-05
5.61297e-07
6.54304e-05
5.42758e-07
6.5537e-05
5.22513e-07
6.5639e-05
5.0091e-07
6.57356e-05
4.78405e-07
6.58258e-05
4.55587e-07
6.59088e-05
4.33216e-07
6.59836e-05
4.12266e-07
6.60496e-05
3.9398e-07
6.61059e-05
3.79959e-07
6.6152e-05
3.72249e-07
6.61872e-05
3.7354e-07
6.62115e-05
3.87283e-07
6.62251e-05
4.18255e-07
6.62292e-05
4.72519e-07
6.62284e-05
5.58726e-07
6.62293e-05
6.8935e-07
8.68876e-07
6.62553e-05
6.56418e-05
1.80647e-07
6.56974e-05
3.63536e-07
6.57397e-05
4.45509e-07
6.57771e-05
5.05983e-07
6.58104e-05
5.44834e-07
6.58416e-05
5.67608e-07
6.58722e-05
5.81874e-07
6.59029e-05
5.89872e-07
6.59344e-05
5.9263e-07
6.59671e-05
5.91135e-07
6.60013e-05
5.86036e-07
6.60371e-05
5.77756e-07
6.60747e-05
5.66638e-07
6.61139e-05
5.52976e-07
6.61547e-05
5.37042e-07
6.61969e-05
5.19112e-07
6.62402e-05
4.99493e-07
6.62841e-05
4.78547e-07
6.63283e-05
4.56708e-07
6.63722e-05
4.34514e-07
6.64152e-05
4.12636e-07
6.64565e-05
3.91914e-07
6.64953e-05
3.73396e-07
6.65309e-05
3.58393e-07
6.65623e-05
3.48556e-07
6.65886e-05
3.45963e-07
6.66089e-05
3.53257e-07
6.66224e-05
3.73784e-07
6.66288e-05
4.11824e-07
6.66284e-05
4.72917e-07
6.6624e-05
5.63202e-07
6.662e-05
6.93267e-07
8.61e-07
6.66279e-05
6.74917e-05
1.45767e-07
6.75362e-05
3.18962e-07
6.75765e-05
4.05236e-07
6.76163e-05
4.66151e-07
6.76542e-05
5.06954e-07
6.76901e-05
5.31748e-07
6.77247e-05
5.4721e-07
6.77587e-05
5.55888e-07
6.77924e-05
5.58933e-07
6.78262e-05
5.57398e-07
6.78602e-05
5.52026e-07
6.78946e-05
5.43316e-07
6.79296e-05
5.3167e-07
6.79651e-05
5.17441e-07
6.80012e-05
5.00958e-07
6.80378e-05
4.82553e-07
6.80747e-05
4.62596e-07
6.81117e-05
4.41505e-07
6.81486e-05
4.19779e-07
6.81851e-05
3.98023e-07
6.82208e-05
3.76974e-07
6.82552e-05
3.57538e-07
6.82877e-05
3.40825e-07
6.83179e-05
3.28196e-07
6.83452e-05
3.21331e-07
6.83688e-05
3.22296e-07
6.83884e-05
3.33639e-07
6.84037e-05
3.58495e-07
6.84149e-05
4.00644e-07
6.8423e-05
4.64781e-07
6.84307e-05
5.55557e-07
6.84435e-05
6.80467e-07
8.37207e-07
6.84673e-05
6.94129e-05
1.16918e-07
6.94551e-05
2.76711e-07
6.94943e-05
3.66087e-07
6.9532e-05
4.28457e-07
6.95678e-05
4.71172e-07
6.96019e-05
4.97639e-07
6.96352e-05
5.13827e-07
6.96685e-05
5.22666e-07
6.97019e-05
5.25522e-07
6.97357e-05
5.23529e-07
6.97703e-05
5.17521e-07
6.98055e-05
5.08074e-07
6.98415e-05
4.95649e-07
6.98783e-05
4.80648e-07
6.99158e-05
4.63452e-07
6.99539e-05
4.4444e-07
6.99925e-05
4.24027e-07
7.00313e-05
4.02679e-07
7.00702e-05
3.8094e-07
7.01087e-05
3.59455e-07
7.01467e-05
3.39003e-07
7.01837e-05
3.20523e-07
7.02194e-05
3.05143e-07
7.02534e-05
2.9422e-07
7.02853e-05
2.89391e-07
7.0315e-05
2.92623e-07
7.03424e-05
3.06264e-07
7.03678e-05
3.33101e-07
7.03921e-05
3.76318e-07
7.04172e-05
4.39659e-07
7.04463e-05
5.26498e-07
7.04849e-05
6.41818e-07
7.83457e-07
7.05387e-05
7.13861e-05
9.7127e-08
7.14195e-05
2.43305e-07
7.14533e-05
3.32306e-07
7.14879e-05
3.93832e-07
7.15227e-05
4.36409e-07
7.1557e-05
4.63305e-07
7.15912e-05
4.79633e-07
7.16255e-05
4.88357e-07
7.16601e-05
4.9092e-07
7.16952e-05
4.8846e-07
7.17309e-05
4.81848e-07
7.17672e-05
4.71709e-07
7.18043e-05
4.58548e-07
7.18422e-05
4.42811e-07
7.18807e-05
4.24917e-07
7.19199e-05
4.05289e-07
7.19595e-05
3.84381e-07
7.19995e-05
3.62695e-07
7.20396e-05
3.40808e-07
7.20797e-05
3.19392e-07
7.21195e-05
2.9924e-07
7.21587e-05
2.81294e-07
7.21972e-05
2.66664e-07
7.22347e-05
2.56658e-07
7.22713e-05
2.52813e-07
7.2307e-05
2.56932e-07
7.23422e-05
2.71085e-07
7.23777e-05
2.97628e-07
7.24149e-05
3.39108e-07
7.24562e-05
3.98328e-07
7.25051e-05
4.77584e-07
7.2567e-05
5.79903e-07
7.03123e-07
7.26474e-05
7.34206e-05
8.17909e-08
7.34504e-05
2.13513e-07
7.3483e-05
2.9969e-07
7.3517e-05
3.59829e-07
7.35513e-05
4.02099e-07
7.35852e-05
4.29415e-07
7.36189e-05
4.45963e-07
7.36527e-05
4.54592e-07
7.36867e-05
4.56829e-07
7.37214e-05
4.53843e-07
7.37567e-05
4.46552e-07
7.37927e-05
4.35635e-07
7.38296e-05
4.21644e-07
7.38674e-05
4.05065e-07
7.39059e-05
3.86355e-07
7.39453e-05
3.65972e-07
7.39852e-05
3.44398e-07
7.40258e-05
3.22161e-07
7.40667e-05
2.99857e-07
7.4108e-05
2.78168e-07
7.41493e-05
2.57882e-07
7.41907e-05
2.39921e-07
7.4232e-05
2.25343e-07
7.42733e-05
2.15365e-07
7.43147e-05
2.11378e-07
7.43567e-05
2.1497e-07
7.43999e-05
2.27893e-07
7.44455e-05
2.52044e-07
7.44952e-05
2.89359e-07
7.45518e-05
3.41792e-07
7.46186e-05
4.10732e-07
7.47007e-05
4.97777e-07
6.0068e-07
7.48032e-05
7.55142e-05
7.00844e-08
7.55391e-05
1.88553e-07
7.5568e-05
2.70845e-07
7.55989e-05
3.28933e-07
7.5631e-05
3.69984e-07
7.56636e-05
3.96788e-07
7.56967e-05
4.12871e-07
7.57304e-05
4.20928e-07
7.57647e-05
4.22521e-07
7.57997e-05
4.18809e-07
7.58356e-05
4.10715e-07
7.58722e-05
3.98942e-07
7.59098e-05
3.84066e-07
7.59483e-05
3.66599e-07
7.59876e-05
3.47021e-07
7.60278e-05
3.25809e-07
7.60687e-05
3.03462e-07
7.61104e-05
2.80518e-07
7.61526e-05
2.57581e-07
7.61955e-05
2.35326e-07
7.62389e-05
2.14514e-07
7.62827e-05
1.96023e-07
7.63273e-05
1.80833e-07
7.63726e-05
1.70039e-07
7.64191e-05
1.64852e-07
7.64675e-05
1.66625e-07
7.65186e-05
1.7677e-07
7.65739e-05
1.96729e-07
7.66354e-05
2.27867e-07
7.67058e-05
2.71404e-07
7.67885e-05
3.27984e-07
7.68881e-05
3.98162e-07
4.79565e-07
7.70092e-05
7.76689e-05
6.07739e-08
7.76906e-05
1.66803e-07
7.77175e-05
2.43939e-07
7.77473e-05
2.99159e-07
7.77789e-05
3.38441e-07
7.78113e-05
3.64378e-07
7.78443e-05
3.79867e-07
7.78779e-05
3.87322e-07
7.79121e-05
3.88263e-07
7.79471e-05
3.83819e-07
7.79829e-05
3.74907e-07
7.80196e-05
3.62248e-07
7.80573e-05
3.4644e-07
7.80958e-05
3.28016e-07
7.81354e-05
3.07475e-07
7.81759e-05
2.85309e-07
7.82173e-05
2.62026e-07
7.82597e-05
2.38163e-07
7.83029e-05
2.14319e-07
7.83471e-05
1.91142e-07
7.83923e-05
1.6935e-07
7.84385e-05
1.49764e-07
7.84861e-05
1.33263e-07
7.85354e-05
1.20807e-07
7.85868e-05
1.13382e-07
7.86413e-05
1.12115e-07
7.87e-05
1.18079e-07
7.87645e-05
1.32295e-07
7.88367e-05
1.5562e-07
7.89194e-05
1.8868e-07
7.90159e-05
2.31529e-07
7.913e-05
2.83998e-07
3.43655e-07
7.9266e-05
7.98859e-05
5.31858e-08
7.99048e-05
1.47944e-07
7.99292e-05
2.19503e-07
7.99568e-05
2.71535e-07
7.99865e-05
3.08716e-07
8.00176e-05
3.33365e-07
8.00496e-05
3.47876e-07
8.00825e-05
3.54401e-07
8.01163e-05
3.54412e-07
8.01511e-05
3.49011e-07
8.01869e-05
3.39101e-07
8.02238e-05
3.25408e-07
8.02617e-05
3.08539e-07
8.03007e-05
2.89036e-07
8.03407e-05
2.67405e-07
8.03819e-05
2.44143e-07
8.04242e-05
2.19754e-07
8.04676e-05
1.94764e-07
8.05121e-05
1.69751e-07
8.0558e-05
1.4532e-07
8.06052e-05
1.22125e-07
8.0654e-05
1.00916e-07
8.07048e-05
8.24564e-08
8.07581e-05
6.75788e-08
8.08145e-05
5.69924e-08
8.08749e-05
5.16469e-08
8.09407e-05
5.22762e-08
8.10135e-05
5.95307e-08
8.10953e-05
7.38366e-08
8.11886e-05
9.53404e-08
8.12965e-05
1.23666e-07
8.14224e-05
1.58118e-07
1.96272e-07
8.15697e-05
8.21668e-05
4.68353e-08
8.21834e-05
1.31351e-07
8.22059e-05
1.9698e-07
8.22321e-05
2.45333e-07
8.22609e-05
2.79954e-07
8.22914e-05
3.02886e-07
8.23231e-05
3.16127e-07
8.2356e-05
3.21553e-07
8.23898e-05
3.20536e-07
8.24247e-05
3.14125e-07
8.24606e-05
3.03184e-07
8.24976e-05
2.88426e-07
8.25357e-05
2.70457e-07
8.25749e-05
2.49818e-07
8.26153e-05
2.27014e-07
8.26569e-05
2.02538e-07
8.26998e-05
1.76882e-07
8.2744e-05
1.50551e-07
8.27896e-05
1.241e-07
8.28369e-05
9.80791e-08
8.28859e-05
7.3072e-08
8.29371e-05
4.97402e-08
8.29908e-05
2.87277e-08
8.30476e-05
1.08156e-08
8.31084e-05
-3.8098e-09
8.31741e-05
-1.40944e-08
8.32461e-05
-1.97141e-08
8.3326e-05
-2.03403e-08
8.34157e-05
-1.58919e-08
8.35177e-05
-6.58074e-09
8.36344e-05
6.96029e-09
8.37688e-05
2.36789e-08
4.12075e-08
8.39239e-05
8.45132e-05
4.13912e-08
8.45279e-05
1.16627e-07
8.45486e-05
1.76281e-07
8.45732e-05
2.20743e-07
8.46006e-05
2.52595e-07
8.46299e-05
2.73571e-07
8.46607e-05
2.85321e-07
8.46928e-05
2.89458e-07
8.47261e-05
2.87243e-07
8.47606e-05
2.79665e-07
8.47962e-05
2.67553e-07
8.4833e-05
2.51602e-07
8.48711e-05
2.3241e-07
8.49104e-05
2.1051e-07
8.4951e-05
1.864e-07
8.4993e-05
1.6056e-07
8.50364e-05
1.33463e-07
8.50814e-05
1.0558e-07
8.5128e-05
7.74272e-08
8.51766e-05
4.94952e-08
8.52274e-05
2.22433e-08
8.52808e-05
-3.66712e-09
8.53373e-05
-2.77432e-08
8.53976e-05
-4.95132e-08
8.54624e-05
-6.86112e-08
8.55329e-05
-8.4542e-08
8.56103e-05
-9.70973e-08
8.56961e-05
-1.06211e-07
8.57923e-05
-1.12065e-07
8.59009e-05
-1.15126e-07
8.60241e-05
-1.16272e-07
8.61645e-05
-1.16693e-07
-1.1852e-07
8.63242e-05
8.69269e-05
3.66286e-08
8.69401e-05
1.03426e-07
8.69593e-05
1.57155e-07
8.69825e-05
1.97523e-07
8.70087e-05
2.26349e-07
8.70372e-05
2.45072e-07
8.70675e-05
2.55064e-07
8.70992e-05
2.57708e-07
8.71323e-05
2.54145e-07
8.71667e-05
2.45293e-07
8.72023e-05
2.31931e-07
8.72392e-05
2.14724e-07
8.72774e-05
1.94246e-07
8.73169e-05
1.71016e-07
8.73577e-05
1.4551e-07
8.74001e-05
1.18188e-07
8.74441e-05
8.94943e-08
8.74898e-05
5.98691e-08
8.75374e-05
2.97985e-08
8.75872e-05
-2.84203e-10
8.76395e-05
-3.00578e-08
8.76948e-05
-5.8926e-08
8.77536e-05
-8.65383e-08
8.78166e-05
-1.12542e-07
8.78847e-05
-1.36683e-07
8.79588e-05
-1.5873e-07
8.80404e-05
-1.78638e-07
8.81307e-05
-1.96548e-07
8.82315e-05
-2.12831e-07
8.83445e-05
-2.28118e-07
8.84716e-05
-2.43396e-07
8.86148e-05
-2.59889e-07
-2.79487e-07
8.87758e-05
8.94098e-05
3.23895e-08
8.94217e-05
9.14792e-08
8.94394e-05
1.39435e-07
8.94613e-05
1.75624e-07
8.94864e-05
2.0129e-07
8.95139e-05
2.17596e-07
8.95433e-05
2.25677e-07
8.95743e-05
2.26699e-07
8.96067e-05
2.21678e-07
8.96406e-05
2.11455e-07
8.96758e-05
1.96755e-07
8.97123e-05
1.78204e-07
8.97502e-05
1.56352e-07
8.97895e-05
1.31697e-07
8.98303e-05
1.04691e-07
8.98727e-05
7.57693e-08
8.99169e-05
4.53483e-08
8.9963e-05
1.37567e-08
9.00112e-05
-1.84455e-08
9.0062e-05
-5.10069e-08
9.01155e-05
-8.35641e-08
9.01723e-05
-1.1572e-07
9.02329e-05
-1.472e-07
9.02981e-05
-1.77779e-07
9.03688e-05
-2.07318e-07
9.04458e-05
-2.35764e-07
9.05304e-05
-2.6322e-07
9.06238e-05
-2.89971e-07
9.07275e-05
-3.16512e-07
9.0843e-05
-3.43566e-07
9.09717e-05
-3.72142e-07
9.11153e-05
-4.03459e-07
-4.39143e-07
9.12749e-05
9.19637e-05
2.85629e-08
9.19746e-05
8.05719e-08
9.19911e-05
1.22951e-07
9.20118e-05
1.54926e-07
9.20357e-05
1.77318e-07
9.20623e-05
1.91044e-07
9.20909e-05
1.97037e-07
9.21214e-05
1.96283e-07
9.21534e-05
1.89674e-07
9.21868e-05
1.77973e-07
9.22218e-05
1.61845e-07
9.22581e-05
1.41877e-07
9.22958e-05
1.18582e-07
9.23351e-05
9.2428e-08
9.2376e-05
6.38389e-08
9.24185e-05
3.32134e-08
9.24629e-05
9.59985e-10
9.25093e-05
-3.26621e-08
9.25581e-05
-6.71832e-08
9.26094e-05
-1.02369e-07
9.26638e-05
-1.37925e-07
9.27216e-05
-1.73574e-07
9.27836e-05
-2.09129e-07
9.28503e-05
-2.44471e-07
9.29225e-05
-2.79567e-07
9.30012e-05
-3.1449e-07
9.30875e-05
-3.49454e-07
9.31823e-05
-3.84836e-07
9.3287e-05
-4.21197e-07
9.34028e-05
-4.59289e-07
9.35307e-05
-5.00083e-07
9.3672e-05
-5.4472e-07
-5.94533e-07
9.38273e-05
9.45907e-05
2.50686e-08
9.46007e-05
7.05364e-08
9.46161e-05
1.07563e-07
9.46357e-05
1.35349e-07
9.46586e-05
1.54412e-07
9.46841e-05
1.65465e-07
9.47119e-05
1.6927e-07
9.47415e-05
1.66649e-07
9.47728e-05
1.58378e-07
9.48057e-05
1.45138e-07
9.484e-05
1.27533e-07
9.48758e-05
1.061e-07
9.4913e-05
8.13175e-08
9.49518e-05
5.36154e-08
9.49923e-05
2.33813e-08
9.50345e-05
-9.01351e-09
9.50787e-05
-4.32277e-08
9.5125e-05
-7.89851e-08
9.51738e-05
-1.15947e-07
9.52253e-05
-1.53889e-07
9.528e-05
-1.92593e-07
9.53383e-05
-2.31872e-07
9.54008e-05
-2.71618e-07
9.54681e-05
-3.11798e-07
9.5541e-05
-3.52464e-07
9.56203e-05
-3.93775e-07
9.57068e-05
-4.36018e-07
9.58016e-05
-4.7962e-07
9.59056e-05
-5.25161e-07
9.60197e-05
-5.73373e-07
9.61447e-05
-6.25154e-07
9.62816e-05
-6.81534e-07
-7.43574e-07
9.64306e-05
9.72927e-05
2.18482e-08
9.7302e-05
6.12411e-08
9.73164e-05
9.3151e-08
9.7335e-05
1.16809e-07
9.73569e-05
1.32524e-07
9.73815e-05
1.40838e-07
9.74084e-05
1.42365e-07
9.74373e-05
1.3779e-07
9.74679e-05
1.27778e-07
9.75001e-05
1.12932e-07
9.75338e-05
9.37928e-08
9.75691e-05
7.08468e-08
9.76059e-05
4.45302e-08
9.76442e-05
1.52446e-08
9.76843e-05
-1.66733e-08
9.77261e-05
-5.08815e-08
9.777e-05
-8.70907e-08
9.78161e-05
-1.25044e-07
9.78646e-05
-1.64487e-07
9.79159e-05
-2.05232e-07
9.79705e-05
-2.47124e-07
9.80287e-05
-2.90049e-07
9.8091e-05
-3.33963e-07
9.81581e-05
-3.789e-07
9.82306e-05
-4.24975e-07
9.83092e-05
-4.72401e-07
9.83947e-05
-5.21501e-07
9.84878e-05
-5.72715e-07
9.85893e-05
-6.26606e-07
9.86997e-05
-6.83853e-07
9.88198e-05
-7.45244e-07
9.895e-05
-8.1167e-07
-8.83919e-07
9.90903e-05
0.000100072
1.88581e-08
0.000100081
5.25827e-08
0.000100094
7.96124e-08
0.000100112
9.9237e-08
0.000100133
1.11623e-07
0.000100156
1.17175e-07
0.000100182
1.16383e-07
0.00010021
1.09812e-07
0.00010024
9.80257e-08
0.000100272
8.15502e-08
0.000100304
6.0864e-08
0.000100339
3.64017e-08
0.000100375
8.54736e-09
0.000100412
-2.23272e-08
0.000100452
-5.59276e-08
0.000100493
-9.19535e-08
0.000100536
-1.30156e-07
0.000100581
-1.70316e-07
0.000100629
-2.12237e-07
0.000100679
-2.55772e-07
0.000100733
-3.00819e-07
0.00010079
-3.47319e-07
0.000100852
-3.95282e-07
0.000100918
-4.44784e-07
0.000100989
-4.9598e-07
0.000101065
-5.49112e-07
0.000101148
-6.04509e-07
0.000101238
-6.62596e-07
0.000101335
-7.23891e-07
0.000101441
-7.88993e-07
0.000101554
-8.58568e-07
0.000101676
-9.33363e-07
-1.01393e-06
0.000101806
0.000102931
1.60657e-08
0.000102939
4.44804e-08
0.000102952
6.68639e-08
0.000102968
8.25729e-08
0.000102988
9.16796e-08
0.000103011
9.44769e-08
0.000103036
9.1352e-08
0.000103063
8.2764e-08
0.000103092
6.91871e-08
0.000103122
5.10715e-08
0.000103154
2.88345e-08
0.000103188
2.85852e-09
0.000103223
-2.65131e-08
0.00010326
-5.89612e-08
0.000103298
-9.42175e-08
0.000103338
-1.32029e-07
0.00010338
-1.72181e-07
0.000103424
-2.14495e-07
0.000103471
-2.58818e-07
0.00010352
-3.05046e-07
0.000103572
-3.53115e-07
0.000103628
-4.03012e-07
0.000103688
-4.54779e-07
0.000103751
-5.08522e-07
0.00010382
-5.64415e-07
0.000103893
-6.22702e-07
0.000103973
-6.83698e-07
0.000104058
-7.47792e-07
0.000104149
-8.15436e-07
0.000104247
-8.87132e-07
0.000104352
-9.63418e-07
0.000104464
-1.04489e-06
-1.13188e-06
0.000104582
0.000105871
1.34458e-08
0.000105879
3.68708e-08
0.000105891
5.48369e-08
0.000105907
6.67669e-08
0.000105926
7.26708e-08
0.000105948
7.27547e-08
0.000105972
6.73179e-08
0.000105998
5.67293e-08
0.000106025
4.13805e-08
0.000106055
2.16518e-08
0.000106086
-2.09922e-09
0.000106118
-2.95422e-08
0.000106152
-6.03779e-08
0.000106187
-9.43324e-08
0.000106224
-1.3117e-07
0.000106263
-1.7068e-07
0.000106303
-2.12683e-07
0.000106346
-2.57033e-07
0.000106391
-3.0362e-07
0.000106438
-3.52368e-07
0.000106488
-4.03247e-07
0.000106542
-4.56272e-07
0.000106598
-5.11506e-07
0.000106659
-5.69067e-07
0.000106724
-6.29131e-07
0.000106793
-6.91926e-07
0.000106867
-7.57737e-07
0.000106946
-8.26897e-07
0.00010703
-8.9978e-07
0.00010712
-9.7679e-07
0.000107215
-1.05834e-06
0.000107315
-1.14488e-06
-1.23656e-06
0.000107419
0.000108896
1.0979e-08
0.000108903
2.97042e-08
0.000108914
4.34762e-08
0.000108929
5.17791e-08
0.000108947
5.45822e-08
0.000108968
5.20236e-08
0.000108991
4.43279e-08
0.000109016
3.17857e-08
0.000109043
1.47139e-08
0.000109071
-6.57282e-09
0.000109101
-3.1774e-08
0.000109132
-6.06095e-08
0.000109164
-9.28238e-08
0.000109198
-1.28185e-07
0.000109233
-1.66493e-07
0.00010927
-2.07572e-07
0.000109309
-2.51275e-07
0.000109349
-2.9749e-07
0.000109392
-3.46131e-07
0.000109437
-3.97153e-07
0.000109484
-4.50547e-07
0.000109534
-5.06341e-07
0.000109587
-5.6461e-07
0.000109644
-6.25471e-07
0.000109703
-6.89084e-07
0.000109767
-7.55651e-07
0.000109835
-8.25412e-07
0.000109907
-8.98637e-07
0.000109982
-9.75617e-07
0.000110062
-1.05666e-06
0.000110146
-1.14204e-06
0.000110233
-1.2321e-06
-1.32682e-06
0.000110323
0.000112007
8.65009e-09
0.000112014
2.29408e-08
0.000112024
3.27362e-08
0.000112039
3.75754e-08
0.000112056
3.74009e-08
0.000112075
3.22967e-08
0.000112097
2.24244e-08
0.000112121
8.00631e-09
0.000112147
-1.0708e-08
0.000112173
-3.34641e-08
0.000112202
-6.00157e-08
0.000112231
-9.01309e-08
0.000112262
-1.23596e-07
0.000112294
-1.6022e-07
0.000112327
-1.99835e-07
0.000112362
-2.42298e-07
0.000112398
-2.87493e-07
0.000112436
-3.3533e-07
0.000112476
-3.8575e-07
0.000112517
-4.38724e-07
0.000112561
-4.94256e-07
0.000112607
-5.52382e-07
0.000112656
-6.13174e-07
0.000112707
-6.76737e-07
0.000112761
-7.43207e-07
0.000112818
-8.12749e-07
0.000112878
-8.8555e-07
0.000112941
-9.61812e-07
0.000113008
-1.04175e-06
0.000113076
-1.12556e-06
0.000113148
-1.21342e-06
0.000113221
-1.30555e-06
-1.40181e-06
0.000113296
0.000115207
6.44693e-09
0.000115213
1.65492e-08
0.000115223
2.25819e-08
0.000115237
2.41326e-08
0.000115253
2.11266e-08
0.000115272
1.36046e-08
0.000115292
1.67361e-09
0.000115315
-1.45042e-08
0.000115339
-3.47403e-08
0.000115364
-5.88368e-08
0.000115391
-8.65987e-08
0.000115419
-1.1784e-07
0.000115447
-1.52387e-07
0.000115477
-1.90085e-07
0.000115508
-2.30799e-07
0.00011554
-2.74414e-07
0.000115574
-3.20838e-07
0.000115608
-3.70002e-07
0.000115644
-4.21865e-07
0.000115682
-4.76407e-07
0.000115722
-5.33639e-07
0.000115763
-5.93594e-07
0.000115806
-6.56334e-07
0.000115851
-7.21944e-07
0.000115898
-7.90529e-07
0.000115948
-8.62209e-07
0.000115999
-9.37117e-07
0.000116053
-1.01539e-06
0.000116108
-1.09716e-06
0.000116165
-1.18254e-06
0.000116224
-1.27161e-06
0.000116283
-1.36449e-06
-1.46093e-06
0.000116342
0.000118498
4.3586e-09
0.000118504
1.05005e-08
0.000118514
1.29772e-08
0.000118526
1.142e-08
0.000118542
5.74208e-09
0.000118559
-4.05191e-09
0.000118579
-1.79016e-08
0.0001186
-3.56993e-08
0.000118623
-5.73109e-08
0.000118646
-8.25908e-08
0.000118671
-1.11391e-07
0.000118697
-1.43569e-07
0.000118724
-1.78989e-07
0.000118751
-2.17529e-07
0.000118779
-2.59084e-07
0.000118808
-3.03563e-07
0.000118839
-3.50895e-07
0.00011887
-4.01028e-07
0.000118902
-4.5393e-07
0.000118935
-5.0959e-07
0.000118969
-5.68014e-07
0.000119005
-6.29231e-07
0.000119042
-6.93284e-07
0.00011908
-7.60232e-07
0.00011912
-8.30144e-07
0.000119161
-9.03097e-07
0.000119203
-9.79169e-07
0.000119246
-1.05843e-06
0.000119289
-1.14094e-06
0.000119334
-1.22674e-06
0.000119378
-1.31582e-06
0.000119422
-1.40821e-06
-1.50358e-06
0.000119464
0.000121883
2.3771e-09
0.000121889
4.77356e-09
0.000121898
3.9016e-09
0.00012191
-5.67256e-10
0.000121925
-8.72884e-09
0.000121941
-2.061e-08
0.000121959
-3.61937e-08
0.000121979
-5.54223e-08
0.000122
-7.82126e-08
0.000122022
-1.04468e-07
0.000122045
-1.34086e-07
0.000122068
-1.66962e-07
0.000122092
-2.02998e-07
0.000122117
-2.42102e-07
0.000122142
-2.84193e-07
0.000122167
-3.29202e-07
0.000122193
-3.77077e-07
0.00012222
-4.27775e-07
0.000122248
-4.81272e-07
0.000122276
-5.37555e-07
0.000122304
-5.96626e-07
0.000122333
-6.585e-07
0.000122363
-7.232e-07
0.000122394
-7.90756e-07
0.000122425
-8.61203e-07
0.000122456
-9.34571e-07
0.000122488
-1.01089e-06
0.00012252
-1.09017e-06
0.000122551
-1.1724e-06
0.000122582
-1.25756e-06
0.000122612
-1.34558e-06
0.00012264
-1.43641e-06
-1.52969e-06
0.000122666
0.000125365
4.89071e-10
0.000125371
-6.67855e-10
0.000125379
-4.69782e-09
0.000125391
-1.18913e-08
0.000125404
-2.23525e-08
0.00012542
-3.61362e-08
0.000125437
-5.32637e-08
0.000125455
-7.37229e-08
0.000125474
-9.74782e-08
0.000125495
-1.24479e-07
0.000125515
-1.54663e-07
0.000125536
-1.87965e-07
0.000125557
-2.24319e-07
0.000125579
-2.63661e-07
0.000125601
-3.05934e-07
0.000125623
-3.51087e-07
0.000125645
-3.9908e-07
0.000125667
-4.4988e-07
0.000125689
-5.03464e-07
0.000125711
-5.59818e-07
0.000125733
-6.18935e-07
0.000125756
-6.80813e-07
0.000125778
-7.45452e-07
0.0001258
-8.12856e-07
0.000125822
-8.83021e-07
0.000125843
-9.55939e-07
0.000125864
-1.03159e-06
0.000125884
-1.10993e-06
0.000125902
-1.19091e-06
0.000125919
-1.27443e-06
0.000125934
-1.36037e-06
0.000125946
-1.44862e-06
-1.5388e-06
0.000125955
0.000128947
-1.30985e-09
0.000128952
-5.8299e-09
0.00012896
-1.28122e-08
0.000128971
-2.25076e-08
0.000128983
-3.5032e-08
0.000128998
-5.04714e-08
0.000129013
-6.88874e-08
0.00012903
-9.03137e-08
0.000129047
-1.14761e-07
0.000129065
-1.42222e-07
0.000129083
-1.72674e-07
0.000129101
-2.06086e-07
0.000129119
-2.42421e-07
0.000129137
-2.81641e-07
0.000129155
-3.23707e-07
0.000129173
-3.68585e-07
0.00012919
-4.16244e-07
0.000129206
-4.66656e-07
0.000129223
-5.198e-07
0.000129239
-5.75654e-07
0.000129254
-6.34201e-07
0.000129269
-6.95422e-07
0.000129282
-7.59297e-07
0.000129295
-8.25799e-07
0.000129307
-8.94894e-07
0.000129318
-9.66538e-07
0.000129327
-1.04067e-06
0.000129334
-1.1172e-06
0.000129339
-1.19604e-06
0.000129342
-1.27705e-06
0.000129342
-1.36007e-06
0.000129338
-1.44497e-06
-1.53133e-06
0.00012933
0.000132631
-3.05421e-09
0.000132636
-1.08083e-08
0.000132644
-2.05973e-08
0.000132654
-3.26264e-08
0.000132666
-4.70231e-08
0.000132679
-6.3903e-08
0.000132694
-8.33668e-08
0.000132709
-1.05494e-07
0.000132724
-1.30344e-07
0.00013274
-1.5795e-07
0.000132756
-1.88331e-07
0.000132771
-2.21489e-07
0.000132786
-2.57415e-07
0.000132801
-2.96095e-07
0.000132814
-3.37508e-07
0.000132827
-3.81633e-07
0.00013284
-4.28447e-07
0.000132851
-4.77926e-07
0.000132861
-5.30046e-07
0.00013287
-5.8478e-07
0.000132878
-6.42098e-07
0.000132885
-7.01966e-07
0.00013289
-7.64343e-07
0.000132893
-8.29178e-07
0.000132895
-8.96409e-07
0.000132894
-9.65957e-07
0.000132891
-1.03773e-06
0.000132886
-1.11161e-06
0.000132877
-1.18746e-06
0.000132865
-1.26512e-06
0.000132849
-1.34439e-06
0.000132829
-1.42509e-06
-1.50682e-06
0.000132805
0.00013642
-4.71251e-09
0.000136425
-1.5537e-08
0.000136432
-2.79101e-08
0.000136441
-4.20035e-08
0.000136452
-5.79769e-08
0.000136464
-7.59881e-08
0.000136477
-9.61821e-08
0.00013649
-1.18687e-07
0.000136504
-1.43607e-07
0.000136517
-1.71017e-07
0.000136529
-2.00969e-07
0.000136541
-2.33496e-07
0.000136553
-2.68613e-07
0.000136563
-3.06327e-07
0.000136572
-3.46634e-07
0.00013658
-3.89522e-07
0.000136586
-4.34975e-07
0.000136591
-4.82973e-07
0.000136595
-5.33488e-07
0.000136597
-5.86487e-07
0.000136596
-6.41931e-07
0.000136594
-6.99771e-07
0.00013659
-7.59948e-07
0.000136583
-8.22393e-07
0.000136574
-8.87019e-07
0.000136561
-9.53726e-07
0.000136546
-1.02239e-06
0.000136527
-1.09289e-06
0.000136505
-1.16504e-06
0.000136478
-1.23868e-06
0.000136448
-1.31359e-06
0.000136412
-1.38959e-06
-1.46628e-06
0.000136372
0.000140317
-6.44527e-09
0.000140322
-2.03791e-08
0.00014033
-3.53104e-08
0.000140339
-5.13508e-08
0.00014035
-6.87012e-08
0.000140361
-8.75733e-08
0.000140373
-1.08171e-07
0.000140385
-1.30685e-07
0.000140397
-1.55276e-07
0.000140408
-1.82067e-07
0.000140418
-2.11147e-07
0.000140427
-2.4258e-07
0.000140435
-2.76408e-07
0.000140441
-3.12654e-07
0.000140446
-3.51329e-07
0.000140449
-3.92432e-07
0.00014045
-4.35951e-07
0.000140449
-4.81867e-07
0.000140446
-5.30151e-07
0.00014044
-5.80764e-07
0.000140432
-6.33657e-07
0.000140421
-6.8877e-07
0.000140407
-7.46032e-07
0.00014039
-8.05354e-07
0.000140369
-8.66635e-07
0.000140345
-9.29756e-07
0.000140318
-9.94579e-07
0.000140286
-1.06095e-06
0.000140249
-1.12868e-06
0.000140208
-1.19759e-06
0.000140162
-1.26745e-06
0.00014011
-1.33805e-06
-1.409e-06
0.000140053
0.000144326
-8.0002e-09
0.000144331
-2.48684e-08
0.000144337
-4.20787e-08
0.000144346
-5.97512e-08
0.000144355
-7.81627e-08
0.000144365
-9.75771e-08
0.000144375
-1.18252e-07
0.000144385
-1.4044e-07
0.000144394
-1.64358e-07
0.000144402
-1.90165e-07
0.000144409
-2.17984e-07
0.000144414
-2.47907e-07
0.000144418
-2.8e-07
0.00014442
-3.14304e-07
0.000144419
-3.50844e-07
0.000144416
-3.89629e-07
0.000144411
-4.30654e-07
0.000144403
-4.73901e-07
0.000144392
-5.19342e-07
0.000144379
-5.66934e-07
0.000144361
-6.16625e-07
0.000144341
-6.68347e-07
0.000144317
-7.22019e-07
0.000144289
-7.77545e-07
0.000144257
-8.34813e-07
0.000144221
-8.93693e-07
0.000144181
-9.54042e-07
0.000144136
-1.0157e-06
0.000144085
-1.07848e-06
0.00014403
-1.14219e-06
0.000143969
-1.20662e-06
0.000143903
-1.27157e-06
-1.3367e-06
0.00014383
0.00014845
-1.01678e-08
0.000148456
-3.04711e-08
0.000148464
-5.0126e-08
0.000148473
-6.92645e-08
0.000148484
-8.83775e-08
0.000148494
-1.07867e-07
0.000148504
-1.2809e-07
0.000148513
-1.49392e-07
0.00014852
-1.72069e-07
0.000148526
-1.96335e-07
0.000148531
-2.22344e-07
0.000148533
-2.50213e-07
0.000148533
-2.80024e-07
0.000148531
-3.11834e-07
0.000148526
-3.45677e-07
0.000148517
-3.81568e-07
0.000148506
-4.19507e-07
0.000148492
-4.59479e-07
0.000148474
-5.01452e-07
0.000148452
-5.45385e-07
0.000148427
-5.9122e-07
0.000148398
-6.38886e-07
0.000148364
-6.88297e-07
0.000148326
-7.39351e-07
0.000148283
-7.91932e-07
0.000148235
-8.45905e-07
0.000148182
-9.01123e-07
0.000148124
-9.57419e-07
0.00014806
-1.01461e-06
0.00014799
-1.0725e-06
0.000147915
-1.13088e-06
0.000147832
-1.18954e-06
-1.24813e-06
0.000147744
0.00015269
-1.15147e-08
0.000152695
-3.50502e-08
0.000152702
-5.69276e-08
0.00015271
-7.74228e-08
0.000152719
-9.71276e-08
0.000152727
-1.16504e-07
0.000152735
-1.36027e-07
0.000152742
-1.56174e-07
0.000152747
-1.77296e-07
0.000152751
-1.99641e-07
0.000152752
-2.23407e-07
0.00015275
-2.48744e-07
0.000152746
-2.75764e-07
0.000152739
-3.04541e-07
0.000152728
-3.35121e-07
0.000152714
-3.67531e-07
0.000152696
-4.01776e-07
0.000152675
-4.37845e-07
0.000152649
-4.75714e-07
0.000152619
-5.15341e-07
0.000152584
-5.56672e-07
0.000152545
-5.99638e-07
0.000152501
-6.44154e-07
0.000152452
-6.90121e-07
0.000152397
-7.37426e-07
0.000152337
-7.85942e-07
0.000152272
-8.35525e-07
0.0001522
-8.86021e-07
0.000152123
-9.37261e-07
0.00015204
-9.8907e-07
0.00015195
-1.04125e-06
0.000151854
-1.09365e-06
-1.14596e-06
0.000151752
0.000157056
-1.57656e-08
0.000157064
-4.37732e-08
0.000157075
-6.76616e-08
0.000157086
-8.8576e-08
0.000157097
-1.07844e-07
0.000157107
-1.26141e-07
0.000157115
-1.44115e-07
0.000157121
-1.62343e-07
0.000157125
-1.8121e-07
0.000157126
-2.01003e-07
0.000157125
-2.21952e-07
0.00015712
-2.44223e-07
0.000157112
-2.67934e-07
0.000157101
-2.93165e-07
0.000157086
-3.19968e-07
0.000157067
-3.48371e-07
0.000157043
-3.78384e-07
0.000157015
-4.09999e-07
0.000156983
-4.43194e-07
0.000156946
-4.77933e-07
0.000156903
-5.14163e-07
0.000156855
-5.51821e-07
0.000156802
-5.90828e-07
0.000156743
-6.3109e-07
0.000156678
-6.72502e-07
0.000156607
-7.14942e-07
0.00015653
-7.58278e-07
0.000156446
-8.02362e-07
0.000156356
-8.47035e-07
0.000156259
-8.92127e-07
0.000156155
-9.37454e-07
0.000156044
-9.82836e-07
-1.02801e-06
0.000155926
0.000161539
-1.66582e-08
0.000161546
-5.0167e-08
0.000161555
-7.68905e-08
0.000161565
-9.90645e-08
0.000161576
-1.18288e-07
0.000161585
-1.35468e-07
0.000161593
-1.51595e-07
0.000161598
-1.67441e-07
0.0001616
-1.83519e-07
0.000161599
-2.00188e-07
0.000161595
-2.17717e-07
0.000161587
-2.36292e-07
0.000161575
-2.56043e-07
0.000161559
-2.77062e-07
0.000161539
-2.99407e-07
0.000161513
-3.23116e-07
0.000161483
-3.48206e-07
0.000161448
-3.74675e-07
0.000161407
-4.02508e-07
0.000161361
-4.31678e-07
0.000161309
-4.6214e-07
0.000161251
-4.93841e-07
0.000161187
-5.26712e-07
0.000161116
-5.60675e-07
0.000161039
-5.95638e-07
0.000160956
-6.31497e-07
0.000160866
-6.68137e-07
0.000160769
-7.05434e-07
0.000160665
-7.43255e-07
0.000160555
-7.81462e-07
0.000160437
-8.19903e-07
0.000160313
-8.58451e-07
-8.96859e-07
0.000160181
0.000166165
-2.81593e-08
0.000166181
-6.64788e-08
0.000166197
-9.27508e-08
0.000166211
-1.13241e-07
0.000166224
-1.30374e-07
0.000166233
-1.44964e-07
0.00016624
-1.58236e-07
0.000166243
-1.71032e-07
0.000166244
-1.83821e-07
0.00016624
-1.96945e-07
0.000166233
-2.10664e-07
0.000166222
-2.25157e-07
0.000166207
-2.40549e-07
0.000166187
-2.5693e-07
0.000166161
-2.7436e-07
0.000166131
-2.92878e-07
0.000166096
-3.12503e-07
0.000166054
-3.33242e-07