/*--------------------------------*- C++ -*----------------------------------*\
  =========                 |
  \\      /  F ield         | OpenFOAM: The Open Source CFD Toolbox
   \\    /   O peration     | Website:  https://openfoam.org
    \\  /    A nd           | Version:  10
     \\/     M anipulation  |
\*---------------------------------------------------------------------------*/
FoamFile
{
    format      ascii;
    class       volVectorField;
    location    "0.03";
    object      U;
}
// * * * * * * * * * * * * * * * * * * * * * * * * * * * * * * * * * * * * * //

dimensions      [0 1 -1 0 0 0 0];

internalField   nonuniform List<vector> 
6820
(
(7.28186 0.0247405 0)
(7.17885 0.039807 0)
(7.05733 0.0445768 0)
(6.9305 0.0470288 0)
(6.80488 0.0478794 0)
(6.68102 0.047783 0)
(6.55953 0.0471762 0)
(6.44106 0.0462435 0)
(6.3259 0.045093 0)
(6.21425 0.0437943 0)
(6.10625 0.0423879 0)
(6.00206 0.0408981 0)
(5.90181 0.0393397 0)
(5.80563 0.0377214 0)
(5.71363 0.0360485 0)
(5.62593 0.034324 0)
(5.54264 0.0325506 0)
(5.46386 0.0307316 0)
(5.38966 0.0288724 0)
(5.32009 0.0269813 0)
(5.25518 0.0250719 0)
(5.19487 0.023164 0)
(5.13906 0.0212869 0)
(5.08754 0.0194825 0)
(5.04001 0.01781 0)
(4.99595 0.0163529 0)
(4.95469 0.0152297 0)
(4.91522 0.0146098 0)
(4.87617 0.0147372 0)
(4.83547 0.0160144 0)
(4.79058 0.0188373 0)
(4.73704 0.0249532 0)
(4.66821 0.0324038 0)
(7.35918 0.0257859 0)
(7.42087 0.035499 0)
(7.47597 0.0371159 0)
(7.5263 0.0389289 0)
(7.57244 0.0401013 0)
(7.61331 0.0409442 0)
(7.64889 0.0417189 0)
(7.67964 0.0424159 0)
(7.70591 0.0430161 0)
(7.72806 0.0435098 0)
(7.74642 0.0438813 0)
(7.76136 0.0441142 0)
(7.77321 0.0441944 0)
(7.78226 0.0441095 0)
(7.78881 0.0438493 0)
(7.79316 0.0434063 0)
(7.79554 0.0427763 0)
(7.79622 0.0419596 0)
(7.7954 0.0409626 0)
(7.79329 0.0397991 0)
(7.79007 0.0384932 0)
(7.78587 0.0370821 0)
(7.7808 0.0356202 0)
(7.77491 0.0341842 0)
(7.76823 0.0328817 0)
(7.76069 0.0318603 0)
(7.75217 0.0313285 0)
(7.74242 0.0315692 0)
(7.73113 0.0330146 0)
(7.71768 0.0362347 0)
(7.70177 0.0421842 0)
(7.68103 0.052524 0)
(7.65917 0.0677524 0)
(7.33544 0.00686419 0)
(7.34583 0.00993858 0)
(7.35523 0.0123533 0)
(7.36358 0.0155665 0)
(7.37271 0.0181869 0)
(7.38248 0.0203678 0)
(7.39281 0.0223203 0)
(7.4038 0.0240363 0)
(7.41542 0.025518 0)
(7.42757 0.0267847 0)
(7.44016 0.0278469 0)
(7.45308 0.0287095 0)
(7.46622 0.0293758 0)
(7.47946 0.0298477 0)
(7.49268 0.0301263 0)
(7.50578 0.0302134 0)
(7.51863 0.0301128 0)
(7.53112 0.0298317 0)
(7.54315 0.0293827 0)
(7.5546 0.0287864 0)
(7.56537 0.0280736 0)
(7.57535 0.0272893 0)
(7.58445 0.026497 0)
(7.59258 0.0257843 0)
(7.59963 0.0252717 0)
(7.60554 0.0251221 0)
(7.61023 0.0255621 0)
(7.61366 0.0268934 0)
(7.61582 0.0295691 0)
(7.61683 0.0341465 0)
(7.61675 0.0416586 0)
(7.61691 0.0531524 0)
(7.61665 0.0706917 0)
(7.33495 0.00916628 0)
(7.34269 0.0196986 0)
(7.34869 0.0248655 0)
(7.35274 0.0282147 0)
(7.35655 0.0302424 0)
(7.36019 0.031458 0)
(7.36362 0.0322646 0)
(7.36701 0.032792 0)
(7.37048 0.0331056 0)
(7.37406 0.033256 0)
(7.37779 0.0332708 0)
(7.3817 0.0331637 0)
(7.3858 0.0329428 0)
(7.39009 0.0326128 0)
(7.39457 0.0321769 0)
(7.39921 0.0316392 0)
(7.404 0.0310054 0)
(7.40888 0.0302853 0)
(7.41383 0.029494 0)
(7.41877 0.0286542 0)
(7.42364 0.027799 0)
(7.42837 0.0269748 0)
(7.43288 0.0262457 0)
(7.43706 0.0256982 0)
(7.44083 0.0254488 0)
(7.44409 0.0256534 0)
(7.44672 0.0265212 0)
(7.44863 0.028332 0)
(7.44975 0.0314617 0)
(7.4501 0.0364301 0)
(7.44968 0.0438439 0)
(7.44926 0.0548403 0)
(7.44865 0.0693593 0)
(7.33402 0.00622476 0)
(7.33895 0.012201 0)
(7.344 0.0146515 0)
(7.34823 0.0168071 0)
(7.35239 0.0186463 0)
(7.35644 0.0201268 0)
(7.36026 0.0214122 0)
(7.36397 0.022529 0)
(7.36764 0.0234685 0)
(7.3713 0.0242365 0)
(7.37497 0.0248366 0)
(7.37869 0.0252696 0)
(7.38246 0.0255369 0)
(7.38629 0.0256415 0)
(7.39018 0.0255878 0)
(7.39413 0.0253826 0)
(7.39813 0.0250365 0)
(7.40215 0.0245649 0)
(7.40618 0.0239898 0)
(7.41018 0.023342 0)
(7.41411 0.0226637 0)
(7.41793 0.0220114 0)
(7.42159 0.0214601 0)
(7.42502 0.0211084 0)
(7.42816 0.0210856 0)
(7.43094 0.0215602 0)
(7.43331 0.0227517 0)
(7.43522 0.0249441 0)
(7.43664 0.028504 0)
(7.43768 0.0339063 0)
(7.43842 0.0416926 0)
(7.43949 0.052702 0)
(7.44106 0.0669921 0)
(7.33377 0.00515469 0)
(7.33795 0.0124953 0)
(7.3427 0.0172802 0)
(7.34673 0.0210123 0)
(7.35053 0.0237493 0)
(7.35423 0.02564 0)
(7.35779 0.0269881 0)
(7.36129 0.027943 0)
(7.3648 0.0285804 0)
(7.36835 0.0289621 0)
(7.37196 0.0291308 0)
(7.37564 0.0291139 0)
(7.37941 0.0289311 0)
(7.38325 0.0285981 0)
(7.38718 0.0281285 0)
(7.39118 0.0275362 0)
(7.39524 0.0268375 0)
(7.39933 0.0260525 0)
(7.40344 0.0252074 0)
(7.40754 0.0243368 0)
(7.41159 0.0234865 0)
(7.41556 0.0227168 0)
(7.41942 0.0221053 0)
(7.42311 0.0217524 0)
(7.4266 0.0217862 0)
(7.42986 0.0223703 0)
(7.43288 0.0237109 0)
(7.43566 0.0260682 0)
(7.43826 0.0297588 0)
(7.44083 0.0351785 0)
(7.44358 0.0427321 0)
(7.44707 0.0530224 0)
(7.45164 0.0660376 0)
(7.33348 0.00422017 0)
(7.33641 0.0103553 0)
(7.3402 0.0139205 0)
(7.34373 0.0163753 0)
(7.34725 0.0181641 0)
(7.35082 0.0194491 0)
(7.35434 0.0204322 0)
(7.35785 0.0212013 0)
(7.36138 0.0217804 0)
(7.36496 0.022188 0)
(7.36859 0.0224364 0)
(7.37229 0.0225318 0)
(7.37606 0.022479 0)
(7.37991 0.0222836 0)
(7.38383 0.0219528 0)
(7.38783 0.0214968 0)
(7.39188 0.02093 0)
(7.39597 0.0202722 0)
(7.40009 0.0195508 0)
(7.40422 0.018802 0)
(7.40833 0.0180734 0)
(7.41239 0.0174268 0)
(7.41639 0.0169409 0)
(7.4203 0.0167155 0)
(7.42411 0.0168759 0)
(7.42782 0.017578 0)
(7.43145 0.0190135 0)
(7.43506 0.021415 0)
(7.43875 0.0250547 0)
(7.44273 0.0302564 0)
(7.44725 0.0373332 0)
(7.45285 0.0467055 0)
(7.4599 0.0583467 0)
(7.33333 0.0035181 0)
(7.33567 0.00923623 0)
(7.33907 0.0132416 0)
(7.34246 0.0163893 0)
(7.34585 0.0188943 0)
(7.34927 0.0207822 0)
(7.35265 0.0221912 0)
(7.356 0.0232228 0)
(7.35939 0.0239324 0)
(7.36281 0.0243662 0)
(7.3663 0.0245618 0)
(7.36986 0.0245463 0)
(7.37351 0.0243416 0)
(7.37724 0.0239666 0)
(7.38105 0.0234398 0)
(7.38494 0.0227802 0)
(7.3889 0.0220097 0)
(7.39293 0.0211542 0)
(7.397 0.0202454 0)
(7.40111 0.0193231 0)
(7.40524 0.0184375 0)
(7.40937 0.0176524 0)
(7.4135 0.0170462 0)
(7.41763 0.0167154 0)
(7.42176 0.0167778 0)
(7.42591 0.017376 0)
(7.43015 0.0186786 0)
(7.43455 0.0208823 0)
(7.43926 0.0242058 0)
(7.44451 0.0288936 0)
(7.45056 0.035166 0)
(7.45791 0.0432901 0)
(7.4669 0.053202 0)
(7.33323 0.00299815 0)
(7.33503 0.00811219 0)
(7.33786 0.0117415 0)
(7.34084 0.0143903 0)
(7.34388 0.0163397 0)
(7.34703 0.0177099 0)
(7.35023 0.0186644 0)
(7.35347 0.0193165 0)
(7.35677 0.0197215 0)
(7.36013 0.0199154 0)
(7.36357 0.0199242 0)
(7.36709 0.019765 0)
(7.3707 0.0194503 0)
(7.37439 0.0189921 0)
(7.37817 0.0184026 0)
(7.38203 0.0176965 0)
(7.38597 0.0168919 0)
(7.38998 0.0160121 0)
(7.39406 0.0150873 0)
(7.39819 0.0141558 0)
(7.40238 0.0132651 0)
(7.40661 0.0124746 0)
(7.41091 0.0118568 0)
(7.41526 0.0114993 0)
(7.41971 0.0115071 0)
(7.4243 0.0120051 0)
(7.42911 0.0131362 0)
(7.43424 0.0150608 0)
(7.43986 0.0179494 0)
(7.4462 0.0219798 0)
(7.45353 0.027298 0)
(7.4623 0.0340611 0)
(7.47282 0.0421724 0)
(7.33317 0.00258448 0)
(7.33461 0.00717446 0)
(7.33707 0.0106562 0)
(7.33983 0.0133471 0)
(7.34273 0.0154741 0)
(7.34576 0.0171031 0)
(7.34885 0.018322 0)
(7.352 0.0192041 0)
(7.3552 0.0197908 0)
(7.35846 0.0201143 0)
(7.3618 0.0202025 0)
(7.36523 0.0200779 0)
(7.36873 0.0197597 0)
(7.37233 0.0192662 0)
(7.37602 0.0186157 0)
(7.3798 0.0178283 0)
(7.38367 0.0169266 0)
(7.38762 0.0159375 0)
(7.39166 0.0148936 0)
(7.39579 0.0138339 0)
(7.40001 0.0128061 0)
(7.40432 0.0118684 0)
(7.40874 0.0110898 0)
(7.4133 0.0105505 0)
(7.41804 0.0103418 0)
(7.42303 0.0105706 0)
(7.42834 0.0113523 0)
(7.43412 0.0128104 0)
(7.44051 0.0150672 0)
(7.44777 0.0182386 0)
(7.45613 0.0224052 0)
(7.466 0.0276375 0)
(7.47763 0.0338068 0)
(7.33313 0.00225345 0)
(7.3343 0.00635941 0)
(7.33641 0.00957903 0)
(7.33888 0.0120483 0)
(7.34152 0.0139307 0)
(7.34431 0.015295 0)
(7.34721 0.0162318 0)
(7.35019 0.0168268 0)
(7.35326 0.0171357 0)
(7.35641 0.0171983 0)
(7.35965 0.0170454 0)
(7.36298 0.0167003 0)
(7.36641 0.0161815 0)
(7.36994 0.0155054 0)
(7.37357 0.0146883 0)
(7.37729 0.013748 0)
(7.38112 0.0127048 0)
(7.38505 0.0115827 0)
(7.38909 0.0104118 0)
(7.39324 0.00922725 0)
(7.3975 0.008071 0)
(7.40191 0.00699448 0)
(7.40647 0.00605644 0)
(7.41124 0.00532494 0)
(7.41625 0.00487014 0)
(7.42159 0.00478421 0)
(7.42735 0.00515541 0)
(7.43367 0.00607099 0)
(7.44071 0.00761208 0)
(7.44869 0.00984521 0)
(7.45784 0.0127986 0)
(7.46851 0.0164793 0)
(7.4809 0.0207343 0)
(7.3331 0.00197931 0)
(7.33407 0.00564463 0)
(7.33591 0.00861169 0)
(7.33815 0.0109362 0)
(7.34062 0.0127505 0)
(7.34327 0.0141176 0)
(7.34606 0.0151028 0)
(7.34894 0.0157669 0)
(7.35192 0.0161494 0)
(7.35499 0.0162785 0)
(7.35815 0.0161778 0)
(7.3614 0.0158665 0)
(7.36475 0.0153617 0)
(7.3682 0.0146799 0)
(7.37175 0.0138379 0)
(7.37541 0.0128542 0)
(7.37917 0.0117498 0)
(7.38306 0.0105486 0)
(7.38707 0.00927992 0)
(7.39121 0.00797721 0)
(7.3955 0.00667862 0)
(7.39996 0.00543475 0)
(7.40463 0.00429364 0)
(7.40955 0.00330969 0)
(7.41478 0.00255368 0)
(7.4204 0.00207884 0)
(7.42651 0.0019484 0)
(7.43325 0.00222108 0)
(7.44077 0.00294205 0)
(7.44927 0.00413659 0)
(7.45895 0.00579131 0)
(7.47011 0.00786866 0)
(7.48289 0.0102083 0)
(7.33308 0.00174689 0)
(7.3339 0.00501381 0)
(7.33551 0.0077182 0)
(7.33754 0.00985369 0)
(7.3398 0.0115045 0)
(7.34227 0.0127163 0)
(7.34489 0.0135387 0)
(7.34762 0.0140259 0)
(7.35046 0.0142197 0)
(7.3534 0.0141527 0)
(7.35644 0.0138521 0)
(7.35958 0.0133404 0)
(7.36283 0.0126368 0)
(7.36618 0.0117589 0)
(7.36965 0.0107237 0)
(7.37323 0.00954931 0)
(7.37693 0.00825532 0)
(7.38077 0.00686352 0)
(7.38474 0.00540109 0)
(7.38886 0.00389383 0)
(7.39317 0.00237574 0)
(7.39768 0.000880445 0)
(7.40244 -0.000548823 0)
(7.40749 -0.00186471 0)
(7.4129 -0.00301301 0)
(7.41874 -0.00396011 0)
(7.42512 -0.0046666 0)
(7.43217 -0.00510108 0)
(7.44002 -0.00525039 0)
(7.44886 -0.00512346 0)
(7.45885 -0.00476481 0)
(7.47025 -0.00424415 0)
(7.48315 -0.00372569 0)
(7.33307 0.00154545 0)
(7.33377 0.00445037 0)
(7.33519 0.0068949 0)
(7.33703 0.00884408 0)
(7.33913 0.0103552 0)
(7.34145 0.0114683 0)
(7.34393 0.0122244 0)
(7.34655 0.0126677 0)
(7.34929 0.0128326 0)
(7.35214 0.0127451 0)
(7.35509 0.0124264 0)
(7.35815 0.0118944 0)
(7.36131 0.0111647 0)
(7.36459 0.0102519 0)
(7.36797 0.00917087 0)
(7.37148 0.00793737 0)
(7.37512 0.00656864 0)
(7.3789 0.00508369 0)
(7.38283 0.00350714 0)
(7.38694 0.00186493 0)
(7.39123 0.000187155 0)
(7.39576 -0.00150627 0)
(7.40056 -0.00318063 0)
(7.40568 -0.00480097 0)
(7.41119 -0.0063445 0)
(7.41717 -0.00777733 0)
(7.4237 -0.00908059 0)
(7.43092 -0.010248 0)
(7.43894 -0.0112899 0)
(7.44792 -0.0122385 0)
(7.45799 -0.0131584 0)
(7.46937 -0.0141416 0)
(7.4821 -0.0153527 0)
(7.33306 0.00136753 0)
(7.33367 0.00394265 0)
(7.33493 0.00613323 0)
(7.3366 0.00788898 0)
(7.33854 0.00924151 0)
(7.3407 0.0102178 0)
(7.34304 0.0108464 0)
(7.34552 0.0111611 0)
(7.34813 0.011191 0)
(7.35085 0.01096 0)
(7.35368 0.010489 0)
(7.35662 0.00979636 0)
(7.35967 0.0088982 0)
(7.36283 0.00780981 0)
(7.36612 0.00654593 0)
(7.36953 0.00512182 0)
(7.37307 0.00355328 0)
(7.37677 0.00185759 0)
(7.38063 4.78657e-05 0)
(7.38469 -0.00184938 0)
(7.38895 -0.00381167 0)
(7.39346 -0.00581579 0)
(7.39827 -0.00784052 0)
(7.40341 -0.00986711 0)
(7.40897 -0.0118797 0)
(7.415 -0.0138659 0)
(7.4216 -0.0158244 0)
(7.42887 -0.017767 0)
(7.43692 -0.0197227 0)
(7.44587 -0.0217418 0)
(7.45584 -0.0239033 0)
(7.46699 -0.0263103 0)
(7.47935 -0.0291163 0)
(7.33305 0.00120796 0)
(7.33359 0.00348084 0)
(7.33471 0.00542585 0)
(7.33623 0.00698772 0)
(7.33803 0.00818153 0)
(7.34005 0.00902671 0)
(7.34226 0.00954571 0)
(7.34462 0.00976595 0)
(7.34711 0.00971243 0)
(7.34972 0.00940578 0)
(7.35245 0.00886358 0)
(7.35529 0.00810105 0)
(7.35824 0.00713152 0)
(7.36131 0.00596736 0)
(7.3645 0.00462041 0)
(7.36783 0.00310311 0)
(7.37129 0.00142869 0)
(7.3749 -0.000387074 0)
(7.37869 -0.00233503 0)
(7.38268 -0.00439935 0)
(7.38688 -0.00656609 0)
(7.39134 -0.00881833 0)
(7.39611 -0.0111439 0)
(7.40122 -0.0135334 0)
(7.40674 -0.0159823 0)
(7.41274 -0.0184923 0)
(7.41929 -0.0210759 0)
(7.42649 -0.0237585 0)
(7.43442 -0.0265826 0)
(7.44318 -0.0296094 0)
(7.45286 -0.0329246 0)
(7.46358 -0.0366357 0)
(7.47535 -0.0408816 0)
(7.33305 0.001063 0)
(7.33353 0.00305739 0)
(7.33453 0.00476658 0)
(7.33592 0.00613544 0)
(7.33758 0.00716677 0)
(7.33947 0.00787174 0)
(7.34154 0.00826515 0)
(7.34377 0.00836664 0)
(7.34614 0.00819539 0)
(7.34862 0.00776808 0)
(7.35123 0.00709945 0)
(7.35394 0.00620279 0)
(7.35677 0.00509002 0)
(7.35972 0.00377246 0)
(7.36279 0.00226029 0)
(7.36599 0.000563269 0)
(7.36934 -0.00130798 0)
(7.37284 -0.00334219 0)
(7.37652 -0.00552665 0)
(7.3804 -0.00785308 0)
(7.38451 -0.0103125 0)
(7.38888 -0.0128959 0)
(7.39355 -0.0155986 0)
(7.39856 -0.0184203 0)
(7.40398 -0.0213659 0)
(7.40986 -0.0244482 0)
(7.41627 -0.0276905 0)
(7.42328 -0.0311284 0)
(7.43096 -0.0348128 0)
(7.4394 -0.0388113 0)
(7.44864 -0.0432114 0)
(7.45879 -0.048119 0)
(7.46982 -0.053657 0)
(7.33304 0.000929965 0)
(7.33347 0.0026663 0)
(7.33438 0.00414998 0)
(7.33565 0.00532873 0)
(7.33719 0.00619747 0)
(7.33895 0.00676143 0)
(7.3409 0.00703034 0)
(7.343 0.00701887 0)
(7.34525 0.00674238 0)
(7.34761 0.00621473 0)
(7.3501 0.00544823 0)
(7.3527 0.00445389 0)
(7.35541 0.00324131 0)
(7.35824 0.00181931 0)
(7.3612 0.000196663 0)
(7.36428 -0.00161982 0)
(7.36751 -0.003623 0)
(7.37089 -0.00580717 0)
(7.37445 -0.00816469 0)
(7.37821 -0.0106916 0)
(7.38219 -0.0133847 0)
(7.38643 -0.0162423 0)
(7.39096 -0.0192669 0)
(7.39582 -0.022466 0)
(7.40107 -0.0258528 0)
(7.40675 -0.0294487 0)
(7.41292 -0.0332845 0)
(7.41963 -0.0374025 0)
(7.42695 -0.0418582 0)
(7.43492 -0.0467214 0)
(7.44359 -0.0520772 0)
(7.45302 -0.0580265 0)
(7.46318 -0.0646739 0)
(7.33304 0.000806864 0)
(7.33343 0.00230289 0)
(7.33425 0.00357147 0)
(7.33542 0.00456438 0)
(7.33684 0.00527139 0)
(7.33847 0.00569274 0)
(7.3403 0.00583336 0)
(7.34228 0.00570275 0)
(7.3444 0.00531169 0)
(7.34664 0.00467027 0)
(7.349 0.00378767 0)
(7.35147 0.0026721 0)
(7.35405 0.00133106 0)
(7.35674 -0.000229873 0)
(7.35955 -0.00200406 0)
(7.36249 -0.00398637 0)
(7.36557 -0.00617259 0)
(7.3688 -0.0085595 0)
(7.37221 -0.0111439 0)
(7.3758 -0.0139251 0)
(7.37961 -0.0169045 0)
(7.38367 -0.0200861 0)
(7.388 -0.0234778 0)
(7.39265 -0.0270929 0)
(7.39766 -0.0309508 0)
(7.40306 -0.0350782 0)
(7.4089 -0.0395108 0)
(7.41522 -0.0442942 0)
(7.42206 -0.0494853 0)
(7.42947 -0.0551524 0)
(7.43746 -0.0613751 0)
(7.44608 -0.0682462 0)
(7.45527 -0.0758524 0)
(7.33303 0.000692206 0)
(7.33339 0.00196349 0)
(7.33414 0.00302727 0)
(7.33521 0.00383964 0)
(7.33652 0.00438738 0)
(7.33805 0.00466699 0)
(7.33975 0.0046798 0)
(7.34161 0.00443141 0)
(7.34361 0.00392918 0)
(7.34572 0.00318041 0)
(7.34795 0.00219185 0)
(7.35028 0.000969537 0)
(7.35273 -0.000481197 0)
(7.35528 -0.00215634 0)
(7.35795 -0.00405274 0)
(7.36073 -0.00616762 0)
(7.36365 -0.00849961 0)
(7.36672 -0.0110487 0)
(7.36995 -0.013816 0)
(7.37336 -0.0168049 0)
(7.37697 -0.0200214 0)
(7.38081 -0.0234743 0)
(7.3849 -0.0271768 0)
(7.38928 -0.031147 0)
(7.39398 -0.0354086 0)
(7.39903 -0.0399924 0)
(7.40446 -0.0449367 0)
(7.41031 -0.0502883 0)
(7.4166 -0.056103 0)
(7.42335 -0.0624452 0)
(7.43057 -0.0693873 0)
(7.43829 -0.0770125 0)
(7.44644 -0.0853911 0)
(7.33303 0.000584857 0)
(7.33335 0.00164521 0)
(7.33404 0.00251424 0)
(7.33502 0.0031522 0)
(7.33624 0.0035442 0)
(7.33765 0.00368395 0)
(7.33924 0.00356963 0)
(7.34098 0.0032033 0)
(7.34285 0.00258886 0)
(7.34483 0.00173046 0)
(7.34692 0.000631953 0)
(7.34912 -0.000703343 0)
(7.35141 -0.00227297 0)
(7.35381 -0.00407477 0)
(7.35631 -0.00610818 0)
(7.35893 -0.00837318 0)
(7.36166 -0.0108711 0)
(7.36454 -0.0136046 0)
(7.36756 -0.016578 0)
(7.37074 -0.0197979 0)
(7.37411 -0.0232735 0)
(7.37769 -0.0270172 0)
(7.38149 -0.0310453 0)
(7.38554 -0.0353789 0)
(7.38987 -0.0400442 0)
(7.3945 -0.0450735 0)
(7.39946 -0.0505056 0)
(7.40476 -0.0563858 0)
(7.41041 -0.0627664 0)
(7.41644 -0.069706 0)
(7.42283 -0.0772689 0)
(7.42958 -0.0855269 0)
(7.43666 -0.0945349 0)
(7.33303 0.000483945 0)
(7.33332 0.00134581 0)
(7.33395 0.00202986 0)
(7.33486 0.00250021 0)
(7.33598 0.00274126 0)
(7.33729 0.00274473 0)
(7.33877 0.0025064 0)
(7.34039 0.00202553 0)
(7.34213 0.00130324 0)
(7.34398 0.000341107 0)
(7.34593 -0.000859308 0)
(7.34797 -0.00229686 0)
(7.35011 -0.00397106 0)
(7.35234 -0.00588214 0)
(7.35467 -0.00803153 0)
(7.3571 -0.0104216 0)
(7.35964 -0.0130562 0)
(7.3623 -0.0159406 0)
(7.36508 -0.019082 0)
(7.36802 -0.0224899 0)
(7.37112 -0.0261764 0)
(7.37439 -0.0301569 0)
(7.37786 -0.0344502 0)
(7.38154 -0.0390794 0)
(7.38545 -0.0440722 0)
(7.38961 -0.0494613 0)
(7.39403 -0.0552844 0)
(7.39872 -0.0615843 0)
(7.40369 -0.0684089 0)
(7.40893 -0.0758105 0)
(7.41444 -0.0838443 0)
(7.42021 -0.0925717 0)
(7.42617 -0.102033 0)
(7.33303 0.000388792 0)
(7.3333 0.00106349 0)
(7.33388 0.00157203 0)
(7.33471 0.00188197 0)
(7.33574 0.00197753 0)
(7.33695 0.00184892 0)
(7.33832 0.00148983 0)
(7.33982 0.000896986 0)
(7.34143 6.88158e-05 0)
(7.34315 -0.000995678 0)
(7.34495 -0.00229745 0)
(7.34685 -0.00383772 0)
(7.34882 -0.00561827 0)
(7.35087 -0.00764161 0)
(7.35301 -0.00991129 0)
(7.35524 -0.0124319 0)
(7.35756 -0.0152094 0)
(7.35998 -0.0182513 0)
(7.36251 -0.021567 0)
(7.36517 -0.025168 0)
(7.36796 -0.0290683 0)
(7.37089 -0.0332848 0)
(7.37398 -0.0378375 0)
(7.37725 -0.0427502 0)
(7.38069 -0.0480503 0)
(7.38433 -0.0537691 0)
(7.38817 -0.0599416 0)
(7.3922 -0.066607 0)
(7.39644 -0.0738074 0)
(7.40086 -0.0815877 0)
(7.40546 -0.0899939 0)
(7.41021 -0.0990767 0)
(7.41506 -0.108863 0)
(7.33302 0.000298857 0)
(7.33327 0.000796842 0)
(7.33381 0.00113922 0)
(7.33457 0.0012967 0)
(7.33552 0.00125379 0)
(7.33664 0.000999819 0)
(7.3379 0.000527055 0)
(7.33928 -0.000169672 0)
(7.34076 -0.00109401 0)
(7.34234 -0.00224906 0)
(7.34399 -0.0036378 0)
(7.34572 -0.00526344 0)
(7.34752 -0.00712971 0)
(7.34939 -0.00924105 0)
(7.35132 -0.0116029 0)
(7.35333 -0.0142217 0)
(7.35541 -0.0171054 0)
(7.35757 -0.0202635 0)
(7.35982 -0.0237069 0)
(7.36217 -0.027449 0)
(7.36462 -0.0315052 0)
(7.36718 -0.0358934 0)
(7.36986 -0.0406343 0)
(7.37267 -0.0457515 0)
(7.37562 -0.0512715 0)
(7.3787 -0.0572237 0)
(7.38191 -0.0636402 0)
(7.38526 -0.0705556 0)
(7.38873 -0.0780064 0)
(7.39231 -0.0860305 0)
(7.39598 -0.0946651 0)
(7.39972 -0.103951 0)
(7.40348 -0.113906 0)
(7.33302 0.000213688 0)
(7.33325 0.000544635 0)
(7.33374 0.000729721 0)
(7.33444 0.000742339 0)
(7.33532 0.000567273 0)
(7.33634 0.00019303 0)
(7.3375 -0.000389631 0)
(7.33877 -0.00118783 0)
(7.34012 -0.00220738 0)
(7.34156 -0.00345345 0)
(7.34306 -0.00493106 0)
(7.34463 -0.00664531 0)
(7.34625 -0.00860173 0)
(7.34792 -0.0108065 0)
(7.34964 -0.0132665 0)
(7.35142 -0.0159899 0)
(7.35325 -0.0189858 0)
(7.35514 -0.0222651 0)
(7.35709 -0.0258398 0)
(7.35911 -0.0297239 0)
(7.3612 -0.0339335 0)
(7.36336 -0.0384865 0)
(7.36561 -0.0434032 0)
(7.36793 -0.0487057 0)
(7.37034 -0.0544187 0)
(7.37284 -0.0605686 0)
(7.3754 -0.0671837 0)
(7.37804 -0.0742934 0)
(7.38073 -0.0819282 0)
(7.38346 -0.0901184 0)
(7.3862 -0.0988931 0)
(7.38893 -0.108284 0)
(7.39161 -0.118298 0)
(7.33302 0.000132951 0)
(7.33323 0.000306029 0)
(7.33368 0.000343068 0)
(7.33433 0.00022034 0)
(7.33513 -7.64949e-05 0)
(7.33606 -0.000559015 0)
(7.33712 -0.00123717 0)
(7.33827 -0.00211927 0)
(7.33949 -0.00321266 0)
(7.34078 -0.00452423 0)
(7.34212 -0.00606074 0)
(7.34351 -0.00782908 0)
(7.34494 -0.0098365 0)
(7.3464 -0.0120908 0)
(7.34789 -0.0146006 0)
(7.34942 -0.0173754 0)
(7.35098 -0.0204258 0)
(7.35257 -0.0237636 0)
(7.3542 -0.027402 0)
(7.35586 -0.0313554 0)
(7.35756 -0.0356402 0)
(7.3593 -0.0402741 0)
(7.36108 -0.0452764 0)
(7.3629 -0.0506681 0)
(7.36476 -0.0564714 0)
(7.36664 -0.0627099 0)
(7.36854 -0.0694078 0)
(7.37046 -0.0765899 0)
(7.37236 -0.0842808 0)
(7.37424 -0.0925046 0)
(7.37607 -0.101283 0)
(7.37782 -0.11064 0)
(7.37946 -0.120575 0)
(7.33302 5.6055e-05 0)
(7.33321 7.9403e-05 0)
(7.33363 -2.3934e-05 0)
(7.33422 -0.000275664 0)
(7.33496 -0.000690017 0)
(7.33581 -0.00127942 0)
(7.33677 -0.00205503 0)
(7.33781 -0.0030267 0)
(7.33891 -0.00420332 0)
(7.34006 -0.00559329 0)
(7.34125 -0.00720473 0)
(7.34247 -0.00904573 0)
(7.34371 -0.0111246 0)
(7.34497 -0.0134502 0)
(7.34623 -0.0160319 0)
(7.34751 -0.0188799 0)
(7.34879 -0.0220052 0)
(7.35008 -0.0254201 0)
(7.35138 -0.0291378 0)
(7.35268 -0.0331725 0)
(7.35398 -0.03754 0)
(7.35529 -0.0422567 0)
(7.35659 -0.0473407 0)
(7.35789 -0.0528104 0)
(7.35918 -0.0586855 0)
(7.36045 -0.0649859 0)
(7.36168 -0.0717316 0)
(7.36287 -0.0789423 0)
(7.36399 -0.0866371 0)
(7.36503 -0.0948334 0)
(7.36596 -0.103546 0)
(7.36676 -0.112792 0)
(7.36739 -0.122565 0)
(7.33302 -1.70696e-05 0)
(7.3332 -0.000134917 0)
(7.33358 -0.000367984 0)
(7.33412 -0.000734615 0)
(7.33479 -0.00124749 0)
(7.33556 -0.00191849 0)
(7.33642 -0.00275912 0)
(7.33734 -0.00378028 0)
(7.33831 -0.00499237 0)
(7.33931 -0.00640552 0)
(7.34033 -0.00802965 0)
(7.34135 -0.00987462 0)
(7.34239 -0.0119504 0)
(7.34341 -0.0142673 0)
(7.34443 -0.016836 0)
(7.34544 -0.0196678 0)
(7.34642 -0.0227746 0)
(7.34739 -0.026169 0)
(7.34833 -0.0298644 0)
(7.34925 -0.0338751 0)
(7.35013 -0.038216 0)
(7.35098 -0.0429027 0)
(7.35179 -0.0479515 0)
(7.35256 -0.0533789 0)
(7.35327 -0.0592018 0)
(7.35391 -0.0654368 0)
(7.35447 -0.0721002 0)
(7.35494 -0.0792075 0)
(7.3553 -0.0867726 0)
(7.35553 -0.0948081 0)
(7.3556 -0.103324 0)
(7.35549 -0.112331 0)
(7.35519 -0.121818 0)
(7.33302 -8.72864e-05 0)
(7.33319 -0.000341477 0)
(7.33355 -0.000701763 0)
(7.33405 -0.00118532 0)
(7.33467 -0.00180554 0)
(7.33537 -0.00257525 0)
(7.33615 -0.00350672 0)
(7.33697 -0.00461155 0)
(7.33783 -0.00590076 0)
(7.3387 -0.0073849 0)
(7.33957 -0.00907424 0)
(7.34043 -0.0109789 0)
(7.34127 -0.0131092 0)
(7.34209 -0.0154754 0)
(7.34287 -0.0180884 0)
(7.34361 -0.0209595 0)
(7.34431 -0.0241002 0)
(7.34496 -0.0275229 0)
(7.34556 -0.0312405 0)
(7.3461 -0.0352661 0)
(7.34657 -0.0396135 0)
(7.34697 -0.0442967 0)
(7.3473 -0.0493298 0)
(7.34753 -0.0547271 0)
(7.34767 -0.0605022 0)
(7.3477 -0.0666686 0)
(7.34761 -0.0732386 0)
(7.34738 -0.0802233 0)
(7.34699 -0.0876323 0)
(7.34643 -0.0954731 0)
(7.34567 -0.10375 0)
(7.3447 -0.112469 0)
(7.34348 -0.121615 0)
(7.33302 -0.000154598 0)
(7.33317 -0.000534828 0)
(7.3335 -0.0010031 0)
(7.33396 -0.0015714 0)
(7.33451 -0.00225133 0)
(7.33514 -0.00305588 0)
(7.33581 -0.00399878 0)
(7.33652 -0.00509393 0)
(7.33723 -0.00635495 0)
(7.33794 -0.00779492 0)
(7.33864 -0.0094264 0)
(7.3393 -0.0112615 0)
(7.33993 -0.0133121 0)
(7.3405 -0.0155898 0)
(7.34103 -0.0181063 0)
(7.34149 -0.0208734 0)
(7.34188 -0.0239031 0)
(7.34219 -0.0272075 0)
(7.34242 -0.0307991 0)
(7.34256 -0.0346902 0)
(7.3426 -0.0388935 0)
(7.34254 -0.0434215 0)
(7.34237 -0.0482866 0)
(7.34207 -0.0535006 0)
(7.34164 -0.059075 0)
(7.34106 -0.06502 0)
(7.34033 -0.0713451 0)
(7.33942 -0.0780579 0)
(7.33832 -0.0851647 0)
(7.33701 -0.0926695 0)
(7.33548 -0.100574 0)
(7.3337 -0.108879 0)
(7.33166 -0.11757 0)
(7.33302 -0.000222136 0)
(7.33317 -0.000735452 0)
(7.3335 -0.00133139 0)
(7.33395 -0.00202205 0)
(7.33448 -0.0028196 0)
(7.33507 -0.00373611 0)
(7.33569 -0.00478391 0)
(7.33632 -0.00597567 0)
(7.33695 -0.00732392 0)
(7.33754 -0.00884075 0)
(7.3381 -0.0105379 0)
(7.33861 -0.012427 0)
(7.33905 -0.0145196 0)
(7.33942 -0.0168271 0)
(7.33971 -0.0193609 0)
(7.33991 -0.0221326 0)
(7.34002 -0.0251536 0)
(7.34002 -0.0284355 0)
(7.3399 -0.0319899 0)
(7.33967 -0.0358282 0)
(7.33931 -0.0399617 0)
(7.33881 -0.0444013 0)
(7.33816 -0.0491573 0)
(7.33735 -0.0542395 0)
(7.33638 -0.0596565 0)
(7.33522 -0.0654159 0)
(7.33388 -0.0715241 0)
(7.33232 -0.0779854 0)
(7.33054 -0.0848025 0)
(7.32852 -0.091976 0)
(7.32625 -0.0995035 0)
(7.3237 -0.107383 0)
(7.32087 -0.115597 0)
(7.33301 -0.000285873 0)
(7.33315 -0.00090574 0)
(7.33345 -0.0015685 0)
(7.33384 -0.00228118 0)
(7.33431 -0.00305973 0)
(7.33481 -0.00392212 0)
(7.33532 -0.00488652 0)
(7.33583 -0.00597099 0)
(7.33631 -0.00719284 0)
(7.33675 -0.00856783 0)
(7.33714 -0.0101103 0)
(7.33745 -0.0118334 0)
(7.33768 -0.0137495 0)
(7.33781 -0.0158706 0)
(7.33785 -0.0182079 0)
(7.33777 -0.0207727 0)
(7.33756 -0.0235759 0)
(7.33723 -0.0266283 0)
(7.33676 -0.0299402 0)
(7.33613 -0.033522 0)
(7.33535 -0.0373834 0)
(7.3344 -0.0415338 0)
(7.33328 -0.0459818 0)
(7.33197 -0.0507352 0)
(7.33045 -0.0558008 0)
(7.32873 -0.0611842 0)
(7.32679 -0.0668896 0)
(7.32462 -0.0729194 0)
(7.3222 -0.0792744 0)
(7.31952 -0.0859536 0)
(7.31657 -0.0929531 0)
(7.31334 -0.10027 0)
(7.30982 -0.107886 0)
(7.33302 -0.000362674 0)
(7.3332 -0.00115054 0)
(7.33355 -0.00199266 0)
(7.334 -0.00288997 0)
(7.3345 -0.00385073 0)
(7.33501 -0.00488499 0)
(7.33551 -0.00600588 0)
(7.33598 -0.00722909 0)
(7.3364 -0.00856953 0)
(7.33674 -0.0100411 0)
(7.33701 -0.0116577 0)
(7.33718 -0.0134326 0)
(7.33724 -0.0153788 0)
(7.33718 -0.0175086 0)
(7.33699 -0.0198339 0)
(7.33667 -0.022366 0)
(7.3362 -0.0251157 0)
(7.33557 -0.0280937 0)
(7.33478 -0.0313098 0)
(7.33381 -0.0347736 0)
(7.33265 -0.0384937 0)
(7.3313 -0.0424782 0)
(7.32974 -0.0467341 0)
(7.32797 -0.0512674 0)
(7.32597 -0.0560831 0)
(7.32373 -0.0611843 0)
(7.32125 -0.0665731 0)
(7.31851 -0.0722495 0)
(7.3155 -0.0782118 0)
(7.3122 -0.0844565 0)
(7.30861 -0.0909774 0)
(7.30472 -0.0977685 0)
(7.30051 -0.104811 0)
(7.33301 -0.000420444 0)
(7.33314 -0.0012524 0)
(7.33342 -0.00203942 0)
(7.33379 -0.00280561 0)
(7.33421 -0.00358783 0)
(7.33463 -0.00441277 0)
(7.33504 -0.00530293 0)
(7.3354 -0.00628012 0)
(7.33569 -0.00736631 0)
(7.3359 -0.00857864 0)
(7.33601 -0.00993075 0)
(7.336 -0.0114348 0)
(7.33587 -0.0131018 0)
(7.33559 -0.0149424 0)
(7.33517 -0.0169665 0)
(7.33458 -0.0191838 0)
(7.33382 -0.0216035 0)
(7.33288 -0.0242343 0)
(7.33175 -0.0270846 0)
(7.33041 -0.0301624 0)
(7.32886 -0.0334751 0)
(7.32709 -0.0370293 0)
(7.3251 -0.0408308 0)
(7.32286 -0.0448847 0)
(7.32037 -0.0491946 0)
(7.31762 -0.0537633 0)
(7.31461 -0.0585919 0)
(7.31133 -0.0636802 0)
(7.30776 -0.0690265 0)
(7.3039 -0.0746274 0)
(7.29975 -0.0804773 0)
(7.29529 -0.0865716 0)
(7.29055 -0.0928932 0)
(7.33304 -0.000561497 0)
(7.33335 -0.0017517 0)
(7.33383 -0.00292806 0)
(7.33437 -0.0040666 0)
(7.33488 -0.00518035 0)
(7.33536 -0.00628725 0)
(7.33578 -0.00741209 0)
(7.33612 -0.00858286 0)
(7.33636 -0.00981863 0)
(7.33649 -0.011137 0)
(7.33649 -0.0125563 0)
(7.33635 -0.0140932 0)
(7.33607 -0.0157626 0)
(7.33562 -0.0175777 0)
(7.33501 -0.0195502 0)
(7.33421 -0.0216909 0)
(7.33322 -0.0240096 0)
(7.33203 -0.0265153 0)
(7.33062 -0.0292162 0)
(7.32899 -0.0321198 0)
(7.32713 -0.0352326 0)
(7.32503 -0.0385601 0)
(7.32267 -0.0421069 0)
(7.32005 -0.0458762 0)
(7.31716 -0.0498704 0)
(7.31399 -0.05409 0)
(7.31053 -0.0585346 0)
(7.30678 -0.063202 0)
(7.30272 -0.0680883 0)
(7.29836 -0.0731883 0)
(7.29367 -0.0784947 0)
(7.28867 -0.0840001 0)
(7.28333 -0.0896888 0)
(7.33299 -0.000555219 0)
(7.33313 -0.00150341 0)
(7.3335 -0.00226939 0)
(7.33398 -0.00296452 0)
(7.33447 -0.00364752 0)
(7.33492 -0.0043424 0)
(7.33531 -0.0050763 0)
(7.33561 -0.00587116 0)
(7.33578 -0.00674468 0)
(7.33582 -0.0077109 0)
(7.33571 -0.00878123 0)
(7.33543 -0.00996529 0)
(7.33499 -0.0112718 0)
(7.33436 -0.0127089 0)
(7.33353 -0.0142847 0)
(7.33249 -0.0160068 0)
(7.33124 -0.0178825 0)
(7.32975 -0.019919 0)
(7.32803 -0.022123 0)
(7.32606 -0.0245007 0)
(7.32384 -0.027058 0)
(7.32134 -0.0298001 0)
(7.31858 -0.0327315 0)
(7.31552 -0.0358559 0)
(7.31219 -0.0391761 0)
(7.30855 -0.0426938 0)
(7.30461 -0.0464097 0)
(7.30037 -0.0503233 0)
(7.29582 -0.0544328 0)
(7.29095 -0.0587351 0)
(7.28577 -0.0632257 0)
(7.28028 -0.0679002 0)
(7.27449 -0.0727447 0)
(7.33313 -0.00108191 0)
(7.33381 -0.00313867 0)
(7.33459 -0.00479285 0)
(7.33527 -0.00615355 0)
(7.33584 -0.00733014 0)
(7.33632 -0.00837632 0)
(7.33668 -0.0093505 0)
(7.33691 -0.0103039 0)
(7.337 -0.0112721 0)
(7.33694 -0.0122818 0)
(7.33672 -0.0133549 0)
(7.33632 -0.0145088 0)
(7.33574 -0.0157578 0)
(7.33495 -0.017114 0)
(7.33396 -0.0185875 0)
(7.33274 -0.020187 0)
(7.33129 -0.0219203 0)
(7.3296 -0.0237939 0)
(7.32764 -0.0258137 0)
(7.32541 -0.0279848 0)
(7.32291 -0.0303113 0)
(7.32011 -0.0327965 0)
(7.31701 -0.0354429 0)
(7.3136 -0.0382519 0)
(7.30987 -0.0412239 0)
(7.30582 -0.0443581 0)
(7.30144 -0.0476526 0)
(7.29672 -0.0511044 0)
(7.29166 -0.0547091 0)
(7.28626 -0.0584613 0)
(7.28051 -0.0623535 0)
(7.27442 -0.0663795 0)
(7.26797 -0.0705229 0)
(7.33304 -0.000503442 0)
(7.33364 -0.00129088 0)
(7.33466 -0.00189265 0)
(7.33561 -0.0024713 0)
(7.33646 -0.00302379 0)
(7.33719 -0.00356157 0)
(7.33777 -0.00411441 0)
(7.33818 -0.004694 0)
(7.33842 -0.00530669 0)
(7.3385 -0.00596099 0)
(7.3384 -0.00666509 0)
(7.33812 -0.00742613 0)
(7.33766 -0.00825097 0)
(7.33702 -0.00914636 0)
(7.33617 -0.0101189 0)
(7.33513 -0.0111749 0)
(7.33389 -0.0123208 0)
(7.33244 -0.0135625 0)
(7.33078 -0.0149059 0)
(7.3289 -0.0163567 0)
(7.32681 -0.0179203 0)
(7.32451 -0.0196017 0)
(7.322 -0.0214058 0)
(7.31928 -0.0233366 0)
(7.31635 -0.0253982 0)
(7.31323 -0.0275939 0)
(7.30991 -0.0299266 0)
(7.30642 -0.0323982 0)
(7.30275 -0.0350103 0)
(7.29894 -0.0377638 0)
(7.29498 -0.0406578 0)
(7.2909 -0.0436942 0)
(7.28672 -0.0468634 0)
(7.33442 -0.0037557 0)
(7.33938 -0.00726449 0)
(7.34533 -0.00893796 0)
(7.35184 -0.0101564 0)
(7.3588 -0.0110186 0)
(7.36597 -0.0116459 0)
(7.37324 -0.012191 0)
(7.38056 -0.0127221 0)
(7.38791 -0.0132713 0)
(7.39526 -0.0138637 0)
(7.40261 -0.0145168 0)
(7.40995 -0.0152425 0)
(7.41727 -0.0160498 0)
(7.42459 -0.0169463 0)
(7.4319 -0.0179388 0)
(7.43921 -0.0190332 0)
(7.44651 -0.0202354 0)
(7.45381 -0.0215508 0)
(7.4611 -0.0229848 0)
(7.46838 -0.0245423 0)
(7.47566 -0.0262281 0)
(7.48291 -0.028047 0)
(7.49015 -0.0300029 0)
(7.49736 -0.0320997 0)
(7.50452 -0.0343407 0)
(7.51164 -0.0367285 0)
(7.51869 -0.0392653 0)
(7.52566 -0.0419525 0)
(7.53254 -0.0447911 0)
(7.5393 -0.0477807 0)
(7.54592 -0.0509223 0)
(7.55239 -0.0542129 0)
(7.55865 -0.0576522 0)
(7.32971 -0.00412478 0)
(7.32398 -0.00877253 0)
(7.31431 -0.0116444 0)
(7.3025 -0.0139122 0)
(7.28995 -0.0157021 0)
(7.27675 -0.0171409 0)