# y+ ()       
# Time        	patch         	min           	max           	average       
500           	lowerWall	4.971713e-01	7.826156e+01	4.059378e+01
500           	upperWall	3.125910e+01	5.507614e+01	4.599718e+01
