/*--------------------------------*- C++ -*----------------------------------*\
  =========                 |
  \\      /  F ield         | OpenFOAM: The Open Source CFD Toolbox
   \\    /   O peration     | Website:  https://openfoam.org
    \\  /    A nd           | Version:  10
     \\/     M anipulation  |
\*---------------------------------------------------------------------------*/
FoamFile
{
    format      ascii;
    class       volScalarField;
    location    "0.19";
    object      p;
}
// * * * * * * * * * * * * * * * * * * * * * * * * * * * * * * * * * * * * * //

dimensions      [0 2 -2 0 0 0 0];

internalField   nonuniform List<scalar> 
6820
(
7.55293
-6.78071
-8.78675
-8.97595
-9.14145
-9.09341
-9.07516
-9.11045
-9.1727
-9.2521
-9.34228
-9.43966
-9.54278
-9.65107
-9.76435
-9.88264
-10.0061
-10.1346
-10.2693
-10.4095
-10.556
-10.7098
-10.8707
-11.0395
-11.2171
-11.4044
-11.6028
-11.8135
-12.0392
-12.2795
-12.5481
-12.8197
-13.1995
2.17679
-6.57639
-8.59017
-8.85316
-9.07085
-9.08671
-9.09
-9.13182
-9.1943
-9.27091
-9.35786
-9.45234
-9.55304
-9.65941
-9.77122
-9.88839
-10.011
-10.1392
-10.2726
-10.4124
-10.5581
-10.7119
-10.8724
-11.0408
-11.2178
-11.4045
-11.602
-11.8117
-12.0356
-12.2742
-12.5355
-12.8058
-13.1343
0.099345
-5.36139
-7.79361
-8.39505
-8.78795
-8.94689
-9.01241
-9.08127
-9.15951
-9.24586
-9.3396
-9.43916
-9.54363
-9.65265
-9.7662
-9.88441
-10.0075
-10.1356
-10.2692
-10.4088
-10.555
-10.7062
-10.866
-11.0333
-11.2088
-11.3938
-11.5891
-11.7957
-12.0151
-12.2468
-12.4929
-12.7378
-12.9691
-1.46533
-5.17516
-7.49268
-8.15192
-8.54582
-8.76781
-8.88344
-8.98415
-9.0852
-9.18635
-9.28943
-9.39522
-9.50408
-9.61643
-9.73258
-9.85275
-9.97725
-10.1064
-10.2405
-10.38
-10.5252
-10.6763
-10.8343
-11.0001
-11.1729
-11.355
-11.5466
-11.7483
-11.9607
-12.1827
-12.412
-12.6376
-12.8369
-2.74688
-5.21539
-7.18079
-7.87304
-8.29498
-8.58248
-8.7517
-8.88258
-9.00265
-9.11639
-9.22803
-9.34018
-9.45368
-9.56917
-9.6874
-9.80891
-9.93408
-10.0633
-10.1969
-10.3353
-10.4791
-10.6283
-10.7836
-10.9452
-11.1148
-11.2919
-11.4774
-11.6716
-11.8745
-12.0848
-12.2993
-12.5114
-12.7047
-3.70018
-5.33391
-6.99175
-7.7148
-8.14603
-8.45542
-8.65033
-8.79725
-8.92881
-9.05139
-9.16937
-9.28599
-9.40281
-9.52075
-9.64053
-9.76275
-9.88795
-10.0166
-10.149
-10.2858
-10.4273
-10.5737
-10.7258
-10.8844
-11.0497
-11.2216
-11.4007
-11.5873
-11.7811
-11.9811
-12.1849
-12.3891
-12.5871
-4.44072
-5.54077
-6.89843
-7.59147
-8.00873
-8.32637
-8.54494
-8.71078
-8.85583
-8.98832
-9.11322
-9.23465
-9.35481
-9.47493
-9.59601
-9.71884
-9.84404
-9.97211
-10.1035
-10.2386
-10.3779
-10.5218
-10.6707
-10.8251
-10.9851
-11.1511
-11.3233
-11.5021
-11.6871
-11.8776
-12.0723
-12.27
-12.4689
-5.019
-5.76474
-6.85429
-7.50041
-7.90606
-8.22561
-8.45845
-8.63633
-8.78967
-8.92858
-9.0583
-9.1832
-9.30583
-9.42763
-9.5497
-9.67289
-9.79783
-9.92504
-10.055
-10.1881
-10.3248
-10.4653
-10.6103
-10.7599
-10.9146
-11.0746
-11.24
-11.4109
-11.5873
-11.7688
-11.955
-12.1459
-12.3424
-5.47595
-5.98994
-6.8572
-7.44353
-7.82846
-8.13845
-8.3761
-8.562
-8.72226
-8.8672
-9.0018
-9.13033
-9.25554
-9.37906
-9.50207
-9.62548
-9.75
-9.8762
-10.0045
-10.1355
-10.2693
-10.4065
-10.5474
-10.6923
-10.8414
-10.9949
-11.153
-11.3159
-11.4834
-11.6556
-11.8327
-12.0152
-12.2051
-5.84134
-6.20221
-6.88782
-7.40792
-7.76849
-8.0659
-8.30432
-8.49552
-8.66061
-8.80968
-8.94766
-9.07867
-9.20556
-9.33007
-9.45343
-9.57661
-9.70032
-9.82513
-9.9515
-10.0799
-10.2105
-10.3439
-10.4803
-10.6198
-10.7629
-10.9096
-11.06
-11.2144
-11.3728
-11.5353
-11.7024
-11.8748
-12.0547
-6.1364
-6.39519
-6.93654
-7.39135
-7.72534
-8.00686
-8.24075
-8.43316
-8.60052
-8.75214
-8.89258
-9.02559
-9.15389
-9.27923
-9.40283
-9.52564
-9.6484
-9.77165
-9.89588
-10.0215
-10.1488
-10.2781
-10.4096
-10.5437
-10.6805
-10.8201
-10.9626
-11.1082
-11.2569
-11.4091
-11.5652
-11.7258
-11.8927
-6.37661
-6.56649
-6.99476
-7.38801
-7.69394
-7.95792
-8.1844
-8.37577
-8.54399
-8.69707
-8.83911
-8.9734
-9.10251
-9.22815
-9.35151
-9.47354
-9.59495
-9.71629
-9.83801
-9.96049
-10.084
-10.2089
-10.3353
-10.4635
-10.5936
-10.7256
-10.8598
-10.9961
-11.1347
-11.2758
-11.4198
-11.5672
-11.7191
-6.57323
-6.71583
-7.05633
-7.39407
-7.67209
-7.91801
-8.13499
-8.32296
-8.49018
-8.64328
-8.78581
-8.92061
-9.04998
-9.17551
-9.29834
-9.41933
-9.53918
-9.65839
-9.77741
-9.89656
-10.0161
-10.1363
-10.2574
-10.3794
-10.5025
-10.6268
-10.7523
-10.879
-11.0071
-11.1365
-11.2677
-11.4007
-11.5362
-6.73454
-6.8441
-7.11688
-7.40593
-7.65696
-7.8848
-8.09099
-8.27394
-8.43895
-8.59114
-8.73344
-8.8682
-8.9974
-9.12244
-9.24438
-9.36402
-9.48199
-9.59879
-9.71479
-9.83031
-9.9456
-10.0609
-10.1762
-10.2918
-10.4076
-10.5238
-10.6403
-10.757
-10.8741
-10.9914
-11.1091
-11.2271
-11.3455
-6.86666
-6.95269
-7.17333
-7.42063
-7.64637
-7.85673
-8.05161
-8.2284
-8.39011
-8.54045
-8.68171
-8.81575
-8.94422
-9.06833
-9.18902
-9.307
-9.42283
-9.53696
-9.64973
-9.76141
-9.87221
-9.98229
-10.0918
-10.2007
-10.3091
-10.4169
-10.5241
-10.6307
-10.7365
-10.8415
-10.9454
-11.048
-11.1492
-6.97418
-7.04312
-7.22363
-7.43571
-7.63831
-7.83213
-8.0156
-8.18552
-8.34316
-8.49096
-8.63059
-8.76345
-8.89081
-9.01368
-9.13284
-9.2489
-9.36236
-9.47358
-9.58289
-9.6905
-9.79658
-9.90126
-10.0046
-10.1067
-10.2074
-10.3067
-10.4046
-10.5008
-10.5952
-10.6876
-10.7777
-10.8651
-10.9493
-7.06051
-7.11683
-7.26642
-7.44919
-7.63106
-7.80955
-7.98197
-8.14472
-8.29778
-8.44253
-8.58005
-8.71126
-8.83711
-8.9584
-9.07572
-9.1896
-9.30044
-9.40855
-9.51419
-9.61755
-9.71875
-9.81789
-9.91499
-10.0101
-10.103
-10.1938
-10.2822
-10.368
-10.4511
-10.531
-10.6075
-10.68
-10.7478
-7.12823
-7.1751
-7.3008
-7.45946
-7.62311
-7.78767
-7.94966
-8.10522
-8.25345
-8.39482
-8.52987
-8.65912
-8.78319
-8.90263
-9.01791
-9.1294
-9.23744
-9.34226
-9.44408
-9.54302
-9.6392
-9.73265
-9.82339
-9.91137
-9.9965
-10.0786
-10.1576
-10.2332
-10.305
-10.3728
-10.436
-10.4943
-10.5466
-7.17925
-7.21897
-7.32621
-7.46521
-7.61316
-7.76531
-7.91771
-8.06637
-8.20975
-8.34762
-8.48001
-8.60708
-8.72916
-8.84657
-8.95962
-9.06857
-9.17365
-9.27506
-9.37293
-9.46736
-9.55843
-9.64614
-9.73048
-9.81137
-9.88871
-9.96233
-10.032
-10.0975
-10.1585
-10.2145
-10.2651
-10.3098
-10.3477
-7.215
-7.24926
-7.34225
-7.46541
-7.60006
-7.74138
-7.8852
-8.02746
-8.16616
-8.30054
-8.4302
-8.55499
-8.67494
-8.79018
-8.90086
-9.00713
-9.10915
-9.20702
-9.30084
-9.39068
-9.47657
-9.5585
-9.63643
-9.71026
-9.77988
-9.84511
-9.90571
-9.96142
-10.0119
-10.0567
-10.0954
-10.1276
-10.1522
-7.23645
-7.26656
-7.34861
-7.45918
-7.58282
-7.71495
-7.85131
-7.98787
-8.12229
-8.25341
-8.38047
-8.50302
-8.62086
-8.73393
-8.84223
-8.94582
-9.04474
-9.13907
-9.22885
-9.3141
-9.39485
-9.47105
-9.54266
-9.60957
-9.67165
-9.72873
-9.78057
-9.82691
-9.86741
-9.90172
-9.92934
-9.9499
-9.96255
-7.24426
-7.27125
-7.34499
-7.44576
-7.56054
-7.68511
-7.81524
-7.94691
-8.07758
-8.20576
-8.3304
-8.4508
-8.56656
-8.67745
-8.78334
-8.88419
-8.97998
-9.07072
-9.15641
-9.23707
-9.31268
-9.3832
-9.44857
-9.5087
-9.56344
-9.61264
-9.65608
-9.69351
-9.72462
-9.7491
-9.76651
-9.77654
-9.77845
-7.23877
-7.26346
-7.33107
-7.42447
-7.53245
-7.65113
-7.77638
-7.90419
-8.03189
-8.15773
-8.2804
-8.39902
-8.51299
-8.62193
-8.72562
-8.8239
-8.9167
-9.00399
-9.08574
-9.16195
-9.23258
-9.2976
-9.35695
-9.41054
-9.45826
-9.49996
-9.53545
-9.56452
-9.5869
-9.60233
-9.61044
-9.611
-9.60333
-7.22001
-7.24309
-7.30642
-7.39461
-7.49771
-7.61214
-7.73385
-7.85885
-7.98435
-8.10839
-8.22949
-8.34658
-8.45893
-8.56604
-8.66757
-8.76332
-8.85316
-8.93703
-9.01487
-9.08668
-9.15242
-9.21206
-9.26556
-9.31284
-9.35382
-9.38839
-9.41638
-9.43763
-9.45194
-9.45909
-9.4588
-9.45092
-9.4349
-7.18775
-7.20984
-7.27054
-7.35555
-7.45574
-7.56774
-7.68755
-7.81116
-7.93568
-8.05896
-8.17937
-8.29568
-8.40703
-8.51282
-8.61265
-8.70624
-8.79345
-8.87419
-8.9484
-9.01607
-9.07718
-9.13173
-9.17968
-9.22101
-9.25566
-9.28355
-9.30457
-9.31862
-9.32554
-9.3252
-9.31738
-9.30202
-9.27865
-7.14142
-7.16308
-7.22265
-7.30635
-7.40543
-7.51663
-7.63594
-7.75931
-7.88371
-8.00691
-8.12712
-8.24302
-8.35364
-8.45832
-8.55659
-8.64816
-8.73285
-8.81057
-8.88126
-8.94493
-9.00158
-9.05122
-9.09387
-9.12953
-9.15819
-9.17981
-9.19435
-9.20175
-9.20194
-9.19485
-9.18035
-9.15847
-9.12886
-7.08015
-7.10198
-7.16203
-7.24654
-7.34679
-7.45951
-7.58057
-7.70578
-7.83197
-7.95673
-8.07816
-8.19483
-8.30572
-8.4101
-8.50748
-8.59758
-8.6802
-8.75528
-8.82281
-8.8828
-8.9353
-8.98037
-9.01806
-9.04843
-9.07152
-9.08735
-9.09593
-9.09728
-9.09138
-9.07824
-9.0578
-9.03015
-8.99503
-7.00258
-7.02509
-7.08708
-7.17416
-7.27723
-7.39292
-7.51698
-7.64505
-7.77383
-7.90083
-8.02404
-8.14197
-8.25354
-8.35798
-8.45481
-8.54372
-8.62455
-8.69726
-8.76186
-8.81841
-8.86702
-8.90779
-8.94082
-8.96623
-8.98411
-8.99456
-8.99765
-8.99347
-8.98207
-8.96354
-8.9379
-8.90536
-8.86573
-6.90698
-6.93108
-6.99732
-7.09013
-7.19958
-7.32196
-7.45262
-7.58684
-7.72108
-7.8527
-7.97964
-8.10036
-8.2138
-8.31922
-8.41618
-8.50444
-8.58389
-8.65455
-8.71651
-8.7699
-8.81487
-8.8516
-8.88026
-8.90103
-8.91407
-8.91953
-8.91758
-8.90834
-8.89194
-8.86854
-8.83823
-8.80122
-8.75742
-6.7906
-6.81663
-6.88836
-6.98813
-7.10483
-7.23458
-7.37254
-7.51364
-7.65417
-7.79134
-7.92296
-8.04744
-8.16367
-8.27092
-8.36879
-8.45708
-8.53574
-8.60488
-8.66464
-8.71526
-8.75695
-8.78999
-8.81462
-8.83109
-8.83965
-8.84052
-8.83392
-8.82009
-8.79921
-8.77151
-8.73718
-8.69652
-8.64954
-6.65072
-6.68104
-6.76358
-6.87718
-7.00833
-7.15228
-7.30341
-7.45611
-7.60649
-7.75177
-7.88986
-8.01927
-8.13902
-8.24855
-8.34756
-8.43599
-8.51392
-8.58156
-8.63916
-8.68705
-8.72554
-8.75498
-8.7757
-8.78803
-8.79228
-8.78877
-8.77777
-8.75958
-8.73445
-8.70267
-8.66445
-8.62014
-8.56975
-6.48095
-6.51408
-6.60629
-6.73198
-6.87582
-7.03338
-7.19842
-7.36446
-7.52708
-7.68321
-7.83054
-7.96748
-8.09309
-8.20688
-8.3087
-8.39862
-8.47689
-8.54386
-8.59996
-8.64564
-8.68136
-8.70758
-8.72475
-8.73329
-8.7336
-8.72608
-8.71108
-8.68898
-8.6601
-8.6248
-8.5834
-8.53631
-8.48368
-6.27929
-6.32507
-6.44384
-6.59908
-6.76993
-6.95138
-7.13685
-7.31976
-7.49612
-7.66331
-7.81936
-7.96299
-8.09354
-8.21072
-8.31458
-8.40534
-8.48342
-8.54931
-8.60356
-8.64674
-8.67943
-8.7022
-8.7156
-8.72013
-8.71629
-8.70455
-8.68533
-8.65906
-8.62613
-8.58694
-8.54183
-8.49123
-8.4353
-6.02449
-6.06935
-6.20159
-6.37671
-6.57167
-6.78089
-6.99444
-7.20331
-7.40264
-7.58941
-7.76147
-7.91771
-8.05778
-8.18179
-8.29017
-8.38354
-8.46266
-8.52833
-8.58135
-8.62254
-8.65265
-8.67242
-8.68251
-8.68355
-8.67613
-8.66078
-8.638
-8.60828
-8.57207
-8.52984
-8.48202
-8.42917
-8.37155
-5.73449
-5.82678
-6.02647
-6.25429
-6.48601
-6.72422
-6.961
-7.1884
-7.40307
-7.60269
-7.7854
-7.95025
-8.09703
-8.22593
-8.3375
-8.43249
-8.51183
-8.57649
-8.62748
-8.66577
-8.69232
-8.70801
-8.71365
-8.71
-8.69775
-8.67753
-8.64989
-8.61537
-8.57447
-8.52768
-8.47546
-8.41834
-8.35673
-5.30029
-5.36658
-5.59657
-5.88097
-6.17936
-6.48464
-6.78013
-7.05604
-7.30968
-7.53939
-7.74446
-7.92541
-8.08334
-8.21957
-8.33555
-8.43278
-8.51273
-8.5768
-8.62631
-8.6625
-8.68651
-8.69936
-8.702
-8.69525
-8.67988
-8.65654
-8.62583
-8.5883
-8.54443
-8.49477
-8.43979
-8.38023
-8.31665
-4.92536
-5.17616
-5.52702
-5.83769
-6.14709
-6.46975
-6.78233
-7.07607
-7.34922
-7.59818
-7.82064
-8.01625
-8.18562
-8.32991
-8.45072
-8.54988
-8.62927
-8.69076
-8.73611
-8.76695
-8.78478
-8.79091
-8.78655
-8.77271
-8.75031
-8.72009
-8.6827
-8.63868
-8.58844
-8.53241
-8.47082
-8.40447
-8.33344
-3.86348
-4.1269
-4.73157
-5.26874
-5.75892
-6.22085
-6.63017
-6.98948
-7.30635
-7.58357
-7.82419
-8.03164
-8.20886
-8.35849
-8.48295
-8.58449
-8.66524
-8.7272
-8.77224
-8.80211
-8.81841
-8.82259
-8.81596
-8.79965
-8.77465
-8.74177
-8.70165
-8.65476
-8.60132
-8.54153
-8.47478
-8.40226
-8.32007
-3.90772
-4.46491
-4.89891
-5.25258
-5.71568
-6.19556
-6.64213
-7.05817
-7.43511
-7.7646
-8.04649
-8.28339
-8.47858
-8.63602
-8.76002
-8.85477
-8.92416
-8.97171
-9.00053
-9.01332
-9.01241
-8.9998
-8.97718
-8.94597
-8.90736
-8.86231
-8.81153
-8.75544
-8.69402
-8.62665
-8.55119
-8.46538
-8.35811
1.04344
-2.64671
-3.96419
-4.62313
-5.40827
-6.06905
-6.59418
-7.04979
-7.44324
-7.7759
-8.05545
-8.28789
-8.47808
-8.63091
-8.751
-8.84254
-8.90934
-8.9548
-8.98192
-8.99331
-8.99124
-8.97766
-8.95423
-8.92238
-8.88332
-8.83805
-8.78753
-8.73231
-8.6734
-8.61035
-8.54564
-8.47487
-8.40786
-13.3893
-12.7543
-12.9491
-13.8669
-15.7993
-18.8652
-22.8211
-26.9942
-30.5118
-32.6396
-32.9124
-31.2072
-27.7019
-22.881
-17.5663
-12.6508
-8.66664
-5.69025
-3.56417
-2.10035
-1.13917
-0.598019
-0.459674
-0.747413
-1.51834
-2.74823
-4.43656
-6.63896
-9.52535
-13.3784
-18.5277
-25.1704
-33.0829
-41.5171
-49.5483
-56.6271
-62.4746
-65.4073
-63.6029
-56.7384
-47.442
-38.4548
-31.0538
-25.2936
-20.7708
-17.1046
-14.0488
-11.4614
-9.25899
-7.38625
-5.80187
-4.47202
-3.36741
-2.46159
-1.72991
-1.14915
-0.697436
-0.354318
-0.101044
0.0792752
0.201507
0.278447
0.320861
0.337624
0.335903
0.321403
0.298513
0.270347
0.238775
0.204138
0.164966
0.117562
0.0555676
-0.0295113
-0.149333
-0.325414
-0.610234
-1.14704
-2.27585
-4.60866
-8.83805
-15.181
-22.7579
-29.5389
-33.1551
-32.3259
-27.089
-19.3063
-11.5796
-5.87525
-2.61509
-1.09298
-0.457323
-0.19795
-0.0639349
-0.020899
0.0363403
-0.0173737
0.110212
-0.131683
-13.3244
-12.8957
-13.0313
-13.8945
-15.7722
-18.6829
-22.3089
-26.0608
-29.1399
-30.8276
-30.6826
-28.6833
-25.1579
-20.6884
-15.9833
-11.6609
-8.08007
-5.3114
-3.25789
-1.78824
-0.777081
-0.149456
0.104938
-0.0499898
-0.683144
-1.807
-3.44081
-5.65742
-8.63882
-12.6623
-18.0244
-24.8565
-32.8721
-41.3335
-49.4146
-56.6413
-62.6041
-65.4185
-63.4062
-56.3097
-46.8818
-37.9007
-30.5985
-24.9633
-20.5547
-16.9826
-14.0027
-11.4767
-9.32327
-7.48876
-5.93284
-4.62277
-3.53042
-2.63045
-1.89936
-1.31501
-0.856479
-0.504227
-0.240251
-0.0482881
0.0860246
0.175091
0.229374
0.257508
0.26646
0.261749
0.247577
0.226885
0.201342
0.171149
0.13477
0.0885331
0.026119
-0.0610827
-0.184637
-0.364936
-0.650155
-1.17146
-2.24421
-4.44051
-8.41447
-14.3814
-21.5227
-27.9321
-31.3723
-30.6446
-25.7464
-18.4146
-11.1146
-5.71277
-2.60546
-1.12939
-0.494395
-0.22505
-0.0860718
-0.0359449
0.0204428
-0.0201229
0.0948614
-0.113059
-13.1183
-12.9255
-13.193
-14.1575
-15.9505
-18.5892
-21.7922
-24.9668
-27.4149
-28.5267
-27.9853
-25.8791
-22.5965
-18.657
-14.5752
-10.7807
-7.5489
-4.96546
-2.98253
-1.51142
-0.456647
0.249918
0.613718
0.583617
0.0887252
-0.92419
-2.4986
-4.72579
-7.79694
-11.9772
-17.5214
-24.4953
-32.5624
-41.0169
-49.1356
-56.4791
-62.4657
-65.0991
-62.8401
-55.5583
-46.0872
-37.2007
-30.06
-24.5843
-20.3067
-16.8373
-13.9384
-11.4773
-9.37592
-7.58201
-6.05656
-4.76803
-3.68947
-2.79671
-2.06741
-1.48047
-1.01597
-0.655246
-0.381059
-0.177786
-0.0315829
0.0695376
0.135709
0.1753
0.195053
0.200277
0.194974
0.181909
0.162568
0.137019
0.103662
0.0588477
-0.003674
-0.0925712
-0.219328
-0.403375
-0.68897
-1.19518
-2.21121
-4.26659
-7.97392
-13.5453
-20.2269
-26.245
-29.5022
-28.8765
-24.3303
-17.4737
-10.627
-5.54651
-2.59935
-1.16986
-0.534189
-0.253612
-0.109
-0.0515746
0.00401737
-0.0230833
0.0790972
-0.0941926
-13.017
-13.0531
-13.3971
-14.3109
-15.916
-18.1831
-20.8231
-23.3405
-25.1564
-25.8002
-25.0867
-23.1442
-20.2889
-16.902
-13.3609
-10.0032
-7.06767
-4.65173
-2.74008
-1.27395
-0.183518
0.591771
1.05454
1.13934
0.775578
-0.126726
-1.63871
-3.86973
-7.01654
-11.3269
-17.01
-24.0709
-32.1396
-40.5586
-48.6933
-56.0945
-62.0053
-64.4041
-61.8781
-54.4708
-45.0551
-36.3557
-29.4385
-24.1551
-20.0249
-16.6668
-13.8547
-11.4627
-9.41649
-7.66571
-6.17283
-4.90762
-3.84442
-2.96028
-2.23397
-1.64548
-1.17587
-0.807359
-0.523468
-0.309229
-0.151338
-0.0382451
0.0398295
0.0909621
0.121649
0.136974
0.14073
0.135495
0.122572
0.1019
0.0718206
0.0287268
-0.0335366
-0.12367
-0.253083
-0.440229
-0.725516
-1.2159
-2.17363
-4.08382
-7.5152
-12.6759
-18.8809
-24.4959
-27.5677
-27.0463
-22.8641
-16.5024
-10.1295
-5.38282
-2.59902
-1.21506
-0.577041
-0.284019
-0.133077
-0.0679317
-0.0129274
-0.0262036
0.0630328
-0.0749315
-12.9121
-13.0921
-13.5009
-14.3547
-15.7176
-17.5354
-19.5816
-21.4729
-22.7746
-23.1515
-22.4641
-20.7838
-18.3346
-15.4064
-12.3042
-9.31081
-6.63436
-4.37353
-2.53418
-1.07992
0.0373301
0.869155
1.41681
1.60573
1.35964
0.563744
-0.883692
-3.10941
-6.31158
-10.7175
-16.4903
-23.5819
-31.6047
-39.9582
-48.071
-55.4518
-61.185
-63.2987
-60.4966
-53.0329
-43.7814
-35.3676
-28.7362
-23.6774
-19.7101
-16.4719
-13.752
-11.4332
-9.44522
-7.74002
-6.28172
-5.04161
-3.99532
-3.12117
-2.39906
-1.81006
-1.3362
-0.960584
-0.667501
-0.442646
-0.273269
-0.14828
-0.0582792
0.00449152
0.046257
0.0718571
0.0848584
0.0876522
0.0813642
0.0658128
0.0392864
-0.00178001
-0.0634137
-0.15429
-0.285743
-0.475277
-0.759557
-1.23343
-2.13163
-3.89397
-7.04412
-11.7857
-17.5049
-22.71
-25.594
-25.1774
-21.3671
-15.5154
-9.63185
-5.22707
-2.6072
-1.26678
-0.624498
-0.317538
-0.15917
-0.0855137
-0.0306277
-0.0296304
0.0466521
-0.0553913
-12.8185
-13.0859
-13.5254
-14.2854
-15.407
-16.8394
-18.4084
-19.8277
-20.7716
-20.9732
-20.3092
-18.8242
-16.6847
-14.1194
-11.3779
-8.69494
-6.24829
-4.13208
-2.36631
-0.93154
0.202796
1.07748
1.69282
1.97304
1.82829
1.12999
-0.252312
-2.46279
-5.69666
-10.158
-15.9664
-23.029
-30.9568
-39.2078
-47.2463
-54.5177
-59.9735
-61.7575
-58.6864
-51.2471
-42.2758
-34.2458
-27.9585
-23.1527
-19.3625
-16.2524
-13.6304
-11.3889
-9.46219
-7.80498
-6.38329
-5.17001
-4.14219
-3.2794
-2.56271
-1.97423
-1.497
-1.11496
-0.813205
-0.578083
-0.397419
-0.260607
-0.158651
-0.0841353
-0.031132
0.00493586
0.0273981
0.0384494
0.0390399
0.0288708
0.00618473
-0.0325325
-0.0931522
-0.184263
-0.317115
-0.508319
-0.79102
-1.24834
-2.08737
-3.7021
-6.57026
-10.8901
-16.12
-20.9123
-23.6083
-23.2968
-19.8632
-14.5312
-9.14594
-5.08506
-2.62611
-1.32607
-0.677382
-0.354919
-0.18782
-0.10464
-0.0492244
-0.0334413
0.0299891
-0.0356257
-12.7093
-13.0123
-13.4494
-14.1208
-15.0517
-16.1904
-17.3964
-18.4484
-19.0973
-19.1411
-18.4835
-17.1492
-15.2604
-12.9972
-10.5624
-8.14937
-5.90883
-3.92853
-2.23787
-0.830553
0.310583
1.21387
1.87822
2.23398
2.17418
1.56184
0.244383
-1.93918
-5.17766
-9.64996
-15.4356
-22.4082
-30.1913
-38.2964
-46.1954
-53.2614
-58.3468
-59.7656
-56.45
-49.1278
-40.5569
-33.0045
-27.1125
-22.5843
-18.9835
-16.0092
-13.4903
-11.3301
-9.46768
-7.86081
-6.47769
-5.29295
-4.28513
-3.43506
-2.72498
-2.13808
-1.65833
-1.27057
-0.960645
-0.715602
-0.523845
-0.375269
-0.261311
-0.174927
-0.110507
-0.0637597
-0.0316068
-0.0120573
-0.00433228
-0.00884019
-0.0273782
-0.0634041
-0.122609
-0.213428
-0.347001
-0.539114
-0.819646
-1.26065
-2.0421
-3.51215
-6.10196
-10.0034
-14.7468
-19.1285
-21.6387
-21.4319
-18.3764
-13.5684
-8.68316
-4.96195
-2.65769
-1.39398
-0.736732
-0.397182
-0.219828
-0.125776
-0.0689212
-0.0377464
0.0130557
-0.0156909
-12.5836
-12.8964
-13.3148
-13.9006
-14.6642
-15.5574
-16.4679
-17.2273
-17.6474
-17.5728
-16.9232
-15.7114
-14.0298
-12.0208
-9.84806
-7.6702
-5.615
-3.76303
-2.1492
-0.77736
0.359894
1.27785
1.97315
2.38598
2.39521
1.85657
0.603716
-1.53858
-4.75111
-9.18679
-14.8904
-21.7141
-29.3036
-37.2118
-44.8953
-51.6584
-56.2899
-57.3193
-53.805
-46.7052
-38.6553
-31.6633
-26.2079
-21.9759
-18.5748
-15.7431
-13.3326
-11.2573
-9.46204
-7.90777
-6.56512
-5.4106
-4.42426
-3.58826
-2.886
-2.3017
-1.8203
-1.4275
-1.10992
-0.855295
-0.652622
-0.492328
-0.366302
-0.267901
-0.191861
-0.134197
-0.0920947
-0.0637777
-0.0486381
-0.047189
-0.0612578
-0.0942375
-0.151619
-0.241611
-0.375203
-0.567436
-0.845209
-1.27036
-1.99681
-3.32761
-5.64722
-9.13984
-13.4065
-17.3854
-19.7137
-19.6113
-16.932
-12.646
-8.25475
-4.86234
-2.70331
-1.47116
-0.803217
-0.445015
-0.255721
-0.14925
-0.0898733
-0.0426424
-0.00413349
0.00434061
-12.4389
-12.7425
-13.1272
-13.6286
-14.2481
-14.9422
-15.6204
-16.1522
-16.393
-16.2232
-15.5797
-14.4697
-12.9627
-11.17
-9.22301
-7.25186
-5.36484
-3.63497
-2.09989
-0.771244
0.351216
1.27079
1.98048
2.43052
2.49363
2.0179
0.829985
-1.25423
-4.40762
-8.75822
-14.3225
-20.9421
-28.2888
-35.9403
-43.3256
-49.6915
-53.8039
-54.4293
-50.7863
-44.0266
-36.6113
-30.2461
-25.2556
-21.3325
-18.1388
-15.4557
-13.1581
-11.1713
-9.44578
-7.94623
-6.64587
-5.52318
-4.5598
-3.7392
-3.04593
-2.46526
-1.98307
-1.58591
-1.26118
-0.99728
-0.78385
-0.611853
-0.473666
-0.363069
-0.275174
-0.206326
-0.153989
-0.116613
-0.0937591
-0.0860387
-0.0952998
-0.124862
-0.179998
-0.268625
-0.401519
-0.593057
-0.867476
-1.27746
-1.95248
-3.15197
-5.21402
-8.3137
-12.12
-15.7087
-17.8616
-17.8628
-15.5547
-11.7823
-7.87061
-4.78965
-2.76377
-1.558
-0.8774
-0.499064
-0.296031
-0.175387
-0.112221
-0.0482141
-0.0215655
0.0243962
-12.2755
-12.559
-12.9031
-13.3258
-13.8215
-14.3513
-14.8419
-15.1923
-15.2926
-15.0511
-14.418
-13.3961
-12.0374
-10.4296
-8.67818
-6.88994
-5.15642
-3.5432
-2.08863
-0.810201
0.286749
1.196
1.90515
2.37287
2.47539
2.05432
0.932968
-1.07493
-4.13465
-8.35271
-13.7241
-20.088
-27.1402
-34.4674
-41.4686
-47.3515
-50.9088
-51.1267
-47.4493
-41.1564
-34.4733
-28.7793
-24.2677
-20.6595
-17.6784
-15.1488
-12.9682
-11.0729
-9.4195
-7.97664
-6.7203
-5.63101
-4.69202
-3.88812
-3.20501
-2.62899
-2.14685
-1.746
-1.41458
-1.14171
-0.917653
-0.733939
-0.583457
-0.460447
-0.360424
-0.280087
-0.217195
-0.170437
-0.139542
-0.125217
-0.129318
-0.155079
-0.207542
-0.294271
-0.425743
-0.615748
-0.886194
-1.28178
-1.90971
-2.98808
-4.80951
-7.5381
-10.9067
-14.123
-16.1092
-16.2139
-14.2686
-10.9942
-7.53876
-4.74599
-2.83928
-1.65462
-0.959576
-0.559664
-0.340968
-0.204337
-0.136025
-0.0545138
-0.0392231
0.0444033
-12.0959
-12.3526
-12.6519
-13.0008
-13.3896
-13.784
-14.125
-14.3338
-14.3262
-14.0316
-13.4108
-12.4649
-11.2335
-9.78527
-8.20495
-6.57984
-4.98733
-3.48592
-2.11343
-0.891361
0.17009
1.05797
1.75431
2.22182
2.34942
1.9771
0.92601
-0.987118
-3.91914
-7.95956
-13.0887
-19.1479
-25.8504
-32.7798
-39.3126
-44.6387
-47.631
-47.4681
-43.8731
-38.1739
-32.2947
-27.2898
-23.2566
-19.9631
-17.1972
-14.8248
-12.7644
-10.9631
-9.38393
-7.99956
-6.78886
-5.73447
-4.82125
-4.03533
-3.36354
-2.79316
-2.31192
-1.90801
-1.57036
-1.28879
-1.05419
-0.858697
-0.695741
-0.560052
-0.447579
-0.355404
-0.281598
-0.225101
-0.185815
-0.164532
-0.163106
-0.184671
-0.234026
-0.318332
-0.44767
-0.635286
-0.901098
-1.28304
-1.86871
-2.83792
-4.43947
-6.82446
-9.78411
-12.6507
-14.4817
-14.6898
-13.0954
-10.2955
-7.26449
-4.73199
-2.92959
-1.76101
-1.04988
-0.626959
-0.390579
-0.236139
-0.16127
-0.0615501
-0.0570755
0.0642974
-11.902
-12.1282
-12.382
-12.6637
-12.961
-13.2442
-13.4652
-13.5628
-13.4721
-13.1392
-12.5337
-11.6556
-10.5351
-9.22592
-7.79617
-6.31743
-4.85503
-3.46095
-2.17166
-1.01109
0.00620984
0.862697
1.53669
1.98944
2.12758
1.79862
0.82362
-0.976446
-3.74901
-7.57037
-12.4116
-18.1177
-24.4117
-30.8681
-36.8554
-41.5694
-44.0092
-43.5392
-40.1619
-35.1687
-30.129
-25.8033
-22.2343
-19.2496
-16.6993
-14.4863
-12.5484
-10.8432
-9.33993
-8.01565
-6.85209
-5.83401
-4.94792
-4.18123
-3.52189
-2.95815
-2.47861
-2.07227
-1.72882
-1.43876
-1.19366
-0.986271
-0.810599
-0.661903
-0.536599
-0.432184
-0.347058
-0.280428
-0.232368
-0.203753
-0.196422
-0.213388
-0.259197
-0.34057
-0.467089
-0.651453
-0.911923
-1.28086
-1.82918
-2.7024
-4.1079
-6.18183
-8.76701
-11.3111
-13.0019
-13.3131
-12.0533
-9.69604
-7.0498
-4.74694
-3.0342
-1.8771
-1.14829
-0.700796
-0.444638
-0.27062
-0.187823
-0.0692708
-0.0750694
0.0840246
-11.6972
-11.8913
-12.1006
-12.3213
-12.5405
-12.7321
-12.8574
-12.8683
-12.7152
-12.3566
-11.7689
-10.9518
-9.92844
-8.74135
-7.44513
-6.09852
-4.75671
-3.46567
-2.26014
-1.1652
-0.199074
0.617586
1.26142
1.68968
1.82473
1.53205
0.638973
-1.0295
-3.61324
-7.17838
-11.6893
-16.9934
-22.818
-28.7303
-34.1095
-38.182
-40.115
-39.4575
-36.4412
-32.2322
-28.0244
-24.3419
-21.2119
-18.5259
-16.1891
-14.1362
-12.3221
-10.7143
-9.28846
-8.02565
-6.91061
-5.9302
-5.07253
-4.3263
-3.68053
-3.1244
-2.64735
-2.23919
-1.8903
-1.59193
-1.33631
-1.11683
-0.92813
-0.766023
-0.627438
-0.510318
-0.41341
-0.33621
-0.278963
-0.242623
-0.228995
-0.240958
-0.282783
-0.360728
-0.483784
-0.664047
-0.918409
-1.27476
-1.79041
-2.58116
-3.81649
-5.616
-7.86623
-10.1196
-11.6883
-12.1016
-11.1544
-9.19959
-6.8933
-4.7892
-3.15271
-2.00293
-1.25466
-0.780815
-0.502734
-0.307451
-0.215444
-0.0775539
-0.0931174
0.103547
-11.4838
-11.6459
-11.8131
-11.9795
-12.1322
-12.2489
-12.2981
-12.2422
-12.0428
-11.6682
-11.1004
-10.3389
-9.40193
-8.32295
-7.14595
-5.91923
-4.68948
-3.49727
-2.37532
-1.34903
-0.439337
0.331143
0.938019
1.33643
1.4584
1.19257
0.383138
-1.13698
-3.50342
-6.77746
-10.9188
-15.7745
-21.0726
-26.383
-31.1154
-34.5519
-36.0635
-35.3712
-32.8461
-29.4466
-26.019
-22.9233
-20.1996
-17.799
-15.6713
-13.7776
-12.0877
-10.5781
-9.2306
-8.03043
-6.96514
-6.02367
-5.19568
-4.47112
-3.84002
-3.29247
-2.81869
-2.40925
-2.05527
-1.74869
-1.48243
-1.2506
-1.04845
-0.87244
-0.720036
-0.589671
-0.480456
-0.392198
-0.325317
-0.280835
-0.260513
-0.267067
-0.304477
-0.378521
-0.497521
-0.67288
-0.920319
-1.26423
-1.75126
-2.4726
-3.56425
-5.12863
-7.0876
-9.08638
-10.5532
-11.0657
-10.403
-8.80358
-6.79081
-4.85693
-3.28513
-2.13876
-1.36877
-0.866471
-0.564237
-0.346124
-0.243772
-0.0862005
-0.111091
0.122845
-11.265
-11.3961
-11.5243
-11.6428
-11.7394
-11.795
-11.784
-11.677
-11.4443
-11.0617
-10.5155
-9.80546
-8.94576
-7.96316
-6.8932
-5.77571
-4.65026
-3.55265
-2.51339
-1.55765
-0.708074
0.0117109
0.576301
0.94185
1.04606
0.797944
0.067347
-1.2956
-3.42001
-6.36818
-10.1014
-14.4676
-19.1957
-23.8715
-27.9496
-30.796
-32.0134
-31.4501
-29.5016
-26.8732
-24.1378
-21.5603
-19.2067
-17.0756
-15.1508
-13.4138
-11.8472
-10.436
-9.16751
-8.03091
-7.01648
-6.11514
-5.31806
-4.61636
-4.00103
-3.46301
-2.99326
-2.58307
-2.22427
-1.9095
-1.63242
-1.38783
-1.17172
-0.981189
-0.814325
-0.670088
-0.547964
-0.448109
-0.371108
-0.318048
-0.290626
-0.291373
-0.323952
-0.393641
-0.50805
-0.677772
-0.917452
-1.24879
-1.71035
-2.37393
-3.34736
-4.71648
-6.43039
-8.21387
-9.59961
-10.2056
-9.79322
-8.49938
-6.73675
-4.94898
-3.43222
-2.28511
-1.49042
-0.957122
-0.62842
-0.386023
-0.27235
-0.0949352
-0.128812
0.141918
-11.0432
-11.1451
-11.2378
-11.3144
-11.364
-11.3701
-11.3121
-11.1666
-10.911
-10.5268
-10.0034
-9.34115
-8.55126
-7.65521
-6.68189
-5.66426
-4.63597
-3.6286
-2.67037
-1.78583
-0.998441
-0.332075
0.186877
0.517464
0.602853
0.366748
-0.294294
-1.50395
-3.37569
-5.97103
-9.26
-13.1003
-17.2312
-21.2678
-24.7255
-27.1087
-28.1716
-27.8671
-26.5001
-24.544
-22.392
-20.2613
-18.241
-16.3622
-14.6321
-13.0479
-11.6029
-10.2896
-9.10045
-8.02813
-7.06552
-6.20545
-5.44047
-4.76282
-4.16437
-3.63682
-3.17184
-2.76138
-2.39796
-2.07493
-1.78671
-1.52885
-1.2981
-1.09231
-0.910219
-0.751357
-0.615655
-0.503598
-0.415953
-0.353858
-0.31893
-0.313485
-0.340839
-0.405756
-0.515096
-0.678548
-0.909664
-1.22803
-1.66625
-2.2816
-3.15944
-4.37107
-5.88593
-7.49441
-8.81819
-9.50821
-9.30972
-8.27472
-6.7262
-5.06574
-3.59561
-2.44281
-1.61946
-1.05199
-0.694507
-0.426457
-0.300638
-0.10341
-0.146055
0.16079
-10.8211
-10.8959
-10.9568
-10.9974
-11.0078
-10.9741
-10.8796
-10.706
-10.4357
-10.0547
-9.55514
-8.93755
-8.21113
-7.39323
-6.50749
-5.58136
-4.64354
-3.72191
-2.84242
-2.0287
-1.30438
-0.692647
-0.220521
0.0741616
0.140887
-0.085323
-0.686117
-1.75692
-3.38742
-5.62902
-8.45929
-11.7558
-15.2861
-18.7142
-21.6437
-23.7138
-24.7557
-24.7461
-23.8768
-22.4597
-20.7818
-19.0318
-17.3097
-15.6647
-14.1195
-12.6829
-11.3571
-10.1407
-9.03072
-8.02316
-7.11324
-6.2955
-5.56382
-4.91141
-4.33098
-3.81486
-3.35538
-2.94509
-2.57717
-2.2457
-1.94586
-1.67404
-1.42783
-1.20586
-1.00762
-0.833264
-0.683209
-0.558277
-0.459421
-0.387816
-0.344976
-0.332974
-0.354745
-0.414508
-0.518361
-0.675014
-0.896845
-1.20164
-1.61766
-2.19173
-2.99238
-4.07931
-5.43714
-6.90791
-8.18555
-8.94865
-8.93101
-8.11759
-6.7569
-5.20955
-3.77781
-2.61307
-1.75602
-1.1504
-0.761733
-0.466699
-0.328035
-0.111205
-0.162547
0.179519
-10.6005
-10.6507
-10.6836
-10.6935
-10.6716
-10.6062
-10.4839
-10.2903
-10.0118
-9.63787
-9.16272
-8.58712
-7.91871
-7.17173
-6.36565
-5.52346
-4.66976
-3.82915
-3.02538
-2.28095
-1.61905
-1.06187
-0.636244
-0.376995
-0.328347
-0.545307
-1.09307
-2.04324
-3.46118
-5.38242
-7.78528
-10.5692
-13.5437
-16.441
-18.9569
-20.8178
-21.8792
-22.1037
-21.6061
-20.5996
-19.3023
-17.8756
-16.4185
-14.9883
-13.6169
-12.3218
-11.1118
-9.99084
-8.95967
-8.01716
-7.16067
-6.38632
-5.68913
-5.06321
-4.50195
-3.99827
-3.54499
-3.13526
-2.76288
-2.42264
-2.11054
-1.82388
-1.56115
-1.32189
-1.10642
-0.915533
-0.750233
-0.611674
-0.500995
-0.419391
-0.368244
-0.349351
-0.365227
-0.419517
-0.517534
-0.666969
-0.878935
-1.16953
-1.56369
-2.10087
-2.83766
-3.82541
-5.06053
-6.42386
-7.66796
-8.4958
-8.63607
-8.02031
-6.83031
-5.38459
-3.98216
-2.79758
-1.90046
-1.25202
-0.829343
-0.50598
-0.353866
-0.117826
-0.177977
0.198197
-10.3839
-10.412
-10.4205
-10.4044
-10.3561
-10.266
-10.123
-9.91589
-9.63433
-9.27031
-8.81976
-8.28367
-7.66852
-6.9861
-6.25263
-5.48749
-4.71184
-3.94747
-3.21596
-2.53854
-1.9373
-1.43348
-1.05289
-0.827293
-0.795252
-1.00292
-1.50269
-2.34852
-3.58633
-5.23756
-7.27921
-9.62855
-12.1362
-14.5971
-16.7756
-18.4537
-19.5016
-19.8724
-19.6354
-18.9391
-17.9479
-16.795
-15.5717
-14.3369
-13.1277
-11.9673
-10.8693
-9.84175
-8.88866
-8.01133
-7.20894
-6.479
-5.81756
-5.21944
-4.67859
-4.18838
-3.74206
-3.33324
-2.95631
-2.6068
-2.28159
-1.97894
-1.69839
-1.44049
-1.20646
-0.997858
-0.816285
-0.663259
-0.540099
-0.447995
-0.388164
-0.362083
-0.371808
-0.420369
-0.512273
-0.654166
-0.855835
-1.13169
-1.50386
-2.00651
-2.68797
-3.59412
-4.73134
-6.01141
-7.23086
-8.12275
-8.41158
-7.98169
-6.95123
-5.5966
-4.21305
-2.99881
-2.05337
-1.35659
-0.896563
-0.543445
-0.377363
-0.122687
-0.19199
0.216981
-10.1724
-10.1809
-10.1684
-10.1306
-10.0611
-9.95184
-9.79395
-9.57865
-9.29801
-8.94608
-8.52008
-8.02122
-7.4551
-6.83161
-6.16439
-5.46989
-4.76641
-4.07321
-3.40986
-2.7962
-2.25289
-1.80023
-1.46234
-1.26789
-1.25037