/*--------------------------------*- C++ -*----------------------------------*\
  =========                 |
  \\      /  F ield         | OpenFOAM: The Open Source CFD Toolbox
   \\    /   O peration     | Website:  https://openfoam.org
    \\  /    A nd           | Version:  10
     \\/     M anipulation  |
\*---------------------------------------------------------------------------*/
FoamFile
{
    format      ascii;
    class       surfaceScalarField;
    location    "0.19";
    object      phi;
}
// * * * * * * * * * * * * * * * * * * * * * * * * * * * * * * * * * * * * * //

dimensions      [0 3 -1 0 0 0 0];

internalField   nonuniform List<scalar> 
13452
(
4.01979e-05
2.00706e-05
2.59513e-05
1.42465e-05
1.85627e-05
7.38859e-06
1.5208e-05
3.35477e-06
1.38137e-05
1.39422e-06
1.31286e-05
6.85146e-07
1.26999e-05
4.28729e-07
1.23757e-05
3.24188e-07
1.21065e-05
2.69155e-07
1.18807e-05
2.25864e-07
1.16942e-05
1.86463e-07
1.15436e-05
1.50585e-07
1.14251e-05
1.18471e-07
1.13351e-05
9.00323e-08
1.12703e-05
6.48073e-08
1.12281e-05
4.21997e-08
1.12066e-05
2.14625e-08
1.12049e-05
1.7083e-09
1.12209e-05
-1.60179e-08
1.12546e-05
-3.36709e-08
1.13058e-05
-5.12221e-08
1.13738e-05
-6.79944e-08
1.14591e-05
-8.5314e-08
1.15621e-05
-1.02984e-07
1.16835e-05
-1.21359e-07
1.1824e-05
-1.40514e-07
1.19851e-05
-1.6108e-07
1.2168e-05
-1.82888e-07
1.23779e-05
-2.09905e-07
1.26142e-05
-2.36346e-07
1.29085e-05
-2.94233e-07
1.32301e-05
-3.21641e-07
-6.45009e-07
1.38751e-05
6.59074e-05
1.61535e-05
6.1917e-05
1.8237e-05
5.56819e-05
1.36236e-05
4.98465e-05
9.19018e-06
4.53885e-05
5.85223e-06
4.22176e-05
3.85608e-06
3.99568e-05
2.68952e-06
3.83072e-05
1.97375e-06
3.70637e-05
1.51264e-06
3.60956e-05
1.19403e-06
3.53227e-05
9.59354e-07
3.46949e-05
7.78328e-07
3.41798e-05
6.33632e-07
3.37552e-05
5.14592e-07
3.34059e-05
4.14163e-07
3.31206e-05
3.27424e-07
3.28913e-05
2.50769e-07
3.27114e-05
1.81628e-07
3.25769e-05
1.18464e-07
3.24841e-05
5.91576e-08
3.24314e-05
1.48982e-09
3.24155e-05
-5.20813e-08
3.24357e-05
-1.05515e-07
3.2491e-05
-1.58308e-07
3.25811e-05
-2.1141e-07
3.27057e-05
-2.65163e-07
3.28652e-05
-3.20605e-07
3.30608e-05
-3.78411e-07
3.32937e-05
-4.42873e-07
3.35698e-05
-5.1238e-07
3.38901e-05
-6.14558e-07
3.43037e-05
-7.35211e-07
-9.95363e-07
3.4654e-05
6.91825e-05
1.07325e-05
7.25161e-05
1.49034e-05
7.30861e-05
1.30536e-05
7.1739e-05
1.05373e-05
6.95305e-05
8.06073e-06
6.71954e-05
6.19118e-06
6.50157e-05
4.8693e-06
6.30811e-05
3.90836e-06
6.14017e-05
3.19197e-06
5.99556e-05
2.64017e-06
5.87137e-05
2.20127e-06
5.76482e-05
1.84377e-06
5.67347e-05
1.54711e-06
5.59524e-05
1.29694e-06
5.52838e-05
1.08273e-06
5.47147e-05
8.96592e-07
5.4233e-05
7.32421e-07
5.38292e-05
5.85464e-07
5.34954e-05
4.52244e-07
5.32251e-05
3.29457e-07
5.30121e-05
2.14506e-07
5.28534e-05
1.06581e-07
5.27454e-05
2.49281e-09
5.26866e-05
-9.94578e-08
5.26749e-05
-1.99707e-07
5.27086e-05
-2.9886e-07
5.27864e-05
-3.98487e-07
5.29079e-05
-4.99922e-07
5.30717e-05
-6.066e-07
5.32789e-05
-7.19594e-07
5.35169e-05
-8.52554e-07
5.37845e-05
-1.00282e-06
-1.18601e-06
5.39752e-05
6.88469e-05
7.46862e-06
7.21648e-05
1.15855e-05
7.45446e-05
1.06738e-05
7.5964e-05
9.11791e-06
7.65575e-05
7.46722e-06
7.66431e-05
6.10556e-06
7.64289e-05
5.08351e-06
7.60402e-05
4.29708e-06
7.55572e-05
3.67494e-06
7.50284e-05
3.16893e-06
7.44843e-05
2.7454e-06
7.39448e-05
2.38325e-06
7.34237e-05
2.06822e-06
7.29306e-05
1.79011e-06
7.24714e-05
1.54189e-06
7.20499e-05
1.31811e-06
7.1668e-05
1.11429e-06
7.13267e-05
9.26748e-07
7.10264e-05
7.52557e-07
7.07669e-05
5.8901e-07
7.05475e-05
4.33834e-07
7.03683e-05
2.85757e-07
7.02282e-05
1.42677e-07
7.01252e-05
3.48525e-09
7.00598e-05
-1.34239e-07
7.00312e-05
-2.70306e-07
7.00394e-05
-4.06674e-07
7.0084e-05
-5.4455e-07
7.01636e-05
-6.86146e-07
7.02765e-05
-8.32532e-07
7.04116e-05
-9.87695e-07
7.05583e-05
-1.14952e-06
-1.29826e-06
7.06706e-05
6.95604e-05
5.36498e-06
7.18412e-05
9.3047e-06
7.35481e-05
8.9669e-06
7.48246e-05
7.84138e-06
7.57243e-05
6.56754e-06
7.63851e-05
5.44472e-06
7.6894e-05
4.57459e-06
7.72934e-05
3.89773e-06
7.76116e-05
3.35675e-06
7.78674e-05
2.91315e-06
7.80737e-05
2.53905e-06
7.8241e-05
2.21598e-06
7.8377e-05
1.93224e-06
7.84875e-05
1.67955e-06
7.85782e-05
1.45119e-06
7.86543e-05
1.24206e-06
7.87203e-05
1.04827e-06
7.87803e-05
8.66758e-07
7.88378e-05
6.95066e-07
7.88958e-05
5.31039e-07
7.89567e-05
3.72883e-07
7.90231e-05
2.19392e-07
7.90963e-05
6.94333e-08
7.91775e-05
-7.7657e-08
7.92666e-05
-2.23415e-07
7.93652e-05
-3.68842e-07
7.94739e-05
-5.1544e-07
7.95936e-05
-6.64245e-07
7.97239e-05
-8.16365e-07
7.98634e-05
-9.72086e-07
8.00063e-05
-1.13057e-06
8.0145e-05
-1.28824e-06
-1.42299e-06
8.02697e-05
7.08419e-05
3.90711e-06
7.26342e-05
7.51241e-06
7.3949e-05
7.65209e-06
7.48898e-05
6.90057e-06
7.55327e-05
5.92464e-06
7.59968e-05
4.98066e-06
7.6369e-05
4.20231e-06
7.669e-05
3.5768e-06
7.698e-05
3.06671e-06
7.72491e-05
2.64404e-06
7.75017e-05
2.28648e-06
7.77401e-05
1.97761e-06
7.79663e-05
1.70601e-06
7.81823e-05
1.46356e-06
7.83893e-05
1.24417e-06
7.85883e-05
1.04306e-06
7.87801e-05
8.56424e-07
7.89657e-05
6.81194e-07
7.91459e-05
5.14897e-07
7.93215e-05
3.55425e-07
7.94933e-05
2.01022e-07
7.96623e-05
5.0393e-08
7.98295e-05
-9.77757e-08
7.99968e-05
-2.44887e-07
8.01655e-05
-3.92133e-07
8.03368e-05
-5.40116e-07
8.05111e-05
-6.89766e-07
8.06887e-05
-8.41851e-07
8.08692e-05
-9.96865e-07
8.10517e-05
-1.15459e-06
8.1234e-05
-1.31287e-06
8.1414e-05
-1.46821e-06
-1.60532e-06
8.15963e-05
7.23906e-05
2.88288e-06
7.38481e-05
6.05484e-06
7.49847e-05
6.51555e-06
7.58151e-05
6.07019e-06
7.63886e-05
5.35106e-06
7.6789e-05
4.58026e-06
7.70925e-05
3.89883e-06
7.73411e-05
3.32818e-06
7.75583e-05
2.84959e-06
7.77573e-05
2.44504e-06
7.79452e-05
2.09853e-06
7.8126e-05
1.79685e-06
7.83018e-05
1.5302e-06
7.84741e-05
1.29127e-06
7.86438e-05
1.07443e-06
7.88117e-05
8.75169e-07
7.89783e-05
6.89864e-07
7.91439e-05
5.15548e-07
7.93091e-05
3.49767e-07
7.9474e-05
1.90444e-07
7.96393e-05
3.57539e-08
7.98055e-05
-1.1584e-07
7.99734e-05
-2.65674e-07
8.01435e-05
-4.14972e-07
8.03162e-05
-5.64827e-07
8.04921e-05
-7.16011e-07
8.06716e-05
-8.69291e-07
8.08551e-05
-1.02526e-06
8.10423e-05
-1.18415e-06
8.12333e-05
-1.34557e-06
8.1428e-05
-1.50755e-06
8.16273e-05
-1.66751e-06
-1.81641e-06
8.18384e-05
7.4127e-05
2.16113e-06
7.52997e-05
4.88217e-06
7.62899e-05
5.52531e-06
7.70539e-05
5.30624e-06
7.76145e-05
4.79046e-06
7.80211e-05
4.17367e-06
7.83313e-05
3.58858e-06
7.85827e-05
3.07684e-06
7.87976e-05
2.63465e-06
7.89902e-05
2.25245e-06
7.91688e-05
1.91995e-06
7.93383e-05
1.62732e-06
7.95019e-05
1.36658e-06
7.96617e-05
1.13149e-06
7.98191e-05
9.17011e-07
7.99752e-05
7.19054e-07
8.01309e-05
5.34237e-07
8.02867e-05
3.59747e-07
8.04432e-05
1.93221e-07
8.0601e-05
3.26207e-08
8.07606e-05
-1.23794e-07
8.09222e-05
-2.77499e-07
8.10864e-05
-4.29859e-07
8.12536e-05
-5.82115e-07
8.14241e-05
-7.35332e-07
8.15984e-05
-8.90325e-07
8.17769e-05
-1.04781e-06
8.196e-05
-1.20836e-06
8.2148e-05
-1.37219e-06
8.23416e-05
-1.5391e-06
8.25419e-05
-1.70786e-06
8.27516e-05
-1.87721e-06
-2.04261e-06
8.29778e-05
7.60185e-05
1.6451e-06
7.69602e-05
3.94047e-06
7.78175e-05
4.66805e-06
7.85104e-05
4.6133e-06
7.90454e-05
4.25542e-06
7.9451e-05
3.76806e-06
7.97693e-05
3.27029e-06
8.00316e-05
2.81461e-06
8.02573e-05
2.40887e-06
8.04595e-05
2.05033e-06
8.0646e-05
1.7334e-06
8.0822e-05
1.45129e-06
8.09909e-05
1.19774e-06
8.11548e-05
9.67532e-07
8.13155e-05
7.56312e-07
8.14742e-05
5.60391e-07
8.16318e-05
3.76664e-07
8.1789e-05
2.02502e-07
8.19466e-05
3.56591e-08
8.2105e-05
-1.25801e-07
8.22648e-05
-2.83557e-07
8.24264e-05
-4.39086e-07
8.25902e-05
-5.93727e-07
8.27568e-05
-7.48672e-07
8.29264e-05
-9.04965e-07
8.30996e-05
-1.06347e-06
8.32767e-05
-1.22495e-06
8.34584e-05
-1.39001e-06
8.36452e-05
-1.55902e-06
8.38382e-05
-1.73209e-06
8.40392e-05
-1.90884e-06
8.42512e-05
-2.08928e-06
-2.27168e-06
8.44803e-05
7.80347e-05
1.26995e-06
7.8791e-05
3.18416e-06
7.9531e-05
3.9281e-06
8.01572e-05
3.98705e-06
8.06633e-05
3.74935e-06
8.10629e-05
3.36851e-06
8.13847e-05
2.9485e-06
8.16537e-05
2.54553e-06
8.1887e-05
2.17557e-06
8.20962e-05
1.84119e-06
8.2289e-05
1.54061e-06
8.24705e-05
1.26975e-06
8.26442e-05
1.02405e-06
8.28124e-05
7.99325e-07
8.29768e-05
5.91894e-07
8.31387e-05
3.98511e-07
8.3299e-05
2.1636e-07
8.34585e-05
4.3004e-08
8.36178e-05
-1.23675e-07
8.37776e-05
-2.85525e-07
8.39382e-05
-4.44172e-07
8.41002e-05
-6.01059e-07
8.42639e-05
-7.57489e-07
8.44299e-05
-9.14636e-07
8.45985e-05
-1.07354e-06
8.47701e-05
-1.23511e-06
8.49453e-05
-1.40014e-06
8.51246e-05
-1.56932e-06
8.53088e-05
-1.74323e-06
8.54991e-05
-1.92235e-06
8.56972e-05
-2.10701e-06
8.59062e-05
-2.29823e-06
-2.49583e-06
8.61303e-05
8.01563e-05
9.91921e-07
8.07657e-05
2.57481e-06
8.1404e-05
3.28985e-06
8.19692e-05
3.42181e-06
8.24449e-05
3.27368e-06
8.28345e-05
2.97892e-06
8.31563e-05
2.62667e-06
8.34298e-05
2.27205e-06
8.36692e-05
1.93617e-06
8.38847e-05
1.62564e-06
8.40836e-05
1.34172e-06
8.42707e-05
1.08264e-06
8.44494e-05
8.4538e-07
8.46219e-05
6.26738e-07
8.47902e-05
4.23675e-07
8.49553e-05
2.33387e-07
8.51183e-05
5.33502e-08
8.528e-05
-1.18673e-07
8.5441e-05
-2.84661e-07
8.56018e-05
-4.46369e-07
8.5763e-05
-6.05362e-07
8.5925e-05
-7.6304e-07
8.60882e-05
-9.20674e-07
8.62529e-05
-1.07941e-06
8.64197e-05
-1.24029e-06
8.65888e-05
-1.40423e-06
8.67608e-05
-1.57211e-06
8.69361e-05
-1.7447e-06
8.71157e-05
-1.92277e-06
8.73005e-05
-2.10712e-06
8.7492e-05
-2.29859e-06
8.76926e-05
-2.49883e-06
-2.70835e-06
8.79052e-05
8.23709e-05
7.81507e-07
8.28643e-05
2.08136e-06
8.34144e-05
2.73973e-06
8.39236e-05
2.91266e-06
8.43686e-05
2.82868e-06
8.4746e-05
2.60148e-06
8.50661e-05
2.3066e-06
8.53429e-05
1.99528e-06
8.55878e-05
1.69125e-06
8.58095e-05
1.40393e-06
8.60144e-05
1.13681e-06
8.62071e-05
8.89981e-07
8.63907e-05
6.61736e-07
8.65677e-05
4.49785e-07
8.67396e-05
2.51702e-07
8.69079e-05
6.51107e-08
8.70735e-05
-1.12214e-07
8.72371e-05
-2.82302e-07
8.73994e-05
-4.46989e-07
8.7561e-05
-6.07932e-07
8.77223e-05
-7.66623e-07
8.78836e-05
-9.24412e-07
8.80455e-05
-1.08253e-06
8.82082e-05
-1.24209e-06
8.8372e-05
-1.40414e-06
8.85374e-05
-1.56961e-06
8.87047e-05
-1.7394e-06
8.88744e-05
-1.9144e-06
8.90471e-05
-2.0955e-06
8.92237e-05
-2.28369e-06
8.94052e-05
-2.48012e-06
8.95931e-05
-2.68672e-06
-2.90416e-06
8.97889e-05
8.46705e-05
6.18789e-07
8.50729e-05
1.67892e-06
8.55475e-05
2.26516e-06
8.60059e-05
2.45429e-06
8.64208e-05
2.4137e-06
8.67844e-05
2.23796e-06
8.71005e-05
1.99048e-06
8.73786e-05
1.71714e-06
8.76276e-05
1.44227e-06
8.78545e-05
1.177e-06
8.80649e-05
9.26412e-07
8.82629e-05
6.91994e-07
8.84515e-05
4.73168e-07
8.86328e-05
2.68432e-07
8.88086e-05
7.59214e-08
8.89801e-05
-1.06341e-07
8.91482e-05
-2.80294e-07
8.93136e-05
-4.47768e-07
8.94771e-05
-6.10455e-07
8.96391e-05
-7.69907e-07
8.98e-05
-9.27539e-07
8.99602e-05
-1.08464e-06
9.01201e-05
-1.2424e-06
9.02799e-05
-1.4019e-06
9.04399e-05
-1.56415e-06
9.06004e-05
-1.7301e-06
9.07616e-05
-1.90067e-06
9.0924e-05
-2.07677e-06
9.10879e-05
-2.25937e-06
9.12538e-05
-2.44956e-06
9.14222e-05
-2.64855e-06
9.15938e-05
-2.85831e-06
-3.07935e-06
9.1769e-05
8.70507e-05
4.90215e-07
8.73819e-05
1.34775e-06
8.77922e-05
1.85482e-06
8.82049e-05
2.04166e-06
8.8591e-05
2.0276e-06
8.89395e-05
1.88948e-06
8.925e-05
1.67997e-06
8.95281e-05
1.43906e-06
8.97801e-05
1.19027e-06
9.00115e-05
9.45546e-07
9.0227e-05
7.10944e-07
9.043e-05
4.88961e-07
9.06233e-05
2.79885e-07
9.08089e-05
8.28732e-08
9.09882e-05
-1.03454e-07
9.11626e-05
-2.80713e-07
9.13329e-05
-4.50581e-07
9.14998e-05
-6.14696e-07
9.1664e-05
-7.74608e-07
9.18258e-05
-9.31761e-07
9.19858e-05
-1.08749e-06
9.21441e-05
-1.24301e-06
9.23012e-05
-1.39945e-06
9.24572e-05
-1.55787e-06
9.26123e-05
-1.71923e-06
9.27666e-05
-1.88446e-06
9.29204e-05
-2.05446e-06
9.30738e-05
-2.23015e-06
9.32269e-05
-2.41247e-06
9.33798e-05
-2.6025e-06
9.35327e-05
-2.80139e-06
9.36853e-05
-3.01095e-06
-3.23135e-06
9.38373e-05
8.95093e-05
3.86479e-07
8.97847e-05
1.07237e-06
9.01409e-05
1.4986e-06
9.05128e-05
1.66969e-06
9.08718e-05
1.66863e-06
9.12049e-05
1.55638e-06
9.15086e-05
1.37625e-06
9.17853e-05
1.16235e-06
9.20392e-05
9.36441e-07
9.22742e-05
7.10535e-07
9.2494e-05
4.91161e-07
9.27015e-05
2.81448e-07
9.2899e-05
8.23204e-08
9.30885e-05
-1.06545e-07
9.32711e-05
-2.86122e-07
9.34481e-05
-4.57718e-07
9.36203e-05
-6.22773e-07
9.37884e-05
-7.82749e-07
9.39528e-05
-9.39059e-07
9.41141e-05
-1.09304e-06
9.42726e-05
-1.24593e-06
9.44284e-05
-1.39889e-06
9.4582e-05
-1.55298e-06
9.47333e-05
-1.70919e-06
9.48825e-05
-1.86844e-06
9.50296e-05
-2.03161e-06
9.51747e-05
-2.19956e-06
9.53177e-05
-2.37313e-06
9.54585e-05
-2.55322e-06
9.55968e-05
-2.74079e-06
9.57322e-05
-2.93682e-06
9.58641e-05
-3.14284e-06
-3.35865e-06
9.59914e-05
9.20452e-05
3.01094e-07
9.2277e-05
8.40654e-07
9.2588e-05
1.18761e-06
9.29241e-05
1.33352e-06
9.3258e-05
1.33472e-06
9.35759e-05
1.23852e-06
9.38721e-05
1.08009e-06
9.41464e-05
8.87991e-07
9.44011e-05
6.81702e-07
9.4639e-05
4.72716e-07
9.48625e-05
2.67625e-07
9.50741e-05
6.98763e-08
9.52756e-05
-1.19195e-07
9.54686e-05
-2.99532e-07
9.56543e-05
-4.71798e-07
9.58336e-05
-6.37046e-07
9.60073e-05
-7.96519e-07
9.61761e-05
-9.51519e-07
9.63404e-05
-1.10333e-06
9.65005e-05
-1.25319e-06
9.66568e-05
-1.40225e-06
9.68095e-05
-1.55158e-06
9.69588e-05
-1.70219e-06
9.71045e-05
-1.85498e-06
9.72469e-05
-2.01081e-06
9.73858e-05
-2.17049e-06
9.7521e-05
-2.3348e-06
9.76524e-05
-2.50448e-06
9.77795e-05
-2.68032e-06
9.79018e-05
-2.8631e-06
9.80185e-05
-3.05358e-06
9.81286e-05
-3.25296e-06
-3.46067e-06
9.82307e-05
9.46588e-05
2.2946e-07
9.48563e-05
6.43118e-07
9.51298e-05
9.14101e-07
9.54349e-05
1.02845e-06
9.57461e-05
1.02352e-06
9.60494e-05
9.35229e-07
9.63377e-05
7.91752e-07
9.66091e-05
6.16625e-07
9.6864e-05
4.26772e-07
9.7104e-05
2.32764e-07
9.73307e-05
4.09264e-08
9.75458e-05
-1.4525e-07
9.77508e-05
-3.24221e-07
9.7947e-05
-4.95693e-07
9.81353e-05
-6.60109e-07
9.83166e-05
-8.1833e-07
9.84915e-05
-9.71438e-07
9.86606e-05
-1.1206e-06
9.88242e-05
-1.26698e-06
9.89828e-05
-1.41173e-06
9.91364e-05
-1.5559e-06
9.92853e-05
-1.70049e-06
9.94295e-05
-1.84641e-06
9.95691e-05
-1.99451e-06
9.97038e-05
-2.14555e-06
9.98336e-05
-2.30025e-06
9.99581e-05
-2.45928e-06
0.000100077
-2.62328e-06
0.000100189
-2.79285e-06
0.000100295
-2.9686e-06
0.000100392
-3.15103e-06
0.00010048
-3.341e-06
-3.53761e-06
0.000100557
9.73507e-05
1.68241e-07
9.75215e-05
4.72336e-07
9.77642e-05
6.71381e-07
9.80426e-05
7.50053e-07
9.83337e-05
7.32499e-07
9.86234e-05
6.45448e-07
9.89041e-05
5.11111e-07
9.91721e-05
3.4856e-07
9.94268e-05
1.72121e-07
9.96684e-05
-8.83208e-09
9.98978e-05
-1.88492e-07
0.000100116
-3.63547e-07
0.000100324
-5.32425e-07
0.000100523
-6.94724e-07
0.000100714
-8.50756e-07
0.000100897
-1.00125e-06
0.000101073
-1.14718e-06
0.000101242
-1.2896e-06
0.000101404
-1.42957e-06
0.000101561
-1.56816e-06
0.000101711
-1.70634e-06
0.000101856
-1.84501e-06
0.000101994
-1.98502e-06
0.000102127
-2.1271e-06
0.000102253
-2.27195e-06
0.000102373
-2.42016e-06
0.000102486
-2.5723e-06
0.000102592
-2.72884e-06
0.000102689
-2.89024e-06
0.000102777
-3.05689e-06
0.000102855
-3.22904e-06
0.000102922
-3.40723e-06
-3.59033e-06
0.000102974
0.000100122
1.14965e-07
0.000100272
3.22435e-07
0.00010049
4.53669e-07
0.000100746
4.94131e-07
0.000101019
4.59003e-07
0.000101297
3.67762e-07
0.000101571
2.37611e-07
0.000101835
8.37232e-08
0.00010209
-8.20952e-08
0.000102333
-2.51818e-07
0.000102564
-4.20358e-07
0.000102786
-5.84748e-07
0.000102997
-7.43546e-07
0.000103198
-8.96362e-07
0.000103391
-1.04347e-06
0.000103575
-1.18553e-06
0.000103752
-1.32343e-06
0.00010392
-1.45816e-06
0.000104081
-1.59072e-06
0.000104235
-1.72206e-06
0.000104382
-1.8531e-06
0.000104522
-1.98466e-06
0.000104654
-2.11748e-06
0.000104779
-2.25223e-06
0.000104897
-2.38948e-06
0.000105006
-2.52973e-06
0.000105108
-2.67339e-06
0.000105199
-2.82082e-06
0.000105282
-2.97229e-06
0.000105353
-3.12799e-06
0.000105412
-3.28795e-06
0.000105457
-3.45242e-06
-3.6201e-06
0.000105487
0.000102975
6.77453e-08
0.000103109
1.88719e-07
0.000103307
2.55964e-07
0.000103544
2.56742e-07
0.000103803
2.00282e-07
0.00010407
1.00468e-07
0.000104337
-2.96584e-08
0.000104599
-1.78292e-07
0.000104853
-3.3599e-07
0.000105098
-4.96155e-07
0.000105332
-6.54548e-07
0.000105556
-8.08689e-07
0.00010577
-9.57398e-07
0.000105974
-1.1004e-06
0.000106168
-1.23802e-06
0.000106354
-1.3709e-06
0.00010653
-1.49991e-06
0.000106698
-1.62599e-06
0.000106857
-1.75007e-06
0.000107008
-1.87306e-06
0.000107151
-1.99579e-06
0.000107285
-2.11902e-06
0.000107411
-2.24339e-06
0.000107528
-2.36948e-06
0.000107637
-2.49777e-06
0.000107736
-2.62862e-06
0.000107825
-2.76235e-06
0.000107903
-2.89914e-06
0.00010797
-3.03911e-06
0.000108024
-3.18228e-06
0.000108065
-3.3285e-06
0.00010809
-3.47776e-06
-3.62868e-06
0.000108098
0.000105911
2.51001e-08
0.000106033
6.73565e-08
0.000106215
7.38923e-08
0.000106437
3.41459e-08
0.000106684
-4.65112e-08
0.000106943
-1.58431e-07
0.000107205
-2.91995e-07
0.000107465
-4.38293e-07
0.00010772
-5.90065e-07
0.000107966
-7.42155e-07
0.000108202
-8.91258e-07
0.000108429
-1.03549e-06
0.000108646
-1.17405e-06
0.000108852
-1.30686e-06
0.000109048
-1.43436e-06
0.000109235
-1.55728e-06
0.000109411
-1.67648e-06
0.000109578
-1.79288e-06
0.000109736
-1.9074e-06
0.000109883
-2.0209e-06
0.000110022
-2.13413e-06
0.000110151
-2.2478e-06
0.00011027
-2.36246e-06
0.000110379
-2.47861e-06
0.000110478
-2.59661e-06
0.000110566
-2.71674e-06
0.000110643
-2.83917e-06
0.000110707
-2.96397e-06
0.000110759
-3.09111e-06
0.000110798
-3.22046e-06
0.000110821
-3.3517e-06
0.000110828
-3.48466e-06
-3.61789e-06
0.000110817
0.000108933
-1.41792e-08
0.000109045
-4.48538e-08
0.000109215
-9.64329e-08
0.000109427
-1.77228e-07
0.000109664
-2.84296e-07
0.000109917
-4.11158e-07
0.000110176
-5.50997e-07
0.000110435
-6.97394e-07
0.00011069
-8.45076e-07
0.000110938
-9.90318e-07
0.000111178
-1.13081e-06
0.000111408
-1.26534e-06
0.000111627
-1.39358e-06
0.000111836
-1.51574e-06
0.000112034
-1.63246e-06
0.000112222
-1.74457e-06
0.000112398
-1.85299e-06
0.000112564
-1.95867e-06
0.000112719
-2.06252e-06
0.000112863
-2.16536e-06
0.000112997
-2.26791e-06
0.00011312
-2.3708e-06
0.000113232
-2.47454e-06
0.000113333
-2.57951e-06
0.000113423
-2.68599e-06
0.0001135
-2.79418e-06
0.000113565
-2.90411e-06
0.000113617
-3.01576e-06
0.000113655
-3.12897e-06
0.000113678
-3.24349e-06
0.000113685
-3.35888e-06
0.000113675
-3.47486e-06
-3.58999e-06
0.000113647
0.000112041
-5.11211e-08
0.000112147
-1.50695e-07
0.000112309
-2.58581e-07
0.000112513
-3.80903e-07
0.000112745
-5.1619e-07
0.000112994
-6.6032e-07
0.000113252
-8.0877e-07
0.000113512
-9.57267e-07
0.000113769
-1.10236e-06
0.00011402
-1.24171e-06
0.000114264
-1.37405e-06
0.000114497
-1.49893e-06
0.00011472
-1.61653e-06
0.000114932
-1.72747e-06
0.000115132
-1.83262e-06
0.000115321
-1.93298e-06
0.000115497
-2.02958e-06
0.000115662
-2.12343e-06
0.000115815
-2.21544e-06
0.000115956
-2.30643e-06
0.000116085
-2.39709e-06
0.000116202
-2.488e-06
0.000116307
-2.5796e-06
0.0001164
-2.67221e-06
0.00011648
-2.76604e-06
0.000116547
-2.86117e-06
0.000116601
-2.95756e-06
0.00011664
-3.05509e-06
0.000116664
-3.1535e-06
0.000116673
-3.25244e-06
0.000116666
-3.35142e-06
0.000116641
-3.45004e-06
-3.54689e-06
0.000116598
0.00011524
-8.66292e-08
0.000115342
-2.52673e-07
0.000115499
-4.15907e-07
0.000115699
-5.80358e-07
0.000115928
-7.45402e-07
0.000116176
-9.08684e-07
0.000116435
-1.06758e-06
0.000116698
-1.21972e-06
0.000116959
-1.36332e-06
0.000117214
-1.49742e-06
0.000117462
-1.62182e-06
0.0001177
-1.73687e-06
0.000117927
-1.84337e-06
0.000118142
-1.94238e-06
0.000118344
-2.03507e-06
0.000118534
-2.12267e-06
0.000118711
-2.20635e-06
0.000118874
-2.2872e-06
0.000119025
-2.36618e-06
0.000119163
-2.44412e-06
0.000119287
-2.52171e-06
0.000119399
-2.59946e-06
0.000119497
-2.67779e-06
0.000119582
-2.75695e-06
0.000119653
-2.83708e-06
0.00011971
-2.91818e-06
0.000119752
-3.00016e-06
0.00011978
-3.08279e-06
0.000119792
-3.16576e-06
0.000119789
-3.24867e-06
0.000119768
-3.33097e-06
0.00011973
-3.4122e-06
-3.49106e-06
0.000119675
0.000118531
-1.21577e-07
0.000118631
-3.53225e-07
0.000118787
-5.71816e-07
0.000118986
-7.7936e-07
0.000119217
-9.75679e-07
0.000119468
-1.15977e-06
0.000119731
-1.33062e-06
0.000119999
-1.48756e-06
0.000120266
-1.63041e-06
0.000120528
-1.75956e-06
0.000120782
-1.8759e-06
0.000121026
-1.98067e-06
0.000121258
-2.07533e-06
0.000121477
-2.16145e-06
0.000121682
-2.2406e-06
0.000121874
-2.31424e-06
0.000122051
-2.38375e-06
0.000122214
-2.45033e-06
0.000122363
-2.51501e-06
0.000122498
-2.57865e-06
0.000122618
-2.64193e-06
0.000122724
-2.70536e-06
0.000122815
-2.76931e-06
0.000122892
-2.83398e-06
0.000122955
-2.89946e-06
0.000123002
-2.9657e-06
0.000123035
-3.03252e-06
0.000123051
-3.09967e-06
0.000123052
-3.16677e-06
0.000123037
-3.23338e-06
0.000123005
-3.29892e-06
0.000122956
-3.36292e-06
-3.42413e-06
0.000122889
0.000121917
-1.56819e-07
0.000122018
-4.54748e-07
0.000122176
-7.29692e-07
0.000122378
-9.81667e-07
0.000122613
-1.21072e-06
0.00012287
-1.41697e-06
0.000123141
-1.60085e-06
0.000123416
-1.76331e-06
0.000123692
-1.90572e-06
0.000123962
-2.02984e-06
0.000124224
-2.1377e-06
0.000124475
-2.23148e-06
0.000124713
-2.31337e-06
0.000124937
-2.38551e-06
0.000125146
-2.44987e-06
0.00012534
-2.50827e-06
0.000125519
-2.56228e-06
0.000125681
-2.61325e-06
0.000125829
-2.66231e-06
0.000125961
-2.71038e-06
0.000126077
-2.75814e-06
0.000126177
-2.80611e-06
0.000126263
-2.85462e-06
0.000126333
-2.90385e-06
0.000126387
-2.95383e-06
0.000126426
-3.00448e-06
0.000126449
-3.05557e-06
0.000126456
-3.10682e-06
0.000126447
-3.15781e-06
0.000126422
-3.20808e-06
0.00012638
-3.25706e-06
0.000126321
-3.30428e-06
-3.3486e-06
0.000126246
0.0001254
-1.93349e-07
0.000125505
-5.60045e-07
0.000125669
-8.93681e-07
0.00012588
-1.19222e-06
0.000126125
-1.45582e-06
0.000126394
-1.68558e-06
0.000126676
-1.88333e-06
0.000126964
-2.05159e-06
0.000127252
-2.19335e-06
0.000127534
-2.3118e-06
0.000127806
-2.4102e-06
0.000128067
-2.49175e-06
0.000128313
-2.55945e-06
0.000128543
-2.61607e-06
0.000128758
-2.66408e-06
0.000128955
-2.70564e-06
0.000129135
-2.74258e-06
0.000129298
-2.77644e-06
0.000129445
-2.80845e-06
0.000129574
-2.83959e-06
0.000129686
-2.87059e-06
0.000129782
-2.90195e-06
0.000129861
-2.934e-06
0.000129924
-2.96689e-06
0.000129971
-3.00061e-06
0.000130002
-3.03506e-06
0.000130016
-3.06997e-06
0.000130014
-3.10503e-06
0.000129996
-3.1398e-06
0.000129962
-3.17382e-06
0.000129912
-3.20652e-06
0.000129845
-3.23741e-06
-3.26543e-06
0.000129762
0.000128984
-2.32119e-07
0.000129096
-6.71854e-07
0.00012927
-1.06763e-06
0.000129493
-1.41528e-06
0.000129752
-1.71519e-06
0.000130036
-1.96954e-06
0.000130334
-2.18162e-06
0.000130638
-2.35562e-06
0.000130941
-2.4962e-06
0.000131237
-2.60807e-06
0.000131523
-2.69578e-06
0.000131795
-2.76362e-06
0.000132051
-2.81551e-06
0.00013229
-2.85489e-06
0.00013251
-2.88478e-06
0.000132713
-2.90774e-06
0.000132896
-2.9259e-06
0.00013306
-2.941e-06
0.000133206
-2.95441e-06
0.000133334
-2.96719e-06
0.000133444
-2.98011e-06
0.000133535
-2.99369e-06
0.00013361
-3.00826e-06
0.000133667
-3.02393e-06
0.000133707
-3.0407e-06
0.00013373
-3.0584e-06
0.000133737
-3.07678e-06
0.000133727
-3.09549e-06
0.000133702
-3.11409e-06
0.00013366
-3.13212e-06
0.000133602
-3.14903e-06
0.000133529
-3.16438e-06
-3.1772e-06
0.000133441
0.000132672
-2.74809e-07
0.000132795
-7.94765e-07
0.000132985
-1.25843e-06
0.000133229
-1.65922e-06
0.000133512
-1.99789e-06
0.00013382
-2.27785e-06
0.000134143
-2.50408e-06
0.00013447
-2.68275e-06
0.000134794
-2.82047e-06
0.00013511
-2.92366e-06
0.000135412
-2.99838e-06
0.000135699
-3.05012e-06
0.000135967
-3.08377e-06
0.000136216
-3.10356e-06
0.000136444
-3.11308e-06
0.000136652
-3.11531e-06
0.000136839
-3.11271e-06
0.000137005
-3.10722e-06
0.000137151
-3.10037e-06
0.000137277
-3.09329e-06
0.000137384
-3.0868e-06
0.000137471
-3.08145e-06
0.000137541
-3.07755e-06
0.000137592
-3.07521e-06
0.000137626
-3.07438e-06
0.000137642
-3.0749e-06
0.000137642
-3.07648e-06
0.000137625
-3.07876e-06
0.000137592
-3.0813e-06
0.000137544
-3.08362e-06
0.00013748
-3.08518e-06
0.000137401
-3.08554e-06
-3.08378e-06
0.000137308
0.000136466
-3.22269e-07
0.000136603
-9.31689e-07
0.000136814
-1.46989e-06
0.000137083
-1.92804e-06
0.000137393
-2.30796e-06
0.00013773
-2.61474e-06
0.000138081
-2.85524e-06
0.000138436
-3.0378e-06
0.000138787
-3.17114e-06
0.000139127
-3.26361e-06
0.000139451
-3.32288e-06
0.000139757
-3.35584e-06
0.000140042
-3.36847e-06
0.000140304
-3.36587e-06
0.000140543
-3.3523e-06
0.000140759
-3.33123e-06
0.000140952
-3.30547e-06
0.000141122
-3.27721e-06
0.00014127
-3.24812e-06
0.000141396
-3.21944e-06
0.000141501
-3.19202e-06
0.000141586
-3.16644e-06
0.000141651
-3.14299e-06
0.000141698
-3.12176e-06
0.000141726
-3.1027e-06
0.000141737
-3.0856e-06
0.000141731
-3.07016e-06
0.000141708
-3.056e-06
0.000141669
-3.04268e-06
0.000141615
-3.02973e-06
0.000141547
-3.01664e-06
0.000141464
-3.00299e-06
-2.98793e-06
0.000141368
0.000140373
-3.79108e-07
0.000140535
-1.09375e-06
0.000140783
-1.71774e-06
0.000141094
-2.23945e-06
0.000141449
-2.6628e-06
0.00014183
-2.99558e-06
0.000142222
-3.2476e-06
0.000142614
-3.4303e-06
0.000142998
-3.55511e-06
0.000143367
-3.63261e-06
0.000143717
-3.67232e-06
0.000144044
-3.6826e-06
0.000144346
-3.67058e-06
0.000144622
-3.64224e-06
0.000144872
-3.60252e-06
0.000145096
-3.55538e-06
0.000145295
-3.50396e-06
0.000145468
-3.45069e-06
0.000145618
-3.39739e-06
0.000145744
-3.34539e-06
0.000145847
-3.29557e-06
0.000145929
-3.24851e-06
0.000145991
-3.20449e-06
0.000146033
-3.16359e-06
0.000146056
-3.1257e-06
0.000146061
-3.0906e-06
0.000146048
-3.05795e-06
0.00014602
-3.02735e-06
0.000145975
-2.99836e-06
0.000145916
-2.97047e-06
0.000145843
-2.94317e-06
0.000145756
-2.916e-06
-2.88815e-06
0.000145656
0.000144389
-4.43244e-07
0.000144575
-1.28001e-06
0.000144858
-2.00112e-06
0.000145213
-2.59405e-06
0.000145616
-3.06608e-06
0.000146048
-3.42754e-06
0.000146492
-3.6912e-06
0.000146934
-3.8721e-06
0.000147363
-3.98492e-06
0.000147774
-4.04301e-06
0.00014816
-4.0582e-06
0.000148518
-4.04068e-06
0.000148846
-3.999e-06
0.000149144
-3.94021e-06
0.000149412
-3.86999e-06
0.000149649
-3.79287e-06
0.000149857
-3.71233e-06
0.000150038
-3.63104e-06
0.000150191
-3.55094e-06
0.000150319
-3.47341e-06
0.000150423
-3.39936e-06
0.000150504
-3.32932e-06
0.000150563
-3.26353e-06
0.000150602
-3.20203e-06
0.00015062
-3.14465e-06
0.000150621
-3.09112e-06
0.000150604
-3.04107e-06
0.000150571
-2.99407e-06
0.000150522
-2.94965e-06
0.000150459
-2.90732e-06
0.000150382
-2.86657e-06
0.000150293
-2.82697e-06
-2.78772e-06
0.000150193
0.000148539
-5.33905e-07
0.000148785
-1.52684e-06
0.000149147
-2.36231e-06
0.000149582
-3.02978e-06
0.000150063
-3.5465e-06
0.000150564
-3.92924e-06
0.00015107
-4.19633e-06
0.000151565
-4.36762e-06
0.000152042
-4.46139e-06
0.000152492
-4.49371e-06
0.000152913
-4.47862e-06
0.0001533
-4.42806e-06
0.000153653
-4.35192e-06
0.000153971
-4.25827e-06
0.000154255
-4.15352e-06
0.000154504
-4.04272e-06
0.000154722
-3.92974e-06
0.000154908
-3.81745e-06
0.000155065
-3.70791e-06
0.000155194
-3.60257e-06
0.000155297
-3.50231e-06
0.000155376
-3.40763e-06
0.000155431
-3.31872e-06
0.000155464
-3.23553e-06
0.000155478
-3.15783e-06
0.000155472
-3.08528e-06
0.000155448
-3.01745e-06
0.000155408
-2.95386e-06
0.000155352
-2.89401e-06
0.000155282
-2.83738e-06
0.000155199
-2.7834e-06
0.000155104
-2.73161e-06
-2.68116e-06
0.000154997
0.000152782
-6.26862e-07
0.000153064
-1.80917e-06
0.000153486
-2.78379e-06
0.000154003
-3.54701e-06
0.000154579
-4.12261e-06
0.000155181
-4.53131e-06
0.000155784
-4.79887e-06
0.000156369
-4.95289e-06
0.000156925
-5.0173e-06
0.000157444
-5.01243e-06
0.000157921
-4.95564e-06
0.000158354
-4.86126e-06
0.000158743
-4.74086e-06
0.000159088
-4.60366e-06
0.000159392
-4.45686e-06
0.000159655
-4.30598e-06
0.00015988
-4.15516e-06
0.00016007
-4.00738e-06
0.000160227
-3.86475e-06
0.000160353
-3.72861e-06
0.000160451
-3.59978e-06
0.000160522
-3.47863e-06
0.000160568
-3.36521e-06
0.000160592
-3.25932e-06
0.000160595
-3.16062e-06
0.000160578
-3.06865e-06
0.000160544
-2.98291e-06
0.000160493
-2.90285e-06
0.000160426
-2.82792e-06
0.000160347
-2.75762e-06
0.000160255
-2.69138e-06
0.000160152
-2.62878e-06
-2.56892e-06
0.00016004
0.000157243
-8.18296e-07
0.000157685
-2.25106e-06
0.000158263
-3.36233e-06
0.000158912
-4.19583e-06
0.000159596
-4.80638e-06
0.000160286
-5.22188e-06
0.000160963
-5.47542e-06
0.000161611
-5.60068e-06
0.000162219
-5.62573e-06
0.000162781
-5.57456e-06
0.000163293
-5.46767e-06
0.000163754
-5.32179e-06
0.000164163
-5.15027e-06
0.000164523
-4.96359e-06
0.000164836
-4.76978e-06
0.000165105
-4.57482e-06
0.000165333
-4.38306e-06
0.000165523
-4.19754e-06
0.000165679
-4.02026e-06
0.000165802
-3.85244e-06
0.000165897
-3.69466e-06
0.000165966
-3.54708e-06
0.00016601
-3.40951e-06
0.000166032
-3.28156e-06
0.000166034
-3.16268e-06
0.000166018
-3.05224e-06
0.000165985
-2.94959e-06
0.000165936
-2.85407e-06
0.000165873
-2.7651e-06
0.000165798
-2.68211e-06
0.000165711
-2.60461e-06
0.000165614
-2.53216e-06
-2.46386e-06
0.000165509
0.000161689
-9.68872e-07
0.000162203
-2.76467e-06
0.000162928
-4.08772e-06
0.000163772
-5.04023e-06
0.00016466
-5.69374e-06
0.000165534
-6.09641e-06
0.000166368
-6.30867e-06
0.000167147
-6.38028e-06
0.000167868
-6.347e-06
0.000168531
-6.23742e-06
0.000169138
-6.07437e-06
0.000169692
-5.87545e-06
0.000170196
-5.65419e-06
0.000170653
-5.42095e-06
0.000171067
-5.18351e-06
0.000171439
-4.94763e-06
0.000171774
-4.71746e-06
0.000172072
-4.49588e-06
0.000172337
-4.28479e-06
0.00017257
-4.08528e-06
0.000172773
-3.89783e-06
0.000172948
-3.72249e-06
0.000173098
-3.55897e-06
0.000173223
-3.40674e-06
0.000173325
-3.26515e-06
0.000173406
-3.13346e-06
0.000173468
-3.01094e-06
0.000173511
-2.89688e-06
0.000173536
-2.79073e-06
0.000173546
-2.692e-06
0.000173542
-2.60056e-06
0.000173526
-2.51608e-06
-2.43884e-06
0.000173501
0.000166686
-1.50148e-06
0.000167534
-3.61261e-06
0.000168462
-5.01533e-06
0.000169462
-6.04068e-06
0.000170538
-6.76977e-06
0.000171671
-7.22896e-06
0.000172841
-7.4792e-06
0.000174028
-7.5665e-06
0.000175205