# y+ ()       
# Time        	patch         	min           	max           	average       
500           	lowerWall	4.665653e+00	7.989321e+01	4.300592e+01
500           	upperWall	3.060454e+01	4.712986e+01	4.145143e+01
