/*--------------------------------*- C++ -*----------------------------------*\
  =========                 |
  \\      /  F ield         | OpenFOAM: The Open Source CFD Toolbox
   \\    /   O peration     | Website:  https://openfoam.org
    \\  /    A nd           | Version:  10
     \\/     M anipulation  |
\*---------------------------------------------------------------------------*/
FoamFile
{
    format      ascii;
    class       volScalarField;
    location    "1400";
    object      k;
}
// * * * * * * * * * * * * * * * * * * * * * * * * * * * * * * * * * * * * * //

dimensions      [0 2 -2 0 0 0 0];

internalField   nonuniform List<scalar> 
6820
(
0.318932
0.614648
0.847397
0.983378
1.04836
1.06927
1.06475
1.0465
1.0217
0.994573
0.96746
0.941557
0.917415
0.895217
0.874953
0.856515
0.839752
0.824504
0.810611
0.797928
0.786321
0.775672
0.765878
0.756845
0.748494
0.740752
0.733556
0.726851
0.720568
0.714747
0.708815
0.705501
0.689525
0.838908
1.45739
1.5306
1.40689
1.25037
1.11087
0.996111
0.903238
0.827887
0.76631
0.715544
0.673419
0.638187
0.608546
0.583483
0.562195
0.54404
0.528503
0.515163
0.50368
0.493771
0.485203
0.477784
0.47135
0.465766
0.46092
0.456713
0.453069
0.449916
0.447228
0.444905
0.443181
0.441428
0.379893
0.662258
0.793337
0.827974
0.818185
0.790402
0.756381
0.72117
0.686891
0.654427
0.624111
0.596043
0.570195
0.546474
0.524757
0.504903
0.48677
0.470214
0.455101
0.441303
0.428703
0.417192
0.406671
0.397051
0.388251
0.380196
0.37282
0.366064
0.359873
0.354203
0.349005
0.344262
0.339908
0.246132
0.3393
0.411878
0.458885
0.485704
0.49888
0.503287
0.502158
0.497535
0.490704
0.482486
0.473435
0.46393
0.454239
0.44455
0.434992
0.425659
0.41661
0.407888
0.399514
0.391503
0.383859
0.376578
0.369655
0.363079
0.356841
0.350925
0.34532
0.340011
0.334984
0.330224
0.325724
0.321456
0.216724
0.25341
0.285799
0.312244
0.332455
0.347125
0.357301
0.364011
0.368096
0.370197
0.370789
0.37023
0.368792
0.366686
0.364075
0.361089
0.357829
0.354377
0.350797
0.347142
0.343452
0.33976
0.33609
0.332465
0.328898
0.325402
0.321987
0.318658
0.315421
0.312279
0.309234
0.306288
0.30344
0.2067
0.22375
0.239981
0.254416
0.266684
0.276738
0.28477
0.291069
0.295923
0.299585
0.302262
0.304127
0.305322
0.305962
0.306143
0.305944
0.305432
0.304663
0.303682
0.30253
0.30124
0.299841
0.298355
0.296804
0.295204
0.293571
0.291915
0.290249
0.28858
0.286917
0.285265
0.283631
0.282019
0.202776
0.211442
0.220463
0.228911
0.236465
0.243012
0.248579
0.253258
0.257158
0.260378
0.263012
0.265139
0.26683
0.268145
0.269136
0.269846
0.270314
0.270573
0.270652
0.270576
0.270366
0.270042
0.26962
0.269115
0.26854
0.267905
0.267222
0.266498
0.265741
0.264958
0.264155
0.263338
0.262512
0.201168
0.205683
0.210952
0.216189
0.221064
0.22544
0.229296
0.232659
0.235575
0.238089
0.240245
0.242083
0.243642
0.244952
0.246043
0.246939
0.247664
0.248237
0.248675
0.248995
0.249208
0.249329
0.249367
0.249332
0.249234
0.24908
0.248876
0.24863
0.248347
0.248032
0.24769
0.247324
0.246941
0.200484
0.202809
0.205913
0.20924
0.212483
0.215494
0.218222
0.220663
0.222834
0.224755
0.226448
0.227934
0.229235
0.230369
0.231352
0.232201
0.232928
0.233546
0.234066
0.234497
0.234849
0.23513
0.235347
0.235505
0.235613
0.235673
0.235692
0.235675
0.235624
0.235544
0.235438
0.235309
0.235162
0.200184
0.20134
0.203132
0.205234
0.207404
0.209501
0.211457
0.21325
0.214879
0.216349
0.217669
0.218852
0.219908
0.220849
0.221684
0.222423
0.223075
0.223648
0.224148
0.224583
0.224958
0.225279
0.225551
0.225778
0.225964
0.226113
0.226229
0.226315
0.226373
0.226407
0.226419
0.226411
0.226386
0.200051
0.200588
0.201579
0.202869
0.204298
0.205746
0.207146
0.208465
0.209689
0.210815
0.211845
0.212781
0.213631
0.214399
0.215093
0.215717
0.216278
0.21678
0.217229
0.217628
0.217983
0.218295
0.21857
0.21881
0.219018
0.219197
0.219349
0.219477
0.219583
0.219669
0.219737
0.219789
0.219826
0.199992
0.200208
0.200718
0.201471
0.202377
0.203351
0.204335
0.205293
0.206205
0.207061
0.207858
0.208595
0.209273
0.209895
0.210464
0.210983
0.211456
0.211885
0.212274
0.212626
0.212943
0.213229
0.213485
0.213714
0.213918
0.214099
0.214259
0.2144
0.214523
0.21463
0.214722
0.214801
0.214867
0.199966
0.200017
0.200248
0.200654
0.201196
0.201823
0.202489
0.203165
0.203829
0.204469
0.205076
0.205648
0.206182
0.206679
0.20714
0.207565
0.207957
0.208317
0.208647
0.208949
0.209225
0.209477
0.209706
0.209915
0.210103
0.210274
0.210428
0.210566
0.21069
0.210802
0.210901
0.21099
0.211068
0.199954
0.199924
0.199997
0.200187
0.200483
0.200858
0.201286
0.201741
0.202206
0.202669
0.203119
0.203552
0.203964
0.204353
0.204718
0.20506
0.205379
0.205675
0.20595
0.206204
0.206439
0.206655
0.206855
0.207038
0.207206
0.207359
0.2075
0.207629
0.207746
0.207853
0.207951
0.20804
0.208121
0.199949
0.199879
0.199866
0.199926
0.200061
0.200262
0.200513
0.200799
0.201107
0.201425
0.201744
0.20206
0.202367
0.202662
0.202944
0.203212
0.203464
0.203702
0.203925
0.204134
0.204329
0.20451
0.204678
0.204835
0.20498
0.205114
0.205239
0.205354
0.20546
0.205558
0.205649
0.205733
0.20581
0.199947
0.199858
0.199799
0.199785
0.19982
0.199903
0.200029
0.200189
0.200374
0.200577
0.200789
0.201006
0.201223
0.201437
0.201646
0.201847
0.202041
0.202225
0.202401
0.202566
0.202723
0.20287
0.203009
0.203138
0.20326
0.203373
0.20348
0.203579
0.203672
0.203758
0.203839
0.203915
0.203985
0.199947
0.199848
0.199766
0.19971
0.199685
0.199693
0.199734
0.199804
0.199898
0.20001
0.200137
0.200273
0.200415
0.20056
0.200704
0.200848
0.200988
0.201124
0.201256
0.201382
0.201503
0.201618
0.201727
0.201831
0.201929
0.202021
0.202109
0.202191
0.202269
0.202343
0.202412
0.202478
0.202539
0.199946
0.199843
0.19975
0.199672
0.199612
0.199575
0.19956
0.199568
0.199596
0.199642
0.199702
0.199774
0.199855
0.199941
0.200032
0.200125
0.200219
0.200312
0.200404
0.200494
0.200582
0.200667
0.200749
0.200827
0.200903
0.200975
0.201044
0.20111
0.201172
0.201232
0.201289
0.201344
0.201396
0.199946
0.199841
0.199743
0.199652
0.199574
0.199509
0.19946
0.199428
0.199411
0.199409
0.19942
0.199443
0.199475
0.199515
0.199562
0.199612
0.199666
0.199723
0.19978
0.199838
0.199896
0.199954
0.20001
0.200066
0.20012
0.200172
0.200223
0.200273
0.200321
0.200367
0.200412
0.200455
0.200497
0.199946
0.199841
0.199739
0.199643
0.199554
0.199474
0.199405
0.199347
0.199301
0.199266
0.199243
0.19923
0.199226
0.19923
0.199241
0.199257
0.199279
0.199304
0.199332
0.199363
0.199395
0.199428
0.199462
0.199497
0.199532
0.199567
0.199601
0.199635
0.199669
0.199703
0.199736
0.199768
0.1998
0.199946
0.19984
0.199737
0.199638
0.199544
0.199456
0.199375
0.199302
0.199237
0.199181
0.199135
0.199097
0.199067
0.199044
0.199029
0.199019
0.199015
0.199016
0.19902
0.199028
0.199039
0.199052
0.199067
0.199084
0.199102
0.199121
0.199141
0.199162
0.199183
0.199205
0.199227
0.19925
0.199272
0.199946
0.19984
0.199736
0.199636
0.199539
0.199446
0.199359
0.199277
0.199202
0.199133
0.199071
0.199017
0.19897
0.198929
0.198895
0.198866
0.198843
0.198825
0.198812
0.198802
0.198796
0.198793
0.198793
0.198796
0.1988
0.198807
0.198815
0.198825
0.198836
0.198848
0.198861
0.198875
0.19889
0.199946
0.19984
0.199736
0.199635
0.199536
0.199441
0.19935
0.199264
0.199182
0.199106
0.199036
0.198972
0.198914
0.198861
0.198815
0.198774
0.198739
0.198708
0.198682
0.198661
0.198643
0.198629
0.198618
0.19861
0.198605
0.198602
0.198602
0.198603
0.198607
0.198611
0.198618
0.198625
0.198634
0.199946
0.19984
0.199736
0.199634
0.199535
0.199439
0.199346
0.199257
0.199173
0.199093
0.199019
0.19895
0.198886
0.198828
0.198775
0.198728
0.198686
0.198648
0.198616
0.198587
0.198563
0.198543
0.198526
0.198512
0.198501
0.198493
0.198488
0.198484
0.198483
0.198483
0.198485
0.198489
0.198494
0.199946
0.19984
0.199735
0.199633
0.199534
0.199438
0.199345
0.199255
0.19917
0.19909
0.199015
0.198945
0.19888
0.198821
0.198767
0.198719
0.198676
0.198637
0.198603
0.198574
0.198549
0.198527
0.198509
0.198494
0.198482
0.198473
0.198466
0.198462
0.198459
0.198459
0.19846
0.198462
0.198466
0.199946
0.199839
0.199735
0.199633
0.199534
0.199438
0.199346
0.199258
0.199175
0.199097
0.199024
0.198958
0.198897
0.198842
0.198793
0.198749
0.19871
0.198676
0.198647
0.198622
0.198601
0.198584
0.19857
0.198559
0.198551
0.198545
0.198541
0.198539
0.19854
0.198541
0.198544
0.198549
0.198554
0.199946
0.19984
0.199735
0.199634
0.199536
0.199442
0.199352
0.199268
0.19919
0.199118
0.199053
0.198995
0.198944
0.198899
0.198861
0.198828
0.198801
0.198778
0.19876
0.198746
0.198736
0.198728
0.198724
0.198722
0.198722
0.198724
0.198728
0.198733
0.198739
0.198747
0.198755
0.198764
0.198774
0.199946
0.19984
0.199736
0.199636
0.199541
0.199451
0.199368
0.199292
0.199225
0.199167
0.199117
0.199075
0.199042
0.199016
0.198996
0.198983
0.198975
0.198971
0.198971
0.198975
0.198981
0.19899
0.199001
0.199013
0.199026
0.199041
0.199056
0.199072
0.199087
0.199104
0.19912
0.199136
0.199153
0.199946
0.199841
0.199739
0.199643
0.199554
0.199475
0.199405
0.199348
0.199302
0.199268
0.199245
0.199232
0.199229
0.199233
0.199243
0.19926
0.19928
0.199304
0.199331
0.19936
0.19939
0.199421
0.199452
0.199483
0.199514
0.199544
0.199574
0.199603
0.199631
0.199658
0.199684
0.19971
0.199734
0.199947
0.199843
0.199747
0.19966
0.199587
0.19953
0.199491
0.199468
0.199463
0.199472
0.199495
0.199529
0.199572
0.199622
0.199677
0.199736
0.199796
0.199858
0.199919
0.19998
0.20004
0.200098
0.200154
0.200208
0.200259
0.200308
0.200354
0.200398
0.20044
0.200478
0.200515
0.200549
0.200582
0.199948
0.19985
0.199767
0.199705
0.199669
0.199661
0.19968
0.199725
0.199791
0.199875
0.199971
0.200078
0.200189
0.200304
0.20042
0.200534
0.200645
0.200753
0.200857
0.200955
0.201049
0.201137
0.20122
0.201298
0.20137
0.201438
0.201501
0.201559
0.201612
0.201662
0.201708
0.20175
0.201788
0.199951
0.199869
0.199823
0.199821
0.199868
0.199962
0.200096
0.200262
0.200449
0.20065
0.200858
0.201067
0.201273
0.201472
0.201663
0.201844
0.202015
0.202175
0.202324
0.202462
0.202589
0.202707
0.202815
0.202914
0.203005
0.203088
0.203164
0.203232
0.203295
0.203351
0.203402
0.203447
0.203488
0.199959
0.199926
0.199977
0.200121
0.200351
0.200649
0.200993
0.201362
0.201739
0.202113
0.202473
0.202816
0.203137
0.203435
0.20371
0.203963
0.204193
0.204403
0.204593
0.204765
0.204921
0.205061
0.205187
0.205301
0.205402
0.205492
0.205573
0.205644
0.205707
0.205762
0.205811
0.205853
0.205889
0.199987
0.200103
0.200415
0.200903
0.201515
0.202193
0.20289
0.203572
0.204217
0.204816
0.205363
0.205858
0.206302
0.206698
0.207052
0.207365
0.207643
0.207888
0.208104
0.208295
0.208463
0.208609
0.208738
0.208849
0.208946
0.209029
0.2091
0.20916
0.20921
0.209252
0.209285
0.209311
0.20933
0.200091
0.200674
0.201674
0.202931
0.204281
0.205607
0.206838
0.207945
0.208922
0.209772
0.210508
0.211141
0.211683
0.212148
0.212546
0.212885
0.213174
0.213421
0.213629
0.213806
0.213954
0.214077
0.214179
0.214261
0.214327
0.214377
0.214415
0.21444
0.214455
0.21446
0.214457
0.214446
0.214429
0.200506
0.202612
0.20538
0.20823
0.210863
0.213156
0.215082
0.216669
0.217964
0.219015
0.219866
0.220552
0.221105
0.22155
0.221907
0.222191
0.222416
0.222592
0.222726
0.222824
0.222893
0.222937
0.222958
0.22296
0.222946
0.222917
0.222875
0.222821
0.222758
0.222686
0.222606
0.222518
0.222425
0.202133
0.209236
0.216717
0.222799
0.227378
0.23075
0.233208
0.234988
0.236273
0.237193
0.237847
0.238306
0.238619
0.238825
0.238946
0.239003
0.239008
0.238971
0.2389
0.238799
0.238674
0.238527
0.238362
0.238181
0.237986
0.237778
0.237559
0.237331
0.237094
0.23685
0.236599
0.236343
0.236082
0.208298
0.22678
0.244129
0.257372
0.266317
0.271773
0.274802
0.276303
0.276882
0.276921
0.276649
0.276201
0.275653
0.275051
0.274418
0.273765
0.273101
0.272428
0.271747
0.27106
0.270365
0.269665
0.268959
0.268248
0.267533
0.266815
0.266095
0.265374
0.264653
0.263933
0.263215
0.2625
0.261789
0.245775
0.310442
0.343758
0.358932
0.365582
0.368297
0.368993
0.368462
0.367138
0.3653
0.363136
0.360774
0.358305
0.355793
0.353284
0.350808
0.348387
0.346036
0.343763
0.341573
0.339469
0.337451
0.33552
0.333674
0.33191
0.330227
0.328621
0.32709
0.32563
0.32424
0.322916
0.321656
0.320455
0.214305
0.253643
0.294732
0.333812
0.370031
0.403432
0.434077
0.462012
0.487322
0.510132
0.530592
0.548865
0.565116
0.579516
0.592228
0.603409
0.613209
0.621766
0.629207
0.635651
0.641203
0.645961
0.650011
0.653434
0.656298
0.658669
0.660602
0.662147
0.66335
0.664251
0.664886
0.665285
0.665484
0.749367
0.853069
0.997725
1.17629
1.37003
1.56364
1.7416
1.89243
2.01083
2.09745
2.15629
2.19267
2.21219
2.21985
2.21965
2.21441
2.206
2.19551
2.18365
2.17082
2.15731
2.1433
2.12895
2.11437
2.09961
2.0847
2.06958
2.05415
2.03828
2.02181
2.00456
1.98634
1.96699
1.94629
1.92406
1.90016
1.87445
1.84686
1.8173
1.78575
1.7522
1.71668
1.67925
1.64003
1.59917
1.55686
1.51333
1.46886
1.42374
1.3783
1.33288
1.28784
1.24354
1.20033
1.15855
1.11852
1.08052
1.04479
1.01154
0.980937
0.953092
0.928081
0.905936
0.886652
0.870191
0.856485
0.845443
0.836953
0.830886
0.827104
0.825457
0.825786
0.82793
0.83172
0.836983
0.843544
0.851223
0.859841
0.869219
0.879175
0.889534
0.900125
0.91078
0.92134
0.931657
0.941593
0.951021
0.959828
0.967912
0.975188
0.981577
0.987022
0.991464
0.994877
0.99721
0.998475
0.998651
0.997686
0.996135
0.992183
0.440703
0.449213
0.468812
0.501733
0.550231
0.61574
0.697511
0.792418
0.896096
1.00434
1.11268
1.21783
1.31671
1.40661
1.48544
1.55193
1.606
1.64836
1.68043
1.70381
1.71996
1.73014
1.73546
1.73675
1.7347
1.72984
1.72254
1.71311
1.70176
1.68861
1.67376
1.65725
1.63911
1.61932
1.59788
1.57476
1.54995
1.52346
1.49531
1.46554
1.43422
1.40144
1.36731
1.33199
1.29565
1.25849
1.22076
1.18269
1.14457
1.10667
1.06928
1.03269
0.997185
0.963017
0.930433
0.899652
0.870858
0.844207
0.819818
0.797775
0.778131
0.760906
0.746094
0.733664
0.723561
0.715718
0.71005
0.706462
0.704851
0.705108
0.707117
0.710758
0.715909
0.722442
0.730225
0.73912
0.748988
0.759685
0.771064
0.782973
0.795263
0.807784
0.820385
0.832921
0.845253
0.857248
0.868781
0.879741
0.89002
0.89953
0.908185
0.915921
0.92267
0.9284
0.93305
0.936622
0.93909
0.940408
0.940981
0.940063
0.335293
0.330719
0.326937
0.324583
0.324727
0.328582
0.337351
0.35179
0.372662
0.400866
0.436985
0.4814
0.534087
0.594359
0.660713
0.730911
0.802228
0.871919
0.937788
0.997742
1.0507
1.09629
1.13457
1.16591
1.19081
1.20995
1.22394
1.23332
1.23859
1.24018
1.2385
1.23384
1.22647
1.21661
1.20444
1.19013
1.17381
1.15562
1.13569
1.11418
1.09122
1.06698
1.04162
1.01534
0.988309
0.960755
0.932893
0.904949
0.877154
0.84974
0.822933
0.796948
0.771991
0.748246
0.725881
0.705035
0.685829
0.668353
0.652676
0.638841
0.62687
0.616765
0.608511
0.602078
0.597425
0.594499
0.593243
0.593592
0.595477
0.598826
0.603562
0.609608
0.616881
0.625292
0.634753
0.645164
0.656423
0.668424
0.68105
0.694181
0.707695
0.721463
0.735354
0.749236
0.762983
0.776469
0.789572
0.80218
0.814186
0.825495
0.836016
0.845676
0.854402
0.862146
0.868844
0.874484
0.879033
0.882448
0.884988
0.886912
0.316776
0.311653
0.306658
0.301826
0.29727
0.293167
0.289773
0.287384
0.286334
0.286839
0.289285
0.294166
0.302053
0.313533
0.329154
0.349279
0.374042
0.403194
0.436296
0.47243
0.510562
0.549413
0.587914
0.624787
0.659312
0.69068
0.718355
0.742236
0.76228
0.778609
0.791383
0.800781
0.807019
0.810318
0.8109
0.80898
0.804769
0.798466
0.790268
0.780366
0.768952
0.756216
0.74235
0.727548
0.712005
0.695917
0.67948
0.662888
0.646331
0.629992
0.614045
0.598653
0.583965
0.570114
0.557217
0.545373
0.534664
0.525153
0.51689
0.509905
0.504217
0.499834
0.496751
0.494956
0.494431
0.49515
0.497086
0.500206
0.504476
0.509858
0.516314
0.5238
0.532272
0.541677
0.551962
0.563064
0.574916
0.587444
0.600561
0.614178
0.628198
0.642515
0.657016
0.671591
0.686122
0.700492
0.714587
0.728296
0.741511
0.754133
0.766067
0.777232
0.787545
0.796949
0.805371
0.812787
0.819154
0.82443
0.828736
0.83325
0.300239
0.296661
0.293109
0.28957
0.286049
0.282566
0.279163
0.275897
0.272843
0.270081
0.267684
0.26575
0.264419
0.263863
0.264295
0.265946
0.269067
0.273875
0.280581
0.289305
0.300114
0.312917
0.327589
0.343786
0.361192
0.379322
0.397675
0.415718
0.433064
0.449301
0.464086
0.477235
0.488607
0.498135
0.505808
0.511656
0.515742
0.518151
0.518989
0.518375
0.516437
0.513313
0.509148
0.504087
0.498282
0.491883
0.485039
0.477898
0.470601
0.463286
0.456081
0.449107
0.442475
0.436284
0.430621
0.425564
0.421177
0.417514
0.414618
0.412524
0.411256
0.410833
0.411266
0.412561
0.41472
0.417741
0.421621
0.426354
0.431931
0.438342
0.445576
0.453618
0.462451
0.472051
0.482395
0.493448
0.505175
0.517525
0.530446
0.543873
0.557732
0.571939
0.586406
0.601038
0.615733
0.630385
0.644887
0.659133
0.673017
0.686439
0.699299
0.711511
0.722984
0.733649
0.74343
0.752283
0.760163
0.767017
0.772845
0.779641
0.280166
0.278049
0.275907
0.27373
0.271513
0.269256
0.26697
0.264667
0.262367
0.260095
0.257874
0.25573
0.253695
0.25181
0.250126
0.248702
0.247615
0.246945
0.246784
0.247224
0.24836
0.250269
0.253025
0.25666
0.261191
0.266582
0.27277
0.279616
0.286988
0.294701
0.302558
0.310363
0.317936
0.325117
0.331773
0.337797
0.343111
0.347666
0.351438
0.354426
0.356652
0.358151
0.358977
0.359191
0.358867
0.358083
0.356924
0.355474
0.353821
0.352051
0.350248
0.348491
0.346855
0.345411
0.344222
0.343346
0.342835
0.342732
0.343078
0.343904
0.34524
0.347108
0.349528
0.352517
0.356089
0.360254
0.365023
0.370405
0.376408
0.383038
0.3903
0.3982
0.406736
0.415908
0.425712
0.436137
0.447174
0.458787
0.470952
0.48363
0.496766
0.510303
0.52417
0.538295
0.55259
0.566963
0.58132
0.595561
0.609584
0.623293
0.636585
0.649371
0.661555
0.673059
0.683801
0.693721
0.702771
0.710886
0.717955
0.726675
0.261537
0.260396
0.259212
0.257983
0.256702
0.255367
0.25398
0.252546
0.251071
0.249565
0.24804
0.246504
0.24497
0.243448
0.241952
0.240498
0.239107
0.237804
0.236617
0.235579
0.234729
0.234105
0.23375
0.233703
0.234002
0.234675
0.235745
0.237218
0.239086
0.241325
0.2439
0.246755
0.249826
0.253044
0.256336
0.259629
0.262856
0.265957
0.268882
0.271592
0.274059
0.276269
0.278216
0.279907
0.281357
0.282589
0.283632
0.284524
0.285301
0.286008
0.286686
0.287381
0.288136
0.288993
0.289992
0.291173
0.292569
0.294214
0.296137
0.298364
0.300919
0.303824
0.307099
0.31076
0.314824
0.319307
0.324223
0.329587
0.335413
0.341716
0.348509
0.355805
0.363616
0.371954
0.380833
0.390249
0.400214
0.41071
0.421731
0.433258
0.445261
0.457701
0.470529
0.48369
0.497118
0.510737
0.524465
0.538214
0.551892
0.565406
0.578658
0.591556
0.604005
0.61592
0.627213
0.637814
0.647667
0.656703
0.664707
0.674951
0.246471
0.245901
0.245291
0.244639
0.24394
0.243192
0.242392
0.241544
0.240651
0.239717
0.238748
0.237749
0.236727
0.235686
0.234629
0.233563
0.232493
0.231427
0.230375
0.229349
0.228361
0.227429
0.22657
0.225804
0.225151
0.224633
0.224269
0.224078
0.224073
0.224265
0.224658
0.225252
0.226038
0.227003
0.228129
0.229392
0.230768
0.232229
0.233748
0.235302
0.236867
0.238426
0.239966
0.241476
0.242955
0.244401
0.245822
0.247227
0.24863
0.250046
0.251494
0.252996
0.254571
0.256244
0.258035
0.259966
0.262059
0.264334
0.266808
0.2695
0.272427
0.275603
0.279044
0.282763
0.286774
0.29109
0.295726
0.300696
0.306015
0.311698
0.317761
0.32422
0.331098
0.338407
0.346169
0.354392
0.363092
0.372274
0.38194
0.39209
0.402711
0.413783
0.425278
0.437159
0.449378
0.461879
0.474595
0.487454
0.500375
0.513275
0.526063
0.538651
0.550946
0.56286
0.574306
0.585201
0.595487
0.605091
0.613712
0.625052
0.234966
0.234714
0.234428
0.234109
0.233751
0.233352
0.232911
0.232428
0.231905
0.231345
0.23075
0.230126
0.229474
0.228798
0.228099
0.22738
0.226642
0.225889
0.225124
0.224352
0.223578
0.222808
0.22205
0.221313
0.220607
0.219944
0.219333
0.218789
0.218323
0.217946
0.217668
0.217498
0.217442
0.217504
0.217686
0.217987
0.218403
0.218929
0.219558
0.220282
0.221093
0.221983
0.222945
0.223974
0.225067
0.22622
0.227435
0.228713
0.230059
0.231479
0.23298
0.23457
0.236261
0.238062
0.239984
0.242039
0.244237
0.246589
0.249106
0.251796
0.254671
0.257738
0.261007
0.264486
0.268186
0.272115
0.276284
0.280704
0.285389
0.29035
0.295606
0.301172
0.307068
0.313313
0.319927
0.326925
0.33433
0.342154
0.350412
0.359111
0.368256
0.377841
0.387855
0.398279
0.409083
0.42023
0.43167
0.443348
0.4552
0.467152
0.479128
0.491045
0.502818
0.514361
0.525589
0.536414
0.546777
0.5566
0.565523
0.577521
0.226336
0.226255
0.226149
0.226016
0.225853
0.225658
0.22543
0.225168
0.224874
0.224548
0.224194
0.223814
0.223409
0.222983
0.222535
0.222067
0.221581
0.221077
0.220557
0.220024
0.219479
0.218925
0.218366
0.217806
0.21725
0.216704
0.216173
0.215665
0.215188
0.214748
0.214356
0.214018
0.213742
0.213536
0.213405
0.213356
0.213391
0.213515
0.213729
0.214035
0.214434
0.214924
0.215507
0.216182
0.216948
0.217808
0.21876
0.219808
0.220954
0.222201
0.223552
0.225013
0.226586
0.228278
0.230094
0.232039
0.234117
0.236334
0.238694
0.241201
0.24386
0.246674
0.249648
0.252786
0.256093
0.259574
0.263237
0.267088
0.271137
0.275395
0.279876
0.284595
0.289568
0.294813
0.300352
0.306201
0.312385
0.318921
0.325829
0.333124
0.34082
0.348924
0.357438
0.366357
0.375668
0.385349
0.395371
0.405693
0.416269
0.427041
0.437945
0.448912
0.459866
0.470727
0.481418
0.491849
0.501964
0.511682
0.520608
0.532835
0.219852
0.219862
0.219853
0.219824
0.219772
0.219695
0.219592
0.219464
0.219309
0.21913
0.218928
0.218705
0.218462
0.2182
0.217922
0.217627
0.217316
0.216991
0.216653
0.216302
0.21594
0.215568
0.215188
0.214802
0.214413
0.214023
0.213637
0.213258
0.212891
0.212541
0.212214
0.211916
0.211652
0.21143
0.211256
0.211135
0.211074
0.211078
0.211152
0.211302
0.211531
0.211843
0.212241
0.212729
0.21331
0.213987
0.214762
0.215639
0.216619
0.217707
0.218904
0.220214
0.221638
0.223181
0.224843
0.226626
0.228534
0.230566
0.232723
0.235007
0.237418
0.239956
0.242622
0.245416
0.24834
0.251396
0.254587
0.257917
0.261392
0.265021
0.268814
0.272783
0.276941
0.281305
0.285893
0.290724
0.29582
0.3012
0.306887
0.3129
0.319258
0.325976
0.333065
0.340531
0.348374
0.356587
0.365155
0.374055
0.383255
0.392716
0.402387
0.412214
0.422135
0.432078
0.441978
0.451747
0.461337
0.470663
0.479322
0.491382
0.214931
0.214988
0.215031
0.215058
0.215068
0.215059
0.215031
0.214982
0.214913
0.214826
0.21472
0.214597
0.21446
0.214307
0.214142
0.213964
0.213775
0.213575
0.213365
0.213145
0.212918
0.212683
0.212443
0.212197
0.211948
0.211697
0.211447
0.211201
0.21096
0.210729
0.210512
0.210313
0.210136
0.209987
0.20987
0.209791
0.209756
0.209771
0.20984
0.209969
0.210164
0.21043
0.210771
0.211193
0.211699
0.212295
0.212982
0.213767
0.21465
0.215637
0.216728
0.217927
0.219235
0.220654
0.222183
0.223825
0.225578
0.227441
0.229414
0.231494
0.23368
0.235969
0.238359
0.240849
0.243437
0.246122
0.248905
0.251788
0.254773
0.257866
0.261074
0.264406
0.267873
0.271488
0.275268
0.279229
0.283391
0.287775
0.292401
0.297291
0.302465
0.307943
0.313741
0.319873
0.326348
0.33317
0.340337
0.347837
0.355656
0.363766
0.372136
0.380723
0.389481
0.398351
0.407279
0.416186
0.425032
0.433734
0.441898
0.453444
0.211149
0.211228
0.211297
0.211354
0.211398
0.211427
0.211442
0.211441
0.211425
0.211394
0.21135
0.211292
0.211223
0.211143
0.211054
0.210955
0.210849
0.210735
0.210615
0.21049
0.21036
0.210226
0.210088
0.209949
0.209809
0.209669
0.209531
0.209396
0.209268
0.209148
0.209039
0.208945
0.208868
0.208813
0.208784
0.208785
0.208822
0.208899
0.209021
0.209193
0.209421
0.20971
0.210065
0.21049
0.210991
0.211572
0.212237
0.212991
0.213835
0.214774
0.21581
0.216945
0.21818
0.219515
0.220951
0.222487
0.224121
0.225851
0.227674
0.229588
0.231588
0.233672
0.235833
0.23807
0.240378
0.242756
0.2452
0.247711
0.250289
0.252938
0.255662
0.258466
0.26136
0.264355
0.267463
0.2707
0.274081
0.277627
0.281357
0.285291
0.28945
0.293855
0.298526
0.303479
0.30873
0.314289
0.320164
0.326353
0.332854
0.339652
0.346728
0.354056
0.361601
0.36932
0.377171
0.385086
0.393035
0.40094
0.408431
0.419182
0.208206
0.208294
0.208373
0.208444
0.208505
0.208555
0.208594
0.208621
0.208637
0.208642
0.208636
0.208621
0.208596
0.208565
0.208526
0.208482
0.208433
0.208379
0.208322
0.208263
0.208203
0.208141
0.20808
0.20802
0.207962
0.207907
0.207856
0.207811
0.207774
0.207747
0.207731
0.20773
0.207746
0.207782
0.207842
0.20793
0.208049
0.208203
0.208398
0.208637
0.208926
0.209269
0.209671
0.210136
0.210669
0.211275
0.211957
0.212718
0.213563
0.214493
0.215511
0.216619
0.217817
0.219104
0.220481
0.221946
0.223496
0.225129
0.22684
0.228626
0.230481
0.2324
0.234379
0.236411
0.238493
0.24062
0.242789
0.244997
0.247244
0.24953
0.251858
0.254232
0.256658
0.259145
0.261703
0.264344
0.267084
0.269938
0.272924
0.276062
0.27937
0.282869
0.28658
0.29052
0.294708
0.299158
0.303884
0.308891
0.314185
0.319761
0.325613
0.331724
0.338075
0.344633
0.351371
0.358231
0.365196
0.372194
0.378889
0.388636
0.205893
0.20598
0.206062
0.206137
0.206205
0.206264
0.206316
0.206359
0.206393
0.206419
0.206438
0.206449
0.206455
0.206455
0.206451
0.206443
0.206433
0.206422
0.206409
0.206397
0.206387
0.206378
0.206372
0.20637
0.206373
0.206382
0.206398
0.206423
0.206458
0.206505
0.206565
0.206642
0.206737
0.206852
0.206992
0.207159
0.207356
0.207587
0.207857
0.208168
0.208525
0.208932
0.209394
0.209914
0.210496
0.211145
0.211864
0.212655
0.213522
0.214468
0.215492
0.216598
0.217783
0.219049
0.220394
0.221815
0.22331
0.224874
0.226504
0.228193
0.229937
0.231729
0.233563
0.235433
0.237333
0.239259
0.241205
0.243168
0.245147
0.247139
0.249146
0.251171
0.253217
0.255292
0.257403
0.25956
0.261777
0.264066
0.266443
0.268926
0.271532
0.274279
0.277187
0.280275
0.283561
0.287062
0.290793
0.294766
0.298989
0.303468
0.308203
0.313186
0.31841
0.323852
0.329496
0.335299
0.34125
0.347291
0.353122
0.36173
0.204062
0.204144
0.204222
0.204295
0.204364
0.204426
0.204483
0.204533
0.204577
0.204616
0.204649
0.204677
0.204702
0.204723
0.204742
0.204759
0.204776
0.204793
0.204812
0.204834
0.204858
0.204887
0.204922
0.204963
0.205011
0.205068
0.205135
0.205213
0.205304
0.205409
0.20553
0.205669
0.205828
0.20601
0.206217
0.206452
0.206717
0.207017
0.207354
0.207733
0.208155
0.208626
0.209148
0.209726
0.210362
0.211061
0.211824
0.212655
0.213556
0.214528
0.215572
0.216689
0.217879
0.21914
0.220469
0.221866
0.223325
0.224842
0.226412
0.228029
0.229688
0.23138
0.233101
0.234842
0.236597
0.238361
0.240128
0.241893
0.243654
0.245408
0.247156
0.248897
0.250636
0.252377
0.254126
0.255892
0.257684
0.259515
0.261398
0.263347
0.265379
0.267509
0.269757
0.272139
0.274673
0.277376
0.280264
0.283352
0.28665
0.290169
0.293914
0.297885
0.302082
0.306491
0.311106
0.315894
0.320853
0.325936
0.330884
0.338289
0.202607
0.202681
0.202752
0.20282
0.202885
0.202946
0.203003
0.203055
0.203104
0.203148
0.20319
0.203228
0.203264
0.203298
0.203332
0.203366
0.203401
0.203438
0.203479
0.203524
0.203574
0.20363
0.203694
0.203766
0.203847
0.20394
0.204045
0.204163
0.204296
0.204446
0.204614
0.204802
0.205012
0.205247
0.205509
0.2058
0.206123
0.206481
0.206876
0.207313
0.207794
0.208321
0.2089
0.209531
0.210219
0.210966
0.211774
0.212646
0.213582
0.214585
0.215654
0.216789
0.21799
0.219254
0.220579
0.221961
0.223397
0.22488
0.226407
0.227969
0.229561
0.231176
0.232805
0.234442
0.23608
0.237713
0.239334
0.240938
0.242522
0.244083
0.245619
0.247131
0.24862
0.250091
0.251547
0.252996
0.254445
0.255906
0.257388
0.258906
0.260471
0.262101
0.263809
0.265612
0.267527
0.26957
0.271756
0.274099
0.276615
0.279313
0.282202
0.285288
0.288575
0.292056
0.295734
0.299582
0.303608
0.307772
0.311859
0.318058
0.201453
0.201517
0.201579
0.20164
0.201698
0.201754
0.201808
0.20186
0.201909
0.201955
0.202
0.202043
0.202086
0.202128
0.202171
0.202216
0.202263
0.202314
0.202369
0.20243
0.202497
0.202572
0.202657
0.202751
0.202857
0.202975
0.203108
0.203256
0.203421
0.203604
0.203808
0.204034
0.204284
0.20456
0.204865
0.2052
0.205569
0.205974
0.206418
0.206903
0.207432
0.208008
0.208634
0.209312
0.210045
0.210834
0.211683
0.212591
0.213561
0.214593
0.215686
0.21684
0.218053
0.219323
0.220646
0.22202
0.223438
0.224897
0.226388
0.227907
0.229444
0.230995
0.232549
0.234101
0.235642
0.237166
0.238666
0.240138
0.241576
0.242978
0.244341
0.245666
0.246952
0.248203
0.249421
0.250613
0.251786
0.252947
0.254106
0.255275
0.256465
0.257688
0.25896
0.260293
0.261703
0.263204
0.264812
0.266541
0.268403
0.27041
0.272575
0.274903
0.277402
0.280072
0.282918
0.285923
0.289096
0.29241
0.295689
0.300728
0.200544
0.200596
0.200649
0.2007
0.200751
0.200801
0.20085
0.200898
0.200945
0.20099
0.201036
0.201081
0.201126
0.201173
0.201221
0.201272
0.201327
0.201386
0.20145
0.201522
0.201601
0.201689
0.201787
0.201897
0.20202
0.202156
0.202308
0.202477
0.202665
0.202873
0.203103
0.203357
0.203636
0.203944
0.204281
0.204651
0.205055
0.205496
0.205977
0.2065
0.207068
0.207682
0.208346
0.209061
0.20983
0.210655
0.211536
0.212475
0.213472
0.214527
0.21564
0.216809
0.218032
0.219306
0.220627
0.221992
0.223395
0.224831
0.226292
0.227771
0.229262
0.230757
0.232247
0.233725
0.235183
0.236615
0.238014
0.239374
0.240691
0.24196
0.24318
0.24435
0.245469
0.24654
0.247564
0.248548
0.249496
0.250415
0.251313
0.252201
0.253087
0.253984
0.254903
0.255857
0.256858
0.257921
0.259057
0.260282
0.261606
0.263042
0.264601
0.266291
0.268123
0.270097
0.272221
0.274487
0.276904
0.279452
0.281995
0.285956
0.199836
0.199878
0.19992
0.199962
0.200005
0.200048
0.200091
0.200134
0.200177
0.20022
0.200263
0.200308
0.200354
0.200402
0.200453
0.200507
0.200566
0.200629
0.2007
0.200777
0.200864
0.20096
0.201067
0.201187
0.20132
0.201468
0.201633
0.201817
0.20202
0.202245
0.202492
0.202766
0.203066
0.203395
0.203755
0.204149
0.204579
0.205047
0.205555
0.206105
0.206701
0.207344
0.208036
0.208778
0.209574
0.210424
0.211329
0.212289
0.213305
0.214376
0.215501
0.216678
0.217905
0.219179
0.220495
0.221848
0.223233
0.224645
0.226075
0.227517
0.228964
0.230407
0.231838
0.23325
0.234635
0.235986
0.237296
0.23856
0.239772
0.240929
0.242028
0.243068
0.244048
0.24497
0.245835
0.246648
0.247413
0.248135
0.248823
0.249484
0.250126
0.25076
0.251396
0.252044
0.252717
0.253425
0.254181
0.254996
0.255882
0.25685
0.25791
0.259072
0.260345
0.261733
0.263245
0.264875