/*--------------------------------*- C++ -*----------------------------------*\
  =========                 |
  \\      /  F ield         | OpenFOAM: The Open Source CFD Toolbox
   \\    /   O peration     | Website:  https://openfoam.org
    \\  /    A nd           | Version:  10
     \\/     M anipulation  |
\*---------------------------------------------------------------------------*/
FoamFile
{
    format      ascii;
    class       volScalarField;
    location    "1400";
    object      nut;
}
// * * * * * * * * * * * * * * * * * * * * * * * * * * * * * * * * * * * * * //

dimensions      [0 2 -1 0 0 0 0];

internalField   nonuniform List<scalar> 
6820
(
5.21161e-05
7.23496e-05
8.49506e-05
9.15131e-05
9.44881e-05
9.54259e-05
9.5224e-05
9.44045e-05
9.32791e-05
9.20325e-05
9.07694e-05
8.9546e-05
8.83906e-05
8.73147e-05
8.63208e-05
8.54064e-05
8.45666e-05
8.37953e-05
8.30863e-05
8.24337e-05
8.1832e-05
8.1276e-05
8.07613e-05
8.02836e-05
7.98395e-05
7.94255e-05
7.90388e-05
7.86768e-05
7.83361e-05
7.80193e-05
7.76938e-05
7.75081e-05
7.65729e-05
0.00148779
0.000914492
0.000722323
0.000566085
0.000444965
0.000364554
0.000311028
0.000273876
0.000246824
0.000226542
0.000210742
0.000198386
0.000188225
0.000179921
0.000173043
0.000167267
0.000162375
0.000158201
0.000154617
0.000151526
0.000148847
0.000146516
0.000144481
0.0001427
0.000141136
0.000139761
0.000138546
0.000137475
0.000136512
0.000135664
0.000134894
0.000134221
0.000133327
0.00388235
0.00172611
0.00129522
0.00105715
0.000883653
0.000756982
0.000663656
0.000593356
0.000538663
0.00049523
0.000459793
0.000430501
0.000405787
0.000384676
0.000366437
0.000350536
0.00033655
0.000324169
0.000313134
0.000303255
0.000294361
0.000286329
0.000279044
0.000272419
0.000266374
0.000260843
0.00025577
0.000251109
0.000246803
0.000242841
0.000239125
0.000235719
0.000232386
0.00701486
0.0030933
0.00211865
0.00169399
0.00142842
0.00124177
0.00110356
0.000997707
0.000914036
0.000846515
0.000790842
0.000744244
0.000704627
0.00067054
0.000640856
0.000614798
0.000591689
0.000571093
0.000552563
0.000535857
0.000520648
0.00050682
0.000494102
0.00048247
0.000471667
0.000461753
0.00045245
0.000443907
0.000435792
0.000428355
0.000421178
0.000414617
0.000408176
0.00947863
0.00539464
0.00361892
0.00279676
0.00231358
0.00199145
0.00176049
0.00158676
0.00145105
0.00134224
0.00125305
0.0011787
0.00111573
0.00106176
0.00101494
0.000973976
0.000937768
0.00090559
0.000876723
0.000850758
0.000827178
0.000805769
0.000786121
0.000768155
0.000751511
0.00073621
0.000721909
0.000708708
0.000696263
0.000684735
0.00067377
0.000663567
0.00065379
0.0106282
0.0077634
0.00561756
0.00439956
0.00363522
0.00311496
0.00273997
0.0024579
0.00223822
0.00206258
0.00191909
0.00179982
0.00169916
0.00161315
0.00153881
0.00147397
0.00141689
0.00136632
0.00132114
0.00128061
0.00124396
0.00121076
0.00118045
0.00115276
0.00112725
0.00110379
0.00108203
0.00106189
0.00104308
0.00102558
0.00100912
0.000993724
0.00097916
0.0110845
0.00948062
0.00757881
0.00621462
0.00525
0.00454844
0.00402207
0.00361581
0.00329415
0.00303404
0.00281986
0.00264081
0.0024891
0.00235911
0.00224655
0.00214826
0.00206171
0.001985
0.00191653
0.00185511
0.00179967
0.00174945
0.0017037
0.00166192
0.00162356
0.00158827
0.00155565
0.00152546
0.00149738
0.00147124
0.00144679
0.00142393
0.00140242
0.0112619
0.0104723
0.00911496
0.00788286
0.00688557
0.00609514
0.00546645
0.00496065
0.00454794
0.00420654
0.00392048
0.003678
0.0034703
0.00329072
0.00313412
0.00299655
0.00287483
0.00276649
0.00266949
0.00258223
0.00250332
0.00243168
0.00236636
0.00230661
0.00225173
0.0022012
0.0021545
0.00211125
0.00207106
0.00203364
0.0019987
0.00196601
0.00193535
0.0113319
0.0109613
0.0101483
0.00919368
0.00831236
0.00754597
0.00689415
0.00634289
0.00587565
0.00547744
0.00513576
0.00484048
0.00458348
0.00435829
0.00415971
0.00398356
0.00382644
0.00368558
0.00355871
0.00344394
0.00333968
0.00324463
0.00315767
0.00307786
0.00300437
0.00293652
0.0028737
0.00281541
0.00276117
0.0027106
0.00266335
0.00261911
0.00257762
0.0113604
0.011191
0.0107577
0.0101061
0.00941912
0.00876179
0.00816143
0.00762515
0.00715071
0.0067323
0.00636312
0.00603663
0.00574692
0.00548885
0.00525806
0.00505083
0.00486401
0.00469496
0.00454144
0.00440155
0.00427365
0.00415638
0.00404851
0.00394905
0.00385709
0.00377187
0.0036927
0.003619
0.00355025
0.00348599
0.00342582
0.00336939
0.00331639
0.0113724
0.0112961
0.0110835
0.0106835
0.0102001
0.00969075
0.00919015
0.00871656
0.00827792
0.00787638
0.00751102
0.00717947
0.00687877
0.00660587
0.00635782
0.00613193
0.00592576
0.00573715
0.00556418
0.00540518
0.00525867
0.00512338
0.00499815
0.004882
0.00477404
0.00467351
0.00457971
0.00449205
0.00440997
0.004333
0.00426072
0.00419274
0.00412873
0.0113776
0.0113432
0.0112429
0.0110225
0.0107093
0.010347
0.00996381
0.0095792
0.00920549
0.00884962
0.00851496
0.0082027
0.00791267
0.007644
0.0073954
0.00716543
0.00695261
0.00675551
0.00657276
0.0064031
0.00624538
0.00609854
0.00596162
0.00583378
0.00571423
0.00560227
0.00549727
0.00539867
0.00530595
0.00521865
0.00513637
0.00505872
0.00498537
0.01138
0.0113641
0.0113177
0.0112066
0.0110186
0.0107798
0.0105077
0.0102177
0.00992165
0.00962789
0.0093419
0.00906704
0.00880518
0.0085572
0.00832327
0.00810316
0.00789638
0.00770227
0.00752011
0.00734915
0.00718865
0.00703788
0.00689615
0.00676281
0.00663727
0.00651895
0.00640735
0.00630197
0.0062024
0.00610821
0.00601905
0.00593458
0.00585449
0.0113814
0.0113732
0.0113518
0.0112994
0.0111948
0.0110479
0.0108673
0.0106628
0.0104433
0.010216
0.00998659
0.00975918
0.00953663
0.00932089
0.00911314
0.00891408
0.00872401
0.00854299
0.00837089
0.00820745
0.00805235
0.00790524
0.00776571
0.00763336
0.00750781
0.00738866
0.00727555
0.00716812
0.00706604
0.00696899
0.00687668
0.00678883
0.00670518
0.0113823
0.0113772
0.011367
0.0113426
0.0112898
0.0112045
0.0110919
0.0109563
0.0108031
0.0106375
0.010464
0.0102863
0.0101076
0.00992993
0.00975513
0.00958437
0.0094185
0.00925805
0.00910337
0.0089546
0.0088118
0.00867492
0.00854383
0.0084184
0.00829842
0.00818371
0.00807405
0.00796922
0.00786901
0.0077732
0.00768158
0.00759397
0.00751016
0.0113826
0.0113796
0.0113738
0.0113622
0.0113373
0.011291
0.0112247
0.0111398
0.0110388
0.0109247
0.0108005
0.0106691
0.0105329
0.0103941
0.0102543
0.010115
0.00997716
0.00984165
0.00970905
0.00957979
0.00945418
0.00933241
0.0092146
0.00910079
0.00899097
0.00888512
0.00878317
0.00868502
0.00859057
0.00849973
0.00841237
0.00832837
0.00824761
0.0113825
0.0113808
0.0113772
0.011371
0.0113592
0.0113362
0.0112992
0.0112488
0.0111857
0.0111111
0.0110267
0.0109344
0.0108358
0.0107325
0.0106261
0.0105178
0.0104085
0.0102992
0.0101906
0.0100832
0.00997743
0.00987368
0.00977219
0.00967315
0.00957669
0.0094829
0.00939182
0.00930348
0.00921788
0.009135
0.0090548
0.00897724
0.00890226
0.0113825
0.0113812
0.0113791
0.0113752
0.0113691
0.0113581
0.0113388
0.0113103
0.0112727
0.0112264
0.0111719
0.0111101
0.0110421
0.0109689
0.0108916
0.0108111
0.0107284
0.0106441
0.0105589
0.0104734
0.0103881
0.0103033
0.0102194
0.0101366
0.0100552
0.00997526
0.00989698
0.00982044
0.0097457
0.00967282
0.00960183
0.00953274
0.00946555
0.0113825
0.0113813
0.0113798
0.0113776
0.0113737
0.011368
0.0113586
0.0113433
0.0113219
0.0112944
0.0112608
0.0112213
0.0111765
0.011127
0.0110734
0.0110162
0.0109562
0.010894
0.01083
0.0107647
0.0106987
0.0106321
0.0105654
0.0104989
0.0104327
0.0103672
0.0103023
0.0102384
0.0101754
0.0101136
0.0100529
0.00999342
0.00993522
0.0113824
0.0113813
0.01138
0.0113785
0.0113762
0.0113727
0.0113676
0.0113599
0.0113483
0.0113326
0.0113127
0.0112886
0.0112604
0.0112283
0.0111927
0.0111538
0.0111121
0.011068
0.0110219
0.0109741
0.0109249
0.0108746
0.0108236
0.0107721
0.0107203
0.0106683
0.0106165
0.0105649
0.0105136
0.0104628
0.0104126
0.010363
0.0103142
0.0113824
0.0113813
0.0113801
0.0113788
0.0113773
0.0113751
0.0113721
0.0113676
0.0113616
0.0113531
0.0113418
0.0113275
0.0113104
0.0112904
0.0112677
0.0112423
0.0112145
0.0111844
0.0111524
0.0111186
0.0110833
0.0110467
0.011009
0.0109704
0.0109311
0.0108913
0.0108512
0.0108108
0.0107702
0.0107297
0.0106894
0.0106492
0.0106092
0.0113824
0.0113812
0.0113801
0.0113789
0.0113776
0.0113761
0.0113742
0.0113716
0.011368
0.0113633
0.0113572
0.0113489
0.0113389
0.0113268
0.0113127
0.0112967
0.0112787
0.0112588
0.0112373
0.0112141
0.0111895
0.0111636
0.0111365
0.0111083
0.0110793
0.0110495
0.0110191
0.0109882
0.0109568
0.0109252
0.0108933
0.0108613
0.0108293
0.0113824
0.0113812
0.0113801
0.0113789
0.0113778
0.0113765
0.0113751
0.0113734
0.0113712
0.0113684
0.0113646
0.01136
0.0113543
0.011347
0.0113384
0.0113284
0.0113169
0.0113039
0.0112896
0.0112739
0.0112569
0.0112387
0.0112193
0.011199
0.0111776
0.0111555
0.0111325
0.011109
0.0110848
0.0110601
0.011035
0.0110096
0.010984
0.0113824
0.0113812
0.0113801
0.0113789
0.0113778
0.0113766
0.0113754
0.0113741
0.0113726
0.0113707
0.0113683
0.0113653
0.0113615
0.0113571
0.0113517
0.0113452
0.0113376
0.0113288
0.0113189
0.0113078
0.0112957
0.0112824
0.0112681
0.0112528
0.0112366
0.0112195
0.0112017
0.0111831
0.0111638
0.011144
0.0111236
0.0111028
0.0110815
0.0113824
0.0113812
0.0113801
0.0113789
0.0113778
0.0113767
0.0113755
0.0113743
0.011373
0.0113715
0.0113696
0.0113674
0.0113644
0.0113609
0.011357
0.0113521
0.0113461
0.0113392
0.0113314
0.0113225
0.0113126
0.0113017
0.0112898
0.011277
0.0112633
0.0112488
0.0112334
0.0112173
0.0112006
0.0111832
0.0111652
0.0111467
0.0111278
0.0113824
0.0113812
0.0113801
0.0113789
0.0113778
0.0113766
0.0113755
0.0113742
0.0113729
0.0113712
0.0113693
0.0113668
0.0113637
0.0113601
0.011356
0.0113507
0.0113446
0.0113375
0.0113294
0.0113204
0.0113103
0.0112992
0.0112872
0.0112743
0.0112604
0.0112458
0.0112303
0.0112141
0.0111972
0.0111797
0.0111617
0.0111431
0.0111241
0.0113824
0.0113812
0.0113801
0.0113789
0.0113778
0.0113766
0.0113753
0.0113738
0.0113719
0.0113697
0.0113669
0.0113633
0.0113591
0.0113538
0.0113475
0.0113402
0.0113317
0.0113221
0.0113114
0.0112996
0.0112867
0.0112727
0.0112577
0.0112418
0.011225
0.0112073
0.0111889
0.0111698
0.0111501
0.0111298
0.011109
0.0110878
0.0110661
0.0113824
0.0113812
0.0113801
0.0113789
0.0113777
0.0113763
0.0113745
0.0113723
0.0113693
0.0113655
0.0113608
0.0113545
0.0113468
0.0113377
0.0113272
0.0113151
0.0113015
0.0112865
0.01127
0.0112523
0.0112333
0.0112132
0.011192
0.0111699
0.0111468
0.0111231
0.0110986
0.0110735
0.0110479
0.0110219
0.0109955
0.0109688
0.0109419
0.0113824
0.0113813
0.0113801
0.0113789
0.0113773
0.0113753
0.0113724
0.0113683
0.011363
0.0113555
0.0113458
0.0113338
0.0113196
0.0113031
0.0112845
0.0112637
0.0112409
0.0112163
0.01119
0.0111622
0.0111331
0.0111028
0.0110715
0.0110393
0.0110063
0.0109728
0.0109388
0.0109044
0.0108698
0.0108349
0.0108
0.0107651
0.0107302
0.0113825
0.0113813
0.0113801
0.0113784
0.011376
0.0113722
0.0113667
0.0113583
0.0113461
0.0113304
0.0113111
0.0112881
0.0112616
0.0112318
0.011199
0.0111635
0.0111257
0.0110857
0.011044
0.0110009
0.0109565
0.0109111
0.0108651
0.0108185
0.0107716
0.0107245
0.0106773
0.0106303
0.0105834
0.0105368
0.0104906
0.0104448
0.0103996
0.0113825
0.0113814
0.0113798
0.0113765
0.011372
0.011364
0.0113499
0.0113298
0.0113037
0.0112714
0.0112333
0.0111899
0.0111418
0.0110896
0.0110339
0.0109753
0.0109144
0.0108517
0.0107878
0.0107229
0.0106575
0.0105919
0.0105263
0.010461
0.0103962
0.010332
0.0102686
0.010206
0.0101444
0.0100837
0.0100242
0.0099658
0.00990853
0.0113826
0.011381
0.0113775
0.0113716
0.0113594
0.0113357
0.0113013
0.0112563
0.0112012
0.0111371
0.0110652
0.0109869
0.0109036
0.0108164
0.0107263
0.0106345
0.0105415
0.0104482
0.010355
0.0102625
0.0101709
0.0100807
0.00999191
0.00990485
0.0098196
0.00973626
0.0096549
0.00957556
0.00949825
0.00942298
0.00934974
0.00927851
0.00920925
0.0113825
0.0113788
0.0113715
0.0113527
0.0113123
0.0112512
0.0111713
0.0110751
0.0109656
0.0108458
0.0107187
0.0105868
0.0104521
0.0103163
0.0101807
0.0100464
0.0099142
0.00978461
0.0096581
0.00953494
0.00941533
0.00929938
0.00918713
0.0090786
0.00897374
0.0088725
0.00877479
0.00868053
0.0085896
0.00850191
0.00841733
0.00833576
0.00825708
0.0113813
0.0113725
0.0113446
0.0112755
0.0111624
0.0110161
0.0108447
0.0106562
0.0104574
0.0102539
0.0100496
0.00984759
0.00964987
0.00945783
0.00927233
0.00909388
0.00892271
0.00875888
0.00860229
0.00845278
0.00831011
0.00817402
0.00804421
0.00792039
0.00780226
0.00768953
0.00758191
0.00747912
0.00738091
0.00728701
0.0071972
0.00711125
0.00702895
0.0113782
0.0113392
0.0112229
0.0110038
0.0107266
0.0104167
0.0100938
0.00977088
0.00945631
0.00915473
0.00886847
0.00859844
0.00834473
0.0081069
0.00788423
0.00767584
0.0074808
0.00729817
0.00712704
0.00696653
0.00681584
0.00667422
0.00654096
0.00641543
0.00629704
0.00618527
0.00607961
0.00597963
0.00588492
0.0057951
0.00570983
0.0056288
0.00555172
0.0113586
0.011167
0.0107276
0.0101788
0.00961591
0.00907913
0.00858445
0.00813532
0.00773015
0.00736507
0.0070357
0.00673806
0.00646846
0.00622361
0.00600061
0.00579694
0.00561039
0.00543907
0.0052813
0.00513565
0.00500085
0.00487582
0.00475957
0.00465127
0.00455016
0.0044556
0.004367
0.00428383
0.00420563
0.004132
0.00406256
0.00399698
0.00393495
0.0112033
0.010286
0.00914596
0.00815385
0.00734259
0.00668178
0.00613782
0.00568277
0.00529723
0.00496617
0.00467942
0.0044291
0.00420901
0.00401425
0.00384087
0.00368569
0.0035461
0.00341996
0.00330548
0.00320118
0.0031058
0.00301828
0.00293771
0.00286334
0.00279448
0.00273057
0.00267111
0.00261566
0.00256384
0.00251531
0.00246977
0.00242698
0.00238668
0.00988212
0.00703463
0.00556295
0.00467247
0.00408052
0.00363708
0.00328471
0.0029951
0.00275426
0.00255229
0.00238143
0.00223562
0.00211013
0.00200124
0.00190603
0.00182219
0.00174785
0.00168155
0.00162207
0.00156843
0.00151982
0.00147559
0.00143516
0.00139808
0.00136394
0.00133242
0.00130323
0.00127611
0.00125086
0.00122729
0.00120523
0.00118456
0.00116514
0.00388335
0.00236715
0.00190983
0.00162451
0.00144089
0.0012837
0.00115041
0.00104218
0.000954483
0.000882867
0.000823743
0.000774363
0.00073264
0.000697014
0.000666295
0.000639586
0.000616175
0.000595518
0.000577169
0.000560784
0.000546068
0.000532798
0.00052077
0.000509835
0.000499846
0.000490702
0.000482292
0.00047455
0.000467386
0.000460761
0.000454595
0.000448871
0.000443515
0.000128162
0.00013943
0.0001503
0.000159954
0.000168408
0.000175845
0.000182401
0.000188179
0.000193265
0.000197736
0.000201662
0.000205105
0.00020812
0.000210754
0.000213053
0.000215055
0.000216795
0.000218302
0.000219604
0.000220726
0.000221688
0.000222509
0.000223205
0.000223792
0.000224282
0.000224687
0.000225016
0.000225279
0.000225484
0.000225637
0.000225745
0.000225813
0.000225846
8.48038e-05
0.000100125
0.000125473
0.000159156
0.000199478
0.000244808
0.000292788
0.000340888
0.000387185
0.000430833
0.000471395
0.000509057
0.000544238
0.000577466
0.000609297
0.000640122
0.000670302
0.000699954
0.000729281
0.000758279
0.000786974
0.000815339
0.000843441
0.000871284
0.000898941
0.000926498
0.000953986
0.000981441
0.00100887
0.00103631
0.00106376
0.00109119
0.00111889
0.00114668
0.00117451
0.00120238
0.00123029
0.00125829
0.00128635
0.00131462
0.00134316
0.00137202
0.00140127
0.00143097
0.00146122
0.00149217
0.00152396
0.00155674
0.00159069
0.00162598
0.00166283
0.00170145
0.00174206
0.0017849
0.0018302
0.00187819
0.00192909
0.00198311
0.00204045
0.00210127
0.00216571
0.00223385
0.00230576
0.00238143
0.00246084
0.00254387
0.00263041
0.00272025
0.00281319
0.00290892
0.0030072
0.00310763
0.00320996
0.00331369
0.00341864
0.00352421
0.00363026
0.00373625
0.00384182
0.00394671
0.00405049
0.00415284
0.00425332
0.00435184
0.00444797
0.00454149
0.00463214
0.00471979
0.00480411
0.00488521
0.00496248
0.00503665
0.00510631
0.00517353
0.0052344
0.00529609
0.00534586
0.00540612
0.00543981
0.00550931
0.000133013
0.000134116
0.000137369
0.00014426
0.000154658
0.000168935
0.000187577
0.000210053
0.000236221
0.00026543
0.000296386
0.000329763
0.000364898
0.000401341
0.000438497
0.00047567
0.0005124
0.000548172
0.000583115
0.000616898
0.000649665
0.000681499
0.00071267
0.000743184
0.000773194
0.000802838
0.000832131
0.000861153
0.000889965
0.000918642
0.000947245
0.000975789
0.00100437
0.00103302
0.00106178
0.00109066
0.0011197
0.00114894
0.00117843
0.00120822
0.00123841
0.00126907
0.0013003
0.00133221
0.0013649
0.0013985
0.00143317
0.00146908
0.00150639
0.0015453
0.001586
0.00162871
0.00167364
0.00172101
0.00177103
0.0018239
0.00187984
0.001939
0.00200154
0.00206757
0.00213719
0.00221043
0.00228729
0.00236772
0.00245164
0.00253888
0.00262928
0.0027226
0.00281863
0.00291701
0.00301753
0.00311978
0.00322353
0.00332829
0.00343397
0.00353989
0.00364617
0.00375208
0.00385743
0.00396205
0.00406547
0.00416739
0.00426745
0.00436566
0.00446151
0.00455483
0.00464539
0.00473306
0.00481753
0.00489888
0.00497655
0.00505123
0.00512158
0.00518932
0.0052513
0.00531335
0.00536511
0.0054247
0.00546214
0.00553164
0.000228941
0.000224921
0.00022084
0.00021738
0.00021521
0.000214866
0.000217096
0.000221849
0.000229152
0.000239405
0.000252585
0.000269018
0.000288748
0.000311638
0.000337483
0.000365886
0.000396184
0.000427877
0.000460902
0.000493109
0.000525696
0.000558385
0.00059116
0.000623337
0.000655362
0.000687029
0.000718127
0.000748882
0.000779367
0.000809698
0.000839896
0.00087003
0.00090016
0.000930354
0.000960677
0.000991195
0.00102197
0.00105308
0.00108459
0.00111658
0.00114915
0.00118239
0.00121642
0.00125135
0.00128732
0.00132446
0.00136293
0.00140289
0.00144454
0.00148804
0.00153359
0.00158139
0.00163163
0.00168451
0.00174021
0.00179889
0.00186071
0.00192579
0.00199423
0.00206608
0.00214135
0.00222003
0.00230205
0.00238729
0.0024756
0.00256679
0.00266065
0.00275689
0.0028553
0.00295552
0.00305734
0.00316035
0.00326438
0.00336895
0.0034741
0.00357906
0.00368428
0.0037887
0.00389251
0.00399554
0.00409726
0.00419743
0.0042958
0.00439252
0.00448689
0.0045789
0.00466831
0.004755
0.00483868
0.00491941
0.00499666
0.0050711
0.00514143
0.00520898
0.00527153
0.00533331
0.00538673
0.00544494
0.00548592
0.00555474
0.000401254
0.000393447
0.000385481
0.000377708
0.000370563
0.000364124
0.000358714
0.000354307
0.000351081
0.000348716
0.000347506
0.000347579
0.000349621
0.00035382
0.000360984
0.000371033
0.000384689
0.000401234
0.000421523
0.000444119
0.000469314
0.00049546
0.00052389
0.000551823
0.000582365
0.000611748
0.000640845
0.000670956
0.000701464
0.000732261
0.000763097
0.000794159
0.000825424
0.000856959
0.000888832
0.000921117
0.000953886
0.000987219
0.0010212
0.00105592
0.00109148
0.00112798
0.00116554
0.00120429
0.00124436
0.00128591
0.00132907
0.00137402
0.00142093
0.00146995
0.00152128
0.00157507
0.00163148
0.00169068
0.0017528
0.00181795
0.00188621
0.00195765
0.00203229
0.00211011
0.00219105
0.00227502
0.00236188
0.00245144
0.00254352
0.00263786
0.00273423
0.00283232
0.00293192
0.00303264
0.00313437
0.00323664
0.00333939
0.00344215
0.00354514
0.00364745
0.00375
0.00385113
0.00395177
0.00405161
0.00414994
0.00424671
0.00434187
0.00443567
0.00452709
0.00461641
0.00470338
0.00478787
0.00486963
0.00494866
0.00502451
0.00509782
0.0051672
0.00523372
0.0052962
0.00535697
0.00541158
0.0054676
0.00551176
0.0055792
0.000643079
0.000631258
0.000619579
0.000608202
0.000597558
0.000587605
0.000578529
0.000570095
0.000562407
0.000555112
0.00054839
0.000541928
0.000536168
0.000530881
0.000526749
0.000523559
0.000522222
0.000522444
0.000525288
0.000530388
0.000538737
0.000549522
0.000563821
0.000580419
0.000600332
0.00062244
0.000647085
0.000671962
0.000699723
0.00072738
0.000755304
0.000784726
0.000814865
0.000845981
0.000878044
0.000911056
0.000945041
0.000980042
0.00101612
0.00105334
0.0010918
0.00113159
0.00117281
0.00121559
0.00126005
0.00130632
0.00135454
0.00140485
0.0014574
0.00151232
0.00156975
0.00162982
0.00169264
0.0017583
0.00182687
0.00189841
0.00197292
0.00205038
0.00213074
0.0022139
0.00229973
0.00238806
0.00247869
0.00257138
0.0026659
0.00276195
0.00285929
0.00295759
0.00305669
0.00315613
0.00325593
0.00335555
0.00345508
0.0035541
0.00365298
0.00375068
0.00384867
0.00394432
0.00404005
0.00413479
0.00422769
0.00431933
0.00440946
0.00449831
0.00458525
0.0046703
0.00475332
0.00483417
0.00491265
0.0049887
0.00506197
0.0051328
0.00520044
0.00526513
0.00532654
0.00538542
0.00544066
0.00549347
0.00554025
0.00560572
0.000963178
0.00094572
0.000928772
0.000912396
0.000896981
0.000882492
0.000869064
0.000856438
0.000844676
0.000833434
0.000822865
0.000812667
0.000803127
0.00079396
0.000785553
0.000777627
0.000770672
0.000764457
0.000759553
0.000755655
0.000753508
0.000752832
0.000754425
0.000757998
0.000764323
0.000773037
0.000784953
0.000799191
0.000816551
0.000836449
0.000859167
0.000883373
0.000909678
0.000937982
0.000967936
0.000999526
0.00103275
0.00106763
0.00110419
0.00114247
0.00118253
0.00122445
0.0012683
0.00131416
0.00136215
0.00141234
0.00146486
0.00151979
0.00157724
0.0016373
0.00170004
0.00176554
0.00183383
0.00190495
0.0019789
0.00205563
0.0021351
0.00221719
0.00230178
0.00238869
0.00247773
0.00256867
0.00266125
0.00275519
0.00285021
0.00294601
0.00304234
0.00313884
0.00323538
0.00333148
0.00342728
0.00352213
0.00361636
0.00370959
0.00380228
0.00389334
0.00398476
0.00407336
0.00416136
0.00424857
0.00433431
0.00441883
0.00450199
0.00458402
0.00466455
0.00474355
0.00482089
0.00489645
0.00497009
0.00504168
0.00511101
0.0051781
0.00524274
0.00530446
0.00536384
0.00541988
0.00547435
0.00552403
0.00557191
0.00563524
0.00137887
0.0013533
0.00132869
0.00130506
0.00128272
0.00126165
0.00124192
0.00122332
0.00120585
0.00118924
0.00117357
0.00115863
0.00114459
0.00113128
0.00111892
0.00110731
0.00109673
0.00108701
0.00107847
0.00107094
0.00106478
0.00105985
0.00105653
0.00105479
0.00105495
0.00105699
0.00106132
0.00106806
0.00107702
0.00108841
0.00110271
0.00111965
0.00113926
0.00116164
0.00118651
0.00121384
0.00124362
0.0012758
0.00131041
0.00134743
0.00138689
0.00142882
0.00147324
0.00152022
0.00156979
0.00162201
0.00167693
0.00173459
0.00179505
0.00185832
0.00192442
0.00199336
0.00206511
0.00213962
0.00221682
0.00229659
0.00237882
0.00246332
0.00254989
0.0026383
0.0027283
0.0028196
0.0029119
0.00300489
0.00309825
0.00319166
0.00328486
0.0033775
0.00346945
0.00356018
0.00365002
0.00373803
0.00382509
0.00391069
0.00399607
0.00407819
0.00416005
0.00423989
0.00431854
0.00439625
0.00447272
0.00454809
0.00462231
0.00469557
0.00476775
0.00483878
0.00490861
0.00497711
0.00504421
0.00510972
0.00517359
0.0052355
0.00529577
0.00535321
0.00540941
0.0054615
0.00551431
0.00555959
0.00560844
0.00566769
0.00190181
0.0018655
0.00183068
0.00179735
0.00176571
0.00173574
0.00170748
0.00168075
0.0016555
0.00163153
0.00160886
0.00158734
0.00156707
0.00154794
0.0015301
0.00151344
0.00149814
0.00148409
0.00147152
0.00146031
0.00145071
0.00144256
0.00143622
0.00143164
0.00142854
0.00142745
0.00142836
0.00143144
0.0014367
0.00144418
0.0014541
0.00146657
0.00148162
0.00149939
0.00151991
0.00154319
0.00156927
0.00159817
0.0016299
0.00166449
0.00170197
0.00174236
0.00178568
0.00183195
0.0018812
0.00193345
0.00198869
0.00204695
0.0021082
0.00217242
0.00223958
0.00230961
0.00238243
0.00245793
0.00253597
0.00261638
0.00269896
0.00278348
0.00286969
0.0029573
0.00304601
0.00313548
0.00322538
0.00331536
0.0034051
0.00349424
0.0035825
0.00366954
0.00375517
0.00383888
0.00392114
0.00400064
0.00408013
0.0041567
0.0042315
0.00430382
0.00437493
0.0044442
0.00451196
0.00457856
0.00464401
0.00470845
0.00477193
0.00483465
0.00489663
0.00495786
0.00501836
0.00507803
0.00513686
0.0051946
0.00525138
0.00530659
0.005361
0.00541275
0.00546451
0.0055114
0.00556154
0.00560108
0.00565047
0.00570382
0.00253224
0.0024831
0.00243601
0.00239093
0.00234798
0.00230714
0.00226839
0.00223159
0.00219667
0.00216348
0.00213199
0.00210208
0.00207382
0.00204713
0.00202211
0.00199871
0.00197704
0.00195707
0.00193896
0.00192264
0.00190832
0.00189587
0.00188554
0.00187716
0.00187137
0.00186701
0.00186487
0.00186526
0.00186788
0.00187288
0.00188027
0.00189018
0.00190265
0.00191777
0.00193563
0.00195629
0.0019798
0.00200622
0.0020356
0.00206799
0.00210343
0.00214195
0.00218359
0.00222836
0.00227628
0.00232736
0.00238158
0.00243893
0.00249936
0.00256281
0.00262921
0.00269845
0.00277041
0.00284492
0.0029218
0.00300084
0.00308179
0.00316438
0.0032483
0.00333323
0.00341882
0.00350471
0.00359055
0.00367594
0.00376054
0.003844
0.00392599
0.00400618
0.00408424
0.00415981
0.00423347
0.0043056
0.00437429
0.00444059
0.00450471
0.00456619
0.00462578
0.00468339
0.00473922
0.00479366
0.00484687
0.00489908
0.00495045
0.0050012
0.00505148
0.00510136
0.00515093
0.00520013
0.00524907
0.00529742
0.00534553
0.00539248
0.00543954
0.00548413
0.0055301
0.00557047
0.00561682
0.00564928
0.0056985
0.00574422
0.00325834
0.00319539
0.00313495
0.003077
0.00302157
0.00296864
0.00291816
0.00287003
0.00282417
0.00278044
0.0027388
0.00269917
0.00266156
0.00262594
0.00259236
0.0025608
0.00253136
0.00250402
0.00247892
0.00245603
0.00243551
0.00241728
0.00240157
0.00238814
0.00237747
0.00236912
0.00236371
0.00236003
0.00235915
0.00236117
0.00236567
0.00237293
0.00238286
0.00239556
0.00241108
0.00242946
0.00245077
0.00247504
0.00250232
0.00253266
0.00256609
0.00260266
0.00264239
0.00268529
0.00273138
0.00278064
0.00283305
0.00288858
0.00294716
0.00300872
0.00307314
0.0031403
0.00321004
0.00328218
0.00335648
0.0034327
0.00351057
0.00358978
0.00367
0.00375087
0.00383202
0.00391306
0.00399364
0.00407331
0.00415174
0.00422857
0.00430341
0.00437589
0.00444552
0.00451307
0.00457856
0.00464027
0.004699
0.00475479
0.00480792
0.00485818
0.004906
0.00495156
0.00499507
0.00503689
0.00507731
0.00511663
0.00515511
0.00519302
0.00523061
0.00526803
0.00530548
0.00534294
0.00538063
0.00541821
0.00545623
0.00549353
0.00553182
0.00556785
0.00560667
0.0056392
0.00568055
0.00570469
0.0057527
0.0057892
0.00405848
0.00398207
0.00390851
0.00383775
0.00376981
0.00370464
0.0036422
0.00358241
0.00352518
0.00347042
0.00341808
0.00336809
0.00332046
0.00327516
0.00323222
0.00319166
0.00315353
0.00311786
0.00308475
0.0030542
0.00302636
0.00300116
0.00297881
0.00295914
0.00294246
0.00292846
0.00291768
0.00290935
0.00290463
0.00290182
0.0029021
0.00290578
0.00291213
0.00292158
0.00293401
0.00294943
0.00296792
0.00298948
0.00301413
0.00304192
0.00307285
0.00310695
0.00314423
0.00318468
0.00322829
0.00327505
0.00332492
0.00337783
0.00343371
0.00349246
0.00355394
0.00361801
0.00368449
0.00375316
0.00382378
0.00389607
0.00396975
0.00404448
0.00411991
0.00419568
0.00427136
0.0043466
0.00442102
0.00449412
0.00456564
0.00463515
0.00470219
0.00476627
0.0048281
0.00488742
0.00494285
0.00499495
0.00504369
0.00508909
0.00513138
0.00517052
0.00520682
0.00524051
0.00527186
0.00530122
0.00532892
0.00535533
0.00538079
0.00540561
0.00543013
0.00545458
0.00547926
0.00550419
0.00552976
0.00555557
0.0055824
0.00560891
0.00563724
0.00566349
0.00569393
0.00571744
0.00575256
0.00576734
0.00581275
0.00583871
0.00490463
0.00481648
0.00473131
0.00464907
0.00456976
0.00449335
0.0044198
0.00434905
0.00428104
0.0042157
0.00415299
0.00409286
0.00403532
0.00398035
0.00392798
0.00387824
0.00383117
0.00378682
0.00374527
0.00370656
0.00367078
0.00363794
0.00360818
0.00358141
0.00355785
0.00353729
0.00352011
0.00350581
0.00349516
0.00348707
0.00348308
0.00348134
0.00348257
0.00348782
0.00349596
0.0035073
0.00352194
0.00353975
0.00356076
0.00358502
0.00361252
0.00364322
0.00367713
0.00371422
0.00375446
0.00379781
0.00384421
0.00389357
0.0039458
0.00400077
0.00405834
0.00411832
0.00418053
0.00424472
0.00431064
0.00437799
0.00444647
0.00451573
0.00458542
0.00465514
0.00472446
0.00479307
0.00486055
0.00492634
0.00499034
0.0050519
0.00511047
0.00516687
0.00522029
0.00526992
0.00531605
0.00535858
0.00539748
0.00543275
0.00546457
0.00549299
0.00551826
0.00554064
0.00556038
0.00557785
0.0055934
0.00560742
0.00562028
0.00563236
0.00564405
0.00565562
0.00566748
0.0056797
0.00569279
0.00570635
0.00572138
0.00573637
0.00575391
0.00576949
0.00579054
0.00580407
0.00583182
0.00583649
0.00587759
0.00589219
0.00576601
0.005669
0.00557485
0.00548355
0.00539509
0.00530947
0.00522666
0.00514664
0.00506936
0.0049948
0.00492292
0.00485372
0.00478719
0.00472335
0.00466222
0.00460385
0.00454828
0.00449557
0.0044458
0.00439901
0.00435531
0.00431471
0.00427733
0.00424314
0.0042123
0.00418469
0.00416056
0.00413962
0.00412233
0.00410812
0.00409767
0.00409038
0.00408647
0.00408619
0.00408851
0.00409474
0.00410453
0.00411741
0.00413366
0.00415334
0.0041763
0.0042025
0.00423193
0.00426458
0.00430037
0.00433923
0.0043811
0.00442584
0.00447335
0.00452348
0.00457606
0.0046309
0.00468779
0.00474644
0.00480661
0.004868
0.00493029
0.00499308
0.00505608
0.00511882
0.00518088
0.00524207
0.00530182
0.00535955
0.00541541
0.00546825
0.00551916
0.00556647
0.0056105
0.00565095
0.00568773
0.00572074
0.00574995
0.00577536
0.00579712
0.00581532
0.00583016
0.00584189
0.00585078
0.00585717
0.00586141
0.00586389
0.005865
0.00586512
0.00586469
0.00586402
0.00586357
0.00586345
0.00586427
0.00586567
0.00586881
0.00587206
0.00587843
0.00588288
0.00589387
0.00589685
0.00591624
0.00591043
0.00594552
0.00594823
0.0066124
0.00651017
0.00641048
0.00631333
0.00621874
0.00612673
0.00603731
0.00595048
0.00586623
0.00578457
0.00570549
0.005629
0.00555514
0.00548392
0.00541539
0.0053496
0.00528661
0.00522649
0.00516932
0.00511517
0.00506412
0.00501622
0.00497157
0.00493019
0.0048922
0.00485754
0.00482639
0.00479861
0.00477443
0.00475362
0.00473645
0.00472276
0.0047125
0.00470597
0.00470249
0.00470303
0.00470676
0.00471345
0.00472407
0.00473828
0.00475564
0.00477621
0.00480013
0.00482726
0.00485751
0.0048908
0.00492703
0.00496604
0.00500772
0.0050519
0.0050984
0.00514699
0.00519746
0.00524948
0.00530285
0.00535723
0.00541228
0.00546761
0.00552295
0.0055777
0.00563162
0.00568463
0.00573573
0.00578464
0.00583203
0.00587612
0.00591745
0.00595552
0.00599017
0.00602121
0.00604849
0.00607195
0.00609155
0.00610732
0.00611935
0.00612776
0.00613272
0.00613448
0.0061333
0.00612947
0.00612334
0.00611527
0.00610566
0.00609488
0.00608336
0.00607143
0.00605959
0.00604796
0.00603724
0.00602705
0.00601874
0.00601054