/*--------------------------------*- C++ -*----------------------------------*\
  =========                 |
  \\      /  F ield         | OpenFOAM: The Open Source CFD Toolbox
   \\    /   O peration     | Website:  https://openfoam.org
    \\  /    A nd           | Version:  10
     \\/     M anipulation  |
\*---------------------------------------------------------------------------*/
FoamFile
{
    format      ascii;
    class       volScalarField;
    location    "1400";
    object      omega;
}
// * * * * * * * * * * * * * * * * * * * * * * * * * * * * * * * * * * * * * //

dimensions      [0 0 -1 0 0 0 0];

internalField   nonuniform List<scalar> 
6820
(
6119.65
8495.53
9975.17
10745.8
11095.1
11205.2
11181.5
11085.3
10953.1
10806.8
10658.4
10514.8
10379.1
10252.8
10136.1
10028.7
9930.07
9839.5
9756.25
9679.62
9608.96
9543.68
9483.23
9427.14
9374.99
9326.38
9280.96
9238.45
9198.42
9161.16
9123.19
9102.29
9004.81
563.863
1593.66
2118.99
2485.29
2810.04
3047.21
3202.64
3297.98
3354.17
3382.65
3395.35
3394.49
3390.55
3382.3
3371.89
3361.05
3350.53
3340.71
3331.86
3324.04
3317.31
3311.6
3306.9
3303.08
3300.12
3297.9
3296.47
3295.65
3295.81
3296.58
3298.17
3301.88
3310.88
97.8512
383.671
612.513
783.211
925.912
1044.15
1139.72
1215.41
1275.18
1321.46
1357.37
1384.53
1405.16
1420.61
1432.05
1440.37
1446.35
1450.52
1453.37
1455.22
1456.38
1457.03
1457.37
1457.5
1457.54
1457.56
1457.64
1457.79
1458.14
1458.58
1459.51
1460.47
1462.68
35.0872
109.689
194.406
270.89
340.029
401.75
456.059
503.312
544.328
579.675
610.092
636.128
658.405
677.424
693.681
707.537
719.395
729.497
738.174
745.562
751.954
757.386
762.146
766.171
769.779
772.796
775.611
777.912
780.213
782.024
784.049
785.6
787.543
22.8645
46.9745
78.9735
111.645
143.697
174.308
202.955
229.405
253.675
275.804
295.908
314.101
330.538
345.356
358.716
370.737
381.575
391.321
400.123
408.038
415.209
421.659
427.53
432.809
437.649
441.997
446.021
449.632
453.02
456.058
458.961
461.579
464.125
19.4482
28.8211
42.7198
57.8276
73.3611
88.8415
103.932
118.422
132.214
145.247
157.503
168.976
179.69
189.667
198.948
207.564
215.565
222.981
229.864
236.24
242.162
247.646
252.747
257.473
261.88
265.965
269.785
273.332
276.663
279.761
282.688
285.422
288.021
18.2937
22.3026
29.0894
36.8342
45.0409
53.4275
61.8037
70.042
78.0648
85.8188
93.2711
100.401
107.199
113.664
119.8
125.611
131.111
136.309
141.22
145.855
150.231
154.358
158.255
161.93
165.402
168.677
171.775
174.7
177.471
180.091
182.58
184.938
187.185
17.8628
19.6407
23.1435
27.4253
32.1054
36.9869
41.946
46.901
51.7981
56.5996
61.2795
65.8192
70.2077
74.4371
78.5045
82.4079
86.1493
89.73
93.1546
96.4263
99.5513
102.533
105.38
108.095
110.685
113.156
115.514
117.764
119.913
121.964
123.926
125.8
127.595
17.6921
18.5022
20.2904
22.7591
25.5623
28.5575
31.6531
34.789
37.925
41.0328
44.0924
47.0892
50.0133
52.8576
55.6174
58.2898
60.8733
63.3674
65.7727
68.0899
70.321
72.4674
74.5317
76.5161
78.4234
80.256
82.017
83.7088
85.3347
86.8971
88.3991
89.8431
91.232
17.6213
17.9912
18.8824
20.3079
22.0195
23.9107
25.9093
27.9667
30.05
32.1359
34.2079
36.254
38.2654
40.2358
42.1608
44.037
45.8624
47.6356
49.3561
51.0236
52.6384
54.2009
55.712
57.1727
58.5841
59.9474
61.264
62.5352
63.7627
64.9476
66.0918
67.1963
68.2627
17.591
17.7573
18.1874
18.9891
20.029
21.2312
22.54
23.916
25.3312
26.7655
28.2045
29.6375
31.0565
32.4559
33.8312
35.1793
36.498
37.7854
39.0407
40.263
41.452
42.6077
43.7302
44.8197
45.8768
46.902
47.8959
48.8591
49.7925
50.6968
51.5728
52.4213
53.2429
17.5777
17.6499
17.8528
18.2782
18.8974
19.6531
20.5077
21.4311
22.4002
23.3977
24.4109
25.43
26.4478
27.4588
28.4588
29.4446
30.4138
31.3647
32.296
33.2067
34.0961
34.9639
35.8098
36.6339
37.436
38.2165
38.9756
39.7135
40.4307
41.1274
41.8042
42.4615
43.0996
17.5717
17.6008
17.6934
17.9051
18.2597
18.7223
19.2706
19.8837
20.5439
21.2371
21.9523
22.6808
23.416
24.1527
24.8868
25.6153
26.3357
27.0462
27.7452
28.4318
29.105
29.7643
30.4092
31.0395
31.6551
32.2558
32.8416
33.4127
33.9692
34.5112
35.0389
35.5526
36.0524
17.5685
17.5785
17.6181
17.7167
17.9085
18.1807
18.5221
18.92
19.3623
19.8384
20.3392
20.8575
21.3874
21.9242
22.4641
23.0041
23.5418
24.0753
24.6031
25.124
25.6371
26.1416
26.6369
27.1227
27.5987
28.0645
28.5202
28.9656
29.4007
29.8255
30.24
30.6445
31.0388
17.5667
17.5684
17.5829
17.6262
17.7205
17.8733
18.0775
18.3273
18.6156
18.9354
19.2799
19.6435
20.0213
20.4092
20.8038
21.2024
21.6026
22.0027
22.4011
22.7965
23.1881
23.5749
23.9563
24.3318
24.7011
25.0637
25.4195
25.7683
26.11
26.4445
26.7717
27.0916
27.4042
17.5661
17.5629
17.5666
17.5833
17.6249
17.7047
17.8205
17.9706
18.1518
18.3599
18.5907
18.8401
19.1043
19.38
19.6645
19.9553
20.2503
20.5479
20.8466
21.1452
21.4427
21.7382
22.0312
22.321
22.6071
22.8892
23.167
23.4402
23.7087
23.9723
24.2309
24.4843
24.7326
17.5661
17.5601
17.5585
17.5631
17.5791
17.6155
17.6769
17.7623
17.8709
18.001
18.1502
18.3159
18.4957
18.6871
18.8878
19.096
19.31
19.5281
19.7492
19.9721
20.1959
20.4197
20.643
20.865
21.0854
21.3038
21.5197
21.7329
21.9431
22.1503
22.3541
22.5546
22.7515
17.5661
17.5591
17.5541
17.5533
17.5575
17.5711
17.5997
17.6448
17.7061
17.7833
17.8755
17.9813
18.0994
18.228
18.3657
18.511
18.6625
18.8191
18.9796
19.1431
19.3088
19.476
19.6439
19.8121
19.98
20.1473
20.3136
20.4787
20.6422
20.8039
20.9636
21.1213
21.2767
17.5662
17.5588
17.5523
17.5479
17.5469
17.5501
17.5603
17.5811
17.6128
17.6556
17.7093
17.7736
17.8477
17.9307
18.0218
18.1198
18.224
18.3333
18.4469
18.5641
18.6842
18.8066
18.9306
19.0559
19.1819
19.3083
19.4348
19.561
19.6867
19.8117
19.9358
20.0587
20.1804
17.5662
17.5587
17.5517
17.5456
17.5413
17.5397
17.5415
17.5482
17.5621
17.5834
17.6122
17.6487
17.6926
17.7435
17.801
17.8645
17.9334
18.0072
18.0851
18.1667
18.2515
18.3389
18.4285
18.5198
18.6126
18.7064
18.801
18.8961
18.9915
19.0869
19.1821
19.277
19.3714
17.5662
17.5587
17.5515
17.5447
17.5388
17.5344
17.5319
17.5324
17.5359
17.5442
17.5577
17.5764
17.6003
17.6295
17.6637
17.7028
17.7463
17.794
17.8455
17.9005
17.9585
18.0192
18.0822
18.1473
18.2142
18.2825
18.3521
18.4226
18.4938
18.5657
18.6379
18.7104
18.7829
17.5662
17.5587
17.5514
17.5444
17.5378
17.532
17.5272
17.5241
17.5231
17.5243
17.5283
17.5362
17.5475
17.5627
17.5815
17.604
17.63
17.6595
17.6921
17.7278
17.7663
17.8073
17.8507
17.8961
17.9434
17.9923
18.0428
18.0944
18.1472
18.2009
18.2553
18.3103
18.3659
17.5662
17.5587
17.5514
17.5442
17.5374
17.531
17.5251
17.5202
17.5164
17.5141
17.5138
17.5151
17.5189
17.5255
17.5347
17.5466
17.5613
17.5787
17.5987
17.6213
17.6464
17.6737
17.7032
17.7347
17.7681
17.8031
17.8398
17.8778
17.917
17.9574
17.9988
18.0411
18.084
17.5662
17.5587
17.5514
17.5442
17.5372
17.5306
17.5243
17.5185
17.5135
17.5094
17.5065
17.505
17.5052
17.5068
17.5105
17.5164
17.5245
17.5348
17.5473
17.5619
17.5787
17.5975
17.6184
17.6411
17.6656
17.6917
17.7195
17.7486
17.7791
17.8108
17.8436
17.8775
17.9121
17.5662
17.5587
17.5513
17.5442
17.5372
17.5304
17.524
17.518
17.5126
17.5078
17.5041
17.5014
17.5002
17.5004
17.5018
17.5051
17.5104
17.5177
17.5269
17.5381
17.5511
17.5661
17.583
17.6016
17.622
17.644
17.6675
17.6924
17.7187
17.7462
17.7749
17.8046
17.8352
17.5662
17.5587
17.5513
17.5442
17.5372
17.5305
17.5242
17.5183
17.5132
17.5088
17.5055
17.5034
17.5028
17.5035
17.5056
17.5097
17.5158
17.5238
17.5337
17.5456
17.5594
17.575
17.5925
17.6117
17.6326
17.6551
17.6791
17.7045
17.7311
17.759
17.788
17.8181
17.849
17.5662
17.5587
17.5513
17.5442
17.5374
17.5309
17.5251
17.52
17.5159
17.5131
17.5117
17.5122
17.5141
17.5183
17.5246
17.5331
17.5437
17.5566
17.5716
17.5888
17.608
17.6292
17.6522
17.677
17.7035
17.7316
17.7611
17.7919
17.824
17.8571
17.8913
17.9264
17.9624
17.5662
17.5587
17.5514
17.5444
17.5379
17.5322
17.5276
17.5243
17.523
17.5238
17.5267
17.5327
17.5416
17.5534
17.5681
17.5857
17.6061
17.6292
17.6549
17.6831
17.7135
17.7461
17.7806
17.817
17.855
17.8944
17.9353
17.9773
18.0204
18.0644
18.1093
18.1548
18.201
17.5662
17.5587
17.5516
17.5451
17.5396
17.5357
17.5342
17.5354
17.5395
17.5482
17.5612
17.5785
17.6003
17.6263
17.6565
17.6905
17.7282
17.7692
17.8134
17.8603
17.9097
17.9613
18.015
18.0703
18.1272
18.1853
18.2446
18.3048
18.3657
18.4273
18.4893
18.5516
18.6142
17.5662
17.5589
17.5522
17.5473
17.5446
17.5455
17.5504
17.5615
17.5798
17.605
17.6371
17.6761
17.7215
17.7729
17.8299
17.8918
17.9581
18.0284
18.102
18.1786
18.2577
18.3389
18.4217
18.506
18.5914
18.6776
18.7644
18.8516
18.939
19.0264
19.1138
19.2008
19.2875
17.5662
17.5594
17.5546
17.5542
17.558
17.5696
17.5932
17.6282
17.6749
17.7329
17.8016
17.8801
17.9674
18.0624
18.164
18.2714
18.3835
18.4996
18.6189
18.7408
18.8645
18.9897
19.1159
19.2426
19.3696
19.4965
19.6231
19.7491
19.8743
19.9987
20.122
20.2442
20.3651
17.5663
17.5617
17.563
17.5718
17.595
17.6401
17.7055
17.7911
17.8954
18.0165
18.1523
18.3006
18.4593
18.6266
18.8007
18.9802
19.1638
19.3502
19.5387
19.7283
19.9185
20.1085
20.2979
20.4864
20.6735
20.859
21.0426
21.2241
21.4034
21.5803
21.7548
21.9267
22.0961
17.5672
17.57
17.5859
17.6276
17.7109
17.8336
17.9919
18.1815
18.3976
18.6351
18.8897
19.1574
19.435
19.7198
20.0094
20.302
20.596
20.8902
21.1836
21.4753
21.7646
22.0511
22.3342
22.6137
22.8892
23.1606
23.4276
23.6903
23.9484
24.2019
24.4508
24.6951
24.9348
17.5716
17.5953
17.6662
17.8177
18.053
18.3543
18.7087
19.1036
19.5285
19.9745
20.4349
20.9044
21.3787
21.8548
22.3301
22.8027
23.2712
23.7345
24.1917
24.6422
25.0854
25.521
25.9488
26.3685
26.7801
27.1836
27.5788
27.9659
28.3448
28.7157
29.0786
29.4337
29.7811
17.5854
17.6974
17.9699
18.4419
19.0443
19.7381
20.4917
21.2821
22.0933
22.9141
23.7366
24.5557
25.3673
26.1688
26.9583
27.7344
28.4962
29.243
29.9745
30.6904
31.3907
32.0753
32.7443
33.3978
34.0361
34.6594
35.2678
35.8617
36.4414
37.0072
37.5593
38.0981
38.6238
17.6522
18.1438
19.1451
20.4574
21.9286
23.4776
25.0548
26.6331
28.1966
29.7371
31.25
32.7322
34.182
35.5983
36.9807
38.3291
39.6436
40.9246
42.1725
43.3878
44.5711
45.723
46.8442
47.9354
48.9973
50.0307
51.0362
52.0146
52.9666
53.893
54.7944
55.6717
56.5255
18.0423
20.3419
23.6954
27.3243
30.9671
34.5343
37.9952
41.351
44.6032
47.7618
50.8283
53.8045
56.6925
59.4942
62.2115
64.8462
67.4002
69.8754
72.2738
74.5972
76.8478
79.0276
81.1386
83.183
85.1627
87.0798
88.9365
90.7346
92.4763
94.1634
95.7979
97.3817
98.9165
21.0783
32.2377
43.8848
55.0827
65.2654
74.723
83.6608
92.2515
100.529
108.499
116.169
123.546
130.634
137.44
143.973
150.24
156.249
162.01
167.532
172.822
177.893
182.751
187.407
191.869
196.147
200.248
204.182
207.956
211.577
215.054
218.393
221.602
224.685
63.2893
131.146
179.994
220.948
253.72
286.904
320.749
353.551
384.645
413.765
440.836
465.898
489.06
510.454
530.221
548.492
565.403
581.067
595.601
609.098
621.66
633.356
644.277
654.473
664.025
672.967
681.373
689.262
696.705
703.706
710.338
716.588
722.534
1672.14
1819.15
1960.96
2086.92
2197.23
2294.25
2379.79
2455.18
2521.53
2579.87
2631.09
2676.01
2715.34
2749.72
2779.71
2805.83
2828.53
2848.19
2865.19
2879.82
2892.37
2903.08
2912.17
2919.82
2926.22
2931.5
2935.79
2939.23
2941.9
2943.89
2945.3
2946.18
2946.62
8836.49
8520.06
7951.7
7390.78
6868.09
6387.2
5948.34
5551.48
5193.46
4868.36
4574.26
4307.32
4064.76
3844.13
3642.97
3459.36
3291.05
3136.64
2994.25
2862.83
2741.28
2628.73
2524.13
2426.73
2335.65
2250.08
2169.4
2092.99
2020.36
1950.97
1884.41
1820.34
1757.99
1697.33
1638.18
1580.33
1523.59
1467.75
1412.75
1358.38
1304.53
1251.2
1198.38
1146.1
1094.4
1043.35
993.027
943.548
895.047
847.67
801.571
756.906
713.83
672.49
633.02
595.532
560.119
526.843
495.744
466.83
440.084
415.462
392.902
372.319
353.616
336.686
321.411
307.675
295.354
284.334
274.494
265.728
257.925
250.995
244.829
239.357
234.48
230.135
226.252
222.762
219.611
216.749
214.134
211.713
209.457
207.331
205.309
203.362
201.476
199.621
197.8
195.968
194.164
192.301
190.511
188.53
186.808
184.547
183.12
180.092
3313.22
3349.42
3412.78
3477.98
3557.74
3644.84
3718.53
3772.46
3793.46
3783.8
3754.16
3693.03
3608.42
3504.79
3387.56
3262.63
3134.27
3007.01
2881.82
2761.9
2647.46
2538.73
2435.15
2336.91
2243.56
2154.65
2070.04
1989.33
1912.16
1838.16
1766.97
1698.37
1631.98
1567.56
1504.91
1443.86
1384.26
1325.97
1268.91
1212.98
1158.12
1104.3
1051.53
999.838
949.266
899.887
851.785
805.057
759.809
716.153
674.201
634.057
595.818
559.566
525.364
493.256
463.263
435.384
409.594
385.851
364.091
344.235
326.191
309.861
295.134
281.903
270.055
259.48
250.069
241.722
234.336
227.823
222.089
217.061
212.647
208.797
205.418
202.47
199.891
197.618
195.614
193.834
192.242
190.789
189.454
188.206
187.02
185.871
184.746
183.619
182.493
181.326
180.153
178.906
177.68
176.277
175.036
173.357
172.273
169.943
1464.54
1470.38
1480.42
1493.16
1508.88
1529.24
1553.92
1585.72
1626.26
1674.43
1730.05
1789.47
1849.67
1907.21
1957.77
1997.65
2024.89
2037.78
2034.68
2023.37
1998.69
1963.32
1919.23
1870.44
1817.02
1761.13
1704.35
1646.88
1589.22
1531.66
1474.59
1418.16
1362.5
1307.69
1253.74
1200.7
1148.57
1097.37
1047.12
997.848
949.591
902.392
856.304
811.392
767.729
725.396
684.478
645.059
607.222
571.048
536.606
503.955
473.14
444.192
417.123
391.928
368.584
347.053
327.282
309.205
292.745
277.818
264.335
252.202
241.325
231.612
222.969
215.312
208.551
202.613
197.414
192.893
188.973
185.605
182.71
180.261
178.169
176.426
174.964
173.739
172.724
171.882
171.18
170.571
170.047
169.575
169.134
168.703
168.266
167.804
167.315
166.764
166.18
165.512
164.818
163.966
163.185
162.067
161.32
159.668
789.464
792.11
795.521
799.099
802.212
805.13
807.811
811.115
815.576
822.556
832.461
846.331
863.945
886.137
911.825
941.367
972.324
1004.88
1035.05
1063.75
1087.89
1108.9
1122.21
1132.22
1132.13
1129.03
1120.95
1106.24
1086.7
1063.3
1037.07
1008.34
977.702
945.574
912.32
878.261
843.674
808.803
773.861
739.038
704.505
670.417
636.915
604.13
572.184
541.188
511.244
482.444
454.866
428.58
403.638
380.082
357.935
337.209
317.901
299.994
283.459
268.257
254.338
241.649
230.126
219.705
210.32
201.904
194.388
187.709
181.801
176.607
172.063
168.123
164.727
161.835
159.392
157.366
155.696
154.372
153.311
152.538
151.973
151.589
151.375
151.297
151.321
151.407
151.559
151.74
151.93
152.113
152.273
152.391
152.466
152.464
152.412
152.272
152.066
151.725
151.371
150.785
150.358
149.349
466.878
469.951
473.078
476.109
478.697
480.878
482.539
483.948
485.134
486.534
488.127
490.379
493.164
497.028
501.748
507.958
515.234
524.218
534.147
545.459
557.069
569.436
581.016
592.305
601.654
609.411
614.565
618.663
618.908
617.699
614.436
608.154
599.617
588.825
576.062
561.608
545.735
528.703
510.757
492.123
473.014
453.622
434.126
414.685
395.447
376.541
358.084
340.176
322.904
306.341
290.543
275.556
261.411
248.128
235.715
224.169
213.479
203.628
194.589
186.334
178.828
172.036
165.921
160.443
155.565
151.249
147.457
144.156
141.307
138.886
136.851
135.184
133.846
132.819
132.055
131.562
131.259
131.208
131.297
131.536
131.924
132.414
132.988
133.614
134.286
134.977
135.671
136.349
136.997
137.599
138.148
138.62
139.024
139.341
139.571
139.689
139.719
139.623
139.496
139.08
290.877
294.008
297.066
300.013
302.696
305.109
307.192
309.032
310.613
312.076
313.385
314.68
315.884
317.157
318.407
319.822
321.297
323.033
324.907
327.165
329.605
332.437
335.388
338.603
341.729
344.85
347.499
349.874
351.463
352.324
352.153
351.339
349.504
346.613
342.764
337.957
332.23
325.643
318.277
310.228
301.6
292.5
283.039
273.323
263.457
253.538
243.657
233.897
224.329
215.02
206.023
197.385
189.142
181.322
173.946
167.027
160.571
154.58
149.049
143.972
139.337
135.131
131.34
127.947
124.934
122.285
119.981
118.007
116.341
114.975
113.88
113.057
112.471
112.117
111.962
112.021
112.221
112.631
113.173
113.833
114.612
115.484
116.431
117.429
118.466
119.523
120.584
121.631
122.651
123.628
124.552
125.407
126.185
126.885
127.484
127.996
128.375
128.69
128.853
128.952
189.675
192.416
195.089
197.678
200.123
202.407
204.505
206.443
208.211
209.853
211.355
212.756
214.023
215.197
216.238
217.192
218.018
218.769
219.4
219.974
220.448
220.885
221.243
221.564
221.814
222.023
222.125
222.101
221.988
221.723
221.182
220.386
219.287
217.834
216.042
213.89
211.365
208.462
205.189
201.563
197.607
193.355
188.846
184.123
179.232
174.221
169.138
164.029
158.938
153.907
148.972
144.169
139.526
135.067
130.815
126.785
122.989
119.438
116.137
113.089
110.295
107.754
105.463
103.418
101.614
100.044
98.7022
97.583
96.6762
95.9827
95.4813
95.1852
95.0607
95.1121
95.3019
95.6918
96.2041
96.868
97.6559
98.5518
99.5503
100.636
101.795
103.01
104.267
105.551
106.846
108.138
109.411
110.653
111.848
112.989
114.054
115.056
115.949
116.784
117.452
118.121
118.519
119.088
129.598
131.815
133.989
136.111
138.154
140.108
141.959
143.712
145.364
146.927
148.396
149.779
151.064
152.258
153.342
154.326
155.188
155.939
156.556
157.055
157.413
157.657
157.754
157.724
157.61
157.367
157.011
156.541
155.964
155.289
154.499
153.591
152.561
151.397
150.094
148.648
147.054
145.309
143.413
141.365
139.172
136.841
134.383
131.814
129.148
126.407
123.61
120.779
117.935
115.1
112.295
109.54
106.854
104.252
101.75
99.3613
97.0965
94.9651
92.9744
91.1304
89.4372
87.8983
86.515
85.2886
84.219
83.3059
82.5476
81.9439
81.4917
81.195
81.038
81.0421
81.1488
81.4125
81.8078
82.3436
82.9939
83.7663
84.6507
85.636
86.7162
87.8811
89.1208
90.4221
91.7729
93.1608
94.5716
95.9928
97.4088
98.8094
100.176
101.506
102.769
103.988
105.097
106.18
107.072
108.031
108.612
109.585
92.7899
94.5244
96.2347
97.9152
99.554
101.144
102.677
104.154
105.571
106.932
108.233
109.475
110.653
111.765
112.802
113.763
114.637
115.422
116.106
116.689
117.159
117.523
117.765
117.898
117.885
117.805
117.613
117.297
116.883
116.369
115.764
115.067
114.284
113.415
112.463
111.429
110.316
109.125
107.859
106.52
105.11
103.636
102.1
100.511
98.8747
97.2004
95.4975
93.7762
92.0474
90.3223
88.6121
86.9278
85.2802
83.6797
82.1357
80.657
79.2516
77.9266
76.6881
75.5413
74.4908
73.5404
72.6927
71.9507
71.3158
70.7895
70.3729
70.0677
69.8756
69.799
69.8259
69.9488
70.1984
70.5565
71.0205
71.5968
72.2753
73.0571
73.9386
74.9138
75.9781
77.125
78.3476
79.6368
80.9829
82.376
83.8043
85.2572
86.7201
88.1849
89.6315
91.0609
92.4375
93.7907
95.0414
96.296
97.3464
98.5258
99.2406
100.539
69.4635
70.8068
72.1378
73.4531
74.7468
76.014
77.2506
78.4549
79.6248
80.7601
81.8587
82.9196
83.9393
84.9154
85.8426
86.7178
87.5343
88.2887
88.9731
89.5852
90.1161
90.5668
90.9266
91.2033
91.3789
91.4701
91.4552
91.3825
91.2138
90.9501
90.6112
90.1915
89.7
89.1383
88.5102
87.82
87.0712
86.2674
85.4125
84.5102
83.5642
82.5786
81.5576
80.5058
79.4281
78.3301
77.2172
76.0957
74.9719
73.8524
72.7439
71.6531
70.5866
69.551
68.5523
67.5966
66.6892
65.8352
65.0392
64.3054
63.6374
63.0387
62.5115
62.0592
61.6833
61.3859
61.1694
61.0363
60.9911
61.0216
61.1276
61.3316
61.6234
62.0034
62.4702
63.0281
63.674
64.4082
65.23
66.1368
67.1261
68.1941
69.3367
70.548
71.821
73.1486
74.5211
75.9308
77.3642
78.8157
80.2652
81.7165
83.131
84.5438
85.8652
87.2196
88.3653
89.6948
90.4979
92.0394
54.1709
55.2131
56.2499
57.2792
58.2978
59.3026
60.2911
61.2615
62.2122
63.1422
64.05
64.9343
65.7926
66.6228
67.4216
68.1862
68.9121
69.5963
70.2335
70.821
71.353
71.828
72.2394
72.5893
72.8684
73.0838
73.2216
73.3009
73.2935
73.2441
73.1243
72.9289
72.6795
72.3684
72.0024
71.585
71.1185
70.6069
70.0541
69.4635
68.8386
68.1834
67.5018
66.7978
66.0753
65.3385
64.5918
63.8395
63.0861
62.3364
61.5947
60.8659
60.1544
59.4647
58.8012
58.1679
57.5687
57.0075
56.4875
56.0118
55.5837
55.2056
54.8792
54.6083
54.3933
54.2369
54.1422
54.1129
54.1397
54.2252
54.3845
54.6118
54.9084
55.276
55.7147
56.2273
56.8139
57.4753
58.2123
59.0242
59.9104
60.8694
61.8989
62.9958
64.1556
65.3738
66.6431
67.9582
69.3078
70.6886
72.0814
73.4928
74.8832
76.2918
77.6227
79.0122
80.1967
81.6084
82.4605
84.1594
43.822
44.636
45.4485
46.2583
47.0633
47.8617
48.6517
49.4319
50.2012
50.9585
51.7025
52.4321
53.1456
53.8413
54.517
55.1705
55.7988
56.3994
56.969
57.505
58.0034
58.4626
58.878
59.2495
59.5718
59.8473
60.0684
60.243
60.3578
60.4316
60.4385
60.4115
60.3393
60.2057
60.0321
59.8156
59.557
59.2614
58.9311
58.5684
58.1766
57.7593
57.3196
56.8607
56.3861
55.8992
55.4035
54.9025
54.3997
53.8988
53.4032
52.9165
52.4419
51.9831
51.5431
51.1251
50.7318
50.3664
50.0311
49.7286
49.4616
49.2313
49.0395
48.8901
48.7817
48.7188
48.705
48.7312
48.8044
48.9317
49.1105
49.3425
49.6292
49.9725
50.3732
50.8337
51.3552
51.939
52.5865
53.2984
54.0753
54.917
55.823
56.792
57.8217
58.9096
60.0508
61.2422
62.4748
63.7476
65.043
66.37
67.6898
69.0443
70.3353
71.7059
72.8815
74.3142
75.1835
76.9568
36.6195
37.2603
37.9019
38.5433
39.1833
39.8208
40.4545
41.0833
41.7064
42.3229
42.9317
43.532
44.1226
44.702
45.2689
45.8215
46.3579
46.8762
47.3741
47.8494
48.2997
48.723
49.1168
49.4796
49.8086
50.1038
50.3612
50.5835
50.7645
50.9109
51.0141
51.082
51.112
51.1021
51.066
50.9887
50.8761
50.7355
50.5656
50.3676
50.1452
49.9013
49.638
49.3578
49.0635
48.7579
48.4439
48.1243
47.802
47.4799
47.1607
46.8472
46.5422
46.2483
45.9681
45.7039
45.4579
45.2327
45.0298
44.8518
44.7006
44.5762
44.4816
44.4198
44.3878
44.3936
44.427
44.5005
44.6109
44.7603
44.9497
45.1806
45.4544
45.7729
46.1372
46.5494
47.011
47.5236
48.0887
48.7079
49.3823
50.1127
50.8995
51.743
52.6421
53.5962
54.6022
55.659
56.7596
57.905
59.0798
60.295
61.5133
62.7788
63.9938
65.3036
66.4332
67.8359
68.6956
70.4717
31.4872
31.9951
32.5051
33.0165
33.5285
34.0402
34.5508
35.0596
35.5658
36.0687
36.5676
37.0617
37.5502
38.0321
38.5063
38.9715
39.4265
39.8698
40.2997
40.7149
41.1134
41.4937
41.854
42.1931
42.5089
42.8008
43.0666
43.3066
43.5181
43.7028
43.858
43.9848
44.0839
44.1528
44.1983
44.2119
44.2021
44.1722
44.1141
44.0323
43.9324
43.8149
43.6803
43.5311
43.3699
43.1984
43.0191
42.8345
42.6467
42.4579
42.2704
42.0865
41.9083
41.7382
41.5779
41.4293
41.2943
41.1751
41.0723
40.9893
40.9262
40.8822
40.8629
40.8688
40.8937
40.9488
41.0293
41.1378
41.2749
41.4418
41.6398
41.8699
42.1334
42.4318
42.7665
43.1389
43.5507
44.0034
44.4988
45.0384
45.6238
46.2562
46.9367
47.6662
48.4449
49.2731
50.1492
51.0736
52.0411
53.0543
54.1
55.1904
56.2911
57.4465
58.5628
59.783
60.8399
62.1744
63.0011
64.7253
27.7604
28.1651
28.5725
28.9822
29.3936
29.8062
30.2193
30.6324
31.0449
31.4562
31.8659
32.2734
32.6779
33.0787
33.4752
33.8663
34.2511
34.6287
34.9978
35.3573
35.7059
36.0426
36.3659
36.6748
36.968
37.2446
37.5032
37.7436
37.9642
38.1652
38.3455
38.5048
38.6438
38.7609
38.8587
38.9351
38.9918
39.0309
39.0521
39.0514
39.0406
39.0144
38.9728
38.9197
38.8568
38.7852
38.707
38.6243
38.5382
38.4509
38.3641
38.2795
38.199
38.1247
38.0572
37.9985
37.9504
37.9143
37.8906
37.8834
37.8899
37.9099
37.9505
38.0102
38.0862
38.1832
38.3005
38.4392
38.5999
38.7834
38.9908
39.2229
39.4808
39.7657
40.0787
40.4213
40.7947
41.2005
41.6402
42.1153
42.6275
43.1783
43.7688
44.4006
45.0743
45.791
46.55
47.3528
48.1955
49.0819
50.0008
50.9653
51.9439
52.9807
53.9869
55.101
56.069
57.3094
58.0858
59.718
25.0162
25.3393
25.6656
25.9947
26.3262
26.6597
26.9947
27.3309
27.6678
28.005
28.3421
28.6785
29.0139
29.3477
29.6793
30.0081
30.3333
30.6543
30.9702
31.2802
31.5834
31.8789
32.1658
32.4432
32.7101
32.9659
33.2097
33.4408
33.6584
33.8622
34.0517
34.2263
34.3862
34.5308
34.6608
34.7757
34.876
34.9624
35.0361
35.0951
35.1433
35.1807
35.2076
35.2252
35.2352
35.2378
35.236
35.2308
35.2224
35.2131
35.2042
35.1971
35.1933
35.1946
35.2002
35.2132
35.2349
35.2659
35.3066
35.3593
35.4238
35.4997
35.5897
35.6946
35.8134
35.9475
36.0975
36.2638
36.4469
36.6474
36.8662
37.1038
37.3611
37.6391
37.9386
38.2608
38.6068
38.9779
39.3755
39.8009
40.2557
40.7413
41.2591
41.8106
42.3967
43.019
43.6773
44.3738
45.1055
45.8771
46.6788
47.5245
48.3853
49.3043
50.1989
51.2005
52.0725
53.2045
53.9197
55.4338
22.977
23.2348
23.496
23.7603
24.0275
24.2972
24.5692
24.843
25.1184
25.3951
25.6726
25.9508
26.2291
26.5073
26.7848
27.0613
27.3362
27.609
27.8791
28.1458
28.4087
28.6669
28.9199
29.167
29.4075
29.6408
29.8664
30.0835
30.2918
30.4908
30.6802
30.8594
31.0286
31.1872
31.3356
31.4736
31.6014
31.7192
31.8278
31.9268
32.0173
32.1002
32.1759
32.2451
32.3089
32.3679
32.4234
32.4767
32.5284
32.5797
32.6318
32.6857
32.7425
32.8036
32.8693
32.9407
33.019
33.1051
33.1992
33.3025
33.4156
33.5383
33.6715
33.8163
33.9723
34.1401
34.3201
34.5126
34.7179
34.9364
35.1687
35.4153
35.6768
35.9537
36.2469
36.5572
36.8856
37.233
37.6007
37.9897
38.4015
38.8373
39.2985
39.7864
40.3023
40.8476
41.4226
42.0298
42.6668
43.3389
44.0374
44.7763
45.5293
46.3381
47.1263
48.0174
48.7935
49.8127
50.4614
51.8438
21.4552
21.6602
21.8687
22.0805
22.2954
22.5132
22.7337
22.9565
23.1815
23.4084
23.637
23.867
24.0981
24.3301
24.5625
24.7952
25.0277
25.2596
25.4905
25.7201
25.9478
26.1731
26.3957
26.6149
26.8304
27.0417
27.2483
27.4499
27.6459
27.8362
28.0204
28.1982
28.3694
28.534
28.6918
28.843
28.9875
29.1255
29.2574
29.3833
29.5036
29.619
29.73
29.8369
29.9407
30.0418
30.1411
30.2395
30.3377
30.4366
30.5368
30.6394
30.7451
30.8549
30.9691
31.0887
31.2142
31.3464
31.4856
31.6324
31.7872
31.9502
32.1217
32.3023
32.4919
32.6908
32.8992
33.1171
33.3447
33.5823
33.8303
34.0889
34.3586
34.6397
34.9328
35.2386
35.5576
35.8908
36.239
36.6032
36.9845
37.3841
37.8031
38.2428
38.7043
39.1892
39.6977
40.2325
40.7916
41.3805
41.9914
42.6382
43.2968
44.0071
44.6988
45.487
46.1726
47.0821
47.664
48.9116
20.3208
20.4827
20.6482
20.8172
20.9894
21.1647
21.3429
21.5239
21.7075
21.8934
22.0816
22.2717
22.4637
22.6572
22.8521
23.0481
23.245
23.4425
23.6403
23.8381
24.0356
24.2324
24.4283
24.6228
24.8157
25.0066
25.1951
25.3811
25.5642
25.7442
25.9209
26.094
26.2635
26.4292
26.5911
26.7493
26.9037
27.0545
27.2019
27.3461
27.4875
27.6262
27.7629
27.8979
28.0318
28.165
28.2981
28.4317
28.5665
28.703
28.842
28.984
29.1296
29.2795
29.4342
29.594
29.7595
29.9312
30.1091
30.2937
30.4853
30.684
30.8899
31.1032
31.324
31.5521
31.7878
32.0307
32.2809
32.5388
32.8044
33.0779
33.3594
33.6491
33.9474
34.2547
34.5715
34.8984
35.2361
35.5853
35.9469
36.3219
36.7113
37.1162
37.5374
37.9766
38.434
38.9122
39.4094
39.9312
40.4702
41.0405
41.6193
42.245
42.8525
43.5491
44.153
44.9612
45.4797
46.5976
19.4808
19.6077
19.7382
19.8722
20.0096
20.1501
20.2938
20.4405
20.59
20.7423
20.8971
21.0545
21.2141
21.3759
21.5397
21.7053
21.8726
22.0413
22.2114
22.3825
22.5544
22.727
22.9
23.0731
23.2462
23.4191
23.5914
23.7631
23.9338
24.1036
24.2721
24.4394
24.6053
24.7698
24.9328
25.0944
25.2547
25.4138
25.5717
25.7288
25.8853
26.0413
26.1974
26.3537
26.5108
26.6691
26.8288
26.9905
27.1548
27.322
27.4927
27.6674
27.8464
28.0302
28.2191
28.4135
28.6136
28.8197
29.0316
29.2499
29.4746
29.7058
29.9434
30.1874
30.4376
30.6939
30.9562
31.2239
31.4973
31.7768
32.062
32.3528
32.6492
32.9514
33.2594
33.5735
33.8941
34.2214
34.5561
34.8986
35.2497
35.6101
35.9806
36.3621
36.7554
37.162
37.5818
38.0176
38.4675
38.9371
39.4194
39.928
40.4418
40.9974
41.534
42.1521
42.6852
43.4038
43.865
44.8638
18.8675
18.9664
19.0687
19.1745
19.2837
19.3962
19.5119
19.6307
19.7526
19.8775
20.0053
20.1359
20.2692
20.4051
20.5435
20.6843
20.8274
20.9726
21.1198
21.2689
21.4198
21.5723
21.7263
21.8816
22.0381
22.1956
22.354
22.5133
22.6733
22.8338
22.9949
23.1565
23.3186
23.481
23.644
23.8075
23.9716
24.1364
24.3021
24.4688
24.6368
24.8064
24.9777
25.1511
25.327
25.5055
25.6871
25.8721
26.0609
26.254
26.4517
26.6543
26.862
27.0753
27.2943
27.5192
27.7501
27.987
28.2296
28.4787
28.7342
28.9958
29.2634
29.5366
29.8154
30.0993
30.3882
30.6824
30.9816
31.2854
31.5933
31.9049
32.2202
32.5391
32.8616
33.1878
33.5178
33.8518
34.1903
34.5335
34.8819
35.2361
35.5968
35.9647
36.3403
36.725
37.1187
37.524
37.939
38.3691
38.8076
39.268
39.7298
40.2285
40.7068
41.2593
41.7322
42.3735
42.7842
43.6782
18.4311
18.5079
18.5882
18.6719
18.7589
18.8493
18.9429
19.0398
19.1399
19.2432
19.3496
19.459
19.5714
19.6868
19.8051
19.9262
20.05
20.1766
20.3057
20.4374
20.5716
20.7081
20.847
20.9881
21.1313
21.2767
21.4241
21.5734
21.7248
21.878
22.0332
22.1902
22.3492
22.5102
22.6732
22.8383
23.0056
23.1753
23.3475
23.5225
23.7003
23.8813
24.0657
24.2537
24.4457
24.6418
24.8421
25.0474
25.2578
25.4738
25.6954
25.923
26.1567
26.3966
26.643
26.8958
27.1552
27.4213
27.6945
27.9747
28.2613
28.5538
28.852
29.1556
29.4641
29.7774
30.0948
30.4164
30.7411
31.0679
31.3975
31.7296
32.064
32.4006
32.7393
33.08
33.4227
33.7674
34.1144
34.4638
34.8159
35.1713
35.5301
35.8932
36.2607
36.6341
37.013
37.3998
37.7924
38.1966
38.6051
39.0317
39.456
39.9132
40.3476
40.8503
41.2766
41.8558
42.2243
43.0295
18.1349
18.1955
18.2594
18.3265
18.3971
18.4709
18.548
18.6285
18.7123
18.7993
18.8897
18.9833
19.0801
19.1801
19.2833
19.3897
19.4992
19.6119
19.7276
19.8464
19.9681
20.0929
20.2207
20.3514
20.4851
20.6217
20.7613
20.9037
21.0492
21.1976
21.349
21.5035
21.6611
21.8219
21.9861
22.1538
22.325
22.4999
22.6788
22.8618
23.0492
23.2411
23.4378
23.6395
23.8466
24.0594
24.2781
24.5035
24.7354
24.9739
25.2193
25.4717
25.7312
25.998
26.272
26.5532
26.8416
27.1372
27.4398
27.7476
28.0614
28.3812
28.7065
29.0372
29.3727
29.7126
30.0565
30.4039
30.7545
31.1078
31.4632
31.8202
32.1785
32.5377
32.8977
33.2582
33.6191
33.9803
34.3417
34.7036
35.066
35.4292
35.7933
36.1591
36.5265
36.8968
37.2693
37.6467
38.0264
38.4144
38.8029
39.2064
39.6036
40.0304
40.4316
40.8961
41.2853
41.8172
42.1531
42.89
17.9535
18.0033
18.0563
18.1125
18.172
18.2348
18.3009
18.3704
18.4433
18.5195
18.5991
18.6821
18.7686
18.8585
18.9517
19.0485
19.1486
19.2522
19.3593
19.4698
19.5838
19.7013
19.8224
19.947
20.0751
20.2069
20.3424
20.4816
20.6246
20.7715
20.9223
21.0773
21.2364
21.3998
21.5677
21.7402
21.9175
22.0999
22.2874
22.4804
22.679
22.8835
23.0941
23.3111
23.5348
23.7653
24.0032
24.2477
24.4994
24.7586
25.0254
25.3001
25.5828
25.8735
26.1721
26.4787
26.793
27.115
27.4446
27.7815
28.1252
28.4752
28.831
29.1924
29.5586
29.9292
30.3036
30.6813
31.0617
31.4443
31.8284
32.2135
32.5991
32.9848
33.3701
33.7548
34.1384
34.521
34.9021
35.282
35.6604
36.0377
36.4137
36.7891
37.1635
37.5385
37.9127
38.2893
38.6648
39.0461
39.4242
39.8149
40.1953