/*--------------------------------*- C++ -*----------------------------------*\
  =========                 |
  \\      /  F ield         | OpenFOAM: The Open Source CFD Toolbox
   \\    /   O peration     | Website:  https://openfoam.org
    \\  /    A nd           | Version:  10
     \\/     M anipulation  |
\*---------------------------------------------------------------------------*/
FoamFile
{
    format      ascii;
    class       volScalarField;
    location    "1400";
    object      p;
}
// * * * * * * * * * * * * * * * * * * * * * * * * * * * * * * * * * * * * * //

dimensions      [0 2 -2 0 0 0 0];

internalField   nonuniform List<scalar> 
6820
(
6.39447
-4.49534
-8.01457
-8.74817
-9.14949
-9.48806
-9.68057
-9.77707
-9.84254
-9.89705
-9.94133
-9.97712
-10.0077
-10.0352
-10.0602
-10.0832
-10.1046
-10.1249
-10.1441
-10.1624
-10.1801
-10.197
-10.2135
-10.2293
-10.2446
-10.2593
-10.2733
-10.2865
-10.2985
-10.3092
-10.3166
-10.3229
-10.3109
-15.4935
-11.8155
-11.0707
-10.3015
-9.93669
-9.87032
-9.86861
-9.87249
-9.89061
-9.91984
-9.95065
-9.97937
-10.0063
-10.0317
-10.0557
-10.0783
-10.0996
-10.1198
-10.1391
-10.1576
-10.1754
-10.1925
-10.2091
-10.2251
-10.2407
-10.2556
-10.2699
-10.2836
-10.2963
-10.3081
-10.3179
-10.328
-10.3326
-13.3449
-9.77079
-9.51549
-9.51741
-9.51119
-9.60965
-9.71036
-9.77814
-9.83268
-9.88259
-9.92594
-9.96259
-9.99455
-10.0232
-10.0493
-10.0733
-10.0956
-10.1165
-10.1362
-10.1551
-10.1731
-10.1905
-10.2073
-10.2235
-10.2392
-10.2544
-10.269
-10.283
-10.2963
-10.309
-10.3206
-10.3331
-10.3437
-10.8558
-9.39666
-9.54736
-9.66349
-9.64815
-9.70349
-9.7741
-9.82283
-9.8629
-9.90187
-9.93771
-9.96945
-9.99812
-10.0246
-10.0491
-10.0721
-10.0937
-10.1141
-10.1336
-10.1523
-10.1703
-10.1876
-10.2044
-10.2207
-10.2366
-10.2519
-10.2668
-10.2813
-10.2953
-10.309
-10.3224
-10.3368
-10.3511
-10.3963
-9.69898
-9.73946
-9.7557
-9.71147
-9.73916
-9.79152
-9.83263
-9.86882
-9.90499
-9.93905
-9.96986
-9.99799
-10.0241
-10.0484
-10.0712
-10.0926
-10.113
-10.1324
-10.1511
-10.169
-10.1864
-10.2032
-10.2196
-10.2355
-10.251
-10.2662
-10.2811
-10.2957
-10.3103
-10.325
-10.3407
-10.3575
-10.331
-9.85582
-9.80973
-9.78778
-9.749
-9.76755
-9.80928
-9.84582
-9.87936
-9.91289
-9.94478
-9.97405
-10.0011
-10.0262
-10.0499
-10.0721
-10.0931
-10.1131
-10.1323
-10.1508
-10.1686
-10.1858
-10.2026
-10.219
-10.2349
-10.2506
-10.266
-10.2812
-10.2964
-10.3117
-10.3274
-10.3442
-10.3625
-10.2156
-9.8896
-9.83749
-9.81476
-9.78588
-9.79853
-9.831
-9.86235
-9.89245
-9.92284
-9.95219
-9.97963
-10.0053
-10.0294
-10.0522
-10.0738
-10.0944
-10.114
-10.1329
-10.1511
-10.1688
-10.1859
-10.2026
-10.2189
-10.2349
-10.2507
-10.2663
-10.2818
-10.2974
-10.3133
-10.3297
-10.3472
-10.3663
-10.1095
-9.90444
-9.86199
-9.8418
-9.81952
-9.82784
-9.85285
-9.87936
-9.9061
-9.93352
-9.96045
-9.98608
-10.0104
-10.0335
-10.0554
-10.0763
-10.0964
-10.1156
-10.1341
-10.1521
-10.1695
-10.1865
-10.2031
-10.2193
-10.2354
-10.2512
-10.2669
-10.2827
-10.2986
-10.3148
-10.3317
-10.3497
-10.369
-10.0405
-9.91764
-9.88212
-9.86411
-9.84732
-9.85332
-9.87307
-9.89571
-9.91954
-9.94436
-9.96909
-9.99302
-10.016
-10.038
-10.0591
-10.0793
-10.0988
-10.1176
-10.1358
-10.1534
-10.1706
-10.1874
-10.2039
-10.2201
-10.2361
-10.2519
-10.2678
-10.2837
-10.2998
-10.3163
-10.3334
-10.3515
-10.3707
-9.99813
-9.92624
-9.89683
-9.88172
-9.86989
-9.87498
-9.89118
-9.91086
-9.93227
-9.95486
-9.97767
-10
-10.0218
-10.0428
-10.063
-10.0826
-10.1015
-10.1198
-10.1376
-10.155
-10.1719
-10.1885
-10.2049
-10.221
-10.2369
-10.2528
-10.2686
-10.2846
-10.3008
-10.3174
-10.3346
-10.3526
-10.3716
-9.97228
-9.93125
-9.9081
-9.89613
-9.88839
-9.89326
-9.90708
-9.92452
-9.94395
-9.96467
-9.98581
-10.0068
-10.0274
-10.0474
-10.0669
-10.0858
-10.1042
-10.1221
-10.1396
-10.1566
-10.1733
-10.1897
-10.2059
-10.2219
-10.2377
-10.2536
-10.2694
-10.2854
-10.3016
-10.3182
-10.3353
-10.353
-10.3716
-9.95743
-9.9348
-9.91746
-9.90839
-9.9038
-9.90873
-9.92092
-9.93664
-9.95445
-9.97359
-9.99331
-10.0131
-10.0326
-10.0518
-10.0706
-10.0889
-10.1068
-10.1243
-10.1414
-10.1581
-10.1746
-10.1908
-10.2068
-10.2226
-10.2384
-10.2541
-10.2699
-10.2858
-10.3019
-10.3184
-10.3353
-10.3527
-10.3706
-9.95005
-9.9381
-9.92568
-9.91913
-9.9169
-9.92198
-9.933
-9.94736
-9.9638
-9.9816
-10.0001
-10.0188
-10.0374
-10.0558
-10.0739
-10.0916
-10.1091
-10.1261
-10.1429
-10.1593
-10.1756
-10.1915
-10.2074
-10.2231
-10.2387
-10.2543
-10.27
-10.2857
-10.3017
-10.3179
-10.3345
-10.3515
-10.3688
-9.94762
-9.94167
-9.93316
-9.92876
-9.92828
-9.93351
-9.94365
-9.95687
-9.97213
-9.98874
-10.0061
-10.0238
-10.0416
-10.0593
-10.0768
-10.094
-10.1109
-10.1276
-10.144
-10.1602
-10.1762
-10.192
-10.2076
-10.2231
-10.2386
-10.254
-10.2695
-10.2851
-10.3008
-10.3168
-10.3329
-10.3494
-10.3662
-9.94839
-9.94568
-9.94017
-9.93754
-9.93835
-9.94369
-9.95312
-9.96537
-9.97957
-9.99512
-10.0115
-10.0283
-10.0453
-10.0623
-10.0791
-10.0959
-10.1124
-10.1287
-10.1448
-10.1607
-10.1764
-10.1919
-10.2073
-10.2227
-10.2379
-10.2532
-10.2685
-10.2838
-10.2992
-10.3148
-10.3306
-10.3465
-10.3626
-9.95119
-9.95014
-9.94684
-9.94565
-9.9474
-9.95281
-9.96164
-9.97303
-9.98628
-10.0008
-10.0163
-10.0322
-10.0485
-10.0648
-10.0811
-10.0973
-10.1134
-10.1293
-10.1451
-10.1607
-10.1761
-10.1914
-10.2066
-10.2217
-10.2367
-10.2517
-10.2668
-10.2818
-10.2969
-10.3121
-10.3274
-10.3427
-10.3582
-9.95523
-9.95499
-9.95328
-9.95319
-9.95561
-9.96104
-9.96935
-9.97997
-9.99234
-10.006
-10.0206
-10.0357
-10.0512
-10.0669
-10.0826
-10.0983
-10.114
-10.1295
-10.1449
-10.1602
-10.1754
-10.1904
-10.2053
-10.2202
-10.235
-10.2497
-10.2644
-10.2791
-10.2938
-10.3086
-10.3234
-10.3381
-10.3529
-9.96
-9.96012
-9.95951
-9.96024
-9.96311
-9.9685
-9.97635
-9.98627
-9.99783
-10.0106
-10.0244
-10.0388
-10.0535
-10.0686
-10.0838
-10.099
-10.1142
-10.1293
-10.1444
-10.1593
-10.1742
-10.1889
-10.2036
-10.2181
-10.2326
-10.247
-10.2614
-10.2758
-10.2901
-10.3044
-10.3186
-10.3328
-10.347
-9.96517
-9.96542
-9.96554
-9.96685
-9.97
-9.97529
-9.9827
-9.99198
-10.0028
-10.0148
-10.0278
-10.0414
-10.0555
-10.0699
-10.0845
-10.0992
-10.114
-10.1287
-10.1434
-10.158
-10.1725
-10.187
-10.2013
-10.2156
-10.2297
-10.2438
-10.2578
-10.2718
-10.2857
-10.2995
-10.3132
-10.3268
-10.3403
-9.9705
-9.97079
-9.97136
-9.97304
-9.97633
-9.98145
-9.98845
-9.99712
-10.0072
-10.0185
-10.0307
-10.0437
-10.0571
-10.0709
-10.085
-10.0992
-10.1135
-10.1278
-10.1421
-10.1563
-10.1705
-10.1846
-10.1986
-10.2125
-10.2264
-10.2401
-10.2537
-10.2672
-10.2807
-10.294
-10.3071
-10.3202
-10.3331
-9.97587
-9.97614
-9.97698
-9.97885
-9.98213
-9.98704
-9.9936
-10.0017
-10.0112
-10.0217
-10.0333
-10.0455
-10.0583
-10.0715
-10.0851
-10.0988
-10.1126
-10.1265
-10.1404
-10.1543
-10.1681
-10.1818
-10.1955
-10.2091
-10.2225
-10.2359
-10.2491
-10.2622
-10.2751
-10.2879
-10.3006
-10.313
-10.3253
-9.98117
-9.98142
-9.98236
-9.98428
-9.98745
-9.99207
-9.99819
-10.0057
-10.0145
-10.0245
-10.0353
-10.0469
-10.0591
-10.0718
-10.0848
-10.098
-10.1114
-10.1249
-10.1384
-10.1519
-10.1653
-10.1787
-10.192
-10.2052
-10.2183
-10.2312
-10.244
-10.2567
-10.2692
-10.2815
-10.2936
-10.3055
-10.3171
-9.98637
-9.98659
-9.98752
-9.98934
-9.99229
-9.99656
-10.0022
-10.0092
-10.0174
-10.0267
-10.0369
-10.0479
-10.0596
-10.0717
-10.0842
-10.0969
-10.1099
-10.1229
-10.136
-10.1492
-10.1622
-10.1753
-10.1882
-10.201
-10.2137
-10.2262
-10.2386
-10.2508
-10.2628
-10.2746
-10.2862
-10.2975
-10.3086
-9.99143
-9.99163
-9.99245
-9.99405
-9.99667
-10.0005
-10.0056
-10.012
-10.0196
-10.0283
-10.038
-10.0484
-10.0595
-10.0711
-10.0831
-10.0954
-10.108
-10.1206
-10.1334
-10.1461
-10.1588
-10.1715
-10.1841
-10.1965
-10.2088
-10.2209
-10.2329
-10.2446
-10.2561
-10.2674
-10.2785
-10.2893
-10.2998
-9.99639
-9.99656
-9.99717
-9.99842
-10.0006
-10.0039
-10.0084
-10.0142
-10.0212
-10.0293
-10.0384
-10.0483
-10.0589
-10.0701
-10.0816
-10.0935
-10.1057
-10.118
-10.1303
-10.1427
-10.1551
-10.1674
-10.1796
-10.1917
-10.2036
-10.2153
-10.2268
-10.2381
-10.2492
-10.26
-10.2705
-10.2808
-10.2908
-10.0013
-10.0014
-10.0017
-10.0025
-10.004
-10.0067
-10.0106
-10.0158
-10.0222
-10.0297
-10.0382
-10.0476
-10.0578
-10.0685
-10.0797
-10.0912
-10.103
-10.1149
-10.1269
-10.139
-10.151
-10.163
-10.1748
-10.1865
-10.1981
-10.2094
-10.2205
-10.2314
-10.242
-10.2523
-10.2624
-10.2721
-10.2816
-10.0062
-10.0063
-10.0062
-10.0062
-10.007
-10.0089
-10.0121
-10.0165
-10.0223
-10.0293
-10.0373
-10.0463
-10.056
-10.0663
-10.0771
-10.0883
-10.0998
-10.1114
-10.1231
-10.1349
-10.1466
-10.1582
-10.1697
-10.1811
-10.1923
-10.2032
-10.2139
-10.2244
-10.2346
-10.2445
-10.254
-10.2633
-10.2722
-10.0113
-10.0114
-10.0106
-10.0096
-10.0095
-10.0104
-10.0127
-10.0165
-10.0216
-10.028
-10.0356
-10.0441
-10.0535
-10.0635
-10.074
-10.0849
-10.0961
-10.1074
-10.1189
-10.1304
-10.1418
-10.1531
-10.1643
-10.1754
-10.1862
-10.1968
-10.2071
-10.2172
-10.227
-10.2364
-10.2455
-10.2543
-10.2628
-10.0168
-10.0169
-10.0151
-10.0128
-10.0114
-10.0112
-10.0125
-10.0154
-10.0199
-10.0258
-10.0329
-10.0411
-10.0501
-10.0599
-10.0702
-10.0808
-10.0918
-10.1029
-10.1141
-10.1254
-10.1366
-10.1476
-10.1586
-10.1693
-10.1798
-10.1901
-10.2001
-10.2098
-10.2191
-10.2282
-10.2369
-10.2452
-10.2532
-10.0233
-10.0232
-10.02
-10.0158
-10.0126
-10.011
-10.0112
-10.0132
-10.017
-10.0224
-10.0292
-10.0371
-10.0459
-10.0554
-10.0655
-10.076
-10.0868
-10.0978
-10.1088
-10.1198
-10.1308
-10.1417
-10.1523
-10.1628
-10.173
-10.183
-10.1927
-10.202
-10.211
-10.2197
-10.228
-10.236
-10.2436
-10.0313
-10.031
-10.0254
-10.0184
-10.013
-10.0096
-10.0085
-10.0096
-10.0128
-10.0177
-10.0242
-10.0318
-10.0405
-10.0499
-10.0599
-10.0703
-10.081
-10.0918
-10.1028
-10.1136
-10.1244
-10.1351
-10.1456
-10.1558
-10.1658
-10.1755
-10.1849
-10.1939
-10.2026
-10.211
-10.2189
-10.2265
-10.2337
-10.0423
-10.0411
-10.0316
-10.0207
-10.0123
-10.0067
-10.0041
-10.0042
-10.0067
-10.0113
-10.0176
-10.0251
-10.0337
-10.0431
-10.0531
-10.0635
-10.0741
-10.0849
-10.0958
-10.1066
-10.1173
-10.1278
-10.1381
-10.1482
-10.158
-10.1674
-10.1766
-10.1854
-10.1938
-10.2019
-10.2095
-10.2168
-10.2237
-10.0588
-10.0551
-10.0387
-10.0221
-10.01
-10.0018
-9.99735
-9.99649
-9.99852
-10.0028
-10.0089
-10.0165
-10.0252
-10.0346
-10.0447
-10.0552
-10.0659
-10.0767
-10.0876
-10.0984
-10.109
-10.1195
-10.1297
-10.1397
-10.1494
-10.1587
-10.1677
-10.1763
-10.1845
-10.1923
-10.1998
-10.2068
-10.2134
-10.0869
-10.0757
-10.0462
-10.0211
-10.0044
-9.9932
-9.9871
-9.98549
-9.9872
-9.99142
-9.99763
-10.0054
-10.0142
-10.0239
-10.0341
-10.0448
-10.0556
-10.0666
-10.0776
-10.0884
-10.0992
-10.1097
-10.1199
-10.1299
-10.1395
-10.1488
-10.1577
-10.1662
-10.1744
-10.1821
-10.1894
-10.1963
-10.2028
-10.139
-10.1107
-10.057
-10.0183
-9.99417
-9.97851
-9.97059
-9.96863
-9.97056
-9.9753
-9.98223
-9.99075
-10.0004
-10.0108
-10.0217
-10.0329
-10.0442
-10.0556
-10.0669
-10.0781
-10.089
-10.0997
-10.1101
-10.1201
-10.1297
-10.139
-10.1479
-10.1563
-10.1644
-10.172
-10.1792
-10.1859
-10.1922
-10.2182
-10.1554
-10.0732
-10.0225
-9.98616
-9.9601
-9.94684
-9.94219
-9.94234
-9.94616
-9.95298
-9.96195
-9.97237
-9.98376
-9.99581
-10.0082
-10.0208
-10.0335
-10.046
-10.0583
-10.0703
-10.082
-10.0933
-10.1042
-10.1146
-10.1246
-10.1341
-10.1432
-10.1517
-10.1598
-10.1674
-10.1745
-10.1811
-10.3624
-10.1292
-10.0038
-9.99679
-9.98694
-9.97271
-9.96924
-9.97093
-9.97321
-9.97653
-9.98151
-9.98787
-9.99524
-10.0035
-10.0124
-10.0218
-10.0316
-10.0417
-10.0519
-10.062
-10.0722
-10.0821
-10.0919
-10.1014
-10.1107
-10.1196
-10.1282
-10.1363
-10.1442
-10.1516
-10.1586
-10.1652
-10.1714
-11.3113
-10.0779
-9.48667
-9.41398
-9.43308
-9.47424
-9.53232
-9.59152
-9.64586
-9.69599
-9.74225
-9.78427
-9.82217
-9.85643
-9.88753
-9.91583
-9.94164
-9.96527
-9.98697
-10.0069
-10.0254
-10.0425
-10.0583
-10.0729
-10.0866
-10.0992
-10.111
-10.1219
-10.132
-10.1413
-10.1499
-10.1578
-10.165
-15.0772
-12.8666
-11.8536
-11.234
-10.8163
-10.5684
-10.4055
-10.2819
-10.1898
-10.1262
-10.0836
-10.0555
-10.0377
-10.0276
-10.0235
-10.0235
-10.0267
-10.032
-10.0389
-10.0469
-10.0556
-10.0647
-10.0741
-10.0835
-10.0928
-10.102
-10.1109
-10.1194
-10.1277
-10.1355
-10.143
-10.1501
-10.1568
-1.21726
-5.30411
-7.41589
-8.17907
-8.6104
-8.97101
-9.23907
-9.41814
-9.54466
-9.643
-9.72123
-9.7831
-9.83278
-9.87389
-9.90873
-9.93872
-9.96488
-9.98801
-10.0087
-10.0274
-10.0444
-10.06
-10.0744
-10.0876
-10.0999
-10.1112
-10.1218
-10.1315
-10.1405
-10.1489
-10.1566
-10.1636
-10.1701
-10.3052
-10.0598
-10.3709
-10.6653
-10.7858
-10.8251
-10.8432
-10.8512
-10.8548
-10.8627
-10.8816
-10.9136
-10.9579
-11.0125
-11.0748
-11.1415
-11.2099
-11.2771
-11.3408
-11.399
-11.4505
-11.494
-11.5285
-11.5537
-11.5691
-11.5745
-11.57
-11.5556
-11.5314
-11.4974
-11.4537
-11.4003
-11.3372
-11.2643
-11.1814
-11.0884
-10.9852
-10.8715
-10.7471
-10.612
-10.4657
-10.3082
-10.1393
-9.959
-9.7671
-9.56369
-9.34891
-9.12301
-8.88625
-8.63906
-8.38203
-8.11582
-7.84121
-7.55913
-7.2706
-6.97673
-6.67875
-6.37793
-6.0756
-5.77315
-5.47194
-5.17334
-4.87868
-4.58923
-4.30617
-4.03057
-3.76342
-3.50553
-3.25762
-3.02023
-2.79379
-2.57858
-2.37475
-2.18236
-2.00134
-1.83152
-1.67266
-1.52439
-1.38636
-1.25809
-1.13911
-1.02891
-0.926993
-0.832833
-0.74591
-0.665744
-0.591846
-0.523774
-0.461068
-0.403378
-0.350206
-0.301426
-0.256172
-0.215157
-0.175835
-0.142284
-0.104848
-0.0818068
-0.0343788
-0.04095
-10.3572
-10.3453
-10.5449
-10.6982
-10.7373
-10.7374
-10.7395
-10.7455
-10.7552
-10.7737
-10.8043
-10.8465
-10.8987
-10.9587
-11.0243
-11.0929
-11.162
-11.2293
-11.2928
-11.3507
-11.4019
-11.4451
-11.4795
-11.5046
-11.52
-11.5254
-11.5209
-11.5067
-11.4827
-11.4489
-11.4053
-11.3521
-11.2892
-11.2164
-11.1338
-11.0411
-10.9381
-10.8248
-10.7009
-10.5661
-10.4204
-10.2636
-10.0955
-9.91608
-9.72525
-9.52307
-9.30969
-9.08535
-8.85034
-8.60507
-8.35013
-8.08618
-7.81398
-7.53443
-7.24854
-6.9574
-6.66219
-6.36417
-6.06465
-5.76494
-5.46641
-5.17039
-4.87817
-4.591
-4.31004
-4.03637
-3.77091
-3.51452
-3.26788
-3.03156
-2.80597
-2.59142
-2.38806
-2.19597
-2.01509
-1.84527
-1.68626
-1.53774
-1.39937
-1.27067
-1.15119
-1.04045
-0.937951
-0.843176
-0.755621
-0.674809
-0.600257
-0.531528
-0.468164
-0.409819
-0.355986
-0.306556
-0.260628
-0.218988
-0.178922
-0.144905
-0.106377
-0.0838605
-0.0332975
-0.046063
-10.3699
-10.3795
-10.4691
-10.5805
-10.6484
-10.6859
-10.7142
-10.7361
-10.7528
-10.7707
-10.795
-10.8279
-10.87
-10.9209
-10.9792
-11.0424
-11.1081
-11.1735
-11.2361
-11.2938
-11.3449
-11.3882
-11.4227
-11.448
-11.4637
-11.4694
-11.4654
-11.4516
-11.428
-11.3946
-11.3515
-11.2986
-11.2361
-11.1637
-11.0815
-10.9892
-10.8868
-10.774
-10.6506
-10.5165
-10.3716
-10.2156
-10.0485
-9.87019
-9.68064
-9.4799
-9.26813
-9.04557
-8.81251
-8.56938
-8.31674
-8.05523
-7.78562
-7.50879
-7.22571
-6.93745
-6.64517
-6.35009
-6.05348
-5.75665
-5.46091
-5.16756
-4.87787
-4.59308
-4.31431
-4.04261
-3.77894
-3.5241
-3.27879
-3.04358
-2.8189
-2.60504
-2.40218
-2.21041
-2.02967
-1.85985
-1.70069
-1.55191
-1.41318
-1.28403
-1.16402
-1.05271
-0.94959
-0.854161
-0.765932
-0.684432
-0.609182
-0.539753
-0.475685
-0.41664
-0.362105
-0.311978
-0.265342
-0.223029
-0.182198
-0.14765
-0.108059
-0.0859239
-0.0324175
-0.0509549
-10.3755
-10.3989
-10.4694
-10.5713
-10.6437
-10.6809
-10.7035
-10.721
-10.7365
-10.7548
-10.7798
-10.813
-10.8544
-10.9031
-10.9574
-11.0155
-11.0752
-11.1344
-11.1912
-11.2441
-11.2912
-11.3315
-11.3641
-11.3883
-11.4033
-11.4091
-11.4052
-11.3917
-11.3685
-11.3354
-11.2928
-11.2405
-11.1785
-11.1067
-11.025
-10.9333
-10.8315
-10.7193
-10.5967
-10.4635
-10.3194
-10.1645
-9.99856
-9.82154
-9.63345
-9.43433
-9.22435
-9.00374
-8.77281
-8.53198
-8.2818
-8.0229
-7.75604
-7.48206
-7.20193
-6.91668
-6.62745
-6.33543
-6.04185
-5.748
-5.45514
-5.16457
-4.87752
-4.59519
-4.31871
-4.04909
-3.78728
-3.53408
-3.29018
-3.05616
-2.83243
-2.61932
-2.41701
-2.22559
-2.04503
-1.87521
-1.71592
-1.56689
-1.42777
-1.29815
-1.17761
-1.0657
-0.961924
-0.865806
-0.776868
-0.694637
-0.618647
-0.548473
-0.483658
-0.423868
-0.368586
-0.31772
-0.270338
-0.227303
-0.185678
-0.150542
-0.109895
-0.0880371
-0.0317064
-0.0556683
-10.3823
-10.414
-10.4728
-10.5517
-10.6125
-10.6483
-10.6737
-10.6963
-10.7177
-10.7404
-10.7675
-10.8006
-10.8399
-10.8852
-10.9352
-10.9887
-11.0437
-11.0984
-11.151
-11.1999
-11.2435
-11.2806
-11.3105
-11.3322
-11.3454
-11.3498
-11.345
-11.3308
-11.3072
-11.2742
-11.2318
-11.1797
-11.118
-11.0466
-10.9654
-10.8743
-10.7731
-10.6617
-10.5399
-10.4075
-10.2645
-10.1107
-9.94601
-9.7704
-9.58388
-9.3865
-9.17842
-8.95989
-8.73121
-8.4928
-8.24519
-7.98902
-7.72501
-7.45399
-7.17692
-6.89479
-6.60872
-6.31986
-6.02942
-5.73865
-5.4488
-5.16112
-4.87682
-4.59707
-4.32297
-4.05554
-3.79569
-3.54423
-3.30184
-3.06909
-2.84641
-2.63412
-2.43242
-2.24141
-2.06106
-1.89128
-1.73188
-1.58261
-1.44311
-1.31303
-1.19194
-1.07941
-0.974951
-0.878116
-0.788434
-0.705435
-0.628665
-0.557704
-0.4921
-0.431521
-0.375448
-0.323799
-0.275631
-0.231828
-0.18938
-0.153595
-0.111902
-0.0902044
-0.0311884
-0.0601508
-10.3877
-10.4216
-10.4715
-10.5346
-10.5891
-10.6271
-10.656
-10.6813
-10.7047
-10.7285
-10.7555
-10.7874
-10.8245
-10.8667
-10.913
-10.9623
-11.0128
-11.0631
-11.1114
-11.1563
-11.1963
-11.2303
-11.2575
-11.277
-11.2884
-11.2913
-11.2853
-11.2702
-11.246
-11.2126
-11.1699
-11.1178
-11.0561
-10.9849
-10.904
-10.8133
-10.7126
-10.6018
-10.4807
-10.3492
-10.2072
-10.0545
-9.89114
-9.71698
-9.53207
-9.33647
-9.13035
-8.91396
-8.68759
-8.45167
-8.20671
-7.95334
-7.69227
-7.42431
-7.15038
-6.87147
-6.58866
-6.30307
-6.01588
-5.72831
-5.44158
-5.15691
-4.87548
-4.59844
-4.32686
-4.06174
-3.80398
-3.55437
-3.31359
-3.08222
-2.86068
-2.6493
-2.44828
-2.25774
-2.07766
-1.90797
-1.74849
-1.599
-1.45915
-1.32861
-1.20697
-1.0938
-0.988654
-0.891079
-0.800623
-0.716825
-0.63924
-0.567454
-0.50102
-0.439611
-0.382707
-0.330229
-0.281233
-0.236615
-0.193318
-0.156822
-0.114096
-0.0924235
-0.0308949
-0.0643338
-10.3915
-10.4251
-10.4691
-10.522
-10.5707
-10.6084
-10.6382
-10.6646
-10.6894
-10.7145
-10.742
-10.7733
-10.8088
-10.8483
-10.8913
-10.9366
-10.9829
-11.0288
-11.0729
-11.1137
-11.1501
-11.1808
-11.2051
-11.2221
-11.2315
-11.2326
-11.2253
-11.2092
-11.1842
-11.1502
-11.107
-11.0546
-10.9929
-10.9217
-10.841
-10.7505
-10.6503
-10.54
-10.4196
-10.2889
-10.1478
-9.99626
-9.83412
-9.66139
-9.47808
-9.28427
-9.08014
-8.8659
-8.64189
-8.4085
-8.16625
-7.91574
-7.65767
-7.39285
-7.12215
-6.84655
-6.5671
-6.28488
-6.00106
-5.71682
-5.43333
-5.15179
-4.87336
-4.59914
-4.33021
-4.06752
-3.81197
-3.56434
-3.32529
-3.0954
-2.8751
-2.66473
-2.46447
-2.27446
-2.09472
-1.92517
-1.76568
-1.61601
-1.47582
-1.34484
-1.22265
-1.10885
-1.003
-0.904674
-0.813422
-0.728799
-0.650368
-0.577723
-0.510424
-0.448144
-0.390371
-0.337021
-0.287158
-0.241679
-0.197505
-0.160236
-0.116488
-0.0946919
-0.0308519
-0.0681642
-10.3938
-10.4263
-10.4659
-10.5114
-10.555
-10.5912
-10.6214
-10.6487
-10.6745
-10.7004
-10.728
-10.7585
-10.7923
-10.8294
-10.8692
-10.9109
-10.9532
-10.9951
-11.0352
-11.0721
-11.1049
-11.1323
-11.1536
-11.1681
-11.1752
-11.1745
-11.1655
-11.1481
-11.1221
-11.0873
-11.0435
-10.9907
-10.9287
-10.8574
-10.7767
-10.6864
-10.5864
-10.4766
-10.3568
-10.2268
-10.0866
-9.9361
-9.77518
-9.60385
-9.42213
-9.23011
-9.02796
-8.81591
-8.59427
-8.36345
-8.12394
-7.87635
-7.62135
-7.35973
-7.09234
-6.82013
-6.54413
-6.26539
-5.98503
-5.70421
-5.42407
-5.14578
-4.87046
-4.59919
-4.33301
-4.07287
-3.81964
-3.57409
-3.33689
-3.10858
-2.88962
-2.68032
-2.4809
-2.2915
-2.11218
-1.94284
-1.78336
-1.63355
-1.49307
-1.36166
-1.23894
-1.12452
-1.01797
-0.918873
-0.82681
-0.741342
-0.66204
-0.588506
-0.520309
-0.457124
-0.398444
-0.344183
-0.293414
-0.24703
-0.201951
-0.163847
-0.119091
-0.097008
-0.031081
-0.0716025
-10.3949
-10.426
-10.4621
-10.5021
-10.5412
-10.5757
-10.6058
-10.6333
-10.6596
-10.6858
-10.7133
-10.7428
-10.775
-10.8097
-10.8466
-10.8849
-10.9236
-10.9616
-10.9978
-11.0311
-11.0603
-11.0845
-11.1029
-11.1148
-11.1196
-11.1169
-11.1063
-11.0875
-11.0603
-11.0245
-10.98
-10.9265
-10.8641
-10.7926
-10.7117
-10.6215
-10.5217
-10.4122
-10.2928
-10.1635
-10.0241
-9.87459
-9.71485
-9.54488
-9.36473
-9.17448
-8.9743
-8.76443
-8.54518
-8.31694
-8.08021
-7.83557
-7.58368
-7.3253
-7.06128
-6.79253
-6.52004
-6.24484
-5.96803
-5.69071
-5.41401
-5.13905
-4.86692
-4.59869
-4.33537
-4.07787
-3.82705
-3.58367
-3.34839
-3.12176
-2.9042
-2.69605
-2.49755
-2.30885
-2.12999
-1.96091
-1.8015
-1.65157
-1.51084
-1.37903
-1.2558
-1.14075
-1.0335
-0.933646
-0.840762
-0.754433
-0.67424
-0.599794
-0.53067
-0.466547
-0.406928
-0.351718
-0.300008
-0.252674
-0.206663
-0.167661
-0.121914
-0.099371
-0.0315999
-0.0746128
-10.395
-10.4245
-10.4576
-10.4935
-10.529
-10.5616
-10.591
-10.6183
-10.6447
-10.6708
-10.6978
-10.7264
-10.7569
-10.7894
-10.8235
-10.8585
-10.8937
-10.9281
-10.9606
-10.9903
-11.0162
-11.0372
-11.0527
-11.062
-11.0645
-11.0598
-11.0475
-11.0272
-10.9987
-10.9619
-10.9165
-10.8624
-10.7995
-10.7276
-10.6465
-10.5562
-10.4565
-10.3472
-10.2283
-10.0996
-9.96095
-9.81235
-9.65373
-9.4851
-9.30647
-9.11797
-8.91975
-8.71205
-8.49518
-8.26953
-8.03558
-7.7939
-7.54514
-7.29004
-7.02941
-6.76415
-6.49521
-6.2236
-5.95038
-5.67662
-5.40341
-5.13184
-4.86297
-4.59784
-4.33743
-4.08264
-3.8343
-3.59317
-3.35988
-3.13497
-2.91887
-2.71195
-2.51444
-2.32648
-2.14814
-1.97936
-1.82006
-1.67006
-1.52909
-1.39691
-1.27317
-1.15753
-1.04959
-0.948962
-0.855253
-0.768052
-0.686952
-0.611572
-0.541497
-0.476407
-0.415818
-0.359626
-0.306942
-0.258616
-0.211648
-0.171682
-0.124965
-0.101781
-0.0324212
-0.0771649
-10.3941
-10.422
-10.4527
-10.4852
-10.5177
-10.5483
-10.5768
-10.6036
-10.6296
-10.6554
-10.6817
-10.7092
-10.7381
-10.7683
-10.7997
-10.8317
-10.8636
-10.8945
-10.9235
-10.9498
-10.9723
-10.9902
-11.0029
-11.0096
-11.0098
-11.003
-10.9889
-10.9671
-10.9373
-10.8994
-10.8531
-10.7983
-10.7348
-10.6625
-10.5812
-10.4908
-10.3912
-10.2821
-10.1636
-10.0354
-9.89747
-9.74978
-9.59227
-9.42493
-9.24783
-9.06105
-8.86478
-8.65924
-8.44474
-8.22168
-7.99051
-7.7518
-7.50617
-7.25435
-6.99713
-6.73538
-6.47001
-6.20201
-5.9324
-5.66223
-5.39254
-5.1244
-4.85883
-4.59684
-4.33939
-4.08735
-3.84154
-3.6027
-3.37144
-3.14829
-2.93373
-2.72808
-2.5316
-2.34442
-2.16663
-1.9982
-1.83903
-1.68898
-1.54782
-1.41528
-1.29106
-1.17482
-1.06619
-0.964798
-0.870258
-0.782176
-0.700156
-0.623825
-0.552778
-0.486697
-0.42511
-0.367903
-0.314215
-0.264858
-0.216908
-0.175917
-0.128248
-0.10424
-0.0335525
-0.0792366
-10.3923
-10.4187
-10.4472
-10.477
-10.5069
-10.5357
-10.563
-10.5891
-10.6145
-10.6396
-10.665
-10.6912
-10.7184
-10.7465
-10.7754
-10.8045
-10.8332
-10.8608
-10.8864
-10.9093
-10.9286
-10.9435
-10.9534
-10.9575
-10.9554
-10.9466
-10.9306
-10.9073
-10.8762
-10.8371
-10.7899
-10.7343
-10.6702
-10.5975
-10.5159
-10.4254
-10.3258
-10.2169
-10.0987
-9.9711
-9.83391
-9.68712
-9.53071
-9.36467
-9.18908
-9.00403
-8.8097
-8.60632
-8.3942
-8.17371
-7.94533
-7.70958
-7.46709
-7.21856
-6.96475
-6.7065
-6.44472
-6.18034
-5.91436
-5.64778
-5.38163
-5.11693
-4.85468
-4.59586
-4.34139
-4.09214
-3.84889
-3.61236
-3.38316
-3.16184
-2.94884
-2.7445
-2.54907
-2.36271
-2.1855
-2.01743
-1.85843
-1.70836
-1.567
-1.43413
-1.30943
-1.19261
-1.08329
-0.981137
-0.885762
-0.79679
-0.713837
-0.636538
-0.564499
-0.497404
-0.434795
-0.376545
-0.321825
-0.271401
-0.222444
-0.180366
-0.131763
-0.10675
-0.0349946
-0.0808142
-10.3896
-10.4146
-10.4411
-10.4687
-10.4964
-10.5234
-10.5494
-10.5746
-10.5991
-10.6233
-10.6478
-10.6726
-10.6981
-10.7241
-10.7504
-10.7767
-10.8024
-10.8268
-10.8493
-10.869
-10.8851
-10.8971
-10.9042
-10.9058
-10.9014
-10.8905
-10.8727
-10.8477
-10.8152
-10.775
-10.7268
-10.6705
-10.6058
-10.5326
-10.4507
-10.3601
-10.2605
-10.1518
-10.034
-9.9069
-9.77043
-9.62455
-9.46924
-9.30451
-9.13044
-8.94712
-8.75474
-8.55352
-8.34377
-8.12587
-7.90027
-7.66749
-7.42814
-7.18289
-6.93249
-6.67775
-6.41955
-6.15879
-5.89644
-5.63346
-5.37086
-5.10961
-4.8507
-4.59506
-4.34358
-4.09713
-3.85645
-3.62225
-3.39515
-3.17568
-2.96427
-2.76126
-2.56691
-2.38138
-2.20478
-2.0371
-1.87828
-1.7282
-1.58667
-1.45346
-1.3283
-1.21089
-1.10089
-0.997965
-0.901749
-0.811879
-0.727981
-0.6497
-0.576651
-0.508521
-0.444865
-0.385545
-0.329766
-0.278241
-0.228254
-0.185031
-0.135509
-0.109315
-0.0367416
-0.0818946
-10.386
-10.4096
-10.4344
-10.46
-10.4858
-10.5112
-10.5359
-10.5599
-10.5834
-10.6067
-10.6299
-10.6533
-10.677
-10.701
-10.7249
-10.7485
-10.7713
-10.7927
-10.8121
-10.8287
-10.8418
-10.8509
-10.8553
-10.8544
-10.8477
-10.8347
-10.8151
-10.7885
-10.7547
-10.7132
-10.6641
-10.6069
-10.5416
-10.4679
-10.3857
-10.295
-10.1954
-10.087
-9.9695
-9.84293
-9.70719
-9.56223
-9.40803
-9.24463
-9.07208
-8.8905
-8.70008
-8.50103
-8.29367
-8.07836
-7.85554
-7.62572
-7.3895
-7.14754
-6.90054
-6.64931
-6.39468
-6.13754
-5.87881
-5.61943
-5.36037
-5.10258
-4.847
-4.59454
-4.34607
-4.10242
-3.86433
-3.63249
-3.4075
-3.18988
-2.98007
-2.7784
-2.58515
-2.40048
-2.22449
-2.05721
-1.89858
-1.74851
-1.60681
-1.47327
-1.34765
-1.22966
-1.11898
-1.01528
-0.918214
-0.827434
-0.742579
-0.6633
-0.589223
-0.520037
-0.455313
-0.394898
-0.338035
-0.285376
-0.234335
-0.189913
-0.13948
-0.111939
-0.0387804
-0.0824874
-10.3815
-10.4039
-10.4271
-10.451
-10.4751
-10.4989
-10.5223
-10.5451
-10.5675
-10.5895
-10.6115
-10.6334
-10.6553
-10.6772
-10.6989
-10.7199
-10.74
-10.7585
-10.7748
-10.7885
-10.7988
-10.8051
-10.8068
-10.8034
-10.7945
-10.7795
-10.7581
-10.7299
-10.6946
-10.652
-10.6017
-10.5438
-10.4778
-10.4036
-10.3212
-10.2303
-10.1307
-10.0225
-9.90538
-9.77937
-9.64437
-9.50034
-9.34727
-9.1852
-9.01419
-8.83437
-8.6459
-8.44904
-8.24406
-8.03134
-7.81131
-7.58446
-7.35137
-7.11268
-6.86908
-6.62134
-6.37028
-6.11674
-5.86162
-5.60584
-5.35031
-5.09596
-4.8437
-4.59442
-4.34895
-4.10811
-3.87261
-3.64313
-3.42025
-3.2045
-2.99629
-2.79598
-2.60383
-2.42003
-2.24467
-2.0778
-1.91937
-1.7693
-1.62744
-1.49358
-1.3675
-1.24892
-1.13755
-1.03307
-0.935149
-0.843449
-0.757623
-0.677329
-0.602207
-0.531946
-0.466132
-0.404598
-0.346625
-0.292802
-0.240683
-0.19501
-0.143672
-0.114623
-0.041093
-0.0826141
-10.3762
-10.3974
-10.4193
-10.4416
-10.4641
-10.4864
-10.5084
-10.53
-10.5511
-10.572
-10.5925
-10.6129
-10.6331
-10.653
-10.6724
-10.691
-10.7084
-10.7241
-10.7377
-10.7485
-10.756
-10.7596
-10.7588
-10.753
-10.7419
-10.7248
-10.7016
-10.6718
-10.6351
-10.5913
-10.54
-10.4812
-10.4146
-10.34
-10.2572
-10.1661
-10.0666
-9.95858
-9.84187
-9.71642
-9.58217
-9.43908
-9.28715
-9.12642
-8.95697
-8.7789
-8.59242
-8.39773
-8.19515
-7.98502
-7.76776
-7.54388
-7.31391
-7.07848
-6.83827
-6.59401
-6.34649
-6.09654
-5.84502
-5.5928
-5.34079
-5.08987
-4.84092
-4.5948
-4.35233
-4.11429
-3.88137
-3.65424
-3.43348
-3.21959
-3.013
-2.81404
-2.623
-2.44006
-2.26534
-2.09887
-1.94065
-1.7906
-1.64857
-1.51439
-1.38784
-1.26868
-1.15661
-1.05134
-0.952548
-0.859917
-0.773105
-0.691782
-0.615596
-0.544241
-0.477314
-0.414638
-0.355532
-0.300516
-0.247294
-0.200321
-0.148077
-0.11737
-0.0436558
-0.0823059
-10.3701
-10.3902
-10.4108
-10.4317
-10.4527
-10.4737
-10.4943
-10.5146
-10.5345
-10.554
-10.5732
-10.592
-10.6104
-10.6283
-10.6455
-10.6617
-10.6766
-10.6897
-10.7006
-10.7087
-10.7135
-10.7146
-10.7113
-10.7032
-10.6899
-10.6709
-10.6459
-10.6145
-10.5764
-10.5314
-10.4791
-10.4195
-10.3522
-10.2771
-10.194
-10.1028
-10.0033
-9.89549
-9.77918
-9.6543
-9.52081
-9.37867
-9.2279
-9.06852
-8.90062
-8.72433
-8.53982
-8.34733
-8.14713
-7.93959
-7.72511
-7.50417
-7.27731
-7.04513
-6.80828
-6.56749
-6.32349
-6.07711
-5.82915
-5.58048
-5.33195
-5.08444
-4.83878
-4.5958
-4.35631
-4.12104
-3.89069
-3.66591
-3.44725
-3.23521
-3.03022
-2.83262
-2.64269
-2.46061
-2.28652
-2.12046
-1.96244
-1.8124
-1.6702
-1.53569
-1.40868
-1.28892
-1.17614
-1.07007
-0.970405
-0.876828
-0.789016
-0.706647
-0.629381
-0.556911
-0.488852
-0.425011
-0.364748
-0.308511
-0.254162
-0.205842
-0.152687
-0.120182
-0.0464408
-0.0816019
-10.3633
-10.3823
-10.4017
-10.4213
-10.441
-10.4606
-10.48
-10.4989
-10.5175
-10.5357
-10.5534
-10.5706
-10.5873
-10.6033
-10.6184
-10.6323
-10.6448
-10.6554
-10.6637
-10.6693
-10.6716
-10.6701
-10.6645
-10.6542
-10.6388
-10.6179
-10.5911
-10.5581
-10.5187
-10.4725
-10.4192
-10.3587
-10.2908
-10.2152
-10.1318
-10.0405
-9.94106
-9.83344
-9.71753
-9.59324
-9.46052
-9.31935
-9.16974
-9.01172
-8.8454
-8.67088
-8.48835
-8.29804
-8.10023
-7.89527
-7.68355
-7.46555
-7.24178
-7.01282
-6.77932
-6.54195
-6.30145
-6.05859
-5.81417
-5.56901
-5.32394
-5.0798
-4.83739
-4.59753
-4.36098
-4.12846
-3.90066
-3.6782
-3.46162
-3.25142
-3.04802
-2.85177
-2.66292
-2.4817
-2.30823
-2.14258
-1.98475
-1.83471
-1.69234
-1.5575
-1.43
-1.30963
-1.19615
-1.08927
-0.988708
-0.894172
-0.805345
-0.721914
-0.643548
-0.569946
-0.500734
-0.435708
-0.374263
-0.31678
-0.261278
-0.21157
-0.15749
-0.123062
-0.0494162
-0.0805475
-10.3559
-10.3738
-10.3921
-10.4105
-10.4289
-10.4472
-10.4653
-10.483
-10.5002
-10.517
-10.5333
-10.5489
-10.5639
-10.578
-10.591
-10.6028
-10.613
-10.6213
-10.6272
-10.6303
-10.6301
-10.6263
-10.6184
-10.606
-10.5885
-10.5658
-10.5373
-10.5029
-10.4621
-10.4147
-10.3604
-10.2991
-10.2306
-10.1545
-10.0709
-9.97941
-9.88005
-9.77267
-9.65716
-9.53347
-9.40154
-9.26135
-9.11291
-8.95627
-8.79152
-8.61878
-8.43824
-8.25011
-8.05468
-7.85229
-7.64332
-7.42823
-7.20752
-6.98176
-6.75156
-6.51759
-6.28055
-6.04118
-5.80025
-5.55856
-5.3169
-5.07608
-4.83689
-4.6001
-4.36645
-4.13665
-3.91137
-3.69119
-3.47667
-3.26828
-3.06645
-2.87151
-2.68375
-2.50336
-2.3305
-2.16524
-2.00759
-1.85754
-1.71498
-1.5798
-1.45181
-1.33083
-1.21661
-1.10891
-1.00744
-0.911935
-0.822077
-0.737567
-0.658085
-0.583332
-0.512947
-0.446715
-0.384067
-0.325313
-0.268632
-0.217495
-0.162473
-0.12601
-0.0525466
-0.0791919
-10.3479
-10.3648
-10.382
-10.3993
-10.4165
-10.4336
-10.4504
-10.4668
-10.4827
-10.4981
-10.5129
-10.527
-10.5403
-10.5526
-10.5637
-10.5734
-10.5814
-10.5874
-10.591
-10.5918
-10.5894
-10.5833
-10.5732
-10.5587
-10.5394
-10.5149
-10.4848
-10.4488
-10.4067
-10.3582
-10.303
-10.2409
-10.1718
-10.0953
-10.0113
-9.9198
-9.82052
-9.71339
-9.59833