/*--------------------------------*- C++ -*----------------------------------*\
  =========                 |
  \\      /  F ield         | OpenFOAM: The Open Source CFD Toolbox
   \\    /   O peration     | Website:  https://openfoam.org
    \\  /    A nd           | Version:  10
     \\/     M anipulation  |
\*---------------------------------------------------------------------------*/
FoamFile
{
    format      ascii;
    class       surfaceScalarField;
    location    "1400";
    object      phi;
}
// * * * * * * * * * * * * * * * * * * * * * * * * * * * * * * * * * * * * * //

dimensions      [0 3 -1 0 0 0 0];

internalField   nonuniform List<scalar> 
13452
(
6.29962e-05
-2.72775e-06
6.37618e-05
-7.65609e-07
6.45326e-05
-7.70775e-07
6.38573e-05
6.75242e-07
6.25159e-05
1.3414e-06
6.10811e-05
1.43479e-06
5.97496e-05
1.33153e-06
5.85559e-05
1.19368e-06
5.74951e-05
1.06081e-06
5.6554e-05
9.4111e-07
5.5717e-05
8.3705e-07
5.49685e-05
7.48473e-07
5.4295e-05
6.73435e-07
5.36856e-05
6.09408e-07
5.31313e-05
5.54288e-07
5.26249e-05
5.06481e-07
5.21601e-05
4.64722e-07
5.17322e-05
4.27987e-07
5.13367e-05
3.95464e-07
5.09702e-05
3.66512e-07
5.06296e-05
3.40622e-07
5.03122e-05
3.17389e-07
5.00157e-05
2.96492e-07
4.9738e-05
2.77685e-07
4.94772e-05
2.60791e-07
4.92315e-05
2.45703e-07
4.89991e-05
2.32411e-07
4.87781e-05
2.20993e-07
4.85662e-05
2.119e-07
4.83608e-05
2.0535e-07
4.81557e-05
2.05119e-07
4.79439e-05
2.11809e-07
2.32392e-07
4.77115e-05
6.28938e-05
-3.63119e-06
6.27373e-05
-6.09121e-07
6.21167e-05
-1.5022e-07
6.23912e-05
4.00781e-07
6.28731e-05
8.59467e-07
6.32661e-05
1.04185e-06
6.35105e-05
1.08707e-06
6.36213e-05
1.08293e-06
6.36286e-05
1.05348e-06
6.35616e-05
1.00807e-06
6.34433e-05
9.55332e-07
6.32904e-05
9.01384e-07
6.31148e-05
8.49102e-07
6.29246e-05
7.9957e-07
6.27257e-05
7.53146e-07
6.25223e-05
7.09936e-07
6.23171e-05
6.69869e-07
6.21124e-05
6.32762e-07
6.19094e-05
5.98396e-07
6.17094e-05
5.66556e-07
6.1513e-05
5.37042e-07
6.13207e-05
5.09675e-07
6.11328e-05
4.84308e-07
6.09497e-05
4.60823e-07
6.07713e-05
4.39147e-07
6.05978e-05
4.19253e-07
6.0429e-05
4.01213e-07
6.02649e-05
3.8513e-07
6.01051e-05
3.71613e-07
5.99497e-05
3.60775e-07
5.97986e-05
3.5627e-07
5.96573e-05
3.53122e-07
3.73081e-07
5.95166e-05
6.23344e-05
-2.20422e-06
6.26284e-05
-9.03082e-07
6.27866e-05
-3.08402e-07
6.3096e-05
9.13876e-08
6.34472e-05
5.0825e-07
6.37492e-05
7.39798e-07
6.39953e-05
8.4103e-07
6.41902e-05
8.88034e-07
6.43384e-05
9.05298e-07
6.44461e-05
9.00286e-07
6.45206e-05
8.8089e-07
6.4568e-05
8.53953e-07
6.45937e-05
8.23424e-07
6.46019e-05
7.9133e-07
6.45962e-05
7.58874e-07
6.45793e-05
7.26855e-07
6.45534e-05
6.95757e-07
6.45203e-05
6.65836e-07
6.44815e-05
6.3722e-07
6.44381e-05
6.09968e-07
6.4391e-05
5.84099e-07
6.43411e-05
5.59612e-07
6.42889e-05
5.36504e-07
6.42349e-05
5.14778e-07
6.41796e-05
4.94462e-07
6.41232e-05
4.75621e-07
6.40661e-05
4.584e-07
6.40082e-05
4.42985e-07
6.39499e-05
4.2994e-07
6.38911e-05
4.1953e-07
6.38335e-05
4.13841e-07
6.37763e-05
4.10354e-07
4.18955e-07
6.37304e-05
6.47916e-05
-1.41271e-06
6.47391e-05
-8.50656e-07
6.47873e-05
-3.56606e-07
6.48995e-05
-2.077e-08
6.50725e-05
3.35227e-07
6.52455e-05
5.66782e-07
6.54028e-05
6.83784e-07
6.55432e-05
7.47585e-07
6.56659e-05
7.8263e-07
6.57707e-05
7.95442e-07
6.5859e-05
7.92594e-07
6.59326e-05
7.80381e-07
6.59933e-05
7.62708e-07
6.60429e-05
7.41718e-07
6.6083e-05
7.188e-07
6.61149e-05
6.94945e-07
6.61398e-05
6.70825e-07
6.61588e-05
6.46868e-07
6.61727e-05
6.23353e-07
6.61821e-05
6.0047e-07
6.61879e-05
5.78349e-07
6.61904e-05
5.57086e-07
6.61902e-05
5.36758e-07
6.61875e-05
5.17439e-07
6.61827e-05
4.99218e-07
6.61762e-05
4.82211e-07
6.6168e-05
4.66593e-07
6.61584e-05
4.52586e-07
6.61477e-05
4.40632e-07
6.61362e-05
4.3102e-07
6.61252e-05
4.2485e-07
6.61145e-05
4.21064e-07
4.23813e-07
6.61096e-05
6.70182e-05
-9.74152e-07
6.6871e-05
-7.03426e-07
6.68449e-05
-3.30493e-07
6.68728e-05
-4.86722e-08
6.69617e-05
2.46357e-07
6.70706e-05
4.57873e-07
6.71773e-05
5.77009e-07
6.72777e-05
6.47227e-07
6.73703e-05
6.89977e-07
6.74543e-05
7.11517e-07
6.75293e-05
7.17556e-07
6.7596e-05
7.13695e-07
6.76551e-05
7.03599e-07
6.77074e-05
6.89399e-07
6.77537e-05
6.72523e-07
6.77946e-05
6.54014e-07
6.78308e-05
6.34609e-07
6.78629e-05
6.14807e-07
6.78913e-05
5.94954e-07
6.79165e-05
5.75302e-07
6.79388e-05
5.56037e-07
6.79586e-05
5.37302e-07
6.79761e-05
5.19217e-07
6.79917e-05
5.01892e-07
6.80054e-05
4.85445e-07
6.80176e-05
4.70009e-07
6.80285e-05
4.55761e-07
6.80381e-05
4.42907e-07
6.8047e-05
4.31769e-07
6.80554e-05
4.22573e-07
6.80644e-05
4.15855e-07
6.80743e-05
4.11155e-07
4.09959e-07
6.80882e-05
6.9089e-05
-6.79117e-07
6.89436e-05
-5.58016e-07
6.89005e-05
-2.87439e-07
6.89039e-05
-5.20643e-08
6.89554e-05
1.94871e-07
6.90297e-05
3.83592e-07
6.91069e-05
4.99806e-07
6.91817e-05
5.72383e-07
6.9253e-05
6.18702e-07
6.93196e-05
6.44892e-07
6.9381e-05
6.56124e-07
6.94374e-05
6.57358e-07
6.9489e-05
6.51989e-07
6.95363e-05
6.4211e-07
6.95796e-05
6.29156e-07
6.96195e-05
6.14185e-07
6.96561e-05
5.97954e-07
6.96899e-05
5.80996e-07
6.97212e-05
5.63693e-07
6.97502e-05
5.46327e-07
6.97771e-05
5.29113e-07
6.98022e-05
5.1222e-07
6.98256e-05
4.95788e-07
6.98476e-05
4.79944e-07
6.98682e-05
4.64815e-07
6.98877e-05
4.50533e-07
6.99062e-05
4.37254e-07
6.99239e-05
4.25147e-07
6.99413e-05
4.14421e-07
6.99586e-05
4.05216e-07
6.99767e-05
3.9774e-07
6.99962e-05
3.917e-07
3.87378e-07
7.00188e-05
7.11537e-05
-4.66456e-07
7.10277e-05
-4.32005e-07
7.09799e-05
-2.39671e-07
7.09726e-05
-4.47306e-08
7.10041e-05
1.633e-07
7.10576e-05
3.30158e-07
7.11167e-05
4.40716e-07
7.11758e-05
5.1325e-07
7.12334e-05
5.61046e-07
7.12885e-05
5.8985e-07
7.13402e-05
6.04381e-07
7.13886e-05
6.09014e-07
7.14337e-05
6.06868e-07
7.14758e-05
5.99974e-07
7.15152e-05
5.8976e-07
7.15521e-05
5.77281e-07
7.15868e-05
5.63302e-07
7.16194e-05
5.48376e-07
7.16502e-05
5.32905e-07
7.16793e-05
5.17192e-07
7.1707e-05
5.01467e-07
7.17333e-05
4.85914e-07
7.17584e-05
4.70684e-07
7.17824e-05
4.5591e-07
7.18055e-05
4.41714e-07
7.18278e-05
4.28219e-07
7.18495e-05
4.1555e-07
7.18708e-05
4.03832e-07
7.18921e-05
3.93182e-07
7.19136e-05
3.83654e-07
7.19361e-05
3.75267e-07
7.19601e-05
3.67748e-07
3.60894e-07
7.19866e-05
7.32523e-05
-3.13512e-07
7.31446e-05
-3.24239e-07
7.30947e-05
-1.89844e-07
7.30808e-05
-3.07488e-08
7.31e-05
1.4403e-07
7.31398e-05
2.90423e-07
7.31869e-05
3.93617e-07
7.32357e-05
4.64362e-07
7.32845e-05
5.12299e-07
7.33318e-05
5.42503e-07
7.3377e-05
5.59207e-07
7.34198e-05
5.66243e-07
7.34602e-05
5.66449e-07
7.34984e-05
5.61772e-07
7.35345e-05
5.53612e-07
7.35688e-05
5.43012e-07
7.36014e-05
5.30737e-07
7.36324e-05
5.17349e-07
7.3662e-05
5.03266e-07
7.36904e-05
4.88803e-07
7.37177e-05
4.742e-07
7.3744e-05
4.59651e-07
7.37693e-05
4.4531e-07
7.37939e-05
4.31309e-07
7.38179e-05
4.17764e-07
7.38413e-05
4.04781e-07
7.38644e-05
3.92454e-07
7.38874e-05
3.80863e-07
7.39105e-05
3.70059e-07
7.39341e-05
3.60025e-07
7.39587e-05
3.50675e-07
7.39847e-05
3.4173e-07
3.32826e-07
7.40128e-05
7.53941e-05
-2.05154e-07
7.53032e-05
-2.33342e-07
7.52537e-05
-1.40296e-07
7.52354e-05
-1.24485e-08
7.52461e-05
1.33255e-07
7.5276e-05
2.60559e-07
7.53143e-05
3.55288e-07
7.53558e-05
4.22876e-07
7.53982e-05
4.69919e-07
7.54401e-05
5.00631e-07
7.54806e-05
5.18694e-07
7.55194e-05
5.27434e-07
7.55564e-05
5.29402e-07
7.55918e-05
5.26434e-07
7.56255e-05
5.19884e-07
7.56578e-05
5.10768e-07
7.56886e-05
4.99845e-07
7.57183e-05
4.8768e-07
7.57469e-05
4.74698e-07
7.57745e-05
4.61222e-07
7.58012e-05
4.47499e-07
7.58271e-05
4.33727e-07
7.58523e-05
4.2006e-07
7.5877e-05
4.06628e-07
7.59013e-05
3.93535e-07
7.59252e-05
3.80871e-07
7.59489e-05
3.68702e-07
7.59727e-05
3.57069e-07
7.59968e-05
3.45976e-07
7.60215e-05
3.3536e-07
7.6047e-05
3.25083e-07
7.60739e-05
3.14871e-07
3.04337e-07
7.61024e-05
7.7584e-05
-1.29565e-07
7.75094e-05
-1.58719e-07
7.74625e-05
-9.34846e-08
7.74418e-05
8.26383e-09
7.74464e-05
1.28659e-07
7.74687e-05
2.38267e-07
7.75001e-05
3.23865e-07
7.75358e-05
3.87229e-07
7.75732e-05
4.32504e-07
7.76109e-05
4.62974e-07
7.76478e-05
4.81729e-07
7.76837e-05
4.91608e-07
7.77182e-05
4.94874e-07
7.77514e-05
4.93228e-07
7.77833e-05
4.87957e-07
7.7814e-05
4.80039e-07
7.78437e-05
4.70218e-07
7.78723e-05
4.59055e-07
7.79e-05
4.46974e-07
7.79269e-05
4.34302e-07
7.79531e-05
4.21292e-07
7.79787e-05
4.08138e-07
7.80038e-05
3.94997e-07
7.80284e-05
3.81989e-07
7.80528e-05
3.69212e-07
7.80769e-05
3.56735e-07
7.8101e-05
3.44605e-07
7.81252e-05
3.32835e-07
7.81498e-05
3.21395e-07
7.8175e-05
3.10198e-07
7.8201e-05
2.99088e-07
7.8228e-05
2.87811e-07
2.76018e-07
7.82563e-05
7.98265e-05
-7.77056e-08
7.97671e-05
-9.93635e-08
7.97251e-05
-5.1458e-08
7.97038e-05
2.95847e-08
7.9704e-05
1.28419e-07
7.97204e-05
2.2188e-07
7.97462e-05
2.98085e-07
7.97769e-05
3.56445e-07
7.98102e-05
3.9922e-07
7.98444e-05
4.28794e-07
7.98785e-05
4.47655e-07
7.99119e-05
4.5818e-07
7.99444e-05
4.62343e-07
7.9976e-05
4.6169e-07
8.00065e-05
4.57423e-07
8.00361e-05
4.50473e-07
8.00647e-05
4.41556e-07
8.00926e-05
4.31221e-07
8.01197e-05
4.19889e-07
8.01461e-05
4.07886e-07
8.01719e-05
3.95462e-07
8.01972e-05
3.82813e-07
8.02221e-05
3.70088e-07
8.02467e-05
3.57404e-07
8.02711e-05
3.44847e-07
8.02954e-05
3.32475e-07
8.03196e-05
3.20316e-07
8.03441e-05
3.08363e-07
8.03689e-05
2.96571e-07
8.03943e-05
2.84844e-07
8.04204e-05
2.73027e-07
8.04473e-05
2.60899e-07
2.48167e-07
8.04751e-05
8.21255e-05
-4.27767e-08
8.20798e-05
-5.36472e-08
8.20439e-05
-1.55695e-08
8.20236e-05
4.98533e-08
8.20212e-05
1.30875e-07
8.20331e-05
2.09959e-07
8.20543e-05
2.76906e-07
8.20809e-05
3.2978e-07
8.21107e-05
3.69484e-07
8.21419e-05
3.97601e-07
8.21735e-05
4.16055e-07
8.22049e-05
4.26784e-07
8.22357e-05
4.31481e-07
8.22659e-05
4.31525e-07
8.22953e-05
4.28018e-07
8.23239e-05
4.21832e-07
8.23518e-05
4.13649e-07
8.23791e-05
4.03998e-07
8.24057e-05
3.93291e-07
8.24317e-05
3.81846e-07
8.24573e-05
3.69911e-07
8.24824e-05
3.57676e-07
8.25072e-05
3.45288e-07
8.25317e-05
3.32856e-07
8.25561e-05
3.20457e-07
8.25805e-05
3.08139e-07
8.26049e-05
2.95917e-07
8.26295e-05
2.83777e-07
8.26544e-05
2.71664e-07
8.26797e-05
2.59484e-07
8.27056e-05
2.47099e-07
8.27322e-05
2.34324e-07
2.20925e-07
8.27595e-05
8.44847e-05
-1.97127e-08
8.44506e-05
-1.95581e-08
8.44215e-05
1.35981e-08
8.44036e-05
6.77425e-08
8.43999e-05
1.34523e-07
8.44087e-05
2.01177e-07
8.44262e-05
2.59365e-07
8.44494e-05
3.06574e-07
8.44761e-05
3.42813e-07
8.45047e-05
3.69026e-07
8.45341e-05
3.8663e-07
8.45637e-05
3.97173e-07
8.45931e-05
4.02074e-07
8.46221e-05
4.02541e-07
8.46506e-05
3.9957e-07
8.46784e-05
3.93963e-07
8.47057e-05
3.86359e-07
8.47325e-05
3.77264e-07
8.47587e-05
3.67072e-07
8.47844e-05
3.56092e-07
8.48098e-05
3.44565e-07
8.48348e-05
3.32675e-07
8.48595e-05
3.20563e-07
8.4884e-05
3.08332e-07
8.49084e-05
2.96051e-07
8.49328e-05
2.83761e-07
8.49573e-05
2.71472e-07
8.49819e-05
2.59162e-07
8.50068e-05
2.4678e-07
8.5032e-05
2.34241e-07
8.50577e-05
2.21426e-07
8.50838e-05
2.0819e-07
1.9435e-07
8.51104e-05
8.69073e-05
-4.81748e-09
8.68827e-05
5.00414e-09
8.68602e-05
3.6124e-08
8.68455e-05
8.2378e-08
8.6842e-05
1.38099e-07
8.68488e-05
1.94321e-07
8.68637e-05
2.44532e-07
8.68841e-05
2.8617e-07
8.69081e-05
3.18744e-07
8.69344e-05
3.42728e-07
8.69619e-05
3.59128e-07
8.699e-05
3.69147e-07
8.70181e-05
3.73957e-07
8.7046e-05
3.746e-07
8.70736e-05
3.71957e-07
8.71008e-05
3.66757e-07
8.71276e-05
3.59591e-07
8.71539e-05
3.50934e-07
8.71798e-05
3.41159e-07
8.72054e-05
3.30563e-07
8.72306e-05
3.19376e-07
8.72555e-05
3.07774e-07
8.72801e-05
2.95892e-07
8.73046e-05
2.83827e-07
8.7329e-05
2.71643e-07
8.73534e-05
2.59375e-07
8.73779e-05
2.47029e-07
8.74024e-05
2.34587e-07
8.74272e-05
2.22001e-07
8.74523e-05
2.09199e-07
8.74776e-05
1.96087e-07
8.75032e-05
1.82553e-07
1.68459e-07
8.75291e-05
8.93962e-05
4.54657e-09
8.93791e-05
2.20299e-08
8.93627e-05
5.25709e-08
8.93517e-05
9.3367e-08
8.93491e-05
1.40672e-07
8.93551e-05
1.88356e-07
8.93681e-05
2.31539e-07
8.93863e-05
2.67924e-07
8.94083e-05
2.96811e-07
8.94326e-05
3.18374e-07
8.94585e-05
3.33305e-07
8.94851e-05
3.42527e-07
8.9512e-05
3.46994e-07
8.9539e-05
3.4759e-07
8.95659e-05
3.45086e-07
8.95925e-05
3.40135e-07
8.96189e-05
3.33277e-07
8.96448e-05
3.2495e-07
8.96705e-05
3.15505e-07
8.96958e-05
3.0522e-07
8.97209e-05
2.94313e-07
8.97457e-05
2.82954e-07
8.97703e-05
2.71268e-07
8.97948e-05
2.59347e-07
8.98192e-05
2.47251e-07
8.98436e-05
2.35011e-07
8.9868e-05
2.22636e-07
8.98925e-05
2.10107e-07
8.99171e-05
1.97388e-07
8.99418e-05
1.8442e-07
8.99668e-05
1.71133e-07
8.99919e-05
1.57441e-07
1.43248e-07
9.00171e-05
9.19542e-05
1.02176e-08
9.19429e-05
3.32672e-08
9.19317e-05
6.37705e-08
9.19244e-05
1.00721e-07
9.19234e-05
1.41661e-07
9.19293e-05
1.82475e-07
9.19412e-05
2.19625e-07
9.19579e-05
2.51221e-07
9.19782e-05
2.76549e-07
9.20009e-05
2.95622e-07
9.20253e-05
3.08914e-07
9.20507e-05
3.17133e-07
9.20766e-05
3.2105e-07
9.21028e-05
3.21409e-07
9.2129e-05
3.18877e-07
9.21551e-05
3.14034e-07
9.2181e-05
3.07365e-07
9.22067e-05
2.9927e-07
9.22322e-05
2.90074e-07
9.22573e-05
2.80036e-07
9.22823e-05
2.69361e-07
9.2307e-05
2.58208e-07
9.23316e-05
2.46694e-07
9.23561e-05
2.34905e-07
9.23804e-05
2.22899e-07
9.24047e-05
2.10705e-07
9.2429e-05
1.98333e-07
9.24533e-05
1.85771e-07
9.24777e-05
1.72991e-07
9.25022e-05
1.5995e-07
9.25268e-05
1.46596e-07
9.25513e-05
1.3287e-07
1.18705e-07
9.25759e-05
9.45839e-05
1.34566e-08
9.4577e-05
4.01809e-08
9.45701e-05
7.06603e-08
9.45661e-05
1.0475e-07
9.45669e-05
1.40823e-07
9.45733e-05
1.76136e-07
9.45847e-05
2.08191e-07
9.46004e-05
2.35526e-07
9.46194e-05
2.57524e-07
9.46409e-05
2.74138e-07
9.46641e-05
2.85707e-07
9.46885e-05
2.92782e-07
9.47135e-05
2.95991e-07
9.4739e-05
2.95957e-07
9.47646e-05
2.93256e-07
9.47902e-05
2.88396e-07
9.48158e-05
2.8181e-07
9.48412e-05
2.73861e-07
9.48664e-05
2.64844e-07
9.48915e-05
2.54998e-07
9.49163e-05
2.44514e-07
9.4941e-05
2.33537e-07
9.49655e-05
2.22179e-07
9.49899e-05
2.1052e-07
9.50142e-05
1.98614e-07
9.50384e-05
1.86491e-07
9.50625e-05
1.74162e-07
9.50867e-05
1.61623e-07
9.51108e-05
1.48853e-07
9.5135e-05
1.35825e-07
9.51591e-05
1.22503e-07
9.51831e-05
1.08848e-07
9.48163e-08
9.5207e-05
9.72879e-05
1.51134e-08
9.72841e-05
4.39456e-08
9.72806e-05
7.41579e-08
9.72794e-05
1.05937e-07
9.72821e-05
1.38179e-07
9.72891e-05
1.6905e-07
9.73005e-05
1.96822e-07
9.73156e-05
2.20418e-07
9.73338e-05
2.39363e-07
9.73543e-05
2.53618e-07
9.73766e-05
2.63448e-07
9.74e-05
2.69297e-07
9.74243e-05
2.71684e-07
9.74492e-05
2.71137e-07
9.74743e-05
2.68151e-07
9.74995e-05
2.6317e-07
9.75247e-05
2.56577e-07
9.75499e-05
2.48697e-07
9.75749e-05
2.39799e-07
9.75998e-05
2.30099e-07
9.76246e-05
2.19771e-07
9.76492e-05
2.0895e-07
9.76736e-05
1.9774e-07
9.76979e-05
1.86215e-07
9.77221e-05
1.74425e-07
9.77462e-05
1.62402e-07
9.77702e-05
1.50161e-07
9.77941e-05
1.377e-07
9.7818e-05
1.2501e-07
9.78417e-05
1.12074e-07
9.78653e-05
9.88715e-08
9.78888e-05
8.53788e-08
7.15703e-08
9.7912e-05
0.000100068
1.57576e-08
0.000100067
4.5484e-08
0.000100066
7.51019e-08
0.000100067
1.04847e-07
0.000100071
1.33942e-07
0.000100079
1.6115e-07
0.000100091
1.85291e-07
0.000100106
2.05612e-07
0.000100123
2.21787e-07
0.000100143
2.33817e-07
0.000100164
2.41936e-07
0.000100187
2.46521e-07
0.000100211
2.48013e-07
0.000100235
2.46863e-07
0.00010026
2.435e-07
0.000100285
2.38311e-07
0.00010031
2.31635e-07
0.000100335
2.23762e-07
0.000100359
2.1493e-07
0.000100384
2.05337e-07
0.000100409
1.9514e-07
0.000100433
1.84461e-07
0.000100458
1.73396e-07
0.000100482
1.62014e-07
0.000100506
1.50363e-07
0.00010053
1.38474e-07
0.000100554
1.26363e-07
0.000100577
1.14037e-07
0.000100601
1.01493e-07
0.000100624
8.87229e-08
0.000100647
7.57174e-08
0.00010067
6.24668e-08
4.89555e-08
0.000100693
0.000102928
1.57688e-08
0.000102928
4.5505e-08
0.000102929
7.42196e-08
0.000102932
1.02058e-07
0.000102937
1.28445e-07
0.000102946
1.52536e-07
0.000102958
1.73542e-07
0.000102972
1.90967e-07
0.000102989
2.04623e-07
0.000103009
2.14566e-07
0.00010303
2.21024e-07
0.000103052
2.24335e-07
0.000103075
2.24885e-07
0.000103099
2.23066e-07
0.000103123
2.19254e-07
0.000103147
2.13788e-07
0.000103172
2.06967e-07
0.000103197
1.99046e-07
0.000103221
1.9024e-07
0.000103246
1.80722e-07
0.000103271
1.70635e-07
0.000103295
1.6009e-07
0.000103319
1.49173e-07
0.000103343
1.37947e-07
0.000103367
1.26459e-07
0.000103391
1.14738e-07
0.000103414
1.02803e-07
0.000103438
9.06655e-08
0.000103461
7.83276e-08
0.000103484
6.57904e-08
0.000103507
5.30523e-08
0.000103529
4.01119e-08
2.6963e-08
0.000103551
0.000105869
1.54042e-08
0.00010587
4.45574e-08
0.000105872
7.21337e-08
0.000105876
9.81278e-08
0.000105882
1.22087e-07
0.000105892
1.43434e-07
0.000105903
1.61662e-07
0.000105918
1.76478e-07
0.000105935
1.87815e-07
0.000105953
1.95787e-07
0.000105974
2.00634e-07
0.000105996
2.02671e-07
0.000106018
2.02246e-07
0.000106042
1.99709e-07
0.000106065
1.95391e-07
0.00010609
1.8959e-07
0.000106114
1.8257e-07
0.000106138
1.74557e-07
0.000106163
1.65738e-07
0.000106187
1.5627e-07
0.000106212
1.46278e-07
0.000106236
1.35861e-07
0.00010626
1.25097e-07
0.000106284
1.14043e-07
0.000106308
1.02742e-07
0.000106331
9.12241e-08
0.000106355
7.95095e-08
0.000106378
6.76101e-08
0.0001064
5.55361e-08
0.000106423
4.32913e-08
0.000106445
3.08824e-08
0.000106467
1.83119e-08
5.58152e-09
0.000106488
0.000108894
1.4843e-08
0.000108895
4.30706e-08
0.000108898
6.93769e-08
0.000108903
9.35801e-08
0.00010891
1.15303e-07
0.000108919
1.34158e-07
0.000108931
1.49851e-07
0.000108945
1.62257e-07
0.000108961
1.71416e-07
0.00010898
1.775e-07
0.000108999
1.80768e-07
0.000109021
1.81525e-07
0.000109043
1.80094e-07
0.000109066
1.76793e-07
0.000109089
1.71916e-07
0.000109113
1.65728e-07
0.000109137
1.58461e-07
0.000109161
1.50313e-07
0.000109186
1.41449e-07
0.00010921
1.32006e-07
0.000109234
1.22095e-07
0.000109258
1.11802e-07
0.000109282
1.01196e-07
0.000109306
9.03301e-08
0.000109329
7.92414e-08
0.000109352
6.79594e-08
0.000109375
5.65039e-08
0.000109398
4.48907e-08
0.000109421
3.31301e-08
0.000109443
2.12326e-08
0.000109464
9.20587e-09
0.000109486
-2.94115e-09
-1.52045e-08
0.000109506
0.000112005
1.42194e-08
0.000112007
4.14022e-08
0.00011201
6.64256e-08
0.000112014
8.89193e-08
0.000112021
1.08553e-07
0.00011203
1.25089e-07
0.000112042
1.38405e-07
0.000112055
1.48522e-07
0.000112071
1.55583e-07
0.000112089
1.59817e-07
0.000112108
1.61508e-07
0.000112129
1.60962e-07
0.00011215
1.58485e-07
0.000112173
1.54367e-07
0.000112196
1.48875e-07
0.000112219
1.42244e-07
0.000112243
1.34679e-07
0.000112267
1.26352e-07
0.000112291
1.17407e-07
0.000112315
1.07964e-07
0.000112339
9.81171e-08
0.000112363
8.79422e-08
0.000112387
7.74988e-08
0.00011241
6.68322e-08
0.000112433
5.59772e-08
0.000112456
4.496e-08
0.000112479
3.38002e-08
0.000112501
2.25134e-08
0.000112524
1.11122e-08
0.000112545
-3.91896e-10
0.000112566
-1.19881e-08
0.000112587
-2.3666e-08
-3.54195e-08
0.000112607
0.000115205
1.36459e-08
0.000115207
3.98746e-08
0.000115209
6.37353e-08
0.000115214
8.4654e-08
0.00011522
1.02335e-07
0.000115228
1.16672e-07
0.000115239
1.27703e-07
0.000115252
1.35587e-07
0.000115267
1.40569e-07
0.000115284
1.42943e-07
0.000115302
1.43021e-07
0.000115322
1.41117e-07
0.000115343
1.37526e-07
0.000115365
1.32522e-07
0.000115387
1.26344e-07
0.00011541
1.19204e-07
0.000115434
1.11279e-07
0.000115457
1.02722e-07
0.000115481
9.36542e-08
0.000115505
8.41777e-08
0.000115529
7.43732e-08
0.000115552
6.43042e-08
0.000115576
5.40211e-08
0.000115599
4.35619e-08
0.000115622
3.2957e-08
0.000115645
2.22281e-08
0.000115667
1.13942e-08
0.000115689
4.68899e-10
0.000115711
-1.05342e-08
0.000115732
-2.1604e-08
0.000115753
-3.27283e-08
0.000115773
-4.38971e-08
-5.51025e-08
0.000115793
0.000118496
1.32338e-08
0.000118497
3.88222e-08
0.000118499
6.17934e-08
0.000118503
8.13444e-08
0.000118508
9.72159e-08
0.000118515
1.09441e-07
0.000118524
1.18222e-07
0.000118536
1.23864e-07
0.00011855
1.26724e-07
0.000118566
1.27166e-07
0.000118583
1.25544e-07
0.000118602
1.22184e-07
0.000118622
1.17379e-07
0.000118643
1.11386e-07
0.000118665
1.04426e-07
0.000118688
9.66877e-08
0.000118711
8.8326e-08
0.000118734
7.94698e-08
0.000118758
7.02232e-08
0.000118781
6.067e-08
0.000118805
5.08756e-08
0.000118828
4.08926e-08
0.000118851
3.07597e-08
0.000118874
2.05091e-08
0.000118897
1.01627e-08
0.00011892
-2.59625e-10
0.000118942
-1.07447e-08
0.000118963
-2.12786e-08
0.000118985
-3.18516e-08
0.000119006
-4.24513e-08
0.000119026
-5.30686e-08
0.000119046
-6.3692e-08
-7.43165e-08
0.000119065
0.000121881
1.31141e-08
0.000121882
3.8642e-08
0.000121882
6.11832e-08
0.000121884
7.9665e-08
0.000121887
9.38877e-08
0.000121893
1.04056e-07
0.0001219
1.10559e-07
0.00012191
1.13875e-07
0.000121922
1.14491e-07
0.000121937
1.12859e-07
0.000121953
1.09382e-07
0.000121971
1.04408e-07
0.00012199
9.82328e-08
0.00012201
9.11051e-08
0.000122031
8.32292e-08
0.000122053
7.47715e-08
0.000122076
6.58667e-08
0.000122099
5.66219e-08
0.000122122
4.71218e-08
0.000122145
3.7432e-08
0.000122168
2.76034e-08
0.000122191
1.76741e-08
0.000122214
7.67348e-09
0.000122237
-2.37747e-09
0.00012226
-1.24618e-08
0.000122282
-2.2568e-08
0.000122304
-3.2685e-08
0.000122326
-4.2805e-08
0.000122347
-5.29188e-08
0.000122367
-6.3019e-08
0.000122387
-7.3096e-08
0.000122407
-8.3143e-08
-9.31544e-08
0.000122426
0.000125363
1.34665e-08
0.000125362
3.9873e-08
0.00012536
6.26837e-08
0.00012536
8.05019e-08
0.00012536
9.32471e-08
0.000125363
1.01358e-07
0.000125368
1.05468e-07
0.000125376
1.0627e-07
0.000125386
1.04413e-07
0.000125398
1.00459e-07
0.000125413
9.48757e-08
0.000125429
8.80456e-08
0.000125447
8.02747e-08
0.000125466
7.18052e-08
0.000125487
6.28271e-08
0.000125508
5.34876e-08
0.00012553
4.38995e-08
0.000125552
3.41482e-08
0.000125575
2.42976e-08
0.000125598
1.43942e-08
0.000125621
4.47196e-09
0.000125644
-5.44571e-09
0.000125667
-1.53425e-08
0.00012569
-2.52078e-08
0.000125713
-3.50343e-08
0.000125735
-4.48172e-08
0.000125757
-5.45528e-08
0.000125778
-6.42377e-08
0.000125799
-7.38679e-08
0.00012582
-8.3439e-08
0.00012584
-9.29461e-08
0.000125859
-1.02384e-07
-1.11752e-07
0.000125877
0.000128944
1.45677e-08
0.000128941
4.33184e-08
0.000128936
6.7418e-08
0.000128931
8.50939e-08
0.000128928
9.65118e-08
0.000128927
1.02461e-07
0.000128928
1.0391e-07
0.000128933
1.0184e-07
0.00012894
9.71149e-08
0.00012895
9.04382e-08
0.000128963
8.23644e-08
0.000128977
7.33211e-08
0.000128994
6.3631e-08
0.000129012
5.35338e-08
0.000129032
4.3205e-08
0.000129053
3.27713e-08
0.000129074
2.23212e-08
0.000129096
1.19162e-08
0.000129119
1.59592e-09
0.000129142
-8.61409e-09
0.000129165
-1.87007e-08
0.000129189
-2.8657e-08
0.000129212
-3.8483e-08
0.000129235
-4.81804e-08
0.000129257
-5.77541e-08
0.00012928
-6.72081e-08
0.000129302
-7.65477e-08
0.000129323
-8.57758e-08
0.000129344
-9.48955e-08
0.000129365
-1.03907e-07
0.000129385
-1.12811e-07
0.000129404
-1.21607e-07
-1.30296e-07
0.000129422
0.000132627
1.68821e-08
0.00013262
5.0263e-08
0.00013261
7.70957e-08
0.0001326
9.52423e-08
0.000132591
1.05374e-07
0.000132585
1.08831e-07
0.000132582
1.07075e-07
0.000132582
1.01497e-07
0.000132586
9.32511e-08
0.000132593
8.32274e-08
0.000132603
7.20904e-08
0.000132616
6.03251e-08
0.000132632
4.82737e-08
0.000132649
3.61716e-08
0.000132668
2.41753e-08
0.000132688
1.23846e-08
0.00013271
8.59114e-10
0.000132732
-1.03711e-08
0.000132755
-2.12941e-08
0.000132778
-3.19127e-08
0.000132802
-4.22366e-08
0.000132825
-5.22823e-08
0.000132849
-6.20667e-08
0.000132873
-7.16098e-08
0.000132896
-8.09288e-08
0.000132919
-9.00419e-08
0.000132941
-9.89631e-08
0.000132963
-1.07706e-07
0.000132984
-1.1628e-07
0.000133005
-1.24695e-07
0.000133025
-1.32954e-07
0.000133045
-1.41065e-07
-1.49033e-07
0.000133063
0.000136414
2.12457e-08
0.000136401
6.2863e-08
0.000136384
9.44032e-08
0.000136366
1.1361e-07
0.000136349
1.22183e-07
0.000136335
1.22356e-07
0.000136326
1.16355e-07
0.000136321
1.06176e-07
0.000136321
9.33695e-08
0.000136325
7.90606e-08
0.000136333
6.40455e-08
0.000136345
4.88684e-08
0.000136359
3.38836e-08
0.000136376
1.93086e-08
0.000136395
5.26823e-09
0.000136416
-8.17788e-09
0.000136437
-2.1012e-08
0.00013646
-3.32445e-08
0.000136484
-4.49022e-08
0.000136508
-5.60219e-08
0.000136532
-6.6645e-08
0.000136557
-7.6814e-08
0.000136582
-8.65708e-08
0.000136606
-9.59544e-08
0.00013663
-1.05001e-07
0.000136654
-1.13743e-07
0.000136677
-1.22207e-07
0.0001367
-1.30419e-07
0.000136722
-1.38399e-07
0.000136743
-1.46162e-07
0.000136764
-1.53723e-07
0.000136784
-1.61092e-07
-1.68283e-07
0.000136803
0.000140308
2.9249e-08
0.000140286
8.4871e-08
0.000140257
1.2363e-07
0.000140226
1.44116e-07
0.000140198
1.50095e-07
0.000140175
1.45293e-07
0.000140158
1.33159e-07
0.000140148
1.16585e-07
0.000140144
9.76382e-08
0.000140145
7.77118e-08
0.000140151
5.77291e-08
0.000140162
3.82699e-08
0.000140176
1.96677e-08
0.000140193
2.09165e-09
0.000140213
-1.43958e-08
0.000140235
-2.97976e-08
0.000140258
-4.4159e-08
0.000140282
-5.75465e-08
0.000140307
-7.00394e-08
0.000140333
-8.17187e-08
0.000140359
-9.26661e-08
0.000140385
-1.02957e-07
0.000140411
-1.12664e-07
0.000140437
-1.2185e-07
0.000140463
-1.30573e-07
0.000140488
-1.38882e-07
0.000140512
-1.46823e-07
0.000140536
-1.54431e-07
0.00014056
-1.6174e-07
0.000140582
-1.68775e-07
0.000140604
-1.75559e-07
0.000140625
-1.8211e-07
-1.88447e-07
0.000140645
0.00014431
4.4097e-08
0.000144272
1.22967e-07
0.000144224
1.71594e-07
0.000144175
1.92337e-07
0.000144133
1.9304e-07
0.000144098
1.79936e-07
0.000144073
1.5844e-07
0.000144056
1.32707e-07
0.000144049
1.05388e-07
0.000144048
7.80999e-08
0.000144054
5.18214e-08
0.000144065
2.70908e-08
0.000144081
4.14787e-09
0.0001441
-1.6949e-08
0.000144122
-3.62453e-08
0.000144146
-5.38461e-08
0.000144172
-6.98857e-08
0.000144199
-8.45109e-08
0.000144226
-9.78676e-08
0.000144255
-1.10096e-07
0.000144283
-1.21326e-07
0.000144312
-1.31676e-07
0.000144341
-1.41252e-07
0.000144369
-1.50147e-07
0.000144397
-1.58444e-07
0.000144424
-1.66214e-07
0.000144451
-1.73519e-07
0.000144477
-1.80412e-07
0.000144502
-1.86936e-07
0.000144526
-1.93131e-07
0.00014455
-1.99028e-07
0.000144572
-2.04654e-07
-2.10034e-07
0.000144594
0.000148419
7.26537e-08
0.000148353
1.89151e-07
0.000148276
2.48796e-07
0.000148203
2.6561e-07
0.000148141
2.55164e-07
0.000148093
2.27731e-07
0.000148059
1.9177e-07
0.000148039
1.52999e-07
0.00014803
1.1447e-07
0.00014803
7.77898e-08
0.000148038
4.38003e-08
0.000148053
1.28386e-08
0.000148072
-1.5076e-08
0.000148095
-4.00884e-08
0.000148121
-6.24198e-08
0.00014815
-8.23232e-08
0.00014818
-1.00058e-07
0.000148211
-1.15874e-07
0.000148243
-1.30004e-07
0.000148276
-1.42659e-07
0.000148309
-1.54028e-07
0.000148341
-1.64278e-07
0.000148374
-1.73555e-07
0.000148405
-1.81987e-07
0.000148437
-1.89683e-07
0.000148467
-1.96739e-07
0.000148497
-2.03236e-07
0.000148526
-2.09243e-07
0.000148554
-2.14818e-07
0.00014858
-2.20012e-07
0.000148606
-2.24867e-07
0.000148631
-2.29418e-07
-2.33698e-07
0.000148655
0.000152632
1.29873e-07
0.000152516
3.05153e-07
0.000152394
3.70592e-07
0.000152288
3.72165e-07
0.000152204
3.39107e-07
0.000152144
2.87473e-07
0.000152106
2.29857e-07
0.000152085
1.73288e-07
0.000152079
1.20459e-07
0.000152085
7.2408e-08
0.000152099
2.94911e-08
0.00015212
-8.39848e-09
0.000152147
-4.16379e-08
0.000152178
-7.06912e-08
0.000152211
-9.60301e-08
0.000152247
-1.18105e-07
0.000152284
-1.37336e-07
0.000152322
-1.54101e-07
0.000152361
-1.68734e-07
0.0001524
-1.81531e-07
0.000152439
-1.92747e-07
0.000152477
-2.02603e-07
0.000152515
-2.11291e-07
0.000152552
-2.18974e-07
0.000152588
-2.25792e-07
0.000152623
-2.31864e-07
0.000152657
-2.37293e-07
0.00015269
-2.42164e-07
0.000152722
-2.46551e-07
0.000152752
-2.50515e-07
0.000152782
-2.54109e-07
0.000152809
-2.57377e-07
-2.60359e-07
0.000152836
0.000156935
2.46028e-07
0.00015673
5.10864e-07
0.000156541
5.58712e-07
0.000156395
5.19019e-07
0.000156291
4.4283e-07
0.000156226
3.52369e-07
0.000156192
2.6435e-07
0.00015618
1.85193e-07
0.000156185
1.15422e-07
0.000156202
5.46036e-08
0.00015623
2.14956e-09
0.000156264
-4.27923e-08
0.000156304
-8.11911e-08
0.000156347
-1.13949e-07
0.000156393
-1.41852e-07
0.00015644
-1.65596e-07
0.000156489
-1.85788e-07
0.000156538
-2.02954e-07
0.000156586
-2.17546e-07
0.000156635
-2.29949e-07
0.000156683
-2.40491e-07
0.000156729
-2.49453e-07
0.000156775
-2.5707e-07
0.00015682
-2.63545e-07
0.000156863
-2.69046e-07
0.000156905
-2.73719e-07
0.000156945
-2.77684e-07
0.000156984
-2.81046e-07
0.000157021
-2.83888e-07
0.000157057
-2.86287e-07
0.000157091
-2.88302e-07
0.000157124
-2.89987e-07
-2.91391e-07
0.000157155
0.000161294
4.90803e-07
0.000160931
8.73881e-07
0.000160653
8.36518e-07
0.000160464
7.07479e-07
0.000160352
5.5568e-07
0.000160297
4.06646e-07
0.000160282
2.79214e-07
0.000160294
1.73829e-07
0.000160324
8.5581e-08
0.000160367
1.15826e-08
0.000160419
-5.00891e-08
0.000160477
-1.01334e-07
0.00016054
-1.43925e-07
0.000160605
-1.79308e-07
0.000160672
-2.08645e-07
0.00016074
-2.3291e-07
0.000160807
-2.5293e-07
0.000160873
-2.69396e-07
0.000160939
-2.82888e-07
0.000161002
-2.93888e-07
0.000161065
-3.028e-07
0.000161125
-3.09962e-07
0.000161184
-3.15658e-07
0.00016124
-3.20123e-07
0.000161295
-3.23556e-07
0.000161347
-3.26121e-07
0.000161398
-3.27959e-07
0.000161446
-3.29184e-07
0.000161492
-3.29895e-07
0.000161536
-3.30171e-07
0.000161577
-3.30082e-07
0.000161617
-3.29679e-07
-3.29016e-07
0.000161655
0.000165516
1.12864e-06
0.000164915
1.47498e-06
0.000164579
1.17244e-06
0.000164389
8.96903e-07
0.00016431
6.34557e-07
0.000164306
4.1089e-07
0.000164344
2.41623e-07
0.000164407
1.11015e-07
0.000164487
5.67312e-09
0.000164578
-7.99167e-08
0.000164677
-1.48912e-07
0.00016478
-2.04361e-07
0.000164885
-2.48943e-07
0.00016499
-2.84698e-07
0.000165095
-3.132e-07
0.000165198
-3.35745e-07
0.000165298
-3.53409e-07
0.000165396
-3.67076e-07
0.00016549
-3.77463e-07
0.000165582
-3.85157e-07
0.000165669
-3.90642e-07
0.000165754
-3.94311e-07
0.000165835
-3.96493e-07
0.000165912
-3.97455e-07
0.000165986
-3.97418e-07
0.000166056
-3.96566e-07
0.000166123
-3.95051e-07
0.000166187
-3.92999e-07
0.000166248
-3.90516e-07
0.000166305
-3.8769e-07
0.00016636
-3.846e-07
0.000166412
-3.81315e-07
-3.77907e-07
0.00016646
0.000168807
3.22215e-06
0.000167861