/*--------------------------------*- C++ -*----------------------------------*\
  =========                 |
  \\      /  F ield         | OpenFOAM: The Open Source CFD Toolbox
   \\    /   O peration     | Website:  https://openfoam.org
    \\  /    A nd           | Version:  10
     \\/     M anipulation  |
\*---------------------------------------------------------------------------*/
FoamFile
{
    format      ascii;
    class       volVectorField;
    location    "1400";
    object      U;
}
// * * * * * * * * * * * * * * * * * * * * * * * * * * * * * * * * * * * * * //

dimensions      [0 1 -1 0 0 0 0];

internalField   nonuniform List<vector> 
6820
(
(7.13228 -2.83247 0)
(7.73434 -2.22097 0)
(7.93448 -1.24474 0)
(7.85773 -0.630601 0)
(7.69325 -0.300931 0)
(7.51792 -0.135204 0)
(7.34937 -0.0534975 0)
(7.19463 -0.0130612 0)
(7.05695 0.00686758 0)
(6.9355 0.0163324 0)
(6.82783 0.0203892 0)
(6.73176 0.0216662 0)
(6.64554 0.021537 0)
(6.56774 0.0207168 0)
(6.49715 0.0195834 0)
(6.43279 0.01834 0)
(6.37384 0.017094 0)
(6.31965 0.0158996 0)
(6.26965 0.0147816 0)
(6.22337 0.0137496 0)
(6.18042 0.0128048 0)
(6.14045 0.0119445 0)
(6.10316 0.0111645 0)
(6.06828 0.0104606 0)
(6.03556 0.00982979 0)
(6.00479 0.00927093 0)
(5.97576 0.00878712 0)
(5.94822 0.00838513 0)
(5.92199 0.00809142 0)
(5.8966 0.00792796 0)
(5.87231 0.00807278 0)
(5.8459 0.00886941 0)
(5.82153 0.00811996 0)
(7.57676 0.619468 0)
(7.41857 0.759313 0)
(7.35518 0.519489 0)
(7.35369 0.338997 0)
(7.40446 0.233423 0)
(7.46266 0.167014 0)
(7.5028 0.124256 0)
(7.52296 0.0970542 0)
(7.52875 0.0793568 0)
(7.52455 0.0672659 0)
(7.51318 0.0586456 0)
(7.49677 0.0523015 0)
(7.47705 0.0474913 0)
(7.45521 0.0437271 0)
(7.43207 0.0406891 0)
(7.40818 0.0381717 0)
(7.38394 0.0360393 0)
(7.35965 0.0341984 0)
(7.33549 0.0325839 0)
(7.31163 0.0311498 0)
(7.28816 0.0298634 0)
(7.26516 0.0287011 0)
(7.24266 0.0276465 0)
(7.22072 0.0266882 0)
(7.19933 0.0258203 0)
(7.17852 0.0250416 0)
(7.15827 0.0243589 0)
(7.13857 0.0237837 0)
(7.11946 0.0233656 0)
(7.10078 0.0231108 0)
(7.0829 0.0233432 0)
(7.06469 0.0235613 0)
(7.05012 0.0268999 0)
(7.26194 -0.0479149 0)
(7.1598 -0.0718998 0)
(7.19681 -0.084503 0)
(7.23914 -0.0533693 0)
(7.27631 -0.0172232 0)
(7.31446 0.0063372 0)
(7.34736 0.0206569 0)
(7.37268 0.030011 0)
(7.39198 0.036011 0)
(7.4065 0.0394931 0)
(7.41687 0.0412592 0)
(7.42373 0.0419559 0)
(7.4278 0.0419925 0)
(7.42964 0.0416136 0)
(7.42971 0.0409778 0)
(7.42834 0.0401929 0)
(7.42583 0.0393294 0)
(7.42239 0.0384315 0)
(7.41822 0.0375273 0)
(7.41347 0.036635 0)
(7.40824 0.0357668 0)
(7.40265 0.0349308 0)
(7.39676 0.0341331 0)
(7.39065 0.0333794 0)
(7.38435 0.0326761 0)
(7.37793 0.0320317 0)
(7.37139 0.0314606 0)
(7.36478 0.03098 0)
(7.35811 0.0306383 0)
(7.35136 0.0304536 0)
(7.34471 0.0306261 0)
(7.33787 0.0309628 0)
(7.33195 0.0326454 0)
(7.29243 -0.0887261 0)
(7.22392 -0.0614734 0)
(7.23482 -0.0269008 0)
(7.25115 -0.00103488 0)
(7.26561 0.0189091 0)
(7.28496 0.0304695 0)
(7.30449 0.0362728 0)
(7.32129 0.0394554 0)
(7.33582 0.0412402 0)
(7.3485 0.0420185 0)
(7.35931 0.0421302 0)
(7.36832 0.0418673 0)
(7.37578 0.0413976 0)
(7.3819 0.0408051 0)
(7.38688 0.0401401 0)
(7.39088 0.0394381 0)
(7.39403 0.0387224 0)
(7.39646 0.0380073 0)
(7.39827 0.0373016 0)
(7.39956 0.036612 0)
(7.4004 0.0359432 0)
(7.40085 0.0352996 0)
(7.40097 0.0346853 0)
(7.4008 0.0341057 0)
(7.40038 0.0335677 0)
(7.39974 0.0330809 0)
(7.39891 0.0326609 0)
(7.39791 0.0323274 0)
(7.39678 0.0321214 0)
(7.39552 0.0320701 0)
(7.39425 0.0322992 0)
(7.39291 0.0327207 0)
(7.39198 0.0338763 0)
(7.31244 -0.0515038 0)
(7.26793 -0.0318766 0)
(7.26467 -0.0126205 0)
(7.26769 -5.95745e-05 0)
(7.27322 0.0130517 0)
(7.28436 0.0226466 0)
(7.29691 0.0282824 0)
(7.30832 0.0318825 0)
(7.31873 0.0343753 0)
(7.32833 0.0359783 0)
(7.337 0.0368997 0)
(7.3447 0.0373692 0)
(7.35151 0.03754 0)
(7.35755 0.0374998 0)
(7.36289 0.0373082 0)
(7.36762 0.0370111 0)
(7.3718 0.0366423 0)
(7.3755 0.0362255 0)
(7.37877 0.0357778 0)
(7.38168 0.0353124 0)
(7.38425 0.0348398 0)
(7.38653 0.0343688 0)
(7.38855 0.0339077 0)
(7.39035 0.0334648 0)
(7.39194 0.0330497 0)
(7.39334 0.032674 0)
(7.39459 0.0323536 0)
(7.3957 0.0321084 0)
(7.3967 0.0319705 0)
(7.39762 0.0319664 0)
(7.39854 0.0321658 0)
(7.39949 0.0325425 0)
(7.40072 0.033312 0)
(7.3203 -0.0314413 0)
(7.28849 -0.0238389 0)
(7.28204 -0.0120253 0)
(7.2814 -0.00207373 0)
(7.28395 0.00926571 0)
(7.29103 0.0182359 0)
(7.2996 0.0239828 0)
(7.30776 0.0278577 0)
(7.31545 0.030625 0)
(7.32275 0.0325007 0)
(7.32954 0.0336861 0)
(7.33577 0.0343982 0)
(7.34146 0.0347876 0)
(7.34668 0.0349446 0)
(7.35146 0.0349322 0)
(7.35585 0.0347982 0)
(7.35988 0.0345775 0)
(7.3636 0.0342954 0)
(7.36703 0.0339705 0)
(7.37021 0.033617 0)
(7.37316 0.0332465 0)
(7.3759 0.0328688 0)
(7.37846 0.0324928 0)
(7.38086 0.0321275 0)
(7.3831 0.0317826 0)
(7.38522 0.0314697 0)
(7.38722 0.0312031 0)
(7.38913 0.0309998 0)
(7.39098 0.0308832 0)
(7.39279 0.0308735 0)
(7.39463 0.0310071 0)
(7.39657 0.0312736 0)
(7.39874 0.0317415 0)
(7.32446 -0.0216677 0)
(7.30104 -0.0195822 0)
(7.29416 -0.0109342 0)
(7.2922 -0.00220382 0)
(7.29331 0.00755067 0)
(7.29804 0.0155697 0)
(7.30422 0.0210635 0)
(7.3104 0.0249119 0)
(7.3164 0.0277069 0)
(7.32221 0.0296626 0)
(7.32772 0.0309671 0)
(7.33286 0.0318107 0)
(7.33766 0.0323294 0)
(7.34214 0.03261 0)
(7.34632 0.0327137 0)
(7.35024 0.0326873 0)
(7.35391 0.0325654 0)
(7.35736 0.0323732 0)
(7.36062 0.0321298 0)
(7.36369 0.0318502 0)
(7.3666 0.0315463 0)
(7.36937 0.0312284 0)
(7.37201 0.0309057 0)
(7.37453 0.0305874 0)
(7.37695 0.0302827 0)
(7.37928 0.0300021 0)
(7.38154 0.0297577 0)
(7.38374 0.0295628 0)
(7.38592 0.0294329 0)
(7.3881 0.0293806 0)
(7.39033 0.0294207 0)
(7.39268 0.0295413 0)
(7.39523 0.0297456 0)
(7.32737 -0.0149959 0)
(7.31004 -0.0151768 0)
(7.30324 -0.00892502 0)
(7.30059 -0.00165422 0)
(7.30082 0.00655839 0)
(7.30407 0.0136064 0)
(7.3087 0.0187428 0)
(7.31359 0.0224796 0)
(7.31849 0.0252455 0)
(7.32331 0.0272337 0)
(7.32795 0.0286117 0)
(7.33235 0.0295432 0)
(7.3365 0.03015 0)
(7.34043 0.0305146 0)
(7.34414 0.0306968 0)
(7.34765 0.0307421 0)
(7.35099 0.0306847 0)
(7.35416 0.0305503 0)
(7.35719 0.0303583 0)
(7.36008 0.0301238 0)
(7.36286 0.0298595 0)
(7.36553 0.0295756 0)
(7.36811 0.0292815 0)
(7.3706 0.0289858 0)
(7.37303 0.0286973 0)
(7.37539 0.0284248 0)
(7.37771 0.0281777 0)
(7.38 0.0279655 0)
(7.38229 0.0277973 0)
(7.38461 0.0276782 0)
(7.387 0.0276098 0)
(7.3895 0.0275756 0)
(7.39218 0.0275529 0)
(7.3294 -0.00997954 0)
(7.31672 -0.011124 0)
(7.3103 -0.00679998 0)
(7.30731 -0.00092798 0)
(7.30696 0.00594261 0)
(7.30918 0.0121022 0)
(7.31272 0.0168432 0)
(7.31668 0.0204189 0)
(7.32079 0.0231188 0)
(7.32491 0.025104 0)
(7.32892 0.0265199 0)
(7.33278 0.0275064 0)
(7.33647 0.0281719 0)
(7.33998 0.028594 0)
(7.34333 0.0288301 0)
(7.34653 0.0289246 0)
(7.3496 0.0289111 0)
(7.35254 0.0288149 0)
(7.35536 0.0286559 0)
(7.35809 0.0284494 0)
(7.36072 0.028208 0)
(7.36328 0.0279422 0)
(7.36576 0.0276609 0)
(7.36818 0.0273723 0)
(7.37055 0.0270841 0)
(7.37289 0.0268035 0)
(7.3752 0.0265374 0)
(7.3775 0.0262916 0)
(7.37981 0.02607 0)
(7.38217 0.0258722 0)
(7.38459 0.0256919 0)
(7.38712 0.0255094 0)
(7.38979 0.0252942 0)
(7.33075 -0.00639774 0)
(7.32165 -0.00775721 0)
(7.31591 -0.00477946 0)
(7.31286 -8.70515e-05 0)
(7.31212 0.00562661 0)
(7.31358 0.0109684 0)
(7.3163 0.0152849 0)
(7.31955 0.0186532 0)
(7.32304 0.0212499 0)
(7.32661 0.0231993 0)
(7.33015 0.0246226 0)
(7.33359 0.0256377 0)
(7.33692 0.0263396 0)
(7.34012 0.0267999 0)
(7.34319 0.0270731 0)
(7.34615 0.0272016 0)
(7.34899 0.0272179 0)
(7.35174 0.0271474 0)
(7.3544 0.0270095 0)
(7.35698 0.0268196 0)
(7.35949 0.0265903 0)
(7.36193 0.0263318 0)
(7.36432 0.0260527 0)
(7.36666 0.0257606 0)
(7.36897 0.0254619 0)
(7.37126 0.0251624 0)
(7.37353 0.0248665 0)
(7.3758 0.0245772 0)
(7.3781 0.0242945 0)
(7.38044 0.0240142 0)
(7.38284 0.0237256 0)
(7.38534 0.0234086 0)
(7.38794 0.0230321 0)
(7.33162 -0.00393266 0)
(7.32523 -0.00506249 0)
(7.32037 -0.00292832 0)
(7.31748 0.000817655 0)
(7.31653 0.00553819 0)
(7.31744 0.0101292 0)
(7.31951 0.0140055 0)
(7.32219 0.0171296 0)
(7.32517 0.0195903 0)
(7.32829 0.0214747 0)
(7.33144 0.0228789 0)
(7.33455 0.0238998 0)
(7.33758 0.0246194 0)
(7.34053 0.0251022 0)
(7.34338 0.0253989 0)
(7.34613 0.0255496 0)
(7.34881 0.0255854 0)
(7.3514 0.025531 0)
(7.35392 0.0254055 0)
(7.35637 0.0252241 0)
(7.35877 0.024999 0)
(7.36111 0.0247402 0)
(7.36342 0.0244559 0)
(7.36569 0.0241527 0)
(7.36793 0.0238362 0)
(7.37016 0.0235106 0)
(7.37238 0.0231785 0)
(7.37462 0.0228405 0)
(7.37687 0.022494 0)
(7.37917 0.0221325 0)
(7.38152 0.0217439 0)
(7.38395 0.0213086 0)
(7.38646 0.0207987 0)
(7.33218 -0.00226399 0)
(7.32778 -0.00295945 0)
(7.32388 -0.00130766 0)
(7.32132 0.00171282 0)
(7.3203 0.00560199 0)
(7.32082 0.00951765 0)
(7.32241 0.0129555 0)
(7.32461 0.015811 0)
(7.32717 0.0181093 0)
(7.32992 0.0199033 0)
(7.33274 0.0212647 0)
(7.33556 0.0222709 0)
(7.33834 0.0229911 0)
(7.34107 0.0234823 0)
(7.34373 0.0237906 0)
(7.34632 0.0239532 0)
(7.34884 0.0239997 0)
(7.3513 0.0239536 0)
(7.3537 0.0238335 0)
(7.35605 0.0236541 0)
(7.35835 0.0234272 0)
(7.36061 0.0231624 0)
(7.36284 0.0228673 0)
(7.36504 0.0225478 0)
(7.36722 0.0222085 0)
(7.36939 0.0218523 0)
(7.37156 0.0214804 0)
(7.37374 0.0210917 0)
(7.37595 0.0206823 0)
(7.37818 0.0202443 0)
(7.38047 0.0197657 0)
(7.38281 0.0192288 0)
(7.38521 0.0186098 0)
(7.33252 -0.0011524 0)
(7.32957 -0.0013674 0)
(7.32658 4.05418e-05 0)
(7.32445 0.00253134 0)
(7.3235 0.00574798 0)
(7.32378 0.00907314 0)
(7.325 0.0120909 0)
(7.32682 0.0146667 0)
(7.32903 0.0167834 0)
(7.33145 0.0184657 0)
(7.33399 0.0197637 0)
(7.33656 0.0207368 0)
(7.33913 0.0214419 0)
(7.34166 0.0219283 0)
(7.34416 0.0222371 0)
(7.3466 0.0224023 0)
(7.34899 0.0224515 0)
(7.35134 0.0224069 0)
(7.35363 0.0222861 0)
(7.35589 0.0221032 0)
(7.3581 0.0218696 0)
(7.36029 0.0215943 0)
(7.36244 0.0212842 0)
(7.36458 0.0209446 0)
(7.3667 0.0205792 0)
(7.36881 0.02019 0)
(7.37093 0.019777 0)
(7.37305 0.0193381 0)
(7.3752 0.0188686 0)
(7.37737 0.0183606 0)
(7.37957 0.0178028 0)
(7.38182 0.0171799 0)
(7.38411 0.0164722 0)
(7.33273 -0.000426966 0)
(7.3308 -0.000202264 0)
(7.32861 0.00110599 0)
(7.32695 0.00322542 0)
(7.32615 0.00591518 0)
(7.32632 0.00873911 0)
(7.32729 0.011369 0)
(7.32882 0.0136667 0)
(7.33073 0.0155909 0)
(7.33288 0.0171459 0)
(7.33516 0.0183632 0)
(7.33752 0.0192869 0)
(7.33989 0.0199627 0)
(7.34226 0.020432 0)
(7.34461 0.020731 0)
(7.34692 0.0208902 0)
(7.3492 0.0209347 0)
(7.35144 0.0208852 0)
(7.35364 0.0207582 0)
(7.35581 0.0205672 0)
(7.35795 0.0203227 0)
(7.36006 0.0200331 0)
(7.36215 0.0197049 0)
(7.36422 0.0193426 0)
(7.36628 0.0189491 0)
(7.36834 0.0185257 0)
(7.3704 0.0180719 0)
(7.37246 0.0175848 0)
(7.37454 0.0170596 0)
(7.37664 0.0164889 0)
(7.37877 0.0158624 0)
(7.38092 0.0151676 0)
(7.38309 0.0143886 0)
(7.33285 3.48691e-05 0)
(7.33162 0.000619752 0)
(7.3301 0.00190416 0)
(7.32889 0.00376863 0)
(7.3283 0.00605537 0)
(7.32845 0.0084651 0)
(7.32926 0.0107489 0)
(7.33058 0.0127809 0)
(7.33225 0.0145103 0)
(7.33417 0.0159279 0)
(7.33625 0.0170513 0)
(7.33841 0.0179122 0)
(7.34061 0.0185461 0)
(7.34283 0.0189874 0)
(7.34505 0.019267 0)
(7.34724 0.0194119 0)
(7.34941 0.0194448 0)
(7.35156 0.0193846 0)
(7.35367 0.0192465 0)
(7.35577 0.0190431 0)
(7.35783 0.0187841 0)
(7.35988 0.0184774 0)
(7.3619 0.0181286 0)
(7.36392 0.0177418 0)
(7.36592 0.0173193 0)
(7.36792 0.0168619 0)
(7.36991 0.0163684 0)
(7.37192 0.0158362 0)
(7.37393 0.0152604 0)
(7.37595 0.0146343 0)
(7.37799 0.0139494 0)
(7.38005 0.0131951 0)
(7.38211 0.0123591 0)
(7.33292 0.0003197 0)
(7.33217 0.00117505 0)
(7.33117 0.00246608 0)
(7.33036 0.00415394 0)
(7.32999 0.00613577 0)
(7.33019 0.00820983 0)
(7.33092 0.0101932 0)
(7.33209 0.01198 0)
(7.33358 0.0135193 0)
(7.33532 0.0147953 0)
(7.33721 0.0158162 0)
(7.33921 0.0166038 0)
(7.34126 0.0171854 0)
(7.34334 0.0175889 0)
(7.34544 0.0178406 0)
(7.34752 0.0179638 0)
(7.3496 0.0179787 0)
(7.35166 0.0179024 0)
(7.35369 0.0177487 0)
(7.35571 0.0175291 0)
(7.35771 0.0172526 0)
(7.35969 0.0169262 0)
(7.36166 0.0165551 0)
(7.36361 0.0161428 0)
(7.36555 0.0156912 0)
(7.36749 0.0152006 0)
(7.36943 0.0146698 0)
(7.37137 0.0140961 0)
(7.37331 0.0134751 0)
(7.37526 0.012801 0)
(7.37721 0.0120668 0)
(7.37917 0.0112641 0)
(7.38113 0.0103831 0)
(7.33296 0.000487322 0)
(7.33253 0.00152879 0)
(7.33192 0.00282992 0)
(7.33145 0.00438947 0)
(7.33129 0.00613911 0)
(7.33157 0.00794336 0)
(7.33227 0.00967075 0)
(7.33334 0.0112368 0)
(7.3347 0.0125963 0)
(7.33628 0.0137316 0)
(7.33803 0.0146454 0)
(7.33988 0.0153525 0)
(7.3418 0.0158736 0)
(7.34377 0.0162313 0)
(7.34575 0.0164476 0)
(7.34774 0.0165426 0)
(7.34973 0.0165338 0)
(7.3517 0.0164365 0)
(7.35367 0.0162632 0)
(7.35561 0.0160241 0)
(7.35755 0.0157274 0)
(7.35947 0.0153796 0)
(7.36137 0.014985 0)
(7.36327 0.0145468 0)
(7.36515 0.0140665 0)
(7.36703 0.0135442 0)
(7.36891 0.0129788 0)
(7.37078 0.0123676 0)
(7.37265 0.011707 0)
(7.37452 0.010992 0)
(7.37639 0.010217 0)
(7.37826 0.0093753 0)
(7.38012 0.00845958 0)
(7.33299 0.000578302 0)
(7.33276 0.00173415 0)
(7.33244 0.00303501 0)
(7.33222 0.00449322 0)
(7.33226 0.00606138 0)
(7.33262 0.00764758 0)
(7.33332 0.00915836 0)
(7.33433 0.0105289 0)
(7.33559 0.011722 0)
(7.33706 0.0127213 0)
(7.33868 0.0135269 0)
(7.34042 0.0141491 0)
(7.34222 0.0146039 0)
(7.34408 0.0149095 0)
(7.34597 0.0150842 0)
(7.34786 0.0151453 0)
(7.34977 0.0151079 0)
(7.35167 0.0149853 0)
(7.35356 0.0147888 0)
(7.35544 0.0145274 0)
(7.35731 0.0142086 0)
(7.35917 0.0138378 0)
(7.36102 0.0134191 0)
(7.36286 0.0129551 0)
(7.36468 0.0124472 0)
(7.3665 0.0118953 0)
(7.36832 0.0112982 0)
(7.37012 0.0106539 0)
(7.37192 0.00995903 0)
(7.37372 0.00920978 0)
(7.3755 0.00840155 0)
(7.37728 0.00752931 0)
(7.37904 0.00658742 0)
(7.333 0.000619842 0)
(7.33291 0.00183312 0)
(7.33279 0.00311818 0)
(7.33276 0.00448829 0)
(7.33294 0.00590853 0)
(7.33338 0.00731512 0)
(7.33409 0.00864172 0)
(7.33507 0.00983992 0)
(7.33626 0.0108807 0)
(7.33764 0.0117508 0)
(7.33916 0.0124496 0)
(7.34079 0.012985 0)
(7.3425 0.0133696 0)
(7.34426 0.0136185 0)
(7.34606 0.0137468 0)
(7.34787 0.0137692 0)
(7.3497 0.013699 0)
(7.35153 0.0135476 0)
(7.35335 0.0133249 0)
(7.35517 0.0130389 0)
(7.35698 0.0126962 0)
(7.35878 0.0123015 0)
(7.36057 0.0118585 0)
(7.36235 0.0113694 0)
(7.36412 0.0108352 0)
(7.36588 0.010256 0)
(7.36762 0.00963062 0)
(7.36936 0.00895737 0)
(7.37109 0.00823365 0)
(7.37281 0.00745631 0)
(7.37451 0.00662183 0)
(7.3762 0.00572641 0)
(7.37787 0.0047658 0)
(7.333 0.000630089 0)
(7.333 0.00185824 0)
(7.33301 0.00311194 0)
(7.33312 0.00439944 0)
(7.3334 0.00569311 0)
(7.3339 0.0069473 0)
(7.33462 0.00811473 0)
(7.33557 0.00915998 0)
(7.33671 0.0100615 0)
(7.33801 0.0108098 0)
(7.33945 0.0114048 0)
(7.34099 0.011853 0)
(7.34261 0.0121653 0)
(7.34429 0.012354 0)
(7.346 0.0124322 0)
(7.34774 0.0124123 0)
(7.34949 0.0123058 0)
(7.35125 0.0121226 0)
(7.35302 0.0118712 0)
(7.35477 0.0115589 0)
(7.35652 0.011191 0)
(7.35826 0.010772 0)
(7.36 0.0103048 0)
(7.36172 0.00979141 0)
(7.36342 0.0092327 0)
(7.36512 0.00862864 0)
(7.36681 0.00797843 0)
(7.36848 0.00728055 0)
(7.37014 0.00653298 0)
(7.37178 0.00573331 0)
(7.3734 0.00487885 0)
(7.37501 0.0039668 0)
(7.37659 0.00299396 0)
(7.33301 0.000621202 0)
(7.33305 0.00183447 0)
(7.33314 0.00304413 0)
(7.33333 0.00425093 0)
(7.33368 0.00543144 0)
(7.33421 0.00655189 0)
(7.33494 0.00757847 0)
(7.33585 0.00848591 0)
(7.33694 0.00925919 0)
(7.33818 0.00989236 0)
(7.33954 0.0103866 0)
(7.341 0.0107484 0)
(7.34254 0.010987 0)
(7.34414 0.0111132 0)
(7.34578 0.0111384 0)
(7.34745 0.0110733 0)
(7.34913 0.0109276 0)
(7.35082 0.0107101 0)
(7.35252 0.0104282 0)
(7.35422 0.0100879 0)
(7.35591 0.00969408 0)
(7.35759 0.00925043 0)
(7.35927 0.00875955 0)
(7.36093 0.00822306 0)
(7.36258 0.00764172 0)
(7.36421 0.00701552 0)
(7.36583 0.00634382 0)
(7.36744 0.00562543 0)
(7.36903 0.0048588 0)
(7.3706 0.00404209 0)
(7.37215 0.00317334 0)
(7.37367 0.00225048 0)
(7.37517 0.00127115 0)
(7.33301 0.000601506 0)
(7.33307 0.0017812 0)
(7.33321 0.00293841 0)
(7.33344 0.00406565 0)
(7.33382 0.00514178 0)
(7.33435 0.00614115 0)
(7.33506 0.00703977 0)
(7.33594 0.0078204 0)
(7.33698 0.00847368 0)
(7.33815 0.00899705 0)
(7.33944 0.00939335 0)
(7.34082 0.00966912 0)
(7.34228 0.00983313 0)
(7.34381 0.00989512 0)
(7.34537 0.00986496 0)
(7.34697 0.00975203 0)
(7.34858 0.00956488 0)
(7.35021 0.009311 0)
(7.35185 0.00899675 0)
(7.35348 0.00862734 0)
(7.35512 0.00820692 0)
(7.35674 0.00773862 0)
(7.35836 0.00722462 0)
(7.35996 0.00666629 0)
(7.36155 0.00606427 0)
(7.36313 0.00541856 0)
(7.36468 0.00472865 0)
(7.36622 0.00399366 0)
(7.36774 0.00321239 0)
(7.36924 0.00238351 0)
(7.37072 0.00150559 0)
(7.37216 0.000577139 0)
(7.37358 -0.000403568 0)
(7.33301 0.000576987 0)
(7.33308 0.00171395 0)
(7.33322 0.00281533 0)
(7.33346 0.00386518 0)
(7.33383 0.00484348 0)
(7.33435 0.00573054 0)
(7.33502 0.00650998 0)
(7.33584 0.00717128 0)
(7.33681 0.00771007 0)
(7.33791 0.0081271 0)
(7.33913 0.00842696 0)
(7.34043 0.00861678 0)
(7.34182 0.00870509 0)
(7.34326 0.00870092 0)
(7.34475 0.00861314 0)
(7.34628 0.00845007 0)
(7.34783 0.00821916 0)
(7.34939 0.00792687 0)
(7.35097 0.00757868 0)
(7.35254 0.00717902 0)
(7.35411 0.00673138 0)
(7.35568 0.0062384 0)
(7.35724 0.00570187 0)
(7.35878 0.00512292 0)
(7.36032 0.00450206 0)
(7.36183 0.00383931 0)
(7.36333 0.00313426 0)
(7.3648 0.00238624 0)
(7.36626 0.00159438 0)
(7.36769 0.000757711 0)
(7.36909 -0.000124787 0)
(7.37046 -0.00105416 0)
(7.3718 -0.00203168 0)
(7.33301 0.000552366 0)
(7.33307 0.00164612 0)
(7.3332 0.00269376 0)
(7.33341 0.00367061 0)
(7.33374 0.00455707 0)
(7.3342 0.0053383 0)
(7.33481 0.00600439 0)
(7.33556 0.00655088 0)
(7.33645 0.00697816 0)
(7.33747 0.00729025 0)
(7.3386 0.00749367 0)
(7.33982 0.00759643 0)
(7.34113 0.00760712 0)
(7.34249 0.00753437 0)
(7.34391 0.00738631 0)
(7.34536 0.0071704 0)
(7.34684 0.00689319 0)
(7.34834 0.00656027 0)
(7.34985 0.00617631 0)
(7.35136 0.00574506 0)
(7.35287 0.00526942 0)
(7.35438 0.00475153 0)
(7.35588 0.00419286 0)
(7.35737 0.00359428 0)
(7.35885 0.00295618 0)
(7.3603 0.00227856 0)
(7.36174 0.00156109 0)
(7.36316 0.000803245 0)
(7.36455 4.39012e-06 0)
(7.36591 -0.000836181 0)
(7.36725 -0.00171917 0)
(7.36855 -0.00264533 0)
(7.36982 -0.0036156 0)
(7.33301 0.000531927 0)
(7.33305 0.0015906 0)
(7.33313 0.0025927 0)
(7.33329 0.00350404 0)
(7.33354 0.00430517 0)
(7.33392 0.00498582 0)
(7.33443 0.00554222 0)
(7.33509 0.00597592 0)
(7.33588 0.00629217 0)
(7.3368 0.00649849 0)
(7.33783 0.00660356 0)
(7.33896 0.00661651 0)
(7.34018 0.00654633 0)
(7.34146 0.00640144 0)
(7.34279 0.0061895 0)
(7.34417 0.00591727 0)
(7.34558 0.00559054 0)
(7.34701 0.00521416 0)
(7.34846 0.00479208 0)
(7.34991 0.0043274 0)
(7.35137 0.0038225 0)
(7.35282 0.00327907 0)
(7.35426 0.00269824 0)
(7.3557 0.00208063 0)
(7.35712 0.00142649 0)
(7.35852 0.000735758 0)
(7.3599 8.1427e-06 0)
(7.36126 -0.000756786 0)
(7.36259 -0.00155953 0)
(7.3639 -0.00240061 0)
(7.36517 -0.00328053 0)
(7.36642 -0.00419981 0)
(7.36762 -0.00515922 0)
(7.333 0.0005203 0)
(7.33301 0.00156165 0)
(7.33303 0.00253358 0)
(7.33309 0.00339085 0)
(7.33323 0.00411436 0)
(7.33348 0.00469893 0)
(7.33387 0.00514739 0)
(7.3344 0.00546782 0)
(7.33507 0.00567084 0)
(7.33587 0.00576787 0)
(7.33679 0.00577018 0)
(7.33782 0.00568836 0)
(7.33893 0.00553203 0)
(7.34012 0.00530969 0)
(7.34137 0.00502873 0)
(7.34267 0.00469535 0)
(7.34401 0.00431472 0)
(7.34537 0.00389101 0)
(7.34676 0.00342754 0)
(7.34815 0.00292683 0)
(7.34955 0.00239072 0)
(7.35095 0.00182047 0)
(7.35235 0.00121687 0)
(7.35373 0.000580278 0)
(7.3551 -8.92275e-05 0)
(7.35645 -0.00079181 0)
(7.35779 -0.00152779 0)
(7.35909 -0.00229758 0)
(7.36038 -0.00310161 0)
(7.36163 -0.00394029 0)
(7.36285 -0.00481404 0)
(7.36404 -0.00572325 0)
(7.36519 -0.00666856 0)
(7.333 0.000523388 0)
(7.33296 0.00157744 0)
(7.33286 0.0025435 0)
(7.33278 0.00336294 0)
(7.33276 0.00401802 0)
(7.33285 0.00451013 0)
(7.33308 0.00485002 0)
(7.33345 0.00505348 0)
(7.33396 0.0051375 0)
(7.33462 0.00511816 0)
(7.33541 0.00500985 0)
(7.33632 0.00482509 0)
(7.33733 0.00457448 0)
(7.33842 0.00426686 0)
(7.33958 0.00390948 0)
(7.34081 0.00350818 0)
(7.34207 0.00306757 0)
(7.34337 0.00259125 0)
(7.3447 0.0020819 0)
(7.34604 0.00154147 0)
(7.3474 0.000971281 0)
(7.34875 0.000372147 0)
(7.3501 -0.000255533 0)
(7.35144 -0.000911678 0)
(7.35277 -0.00159644 0)
(7.35408 -0.00231016 0)
(7.35538 -0.00305323 0)
(7.35664 -0.00382612 0)
(7.35788 -0.00462927 0)
(7.35909 -0.0054631 0)
(7.36027 -0.00632798 0)
(7.36142 -0.00722427 0)
(7.36252 -0.00815254 0)
(7.33299 0.000549793 0)
(7.33287 0.00166378 0)
(7.33262 0.00266011 0)
(7.33233 0.00346362 0)
(7.33209 0.00406056 0)
(7.33196 0.00446176 0)
(7.33197 0.0046884 0)
(7.33213 0.00476618 0)
(7.33247 0.00472006 0)
(7.33296 0.00457192 0)
(7.33361 0.00434013 0)
(7.33438 0.00403972 0)
(7.33528 0.00368267 0)
(7.33628 0.0032784 0)
(7.33736 0.00283423 0)
(7.33851 0.0023557 0)
(7.33971 0.00184694 0)
(7.34096 0.00131093 0)
(7.34224 0.00074975 0)
(7.34354 0.000164715 0)
(7.34486 -0.000443413 0)
(7.34618 -0.00107433 0)
(7.3475 -0.00172808 0)
(7.34881 -0.00240494 0)
(7.35011 -0.00310537 0)
(7.35139 -0.00382992 0)
(7.35266 -0.0045792 0)
(7.3539 -0.00535379 0)
(7.35511 -0.00615424 0)
(7.35629 -0.00698103 0)
(7.35744 -0.00783459 0)
(7.35855 -0.00871531 0)
(7.35962 -0.0096238 0)
(7.33299 0.000613352 0)
(7.33274 0.00186058 0)
(7.33225 0.00293923 0)
(7.33167 0.00375477 0)
(7.33112 0.00430319 0)
(7.33069 0.00460993 0)
(7.33042 0.00471104 0)
(7.33033 0.00464576 0)
(7.33045 0.00444967 0)
(7.33076 0.00415217 0)
(7.33125 0.00377672 0)
(7.33189 0.00334156 0)
(7.33268 0.00286049 0)
(7.33359 0.00234373 0)
(7.3346 0.00179872 0)
(7.33569 0.0012307 0)
(7.33685 0.000643232 0)
(7.33807 3.8623e-05 0)
(7.33932 -0.000581805 0)
(7.3406 -0.00121744 0)
(7.34189 -0.00186822 0)
(7.3432 -0.00253446 0)
(7.34451 -0.00321674 0)
(7.34581 -0.00391583 0)
(7.3471 -0.00463258 0)
(7.34837 -0.00536789 0)
(7.34962 -0.00612264 0)
(7.35085 -0.00689764 0)
(7.35205 -0.00769363 0)
(7.35322 -0.00851125 0)
(7.35435 -0.00935105 0)
(7.35544 -0.0102135 0)
(7.3565 -0.0110994 0)
(7.33297 0.000737999 0)
(7.33253 0.00223302 0)
(7.33168 0.0034673 0)
(7.33067 0.00432752 0)
(7.32969 0.00483154 0)
(7.32886 0.00502856 0)
(7.32823 0.00497724 0)
(7.32785 0.00473665 0)
(7.32773 0.0043569 0)
(7.32784 0.00387724 0)
(7.32817 0.00332763 0)
(7.3287 0.00273023 0)
(7.3294 0.00210089 0)
(7.33025 0.0014506 0)
(7.33121 0.000786729 0)
(7.33228 0.000113989 0)
(7.33342 -0.000564876 0)
(7.33463 -0.00124852 0)
(7.33588 -0.00193661 0)
(7.33717 -0.00262949 0)
(7.33847 -0.00332799 0)
(7.33979 -0.00403322 0)
(7.34111 -0.00474651 0)
(7.34242 -0.00546922 0)
(7.34373 -0.00620277 0)
(7.34501 -0.00694852 0)
(7.34628 -0.00770772 0)
(7.34751 -0.00848155 0)
(7.34872 -0.00927102 0)
(7.34989 -0.010077 0)
(7.35103 -0.0109003 0)
(7.35212 -0.0117416 0)
(7.35318 -0.0126017 0)
(7.33295 0.000967801 0)
(7.33217 0.00289173 0)
(7.33075 0.00438083 0)
(7.32911 0.00531689 0)
(7.32754 0.00576394 0)
(7.32618 0.00581114 0)
(7.32513 0.00555375 0)
(7.32442 0.00508084 0)
(7.32404 0.00446265 0)
(7.32397 0.00375101 0)
(7.32418 0.00298353 0)
(7.32463 0.0021865 0)
(7.32528 0.00137746 0)
(7.32611 0.000567561 0)
(7.32708 -0.00023653 0)
(7.32817 -0.00103131 0)
(7.32934 -0.00181545 0)
(7.33059 -0.00258906 0)
(7.33188 -0.00335325 0)
(7.33321 -0.00410969 0)
(7.33457 -0.00486041 0)
(7.33593 -0.00560763 0)
(7.3373 -0.00635359 0)
(7.33866 -0.00710051 0)
(7.34001 -0.00785049 0)
(7.34133 -0.00860551 0)
(7.34264 -0.00936735 0)
(7.34391 -0.0101376 0)
(7.34515 -0.0109178 0)
(7.34635 -0.011709 0)
(7.34751 -0.0125123 0)
(7.34863 -0.0133287 0)
(7.34971 -0.0141592 0)
(7.3329 0.00139078 0)
(7.33153 0.00403177 0)
(7.32919 0.0058965 0)
(7.32662 0.00691783 0)
(7.32425 0.00725455 0)
(7.32225 0.00706371 0)
(7.32072 0.00650122 0)
(7.31968 0.00570168 0)
(7.31908 0.00476173 0)
(7.31889 0.00374748 0)
(7.31904 0.00270399 0)
(7.31948 0.00166047 0)
(7.32017 0.000634497 0)
(7.32106 -0.000364266 0)
(7.3221 -0.00133133 0)
(7.32328 -0.00226559 0)
(7.32455 -0.00316813 0)
(7.32589 -0.00404135 0)
(7.32729 -0.00488844 0)
(7.32872 -0.00571292 0)
(7.33017 -0.00651846 0)
(7.33163 -0.0073087 0)
(7.33309 -0.0080871 0)
(7.33454 -0.00885693 0)
(7.33596 -0.0096212 0)
(7.33737 -0.0103827 0)
(7.33874 -0.0111437 0)
(7.34008 -0.0119066 0)
(7.34138 -0.0126732 0)
(7.34264 -0.0134452 0)
(7.34386 -0.0142239 0)
(7.34503 -0.0150106 0)
(7.34615 -0.0158067 0)
(7.33278 0.00219422 0)
(7.33032 0.00601518 0)
(7.32651 0.00836656 0)
(7.32261 0.00940373 0)
(7.3192 0.00948163 0)
(7.31647 0.00887476 0)
(7.31447 0.00783757 0)
(7.31316 0.00656807 0)
(7.31246 0.00519136 0)
(7.31226 0.00378476 0)
(7.31248 0.00239674 0)
(7.31305 0.00105524 0)
(7.31389 -0.000225995 0)
(7.31495 -0.00144187 0)
(7.31617 -0.00259241 0)
(7.31753 -0.00368073 0)
(7.31899 -0.00471165 0)
(7.32051 -0.0056909 0)
(7.32208 -0.00662449 0)
(7.32369 -0.00751842 0)
(7.3253 -0.00837843 0)
(7.32692 -0.00920991 0)
(7.32852 -0.0100178 0)
(7.33011 -0.0108067 0)
(7.33167 -0.0115807 0)
(7.3332 -0.0123434 0)
(7.33468 -0.013098 0)
(7.33613 -0.0138474 0)
(7.33753 -0.0145941 0)
(7.33889 -0.0153402 0)
(7.34019 -0.0160875 0)
(7.34144 -0.0168377 0)
(7.34264 -0.0175923 0)
(7.33249 0.00373933 0)
(7.32795 0.00948969 0)
(7.32175 0.0123723 0)
(7.31603 0.0131775 0)
(7.31142 0.0126531 0)
(7.30798 0.0112901 0)
(7.30567 0.00950228 0)
(7.30431 0.00756006 0)
(7.30371 0.00560204 0)
(7.30373 0.00370217 0)
(7.30422 0.0019012 0)
(7.3051 0.000216742 0)
(7.30626 -0.00134828 0)
(7.30765 -0.00279834 0)
(7.3092 -0.00414142 0)
(7.31087 -0.00538722 0)
(7.31264 -0.00654607 0)
(7.31446 -0.00762821 0)
(7.31631 -0.00864338 0)
(7.31818 -0.00960064 0)
(7.32004 -0.0105083 0)
(7.32189 -0.0113737 0)
(7.32372 -0.0122036 0)
(7.32552 -0.013004 0)
(7.32728 -0.0137801 0)
(7.32899 -0.0145366 0)
(7.33065 -0.0152775 0)
(7.33226 -0.0160063 0)
(7.33381 -0.0167262 0)
(7.33531 -0.0174397 0)
(7.33674 -0.0181491 0)
(7.33812 -0.0188564 0)
(7.33943 -0.0195634 0)
(7.33193 0.00663924 0)
(7.32329 0.0152913 0)
(7.31325 0.0184825 0)
(7.30522 0.0185711 0)
(7.29944 0.0168798 0)
(7.29558 0.0142364 0)
(7.29334 0.0113067 0)
(7.29234 0.00842283 0)
(7.29223 0.00569502 0)
(7.29281 0.00316789 0)
(7.29389 0.000860474 0)
(7.29536 -0.00123009 0)
(7.2971 -0.00311986 0)
(7.29905 -0.00482857 0)
(7.30114 -0.00637599 0)
(7.30333 -0.00778124 0)
(7.30557 -0.00906236 0)
(7.30785 -0.0102359 0)
(7.31014 -0.0113166 0)
(7.31241 -0.0123176 0)
(7.31466 -0.0132508 0)
(7.31687 -0.0141262 0)
(7.31903 -0.014953 0)
(7.32115 -0.0157388 0)
(7.3232 -0.0164906 0)
(7.32519 -0.0172142 0)
(7.32711 -0.0179147 0)
(7.32896 -0.0185966 0)
(7.33074 -0.0192638 0)
(7.33245 -0.0199194 0)
(7.33408 -0.0205665 0)
(7.33564 -0.0212075 0)
(7.33713 -0.0218448 0)
(7.33069 0.0134343 0)
(7.31368 0.0252071 0)
(7.29797 0.0267145 0)
(7.28753 0.0249948 0)
(7.28098 0.0216492 0)
(7.27735 0.0175192 0)
(7.27593 0.0134376 0)
(7.27598 0.00969604 0)
(7.27699 0.0062956 0)
(7.27869 0.00321703 0)
(7.28089 0.000448257 0)
(7.28343 -0.00203356 0)
(7.2862 -0.00425903 0)
(7.28913 -0.00625758 0)
(7.29214 -0.00805544 0)
(7.29519 -0.00967659 0)
(7.29825 -0.011143 0)
(7.30129 -0.0124747 0)
(7.30428 -0.0136891 0)
(7.30722 -0.0148019 0)
(7.31009 -0.0158269 0)
(7.31288 -0.0167761 0)
(7.31558 -0.0176601 0)
(7.3182 -0.0184882 0)
(7.32072 -0.0192685 0)
(7.32315 -0.020008 0)
(7.32548 -0.0207129 0)
(7.32771 -0.0213886 0)
(7.32985 -0.0220395 0)
(7.33189 -0.0226697 0)
(7.33384 -0.0232825 0)
(7.33569 -0.0238805 0)
(7.33744 -0.0244659 0)
(7.32456 0.0347123 0)
(7.28958 0.0467041 0)
(7.26765 0.0370822 0)
(7.25765 0.0262575 0)
(7.25264 0.0167244 0)
(7.25096 0.00874629 0)
(7.25187 0.00250169 0)
(7.25427 -0.0023433 0)
(7.2575 -0.00618347 0)
(7.26132 -0.00925581 0)
(7.26556 -0.0117295 0)
(7.27004 -0.0137448 0)
(7.27465 -0.0154121 0)
(7.27931 -0.0168106 0)
(7.28395 -0.0179979 0)
(7.28854 -0.0190181 0)
(7.29303 -0.0199061 0)
(7.29741 -0.0206889 0)
(7.30166 -0.0213878 0)
(7.30576 -0.0220196 0)
(7.30971 -0.0225977 0)
(7.31351 -0.0231329 0)
(7.31716 -0.0236338 0)
(7.32065 -0.0241074 0)
(7.32399 -0.0245594 0)
(7.32717 -0.0249944 0)
(7.33021 -0.0254164 0)
(7.3331 -0.0258285 0)
(7.33584 -0.0262335 0)
(7.33845 -0.0266336 0)
(7.34092 -0.0270312 0)
(7.34326 -0.0274284 0)
(7.34548 -0.0278282 0)
(7.29575 0.0823958 0)
(7.21821 0.127206 0)
(7.1868 0.128806 0)
(7.18645 0.114377 0)
(7.19338 0.0947839 0)
(7.20248 0.0767451 0)
(7.21295 0.0615374 0)
(7.22374 0.0483327 0)
(7.23444 0.0367076 0)
(7.24497 0.026573 0)
(7.25523 0.0178502 0)
(7.26511 0.0103847 0)
(7.27454 0.00400901 0)
(7.2835 -0.00142562 0)
(7.292 -0.00605104 0)
(7.30004 -0.00998645 0)
(7.30763 -0.0133372 0)
(7.31478 -0.016194 0)
(7.32153 -0.0186337 0)
(7.32787 -0.0207218 0)
(7.33385 -0.0225135 0)
(7.33946 -0.0240553 0)
(7.34474 -0.0253867 0)
(7.3497 -0.0265408 0)
(7.35436 -0.0275453 0)
(7.35873 -0.0284238 0)
(7.36283 -0.0291962 0)
(7.36667 -0.0298792 0)
(7.37027 -0.0304866 0)
(7.37363 -0.0310303 0)
(7.37677 -0.0315202 0)
(7.3797 -0.0319633 0)
(7.38242 -0.0323685 0)
(7.32909 -0.158988 0)
(7.19612 -0.2929 0)
(7.13085 -0.292313 0)
(7.10898 -0.25965 0)
(7.10972 -0.226681 0)
(7.13037 -0.195752 0)
(7.16107 -0.16784 0)
(7.19443 -0.144106 0)
(7.22757 -0.124636 0)
(7.25931 -0.108756 0)
(7.28884 -0.0957766 0)
(7.31576 -0.0851756 0)
(7.34003 -0.0765322 0)
(7.36177 -0.0694808 0)
(7.38117 -0.0637146 0)
(7.39842 -0.0589864 0)
(7.41372 -0.0550993 0)
(7.42726 -0.051895 0)
(7.43923 -0.0492459 0)
(7.44978 -0.0470495 0)
(7.45907 -0.0452232 0)
(7.46723 -0.0437007 0)
(7.47437 -0.0424283 0)
(7.48061 -0.0413626 0)
(7.48603 -0.0404684 0)
(7.49072 -0.0397173 0)
(7.49476 -0.0390858 0)
(7.4982 -0.0385548 0)
(7.50112 -0.0381088 0)
(7.50355 -0.0377346 0)
(7.50556 -0.037421 0)
(7.50718 -0.0371593 0)
(7.50848 -0.0369375 0)
(7.33045 1.21807 0)
(7.6376 1.24116 0)
(7.81729 0.934086 0)
(7.87343 0.66212 0)
(7.88531 0.462339 0)
(7.87662 0.320593 0)
(7.85215 0.220101 0)
(7.81687 0.148062 0)
(7.77613 0.0958192 0)
(7.73339 0.0576535 0)
(7.69027 0.0296474 0)
(7.64755 0.00902584 0)
(7.60575 -0.00618938 0)
(7.56522 -0.0174092 0)
(7.52614 -0.0256505 0)
(7.48856 -0.0316571 0)
(7.4525 -0.0359796 0)