/*--------------------------------*- C++ -*----------------------------------*\
  =========                 |
  \\      /  F ield         | OpenFOAM: The Open Source CFD Toolbox
   \\    /   O peration     | Website:  https://openfoam.org
    \\  /    A nd           | Version:  10
     \\/     M anipulation  |
\*---------------------------------------------------------------------------*/
FoamFile
{
    format      ascii;
    class       volScalarField;
    location    "1200";
    object      k;
}
// * * * * * * * * * * * * * * * * * * * * * * * * * * * * * * * * * * * * * //

dimensions      [0 2 -2 0 0 0 0];

internalField   nonuniform List<scalar> 
6820
(
0.318932
0.614648
0.847396
0.983378
1.04836
1.06927
1.06475
1.0465
1.0217
0.994572
0.967459
0.941556
0.917413
0.895216
0.874952
0.856513
0.839751
0.824502
0.810609
0.797926
0.786319
0.77567
0.765875
0.756843
0.748491
0.74075
0.733553
0.726848
0.720562
0.714744
0.708854
0.705489
0.689611
0.838908
1.45739
1.5306
1.40689
1.25037
1.11087
0.996111
0.903238
0.827887
0.76631
0.715544
0.673419
0.638187
0.608546
0.583483
0.562195
0.544041
0.528503
0.515164
0.50368
0.493771
0.485204
0.477785
0.471351
0.465768
0.460922
0.456715
0.453073
0.449923
0.447242
0.444923
0.443231
0.441682
0.379893
0.662258
0.793337
0.827975
0.818186
0.790403
0.756381
0.72117
0.686891
0.654427
0.624111
0.596043
0.570195
0.546474
0.524757
0.504903
0.486769
0.470214
0.455101
0.441303
0.428702
0.417192
0.406671
0.397051
0.388251
0.380196
0.37282
0.366064
0.359874
0.354206
0.349009
0.344271
0.339933
0.246132
0.3393
0.411878
0.458885
0.485704
0.49888
0.503287
0.502158
0.497536
0.490704
0.482486
0.473435
0.46393
0.45424
0.44455
0.434992
0.425659
0.41661
0.407888
0.399514
0.391503
0.383859
0.376578
0.369655
0.363079
0.356841
0.350925
0.34532
0.340011
0.334984
0.330224
0.325723
0.321455
0.216724
0.25341
0.285799
0.312244
0.332455
0.347125
0.357302
0.364011
0.368096
0.370197
0.370789
0.37023
0.368792
0.366686
0.364075
0.361089
0.357829
0.354377
0.350797
0.347142
0.343452
0.33976
0.33609
0.332465
0.328898
0.325403
0.321987
0.318659
0.315422
0.31228
0.309236
0.30629
0.303442
0.2067
0.22375
0.239981
0.254416
0.266684
0.276738
0.28477
0.291069
0.295924
0.299585
0.302262
0.304127
0.305322
0.305962
0.306143
0.305944
0.305432
0.304663
0.303682
0.302531
0.301241
0.299841
0.298355
0.296804
0.295204
0.293571
0.291916
0.290249
0.288581
0.286918
0.285266
0.283632
0.28202
0.202776
0.211442
0.220463
0.228911
0.236465
0.243012
0.248579
0.253259
0.257158
0.260378
0.263012
0.265139
0.26683
0.268145
0.269136
0.269846
0.270314
0.270573
0.270652
0.270576
0.270366
0.270042
0.26962
0.269115
0.26854
0.267905
0.267222
0.266498
0.265741
0.264958
0.264156
0.263339
0.262512
0.201168
0.205683
0.210952
0.216189
0.221064
0.22544
0.229296
0.232659
0.235575
0.238089
0.240245
0.242083
0.243642
0.244952
0.246043
0.246939
0.247664
0.248237
0.248676
0.248995
0.249208
0.249329
0.249367
0.249333
0.249234
0.24908
0.248877
0.24863
0.248347
0.248032
0.24769
0.247325
0.246941
0.200484
0.202809
0.205913
0.20924
0.212483
0.215494
0.218222
0.220663
0.222834
0.224755
0.226448
0.227934
0.229235
0.230369
0.231352
0.232201
0.232928
0.233546
0.234066
0.234497
0.234849
0.23513
0.235347
0.235506
0.235613
0.235673
0.235693
0.235675
0.235624
0.235544
0.235438
0.23531
0.235162
0.200184
0.20134
0.203132
0.205234
0.207404
0.209501
0.211457
0.21325
0.214879
0.216349
0.217669
0.218852
0.219908
0.220849
0.221684
0.222423
0.223075
0.223648
0.224148
0.224583
0.224958
0.225279
0.225551
0.225778
0.225964
0.226113
0.226229
0.226315
0.226373
0.226407
0.226419
0.226411
0.226386
0.200051
0.200588
0.201579
0.202869
0.204298
0.205746
0.207146
0.208465
0.209689
0.210815
0.211845
0.212781
0.213631
0.214399
0.215093
0.215717
0.216278
0.216781
0.217229
0.217628
0.217983
0.218295
0.21857
0.21881
0.219018
0.219197
0.219349
0.219477
0.219583
0.219669
0.219737
0.219789
0.219826
0.199992
0.200208
0.200718
0.201471
0.202377
0.203351
0.204335
0.205293
0.206205
0.207061
0.207858
0.208595
0.209273
0.209895
0.210464
0.210983
0.211456
0.211885
0.212274
0.212626
0.212943
0.213229
0.213485
0.213714
0.213918
0.214099
0.214259
0.2144
0.214523
0.21463
0.214722
0.214801
0.214867
0.199966
0.200017
0.200248
0.200654
0.201196
0.201823
0.202489
0.203165
0.203829
0.204469
0.205076
0.205648
0.206182
0.206679
0.20714
0.207565
0.207957
0.208317
0.208647
0.208949
0.209225
0.209477
0.209707
0.209915
0.210103
0.210274
0.210428
0.210566
0.21069
0.210802
0.210901
0.21099
0.211068
0.199954
0.199924
0.199997
0.200187
0.200483
0.200858
0.201286
0.201741
0.202206
0.202669
0.203119
0.203552
0.203964
0.204353
0.204718
0.20506
0.205379
0.205675
0.20595
0.206204
0.206439
0.206655
0.206855
0.207038
0.207206
0.207359
0.2075
0.207629
0.207746
0.207854
0.207951
0.20804
0.208121
0.199949
0.199879
0.199866
0.199926
0.200061
0.200262
0.200513
0.200799
0.201107
0.201425
0.201744
0.20206
0.202367
0.202662
0.202944
0.203212
0.203464
0.203702
0.203925
0.204134
0.204329
0.20451
0.204678
0.204835
0.20498
0.205114
0.205239
0.205354
0.20546
0.205558
0.205649
0.205733
0.20581
0.199947
0.199858
0.199799
0.199785
0.19982
0.199903
0.200029
0.200189
0.200374
0.200577
0.200789
0.201006
0.201223
0.201437
0.201646
0.201847
0.202041
0.202225
0.202401
0.202566
0.202723
0.20287
0.203009
0.203138
0.20326
0.203373
0.20348
0.203579
0.203672
0.203758
0.203839
0.203915
0.203985
0.199947
0.199848
0.199766
0.19971
0.199685
0.199693
0.199734
0.199804
0.199898
0.20001
0.200137
0.200273
0.200415
0.20056
0.200704
0.200848
0.200988
0.201124
0.201256
0.201382
0.201503
0.201618
0.201727
0.201831
0.201929
0.202021
0.202109
0.202191
0.202269
0.202343
0.202412
0.202478
0.20254
0.199946
0.199843
0.19975
0.199672
0.199612
0.199575
0.19956
0.199568
0.199596
0.199642
0.199702
0.199774
0.199855
0.199941
0.200032
0.200125
0.200219
0.200312
0.200404
0.200494
0.200582
0.200667
0.200749
0.200827
0.200903
0.200975
0.201044
0.20111
0.201172
0.201232
0.201289
0.201344
0.201396
0.199946
0.199841
0.199743
0.199652
0.199574
0.199509
0.19946
0.199428
0.199411
0.199409
0.19942
0.199443
0.199475
0.199515
0.199562
0.199612
0.199666
0.199723
0.19978
0.199838
0.199896
0.199954
0.20001
0.200066
0.20012
0.200172
0.200223
0.200273
0.200321
0.200367
0.200412
0.200455
0.200497
0.199946
0.199841
0.199739
0.199643
0.199554
0.199474
0.199405
0.199347
0.199301
0.199266
0.199243
0.19923
0.199226
0.19923
0.199241
0.199257
0.199279
0.199304
0.199332
0.199363
0.199395
0.199428
0.199462
0.199497
0.199532
0.199567
0.199601
0.199635
0.199669
0.199703
0.199736
0.199768
0.1998
0.199946
0.19984
0.199737
0.199638
0.199544
0.199456
0.199375
0.199302
0.199237
0.199181
0.199135
0.199097
0.199067
0.199044
0.199029
0.199019
0.199015
0.199016
0.19902
0.199028
0.199039
0.199052
0.199067
0.199084
0.199102
0.199121
0.199141
0.199162
0.199183
0.199205
0.199227
0.19925
0.199272
0.199946
0.19984
0.199736
0.199636
0.199539
0.199446
0.199359
0.199277
0.199202
0.199133
0.199071
0.199017
0.19897
0.198929
0.198895
0.198866
0.198843
0.198825
0.198812
0.198802
0.198796
0.198793
0.198793
0.198796
0.1988
0.198807
0.198815
0.198825
0.198836
0.198848
0.198861
0.198875
0.19889
0.199946
0.19984
0.199736
0.199635
0.199536
0.199441
0.19935
0.199264
0.199182
0.199106
0.199036
0.198972
0.198914
0.198861
0.198815
0.198774
0.198739
0.198708
0.198682
0.198661
0.198643
0.198629
0.198618
0.19861
0.198605
0.198602
0.198602
0.198603
0.198607
0.198611
0.198618
0.198625
0.198634
0.199946
0.19984
0.199736
0.199634
0.199535
0.199439
0.199346
0.199257
0.199173
0.199093
0.199019
0.19895
0.198886
0.198828
0.198775
0.198728
0.198686
0.198648
0.198616
0.198587
0.198563
0.198543
0.198526
0.198512
0.198501
0.198493
0.198488
0.198484
0.198483
0.198483
0.198485
0.198489
0.198494
0.199946
0.19984
0.199735
0.199633
0.199534
0.199438
0.199345
0.199255
0.19917
0.19909
0.199015
0.198945
0.19888
0.198821
0.198767
0.198719
0.198676
0.198637
0.198603
0.198574
0.198549
0.198527
0.198509
0.198494
0.198482
0.198473
0.198466
0.198462
0.198459
0.198459
0.19846
0.198462
0.198466
0.199946
0.199839
0.199735
0.199633
0.199534
0.199438
0.199346
0.199258
0.199175
0.199097
0.199024
0.198958
0.198897
0.198842
0.198793
0.198749
0.19871
0.198676
0.198647
0.198622
0.198601
0.198584
0.19857
0.198559
0.198551
0.198545
0.198541
0.198539
0.19854
0.198541
0.198544
0.198549
0.198554
0.199946
0.19984
0.199735
0.199634
0.199536
0.199442
0.199352
0.199268
0.19919
0.199118
0.199053
0.198995
0.198944
0.198899
0.198861
0.198828
0.198801
0.198778
0.19876
0.198746
0.198736
0.198728
0.198724
0.198722
0.198722
0.198724
0.198728
0.198733
0.198739
0.198747
0.198755
0.198764
0.198774
0.199946
0.19984
0.199736
0.199636
0.199541
0.199451
0.199368
0.199292
0.199225
0.199167
0.199117
0.199075
0.199042
0.199016
0.198996
0.198983
0.198975
0.198971
0.198971
0.198975
0.198981
0.19899
0.199001
0.199013
0.199026
0.199041
0.199056
0.199072
0.199087
0.199104
0.19912
0.199136
0.199153
0.199946
0.199841
0.199739
0.199643
0.199554
0.199475
0.199405
0.199348
0.199302
0.199268
0.199245
0.199232
0.199229
0.199233
0.199243
0.19926
0.19928
0.199304
0.199331
0.19936
0.19939
0.199421
0.199452
0.199483
0.199514
0.199544
0.199574
0.199603
0.199631
0.199658
0.199684
0.19971
0.199734
0.199947
0.199843
0.199747
0.19966
0.199587
0.19953
0.199491
0.199468
0.199463
0.199472
0.199495
0.199529
0.199572
0.199622
0.199677
0.199736
0.199796
0.199858
0.199919
0.19998
0.20004
0.200098
0.200154
0.200208
0.200259
0.200308
0.200354
0.200398
0.20044
0.200478
0.200515
0.200549
0.200582
0.199948
0.19985
0.199767
0.199705
0.199669
0.199661
0.19968
0.199725
0.199791
0.199875
0.199971
0.200078
0.200189
0.200304
0.20042
0.200534
0.200645
0.200753
0.200857
0.200955
0.201049
0.201137
0.20122
0.201298
0.20137
0.201438
0.201501
0.201559
0.201612
0.201662
0.201708
0.20175
0.201788
0.199951
0.199869
0.199823
0.199821
0.199868
0.199962
0.200096
0.200262
0.200449
0.20065
0.200858
0.201067
0.201273
0.201472
0.201663
0.201844
0.202015
0.202175
0.202324
0.202462
0.202589
0.202707
0.202815
0.202914
0.203005
0.203088
0.203164
0.203232
0.203295
0.203351
0.203402
0.203447
0.203488
0.199959
0.199926
0.199977
0.200121
0.200351
0.200649
0.200993
0.201362
0.201739
0.202113
0.202473
0.202816
0.203137
0.203435
0.20371
0.203963
0.204193
0.204403
0.204593
0.204765
0.204921
0.205061
0.205187
0.205301
0.205402
0.205492
0.205573
0.205644
0.205707
0.205762
0.205811
0.205853
0.205889
0.199987
0.200103
0.200415
0.200903
0.201515
0.202193
0.20289
0.203572
0.204217
0.204816
0.205363
0.205858
0.206302
0.206698
0.207052
0.207365
0.207643
0.207888
0.208104
0.208295
0.208463
0.208609
0.208738
0.208849
0.208946
0.209029
0.2091
0.20916
0.20921
0.209252
0.209285
0.209311
0.20933
0.200091
0.200674
0.201674
0.202931
0.204281
0.205607
0.206838
0.207945
0.208922
0.209772
0.210508
0.211141
0.211683
0.212148
0.212546
0.212885
0.213174
0.213421
0.213629
0.213806
0.213954
0.214077
0.214179
0.214261
0.214327
0.214377
0.214415
0.21444
0.214455
0.21446
0.214457
0.214446
0.214429
0.200506
0.202612
0.20538
0.20823
0.210863
0.213156
0.215082
0.216669
0.217964
0.219015
0.219866
0.220552
0.221105
0.22155
0.221907
0.222191
0.222416
0.222592
0.222726
0.222824
0.222893
0.222937
0.222958
0.22296
0.222946
0.222917
0.222875
0.222821
0.222758
0.222686
0.222606
0.222518
0.222425
0.202133
0.209235
0.216717
0.222799
0.227378
0.23075
0.233207
0.234988
0.236273
0.237193
0.237847
0.238306
0.238619
0.238825
0.238946
0.239003
0.239008
0.238971
0.2389
0.238799
0.238674
0.238527
0.238362
0.238181
0.237986
0.237778
0.237559
0.237331
0.237094
0.23685
0.236599
0.236343
0.236082
0.208298
0.22678
0.244129
0.257372
0.266317
0.271773
0.274802
0.276302
0.276882
0.276921
0.276649
0.276201
0.275653
0.275051
0.274418
0.273765
0.273101
0.272428
0.271747
0.27106
0.270365
0.269665
0.268959
0.268248
0.267533
0.266815
0.266095
0.265374
0.264653
0.263933
0.263215
0.2625
0.261789
0.245775
0.310442
0.343758
0.358932
0.365581
0.368297
0.368992
0.368462
0.367138
0.3653
0.363136
0.360774
0.358305
0.355793
0.353284
0.350808
0.348387
0.346036
0.343763
0.341573
0.339469
0.337451
0.33552
0.333674
0.33191
0.330227
0.328621
0.32709
0.32563
0.32424
0.322916
0.321656
0.320455
0.214305
0.253643
0.294732
0.333812
0.370031
0.403432
0.434077
0.462012
0.487322
0.510132
0.530592
0.548865
0.565116
0.579516
0.592228
0.603409
0.613209
0.621766
0.629208
0.635651
0.641203
0.645961
0.650011
0.653434
0.656298
0.658669
0.660602
0.662147
0.66335
0.664251
0.664886
0.665285
0.665484
0.741316
0.845451
0.991175
1.17601
1.37836
1.57461
1.74899
1.89435
2.00905
2.09465
2.15416
2.19168
2.2121
2.22023
2.2201
2.21472
2.20611
2.19549
2.18357
2.17076
2.15727
2.14328
2.12894
2.11435
2.09959
2.08467
2.06955
2.05413
2.03826
2.02179
2.00454
1.98633
1.96699
1.94629
1.92407
1.90016
1.87446
1.84687
1.81731
1.78575
1.75221
1.71668
1.67926
1.64004
1.59918
1.55687
1.51334
1.46887
1.42375
1.37831
1.33289
1.28784
1.24354
1.20033
1.15855
1.11852
1.08051
1.04478
1.01153
0.980923
0.953076
0.928064
0.905917
0.886631
0.870167
0.856456
0.845409
0.836913
0.830841
0.827055
0.825405
0.825735
0.827881
0.831675
0.836943
0.843509
0.851193
0.859815
0.869195
0.879153
0.889512
0.900104
0.91076
0.921322
0.931642
0.941582
0.951015
0.959828
0.967918
0.975199
0.981593
0.987042
0.991486
0.994901
0.997235
0.998498
0.998673
0.997707
0.996154
0.992199
0.44159
0.449622
0.468585
0.502467
0.553376
0.620942
0.702756
0.795383
0.895889
1.00191
1.10974
1.2156
1.3157
1.40661
1.48587
1.55236
1.60622
1.64838
1.68036
1.70372
1.71989
1.7301
1.73543
1.73673
1.73468
1.72981
1.72251
1.71309
1.70173
1.68859
1.67374
1.65724
1.6391
1.61932
1.59788
1.57476
1.54996
1.52347
1.49532
1.46555
1.43423
1.40145
1.36732
1.332
1.29566
1.2585
1.22077
1.1827
1.14458
1.10668
1.06929
1.0327
0.99719
0.963019
0.930433
0.899648
0.870852
0.844198
0.819806
0.797761
0.778115
0.760889
0.746075
0.733642
0.723537
0.715689
0.710016
0.706424
0.704809
0.705063
0.70707
0.710713
0.715866
0.722403
0.73019
0.73909
0.748962
0.759663
0.771043
0.782953
0.795244
0.807765
0.820368
0.832905
0.84524
0.857239
0.868778
0.879743
0.890028
0.899543
0.908202
0.915941
0.922693
0.928424
0.933074
0.936645
0.939112
0.940428
0.940999
0.940078
0.335328
0.330729
0.326935
0.32464
0.325007
0.329213
0.33816
0.352361
0.372628
0.400118
0.435743
0.480102
0.53318
0.594059
0.660928
0.731358
0.802633
0.872153
0.937856
0.997707
1.05063
1.09622
1.13452
1.16587
1.19077
1.20992
1.22391
1.23329
1.23856
1.24016
1.23848
1.23383
1.22646
1.2166
1.20444
1.19013
1.17381
1.15562
1.1357
1.11419
1.09123
1.06699
1.04163
1.01535
0.98832
0.960766
0.932904
0.90496
0.877165
0.849751
0.822942
0.796956
0.771997
0.74825
0.725882
0.705034
0.685824
0.668346
0.652666
0.638829
0.626856
0.616749
0.608493
0.602058
0.597401
0.594472
0.593212
0.593558
0.59544
0.598786
0.603522
0.609569
0.616844
0.625259
0.634723
0.645139
0.656401
0.668405
0.681033
0.694165
0.707679
0.721447
0.735339
0.749223
0.762973
0.776462
0.78957
0.802183
0.814195
0.825509
0.836034
0.845697
0.854424
0.86217
0.868867
0.874507
0.879053
0.882467
0.885005
0.886927
0.316777
0.311663
0.30667
0.301821
0.297254
0.293178
0.289844
0.287495
0.286398
0.286788
0.289112
0.293916
0.301817
0.313404
0.32918
0.349436
0.374254
0.403378
0.436402
0.47245
0.51052
0.549348
0.587851
0.624738
0.659278
0.690656
0.718337
0.742219
0.762265
0.778595
0.791369
0.800768
0.807008
0.81031
0.810894
0.808978
0.80477
0.79847
0.790273
0.780374
0.768961
0.756226
0.742361
0.727559
0.712017
0.695929
0.679492
0.6629
0.646342
0.630002
0.614055
0.598661
0.583972
0.570119
0.557219
0.545373
0.534661
0.525148
0.516881
0.509894
0.504205
0.499819
0.496734
0.494937
0.49441
0.495126
0.497059
0.500176
0.504444
0.509825
0.51628
0.523767
0.532241
0.54165
0.551938
0.563044
0.574898
0.587428
0.600546
0.614164
0.628185
0.642501
0.657004
0.67158
0.686113
0.700487
0.714587
0.7283
0.74152
0.754147
0.766084
0.777252
0.787567
0.796971
0.805394
0.812808
0.819174
0.824448
0.828751
0.833264
0.30024
0.296661
0.293112
0.289575
0.286052
0.282567
0.279167
0.275909
0.272858
0.270086
0.267669
0.265716
0.264378
0.263832
0.26429
0.265974
0.269119
0.273933
0.280626
0.289323
0.300104
0.312889
0.327554
0.343754
0.361169
0.379308
0.397668
0.415713
0.43306
0.449296
0.464079
0.477227
0.488599
0.498129
0.505803
0.511654
0.515742
0.518154
0.518994
0.518381
0.516445
0.513323
0.509158
0.504098
0.498293
0.491894
0.48505
0.477908
0.47061
0.463295
0.456089
0.449115
0.442482
0.436289
0.430624
0.425565
0.421175
0.41751
0.414612
0.412516
0.411246
0.410821
0.411251
0.412544
0.414701
0.41772
0.421598
0.426329
0.431904
0.438315
0.445549
0.453592
0.462426
0.472029
0.482376
0.493432
0.505161
0.517513
0.530435
0.543862
0.557721
0.571928
0.586395
0.60103
0.615726
0.630381
0.644887
0.659137
0.673026
0.686452
0.699315
0.71153
0.723004
0.73367
0.74345
0.752303
0.760181
0.767033
0.772859
0.779653
0.280166
0.278049
0.275908
0.273736
0.27152
0.269262
0.266971
0.264665
0.262364
0.260091
0.257868
0.255723
0.253689
0.251805
0.250124
0.248707
0.247625
0.246958
0.246797
0.247231
0.248359
0.250261
0.253013
0.256647
0.261181
0.266576
0.272768
0.279615
0.286988
0.294701
0.302557
0.310361
0.317932
0.325114
0.331771
0.337796
0.343111
0.347668
0.351441
0.354431
0.356658
0.358159
0.358985
0.3592
0.358875
0.358091
0.356932
0.355482
0.353828
0.352058
0.350254
0.348497
0.34686
0.345415
0.344225
0.343347
0.342834
0.342729
0.343073
0.343897
0.345231
0.347098
0.349516
0.352504
0.356073
0.360237
0.365004
0.370385
0.376387
0.383016
0.390279
0.398179
0.406717
0.415891
0.425698
0.436125
0.447164
0.458778
0.470944
0.483622
0.496758
0.510294
0.524162
0.538288
0.552585
0.566961
0.58132
0.595565
0.609592
0.623304
0.636599
0.649388
0.661573
0.673078
0.683819
0.693739
0.702788
0.710901
0.717968
0.726685
0.261538
0.260396
0.259214
0.257987
0.256708
0.255372
0.253981
0.252543
0.251065
0.249559
0.248034
0.246501
0.244969
0.243448
0.241953
0.240501
0.23911
0.237807
0.23662
0.235581
0.234729
0.234103
0.233747
0.233699
0.233998
0.234673
0.235745
0.237218
0.239086
0.241326
0.2439
0.246754
0.249825
0.253043
0.256335
0.259629
0.262856
0.265958
0.268884
0.271595
0.274063
0.276273
0.278221
0.279912
0.281362
0.282594
0.283637
0.284528
0.285306
0.286012
0.28669
0.287385
0.288139
0.288996
0.289994
0.291173
0.292568
0.294212
0.296133
0.298358
0.300912
0.303816
0.307089
0.310749
0.314812
0.319293
0.324208
0.329571
0.335397
0.341699
0.348492
0.355789
0.363602
0.371942
0.380822
0.390241
0.400207
0.410704
0.421725
0.433253
0.445255
0.457695
0.470523
0.483685
0.497115
0.510736
0.524466
0.538218
0.5519
0.565416
0.57867
0.591571
0.604022
0.615937
0.62723
0.63783
0.647682
0.656716
0.664718
0.67496
0.246471
0.245901
0.245293
0.244642
0.243944
0.243194
0.242392
0.241541
0.240646
0.239711
0.238744
0.237748
0.236728
0.235687
0.234632
0.233565
0.232495
0.231428
0.230376
0.229349
0.228361
0.227428
0.226569
0.225803
0.22515
0.224632
0.224269
0.224078
0.224074
0.224265
0.224658
0.225251
0.226037
0.227002
0.228128
0.229392
0.230768
0.232229
0.233749
0.235303
0.236869
0.238429
0.239968
0.241479
0.242957
0.244404
0.245825
0.24723
0.248632
0.250048
0.251497
0.252998
0.254574
0.256246
0.258036
0.259967
0.262058
0.264331
0.266805
0.269496
0.272421
0.275596
0.279036
0.282754
0.286764
0.29108
0.295715
0.300684
0.306002
0.311685
0.317749
0.324209
0.331088
0.338399
0.346162
0.354386
0.363088
0.37227
0.381937
0.392087
0.402707
0.413779
0.425274
0.437155
0.449375
0.461878
0.474596
0.487457
0.500382
0.513284
0.526074
0.538664
0.55096
0.562875
0.57432
0.585215
0.5955
0.605102
0.613722
0.62506
0.234967
0.234714
0.234429
0.23411
0.233753
0.233353
0.23291
0.232426
0.231901
0.231341
0.230748
0.230125
0.229475
0.2288
0.228101
0.227381
0.226643
0.225889
0.225124
0.224352
0.223577
0.222807
0.22205
0.221313
0.220607
0.219944
0.219333
0.218789
0.218323
0.217946
0.217668
0.217497
0.217442
0.217504
0.217686
0.217987
0.218404
0.21893
0.219559
0.220283
0.221094
0.221984
0.222946
0.223976
0.225068
0.226222
0.227436
0.228715
0.230061
0.23148
0.232981
0.234572
0.236262
0.238063
0.239984
0.242038
0.244236
0.246587
0.249103
0.251793
0.254666
0.257732
0.261001
0.264479
0.268178
0.272106
0.276275
0.280695
0.285379
0.290341
0.295597
0.301164
0.307062
0.313307
0.319922
0.326922
0.334327
0.342153
0.35041
0.359109
0.368254
0.377839
0.387853
0.398277
0.409082
0.420229
0.431671
0.443351
0.455205
0.467159
0.479137
0.491055
0.502829
0.514373
0.525601
0.536425
0.546787
0.55661
0.565531
0.577527
0.226336
0.226255
0.226149
0.226017
0.225854
0.225659
0.225429
0.225166
0.224871
0.224546
0.224193
0.223814
0.22341
0.222984
0.222536
0.222068
0.221581
0.221077
0.220557
0.220023
0.219478
0.218925
0.218366
0.217806
0.21725
0.216704
0.216173
0.215665
0.215187
0.214748
0.214356
0.214018
0.213742
0.213536
0.213406
0.213356
0.213392
0.213516
0.21373
0.214036
0.214434
0.214925
0.215508
0.216182
0.216949
0.217808
0.218761
0.219809
0.220955
0.222202
0.223553
0.225013
0.226586
0.228278
0.230094
0.232038
0.234116
0.236332
0.238691
0.241198
0.243856
0.24667
0.249643
0.252781
0.256087
0.259568
0.26323
0.267081
0.27113
0.275388
0.27987
0.28459
0.289564
0.29481
0.300349
0.3062
0.312384
0.318921
0.325828
0.333124
0.340819
0.348923
0.357437
0.366356
0.375667
0.385349
0.395372
0.405696
0.416273
0.427046
0.437952
0.44892
0.459875
0.470737
0.481428
0.491859
0.501973
0.51169
0.520615
0.53284
0.219852
0.219862
0.219854
0.219824
0.219772
0.219695
0.219592
0.219462
0.219307
0.219129
0.218927
0.218705
0.218462
0.218201
0.217923
0.217627
0.217316
0.216991
0.216652
0.216301
0.215939
0.215568
0.215188
0.214802
0.214413
0.214023
0.213637
0.213258
0.212891
0.212541
0.212214
0.211915
0.211652
0.21143
0.211256
0.211135
0.211074
0.211078
0.211153
0.211302
0.211531
0.211843
0.212241
0.212729
0.21331
0.213987
0.214762
0.215639
0.21662
0.217707
0.218904
0.220214
0.221638
0.22318
0.224842
0.226625
0.228532
0.230563
0.232721
0.235004
0.237415
0.239952
0.242618
0.245412
0.248335
0.251391
0.254581
0.257912
0.261387
0.265017
0.26881
0.27278
0.276939
0.281304
0.285892
0.290724
0.29582
0.301201
0.306888
0.312901
0.319258
0.325976
0.333064
0.34053
0.348373
0.356587
0.365156
0.374057
0.383258
0.39272
0.402393
0.412221
0.422142
0.432086
0.441986
0.451755
0.461344
0.470669
0.479328
0.491386
0.214931
0.214988
0.215031
0.215058
0.215068
0.215059
0.21503
0.214981
0.214912
0.214825
0.21472
0.214598
0.21446
0.214308
0.214143
0.213965
0.213775
0.213574
0.213364
0.213145
0.212918
0.212683
0.212443
0.212197
0.211948
0.211697
0.211447
0.211201
0.21096
0.210729
0.210512
0.210313
0.210136
0.209987
0.20987
0.209792
0.209757
0.209771
0.20984
0.209969
0.210164
0.21043
0.210771
0.211193
0.211699
0.212294
0.212982
0.213766
0.21465
0.215636
0.216728
0.217926
0.219234
0.220653
0.222182
0.223823
0.225576
0.227439
0.229411
0.231491
0.233676
0.235965
0.238355
0.240845
0.243433
0.246118
0.248901
0.251784
0.254769
0.257863
0.261072
0.264404
0.267872
0.271488
0.275268
0.27923
0.283393
0.287777
0.292403
0.297292
0.302466
0.307943
0.313741
0.319873
0.326348
0.333171
0.340337
0.347839
0.355658
0.363769
0.37214
0.380728
0.389486
0.398357
0.407285
0.416192
0.425037
0.433738
0.441902
0.453447
0.211149
0.211229
0.211297
0.211354
0.211398
0.211427
0.211441
0.21144
0.211424
0.211394
0.21135
0.211292
0.211224
0.211144
0.211054
0.210956
0.210849
0.210735
0.210615
0.21049
0.21036
0.210226
0.210089
0.209949
0.209809
0.209669
0.209531
0.209396
0.209268
0.209148
0.209039
0.208945
0.208868
0.208813
0.208784
0.208786
0.208822
0.208899
0.209021
0.209193
0.209421
0.20971
0.210064
0.21049
0.210991
0.211572
0.212237
0.21299
0.213835
0.214774
0.21581
0.216944
0.218179
0.219514
0.220949
0.222485
0.224118
0.225848
0.227672
0.229585
0.231585
0.233668
0.23583
0.238067
0.240375
0.242752
0.245197
0.247708
0.250287
0.252936
0.25566
0.258466
0.26136
0.264356
0.267464
0.270701
0.274084
0.277629
0.281359
0.285292
0.289451
0.293856
0.298526
0.303479
0.30873
0.31429
0.320164
0.326354
0.332855
0.339654
0.346731
0.354059
0.361605
0.369324
0.377175
0.38509
0.393039
0.400943
0.408434
0.419184
0.208206
0.208294
0.208374
0.208444
0.208505
0.208555
0.208594
0.208621
0.208637
0.208641
0.208636
0.208621
0.208597
0.208565
0.208526
0.208482
0.208433
0.208379
0.208322
0.208263
0.208203
0.208142
0.20808
0.20802
0.207962
0.207907
0.207856
0.207811
0.207774
0.207747
0.207731
0.20773
0.207746
0.207782
0.207842
0.20793
0.208049
0.208203
0.208398
0.208637
0.208926
0.209269
0.209671
0.210136
0.210669
0.211274
0.211956
0.212718
0.213562
0.214492
0.215511
0.216618
0.217815
0.219103
0.22048
0.221944
0.223494
0.225127
0.226838
0.228623
0.230478
0.232397
0.234376
0.236408
0.23849
0.240617
0.242786
0.244995
0.247242
0.249529
0.251857
0.254232
0.256659
0.259146
0.261705
0.264347
0.267087
0.269941
0.272927
0.276064
0.279372
0.282871
0.286581
0.290521
0.294708
0.299159
0.303884
0.308892
0.314186
0.319763
0.325615
0.331727
0.338078
0.344636
0.351374
0.358234
0.365198
0.372196
0.378891
0.388637
0.205893
0.205981
0.206062
0.206137
0.206205
0.206264
0.206316
0.206359
0.206393
0.206419
0.206438
0.20645
0.206455
0.206455
0.206451
0.206443
0.206433
0.206422
0.206409
0.206397
0.206387
0.206378
0.206372
0.20637
0.206373
0.206382
0.206398
0.206423
0.206458
0.206505
0.206565
0.206642
0.206737
0.206853
0.206992
0.207159
0.207356
0.207588
0.207857
0.208168
0.208525
0.208932
0.209393
0.209913
0.210496
0.211144
0.211863
0.212654
0.213522
0.214467
0.215491
0.216596
0.217782
0.219048
0.220392
0.221813
0.223308
0.224872
0.226501
0.22819
0.229934
0.231726
0.23356
0.23543
0.237331
0.239257
0.241203
0.243167
0.245146
0.247138
0.249146
0.251172
0.253219
0.255294
0.257405
0.259563
0.26178
0.264069
0.266446
0.268928
0.271534
0.274281
0.277188
0.280276
0.283562
0.287063
0.290793
0.294766
0.29899
0.303469
0.308204
0.313187
0.318411
0.323853
0.329498
0.3353
0.341252
0.347292
0.353123
0.36173
0.204062
0.204144
0.204222
0.204295
0.204363
0.204426
0.204483
0.204533
0.204577
0.204616
0.204649
0.204678
0.204702
0.204723
0.204742
0.204759
0.204776
0.204793
0.204812
0.204834
0.204858
0.204888
0.204922
0.204963
0.205011
0.205068
0.205135
0.205213
0.205304
0.205409
0.20553
0.205669
0.205828
0.20601
0.206217
0.206452
0.206717
0.207017
0.207354
0.207732
0.208155
0.208625
0.209148
0.209725
0.210362
0.21106
0.211824
0.212654
0.213555
0.214527
0.215571
0.216688
0.217878
0.219138
0.220468
0.221864
0.223322
0.224839
0.22641
0.228027
0.229685
0.231378
0.233098
0.234839
0.236595
0.238359
0.240126
0.241892
0.243653
0.245408
0.247156
0.248898
0.250638
0.252379
0.254129
0.255895
0.257687
0.259518
0.261401
0.26335
0.265381
0.267511
0.269758
0.27214
0.274673
0.277376
0.280264
0.283352
0.286651
0.290169
0.293915
0.297886
0.302082
0.306491
0.311107
0.315894
0.320854
0.325936
0.330884
0.338288
0.202607
0.202681
0.202752
0.20282
0.202885
0.202946
0.203002
0.203055
0.203104
0.203148
0.20319
0.203228
0.203264
0.203298
0.203332
0.203366
0.203401
0.203438
0.203479
0.203524
0.203574
0.20363
0.203694
0.203766
0.203847
0.20394
0.204045
0.204163
0.204296
0.204446
0.204614
0.204802
0.205012
0.205247
0.205509
0.2058
0.206123
0.206481
0.206876
0.207313
0.207793
0.208321
0.208899
0.209531
0.210218
0.210965
0.211773
0.212645
0.213582
0.214584
0.215653
0.216788
0.217989
0.219252
0.220577
0.221959
0.223395
0.224878
0.226405
0.227967
0.229559
0.231173
0.232803
0.23444
0.236078
0.237711
0.239332
0.240937
0.242521
0.244083
0.24562
0.247132
0.248622
0.250093
0.25155
0.252999
0.254448
0.255909
0.257391
0.258908
0.260474
0.262103
0.26381
0.265613
0.267528
0.26957
0.271756
0.2741
0.276615
0.279313
0.282202
0.285288
0.288575
0.292057
0.295734
0.299582
0.303608
0.307772
0.311859
0.318057
0.201453
0.201517
0.201579
0.20164
0.201698
0.201754
0.201808
0.20186
0.201909
0.201955
0.202
0.202043
0.202086
0.202128
0.202171
0.202216
0.202263
0.202314
0.202369
0.20243
0.202497
0.202572
0.202657
0.202751
0.202857
0.202975
0.203108
0.203256
0.203421
0.203604
0.203808
0.204034
0.204284
0.20456
0.204865
0.2052
0.205569
0.205974
0.206417
0.206902
0.207431
0.208007
0.208633
0.209311
0.210044
0.210833
0.211682
0.21259
0.21356
0.214592
0.215685
0.216839
0.218051
0.219321
0.220645
0.222018
0.223436
0.224894
0.226386
0.227904
0.229442
0.230992
0.232547
0.234099
0.23564
0.237164
0.238665
0.240137
0.241576
0.242978
0.244342
0.245667
0.246954
0.248205
0.249424
0.250616
0.251789
0.25295
0.254109
0.255278
0.256467
0.25769
0.258961
0.260294
0.261704
0.263205
0.264813
0.266541
0.268402
0.27041
0.272574
0.274902
0.277402
0.280072
0.282917
0.285922
0.289096
0.292409
0.295688
0.300727
0.200544
0.200596
0.200649
0.2007
0.200751
0.200801
0.20085
0.200898
0.200944
0.20099
0.201036
0.201081
0.201126
0.201173
0.201221
0.201272
0.201327
0.201386
0.20145
0.201522
0.201601
0.201689
0.201787
0.201897
0.20202
0.202156
0.202308
0.202477
0.202665
0.202873
0.203103
0.203357
0.203636
0.203944
0.204281
0.204651
0.205055
0.205496
0.205977
0.2065
0.207067
0.207682
0.208345
0.209061
0.20983
0.210654
0.211535
0.212474
0.213471
0.214526
0.215639
0.216807
0.21803
0.219304
0.220626
0.221991
0.223393
0.224829
0.22629
0.227769
0.22926
0.230755
0.232245
0.233723
0.235182
0.236614
0.238013
0.239373
0.240691
0.241961
0.243181
0.244351
0.245471
0.246542
0.247567
0.248551
0.249499
0.250418
0.251316
0.252203
0.25309
0.253986
0.254905
0.255858
0.256859
0.257921
0.259058
0.260282
0.261606
0.263041
0.2646
0.266291
0.268122
0.270096
0.272221
0.274486
0.276903
0.279451
0.281994
0.285955
0.199836
0.199878
0.19992
0.199962
0.200005
0.200048
0.200091
0.200134
0.200177
0.20022
0.200263
0.200308
0.200354
0.200402
0.200453
0.200507
0.200566
0.200629
0.2007
0.200777
0.200864
0.20096
0.201067
0.201187
0.20132
0.201468
0.201634
0.201817
0.20202
0.202245
0.202493
0.202766
0.203066
0.203395
0.203756
0.204149
0.204579
0.205047
0.205555
0.206105
0.206701
0.207343
0.208035
0.208778
0.209573
0.210423
0.211328
0.212288
0.213304
0.214375
0.2155
0.216677
0.217904
0.219177
0.220493
0.221846
0.223231
0.224643
0.226073
0.227515
0.228962
0.230405
0.231836
0.233248
0.234634
0.235985
0.237295
0.238559
0.239772
0.240929
0.242029
0.24307
0.24405
0.244972
0.245838
0.246651
0.247416
0.248138
0.248826
0.249486
0.250128
0.250762
0.251397
0.252045
0.252718
0.253426
0.254181
0.254996
0.255882
0.256849
0.25791
0.259072
0.260344
0.261732