/*--------------------------------*- C++ -*----------------------------------*\
  =========                 |
  \\      /  F ield         | OpenFOAM: The Open Source CFD Toolbox
   \\    /   O peration     | Website:  https://openfoam.org
    \\  /    A nd           | Version:  10
     \\/     M anipulation  |
\*---------------------------------------------------------------------------*/
FoamFile
{
    format      ascii;
    class       volScalarField;
    location    "1200";
    object      nut;
}
// * * * * * * * * * * * * * * * * * * * * * * * * * * * * * * * * * * * * * //

dimensions      [0 2 -1 0 0 0 0];

internalField   nonuniform List<scalar> 
6820
(
5.21161e-05
7.23496e-05
8.49505e-05
9.15131e-05
9.44881e-05
9.54259e-05
9.5224e-05
9.44044e-05
9.32791e-05
9.20325e-05
9.07693e-05
8.95459e-05
8.83905e-05
8.73146e-05
8.63207e-05
8.54063e-05
8.45664e-05
8.37951e-05
8.30861e-05
8.24335e-05
8.18318e-05
8.12758e-05
8.0761e-05
8.02834e-05
7.98392e-05
7.94252e-05
7.90384e-05
7.86764e-05
7.83355e-05
7.80183e-05
7.76975e-05
7.7521e-05
7.66085e-05
0.00148779
0.000914492
0.000722323
0.000566085
0.000444964
0.000364554
0.000311028
0.000273876
0.000246823
0.000226541
0.000210742
0.000198385
0.000188225
0.000179921
0.000173043
0.000167267
0.000162375
0.000158201
0.000154617
0.000151526
0.000148846
0.000146516
0.000144481
0.0001427
0.000141136
0.000139761
0.000138546
0.000137473
0.00013651
0.000135663
0.000134882
0.00013425
0.000133204
0.00388235
0.00172611
0.00129522
0.00105715
0.000883653
0.000756982
0.000663656
0.000593356
0.000538662
0.00049523
0.000459793
0.0004305
0.000405787
0.000384675
0.000366437
0.000350536
0.00033655
0.000324169
0.000313134
0.000303254
0.00029436
0.000286329
0.000279044
0.000272419
0.000266374
0.000260842
0.000255769
0.000251108
0.000246801
0.000242839
0.000239116
0.00023572
0.000232349
0.00701486
0.0030933
0.00211865
0.00169399
0.00142842
0.00124177
0.00110356
0.000997707
0.000914036
0.000846515
0.000790841
0.000744244
0.000704627
0.000670539
0.000640856
0.000614798
0.000591689
0.000571092
0.000552562
0.000535856
0.000520648
0.00050682
0.000494101
0.000482469
0.000471665
0.000461751
0.000452448
0.000443904
0.000435789
0.000428349
0.000421166
0.000414606
0.000408142
0.00947863
0.00539463
0.00361892
0.00279676
0.00231358
0.00199145
0.00176049
0.00158676
0.00145105
0.00134224
0.00125305
0.0011787
0.00111573
0.00106176
0.00101494
0.000973976
0.000937767
0.00090559
0.000876723
0.000850758
0.000827177
0.000805768
0.00078612
0.000768154
0.00075151
0.000736208
0.000721907
0.000708704
0.00069626
0.000684729
0.00067376
0.000663559
0.00065377
0.0106282
0.0077634
0.00561755
0.00439956
0.00363522
0.00311496
0.00273997
0.0024579
0.00223822
0.00206258
0.00191909
0.00179982
0.00169916
0.00161315
0.00153881
0.00147397
0.00141689
0.00136632
0.00132113
0.00128061
0.00124396
0.00121076
0.00118045
0.00115275
0.00112725
0.00110379
0.00108202
0.00106189
0.00104307
0.00102557
0.00100911
0.000993716
0.000979146
0.0110845
0.00948062
0.00757881
0.00621462
0.00525
0.00454844
0.00402207
0.00361581
0.00329415
0.00303404
0.00281986
0.00264081
0.0024891
0.0023591
0.00224655
0.00214826
0.00206171
0.001985
0.00191652
0.0018551
0.00179967
0.00174945
0.0017037
0.00166192
0.00162355
0.00158827
0.00155564
0.00152545
0.00149737
0.00147124
0.00144679
0.00142392
0.00140241
0.0112619
0.0104723
0.00911496
0.00788286
0.00688557
0.00609514
0.00546645
0.00496065
0.00454794
0.00420654
0.00392047
0.003678
0.0034703
0.00329072
0.00313412
0.00299655
0.00287482
0.00276649
0.00266949
0.00258222
0.00250331
0.00243168
0.00236636
0.00230661
0.00225173
0.0022012
0.0021545
0.00211125
0.00207106
0.00203364
0.00199869
0.001966
0.00193534
0.0113319
0.0109613
0.0101483
0.00919368
0.00831236
0.00754597
0.00689415
0.00634289
0.00587564
0.00547744
0.00513576
0.00484048
0.00458348
0.00435829
0.00415971
0.00398356
0.00382644
0.00368558
0.00355871
0.00344393
0.00333968
0.00324463
0.00315767
0.00307785
0.00300436
0.00293651
0.0028737
0.0028154
0.00276116
0.0027106
0.00266334
0.00261911
0.00257761
0.0113604
0.011191
0.0107577
0.0101061
0.00941912
0.00876179
0.00816143
0.00762514
0.00715071
0.0067323
0.00636312
0.00603663
0.00574691
0.00548885
0.00525806
0.00505082
0.004864
0.00469496
0.00454144
0.00440155
0.00427365
0.00415637
0.00404851
0.00394905
0.00385709
0.00377186
0.00369269
0.00361899
0.00355024
0.00348598
0.00342581
0.00336939
0.00331638
0.0113724
0.0112961
0.0110835
0.0106835
0.0102001
0.00969075
0.00919015
0.00871655
0.00827792
0.00787637
0.00751102
0.00717947
0.00687877
0.00660587
0.00635782
0.00613193
0.00592576
0.00573714
0.00556417
0.00540517
0.00525867
0.00512337
0.00499815
0.00488199
0.00477404
0.0046735
0.00457971
0.00449204
0.00440996
0.00433299
0.00426071
0.00419273
0.00412872
0.0113776
0.0113432
0.0112429
0.0110225
0.0107093
0.010347
0.00996381
0.0095792
0.00920549
0.00884962
0.00851496
0.0082027
0.00791267
0.007644
0.0073954
0.00716543
0.00695261
0.00675551
0.00657276
0.0064031
0.00624537
0.00609853
0.00596162
0.00583378
0.00571422
0.00560226
0.00549726
0.00539866
0.00530594
0.00521865
0.00513636
0.00505871
0.00498536
0.01138
0.0113641
0.0113177
0.0112066
0.0110186
0.0107798
0.0105077
0.0102177
0.00992164
0.00962789
0.0093419
0.00906704
0.00880518
0.0085572
0.00832327
0.00810316
0.00789638
0.00770227
0.00752011
0.00734915
0.00718865
0.00703787
0.00689614
0.00676281
0.00663726
0.00651895
0.00640734
0.00630197
0.00620239
0.00610821
0.00601905
0.00593457
0.00585448
0.0113814
0.0113732
0.0113518
0.0112994
0.0111948
0.0110479
0.0108673
0.0106628
0.0104433
0.010216
0.00998659
0.00975918
0.00953663
0.00932089
0.00911314
0.00891408
0.00872401
0.00854299
0.00837088
0.00820745
0.00805235
0.00790523
0.0077657
0.00763336
0.00750781
0.00738866
0.00727555
0.00716812
0.00706604
0.00696899
0.00687668
0.00678883
0.00670518
0.0113823
0.0113772
0.011367
0.0113426
0.0112898
0.0112045
0.0110919
0.0109563
0.0108031
0.0106375
0.010464
0.0102863
0.0101076
0.00992993
0.00975512
0.00958437
0.0094185
0.00925805
0.00910337
0.0089546
0.0088118
0.00867491
0.00854383
0.00841839
0.00829842
0.00818371
0.00807405
0.00796922
0.007869
0.00777319
0.00768158
0.00759397
0.00751016
0.0113826
0.0113796
0.0113738
0.0113622
0.0113373
0.011291
0.0112247
0.0111398
0.0110388
0.0109247
0.0108005
0.0106691
0.0105329
0.0103941
0.0102543
0.010115
0.00997716
0.00984165
0.00970904
0.00957979
0.00945418
0.00933241
0.0092146
0.00910078
0.00899097
0.00888512
0.00878316
0.00868501
0.00859057
0.00849973
0.00841236
0.00832837
0.00824761
0.0113825
0.0113808
0.0113772
0.011371
0.0113592
0.0113362
0.0112992
0.0112488
0.0111857
0.0111111
0.0110267
0.0109344
0.0108358
0.0107325
0.0106261
0.0105178
0.0104085
0.0102992
0.0101906
0.0100832
0.00997743
0.00987368
0.00977219
0.00967315
0.00957669
0.0094829
0.00939182
0.00930348
0.00921788
0.009135
0.0090548
0.00897723
0.00890225
0.0113825
0.0113812
0.0113791
0.0113752
0.0113691
0.0113581
0.0113388
0.0113103
0.0112727
0.0112264
0.0111719
0.0111101
0.0110421
0.0109689
0.0108916
0.0108111
0.0107284
0.0106441
0.0105589
0.0104734
0.0103881
0.0103033
0.0102194
0.0101366
0.0100552
0.00997526
0.00989698
0.00982043
0.0097457
0.00967282
0.00960183
0.00953274
0.00946555
0.0113825
0.0113813
0.0113798
0.0113776
0.0113737
0.011368
0.0113586
0.0113433
0.0113219
0.0112944
0.0112608
0.0112213
0.0111765
0.011127
0.0110734
0.0110162
0.0109562
0.010894
0.01083
0.0107647
0.0106987
0.0106321
0.0105654
0.0104989
0.0104327
0.0103672
0.0103023
0.0102384
0.0101754
0.0101136
0.0100529
0.00999341
0.00993521
0.0113824
0.0113813
0.01138
0.0113785
0.0113762
0.0113727
0.0113676
0.0113599
0.0113483
0.0113326
0.0113127
0.0112886
0.0112604
0.0112283
0.0111927
0.0111538
0.0111121
0.011068
0.0110219
0.0109741
0.0109249
0.0108746
0.0108236
0.0107721
0.0107203
0.0106683
0.0106165
0.0105649
0.0105136
0.0104628
0.0104126
0.010363
0.0103142
0.0113824
0.0113813
0.0113801
0.0113788
0.0113773
0.0113751
0.0113721
0.0113676
0.0113616
0.0113531
0.0113418
0.0113275
0.0113104
0.0112904
0.0112677
0.0112423
0.0112145
0.0111844
0.0111524
0.0111186
0.0110833
0.0110467
0.011009
0.0109704
0.0109311
0.0108913
0.0108512
0.0108108
0.0107702
0.0107297
0.0106893
0.0106492
0.0106092
0.0113824
0.0113812
0.0113801
0.0113789
0.0113776
0.0113761
0.0113742
0.0113716
0.011368
0.0113633
0.0113572
0.0113489
0.0113389
0.0113268
0.0113127
0.0112967
0.0112787
0.0112588
0.0112373
0.0112141
0.0111895
0.0111636
0.0111365
0.0111083
0.0110793
0.0110495
0.0110191
0.0109882
0.0109568
0.0109252
0.0108933
0.0108613
0.0108293
0.0113824
0.0113812
0.0113801
0.0113789
0.0113778
0.0113765
0.0113751
0.0113734
0.0113712
0.0113684
0.0113646
0.01136
0.0113543
0.011347
0.0113384
0.0113284
0.0113169
0.0113039
0.0112896
0.0112739
0.0112569
0.0112387
0.0112193
0.011199
0.0111776
0.0111555
0.0111325
0.011109
0.0110848
0.0110601
0.011035
0.0110096
0.010984
0.0113824
0.0113812
0.0113801
0.0113789
0.0113778
0.0113766
0.0113754
0.0113741
0.0113726
0.0113707
0.0113683
0.0113653
0.0113615
0.0113571
0.0113517
0.0113452
0.0113376
0.0113288
0.0113189
0.0113078
0.0112957
0.0112824
0.0112681
0.0112528
0.0112366
0.0112195
0.0112017
0.0111831
0.0111638
0.011144
0.0111236
0.0111028
0.0110815
0.0113824
0.0113812
0.0113801
0.0113789
0.0113778
0.0113767
0.0113755
0.0113743
0.011373
0.0113715
0.0113696
0.0113674
0.0113644
0.0113609
0.011357
0.0113521
0.0113461
0.0113392
0.0113314
0.0113225
0.0113126
0.0113017
0.0112898
0.011277
0.0112633
0.0112488
0.0112334
0.0112173
0.0112006
0.0111832
0.0111652
0.0111467
0.0111278
0.0113824
0.0113812
0.0113801
0.0113789
0.0113778
0.0113766
0.0113755
0.0113742
0.0113729
0.0113712
0.0113693
0.0113668
0.0113637
0.0113601
0.011356
0.0113507
0.0113446
0.0113375
0.0113294
0.0113204
0.0113103
0.0112992
0.0112872
0.0112743
0.0112604
0.0112458
0.0112303
0.0112141
0.0111972
0.0111797
0.0111617
0.0111431
0.0111241
0.0113824
0.0113812
0.0113801
0.0113789
0.0113778
0.0113766
0.0113753
0.0113738
0.0113719
0.0113697
0.0113669
0.0113633
0.0113591
0.0113538
0.0113475
0.0113402
0.0113317
0.0113221
0.0113114
0.0112996
0.0112867
0.0112727
0.0112577
0.0112418
0.011225
0.0112073
0.0111889
0.0111698
0.0111501
0.0111298
0.011109
0.0110878
0.0110661
0.0113824
0.0113812
0.0113801
0.0113789
0.0113777
0.0113763
0.0113745
0.0113723
0.0113693
0.0113655
0.0113608
0.0113545
0.0113468
0.0113377
0.0113272
0.0113151
0.0113015
0.0112865
0.01127
0.0112523
0.0112333
0.0112132
0.011192
0.0111699
0.0111468
0.0111231
0.0110986
0.0110735
0.0110479
0.0110219
0.0109955
0.0109688
0.0109419
0.0113824
0.0113813
0.0113801
0.0113789
0.0113773
0.0113753
0.0113724
0.0113683
0.011363
0.0113555
0.0113458
0.0113338
0.0113196
0.0113031
0.0112845
0.0112637
0.0112409
0.0112163
0.01119
0.0111622
0.0111331
0.0111028
0.0110715
0.0110393
0.0110063
0.0109728
0.0109388
0.0109044
0.0108698
0.0108349
0.0108
0.0107651
0.0107302
0.0113825
0.0113813
0.0113801
0.0113784
0.011376
0.0113722
0.0113667
0.0113583
0.0113461
0.0113304
0.0113111
0.0112881
0.0112616
0.0112318
0.011199
0.0111635
0.0111257
0.0110857
0.011044
0.0110009
0.0109565
0.0109111
0.0108651
0.0108185
0.0107716
0.0107245
0.0106773
0.0106303
0.0105834
0.0105368
0.0104906
0.0104448
0.0103996
0.0113825
0.0113814
0.0113798
0.0113765
0.011372
0.011364
0.0113499
0.0113298
0.0113037
0.0112714
0.0112333
0.0111899
0.0111418
0.0110896
0.0110339
0.0109753
0.0109144
0.0108517
0.0107878
0.0107229
0.0106575
0.0105919
0.0105263
0.010461
0.0103962
0.010332
0.0102686
0.010206
0.0101444
0.0100837
0.0100242
0.0099658
0.00990853
0.0113826
0.011381
0.0113775
0.0113716
0.0113594
0.0113357
0.0113013
0.0112563
0.0112012
0.0111371
0.0110652
0.0109869
0.0109036
0.0108164
0.0107263
0.0106345
0.0105415
0.0104482
0.010355
0.0102625
0.0101709
0.0100807
0.00999191
0.00990485
0.0098196
0.00973626
0.0096549
0.00957556
0.00949825
0.00942298
0.00934974
0.00927851
0.00920925
0.0113825
0.0113788
0.0113715
0.0113527
0.0113123
0.0112512
0.0111713
0.0110751
0.0109656
0.0108458
0.0107187
0.0105868
0.0104521
0.0103163
0.0101807
0.0100464
0.0099142
0.00978462
0.0096581
0.00953494
0.00941533
0.00929938
0.00918713
0.0090786
0.00897374
0.0088725
0.00877479
0.00868053
0.0085896
0.00850191
0.00841733
0.00833576
0.00825708
0.0113813
0.0113725
0.0113446
0.0112755
0.0111624
0.0110161
0.0108447
0.0106562
0.0104574
0.0102539
0.0100496
0.00984759
0.00964987
0.00945783
0.00927233
0.00909388
0.00892271
0.00875888
0.00860229
0.00845278
0.00831011
0.00817402
0.00804421
0.00792039
0.00780227
0.00768953
0.00758191
0.00747912
0.00738091
0.00728702
0.00719721
0.00711125
0.00702895
0.0113782
0.0113392
0.0112229
0.0110038
0.0107266
0.0104167
0.0100938
0.00977089
0.00945631
0.00915473
0.00886847
0.00859844
0.00834473
0.0081069
0.00788423
0.00767584
0.00748081
0.00729817
0.00712704
0.00696653
0.00681584
0.00667422
0.00654096
0.00641543
0.00629705
0.00618527
0.00607962
0.00597964
0.00588492
0.0057951
0.00570983
0.0056288
0.00555172
0.0113586
0.011167
0.0107276
0.0101788
0.00961591
0.00907913
0.00858445
0.00813533
0.00773015
0.00736507
0.0070357
0.00673806
0.00646846
0.00622361
0.00600061
0.00579694
0.0056104
0.00543907
0.0052813
0.00513565
0.00500086
0.00487582
0.00475957
0.00465127
0.00455017
0.0044556
0.004367
0.00428383
0.00420563
0.004132
0.00406256
0.00399698
0.00393495
0.0112033
0.010286
0.00914596
0.00815385
0.00734259
0.00668178
0.00613782
0.00568278
0.00529723
0.00496618
0.00467943
0.0044291
0.00420901
0.00401425
0.00384087
0.00368569
0.0035461
0.00341996
0.00330548
0.00320118
0.0031058
0.00301828
0.00293771
0.00286334
0.00279448
0.00273058
0.00267111
0.00261566
0.00256384
0.00251531
0.00246977
0.00242698
0.00238668
0.00988212
0.00703463
0.00556295
0.00467247
0.00408052
0.00363708
0.00328471
0.0029951
0.00275426
0.00255229
0.00238143
0.00223562
0.00211013
0.00200124
0.00190603
0.00182219
0.00174786
0.00168155
0.00162207
0.00156843
0.00151982
0.00147559
0.00143516
0.00139808
0.00136394
0.00133242
0.00130323
0.00127611
0.00125086
0.00122729
0.00120523
0.00118456
0.00116514
0.00388335
0.00236715
0.00190983
0.00162451
0.00144089
0.0012837
0.00115041
0.00104218
0.000954484
0.000882868
0.000823744
0.000774364
0.00073264
0.000697014
0.000666296
0.000639586
0.000616175
0.000595519
0.000577169
0.000560784
0.000546068
0.000532799
0.00052077
0.000509836
0.000499846
0.000490702
0.000482292
0.00047455
0.000467386
0.000460761
0.000454595
0.000448871
0.000443515
0.000128162
0.00013943
0.0001503
0.000159954
0.000168408
0.000175845
0.000182401
0.000188179
0.000193265
0.000197736
0.000201662
0.000205105
0.00020812
0.000210755
0.000213053
0.000215055
0.000216795
0.000218302
0.000219604
0.000220726
0.000221688
0.000222509
0.000223205
0.000223792
0.000224282
0.000224687
0.000225016
0.000225279
0.000225484
0.000225637
0.000225745
0.000225813
0.000225846
8.36219e-05
9.99691e-05
0.000125223
0.00015957
0.000201018
0.000246753
0.000294132
0.000341187
0.000386688
0.000430096
0.000470837
0.000508792
0.00054424
0.000577622
0.000609478
0.000640243
0.00067034
0.000699932
0.000729237
0.000758241
0.00078695
0.000815328
0.000843437
0.00087128
0.000898933
0.000926487
0.000953973
0.000981428
0.00100886
0.0010363
0.00106375
0.00109119
0.00111889
0.00114669
0.00117452
0.0012024
0.00123031
0.00125832
0.00128638
0.00131464
0.00134319
0.00137204
0.00140129
0.00143099
0.00146124
0.00149219
0.00152398
0.00155677
0.00159072
0.00162601
0.00166285
0.00170147
0.00174207
0.0017849
0.00183018
0.00187816
0.00192905
0.00198306
0.0020404
0.00210121
0.00216564
0.00223377
0.00230567
0.00238134
0.00246074
0.00254377
0.00263031
0.00272015
0.00281309
0.00290883
0.00300711
0.00310756
0.00320991
0.00331366
0.00341863
0.0035242
0.00363027
0.00373626
0.00384183
0.00394671
0.00405049
0.00415282
0.0042533
0.0043518
0.00444793
0.00454145
0.0046321
0.00471974
0.00480406
0.00488516
0.00496243
0.0050366
0.00510627
0.00517349
0.00523435
0.00529605
0.00534581
0.00540608
0.00543977
0.00550928
0.000133074
0.000134407
0.000137403
0.000144167
0.000155108
0.000170081
0.000188994
0.000210988
0.000236326
0.000264948
0.000295699
0.000329062
0.000364543
0.000401331
0.000438672
0.000475857
0.000512504
0.000548189
0.000583083
0.000616852
0.000649625
0.000681477
0.000712662
0.000743181
0.000773189
0.00080283
0.00083212
0.00086114
0.000889953
0.000918632
0.000947238
0.000975784
0.00100437
0.00103303
0.00106179
0.00109068
0.00111972
0.00114897
0.00117846
0.00120825
0.00123843
0.00126909
0.00130033
0.00133223
0.00136492
0.00139852
0.0014332
0.00146911
0.00150642
0.00154533
0.00158603
0.00162873
0.00167365
0.00172101
0.00177101
0.00182388
0.0018798
0.00193895
0.00200149
0.00206751
0.00213712
0.00221035
0.00228721
0.00236763
0.00245154
0.00253877
0.00262918
0.0027225
0.00281853
0.00291693
0.00301746
0.00311972
0.00322349
0.00332826
0.00343396
0.0035399
0.00364619
0.0037521
0.00385745
0.00396206
0.00406547
0.00416738
0.00426743
0.00436563
0.00446147
0.00455479
0.00464535
0.00473302
0.00481749
0.00489884
0.00497651
0.00505118
0.00512154
0.00518927
0.00525125
0.0053133
0.00536507
0.00542466
0.0054621
0.00553161
0.00022895
0.000224999
0.000220861
0.000217164
0.000215119
0.000215225
0.000217788
0.000222487
0.000229388
0.000239108
0.000251882
0.000268195
0.000288133
0.000311403
0.000337587
0.000366155
0.000396429
0.000428037
0.000460972
0.000493106
0.000525634
0.000558337
0.000591136
0.000623329
0.000655358
0.000687025
0.00071812
0.000748872
0.000779356
0.000809688
0.000839886
0.000870023
0.000900158
0.000930358
0.000960688
0.000991214
0.001022
0.00105311
0.00108462
0.00111662
0.00114918
0.00118242
0.00121645
0.00125137
0.00128734
0.00132448
0.00136296
0.00140293
0.00144457
0.00148807
0.00153362
0.00158142
0.00163165
0.00168452
0.0017402
0.00179888
0.00186069
0.00192576
0.00199419
0.00206602
0.00214129
0.00221996
0.00230197
0.0023872
0.00247551
0.00256669
0.00266055
0.00275679
0.00285521
0.00295543
0.00305727
0.0031603
0.00326435
0.00336893
0.0034741
0.00357908
0.00368431
0.00378873
0.00389253
0.00399556
0.00409727
0.00419743
0.00429579
0.00439249
0.00448686
0.00457886
0.00466827
0.00475496
0.00483864
0.00491937
0.00499662
0.00507106
0.00514138
0.00520893
0.00527148
0.00533326
0.00538668
0.0054449
0.00548588
0.00555471
0.000401262
0.000393519
0.000385451
0.000377525
0.000370405
0.000364179
0.000359002
0.000354687
0.000351323
0.000348701
0.000347252
0.000347185
0.000349244
0.000353598
0.00036098
0.000371209
0.000384936
0.000401451
0.000421653
0.000444152
0.000469278
0.000495402
0.000523841
0.000551791
0.000582347
0.000611742
0.000640846
0.000670954
0.000701459
0.000732253
0.000763089
0.000794152
0.00082542
0.00085696
0.000888841
0.000921133
0.000953911
0.000987251
0.00102124
0.00105596
0.00109151
0.00112801
0.00116557
0.00120432
0.00124439
0.00128594
0.00132911
0.00137406
0.00142096
0.00146999
0.00152131
0.0015751
0.00163151
0.0016907
0.00175281
0.00181794
0.0018862
0.00195763
0.00203226
0.00211006
0.002191
0.00227495
0.0023618
0.00245136
0.00254343
0.00263776
0.00273413
0.00283222
0.00293183
0.00303257
0.00313431
0.0032366
0.00333937
0.00344214
0.00354515
0.00364748
0.00375003
0.00385117
0.00395181
0.00405164
0.00414996
0.00424672
0.00434186
0.00443565
0.00452706
0.00461638
0.00470335
0.00478784
0.00486959
0.00494862
0.00502447
0.00509778
0.00516715
0.00523367
0.00529615
0.00535692
0.00541153
0.00546756
0.00551172
0.00557917
0.000643082
0.000631287
0.000619535
0.000608085
0.000597485
0.000587667
0.000578708
0.000570297
0.000562532
0.000555112
0.00054828
0.000541762
0.000536009
0.000530779
0.000526734
0.00052363
0.000522348
0.000522581
0.000525394
0.000530439
0.000538733
0.000549482
0.000563771
0.000580378
0.000600306
0.000622431
0.000647087
0.000671967
0.000699728
0.000727382
0.000755301
0.000784722
0.000814861
0.00084598
0.00087805
0.00091107
0.000945062
0.000980071
0.00101615
0.00105338
0.00109184
0.00113162
0.00117284
0.00121562
0.00126008
0.00130635
0.00135457
0.00140489
0.00145744
0.00151236
0.00156979
0.00162986
0.00169267
0.00175832
0.00182689
0.00189841
0.00197291
0.00205036
0.00213071
0.00221386
0.00229968
0.002388
0.00247862
0.0025713
0.00266581
0.00276186
0.0028592
0.00295751
0.00305661
0.00315607
0.00325588
0.00335552
0.00345508
0.00355411
0.003653
0.00375072
0.00384872
0.00394437
0.00404009
0.00413483
0.00422771
0.00431934
0.00440946
0.0044983
0.00458523
0.00467028
0.00475329
0.00483414
0.00491261
0.00498866
0.00506192
0.00513276
0.00520039
0.00526508
0.00532649
0.00538537
0.00544061
0.00549343
0.0055402
0.00560568
0.000963176
0.000945726
0.00092873
0.00091232
0.000896957
0.000882569
0.00086921
0.00085657
0.00084473
0.000833399
0.000822774
0.000812566
0.000803053
0.000793928
0.000785563
0.00077767
0.000770733
0.000764521
0.000759606
0.000755688
0.000753516
0.000752818
0.0007544
0.000757972
0.000764305
0.000773031
0.000784958
0.0007992
0.000816562
0.000836458
0.000859174
0.000883376
0.000909679
0.000937985
0.000967943
0.000999539
0.00103277
0.00106766
0.00110422
0.0011425
0.00118257
0.00122448
0.00126833
0.00131419
0.00136218
0.00141237
0.00146489
0.00151983
0.00157728
0.00163734
0.00170008
0.00176557
0.00183386
0.00190498
0.00197891
0.00205564
0.00213509
0.00221717
0.00230175
0.00238866
0.00247769
0.00256861
0.00266118
0.00275512
0.00285014
0.00294593
0.00304226
0.00313876
0.00323531
0.00333143
0.00342725
0.00352211
0.00361637
0.00370962
0.00380232
0.0038934
0.00398482
0.00407341
0.00416142
0.00424862
0.00433435
0.00441885
0.004502
0.00458401
0.00466454
0.00474352
0.00482086
0.00489642
0.00497005
0.00504164
0.00511097
0.00517805
0.00524269
0.00530441
0.00536378
0.00541982
0.00547429
0.00552398
0.00557186
0.0056352
0.00137886
0.00135329
0.00132866
0.00130502
0.00128272
0.00126173
0.00124204
0.00122342
0.00120587
0.00118919
0.00117348
0.00115855
0.00114455
0.00113128
0.00111894
0.00110735
0.00109677
0.00108704
0.0010785
0.00107095
0.00106479
0.00105985
0.00105652
0.00105478
0.00105494
0.00105699
0.00106133
0.00106808
0.00107704
0.00108842
0.00110272
0.00111966
0.00113927
0.00116165
0.00118652
0.00121386
0.00124364
0.00127583
0.00131044
0.00134746
0.00138692
0.00142884
0.00147327
0.00152024
0.00156981
0.00162204
0.00167696
0.00173462
0.00179508
0.00185835
0.00192446
0.00199339
0.00206513
0.00213964
0.00221683
0.0022966
0.00237881
0.0024633
0.00254987
0.00263827
0.00272826
0.00281955
0.00291184
0.00300482
0.00309818
0.00319159
0.00328479
0.00337744
0.0034694
0.00356015
0.00365
0.00373803
0.00382511
0.00391073
0.00399612
0.00407825
0.00416012
0.00423996
0.0043186
0.00439631
0.00447277
0.00454812
0.00462233
0.00469558
0.00476774
0.00483876
0.00490858
0.00497708
0.00504418
0.00510968
0.00517354
0.00523545
0.00529571
0.00535315
0.00540935
0.00546144
0.00551425
0.00555954
0.00560838
0.00566765
0.00190181
0.00186549
0.00183065
0.00179733
0.00176572
0.00173581
0.00170758
0.00168082
0.00165551
0.00163149
0.00160879
0.00158728
0.00156704
0.00154795
0.00153013
0.00151348
0.00149817
0.00148411
0.00147153
0.00146031
0.00145071
0.00144256
0.00143622
0.00143164
0.00142854
0.00142746
0.00142838
0.00143145
0.00143671
0.0014442
0.00145412
0.00146658
0.00148163
0.00149941
0.00151993
0.00154322
0.0015693
0.0015982
0.00162993
0.00166452
0.001702
0.00174238
0.0017857
0.00183197
0.00188122
0.00193347
0.00198872
0.00204697
0.00210822
0.00217245
0.00223961
0.00230963
0.00238245
0.00245794
0.00253597
0.00261638
0.00269895
0.00278347
0.00286967
0.00295727
0.00304597
0.00313543
0.00322533
0.0033153
0.00340503
0.00349417
0.00358244
0.00366949
0.00375513
0.00383886
0.00392114
0.00400066
0.00408016
0.00415675
0.00423156
0.00430389
0.00437501
0.00444428
0.00451203
0.00457863
0.00464407
0.00470849
0.00477196
0.00483466
0.00489663
0.00495785
0.00501834
0.005078
0.00513682
0.00519456
0.00525134
0.00530653
0.00536094
0.00541269
0.00546444
0.00551134
0.00556147
0.00560102
0.00565042
0.00570377
0.00253223
0.00248309
0.00243599
0.00239092
0.002348
0.00230719
0.00226845
0.00223163
0.00219667
0.00216344
0.00213193
0.00210204
0.00207381
0.00204715
0.00202214
0.00199874
0.00197707
0.00195709
0.00193897
0.00192265
0.00190833
0.00189587
0.00188555
0.00187717
0.00187138
0.00186702
0.00186489
0.00186528
0.0018679
0.0018729
0.00188029
0.0018902
0.00190267
0.0019178
0.00193566
0.00195632
0.00197983
0.00200625
0.00203564
0.00206802
0.00210346
0.00214198
0.00218361
0.00222838
0.0022763
0.00232738
0.0023816
0.00243895
0.00249937
0.00256283
0.00262923
0.00269846
0.00277042
0.00284492
0.0029218
0.00300083
0.00308178
0.00316436
0.00324827
0.0033332
0.00341879
0.00350467
0.0035905
0.00367589
0.00376049
0.00384395
0.00392595
0.00400614
0.00408421
0.0041598
0.00423348
0.00430562
0.00437434
0.00444065
0.00450478
0.00456628
0.00462586
0.00468347
0.0047393
0.00479373
0.00484693
0.00489912
0.00495048
0.00500122
0.00505149
0.00510135
0.00515091
0.0052001
0.00524903
0.00529738
0.00534548
0.00539243
0.00543949
0.00548407
0.00553003
0.0055704
0.00561675
0.00564922
0.00569844
0.00574417
0.00325834
0.00319538
0.00313494
0.003077
0.00302159
0.00296867
0.00291821
0.00287006
0.00282416
0.00278041
0.00273876
0.00269914
0.00266156
0.00262596
0.00259239
0.00256083
0.00253138
0.00250403
0.00247893
0.00245603
0.00243552
0.00241729
0.00240158
0.00238816
0.00237749
0.00236914
0.00236372
0.00236004
0.00235917
0.00236119
0.00236568
0.00237295
0.00238288
0.00239559
0.00241111
0.0024295
0.0024508
0.00247507
0.00250235
0.00253269
0.00256612
0.00260269
0.00264241
0.00268531
0.00273139
0.00278065
0.00283306
0.00288859
0.00294717
0.00300873
0.00307315
0.00314031
0.00321005
0.00328217
0.00335647
0.00343269
0.00351055
0.00358976
0.00366997
0.00375084
0.00383199
0.00391302
0.00399359
0.00407326
0.00415169
0.00422852
0.00430337
0.00437586
0.0044455
0.00451307
0.00457858
0.0046403
0.00469905
0.00475486
0.004808
0.00485826
0.00490609
0.00495165
0.00499516
0.00503697
0.00507738
0.00511669
0.00515515
0.00519305
0.00523062
0.00526803
0.00530547
0.00534291
0.0053806
0.00541817
0.00545618
0.00549347
0.00553176
0.00556778
0.0056066
0.00563914
0.00568048
0.00570463
0.00575264
0.00578914
0.00405847
0.00398206
0.0039085
0.00383775
0.00376982
0.00370466
0.00364223
0.00358242
0.00352518
0.0034704
0.00341806
0.00336808
0.00332046
0.00327518
0.00323225
0.00319168
0.00315355
0.00311787
0.00308476
0.00305421
0.00302637
0.00300118
0.00297883
0.00295916
0.00294248
0.00292848
0.00291769
0.00290937
0.00290465
0.00290183
0.00290212
0.0029058
0.00291216
0.00292161
0.00293404
0.00294947
0.00296796
0.00298952
0.00301417
0.00304195
0.00307288
0.00310697
0.00314424
0.00318469
0.00322831
0.00327506
0.00332493
0.00337784
0.00343372
0.00349247
0.00355395
0.00361801
0.00368449
0.00375315
0.00382376
0.00389605
0.00396973
0.00404445
0.00411988
0.00419564
0.00427132
0.00434655
0.00442097
0.00449407
0.0045656
0.00463511
0.00470215
0.00476625
0.00482809
0.00488743
0.00494287
0.00499499
0.00504375
0.00508917
0.00513146
0.00517061
0.00520691
0.00524061
0.00527195
0.0053013
0.005329
0.00535539
0.00538084
0.00540564
0.00543015
0.00545458
0.00547925
0.00550417
0.00552972
0.00555553
0.00558235
0.00560885
0.00563718
0.00566343
0.00569386
0.00571737
0.00575249
0.00576727
0.00581268
0.00583865
0.00490462
0.00481647
0.0047313
0.00464907
0.00456977
0.00449337
0.00441982
0.00434906
0.00428104
0.00421569
0.00415298
0.00409286
0.00403532
0.00398036
0.003928
0.00387826
0.00383119
0.00378683
0.00374528
0.00370656
0.00367079
0.00363795
0.0036082
0.00358143
0.00355787
0.00353731
0.00352013
0.00350583
0.00349518
0.00348709
0.00348311
0.00348136
0.0034826
0.00348785
0.003496
0.00350734
0.00352198
0.00353979
0.0035608
0.00358506
0.00361255
0.00364325
0.00367715
0.00371423
0.00375447
0.00379782
0.00384421
0.00389358
0.00394581
0.00400077
0.00405834
0.00411832
0.00418052
0.0042447
0.00431061
0.00437796
0.00444644
0.00451569
0.00458538
0.0046551
0.00472442
0.00479302
0.00486051
0.00492629
0.00499029
0.00505186
0.00511043
0.00516685
0.00522028
0.00526993
0.00531608
0.00535862
0.00539754
0.00543283
0.00546465
0.00549309
0.00551836
0.00554073
0.00556047
0.00557794
0.00559348
0.00560748
0.00562033
0.0056324
0.00564407
0.00565563
0.00566747
0.00567968
0.00569276
0.00570631
0.00572134
0.00573631
0.00575385
0.00576943
0.00579047
0.005804
0.00583174
0.00583642
0.00587752
0.00589213
0.00576601
0.00566899
0.00557485
0.00548355
0.0053951
0.00530948
0.00522667
0.00514664
0.00506936
0.00499479
0.00492292
0.00485372
0.0047872
0.00472336
0.00466224
0.00460386
0.00454829
0.00449558
0.00444581
0.00439902
0.00435532
0.00431472
0.00427734
0.00424316
0.00421232
0.00418471
0.00416058
0.00413964
0.00412235
0.00410814
0.0040977
0.0040904
0.0040865
0.00408622
0.00408855
0.00409478
0.00410457
0.00411745
0.0041337
0.00415337
0.00417633
0.00420252
0.00423195
0.00426459
0.00430038
0.00433924
0.00438111
0.00442585
0.00447336
0.00452348
0.00457606
0.00463089
0.00468777
0.00474642
0.00480659
0.00486797
0.00493025
0.00499304
0.00505604
0.00511877
0.00518083
0.00524202
0.00530177
0.0053595
0.00541537
0.00546821
0.00551913
0.00556645
0.00561049
0.00565097
0.00568776
0.00572078
0.00575001
0.00577544
0.0057972
0.00581541
0.00583025
0.00584198
0.00585087
0.00585726
0.00586149
0.00586395
0.00586505
0.00586516
0.00586472
0.00586403
0.00586356
0.00586343
0.00586425
0.00586563
0.00586876
0.005872
0.00587836
0.00588281
0.0058938
0.00589678
0.00591617
0.00591036
0.00594545
0.00594817
0.0066124
0.00651017
0.00641048
0.00631333
0.00621875
0.00612674
0.00603732
0.00595049
0.00586623
0.00578457
0.00570549
0.00562901
0.00555514
0.00548393
0.0054154
0.00534961
0.00528662
0.0052265
0.00516933
0.00511518
0.00506413
0.00501623
0.00497159
0.00493021
0.00489221
0.00485756
0.00482641
0.00479863
0.00477445
0.00475365
0.00473647
0.00472279
0.00471253
0.00470601
0.00470253
0.00470307
0.0047068
0.00471349
0.0047241
0.00473831
0.00475566
0.00477624
0.00480014
0.00482727
0.00485751
0.00489081
0.00492704
0.00496605
0.00500773
0.0050519
0.00509839
0.00514698
0.00519744
0.00524946
0.00530282
0.00535719
0.00541224
0.00546756
0.00552291
0.00557766
0.00563157
0.00568458
0.00573568
0.00578459
0.00583199
0.00587609
0.00591742
0.0059555
0.00599017
0.00602122
0.00604852
0.00607199
0.00609161
0.00610739
0.00611943
0.00612784
0.00613281
0.00613457
0.00613338
0.00612955
0.00612341
0.00611534
0.00610571
0.00609492
0.00608339
0.00607144
0.00605959
0.00604795
0.00603722
0.00602702
0.00601869