/*--------------------------------*- C++ -*----------------------------------*\
  =========                 |
  \\      /  F ield         | OpenFOAM: The Open Source CFD Toolbox
   \\    /   O peration     | Website:  https://openfoam.org
    \\  /    A nd           | Version:  10
     \\/     M anipulation  |
\*---------------------------------------------------------------------------*/
FoamFile
{
    format      ascii;
    class       volScalarField;
    location    "1200";
    object      p;
}
// * * * * * * * * * * * * * * * * * * * * * * * * * * * * * * * * * * * * * //

dimensions      [0 2 -2 0 0 0 0];

internalField   nonuniform List<scalar> 
6820
(
6.39742
-4.4924
-8.01161
-8.7452
-9.14651
-9.48506
-9.67755
-9.77402
-9.83947
-9.89395
-9.93819
-9.97395
-10.0045
-10.0319
-10.0569
-10.0798
-10.1012
-10.1214
-10.1405
-10.1588
-10.1764
-10.1933
-10.2096
-10.2253
-10.2405
-10.2551
-10.2689
-10.2819
-10.2937
-10.304
-10.3109
-10.3162
-10.3024
-15.4906
-11.8126
-11.0677
-10.2985
-9.93371
-9.86732
-9.86559
-9.86944
-9.88754
-9.91674
-9.94752
-9.97619
-10.0031
-10.0285
-10.0524
-10.0749
-10.0962
-10.1163
-10.1355
-10.154
-10.1717
-10.1887
-10.2052
-10.2212
-10.2366
-10.2514
-10.2656
-10.279
-10.2915
-10.303
-10.3123
-10.3218
-10.3262
-13.342
-9.76784
-9.51254
-9.51445
-9.50821
-9.60665
-9.70734
-9.7751
-9.82961
-9.87949
-9.9228
-9.95942
-9.99134
-10.02
-10.046
-10.07
-10.0922
-10.113
-10.1327
-10.1515
-10.1695
-10.1868
-10.2034
-10.2195
-10.2351
-10.2501
-10.2646
-10.2784
-10.2915
-10.304
-10.3153
-10.3276
-10.3384
-10.8528
-9.39372
-9.54441
-9.66053
-9.64517
-9.7005
-9.77108
-9.81979
-9.85983
-9.89877
-9.93458
-9.96629
-9.99491
-10.0213
-10.0458
-10.0687
-10.0903
-10.1107
-10.1301
-10.1487
-10.1666
-10.1839
-10.2006
-10.2168
-10.2325
-10.2477
-10.2625
-10.2768
-10.2907
-10.3042
-10.3174
-10.3317
-10.3465
-10.3934
-9.69605
-9.73652
-9.75274
-9.7085
-9.73617
-9.78851
-9.8296
-9.86576
-9.90189
-9.93593
-9.96669
-9.99478
-10.0208
-10.0451
-10.0678
-10.0892
-10.1095
-10.1289
-10.1475
-10.1654
-10.1826
-10.1994
-10.2156
-10.2315
-10.2469
-10.2619
-10.2767
-10.2912
-10.3056
-10.3203
-10.3361
-10.3532
-10.3281
-9.8529
-9.80679
-9.78483
-9.74603
-9.76456
-9.80628
-9.84279
-9.8763
-9.9098
-9.94166
-9.97089
-9.99785
-10.023
-10.0466
-10.0687
-10.0897
-10.1097
-10.1288
-10.1472
-10.1649
-10.1821
-10.1988
-10.2151
-10.2309
-10.2465
-10.2618
-10.2769
-10.292
-10.3072
-10.3229
-10.3398
-10.3584
-10.2127
-9.88668
-9.83457
-9.81182
-9.78292
-9.79556
-9.82801
-9.85932
-9.8894
-9.91976
-9.94908
-9.97648
-10.0021
-10.0262
-10.049
-10.0705
-10.091
-10.1106
-10.1294
-10.1476
-10.1651
-10.1822
-10.1988
-10.2151
-10.231
-10.2467
-10.2622
-10.2776
-10.2931
-10.309
-10.3254
-10.3431
-10.3624
-10.1066
-9.90155
-9.85908
-9.83888
-9.81658
-9.82487
-9.84987
-9.87635
-9.90306
-9.93045
-9.95735
-9.98295
-10.0072
-10.0302
-10.0521
-10.073
-10.093
-10.1122
-10.1306
-10.1485
-10.1659
-10.1828
-10.1993
-10.2155
-10.2315
-10.2472
-10.2629
-10.2786
-10.2944
-10.3107
-10.3277
-10.3457
-10.3653
-10.0376
-9.91476
-9.87923
-9.86121
-9.8444
-9.85038
-9.8701
-9.89272
-9.91652
-9.94131
-9.96601
-9.98991
-10.0128
-10.0348
-10.0559
-10.0761
-10.0955
-10.1142
-10.1323
-10.1499
-10.167
-10.1838
-10.2002
-10.2163
-10.2322
-10.248
-10.2638
-10.2797
-10.2958
-10.3123
-10.3295
-10.3477
-10.3672
-9.99528
-9.92338
-9.89396
-9.87883
-9.86699
-9.87205
-9.88823
-9.90788
-9.92927
-9.95183
-9.97461
-9.99695
-10.0186
-10.0396
-10.0598
-10.0793
-10.0982
-10.1165
-10.1342
-10.1515
-10.1684
-10.185
-10.2012
-10.2173
-10.2332
-10.249
-10.2648
-10.2808
-10.297
-10.3136
-10.3309
-10.349
-10.3682
-9.96944
-9.92841
-9.90525
-9.89326
-9.88551
-9.89035
-9.90415
-9.92157
-9.94097
-9.96166
-9.98278
-10.0037
-10.0243
-10.0443
-10.0637
-10.0826
-10.101
-10.1188
-10.1362
-10.1532
-10.1698
-10.1862
-10.2023
-10.2182
-10.2341
-10.2499
-10.2657
-10.2817
-10.2979
-10.3145
-10.3317
-10.3496
-10.3683
-9.95461
-9.93198
-9.91464
-9.90555
-9.90094
-9.90585
-9.91802
-9.93372
-9.9515
-9.97061
-9.9903
-10.01
-10.0295
-10.0487
-10.0674
-10.0857
-10.1036
-10.121
-10.138
-10.1547
-10.1711
-10.1873
-10.2033
-10.2191
-10.2348
-10.2505
-10.2663
-10.2822
-10.2984
-10.3149
-10.3319
-10.3494
-10.3675
-9.94726
-9.93531
-9.92288
-9.91632
-9.91407
-9.91913
-9.93013
-9.94447
-9.96088
-9.97865
-9.9971
-10.0158
-10.0343
-10.0527
-10.0708
-10.0885
-10.1059
-10.1229
-10.1396
-10.156
-10.1722
-10.1882
-10.204
-10.2196
-10.2352
-10.2508
-10.2665
-10.2823
-10.2983
-10.3146
-10.3313
-10.3484
-10.3659
-9.94485
-9.9389
-9.93038
-9.92597
-9.92547
-9.93069
-9.94081
-9.95401
-9.96924
-9.98583
-10.0032
-10.0209
-10.0386
-10.0562
-10.0737
-10.0909
-10.1078
-10.1245
-10.1408
-10.157
-10.1729
-10.1887
-10.2043
-10.2198
-10.2352
-10.2507
-10.2662
-10.2818
-10.2976
-10.3136
-10.3299
-10.3465
-10.3634
-9.94565
-9.94293
-9.93741
-9.93478
-9.93557
-9.9409
-9.95031
-9.96254
-9.97672
-9.99225
-10.0086
-10.0254
-10.0423
-10.0593
-10.0761
-10.0928
-10.1093
-10.1256
-10.1416
-10.1575
-10.1732
-10.1887
-10.2041
-10.2194
-10.2347
-10.25
-10.2653
-10.2806
-10.2961
-10.3118
-10.3276
-10.3437
-10.3599
-9.94847
-9.94742
-9.94412
-9.94291
-9.94465
-9.95005
-9.95886
-9.97023
-9.98346
-9.99801
-10.0134
-10.0294
-10.0456
-10.0619
-10.0781
-10.0943
-10.1104
-10.1263
-10.142
-10.1576
-10.173
-10.1883
-10.2035
-10.2186
-10.2336
-10.2486
-10.2637
-10.2788
-10.2939
-10.3092
-10.3246
-10.34
-10.3556
-9.95253
-9.95229
-9.95058
-9.95048
-9.95289
-9.9583
-9.96661
-9.97721
-9.98956
-10.0032
-10.0177
-10.0329
-10.0483
-10.064
-10.0797
-10.0954
-10.111
-10.1265
-10.1419
-10.1572
-10.1723
-10.1874
-10.2023
-10.2172
-10.2319
-10.2467
-10.2615
-10.2762
-10.291
-10.3058
-10.3207
-10.3356
-10.3505
-9.95733
-9.95745
-9.95683
-9.95756
-9.96042
-9.9658
-9.97364
-9.98354
-9.99509
-10.0079
-10.0216
-10.036
-10.0507
-10.0658
-10.0809
-10.0961
-10.1113
-10.1264
-10.1414
-10.1564
-10.1712
-10.186
-10.2006
-10.2152
-10.2297
-10.2442
-10.2586
-10.273
-10.2874
-10.3017
-10.3161
-10.3304
-10.3447
-9.96252
-9.96277
-9.96289
-9.96419
-9.96734
-9.97262
-9.98002
-9.98928
-10.0001
-10.0121
-10.025
-10.0386
-10.0527
-10.0671
-10.0817
-10.0964
-10.1112
-10.1259
-10.1406
-10.1552
-10.1697
-10.1841
-10.1985
-10.2127
-10.2269
-10.2411
-10.2551
-10.2691
-10.2831
-10.297
-10.3108
-10.3245
-10.3381
-9.96788
-9.96816
-9.96874
-9.97042
-9.97369
-9.97881
-9.9858
-9.99446
-10.0046
-10.0158
-10.028
-10.0409
-10.0544
-10.0682
-10.0822
-10.0964
-10.1107
-10.125
-10.1393
-10.1535
-10.1677
-10.1818
-10.1959
-10.2098
-10.2237
-10.2374
-10.2511
-10.2647
-10.2782
-10.2916
-10.3048
-10.318
-10.331
-9.97327
-9.97355
-9.97438
-9.97625
-9.97953
-9.98443
-9.99099
-9.99908
-10.0085
-10.0191
-10.0306
-10.0428
-10.0556
-10.0689
-10.0824
-10.0961
-10.1099
-10.1238
-10.1377
-10.1516
-10.1654
-10.1792
-10.1929
-10.2064
-10.2199
-10.2333
-10.2466
-10.2597
-10.2728
-10.2857
-10.2984
-10.3109
-10.3233
-9.97861
-9.97885
-9.9798
-9.98171
-9.98488
-9.98949
-9.9956
-10.0031
-10.0119
-10.0219
-10.0327
-10.0443
-10.0565
-10.0692
-10.0822
-10.0954
-10.1088
-10.1222
-10.1358
-10.1493
-10.1627
-10.1761
-10.1895
-10.2027
-10.2158
-10.2288
-10.2416
-10.2544
-10.2669
-10.2793
-10.2915
-10.3034
-10.3152
-9.98383
-9.98405
-9.98498
-9.9868
-9.98975
-9.99401
-9.99964
-10.0066
-10.0148
-10.0241
-10.0343
-10.0453
-10.057
-10.0691
-10.0816
-10.0943
-10.1073
-10.1204
-10.1335
-10.1466
-10.1597
-10.1728
-10.1857
-10.1986
-10.2113
-10.2239
-10.2363
-10.2486
-10.2606
-10.2725
-10.2842
-10.2956
-10.3068
-9.98892
-9.98912
-9.98994
-9.99154
-9.99416
-9.99798
-10.0031
-10.0095
-10.0171
-10.0258
-10.0354
-10.0459
-10.057
-10.0686
-10.0806
-10.0929
-10.1055
-10.1181
-10.1309
-10.1436
-10.1564
-10.1691
-10.1817
-10.1941
-10.2065
-10.2186
-10.2306
-10.2424
-10.254
-10.2654
-10.2765
-10.2874
-10.298
-9.9939
-9.99408
-9.99469
-9.99594
-9.9981
-10.0014
-10.0059
-10.0117
-10.0188
-10.0269
-10.0359
-10.0458
-10.0564
-10.0676
-10.0792
-10.0911
-10.1032
-10.1155
-10.1279
-10.1403
-10.1527
-10.165
-10.1773
-10.1894
-10.2013
-10.2131
-10.2247
-10.236
-10.2472
-10.258
-10.2687
-10.279
-10.289
-9.99882
-9.99897
-9.99927
-10
-10.0016
-10.0042
-10.0081
-10.0133
-10.0197
-10.0272
-10.0358
-10.0452
-10.0553
-10.0661
-10.0772
-10.0888
-10.1006
-10.1125
-10.1246
-10.1366
-10.1487
-10.1607
-10.1726
-10.1843
-10.1959
-10.2073
-10.2184
-10.2294
-10.24
-10.2504
-10.2606
-10.2704
-10.2799
-10.0038
-10.0039
-10.0037
-10.0038
-10.0046
-10.0065
-10.0096
-10.0141
-10.0199
-10.0269
-10.0349
-10.0439
-10.0536
-10.0639
-10.0748
-10.086
-10.0974
-10.1091
-10.1208
-10.1326
-10.1443
-10.156
-10.1676
-10.179
-10.1902
-10.2012
-10.2119
-10.2224
-10.2327
-10.2426
-10.2523
-10.2616
-10.2706
-10.0089
-10.009
-10.0082
-10.0072
-10.0071
-10.008
-10.0103
-10.0141
-10.0192
-10.0257
-10.0332
-10.0418
-10.0511
-10.0611
-10.0717
-10.0826
-10.0938
-10.1052
-10.1166
-10.1281
-10.1396
-10.151
-10.1622
-10.1733
-10.1842
-10.1948
-10.2052
-10.2153
-10.2251
-10.2346
-10.2438
-10.2527
-10.2612
-10.0145
-10.0145
-10.0127
-10.0105
-10.009
-10.0088
-10.0101
-10.0131
-10.0176
-10.0235
-10.0306
-10.0388
-10.0478
-10.0576
-10.0679
-10.0786
-10.0895
-10.1007
-10.1119
-10.1232
-10.1344
-10.1455
-10.1565
-10.1673
-10.1778
-10.1881
-10.1982
-10.2079
-10.2173
-10.2264
-10.2352
-10.2436
-10.2517
-10.0209
-10.0209
-10.0176
-10.0134
-10.0103
-10.0087
-10.0088
-10.0109
-10.0147
-10.0201
-10.0269
-10.0348
-10.0436
-10.0532
-10.0633
-10.0738
-10.0846
-10.0956
-10.1067
-10.1177
-10.1287
-10.1396
-10.1503
-10.1608
-10.1711
-10.1811
-10.1908
-10.2002
-10.2093
-10.218
-10.2264
-10.2344
-10.242
-10.029
-10.0286
-10.0231
-10.0161
-10.0107
-10.0073
-10.0062
-10.0073
-10.0105
-10.0154
-10.0219
-10.0296
-10.0383
-10.0477
-10.0577
-10.0681
-10.0789
-10.0897
-10.1007
-10.1116
-10.1224
-10.1331
-10.1436
-10.1539
-10.1639
-10.1737
-10.1831
-10.1922
-10.2009
-10.2093
-10.2174
-10.225
-10.2322
-10.04
-10.0388
-10.0293
-10.0184
-10.01
-10.0045
-10.0018
-10.0019
-10.0045
-10.0091
-10.0153
-10.0229
-10.0315
-10.0409
-10.0509
-10.0614
-10.072
-10.0829
-10.0937
-10.1046
-10.1153
-10.1258
-10.1362
-10.1463
-10.1561
-10.1657
-10.1748
-10.1837
-10.1922
-10.2003
-10.208
-10.2153
-10.2222
-10.0565
-10.0528
-10.0365
-10.0198
-10.0077
-9.9995
-9.9951
-9.99426
-9.9963
-10.0006
-10.0068
-10.0143
-10.023
-10.0325
-10.0426
-10.0531
-10.0638
-10.0747
-10.0856
-10.0964
-10.1071
-10.1176
-10.1279
-10.1379
-10.1476
-10.1569
-10.166
-10.1746
-10.1829
-10.1908
-10.1982
-10.2053
-10.212
-10.0846
-10.0735
-10.0439
-10.0188
-10.0022
-9.99097
-9.98489
-9.98329
-9.98501
-9.98925
-9.99547
-10.0032
-10.0121
-10.0218
-10.032
-10.0427
-10.0536
-10.0646
-10.0756
-10.0865
-10.0973
-10.1078
-10.1181
-10.1281
-10.1378
-10.1471
-10.156
-10.1646
-10.1728
-10.1805
-10.1879
-10.1948
-10.2013
-10.1367
-10.1085
-10.0548
-10.0161
-9.99196
-9.97631
-9.9684
-9.96646
-9.96839
-9.97315
-9.9801
-9.98863
-9.99828
-10.0087
-10.0196
-10.0308
-10.0422
-10.0536
-10.065
-10.0762
-10.0871
-10.0978
-10.1082
-10.1183
-10.128
-10.1373
-10.1462
-10.1547
-10.1628
-10.1704
-10.1777
-10.1845
-10.1908
-10.216
-10.1531
-10.071
-10.0203
-9.98397
-9.95792
-9.94467
-9.94003
-9.9402
-9.94403
-9.95088
-9.95986
-9.9703
-9.98171
-9.99378
-10.0062
-10.0189
-10.0315
-10.0441
-10.0564
-10.0684
-10.0802
-10.0915
-10.1024
-10.1129
-10.1229
-10.1325
-10.1416
-10.1502
-10.1583
-10.1659
-10.173
-10.1797
-10.3602
-10.127
-10.0017
-9.9946
-9.98477
-9.97055
-9.96709
-9.96879
-9.97109
-9.97442
-9.97942
-9.9858
-9.99319
-10.0014
-10.0104
-10.0198
-10.0297
-10.0398
-10.05
-10.0602
-10.0703
-10.0803
-10.0901
-10.0997
-10.109
-10.1179
-10.1265
-10.1348
-10.1426
-10.1501
-10.1571
-10.1638
-10.17
-11.3091
-10.0758
-9.4845
-9.41181
-9.43092
-9.47209
-9.53018
-9.58939
-9.64374
-9.69389
-9.74017
-9.78221
-9.82013
-9.85441
-9.88553
-9.91385
-9.9397
-9.96335
-9.98508
-10.0051
-10.0236
-10.0407
-10.0565
-10.0712
-10.0849
-10.0976
-10.1094
-10.1203
-10.1304
-10.1398
-10.1485
-10.1564
-10.1636
-15.075
-12.8644
-11.8514
-11.2319
-10.8142
-10.5662
-10.4034
-10.2797
-10.1877
-10.1241
-10.0816
-10.0534
-10.0356
-10.0256
-10.0215
-10.0216
-10.0247
-10.0301
-10.037
-10.045
-10.0538
-10.0629
-10.0723
-10.0818
-10.0911
-10.1003
-10.1092
-10.1179
-10.1261
-10.134
-10.1416
-10.1487
-10.1555
-1.21509
-5.30194
-7.41372
-8.1769
-8.60825
-8.96887
-9.23694
-9.41602
-9.54255
-9.64091
-9.71916
-9.78105
-9.83075
-9.87188
-9.90675
-9.93676
-9.96294
-9.9861
-10.0068
-10.0256
-10.0426
-10.0583
-10.0726
-10.0859
-10.0982
-10.1096
-10.1201
-10.1299
-10.139
-10.1474
-10.1551
-10.1622
-10.1687
-10.3061
-10.0591
-10.3661
-10.6612
-10.7849
-10.8268
-10.8457
-10.8534
-10.8562
-10.8635
-10.8822
-10.9143
-10.9588
-11.0135
-11.0757
-11.1424
-11.2106
-11.2776
-11.3412
-11.3994
-11.4508
-11.4942
-11.5288
-11.5539
-11.5692
-11.5746
-11.5701
-11.5557
-11.5315
-11.4975
-11.4538
-11.4004
-11.3373
-11.2644
-11.1815
-11.0885
-10.9852
-10.8716
-10.7472
-10.612
-10.4657
-10.3082
-10.1394
-9.95904
-9.76714
-9.56373
-9.34897
-9.12307
-8.88631
-8.63911
-8.38208
-8.11588
-7.84127
-7.55919
-7.27066
-6.9768
-6.67882
-6.378
-6.07568
-5.77323
-5.47202
-5.17343
-4.87877
-4.58932
-4.30625
-4.03066
-3.7635
-3.50561
-3.25769
-3.02029
-2.79384
-2.57862
-2.37478
-2.18239
-2.00136
-1.83154
-1.67267
-1.5244
-1.38637
-1.2581
-1.13911
-1.02891
-0.926996
-0.832836
-0.745914
-0.665749
-0.591852
-0.52378
-0.461074
-0.403384
-0.350211
-0.301431
-0.256175
-0.215159
-0.175836
-0.142284
-0.104847
-0.0818048
-0.0343776
-0.0409453
-10.3543
-10.3423
-10.54
-10.6941
-10.7359
-10.7385
-10.7417
-10.7475
-10.7565
-10.7744
-10.8047
-10.8471
-10.8995
-10.9597
-11.0253
-11.0938
-11.1627
-11.2299
-11.2933
-11.3511
-11.4022
-11.4454
-11.4798
-11.5048
-11.5201
-11.5255
-11.521
-11.5068
-11.4828
-11.449
-11.4054
-11.3522
-11.2893
-11.2165
-11.1339
-11.0411
-10.9382
-10.8249
-10.7009
-10.5662
-10.4205
-10.2636
-10.0955
-9.91612
-9.7253
-9.52312
-9.30974
-9.08541
-8.85039
-8.60512
-8.35018
-8.08623
-7.81403
-7.53449
-7.2486
-6.95746
-6.66226
-6.36425
-6.06472
-5.76502
-5.46649
-5.17047
-4.87826
-4.59109
-4.31013
-4.03645
-3.77099
-3.5146
-3.26795
-3.03162
-2.80602
-2.59146
-2.3881
-2.196
-2.01511
-1.84528
-1.68627
-1.53775
-1.39938
-1.27068
-1.15119
-1.04045
-0.937953
-0.843178
-0.755623
-0.674813
-0.600262
-0.531533
-0.468169
-0.409824
-0.355992
-0.30656
-0.260632
-0.218991
-0.178924
-0.144906
-0.106377
-0.0838595
-0.0332971
-0.0460595
-10.3663
-10.3761
-10.465
-10.5771
-10.6469
-10.6864
-10.7158
-10.7378
-10.7541
-10.7714
-10.7955
-10.8284
-10.8707
-10.9218
-10.9801
-11.0433
-11.1088
-11.1741
-11.2365
-11.2942
-11.3453
-11.3885
-11.423
-11.4482
-11.4639
-11.4695
-11.4655
-11.4517
-11.4281
-11.3947
-11.3515
-11.2987
-11.2362
-11.1638
-11.0816
-10.9893
-10.8868
-10.774
-10.6507
-10.5166
-10.3716
-10.2156
-10.0485
-9.87023
-9.68068
-9.47995
-9.26818
-9.04562
-8.81256
-8.56943
-8.31679
-8.05529
-7.78568
-7.50885
-7.22577
-6.93752
-6.64524
-6.35016
-6.05356
-5.75673
-5.46099
-5.16764
-4.87796
-4.59316
-4.31439
-4.0427
-3.77901
-3.52417
-3.27886
-3.04364
-2.81895
-2.60508
-2.40221
-2.21044
-2.02969
-1.85986
-1.70071
-1.55192
-1.41318
-1.28403
-1.16403
-1.05271
-0.949591
-0.854162
-0.765934
-0.684434
-0.609186
-0.539757
-0.47569
-0.416645
-0.36211
-0.311983
-0.265347
-0.223032
-0.182201
-0.147651
-0.10806
-0.085924
-0.0324177
-0.0509526
-10.3718
-10.3955
-10.4657
-10.5682
-10.6421
-10.681
-10.7046
-10.7224
-10.7377
-10.7556
-10.7804
-10.8136
-10.855
-10.9038
-10.9582
-11.0163
-11.0759
-11.135
-11.1917
-11.2445
-11.2916
-11.3318
-11.3644
-11.3885
-11.4035
-11.4092
-11.4054
-11.3918
-11.3685
-11.3355
-11.2929
-11.2406
-11.1786
-11.1068
-11.0251
-10.9334
-10.8315
-10.7194
-10.5968
-10.4635
-10.3195
-10.1645
-9.99859
-9.82158
-9.63349
-9.43437
-9.22439
-9.00379
-8.77286
-8.53203
-8.28185
-8.02296
-7.75609
-7.48212
-7.20199
-6.91675
-6.62752
-6.3355
-6.04193
-5.74807
-5.45522
-5.16465
-4.87761
-4.59528
-4.31879
-4.04917
-3.78735
-3.53415
-3.29024
-3.05621
-2.83248
-2.61935
-2.41704
-2.22562
-2.04505
-1.87523
-1.71593
-1.56689
-1.42778
-1.29816
-1.17762
-1.0657
-0.961925
-0.865807
-0.776869
-0.694639
-0.61865
-0.548476
-0.483663
-0.423873
-0.368591
-0.317725
-0.270343
-0.227308
-0.185682
-0.150545
-0.109897
-0.088038
-0.0317072
-0.0556672
-10.3786
-10.4105
-10.4694
-10.5489
-10.6108
-10.6479
-10.6743
-10.6974
-10.7188
-10.7413
-10.7682
-10.8012
-10.8406
-10.8859
-10.936
-10.9894
-11.0444
-11.0989
-11.1515
-11.2003
-11.2438
-11.2809
-11.3107
-11.3324
-11.3456
-11.35
-11.3452
-11.3309
-11.3073
-11.2743
-11.2319
-11.1798
-11.1181
-11.0467
-10.9655
-10.8744
-10.7732
-10.6617
-10.5399
-10.4076
-10.2645
-10.1107
-9.94604
-9.77044
-9.58392
-9.38654
-9.17846
-8.95993
-8.73125
-8.49284
-8.24524
-7.98907
-7.72506
-7.45405
-7.17698
-6.89486
-6.60879
-6.31993
-6.02949
-5.73873
-5.44888
-5.1612
-4.8769
-4.59715
-4.32305
-4.05562
-3.79577
-3.5443
-3.3019
-3.06914
-2.84645
-2.63416
-2.43245
-2.24143
-2.06108
-1.8913
-1.7319
-1.58261
-1.44312
-1.31303
-1.19194
-1.07941
-0.974951
-0.878116
-0.788434
-0.705436
-0.628667
-0.557707
-0.492104
-0.431526
-0.375453
-0.323804
-0.275636
-0.231832
-0.189384
-0.153598
-0.111904
-0.0902061
-0.0311895
-0.0601507
-10.3841
-10.4182
-10.4683
-10.532
-10.5874
-10.6265
-10.6563
-10.6821
-10.7056
-10.7294
-10.7563
-10.7881
-10.8252
-10.8673
-10.9137
-10.9629
-11.0135
-11.0636
-11.1119
-11.1567
-11.1966
-11.2306
-11.2577
-11.2772
-11.2885
-11.2914
-11.2854
-11.2703
-11.2461
-11.2127
-11.17
-11.1178
-11.0562
-10.985
-10.9041
-10.8133
-10.7126
-10.6018
-10.4808
-10.3493
-10.2073
-10.0546
-9.89118
-9.71702
-9.5321
-9.33651
-9.1304
-8.914
-8.68764
-8.45171
-8.20676
-7.95339
-7.69232
-7.42437
-7.15044
-6.87153
-6.58872
-6.30313
-6.01595
-5.72838
-5.44166
-5.15699
-4.87556
-4.59851
-4.32693
-4.06181
-3.80404
-3.55443
-3.31365
-3.08227
-2.86072
-2.64933
-2.44831
-2.25776
-2.07768
-1.90798
-1.74851
-1.59901
-1.45915
-1.32861
-1.20697
-1.0938
-0.988654
-0.891079
-0.800623
-0.716826
-0.639241
-0.567456
-0.501024
-0.439615
-0.382712
-0.330234
-0.281239
-0.23662
-0.193323
-0.156826
-0.114099
-0.0924259
-0.0308963
-0.0643346
-10.3879
-10.4218
-10.4661
-10.5195
-10.5691
-10.6076
-10.6383
-10.6652
-10.6902
-10.7153
-10.7427
-10.7739
-10.8094
-10.8489
-10.8919
-10.9372
-10.9835
-11.0293
-11.0733
-11.1141
-11.1504
-11.181
-11.2053
-11.2223
-11.2316
-11.2328
-11.2254
-11.2093
-11.1843
-11.1503
-11.1071
-11.0547
-10.993
-10.9218
-10.8411
-10.7506
-10.6503
-10.54
-10.4196
-10.289
-10.1479
-9.9963
-9.83416
-9.66142
-9.47812
-9.28431
-9.08018
-8.86595
-8.64193
-8.40855
-8.1663
-7.91579
-7.65773
-7.39291
-7.12221
-6.84662
-6.56716
-6.28495
-6.00113
-5.71688
-5.4334
-5.15186
-4.87343
-4.59922
-4.33028
-4.06759
-3.81204
-3.5644
-3.32535
-3.09545
-2.87514
-2.66476
-2.4645
-2.27448
-2.09474
-1.92519
-1.76569
-1.61601
-1.47583
-1.34484
-1.22266
-1.10885
-1.003
-0.904673
-0.813421
-0.728799
-0.650369
-0.577725
-0.510426
-0.448148
-0.390375
-0.337026
-0.287163
-0.241685
-0.19751
-0.160241
-0.116491
-0.0946948
-0.0308535
-0.0681659
-10.3904
-10.4231
-10.4631
-10.5091
-10.5533
-10.5903
-10.6213
-10.649
-10.6751
-10.7011
-10.7287
-10.7591
-10.7929
-10.83
-10.8697
-10.9114
-10.9538
-10.9956
-11.0356
-11.0725
-11.1052
-11.1326
-11.1538
-11.1683
-11.1753
-11.1746
-11.1657
-11.1482
-11.1222
-11.0874
-11.0436
-10.9908
-10.9288
-10.8575
-10.7768
-10.6865
-10.5865
-10.4766
-10.3568
-10.2269
-10.0867
-9.93613
-9.77521
-9.60388
-9.42216
-9.23015
-9.028
-8.81595
-8.59431
-8.36349
-8.12399
-7.8764
-7.6214
-7.35978
-7.0924
-6.8202
-6.54419
-6.26545
-5.9851
-5.70427
-5.42414
-5.14585
-4.87053
-4.59926
-4.33308
-4.07294
-3.81971
-3.57415
-3.33694
-3.10863
-2.88966
-2.68035
-2.48093
-2.29153
-2.11219
-1.94285
-1.78337
-1.63355
-1.49307
-1.36166
-1.23894
-1.12452
-1.01797
-0.918872
-0.826809
-0.741341
-0.66204
-0.588508
-0.520311
-0.457127
-0.398448
-0.344188
-0.293419
-0.247035
-0.201956
-0.163852
-0.119094
-0.0970113
-0.0310827
-0.071605
-10.3916
-10.4229
-10.4594
-10.4999
-10.5396
-10.5748
-10.6055
-10.6335
-10.6601
-10.6864
-10.7139
-10.7434
-10.7756
-10.8103
-10.8471
-10.8853
-10.924
-10.962
-10.9982
-11.0314
-11.0606
-11.0848
-11.1031
-11.115
-11.1198
-11.117
-11.1064
-11.0876
-11.0603
-11.0246
-10.98
-10.9266
-10.8642
-10.7926
-10.7118
-10.6215
-10.5217
-10.4122
-10.2929
-10.1636
-10.0242
-9.87463
-9.71488
-9.54492
-9.36476
-9.17452
-8.97434
-8.76447
-8.54522
-8.31698
-8.08026
-7.83562
-7.58373
-7.32536
-7.06134
-6.79259
-6.5201
-6.2449
-5.96809
-5.69077
-5.41407
-5.13911
-4.86699
-4.59876
-4.33543
-4.07793
-3.82711
-3.58372
-3.34844
-3.1218
-2.90424
-2.69608
-2.49757
-2.30887
-2.13001
-1.96092
-1.80151
-1.65158
-1.51084
-1.37903
-1.2558
-1.14075
-1.0335
-0.933644
-0.840761
-0.754432
-0.674241
-0.599795
-0.530672
-0.46655
-0.406932
-0.351723
-0.300013
-0.252679
-0.206668
-0.167665
-0.121918
-0.0993746
-0.0316016
-0.074616
-10.3918
-10.4216
-10.455
-10.4913
-10.5274
-10.5606
-10.5906
-10.6184
-10.645
-10.6713
-10.6984
-10.7269
-10.7574
-10.7899
-10.8239
-10.8589
-10.8941
-10.9285
-10.961
-10.9906
-11.0164
-11.0374
-11.0529
-11.0622
-11.0647
-11.0599
-11.0476
-11.0272
-10.9988
-10.9619
-10.9166
-10.8625
-10.7995
-10.7276
-10.6466
-10.5563
-10.4565
-10.3473
-10.2283
-10.0996
-9.96099
-9.81239
-9.65377
-9.48513
-9.30651
-9.11801
-8.91979
-8.71209
-8.49522
-8.26957
-8.03563
-7.79395
-7.54519
-7.29009
-7.02947
-6.76421
-6.49527
-6.22366
-5.95044
-5.67668
-5.40347
-5.1319
-4.86304
-4.59791
-4.33749
-4.0827
-3.83436
-3.59322
-3.35993
-3.13501
-2.91891
-2.71198
-2.51446
-2.3265
-2.14815
-1.97938
-1.82007
-1.67006
-1.5291
-1.39691
-1.27318
-1.15753
-1.04959
-0.948961
-0.855251
-0.768051
-0.686952
-0.611573
-0.541499
-0.476411
-0.415822
-0.35963
-0.306947
-0.258621
-0.211653
-0.171687
-0.124969
-0.101785
-0.032423
-0.0771687
-10.3911
-10.4192
-10.4502
-10.4831
-10.5161
-10.5473
-10.5763
-10.6036
-10.6298
-10.6558
-10.6822
-10.7096
-10.7385
-10.7687
-10.8001
-10.8321
-10.864
-10.8949
-10.9239
-10.95
-10.9725
-10.9904
-11.0031
-11.0098
-11.0099
-11.0032
-10.989
-10.9672
-10.9374
-10.8995
-10.8532
-10.7984
-10.7349
-10.6626
-10.5813
-10.4909
-10.3912
-10.2822
-10.1636
-10.0354
-9.8975
-9.74981
-9.5923
-9.42496
-9.24786
-9.06109
-8.86481
-8.65928
-8.44478
-8.22172
-7.99055
-7.75184
-7.50622
-7.2544
-6.99719
-6.73543
-6.47007
-6.20207
-5.93246
-5.66228
-5.3926
-5.12446
-4.85889
-4.5969
-4.33944
-4.0874
-3.84159
-3.60274
-3.37148
-3.14833
-2.93376
-2.72811
-2.53162
-2.34444
-2.16665
-1.99821
-1.83904
-1.68899
-1.54782
-1.41528
-1.29106
-1.17482
-1.06619
-0.964797
-0.870257
-0.782175
-0.700156
-0.623826
-0.55278
-0.4867
-0.425114
-0.367907
-0.31422
-0.264864
-0.216913
-0.175922
-0.128252
-0.104244
-0.0335542
-0.079241
-10.3894
-10.4161
-10.4448
-10.475
-10.5054
-10.5347
-10.5624
-10.5889
-10.6145
-10.6398
-10.6654
-10.6916
-10.7188
-10.7469
-10.7757
-10.8048
-10.8335
-10.8611
-10.8867
-10.9096
-10.9288
-10.9437
-10.9535
-10.9577
-10.9555
-10.9467
-10.9307
-10.9073
-10.8762
-10.8371
-10.7899
-10.7343
-10.6703
-10.5975
-10.516
-10.4254
-10.3258
-10.217
-10.0988
-9.97113
-9.83394
-9.68715
-9.53073
-9.3647
-9.18911
-9.00406
-8.80973
-8.60635
-8.39423
-8.17375
-7.94537
-7.70962
-7.46714
-7.21861
-6.9648
-6.70656
-6.44477
-6.18039
-5.91441
-5.64783
-5.38168
-5.11699
-4.85474
-4.59592
-4.34145
-4.09219
-3.84894
-3.6124
-3.3832
-3.16187
-2.94887
-2.74453
-2.5491
-2.36273
-2.18552
-2.01745
-1.85844
-1.70837
-1.56701
-1.43413
-1.30944
-1.19261
-1.08329
-0.981135
-0.88576
-0.796789
-0.713837
-0.636539
-0.564501
-0.497407
-0.434799
-0.376549
-0.32183
-0.271406
-0.222449
-0.180371
-0.131767
-0.106754
-0.0349963
-0.080819
-10.3868
-10.412
-10.4389
-10.4668
-10.4949
-10.5224
-10.5488
-10.5743
-10.599
-10.6235
-10.648
-10.6729
-10.6983
-10.7243
-10.7507
-10.777
-10.8027
-10.8271
-10.8495
-10.8692
-10.8853
-10.8973
-10.9043
-10.9059
-10.9015
-10.8905
-10.8728
-10.8478
-10.8153
-10.7751
-10.7269
-10.6705
-10.6058
-10.5326
-10.4508
-10.3601
-10.2605
-10.1519
-10.034
-9.90692
-9.77046
-9.62458
-9.46926
-9.30454
-9.13046
-8.94715
-8.75476
-8.55355
-8.34381
-8.12591
-7.90031
-7.66753
-7.42818
-7.18293
-6.93254
-6.6778
-6.4196
-6.15884
-5.89649
-5.63351
-5.37091
-5.10967
-4.85075
-4.59511
-4.34364
-4.09718
-3.8565
-3.6223
-3.39519
-3.17571
-2.9643
-2.76128
-2.56693
-2.3814
-2.20479
-2.03711
-1.87829
-1.7282
-1.58667
-1.45346
-1.3283
-1.21089
-1.10089
-0.997964
-0.901748
-0.811878
-0.727981
-0.6497
-0.576653
-0.508523
-0.444869
-0.385549
-0.329771
-0.278246
-0.228259
-0.185036
-0.135513
-0.109319
-0.0367431
-0.0818998
-10.3834
-10.4072
-10.4323
-10.4582
-10.4844
-10.5101
-10.5352
-10.5595
-10.5833
-10.6067
-10.63
-10.6535
-10.6772
-10.7012
-10.7251
-10.7487
-10.7715
-10.7929
-10.8123
-10.8288
-10.842
-10.8511
-10.8554
-10.8545
-10.8478
-10.8348
-10.8152
-10.7886
-10.7547
-10.7133
-10.6641
-10.6069
-10.5416
-10.4679
-10.3858
-10.295
-10.1954
-10.087
-9.96952
-9.84295
-9.70721
-9.56225
-9.40805
-9.24465
-9.0721
-8.89053
-8.7001
-8.50106
-8.2937
-8.07839
-7.85557
-7.62576
-7.38955
-7.14758
-6.90059
-6.64936
-6.39473
-6.13759
-5.87886
-5.61948
-5.36042
-5.10263
-4.84705
-4.59459
-4.34612
-4.10246
-3.86437
-3.63253
-3.40753
-3.18991
-2.9801
-2.77843
-2.58517
-2.40049
-2.22451
-2.05722
-1.89859
-1.74851
-1.60681
-1.47328
-1.34766
-1.22966
-1.11898
-1.01528
-0.918212
-0.827433
-0.742579
-0.6633
-0.589225
-0.52004
-0.455316
-0.394902
-0.33804
-0.28538
-0.23434
-0.189918
-0.139484
-0.111943
-0.0387819
-0.0824929
-10.379
-10.4016
-10.4251
-10.4493
-10.4737
-10.4979
-10.5215
-10.5446
-10.5672
-10.5894
-10.6115
-10.6335
-10.6554
-10.6774
-10.699
-10.7201
-10.7401
-10.7586
-10.775
-10.7886
-10.7989
-10.8052
-10.8069
-10.8035
-10.7945
-10.7795
-10.7581
-10.7299
-10.6946
-10.652
-10.6018
-10.5438
-10.4778
-10.4037
-10.3212
-10.2303
-10.1307
-10.0225
-9.9054
-9.77939
-9.64439
-9.50036
-9.34729
-9.18521
-9.01421
-8.83438
-8.64592
-8.44906
-8.24409
-8.03137
-7.81134
-7.58449
-7.35141
-7.11271
-6.86912
-6.62139
-6.37032
-6.11679
-5.86167
-5.60588
-5.35035
-5.096
-4.84375
-4.59446
-4.349
-4.10815
-3.87265
-3.64316
-3.42029
-3.20453
-2.99632
-2.79601
-2.60385
-2.42004
-2.24468
-2.07781
-1.91938
-1.76931
-1.62744
-1.49359
-1.3675
-1.24892
-1.13755
-1.03307
-0.935147
-0.843448
-0.757622
-0.67733
-0.602209
-0.531949
-0.466135
-0.404602
-0.34663
-0.292807
-0.240688
-0.195015
-0.143676
-0.114627
-0.0410943
-0.0826197
-10.3739
-10.3952
-10.4173
-10.4399
-10.4627
-10.4854
-10.5076
-10.5294
-10.5508
-10.5718
-10.5924
-10.6129
-10.6331
-10.653
-10.6724
-10.6911
-10.7085
-10.7242
-10.7378
-10.7486
-10.7561
-10.7597
-10.7588
-10.7531
-10.7419
-10.7249
-10.7016
-10.6718
-10.6351
-10.5913
-10.5401
-10.4812
-10.4146
-10.34
-10.2572
-10.1661
-10.0666
-9.95859
-9.84188
-9.71643
-9.58218
-9.43909
-9.28716
-9.12643
-8.95698
-8.77892
-8.59243
-8.39775
-8.19517
-7.98504
-7.76779
-7.54391
-7.31394
-7.07851
-6.83831
-6.59405
-6.34653
-6.09659
-5.84506
-5.59285
-5.34083
-5.08991
-4.84097
-4.59485
-4.35238
-4.11433
-3.88141
-3.65428
-3.43351
-3.21962
-3.01302
-2.81407
-2.62302
-2.44008
-2.26535
-2.09888
-1.94066
-1.7906
-1.64857
-1.51439
-1.38784
-1.26868
-1.15661
-1.05133
-0.952547
-0.859915
-0.773104
-0.691782
-0.615597
-0.544243
-0.477317
-0.414642
-0.355536
-0.30052
-0.247299
-0.200325
-0.148081
-0.117374
-0.043657
-0.0823115
-10.3679
-10.3881
-10.4089
-10.4301
-10.4514
-10.4726
-10.4935
-10.514
-10.534
-10.5537
-10.573
-10.5918
-10.6103
-10.6283
-10.6455
-10.6618
-10.6767
-10.6898
-10.7007
-10.7088
-10.7136
-10.7146
-10.7113
-10.7032
-10.6899
-10.6709
-10.6459
-10.6145
-10.5764
-10.5314
-10.4791
-10.4195
-10.3522
-10.2771
-10.194
-10.1028
-10.0033
-9.89549
-9.77918
-9.6543
-9.52081
-9.37868
-9.2279
-9.06853
-8.90063
-8.72434
-8.53983
-8.34734
-8.14715
-7.93961
-7.72513
-7.5042
-7.27734
-7.04516
-6.80832
-6.56752
-6.32353
-6.07714
-5.82919
-5.58052
-5.332
-5.08448
-4.83882
-4.59584
-4.35635
-4.12108
-3.89073
-3.66594
-3.44728
-3.23524
-3.03025
-2.83265
-2.64271
-2.46062
-2.28653
-2.12047
-1.96245
-1.8124
-1.6702
-1.5357
-1.40868
-1.28891
-1.17614
-1.07007
-0.970403
-0.876826
-0.789015
-0.706647
-0.629381
-0.556913
-0.488854
-0.425015
-0.364751
-0.308515
-0.254167
-0.205847
-0.15269
-0.120186
-0.046442
-0.0816075
-10.3612
-10.3803
-10.3999
-10.4198
-10.4397
-10.4595
-10.4791
-10.4982
-10.517
-10.5353
-10.5531
-10.5704
-10.5871
-10.6032
-10.6183
-10.6323
-10.6448
-10.6554
-10.6637
-10.6693
-10.6716
-10.6701
-10.6645
-10.6542
-10.6387
-10.6178
-10.5911
-10.5581
-10.5187
-10.4724
-10.4192
-10.3587
-10.2908
-10.2152
-10.1318
-10.0405
-9.94105
-9.83344
-9.71752
-9.59323
-9.46051
-9.31934
-9.16973
-9.01172
-8.8454
-8.67088
-8.48836
-8.29805
-8.10025
-7.89529
-7.68357
-7.46557
-7.2418
-7.01285
-6.77935
-6.54198
-6.30148
-6.05863
-5.81421
-5.56905
-5.32398
-5.07983
-4.83743
-4.59757
-4.36101
-4.1285
-3.9007
-3.67823
-3.46165
-3.25145
-3.04805
-2.85179
-2.66294
-2.48171
-2.30824
-2.14259
-1.98476
-1.83471
-1.69234
-1.5575
-1.43
-1.30963
-1.19614
-1.08926
-0.988706
-0.89417
-0.805344
-0.721914
-0.643549
-0.569948
-0.500736
-0.435711
-0.374267
-0.316784
-0.261283
-0.211574
-0.157494
-0.123066
-0.0494173
-0.080553
-10.3538
-10.3719
-10.3904
-10.409
-10.4276
-10.4461
-10.4644
-10.4822
-10.4996
-10.5165
-10.5329
-10.5486
-10.5636
-10.5778
-10.5909
-10.6027
-10.613
-10.6212
-10.6271
-10.6302
-10.6301
-10.6263
-10.6184
-10.6059
-10.5885
-10.5658
-10.5373
-10.5028
-10.462
-10.4146
-10.3604
-10.2991
-10.2305
-10.1545
-10.0708
-9.97938
-9.88003
-9.77265
-9.65715
-9.53346
-9.40153
-9.26134
-9.1129
-8.95627
-8.79152
-8.61878
-8.43824
-8.25012
-8.05469
-7.8523
-7.64334
-7.42825
-7.20754
-6.98178
-6.75159
-6.51762
-6.28058
-6.04121
-5.80028
-5.55859
-5.31693
-5.07611
-4.83692
-4.60013
-4.36648
-4.13669
-3.9114
-3.69122
-3.47669
-3.26831
-3.06647
-2.87153
-2.68376
-2.50338
-2.33051
-2.16524
-2.0076
-1.85754
-1.71498
-1.5798
-1.45181
-1.33083
-1.21661
-1.1089
-1.00744
-0.911933
-0.822076
-0.737567
-0.658086
-0.583334
-0.512949
-0.446718
-0.38407
-0.325317
-0.268636
-0.217499
-0.162477
-0.126014
-0.0525476
-0.0791971
-10.3459
-10.363
-10.3804
-10.3978
-10.4152
-10.4325
-10.4494
-10.466
-10.4821
-10.4976
-10.5125
-10.5266
-10.54
-10.5523
-10.5635
-10.5732
-10.5813
-10.5873
-10.5909
-10.5917
-10.5893
-10.5832
-10.5732
-10.5587
-10.5393
-10.5148
-10.4847
-10.4488
-10.4067
-10.3582
-10.303
-10.2409
-10.1717
-10.0952
-10.0113
-9.91977
-9.82049
-9.71336