/*--------------------------------*- C++ -*----------------------------------*\
  =========                 |
  \\      /  F ield         | OpenFOAM: The Open Source CFD Toolbox
   \\    /   O peration     | Website:  https://openfoam.org
    \\  /    A nd           | Version:  10
     \\/     M anipulation  |
\*---------------------------------------------------------------------------*/
FoamFile
{
    format      ascii;
    class       surfaceScalarField;
    location    "1200";
    object      phi;
}
// * * * * * * * * * * * * * * * * * * * * * * * * * * * * * * * * * * * * * //

dimensions      [0 3 -1 0 0 0 0];

internalField   nonuniform List<scalar> 
13452
(
6.29962e-05
-2.72774e-06
6.37618e-05
-7.65577e-07
6.45325e-05
-7.70746e-07
6.38573e-05
6.7527e-07
6.25158e-05
1.34143e-06
6.1081e-05
1.43482e-06
5.97494e-05
1.33156e-06
5.85557e-05
1.19371e-06
5.74949e-05
1.06084e-06
5.65537e-05
9.41139e-07
5.57167e-05
8.37079e-07
5.49682e-05
7.48504e-07
5.42947e-05
6.73468e-07
5.36852e-05
6.09443e-07
5.31309e-05
5.54325e-07
5.26244e-05
5.06522e-07
5.21596e-05
4.64766e-07
5.17316e-05
4.28036e-07
5.13361e-05
3.9552e-07
5.09695e-05
3.66576e-07
5.06288e-05
3.40696e-07
5.03113e-05
3.17477e-07
5.00147e-05
2.96601e-07
4.97369e-05
2.77822e-07
4.94759e-05
2.6097e-07
4.923e-05
2.45948e-07
4.89972e-05
2.32764e-07
4.87757e-05
2.21544e-07
4.85628e-05
2.12874e-07
4.83556e-05
2.07154e-07
4.81465e-05
2.09136e-07
4.7921e-05
2.25552e-07
2.87018e-07
4.76339e-05
6.28938e-05
-3.63117e-06
6.27372e-05
-6.09066e-07
6.21167e-05
-1.50166e-07
6.23911e-05
4.00834e-07
6.2873e-05
8.59519e-07
6.32659e-05
1.0419e-06
6.35104e-05
1.08712e-06
6.36211e-05
1.08298e-06
6.36284e-05
1.05354e-06
6.35614e-05
1.00812e-06
6.34431e-05
9.55388e-07
6.32902e-05
9.01443e-07
6.31145e-05
8.49164e-07
6.29243e-05
7.99635e-07
6.27254e-05
7.53216e-07
6.25219e-05
7.10012e-07
6.23167e-05
6.69952e-07
6.21119e-05
6.32854e-07
6.19089e-05
5.98499e-07
6.17088e-05
5.66673e-07
6.15123e-05
5.37178e-07
6.132e-05
5.09837e-07
6.1132e-05
4.84506e-07
6.09488e-05
4.61073e-07
6.07703e-05
4.39473e-07
6.05965e-05
4.19697e-07
6.04275e-05
4.01848e-07
6.02629e-05
3.86111e-07
6.01026e-05
3.73211e-07
5.99463e-05
3.63377e-07
5.97937e-05
3.61798e-07
5.96521e-05
3.67119e-07
3.98928e-07
5.95402e-05
6.23344e-05
-2.20419e-06
6.26284e-05
-9.03011e-07
6.27865e-05
-3.08327e-07
6.30959e-05
9.14618e-08
6.34471e-05
5.08324e-07
6.37491e-05
7.39871e-07
6.39951e-05
8.41103e-07
6.419e-05
8.88108e-07
6.43382e-05
9.05372e-07
6.44459e-05
9.00362e-07
6.45204e-05
8.80969e-07
6.45678e-05
8.54035e-07
6.45934e-05
8.23511e-07
6.46016e-05
7.91422e-07
6.45959e-05
7.58972e-07
6.45789e-05
7.26961e-07
6.4553e-05
6.95873e-07
6.45199e-05
6.65965e-07
6.4481e-05
6.37364e-07
6.44376e-05
6.10132e-07
6.43904e-05
5.84289e-07
6.43404e-05
5.59839e-07
6.42882e-05
5.36779e-07
6.42341e-05
5.15123e-07
6.41787e-05
4.94908e-07
6.41222e-05
4.76221e-07
6.40648e-05
4.59239e-07
6.40067e-05
4.4423e-07
6.3948e-05
4.3185e-07
6.38889e-05
4.22532e-07
6.38314e-05
4.19252e-07
6.37783e-05
4.20165e-07
4.30853e-07
6.37464e-05
6.47916e-05
-1.41268e-06
6.47391e-05
-8.50572e-07
6.47873e-05
-3.56514e-07
6.48994e-05
-2.06774e-08
6.50724e-05
3.35319e-07
6.52454e-05
5.66875e-07
6.54027e-05
6.83877e-07
6.55431e-05
7.4768e-07
6.56657e-05
7.82726e-07
6.57705e-05
7.95541e-07
6.58588e-05
7.92697e-07
6.59324e-05
7.80488e-07
6.59931e-05
7.6282e-07
6.60426e-05
7.41837e-07
6.60827e-05
7.18927e-07
6.61146e-05
6.95082e-07
6.61395e-05
6.70974e-07
6.61584e-05
6.47032e-07
6.61722e-05
6.23536e-07
6.61817e-05
6.00677e-07
6.61874e-05
5.78589e-07
6.61898e-05
5.57368e-07
6.61895e-05
5.37098e-07
6.61868e-05
5.17861e-07
6.61819e-05
4.99756e-07
6.61752e-05
4.8292e-07
6.61669e-05
4.67558e-07
6.61572e-05
4.53951e-07
6.61464e-05
4.42607e-07
6.61351e-05
4.33926e-07
6.6125e-05
4.29328e-07
6.61177e-05
4.2741e-07
4.29741e-07
6.61188e-05
6.70182e-05
-9.74108e-07
6.6871e-05
-7.03333e-07
6.68449e-05
-3.30389e-07
6.68727e-05
-4.85659e-08
6.69616e-05
2.46464e-07
6.70705e-05
4.57981e-07
6.71772e-05
5.77118e-07
6.72776e-05
6.47339e-07
6.73702e-05
6.90091e-07
6.74541e-05
7.11634e-07
6.75291e-05
7.17676e-07
6.75958e-05
7.13821e-07
6.76549e-05
7.03732e-07
6.77072e-05
6.89539e-07
6.77534e-05
6.72672e-07
6.77943e-05
6.54175e-07
6.78305e-05
6.34785e-07
6.78626e-05
6.15e-07
6.78909e-05
5.9517e-07
6.79161e-05
5.75546e-07
6.79383e-05
5.56317e-07
6.79581e-05
5.3763e-07
6.79756e-05
5.19608e-07
6.79911e-05
5.02371e-07
6.80048e-05
4.86044e-07
6.80169e-05
4.7078e-07
6.80277e-05
4.56778e-07
6.80374e-05
4.4428e-07
6.80463e-05
4.3364e-07
6.80551e-05
4.25128e-07
6.80651e-05
4.19307e-07
6.80773e-05
4.15262e-07
4.13286e-07
6.80937e-05
6.9089e-05
-6.79065e-07
6.89436e-05
-5.57915e-07
6.89005e-05
-2.87326e-07
6.89039e-05
-5.19472e-08
6.89554e-05
1.9499e-07
6.90296e-05
3.83714e-07
6.91068e-05
4.9993e-07
6.91816e-05
5.7251e-07
6.92529e-05
6.18832e-07
6.93195e-05
6.45026e-07
6.93809e-05
6.56263e-07
6.94372e-05
6.57503e-07
6.94888e-05
6.52142e-07
6.95361e-05
6.42272e-07
6.95794e-05
6.29329e-07
6.96192e-05
6.1437e-07
6.96559e-05
5.98155e-07
6.96896e-05
5.81216e-07
6.97209e-05
5.63937e-07
6.97498e-05
5.46601e-07
6.97767e-05
5.29426e-07
6.98018e-05
5.12583e-07
6.98252e-05
4.96217e-07
6.98471e-05
4.80461e-07
6.98677e-05
4.65449e-07
6.98871e-05
4.51327e-07
6.99056e-05
4.38265e-07
6.99235e-05
4.2645e-07
6.9941e-05
4.16101e-07
6.99588e-05
4.0735e-07
6.99777e-05
4.00337e-07
6.99986e-05
3.94446e-07
3.89495e-07
7.00223e-05
7.11537e-05
-4.66398e-07
7.10276e-05
-4.31897e-07
7.09799e-05
-2.39551e-07
7.09725e-05
-4.46059e-08
7.10041e-05
1.63429e-07
7.10575e-05
3.3029e-07
7.11166e-05
4.4085e-07
7.11757e-05
5.13389e-07
7.12334e-05
5.61188e-07
7.12884e-05
5.89996e-07
7.13401e-05
6.04534e-07
7.13884e-05
6.09174e-07
7.14336e-05
6.07035e-07
7.14757e-05
6.00151e-07
7.1515e-05
5.89949e-07
7.15519e-05
5.77484e-07
7.15866e-05
5.63522e-07
7.16192e-05
5.48617e-07
7.16499e-05
5.33172e-07
7.1679e-05
5.1749e-07
7.17067e-05
5.01805e-07
7.17329e-05
4.86303e-07
7.1758e-05
4.71137e-07
7.1782e-05
4.56446e-07
7.18051e-05
4.42358e-07
7.18274e-05
4.29004e-07
7.18492e-05
4.16517e-07
7.18706e-05
4.05025e-07
7.18921e-05
3.94641e-07
7.1914e-05
3.85393e-07
7.19372e-05
3.7722e-07
7.19619e-05
3.69669e-07
3.62386e-07
7.1989e-05
7.32523e-05
-3.13447e-07
7.31445e-05
-3.24123e-07
7.30947e-05
-1.89718e-07
7.30807e-05
-3.06175e-08
7.31e-05
1.44165e-07
7.31397e-05
2.90563e-07
7.31868e-05
3.93762e-07
7.32357e-05
4.64511e-07
7.32844e-05
5.12453e-07
7.33317e-05
5.42662e-07
7.33769e-05
5.59372e-07
7.34197e-05
5.66416e-07
7.34601e-05
5.66631e-07
7.34983e-05
5.61964e-07
7.35344e-05
5.53817e-07
7.35686e-05
5.43231e-07
7.36012e-05
5.30974e-07
7.36322e-05
5.17608e-07
7.36618e-05
5.03551e-07
7.36902e-05
4.89119e-07
7.37174e-05
4.74556e-07
7.37437e-05
4.60055e-07
7.3769e-05
4.45775e-07
7.37936e-05
4.3185e-07
7.38176e-05
4.18401e-07
7.38411e-05
4.05537e-07
7.38642e-05
3.93355e-07
7.38873e-05
3.81931e-07
7.39107e-05
3.71304e-07
7.39346e-05
3.6143e-07
7.39597e-05
3.52163e-07
7.39862e-05
3.43135e-07
3.3395e-07
7.40146e-05
7.53941e-05
-2.05084e-07
7.53032e-05
-2.33218e-07
7.52536e-05
-1.40165e-07
7.52353e-05
-1.23119e-08
7.52461e-05
1.33396e-07
7.5276e-05
2.60705e-07
7.53143e-05
3.55439e-07
7.53558e-05
4.23032e-07
7.53981e-05
4.7008e-07
7.544e-05
5.00798e-07
7.54805e-05
5.18868e-07
7.55193e-05
5.27616e-07
7.55563e-05
5.29594e-07
7.55917e-05
5.26637e-07
7.56254e-05
5.201e-07
7.56576e-05
5.10999e-07
7.56885e-05
5.00094e-07
7.57181e-05
4.87951e-07
7.57467e-05
4.74996e-07
7.57743e-05
4.6155e-07
7.5801e-05
4.47866e-07
7.58269e-05
4.34139e-07
7.58521e-05
4.20528e-07
7.58768e-05
4.07163e-07
7.59011e-05
3.94153e-07
7.5925e-05
3.81584e-07
7.59488e-05
3.69525e-07
7.59728e-05
3.58011e-07
7.5997e-05
3.47031e-07
7.6022e-05
3.36499e-07
7.60479e-05
3.26239e-07
7.60751e-05
3.15939e-07
3.0522e-07
7.61038e-05
7.7584e-05
-1.29489e-07
7.75094e-05
-1.58587e-07
7.74625e-05
-9.33468e-08
7.74418e-05
8.40572e-09
7.74464e-05
1.28805e-07
7.74687e-05
2.38419e-07
7.75001e-05
3.24023e-07
7.75357e-05
3.87392e-07
7.75731e-05
4.32673e-07
7.76108e-05
4.63149e-07
7.76478e-05
4.81912e-07
7.76836e-05
4.91799e-07
7.77181e-05
4.95075e-07
7.77513e-05
4.93441e-07
7.77832e-05
4.88183e-07
7.78139e-05
4.80281e-07
7.78435e-05
4.70478e-07
7.78722e-05
4.59336e-07
7.78999e-05
4.47281e-07
7.79268e-05
4.34639e-07
7.7953e-05
4.21664e-07
7.79786e-05
4.08553e-07
7.80036e-05
3.95461e-07
7.80283e-05
3.82511e-07
7.80526e-05
3.69801e-07
7.80768e-05
3.574e-07
7.8101e-05
3.45351e-07
7.81253e-05
3.33661e-07
7.81501e-05
3.22288e-07
7.81755e-05
3.11129e-07
7.82017e-05
3.00005e-07
7.8229e-05
2.88649e-07
2.76728e-07
7.82575e-05
7.98265e-05
-7.76259e-08
7.97671e-05
-9.92246e-08
7.97251e-05
-5.13143e-08
7.97037e-05
2.97313e-08
7.9704e-05
1.2857e-07
7.97203e-05
2.22036e-07
7.97461e-05
2.98247e-07
7.97769e-05
3.56612e-07
7.98102e-05
3.99394e-07
7.98444e-05
4.28974e-07
7.98784e-05
4.47844e-07
7.99118e-05
4.58377e-07
7.99444e-05
4.62551e-07
7.99759e-05
4.6191e-07
8.00064e-05
4.57656e-07
8.0036e-05
4.50721e-07
8.00646e-05
4.41822e-07
8.00925e-05
4.31508e-07
8.01195e-05
4.20201e-07
8.0146e-05
4.08226e-07
8.01718e-05
3.95835e-07
8.01971e-05
3.83223e-07
8.0222e-05
3.70541e-07
8.02466e-05
3.57907e-07
8.0271e-05
3.45404e-07
8.02953e-05
3.33089e-07
8.03197e-05
3.20987e-07
8.03443e-05
3.09085e-07
8.03692e-05
2.9733e-07
8.03948e-05
2.85613e-07
8.0421e-05
2.73769e-07
8.04481e-05
2.61572e-07
2.48749e-07
8.0476e-05
8.21255e-05
-4.26931e-08
8.20798e-05
-5.35006e-08
8.20439e-05
-1.54195e-08
8.20236e-05
5.0005e-08
8.20212e-05
1.3103e-07
8.20331e-05
2.10119e-07
8.20542e-05
2.77073e-07
8.20809e-05
3.29953e-07
8.21106e-05
3.69663e-07
8.21418e-05
3.97788e-07
8.21734e-05
4.16249e-07
8.22048e-05
4.26988e-07
8.22357e-05
4.31695e-07
8.22658e-05
4.31751e-07
8.22952e-05
4.28257e-07
8.23238e-05
4.22086e-07
8.23518e-05
4.13921e-07
8.2379e-05
4.0429e-07
8.24056e-05
3.93606e-07
8.24316e-05
3.82187e-07
8.24572e-05
3.70281e-07
8.24823e-05
3.58079e-07
8.25071e-05
3.45728e-07
8.25317e-05
3.33335e-07
8.25561e-05
3.20978e-07
8.25805e-05
3.08702e-07
8.2605e-05
2.96519e-07
8.26296e-05
2.84409e-07
8.26547e-05
2.72313e-07
8.26801e-05
2.60127e-07
8.27062e-05
2.4771e-07
8.27329e-05
2.34876e-07
2.21407e-07
8.27602e-05
8.44847e-05
-1.96259e-08
8.44506e-05
-1.94047e-08
8.44214e-05
1.37539e-08
8.44035e-05
6.78989e-08
8.43999e-05
1.34682e-07
8.44087e-05
2.01341e-07
8.44262e-05
2.59535e-07
8.44494e-05
3.0675e-07
8.44761e-05
3.42996e-07
8.45046e-05
3.69216e-07
8.45341e-05
3.86828e-07
8.45637e-05
3.9738e-07
8.45931e-05
4.02291e-07
8.46221e-05
4.02771e-07
8.46505e-05
3.99812e-07
8.46784e-05
3.9422e-07
8.47056e-05
3.86633e-07
8.47324e-05
3.77557e-07
8.47586e-05
3.67386e-07
8.47844e-05
3.5643e-07
8.48097e-05
3.44928e-07
8.48347e-05
3.33067e-07
8.48595e-05
3.20985e-07
8.4884e-05
3.08786e-07
8.49085e-05
2.96537e-07
8.49329e-05
2.84276e-07
8.49574e-05
2.72011e-07
8.49821e-05
2.59718e-07
8.50071e-05
2.47339e-07
8.50324e-05
2.34785e-07
8.50582e-05
2.21937e-07
8.50844e-05
2.08649e-07
1.94755e-07
8.5111e-05
8.69073e-05
-4.7277e-09
8.68827e-05
5.16466e-09
8.68602e-05
3.6286e-08
8.68455e-05
8.25396e-08
8.68419e-05
1.38263e-07
8.68488e-05
1.94489e-07
8.68636e-05
2.44706e-07
8.6884e-05
2.8635e-07
8.69081e-05
3.18931e-07
8.69344e-05
3.42922e-07
8.69619e-05
3.59329e-07
8.69899e-05
3.69358e-07
8.7018e-05
3.74179e-07
8.70459e-05
3.74833e-07
8.70736e-05
3.72202e-07
8.71008e-05
3.67016e-07
8.71275e-05
3.59867e-07
8.71539e-05
3.51227e-07
8.71798e-05
3.41471e-07
8.72053e-05
3.30896e-07
8.72305e-05
3.19731e-07
8.72554e-05
3.08153e-07
8.72801e-05
2.96295e-07
8.73046e-05
2.84255e-07
8.73291e-05
2.72093e-07
8.73535e-05
2.59845e-07
8.7378e-05
2.47513e-07
8.74026e-05
2.35077e-07
8.74275e-05
2.22485e-07
8.74526e-05
2.09665e-07
8.7478e-05
1.9652e-07
8.75037e-05
1.82941e-07
1.68801e-07
8.75297e-05
8.93962e-05
4.63842e-09
8.93791e-05
2.21962e-08
8.93627e-05
5.27381e-08
8.93517e-05
9.35329e-08
8.93491e-05
1.40839e-07
8.93551e-05
1.88527e-07
8.93681e-05
2.31715e-07
8.93863e-05
2.68106e-07
8.94082e-05
2.97e-07
8.94326e-05
3.1857e-07
8.94584e-05
3.33509e-07
8.9485e-05
3.4274e-07
8.9512e-05
3.47217e-07
8.9539e-05
3.47824e-07
8.95659e-05
3.45332e-07
8.95925e-05
3.40395e-07
8.96188e-05
3.33552e-07
8.96448e-05
3.2524e-07
8.96704e-05
3.15812e-07
8.96958e-05
3.05545e-07
8.97209e-05
2.94658e-07
8.97457e-05
2.83318e-07
8.97703e-05
2.71651e-07
8.97948e-05
2.59748e-07
8.98193e-05
2.47668e-07
8.98437e-05
2.3544e-07
8.98681e-05
2.2307e-07
8.98927e-05
2.1054e-07
8.99173e-05
1.9781e-07
8.99422e-05
1.84822e-07
8.99672e-05
1.71504e-07
8.99924e-05
1.57771e-07
1.43539e-07
9.00176e-05
9.19542e-05
1.03116e-08
9.19429e-05
3.34396e-08
9.19317e-05
6.39435e-08
9.19244e-05
1.00892e-07
9.19234e-05
1.41833e-07
9.19293e-05
1.82649e-07
9.19412e-05
2.19805e-07
9.19579e-05
2.51406e-07
9.19781e-05
2.7674e-07
9.20009e-05
2.9582e-07
9.20253e-05
3.09121e-07
9.20507e-05
3.17348e-07
9.20766e-05
3.21275e-07
9.21028e-05
3.21644e-07
9.2129e-05
3.19124e-07
9.21551e-05
3.14293e-07
9.2181e-05
3.07637e-07
9.22067e-05
2.99557e-07
9.22321e-05
2.90376e-07
9.22573e-05
2.80353e-07
9.22823e-05
2.69694e-07
9.2307e-05
2.58556e-07
9.23316e-05
2.47056e-07
9.23561e-05
2.3528e-07
9.23805e-05
2.23284e-07
9.24048e-05
2.11096e-07
9.24292e-05
1.98724e-07
9.24536e-05
1.86156e-07
9.2478e-05
1.73362e-07
9.25025e-05
1.603e-07
9.25271e-05
1.46915e-07
9.25517e-05
1.33153e-07
1.18954e-07
9.25763e-05
9.45839e-05
1.35518e-08
9.4577e-05
4.0358e-08
9.45701e-05
7.08377e-08
9.45661e-05
1.04925e-07
9.45669e-05
1.40998e-07
9.45732e-05
1.76313e-07
9.45847e-05
2.08373e-07
9.46004e-05
2.35714e-07
9.46194e-05
2.57717e-07
9.46409e-05
2.74338e-07
9.46641e-05
2.85915e-07
9.46884e-05
2.92998e-07
9.47135e-05
2.96216e-07
9.47389e-05
2.96192e-07
9.47646e-05
2.93502e-07
9.47902e-05
2.88653e-07
9.48157e-05
2.8208e-07
9.48412e-05
2.74143e-07
9.48664e-05
2.65138e-07
9.48914e-05
2.55306e-07
9.49163e-05
2.44833e-07
9.4941e-05
2.33869e-07
9.49655e-05
2.22521e-07
9.49899e-05
2.1087e-07
9.50143e-05
1.98969e-07
9.50385e-05
1.86847e-07
9.50627e-05
1.74515e-07
9.50869e-05
1.61966e-07
9.51111e-05
1.49182e-07
9.51353e-05
1.3613e-07
9.51594e-05
1.2278e-07
9.51834e-05
1.09092e-07
9.50301e-08
9.52074e-05
9.72879e-05
1.52097e-08
9.72841e-05
4.41278e-08
9.72806e-05
7.43402e-08
9.72794e-05
1.06116e-07
9.7282e-05
1.38357e-07
9.72891e-05
1.6923e-07
9.73005e-05
1.97006e-07
9.73156e-05
2.20607e-07
9.73337e-05
2.39558e-07
9.73543e-05
2.53819e-07
9.73765e-05
2.63657e-07
9.74e-05
2.69514e-07
9.74243e-05
2.7191e-07
9.74491e-05
2.71372e-07
9.74742e-05
2.68395e-07
9.74995e-05
2.63424e-07
9.75247e-05
2.56842e-07
9.75499e-05
2.48973e-07
9.75749e-05
2.40085e-07
9.75998e-05
2.30395e-07
9.76246e-05
2.20077e-07
9.76492e-05
2.09265e-07
9.76737e-05
1.98062e-07
9.7698e-05
1.86541e-07
9.77222e-05
1.74753e-07
9.77463e-05
1.62728e-07
9.77704e-05
1.5048e-07
9.77943e-05
1.38007e-07
9.78182e-05
1.25301e-07
9.7842e-05
1.12343e-07
9.78656e-05
9.91134e-08
9.78891e-05
8.55896e-08
7.17553e-08
9.79124e-05
0.000100068
1.58543e-08
0.000100067
4.56697e-08
0.000100066
7.52878e-08
0.000100067
1.05029e-07
0.000100071
1.34122e-07
0.000100079
1.61332e-07
0.000100091
1.85476e-07
0.000100105
2.05802e-07
0.000100123
2.21983e-07
0.000100143
2.34019e-07
0.000100164
2.42145e-07
0.000100187
2.46738e-07
0.000100211
2.48238e-07
0.000100235
2.47096e-07
0.00010026
2.43742e-07
0.000100285
2.38562e-07
0.00010031
2.31895e-07
0.000100335
2.24031e-07
0.000100359
2.15208e-07
0.000100384
2.05623e-07
0.000100409
1.95432e-07
0.000100433
1.8476e-07
0.000100458
1.73699e-07
0.000100482
1.62318e-07
0.000100506
1.50665e-07
0.00010053
1.38772e-07
0.000100554
1.26652e-07
0.000100577
1.14313e-07
0.000100601
1.0175e-07
0.000100624
8.89598e-08
0.000100648
7.59284e-08
0.000100671
6.26509e-08
4.91164e-08
0.000100693
0.000102928
1.58658e-08
0.000102928
4.56946e-08
0.000102929
7.44092e-08
0.000102932
1.02244e-07
0.000102937
1.28628e-07
0.000102946
1.5272e-07
0.000102958
1.73729e-07
0.000102972
1.91159e-07
0.000102989
2.04821e-07
0.000103009
2.14769e-07
0.00010303
2.21233e-07
0.000103052
2.24551e-07
0.000103075
2.25108e-07
0.000103099
2.23297e-07
0.000103123
2.19493e-07
0.000103147
2.14035e-07
0.000103172
2.07221e-07
0.000103197
1.99308e-07
0.000103221
1.90507e-07
0.000103246
1.80996e-07
0.000103271
1.70914e-07
0.000103295
1.60372e-07
0.000103319
1.49456e-07
0.000103343
1.3823e-07
0.000103367
1.26737e-07
0.000103391
1.1501e-07
0.000103415
1.03065e-07
0.000103438
9.09127e-08
0.000103461
7.85571e-08
0.000103484
6.59996e-08
0.000103507
5.32384e-08
0.000103529
4.02739e-08
2.71041e-08
0.000103551
0.000105869
1.55011e-08
0.00010587
4.47495e-08
0.000105872
7.23261e-08
0.000105876
9.83161e-08
0.000105882
1.22273e-07
0.000105891
1.4362e-07
0.000105903
1.6185e-07
0.000105918
1.7667e-07
0.000105935
1.88013e-07
0.000105953
1.9599e-07
0.000105974
2.00842e-07
0.000105996
2.02885e-07
0.000106018
2.02467e-07
0.000106042
1.99937e-07
0.000106065
1.95625e-07
0.00010609
1.89831e-07
0.000106114
1.82817e-07
0.000106138
1.74809e-07
0.000106163
1.65996e-07
0.000106187
1.56532e-07
0.000106212
1.46542e-07
0.000106236
1.36127e-07
0.00010626
1.25363e-07
0.000106284
1.14305e-07
0.000106308
1.02999e-07
0.000106331
9.14717e-08
0.000106355
7.97461e-08
0.000106378
6.78314e-08
0.000106401
5.57415e-08
0.000106423
4.34768e-08
0.000106445
3.10481e-08
0.000106467
1.84546e-08
5.70628e-09
0.000106489
0.000108894
1.49395e-08
0.000108895
4.32652e-08
0.000108898
6.95719e-08
0.000108903
9.37708e-08
0.00010891
1.15491e-07
0.000108919
1.34345e-07
0.000108931
1.50041e-07
0.000108945
1.6245e-07
0.000108961
1.71613e-07
0.00010898
1.77702e-07
0.000108999
1.80975e-07
0.000109021
1.81737e-07
0.000109043
1.80313e-07
0.000109066
1.77017e-07
0.000109089
1.72146e-07
0.000109113
1.65963e-07
0.000109137
1.58701e-07
0.000109161
1.50557e-07
0.000109186
1.41697e-07
0.00010921
1.32256e-07
0.000109234
1.22346e-07
0.000109258
1.12053e-07
0.000109282
1.01444e-07
0.000109306
9.05735e-08
0.000109329
7.94768e-08
0.000109353
6.81854e-08
0.000109376
5.67173e-08
0.000109398
4.50907e-08
0.000109421
3.33136e-08
0.000109443
2.13991e-08
0.000109465
9.35284e-09
0.000109486
-2.81398e-09
-1.50938e-08
0.000109507
0.000112005
1.43151e-08
0.000112007
4.15983e-08
0.00011201
6.66222e-08
0.000112014
8.91116e-08
0.000112021
1.08742e-07
0.00011203
1.25276e-07
0.000112042
1.38594e-07
0.000112055
1.48715e-07
0.000112071
1.55779e-07
0.000112089
1.60018e-07
0.000112108
1.61714e-07
0.000112129
1.61172e-07
0.00011215
1.587e-07
0.000112173
1.54587e-07
0.000112196
1.49099e-07
0.000112219
1.42472e-07
0.000112243
1.34911e-07
0.000112267
1.26587e-07
0.000112291
1.17645e-07
0.000112315
1.08202e-07
0.000112339
9.83551e-08
0.000112363
8.81776e-08
0.000112387
7.77302e-08
0.00011241
6.70568e-08
0.000112434
5.61935e-08
0.000112457
4.5166e-08
0.000112479
3.39944e-08
0.000112502
2.2694e-08
0.000112524
1.12778e-08
0.000112545
-2.42717e-10
0.000112567
-1.18563e-08
0.000112587
-2.35526e-08
-3.53211e-08
0.000112608
0.000115205
1.37406e-08
0.000115207
4.00718e-08
0.000115209
6.39331e-08
0.000115214
8.48474e-08
0.00011522
1.02524e-07
0.000115228
1.1686e-07
0.000115239
1.27892e-07
0.000115252
1.35779e-07
0.000115267
1.40764e-07
0.000115284
1.43142e-07
0.000115302
1.43224e-07
0.000115322
1.41323e-07
0.000115343
1.37737e-07
0.000115365
1.32736e-07
0.000115387
1.26562e-07
0.00011541
1.19425e-07
0.000115434
1.11503e-07
0.000115457
1.02947e-07
0.000115481
9.38809e-08
0.000115505
8.44038e-08
0.000115529
7.45974e-08
0.000115552
6.45244e-08
0.000115576
5.4236e-08
0.000115599
4.37691e-08
0.000115622
3.3156e-08
0.000115645
2.24165e-08
0.000115667
1.15714e-08
0.000115689
6.32774e-10
0.000115711
-1.03842e-08
0.000115732
-2.14696e-08
0.000115753
-3.26097e-08
0.000115773
-4.37955e-08
-5.50136e-08
0.000115793
0.000118496
1.33272e-08
0.000118497
3.90196e-08
0.000118499
6.19914e-08
0.000118503
8.15381e-08
0.000118508
9.74051e-08
0.000118515
1.09629e-07
0.000118524
1.1841e-07
0.000118536
1.24054e-07
0.00011855
1.26917e-07
0.000118566
1.27362e-07
0.000118583
1.25744e-07
0.000118602
1.22387e-07
0.000118622
1.17585e-07
0.000118643
1.11595e-07
0.000118665
1.04638e-07
0.000118688
9.69013e-08
0.000118711
8.85413e-08
0.000118734
7.96862e-08
0.000118758
7.04386e-08
0.000118781
6.0884e-08
0.000118805
5.10856e-08
0.000118828
4.10984e-08
0.000118851
3.09583e-08
0.000118874
2.07013e-08
0.000118897
1.03453e-08
0.00011892
-8.60617e-11
0.000118942
-1.05833e-08
0.000118964
-2.11287e-08
0.000118985
-3.17159e-08
0.000119006
-4.2329e-08
0.000119026
-5.29619e-08
0.000119046
-6.35997e-08
-7.42365e-08
0.000119065
0.000121881
1.32058e-08
0.000121882
3.88389e-08
0.000121882
6.13807e-08
0.000121884
7.98582e-08
0.000121887
9.4076e-08
0.000121893
1.04241e-07
0.0001219
1.10745e-07
0.00012191
1.14063e-07
0.000121922
1.14681e-07
0.000121937
1.13052e-07
0.000121953
1.09577e-07
0.000121971
1.04606e-07
0.00012199
9.84332e-08
0.00012201
9.13078e-08
0.000122031
8.34336e-08
0.000122053
7.49774e-08
0.000122076
6.60736e-08
0.000122099
5.68277e-08
0.000122122
4.73263e-08
0.000122145
3.76328e-08
0.000122168
2.78004e-08
0.000122192
1.7865e-08
0.000122215
7.85872e-09
0.000122238
-2.20023e-09
0.00012226
-1.22925e-08
0.000122282
-2.2409e-08
0.000122304
-3.25363e-08
0.000122326
-4.26688e-08
0.000122347
-5.27945e-08
0.000122368
-6.29085e-08
0.000122388
-7.29986e-08
0.000122407
-8.30596e-08
-9.30814e-08
0.000122426
0.000125363
1.35562e-08
0.000125362
4.00682e-08
0.00012536
6.28797e-08
0.00012536
8.06937e-08
0.00012536
9.34338e-08
0.000125363
1.01542e-07
0.000125368
1.05652e-07
0.000125376
1.06455e-07
0.000125386
1.046e-07
0.000125398
1.00647e-07
0.000125413
9.50665e-08
0.000125429
8.82384e-08
0.000125447
8.04693e-08
0.000125466
7.20013e-08
0.000125487
6.30245e-08
0.000125508
5.36856e-08
0.00012553
4.40966e-08
0.000125552
3.4344e-08
0.000125575
2.44901e-08
0.000125598
1.4583e-08
0.000125621
4.65596e-09
0.000125645
-5.26724e-09
0.000125668
-1.51705e-08
0.00012569
-2.50431e-08
0.000125713
-3.48782e-08
0.000125735
-4.46705e-08
0.000125757
-5.44166e-08
0.000125779
-6.41125e-08
0.0001258
-7.37545e-08
0.00012582
-8.33378e-08
0.00012584
-9.28574e-08
0.000125859
-1.02308e-07
-1.11685e-07
0.000125878
0.000128944
1.46548e-08
0.000128941
4.3511e-08
0.000128936
6.76115e-08
0.000128931
8.52832e-08
0.000128928
9.6696e-08
0.000128927
1.02642e-07
0.000128928
1.0409e-07
0.000128933
1.02021e-07
0.00012894
9.72972e-08
0.00012895
9.06222e-08
0.000128963
8.25501e-08
0.000128977
7.35082e-08
0.000128994
6.38194e-08
0.000129012
5.37233e-08
0.000129032
4.33946e-08
0.000129053
3.29605e-08
0.000129074
2.25085e-08
0.000129097
1.21013e-08
0.000129119
1.77702e-09
0.000129142
-8.43645e-09
0.000129165
-1.85285e-08
0.000129189
-2.849e-08
0.000129212
-3.8323e-08
0.000129235
-4.80274e-08
0.000129258
-5.76097e-08
0.00012928
-6.70726e-08
0.000129302
-7.64223e-08
0.000129324
-8.56608e-08
0.000129345
-9.47916e-08
0.000129365
-1.03814e-07
0.000129385
-1.1273e-07
0.000129404
-1.21536e-07
-1.30234e-07
0.000129423
0.000132627
1.69662e-08
0.00013262
5.04517e-08
0.00013261
7.72855e-08
0.0001326
9.54283e-08
0.000132591
1.05555e-07
0.000132585
1.09009e-07
0.000132582
1.07251e-07
0.000132582
1.01673e-07
0.000132586
9.34286e-08
0.000132593
8.34061e-08
0.000132603
7.22704e-08
0.000132616
6.05061e-08
0.000132632
4.84555e-08
0.000132649
3.63533e-08
0.000132668
2.43568e-08
0.000132688
1.2564e-08
0.00013271
1.0369e-09
0.000132732
-1.01973e-08
0.000132755
-2.11227e-08
0.000132778
-3.17466e-08
0.000132802
-4.20744e-08
0.000132826
-5.21269e-08
0.000132849
-6.19168e-08
0.000132873
-7.14682e-08
0.000132896
-8.07945e-08
0.000132919
-8.99172e-08
0.000132941
-9.8847e-08
0.000132963
-1.07601e-07
0.000132984
-1.16184e-07
0.000133005
-1.2461e-07
0.000133025
-1.32879e-07
0.000133045
-1.41001e-07
-1.48976e-07
0.000133064
0.000136414
2.13264e-08
0.000136401
6.30466e-08
0.000136384
9.45881e-08
0.000136366
1.13792e-07
0.000136349
1.22359e-07
0.000136335
1.22529e-07
0.000136326
1.16526e-07
0.000136321
1.06347e-07
0.000136321
9.35414e-08
0.000136325
7.92335e-08
0.000136333
6.42194e-08
0.000136345
4.90426e-08
0.000136359
3.4058e-08
0.000136376
1.94821e-08
0.000136395
5.44053e-09
0.000136416
-8.00792e-09
0.000136438
-2.08447e-08
0.00013646
-3.30801e-08
0.000136484
-4.47415e-08
0.000136508
-5.58653e-08
0.000136533
-6.64936e-08
0.000136557
-7.66681e-08
0.000136582
-8.64317e-08
0.000136606
-9.58222e-08
0.00013663
-1.04877e-07
0.000136654
-1.13627e-07
0.000136677
-1.22101e-07
0.0001367
-1.30321e-07
0.000136722
-1.38311e-07
0.000136743
-1.46083e-07
0.000136764
-1.53654e-07
0.000136784
-1.61033e-07
-1.68231e-07
0.000136803
0.000140308
2.93257e-08
0.000140286
8.50482e-08
0.000140257
1.23808e-07
0.000140226
1.44291e-07
0.000140198
1.50265e-07
0.000140175
1.4546e-07
0.000140158
1.33325e-07
0.000140148
1.1675e-07
0.000140144
9.78042e-08
0.000140145
7.78786e-08
0.000140151
5.78958e-08
0.000140162
3.8437e-08
0.000140176
1.98333e-08
0.000140193
2.25679e-09
0.000140213
-1.42335e-08
0.000140235
-2.96365e-08
0.000140258
-4.40017e-08
0.000140282
-5.73912e-08
0.000140307
-6.98888e-08
0.000140333
-8.15714e-08
0.000140359
-9.25248e-08
0.000140385
-1.02821e-07
0.000140411
-1.12535e-07
0.000140437
-1.21727e-07
0.000140463
-1.30458e-07
0.000140488
-1.38775e-07
0.000140513
-1.46725e-07
0.000140537
-1.54341e-07
0.00014056
-1.61659e-07
0.000140583
-1.68702e-07
0.000140604
-1.75495e-07
0.000140625
-1.82055e-07
-1.884e-07
0.000140646
0.00014431
4.41691e-08
0.000144272
1.23136e-07
0.000144224
1.71765e-07
0.000144175
1.92505e-07
0.000144133
1.93205e-07
0.000144098
1.80097e-07
0.000144073
1.58599e-07
0.000144057
1.32866e-07
0.000144049
1.05548e-07
0.000144048
7.82592e-08
0.000144054
5.19808e-08
0.000144065
2.72489e-08
0.000144081
4.30526e-09
0.0001441
-1.67938e-08
0.000144122
-3.60913e-08
0.000144146
-5.36951e-08
0.000144172
-6.97368e-08
0.000144199
-8.4366e-08
0.000144227
-9.77257e-08
0.000144255
-1.0996e-07
0.000144284
-1.21194e-07
0.000144312
-1.3155e-07
0.000144341
-1.41131e-07
0.000144369
-1.50034e-07
0.000144397
-1.58338e-07
0.000144424
-1.66116e-07
0.000144451
-1.73428e-07
0.000144477
-1.80329e-07
0.000144502
-1.86862e-07
0.000144527
-1.93065e-07
0.00014455
-1.98969e-07
0.000144573
-2.04604e-07
-2.09989e-07
0.000144594
0.000148419
7.27206e-08
0.000148353
1.89311e-07
0.000148276
2.48958e-07
0.000148203
2.65771e-07
0.000148141
2.55321e-07
0.000148093
2.27885e-07
0.00014806
1.91922e-07
0.000148039
1.5315e-07
0.00014803
1.14622e-07
0.000148031
7.7941e-08
0.000148039
4.39506e-08
0.000148053
1.29878e-08
0.000148072
-1.49282e-08
0.000148095
-3.99423e-08
0.000148121
-6.22757e-08
0.00014815
-8.21814e-08
0.00014818
-9.99189e-08
0.000148211
-1.15738e-07
0.000148244
-1.29872e-07
0.000148276
-1.42532e-07
0.000148309
-1.53906e-07
0.000148341
-1.64161e-07
0.000148374
-1.73445e-07
0.000148406
-1.81883e-07
0.000148437
-1.89586e-07
0.000148467
-1.96649e-07
0.000148497
-2.03153e-07
0.000148526
-2.09167e-07
0.000148554
-2.14751e-07
0.000148581
-2.19952e-07
0.000148607
-2.24815e-07
0.000148631
-2.29373e-07
-2.33658e-07
0.000148655
0.000152632
1.29934e-07
0.000152516
3.05301e-07
0.000152394
3.70744e-07
0.000152288
3.72316e-07
0.000152204
3.39256e-07
0.000152144
2.87619e-07
0.000152106
2.30001e-07
0.000152086
1.73431e-07
0.00015208
1.20601e-07
0.000152085
7.25496e-08
0.000152099
2.96311e-08
0.000152121
-8.25899e-09
0.000152147
-4.15007e-08
0.000152178
-7.05551e-08
0.000152211
-9.58968e-08
0.000152247
-1.17974e-07
0.000152284
-1.37208e-07
0.000152323
-1.53976e-07
0.000152361
-1.68614e-07
0.0001524
-1.81414e-07
0.000152439
-1.92636e-07
0.000152477
-2.02497e-07
0.000152515
-2.11191e-07
0.000152552
-2.18879e-07
0.000152588
-2.25704e-07
0.000152623
-2.31783e-07
0.000152657
-2.37218e-07
0.00015269
-2.42096e-07
0.000152722
-2.4649e-07
0.000152753
-2.50462e-07
0.000152782
-2.54063e-07
0.00015281
-2.57338e-07
-2.60325e-07
0.000152836
0.000156935
2.46081e-07
0.00015673
5.10998e-07
0.000156542
5.58852e-07
0.000156395
5.19161e-07
0.000156291
4.42969e-07
0.000156226
3.52505e-07
0.000156192
2.64484e-07
0.00015618
1.85325e-07
0.000156185
1.15553e-07
0.000156203
5.47325e-08
0.00015623
2.27869e-09
0.000156264
-4.26659e-08
0.000156304
-8.10648e-08
0.000156347
-1.13826e-07
0.000156393
-1.4173e-07
0.00015644
-1.65478e-07
0.000156489
-1.85671e-07
0.000156538
-2.02842e-07
0.000156587
-2.17436e-07
0.000156635
-2.29845e-07
0.000156683
-2.40391e-07
0.00015673
-2.49359e-07
0.000156775
-2.5698e-07
0.00015682
-2.63462e-07
0.000156863
-2.68968e-07
0.000156905
-2.73648e-07
0.000156946
-2.77619e-07
0.000156984
-2.80987e-07
0.000157022
-2.83836e-07
0.000157058
-2.86242e-07
0.000157092
-2.88262e-07
0.000157124
-2.89954e-07
-2.91362e-07
0.000157155
0.000161294
4.90848e-07
0.000160931
8.73999e-07
0.000160653
8.36643e-07
0.000160464
7.07608e-07
0.000160352
5.55807e-07
0.000160297
4.0677e-07
0.000160282
2.79335e-07
0.000160294
1.73947e-07
0.000160324
8.56969e-08
0.000160367
1.16978e-08
0.000160419
-4.99763e-08
0.000160478
-1.01222e-07
0.00016054
-1.43816e-07
0.000160606
-1.792e-07
0.000160672
-2.0854e-07
0.00016074
-2.32806e-07
0.000160807
-2.5283e-07
0.000160873
-2.69298e-07
0.000160939
-2.82795e-07
0.000161003
-2.93797e-07
0.000161065
-3.02715e-07
0.000161126
-3.09881e-07
0.000161184
-3.15583e-07
0.000161241
-3.20051e-07
0.000161295
-3.23491e-07
0.000161348
-3.2606e-07
0.000161398
-3.27905e-07
0.000161446
-3.29134e-07
0.000161492
-3.29852e-07
0.000161536
-3.30133e-07
0.000161578
-3.3005e-07
0.000161618
-3.29653e-07
-3.28995e-07
0.000161655
0.000165516
1.12867e-06
0.000164915
1.47508e-06
0.000164579
1.17255e-06
0.000164389
8.97014e-07
0.000164311
6.34666e-07
0.000164306
4.10996e-07
0.000164344
2.41726e-07
0.000164407
1.11114e-07
0.000164487
5.77008e-09
0.000164578
-7.9822e-08
0.000164677
-1.48819e-07
0.00016478
-2.04269e-07
0.000164885
-2.48854e-07
0.000164991
-2.84611e-07
0.000165095
-3.13115e-07
0.000165198
-3.35661e-07
0.000165298
-3.53328e-07
0.000165396
-3.66998e-07
0.000165491
-3.77388e-07
0.000165582
-3.85086e-07
0.00016567
-3.90573e-07
0.000165754
-3.94247e-07
0.000165835
-3.96433e-07
0.000165912
-3.97399e-07
0.000165986
-3.97366e-07
0.000166057
-3.96519e-07
0.000166124
-3.95009e-07
0.000166188
-3.92961e-07
0.000166248
-3.90482e-07
0.000166306
-3.87661e-07
0.00016636
-3.84576e-07
0.000166412
-3.81296e-07
-3.77892e-07
0.000166461