/*--------------------------------*- C++ -*----------------------------------*\
  =========                 |
  \\      /  F ield         | OpenFOAM: The Open Source CFD Toolbox
   \\    /   O peration     | Website:  https://openfoam.org
    \\  /    A nd           | Version:  10
     \\/     M anipulation  |
\*---------------------------------------------------------------------------*/
FoamFile
{
    format      ascii;
    class       volVectorField;
    location    "1200";
    object      U;
}
// * * * * * * * * * * * * * * * * * * * * * * * * * * * * * * * * * * * * * //

dimensions      [0 1 -1 0 0 0 0];

internalField   nonuniform List<vector> 
6820
(
(7.13228 -2.83247 0)
(7.73434 -2.22097 0)
(7.93448 -1.24474 0)
(7.85772 -0.6306 0)
(7.69324 -0.300931 0)
(7.51792 -0.135203 0)
(7.34936 -0.053497 0)
(7.19463 -0.0130607 0)
(7.05694 0.00686806 0)
(6.93549 0.0163329 0)
(6.82782 0.0203897 0)
(6.73175 0.0216667 0)
(6.64553 0.0215375 0)
(6.56772 0.0207173 0)
(6.49714 0.0195839 0)
(6.43277 0.0183405 0)
(6.37382 0.0170945 0)
(6.31962 0.0159001 0)
(6.26962 0.0147823 0)
(6.22334 0.0137503 0)
(6.18039 0.0128056 0)
(6.14042 0.0119455 0)
(6.10312 0.0111657 0)
(6.06823 0.0104622 0)
(6.03552 0.00983181 0)
(6.00474 0.00927371 0)
(5.97569 0.00879107 0)
(5.94814 0.00839106 0)
(5.9219 0.00810454 0)
(5.89641 0.00794596 0)
(5.87206 0.00803811 0)
(5.84588 0.00888502 0)
(5.82265 0.00897911 0)
(7.57676 0.619468 0)
(7.41857 0.759314 0)
(7.35518 0.51949 0)
(7.35368 0.338998 0)
(7.40446 0.233424 0)
(7.46266 0.167015 0)
(7.5028 0.124257 0)
(7.52296 0.0970552 0)
(7.52874 0.0793577 0)
(7.52454 0.0672669 0)
(7.51317 0.0586466 0)
(7.49676 0.0523026 0)
(7.47703 0.0474924 0)
(7.4552 0.0437283 0)
(7.43206 0.0406903 0)
(7.40817 0.038173 0)
(7.38393 0.0360406 0)
(7.35963 0.0341999 0)
(7.33547 0.0325855 0)
(7.31161 0.0311516 0)
(7.28814 0.0298655 0)
(7.26513 0.0287036 0)
(7.24263 0.0276495 0)
(7.22068 0.0266921 0)
(7.19929 0.0258253 0)
(7.17847 0.0250485 0)
(7.15822 0.0243687 0)
(7.13851 0.0237998 0)
(7.11938 0.0233895 0)
(7.10064 0.0231462 0)
(7.0828 0.0234795 0)
(7.06477 0.0239685 0)
(7.0503 0.0276761 0)
(7.26194 -0.0479145 0)
(7.1598 -0.0718987 0)
(7.1968 -0.0845017 0)
(7.23914 -0.0533679 0)
(7.27631 -0.0172217 0)
(7.31445 0.00633862 0)
(7.34736 0.0206583 0)
(7.37268 0.0300124 0)
(7.39197 0.0360124 0)
(7.40649 0.0394946 0)
(7.41686 0.0412607 0)
(7.42372 0.0419575 0)
(7.42779 0.0419941 0)
(7.42963 0.0416153 0)
(7.42969 0.0409796 0)
(7.42833 0.0401948 0)
(7.42581 0.0393315 0)
(7.42238 0.0384338 0)
(7.41821 0.0375298 0)
(7.41345 0.0366379 0)
(7.40822 0.0357701 0)
(7.40262 0.0349347 0)
(7.39673 0.0341379 0)
(7.39062 0.0333854 0)
(7.38432 0.0326839 0)
(7.37789 0.0320423 0)
(7.37135 0.0314756 0)
(7.36472 0.0310031 0)
(7.35805 0.0306736 0)
(7.35128 0.03051 0)
(7.34464 0.0307658 0)
(7.33793 0.0312676 0)
(7.33228 0.0330076 0)
(7.29243 -0.0887255 0)
(7.22392 -0.061472 0)
(7.23482 -0.0268992 0)
(7.25115 -0.0010332 0)
(7.2656 0.0189108 0)
(7.28496 0.0304712 0)
(7.30449 0.0362746 0)
(7.32129 0.0394571 0)
(7.33582 0.041242 0)
(7.3485 0.0420204 0)
(7.3593 0.0421322 0)
(7.36832 0.0418692 0)
(7.37577 0.0413997 0)
(7.38189 0.0408073 0)
(7.38687 0.0401424 0)
(7.39086 0.0394406 0)
(7.39401 0.0387251 0)
(7.39644 0.0380103 0)
(7.39826 0.037305 0)
(7.39955 0.0366158 0)
(7.40038 0.0359476 0)
(7.40083 0.0353047 0)
(7.40095 0.0346916 0)
(7.40078 0.0341135 0)
(7.40035 0.0335777 0)
(7.39971 0.0330942 0)
(7.39888 0.0326793 0)
(7.39787 0.0323542 0)
(7.39674 0.032161 0)
(7.39548 0.0321321 0)
(7.39423 0.0324126 0)
(7.39298 0.0328964 0)
(7.39218 0.0340202 0)
(7.31244 -0.0515031 0)
(7.26793 -0.031875 0)
(7.26467 -0.0126186 0)
(7.26769 -5.76304e-05 0)
(7.27322 0.0130536 0)
(7.28435 0.0226486 0)
(7.2969 0.0282845 0)
(7.30832 0.0318846 0)
(7.31872 0.0343774 0)
(7.32833 0.0359805 0)
(7.33699 0.036902 0)
(7.34469 0.0373715 0)
(7.3515 0.0375425 0)
(7.35754 0.0375024 0)
(7.36288 0.037311 0)
(7.36761 0.0370142 0)
(7.37179 0.0366456 0)
(7.37548 0.0362291 0)
(7.37876 0.0357819 0)
(7.38166 0.035317 0)
(7.38423 0.034845 0)
(7.38651 0.034375 0)
(7.38853 0.0339152 0)
(7.39032 0.033474 0)
(7.39191 0.0330613 0)
(7.39332 0.0326891 0)
(7.39457 0.0323739 0)
(7.39567 0.0321366 0)
(7.39668 0.03201 0)
(7.3976 0.0320235 0)
(7.39854 0.0322508 0)
(7.39955 0.032646 0)
(7.40083 0.0333791 0)
(7.3203 -0.0314405 0)
(7.28849 -0.0238371 0)
(7.28204 -0.0120233 0)
(7.2814 -0.00207162 0)
(7.28395 0.00926788 0)
(7.29102 0.0182381 0)
(7.2996 0.0239851 0)
(7.30775 0.02786 0)
(7.31544 0.0306274 0)
(7.32275 0.0325032 0)
(7.32954 0.0336887 0)
(7.33576 0.034401 0)
(7.34145 0.0347904 0)
(7.34667 0.0349477 0)
(7.35145 0.0349355 0)
(7.35584 0.0348017 0)
(7.35987 0.0345813 0)
(7.36359 0.0342996 0)
(7.36702 0.0339752 0)
(7.3702 0.0336223 0)
(7.37315 0.0332526 0)
(7.37589 0.0328759 0)
(7.37845 0.0325012 0)
(7.38084 0.0321377 0)
(7.38309 0.0317954 0)
(7.3852 0.0314859 0)
(7.3872 0.0312241 0)
(7.38911 0.0310275 0)
(7.39096 0.03092 0)
(7.39278 0.0309225 0)
(7.39465 0.0310702 0)
(7.39661 0.0313401 0)
(7.39879 0.0317857 0)
(7.32446 -0.0216667 0)
(7.30104 -0.0195803 0)
(7.29416 -0.010932 0)
(7.2922 -0.00220158 0)
(7.29331 0.00755297 0)
(7.29804 0.0155721 0)
(7.30422 0.021066 0)
(7.3104 0.0249145 0)
(7.3164 0.0277095 0)
(7.32221 0.0296654 0)
(7.32771 0.03097 0)
(7.33286 0.0318137 0)
(7.33766 0.0323326 0)
(7.34213 0.0326133 0)
(7.34632 0.0327174 0)
(7.35023 0.0326912 0)
(7.3539 0.0325696 0)
(7.35735 0.0323779 0)
(7.36061 0.032135 0)
(7.36368 0.031856 0)
(7.36659 0.031553 0)
(7.36936 0.0312362 0)
(7.372 0.0309149 0)
(7.37452 0.0305983 0)
(7.37694 0.0302961 0)
(7.37927 0.0300187 0)
(7.38152 0.0297785 0)
(7.38373 0.0295891 0)
(7.38591 0.0294661 0)
(7.3881 0.0294218 0)
(7.39034 0.0294691 0)
(7.39271 0.0295898 0)
(7.39527 0.0297838 0)
(7.32737 -0.0149948 0)
(7.31004 -0.0151747 0)
(7.30324 -0.00892274 0)
(7.30059 -0.00165188 0)
(7.30082 0.0065608 0)
(7.30407 0.0136089 0)
(7.3087 0.0187454 0)
(7.31359 0.0224823 0)
(7.31849 0.0252484 0)
(7.32331 0.0272366 0)
(7.32795 0.0286148 0)
(7.33235 0.0295464 0)
(7.3365 0.0301534 0)
(7.34042 0.0305182 0)
(7.34413 0.0307007 0)
(7.34765 0.0307463 0)
(7.35098 0.0306894 0)
(7.35415 0.0305554 0)
(7.35718 0.0303639 0)
(7.36008 0.0301302 0)
(7.36285 0.0298667 0)
(7.36552 0.0295839 0)
(7.3681 0.0292912 0)
(7.37059 0.0289973 0)
(7.37302 0.0287109 0)
(7.37538 0.0284413 0)
(7.3777 0.0281978 0)
(7.37999 0.02799 0)
(7.38229 0.0278268 0)
(7.38462 0.0277131 0)
(7.38701 0.0276487 0)
(7.38953 0.0276147 0)
(7.39221 0.0275887 0)
(7.3294 -0.00997836 0)
(7.31672 -0.0111218 0)
(7.3103 -0.00679761 0)
(7.30731 -0.000925549 0)
(7.30696 0.00594512 0)
(7.30918 0.0121048 0)
(7.31272 0.0168459 0)
(7.31668 0.0204217 0)
(7.32079 0.0231217 0)
(7.3249 0.0251071 0)
(7.32892 0.0265232 0)
(7.33278 0.0275098 0)
(7.33646 0.0281756 0)
(7.33998 0.0285979 0)
(7.34333 0.0288343 0)
(7.34653 0.0289291 0)
(7.34959 0.028916 0)
(7.35253 0.0288203 0)
(7.35536 0.0286619 0)
(7.35808 0.0284561 0)
(7.36071 0.0282156 0)
(7.36327 0.0279508 0)
(7.36575 0.0276708 0)
(7.36817 0.0273839 0)
(7.37054 0.0270977 0)
(7.37288 0.0268196 0)
(7.37519 0.0265565 0)
(7.37749 0.0263141 0)
(7.37981 0.0260963 0)
(7.38217 0.0259021 0)
(7.38461 0.0257244 0)
(7.38714 0.0255428 0)
(7.38982 0.0253275 0)
(7.33075 -0.00639648 0)
(7.32165 -0.00775489 0)
(7.31591 -0.00477699 0)
(7.31286 -8.45407e-05 0)
(7.31212 0.00562919 0)
(7.31358 0.0109711 0)
(7.3163 0.0152877 0)
(7.31955 0.0186562 0)
(7.32303 0.0212529 0)
(7.32661 0.0232025 0)
(7.33015 0.024626 0)
(7.33359 0.0256412 0)
(7.33691 0.0263434 0)
(7.34011 0.026804 0)
(7.34319 0.0270775 0)
(7.34614 0.0272063 0)
(7.34899 0.0272231 0)
(7.35174 0.0271531 0)
(7.3544 0.0270157 0)
(7.35697 0.0268266 0)
(7.35948 0.0265981 0)
(7.36192 0.0263406 0)
(7.36431 0.0260628 0)
(7.36666 0.0257722 0)
(7.36897 0.0254753 0)
(7.37125 0.0251779 0)
(7.37352 0.0248845 0)
(7.3758 0.0245979 0)
(7.3781 0.024318 0)
(7.38045 0.0240402 0)
(7.38286 0.0237535 0)
(7.38536 0.0234376 0)
(7.38797 0.0230621 0)
(7.33162 -0.00393134 0)
(7.32523 -0.00506007 0)
(7.32037 -0.00292576 0)
(7.31748 0.000820242 0)
(7.31653 0.00554084 0)
(7.31743 0.0101319 0)
(7.31951 0.0140084 0)
(7.32218 0.0171326 0)
(7.32517 0.0195935 0)
(7.32829 0.0214781 0)
(7.33144 0.0228824 0)
(7.33455 0.0239035 0)
(7.33758 0.0246233 0)
(7.34052 0.0251064 0)
(7.34337 0.0254034 0)
(7.34613 0.0255545 0)
(7.3488 0.0255908 0)
(7.35139 0.0255369 0)
(7.35391 0.0254119 0)
(7.35637 0.0252312 0)
(7.35876 0.025007 0)
(7.36111 0.0247492 0)
(7.36341 0.024466 0)
(7.36568 0.0241642 0)
(7.36793 0.0238493 0)
(7.37016 0.0235254 0)
(7.37238 0.0231953 0)
(7.37462 0.0228593 0)
(7.37688 0.022515 0)
(7.37918 0.0221553 0)
(7.38153 0.021768 0)
(7.38396 0.0213337 0)
(7.38648 0.0208249 0)
(7.33218 -0.00226262 0)
(7.32778 -0.00295691 0)
(7.32388 -0.00130501 0)
(7.32132 0.00171548 0)
(7.3203 0.00560471 0)
(7.32082 0.00952048 0)
(7.32241 0.0129585 0)
(7.32461 0.0158141 0)
(7.32717 0.0181126 0)
(7.32991 0.0199067 0)
(7.33273 0.0212683 0)
(7.33556 0.0222747 0)
(7.33834 0.0229952 0)
(7.34107 0.0234866 0)
(7.34372 0.0237952 0)
(7.34631 0.0239582 0)
(7.34884 0.0240052 0)
(7.3513 0.0239596 0)
(7.3537 0.0238401 0)
(7.35605 0.0236613 0)
(7.35835 0.0234353 0)
(7.36061 0.0231714 0)
(7.36283 0.0228773 0)
(7.36503 0.022559 0)
(7.36722 0.0222211 0)
(7.36939 0.0218664 0)
(7.37156 0.021496 0)
(7.37374 0.021109 0)
(7.37595 0.020701 0)
(7.37819 0.0202644 0)
(7.38048 0.0197867 0)
(7.38282 0.0192504 0)
(7.38523 0.018632 0)
(7.33252 -0.00115098 0)
(7.32957 -0.00136476 0)
(7.32658 4.3289e-05 0)
(7.32445 0.00253407 0)
(7.32349 0.00575076 0)
(7.32378 0.00907603 0)
(7.325 0.0120939 0)
(7.32682 0.0146698 0)
(7.32902 0.0167867 0)
(7.33145 0.0184692 0)
(7.33398 0.0197674 0)
(7.33656 0.0207407 0)
(7.33912 0.0214461 0)
(7.34166 0.0219327 0)
(7.34415 0.0222418 0)
(7.3466 0.0224075 0)
(7.34899 0.0224571 0)
(7.35133 0.022413 0)
(7.35363 0.0222927 0)
(7.35588 0.0221105 0)
(7.3581 0.0218777 0)
(7.36028 0.0216032 0)
(7.36244 0.021294 0)
(7.36458 0.0209555 0)
(7.3667 0.0205912 0)
(7.36881 0.0202032 0)
(7.37093 0.0197914 0)
(7.37306 0.0193537 0)
(7.3752 0.0188853 0)
(7.37738 0.0183782 0)
(7.37959 0.0178209 0)
(7.38184 0.0171982 0)
(7.38413 0.0164908 0)
(7.33273 -0.000425513 0)
(7.3308 -0.00019953 0)
(7.32861 0.00110883 0)
(7.32695 0.00322823 0)
(7.32615 0.00591801 0)
(7.32632 0.00874205 0)
(7.32729 0.0113721 0)
(7.32882 0.0136699 0)
(7.33073 0.0155943 0)
(7.33288 0.0171495 0)
(7.33516 0.0183669 0)
(7.33752 0.0192909 0)
(7.33989 0.0199669 0)
(7.34226 0.0204365 0)
(7.34461 0.0207359 0)
(7.34692 0.0208954 0)
(7.3492 0.0209404 0)
(7.35144 0.0208913 0)
(7.35364 0.0207649 0)
(7.35581 0.0205745 0)
(7.35795 0.0203307 0)
(7.36006 0.0200419 0)
(7.36215 0.0197145 0)
(7.36422 0.019353 0)
(7.36628 0.0189605 0)
(7.36834 0.0185381 0)
(7.3704 0.0180852 0)
(7.37247 0.017599 0)
(7.37455 0.0170745 0)
(7.37665 0.0165043 0)
(7.37878 0.0158781 0)
(7.38093 0.0151831 0)
(7.38311 0.014404 0)
(7.33285 3.63488e-05 0)
(7.33162 0.000622571 0)
(7.3301 0.00190708 0)
(7.32889 0.0037715 0)
(7.3283 0.00605826 0)
(7.32845 0.00846808 0)
(7.32926 0.0107521 0)
(7.33058 0.0127842 0)
(7.33225 0.0145137 0)
(7.33417 0.0159315 0)
(7.33625 0.0170551 0)
(7.33841 0.0179163 0)
(7.34061 0.0185504 0)
(7.34283 0.018992 0)
(7.34504 0.0192719 0)
(7.34724 0.0194172 0)
(7.34941 0.0194505 0)
(7.35156 0.0193907 0)
(7.35367 0.0192532 0)
(7.35576 0.0190503 0)
(7.35783 0.018792 0)
(7.35988 0.0184859 0)
(7.3619 0.0181378 0)
(7.36392 0.0177517 0)
(7.36592 0.01733 0)
(7.36792 0.0168734 0)
(7.36992 0.0163807 0)
(7.37192 0.015849 0)
(7.37393 0.0152737 0)
(7.37596 0.0146478 0)
(7.378 0.0139628 0)
(7.38006 0.0132081 0)
(7.38213 0.0123717 0)
(7.33292 0.000321199 0)
(7.33217 0.00117794 0)
(7.33117 0.00246908 0)
(7.33036 0.00415688 0)
(7.32999 0.00613871 0)
(7.33019 0.00821286 0)
(7.33092 0.0101964 0)
(7.33209 0.0119833 0)
(7.33358 0.0135227 0)
(7.33531 0.0147989 0)
(7.33721 0.01582 0)
(7.3392 0.0166079 0)
(7.34126 0.0171897 0)
(7.34334 0.0175935 0)
(7.34543 0.0178455 0)
(7.34752 0.0179691 0)
(7.3496 0.0179844 0)
(7.35165 0.0179085 0)
(7.35369 0.0177553 0)
(7.35571 0.0175362 0)
(7.35771 0.0172603 0)
(7.35969 0.0169345 0)
(7.36166 0.016564 0)
(7.36361 0.0161523 0)
(7.36556 0.0157013 0)
(7.36749 0.0152112 0)
(7.36943 0.0146809 0)
(7.37137 0.0141076 0)
(7.37332 0.0134868 0)
(7.37527 0.0128128 0)
(7.37722 0.0120783 0)
(7.37918 0.0112749 0)
(7.38114 0.0103934 0)
(7.33296 0.000488835 0)
(7.33253 0.00153176 0)
(7.33192 0.00283299 0)
(7.33145 0.00439248 0)
(7.33129 0.0061421 0)
(7.33157 0.00794643 0)
(7.33227 0.00967395 0)
(7.33334 0.0112402 0)
(7.3347 0.0125998 0)
(7.33628 0.0137353 0)
(7.33803 0.0146493 0)
(7.33988 0.0153566 0)
(7.3418 0.0158779 0)
(7.34377 0.016236 0)
(7.34575 0.0164526 0)
(7.34774 0.0165478 0)
(7.34972 0.0165395 0)
(7.3517 0.0164426 0)
(7.35366 0.0162697 0)
(7.35561 0.016031 0)
(7.35755 0.0157349 0)
(7.35947 0.0153875 0)
(7.36137 0.0149935 0)
(7.36327 0.0145558 0)
(7.36516 0.0140759 0)
(7.36704 0.0135541 0)
(7.36891 0.0129889 0)
(7.37078 0.012378 0)
(7.37266 0.0117174 0)
(7.37453 0.0110022 0)
(7.3764 0.0102267 0)
(7.37827 0.00938431 0)
(7.38013 0.00846786 0)
(7.33299 0.000579822 0)
(7.33276 0.00173717 0)
(7.33244 0.00303816 0)
(7.33222 0.00449629 0)
(7.33226 0.00606442 0)
(7.33262 0.00765068 0)
(7.33332 0.00916159 0)
(7.33433 0.0105323 0)
(7.33559 0.0117255 0)
(7.33706 0.012725 0)
(7.33868 0.0135308 0)
(7.34042 0.0141532 0)
(7.34222 0.0146082 0)
(7.34408 0.0149141 0)
(7.34596 0.0150892 0)
(7.34786 0.0151505 0)
(7.34977 0.0151135 0)
(7.35167 0.0149913 0)
(7.35356 0.0147951 0)
(7.35544 0.0145342 0)
(7.35731 0.0142157 0)
(7.35917 0.0138454 0)
(7.36102 0.0134271 0)
(7.36286 0.0129635 0)
(7.36469 0.0124559 0)
(7.36651 0.0119043 0)
(7.36832 0.0113074 0)
(7.37013 0.0106631 0)
(7.37193 0.00996816 0)
(7.37372 0.00921858 0)
(7.37551 0.0084098 0)
(7.37729 0.00753676 0)
(7.37905 0.00659412 0)
(7.333 0.000621364 0)
(7.33291 0.0018362 0)
(7.33278 0.00312139 0)
(7.33276 0.00449142 0)
(7.33294 0.00591161 0)
(7.33338 0.00731825 0)
(7.33409 0.00864497 0)
(7.33506 0.00984331 0)
(7.33626 0.0108842 0)
(7.33764 0.0117545 0)
(7.33916 0.0124535 0)
(7.34079 0.0129891 0)
(7.3425 0.013374 0)
(7.34426 0.0136231 0)
(7.34606 0.0137517 0)
(7.34787 0.0137744 0)
(7.3497 0.0137045 0)
(7.35153 0.0135534 0)
(7.35335 0.0133311 0)
(7.35517 0.0130455 0)
(7.35698 0.0127031 0)
(7.35878 0.0123088 0)
(7.36057 0.0118661 0)
(7.36235 0.0113773 0)
(7.36412 0.0108433 0)
(7.36588 0.0102642 0)
(7.36763 0.00963894 0)
(7.36937 0.00896562 0)
(7.3711 0.00824166 0)
(7.37282 0.00746391 0)
(7.37452 0.00662881 0)
(7.37621 0.00573259 0)
(7.37788 0.00477123 0)
(7.333 0.000631606 0)
(7.333 0.00186135 0)
(7.33301 0.0031152 0)
(7.33312 0.00440263 0)
(7.3334 0.00569624 0)
(7.3339 0.00695046 0)
(7.33462 0.008118 0)
(7.33557 0.00916339 0)
(7.33671 0.0100651 0)
(7.33801 0.0108135 0)
(7.33945 0.0114087 0)
(7.34099 0.0118572 0)
(7.34261 0.0121696 0)
(7.34429 0.0123586 0)
(7.346 0.012437 0)
(7.34774 0.0124174 0)
(7.34949 0.0123112 0)
(7.35125 0.0121283 0)
(7.35302 0.0118773 0)
(7.35477 0.0115652 0)
(7.35652 0.0111976 0)
(7.35827 0.0107789 0)
(7.36 0.0103119 0)
(7.36172 0.00979876 0)
(7.36343 0.00924018 0)
(7.36513 0.00863619 0)
(7.36681 0.00798592 0)
(7.36848 0.00728788 0)
(7.37014 0.00653999 0)
(7.37179 0.00573986 0)
(7.37341 0.00488477 0)
(7.37502 0.00397195 0)
(7.3766 0.00299839 0)
(7.33301 0.000622712 0)
(7.33305 0.00183762 0)
(7.33314 0.00304743 0)
(7.33333 0.00425416 0)
(7.33368 0.0054346 0)
(7.33421 0.00655508 0)
(7.33494 0.00758176 0)
(7.33585 0.00848933 0)
(7.33694 0.00926276 0)
(7.33818 0.00989609 0)
(7.33954 0.0103906 0)
(7.341 0.0107525 0)
(7.34254 0.0109913 0)
(7.34414 0.0111178 0)
(7.34578 0.0111432 0)
(7.34745 0.0110783 0)
(7.34913 0.0109329 0)
(7.35083 0.0107157 0)
(7.35252 0.010434 0)
(7.35422 0.010094 0)
(7.35591 0.00970039 0)
(7.35759 0.00925696 0)
(7.35927 0.00876625 0)
(7.36093 0.00822988 0)
(7.36258 0.0076486 0)
(7.36422 0.00702237 0)
(7.36584 0.00635055 0)
(7.36745 0.00563192 0)
(7.36903 0.00486494 0)
(7.3706 0.00404774 0)
(7.37215 0.0031784 0)
(7.37368 0.0022548 0)
(7.37518 0.00127481 0)
(7.33301 0.000603004 0)
(7.33307 0.00178437 0)
(7.33321 0.00294175 0)
(7.33344 0.00406892 0)
(7.33382 0.00514497 0)
(7.33435 0.00614435 0)
(7.33506 0.00704306 0)
(7.33594 0.00782382 0)
(7.33697 0.00847724 0)
(7.33815 0.00900077 0)
(7.33944 0.00939724 0)
(7.34082 0.00967319 0)
(7.34228 0.00983739 0)
(7.3438 0.00989959 0)
(7.34537 0.00986965 0)
(7.34697 0.00975695 0)
(7.34858 0.00957003 0)
(7.35021 0.00931638 0)
(7.35185 0.00900234 0)
(7.35349 0.00863314 0)
(7.35512 0.00821292 0)
(7.35674 0.00774477 0)
(7.35836 0.00723088 0)
(7.35996 0.00667261 0)
(7.36155 0.00607057 0)
(7.36313 0.00542476 0)
(7.36469 0.00473468 0)
(7.36623 0.00399941 0)
(7.36775 0.00321777 0)
(7.36925 0.00238841 0)
(7.37072 0.00150992 0)
(7.37217 0.000580788 0)
(7.37359 -0.000400521 0)
(7.33301 0.00057847 0)
(7.33308 0.00171714 0)
(7.33322 0.00281869 0)
(7.33346 0.00386848 0)
(7.33383 0.00484669 0)
(7.33434 0.00573375 0)
(7.33502 0.00651327 0)
(7.33584 0.00717469 0)
(7.33681 0.00771362 0)
(7.33791 0.0081308 0)
(7.33913 0.00843082 0)
(7.34043 0.0086208 0)
(7.34182 0.0087093 0)
(7.34326 0.00870531 0)
(7.34475 0.00861773 0)
(7.34628 0.00845486 0)
(7.34783 0.00822415 0)
(7.34939 0.00793206 0)
(7.35097 0.00758404 0)
(7.35254 0.00718455 0)
(7.35412 0.00673706 0)
(7.35568 0.00624417 0)
(7.35724 0.0057077 0)
(7.35879 0.00512875 0)
(7.36032 0.00450781 0)
(7.36183 0.00384492 0)
(7.36333 0.00313965 0)
(7.36481 0.00239135 0)
(7.36626 0.00159911 0)
(7.36769 0.000761989 0)
(7.3691 -0.000121057 0)
(7.37047 -0.00105104 0)
(7.37181 -0.00202912 0)
(7.33301 0.000553829 0)
(7.33307 0.00164932 0)
(7.3332 0.00269715 0)
(7.33341 0.00367393 0)
(7.33374 0.0045603 0)
(7.3342 0.00534151 0)
(7.33481 0.00600766 0)
(7.33556 0.00655427 0)
(7.33645 0.00698168 0)
(7.33747 0.00729391 0)
(7.3386 0.00749748 0)
(7.33982 0.00760039 0)
(7.34113 0.00761125 0)
(7.34249 0.00753867 0)
(7.34391 0.00739078 0)
(7.34536 0.00717505 0)
(7.34684 0.006898 0)
(7.34834 0.00656525 0)
(7.34985 0.00618144 0)
(7.35136 0.00575031 0)
(7.35288 0.00527477 0)
(7.35439 0.00475692 0)
(7.35589 0.00419826 0)
(7.35738 0.00359962 0)
(7.35885 0.00296143 0)
(7.36031 0.00228363 0)
(7.36174 0.00156593 0)
(7.36316 0.000807791 0)
(7.36455 8.57395e-06 0)
(7.36592 -0.000832437 0)
(7.36725 -0.00171593 0)
(7.36856 -0.00264265 0)
(7.36983 -0.0036134 0)
(7.33301 0.000533368 0)
(7.33305 0.00159379 0)
(7.33313 0.00259609 0)
(7.33329 0.00350738 0)
(7.33354 0.0043084 0)
(7.33392 0.00498902 0)
(7.33443 0.00554547 0)
(7.33509 0.00597928 0)
(7.33588 0.00629566 0)
(7.3368 0.0065021 0)
(7.33784 0.00660731 0)
(7.33896 0.00662041 0)
(7.34018 0.00655037 0)
(7.34146 0.00640563 0)
(7.34279 0.00619384 0)
(7.34417 0.00592176 0)
(7.34558 0.00559518 0)
(7.34701 0.00521893 0)
(7.34846 0.00479696 0)
(7.34991 0.00433237 0)
(7.35137 0.00382751 0)
(7.35282 0.0032841 0)
(7.35427 0.00270322 0)
(7.3557 0.00208554 0)
(7.35712 0.00143127 0)
(7.35852 0.000740359 0)
(7.3599 1.25004e-05 0)
(7.36126 -0.000752718 0)
(7.3626 -0.00155582 0)
(7.3639 -0.0023973 0)
(7.36518 -0.00327768 0)
(7.36642 -0.00419747 0)
(7.36763 -0.0051573 0)
(7.333 0.000521714 0)
(7.33301 0.00156483 0)
(7.33303 0.00253696 0)
(7.33309 0.00339418 0)
(7.33323 0.00411759 0)
(7.33348 0.00470211 0)
(7.33387 0.00515062 0)
(7.3344 0.00547114 0)
(7.33507 0.00567427 0)
(7.33587 0.00577143 0)
(7.33679 0.00577386 0)
(7.33782 0.00569216 0)
(7.33893 0.00553596 0)
(7.34012 0.00531376 0)
(7.34137 0.00503293 0)
(7.34267 0.00469968 0)
(7.34401 0.00431916 0)
(7.34537 0.00389556 0)
(7.34676 0.00343216 0)
(7.34815 0.00293149 0)
(7.34955 0.0023954 0)
(7.35095 0.00182513 0)
(7.35235 0.00122146 0)
(7.35373 0.00058478 0)
(7.3551 -8.48689e-05 0)
(7.35646 -0.000787636 0)
(7.35779 -0.00152386 0)
(7.3591 -0.00229393 0)
(7.36038 -0.00309829 0)
(7.36163 -0.00393736 0)
(7.36286 -0.00481152 0)
(7.36405 -0.00572118 0)
(7.3652 -0.00666687 0)
(7.333 0.000524771 0)
(7.33296 0.00158059 0)
(7.33286 0.00254686 0)
(7.33278 0.00336626 0)
(7.33276 0.00402123 0)
(7.33285 0.00451328 0)
(7.33308 0.00485321 0)
(7.33345 0.00505675 0)
(7.33396 0.00514088 0)
(7.33462 0.00512165 0)
(7.33541 0.00501345 0)
(7.33632 0.0048288 0)
(7.33733 0.0045783 0)
(7.33842 0.0042708 0)
(7.33958 0.00391353 0)
(7.34081 0.00351233 0)
(7.34207 0.00307182 0)
(7.34338 0.00259556 0)
(7.3447 0.00208625 0)
(7.34605 0.00154583 0)
(7.3474 0.000975636 0)
(7.34875 0.000376454 0)
(7.3501 -0.000251292 0)
(7.35145 -0.000907552 0)
(7.35278 -0.00159246 0)
(7.35409 -0.00230637 0)
(7.35538 -0.00304966 0)
(7.35665 -0.00382283 0)
(7.35789 -0.00462629 0)
(7.3591 -0.00546048 0)
(7.36028 -0.00632572 0)
(7.36142 -0.00722242 0)
(7.36253 -0.00815102 0)
(7.33299 0.000551139 0)
(7.33287 0.00166689 0)
(7.33262 0.00266344 0)
(7.33233 0.00346691 0)
(7.33209 0.00406374 0)
(7.33196 0.00446487 0)
(7.33197 0.00469154 0)
(7.33213 0.00476939 0)
(7.33247 0.00472336 0)
(7.33296 0.00457532 0)
(7.33361 0.00434363 0)
(7.33438 0.00404332 0)
(7.33528 0.00368637 0)
(7.33628 0.0032822 0)
(7.33736 0.00283812 0)
(7.33851 0.00235967 0)
(7.33971 0.00185097 0)
(7.34096 0.00131501 0)
(7.34224 0.000753829 0)
(7.34354 0.000168796 0)
(7.34486 -0.000439368 0)
(7.34618 -0.00107034 0)
(7.3475 -0.00172417 0)
(7.34881 -0.00240114 0)
(7.35011 -0.00310173 0)
(7.3514 -0.00382647 0)
(7.35266 -0.00457597 0)
(7.3539 -0.00535082 0)
(7.35511 -0.00615156 0)
(7.35629 -0.00697866 0)
(7.35744 -0.00783256 0)
(7.35855 -0.00871364 0)
(7.35963 -0.00962241 0)
(7.33299 0.000614656 0)
(7.33274 0.00186363 0)
(7.33225 0.00294251 0)
(7.33167 0.00375802 0)
(7.33112 0.00430632 0)
(7.33069 0.00461299 0)
(7.33042 0.00471411 0)
(7.33033 0.00464889 0)
(7.33045 0.00445289 0)
(7.33076 0.00415548 0)
(7.33125 0.00378012 0)
(7.33189 0.00334505 0)
(7.33268 0.00286406 0)
(7.33359 0.00234738 0)
(7.3346 0.00180244 0)
(7.3357 0.00123447 0)
(7.33686 0.00064704 0)
(7.33807 4.24424e-05 0)
(7.33932 -0.00057798 0)
(7.3406 -0.00121364 0)
(7.3419 -0.00186446 0)
(7.3432 -0.00253076 0)
(7.34451 -0.00321314 0)
(7.34581 -0.00391235 0)
(7.3471 -0.00462925 0)
(7.34837 -0.00536475 0)
(7.34963 -0.0061197 0)
(7.35085 -0.00689494 0)
(7.35205 -0.00769119 0)
(7.35322 -0.0085091 0)
(7.35435 -0.0093492 0)
(7.35545 -0.010212 0)
(7.3565 -0.0110981 0)
(7.33297 0.000739254 0)
(7.33253 0.002236 0)
(7.33168 0.00347051 0)
(7.33067 0.00433071 0)
(7.32969 0.00483462 0)
(7.32886 0.00503156 0)
(7.32823 0.00498023 0)
(7.32785 0.00473969 0)
(7.32773 0.00436002 0)
(7.32784 0.00388045 0)
(7.32817 0.00333092 0)
(7.3287 0.00273359 0)
(7.3294 0.00210432 0)
(7.33025 0.00145408 0)
(7.33121 0.000790263 0)
(7.33228 0.000117547 0)
(7.33342 -0.000561293 0)
(7.33463 -0.00124495 0)
(7.33588 -0.00193303 0)
(7.33717 -0.00262595 0)
(7.33848 -0.00332449 0)
(7.33979 -0.00402981 0)
(7.34111 -0.00474318 0)
(7.34243 -0.00546603 0)
(7.34373 -0.00619972 0)
(7.34502 -0.00694564 0)
(7.34628 -0.00770504 0)
(7.34752 -0.0084791 0)
(7.34872 -0.0092688 0)
(7.3499 -0.0100751 0)
(7.35103 -0.0108986 0)
(7.35213 -0.0117402 0)
(7.35318 -0.0126005 0)
(7.33295 0.000969002 0)
(7.33217 0.00289462 0)
(7.33075 0.00438395 0)
(7.32911 0.00532001 0)
(7.32754 0.00576695 0)
(7.32618 0.00581406 0)
(7.32513 0.00555666 0)
(7.32442 0.00508379 0)
(7.32404 0.00446567 0)
(7.32397 0.0037541 0)
(7.32418 0.00298668 0)
(7.32463 0.00218971 0)
(7.32529 0.00138072 0)
(7.32611 0.000570871 0)
(7.32708 -0.000233199 0)
(7.32817 -0.00102796 0)
(7.32934 -0.00181209 0)
(7.33059 -0.00258571 0)
(7.33188 -0.00334992 0)
(7.33322 -0.00410639 0)
(7.33457 -0.00485718 0)
(7.33594 -0.00560446 0)
(7.3373 -0.00635054 0)
(7.33866 -0.00709757 0)
(7.34001 -0.00784771 0)
(7.34134 -0.00860288 0)
(7.34264 -0.00936492 0)
(7.34391 -0.0101354 0)
(7.34515 -0.0109157 0)
(7.34635 -0.0117072 0)
(7.34751 -0.0125107 0)
(7.34863 -0.0133274 0)
(7.34971 -0.0141581 0)
(7.3329 0.00139192 0)
(7.33153 0.00403455 0)
(7.32919 0.00589952 0)
(7.32663 0.00692085 0)
(7.32425 0.00725747 0)
(7.32226 0.00706654 0)
(7.32072 0.00650403 0)
(7.31968 0.00570452 0)
(7.31908 0.00476464 0)
(7.31889 0.00375045 0)
(7.31904 0.00270701 0)
(7.31948 0.00166353 0)
(7.32017 0.000637592 0)
(7.32106 -0.000361144 0)
(7.32211 -0.00132819 0)
(7.32328 -0.00226244 0)
(7.32455 -0.00316499 0)
(7.32589 -0.00403822 0)
(7.32729 -0.00488534 0)
(7.32872 -0.00570986 0)
(7.33017 -0.00651547 0)
(7.33163 -0.00730578 0)
(7.33309 -0.00808429 0)
(7.33454 -0.00885424 0)
(7.33597 -0.00961865 0)
(7.33737 -0.0103803 0)
(7.33875 -0.0111415 0)
(7.34009 -0.0119046 0)
(7.34139 -0.0126714 0)
(7.34265 -0.0134435 0)
(7.34386 -0.0142225 0)
(7.34503 -0.0150095 0)
(7.34615 -0.0158057 0)
(7.33278 0.00219529 0)
(7.33032 0.00601782 0)
(7.32651 0.00836944 0)
(7.32261 0.00940664 0)
(7.3192 0.00948445 0)
(7.31647 0.00887749 0)
(7.31447 0.00784027 0)
(7.31316 0.0065708 0)
(7.31246 0.00519413 0)
(7.31226 0.00378758 0)
(7.31248 0.00239961 0)
(7.31305 0.00105813 0)
(7.31389 -0.000223078 0)
(7.31495 -0.00143894 0)
(7.31618 -0.00258947 0)
(7.31753 -0.00367779 0)
(7.31899 -0.00470872 0)
(7.32051 -0.00568799 0)
(7.32209 -0.00662162 0)
(7.32369 -0.0075156 0)
(7.3253 -0.00837567 0)
(7.32692 -0.00920724 0)
(7.32853 -0.0100153 0)
(7.33011 -0.0108043 0)
(7.33167 -0.0115784 0)
(7.3332 -0.0123412 0)
(7.33469 -0.013096 0)
(7.33614 -0.0138456 0)
(7.33754 -0.0145924 0)
(7.33889 -0.0153387 0)
(7.34019 -0.0160862 0)
(7.34145 -0.0168366 0)
(7.34264 -0.0175914 0)
(7.33249 0.00374032 0)
(7.32795 0.00949217 0)
(7.32175 0.0123751 0)
(7.31603 0.0131803 0)
(7.31142 0.0126558 0)
(7.30798 0.0112927 0)
(7.30567 0.00950486 0)
(7.30431 0.00756265 0)
(7.30371 0.00560466 0)
(7.30373 0.00370483 0)
(7.30423 0.00190388 0)
(7.3051 0.000219452 0)
(7.30626 -0.00134556 0)
(7.30765 -0.00279561 0)
(7.3092 -0.00413869 0)
(7.31088 -0.00538449 0)
(7.31264 -0.00654336 0)
(7.31446 -0.00762552 0)
(7.31631 -0.00864075 0)
(7.31818 -0.00959806 0)
(7.32005 -0.0105057 0)
(7.3219 -0.0113713 0)
(7.32373 -0.0122013 0)
(7.32552 -0.0130018 0)
(7.32728 -0.0137781 0)
(7.32899 -0.0145347 0)
(7.33066 -0.0152757 0)
(7.33226 -0.0160047 0)
(7.33382 -0.0167247 0)
(7.33531 -0.0174384 0)
(7.33675 -0.018148 0)
(7.33812 -0.0188555 0)
(7.33944 -0.0195626 0)
(7.33193 0.00664013 0)
(7.32329 0.0152936 0)
(7.31325 0.018485 0)
(7.30522 0.0185737 0)
(7.29944 0.0168824 0)
(7.29558 0.0142388 0)
(7.29334 0.0113092 0)
(7.29234 0.00842525 0)
(7.29224 0.00569746 0)
(7.29281 0.00317035 0)
(7.29389 0.000862962 0)
(7.29536 -0.00122759 0)
(7.2971 -0.00311735 0)
(7.29905 -0.00482605 0)
(7.30114 -0.00637347 0)
(7.30333 -0.00777875 0)
(7.30558 -0.00905988 0)
(7.30786 -0.0102334 0)
(7.31014 -0.0113142 0)
(7.31241 -0.0123153 0)
(7.31466 -0.0132485 0)
(7.31687 -0.0141241 0)
(7.31904 -0.0149509 0)
(7.32115 -0.0157368 0)
(7.3232 -0.0164887 0)
(7.32519 -0.0172124 0)
(7.32711 -0.0179131 0)
(7.32896 -0.0185952 0)
(7.33074 -0.0192625 0)
(7.33245 -0.0199183 0)
(7.33409 -0.0205656 0)
(7.33565 -0.0212067 0)
(7.33713 -0.0218442 0)
(7.33069 0.0134351 0)
(7.31368 0.0252091 0)
(7.29797 0.0267168 0)
(7.28753 0.0249972 0)
(7.28098 0.0216516 0)
(7.27735 0.0175215 0)
(7.27593 0.0134399 0)
(7.27598 0.00969828 0)
(7.27699 0.00629784 0)
(7.27869 0.00321927 0)
(7.28089 0.000450519 0)
(7.28343 -0.0020313 0)
(7.28621 -0.00425675 0)
(7.28913 -0.00625531 0)
(7.29214 -0.00805318 0)
(7.29519 -0.00967434 0)
(7.29825 -0.0111408 0)
(7.30129 -0.0124725 0)
(7.30429 -0.013687 0)
(7.30722 -0.0147999 0)
(7.31009 -0.0158249 0)
(7.31288 -0.0167742 0)
(7.31559 -0.0176583 0)
(7.3182 -0.0184865 0)
(7.32073 -0.0192669 0)
(7.32315 -0.0200065 0)
(7.32548 -0.0207116 0)
(7.32772 -0.0213873 0)
(7.32986 -0.0220384 0)
(7.3319 -0.0226688 0)
(7.33384 -0.0232817 0)
(7.33569 -0.0238798 0)
(7.33745 -0.0244655 0)
(7.32456 0.0347129 0)
(7.28958 0.0467059 0)
(7.26765 0.0370842 0)
(7.25765 0.0262597 0)
(7.25264 0.0167266 0)
(7.25096 0.00874842 0)
(7.25187 0.00250376 0)
(7.25427 -0.00234128 0)
(7.25751 -0.00618147 0)
(7.26132 -0.00925382 0)
(7.26556 -0.0117275 0)
(7.27004 -0.0137428 0)
(7.27465 -0.0154101 0)
(7.27931 -0.0168086 0)
(7.28396 -0.0179959 0)
(7.28854 -0.0190162 0)
(7.29304 -0.0199042 0)
(7.29741 -0.020687 0)
(7.30166 -0.021386 0)
(7.30576 -0.0220178 0)
(7.30972 -0.022596 0)
(7.31352 -0.0231313 0)
(7.31717 -0.0236322 0)
(7.32066 -0.0241059 0)
(7.324 -0.024558 0)
(7.32718 -0.0249932 0)
(7.33022 -0.0254153 0)
(7.3331 -0.0258275 0)
(7.33585 -0.0262326 0)
(7.33846 -0.0266329 0)
(7.34093 -0.0270306 0)
(7.34327 -0.027428 0)
(7.34549 -0.0278279 0)
(7.29575 0.0823963 0)
(7.21821 0.127207 0)
(7.1868 0.128808 0)
(7.18645 0.114379 0)
(7.19338 0.0947858 0)
(7.20248 0.0767469 0)
(7.21296 0.0615392 0)
(7.22375 0.0483344 0)
(7.23444 0.0367093 0)
(7.24497 0.0265746 0)
(7.25523 0.0178518 0)
(7.26511 0.0103864 0)
(7.27454 0.00401062 0)
(7.28351 -0.00142402 0)
(7.29201 -0.00604945 0)
(7.30005 -0.00998488 0)
(7.30764 -0.0133357 0)
(7.31479 -0.0161925 0)
(7.32153 -0.0186323 0)
(7.32788 -0.0207204 0)
(7.33385 -0.0225121 0)
(7.33947 -0.0240541 0)
(7.34475 -0.0253855 0)
(7.34971 -0.0265396 0)
(7.35437 -0.0275442 0)
(7.35874 -0.0284229 0)
(7.36284 -0.0291954 0)
(7.36668 -0.0298784 0)
(7.37028 -0.030486 0)
(7.37364 -0.0310298 0)
(7.37678 -0.0315197 0)
(7.37971 -0.031963 0)
(7.38243 -0.0323682 0)
(7.32909 -0.158987 0)
(7.19612 -0.292899 0)
(7.13085 -0.292312 0)
(7.10898 -0.259649 0)
(7.10972 -0.226679 0)
(7.13037 -0.19575 0)
(7.16108 -0.167839 0)
(7.19443 -0.144105 0)
(7.22758 -0.124634 0)
(7.25931 -0.108755 0)
(7.28884 -0.0957754 0)
(7.31577 -0.0851745 0)
(7.34003 -0.0765311 0)
(7.36177 -0.0694797 0)
(7.38117 -0.0637136 0)
(7.39843 -0.0589854 0)
(7.41373 -0.0550983 0)
(7.42727 -0.0518939 0)
(7.43924 -0.0492449 0)
(7.44979 -0.0470485 0)
(7.45908 -0.0452223 0)
(7.46724 -0.0436998 0)
(7.47438 -0.0424274 0)
(7.48062 -0.0413618 0)
(7.48604 -0.0404677 0)
(7.49073 -0.0397166 0)
(7.49477 -0.0390852 0)
(7.49821 -0.0385543 0)
(7.50113 -0.0381083 0)
(7.50356 -0.0377342 0)
(7.50557 -0.0374207 0)
(7.50719 -0.0371591 0)
(7.50849 -0.0369373 0)
(7.33045 1.21807 0)
(7.6376 1.24116 0)
(7.81729 0.934087 0)
(7.87343 0.662121 0)
(7.88532 0.462339 0)
(7.87662 0.320594 0)
(7.85215 0.220101 0)
(7.81687 0.148063 0)
(7.77613 0.0958197 0)
(7.7334 0.057654 0)
(7.69028 0.0296479 0)
(7.64756 0.00902633 0)
(7.60576 -0.00618892 0)
(7.56523 -0.0174087 0)
(7.52615 -0.0256501 0)
(7.48857 -0.0316567 0)