/*--------------------------------*- C++ -*----------------------------------*\
  =========                 |
  \\      /  F ield         | OpenFOAM: The Open Source CFD Toolbox
   \\    /   O peration     | Website:  https://openfoam.org
    \\  /    A nd           | Version:  10
     \\/     M anipulation  |
\*---------------------------------------------------------------------------*/
FoamFile
{
    format      ascii;
    class       volScalarField;
    location    "1200";
    object      yPlus;
}
// * * * * * * * * * * * * * * * * * * * * * * * * * * * * * * * * * * * * * //

dimensions      [0 0 0 0 0 0 0];

internalField   uniform 0;

boundaryField
{
    outlet
    {
        type            calculated;
        value           uniform 0;
    }
    inlet
    {
        type            calculated;
        value           uniform 0;
    }
    lowerWall
    {
        type            calculated;
        value           nonuniform List<scalar> 
148
(
12.7112
17.6462
20.7196
22.3203
23.0459
23.2746
23.2254
23.0255
22.751
22.4469
22.1389
21.8405
21.5586
21.2962
21.0538
20.8308
20.626
20.4378
20.2649
20.1058
19.959
19.8234
19.6978
19.5813
19.473
19.372
19.2777
19.1894
19.1062
19.0289
18.9504
18.9053
18.6914
0.398549
2.16407
3.90139
5.23311
6.33074
7.24822
8.11486
8.98587
9.85402
10.8725
11.5876
11.9819
11.9243
11.4007
10.7366
0.398549
3.35882
4.97712
5.74272
5.92662
5.79493
5.49281
5.1
4.58116
3.28585
1.09276
8.03052
8.9677
13.7776
18.5504
22.1054
25.1178
27.7553
30.1086
32.2295
34.1495
35.8898
37.4688
38.9038
40.2134
41.4151
42.5267
43.5639
44.5404
45.4676
46.3547
47.2084
48.0343
48.8366
49.619
50.3855
51.1412
51.8927
52.6447
53.3818
54.1096
54.8281
55.5368
56.2347
56.9201
57.5916
58.2474
58.8858
59.5047
60.1021
60.6759
61.2237
61.7434
62.2327
62.6892
63.1105
63.4946
63.8389
64.1418
64.4015
64.6168
64.7862
64.909
64.985
65.0129
64.9932
64.9254
64.8091
64.6431
64.4226
64.1868
63.9505
63.6663
63.3345
62.9644
62.5634
62.1377
61.6906
61.2259
60.747
60.2567
59.758
59.2537
58.7464
58.2386
57.7322
57.2292
56.7313
56.2399
55.7567
55.2828
54.82
54.3687
53.9326
53.5099
53.1089
52.7262
52.3793
52.0766
51.8307
)
;
    }
    upperWall
    {
        type            calculated;
        value           nonuniform List<scalar> 
133
(
31.2591
34.0073
36.6584
39.0132
41.0752
42.889
44.4881
45.8973
47.1377
48.2283
49.1859
50.0257
50.7609
51.4035
51.9643
52.4525
52.8767
53.2444
53.5621
53.8356
54.0702
54.2705
54.4403
54.5835
54.703
54.8017
54.882
54.9462
54.9961
55.0334
55.0597
55.0762
55.0845
55.0839
55.0724
55.0501
55.0172
54.9745
54.9223
54.8613
54.7919
54.7146
54.6298
54.5379
54.4393
54.3343
54.2232
54.1063
53.9838
53.856
53.7229
53.5848
53.4417
53.2937
53.1408
52.9831
52.8205
52.653
52.4804
52.3026
52.1196
51.9311
51.737
51.5371
51.3311
51.1187
50.8999
50.6742
50.4414
50.2012
49.9534
49.6977
49.4339
49.1618
48.881
48.5914
48.293
47.9855
47.6689
47.3432
47.0084
46.6646
46.3121
45.951
45.5817
45.2047
44.8205
44.4297
44.0331
43.6316
43.2261
42.8177
42.4076
41.9971
41.5876
41.1807
40.7777
40.3803
39.9901
39.6088
39.2379
38.879
38.5334
38.2026
37.8877
37.5895
37.309
37.0466
36.8027
36.5773
36.3702
36.181
36.0091
35.8535
35.7133
35.5872
35.4741
35.3723
35.2807
35.1976
35.1217
35.0516
34.9861
34.9237
34.8634
34.8038
34.7442
34.6833
34.6201
34.555
34.4809
34.4211
34.2885
)
;
    }
    frontAndBack
    {
        type            empty;
    }
}


// ************************************************************************* //
