/*--------------------------------*- C++ -*----------------------------------*\
  =========                 |
  \\      /  F ield         | OpenFOAM: The Open Source CFD Toolbox
   \\    /   O peration     | Website:  https://openfoam.org
    \\  /    A nd           | Version:  10
     \\/     M anipulation  |
\*---------------------------------------------------------------------------*/
FoamFile
{
    format      ascii;
    class       volScalarField;
    location    "1900";
    object      k;
}
// * * * * * * * * * * * * * * * * * * * * * * * * * * * * * * * * * * * * * //

dimensions      [0 2 -2 0 0 0 0];

internalField   nonuniform List<scalar> 
6820
(
0.318932
0.614648
0.847397
0.983377
1.04836
1.06927
1.06475
1.0465
1.0217
0.994572
0.967459
0.941555
0.917413
0.895215
0.874952
0.856513
0.839751
0.824502
0.810609
0.797926
0.786319
0.77567
0.765875
0.756842
0.748491
0.740749
0.733552
0.726846
0.720558
0.714749
0.708799
0.705424
0.691378
0.838908
1.45739
1.5306
1.40689
1.25037
1.11087
0.996111
0.903238
0.827887
0.76631
0.715544
0.673419
0.638188
0.608546
0.583483
0.562195
0.544041
0.528503
0.515164
0.50368
0.493771
0.485204
0.477784
0.471351
0.465767
0.460921
0.456714
0.453071
0.449918
0.447226
0.444884
0.443163
0.441282
0.379893
0.662258
0.793337
0.827975
0.818186
0.790402
0.756381
0.72117
0.686891
0.654427
0.624111
0.596043
0.570195
0.546474
0.524757
0.504903
0.48677
0.470214
0.455101
0.441303
0.428703
0.417192
0.406671
0.397051
0.388251
0.380196
0.37282
0.366064
0.359872
0.354202
0.349
0.344259
0.339892
0.246132
0.3393
0.411878
0.458885
0.485704
0.49888
0.503287
0.502158
0.497535
0.490704
0.482486
0.473435
0.46393
0.454239
0.44455
0.434992
0.425659
0.41661
0.407888
0.399514
0.391503
0.383859
0.376578
0.369655
0.363079
0.356841
0.350925
0.34532
0.340011
0.334984
0.330224
0.325725
0.321457
0.216724
0.25341
0.285799
0.312244
0.332455
0.347125
0.357301
0.364011
0.368096
0.370197
0.370789
0.37023
0.368792
0.366686
0.364075
0.361089
0.357829
0.354377
0.350797
0.347142
0.343452
0.339759
0.33609
0.332465
0.328898
0.325402
0.321987
0.318658
0.315421
0.312279
0.309234
0.306288
0.30344
0.2067
0.22375
0.239981
0.254416
0.266684
0.276738
0.28477
0.291069
0.295923
0.299585
0.302262
0.304127
0.305322
0.305962
0.306143
0.305944
0.305432
0.304663
0.303682
0.30253
0.30124
0.299841
0.298355
0.296804
0.295204
0.293571
0.291915
0.290249
0.28858
0.286917
0.285265
0.28363
0.282019
0.202776
0.211442
0.220463
0.228911
0.236465
0.243012
0.248579
0.253258
0.257158
0.260378
0.263012
0.265139
0.26683
0.268145
0.269136
0.269846
0.270314
0.270573
0.270652
0.270576
0.270366
0.270042
0.26962
0.269115
0.26854
0.267905
0.267222
0.266498
0.265741
0.264958
0.264155
0.263338
0.262512
0.201168
0.205683
0.210952
0.216189
0.221064
0.22544
0.229296
0.232659
0.235575
0.238089
0.240245
0.242083
0.243642
0.244952
0.246043
0.246939
0.247664
0.248237
0.248676
0.248995
0.249208
0.249329
0.249367
0.249332
0.249234
0.24908
0.248876
0.24863
0.248347
0.248032
0.24769
0.247325
0.246941
0.200484
0.202809
0.205913
0.20924
0.212483
0.215494
0.218222
0.220663
0.222834
0.224755
0.226448
0.227934
0.229235
0.230369
0.231352
0.232201
0.232928
0.233546
0.234066
0.234497
0.234849
0.23513
0.235347
0.235505
0.235613
0.235673
0.235692
0.235675
0.235624
0.235544
0.235438
0.23531
0.235162
0.200184
0.20134
0.203132
0.205234
0.207404
0.209501
0.211457
0.21325
0.214879
0.216349
0.217669
0.218852
0.219908
0.220849
0.221684
0.222423
0.223075
0.223648
0.224148
0.224583
0.224958
0.225279
0.225551
0.225778
0.225964
0.226113
0.226229
0.226315
0.226373
0.226407
0.226419
0.226411
0.226386
0.200051
0.200588
0.201579
0.202869
0.204298
0.205746
0.207146
0.208465
0.209689
0.210815
0.211845
0.212781
0.213631
0.214399
0.215093
0.215717
0.216278
0.21678
0.217229
0.217628
0.217983
0.218295
0.21857
0.21881
0.219018
0.219197
0.219349
0.219477
0.219583
0.219669
0.219737
0.219789
0.219826
0.199992
0.200208
0.200718
0.201471
0.202377
0.203351
0.204335
0.205293
0.206205
0.207061
0.207858
0.208595
0.209273
0.209895
0.210464
0.210983
0.211456
0.211885
0.212274
0.212626
0.212943
0.213229
0.213485
0.213714
0.213918
0.214099
0.214259
0.2144
0.214523
0.21463
0.214722
0.214801
0.214867
0.199966
0.200017
0.200248
0.200654
0.201196
0.201823
0.202489
0.203165
0.203829
0.204469
0.205076
0.205648
0.206182
0.206679
0.20714
0.207565
0.207957
0.208317
0.208647
0.208949
0.209225
0.209477
0.209706
0.209915
0.210103
0.210274
0.210428
0.210566
0.21069
0.210802
0.210901
0.21099
0.211068
0.199954
0.199924
0.199997
0.200187
0.200483
0.200858
0.201286
0.201741
0.202206
0.202669
0.203119
0.203552
0.203964
0.204353
0.204718
0.20506
0.205379
0.205675
0.20595
0.206204
0.206439
0.206655
0.206855
0.207038
0.207206
0.207359
0.2075
0.207629
0.207746
0.207854
0.207951
0.20804
0.208121
0.199949
0.199879
0.199866
0.199926
0.200061
0.200262
0.200513
0.200799
0.201107
0.201425
0.201744
0.20206
0.202367
0.202662
0.202944
0.203212
0.203464
0.203702
0.203925
0.204134
0.204329
0.20451
0.204678
0.204835
0.20498
0.205114
0.205239
0.205354
0.20546
0.205558
0.205649
0.205733
0.20581
0.199947
0.199858
0.199799
0.199785
0.19982
0.199903
0.200029
0.200189
0.200374
0.200577
0.200789
0.201006
0.201223
0.201437
0.201646
0.201847
0.202041
0.202225
0.202401
0.202566
0.202723
0.20287
0.203009
0.203138
0.20326
0.203373
0.20348
0.203579
0.203672
0.203758
0.203839
0.203915
0.203985
0.199947
0.199848
0.199766
0.19971
0.199685
0.199693
0.199734
0.199804
0.199898
0.20001
0.200137
0.200273
0.200415
0.20056
0.200704
0.200848
0.200988
0.201124
0.201256
0.201382
0.201503
0.201618
0.201727
0.201831
0.201929
0.202021
0.202109
0.202191
0.202269
0.202343
0.202412
0.202478
0.202539
0.199946
0.199843
0.19975
0.199672
0.199612
0.199575
0.19956
0.199568
0.199596
0.199642
0.199702
0.199774
0.199855
0.199941
0.200032
0.200125
0.200219
0.200312
0.200404
0.200494
0.200582
0.200667
0.200749
0.200827
0.200903
0.200975
0.201044
0.20111
0.201172
0.201232
0.201289
0.201344
0.201396
0.199946
0.199841
0.199743
0.199652
0.199574
0.199509
0.19946
0.199428
0.199411
0.199409
0.19942
0.199443
0.199475
0.199515
0.199562
0.199612
0.199666
0.199723
0.19978
0.199838
0.199896
0.199954
0.20001
0.200066
0.20012
0.200172
0.200223
0.200273
0.200321
0.200367
0.200412
0.200455
0.200497
0.199946
0.199841
0.199739
0.199643
0.199554
0.199474
0.199405
0.199347
0.199301
0.199266
0.199243
0.19923
0.199226
0.19923
0.199241
0.199257
0.199279
0.199304
0.199332
0.199363
0.199395
0.199428
0.199462
0.199497
0.199532
0.199567
0.199601
0.199635
0.199669
0.199703
0.199736
0.199768
0.1998
0.199946
0.19984
0.199737
0.199638
0.199544
0.199456
0.199375
0.199302
0.199237
0.199181
0.199135
0.199097
0.199067
0.199044
0.199029
0.199019
0.199015
0.199016
0.19902
0.199028
0.199039
0.199052
0.199067
0.199084
0.199102
0.199121
0.199141
0.199162
0.199183
0.199205
0.199227
0.19925
0.199272
0.199946
0.19984
0.199736
0.199636
0.199539
0.199446
0.199359
0.199277
0.199202
0.199133
0.199071
0.199017
0.19897
0.198929
0.198895
0.198866
0.198843
0.198825
0.198812
0.198802
0.198796
0.198793
0.198793
0.198796
0.1988
0.198807
0.198815
0.198825
0.198836
0.198848
0.198861
0.198875
0.19889
0.199946
0.19984
0.199736
0.199635
0.199536
0.199441
0.19935
0.199264
0.199182
0.199106
0.199036
0.198972
0.198914
0.198861
0.198815
0.198774
0.198739
0.198708
0.198682
0.198661
0.198643
0.198629
0.198618
0.19861
0.198605
0.198602
0.198602
0.198603
0.198607
0.198611
0.198618
0.198625
0.198634
0.199946
0.19984
0.199736
0.199634
0.199535
0.199439
0.199346
0.199257
0.199173
0.199093
0.199019
0.19895
0.198886
0.198828
0.198775
0.198728
0.198686
0.198648
0.198616
0.198587
0.198563
0.198543
0.198526
0.198512
0.198501
0.198493
0.198488
0.198484
0.198483
0.198483
0.198485
0.198489
0.198494
0.199946
0.19984
0.199735
0.199633
0.199534
0.199438
0.199345
0.199255
0.19917
0.19909
0.199015
0.198945
0.19888
0.198821
0.198767
0.198719
0.198676
0.198637
0.198603
0.198574
0.198549
0.198527
0.198509
0.198494
0.198482
0.198473
0.198466
0.198462
0.198459
0.198459
0.19846
0.198462
0.198466
0.199946
0.199839
0.199735
0.199633
0.199534
0.199438
0.199346
0.199258
0.199175
0.199097
0.199024
0.198958
0.198897
0.198842
0.198793
0.198749
0.19871
0.198676
0.198647
0.198622
0.198601
0.198584
0.19857
0.198559
0.198551
0.198545
0.198541
0.198539
0.19854
0.198541
0.198544
0.198549
0.198554
0.199946
0.19984
0.199735
0.199634
0.199536
0.199442
0.199352
0.199268
0.19919
0.199118
0.199053
0.198995
0.198944
0.198899
0.198861
0.198828
0.198801
0.198778
0.19876
0.198746
0.198736
0.198728
0.198724
0.198722
0.198722
0.198724
0.198728
0.198733
0.198739
0.198747
0.198755
0.198764
0.198774
0.199946
0.19984
0.199736
0.199636
0.199541
0.199451
0.199368
0.199292
0.199225
0.199167
0.199117
0.199075
0.199042
0.199016
0.198996
0.198983
0.198975
0.198971
0.198971
0.198975
0.198981
0.19899
0.199001
0.199013
0.199026
0.199041
0.199056
0.199072
0.199087
0.199104
0.19912
0.199136
0.199153
0.199946
0.199841
0.199739
0.199643
0.199554
0.199475
0.199405
0.199348
0.199302
0.199268
0.199245
0.199232
0.199229
0.199233
0.199243
0.19926
0.19928
0.199304
0.199331
0.19936
0.19939
0.199421
0.199452
0.199483
0.199514
0.199544
0.199574
0.199603
0.199631
0.199658
0.199684
0.19971
0.199734
0.199947
0.199843
0.199747
0.19966
0.199587
0.19953
0.199491
0.199468
0.199463
0.199472
0.199495
0.199529
0.199572
0.199622
0.199677
0.199736
0.199796
0.199858
0.199919
0.19998
0.20004
0.200098
0.200154
0.200208
0.200259
0.200308
0.200354
0.200398
0.20044
0.200478
0.200515
0.200549
0.200582
0.199948
0.19985
0.199767
0.199705
0.199669
0.199661
0.19968
0.199725
0.199791
0.199875
0.199971
0.200078
0.200189
0.200304
0.20042
0.200534
0.200645
0.200753
0.200857
0.200955
0.201049
0.201137
0.20122
0.201298
0.20137
0.201438
0.201501
0.201559
0.201612
0.201662
0.201708
0.20175
0.201788
0.199951
0.199869
0.199823
0.199821
0.199868
0.199962
0.200096
0.200262
0.200449
0.20065
0.200858
0.201067
0.201273
0.201472
0.201663
0.201844
0.202015
0.202175
0.202324
0.202462
0.202589
0.202707
0.202815
0.202914
0.203005
0.203088
0.203164
0.203232
0.203295
0.203351
0.203402
0.203447
0.203488
0.199959
0.199926
0.199977
0.200121
0.200351
0.200649
0.200993
0.201362
0.201739
0.202113
0.202473
0.202816
0.203137
0.203435
0.20371
0.203963
0.204193
0.204403
0.204593
0.204765
0.204921
0.205061
0.205187
0.205301
0.205402
0.205492
0.205573
0.205644
0.205707
0.205762
0.205811
0.205853
0.205889
0.199987
0.200103
0.200415
0.200903
0.201515
0.202193
0.20289
0.203572
0.204217
0.204816
0.205363
0.205858
0.206302
0.206698
0.207052
0.207365
0.207643
0.207888
0.208104
0.208295
0.208463
0.208609
0.208738
0.208849
0.208946
0.209029
0.2091
0.20916
0.20921
0.209252
0.209285
0.209311
0.20933
0.200091
0.200674
0.201674
0.202931
0.204281
0.205607
0.206838
0.207945
0.208922
0.209772
0.210508
0.211141
0.211683
0.212148
0.212546
0.212885
0.213174
0.213421
0.213629
0.213806
0.213954
0.214077
0.214179
0.214261
0.214327
0.214377
0.214415
0.21444
0.214455
0.21446
0.214457
0.214446
0.214429
0.200506
0.202612
0.20538
0.20823
0.210863
0.213156
0.215082
0.216669
0.217964
0.219015
0.219866
0.220552
0.221105
0.22155
0.221907
0.222191
0.222416
0.222592
0.222726
0.222824
0.222893
0.222937
0.222958
0.22296
0.222946
0.222917
0.222875
0.222821
0.222758
0.222686
0.222606
0.222518
0.222425
0.202133
0.209235
0.216717
0.222799
0.227378
0.23075
0.233208
0.234988
0.236273
0.237193
0.237847
0.238306
0.238619
0.238825
0.238946
0.239003
0.239008
0.238971
0.2389
0.238799
0.238674
0.238527
0.238362
0.238181
0.237986
0.237778
0.237559
0.237331
0.237094
0.23685
0.236599
0.236343
0.236082
0.208298
0.22678
0.244129
0.257372
0.266317
0.271773
0.274802
0.276303
0.276882
0.276921
0.276649
0.276201
0.275653
0.275051
0.274418
0.273765
0.273101
0.272428
0.271747
0.27106
0.270365
0.269665
0.268959
0.268248
0.267533
0.266815
0.266095
0.265374
0.264653
0.263933
0.263215
0.2625
0.261789
0.245775
0.310442
0.343758
0.358932
0.365581
0.368297
0.368993
0.368462
0.367138
0.3653
0.363136
0.360774
0.358305
0.355793
0.353284
0.350808
0.348387
0.346036
0.343763
0.341573
0.339469
0.337451
0.33552
0.333674
0.33191
0.330227
0.328621
0.32709
0.32563
0.32424
0.322916
0.321656
0.320455
0.214305
0.253643
0.294732
0.333812
0.370031
0.403432
0.434077
0.462012
0.487322
0.510132
0.530592
0.548865
0.565116
0.579516
0.592228
0.603409
0.613209
0.621766
0.629207
0.635651
0.641203
0.64596
0.650011
0.653433
0.656298
0.658669
0.660601
0.662147
0.66335
0.664251
0.664886
0.665285
0.665484
0.749043
0.841604
0.994236
1.18703
1.3891
1.57815
1.7458
1.88869
2.00455
2.09259
2.15405
2.19251
2.21307
2.22092
2.22042
2.21475
2.20601
2.19538
2.18352
2.17075
2.1573
2.14331
2.12896
2.11437
2.0996
2.08468
2.06956
2.05413
2.03826
2.02179
2.00453
1.98632
1.96697
1.94628
1.92406
1.90016
1.87446
1.84686
1.81731
1.78576
1.75221
1.71669
1.67926
1.64003
1.59916
1.55685
1.51333
1.46886
1.42374
1.3783
1.33288
1.28784
1.24354
1.20033
1.15856
1.11853
1.08052
1.0448
1.01155
0.980946
0.953101
0.928089
0.905942
0.886657
0.870193
0.856485
0.84544
0.836947
0.83088
0.827098
0.825452
0.825784
0.827932
0.831726
0.836994
0.843559
0.851241
0.859862
0.869239
0.879194
0.88955
0.900137
0.910789
0.921345
0.931659
0.941592
0.951019
0.959826
0.96791
0.975187
0.981578
0.987024
0.991466
0.99488
0.997212
0.998475
0.998649
0.997682
0.996129
0.992173
0.439919
0.448722
0.469632
0.505796
0.557329
0.623112
0.701647
0.791351
0.890988
0.998236
1.10814
1.21575
1.31674
1.40766
1.48649
1.55253
1.60614
1.64825
1.68027
1.7037
1.71991
1.73013
1.73546
1.73675
1.73469
1.72982
1.72252
1.71309
1.70173
1.68859
1.67374
1.65723
1.63909
1.61931
1.59787
1.57476
1.54996
1.52347
1.49532
1.46555
1.43423
1.40144
1.36732
1.33199
1.29565
1.25849
1.22075
1.18269
1.14457
1.10667
1.06928
1.0327
0.997188
0.963021
0.930438
0.899657
0.870864
0.844214
0.819824
0.797781
0.778137
0.760912
0.746099
0.733666
0.723562
0.715717
0.710046
0.706457
0.704846
0.705103
0.707113
0.710758
0.715913
0.722449
0.730236
0.739135
0.749005
0.759703
0.771082
0.782989
0.795276
0.807794
0.820392
0.832924
0.845253
0.857246
0.868779
0.879738
0.890018
0.899529
0.908186
0.915923
0.922673
0.928402
0.933051
0.936622
0.939088
0.940403
0.940974
0.940053
0.335261
0.330731
0.327052
0.324911
0.325404
0.329513
0.337981
0.351546
0.371367
0.398849
0.434929
0.480007
0.533736
0.594926
0.66171
0.731817
0.802758
0.872077
0.937721
0.997597
1.05057
1.09621
1.13454
1.1659
1.19079
1.20993
1.22392
1.2333
1.23857
1.24016
1.23848
1.23382
1.22646
1.2166
1.20444
1.19012
1.17381
1.15562
1.1357
1.11419
1.09123
1.06698
1.04163
1.01534
0.988309
0.960755
0.932893
0.904949
0.877156
0.849742
0.822935
0.796951
0.771994
0.74825
0.725884
0.705039
0.685833
0.668357
0.65268
0.638845
0.626874
0.616768
0.608513
0.602079
0.597424
0.594497
0.59324
0.593588
0.595473
0.598823
0.603561
0.609609
0.616885
0.6253
0.634763
0.645178
0.656438
0.668441
0.681066
0.694195
0.707707
0.721472
0.735359
0.749238
0.762982
0.776466
0.789569
0.802177
0.814184
0.825495
0.836017
0.845678
0.854404
0.862148
0.868845
0.874484
0.87903
0.882443
0.88498
0.886902
0.316776
0.311658
0.306655
0.301806
0.297267
0.293229
0.289894
0.287478
0.286279
0.286607
0.288948
0.293854
0.301906
0.313626
0.329455
0.349664
0.374369
0.403373
0.436317
0.47234
0.510431
0.5493
0.587841
0.624751
0.659299
0.690677
0.718353
0.74223
0.762271
0.778596
0.791368
0.800765
0.807004
0.810306
0.810891
0.808975
0.804767
0.798466
0.790269
0.780368
0.768954
0.756218
0.742352
0.72755
0.712007
0.695919
0.679483
0.662891
0.646334
0.629996
0.614049
0.598657
0.583968
0.570116
0.557219
0.545375
0.534665
0.525155
0.516891
0.509906
0.504218
0.499835
0.496751
0.494956
0.49443
0.495148
0.497083
0.500203
0.504473
0.509856
0.516313
0.523802
0.532276
0.541685
0.551972
0.563076
0.574929
0.587458
0.600574
0.61419
0.628208
0.642521
0.65702
0.671592
0.686121
0.70049
0.714584
0.728294
0.741509
0.754133
0.766068
0.777234
0.787547
0.796951
0.805372
0.812786
0.819152
0.824425
0.828728
0.833241
0.300239
0.296664
0.293116
0.289577
0.286051
0.282569
0.279172
0.275911
0.272849
0.270061
0.267639
0.265697
0.264381
0.263864
0.264343
0.26603
0.269157
0.273941
0.280603
0.289281
0.300059
0.312855
0.327538
0.343755
0.361181
0.379324
0.397682
0.415723
0.433065
0.449297
0.464078
0.477224
0.488596
0.498125
0.5058
0.51165
0.515738
0.518149
0.518988
0.518375
0.516437
0.513315
0.509149
0.50409
0.498285
0.491887
0.485043
0.477902
0.470605
0.463289
0.456084
0.44911
0.442477
0.436285
0.430622
0.425564
0.421177
0.417514
0.414618
0.412524
0.411256
0.410832
0.411265
0.412559
0.414718
0.417739
0.421619
0.426352
0.431929
0.438341
0.445577
0.45362
0.462455
0.472058
0.482404
0.493458
0.505186
0.517537
0.530457
0.543883
0.557739
0.571944
0.586408
0.601039
0.615732
0.630382
0.644884
0.65913
0.673015
0.686438
0.699299
0.711512
0.722985
0.73365
0.74343
0.752282
0.760161
0.767012
0.772838
0.779631
0.280166
0.278052
0.275914
0.273741
0.271521
0.269258
0.266964
0.264658
0.262358
0.260086
0.257865
0.255721
0.25369
0.251811
0.250134
0.248718
0.247635
0.246962
0.246792
0.24722
0.248345
0.250249
0.253005
0.256646
0.261185
0.266583
0.272775
0.279621
0.286991
0.294702
0.302556
0.310359
0.31793
0.325111
0.331768
0.337793
0.343108
0.347663
0.351436
0.354425
0.356652
0.358152
0.358978
0.359193
0.35887
0.358087
0.356927
0.355478
0.353825
0.352055
0.350251
0.348493
0.346856
0.345412
0.344222
0.343346
0.342834
0.342731
0.343076
0.343902
0.345238
0.347106
0.349527
0.352516
0.356087
0.360252
0.365022
0.370404
0.376407
0.383038
0.390302
0.398203
0.406741
0.415914
0.42572
0.436147
0.447184
0.458797
0.470961
0.483638
0.496772
0.510307
0.524172
0.538295
0.552588
0.566961
0.581317
0.595558
0.609583
0.623292
0.636585
0.649372
0.661556
0.67306
0.683801
0.693721
0.702769
0.710882
0.717949
0.726666
0.261538
0.260398
0.259218
0.257991
0.256708
0.255367
0.253973
0.252534
0.251059
0.249557
0.248035
0.246504
0.244972
0.243452
0.241957
0.240503
0.239112
0.237807
0.236618
0.235578
0.234725
0.234099
0.233744
0.233698
0.234
0.234675
0.235748
0.23722
0.239088
0.241326
0.2439
0.246753
0.249824
0.253041
0.256333
0.259627
0.262854
0.265955
0.26888
0.271591
0.274059
0.276269
0.278217
0.279909
0.281359
0.282591
0.283635
0.284527
0.285304
0.28601
0.286688
0.287382
0.288136
0.288993
0.289992
0.291172
0.292568
0.294212
0.296135
0.298362
0.300917
0.303822
0.307097
0.310758
0.314822
0.319305
0.324222
0.329586
0.335413
0.341717
0.348511
0.355808
0.36362
0.37196
0.38084
0.390257
0.400222
0.410718
0.421738
0.433265
0.445266
0.457704
0.47053
0.48369
0.497117
0.510735
0.524462
0.538212
0.551891
0.565405
0.578657
0.591557
0.604006
0.615921
0.627213
0.637813
0.647665
0.656699
0.664701
0.674943
0.246472
0.245903
0.245295
0.244644
0.243943
0.243191
0.242387
0.241535
0.240642
0.23971
0.238745
0.237751
0.236731
0.23569
0.234633
0.233566
0.232494
0.231428
0.230375
0.229348
0.22836
0.227427
0.226568
0.225803
0.225151
0.224633
0.22427
0.224079
0.224074
0.224265
0.224658
0.225251
0.226036
0.227001
0.228127
0.229391
0.230767
0.232228
0.233747
0.235301
0.236867
0.238426
0.239966
0.241477
0.242956
0.244403
0.245824
0.247229
0.248632
0.250047
0.251495
0.252996
0.254571
0.256243
0.258034
0.259965
0.262057
0.264331
0.266806
0.269498
0.272425
0.275601
0.279042
0.282761
0.286772
0.291089
0.295726
0.300696
0.306016
0.311699
0.317764
0.324224
0.331102
0.338413
0.346176
0.354398
0.363099
0.372281
0.381946
0.392095
0.402715
0.413786
0.425279
0.437159
0.449377
0.461876
0.474592
0.487451
0.500373
0.513274
0.526063
0.538651
0.550947
0.562861
0.574305
0.5852
0.595485
0.605087
0.613706
0.625045
0.234967
0.234715
0.23443
0.234111
0.233752
0.23335
0.232906
0.232422
0.231899
0.231341
0.23075
0.230128
0.229478
0.228802
0.228102
0.227381
0.226642
0.225888
0.225123
0.224351
0.223577
0.222807
0.22205
0.221313
0.220608
0.219944
0.219334
0.21879
0.218323
0.217946
0.217667
0.217497
0.217441
0.217503
0.217686
0.217987
0.218403
0.218929
0.219558
0.220282
0.221093
0.221983
0.222946
0.223975
0.225068
0.226222
0.227436
0.228715
0.23006
0.23148
0.23298
0.23457
0.23626
0.238061
0.239983
0.242037
0.244235
0.246587
0.249104
0.251794
0.254669
0.257736
0.261005
0.264485
0.268185
0.272114
0.276283
0.280704
0.28539
0.290352
0.295608
0.301175
0.307072
0.313318
0.319932
0.326931
0.334335
0.34216
0.350417
0.359115
0.368259
0.377843
0.387856
0.398279
0.409082
0.420227
0.431668
0.443346
0.455198
0.467151
0.479127
0.491044
0.502818
0.514361
0.525588
0.536413
0.546774
0.556597
0.565518
0.577514
0.226336
0.226256
0.22615
0.226016
0.225853
0.225656
0.225426
0.225164
0.22487
0.224546
0.224195
0.223816
0.223413
0.222986
0.222537
0.222068
0.22158
0.221076
0.220556
0.220023
0.219478
0.218925
0.218367
0.217807
0.217251
0.216704
0.216173
0.215665
0.215187
0.214748
0.214356
0.214018
0.213742
0.213536
0.213405
0.213355
0.213391
0.213515
0.213729
0.214036
0.214434
0.214925
0.215508
0.216182
0.216949
0.217808
0.218761
0.219809
0.220955
0.222201
0.223552
0.225012
0.226585
0.228277
0.230093
0.232037
0.234115
0.236332
0.238692
0.241199
0.243858
0.246673
0.249647
0.252785
0.256093
0.259574
0.263237
0.267089
0.271138
0.275397
0.279879
0.284598
0.289572
0.294818
0.300356
0.306206
0.312389
0.318925
0.325833
0.333127
0.340823
0.348926
0.357439
0.366356
0.375666
0.385347
0.395368
0.405691
0.416267
0.427039
0.437944
0.448911
0.459866
0.470727
0.481417
0.491848
0.501962
0.511678
0.520603
0.532829
0.219852
0.219863
0.219854
0.219824
0.219771
0.219693
0.21959
0.219461
0.219307
0.219129
0.218929
0.218706
0.218464
0.218202
0.217923
0.217627
0.217316
0.216991
0.216652
0.216301
0.21594
0.215568
0.215188
0.214802
0.214413
0.214023
0.213637
0.213258
0.212891
0.212541
0.212213
0.211915
0.211652
0.21143
0.211255
0.211135
0.211074
0.211078
0.211153
0.211302
0.211531
0.211843
0.212242
0.21273
0.213311
0.213988
0.214763
0.215639
0.21662
0.217707
0.218904
0.220213
0.221637
0.223179
0.224841
0.226625
0.228532
0.230564
0.232722
0.235006
0.237417
0.239955
0.242621
0.245416
0.24834
0.251396
0.254588
0.257918
0.261394
0.265023
0.268817
0.272786
0.276945
0.281309
0.285897
0.290728
0.295823
0.301204
0.30689
0.312903
0.31926
0.325977
0.333065
0.34053
0.348372
0.356585
0.365153
0.374053
0.383253
0.392714
0.402386
0.412213
0.422134
0.432078
0.441977
0.451746
0.461335
0.47066
0.479319
0.491377
0.214931
0.214988
0.215031
0.215058
0.215068
0.215058
0.215029
0.21498
0.214912
0.214825
0.214721
0.214599
0.214461
0.214309
0.214143
0.213964
0.213774
0.213574
0.213364
0.213145
0.212918
0.212684
0.212443
0.212197
0.211948
0.211697
0.211447
0.2112
0.21096
0.210729
0.210512
0.210313
0.210136
0.209986
0.20987
0.209791
0.209756
0.209771
0.20984
0.20997
0.210165
0.210431
0.210772
0.211194
0.2117
0.212295
0.212983
0.213767
0.21465
0.215636
0.216727
0.217926
0.219234
0.220652
0.222182
0.223823
0.225576
0.227439
0.229412
0.231492
0.233678
0.235968
0.238358
0.240849
0.243437
0.246123
0.248906
0.251789
0.254775
0.257868
0.261077
0.264409
0.267876
0.271492
0.275271
0.279233
0.283395
0.287778
0.292403
0.297293
0.302466
0.307943
0.313741
0.319873
0.326347
0.333169
0.340335
0.347835
0.355654
0.363764
0.372134
0.380722
0.38948
0.39835
0.407278
0.416185
0.42503
0.433731
0.441895
0.45344
0.211149
0.211229
0.211297
0.211354
0.211397
0.211426
0.211441
0.21144
0.211424
0.211394
0.21135
0.211293
0.211224
0.211144
0.211054
0.210955
0.210849
0.210735
0.210615
0.21049
0.21036
0.210226
0.210089
0.209949
0.209809
0.209669
0.209531
0.209396
0.209268
0.209148
0.209039
0.208944
0.208868
0.208813
0.208784
0.208786
0.208822
0.208899
0.209021
0.209194
0.209422
0.209711
0.210065
0.210491
0.210992
0.211572
0.212237
0.21299
0.213835
0.214774
0.215809
0.216944
0.218178
0.219513
0.220949
0.222485
0.224119
0.225849
0.227673
0.229587
0.231587
0.233671
0.235833
0.23807
0.240379
0.242756
0.245201
0.247712
0.250291
0.252941
0.255664
0.258469
0.261363
0.264358
0.267466
0.270703
0.274084
0.27763
0.281359
0.285292
0.289451
0.293855
0.298525
0.303478
0.308729
0.314288
0.320162
0.326352
0.332852
0.33965
0.346727
0.354054
0.3616
0.369319
0.37717
0.385085
0.393033
0.400938
0.408428
0.419178
0.208206
0.208294
0.208373
0.208444
0.208504
0.208554
0.208593
0.208621
0.208637
0.208642
0.208636
0.208621
0.208597
0.208565
0.208526
0.208482
0.208432
0.208379
0.208322
0.208263
0.208203
0.208142
0.20808
0.20802
0.207962
0.207906
0.207856
0.207811
0.207774
0.207746
0.207731
0.20773
0.207746
0.207782
0.207842
0.20793
0.208049
0.208204
0.208398
0.208638
0.208927
0.20927
0.209671
0.210137
0.21067
0.211275
0.211956
0.212718
0.213562
0.214492
0.21551
0.216618
0.217815
0.219103
0.22048
0.221945
0.223495
0.225128
0.226839
0.228625
0.23048
0.2324
0.234378
0.236411
0.238494
0.240621
0.24279
0.244999
0.247246
0.249532
0.25186
0.254235
0.256661
0.259148
0.261706
0.264347
0.267087
0.26994
0.272926
0.276063
0.279371
0.282869
0.286579
0.290519
0.294707
0.299157
0.303882
0.30889
0.314183
0.31976
0.325612
0.331723
0.338074
0.344632
0.35137
0.35823
0.365194
0.372192
0.378886
0.388633
0.205893
0.20598
0.206062
0.206137
0.206204
0.206264
0.206316
0.206359
0.206393
0.206419
0.206438
0.20645
0.206455
0.206455
0.206451
0.206443
0.206433
0.206422
0.206409
0.206397
0.206387
0.206378
0.206372
0.20637
0.206373
0.206382
0.206398
0.206423
0.206458
0.206505
0.206565
0.206642
0.206737
0.206852
0.206992
0.207159
0.207356
0.207588
0.207857
0.208168
0.208525
0.208933
0.209394
0.209914
0.210496
0.211145
0.211863
0.212655
0.213522
0.214467
0.215491
0.216596
0.217782
0.219048
0.220393
0.221814
0.223309
0.224873
0.226503
0.228192
0.229936
0.231728
0.233562
0.235433
0.237334
0.23926
0.241206
0.24317
0.245149
0.247141
0.249149
0.251173
0.25322
0.255294
0.257405
0.259563
0.261779
0.264068
0.266445
0.268927
0.271532
0.274279
0.277187
0.280275
0.28356
0.287061
0.290792
0.294764
0.298988
0.303466
0.308201
0.313185
0.318408
0.32385
0.329495
0.335297
0.341249
0.347289
0.35312
0.361727
0.204062
0.204144
0.204222
0.204295
0.204363
0.204426
0.204482
0.204533
0.204577
0.204616
0.204649
0.204678
0.204702
0.204723
0.204742
0.204759
0.204776
0.204793
0.204812
0.204834
0.204858
0.204888
0.204922
0.204963
0.205011
0.205068
0.205135
0.205213
0.205304
0.205409
0.20553
0.205669
0.205828
0.20601
0.206217
0.206452
0.206718
0.207018
0.207355
0.207733
0.208156
0.208626
0.209149
0.209726
0.210362
0.211061
0.211824
0.212654
0.213555
0.214527
0.215571
0.216688
0.217877
0.219138
0.220468
0.221864
0.223323
0.22484
0.226411
0.228028
0.229687
0.23138
0.233101
0.234842
0.236598
0.238362
0.240129
0.241895
0.243656
0.24541
0.247158
0.2489
0.250639
0.252379
0.254128
0.255894
0.257686
0.259517
0.261399
0.263348
0.265379
0.267509
0.269757
0.272138
0.274672
0.277375
0.280263
0.28335
0.286649
0.290168
0.293913
0.297884
0.30208
0.306489
0.311105
0.315892
0.320852
0.325934
0.330882
0.338286
0.202607
0.202681
0.202752
0.20282
0.202885
0.202946
0.203002
0.203055
0.203104
0.203149
0.20319
0.203228
0.203264
0.203298
0.203332
0.203366
0.203401
0.203438
0.203479
0.203524
0.203574
0.20363
0.203694
0.203766
0.203847
0.20394
0.204045
0.204163
0.204296
0.204446
0.204614
0.204802
0.205012
0.205247
0.205509
0.2058
0.206123
0.206481
0.206877
0.207313
0.207794
0.208322
0.2089
0.209531
0.210219
0.210966
0.211774
0.212645
0.213581
0.214584
0.215653
0.216788
0.217989
0.219253
0.220577
0.22196
0.223395
0.224879
0.226406
0.227969
0.229561
0.231175
0.232805
0.234443
0.236081
0.237714
0.239335
0.24094
0.242524
0.244085
0.245621
0.247133
0.248623
0.250093
0.251549
0.252998
0.254447
0.255907
0.25739
0.258906
0.260472
0.262101
0.263809
0.265612
0.267526
0.269569
0.271754
0.274098
0.276613
0.279311
0.282201
0.285287
0.288573
0.292055
0.295732
0.299581
0.303606
0.307771
0.311857
0.318056
0.201453
0.201517
0.201579
0.20164
0.201698
0.201754
0.201808
0.20186
0.201909
0.201955
0.202
0.202043
0.202086
0.202128
0.202171
0.202216
0.202263
0.202314
0.202369
0.20243
0.202497
0.202572
0.202657
0.202751
0.202857
0.202975
0.203108
0.203256
0.20342
0.203604
0.203808
0.204034
0.204284
0.20456
0.204865
0.2052
0.205569
0.205974
0.206418
0.206903
0.207432
0.208008
0.208634
0.209312
0.210044
0.210834
0.211682
0.21259
0.21356
0.214592
0.215685
0.216838
0.218052
0.219321
0.220645
0.222019
0.223437
0.224896
0.226387
0.227906
0.229444
0.230994
0.232549
0.234101
0.235642
0.237167
0.238667
0.240139
0.241578
0.24298
0.244344
0.245668
0.246955
0.248205
0.249423
0.250615
0.251788
0.252948
0.254108
0.255276
0.256465
0.257688
0.258959
0.260292
0.261702
0.263204
0.264811
0.266539
0.268401
0.270409
0.272573
0.274901
0.277401
0.280071
0.282916
0.285921
0.289095
0.292408
0.295687
0.300726
0.200544
0.200596
0.200649
0.2007
0.200751
0.200801
0.20085
0.200898
0.200945
0.20099
0.201036
0.201081
0.201126
0.201173
0.201221
0.201272
0.201327
0.201386
0.20145
0.201522
0.201601
0.201689
0.201787
0.201897
0.202019
0.202156
0.202308
0.202477
0.202665
0.202873
0.203103
0.203357
0.203636
0.203944
0.204281
0.204651
0.205055
0.205497
0.205977
0.2065
0.207068
0.207682
0.208346
0.209061
0.20983
0.210654
0.211535
0.212474
0.213471
0.214526
0.215639
0.216807
0.21803
0.219304
0.220626
0.221991
0.223394
0.22483
0.226291
0.227771
0.229262
0.230756
0.232247
0.233725
0.235184
0.236616
0.238015
0.239376
0.240692
0.241962
0.243182
0.244352
0.245471
0.246542
0.247566
0.24855
0.249497
0.250416
0.251314
0.252202
0.253088
0.253984
0.254903
0.255856
0.256858
0.25792
0.259056
0.26028
0.261604
0.26304
0.264599
0.26629
0.268121
0.270095
0.27222
0.274485
0.276903
0.279451
0.281993
0.285955
0.199836
0.199878
0.19992
0.199962
0.200005
0.200048
0.200091
0.200134
0.200177
0.20022
0.200263
0.200308
0.200354
0.200402
0.200453
0.200507
0.200566
0.200629
0.2007
0.200777
0.200864
0.20096
0.201067
0.201187
0.20132
0.201468
0.201633
0.201817
0.20202
0.202245
0.202492
0.202766
0.203066
0.203395
0.203756
0.20415
0.204579
0.205047
0.205555
0.206106
0.206701
0.207344
0.208036
0.208778
0.209574
0.210423
0.211328
0.212288
0.213304
0.214375
0.2155
0.216677
0.217904
0.219178
0.220493
0.221847
0.223232
0.224644
0.226074
0.227517
0.228963
0.230407
0.231838
0.23325
0.234636
0.235987
0.237297
0.238561
0.239774
0.240931
0.24203
0.24307
0.24405
0.244972
0.245837
0.24665
0.247414
0.248137
0.248824
0.249484
0.250126
0.25076
0.251396
0.252044
0.252716
0.253424
0.25418
0.254995
0.255881
0.256849
0.257909
0.259071
0.260344
0.261732