/*--------------------------------*- C++ -*----------------------------------*\
  =========                 |
  \\      /  F ield         | OpenFOAM: The Open Source CFD Toolbox
   \\    /   O peration     | Website:  https://openfoam.org
    \\  /    A nd           | Version:  10
     \\/     M anipulation  |
\*---------------------------------------------------------------------------*/
FoamFile
{
    format      ascii;
    class       volScalarField;
    location    "1900";
    object      nut;
}
// * * * * * * * * * * * * * * * * * * * * * * * * * * * * * * * * * * * * * //

dimensions      [0 2 -1 0 0 0 0];

internalField   nonuniform List<scalar> 
6820
(
5.21161e-05
7.23496e-05
8.49506e-05
9.15131e-05
9.44881e-05
9.54259e-05
9.5224e-05
9.44044e-05
9.32791e-05
9.20324e-05
9.07693e-05
8.95459e-05
8.83904e-05
8.73146e-05
8.63207e-05
8.54063e-05
8.45664e-05
8.37951e-05
8.30861e-05
8.24335e-05
8.18318e-05
8.12758e-05
8.0761e-05
8.02833e-05
7.98391e-05
7.94251e-05
7.90383e-05
7.86762e-05
7.83351e-05
7.80188e-05
7.76956e-05
7.75067e-05
7.67937e-05
0.00148779
0.000914493
0.000722323
0.000566086
0.000444965
0.000364554
0.000311028
0.000273876
0.000246823
0.000226542
0.000210742
0.000198386
0.000188225
0.000179921
0.000173043
0.000167268
0.000162375
0.000158201
0.000154618
0.000151526
0.000148847
0.000146516
0.000144481
0.0001427
0.000141136
0.000139761
0.000138547
0.000137476
0.000136512
0.000135661
0.000134888
0.000134214
0.000133411
0.00388235
0.00172611
0.00129522
0.00105715
0.000883653
0.000756982
0.000663656
0.000593356
0.000538662
0.00049523
0.000459793
0.000430501
0.000405787
0.000384676
0.000366437
0.000350536
0.00033655
0.000324169
0.000313134
0.000303255
0.000294361
0.000286329
0.000279044
0.000272419
0.000266374
0.000260844
0.00025577
0.000251108
0.000246802
0.000242841
0.000239122
0.000235732
0.000232381
0.00701486
0.0030933
0.00211865
0.00169399
0.00142842
0.00124177
0.00110356
0.000997707
0.000914036
0.000846515
0.000790841
0.000744244
0.000704627
0.00067054
0.000640856
0.000614798
0.000591689
0.000571093
0.000552563
0.000535857
0.000520648
0.00050682
0.000494102
0.00048247
0.000471667
0.000461753
0.00045245
0.000443907
0.000435794
0.000428353
0.000421181
0.000414631
0.000408164
0.00947863
0.00539464
0.00361892
0.00279676
0.00231358
0.00199145
0.00176049
0.00158676
0.00145105
0.00134224
0.00125305
0.0011787
0.00111573
0.00106176
0.00101494
0.000973976
0.000937768
0.00090559
0.000876723
0.000850758
0.000827178
0.000805769
0.000786121
0.000768155
0.000751511
0.00073621
0.000721909
0.000708707
0.000696264
0.000684732
0.000673772
0.000663571
0.000653777
0.0106282
0.0077634
0.00561755
0.00439956
0.00363522
0.00311496
0.00273997
0.0024579
0.00223822
0.00206258
0.00191909
0.00179982
0.00169916
0.00161315
0.00153881
0.00147397
0.00141689
0.00136632
0.00132114
0.00128061
0.00124396
0.00121076
0.00118045
0.00115276
0.00112725
0.00110379
0.00108203
0.00106189
0.00104308
0.00102558
0.00100912
0.000993724
0.00097915
0.0110845
0.00948062
0.00757881
0.00621462
0.00525
0.00454844
0.00402207
0.00361581
0.00329415
0.00303404
0.00281986
0.00264081
0.0024891
0.00235911
0.00224655
0.00214826
0.00206171
0.001985
0.00191653
0.00185511
0.00179967
0.00174945
0.0017037
0.00166192
0.00162356
0.00158827
0.00155565
0.00152546
0.00149738
0.00147124
0.00144679
0.00142392
0.00140241
0.0112619
0.0104723
0.00911496
0.00788286
0.00688557
0.00609514
0.00546645
0.00496065
0.00454794
0.00420654
0.00392048
0.003678
0.0034703
0.00329072
0.00313412
0.00299655
0.00287483
0.00276649
0.00266949
0.00258223
0.00250332
0.00243168
0.00236636
0.00230661
0.00225173
0.0022012
0.0021545
0.00211125
0.00207106
0.00203364
0.0019987
0.00196601
0.00193535
0.0113319
0.0109613
0.0101483
0.00919368
0.00831236
0.00754597
0.00689415
0.00634289
0.00587564
0.00547744
0.00513576
0.00484048
0.00458348
0.00435829
0.00415971
0.00398356
0.00382644
0.00368558
0.00355871
0.00344394
0.00333968
0.00324463
0.00315767
0.00307786
0.00300437
0.00293652
0.0028737
0.00281541
0.00276117
0.0027106
0.00266335
0.00261911
0.00257762
0.0113604
0.011191
0.0107577
0.0101061
0.00941912
0.00876179
0.00816143
0.00762515
0.00715071
0.0067323
0.00636312
0.00603663
0.00574692
0.00548885
0.00525806
0.00505082
0.00486401
0.00469496
0.00454144
0.00440155
0.00427365
0.00415637
0.00404851
0.00394905
0.00385709
0.00377187
0.0036927
0.003619
0.00355025
0.00348599
0.00342582
0.00336939
0.00331639
0.0113724
0.0112961
0.0110835
0.0106835
0.0102001
0.00969075
0.00919015
0.00871656
0.00827792
0.00787638
0.00751102
0.00717947
0.00687877
0.00660587
0.00635782
0.00613193
0.00592576
0.00573715
0.00556418
0.00540518
0.00525867
0.00512338
0.00499815
0.004882
0.00477404
0.00467351
0.00457971
0.00449205
0.00440997
0.004333
0.00426072
0.00419274
0.00412873
0.0113776
0.0113432
0.0112429
0.0110225
0.0107093
0.010347
0.00996381
0.0095792
0.00920549
0.00884962
0.00851496
0.0082027
0.00791267
0.007644
0.0073954
0.00716543
0.00695261
0.00675551
0.00657276
0.0064031
0.00624538
0.00609854
0.00596162
0.00583378
0.00571423
0.00560227
0.00549727
0.00539867
0.00530595
0.00521865
0.00513637
0.00505871
0.00498537
0.01138
0.0113641
0.0113177
0.0112066
0.0110186
0.0107798
0.0105077
0.0102177
0.00992165
0.00962789
0.0093419
0.00906704
0.00880518
0.0085572
0.00832327
0.00810316
0.00789638
0.00770227
0.00752011
0.00734915
0.00718865
0.00703788
0.00689615
0.00676281
0.00663727
0.00651895
0.00640735
0.00630197
0.0062024
0.00610821
0.00601905
0.00593458
0.00585449
0.0113814
0.0113732
0.0113518
0.0112994
0.0111948
0.0110479
0.0108673
0.0106628
0.0104433
0.010216
0.00998659
0.00975918
0.00953663
0.00932089
0.00911314
0.00891408
0.00872401
0.00854299
0.00837089
0.00820745
0.00805235
0.00790524
0.00776571
0.00763336
0.00750781
0.00738866
0.00727555
0.00716812
0.00706604
0.00696899
0.00687668
0.00678883
0.00670518
0.0113823
0.0113772
0.011367
0.0113426
0.0112898
0.0112045
0.0110919
0.0109563
0.0108031
0.0106375
0.010464
0.0102863
0.0101076
0.00992993
0.00975513
0.00958437
0.0094185
0.00925805
0.00910337
0.0089546
0.0088118
0.00867492
0.00854383
0.0084184
0.00829842
0.00818371
0.00807405
0.00796922
0.00786901
0.0077732
0.00768158
0.00759397
0.00751016
0.0113826
0.0113796
0.0113738
0.0113622
0.0113373
0.011291
0.0112247
0.0111398
0.0110388
0.0109247
0.0108005
0.0106691
0.0105329
0.0103941
0.0102543
0.010115
0.00997716
0.00984165
0.00970905
0.00957979
0.00945418
0.00933241
0.0092146
0.00910079
0.00899097
0.00888512
0.00878317
0.00868502
0.00859057
0.00849973
0.00841237
0.00832837
0.00824761
0.0113825
0.0113808
0.0113772
0.011371
0.0113592
0.0113362
0.0112992
0.0112488
0.0111857
0.0111111
0.0110267
0.0109344
0.0108358
0.0107325
0.0106261
0.0105178
0.0104085
0.0102992
0.0101906
0.0100832
0.00997743
0.00987368
0.00977219
0.00967315
0.00957669
0.0094829
0.00939182
0.00930348
0.00921788
0.009135
0.0090548
0.00897724
0.00890226
0.0113825
0.0113812
0.0113791
0.0113752
0.0113691
0.0113581
0.0113388
0.0113103
0.0112727
0.0112264
0.0111719
0.0111101
0.0110421
0.0109689
0.0108916
0.0108111
0.0107284
0.0106441
0.0105589
0.0104734
0.0103881
0.0103033
0.0102194
0.0101366
0.0100552
0.00997526
0.00989698
0.00982044
0.0097457
0.00967282
0.00960183
0.00953274
0.00946555
0.0113825
0.0113813
0.0113798
0.0113776
0.0113737
0.011368
0.0113586
0.0113433
0.0113219
0.0112944
0.0112608
0.0112213
0.0111765
0.011127
0.0110734
0.0110162
0.0109562
0.010894
0.01083
0.0107647
0.0106987
0.0106321
0.0105654
0.0104989
0.0104327
0.0103672
0.0103023
0.0102384
0.0101754
0.0101136
0.0100529
0.00999342
0.00993522
0.0113824
0.0113813
0.01138
0.0113785
0.0113762
0.0113727
0.0113676
0.0113599
0.0113483
0.0113326
0.0113127
0.0112886
0.0112604
0.0112283
0.0111927
0.0111538
0.0111121
0.011068
0.0110219
0.0109741
0.0109249
0.0108746
0.0108236
0.0107721
0.0107203
0.0106683
0.0106165
0.0105649
0.0105136
0.0104628
0.0104126
0.010363
0.0103142
0.0113824
0.0113813
0.0113801
0.0113788
0.0113773
0.0113751
0.0113721
0.0113676
0.0113616
0.0113531
0.0113418
0.0113275
0.0113104
0.0112904
0.0112677
0.0112423
0.0112145
0.0111844
0.0111524
0.0111186
0.0110833
0.0110467
0.011009
0.0109704
0.0109311
0.0108913
0.0108512
0.0108108
0.0107702
0.0107297
0.0106894
0.0106492
0.0106092
0.0113824
0.0113812
0.0113801
0.0113789
0.0113776
0.0113761
0.0113742
0.0113716
0.011368
0.0113633
0.0113572
0.0113489
0.0113389
0.0113268
0.0113127
0.0112967
0.0112787
0.0112588
0.0112373
0.0112141
0.0111895
0.0111636
0.0111365
0.0111083
0.0110793
0.0110495
0.0110191
0.0109882
0.0109568
0.0109252
0.0108933
0.0108613
0.0108293
0.0113824
0.0113812
0.0113801
0.0113789
0.0113778
0.0113765
0.0113751
0.0113734
0.0113712
0.0113684
0.0113646
0.01136
0.0113543
0.011347
0.0113384
0.0113284
0.0113169
0.0113039
0.0112896
0.0112739
0.0112569
0.0112387
0.0112193
0.011199
0.0111776
0.0111555
0.0111325
0.011109
0.0110848
0.0110601
0.011035
0.0110096
0.010984
0.0113824
0.0113812
0.0113801
0.0113789
0.0113778
0.0113766
0.0113754
0.0113741
0.0113726
0.0113707
0.0113683
0.0113653
0.0113615
0.0113571
0.0113517
0.0113452
0.0113376
0.0113288
0.0113189
0.0113078
0.0112957
0.0112824
0.0112681
0.0112528
0.0112366
0.0112195
0.0112017
0.0111831
0.0111638
0.011144
0.0111236
0.0111028
0.0110815
0.0113824
0.0113812
0.0113801
0.0113789
0.0113778
0.0113767
0.0113755
0.0113743
0.011373
0.0113715
0.0113696
0.0113674
0.0113644
0.0113609
0.011357
0.0113521
0.0113461
0.0113392
0.0113314
0.0113225
0.0113126
0.0113017
0.0112898
0.011277
0.0112633
0.0112488
0.0112334
0.0112173
0.0112006
0.0111832
0.0111652
0.0111467
0.0111278
0.0113824
0.0113812
0.0113801
0.0113789
0.0113778
0.0113766
0.0113755
0.0113742
0.0113729
0.0113712
0.0113693
0.0113668
0.0113637
0.0113601
0.011356
0.0113507
0.0113446
0.0113375
0.0113294
0.0113204
0.0113103
0.0112992
0.0112872
0.0112743
0.0112604
0.0112458
0.0112303
0.0112141
0.0111972
0.0111797
0.0111617
0.0111431
0.0111241
0.0113824
0.0113812
0.0113801
0.0113789
0.0113778
0.0113766
0.0113753
0.0113738
0.0113719
0.0113697
0.0113669
0.0113633
0.0113591
0.0113538
0.0113475
0.0113402
0.0113317
0.0113221
0.0113114
0.0112996
0.0112867
0.0112727
0.0112577
0.0112418
0.011225
0.0112073
0.0111889
0.0111698
0.0111501
0.0111298
0.011109
0.0110878
0.0110661
0.0113824
0.0113812
0.0113801
0.0113789
0.0113777
0.0113763
0.0113745
0.0113723
0.0113693
0.0113655
0.0113608
0.0113545
0.0113468
0.0113377
0.0113272
0.0113151
0.0113015
0.0112865
0.01127
0.0112523
0.0112333
0.0112132
0.011192
0.0111699
0.0111468
0.0111231
0.0110986
0.0110735
0.0110479
0.0110219
0.0109955
0.0109688
0.0109419
0.0113824
0.0113813
0.0113801
0.0113789
0.0113773
0.0113753
0.0113724
0.0113683
0.011363
0.0113555
0.0113458
0.0113338
0.0113196
0.0113031
0.0112845
0.0112637
0.0112409
0.0112163
0.01119
0.0111622
0.0111331
0.0111028
0.0110715
0.0110393
0.0110063
0.0109728
0.0109388
0.0109044
0.0108698
0.0108349
0.0108
0.0107651
0.0107302
0.0113825
0.0113813
0.0113801
0.0113784
0.011376
0.0113722
0.0113667
0.0113583
0.0113461
0.0113304
0.0113111
0.0112881
0.0112616
0.0112318
0.011199
0.0111635
0.0111257
0.0110857
0.011044
0.0110009
0.0109565
0.0109111
0.0108651
0.0108185
0.0107716
0.0107245
0.0106773
0.0106303
0.0105834
0.0105368
0.0104906
0.0104448
0.0103996
0.0113825
0.0113814
0.0113798
0.0113765
0.011372
0.011364
0.0113499
0.0113298
0.0113037
0.0112714
0.0112333
0.0111899
0.0111418
0.0110896
0.0110339
0.0109753
0.0109144
0.0108517
0.0107878
0.0107229
0.0106575
0.0105919
0.0105263
0.010461
0.0103962
0.010332
0.0102686
0.010206
0.0101444
0.0100837
0.0100242
0.0099658
0.00990853
0.0113826
0.011381
0.0113775
0.0113716
0.0113594
0.0113357
0.0113013
0.0112563
0.0112012
0.0111371
0.0110652
0.0109869
0.0109036
0.0108164
0.0107263
0.0106345
0.0105415
0.0104482
0.010355
0.0102625
0.0101709
0.0100807
0.00999191
0.00990485
0.0098196
0.00973626
0.0096549
0.00957556
0.00949825
0.00942298
0.00934974
0.00927851
0.00920925
0.0113825
0.0113788
0.0113715
0.0113527
0.0113123
0.0112512
0.0111713
0.0110751
0.0109656
0.0108458
0.0107187
0.0105868
0.0104521
0.0103163
0.0101807
0.0100464
0.0099142
0.00978461
0.0096581
0.00953494
0.00941533
0.00929938
0.00918713
0.0090786
0.00897374
0.0088725
0.00877479
0.00868053
0.0085896
0.00850191
0.00841733
0.00833576
0.00825708
0.0113813
0.0113725
0.0113446
0.0112755
0.0111624
0.0110161
0.0108447
0.0106562
0.0104574
0.0102539
0.0100496
0.00984759
0.00964987
0.00945783
0.00927233
0.00909388
0.00892271
0.00875888
0.00860229
0.00845278
0.00831011
0.00817402
0.00804421
0.00792039
0.00780226
0.00768953
0.00758191
0.00747912
0.00738091
0.00728701
0.0071972
0.00711125
0.00702895
0.0113782
0.0113392
0.0112229
0.0110038
0.0107266
0.0104167
0.0100938
0.00977088
0.00945631
0.00915473
0.00886847
0.00859844
0.00834473
0.0081069
0.00788423
0.00767584
0.0074808
0.00729817
0.00712704
0.00696653
0.00681584
0.00667422
0.00654096
0.00641543
0.00629704
0.00618527
0.00607961
0.00597963
0.00588492
0.0057951
0.00570983
0.0056288
0.00555172
0.0113586
0.011167
0.0107276
0.0101788
0.00961591
0.00907913
0.00858445
0.00813532
0.00773015
0.00736507
0.0070357
0.00673806
0.00646846
0.00622361
0.00600061
0.00579694
0.00561039
0.00543907
0.0052813
0.00513565
0.00500085
0.00487581
0.00475957
0.00465127
0.00455016
0.0044556
0.004367
0.00428383
0.00420563
0.004132
0.00406256
0.00399697
0.00393495
0.0112033
0.010286
0.00914596
0.00815385
0.00734259
0.00668178
0.00613782
0.00568277
0.00529723
0.00496617
0.00467942
0.0044291
0.00420901
0.00401425
0.00384087
0.00368569
0.0035461
0.00341996
0.00330548
0.00320118
0.0031058
0.00301828
0.00293771
0.00286334
0.00279448
0.00273057
0.00267111
0.00261566
0.00256384
0.00251531
0.00246977
0.00242697
0.00238668
0.00988212
0.00703463
0.00556295
0.00467247
0.00408052
0.00363708
0.00328471
0.0029951
0.00275426
0.00255229
0.00238143
0.00223562
0.00211013
0.00200124
0.00190603
0.00182219
0.00174785
0.00168155
0.00162207
0.00156843
0.00151982
0.00147559
0.00143516
0.00139808
0.00136394
0.00133242
0.00130323
0.00127611
0.00125086
0.00122729
0.00120523
0.00118456
0.00116514
0.00388335
0.00236715
0.00190983
0.00162451
0.00144088
0.0012837
0.00115041
0.00104218
0.000954484
0.000882868
0.000823743
0.000774363
0.00073264
0.000697014
0.000666295
0.000639586
0.000616175
0.000595518
0.000577169
0.000560784
0.000546068
0.000532798
0.00052077
0.000509835
0.000499845
0.000490702
0.000482292
0.00047455
0.000467386
0.000460761
0.000454595
0.000448871
0.000443515
0.000128162
0.00013943
0.000150299
0.000159954
0.000168408
0.000175845
0.000182401
0.000188179
0.000193265
0.000197736
0.000201662
0.000205105
0.00020812
0.000210755
0.000213053
0.000215055
0.000216795
0.000218302
0.000219604
0.000220726
0.000221688
0.000222509
0.000223205
0.000223792
0.000224282
0.000224687
0.000225016
0.000225279
0.000225484
0.000225637
0.000225745
0.000225813
0.000225846
8.36387e-05
9.99916e-05
0.000126018
0.000161224
0.000202592
0.000247196
0.000293396
0.000339941
0.000385669
0.000429648
0.00047087
0.000509071
0.000544561
0.000577849
0.000609567
0.000640223
0.000670272
0.000699872
0.000729209
0.000758241
0.000786966
0.000815348
0.000843452
0.000871289
0.000898937
0.000926489
0.000953973
0.000981428
0.00100886
0.0010363
0.00106374
0.00109118
0.00111887
0.00114667
0.0011745
0.00120237
0.00123029
0.0012583
0.00128636
0.00131463
0.00134318
0.00137205
0.00140129
0.00143099
0.00146124
0.00149218
0.00152397
0.00155674
0.00159068
0.00162597
0.00166282
0.00170143
0.00174204
0.00178488
0.00183017
0.00187816
0.00192906
0.00198308
0.00204043
0.00210125
0.00216569
0.00223383
0.00230574
0.00238142
0.00246083
0.00254387
0.00263042
0.00272027
0.00281321
0.00290895
0.00300723
0.00310768
0.00321001
0.00331375
0.00341871
0.00352428
0.00363033
0.00373632
0.00384188
0.00394676
0.00405054
0.00415287
0.00425334
0.00435184
0.00444796
0.00454148
0.00463212
0.00471976
0.00480408
0.00488517
0.00496244
0.00503661
0.00510628
0.0051735
0.00523436
0.00529606
0.00534582
0.00540609
0.00543977
0.00550927
0.000132947
0.000134159
0.000137354
0.000144747
0.00015614
0.000170895
0.000189012
0.000210091
0.000235125
0.000264003
0.000295219
0.00032902
0.000364855
0.000401701
0.000438909
0.000475919
0.000512455
0.00054811
0.000583026
0.000616827
0.000649629
0.000681496
0.000712682
0.000743194
0.000773196
0.000802833
0.000832121
0.00086114
0.000889951
0.000918626
0.000947228
0.000975771
0.00100435
0.00103301
0.00106177
0.00109065
0.0011197
0.00114895
0.00117844
0.00120823
0.00123842
0.00126909
0.00130033
0.00133223
0.00136492
0.00139852
0.00143319
0.00146908
0.00150639
0.00154529
0.00158599
0.00162869
0.00167361
0.00172098
0.001771
0.00182387
0.0018798
0.00193897
0.00200151
0.00206755
0.00213717
0.00221041
0.00228727
0.00236771
0.00245163
0.00253888
0.00262929
0.00272262
0.00281865
0.00291705
0.00301757
0.00311983
0.00322359
0.00332835
0.00343404
0.00353996
0.00364624
0.00375215
0.00385749
0.0039621
0.00406551
0.00416742
0.00426746
0.00436566
0.00446149
0.00455481
0.00464536
0.00473302
0.00481749
0.00489885
0.00497651
0.00505119
0.00512155
0.00518928
0.00525126
0.00531331
0.00536508
0.00542466
0.0054621
0.0055316
0.000228927
0.000224944
0.000220699
0.000217197
0.000215523
0.000215765
0.000217987
0.00022213
0.000228592
0.000238205
0.000251223
0.000267998
0.000288392
0.000311901
0.00033806
0.000366431
0.000396495
0.000427985
0.000460878
0.000493013
0.000525586
0.000558336
0.000591155
0.000623347
0.000655371
0.000687033
0.000718124
0.000748873
0.000779354
0.000809683
0.000839877
0.000870009
0.000900139
0.000930335
0.000960661
0.000991183
0.00102197
0.00105308
0.0010846
0.0011166
0.00114917
0.00118242
0.00121644
0.00125138
0.00128734
0.00132448
0.00136294
0.0014029
0.00144454
0.00148803
0.00153358
0.00158137
0.00163161
0.00168448
0.00174017
0.00179886
0.00186068
0.00192576
0.0019942
0.00206604
0.00214132
0.00222001
0.00230203
0.00238727
0.00247559
0.00256679
0.00266065
0.00275691
0.00285533
0.00295555
0.00305738
0.0031604
0.00326444
0.00336901
0.00347417
0.00357913
0.00368435
0.00378877
0.00389256
0.00399559
0.00409729
0.00419745
0.00429581
0.00439251
0.00448688
0.00457887
0.00466828
0.00475496
0.00483864
0.00491937
0.00499662
0.00507107
0.00514139
0.00520894
0.0052715
0.00533327
0.00538669
0.00544491
0.00548588
0.0055547
0.000401277
0.00039344
0.000385279
0.000377459
0.000370573
0.000364493
0.000359251
0.000354695
0.000351066
0.000348315
0.0003469
0.000347012
0.000349312
0.000353868
0.00036133
0.000371499
0.000385083
0.000401452
0.000421558
0.000444027
0.000469179
0.000495352
0.000523832
0.000551802
0.000582368
0.000611763
0.000640859
0.00067096
0.000701459
0.000732248
0.000763079
0.000794137
0.0008254
0.000856935
0.000888811
0.0009211
0.000953875
0.000987216
0.0010212
0.00105593
0.00109149
0.001128
0.00116557
0.00120432
0.00124439
0.00128593
0.00132909
0.00137404
0.00142093
0.00146995
0.00152127
0.00157505
0.00163146
0.00169065
0.00175277
0.00181791
0.00188617
0.00195761
0.00203225
0.00211007
0.00219102
0.00227499
0.00236185
0.00245142
0.00254351
0.00263785
0.00273423
0.00283233
0.00293194
0.00303268
0.00313441
0.00323669
0.00333945
0.00344221
0.0035452
0.00364752
0.00375006
0.00385119
0.00395182
0.00405165
0.00414997
0.00424673
0.00434187
0.00443566
0.00452707
0.00461638
0.00470335
0.00478784
0.00486959
0.00494862
0.00502447
0.00509778
0.00516716
0.00523369
0.00529617
0.00535693
0.00541155
0.00546756
0.00551172
0.00557916
0.00064309
0.000631233
0.000619442
0.000608075
0.000597611
0.000587852
0.00057883
0.000570283
0.000562392
0.000554915
0.000548111
0.000541677
0.000536025
0.000530882
0.000526884
0.000523775
0.000522442
0.000522601
0.000525347
0.000530352
0.000538641
0.000549415
0.000563738
0.000580375
0.000600323
0.000622455
0.000647107
0.000671979
0.000699731
0.000727378
0.000755292
0.000784707
0.000814841
0.000845955
0.00087802
0.000911036
0.000945026
0.000980034
0.00101612
0.00105335
0.00109181
0.00113161
0.00117284
0.00121562
0.00126008
0.00130635
0.00135456
0.00140487
0.00145741
0.00151232
0.00156975
0.00162981
0.00169262
0.00175827
0.00182684
0.00189837
0.00197288
0.00205034
0.0021307
0.00221386
0.00229969
0.00238802
0.00247866
0.00257136
0.00266588
0.00276194
0.0028593
0.00295761
0.00305671
0.00315617
0.00325597
0.00335561
0.00345515
0.00355417
0.00365304
0.00375075
0.00384874
0.00394438
0.0040401
0.00413483
0.00422771
0.00431935
0.00440946
0.0044983
0.00458523
0.00467028
0.00475329
0.00483414
0.00491261
0.00498866
0.00506193
0.00513277
0.0052004
0.00526509
0.00532651
0.00538539
0.00544062
0.00549344
0.00554021
0.00560568
0.000963179
0.00094569
0.000928682
0.000912339
0.000897063
0.000882695
0.000869266
0.00085652
0.000844607
0.000833265
0.000822684
0.00081254
0.000803083
0.00079399
0.000785632
0.000777727
0.000770766
0.000764524
0.000759582
0.000755643
0.000753464
0.000752772
0.00075437
0.000757961
0.00076431
0.000773045
0.000784973
0.000799212
0.000816565
0.000836453
0.000859163
0.00088336
0.000909657
0.000937959
0.000967913
0.000999506
0.00103274
0.00106762
0.00110418
0.00114247
0.00118254
0.00122447
0.00126832
0.00131419
0.00136217
0.00141237
0.00146488
0.00151981
0.00157725
0.0016373
0.00170004
0.00176552
0.00183381
0.00190492
0.00197886
0.00205559
0.00213505
0.00221714
0.00230173
0.00238864
0.00247769
0.00256863
0.00266121
0.00275516
0.0028502
0.00294601
0.00304234
0.00313885
0.0032354
0.00333152
0.00342733
0.00352218
0.00361643
0.00370966
0.00380235
0.00389341
0.00398482
0.00407341
0.00416141
0.00424861
0.00433434
0.00441885
0.004502
0.00458401
0.00466454
0.00474352
0.00482086
0.00489642
0.00497005
0.00504164
0.00511097
0.00517806
0.00524271
0.00530443
0.0053638
0.00541984
0.00547431
0.00552399
0.00557187
0.0056352
0.00137887
0.00135327
0.00132863
0.00130505
0.00128281
0.00126181
0.00124207
0.00122335
0.00120576
0.00118908
0.00117343
0.00115855
0.00114459
0.00113133
0.00111898
0.00110737
0.00109677
0.00108703
0.00107847
0.00107093
0.00106476
0.00105983
0.00105651
0.00105477
0.00105494
0.00105699
0.00106133
0.00106808
0.00107703
0.00108842
0.00110271
0.00111964
0.00113925
0.00116162
0.00118649
0.00121383
0.0012436
0.0012758
0.00131041
0.00134744
0.0013869
0.00142883
0.00147326
0.00152024
0.00156981
0.00162203
0.00167695
0.00173461
0.00179506
0.00185832
0.00192442
0.00199335
0.00206509
0.00213959
0.00221678
0.00229655
0.00237877
0.00246327
0.00254984
0.00263825
0.00272826
0.00281956
0.00291186
0.00300486
0.00309823
0.00319166
0.00328487
0.00337752
0.00346948
0.00356022
0.00365007
0.00373809
0.00382515
0.00391076
0.00399613
0.00407825
0.0041601
0.00423994
0.00431858
0.00439628
0.00447274
0.0045481
0.00462231
0.00469556
0.00476773
0.00483875
0.00490858
0.00497707
0.00504417
0.00510968
0.00517355
0.00523546
0.00529573
0.00535317
0.00540938
0.00546147
0.00551427
0.00555956
0.0056084
0.00566765
0.00190181
0.00186548
0.00183065
0.00179735
0.00176578
0.00173586
0.00170758
0.00168076
0.00165542
0.0016314
0.00160875
0.00158729
0.00156708
0.001548
0.00153016
0.00151349
0.00149816
0.0014841
0.00147151
0.00146029
0.0014507
0.00144255
0.00143621
0.00143164
0.00142854
0.00142745
0.00142837
0.00143144
0.0014367
0.00144418
0.0014541
0.00146656
0.00148161
0.00149938
0.0015199
0.00154318
0.00156926
0.00159816
0.0016299
0.0016645
0.00170199
0.00174238
0.0017857
0.00183198
0.00188123
0.00193347
0.00198871
0.00204696
0.0021082
0.00217242
0.00223957
0.00230959
0.00238241
0.0024579
0.00253593
0.00261633
0.00269891
0.00278343
0.00286964
0.00295725
0.00304596
0.00313543
0.00322534
0.00331534
0.00340508
0.00349423
0.0035825
0.00366956
0.0037552
0.00383892
0.00392119
0.0040007
0.00408019
0.00415677
0.00423156
0.00430388
0.00437498
0.00444425
0.00451199
0.00457859
0.00464403
0.00470846
0.00477193
0.00483464
0.00489661
0.00495784
0.00501833
0.00507799
0.00513682
0.00519456
0.00525134
0.00530655
0.00536096
0.00541271
0.00546447
0.00551137
0.0055615
0.00560105
0.00565044
0.00570379
0.00253224
0.00248309
0.00243599
0.00239094
0.00234804
0.00230722
0.00226844
0.00223158
0.0021966
0.00216338
0.00213191
0.00210206
0.00207384
0.00204718
0.00202216
0.00199874
0.00197706
0.00195707
0.00193895
0.00192263
0.00190832
0.00189587
0.00188554
0.00187716
0.00187138
0.00186701
0.00186488
0.00186527
0.00186788
0.00187288
0.00188026
0.00189017
0.00190263
0.00191776
0.00193562
0.00195628
0.0019798
0.00200622
0.00203561
0.002068
0.00210345
0.00214197
0.00218361
0.00222838
0.0022763
0.00232738
0.0023816
0.00243893
0.00249936
0.0025628
0.00262919
0.00269843
0.00277038
0.00284488
0.00292176
0.0030008
0.00308174
0.00316433
0.00324825
0.00333318
0.00341878
0.00350467
0.00359051
0.00367591
0.00376053
0.003844
0.003926
0.0040062
0.00408427
0.00415985
0.00423352
0.00430566
0.00437436
0.00444066
0.00450477
0.00456625
0.00462583
0.00468343
0.00473926
0.00479368
0.00484688
0.00489908
0.00495045
0.00500119
0.00505146
0.00510133
0.0051509
0.0052001
0.00524903
0.00529738
0.00534549
0.00539245
0.00543951
0.00548409
0.00553006
0.00557043
0.00561678
0.00564925
0.00569847
0.00574418
0.00325834
0.00319538
0.00313495
0.00307701
0.00302161
0.00296869
0.00291819
0.00287002
0.00282411
0.00278037
0.00273875
0.00269916
0.00266159
0.00262598
0.0025924
0.00256083
0.00253136
0.00250401
0.00247891
0.00245602
0.00243551
0.00241728
0.00240157
0.00238815
0.00237748
0.00236913
0.00236371
0.00236003
0.00235915
0.00236116
0.00236566
0.00237292
0.00238285
0.00239555
0.00241108
0.00242946
0.00245077
0.00247504
0.00250233
0.00253267
0.00256611
0.00260269
0.00264241
0.00268532
0.0027314
0.00278065
0.00283306
0.00288858
0.00294716
0.0030087
0.00307312
0.00314028
0.00321001
0.00328213
0.00335643
0.00343265
0.00351052
0.00358973
0.00366995
0.00375082
0.00383198
0.00391302
0.00399361
0.00407329
0.00415173
0.00422857
0.00430342
0.00437591
0.00444555
0.00451312
0.00457861
0.00464033
0.00469906
0.00475486
0.00480798
0.00485823
0.00490605
0.0049516
0.0049951
0.00503692
0.00507733
0.00511664
0.00515511
0.00519301
0.0052306
0.00526801
0.00530546
0.0053429
0.0053806
0.00541818
0.00545619
0.00549349
0.00553178
0.00556781
0.00560663
0.00563917
0.00568052
0.00570466
0.00575267
0.00578917
0.00405848
0.00398206
0.0039085
0.00383776
0.00376983
0.00370467
0.00364222
0.00358239
0.00352514
0.00347038
0.00341805
0.00336809
0.00332048
0.00327519
0.00323225
0.00319167
0.00315353
0.00311785
0.00308474
0.0030542
0.00302636
0.00300117
0.00297882
0.00295915
0.00294247
0.00292847
0.00291768
0.00290935
0.00290463
0.00290181
0.00290209
0.00290577
0.00291212
0.00292157
0.002934
0.00294943
0.00296792
0.00298949
0.00301415
0.00304193
0.00307287
0.00310697
0.00314425
0.0031847
0.00322831
0.00327507
0.00332493
0.00337783
0.0034337
0.00349244
0.00355392
0.00361798
0.00368445
0.00375312
0.00382373
0.00389602
0.0039697
0.00404443
0.00411986
0.00419563
0.00427132
0.00434656
0.00442099
0.0044941
0.00456563
0.00463515
0.0047022
0.00476629
0.00482814
0.00488747
0.0049429
0.00499501
0.00504375
0.00508915
0.00513143
0.00517057
0.00520686
0.00524055
0.00527189
0.00530124
0.00532894
0.00535534
0.00538079
0.0054056
0.00543012
0.00545456
0.00547923
0.00550416
0.00552972
0.00555553
0.00558237
0.00560887
0.00563721
0.00566346
0.00569389
0.0057174
0.00575253
0.0057673
0.00581272
0.00583868
0.00490463
0.00481648
0.00473131
0.00464908
0.00456978
0.00449337
0.00441981
0.00434904
0.00428102
0.00421567
0.00415297
0.00409286
0.00403534
0.00398037
0.003928
0.00387825
0.00383117
0.00378682
0.00374527
0.00370655
0.00367078
0.00363795
0.00360819
0.00358142
0.00355786
0.00353729
0.00352011
0.00350581
0.00349516
0.00348707
0.00348308
0.00348133
0.00348256
0.00348781
0.00349596
0.0035073
0.00352194
0.00353976
0.00356078
0.00358504
0.00361254
0.00364325
0.00367715
0.00371424
0.00375448
0.00379782
0.00384421
0.00389357
0.00394579
0.00400075
0.00405831
0.00411829
0.00418049
0.00424467
0.00431059
0.00437794
0.00444643
0.00451568
0.00458537
0.0046551
0.00472442
0.00479303
0.00486053
0.00492632
0.00499033
0.0050519
0.00511048
0.00516689
0.00522032
0.00526996
0.0053161
0.00535864
0.00539754
0.00543281
0.00546462
0.00549304
0.00551831
0.00554067
0.00556041
0.00557787
0.00559341
0.00560742
0.00562028
0.00563235
0.00564404
0.0056556
0.00566746
0.00567967
0.00569275
0.00570631
0.00572135
0.00573633
0.00575388
0.00576946
0.0057905
0.00580404
0.00583178
0.00583645
0.00587756
0.00589217
0.00576601
0.005669
0.00557485
0.00548355
0.0053951
0.00530948
0.00522667
0.00514663
0.00506935
0.00499478
0.00492292
0.00485372
0.0047872
0.00472336
0.00466224
0.00460385
0.00454828
0.00449557
0.0044458
0.00439901
0.00435531
0.00431471
0.00427733
0.00424315
0.0042123
0.00418469
0.00416056
0.00413962
0.00412232
0.00410811
0.00409766
0.00409037
0.00408647
0.00408619
0.00408851
0.00409474
0.00410453
0.00411742
0.00413367
0.00415335
0.00417632
0.00420252
0.00423196
0.0042646
0.00430038
0.00433924
0.0043811
0.00442584
0.00447334
0.00452346
0.00457603
0.00463087
0.00468774
0.0047464
0.00480657
0.00486795
0.00493024
0.00499304
0.00505604
0.00511878
0.00518084
0.00524204
0.00530179
0.00535953
0.00541541
0.00546826
0.00551918
0.00556649
0.00561053
0.005651
0.00568778
0.00572079
0.00575
0.00577542
0.00579717
0.00581536
0.0058302
0.00584192
0.00585081
0.00585719
0.00586143
0.00586389
0.005865
0.00586512
0.00586468
0.005864
0.00586354
0.00586342
0.00586424
0.00586563
0.00586877
0.00587202
0.00587839
0.00588284
0.00589384
0.00589682
0.00591621
0.00591041
0.00594549
0.00594821
0.0066124
0.00651017
0.00641048
0.00631333
0.00621875
0.00612674
0.00603732
0.00595048
0.00586623
0.00578456
0.00570548
0.00562901
0.00555514
0.00548393
0.00541539
0.0053496
0.00528661
0.00522649
0.00516932
0.00511517
0.00506412
0.00501622
0.00497158
0.0049302
0.0048922
0.00485754
0.00482639
0.0047986
0.00477442
0.00475362
0.00473644
0.00472276
0.0047125
0.00470597
0.00470249
0.00470303
0.00470677
0.00471346
0.00472408
0.0047383
0.00475566
0.00477624
0.00480015
0.00482728
0.00485752
0.00489081
0.00492703
0.00496604
0.00500771
0.00505188
0.00509837
0.00514695
0.00519741
0.00524944
0.0053028
0.00535718
0.00541224
0.00546756
0.00552291
0.00557766
0.00563158
0.0056846
0.00573571
0.00578462
0.00583203
0.00587613
0.00591746
0.00595554
0.00599021
0.00602125
0.00604854
0.006072
0.00609161
0.00610737
0.0061194
0.0061278
0.00613276
0.00613452
0.00613332
0.00612949
0.00612335
0.00611528
0.00610566
0.00609487
0.00608335
0.00607142
0.00605957
0.00604794
0.00603722
0.00602702
0.0060187
0.00601051