/*--------------------------------*- C++ -*----------------------------------*\
  =========                 |
  \\      /  F ield         | OpenFOAM: The Open Source CFD Toolbox
   \\    /   O peration     | Website:  https://openfoam.org
    \\  /    A nd           | Version:  10
     \\/     M anipulation  |
\*---------------------------------------------------------------------------*/
FoamFile
{
    format      ascii;
    class       volScalarField;
    location    "1900";
    object      omega;
}
// * * * * * * * * * * * * * * * * * * * * * * * * * * * * * * * * * * * * * //

dimensions      [0 0 -1 0 0 0 0];

internalField   nonuniform List<scalar> 
6820
(
6119.65
8495.53
9975.17
10745.8
11095.1
11205.2
11181.5
11085.3
10953.1
10806.8
10658.4
10514.8
10379.1
10252.8
10136.1
10028.7
9930.07
9839.5
9756.25
9679.62
9608.96
9543.68
9483.23
9427.14
9374.99
9326.37
9280.96
9238.44
9198.4
9161.24
9122.77
9101.46
9003.06
563.863
1593.66
2118.99
2485.29
2810.04
3047.21
3202.64
3297.98
3354.17
3382.65
3395.35
3394.49
3390.56
3382.3
3371.9
3361.05
3350.53
3340.71
3331.86
3324.04
3317.32
3311.61
3306.9
3303.08
3300.13
3297.92
3296.46
3295.63
3295.82
3296.64
3298.18
3301.9
3307.68
97.8512
383.671
612.514
783.211
925.913
1044.15
1139.72
1215.41
1275.18
1321.46
1357.37
1384.53
1405.16
1420.61
1432.05
1440.37
1446.35
1450.52
1453.37
1455.22
1456.38
1457.03
1457.37
1457.5
1457.54
1457.56
1457.64
1457.79
1458.14
1458.58
1459.51
1460.38
1462.65
35.0872
109.689
194.406
270.89
340.029
401.75
456.059
503.312
544.328
579.675
610.092
636.128
658.406
677.424
693.681
707.537
719.395
729.497
738.174
745.562
751.954
757.386
762.146
766.172
769.779
772.796
775.611
777.912
780.209
782.028
784.043
785.576
787.568
22.8645
46.9745
78.9735
111.645
143.697
174.308
202.955
229.405
253.675
275.804
295.908
314.101
330.538
345.356
358.716
370.737
381.575
391.321
400.123
408.038
415.209
421.659
427.53
432.809
437.649
441.997
446.021
449.633
453.019
456.059
458.959
461.575
464.134
19.4482
28.8211
42.7198
57.8276
73.3611
88.8415
103.932
118.422
132.214
145.247
157.503
168.976
179.69
189.667
198.948
207.564
215.565
222.981
229.865
236.24
242.162
247.646
252.747
257.473
261.88
265.965
269.786
273.332
276.662
279.762
282.687
285.422
288.024
18.2937
22.3026
29.0894
36.8342
45.0409
53.4276
61.8037
70.042
78.0648
85.8188
93.2711
100.401
107.199
113.664
119.8
125.611
131.111
136.309
141.22
145.855
150.231
154.358
158.255
161.93
165.402
168.677
171.775
174.7
177.471
180.091
182.58
184.938
187.186
17.8628
19.6407
23.1435
27.4253
32.1054
36.9869
41.946
46.901
51.7981
56.5996
61.2795
65.8192
70.2077
74.4371
78.5045
82.4079
86.1493
89.73
93.1546
96.4263
99.5513
102.533
105.38
108.095
110.685
113.156
115.514
117.764
119.913
121.964
123.926
125.8
127.595
17.6921
18.5022
20.2904
22.7591
25.5623
28.5575
31.6531
34.789
37.925
41.0328
44.0924
47.0892
50.0133
52.8576
55.6174
58.2898
60.8733
63.3674
65.7727
68.0899
70.321
72.4674
74.5317
76.5161
78.4234
80.256
82.017
83.7088
85.3347
86.8971
88.3992
89.8433
91.2323
17.6213
17.9912
18.8824
20.3079
22.0195
23.9107
25.9093
27.9667
30.05
32.1359
34.2079
36.254
38.2654
40.2358
42.1608
44.037
45.8624
47.6356
49.3561
51.0236
52.6384
54.2009
55.712
57.1727
58.5841
59.9474
61.264
62.5352
63.7627
64.9477
66.0918
67.1964
68.2629
17.591
17.7573
18.1874
18.9891
20.029
21.2312
22.54
23.916
25.3312
26.7655
28.2045
29.6375
31.0565
32.4559
33.8312
35.1793
36.498
37.7854
39.0407
40.263
41.452
42.6077
43.7302
44.8197
45.8768
46.902
47.8959
48.8591
49.7925
50.6968
51.5728
52.4213
53.243
17.5777
17.6499
17.8528
18.2782
18.8974
19.6531
20.5077
21.4311
22.4002
23.3977
24.4109
25.43
26.4478
27.4588
28.4588
29.4446
30.4138
31.3647
32.296
33.2067
34.0961
34.9639
35.8098
36.6339
37.436
38.2165
38.9756
39.7135
40.4307
41.1274
41.8043
42.4615
43.0996
17.5717
17.6008
17.6934
17.9051
18.2597
18.7223
19.2706
19.8837
20.5439
21.2371
21.9523
22.6808
23.416
24.1527
24.8868
25.6153
26.3357
27.0462
27.7452
28.4318
29.105
29.7643
30.4092
31.0396
31.6551
32.2558
32.8416
33.4127
33.9692
34.5112
35.039
35.5526
36.0524
17.5685
17.5785
17.6181
17.7167
17.9085
18.1807
18.5221
18.92
19.3623
19.8384
20.3392
20.8575
21.3874
21.9242
22.4641
23.0041
23.5418
24.0753
24.6031
25.124
25.6371
26.1416
26.6369
27.1227
27.5987
28.0645
28.5202
28.9656
29.4007
29.8255
30.2401
30.6445
31.0388
17.5667
17.5684
17.5829
17.6262
17.7205
17.8733
18.0775
18.3273
18.6156
18.9354
19.2799
19.6435
20.0213
20.4092
20.8038
21.2024
21.6026
22.0027
22.4011
22.7965
23.1881
23.5749
23.9563
24.3318
24.7011
25.0637
25.4195
25.7683
26.11
26.4445
26.7717
27.0916
27.4042
17.5661
17.5629
17.5666
17.5833
17.6249
17.7047
17.8205
17.9706
18.1518
18.3599
18.5907
18.8401
19.1043
19.38
19.6645
19.9553
20.2503
20.5479
20.8466
21.1452
21.4427
21.7383
22.0312
22.321
22.6071
22.8892
23.167
23.4402
23.7087
23.9723
24.2309
24.4843
24.7326
17.5661
17.5601
17.5585
17.5631
17.5791
17.6155
17.6769
17.7623
17.8709
18.001
18.1502
18.3159
18.4957
18.6871
18.8878
19.096
19.31
19.5281
19.7492
19.9721
20.1959
20.4197
20.643
20.865
21.0854
21.3038
21.5197
21.7329
21.9431
22.1503
22.3541
22.5546
22.7515
17.5661
17.5591
17.5541
17.5533
17.5575
17.5711
17.5997
17.6448
17.7061
17.7833
17.8755
17.9813
18.0994
18.228
18.3657
18.511
18.6625
18.8191
18.9796
19.1431
19.3088
19.476
19.6439
19.8121
19.98
20.1473
20.3136
20.4787
20.6422
20.8039
20.9636
21.1213
21.2767
17.5662
17.5588
17.5523
17.5479
17.5469
17.5501
17.5603
17.5811
17.6128
17.6556
17.7093
17.7736
17.8477
17.9307
18.0218
18.1198
18.224
18.3333
18.4469
18.5641
18.6842
18.8066
18.9306
19.0559
19.1819
19.3083
19.4348
19.561
19.6867
19.8117
19.9358
20.0587
20.1804
17.5662
17.5587
17.5517
17.5456
17.5413
17.5397
17.5415
17.5482
17.5621
17.5834
17.6122
17.6487
17.6926
17.7435
17.801
17.8645
17.9334
18.0072
18.0851
18.1667
18.2515
18.3389
18.4285
18.5198
18.6126
18.7064
18.801
18.8961
18.9915
19.0869
19.1821
19.277
19.3714
17.5662
17.5587
17.5515
17.5447
17.5388
17.5344
17.5319
17.5324
17.5359
17.5442
17.5577
17.5764
17.6003
17.6295
17.6637
17.7028
17.7463
17.794
17.8455
17.9005
17.9585
18.0192
18.0822
18.1473
18.2142
18.2825
18.3521
18.4226
18.4938
18.5657
18.6379
18.7104
18.7829
17.5662
17.5587
17.5514
17.5444
17.5378
17.532
17.5272
17.5241
17.5231
17.5243
17.5283
17.5362
17.5475
17.5627
17.5815
17.604
17.63
17.6595
17.6921
17.7278
17.7663
17.8073
17.8507
17.8961
17.9434
17.9923
18.0428
18.0944
18.1472
18.2009
18.2553
18.3103
18.3659
17.5662
17.5587
17.5514
17.5442
17.5374
17.531
17.5251
17.5202
17.5164
17.5141
17.5138
17.5151
17.5189
17.5255
17.5347
17.5466
17.5613
17.5787
17.5987
17.6213
17.6464
17.6737
17.7032
17.7347
17.7681
17.8031
17.8398
17.8778
17.917
17.9574
17.9988
18.0411
18.084
17.5662
17.5587
17.5514
17.5442
17.5372
17.5306
17.5243
17.5185
17.5135
17.5094
17.5065
17.505
17.5052
17.5068
17.5105
17.5164
17.5245
17.5348
17.5473
17.5619
17.5787
17.5975
17.6184
17.6411
17.6656
17.6917
17.7195
17.7486
17.7791
17.8108
17.8436
17.8775
17.9121
17.5662
17.5587
17.5513
17.5442
17.5372
17.5304
17.524
17.518
17.5126
17.5078
17.5041
17.5014
17.5002
17.5004
17.5018
17.5051
17.5104
17.5177
17.5269
17.5381
17.5511
17.5661
17.583
17.6016
17.622
17.644
17.6675
17.6924
17.7187
17.7462
17.7749
17.8046
17.8352
17.5662
17.5587
17.5513
17.5442
17.5372
17.5305
17.5242
17.5183
17.5132
17.5088
17.5055
17.5034
17.5028
17.5035
17.5056
17.5097
17.5158
17.5238
17.5337
17.5456
17.5594
17.575
17.5925
17.6117
17.6326
17.6551
17.6791
17.7045
17.7311
17.759
17.788
17.8181
17.849
17.5662
17.5587
17.5513
17.5442
17.5374
17.5309
17.5251
17.52
17.5159
17.5131
17.5117
17.5122
17.5141
17.5183
17.5246
17.5331
17.5437
17.5566
17.5716
17.5888
17.608
17.6292
17.6522
17.677
17.7035
17.7316
17.7611
17.7919
17.824
17.8571
17.8913
17.9264
17.9624
17.5662
17.5587
17.5514
17.5444
17.5379
17.5322
17.5276
17.5243
17.523
17.5238
17.5267
17.5327
17.5416
17.5534
17.5681
17.5857
17.6061
17.6292
17.6549
17.6831
17.7135
17.7461
17.7806
17.817
17.855
17.8944
17.9353
17.9773
18.0204
18.0644
18.1093
18.1548
18.201
17.5662
17.5587
17.5516
17.5451
17.5396
17.5357
17.5342
17.5354
17.5395
17.5482
17.5612
17.5785
17.6003
17.6263
17.6565
17.6905
17.7282
17.7692
17.8134
17.8603
17.9097
17.9613
18.015
18.0703
18.1272
18.1853
18.2446
18.3048
18.3657
18.4273
18.4893
18.5516
18.6142
17.5662
17.5589
17.5522
17.5473
17.5446
17.5455
17.5504
17.5615
17.5798
17.605
17.6371
17.6761
17.7215
17.7729
17.8299
17.8918
17.9581
18.0284
18.102
18.1786
18.2577
18.3389
18.4217
18.506
18.5914
18.6776
18.7644
18.8516
18.939
19.0264
19.1138
19.2008
19.2875
17.5662
17.5594
17.5546
17.5542
17.558
17.5696
17.5932
17.6282
17.6749
17.7329
17.8016
17.8801
17.9674
18.0624
18.164
18.2714
18.3835
18.4996
18.6189
18.7408
18.8645
18.9897
19.1159
19.2426
19.3696
19.4965
19.6231
19.7491
19.8743
19.9987
20.122
20.2442
20.3651
17.5663
17.5617
17.563
17.5718
17.595
17.6401
17.7055
17.7911
17.8954
18.0165
18.1523
18.3006
18.4593
18.6266
18.8007
18.9802
19.1638
19.3502
19.5387
19.7283
19.9185
20.1085
20.2979
20.4864
20.6735
20.859
21.0426
21.2241
21.4034
21.5803
21.7548
21.9267
22.0961
17.5672
17.57
17.5859
17.6276
17.7109
17.8336
17.9919
18.1815
18.3976
18.6351
18.8897
19.1574
19.435
19.7198
20.0094
20.302
20.596
20.8902
21.1836
21.4753
21.7646
22.0511
22.3342
22.6137
22.8892
23.1606
23.4276
23.6903
23.9484
24.2019
24.4508
24.6951
24.9348
17.5716
17.5953
17.6662
17.8177
18.053
18.3543
18.7087
19.1036
19.5285
19.9745
20.4349
20.9044
21.3787
21.8548
22.3301
22.8027
23.2712
23.7345
24.1917
24.6422
25.0854
25.521
25.9488
26.3685
26.7801
27.1836
27.5788
27.9659
28.3448
28.7157
29.0786
29.4337
29.7811
17.5854
17.6974
17.9699
18.4419
19.0444
19.7381
20.4917
21.2821
22.0933
22.9141
23.7366
24.5557
25.3673
26.1688
26.9583
27.7344
28.4962
29.243
29.9745
30.6904
31.3907
32.0753
32.7443
33.3978
34.0361
34.6594
35.2678
35.8617
36.4414
37.0072
37.5593
38.0981
38.6238
17.6522
18.1438
19.1451
20.4574
21.9286
23.4776
25.0548
26.6331
28.1966
29.7371
31.25
32.7322
34.182
35.5983
36.9807
38.3291
39.6436
40.9246
42.1725
43.3878
44.5711
45.723
46.8442
47.9354
48.9973
50.0307
51.0362
52.0146
52.9666
53.893
54.7944
55.6717
56.5255
18.0423
20.3419
23.6954
27.3243
30.9671
34.5343
37.9952
41.351
44.6032
47.7618
50.8283
53.8045
56.6925
59.4942
62.2115
64.8462
67.4002
69.8754
72.2738
74.5972
76.8478
79.0276
81.1387
83.183
85.1627
87.0798
88.9365
90.7347
92.4763
94.1635
95.7979
97.3817
98.9165
21.0783
32.2377
43.8848
55.0827
65.2654
74.7229
83.6608
92.2515
100.529
108.499
116.169
123.546
130.634
137.44
143.973
150.24
156.249
162.01
167.532
172.822
177.893
182.751
187.407
191.869
196.147
200.248
204.182
207.956
211.577
215.054
218.393
221.602
224.685
63.2893
131.146
179.994
220.948
253.72
286.904
320.749
353.551
384.645
413.765
440.836
465.898
489.06
510.454
530.221
548.492
565.403
581.067
595.602
609.099
621.66
633.357
644.277
654.474
664.025
672.967
681.373
689.262
696.705
703.707
710.338
716.588
722.534
1672.14
1819.15
1960.96
2086.92
2197.23
2294.25
2379.79
2455.18
2521.53
2579.87
2631.09
2676.01
2715.34
2749.72
2779.71
2805.83
2828.53
2848.19
2865.19
2879.82
2892.37
2903.08
2912.17
2919.82
2926.22
2931.5
2935.79
2939.23
2941.89
2943.89
2945.3
2946.18
2946.62
8955.69
8416.75
7889.64
7362.63
6856.62
6384.19
5950.34
5555.94
5197.6
4870.48
4574.62
4306.88
4063.96
3843.43
3642.62
3459.34
3291.21
3136.83
2994.37
2862.88
2741.28
2628.7
2524.1
2426.71
2335.65
2250.09
2169.41
2093
2020.37
1950.98
1884.42
1820.34
1757.99
1697.33
1638.19
1580.34
1523.59
1467.75
1412.75
1358.37
1304.52
1251.19
1198.36
1146.08
1094.39
1043.34
993.019
943.544
895.047
847.674
801.578
756.916
713.842
672.503
633.033
595.545
560.131
526.855
495.754
466.839
440.092
415.469
392.907
372.322
353.617
336.685
321.409
307.671
295.349
284.329
274.489
265.724
257.922
250.992
244.828
239.357
234.48
230.136
226.253
222.763
219.613
216.751
214.135
211.714
209.457
207.332
205.31
203.363
201.477
199.622
197.801
195.97
194.166
192.303
190.512
188.532
186.809
184.548
183.12
180.092
3308.98
3344.71
3419.12
3494.34
3569.42
3646.17
3712.18
3766.71
3789.42
3781.15
3753.61
3695.07
3608.95
3504.25
3386.8
3262.17
3134.21
3007.15
2881.99
2762.04
2647.53
2538.72
2435.1
2336.87
2243.53
2154.64
2070.04
1989.33
1912.17
1838.17
1766.98
1698.38
1631.99
1567.57
1504.92
1443.87
1384.26
1325.97
1268.9
1212.97
1158.11
1104.29
1051.52
999.821
949.251
899.875
851.777
805.052
759.808
716.157
674.207
634.066
595.829
559.578
525.376
493.267
463.274
435.394
409.604
385.859
364.098
344.24
326.196
309.863
295.135
281.903
270.053
259.477
250.065
241.718
234.332
227.819
222.086
217.059
212.647
208.797
205.418
202.472
199.892
197.62
195.615
193.836
192.243
190.79
189.455
188.207
187.021
185.872
184.747
183.621
182.494
181.328
180.155
178.908
177.681
176.278
175.037
173.357
172.273
169.942
1464.49
1470.28
1481.89
1495.93
1509.83
1527.18
1550.46
1582.62
1624.58
1674.39
1731.25
1791.08
1850.73
1907.42
1957.38
1997.15
2024.63
2037.63
2034.64
2023.47
1998.86
1963.35
1919.19
1870.38
1816.97
1761.1
1704.34
1646.88
1589.22
1531.67
1474.6
1418.17
1362.52
1307.7
1253.76
1200.71
1148.58
1097.37
1047.12
997.841
949.58
902.377
856.288
811.376
767.715
725.384
684.47
645.054
607.222
571.051
536.612
503.963
473.15
444.202
417.133
391.937
368.593
347.062
327.29
309.212
292.751
277.823
264.338
252.204
241.326
231.611
222.968
215.31
208.548
202.609
197.411
192.89
188.971
185.603
182.71
180.261
178.169
176.427
174.966
173.74
172.725
171.883
171.181
170.572
170.048
169.576
169.135
168.703
168.267
167.805
167.316
166.765
166.181
165.513
164.819
163.967
163.185
162.068
161.32
159.667
789.42
792.136
795.928
799.573
802.181
804.485
806.94
810.494
815.455
822.84
832.941
846.814
864.288
886.28
911.784
941.225
972.178
1004.78
1035.01
1063.76
1087.92
1108.91
1122.19
1132.2
1132.1
1128.99
1120.92
1106.22
1086.69
1063.3
1037.07
1008.35
977.713
945.586
912.332
878.271
843.681
808.806
773.86
739.033
704.497
670.406
636.902
604.118
572.173
541.179
511.238
482.441
454.866
428.582
403.643
380.087
357.942
337.216
317.908
300.001
283.466
268.263
254.344
241.653
230.13
219.709
210.323
201.906
194.389
187.709
181.8
176.605
172.061
168.121
164.724
161.833
159.391
157.365
155.696
154.372
153.312
152.539
151.974
151.59
151.376
151.298
151.322
151.408
151.56
151.74
151.931
152.113
152.273
152.392
152.467
152.465
152.414
152.273
152.067
151.726
151.371
150.785
150.357
149.349
466.87
469.976
473.194
476.219
478.659
480.68
482.303
483.814
485.158
486.672
488.294
490.508
493.225
497.029
501.711
507.908
515.191
524.188
534.129
545.451
557.067
569.434
581.011
592.298
601.644
609.4
614.554
618.655
618.903
617.694
614.436
608.156
599.622
588.831
576.068
561.614
545.739
528.705
510.756
492.12
473.009
453.616
434.118
414.678
395.44
376.536
358.081
340.175
322.905
306.343
290.546
275.56
261.416
248.133
235.72
224.174
213.484
203.632
194.593
186.337
178.831
172.039
165.922
160.444
155.565
151.248
147.456
144.154
141.305
138.884
136.849
135.183
133.845
132.818
132.055
131.563
131.26
131.209
131.298
131.537
131.925
132.414
132.989
133.615
134.286
134.977
135.671
136.349
136.998
137.6
138.149
138.622
139.025
139.342
139.572
139.69
139.719
139.623
139.496
139.079
290.877
294.02
297.103
300.043
302.678
305.04
307.114
308.992
310.628
312.128
313.443
314.718
315.895
317.146
318.386
319.802
321.284
323.027
324.906
327.165
329.604
332.436
335.386
338.6
341.726
344.848
347.496
349.871
351.461
352.323
352.152
351.339
349.505
346.616
342.766
337.96
332.231
325.643
318.276
310.226
301.597
292.496
283.035
273.319
263.454
253.536
243.656
233.896
224.33
215.022
206.026
197.388
189.145
181.326
173.949
167.03
160.574
154.582
149.052
143.974
139.339
135.133
131.341
127.947
124.934
122.285
119.981
118.006
116.34
114.974
113.879
113.056
112.47
112.117
111.962
112.022
112.222
112.632
113.174
113.834
114.613
115.484
116.431
117.429
118.466
119.523
120.584
121.631
122.651
123.629
124.553
125.408
126.186
126.887
127.484
127.996
128.376
128.69
128.852
128.951
189.676
192.422
195.101
197.687
200.114
202.381
204.477
206.428
208.216
209.873
211.377
212.77
214.026
215.191
216.229
217.185
218.014
218.769
219.401
219.975
220.448
220.884
221.242
221.563
221.813
222.022
222.124
222.1
221.988
221.721
221.183
220.387
219.288
217.835
216.043
213.891
211.365
208.462
205.189
201.561
197.605
193.353
188.844
184.121
179.231
174.22
169.138
164.029
158.939
153.908
148.974
144.171
139.528
135.069
130.817
126.786
122.991
119.44
116.139
113.091
110.296
107.755
105.464
103.419
101.614
100.044
98.7016
97.5823
96.6754
95.9818
95.4806
95.1845
95.0603
95.112
95.302
95.6923
96.2048
96.8688
97.6567
98.5525
99.5509
100.636
101.795
103.01
104.267
105.551
106.846
108.138
109.411
110.654
111.849
112.99
114.055
115.057
115.949
116.784
117.453
118.121
118.519
119.087
129.599
131.818
133.993
136.113
138.15
140.098
141.948
143.706
145.366
146.935
148.404
149.785
151.065
152.255
153.339
154.323
155.186
155.938
156.556
157.056
157.413
157.656
157.754
157.723
157.609
157.366
157.011
156.54
155.964
155.289
154.5
153.592
152.562
151.397
150.094
148.648
147.054
145.309
143.412
141.364
139.171
136.84
134.382
131.813
129.148
126.407
123.61
120.779
117.935
115.101
112.296
109.541
106.855
104.253
101.751
99.3624
97.0976
94.9661
92.9753
91.1312
89.4379
87.8988
86.5154
85.2888
84.2191
83.3057
82.5473
81.9434
81.4912
81.1945
81.0375
81.0417
81.1486
81.4125
81.8079
82.344
82.9945
83.7669
84.6514
85.6366
86.7167
87.8814
89.121
90.4222
91.7729
93.1608
94.5717
95.993
97.4092
98.8099
100.177
101.507
102.77
103.989
105.098
106.181
107.073
108.031
108.612
109.584
92.7903
94.5254
96.2361
97.9156
99.5521
101.139
102.672
104.151
105.572
106.935
108.236
109.478
110.653
111.764
112.801
113.762
114.636
115.422
116.106
116.69
117.159
117.523
117.764
117.898
117.885
117.805
117.613
117.297
116.883
116.369
115.764
115.068
114.284
113.415
112.463
111.429
110.316
109.125
107.858
106.519
105.11
103.635
102.1
100.51
98.8742
97.2002
95.4975
93.7764
92.0478
90.3229
88.6127
86.9285
85.281
83.6805
82.1364
80.6577
79.2523
77.9272
76.6886
75.5418
74.4912
73.5408
72.693
71.9508
71.3158
70.7894
70.3727
70.0674
69.8753
69.7987
69.8256
69.9486
70.1983
70.5566
71.0207
71.5972
72.2758
73.0575
73.9391
74.9143
75.9785
77.1252
78.3477
79.6368
80.9828
82.376
83.8043
85.2573
86.7204
88.1852
89.632
91.0615
92.4382
93.7914
95.042
96.2964
97.3466
98.5258
99.2404
100.539
69.4637
70.8072
72.1383
73.4532
74.7458
76.0121
77.2486
78.4538
79.6251
80.7614
81.8603
82.9208
83.9396
84.9151
85.842
86.7173
87.534
88.2886
88.9731
89.5853
90.1161
90.5667
90.9264
91.2031
91.3787
91.47
91.455
91.3825
91.2139
90.9502
90.6114
90.1917
89.7002
89.1384
88.5103
87.82
87.0711
86.2672
85.4122
84.5098
83.5638
82.5781
81.5571
80.5054
79.4279
78.3299
77.2172
76.0959
74.9722
73.8528
72.7443
71.6536
70.5871
69.5514
68.5528
67.597
66.6896
65.8356
65.0396
64.3057
63.6377
63.0389
62.5116
62.0593
61.6833
61.3859
61.1693
61.0362
60.991
61.0215
61.1274
61.3315
61.6234
62.0035
62.4704
63.0283
63.6743
64.4085
65.2304
66.1371
67.1263
68.1943
69.3367
70.5479
71.8209
73.1485
74.5211
75.9308
77.3644
78.816
80.2655
81.7169
83.1315
84.5443
85.8657
87.2199
88.3655
89.6948
90.4977
92.0389
54.171
55.2132
56.2501
57.2791
58.2973
59.3017
60.2902
61.2609
62.2123
63.1428
64.0508
64.9348
65.7928
66.6227
67.4213
68.1859
68.9119
69.5962
70.2335
70.8211
71.353
71.828
72.2393
72.5892
72.8683
73.0837
73.2216
73.3008
73.2935
73.2442
73.1244
72.929
72.6796
72.3685
72.0024
71.585
71.1184
70.6068
70.0539
69.4632
68.8383
68.1831
67.5016
66.7975
66.0751
65.3384
64.5918
63.8395
63.0863
62.3366
61.595
60.8662
60.1547
59.465
58.8015
58.1682
57.569
57.0078
56.4877
56.012
55.5839
55.2058
54.8794
54.6084
54.3933
54.2369
54.1422
54.1129
54.1397
54.2251
54.3845
54.6118
54.9085
55.2761
55.7149
56.2275
56.8142
57.4756
58.2125
59.0245
59.9106
60.8695
61.8989
62.9958
64.1555
65.3737
66.643
67.9582
69.3079
70.6888
72.0817
73.4931
74.8836
76.2922
77.623
79.0125
80.1969
81.6084
82.4604
84.159
43.8221
44.636
45.4486
46.2582
47.063
47.8612
48.6512
49.4317
50.2012
50.9587
51.7029
52.4324
53.1458
53.8413
54.5169
55.1703
55.7987
56.3994
56.969
57.5049
58.0034
58.4625
58.878
59.2494
59.5718
59.8473
60.0683
60.243
60.3578
60.4316
60.4385
60.4115
60.3394
60.2057
60.0321
59.8156
59.557
59.2613
58.931
58.5683
58.1764
57.7591
57.3194
56.8605
56.386
55.8992
55.4035
54.9025
54.3998
53.8989
53.4034
52.9166
52.4421
51.9833
51.5433
51.1252
50.732
50.3666
50.0313
49.7288
49.4618
49.2314
49.0396
48.8901
48.7817
48.7189
48.7051
48.7312
48.8044
48.9317
49.1106
49.3426
49.6293
49.9726
50.3734
50.8339
51.3554
51.9392
52.5867
53.2986
54.0754
54.9171
55.823
56.792
57.8216
58.9095
60.0507
61.2422
62.4748
63.7477
65.0432
66.3703
67.69
69.0446
70.3355
71.7061
72.8816
74.3141
75.1834
76.9564
36.6195
37.2603
37.9019
38.5432
39.1832
39.8206
40.4542
41.0832
41.7064
42.323
42.9319
43.5322
44.1226
44.702
45.2689
45.8215
46.3579
46.8762
47.374
47.8494
48.2997
48.723
49.1167
49.4796
49.8086
50.1038
50.3612
50.5835
50.7645
50.9109
51.0141
51.082
51.112
51.1021
51.066
50.9887
50.876
50.7355
50.5655
50.3675
50.1451
49.9012
49.6379
49.3577
49.0634
48.7579
48.4438
48.1243
47.802
47.4799
47.1608
46.8473
46.5423
46.2485
45.9682
45.704
45.458
45.2328
45.0299
44.8519
44.7007
44.5763
44.4817
44.4199
44.3879
44.3937
44.4271
44.5006
44.611
44.7603
44.9497
45.1807
45.4545
45.773
46.1374
46.5495
47.0111
47.5237
48.0889
48.708
49.3823
50.1127
50.8995
51.7429
52.642
53.5961
54.6021
55.6589
56.7595
57.9051
59.0799
60.2951
61.5135
62.779
63.994
65.3038
66.4332
67.8359
68.6955
70.4714
31.4872
31.9951
32.5051
33.0165
33.5284
34.04
34.5507
35.0595
35.5657
36.0687
36.5677
37.0618
37.5503
38.0321
38.5062
38.9715
39.4265
39.8697
40.2997
40.7149
41.1133
41.4937
41.854
42.193
42.5088
42.8007
43.0665
43.3066
43.5181
43.7028
43.858
43.9848
44.084
44.1529
44.1983
44.2119
44.2021
44.1721
44.1141
44.0323
43.9323
43.8148
43.6802
43.5311
43.3698
43.1984
43.0191
42.8345
42.6467
42.4579
42.2704
42.0866
41.9084
41.7383
41.578
41.4294
41.2944
41.1752
41.0724
40.9893
40.9263
40.8823
40.863
40.8689
40.8937
40.9489
41.0294
41.1379
41.275
41.4419
41.6399
41.87
42.1335
42.4319
42.7666
43.139
43.5508
44.0035
44.4989
45.0385
45.6238
46.2562
46.9367
47.6662
48.4448
49.273
50.1491
51.0735
52.041
53.0543
54.1
55.1905
56.2912
57.4467
58.5629
59.7831
60.8399
62.1743
63.001
64.725
27.7604
28.1651
28.5725
28.9822
29.3935
29.8061
30.2192
30.6323
31.0448
31.4563
31.866
32.2734
32.6779
33.0787
33.4751
33.8663
34.2511
34.6287
34.9978
35.3573
35.7059
36.0426
36.3659
36.6748
36.968
37.2446
37.5032
37.7436
37.9642
38.1652
38.3455
38.5048
38.6438
38.7609
38.8587
38.9351
38.9918
39.0309
39.0521
39.0514
39.0406
39.0144
38.9728
38.9197
38.8568
38.7851
38.7069
38.6242
38.5382
38.4509
38.3641
38.2795
38.1991
38.1248
38.0573
37.9986
37.9504
37.9144
37.8906
37.8835
37.8899
37.91
37.9506
38.0103
38.0863
38.1833
38.3006
38.4393
38.6
38.7836
38.9909
39.223
39.4809
39.7658
40.0788
40.4214
40.7948
41.2005
41.6402
42.1154
42.6275
43.1783
43.7688
44.4006
45.0742
45.7909
46.5499
47.3527
48.1954
49.0819
50.0008
50.9654
51.944
52.9808
53.987
55.101
56.069
57.3093
58.0857
59.7178
25.0162
25.3393
25.6656
25.9946
26.3261
26.6596
26.9947
27.3309
27.6678
28.005
28.3421
28.6786
29.0139
29.3477
29.6793
30.0081
30.3333
30.6543
30.9702
31.2802
31.5834
31.8789
32.1658
32.4431
32.7101
32.9659
33.2097
33.4408
33.6584
33.8622
34.0517
34.2263
34.3862
34.5308
34.6608
34.7757
34.876
34.9624
35.0361
35.0951
35.1432
35.1807
35.2075
35.2251
35.2351
35.2378
35.236
35.2308
35.2224
35.2131
35.2042
35.1971
35.1933
35.1946
35.2002
35.2132
35.2349
35.2659
35.3066
35.3593
35.4239
35.4998
35.5898
35.6947
35.8134
35.9476
36.0976
36.2639
36.447
36.6476
36.8663
37.1039
37.3612
37.6392
37.9387
38.2608
38.6068
38.978
39.3755
39.801
40.2557
40.7413
41.2591
41.8105
42.3966
43.0189
43.6772
44.3737
45.1054
45.8771
46.6788
47.5245
48.3853
49.3043
50.1989
51.2005
52.0725
53.2045
53.9196
55.4336
22.977
23.2348
23.496
23.7603
24.0275
24.2972
24.5691
24.843
25.1184
25.3951
25.6726
25.9508
26.2291
26.5073
26.7848
27.0613
27.3362
27.609
27.879
28.1458
28.4087
28.6669
28.9199
29.167
29.4075
29.6408
29.8664
30.0835
30.2918
30.4908
30.6802
30.8594
31.0286
31.1872
31.3356
31.4736
31.6014
31.7192
31.8278
31.9268
32.0173
32.1002
32.1759
32.2451
32.3089
32.3678
32.4233
32.4766
32.5283
32.5797
32.6317
32.6857
32.7425
32.8036
32.8693
32.9407
33.019
33.1051
33.1992
33.3026
33.4157
33.5383
33.6716
33.8164
33.9724
34.1402
34.3202
34.5127
34.718
34.9366
35.1689
35.4154
35.6769
35.9538
36.247
36.5573
36.8857
37.2331
37.6007
37.9897
38.4015
38.8373
39.2984
39.7864
40.3022
40.8475
41.4225
42.0297
42.6668
43.3388
44.0373
44.7763
45.5293
46.3381
47.1263
48.0174
48.7935
49.8127
50.4613
51.8437
21.4552
21.6602
21.8687
22.0805
22.2954
22.5132
22.7336
22.9565
23.1815
23.4084
23.637
23.867
24.0981
24.3301
24.5625
24.7952
25.0277
25.2596
25.4905
25.7201
25.9478
26.1731
26.3957
26.6149
26.8304
27.0417
27.2483
27.4499
27.6459
27.8362
28.0204
28.1982
28.3694
28.534
28.6918
28.843
28.9875
29.1255
29.2574
29.3833
29.5036
29.619
29.7299
29.8369
29.9407
30.0418
30.1411
30.2395
30.3377
30.4365
30.5368
30.6394
30.7451
30.8548
30.9691
31.0887
31.2142
31.3464
31.4856
31.6324
31.7872
31.9502
32.1218
32.3023
32.492
32.6909
32.8993
33.1172
33.3448
33.5824
33.8304
34.0891
34.3587
34.6398
34.9329
35.2387
35.5577
35.8908
36.239
36.6032
36.9845
37.3841
37.803
38.2428
38.7042
39.1891
39.6976
40.2324
40.7915
41.3804
41.9913
42.6381
43.2967
44.0071
44.6987
45.4869
46.1725
47.082
47.6639
48.9115
20.3208
20.4827
20.6482
20.8172
20.9894
21.1647
21.3429
21.5239
21.7075
21.8934
22.0816
22.2717
22.4637
22.6572
22.8521
23.0481
23.245
23.4425
23.6403
23.8381
24.0356
24.2324
24.4283
24.6228
24.8157
25.0066
25.1951
25.3811
25.5642
25.7442
25.9209
26.094
26.2635
26.4292
26.5911
26.7493
26.9037
27.0545
27.2019
27.3461
27.4874
27.6262
27.7629
27.8979
28.0318
28.165
28.2981
28.4317
28.5665
28.703
28.842
28.984
29.1296
29.2795
29.4341
29.594
29.7595
29.9312
30.1091
30.2937
30.4853
30.684
30.89
31.1033
31.3241
31.5522
31.7879
32.0308
32.2811
32.5389
32.8046
33.078
33.3595
33.6492
33.9475
34.2548
34.5716
34.8985
35.2361
35.5853
35.9469
36.3219
36.7112
37.1161
37.5373
37.9766
38.4339
38.9121
39.4094
39.9311
40.4702
41.0404
41.6192
42.245
42.8524
43.549
44.1529
44.9611
45.4797
46.5975
19.4808
19.6077
19.7382
19.8722
20.0095
20.1501
20.2938
20.4405
20.59
20.7423
20.8971
21.0545
21.2141
21.3759
21.5397
21.7053
21.8726
22.0413
22.2114
22.3825
22.5544
22.727
22.9
23.0731
23.2462
23.4191
23.5914
23.763
23.9338
24.1036
24.2721
24.4394
24.6053
24.7698
24.9328
25.0944
25.2547
25.4138
25.5717
25.7288
25.8853
26.0413
26.1974
26.3537
26.5108
26.669
26.8288
26.9905
27.1547
27.322
27.4927
27.6673
27.8463
28.0301
28.2191
28.4134
28.6136
28.8197
29.0316
29.2499
29.4746
29.7058
29.9434
30.1874
30.4376
30.6939
30.9563
31.224
31.4975
31.7769
32.0621
32.3529
32.6494
32.9515
33.2595
33.5736
33.8941
34.2215
34.5561
34.8986
35.2497
35.6101
35.9805
36.3621
36.7554
37.1619
37.5818
38.0175
38.4675
38.937
39.4193
39.928
40.4417
40.9973
41.5339
42.1521
42.6851
43.4037
43.8649
44.8637
18.8675
18.9664
19.0687
19.1745
19.2837
19.3961
19.5119
19.6307
19.7526
19.8775
20.0053
20.1359
20.2692
20.4051
20.5435
20.6843
20.8274
20.9726
21.1198
21.2689
21.4198
21.5723
21.7263
21.8816
22.0381
22.1956
22.354
22.5133
22.6733
22.8338
22.9949
23.1565
23.3186
23.481
23.644
23.8075
23.9716
24.1364
24.3021
24.4688
24.6368
24.8064
24.9777
25.1511
25.327
25.5055
25.687
25.872
26.0609
26.254
26.4516
26.6542
26.862
27.0753
27.2942
27.5191
27.7501
27.9869
28.2296
28.4787
28.7342
28.9959
29.2634
29.5367
29.8154
30.0994
30.3883
30.6825
30.9817
31.2856
31.5934
31.905
32.2203
32.5392
32.8617
33.1879
33.5179
33.8519
34.1903
34.5335
34.8819
35.2361
35.5967
35.9646
36.3402
36.7249
37.1186
37.5239
37.9389
38.369
38.8075
39.268
39.7297
40.2285
40.7067
41.2592
41.7321
42.3734
42.7841
43.6782
18.4311
18.5079
18.5882
18.6719
18.7589
18.8493
18.9429
19.0398
19.1399
19.2432
19.3496
19.459
19.5714
19.6868
19.8051
19.9262
20.05
20.1766
20.3057
20.4374
20.5716
20.7081
20.847
20.9881
21.1313
21.2767
21.4241
21.5734
21.7248
21.878
22.0332
22.1902
22.3492
22.5102
22.6732
22.8383
23.0056
23.1753
23.3475
23.5225
23.7003
23.8813
24.0657
24.2537
24.4457
24.6417
24.8421
25.0473
25.2578
25.4738
25.6954
25.9229
26.1566
26.3966
26.6429
26.8958
27.1552
27.4213
27.6944
27.9747
28.2613
28.5538
28.852
29.1556
29.4642
29.7774
30.0949
30.4165
30.7412
31.0681
31.3976
31.7297
32.0641
32.4008
32.7394
33.0801
33.4228
33.7675
34.1144
34.4638
34.816
35.1713
35.5301
35.8931
36.2607
36.6341
37.0129
37.3997
37.7924
38.1965
38.605
39.0317
39.4559
39.9131
40.3475
40.8502
41.2765
41.8557
42.2242
43.0294
18.1349
18.1955
18.2594
18.3265
18.3971
18.4709
18.548
18.6285
18.7123
18.7993
18.8897
18.9833
19.0801
19.1801
19.2833
19.3897
19.4992
19.6119
19.7276
19.8464
19.9681
20.0929
20.2207
20.3514
20.4851
20.6217
20.7613
20.9037
21.0492
21.1976
21.349
21.5035
21.6611
21.822
21.9861
22.1538
22.325
22.4999
22.6788
22.8618
23.0492
23.2411
23.4378
23.6395
23.8466
24.0593
24.2781
24.5034
24.7353
24.9739
25.2193
25.4717
25.7312
25.9979
26.2719
26.5532
26.8416
27.1371
27.4397
27.7476
28.0614
28.3812
28.7065
29.0372
29.3727
29.7127
30.0565
30.404
30.7546
31.1079
31.4633
31.8203
32.1786
32.5379
32.8978
33.2583
33.6192
33.9803
34.3418
34.7037
35.066
35.4292
35.7933
36.1591
36.5265
36.8967
37.2692
37.6466
38.0263
38.4143
38.8028
39.2063
39.6035
40.0304
40.4315
40.896
41.2852
41.8172
42.1531
42.8899
17.9535
18.0033
18.0563
18.1125
18.172
18.2348
18.3009
18.3704
18.4433
18.5195
18.5991
18.6821
18.7686
18.8585
18.9517
19.0485
19.1486
19.2522
19.3593
19.4698
19.5838
19.7013
19.8224
19.947
20.0751
20.2069
20.3424
20.4816
20.6246
20.7715
20.9223
21.0773
21.2364
21.3998
21.5677
21.7402
21.9176
22.0999
22.2874
22.4804
22.679
22.8835
23.0941
23.3111
23.5347
23.7653
24.0032
24.2477
24.4994
24.7585
25.0254
25.3001
25.5828
25.8734
26.172
26.4786
26.793
27.115
27.4445
27.7815
28.1251
28.4751
28.831
29.1924
29.5586
29.9293
30.3037
30.6813
31.0618
31.4444
31.8285
32.2136
32.5992
32.9849
33.3702
33.7549
34.1385
34.521
34.9022
35.2821
35.6605
36.0377
36.4137
36.7891
37.1635
37.5384
37.9127
38.2892
38.6648
39.0461
39.4242
39.8149
40.1952
40.6029
40.9811
41.4196