/*--------------------------------*- C++ -*----------------------------------*\
  =========                 |
  \\      /  F ield         | OpenFOAM: The Open Source CFD Toolbox
   \\    /   O peration     | Website:  https://openfoam.org
    \\  /    A nd           | Version:  10
     \\/     M anipulation  |
\*---------------------------------------------------------------------------*/
FoamFile
{
    format      ascii;
    class       volScalarField;
    location    "1900";
    object      p;
}
// * * * * * * * * * * * * * * * * * * * * * * * * * * * * * * * * * * * * * //

dimensions      [0 2 -2 0 0 0 0];

internalField   nonuniform List<scalar> 
6820
(
6.39572
-4.49409
-8.01331
-8.74691
-9.14823
-9.48679
-9.67929
-9.77578
-9.84125
-9.89575
-9.94002
-9.9758
-10.0064
-10.0338
-10.0588
-10.0818
-10.1032
-10.1234
-10.1426
-10.161
-10.1786
-10.1955
-10.2119
-10.2277
-10.243
-10.2577
-10.2717
-10.2848
-10.2969
-10.3075
-10.3151
-10.3217
-10.3088
-15.4922
-11.8143
-11.0694
-10.3002
-9.93542
-9.86905
-9.86734
-9.8712
-9.88932
-9.91854
-9.94934
-9.97804
-10.0049
-10.0304
-10.0544
-10.0769
-10.0982
-10.1184
-10.1376
-10.1561
-10.1739
-10.191
-10.2076
-10.2236
-10.2391
-10.254
-10.2683
-10.2819
-10.2946
-10.3064
-10.3163
-10.3267
-10.3309
-13.3436
-9.76953
-9.51424
-9.51615
-9.50993
-9.60838
-9.70908
-9.77686
-9.83139
-9.88129
-9.92463
-9.96127
-9.99322
-10.0219
-10.048
-10.0719
-10.0942
-10.115
-10.1348
-10.1536
-10.1717
-10.189
-10.2058
-10.222
-10.2376
-10.2527
-10.2673
-10.2813
-10.2946
-10.3073
-10.319
-10.3315
-10.3417
-10.8545
-9.39541
-9.54611
-9.66224
-9.64688
-9.70223
-9.77282
-9.82155
-9.86161
-9.90057
-9.93641
-9.96814
-9.99679
-10.0232
-10.0478
-10.0707
-10.0923
-10.1127
-10.1322
-10.1509
-10.1688
-10.1861
-10.2029
-10.2192
-10.235
-10.2503
-10.2652
-10.2796
-10.2936
-10.3073
-10.3207
-10.3349
-10.349
-10.3951
-9.69774
-9.73821
-9.75444
-9.71021
-9.73789
-9.79025
-9.83135
-9.86754
-9.90369
-9.93775
-9.96854
-9.99666
-10.0227
-10.047
-10.0698
-10.0912
-10.1116
-10.131
-10.1496
-10.1676
-10.1849
-10.2017
-10.218
-10.2339
-10.2494
-10.2646
-10.2794
-10.294
-10.3085
-10.3232
-10.3388
-10.3552
-10.3297
-9.85458
-9.80848
-9.78653
-9.74774
-9.76629
-9.80802
-9.84454
-9.87808
-9.9116
-9.94348
-9.97274
-9.99973
-10.0249
-10.0485
-10.0707
-10.0917
-10.1117
-10.1309
-10.1493
-10.1671
-10.1843
-10.2011
-10.2174
-10.2334
-10.249
-10.2644
-10.2796
-10.2947
-10.3099
-10.3255
-10.3422
-10.3601
-10.2144
-9.88836
-9.83626
-9.81352
-9.78463
-9.79727
-9.82974
-9.86107
-9.89117
-9.92155
-9.95089
-9.97832
-10.004
-10.0281
-10.0509
-10.0725
-10.093
-10.1126
-10.1315
-10.1497
-10.1673
-10.1844
-10.2011
-10.2174
-10.2334
-10.2491
-10.2647
-10.2801
-10.2957
-10.3115
-10.3278
-10.3452
-10.364
-10.1083
-9.90322
-9.86076
-9.84057
-9.81828
-9.82659
-9.8516
-9.8781
-9.90483
-9.93224
-9.95916
-9.98478
-10.0091
-10.0321
-10.0541
-10.075
-10.095
-10.1142
-10.1327
-10.1506
-10.168
-10.185
-10.2015
-10.2178
-10.2338
-10.2496
-10.2653
-10.281
-10.2968
-10.313
-10.3298
-10.3476
-10.3667
-10.0393
-9.91643
-9.8809
-9.86289
-9.84609
-9.85208
-9.87183
-9.89445
-9.91827
-9.94308
-9.96781
-9.99173
-10.0147
-10.0367
-10.0578
-10.078
-10.0974
-10.1162
-10.1344
-10.152
-10.1691
-10.1859
-10.2024
-10.2185
-10.2345
-10.2503
-10.2661
-10.282
-10.298
-10.3145
-10.3315
-10.3495
-10.3686
-9.99693
-9.92504
-9.89562
-9.8805
-9.86867
-9.87375
-9.88994
-9.90961
-9.93102
-9.9536
-9.9764
-9.99876
-10.0205
-10.0414
-10.0617
-10.0812
-10.1001
-10.1185
-10.1362
-10.1536
-10.1705
-10.1871
-10.2034
-10.2194
-10.2354
-10.2512
-10.267
-10.283
-10.2991
-10.3157
-10.3328
-10.3507
-10.3695
-9.97109
-9.93006
-9.9069
-9.89493
-9.88718
-9.89204
-9.90585
-9.92328
-9.94271
-9.96342
-9.98455
-10.0055
-10.0261
-10.0461
-10.0656
-10.0845
-10.1029
-10.1208
-10.1382
-10.1552
-10.1719
-10.1883
-10.2044
-10.2204
-10.2362
-10.252
-10.2678
-10.2837
-10.2999
-10.3164
-10.3335
-10.3512
-10.3697
-9.95625
-9.93362
-9.91628
-9.9072
-9.9026
-9.90753
-9.91971
-9.93542
-9.95322
-9.97235
-9.99206
-10.0118
-10.0313
-10.0505
-10.0693
-10.0876
-10.1055
-10.1229
-10.14
-10.1567
-10.1732
-10.1893
-10.2053
-10.2211
-10.2369
-10.2526
-10.2683
-10.2842
-10.3003
-10.3167
-10.3335
-10.3509
-10.3689
-9.94888
-9.93694
-9.92451
-9.91796
-9.91572
-9.92079
-9.93181
-9.94615
-9.96259
-9.98037
-9.99884
-10.0175
-10.0361
-10.0545
-10.0726
-10.0904
-10.1077
-10.1248
-10.1415
-10.158
-10.1742
-10.1901
-10.2059
-10.2216
-10.2372
-10.2528
-10.2684
-10.2842
-10.3001
-10.3163
-10.3329
-10.3498
-10.3672
-9.94647
-9.94051
-9.93201
-9.9276
-9.92711
-9.93233
-9.94246
-9.95568
-9.97093
-9.98753
-10.0049
-10.0226
-10.0404
-10.058
-10.0755
-10.0927
-10.1096
-10.1263
-10.1427
-10.1589
-10.1748
-10.1906
-10.2062
-10.2217
-10.2371
-10.2526
-10.268
-10.2836
-10.2993
-10.3152
-10.3314
-10.3479
-10.3647
-9.94725
-9.94453
-9.93902
-9.93639
-9.93719
-9.94253
-9.95195
-9.96419
-9.97839
-9.99393
-10.0103
-10.0271
-10.0441
-10.061
-10.0779
-10.0946
-10.1111
-10.1274
-10.1435
-10.1593
-10.175
-10.1906
-10.206
-10.2213
-10.2365
-10.2518
-10.267
-10.2824
-10.2978
-10.3134
-10.3291
-10.3451
-10.3612
-9.95006
-9.94901
-9.94571
-9.94452
-9.94626
-9.95166
-9.96049
-9.97187
-9.98511
-9.99967
-10.0151
-10.031
-10.0473
-10.0636
-10.0799
-10.0961
-10.1121
-10.1281
-10.1438
-10.1594
-10.1748
-10.1901
-10.2053
-10.2204
-10.2354
-10.2504
-10.2654
-10.2804
-10.2955
-10.3107
-10.326
-10.3414
-10.3569
-9.95411
-9.95387
-9.95216
-9.95207
-9.95448
-9.9599
-9.96821
-9.97882
-9.99119
-10.0048
-10.0194
-10.0345
-10.05
-10.0657
-10.0814
-10.0971
-10.1128
-10.1283
-10.1437
-10.1589
-10.1741
-10.1891
-10.204
-10.2189
-10.2336
-10.2484
-10.2631
-10.2778
-10.2925
-10.3073
-10.3221
-10.3369
-10.3518
-9.9589
-9.95901
-9.9584
-9.95913
-9.962
-9.96738
-9.97523
-9.98514
-9.99669
-10.0095
-10.0232
-10.0376
-10.0524
-10.0674
-10.0826
-10.0978
-10.113
-10.1281
-10.1431
-10.1581
-10.1729
-10.1877
-10.2023
-10.2169
-10.2314
-10.2458
-10.2602
-10.2745
-10.2888
-10.3032
-10.3174
-10.3317
-10.3459
-9.96407
-9.96432
-9.96444
-9.96575
-9.9689
-9.97418
-9.98159
-9.99086
-10.0017
-10.0137
-10.0266
-10.0403
-10.0544
-10.0688
-10.0834
-10.0981
-10.1128
-10.1275
-10.1422
-10.1568
-10.1713
-10.1858
-10.2001
-10.2143
-10.2285
-10.2426
-10.2566
-10.2706
-10.2845
-10.2983
-10.3121
-10.3258
-10.3393
-9.96942
-9.9697
-9.97028
-9.97196
-9.97524
-9.98036
-9.98735
-9.99602
-10.0061
-10.0174
-10.0296
-10.0425
-10.056
-10.0698
-10.0838
-10.098
-10.1123
-10.1266
-10.1409
-10.1551
-10.1693
-10.1834
-10.1974
-10.2114
-10.2252
-10.2389
-10.2526
-10.2661
-10.2796
-10.2929
-10.3061
-10.3192
-10.3322
-9.9748
-9.97507
-9.97591
-9.97778
-9.98106
-9.98596
-9.99252
-10.0006
-10.0101
-10.0207
-10.0322
-10.0444
-10.0572
-10.0704
-10.0839
-10.0976
-10.1115
-10.1254
-10.1393
-10.1531
-10.167
-10.1807
-10.1944
-10.2079
-10.2214
-10.2348
-10.248
-10.2611
-10.2741
-10.287
-10.2996
-10.3122
-10.3245
-9.98012
-9.98036
-9.98131
-9.98322
-9.98639
-9.99101
-9.99712
-10.0047
-10.0135
-10.0234
-10.0343
-10.0459
-10.0581
-10.0707
-10.0837
-10.0969
-10.1103
-10.1238
-10.1373
-10.1508
-10.1642
-10.1776
-10.1909
-10.2041
-10.2172
-10.2302
-10.243
-10.2557
-10.2682
-10.2805
-10.2927
-10.3046
-10.3163
-9.98532
-9.98555
-9.98648
-9.9883
-9.99125
-9.99551
-10.0011
-10.0081
-10.0163
-10.0256
-10.0359
-10.0469
-10.0585
-10.0706
-10.0831
-10.0959
-10.1088
-10.1219
-10.135
-10.1481
-10.1612
-10.1742
-10.1872
-10.2
-10.2127
-10.2252
-10.2376
-10.2499
-10.2619
-10.2737
-10.2853
-10.2967
-10.3079
-9.9904
-9.9906
-9.99142
-9.99302
-9.99564
-9.99946
-10.0046
-10.011
-10.0186
-10.0273
-10.0369
-10.0474
-10.0584
-10.0701
-10.0821
-10.0944
-10.1069
-10.1196
-10.1323
-10.1451
-10.1578
-10.1705
-10.183
-10.1955
-10.2078
-10.22
-10.2319
-10.2437
-10.2553
-10.2666
-10.2777
-10.2885
-10.2991
-9.99537
-9.99554
-9.99616
-9.9974
-9.99957
-10.0029
-10.0074
-10.0132
-10.0202
-10.0283
-10.0374
-10.0473
-10.0579
-10.069
-10.0806
-10.0925
-10.1047
-10.1169
-10.1293
-10.1417
-10.1541
-10.1664
-10.1786
-10.1907
-10.2026
-10.2144
-10.2259
-10.2373
-10.2484
-10.2592
-10.2698
-10.2801
-10.2901
-10.0003
-10.0004
-10.0007
-10.0015
-10.003
-10.0057
-10.0096
-10.0148
-10.0212
-10.0287
-10.0372
-10.0466
-10.0568
-10.0675
-10.0787
-10.0902
-10.102
-10.1139
-10.1259
-10.138
-10.1501
-10.162
-10.1739
-10.1856
-10.1972
-10.2085
-10.2196
-10.2305
-10.2412
-10.2516
-10.2616
-10.2714
-10.2809
-10.0052
-10.0053
-10.0052
-10.0052
-10.006
-10.0079
-10.0111
-10.0155
-10.0213
-10.0283
-10.0363
-10.0453
-10.055
-10.0653
-10.0762
-10.0873
-10.0988
-10.1104
-10.1222
-10.1339
-10.1457
-10.1573
-10.1688
-10.1802
-10.1914
-10.2024
-10.2131
-10.2236
-10.2338
-10.2437
-10.2533
-10.2626
-10.2716
-10.0103
-10.0104
-10.0096
-10.0087
-10.0085
-10.0094
-10.0118
-10.0155
-10.0206
-10.0271
-10.0346
-10.0432
-10.0525
-10.0625
-10.073
-10.0839
-10.0951
-10.1065
-10.1179
-10.1294
-10.1409
-10.1522
-10.1635
-10.1745
-10.1854
-10.196
-10.2063
-10.2164
-10.2262
-10.2357
-10.2449
-10.2537
-10.2622
-10.0159
-10.0159
-10.0142
-10.0119
-10.0104
-10.0102
-10.0115
-10.0145
-10.0189
-10.0248
-10.032
-10.0402
-10.0492
-10.0589
-10.0692
-10.0799
-10.0909
-10.102
-10.1132
-10.1245
-10.1357
-10.1468
-10.1577
-10.1685
-10.179
-10.1893
-10.1993
-10.209
-10.2184
-10.2275
-10.2362
-10.2446
-10.2526
-10.0223
-10.0222
-10.019
-10.0148
-10.0116
-10.01
-10.0102
-10.0123
-10.0161
-10.0215
-10.0282
-10.0361
-10.0449
-10.0545
-10.0646
-10.0751
-10.0859
-10.0969
-10.1079
-10.119
-10.13
-10.1408
-10.1515
-10.162
-10.1723
-10.1822
-10.1919
-10.2013
-10.2103
-10.219
-10.2274
-10.2354
-10.243
-10.0304
-10.03
-10.0244
-10.0175
-10.0121
-10.0087
-10.0075
-10.0087
-10.0118
-10.0168
-10.0232
-10.0309
-10.0396
-10.049
-10.059
-10.0694
-10.0801
-10.091
-10.1019
-10.1128
-10.1236
-10.1343
-10.1448
-10.155
-10.165
-10.1748
-10.1842
-10.1932
-10.202
-10.2103
-10.2183
-10.2259
-10.2331
-10.0414
-10.0402
-10.0307
-10.0198
-10.0114
-10.0058
-10.0031
-10.0033
-10.0058
-10.0104
-10.0166
-10.0242
-10.0328
-10.0422
-10.0522
-10.0626
-10.0733
-10.0841
-10.0949
-10.1057
-10.1165
-10.127
-10.1373
-10.1474
-10.1572
-10.1667
-10.1759
-10.1847
-10.1931
-10.2012
-10.2089
-10.2162
-10.2231
-10.0579
-10.0542
-10.0378
-10.0212
-10.009
-10.0008
-9.99643
-9.99558
-9.99761
-10.0019
-10.0081
-10.0156
-10.0243
-10.0338
-10.0438
-10.0543
-10.065
-10.0759
-10.0867
-10.0976
-10.1082
-10.1187
-10.129
-10.139
-10.1486
-10.158
-10.167
-10.1756
-10.1839
-10.1917
-10.1992
-10.2062
-10.2128
-10.086
-10.0748
-10.0453
-10.0202
-10.0035
-9.99229
-9.9862
-9.9846
-9.98631
-9.99054
-9.99675
-10.0045
-10.0133
-10.023
-10.0333
-10.0439
-10.0548
-10.0658
-10.0768
-10.0876
-10.0984
-10.1089
-10.1192
-10.1291
-10.1388
-10.1481
-10.157
-10.1656
-10.1737
-10.1815
-10.1888
-10.1957
-10.2022
-10.1381
-10.1098
-10.0561
-10.0174
-9.99327
-9.97762
-9.9697
-9.96775
-9.96968
-9.97443
-9.98136
-9.98989
-9.99952
-10.0099
-10.0208
-10.032
-10.0434
-10.0548
-10.0661
-10.0773
-10.0883
-10.0989
-10.1093
-10.1194
-10.129
-10.1383
-10.1472
-10.1557
-10.1637
-10.1714
-10.1786
-10.1853
-10.1916
-10.2173
-10.1545
-10.0723
-10.0216
-9.98527
-9.95922
-9.94596
-9.94131
-9.94147
-9.9453
-9.95213
-9.96111
-9.97152
-9.98293
-9.99498
-10.0074
-10.02
-10.0327
-10.0452
-10.0575
-10.0695
-10.0812
-10.0925
-10.1034
-10.1139
-10.1239
-10.1335
-10.1425
-10.1511
-10.1592
-10.1668
-10.1739
-10.1805
-10.3616
-10.1284
-10.003
-9.99591
-9.98606
-9.97184
-9.96837
-9.97006
-9.97235
-9.97568
-9.98066
-9.98703
-9.99441
-10.0026
-10.0116
-10.021
-10.0308
-10.0409
-10.0511
-10.0613
-10.0714
-10.0814
-10.0912
-10.1007
-10.11
-10.1189
-10.1275
-10.1357
-10.1435
-10.151
-10.158
-10.1646
-10.1708
-11.3104
-10.0771
-9.4858
-9.41311
-9.43221
-9.47337
-9.53146
-9.59066
-9.64501
-9.69514
-9.74141
-9.78344
-9.82134
-9.85561
-9.88672
-9.91502
-9.94085
-9.96449
-9.9862
-10.0062
-10.0247
-10.0417
-10.0576
-10.0722
-10.0859
-10.0986
-10.1103
-10.1212
-10.1314
-10.1407
-10.1493
-10.1573
-10.1644
-15.0763
-12.8657
-11.8527
-11.2332
-10.8155
-10.5675
-10.4047
-10.281
-10.1889
-10.1253
-10.0828
-10.0546
-10.0368
-10.0268
-10.0227
-10.0227
-10.0259
-10.0312
-10.0381
-10.0461
-10.0549
-10.064
-10.0734
-10.0828
-10.0921
-10.1013
-10.1102
-10.1188
-10.1271
-10.1349
-10.1424
-10.1496
-10.1563
-1.21639
-5.30324
-7.41502
-8.1782
-8.60953
-8.97015
-9.23821
-9.41729
-9.54381
-9.64216
-9.72039
-9.78227
-9.83196
-9.87308
-9.90793
-9.93792
-9.96409
-9.98723
-10.0079
-10.0267
-10.0437
-10.0593
-10.0737
-10.0869
-10.0992
-10.1106
-10.1211
-10.1309
-10.1399
-10.1483
-10.156
-10.1631
-10.1696
-10.3068
-10.0539
-10.3631
-10.6627
-10.7886
-10.8301
-10.8476
-10.854
-10.8561
-10.8634
-10.8823
-10.9147
-10.9592
-11.0138
-11.0758
-11.1423
-11.2103
-11.2773
-11.3409
-11.3992
-11.4506
-11.4941
-11.5286
-11.5537
-11.5691
-11.5745
-11.57
-11.5556
-11.5314
-11.4974
-11.4537
-11.4003
-11.3372
-11.2643
-11.1814
-11.0884
-10.9852
-10.8716
-10.7472
-10.612
-10.4658
-10.3082
-10.1394
-9.95902
-9.76711
-9.56369
-9.34891
-9.123
-8.88624
-8.63905
-8.38202
-8.11582
-7.84122
-7.55914
-7.27061
-6.97675
-6.67877
-6.37796
-6.07564
-5.77319
-5.47198
-5.17339
-4.87873
-4.58927
-4.30621
-4.03061
-3.76345
-3.50556
-3.25764
-3.02025
-2.79381
-2.57859
-2.37476
-2.18237
-2.00135
-1.83153
-1.67267
-1.5244
-1.38637
-1.2581
-1.13911
-1.02892
-0.927
-0.83284
-0.745918
-0.665752
-0.591854
-0.523781
-0.461075
-0.403384
-0.350211
-0.30143
-0.256174
-0.215158
-0.175835
-0.142282
-0.104845
-0.081805
-0.0343759
-0.0409512
-10.3556
-10.3389
-10.5373
-10.6947
-10.7387
-10.7413
-10.7434
-10.7479
-10.7564
-10.7743
-10.8049
-10.8475
-10.9
-10.9601
-11.0255
-11.0937
-11.1625
-11.2297
-11.293
-11.3509
-11.402
-11.4453
-11.4796
-11.5046
-11.52
-11.5254
-11.5209
-11.5067
-11.4827
-11.4489
-11.4053
-11.3521
-11.2892
-11.2165
-11.1338
-11.0411
-10.9382
-10.8249
-10.7009
-10.5662
-10.4205
-10.2636
-10.0955
-9.9161
-9.72526
-9.52307
-9.30969
-9.08534
-8.85033
-8.60506
-8.35013
-8.08618
-7.81398
-7.53444
-7.24855
-6.95742
-6.66222
-6.3642
-6.06468
-5.76498
-5.46645
-5.17043
-4.87821
-4.59104
-4.31009
-4.0364
-3.77095
-3.51455
-3.26791
-3.03158
-2.80599
-2.59143
-2.38808
-2.19599
-2.0151
-1.84528
-1.68627
-1.53775
-1.39938
-1.27068
-1.1512
-1.04046
-0.937958
-0.843183
-0.755628
-0.674816
-0.600265
-0.531536
-0.468171
-0.409825
-0.355991
-0.30656
-0.260631
-0.218989
-0.178922
-0.144904
-0.106376
-0.0838593
-0.033295
-0.0460647
-10.3674
-10.3743
-10.4633
-10.5774
-10.6488
-10.6886
-10.7172
-10.7384
-10.7541
-10.7713
-10.7955
-10.8287
-10.8711
-10.9222
-10.9803
-11.0433
-11.1087
-11.1739
-11.2363
-11.294
-11.3451
-11.3883
-11.4228
-11.4481
-11.4637
-11.4694
-11.4654
-11.4516
-11.428
-11.3946
-11.3515
-11.2987
-11.2361
-11.1638
-11.0815
-10.9893
-10.8868
-10.774
-10.6507
-10.5166
-10.3716
-10.2156
-10.0485
-9.87021
-9.68065
-9.4799
-9.26813
-9.04556
-8.8125
-8.56937
-8.31673
-8.05523
-7.78563
-7.5088
-7.22572
-6.93747
-6.6452
-6.35012
-6.05352
-5.75669
-5.46095
-5.1676
-4.87792
-4.59312
-4.31435
-4.04265
-3.77897
-3.52413
-3.27882
-3.0436
-2.81891
-2.60505
-2.40219
-2.21042
-2.02968
-1.85985
-1.7007
-1.55192
-1.41319
-1.28403
-1.16403
-1.05272
-0.949597
-0.854168
-0.76594
-0.684439
-0.60919
-0.53976
-0.475692
-0.416646
-0.36211
-0.311982
-0.265345
-0.22303
-0.182198
-0.147649
-0.108058
-0.0859233
-0.0324153
-0.0509571
-10.3728
-10.3946
-10.4647
-10.5685
-10.6436
-10.6828
-10.706
-10.7231
-10.7379
-10.7557
-10.7805
-10.8138
-10.8553
-10.9041
-10.9584
-11.0164
-11.0759
-11.1348
-11.1915
-11.2443
-11.2914
-11.3317
-11.3642
-11.3883
-11.4034
-11.4091
-11.4053
-11.3917
-11.3685
-11.3354
-11.2928
-11.2405
-11.1785
-11.1067
-11.025
-10.9333
-10.8315
-10.7194
-10.5968
-10.4635
-10.3195
-10.1645
-9.99859
-9.82157
-9.63346
-9.43433
-9.22435
-9.00373
-8.7728
-8.53197
-8.28179
-8.0229
-7.75604
-7.48207
-7.20194
-6.9167
-6.62748
-6.33546
-6.04188
-5.74803
-5.45518
-5.16461
-4.87756
-4.59523
-4.31874
-4.04913
-3.78731
-3.5341
-3.2902
-3.05617
-2.83245
-2.61933
-2.41702
-2.2256
-2.04503
-1.87522
-1.71593
-1.5669
-1.42778
-1.29816
-1.17762
-1.06571
-0.961932
-0.865813
-0.776876
-0.694645
-0.618654
-0.548479
-0.483665
-0.423874
-0.368591
-0.317724
-0.270342
-0.227306
-0.185679
-0.150543
-0.109894
-0.088037
-0.0317046
-0.055671
-10.3795
-10.4102
-10.469
-10.5493
-10.6121
-10.6495
-10.6757
-10.6983
-10.7192
-10.7415
-10.7683
-10.8014
-10.8408
-10.8861
-10.9361
-10.9894
-11.0443
-11.0988
-11.1513
-11.2001
-11.2436
-11.2807
-11.3105
-11.3323
-11.3454
-11.3499
-11.3451
-11.3308
-11.3072
-11.2743
-11.2318
-11.1797
-11.118
-11.0467
-10.9655
-10.8743
-10.7731
-10.6617
-10.5399
-10.4076
-10.2645
-10.1107
-9.94604
-9.77043
-9.58389
-9.3865
-9.17842
-8.95989
-8.7312
-8.49279
-8.24519
-7.98902
-7.72501
-7.454
-7.17693
-6.89481
-6.60874
-6.31988
-6.02945
-5.73869
-5.44884
-5.16116
-4.87686
-4.59711
-4.32301
-4.05558
-3.79572
-3.54426
-3.30187
-3.06911
-2.84643
-2.63413
-2.43243
-2.24142
-2.06107
-1.89129
-1.73189
-1.58261
-1.44312
-1.31304
-1.19195
-1.07941
-0.974959
-0.878123
-0.788441
-0.705442
-0.628672
-0.55771
-0.492106
-0.431527
-0.375453
-0.323803
-0.275635
-0.23183
-0.189382
-0.153596
-0.111902
-0.0902049
-0.0311869
-0.0601539
-10.385
-10.4183
-10.4683
-10.5324
-10.5885
-10.628
-10.6576
-10.6831
-10.7062
-10.7297
-10.7565
-10.7882
-10.8254
-10.8675
-10.9138
-10.963
-11.0134
-11.0635
-11.1117
-11.1565
-11.1965
-11.2304
-11.2576
-11.2771
-11.2884
-11.2913
-11.2853
-11.2702
-11.246
-11.2126
-11.1699
-11.1178
-11.0561
-10.9849
-10.904
-10.8133
-10.7126
-10.6018
-10.4808
-10.3493
-10.2073
-10.0546
-9.89117
-9.717
-9.53208
-9.33648
-9.13036
-8.91396
-8.68759
-8.45167
-8.20671
-7.95334
-7.69227
-7.42432
-7.15039
-6.87149
-6.58868
-6.30309
-6.01591
-5.72834
-5.44162
-5.15694
-4.87552
-4.59847
-4.32689
-4.06177
-3.804
-3.55439
-3.31362
-3.08224
-2.86069
-2.64931
-2.44829
-2.25775
-2.07767
-1.90797
-1.7485
-1.59901
-1.45916
-1.32862
-1.20698
-1.09381
-0.988662
-0.891086
-0.80063
-0.716832
-0.639246
-0.56746
-0.501026
-0.439617
-0.382712
-0.330233
-0.281237
-0.236618
-0.19332
-0.156823
-0.114096
-0.0924243
-0.0308936
-0.0643372
-10.3889
-10.4222
-10.4663
-10.5201
-10.5701
-10.6089
-10.6396
-10.6662
-10.6909
-10.7157
-10.743
-10.7741
-10.8095
-10.849
-10.892
-10.9372
-10.9834
-11.0292
-11.0732
-11.1139
-11.1502
-11.1809
-11.2051
-11.2222
-11.2315
-11.2327
-11.2253
-11.2092
-11.1842
-11.1502
-11.107
-11.0547
-10.9929
-10.9217
-10.841
-10.7506
-10.6503
-10.54
-10.4196
-10.2889
-10.1479
-9.99629
-9.83415
-9.66141
-9.47809
-9.28429
-9.08014
-8.86591
-8.64189
-8.4085
-8.16625
-7.91574
-7.65768
-7.39286
-7.12217
-6.84657
-6.56712
-6.28491
-6.00109
-5.71684
-5.43336
-5.15182
-4.87339
-4.59918
-4.33024
-4.06755
-3.812
-3.56436
-3.32531
-3.09542
-2.87512
-2.66474
-2.46448
-2.27447
-2.09473
-1.92518
-1.76569
-1.61602
-1.47583
-1.34484
-1.22266
-1.10886
-1.00301
-0.904681
-0.813429
-0.728806
-0.650374
-0.577729
-0.510429
-0.44815
-0.390376
-0.337026
-0.287162
-0.241682
-0.197507
-0.160238
-0.116489
-0.094693
-0.0308508
-0.0681679
-10.3913
-10.4237
-10.4636
-10.5098
-10.5544
-10.5916
-10.6225
-10.6501
-10.6759
-10.7016
-10.729
-10.7593
-10.793
-10.8301
-10.8698
-10.9114
-10.9537
-10.9955
-11.0355
-11.0724
-11.105
-11.1324
-11.1537
-11.1682
-11.1752
-11.1745
-11.1656
-11.1482
-11.1221
-11.0873
-11.0435
-10.9907
-10.9287
-10.8574
-10.7767
-10.6864
-10.5865
-10.4766
-10.3568
-10.2268
-10.0867
-9.93613
-9.7752
-9.60387
-9.42215
-9.23012
-9.02797
-8.81591
-8.59427
-8.36345
-8.12395
-7.87635
-7.62136
-7.35974
-7.09235
-6.82015
-6.54414
-6.26541
-5.98506
-5.70423
-5.4241
-5.14581
-4.87049
-4.59922
-4.33304
-4.0729
-3.81967
-3.57411
-3.33691
-3.1086
-2.88964
-2.68033
-2.48091
-2.29152
-2.11219
-1.94285
-1.78337
-1.63355
-1.49308
-1.36167
-1.23895
-1.12453
-1.01797
-0.91888
-0.826817
-0.741348
-0.662046
-0.588512
-0.520315
-0.457129
-0.398449
-0.344188
-0.293418
-0.247033
-0.201953
-0.163849
-0.119092
-0.0970094
-0.03108
-0.0716064
-10.3927
-10.4237
-10.46
-10.5007
-10.5407
-10.576
-10.6067
-10.6345
-10.6609
-10.687
-10.7142
-10.7437
-10.7757
-10.8104
-10.8472
-10.8854
-10.924
-10.962
-10.9981
-11.0313
-11.0605
-11.0846
-11.103
-11.1149
-11.1197
-11.1169
-11.1063
-11.0875
-11.0603
-11.0245
-10.98
-10.9266
-10.8641
-10.7926
-10.7118
-10.6215
-10.5217
-10.4122
-10.2929
-10.1635
-10.0242
-9.87462
-9.71487
-9.5449
-9.36475
-9.17449
-8.97431
-8.76444
-8.54518
-8.31695
-8.08022
-7.83557
-7.58369
-7.32531
-7.06129
-6.79254
-6.52005
-6.24486
-5.96805
-5.69073
-5.41403
-5.13907
-4.86695
-4.59872
-4.33539
-4.07789
-3.82707
-3.58369
-3.34841
-3.12178
-2.90421
-2.69606
-2.49756
-2.30886
-2.13
-1.96092
-1.80151
-1.65158
-1.51085
-1.37904
-1.2558
-1.14076
-1.03351
-0.933653
-0.840769
-0.75444
-0.674247
-0.5998
-0.530676
-0.466552
-0.406932
-0.351722
-0.300012
-0.252677
-0.206666
-0.167663
-0.121915
-0.0993725
-0.031599
-0.0746169
-10.3929
-10.4224
-10.4558
-10.4922
-10.5284
-10.5617
-10.5917
-10.6194
-10.6458
-10.6719
-10.6987
-10.7272
-10.7576
-10.79
-10.824
-10.859
-10.8941
-10.9285
-10.9609
-10.9905
-11.0163
-11.0373
-11.0528
-11.0621
-11.0646
-11.0598
-11.0475
-11.0272
-10.9987
-10.9619
-10.9165
-10.8624
-10.7995
-10.7276
-10.6465
-10.5562
-10.4565
-10.3473
-10.2283
-10.0996
-9.96098
-9.81238
-9.65376
-9.48512
-9.30649
-9.11799
-8.91976
-8.71206
-8.49519
-8.26954
-8.03559
-7.79391
-7.54515
-7.29005
-7.02942
-6.76417
-6.49523
-6.22362
-5.9504
-5.67664
-5.40343
-5.13186
-4.863
-4.59787
-4.33746
-4.08266
-3.83432
-3.59319
-3.3599
-3.13498
-2.91889
-2.71196
-2.51445
-2.32649
-2.14815
-1.97937
-1.82007
-1.67006
-1.5291
-1.39692
-1.27318
-1.15754
-1.04959
-0.948969
-0.855259
-0.768058
-0.686958
-0.611578
-0.541503
-0.476413
-0.415823
-0.35963
-0.306946
-0.258619
-0.211651
-0.171685
-0.124967
-0.101783
-0.0324205
-0.0771691
-10.3922
-10.4202
-10.4511
-10.4841
-10.5172
-10.5484
-10.5774
-10.6045
-10.6306
-10.6564
-10.6826
-10.7099
-10.7387
-10.7689
-10.8002
-10.8321
-10.864
-10.8948
-10.9238
-10.95
-10.9724
-10.9904
-11.003
-11.0097
-11.0099
-11.0031
-10.9889
-10.9671
-10.9373
-10.8994
-10.8531
-10.7983
-10.7348
-10.6625
-10.5812
-10.4908
-10.3912
-10.2821
-10.1636
-10.0354
-9.8975
-9.74981
-9.59229
-9.42495
-9.24785
-9.06107
-8.86479
-8.65925
-8.44475
-8.22169
-7.99052
-7.75181
-7.50618
-7.25436
-6.99714
-6.73539
-6.47003
-6.20203
-5.93242
-5.66225
-5.39256
-5.12442
-4.85885
-4.59687
-4.33941
-4.08737
-3.84156
-3.60272
-3.37145
-3.14831
-2.93374
-2.7281
-2.53161
-2.34443
-2.16664
-1.99821
-1.83904
-1.68899
-1.54782
-1.41528
-1.29107
-1.17483
-1.0662
-0.964805
-0.870265
-0.782183
-0.700163
-0.623831
-0.552783
-0.486702
-0.425115
-0.367907
-0.314219
-0.264862
-0.216911
-0.175919
-0.12825
-0.104241
-0.0335519
-0.0792409
-10.3906
-10.4171
-10.4458
-10.476
-10.5065
-10.5358
-10.5635
-10.5898
-10.6153
-10.6404
-10.6658
-10.6919
-10.719
-10.747
-10.7758
-10.8048
-10.8335
-10.8611
-10.8867
-10.9095
-10.9288
-10.9437
-10.9535
-10.9576
-10.9555
-10.9466
-10.9307
-10.9073
-10.8762
-10.8371
-10.7899
-10.7343
-10.6702
-10.5975
-10.5159
-10.4254
-10.3258
-10.217
-10.0988
-9.97112
-9.83393
-9.68714
-9.53073
-9.36469
-9.1891
-9.00405
-8.80971
-8.60633
-8.39421
-8.17372
-7.94534
-7.70959
-7.4671
-7.21857
-6.96476
-6.70652
-6.44473
-6.18036
-5.91437
-5.6478
-5.38165
-5.11695
-4.85471
-4.59589
-4.34142
-4.09216
-3.84891
-3.61237
-3.38317
-3.16185
-2.94886
-2.74452
-2.54908
-2.36272
-2.18551
-2.01744
-1.85844
-1.70837
-1.56701
-1.43413
-1.30944
-1.19261
-1.0833
-0.981143
-0.885768
-0.796796
-0.713843
-0.636544
-0.564505
-0.497409
-0.4348
-0.376549
-0.321829
-0.271404
-0.222447
-0.180368
-0.131765
-0.106752
-0.0349942
-0.0808185
-10.388
-10.4131
-10.4399
-10.4678
-10.496
-10.5234
-10.5498
-10.5752
-10.5998
-10.6241
-10.6484
-10.6732
-10.6986
-10.7245
-10.7508
-10.7771
-10.8027
-10.8271
-10.8495
-10.8691
-10.8853
-10.8972
-10.9043
-10.9058
-10.9014
-10.8905
-10.8727
-10.8477
-10.8153
-10.775
-10.7268
-10.6705
-10.6058
-10.5326
-10.4507
-10.3601
-10.2605
-10.1519
-10.034
-9.90692
-9.77045
-9.62457
-9.46926
-9.30453
-9.13045
-8.94714
-8.75475
-8.55353
-8.34378
-8.12588
-7.90028
-7.6675
-7.42815
-7.1829
-6.9325
-6.67777
-6.41956
-6.15881
-5.89645
-5.63348
-5.37088
-5.10963
-4.85072
-4.59508
-4.34361
-4.09715
-3.85647
-3.62227
-3.39517
-3.17569
-2.96428
-2.76127
-2.56692
-2.38139
-2.20479
-2.03711
-1.87829
-1.72821
-1.58667
-1.45346
-1.32831
-1.2109
-1.1009
-0.997972
-0.901756
-0.811885
-0.727987
-0.649705
-0.576656
-0.508526
-0.44487
-0.385549
-0.32977
-0.278244
-0.228256
-0.185034
-0.13551
-0.109317
-0.0367412
-0.0818989
-10.3846
-10.4083
-10.4334
-10.4593
-10.4854
-10.5112
-10.5362
-10.5604
-10.584
-10.6073
-10.6304
-10.6538
-10.6775
-10.7013
-10.7253
-10.7489
-10.7716
-10.793
-10.8123
-10.8288
-10.842
-10.851
-10.8554
-10.8544
-10.8477
-10.8348
-10.8152
-10.7886
-10.7547
-10.7133
-10.6641
-10.6069
-10.5416
-10.4679
-10.3858
-10.295
-10.1954
-10.087
-9.96951
-9.84295
-9.70721
-9.56225
-9.40805
-9.24465
-9.07209
-8.89052
-8.70009
-8.50104
-8.29368
-8.07836
-7.85554
-7.62573
-7.38951
-7.14755
-6.90055
-6.64932
-6.3947
-6.13755
-5.87882
-5.61945
-5.36039
-5.1026
-4.84702
-4.59456
-4.34609
-4.10244
-3.86434
-3.6325
-3.40751
-3.1899
-2.98008
-2.77842
-2.58516
-2.40049
-2.2245
-2.05722
-1.89859
-1.74852
-1.60682
-1.47328
-1.34766
-1.22967
-1.11899
-1.01528
-0.91822
-0.82744
-0.742585
-0.663305
-0.589228
-0.520042
-0.455318
-0.394902
-0.338039
-0.285379
-0.234337
-0.189915
-0.139481
-0.11194
-0.0387801
-0.0824916
-10.3802
-10.4027
-10.4262
-10.4504
-10.4747
-10.4989
-10.5224
-10.5454
-10.5679
-10.59
-10.6119
-10.6338
-10.6557
-10.6776
-10.6992
-10.7202
-10.7402
-10.7587
-10.775
-10.7886
-10.7989
-10.8052
-10.8069
-10.8035
-10.7945
-10.7795
-10.7581
-10.7299
-10.6946
-10.652
-10.6018
-10.5438
-10.4778
-10.4036
-10.3212
-10.2303
-10.1307
-10.0225
-9.9054
-9.77939
-9.64439
-9.50036
-9.34729
-9.18521
-9.0142
-8.83438
-8.64591
-8.44905
-8.24407
-8.03135
-7.81131
-7.58447
-7.35138
-7.11268
-6.86909
-6.62135
-6.37029
-6.11675
-5.86164
-5.60585
-5.35032
-5.09597
-4.84372
-4.59444
-4.34897
-4.10813
-3.87263
-3.64314
-3.42027
-3.20451
-2.99631
-2.796
-2.60385
-2.42004
-2.24468
-2.07781
-1.91938
-1.76931
-1.62745
-1.49359
-1.36751
-1.24893
-1.13756
-1.03308
-0.935155
-0.843455
-0.757628
-0.677335
-0.602213
-0.531951
-0.466136
-0.404602
-0.346629
-0.292805
-0.240686
-0.195012
-0.143673
-0.114625
-0.0410927
-0.0826182
-10.3751
-10.3964
-10.4184
-10.441
-10.4637
-10.4863
-10.5085
-10.5302
-10.5515
-10.5724
-10.5929
-10.6133
-10.6334
-10.6533
-10.6726
-10.6912
-10.7086
-10.7243
-10.7378
-10.7486
-10.7561
-10.7597
-10.7588
-10.7531
-10.7419
-10.7249
-10.7016
-10.6718
-10.6351
-10.5913
-10.5401
-10.4812
-10.4146
-10.34
-10.2572
-10.1661
-10.0666
-9.95859
-9.84188
-9.71643
-9.58218
-9.43909
-9.28717
-9.12644
-8.95698
-8.77891
-8.59243
-8.39774
-8.19516
-7.98502
-7.76777
-7.54388
-7.31392
-7.07849
-6.83828
-6.59402
-6.3465
-6.09656
-5.84503
-5.59282
-5.3408
-5.08988
-4.84094
-4.59482
-4.35235
-4.1143
-3.88139
-3.65426
-3.4335
-3.2196
-3.01301
-2.81406
-2.62301
-2.44007
-2.26535
-2.09888
-1.94066
-1.79061
-1.64858
-1.5144
-1.38785
-1.26868
-1.15661
-1.05134
-0.952554
-0.859922
-0.77311
-0.691787
-0.615601
-0.544245
-0.477318
-0.414642
-0.355536
-0.300519
-0.247297
-0.200323
-0.148078
-0.117372
-0.0436556
-0.0823098
-10.3691
-10.3892
-10.41
-10.4311
-10.4524
-10.4735
-10.4944
-10.5148
-10.5347
-10.5543
-10.5735
-10.5923
-10.6107
-10.6285
-10.6457
-10.6619
-10.6768
-10.6899
-10.7007
-10.7088
-10.7136
-10.7147
-10.7114
-10.7033
-10.6899
-10.6709
-10.6459
-10.6145
-10.5764
-10.5314
-10.4791
-10.4195
-10.3522
-10.2771
-10.194
-10.1028
-10.0033
-9.8955
-9.77918
-9.65431
-9.52082
-9.37868
-9.22791
-9.06853
-8.90063
-8.72434
-8.53983
-8.34733
-8.14714
-7.9396
-7.72512
-7.50418
-7.27732
-7.04514
-6.80829
-6.56749
-6.3235
-6.07712
-5.82916
-5.58049
-5.33197
-5.08445
-4.8388
-4.59582
-4.35632
-4.12106
-3.89071
-3.66592
-3.44726
-3.23523
-3.03024
-2.83264
-2.6427
-2.46062
-2.28653
-2.12047
-1.96245
-1.8124
-1.67021
-1.5357
-1.40869
-1.28892
-1.17615
-1.07008
-0.970411
-0.876833
-0.789021
-0.706652
-0.629385
-0.556916
-0.488856
-0.425015
-0.364751
-0.308514
-0.254165
-0.205845
-0.152688
-0.120184
-0.0464408
-0.0816056
-10.3624
-10.3815
-10.401
-10.4208
-10.4407
-10.4604
-10.4799
-10.499
-10.5177
-10.5359
-10.5536
-10.5708
-10.5875
-10.6035
-10.6185
-10.6325
-10.645
-10.6556
-10.6638
-10.6694
-10.6716
-10.6702
-10.6645
-10.6542
-10.6388
-10.6179
-10.5911
-10.5581
-10.5187
-10.4725
-10.4192
-10.3587
-10.2908
-10.2152
-10.1318
-10.0405
-9.94106
-9.83345
-9.71753
-9.59324
-9.46052
-9.31935
-9.16974
-9.01173
-8.8454
-8.67089
-8.48836
-8.29805
-8.10024
-7.89528
-7.68356
-7.46556
-7.24178
-7.01283
-6.77932
-6.54196
-6.30146
-6.0586
-5.81418
-5.56903
-5.32396
-5.07981
-4.83741
-4.59754
-4.36099
-4.12848
-3.90068
-3.67821
-3.46163
-3.25144
-3.04804
-2.85178
-2.66294
-2.48171
-2.30824
-2.14259
-1.98476
-1.83472
-1.69234
-1.5575
-1.43001
-1.30964
-1.19615
-1.08927
-0.988714
-0.894177
-0.80535
-0.721919
-0.643553
-0.569951
-0.500738
-0.435712
-0.374267
-0.316784
-0.261281
-0.211572
-0.157492
-0.123063
-0.0494162
-0.080551
-10.355
-10.3731
-10.3914
-10.41
-10.4286
-10.447
-10.4652
-10.483
-10.5003
-10.5171
-10.5334
-10.5491
-10.564
-10.5781
-10.5912
-10.603
-10.6132
-10.6214
-10.6272
-10.6303
-10.6302
-10.6264
-10.6185
-10.606
-10.5886
-10.5658
-10.5373
-10.5029
-10.4621
-10.4147
-10.3604
-10.2991
-10.2306
-10.1545
-10.0708
-9.9794
-9.88005
-9.77267
-9.65717
-9.53347
-9.40154
-9.26135
-9.11292
-8.95628
-8.79153
-8.61879
-8.43824
-8.25012
-8.05469
-7.85229
-7.64332
-7.42823
-7.20753
-6.98177
-6.75157
-6.5176
-6.28055
-6.04119
-5.80026
-5.55857
-5.31691
-5.07609
-4.8369
-4.60011
-4.36647
-4.13667
-3.91138
-3.6912
-3.47668
-3.2683
-3.06646
-2.87152
-2.68376
-2.50337
-2.33051
-2.16525
-2.0076
-1.85755
-1.71499
-1.5798
-1.45182
-1.33083
-1.21662
-1.10891
-1.00745
-0.91194
-0.822082
-0.737572
-0.65809
-0.583337
-0.512951
-0.446719
-0.38407
-0.325316
-0.268635
-0.217497
-0.162475
-0.126012
-0.0525467
-0.0791951
-10.347
-10.3641
-10.3814
-10.3988
-10.4161
-10.4333
-10.4502
-10.4667
-10.4827
-10.4982
-10.513
-10.5271
-10.5404
-10.5527
-10.5638
-10.5735
-10.5815
-10.5875
-10.591
-10.5918
-10.5894
-10.5833
-10.5733
-10.5587
-10.5394
-10.5149
-10.4848
-10.4488
-10.4067
-10.3582
-10.303
-10.2409
-10.1717
-10.0953
-10.0113
-9.91979
-9.82052
-9.71339
-9.59832