/*--------------------------------*- C++ -*----------------------------------*\
  =========                 |
  \\      /  F ield         | OpenFOAM: The Open Source CFD Toolbox
   \\    /   O peration     | Website:  https://openfoam.org
    \\  /    A nd           | Version:  10
     \\/     M anipulation  |
\*---------------------------------------------------------------------------*/
FoamFile
{
    format      ascii;
    class       surfaceScalarField;
    location    "1900";
    object      phi;
}
// * * * * * * * * * * * * * * * * * * * * * * * * * * * * * * * * * * * * * //

dimensions      [0 3 -1 0 0 0 0];

internalField   nonuniform List<scalar> 
13452
(
6.29962e-05
-2.72776e-06
6.37619e-05
-7.65633e-07
6.45326e-05
-7.70784e-07
6.38574e-05
6.75237e-07
6.2516e-05
1.34139e-06
6.10812e-05
1.43478e-06
5.97497e-05
1.33152e-06
5.85561e-05
1.19366e-06
5.74953e-05
1.0608e-06
5.65542e-05
9.41093e-07
5.57171e-05
8.37032e-07
5.49687e-05
7.48453e-07
5.42953e-05
6.73414e-07
5.36859e-05
6.09385e-07
5.31316e-05
5.54263e-07
5.26252e-05
5.06454e-07
5.21605e-05
4.64691e-07
5.17325e-05
4.27952e-07
5.13371e-05
3.95425e-07
5.09706e-05
3.66467e-07
5.06301e-05
3.40568e-07
5.03127e-05
3.17324e-07
5.00163e-05
2.96411e-07
4.97388e-05
2.77581e-07
4.94781e-05
2.60651e-07
4.92326e-05
2.45507e-07
4.90005e-05
2.32121e-07
4.87799e-05
2.20546e-07
4.85688e-05
2.11118e-07
4.8365e-05
2.0377e-07
4.81641e-05
2.0097e-07
4.79721e-05
1.91946e-07
1.84057e-07
4.77881e-05
6.28938e-05
-3.6312e-06
6.27373e-05
-6.0916e-07
6.21168e-05
-1.50247e-07
6.23912e-05
4.00756e-07
6.28732e-05
8.59442e-07
6.32662e-05
1.04182e-06
6.35106e-05
1.08704e-06
6.36214e-05
1.0829e-06
6.36288e-05
1.05345e-06
6.35618e-05
1.00804e-06
6.34435e-05
9.55298e-07
6.32906e-05
9.01348e-07
6.3115e-05
8.49063e-07
6.29249e-05
7.99526e-07
6.2726e-05
7.53098e-07
6.25226e-05
7.09882e-07
6.23175e-05
6.69809e-07
6.21127e-05
6.32693e-07
6.19098e-05
5.98317e-07
6.17098e-05
5.66462e-07
6.15135e-05
5.36929e-07
6.13213e-05
5.09536e-07
6.11336e-05
4.84132e-07
6.09505e-05
4.60592e-07
6.07724e-05
4.38831e-07
6.05991e-05
4.18803e-07
6.04307e-05
4.00533e-07
6.02672e-05
3.8405e-07
6.01086e-05
3.69656e-07
5.99554e-05
3.56956e-07
5.98081e-05
3.48263e-07
5.96666e-05
3.3347e-07
3.47092e-07
5.95036e-05
6.23344e-05
-2.20424e-06
6.26284e-05
-9.03131e-07
6.27866e-05
-3.08443e-07
6.3096e-05
9.13468e-08
6.34473e-05
5.0821e-07
6.37493e-05
7.39756e-07
6.39954e-05
8.40987e-07
6.41903e-05
8.8799e-07
6.43385e-05
9.05251e-07
6.44463e-05
9.00237e-07
6.45208e-05
8.80839e-07
6.45682e-05
8.53897e-07
6.45939e-05
8.23365e-07
6.46022e-05
7.91265e-07
6.45965e-05
7.58802e-07
6.45796e-05
7.26776e-07
6.45537e-05
6.95668e-07
6.45207e-05
6.65736e-07
6.44819e-05
6.37104e-07
6.44385e-05
6.09832e-07
6.43915e-05
5.83935e-07
6.43416e-05
5.59412e-07
6.42895e-05
5.36251e-07
6.42357e-05
5.14448e-07
6.41805e-05
4.94016e-07
6.41243e-05
4.74991e-07
6.40673e-05
4.57468e-07
6.40099e-05
4.41539e-07
6.3952e-05
4.27502e-07
6.38937e-05
4.15269e-07
6.38357e-05
4.06306e-07
6.37719e-05
3.97227e-07
4.05076e-07
6.37139e-05
6.47916e-05
-1.41273e-06
6.47391e-05
-8.50707e-07
6.47874e-05
-3.56657e-07
6.48995e-05
-2.08227e-08
6.50726e-05
3.35173e-07
6.52456e-05
5.66727e-07
6.54029e-05
6.83728e-07
6.55433e-05
7.47528e-07
6.5666e-05
7.82571e-07
6.57709e-05
7.95379e-07
6.58592e-05
7.92528e-07
6.59328e-05
7.8031e-07
6.59935e-05
7.62631e-07
6.60431e-05
7.41635e-07
6.60832e-05
7.18709e-07
6.61151e-05
6.94844e-07
6.61401e-05
6.70712e-07
6.61591e-05
6.4674e-07
6.6173e-05
6.23206e-07
6.61825e-05
6.00297e-07
6.61883e-05
5.78143e-07
6.61909e-05
5.56834e-07
6.61907e-05
5.36442e-07
6.61881e-05
5.17032e-07
6.61835e-05
4.98676e-07
6.6177e-05
4.81462e-07
6.61689e-05
4.65518e-07
6.61595e-05
4.50983e-07
6.61489e-05
4.38133e-07
6.6137e-05
4.27097e-07
6.61245e-05
4.18863e-07
6.61089e-05
4.128e-07
4.16375e-07
6.60976e-05
6.70182e-05
-9.74175e-07
6.6871e-05
-7.03482e-07
6.68449e-05
-3.30553e-07
6.68728e-05
-4.87369e-08
6.69617e-05
2.4629e-07
6.70706e-05
4.57805e-07
6.71774e-05
5.76939e-07
6.72778e-05
6.47156e-07
6.73704e-05
6.89903e-07
6.74544e-05
7.11439e-07
6.75294e-05
7.17473e-07
6.75961e-05
7.13607e-07
6.76553e-05
7.03505e-07
6.77076e-05
6.89297e-07
6.77539e-05
6.72411e-07
6.77949e-05
6.53891e-07
6.78311e-05
6.34473e-07
6.78632e-05
6.14653e-07
6.78916e-05
5.94778e-07
6.79168e-05
5.75098e-07
6.79392e-05
5.55795e-07
6.7959e-05
5.37009e-07
6.79766e-05
5.18854e-07
6.79922e-05
5.01432e-07
6.8006e-05
4.84844e-07
6.80183e-05
4.69201e-07
6.80291e-05
4.54643e-07
6.80388e-05
4.41321e-07
6.80475e-05
4.29477e-07
6.80552e-05
4.19315e-07
6.80626e-05
4.11483e-07
6.80694e-05
4.06075e-07
4.05958e-07
6.80798e-05
6.9089e-05
-6.79143e-07
6.89436e-05
-5.58073e-07
6.89005e-05
-2.87504e-07
6.89039e-05
-5.21363e-08
6.89554e-05
1.94796e-07
6.90297e-05
3.83515e-07
6.91069e-05
4.99726e-07
6.91818e-05
5.723e-07
6.92531e-05
6.18616e-07
6.93197e-05
6.44802e-07
6.93812e-05
6.56029e-07
6.94375e-05
6.57257e-07
6.94891e-05
6.51881e-07
6.95364e-05
6.41993e-07
6.95798e-05
6.29029e-07
6.96197e-05
6.14044e-07
6.96563e-05
5.97798e-07
6.96902e-05
5.80821e-07
6.97215e-05
5.63494e-07
6.97505e-05
5.46097e-07
6.97774e-05
5.28843e-07
6.98025e-05
5.11897e-07
6.9826e-05
4.95394e-07
6.9848e-05
4.79453e-07
6.98686e-05
4.64188e-07
6.98881e-05
4.49716e-07
6.99066e-05
4.36168e-07
6.99242e-05
4.23687e-07
6.99412e-05
4.12461e-07
6.99579e-05
4.02673e-07
6.99747e-05
3.94688e-07
6.99921e-05
3.88605e-07
3.85239e-07
7.00129e-05
7.11537e-05
-4.66487e-07
7.10277e-05
-4.32066e-07
7.09799e-05
-2.39741e-07
7.09726e-05
-4.48097e-08
7.10042e-05
1.63217e-07
7.10576e-05
3.30072e-07
7.11167e-05
4.40626e-07
7.11758e-05
5.13157e-07
7.12335e-05
5.60949e-07
7.12886e-05
5.89748e-07
7.13403e-05
6.04274e-07
7.13887e-05
6.089e-07
7.14338e-05
6.06745e-07
7.1476e-05
5.99842e-07
7.15154e-05
5.89617e-07
7.15523e-05
5.77124e-07
7.1587e-05
5.63129e-07
7.16196e-05
5.48183e-07
7.16504e-05
5.32687e-07
7.16796e-05
5.16942e-07
7.17072e-05
5.01177e-07
7.17336e-05
4.85572e-07
7.17587e-05
4.70274e-07
7.17827e-05
4.55407e-07
7.18058e-05
4.41089e-07
7.18281e-05
4.27431e-07
7.18497e-05
4.14546e-07
7.18709e-05
4.02552e-07
7.18918e-05
3.91578e-07
7.19127e-05
3.81737e-07
7.19342e-05
3.73179e-07
7.19569e-05
3.65859e-07
3.59757e-07
7.19824e-05
7.32523e-05
-3.13545e-07
7.31446e-05
-3.24304e-07
7.30947e-05
-1.89917e-07
7.30808e-05
-3.08319e-08
7.31e-05
1.43941e-07
7.31398e-05
2.90331e-07
7.31869e-05
3.93522e-07
7.32358e-05
4.64262e-07
7.32845e-05
5.12195e-07
7.33319e-05
5.42393e-07
7.33771e-05
5.5909e-07
7.34199e-05
5.66119e-07
7.34603e-05
5.66316e-07
7.34985e-05
5.61629e-07
7.35347e-05
5.53457e-07
7.35689e-05
5.42842e-07
7.36015e-05
5.3055e-07
7.36326e-05
5.17142e-07
7.36622e-05
5.03034e-07
7.36906e-05
4.88539e-07
7.37179e-05
4.73898e-07
7.37442e-05
4.59298e-07
7.37696e-05
4.44894e-07
7.37942e-05
4.30811e-07
7.38181e-05
4.17161e-07
7.38415e-05
4.04045e-07
7.38645e-05
3.91556e-07
7.38872e-05
3.79776e-07
7.391e-05
3.68779e-07
7.39332e-05
3.58603e-07
7.39571e-05
3.49251e-07
7.39824e-05
3.40564e-07
3.32221e-07
7.40099e-05
7.53941e-05
-2.05191e-07
7.53032e-05
-2.33411e-07
7.52537e-05
-1.40374e-07
7.52354e-05
-1.25365e-08
7.52462e-05
1.33161e-07
7.5276e-05
2.60461e-07
7.53144e-05
3.55185e-07
7.53559e-05
4.22768e-07
7.53983e-05
4.69806e-07
7.54401e-05
5.00512e-07
7.54807e-05
5.18568e-07
7.55195e-05
5.273e-07
7.55565e-05
5.29259e-07
7.55919e-05
5.26281e-07
7.56256e-05
5.19718e-07
7.56579e-05
5.10588e-07
7.56888e-05
4.99647e-07
7.57185e-05
4.87463e-07
7.5747e-05
4.74456e-07
7.57746e-05
4.60949e-07
7.58013e-05
4.4719e-07
7.58273e-05
4.33371e-07
7.58525e-05
4.19648e-07
7.58772e-05
4.06145e-07
7.59014e-05
3.92967e-07
7.59252e-05
3.802e-07
7.59489e-05
3.67915e-07
7.59725e-05
3.56163e-07
7.59963e-05
3.44968e-07
7.60206e-05
3.3431e-07
7.60457e-05
3.24104e-07
7.60721e-05
3.14134e-07
3.0401e-07
7.61004e-05
7.7584e-05
-1.29604e-07
7.75094e-05
-1.58792e-07
7.74626e-05
-9.35652e-08
7.74419e-05
8.1726e-09
7.74465e-05
1.28561e-07
7.74688e-05
2.38165e-07
7.75002e-05
3.23758e-07
7.75358e-05
3.87116e-07
7.75733e-05
4.32386e-07
7.76109e-05
4.62849e-07
7.76479e-05
4.81596e-07
7.76837e-05
4.91467e-07
7.77183e-05
4.94724e-07
7.77515e-05
4.93067e-07
7.77834e-05
4.87783e-07
7.78141e-05
4.79851e-07
7.78438e-05
4.70013e-07
7.78724e-05
4.5883e-07
7.79001e-05
4.46725e-07
7.79271e-05
4.34026e-07
7.79533e-05
4.20981e-07
7.79789e-05
4.07786e-07
7.80039e-05
3.94596e-07
7.80285e-05
3.8153e-07
7.80528e-05
3.68685e-07
7.80769e-05
3.56134e-07
7.81009e-05
3.43926e-07
7.81249e-05
3.32086e-07
7.81493e-05
3.20604e-07
7.81742e-05
3.09419e-07
7.81999e-05
2.98404e-07
7.82267e-05
2.87332e-07
2.75835e-07
7.82549e-05
7.98265e-05
-7.77478e-08
7.97671e-05
-9.94431e-08
7.97251e-05
-5.15431e-08
7.97038e-05
2.9489e-08
7.9704e-05
1.28317e-07
7.97204e-05
2.21773e-07
7.97462e-05
2.97973e-07
7.9777e-05
3.56327e-07
7.98103e-05
3.99096e-07
7.98445e-05
4.28663e-07
7.98785e-05
4.47517e-07
7.9912e-05
4.58033e-07
7.99445e-05
4.62186e-07
7.99761e-05
4.61523e-07
8.00066e-05
4.57243e-07
8.00362e-05
4.50278e-07
8.00648e-05
4.41345e-07
8.00927e-05
4.30991e-07
8.01198e-05
4.19638e-07
8.01462e-05
4.07609e-07
8.0172e-05
3.95154e-07
8.01973e-05
3.82469e-07
8.02222e-05
3.69703e-07
8.02468e-05
3.56973e-07
8.02711e-05
3.44366e-07
8.02953e-05
3.31941e-07
8.03195e-05
3.19734e-07
8.03438e-05
3.07747e-07
8.03685e-05
2.95948e-07
8.03936e-05
2.84258e-07
8.04195e-05
2.72538e-07
8.04463e-05
2.60574e-07
2.48055e-07
8.0474e-05
8.21255e-05
-4.28209e-08
8.20798e-05
-5.37309e-08
8.20439e-05
-1.56579e-08
8.20237e-05
4.97543e-08
8.20212e-05
1.30769e-07
8.20331e-05
2.09848e-07
8.20543e-05
2.7679e-07
8.2081e-05
3.29659e-07
8.21107e-05
3.69356e-07
8.21419e-05
3.97466e-07
8.21735e-05
4.15912e-07
8.22049e-05
4.26633e-07
8.22358e-05
4.3132e-07
8.2266e-05
4.31353e-07
8.22954e-05
4.27834e-07
8.2324e-05
4.21634e-07
8.23519e-05
4.13435e-07
8.23791e-05
4.03766e-07
8.24057e-05
3.93039e-07
8.24318e-05
3.81571e-07
8.24573e-05
3.69609e-07
8.24825e-05
3.57345e-07
8.25072e-05
3.44923e-07
8.25318e-05
3.32456e-07
8.25561e-05
3.20021e-07
8.25804e-05
3.07668e-07
8.26047e-05
2.95421e-07
8.26292e-05
2.83269e-07
8.26539e-05
2.7117e-07
8.26792e-05
2.59037e-07
8.2705e-05
2.46739e-07
8.27314e-05
2.34093e-07
2.20848e-07
8.27587e-05
8.44847e-05
-1.97594e-08
8.44506e-05
-1.96477e-08
8.44215e-05
1.35052e-08
8.44036e-05
6.76391e-08
8.43999e-05
1.34413e-07
8.44087e-05
2.01062e-07
8.44263e-05
2.59246e-07
8.44495e-05
3.06448e-07
8.44762e-05
3.42681e-07
8.45047e-05
3.68886e-07
8.45342e-05
3.86483e-07
8.45638e-05
3.97017e-07
8.45932e-05
4.01908e-07
8.46222e-05
4.02365e-07
8.46506e-05
3.99382e-07
8.46785e-05
3.93762e-07
8.47058e-05
3.86144e-07
8.47325e-05
3.77032e-07
8.47587e-05
3.66822e-07
8.47845e-05
3.55822e-07
8.48098e-05
3.44272e-07
8.48348e-05
3.32358e-07
8.48595e-05
3.2022e-07
8.4884e-05
3.07963e-07
8.49084e-05
2.95658e-07
8.49327e-05
2.83348e-07
8.49571e-05
2.71048e-07
8.49816e-05
2.58742e-07
8.50064e-05
2.46384e-07
8.50315e-05
2.33893e-07
8.50571e-05
2.21154e-07
8.50832e-05
2.08017e-07
1.94289e-07
8.51098e-05
8.69073e-05
-4.8659e-09
8.68827e-05
4.91009e-09
8.68602e-05
3.60278e-08
8.68456e-05
8.22712e-08
8.6842e-05
1.37986e-07
8.68488e-05
1.94203e-07
8.68637e-05
2.44409e-07
8.68841e-05
2.86042e-07
8.69082e-05
3.18609e-07
8.69345e-05
3.42586e-07
8.6962e-05
3.58977e-07
8.699e-05
3.68988e-07
8.70181e-05
3.73789e-07
8.70461e-05
3.74422e-07
8.70737e-05
3.71767e-07
8.71009e-05
3.66555e-07
8.71277e-05
3.59376e-07
8.7154e-05
3.50704e-07
8.71799e-05
3.40913e-07
8.72054e-05
3.303e-07
8.72306e-05
3.19094e-07
8.72555e-05
3.07473e-07
8.72801e-05
2.95572e-07
8.73046e-05
2.83489e-07
8.7329e-05
2.7129e-07
8.73533e-05
2.59012e-07
8.73777e-05
2.46667e-07
8.74022e-05
2.34237e-07
8.74269e-05
2.21679e-07
8.74519e-05
2.08922e-07
8.74771e-05
1.95873e-07
8.75027e-05
1.82415e-07
1.68403e-07
8.75286e-05
8.93962e-05
4.49581e-09
8.93792e-05
2.19302e-08
8.93627e-05
5.24703e-08
8.93517e-05
9.3256e-08
8.93492e-05
1.40554e-07
8.93551e-05
1.88234e-07
8.93681e-05
2.31413e-07
8.93864e-05
2.67792e-07
8.94083e-05
2.96673e-07
8.94327e-05
3.18229e-07
8.94585e-05
3.33152e-07
8.94851e-05
3.42366e-07
8.95121e-05
3.46824e-07
8.95391e-05
3.4741e-07
8.9566e-05
3.44896e-07
8.95926e-05
3.39934e-07
8.96189e-05
3.33064e-07
8.96449e-05
3.24724e-07
8.96705e-05
3.15264e-07
8.96959e-05
3.04965e-07
8.97209e-05
2.94044e-07
8.97457e-05
2.8267e-07
8.97703e-05
2.70971e-07
8.97948e-05
2.59038e-07
8.98191e-05
2.46934e-07
8.98434e-05
2.34693e-07
8.98678e-05
2.22324e-07
8.98922e-05
2.09812e-07
8.99168e-05
1.97121e-07
8.99415e-05
1.84194e-07
8.99664e-05
1.70958e-07
8.99915e-05
1.57326e-07
1.43193e-07
9.00167e-05
9.19542e-05
1.01653e-08
9.1943e-05
3.31631e-08
9.19318e-05
6.36668e-08
9.19244e-05
1.00607e-07
9.19234e-05
1.41541e-07
9.19293e-05
1.8235e-07
9.19412e-05
2.19496e-07
9.19579e-05
2.51087e-07
9.19782e-05
2.76408e-07
9.2001e-05
2.95475e-07
9.20253e-05
3.0876e-07
9.20507e-05
3.16971e-07
9.20767e-05
3.20879e-07
9.21029e-05
3.21229e-07
9.21291e-05
3.18688e-07
9.21552e-05
3.13834e-07
9.21811e-05
3.07154e-07
9.22068e-05
2.99048e-07
9.22322e-05
2.89841e-07
9.22574e-05
2.79791e-07
9.22823e-05
2.69105e-07
9.2307e-05
2.57941e-07
9.23316e-05
2.46418e-07
9.2356e-05
2.34624e-07
9.23803e-05
2.22616e-07
9.24046e-05
2.10425e-07
9.24288e-05
1.98064e-07
9.24531e-05
1.8552e-07
9.24775e-05
1.72767e-07
9.25019e-05
1.59761e-07
9.25264e-05
1.46449e-07
9.2551e-05
1.32769e-07
1.1865e-07
9.25755e-05
9.45839e-05
1.34025e-08
9.4577e-05
4.00715e-08
9.45701e-05
7.05529e-08
9.45661e-05
1.04632e-07
9.45669e-05
1.40699e-07
9.45733e-05
1.76008e-07
9.45847e-05
2.0806e-07
9.46004e-05
2.3539e-07
9.46194e-05
2.57381e-07
9.46409e-05
2.73989e-07
9.46641e-05
2.85552e-07
9.46885e-05
2.92619e-07
9.47136e-05
2.9582e-07
9.4739e-05
2.95778e-07
9.47646e-05
2.93068e-07
9.47903e-05
2.88199e-07
9.48158e-05
2.81604e-07
9.48412e-05
2.73645e-07
9.48664e-05
2.64619e-07
9.48915e-05
2.54764e-07
9.49163e-05
2.44271e-07
9.4941e-05
2.33288e-07
9.49654e-05
2.21925e-07
9.49898e-05
2.10264e-07
9.50141e-05
1.9836e-07
9.50382e-05
1.86243e-07
9.50624e-05
1.73927e-07
9.50865e-05
1.61406e-07
9.51106e-05
1.48661e-07
9.51347e-05
1.35663e-07
9.51588e-05
1.22376e-07
9.51828e-05
1.08757e-07
9.47601e-08
9.52067e-05
9.72879e-05
1.50581e-08
9.72841e-05
4.38322e-08
9.72806e-05
7.4048e-08
9.72794e-05
1.05816e-07
9.72821e-05
1.38052e-07
9.72892e-05
1.6892e-07
9.73005e-05
1.96688e-07
9.73156e-05
2.2028e-07
9.73338e-05
2.3922e-07
9.73543e-05
2.53469e-07
9.73766e-05
2.63292e-07
9.74001e-05
2.69135e-07
9.74244e-05
2.71515e-07
9.74492e-05
2.7096e-07
9.74743e-05
2.67966e-07
9.74995e-05
2.62977e-07
9.75247e-05
2.56376e-07
9.75499e-05
2.48489e-07
9.75749e-05
2.39583e-07
9.75998e-05
2.29876e-07
9.76246e-05
2.19542e-07
9.76491e-05
2.08718e-07
9.76735e-05
1.97506e-07
9.76978e-05
1.85981e-07
9.7722e-05
1.74196e-07
9.77461e-05
1.62182e-07
9.777e-05
1.49953e-07
9.77939e-05
1.37511e-07
9.78177e-05
1.24843e-07
9.78415e-05
1.11934e-07
9.78651e-05
9.87593e-08
9.78886e-05
8.52961e-08
7.15123e-08
9.79118e-05
0.000100068
1.5701e-08
0.000100067
4.53662e-08
0.000100066
7.49892e-08
0.000100067
1.04724e-07
0.000100071
1.33813e-07
0.000100079
1.61017e-07
0.000100091
1.85155e-07
0.000100106
2.05473e-07
0.000100123
2.21643e-07
0.000100143
2.33667e-07
0.000100164
2.41781e-07
0.000100187
2.4636e-07
0.000100211
2.47845e-07
0.000100235
2.46688e-07
0.00010026
2.43318e-07
0.000100285
2.38123e-07
0.00010031
2.3144e-07
0.000100335
2.23561e-07
0.000100359
2.14724e-07
0.000100384
2.05126e-07
0.000100409
1.94925e-07
0.000100433
1.84245e-07
0.000100458
1.73181e-07
0.000100482
1.61802e-07
0.000100506
1.50157e-07
0.00010053
1.38277e-07
0.000100553
1.2618e-07
0.000100577
1.1387e-07
0.000100601
1.01346e-07
0.000100624
8.85985e-08
0.000100647
7.56174e-08
0.00010067
6.23885e-08
4.88968e-08
0.000100693
0.000102928
1.57115e-08
0.000102928
4.5384e-08
0.000102929
7.41053e-08
0.000102932
1.01934e-07
0.000102937
1.28314e-07
0.000102946
1.52402e-07
0.000102958
1.73405e-07
0.000102972
1.90827e-07
0.000102989
2.04479e-07
0.000103009
2.14417e-07
0.00010303
2.20869e-07
0.000103052
2.24175e-07
0.000103075
2.24719e-07
0.000103099
2.22895e-07
0.000103123
2.19077e-07
0.000103147
2.13605e-07
0.000103172
2.06779e-07
0.000103197
1.98854e-07
0.000103221
1.90043e-07
0.000103246
1.80523e-07
0.000103271
1.70434e-07
0.000103295
1.59889e-07
0.000103319
1.48974e-07
0.000103343
1.37753e-07
0.000103367
1.26272e-07
0.000103391
1.14561e-07
0.000103414
1.02639e-07
0.000103438
9.05173e-08
0.000103461
7.81976e-08
0.000103484
6.56792e-08
0.000103506
5.29602e-08
0.000103529
4.0037e-08
2.69034e-08
0.000103551
0.000105869
1.53465e-08
0.00010587
4.4433e-08
0.000105872
7.20178e-08
0.000105876
9.8002e-08
0.000105882
1.21955e-07
0.000105892
1.43299e-07
0.000105903
1.61525e-07
0.000105918
1.76338e-07
0.000105935
1.87671e-07
0.000105953
1.95639e-07
0.000105974
2.00481e-07
0.000105996
2.02513e-07
0.000106018
2.02083e-07
0.000106042
1.99541e-07
0.000106065
1.95218e-07
0.00010609
1.89413e-07
0.000106114
1.82389e-07
0.000106138
1.74372e-07
0.000106163
1.65551e-07
0.000106187
1.56082e-07
0.000106212
1.4609e-07
0.000106236
1.35674e-07
0.00010626
1.24913e-07
0.000106284
1.13865e-07
0.000106308
1.02572e-07
0.000106331
9.1065e-08
0.000106354
7.93621e-08
0.000106377
6.74781e-08
0.0001064
5.54182e-08
0.000106423
4.31904e-08
0.000106445
3.07956e-08
0.000106467
1.82403e-08
5.52158e-09
0.000106488
0.000108894
1.47853e-08
0.000108895
4.29443e-08
0.000108898
6.92605e-08
0.000108903
9.34541e-08
0.00010891
1.1517e-07
0.000108919
1.34023e-07
0.000108931
1.49714e-07
0.000108945
1.62117e-07
0.000108961
1.71273e-07
0.00010898
1.77354e-07
0.000108999
1.80617e-07
0.000109021
1.8137e-07
0.000109043
1.79935e-07
0.000109066
1.7663e-07
0.000109089
1.71749e-07
0.000109113
1.65558e-07
0.000109137
1.58288e-07
0.000109161
1.50137e-07
0.000109186
1.41272e-07
0.00010921
1.31829e-07
0.000109234
1.21919e-07
0.000109258
1.11628e-07
0.000109282
1.01028e-07
0.000109306
9.01671e-08
0.000109329
7.90873e-08
0.000109352
6.7815e-08
0.000109375
5.63716e-08
0.000109398
4.47702e-08
0.00010942
3.30234e-08
0.000109442
2.11384e-08
0.000109464
9.12497e-09
0.000109485
-3.01036e-09
-1.52637e-08
0.000109506
0.000112005
1.4162e-08
0.000112007
4.1274e-08
0.00011201
6.63088e-08
0.000112014
8.87931e-08
0.000112021
1.0842e-07
0.00011203
1.24953e-07
0.000112042
1.38268e-07
0.000112055
1.48383e-07
0.000112071
1.55441e-07
0.000112089
1.59673e-07
0.000112108
1.6136e-07
0.000112129
1.6081e-07
0.00011215
1.58329e-07
0.000112173
1.54208e-07
0.000112196
1.48713e-07
0.000112219
1.4208e-07
0.000112243
1.34513e-07
0.000112267
1.26185e-07
0.000112291
1.1724e-07
0.000112315
1.07798e-07
0.000112339
9.79525e-08
0.000112363
8.77814e-08
0.000112387
7.73428e-08
0.00011241
6.66833e-08
0.000112433
5.58366e-08
0.000112456
4.48288e-08
0.000112479
3.36793e-08
0.000112501
2.24034e-08
0.000112523
1.10135e-08
0.000112545
-4.79289e-10
0.000112566
-1.20646e-08
0.000112587
-2.37323e-08
-3.5477e-08
0.000112607
0.000115205
1.35893e-08
0.000115207
3.97458e-08
0.000115209
6.36191e-08
0.000115214
8.45287e-08
0.00011522
1.02203e-07
0.000115228
1.16537e-07
0.000115239
1.27566e-07
0.000115252
1.35449e-07
0.000115267
1.40429e-07
0.000115284
1.428e-07
0.000115302
1.42876e-07
0.000115322
1.40969e-07
0.000115343
1.37375e-07
0.000115365
1.32368e-07
0.000115387
1.26188e-07
0.00011541
1.19046e-07
0.000115434
1.11121e-07
0.000115457
1.02563e-07
0.000115481
9.34961e-08
0.000115505
8.40214e-08
0.000115529
7.42196e-08
0.000115552
6.41551e-08
0.000115576
5.38774e-08
0.000115599
4.34255e-08
0.000115622
3.28277e-08
0.000115645
2.2108e-08
0.000115667
1.12828e-08
0.000115689
3.67707e-10
0.000115711
-1.06259e-08
0.000115732
-2.16855e-08
0.000115753
-3.28008e-08
0.000115773
-4.39601e-08
-5.51589e-08
0.000115793
0.000118496
1.31782e-08
0.000118497
3.86929e-08
0.000118499
6.1678e-08
0.000118503
8.12203e-08
0.000118508
9.70846e-08
0.000118515
1.09307e-07
0.000118524
1.18087e-07
0.000118536
1.23728e-07
0.00011855
1.26586e-07
0.000118566
1.27027e-07
0.000118583
1.25403e-07
0.000118602
1.2204e-07
0.000118622
1.17233e-07
0.000118643
1.11238e-07
0.000118665
1.04277e-07
0.000118688
9.65373e-08
0.000118711
8.81753e-08
0.000118734
7.93194e-08
0.000118757
7.00744e-08
0.000118781
6.05232e-08
0.000118804
5.0733e-08
0.000118828
4.0754e-08
0.000118851
3.06277e-08
0.000118874
2.03824e-08
0.000118897
1.00442e-08
0.000118919
-3.71221e-10
0.000118942
-1.0847e-08
0.000118963
-2.13731e-08
0.000118985
-3.19364e-08
0.000119005
-4.25283e-08
0.000119026
-5.31364e-08
0.000119046
-6.37527e-08
-7.43703e-08
0.000119065
0.000121881
1.30598e-08
0.000121882
3.85132e-08
0.000121882
6.10695e-08
0.000121884
7.95428e-08
0.000121887
9.37583e-08
0.000121893
1.03923e-07
0.0001219
1.10425e-07
0.00012191
1.13741e-07
0.000121922
1.14356e-07
0.000121937
1.12723e-07
0.000121953
1.09244e-07
0.000121971
1.04268e-07
0.00012199
9.80915e-08
0.00012201
9.09627e-08
0.000122031
8.30859e-08
0.000122053
7.4628e-08
0.000122076
6.57232e-08
0.000122099
5.64798e-08
0.000122122
4.69815e-08
0.000122145
3.72951e-08
0.000122168
2.74701e-08
0.000122191
1.75461e-08
0.000122214
7.55038e-09
0.000122237
-2.49394e-09
0.00012226
-1.25722e-08
0.000122282
-2.26706e-08
0.000122304
-3.27806e-08
0.000122326
-4.28922e-08
0.000122347
-5.29987e-08
0.000122367
-6.30905e-08
0.000122387
-7.31607e-08
0.000122407
-8.32002e-08
-9.32064e-08
0.000122426
0.000125363
1.34137e-08
0.000125362
3.97451e-08
0.00012536
6.2572e-08
0.00012536
8.03822e-08
0.00012536
9.312e-08
0.000125363
1.01228e-07
0.000125368
1.05338e-07
0.000125376
1.06139e-07
0.000125386
1.04281e-07
0.000125398
1.00326e-07
0.000125413
9.47418e-08
0.000125429
8.79106e-08
0.000125447
8.01386e-08
0.000125466
7.16685e-08
0.000125487
6.26901e-08
0.000125508
5.33507e-08
0.00012553
4.37637e-08
0.000125552
3.4014e-08
0.000125575
2.4166e-08
0.000125598
1.4266e-08
0.000125621
4.34787e-09
0.000125644
-5.5651e-09
0.000125667
-1.54567e-08
0.00012569
-2.53162e-08
0.000125713
-3.51365e-08
0.000125735
-4.49129e-08
0.000125757
-5.46416e-08
0.000125778
-6.43193e-08
0.000125799
-7.39424e-08
0.00012582
-8.35065e-08
0.000125839
-9.30069e-08
0.000125859
-1.02439e-07
-1.11802e-07
0.000125877
0.000128944
1.45167e-08
0.000128941
4.31924e-08
0.000128936
6.73092e-08
0.000128931
8.49775e-08
0.000128928
9.63879e-08
0.000128927
1.02334e-07
0.000128928
1.03782e-07
0.000128933
1.01712e-07
0.00012894
9.69869e-08
0.00012895
9.03097e-08
0.000128963
8.22352e-08
0.000128977
7.31911e-08
0.000128994
6.35004e-08
0.000129012
5.34028e-08
0.000129032
4.30745e-08
0.000129053
3.26412e-08
0.000129074
2.21929e-08
0.000129096
1.17897e-08
0.000129119
1.47278e-09
0.000129142
-8.73433e-09
0.000129165
-1.88164e-08
0.000129188
-2.87687e-08
0.000129212
-3.85893e-08
0.000129235
-4.82816e-08
0.000129257
-5.78491e-08
0.00012928
-6.72973e-08
0.000129302
-7.66303e-08
0.000129323
-8.58523e-08
0.000129344
-9.49652e-08
0.000129365
-1.03971e-07
0.000129385
-1.12868e-07
0.000129404
-1.21658e-07
-1.30343e-07
0.000129422
0.000132627
1.68333e-08
0.00013262
5.01394e-08
0.00013261
7.69902e-08
0.0001326
9.51297e-08
0.000132591
1.05254e-07
0.000132585
1.08708e-07
0.000132582
1.06951e-07
0.000132582
1.01373e-07
0.000132586
9.31274e-08
0.000132593
8.31033e-08
0.000132603
7.1966e-08
0.000132616
6.02003e-08
0.000132632
4.81486e-08
0.000132649
3.60467e-08
0.000132668
2.40509e-08
0.000132688
1.22619e-08
0.00013271
7.37687e-10
0.000132732
-1.04893e-08
0.000132755
-2.14102e-08
0.000132778
-3.20247e-08
0.000132802
-4.23456e-08
0.000132825
-5.2386e-08
0.000132849
-6.21665e-08
0.000132872
-7.17036e-08
0.000132896
-8.1018e-08
0.000132918
-9.01247e-08
0.000132941
-9.90408e-08
0.000132963
-1.07777e-07
0.000132984
-1.16346e-07
0.000133005
-1.24754e-07
0.000133025
-1.33009e-07
0.000133044
-1.41114e-07
-1.49078e-07
0.000133063
0.000136414
2.11992e-08
0.000136401
6.2743e-08
0.000136384
9.43018e-08
0.000136366
1.13502e-07
0.000136349
1.22067e-07
0.000136335
1.22237e-07
0.000136326
1.16235e-07
0.000136321
1.06056e-07
0.000136321
9.32502e-08
0.000136325
7.89414e-08
0.000136333
6.39262e-08
0.000136345
4.87492e-08
0.000136359
3.37642e-08
0.000136376
1.91901e-08
0.000136395
5.15051e-09
0.000136416
-8.29386e-09
0.000136437
-2.11259e-08
0.00013646
-3.33559e-08
0.000136484
-4.50107e-08
0.000136508
-5.61272e-08
0.000136532
-6.67464e-08
0.000136557
-7.69115e-08
0.000136581
-8.66635e-08
0.000136606
-9.60426e-08
0.00013663
-1.05084e-07
0.000136654
-1.1382e-07
0.000136677
-1.2228e-07
0.000136699
-1.30486e-07
0.000136722
-1.3846e-07
0.000136743
-1.46218e-07
0.000136764
-1.53773e-07
0.000136784
-1.61138e-07
-1.68325e-07
0.000136803
0.000140308
2.92053e-08
0.000140286
8.47555e-08
0.000140257
1.23533e-07
0.000140226
1.44013e-07
0.000140198
1.49984e-07
0.000140175
1.45179e-07
0.000140158
1.33044e-07
0.000140148
1.16471e-07
0.000140144
9.7524e-08
0.000140145
7.75978e-08
0.000140151
5.76153e-08
0.000140162
3.81562e-08
0.000140176
1.95549e-08
0.000140193
1.97915e-09
0.000140213
-1.45062e-08
0.000140235
-2.99071e-08
0.000140258
-4.42656e-08
0.000140282
-5.76514e-08
0.000140307
-7.01406e-08
0.000140333
-8.18175e-08
0.000140359
-9.27605e-08
0.000140385
-1.03049e-07
0.000140411
-1.1275e-07
0.000140437
-1.21932e-07
0.000140463
-1.3065e-07
0.000140488
-1.38955e-07
0.000140512
-1.4689e-07
0.000140536
-1.54494e-07
0.00014056
-1.61797e-07
0.000140582
-1.68827e-07
0.000140604
-1.75606e-07
0.000140625
-1.82153e-07
-1.88486e-07
0.000140645
0.00014431
4.40561e-08
0.000144272
1.22857e-07
0.000144224
1.71503e-07
0.000144175
1.9224e-07
0.000144132
1.92936e-07
0.000144098
1.79828e-07
0.000144073
1.5833e-07
0.000144056
1.32598e-07
0.000144049
1.05279e-07
0.000144048
7.79917e-08
0.000144054
5.17134e-08
0.000144065
2.69836e-08
0.000144081
4.04118e-09
0.0001441
-1.70541e-08
0.000144122
-3.63494e-08
0.000144146
-5.39479e-08
0.000144172
-6.9986e-08
0.000144198
-8.46082e-08
0.000144226
-9.79627e-08
0.000144255
-1.10188e-07
0.000144283
-1.21415e-07
0.000144312
-1.31761e-07
0.000144341
-1.41333e-07
0.000144369
-1.50223e-07
0.000144397
-1.58516e-07
0.000144424
-1.66281e-07
0.000144451
-1.73582e-07
0.000144477
-1.8047e-07
0.000144502
-1.8699e-07
0.000144526
-1.9318e-07
0.00014455
-1.99072e-07
0.000144572
-2.04693e-07
-2.1007e-07
0.000144594
0.000148419
7.26161e-08
0.000148353
1.89047e-07
0.000148276
2.48711e-07
0.000148203
2.6552e-07
0.000148141
2.55067e-07
0.000148093
2.27629e-07
0.000148059
1.91667e-07
0.000148039
1.52895e-07
0.00014803
1.14368e-07
0.00014803
7.76877e-08
0.000148038
4.36989e-08
0.000148053
1.2738e-08
0.000148072
-1.51754e-08
0.000148095
-4.01866e-08
0.000148121
-6.25165e-08
0.00014815
-8.2418e-08
0.00014818
-1.00151e-07
0.000148211
-1.15964e-07
0.000148243
-1.30092e-07
0.000148276
-1.42744e-07
0.000148309
-1.5411e-07
0.000148341
-1.64356e-07
0.000148373
-1.73629e-07
0.000148405
-1.82057e-07
0.000148436
-1.89749e-07
0.000148467
-1.96801e-07
0.000148497
-2.03294e-07
0.000148526
-2.09296e-07
0.000148553
-2.14868e-07
0.00014858
-2.20057e-07
0.000148606
-2.24908e-07
0.000148631
-2.29454e-07
-2.33731e-07
0.000148655
0.000152632
1.29839e-07
0.000152516
3.05057e-07
0.000152394
3.70515e-07
0.000152288
3.72082e-07
0.000152204
3.39017e-07
0.000152144
2.87378e-07
0.000152106
2.29761e-07
0.000152085
1.73191e-07
0.000152079
1.20364e-07
0.000152085
7.2313e-08
0.000152099
2.93975e-08
0.00015212
-8.4916e-09
0.000152147
-4.17294e-08
0.000152178
-7.07818e-08
0.000152211
-9.61187e-08
0.000152247
-1.18193e-07
0.000152284
-1.37421e-07
0.000152322
-1.54184e-07
0.000152361
-1.68814e-07
0.0001524
-1.81608e-07
0.000152439
-1.92821e-07
0.000152477
-2.02674e-07
0.000152515
-2.11358e-07
0.000152552
-2.19038e-07
0.000152588
-2.25852e-07
0.000152623
-2.3192e-07
0.000152657
-2.37345e-07
0.00015269
-2.42213e-07
0.000152722
-2.46595e-07
0.000152752
-2.50556e-07
0.000152781
-2.54146e-07
0.000152809
-2.57411e-07
-2.60389e-07
0.000152836
0.000156935
2.45998e-07
0.00015673
5.10776e-07
0.000156541
5.58641e-07
0.000156395
5.18945e-07
0.000156291
4.42748e-07
0.000156226
3.52282e-07
0.000156191
2.64261e-07
0.00015618
1.85105e-07
0.000156185
1.15334e-07
0.000156202
5.45178e-08
0.00015623
2.064e-09
0.000156264
-4.28758e-08
0.000156304
-8.12743e-08
0.000156347
-1.14029e-07
0.000156393
-1.41932e-07
0.00015644
-1.65673e-07
0.000156489
-1.85864e-07
0.000156537
-2.03027e-07
0.000156586
-2.17617e-07
0.000156635
-2.30017e-07
0.000156682
-2.40557e-07
0.000156729
-2.49515e-07
0.000156775
-2.5713e-07
0.00015682
-2.63601e-07
0.000156863
-2.691e-07
0.000156905
-2.73769e-07
0.000156945
-2.77731e-07
0.000156984
-2.81088e-07
0.000157021
-2.83928e-07
0.000157057
-2.86323e-07
0.000157091
-2.88336e-07
0.000157124
-2.90016e-07
-2.91418e-07
0.000157155
0.000161294
4.90778e-07
0.000160931
8.73801e-07
0.000160653
8.36454e-07
0.000160464
7.07414e-07
0.000160351
5.55609e-07
0.000160297
4.0657e-07
0.000160282
2.79137e-07
0.000160294
1.73751e-07
0.000160324
8.55047e-08
0.000160367
1.15068e-08
0.000160419
-5.01631e-08
0.000160477
-1.01407e-07
0.00016054
-1.43997e-07
0.000160605
-1.79379e-07
0.000160672
-2.08714e-07
0.000160739
-2.32978e-07
0.000160807
-2.52994e-07
0.000160873
-2.69459e-07
0.000160938
-2.82948e-07
0.000161002
-2.93947e-07
0.000161065
-3.02856e-07
0.000161125
-3.10016e-07
0.000161184
-3.15709e-07
0.00016124
-3.20172e-07
0.000161295
-3.23601e-07
0.000161347
-3.26164e-07
0.000161397
-3.27998e-07
0.000161446
-3.29221e-07
0.000161492
-3.29928e-07
0.000161535
-3.30203e-07
0.000161577
-3.30109e-07
0.000161617
-3.29705e-07
-3.29038e-07
0.000161654
0.000165516
1.12862e-06
0.000164915
1.47491e-06
0.000164579
1.17238e-06
0.000164389
8.96849e-07
0.00016431
6.34499e-07
0.000164306
4.10829e-07
0.000164344
2.41561e-07
0.000164407
1.10952e-07
0.000164486
5.61103e-09
0.000164578
-7.9978e-08
0.000164677
-1.48972e-07
0.00016478
-2.0442e-07
0.000164885
-2.49001e-07
0.00016499
-2.84754e-07
0.000165095
-3.13255e-07
0.000165197
-3.35798e-07
0.000165298
-3.53461e-07
0.000165396
-3.67125e-07
0.00016549
-3.77511e-07
0.000165581
-3.85204e-07
0.000165669
-3.90686e-07
0.000165754
-3.94354e-07
0.000165834
-3.96533e-07
0.000165912
-3.97493e-07
0.000165986
-3.97454e-07
0.000166056
-3.966e-07
0.000166123
-3.95083e-07
0.000166187
-3.93028e-07
0.000166248
-3.90542e-07
0.000166305
-3.87714e-07
0.00016636
-3.84622e-07
0.000166411
-3.81334e-07
-3.77925e-07