/*--------------------------------*- C++ -*----------------------------------*\
  =========                 |
  \\      /  F ield         | OpenFOAM: The Open Source CFD Toolbox
   \\    /   O peration     | Website:  https://openfoam.org
    \\  /    A nd           | Version:  10
     \\/     M anipulation  |
\*---------------------------------------------------------------------------*/
FoamFile
{
    format      ascii;
    class       volVectorField;
    location    "1900";
    object      U;
}
// * * * * * * * * * * * * * * * * * * * * * * * * * * * * * * * * * * * * * //

dimensions      [0 1 -1 0 0 0 0];

internalField   nonuniform List<vector> 
6820
(
(7.13228 -2.83247 0)
(7.73434 -2.22097 0)
(7.93448 -1.24474 0)
(7.85772 -0.6306 0)
(7.69324 -0.30093 0)
(7.51792 -0.135202 0)
(7.34936 -0.0534965 0)
(7.19462 -0.0130604 0)
(7.05693 0.00686825 0)
(6.93549 0.0163329 0)
(6.82782 0.0203897 0)
(6.73175 0.0216666 0)
(6.64552 0.0215374 0)
(6.56772 0.0207171 0)
(6.49713 0.0195837 0)
(6.43277 0.0183403 0)
(6.37382 0.0170943 0)
(6.31962 0.0158999 0)
(6.26962 0.014782 0)
(6.22334 0.0137501 0)
(6.18039 0.0128053 0)
(6.14041 0.0119451 0)
(6.10312 0.0111652 0)
(6.06823 0.0104616 0)
(6.03551 0.00983094 0)
(6.00473 0.00927238 0)
(5.97568 0.00878891 0)
(5.94812 0.00838738 0)
(5.92184 0.0080954 0)
(5.89639 0.0079123 0)
(5.87208 0.0079833 0)
(5.84455 0.00860294 0)
(5.82623 0.00633921 0)
(7.57676 0.619468 0)
(7.41857 0.759314 0)
(7.35518 0.51949 0)
(7.35368 0.338998 0)
(7.40446 0.233424 0)
(7.46266 0.167015 0)
(7.5028 0.124257 0)
(7.52296 0.0970551 0)
(7.52874 0.0793576 0)
(7.52455 0.0672668 0)
(7.51317 0.0586464 0)
(7.49676 0.0523023 0)
(7.47704 0.0474921 0)
(7.4552 0.043728 0)
(7.43206 0.04069 0)
(7.40817 0.0381726 0)
(7.38393 0.0360402 0)
(7.35963 0.0341994 0)
(7.33548 0.032585 0)
(7.31162 0.031151 0)
(7.28815 0.0298647 0)
(7.26514 0.0287027 0)
(7.24265 0.0276483 0)
(7.2207 0.0266903 0)
(7.19931 0.0258227 0)
(7.1785 0.0250445 0)
(7.15826 0.0243619 0)
(7.13857 0.023787 0)
(7.11946 0.0233617 0)
(7.10083 0.0231042 0)
(7.08311 0.0233196 0)
(7.06492 0.0233063 0)
(7.05148 0.0270849 0)
(7.26194 -0.0479143 0)
(7.1598 -0.0718985 0)
(7.19681 -0.0845013 0)
(7.23914 -0.0533673 0)
(7.27631 -0.0172213 0)
(7.31445 0.00633894 0)
(7.34736 0.0206585 0)
(7.37268 0.0300125 0)
(7.39197 0.0360124 0)
(7.4065 0.0394945 0)
(7.41686 0.0412606 0)
(7.42373 0.0419573 0)
(7.42779 0.0419939 0)
(7.42963 0.041615 0)
(7.4297 0.0409792 0)
(7.42833 0.0401944 0)
(7.42581 0.039331 0)
(7.42238 0.0384332 0)
(7.41821 0.0375291 0)
(7.41345 0.0366371 0)
(7.40823 0.0357691 0)
(7.40263 0.0349333 0)
(7.39674 0.034136 0)
(7.39063 0.0333827 0)
(7.38433 0.0326799 0)
(7.3779 0.032036 0)
(7.37137 0.031465 0)
(7.36475 0.030984 0)
(7.35808 0.0306356 0)
(7.35133 0.0304421 0)
(7.34468 0.0305966 0)
(7.33772 0.0308398 0)
(7.33175 0.0326303 0)
(7.29243 -0.0887252 0)
(7.22392 -0.0614719 0)
(7.23482 -0.0268989 0)
(7.25115 -0.00103298 0)
(7.2656 0.0189109 0)
(7.28496 0.0304713 0)
(7.30449 0.0362746 0)
(7.32129 0.0394571 0)
(7.33582 0.0412419 0)
(7.3485 0.0420203 0)
(7.35931 0.042132 0)
(7.36832 0.041869 0)
(7.37577 0.0413994 0)
(7.3819 0.0408069 0)
(7.38687 0.040142 0)
(7.39087 0.0394401 0)
(7.39402 0.0387246 0)
(7.39645 0.0380096 0)
(7.39826 0.0373042 0)
(7.39955 0.0366148 0)
(7.40039 0.0359464 0)
(7.40084 0.0353032 0)
(7.40096 0.0346895 0)
(7.40078 0.0341104 0)
(7.40036 0.0335732 0)
(7.39972 0.0330872 0)
(7.39889 0.0326678 0)
(7.39789 0.0323344 0)
(7.39675 0.0321253 0)
(7.39548 0.0320703 0)
(7.39419 0.0322912 0)
(7.39279 0.0326946 0)
(7.39181 0.0339286 0)
(7.31244 -0.0515028 0)
(7.26793 -0.0318748 0)
(7.26467 -0.0126184 0)
(7.26769 -5.74945e-05 0)
(7.27322 0.0130537 0)
(7.28435 0.0226487 0)
(7.2969 0.0282845 0)
(7.30832 0.0318846 0)
(7.31872 0.0343773 0)
(7.32833 0.0359803 0)
(7.337 0.0369017 0)
(7.34469 0.0373713 0)
(7.35151 0.0375422 0)
(7.35754 0.0375021 0)
(7.36289 0.0373106 0)
(7.36761 0.0370137 0)
(7.37179 0.0366451 0)
(7.37549 0.0362285 0)
(7.37876 0.035781 0)
(7.38166 0.035316 0)
(7.38424 0.0348438 0)
(7.38652 0.0343734 0)
(7.38854 0.033913 0)
(7.39033 0.033471 0)
(7.39192 0.0330569 0)
(7.39333 0.0326824 0)
(7.39457 0.0323635 0)
(7.39568 0.0321196 0)
(7.39668 0.0319821 0)
(7.39759 0.0319796 0)
(7.39849 0.0321819 0)
(7.39941 0.0325698 0)
(7.40062 0.0333947 0)
(7.3203 -0.0314401 0)
(7.28849 -0.0238369 0)
(7.28204 -0.0120231 0)
(7.2814 -0.00207155 0)
(7.28395 0.00926789 0)
(7.29103 0.0182381 0)
(7.2996 0.023985 0)
(7.30775 0.0278599 0)
(7.31544 0.0306273 0)
(7.32275 0.032503 0)
(7.32954 0.0336884 0)
(7.33576 0.0344007 0)
(7.34145 0.0347901 0)
(7.34667 0.0349473 0)
(7.35145 0.0349351 0)
(7.35584 0.0348012 0)
(7.35988 0.0345808 0)
(7.36359 0.034299 0)
(7.36702 0.0339744 0)
(7.3702 0.0336213 0)
(7.37315 0.0332514 0)
(7.37589 0.0328744 0)
(7.37845 0.0324992 0)
(7.38085 0.032135 0)
(7.38309 0.0317916 0)
(7.38521 0.0314804 0)
(7.38721 0.0312158 0)
(7.38912 0.031015 0)
(7.39096 0.0309014 0)
(7.39276 0.030897 0)
(7.3946 0.0310395 0)
(7.39652 0.0313249 0)
(7.3987 0.0318323 0)
(7.32446 -0.0216663 0)
(7.30104 -0.01958 0)
(7.29416 -0.0109319 0)
(7.2922 -0.00220156 0)
(7.29331 0.00755294 0)
(7.29804 0.015572 0)
(7.30422 0.0210659 0)
(7.3104 0.0249143 0)
(7.3164 0.0277093 0)
(7.32221 0.0296651 0)
(7.32772 0.0309697 0)
(7.33286 0.0318134 0)
(7.33766 0.0323322 0)
(7.34213 0.032613 0)
(7.34632 0.0327169 0)
(7.35023 0.0326908 0)
(7.3539 0.0325691 0)
(7.35736 0.0323772 0)
(7.36061 0.0321343 0)
(7.36368 0.0318552 0)
(7.3666 0.0315519 0)
(7.36937 0.0312348 0)
(7.372 0.0309132 0)
(7.37452 0.0305961 0)
(7.37694 0.0302931 0)
(7.37927 0.0300146 0)
(7.38153 0.0297727 0)
(7.38373 0.0295811 0)
(7.3859 0.0294557 0)
(7.38808 0.0294102 0)
(7.39032 0.0294608 0)
(7.39267 0.0295993 0)
(7.39524 0.0298309 0)
(7.32737 -0.0149944 0)
(7.31004 -0.0151744 0)
(7.30324 -0.00892262 0)
(7.30059 -0.0016519 0)
(7.30082 0.00656074 0)
(7.30407 0.0136088 0)
(7.3087 0.0187453 0)
(7.31359 0.0224822 0)
(7.31849 0.0252482 0)
(7.32331 0.0272364 0)
(7.32795 0.0286145 0)
(7.33235 0.0295461 0)
(7.3365 0.030153 0)
(7.34042 0.0305178 0)
(7.34414 0.0307002 0)
(7.34765 0.0307458 0)
(7.35098 0.0306888 0)
(7.35416 0.0305548 0)
(7.35718 0.0303632 0)
(7.36008 0.0301294 0)
(7.36286 0.0298658 0)
(7.36553 0.0295828 0)
(7.3681 0.0292898 0)
(7.3706 0.0289956 0)
(7.37302 0.0287088 0)
(7.37538 0.0284385 0)
(7.3777 0.0281943 0)
(7.37999 0.0279857 0)
(7.38229 0.0278223 0)
(7.38461 0.02771 0)
(7.387 0.0276512 0)
(7.38951 0.0276309 0)
(7.3922 0.027626 0)
(7.3294 -0.00997795 0)
(7.31672 -0.0111215 0)
(7.3103 -0.0067975 0)
(7.30731 -0.000925598 0)
(7.30696 0.00594503 0)
(7.30918 0.0121047 0)
(7.31272 0.0168458 0)
(7.31668 0.0204216 0)
(7.32079 0.0231215 0)
(7.3249 0.0251069 0)
(7.32892 0.0265229 0)
(7.33278 0.0275096 0)
(7.33646 0.0281752 0)
(7.33998 0.0285975 0)
(7.34333 0.0288339 0)
(7.34653 0.0289287 0)
(7.3496 0.0289155 0)
(7.35253 0.0288198 0)
(7.35536 0.0286612 0)
(7.35808 0.0284554 0)
(7.36072 0.0282148 0)
(7.36327 0.0279499 0)
(7.36575 0.0276698 0)
(7.36817 0.0273826 0)
(7.37055 0.0270962 0)
(7.37288 0.0268179 0)
(7.37519 0.0265546 0)
(7.37749 0.0263123 0)
(7.37981 0.0260953 0)
(7.38217 0.0259034 0)
(7.3846 0.0257306 0)
(7.38714 0.0255578 0)
(7.38983 0.0253533 0)
(7.33075 -0.00639606 0)
(7.32165 -0.00775464 0)
(7.31591 -0.00477689 0)
(7.31286 -8.46064e-05 0)
(7.31212 0.00562909 0)
(7.31358 0.010971 0)
(7.3163 0.0152876 0)
(7.31955 0.018656 0)
(7.32303 0.0212527 0)
(7.32661 0.0232023 0)
(7.33015 0.0246257 0)
(7.33359 0.0256409 0)
(7.33692 0.0263431 0)
(7.34011 0.0268036 0)
(7.34319 0.0270771 0)
(7.34614 0.0272058 0)
(7.34899 0.0272226 0)
(7.35174 0.0271525 0)
(7.3544 0.0270151 0)
(7.35698 0.0268259 0)
(7.35948 0.0265974 0)
(7.36193 0.0263399 0)
(7.36432 0.026062 0)
(7.36666 0.0257712 0)
(7.36897 0.0254743 0)
(7.37125 0.0251769 0)
(7.37353 0.0248836 0)
(7.3758 0.0245975 0)
(7.3781 0.0243186 0)
(7.38045 0.0240428 0)
(7.38286 0.0237597 0)
(7.38536 0.0234487 0)
(7.38798 0.023078 0)
(7.33162 -0.00393092 0)
(7.32523 -0.00505982 0)
(7.32037 -0.00292566 0)
(7.31748 0.000820165 0)
(7.31653 0.00554073 0)
(7.31743 0.0101318 0)
(7.31951 0.0140083 0)
(7.32218 0.0171325 0)
(7.32517 0.0195933 0)
(7.32829 0.0214778 0)
(7.33144 0.0228822 0)
(7.33455 0.0239032 0)
(7.33758 0.024623 0)
(7.34052 0.0251061 0)
(7.34337 0.0254031 0)
(7.34613 0.025554 0)
(7.3488 0.0255903 0)
(7.3514 0.0255363 0)
(7.35391 0.0254114 0)
(7.35637 0.0252306 0)
(7.35876 0.0250063 0)
(7.36111 0.0247485 0)
(7.36342 0.0244653 0)
(7.36569 0.0241635 0)
(7.36793 0.0238486 0)
(7.37016 0.0235248 0)
(7.37238 0.023195 0)
(7.37462 0.0228595 0)
(7.37688 0.022516 0)
(7.37918 0.0221578 0)
(7.38154 0.0217726 0)
(7.38397 0.0213406 0)
(7.38649 0.0208333 0)
(7.33218 -0.00226219 0)
(7.32778 -0.00295667 0)
(7.32388 -0.00130491 0)
(7.32132 0.00171539 0)
(7.3203 0.00560458 0)
(7.32082 0.00952035 0)
(7.32241 0.0129583 0)
(7.32461 0.015814 0)
(7.32717 0.0181124 0)
(7.32991 0.0199064 0)
(7.33273 0.021268 0)
(7.33556 0.0222744 0)
(7.33834 0.0229949 0)
(7.34107 0.0234863 0)
(7.34373 0.0237948 0)
(7.34632 0.0239578 0)
(7.34884 0.0240047 0)
(7.3513 0.0239591 0)
(7.3537 0.0238395 0)
(7.35605 0.0236607 0)
(7.35835 0.0234346 0)
(7.36061 0.0231707 0)
(7.36283 0.0228766 0)
(7.36504 0.0225584 0)
(7.36722 0.0222205 0)
(7.36939 0.0218659 0)
(7.37156 0.0214958 0)
(7.37375 0.0211091 0)
(7.37595 0.0207018 0)
(7.37819 0.020266 0)
(7.38048 0.0197893 0)
(7.38283 0.0192537 0)
(7.38524 0.0186351 0)
(7.33252 -0.00115055 0)
(7.32957 -0.00136453 0)
(7.32658 4.33954e-05 0)
(7.32445 0.00253398 0)
(7.32349 0.00575063 0)
(7.32378 0.00907589 0)
(7.325 0.0120937 0)
(7.32682 0.0146696 0)
(7.32903 0.0167865 0)
(7.33145 0.018469 0)
(7.33398 0.0197671 0)
(7.33656 0.0207404 0)
(7.33912 0.0214457 0)
(7.34166 0.0219323 0)
(7.34415 0.0222414 0)
(7.3466 0.022407 0)
(7.34899 0.0224567 0)
(7.35134 0.0224125 0)
(7.35363 0.0222922 0)
(7.35589 0.0221099 0)
(7.3581 0.021877 0)
(7.36029 0.0216025 0)
(7.36244 0.0212933 0)
(7.36458 0.0209548 0)
(7.3667 0.0205906 0)
(7.36881 0.0202027 0)
(7.37093 0.0197911 0)
(7.37306 0.0193537 0)
(7.3752 0.0188856 0)
(7.37738 0.0183788 0)
(7.37959 0.0178217 0)
(7.38184 0.0171988 0)
(7.38413 0.0164903 0)
(7.33273 -0.000425083 0)
(7.3308 -0.000199305 0)
(7.32861 0.00110895 0)
(7.32695 0.00322813 0)
(7.32615 0.00591787 0)
(7.32632 0.0087419 0)
(7.32729 0.0113719 0)
(7.32882 0.0136697 0)
(7.33073 0.0155941 0)
(7.33288 0.0171492 0)
(7.33516 0.0183667 0)
(7.33752 0.0192906 0)
(7.33989 0.0199666 0)
(7.34226 0.0204362 0)
(7.34461 0.0207355 0)
(7.34692 0.0208949 0)
(7.3492 0.0209398 0)
(7.35144 0.0208908 0)
(7.35364 0.0207643 0)
(7.35581 0.0205738 0)
(7.35795 0.02033 0)
(7.36006 0.0200412 0)
(7.36215 0.0197137 0)
(7.36422 0.0193523 0)
(7.36629 0.0189598 0)
(7.36834 0.0185374 0)
(7.3704 0.0180846 0)
(7.37247 0.0175985 0)
(7.37455 0.0170741 0)
(7.37665 0.0165038 0)
(7.37878 0.0158773 0)
(7.38093 0.0151817 0)
(7.38311 0.0144012 0)
(7.33285 3.67782e-05 0)
(7.33162 0.000622788 0)
(7.3301 0.00190721 0)
(7.32889 0.0037714 0)
(7.3283 0.00605811 0)
(7.32845 0.00846793 0)
(7.32926 0.0107519 0)
(7.33058 0.012784 0)
(7.33225 0.0145135 0)
(7.33417 0.0159312 0)
(7.33625 0.0170549 0)
(7.33841 0.017916 0)
(7.34061 0.0185501 0)
(7.34283 0.0189916 0)
(7.34504 0.0192715 0)
(7.34724 0.0194167 0)
(7.34941 0.01945 0)
(7.35156 0.0193901 0)
(7.35367 0.0192525 0)
(7.35577 0.0190496 0)
(7.35783 0.0187912 0)
(7.35988 0.0184851 0)
(7.3619 0.018137 0)
(7.36392 0.0177509 0)
(7.36592 0.0173292 0)
(7.36792 0.0168725 0)
(7.36992 0.0163797 0)
(7.37192 0.0158481 0)
(7.37394 0.0152726 0)
(7.37596 0.0146465 0)
(7.378 0.0139609 0)
(7.38006 0.0132054 0)
(7.38213 0.0123677 0)
(7.33292 0.000321628 0)
(7.33217 0.00117815 0)
(7.33117 0.00246923 0)
(7.33036 0.00415678 0)
(7.32999 0.00613855 0)
(7.33019 0.00821269 0)
(7.33092 0.0101962 0)
(7.33209 0.0119831 0)
(7.33358 0.0135225 0)
(7.33532 0.0147987 0)
(7.33721 0.0158198 0)
(7.3392 0.0166076 0)
(7.34126 0.0171893 0)
(7.34334 0.0175931 0)
(7.34543 0.017845 0)
(7.34752 0.0179686 0)
(7.3496 0.0179839 0)
(7.35166 0.0179079 0)
(7.35369 0.0177546 0)
(7.35571 0.0175355 0)
(7.35771 0.0172595 0)
(7.35969 0.0169336 0)
(7.36166 0.0165631 0)
(7.36361 0.0161513 0)
(7.36556 0.0157002 0)
(7.3675 0.0152101 0)
(7.36943 0.0146797 0)
(7.37137 0.0141062 0)
(7.37332 0.0134852 0)
(7.37527 0.0128107 0)
(7.37722 0.0120756 0)
(7.37918 0.0112715 0)
(7.38115 0.0103887 0)
(7.33296 0.000489261 0)
(7.33253 0.00153196 0)
(7.33192 0.00283315 0)
(7.33145 0.00439238 0)
(7.33129 0.00614193 0)
(7.33157 0.00794625 0)
(7.33227 0.00967377 0)
(7.33334 0.01124 0)
(7.3347 0.0125996 0)
(7.33628 0.0137351 0)
(7.33803 0.014649 0)
(7.33988 0.0153562 0)
(7.3418 0.0158776 0)
(7.34377 0.0162355 0)
(7.34575 0.0164521 0)
(7.34774 0.0165473 0)
(7.34973 0.0165389 0)
(7.3517 0.0164419 0)
(7.35367 0.0162689 0)
(7.35561 0.0160302 0)
(7.35755 0.015734 0)
(7.35947 0.0153866 0)
(7.36137 0.0149924 0)
(7.36327 0.0145546 0)
(7.36516 0.0140747 0)
(7.36704 0.0135527 0)
(7.36891 0.0129874 0)
(7.37079 0.0123762 0)
(7.37266 0.0117153 0)
(7.37453 0.0109997 0)
(7.3764 0.0102236 0)
(7.37827 0.00938046 0)
(7.38013 0.008463 0)
(7.33299 0.000580245 0)
(7.33276 0.00173736 0)
(7.33244 0.00303834 0)
(7.33222 0.00449619 0)
(7.33226 0.00606423 0)
(7.33262 0.0076505 0)
(7.33332 0.0091614 0)
(7.33433 0.0105321 0)
(7.33559 0.0117253 0)
(7.33706 0.0127248 0)
(7.33868 0.0135305 0)
(7.34042 0.0141528 0)
(7.34222 0.0146078 0)
(7.34408 0.0149137 0)
(7.34596 0.0150887 0)
(7.34786 0.0151499 0)
(7.34977 0.0151128 0)
(7.35167 0.0149906 0)
(7.35356 0.0147944 0)
(7.35544 0.0145333 0)
(7.35732 0.0142148 0)
(7.35917 0.0138443 0)
(7.36102 0.013426 0)
(7.36286 0.0129623 0)
(7.36469 0.0124545 0)
(7.36651 0.0119027 0)
(7.36832 0.0113056 0)
(7.37013 0.0106611 0)
(7.37193 0.00996579 0)
(7.37372 0.00921579 0)
(7.37551 0.00840647 0)
(7.37729 0.0075328 0)
(7.37905 0.00658932 0)
(7.333 0.000621783 0)
(7.33291 0.00183637 0)
(7.33278 0.00312158 0)
(7.33276 0.00449132 0)
(7.33294 0.00591142 0)
(7.33338 0.00731805 0)
(7.33409 0.00864476 0)
(7.33506 0.00984308 0)
(7.33626 0.0108839 0)
(7.33764 0.0117542 0)
(7.33916 0.0124532 0)
(7.34079 0.0129887 0)
(7.3425 0.0133736 0)
(7.34426 0.0136226 0)
(7.34606 0.0137511 0)
(7.34787 0.0137738 0)
(7.3497 0.0137038 0)
(7.35153 0.0135527 0)
(7.35335 0.0133302 0)
(7.35517 0.0130446 0)
(7.35698 0.0127021 0)
(7.35878 0.0123077 0)
(7.36057 0.0118649 0)
(7.36235 0.0113759 0)
(7.36412 0.0108418 0)
(7.36588 0.0102625 0)
(7.36763 0.00963698 0)
(7.36937 0.00896339 0)
(7.3711 0.00823911 0)
(7.37282 0.00746097 0)
(7.37452 0.00662542 0)
(7.37621 0.00572868 0)
(7.37788 0.00476666 0)
(7.333 0.000632021 0)
(7.333 0.00186151 0)
(7.33301 0.00311542 0)
(7.33312 0.00440253 0)
(7.3334 0.00569603 0)
(7.3339 0.00695024 0)
(7.33462 0.00811778 0)
(7.33557 0.00916315 0)
(7.33671 0.0100648 0)
(7.33801 0.0108132 0)
(7.33945 0.0114083 0)
(7.34099 0.0118568 0)
(7.34261 0.0121692 0)
(7.34429 0.0123581 0)
(7.346 0.0124365 0)
(7.34774 0.0124168 0)
(7.34949 0.0123104 0)
(7.35126 0.0121275 0)
(7.35302 0.0118764 0)
(7.35477 0.0115642 0)
(7.35652 0.0111965 0)
(7.35827 0.0107776 0)
(7.36 0.0103106 0)
(7.36172 0.00979725 0)
(7.36343 0.00923851 0)
(7.36513 0.00863431 0)
(7.36681 0.00798383 0)
(7.36848 0.00728553 0)
(7.37014 0.00653736 0)
(7.37179 0.00573688 0)
(7.37341 0.00488143 0)
(7.37502 0.00396819 0)
(7.3766 0.00299414 0)
(7.33301 0.000623119 0)
(7.33305 0.00183776 0)
(7.33314 0.00304766 0)
(7.33333 0.00425406 0)
(7.33368 0.00543438 0)
(7.33421 0.00655484 0)
(7.33494 0.00758152 0)
(7.33585 0.00848907 0)
(7.33694 0.00926247 0)
(7.33818 0.00989576 0)
(7.33954 0.0103902 0)
(7.341 0.0107521 0)
(7.34254 0.0109908 0)
(7.34414 0.0111172 0)
(7.34578 0.0111426 0)
(7.34745 0.0110776 0)
(7.34913 0.0109321 0)
(7.35083 0.0107148 0)
(7.35252 0.010433 0)
(7.35422 0.0100929 0)
(7.35591 0.0096992 0)
(7.35759 0.00925564 0)
(7.35927 0.0087648 0)
(7.36093 0.00822828 0)
(7.36258 0.00764683 0)
(7.36422 0.00702042 0)
(7.36584 0.00634838 0)
(7.36745 0.00562953 0)
(7.36903 0.00486228 0)
(7.3706 0.00404482 0)
(7.37215 0.00317516 0)
(7.37368 0.00225126 0)
(7.37517 0.00127091 0)
(7.33301 0.000603402 0)
(7.33307 0.00178448 0)
(7.33321 0.00294199 0)
(7.33344 0.00406882 0)
(7.33382 0.00514473 0)
(7.33435 0.00614409 0)
(7.33506 0.0070428 0)
(7.33594 0.00782354 0)
(7.33698 0.00847693 0)
(7.33815 0.00900042 0)
(7.33944 0.00939683 0)
(7.34082 0.00967273 0)
(7.34228 0.00983687 0)
(7.34381 0.009899 0)
(7.34537 0.00986898 0)
(7.34697 0.00975621 0)
(7.34858 0.0095692 0)
(7.35021 0.00931545 0)
(7.35185 0.00900132 0)
(7.35349 0.00863201 0)
(7.35512 0.00821166 0)
(7.35674 0.00774338 0)
(7.35836 0.00722936 0)
(7.35996 0.00667094 0)
(7.36155 0.00606874 0)
(7.36313 0.00542276 0)
(7.36469 0.00473248 0)
(7.36623 0.00399701 0)
(7.36775 0.00321515 0)
(7.36925 0.00238557 0)
(7.37072 0.00150684 0)
(7.37217 0.00057751 0)
(7.37358 -0.000404055 0)
(7.33301 0.000578859 0)
(7.33308 0.00171723 0)
(7.33322 0.00281895 0)
(7.33346 0.00386839 0)
(7.33383 0.00484644 0)
(7.33435 0.00573348 0)
(7.33502 0.00651299 0)
(7.33584 0.00717439 0)
(7.33681 0.00771329 0)
(7.33791 0.00813042 0)
(7.33913 0.00843039 0)
(7.34043 0.00862031 0)
(7.34182 0.00870874 0)
(7.34326 0.00870469 0)
(7.34475 0.00861703 0)
(7.34628 0.00845408 0)
(7.34783 0.00822327 0)
(7.34939 0.00793108 0)
(7.35097 0.00758297 0)
(7.35254 0.00718336 0)
(7.35412 0.00673575 0)
(7.35568 0.00624273 0)
(7.35724 0.00570613 0)
(7.35879 0.00512703 0)
(7.36032 0.00450596 0)
(7.36183 0.0038429 0)
(7.36333 0.00313747 0)
(7.36481 0.00238898 0)
(7.36626 0.00159657 0)
(7.36769 0.000759261 0)
(7.36909 -0.000123933 0)
(7.37047 -0.00105406 0)
(7.37181 -0.00203229 0)
(7.33301 0.000554207 0)
(7.33307 0.00164938 0)
(7.3332 0.00269741 0)
(7.33341 0.00367384 0)
(7.33374 0.00456003 0)
(7.3342 0.00534121 0)
(7.33481 0.00600736 0)
(7.33556 0.00655395 0)
(7.33645 0.00698133 0)
(7.33747 0.00729352 0)
(7.3386 0.00749703 0)
(7.33982 0.00759988 0)
(7.34113 0.00761067 0)
(7.34249 0.00753801 0)
(7.34391 0.00739005 0)
(7.34536 0.00717423 0)
(7.34684 0.00689709 0)
(7.34834 0.00656424 0)
(7.34985 0.00618032 0)
(7.35136 0.00574908 0)
(7.35288 0.00527341 0)
(7.35439 0.00475545 0)
(7.35589 0.00419666 0)
(7.35738 0.0035979 0)
(7.35885 0.00295956 0)
(7.36031 0.00228162 0)
(7.36174 0.00156377 0)
(7.36316 0.000805483 0)
(7.36455 6.12081e-06 0)
(7.36592 -0.000835007 0)
(7.36725 -0.00171861 0)
(7.36856 -0.00264539 0)
(7.36983 -0.00361625 0)
(7.33301 0.000533734 0)
(7.33305 0.00159383 0)
(7.33313 0.00259637 0)
(7.33329 0.00350729 0)
(7.33354 0.00430813 0)
(7.33392 0.0049887 0)
(7.33443 0.00554515 0)
(7.33509 0.00597894 0)
(7.33588 0.00629529 0)
(7.3368 0.00650169 0)
(7.33784 0.00660683 0)
(7.33897 0.00661987 0)
(7.34018 0.00654976 0)
(7.34146 0.00640495 0)
(7.34279 0.00619308 0)
(7.34417 0.00592091 0)
(7.34558 0.00559423 0)
(7.34701 0.00521788 0)
(7.34846 0.00479581 0)
(7.34991 0.00433111 0)
(7.35137 0.00382614 0)
(7.35282 0.00328261 0)
(7.35427 0.00270162 0)
(7.3557 0.0020838 0)
(7.35712 0.00142941 0)
(7.35852 0.000738367 0)
(7.3599 1.03911e-05 0)
(7.36126 -0.000754951 0)
(7.3626 -0.00155815 0)
(7.3639 -0.00239972 0)
(7.36518 -0.00328016 0)
(7.36642 -0.00419998 0)
(7.36763 -0.00515986 0)
(7.333 0.000522067 0)
(7.33301 0.00156484 0)
(7.33303 0.00253724 0)
(7.33309 0.0033941 0)
(7.33323 0.0041173 0)
(7.33348 0.00470178 0)
(7.33387 0.00515028 0)
(7.3344 0.00547078 0)
(7.33507 0.00567389 0)
(7.33587 0.00577099 0)
(7.33679 0.00577336 0)
(7.33782 0.00569161 0)
(7.33893 0.00553534 0)
(7.34012 0.00531306 0)
(7.34137 0.00503215 0)
(7.34267 0.00469881 0)
(7.34401 0.00431819 0)
(7.34537 0.00389449 0)
(7.34676 0.00343099 0)
(7.34815 0.00293022 0)
(7.34955 0.00239402 0)
(7.35095 0.00182364 0)
(7.35235 0.00121986 0)
(7.35373 0.00058306 0)
(7.3551 -8.66992e-05 0)
(7.35646 -0.000789582 0)
(7.35779 -0.0015259 0)
(7.3591 -0.00229606 0)
(7.36038 -0.0031005 0)
(7.36163 -0.00393961 0)
(7.36286 -0.0048138 0)
(7.36404 -0.00572347 0)
(7.3652 -0.00666916 0)
(7.333 0.00052511 0)
(7.33296 0.00158057 0)
(7.33286 0.00254715 0)
(7.33278 0.00336619 0)
(7.33276 0.00402094 0)
(7.33285 0.00451293 0)
(7.33308 0.00485285 0)
(7.33345 0.00505638 0)
(7.33396 0.00514047 0)
(7.33462 0.00512119 0)
(7.33541 0.00501294 0)
(7.33632 0.00482822 0)
(7.33733 0.00457766 0)
(7.33842 0.00427008 0)
(7.33958 0.00391273 0)
(7.34081 0.00351144 0)
(7.34207 0.00307083 0)
(7.34338 0.00259448 0)
(7.3447 0.00208508 0)
(7.34605 0.00154456 0)
(7.3474 0.000974262 0)
(7.34875 0.000374982 0)
(7.3501 -0.000252881 0)
(7.35145 -0.000909238 0)
(7.35278 -0.00159426 0)
(7.35409 -0.00230825 0)
(7.35538 -0.00305163 0)
(7.35665 -0.00382486 0)
(7.35789 -0.00462837 0)
(7.3591 -0.00546258 0)
(7.36028 -0.00632783 0)
(7.36142 -0.0072245 0)
(7.36253 -0.00815309 0)
(7.33299 0.000551465 0)
(7.33287 0.00166685 0)
(7.33262 0.00266373 0)
(7.33233 0.00346685 0)
(7.33209 0.00406344 0)
(7.33196 0.00446451 0)
(7.33197 0.00469116 0)
(7.33213 0.004769 0)
(7.33247 0.00472294 0)
(7.33296 0.00457486 0)
(7.33361 0.00434311 0)
(7.33438 0.00404273 0)
(7.33528 0.00368571 0)
(7.33628 0.00328147 0)
(7.33736 0.00283731 0)
(7.33851 0.00235877 0)
(7.33971 0.00184998 0)
(7.34096 0.00131393 0)
(7.34224 0.000752668 0)
(7.34354 0.000167531 0)
(7.34486 -0.000440723 0)
(7.34618 -0.0010718 0)
(7.3475 -0.00172573 0)
(7.34881 -0.0024028 0)
(7.35011 -0.00310346 0)
(7.3514 -0.00382828 0)
(7.35266 -0.00457784 0)
(7.3539 -0.00535274 0)
(7.35511 -0.00615351 0)
(7.35629 -0.00698063 0)
(7.35744 -0.00783451 0)
(7.35855 -0.00871555 0)
(7.35963 -0.00962429 0)
(7.33299 0.000614968 0)
(7.33274 0.00186356 0)
(7.33225 0.00294281 0)
(7.33167 0.00375796 0)
(7.33112 0.00430603 0)
(7.33069 0.00461262 0)
(7.33042 0.00471372 0)
(7.33033 0.00464849 0)
(7.33045 0.00445246 0)
(7.33076 0.00415501 0)
(7.33125 0.00377959 0)
(7.33189 0.00334445 0)
(7.33268 0.00286339 0)
(7.33359 0.00234664 0)
(7.3346 0.00180162 0)
(7.33569 0.00123357 0)
(7.33686 0.000646058 0)
(7.33807 4.13822e-05 0)
(7.33932 -0.000579135 0)
(7.3406 -0.00121488 0)
(7.3419 -0.0018658 0)
(7.3432 -0.00253219 0)
(7.34451 -0.00321466 0)
(7.34581 -0.00391395 0)
(7.3471 -0.00463093 0)
(7.34837 -0.00536648 0)
(7.34963 -0.00612149 0)
(7.35085 -0.00689676 0)
(7.35205 -0.00769303 0)
(7.35322 -0.00851093 0)
(7.35435 -0.00935101 0)
(7.35545 -0.0102138 0)
(7.3565 -0.0110999 0)
(7.33297 0.000739553 0)
(7.33253 0.00223591 0)
(7.33168 0.00347081 0)
(7.33067 0.00433067 0)
(7.32969 0.00483432 0)
(7.32886 0.00503118 0)
(7.32823 0.00497984 0)
(7.32785 0.00473928 0)
(7.32773 0.00435958 0)
(7.32784 0.00387997 0)
(7.32817 0.00333038 0)
(7.3287 0.00273299 0)
(7.3294 0.00210365 0)
(7.33025 0.00145334 0)
(7.33121 0.000789448 0)
(7.33228 0.000116666 0)
(7.33342 -0.000562262 0)
(7.33463 -0.00124599 0)
(7.33588 -0.00193418 0)
(7.33717 -0.00262717 0)
(7.33847 -0.0033258 0)
(7.33979 -0.00403119 0)
(7.34111 -0.00474465 0)
(7.34243 -0.00546756 0)
(7.34373 -0.00620133 0)
(7.34502 -0.00694729 0)
(7.34628 -0.00770674 0)
(7.34751 -0.00848081 0)
(7.34872 -0.00927052 0)
(7.34989 -0.0100768 0)
(7.35103 -0.0109003 0)
(7.35213 -0.0117418 0)
(7.35318 -0.0126021 0)
(7.33295 0.000969288 0)
(7.33217 0.00289452 0)
(7.33075 0.00438426 0)
(7.32911 0.00531997 0)
(7.32754 0.00576666 0)
(7.32618 0.00581368 0)
(7.32513 0.00555625 0)
(7.32442 0.00508337 0)
(7.32404 0.00446522 0)
(7.32397 0.00375362 0)
(7.32418 0.00298614 0)
(7.32463 0.00218911 0)
(7.32529 0.00138006 0)
(7.32611 0.000570139 0)
(7.32708 -0.000233992 0)
(7.32817 -0.00102883 0)
(7.32934 -0.00181303 0)
(7.33059 -0.00258674 0)
(7.33188 -0.00335102 0)
(7.33322 -0.00410758 0)
(7.33457 -0.00485844 0)
(7.33594 -0.00560581 0)
(7.3373 -0.00635194 0)
(7.33866 -0.00709905 0)
(7.34001 -0.00784923 0)
(7.34134 -0.00860445 0)
(7.34264 -0.00936651 0)
(7.34391 -0.010137 0)
(7.34515 -0.0109174 0)
(7.34635 -0.0117088 0)
(7.34751 -0.0125123 0)
(7.34863 -0.0133289 0)
(7.34971 -0.0141595 0)
(7.3329 0.00139219 0)
(7.33153 0.00403444 0)
(7.32919 0.00589983 0)
(7.32663 0.00692083 0)
(7.32425 0.00725719 0)
(7.32225 0.00706616 0)
(7.32072 0.00650362 0)
(7.31968 0.0057041 0)
(7.31908 0.00476418 0)
(7.31889 0.00374996 0)
(7.31904 0.00270647 0)
(7.31948 0.00166294 0)
(7.32017 0.00063694 0)
(7.32106 -0.00036186 0)
(7.32211 -0.00132897 0)
(7.32328 -0.0022633 0)
(7.32455 -0.00316591 0)
(7.32589 -0.00403922 0)
(7.32729 -0.00488641 0)
(7.32872 -0.00571101 0)
(7.33017 -0.00651669 0)
(7.33163 -0.00730707 0)
(7.33309 -0.00808564 0)
(7.33454 -0.00885564 0)
(7.33597 -0.0096201 0)
(7.33737 -0.0103817 0)
(7.33874 -0.011143 0)
(7.34008 -0.0119061 0)
(7.34139 -0.0126729 0)
(7.34265 -0.013445 0)
(7.34386 -0.0142239 0)
(7.34503 -0.0150108 0)
(7.34615 -0.015807 0)
(7.33278 0.00219555 0)
(7.33032 0.00601771 0)
(7.32651 0.00836976 0)
(7.32261 0.00940664 0)
(7.3192 0.00948419 0)
(7.31647 0.00887711 0)
(7.31447 0.00783986 0)
(7.31316 0.00657037 0)
(7.31246 0.00519368 0)
(7.31226 0.00378709 0)
(7.31248 0.00239907 0)
(7.31305 0.00105755 0)
(7.31389 -0.000223719 0)
(7.31495 -0.00143963 0)
(7.31618 -0.00259024 0)
(7.31753 -0.00367861 0)
(7.31899 -0.00470961 0)
(7.32051 -0.00568895 0)
(7.32209 -0.00662265 0)
(7.32369 -0.00751669 0)
(7.3253 -0.00837683 0)
(7.32692 -0.00920845 0)
(7.32852 -0.0100165 0)
(7.33011 -0.0108056 0)
(7.33167 -0.0115797 0)
(7.3332 -0.0123426 0)
(7.33469 -0.0130974 0)
(7.33613 -0.013847 0)
(7.33754 -0.0145938 0)
(7.33889 -0.0153401 0)
(7.34019 -0.0160876 0)
(7.34144 -0.0168379 0)
(7.34264 -0.0175926 0)
(7.33249 0.00374056 0)
(7.32795 0.00949207 0)
(7.32175 0.0123754 0)
(7.31603 0.0131803 0)
(7.31142 0.0126556 0)
(7.30798 0.0112923 0)
(7.30567 0.00950445 0)
(7.30431 0.00756222 0)
(7.30371 0.00560421 0)
(7.30373 0.00370434 0)
(7.30423 0.00190337 0)
(7.3051 0.000218883 0)
(7.30626 -0.00134618 0)
(7.30765 -0.00279628 0)
(7.3092 -0.00413942 0)
(7.31088 -0.00538529 0)
(7.31264 -0.00654421 0)
(7.31446 -0.00762644 0)
(7.31631 -0.00864172 0)
(7.31818 -0.00959909 0)
(7.32004 -0.0105068 0)
(7.3219 -0.0113724 0)
(7.32373 -0.0122025 0)
(7.32552 -0.013003 0)
(7.32728 -0.0137793 0)
(7.32899 -0.014536 0)
(7.33065 -0.015277 0)
(7.33226 -0.016006 0)
(7.33382 -0.016726 0)
(7.33531 -0.0174397 0)
(7.33675 -0.0181492 0)
(7.33812 -0.0188566 0)
(7.33943 -0.0195638 0)
(7.33193 0.00664036 0)
(7.32329 0.0152935 0)
(7.31325 0.0184854 0)
(7.30522 0.0185737 0)
(7.29944 0.0168822 0)
(7.29558 0.0142385 0)
(7.29334 0.0113088 0)
(7.29234 0.00842484 0)
(7.29223 0.00569703 0)
(7.29281 0.00316989 0)
(7.29389 0.000862465 0)
(7.29536 -0.00122812 0)
(7.2971 -0.00311793 0)
(7.29905 -0.00482668 0)
(7.30114 -0.00637416 0)
(7.30333 -0.00777948 0)
(7.30558 -0.00906068 0)
(7.30785 -0.0102343 0)
(7.31014 -0.0113151 0)
(7.31241 -0.0123163 0)
(7.31466 -0.0132495 0)
(7.31687 -0.0141251 0)
(7.31904 -0.014952 0)
(7.32115 -0.015738 0)
(7.3232 -0.0164899 0)
(7.32519 -0.0172136 0)
(7.32711 -0.0179143 0)
(7.32896 -0.0185964 0)
(7.33074 -0.0192637 0)
(7.33245 -0.0199195 0)
(7.33408 -0.0205667 0)
(7.33564 -0.0212078 0)
(7.33713 -0.0218452 0)
(7.33069 0.0134353 0)
(7.31368 0.0252091 0)
(7.29797 0.0267171 0)
(7.28753 0.0249973 0)
(7.28098 0.0216515 0)
(7.27735 0.0175213 0)
(7.27593 0.0134395 0)
(7.27598 0.0096979 0)
(7.27699 0.00629744 0)
(7.27869 0.00321885 0)
(7.28089 0.000450063 0)
(7.28343 -0.00203178 0)
(7.2862 -0.00425728 0)
(7.28913 -0.00625588 0)
(7.29214 -0.00805379 0)
(7.29519 -0.009675 0)
(7.29825 -0.0111415 0)
(7.30129 -0.0124732 0)
(7.30428 -0.0136878 0)
(7.30722 -0.0148007 0)
(7.31009 -0.0158258 0)
(7.31288 -0.0167751 0)
(7.31559 -0.0176592 0)
(7.3182 -0.0184875 0)
(7.32072 -0.0192679 0)
(7.32315 -0.0200075 0)
(7.32548 -0.0207126 0)
(7.32772 -0.0213884 0)
(7.32985 -0.0220394 0)
(7.33189 -0.0226698 0)
(7.33384 -0.0232827 0)
(7.33569 -0.0238808 0)
(7.33744 -0.0244663 0)
(7.32456 0.0347131 0)
(7.28958 0.0467058 0)
(7.26765 0.0370846 0)
(7.25765 0.0262599 0)
(7.25264 0.0167266 0)
(7.25096 0.00874824 0)
(7.25187 0.00250349 0)
(7.25427 -0.00234159 0)
(7.2575 -0.00618181 0)
(7.26132 -0.0092542 0)
(7.26556 -0.0117279 0)
(7.27004 -0.0137433 0)
(7.27465 -0.0154106 0)
(7.27931 -0.0168091 0)
(7.28396 -0.0179964 0)
(7.28854 -0.0190168 0)
(7.29303 -0.0199048 0)
(7.29741 -0.0206876 0)
(7.30166 -0.0213866 0)
(7.30576 -0.0220185 0)
(7.30972 -0.0225967 0)
(7.31352 -0.023132 0)
(7.31716 -0.023633 0)
(7.32066 -0.0241067 0)
(7.32399 -0.0245588 0)
(7.32718 -0.024994 0)
(7.33021 -0.0254161 0)
(7.3331 -0.0258284 0)
(7.33585 -0.0262334 0)
(7.33845 -0.0266337 0)
(7.34093 -0.0270314 0)
(7.34327 -0.0274288 0)
(7.34549 -0.0278287 0)
(7.29575 0.0823964 0)
(7.21821 0.127207 0)
(7.1868 0.128808 0)
(7.18645 0.114379 0)
(7.19338 0.094786 0)
(7.20248 0.0767469 0)
(7.21296 0.0615391 0)
(7.22375 0.0483343 0)
(7.23444 0.0367091 0)
(7.24497 0.0265744 0)
(7.25523 0.0178516 0)
(7.26511 0.0103861 0)
(7.27454 0.00401032 0)
(7.28351 -0.00142435 0)
(7.29201 -0.00604981 0)
(7.30004 -0.00998526 0)
(7.30763 -0.0133361 0)
(7.31479 -0.0161929 0)
(7.32153 -0.0186328 0)
(7.32788 -0.0207209 0)
(7.33385 -0.0225126 0)
(7.33947 -0.0240546 0)
(7.34475 -0.0253861 0)
(7.34971 -0.0265402 0)
(7.35437 -0.0275448 0)
(7.35874 -0.0284235 0)
(7.36284 -0.029196 0)
(7.36668 -0.029879 0)
(7.37028 -0.0304866 0)
(7.37364 -0.0310304 0)
(7.37678 -0.0315203 0)
(7.37971 -0.0319636 0)
(7.38243 -0.0323689 0)
(7.32909 -0.158987 0)
(7.19612 -0.292899 0)
(7.13085 -0.292311 0)
(7.10898 -0.259648 0)
(7.10972 -0.226679 0)
(7.13037 -0.19575 0)
(7.16108 -0.167839 0)
(7.19443 -0.144105 0)
(7.22758 -0.124635 0)
(7.25931 -0.108755 0)
(7.28884 -0.0957757 0)
(7.31576 -0.0851748 0)
(7.34003 -0.0765314 0)
(7.36177 -0.06948 0)
(7.38117 -0.0637138 0)
(7.39842 -0.0589857 0)
(7.41372 -0.0550986 0)
(7.42727 -0.0518943 0)
(7.43923 -0.0492453 0)
(7.44979 -0.0470489 0)
(7.45908 -0.0452227 0)
(7.46724 -0.0437002 0)
(7.47438 -0.0424278 0)
(7.48062 -0.0413622 0)
(7.48604 -0.0404681 0)
(7.49073 -0.039717 0)
(7.49477 -0.0390856 0)
(7.49821 -0.0385547 0)
(7.50112 -0.0381087 0)
(7.50356 -0.0377346 0)
(7.50557 -0.0374211 0)
(7.50719 -0.0371595 0)
(7.50849 -0.0369377 0)
(7.33045 1.21807 0)
(7.6376 1.24116 0)
(7.81729 0.934087 0)
(7.87343 0.662121 0)
(7.88532 0.46234 0)
(7.87662 0.320594 0)
(7.85215 0.220102 0)
(7.81688 0.148063 0)
(7.77613 0.0958199 0)
(7.7334 0.0576541 0)
(7.69028 0.029648 0)
(7.64756 0.00902633 0)
(7.60576 -0.00618896 0)
(7.56523 -0.0174088 0)
(7.52615 -0.0256502 0)
(7.48857 -0.0316569 0)
(7.45251 -0.0359793 0)