/*--------------------------------*- C++ -*----------------------------------*\
  =========                 |
  \\      /  F ield         | OpenFOAM: The Open Source CFD Toolbox
   \\    /   O peration     | Website:  https://openfoam.org
    \\  /    A nd           | Version:  10
     \\/     M anipulation  |
\*---------------------------------------------------------------------------*/
FoamFile
{
    format      ascii;
    class       volScalarField;
    location    "1900";
    object      yPlus;
}
// * * * * * * * * * * * * * * * * * * * * * * * * * * * * * * * * * * * * * //

dimensions      [0 0 0 0 0 0 0];

internalField   uniform 0;

boundaryField
{
    outlet
    {
        type            calculated;
        value           uniform 0;
    }
    inlet
    {
        type            calculated;
        value           uniform 0;
    }
    lowerWall
    {
        type            calculated;
        value           nonuniform List<scalar> 
148
(
12.7112
17.6462
20.7197
22.3203
23.0459
23.2746
23.2254
23.0255
22.751
22.4469
22.1389
21.8405
21.5586
21.2962
21.0538
20.8308
20.626
20.4378
20.2649
20.1058
19.959
19.8234
19.6978
19.5813
19.473
19.372
19.2777
19.1894
19.1062
19.029
18.9496
18.9045
18.7153
0.398801
2.16498
3.90276
5.23476
6.33265
7.25023
8.11704
8.98885
9.85543
10.8063
10.7461
10.992
11.8281
12.2291
14.911
0.398801
3.35934
4.97804
5.74417
5.92831
5.79657
5.49425
5.10112
4.58279
3.29294
1.06162
8.02188
9.06963
13.883
18.5558
22.1059
25.1184
27.7558
30.1091
32.2301
34.1499
35.8901
37.4691
38.9042
40.2136
41.4153
42.5269
43.5641
44.5406
45.4678
46.3549
47.2087
48.0346
48.8369
49.6192
50.3857
51.1416
51.893
52.6452
53.3822
54.1099
54.8285
55.5372
56.235
56.9205
57.592
58.2478
58.8861
59.505
60.1024
60.6761
61.224
61.7438
62.2331
62.6896
63.111
63.495
63.8394
64.1423
64.4021
64.6174
64.7869
64.9098
64.9858
65.0138
64.994
64.9262
64.8098
64.6437
64.4231
64.1872
63.9507
63.6664
63.3344
62.9641
62.5629
62.137
61.6899
61.2251
60.7461
60.2559
59.7572
59.253
58.7458
58.2381
57.7318
57.2289
56.7312
56.2399
55.7568
55.2829
54.8203
54.369
53.9329
53.5103
53.1094
52.7267
52.3798
52.0771
51.8312
)
;
    }
    upperWall
    {
        type            calculated;
        value           nonuniform List<scalar> 
133
(
31.2591
34.0073
36.6584
39.0132
41.0752
42.889
44.4881
45.8973
47.1377
48.2283
49.1859
50.0257
50.7609
51.4035
51.9643
52.4525
52.8767
53.2444
53.562
53.8356
54.0702
54.2704
54.4403
54.5834
54.703
54.8017
54.882
54.9462
54.9961
55.0334
55.0597
55.0762
55.0845
55.0839
55.0724
55.0501
55.0172
54.9744
54.9223
54.8613
54.7919
54.7145
54.6297
54.5378
54.4392
54.3343
54.2232
54.1063
53.9838
53.856
53.7229
53.5848
53.4417
53.2937
53.1408
52.9831
52.8205
52.6529
52.4803
52.3026
52.1196
51.9311
51.737
51.537
51.331
51.1187
50.8998
50.6741
50.4413
50.2012
49.9534
49.6977
49.4339
49.1617
48.881
48.5914
48.2929
47.9854
47.6689
47.3431
47.0083
46.6646
46.312
45.9509
45.5817
45.2047
44.8204
44.4297
44.0331
43.6315
43.2261
42.8177
42.4075
41.9971
41.5876
41.1806
40.7777
40.3803
39.9901
39.6088
39.2379
38.879
38.5334
38.2026
37.8877
37.5895
37.309
37.0466
36.8027
36.5773
36.3702
36.181
36.0091
35.8535
35.7134
35.5872
35.4741
35.3723
35.2807
35.1976
35.1217
35.0516
34.9861
34.9237
34.8634
34.8038
34.7443
34.6833
34.6201
34.555
34.4809
34.4211
34.2886
)
;
    }
    frontAndBack
    {
        type            empty;
    }
}


// ************************************************************************* //
