/*--------------------------------*- C++ -*----------------------------------*\
  =========                 |
  \\      /  F ield         | OpenFOAM: The Open Source CFD Toolbox
   \\    /   O peration     | Website:  https://openfoam.org
    \\  /    A nd           | Version:  10
     \\/     M anipulation  |
\*---------------------------------------------------------------------------*/
FoamFile
{
    format      ascii;
    class       volScalarField;
    location    "0.185";
    object      epsilon;
}
// * * * * * * * * * * * * * * * * * * * * * * * * * * * * * * * * * * * * * //

dimensions      [0 2 -3 0 0 0 0];

internalField   nonuniform List<scalar> 
6820
(
23.2969
22.5752
21.9094
21.2853
20.7018
20.1632
19.6734
19.2344
18.8457
18.5051
18.2094
17.9549
17.7377
17.5542
17.4007
17.2739
17.171
17.0892
17.026
16.9794
16.9473
16.928
16.9201
16.922
16.9326
16.9509
16.9754
17.0081
17.0349
17.1184
16.9629
17.9482
13.6049
5.03386
6.81833
7.83937
8.46766
8.89815
9.23162
9.52192
9.79549
10.0643
10.3335
10.6048
10.8787
11.1548
11.4327
11.7118
11.9915
12.2712
12.5504
12.8285
13.1051
13.3798
13.6522
13.9222
14.1897
14.4549
14.7183
14.981
15.2454
15.5143
15.8082
16.0908
16.6486
16.6718
3.7036
4.14719
4.56526
4.91423
5.19796
5.43125
5.62814
5.79986
5.95483
6.09918
6.2372
6.3718
6.50491
6.63774
6.77104
6.90523
7.04049
7.17687
7.31432
7.45274
7.59199
7.73192
7.8724
8.01333
8.15466
8.29646
8.43887
8.58266
8.72787
8.87901
9.03107
9.20603
9.37857
3.54009
3.61094
3.72474
3.85373
3.98118
4.09944
4.20624
4.30203
4.38827
4.46676
4.53921
4.60712
4.67174
4.73407
4.79488
4.85476
4.91415
4.97338
5.03267
5.09218
5.15201
5.21223
5.27289
5.33401
5.39564
5.45784
5.52069
5.58444
5.64928
5.71604
5.78493
5.85734
5.93579
3.52064
3.50151
3.50498
3.52611
3.55868
3.59721
3.63781
3.67805
3.71667
3.75311
3.7873
3.81937
3.84958
3.87825
3.90566
3.93212
3.95785
3.98307
4.00795
4.03263
4.05724
4.08187
4.10658
4.13145
4.15653
4.18188
4.20759
4.23375
4.26047
4.28799
4.31649
4.34613
4.3773
3.5194
3.48247
3.45303
3.43232
3.41995
3.4145
3.41422
3.41751
3.42308
3.42999
3.43759
3.44548
3.4534
3.46121
3.46887
3.47637
3.48371
3.49095
3.49811
3.50525
3.51241
3.51963
3.52694
3.53438
3.54199
3.5498
3.55785
3.56619
3.57488
3.58399
3.59362
3.60381
3.6146
3.51943
3.47974
3.44283
3.40949
3.38025
3.35523
3.3342
3.31668
3.30212
3.28998
3.27976
3.27107
3.26356
3.257
3.25118
3.24598
3.24128
3.23702
3.23313
3.22959
3.22637
3.22345
3.22081
3.21846
3.2164
3.21462
3.21314
3.21197
3.21112
3.21063
3.21052
3.2108
3.21148
3.51947
3.47943
3.44109
3.40466
3.37041
3.33851
3.30907
3.28205
3.25734
3.23478
3.21417
3.19528
3.17792
3.1619
3.14705
3.13323
3.12032
3.10822
3.09684
3.0861
3.07596
3.06637
3.05727
3.04865
3.04047
3.03271
3.02536
3.0184
3.01184
3.00567
2.99989
2.99449
2.98947
3.51948
3.47941
3.44085
3.40382
3.36835
3.33447
3.30224
3.27168
3.24278
3.21551
3.18981
3.1656
3.1428
3.12131
3.10102
3.08185
3.06371
3.04652
3.0302
3.01468
2.9999
2.98582
2.97238
2.95955
2.94727
2.93554
2.9243
2.91355
2.90327
2.89343
2.88404
2.87507
2.8665
3.51948
3.47941
3.44082
3.40368
3.36796
3.33361
3.30062
3.26897
3.23863
3.20959
3.18182
3.15529
3.12994
3.10574
3.08264
3.06057
3.03949
3.01934
3.00007
2.98164
2.96398
2.94706
2.93084
2.91528
2.90033
2.88598
2.87219
2.85894
2.8462
2.83396
2.82219
2.81088
2.80001
3.51948
3.4794
3.44081
3.40365
3.36788
3.33344
3.30027
3.26833
3.23758
3.20798
3.1795
3.1521
3.12575
3.10042
3.07606
3.05265
3.03014
3.0085
2.9877
2.96768
2.94843
2.9299
2.91206
2.89488
2.87833
2.86239
2.84703
2.83221
2.81793
2.80417
2.79089
2.77809
2.76575
3.51948
3.4794
3.4408
3.40364
3.36786
3.33339
3.30018
3.26818
3.23732
3.20757
3.17888
3.15121
3.12452
3.09878
3.07395
3.05
3.02689
3.0046
2.98309
2.96234
2.94231
2.92297
2.9043
2.88628
2.86887
2.85205
2.8358
2.82011
2.80494
2.79028
2.77612
2.76243
2.7492
3.51948
3.4794
3.44079
3.40363
3.36784
3.33337
3.30015
3.26813
3.23724
3.20745
3.17871
3.15096
3.12417
3.0983
3.07331
3.04918
3.02585
3.00331
2.98153
2.96047
2.94011
2.92042
2.90138
2.88296
2.86514
2.8479
2.83121
2.81507
2.79944
2.78432
2.76968
2.75551
2.74179
3.51948
3.47939
3.44079
3.40362
3.36783
3.33335
3.30013
3.2681
3.23721
3.2074
3.17864
3.15087
3.12405
3.09815
3.07311
3.04892
3.02553
3.0029
2.98102
2.95985
2.93937
2.91954
2.90035
2.88177
2.86378
2.84636
2.82948
2.81313
2.79729
2.78195
2.76708
2.75267
2.73871
3.51947
3.47939
3.44079
3.40362
3.36782
3.33334
3.30011
3.26808
3.23718
3.20737
3.1786
3.15082
3.124
3.09808
3.07303
3.04882
3.0254
3.00275
2.98084
2.95964
2.93911
2.91924
2.9
2.88136
2.8633
2.8458
2.82885
2.81242
2.79649
2.78105
2.76609
2.75157
2.7375
3.51947
3.47939
3.44078
3.40361
3.36781
3.33333
3.3001
3.26806
3.23716
3.20734
3.17857
3.15079
3.12396
3.09803
3.07298
3.04876
3.02533
3.00268
2.98076
2.95954
2.939
2.91911
2.89985
2.88119
2.86311
2.84559
2.82861
2.81214
2.79618
2.78071
2.7657
2.75114
2.73702
3.51947
3.47939
3.44078
3.40361
3.36781
3.33332
3.30008
3.26804
3.23714
3.20732
3.17854
3.15076
3.12392
3.09799
3.07293
3.04871
3.02528
3.00262
2.98069
2.95947
2.93893
2.91903
2.89976
2.8811
2.86301
2.84548
2.82849
2.81201
2.79604
2.78055
2.76552
2.75094
2.7368
3.51947
3.47939
3.44078
3.4036
3.3678
3.33331
3.30007
3.26803
3.23712
3.2073
3.17852
3.15073
3.12389
3.09796
3.0729
3.04867
3.02524
3.00257
2.98064
2.95942
2.93887
2.91897
2.8997
2.88103
2.86294
2.8454
2.8284
2.81192
2.79594
2.78044
2.7654
2.75082
2.73666
3.51947
3.47939
3.44078
3.4036
3.3678
3.3333
3.30006
3.26801
3.2371
3.20728
3.1785
3.1507
3.12386
3.09793
3.07286
3.04863
3.0252
3.00253
2.9806
2.95937
2.93882
2.91892
2.89964
2.88097
2.86287
2.84533
2.82833
2.81184
2.79586
2.78035
2.76531
2.75071
2.73655
3.51947
3.47939
3.44077
3.4036
3.36779
3.3333
3.30005
3.268
3.23709
3.20726
3.17848
3.15068
3.12384
3.0979
3.07283
3.0486
3.02516
3.00249
2.98056
2.95932
2.93877
2.91887
2.89959
2.88091
2.86281
2.84527
2.82826
2.81177
2.79578
2.78027
2.76522
2.75062
2.73644
3.51947
3.47939
3.44077
3.40359
3.36779
3.33329
3.30005
3.26799
3.23708
3.20725
3.17846
3.15066
3.12381
3.09787
3.0728
3.04857
3.02513
3.00246
2.98052
2.95928
2.93873
2.91882
2.89954
2.88086
2.86275
2.84521
2.8282
2.8117
2.79571
2.78019
2.76513
2.75053
2.73634
3.51947
3.47938
3.44077
3.40359
3.36779
3.33329
3.30004
3.26799
3.23707
3.20724
3.17845
3.15065
3.1238
3.09785
3.07278
3.04854
3.0251
3.00242
2.98048
2.95925
2.93869
2.91878
2.89949
2.88081
2.8627
2.84515
2.82814
2.81164
2.79564
2.78011
2.76505
2.75044
2.73625
3.51947
3.47938
3.44077
3.40359
3.36778
3.33329
3.30004
3.26798
3.23706
3.20723
3.17843
3.15063
3.12378
3.09783
3.07276
3.04852
3.02507
3.00239
2.98045
2.95921
2.93865
2.91874
2.89945
2.88076
2.86265
2.8451
2.82808
2.81158
2.79557
2.78004
2.76498
2.75035
2.73616
3.51947
3.47938
3.44077
3.40359
3.36778
3.33328
3.30003
3.26797
3.23705
3.20722
3.17842
3.15062
3.12376
3.09782
3.07274
3.0485
3.02505
3.00237
2.98042
2.95918
2.93861
2.9187
2.89941
2.88072
2.8626
2.84505
2.82802
2.81152
2.79551
2.77997
2.7649
2.75027
2.73607
3.51947
3.47938
3.44077
3.40359
3.36778
3.33328
3.30003
3.26797
3.23705
3.20721
3.17841
3.15061
3.12375
3.0978
3.07272
3.04848
3.02503
3.00235
2.9804
2.95915
2.93858
2.91866
2.89937
2.88068
2.86256
2.845
2.82797
2.81146
2.79545
2.77991
2.76483
2.7502
2.73599
3.51947
3.47938
3.44077
3.40359
3.36778
3.33328
3.30003
3.26797
3.23704
3.20721
3.17841
3.1506
3.12374
3.09779
3.07271
3.04846
3.02501
3.00233
2.98037
2.95913
2.93856
2.91864
2.89934
2.88064
2.86252
2.84496
2.82793
2.81141
2.79539
2.77985
2.76477
2.75013
2.73592
3.51947
3.47938
3.44077
3.40359
3.36778
3.33328
3.30002
3.26796
3.23704
3.2072
3.1784
3.15059
3.12373
3.09778
3.0727
3.04845
3.02499
3.00231
2.98035
2.9591
2.93853
2.91861
2.89931
2.88061
2.86248
2.84492
2.82788
2.81136
2.79534
2.77979
2.7647
2.75006
2.73584
3.51947
3.47938
3.44077
3.40359
3.36778
3.33328
3.30002
3.26796
3.23704
3.2072
3.1784
3.15059
3.12373
3.09778
3.07269
3.04844
3.02499
3.0023
2.98034
2.95909
2.93852
2.91859
2.89929
2.88058
2.86246
2.84489
2.82785
2.81132
2.7953
2.77974
2.76465
2.75
2.73578
3.51947
3.47938
3.44077
3.40359
3.36778
3.33327
3.30002
3.26796
3.23703
3.20719
3.17839
3.15058
3.12372
3.09776
3.07268
3.04843
3.02497
3.00228
2.98032
2.95907
2.93849
2.91857
2.89926
2.88056
2.86243
2.84485
2.82781
2.81129
2.79525
2.7797
2.7646
2.74995
2.73572
3.51947
3.47938
3.44077
3.40359
3.36778
3.33328
3.30003
3.26797
3.23704
3.2072
3.1784
3.15059
3.12373
3.09778
3.07269
3.04844
3.02498
3.00229
2.98033
2.95908
2.9385
2.91857
2.89926
2.88055
2.86242
2.84484
2.8278
2.81127
2.79523
2.77968
2.76458
2.74992
2.73569
3.51947
3.47939
3.44077
3.40359
3.36778
3.33328
3.30002
3.26796
3.23703
3.20719
3.17839
3.15058
3.12372
3.09776
3.07268
3.04843
3.02497
3.00228
2.98032
2.95907
2.93849
2.91856
2.89925
2.88054
2.86241
2.84484
2.82779
2.81126
2.79523
2.77967
2.76457
2.74991
2.73568
3.51947
3.47938
3.44077
3.40359
3.36779
3.3333
3.30006
3.268
3.23708
3.20725
3.17845
3.15065
3.12379
3.09783
3.07275
3.0485
3.02504
3.00235
2.98039
2.95914
2.93856
2.91864
2.89933
2.88063
2.8625
2.84493
2.82789
2.81137
2.79534
2.77979
2.7647
2.75005
2.73583
3.51948
3.4794
3.44079
3.40362
3.36782
3.33332
3.30007
3.26801
3.23709
3.20725
3.17846
3.15065
3.1238
3.09786
3.07279
3.04856
3.02512
3.00245
2.98052
2.95929
2.93875
2.91885
2.89958
2.88092
2.86283
2.84531
2.82832
2.81185
2.79587
2.78038
2.76535
2.75076
2.73661
3.51947
3.47939
3.44079
3.40365
3.36789
3.33344
3.30023
3.26822
3.23734
3.20754
3.17879
3.15103
3.12423
3.09835
3.07335
3.0492
3.02586
3.0033
2.98148
2.96039
2.94
2.92026
2.90117
2.88269
2.86481
2.84749
2.83072
2.81448
2.79875
2.78351
2.76873
2.75441
2.74053
3.51949
3.47947
3.44095
3.40384
3.3681
3.33368
3.30054
3.26862
3.23789
3.2083
3.17981
3.15238
3.12596
3.10051
3.07601
3.0524
3.02967
3.00776
2.98664
2.96629
2.94668
2.92776
2.90951
2.89191
2.87492
2.85852
2.84269
2.8274
2.81263
2.79835
2.78455
2.77121
2.7583
3.5195
3.47953
3.44117
3.40446
3.36934
3.33573
3.3036
3.27292
3.24364
3.21573
3.18914
3.16382
3.13972
3.11677
3.09491
3.07411
3.05428
3.03538
3.01736
3.00017
2.98374
2.96805
2.95304
2.93868
2.92492
2.91174
2.89909
2.88694
2.87527
2.86406
2.85326
2.84287
2.83285
3.51968
3.48122
3.44561
3.41286
3.38296
3.35589
3.33153
3.30969
3.29018
3.27277
3.25725
3.24342
3.23108
3.22007
3.21021
3.20138
3.19345
3.18629
3.17982
3.17394
3.16858
3.16367
3.15915
3.15497
3.15108
3.14744
3.14402
3.14078
3.1377
3.13476
3.13193
3.1292
3.12656
3.52527
3.5137
3.51624
3.52955
3.55081
3.57802
3.60956
3.64414
3.6808
3.71879
3.75755
3.7966
3.83559
3.87425
3.91237
3.94977
3.98634
4.02199
4.05665
4.09028
4.12286
4.15437
4.18482
4.21419
4.24252
4.26981
4.29609
4.32138
4.3457
4.3691
4.3916
4.41322
4.43401
3.83318
4.36504
4.84909
5.31389
5.77403
6.22493
6.66229
7.08425
7.49045
7.88126
8.25746
8.61993
8.96956
9.30718
9.63353
9.94927
10.255
10.5512
10.8383
11.1167
11.3868
11.6489
11.9033
12.1503
12.3901
12.623
12.8493
13.0691
13.2827
13.4903
13.6921
13.8884
14.0792
30.2663
32.7713
35.3126
37.865
40.4147
42.9529
45.4713
47.9624
50.4192
52.8357
55.2061
57.5258
59.7906
61.9972
64.1428
66.2253
68.2429
70.1946
72.0798
73.8981
75.6497
77.335
78.9546
80.5096
82.001
83.4301
84.7983
86.1073
87.3587
88.5541
89.6954
90.7842
91.8234
83.281
236.809
420.221
588.711
715.078
790.415
819.423
813.669
785.789
746.268
702.415
658.655
617.292
579.277
544.803
513.691
485.623
460.254
437.267
416.377
397.34
379.946
364.012
349.376
335.89
323.41
311.797
300.919
290.65
280.879
271.503
262.433
253.59
244.901
236.302
227.737
219.158
210.524
201.806
192.981
184.037
174.971
165.791
156.515
147.168
137.788
128.418
119.111
109.925
100.92
92.1622
83.7156
75.6427
68.0015
60.8425
54.2067
48.1236
42.6099
37.6692
33.292
29.4573
26.1344
23.2854
20.8679
18.8375
17.1504
15.7649
14.6431
13.7514
13.0609
12.5473
12.1906
11.9744
11.8851
11.9113
12.0427
12.2689
12.5788
12.9596
13.396
13.8701
14.3611
14.8459
15.3002
15.6989
16.0177
16.2345
16.3297
16.2877
16.097
15.7506
15.2467
14.5882
13.7831
12.8456
11.7936
10.6573
9.44438
8.32381
6.5629
19.9769
29.6182
47.2928
73.5872
107.466
146.617
188.113
228.985
266.635
298.965
324.626
343.059
354.444
359.543
359.481
355.511
348.806
340.346
330.861
320.857
310.659
300.467
290.408
280.563
270.985
261.7
252.711
243.999
235.531
227.269
219.169
211.19
203.295
195.447
187.613
179.764
171.877
163.933
155.923
147.842
139.697
131.501
123.276
115.05
106.861
98.7512
90.7703
82.9702
75.4054
68.1304
61.1981
54.6569
48.5494
42.9095
37.7612
33.1171
28.9779
25.3327
22.1599
19.4292
17.1038
15.1431
13.5051
12.1488
11.0357
10.1312
9.40518
8.83218
8.39124
8.06568
7.84254
7.71215
7.66755
7.70389
7.81785
8.00689
8.26845
8.59905
8.99337
9.44336
9.93756
10.4607
10.9939
11.5149
11.9998
12.4236
12.7621
12.9935
13.0992
13.065
12.8816
12.5451
12.0575
11.4263
10.6655
9.79427
8.84179
7.82122
6.87797
5.40933
9.55486
9.90404
10.8631
12.8641
16.2214
21.1158
27.6236
35.7234
45.3109
56.2788
68.4436
81.4764
94.9156
108.241
120.949
132.611
142.903
151.615
158.63
163.916
167.509
169.512
170.089
169.443
167.795
165.353
162.293
158.751
154.819
150.562
146.025
141.241
136.236
131.031
125.644
120.09
114.386
108.548
102.595
96.5516
90.4453
84.3083
78.1775
72.0932
66.0994
60.2417
54.5666
49.1198
43.944
39.0777
34.5533
30.3956
26.6209
23.236
20.238
17.615
15.347
13.4075
11.7654
10.3875
9.24032
8.29155
7.51161
6.87429
6.35702
5.94097
5.61076
5.35417
5.16178
5.02661
4.94378
4.91027
4.92466
4.98686
5.09785
5.25932
5.47323
5.74114
6.06345
6.4385
6.86157
7.32412
7.81327
8.31179
8.79875
9.2507
9.64322
9.95268
10.1579
10.2417
10.1916
10.0013
9.67014
9.20442
8.61677
7.92607
7.15969
6.33417
5.57059
4.39218
6.02117
6.10386
6.20436
6.37828
6.69211
7.20952
7.98152
9.04544
10.4278
12.16
14.2397
16.6763
19.4871
22.6802
26.2482
30.1658
34.3883
38.8491
43.4568
48.0943
52.6229
56.8949
60.7716
64.1419
66.9333
69.1123
70.6758
71.6403
72.0326
71.8851
71.2351
70.1238
68.5952
66.6939
64.4638
61.9467
59.1827
56.211
53.0706
49.8012
46.4432
43.0376
39.6254
36.2477
32.944
29.7517
26.7049
23.8334
21.1611
18.7058
16.4786
14.4837
12.7184
11.1747
9.83918
8.69506
7.7232
6.90352
6.21615
5.64231
5.16496
4.76906
4.44172
4.17211
3.95132
3.77215
3.62893
3.5173
3.43407
3.37712
3.34524
3.33812
3.35629
3.40107
3.47452
3.57937
3.71882
3.89627
4.11485
4.37673
4.68232
5.02926
5.41147
5.81853
6.23554
6.64357
7.02091
7.34473
7.593
7.74634
7.78966
7.71339
7.51422
7.19573
6.76816
6.24861
5.66137
5.02405
4.43356
3.52839
4.41408
4.4539
4.49276
4.53538
4.59037
4.66995
4.78782
4.95681
5.18754
5.48993
5.86942
6.3228
6.85111
7.45667
8.14243
8.9119
9.76883
10.7164
11.7556
12.883
14.088
15.3524
16.65
17.9494
19.2172
20.4201
21.5269
22.5081
23.337
23.9897
24.4475
24.6979
24.736
24.5637
24.1892
23.6258
22.8906
22.0043
20.9898
19.8722
18.6776
17.4325
16.1628
14.8933
13.6465
12.4425
11.298
10.2261
9.23601
8.33335
7.52007
6.79514
6.15512
5.59472
5.1075
4.68635
4.32403
4.01345
3.74797
3.52154
3.32876
3.16492
3.02599
2.90856
2.80982
2.72748
2.65978
2.60537
2.56337
2.53328
2.51503
2.50896
2.51584
2.5369
2.57389
2.629
2.70496
2.80485
2.93199
3.08958
3.2802
3.50506
3.76314
4.05028
4.35844
4.6754
4.98518
5.26902
5.50704
5.68021
5.77226
5.7714
5.67148
5.47301
5.18298
4.81524
4.38985
3.92312
3.4893
2.82563
3.62772
3.64259
3.65734
3.67227
3.68818
3.70683
3.73093
3.76391
3.8093
3.87077
3.95092
4.05067
4.17043
4.31023
4.46989
4.64923
4.84817
5.06668
5.30464
5.56149
5.83579
6.12501
6.42542
6.73228
7.04017
7.34329
7.63549
7.91018
8.16031
8.37843
8.5572
8.68988
8.771
8.79672
8.76504
8.67587
8.53094
8.33378
8.08951
7.80459
7.48651
7.14337
6.78348
6.41495
6.04536
5.68148
5.32907
4.99273
4.67592
4.38093
4.10909
3.8608
3.63578
3.43324
3.25194
3.09045
2.94716
2.82042
2.70858
2.61008
2.52344
2.44732
2.38053
2.32202
2.27091
2.22645
2.1881
2.15545
2.12825
2.10647
2.09022
2.07986
2.07597
2.07937
2.09121
2.11295
2.1464
2.19373
2.25742
2.34013
2.44448
2.57264
2.7258
2.90343
3.10254
3.31701
3.53729
3.75067
3.94212
4.0958
4.19679
4.23301
4.19664
4.0855
3.90311
3.65928
3.3691
3.04577
2.74356
2.27885
3.21273
3.21436
3.21609
3.2179
3.21985
3.22211
3.22508
3.22945
3.23614
3.24626
3.26078
3.28056
3.30623
3.33813
3.3764
3.42102
3.47184
3.52863
3.59107
3.6587
3.73088
3.80672
3.88506
3.96455
4.04371
4.12101
4.19489
4.26373
4.32583
4.37939
4.42255
4.45356
4.47085
4.47316
4.45965
4.42992
4.38402
4.32249
4.2463
4.15687
4.05596
3.94559
3.82795
3.7053
3.57983
3.45364
3.32862
3.20638
3.08831
2.97546
2.86862
2.76831
2.67481
2.5882
2.50841
2.43521
2.36829
2.30728
2.25173
2.20121
2.15525
2.11341
2.07529
2.04052
2.00876
1.97975
1.95328
1.92922
1.90749
1.88813
1.87125
1.85709
1.84599
1.83847
1.8352
1.83706
1.84516
1.86084
1.8857
1.92156
1.97034
2.03393
2.11386
2.21091
2.32457
2.45246
2.58988
2.72956
2.86194
2.97586
3.05981
3.10347
3.0991
3.04302
2.93599
2.78387
2.59683
2.38421
2.18387
1.87156
2.98407
2.97817
2.97237
2.96664
2.96099
2.95541
2.94997
2.94474
2.93992
2.93576
2.93254
2.93057
2.93016
2.93156
2.93497
2.94052
2.94825
2.95816
2.97016
2.98409
2.99971
3.01666
3.0345
3.05273
3.07079
3.0881
3.10409
3.1182
3.12985
3.13847
3.14346
3.14425
3.14033
3.13127
3.11676
3.09664
3.07086
3.03954
3.00295
2.96146
2.91562
2.86602
2.81337
2.75841
2.7019
2.64456
2.58712
2.5302
2.47437
2.42011
2.3678
2.31772
2.27009
2.22501
2.18251
2.14258
2.10513
2.07005
2.03718
2.00635
1.97737
1.95007
1.92426
1.89977
1.87645
1.85419
1.83289
1.81248
1.79294
1.7743
1.75662
1.74005
1.72477
1.71109
1.69937
1.69014
1.68401
1.6818
1.68445
1.69309
1.70898
1.73344
1.76771
1.81274
1.86886
1.93545
2.01053
2.09045
2.16986
2.24193
2.299
2.33353
2.33926
2.31235
2.25199
2.16098
2.04547
1.91117
1.78352
1.58017
2.857
2.84644
2.836
2.82564
2.81535
2.80513
2.79497
2.78487
2.77486
2.76499
2.7553
2.74587
2.7368
2.72817
2.72009
2.71264
2.70588
2.69986
2.6946
2.69008
2.68624
2.68296
2.6801
2.67745
2.6748
2.6719
2.66854
2.66446
2.65944
2.65325
2.64566
2.63645
2.6254
2.61234
2.59713
2.5797
2.56001
2.5381
2.51405
2.48801
2.46015
2.43072
2.39997
2.3682
2.33571
2.3028
2.26976
2.23688
2.2044
2.17254
2.14148
2.11134
2.08224
2.05423
2.02733
2.00153
1.97678
1.95303
1.9302
1.90818
1.88689
1.86622
1.84607
1.82635
1.80697
1.78786
1.76896
1.75025
1.7317
1.71332
1.69515
1.67727
1.65978
1.64285
1.62668
1.61156
1.59783
1.58596
1.57649
1.57008
1.56751
1.56961
1.57725
1.59119
1.61193
1.63952
1.67328
1.71157
1.75165
1.78975
1.82128
1.84141
1.84574
1.83112
1.79623
1.74203
1.67187
1.58871
1.5092
1.37918
2.78786
2.77428
2.76081
2.74743
2.73413
2.7209
2.70773
2.69462
2.68157
2.66858
2.65565
2.6428
2.63002
2.61735
2.60481
2.59242
2.58021
2.56822
2.55647
2.54497
2.53372
2.52269
2.51184
2.50109
2.49038
2.4796
2.46866
2.45746
2.44592
2.43394
2.42143
2.40829
2.39444
2.37978
2.36427
2.34786
2.33054
2.31231
2.2932
2.27327
2.25261
2.23129
2.20944
2.18718
2.16464
2.14195
2.11925
2.09665
2.07426
2.05218
2.03049
2.00925
1.98849
1.96824
1.94848
1.9292
1.91037
1.89193
1.87383
1.85601
1.83839
1.8209
1.80348
1.78607
1.76861
1.75105
1.73335
1.71548
1.69743
1.67921
1.66083
1.64233
1.62377
1.60523
1.58685
1.56876
1.55117
1.53433
1.51855
1.5042
1.49174
1.48167
1.47454
1.47089
1.47116
1.47559
1.48404
1.4959
1.50989
1.52408
1.53595
1.54268
1.54148
1.53014
1.50745
1.47347
1.42989
1.37791
1.32834
1.24518
2.75189
2.73637
2.72094
2.70558
2.69031
2.6751
2.65996
2.64489
2.62987
2.61491
2.60001
2.58516
2.57035
2.55559
2.54088
2.52621
2.5116
2.49705
2.48258
2.4682
2.4539
2.4397
2.42557
2.41149
2.39744
2.38337
2.36927
2.35509
2.3408
2.32636
2.31176
2.29694
2.28188
2.26654
2.2509
2.23494
2.21865
2.20203
2.1851
2.16789
2.15042
2.13274
2.1149
2.09695
2.07895
2.06095
2.043
2.02517
2.0075
1.99001
1.97275
1.95572
1.93894
1.9224
1.90607
1.88994
1.87397
1.85811
1.84231
1.82653
1.8107
1.79478
1.77871
1.76245
1.74595
1.72917
1.71208
1.69467
1.67691
1.65881
1.64038
1.62163
1.6026
1.58334
1.56393
1.54444
1.525
1.50574
1.48685
1.46853
1.45104
1.43469
1.41979
1.40671
1.39575
1.38717
1.38105
1.37721
1.37515
1.37396
1.37239
1.3689
1.36188
1.34995
1.33221
1.30841
1.27938
1.24531
1.21334
1.15875
2.73431
2.71759
2.70094
2.68435
2.66782
2.65136
2.63495
2.6186
2.60231
2.58607
2.56989
2.55377
2.5377
2.52168
2.5057
2.48976
2.47386
2.45801
2.4422
2.42644
2.41074
2.3951
2.3795
2.36396
2.34844
2.33295
2.31747
2.30199
2.2865
2.271
2.25548
2.23992
2.22434
2.2087
2.193
2.17725
2.16143
2.14556
2.12964
2.11368
2.0977
2.08172
2.06575
2.04983
2.03396
2.01818
2.0025
1.98695
1.97152
1.95624
1.94111
1.92612
1.91125
1.8965
1.88184
1.86723
1.85264
1.83802
1.82334
1.80855
1.7936
1.77844
1.76303
1.74734
1.73132
1.71494
1.69818
1.68102
1.66344
1.64544
1.62703
1.60822
1.58902
1.56949
1.54965
1.52956
1.50931
1.48896
1.46864
1.44846
1.42858
1.40916
1.39042
1.37257
1.35582
1.34036
1.32634
1.31375
1.30244
1.29207
1.28206
1.27165
1.26
1.24633
1.23006
1.21092
1.18933
1.16497
1.14281
1.10482
2.72632
2.70892
2.69156
2.67425
2.65698
2.63975
2.62257
2.60544
2.58836
2.57132
2.55434
2.53741
2.52053
2.5037
2.48692
2.4702
2.45352
2.43689
2.42031
2.4038
2.38734
2.37094
2.3546
2.33831
2.32209
2.3059
2.28977
2.27368
2.25763
2.24163
2.22569
2.2098
2.19396
2.17818
2.16245
2.14678
2.13118
2.11564
2.10017
2.08479
2.06949
2.05428
2.03918
2.0242
2.00933
1.99458
1.97996
1.96547
1.9511
1.93685
1.92272
1.90867
1.89471
1.88079
1.8669
1.853
1.83905
1.82501
1.81085
1.79651
1.78197
1.76717
1.75207
1.73665
1.72087
1.70469
1.6881
1.67108
1.65362
1.63571
1.61736
1.59857
1.57936
1.55975
1.53978
1.51949
1.49893
1.47816
1.45725
1.43629
1.41536
1.39458
1.37407
1.35397
1.33444
1.31559
1.29757
1.28043
1.26417
1.2487
1.2338
1.21915
1.20434
1.189
1.1728
1.15554
1.13748
1.11808
1.10106
1.07221
2.72295
2.70519
2.68746
2.66975
2.65207
2.63443
2.61681
2.59922
2.58168
2.56417
2.5467
2.52928
2.51191
2.49458
2.47731
2.46008
2.44291
2.4258
2.40875
2.39175
2.37483
2.35798
2.34119
2.32448
2.30784
2.29128
2.27478
2.25835
2.242
2.22573
2.20955
2.19347
2.17748
2.1616
2.14582
2.13016
2.11462
2.0992
2.08391
2.06876
2.05374
2.03886
2.02413
2.00954
1.99509
1.98079
1.96662
1.95259
1.93868
1.92487
1.91116
1.89752
1.88393
1.87037
1.8568
1.84319
1.8295
1.8157
1.80174
1.7876
1.77321
1.75856
1.7436
1.7283
1.71263
1.69655
1.68006
1.66313
1.64575
1.62791
1.60963
1.59089
1.57173
1.55216
1.5322
1.51189
1.49127
1.47039
1.4493
1.42807
1.40676
1.38545
1.36422
1.34318
1.32243
1.30206
1.28218
1.26286
1.24417
1.2261
1.2086
1.19158
1.17488
1.15833
1.14182
1.12518
1.10865
1.09162
1.07712
1.05299
2.7216
2.70367
2.68576
2.66785
2.64997
2.6321
2.61425
2.59642
2.57862
2.56085
2.54311
2.52541
2.50774
2.49012
2.47255
2.45502
2.43755
2.42013
2.40277
2.38548
2.36826
2.35111
2.33404
2.31705
2.30014
2.28332
2.26658
2.24993
2.23337
2.21692
2.20057
2.18434
2.16823
2.15225
2.1364
2.12069
2.10513
2.08971
2.07445
2.05934
2.0444
2.02961
2.01499
2.00052
1.98622
1.97206
1.95804
1.94416
1.93039
1.91673
1.90316
1.88965
1.87617
1.86271
1.84923
1.8357
1.82209
1.80835
1.79445
1.78035
1.76601
1.7514
1.73648
1.72122
1.70559
1.68957
1.67313
1.65625
1.63894
1.62117
1.60296
1.5843
1.56521
1.54571
1.52583
1.50558
1.48502
1.46418
1.4431
1.42185
1.40047
1.37902
1.35759
1.33623
1.31504
1.29408
1.27344
1.25321
1.23343
1.21417
1.19544
1.17724
1.15953
1.14228
1.12545
1.10896
1.09304
1.07704
1.06369
1.04182
2.72106
2.70305
2.68505
2.66705
2.64906
2.63108
2.61312
2.59517
2.57723
2.55932
2.54143
2.52358
2.50575
2.48796
2.47021
2.4525
2.43484
2.41724
2.39969
2.3822
2.36479
2.34744
2.33018
2.313
2.2959
2.27889
2.26198
2.24516
2.22844
2.21184
2.19535
2.17899
2.16276
2.14667
2.13072
2.11492
2.09928
2.0838
2.06848
2.05333
2.03835
2.02354
2.0089
1.99442
1.98011
1.96594
1.95192
1.93804
1.92427
1.9106
1.89701
1.88349
1.87
1.85652
1.84302
1.82947
1.81583
1.80206
1.78814
1.77402
1.75967
1.74505
1.73012
1.71487
1.69925
1.68325
1.66684
1.65001
1.63275
1.61505
1.5969
1.57833
1.55933
1.53993
1.52014
1.5
1.47955
1.45881
1.43783
1.41666
1.39536
1.37396
1.35255
1.33117
1.30989
1.28879
1.26794
1.2474
1.22724
1.20752
1.18829
1.16959
1.15143
1.13383
1.11682
1.10034
1.08462
1.06904
1.05615
1.03524
2.7208
2.70276
2.68472
2.66667
2.64863
2.6306
2.61257
2.59455
2.57655
2.55856
2.54059
2.52265
2.50473
2.48684
2.46899
2.45117
2.4334
2.41568
2.39801
2.3804
2.36285
2.34537
2.32797
2.31065
2.29342
2.27627
2.25922
2.24226
2.22542
2.20869
2.19207
2.17559
2.15924
2.14303
2.12697
2.11107
2.09532
2.07974
2.06433
2.04908
2.03401
2.01912
2.00439
1.98983
1.97543
1.96119
1.94709
1.93312
1.91927
1.90552
1.89186
1.87826
1.86469
1.85113
1.83755
1.82393
1.81022
1.79639
1.7824
1.76823
1.75383
1.73918
1.72423
1.70896
1.69335
1.67735
1.66097
1.64417
1.62696
1.60932
1.59125
1.57275
1.55385
1.53455
1.51488
1.49486
1.47453
1.45393
1.43309
1.41206
1.39089
1.36962
1.34833
1.32705
1.30586
1.28482
1.26399
1.24344
1.22322
1.2034
1.18405
1.16519
1.14689
1.12917
1.11209
1.0956
1.07995
1.06451
1.05176
1.03119
2.72065
2.70259
2.68452
2.66645
2.64838
2.63031
2.61225
2.59419
2.57614
2.55811
2.54009
2.52209
2.50412
2.48617
2.46825
2.45037
2.43252
2.41472
2.39697
2.37927
2.36163
2.34406
2.32656
2.30913
2.29179
2.27453
2.25737
2.24031
2.22335
2.2065
2.18978
2.17318
2.15671
2.14039
2.12421
2.10819
2.09233
2.07663
2.0611
2.04575
2.03056
2.01555
2.0007
1.98603
1.97151
1.95716
1.94294
1.92886
1.9149
1.90104
1.88726
1.87355
1.85987
1.84621
1.83253
1.8188
1.805
1.79109
1.77703
1.76279
1.74833
1.73363
1.71865
1.70336
1.68774
1.67175
1.65539
1.63862
1.62145
1.60387
1.58587
1.56746
1.54865
1.52946
1.50991
1.49002
1.46983
1.44937
1.42868
1.40781
1.3868
1.3657
1.34456
1.32345
1.30241
1.28152
1.26081
1.24037
1.22024
1.20049
1.18118
1.16234
1.14405
1.12633
1.10925
1.09277
1.07713
1.06173
1.04899
1.02845
2.72053
2.70245
2.68436
2.66627
2.64818
2.63009
2.612
2.59392
2.57584
2.55778
2.53972
2.52169
2.50367
2.48568
2.46771
2.44978
2.43188
2.41402
2.3962
2.37844
2.36073
2.34308
2.3255
2.30799
2.29056
2.27322
2.25596
2.2388
2.22174
2.20479
2.18796
2.17126
2.15469
2.13825
2.12196
2.10583
2.08985
2.07403
2.05838
2.0429
2.02758
2.01244
1.99747
1.98267
1.96803
1.95354
1.93919
1.92498
1.91089
1.8969
1.883
1.86916
1.85536
1.84159
1.8278
1.81397
1.80006
1.78606
1.77192
1.7576
1.74309
1.72834
1.71332
1.69801
1.68237
1.66639
1.65004
1.63331
1.61618
1.59865
1.58073
1.5624
1.54369
1.52461
1.50518
1.48542
1.46537
1.44505
1.42452
1.40381
1.38297
1.36205
1.3411
1.32016
1.29931
1.27858
1.25805
1.23776
1.21779
1.19817
1.17897
1.16023
1.14202
1.12435
1.10731
1.09085
1.07521
1.05979
1.04701
1.02635
2.72041
2.70232
2.68422
2.66612
2.64801
2.6299
2.61179
2.59368
2.57558
2.55749
2.53941
2.52134
2.50329
2.48526
2.46725
2.44928
2.43133
2.41342
2.39556
2.37774
2.35997
2.34226
2.32461
2.30703
2.28953
2.2721
2.25476
2.23752
2.22037
2.20333
2.1864
2.1696
2.15292
2.13638
2.11998
2.10373
2.08764
2.0717
2.05593
2.04032
2.02488
2.00962
1.99451
1.97958
1.9648
1.95018
1.9357
1.92135
1.90713
1.89301
1.87898
1.86501
1.85109
1.83719
1.82329
1.80935
1.79535
1.78125
1.76702
1.75264
1.73806
1.72326
1.7082
1.69286
1.67722
1.66123
1.6449
1.6282
1.61112
1.59365
1.57579
1.55755
1.53893
1.51996
1.50065
1.48102
1.46111
1.44095
1.42057
1.40003
1.37937
1.35862
1.33785
1.3171
1.29643
1.2759
1.25555
1.23544
1.21563
1.19616
1.1771
1.15849
1.14037
1.12278
1.10579
1.08935
1.0737
1.05824
1.04539
1.02455
2.72031
2.70221
2.68409
2.66597
2.64785
2.62972
2.61159
2.59346
2.57534
2.55722
2.53911
2.52102
2.50294
2.48488
2.46684
2.44882
2.43084
2.41289
2.39497
2.3771
2.35928
2.34151
2.3238
2.30616
2.28859
2.27109
2.25368
2.23635
2.21912
2.202
2.18498
2.16808
2.15131
2.13467
2.11817
2.10181
2.0856
2.06955
2.05366
2.03793
2.02237
2.00697
1.99174
1.97668
1.96177
1.94701
1.9324
1.91792
1.90356
1.88931
1.87515
1.86106
1.84702
1.833
1.81898
1.80493
1.79083
1.77664
1.76233
1.74787
1.73323
1.71838
1.70329
1.68792
1.67226
1.65628
1.63996
1.62329
1.60625
1.58884
1.57105
1.5529
1.53438
1.51551
1.49632
1.47682
1.45705
1.43704
1.41682
1.39645
1.37595
1.35539
1.3348
1.31424
1.29376
1.27341
1.25324
1.23331
1.21367
1.19436
1.17544
1.15695
1.13894
1.12143
1.10448
1.08806
1.07238
1.05687
1.04393
1.02286
2.7202
2.70209
2.68397
2.66583
2.64769
2.62955
2.6114
2.59325
2.57511
2.55697
2.53884
2.52072
2.50261
2.48452
2.46644
2.44839
2.43037
2.41238
2.39442
2.37651
2.35864
2.34082
2.32305
2.30535
2.28771
2.27015
2.25267
2.23527
2.21796
2.20076
2.18366
2.16667
2.1498
2.13307
2.11647
2.1
2.08369
2.06753
2.05152
2.03568
2.02
2.00448
1.98913
1.97393
1.95889
1.94401
1.92927
1.91466
1.90017
1.88579
1.8715
1.85729
1.84312
1.82899
1.81486
1.80071
1.78651
1.77223
1.75784
1.74331
1.72861
1.7137
1.69857
1.68318
1.66751
1.65154
1.63523
1.61859
1.60159
1.58424
1.56652
1.54845
1.53003
1.51127
1.4922
1.47283
1.4532
1.43334
1.41328
1.39307
1.37275
1.35236
1.33195
1.31157
1.29128
1.27111
1.25112
1.23136
1.21188
1.19273
1.17394
1.15557
1.13765
1.1202
1.10329
1.08687
1.07115
1.05556
1.04251
1.02118
2.7201
2.70198
2.68385
2.6657
2.64754
2.62938
2.61122
2.59306
2.57489
2.55673
2.53858
2.52043
2.5023
2.48417
2.46607
2.44799
2.42993
2.4119
2.39391
2.37595
2.35803
2.34016
2.32234
2.30458
2.28689
2.26926
2.25171
2.23425
2.21687
2.19959
2.18241
2.16534
2.14839
2.13156
2.11486
2.0983
2.08189
2.06562
2.04951
2.03355
2.01776
2.00212
1.98664
1.97133
1.95617
1.94116
1.92629
1.91156
1.89694
1.88244
1.86803
1.85369
1.83941
1.82517
1.81093
1.79668
1.78238
1.76801
1.75354
1.73894
1.72418
1.70923
1.69407
1.67865
1.66297
1.647
1.63072
1.61411
1.59716
1.57986
1.56222
1.54423
1.5259
1.50726
1.4883
1.46907
1.44958
1.42987
1.40997
1.38992
1.36977
1.34956
1.32933
1.30913
1.28901
1.26902
1.2492
1.22961
1.21028
1.19126
1.1726
1.15432
1.13648
1.11908
1.10217
1.08573
1.06995
1.05426
1.04108
1.01945
2.72001
2.70188
2.68373
2.66557
2.6474
2.62923
2.61105
2.59287
2.57469
2.55651
2.53833
2.52016
2.502
2.48385
2.46572
2.44761
2.42951
2.41145
2.39342
2.37542
2.35746
2.33954
2.32167
2.30386
2.28611
2.26843
2.25082
2.23328
2.21584
2.19848
2.18123
2.16408
2.14705
2.13013
2.11335
2.09669
2.08018
2.06382
2.0476
2.03154
2.01563
1.99989
1.9843
1.96887
1.95359
1.93846
1.92347
1.90861
1.89388
1.87926
1.86473
1.85028
1.83589
1.82153
1.80719
1.79284
1.77845
1.764
1.74945
1.73479
1.71997
1.70498
1.68978
1.67435
1.65866
1.6427
1.62644
1.60986
1.59296
1.57573
1.55817
1.54027
1.52205
1.50351
1.48468
1.46558
1.44624
1.42668
1.40694
1.38706
1.36708
1.34703
1.32698
1.30695
1.287
1.26718
1.24752
1.22807
1.20888
1.18999
1.17143
1.15323
1.13543
1.11805
1.10113
1.08464
1.06876
1.05294
1.0396
1.01766
2.71992
2.70178