/*--------------------------------*- C++ -*----------------------------------*\
  =========                 |
  \\      /  F ield         | OpenFOAM: The Open Source CFD Toolbox
   \\    /   O peration     | Website:  https://openfoam.org
    \\  /    A nd           | Version:  10
     \\/     M anipulation  |
\*---------------------------------------------------------------------------*/
FoamFile
{
    format      ascii;
    class       volScalarField;
    location    "0.185";
    object      k;
}
// * * * * * * * * * * * * * * * * * * * * * * * * * * * * * * * * * * * * * //

dimensions      [0 2 -2 0 0 0 0];

internalField   nonuniform List<scalar> 
6820
(
0.196709
0.190616
0.184994
0.179724
0.174798
0.17025
0.166114
0.162407
0.159125
0.156249
0.153752
0.151603
0.14977
0.14822
0.146924
0.145854
0.144985
0.144294
0.143761
0.143367
0.143096
0.142933
0.142866
0.142882
0.142972
0.143126
0.143333
0.14361
0.143836
0.14454
0.143228
0.151547
0.114875
0.201954
0.200832
0.197543
0.193922
0.190841
0.188585
0.187156
0.186432
0.186265
0.186521
0.187096
0.187907
0.188896
0.190017
0.191237
0.192529
0.193873
0.195254
0.196658
0.198075
0.199498
0.20092
0.202337
0.203746
0.205147
0.206541
0.207937
0.209349
0.210797
0.212422
0.213984
0.217321
0.218152
0.200488
0.200474
0.199117
0.19707
0.194841
0.19269
0.190724
0.188986
0.187489
0.186232
0.185206
0.184395
0.183779
0.18334
0.183057
0.182912
0.182889
0.182971
0.183146
0.183402
0.183727
0.184113
0.184551
0.185035
0.185559
0.186119
0.186713
0.187345
0.188007
0.188745
0.189476
0.190428
0.191199
0.199662
0.199121
0.198219
0.196983
0.195545
0.194012
0.192458
0.190931
0.189463
0.188073
0.186776
0.185577
0.184479
0.183482
0.182584
0.18178
0.181065
0.180435
0.179883
0.179404
0.178993
0.178644
0.178353
0.178115
0.177926
0.177784
0.177686
0.177632
0.177619
0.17766
0.177744
0.177899
0.178114
0.199429
0.198466
0.197531
0.196513
0.195399
0.194214
0.192986
0.19174
0.190495
0.189267
0.188068
0.186908
0.185793
0.184726
0.183712
0.182752
0.181845
0.180992
0.18019
0.17944
0.178739
0.178084
0.177475
0.176908
0.176383
0.175897
0.175448
0.175038
0.174663
0.174327
0.174029
0.173769
0.173547
0.199398
0.198268
0.197202
0.196166
0.195133
0.194088
0.193029
0.191958
0.190884
0.189812
0.18875
0.187703
0.186677
0.185676
0.184702
0.183759
0.182848
0.181969
0.181124
0.180312
0.179534
0.178789
0.178077
0.177396
0.176747
0.176128
0.175538
0.174978
0.174447
0.173944
0.173471
0.173025
0.172607
0.199395
0.19822
0.197098
0.196021
0.194978
0.193957
0.192952
0.191958
0.190973
0.189997
0.189031
0.188078
0.187139
0.186217
0.185313
0.184428
0.183565
0.182724
0.181906
0.181111
0.18034
0.179592
0.178869
0.178169
0.177493
0.17684
0.17621
0.175603
0.175019
0.174457
0.173918
0.173401
0.172905
0.199395
0.198211
0.197069
0.195969
0.194908
0.193881
0.192884
0.191912
0.190961
0.190029
0.189115
0.188217
0.187336
0.186471
0.185624
0.184793
0.18398
0.183185
0.182409
0.181651
0.180912
0.180191
0.17949
0.178807
0.178143
0.177498
0.176872
0.176264
0.175674
0.175103
0.17455
0.174015
0.173499
0.199395
0.198209
0.197063
0.195955
0.194884
0.19385
0.192848
0.191877
0.190934
0.190016
0.189123
0.188251
0.187399
0.186567
0.185755
0.18496
0.184183
0.183424
0.182683
0.181959
0.181251
0.180561
0.179887
0.17923
0.17859
0.177966
0.177357
0.176765
0.176189
0.175629
0.175084
0.174555
0.174042
0.199395
0.198209
0.197061
0.195951
0.194877
0.193838
0.192833
0.191859
0.190916
0.190001
0.189113
0.18825
0.18741
0.186593
0.185797
0.185022
0.184266
0.183529
0.18281
0.182109
0.181425
0.180758
0.180107
0.179472
0.178853
0.178249
0.177661
0.177087
0.176528
0.175984
0.175454
0.174938
0.174437
0.199395
0.198209
0.197061
0.19595
0.194875
0.193834
0.192827
0.191852
0.190907
0.189991
0.189104
0.188242
0.187406
0.186594
0.185806
0.185038
0.184292
0.183566
0.18286
0.182172
0.181502
0.180849
0.180213
0.179593
0.178989
0.1784
0.177826
0.177267
0.176723
0.176192
0.175676
0.175173
0.174684
0.199395
0.198209
0.19706
0.195949
0.194874
0.193833
0.192825
0.191849
0.190903
0.189987
0.189098
0.188237
0.187401
0.186591
0.185804
0.185039
0.184297
0.183576
0.182874
0.182192
0.181529
0.180883
0.180255
0.179644
0.179049
0.178469
0.177905
0.177356
0.176821
0.1763
0.175794
0.1753
0.17482
0.199395
0.198209
0.19706
0.195949
0.194873
0.193832
0.192824
0.191847
0.190901
0.189984
0.189095
0.188233
0.187398
0.186587
0.1858
0.185037
0.184295
0.183575
0.182876
0.182196
0.181536
0.180893
0.180269
0.179662
0.179071
0.178496
0.177937
0.177393
0.176864
0.176349
0.175848
0.17536
0.174886
0.199395
0.198209
0.19706
0.195949
0.194873
0.193831
0.192823
0.191846
0.1909
0.189982
0.189093
0.188231
0.187395
0.186584
0.185797
0.185034
0.184292
0.183573
0.182874
0.182195
0.181535
0.180894
0.180271
0.179665
0.179077
0.178504
0.177947
0.177406
0.176879
0.176367
0.175869
0.175384
0.174913
0.199395
0.198208
0.19706
0.195948
0.194872
0.193831
0.192822
0.191845
0.190899
0.189981
0.189092
0.18823
0.187393
0.186582
0.185795
0.185031
0.18429
0.18357
0.182871
0.182192
0.181533
0.180892
0.18027
0.179664
0.179076
0.178504
0.177949
0.177408
0.176882
0.176371
0.175874
0.175391
0.174921
0.199395
0.198208
0.19706
0.195948
0.194872
0.19383
0.192822
0.191844
0.190898
0.18998
0.189091
0.188228
0.187392
0.186581
0.185793
0.185029
0.184288
0.183568
0.182869
0.18219
0.18153
0.18089
0.180267
0.179662
0.179074
0.178502
0.177947
0.177407
0.176881
0.17637
0.175874
0.175391
0.174921
0.199395
0.198208
0.19706
0.195948
0.194872
0.19383
0.192821
0.191844
0.190897
0.189979
0.18909
0.188227
0.187391
0.186579
0.185792
0.185028
0.184286
0.183566
0.182867
0.182188
0.181528
0.180887
0.180265
0.17966
0.179072
0.1785
0.177944
0.177404
0.176879
0.176368
0.175871
0.175388
0.174918
0.199395
0.198208
0.19706
0.195948
0.194872
0.19383
0.192821
0.191843
0.190896
0.189978
0.189089
0.188226
0.187389
0.186578
0.18579
0.185026
0.184284
0.183564
0.182865
0.182186
0.181526
0.180885
0.180262
0.179657
0.179069
0.178497
0.177942
0.177401
0.176876
0.176365
0.175868
0.175384
0.174914
0.199395
0.198208
0.197059
0.195948
0.194871
0.193829
0.19282
0.191843
0.190896
0.189978
0.189088
0.188225
0.187388
0.186577
0.185789
0.185025
0.184283
0.183563
0.182863
0.182184
0.181524
0.180883
0.18026
0.179655
0.179067
0.178495
0.177939
0.177398
0.176873
0.176362
0.175864
0.175381
0.17491
0.199395
0.198208
0.197059
0.195948
0.194871
0.193829
0.19282
0.191842
0.190895
0.189977
0.189087
0.188224
0.187388
0.186576
0.185788
0.185024
0.184282
0.183561
0.182862
0.182182
0.181523
0.180881
0.180258
0.179653
0.179065
0.178493
0.177936
0.177396
0.17687
0.176359
0.175861
0.175377
0.174907
0.199395
0.198208
0.197059
0.195947
0.194871
0.193829
0.19282
0.191842
0.190895
0.189977
0.189087
0.188224
0.187387
0.186575
0.185787
0.185023
0.18428
0.18356
0.18286
0.182181
0.181521
0.18088
0.180257
0.179651
0.179062
0.17849
0.177934
0.177393
0.176867
0.176356
0.175858
0.175374
0.174903
0.199395
0.198208
0.197059
0.195947
0.194871
0.193829
0.19282
0.191842
0.190894
0.189976
0.189086
0.188223
0.187386
0.186574
0.185786
0.185022
0.184279
0.183559
0.182859
0.18218
0.181519
0.180878
0.180255
0.179649
0.179061
0.178488
0.177932
0.177391
0.176865
0.176353
0.175855
0.17537
0.174899
0.199395
0.198208
0.197059
0.195947
0.194871
0.193829
0.192819
0.191842
0.190894
0.189976
0.189086
0.188223
0.187385
0.186573
0.185785
0.185021
0.184278
0.183558
0.182858
0.182178
0.181518
0.180877
0.180253
0.179648
0.179059
0.178486
0.17793
0.177388
0.176862
0.17635
0.175852
0.175367
0.174896
0.199395
0.198208
0.197059
0.195947
0.194871
0.193829
0.192819
0.191841
0.190894
0.189976
0.189085
0.188222
0.187385
0.186573
0.185785
0.18502
0.184278
0.183557
0.182857
0.182177
0.181517
0.180875
0.180252
0.179646
0.179057
0.178484
0.177928
0.177386
0.17686
0.176347
0.175849
0.175364
0.174892
0.199395
0.198208
0.197059
0.195947
0.194871
0.193829
0.192819
0.191841
0.190894
0.189975
0.189085
0.188222
0.187385
0.186572
0.185784
0.185019
0.184277
0.183556
0.182856
0.182176
0.181516
0.180874
0.180251
0.179644
0.179055
0.178483
0.177926
0.177384
0.176857
0.176345
0.175846
0.175361
0.174889
0.199395
0.198208
0.197059
0.195947
0.194871
0.193828
0.192819
0.191841
0.190894
0.189975
0.189085
0.188221
0.187384
0.186572
0.185784
0.185019
0.184276
0.183555
0.182855
0.182175
0.181515
0.180873
0.180249
0.179643
0.179054
0.178481
0.177924
0.177382
0.176855
0.176343
0.175844
0.175359
0.174886
0.199395
0.198208
0.197059
0.195947
0.194871
0.193828
0.192819
0.191841
0.190893
0.189975
0.189085
0.188221
0.187384
0.186571
0.185783
0.185018
0.184276
0.183555
0.182855
0.182174
0.181514
0.180872
0.180248
0.179642
0.179053
0.17848
0.177922
0.17738
0.176853
0.17634
0.175842
0.175356
0.174884
0.199395
0.198208
0.197059
0.195947
0.194871
0.193828
0.192819
0.191841
0.190893
0.189975
0.189085
0.188221
0.187384
0.186571
0.185783
0.185018
0.184275
0.183554
0.182854
0.182174
0.181513
0.180871
0.180247
0.179641
0.179052
0.178478
0.177921
0.177379
0.176852
0.176339
0.17584
0.175354
0.174881
0.199395
0.198208
0.197059
0.195947
0.194871
0.193828
0.192819
0.191841
0.190893
0.189975
0.189084
0.188221
0.187383
0.186571
0.185783
0.185018
0.184275
0.183554
0.182854
0.182173
0.181513
0.180871
0.180247
0.17964
0.179051
0.178477
0.17792
0.177378
0.17685
0.176337
0.175838
0.175352
0.174879
0.199395
0.198208
0.197059
0.195947
0.194871
0.193829
0.192819
0.191841
0.190894
0.189975
0.189085
0.188221
0.187384
0.186572
0.185783
0.185018
0.184275
0.183554
0.182854
0.182174
0.181513
0.180871
0.180247
0.17964
0.17905
0.178477
0.177919
0.177377
0.176849
0.176336
0.175837
0.175351
0.174878
0.199395
0.198208
0.197059
0.195947
0.194871
0.193828
0.192819
0.191841
0.190893
0.189975
0.189084
0.188221
0.187384
0.186571
0.185783
0.185018
0.184275
0.183554
0.182854
0.182174
0.181513
0.180871
0.180246
0.17964
0.17905
0.178477
0.177919
0.177377
0.176849
0.176335
0.175836
0.17535
0.174876
0.199395
0.198208
0.197059
0.195948
0.194871
0.193829
0.19282
0.191843
0.190895
0.189977
0.189087
0.188224
0.187386
0.186574
0.185786
0.185021
0.184278
0.183557
0.182856
0.182176
0.181515
0.180873
0.180248
0.179642
0.179052
0.178478
0.17792
0.177378
0.17685
0.176336
0.175836
0.17535
0.174876
0.199395
0.198209
0.19706
0.195949
0.194872
0.19383
0.192821
0.191843
0.190896
0.189978
0.189087
0.188224
0.187387
0.186575
0.185787
0.185022
0.184279
0.183558
0.182858
0.182178
0.181517
0.180875
0.18025
0.179643
0.179053
0.178479
0.177921
0.177378
0.17685
0.176335
0.175835
0.175348
0.174874
0.199395
0.198208
0.19706
0.19595
0.194876
0.193835
0.192827
0.191851
0.190905
0.189987
0.189097
0.188234
0.187397
0.186585
0.185797
0.185031
0.184288
0.183567
0.182866
0.182184
0.181523
0.180879
0.180253
0.179645
0.179053
0.178478
0.177918
0.177373
0.176842
0.176326
0.175823
0.175333
0.174856
0.199395
0.198212
0.197066
0.195957
0.194882
0.193842
0.192834
0.191857
0.190911
0.189994
0.189104
0.188241
0.187404
0.186591
0.185802
0.185035
0.18429
0.183567
0.182863
0.182179
0.181513
0.180866
0.180236
0.179622
0.179025
0.178444
0.177878
0.177327
0.17679
0.176266
0.175756
0.175259
0.174774
0.199396
0.198213
0.197071
0.195969
0.194902
0.193869
0.192866
0.191893
0.190947
0.190029
0.189137
0.18827
0.187427
0.186607
0.185809
0.185032
0.184277
0.183541
0.182825
0.182127
0.181447
0.180784
0.180139
0.179509
0.178895
0.178297
0.177713
0.177144
0.176589
0.176047
0.175518
0.175003
0.174499
0.199402
0.19824
0.197114
0.196018
0.194952
0.193916
0.192908
0.191927
0.190972
0.19004
0.189132
0.188245
0.18738
0.186536
0.185713
0.184909
0.184124
0.183358
0.182611
0.181881
0.181169
0.180473
0.179794
0.179131
0.178483
0.177851
0.177233
0.17663
0.176041
0.175465
0.174902
0.174353
0.173816
0.199421
0.198284
0.197214
0.196182
0.195158
0.194136
0.193119
0.192111
0.191117
0.190142
0.189188
0.188256
0.187348
0.186463
0.1856
0.184761
0.183942
0.183145
0.182367
0.18161
0.18087
0.180149
0.179445
0.178758
0.178087
0.177432
0.176793
0.176168
0.175557
0.174961
0.174378
0.173808
0.173252
0.199655
0.198884
0.198077
0.197302
0.196603
0.195976
0.195404
0.19488
0.194396
0.19395
0.193539
0.193164
0.192822
0.192513
0.192235
0.191988
0.191769
0.191577
0.191411
0.19127
0.19115
0.191052
0.190974
0.190913
0.19087
0.190843
0.190831
0.190833
0.190848
0.190874
0.190912
0.190961
0.191019
0.205419
0.216602
0.227661
0.238502
0.249093
0.259416
0.269459
0.279213
0.288668
0.297819
0.306661
0.315193
0.323412
0.331321
0.338922
0.346218
0.353215
0.359918
0.366334
0.372469
0.378332
0.38393
0.389272
0.394366
0.399221
0.403846
0.40825
0.412441
0.416427
0.420217
0.42382
0.427243
0.430497
0.319106
0.640183
0.966788
1.25612
1.48794
1.65568
1.76382
1.82398
1.85007
1.85464
1.84713
1.83365
1.81775
1.80125
1.78506
1.76964
1.75528
1.74213
1.73032
1.71987
1.71074
1.70289
1.69625
1.69074
1.68627
1.68268
1.67976
1.67723
1.67478
1.67208
1.66879
1.66457
1.65909
1.65202
1.64301
1.63174
1.6179
1.60121
1.58143
1.55832
1.53174
1.50155
1.46771
1.43022
1.38915
1.34466
1.29696
1.24637
1.19325
1.13806
1.08133
1.02361
0.965555
0.907803
0.851025
0.795874
0.742962
0.692841
0.645977
0.602735
0.563369
0.528021
0.496726
0.469426
0.44599
0.426236
0.40995
0.39691
0.386903
0.379732
0.375226
0.373243
0.373665
0.376395
0.381345
0.38842
0.397506
0.408453
0.421054
0.435039
0.450061
0.465698
0.481454
0.49678
0.511085
0.523765
0.53422
0.541887
0.54625
0.54687
0.543392
0.53556
0.523238
0.50641
0.485222
0.459932
0.431145
0.39889
0.367802
0.316204
0.233424
0.265092
0.312408
0.375884
0.454833
0.546949
0.648288
0.753789
0.85805
0.956028
1.0438
1.11894
1.18061
1.22937
1.26683
1.29506
1.31621
1.33212
1.34418
1.35335
1.36023
1.36523
1.36865
1.37076
1.3718
1.37198
1.37138
1.37
1.36775
1.3645
1.36006
1.35423
1.34681
1.33757
1.32629
1.31275
1.29674
1.27805
1.25653
1.23206
1.20456
1.17401
1.14043
1.10393
1.06467
1.02288
0.978875
0.933012
0.88573
0.837515
0.7889
0.740451
0.692745
0.646356
0.601826
0.559648
0.520234
0.483906
0.450882
0.421271
0.39508
0.372227
0.352563
0.335889
0.321983
0.310616
0.301575
0.294666
0.28973
0.28664
0.285309
0.285679
0.287727
0.291452
0.296865
0.303984
0.312809
0.323312
0.335411
0.348956
0.363711
0.379348
0.39544
0.411478
0.426886
0.441048
0.453336
0.463142
0.469906
0.473138
0.472444
0.467542
0.458277
0.444633
0.426763
0.404967
0.379854
0.351592
0.324362
0.279477
0.192323
0.194799
0.19985
0.208192
0.220126
0.235931
0.256022
0.280887
0.31101
0.34672
0.387979
0.434175
0.484132
0.536305
0.589024
0.640723
0.690095
0.736139
0.778145
0.815653
0.848432
0.876478
0.900008
0.919416
0.935194
0.947833
0.957742
0.965204
0.970383
0.973351
0.974122
0.972684
0.969003
0.96303
0.954704
0.943956
0.930719
0.914939
0.896587
0.875667
0.852224
0.826346
0.798176
0.76791
0.735801
0.702155
0.66733
0.631727
0.595781
0.559948
0.52469
0.490458
0.457675
0.426715
0.397888
0.371423
0.347463
0.326064
0.307197
0.290766
0.276626
0.264596
0.254484
0.246098
0.23926
0.233811
0.229622
0.22659
0.22464
0.22373
0.223841
0.224985
0.227196
0.230531
0.235063
0.240875
0.248048
0.256648
0.266705
0.278194
0.29101
0.304952
0.31971
0.334861
0.349889
0.364201
0.377162
0.388133
0.396509
0.401749
0.403407
0.401156
0.39481
0.384337
0.369883
0.351765
0.330581
0.306612
0.283521
0.245738
0.178305
0.178499
0.178921
0.179788
0.181253
0.183433
0.186431
0.190355
0.195348
0.201603
0.209288
0.218636
0.229897
0.243289
0.258963
0.27698
0.29729
0.319715
0.343926
0.369435
0.395612
0.421744
0.447119
0.471124
0.493298
0.513343
0.531083
0.546424
0.559307
0.569701
0.577592
0.582994
0.585937
0.586462
0.584613
0.580435
0.573977
0.565301
0.55449
0.541652
0.526928
0.510493
0.492554
0.473357
0.453176
0.432315
0.411092
0.389835
0.368867
0.348494
0.328991
0.310592
0.293483
0.277793
0.263594
0.250904
0.239691
0.229886
0.221391
0.214095
0.20788
0.20263
0.19824
0.194615
0.191675
0.189358
0.187616
0.186418
0.185749
0.18561
0.186019
0.18701
0.188634
0.19096
0.194073
0.19807
0.203059
0.209146
0.216427
0.224967
0.234776
0.24579
0.257843
0.270654
0.283825
0.296851
0.309145
0.320083
0.329037
0.33543
0.338765
0.338666
0.334899
0.327402
0.316292
0.301876
0.284719
0.265169
0.246326
0.215696
0.173291
0.172979
0.17269
0.172477
0.172381
0.172438
0.172678
0.173126
0.173804
0.17474
0.175963
0.177493
0.179375
0.181669
0.184447
0.187787
0.191769
0.196474
0.201967
0.208286
0.215429
0.223339
0.231908
0.240982
0.250379
0.259897
0.269328
0.278457
0.287066
0.294942
0.301893
0.307755
0.312402
0.315744
0.317727
0.318327
0.317547
0.315421
0.312009
0.3074
0.301706
0.295066
0.287634
0.279579
0.271081
0.262323
0.253481
0.244721
0.236192
0.228019
0.220302
0.213112
0.206496
0.200473
0.195046
0.190198
0.1859
0.182116
0.178804
0.175921
0.173428
0.171284
0.169457
0.167918
0.166643
0.165618
0.164833
0.164285
0.16398
0.163932
0.164163
0.164708
0.165611
0.166927
0.168726
0.17109
0.174114
0.177901
0.182555
0.188175
0.194834
0.202562
0.211318
0.220971
0.231279
0.241882
0.252317
0.262039
0.270464
0.277018
0.281183
0.282543
0.280819
0.275902
0.267861
0.256965
0.243713
0.228468
0.213752
0.18991
0.172142
0.171611
0.171082
0.170569
0.170081
0.169631
0.169232
0.168895
0.16863
0.168442
0.168337
0.168314
0.168378
0.168536
0.168798
0.169181
0.1697
0.170378
0.171232
0.172282
0.17354
0.175012
0.176696
0.178581
0.180649
0.182874
0.185219
0.187641
0.190081
0.192477
0.194757
0.19685
0.198689
0.200213
0.20137
0.202118
0.202429
0.20229
0.201702
0.20068
0.199253
0.197464
0.195363
0.193007
0.190458
0.187777
0.185026
0.182258
0.179523
0.176863
0.174309
0.171888
0.169616
0.167504
0.165555
0.16377
0.162144
0.160669
0.159337
0.158138
0.15706
0.156096
0.155235
0.154472
0.153801
0.15322
0.152729
0.152335
0.152043
0.151868
0.151828
0.151946
0.152256
0.152796
0.153616
0.154775
0.156343
0.158399
0.161031
0.164327
0.168371
0.173229
0.178928
0.185439
0.192655
0.20037
0.208275
0.215967
0.222971
0.228786
0.232924
0.234968
0.234612
0.231701
0.22625
0.218461
0.208738
0.197406
0.186432
0.168611
0.172351
0.171726
0.171102
0.170481
0.169867
0.169263
0.168673
0.168102
0.167555
0.167036
0.166546
0.166089
0.165663
0.165271
0.164913
0.164591
0.164309
0.164072
0.163882
0.163746
0.163667
0.163647
0.163688
0.163788
0.163947
0.16416
0.164421
0.164722
0.165052
0.165397
0.16574
0.166063
0.166348
0.166577
0.166732
0.166798
0.166762
0.166614
0.166349
0.165967
0.165468
0.164862
0.164157
0.163367
0.162508
0.161594
0.160643
0.15967
0.158691
0.157719
0.156764
0.155837
0.154944
0.15409
0.153277
0.152508
0.15178
0.151094
0.150445
0.149831
0.149249
0.148695
0.148167
0.147662
0.147179
0.146719
0.146283
0.145875
0.145502
0.145171
0.144896
0.144693
0.144581
0.144589
0.144747
0.145096
0.145684
0.146565
0.147803
0.149466
0.151624
0.15434
0.157663
0.16161
0.16615
0.171189
0.176552
0.181982
0.187148
0.191664
0.195131
0.19718
0.197514
0.195958
0.192473
0.187186
0.180392
0.172342
0.164509
0.151667
0.172917
0.172262
0.171605
0.170948
0.170291
0.169637
0.168986
0.168341
0.167703
0.167075
0.166458
0.165854
0.165263
0.164686
0.164124
0.163578
0.163048
0.162535
0.162041
0.161568
0.161115
0.160684
0.160276
0.159891
0.159529
0.159188
0.158869
0.158569
0.158286
0.158017
0.15776
0.157508
0.157258
0.157004
0.156741
0.156464
0.156169
0.155852
0.155511
0.155145
0.154752
0.154334
0.153892
0.15343
0.152951
0.152458
0.151957
0.15145
0.150944
0.15044
0.149943
0.149454
0.148976
0.148509
0.148053
0.147607
0.14717
0.14674
0.146315
0.145892
0.145469
0.145043
0.144613
0.144177
0.143733
0.143282
0.142824
0.142363
0.1419
0.141442
0.140996
0.140572
0.140183
0.139845
0.139579
0.13941
0.13937
0.139495
0.139828
0.140417
0.141313
0.142568
0.144227
0.14632
0.148851
0.151786
0.155037
0.158458
0.161841
0.164927
0.167425
0.169047
0.169544
0.168746
0.166585
0.163121
0.158547
0.153029
0.147631
0.13864
0.173463
0.172808
0.17215
0.171491
0.17083
0.170168
0.169505
0.168842
0.16818
0.167521
0.166865
0.166214
0.165568
0.164927
0.164293
0.163666
0.163047
0.162436
0.161835
0.161244
0.160663
0.160093
0.159535
0.158989
0.158454
0.157931
0.15742
0.15692
0.156432
0.155956
0.15549
0.155035
0.154589
0.154151
0.15372
0.153294
0.152872
0.152454
0.152038
0.151623
0.15121
0.150799
0.150389
0.149982
0.149577
0.149176
0.14878
0.148389
0.148004
0.147625
0.147253
0.146886
0.146525
0.146168
0.145814
0.145461
0.145107
0.144748
0.144383
0.144009
0.143623
0.143222
0.142805
0.14237
0.141916
0.14144
0.140945
0.140429
0.139895
0.139346
0.138785
0.138218
0.137654
0.137102
0.136574
0.136087
0.135659
0.135315
0.135083
0.134994
0.135085
0.135393
0.135954
0.136798
0.13794
0.139375
0.141065
0.142934
0.144861
0.146685
0.148214
0.149247
0.149596
0.14912
0.147745
0.145482
0.142451
0.13874
0.1351
0.128921
0.173869
0.173227
0.172582
0.171933
0.171282
0.170628
0.169972
0.169314
0.168655
0.167996
0.167336
0.166677
0.16602
0.165363
0.16471
0.164059
0.163411
0.162767
0.162129
0.161496
0.160869
0.160249
0.159637
0.159031
0.158433
0.157843
0.157261
0.156687
0.156122
0.155566
0.15502
0.154485
0.15396
0.153445
0.152941
0.152447
0.151963
0.15149
0.151027
0.150574
0.150131
0.149698
0.149275
0.148863
0.148461
0.148068
0.147685
0.147311
0.146946
0.146589
0.146238
0.145893
0.145552
0.145214
0.144875
0.144534
0.144189
0.143836
0.143472
0.143095
0.142703
0.142292
0.14186
0.141406
0.140926
0.140421
0.139889
0.139331
0.138745
0.138134
0.1375
0.136845
0.136175
0.135494
0.134811
0.134135
0.133478
0.132854
0.132282
0.131782
0.131378
0.131096
0.130963
0.131003
0.131234
0.131663
0.132278
0.133043
0.133894
0.134737
0.135455
0.135916
0.135992
0.135577
0.134607
0.133069
0.131032
0.128528
0.126085
0.121862
0.17413
0.173502
0.172871
0.172237
0.171599
0.170959
0.170316
0.169671
0.169023
0.168373
0.167722
0.16707
0.166418
0.165765
0.165113
0.164461
0.16381
0.163161
0.162514
0.161871
0.161232
0.160596
0.159966
0.159341
0.158721
0.158107
0.157499
0.156897
0.156302
0.155716
0.155137
0.154569
0.15401
0.153461
0.152923
0.152397
0.151881
0.151377
0.150886
0.150407
0.14994
0.149485
0.149043
0.148613
0.148195
0.147789
0.147393
0.147008
0.146631
0.146263
0.145902
0.145546
0.145193
0.144842
0.14449
0.144134
0.143773
0.143403
0.143022
0.142626
0.142213
0.141781
0.141327
0.140849
0.140345
0.139813
0.139253
0.138662
0.138041
0.137391
0.136711
0.136003
0.135271
0.134516
0.133744
0.13296
0.132172
0.131389
0.130621
0.129882
0.129187
0.128553
0.128
0.127545
0.127205
0.12699
0.126901
0.126924
0.12703
0.127167
0.127269
0.127256
0.127045
0.126565
0.125766
0.124629
0.123191
0.121451
0.119781
0.116865
0.174276
0.17366
0.173041
0.172419
0.171794
0.171166
0.170535
0.169902
0.169267
0.168629
0.167989
0.167348
0.166706
0.166062
0.165418
0.164774
0.164129
0.163485
0.162843
0.162201
0.161563
0.160927
0.160295
0.159666
0.159041
0.158421
0.157805
0.157195
0.15659
0.155992
0.155401
0.154819
0.154246
0.153682
0.153128
0.152584
0.152051
0.15153
0.151021
0.150524
0.150039
0.149566
0.149106
0.148658
0.148221
0.147797
0.147382
0.146978
0.146583
0.146195
0.145814
0.145437
0.145064
0.144691
0.144317
0.14394
0.143557
0.143164
0.142761
0.142343
0.141908
0.141455
0.140979
0.14048
0.139954
0.139401
0.138818
0.138205
0.137561
0.136885
0.136178
0.13544
0.134672
0.133877
0.133056
0.132214
0.131355
0.130484
0.129609
0.128737
0.12788
0.127047
0.126251
0.125507
0.124826
0.124219
0.123691
0.12324
0.122856
0.122514
0.12218
0.121808
0.121351
0.120762
0.120008
0.11907
0.11797
0.116688
0.115495
0.113417
0.174348
0.17374
0.173129
0.172515
0.171899
0.17128
0.170658
0.170035
0.169409
0.168781
0.168151
0.167519
0.166886
0.166252
0.165617
0.164981
0.164345
0.163708
0.163072
0.162438
0.161804
0.161173
0.160544
0.159918
0.159295
0.158675
0.158059
0.157448
0.156841
0.15624
0.155646
0.155058
0.154479
0.153908
0.153345
0.152793
0.15225
0.151718
0.151197
0.150687
0.150188
0.149701
0.149226
0.148762
0.148309
0.147866
0.147434
0.147011
0.146596
0.146188
0.145787
0.145389
0.144994
0.1446
0.144204
0.143805
0.1434
0.142986
0.142562
0.142123
0.141669
0.141196
0.140702
0.140185
0.139643
0.139073
0.138475
0.137847
0.137187
0.136496
0.135772
0.135017
0.13423
0.133413
0.132568
0.131696
0.1308
0.129885
0.128955
0.128014
0.127071
0.126131
0.125205
0.1243
0.123426
0.122593
0.121806
0.12107
0.120383
0.119734
0.11911
0.118488
0.117841
0.117143
0.116376
0.115523
0.114599
0.113577
0.11266
0.111093
0.174379
0.173774
0.173167
0.172558
0.171947
0.171334
0.170718
0.1701
0.16948
0.168859
0.168235
0.167611
0.166984
0.166357
0.165729
0.1651
0.16447
0.16384
0.16321
0.162581
0.161953
0.161327
0.160702
0.16008
0.15946
0.158843
0.158229
0.157619
0.157013
0.156412
0.155817
0.155228
0.154645
0.154071
0.153504
0.152945
0.152396
0.151857
0.151327
0.150807
0.150298
0.1498
0.149312
0.148834
0.148367
0.14791
0.147462
0.147022
0.14659
0.146164
0.145744
0.145328
0.144914
0.1445
0.144085
0.143667
0.143243
0.142811
0.142369
0.141913
0.141443
0.140954
0.140445
0.139914
0.139359
0.138777
0.138168
0.137529
0.13686
0.136159
0.135426
0.134662
0.133865
0.133038
0.132181
0.131295
0.130384
0.129448
0.128492
0.127519
0.126534
0.125542
0.124549
0.123561
0.122586
0.121631
0.120702
0.119804
0.11894
0.118108
0.117304
0.116519
0.11574
0.114955
0.114154
0.113326
0.112486
0.111599
0.110833
0.10956
0.174388
0.173785
0.17318
0.172573
0.171964
0.171354
0.170741
0.170126
0.16951
0.168891
0.168272
0.167651
0.167028
0.166405
0.165781
0.165156
0.16453
0.163905
0.163279
0.162654
0.16203
0.161406
0.160785
0.160165
0.159548
0.158933
0.158321
0.157712
0.157107
0.156506
0.15591
0.15532
0.154736
0.154158
0.153588
0.153026
0.152472
0.151926
0.15139
0.150862
0.150345
0.149837
0.149339
0.14885
0.148371
0.147901
0.147439
0.146985
0.146538
0.146098
0.145662
0.14523
0.1448
0.14437
0.143939
0.143505
0.143066
0.142618
0.142161
0.141692
0.141208
0.140707
0.140186
0.139645
0.13908
0.138489
0.137872
0.137226
0.13655
0.135844
0.135107
0.134338
0.133538
0.132706
0.131845
0.130955
0.130037
0.129094
0.128129
0.127143
0.126141
0.125126
0.124103
0.123078
0.122054
0.121039
0.120038
0.119055
0.118096
0.117162
0.116254
0.115371
0.114508
0.113661
0.112827
0.111999
0.11119
0.110369
0.109677
0.108559
0.174388
0.173786
0.173181
0.172575
0.171967
0.171357
0.170745
0.170131
0.169516
0.168899
0.168281
0.167662
0.167041
0.166419
0.165797
0.165174
0.16455
0.163926
0.163302
0.162679
0.162056
0.161435
0.160814
0.160196
0.159579
0.158965
0.158353
0.157744
0.157139
0.156538
0.155941
0.155349
0.154763
0.154183
0.153609
0.153043
0.152484
0.151933
0.151391
0.150857
0.150332
0.149816
0.149309
0.148811
0.148321
0.14784
0.147367
0.146901
0.146442
0.145989
0.14554
0.145095
0.144651
0.144208
0.143764
0.143317
0.142864
0.142404
0.141935
0.141454
0.14096
0.140449
0.139919
0.139369
0.138797
0.1382
0.137577
0.136926
0.136247
0.135538
0.134798
0.134028
0.133227
0.132396
0.131534
0.130644
0.129727
0.128783
0.127817
0.126829
0.125823
0.124801
0.123769
0.122729
0.121686
0.120645
0.119611
0.118589
0.117584
0.116598
0.115636
0.114699
0.113787
0.112901
0.112041
0.111204
0.110404
0.109607
0.108947
0.107901
0.174385
0.173783
0.173178
0.172571
0.171963
0.171353
0.170741
0.170127
0.169512
0.168895
0.168277
0.167658
0.167037
0.166416
0.165793
0.16517
0.164547
0.163923
0.163299
0.162676
0.162053
0.161431
0.160811
0.160192
0.159574
0.158959
0.158346
0.157736
0.15713
0.156527
0.155928
0.155334
0.154745
0.154161
0.153584
0.153014
0.15245
0.151894
0.151346
0.150805
0.150273
0.14975
0.149235
0.148728
0.14823
0.147739
0.147256
0.14678
0.146311
0.145846
0.145386
0.144929
0.144475
0.14402
0.143565
0.143106
0.142643
0.142173
0.141694
0.141204
0.1407
0.140181
0.139645
0.139088
0.13851
0.137908
0.137281
0.136628
0.135946
0.135236
0.134496
0.133726
0.132926
0.132096
0.131236
0.130349
0.129435
0.128495
0.127531
0.126546
0.125542
0.124523
0.12349
0.122449
0.121402
0.120354
0.11931
0.118273
0.117248
0.116241
0.115253
0.114289
0.113352
0.112444
0.111567
0.11072
0.109917
0.109126
0.108473
0.107451
0.174381
0.173778
0.173173
0.172566
0.171957
0.171346
0.170734
0.170119
0.169503
0.168886
0.168267
0.167647
0.167026
0.166404
0.16578
0.165157
0.164532
0.163908
0.163283
0.162659
0.162035
0.161411
0.160789
0.160169
0.159549
0.158932
0.158317
0.157705
0.157096
0.15649
0.155888
0.155291
0.154698
0.154111
0.15353
0.152955
0.152386
0.151825
0.15127
0.150724
0.150185
0.149655
0.149132
0.148617
0.148111
0.147612
0.14712
0.146634
0.146155
0.145681
0.145211
0.144745
0.14428
0.143816
0.14335
0.142882
0.14241
0.141931
0.141443
0.140945
0.140434
0.139908
0.139366
0.138804
0.138221
0.137616
0.136986
0.13633
0.135647
0.134937
0.134197
0.133428
0.13263
0.131802
0.130947
0.130063
0.129153
0.128218
0.12726
0.12628
0.125282
0.124268
0.123241
0.122203
0.12116
0.120114
0.11907
0.118031
0.117002
0.115988
0.114991
0.114017
0.113068
0.112148
0.11126
0.110404
0.109594
0.108799
0.108143
0.107117
0.174377
0.173773
0.173168
0.17256
0.17195
0.171339
0.170725
0.17011
0.169494
0.168875
0.168255
0.167634
0.167012
0.166389
0.165764
0.165139
0.164513
0.163887
0.163261
0.162635
0.162009
0.161384
0.160759
0.160136
0.159515
0.158895
0.158277
0.157662
0.157049
0.15644
0.155835
0.155234
0.154637
0.154045
0.153459
0.152879
0.152305
0.151738
0.151178
0.150625
0.15008
0.149542
0.149013
0.14849
0.147976
0.147468
0.146968
0.146474
0.145986
0.145503
0.145025
0.144549
0.144075
0.143602
0.143128
0.142652
0.142171
0.141684
0.141189
0.140683
0.140166
0.139634
0.139086
0.13852
0.137934
0.137325
0.136693
0.136036
0.135352
0.134641
0.133902
0.133135
0.132339
0.131515
0.130663
0.129783
0.128878
0.127949
0.126996
0.126023
0.125032
0.124025
0.123005
0.121975
0.120938
0.119898
0.118859
0.117824
0.116798
0.115784
0.114787
0.113809
0.112856
0.11193
0.111036
0.110172
0.109353
0.108549
0.107883
0.106839
0.174373
0.173769
0.173162
0.172554
0.171944
0.171331
0.170717
0.170101
0.169484
0.168864
0.168243
0.167621
0.166997
0.166373
0.165747
0.16512
0.164493
0.163865
0.163237
0.162609
0.161981
0.161353
0.160726
0.1601
0.159476
0.158853
0.158232
0.157614
0.156998
0.156385
0.155775
0.15517
0.154569
0.153973
0.153382
0.152796
0.152217
0.151644
0.151078
0.150519
0.149967
0.149423
0.148886
0.148356
0.147834
0.147319
0.14681
0.146308
0.145812
0.145321
0.144834
0.14435
0.143868
0.143386
0.142904
0.14242
0.141931
0.141437
0.140935
0.140423
0.1399
0.139363
0.13881
0.138239
0.13765
0.137038
0.136404
0.135746
0.135061
0.134351
0.133613
0.132847
0.132053
0.131232
0.130383
0.129508
0.128608
0.127684
0.126738
0.125771
0.124787
0.123787
0.122774
0.121752
0.120723
0.11969
0.118658
0.117629
0.116608
0.115598