/*--------------------------------*- C++ -*----------------------------------*\
  =========                 |
  \\      /  F ield         | OpenFOAM: The Open Source CFD Toolbox
   \\    /   O peration     | Website:  https://openfoam.org
    \\  /    A nd           | Version:  10
     \\/     M anipulation  |
\*---------------------------------------------------------------------------*/
FoamFile
{
    format      ascii;
    class       volScalarField;
    location    "0.185";
    object      p;
}
// * * * * * * * * * * * * * * * * * * * * * * * * * * * * * * * * * * * * * //

dimensions      [0 2 -2 0 0 0 0];

internalField   nonuniform List<scalar> 
6820
(
-8.14917
-9.51319
-9.92656
-10.0218
-10.1025
-10.1536
-10.1842
-10.2082
-10.2287
-10.2467
-10.2632
-10.2788
-10.2936
-10.3078
-10.3215
-10.3348
-10.3476
-10.3601
-10.3721
-10.3837
-10.3948
-10.4053
-10.4151
-10.4239
-10.4314
-10.4371
-10.4401
-10.4389
-10.4312
-10.4103
-10.3699
-10.2823
-10.0721
-10.9493
-10.5449
-10.2508
-10.1553
-10.1565
-10.173
-10.1908
-10.2101
-10.2291
-10.2468
-10.2632
-10.2787
-10.2933
-10.3072
-10.3205
-10.3334
-10.3458
-10.3578
-10.3694
-10.3807
-10.3914
-10.4016
-10.4112
-10.42
-10.4276
-10.4339
-10.4382
-10.4404
-10.4377
-10.4366
-10.4183
-10.4525
-10.4409
-9.80634
-9.67809
-9.90294
-10.0404
-10.1018
-10.1459
-10.1776
-10.2026
-10.2238
-10.2424
-10.2592
-10.2749
-10.2897
-10.3039
-10.3176
-10.3308
-10.3436
-10.356
-10.368
-10.3797
-10.3908
-10.4015
-10.4115
-10.4208
-10.429
-10.4361
-10.4414
-10.4449
-10.4453
-10.445
-10.4382
-10.4457
-10.4371
-10.1729
-10.1896
-10.1651
-10.1422
-10.1501
-10.1703
-10.19
-10.2089
-10.2271
-10.2443
-10.2604
-10.2758
-10.2904
-10.3044
-10.318
-10.331
-10.3437
-10.356
-10.368
-10.3795
-10.3907
-10.4013
-10.4115
-10.421
-10.4297
-10.4375
-10.4442
-10.4501
-10.4545
-10.4605
-10.4657
-10.4871
-10.515
-10.063
-10.009
-10.0528
-10.0974
-10.1323
-10.1621
-10.1864
-10.2074
-10.2265
-10.244
-10.2602
-10.2755
-10.29
-10.304
-10.3175
-10.3306
-10.3433
-10.3557
-10.3677
-10.3794
-10.3907
-10.4016
-10.4121
-10.4221
-10.4315
-10.4403
-10.4485
-10.4564
-10.4642
-10.4739
-10.4857
-10.5081
-10.5388
-10.1037
-10.0968
-10.1151
-10.132
-10.1501
-10.1712
-10.1916
-10.2105
-10.2284
-10.2451
-10.2609
-10.276
-10.2904
-10.3043
-10.3177
-10.3308
-10.3435
-10.3558
-10.3679
-10.3796
-10.3911
-10.4022
-10.4129
-10.4234
-10.4334
-10.4432
-10.4528
-10.4626
-10.4732
-10.4861
-10.5022
-10.5265
-10.5594
-10.103
-10.0922
-10.1069
-10.1283
-10.1501
-10.1722
-10.1928
-10.2116
-10.2292
-10.2457
-10.2613
-10.2762
-10.2906
-10.3044
-10.3177
-10.3308
-10.3435
-10.3558
-10.368
-10.3798
-10.3914
-10.4028
-10.4139
-10.4248
-10.4355
-10.4462
-10.4571
-10.4686
-10.4813
-10.4964
-10.5149
-10.5396
-10.571
-10.1127
-10.1096
-10.1226
-10.1404
-10.1584
-10.1775
-10.1961
-10.2138
-10.2306
-10.2467
-10.262
-10.2767
-10.2908
-10.3045
-10.3178
-10.3308
-10.3435
-10.3559
-10.3681
-10.38
-10.3918
-10.4034
-10.4148
-10.4262
-10.4376
-10.4491
-10.4611
-10.4739
-10.4881
-10.5047
-10.5244
-10.5488
-10.5783
-10.1213
-10.1201
-10.1305
-10.1461
-10.163
-10.1809
-10.1987
-10.2157
-10.232
-10.2476
-10.2626
-10.2771
-10.291
-10.3046
-10.3178
-10.3308
-10.3434
-10.3559
-10.3681
-10.3802
-10.3921
-10.4039
-10.4157
-10.4275
-10.4394
-10.4517
-10.4645
-10.4784
-10.4936
-10.511
-10.5312
-10.5548
-10.5823
-10.1299
-10.1304
-10.1396
-10.1536
-10.1689
-10.1853
-10.2018
-10.2179
-10.2336
-10.2487
-10.2633
-10.2775
-10.2913
-10.3047
-10.3179
-10.3307
-10.3434
-10.3558
-10.3681
-10.3803
-10.3924
-10.4044
-10.4164
-10.4286
-10.441
-10.4539
-10.4674
-10.4819
-10.4978
-10.5156
-10.5357
-10.5584
-10.5839
-10.1382
-10.1395
-10.1477
-10.1602
-10.1741
-10.1893
-10.2048
-10.2201
-10.2352
-10.2498
-10.2641
-10.278
-10.2916
-10.3049
-10.3179
-10.3307
-10.3433
-10.3557
-10.3681
-10.3803
-10.3925
-10.4047
-10.417
-10.4295
-10.4423
-10.4555
-10.4695
-10.4845
-10.5007
-10.5185
-10.5382
-10.5599
-10.5836
-10.1462
-10.148
-10.1554
-10.1666
-10.1794
-10.1934
-10.2079
-10.2224
-10.2369
-10.251
-10.2649
-10.2785
-10.2919
-10.305
-10.3179
-10.3306
-10.3431
-10.3556
-10.3679
-10.3802
-10.3925
-10.4048
-10.4173
-10.43
-10.4431
-10.4567
-10.4709
-10.4861
-10.5024
-10.52
-10.5392
-10.5598
-10.5819
-10.1538
-10.1557
-10.1625
-10.1726
-10.1843
-10.1973
-10.2109
-10.2247
-10.2386
-10.2523
-10.2658
-10.2791
-10.2922
-10.3051
-10.3179
-10.3305
-10.3429
-10.3553
-10.3677
-10.38
-10.3923
-10.4048
-10.4174
-10.4303
-10.4435
-10.4572
-10.4716
-10.4868
-10.503
-10.5203
-10.5387
-10.5583
-10.579
-10.161
-10.1629
-10.1691
-10.1782
-10.1891
-10.2011
-10.2139
-10.227
-10.2403
-10.2535
-10.2666
-10.2796
-10.2925
-10.3052
-10.3178
-10.3302
-10.3426
-10.355
-10.3673
-10.3796
-10.392
-10.4045
-10.4172
-10.4301
-10.4434
-10.4572
-10.4716
-10.4867
-10.5026
-10.5194
-10.5371
-10.5557
-10.575
-10.1676
-10.1694
-10.1752
-10.1835
-10.1935
-10.2047
-10.2168
-10.2292
-10.2419
-10.2547
-10.2674
-10.2801
-10.2927
-10.3052
-10.3176
-10.33
-10.3423
-10.3545
-10.3668
-10.3791
-10.3914
-10.4039
-10.4166
-10.4296
-10.4429
-10.4566
-10.4709
-10.4857
-10.5013
-10.5175
-10.5345
-10.552
-10.5701
-10.1737
-10.1755
-10.1808
-10.1884
-10.1977
-10.2082
-10.2195
-10.2314
-10.2435
-10.2558
-10.2682
-10.2805
-10.2929
-10.3051
-10.3174
-10.3296
-10.3417
-10.3539
-10.3661
-10.3783
-10.3906
-10.4031
-10.4157
-10.4286
-10.4418
-10.4554
-10.4695
-10.484
-10.4991
-10.5147
-10.5309
-10.5475
-10.5644
-10.1793
-10.1809
-10.1859
-10.193
-10.2016
-10.2114
-10.2221
-10.2333
-10.245
-10.2568
-10.2688
-10.2809
-10.2929
-10.305
-10.317
-10.3291
-10.3411
-10.3531
-10.3652
-10.3773
-10.3895
-10.4019
-10.4144
-10.4272
-10.4403
-10.4536
-10.4674
-10.4815
-10.4961
-10.5111
-10.5264
-10.5421
-10.5581
-10.1843
-10.1859
-10.1905
-10.1971
-10.2051
-10.2143
-10.2244
-10.2351
-10.2463
-10.2577
-10.2694
-10.2811
-10.2929
-10.3047
-10.3166
-10.3284
-10.3403
-10.3522
-10.3641
-10.3761
-10.3882
-10.4004
-10.4128
-10.4254
-10.4382
-10.4513
-10.4647
-10.4784
-10.4924
-10.5067
-10.5213
-10.5361
-10.551
-10.1889
-10.1903
-10.1946
-10.2007
-10.2082
-10.2169
-10.2265
-10.2367
-10.2475
-10.2585
-10.2698
-10.2812
-10.2927
-10.3043
-10.3159
-10.3276
-10.3393
-10.351
-10.3628
-10.3746
-10.3865
-10.3986
-10.4108
-10.4231
-10.4356
-10.4484
-10.4613
-10.4746
-10.488
-10.5016
-10.5154
-10.5294
-10.5433
-10.1928
-10.1942
-10.1982
-10.2039
-10.211
-10.2192
-10.2283
-10.2381
-10.2484
-10.2591
-10.27
-10.2811
-10.2924
-10.3037
-10.3151
-10.3266
-10.3381
-10.3496
-10.3612
-10.3729
-10.3846
-10.3964
-10.4083
-10.4204
-10.4326
-10.4449
-10.4575
-10.4702
-10.483
-10.4959
-10.509
-10.5221
-10.5352
-10.1963
-10.1976
-10.2013
-10.2067
-10.2134
-10.2211
-10.2298
-10.2392
-10.2491
-10.2594
-10.27
-10.2809
-10.2919
-10.303
-10.3141
-10.3254
-10.3367
-10.348
-10.3594
-10.3708
-10.3823
-10.3939
-10.4055
-10.4173
-10.4291
-10.441
-10.4531
-10.4652
-10.4774
-10.4897
-10.502
-10.5143
-10.5265
-10.1991
-10.2003
-10.2039
-10.209
-10.2153
-10.2227
-10.231
-10.24
-10.2495
-10.2595
-10.2698
-10.2804
-10.2911
-10.302
-10.3129
-10.3239
-10.335
-10.3461
-10.3573
-10.3685
-10.3797
-10.391
-10.4023
-10.4137
-10.4252
-10.4367
-10.4482
-10.4598
-10.4714
-10.483
-10.4945
-10.506
-10.5174
-10.2014
-10.2026
-10.2059
-10.2107
-10.2167
-10.2238
-10.2318
-10.2404
-10.2497
-10.2594
-10.2694
-10.2797
-10.2902
-10.3008
-10.3115
-10.3223
-10.3332
-10.344
-10.3549
-10.3659
-10.3768
-10.3878
-10.3988
-10.4098
-10.4208
-10.4319
-10.4429
-10.4539
-10.4649
-10.4758
-10.4866
-10.4974
-10.5079
-10.2031
-10.2042
-10.2073
-10.2119
-10.2177
-10.2244
-10.2321
-10.2405
-10.2494
-10.2588
-10.2686
-10.2787
-10.2889
-10.2993
-10.3098
-10.3203
-10.331
-10.3416
-10.3523
-10.3629
-10.3736
-10.3842
-10.3949
-10.4055
-10.4161
-10.4266
-10.4372
-10.4476
-10.458
-10.4682
-10.4783
-10.4883
-10.4981
-10.2042
-10.2052
-10.2082
-10.2126
-10.2181
-10.2247
-10.2321
-10.2402
-10.2489
-10.2581
-10.2677
-10.2775
-10.2875
-10.2977
-10.3079
-10.3183
-10.3286
-10.339
-10.3494
-10.3598
-10.3701
-10.3805
-10.3907
-10.4009
-10.4111
-10.4212
-10.4311
-10.441
-10.4508
-10.4604
-10.4698
-10.479
-10.4881
-10.2046
-10.2056
-10.2085
-10.2126
-10.2179
-10.2242
-10.2314
-10.2393
-10.2477
-10.2567
-10.266
-10.2756
-10.2855
-10.2954
-10.3055
-10.3156
-10.3258
-10.3359
-10.3461
-10.3562
-10.3662
-10.3762
-10.3861
-10.3959
-10.4056
-10.4152
-10.4247
-10.434
-10.4432
-10.4521
-10.4609
-10.4695
-10.4778
-10.2044
-10.2054
-10.2082
-10.2123
-10.2174
-10.2236
-10.2307
-10.2384
-10.2468
-10.2555
-10.2647
-10.2741
-10.2838
-10.2935
-10.3034
-10.3133
-10.3232
-10.3331
-10.3429
-10.3527
-10.3624
-10.372
-10.3815
-10.3909
-10.4002
-10.4093
-10.4182
-10.427
-10.4355
-10.4439
-10.452
-10.4599
-10.4675
-10.2035
-10.2043
-10.2068
-10.2106
-10.2154
-10.2214
-10.2282
-10.2357
-10.2439
-10.2526
-10.2617
-10.271
-10.2805
-10.2902
-10.2999
-10.3096
-10.3194
-10.3291
-10.3387
-10.3482
-10.3577
-10.367
-10.3762
-10.3852
-10.394
-10.4027
-10.4111
-10.4194
-10.4274
-10.4352
-10.4427
-10.45
-10.4569
-10.202
-10.203
-10.2058
-10.2098
-10.2148
-10.2208
-10.2277
-10.2352
-10.2433
-10.2518
-10.2607
-10.2698
-10.2791
-10.2885
-10.298
-10.3075
-10.3169
-10.3263
-10.3356
-10.3448
-10.3539
-10.3628
-10.3715
-10.3801
-10.3885
-10.3966
-10.4046
-10.4123
-10.4197
-10.4269
-10.4338
-10.4404
-10.4467
-10.1992
-10.1994
-10.2012
-10.2043
-10.2088
-10.2145
-10.2212
-10.2288
-10.237
-10.2457
-10.2547
-10.264
-10.2735
-10.283
-10.2925
-10.3021
-10.3115
-10.3209
-10.3301
-10.3391
-10.348
-10.3568
-10.3653
-10.3736
-10.3816
-10.3894
-10.397
-10.4042
-10.4112
-10.4179
-10.4243
-10.4304
-10.4361
-10.1974
-10.1994
-10.2027
-10.2068
-10.2117
-10.2176
-10.2242
-10.2315
-10.2394
-10.2477
-10.2563
-10.2651
-10.2741
-10.2831
-10.2922
-10.3013
-10.3103
-10.3191
-10.3279
-10.3365
-10.3449
-10.3531
-10.3612
-10.3689
-10.3765
-10.3837
-10.3907
-10.3974
-10.4039
-10.41
-10.4157
-10.4212
-10.4263
-10.1895
-10.1874
-10.1872
-10.1896
-10.1941
-10.2003
-10.2078
-10.2161
-10.225
-10.2344
-10.244
-10.2538
-10.2636
-10.2733
-10.283
-10.2926
-10.302
-10.3112
-10.3202
-10.329
-10.3375
-10.3457
-10.3537
-10.3614
-10.3688
-10.3758
-10.3826
-10.389
-10.3951
-10.4009
-10.4063
-10.4113
-10.416
-10.1956
-10.2011
-10.2054
-10.2085
-10.2123
-10.2172
-10.223
-10.2296
-10.2369
-10.2446
-10.2527
-10.261
-10.2695
-10.2781
-10.2867
-10.2953
-10.3037
-10.3121
-10.3203
-10.3283
-10.3361
-10.3436
-10.3509
-10.3579
-10.3647
-10.3711
-10.3773
-10.3831
-10.3886
-10.3937
-10.3985
-10.4029
-10.407
-10.1661
-10.1549
-10.1517
-10.1557
-10.1633
-10.1726
-10.1829
-10.1939
-10.2052
-10.2166
-10.2279
-10.239
-10.2499
-10.2606
-10.2709
-10.281
-10.2907
-10.3001
-10.3092
-10.3179
-10.3263
-10.3343
-10.3419
-10.3492
-10.3561
-10.3627
-10.3688
-10.3746
-10.38
-10.385
-10.3896
-10.3938
-10.3977
-10.2141
-10.2304
-10.2319
-10.2263
-10.224
-10.225
-10.2281
-10.2325
-10.238
-10.2444
-10.2513
-10.2587
-10.2664
-10.2742
-10.2821
-10.29
-10.2978
-10.3055
-10.3131
-10.3204
-10.3276
-10.3344
-10.3411
-10.3474
-10.3534
-10.3591
-10.3645
-10.3695
-10.3742
-10.3785
-10.3825
-10.3861
-10.3893
-10.1043
-10.0661
-10.0604
-10.0843
-10.1048
-10.1231
-10.1414
-10.1589
-10.1754
-10.191
-10.2057
-10.2195
-10.2326
-10.245
-10.2568
-10.2679
-10.2784
-10.2884
-10.2979
-10.3069
-10.3154
-10.3235
-10.3311
-10.3382
-10.3449
-10.3511
-10.3569
-10.3622
-10.3671
-10.3716
-10.3756
-10.3792
-10.3823
-10.3169
-10.3415
-10.3126
-10.2758
-10.2526
-10.2447
-10.2416
-10.2411
-10.2431
-10.2468
-10.2517
-10.2575
-10.2638
-10.2705
-10.2774
-10.2845
-10.2915
-10.2985
-10.3054
-10.3121
-10.3186
-10.3249
-10.331
-10.3367
-10.3421
-10.3472
-10.352
-10.3565
-10.3605
-10.3642
-10.3676
-10.3706
-10.3732
-9.9013
-9.81951
-9.87659
-9.95745
-10.014
-10.0527
-10.0863
-10.1156
-10.1409
-10.163
-10.1827
-10.2004
-10.2164
-10.2311
-10.2446
-10.2571
-10.2687
-10.2795
-10.2895
-10.2989
-10.3077
-10.3159
-10.3235
-10.3306
-10.3371
-10.3431
-10.3487
-10.3537
-10.3582
-10.3623
-10.3659
-10.369
-10.3717
-10.8779
-10.5999
-10.3942
-10.3031
-10.2661
-10.2455
-10.233
-10.2276
-10.2271
-10.2294
-10.2338
-10.2394
-10.2459
-10.2529
-10.2602
-10.2677
-10.2751
-10.2825
-10.2898
-10.2968
-10.3036
-10.3102
-10.3164
-10.3223
-10.3279
-10.3331
-10.3379
-10.3424
-10.3465
-10.3501
-10.3534
-10.3563
-10.3588
-8.9199
-9.48151
-9.78625
-9.90238
-9.98408
-10.0477
-10.0929
-10.1271
-10.1548
-10.1775
-10.1967
-10.2133
-10.2281
-10.2413
-10.2535
-10.2646
-10.275
-10.2846
-10.2936
-10.302
-10.3098
-10.3171
-10.3239
-10.3302
-10.3361
-10.3414
-10.3463
-10.3507
-10.3547
-10.3582
-10.3613
-10.3639
-10.3661
-9.98426
-10.6234
-10.6801
-10.7329
-10.843
-10.9196
-10.9751
-11.0233
-11.07
-11.1182
-11.1696
-11.2244
-11.2812
-11.3385
-11.3948
-11.4491
-11.5008
-11.5498
-11.5957
-11.638
-11.6762
-11.7095
-11.7371
-11.7582
-11.7723
-11.7789
-11.7776
-11.768
-11.7493
-11.7209
-11.6821
-11.632
-11.57
-11.4952
-11.4071
-11.3049
-11.1882
-11.0563
-10.909
-10.7458
-10.5666
-10.3712
-10.1596
-9.93203
-9.68879
-9.43034
-9.15733
-8.87057
-8.57102
-8.25982
-7.93825
-7.60774
-7.26986
-6.92628
-6.57877
-6.22917
-5.87935
-5.53121
-5.18661
-4.84736
-4.51521
-4.19179
-3.87858
-3.57695
-3.28806
-3.0129
-2.75228
-2.50679
-2.27684
-2.06267
-1.86432
-1.68166
-1.51445
-1.3623
-1.2247
-1.10107
-0.990738
-0.892967
-0.806972
-0.731922
-0.666949
-0.611149
-0.56359
-0.523308
-0.48932
-0.460604
-0.436151
-0.414872
-0.395789
-0.377696
-0.359825
-0.340604
-0.320038
-0.295232
-0.268823
-0.233168
-0.199831
-0.144567
-0.109468
-0.014448
-10.8117
-11.1034
-11.0065
-10.9469
-10.9345
-10.939
-10.9514
-10.9759
-11.0123
-11.0591
-11.1142
-11.1744
-11.2367
-11.2983
-11.3575
-11.4133
-11.4652
-11.5135
-11.5582
-11.599
-11.6357
-11.6675
-11.6936
-11.7134
-11.7262
-11.7316
-11.7292
-11.7183
-11.6986
-11.6692
-11.6294
-11.5785
-11.5158
-11.4405
-11.3519
-11.2496
-11.1329
-11.0013
-10.8544
-10.692
-10.5138
-10.3197
-10.1098
-9.88413
-9.64311
-9.38719
-9.11701
-8.83335
-8.53718
-8.2296
-7.91186
-7.58535
-7.25159
-6.91222
-6.56894
-6.22355
-5.87786
-5.53373
-5.19297
-4.85736
-4.5286
-4.2083
-3.89794
-3.59884
-3.31216
-3.03889
-2.7798
-2.53551
-2.30642
-2.09278
-1.89462
-1.71187
-1.54427
-1.39146
-1.25297
-1.12823
-1.01661
-0.917398
-0.829844
-0.753149
-0.686477
-0.628954
-0.579677
-0.537707
-0.502084
-0.471804
-0.445867
-0.423201
-0.402821
-0.383549
-0.36456
-0.344396
-0.32282
-0.297425
-0.269843
-0.234501
-0.198695
-0.147172
-0.103006
-0.027681
-10.5056
-10.6434
-10.6902
-10.7372
-10.8068
-10.8702
-10.9202
-10.965
-11.009
-11.0543
-11.1024
-11.1534
-11.2067
-11.2609
-11.3146
-11.367
-11.4173
-11.465
-11.5097
-11.5508
-11.5877
-11.6194
-11.6452
-11.6643
-11.6762
-11.6805
-11.6769
-11.6648
-11.6438
-11.6133
-11.5725
-11.5208
-11.4573
-11.3814
-11.2925
-11.19
-11.0734
-10.9422
-10.7959
-10.6344
-10.4574
-10.2648
-10.0566
-9.83311
-9.59452
-9.34134
-9.07418
-8.79382
-8.50119
-8.19737
-7.88357
-7.56114
-7.23157
-6.89644
-6.55741
-6.21625
-5.87472
-5.53465
-5.19781
-4.86594
-4.54073
-4.22373
-3.9164
-3.62004
-3.33578
-3.06458
-2.80723
-2.56432
-2.33626
-2.12329
-1.92548
-1.74274
-1.57486
-1.4215
-1.2822
-1.15642
-1.04356
-0.942944
-0.853839
-0.775481
-0.707066
-0.647754
-0.596673
-0.552912
-0.515536
-0.483566
-0.456016
-0.431834
-0.410028
-0.389456
-0.369236
-0.348029
-0.325355
-0.299297
-0.270485
-0.235417
-0.197135
-0.14935
-0.0961815
-0.0405532
-10.6146
-10.7872
-10.8525
-10.8703
-10.8965
-10.9229
-10.9463
-10.973
-11.0057
-11.0445
-11.0889
-11.1377
-11.189
-11.2408
-11.2917
-11.3405
-11.3866
-11.4299
-11.4701
-11.507
-11.54
-11.5686
-11.5918
-11.6089
-11.6193
-11.6224
-11.6177
-11.6048
-11.5829
-11.5516
-11.5101
-11.4576
-11.3936
-11.3173
-11.2282
-11.1257
-11.0093
-10.8785
-10.733
-10.5725
-10.3968
-10.2058
-9.99959
-9.77828
-9.54221
-9.29184
-9.02777
-8.75076
-8.46171
-8.16168
-7.85186
-7.53357
-7.20825
-6.87746
-6.54284
-6.20608
-5.86893
-5.53316
-5.20051
-4.87267
-4.55127
-4.23785
-3.93381
-3.64043
-3.35881
-3.0899
-2.83446
-2.59309
-2.36619
-2.15402
-1.95666
-1.77404
-1.60597
-1.45212
-1.31208
-1.18534
-1.0713
-0.969322
-0.878704
-0.798706
-0.72855
-0.667426
-0.614491
-0.568866
-0.529646
-0.495878
-0.466596
-0.440773
-0.417418
-0.395424
-0.373859
-0.351504
-0.327643
-0.300843
-0.270754
-0.235911
-0.195174
-0.151076
-0.089124
-0.0528444
-10.6014
-10.6962
-10.7419
-10.7713
-10.8134
-10.8579
-10.8987
-10.9388
-10.9802
-11.0234
-11.0689
-11.1162
-11.1644
-11.2128
-11.2603
-11.3063
-11.3502
-11.3915
-11.4299
-11.4648
-11.4958
-11.522
-11.5427
-11.5574
-11.5653
-11.566
-11.5591
-11.544
-11.5203
-11.4872
-11.4442
-11.3906
-11.3256
-11.2487
-11.1592
-11.0565
-10.9403
-10.8099
-10.6651
-10.5056
-10.3312
-10.1419
-9.93761
-9.71857
-9.4851
-9.23762
-8.97675
-8.70322
-8.41792
-8.12188
-7.81626
-7.50235
-7.18156
-6.8554
-6.52547
-6.19343
-5.86098
-5.52982
-5.20166
-4.87813
-4.56083
-4.25123
-3.95071
-3.6605
-3.38169
-3.1152
-2.86179
-2.62205
-2.39639
-2.18508
-1.98821
-1.80575
-1.63751
-1.48322
-1.34247
-1.21479
-1.0996
-0.996296
-0.904197
-0.822586
-0.75071
-0.687782
-0.632983
-0.585464
-0.544344
-0.508701
-0.477594
-0.450024
-0.425007
-0.401478
-0.37846
-0.354854
-0.32972
-0.302102
-0.27069
-0.23602
-0.192867
-0.152373
-0.0819907
-0.0643646
-10.6129
-10.6952
-10.7546
-10.7946
-10.8337
-10.8711
-10.905
-10.9388
-10.9746
-11.0133
-11.0537
-11.0971
-11.1418
-11.1869
-11.2314
-11.2743
-11.3151
-11.3534
-11.3886
-11.4204
-11.4482
-11.4715
-11.4896
-11.5018
-11.5076
-11.5063
-11.4976
-11.4808
-11.4554
-11.4208
-11.3764
-11.3215
-11.2554
-11.1776
-11.0875
-10.9845
-10.8681
-10.738
-10.5938
-10.4353
-10.2621
-10.0744
-9.87206
-9.65535
-9.42454
-9.18007
-8.92253
-8.65264
-8.37126
-8.0794
-7.7782
-7.46891
-7.1529
-6.83164
-6.50668
-6.17963
-5.85214
-5.52585
-5.2024
-4.88339
-4.57035
-4.26472
-3.96782
-3.68087
-3.40493
-3.1409
-2.88955
-2.65145
-2.42704
-2.21659
-2.02022
-1.83792
-1.66953
-1.51478
-1.37333
-1.2447
-1.12837
-1.02374
-0.930162
-0.846946
-0.773358
-0.708633
-0.651973
-0.60255
-0.559507
-0.521948
-0.488954
-0.459561
-0.432792
-0.407632
-0.383063
-0.358113
-0.331625
-0.303115
-0.270342
-0.23579
-0.190283
-0.153274
-0.0749474
-0.0749546
-10.6162
-10.6797
-10.7303
-10.7676
-10.8047
-10.8425
-10.8788
-10.9149
-10.9523
-10.9909
-11.0319
-11.0737
-11.1162
-11.1586
-11.2002
-11.2403
-11.2783
-11.3138
-11.3464
-11.3755
-11.4007
-11.4213
-11.4368
-11.4465
-11.4498
-11.4462
-11.4352
-11.4163
-11.3889
-11.3525
-11.3065
-11.2502
-11.183
-11.1042
-11.0135
-10.9101
-10.7938
-10.6639
-10.5203
-10.3627
-10.1909
-10.0048
-9.80453
-9.59022
-9.36217
-9.12083
-8.86677
-8.60068
-8.32341
-8.03594
-7.73937
-7.43491
-7.12389
-6.80773
-6.48793
-6.16602
-5.84361
-5.52228
-5.20361
-4.88915
-4.58039
-4.27872
-3.98544
-3.70173
-3.42864
-3.16706
-2.91774
-2.68128
-2.45812
-2.24852
-2.05265
-1.8705
-1.70195
-1.54676
-1.40459
-1.27501
-1.15753
-1.05157
-0.956511
-0.871683
-0.796377
-0.729849
-0.671321
-0.619986
-0.575006
-0.535509
-0.500594
-0.469328
-0.440746
-0.413883
-0.387689
-0.361317
-0.333408
-0.30394
-0.269779
-0.235294
-0.187516
-0.153844
-0.0681719
-0.0845112
-10.6179
-10.6709
-10.7185
-10.7578
-10.7954
-10.8325
-10.8678
-10.9026
-10.9382
-10.9746
-11.0127
-11.0515
-11.091
-11.1305
-11.1691
-11.2064
-11.2416
-11.2743
-11.304
-11.3304
-11.3527
-11.3706
-11.3834
-11.3905
-11.3914
-11.3856
-11.3724
-11.3515
-11.3223
-11.2841
-11.2365
-11.1788
-11.1103
-11.0307
-10.9392
-10.8355
-10.7191
-10.5895
-10.4465
-10.2898
-10.1194
-9.935
-9.73683
-9.52501
-9.29984
-9.06173
-8.81125
-8.54908
-8.27602
-7.99303
-7.70117
-7.4016
-7.09561
-6.78456
-6.4699
-6.15312
-5.83575
-5.51933
-5.2054
-4.89544
-4.5909
-4.29315
-4.00345
-3.72294
-3.45267
-3.19352
-2.94623
-2.71139
-2.48946
-2.28073
-2.08535
-1.90336
-1.73465
-1.57902
-1.43614
-1.30563
-1.187
-1.07971
-0.983167
-0.896722
-0.81969
-0.751349
-0.690942
-0.637682
-0.59075
-0.549296
-0.512436
-0.479267
-0.448834
-0.420219
-0.392348
-0.364498
-0.335122
-0.304647
-0.269087
-0.234622
-0.184678
-0.154161
-0.0618325
-0.0929835
-10.6176
-10.6629
-10.7061
-10.7439
-10.7798
-10.8153
-10.8498
-10.8839
-10.9185
-10.954
-10.9903
-11.0272
-11.0644
-11.1012
-11.1372
-11.1716
-11.2041
-11.2341
-11.2611
-11.2847
-11.3045
-11.3197
-11.33
-11.3346
-11.3332
-11.3251
-11.3098
-11.2869
-11.2557
-11.2158
-11.1666
-11.1076
-11.038
-10.9575
-10.8654
-10.7613
-10.6449
-10.5156
-10.3733
-10.2177
-10.0486
-9.86599
-9.66997
-9.46067
-9.2384
-9.00355
-8.75666
-8.4984
-8.22955
-7.95101
-7.66382
-7.36909
-7.06808
-6.76209
-6.45251
-6.14078
-5.82839
-5.51682
-5.20756
-4.90204
-4.60168
-4.3078
-4.02163
-3.74431
-3.47684
-3.22009
-2.97482
-2.74161
-2.52091
-2.31305
-2.11818
-1.93637
-1.76752
-1.61145
-1.46789
-1.33645
-1.21668
-1.10807
-1.01004
-0.921984
-0.843226
-0.773067
-0.710774
-0.655579
-0.606682
-0.563255
-0.524434
-0.48934
-0.457029
-0.426635
-0.397055
-0.367693
-0.336822
-0.305308
-0.268355
-0.233866
-0.181885
-0.154303
-0.0560649
-0.100359
-10.6158
-10.6556
-10.695
-10.7314
-10.7662
-10.8005
-10.834
-10.8671
-10.9004
-10.9341
-10.9684
-11.0029
-11.0375
-11.0717
-11.1049
-11.1366
-11.1664
-11.1936
-11.218
-11.239
-11.256
-11.2687
-11.2764
-11.2786
-11.2749
-11.2646
-11.2472
-11.2223
-11.1894
-11.1478
-11.0972
-11.0368
-10.9662
-10.8848
-10.7922
-10.6878
-10.5714
-10.4425
-10.3009
-10.1463
-9.97865
-9.79786
-9.60399
-9.39723
-9.17785
-8.94624
-8.70293
-8.44855
-8.18385
-7.90972
-7.62715
-7.33721
-7.04111
-6.7401
-6.43554
-6.12881
-5.82133
-5.51455
-5.2099
-4.90878
-4.61255
-4.32251
-4.03985
-3.76568
-3.501
-3.24666
-3.0034
-2.77182
-2.55237
-2.34538
-2.15104
-1.96941
-1.80044
-1.64397
-1.49973
-1.36737
-1.24648
-1.13656
-1.03707
-0.947399
-0.866918
-0.794943
-0.730762
-0.673627
-0.622758
-0.57735
-0.536555
-0.499523
-0.465322
-0.433131
-0.401825
-0.370933
-0.338557
-0.305983
-0.267659
-0.233104
-0.17923
-0.154329
-0.0509523
-0.106649
-10.6127
-10.6484
-10.6845
-10.7189
-10.7521
-10.7849
-10.8171
-10.8489
-10.8808
-10.9129
-10.9452
-10.9777
-11.0099
-11.0416
-11.0722
-11.1013
-11.1283
-11.153
-11.1747
-11.193
-11.2075
-11.2176
-11.2228
-11.2227
-11.2166
-11.2042
-11.1848
-11.158
-11.1233
-11.0801
-11.028
-10.9664
-10.8947
-10.8126
-10.7195
-10.6149
-10.4986
-10.3701
-10.2292
-10.0757
-9.90949
-9.73049
-9.5388
-9.33456
-9.11806
-8.88967
-8.6499
-8.39936
-8.13878
-7.86901
-7.59099
-7.30579
-7.01453
-6.71845
-6.41884
-6.11704
-5.81442
-5.51237
-5.21229
-4.91552
-4.62339
-4.33716
-4.05799
-3.78696
-3.52506
-3.27312
-3.03188
-2.80194
-2.58375
-2.37766
-2.18386
-2.00244
-1.83336
-1.67649
-1.53159
-1.39834
-1.27634
-1.16513
-1.06417
-0.972907
-0.89071
-0.816924
-0.750857
-0.691782
-0.63894
-0.591547
-0.548773
-0.509798
-0.4737
-0.439705
-0.406669
-0.374237
-0.340359
-0.306715
-0.267052
-0.232385
-0.176771
-0.154269
-0.0465206
-0.111884
-10.6087
-10.6411
-10.6742
-10.7066
-10.7382
-10.7694
-10.8002
-10.8306
-10.861
-10.8914
-10.9218
-10.9521
-10.982
-11.0112
-11.0392
-11.0657
-11.0901
-11.1121
-11.1312
-11.1469
-11.1589
-11.1665
-11.1693
-11.1668
-11.1585
-11.1439
-11.1226
-11.0939
-11.0574
-11.0127
-10.9592
-10.8964
-10.8238
-10.7409
-10.6473
-10.5426
-10.4264
-10.2983
-10.1582
-10.0058
-9.84102
-9.66383
-9.4743
-9.27257
-9.05893
-8.83373
-8.59747
-8.35073
-8.09422
-7.82875
-7.55525
-7.27471
-6.98825
-6.69703
-6.40232
-6.10539
-5.80757
-5.51021
-5.21465
-4.9222
-4.63414
-4.35169
-4.07599
-3.80809
-3.54896
-3.29942
-3.06021
-2.83191
-2.61499
-2.40981
-2.21657
-2.03537
-1.86621
-1.70897
-1.56343
-1.4293
-1.30621
-1.19372
-1.09132
-0.998461
-0.914556
-0.838966
-0.771018
-0.710007
-0.655194
-0.605816
-0.561065
-0.520144
-0.482148
-0.446348
-0.411584
-0.377612
-0.342242
-0.30752
-0.266556
-0.231729
-0.174533
-0.15413
-0.0427499
-0.116109
-10.6037
-10.6334
-10.664
-10.6943
-10.7242
-10.7538
-10.783
-10.8119
-10.8407
-10.8693
-10.8978
-10.926
-10.9536
-10.9804
-11.0059
-11.0299
-11.0517
-11.0712
-11.0877
-11.1009
-11.1103
-11.1155
-11.1159
-11.1111
-11.1006
-11.0839
-11.0606
-11.0301
-10.9919
-10.9457
-10.8908
-10.8269
-10.7533
-10.6698
-10.5757
-10.4709
-10.3548
-10.2272
-10.0878
-9.93654
-9.77322
-9.59784
-9.41045
-9.21123
-9.00042
-8.77838
-8.54559
-8.30261
-8.05012
-7.78891
-7.51986
-7.24394
-6.96221
-6.6758
-6.38592
-6.09381
-5.80075
-5.50803
-5.21694
-4.92877
-4.64474
-4.36605
-4.0938
-3.82902
-3.57265
-3.32551
-3.08833
-2.86168
-2.64606
-2.44179
-2.24913
-2.06818
-1.89895
-1.74136
-1.5952
-1.46021
-1.33605
-1.22228
-1.11845
-1.02402
-0.938417
-0.861031
-0.791209
-0.728268
-0.671489
-0.620131
-0.573405
-0.530543
-0.490653
-0.453051
-0.416564
-0.381054
-0.344204
-0.308402
-0.266175
-0.231138
-0.172516
-0.153911
-0.0395943
-0.119389
-10.598
-10.6254
-10.6536
-10.682
-10.7101
-10.738
-10.7656
-10.793
-10.8201
-10.8469
-10.8734
-10.8995
-10.9249
-10.9493
-10.9724
-10.9939
-11.0133
-11.0302
-11.0442
-11.0549
-11.0618
-11.0646
-11.0626
-11.0556
-11.0429
-11.0242
-10.9989
-10.9666
-10.9268
-10.8791
-10.8229
-10.7579
-10.6834
-10.5992
-10.5048
-10.3998
-10.2838
-10.1567
-10.0181
-9.86798
-9.70611
-9.53252
-9.34727
-9.15053
-8.94252
-8.72362
-8.49426
-8.25499
-8.00648
-7.74947
-7.48482
-7.21345
-6.93639
-6.65474
-6.36964
-6.08228
-5.79392
-5.50579
-5.21913
-4.9352
-4.65517
-4.3802
-4.11138
-3.8497
-3.59609
-3.35136
-3.1162
-2.89122
-2.67689
-2.47356
-2.28149
-2.10081
-1.93154
-1.77361
-1.62685
-1.49102
-1.3658
-1.25079
-1.14554
-1.04954
-0.962255
-0.883084
-0.811398
-0.746535
-0.687797
-0.634466
-0.585772
-0.540975
-0.499197
-0.459799
-0.421598
-0.384556
-0.346242
-0.309356
-0.265908
-0.23061
-0.170714
-0.15361
-0.0369988
-0.121806
-10.5916
-10.6169
-10.6431
-10.6695
-10.6959
-10.7221
-10.748
-10.7737
-10.7991
-10.8241
-10.8487
-10.8727
-10.8959
-10.918
-10.9388
-10.9578
-10.9747
-10.9892
-11.0007
-11.009
-11.0135
-11.0139
-11.0096
-11.0004
-10.9856
-10.9648
-10.9377
-10.9036
-10.8622
-10.813
-10.7556
-10.6894
-10.6141
-10.5293
-10.4345
-10.3293
-10.2136
-10.087
-9.94919
-9.80014
-9.63972
-9.46792
-9.28479
-9.0905
-8.88527
-8.66946
-8.44349
-8.20789
-7.9633
-7.71044
-7.45012
-7.18325
-6.9108
-6.63383
-6.35344
-6.07079
-5.78707
-5.50347
-5.2212
-4.94146
-4.66539
-4.39413
-4.12871
-3.87012
-3.61925
-3.37691
-3.14378
-2.92047
-2.70744
-2.50507
-2.31361
-2.13321
-1.96392
-1.80567
-1.65834
-1.52169
-1.39543
-1.27919
-1.17253
-1.07499
-0.986034
-0.90509
-0.831551
-0.764778
-0.704091
-0.648797
-0.598144
-0.551422
-0.507767
-0.466583
-0.426679
-0.388113
-0.348352
-0.31038
-0.265753
-0.230145
-0.169119
-0.153232
-0.0349075
-0.123454
-10.5845
-10.608
-10.6323
-10.6569
-10.6815
-10.706
-10.7302
-10.7542
-10.7779
-10.8011
-10.8237
-10.8457
-10.8667
-10.8866
-10.905
-10.9217
-10.9362
-10.9482
-10.9573
-10.9632
-10.9654
-10.9634
-10.957
-10.9455
-10.9286
-10.9059
-10.8769
-10.8411
-10.7981
-10.7475
-10.6888
-10.6216
-10.5455
-10.46
-10.3649
-10.2597
-10.1441
-10.018
-9.88102
-9.73309
-9.57411
-9.40408
-9.22306
-9.03118
-8.8287
-8.61594
-8.39331
-8.16134
-7.92061
-7.67183
-7.41579
-7.15335
-6.88544
-6.61309
-6.33735
-6.05934
-5.78019
-5.50107
-5.22314
-4.94754
-4.67539
-4.40779
-4.14575
-3.89022
-3.64209
-3.40213
-3.17103
-2.94939
-2.73768
-2.53627
-2.34544
-2.16534
-1.99604
-1.8375
-1.68961
-1.55217
-1.42489
-1.30743
-1.1994
-1.10033
-1.00971
-0.927013
-0.851636
-0.782965
-0.720343
-0.663098
-0.6105
-0.561865
-0.516347
-0.473388
-0.431798
-0.391718
-0.350531
-0.311475
-0.265709
-0.229743
-0.167725
-0.152788
-0.0332656
-0.124432
-10.5767
-10.5986
-10.6211
-10.644
-10.6669
-10.6897
-10.7122
-10.7345
-10.7564
-10.7778
-10.7985
-10.8184
-10.8374
-10.8551
-10.8712
-10.8856
-10.8977
-10.9074
-10.9142
-10.9177
-10.9175
-10.9133
-10.9046
-10.8911
-10.8721
-10.8475
-10.8166
-10.7792
-10.7346
-10.6826
-10.6227
-10.5545
-10.4776
-10.3916
-10.2961
-10.1908
-10.0755
-9.94987
-9.8137
-9.66689
-9.50935
-9.34107
-9.16212
-8.97264
-8.77287
-8.56311
-8.34378
-8.11536
-7.87844
-7.63369
-7.38185
-7.12377
-6.86034
-6.59253
-6.32137
-6.04793
-5.77329
-5.49858
-5.22492
-4.95342
-4.68515
-4.42117
-4.16248
-3.90999
-3.66457
-3.42698
-3.19791
-2.97794
-2.76755
-2.56712
-2.37693
-2.19715
-2.02786
-1.86905
-1.72063
-1.5824
-1.45413
-1.33548
-1.22609
-1.12551
-1.03326
-0.948815
-0.871616
-0.801064
-0.736522
-0.677342
-0.622815
-0.572283
-0.524918
-0.480202
-0.436942
-0.395363
-0.352772
-0.312635
-0.265773
-0.229406
-0.16652
-0.152292
-0.0320186
-0.124842
-10.5684
-10.5888
-10.6097
-10.6308
-10.652
-10.6732
-10.6941
-10.7146
-10.7347
-10.7543
-10.7731
-10.7911
-10.8079
-10.8235
-10.8374
-10.8495
-10.8594
-10.8667
-10.8712
-10.8724
-10.87
-10.8636
-10.8528
-10.8371
-10.8162
-10.7896
-10.757
-10.7179
-10.6719
-10.6185
-10.5575
-10.4883
-10.4106
-10.324
-10.2282
-10.1229
-10.0078
-9.88268
-9.74732
-9.60162
-9.4455
-9.27895
-9.10205
-8.91493
-8.71783
-8.51103
-8.29494
-8.07002
-7.83684
-7.59604
-7.34833
-7.09453
-6.8355
-6.57217
-6.30551
-6.03656
-5.76637
-5.49601
-5.22656
-4.95909
-4.69465
-4.43426
-4.17887
-3.92939
-3.68666
-3.45143
-3.22438
-3.00608
-2.79701
-2.59756
-2.40802
-2.22858
-2.05932
-1.90026
-1.75133
-1.61235
-1.4831
-1.36329
-1.25255
-1.15048
-1.05662
-0.970455
-0.891454
-0.81904
-0.752597
-0.691501
-0.635064
-0.582654
-0.533462
-0.487007
-0.442099
-0.399038
-0.355068
-0.313856
-0.265938
-0.229134
-0.165491
-0.151759
-0.031111
-0.124781
-10.5596
-10.5785
-10.5979
-10.6174
-10.637
-10.6565
-10.6757
-10.6946
-10.713
-10.7307
-10.7476
-10.7636
-10.7784
-10.7919
-10.8037
-10.8135
-10.8212
-10.8263
-10.8285
-10.8275
-10.8229
-10.8144
-10.8014
-10.7837
-10.7609
-10.7325
-10.6981
-10.6574
-10.6099
-10.5553
-10.4931
-10.4229
-10.3445
-10.2574
-10.1614
-10.056
-9.94114
-9.81652
-9.68196
-9.53736
-9.38264
-9.2178
-9.04292
-8.85813
-8.66364
-8.45975
-8.24684
-8.02536
-7.79585
-7.55892
-7.31528
-7.06569
-6.81097
-6.55202
-6.28979
-6.02525
-5.75943
-5.49335
-5.22804
-4.96455
-4.70389
-4.44702
-4.1949
-3.9484
-3.70833
-3.47544
-3.25039
-3.03376
-2.82601
-2.62755
-2.43868
-2.25958
-2.09037
-1.93109
-1.78166
-1.64195
-1.51175
-1.3908
-1.27874
-1.17521
-1.07975
-0.99189
-0.911109
-0.836855
-0.768533
-0.705543
-0.647217
-0.592952
-0.541955
-0.493784
-0.447252
-0.402728
-0.357405
-0.315129
-0.266194
-0.228923
-0.164619
-0.151203
-0.0304858
-0.124346
-10.5503
-10.5678
-10.5857
-10.6037
-10.6218
-10.6396
-10.6572
-10.6744
-10.691
-10.707
-10.7221
-10.7361
-10.749
-10.7604
-10.7701
-10.7778
-10.7833
-10.7862
-10.7863
-10.7831
-10.7763
-10.7657
-10.7507
-10.731
-10.7063
-10.6761
-10.64
-10.5978