/*--------------------------------*- C++ -*----------------------------------*\
  =========                 |
  \\      /  F ield         | OpenFOAM: The Open Source CFD Toolbox
   \\    /   O peration     | Website:  https://openfoam.org
    \\  /    A nd           | Version:  10
     \\/     M anipulation  |
\*---------------------------------------------------------------------------*/
FoamFile
{
    format      ascii;
    class       surfaceScalarField;
    location    "0.185";
    object      phi;
}
// * * * * * * * * * * * * * * * * * * * * * * * * * * * * * * * * * * * * * //

dimensions      [0 3 -1 0 0 0 0];

internalField   nonuniform List<scalar> 
13452
(
6.0577e-05
-3.08524e-07
6.03703e-05
2.06722e-07
5.98977e-05
4.72559e-07
5.92831e-05
6.14612e-07
5.86765e-05
6.06558e-07
5.81382e-05
5.38293e-07
5.76709e-05
4.67387e-07
5.72643e-05
4.06599e-07
5.69071e-05
3.57149e-07
5.65894e-05
3.17671e-07
5.63035e-05
2.85987e-07
5.60433e-05
2.60141e-07
5.58047e-05
2.38655e-07
5.55842e-05
2.20464e-07
5.53794e-05
2.04808e-07
5.51882e-05
1.91152e-07
5.50091e-05
1.7912e-07
5.48407e-05
1.68445e-07
5.46817e-05
1.58941e-07
5.45312e-05
1.50483e-07
5.43882e-05
1.43002e-07
5.42518e-05
1.36483e-07
5.41208e-05
1.30977e-07
5.39941e-05
1.26633e-07
5.38704e-05
1.23745e-07
5.37475e-05
1.22952e-07
5.36222e-05
1.25259e-07
5.34888e-05
1.33387e-07
5.33368e-05
1.51959e-07
5.31481e-05
1.88698e-07
5.28567e-05
2.91479e-07
5.24298e-05
4.26827e-07
8.52377e-07
5.15775e-05
6.18026e-05
-1.20773e-07
6.17623e-05
2.47018e-07
6.18788e-05
3.56008e-07
6.20398e-05
4.53615e-07
6.21458e-05
5.00575e-07
6.21743e-05
5.09842e-07
6.21397e-05
5.01938e-07
6.20629e-05
4.83381e-07
6.19603e-05
4.59743e-07
6.18431e-05
4.34868e-07
6.17186e-05
4.10583e-07
6.1591e-05
3.87644e-07
6.14634e-05
3.66327e-07
6.13372e-05
3.46664e-07
6.12134e-05
3.28579e-07
6.10926e-05
3.11959e-07
6.0975e-05
2.96687e-07
6.08608e-05
2.8266e-07
6.075e-05
2.69798e-07
6.06424e-05
2.58046e-07
6.0538e-05
2.47385e-07
6.04367e-05
2.37838e-07
6.03381e-05
2.2949e-07
6.02423e-05
2.22513e-07
6.01488e-05
2.1723e-07
6.00576e-05
2.14168e-07
5.99684e-05
2.14416e-07
5.98825e-05
2.19245e-07
5.9801e-05
2.335e-07
5.97336e-05
2.56127e-07
5.97069e-05
3.18193e-07
5.97613e-05
3.72376e-07
5.80876e-07
6.00328e-05
6.36612e-05
-2.05321e-08
6.37525e-05
1.55674e-07
6.38141e-05
2.94384e-07
6.38664e-05
4.01358e-07
6.39088e-05
4.58154e-07
6.39397e-05
4.78934e-07
6.39593e-05
4.82383e-07
6.39659e-05
4.76725e-07
6.39601e-05
4.65581e-07
6.39434e-05
4.51512e-07
6.3918e-05
4.36042e-07
6.38856e-05
4.20044e-07
6.38479e-05
4.04061e-07
6.38061e-05
3.88422e-07
6.37614e-05
3.73319e-07
6.37144e-05
3.58865e-07
6.3666e-05
3.45127e-07
6.36165e-05
3.32152e-07
6.35663e-05
3.19982e-07
6.35157e-05
3.08664e-07
6.34648e-05
2.98268e-07
6.34138e-05
2.88898e-07
6.33625e-05
2.80721e-07
6.33111e-05
2.73987e-07
6.32592e-05
2.69119e-07
6.32066e-05
2.66704e-07
6.31531e-05
2.67949e-07
6.30984e-05
2.73927e-07
6.30429e-05
2.89073e-07
6.29869e-05
3.12076e-07
6.29419e-05
3.63172e-07
6.29e-05
4.14321e-07
5.37175e-07
6.29437e-05
6.55758e-05
-1.33089e-08
6.55533e-05
1.78208e-07
6.55638e-05
2.83916e-07
6.56041e-05
3.61063e-07
6.56525e-05
4.09727e-07
6.56968e-05
4.34606e-07
6.57335e-05
4.4576e-07
6.57621e-05
4.48129e-07
6.57832e-05
4.44474e-07
6.57976e-05
4.37111e-07
6.58061e-05
4.2754e-07
6.58094e-05
4.16655e-07
6.58085e-05
4.05046e-07
6.58038e-05
3.93115e-07
6.5796e-05
3.81136e-07
6.57855e-05
3.69305e-07
6.57729e-05
3.5777e-07
6.57584e-05
3.46651e-07
6.57423e-05
3.36057e-07
6.57249e-05
3.26098e-07
6.57062e-05
3.16902e-07
6.56865e-05
3.0863e-07
6.56657e-05
3.01502e-07
6.56439e-05
2.95821e-07
6.5621e-05
2.92051e-07
6.55969e-05
2.90796e-07
6.55716e-05
2.93163e-07
6.55454e-05
3.00144e-07
6.55197e-05
3.14807e-07
6.5495e-05
3.36722e-07
6.54828e-05
3.75467e-07
6.54801e-05
4.16949e-07
4.81909e-07
6.55354e-05
6.74264e-05
1.70322e-08
6.74512e-05
1.53477e-07
6.74792e-05
2.55938e-07
6.75097e-05
3.30561e-07
6.75398e-05
3.79534e-07
6.7569e-05
4.05492e-07
6.75969e-05
4.17828e-07
6.76229e-05
4.22089e-07
6.76464e-05
4.20989e-07
6.76671e-05
4.16472e-07
6.76848e-05
4.09789e-07
6.76998e-05
4.01696e-07
6.77121e-05
3.92706e-07
6.7722e-05
3.83185e-07
6.77298e-05
3.734e-07
6.77355e-05
3.6355e-07
6.77395e-05
3.538e-07
6.77419e-05
3.4429e-07
6.77428e-05
3.35154e-07
6.77423e-05
3.26527e-07
6.77407e-05
3.18567e-07
6.77378e-05
3.1146e-07
6.77339e-05
3.0545e-07
6.77289e-05
3.00855e-07
6.77228e-05
2.98129e-07
6.77157e-05
2.97837e-07
6.7708e-05
3.00892e-07
6.77001e-05
3.08102e-07
6.76935e-05
3.21409e-07
6.76896e-05
3.40576e-07
6.76954e-05
3.69662e-07
6.77114e-05
4.00989e-07
4.3868e-07
6.77546e-05
6.93767e-05
2.43121e-08
6.93862e-05
1.44045e-07
6.94042e-05
2.37904e-07
6.943e-05
3.04812e-07
6.94592e-05
3.50282e-07
6.94882e-05
3.76546e-07
6.95156e-05
3.90414e-07
6.95412e-05
3.96499e-07
6.95649e-05
3.97264e-07
6.95868e-05
3.94533e-07
6.96071e-05
3.8955e-07
6.96257e-05
3.83085e-07
6.96427e-05
3.75654e-07
6.96583e-05
3.67617e-07
6.96725e-05
3.59238e-07
6.96853e-05
3.50715e-07
6.96969e-05
3.42213e-07
6.97073e-05
3.33879e-07
6.97166e-05
3.25851e-07
6.97248e-05
3.18275e-07
6.97321e-05
3.11314e-07
6.97384e-05
3.05162e-07
6.97438e-05
3.00061e-07
6.97483e-05
2.96314e-07
6.97521e-05
2.94327e-07
6.97554e-05
2.9458e-07
6.97585e-05
2.97762e-07
6.97622e-05
3.04446e-07
6.97679e-05
3.15701e-07
6.97772e-05
3.31232e-07
6.97947e-05
3.52192e-07
6.98217e-05
3.73981e-07
3.95099e-07
6.98653e-05
7.13592e-05
3.14025e-08
7.13707e-05
1.32576e-07
7.13915e-05
2.17142e-07
7.1417e-05
2.79298e-07
7.14441e-05
3.2317e-07
7.14705e-05
3.50143e-07
7.14957e-05
3.65218e-07
7.15197e-05
3.72528e-07
7.15424e-05
3.74511e-07
7.1564e-05
3.72933e-07
7.15845e-05
3.69026e-07
7.16041e-05
3.63575e-07
7.16226e-05
3.57106e-07
7.16402e-05
3.49989e-07
7.1657e-05
3.42493e-07
7.16729e-05
3.34823e-07
7.16879e-05
3.27145e-07
7.17022e-05
3.19608e-07
7.17157e-05
3.1235e-07
7.17285e-05
3.05518e-07
7.17405e-05
2.99272e-07
7.17519e-05
2.93797e-07
7.17626e-05
2.89318e-07
7.17728e-05
2.86104e-07
7.17827e-05
2.84491e-07
7.17924e-05
2.84854e-07
7.18025e-05
2.8766e-07
7.18137e-05
2.93255e-07
7.18273e-05
3.02103e-07
7.18447e-05
3.13784e-07
7.18688e-05
3.28111e-07
7.19007e-05
3.42057e-07
3.52947e-07
7.19429e-05
7.34033e-05
3.34265e-08
7.34137e-05
1.22076e-07
7.34321e-05
1.98771e-07
7.34551e-05
2.56342e-07
7.34804e-05
2.97845e-07
7.35059e-05
3.24647e-07
7.35306e-05
3.40486e-07
7.35543e-05
3.48843e-07
7.35769e-05
3.51933e-07
7.35984e-05
3.51387e-07
7.36191e-05
3.48391e-07
7.36389e-05
3.43745e-07
7.3658e-05
3.37996e-07
7.36765e-05
3.31538e-07
7.36943e-05
3.24655e-07
7.37116e-05
3.17565e-07
7.37283e-05
3.10442e-07
7.37444e-05
3.03439e-07
7.37601e-05
2.96696e-07
7.37752e-05
2.90357e-07
7.37899e-05
2.84573e-07
7.38042e-05
2.79516e-07
7.38182e-05
2.75383e-07
7.38319e-05
2.72396e-07
7.38455e-05
2.70814e-07
7.38595e-05
2.70903e-07
7.38742e-05
2.72942e-07
7.38904e-05
2.77078e-07
7.39091e-05
2.83391e-07
7.39315e-05
2.91366e-07
7.39593e-05
3.0029e-07
7.39934e-05
3.08038e-07
3.12197e-07
7.40341e-05
7.55022e-05
3.37008e-08
7.5512e-05
1.12244e-07
7.55294e-05
1.81418e-07
7.55512e-05
2.34568e-07
7.55753e-05
2.73713e-07
7.55999e-05
3.00072e-07
7.5624e-05
3.16396e-07
7.56472e-05
3.25551e-07
7.56696e-05
3.2954e-07
7.56912e-05
3.29863e-07
7.57119e-05
3.27651e-07
7.57319e-05
3.23695e-07
7.57514e-05
3.18553e-07
7.57703e-05
3.12631e-07
7.57887e-05
3.06229e-07
7.58067e-05
2.99576e-07
7.58243e-05
2.92856e-07
7.58415e-05
2.86226e-07
7.58584e-05
2.79828e-07
7.58749e-05
2.73801e-07
7.58912e-05
2.68287e-07
7.59073e-05
2.63437e-07
7.59233e-05
2.59416e-07
7.59393e-05
2.56399e-07
7.59555e-05
2.54569e-07
7.59723e-05
2.5409e-07
7.59902e-05
2.55094e-07
7.60097e-05
2.57575e-07
7.60317e-05
2.61393e-07
7.6057e-05
2.65995e-07
7.60868e-05
2.70544e-07
7.61213e-05
2.73496e-07
2.73031e-07
7.61605e-05
7.76607e-05
3.26248e-08
7.76701e-05
1.02844e-07
7.76862e-05
1.65251e-07
7.77065e-05
2.14246e-07
7.77293e-05
2.50965e-07
7.77529e-05
2.76488e-07
7.77764e-05
2.92897e-07
7.77994e-05
3.02548e-07
7.78217e-05
3.07215e-07
7.78433e-05
3.08257e-07
7.78642e-05
3.06724e-07
7.78846e-05
3.03379e-07
7.79043e-05
2.98777e-07
7.79236e-05
2.93327e-07
7.79425e-05
2.87338e-07
7.7961e-05
2.81049e-07
7.79793e-05
2.74648e-07
7.79972e-05
2.68296e-07
7.80149e-05
2.62135e-07
7.80324e-05
2.56298e-07
7.80498e-05
2.50913e-07
7.80671e-05
2.46113e-07
7.80845e-05
2.42027e-07
7.81021e-05
2.38783e-07
7.81202e-05
2.365e-07
7.8139e-05
2.35255e-07
7.8159e-05
2.35071e-07
7.81807e-05
2.35844e-07
7.82048e-05
2.37317e-07
7.82319e-05
2.38954e-07
7.82624e-05
2.39972e-07
7.82967e-05
2.3924e-07
2.35488e-07
7.83342e-05
7.98801e-05
3.08182e-08
7.9889e-05
9.39219e-08
7.99041e-05
1.50182e-07
7.99232e-05
1.95161e-07
7.99448e-05
2.29396e-07
7.99674e-05
2.5381e-07
7.99903e-05
2.70006e-07
8.0013e-05
2.79895e-07
8.00352e-05
2.85027e-07
8.00568e-05
2.86621e-07
8.00779e-05
2.85641e-07
8.00985e-05
2.82815e-07
8.01186e-05
2.78681e-07
8.01382e-05
2.73644e-07
8.01576e-05
2.68016e-07
8.01766e-05
2.62037e-07
8.01953e-05
2.55898e-07
8.02139e-05
2.49761e-07
8.02322e-05
2.43763e-07
8.02505e-05
2.38029e-07
8.02687e-05
2.32674e-07
8.0287e-05
2.27807e-07
8.03055e-05
2.23528e-07
8.03244e-05
2.19922e-07
8.03439e-05
2.1705e-07
8.03642e-05
2.14927e-07
8.03858e-05
2.13501e-07
8.0409e-05
2.1261e-07
8.04343e-05
2.11957e-07
8.04622e-05
2.11053e-07
8.0493e-05
2.09236e-07
8.05265e-05
2.0568e-07
1.99536e-07
8.05625e-05
8.21626e-05
2.86166e-08
8.21711e-05
8.5423e-08
8.21852e-05
1.36086e-07
8.22032e-05
1.77207e-07
8.22237e-05
2.08939e-07
8.22454e-05
2.32037e-07
8.22677e-05
2.47753e-07
8.22899e-05
2.57633e-07
8.23119e-05
2.63018e-07
8.23336e-05
2.64993e-07
8.23548e-05
2.64438e-07
8.23756e-05
2.62031e-07
8.2396e-05
2.58287e-07
8.2416e-05
2.53602e-07
8.24357e-05
2.48281e-07
8.24552e-05
2.42563e-07
8.24745e-05
2.36638e-07
8.24936e-05
2.30663e-07
8.25126e-05
2.2477e-07
8.25315e-05
2.19073e-07
8.25505e-05
2.13673e-07
8.25697e-05
2.08656e-07
8.25891e-05
2.04094e-07
8.2609e-05
2.00037e-07
8.26295e-05
1.96502e-07
8.2651e-05
1.93458e-07
8.26737e-05
1.90809e-07
8.26979e-05
1.88367e-07
8.27241e-05
1.85836e-07
8.27523e-05
1.82796e-07
8.27828e-05
1.78715e-07
8.28155e-05
1.72997e-07
1.65091e-07
8.285e-05
8.45102e-05
2.62357e-08
8.45182e-05
7.73341e-08
8.45315e-05
1.22868e-07
8.45484e-05
1.60276e-07
8.45678e-05
1.89491e-07
8.45888e-05
2.1111e-07
8.46104e-05
2.26122e-07
8.46323e-05
2.35777e-07
8.4654e-05
2.41224e-07
8.46756e-05
2.43421e-07
8.46969e-05
2.4316e-07
8.47179e-05
2.41069e-07
8.47385e-05
2.37633e-07
8.47589e-05
2.33232e-07
8.4779e-05
2.28162e-07
8.47989e-05
2.22654e-07
8.48187e-05
2.16895e-07
8.48383e-05
2.11033e-07
8.48579e-05
2.05194e-07
8.48775e-05
1.9948e-07
8.48972e-05
1.93976e-07
8.49171e-05
1.88749e-07
8.49373e-05
1.83846e-07
8.49581e-05
1.79288e-07
8.49795e-05
1.75061e-07
8.50018e-05
1.71105e-07
8.50254e-05
1.67301e-07
8.50503e-05
1.63459e-07
8.50768e-05
1.59309e-07
8.51051e-05
1.545e-07
8.51352e-05
1.48625e-07
8.51669e-05
1.41257e-07
1.32046e-07
8.52e-05
8.69246e-05
2.38034e-08
8.69323e-05
6.96344e-08
8.69447e-05
1.10428e-07
8.69608e-05
1.44261e-07
8.69793e-05
1.70958e-07
8.69994e-05
1.90974e-07
8.70204e-05
2.05096e-07
8.70419e-05
2.14336e-07
8.70634e-05
2.19669e-07
8.70849e-05
2.21936e-07
8.71062e-05
2.21843e-07
8.71274e-05
2.19963e-07
8.71482e-05
2.16752e-07
8.71689e-05
2.12566e-07
8.71894e-05
2.07688e-07
8.72097e-05
2.02339e-07
8.72299e-05
1.96698e-07
8.725e-05
1.90905e-07
8.72701e-05
1.85074e-07
8.72903e-05
1.79298e-07
8.73106e-05
1.73646e-07
8.73312e-05
1.68167e-07
8.73522e-05
1.62889e-07
8.73737e-05
1.57811e-07
8.73958e-05
1.52898e-07
8.74189e-05
1.48075e-07
8.74429e-05
1.43216e-07
8.74683e-05
1.38143e-07
8.74949e-05
1.32622e-07
8.75231e-05
1.26373e-07
8.75526e-05
1.19088e-07
8.75834e-05
1.10468e-07
1.00299e-07
8.76151e-05
8.94079e-05
2.13932e-08
8.94153e-05
6.23032e-08
8.9427e-05
9.86789e-08
8.94422e-05
1.29068e-07
8.94599e-05
1.5325e-07
8.94793e-05
1.71567e-07
8.94998e-05
1.84644e-07
8.95208e-05
1.93302e-07
8.95421e-05
1.98362e-07
8.95635e-05
2.00556e-07
8.95848e-05
2.00511e-07
8.96061e-05
1.98744e-07
8.96271e-05
1.95674e-07
8.96481e-05
1.91634e-07
8.96689e-05
1.86889e-07
8.96896e-05
1.81649e-07
8.97102e-05
1.76079e-07
8.97308e-05
1.70313e-07
8.97514e-05
1.64453e-07
8.97721e-05
1.58578e-07
8.9793e-05
1.52746e-07
8.98142e-05
1.46991e-07
8.98358e-05
1.41325e-07
8.98578e-05
1.35732e-07
8.98806e-05
1.30166e-07
8.99041e-05
1.24545e-07
8.99286e-05
1.18749e-07
8.99541e-05
1.12619e-07
8.99807e-05
1.05961e-07
9.00086e-05
9.85561e-08
9.00375e-05
9.01791e-08
9.00673e-05
8.06222e-08
6.97638e-08
9.00979e-05
9.19622e-05
1.90438e-08
9.19692e-05
5.53162e-08
9.19803e-05
8.75413e-08
9.19948e-05
1.14605e-07
9.20118e-05
1.36285e-07
9.20305e-05
1.52827e-07
9.20504e-05
1.64729e-07
9.20711e-05
1.72658e-07
9.20921e-05
1.77303e-07
9.21134e-05
1.79294e-07
9.21347e-05
1.79183e-07
9.2156e-05
1.77433e-07
9.21773e-05
1.74423e-07
9.21984e-05
1.70462e-07
9.22195e-05
1.65793e-07
9.22406e-05
1.60612e-07
9.22616e-05
1.55073e-07
9.22826e-05
1.49297e-07
9.23037e-05
1.43375e-07
9.23249e-05
1.37376e-07
9.23463e-05
1.31345e-07
9.2368e-05
1.25305e-07
9.239e-05
1.19256e-07
9.24126e-05
1.13173e-07
9.24358e-05
1.07005e-07
9.24596e-05
1.00672e-07
9.24843e-05
9.40654e-08
9.25099e-05
8.70494e-08
9.25364e-05
7.9468e-08
9.25638e-05
7.11551e-08
9.2592e-05
6.19489e-08
9.26209e-05
5.17094e-08
4.03749e-08
9.26503e-05
9.45894e-05
1.67731e-08
9.45961e-05
4.86472e-08
9.46067e-05
7.69436e-08
9.46205e-05
1.00792e-07
9.46368e-05
1.19983e-07
9.46549e-05
1.34691e-07
9.46744e-05
1.45311e-07
9.46946e-05
1.52384e-07
9.47155e-05
1.56485e-07
9.47366e-05
1.58154e-07
9.47579e-05
1.5787e-07
9.47793e-05
1.56045e-07
9.48007e-05
1.5302e-07
9.48221e-05
1.49072e-07
9.48435e-05
1.44426e-07
9.48648e-05
1.3926e-07
9.48862e-05
1.33715e-07
9.49076e-05
1.27897e-07
9.49291e-05
1.2189e-07
9.49507e-05
1.1575e-07
9.49725e-05
1.09513e-07
9.49946e-05
1.03192e-07
9.50171e-05
9.67809e-08
9.504e-05
9.02493e-08
9.50635e-05
8.35462e-08
9.50876e-05
7.65977e-08
9.51123e-05
6.93097e-08
9.51378e-05
6.15711e-08
9.5164e-05
5.32598e-08
9.51909e-05
4.42531e-08
9.52184e-05
3.44384e-08
9.52464e-05
2.37242e-08
1.20888e-08
9.52747e-05
9.72917e-05
1.45865e-08
9.72981e-05
4.2268e-08
9.73082e-05
6.6821e-08
9.73214e-05
8.75515e-08
9.73372e-05
1.0427e-07
9.73548e-05
1.17097e-07
9.73737e-05
1.26346e-07
9.73937e-05
1.32453e-07
9.74142e-05
1.35895e-07
9.74353e-05
1.37133e-07
9.74566e-05
1.36579e-07
9.7478e-05
1.34594e-07
9.74995e-05
1.31481e-07
9.75211e-05
1.27487e-07
9.75427e-05
1.22814e-07
9.75644e-05
1.17623e-07
9.75861e-05
1.12038e-07
9.76078e-05
1.06156e-07
9.76296e-05
1.00048e-07
9.76516e-05
9.37615e-08
9.76738e-05
8.73226e-08
9.76963e-05
8.07389e-08
9.77191e-05
7.39987e-08
9.77422e-05
6.70715e-08
9.77659e-05
5.99092e-08
9.779e-05
5.24469e-08
9.78147e-05
4.46063e-08
9.784e-05
3.62989e-08
9.78658e-05
2.74326e-08
9.78922e-05
1.79192e-08
9.79189e-05
7.68333e-09
9.7946e-05
-3.33151e-09
-1.5121e-08
9.79732e-05
0.000100071
1.24823e-08
0.000100077
3.61495e-08
0.000100087
5.71149e-08
0.0001001
7.48129e-08
0.000100115
8.90763e-08
0.000100132
9.99856e-08
0.000100151
1.07786e-07
0.00010017
1.12831e-07
0.000100191
1.15515e-07
0.000100212
1.16223e-07
0.000100233
1.1531e-07
0.000100254
1.13088e-07
0.000100276
1.09819e-07
0.000100298
1.05724e-07
0.00010032
1.0098e-07
0.000100341
9.57286e-08
0.000100363
9.00802e-08
0.000100385
8.4118e-08
0.000100408
7.7902e-08
0.00010043
7.14712e-08
0.000100452
6.48456e-08
0.000100475
5.80274e-08
0.000100498
5.10028e-08
0.000100521
4.37426e-08
0.000100545
3.62039e-08
0.000100569
2.83322e-08
0.000100594
2.00643e-08
0.000100619
1.13323e-08
0.000100644
2.06881e-09
0.00010067
-7.78689e-09
0.000100696
-1.82824e-08
0.000100722
-2.94492e-08
-4.1266e-08
0.000100748
0.00010293
1.04548e-08
0.000102936
3.02629e-08
0.000102945
4.77713e-08
0.000102958
6.25112e-08
0.000102972
7.43357e-08
0.000102989
8.32966e-08
0.000103007
8.95852e-08
0.000103027
9.34857e-08
0.000103047
9.53206e-08
0.000103068
9.54123e-08
0.000103089
9.40599e-08
0.00010311
9.15289e-08
0.000103132
8.80458e-08
0.000103154
8.38009e-08
0.000103176
7.89474e-08
0.000103198
7.36076e-08
0.00010322
6.78769e-08
0.000103243
6.18253e-08
0.000103265
5.55029e-08
0.000103288
4.89407e-08
0.00010331
4.21528e-08
0.000103333
3.51381e-08
0.000103356
2.78822e-08
0.00010338
2.03586e-08
0.000103403
1.25307e-08
0.000103427
4.35413e-09
0.000103452
-4.22014e-09
0.000103476
-1.32424e-08
0.000103501
-2.27598e-08
0.000103526
-3.28118e-08
0.000103551
-4.34256e-08
0.000103576
-5.46149e-08
-6.63475e-08
0.000103602
0.000105871
8.49636e-09
0.000105876
2.45796e-08
0.000105885
3.87406e-08
0.000105897
5.05851e-08
0.000105912
5.99848e-08
0.000105928
6.6971e-08
0.000105946
7.16923e-08
0.000105965
7.43763e-08
0.000105985
7.52842e-08
0.000106006
7.46822e-08
0.000106027
7.28192e-08
0.000106049
6.99173e-08
0.000106071
6.61671e-08
0.000106093
6.17308e-08
0.000106115
5.67366e-08
0.000106137
5.12873e-08
0.00010616
4.54637e-08
0.000106182
3.93218e-08
0.000106205
3.29027e-08
0.000106227
2.62301e-08
0.00010625
1.93129e-08
0.000106273
1.21478e-08
0.000106296
4.7206e-09
0.00010632
-2.99176e-09
0.000106343
-1.10195e-08
0.000106367
-1.93973e-08
0.000106391
-2.81619e-08
0.000106415
-3.7349e-08
0.000106439
-4.69897e-08
0.000106464
-5.71071e-08
0.000106488
-6.77133e-08
0.000106512
-7.88101e-08
-9.03582e-08
0.000106536
0.000108895
6.5987e-09
0.000108901
1.90724e-08
0.00010891
2.99774e-08
0.000108921
3.89782e-08
0.000108935
4.59635e-08
0.000108951
5.09513e-08
0.000108969
5.40567e-08
0.000108988
5.54612e-08
0.000109008
5.53728e-08
0.000109028
5.40093e-08
0.00010905
5.15734e-08
0.000109071
4.82468e-08
0.000109093
4.41842e-08
0.000109115
3.95229e-08
0.000109138
3.43644e-08
0.00010916
2.87927e-08
0.000109183
2.28729e-08
0.000109206
1.66471e-08
0.000109228
1.01501e-08
0.000109251
3.39625e-09
0.000109274
-3.6095e-09
0.000109297
-1.08721e-08
0.00010932
-1.8405e-08
0.000109343
-2.62278e-08
0.000109367
-3.43647e-08
0.00010939
-4.2842e-08
0.000109414
-5.16861e-08
0.000109437
-6.09207e-08
0.000109461
-7.05643e-08
0.000109484
-8.06282e-08
0.000109508
-9.11138e-08
0.000109531
-1.02014e-07
-1.13287e-07
0.000109554
0.000112006
4.75314e-09
0.000112012
1.37146e-08
0.00011202
2.14377e-08
0.000112032
2.76345e-08
0.000112045
3.22099e-08
0.000112061
3.51757e-08
0.000112079
3.66214e-08
0.000112097
3.66917e-08
0.000112117
3.55473e-08
0.000112138
3.33642e-08
0.000112159
3.03028e-08
0.000112181
2.65062e-08
0.000112203
2.20951e-08
0.000112225
1.71858e-08
0.000112248
1.18454e-08
0.00011227
6.14506e-09
0.000112293
1.38929e-10
0.000112316
-6.15874e-09
0.000112339
-1.27083e-08
0.000112362
-1.95074e-08
0.000112385
-2.6554e-08
0.000112408
-3.38553e-08
0.000112431
-4.14239e-08
0.000112454
-4.92764e-08
0.000112477
-5.74317e-08
0.0001125
-6.5909e-08
0.000112523
-7.47264e-08
0.000112546
-8.38981e-08
0.000112569
-9.34335e-08
0.000112591
-1.03335e-07
0.000112614
-1.13596e-07
0.000112636
-1.24205e-07
-1.35116e-07
0.000112658
0.000115206
2.95289e-09
0.000115211
8.48526e-09
0.00011522
1.30872e-08
0.000115231
1.65089e-08
0.000115245
1.8673e-08
0.00011526
1.95901e-08
0.000115277
1.93334e-08
0.000115296
1.80167e-08
0.000115316
1.57592e-08
0.000115337
1.27068e-08
0.000115358
8.97687e-09
0.00011538
4.67641e-09
0.000115402
-1.22791e-10
0.000115424
-5.28661e-09
0.000115447
-1.08146e-08
0.00011547
-1.66385e-08
0.000115493
-2.27282e-08
0.000115516
-2.90653e-08
0.000115538
-3.56341e-08
0.000115561
-4.24337e-08
0.000115584
-4.94675e-08
0.000115607
-5.67437e-08
0.00011563
-6.42744e-08
0.000115653
-7.20738e-08
0.000115676
-8.01567e-08
0.000115698
-8.85368e-08
0.000115721
-9.72254e-08
0.000115743
-1.0623e-07
0.000115765
-1.15553e-07
0.000115787
-1.2519e-07
0.000115809
-1.35131e-07
0.00011583
-1.4536e-07
-1.55832e-07
0.00011585
0.000118498
1.18666e-09
0.000118503
3.35459e-09
0.000118511
4.87659e-09
0.000118522
5.53627e-09
0.000118535
5.27751e-09
0.000118551
4.11686e-09
0.000118568
2.11985e-09
0.000118587
-6.1469e-10
0.000118606
-4.03726e-09
0.000118627
-8.00014e-09
0.000118649
-1.24365e-08
0.000118671
-1.72705e-08
0.000118693
-2.24444e-08
0.000118715
-2.78981e-08
0.000118738
-3.36092e-08
0.000118761
-3.95466e-08
0.000118784
-4.56926e-08
0.000118807
-5.20412e-08
0.00011883
-5.85892e-08
0.000118853
-6.53401e-08
0.000118876
-7.23019e-08
0.000118899
-7.9485e-08
0.000118921
-8.69016e-08
0.000118944
-9.45643e-08
0.000118966
-1.02485e-07
0.000118988
-1.10673e-07
0.00011901
-1.19135e-07
0.000119032
-1.27873e-07
0.000119053
-1.36885e-07
0.000119074
-1.46164e-07
0.000119095
-1.55694e-07
0.000119115
-1.65459e-07
-1.75415e-07
0.000119134
0.000121883
-5.3555e-10
0.000121888
-1.66508e-09
0.000121896
-3.18474e-09
0.000121907
-5.28692e-09
0.00012192
-7.99859e-09
0.000121936
-1.1284e-08
0.000121953
-1.50809e-08
0.000121972
-1.93158e-08
0.000121991
-2.39273e-08
0.000122012
-2.88395e-08
0.000122034
-3.40066e-08
0.000122056
-3.93884e-08
0.000122078
-4.49566e-08
0.000122101
-5.06849e-08
0.000122124
-5.65648e-08
0.000122147
-6.25902e-08
0.00012217
-6.876e-08
0.000122193
-7.50793e-08
0.000122216
-8.15555e-08
0.000122239
-8.81991e-08
0.000122262
-9.50227e-08
0.000122284
-1.02039e-07
0.000122307
-1.09262e-07
0.000122329
-1.16702e-07
0.000122351
-1.2437e-07
0.000122372
-1.32272e-07
0.000122394
-1.40412e-07
0.000122415
-1.48789e-07
0.000122435
-1.57398e-07
0.000122455
-1.66228e-07
0.000122475
-1.75263e-07
0.000122494
-1.84487e-07
-1.93856e-07
0.000122512
0.000125365
-2.27028e-09
0.00012537
-6.66971e-09
0.000125378
-1.12227e-08
0.000125389
-1.60947e-08
0.000125402
-2.12765e-08
0.000125418
-2.67108e-08
0.000125435
-3.23342e-08
0.000125454
-3.80856e-08
0.000125474
-4.39235e-08
0.000125495
-4.98109e-08
0.000125516
-5.57289e-08
0.000125539
-6.16699e-08
0.000125561
-6.76346e-08
0.000125584
-7.36273e-08
0.000125607
-7.96605e-08
0.000125631
-8.57484e-08
0.000125654
-9.19066e-08
0.000125677
-9.81527e-08
0.0001257
-1.04505e-07
0.000125723
-1.10981e-07
0.000125745
-1.17599e-07
0.000125767
-1.24374e-07
0.00012579
-1.31323e-07
0.000125811
-1.38455e-07
0.000125833
-1.45782e-07
0.000125854
-1.53307e-07
0.000125874
-1.61033e-07
0.000125895
-1.68957e-07
0.000125914
-1.77072e-07
0.000125933
-1.85367e-07
0.000125952
-1.93825e-07
0.00012597
-2.02429e-07
-2.1114e-07
0.000125987
0.000128947
-3.84385e-09
0.000128951
-1.14146e-08
0.000128959
-1.90023e-08
0.00012897
-2.6746e-08
0.000128983
-3.45443e-08
0.000128999
-4.22706e-08
0.000129016
-4.98345e-08
0.000129035
-5.71818e-08
0.000129056
-6.42936e-08
0.000129077
-7.11717e-08
0.000129099
-7.78355e-08
0.000129122
-8.43151e-08
0.000129145
-9.0645e-08
0.000129168
-9.68605e-08
0.000129191
-1.02998e-07
0.000129215
-1.09094e-07
0.000129238
-1.1518e-07
0.000129261
-1.21287e-07
0.000129284
-1.27445e-07
0.000129307
-1.33679e-07
0.000129329
-1.40011e-07
0.000129351
-1.46463e-07
0.000129373
-1.53051e-07
0.000129394
-1.59787e-07
0.000129415
-1.66681e-07
0.000129436
-1.73739e-07
0.000129456
-1.8096e-07
0.000129475
-1.88343e-07
0.000129494
-1.95878e-07
0.000129512
-2.03556e-07
0.000129529
-2.11361e-07
0.000129546
-2.19276e-07
-2.27265e-07
0.000129562
0.000132631
-5.77822e-09
0.000132636
-1.65073e-08
0.000132644
-2.70526e-08
0.000132655
-3.75556e-08
0.000132668
-4.78805e-08
0.000132684
-5.78552e-08
0.000132701
-6.736e-08
0.000132721
-7.6331e-08
0.000132741
-8.47578e-08
0.000132763
-9.26674e-08
0.000132785
-1.00111e-07
0.000132808
-1.07151e-07
0.000132831
-1.13854e-07
0.000132854
-1.20287e-07
0.000132878
-1.26511e-07
0.000132901
-1.32584e-07
0.000132925
-1.38556e-07
0.000132948
-1.44473e-07
0.000132971
-1.50376e-07
0.000132993
-1.563e-07
0.000133016
-1.62273e-07
0.000133037
-1.68321e-07
0.000133059
-1.74464e-07
0.00013308
-1.80717e-07
0.0001331
-1.87091e-07
0.00013312
-1.9359e-07
0.000133139
-2.00218e-07
0.000133158
-2.06971e-07
0.000133176
-2.13842e-07
0.000133193
-2.2082e-07
0.00013321
-2.27892e-07
0.000133226
-2.35042e-07
-2.42237e-07
0.00013324
0.000136419
-6.55031e-09
0.000136423
-2.03676e-08
0.00013643
-3.42858e-08
0.000136441
-4.8226e-08
0.000136455
-6.16744e-08
0.000136471
-7.42922e-08
0.00013649
-8.59376e-08
0.00013651
-9.6589e-08
0.000136531
-1.06297e-07
0.000136554
-1.15152e-07
0.000136577
-1.23262e-07
0.000136601
-1.30738e-07
0.000136624
-1.37691e-07
0.000136648
-1.4422e-07
0.000136672
-1.50415e-07
0.000136696
-1.56354e-07
0.00013672
-1.62108e-07
0.000136743
-1.67735e-07
0.000136766
-1.73286e-07
0.000136788
-1.78804e-07
0.00013681
-1.84324e-07
0.000136832
-1.89876e-07
0.000136853
-1.95483e-07
0.000136873
-2.01161e-07
0.000136893
-2.06924e-07
0.000136912
-2.12779e-07
0.000136931
-2.18727e-07
0.000136949
-2.24767e-07
0.000136966
-2.30895e-07
0.000136982
-2.37099e-07
0.000136998
-2.4337e-07
0.000137012
-2.49692e-07
-2.56038e-07
0.000137026
0.000140319
-9.9876e-09
0.000140325
-2.61689e-08
0.000140333
-4.23425e-08
0.000140343
-5.86644e-08
0.000140357
-7.46756e-08
0.000140372
-8.98035e-08
0.00014039
-1.03701e-07
0.000140409
-1.16247e-07
0.000140431
-1.2747e-07
0.000140453
-1.37483e-07
0.000140476
-1.46433e-07
0.0001405
-1.54476e-07
0.000140524
-1.61765e-07
0.000140548
-1.68438e-07
0.000140572
-1.74619e-07
0.000140596
-1.80414e-07
0.00014062
-1.85916e-07
0.000140644
-1.91201e-07
0.000140667
-1.96335e-07
0.000140689
-2.01372e-07
0.000140711
-2.06356e-07
0.000140733
-2.11322e-07
0.000140754
-2.163e-07
0.000140774
-2.21309e-07
0.000140793
-2.26366e-07
0.000140812
-2.3148e-07
0.00014083
-2.36655e-07
0.000140847
-2.41892e-07
0.000140863
-2.47187e-07
0.000140879
-2.52533e-07
0.000140893
-2.5792e-07
0.000140907
-2.63336e-07
-2.68757e-07
0.00014092
0.000144322
-7.04405e-09
0.000144323
-2.70909e-08
0.000144329
-4.87074e-08
0.000144341
-7.04525e-08
0.000144357
-9.07451e-08
0.000144376
-1.08968e-07
0.000144397
-1.25048e-07
0.00014442
-1.39111e-07
0.000144444
-1.5136e-07
0.000144469
-1.62026e-07
0.000144494
-1.71346e-07
0.000144519
-1.79542e-07
0.000144544
-1.86815e-07
0.000144569
-1.93339e-07
0.000144593
-1.99263e-07
0.000144617
-2.04712e-07
0.000144641
-2.09793e-07
0.000144665
-2.14594e-07
0.000144688
-2.19187e-07
0.00014471
-2.23634e-07
0.000144731
-2.27983e-07
0.000144752
-2.32273e-07
0.000144773
-2.36537e-07
0.000144792
-2.40797e-07
0.000144811
-2.45072e-07
0.000144829
-2.49371e-07
0.000144846
-2.53703e-07
0.000144862
-2.58069e-07
0.000144877
-2.62469e-07
0.000144892
-2.66896e-07
0.000144905
-2.71344e-07
0.000144918
-2.75804e-07
-2.80254e-07
0.000144929
0.000148457
-1.594e-08
0.000148464
-3.39275e-08
0.000148469
-5.43621e-08
0.000148476
-7.75329e-08
0.000148487
-1.01166e-07
0.000148501
-1.23207e-07
0.000148519
-1.42674e-07
0.000148539
-1.59447e-07
0.000148561
-1.73751e-07
0.000148585
-1.85893e-07
0.00014861
-1.96201e-07
0.000148636
-2.04988e-07
0.000148661
-2.12535e-07
0.000148687
-2.19081e-07
0.000148713
-2.24828e-07
0.000148738
-2.29944e-07
0.000148763
-2.34569e-07
0.000148787
-2.38814e-07
0.00014881
-2.42772e-07
0.000148833
-2.46518e-07
0.000148855
-2.50112e-07
0.000148877
-2.53601e-07
0.000148897
-2.57023e-07
0.000148917
-2.60407e-07
0.000148936
-2.63774e-07
0.000148953
-2.67139e-07
0.00014897
-2.70512e-07
0.000148986
-2.73898e-07
0.000149001
-2.77297e-07
0.000149015
-2.80707e-07
0.000149027
-2.84124e-07
0.000149039
-2.87542e-07
-2.90943e-07
0.00014905
0.000152671
2.34511e-09
0.000152666
-2.91105e-08
0.000152675
-6.2965e-08
0.000152693
-9.60563e-08
0.000152717
-1.24727e-07
0.000152743
-1.49099e-07
0.00015277
-1.69617e-07
0.000152797
-1.86803e-07
0.000152824
-2.01155e-07
0.000152852
-2.13122e-07
0.000152878
-2.23124e-07
0.000152905
-2.31523e-07
0.000152931
-2.38622e-07
0.000152957
-2.4467e-07
0.000152982
-2.49877e-07
0.000153006
-2.5441e-07
0.00015303
-2.58411e-07
0.000153053
-2.61993e-07
0.000153076
-2.65249e-07
0.000153097
-2.68255e-07
0.000153118
-2.71072e-07
0.000153139
-2.73749e-07
0.000153158
-2.76324e-07
0.000153176
-2.7883e-07
0.000153194
-2.81288e-07
0.00015321
-2.83716e-07
0.000153226
-2.86125e-07
0.000153241
-2.88524e-07
0.000153254
-2.90914e-07
0.000153267
-2.93297e-07
0.000153278
-2.9567e-07
0.000153289
-2.98029e-07
-3.00361e-07
0.000153298
0.000157077
-2.36079e-08
0.000157077
-2.86646e-08
0.000157065
-5.06106e-08
0.000157056
-8.77038e-08
0.000157058
-1.26285e-07
0.000157069
-1.60291e-07
0.000157087
-1.87729e-07
0.00015711
-2.09651e-07
0.000157136
-2.27173e-07
0.000157164
-2.41132e-07
0.000157193
-2.5225e-07
0.000157223
-2.61131e-07
0.000157252
-2.68257e-07
0.000157282
-2.74011e-07
0.000157311
-2.78693e-07
0.000157339
-2.82542e-07
0.000157366
-2.85742e-07
0.000157392
-2.8844e-07
0.000157418
-2.90751e-07
0.000157442
-2.92768e-07
0.000157466
-2.9456e-07
0.000157488
-2.96185e-07
0.00015751
-2.97687e-07
0.00015753
-2.991e-07
0.000157549
-3.00449e-07
0.000157567
-3.01754e-07
0.000157584
-3.0303e-07
0.0001576
-3.04286e-07
0.000157614
-3.05527e-07
0.000157628
-3.06756e-07
0.00015764
-3.07975e-07
0.000157651
-3.09184e-07
-3.10371e-07
0.000157661
0.00016147
4.53042e-08
0.000161456
-1.48301e-08
0.000161492
-8.72181e-08
0.000161536
-1.31719e-07
0.000161579
-1.69315e-07
0.000161617
-1.98184e-07
0.000161651
-2.21588e-07
0.000161682
-2.40754e-07
0.000161711
-2.56226e-07
0.000161739
-2.68698e-07
0.000161765
-2.7878e-07
0.000161791
-2.86933e-07
0.000161816
-2.93525e-07
0.000161841
-2.98853e-07
0.000161866
-3.03159e-07
0.00016189
-3.06638e-07
0.000161914
-3.09446e-07
0.000161937
-3.11712e-07
0.00016196
-3.13538e-07
0.000161982
-3.1501e-07
0.000162003
-3.16195e-07
0.000162024
-3.1715e-07
0.000162045
-3.1792e-07
0.000162064
-3.18543e-07
0.000162083
-3.19047e-07
0.0001621
-3.19457e-07
0.000162117
-3.1979e-07
0.000162133
-3.20061e-07
0.000162148
-3.20277e-07
0.000162161
-3.20447e-07
0.000162174
-3.20573e-07
0.000162185
-3.20655e-07
-3.20694e-07
0.000162196
0.000166191
8.1137e-09
0.000166127
4.8536e-08
0.000166047
-7.0904e-09
0.000165992
-7.60579e-08
0.000165979
-1.56851e-07
0.000165993
-2.12133e-07
0.000166023
-2.51054e-07
0.000166061
-2.78808e-07
0.000166104
-2.99119e-07
0.000166149
-3.14176e-07
0.000166196
-3.25376e-07
0.000166242
-3.33712e-07
0.000166289
-3.39898e-07
0.000166334
-3.44445e-07
0.000166379
-3.47729e-07
0.000166422
-3.50027e-07
0.000166464
-3.51551e-07
0.000166505
-3.5246e-07
0.000166544
-3.52881e-07
0.000166582
-3.5291e-07
0.000166619
-3.52625e-07
0.000166654
-3.52088e-07
0.000166687
-3.5135e-07
0.000166719
-3.50449e-07
0.000166749