/*--------------------------------*- C++ -*----------------------------------*\
  =========                 |
  \\      /  F ield         | OpenFOAM: The Open Source CFD Toolbox
   \\    /   O peration     | Website:  https://openfoam.org
    \\  /    A nd           | Version:  10
     \\/     M anipulation  |
\*---------------------------------------------------------------------------*/
FoamFile
{
    format      ascii;
    class       volVectorField;
    location    "0.185";
    object      U;
}
// * * * * * * * * * * * * * * * * * * * * * * * * * * * * * * * * * * * * * //

dimensions      [0 1 -1 0 0 0 0];

internalField   nonuniform List<vector> 
6820
(
(7.33663 -0.254709 0)
(7.37111 -0.152738 0)
(7.32899 -0.0594682 0)
(7.25211 -0.0117163 0)
(7.17469 0.00797488 0)
(7.1048 0.013982 0)
(7.0437 0.0144729 0)
(6.99081 0.0130984 0)
(6.94465 0.01135 0)
(6.90384 0.00977531 0)
(6.86729 0.00851464 0)
(6.8342 0.00755535 0)
(6.80396 0.00684121 0)
(6.7761 0.00631301 0)
(6.75029 0.00592129 0)
(6.72624 0.00562849 0)
(6.70375 0.0054074 0)
(6.68264 0.00523903 0)
(6.66275 0.00511069 0)
(6.64395 0.00501455 0)
(6.62612 0.00494671 0)
(6.60914 0.00490693 0)
(6.5929 0.00489913 0)
(6.57726 0.004933 0)
(6.56207 0.00502696 0)
(6.54713 0.00521722 0)
(6.53214 0.00557607 0)
(6.51663 0.00620241 0)
(6.4996 0.00766525 0)
(6.47968 0.00927128 0)
(6.45322 0.0184237 0)
(6.40775 0.0210083 0)
(6.35749 0.0490145 0)
(7.32387 0.121388 0)
(7.30439 0.12328 0)
(7.30895 0.0779818 0)
(7.32917 0.0528055 0)
(7.34723 0.0392074 0)
(7.35527 0.0314038 0)
(7.35426 0.0269535 0)
(7.34713 0.0242095 0)
(7.33615 0.0223144 0)
(7.3229 0.0208768 0)
(7.30844 0.0197013 0)
(7.29343 0.0186876 0)
(7.27827 0.0177856 0)
(7.26322 0.0169693 0)
(7.24841 0.0162239 0)
(7.23393 0.0155409 0)
(7.21983 0.0149145 0)
(7.20611 0.014341 0)
(7.1928 0.0138183 0)
(7.17988 0.0133459 0)
(7.16735 0.0129253 0)
(7.15518 0.0125605 0)
(7.14336 0.0122599 0)
(7.13187 0.0120386 0)
(7.12068 0.0119228 0)
(7.10974 0.0119638 0)
(7.09911 0.0122392 0)
(7.08859 0.0129621 0)
(7.07898 0.0143659 0)
(7.06876 0.0174367 0)
(7.06488 0.023414 0)
(7.05884 0.035275 0)
(7.08786 0.0649136 0)
(7.32565 -0.04379 0)
(7.32324 -0.0517248 0)
(7.33515 -0.0261897 0)
(7.34297 -0.00270332 0)
(7.34787 0.0104519 0)
(7.35204 0.0169089 0)
(7.35501 0.0199869 0)
(7.35652 0.02128 0)
(7.35654 0.0216304 0)
(7.35519 0.0215114 0)
(7.35272 0.0211701 0)
(7.34934 0.0207336 0)
(7.34527 0.0202679 0)
(7.34067 0.0198064 0)
(7.33567 0.0193647 0)
(7.33038 0.0189498 0)
(7.32488 0.0185647 0)
(7.31924 0.0182108 0)
(7.3135 0.0178895 0)
(7.30769 0.017603 0)
(7.30185 0.0173554 0)
(7.29599 0.0171533 0)
(7.29011 0.0170078 0)
(7.28421 0.0169363 0)
(7.27827 0.0169687 0)
(7.27227 0.0171463 0)
(7.26619 0.0175639 0)
(7.25993 0.0182849 0)
(7.25369 0.0197372 0)
(7.24699 0.0215718 0)
(7.24136 0.0262053 0)
(7.23559 0.0291151 0)
(7.23406 0.039901 0)
(7.33338 0.0117919 0)
(7.33034 0.0329293 0)
(7.32952 0.0333659 0)
(7.33251 0.0276676 0)
(7.33791 0.0242903 0)
(7.3434 0.0228255 0)
(7.34798 0.0222755 0)
(7.35161 0.0220607 0)
(7.35438 0.0219248 0)
(7.35635 0.021786 0)
(7.35761 0.0216192 0)
(7.35825 0.0214189 0)
(7.35837 0.0211892 0)
(7.35804 0.020938 0)
(7.35732 0.0206734 0)
(7.35629 0.0204029 0)
(7.35499 0.0201336 0)
(7.35347 0.0198724 0)
(7.35175 0.019626 0)
(7.34987 0.0194019 0)
(7.34785 0.0192092 0)
(7.34571 0.0190596 0)
(7.34344 0.0189699 0)
(7.34106 0.0189634 0)
(7.33856 0.0190768 0)
(7.33593 0.0193611 0)
(7.33319 0.0199098 0)
(7.33028 0.0208245 0)
(7.32739 0.0223888 0)
(7.32442 0.0246591 0)
(7.32226 0.0286446 0)
(7.32114 0.0333496 0)
(7.32289 0.0416111 0)
(7.33122 -0.00351755 0)
(7.33003 -0.00431367 0)
(7.33357 0.00130358 0)
(7.33713 0.00876501 0)
(7.34039 0.0141427 0)
(7.34363 0.0171619 0)
(7.34675 0.0188148 0)
(7.3497 0.0197443 0)
(7.3524 0.0202551 0)
(7.35481 0.0205182 0)
(7.35689 0.0206295 0)
(7.35867 0.0206427 0)
(7.36015 0.0205914 0)
(7.36135 0.020498 0)
(7.36231 0.0203777 0)
(7.36304 0.0202418 0)
(7.36356 0.0200994 0)
(7.3639 0.0199583 0)
(7.36408 0.0198266 0)
(7.3641 0.019713 0)
(7.36398 0.0196278 0)
(7.36374 0.0195844 0)
(7.36337 0.0196011 0)
(7.36288 0.0197028 0)
(7.36228 0.0199263 0)
(7.36156 0.0203201 0)
(7.36076 0.0209667 0)
(7.35988 0.0219462 0)
(7.35907 0.0234599 0)
(7.3584 0.0255139 0)
(7.35839 0.0286125 0)
(7.35944 0.0319875 0)
(7.36218 0.0363518 0)
(7.33264 0.00208981 0)
(7.33222 0.00992659 0)
(7.3339 0.0141382 0)
(7.33637 0.0160286 0)
(7.33933 0.0171551 0)
(7.34248 0.0179485 0)
(7.34549 0.0185763 0)
(7.34829 0.0190586 0)
(7.3509 0.0193944 0)
(7.35331 0.0196131 0)
(7.35554 0.019745 0)
(7.35759 0.0198113 0)
(7.35947 0.019828 0)
(7.36119 0.0198079 0)
(7.36276 0.0197611 0)
(7.36419 0.0196964 0)
(7.36548 0.0196216 0)
(7.36664 0.0195446 0)
(7.36768 0.0194737 0)
(7.36861 0.0194182 0)
(7.36943 0.0193895 0)
(7.37014 0.0194017 0)
(7.37076 0.0194738 0)
(7.37128 0.0196307 0)
(7.37172 0.0199071 0)
(7.37209 0.0203473 0)
(7.37241 0.0210179 0)
(7.37275 0.0219837 0)
(7.37321 0.0233686 0)
(7.37394 0.0251833 0)
(7.37526 0.0276206 0)
(7.37754 0.0302765 0)
(7.38104 0.0331765 0)
(7.33258 0.000841321 0)
(7.33241 0.00454952 0)
(7.33425 0.0081214 0)
(7.33681 0.0113428 0)
(7.33957 0.0139474 0)
(7.34236 0.0157409 0)
(7.34502 0.0169136 0)
(7.34754 0.0176799 0)
(7.34994 0.018175 0)
(7.35222 0.0184922 0)
(7.35438 0.0186918 0)
(7.35644 0.0188103 0)
(7.35839 0.0188715 0)
(7.36025 0.0188922 0)
(7.36202 0.0188847 0)
(7.36369 0.0188586 0)
(7.36528 0.0188223 0)
(7.36679 0.018784 0)
(7.36822 0.0187519 0)
(7.36957 0.0187355 0)
(7.37084 0.0187462 0)
(7.37204 0.0187978 0)
(7.37318 0.0189083 0)
(7.37425 0.0191007 0)
(7.37528 0.0194054 0)
(7.37627 0.0198589 0)
(7.37728 0.0205109 0)
(7.37835 0.0214062 0)
(7.37959 0.0226121 0)
(7.38114 0.0241206 0)
(7.3832 0.0259689 0)
(7.38605 0.0278897 0)
(7.38975 0.0296818 0)
(7.33284 0.00134504 0)
(7.333 0.00539055 0)
(7.33454 0.00896813 0)
(7.33674 0.011679 0)
(7.33919 0.0136772 0)
(7.34177 0.015064 0)
(7.3443 0.0160252 0)
(7.34672 0.0167015 0)
(7.34903 0.0171693 0)
(7.35123 0.017486 0)
(7.35334 0.0176954 0)
(7.35536 0.0178277 0)
(7.3573 0.0179042 0)
(7.35918 0.0179406 0)
(7.36099 0.017949 0)
(7.36274 0.0179389 0)
(7.36444 0.0179188 0)
(7.36608 0.0178968 0)
(7.36767 0.0178811 0)
(7.36921 0.0178811 0)
(7.3707 0.0179075 0)
(7.37214 0.0179736 0)
(7.37355 0.0180956 0)
(7.37493 0.0182935 0)
(7.37629 0.0185923 0)
(7.37766 0.0190201 0)
(7.37908 0.0196109 0)
(7.3806 0.0203917 0)
(7.38232 0.0213912 0)
(7.38434 0.0225867 0)
(7.38681 0.0239466 0)
(7.38988 0.0252841 0)
(7.39357 0.0263862 0)
(7.33291 0.00134604 0)
(7.33319 0.00471775 0)
(7.33457 0.00778385 0)
(7.33658 0.0102772 0)
(7.33885 0.0122645 0)
(7.34125 0.0137442 0)
(7.34363 0.0148047 0)
(7.34594 0.0155555 0)
(7.34816 0.0160765 0)
(7.35029 0.0164307 0)
(7.35234 0.0166664 0)
(7.35432 0.0168173 0)
(7.35624 0.016907 0)
(7.3581 0.016953 0)
(7.35991 0.0169684 0)
(7.36168 0.0169637 0)
(7.3634 0.016948 0)
(7.36509 0.0169297 0)
(7.36675 0.016917 0)
(7.36837 0.016919 0)
(7.36996 0.016946 0)
(7.37153 0.0170099 0)
(7.37309 0.0171247 0)
(7.37464 0.0173071 0)
(7.3762 0.0175761 0)
(7.37779 0.0179517 0)
(7.37946 0.0184544 0)
(7.38126 0.0190964 0)
(7.38325 0.0198819 0)
(7.38553 0.0207784 0)
(7.38818 0.021729 0)
(7.3913 0.0225954 0)
(7.39486 0.023203 0)
(7.33297 0.00132421 0)
(7.33334 0.00436701 0)
(7.33458 0.00719243 0)
(7.33639 0.00952199 0)
(7.33846 0.0113748 0)
(7.34067 0.0127684 0)
(7.34291 0.0137834 0)
(7.34512 0.0145161 0)
(7.34726 0.0150366 0)
(7.34933 0.0153984 0)
(7.35134 0.0156435 0)
(7.35329 0.0158027 0)
(7.35518 0.0158984 0)
(7.35702 0.0159479 0)
(7.35882 0.0159646 0)
(7.36059 0.0159593 0)
(7.36232 0.0159412 0)
(7.36403 0.0159187 0)
(7.36571 0.0159002 0)
(7.36737 0.0158943 0)
(7.36902 0.0159103 0)
(7.37065 0.0159586 0)
(7.37229 0.016051 0)
(7.37394 0.0162004 0)
(7.37562 0.0164203 0)
(7.37735 0.0167234 0)
(7.37917 0.0171196 0)
(7.38113 0.0176102 0)
(7.38328 0.0181851 0)
(7.38568 0.0188075 0)
(7.38838 0.0194165 0)
(7.39144 0.019908 0)
(7.39483 0.0201534 0)
(7.333 0.00126415 0)
(7.3334 0.00398903 0)
(7.33453 0.00652514 0)
(7.33616 0.00865224 0)
(7.33806 0.0103755 0)
(7.34011 0.0117102 0)
(7.34222 0.0127095 0)
(7.34432 0.0134451 0)
(7.34638 0.0139758 0)
(7.3484 0.0143491 0)
(7.35036 0.0146041 0)
(7.35227 0.0147702 0)
(7.35413 0.01487 0)
(7.35596 0.0149208 0)
(7.35775 0.0149359 0)
(7.35951 0.0149266 0)
(7.36124 0.0149021 0)
(7.36295 0.0148708 0)
(7.36464 0.0148407 0)
(7.36632 0.01482 0)
(7.368 0.0148168 0)
(7.36967 0.0148401 0)
(7.37136 0.0148991 0)
(7.37307 0.0150031 0)
(7.37482 0.0151609 0)
(7.37664 0.015379 0)
(7.37855 0.0156596 0)
(7.3806 0.0159966 0)
(7.38282 0.0163722 0)
(7.38525 0.0167499 0)
(7.38794 0.017074 0)
(7.39089 0.0172656 0)
(7.39408 0.0172341 0)
(7.33302 0.00118228 0)
(7.33343 0.00363553 0)
(7.33445 0.00592543 0)
(7.33593 0.00787762 0)
(7.33767 0.00947905 0)
(7.33958 0.0107399 0)
(7.34156 0.011699 0)
(7.34356 0.012414 0)
(7.34554 0.012936 0)
(7.34749 0.013307 0)
(7.3494 0.013562 0)
(7.35127 0.0137283 0)
(7.35311 0.0138271 0)
(7.35491 0.0138749 0)
(7.35669 0.0138851 0)
(7.35844 0.0138684 0)
(7.36016 0.0138339 0)
(7.36187 0.01379 0)
(7.36357 0.0137439 0)
(7.36526 0.0137031 0)
(7.36696 0.0136747 0)
(7.36866 0.0136658 0)
(7.37038 0.0136833 0)
(7.37213 0.0137334 0)
(7.37392 0.0138207 0)
(7.37579 0.013947 0)
(7.37776 0.0141092 0)
(7.37984 0.0142967 0)
(7.38208 0.0144888 0)
(7.3845 0.0146516 0)
(7.38712 0.0147377 0)
(7.38995 0.0146877 0)
(7.39295 0.0144393 0)
(7.33303 0.00108998 0)
(7.33342 0.00329856 0)
(7.33436 0.00535943 0)
(7.33571 0.00713768 0)
(7.33731 0.00861268 0)
(7.33908 0.00979154 0)
(7.34095 0.0107029 0)
(7.34284 0.0113912 0)
(7.34474 0.0118989 0)
(7.34662 0.0122625 0)
(7.34848 0.0125128 0)
(7.35032 0.012675 0)
(7.35212 0.0127689 0)
(7.3539 0.0128105 0)
(7.35566 0.0128124 0)
(7.35739 0.0127852 0)
(7.35911 0.0127377 0)
(7.36082 0.0126776 0)
(7.36252 0.0126118 0)
(7.36422 0.0125467 0)
(7.36592 0.0124882 0)
(7.36764 0.0124417 0)
(7.36938 0.012412 0)
(7.37115 0.0124025 0)
(7.37298 0.0124148 0)
(7.37487 0.012447 0)
(7.37686 0.0124928 0)
(7.37895 0.0125391 0)
(7.38118 0.0125654 0)
(7.38355 0.0125415 0)
(7.38608 0.0124287 0)
(7.38877 0.0121826 0)
(7.39158 0.0117604 0)
(7.33303 0.000993638 0)
(7.33341 0.00297808 0)
(7.33427 0.00482844 0)
(7.33551 0.00644117 0)
(7.33698 0.00779225 0)
(7.33863 0.00888498 0)
(7.34038 0.00974006 0)
(7.34218 0.010392 0)
(7.344 0.010876 0)
(7.34582 0.0112237 0)
(7.34762 0.0114623 0)
(7.34941 0.0116145 0)
(7.35119 0.0116988 0)
(7.35294 0.0117299 0)
(7.35467 0.0117201 0)
(7.35639 0.0116791 0)
(7.3581 0.0116153 0)
(7.3598 0.0115358 0)
(7.3615 0.0114467 0)
(7.3632 0.0113535 0)
(7.3649 0.0112609 0)
(7.36663 0.0111729 0)
(7.36838 0.0110921 0)
(7.37016 0.01102 0)
(7.372 0.0109555 0)
(7.3739 0.0108945 0)
(7.37588 0.0108287 0)
(7.37796 0.0107447 0)
(7.38015 0.0106229 0)
(7.38246 0.0104378 0)
(7.3849 0.0101586 0)
(7.38745 0.00975194 0)
(7.39009 0.00918879 0)
(7.33303 0.000897054 0)
(7.33339 0.00267311 0)
(7.33418 0.00432768 0)
(7.33532 0.00578085 0)
(7.33668 0.00700829 0)
(7.33822 0.00801034 0)
(7.33986 0.00880203 0)
(7.34157 0.00941002 0)
(7.34332 0.00986326 0)
(7.34507 0.0101886 0)
(7.34682 0.0104098 0)
(7.34857 0.0105472 0)
(7.3503 0.0106175 0)
(7.35203 0.0106345 0)
(7.35374 0.0106094 0)
(7.35544 0.0105514 0)
(7.35713 0.0104682 0)
(7.35882 0.0103662 0)
(7.36051 0.0102508 0)
(7.36221 0.0101265 0)
(7.36391 0.00999678 0)
(7.36563 0.00986426 0)
(7.36738 0.00973015 0)
(7.36917 0.00959401 0)
(7.37101 0.00945318 0)
(7.3729 0.00930212 0)
(7.37486 0.00913178 0)
(7.37691 0.00892906 0)
(7.37905 0.00867656 0)
(7.38128 0.00835298 0)
(7.38361 0.00793417 0)
(7.38602 0.00739525 0)
(7.3885 0.00671653 0)
(7.33303 0.000802323 0)
(7.33337 0.0023827 0)
(7.3341 0.00385386 0)
(7.33514 0.00515343 0)
(7.33641 0.00625849 0)
(7.33785 0.00716707 0)
(7.3394 0.00788985 0)
(7.34102 0.00844729 0)
(7.34269 0.00886294 0)
(7.34438 0.00915949 0)
(7.34608 0.00935753 0)
(7.34778 0.00947501 0)
(7.34948 0.00952697 0)
(7.35117 0.0095259 0)
(7.35286 0.00948207 0)
(7.35454 0.00940394 0)
(7.35621 0.00929843 0)
(7.35789 0.00917121 0)
(7.35957 0.00902684 0)
(7.36125 0.00886889 0)
(7.36295 0.00869986 0)
(7.36466 0.00852113 0)
(7.36641 0.00833269 0)
(7.36818 0.00813284 0)
(7.37 0.00791783 0)
(7.37188 0.00768142 0)
(7.37381 0.00741454 0)
(7.37581 0.00710509 0)
(7.37789 0.00673799 0)
(7.38003 0.00629584 0)
(7.38225 0.00575988 0)
(7.38454 0.00511158 0)
(7.38686 0.00433762 0)
(7.33303 0.000710487 0)
(7.33334 0.0021058 0)
(7.33402 0.00340383 0)
(7.33499 0.00455515 0)
(7.33617 0.00553897 0)
(7.33751 0.00635175 0)
(7.33898 0.00700085 0)
(7.34052 0.00750193 0)
(7.34212 0.00787399 0)
(7.34375 0.00813601 0)
(7.3454 0.00830564 0)
(7.34706 0.00839851 0)
(7.34872 0.00842797 0)
(7.35038 0.0084052 0)
(7.35203 0.00833944 0)
(7.35369 0.00823826 0)
(7.35534 0.0081078 0)
(7.357 0.00795295 0)
(7.35866 0.00777747 0)
(7.36033 0.00758407 0)
(7.36202 0.00737432 0)
(7.36372 0.00714865 0)
(7.36544 0.00690609 0)
(7.3672 0.00664411 0)
(7.369 0.00635835 0)
(7.37084 0.00604238 0)
(7.37273 0.00568758 0)
(7.37468 0.00528315 0)
(7.37668 0.00481633 0)
(7.37874 0.00427309 0)
(7.38085 0.00363895 0)
(7.383 0.0029001 0)
(7.38519 0.00204764 0)
(7.33303 0.000621957 0)
(7.33332 0.00184125 0)
(7.33395 0.00297478 0)
(7.33485 0.00398267 0)
(7.33595 0.00484652 0)
(7.33721 0.00556182 0)
(7.3386 0.0061334 0)
(7.34007 0.00657316 0)
(7.34161 0.0068963 0)
(7.34318 0.00711855 0)
(7.34477 0.00725486 0)
(7.34639 0.0073187 0)
(7.34801 0.00732173 0)
(7.34963 0.00727381 0)
(7.35126 0.00718309 0)
(7.35289 0.00705621 0)
(7.35452 0.00689851 0)
(7.35616 0.00671406 0)
(7.3578 0.00650587 0)
(7.35945 0.00627584 0)
(7.36112 0.0060248 0)
(7.3628 0.00575239 0)
(7.3645 0.00545697 0)
(7.36623 0.00513549 0)
(7.36799 0.00478334 0)
(7.36979 0.00439429 0)
(7.37163 0.00396043 0)
(7.37352 0.00347235 0)
(7.37544 0.00291945 0)
(7.37741 0.0022905 0)
(7.37941 0.00157441 0)
(7.38144 0.00076087 0)
(7.38349 -0.000155916 0)
(7.33302 0.000536771 0)
(7.3333 0.0015879 0)
(7.33389 0.00256416 0)
(7.33472 0.00343288 0)
(7.33576 0.004178 0)
(7.33695 0.0047945 0)
(7.33826 0.00528532 0)
(7.33967 0.00565942 0)
(7.34114 0.00592887 0)
(7.34266 0.00610656 0)
(7.3442 0.00620502 0)
(7.34577 0.0062357 0)
(7.34736 0.00620862 0)
(7.34895 0.00613233 0)
(7.35055 0.00601386 0)
(7.35215 0.00585893 0)
(7.35375 0.00567202 0)
(7.35537 0.00545644 0)
(7.35698 0.00521446 0)
(7.35861 0.00494731 0)
(7.36025 0.00465514 0)
(7.36191 0.00433702 0)
(7.36358 0.00399086 0)
(7.36528 0.00361336 0)
(7.367 0.00319992 0)
(7.36875 0.0027447 0)
(7.37053 0.00224065 0)
(7.37235 0.00167973 0)
(7.37419 0.00105324 0)
(7.37606 0.000352288 0)
(7.37796 -0.000431618 0)
(7.37987 -0.00130615 0)
(7.38178 -0.00227494 0)
(7.33302 0.000454764 0)
(7.33328 0.00134455 0)
(7.33383 0.00216964 0)
(7.33461 0.00290294 0)
(7.33559 0.00353051 0)
(7.33671 0.00404723 0)
(7.33796 0.00445465 0)
(7.33931 0.00475946 0)
(7.34072 0.00497112 0)
(7.34218 0.0051001 0)
(7.34368 0.00515674 0)
(7.34521 0.00515062 0)
(7.34676 0.00509021 0)
(7.34831 0.00498274 0)
(7.34988 0.00483417 0)
(7.35145 0.00464925 0)
(7.35303 0.00443164 0)
(7.35462 0.00418391 0)
(7.35621 0.00390765 0)
(7.35781 0.00360349 0)
(7.35942 0.00327105 0)
(7.36104 0.00290898 0)
(7.36268 0.00251493 0)
(7.36434 0.00208551 0)
(7.36601 0.00161632 0)
(7.36771 0.00110205 0)
(7.36943 0.000536531 0)
(7.37117 -8.7005e-05 0)
(7.37293 -0.000775635 0)
(7.37471 -0.00153635 0)
(7.37649 -0.0023756 0)
(7.37829 -0.00329912 0)
(7.38008 -0.00430897 0)
(7.33302 0.000375659 0)
(7.33326 0.00111001 0)
(7.33378 0.00178908 0)
(7.33452 0.00239011 0)
(7.33543 0.00290112 0)
(7.3365 0.00331711 0)
(7.33769 0.00363869 0)
(7.33898 0.00387078 0)
(7.34034 0.00402074 0)
(7.34176 0.00409699 0)
(7.34321 0.00410795 0)
(7.3447 0.0040615 0)
(7.34621 0.00396461 0)
(7.34773 0.00382332 0)
(7.34926 0.00364248 0)
(7.35081 0.0034259 0)
(7.35236 0.00317646 0)
(7.35391 0.00289598 0)
(7.35547 0.0025855 0)
(7.35704 0.00224509 0)
(7.35862 0.00187393 0)
(7.36021 0.00147037 0)
(7.3618 0.00103193 0)
(7.36341 0.000555285 0)
(7.36504 3.63399e-05 0)
(7.36668 -0.00052967 0)
(7.36833 -0.00114805 0)
(7.36999 -0.00182442 0)
(7.37167 -0.0025645 0)
(7.37335 -0.00337374 0)
(7.37503 -0.00425705 0)
(7.37671 -0.00521865 0)
(7.37838 -0.00625953 0)
(7.33302 0.000299134 0)
(7.33325 0.00088317 0)
(7.33373 0.00142055 0)
(7.33443 0.00189211 0)
(7.3353 0.00228761 0)
(7.33632 0.00260245 0)
(7.33746 0.00283661 0)
(7.33869 0.0029937 0)
(7.34 0.00307927 0)
(7.34137 0.00309997 0)
(7.34279 0.00306251 0)
(7.34423 0.0029732 0)
(7.34571 0.00283762 0)
(7.34719 0.0026607 0)
(7.3487 0.0024461 0)
(7.35021 0.00219681 0)
(7.35173 0.00191508 0)
(7.35325 0.00160177 0)
(7.35478 0.00125751 0)
(7.35631 0.000881991 0)
(7.35786 0.000474047 0)
(7.3594 3.18285e-05 0)
(7.36096 -0.0004472 0)
(7.36252 -0.000966212 0)
(7.36408 -0.00152895 0)
(7.36566 -0.0021396 0)
(7.36724 -0.00280268 0)
(7.36883 -0.00352283 0)
(7.37042 -0.00430463 0)
(7.372 -0.00515231 0)
(7.37358 -0.00606957 0)
(7.37516 -0.00705952 0)
(7.37671 -0.00812235 0)
(7.33302 0.000224847 0)
(7.33324 0.000662871 0)
(7.3337 0.00106197 0)
(7.33436 0.00140586 0)
(7.33518 0.00168587 0)
(7.33615 0.00189793 0)
(7.33725 0.00204177 0)
(7.33844 0.00212008 0)
(7.3397 0.00213713 0)
(7.34103 0.00209829 0)
(7.34241 0.00200872 0)
(7.34382 0.00187329 0)
(7.34525 0.00169605 0)
(7.34671 0.00148148 0)
(7.34818 0.0012318 0)
(7.34966 0.000949087 0)
(7.35114 0.000634557 0)
(7.35263 0.000289252 0)
(7.35413 -8.72231e-05 0)
(7.35563 -0.000495679 0)
(7.35713 -0.000937453 0)
(7.35863 -0.00141452 0)
(7.36014 -0.00192939 0)
(7.36165 -0.00248506 0)
(7.36316 -0.0030849 0)
(7.36467 -0.00373258 0)
(7.36618 -0.00443191 0)
(7.36768 -0.0051867 0)
(7.36918 -0.00600058 0)
(7.37068 -0.00687683 0)
(7.37216 -0.0078182 0)
(7.37362 -0.00882697 0)
(7.37506 -0.00990277 0)
(7.33302 0.000152495 0)
(7.33322 0.000448356 0)
(7.33366 0.000712594 0)
(7.33429 0.000931526 0)
(7.33508 0.00109808 0)
(7.33601 0.00120885 0)
(7.33706 0.0012634 0)
(7.33821 0.00126376 0)
(7.33944 0.00121226 0)
(7.34073 0.00111331 0)
(7.34207 0.000970909 0)
(7.34344 0.000788602 0)
(7.34485 0.000569867 0)
(7.34627 0.000316216 0)
(7.34771 3.039e-05 0)
(7.34915 -0.000286264 0)
(7.35061 -0.000633393 0)
(7.35206 -0.00101051 0)
(7.35352 -0.00141845 0)
(7.35498 -0.00185836 0)
(7.35644 -0.00233175 0)
(7.3579 -0.00284067 0)
(7.35936 -0.00338756 0)
(7.36081 -0.00397521 0)
(7.36226 -0.00460662 0)
(7.3637 -0.00528498 0)
(7.36514 -0.00601349 0)
(7.36657 -0.00679524 0)
(7.36798 -0.00763314 0)
(7.36938 -0.00852969 0)
(7.37076 -0.00948693 0)
(7.37212 -0.0105065 0)
(7.37346 -0.0115877 0)
(7.33302 8.16802e-05 0)
(7.33321 0.000237774 0)
(7.33363 0.000367662 0)
(7.33423 0.000459491 0)
(7.33499 0.00050779 0)
(7.33589 0.000510402 0)
(7.3369 0.000467571 0)
(7.33802 0.000380992 0)
(7.33921 0.000254406 0)
(7.34046 8.98225e-05 0)
(7.34177 -0.000110046 0)
(7.34311 -0.000342681 0)
(7.34449 -0.000605739 0)
(7.34588 -0.000898855 0)
(7.34728 -0.00122025 0)
(7.3487 -0.00156949 0)
(7.35012 -0.00194665 0)
(7.35154 -0.00235267 0)
(7.35296 -0.00278836 0)
(7.35438 -0.0032551 0)
(7.3558 -0.00375472 0)
(7.35721 -0.00428935 0)
(7.35861 -0.0048614 0)
(7.36001 -0.00547344 0)
(7.3614 -0.00612821 0)
(7.36277 -0.00682844 0)
(7.36414 -0.00757684 0)
(7.36549 -0.00837593 0)
(7.36682 -0.00922801 0)
(7.36813 -0.010135 0)
(7.36941 -0.0110983 0)
(7.37067 -0.0121193 0)
(7.3719 -0.0131967 0)
(7.33302 1.25315e-05 0)
(7.3332 3.36628e-05 0)
(7.3336 3.61901e-05 0)
(7.33417 1.02648e-05 0)
(7.3349 -4.858e-05 0)
(7.33577 -0.000142422 0)
(7.33675 -0.000271599 0)
(7.33784 -0.000435305 0)
(7.339 -0.000630742 0)
(7.34023 -0.000856873 0)
(7.34151 -0.00111196 0)
(7.34283 -0.00139434 0)
(7.34417 -0.00170312 0)
(7.34554 -0.00203675 0)
(7.34691 -0.00239552 0)
(7.3483 -0.00277963 0)
(7.34969 -0.00318957 0)
(7.35107 -0.00362632 0)
(7.35246 -0.00409112 0)
(7.35384 -0.00458563 0)
(7.35521 -0.00511176 0)
(7.35657 -0.00567163 0)
(7.35792 -0.00626753 0)
(7.35926 -0.00690186 0)
(7.36059 -0.00757705 0)
(7.3619 -0.00829548 0)
(7.36319 -0.00905943 0)
(7.36446 -0.00987098 0)
(7.3657 -0.010732 0)
(7.36692 -0.0116438 0)
(7.36812 -0.0126076 0)
(7.36928 -0.0136243 0)
(7.37041 -0.0146925 0)
(7.33302 -5.65702e-05 0)
(7.3332 -0.00017563 0)
(7.33358 -0.000314816 0)
(7.33414 -0.000481796 0)
(7.33485 -0.000676498 0)
(7.33569 -0.000896396 0)
(7.33665 -0.00113873 0)
(7.33771 -0.00140097 0)
(7.33884 -0.00168229 0)
(7.34005 -0.00198114 0)
(7.3413 -0.00229708 0)
(7.34259 -0.00263023 0)
(7.3439 -0.00298111 0)
(7.34524 -0.00335038 0)
(7.34659 -0.00373928 0)
(7.34794 -0.00414904 0)
(7.3493 -0.00458111 0)
(7.35065 -0.00503719 0)
(7.352 -0.00551915 0)
(7.35333 -0.00602898 0)
(7.35466 -0.00656881 0)
(7.35598 -0.00714086 0)
(7.35728 -0.00774739 0)
(7.35856 -0.00839066 0)
(7.35982 -0.00907287 0)
(7.36106 -0.00979611 0)
(7.36228 -0.0105623 0)
(7.36347 -0.0113731 0)
(7.36464 -0.0122301 0)
(7.36578 -0.0131342 0)
(7.36688 -0.0140862 0)
(7.36795 -0.0150867 0)
(7.36898 -0.0161344 0)
(7.33301 -0.000120383 0)
(7.33318 -0.000354454 0)
(7.33353 -0.00059264 0)
(7.33406 -0.000845745 0)
(7.33475 -0.00111819 0)
(7.33557 -0.00141126 0)
(7.33651 -0.00172438 0)
(7.33756 -0.00205581 0)
(7.33868 -0.00240375 0)
(7.33987 -0.00276656 0)
(7.34111 -0.00314341 0)
(7.34239 -0.00353405 0)
(7.34369 -0.00393871 0)
(7.34501 -0.00435803 0)
(7.34633 -0.0047931 0)
(7.34766 -0.00524531 0)
(7.34899 -0.00571629 0)
(7.35031 -0.0062079 0)
(7.35162 -0.00672212 0)
(7.35292 -0.00726107 0)
(7.3542 -0.00782693 0)
(7.35547 -0.00842194 0)
(7.35671 -0.0090483 0)
(7.35794 -0.00970818 0)
(7.35914 -0.0104036 0)
(7.36031 -0.0111365 0)
(7.36146 -0.0119085 0)
(7.36258 -0.0127212 0)
(7.36367 -0.0135757 0)
(7.36472 -0.0144729 0)
(7.36574 -0.0154134 0)
(7.36672 -0.0163976 0)
(7.36765 -0.0174242 0)
(7.33302 -0.000198055 0)
(7.3332 -0.000613905 0)
(7.33357 -0.0010602 0)
(7.33409 -0.00153018 0)
(7.33476 -0.00200761 0)
(7.33556 -0.00248016 0)
(7.33648 -0.00294182 0)
(7.3375 -0.00339097 0)
(7.3386 -0.00382882 0)
(7.33976 -0.00425806 0)
(7.34098 -0.00468211 0)
(7.34223 -0.00510471 0)
(7.3435 -0.00552957 0)
(7.34479 -0.00596026 0)
(7.34609 -0.00640013 0)
(7.34739 -0.00685236 0)
(7.34869 -0.00731988 0)
(7.34998 -0.0078055 0)
(7.35125 -0.00831186 0)
(7.35251 -0.00884148 0)
(7.35376 -0.00939675 0)
(7.35498 -0.00997997 0)
(7.35617 -0.0105933 0)
(7.35734 -0.0112386 0)
(7.35849 -0.0119179 0)
(7.3596 -0.0126327 0)
(7.36068 -0.0133844 0)
(7.36173 -0.0141741 0)
(7.36274 -0.0150029 0)
(7.36372 -0.0158712 0)
(7.36465 -0.0167794 0)
(7.36555 -0.0177277 0)
(7.3664 -0.0187148 0)
(7.333 -0.000222047 0)
(7.3331 -0.000624653 0)
(7.33339 -0.00101812 0)
(7.33388 -0.00143747 0)
(7.33454 -0.00189265 0)
(7.33536 -0.00237916 0)
(7.3363 -0.00288747 0)
(7.33735 -0.00340806 0)
(7.33848 -0.00393382 0)
(7.33967 -0.00446023 0)
(7.3409 -0.00498505 0)
(7.34216 -0.00550778 0)
(7.34343 -0.00602923 0)
(7.34472 -0.00655101 0)
(7.34601 -0.00707537 0)
(7.34729 -0.00760484 0)
(7.34856 -0.00814218 0)
(7.34982 -0.0086902 0)
(7.35106 -0.00925171 0)
(7.35229 -0.00982948 0)
(7.35348 -0.0104262 0)
(7.35466 -0.0110443 0)
(7.3558 -0.0116862 0)
(7.35692 -0.0123541 0)
(7.358 -0.0130499 0)
(7.35905 -0.0137754 0)
(7.36006 -0.0145321 0)
(7.36104 -0.0153211 0)
(7.36198 -0.0161435 0)
(7.36287 -0.0169998 0)
(7.36373 -0.0178906 0)
(7.36454 -0.0188159 0)
(7.3653 -0.0197747 0)
(7.33305 -0.000402442 0)
(7.3333 -0.00127549 0)
(7.33366 -0.00220072 0)
(7.33414 -0.00311007 0)
(7.33475 -0.00395292 0)
(7.3355 -0.00471331 0)
(7.33637 -0.00539482 0)
(7.33735 -0.00600808 0)
(7.33842 -0.00656576 0)
(7.33957 -0.00708054 0)
(7.34076 -0.00756405 0)
(7.34199 -0.00802647 0)
(7.34324 -0.00847645 0)
(7.3445 -0.00892121 0)
(7.34577 -0.00936676 0)
(7.34703 -0.00981815 0)
(7.34829 -0.0102796 0)
(7.34952 -0.0107548 0)
(7.35074 -0.0112468 0)
(7.35193 -0.0117584 0)
(7.3531 -0.0122919 0)
(7.35423 -0.0128495 0)
(7.35534 -0.0134331 0)
(7.35641 -0.0140442 0)
(7.35745 -0.0146844 0)
(7.35844 -0.0153546 0)
(7.3594 -0.016056 0)
(7.36032 -0.0167892 0)
(7.36119 -0.0175548 0)
(7.36202 -0.018353 0)
(7.3628 -0.0191839 0)
(7.36354 -0.0200474 0)
(7.36423 -0.0209422 0)
(7.33293 -0.000137736 0)
(7.33282 -0.00032907 0)
(7.33298 -0.000583353 0)
(7.33345 -0.00102498 0)
(7.33417 -0.00164184 0)
(7.33508 -0.00237232 0)
(7.33612 -0.00316068 0)
(7.33725 -0.00396831 0)
(7.33844 -0.00477091 0)
(7.33968 -0.00555417 0)
(7.34094 -0.00631104 0)
(7.34221 -0.00703946 0)
(7.34349 -0.00774055 0)
(7.34476 -0.00841736 0)
(7.34602 -0.00907396 0)
(7.34726 -0.00971492 0)
(7.34849 -0.0103449 0)
(7.34969 -0.0109686 0)
(7.35086 -0.0115903 0)
(7.35201 -0.0122141 0)
(7.35313 -0.0128437 0)
(7.35421 -0.0134826 0)
(7.35526 -0.0141338 0)
(7.35627 -0.0148 0)
(7.35724 -0.0154834 0)
(7.35817 -0.0161863 0)
(7.35906 -0.0169101 0)
(7.3599 -0.0176564 0)
(7.3607 -0.0184261 0)
(7.36145 -0.0192201 0)
(7.36216 -0.0200387 0)
(7.36282 -0.0208825 0)
(7.36343 -0.0217505 0)
(7.33316 -0.000851311 0)
(7.33362 -0.00284056 0)
(7.33393 -0.00478958 0)
(7.3342 -0.00643005 0)
(7.33461 -0.00772135 0)
(7.33522 -0.00872704 0)
(7.33602 -0.00951678 0)
(7.33696 -0.0101479 0)
(7.33802 -0.0106667 0)
(7.33917 -0.0111091 0)
(7.34038 -0.0115022 0)
(7.34163 -0.0118665 0)
(7.3429 -0.0122164 0)
(7.34417 -0.0125627 0)
(7.34544 -0.0129132 0)
(7.3467 -0.0132734 0)
(7.34793 -0.0136475 0)
(7.34914 -0.0140387 0)
(7.35033 -0.0144493 0)
(7.35147 -0.0148811 0)
(7.35259 -0.0153358 0)
(7.35366 -0.0158143 0)
(7.35469 -0.0163178 0)
(7.35569 -0.0168469 0)
(7.35663 -0.0174024 0)
(7.35753 -0.0179845 0)
(7.35839 -0.0185937 0)
(7.35919 -0.0192301 0)
(7.35995 -0.0198937 0)
(7.36066 -0.0205845 0)
(7.36132 -0.0213021 0)
(7.36192 -0.0220465 0)
(7.36248 -0.0228162 0)
(7.33266 0.000542743 0)
(7.33187 0.00182104 0)
(7.33191 0.0024905 0)
(7.33264 0.00221361 0)
(7.33371 0.00128387 0)
(7.33492 2.97592e-05 0)
(7.3362 -0.00134855 0)
(7.33751 -0.00274524 0)
(7.33883 -0.00410103 0)
(7.34014 -0.00538376 0)
(7.34144 -0.00658037 0)
(7.34273 -0.00768951 0)
(7.34399 -0.00871611 0)
(7.34523 -0.0096683 0)
(7.34645 -0.0105556 0)
(7.34764 -0.0113878 0)
(7.3488 -0.0121744 0)
(7.34993 -0.0129241 0)
(7.35103 -0.0136449 0)
(7.35209 -0.0143438 0)
(7.35312 -0.0150271 0)
(7.3541 -0.0157004 0)
(7.35505 -0.0163684 0)
(7.35596 -0.0170351 0)
(7.35682 -0.0177042 0)
(7.35764 -0.0183786 0)
(7.35841 -0.0190607 0)
(7.35914 -0.0197527 0)
(7.35982 -0.0204562 0)
(7.36045 -0.0211723 0)
(7.36103 -0.0219022 0)
(7.36156 -0.0226464 0)
(7.36204 -0.0234047 0)
(7.33353 -0.00200491 0)
(7.33444 -0.00679269 0)
(7.33405 -0.0112586 0)
(7.33334 -0.0140524 0)
(7.33312 -0.0156459 0)
(7.33345 -0.0165476 0)
(7.33417 -0.0170155 0)
(7.33515 -0.0172209 0)
(7.3363 -0.0172815 0)
(7.33757 -0.0172734 0)
(7.33892 -0.0172441 0)
(7.34029 -0.0172224 0)
(7.34168 -0.017225 0)
(7.34306 -0.017261 0)
(7.34442 -0.0173347 0)
(7.34575 -0.0174477 0)
(7.34705 -0.0175999 0)
(7.34831 -0.0177904 0)
(7.34952 -0.0180176 0)
(7.35069 -0.01828 0)
(7.35181 -0.0185762 0)
(7.35288 -0.0189046 0)
(7.35391 -0.0192638 0)
(7.35488 -0.0196528 0)
(7.3558 -0.0200703 0)
(7.35667 -0.0205153 0)
(7.35748 -0.020987 0)
(7.35825 -0.0214844 0)
(7.35896 -0.0220068 0)
(7.35961 -0.0225534 0)
(7.36021 -0.0231234 0)
(7.36076 -0.0237163 0)
(7.36126 -0.0243307 0)
(7.33179 0.00340714 0)
(7.32899 0.0092469 0)
(7.32947 0.0119051 0)
(7.33183 0.0116443 0)
(7.33397 0.00958512 0)
(7.33576 0.00692208 0)
(7.33737 0.00415702 0)
(7.33884 0.00147969 0)
(7.3402 -0.00100857 0)
(7.34148 -0.00326551 0)
(7.3427 -0.00528817 0)
(7.34389 -0.00709159 0)
(7.34504 -0.00869797 0)
(7.34618 -0.0101318 0)
(7.3473 -0.0114174 0)
(7.3484 -0.012577 0)
(7.34949 -0.0136307 0)
(7.35055 -0.0145961 0)
(7.3516 -0.0154884 0)
(7.35262 -0.0163206 0)
(7.35362 -0.017104 0)
(7.35459 -0.0178479 0)
(7.35552 -0.0185605 0)
(7.35643 -0.0192486 0)
(7.35729 -0.019918 0)
(7.35811 -0.0205734 0)
(7.3589 -0.021219 0)
(7.35964 -0.0218582 0)
(7.36033 -0.0224937 0)
(7.36098 -0.0231278 0)
(7.36157 -0.0237623 0)
(7.36212 -0.0243984 0)
(7.36262 -0.0250369 0)
(7.33408 -0.00611472 0)
(7.33406 -0.0189207 0)
(7.33031 -0.0269343 0)
(7.32666 -0.030419 0)
(7.3251 -0.0311703 0)
(7.32535 -0.0307148 0)
(7.32644 -0.0297248 0)
(7.32798 -0.0285257 0)
(7.32979 -0.0273144 0)
(7.33176 -0.0261941 0)
(7.33381 -0.0252088 0)
(7.33588 -0.0243724 0)
(7.33794 -0.023684 0)
(7.33997 -0.0231341 0)
(7.34196 -0.0227102 0)
(7.3439 -0.0223984 0)
(7.34579 -0.0221857 0)
(7.34762 -0.0220597 0)
(7.34939 -0.0220096 0)
(7.3511 -0.0220261 0)
(7.35274 -0.0221009 0)
(7.35431 -0.0222271 0)
(7.35582 -0.0223987 0)
(7.35726 -0.0226109 0)
(7.35864 -0.0228594 0)
(7.35994 -0.0231406 0)
(7.36118 -0.0234514 0)
(7.36235 -0.0237894 0)
(7.36346 -0.0241523 0)
(7.36449 -0.0245382 0)
(7.36546 -0.0249455 0)
(7.36636 -0.025373 0)
(7.3672 -0.0258189 0)
(7.32967 0.0198643 0)
(7.32498 0.0370184 0)
(7.32933 0.0377108 0)
(7.33514 0.0323164 0)
(7.33883 0.0259107 0)
(7.34106 0.0196163 0)
(7.34292 0.0137387 0)
(7.34472 0.00847772 0)
(7.34652 0.00387895 0)
(7.34841 -0.000104147 0)
(7.35039 -0.00354083 0)
(7.35247 -0.00650263 0)
(7.35462 -0.00905839 0)
(7.35683 -0.0112705 0)
(7.35908 -0.0131934 0)
(7.36134 -0.0148734 0)
(7.3636 -0.0163498 0)
(7.36585 -0.0176556 0)
(7.36807 -0.0188185 0)
(7.37026 -0.0198617 0)
(7.37239 -0.0208047 0)
(7.37446 -0.0216636 0)
(7.37647 -0.0224522 0)
(7.37842 -0.0231819 0)
(7.38029 -0.0238622 0)
(7.38208 -0.0245013 0)
(7.3838 -0.0251061 0)
(7.38543 -0.0256824 0)
(7.38698 -0.0262352 0)
(7.38845 -0.0267686 0)
(7.38983 -0.0272864 0)
(7.39113 -0.0277913 0)
(7.39234 -0.028287 0)
(7.32507 -0.0330736 0)
(7.29738 -0.0587461 0)
(7.2781 -0.0616604 0)
(7.27379 -0.0592693 0)
(7.2804 -0.0557471 0)
(7.29184 -0.0516875 0)
(7.30511 -0.0477327 0)
(7.31885 -0.0442123 0)
(7.33232 -0.0411748 0)
(7.34509 -0.0386018 0)
(7.35701 -0.0364558 0)
(7.36802 -0.0346847 0)
(7.37813 -0.0332347 0)
(7.38738 -0.0320561 0)
(7.39582 -0.0311057 0)
(7.40352 -0.0303461 0)
(7.41052 -0.029746 0)
(7.41689 -0.029279 0)
(7.42268 -0.0289235 0)
(7.42793 -0.0286616 0)
(7.43269 -0.0284786 0)
(7.437 -0.0283624 0)
(7.4409 -0.028303 0)
(7.44441 -0.0282921 0)
(7.44756 -0.0283228 0)
(7.45038 -0.0283895 0)
(7.4529 -0.0284875 0)
(7.45514 -0.0286127 0)
(7.45711 -0.0287616 0)
(7.45883 -0.0289315 0)
(7.46033 -0.0291195 0)
(7.46162 -0.0293233 0)
(7.46271 -0.0295399 0)
(7.33915 0.134727 0)
(7.37621 0.127078 0)
(7.39344 0.0872176 0)
(7.38983 0.0533425 0)