/*--------------------------------*- C++ -*----------------------------------*\
  =========                 |
  \\      /  F ield         | OpenFOAM: The Open Source CFD Toolbox
   \\    /   O peration     | Website:  https://openfoam.org
    \\  /    A nd           | Version:  10
     \\/     M anipulation  |
\*---------------------------------------------------------------------------*/
FoamFile
{
    format      ascii;
    class       volScalarField;
    location    "0.19";
    object      k;
}
// * * * * * * * * * * * * * * * * * * * * * * * * * * * * * * * * * * * * * //

dimensions      [0 2 -2 0 0 0 0];

internalField   nonuniform List<scalar> 
6820
(
0.198344
0.194811
0.191216
0.187599
0.184004
0.180459
0.176974
0.173554
0.170201
0.166914
0.163695
0.160542
0.157454
0.154431
0.15147
0.148571
0.14573
0.142947
0.140216
0.137535
0.134899
0.132303
0.129738
0.127196
0.124666
0.122132
0.119575
0.11697
0.114279
0.111456
0.108389
0.105132
0.100474
0.200925
0.200904
0.200478
0.200025
0.199572
0.199108
0.198629
0.19813
0.197611
0.197073
0.196515
0.19594
0.195349
0.194744
0.194126
0.193497
0.192859
0.192215
0.191565
0.190911
0.190256
0.189601
0.188948
0.188297
0.187651
0.18701
0.186374
0.185742
0.185115
0.18448
0.183857
0.183089
0.18273
0.236722
0.0163471
0.0364947
0.0097851
0.00681906
0.00801856
0.00952366
0.011513
0.0136514
0.0158754
0.0181557
0.0204715
0.0228088
0.0251572
0.0275089
0.029858
0.0322006
0.0345346
0.0368592
0.0391757
0.0414871
0.0437984
0.0461172
0.0484538
0.050822
0.0532402
0.0557329
0.0583322
0.0610825
0.0640434
0.0672954
0.0709865
0.0751372
0.210786
0.147901
0.104811
0.0794554
0.063837
0.0532681
0.0454844
0.0393811
0.0343843
0.0301726
0.0265523
0.0233994
0.0206312
0.0181907
0.0160381
0.0141447
0.0124897
0.0110569
0.00983245
0.0088032
0.00795541
0.00727445
0.00674517
0.00635286
0.00608442
0.00592948
0.00588142
0.00593849
0.00610468
0.00639378
0.00682471
0.00745944
0.0082958
0.223416
0.082893
0.0212022
0.00418636
0.000701837
0.000434958
0.000742293
0.00105718
0.00131635
0.00153641
0.00173035
0.00190222
0.00205185
0.002178
0.00227963
0.00235636
0.00240847
0.00243684
0.0024428
0.00242791
0.00239383
0.00234219
0.00227443
0.00219172
0.00209488
0.00198431
0.00185995
0.00172124
0.00156718
0.00139581
0.00120733
0.000990457
0.000779023
0.217102
0.114903
0.0542804
0.0304821
0.0212109
0.0167123
0.0135405
0.010656
0.00787638
0.00535683
0.00332264
0.00188421
0.000989204
0.000491387
0.000238668
0.000118984
6.51344e-05
4.21744e-05
3.3623e-05
3.25182e-05
3.55335e-05
4.09603e-05
4.78628e-05
5.56098e-05
6.36442e-05
7.13738e-05
7.81283e-05
8.29894e-05
8.53709e-05
8.18484e-05
7.68353e-05
5.96735e-05
0.000407887
0.213469
0.133137
0.0675844
0.0359577
0.0224853
0.0165096
0.0134795
0.0117136
0.0105577
0.00972936
0.00909589
0.00859102
0.00817884
0.00783665
0.00754637
0.00728875
0.0070402
0.00677533
0.00644466
0.00600895
0.00546022
0.00483834
0.00421705
0.00366441
0.00321435
0.00286752
0.00260702
0.0024114
0.00226255
0.0021445
0.00204869
0.00196304
0.0018818
0.204235
0.179133
0.130256
0.0775607
0.0439831
0.0268434
0.0184447
0.0141178
0.011683
0.0101805
0.00917785
0.00846724
0.00793968
0.00753335
0.00721065
0.00694895
0.00673844
0.00658944
0.00652006
0.00647209
0.00642656
0.00637504
0.00631458
0.00624674
0.00617515
0.00610313
0.00603361
0.00596669
0.00590047
0.00583055
0.00575103
0.00565509
0.00551838
0.202905
0.185567
0.16142
0.126441
0.089364
0.060737
0.0419191
0.0303038
0.0231479
0.0185814
0.0155144
0.0133411
0.0117214
0.0104564
0.00942236
0.00853868
0.00774274
0.00709902
0.00680615
0.00667906
0.00661369
0.00657455
0.00654553
0.00652161
0.0065043
0.00649719
0.00650305
0.00652166
0.00655025
0.0065831
0.00661126
0.00661374
0.00655218
0.202254
0.188787
0.173939
0.156723
0.132336
0.103739
0.0772498
0.0566086
0.0420477
0.0321606
0.025427
0.0207182
0.017297
0.0147017
0.0126422
0.0109407
0.00952532
0.00849765
0.00798425
0.00771417
0.00754841
0.00743478
0.00735264
0.007294
0.00725648
0.00723949
0.00724206
0.00726219
0.00729736
0.00734344
0.00739463
0.00742447
0.0074093
0.201798
0.191041
0.179378
0.168435
0.155805
0.140007
0.121127
0.10091
0.081768
0.065311
0.0520194
0.0416401
0.0336331
0.0274495
0.0226534
0.0189638
0.0162304
0.0144324
0.013362
0.0126889
0.0122191
0.0118704
0.0116051
0.0114047
0.0112578
0.0111559
0.0110918
0.0110595
0.0110538
0.0110697
0.0111002
0.0111186
0.0110855
0.201475
0.192637
0.183218
0.17514
0.167207
0.15821
0.14711
0.133377
0.117572
0.101042
0.0852025
0.0710425
0.0590172
0.0491862
0.0414147
0.0355136
0.0312878
0.0284336
0.0265184
0.0251759
0.0241812
0.0234112
0.0227974
0.0223043
0.0219101
0.0215994
0.0213601
0.0211833
0.0210615
0.020988
0.0209515
0.0209189
0.0207932
0.201235
0.193824
0.185959
0.179488
0.173786
0.168331
0.162597
0.155864
0.147537
0.137403
0.125707
0.113085
0.100382
0.0884423
0.0779511
0.0693303
0.0626626
0.0576846
0.0539677
0.0511177
0.0488639
0.047039
0.0455355
0.0442952
0.0432771
0.0424484
0.0417828
0.0412603
0.0408642
0.0405791
0.0403812
0.0402174
0.039914
0.201062
0.19468
0.187952
0.18265
0.178334
0.174591
0.171052
0.167255
0.162751
0.157208
0.150467
0.142596
0.133915
0.124942
0.116277
0.108442
0.10173
0.0961525
0.0915293
0.0876074
0.0842152
0.0812724
0.0787275
0.0765454
0.0746937
0.0731413
0.0718583
0.0708166
0.0699873
0.0693374
0.068815
0.0683274
0.0676287
0.200937
0.195301
0.189397
0.184914
0.181516
0.178854
0.176663
0.174651
0.172518
0.16999
0.166837
0.162909
0.158187
0.152809
0.147038
0.141195
0.13556
0.130252
0.125245
0.120547
0.116205
0.112269
0.108763
0.105685
0.103016
0.100726
0.0987779
0.0971307
0.0957374
0.0945421
0.0934656
0.0923927
0.0910877
0.200848
0.19574
0.190419
0.186495
0.183725
0.181759
0.180325
0.179165
0.178046
0.176778
0.175204
0.17321
0.170738
0.167773
0.164329
0.160474
0.156314
0.151961
0.147498
0.143046
0.138719
0.134608
0.130777
0.127258
0.124066
0.121196
0.118631
0.116342
0.11429
0.112423
0.110665
0.108917
0.107003
0.200788
0.196035
0.191073
0.187434
0.184992
0.183403
0.182388
0.181706
0.181147
0.180541
0.179743
0.178629
0.177101
0.175092
0.17256
0.169513
0.166008
0.162142
0.158038
0.153829
0.149638
0.145568
0.141695
0.138065
0.134703
0.131615
0.128788
0.126202
0.123821
0.121599
0.119472
0.11737
0.115179
0.200753
0.19621
0.191424
0.187909
0.185604
0.184177
0.183348
0.182868
0.182533
0.182174
0.181661
0.180882
0.17975
0.178203
0.176204
0.173751
0.170876
0.167644
0.164143
0.160475
0.156741
0.153029
0.149411
0.145938
0.14264
0.139532
0.136614
0.133874
0.131288
0.128819
0.126414
0.124042
0.121645
0.200739
0.196275
0.191525
0.188027
0.185748
0.184368
0.183601
0.183198
0.182953
0.182702
0.182317
0.181693
0.180746
0.179418
0.177673
0.175509
0.17295
0.170051
0.166885
0.163537
0.160092
0.156627
0.153204
0.149871
0.146658
0.143581
0.140643
0.137837
0.135137
0.132504
0.129903
0.127346
0.124833
0.200748
0.196232
0.191388
0.187803
0.18546
0.18404
0.183249
0.182833
0.182581
0.182332
0.181965
0.181385
0.180521
0.179327
0.177776
0.175867
0.173618
0.17107
0.168275
0.165295
0.162194
0.15903
0.155854
0.152706
0.149613
0.146596
0.143659
0.140789
0.137962
0.135156
0.132364
0.12962
0.12698
0.200778
0.196077
0.190997
0.187214
0.184718
0.183179
0.182291
0.18179
0.181462
0.181148
0.180732
0.180125
0.179267
0.178114
0.176647
0.174864
0.17278
0.170428
0.167849
0.165091
0.162205
0.159237
0.156228
0.153212
0.150215
0.147246
0.144293
0.141345
0.138396
0.135447
0.132502
0.129615
0.126874
0.200835
0.195793
0.190319
0.186216
0.183476
0.181746
0.180698
0.180054
0.179598
0.179171
0.178661
0.177988
0.177098
0.175958
0.17455
0.172875
0.170943
0.168778
0.16641
0.163874
0.161206
0.15844
0.155606
0.152733
0.149831
0.146882
0.143884
0.140846
0.13778
0.134694
0.131603
0.128567
0.125689
0.200923
0.195347
0.189286
0.184728
0.181654
0.179669
0.178415
0.177595
0.176983
0.176419
0.175796
0.175036
0.174093
0.172934
0.171546
0.169926
0.168084
0.166035
0.163802
0.161411
0.158888
0.156259
0.153543
0.15075
0.147868
0.144892
0.141837
0.138719
0.135555
0.13236
0.129152
0.125997
0.122996
0.201058
0.194668
0.187769
0.182595
0.17909
0.176792
0.175294
0.174271
0.173485
0.172773
0.172026
0.171174
0.17017
0.168988
0.167613
0.166042
0.164279
0.162336
0.160227
0.157969
0.155582
0.153076
0.150433
0.147654
0.144741
0.141711
0.138582
0.135372
0.132102
0.128789
0.125457
0.122172
0.119033
0.201256
0.193673
0.185614
0.179643
0.175622
0.172979
0.171234
0.170021
0.169082
0.168244
0.167398
0.166474
0.165425
0.164226
0.162862
0.161327
0.159623
0.157754
0.155732
0.153562
0.151251
0.148791
0.146166
0.14338
0.140443
0.137373
0.134188
0.130908
0.127554
0.124147
0.120714
0.117322
0.114057
0.201544
0.192226
0.182574
0.175571
0.170921
0.167882
0.165865
0.164448
0.163348
0.162383
0.161438
0.160442
0.159351
0.158136
0.156779
0.155274
0.153617
0.151811
0.149857
0.147729
0.145419
0.142926
0.140254
0.137413
0.134414
0.131272
0.128007
0.124638
0.12119
0.117685
0.114151
0.110653
0.107267
0.201964
0.19011
0.178312
0.170068
0.164772
0.161397
0.159194
0.157662
0.156479
0.15545
0.154458
0.153429
0.152319
0.1511
0.149756
0.14827
0.146636
0.144852
0.142908
0.140783
0.13847
0.135971
0.133289
0.130432
0.12741
0.124234
0.120924
0.1175
0.113988
0.110412
0.106804
0.103224
0.0997371
0.202602
0.1869
0.172128
0.162304
0.156239
0.15248
0.150066
0.148402
0.147132
0.146045
0.145018
0.143974
0.142865
0.141661
0.14034
0.138863
0.137208
0.13537
0.133348
0.131143
0.128758
0.126194
0.123453
0.120539
0.11746
0.114228
0.11086
0.107379
0.103812
0.100188
0.0965366
0.092916
0.0893762
0.20357
0.182034
0.163447
0.152012
0.145402
0.141499
0.139064
0.137403
0.136131
0.135039
0.133993
0.13292
0.131779
0.130543
0.129191
0.12768
0.125993
0.124127
0.122084
0.119865
0.117472
0.114905
0.112164
0.109251
0.10617
0.102935
0.0995628
0.0960786
0.0925114
0.0888927
0.0852551
0.0816514
0.0781202
0.20513
0.174194
0.150338
0.136907
0.129654
0.12558
0.123131
0.121518
0.120331
0.119324
0.118327
0.117261
0.11609
0.114793
0.113355
0.111761
0.110006
0.108088
0.106009
0.103772
0.101377
0.0988251
0.0961141
0.093245
0.0902237
0.0870628
0.0837826
0.0804104
0.0769778
0.0735184
0.0700649
0.066664
0.0633407
0.207554
0.162035
0.132463
0.117621
0.110073
0.105872
0.103285
0.101533
0.100216
0.0990727
0.0979635
0.0968279
0.0956315
0.094347
0.0929502
0.0914202
0.0897414
0.087905
0.0859089
0.083757
0.0814568
0.0790176
0.0764489
0.0737607
0.0709642
0.068074
0.0651093
0.0620946
0.0590589
0.056034
0.0530507
0.0501481
0.047342
0.211216
0.143783
0.107761
0.0914644
0.0834514
0.0789416
0.07614
0.0742611
0.072888
0.0717777
0.0707943
0.0698616
0.0689249
0.0679394
0.066867
0.0656762
0.0643433
0.0628544
0.0612073
0.0594113
0.0574864
0.0554582
0.0533536
0.051196
0.0490031
0.0467881
0.0445626
0.0423397
0.0401369
0.0379762
0.0358817
0.0338832
0.0319908
0.217908
0.110835
0.0676993
0.0518128
0.0452049
0.0419463
0.0401199
0.0390058
0.0382694
0.0377309
0.0372893
0.0368904
0.0364959
0.0360773
0.0356152
0.0350971
0.0345158
0.0338671
0.0331474
0.0323535
0.0314832
0.0305372
0.0295216
0.0284488
0.0273378
0.0262115
0.0250941
0.0240072
0.0229673
0.0219849
0.0210636
0.0202054
0.0194033
0.22455
0.0773099
0.0317422
0.0192266
0.015745
0.0147449
0.0144702
0.0144248
0.0144505
0.014487
0.0145072
0.0144982
0.0144529
0.0143669
0.01424
0.0140752
0.0138786
0.0136572
0.0134163
0.0131577
0.0128792
0.0125767
0.0122465
0.0118893
0.0115117
0.0111258
0.0107469
0.0103895
0.0100644
0.00977678
0.00952584
0.00930688
0.00911134
0.226973
0.0651294
0.0200852
0.00887214
0.00618854
0.00563016
0.00560915
0.00572177
0.00585595
0.00597363
0.00605962
0.00610712
0.00611324
0.00607803
0.00600495
0.00590123
0.0057777
0.00564736
0.00552314
0.00541501
0.00532771
0.00525991
0.0052053
0.00515503
0.00510071
0.00503675
0.00496155
0.00487724
0.00478867
0.00470179
0.00462185
0.00455301
0.00449702
0.224208
0.077246
0.0313208
0.0182475
0.0140905
0.012321
0.0112081
0.0102849
0.0094252
0.00859997
0.00780629
0.00705136
0.00634696
0.00570112
0.00511632
0.0045912
0.00412229
0.00370502
0.00333439
0.00300538
0.00271313
0.00245306
0.002221
0.00201327
0.00182673
0.00165879
0.00150733
0.00137071
0.00124778
0.00113731
0.00103879
0.000951558
0.000877201
0.213265
0.134524
0.088568
0.0645729
0.0513384
0.0432753
0.0378762
0.0339897
0.031045
0.0287256
0.0268466
0.025289
0.0239748
0.0228521
0.0218829
0.0210377
0.0202943
0.0196356
0.0190486
0.0185226
0.0180495
0.0176226
0.0172364
0.016886
0.0165668
0.016275
0.0160071
0.0157599
0.0155308
0.0153176
0.0151166
0.0149286
0.014738
0.240249
0.000472349
0.0365085
0.0330584
0.000621985
0.000192005
0.00266814
0.00149777
0.000582864
0.000293906
0.000804712
0.00136108
0.00110679
0.000554795
0.000405328
0.000487495
0.000538496
0.000560875
0.000596862
0.000643686
0.000693307
0.000748365
0.000812374
0.00088354
0.00095655
0.00102667
0.00109288
0.00115865
0.00123024
0.00131363
0.00141206
0.00152613
0.00165408
0.200085
0.199947
0.199761
0.19958
0.199409
0.199244
0.199084
0.198925
0.198766
0.198607
0.198447
0.198288
0.198127
0.197966
0.197806
0.197648
0.197491
0.197337
0.197186
0.197039
0.196896
0.196759
0.196627
0.196501
0.196383
0.196271
0.196167
0.196072
0.195985
0.195909
0.195841
0.195788
0.195731
0.199876
0.199566
0.199231
0.198883
0.198532
0.198182
0.197838
0.197499
0.197168
0.196844
0.196527
0.196218
0.195916
0.195619
0.195329
0.195044
0.194763
0.194486
0.194212
0.193941
0.193672
0.193405
0.193138
0.192871
0.192604
0.192336
0.192066
0.191795
0.19152
0.191243
0.190961
0.190676
0.190386
0.0981686
0.119504
0.149417
0.161031
0.166258
0.172422
0.173235
0.168468
0.175036
0.172409
0.10209
0.0642369
0.0670478
0.0785035
0.0861929
0.0898327
0.0916535
0.0934936
0.0954871
0.0969673
0.0972015
0.0956994
0.0890203
0.0784706
0.0765708
0.0847947
0.0826646
0.0588273
0.0288799
0.014344
0.0221146
0.0435061
0.0662596
0.0828259
0.0909503
0.0913311
0.0857568
0.0764362
0.0659536
0.0570825
0.0521619
0.0523481
0.0572681
0.065277
0.0740385
0.0810729
0.0842993
0.082868
0.078233
0.0746584
0.0776998
0.0900429
0.107602
0.120863
0.121466
0.108637
0.0888398
0.0696823
0.0573108
0.0571027
0.0702226
0.0896323
0.10396
0.108089
0.107661
0.112122
0.125335
0.15126
0.189689
0.237841
0.296608
0.362961
0.421367
0.444074
0.409499
0.328249
0.234979
0.162712
0.123014
0.109482
0.110391
0.115066
0.116752
0.113579
0.10763
0.102058
0.0993731
0.108144
0.138097
0.174322
0.185179
0.165272
0.136336
0.113125
0.094427
0.0778644
0.0658909
0.0601775
0.0599788
0.0590956
0.179467
0.174311
0.171047
0.170342
0.169993
0.16511
0.153521
0.140084
0.134551
0.149688
0.150852
0.109016
0.07369
0.0678462
0.0754449
0.0833332
0.0880689
0.0905574
0.092148
0.0927843
0.0922126
0.0879434
0.0786022
0.0737096
0.0814682
0.0876439
0.0727262
0.0419518
0.0174959
0.0140865
0.0296945
0.0528893
0.07361
0.0870029
0.0922789
0.0905923
0.0837178
0.0737294
0.0631016
0.0545364
0.0502935
0.0514067
0.0573472
0.0663346
0.075982
0.0838349
0.0877823
0.0867171
0.0815923
0.0762249
0.0763874
0.0860833
0.10301
0.118296
0.122341
0.11211
0.0928035
0.0726963
0.0590348
0.0577385
0.0704684
0.0907378
0.106962
0.112688
0.112467
0.115216
0.125428
0.148725
0.186694
0.236164
0.296196
0.362718
0.420531
0.443353
0.411067
0.332513
0.239916
0.166433
0.124936
0.109857
0.110045
0.11522
0.118391
0.117116
0.112553
0.106778
0.10155
0.104799
0.128976
0.164381
0.179935
0.164854
0.13761
0.114584
0.0960525
0.0790649
0.0656646
0.0582819
0.0569395
0.0567536
0.0815061
0.0886193
0.0939772
0.0966109
0.0948348
0.0870337
0.0748801
0.0641673
0.060347
0.075606
0.112709
0.13063
0.111004
0.0833709
0.0710118
0.0716572
0.0765823
0.0809232
0.0833503
0.0839013
0.0816949
0.0752586
0.0709992
0.0782925
0.0889903
0.0823174
0.054625
0.0245687
0.011045
0.0187319
0.0394399
0.0622688
0.080067
0.0901584
0.0927435
0.0892079
0.081231
0.0707369
0.0601052
0.0519791
0.0485348
0.0506663
0.0576718
0.0676294
0.0781088
0.0867148
0.0913748
0.0908007
0.0854625
0.0786175
0.0759907
0.0826591
0.0982241
0.114965
0.12245
0.115358
0.0971409
0.0762848
0.0611691
0.058474
0.0704916
0.0914115
0.109554
0.117161
0.117507
0.118873
0.126156
0.146266
0.18275
0.232822
0.293599
0.359879
0.416509
0.438917
0.40896
0.333808
0.242945
0.169241
0.126625
0.110271
0.109734
0.115188
0.119645
0.120114
0.116914
0.11142
0.104848
0.104044
0.122839
0.156412
0.175241
0.164192
0.138468
0.115642
0.0974311
0.0803057
0.0656932
0.0566258
0.0538879
0.0540039
0.00987532
0.0123201
0.0147888
0.0161147
0.0156156
0.0136072
0.0109574
0.00895649
0.00863257
0.0145943
0.0415034
0.0849707
0.112906
0.110958
0.0938837
0.0793956
0.0727063
0.0711469
0.0711541
0.0705421
0.068385
0.069184
0.0785704
0.0906515
0.0880551
0.0638189
0.031948
0.0115871
0.0115542
0.0277467
0.0503459
0.0710428
0.0853672
0.0921911
0.0923217
0.0871956
0.0783281
0.0674941
0.0570036
0.0494551
0.0469312
0.0501637
0.0582624
0.0691619
0.0803999
0.0896715
0.095007
0.0950203
0.0897394
0.0817803
0.076573
0.0799658
0.0934429
0.1109
0.12163
0.118159
0.101729
0.0804687
0.0638059
0.0593951
0.070334
0.0916219
0.111639
0.121382
0.122675
0.12306
0.127602
0.14408
0.178079
0.227935
0.288597
0.354147
0.409021
0.430529
0.403065
0.332019
0.243912
0.170999
0.127999
0.110689
0.109453
0.115042
0.120513
0.122576
0.120887
0.116163
0.109007
0.105208
0.119151
0.150372
0.171312
0.163438
0.138959
0.116303
0.0985358
0.081553
0.0659662
0.0552325
0.0509539
0.050975
0.00045994
6.93171e-05
1.78085e-05
0.00048286
0.00102119
0.00108262
0.000805671
0.000716856
0.000988016
8.50043e-05
0.00350848
0.0259046
0.0634523
0.0943134
0.105769
0.101976
0.0929766
0.0852154
0.080563
0.0785339
0.0806307
0.0885136
0.0963673
0.0910271
0.0674169
0.0359877
0.0128901
0.0075175
0.0188536
0.0393889
0.0611715
0.0786637
0.0893286
0.0930762
0.0910527
0.0846064
0.075049
0.0640306
0.053826
0.046998
0.0455163
0.0499238
0.0591271
0.0709212
0.0828267
0.0926559
0.0985976
0.0992537
0.0942757
0.0855981
0.0781377
0.078175
0.088917
0.106227
0.119767
0.120249
0.106372
0.0852302
0.0670385
0.0606083
0.0700622
0.0913527
0.113117
0.125213
0.127845
0.127719
0.129838
0.142384
0.172923
0.221586
0.28147
0.345371
0.397737
0.418108
0.393493
0.327138
0.242691
0.171576
0.12898
0.111075
0.109186
0.114833
0.121071
0.124467
0.12442
0.121066
0.113995
0.107904
0.117381
0.145823
0.167875
0.162426
0.138994
0.116521
0.0993075
0.0827371
0.0664545
0.0541353
0.0482341
0.0478444
0.000258425
7.15128e-05
0.000244077
0.000309236
0.000123065
0.000146032
0.000274252
0.000320392
0.000232337
9.43644e-07
0.000744336
0.00170252
0.0165362
0.0439849
0.0718342
0.0903954
0.0984746
0.100011
0.0992417
0.0994929
0.100983
0.0987781
0.0861136
0.0618786
0.0334433
0.0121112
0.00516025
0.0129539
0.0305968
0.0517978
0.0710573
0.0847978
0.0918423
0.0928188
0.088987
0.0814887
0.0714273
0.0603753
0.050608
0.0446503
0.044331
0.0499741
0.0602729
0.0728936
0.0853598
0.0956243
0.102079
0.103392
0.0989253
0.0899304
0.0806368
0.0774095
0.0849046
0.101155
0.116838
0.121379
0.110808
0.0904855
0.070945
0.0622392
0.069758
0.0906068
0.113895
0.128499
0.132866
0.132741
0.132904
0.141413
0.167572
0.213887
0.272211
0.333347
0.382422
0.401831
0.380572
0.319279
0.239246
0.170908
0.12952
0.11139
0.108909
0.114586
0.121414
0.125806
0.127335
0.125774
0.11944
0.111783
0.117224
0.142496
0.164746
0.161051
0.13852
0.116287
0.0997182
0.0837997
0.0671194
0.0533514
0.0457723
0.0447125
0.00179705
0.00169918
0.00160469
0.00151619
0.0014444
0.00137825
0.0012921
0.00115688
0.000937746
0.000710761
8.06972e-05
1.96008e-05
0.000547033
0.00831076
0.0248438
0.0446165
0.0615958
0.0730319
0.0789484
0.0803076
0.0753971
0.0626723
0.0433774
0.0228351
0.0079432
0.00331914
0.00969473
0.0245839
0.0440673
0.0636716
0.0794344
0.0891944
0.092856
0.0914758
0.0862004
0.0778949
0.067496
0.0565612
0.0473928
0.0424615
0.0434182
0.0503395
0.061701
0.0750595
0.0879667
0.0985362
0.105392
0.107342
0.103545
0.0946168
0.0839749
0.077738
0.0816501
0.0959482
0.112916
0.121349
0.11473
0.0960707
0.0755655
0.0644251
0.0695383
0.0894168
0.113894
0.13108
0.137564
0.137972
0.136774
0.141412
0.162417
0.205052
0.260928
0.317899
0.363081
0.382361
0.364847
0.308628
0.233622
0.169008
0.129574
0.111599
0.108597
0.114303
0.121635
0.126576
0.129237
0.129428
0.124418
0.116229
0.11841
0.140219
0.161802
0.15923
0.137498
0.115594
0.0997483
0.0846787
0.0679008
0.0528755
0.0436003
0.0416315
0.00531707
0.00502765
0.00471816
0.00440721
0.0040887
0.00378415
0.00355692
0.00345054
0.00339078
0.00324139
0.00270059
0.002183
0.000188513
0.000739941
0.00321591
0.00962247
0.0186712
0.0270096
0.0320197
0.0317783
0.0264246
0.0175808
0.0084168
0.00247732
0.00232537
0.00882232
0.0214865
0.038734
0.0575503
0.0741844
0.0858405
0.091685
0.0924119
0.0891561
0.082776
0.0738693
0.0632864
0.0526289
0.0442344
0.0404885
0.0428225
0.0510407
0.0634063
0.0773938
0.0906131
0.101356
0.108495
0.111026
0.108008
0.0994885
0.088015
0.0791684
0.0793635
0.0909071
0.108159
0.120034
0.117819
0.10174
0.0808793
0.0672991
0.0695535
0.0878535
0.113062
0.132789
0.141743
0.143214
0.141331
0.142574
0.157958
0.195464
0.247982
0.299805
0.341042
0.361037
0.346896
0.295387
0.225965
0.165971
0.129028
0.111651
0.10822
0.113967
0.121844
0.126567
0.129366
0.131006
0.127995
0.120493
0.120556
0.138892
0.159012
0.156941
0.135911
0.114446
0.0993874
0.0853151
0.0687242
0.0526822
0.0417464
0.0386456
0.00629681
0.00568531
0.0050414
0.00449291
0.00412419
0.00404492
0.00429141
0.00476362
0.00526586
0.00561304
0.00562624
0.00532056
0.00425981
0.0029017
0.00128755
0.000506656
0.00115174
0.0026092
0.00359534
0.00313411
0.00180337
0.000658288
0.000999256
0.00395252
0.0104233
0.0211778
0.0361515
0.0535035
0.0699735
0.0825608
0.0898983
0.0922604
0.090658
0.0859934
0.0787855
0.0694481
0.0588349
0.0486316
0.0411985
0.0387938
0.042587
0.0520927
0.0653766
0.0798663
0.0932636
0.104051
0.111355
0.114393
0.112207
0.104381
0.0925891
0.0816462
0.0782031
0.0863451
0.102812
0.1174
0.119772
0.107176
0.0867845
0.0709709
0.0699827
0.0860334
0.111382
0.13347
0.145184
0.148238
0.146369
0.144974
0.154727
0.185694
0.233725
0.281308
0.319395
0.339426
0.327063
0.279798
0.216551
0.161965
0.127962
0.111403
0.107742
0.11354
0.122154
0.125472
0.12686
0.130087
0.129827
0.124057
0.123137
0.138312
0.156361
0.154205
0.133772
0.112851
0.098629
0.0856542
0.0695077
0.0527279
0.0402318
0.0358055
0.00699604
0.00544959
0.00438682
0.00403485
0.00431372
0.00500716
0.00584485
0.00661926
0.00722735
0.00764521
0.00786554
0.00786391
0.00760077
0.00690269
0.00577517
0.00435553
0.00302668
0.00211854
0.00175261
0.00207319
0.00305545
0.00497923
0.00837488
0.0141445
0.0233749
0.0364476
0.0520948
0.0675852
0.080108
0.0881008
0.0915044
0.0911143
0.0878014
0.0821058
0.0742801
0.0646658
0.0541905
0.0446382
0.0383621
0.0374434
0.042751
0.0535026
0.0675917
0.082442
0.0958823
0.106597
0.113957
0.117411
0.116062
0.109144
0.0975108
0.0850582
0.0782591
0.0825648
0.0971871
0.113517
0.120335
0.112006
0.0930843
0.0755019
0.0710235
0.0841255
0.108884
0.132983
0.147652
0.152789
0.151605
0.148511
0.153156
0.17667
0.218634
0.263057
0.298903
0.31746
0.305378
0.262279
0.20581
0.157232
0.126446
0.110792
0.107121
0.112975
0.122516
0.123701
0.12257
0.127858
0.13048
0.126864
0.125757
0.138169
0.153764
0.151058
0.131115
0.11082
0.0974646
0.0856452
0.0701679
0.0529535
0.0390643
0.0331617
0.0103876
0.00655889
0.00562762
0.00635788
0.00760985
0.00884048
0.00985702
0.0106139
0.0111113
0.0113647
0.0114094
0.011286
0.011057
0.0107248
0.010278
0.0097107
0.0091222
0.00873544
0.00886514
0.00971772
0.0114412
0.0145396
0.0198453
0.0282204
0.0398703
0.0537164
0.0675572
0.0790663
0.0868174
0.0905822
0.0909159
0.0885554
0.0840301
0.0775746
0.0692995
0.0595676
0.0494209
0.0407342
0.0358113
0.0365039
0.0433474
0.055268
0.0700238
0.0850821
0.0984339
0.108972
0.116292
0.120071
0.119521
0.113651
0.10259
0.089241
0.0795478
0.079833
0.0916511
0.108567
0.119338
0.115835
0.0994809
0.0808782
0.072874
0.0823536
0.105663
0.13123
0.148903
0.156584
0.156715
0.15291
0.153418
0.169381
0.203715
0.244371
0.277753
0.293868
0.281933
0.243469
0.194294
0.152061
0.124549
0.109816
0.106247
0.112261
0.122562
0.123087
0.121256
0.127336
0.131136
0.129108
0.1282
0.138246
0.151143
0.147526
0.127977
0.108359
0.0958779
0.0852381
0.0706224
0.0532867
0.0382358
0.0307597
0.0197857
0.0148326
0.0135884
0.0146057
0.0161091
0.0174737
0.0185443
0.0192904
0.0196986
0.0197669
0.019523
0.0190361
0.0184144
0.0177805
0.0172426
0.0168876
0.0168053
0.0171385
0.0180708
0.0199358
0.0232398
0.0285996
0.036479
0.0467705
0.058509
0.0700471
0.0796944
0.0863694
0.0898183
0.0903773
0.0885788
0.0848645
0.0794701
0.0724541
0.0638892
0.0542182
0.0446147
0.0370209
0.0336394
0.0360392
0.0444004
0.0573759
0.0726367
0.0877444
0.100884
0.111159
0.118363
0.122378
0.122562
0.117805
0.107645
0.0939968
0.0820036
0.0783455
0.0865914
0.102844
0.116728
0.11828
0.10558
0.0869831
0.0757063
0.0809931
0.101893
0.128169
0.148704
0.159311
0.161344
0.157766
0.155369
0.164444
0.1901
0.225292
0.25524
0.268621
0.257397
0.224193
0.182626
0.146756
0.122325
0.108438
0.105127
0.1114
0.122002
0.124622
0.125221
0.129932
0.132503
0.130992
0.130357
0.138404
0.14846
0.143645
0.124391
0.105462
0.0938396
0.0843806
0.0707909
0.0536453
0.0377155
0.0286402
0.0387215
0.0347787
0.0318384
0.031589
0.0325262
0.0336828
0.034662
0.0353074
0.0355625
0.03542
0.0349116
0.0341138
0.0331502
0.0321835
0.0313988
0.0309841
0.0311287
0.0320286
0.0339119
0.0371844
0.0421287
0.048861
0.0570946
0.0660553
0.0746418
0.0817786
0.0867552
0.089346
0.0896951
0.0881078
0.0848839
0.0802255
0.0742022
0.0667987
0.0581142
0.0487066
0.0398822
0.0336144
0.0319438
0.0361079
0.0459218
0.0598011
0.0753865
0.090385
0.103203
0.113146
0.120179
0.124353
0.125185
0.121542
0.112519
0.09911
0.0854874
0.0782092
0.0823781
0.0967354
0.112589
0.11902
0.110913
0.0935721
0.0796308
0.0803566
0.0978398
0.123845
0.146854
0.160636
0.165108
0.162608
0.158605
0.162063
0.179199
0.206874
0.232021
0.242806
0.23297
0.205454
0.171462
0.141584
0.119786
0.106617
0.103766
0.11044
0.121129
0.126631
0.129375
0.132831
0.134093
0.132698
0.132258
0.138532
0.145696
0.139461
0.120382
0.102111
0.0913057
0.0830159
0.0705962
0.0539422
0.037459
0.0268338
0.0660596
0.0627206
0.0590647
0.0572026
0.0568123
0.0570185
0.0572809
0.0573671
0.0571901
0.05672
0.0559725
0.0550108
0.0539462
0.0529331
0.0521601
0.0518371
0.0521806
0.0533971
0.0557038
0.0591672
0.0637089
0.0690725
0.0747598
0.0801299
0.0845646
0.0876174
0.0890749
0.0889238
0.0872724
0.0842759
0.0800768
0.0747546
0.0683001
0.060681
0.0520649
0.0431477
0.0353564
0.0306437
0.0308223
0.0367574
0.0479088
0.0625056
0.0782223
0.0929593
0.105361
0.114925
0.121752
0.126022
0.127407
0.124828
0.11708
0.104364
0.0898019
0.0794323
0.0793261
0.0906955
0.10716
0.117848
0.114972
0.100258
0.0846511
0.0807665
0.0938694
0.118416
0.143217
0.160223
0.167597
0.166927
0.162559
0.162001
0.171677
0.190809
0.209972
0.218223
0.210167
0.188332
0.161403
0.136693
0.116874
0.104317
0.102188
0.109415
0.120214
0.1274
0.131106
0.133851
0.13507
0.134275
0.134015
0.138583
0.142839
0.135014
0.115964
0.0982711
0.0882195
0.0810824
0.0699643
0.0540905
0.0374086
0.0253652
0.0890283
0.0858126
0.0822387
0.0794761
0.0778095
0.0768896
0.0763249
0.0758844
0.0754367
0.0749093
0.0742755
0.0735526
0.0728008
0.07212
0.0716417
0.0715158
0.0718892
0.0728882
0.0745555
0.0768047
0.0794624
0.0822821
0.0849348
0.0870782
0.0884202
0.0887576
0.087987
0.086094
0.0831303
0.0791803
0.0743172
0.0685578
0.0618549
0.0541983
0.0458598
0.0376857
0.0311932
0.0282476
0.0303675
0.03802
0.0503406
0.0654383
0.0810881
0.0954236
0.107334
0.116493
0.123097
0.127416
0.129259
0.127654
0.121234
0.109558
0.0947119
0.0819239
0.0776594
0.0851996
0.100824
0.114717
0.117272
0.106512
0.0906134
0.0825074
0.0904425
0.112189
0.137766
0.157765
0.168384
0.170191
0.166571
0.16366
0.167498
0.178838
0.191468
0.197005
0.190539
0.173773
0.152861
0.13207
0.113466
0.101526
0.100461
0.108362
0.119022
0.1267
0.130837
0.133306
0.135183
0.135554
0.135619
0.138518
0.139873
0.130326
0.111138
0.093898
0.0845168
0.0785134
0.0688226
0.0540076
0.0374955
0.0242513
0.104537
0.101293
0.0978557
0.0948187
0.0924959
0.090832
0.089632
0.0887142
0.0879509
0.0872638
0.0866132
0.0859904
0.0854127
0.08492
0.084569
0.084423
0.0845384
0.0849416
0.0856008
0.0864447
0.0873473
0.0881533
0.0886721
0.0887104
0.0880992
0.0867166
0.084501
0.0814507
0.0776085
0.0730321
0.0677548
0.0617551
0.0549789
0.0474762
0.0396523
0.0324988
0.0275712
0.0265695
0.0306589
0.0399064
0.053176
0.0685354
0.0839239
0.0977371
0.109105
0.117848
0.124227
0.128563
0.130776
0.130031
0.12492
0.114518
0.0999664
0.0855062
0.077484
0.0806908
0.0940911
0.109782
0.117426
0.111699
0.097161
0.0857569
0.0880861
0.105638
0.130633
0.153033
0.167044
0.171851
0.169918
0.166193
0.166033
0.171163
0.178034
0.180751
0.175139
0.162315
0.145929
0.127492
0.109392
0.0982967
0.0986914
0.107271
0.117301
0.124527
0.128922
0.131777
0.134563
0.136354
0.136928
0.138255
0.136761
0.125383
0.105879
0.0889431
0.0801351
0.0752402
0.0670958
0.053612
0.0376442
0.0234861
0.112609
0.109517
0.106351
0.103425
0.100969
0.0990181
0.0974874
0.0962605
0.0952388
0.0943533
0.0935621
0.0928446
0.0921956
0.0916206
0.0911304
0.0907349
0.0904356
0.0902133
0.09004
0.0898505
0.0895487
0.0890248
0.0881536
0.0868141
0.0849076
0.0823716
0.0791875
0.0753749
0.0709764
0.0660313
0.0605461
0.0544822
0.0478114
0.0406792
0.0336401
0.0278025
0.0246873
0.0257477
0.0317546
0.0423999
0.0563526
0.0717223
0.0866686
0.0998627
0.110657
0.11899
0.125155
0.129487
0.131992
0.131985
0.128105
0.119108
0.105319
0.0899351
0.0787765
0.0775224
0.0875369
0.103407
0.115227
0.115145
0.103709
0.0904957
0.0873309
0.0994267
0.122175
0.145936
0.163183
0.171361
0.171861
0.168618
0.166245
0.167016
0.16941
0.16946
0.163996
0.1539
0.140277
0.122506
0.104502
0.0947988
0.0970155
0.106048
0.114818
0.120754
0.125267
0.129274
0.133281
0.136558
0.137762
0.137661
0.133425
0.120144
0.100164
0.0833762
0.0750269
0.0711988
0.0647063
0.0528151
0.0377747
0.0230343
0.118965
0.115882
0.11279
0.109863
0.107251
0.105011
0.103116
0.101498
0.10009
0.0988338
0.0976903
0.0966337
0.0956483
0.0947234
0.093849
0.0930114
0.0921893
0.0913478
0.0904411
0.0894055
0.088164
0.0866367
0.0847433
0.0824143
0.0796007
0.0762818
0.0724662
0.0681854
0.063479
0.0583726
0.0528574
0.0469013
0.0405347
0.0340264
0.0280745
0.023849
0.0227478
0.0259033
0.0336799
0.0454517
0.0597852
0.0749148
0.0892606
0.101767
0.111979