/*--------------------------------*- C++ -*----------------------------------*\
  =========                 |
  \\      /  F ield         | OpenFOAM: The Open Source CFD Toolbox
   \\    /   O peration     | Website:  https://openfoam.org
    \\  /    A nd           | Version:  10
     \\/     M anipulation  |
\*---------------------------------------------------------------------------*/
FoamFile
{
    format      ascii;
    class       volScalarField;
    location    "0.19";
    object      nut;
}
// * * * * * * * * * * * * * * * * * * * * * * * * * * * * * * * * * * * * * //

dimensions      [0 2 -1 0 0 0 0];

internalField   nonuniform List<scalar> 
6820
(
0
0
0
0
0
0
0
0
0
0
0
0
0
0
0
0
0
0
0
0
0
0
0
0
0
0
0
0
0
0
0
0
0
0
0
0
0
0
0
0
0
0
0
0
0
0
0
0
0
0
0
0
0
0
0
0
0
0
0
0
0
0
0
0
0
0
0
0
0
0
0
0
0
0
0
0
0
0
0
0
0
0
0
0
0
0
0
0
0
0
0
0
0
0
0
0
0
0
0
0
0
0
0
0
0
0
0
0
0
0
0
0
0
0
0
0
0
0
0
0
0
0
0
0
0
0
0
0
0
0
0
0
1.60994e-05
0
0
0
0
0
0
0
0
0
0
0
0
0
0
0
0
0
0
0
0
0
0
0
0
0
1.11145e-08
0
0
0
0
0
0
6.25697e-06
4.7288e-05
3.63396e-05
1.86615e-05
6.7889e-06
6.58096e-07
0
0
0
0
0
0
0
0
0
0
0
0
0
0
0
0
0
3.26829e-09
9.89793e-09
1.61524e-08
2.07503e-08
2.09622e-08
1.23169e-08
0
0
0
0
0
1.31537e-05
2.64649e-05
3.38047e-05
3.21424e-05
2.88231e-05
2.59712e-05
2.32543e-05
2.06733e-05
1.83456e-05
1.62583e-05
1.43515e-05
1.25414e-05
1.0699e-05
8.66603e-06
6.3513e-06
3.90728e-06
1.76775e-06
2.9927e-07
0
0
0
0
0
0
0
0
0
0
0
0
0
0
0
7.65675e-06
1.43474e-05
2.52245e-05
2.84907e-05
2.74947e-05
2.58809e-05
2.41284e-05
2.23964e-05
2.08302e-05
1.94315e-05
1.81698e-05
1.70226e-05
1.59383e-05
1.47751e-05
1.31161e-05
9.44924e-06
0
0
0
0
0
0
0
1.00732e-07
2.8146e-07
2.15579e-07
2.87262e-08
0
0
0
0
0
0
5.93934e-06
8.07886e-06
1.55949e-05
2.10631e-05
2.38627e-05
2.54186e-05
2.57649e-05
2.53615e-05
2.47588e-05
2.42092e-05
2.38345e-05
2.37653e-05
2.41804e-05
2.53775e-05
2.79438e-05
3.28313e-05
3.43738e-05
0
0
0
0
0
0
1.36218e-07
2.15377e-07
1.47726e-07
4.19331e-09
0
0
0
0
0
0
4.66179e-06
5.30114e-06
1.0065e-05
1.44623e-05
1.76069e-05
2.05925e-05
2.27233e-05
2.3868e-05
2.45219e-05
2.50758e-05
2.57948e-05
2.6957e-05
2.89278e-05
3.22284e-05
3.7264e-05
4.05529e-05
2.57427e-05
5.79237e-06
0
0
0
0
0
4.17682e-08
2.60549e-08
0
0
0
0
0
0
0
0
3.64156e-06
3.7099e-06
6.9227e-06
1.01039e-05
1.23179e-05
1.51259e-05
1.81728e-05
2.08138e-05
2.29936e-05
2.48178e-05
2.64185e-05
2.79427e-05
2.94053e-05
3.03313e-05
2.89994e-05
2.2566e-05
1.24366e-05
4.90378e-06
1.51792e-06
3.96511e-07
1.28206e-07
1.03039e-07
1.04005e-07
7.03265e-08
0
0
0
0
0
0
0
0
0
2.81652e-06
2.52623e-06
4.69799e-06
7.16676e-06
8.64863e-06
1.04639e-05
1.27487e-05
1.51007e-05
1.7386e-05
1.95038e-05
2.13066e-05
2.2619e-05
2.30997e-05
2.20784e-05
1.87702e-05
1.33698e-05
7.76458e-06
3.74192e-06
1.51273e-06
4.65523e-07
1.8911e-08
0
0
0
0
0
0
0
0
0
0
0
0
2.17672e-06
1.65731e-06
3.03332e-06
4.93724e-06
6.00651e-06
7.18513e-06
8.73912e-06
1.04389e-05
1.22e-05
1.39009e-05
1.52851e-05
1.60318e-05
1.57864e-05
1.42538e-05
1.14691e-05
8.03245e-06
4.85525e-06
2.53399e-06
1.11188e-06
3.38851e-07
0
0
0
0
0
0
0
0
0
0
0
0
0
1.68516e-06
1.00412e-06
1.72721e-06
3.06601e-06
3.75782e-06
4.43369e-06
5.33111e-06
6.27599e-06
7.21134e-06
8.08151e-06
8.72182e-06
8.9164e-06
8.46809e-06
7.2925e-06
5.53202e-06
3.55468e-06
1.77133e-06
4.27269e-07
0
0
0
0
0
0
0
0
0
0
0
0
0
0
0
1.31007e-06
5.12894e-07
7.28671e-07
1.5572e-06
1.90716e-06
2.22074e-06
2.70208e-06
3.20282e-06
3.6543e-06
4.01715e-06
4.19485e-06
4.0792e-06
3.60545e-06
2.7924e-06
1.76329e-06
7.09615e-07
0
0
0
0
0
0
0
0
0
0
0
0
0
0
0
0
0
1.02091e-06
1.31357e-07
0
3.21743e-07
3.34573e-07
3.14162e-07
4.31295e-07
5.61063e-07
6.34297e-07
6.2759e-07
4.97053e-07
2.05092e-07
0
0
0
0
0
0
0
0
0
0
0
0
0
0
0
0
0
0
0
0
0
7.95356e-07
0
0
0
0
0
0
0
0
0
0
0
0
0
0
0
0
0
0
0
0
0
0
0
0
0
0
0
0
0
0
0
0
6.16347e-07
0
0
0
0
0
0
0
0
0
0
0
0
0
0
0
0
0
0
0
0
0
0
0
0
0
0
0
0
2.50983e-07
2.01586e-07
0
0
4.70709e-07
0
0
0
0
0
0
0
0
0
0
0
0
0
0
0
0
0
0
0
0
0
0
0
0
0
0
1.05754e-07
5.60095e-07
9.55298e-07
8.36562e-07
0
0
3.4771e-07
0
0
0
0
0
0
0
0
0
0
0
0
0
0
0
0
0
0
0
0
0
0
0
0
0
1.3696e-07
6.48432e-07
1.15325e-06
1.58838e-06
1.43779e-06
0
0
2.38833e-07
0
0
0
0
0
0
0
0
0
0
0
0
0
0
0
0
0
0
0
0
0
0
0
0
3.43546e-07
8.95387e-07
1.438e-06
1.97022e-06
2.42414e-06
2.23475e-06
2.51361e-07
0
1.37114e-07
0
0
0
0
0
0
0
0
0
0
0
0
0
0
0
0
0
0
0
0
0
0
0
5.85538e-07
1.17842e-06
1.76302e-06
2.33508e-06
2.8941e-06
3.36786e-06
3.15317e-06
1.03371e-06
0
3.45479e-08
0
0
0
0
0
0
0
0
0
0
0
0
0
0
0
0
0
0
0
0
0
4.46666e-08
6.85079e-07
1.31924e-06
1.94356e-06
2.55546e-06
3.15128e-06
3.73113e-06
4.22011e-06
3.98714e-06
1.77863e-06
0
0
0
0
0
0
0
0
0
0
0
0
0
0
0
0
0
0
0
0
0
0
5.4492e-07
1.21193e-06
1.8697e-06
2.51539e-06
3.14603e-06
3.75937e-06
4.35194e-06
4.92375e-06
5.398e-06
5.13209e-06
2.84303e-06
0
0
0
0
0
0
0
0
0
0
0
0
0
0
0
0
0
0
0
0
0
4.30924e-07
1.13597e-06
1.83174e-06
2.51474e-06
3.18183e-06
3.82974e-06
4.45601e-06
5.05737e-06
5.63405e-06
6.10915e-06
5.83269e-06
3.53291e-06
0
0
0
0
0
0
0
0
0
0
0
0
0
0
0
0
0
0
0
6.62318e-07
1.38931e-06
2.10307e-06
2.80089e-06
3.48007e-06
4.13809e-06
4.77251e-06
5.38065e-06
5.96035e-06
6.50854e-06
7.02488e-06
7.43322e-06
7.0993e-06
4.75967e-06
0
0
0
0
0
0
0
0
0
0
0
0
0
0
0
0
0
0
3.10262e-07
1.06854e-06
1.81438e-06
2.54426e-06
3.2551e-06
3.94367e-06
4.60679e-06
5.24145e-06
5.84463e-06
6.41394e-06
6.9465e-06
7.44228e-06
7.82804e-06
7.48137e-06
5.2001e-06
0
0
0
0
0
0
0
0
0
0
0
0
0
0
0
5.29174e-07
1.32305e-06
2.0942e-06
2.8403e-06
3.55978e-06
4.25113e-06
4.91319e-06
5.54471e-06
6.14403e-06
6.70924e-06
7.23823e-06
7.72866e-06
8.17836e-06
8.58457e-06
8.94647e-06
9.19463e-06
8.75109e-06
6.45974e-06
0
0
0
0
0
0
0
0
0
0
0
0
0
0
4.26335e-08
8.62639e-07
1.65812e-06
2.42599e-06
3.16469e-06
3.8731e-06
4.54982e-06
5.19339e-06
5.80199e-06
6.37341e-06
6.90513e-06
7.39456e-06
7.8391e-06
8.23671e-06
8.58543e-06
8.8856e-06
9.07464e-06
8.60767e-06
6.44377e-06
0
0
0
0
0
0
0
0
0
0
8.63227e-07
1.79756e-06
2.67993e-06
3.5045e-06
4.27081e-06
4.9821e-06
5.64223e-06
6.25479e-06
6.82318e-06
7.35e-06
7.83684e-06
8.28429e-06
8.69198e-06
9.05862e-06
9.3823e-06
9.66079e-06
9.8918e-06
1.00734e-05
1.02035e-05
1.02819e-05
1.02535e-05
9.64981e-06
7.51821e-06
0
0
0
0
0
0
0
0
0
8.78286e-07
1.84892e-06
2.73808e-06
3.54683e-06
4.28033e-06
4.94644e-06
5.55434e-06
6.11123e-06
6.62229e-06
7.09127e-06
7.52036e-06
7.91031e-06
8.2607e-06
8.57019e-06
8.83671e-06
9.05776e-06
9.23079e-06
9.35364e-06
9.42511e-06
9.44504e-06
9.41578e-06
9.29414e-06
8.6734e-06
6.77648e-06
0
6.70894e-07
0
9.86876e-07
2.71495e-06
4.24583e-06
5.52851e-06
6.59072e-06
7.48391e-06
8.23932e-06
8.86944e-06
9.3701e-06
9.76341e-06
1.00698e-05
1.03118e-05
1.05077e-05
1.06681e-05
1.07986e-05
1.0903e-05
1.09829e-05
1.10387e-05
1.10696e-05
1.10743e-05
1.10506e-05
1.09955e-05
1.09056e-05
1.07775e-05
1.06084e-05
1.03966e-05
1.01434e-05
9.81536e-06
9.10467e-06
7.34965e-06
0
0
3.20783e-07
3.14962e-06
5.4654e-06
7.05834e-06
7.95249e-06
8.52394e-06
8.96666e-06
9.29818e-06
9.52411e-06
9.62972e-06
9.67009e-06
9.67468e-06
9.66128e-06
9.64437e-06
9.63083e-06
9.62261e-06
9.61881e-06
9.61586e-06
9.60805e-06
9.58866e-06
9.55107e-06
9.48962e-06
9.40004e-06
9.27942e-06
9.12615e-06
8.9397e-06
8.72028e-06
8.47054e-06
8.16397e-06
7.55571e-06
6.14316e-06
2.38106e-05
1.58889e-05
1.21867e-05
1.17415e-05
1.23092e-05
1.28001e-05
1.28311e-05
1.26658e-05
1.2493e-05
1.22839e-05
1.19999e-05
1.16389e-05
1.12541e-05
1.08805e-05
1.05398e-05
1.02386e-05
9.97699e-06
9.75441e-06
9.56836e-06
9.41291e-06
9.27914e-06
9.15653e-06
9.0347e-06
8.9049e-06
8.76076e-06
8.59808e-06
8.41415e-06
8.20699e-06
7.9739e-06
7.71353e-06
7.40393e-06
6.88871e-06
5.78739e-06
2.11785e-05
2.71582e-05
1.87822e-05
1.40964e-05
1.24678e-05
1.19651e-05
1.16282e-05
1.12585e-05
1.08629e-05
1.04264e-05
9.95623e-06
9.49385e-06
9.05071e-06
8.62619e-06
8.24534e-06
7.92028e-06
7.64969e-06
7.43296e-06
7.27027e-06
7.15917e-06
7.09333e-06
7.06282e-06
7.0555e-06
7.05804e-06
7.05645e-06
7.03666e-06
6.9857e-06
6.89283e-06
6.74988e-06
6.5631e-06
6.32854e-06
5.92315e-06
5.07076e-06
6.67635e-05
6.0329e-05
3.6359e-05
2.40135e-05
1.63813e-05
1.06327e-05
6.18928e-06
2.69758e-06
0
0
0
0
0
0
0
0
0
0
0
0
0
0
0
0
0
0
0
0
0
0
0
0
0
0
0
0
0
0
0
0
0
0
0
0
0
0
0
0
0
0
0
0
0
0
0
0
0
0
0
0
0
0
0
0
0
0
4.00007e-08
0
0
0
0
0
0
0
0
0
0
0
0
0
0
0
0
0
0
0
0
0
0
0
0
0
0
0
0
0
0
0
0
2.1434e-08
0
0
0
0
0
0
0
0
0
0
0
0
0
0
0
0
0
0
0
0
0
0
0
0
0
0
0
0
0
0
0
0
9.94158e-09
0
0
0
0
0
0
0
0
0
0
0
0
0
0
0
0
0
0
0
0
0
0
0
0
0
0
0
0
0
0
0
0
0
0
8.80478e-08
4.33257e-07
8.18719e-07
6.99573e-07
2.27829e-07
0
0
0
0
0
0
0
0
0
0
6.93278e-06
1.79158e-05
3.20651e-05
5.0599e-05
4.68416e-05
0
0
0
0
0
2.06889e-06
1.06902e-05
8.69233e-06
1.02307e-05
1.32829e-05
1.4811e-05
1.47552e-05
1.37809e-05
1.21877e-05
1.0185e-05
8.05832e-06
6.08246e-06
4.43758e-06
3.17389e-06
2.21782e-06
1.43915e-06
7.53044e-07
1.69563e-07
0
0
0
6.0739e-07
1.46632e-06
2.80007e-06
5.32646e-06
7.2934e-06
2.25474e-06
0
0
0
0
0
4.56188e-06
4.24594e-06
9.76402e-07
0
0
0
0
0
0
0
0
0
0
0
0
0
0
0
0
0
0
0
0
0
0
0
0
0
2.30887e-05
5.20631e-05
6.58272e-05
6.80176e-05
6.14701e-05
5.12079e-05
3.97478e-05
2.89844e-05
2.11432e-05
1.45721e-05
1.09109e-05
0
0
0
0
0
0
4.21537e-07
1.14788e-06
1.58467e-06
1.90297e-06
1.05068e-06
0
0
0
0
0
0
0
0
1.74926e-08
1.02094e-05
2.0751e-05
2.55148e-05
7.33397e-06
0
0
0
0
0
8.60402e-06
9.84817e-06
9.06182e-06
1.26263e-05
1.57669e-05
1.70025e-05
1.67976e-05
1.56315e-05
1.37664e-05
1.15069e-05
9.17831e-06
7.05095e-06
5.30083e-06
3.98083e-06
3.00859e-06
2.23069e-06
1.54029e-06
9.35181e-07
4.91803e-07
3.16126e-07
4.9731e-07
1.01112e-06
1.7066e-06
2.7266e-06
4.76218e-06
6.89837e-06
3.24492e-06
0
0
0
0
0
2.57557e-06
3.21412e-06
0
0
0
0
0
0
0
0
0
0
0
0
0
0
0
0
0
0
0
0
0
0
0
0
0
0
1.25909e-05
4.82821e-05
6.58086e-05
6.9384e-05
6.35368e-05
5.44228e-05
4.40887e-05
3.34329e-05
2.5407e-05
1.86219e-05
1.46349e-05
0
0
0
0
0
0
1.82255e-08
1.31886e-06
3.01642e-06
4.42927e-06
3.22853e-06
1.06734e-06
0
0
0
0
0
0
0
0
4.24509e-07
6.31194e-06
7.87009e-06
3.84811e-06
0
0
0
0
2.99127e-06
1.04139e-05
8.10173e-06
1.05237e-05
1.47626e-05
1.74582e-05
1.83654e-05
1.79765e-05
1.66108e-05
1.45755e-05
1.22102e-05
9.82228e-06
7.66018e-06
5.90022e-06
4.60289e-06
3.6782e-06
2.95125e-06
2.29581e-06
1.69776e-06
1.22509e-06
9.73773e-07
1.02751e-06
1.38005e-06
1.88556e-06
2.58708e-06
4.0822e-06
6.06678e-06
3.72571e-06
0
0
0
0
0
0
1.80875e-06
0
0
0
0
0
0
0
0
1.18173e-05
0
0
0
0
0
0
0
0
0
0
0
0
0
0
0
0
0
0
4.12828e-05
6.38067e-05
6.91917e-05
6.40809e-05
5.60026e-05
4.70498e-05
3.70102e-05
2.90208e-05
2.2108e-05
1.77932e-05
0
0
0
0
0
0
8.75833e-07
3.30134e-06
5.60366e-06
4.90415e-06
2.29091e-06
0
0
0
0
0
0
0
0
0
0
1.93251e-06
5.60198e-06
8.58146e-06
1.60805e-05
3.4879e-05
0
0
9.8309e-06
7.92458e-06
8.23733e-06
1.26926e-05
1.6581e-05
1.87229e-05
1.93323e-05
1.87158e-05
1.71693e-05
1.50378e-05
1.26427e-05
1.02526e-05
8.10115e-06
6.37365e-06
5.13881e-06
4.29458e-06
3.64232e-06
3.03805e-06
2.45759e-06
1.96116e-06
1.6353e-06
1.55673e-06
1.73559e-06
2.04524e-06
2.45294e-06
3.43678e-06
5.0943e-06
3.83563e-06
0
0
0
0
0
0
1.69628e-07
0
0
0
0
0
0
0
0
2.87925e-05
7.9957e-06
0
0
0
0
0
0
0
0
0
0
0
0
0
0
0
0
0
3.12421e-05
6.05056e-05
6.84152e-05
6.40842e-05
5.68389e-05
4.92296e-05
4.00848e-05
3.22787e-05
2.52513e-05
2.06305e-05
0
0
0
0
0
0
2.08753e-06
2.55048e-06
1.97558e-06
1.46991e-06
6.1575e-07
0
0
0
0
0
0
0
0
0
0
2.61159e-06
1.11659e-05
3.03644e-05
6.89722e-05
5.22377e-05
3.72169e-06
8.9634e-06
7.6786e-06
6.37769e-06
1.03249e-05
1.48972e-05
1.81312e-05
1.98086e-05
2.00941e-05
1.92244e-05
1.75336e-05
1.5355e-05
1.296e-05
1.05838e-05
8.45889e-06
6.78618e-06
5.63897e-06
4.89543e-06
4.3298e-06
3.78196e-06
3.22035e-06
2.69966e-06
2.299e-06
2.08758e-06
2.08797e-06
2.20148e-06
2.34623e-06
2.8751e-06
4.10776e-06
3.61186e-06
0
0
0
0
0
0
0
0
0
0
0
0
0
0
0
4.09748e-05
5.27744e-05
0
0
0
0
0
0
0
0
0
0
0
0
0
0
0
4.49529e-06
0
1.78582e-05
5.59767e-05
6.74356e-05
6.39533e-05
5.73188e-05
5.09274e-05
4.28861e-05
3.53896e-05
2.82617e-05
2.3302e-05
4.12543e-07
0
0
0
0
2.76238e-07
3.6274e-07
4.88448e-07
6.77148e-07
6.21829e-07
2.86459e-07
0
0
0
0
0
0
0
0
0
0
5.30418e-06
1.51453e-05
3.02511e-05
3.42118e-05
8.38812e-06
8.10128e-06
6.64606e-06
4.87219e-06
8.12739e-06
1.28426e-05
1.68085e-05
1.94498e-05
2.06826e-05
2.06128e-05
1.95209e-05
1.77415e-05
1.55523e-05
1.31728e-05
1.08207e-05
8.73915e-06
7.14593e-06
6.11197e-06
5.48693e-06
5.0161e-06
4.52652e-06
3.98246e-06
3.43551e-06
2.95972e-06
2.61725e-06
2.43828e-06
2.35582e-06
2.26481e-06
2.39978e-06
3.16892e-06
3.10494e-06
0
0
0
0
0
0
0
0
0
0
0
0
0
0
0
4.40476e-05
0.000103982
9.21822e-06
0
0
0
0
0
0
6.96303e-08
0
0
0
0
0
0
0
1.25513e-05
0
7.83667e-07
4.97625e-05
6.61396e-05
6.36773e-05
5.74626e-05
5.21198e-05
4.53486e-05
3.83295e-05
3.11575e-05
2.58579e-05
4.04251e-06
1.61366e-06
0
0
1.51867e-07
9.82444e-07
1.3951e-06
1.41025e-06
1.22447e-06
8.95935e-07
4.36343e-07
0
0
0
0
0
0
0
0
0
0
0
3.48678e-07
1.95999e-06
4.29006e-06
5.75417e-06
4.57201e-06
3.42118e-06
6.37698e-06
1.08049e-05
1.50479e-05
1.83946e-05
2.04921e-05
2.12577e-05
2.08664e-05
1.96216e-05
1.78052e-05
1.56284e-05
1.32743e-05
1.09591e-05
8.94297e-06
7.45832e-06
6.56427e-06
6.07321e-06
5.7022e-06
5.27027e-06
4.74096e-06
4.16485e-06
3.61315e-06
3.14217e-06
2.78523e-06
2.50614e-06
2.19959e-06
1.99793e-06
2.30876e-06
2.3855e-06
0
0
0
0
0
0
0
0
0
0
0
0
0
0
0
3.61406e-05
0.000144611
0.000123447
0
0
0
0
0
0
2.77517e-06
0
0
0
0
0
0
5.38158e-06
2.13343e-05
0
0
4.13056e-05
6.42971e-05
6.31666e-05
5.72446e-05
5.2778e-05
4.7391e-05
4.10574e-05
3.39449e-05
2.83443e-05
7.73929e-06
5.62379e-06
0
0
1.12196e-06
1.98477e-06
2.2544e-06
2.1056e-06
1.74349e-06
1.21472e-06
4.92471e-07
0
0
0
0
0
0
0
0
0
0
0
0
6.57569e-07
2.2767e-06
1.90922e-06
2.30768e-06
5.19241e-06
9.03886e-06
1.31503e-05
1.68644e-05
1.96286e-05
2.11632e-05
2.15023e-05
2.08758e-05
1.95486e-05
1.77298e-05
1.55781e-05
1.32596e-05
1.09986e-05
9.07492e-06
7.73143e-06
7.00333e-06
6.65809e-06
6.38835e-06
6.01111e-06
5.49253e-06
4.88389e-06
4.25533e-06
3.659e-06
3.12784e-06
2.65177e-06
2.14332e-06
1.65542e-06
1.54211e-06
1.53768e-06
0
0
0
0
0
0
0
0
0
0
0
0
0
0
0
1.99571e-05
0.000149562
0.000306679
0
0
0
0
0
0
5.45944e-06
3.25927e-06
0
0
0
0
0
1.72685e-05
2.8637e-05
0
0
3.0186e-05
6.16781e-05
6.23264e-05
5.6641e-05
5.2901e-05
4.89499e-05
4.35265e-05
3.66167e-05
3.07898e-05
1.1505e-05
9.85392e-06
0
8.59142e-07
1.91542e-06
2.32664e-06
2.29458e-06
2.03584e-06
1.65134e-06
1.08654e-06
2.52539e-07
0
0
0
0
0
0
0
0
0
0
0
0
2.47752e-07
7.27946e-07
2.14211e-06
4.45103e-06
7.59645e-06
1.13299e-05
1.50922e-05
1.82584e-05
2.04063e-05
2.14265e-05
2.14442e-05
2.06746e-05
1.93154e-05
1.75141e-05
1.53974e-05
1.31272e-05
1.09421e-05
9.14284e-06
7.97564e-06
7.43707e-06
7.24469e-06
7.07383e-06
6.74612e-06
6.23334e-06
5.58868e-06
4.88235e-06
4.16414e-06
3.46432e-06
2.79183e-06
2.08898e-06
1.35596e-06
8.67695e-07
6.4081e-07
0
0
0
0
0
0
0
0
0
0
0
0
0
0
0
1.11148e-06
0.000116033
0.000382359
0
0
0
0
0
0
8.17124e-06
7.30344e-06
1.49783e-06
0
0
0
0
2.84867e-05
2.89735e-05
0
0
1.62182e-05
5.80818e-05
6.10716e-05
5.56336e-05
5.25068e-05
4.99811e-05
4.56787e-05
3.91394e-05
3.31851e-05
1.53285e-05
1.42534e-05
0
2.0541e-06
2.48349e-06
2.37956e-06
2.23916e-06
1.98687e-06
1.53344e-06
8.33742e-07
0
0
0
0
0
0
0
0
0
0
0
0
0
6.0793e-07
1.84619e-06
3.70212e-06
6.33231e-06
9.6514e-06
1.32454e-05
1.65517e-05
1.91073e-05
2.06934e-05
2.13216e-05
2.11315e-05
2.0288e-05
1.8928e-05
1.71571e-05
1.50855e-05
1.28792e-05
1.07961e-05
9.1583e-06
8.20357e-06
7.87333e-06
7.835e-06
7.75682e-06
7.47162e-06
6.95922e-06
6.27539e-06
5.49091e-06
4.6546e-06
3.7931e-06
2.92664e-06
2.03199e-06
1.08418e-06
2.74675e-07
0
0
0
0
0
0
0
0
0
0
0
0
0
0
0
0
0
6.80262e-05
0.000257574
1.95114e-05
0
0
0
0
0
1.09715e-05
1.13908e-05
5.96389e-06
0
0
0
4.94498e-06
2.78249e-05
7.62913e-06
0
0
0
5.33727e-05
5.93477e-05
5.42171e-05
5.16252e-05
5.04603e-05
4.74449e-05
4.14517e-05
3.54825e-05
1.91544e-05
1.87059e-05
0
3.7936e-06
3.26296e-06
2.88195e-06
2.58667e-06
2.09901e-06
1.38069e-06
4.48589e-07
0
0
0
0
0
0
0
0
0
0
0
0
0
9.19804e-07
2.68521e-06
5.0601e-06
8.04252e-06
1.13751e-05
1.46304e-05
1.7392e-05
1.93926e-05
2.05492e-05
2.09156e-05
2.06052e-05
1.97327e-05
1.83909e-05
1.66601e-05
1.46442e-05
1.25208e-05
1.05716e-05
9.13702e-06
8.4294e-06
8.319e-06
8.42946e-06
8.43426e-06
8.1832e-06
7.66575e-06
6.94037e-06
6.0782e-06
5.12788e-06
4.11253e-06
3.05663e-06
1.96946e-06
8.2678e-07
0
0
0
0
0
0
0
0
0
0
0
0
0
0
0
0
0
0
2.63627e-05
0.000131832
9.66257e-05
0
0
0
0
0
1.39175e-05
1.54336e-05
1.04242e-05
4.95275e-06
0
0
0
0
0
0
0
0
4.75062e-05
5.71297e-05
5.23946e-05
5.02899e-05
5.03816e-05
4.87527e-05
4.34718e-05
3.76041e-05
2.28754e-05
2.30204e-05
0
2.64625e-06
4.19268e-06
3.54414e-06
2.85259e-06
2.00567e-06
9.72748e-07
0
0
0
0
0
0
0
0
0
0
0
0
0
0
1.31918e-06
3.5948e-06
6.34612e-06
9.42386e-06
1.25369e-05
1.53561e-05
1.76221e-05
1.9198e-05
2.00629e-05
2.02693e-05
1.98966e-05
1.90216e-05
1.77093e-05
1.60262e-05
1.40784e-05
1.20615e-05
1.02846e-05
9.09894e-06
8.66775e-06
8.77912e-06
9.02667e-06
9.10187e-06
8.87587e-06
8.34846e-06
7.58031e-06
6.64214e-06
5.5824e-06
4.42143e-06
3.1828e-06
1.90121e-06
5.74166e-07
0
0
0
0
0
0
0
0
0
0
0
0
0
0
0
0
0
0
0
5.68286e-05
5.6855e-05
0
0
0
0
0
1.70471e-05
1.93333e-05
1.47153e-05
9.73791e-06
5.79006e-06
4.7341e-06
1.24162e-05
0
0
0
0
0
4.05174e-05
5.44215e-05
5.01794e-05
4.85366e-05
4.97558e-05
4.95367e-05
4.51098e-05
3.94578e-05
2.63467e-05
2.69682e-05
0
1.2242e-06
3.67976e-06
3.38755e-06
2.48767e-06
1.3629e-06
5.73008e-08
0
0
0
0
0
0
0
0
0
0
0
0
0
0
1.77717e-06
4.40249e-06
7.28993e-06
1.02517e-05
1.30512e-05
1.54693e-05
1.73556e-05
1.86403e-05
1.93199e-05
1.94316e-05
1.90289e-05
1.81652e-05
1.68889e-05
1.52611e-05
1.3397e-05
1.15165e-05
9.95772e-06
9.06738e-06
8.93198e-06
9.25605e-06
9.62319e-06
9.75422e-06
9.5442e-06
9.00291e-06
8.19227e-06
7.18123e-06
6.01735e-06
4.71901e-06
3.3059e-06
1.82859e-06
3.1891e-07
0
0
0
0
0
0
0
0
0
0
0
0
0
0
0
0
0
0
0
1.58791e-05
2.7427e-05
0
0
0
0
4.15898e-07
2.03606e-05
2.29827e-05
1.86701e-05
1.41606e-05
1.13096e-05
1.54065e-05
3.63847e-05
0
0
0
0
0
3.2515e-05
5.12639e-05
4.76004e-05
4.64037e-05
4.86076e-05
4.97486e-05
4.62802e-05
4.09491e-05
2.94103e-05
3.0333e-05
0
1.06453e-07
1.82767e-06
1.92146e-06
1.11585e-06
0
0
0
0
0
0
0
0
0
0
0
0
0
0
0
0
2.15764e-06
4.92189e-06
7.76248e-06
1.05168e-05
1.30168e-05
1.51225e-05
1.67412e-05
1.78297e-05
1.8386e-05
1.84361e-05
1.80188e-05
1.71729e-05
1.59373e-05
1.43738e-05
1.2614e-05
1.09081e-05
9.62032e-06
9.06734e-06
9.23237e-06
9.74888e-06
1.02135e-05
1.03849e-05
1.01825e-05
9.62492e-06
8.77378e-06
7.69464e-06
6.43282e-06
5.00523e-06
3.42677e-06
1.75449e-06
5.70122e-08
0
0
0
0
0
0
0
0
0
0
0
0
0
0
0
0
0
0
0
0
9.55971e-06
0
0
0
0
4.59905e-06
2.38035e-05
2.62676e-05
2.21416e-05
1.80453e-05
1.63193e-05
2.46208e-05
4.62276e-05
0
0
0
0
0
2.36816e-05
4.77324e-05
4.46995e-05
4.39325e-05
4.69723e-05
4.93627e-05
4.69095e-05
4.1989e-05
3.19143e-05
3.29577e-05
0
0
0
0
0
0
0
0
0
0
0
0
0
0
0
0
0
0
0
0
0
2.42281e-06
5.14887e-06
7.84112e-06
1.03711e-05
1.26179e-05
1.44829e-05
1.59008e-05
1.68405e-05
1.73018e-05
1.73053e-05
1.68803e-05
1.60556e-05
1.48651e-05
1.33783e-05
1.17507e-05
1.02677e-05
9.30813e-06
9.12251e-06
9.57434e-06
1.02531e-05
1.07904e-05
1.09868e-05
1.07851e-05
1.02106e-05
9.32286e-06
8.18205e-06
6.82957e-06
5.28076e-06
3.54626e-06
1.68234e-06
0
0
0
0
0
0
0
0
0
0
0
0
0
0
0
0
0
0
0
0
0
0
0
0
0
0
9.32317e-06
2.72505e-05
2.90728e-05
2.50229e-05
2.12618e-05
2.06073e-05
3.093e-05
4.9744e-05
2.30394e-05
0
0
0
0
1.42653e-05
4.39214e-05
4.15295e-05
4.11703e-05
4.48947e-05
4.83758e-05
4.69418e-05
4.25006e-05
3.37284e-05
3.47569e-05
0
0
0
0
0
0
0
0
0
0
0
0
0
0
0
0
0
0
0
0
4.01293e-08
2.60222e-06
5.18485e-06
7.68136e-06
9.98625e-06
1.20044e-05
1.36603e-05
1.49045e-05
1.57153e-05
1.60943e-05
1.60581e-05
1.56281e-05
1.48261e-05
1.36869e-05
1.22951e-05
1.08382e-05
9.63733e-06
9.06095e-06
9.2514e-06
9.95715e-06
1.07607e-05
1.13447e-05
1.15522e-05
1.13463e-05
1.07566e-05
9.83805e-06
8.64367e-06
7.20901e-06
5.54705e-06
3.66536e-06
1.61534e-06
0
0
0
0
0
0
0
0
0
0
0
0
0
0
0
0
0
0
0
0
0
0
5.5535e-07
0
0
0
1.44999e-05
3.0493e-05
3.13012e-05
2.72526e-05
2.3727e-05
2.39763e-05
3.46218e-05
5.0507e-05
3.77442e-05
0
0
0
0
4.55167e-06
3.99315e-05
3.81555e-05
3.81733e-05
4.24274e-05
4.68041e-05
4.63401e-05
4.24256e-05
3.47623e-05
3.56988e-05
0
0
0
0
0
0
0
0
0
0
0
0
0
0
0
0
0
0
0
0
3.27813e-07
2.72696e-06
5.11085e-06
7.38438e-06
9.45772e-06
1.12531e-05
1.27108e-05
1.3793e-05
1.44843e-05
1.47868e-05
1.47129e-05
1.42777e-05
1.35003e-05
1.24229e-05
1.11544e-05
9.92077e-06
9.06998e-06
8.91736e-06
9.46331e-06
1.03734e-05
1.12604e-05
1.18663e-05
1.20734e-05
1.18611e-05
1.126e-05
1.03184e-05
9.08009e-06
7.57296e-06
5.80635e-06
3.78562e-06
1.55633e-06
0
0
0
0
0
0
0
0
0
0
0
0
0
0
0
0
0
0
0
0
0
0
0
3.01907e-06
0
0
1.99818e-05
3.32483e-05
3.29026e-05
2.8808e-05
2.53841e-05
2.62887e-05
3.62774e-05
4.97506e-05
4.53908e-05
1.70738e-06
0
0
0
0
3.58646e-05
3.46539e-05
3.50085e-05
3.96315e-05
4.46805e-05
4.50901e-05
4.17286e-05
3.49801e-05
3.57915e-05
0
0
0
0
0
0
0
0
0
0
0
0
0
0
0
0
0
0
0
0
6.21785e-07
2.81308e-06
4.96654e-06
6.99873e-06
8.83348e-06
1.04069e-05
1.1671e-05
1.25967e-05
1.31722e-05
1.33995e-05
1.32871e-05
1.28465e-05
1.20992e-05
1.11036e-05
1.00017e-05
9.06008e-06
8.62626e-06
8.90644e-06
9.7555e-06
1.08092e-05
1.17384e-05
1.23442e-05
1.25426e-05
1.23244e-05
1.17183e-05
1.07634e-05
9.49223e-06
7.92358e-06
6.06151e-06
3.90919e-06
1.50743e-06
0
0
0
0
0
0
0
0
0
0
0
0
0
0
0
0
0
0
0
0
0
0
0
3.14263e-06
6.0009e-07
5.06461e-06
2.53758e-05
3.52256e-05
3.38995e-05
2.9679e-05
2.61695e-05
2.74397e-05
3.63021e-05
4.7883e-05
4.88418e-05
2.13365e-05
0
0
0
0
3.18176e-05
3.11071e-05
3.17529e-05
3.65777e-05
4.20527e-05
4.31991e-05
4.0398e-05
3.43933e-05
3.50826e-05
0
0
0
0
0
0
0
0
0
0
0
0
0
0
0
0
0
0
0
0
9.01078e-07
2.85887e-06
4.76442e-06
6.54597e-06
8.13945e-06
9.49231e-06
1.05661e-05
1.13381e-05
1.17993e-05
1.19511e-05
1.17997e-05
1.13571e-05
1.06544e-05
9.776e-06
8.90464e-06
8.33582e-06
8.36345e-06
9.03886e-06
1.01124e-05
1.12452e-05
1.21788e-05
1.27669e-05
1.29521e-05
1.27319e-05
1.21295e-05
1.11726e-05
9.88123e-06
8.26332e-06
6.31608e-06
4.0395e-06
1.47127e-06
0
0
0
0
0
0
0
0
0
0
0
0
0
0
0
0
0
0
0
0
0
0
0
8.90248e-07
1.45459e-06
1.11248e-05
2.99098e-05
3.62612e-05
3.43885e-05
2.98166e-05
2.59683e-05
2.73073e-05
3.48895e-05
4.50032e-05
4.95264e-05
3.42521e-05
0
0
0
0
2.78679e-05
2.75956e-05
2.84889e-05
3.33454e-05
3.89851e-05
4.06972e-05
3.84437e-05
3.30446e-05
3.36487e-05
0
0
0
0
0
0
0
0
0
0
0
0
0
0
0
0
0
0
0
0
1.15047e-06
2.86269e-06
4.51317e-06
6.0413e-06
7.39406e-06
8.52886e-06
9.41537e-06
1.00361e-05
1.03845e-05
1.0462e-05
1.02755e-05
9.84341e-06
9.21661e-06
8.51483e-06
7.95961e-06
7.83626e-06
8.317e-06
9.30114e-06
1.05071e-05
1.16583e-05
1.25645e-05
1.31229e-05
1.32947e-05
1.30792e-05
1.24913e-05
1.15457e-05
1.02483e-05
8.59487e-06
6.57401e-06
4.18077e-06
1.45037e-06
0
0
0
0
0
0
0
0
0
0
0
0
0
0
0
0
0
0
0
0
0
0
0
0
2.09525e-06
1.74246e-05
3.26928e-05
3.64582e-05
3.44867e-05
2.90546e-05
2.45615e-05
2.57186e-05
3.2099e-05
4.11133e-05
4.81468e-05
4.21781e-05
1.00835e-05
0
0
0
2.40571e-05
2.41978e-05
2.53055e-05
3.00255e-05
3.5563e-05
3.76366e-05
3.58892e-05
3.09899e-05
3.15707e-05
0
0
0
0
0
0
0
0
0
0
0
0
0
0
0
0
0
0
0
0
1.35228e-06
2.81549e-06
4.21102e-06
5.48884e-06
6.60599e-06
7.52873e-06
8.2338e-06
8.70852e-06
8.94926e-06
8.9598e-06
8.75327e-06
8.36372e-06
7.87142e-06
7.43424e-06
7.2854e-06
7.62969e-06
8.48212e-06
9.65628e-06
1.09044e-05
1.20226e-05
1.28782e-05
1.34006e-05
1.35628e-05
1.33617e-05
1.28013e-05
1.18819e-05
1.05945e-05
8.92132e-06
6.84021e-06
4.33901e-06
1.44966e-06
0
0
0
0
0
0
0
0
0
0
0
0
0
0
0
0
0
0
0
0
0
0
0
0
4.20558e-06
2.24645e-05
3.34063e-05
3.6189e-05
3.42148e-05
2.69892e-05
2.15801e-05
2.25008e-05
2.80359e-05
3.63246e-05
4.51492e-05
4.62295e-05
2.62856e-05
0
0
0
2.03857e-05
2.0994e-05
2.23046e-05
2.67278e-05
3.18985e-05
3.40974e-05
3.27776e-05
2.82954e-05
2.89234e-05
0
0
0
0
0
0
0
0
0
0
0
0
0
0
0
0
0
0
0
2.51916e-07
1.49625e-06
2.71363e-06
3.86032e-06
4.896e-06
5.78686e-06
6.50723e-06
7.04063e-06
7.37987e-06
7.52663e-06
7.49235e-06
7.30432e-06
7.0213e-06
6.75625e-06
6.68354e-06
6.98335e-06
7.72385e-06
8.80837e-06
1.00499e-05
1.1264e-05
1.23112e-05
1.31021e-05
1.35885e-05
1.37488e-05
1.35739e-05
1.30559e-05
1.21798e-05
1.09208e-05
9.24602e-06
7.1203e-06
4.52113e-06
1.47496e-06
0
0
0
0
0
0
0
0
0
0
0
0
0
0
0
0
0
0
0
0
0
0
0
0
7.81546e-06
2.46673e-05
3.27139e-05
3.58667e-05
3.33495e-05
2.27763e-05
1.66017e-05
1.77845e-05
2.3162e-05
3.10961e-05
4.10787e-05
4.72962e-05
3.78076e-05
8.06506e-06
0
0
1.68406e-05
1.80637e-05
1.95877e-05
2.35653e-05
2.81176e-05
3.01794e-05
2.91658e-05
2.50226e-05
2.57548e-05
0
0
0
0
0
0
0
0
0
0
0
0
0
0
0
0
0
0
0
5.49833e-07
1.56695e-06
2.54825e-06
3.45839e-06
4.26604e-06
4.94599e-06
5.48072e-06
5.86166e-06
6.09005e-06
6.17792e-06
6.15138e-06
6.05888e-06
5.98391e-06
6.04931e-06
6.38645e-06
7.06499e-06
8.04634e-06
9.21104e-06
1.04178e-05
1.15434e-05
1.24966e-05
1.32186e-05
1.36746e-05
1.38438e-05
1.37094e-05
1.32505e-05
1.24369e-05
1.12275e-05
9.57276e-06
7.42132e-06
4.73639e-06
1.53533e-06
0
0
0
0
0
0
0
0
0
0
0
0
0
0
0
0
0
0
0
0
0
0
0
0
1.05501e-05
2.43971e-05
3.17461e-05
3.56324e-05
3.12101e-05
1.49904e-05
9.89892e-06
1.25013e-05
1.84336e-05
2.62572e-05
3.67439e-05
4.6321e-05
4.50106e-05
2.64793e-05
0
0
1.3477e-05
1.54796e-05
1.72253e-05
2.06217e-05
2.43294e-05
2.59725e-05
2.50919e-05
2.11817e-05
2.20451e-05
0
0
0
0
0
0
0
0
0
0
0
0
0
0
0
0
0
0
0
7.63122e-07
1.56368e-06
2.32325e-06
3.0145e-06
3.61478e-06
4.10806e-06
4.487e-06
4.75465e-06
4.92575e-06
5.02806e-06
5.10477e-06
5.21779e-06
5.44596e-06
5.86774e-06
6.52861e-06
7.41655e-06
8.46733e-06
9.59019e-06
1.06933e-05
1.16994e-05
1.2551e-05
1.32088e-05
1.36454e-05
1.38376e-05
1.376e-05
1.33788e-05
1.26495e-05
1.15144e-05
9.90576e-06
7.75209e-06
4.99674e-06
1.64262e-06
0
0
0
0
0
0
0
0
0
0
0
0
0
0
0
0
0
0
0
0
0
0
0
0
1.0911e-05
2.34538e-05
3.11311e-05
3.5285e-05
2.52581e-05
4.00917e-06
3.37672e-06
8.03695e-06
1.48062e-05
2.26075e-05
3.3031e-05
4.43598e-05
4.86082e-05
3.97448e-05
1.32838e-05
0
1.05443e-05
1.33148e-05
1.52325e-05
1.79187e-05
2.05775e-05
2.15054e-05
2.05015e-05
1.6653e-05
1.754e-05
7.45775e-07
0
0
0
0
0
0
0
0
0
0
0
0
0
0
0
0
0
2.48231e-07
8.72117e-07
1.47592e-06
2.0376e-06
2.53868e-06
2.96695e-06
3.31895e-06
3.60204e-06
3.83521e-06
4.04789e-06
4.27698e-06
4.56298e-06
4.94565e-06
5.45826e-06
6.11943e-06
6.92556e-06
7.84857e-06
8.84119e-06
9.84725e-06
1.08122e-05
1.16903e-05
1.24463e-05
1.3053e-05
1.3486e-05
1.37183e-05
1.37156e-05
1.3433e-05
1.28121e-05
1.17797e-05
1.02479e-05
8.12112e-06
5.31516e-06
1.81009e-06
0
0
0
0
0
0
0
0
0
0
0
0
0
0
0
0
0
0
0
0
0
0
0
0
9.5795e-06
2.30624e-05
3.06969e-05
3.40841e-05
7.37263e-06
0
0
5.06261e-06
1.26836e-05
2.05493e-05
3.05615e-05
4.23794e-05
4.96916e-05
4.75285e-05
3.32262e-05
0
8.5359e-06
1.16349e-05
1.34948e-05
1.52992e-05
1.67811e-05
1.68145e-05
1.54242e-05
1.14513e-05
1.18903e-05
2.02604e-06
2.19412e-07
0
0
0
0
0
0
0
0
0
0
0
0
0
0
0
0
4.4487e-07
8.97545e-07
1.32906e-06
1.72634e-06
2.08278e-06
2.40082e-06
2.6934e-06
2.98264e-06
3.29517e-06
3.65531e-06
4.07992e-06
4.57784e-06
5.1528e-06
5.8059e-06
6.53476e-06
7.33034e-06
8.1745e-06
9.04094e-06
9.89948e-06
1.07211e-05
1.14811e-05
1.21588e-05
1.27342e-05
1.31835e-05
1.34752e-05
1.35674e-05
1.34056e-05
1.29201e-05
1.20229e-05
1.06056e-05
8.54371e-06
5.71557e-06
2.06484e-06
0
0
0
0
0
0
0
0
0
0
0
0
0
0
0
0
0
0
0
0
0
0
0
0
7.05543e-06
2.37269e-05
2.94618e-05
2.87221e-05
0
0
0
3.47304e-06
1.20829e-05
2.01652e-05
2.95636e-05
4.10041e-05
4.94053e-05
5.07392e-05
4.35934e-05
1.16284e-05
7.97823e-06
1.04613e-05
1.17941e-05
1.25603e-05
1.2969e-05
1.22211e-05
1.03965e-05
6.29068e-06
5.65822e-06
2.68262e-06
9.09086e-07
2.61404e-07
0
0
0
0
0
0
0
0
0
0
0
0
0
0
1.91818e-07
5.14562e-07
8.32811e-07
1.13997e-06
1.43622e-06
1.73023e-06
2.03835e-06
2.38034e-06
2.77269e-06
3.22322e-06
3.73005e-06
4.28493e-06
4.87829e-06
5.50304e-06
6.15565e-06
6.83434e-06
7.53592e-06
8.25339e-06
8.97597e-06
9.69118e-06
1.03872e-05
1.10534e-05
1.16785e-05
1.22465e-05
1.2733e-05
1.31029e-05
1.33085e-05
1.32883e-05
1.2964e-05
1.22352e-05
1.09738e-05
9.02238e-06
6.2103e-06
2.42388e-06
0
0
0
0
0
0
0
0
0
0
0
0
0
0
0
0
0
0
0
0
0
0
0
0
3.6322e-06
2.57339e-05
2.44753e-05
9.83756e-06
0
0
0
2.62498e-06
1.16856e-05
2.08208e-05
2.97935e-05
4.0315e-05
4.8515e-05
5.09298e-05
4.66841e-05
2.32498e-05
8.85997e-06
9.67759e-06
9.99114e-06
9.76194e-06
9.47769e-06
8.3063e-06
6.23747e-06
2.16261e-06
2.59952e-07
4.02721e-06
2.22702e-06
1.52396e-06
1.09404e-06
7.25026e-07
3.9237e-07
1.05572e-07
0
0
0
0
0
0
0
0
0
1.09306e-07
3.1709e-07
5.36954e-07
7.68368e-07
1.01678e-06
1.29321e-06
1.61106e-06
1.98127e-06
2.40819e-06
2.88819e-06
3.41113e-06
3.96355e-06
4.53223e-06
5.10718e-06
5.68318e-06
6.25966e-06
6.83886e-06
7.42331e-06
8.01403e-06
8.61048e-06
9.21155e-06
9.81632e-06
1.04229e-05
1.10254e-05
1.161e-05
1.21522e-05
1.26149e-05
1.2948e-05
1.3087e-05
1.29487e-05
1.24244e-05
1.13687e-05
9.58988e-06
6.85436e-06
2.95905e-06
0
0
0
0
0
0
0
0
0
0
0
0
0
0
0
0
0
0
0
0
0
0
0
0
0
2.60642e-05
1.45216e-05
0
0
0
1.42454e-07
0
0
1.579e-05
2.96322e-05
3.97236e-05
4.71124e-05
4.92178e-05
4.5405e-05
2.73653e-05
1.02794e-05
8.97034e-06
8.09024e-06
7.14427e-06
6.62533e-06
5.36388e-06
3.23363e-06
0
0
4.31354e-06
2.58903e-06
1.90124e-06
1.47805e-06
1.11431e-06
7.88253e-07
5.08602e-07
2.75722e-07
8.42845e-08
0
0
0
0
0
0
4.89883e-08
1.76285e-07
3.27746e-07
5.06477e-07
7.19083e-07
9.73834e-07
1.27782e-06
1.63436e-06
2.04163e-06
2.49277e-06
2.97706e-06
3.48176e-06
3.99421e-06
4.50395e-06
5.00452e-06
5.49438e-06
5.97655e-06
6.45699e-06
6.94254e-06
7.43945e-06
7.95306e-06
8.48817e-06
9.04868e-06
9.63587e-06
1.02455e-05
1.08647e-05
1.147e-05
1.20262e-05
1.24851e-05
1.27843e-05
1.28413e-05
1.25452e-05
1.17402e-05
1.02039e-05
7.6313e-06
3.68715e-06
0
0
0
0
0
0
0
0
0
0
0
0
0
0
0
0
0
0
0
0
0
0
0
0
0
2.35999e-05
1.1058e-05
4.33086e-06
2.11962e-06
2.56696e-06
2.88059e-06
0
0
0
2.30073e-05
3.77777e-05
4.46394e-05
4.58983e-05
4.15488e-05
2.69606e-05
1.10679e-05
7.96822e-06
6.09195e-06
4.76376e-06
4.37141e-06
3.22425e-06
1.12508e-06
0
0