/*--------------------------------*- C++ -*----------------------------------*\
  =========                 |
  \\      /  F ield         | OpenFOAM: The Open Source CFD Toolbox
   \\    /   O peration     | Website:  https://openfoam.org
    \\  /    A nd           | Version:  10
     \\/     M anipulation  |
\*---------------------------------------------------------------------------*/
FoamFile
{
    format      ascii;
    class       volScalarField;
    location    "0.19";
    object      p;
}
// * * * * * * * * * * * * * * * * * * * * * * * * * * * * * * * * * * * * * //

dimensions      [0 2 -2 0 0 0 0];

internalField   nonuniform List<scalar> 
6820
(
-9.4081
-9.71068
-9.75705
-9.77329
-9.80589
-9.83131
-9.84984
-9.86597
-9.88009
-9.89209
-9.90228
-9.91081
-9.91772
-9.92297
-9.92651
-9.92822
-9.92794
-9.92548
-9.92059
-9.91296
-9.9022
-9.88785
-9.86936
-9.84601
-9.81692
-9.78098
-9.73671
-9.68225
-9.615
-9.53152
-9.42808
-9.2928
-9.14637
-9.60947
-9.73461
-9.77152
-9.78769
-9.8145
-9.83685
-9.85383
-9.86889
-9.88232
-9.89392
-9.90385
-9.91226
-9.91913
-9.92442
-9.92808
-9.92998
-9.92998
-9.92788
-9.92347
-9.91645
-9.90648
-9.89315
-9.87597
-9.85434
-9.82751
-9.7946
-9.75448
-9.70583
-9.64688
-9.57644
-9.49171
-9.40216
-9.30684
-9.6094
-9.69497
-9.75383
-9.78109
-9.81006
-9.83514
-9.85448
-9.87108
-9.88565
-9.89815
-9.90882
-9.91783
-9.92525
-9.93105
-9.93521
-9.93766
-9.93827
-9.9369
-9.93338
-9.92749
-9.91899
-9.9076
-9.89298
-9.87479
-9.85265
-9.82621
-9.79518
-9.7595
-9.71983
-9.67777
-9.6401
-9.61583
-9.65207
-9.66634
-9.73633
-9.78469
-9.80556
-9.82804
-9.84908
-9.86575
-9.8802
-9.89314
-9.90441
-9.91415
-9.92247
-9.92938
-9.93485
-9.93883
-9.94124
-9.94197
-9.94088
-9.93783
-9.93264
-9.9251
-9.91502
-9.90217
-9.88637
-9.86747
-9.84545
-9.82053
-9.79341
-9.76586
-9.74112
-9.72712
-9.73485
-9.79817
-9.69639
-9.73538
-9.77488
-9.79856
-9.82224
-9.84456
-9.86286
-9.87867
-9.89276
-9.90507
-9.91573
-9.92487
-9.93255
-9.93876
-9.94346
-9.94663
-9.94816
-9.94798
-9.94598
-9.94203
-9.93601
-9.9278
-9.91733
-9.90457
-9.88961
-9.87274
-9.85464
-9.83655
-9.82097
-9.81179
-9.81722
-9.84668
-9.92564
-9.7264
-9.75733
-9.79514
-9.81918
-9.84031
-9.86009
-9.87663
-9.89092
-9.90367
-9.91491
-9.92471
-9.93318
-9.94035
-9.94622
-9.95076
-9.95391
-9.95562
-9.95581
-9.9544
-9.95131
-9.94648
-9.93988
-9.93152
-9.9215
-9.91011
-9.89785
-9.88567
-9.87511
-9.86886
-9.8708
-9.88793
-9.92765
-10.0063
-9.75156
-9.77168
-9.80075
-9.82154
-9.84049
-9.85919
-9.87568
-9.89025
-9.90344
-9.91523
-9.92565
-9.93478
-9.94265
-9.94926
-9.95458
-9.95859
-9.96125
-9.96253
-9.96239
-9.96078
-9.95772
-9.95323
-9.94744
-9.94057
-9.93304
-9.92551
-9.91907
-9.91537
-9.91698
-9.92734
-9.95189
-9.99581
-10.0686
-9.77399
-9.78877
-9.81424
-9.83513
-9.8538
-9.87175
-9.88765
-9.90164
-9.91425
-9.92553
-9.93553
-9.94434
-9.952
-9.95851
-9.96388
-9.96808
-9.97112
-9.97294
-9.97354
-9.97295
-9.97123
-9.96848
-9.96487
-9.96073
-9.95652
-9.95301
-9.95129
-9.95292
-9.96014
-9.97573
-10.0035
-10.0468
-10.1104
-9.79423
-9.80491
-9.82546
-9.84363
-9.85999
-9.87608
-9.89092
-9.90437
-9.91671
-9.92798
-9.93816
-9.94728
-9.95538
-9.96244
-9.96847
-9.97346
-9.97741
-9.98033
-9.98225
-9.98321
-9.9833
-9.98267
-9.98156
-9.98033
-9.97951
-9.97986
-9.9824
-9.98851
-10
-10.0189
-10.0478
-10.0884
-10.1424
-9.81276
-9.8208
-9.83803
-9.85488
-9.87058
-9.88612
-9.90067
-9.91396
-9.92616
-9.93734
-9.94748
-9.95664
-9.96484
-9.9721
-9.97843
-9.98385
-9.98838
-9.99205
-9.99494
-9.9971
-9.99865
-9.99978
-10.0008
-10.002
-10.004
-10.0075
-10.0133
-10.0227
-10.0369
-10.0575
-10.0857
-10.1223
-10.1673
-9.82995
-9.83615
-9.85044
-9.86535
-9.87951
-9.8936
-9.90708
-9.91963
-9.93135
-9.94227
-9.95235
-9.96161
-9.97007
-9.97775
-9.98464
-9.99078
-9.99619
-10.0009
-10.005
-10.0086
-10.0118
-10.0149
-10.0181
-10.0219
-10.0266
-10.033
-10.0417
-10.0537
-10.0699
-10.0913
-10.1183
-10.1511
-10.1887
-9.84606
-9.85098
-9.86299
-9.87639
-9.88959
-9.90294
-9.91598
-9.92833
-9.93998
-9.95092
-9.96112
-9.97058
-9.97932
-9.98737
-9.99474
-10.0015
-10.0076
-10.0132
-10.0184
-10.0233
-10.028
-10.0328
-10.038
-10.0438
-10.0508
-10.0595
-10.0704
-10.0843
-10.1017
-10.1231
-10.1486
-10.1779
-10.2096
-9.86128
-9.86529
-9.87546
-9.8874
-9.89948
-9.91183
-9.92405
-9.9358
-9.94702
-9.9577
-9.96781
-9.97733
-9.98628
-9.99468
-10.0026
-10.0099
-10.0169
-10.0235
-10.0298
-10.036
-10.0423
-10.0487
-10.0558
-10.0636
-10.0727
-10.0835
-10.0963
-10.1117
-10.13
-10.1514
-10.1758
-10.2025
-10.2302
-9.87576
-9.8791
-9.88782
-9.89851
-9.90967
-9.92128
-9.93298
-9.94444
-9.95553
-9.96622
-9.97646
-9.98622
-9.99552
-10.0044
-10.0128
-10.0209
-10.0286
-10.0362
-10.0436
-10.0511
-10.0587
-10.0667
-10.0754
-10.085
-10.0959
-10.1083
-10.1227
-10.1393
-10.1582
-10.1795
-10.2029
-10.2277
-10.2529
-9.8896
-9.89245
-9.90001
-9.90962
-9.91991
-9.93077
-9.94187
-9.95288
-9.96368
-9.97419
-9.98439
-9.99424
-10.0038
-10.013
-10.0219
-10.0306
-10.0391
-10.0476
-10.056
-10.0647
-10.0736
-10.0831
-10.0933
-10.1045
-10.117
-10.131
-10.1467
-10.1643
-10.1838
-10.2053
-10.2282
-10.2522
-10.2762
-9.90288
-9.90535
-9.912
-9.92068
-9.93023
-9.94046
-9.95108
-9.96179
-9.97243
-9.98293
-9.99324
-10.0033
-10.0132
-10.0229
-10.0323
-10.0417
-10.051
-10.0604
-10.0699
-10.0797
-10.0899
-10.1007
-10.1124
-10.125
-10.1389
-10.1541
-10.171
-10.1895
-10.2096
-10.2313
-10.2542
-10.2779
-10.3017
-9.91566
-9.91785
-9.92376
-9.93167
-9.94056
-9.95022
-9.96039
-9.97077
-9.98121
-9.99162
-10.002
-10.0122
-10.0223
-10.0323
-10.0423
-10.0523
-10.0623
-10.0725
-10.0829
-10.0938
-10.1051
-10.1172
-10.13
-10.1439
-10.159
-10.1755
-10.1934
-10.2127
-10.2336
-10.2557
-10.279
-10.303
-10.3274
-9.92799
-9.92994
-9.93528
-9.94254
-9.95087
-9.96005
-9.96983
-9.97995
-9.99025
-10.0007
-10.0111
-10.0215
-10.032
-10.0424
-10.0529
-10.0636
-10.0743
-10.0853
-10.0967
-10.1085
-10.121
-10.1341
-10.1482
-10.1632
-10.1794
-10.1969
-10.2157
-10.2359
-10.2575
-10.2803
-10.3041
-10.3288
-10.3542
-9.93988
-9.94166
-9.94653
-9.95326
-9.9611
-9.96987
-9.97931
-9.9892
-9.99938
-10.0098
-10.0203
-10.0309
-10.0416
-10.0524
-10.0634
-10.0746
-10.086
-10.0977
-10.1099
-10.1226
-10.136
-10.1502
-10.1652
-10.1813
-10.1985
-10.2169
-10.2366
-10.2576
-10.2799
-10.3034
-10.328
-10.3537
-10.3802
-9.95135
-9.95299
-9.9575
-9.96379
-9.97123
-9.97965
-9.98882
-9.99852
-10.0086
-10.019
-10.0296
-10.0404
-10.0515
-10.0627
-10.0741
-10.0858
-10.0979
-10.1104
-10.1233
-10.1369
-10.1511
-10.1662
-10.1821
-10.1991
-10.2172
-10.2364
-10.2569
-10.2787
-10.3017
-10.3259
-10.3514
-10.378
-10.4058
-9.96242
-9.96395
-9.96817
-9.97411
-9.98122
-9.98934
-9.99829
-10.0078
-10.0179
-10.0283
-10.039
-10.05
-10.0613
-10.0729
-10.0847
-10.0969
-10.1096
-10.1227
-10.1363
-10.1506
-10.1656
-10.1814
-10.1982
-10.2159
-10.2347
-10.2547
-10.2759
-10.2983
-10.322
-10.347
-10.3732
-10.4007
-10.4297
-9.97307
-9.97452
-9.9785
-9.98417
-9.99101
-9.99891
-10.0077
-10.0171
-10.0271
-10.0375
-10.0484
-10.0596
-10.0711
-10.083
-10.0953
-10.108
-10.1211
-10.1348
-10.149
-10.164
-10.1796
-10.1961
-10.2136
-10.232
-10.2514
-10.272
-10.2938
-10.3168
-10.341
-10.3666
-10.3935
-10.4217
-10.4515
-9.98329
-9.98468
-9.98849
-9.99394
-10.0006
-10.0083
-10.0169
-10.0263
-10.0363
-10.0468
-10.0577
-10.0691
-10.0809
-10.0931
-10.1058
-10.1189
-10.1325
-10.1467
-10.1615
-10.177
-10.1932
-10.2103
-10.2283
-10.2472
-10.2672
-10.2883
-10.3105
-10.3339
-10.3586
-10.3846
-10.4119
-10.4407
-10.471
-9.99307
-9.99441
-9.99809
-10.0034
-10.0099
-10.0174
-10.026
-10.0353
-10.0452
-10.0558
-10.0669
-10.0784
-10.0904
-10.1029
-10.1159
-10.1294
-10.1434
-10.158
-10.1732
-10.1891
-10.2058
-10.2233
-10.2418
-10.2611
-10.2815
-10.3029
-10.3254
-10.3491
-10.374
-10.4002
-10.4277
-10.4567
-10.4872
-10.0024
-10.0037
-10.0073
-10.0125
-10.0188
-10.0263
-10.0348
-10.0441
-10.0541
-10.0648
-10.076
-10.0877
-10.1
-10.1127
-10.126
-10.1398
-10.1542
-10.1692
-10.1848
-10.2011
-10.2182
-10.2361
-10.2548
-10.2744
-10.295
-10.3166
-10.3393
-10.3631
-10.3881
-10.4143
-10.4418
-10.4706
-10.5009
-10.0112
-10.0125
-10.016
-10.0211
-10.0274
-10.0348
-10.0433
-10.0526
-10.0626
-10.0733
-10.0846
-10.0965
-10.1089
-10.1218
-10.1353
-10.1494
-10.164
-10.1792
-10.1951
-10.2117
-10.229
-10.2471
-10.266
-10.2857
-10.3064
-10.328
-10.3507
-10.3743
-10.3991
-10.425
-10.4522
-10.4805
-10.5103
-10.0194
-10.0207
-10.0242
-10.0293
-10.0356
-10.043
-10.0515
-10.0609
-10.071
-10.0818
-10.0933
-10.1054
-10.118
-10.1312
-10.1449
-10.1592
-10.1741
-10.1896
-10.2057
-10.2225
-10.2399
-10.2582
-10.2771
-10.2969
-10.3176
-10.3391
-10.3615
-10.3849
-10.4093
-10.4348
-10.4613
-10.4889
-10.5178
-10.027
-10.0283
-10.0318
-10.0369
-10.0432
-10.0506
-10.0591
-10.0684
-10.0786
-10.0895
-10.101
-10.1131
-10.1259
-10.1392
-10.153
-10.1674
-10.1824
-10.198
-10.2142
-10.2311
-10.2486
-10.2667
-10.2856
-10.3053
-10.3257
-10.3469
-10.3689
-10.3918
-10.4155
-10.4402
-10.4658
-10.4924
-10.5201
-10.034
-10.0353
-10.0389
-10.044
-10.0504
-10.058
-10.0666
-10.0762
-10.0865
-10.0975
-10.1093
-10.1216
-10.1345
-10.148
-10.162
-10.1766
-10.1917
-10.2074
-10.2237
-10.2406
-10.2581
-10.2761
-10.2949
-10.3143
-10.3344
-10.3552
-10.3767
-10.3989
-10.4219
-10.4457
-10.4703
-10.4956
-10.5218
-10.0402
-10.0414
-10.045
-10.0502
-10.0566
-10.0642
-10.0728
-10.0823
-10.0927
-10.1038
-10.1155
-10.1279
-10.1408
-10.1544
-10.1684
-10.183
-10.1982
-10.2139
-10.2301
-10.2468
-10.2641
-10.282
-10.3004
-10.3194
-10.339
-10.3591
-10.3799
-10.4013
-10.4233
-10.4459
-10.4691
-10.4929
-10.5174
-10.0455
-10.0469
-10.0508
-10.0563
-10.063
-10.0709
-10.0798
-10.0896
-10.1002
-10.1115
-10.1235
-10.136
-10.1491
-10.1628
-10.1769
-10.1916
-10.2068
-10.2224
-10.2385
-10.2551
-10.2722
-10.2898
-10.3079
-10.3264
-10.3455
-10.365
-10.385
-10.4055
-10.4264
-10.4478
-10.4696
-10.4918
-10.5144
-10.0497
-10.0511
-10.0549
-10.0603
-10.067
-10.0749
-10.0838
-10.0936
-10.1043
-10.1156
-10.1276
-10.1402
-10.1534
-10.167
-10.1812
-10.1958
-10.2109
-10.2264
-10.2424
-10.2587
-10.2755
-10.2927
-10.3103
-10.3282
-10.3466
-10.3652
-10.3842
-10.4036
-10.4232
-10.4431
-10.4633
-10.4838
-10.5044
-10.0531
-10.0549
-10.0595
-10.0656
-10.073
-10.0814
-10.0908
-10.1009
-10.1119
-10.1234
-10.1356
-10.1483
-10.1615
-10.1752
-10.1893
-10.2038
-10.2188
-10.2342
-10.2499
-10.266
-10.2825
-10.2992
-10.3163
-10.3337
-10.3514
-10.3692
-10.3874
-10.4057
-10.4241
-10.4427
-10.4614
-10.4801
-10.4988
-10.0544
-10.0557
-10.06
-10.0661
-10.0734
-10.0818
-10.0914
-10.1018
-10.1129
-10.1246
-10.1369
-10.1498
-10.1631
-10.1769
-10.1911
-10.2056
-10.2205
-10.2357
-10.2512
-10.267
-10.2831
-10.2993
-10.3158
-10.3325
-10.3492
-10.3661
-10.3831
-10.4001
-10.4171
-10.4341
-10.451
-10.4679
-10.4845
-10.056
-10.0588
-10.0647
-10.0721
-10.0803
-10.0895
-10.0991
-10.1097
-10.1209
-10.1328
-10.1451
-10.1579
-10.171
-10.1846
-10.1986
-10.213
-10.2276
-10.2426
-10.2579
-10.2733
-10.289
-10.3048
-10.3208
-10.3369
-10.353
-10.3692
-10.3853
-10.4014
-10.4173
-10.4331
-10.4487
-10.4639
-10.4789
-10.0515
-10.0528
-10.0583
-10.0659
-10.0745
-10.0843
-10.0954
-10.1067
-10.1184
-10.1307
-10.1435
-10.1569
-10.1704
-10.1842
-10.1983
-10.2126
-10.2273
-10.2421
-10.257
-10.2721
-10.2873
-10.3026
-10.3178
-10.3331
-10.3482
-10.3633
-10.3782
-10.3929
-10.4073
-10.4215
-10.4355
-10.4489
-10.4619
-10.0522
-10.0581
-10.0668
-10.0754
-10.0845
-10.0944
-10.1048
-10.1157
-10.1271
-10.139
-10.1514
-10.1638
-10.177
-10.1906
-10.2045
-10.2187
-10.2331
-10.2477
-10.2624
-10.2773
-10.2923
-10.3073
-10.3222
-10.3371
-10.3519
-10.3665
-10.3809
-10.395
-10.4088
-10.4221
-10.4348
-10.4471
-10.4589
-10.0319
-10.0364
-10.0483
-10.0599
-10.0715
-10.0838
-10.0963
-10.109
-10.1218
-10.1348
-10.148
-10.1615
-10.1752
-10.1891
-10.2031
-10.2172
-10.2315
-10.2458
-10.2602
-10.2746
-10.289
-10.3033
-10.3174
-10.3314
-10.3451
-10.3585
-10.3716
-10.3843
-10.3965
-10.4081
-10.4193
-10.4299
-10.4398
-10.0447
-10.0548
-10.0657
-10.0744
-10.0843
-10.0948
-10.1055
-10.1167
-10.1284
-10.1405
-10.1531
-10.166
-10.1792
-10.1928
-10.2067
-10.2208
-10.235
-10.2495
-10.264
-10.2785
-10.2931
-10.3076
-10.3219
-10.3361
-10.3501
-10.3637
-10.377
-10.3899
-10.4022
-10.414
-10.4252
-10.4356
-10.4452
-9.94592
-10.0131
-10.0389
-10.0523
-10.0691
-10.0848
-10.0987
-10.1121
-10.1255
-10.1387
-10.152
-10.1654
-10.1789
-10.1925
-10.2063
-10.2201
-10.2339
-10.2477
-10.2616
-10.2753
-10.2889
-10.3023
-10.3154
-10.3283
-10.3408
-10.3528
-10.3643
-10.3753
-10.3857
-10.3954
-10.4043
-10.4125
-10.4197
-8.88249
-10.143
-11.6155
-13.3717
-15.1218
-15.4824
-12.4346
-6.66788
-1.09509
1.75395
1.00863
-2.09439
-6.4067
-11.7441
-17.6481
-23.6576
-29.4339
-34.7342
-39.3236
-42.9315
-45.2815
-46.1784
-45.5599
-43.6276
-40.7339
-37.1592
-33.0533
-28.5906
-24.0801
-19.8553
-16.0962
-12.846
-10.0833
-7.76771
-5.85332
-4.29107
-3.03145
-2.02757
-1.23696
-0.622207
-0.151001
0.204085
0.466009
0.653768
0.782908
0.866063
0.913423
0.933113
0.931504
0.913488
0.882417
0.840311
0.788482
0.725605
0.646698
0.540863
0.387885
0.170878
-0.107985
-0.440022
-0.84396
-1.3848
-2.17999
-3.38888
-5.22705
-8.04851
-12.4999
-19.9454
-30.6561
-42.9466
-54.9279
-64.3857
-69.4556
-68.9569
-62.5105
-51.5935
-38.7456
-26.385
-16.2807
-9.382
-5.82171
-5.22769
-7.1723
-10.8306
-14.9194
-18.0116
-18.6843
-16.0327
-10.8982
-5.76451
-2.42614
-0.760028
0.0255058
0.379763
0.479271
0.48199
0.369977
0.338434
0.105026
0.231267
-9.44396
-10.494
-11.703
-13.0723
-14.2235
-14.0074
-11.1905
-6.41328
-1.9022
0.436417
0.226512
-2.28921
-6.52226
-11.5471
-16.9844
-22.5727
-27.9966
-32.9817
-37.284
-40.6537
-42.8401
-43.6941
-43.197
-41.5289
-38.937
-35.6005
-31.6719
-27.4062
-23.1649
-19.232
-15.7271
-12.6706
-10.0458
-7.82503
-5.97312
-4.44911
-3.20994
-2.21385
-1.42236
-0.801014
-0.319701
0.0474427
0.322279
0.523055
0.664835
0.759944
0.818372
0.848142
0.855556
0.845459
0.821212
0.784789
0.737226
0.677379
0.600438
0.496353
0.345911
0.130309
-0.151878
-0.493493
-0.910641
-1.46382
-2.2672
-3.47898
-5.31036
-8.10114
-12.4588
-19.6878
-30.1646
-42.3499
-54.3063
-63.7821
-68.9138
-68.5601
-62.3363
-51.6515
-39.0113
-26.8045
-16.7997
-9.97275
-6.46234
-5.84134
-7.5764
-10.8344
-14.4714
-17.2536
-17.899
-15.5012
-10.7257
-5.84832
-2.60204
-0.938147
-0.129472
0.252307
0.37916
0.405863
0.316965
0.300726
0.090337
0.214155
-9.7957
-10.4581
-11.3331
-12.2445
-12.8745
-12.4896
-10.3284
-6.82421
-3.48473
-1.41513
-1.41705
-3.48062
-7.06685
-11.6242
-16.6029
-21.6904
-26.6617
-31.2678
-35.2554
-38.3783
-40.4067
-41.2452
-40.9007
-39.4809
-37.1178
-33.9496
-30.1886
-26.1723
-22.248
-18.6202
-15.3631
-12.4911
-9.99938
-7.8724
-6.08391
-4.59982
-3.38297
-2.39649
-1.6057
-0.979108
-0.488762
-0.110386
0.176752
0.390119
0.54425
0.651122
0.720509
0.76029
0.776684
0.774478
0.757015
0.726238
0.682923
0.626031
0.550958
0.44837
0.300099
0.0860647
-0.198606
-0.54871
-0.978611
-1.5444
-2.356
-3.56939
-5.39071
-8.14485
-12.3979
-19.3826
-29.5633
-41.5611
-53.4233
-62.8787
-68.0582
-67.8536
-61.885
-51.4941
-39.1369
-27.1547
-17.3011
-10.5717
-7.11334
-6.45922
-7.99457
-10.8844
-14.1041
-16.5918
-17.2027
-15.039
-10.6009
-5.95927
-2.79044
-1.12199
-0.288421
0.121452
0.276326
0.327557
0.262374
0.261501
0.0748335
0.196286
-9.95407
-10.4529
-11.1138
-11.729
-12.0409
-11.5505
-9.80049
-7.11106
-4.58117
-3.12451
-3.16313
-4.82942
-7.88297
-11.8966
-16.4093
-21.0483
-25.5541
-29.7248
-33.3489
-36.2063
-38.1141
-38.9828
-38.7679
-37.4873
-35.2279
-32.1803
-28.6367
-24.9425
-21.3607
-18.0288
-15.0027
-12.3049
-9.94272
-7.90938
-6.18533
-4.74272
-3.54999
-2.5749
-1.78647
-1.15603
-0.657791
-0.269076
0.0296937
0.255163
0.421307
0.539721
0.619929
0.669646
0.694981
0.700641
0.689928
0.664757
0.625692
0.571671
0.498307
0.397006
0.250905
0.0391512
-0.246819
-0.604341
-1.04642
-1.62464
-2.4438
-3.65648
-5.46326
-8.17338
-12.3091
-19.0193
-28.8387
-40.5667
-52.2623
-61.6563
-66.8733
-66.8248
-61.1469
-51.1133
-39.1144
-27.4271
-17.7759
-11.1702
-7.76791
-7.07602
-8.42049
-10.971
-13.8054
-16.0135
-16.5832
-14.6341
-10.5154
-6.09313
-2.98992
-1.31114
-0.450896
-0.0122769
0.17121
0.24739
0.206467
0.221136
0.0588886
0.178219
-10.0815
-10.4499
-10.9162
-11.3004
-11.3945
-10.8782
-9.48666
-7.45704
-5.55412
-4.46922
-4.57811
-6.00949
-8.64669
-12.1941
-16.2626
-20.4987
-24.6263
-28.429
-31.7199
-34.3362
-36.1305
-36.9549
-36.7038
-35.4044
-33.1987
-30.3262
-27.0898
-23.7585
-20.5123
-17.455
-14.644
-12.1126
-9.87702
-7.93651
-6.27741
-4.87761
-3.71068
-2.74873
-1.96427
-1.3314
-0.826445
-0.428332
-0.11866
0.118369
0.29613
0.425809
0.516648
0.576172
0.610361
0.623823
0.619798
0.600169
0.56534
0.51417
0.442477
0.342317
0.198239
-0.0107543
-0.296789
-0.660358
-1.11358
-1.70357
-2.52914
-3.73826
-5.52518
-8.18265
-12.1876
-18.5958
-27.9925
-39.368
-50.8242
-60.108
-65.3469
-65.4615
-60.11
-50.4976
-38.9326
-27.6107
-18.2142
-11.7603
-8.42016
-7.68682
-8.84776
-11.0847
-13.5638
-15.5079
-16.0312
-14.2775
-10.4606
-6.24419
-3.19751
-1.50422
-0.616134
-0.148377
0.0641472
0.165569
0.149306
0.179599
0.0422901
0.159723
-10.1441
-10.4138
-10.7396
-10.9763
-10.9565
-10.4659
-9.35509
-7.80657
-6.36165
-5.57323
-5.76469
-7.03359
-9.3094
-12.3918
-16.0061
-19.85
-23.6408
-27.145
-30.1712
-32.5569
-34.1355
-34.7707
-34.4097
-33.121
-31.0711
-28.4911
-25.6197
-22.6447
-19.7046
-16.8968
-14.2865
-11.9149
-9.80265
-7.95392
-6.36009
-5.00425
-3.8647
-2.91756
-2.13868
-1.5048
-0.99435
-0.58783
-0.268037
-0.0200468
0.168889
0.309512
0.410756
0.479932
0.522871
0.544064
0.546669
0.532523
0.50192
0.453585
0.383523
0.284373
0.142103
-0.0638488
-0.348754
-0.716749
-1.17977
-1.78061
-2.61137
-3.81417
-5.57611
-8.17272
-12.0354
-18.1201
-27.0401
-37.9764
-49.1202
-58.2339
-63.474
-63.76
-58.7715
-49.6437
-38.5861
-27.6978
-18.6074
-12.334
-9.06391
-8.28721
-9.27137
-11.2177
-13.369
-15.0643
-15.5356
-13.9593
-10.4273
-6.40731
-3.41087
-1.70032
-0.78352
-0.286316
-0.0444511
0.0823891
0.0910879
0.13713
0.0252061
0.141141
-10.1851
-10.3819
-10.6001
-10.7273
-10.6365
-10.1906
-9.31691
-8.15973
-7.10526
-6.56467
-6.80782
-7.93058
-9.89011
-12.5418
-15.6753
-19.0576
-22.4479
-25.6139
-28.3493
-30.4573
-31.7952
-32.2966
-31.9424
-30.8049
-29.0276
-26.7888
-24.2624
-21.6005
-18.9309
-16.3516
-13.9311
-11.7128
-9.72048
-7.96202
-6.43347
-5.12253
-4.01178
-3.08105
-2.30931
-1.67586
-1.16114
-0.747246
-0.418162
-0.15986
0.0397538
0.190952
0.30233
0.380963
0.432511
0.461331
0.470486
0.461751
0.435349
0.389878
0.321481
0.223284
0.0826167
-0.120131
-0.402776
-0.773392
-1.24449
-1.85486
-2.68941
-3.88316
-5.61511
-8.14321
-11.8541
-17.5992
-25.9987
-36.4099
-47.1635
-56.0488
-61.2608
-61.7246
-57.1358
-48.5531
-38.0728
-27.6825
-18.9476
-12.884
-9.69356
-8.87339
-9.68716
-11.3629
-13.2114
-14.6726
-15.0858
-13.6702
-10.4061
-6.57658
-3.62705
-1.89819
-0.952313
-0.425547
-0.154194
-0.00187593
0.0319583
0.0938297
0.00757949
0.122391
-10.2048
-10.3453
-10.4856
-10.543
-10.4252
-10.0455
-9.37017
-8.51578
-7.7614
-7.4186
-7.70544
-8.71218
-10.4125
-12.6944
-15.3898
-18.3057
-21.2431
-24.0027
-26.3933
-28.2422
-29.4371
-29.9089
-29.6474
-28.7064
-27.1932
-25.2444
-23.0051
-20.613
-18.187
-15.8203
-13.5793
-11.5076
-9.63113
-7.96116
-6.49766
-5.23238
-4.15169
-3.23886
-2.47578
-1.84418
-1.32645
-0.906244
-0.568742
-0.300826
-0.0910761
0.0702829
0.191488
0.27935
0.339342
0.375674
0.391296
0.387904
0.365678
0.323112
0.256438
0.159182
0.0199263
-0.179602
-0.458986
-0.830279
-1.3073
-1.92545
-2.76211
-3.944
-5.64106
-8.09335
-11.6444
-17.0397
-24.886
-34.6959
-44.9726
-53.5872
-58.7347
-59.3763
-55.2183
-47.2351
-37.3954
-27.5618
-19.2285
-13.4039
-10.3043
-9.44221
-10.0921
-11.515
-13.083
-14.3224
-14.6717
-13.4009
-10.3886
-6.74604
-3.84313
-2.09648
-1.12169
-0.565448
-0.264625
-0.0868931
-0.0278721
0.0499068
-0.0105113
0.103725
-10.2173
-10.317
-10.404
-10.4185
-10.295
-9.98031
-9.46743
-8.85124
-8.33588
-8.15412
-8.47843
-9.38854
-10.8733
-12.8466
-15.1716
-17.6861
-20.2199
-22.6037
-24.6782
-26.3106
-27.3882
-27.8341
-27.6401
-26.8463
-25.5357
-23.8209
-21.8273
-19.6761
-17.4735
-15.3046
-13.2323
-11.3001
-9.53528
-7.95179
-6.55287
-5.33377
-4.28426
-3.39072
-2.63776
-2.0094
-1.48992
-1.06449
-0.719477
-0.442686
-0.223388
-0.052325
0.0783572
0.175187
0.243428
0.28713
0.309119
0.310997
0.292914
0.253316
0.188473
0.0922167
-0.0457636
-0.242173
-0.517475
-0.887453
-1.36792
-1.9916
-2.82838
-3.99563
-5.65313
-8.02292
-11.408
-16.4493
-23.7219
-32.8717
-42.585
-50.8836
-55.9317
-56.7478
-53.0425
-45.7056
-36.5623
-27.3361
-19.4457
-13.888
-10.892
-9.99144
-10.4842
-11.6697
-12.9771
-14.0042
-14.2842
-13.1427
-10.3681
-6.90957
-4.05636
-2.29358
-1.29071
-0.705334
-0.375265
-0.172313
-0.0881911
0.00552276
-0.0290658
0.0851685
-10.2258
-10.296
-10.3477
-10.3389
-10.2254
-9.97678
-9.59979
-9.17086
-8.84042
-8.78275
-9.13382
-9.96132
-11.2627
-12.9738
-14.9848
-17.1604
-19.3551
-21.4233
-23.2293
-24.653
-25.5973
-25.9975
-25.8419
-25.1586
-24.0135
-22.5001
-20.7242
-18.7903
-16.7917
-14.8057
-12.8913
-11.0913
-9.43366
-7.9344
-6.59936
-5.42676
-4.40937
-3.53639
-2.79493
-2.17116
-1.65119
-1.22163
-0.870053
-0.585165
-0.356947
-0.176676
-0.0369023
0.0686007
0.144871
0.195786
0.224037
0.231115
0.217148
0.180588
0.117704
0.0225593
-0.114205
-0.307662
-0.578282
-0.945
-1.42614
-2.05262
-2.88718
-4.03704
-5.6507
-7.93213
-11.1468
-15.8362
-22.5271
-30.9782
-40.0558
-47.9635
-52.8848
-53.8723
-50.6386
-43.989
-35.5873
-27.0095
-19.5973
-14.3321
-11.4533
-10.52
-10.8625
-11.8245
-12.8875
-13.7099
-13.9163
-12.8878
-10.3376
-7.06044
-4.26395
-2.48755
-1.45828
-0.84444
-0.485573
-0.257742
-0.148746
-0.0391035
-0.0480221
0.0669179
-10.2348
-10.285
-10.3156
-10.2978
-10.2029
-10.0153
-9.74869
-9.4654
-9.27756
-9.31531
-9.68406
-10.4396
-11.5836
-13.0679
-14.8054
-16.6845
-18.5819
-20.3723
-21.9366
-23.1697
-23.9907
-24.3439
-24.2132
-23.6194
-22.6152
-21.2774
-19.6942
-17.9549
-16.1416
-14.3239
-12.557
-10.8819
-9.32704
-7.90956
-6.63745
-5.51146
-4.52696
-3.67567
-2.94701
-2.32914
-1.8099
-1.37734
-1.02015
-0.727974
-0.491499
-0.302555
-0.154109
-0.0402569
0.0437983
0.101746
0.136141
0.148348
0.138486
0.105025
0.0442438
-0.0496048
-0.185118
-0.375802
-0.641371
-1.00304
-1.4819
-2.10798
-2.93754
-4.06721
-5.63321
-7.82139
-10.8631
-15.208
-21.3219
-29.0544
-37.4409
-44.8766
-49.6443
-50.7954
-48.0494
-42.1185
-34.4893
-26.5892
-19.6838
-14.7341
-11.986
-11.0274
-11.2275
-11.9782
-12.8095
-13.435
-13.5629
-12.6298
-10.2903
-7.19204
-4.46214
-2.67673
-1.62318
-0.981925
-0.594969
-0.342759
-0.20927
-0.0837629
-0.0673424
0.0490521
-10.2467
-10.2841
-10.3035
-10.2859
-10.2137
-10.0811
-9.90465
-9.7348
-9.65557
-9.76412
-10.1414
-10.8325
-11.8405
-13.1289
-14.6282
-16.2466
-17.8805
-19.423
-20.7715
-21.8364
-22.546
-22.8515
-22.7369
-22.217
-21.3331
-20.1475
-18.7338
-17.1684
-15.5229
-13.8598
-12.2302
-10.673
-9.21622
-7.87785
-6.66752
-5.58802
-4.637
-3.80841
-3.09374
-2.48303
-1.96574
-1.53126
-1.16944
-0.87081
-0.626773
-0.429719
-0.273052
-0.151202
-0.0596295
0.0051595
0.0455695
0.0628496
0.0570866
0.0267706
-0.0317539
-0.124068
-0.258196
-0.446244
-0.706604
-1.06171
-1.53528
-2.15733
-2.97864
-4.08523
-5.60023
-7.6913
-10.5592
-14.5711
-20.1252
-27.1373
-34.7997
-41.7081
-46.2847
-47.5831
-45.3324
-40.1351
-33.2919
-26.0854
-19.7081
-15.0938
-12.4894
-11.5141
-11.5808
-12.1308
-12.7412
-13.177
-13.2185
-12.3628
-10.2209
-7.29997
-4.64686
-2.85977
-1.78396
-1.11688
-0.702824
-0.426905
-0.269464
-0.128217
-0.0869636
0.0317381
-10.2615
-10.2918
-10.3073
-10.2959
-10.248
-10.1635
-10.0596
-9.97692
-9.97897
-10.1383
-10.5163
-11.1487
-12.0386
-13.1578
-14.4506
-15.8416
-17.2442
-18.5679
-19.7245
-20.6387
-21.2463
-21.5057
-21.4006
-20.9407
-20.1584
-19.1041
-17.8393
-16.4288
-14.9352
-13.414
-11.9118
-10.4654
-9.10198
-7.83991
-6.68998
-5.65668
-4.73955
-3.9345
-3.23491
-2.63254
-2.11836
-1.68307
-1.3176
-1.01336
-0.762475
-0.557904
-0.393494
-0.264022
-0.165219
-0.093798
-0.04751
-0.0252177
-0.0268814
-0.0539918
-0.110087
-0.200598
-0.333115
-0.518569
-0.773718
-1.12108
-1.58649
-2.20062
-3.00989
-4.09031
-5.55141
-7.54265
-10.2373
-13.9312
-18.9536
-25.262
-32.1955
-38.5428
-42.8895
-44.3168
-42.5536
-38.0839
-32.021
-25.5108
-19.6754
-15.4131
-12.9646
-11.9818
-11.9249
-12.2843
-12.682
-12.9326
-12.8781
-12.0822
-10.1251
-7.38108
-4.81459
-3.03463
-1.93918
-1.24833
-0.808468
-0.509698
-0.329014
-0.172225
-0.106825
0.0150831
-10.2809
-10.3081
-10.3244
-10.3224
-10.298
-10.2544
-10.2081
-10.1917
-10.2533
-10.447
-10.8191
-11.397
-12.1834
-13.1558
-14.2694
-15.4625
-16.6629
-17.7944
-18.7831
-19.5609
-20.076
-20.2909
-20.1897
-19.7782
-19.0817
-18.141
-17.007
-15.7347
-14.3781
-12.9866
-11.6025
-10.26
-8.98514
-7.7964
-6.70532
-5.71769
-4.83468
-4.05389
-3.37035
-2.77742
-2.26747
-1.83244
-1.46428
-1.15529
-0.898295
-0.68682
-0.515167
-0.37847
-0.272741
-0.194907
-0.142886
-0.115642
-0.113197
-0.137031
-0.190527
-0.278943
-0.409543
-0.592321
-0.842327
-1.18117
-1.63584
-2.23803
-3.03103
-4.08185
-5.48647
-7.37625
-9.89986
-13.2927
-17.8188
-23.459
-29.681
-35.4565
-39.5454
-41.0799
-39.7797
-36.0103
-30.7039
-24.8798
-19.593
-15.6952
-13.4142
-12.4343
-12.2639
-12.4424
-12.6341
-12.7001
-12.5402
-11.7862
-10.0001
-7.43263
-4.96233
-3.19887
-2.08773
-1.37528
-0.9112
-0.590627
-0.387583
-0.215529
-0.126849
-0.000765029
-10.303
-10.3302
-10.3502
-10.3593
-10.3565
-10.3471
-10.3458
-10.3789
-10.4829
-10.698
-11.0588
-11.5857
-12.2806
-13.1253
-14.0835
-15.1045
-16.1285
-17.0914
-17.9306
-18.5888
-19.0204
-19.1932
-19.0919
-18.7195
-18.0956
-17.2529
-16.2335
-15.084
-13.851
-12.5779
-11.3029
-10.0575
-8.86649
-7.74799
-6.71403
-5.77139
-4.92254
-4.16655
-3.49992
-2.91744
-2.41278
-1.97903
-1.60915
-1.29627
-1.0339
-0.816153
-0.637773
-0.494264
-0.381926
-0.297911
-0.240303
-0.208171
-0.201604
-0.222075
-0.272794
-0.358815
-0.487129
-0.667012
-0.911924
-1.24183
-1.68371
-2.27006
-3.04221
-4.05956
-5.40528
-7.19291
-9.54899
-12.6589
-16.7286
-21.7494
-27.2959
-32.5132
-36.3299
-37.9465
-37.0707
-33.956
-29.3669
-24.2084
-19.4695
-15.9452
-13.8421
-12.8762
-12.6036
-12.6105
-12.6024
-12.481
-12.2059
-11.4745
-9.84474
-7.45253
-5.08764
-3.35024
-2.22851
-1.49662
-1.01028
-0.66916
-0.444813
-0.257865
-0.146952
-0.0156905
-10.3287
-10.3576
-10.3829
-10.4031
-10.4193
-10.4375
-10.4707
-10.5398
-10.6725
-10.8985
-11.2435
-11.7224
-12.336
-13.0691
-13.8923
-14.7639
-15.6342
-16.4495
-17.1577
-17.7099
-18.0666
-18.2
-18.0958
-17.7549
-17.1923
-16.4343
-15.5155
-14.4752
-13.3533
-12.188
-11.0135
-9.85872
-8.74682
-7.69539
-6.71667
-5.81814
-5.00333
-4.27252
-3.62353
-3.05241
-2.55403
-2.12255
-1.75188
-1.43594
-1.16895
-0.945563
-0.760983
-0.611087
-0.492468
-0.402507
-0.339462
-0.30251
-0.291806
-0.308812
-0.356575
-0.439907
-0.565526
-0.742165
-0.981928
-1.30275
-1.73038
-2.29746
-3.04405
-4.02362
-5.30785
-6.99336
-9.18659
-12.0322
-15.6869
-20.145
-25.0682
-29.7572
-33.2999
-34.9736
-34.4747
-31.9564
-28.0341
-23.5121
-19.3145
-16.1689
-14.2534
-13.3139
-12.9516
-12.7958
-12.5926
-12.2794
-11.8782
-11.1493
-9.65938
-7.44002
-5.18872
-3.48684
-2.3601
-1.61137
-1.10495
-0.744753
-0.500341
-0.298963
-0.167037
-0.0295645
-10.3556
-10.3874
-10.4186
-10.4493
-10.4816
-10.5217
-10.5806
-10.6749
-10.8256
-11.0546
-11.3806
-11.8142
-12.3551
-12.9906
-13.6964
-14.4382
-15.1751
-15.8624
-16.4553
-16.9137
-17.2036
-17.3005
-17.1915
-16.876
-16.3652
-15.6803
-14.8497
-13.9062
-12.8843
-11.8171
-10.735
-9.66439
-8.62689
-7.6393
-6.71379
-5.85834
-5.07727
-4.37188
-3.74112
-3.18217
-2.69097
-2.2627
-1.89213
-1.57397
-1.30309
-1.07469
-0.88444
-0.728586
-0.604018
-0.508352
-0.440017
-0.398308
-0.383445
-0.396873
-0.441492
-0.521848
-0.644355
-0.817308
-1.05171
-1.36344
-1.77602
-2.3211
-3.03767
-3.9748
-5.19461
-6.77831
-8.81418
-11.4141
-14.6946
-18.6495
-23.0108
-27.2131
-30.4912
-32.1993
-32.0261
-30.0385
-26.7253
-22.8061
-19.1383
-16.3725
-14.6539
-13.7553
-13.3171
-13.0074
-12.6118
-12.1026
-11.5617
-10.8151
-9.44667
-7.39583
-5.26446
-3.60702
-2.48098
-1.71867
-1.19443
-0.816837
-0.553779
-0.338544
-0.186994
-0.0422798
-10.384
-10.4192
-10.4562
-10.496
-10.5413
-10.5979
-10.6752
-10.786
-10.9462
-11.172
-11.4766
-11.8674
-12.343
-12.8927
-13.4963
-14.1255
-14.7464
-15.3218
-15.8147
-16.1908
-16.4212
-16.4849
-16.3699
-16.0749
-15.6081
-14.9863
-14.2329
-13.3754
-12.4431
-11.4649
-10.4676
-9.47517
-8.50744
-7.58041
-6.706
-5.89244
-5.14464
-4.46475
-3.85268
-3.30659
-2.82339
-2.39918
-2.02956
-1.70997
-1.43592
-1.20314
-1.00775
-0.846372
-0.716188
-0.615055
-0.541579
-0.495174
-0.476129
-0.485862
-0.527142
-0.604247
-0.723238
-0.892
-1.12068
-1.42328
-1.82055
-2.34184
-3.0246
-3.91459
-5.06655
-6.54855
-8.43287
-10.8051
-13.7503
-17.2605
-21.1244
-24.8892
-27.9194
-29.644
-29.7456
-28.2207
-25.4572
-22.1046
-18.9507
-16.5622
-15.0499
-14.2097
-13.7117
-13.2569
-12.6697
-11.9588
-11.2614
-10.4781
-9.2113
-7.32223
-5.31467
-3.70942
-2.58982
-1.8176
-1.27801
-0.884857
-0.604749
-0.37634
-0.206714
-0.0537357
-10.412
-10.4505
-10.4928
-10.5402
-10.5956
-10.6643
-10.7538
-10.8743
-11.0377
-11.2556
-11.5375
-11.8878
-12.3048
-12.7789
-13.2934
-13.8249
-14.3452
-14.8237
-15.2293
-15.5333
-15.7111
-15.7446
-15.6231
-15.3446
-14.9151
-14.3479
-13.6623
-12.881
-12.029
-11.1314
-10.2118
-9.29163
-8.38918
-7.51941
-6.69388
-5.92088
-5.20576
-4.5513
-3.95823
-3.42557
-2.9511
-2.53174
-2.16386
-1.8436
-1.56707
-1.33051
-1.1305
-0.964017
-0.828543
-0.722176
-0.643699
-0.59265
-0.569388
-0.575301
-0.613041
-0.686629
-0.801735
-0.965802
-1.18828
-1.48158
-1.8636
-2.36036
-3.00663
-3.84526
-4.92557
-6.30533
-8.04351
-10.205
-12.8507
-15.9713
-19.401
-22.7803
-25.5847
-27.312
-27.641
-26.5145
-24.2436
-21.4206
-18.7603
-16.7431
-15.448
-14.688
-14.1493
-13.5587
-12.7788
-11.8572
-10.9859
-10.1461
-8.95976
-7.22275
-5.34016
-3.79306
-2.68546
-1.90714
-1.35497
-0.948258
-0.652852
-0.412072
-0.226062
-0.0638473
-10.4394
-10.4809
-10.5275
-10.5808
-10.6435
-10.7201
-10.8169
-10.9418
-11.1033
-11.3099
-11.5681
-11.8804
-12.2443
-12.6518
-13.0885
-13.5351
-13.9684
-14.3629
-14.6927
-14.9338
-15.0654
-15.0718
-14.9437
-14.6786
-14.2809
-13.7611
-13.1348
-12.4211
-11.6411
-10.8164
-9.96778
-9.11434
-8.27277
-7.457
-6.67806
-5.94418
-5.26097
-4.63174
-4.05785
-3.53907
-3.07394
-2.66012