/*--------------------------------*- C++ -*----------------------------------*\
  =========                 |
  \\      /  F ield         | OpenFOAM: The Open Source CFD Toolbox
   \\    /   O peration     | Website:  https://openfoam.org
    \\  /    A nd           | Version:  10
     \\/     M anipulation  |
\*---------------------------------------------------------------------------*/
FoamFile
{
    format      ascii;
    class       surfaceScalarField;
    location    "0.19";
    object      phi;
}
// * * * * * * * * * * * * * * * * * * * * * * * * * * * * * * * * * * * * * //

dimensions      [0 3 -1 0 0 0 0];

internalField   nonuniform List<scalar> 
13452
(
5.94532e-05
8.15277e-07
5.84726e-05
9.80605e-07
5.74508e-05
1.02182e-06
5.64001e-05
1.05062e-06
5.53489e-05
1.05126e-06
5.43084e-05
1.0405e-06
5.32822e-05
1.02622e-06
5.22722e-05
1.00991e-06
5.12797e-05
9.92541e-07
5.03049e-05
9.74792e-07
4.93479e-05
9.57001e-07
4.84085e-05
9.39381e-07
4.74864e-05
9.22108e-07
4.65811e-05
9.05339e-07
4.56919e-05
8.89233e-07
4.48179e-05
8.73967e-07
4.39581e-05
8.59748e-07
4.31113e-05
8.4682e-07
4.22758e-05
8.35482e-07
4.14497e-05
8.26098e-07
4.06306e-05
8.19123e-07
3.98155e-05
8.15128e-07
3.90006e-05
8.14847e-07
3.81814e-05
8.19238e-07
3.73518e-05
8.29575e-07
3.65042e-05
8.47598e-07
3.56285e-05
8.75729e-07
3.47109e-05
9.17643e-07
3.37328e-05
9.78069e-07
3.26644e-05
1.06838e-06
3.14705e-05
1.1939e-06
3.00539e-05
1.41663e-06
1.73148e-06
2.83224e-05
6.24899e-05
3.15697e-07
6.29656e-05
5.04875e-07
6.34135e-05
5.73915e-07
6.38243e-05
6.39871e-07
6.41905e-05
6.85072e-07
6.45118e-05
7.19144e-07
6.47898e-05
7.48269e-07
6.50266e-05
7.73115e-07
6.52248e-05
7.94359e-07
6.53868e-05
8.12756e-07
6.5515e-05
8.28792e-07
6.56116e-05
8.42841e-07
6.56784e-05
8.55254e-07
6.57174e-05
8.66365e-07
6.57301e-05
8.76511e-07
6.5718e-05
8.8605e-07
6.56824e-05
8.95374e-07
6.56243e-05
9.04931e-07
6.55445e-05
9.15239e-07
6.54437e-05
9.26917e-07
6.53221e-05
9.40713e-07
6.51797e-05
9.57554e-07
6.50159e-05
9.78611e-07
6.48298e-05
1.00539e-06
6.46195e-05
1.03989e-06
6.43823e-05
1.08479e-06
6.41141e-05
1.14391e-06
6.38092e-05
1.22248e-06
6.34584e-05
1.32895e-06
6.3052e-05
1.47475e-06
6.25647e-05
1.68124e-06
6.20021e-05
1.97922e-06
2.4035e-06
6.133e-05
6.38347e-05
2.42371e-07
6.3911e-05
4.2858e-07
6.39811e-05
5.03882e-07
6.4054e-05
5.66887e-07
6.41291e-05
6.09991e-07
6.42083e-05
6.39943e-07
6.42926e-05
6.64009e-07
6.43819e-05
6.83832e-07
6.44759e-05
7.00372e-07
6.4574e-05
7.14587e-07
6.46757e-05
7.27097e-07
6.47802e-05
7.38339e-07
6.48868e-05
7.48688e-07
6.49947e-05
7.58483e-07
6.51031e-05
7.68042e-07
6.52115e-05
7.77693e-07
6.53191e-05
7.87789e-07
6.54253e-05
7.98726e-07
6.55296e-05
8.10968e-07
6.56314e-05
8.2507e-07
6.57304e-05
8.41707e-07
6.58262e-05
8.61723e-07
6.59187e-05
8.86183e-07
6.60076e-05
9.16461e-07
6.60931e-05
9.54369e-07
6.61756e-05
1.00231e-06
6.62559e-05
1.06361e-06
6.63356e-05
1.14276e-06
6.64182e-05
1.24638e-06
6.65099e-05
1.38309e-06
6.66252e-05
1.56586e-06
6.67943e-05
1.81016e-06
2.1159e-06
6.70819e-05
6.56408e-05
1.84658e-07
6.56935e-05
3.75839e-07
6.57308e-05
4.66575e-07
6.57612e-05
5.36565e-07
6.57853e-05
5.85846e-07
6.58051e-05
6.20101e-07
6.58221e-05
6.47024e-07
6.5837e-05
6.68964e-07
6.58503e-05
6.87049e-07
6.58625e-05
7.02366e-07
6.5874e-05
7.15665e-07
6.58848e-05
7.27472e-07
6.58953e-05
7.38232e-07
6.59054e-05
7.48344e-07
6.59153e-05
7.58181e-07
6.59249e-05
7.68116e-07
6.59341e-05
7.7854e-07
6.5943e-05
7.89881e-07
6.59513e-05
8.02625e-07
6.5959e-05
8.17335e-07
6.59661e-05
8.34683e-07
6.59723e-05
8.55483e-07
6.59778e-05
8.80736e-07
6.59825e-05
9.11696e-07
6.59869e-05
9.49954e-07
6.59917e-05
9.97546e-07
6.59982e-05
1.05711e-06
6.60089e-05
1.13205e-06
6.60287e-05
1.2266e-06
6.60655e-05
1.34626e-06
6.61364e-05
1.495e-06
6.62659e-05
1.68067e-06
1.87942e-06
6.65023e-05
6.74907e-05
1.50759e-07
6.75323e-05
3.34222e-07
6.75676e-05
4.31264e-07
6.76004e-05
5.03739e-07
6.76292e-05
5.57079e-07
6.76538e-05
5.95542e-07
6.76749e-05
6.2593e-07
6.76929e-05
6.5091e-07
6.77082e-05
6.71732e-07
6.7721e-05
6.8955e-07
6.77315e-05
7.052e-07
6.77397e-05
7.19274e-07
6.77457e-05
7.32263e-07
6.77494e-05
7.44606e-07
6.77509e-05
7.56707e-07
6.775e-05
7.68967e-07
6.77468e-05
7.81802e-07
6.7741e-05
7.95656e-07
6.77326e-05
8.11031e-07
6.77214e-05
8.28496e-07
6.77074e-05
8.48717e-07
6.76904e-05
8.72482e-07
6.76704e-05
9.00734e-07
6.76475e-05
9.34613e-07
6.76219e-05
9.75507e-07
6.75944e-05
1.0251e-06
6.75661e-05
1.08539e-06
6.75394e-05
1.15875e-06
6.75184e-05
1.24755e-06
6.75103e-05
1.35436e-06
6.75269e-05
1.47844e-06
6.75877e-05
1.61986e-06
1.75417e-06
6.7713e-05
6.94119e-05
1.22903e-07
6.94512e-05
2.94948e-07
6.94853e-05
3.97084e-07
6.9516e-05
4.73044e-07
6.95427e-05
5.30385e-07
6.95656e-05
5.72685e-07
6.95855e-05
6.06041e-07
6.96029e-05
6.33494e-07
6.96181e-05
6.56511e-07
6.96313e-05
6.76325e-07
6.96427e-05
6.93858e-07
6.96522e-05
7.0977e-07
6.96599e-05
7.24596e-07
6.96656e-05
7.38813e-07
6.96695e-05
7.52854e-07
6.96713e-05
7.67144e-07
6.9671e-05
7.82117e-07
6.96684e-05
7.98224e-07
6.96635e-05
8.15971e-07
6.96561e-05
8.35915e-07
6.96461e-05
8.587e-07
6.96335e-05
8.85064e-07
6.96184e-05
9.15863e-07
6.96009e-05
9.52089e-07
6.95815e-05
9.94882e-07
6.95611e-05
1.04553e-06
6.95411e-05
1.10541e-06
6.95239e-05
1.17589e-06
6.95137e-05
1.25784e-06
6.95164e-05
1.35157e-06
6.9541e-05
1.45387e-06
6.96004e-05
1.56044e-06
1.65121e-06
6.97034e-05
7.13852e-05
1.04082e-07
7.14156e-05
2.64476e-07
7.14445e-05
3.68234e-07
7.14721e-05
4.45404e-07
7.14978e-05
5.04716e-07
7.15209e-05
5.49606e-07
7.15416e-05
5.85332e-07
7.15601e-05
6.14971e-07
7.15765e-05
6.40066e-07
7.1591e-05
6.61845e-07
7.16036e-05
6.81263e-07
7.16144e-05
6.99018e-07
7.16233e-05
7.15677e-07
7.16304e-05
7.31738e-07
7.16356e-05
7.47658e-07
7.16388e-05
7.63873e-07
7.16401e-05
7.80823e-07
7.16394e-05
7.98969e-07
7.16365e-05
8.18821e-07
7.16315e-05
8.40907e-07
7.16244e-05
8.65828e-07
7.16152e-05
8.94246e-07
7.16042e-05
9.26903e-07
7.15917e-05
9.64615e-07
7.15783e-05
1.00825e-06
7.15651e-05
1.0587e-06
7.15538e-05
1.11673e-06
7.15468e-05
1.18288e-06
7.15478e-05
1.2569e-06
7.15617e-05
1.3376e-06
7.15949e-05
1.42072e-06
7.1655e-05
1.50033e-06
1.56124e-06
7.17449e-05
7.34196e-05
8.97125e-08
7.34465e-05
2.37621e-07
7.34742e-05
3.40567e-07
7.35012e-05
4.18412e-07
7.35263e-05
4.79525e-07
7.3549e-05
5.26998e-07
7.35691e-05
5.65165e-07
7.35871e-05
5.96993e-07
7.36031e-05
6.24111e-07
7.36171e-05
6.47775e-07
7.36294e-05
6.68976e-07
7.364e-05
6.88458e-07
7.36488e-05
7.06822e-07
7.3656e-05
7.24589e-07
7.36614e-05
7.42234e-07
7.36651e-05
7.60206e-07
7.36669e-05
7.78957e-07
7.3667e-05
7.98948e-07
7.36652e-05
8.20624e-07
7.36615e-05
8.44514e-07
7.36562e-05
8.71158e-07
7.36493e-05
9.01139e-07
7.36412e-05
9.35073e-07
7.36322e-05
9.73591e-07
7.36231e-05
1.0173e-06
7.36151e-05
1.06671e-06
7.36097e-05
1.12211e-06
7.36092e-05
1.1834e-06
7.36165e-05
1.24961e-06
7.36354e-05
1.31876e-06
7.36696e-05
1.38648e-06
7.37231e-05
1.44682e-06
1.48897e-06
7.37954e-05
7.55132e-05
7.89624e-08
7.55353e-05
2.15555e-07
7.55593e-05
3.16574e-07
7.55833e-05
3.94381e-07
7.56065e-05
4.56355e-07
7.5628e-05
5.05462e-07
7.56478e-05
5.45376e-07
7.56659e-05
5.78905e-07
7.56823e-05
6.07711e-07
7.5697e-05
6.33035e-07
7.57101e-05
6.55866e-07
7.57216e-05
6.76964e-07
7.57315e-05
6.96942e-07
7.57398e-05
7.16331e-07
7.57464e-05
7.35611e-07
7.57514e-05
7.5523e-07
7.57547e-05
7.75632e-07
7.57564e-05
7.9727e-07
7.57564e-05
8.20563e-07
7.5755e-05
8.45993e-07
7.57521e-05
8.74039e-07
7.5748e-05
9.05195e-07
7.57431e-05
9.39946e-07
7.5738e-05
9.78749e-07
7.57333e-05
1.02198e-06
7.57302e-05
1.06984e-06
7.573e-05
1.12226e-06
7.57347e-05
1.17871e-06
7.57465e-05
1.23787e-06
7.57677e-05
1.29752e-06
7.58005e-05
1.35372e-06
7.58459e-05
1.40139e-06
1.43325e-06
7.59016e-05
7.76679e-05
7.05998e-08
7.76868e-05
1.96681e-07
7.77089e-05
2.94503e-07
7.77318e-05
3.71448e-07
7.77545e-05
4.33717e-07
7.77758e-05
4.84082e-07
7.77956e-05
5.25585e-07
7.78138e-05
5.60757e-07
7.78303e-05
5.9121e-07
7.78452e-05
6.1815e-07
7.78585e-05
6.42555e-07
7.78702e-05
6.65193e-07
7.78805e-05
6.86687e-07
7.78892e-05
7.07579e-07
7.78965e-05
7.28353e-07
7.79023e-05
7.49456e-07
7.79066e-05
7.71314e-07
7.79095e-05
7.94342e-07
7.79111e-05
8.18976e-07
7.79115e-05
8.45634e-07
7.79108e-05
8.74725e-07
7.79093e-05
9.06648e-07
7.79075e-05
9.4177e-07
7.79059e-05
9.80393e-07
7.79051e-05
1.0227e-06
7.79063e-05
1.06868e-06
7.79106e-05
1.11801e-06
7.79193e-05
1.16994e-06
7.79341e-05
1.22309e-06
7.79563e-05
1.27531e-06
7.79866e-05
1.32341e-06
7.80246e-05
1.36346e-06
1.39088e-06
7.80669e-05
7.9885e-05
6.39451e-08
7.9901e-05
1.8065e-07
7.99207e-05
2.74814e-07
7.99416e-05
3.50528e-07
7.99626e-05
4.12704e-07
7.99829e-05
4.63843e-07
8.0002e-05
5.06493e-07
8.00198e-05
5.42921e-07
8.00363e-05
5.74689e-07
8.00515e-05
6.02971e-07
8.00653e-05
6.28721e-07
8.00778e-05
6.527e-07
8.0089e-05
6.75534e-07
8.00988e-05
6.97759e-07
8.01073e-05
7.19856e-07
8.01145e-05
7.42266e-07
8.01204e-05
7.65404e-07
8.01251e-05
7.89647e-07
8.01287e-05
8.15373e-07
8.01314e-05
8.42957e-07
8.01333e-05
8.72754e-07
8.01349e-05
9.05082e-07
8.01365e-05
9.40203e-07
8.01386e-05
9.78291e-07
8.01419e-05
1.01939e-06
8.01472e-05
1.06333e-06
8.01556e-05
1.10967e-06
8.01679e-05
1.1576e-06
8.01852e-05
1.20582e-06
8.0208e-05
1.25251e-06
8.02361e-05
1.29526e-06
8.02683e-05
1.33128e-06
1.35798e-06
8.03012e-05
8.21659e-05
5.8508e-08
8.21797e-05
1.66828e-07
8.21976e-05
2.56946e-07
8.22172e-05
3.30908e-07
8.22374e-05
3.92503e-07
8.22573e-05
4.43961e-07
8.22763e-05
4.87431e-07
8.22944e-05
5.24905e-07
8.23112e-05
5.57842e-07
8.23268e-05
5.87354e-07
8.23412e-05
6.14354e-07
8.23543e-05
6.39584e-07
8.23662e-05
6.63655e-07
8.23768e-05
6.87097e-07
8.23863e-05
7.10376e-07
8.23947e-05
7.33914e-07
8.2402e-05
7.58098e-07
8.24083e-05
7.83289e-07
8.24139e-05
8.09834e-07
8.24188e-05
8.38064e-07
8.24233e-05
8.68269e-07
8.24276e-05
9.00688e-07
8.24324e-05
9.35495e-07
8.24379e-05
9.72768e-07
8.24448e-05
1.01245e-06
8.24538e-05
1.0543e-06
8.24657e-05
1.09784e-06
8.2481e-05
1.1423e-06
8.25002e-05
1.18657e-06
8.25235e-05
1.22925e-06
8.25501e-05
1.26863e-06
8.25784e-05
1.30297e-06
1.33098e-06
8.26054e-05
8.45123e-05
5.39528e-08
8.45244e-05
1.548e-07
8.45405e-05
2.40772e-07
8.45587e-05
3.12711e-07
8.45778e-05
3.73452e-07
8.45968e-05
4.24918e-07
8.46153e-05
4.68911e-07
8.46331e-05
5.07161e-07
8.46499e-05
5.41012e-07
8.46658e-05
5.71518e-07
8.46806e-05
5.99545e-07
8.46943e-05
6.25813e-07
8.47071e-05
6.50918e-07
8.47188e-05
6.75372e-07
8.47295e-05
6.99625e-07
8.47394e-05
7.24079e-07
8.47484e-05
7.49096e-07
8.47567e-05
7.75009e-07
8.47644e-05
8.02126e-07
8.47717e-05
8.30723e-07
8.47789e-05
8.61035e-07
8.47864e-05
8.93243e-07
8.47944e-05
9.27456e-07
8.48035e-05
9.63685e-07
8.48141e-05
1.00182e-06
8.48269e-05
1.04159e-06
8.48422e-05
1.08253e-06
8.48604e-05
1.12401e-06
8.48819e-05
1.16514e-06
8.49062e-05
1.20491e-06
8.49326e-05
1.24223e-06
8.49594e-05
1.27615e-06
1.30623e-06
8.49842e-05
8.69261e-05
5.00487e-08
8.69367e-05
1.44203e-07
8.69514e-05
2.26017e-07
8.69685e-05
2.95667e-07
8.69867e-05
3.55233e-07
8.70053e-05
4.06347e-07
8.70236e-05
4.50534e-07
8.70415e-05
4.89288e-07
8.70587e-05
5.23834e-07
8.70751e-05
5.55147e-07
8.70906e-05
5.84042e-07
8.71052e-05
6.11199e-07
8.71189e-05
6.37188e-07
8.71318e-05
6.62496e-07
8.71438e-05
6.87552e-07
8.71552e-05
7.12731e-07
8.71659e-05
7.38371e-07
8.71762e-05
7.64774e-07
8.71861e-05
7.92211e-07
8.71959e-05
8.20916e-07
8.72058e-05
8.5108e-07
8.72162e-05
8.82832e-07
8.72275e-05
9.1623e-07
8.72399e-05
9.51245e-07
8.7254e-05
9.8774e-07
8.72701e-05
1.02546e-06
8.72886e-05
1.06401e-06
8.73098e-05
1.10287e-06
8.73335e-05
1.14141e-06
8.73594e-05
1.17897e-06
8.73867e-05
1.21494e-06
8.7414e-05
1.2489e-06
1.28095e-06
8.74393e-05
8.9409e-05
4.66318e-08
8.94184e-05
1.34747e-07
8.94319e-05
2.12481e-07
8.94479e-05
2.79678e-07
8.94653e-05
3.37851e-07
8.94833e-05
3.88358e-07
8.95014e-05
4.32486e-07
8.95191e-05
4.71513e-07
8.95364e-05
5.06534e-07
8.95531e-05
5.38446e-07
8.95692e-05
5.68004e-07
8.95845e-05
5.95847e-07
8.95992e-05
6.22515e-07
8.96132e-05
6.48469e-07
8.96267e-05
6.74112e-07
8.96396e-05
6.99794e-07
8.96521e-05
7.25825e-07
8.96644e-05
7.52476e-07
8.96767e-05
7.79985e-07
8.9689e-05
8.08547e-07
8.97018e-05
8.38308e-07
8.97153e-05
8.69362e-07
8.97298e-05
9.01732e-07
8.97456e-05
9.3537e-07
8.97632e-05
9.70141e-07
8.97829e-05
1.00582e-06
8.98048e-05
1.04209e-06
8.98291e-05
1.07858e-06
8.98557e-05
1.11485e-06
8.98841e-05
1.15053e-06
8.99137e-05
1.18534e-06
8.99433e-05
1.21924e-06
1.25255e-06
8.99718e-05
9.19629e-05
4.35843e-08
9.19715e-05
1.26201e-07
9.1984e-05
1.99961e-07
9.19991e-05
2.64579e-07
9.20158e-05
3.21149e-07
9.20333e-05
3.70787e-07
9.20513e-05
4.14579e-07
9.20691e-05
4.53619e-07
9.20868e-05
4.88878e-07
9.21041e-05
5.2117e-07
9.21209e-05
5.51189e-07
9.21372e-05
5.79527e-07
9.2153e-05
6.06687e-07
9.21684e-05
6.33099e-07
9.21834e-05
6.59136e-07
9.21981e-05
6.85121e-07
9.22126e-05
7.11334e-07
9.2227e-05
7.38016e-07
9.22416e-05
7.65371e-07
9.22566e-05
7.9356e-07
9.22722e-05
8.22698e-07
9.22887e-05
8.52848e-07
9.23065e-05
8.84016e-07
9.23257e-05
9.16145e-07
9.23467e-05
9.49115e-07
9.23698e-05
9.82742e-07
9.23951e-05
1.01679e-06
9.24226e-05
1.05101e-06
9.24524e-05
1.08513e-06
9.24839e-05
1.11898e-06
9.25168e-05
1.15249e-06
9.25502e-05
1.18584e-06
1.21943e-06
9.25833e-05
9.45899e-05
4.08194e-08
9.45977e-05
1.18375e-07
9.46094e-05
1.88281e-07
9.46238e-05
2.50236e-07
9.46399e-05
3.05036e-07
9.46571e-05
3.53594e-07
9.46748e-05
3.96823e-07
9.46928e-05
4.35655e-07
9.47107e-05
4.70939e-07
9.47285e-05
5.03407e-07
9.4746e-05
5.33687e-07
9.47632e-05
5.62321e-07
9.47801e-05
5.89771e-07
9.47968e-05
6.16436e-07
9.48133e-05
6.42657e-07
9.48297e-05
6.68729e-07
9.48461e-05
6.94901e-07
9.48627e-05
7.21387e-07
9.48797e-05
7.48358e-07
9.48973e-05
7.75946e-07
9.49158e-05
8.04241e-07
9.49354e-05
8.33285e-07
9.49563e-05
8.63072e-07
9.49789e-05
8.93548e-07
9.50034e-05
9.24612e-07
9.503e-05
9.56125e-07
9.50589e-05
9.87923e-07
9.50901e-05
1.01984e-06
9.51234e-05
1.05175e-06
9.51588e-05
1.08359e-06
9.51959e-05
1.11543e-06
9.52342e-05
1.14751e-06
1.18023e-06
9.52734e-05
9.72921e-05
3.82713e-08
9.72993e-05
1.11116e-07
9.73103e-05
1.77283e-07
9.7324e-05
2.36512e-07
9.73397e-05
2.89395e-07
9.73566e-05
3.36672e-07
9.73743e-05
3.79112e-07
9.73925e-05
4.17504e-07
9.74108e-05
4.52588e-07
9.74292e-05
4.85012e-07
9.74476e-05
5.15341e-07
9.74658e-05
5.44064e-07
9.7484e-05
5.71605e-07
9.75021e-05
5.98322e-07
9.75202e-05
6.24527e-07
9.75385e-05
6.50481e-07
9.7557e-05
6.76407e-07
9.75759e-05
7.02486e-07
9.75954e-05
7.28865e-07
9.76157e-05
7.55649e-07
9.7637e-05
7.82906e-07
9.76596e-05
8.10664e-07
9.76838e-05
8.38912e-07
9.77097e-05
8.676e-07
9.77377e-05
8.96649e-07
9.77679e-05
9.25958e-07
9.78004e-05
9.55416e-07
9.78353e-05
9.84929e-07
9.78726e-05
1.01444e-06
9.79122e-05
1.04397e-06
9.7954e-05
1.07363e-06
9.79978e-05
1.10368e-06
1.13445e-06
9.80436e-05
0.000100071
3.58888e-08
0.000100078
1.04296e-07
0.000100089
1.66826e-07
0.000100102
2.23284e-07
0.000100117
2.74121e-07
0.000100134
3.19943e-07
0.000100152
3.61391e-07
0.00010017
3.99135e-07
0.000100189
4.33811e-07
0.000100208
4.65988e-07
0.000100227
4.96166e-07
0.000100246
5.24783e-07
0.000100266
5.52215e-07
0.000100285
5.78786e-07
0.000100305
6.04772e-07
0.000100325
6.30405e-07
0.000100346
6.55876e-07
0.000100367
6.81343e-07
0.000100389
7.06923e-07
0.000100412
7.32703e-07
0.000100436
7.58733e-07
0.000100461
7.85028e-07
0.000100489
8.11574e-07
0.000100518
8.38329e-07
0.000100549
8.6523e-07
0.000100583
8.92204e-07
0.000100619
9.19179e-07
0.000100658
9.46103e-07
0.0001007
9.72961e-07
0.000100744
9.99802e-07
0.000100791
1.02674e-06
0.000100841
1.054e-06
1.08182e-06
0.000100893
0.00010293
3.3631e-08
0.000102937
9.78101e-08
0.000102947
1.56783e-07
0.00010296
2.1043e-07
0.000102975
2.59107e-07
0.000102991
3.0331e-07
0.000103009
3.43575e-07
0.000103028
3.80467e-07
0.000103047
4.14527e-07
0.000103067
4.46249e-07
0.000103087
4.76071e-07
0.000103107
5.04378e-07
0.000103128
5.31502e-07
0.000103149
5.57728e-07
0.000103171
5.83298e-07
0.000103193
6.08413e-07
0.000103215
6.33237e-07
0.000103239
6.57899e-07
0.000103263
6.82496e-07
0.000103289
7.07092e-07
0.000103316
7.31724e-07
0.000103344
7.56398e-07
0.000103375
7.81096e-07
0.000103407
8.05781e-07
0.000103442
8.30401e-07
0.00010348
8.54902e-07
0.000103519
8.79232e-07
0.000103562
9.03362e-07
0.000103608
9.27293e-07
0.000103657
9.51073e-07
0.000103709
9.74792e-07
0.000103764
9.9861e-07
1.02267e-06
0.000103823
0.000105871
3.14642e-08
0.000105877
9.15686e-08
0.000105887
1.47043e-07
0.000105899
1.97838e-07
0.000105914
2.44248e-07
0.000105931
2.86682e-07
0.000105949
3.25587e-07
0.000105968
3.61434e-07
0.000105988
3.94683e-07
0.000106008
4.25754e-07
0.000106029
4.55025e-07
0.000106051
4.82829e-07
0.000106073
5.09454e-07
0.000106096
5.35146e-07
0.000106119
5.60113e-07
0.000106143
5.84524e-07
0.000106167
6.08517e-07
0.000106193
6.32195e-07
0.00010622
6.55633e-07
0.000106248
6.7888e-07
0.000106278
7.01956e-07
0.000106309
7.2486e-07
0.000106343
7.4757e-07
0.000106379
7.7005e-07
0.000106417
7.92255e-07
0.000106458
8.14137e-07
0.000106501
8.35655e-07
0.000106548
8.56787e-07
0.000106598
8.7753e-07
0.000106651
8.97911e-07
0.000106707
9.17983e-07
0.000106768
9.37836e-07
9.57525e-07
0.000106833
0.000108896
2.936e-08
0.000108902
8.54943e-08
0.000108911
1.37504e-07
0.000108924
1.85403e-07
0.000108938
2.29445e-07
0.000108955
2.69969e-07
0.000108973
3.07347e-07
0.000108993
3.41969e-07
0.000109013
3.74218e-07
0.000109035
4.04448e-07
0.000109057
4.32979e-07
0.000109079
4.60093e-07
0.000109103
4.86034e-07
0.000109127
5.1101e-07
0.000109152
5.35194e-07
0.000109178
5.58727e-07
0.000109204
5.81718e-07
0.000109232
6.04249e-07
0.000109262
6.26374e-07
0.000109292
6.48124e-07
0.000109325
6.69507e-07
0.000109359
6.90514e-07
0.000109396
7.11116e-07
0.000109434
7.31275e-07
0.000109476
7.50947e-07
0.00010952
7.70086e-07
0.000109567
7.88653e-07
0.000109617
8.06618e-07
0.00010967
8.23964e-07
0.000109728
8.4069e-07
0.000109789
8.56808e-07
0.000109854
8.72339e-07
8.87278e-07
0.000109925
0.000112007
2.72937e-08
0.000112013
7.95189e-08
0.000112022
1.28073e-07
0.000112034
1.73023e-07
0.000112049
2.14596e-07
0.000112066
2.53075e-07
0.000112085
2.88766e-07
0.000112105
3.21989e-07
0.000112126
3.53058e-07
0.000112148
3.82265e-07
0.000112171
4.09874e-07
0.000112195
4.36119e-07
0.00011222
4.61201e-07
0.000112246
4.8529e-07
0.000112272
5.08527e-07
0.0001123
5.31023e-07
0.000112329
5.52861e-07
0.000112359
5.74101e-07
0.000112391
5.94777e-07
0.000112424
6.14905e-07
0.000112459
6.34481e-07
0.000112496
6.53484e-07
0.000112535
6.71881e-07
0.000112577
6.89627e-07
0.000112621
7.06677e-07
0.000112668
7.22981e-07
0.000112718
7.38495e-07
0.000112772
7.53174e-07
0.000112829
7.66986e-07
0.000112889
7.799e-07
0.000112954
7.91889e-07
0.000113024
8.02923e-07
8.1296e-07
0.000113098
0.000115207
2.52436e-08
0.000115212
7.3582e-08
0.000115222
1.18665e-07
0.000115234
1.60606e-07
0.000115249
1.99613e-07
0.000115266
2.35921e-07
0.000115285
2.69779e-07
0.000115306
3.01445e-07
0.000115328
3.3117e-07
0.000115351
3.59188e-07
0.000115375
3.85709e-07
0.0001154
4.1092e-07
0.000115426
4.34983e-07
0.000115454
4.58031e-07
0.000115482
4.80171e-07
0.000115512
5.01488e-07
0.000115542
5.22039e-07
0.000115575
5.41863e-07
0.000115609
5.60978e-07
0.000115644
5.79383e-07
0.000115681
5.9706e-07
0.000115721
6.1398e-07
0.000115763
6.30103e-07
0.000115807
6.4538e-07
0.000115854
6.59758e-07
0.000115904
6.73181e-07
0.000115957
6.85594e-07
0.000116013
6.96941e-07
0.000116073
7.07169e-07
0.000116136
7.16223e-07
0.000116204
7.24045e-07
0.000116277
7.30562e-07
7.35712e-07
0.000116354
0.000118498
2.31887e-08
0.000118504
6.76246e-08
0.000118513
1.09195e-07
0.000118526
1.48051e-07
0.000118541
1.84384e-07
0.000118559
2.18391e-07
0.000118578
2.5027e-07
0.000118599
2.80222e-07
0.000118622
3.08442e-07
0.000118646
3.35108e-07
0.000118672
3.60383e-07
0.000118698
3.84407e-07
0.000118726
4.07303e-07
0.000118755
4.29169e-07
0.000118785
4.50083e-07
0.000118816
4.70099e-07
0.000118849
4.89255e-07
0.000118883
5.07567e-07
0.000118919
5.25036e-07
0.000118957
5.41647e-07
0.000118997
5.57369e-07
0.000119038
5.72165e-07
0.000119082
5.85988e-07
0.000119129
5.98781e-07
0.000119178
6.10485e-07
0.00011923
6.21036e-07
0.000119286
6.30369e-07
0.000119344
6.38416e-07
0.000119406
6.45109e-07
0.000119472
6.50376e-07
0.000119542
6.54138e-07
0.000119616
6.563e-07
6.56801e-07
0.000119695
0.000121883
2.11113e-08
0.000121889
6.15971e-08
0.000121899
9.95938e-08
0.000121912
1.35286e-07
0.000121927
1.68848e-07
0.000121945
2.00442e-07
0.000121965
2.30219e-07
0.000121987
2.58326e-07
0.000122011
2.84904e-07
0.000122036
3.10081e-07
0.000122062
3.33972e-07
0.00012209
3.56676e-07
0.000122119
3.78277e-07
0.000122149
3.9884e-07
0.000122181
4.18415e-07
0.000122214
4.37031e-07
0.000122249
4.54702e-07
0.000122285
4.71426e-07
0.000122323
4.87187e-07
0.000122362
5.01959e-07
0.000122404
5.15702e-07
0.000122448
5.28369e-07
0.000122494
5.39903e-07
0.000122542
5.50244e-07
0.000122593
5.59324e-07
0.000122647
5.67072e-07
0.000122704
5.73415e-07
0.000122765
5.78276e-07
0.000122828
5.81577e-07
0.000122895
5.83232e-07
0.000122966
5.83151e-07
0.000123041
5.81222e-07
5.7739e-07
0.000123121
0.000125366
1.89871e-08
0.000125372
5.54308e-08
0.000125382
8.97545e-08
0.000125395
1.22171e-07
0.000125411
1.52841e-07
0.000125429
1.8189e-07
0.00012545
2.09428e-07
0.000125473
2.35552e-07
0.000125497
2.60353e-07
0.000125524
2.8391e-07
0.000125551
3.06293e-07
0.00012558
3.2756e-07
0.000125611
3.4776e-07
0.000125643
3.66925e-07
0.000125676
3.85078e-07
0.000125711
4.02224e-07
0.000125747
4.18355e-07
0.000125785
4.33453e-07
0.000125825
4.47488e-07
0.000125866
4.60421e-07
0.00012591
4.72204e-07
0.000125956
4.82781e-07
0.000126003
4.9209e-07
0.000126054
5.00062e-07
0.000126106
5.06626e-07
0.000126162
5.11706e-07
0.00012622
5.15224e-07
0.000126281
5.17098e-07
0.000126345
5.17246e-07
0.000126413
5.15579e-07
0.000126484
5.12008e-07
0.000126559
5.06422e-07
4.98789e-07
0.000126638
0.000128947
1.68073e-08
0.000128954
4.90977e-08
0.000128964
7.96507e-08
0.000128977
1.08702e-07
0.000128994
1.3639e-07
0.000129013
1.62802e-07
0.000129034
1.88e-07
0.000129058
2.12036e-07
0.000129083
2.3495e-07
0.00012911
2.56778e-07
0.000129139
2.77546e-07
0.000129169
2.97276e-07
0.000129201
3.15981e-07
0.000129234
3.33666e-07
0.000129269
3.50325e-07
0.000129305
3.65944e-07
0.000129343
3.80497e-07
0.000129383
3.93952e-07
0.000129424
4.06266e-07
0.000129467
4.17389e-07
0.000129512
4.27264e-07
0.000129559
4.3583e-07
0.000129608
4.43018e-07
0.000129659
4.48757e-07
0.000129713
4.52971e-07
0.000129769
4.55582e-07
0.000129828
4.5651e-07
0.000129889
4.55673e-07
0.000129953
4.52986e-07
0.000130021
4.48361e-07
0.000130091
4.41713e-07
0.000130164
4.32929e-07
4.21997e-07
0.000130241
0.000132631
1.45163e-08
0.000132638
4.24563e-08
0.000132649
6.90565e-08
0.000132663
9.45794e-08
0.00013268
1.19139e-07
0.0001327
1.42784e-07
0.000132722
1.6553e-07
0.000132747
1.87375e-07
0.000132774
2.08314e-07
0.000132802
2.28333e-07
0.000132832
2.47416e-07
0.000132864
2.65547e-07
0.000132897
2.82707e-07
0.000132932
2.98873e-07
0.000132968
3.14014e-07
0.000133006
3.28099e-07
0.000133046
3.41087e-07
0.000133087
3.52929e-07
0.000133129
3.63573e-07
0.000133174
3.7296e-07
0.00013322
3.81028e-07
0.000133268
3.87708e-07
0.000133318
3.92931e-07
0.00013337
3.96622e-07
0.000133425
3.98706e-07
0.000133481
3.99105e-07
0.00013354
3.97741e-07
0.000133601
3.94535e-07
0.000133665
3.89408e-07
0.000133731
3.82283e-07
0.000133799
3.73086e-07
0.000133871
3.61726e-07
3.48217e-07
0.000133944
0.000136421
1.21609e-08
0.000136428
3.5588e-08
0.000136438
5.81206e-08
0.000136453
8.00297e-08
0.000136471
1.01384e-07
0.000136491
1.22183e-07
0.000136514
1.42385e-07
0.00013654
1.61944e-07
0.000136567
1.80809e-07
0.000136597
1.98925e-07
0.000136628
2.16237e-07
0.000136661
2.32695e-07
0.000136695
2.48252e-07
0.000136731
2.62856e-07
0.000136769
2.7646e-07
0.000136808
2.89011e-07
0.000136849
3.00455e-07
0.000136891
3.10732e-07
0.000136935
3.1978e-07
0.00013698
3.27536e-07
0.000137027
3.3393e-07
0.000137076
3.38894e-07
0.000137127
3.42355e-07
0.000137179
3.4424e-07
0.000137233
3.44473e-07
0.000137289
3.4298e-07
0.000137347
3.39686e-07
0.000137407
3.34518e-07
0.000137469
3.27402e-07
0.000137533
3.18269e-07
0.000137599
3.07055e-07
0.000137667
2.93674e-07
2.78161e-07
0.000137737
0.000140318
9.51305e-09
0.000140326
2.80241e-08
0.000140338
4.61743e-08
0.000140354
6.42556e-08
0.000140373
8.22677e-08
0.000140395
1.00148e-07
0.000140419
1.17774e-07
0.000140446
1.35034e-07
0.000140475
1.51825e-07
0.000140506
1.68041e-07
0.000140539
1.83589e-07
0.000140573
1.9839e-07
0.000140609
2.12365e-07
0.000140646
2.25438e-07
0.000140685
2.37541e-07
0.000140726
2.4861e-07
0.000140768
2.58579e-07
0.000140811
2.6738e-07
0.000140856
2.74947e-07
0.000140902
2.81211e-07
0.00014095
2.86101e-07
0.000140999
2.89548e-07
0.00014105
2.91479e-07
0.000141103
2.91825e-07
0.000141157
2.90513e-07
0.000141212
2.87475e-07
0.000141269
2.82643e-07
0.000141328
2.75953e-07
0.000141388
2.67345e-07
0.000141449
2.56765e-07
0.000141512
2.44168e-07
0.000141576
2.29494e-07
2.12802e-07
0.000141642
0.000144327
6.94881e-09
0.000144335
2.03476e-08
0.000144347
3.39878e-08
0.000144363
4.81262e-08
0.000144383
6.26772e-08
0.000144405
7.75057e-08
0.000144431
9.2398e-08
0.000144459
1.07227e-07
0.000144489
1.21847e-07
0.00014452
1.3609e-07
0.000144554
1.49816e-07
0.00014459
1.6292e-07
0.000144627
1.75296e-07
0.000144665
1.86844e-07
0.000144705
1.97482e-07
0.000144747
2.07133e-07
0.00014479
2.15719e-07
0.000144834
2.23167e-07
0.00014488
2.29405e-07
0.000144926
2.34362e-07
0.000144975
2.37968e-07
0.000145024
2.40154e-07
0.000145075
2.40852e-07
0.000145126
2.39993e-07
0.000145179
2.37512e-07
0.000145234
2.33346e-07
0.000145289
2.27432e-07
0.000145345
2.19713e-07
0.000145402
2.1014e-07
0.00014546
1.98663e-07
0.000145519
1.85252e-07
0.000145579
1.69851e-07
1.52531e-07
0.000145639
0.000148452
3.39398e-09
0.000148461
1.08941e-08
0.000148475
1.96037e-08
0.000148494
2.96933e-08
0.000148516
4.08502e-08
0.00014854
5.28413e-08
0.000148567
6.51984e-08
0.000148597
7.77471e-08
0.000148628
9.03038e-08
0.000148662
1.02664e-07
0.000148697
1.14655e-07
0.000148734
1.26164e-07
0.000148772
1.37022e-07
0.000148812
1.4711e-07
0.000148853
1.5635e-07
0.000148895
1.64659e-07
0.000148939
1.71957e-07
0.000148984
1.78168e-07
0.00014903
1.83221e-07
0.000149078
1.87045e-07
0.000149126
1.89572e-07
0.000149176
1.90735e-07
0.000149226
1.90471e-07
0.000149277
1.88716e-07
0.000149329
1.85411e-07
0.000149382
1.80501e-07
0.000149436
1.73934e-07
0.00014949
1.65666e-07
0.000149544
1.55662e-07
0.000149599
1.43892e-07
0.000149654
1.3035e-07
0.000149709
1.14997e-07
9.79295e-08
0.000149763
0.000152692
6.19425e-10
0.000152701
1.81848e-09
0.000152715
5.31509e-09
0.000152734
1.10019e-08
0.000152756
1.841e-08
0.000152782
2.71533e-08
0.000152811
3.66346e-08
0.000152842
4.68174e-08
0.000152875
5.73007e-08
0.000152909
6.77685e-08
0.000152946
7.79815e-08
0.000152984
8.79105e-08
0.000153024
9.73191e-08
0.000153065
1.06054e-07
0.000153107
1.14026e-07
0.000153151
1.21147e-07
0.000153196
1.27336e-07
0.000153241
1.3252e-07
0.000153288
1.36629e-07
0.000153335
1.39594e-07
0.000153384
1.4135e-07
0.000153432
1.41834e-07
0.000153482
1.40984e-07
0.000153532
1.38746e-07
0.000153582
1.35064e-07
0.000153633
1.29892e-07
0.000153684
1.23184e-07
0.000153734
1.149e-07
0.000153785
1.05014e-07
0.000153835
9.34808e-08
0.000153885
8.03472e-08
0.000153935
6.5579e-08
4.92311e-08
0.000153984
0.000157057
-5.21453e-09
0.000157071
-1.15365e-08
0.000157089
-1.33198e-08
0.000157112
-1.14936e-08
0.000157137
-7.0009e-09
0.000157165
-2.08987e-10
0.000157195
6.5517e-09
0.000157227
1.44869e-08
0.000157261
2.29878e-08
0.000157297
3.16989e-08
0.000157335
4.03503e-08
0.000157374
4.88882e-08
0.000157414
5.68407e-08
0.000157456
6.42142e-08
0.000157499
7.09419e-08
0.000157544
7.69228e-08
0.000157589
8.20739e-08
0.000157635
8.63234e-08
0.000157682
8.96044e-08
0.00015773
9.18538e-08
0.000157778
9.30104e-08
0.000157827
9.30143e-08
0.000157876
9.18109e-08
0.000157926
8.93528e-08
0.000157975
8.55981e-08
0.000158024
8.05085e-08
0.000158074
7.40524e-08
0.000158122
6.62011e-08
0.00015817
5.695e-08
0.000158218
4.62935e-08
0.000158264
3.42741e-08
0.000158308
2.08534e-08
6.31496e-09
0.000158351
0.000161541
-8.12035e-09
0.000161553
-2.36748e-08
0.000161572
-3.20884e-08
0.000161596
-3.53484e-08
0.000161624
-3.49651e-08
0.000161656
-3.17818e-08
0.000161689
-2.68654e-08
0.000161724
-2.06747e-08
0.000161761
-1.37911e-08
0.000161799
-6.776e-09
0.00016184
-9.90226e-11
0.000161881
7.68927e-09
0.000161923
1.45399e-08
0.000161967
2.09023e-08
0.000162011
2.66674e-08
0.000162056
3.17824e-08
0.000162102
3.61886e-08
0.000162149
3.9817e-08
0.000162196
4.2604e-08
0.000162243
4.44916e-08
0.00016229
4.54246e-08
0.000162338
4.53516e-08
0.000162386
4.42312e-08
0.000162433
4.20294e-08
0.00016248
3.87124e-08
0.000162526
3.42458e-08
0.000162572
2.85956e-08
0.000162616
2.17327e-08
0.00016266
1.35601e-08
0.000162702
3.78127e-09
0.000162743
-6.51363e-09
0.000162782
-1.81188e-08
-3.10259e-08
0.000162819
0.000166166
-2.09496e-08
0.000166188
-4.50829e-08
0.000166213
-5.7015e-08
0.00016624
-6.27919e-08
0.00016627
-6.46433e-08
0.000166301
-6.32789e-08
0.000166335
-6.00714e-08
0.00016637
-5.57285e-08
0.000166406
-5.06322e-08
0.000166445
-4.51137e-08
0.000166484
-3.94326e-08
0.000166526
-3.36635e-08
0.000166568
-2.8248e-08
0.000166612
-2.31708e-08
0.000166658
-1.84964e-08
0.000166704
-1.43159e-08
0.000166751
-1.06982e-08
0.000166798
-7.69727e-09
0.000166846
-5.3574e-09
0.000166894
-3.72116e-09
0.000166942
-2.84761e-09
0.000166991
-2.81885e-09
0.000167039
-3.68628e-09
0.000167086
-5.45161e-09
0.000167133
-8.11915e-09
0.000167179
-1.17062e-08
0.000167224
-1.62311e-08
0.000167267
-2.17096e-08
0.000167309
-2.81388e-08
0.000167348
-3.55147e-08
0.000167385
-4.37983e-08
0.00016742
-5.3064e-08
-6.31897e-08
0.000167452
0.000170911
-3.14461e-08
0.000170939
-7.33779e-08
0.000170973
-9.03377e-08
0.00017101
-9.98413e-08
0.000171049
-1.03784e-07
0.000171089
-1.0361e-07
0.000171131
-1.01342e-07
0.000171173
-9.78637e-08