/*--------------------------------*- C++ -*----------------------------------*\
  =========                 |
  \\      /  F ield         | OpenFOAM: The Open Source CFD Toolbox
   \\    /   O peration     | Website:  https://openfoam.org
    \\  /    A nd           | Version:  10
     \\/     M anipulation  |
\*---------------------------------------------------------------------------*/
FoamFile
{
    format      ascii;
    class       volScalarField;
    location    "0.18";
    object      k;
}
// * * * * * * * * * * * * * * * * * * * * * * * * * * * * * * * * * * * * * //

dimensions      [0 2 -2 0 0 0 0];

internalField   nonuniform List<scalar> 
6820
(
0.198344
0.194813
0.191223
0.187612
0.18403
0.180503
0.177043
0.173655
0.170343
0.167108
0.16395
0.160869
0.157866
0.154941
0.152092
0.149321
0.146625
0.144005
0.141459
0.138986
0.136585
0.134253
0.131985
0.129777
0.12762
0.125504
0.123414
0.121331
0.119218
0.117067
0.114664
0.11261
0.10756
0.200925
0.200902
0.200473
0.200012
0.199546
0.199066
0.198566
0.198042
0.197493
0.19692
0.196323
0.195705
0.195066
0.19441
0.193738
0.193053
0.192356
0.191649
0.190935
0.190216
0.189493
0.18877
0.188048
0.187331
0.186621
0.185922
0.185236
0.184568
0.183923
0.1833
0.182717
0.182103
0.181822
0.236739
0.0165858
0.00855744
0.0102984
0.00709674
0.0077334
0.00944351
0.0113661
0.013442
0.0155912
0.0177773
0.0199797
0.022183
0.0243754
0.0265478
0.0286927
0.0308047
0.0328796
0.0349149
0.0369097
0.0388646
0.0407826
0.0426689
0.0445317
0.0463831
0.0482395
0.0501239
0.0520665
0.0541092
0.0563068
0.0587336
0.061511
0.0646738
0.210792
0.147871
0.104756
0.0793752
0.0637247
0.0531454
0.0453569
0.0392539
0.0342634
0.030063
0.0264581
0.023324
0.0205765
0.018157
0.0160236
0.0141454
0.0124989
0.0110652
0.00982801
0.00877221
0.00788271
0.00714422
0.00654132
0.00605907
0.00568375
0.00540359
0.00520958
0.00509619
0.00506205
0.00511217
0.00525546
0.00552585
0.00592352
0.223411
0.0829059
0.0212525
0.00422348
0.000727039
0.000447717
0.0007427
0.001045
0.00129048
0.00149546
0.00167309
0.00182793
0.00196049
0.00207027
0.00215696
0.0022208
0.00226268
0.00228391
0.00228617
0.00227128
0.0022411
0.00219736
0.00214158
0.00207495
0.00199824
0.00191175
0.00181523
0.00170783
0.00158805
0.00145356
0.00130153
0.00112814
0.000927524
0.217071
0.114994
0.0546259
0.0309146
0.0216966
0.0172534
0.0141374
0.0112849
0.00849928
0.0059291
0.00380485
0.00225548
0.00125202
0.000665118
0.000348489
0.000187503
0.000108881
7.14828e-05
5.41044e-05
4.64589e-05
4.37798e-05
4.39631e-05
4.60354e-05
4.96801e-05
5.43408e-05
5.95377e-05
6.48157e-05
6.98168e-05
7.38215e-05
7.63567e-05
7.38894e-05
7.78697e-05
3.89438e-05
0.213555
0.132742
0.0677074
0.0365674
0.023407
0.017645
0.0147879
0.013176
0.0121672
0.0114832
0.0109922
0.0106277
0.0103528
0.0101441
0.00998208
0.00984621
0.00970937
0.0095326
0.00925942
0.00881623
0.00811828
0.00723756
0.00627044
0.00537978
0.0046774
0.00417125
0.003816
0.00356117
0.00336973
0.00321645
0.00308673
0.00296954
0.0028596
0.204425
0.178323
0.130085
0.0789461
0.0462931
0.0294984
0.0212248
0.0169904
0.0146736
0.0133225
0.0124993
0.0119891
0.0116766
0.0114937
0.0113963
0.0113516
0.0113304
0.0112993
0.0112109
0.0109734
0.0105089
0.0102058
0.0100336
0.0098996
0.00979203
0.0097136
0.00966709
0.00965003
0.009658
0.00968259
0.00971664
0.00975213
0.00978729
0.203137
0.184615
0.160071
0.1265
0.0918486
0.0652726
0.0476925
0.0367378
0.029973
0.0257087
0.0229339
0.0210707
0.0197834
0.018868
0.0181902
0.0176514
0.0171656
0.0166422
0.0159731
0.0150845
0.0141047
0.0136145
0.0134665
0.0134746
0.0135778
0.0137574
0.014004
0.014307
0.0146545
0.0150339
0.0154356
0.0158488
0.0162701
0.202518
0.187723
0.171929
0.155098
0.133275
0.108651
0.0857769
0.0675471
0.0543565
0.0452347
0.0389954
0.0346945
0.031677
0.0295063
0.0278864
0.0266046
0.0254928
0.0244097
0.0232637
0.0220986
0.0212135
0.02089
0.0209605
0.0212484
0.0216751
0.0222093
0.022833
0.0235314
0.0242887
0.0250893
0.0259216
0.0267704
0.0276315
0.202091
0.189879
0.176837
0.165327
0.153549
0.140587
0.126333
0.111554
0.0975432
0.0852531
0.0750318
0.066795
0.0602443
0.0550212
0.0507882
0.0472579
0.0442043
0.0414855
0.0390945
0.0372009
0.0360336
0.0355896
0.0356794
0.0361111
0.0367745
0.0376095
0.038582
0.0396626
0.0408238
0.0420397
0.0432914
0.0445541
0.0458191
0.201785
0.19142
0.180308
0.171108
0.163049
0.155498
0.147781
0.139268
0.129858
0.119938
0.110099
0.100883
0.0926241
0.0854346
0.0792658
0.0739935
0.0694886
0.0656782
0.0625889
0.0603188
0.0589104
0.0582199
0.0580435
0.0581434
0.0584428
0.0589152
0.0595392
0.0602858
0.0611263
0.0620319
0.0629816
0.0639474
0.0649144
0.201557
0.192573
0.182769
0.174743
0.168176
0.162757
0.157994
0.153273
0.148216
0.142702
0.136775
0.130588
0.124341
0.118217
0.112359
0.106863
0.101809
0.0972858
0.093395
0.0902222
0.0877594
0.0857761
0.0841598
0.0828434
0.0818279
0.0810962
0.0806127
0.0803363
0.080232
0.080268
0.0804218
0.0806624
0.0809625
0.201394
0.193399
0.184565
0.177327
0.17143
0.166446
0.162043
0.157921
0.153873
0.149787
0.145618
0.141368
0.137074
0.132791
0.128568
0.124441
0.120431
0.116555
0.112836
0.109311
0.106041
0.103027
0.100317
0.097961
0.0959784
0.0943545
0.0930555
0.092039
0.0912645
0.0906912
0.0902879
0.0900177
0.0898417
0.201276
0.193996
0.185808
0.178867
0.173073
0.168118
0.16384
0.160075
0.156643
0.153396
0.150222
0.147047
0.143827
0.140538
0.137165
0.133698
0.13013
0.126467
0.12274
0.119016
0.115389
0.111961
0.108821
0.106028
0.103604
0.101543
0.0998191
0.0983956
0.0972345
0.0962945
0.0955426
0.0949421
0.0944493
0.201197
0.194404
0.186556
0.179691
0.173881
0.168904
0.164606
0.16083
0.157417
0.154243
0.151211
0.148253
0.145312
0.142346
0.139315
0.136184
0.132928
0.129539
0.126037
0.12248
0.118949
0.115537
0.112329
0.109388
0.106749
0.104421
0.102398
0.100656
0.0991696
0.0979064
0.0968385
0.0959353
0.0951516
0.201151
0.194654
0.186931
0.180033
0.174124
0.169028
0.164607
0.160715
0.157208
0.153967
0.150895
0.147911
0.144948
0.141946
0.138858
0.135646
0.132294
0.128806
0.12522
0.121597
0.118017
0.114564
0.111308
0.108303
0.105577
0.103139
0.100985
0.0990966
0.0974518
0.0960233
0.0947855
0.0937144
0.0927658
0.201135
0.19476
0.187003
0.179957
0.173852
0.168548
0.16391
0.159787
0.156036
0.152539
0.149208
0.145968
0.14276
0.139532
0.136239
0.132852
0.129359
0.125768
0.122115
0.118453
0.114848
0.111367
0.108069
0.104997
0.102178
0.0996222
0.0973289
0.0952863
0.0934791
0.09188
0.090465
0.0892225
0.0881139
0.201148
0.194729
0.186774
0.179448
0.173038
0.167426
0.162475
0.158033
0.153952
0.150116
0.146434
0.142831
0.139249
0.135642
0.131977
0.128243
0.124441
0.120596
0.116746
0.112943
0.109241
0.105693
0.102343
0.0992225
0.0963513
0.0937365
0.091375
0.0892579
0.0873635
0.085656
0.0841165
0.0827534
0.0815497
0.201192
0.194555
0.186221
0.178472
0.171641
0.165627
0.160285
0.155451
0.150972
0.146725
0.142618
0.138581
0.134565
0.13054
0.126489
0.122411
0.11832
0.11424
0.110206
0.106259
0.102444
0.0988028
0.0953688
0.0921675
0.0892139
0.0865137
0.0840631
0.0818473
0.0798379
0.0780124
0.0763596
0.0748891
0.073598
0.20127
0.194225
0.185301
0.176964
0.169591
0.16308
0.157269
0.151975
0.147032
0.14231
0.137721
0.133202
0.128717
0.124248
0.119788
0.115347
0.11094
0.106595
0.102343
0.098224
0.094273
0.0905239
0.0870033
0.0837295
0.0807134
0.0779528
0.0754336
0.073138
0.0710505
0.0691581
0.0674492
0.0659277
0.0645922
0.201389
0.193705
0.183943
0.17483
0.166785
0.159685
0.153334
0.147517
0.142054
0.136816
0.131719
0.126713
0.121768
0.116873
0.112028
0.107244
0.10254
0.0979444
0.093487
0.0892007
0.0851167
0.0812619
0.0776564
0.0743146
0.0712373
0.0684129
0.0658302
0.0634794
0.0613502
0.0594289
0.0577011
0.0561625
0.054804
0.201561
0.192949
0.18204
0.171933
0.163076
0.155295
0.148338
0.141955
0.135952
0.130197
0.124612
0.119145
0.113772
0.108483
0.103283
0.0981851
0.0932127
0.0883932
0.083756
0.0793304
0.0751425
0.071214
0.0675583
0.0641807
0.0610736
0.0582299
0.0556427
0.0533026
0.0511964
0.0493073
0.047617
0.0461151
0.0447834
0.201807
0.191866
0.179409
0.168038
0.158209
0.149661
0.142061
0.135106
0.128574
0.122323
0.116271
0.110369
0.104594
0.0989424
0.0934224
0.0880529
0.0828589
0.0778683
0.0731084
0.0686041
0.0643765
0.0604389
0.0567928
0.0534379
0.0503718
0.0475888
0.0450788
0.0428275
0.0408175
0.0390284
0.0374393
0.0360343
0.0347894
0.20217
0.190277
0.175728
0.162805
0.151907
0.142596
0.134402
0.126937
0.119942
0.113262
0.106813
0.10055
0.0944537
0.0885243
0.0827744
0.0772261
0.071906
0.0668413
0.0620569
0.0575713
0.0533986
0.0495444
0.0460077
0.0427866
0.039876
0.0372642
0.0349346
0.0328679
0.0310426
0.0294357
0.0280237
0.026787
0.025698
0.202699
0.18794
0.170617
0.155847
0.143805
0.13375
0.125003
0.117073
0.109658
0.102596
0.0958078
0.0892553
0.0829258
0.0768229
0.0709628
0.0653694
0.060069
0.0550861
0.0504385
0.0461333
0.0421765
0.0385706
0.0353122
0.0323936
0.0298023
0.0275196
0.0255226
0.0237864
0.0222851
0.0209922
0.019882
0.018933
0.0181178
0.203472
0.184518
0.163609
0.146788
0.133687
0.123059
0.113941
0.105712
0.0980329
0.0907432
0.083775
0.0771023
0.0707189
0.064631
0.0588555
0.0534133
0.0483286
0.0436219
0.0393049
0.0353806
0.0318488
0.0287037
0.0259328
0.0235204
0.0214473
0.019689
0.0182172
0.0170017
0.0160117
0.0152177
0.014591
0.0141063
0.0137362
0.204625
0.179387
0.153862
0.134809
0.120757
0.10971
0.100359
0.0919666
0.0841728
0.0768327
0.0698977
0.0633528
0.0571933
0.0514213
0.046045
0.0410749
0.0365292
0.0324244
0.0287692
0.025564
0.0228015
0.0204645
0.0185287
0.0169663
0.0157466
0.0148348
0.0141929
0.0137812
0.0135609
0.013495
0.0135499
0.0136961
0.01391
0.206331
0.171736
0.140799
0.119872
0.105413
0.0944165
0.0852195
0.0770009
0.0694157
0.0623492
0.0557798
0.0497095
0.0441356
0.0390523
0.0344568
0.0303538
0.0267551
0.0236698
0.0210992
0.019035
0.0174575
0.016332
0.0156122
0.0152454
0.0151775
0.0153544
0.0157229
0.0162317
0.016835
0.017494
0.0181781
0.0188643
0.0195423
0.208861
0.16016
0.123053
0.100694
0.0863572
0.0758919
0.0673223
0.0597867
0.0529532
0.0467317
0.0411188
0.0361252
0.0317466
0.0279677
0.0247719
0.0221461
0.020078
0.0185484
0.0175277
0.0169758
0.01684
0.0170545
0.0175453
0.0182359
0.0190579
0.0199575
0.020894
0.0218353
0.0227567
0.0236405
0.0244755
0.0252566
0.025989
0.212419
0.143445
0.101154
0.0787438
0.0654577
0.0563761
0.0493493
0.0434047
0.0381699
0.0335892
0.0296952
0.0265052
0.0240008
0.0221391
0.0208657
0.0201212
0.0198377
0.0199354
0.0203299
0.0209385
0.0216882
0.0225264
0.0234166
0.0243271
0.0252302
0.0261073
0.0269498
0.0277555
0.0285246
0.0292574
0.0299541
0.0306148
0.0312438
0.216515
0.123104
0.0774567
0.0562443
0.0449657
0.0383582
0.0340067
0.0306083
0.0276808
0.0252087
0.0232698
0.0218747
0.0209666
0.0204572
0.0202509
0.0202538
0.0203763
0.0205465
0.0207184
0.0208629
0.0209673
0.0210458
0.0211272
0.0212338
0.0213747
0.0215506
0.0217606
0.0220043
0.0222803
0.0225869
0.0229234
0.0232893
0.0236838
0.221153
0.0969408
0.0510037
0.0350051
0.0284102
0.0247373
0.0221613
0.0202839
0.0189965
0.0181688
0.0176526
0.0173271
0.0171057
0.016924
0.0167324
0.0164961
0.0162024
0.0158679
0.0155246
0.0152
0.014913
0.0146786
0.0145076
0.0144063
0.0143779
0.0144234
0.0145416
0.0147252
0.014961
0.0152354
0.0155393
0.015866
0.0162116
0.225357
0.0734875
0.0275005
0.0152244
0.0118574
0.0106006
0.00985304
0.00939508
0.00919578
0.009166
0.00921105
0.00927751
0.00934317
0.00939457
0.00941858
0.00940416
0.00934625
0.00924817
0.00911959
0.00897253
0.00881939
0.00867136
0.00853792
0.00842769
0.00834806
0.0083025
0.00829018
0.0083063
0.00834543
0.00840363
0.00847789
0.00856546
0.00866367
0.226713
0.0665759
0.0206798
0.00893745
0.00589643
0.00506116
0.00485388
0.00486802
0.00496405
0.00508227
0.00520056
0.00531364
0.0054182
0.00550872
0.00557952
0.00562706
0.00564985
0.00564804
0.00562454
0.00558468
0.00553517
0.00548299
0.0054346
0.00539587
0.00536974
0.00535403
0.00534563
0.00534303
0.00534544
0.00535214
0.00536233
0.00537511
0.00539022
0.223949
0.0786162
0.0317683
0.0179734
0.0133046
0.0111597
0.00976817
0.00862887
0.00758947
0.00661285
0.00570013
0.00486386
0.00411412
0.00345549
0.00288766
0.00240663
0.00200546
0.00167526
0.00140688
0.00119144
0.00102065
0.000887213
0.0007849
0.00070841
0.000653354
0.000616303
0.000594417
0.000585253
0.000586821
0.000597515
0.000616084
0.000641338
0.000673841
0.213027
0.135552
0.0897746
0.06578
0.0525779
0.0445968
0.0393089
0.0355378
0.0327054
0.0304895
0.0287071
0.0272405
0.0260096
0.0249584
0.0240487
0.0232529
0.0225494
0.0219213
0.0213552
0.0208407
0.0203691
0.0199336
0.0195284
0.0191492
0.0187923
0.0184546
0.0181333
0.0178257
0.0175295
0.0172433
0.0169647
0.0166956
0.0164228
0.240245
0.00048678
0.0366666
0.033219
0.000660558
0.000110742
0.00565852
0.00131448
0.0147045
0.00218465
0.0265421
0.000673797
0.00100438
0.00102728
0.000873695
0.000798856
0.000859128
0.000964419
0.00106756
0.00117672
0.00129992
0.00143432
0.00157845
0.00173567
0.00191036
0.00210506
0.00232014
0.00255443
0.0028064
0.00307513
0.00336064
0.00366415
0.00398602
0.200085
0.19995
0.199768
0.199594
0.199435
0.199287
0.199148
0.199015
0.198888
0.198765
0.198648
0.198536
0.19843
0.198329
0.198233
0.198144
0.198062
0.197987
0.19792
0.197861
0.197811
0.19777
0.197738
0.197716
0.197705
0.197705
0.197716
0.197739
0.197773
0.19782
0.197877
0.19795
0.19802
0.199875
0.199564
0.199225
0.198872
0.198512
0.19815
0.19779
0.197432
0.197077
0.196726
0.196378
0.196033
0.195691
0.195352
0.195014
0.194678
0.194342
0.194008
0.193672
0.193337
0.192999
0.19266
0.192319
0.191974
0.191626
0.191274
0.190917
0.190554
0.190186
0.189811
0.18943
0.189041
0.188645
0.114224
0.136102
0.146076
0.148549
0.149198
0.148845
0.147001
0.139671
0.122539
0.101118
0.0826755
0.0701332
0.0630008
0.0595496
0.0581198
0.0576255
0.0575767
0.0583018
0.0653351
0.0859364
0.113455
0.122223
0.0955686
0.0511878
0.0191425
0.0146274
0.0321913
0.0561837
0.0742785
0.082421
0.0827225
0.0794015
0.075817
0.073393
0.0719581
0.0707896
0.0697839
0.0701481
0.0740526
0.0832528
0.0977899
0.115842
0.133274
0.142222
0.134964
0.114358
0.0941207
0.0825234
0.0739164
0.0644845
0.0640223
0.0833168
0.117736
0.14921
0.165142
0.167319
0.163934
0.159921
0.155032
0.14787
0.147612
0.17937
0.263929
0.374918
0.425237
0.39252
0.321778
0.249002
0.186091
0.139119
0.110903
0.0938803
0.087209
0.111584
0.163179
0.18592
0.158045
0.143901
0.189426
0.262481
0.313463
0.323043
0.300703
0.258491
0.205121
0.152531
0.111569
0.0855704
0.0729315
0.0701378
0.0717592
0.0722541
0.0694535
0.0649978
0.061441
0.058097
0.0518341
0.0428991
0.0618372
0.0827494
0.179585
0.176901
0.176508
0.176297
0.176051
0.175865
0.175655
0.174667
0.169598
0.156216
0.135136
0.112605
0.0942099
0.0817633
0.0746859
0.0719992
0.0727777
0.0816405
0.100877
0.12296
0.128223
0.102499
0.0587319
0.0227635
0.0107931
0.0223928
0.0453109
0.0664928
0.0789132
0.0821875
0.0797949
0.0757915
0.0727696
0.0713849
0.0709195
0.0703052
0.069221
0.0688054
0.0714133
0.0792574
0.0928549
0.110669
0.129096
0.141083
0.138076
0.119792
0.098248
0.0842064
0.0749824
0.0660187
0.0652508
0.0835611
0.117577
0.149438
0.165468
0.166956
0.16262
0.157923
0.15262
0.145911
0.149118
0.186371
0.274209
0.375247
0.412184
0.374173
0.305138
0.235651
0.17609
0.132653
0.1072
0.0921435
0.0833498
0.0995424
0.149248
0.185498
0.169496
0.142207
0.15755
0.207451
0.249355
0.261599
0.247924
0.215342
0.1723
0.131203
0.100667
0.0814571
0.0714242
0.0684902
0.0692791
0.069459
0.0669853
0.0632688
0.0606725
0.0587041
0.0543985
0.0469456
0.0659942
0.081313
0.0695906
0.0750995
0.0800993
0.0845758
0.0891787
0.0954285
0.105119
0.118748
0.134527
0.148154
0.154736
0.15237
0.143515
0.132854
0.124499
0.120736
0.123815
0.131775
0.137948
0.129659
0.0997064
0.0580775
0.023354
0.00842194
0.0152583
0.0356945
0.0581729
0.074185
0.0808726
0.0801711
0.0761036
0.0722028
0.0702184
0.0700981
0.0706782
0.0706312
0.0694599
0.0682197
0.0694015
0.0756545
0.0880362
0.105339
0.124362
0.138889
0.140141
0.125031
0.103071
0.0865782
0.0762242
0.0675107
0.0663764
0.0835301
0.116919
0.149131
0.165389
0.166286
0.161015
0.155643
0.150021
0.144255
0.151179
0.193158
0.281164
0.370128
0.394952
0.353834
0.287996
0.222259
0.166383
0.126873
0.104329
0.0914013
0.0817726
0.0904851
0.134521
0.179775
0.178429
0.148437
0.14103
0.166639
0.195983
0.208313
0.201068
0.17695
0.144318
0.114642
0.0934915
0.0795425
0.0707852
0.066847
0.066378
0.0661421
0.0640059
0.060995
0.0592747
0.0586619
0.0567987
0.0519414
0.070065
0.0795164
0.00674459
0.00811251
0.00978943
0.0117461
0.0142038
0.0178832
0.0241823
0.0349283
0.0513187
0.0724794
0.0949812
0.114399
0.12782
0.135084
0.137907
0.138859
0.137298
0.129222
0.110274
0.0796633
0.0452177
0.0179856
0.00581808
0.01089
0.0286575
0.0506783
0.0688563
0.0786824
0.0802244
0.0767015
0.072037
0.0689788
0.0684256
0.0697182
0.0713641
0.0718664
0.0705926
0.0684951
0.0681398
0.0725687
0.0834293
0.0999269
0.119176
0.135724
0.141044
0.129767
0.108388
0.0897085
0.077766
0.0689812
0.0673976
0.0832201
0.115735
0.148247
0.164892
0.165339
0.15916
0.153105
0.147293
0.142969
0.153599
0.199196
0.284113
0.360086
0.374404
0.33267
0.271053
0.209204
0.157298
0.121908
0.102269
0.0914181
0.0819777
0.0846076
0.120788
0.170393
0.183133
0.157639
0.136781
0.141611
0.157302
0.166742
0.162875
0.14575
0.123112
0.103835
0.0901996
0.0796367
0.070861
0.0652112
0.0631537
0.0624262
0.0606813
0.0583703
0.0574061
0.0578649
0.058192
0.0565345
0.0728858
0.0768156
0.00068807
0.00018218
0.000252658
0.000396052
0.000197514
0.000105759
0.000354288
0.0014258
0.0048288
0.0124519
0.0249779
0.0408421
0.0569083
0.0700864
0.0783381
0.0803802
0.0748076
0.0615676
0.042238
0.0229971
0.00842946
0.002862
0.00886688
0.0246432
0.0451146
0.0639044
0.0759854
0.0798272
0.0773898
0.0723509
0.068089
0.0664636
0.0675989
0.0703547
0.073025
0.0740296
0.0726398
0.0696831
0.0677261
0.0701332
0.0791624
0.0945347
0.113653
0.131696
0.140719
0.133724
0.11396
0.0936155
0.0797412
0.0704749
0.0683171
0.0826342
0.114005
0.146738
0.163956
0.164144
0.157101
0.150341
0.144517
0.142041
0.156142
0.20394
0.282962
0.345806
0.351914
0.311659
0.254609
0.19662
0.14902
0.117839
0.100927
0.0919395
0.0834209
0.0816639
0.109333
0.158978
0.183345
0.165897
0.14005
0.130268
0.13346
0.137747
0.134693
0.123316
0.109575
0.0986465
0.0901192
0.0811381
0.0714006
0.063641
0.0597949
0.0584856
0.0571712
0.0555735
0.0552789
0.0565155
0.0583957
0.059557
0.073665
0.0731308
2.71604e-05
0.000121591
0.000163123
9.39703e-05
0.000372028
0.000319188
0.000351164
0.000309594
0.000291954
0.000200535
0.00119501
0.00394794
0.00854032
0.0137022
0.017417
0.0175095
0.0144622
0.00925191
0.00312316
0.00185875
0.00332358
0.00989906
0.0237241
0.0421976
0.0603673
0.0734786
0.0791001
0.0779564
0.0730019
0.0677237
0.064708
0.0649433
0.0678961
0.0720733
0.0756676
0.0770985
0.0755809
0.0717956
0.0682276
0.0684676
0.0753679
0.0892703
0.107902
0.126931
0.139165
0.136671
0.11951
0.0982558
0.0822828
0.0720706
0.0691478
0.0817833
0.111717
0.144555
0.162552
0.16273
0.15489
0.147395
0.14177
0.141392
0.158531
0.206885
0.278002
0.32841
0.328821
0.291408
0.238752
0.184618
0.141677
0.114695
0.100191
0.0927784
0.0856458
0.0811815
0.100772
0.147152
0.179768
0.170329
0.145751
0.128448
0.122119
0.120629
0.117107
0.110334
0.103471
0.0980867
0.0922316
0.0834545
0.0722778
0.0622986
0.056544
0.0544966
0.0535736
0.0527121
0.0530393
0.0548367
0.0576604
0.060638
0.0722894
0.0686306
0.00273516
0.00258884
0.00242299
0.00225338
0.00208336
0.00189032
0.0016585
0.00137801
0.00107332
0.000392723
0.00122009
0.000862207
0.000137895
0.000184627
0.000569893
0.000888017
0.000903818
0.000952836
0.00213435
0.00570246
0.0134757
0.0261616
0.0424679
0.0590777
0.0719461
0.0784075
0.0783252
0.0737615
0.0678285
0.063428
0.0623
0.064651
0.0694163
0.0748776
0.0792361
0.0809911
0.0793399
0.074795
0.0696726
0.067672
0.0721836
0.0842566
0.102039
0.12157
0.136438
0.138418
0.124729
0.103513
0.085508
0.0738845
0.0699286
0.0806893
0.10887
0.141644
0.160633
0.16112
0.152588
0.144329
0.13909
0.140893
0.160475
0.207702
0.269786
0.30922
0.30623
0.272223
0.223483
0.173332
0.135299
0.112393
0.0999055
0.0938034
0.0882595
0.0826288
0.0952082
0.136277
0.173743
0.17064
0.150009
0.131302
0.119722
0.113708
0.109522
0.105889
0.103169
0.100455
0.0953815
0.0860919
0.0734699
0.0613911
0.0536482
0.0506271
0.0499424
0.0498382
0.05075
0.0529523
0.0562129
0.0599031
0.0691858
0.0636244
0.00981792
0.00981801
0.00975233
0.0096207
0.00941847
0.00911946
0.00869255
0.00811596
0.00740622
0.00653625
0.00566784
0.00492272
0.00423214
0.00378223
0.00372751
0.00425286
0.00554908
0.00813954
0.0129031
0.0208112
0.032283
0.0463942
0.0606782
0.0720364
0.0781811
0.0785683
0.0744314
0.0682023
0.0626596
0.0600107
0.061197
0.065743
0.0721793
0.0786945
0.0836072
0.085568
0.0837888
0.0785938
0.0720442
0.0678162
0.0697428
0.0796304
0.096181
0.115755
0.13264
0.138829
0.129292
0.109187
0.0894967
0.0760659
0.0707334
0.0793957
0.105478
0.137953
0.158138
0.159325
0.150246
0.14125
0.136549
0.140385
0.161695
0.206319
0.259107
0.289513
0.28491
0.254144
0.208771
0.162887
0.129807
0.110746
0.09993
0.094925
0.0909658
0.0853582
0.0924272
0.127264
0.166628
0.169003
0.151848
0.134597
0.121954
0.113967
0.10946
0.107255
0.106019
0.103844
0.0985831
0.0887375
0.0750182
0.0611028
0.0513086
0.0470172
0.0463141
0.0469475
0.0484502
0.0508973
0.0542161
0.0578236
0.065002
0.0584044
0.0167522
0.0172754
0.0177313
0.0181005
0.0183745
0.0185265
0.0185136
0.0182965
0.0178628
0.0172495
0.0165314
0.0158384
0.0153569
0.0152701
0.0158229
0.0173583
0.0203157
0.025228
0.0325836
0.0423901
0.0537833
0.0649865
0.073845
0.0786612
0.0788087
0.0748969
0.0686023
0.0622616
0.0581991
0.05793
0.0616422
0.0682778
0.0761078
0.0833685
0.0885945
0.0906418
0.0887573
0.0830599
0.0752788
0.0689308
0.0681626
0.0755379
0.0904593
0.109635
0.127915
0.137841
0.132877
0.114994
0.0942633
0.0787854
0.0716808
0.0779762
0.101583
0.133431
0.154957
0.157311
0.147988
0.138356
0.134141
0.139683
0.161941
0.202898
0.246896
0.27034
0.265207
0.236981
0.194597
0.153297
0.125112
0.109537
0.100142
0.0960764
0.0935997
0.0887958
0.0920241
0.120549
0.159386
0.167227
0.152525
0.136294
0.124649
0.117078
0.112769
0.110703
0.109284
0.106718
0.101204
0.0912222
0.0769329
0.0615182
0.0496457
0.0437744
0.0427375
0.0440149
0.0461889
0.0487763
0.0517996
0.0548408
0.060267
0.0531798
0.0286196
0.029714
0.030727
0.0316236
0.0323908
0.0330059
0.0334335
0.0336434
0.0336336
0.0334508
0.0331932
0.0330168
0.0331337
0.0337889
0.0352991
0.0380587
0.0423512
0.0482826
0.0556328
0.063677
0.0712404
0.0769769
0.0797727
0.0790785
0.0750877
0.0688076
0.0619965
0.0568
0.0550506
0.057544
0.0637584
0.0721888
0.0810184
0.0886695
0.0939665
0.0959966
0.094049
0.0880276
0.0792685
0.0710008
0.0675313
0.0721261
0.0850145
0.103356
0.122432
0.135473
0.135198
0.120576
0.099728
0.0822098
0.0729382
0.0765547
0.0972472
0.128041
0.151034
0.155118
0.145976
0.135768
0.131825
0.138594
0.161007
0.197742
0.234028
0.252363
0.247023
0.220397
0.180936
0.144447
0.121038
0.108542
0.100442
0.0972227
0.0960604
0.0925035
0.0934028
0.116229
0.152634
0.16529
0.153123
0.136635
0.125464
0.119043
0.11537
0.113119
0.11115
0.108273
0.102952
0.0934121
0.0791122
0.0625877
0.048695
0.0409861
0.0392852
0.0410442
0.0439599
0.0466914
0.0491549
0.0513004
0.0553243
0.0480507
0.047262
0.0488472
0.0503128
0.0516122
0.0527333
0.0536675
0.0543987
0.0549155
0.0552314
0.0554019
0.0555331
0.0557823
0.0563456
0.0574513
0.0593162
0.0620095
0.0655091
0.069617
0.0739092
0.0777316
0.080317
0.0809549
0.0791708
0.0748944
0.0686356
0.0616096
0.0556248
0.0525786
0.0537123
0.0590664
0.0675067
0.0772701
0.0866351
0.0943203
0.0994745
0.101412
0.0994622
0.0933118
0.0838691
0.0739635
0.0678978
0.0695309
0.0799976
0.0970676
0.116379
0.131823
0.136039
0.125524
0.105692
0.0864666
0.0747136
0.0753172
0.0926137
0.121824
0.146254
0.152667
0.144297
0.133601
0.129573
0.136938
0.158752
0.191181
0.221122
0.235733
0.229861
0.204003
0.167747
0.136329
0.117513
0.107521
0.100755
0.09838
0.0983128
0.0961766
0.0960129
0.114109
0.146863
0.162575
0.153177
0.135843
0.123835
0.118061
0.115261
0.113205
0.111081
0.108351
0.103714
0.0951178
0.0813271
0.0641465
0.0484279
0.0387336
0.0360564
0.038082
0.0417305
0.0447113
0.0465393
0.0475365
0.0503841
0.0430631
0.0660426
0.067276
0.0684017
0.069387
0.0702371
0.0709699
0.071597
0.072124
0.072561
0.0729344
0.0732961
0.0737251
0.0743195
0.0751754
0.0763421
0.0778048
0.0794478
0.0810387
0.0822232
0.0825488
0.0815431
0.078819
0.0742122
0.0679603
0.0608868
0.0544402
0.0504007
0.050249
0.0545105
0.0625049
0.0726664
0.0831958
0.0926262
0.100034
0.104885
0.106691
0.104809
0.0987253
0.088911
0.077712
0.0692633
0.0678634
0.0755639
0.0909204
0.109942
0.12706
0.135284
0.129417
0.111827
0.0915979
0.0772376
0.0744896
0.0879224
0.114859
0.140465
0.149785
0.142967
0.131979
0.127413
0.134587
0.1551
0.183465
0.208394
0.220052
0.212932
0.187475
0.155121
0.129152
0.114262
0.10624
0.10108
0.0996206
0.10038
0.0996454
0.09944
0.113862
0.142322
0.158614
0.151993
0.133839
0.120202
0.114469
0.112615
0.111188
0.109335
0.107071
0.103399
0.0960895
0.0832778
0.0659665
0.0487725
0.037089
0.0331702
0.0352021
0.0394945
0.0428059
0.0440918
0.0438946
0.0455725
0.0382397
0.0814241
0.0819808
0.0825097
0.082977
0.0833778
0.0837212
0.084015
0.0842625
0.0844666
0.084635
0.0847834
0.0849328
0.0851066
0.0853039
0.085495
0.0856052
0.0854913
0.0849453
0.0836981
0.0814461
0.0779139
0.0729509
0.0666772
0.0596599
0.0530261
0.0483371
0.0471265
0.0502627
0.0575164
0.0676334
0.0788597
0.0895692
0.0986545
0.105555
0.110006
0.111672
0.109931
0.104094
0.0942143
0.082103
0.0715789
0.0671973
0.0718641
0.0850705
0.103307
0.121398
0.132933
0.131876
0.117686
0.0975089
0.0807252
0.0743531
0.0834539
0.107301
0.133525
0.14619
0.141888
0.131028
0.125466
0.131525
0.150036
0.174659
0.195587
0.204445
0.195382
0.170842
0.143606
0.123003
0.110926
0.104564
0.101509
0.101054
0.10232
0.102852
0.103403
0.115184
0.139213
0.154234
0.149855
0.131444
0.115984
0.109627
0.108371
0.107641
0.106226
0.104518
0.101895
0.096082
0.0846689
0.0678
0.0496191
0.0360969
0.0307448
0.0324944
0.0372708
0.0409247
0.0417846
0.04043
0.0409168
0.0336184
0.0898201
0.0898846
0.0899823
0.0900799
0.0901614
0.0902215
0.0902543
0.0902499
0.090195
0.090076
0.0898792
0.0895892
0.0891804
0.0886198
0.0878494
0.0867702
0.0852343
0.0830623
0.0800535
0.0760216
0.0708609
0.0646526
0.0578133
0.0512249
0.0462134
0.0442442
0.0463774
0.0527623
0.0625073
0.0740226
0.0856155
0.0959881
0.104427
0.110687
0.114703
0.116247
0.114713
0.109271
0.099603
0.0869692
0.0747486
0.0675589
0.0690306
0.079677
0.0966442
0.115075
0.12912
0.132627
0.122749
0.10393
0.0853176
0.0752263
0.0795649
0.0994188
0.125349
0.141491
0.140785
0.130828
0.123993
0.12795
0.143646
0.164646
0.182052
0.187789
0.176781
0.154946
0.133852
0.117728
0.107146
0.102526
0.102218
0.102809
0.104187
0.105787
0.107695
0.117794
0.137731
0.150983
0.147687
0.129573
0.112524
0.104773
0.103272
0.102889
0.101859
0.100684
0.0991023
0.0949092
0.0852484
0.0693953
0.0508125
0.0357507
0.0288746
0.0300533
0.0350943
0.0390459
0.0395553
0.0370998
0.0364207
0.0292271
0.0940895
0.093794
0.0935592
0.0933522
0.0931497
0.0929353
0.0926925
0.0924
0.0920324
0.0915603
0.0909505
0.090166
0.0891544
0.0878502
0.0861702
0.0840094
0.0812401
0.077732
0.0733693
0.0680953
0.0619896
0.0553843
0.0489866
0.043909
0.0414823
0.0428269
0.0483596
0.0575342
0.0690053
0.0811212
0.0924542
0.102108
0.109728
0.115308
0.118906
0.120358
0.119077
0.11414
0.104918
0.0921329
0.0786368
0.0689218
0.067163
0.0748983
0.0901215
0.108329
0.12408
0.131554
0.126491
0.110406
0.0910105
0.077423
0.0766888
0.0916272
0.115994
0.135233
0.139132
0.131305
0.123373
0.12437
0.136271
0.153345
0.167073
0.169352
0.157911
0.141249
0.126046
0.112587
0.10267
0.100371
0.103407
0.105055
0.106035
0.108422
0.11211
0.121431
0.137887
0.149061
0.145656
0.127932
0.109608
0.100033
0.0975687
0.0970824
0.0962596
0.095538
0.0949552
0.0924415
0.084804
0.0704946
0.0521454
0.0359774
0.0276098
0.0279623
0.0330108
0.0371715
0.037382
0.033878
0.0321006
0.0250938
0.0944777
0.0938463
0.0932984
0.0928002
0.0923222
0.0918379
0.0913194
0.0907342
0.0900436
0.0892037
0.0881651
0.0868709
0.0852607
0.0832627
0.0807937
0.0777607
0.0740669
0.0696361
0.0644435
0.0585738
0.0523132
0.0462518
0.0413309
0.0387301
0.0395436
0.0443448
0.0528737
0.0640584
0.0763786
0.0883635
0.0989672
0.107684
0.114439
0.11937
0.122596
0.12399
0.12299
0.118625
0.110024
0.0974193
0.0830799
0.0712071
0.0663145
0.0708811
0.0839016
0.101367
0.118087
0.128706
0.128455
0.116314
0.0975726
0.08118
0.075312
0.0845087
0.105754
0.127011
0.13612
0.132033
0.12396
0.121661
0.128802
0.141211
0.150649
0.150085
0.141249
0.131099
0.119661
0.106754
0.0976308
0.0985481
0.105235
0.107936
0.107958
0.110678
0.116371
0.125773
0.139426
0.148066
0.143356
0.125503
0.106149
0.094907
0.0912628
0.0902981
0.0894106
0.0890225
0.0893952
0.0885796
0.0831485
0.0708356
0.053365
0.0366345
0.0269438
0.0262818
0.0310691
0.0353229
0.03528
0.030773
0.0279789
0.0212489
0.0919018
0.0910591
0.0903062
0.0896088
0.0889324
0.0882427
0.0875027
0.08667
0.0856967
0.0845297
0.0831097
0.0813706
0.0792415
0.0766484
0.0735166
0.0697769
0.0653802
0.0603294
0.0547238
0.0488289
0.0431597
0.0385255
0.035959
0.0364756
0.0407114
0.0486112
0.0593601
0.0716232
0.0839705
0.0952678
0.104869
0.112585
0.11852
0.122879
0.125796
0.12716
0.126446
0.122681
0.114821
0.102668
0.0878994
0.0742903
0.0664827
0.0677449
0.0781437
0.0943669
0.111421
0.124293
0.128353
0.120934
0.104478
0.0865397
0.0759122
0.078798
0.0952543
0.11668
0.130739
0.132014
0.125699
0.120881
0.122895
0.129878
0.134799
0.133622
0.129861
0.124321
0.113307
0.0997064
0.0926524
0.0976315
0.107751
0.111511
0.110127
0.112467
0.120049
0.130285
0.141779
0.147494
0.140548
0.122069
0.102152
0.0896736
0.0846036
0.0825609
0.0812008
0.0810414
0.0823724
0.0832538
0.0801247
0.0701645
0.0541895
0.0375176
0.0268067
0.025038
0.0293153
0.0335392
0.0333078
0.0278494
0.0240976
0.0177449
0.0870692
0.0860273
0.0850817
0.0841966
0.0833331
0.0824501
0.081502
0.0804378
0.0792009
0.0777293
0.0759577
0.0738184
0.0712433
0.0681681
0.0645395
0.0603266
0.0555475
0.0503102
0.044868
0.0396838
0.0354663
0.0331191
0.0335576
0.0374169
0.0447706
0.0550191
0.0670318
0.0794842
0.0912233
0.101501
0.11001