/*--------------------------------*- C++ -*----------------------------------*\
  =========                 |
  \\      /  F ield         | OpenFOAM: The Open Source CFD Toolbox
   \\    /   O peration     | Website:  https://openfoam.org
    \\  /    A nd           | Version:  10
     \\/     M anipulation  |
\*---------------------------------------------------------------------------*/
FoamFile
{
    format      ascii;
    class       volScalarField;
    location    "0.18";
    object      p;
}
// * * * * * * * * * * * * * * * * * * * * * * * * * * * * * * * * * * * * * //

dimensions      [0 2 -2 0 0 0 0];

internalField   nonuniform List<scalar> 
6820
(
-9.64993
-9.95263
-9.99938
-10.0162
-10.0494
-10.0756
-10.095
-10.112
-10.1271
-10.14
-10.1512
-10.1605
-10.1682
-10.174
-10.1779
-10.1797
-10.179
-10.1757
-10.1692
-10.1592
-10.145
-10.1258
-10.101
-10.0695
-10.03
-9.98127
-9.92155
-9.84892
-9.76092
-9.65477
-9.52783
-9.37202
-9.20478
-9.85118
-9.97643
-10.0136
-10.0303
-10.0577
-10.0807
-10.0985
-10.1143
-10.1286
-10.1411
-10.1519
-10.1611
-10.1686
-10.1744
-10.1782
-10.1801
-10.1796
-10.1764
-10.1703
-10.1607
-10.147
-10.1288
-10.1051
-10.0751
-10.0377
-9.99179
-9.93589
-9.86846
-9.78761
-9.69213
-9.57925
-9.45707
-9.31835
-9.85109
-9.93678
-9.99597
-10.0237
-10.0532
-10.079
-10.099
-10.1164
-10.1317
-10.145
-10.1564
-10.166
-10.1739
-10.18
-10.1841
-10.1862
-10.186
-10.1832
-10.1776
-10.1686
-10.156
-10.139
-10.1171
-10.0897
-10.056
-10.0152
-9.96653
-9.90926
-9.84313
-9.76838
-9.6884
-9.6072
-9.55176
-9.90796
-9.97805
-10.0267
-10.048
-10.071
-10.0926
-10.11
-10.1251
-10.1388
-10.1508
-10.1612
-10.1701
-10.1775
-10.1832
-10.1871
-10.1891
-10.189
-10.1865
-10.1812
-10.1729
-10.1612
-10.1455
-10.1254
-10.1003
-10.0696
-10.0329
-9.98971
-9.93975
-9.8834
-9.8218
-9.75845
-9.69841
-9.65806
-9.93792
-9.97701
-10.0168
-10.0409
-10.0651
-10.088
-10.1069
-10.1234
-10.1382
-10.1512
-10.1624
-10.1721
-10.1801
-10.1864
-10.191
-10.1936
-10.1941
-10.1924
-10.188
-10.1808
-10.1704
-10.1565
-10.1386
-10.1164
-10.0895
-10.0576
-10.0207
-9.979
-9.9333
-9.88516
-9.83838
-9.7968
-9.77259
-9.96781
-9.99884
-10.0369
-10.0613
-10.0829
-10.1032
-10.1204
-10.1353
-10.1487
-10.1605
-10.1709
-10.1798
-10.1873
-10.1932
-10.1976
-10.2002
-10.2009
-10.1995
-10.1958
-10.1895
-10.1804
-10.1682
-10.1526
-10.1334
-10.1103
-10.0834
-10.0528
-10.019
-9.98295
-9.94641
-9.91256
-9.88442
-9.86946
-9.99284
-10.013
-10.0424
-10.0635
-10.0829
-10.1021
-10.1192
-10.1344
-10.1482
-10.1605
-10.1715
-10.181
-10.1891
-10.1958
-10.2009
-10.2043
-10.2059
-10.2056
-10.2032
-10.1984
-10.1911
-10.1812
-10.1685
-10.1527
-10.134
-10.1125
-10.0884
-10.0625
-10.036
-10.0103
-9.98831
-9.97213
-9.96636
-10.0151
-10.03
-10.0557
-10.0769
-10.096
-10.1144
-10.1309
-10.1454
-10.1586
-10.1704
-10.1809
-10.1901
-10.1979
-10.2045
-10.2096
-10.2133
-10.2153
-10.2157
-10.2141
-10.2106
-10.205
-10.1972
-10.1871
-10.1748
-10.1603
-10.1439
-10.1261
-10.1077
-10.0898
-10.0739
-10.062
-10.056
-10.0585
-10.0352
-10.0459
-10.0667
-10.0852
-10.1019
-10.1185
-10.1338
-10.1478
-10.1607
-10.1725
-10.1831
-10.1926
-10.2009
-10.208
-10.2138
-10.2183
-10.2214
-10.2229
-10.2229
-10.2212
-10.2177
-10.2125
-10.2056
-10.197
-10.187
-10.176
-10.1646
-10.1535
-10.1438
-10.1369
-10.1344
-10.1378
-10.1488
-10.0535
-10.0616
-10.079
-10.0962
-10.1123
-10.1283
-10.1433
-10.1571
-10.1698
-10.1815
-10.192
-10.2016
-10.21
-10.2173
-10.2235
-10.2285
-10.2323
-10.2348
-10.2359
-10.2357
-10.2342
-10.2314
-10.2275
-10.2225
-10.2168
-10.2109
-10.2053
-10.2009
-10.1988
-10.1999
-10.2059
-10.2178
-10.237
-10.0704
-10.0767
-10.0912
-10.1064
-10.1209
-10.1354
-10.1494
-10.1624
-10.1746
-10.186
-10.1965
-10.2061
-10.2148
-10.2226
-10.2294
-10.2352
-10.24
-10.2438
-10.2465
-10.2483
-10.249
-10.2489
-10.2481
-10.2469
-10.2456
-10.2448
-10.245
-10.2471
-10.2519
-10.2607
-10.2744
-10.2943
-10.3214
-10.0863
-10.0913
-10.1035
-10.1172
-10.1307
-10.1444
-10.1579
-10.1707
-10.1829
-10.1943
-10.2049
-10.2148
-10.2238
-10.232
-10.2394
-10.246
-10.2517
-10.2567
-10.2609
-10.2643
-10.2672
-10.2697
-10.2719
-10.2743
-10.2771
-10.2809
-10.2864
-10.2943
-10.3056
-10.321
-10.3418
-10.3687
-10.4031
-10.1012
-10.1053
-10.1157
-10.1279
-10.1403
-10.153
-10.1656
-10.1778
-10.1895
-10.2006
-10.2112
-10.2211
-10.2304
-10.239
-10.247
-10.2544
-10.2612
-10.2675
-10.2732
-10.2786
-10.2837
-10.2888
-10.2941
-10.2999
-10.3068
-10.3151
-10.3256
-10.339
-10.356
-10.3776
-10.4048
-10.4382
-10.4791
-10.1154
-10.1188
-10.1277
-10.1386
-10.1501
-10.1621
-10.1742
-10.1861
-10.1976
-10.2088
-10.2195
-10.2297
-10.2394
-10.2486
-10.2573
-10.2656
-10.2735
-10.281
-10.2883
-10.2955
-10.3028
-10.3104
-10.3185
-10.3277
-10.3382
-10.3507
-10.3656
-10.3838
-10.406
-10.433
-10.4655
-10.5045
-10.5509
-10.1289
-10.1318
-10.1395
-10.1494
-10.16
-10.1712
-10.1827
-10.1941
-10.2053
-10.2163
-10.227
-10.2373
-10.2473
-10.257
-10.2663
-10.2754
-10.2843
-10.2931
-10.3019
-10.3109
-10.3202
-10.3302
-10.3412
-10.3534
-10.3674
-10.3836
-10.4027
-10.4252
-10.4519
-10.4835
-10.5208
-10.5644
-10.6154
-10.1418
-10.1443
-10.1511
-10.16
-10.1699
-10.1804
-10.1914
-10.2026
-10.2137
-10.2247
-10.2355
-10.2461
-10.2565
-10.2668
-10.2768
-10.2868
-10.2968
-10.3069
-10.3172
-10.3279
-10.3393
-10.3515
-10.365
-10.3801
-10.3971
-10.4167
-10.4393
-10.4656
-10.4961
-10.5315
-10.5726
-10.6199
-10.6743
-10.1542
-10.1564
-10.1625
-10.1706
-10.1798
-10.1897
-10.2003
-10.2111
-10.222
-10.2329
-10.2438
-10.2546
-10.2653
-10.276
-10.2867
-10.2975
-10.3085
-10.3197
-10.3314
-10.3437
-10.3569
-10.3713
-10.387
-10.4046
-10.4244
-10.4469
-10.4726
-10.5019
-10.5356
-10.5741
-10.6181
-10.6681
-10.725
-10.1661
-10.1681
-10.1735
-10.181
-10.1896
-10.1991
-10.2092
-10.2198
-10.2305
-10.2415
-10.2525
-10.2635
-10.2747
-10.2859
-10.2973
-10.309
-10.3209
-10.3333
-10.3464
-10.3602
-10.3751
-10.3913
-10.4092
-10.429
-10.4511
-10.4761
-10.5042
-10.5361
-10.5722
-10.613
-10.6591
-10.7108
-10.769
-10.1775
-10.1793
-10.1843
-10.1912
-10.1993
-10.2084
-10.2182
-10.2285
-10.2391
-10.25
-10.2611
-10.2724
-10.2839
-10.2956
-10.3076
-10.32
-10.3328
-10.3462
-10.3604
-10.3756
-10.392
-10.4098
-10.4294
-10.4511
-10.4752
-10.5021
-10.5322
-10.566
-10.6038
-10.6462
-10.6935
-10.7461
-10.8046
-10.1885
-10.1901
-10.1948
-10.2012
-10.2089
-10.2176
-10.2271
-10.2372
-10.2478
-10.2587
-10.2699
-10.2815
-10.2933
-10.3055
-10.3181
-10.3311
-10.3448
-10.3592
-10.3745
-10.3909
-10.4085
-10.4278
-10.4488
-10.472
-10.4976
-10.526
-10.5576
-10.5926
-10.6316
-10.6747
-10.7225
-10.7751
-10.8331
-10.199
-10.2006
-10.2049
-10.211
-10.2183
-10.2267
-10.236
-10.2459
-10.2564
-10.2673
-10.2787
-10.2904
-10.3026
-10.3152
-10.3283
-10.3419
-10.3563
-10.3715
-10.3877
-10.4051
-10.4238
-10.4442
-10.4664
-10.4907
-10.5174
-10.5468
-10.5793
-10.615
-10.6544
-10.6976
-10.7451
-10.7969
-10.8535
-10.2091
-10.2106
-10.2146
-10.2205
-10.2275
-10.2356
-10.2447
-10.2545
-10.2649
-10.2759
-10.2873
-10.2993
-10.3117
-10.3247
-10.3382
-10.3524
-10.3674
-10.3833
-10.4003
-10.4184
-10.438
-10.4592
-10.4822
-10.5073
-10.5347
-10.5647
-10.5975
-10.6334
-10.6726
-10.7153
-10.7618
-10.8121
-10.8667
-10.2187
-10.2201
-10.224
-10.2296
-10.2364
-10.2443
-10.2532
-10.2629
-10.2733
-10.2843
-10.2959
-10.308
-10.3207
-10.334
-10.3479
-10.3626
-10.3781
-10.3945
-10.412
-10.4308
-10.451
-10.4727
-10.4963
-10.5218
-10.5495
-10.5796
-10.6123
-10.6478
-10.6863
-10.7279
-10.7728
-10.8211
-10.8729
-10.2278
-10.2292
-10.233
-10.2383
-10.245
-10.2527
-10.2615
-10.2711
-10.2815
-10.2925
-10.3041
-10.3164
-10.3292
-10.3428
-10.357
-10.372
-10.3878
-10.4046
-10.4225
-10.4417
-10.4622
-10.4842
-10.5079
-10.5335
-10.5611
-10.5909
-10.6231
-10.6578
-10.695
-10.735
-10.7778
-10.8235
-10.8721
-10.2365
-10.2378
-10.2414
-10.2467
-10.2532
-10.2609
-10.2695
-10.2791
-10.2894
-10.3005
-10.3122
-10.3246
-10.3376
-10.3513
-10.3658
-10.3811
-10.3972
-10.4143
-10.4324
-10.4517
-10.4724
-10.4945
-10.5181
-10.5435
-10.5706
-10.5998
-10.631
-10.6644
-10.7001
-10.738
-10.7784
-10.821
-10.866
-10.2446
-10.2459
-10.2494
-10.2546
-10.261
-10.2685
-10.2771
-10.2866
-10.2969
-10.3079
-10.3197
-10.3321
-10.3452
-10.359
-10.3736
-10.3889
-10.4051
-10.4222
-10.4404
-10.4597
-10.4802
-10.502
-10.5252
-10.55
-10.5764
-10.6045
-10.6344
-10.6662
-10.6998
-10.7354
-10.7728
-10.8121
-10.8533
-10.2521
-10.2533
-10.2569
-10.262
-10.2683
-10.2759
-10.2844
-10.2939
-10.3042
-10.3153
-10.3271
-10.3396
-10.3528
-10.3667
-10.3814
-10.3968
-10.413
-10.4301
-10.4482
-10.4673
-10.4875
-10.5089
-10.5316
-10.5555
-10.5809
-10.6077
-10.6361
-10.6659
-10.6973
-10.7302
-10.7645
-10.8003
-10.8374
-10.2589
-10.2602
-10.2637
-10.2688
-10.275
-10.2825
-10.291
-10.3004
-10.3107
-10.3217
-10.3334
-10.3459
-10.359
-10.3728
-10.3873
-10.4026
-10.4187
-10.4355
-10.4533
-10.472
-10.4916
-10.5123
-10.534
-10.5569
-10.5809
-10.606
-10.6327
-10.6603
-10.6892
-10.7191
-10.7502
-10.7822
-10.8152
-10.2651
-10.2664
-10.2699
-10.2751
-10.2814
-10.2889
-10.2975
-10.307
-10.3174
-10.3285
-10.3403
-10.3528
-10.3659
-10.3797
-10.3942
-10.4093
-10.4252
-10.4418
-10.4592
-10.4773
-10.4964
-10.5163
-10.537
-10.5587
-10.5814
-10.6051
-10.6294
-10.6547
-10.6808
-10.7078
-10.7354
-10.7637
-10.7925
-10.2705
-10.2718
-10.2753
-10.2804
-10.2867
-10.2941
-10.3026
-10.312
-10.3222
-10.3332
-10.3448
-10.3572
-10.3701
-10.3837
-10.3979
-10.4127
-10.4281
-10.4443
-10.461
-10.4785
-10.4967
-10.5156
-10.5351
-10.5554
-10.5763
-10.5979
-10.6201
-10.6429
-10.6662
-10.69
-10.7142
-10.7387
-10.7634
-10.275
-10.2764
-10.2802
-10.2855
-10.2921
-10.2998
-10.3086
-10.3182
-10.3285
-10.3396
-10.3513
-10.3636
-10.3765
-10.39
-10.404
-10.4185
-10.4336
-10.4492
-10.4653
-10.4821
-10.4995
-10.5172
-10.5355
-10.5543
-10.5736
-10.5932
-10.6132
-10.6336
-10.6542
-10.6749
-10.6958
-10.7165
-10.7371
-10.2785
-10.2798
-10.2834
-10.2887
-10.2951
-10.3027
-10.3113
-10.3208
-10.331
-10.3419
-10.3535
-10.3656
-10.3783
-10.3914
-10.405
-10.4191
-10.4337
-10.4486
-10.4638
-10.4798
-10.4959
-10.5126
-10.5295
-10.5466
-10.564
-10.5815
-10.5992
-10.617
-10.6347
-10.6523
-10.6698
-10.687
-10.7038
-10.2811
-10.2829
-10.2872
-10.2932
-10.3002
-10.3084
-10.3174
-10.3273
-10.3377
-10.3487
-10.3601
-10.3722
-10.3846
-10.3975
-10.4108
-10.4245
-10.4386
-10.453
-10.4679
-10.4826
-10.4977
-10.5131
-10.5286
-10.5442
-10.5599
-10.5755
-10.5911
-10.6065
-10.6216
-10.6364
-10.6508
-10.6646
-10.6777
-10.2816
-10.2829
-10.2869
-10.2925
-10.2994
-10.3073
-10.3162
-10.3261
-10.3365
-10.3475
-10.3588
-10.3709
-10.3833
-10.3961
-10.4091
-10.4224
-10.4358
-10.4495
-10.4633
-10.4772
-10.4912
-10.5052
-10.5192
-10.5331
-10.5469
-10.5604
-10.5737
-10.5866
-10.599
-10.6109
-10.6222
-10.6328
-10.6427
-10.2826
-10.2853
-10.2912
-10.2984
-10.3064
-10.3152
-10.3246
-10.3345
-10.3449
-10.3558
-10.3672
-10.3788
-10.3906
-10.4028
-10.4153
-10.428
-10.4409
-10.4538
-10.4669
-10.4799
-10.493
-10.5059
-10.5186
-10.5312
-10.5434
-10.5553
-10.5667
-10.5776
-10.5878
-10.5974
-10.6061
-10.6139
-10.6207
-10.2776
-10.2787
-10.284
-10.2911
-10.2993
-10.3084
-10.3182
-10.3285
-10.3394
-10.3506
-10.3622
-10.374
-10.386
-10.3981
-10.4104
-10.4227
-10.4351
-10.4474
-10.4597
-10.4718
-10.4837
-10.4953
-10.5067
-10.5176
-10.528
-10.538
-10.5472
-10.5558
-10.5636
-10.5706
-10.5767
-10.5818
-10.5858
-10.2777
-10.2836
-10.2921
-10.3004
-10.3091
-10.3184
-10.3282
-10.3382
-10.3487
-10.3595
-10.3706
-10.3819
-10.3934
-10.4051
-10.4169
-10.4288
-10.4406
-10.4524
-10.4641
-10.4756
-10.4868
-10.4977
-10.5082
-10.5182
-10.5276
-10.5364
-10.5445
-10.5517
-10.5581
-10.5634
-10.5676
-10.5707
-10.5725
-10.2568
-10.2611
-10.2727
-10.2837
-10.2946
-10.306
-10.3175
-10.3289
-10.3405
-10.352
-10.3637
-10.3753
-10.387
-10.3987
-10.4103
-10.4217
-10.4331
-10.4442
-10.4551
-10.4656
-10.4757
-10.4853
-10.4944
-10.5028
-10.5106
-10.5175
-10.5236
-10.5288
-10.533
-10.5362
-10.5382
-10.5391
-10.5389
-10.2697
-10.2798
-10.2905
-10.2989
-10.3083
-10.3182
-10.3282
-10.3384
-10.349
-10.3599
-10.371
-10.3822
-10.3936
-10.405
-10.4165
-10.4279
-10.4392
-10.4503
-10.4611
-10.4716
-10.4818
-10.4914
-10.5005
-10.5089
-10.5165
-10.5234
-10.5293
-10.5342
-10.538
-10.5407
-10.542
-10.542
-10.5406
-10.1697
-10.2368
-10.2621
-10.2748
-10.2907
-10.3054
-10.3181
-10.3302
-10.342
-10.3536
-10.365
-10.3763
-10.3875
-10.3985
-10.4094
-10.4201
-10.4305
-10.4405
-10.4502
-10.4593
-10.468
-10.4759
-10.4832
-10.4897
-10.4953
-10.5
-10.5036
-10.5061
-10.5075
-10.5077
-10.5065
-10.5042
-10.5003
-8.94556
-9.71132
-10.0174
-9.79481
-8.7301
-7.33694
-6.40676
-6.65192
-8.05831
-10.3253
-13.3363
-16.9431
-20.8686
-24.8483
-28.6233
-31.946
-34.566
-36.298
-37.0225
-36.7661
-35.5478
-33.388
-30.4115
-26.9115
-23.2579
-19.732
-16.4716
-13.5337
-10.9442
-8.71145
-6.82614
-5.26348
-3.98935
-2.96591
-2.15548
-1.52291
-1.03688
-0.670582
-0.401753
-0.212522
-0.0890159
-0.0208775
-0.00146398
-0.0267986
-0.095197
-0.210698
-0.385836
-0.653138
-1.03042
-1.48676
-1.99133
-2.56668
-3.29865
-4.3051
-5.69466
-7.57669
-10.0982
-13.4846
-18.0851
-24.365
-32.7332
-42.9213
-53.4068
-62.0538
-66.9996
-67.076
-62.141
-52.8365
-40.7592
-28.4422
-18.0982
-10.4388
-5.1338
-1.84136
-0.568909
-1.34561
-3.98487
-8.39118
-13.8001
-18.9302
-22.357
-22.9075
-20.3567
-15.817
-11.0668
-7.26084
-4.61315
-2.88564
-1.79248
-1.11294
-0.690089
-0.416375
-0.232685
-0.109145
-0.0361704
0.00607053
0.0163016
0.027785
0.00882474
0.0139382
-9.33634
-9.8316
-9.78654
-9.30742
-8.57789
-7.71622
-7.07512
-7.11503
-8.13399
-10.2647
-13.3115
-16.8285
-20.4928
-24.1306
-27.5635
-30.5853
-32.9771
-34.6604
-35.4228
-35.2117
-33.9859
-31.8166
-28.9214
-25.6325
-22.2702
-19.0335
-16.0177
-13.2726
-10.83
-8.70506
-6.89469
-5.38032
-4.13387
-3.12288
-2.31414
-1.67602
-1.17992
-0.800963
-0.518267
-0.314856
-0.177445
-0.0960153
-0.0639843
-0.0776465
-0.135428
-0.241077
-0.40441
-0.653718
-1.01251
-1.45856
-1.96097
-2.53516
-3.2614
-4.26143
-5.65175
-7.54673
-10.0975
-13.5388
-18.2366
-24.6765
-33.2441
-43.574
-54.0423
-62.5216
-67.2378
-67.1643
-62.141
-52.8292
-40.8563
-28.7987
-18.8063
-11.4729
-6.38529
-3.15798
-1.80367
-2.41095
-4.80841
-8.78275
-13.5597
-18.0026
-20.9038
-21.3033
-19.0196
-14.9905
-10.7187
-7.2108
-4.69831
-3.01326
-1.92012
-1.22348
-0.778885
-0.485673
-0.286936
-0.151791
-0.0690995
-0.0182543
-0.000549194
0.0168241
0.0027664
0.0126502
-9.52204
-9.70902
-9.70553
-9.47976
-9.01103
-8.35697
-7.86203
-7.97513
-8.98756
-10.929
-13.6148
-16.794
-20.2081
-23.6095
-26.7852
-29.5661
-31.8374
-33.3311
-33.9388
-33.5491
-32.2059
-30.0572
-27.3478
-24.3599
-21.3207
-18.367
-15.5793
-13.0141
-10.7113
-8.69126
-6.95536
-5.49011
-4.2728
-3.27593
-2.47054
-1.82838
-1.32346
-0.932847
-0.637039
-0.419994
-0.26904
-0.174546
-0.130032
-0.131948
-0.178973
-0.274444
-0.426282
-0.658586
-0.998307
-1.4317
-1.92959
-2.50173
-3.22219
-4.2146
-5.60315
-7.50797
-10.0844
-13.5755
-18.3621
-24.9436
-33.6722
-44.0842
-54.469
-62.7381
-67.2067
-66.9919
-61.9001
-52.6157
-40.8042
-29.0738
-19.4881
-12.5176
-7.67963
-4.54513
-3.11256
-3.52469
-5.64728
-9.1946
-13.3976
-17.2391
-19.6847
-19.9462
-17.882
-14.2834
-10.4202
-7.17263
-4.78269
-3.1383
-2.04616
-1.3336
-0.868173
-0.555899
-0.342088
-0.195092
-0.102467
-0.0430288
-0.017919
0.00532526
-0.00372739
0.0110103
-9.63713
-9.75274
-9.76543
-9.56998
-9.20908
-8.81011
-8.61634
-8.90481
-9.85959
-11.5388
-13.8908
-16.7494
-19.864
-22.9882
-25.9137
-28.4572
-30.424
-31.6285
-31.9992
-31.4935
-30.1861
-28.2312
-25.8274
-23.1739
-20.435
-17.7315
-15.1503
-12.7546
-10.587
-8.66987
-7.0079
-5.59238
-4.40556
-3.42452
-2.62418
-1.97954
-1.46711
-1.0659
-0.757796
-0.527715
-0.36363
-0.256343
-0.199531
-0.189699
-0.225865
-0.310892
-0.451453
-0.66717
-0.986399
-1.40469
-1.89635
-2.46585
-3.18016
-4.16305
-5.54659
-7.45731
-10.0545
-13.5878
-18.4496
-25.1455
-33.9864
-44.4142
-54.6555
-62.6818
-66.8933
-66.5479
-61.4088
-52.1865
-40.5921
-29.2518
-20.1181
-13.5365
-8.97405
-5.96521
-4.47162
-4.67381
-6.49802
-9.62681
-13.3032
-16.6136
-18.664
-18.8023
-16.9174
-13.6785
-10.1625
-7.14249
-4.86456
-3.25979
-2.16994
-1.44279
-0.957499
-0.626598
-0.397688
-0.238603
-0.135763
-0.0675535
-0.0349294
-0.00578023
-0.00983995
0.0095658
-9.76188
-9.81757
-9.81145
-9.67891
-9.46441
-9.25629
-9.22366
-9.582
-10.4871
-11.9907
-14.0481
-16.53
-19.2514
-22.0105
-24.6061
-26.822
-28.4971
-29.5152
-29.8148
-29.3696
-28.2422
-26.5525
-24.4457
-22.078
-19.5959
-17.1174
-14.7299
-12.4962
-10.4587
-8.64148
-7.05249
-5.68716
-4.53208
-3.56845
-2.77483
-2.12925
-1.61068
-1.19999
-0.880463
-0.638013
-0.461276
-0.341513
-0.272615
-0.25108
-0.276262
-0.350489
-0.479819
-0.679642
-0.977555
-1.37836
-1.86148
-2.42722
-3.1348
-4.106
-5.48052
-7.39203
-10.0035
-13.5688
-18.4879
-25.2653
-34.165
-44.5429
-54.5878
-62.3433
-66.2935
-65.8229
-60.6561
-51.53
-40.2065
-29.3159
-20.6729
-14.4999
-10.2336
-7.3832
-5.85599
-5.84647
-7.35227
-10.0666
-13.2554
-16.0932
-17.8013
-17.8319
-16.0944
-13.1572
-9.93806
-7.11905
-4.94426
-3.37792
-2.29126
-1.55067
-1.04644
-0.697402
-0.453465
-0.282195
-0.169061
-0.0921028
-0.0520469
-0.0170562
-0.0160979
0.00789596
-9.86419
-9.89544
-9.89991
-9.82985
-9.71353
-9.62883
-9.71205
-10.1272
-10.9935
-12.3484
-14.1517
-16.2989
-18.6424
-21.0167
-23.2483
-25.1734
-26.6622
-27.5783
-27.8616
-27.4975
-26.5303
-25.0503
-23.1776
-21.0491
-18.7956
-16.5251
-14.3195
-12.2394
-10.3265
-8.60626
-7.08922
-5.77437
-4.65214
-3.70742
-2.92214
-2.27718
-1.75385
-1.33484
-1.00483
-0.750728
-0.561865
-0.429981
-0.34923
-0.316091
-0.330144
-0.39334
-0.511419
-0.696122
-0.972539
-1.35366
-1.82544
-2.38589
-3.08625
-4.04386
-5.40509
-7.31153
-9.92956
-13.5151
-18.4708
-25.2925
-34.194
-44.4555
-54.2544
-61.7132
-65.4044
-64.8087
-59.6331
-50.6381
-39.6394
-29.2532
-21.1317
-15.3811
-11.4265
-8.76491
-7.2386
-7.0269
-8.20248
-10.5058
-13.2406
-15.6542
-17.0627
-16.9991
-15.3849
-12.7033
-9.74068
-7.10068
-5.02137
-3.49233
-2.40966
-1.65677
-1.13454
-0.767902
-0.509056
-0.325542
-0.202037
-0.116278
-0.0687976
-0.0279976
-0.0220581
0.00634828
-9.96937
-9.99534
-10.0112
-9.98833
-9.95298
-9.97203
-10.1479
-10.6003
-11.4201
-12.6392
-14.2271
-16.1002
-18.1358
-20.1933
-22.13
-23.8141
-25.1087
-25.904
-26.1492
-25.8308
-24.9783
-23.6648
-21.9926
-20.0777
-18.0331
-15.9553
-13.9201
-11.9851
-10.1912
-8.5647
-7.11837
-5.85411
-4.76566
-3.84125
-3.06587
-2.42306
-1.89637
-1.47025
-1.13073
-0.865749
-0.665345
-0.521748
-0.429411
-0.384829
-0.387643
-0.439614
-0.54625
-0.716509
-0.971751
-1.33121
-1.78868
-2.34194
-3.03444
-3.9768
-5.3203
-7.21501
-9.83089
-13.4232
-18.3917
-25.2163
-34.0589
-44.1372
-53.6438
-60.7839
-64.2216
-63.4994
-58.3329
-49.5039
-38.8903
-29.0532
-21.4782
-16.1603
-12.5289
-10.0831
-8.59373
-8.19825
-9.04177
-10.9388
-13.2496
-15.2794
-16.4232
-16.2761
-14.7662
-12.3042
-9.56593
-7.08678
-5.09614
-3.60303
-2.52489
-1.76069
-1.22139
-0.837714
-0.564162
-0.368442
-0.2346
-0.140114
-0.0853336
-0.0388353
-0.0279679
0.00469431
-10.07
-10.0994
-10.1311
-10.1516
-10.183
-10.2788
-10.5172
-10.9878
-11.7604
-12.8602
-14.2632
-15.9012
-17.6731
-19.4604
-21.1397
-22.5901
-23.7026
-24.3885
-24.5965
-24.3101
-23.5524
-22.3834
-20.8883
-19.1647
-17.3098
-15.4091
-13.5323
-11.7336
-10.0531
-8.5172
-7.14019
-5.92644
-4.87257
-3.96976
-3.20575
-2.56661
-2.03795
-1.60594
-1.25794
-0.982898
-0.771584
-0.616726
-0.513096
-0.457266
-0.448809
-0.489425
-0.584355
-0.740706
-0.975605
-1.31181
-1.75198
-2.29566
-2.97921
-3.90483
-5.22606
-7.10164
-9.70522
-13.2888
-18.2437
-25.026
-33.7463
-43.5764
-52.7479
-59.5502
-62.7389
-61.8907
-56.7527
-48.123
-37.9619
-28.7095
-21.7011
-16.8235
-13.5244
-11.3164
-9.89814
-9.34386
-9.86333
-11.3623
-13.2754
-14.9577
-15.8658
-15.6438
-14.2232
-11.9516
-9.41122
-7.07721
-5.16872
-3.7099
-2.6366
-1.86203
-1.30655
-0.906424
-0.618418
-0.410573
-0.266463
-0.163345
-0.101364
-0.0492717
-0.0335856
0.0031596
-10.1699
-10.2085
-10.258
-10.3142
-10.3963
-10.5476
-10.8286
-11.3056
-12.0305
-13.022
-14.2601
-15.6897
-17.2276
-18.7743
-20.2234
-21.4726
-22.4294
-23.0154
-23.1837
-22.9204
-22.2432
-21.2
-19.861
-18.308
-16.6244
-14.8859
-13.1561
-11.4857
-9.91301
-8.46429
-7.15504
-5.99154
-4.97288
-4.0928
-3.34158
-2.70756
-2.17831
-1.74165
-1.38623
-1.10199
-0.88045
-0.714835
-0.600248
-0.533411
-0.513744
-0.54291
-0.625839
-0.768599
-0.984357
-1.29642
-1.71636
-2.24738
-2.92042
-3.82813
-5.12265
-6.97082
-9.55045
-13.1081
-18.021
-24.7135
-33.2469
-42.7663
-51.5625
-58.0094
-60.9519
-59.9819
-54.8924
-46.5056
-36.8541
-28.2238
-21.7948
-17.3619
-14.403
-12.4497
-11.1324
-10.4477
-10.659
-11.7733
-13.3139
-14.682
-15.3802
-15.0907
-13.7466
-11.641
-9.27553
-7.07232
-5.23949
-3.81297
-2.74458
-1.96041
-1.3896
-0.973607
-0.671453
-0.45164
-0.297424
-0.185875
-0.116879
-0.0593573
-0.0390109
0.00163738
-10.2675
-10.3172
-10.384
-10.4692
-10.59
-10.7811
-11.0884
-11.561
-12.2369
-13.1294
-14.2217
-15.4684
-16.8008
-18.1353
-19.3822
-20.4538
-21.2698
-21.7643
-21.8964
-21.6518
-21.0431
-20.1087
-18.9062
-17.5048
-15.9757
-14.3857
-12.7921
-11.2419
-9.77144
-8.4065
-7.16328
-6.04961
-5.0666
-4.21027
-3.47315
-2.84564
-2.31718
-1.87711
-1.51535
-1.22282
-0.991762
-0.815937
-0.69077
-0.613185
-0.58245
-0.600125
-0.670827
-0.800133
-0.998061
-1.28592
-1.68293
-2.19773
-2.85811
-3.74662
-5.01027
-6.8224
-9.36526
-12.8786
-17.7193
-24.2729
-32.5558
-41.7048
-50.0873
-56.1623
-58.8604
-57.7773
-52.7527
-44.6731
-35.5748
-27.6058
-21.7586
-17.7702
-15.1572
-13.4713
-12.2793
-11.4946
-11.4201
-12.1688
-13.3632
-14.4483
-14.9603
-14.6101
-13.3314
-11.3701
-9.15873
-7.07266
-5.3088
-3.91225
-2.84857
-2.05544
-1.47007
-1.0388
-0.722855
-0.491301
-0.327186
-0.20744
-0.131667
-0.0688862
-0.0441017
0.000283777
-10.3614
-10.4229
-10.5056
-10.614
-10.7632
-10.9805
-11.3011
-11.7612
-12.388
-13.1904
-14.1535
-15.2395
-16.3916
-17.5399
-18.6085
-19.5228
-20.2144
-20.6273
-20.725
-20.4936
-19.9422
-19.1016
-18.0191
-16.7525
-15.3628
-13.9083
-12.4406
-11.0028
-9.62908
-8.34441
-7.16533
-6.10088
-5.15381
-4.32211
-3.60028
-2.98062
-2.45427
-2.01203
-1.64502
-1.34513
-1.10532
-0.919876
-0.784554
-0.696516
-0.65492
-0.661117
-0.719464
-0.835335
-1.0166
-1.28109
-1.65288
-2.14776
-2.79252
-3.66006
-4.88924
-6.65683
-9.14927
-12.5984
-17.3352
-23.7013
-31.6726
-40.3952
-48.3278
-54.0149
-56.4702
-55.2852
-50.3474
-42.6412
-34.1491
-26.8701
-21.5973
-18.0461
-15.7798
-14.37
-13.3224
-12.4697
-12.1383
-12.5466
-13.4225
-14.2536
-14.6015
-14.1975
-12.9743
-11.1376
-9.0609
-7.07877
-5.37704
-4.0078
-2.94835
-2.1467
-1.54747
-1.10151
-0.77219
-0.529201
-0.355479
-0.227841
-0.145617
-0.0778133
-0.0488812
-0.000933057
-10.4517
-10.524
-10.6201
-10.746
-10.9147
-11.1477
-11.4717
-11.9131
-12.4911
-13.2107
-14.0586
-15.0032
-15.9972
-16.9821
-17.8942
-18.6703
-19.2519
-19.5913
-19.6567
-19.4349
-18.9321
-18.1727
-17.1955
-16.0487
-14.7844
-13.4535
-12.1019
-10.769
-9.48655
-8.27858
-7.16166
-6.14564
-5.23465
-4.42829
-3.72282
-3.11226
-2.5893
-2.14612
-1.77496
-1.46865
-1.22087
-1.02644
-0.881439
-0.783273
-0.731072
-0.725908
-0.771878
-0.874268
-1.03977
-1.28239
-1.6276
-2.09877
-2.72409
-3.56855
-4.76022
-6.47487
-8.90235
-12.266
-16.8672
-22.9991
-30.6023
-38.8477
-46.2966
-51.5815
-53.7964
-52.5183
-47.7149
-40.4401
-32.6115
-26.0369
-21.3212
-18.1901
-16.2633
-15.132
-14.2447
-13.3562
-12.8057
-12.9041
-13.4915
-14.0961
-14.3005
-13.8489
-12.6722
-10.9421
-8.98199
-7.09109
-5.44453
-4.09964
-3.04366
-2.23377
-1.62127
-1.16122
-0.818984
-0.564945
-0.381988
-0.246815
-0.158514
-0.0859634
-0.0532557
-0.00189246
-10.5355
-10.6173
-10.7244
-10.8629
-11.0439
-11.2844
-11.6043
-12.0226
-12.5526
-13.1962
-13.9414
-14.7614
-15.6168
-16.4586
-17.2336
-17.888
-18.3725
-18.6465
-18.6821
-18.4671
-18.0053
-17.3161
-16.4312
-15.3909
-14.2394
-13.021
-11.7763
-10.541
-9.34447
-8.20962
-7.15274
-6.18422
-5.30924
-4.52879
-3.84066
-3.24036
-2.72201
-2.27906
-1.90486
-1.5931
-1.33816
-1.1354
-0.98123
-0.873306
-0.810784
-0.794498
-0.828154
-0.917004
-1.06732
-1.28993
-1.6085
-2.05246
-2.6539
-3.47232
-4.62355
-6.27751
-8.62523
-11.8814
-16.3157
-22.1705
-29.3558
-37.0799
-44.0156
-48.8865
-50.8636
-49.5081
-44.8971
-38.1166
-31.0007
-25.1299
-20.945
-18.2064
-16.6007
-15.7413
-15.0268
-14.1366
-13.412
-13.2385
-13.5692
-13.9749
-14.0545
-13.5607
-12.4223
-10.7821
-8.92193
-7.11004
-5.51163
-4.1878
-3.13423
-2.31616
-1.69091
-1.21735
-0.86274
-0.598122
-0.40639
-0.264116
-0.170192
-0.0932246
-0.0572007
-0.00257812
-10.6137
-10.703
-10.8182
-10.9647
-11.152
-11.3932
-11.7031
-12.0953
-12.5783
-13.152
-13.8053
-14.5153
-15.2491
-15.9658
-16.6208
-17.1687
-17.5678
-17.7836
-17.7919
-17.5815
-17.1545
-16.5262
-15.7224
-14.7767
-13.7266
-12.6104
-11.4639
-10.3192
-9.20348
-8.13813
-7.13907
-6.21696
-5.37778
-4.62367
-3.95368
-3.36469
-2.85212
-2.41056
-2.03438
-1.71813
-1.45687
-1.24647
-1.08368
-0.966414
-0.893897
-0.866787
-0.888303
-0.963654
-1.09911
-1.30346
-1.59662
-2.01092
-2.58367
-3.37182
-4.47943
-6.0659
-8.31958
-11.4461
-15.6835
-21.2236
-27.9497
-35.1176
-41.5171
-45.9653
-47.7075
-46.3059
-41.9413
-35.7182
-29.3565
-24.176
-20.4869
-18.1026
-16.7875
-16.1821
-15.6481
-14.7932
-13.9423
-13.5457
-13.6539
-13.8891
-13.8616
-13.3302
-12.2221
-10.6568
-8.88073
-7.13606
-5.57863
-4.27228
-3.21975
-2.39336
-1.75579
-1.26932
-0.902919
-0.628278
-0.428322
-0.279455
-0.180434
-0.0994205
-0.0606347
-0.00288185
-10.6835
-10.7785
-10.8989
-11.0498
-11.2385
-11.4754
-11.7713
-12.1355
-12.5732
-13.0827
-13.6537
-14.2667
-14.8939
-15.5013
-16.0514
-16.5061
-16.8303
-16.9947
-16.9783
-16.7709
-16.3736
-15.7981
-15.0656
-14.2039
-13.2448
-12.2213
-11.1648
-10.1042
-9.06416
-8.0647
-7.12115
-6.24422
-5.44049
-4.71296
-4.06182
-3.4851
-2.97936
-2.54028
-2.16318
-1.8434
-1.57666
-1.35931
-1.1885
-1.06235
-0.98018
-0.942556
-0.952263
-1.01432
-1.13509
-1.32248
-1.59242
-1.97623
-2.51583
-3.26837
-4.3283
-5.84133
-7.98797
-10.9635
-14.9757
-20.1696
-26.4055
-32.9934
-38.8425
-42.8645
-44.3768
-42.9687
-38.9101
-33.3065
-27.721
-23.2029
-19.9672
-17.8909
-16.8251
-16.4428
-16.0891
-15.3063
-14.3805
-13.8182
-13.745
-13.8382
-13.7201
-13.1552
-12.07
-10.5652
-8.85852
-7.16958
-5.64584
-4.35302
-3.29987
-2.46483
-1.81526
-1.31646
-0.938944
-0.654933
-0.447402
-0.292534
-0.189027
-0.104397
-0.063508
-0.00275941
-10.746
-10.8447
-10.9678
-11.1194
-11.3056
-11.5342
-11.813
-12.148
-12.5422
-12.9926
-13.4899
-14.0171
-14.5509
-15.0628
-15.5214
-15.8949
-16.1535
-16.2726
-16.234
-16.0286
-15.6565
-15.127
-14.4572
-13.6701
-12.7927
-11.8532
-10.8792
-9.89638
-8.92707
-7.98991
-7.09949
-6.26641
-5.49759
-4.79676
-4.16501
-3.60139
-3.10348
-2.66793
-2.29091
-1.96854
-1.69714
-1.47358
-1.29534
-1.1608
-1.06935
-1.02155
-1.01988
-1.06898
-1.17525
-1.34648
-1.59565
-1.95007
-2.45338
-3.16447
-4.17128
-5.6052
-7.63373
-10.439
-14.2008
-19.023
-24.7482
-30.7452
-36.0395
-39.6393
-40.9321
-39.562
-35.8725
-30.9444
-26.1334
-22.2359
-19.4064
-17.589
-16.7233
-16.522
-16.3368
-15.6587
-14.7151
-14.0489
-13.8408
-13.8216
-13.629
-13.034
-11.9647
-10.5071
-8.85556
-7.21108
-5.71351
-4.42995
-3.37418
-2.52993
-1.86861
-1.3581
-0.970192
-0.677566
-0.463211
-0.30302
-0.19573
-0.107962
-0.0657415
-0.00209377
-10.7991
-10.8996
-11.023
-11.1727
-11.3534
-11.5708
-11.8305
-12.1363
-12.489
-12.8854
-13.3165
-13.7679
-14.2198
-14.6484
-15.0273
-15.33
-15.5314
-15.6108
-15.5525
-15.3484
-14.9981
-14.5087
-13.8941
-13.1733
-12.3691
-11.5057
-10.6071
-9.69603
-8.79273
-7.91433
-7.07461
-6.28391
-5.54935
-4.87518
-4.26324
-3.71343
-3.22423
-2.79316
-2.4172
-2.09314
-1.81792
-1.58886
-1.4038
-1.26138
-1.16107
-1.10344
-1.09083
-1.12743
-1.21951
-1.37505
-1.60548
-1.93319
-2.39935
-3.06391
-4.01102
-5.35959
-7.26086
-9.88004
-13.3704
-17.8019
-23.0059
-28.4122
-33.1572
-36.3486
-37.4415
-36.1612
-32.9047
-28.6909
-24.6266
-21.296
-18.8241
-17.2193
-16.5013
-16.4309
-16.3898
-15.8424
-14.9397
-14.2333
-13.9397
-13.8382
-13.5872
-12.9656
-11.9052
-10.4821
-8.87223
-7.26103
-5.78188
-4.50292
-3.44222
-2.58799
-1.91507
-1.39347
-0.995996
-0.695617
-0.475304
-0.310563
-0.200286
-0.109928
-0.0672687
-0.000825599
-10.8441
-10.9446
-11.0662
-11.2116
-11.3842
-11.5883
-11.8276
-12.1042
-12.4178
-12.7646
-13.1364
-13.5208
-13.9009
-14.2568
-14.5664
-14.8075
-14.9592
-15.0038
-14.9282
-14.725
-14.3935
-13.9391
-13.3731
-12.7113
-11.9728
-11.1781
-10.3484
-9.50347
-8.66161
-7.8385
-7.04701
-6.29713
-5.59604
-4.94836
-4.3565
-3.82109
-3.34138
-2.91567
-2.54166
-2.21679
-1.93855
-1.70471
-1.51344
-1.3637
-1.25496
-1.18788
-1.16474
-1.18936
-1.26769
-1.40788
-1.62085
-1.92507
-2.35602
-2.97132
-3.85229
-5.10834
-6.87442
-9.29586
-12.4999
-16.529
-21.2107
-26.0354
-30.2459
-33.0522
-33.9817
-32.8528
-30.0886
-26.5953
-23.224
-20.3974
-18.2368
-16.8062
-16.1856
-16.1931
-16.2625
-15.8609
-15.0535
-14.3692
-14.0401
-13.8875
-13.5941
-12.9495
-11.8912
-10.4904
-8.90908
-7.31994
-5.85112
-4.5717
-3.5034
-2.63822
-1.95379
-1.42174
-1.01563
-0.708482
-0.483197
-0.314785
-0.202422
-0.110079
-0.0679952
0.00118993
-10.8795
-10.9785
-11.0966
-11.2357
-11.3985
-11.588
-11.8064
-12.0546
-12.3314
-12.6329
-12.9516
-13.2767
-13.5938
-13.8863
-14.1358
-14.3235
-14.4321
-14.4466
-14.3558
-14.1534
-13.8383
-13.4147
-12.8916
-12.2823
-11.6025
-10.8701
-10.103
-9.31897
-8.53417
-7.76292
-7.01718
-6.30649
-5.63796
-5.01643
-4.44479
-3.92424
-3.4547
-3.03514
-2.66391
-2.33904
-2.05854
-1.82061
-1.62376
-1.46719
-1.35049
-1.27436
-1.24107
-1.25424
-1.31939
-1.44462
-1.64081
-1.92421
-2.32391
-2.891
-3.70193
-4.85842
-6.48172
-8.69751
-11.6078
-15.232
-19.4007
-23.6638
-27.3663
-29.8251
-30.6446
-29.7281
-27.4961
-24.6918
-21.937
-19.5477
-17.6581
-16.3744
-15.81
-15.8458
-15.9868
-15.7296
-15.0632
-14.4581
-14.1418
-13.9689
-13.6491
-12.9852
-11.9226
-10.5326
-8.96678
-7.38832
-5.92132
-4.63594
-3.55705
-2.67975
-1.98384
-1.44205
-1.02831
-0.715512
-0.486375
-0.31528
-0.201839
-0.1082
-0.0678475
0.00400026
-10.9066
-11.0026
-11.1156
-11.2471
-11.3987
-11.5726
-11.7701
-11.9907
-12.2331
-12.4933
-12.7645
-13.0371
-13.2992
-13.5364
-13.7336
-13.8751
-13.9464
-13.9348
-13.8309
-13.6292
-13.3285
-12.9319
-12.4469
-11.8842
-11.2571
-10.5808
-9.87086
-9.1427
-8.4108
-7.68808
-6.98561
-6.3124
-5.67541
-5.07959
-4.52815
-4.02279
-3.56397
-3.15124
-2.78354