/*--------------------------------*- C++ -*----------------------------------*\
  =========                 |
  \\      /  F ield         | OpenFOAM: The Open Source CFD Toolbox
   \\    /   O peration     | Website:  https://openfoam.org
    \\  /    A nd           | Version:  10
     \\/     M anipulation  |
\*---------------------------------------------------------------------------*/
FoamFile
{
    format      ascii;
    class       surfaceScalarField;
    location    "0.18";
    object      phi;
}
// * * * * * * * * * * * * * * * * * * * * * * * * * * * * * * * * * * * * * //

dimensions      [0 3 -1 0 0 0 0];

internalField   nonuniform List<scalar> 
13452
(
5.94537e-05
8.14803e-07
5.84744e-05
9.79278e-07
5.74551e-05
1.01926e-06
5.64087e-05
1.04641e-06
5.53637e-05
1.04498e-06
5.4332e-05
1.03173e-06
5.33174e-05
1.01457e-06
5.23224e-05
9.95002e-07
5.13484e-05
9.74026e-07
5.03961e-05
9.52334e-07
4.94658e-05
9.30275e-07
4.85577e-05
9.08062e-07
4.76719e-05
8.85856e-07
4.68081e-05
8.63787e-07
4.59661e-05
8.41975e-07
4.51456e-05
8.20545e-07
4.43459e-05
7.99646e-07
4.35665e-05
7.79461e-07
4.28062e-05
7.60233e-07
4.20639e-05
7.42283e-07
4.13379e-05
7.26038e-07
4.06258e-05
7.1206e-07
3.99248e-05
7.01093e-07
3.92306e-05
6.94111e-07
3.85382e-05
6.92399e-07
3.78406e-05
6.97651e-07
3.71285e-05
7.12137e-07
3.63894e-05
7.39078e-07
3.56069e-05
7.82434e-07
3.47561e-05
8.50879e-07
3.38079e-05
9.48177e-07
3.26926e-05
1.11525e-06
1.35865e-06
3.1334e-05
6.24897e-05
3.15453e-07
6.2965e-05
5.03944e-07
6.34123e-05
5.72003e-07
6.38221e-05
6.3658e-07
6.41871e-05
6.79938e-07
6.45072e-05
7.11654e-07
6.47839e-05
7.37875e-07
6.50197e-05
7.59248e-07
6.52173e-05
7.76441e-07
6.53794e-05
7.90204e-07
6.55087e-05
8.01016e-07
6.56075e-05
8.09246e-07
6.56781e-05
8.15225e-07
6.57226e-05
8.19263e-07
6.57429e-05
8.21655e-07
6.57408e-05
8.22708e-07
6.57177e-05
8.22754e-07
6.5675e-05
8.22172e-07
6.56138e-05
8.21414e-07
6.5535e-05
8.21033e-07
6.54393e-05
8.21727e-07
6.5327e-05
8.24374e-07
6.5198e-05
8.30106e-07
6.50517e-05
8.40376e-07
6.48871e-05
8.57081e-07
6.4702e-05
8.82686e-07
6.44936e-05
9.20557e-07
6.42576e-05
9.75054e-07
6.39872e-05
1.05283e-06
6.36761e-05
1.16206e-06
6.33065e-05
1.31778e-06
6.28844e-05
1.53731e-06
1.84334e-06
6.23997e-05
6.38348e-05
2.42014e-07
6.39115e-05
4.27311e-07
6.39821e-05
5.01401e-07
6.40558e-05
5.62818e-07
6.41319e-05
6.03914e-07
6.42121e-05
6.31411e-07
6.42974e-05
6.52555e-07
6.43877e-05
6.68978e-07
6.44825e-05
6.81637e-07
6.45812e-05
6.91486e-07
6.46831e-05
6.99139e-07
6.47873e-05
7.05028e-07
6.4893e-05
7.09511e-07
6.49994e-05
7.12907e-07
6.51055e-05
7.15509e-07
6.52106e-05
7.17609e-07
6.53139e-05
7.19524e-07
6.54144e-05
7.21617e-07
6.55115e-05
7.24317e-07
6.56044e-05
7.28154e-07
6.56923e-05
7.33789e-07
6.57746e-05
7.42058e-07
6.58507e-05
7.54024e-07
6.59201e-05
7.71047e-07
6.59823e-05
7.94879e-07
6.60372e-05
8.27768e-07
6.6085e-05
8.72687e-07
6.61267e-05
9.33432e-07
6.61642e-05
1.01529e-06
6.62017e-05
1.12459e-06
6.62489e-05
1.27056e-06
6.63238e-05
1.46239e-06
1.70006e-06
6.64671e-05
6.56409e-05
1.84204e-07
6.5694e-05
3.74216e-07
6.5732e-05
4.63421e-07
6.57633e-05
5.31437e-07
6.5789e-05
5.78269e-07
6.58108e-05
6.09578e-07
6.58303e-05
6.33052e-07
6.58483e-05
6.51044e-07
6.58652e-05
6.64694e-07
6.58816e-05
6.751e-07
6.58977e-05
6.83025e-07
6.59137e-05
6.89004e-07
6.59297e-05
6.93488e-07
6.59458e-05
6.96876e-07
6.59617e-05
6.99538e-07
6.59775e-05
7.01844e-07
6.59929e-05
7.04183e-07
6.60075e-05
7.06986e-07
6.6021e-05
7.10755e-07
6.60331e-05
7.16081e-07
6.60432e-05
7.23687e-07
6.60508e-05
7.3445e-07
6.60554e-05
7.4946e-07
6.60564e-05
7.70063e-07
6.60533e-05
7.97939e-07
6.60459e-05
8.35174e-07
6.60342e-05
8.84373e-07
6.60189e-05
9.48751e-07
6.6002e-05
1.03218e-06
6.59872e-05
1.13942e-06
6.59836e-05
1.27419e-06
6.60027e-05
1.44325e-06
1.63128e-06
6.60715e-05
6.74908e-05
1.50203e-07
6.75328e-05
3.32246e-07
6.75687e-05
4.27442e-07
6.76026e-05
4.97572e-07
6.76328e-05
5.48033e-07
6.76593e-05
5.83068e-07
6.76829e-05
6.09481e-07
6.7704e-05
6.29947e-07
6.7723e-05
6.45734e-07
6.77401e-05
6.58016e-07
6.77554e-05
6.67651e-07
6.77692e-05
6.75251e-07
6.77813e-05
6.81325e-07
6.77919e-05
6.86328e-07
6.78008e-05
6.90681e-07
6.78078e-05
6.94803e-07
6.78128e-05
6.99136e-07
6.78157e-05
7.04165e-07
6.7816e-05
7.1044e-07
6.78134e-05
7.18608e-07
6.78077e-05
7.29436e-07
6.77983e-05
7.4384e-07
6.77848e-05
7.62931e-07
6.77669e-05
7.88052e-07
6.7744e-05
8.20817e-07
6.7716e-05
8.63164e-07
6.7683e-05
9.17389e-07
6.76455e-05
9.86179e-07
6.76053e-05
1.07241e-06
6.75654e-05
1.17931e-06
6.75313e-05
1.30827e-06
6.75124e-05
1.46223e-06
1.62746e-06
6.75162e-05
6.9412e-05
1.22248e-07
6.94516e-05
2.92624e-07
6.94864e-05
3.92608e-07
6.95182e-05
4.65858e-07
6.95463e-05
5.19898e-07
6.95711e-05
5.58297e-07
6.95934e-05
5.87159e-07
6.96138e-05
6.09545e-07
6.96326e-05
6.26946e-07
6.965e-05
6.40625e-07
6.96661e-05
6.51535e-07
6.9681e-05
6.60365e-07
6.96946e-05
6.67682e-07
6.97069e-05
6.73991e-07
6.97179e-05
6.7976e-07
6.97272e-05
6.85451e-07
6.97348e-05
6.91544e-07
6.97404e-05
6.98565e-07
6.97437e-05
7.07101e-07
6.97445e-05
7.17829e-07
6.97424e-05
7.3155e-07
6.97371e-05
7.49179e-07
6.97282e-05
7.7181e-07
6.97155e-05
8.00733e-07
6.96989e-05
8.37454e-07
6.96783e-05
8.83711e-07
6.96543e-05
9.41456e-07
6.96276e-05
1.01284e-06
6.96001e-05
1.09992e-06
6.95747e-05
1.20475e-06
6.95554e-05
1.32749e-06
6.95487e-05
1.46897e-06
1.6192e-06
6.9557e-05
7.13852e-05
1.03334e-07
7.14161e-05
2.61817e-07
7.14455e-05
3.6312e-07
7.14742e-05
4.37213e-07
7.15013e-05
4.92799e-07
7.15263e-05
5.33315e-07
7.15494e-05
5.64031e-07
7.15709e-05
5.88049e-07
7.15909e-05
6.06948e-07
7.16095e-05
6.21996e-07
7.16269e-05
6.34185e-07
7.1643e-05
6.44257e-07
7.16578e-05
6.52821e-07
7.16714e-05
6.6042e-07
7.16836e-05
6.67561e-07
7.16943e-05
6.74742e-07
7.17034e-05
6.82477e-07
7.17106e-05
6.91318e-07
7.17159e-05
7.01877e-07
7.17188e-05
7.14841e-07
7.17194e-05
7.30992e-07
7.17173e-05
7.51273e-07
7.17124e-05
7.76721e-07
7.17046e-05
8.08534e-07
7.1694e-05
8.48063e-07
7.16809e-05
8.96809e-07
7.1666e-05
9.56373e-07
7.16504e-05
1.0284e-06
7.16361e-05
1.11428e-06
7.16256e-05
1.21521e-06
7.16223e-05
1.3308e-06
7.16304e-05
1.46085e-06
1.5985e-06
7.16511e-05
7.34197e-05
8.88723e-08
7.34469e-05
2.3463e-07
7.34752e-05
3.34817e-07
7.35032e-05
4.09216e-07
7.35298e-05
4.66179e-07
7.35544e-05
5.08802e-07
7.35769e-05
5.41441e-07
7.35979e-05
5.67096e-07
7.36174e-05
5.87438e-07
7.36356e-05
6.03771e-07
7.36527e-05
6.17137e-07
7.36686e-05
6.28331e-07
7.36834e-05
6.38009e-07
7.36971e-05
6.46753e-07
7.37095e-05
6.55102e-07
7.37207e-05
6.63584e-07
7.37304e-05
6.72736e-07
7.37386e-05
6.83129e-07
7.37451e-05
6.95386e-07
7.37498e-05
7.10197e-07
7.37524e-05
7.28332e-07
7.3753e-05
7.50683e-07
7.37515e-05
7.78219e-07
7.3748e-05
8.12024e-07
7.37428e-05
8.53281e-07
7.37364e-05
9.03249e-07
7.37295e-05
9.63196e-07
7.37236e-05
1.03433e-06
7.37203e-05
1.11756e-06
7.37221e-05
1.21347e-06
7.37314e-05
1.32151e-06
7.37511e-05
1.44107e-06
1.56753e-06
7.37821e-05
7.55133e-05
7.8033e-08
7.55357e-05
2.12243e-07
7.55603e-05
3.1021e-07
7.55853e-05
3.84216e-07
7.56099e-05
4.41625e-07
7.56332e-05
4.85412e-07
7.56554e-05
5.19281e-07
7.56764e-05
5.46084e-07
7.56963e-05
5.67532e-07
7.57152e-05
5.84924e-07
7.5733e-05
5.99309e-07
7.57498e-05
6.11509e-07
7.57656e-05
6.22203e-07
7.57804e-05
6.31994e-07
7.5794e-05
6.41443e-07
7.58065e-05
6.51093e-07
7.58178e-05
6.61494e-07
7.58277e-05
6.73221e-07
7.58362e-05
6.86896e-07
7.58432e-05
7.03202e-07
7.58486e-05
7.22892e-07
7.58525e-05
7.46753e-07
7.58551e-05
7.75683e-07
7.58565e-05
8.10643e-07
7.58571e-05
8.5264e-07
7.58577e-05
9.02697e-07
7.58591e-05
9.61787e-07
7.58626e-05
1.03076e-06
7.587e-05
1.11017e-06
7.58833e-05
1.20022e-06
7.59045e-05
1.30034e-06
7.59357e-05
1.40984e-06
1.52559e-06
7.59776e-05
7.7668e-05
6.95833e-08
7.76872e-05
1.93053e-07
7.77099e-05
2.87531e-07
7.77338e-05
3.60319e-07
7.77578e-05
4.17604e-07
7.7781e-05
4.62177e-07
7.78032e-05
4.97119e-07
7.78243e-05
5.25011e-07
7.78443e-05
5.47526e-07
7.78633e-05
5.65934e-07
7.78813e-05
5.81282e-07
7.78984e-05
5.94411e-07
7.79146e-05
6.0602e-07
7.79298e-05
6.16732e-07
7.79442e-05
6.27123e-07
7.79575e-05
6.37749e-07
7.79698e-05
6.49165e-07
7.79811e-05
6.61946e-07
7.79913e-05
6.76699e-07
7.80004e-05
6.94073e-07
7.80086e-05
7.14761e-07
7.80158e-05
7.39501e-07
7.80224e-05
7.69091e-07
7.80287e-05
8.04354e-07
7.80352e-05
8.46123e-07
7.80427e-05
8.95202e-07
7.80522e-05
9.52308e-07
7.8065e-05
1.01801e-06
7.80825e-05
1.09259e-06
7.81067e-05
1.17604e-06
7.81392e-05
1.2678e-06
7.81818e-05
1.36726e-06
1.47213e-06
7.82353e-05
7.98851e-05
6.28434e-08
7.99014e-05
1.76713e-07
7.99217e-05
2.67249e-07
7.99435e-05
3.38461e-07
7.99659e-05
3.95251e-07
7.99879e-05
4.40142e-07
8.00093e-05
4.75726e-07
8.003e-05
5.04329e-07
8.00499e-05
5.27582e-07
8.00691e-05
5.46732e-07
8.00876e-05
5.62812e-07
8.01054e-05
5.76667e-07
8.01224e-05
5.89004e-07
8.01387e-05
6.00453e-07
8.01542e-05
6.11593e-07
8.0169e-05
6.22981e-07
8.0183e-05
6.35165e-07
8.01962e-05
6.48707e-07
8.02087e-05
6.64188e-07
8.02206e-05
6.82213e-07
8.02319e-05
7.03414e-07
8.0243e-05
7.2845e-07
8.0254e-05
7.5801e-07
8.02656e-05
7.92784e-07
8.02783e-05
8.3344e-07
8.02929e-05
8.80588e-07
8.03105e-05
9.34729e-07
8.03323e-05
9.96204e-07
8.03598e-05
1.06512e-06
8.03945e-05
1.14131e-06
8.04381e-05
1.22424e-06
8.04919e-05
1.31337e-06
1.40692e-06
8.05572e-05
8.2166e-05
5.73233e-08
8.21801e-05
1.62588e-07
8.21985e-05
2.48798e-07
8.22191e-05
3.17916e-07
8.22406e-05
3.73724e-07
8.22623e-05
4.18477e-07
8.22836e-05
4.54375e-07
8.23045e-05
4.83477e-07
8.23247e-05
5.0732e-07
8.23444e-05
5.27101e-07
8.23634e-05
5.43818e-07
8.23817e-05
5.583e-07
8.23995e-05
5.71252e-07
8.24166e-05
5.83302e-07
8.24332e-05
5.95025e-07
8.24492e-05
6.06969e-07
8.24647e-05
6.19671e-07
8.24798e-05
6.33666e-07
8.24944e-05
6.49499e-07
8.25089e-05
6.67727e-07
8.25234e-05
6.88918e-07
8.25382e-05
7.13648e-07
8.25537e-05
7.42499e-07
8.25705e-05
7.76032e-07
8.25892e-05
8.14761e-07
8.26106e-05
8.59123e-07
8.26359e-05
9.09438e-07
8.26663e-05
9.65872e-07
8.2703e-05
1.02838e-06
8.27476e-05
1.09672e-06
8.28015e-05
1.17036e-06
8.2866e-05
1.24879e-06
1.33053e-06
8.29424e-05
8.45124e-05
5.2687e-08
8.45247e-05
1.50265e-07
8.45415e-05
2.32055e-07
8.45606e-05
2.98817e-07
8.45809e-05
3.53379e-07
8.46017e-05
3.97694e-07
8.46225e-05
4.33625e-07
8.4643e-05
4.62973e-07
8.46631e-05
4.87169e-07
8.46829e-05
5.07353e-07
8.47022e-05
5.24488e-07
8.47211e-05
5.39384e-07
8.47396e-05
5.52738e-07
8.47578e-05
5.65165e-07
8.47755e-05
5.77233e-07
8.4793e-05
5.89472e-07
8.48103e-05
6.02395e-07
8.48275e-05
6.16506e-07
8.48447e-05
6.32307e-07
8.48621e-05
6.50298e-07
8.488e-05
6.70977e-07
8.48989e-05
6.94836e-07
8.4919e-05
7.22349e-07
8.49411e-05
7.53953e-07
8.49658e-05
7.90025e-07
8.49941e-05
8.30851e-07
8.50269e-05
8.76602e-07
8.50655e-05
9.27304e-07
8.51111e-05
9.82805e-07
8.5165e-05
1.04279e-06
8.52287e-05
1.1067e-06
8.53034e-05
1.17406e-06
1.24354e-06
8.53904e-05
8.69261e-05
4.87036e-08
8.6937e-05
1.39378e-07
8.69523e-05
2.16744e-07
8.69703e-05
2.80889e-07
8.69898e-05
3.33889e-07
8.701e-05
3.77413e-07
8.70306e-05
4.13053e-07
8.70512e-05
4.42381e-07
8.70717e-05
4.66711e-07
8.70919e-05
4.87117e-07
8.71119e-05
5.04508e-07
8.71316e-05
5.19666e-07
8.71511e-05
5.33263e-07
8.71703e-05
5.45897e-07
8.71895e-05
5.58113e-07
8.72085e-05
5.70417e-07
8.72276e-05
5.83294e-07
8.72469e-05
5.97208e-07
8.72666e-05
6.12613e-07
8.7287e-05
6.29951e-07
8.73083e-05
6.49649e-07
8.7331e-05
6.72114e-07
8.73556e-05
6.97717e-07
8.73828e-05
7.26781e-07
8.74133e-05
7.5956e-07
8.74479e-05
7.96213e-07
8.74877e-05
8.36787e-07
8.75338e-05
8.81197e-07
8.75874e-05
9.29205e-07
8.76498e-05
9.80434e-07
8.77222e-05
1.03433e-06
8.78058e-05
1.09038e-06
1.14738e-06
8.7902e-05
8.9409e-05
4.52094e-08
8.94188e-05
1.29642e-07
8.94328e-05
2.02665e-07
8.94497e-05
2.64038e-07
8.94683e-05
3.15272e-07
8.9488e-05
3.57766e-07
8.95081e-05
3.92878e-07
8.95285e-05
4.2197e-07
8.9549e-05
4.46232e-07
8.95695e-05
4.66661e-07
8.95899e-05
4.84115e-07
8.96102e-05
4.99336e-07
8.96305e-05
5.12969e-07
8.96508e-05
5.25586e-07
8.96712e-05
5.37706e-07
8.96918e-05
5.49807e-07
8.97128e-05
5.62338e-07
8.97343e-05
5.75721e-07
8.97565e-05
5.90359e-07
8.97798e-05
6.06634e-07
8.98046e-05
6.24899e-07
8.98312e-05
6.45477e-07
8.98603e-05
6.68646e-07
8.98925e-05
6.94627e-07
8.99284e-05
7.23564e-07
8.99692e-05
7.55511e-07
9.00155e-05
7.90413e-07
9.00686e-05
8.28096e-07
9.01296e-05
8.68257e-07
9.01995e-05
9.10472e-07
9.02797e-05
9.54169e-07
9.03713e-05
9.98811e-07
1.04326e-06
9.04754e-05
9.1963e-05
4.20866e-08
9.19718e-05
1.20822e-07
9.19848e-05
1.89619e-07
9.20008e-05
2.48107e-07
9.20187e-05
2.97376e-07
9.20378e-05
3.38592e-07
9.20578e-05
3.72912e-07
9.20783e-05
4.01521e-07
9.2099e-05
4.25488e-07
9.21199e-05
4.45732e-07
9.2141e-05
4.63053e-07
9.21622e-05
4.78148e-07
9.21835e-05
4.91626e-07
9.22051e-05
5.04027e-07
9.2227e-05
5.15837e-07
9.22493e-05
5.27499e-07
9.22722e-05
5.3942e-07
9.22959e-05
5.51977e-07
9.23208e-05
5.6552e-07
9.2347e-05
5.80368e-07
9.23751e-05
5.96804e-07
9.24055e-05
6.15074e-07
9.24388e-05
6.3537e-07
9.24756e-05
6.5782e-07
9.25167e-05
6.82479e-07
9.25629e-05
7.09312e-07
9.26151e-05
7.38183e-07
9.26744e-05
7.68851e-07
9.27417e-05
8.00959e-07
9.28181e-05
8.34055e-07
9.29047e-05
8.67553e-07
9.30026e-05
9.00896e-07
9.33044e-07
9.31128e-05
9.459e-05
3.92486e-08
9.45981e-05
1.12733e-07
9.46103e-05
1.77435e-07
9.46254e-05
2.32966e-07
9.46427e-05
2.80122e-07
9.46614e-05
3.19865e-07
9.46811e-05
3.53187e-07
9.47015e-05
3.81112e-07
9.47224e-05
4.04593e-07
9.47437e-05
4.24468e-07
9.47653e-05
4.41473e-07
9.47872e-05
4.56255e-07
9.48094e-05
4.69383e-07
9.48321e-05
4.8136e-07
9.48553e-05
4.92633e-07
9.48792e-05
5.03608e-07
9.49039e-05
5.14649e-07
9.49298e-05
5.26085e-07
9.49571e-05
5.38213e-07
9.49862e-05
5.51292e-07
9.50175e-05
5.65539e-07
9.50514e-05
5.81127e-07
9.50886e-05
5.98171e-07
9.51297e-05
6.16725e-07
9.51754e-05
6.36764e-07
9.52266e-05
6.58183e-07
9.5284e-05
6.80785e-07
9.53485e-05
7.04277e-07
9.54212e-05
7.2827e-07
9.5503e-05
7.52288e-07
9.55948e-05
7.75744e-07
9.56976e-05
7.98067e-07
8.18311e-07
9.58124e-05
9.72921e-05
3.66299e-08
9.72996e-05
1.05221e-07
9.73111e-05
1.65956e-07
9.73256e-05
2.18484e-07
9.73423e-05
2.63397e-07
9.73607e-05
3.0149e-07
9.73803e-05
3.3361e-07
9.74008e-05
3.60643e-07
9.74219e-05
3.83434e-07
9.74436e-05
4.0274e-07
9.74659e-05
4.19234e-07
9.74886e-05
4.33512e-07
9.75119e-05
4.46096e-07
9.75358e-05
4.57447e-07
9.75605e-05
4.67974e-07
9.75861e-05
4.78039e-07
9.76127e-05
4.87961e-07
9.76408e-05
4.98023e-07
9.76705e-05
5.08466e-07
9.77023e-05
5.19492e-07
9.77366e-05
5.31259e-07
9.77739e-05
5.43872e-07
9.78147e-05
5.57385e-07
9.78596e-05
5.71781e-07
9.79094e-05
5.86979e-07
9.79648e-05
6.02817e-07
9.80265e-05
6.19051e-07
9.80954e-05
6.35358e-07
9.81724e-05
6.51328e-07
9.82582e-05
6.66478e-07
9.83537e-05
6.80236e-07
9.84597e-05
6.92034e-07
7.01046e-07
9.8577e-05
0.000100072
3.41798e-08
0.000100079
9.81619e-08
0.00010009
1.55045e-07
0.000100103
2.04543e-07
0.00010012
2.47108e-07
0.000100138
2.834e-07
0.000100157
3.14144e-07
0.000100178
3.40106e-07
0.000100199
3.62031e-07
0.000100221
3.80595e-07
0.000100244
3.96408e-07
0.000100268
4.10008e-07
0.000100292
4.21871e-07
0.000100317
4.32413e-07
0.000100343
4.41999e-07
0.00010037
4.50948e-07
0.000100398
4.59535e-07
0.000100428
4.67993e-07
0.00010046
4.76515e-07
0.000100495
4.85248e-07
0.000100532
4.94296e-07
0.000100572
5.0371e-07
0.000100616
5.13485e-07
0.000100664
5.23555e-07
0.000100717
5.3379e-07
0.000100776
5.43988e-07
0.000100841
5.53879e-07
0.000100913
5.63118e-07
0.000100993
5.7129e-07
0.000101082
5.77924e-07
0.00010118
5.82476e-07
0.000101287
5.84395e-07
5.82968e-07
0.000101405
0.00010293
3.18578e-08
0.000102937
9.14516e-08
0.000102948
1.4458e-07
0.000102961
1.91029e-07
0.000102977
2.31157e-07
0.000102995
2.65516e-07
0.000103014
2.94725e-07
0.000103035
3.19447e-07
0.000103057
3.40333e-07
0.000103079
3.57984e-07
0.000103103
3.72944e-07
0.000103127
3.85697e-07
0.000103152
3.96667e-07
0.000103178
4.06226e-07
0.000103206
4.14695e-07
0.000103234
4.22347e-07
0.000103264
4.29414e-07
0.000103296
4.36083e-07
0.00010333
4.425e-07
0.000103367
4.48764e-07
0.000103406
4.54931e-07
0.000103449
4.61003e-07
0.000103496
4.66932e-07
0.000103546
4.72613e-07
0.000103602
4.7788e-07
0.000103664
4.82508e-07
0.000103732
4.86207e-07
0.000103806
4.88631e-07
0.000103888
4.89378e-07
0.000103978
4.87998e-07
0.000104076
4.8399e-07
0.000104184
4.76837e-07
4.65944e-07
0.000104301
0.000105871
2.96309e-08
0.000105877
8.50033e-08
0.000105888
1.34455e-07
0.000105901
1.7784e-07
0.000105916
2.15455e-07
0.000105934
2.47765e-07
0.000105954
2.753e-07
0.000105974
2.98633e-07
0.000105996
3.18329e-07
0.000106019
3.34917e-07
0.000106044
3.48875e-07
0.000106069
3.60633e-07
0.000106095
3.70565e-07
0.000106122
3.78995e-07
0.00010615
3.86199e-07
0.00010618
3.92408e-07
0.000106212
3.9781e-07
0.000106246
4.02549e-07
0.000106281
4.06728e-07
0.00010632
4.10406e-07
0.000106361
4.13596e-07
0.000106406
4.16263e-07
0.000106454
4.18324e-07
0.000106507
4.19646e-07
0.000106565
4.20041e-07
0.000106628
4.19271e-07
0.000106698
4.17044e-07
0.000106773
4.13027e-07
0.000106856
4.06838e-07
0.000106946
3.98063e-07
0.000107043
3.86249e-07
0.000107149
3.7093e-07
3.51625e-07
0.000107264
0.000108896
2.74717e-08
0.000108902
7.87433e-08
0.000108912
1.24575e-07
0.000108925
1.6488e-07
0.00010894
1.99916e-07
0.000108958
2.30078e-07
0.000108977
2.5582e-07
0.000108998
2.77632e-07
0.000109021
2.96003e-07
0.000109044
3.11391e-07
0.000109069
3.24216e-07
0.000109095
3.34849e-07
0.000109122
3.43614e-07
0.00010915
3.50791e-07
0.000109179
3.5661e-07
0.000109211
3.61263e-07
0.000109243
3.64894e-07
0.000109278
3.67611e-07
0.000109316
3.69478e-07
0.000109356
3.70518e-07
0.000109398
3.70709e-07
0.000109445
3.6999e-07
0.000109495
3.68252e-07
0.000109549
3.65343e-07
0.000109608
3.61065e-07
0.000109672
3.55179e-07
0.000109742
3.47406e-07
0.000109817
3.3743e-07
0.000109899
3.24904e-07
0.000109988
3.09454e-07
0.000110083
2.90686e-07
0.000110186
2.68193e-07
2.4161e-07
0.000110296
0.000112007
2.53567e-08
0.000112013
7.26075e-08
0.000112022
1.14853e-07
0.000112035
1.5206e-07
0.000112051
1.84458e-07
0.000112068
2.12382e-07
0.000112088
2.36224e-07
0.000112109
2.564e-07
0.000112132
2.73328e-07
0.000112156
2.87402e-07
0.000112181
2.9898e-07
0.000112208
3.08381e-07
0.000112235
3.15881e-07
0.000112264
3.21712e-07
0.000112295
3.26065e-07
0.000112327
3.29088e-07
0.000112361
3.30893e-07
0.000112397
3.31549e-07
0.000112436
3.31089e-07
0.000112477
3.29505e-07
0.000112521
3.26752e-07
0.000112568
3.22745e-07
0.000112619
3.17361e-07
0.000112674
3.10438e-07
0.000112733
3.0178e-07
0.000112797
2.91158e-07
0.000112866
2.78311e-07
0.000112941
2.62952e-07
0.000113021
2.44771e-07
0.000113107
2.23447e-07
0.000113199
1.98651e-07
0.000113297
1.70037e-07
1.37357e-07
0.000113401
0.000115207
2.32655e-08
0.000115213
6.65402e-08
0.000115222
1.05216e-07
0.000115235
1.39303e-07
0.00011525
1.6901e-07
0.000115268
1.94626e-07
0.000115288
2.16483e-07
0.000115309
2.34933e-07
0.000115332
2.50327e-07
0.000115357
2.62998e-07
0.000115383
2.73246e-07
0.00011541
2.81339e-07
0.000115438
2.87505e-07
0.000115468
2.91932e-07
0.000115499
2.94772e-07
0.000115532
2.96138e-07
0.000115567
2.96105e-07
0.000115604
2.94714e-07
0.000115643
2.9197e-07
0.000115684
2.87843e-07
0.000115729
2.82268e-07
0.000115776
2.75146e-07
0.000115828
2.66348e-07
0.000115882
2.55714e-07
0.000115941
2.43055e-07
0.000116004
2.28157e-07
0.000116071
2.10789e-07
0.000116144
1.90695e-07
0.000116221
1.6761e-07
0.000116303
1.41267e-07
0.00011639
1.11398e-07
0.000116483
7.77248e-08
4.01018e-08
0.00011658
0.000118498
2.11788e-08
0.000118504
6.04879e-08
0.000118514
9.55863e-08
0.000118526
1.26521e-07
0.000118542
1.53484e-07
0.00011856
1.76723e-07
0.00011858
1.96518e-07
0.000118602
2.13162e-07
0.000118625
2.26945e-07
0.00011865
2.38141e-07
0.000118676
2.46997e-07
0.000118704
2.5373e-07
0.000118733
2.58523e-07
0.000118763
2.61524e-07
0.000118795
2.62847e-07
0.000118829
2.62571e-07
0.000118864
2.60742e-07
0.000118901
2.57375e-07
0.000118941
2.52455e-07
0.000118983
2.45932e-07
0.000119027
2.37729e-07
0.000119075
2.27742e-07
0.000119125
2.15842e-07
0.000119179
2.01877e-07
0.000119236
1.85669e-07
0.000119297
1.67029e-07
0.000119363
1.45762e-07
0.000119432
1.21645e-07
0.000119505
9.446e-08
0.000119582
6.4e-08
0.000119663
3.00672e-08
0.000119749
-7.56736e-09
-4.895e-08
0.000119838
0.000121883
1.90811e-08
0.000121889
5.44078e-08
0.000121899
8.59087e-08
0.000121912
1.13662e-07
0.000121928
1.37843e-07
0.000121946
1.58662e-07
0.000121966
1.7635e-07
0.000121988
1.91144e-07
0.000122012
2.03276e-07
0.000122037
2.12963e-07
0.000122063
2.20402e-07
0.000122091
2.25761e-07
0.000122121
2.29181e-07
0.000122151
2.30772e-07
0.000122184
2.30614e-07
0.000122217
2.28757e-07
0.000122253
2.25221e-07
0.00012229
2.2e-07
0.00012233
2.13062e-07
0.000122371
2.04349e-07
0.000122415
1.93775e-07
0.000122462
1.81234e-07
0.000122511
1.66607e-07
0.000122563
1.49753e-07
0.000122618
1.30505e-07
0.000122677
1.08705e-07
0.000122738
8.42076e-08
0.000122803
5.68175e-08
0.000122871
2.6354e-08
0.000122942
-7.32075e-09
0.000123017
-4.43578e-08
0.000123094
-8.49188e-08
-1.28976e-07
0.000123174
0.000125366
1.69497e-08
0.000125372
4.82372e-08
0.000125382
7.60859e-08
0.000125395
1.00602e-07
0.000125411
1.21943e-07
0.000125429
1.40288e-07
0.000125449
1.55819e-07
0.000125472
1.68722e-07
0.000125496
1.79172e-07
0.000125522
1.87335e-07
0.000125549
1.93356e-07
0.000125577
1.97358e-07
0.000125607
1.99442e-07
0.000125638
1.99683e-07
0.00012567
1.98129e-07
0.000125704
1.94803e-07
0.00012574
1.89704e-07
0.000125777
1.8281e-07
0.000125816
1.74077e-07
0.000125857
1.63442e-07
0.0001259
1.50818e-07
0.000125945
1.36098e-07
0.000125992
1.19181e-07
0.000126042
9.99448e-08
0.000126095
7.82226e-08
0.000126149
5.38738e-08
0.000126207
2.68965e-08
0.000126266
-2.98187e-09
0.000126329
-3.58906e-08
0.000126393
-7.18655e-08
0.00012646
-1.11015e-07
0.000126528
-1.53437e-07
-1.9904e-07
0.000126598
0.000128947
1.478e-08
0.000128954
4.19593e-08
0.000128964
6.61095e-08
0.000128977
8.73594e-08
0.000128993
1.05846e-07
0.000129011
1.21707e-07
0.000129032
1.3508e-07
0.000129055
1.46096e-07
0.000129079
1.54877e-07
0.000129105
1.61536e-07
0.000129132
1.66171e-07
0.000129161
1.68865e-07
0.00012919
1.6968e-07
0.000129221
1.6866e-07
0.000129254
1.65826e-07
0.000129287
1.61178e-07
0.000129322
1.54698e-07
0.000129359
1.4635e-07
0.000129397
1.36088e-07
0.000129436
1.23848e-07
0.000129478
1.09539e-07
0.000129521
9.30552e-08
0.000129566
7.43266e-08
0.000129612
5.32535e-08
0.000129661
2.96819e-08
0.000129711
3.26864e-09
0.000129764
-2.52962e-08
0.000129817
-5.69316e-08
0.000129873
-9.14087e-08
0.00012993
-1.28801e-07
0.000129988
-1.69151e-07
0.000130047
-2.12514e-07
-2.5875e-07
0.000130107
0.000132631
1.25152e-08
0.000132638
3.54337e-08
0.000132648
5.57584e-08
0.000132662
7.36454e-08
0.000132679
8.92076e-08
0.000132698
1.02544e-07
0.000132719
1.13746e-07
0.000132742
1.22889e-07
0.000132767
1.30038e-07
0.000132793
1.35252e-07
0.000132821
1.38582e-07
0.00013285
1.40069e-07
0.00013288
1.39741e-07
0.000132911
1.37609e-07
0.000132943
1.33673e-07
0.000132976
1.27913e-07
0.000133011
1.20292e-07
0.000133046
1.10767e-07
0.000133083
9.92937e-08
0.000133121
8.58208e-08
0.00013316
7.02433e-08
0.000133201
5.2458e-08
0.000133243
3.24279e-08
0.000133286
1.0186e-08
0.00013333
-1.47735e-08
0.000133376
-4.21518e-08
0.000133422
-7.20154e-08
0.00013347
-1.04546e-07
0.000133518
-1.39761e-07
0.000133567
-1.77676e-07
0.000133616
-2.18286e-07
0.000133666
-2.61594e-07
-3.0742e-07
0.000133714
0.000136421
1.02147e-08
0.000136427
2.8769e-08
0.000136438
4.52175e-08
0.000136452
5.97269e-08
0.000136469
7.23715e-08
0.000136488
8.32038e-08
0.000136509
9.22631e-08
0.000136533
9.95697e-08
0.000136558
1.05133e-07
0.000136584
1.08961e-07
0.000136611
1.11064e-07
0.00013664
1.11447e-07
0.00013667
1.10102e-07
0.0001367
1.07015e-07
0.000136732
1.02166e-07
0.000136764
9.5523e-08
0.000136797
8.70235e-08
0.000136832
7.66148e-08
0.000136867
6.42744e-08
0.000136902
4.99712e-08
0.000136939
3.35929e-08
0.000136977
1.49284e-08
0.000137015
-5.82781e-09
0.000137054
-2.88234e-08
0.000137093
-5.42465e-08
0.000137133
-8.20592e-08
0.000137174
-1.12297e-07
0.000137214
-1.45003e-07
0.000137254
-1.80187e-07
0.000137295
-2.17839e-07
0.000137334
-2.57925e-07
0.000137373
-3.00423e-07
-3.45135e-07
0.000137411
0.000140318
7.63879e-09
0.000140326
2.14749e-08
0.000140337
3.3792e-08
0.000140352
4.47864e-08
0.00014037
5.44661e-08
0.00014039
6.28152e-08
0.000140413
6.9807e-08
0.000140437
7.53933e-08
0.000140463
7.95158e-08
0.000140489
8.21245e-08
0.000140517
8.31833e-08
0.000140546
8.26614e-08
0.000140576
8.05197e-08
0.000140606
7.6719e-08
0.000140637
7.12247e-08
0.000140668
6.39927e-08
0.000140701
5.49178e-08
0.000140733
4.39842e-08
0.000140766
3.11272e-08
0.0001408
1.64735e-08
0.000140833
-8.33557e-11
0.000140868
-1.92045e-08
0.000140902
-4.01848e-08
0.000140936
-6.33293e-08
0.000140971
-8.87053e-08
0.000141005
-1.16323e-07
0.000141039
-1.46191e-07
0.000141072
-1.78316e-07
0.000141105
-2.12683e-07
0.000141136
-2.49253e-07
0.000141166
-2.8796e-07
0.000141195
-3.28748e-07
-3.71398e-07
0.000141221
0.000144327
5.18759e-09
0.000144334
1.42049e-08
0.000144346
2.23507e-08
0.000144361
2.97859e-08
0.000144379
3.64573e-08
0.000144399
4.2299e-08
0.000144422
4.72275e-08
0.000144446
5.11277e-08
0.000144472
5.38662e-08
0.000144499
5.53359e-08
0.000144526
5.54627e-08
0.000144555
5.41912e-08
0.000144584
5.14378e-08
0.000144613
4.71333e-08
0.000144643
4.12278e-08
0.000144674
3.37046e-08
0.000144704
2.44064e-08
0.000144735
1.33145e-08
0.000144766
8.77298e-11
0.000144797
-1.41596e-08
0.000144827
-3.07508e-08
0.000144857
-4.93877e-08
0.000144887
-6.99861e-08
0.000144916
-9.26081e-08
0.000144945
-1.17295e-07
0.000144973
-1.4405e-07
0.000144999
-1.72864e-07
0.000145025
-2.03721e-07
0.000145049
-2.36586e-07
0.000145071
-2.71405e-07
0.000145091
-3.08102e-07
0.000145109
-3.46617e-07
-3.86731e-07
0.000145124
0.000148451
1.79734e-09
0.00014846
5.2388e-09
0.000148474
8.81856e-09
0.000148491
1.26625e-08
0.000148511
1.64866e-08
0.000148533
2.00764e-08
0.000148557
2.3244e-08
0.000148582
2.57823e-08
0.000148609
2.74342e-08
0.000148636
2.80375e-08
0.000148664
2.74788e-08
0.000148693
2.57329e-08
0.000148721
2.26431e-08
0.00014875
1.81416e-08
0.000148779
1.22094e-08
0.000148808
4.95662e-09
0.000148837
-4.40789e-09
0.000148866
-1.53824e-08
0.000148894
-2.79565e-08
0.000148922
-4.21064e-08
0.000148949
-5.80998e-08
0.000148976
-7.59428e-08
0.000149001
-9.56221e-08
0.000149026
-1.17155e-07
0.000149049
-1.40556e-07
0.000149071
-1.65816e-07
0.000149091
-1.92915e-07
0.000149109
-2.21818e-07
0.000149125
-2.5247e-07
0.000149138
-2.84801e-07
0.000149149
-3.18716e-07
0.000149156
-3.5413e-07
-3.90827e-07
0.00014916
0.000152692
-7.81903e-10
0.0001527
-3.09255e-09
0.000152713
-4.28495e-09
0.00015273
-4.29325e-09
0.00015275
-3.54936e-09
0.000152773
-2.41684e-09
0.000152797
-1.19048e-09
0.000152823
-3.91623e-11
0.00015285
5.57011e-10
0.000152877
3.91358e-10
0.000152906
-7.22011e-10
0.000152934
-2.56633e-09
0.000152962
-5.65317e-09
0.00015299
-1.00843e-08
0.000153019
-1.58738e-08
0.000153046
-2.30288e-08
0.000153074
-3.16528e-08
0.0001531
-4.17906e-08
0.000153126
-5.34533e-08
0.00015315
-6.66598e-08
0.000153174
-8.14927e-08
0.000153196
-9.79856e-08
0.000153216
-1.16142e-07
0.000153235
-1.35966e-07
0.000153252
-1.57458e-07
0.000153267
-1.80602e-07
0.000153279
-2.05367e-07
0.000153289
-2.3171e-07
0.000153296
-2.59573e-07
0.0001533
-2.88888e-07
0.000153301
-3.19566e-07
0.000153298
-3.51539e-07
-3.84604e-07
0.000153292
0.000157057
-6.52398e-09
0.00015707
-1.61107e-08
0.000157088
-2.19847e-08
0.000157109
-2.50833e-08
0.000157132
-2.65785e-08
0.000157156
-2.70073e-08
0.000157182
-2.68629e-08
0.000157209
-2.65988e-08
0.000157236
-2.66073e-08
0.000157263
-2.71426e-08
0.000157291
-2.83931e-08
0.000157319
-3.04345e-08
0.000157347
-3.34505e-08
0.000157374
-3.75499e-08
0.000157401
-4.27969e-08
0.000157427
-4.92575e-08
0.000157453
-5.7045e-08
0.000157477
-6.61624e-08
0.0001575
-7.66215e-08
0.000157522
-8.84656e-08
0.000157542
-1.01737e-07
0.000157561
-1.16459e-07
0.000157577
-1.32638e-07
0.000157591
-1.50271e-07
0.000157603
-1.69346e-07
0.000157613
-1.89838e-07
0.000157619
-2.11709e-07
0.000157622
-2.34906e-07
0.000157622
-2.59366e-07
0.000157618
-2.85011e-07
0.00015761
-3.11749e-07
0.000157598
-3.39488e-07
-3.68046e-07
0.000157582
0.000161541
-9.17428e-09
0.000161552
-2.74618e-08
0.00016157
-3.92809e-08
0.000161591
-4.66795e-08
0.000161616
-5.11387e-08
0.000161642
-5.34472e-08
0.00016167
-5.44989e-08
0.000161698
-5.49922e-08
0.000161727
-5.53806e-08
0.000161756
-5.59894e-08
0.000161785
-5.70532e-08
0.000161813
-5.87371e-08
0.000161841
-6.11956e-08
0.000161868
-6.45433e-08
0.000161894
-6.8857e-08
0.000161919
-7.41966e-08
0.000161942
-8.06304e-08
0.000161964
-8.81949e-08
0.000161985
-9.69183e-08
0.000162003
-1.06831e-07
0.000162019
-1.17959e-07
0.000162033
-1.30317e-07
0.000162044
-1.43909e-07
0.000162053
-1.58732e-07
0.000162058
-1.74771e-07
0.00016206
-1.92004e-07
0.000162059
-2.10398e-07
0.000162054
-2.29909e-07
0.000162045
-2.50485e-07
0.000162032
-2.72065e-07
0.000162015
-2.94572e-07
0.000161994
-3.1795e-07
-3.42037e-07
0.000161967
0.000166166
-2.19478e-08
0.000166187
-4.83445e-08
0.000166211
-6.30179e-08
0.000166236
-7.20581e-08
0.000166263
-7.77169e-08
0.00016629
-8.07293e-08
0.000166318
-8.22473e-08
0.000166346
-8.30482e-08
0.000166374
-8.35581e-08
0.000166402
-8.40976e-08
0.00016643
-8.49047e-08
0.000166458
-8.61472e-08
0.000166484
-8.79569e-08
0.00016651
-9.04358e-08
0.000166535
-9.36609e-08
0.000166559
-9.76952e-08
0.00016658
-1.02591e-07
0.000166601
-1.08385e-07
0.000166619
-1.15104e-07
0.000166635
-1.22773e-07
0.000166648
-1.31411e-07
0.000166659
-1.41028e-07
0.000166667
-1.51627e-07
0.000166671
-1.63201e-07
0.000166672
-1.75735e-07
0.000166669
-1.89206e-07
0.000166663
-2.0358e-07
0.000166651
-2.18814e-07
0.000166636
-2.34855e-07
0.000166615
-2.5164e-07
0.00016659
-2.69093e-07
0.000166559
-2.87144e-07
-3.05643e-07
0.000166523
0.000170911
-3.19529e-08
0.000170938
-7.5444e-08
0.000170969