/*--------------------------------*- C++ -*----------------------------------*\
  =========                 |
  \\      /  F ield         | OpenFOAM: The Open Source CFD Toolbox
   \\    /   O peration     | Website:  https://openfoam.org
    \\  /    A nd           | Version:  10
     \\/     M anipulation  |
\*---------------------------------------------------------------------------*/
FoamFile
{
    format      ascii;
    class       volVectorField;
    location    "0.18";
    object      U;
}
// * * * * * * * * * * * * * * * * * * * * * * * * * * * * * * * * * * * * * //

dimensions      [0 1 -1 0 0 0 0];

internalField   nonuniform List<vector> 
6820
(
(7.2818 0.0248048 0)
(7.17833 0.0399866 0)
(7.05588 0.0448876 0)
(6.92765 0.0474913 0)
(6.8001 0.048513 0)
(6.67373 0.0486087 0)
(6.54909 0.0482175 0)
(6.42675 0.0475273 0)
(6.30692 0.0466501 0)
(6.1897 0.0456604 0)
(6.07515 0.0446032 0)
(5.96329 0.0435081 0)
(5.85414 0.0423955 0)
(5.74769 0.0412802 0)
(5.64392 0.0401735 0)
(5.54277 0.0390849 0)
(5.44421 0.0380233 0)
(5.34815 0.0369986 0)
(5.2545 0.0360228 0)
(5.16313 0.0351116 0)
(5.07385 0.0342862 0)
(4.98642 0.0335754 0)
(4.90055 0.0330184 0)
(4.8158 0.0326681 0)
(4.73163 0.032596 0)
(4.6473 0.0328996 0)
(4.56186 0.0337094 0)
(4.47401 0.0352239 0)
(4.38203 0.0376662 0)
(4.28367 0.0416084 0)
(4.17492 0.0473153 0)
(4.05381 0.0566322 0)
(3.90204 0.0766944 0)
(7.35921 0.0258762 0)
(7.42096 0.0357506 0)
(7.47605 0.0375471 0)
(7.52631 0.0395685 0)
(7.57232 0.0409831 0)
(7.61295 0.0421088 0)
(7.64818 0.0432142 0)
(7.67842 0.0442974 0)
(7.704 0.0453475 0)
(7.72522 0.0463638 0)
(7.7424 0.0473405 0)
(7.75584 0.0482718 0)
(7.76581 0.0491547 0)
(7.77258 0.0499889 0)
(7.77638 0.0507765 0)
(7.77742 0.0515226 0)
(7.77589 0.0522358 0)
(7.77197 0.0529297 0)
(7.76581 0.0536238 0)
(7.75752 0.0543461 0)
(7.7472 0.0551355 0)
(7.7349 0.0560454 0)
(7.72064 0.0571488 0)
(7.70439 0.0585443 0)
(7.68605 0.0603661 0)
(7.66545 0.0627955 0)
(7.6423 0.0660842 0)
(7.61616 0.07058 0)
(7.58652 0.0767754 0)
(7.5522 0.0854829 0)
(7.5132 0.0975031 0)
(7.46452 0.116252 0)
(7.4175 0.139385 0)
(7.33542 0.00694389 0)
(7.34564 0.0101838 0)
(7.35467 0.0127837 0)
(7.36252 0.0162093 0)
(7.37102 0.0190746 0)
(7.38006 0.0215399 0)
(7.38955 0.0238239 0)
(7.39964 0.0259263 0)
(7.4103 0.0278578 0)
(7.42144 0.0296471 0)
(7.433 0.0313153 0)
(7.44487 0.0328786 0)
(7.45697 0.0343526 0)
(7.46919 0.0357519 0)
(7.48143 0.0370912 0)
(7.4936 0.0383861 0)
(7.5056 0.0396548 0)
(7.51735 0.0409189 0)
(7.52873 0.042206 0)
(7.53968 0.0435519 0)
(7.5501 0.0450041 0)
(7.55991 0.0466254 0)
(7.56904 0.0484999 0)
(7.57742 0.0507397 0)
(7.58499 0.0534962 0)
(7.59173 0.0569711 0)
(7.59763 0.0614456 0)
(7.60276 0.0672868 0)
(7.60723 0.075069 0)
(7.61147 0.0854231 0)
(7.61586 0.0997675 0)
(7.62284 0.118703 0)
(7.63258 0.145604 0)
(7.33494 0.00929108 0)
(7.3425 0.0200892 0)
(7.34812 0.02554 0)
(7.35159 0.0291962 0)
(7.35464 0.0315598 0)
(7.35733 0.0331465 0)
(7.35961 0.0343656 0)
(7.36167 0.0353545 0)
(7.36361 0.0361864 0)
(7.36546 0.0369209 0)
(7.36727 0.0375946 0)
(7.36906 0.0382309 0)
(7.37085 0.0388482 0)
(7.37265 0.0394618 0)
(7.37444 0.0400865 0)
(7.37622 0.0407377 0)
(7.37796 0.041433 0)
(7.37965 0.0421942 0)
(7.38123 0.0430489 0)
(7.38268 0.0440323 0)
(7.38393 0.0451906 0)
(7.38494 0.0465838 0)
(7.38564 0.0482907 0)
(7.38596 0.0504141 0)
(7.38586 0.0530879 0)
(7.38529 0.0564869 0)
(7.38421 0.0608405 0)
(7.38269 0.0664494 0)
(7.38081 0.0736964 0)
(7.37896 0.0831074 0)
(7.37753 0.0951505 0)
(7.3784 0.110794 0)
(7.38149 0.128767 0)
(7.334 0.00638417 0)
(7.33876 0.0126884 0)
(7.34344 0.0154833 0)
(7.34711 0.0180089 0)
(7.35053 0.0202538 0)
(7.35366 0.0221844 0)
(7.35637 0.0239739 0)
(7.35878 0.0256557 0)
(7.36095 0.0272298 0)
(7.3629 0.0287111 0)
(7.36466 0.0301133 0)
(7.36625 0.0314473 0)
(7.36766 0.0327258 0)
(7.36889 0.033963 0)
(7.36995 0.0351751 0)
(7.37082 0.036381 0)
(7.37148 0.0376032 0)
(7.37192 0.0388696 0)
(7.3721 0.0402146 0)
(7.37199 0.0416814 0)
(7.37155 0.0433249 0)
(7.37074 0.0452134 0)
(7.36951 0.0474341 0)
(7.36782 0.0500974 0)
(7.36561 0.0533436 0)
(7.36285 0.0573491 0)
(7.35953 0.0623354 0)
(7.35569 0.0685756 0)
(7.35142 0.0763968 0)
(7.347 0.0861863 0)
(7.34275 0.0982582 0)
(7.33978 0.113077 0)
(7.33828 0.129636 0)
(7.33375 0.00534891 0)
(7.33776 0.0130863 0)
(7.34215 0.0182863 0)
(7.34563 0.0224656 0)
(7.34871 0.0256889 0)
(7.35152 0.0281123 0)
(7.354 0.0300456 0)
(7.35624 0.0316486 0)
(7.3583 0.0330062 0)
(7.36021 0.0341897 0)
(7.36198 0.0352522 0)
(7.36362 0.0362316 0)
(7.36513 0.0371586 0)
(7.3665 0.0380605 0)
(7.36774 0.0389625 0)
(7.36881 0.0398903 0)
(7.36971 0.0408721 0)
(7.37042 0.04194 0)
(7.3709 0.043132 0)
(7.37113 0.0444944 0)
(7.37107 0.0460842 0)
(7.37068 0.0479739 0)
(7.36994 0.0502512 0)
(7.36881 0.0530238 0)
(7.36727 0.0564243 0)
(7.3653 0.0606148 0)
(7.36294 0.0657891 0)
(7.36023 0.0721772 0)
(7.35732 0.0800262 0)
(7.35446 0.0896141 0)
(7.35194 0.101084 0)
(7.35049 0.114665 0)
(7.35027 0.129534 0)
(7.33346 0.00444937 0)
(7.33624 0.0110559 0)
(7.33967 0.0151158 0)
(7.34267 0.0180991 0)
(7.34549 0.0204583 0)
(7.34818 0.0223645 0)
(7.35066 0.0240305 0)
(7.35294 0.0255525 0)
(7.35507 0.0269644 0)
(7.35705 0.0282953 0)
(7.3589 0.0295685 0)
(7.36062 0.0308013 0)
(7.36221 0.03201 0)
(7.36367 0.033212 0)
(7.365 0.0344264 0)
(7.36618 0.0356754 0)
(7.3672 0.0369854 0)
(7.36805 0.0383884 0)
(7.36869 0.0399236 0)
(7.36912 0.0416389 0)
(7.36931 0.0435939 0)
(7.36924 0.0458527 0)
(7.36888 0.0485057 0)
(7.36823 0.051661 0)
(7.36729 0.0554451 0)
(7.36606 0.0600074 0)
(7.36461 0.065519 0)
(7.36301 0.0721719 0)
(7.36142 0.0801583 0)
(7.36008 0.0896727 0)
(7.35926 0.100792 0)
(7.35945 0.113616 0)
(7.36077 0.127586 0)
(7.33332 0.00378227 0)
(7.3355 0.0100411 0)
(7.33855 0.0146081 0)
(7.34143 0.0183493 0)
(7.34413 0.0214905 0)
(7.3467 0.0240685 0)
(7.34906 0.0262314 0)
(7.35122 0.0280908 0)
(7.35324 0.0297125 0)
(7.35512 0.0311536 0)
(7.35688 0.0324622 0)
(7.35853 0.033677 0)
(7.36006 0.0348314 0)
(7.36149 0.0359563 0)
(7.3628 0.037082 0)
(7.36398 0.0382394 0)
(7.36503 0.0394622 0)
(7.36593 0.0407879 0)
(7.36666 0.0422597 0)
(7.36722 0.0439282 0)
(7.36759 0.045853 0)
(7.36776 0.0481189 0)
(7.36772 0.0508029 0)
(7.36746 0.0540012 0)
(7.36702 0.0578283 0)
(7.36643 0.0624156 0)
(7.36574 0.0679072 0)
(7.36508 0.0744567 0)
(7.36457 0.0822075 0)
(7.36443 0.0912903 0)
(7.3649 0.101742 0)
(7.36631 0.113596 0)
(7.36875 0.126488 0)
(7.33322 0.00329681 0)
(7.33487 0.00902243 0)
(7.33737 0.0132892 0)
(7.33985 0.016616 0)
(7.34224 0.0192935 0)
(7.34458 0.0214514 0)
(7.3468 0.0232633 0)
(7.34889 0.024853 0)
(7.35088 0.0262864 0)
(7.35276 0.0276108 0)
(7.35454 0.0288638 0)
(7.35622 0.0300741 0)
(7.35781 0.0312663 0)
(7.35929 0.0324643 0)
(7.36067 0.0336924 0)
(7.36195 0.0349775 0)
(7.3631 0.0363496 0)
(7.36413 0.0378439 0)
(7.36503 0.0395016 0)
(7.36578 0.0413716 0)
(7.36639 0.0435106 0)
(7.36684 0.045977 0)
(7.36715 0.0488561 0)
(7.36734 0.0522415 0)
(7.36743 0.0562365 0)
(7.36747 0.0609542 0)
(7.36754 0.0665144 0)
(7.36775 0.0730382 0)
(7.36824 0.0806327 0)
(7.36919 0.0893863 0)
(7.3708 0.0993192 0)
(7.37331 0.110444 0)
(7.3768 0.122526 0)
(7.33315 0.00291752 0)
(7.33446 0.00818895 0)
(7.33659 0.012378 0)
(7.33887 0.0158155 0)
(7.34114 0.0187378 0)
(7.34338 0.0212215 0)
(7.34553 0.0233663 0)
(7.34757 0.0252567 0)
(7.34951 0.0269458 0)
(7.35135 0.0284778 0)
(7.3531 0.0298926 0)
(7.35476 0.0312247 0)
(7.35633 0.0325054 0)
(7.35781 0.0337651 0)
(7.35921 0.0350344 0)
(7.36052 0.0363454 0)
(7.36173 0.0377326 0)
(7.36285 0.0392349 0)
(7.36386 0.0408962 0)
(7.36477 0.0427671 0)
(7.36559 0.0449065 0)
(7.36631 0.0473817 0)
(7.36696 0.0502644 0)
(7.36756 0.0536352 0)
(7.36815 0.0575832 0)
(7.36879 0.0622043 0)
(7.36957 0.067596 0)
(7.37059 0.0738524 0)
(7.37198 0.0810525 0)
(7.37391 0.0892558 0)
(7.37654 0.0984732 0)
(7.38005 0.10871 0)
(7.38453 0.119811 0)
(7.33311 0.00262045 0)
(7.33415 0.0074771 0)
(7.33595 0.0114753 0)
(7.33796 0.0147664 0)
(7.34 0.0175259 0)
(7.34205 0.019834 0)
(7.34405 0.0217933 0)
(7.34598 0.0235007 0)
(7.34785 0.0250234 0)
(7.34964 0.0264129 0)
(7.35137 0.0277121 0)
(7.35304 0.0289563 0)
(7.35463 0.0301762 0)
(7.35616 0.0314006 0)
(7.35762 0.032658 0)
(7.35901 0.0339781 0)
(7.36033 0.0353933 0)
(7.36158 0.0369395 0)
(7.36277 0.0386569 0)
(7.36388 0.040591 0)
(7.36494 0.042793 0)
(7.36597 0.0453204 0)
(7.36698 0.0482394 0)
(7.368 0.0516224 0)
(7.3691 0.0555463 0)
(7.37034 0.06009 0)
(7.37179 0.0653307 0)
(7.37357 0.0713392 0)
(7.37579 0.0781722 0)
(7.37861 0.0858682 0)
(7.38216 0.0944317 0)
(7.3866 0.103865 0)
(7.39201 0.114057 0)
(7.33309 0.00237967 0)
(7.33393 0.00686369 0)
(7.33547 0.0106787 0)
(7.33728 0.0138958 0)
(7.33917 0.0166586 0)
(7.34111 0.0190413 0)
(7.34304 0.0211213 0)
(7.34493 0.0229714 0)
(7.34676 0.0246433 0)
(7.34854 0.0261779 0)
(7.35027 0.0276109 0)
(7.35194 0.0289745 0)
(7.35355 0.0302982 0)
(7.3551 0.0316108 0)
(7.35661 0.0329417 0)
(7.35806 0.0343217 0)
(7.35947 0.0357839 0)
(7.36083 0.0373647 0)
(7.36215 0.0391045 0)
(7.36345 0.0410477 0)
(7.36474 0.0432435 0)
(7.36604 0.0457455 0)
(7.36739 0.0486121 0)
(7.36881 0.051905 0)
(7.37038 0.0556879 0)
(7.37215 0.0600245 0)
(7.37421 0.0649745 0)
(7.37666 0.0705899 0)
(7.37962 0.0769097 0)
(7.38322 0.0839572 0)
(7.38757 0.0917307 0)
(7.39283 0.100229 0)
(7.39906 0.109363 0)
(7.33307 0.00217981 0)
(7.33377 0.0063318 0)
(7.3351 0.00995203 0)
(7.33671 0.0130503 0)
(7.33844 0.0157233 0)
(7.34023 0.018029 0)
(7.34204 0.0200299 0)
(7.34384 0.021793 0)
(7.3456 0.0233728 0)
(7.34733 0.0248145 0)
(7.34903 0.0261579 0)
(7.35069 0.0274383 0)
(7.35231 0.0286871 0)
(7.3539 0.0299342 0)
(7.35546 0.0312091 0)
(7.35699 0.0325418 0)
(7.3585 0.0339637 0)
(7.35999 0.0355086 0)
(7.36148 0.0372131 0)
(7.36298 0.0391168 0)
(7.3645 0.0412629 0)
(7.36609 0.043698 0)
(7.36777 0.0464715 0)
(7.36959 0.0496349 0)
(7.3716 0.0532395 0)
(7.37388 0.0573342 0)
(7.37651 0.0619629 0)
(7.37958 0.0671614 0)
(7.3832 0.0729532 0)
(7.38748 0.0793485 0)
(7.39255 0.0863382 0)
(7.39853 0.0939149 0)
(7.40548 0.101997 0)
(7.33306 0.00200992 0)
(7.33365 0.00586419 0)
(7.3348 0.00929015 0)
(7.33625 0.0122695 0)
(7.33785 0.0148721 0)
(7.33953 0.0171504 0)
(7.34127 0.0191583 0)
(7.34301 0.0209529 0)
(7.34474 0.0225812 0)
(7.34646 0.0240821 0)
(7.34816 0.0254895 0)
(7.34983 0.0268341 0)
(7.35149 0.0281442 0)
(7.35312 0.029447 0)
(7.35474 0.0307697 0)
(7.35635 0.0321406 0)
(7.35795 0.0335891 0)
(7.35957 0.0351467 0)
(7.36121 0.0368472 0)
(7.36289 0.0387264 0)
(7.36464 0.0408228 0)
(7.36649 0.0431766 0)
(7.36848 0.0458295 0)
(7.37065 0.048823 0)
(7.37306 0.0521971 0)
(7.37579 0.0559881 0)
(7.3789 0.0602263 0)
(7.3825 0.0649338 0)
(7.38668 0.0701213 0)
(7.39154 0.0757883 0)
(7.39719 0.0819178 0)
(7.40376 0.0884943 0)
(7.41127 0.0954392 0)
(7.33305 0.00186231 0)
(7.33355 0.00544843 0)
(7.33457 0.00868335 0)
(7.33588 0.0115339 0)
(7.33735 0.0140449 0)
(7.33893 0.0162564 0)
(7.34057 0.0182106 0)
(7.34224 0.0199542 0)
(7.34392 0.0215299 0)
(7.3456 0.0229747 0)
(7.34728 0.0243226 0)
(7.34894 0.0256047 0)
(7.35061 0.0268501 0)
(7.35227 0.0280862 0)
(7.35394 0.0293404 0)
(7.35562 0.0306399 0)
(7.35732 0.0320126 0)
(7.35906 0.0334876 0)
(7.36085 0.035095 0)
(7.36271 0.0368663 0)
(7.36467 0.0388342 0)
(7.36677 0.041032 0)
(7.36904 0.0434927 0)
(7.37154 0.0462484 0)
(7.37432 0.049328 0)
(7.37744 0.0527561 0)
(7.38099 0.056551 0)
(7.38505 0.0607223 0)
(7.3897 0.0652697 0)
(7.39504 0.0701823 0)
(7.40116 0.075435 0)
(7.40819 0.0810032 0)
(7.41615 0.0868074 0)
(7.33304 0.00173153 0)
(7.33348 0.005074 0)
(7.33438 0.00812305 0)
(7.33557 0.010841 0)
(7.33694 0.0132565 0)
(7.33842 0.0154023 0)
(7.33999 0.0173143 0)
(7.34161 0.0190333 0)
(7.34325 0.0205976 0)
(7.34492 0.022041 0)
(7.34659 0.0233941 0)
(7.34828 0.0246849 0)
(7.34997 0.0259394 0)
(7.35168 0.0271824 0)
(7.35341 0.0284381 0)
(7.35517 0.0297309 0)
(7.35697 0.0310854 0)
(7.35882 0.0325268 0)
(7.36076 0.0340811 0)
(7.36279 0.035775 0)
(7.36494 0.0376351 0)
(7.36727 0.0396879 0)
(7.36979 0.0419587 0)
(7.37257 0.0444707 0)
(7.37566 0.0472432 0)
(7.37912 0.0502905 0)
(7.38303 0.0536203 0)
(7.38745 0.0572322 0)
(7.39247 0.0611161 0)
(7.39818 0.0652525 0)
(7.40465 0.069609 0)
(7.41199 0.074152 0)
(7.42023 0.078802 0)
(7.33304 0.00161362 0)
(7.33343 0.00473256 0)
(7.33423 0.0076018 0)
(7.33532 0.0101842 0)
(7.33659 0.0124963 0)
(7.338 0.014563 0)
(7.33949 0.0164129 0)
(7.34106 0.0180794 0)
(7.34266 0.0195951 0)
(7.3443 0.0209902 0)
(7.34596 0.0222926 0)
(7.34764 0.0235286 0)
(7.34935 0.0247228 0)
(7.35109 0.0258986 0)
(7.35287 0.027079 0)
(7.35469 0.0282865 0)
(7.35657 0.0295435 0)
(7.35853 0.0308721 0)
(7.36058 0.0322949 0)
(7.36276 0.0338337 0)
(7.36509 0.0355098 0)
(7.36761 0.0373433 0)
(7.37036 0.0393523 0)
(7.37338 0.0415517 0)
(7.37673 0.0439522 0)
(7.38046 0.0465591 0)
(7.38465 0.049371 0)
(7.38936 0.0523786 0)
(7.39466 0.0555637 0)
(7.40062 0.0588993 0)
(7.40732 0.0623463 0)
(7.41486 0.0658637 0)
(7.42324 0.0693724 0)
(7.33303 0.0015056 0)
(7.33338 0.00441732 0)
(7.33412 0.00711273 0)
(7.33512 0.00955788 0)
(7.33631 0.0117617 0)
(7.33764 0.0137433 0)
(7.33908 0.0155263 0)
(7.34059 0.0171393 0)
(7.34216 0.0186109 0)
(7.34378 0.0199685 0)
(7.34544 0.0212375 0)
(7.34713 0.0224415 0)
(7.34887 0.0236028 0)
(7.35064 0.0247423 0)
(7.35247 0.02588 0)
(7.35436 0.0270351 0)
(7.35632 0.0282267 0)
(7.35838 0.0294729 0)
(7.36055 0.0307915 0)
(7.36287 0.0321994 0)
(7.36535 0.033712 0)
(7.36803 0.0353432 0)
(7.37096 0.0371039 0)
(7.37418 0.0390016 0)
(7.37773 0.0410395 0)
(7.38168 0.0432148 0)
(7.38608 0.0455184 0)
(7.39098 0.0479339 0)
(7.39646 0.0504364 0)
(7.40258 0.0529926 0)
(7.40939 0.0555585 0)
(7.41698 0.0580872 0)
(7.42534 0.0605028 0)
(7.33303 0.00140521 0)
(7.33335 0.00412271 0)
(7.33402 0.00664983 0)
(7.33495 0.00895688 0)
(7.33607 0.0110478 0)
(7.33734 0.012937 0)
(7.33872 0.0146433 0)
(7.34019 0.0161901 0)
(7.34173 0.0176018 0)
(7.34333 0.0189019 0)
(7.34498 0.0201126 0)
(7.34667 0.0212549 0)
(7.34842 0.0223486 0)
(7.35022 0.0234121 0)
(7.35209 0.0244629 0)
(7.35403 0.0255179 0)
(7.35606 0.0265928 0)
(7.35819 0.0277026 0)
(7.36046 0.0288612 0)
(7.36288 0.0300809 0)
(7.36548 0.0313723 0)
(7.36829 0.0327437 0)
(7.37136 0.0342 0)
(7.37472 0.0357426 0)
(7.37843 0.0373679 0)
(7.38252 0.0390669 0)
(7.38705 0.0408243 0)
(7.39206 0.0426179 0)
(7.39763 0.0444176 0)
(7.40379 0.0461857 0)
(7.4106 0.0478754 0)
(7.41812 0.0494356 0)
(7.42634 0.0507947 0)
(7.33303 0.00131065 0)
(7.33332 0.00384417 0)
(7.33394 0.00620777 0)
(7.33482 0.00837626 0)
(7.33587 0.0103507 0)
(7.33709 0.0121418 0)
(7.33842 0.0137648 0)
(7.33985 0.0152393 0)
(7.34136 0.0165861 0)
(7.34294 0.0178258 0)
(7.34459 0.018978 0)
(7.34629 0.0200611 0)
(7.34805 0.0210925 0)
(7.34988 0.0220881 0)
(7.35178 0.0230626 0)
(7.35377 0.0240298 0)
(7.35586 0.0250019 0)
(7.35806 0.0259903 0)
(7.3604 0.0270045 0)
(7.36291 0.0280523 0)
(7.3656 0.0291394 0)
(7.36851 0.0302685 0)
(7.37168 0.0314393 0)
(7.37514 0.0326471 0)
(7.37894 0.033883 0)
(7.38311 0.0351326 0)
(7.3877 0.0363754 0)
(7.39275 0.0375847 0)
(7.3983 0.0387268 0)
(7.40441 0.0397614 0)
(7.41111 0.0406403 0)
(7.41845 0.0413103 0)
(7.42641 0.0417051 0)
(7.33303 0.00122048 0)
(7.3333 0.00357787 0)
(7.33388 0.00578182 0)
(7.33471 0.00781143 0)
(7.33571 0.00966615 0)
(7.33688 0.0113538 0)
(7.33817 0.0128866 0)
(7.33957 0.0142804 0)
(7.34105 0.0155525 0)
(7.34262 0.0167201 0)
(7.34425 0.0178 0)
(7.34595 0.0188075 0)
(7.34772 0.0197573 0)
(7.34957 0.0206624 0)
(7.35149 0.0215349 0)
(7.35351 0.0223853 0)
(7.35564 0.0232229 0)
(7.35789 0.0240555 0)
(7.36029 0.024889 0)
(7.36285 0.0257272 0)
(7.3656 0.0265715 0)
(7.36857 0.0274204 0)
(7.37179 0.0282689 0)
(7.3753 0.029108 0)
(7.37913 0.0299244 0)
(7.38331 0.0306996 0)
(7.38789 0.0314096 0)
(7.39289 0.0320248 0)
(7.39835 0.0325098 0)
(7.40432 0.0328231 0)
(7.4108 0.0329165 0)
(7.41786 0.0327373 0)
(7.42545 0.0322248 0)
(7.33302 0.00113352 0)
(7.33328 0.00332059 0)
(7.33383 0.00536786 0)
(7.33462 0.00725829 0)
(7.33558 0.00899061 0)
(7.33671 0.0105705 0)
(7.33796 0.0120079 0)
(7.33933 0.0133155 0)
(7.34079 0.0145078 0)
(7.34234 0.0155991 0)
(7.34396 0.0166036 0)
(7.34566 0.0175341 0)
(7.34743 0.0184026 0)
(7.34929 0.0192197 0)
(7.35123 0.0199946 0)
(7.35327 0.0207351 0)
(7.35542 0.0214471 0)
(7.3577 0.0221353 0)
(7.36013 0.0228018 0)
(7.36272 0.0234467 0)
(7.3655 0.0240677 0)
(7.36849 0.024659 0)
(7.37173 0.0252119 0)
(7.37524 0.0257135 0)
(7.37904 0.026147 0)
(7.38318 0.0264907 0)
(7.38767 0.0267183 0)
(7.39255 0.0267987 0)
(7.39785 0.0266955 0)
(7.40358 0.0263671 0)
(7.40977 0.0257669 0)
(7.41645 0.0248438 0)
(7.42359 0.023544 0)
(7.33302 0.00104875 0)
(7.33327 0.00306954 0)
(7.33379 0.0049621 0)
(7.33454 0.00671272 0)
(7.33548 0.00831981 0)
(7.33657 0.00978747 0)
(7.33779 0.0111232 0)
(7.33913 0.0123372 0)
(7.34057 0.0134409 0)
(7.3421 0.0144458 0)
(7.34371 0.015363 0)
(7.3454 0.016203 0)
(7.34718 0.0169748 0)
(7.34904 0.0176863 0)
(7.35098 0.0183441 0)
(7.35303 0.018953 0)
(7.3552 0.0195162 0)
(7.35749 0.0200351 0)
(7.35992 0.0205089 0)
(7.36251 0.0209347 0)
(7.36529 0.0213066 0)
(7.36827 0.0216161 0)
(7.37147 0.0218512 0)
(7.37493 0.0219965 0)
(7.37866 0.0220326 0)
(7.38269 0.0219364 0)
(7.38704 0.0216805 0)
(7.39173 0.0212331 0)
(7.39679 0.0205582 0)
(7.40222 0.0196159 0)
(7.40804 0.0183622 0)
(7.41427 0.0167492 0)
(7.42088 0.0147309 0)
(7.33302 0.000965316 0)
(7.33326 0.00282237 0)
(7.33376 0.00456142 0)
(7.33449 0.00617175 0)
(7.33539 0.00765194 0)
(7.33645 0.00900503 0)
(7.33765 0.0102369 0)
(7.33896 0.0113555 0)
(7.34038 0.0123698 0)
(7.34189 0.0132889 0)
(7.34349 0.0141214 0)
(7.34517 0.0148753 0)
(7.34693 0.015557 0)
(7.34878 0.016172 0)
(7.35072 0.0167241 0)
(7.35276 0.0172156 0)
(7.35491 0.017647 0)
(7.35719 0.0180168 0)
(7.3596 0.0183215 0)
(7.36217 0.0185552 0)
(7.36491 0.0187094 0)
(7.36783 0.018773 0)
(7.37096 0.0187316 0)
(7.37432 0.0185677 0)
(7.37793 0.0182606 0)
(7.3818 0.0177861 0)
(7.38594 0.0171164 0)
(7.39039 0.0162202 0)
(7.39514 0.0150626 0)
(7.40021 0.0136061 0)
(7.4056 0.0118103 0)
(7.41132 0.0096303 0)
(7.41733 0.00702856 0)
(7.33302 0.000882434 0)
(7.33325 0.00257677 0)
(7.33374 0.00416225 0)
(7.33445 0.00563055 0)
(7.33533 0.00698021 0)
(7.33636 0.00821313 0)
(7.33754 0.00933338 0)
(7.33883 0.0103466 0)
(7.34023 0.0112594 0)
(7.34173 0.0120784 0)
(7.34331 0.0128097 0)
(7.34498 0.0134587 0)
(7.34673 0.0140298 0)
(7.34856 0.014526 0)
(7.35049 0.0149487 0)
(7.35251 0.0152981 0)
(7.35464 0.0155721 0)
(7.35689 0.0157672 0)
(7.35926 0.0158775 0)
(7.36178 0.0158949 0)
(7.36445 0.015809 0)
(7.36729 0.0156066 0)
(7.37032 0.0152722 0)
(7.37354 0.0147872 0)
(7.37698 0.01413 0)
(7.38064 0.0132765 0)
(7.38454 0.0121997 0)
(7.38868 0.0108696 0)
(7.39308 0.0092534 0)
(7.39774 0.00731697 0)
(7.40264 0.0050235 0)
(7.4078 0.00233398 0)
(7.41318 -0.000781832 0)
(7.33302 0.000799421 0)
(7.33325 0.00233106 0)
(7.33372 0.00376301 0)
(7.33441 0.00508946 0)
(7.33527 0.00630954 0)
(7.33629 0.00742476 0)
(7.33745 0.0084381 0)
(7.33872 0.00935356 0)
(7.34009 0.0101756 0)
(7.34157 0.0109084 0)
(7.34312 0.0115559 0)
(7.34476 0.012121 0)
(7.34649 0.0126056 0)
(7.3483 0.0130103 0)
(7.35019 0.0133343 0)
(7.35217 0.0135752 0)
(7.35426 0.0137289 0)
(7.35645 0.0137896 0)
(7.35875 0.0137496 0)
(7.36119 0.013599 0)
(7.36376 0.0133255 0)
(7.36647 0.0129148 0)
(7.36935 0.0123505 0)
(7.3724 0.0116133 0)
(7.37562 0.0106816 0)
(7.37903 0.00953151 0)
(7.38264 0.00813857 0)
(7.38644 0.00647309 0)
(7.39043 0.00450532 0)
(7.39463 0.0022045 0)
(7.39901 -0.000461619 0)
(7.40358 -0.00352722 0)
(7.40831 -0.00701579 0)
(7.33302 0.000715508 0)
(7.33324 0.00208249 0)
(7.33371 0.0033578 0)
(7.33439 0.00453711 0)
(7.33525 0.00561921 0)
(7.33625 0.00660447 0)
(7.33739 0.00749433 0)
(7.33865 0.00829096 0)
(7.34002 0.00899684 0)
(7.34147 0.00961439 0)
(7.34301 0.0101455 0)
(7.34464 0.0105914 0)
(7.34634 0.0109522 0)
(7.34811 0.0112268 0)
(7.34997 0.0114127 0)
(7.35191 0.0115059 0)
(7.35394 0.0115007 0)
(7.35607 0.0113898 0)
(7.35829 0.0111641 0)
(7.36063 0.0108127 0)
(7.36308 0.0103225 0)
(7.36565 0.00967823 0)
(7.36836 0.00886333 0)
(7.3712 0.00785904 0)
(7.37418 0.00664323 0)
(7.37731 0.00519353 0)
(7.38059 0.00349023 0)
(7.38402 0.00150341 0)
(7.38759 -0.000792774 0)
(7.3913 -0.00342639 0)
(7.39514 -0.00642419 0)
(7.3991 -0.00981593 0)
(7.40314 -0.0136183 0)
(7.33302 0.000630208 0)
(7.33324 0.00183114 0)
(7.33371 0.00295118 0)
(7.33438 0.00398882 0)
(7.33522 0.00494384 0)
(7.33621 0.00581642 0)
(7.33733 0.00660693 0)
(7.33856 0.00731572 0)
(7.3399 0.00794295 0)
(7.34133 0.00848847 0)
(7.34283 0.00895162 0)
(7.34442 0.00933108 0)
(7.34607 0.00962458 0)
(7.3478 0.00982882 0)
(7.3496 0.00993927 0)
(7.35148 0.00995002 0)
(7.35343 0.00985381 0)
(7.35546 0.00964197 0)
(7.35757 0.00930443 0)
(7.35978 0.00882952 0)
(7.36207 0.00820337 0)
(7.36447 0.00741036 0)
(7.36697 0.00643456 0)
(7.36957 0.00525867 0)
(7.37228 0.00385855 0)
(7.3751 0.00221741 0)
(7.37802 0.000308006 0)
(7.38104 -0.00188656 0)
(7.38415 -0.00438997 0)
(7.38735 -0.00722707 0)
(7.39063 -0.010421 0)
(7.39397 -0.0139972 0)
(7.39734 -0.0179667 0)
(7.33302 0.00054217 0)
(7.33324 0.00156963 0)
(7.33371 0.00252262 0)
(7.33439 0.00340008 0)
(7.33523 0.00420102 0)
(7.33623 0.0049248 0)
(7.33735 0.00557097 0)
(7.33859 0.00613899 0)
(7.33992 0.00662811 0)
(7.34133 0.0070372 0)
(7.34282 0.00736464 0)
(7.34438 0.0076081 0)
(7.34601 0.00776428 0)
(7.34769 0.00782879 0)
(7.34944 0.00779612 0)
(7.35125 0.00765944 0)
(7.35312 0.00741035 0)
(7.35505 0.00703934 0)
(7.35705 0.00653601 0)
(7.35912 0.00588847 0)
(7.36126 0.00508249 0)
(7.36346 0.0041011 0)
(7.36575 0.00293241 0)
(7.36809 0.00155625 0)
(7.37051 -4.13805e-05 0)
(7.373 -0.00188331 0)
(7.37555 -0.00399556 0)
(7.37816 -0.00639211 0)
(7.38081 -0.00909315 0)
(7.3835 -0.0121181 0)
(7.38621 -0.0154856 0)
(7.38894 -0.0192157 0)
(7.39164 -0.0233147 0)
(7.33302 0.000451909 0)
(7.33324 0.00130787 0)
(7.33371 0.00210783 0)
(7.33438 0.0028543 0)
(7.33521 0.00354628 0)
(7.33618 0.00418143 0)
(7.33729 0.00475674 0)
(7.33849 0.00526838 0)
(7.33979 0.00571197 0)
(7.34117 0.00608302 0)
(7.34262 0.00637697 0)
(7.34413 0.00658898 0)
(7.34569 0.0067136 0)
(7.34731 0.00674466 0)
(7.34898 0.00667518 0)
(7.3507 0.00649694 0)
(7.35246 0.00620068 0)
(7.35428 0.0057767 0)
(7.35614 0.00521414 0)
(7.35804 0.00450336 0)
(7.35999 0.00362737 0)
(7.36198 0.00257002 0)
(7.36402 0.00131765 0)
(7.3661 -0.000145389 0)
(7.36821 -0.00182878 0)
(7.37034 -0.00375477 0)
(7.3725 -0.00593717 0)
(7.37467 -0.00839715 0)
(7.37685 -0.0111514 0)
(7.37902 -0.0142158 0)
(7.38117 -0.0176055 0)
(7.38328 -0.0213369 0)
(7.38534 -0.0254123 0)
(7.33302 0.000354413 0)
(7.33326 0.00101272 0)
(7.33376 0.00161503 0)
(7.33446 0.00216474 0)
(7.33532 0.00266192 0)
(7.33633 0.00310605 0)
(7.33745 0.00349565 0)
(7.33867 0.00382779 0)
(7.33998 0.00409853 0)
(7.34135 0.0043035 0)
(7.34278 0.00443795 0)
(7.34426 0.00449642 0)
(7.34579 0.00447242 0)
(7.34736 0.00435868 0)
(7.34896 0.0041475 0)
(7.35059 0.00383111 0)
(7.35225 0.00339899 0)
(7.35394 0.00283875 0)
(7.35566 0.00214269 0)
(7.35741 0.00130308 0)
(7.35916 0.000300085 0)
(7.36093 -0.000874023 0)
(7.36272 -0.00224342 0)
(7.36453 -0.00381998 0)
(7.36633 -0.00562065 0)
(7.36813 -0.00765713 0)
(7.36991 -0.00994254 0)
(7.37167 -0.0124923 0)
(7.37339 -0.0153202 0)
(7.37507 -0.0184388 0)
(7.37668 -0.0218592 0)
(7.37821 -0.0255934 0)
(7.37963 -0.0296404 0)
(7.33302 0.000258253 0)
(7.33325 0.000749299 0)
(7.33373 0.0012255 0)
(7.33441 0.00169001 0)
(7.33526 0.00213505 0)
(7.33624 0.00255218 0)
(7.33734 0.0029334 0)
(7.33853 0.00326989 0)
(7.3398 0.00355221 0)
(7.34114 0.0037718 0)
(7.34253 0.0039213 0)
(7.34395 0.00399423 0)
(7.34542 0.00398327 0)
(7.34691 0.00388106 0)
(7.34843 0.00368078 0)
(7.34996 0.00337346 0)
(7.3515 0.00293941 0)
(7.35306 0.00237898 0)
(7.35463 0.00168205 0)
(7.3562 0.00082717 0)
(7.35775 -0.000183725 0)
(7.3593 -0.00135995 0)
(7.36083 -0.00271826 0)
(7.36233 -0.00427274 0)
(7.3638 -0.00603821 0)
(7.36523 -0.00802686 0)
(7.36662 -0.0102511 0)
(7.36795 -0.0127231 0)
(7.3692 -0.0154541 0)
(7.37038 -0.0184546 0)
(7.37145 -0.0217328 0)
(7.37242 -0.0252988 0)
(7.37327 -0.029149 0)
(7.33303 0.000131035 0)
(7.33332 0.000349855 0)
(7.33388 0.000538302 0)
(7.33466 0.000709318 0)
(7.33558 0.00086586 0)
(7.33663 0.00100786 0)
(7.33778 0.00113215 0)
(7.339 0.00123316 0)
(7.34028 0.00130144 0)
(7.34161 0.00132772 0)
(7.34298 0.00130377 0)
(7.34437 0.0012221 0)
(7.34579 0.00106968 0)
(7.34722 0.000835792 0)
(7.34865 0.000510618 0)
(7.35008 8.54667e-05 0)
(7.3515 -0.000437698 0)
(7.35292 -0.00107549 0)
(7.35433 -0.00184748 0)
(7.35571 -0.00276964 0)
(7.35708 -0.00384452 0)
(7.35841 -0.00508755 0)
(7.3597 -0.00650545 0)
(7.36095 -0.00810992 0)
(7.36213 -0.0099129 0)
(7.36324 -0.011925 0)
(7.36428 -0.0141561 0)
(7.36523 -0.0166158 0)
(7.36607 -0.0193126 0)
(7.3668 -0.0222536 0)
(7.36739 -0.0254441 0)
(7.36785 -0.0288903 0)
(7.36814 -0.0325871 0)
(7.33302 4.56326e-05 0)
(7.33325 0.000152383 0)
(7.33378 0.000319027 0)
(7.33452 0.00053314 0)
(7.33541 0.000767677 0)
(7.33644 0.00100508 0)
(7.33757 0.00122806 0)
(7.33878 0.00141808 0)
(7.34005 0.00156317 0)
(7.34136 0.00165378 0)
(7.34271 0.00168043 0)
(7.34407 0.00163368 0)
(7.34543 0.00151121 0)
(7.34679 0.00130828 0)
(7.34814 0.00101643 0)
(7.34949 0.000627464 0)
(7.35082 0.000144208 0)
(7.35211 -0.000452297 0)
(7.35336 -0.00117204 0)
(7.35456 -0.00201659 0)
(7.35571 -0.00300415 0)
(7.35681 -0.0041444 0)
(7.35783 -0.00544522 0)
(7.35878 -0.00691611 0)
(7.35964 -0.00856647 0)
(7.3604 -0.0104053 0)
(7.36106 -0.0124412 0)
(7.3616 -0.014682 0)
(7.36201 -0.0171342 0)
(7.36228 -0.0198038 0)
(7.36241 -0.0226948 0)
(7.36237 -0.0258128 0)
(7.36216 -0.0291519 0)
(7.33306 -0.00016111 0)
(7.33348 -0.000533605 0)
(7.33423 -0.000863422 0)
(7.33515 -0.00111901 0)
(7.33618 -0.00130925 0)
(7.3373 -0.0014458 0)
(7.33848 -0.00154647 0)
(7.3397 -0.00163292 0)
(7.34096 -0.00172149 0)
(7.34224 -0.00182704 0)
(7.34353 -0.00196448 0)
(7.34482 -0.00214798 0)
(7.34613 -0.00238361 0)
(7.34742 -0.00267929 0)
(7.34869 -0.00304445 0)
(7.34993 -0.00349028 0)
(7.35114 -0.00403695 0)
(7.35231 -0.00468702 0)
(7.35342 -0.00544652 0)
(7.35447 -0.00632543 0)
(7.35545 -0.0073346 0)
(7.35636 -0.00848328 0)
(7.35718 -0.00978001 0)
(7.3579 -0.0112332 0)
(7.35852 -0.012851 0)
(7.35901 -0.0146406 0)
(7.35938 -0.0166078 0)
(7.35961 -0.0187581 0)
(7.35968 -0.0210957 0)
(7.35959 -0.0236242 0)
(7.35932 -0.0263454 0)
(7.35886 -0.0292613 0)
(7.3582 -0.0323655 0)
(7.33301 -0.000219333 0)
(7.33328 -0.000497933 0)
(7.33395 -0.000590689 0)
(7.33487 -0.000594488 0)
(7.33593 -0.00055892 0)
(7.33709 -0.000500897 0)
(7.33833 -0.000440753 0)
(7.3396 -0.000394358 0)
(7.3409 -0.000373081 0)
(7.34221 -0.000385499 0)
(7.34352 -0.000438667 0)
(7.34482 -0.000538002 0)
(7.34609 -0.000693622 0)
(7.34734 -0.000913443 0)
(7.34854 -0.00120326 0)
(7.3497 -0.00156797 0)
(7.35081 -0.00201406 0)
(7.35184 -0.00254833 0)
(7.35281 -0.00317748 0)
(7.35369 -0.00390844 0)
(7.35448 -0.00474868 0)
(7.35516 -0.00570532 0)
(7.35574 -0.0067851 0)
(7.35619 -0.00799446 0)
(7.3565 -0.0093395 0)
(7.35668 -0.0108261 0)
(7.3567 -0.0124598 0)
(7.35656 -0.0142453 0)
(7.35625 -0.0161867 0)
(7.35576 -0.0182874 0)
(7.35508 -0.0205493 0)
(7.3542 -0.0229754 0)
(7.35313 -0.0255604 0)
(7.33314 -0.000795269 0)
(7.33393 -0.00225147 0)
(7.33498 -0.00328457 0)
(7.33608 -0.00400238 0)
(7.33722 -0.00450895 0)
(7.33841 -0.0048529 0)
(7.33963 -0.00508783 0)
(7.34087 -0.00525993 0)
(7.34211 -0.00540151 0)
(7.34335 -0.00553664 0)
(7.34459 -0.00568365 0)
(7.34581 -0.00585654 0)
(7.34701 -0.00606741 0)
(7.34817 -0.00632647 0)
(7.34929 -0.0066426 0)
(7.35036 -0.00702417 0)
(7.35137 -0.00747912 0)
(7.3523 -0.00801402 0)
(7.35315 -0.00863519 0)
(7.35391 -0.00934924 0)
(7.35456 -0.0101627 0)
(7.3551 -0.0110817 0)
(7.35551 -0.0121121 0)
(7.35578 -0.0132592 0)
(7.3559 -0.0145281 0)
(7.35587 -0.0159229 0)
(7.35566 -0.0174471 0)
(7.35527 -0.0191033 0)
(7.35468 -0.0208933 0)
(7.35389 -0.022818 0)
(7.35288 -0.0248769 0)
(7.35164 -0.0270697 0)
(7.35016 -0.0293895 0)
(7.33306 -0.000341968 0)
(7.33384 -0.000791953 0)
(7.33521 -0.00104646 0)
(7.33665 -0.00126373 0)
(7.33813 -0.00143608 0)
(7.33964 -0.00157091 0)
(7.34113 -0.00169462 0)
(7.3426 -0.00181602 0)
(7.34405 -0.00193853 0)
(7.34547 -0.0020679 0)
(7.34686 -0.00220981 0)
(7.34822 -0.00236923 0)
(7.34953 -0.00255139 0)
(7.3508 -0.00276149 0)
(7.35201 -0.00300452 0)
(7.35317 -0.00328545 0)
(7.35425 -0.00360936 0)
(7.35526 -0.00398121 0)
(7.35619 -0.00440587 0)
(7.35702 -0.00488825 0)
(7.35775 -0.00543319 0)
(7.35837 -0.00604541 0)
(7.35887 -0.00672942 0)
(7.35924 -0.00748956 0)
(7.35949 -0.00832992 0)
(7.3596 -0.00925434 0)
(7.35956 -0.0102664 0)
(7.35937 -0.0113693 0)
(7.35903 -0.0125657 0)
(7.35854 -0.0138582 0)
(7.35788 -0.015248 0)
(7.35708 -0.0167382 0)
(7.35612 -0.0183229 0)
(7.33439 -0.00355564 0)
(7.33925 -0.00668954 0)
(7.3451 -0.00799005 0)
(7.3515 -0.00882402 0)
(7.3583 -0.00928694 0)
(7.36529 -0.00949535 0)
(7.37235 -0.0095972 0)
(7.37942 -0.00965667 0)
(7.38648 -0.00970243 0)
(7.3935 -0.00975641 0)
(7.40048 -0.00983335 0)
(7.40741 -0.00994233 0)
(7.41428 -0.0100899 0)
(7.4211 -0.0102814 0)
(7.42788 -0.0105214 0)
(7.43461 -0.0108139 0)
(7.4413 -0.011163 0)
(7.44795 -0.0115725 0)
(7.45456 -0.0120463 0)
(7.46114 -0.0125885 0)
(7.46769 -0.0132031 0)
(7.47421 -0.0138942 0)
(7.4807 -0.0146657 0)
(7.48717 -0.0155214 0)
(7.49361 -0.0164649 0)
(7.50002 -0.0174995 0)
(7.50641 -0.0186281 0)
(7.51276 -0.0198531 0)
(7.51908 -0.0211766 0)
(7.52537 -0.0226002 0)
(7.5316 -0.0241255 0)
(7.53778 -0.0257529 0)
(7.54388 -0.0274823 0)
(7.32976 -0.00397171 0)
(7.3244 -0.00831381 0)
(7.31548 -0.0108515 0)
(7.30476 -0.0127497 0)
(7.29366 -0.0141368 0)
(7.28227 -0.0151392 0)
(7.27067 -0.015908 0)
(7.25904 -0.0165296 0)
(7.24743 -0.0170552 0)
(7.23586 -0.0175236 0)
(7.22434 -0.0179633 0)
(7.21286 -0.0183946 0)
(7.20141 -0.018833 0)
(7.18997 -0.0192905 0)
(7.17851 -0.019777 0)
(7.167 -0.0203007 0)
(7.15542 -0.0208685 0)
(7.14373 -0.021487 0)
(7.13191 -0.0221619 0)
(7.11992 -0.0228986 0)
(7.10772 -0.023702 0)
(7.09528 -0.0245768 0)
(7.08257 -0.0255271 0)
(7.06955 -0.0265566 0)
(7.0562 -0.0276682 0)
(7.04248 -0.0288641 0)