/*--------------------------------*- C++ -*----------------------------------*\
  =========                 |
  \\      /  F ield         | OpenFOAM: The Open Source CFD Toolbox
   \\    /   O peration     | Website:  https://openfoam.org
    \\  /    A nd           | Version:  10
     \\/     M anipulation  |
\*---------------------------------------------------------------------------*/
FoamFile
{
    format      ascii;
    class       volScalarField;
    location    "0.03";
    object      nut;
}
// * * * * * * * * * * * * * * * * * * * * * * * * * * * * * * * * * * * * * //

dimensions      [0 2 -1 0 0 0 0];

internalField   nonuniform List<scalar> 
6820
(
0.000503208
0.00039709
0.00032456
0.000269465
0.000236655
0.000214338
0.000197802
0.000185176
0.000175002
0.000166483
0.000159172
0.000152777
0.0001471
0.000142005
0.000137391
0.000133181
0.000129317
0.000125752
0.000122451
0.000119381
0.000116519
0.000113847
0.000111344
0.000108995
0.000106782
0.000104695
0.000102722
0.000100861
9.90831e-05
9.74385e-05
9.57853e-05
9.43988e-05
9.20785e-05
8.18453e-05
0.000143707
0.000196389
0.000210809
0.000206401
0.00019757
0.000187348
0.000177493
0.000168592
0.000160629
0.000153501
0.000147092
0.000141292
0.000136013
0.000131182
0.000126739
0.000122635
0.000118828
0.000115284
0.000111973
0.000108869
0.000105948
0.000103194
0.000100597
9.81418e-05
9.58144e-05
9.36064e-05
9.15031e-05
8.9505e-05
8.75627e-05
8.57469e-05
8.37785e-05
8.23108e-05
3.85907e-05
2.73998e-05
4.30085e-05
7.43817e-05
9.57464e-05
0.000109069
0.000116282
0.000119553
0.000120458
0.000119902
0.000118442
0.00011643
0.000114083
0.000111546
0.000108913
0.000106242
0.000103575
0.000100938
9.83473e-05
9.58143e-05
9.33464e-05
9.09466e-05
8.86148e-05
8.63463e-05
8.41455e-05
8.20076e-05
7.99305e-05
7.7912e-05
7.59456e-05
7.40201e-05
7.21264e-05
7.02005e-05
6.83358e-05
1.99664e-05
2.35346e-05
2.20887e-05
1.2835e-05
2.92253e-06
1.22668e-05
2.27082e-05
3.12735e-05
3.81464e-05
4.35808e-05
4.78189e-05
5.10752e-05
5.35253e-05
5.53075e-05
5.65407e-05
5.73234e-05
5.77355e-05
5.78428e-05
5.76995e-05
5.73501e-05
5.68311e-05
5.61724e-05
5.54002e-05
5.45337e-05
5.35905e-05
5.25825e-05
5.15119e-05
5.03905e-05
4.9228e-05
4.80296e-05
4.68011e-05
4.55577e-05
4.43476e-05
1.32421e-05
1.50919e-05
1.99415e-05
2.20355e-05
2.14889e-05
1.9561e-05
1.69634e-05
1.4065e-05
1.10831e-05
8.14675e-06
5.33959e-06
2.72905e-06
6.26417e-07
2.05956e-06
3.98743e-06
5.71305e-06
7.22343e-06
8.52595e-06
9.63259e-06
1.0557e-05
1.13134e-05
1.19155e-05
1.23765e-05
1.27105e-05
1.29283e-05
1.30478e-05
1.30825e-05
1.3039e-05
1.29274e-05
1.27584e-05
1.25423e-05
1.23094e-05
1.20882e-05
1.01872e-05
1.10326e-05
1.18649e-05
1.26648e-05
1.32952e-05
1.38306e-05
1.42179e-05
1.44243e-05
1.44635e-05
1.43588e-05
1.41335e-05
1.38115e-05
1.34165e-05
1.29644e-05
1.24738e-05
1.19612e-05
1.14402e-05
1.09221e-05
1.04159e-05
9.92845e-06
9.46486e-06
9.02883e-06
8.62242e-06
8.24618e-06
7.89998e-06
7.58015e-06
7.28288e-06
7.00651e-06
6.7458e-06
6.49844e-06
6.25162e-06
5.99555e-06
5.68497e-06
7.53005e-06
8.26394e-06
8.6995e-06
8.94021e-06
8.84059e-06
8.63867e-06
8.47766e-06
8.38843e-06
8.36415e-06
8.38009e-06
8.40917e-06
8.43274e-06
8.44074e-06
8.43128e-06
8.40203e-06
8.35199e-06
8.28163e-06
8.19217e-06
8.08515e-06
7.96226e-06
7.82518e-06
7.67554e-06
7.51466e-06
7.34372e-06
7.16436e-06
6.97821e-06
6.79013e-06
6.59877e-06
6.40244e-06
6.19962e-06
5.98206e-06
5.74748e-06
5.47074e-06
5.74576e-06
6.62495e-06
7.03474e-06
7.15362e-06
6.90748e-06
6.5518e-06
6.22792e-06
5.9603e-06
5.7472e-06
5.57909e-06
5.4436e-06
5.33091e-06
5.23379e-06
5.1467e-06
5.06593e-06
4.98893e-06
4.9137e-06
4.83862e-06
4.76239e-06
4.68407e-06
4.60297e-06
4.51871e-06
4.43087e-06
4.33955e-06
4.2448e-06
4.14631e-06
4.0429e-06
3.9344e-06
3.81937e-06
3.69592e-06
3.5585e-06
3.40642e-06
3.22414e-06
4.46993e-06
5.26131e-06
5.57296e-06
5.73475e-06
5.65941e-06
5.45781e-06
5.22109e-06
4.98387e-06
4.76559e-06
4.57417e-06
4.4079e-06
4.2624e-06
4.13359e-06
4.01807e-06
3.91317e-06
3.8167e-06
3.72691e-06
3.6424e-06
3.56208e-06
3.48503e-06
3.41048e-06
3.33775e-06
3.26613e-06
3.19505e-06
3.12345e-06
3.05085e-06
2.97628e-06
2.89845e-06
2.81536e-06
2.72521e-06
2.62464e-06
2.51467e-06
2.38695e-06
3.53916e-06
4.25029e-06
4.54762e-06
4.7205e-06
4.69388e-06
4.53987e-06
4.34675e-06
4.15368e-06
3.97739e-06
3.82263e-06
3.68691e-06
3.56643e-06
3.45818e-06
3.35977e-06
3.26936e-06
3.18553e-06
3.10726e-06
3.03366e-06
2.96399e-06
2.89756e-06
2.83374e-06
2.77194e-06
2.71155e-06
2.65194e-06
2.59252e-06
2.53245e-06
2.47042e-06
2.40532e-06
2.33603e-06
2.26185e-06
2.18136e-06
2.09708e-06
2.00465e-06
2.84717e-06
3.4714e-06
3.75041e-06
3.91205e-06
3.92195e-06
3.82572e-06
3.68794e-06
3.53915e-06
3.39405e-06
3.25998e-06
3.13857e-06
3.02914e-06
2.93046e-06
2.8411e-06
2.75969e-06
2.685e-06
2.61599e-06
2.55173e-06
2.49139e-06
2.43427e-06
2.37974e-06
2.32724e-06
2.27619e-06
2.22606e-06
2.17625e-06
2.12614e-06
2.07508e-06
2.02253e-06
1.96795e-06
1.91127e-06
1.85232e-06
1.79458e-06
1.73605e-06
2.31922e-06
2.86222e-06
3.13873e-06
3.30546e-06
3.34816e-06
3.29122e-06
3.18442e-06
3.05864e-06
2.93122e-06
2.81149e-06
2.70247e-06
2.60418e-06
2.51572e-06
2.43591e-06
2.36354e-06
2.29753e-06
2.23695e-06
2.181e-06
2.12899e-06
2.08029e-06
2.03437e-06
1.99071e-06
1.9488e-06
1.90819e-06
1.86843e-06
1.82911e-06
1.78976e-06
1.75008e-06
1.70999e-06
1.67009e-06
1.63117e-06
1.59716e-06
1.56722e-06
1.90668e-06
2.3807e-06
2.65793e-06
2.82807e-06
2.8911e-06
2.86455e-06
2.78809e-06
2.68956e-06
2.5848e-06
2.48254e-06
2.38654e-06
2.298e-06
2.2171e-06
2.14351e-06
2.0766e-06
2.01573e-06
1.96021e-06
1.90941e-06
1.86272e-06
1.8196e-06
1.77952e-06
1.742e-06
1.70663e-06
1.67303e-06
1.64085e-06
1.60983e-06
1.57981e-06
1.55087e-06
1.52338e-06
1.49838e-06
1.47706e-06
1.46315e-06
1.45617e-06
1.57677e-06
1.99484e-06
2.27411e-06
2.45143e-06
2.53333e-06
2.53337e-06
2.48203e-06
2.40403e-06
2.31492e-06
2.22423e-06
2.137e-06
2.05552e-06
1.98067e-06
1.91252e-06
1.85075e-06
1.79483e-06
1.74422e-06
1.69836e-06
1.65672e-06
1.61883e-06
1.58423e-06
1.55254e-06
1.52342e-06
1.49658e-06
1.47181e-06
1.44902e-06
1.42825e-06
1.40977e-06
1.39414e-06
1.38251e-06
1.37611e-06
1.37819e-06
1.38825e-06
1.30705e-06
1.6823e-06
1.96416e-06
2.14986e-06
2.2467e-06
2.26719e-06
2.23616e-06
2.17609e-06
2.10212e-06
2.02372e-06
1.94623e-06
1.87244e-06
1.80369e-06
1.74047e-06
1.68282e-06
1.63054e-06
1.58331e-06
1.54076e-06
1.50249e-06
1.46813e-06
1.43734e-06
1.40981e-06
1.38527e-06
1.36354e-06
1.3445e-06
1.32818e-06
1.31474e-06
1.30458e-06
1.29834e-06
1.29715e-06
1.3021e-06
1.31577e-06
1.3376e-06
1.08191e-06
1.42653e-06
1.71135e-06
1.90613e-06
2.01638e-06
2.05457e-06
2.04148e-06
1.99712e-06
1.93585e-06
1.86712e-06
1.79677e-06
1.72824e-06
1.66347e-06
1.60341e-06
1.54847e-06
1.49868e-06
1.45389e-06
1.41385e-06
1.37829e-06
1.3469e-06
1.31942e-06
1.29559e-06
1.27523e-06
1.2582e-06
1.24448e-06
1.23413e-06
1.22738e-06
1.22465e-06
1.22652e-06
1.23394e-06
1.24773e-06
1.26984e-06
1.29964e-06
8.90251e-07
1.21551e-06
1.50411e-06
1.70808e-06
1.83027e-06
1.88324e-06
1.88506e-06
1.85387e-06
1.80345e-06
1.74329e-06
1.67954e-06
1.61604e-06
1.55508e-06
1.49795e-06
1.44531e-06
1.39742e-06
1.35431e-06
1.3159e-06
1.28202e-06
1.2525e-06
1.22714e-06
1.20579e-06
1.18831e-06
1.17464e-06
1.16478e-06
1.15883e-06
1.15702e-06
1.15971e-06
1.16739e-06
1.18078e-06
1.20047e-06
1.22785e-06
1.26235e-06
7.24163e-07
1.04063e-06
1.33418e-06
1.54704e-06
1.68004e-06
1.7458e-06
1.76065e-06
1.74106e-06
1.7002e-06
1.6474e-06
1.58903e-06
1.52928e-06
1.47082e-06
1.41531e-06
1.3637e-06
1.31651e-06
1.27397e-06
1.23617e-06
1.20305e-06
1.17454e-06
1.15053e-06
1.13091e-06
1.11559e-06
1.10454e-06
1.09778e-06
1.09538e-06
1.09753e-06
1.10451e-06
1.11665e-06
1.13447e-06
1.15831e-06
1.18908e-06
1.22638e-06
5.78144e-07
8.96073e-07
1.19585e-06
1.41705e-06
1.55976e-06
1.63656e-06
1.6625e-06
1.65275e-06
1.61983e-06
1.57303e-06
1.51889e-06
1.4619e-06
1.40507e-06
1.35034e-06
1.29893e-06
1.25157e-06
1.20869e-06
1.17049e-06
1.13708e-06
1.10846e-06
1.08462e-06
1.06552e-06
1.05112e-06
1.0414e-06
1.03637e-06
1.0361e-06
1.0407e-06
1.05034e-06
1.06522e-06
1.08568e-06
1.11185e-06
1.14428e-06
1.18275e-06
4.48975e-07
7.78527e-07
1.08543e-06
1.31409e-06
1.46542e-06
1.5518e-06
1.58736e-06
1.58618e-06
1.56023e-06
1.51863e-06
1.46806e-06
1.41322e-06
1.35739e-06
1.30276e-06
1.25081e-06
1.20249e-06
1.1584e-06
1.11892e-06
1.08428e-06
1.05461e-06
1.02998e-06
1.01042e-06
9.95935e-07
9.86532e-07
9.82218e-07
9.83018e-07
9.88977e-07
1.00017e-06
1.01667e-06
1.03863e-06
1.06605e-06
1.09915e-06
1.13797e-06
3.36673e-07
6.87065e-07
1.00078e-06
1.23561e-06
1.39428e-06
1.48874e-06
1.53233e-06
1.53815e-06
1.51761e-06
1.47971e-06
1.43118e-06
1.37696e-06
1.32057e-06
1.26451e-06
1.21046e-06
1.1596e-06
1.11274e-06
1.07041e-06
1.03299e-06
1.00073e-06
9.73789e-07
9.52288e-07
9.36285e-07
9.25815e-07
9.20884e-07
9.21487e-07
9.27606e-07
9.39222e-07
9.56297e-07
9.78822e-07
1.00669e-06
1.03987e-06
1.07857e-06
2.48151e-07
6.22996e-07
9.41151e-07
1.18043e-06
1.34514e-06
1.44657e-06
1.4972e-06
1.50931e-06
1.49379e-06
1.45943e-06
1.413e-06
1.35956e-06
1.3028e-06
1.24539e-06
1.18921e-06
1.13561e-06
1.08556e-06
1.03975e-06
9.98708e-07
9.62813e-07
9.32366e-07
9.07592e-07
8.88652e-07
8.75652e-07
8.68645e-07
8.67632e-07
8.72566e-07
8.83366e-07
8.999e-07
9.2203e-07
9.49549e-07
9.82182e-07
1.02039e-06
2.0485e-07
5.89128e-07
9.06604e-07
1.14787e-06
1.3168e-06
1.42337e-06
1.47905e-06
1.4953e-06
1.48249e-06
1.44926e-06
1.40241e-06
1.34717e-06
1.28745e-06
1.22614e-06
1.16534e-06
1.10661e-06
1.05107e-06
9.99576e-07
9.52792e-07
9.11242e-07
8.75359e-07
8.45495e-07
8.21935e-07
8.04889e-07
7.94487e-07
7.90768e-07
7.93683e-07
8.03099e-07
8.18797e-07
8.40511e-07
8.67911e-07
9.00523e-07
9.3886e-07
2.31138e-07
5.88427e-07
8.98222e-07
1.13904e-06
1.31114e-06
1.42254e-06
1.48357e-06
1.50483e-06
1.49612e-06
1.46574e-06
1.42037e-06
1.36523e-06
1.3043e-06
1.24055e-06
1.17622e-06
1.11297e-06
1.05206e-06
9.945e-07
9.41077e-07
8.92479e-07
8.49312e-07
8.12123e-07
7.81408e-07
7.57596e-07
7.41023e-07
7.31906e-07
7.30311e-07
7.36148e-07
7.49166e-07
7.68986e-07
7.95163e-07
8.26911e-07
8.64983e-07
3.13773e-07
6.2183e-07
9.16528e-07
1.15335e-06
1.32559e-06
1.43842e-06
1.50075e-06
1.52239e-06
1.51276e-06
1.4801e-06
1.4312e-06
1.37144e-06
1.30498e-06
1.23496e-06
1.16374e-06
1.09308e-06
1.02432e-06
9.58494e-07
8.9647e-07
8.39e-07
7.86792e-07
7.40555e-07
7.01001e-07
6.6884e-07
6.44726e-07
6.29193e-07
6.22564e-07
6.24888e-07
6.35914e-07
6.55114e-07
6.81812e-07
7.14919e-07
7.54951e-07
4.27917e-07
6.88554e-07
9.64081e-07
1.19613e-06
1.36997e-06
1.48748e-06
1.55578e-06
1.5835e-06
1.57916e-06
1.55042e-06
1.50374e-06
1.44439e-06
1.37651e-06
1.30336e-06
1.22742e-06
1.15058e-06
1.07431e-06
9.99757e-07
9.2787e-07
8.59476e-07
7.95372e-07
7.36384e-07
6.83426e-07
6.37527e-07
5.99819e-07
5.71453e-07
5.53444e-07
5.46451e-07
5.50597e-07
5.65372e-07
5.89864e-07
6.22339e-07
6.63322e-07
5.63739e-07
7.86438e-07
1.03959e-06
1.2616e-06
1.42967e-06
1.54223e-06
1.6052e-06
1.62694e-06
1.61613e-06
1.58062e-06
1.52705e-06
1.46077e-06
1.38595e-06
1.30578e-06
1.22264e-06
1.13831e-06
1.0541e-06
9.7102e-07
8.89862e-07
8.11302e-07
7.35996e-07
6.64667e-07
5.98205e-07
5.3778e-07
4.84954e-07
4.41737e-07
4.10468e-07
3.93375e-07
3.918e-07
4.05535e-07
4.32941e-07
4.71081e-07
5.19122e-07
7.20489e-07
9.1629e-07
1.15179e-06
1.37129e-06
1.54596e-06
1.66976e-06
1.74543e-06
1.77906e-06
1.77783e-06
1.74881e-06
1.69845e-06
1.63227e-06
1.5548e-06
1.46966e-06
1.37965e-06
1.28692e-06
1.19304e-06
1.0992e-06
1.00624e-06
9.14806e-07
8.25416e-07
7.38535e-07
6.54683e-07
5.74558e-07
4.99218e-07
4.30385e-07
3.70875e-07
3.25065e-07
2.9861e-07
2.95964e-07
3.16944e-07
3.5581e-07
4.09032e-07
9.01984e-07
1.07807e-06
1.29035e-06
1.49017e-06
1.64533e-06
1.74935e-06
1.80637e-06
1.82397e-06
1.81006e-06
1.77169e-06
1.71479e-06
1.64418e-06
1.56366e-06
1.4762e-06
1.38407e-06
1.289e-06
1.19231e-06
1.09495e-06
9.97644e-07
9.0089e-07
8.05046e-07
7.10362e-07
6.17015e-07
5.25158e-07
4.3497e-07
3.46756e-07
2.61187e-07
1.80046e-07
1.09439e-07
7.35197e-08
1.05208e-07
1.72278e-07
2.50208e-07
1.1146e-06
1.28224e-06
1.4935e-06
1.713e-06
1.90073e-06
2.03943e-06
2.12594e-06
2.16451e-06
2.16235e-06
2.12746e-06
2.0675e-06
1.9891e-06
1.89771e-06
1.79758e-06
1.69195e-06
1.58319e-06
1.473e-06
1.36257e-06
1.2527e-06
1.1439e-06
1.03648e-06
9.30653e-07
8.26504e-07
7.24094e-07
6.23472e-07
5.24714e-07
4.27994e-07
3.33718e-07
2.43005e-07
1.59752e-07
1.0392e-07
1.26086e-07
1.97222e-07
1.36961e-06
1.52632e-06
1.6969e-06
1.85923e-06
1.98633e-06
2.07322e-06
2.12366e-06
2.1429e-06
2.13536e-06
2.10492e-06
2.05525e-06
1.9898e-06
1.91178e-06
1.82411e-06
1.72933e-06
1.62962e-06
1.5268e-06
1.42234e-06
1.31739e-06
1.21289e-06
1.10954e-06
1.00794e-06
9.08617e-07
8.12101e-07
7.19013e-07
6.30186e-07
5.46834e-07
4.70811e-07
4.0496e-07
3.53433e-07
3.21408e-07
3.13474e-07
3.2953e-07
1.6794e-06
1.85642e-06
2.08945e-06
2.35888e-06
2.59326e-06
2.7558e-06
2.84416e-06
2.86991e-06
2.8469e-06
2.78805e-06
2.70421e-06
2.60369e-06
2.49252e-06
2.37494e-06
2.25388e-06
2.13133e-06
2.00866e-06
1.88682e-06
1.76649e-06
1.64819e-06
1.53236e-06
1.41938e-06
1.30968e-06
1.20369e-06
1.10199e-06
1.00526e-06
9.14436e-07
8.30699e-07
7.55599e-07
6.9094e-07
6.3893e-07
6.01303e-07
5.80104e-07
2.07436e-06
2.20972e-06
2.28222e-06
2.35671e-06
2.44339e-06
2.53494e-06
2.6193e-06
2.68463e-06
2.72241e-06
2.72923e-06
2.70607e-06
2.65654e-06
2.58539e-06
2.49757e-06
2.39763e-06
2.28949e-06
2.17639e-06
2.06085e-06
1.94485e-06
1.8299e-06
1.71717e-06
1.60759e-06
1.50192e-06
1.40085e-06
1.30505e-06
1.21523e-06
1.1322e-06
1.05685e-06
9.90191e-07
9.33332e-07
8.87332e-07
8.53558e-07
8.30942e-07
2.57448e-06
2.88084e-06
3.29662e-06
3.71321e-06
3.9874e-06
4.10713e-06
4.11887e-06
4.06323e-06
3.96652e-06
3.84584e-06
3.7113e-06
3.56832e-06
3.42e-06
3.26833e-06
3.1149e-06
2.96111e-06
2.8083e-06
2.65775e-06
2.51059e-06
2.36783e-06
2.23035e-06
2.09887e-06
1.97401e-06
1.85628e-06
1.74616e-06
1.64406e-06
1.5504e-06
1.46554e-06
1.38985e-06
1.32356e-06
1.26697e-06
1.22004e-06
1.18305e-06
3.27703e-06
3.18817e-06
2.91673e-06
2.87312e-06
3.05809e-06
3.3266e-06
3.57262e-06
3.74824e-06
3.84307e-06
3.86858e-06
3.84458e-06
3.79052e-06
3.72203e-06
3.65015e-06
3.58164e-06
3.51982e-06
3.46565e-06
3.41862e-06
3.37749e-06
3.34074e-06
3.30691e-06
3.27467e-06
3.24298e-06
3.21101e-06
3.17815e-06
3.14399e-06
3.10827e-06
3.07086e-06
3.03177e-06
2.99125e-06
2.94953e-06
2.90855e-06
2.86547e-06
4.3119e-06
5.53781e-06
6.29245e-06
6.53671e-06
6.43167e-06
6.21036e-06
6.06422e-06
6.07755e-06
6.25705e-06
6.56323e-06
6.94155e-06
7.34378e-06
7.73479e-06
8.09192e-06
8.40248e-06
8.66089e-06
8.86631e-06
9.02073e-06
9.12782e-06
9.19202e-06
9.21807e-06
9.21064e-06
9.17412e-06
9.11253e-06
9.02944e-06
8.92792e-06
8.81061e-06
8.67957e-06
8.53671e-06
8.38309e-06
8.2207e-06
8.05127e-06
7.87644e-06
5.63739e-06
3.58055e-06
2.75662e-06
4.61625e-06
7.33616e-06
9.90606e-06
1.20893e-05
1.38209e-05
1.51132e-05
1.60082e-05
1.65534e-05
1.67979e-05
1.67907e-05
1.65781e-05
1.62021e-05
1.57005e-05
1.51058e-05
1.44461e-05
1.37448e-05
1.30209e-05
1.22898e-05
1.15636e-05
1.08514e-05
1.01602e-05
9.49486e-06
8.85847e-06
8.25293e-06
7.67845e-06
7.13519e-06
6.61953e-06
6.13344e-06
5.66406e-06
5.22123e-06
1.14385e-05
1.65094e-05
1.82703e-05
1.97752e-05
2.02376e-05
1.94793e-05
1.7722e-05
1.524e-05
1.23881e-05
9.70524e-06
8.08282e-06
8.4639e-06
1.0576e-05
1.34379e-05
1.64571e-05
1.93774e-05
2.20888e-05
2.45455e-05
2.67326e-05
2.86517e-05
3.03134e-05
3.17328e-05
3.29276e-05
3.39161e-05
3.47168e-05
3.53477e-05
3.58263e-05
3.61692e-05
3.63935e-05
3.65166e-05
3.65599e-05
3.65448e-05
3.65179e-05
2.48872e-05
2.86596e-05
3.90128e-05
5.34595e-05
6.77281e-05
8.16541e-05
9.44996e-05
0.000105657
0.00011508
0.000122842
0.000129051
0.00013386
0.00013744
0.000139956
0.00014156
0.000142391
0.000142573
0.000142214
0.000141407
0.000140233
0.00013876
0.000137045
0.000135136
0.000133076
0.000130897
0.000128627
0.00012629
0.000123902
0.000121483
0.000119034
0.000116578
0.000114115
0.000111866
0.000543323
0.000510571
0.000491581
0.000467864
0.000443805
0.000421426
0.000399888
0.00037926
0.000359814
0.00034157
0.000324517
0.000308643
0.000293906
0.000280245
0.000267591
0.000255871
0.00024501
0.000234936
0.000225578
0.000216872
0.000208756
0.000201174
0.000194075
0.000187414
0.000181148
0.000175239
0.000169653
0.000164359
0.000159313
0.000154517
0.000149803
0.000145732
0.000142001
8.55295e-05
8.61647e-05
9.11677e-05
8.7215e-05
7.92191e-05
6.8132e-05
5.69311e-05
4.71175e-05
3.9431e-05
3.36811e-05
2.9221e-05
2.53219e-05
2.14522e-05
1.81711e-05
1.87681e-05
2.72551e-05
3.95357e-05
4.55916e-05
3.77211e-05
1.83605e-05
1.09214e-05
2.30664e-05
2.68674e-05
2.47653e-05
2.16207e-05
1.93609e-05
1.77286e-05
1.62656e-05
1.48519e-05
1.3513e-05
1.22713e-05
1.11276e-05
1.00723e-05
9.09114e-06
8.17141e-06
7.31387e-06
6.53567e-06
5.85911e-06
5.29405e-06
4.82852e-06
4.43443e-06
4.08206e-06
3.75188e-06
3.43747e-06
3.14108e-06
2.86713e-06
2.61782e-06
2.39187e-06
2.18544e-06
1.9939e-06
1.8135e-06
1.64232e-06
1.48043e-06
1.32914e-06
1.1899e-06
1.06354e-06
9.49932e-07
8.48234e-07
7.57316e-07
6.76064e-07
6.03519e-07
5.38862e-07
4.81364e-07
4.30348e-07
3.85186e-07
3.45296e-07
3.10137e-07
2.79209e-07
2.52064e-07
2.2824e-07
2.0735e-07
1.89042e-07
1.7312e-07
1.59095e-07
1.46936e-07
1.3651e-07
1.27654e-07
1.20224e-07
1.14085e-07
1.09096e-07
1.05114e-07
1.01995e-07
9.96031e-08
9.78116e-08
9.65073e-08
9.55909e-08
9.49823e-08
9.46107e-08
9.44309e-08
9.43851e-08
9.44743e-08
9.46084e-08
9.49007e-08
9.50912e-08
9.56319e-08
9.57154e-08
9.666e-08
9.6491e-08
9.79979e-08
9.62494e-08
0.000104805
0.000102126
0.000103086
0.000103762
0.00010299
9.94462e-05
9.31062e-05
8.43579e-05
7.44715e-05
6.49062e-05
5.68098e-05
5.09711e-05
4.822e-05
4.93798e-05
5.33815e-05
5.62283e-05
5.20773e-05
3.74803e-05
1.55909e-05
1.00782e-05
2.31387e-05
2.72967e-05
2.55688e-05
2.25429e-05
2.02588e-05
1.86397e-05
1.7235e-05
1.58721e-05
1.45514e-05
1.32971e-05
1.21208e-05
1.10268e-05
1.00115e-05
9.06281e-06
8.16847e-06
7.32953e-06
6.5642e-06
5.89637e-06
5.33754e-06
4.87678e-06
4.48618e-06
4.13567e-06
3.80548e-06
3.48936e-06
3.19009e-06
2.91268e-06
2.65984e-06
2.43062e-06
2.22135e-06
2.02743e-06
1.84496e-06
1.67186e-06
1.50801e-06
1.35463e-06
1.21323e-06
1.08471e-06
9.69023e-07
8.65375e-07
7.72634e-07
6.89674e-07
6.15528e-07
5.49382e-07
4.90515e-07
4.38257e-07
3.91974e-07
3.51065e-07
3.14979e-07
2.83211e-07
2.55312e-07
2.30852e-07
2.09466e-07
1.90823e-07
1.7456e-07
1.60483e-07
1.48388e-07
1.37934e-07
1.28972e-07
1.21329e-07
1.1485e-07
1.09396e-07
1.0484e-07
1.0106e-07
9.79492e-08
9.54071e-08
9.33455e-08
9.16859e-08
9.03618e-08
8.93134e-08
8.84981e-08
8.78639e-08
8.74038e-08
8.70355e-08
8.68495e-08
8.66004e-08
8.6712e-08
8.63368e-08
8.69498e-08
8.59735e-08
8.76279e-08
8.44474e-08
8.91874e-05
8.91045e-05
9.01022e-05
9.15303e-05
9.29661e-05
9.38474e-05
9.38636e-05
9.24719e-05
8.94414e-05
8.50927e-05
8.01569e-05
7.54649e-05
7.14025e-05
6.67806e-05
5.94153e-05
4.69942e-05
2.88923e-05
8.13117e-06
1.26312e-05
2.42388e-05
2.7678e-05
2.60296e-05
2.31331e-05
2.08787e-05
1.93172e-05
1.80141e-05
1.67455e-05
1.54849e-05
1.42575e-05
1.30822e-05
1.19704e-05
1.09289e-05
9.95598e-06
9.04042e-06
8.17119e-06
7.35052e-06
6.59789e-06
5.93878e-06
5.38623e-06
4.93029e-06
4.54322e-06
4.19457e-06
3.86431e-06
3.54634e-06
3.24393e-06
2.96274e-06
2.70598e-06
2.47306e-06
2.26052e-06
2.06376e-06
1.87881e-06
1.70341e-06
1.53725e-06
1.38151e-06
1.23772e-06
1.10688e-06
9.89032e-07
8.83431e-07
7.88949e-07
7.04438e-07
6.28903e-07
5.6151e-07
5.01526e-07
4.48273e-07
4.01116e-07
3.59456e-07
3.22739e-07
2.90455e-07
2.62151e-07
2.37393e-07
2.15805e-07
1.97045e-07
1.80811e-07
1.66796e-07
1.54723e-07
1.44382e-07
1.35571e-07
1.28102e-07
1.21797e-07
1.16497e-07
1.12063e-07
1.08373e-07
1.05316e-07
1.02798e-07
1.00735e-07
9.9055e-08
9.76963e-08
9.66062e-08
9.57443e-08
9.50664e-08
9.45584e-08
9.41581e-08
9.39171e-08
9.36643e-08
9.36701e-08
9.33676e-08
9.36844e-08
9.30476e-08
9.38369e-08
9.11685e-08
5.7897e-05
5.8324e-05
5.96342e-05
6.12571e-05
6.28137e-05
6.41769e-05
6.53773e-05
6.61853e-05
6.62128e-05
6.50754e-05
6.24129e-05
5.79373e-05
5.08895e-05
4.07075e-05
2.7229e-05
1.11965e-05
5.55427e-06
1.89947e-05
2.6413e-05
2.7873e-05
2.58742e-05
2.31808e-05
2.1146e-05
1.97512e-05
1.85878e-05
1.74344e-05
1.62625e-05
1.50985e-05
1.39618e-05
1.28638e-05
1.18159e-05
1.08266e-05
9.89556e-06
9.01297e-06
8.16899e-06
7.36692e-06
6.62744e-06
5.97758e-06
5.43194e-06
4.98159e-06
4.59886e-06
4.25287e-06
3.92316e-06
3.60375e-06
3.29845e-06
3.01359e-06
2.75297e-06
2.51637e-06
2.30053e-06
2.10093e-06
1.91349e-06
1.73577e-06
1.56733e-06
1.40922e-06
1.263e-06
1.12975e-06
1.00962e-06
9.01906e-07
8.05483e-07
7.19187e-07
6.42002e-07
5.73079e-07
5.11675e-07
4.57105e-07
4.08727e-07
3.65937e-07
3.28182e-07
2.94952e-07
2.65791e-07
2.40266e-07
2.18e-07
1.9865e-07
1.81893e-07
1.6744e-07
1.55045e-07
1.4449e-07
1.35508e-07
1.27908e-07
1.2151e-07
1.1615e-07
1.1168e-07
1.07969e-07
1.049e-07
1.02373e-07
1.00302e-07
9.86126e-08
9.72431e-08
9.61393e-08
9.5261e-08
9.45637e-08
9.40336e-08
9.36081e-08
9.3338e-08
9.30533e-08
9.30183e-08
9.26723e-08
9.29335e-08
9.22164e-08
9.29906e-08
9.02984e-08
1.6089e-05
1.66314e-05
1.76491e-05
1.89266e-05
2.02532e-05
2.15027e-05
2.25869e-05
2.32985e-05
2.33474e-05
2.23646e-05
1.99632e-05
1.57296e-05
9.95182e-06
6.16512e-06
1.17593e-05
1.95067e-05
2.5201e-05
2.75359e-05
2.68876e-05
2.47461e-05
2.25965e-05
2.1048e-05
1.99352e-05
1.8936e-05
1.79057e-05
1.68427e-05
1.57742e-05
1.47127e-05
1.36648e-05
1.26412e-05
1.16554e-05
1.07176e-05
9.82845e-06
8.97911e-06
8.16087e-06
7.37807e-06
6.65253e-06
6.01273e-06
5.47482e-06
5.03084e-06
4.65323e-06
4.31057e-06
3.98198e-06
3.66155e-06
3.35362e-06
3.06524e-06
2.80081e-06
2.5605e-06
2.34129e-06
2.13872e-06
1.94867e-06
1.76855e-06
1.59773e-06
1.43718e-06
1.28849e-06
1.1528e-06
1.03038e-06
9.20564e-07
8.22249e-07
7.34248e-07
6.55524e-07
5.8521e-07
5.22555e-07
4.66866e-07
4.17493e-07
3.73826e-07
3.35303e-07
3.01411e-07
2.71686e-07
2.45694e-07
2.23052e-07
2.03407e-07
1.86437e-07
1.7184e-07
1.59359e-07
1.48713e-07
1.39694e-07
1.32094e-07
1.25723e-07
1.20407e-07
1.15993e-07
1.12347e-07
1.09348e-07
1.06895e-07
1.04898e-07
1.03282e-07
1.01984e-07
1.00949e-07
1.00136e-07
9.95005e-08
9.9027e-08
9.86574e-08
9.84312e-08
9.82024e-08
9.81808e-08
9.792e-08
9.80989e-08
9.76187e-08
9.80571e-08
9.58134e-08
7.09828e-06
6.63847e-06
5.98797e-06
5.40333e-06
5.36762e-06
6.16454e-06
7.58019e-06
9.28718e-06
1.10885e-05
1.29607e-05
1.50219e-05
1.73488e-05
1.99128e-05
2.24233e-05
2.43911e-05
2.53674e-05
2.51748e-05
2.40896e-05
2.27065e-05
2.15229e-05
2.06298e-05
1.98492e-05
1.9026e-05
1.81315e-05
1.71996e-05
1.62544e-05
1.5299e-05
1.43342e-05
1.33683e-05
1.24154e-05
1.14903e-05
1.06033e-05
9.75567e-06
8.93959e-06
8.14739e-06
7.38433e-06
6.67332e-06
6.04423e-06
5.51473e-06
5.07785e-06
4.7061e-06
4.36749e-06
4.04063e-06
3.71959e-06
3.4093e-06
3.11754e-06
2.84934e-06
2.60531e-06
2.38267e-06
2.17706e-06
1.98433e-06
1.80174e-06
1.62852e-06
1.46552e-06
1.31431e-06
1.17614e-06
1.05136e-06
9.39374e-07
8.39077e-07
7.49269e-07
6.68886e-07
5.97044e-07
5.3298e-07
4.75997e-07
4.25438e-07
3.80689e-07
3.41184e-07
3.06407e-07
2.7589e-07
2.49198e-07
2.2594e-07
2.05762e-07
1.88334e-07
1.73351e-07
1.60546e-07
1.49659e-07
1.4047e-07
1.32744e-07
1.26287e-07
1.20919e-07
1.16478e-07
1.12822e-07
1.09826e-07
1.07383e-07
1.054e-07
1.03799e-07
1.02515e-07
1.01491e-07
1.00686e-07
1.00055e-07
9.95824e-08
9.92085e-08
9.8974e-08
9.87313e-08
9.86896e-08
9.84039e-08
9.85498e-08
9.80216e-08
9.84715e-08
9.6189e-08
6.88909e-06
6.5749e-06
6.1745e-06
5.92222e-06
6.20121e-06
7.17421e-06
8.69906e-06
1.0542e-05
1.24973e-05
1.44171e-05
1.61876e-05
1.77988e-05
1.91384e-05
2.0129e-05
2.07256e-05
2.09269e-05
2.08301e-05
2.0596e-05
2.03122e-05
1.99481e-05
1.94473e-05
1.881e-05
1.80839e-05
1.73141e-05
1.65173e-05
1.56921e-05
1.48373e-05
1.39596e-05
1.30711e-05
1.21867e-05
1.13208e-05
1.04837e-05
9.67721e-06
8.89443e-06
8.12858e-06
7.38577e-06
6.68991e-06
6.07223e-06
5.55186e-06
5.12283e-06
4.75767e-06
4.42381e-06
4.09924e-06
3.77805e-06
3.46568e-06
3.17068e-06
2.89878e-06
2.65102e-06
2.42488e-06
2.21613e-06
2.02061e-06
1.83546e-06
1.65975e-06
1.49423e-06
1.34046e-06
1.19976e-06
1.07257e-06
9.58376e-07
8.56081e-07
7.64468e-07
6.82448e-07
6.09118e-07
5.43707e-07
4.85509e-07
4.33862e-07
3.88145e-07
3.47787e-07
3.12265e-07
2.8111e-07
2.53881e-07
2.30185e-07
2.09658e-07
1.91967e-07
1.76799e-07
1.63879e-07
1.52937e-07
1.43716e-07
1.35995e-07
1.29568e-07
1.24249e-07
1.19872e-07
1.16289e-07
1.13371e-07
1.11007e-07
1.09103e-07
1.07578e-07
1.06367e-07
1.05413e-07
1.04673e-07
1.04102e-07
1.03682e-07
1.0336e-07
1.03165e-07
1.02969e-07
1.02939e-07
1.02719e-07
1.02802e-07
1.02445e-07
1.02655e-07
1.0069e-07
4.02407e-06
3.81492e-06
3.61439e-06
3.64657e-06
4.16157e-06
5.17317e-06
6.53758e-06
8.11423e-06
9.79575e-06
1.14955e-05
1.31243e-05
1.45959e-05
1.58636e-05
1.69093e-05
1.77259e-05
1.83265e-05
1.87248e-05
1.89115e-05
1.88754e-05
1.86358e-05
1.8241e-05
1.77424e-05
1.71736e-05
1.65492e-05
1.58733e-05
1.51494e-05
1.43845e-05
1.35888e-05
1.27747e-05
1.19563e-05
1.11477e-05
1.03595e-05
9.59367e-06
8.84412e-06
8.10481e-06
7.38264e-06
6.70249e-06
6.09686e-06
5.5863e-06
5.16579e-06
4.80794e-06
4.47949e-06
4.1578e-06
3.83688e-06
3.52271e-06
3.22464e-06
2.94908e-06
2.69758e-06
2.46788e-06
2.25589e-06
2.05746e-06
1.86966e-06
1.6914e-06
1.5233e-06
1.36692e-06
1.22363e-06
1.09399e-06
9.77522e-07
8.7317e-07
7.79689e-07
6.95965e-07
6.21073e-07
5.5423e-07
4.94724e-07
4.41887e-07
3.95091e-07
3.5376e-07
3.17368e-07
2.85441e-07
2.57537e-07
2.33257e-07
2.12234e-07
1.94129e-07
1.78623e-07
1.65433e-07
1.54279e-07
1.44912e-07
1.37106e-07
1.30637e-07
1.2531e-07
1.20947e-07
1.17394e-07
1.14515e-07
1.12197e-07
1.10339e-07
1.08859e-07
1.0769e-07
1.06772e-07
1.06064e-07
1.05519e-07
1.05121e-07
1.04813e-07
1.04626e-07
1.04435e-07
1.04396e-07
1.04172e-07
1.04223e-07
1.03856e-07
1.04043e-07
1.02077e-07
3.00089e-06
2.90966e-06
2.89045e-06
3.11211e-06
3.7054e-06
4.64882e-06
5.84216e-06
7.19291e-06
8.6257e-06
1.00679e-05
1.14705e-05
1.2798e-05
1.40161e-05
1.5089e-05
1.59839e-05
1.66743e-05
1.71447e-05
1.73993e-05
1.74611e-05
1.73597e-05
1.71236e-05
1.67776e-05
1.63418e-05
1.58304e-05
1.52541e-05
1.46213e-05
1.39409e-05
1.3223e-05
1.24796e-05
1.17245e-05
1.09716e-05
1.02311e-05
9.50549e-06
8.789e-06
8.07633e-06
7.37516e-06
6.71125e-06
6.11832e-06
5.61825e-06
5.20694e-06
4.85706e-06
4.53466e-06
4.21641e-06
3.89619e-06
3.58051e-06
3.27953e-06
3.00038e-06
2.74513e-06
2.51179e-06
2.29645e-06
2.095e-06
1.90443e-06
1.72352e-06
1.55277e-06
1.39371e-06
1.24779e-06
1.11562e-06
9.96841e-07
8.9039e-07
7.95016e-07
7.09573e-07
6.33116e-07
5.6485e-07
5.04057e-07
4.50063e-07
4.02234e-07
3.59989e-07
3.22797e-07
2.90179e-07
2.61692e-07
2.3693e-07
2.15523e-07
1.97126e-07
1.81414e-07
1.68092e-07
1.56878e-07
1.47506e-07
1.39725e-07
1.33306e-07
1.28053e-07
1.23778e-07
1.20321e-07
1.17543e-07
1.15323e-07
1.1356e-07
1.12171e-07
1.11086e-07
1.10247e-07
1.0961e-07
1.09131e-07
1.08789e-07
1.08534e-07
1.08387e-07
1.0824e-07
1.08215e-07
1.08045e-07
1.08047e-07
1.07809e-07
1.07816e-07
1.0607e-07
2.55593e-06
2.54913e-06
2.63837e-06
2.93743e-06
3.51865e-06
4.36164e-06
5.39982e-06
6.56842e-06
7.81444e-06
9.09454e-06
1.03651e-05
1.15792e-05
1.26963e-05
1.3687e-05
1.45295e-05
1.52091e-05
1.57185e-05
1.60565e-05
1.62271e-05
1.62426e-05
1.61222e-05
1.58872e-05
1.55558e-05
1.51422e-05
1.4657e-05
1.4109e-05
1.35076e-05
1.28628e-05
1.21866e-05
1.14922e-05
1.07931e-05
1.00994e-05
9.41325e-06
8.72953e-06
8.04354e-06
7.36366e-06
6.7165e-06
6.13688e-06
5.64792e-06
5.24645e-06
4.90515e-06
4.58941e-06
4.27514e-06
3.95606e-06
3.63915e-06
3.3354e-06
3.05273e-06
2.7937e-06
2.55665e-06
2.33784e-06
2.13323e-06
1.93976e-06
1.75609e-06
1.58263e-06
1.42083e-06
1.2722e-06
1.13746e-06
1.0163e-06
9.07691e-07
8.10371e-07
7.2316e-07
6.45087e-07
5.75343e-07
5.13204e-07
4.57989e-07
4.09058e-07
3.65825e-07
3.27754e-07
2.94361e-07
2.65202e-07
2.39869e-07
2.17984e-07
1.992e-07
1.83184e-07
1.69634e-07
1.58257e-07
1.48779e-07
1.4095e-07
1.34535e-07
1.29313e-07
1.25093e-07
1.21705e-07
1.19003e-07
1.16862e-07
1.15177e-07
1.13862e-07
1.12845e-07
1.12066e-07
1.11482e-07
1.11048e-07
1.10744e-07
1.1052e-07
1.10396e-07
1.10267e-07
1.10244e-07
1.10083e-07
1.10061e-07
1.0983e-07
1.09806e-07
1.08069e-07
2.25818e-06
2.32431e-06
2.49273e-06
2.83568e-06
3.39187e-06
4.14703e-06
5.05876e-06
6.08186e-06
7.17561e-06
8.30096e-06
9.42146e-06
1.05053e-05
1.15254e-05
1.24568e-05
1.32759e-05
1.39626e-05
1.45031e-05
1.48909e-05
1.51289e-05
1.52266e-05
1.51972e-05
1.50551e-05
1.48143e-05
1.4487e-05
1.40836e-05
1.36131e-05
1.30848e-05
1.25087e-05
1.18963e-05
1.12602e-05
1.06131e-05
9.96483e-06
9.3175e-06
8.66619e-06
8.00683e-06
7.3485e-06
6.71857e-06
6.15285e-06
5.67563e-06
5.28457e-06
4.95243e-06
4.6439e-06
4.33413e-06
4.01659e-06
3.69873e-06
3.39238e-06
3.10623e-06
2.84341e-06
2.60257e-06
2.38016e-06
2.17224e-06
1.97572e-06
1.78918e-06
1.6129e-06
1.44829e-06
1.29689e-06
1.1595e-06
1.03591e-06
9.25099e-07
8.25795e-07
7.36787e-07
6.57079e-07
5.85847e-07
5.22359e-07
4.65929e-07
4.15913e-07
3.71717e-07
3.32802e-07
2.98681e-07
2.68905e-07
2.43064e-07
2.20777e-07
2.01688e-07
1.85462e-07
1.71785e-07
1.60356e-07
1.5089e-07
1.43119e-07
1.36794e-07
1.31683e-07
1.27589e-07
1.24333e-07
1.21763e-07
1.19749e-07
1.18186e-07
1.16984e-07
1.1607e-07
1.15386e-07
1.14886e-07
1.14527e-07
1.14288e-07
1.14122e-07
1.14044e-07
1.13961e-07
1.13958e-07
1.13846e-07
1.13788e-07
1.1366e-07
1.13495e-07
1.11905e-07
2.08109e-06
2.1987e-06
2.41111e-06
2.76352e-06
3.27869e-06
3.94906e-06
4.74833e-06
5.64514e-06
6.60893e-06
7.61022e-06
8.62039e-06
9.61084e-06
1.05542e-05
1.14261e-05
1.2206e-05
1.28769e-05
1.34266e-05
1.38478e-05
1.41383e-05
1.4301e-05
1.43438e-05
1.42775e-05
1.41135e-05
1.3862e-05
1.35323e-05
1.31329e-05
1.26728e-05
1.21614e-05
1.16096e-05
1.10292e-05
1.04324e-05
9.82828e-06
9.2189e-06
8.59955e-06
7.96671e-06
7.33013e-06
6.71787e-06
6.16662e-06
5.70171e-06
5.3216e-06
4.99913e-06
4.69833e-06
4.39353e-06
4.07791e-06
3.75938e-06
3.45058e-06
3.16101e-06
2.89435e-06
2.64963e-06