/*--------------------------------*- C++ -*----------------------------------*\
  =========                 |
  \\      /  F ield         | OpenFOAM: The Open Source CFD Toolbox
   \\    /   O peration     | Website:  https://openfoam.org
    \\  /    A nd           | Version:  10
     \\/     M anipulation  |
\*---------------------------------------------------------------------------*/
FoamFile
{
    format      ascii;
    class       surfaceScalarField;
    location    "0.03";
    object      phi;
}
// * * * * * * * * * * * * * * * * * * * * * * * * * * * * * * * * * * * * * //

dimensions      [0 3 -1 0 0 0 0];

internalField   nonuniform List<scalar> 
13452
(
4.01939e-05
2.00746e-05
2.59395e-05
1.42544e-05
1.85407e-05
7.39871e-06
1.51746e-05
3.36617e-06
1.37678e-05
1.40678e-06
1.30691e-05
6.98743e-07
1.2626e-05
4.43095e-07
1.22867e-05
3.39299e-07
1.20016e-05
2.85091e-07
1.17588e-05
2.4277e-07
1.15543e-05
2.04533e-07
1.13842e-05
1.70044e-07
1.12447e-05
1.39575e-07
1.11316e-05
1.13074e-07
1.10415e-05
9.01154e-08
1.09713e-05
7.01196e-08
1.09188e-05
5.25281e-08
1.08819e-05
3.6894e-08
1.08592e-05
2.27345e-08
1.08494e-05
9.80512e-09
1.08517e-05
-2.26896e-09
1.08644e-05
-1.27223e-08
1.0887e-05
-2.26397e-08
1.09187e-05
-3.17212e-08
1.09591e-05
-4.03325e-08
1.10073e-05
-4.82402e-08
1.10632e-05
-5.59211e-08
1.11259e-05
-6.26303e-08
1.1197e-05
-7.11465e-08
1.12714e-05
-7.44247e-08
1.13691e-05
-9.76785e-08
1.14372e-05
-6.81098e-08
-2.9726e-07
1.17345e-05
6.59041e-05
1.61608e-05
6.19034e-05
1.82552e-05
5.56524e-05
1.36497e-05
4.97981e-05
9.22052e-06
4.532e-05
5.88489e-06
4.21285e-05
3.89023e-06
3.98469e-05
2.72464e-06
3.81765e-05
2.00973e-06
3.6912e-05
1.54956e-06
3.59228e-05
1.23203e-06
3.51286e-05
9.98669e-07
3.44794e-05
8.1926e-07
3.39424e-05
6.7658e-07
3.34954e-05
5.60056e-07
3.31228e-05
4.62747e-07
3.28131e-05
3.7985e-07
3.25576e-05
3.07957e-07
3.23499e-05
2.44617e-07
3.21847e-05
1.87943e-07
3.20578e-05
1.36702e-07
3.19655e-05
9.00153e-08
3.19056e-05
4.72121e-08
3.18761e-05
6.82267e-09
3.18744e-05
-3.00099e-08
3.18987e-05
-6.45709e-08
3.19472e-05
-9.68232e-08
3.20189e-05
-1.27554e-07
3.21126e-05
-1.56351e-07
3.22271e-05
-1.8569e-07
3.23645e-05
-2.11787e-07
3.2522e-05
-2.55168e-07
3.27421e-05
-2.88222e-07
-4.31064e-07
3.28759e-05
6.91814e-05
1.07408e-05
7.25096e-05
1.4927e-05
7.30681e-05
1.30912e-05
7.17035e-05
1.05851e-05
6.9473e-05
8.11533e-06
6.71134e-05
6.24982e-06
6.4908e-05
4.93014e-06
6.29473e-05
3.97034e-06
6.12423e-05
3.25462e-06
5.9771e-05
2.70335e-06
5.85045e-05
2.26511e-06
5.74152e-05
1.90861e-06
5.64783e-05
1.61345e-06
5.56729e-05
1.36546e-06
5.49813e-05
1.15431e-06
5.43889e-05
9.72257e-07
5.38834e-05
8.13449e-07
5.34547e-05
6.7338e-07
5.30941e-05
5.48522e-07
5.27946e-05
4.36216e-07
5.25502e-05
3.34389e-07
5.2356e-05
2.41418e-07
5.2207e-05
1.55848e-07
5.21e-05
7.69827e-08
5.2032e-05
3.36099e-09
5.20014e-05
-6.6208e-08
5.20054e-05
-1.31481e-07
5.20413e-05
-1.92308e-07
5.2106e-05
-2.50377e-07
5.21986e-05
-3.04394e-07
5.23077e-05
-3.64241e-07
5.24371e-05
-4.17649e-07
-4.99372e-07
5.25054e-05
6.88458e-05
7.47806e-06
7.21608e-05
1.1612e-05
7.45358e-05
1.07161e-05
7.5947e-05
9.17399e-06
7.6528e-05
7.53437e-06
7.65965e-05
6.18127e-06
7.63612e-05
5.16542e-06
7.59482e-05
4.38334e-06
7.54386e-05
3.76424e-06
7.48816e-05
3.26041e-06
7.43081e-05
2.83858e-06
7.37387e-05
2.47799e-06
7.31875e-05
2.16468e-06
7.26642e-05
1.88879e-06
7.21748e-05
1.64369e-06
7.17228e-05
1.42422e-06
7.131e-05
1.22623e-06
7.09371e-05
1.04635e-06
7.06037e-05
8.8188e-07
7.03092e-05
7.30672e-07
7.00526e-05
5.91004e-07
6.98326e-05
4.61486e-07
6.96476e-05
3.40821e-07
6.94962e-05
2.28391e-07
6.93761e-05
1.23403e-07
6.92848e-05
2.51436e-08
6.92206e-05
-6.73306e-08
6.91816e-05
-1.53287e-07
6.9165e-05
-2.33782e-07
6.91686e-05
-3.07931e-07
6.9183e-05
-3.78703e-07
6.92044e-05
-4.39055e-07
-4.90995e-07
6.9196e-05
6.95589e-05
5.37592e-06
7.18359e-05
9.33497e-06
7.35377e-05
9.01434e-06
7.4808e-05
7.90375e-06
7.56997e-05
6.64258e-06
7.63505e-05
5.53049e-06
7.68466e-05
4.66934e-06
7.72299e-05
4e-06
7.75288e-05
3.46539e-06
7.77619e-05
3.02734e-06
7.79422e-05
2.65828e-06
7.80801e-05
2.34002e-06
7.81835e-05
2.06126e-06
7.82583e-05
1.81399e-06
7.83102e-05
1.59179e-06
7.83445e-05
1.38995e-06
7.83657e-05
1.20501e-06
7.83778e-05
1.03432e-06
7.83838e-05
8.75788e-07
7.83867e-05
7.2782e-07
7.83885e-05
5.89172e-07
7.83911e-05
4.58874e-07
7.83958e-05
3.36136e-07
7.84037e-05
2.20553e-07
7.84153e-05
1.11775e-07
7.84298e-05
1.06606e-08
7.8446e-05
-8.35358e-08
7.84631e-05
-1.70413e-07
7.848e-05
-2.5066e-07
7.84952e-05
-3.23124e-07
7.85039e-05
-3.87459e-07
7.85024e-05
-4.37496e-07
-4.69253e-07
7.84806e-05
7.08403e-05
3.9196e-06
7.26282e-05
7.54708e-06
7.39364e-05
7.70616e-06
7.48687e-05
6.97144e-06
7.55015e-05
6.00982e-06
7.59538e-05
5.07819e-06
7.63125e-05
4.31058e-06
7.6618e-05
3.69458e-06
7.68902e-05
3.19312e-06
7.7139e-05
2.77853e-06
7.73685e-05
2.42881e-06
7.75807e-05
2.12785e-06
7.77774e-05
1.86453e-06
7.79603e-05
1.63108e-06
7.81304e-05
1.42175e-06
7.82882e-05
1.2321e-06
7.84345e-05
1.05874e-06
7.85698e-05
8.99028e-07
7.86947e-05
7.50901e-07
7.88097e-05
6.12781e-07
7.89154e-05
4.8346e-07
7.90123e-05
3.62022e-07
7.91006e-05
2.47763e-07
7.91809e-05
1.40273e-07
7.92534e-05
3.93287e-08
7.93191e-05
-5.51042e-08
7.93791e-05
-1.43474e-07
7.94336e-05
-2.24903e-07
7.94819e-05
-2.98996e-07
7.95231e-05
-3.64339e-07
7.95551e-05
-4.19405e-07
7.95765e-05
-4.58936e-07
-4.79732e-07
7.9587e-05
7.2389e-05
2.89694e-06
7.38421e-05
6.094e-06
7.49716e-05
6.57664e-06
7.57926e-05
6.15042e-06
7.63546e-05
5.44784e-06
7.67413e-05
4.69152e-06
7.70289e-05
4.02293e-06
7.72596e-05
3.46388e-06
7.74567e-05
2.99606e-06
7.76334e-05
2.60185e-06
7.77966e-05
2.26557e-06
7.79501e-05
1.97437e-06
7.80958e-05
1.71879e-06
7.8235e-05
1.49187e-06
7.83685e-05
1.28832e-06
7.84965e-05
1.10404e-06
7.86195e-05
9.35801e-07
7.87374e-05
7.81072e-07
7.88505e-05
6.37858e-07
7.89587e-05
5.04601e-07
7.9062e-05
3.80094e-07
7.91606e-05
2.63414e-07
7.92545e-05
1.53867e-07
7.93438e-05
5.09919e-08
7.94287e-05
-4.55532e-08
7.95095e-05
-1.35869e-07
7.95859e-05
-2.19957e-07
7.96581e-05
-2.97069e-07
7.97255e-05
-3.66418e-07
7.97877e-05
-4.26538e-07
7.98439e-05
-4.75593e-07
7.98943e-05
-5.09367e-07
-5.255e-07
7.99401e-05
7.41254e-05
2.17679e-06
7.52935e-05
4.92589e-06
7.62766e-05
5.59356e-06
7.7031e-05
5.39605e-06
7.75796e-05
4.89918e-06
7.7972e-05
4.29914e-06
7.82658e-05
3.72914e-06
7.84984e-05
3.23126e-06
7.86923e-05
2.80214e-06
7.88616e-05
2.43262e-06
7.90144e-05
2.11277e-06
7.91556e-05
1.83315e-06
7.92882e-05
1.58615e-06
7.94142e-05
1.36589e-06
7.95348e-05
1.16773e-06
7.96509e-05
9.8797e-07
7.9763e-05
8.23669e-07
7.98716e-05
6.72465e-07
7.9977e-05
5.32482e-07
8.00794e-05
4.02239e-07
8.01789e-05
2.80579e-07
8.02757e-05
1.66625e-07
8.03698e-05
5.96976e-08
8.04614e-05
-4.06202e-08
8.05505e-05
-1.34599e-07
8.06369e-05
-2.22297e-07
8.07206e-05
-3.03592e-07
8.08013e-05
-3.77853e-07
8.08791e-05
-4.44225e-07
8.0954e-05
-5.01369e-07
8.1026e-05
-5.47597e-07
8.10964e-05
-5.79788e-07
-5.96421e-07
8.11673e-05
7.60169e-05
1.66239e-06
7.69539e-05
3.98883e-06
7.78039e-05
4.74363e-06
7.8487e-05
4.71288e-06
7.901e-05
4.37626e-06
7.94012e-05
3.90793e-06
7.97028e-05
3.4275e-06
7.99461e-05
2.98794e-06
8.01507e-05
2.59756e-06
8.03293e-05
2.25402e-06
8.04899e-05
1.95216e-06
8.06375e-05
1.68556e-06
8.07753e-05
1.44836e-06
8.09054e-05
1.23574e-06
8.10294e-05
1.04374e-06
8.11483e-05
8.69097e-07
8.12628e-05
7.09149e-07
8.13735e-05
5.6174e-07
8.14809e-05
4.25131e-07
8.15852e-05
2.97935e-07
8.16867e-05
1.79062e-07
8.17857e-05
6.76753e-08
8.18822e-05
-3.68514e-08
8.19765e-05
-1.3491e-07
8.20686e-05
-2.26734e-07
8.21587e-05
-3.12353e-07
8.22467e-05
-3.91605e-07
8.23328e-05
-4.63984e-07
8.24174e-05
-5.28736e-07
8.25007e-05
-5.8475e-07
8.25838e-05
-6.30679e-07
8.26684e-05
-6.64353e-07
-6.85019e-07
8.2757e-05
7.80331e-05
1.28889e-06
7.87847e-05
3.23721e-06
7.95172e-05
4.0111e-06
8.01336e-05
4.09656e-06
8.06273e-05
3.88249e-06
8.10123e-05
3.52296e-06
8.13172e-05
3.12254e-06
8.15673e-05
2.73791e-06
8.17793e-05
2.38555e-06
8.19649e-05
2.06844e-06
8.21318e-05
1.78527e-06
8.2285e-05
1.53234e-06
8.24278e-05
1.3055e-06
8.25626e-05
1.10099e-06
8.26908e-05
9.15537e-07
8.28136e-05
7.46328e-07
8.29317e-05
5.91007e-07
8.30458e-05
4.47619e-07
8.31564e-05
3.14563e-07
8.32638e-05
1.90542e-07
8.33683e-05
7.45257e-08
8.34703e-05
-3.42859e-08
8.35699e-05
-1.36486e-07
8.36675e-05
-2.3246e-07
8.37632e-05
-3.22433e-07
8.38573e-05
-4.06452e-07
8.395e-05
-4.84381e-07
8.40419e-05
-5.55827e-07
8.41333e-05
-6.20192e-07
8.42252e-05
-6.76649e-07
8.43188e-05
-7.24264e-07
8.44162e-05
-7.61675e-07
-7.88794e-07
8.45199e-05
8.01547e-05
1.01252e-06
8.07593e-05
2.63256e-06
8.13901e-05
3.38031e-06
8.19454e-05
3.54132e-06
8.24087e-05
3.4192e-06
8.27836e-05
3.14804e-06
8.30885e-05
2.8176e-06
8.33429e-05
2.48353e-06
8.3561e-05
2.16743e-06
8.37531e-05
1.87639e-06
8.39262e-05
1.61214e-06
8.40852e-05
1.37331e-06
8.42334e-05
1.15731e-06
8.43731e-05
9.61355e-07
8.45058e-05
7.82844e-07
8.46327e-05
6.19411e-07
8.47547e-05
4.68996e-07
8.48725e-05
3.29848e-07
8.49865e-05
2.00502e-07
8.50973e-05
7.97536e-08
8.52052e-05
-3.33724e-08
8.53105e-05
-1.39636e-07
8.54137e-05
-2.39609e-07
8.55149e-05
-3.33683e-07
8.56146e-05
-4.22096e-07
8.5713e-05
-5.04926e-07
8.58107e-05
-5.82093e-07
8.59083e-05
-6.53341e-07
8.60063e-05
-7.18275e-07
8.61061e-05
-7.76372e-07
8.62089e-05
-8.27106e-07
8.6317e-05
-8.69759e-07
-9.04732e-07
8.64329e-05
8.23692e-05
8.03752e-07
8.2858e-05
2.1438e-06
8.34006e-05
2.83764e-06
8.38998e-05
3.04214e-06
8.43324e-05
2.98656e-06
8.46953e-05
2.78523e-06
8.49985e-05
2.51434e-06
8.52563e-05
2.22573e-06
8.54801e-05
1.94362e-06
8.56786e-05
1.67794e-06
8.58581e-05
1.43265e-06
8.60231e-05
1.20827e-06
8.61769e-05
1.00353e-06
8.63217e-05
8.16578e-07
8.64591e-05
6.45417e-07
8.65904e-05
4.88119e-07
8.67165e-05
3.42918e-07
8.6838e-05
2.08266e-07
8.69557e-05
8.28346e-08
8.70699e-05
-3.44928e-08
8.71812e-05
-1.44631e-07
8.72899e-05
-2.48308e-07
8.73964e-05
-3.46086e-07
8.7501e-05
-4.38369e-07
8.76044e-05
-5.25422e-07
8.77068e-05
-6.07377e-07
8.7809e-05
-6.84242e-07
8.79115e-05
-7.55909e-07
8.80154e-05
-8.22187e-07
8.81219e-05
-8.82831e-07
8.82325e-05
-9.3767e-07
8.83492e-05
-9.86482e-07
-1.03e-06
8.84745e-05
8.46689e-05
6.42666e-07
8.50667e-05
1.746e-06
8.55339e-05
2.37044e-06
8.59823e-05
2.59366e-06
8.63851e-05
2.58381e-06
8.67342e-05
2.43618e-06
8.70337e-05
2.21483e-06
8.72931e-05
1.96629e-06
8.75213e-05
1.71541e-06
8.77254e-05
1.47383e-06
8.7911e-05
1.24712e-06
8.8082e-05
1.03722e-06
8.82416e-05
8.43989e-07
8.83918e-05
6.66367e-07
8.85343e-05
5.02922e-07
8.86703e-05
3.52118e-07
8.88007e-05
2.12469e-07
8.89264e-05
8.26143e-08
8.90478e-05
-3.86477e-08
8.91657e-05
-1.52346e-07
8.92804e-05
-2.59343e-07
8.93924e-05
-3.60342e-07
8.95023e-05
-4.559e-07
8.96103e-05
-5.46439e-07
8.97172e-05
-6.32262e-07
8.98234e-05
-7.13564e-07
8.99296e-05
-7.9045e-07
9.00366e-05
-8.6295e-07
9.01455e-05
-9.31062e-07
9.02574e-05
-9.94784e-07
9.0374e-05
-1.05423e-06
9.0497e-05
-1.10954e-06
-1.16163e-06
9.06287e-05
8.70491e-05
5.15693e-07
8.73758e-05
1.41938e-06
8.77789e-05
1.96733e-06
8.81818e-05
2.19072e-06
8.85559e-05
2.20971e-06
8.88902e-05
2.10186e-06
8.91845e-05
1.92058e-06
8.94443e-05
1.70648e-06
8.9676e-05
1.48365e-06
8.98853e-05
1.26456e-06
9.00767e-05
1.05576e-06
9.02537e-05
8.60205e-07
9.0419e-05
6.78634e-07
9.05748e-05
5.10636e-07
9.07224e-05
3.55261e-07
9.08632e-05
2.11324e-07
9.09981e-05
7.75863e-08
9.11279e-05
-4.71383e-08
9.12531e-05
-1.6393e-07
9.13745e-05
-2.73741e-07
9.14926e-05
-3.77387e-07
9.16078e-05
-4.75549e-07
9.17207e-05
-5.68787e-07
9.18318e-05
-6.57543e-07
9.19417e-05
-7.42163e-07
9.2051e-05
-8.22908e-07
9.21605e-05
-8.99977e-07
9.22711e-05
-9.73527e-07
9.23838e-05
-1.04372e-06
9.24997e-05
-1.11074e-06
9.26204e-05
-1.17492e-06
9.27475e-05
-1.23664e-06
-1.29688e-06
9.28828e-05
8.95077e-05
4.13512e-07
8.97787e-05
1.14843e-06
9.01279e-05
1.61814e-06
9.04904e-05
1.82819e-06
9.08377e-05
1.86239e-06
9.11571e-05
1.78252e-06
9.1445e-05
1.63261e-06
9.17041e-05
1.44744e-06
9.19384e-05
1.24936e-06
9.2152e-05
1.0509e-06
9.23487e-05
8.59102e-07
9.25313e-05
6.77561e-07
9.27023e-05
5.07643e-07
9.28635e-05
3.49456e-07
9.30163e-05
2.02441e-07
9.31619e-05
6.571e-08
9.33013e-05
-6.17622e-08
9.34351e-05
-1.81009e-07
9.35642e-05
-2.93005e-07
9.36891e-05
-3.98633e-07
9.38104e-05
-4.9867e-07
9.39286e-05
-5.93782e-07
9.40444e-05
-6.84531e-07
9.41582e-05
-7.71385e-07
9.42708e-05
-8.5473e-07
9.43827e-05
-9.34889e-07
9.44949e-05
-1.01214e-06
9.46081e-05
-1.08676e-06
9.47234e-05
-1.15902e-06
9.4842e-05
-1.22925e-06
9.4965e-05
-1.29792e-06
9.50939e-05
-1.36556e-06
-1.43314e-06
9.52301e-05
9.20437e-05
3.29622e-07
9.22712e-05
9.20959e-07
9.25754e-05
1.31392e-06
9.29025e-05
1.50108e-06
9.32253e-05
1.53969e-06
9.35299e-05
1.47787e-06
9.3811e-05
1.35156e-06
9.40684e-05
1.19e-06
9.43045e-05
1.01326e-06
9.4522e-05
8.33399e-07
9.47236e-05
6.57495e-07
9.49117e-05
4.89469e-07
9.50882e-05
3.31093e-07
9.52549e-05
1.8284e-07
9.54129e-05
4.44505e-08
9.55633e-05
-8.47352e-08
9.57071e-05
-2.05566e-07
9.5845e-05
-3.1895e-07
9.59778e-05
-4.25775e-07
9.6106e-05
-5.26868e-07
9.62303e-05
-6.22972e-07
9.63513e-05
-7.14744e-07
9.64695e-05
-8.0275e-07
9.65856e-05
-8.87479e-07
9.67003e-05
-9.69357e-07
9.68141e-05
-1.04876e-06
9.6928e-05
-1.12603e-06
9.70428e-05
-1.20152e-06
9.71594e-05
-1.2756e-06
9.72788e-05
-1.34869e-06
9.74022e-05
-1.42133e-06
9.75308e-05
-1.49413e-06
-1.56797e-06
9.76656e-05
9.46574e-05
2.59406e-07
9.48509e-05
7.27462e-07
9.5118e-05
1.04684e-06
9.54144e-05
1.20463e-06
9.5715e-05
1.23912e-06
9.60057e-05
1.1871e-06
9.62798e-05
1.07752e-06
9.65352e-05
9.34608e-07
9.67725e-05
7.75901e-07
9.69934e-05
6.12525e-07
9.71996e-05
4.51305e-07
9.73929e-05
2.96196e-07
9.75748e-05
1.49168e-07
9.77467e-05
1.0916e-08
9.79098e-05
-1.1862e-07
9.8065e-05
-2.39932e-07
9.82132e-05
-3.53742e-07
9.83551e-05
-4.60859e-07
9.84914e-05
-5.62107e-07
9.86228e-05
-6.58267e-07
9.87499e-05
-7.50059e-07
9.88733e-05
-8.38131e-07
9.89936e-05
-9.23056e-07
9.91114e-05
-1.00534e-06
9.92275e-05
-1.08544e-06
9.93425e-05
-1.16378e-06
9.94573e-05
-1.24074e-06
9.95725e-05
-1.31673e-06
9.9689e-05
-1.39217e-06
9.98079e-05
-1.46754e-06
9.99299e-05
-1.54338e-06
0.000100056
-1.62034e-06
-1.69915e-06
0.000100187
9.73494e-05
1.99514e-07
9.75164e-05
5.6046e-07
9.77531e-05
8.1013e-07
9.80235e-05
9.3429e-07
9.83045e-05
9.5805e-07
9.85826e-05
9.09022e-07
9.88499e-05
8.10216e-07
9.91031e-05
6.81408e-07
9.93415e-05
5.37547e-07
9.95654e-05
3.88564e-07
9.9776e-05
2.40754e-07
9.99743e-05
9.78917e-08
0.000100161
-3.80434e-08
0.000100339
-1.66266e-07
0.000100507
-2.86732e-07
0.000100667
-3.99836e-07
0.000100819
-5.06216e-07
0.000100965
-6.06623e-07
0.000101105
-7.01832e-07
0.000101239
-7.92596e-07
0.000101369
-8.79621e-07
0.000101494
-9.63548e-07
0.000101616
-1.04496e-06
0.000101735
-1.12437e-06
0.000101852
-1.20227e-06
0.000101967
-1.27909e-06
0.000102082
-1.35525e-06
0.000102196
-1.43119e-06
0.000102311
-1.50736e-06
0.000102428
-1.58422e-06
0.000102547
-1.66232e-06
0.000102669
-1.74227e-06
-1.82466e-06
0.000102794
0.000100121
1.47456e-07
0.000100268
4.14034e-07
0.00010048
5.97947e-07
0.000100728
6.85778e-07
0.000100993
6.93693e-07
0.00010126
6.42071e-07
0.000101521
5.48928e-07
0.000101772
4.30149e-07
0.000102011
2.98167e-07
0.000102239
1.61558e-07
0.000102453
2.58986e-08
0.000102657
-1.05403e-07
0.000102849
-2.30514e-07
0.000103032
-3.48683e-07
0.000103205
-4.59854e-07
0.000103369
-5.64393e-07
0.000103526
-6.62906e-07
0.000103675
-7.56111e-07
0.000103818
-8.44765e-07
0.000103955
-9.29607e-07
0.000104087
-1.01133e-06
0.000104214
-1.09058e-06
0.000104337
-1.16795e-06
0.000104457
-1.24395e-06
0.000104573
-1.31909e-06
0.000104688
-1.39381e-06
0.000104802
-1.46855e-06
0.000104914
-1.54374e-06
0.000105027
-1.61982e-06
0.00010514
-1.69725e-06
0.000105254
-1.77653e-06
0.00010537
-1.85819e-06
-1.94267e-06
0.000105488
0.000102974
1.01329e-07
0.000103105
2.8344e-07
0.000103298
4.05212e-07
0.000103528
4.55049e-07
0.000103779
4.43179e-07
0.000104036
3.84405e-07
0.000104293
2.9259e-07
0.000104543
1.80254e-07
0.000104783
5.7462e-08
0.000105014
-6.86426e-08
0.000105233
-1.93342e-07
0.000105441
-3.13734e-07
0.000105639
-4.28268e-07
0.000105827
-5.36339e-07
0.000106005
-6.37964e-07
0.000106174
-7.33545e-07
0.000106335
-8.23702e-07
0.000106488
-9.09161e-07
0.000106634
-9.90678e-07
0.000106773
-1.06899e-06
0.000106906
-1.14481e-06
0.000107035
-1.21877e-06
0.000107158
-1.29145e-06
0.000107278
-1.36341e-06
0.000107394
-1.43511e-06
0.000107507
-1.50703e-06
0.000107618
-1.57958e-06
0.000107727
-1.65319e-06
0.000107836
-1.72827e-06
0.000107944
-1.80523e-06
0.000108052
-1.8845e-06
0.00010816
-1.96654e-06
-2.05165e-06
0.000108269
0.00010591
5.96335e-08
0.000106029
1.64799e-07
0.000106207
2.27475e-07
0.000106424
2.38262e-07
0.000106663
2.03542e-07
0.000106914
1.33888e-07
0.000107167
3.9744e-08
0.000107416
-6.92658e-08
0.000107659
-1.8526e-07
0.000107893
-3.02549e-07
0.000108117
-4.17364e-07
0.00010833
-5.27423e-07
0.000108534
-6.31567e-07
0.000108727
-7.29436e-07
0.00010891
-8.21203e-07
0.000109084
-9.07365e-07
0.000109249
-9.88605e-07
0.000109405
-1.06569e-06
0.000109554
-1.1394e-06
0.000109696
-1.2105e-06
0.00010983
-1.27969e-06
0.000109959
-1.34763e-06
0.000110083
-1.4149e-06
0.000110201
-1.48204e-06
0.000110316
-1.54954e-06
0.000110427
-1.61783e-06
0.000110534
-1.68732e-06
0.00011064
-1.7584e-06
0.000110743
-1.83144e-06
0.000110844
-1.90679e-06
0.000110945
-1.98481e-06
0.000111044
-2.06585e-06
-2.15008e-06
0.000111142
0.000108932
2.11468e-08
0.000109042
5.48593e-08
0.000109209
6.07718e-08
0.000109415
3.17443e-08
0.000109647
-2.82648e-08
0.000109893
-1.11849e-07
0.000110144
-2.11365e-07
0.000110394
-3.19682e-07
0.00011064
-4.30919e-07
0.000110878
-5.40829e-07
0.000111107
-6.46653e-07
0.000111327
-7.46818e-07
0.000111536
-8.40651e-07
0.000111735
-9.28125e-07
0.000111923
-1.00964e-06
0.000112101
-1.08584e-06
0.00011227
-1.15752e-06
0.00011243
-1.22553e-06
0.000112581
-1.29068e-06
0.000112725
-1.35378e-06
0.000112861
-1.41555e-06
0.00011299
-1.47665e-06
0.000113112
-1.53768e-06
0.00011323
-1.59916e-06
0.000113342
-1.66156e-06
0.000113449
-1.72531e-06
0.000113552
-1.79077e-06
0.000113652
-1.8583e-06
0.000113749
-1.9282e-06
0.000113843
-2.00078e-06
0.000113935
-2.07628e-06
0.000114024
-2.15499e-06
-2.23693e-06
0.000114111
0.000112041
-1.51761e-08
0.000112145
-4.92092e-08
0.000112304
-9.85421e-08
0.000112504
-1.68126e-07
0.000112731
-2.55476e-07
0.000112975
-3.55543e-07
0.000113227
-4.62985e-07
0.00011348
-5.72826e-07
0.00011373
-6.81019e-07
0.000113974
-7.84728e-07
0.000114209
-8.82248e-07
0.000114435
-9.72785e-07
0.000114651
-1.05623e-06
0.000114856
-1.13297e-06
0.00011505
-1.2037e-06
0.000115233
-1.26927e-06
0.000115406
-1.33062e-06
0.000115569
-1.38871e-06
0.000115723
-1.44443e-06
0.000115868
-1.49862e-06
0.000116005
-1.55204e-06
0.000116133
-1.60537e-06
0.000116255
-1.6592e-06
0.00011637
-1.71405e-06
0.000116479
-1.77037e-06
0.000116582
-1.82855e-06
0.00011668
-1.88893e-06
0.000116773
-1.9518e-06
0.000116863
-2.01741e-06
0.000116948
-2.08598e-06
0.000117029
-2.15768e-06
0.000117107
-2.2327e-06
-2.31092e-06
0.000117181
0.00011524
-5.02622e-08
0.00011534
-1.49962e-07
0.000115496
-2.53895e-07
0.000115692
-3.64925e-07
0.000115918
-4.81416e-07
0.000116163
-6.00094e-07
0.000116417
-7.17527e-07
0.000116675
-8.30645e-07
0.000116931
-9.37104e-07
0.000117182
-1.03546e-06
0.000117425
-1.12509e-06
0.000117658
-1.20604e-06
0.000117881
-1.27884e-06
0.000118092
-1.34436e-06
0.000118292
-1.40362e-06
0.000118481
-1.45776e-06
0.000118658
-1.5079e-06
0.000118824
-1.55513e-06
0.00011898
-1.60043e-06
0.000119126
-1.64472e-06
0.000119263
-1.68878e-06
0.000119391
-1.73331e-06
0.000119511
-1.77891e-06
0.000119623
-1.82608e-06
0.000119728
-1.87525e-06
0.000119826
-1.92678e-06
0.000119918
-1.98096e-06
0.000120004
-2.03802e-06
0.000120085
-2.09816e-06
0.00012016
-2.16151e-06
0.000120231
-2.22818e-06
0.000120297
-2.29826e-06
-2.37155e-06
0.000120357
0.000118531
-8.49976e-08
0.000118631
-2.49879e-07
0.000118785
-4.08768e-07
0.000118983
-5.62518e-07
0.000119212
-7.09952e-07
0.000119461
-8.49158e-07
0.000119721
-9.78334e-07
0.000119987
-1.09613e-06
0.000120252
-1.20181e-06
0.000120511
-1.2953e-06
0.000120763
-1.37712e-06
0.000121006
-1.44822e-06
0.000121237
-1.50982e-06
0.000121456
-1.56334e-06
0.000121662
-1.61022e-06
0.000121856
-1.6519e-06
0.000122038
-1.68973e-06
0.000122208
-1.72496e-06
0.000122366
-1.75868e-06
0.000122513
-1.79189e-06
0.00012265
-1.82542e-06
0.000122777
-1.85998e-06
0.000122894
-1.89619e-06
0.000123002
-1.93451e-06
0.000123103
-1.97537e-06
0.000123195
-2.01908e-06
0.00012328
-2.06587e-06
0.000123358
-2.11593e-06
0.000123429
-2.16939e-06
0.000123494
-2.2263e-06
0.000123552
-2.28667e-06
0.000123604
-2.35053e-06
-2.41755e-06
0.00012365
0.000121917
-1.20252e-07
0.000122018
-3.51404e-07
0.000122176
-5.66609e-07
0.000122378
-7.64744e-07
0.000122613
-9.44872e-07
0.00012287
-1.10622e-06
0.00012314
-1.24845e-06
0.000123416
-1.37185e-06
0.000123691
-1.47727e-06
0.000123962
-1.56602e-06
0.000124225
-1.6398e-06
0.000124477
-1.7005e-06
0.000124717
-1.75012e-06
0.000124945
-1.79068e-06
0.000125159
-1.82409e-06
0.000125359
-1.85212e-06
0.000125545
-1.87639e-06
0.000125719
-1.89834e-06
0.000125879
-1.9192e-06
0.000126028
-1.94004e-06
0.000126164
-1.96176e-06
0.000126289
-1.98509e-06
0.000126403
-2.01064e-06
0.000126508
-2.03888e-06
0.000126603
-2.07019e-06
0.000126688
-2.10485e-06
0.000126766
-2.14305e-06
0.000126835
-2.1849e-06
0.000126896
-2.23048e-06
0.000126949
-2.27977e-06
0.000126995
-2.33271e-06
0.000127034
-2.38927e-06
-2.44905e-06
0.000127065
0.0001254
-1.57036e-07
0.000125506
-4.57386e-07
0.000125671
-7.31644e-07
0.000125883
-9.76653e-07
0.00012613
-1.19161e-06
0.0001264
-1.37674e-06
0.000126685
-1.53312e-06
0.000126976
-1.66265e-06
0.000127266
-1.7678e-06
0.000127552
-1.85135e-06
0.000127828
-1.91625e-06
0.000128093
-1.96544e-06
0.000128345
-2.00179e-06
0.000128582
-2.02795e-06
0.000128804
-2.04636e-06
0.000129011
-2.05919e-06
0.000129203
-2.06834e-06
0.00012938
-2.07547e-06
0.000129543
-2.08194e-06
0.000129692
-2.08893e-06
0.000129828
-2.09739e-06
0.000129951
-2.10807e-06
0.000130062
-2.12159e-06
0.000130161
-2.13841e-06
0.00013025
-2.15886e-06
0.000130328
-2.18319e-06
0.000130397
-2.21152e-06
0.000130456
-2.24393e-06
0.000130506
-2.28041e-06
0.000130547
-2.32087e-06
0.000130579
-2.3652e-06
0.000130603
-2.41324e-06
-2.46454e-06
0.000130619
0.000128984
-1.96312e-07
0.000129098
-5.70593e-07
0.000129274
-9.07753e-07
0.0001295
-1.20254e-06
0.000129762
-1.4544e-06
0.00013005
-1.66467e-06
0.000130353
-1.8359e-06
0.000130662
-1.97172e-06
0.000130971
-2.07626e-06
0.000131273
-2.15386e-06
0.000131566
-2.20879e-06
0.000131845
-2.24514e-06
0.00013211
-2.26665e-06
0.000132359
-2.27674e-06
0.000132591
-2.27841e-06
0.000132806
-2.27425e-06
0.000133004
-2.26651e-06
0.000133186
-2.25705e-06
0.000133351
-2.24742e-06
0.000133501
-2.23889e-06
0.000133636
-2.23246e-06
0.000133757
-2.22895e-06
0.000133865
-2.22893e-06
0.000133959
-2.23288e-06
0.000134041
-2.24107e-06
0.000134112
-2.25372e-06
0.000134171
-2.27091e-06
0.00013422
-2.29263e-06
0.000134258
-2.31883e-06
0.000134287
-2.34938e-06
0.000134306
-2.38406e-06
0.000134315
-2.42273e-06
-2.46486e-06
0.000134315
0.000132673
-2.39783e-07
0.000132798
-6.95681e-07
0.000132992
-1.10195e-06
0.00013324
-1.45095e-06
0.000133528
-1.74251e-06
0.000133843
-1.97924e-06
0.000134172
-2.16542e-06
0.000134507
-2.30666e-06
0.00013484
-2.40908e-06
0.000135165
-2.47878e-06
0.000135478
-2.52154e-06
0.000135775
-2.54269e-06
0.000136056
-2.54699e-06
0.000136318
-2.53864e-06
0.000136561
-2.52125e-06
0.000136784
-2.49788e-06
0.000136989
-2.4711e-06
0.000137175
-2.44301e-06
0.000137343
-2.41534e-06
0.000137493
-2.38944e-06
0.000137627
-2.36639e-06
0.000137745
-2.347e-06
0.000137848
-2.33187e-06
0.000137937
-2.32142e-06
0.000138012
-2.31592e-06
0.000138073
-2.3155e-06
0.000138123
-2.32022e-06
0.00013816
-2.32999e-06
0.000138186
-2.34471e-06
0.000138201
-2.36415e-06
0.000138205
-2.38807e-06
0.000138198
-2.41619e-06
-2.44793e-06
0.000138181
0.000136467
-2.88292e-07
0.000136607
-8.35545e-07
0.000136823
-1.318e-06
0.000137098
-1.7258e-06
0.000137415
-2.05989e-06
0.00013776
-2.32457e-06
0.000138121
-2.52606e-06
0.000138486
-2.67215e-06
0.000138848
-2.77113e-06
0.000139201
-2.83102e-06
0.000139538
-2.85926e-06
0.000139858
-2.86258e-06
0.000140158
-2.84689e-06
0.000140437
-2.81727e-06
0.000140694
-2.77801e-06
0.000140928
-2.73269e-06
0.000141142
-2.68425e-06
0.000141334
-2.63506e-06
0.000141505
-2.587e-06
0.000141657
-2.54155e-06
0.000141791
-2.49982e-06
0.000141906
-2.46264e-06
0.000142005
-2.43059e-06
0.000142088
-2.40408e-06
0.000142155
-2.38331e-06
0.000142208
-2.36838e-06
0.000142247
-2.35926e-06
0.000142273
-2.35584e-06
0.000142286
-2.35792e-06
0.000142287
-2.36527e-06
0.000142277
-2.37755e-06
0.000142255
-2.3945e-06
-2.41548e-06
0.000142223
0.000140374
-3.46508e-07
0.00014054
-1.00145e-06
0.000140794
-1.57186e-06
0.000141113
-2.04511e-06
0.000141477
-2.42428e-06
0.000141869
-2.71641e-06
0.000142274
-2.9307e-06
0.00014268
-3.07807e-06
0.000143078
-3.16958e-06
0.000143463
-3.21549e-06
0.000143829
-3.22512e-06
0.000144173
-3.20671e-06
0.000144493
-3.16733e-06
0.000144789
-3.11297e-06
0.00014506
-3.04861e-06
0.000145305
-2.97834e-06
0.000145526
-2.90545e-06
0.000145724
-2.83256e-06
0.000145899
-2.76171e-06
0.000146051
-2.69445e-06
0.000146184
-2.63194e-06
0.000146296
-2.57502e-06
0.00014639
-2.52424e-06
0.000146465
-2.47995e-06
0.000146525
-2.44233e-06
0.000146568
-2.41139e-06
0.000146595
-2.38705e-06
0.000146609
-2.36913e-06
0.000146608
-2.35738e-06
0.000146594
-2.35146e-06
0.000146568
-2.351e-06
0.000146529
-2.35561e-06
-2.36458e-06
0.000146478
0.00014439
-4.12266e-07
0.000144581
-1.19231e-06
0.000144872
-1.86244e-06
0.000145236
-2.40918e-06
0.000145651
-2.83903e-06
0.000146096
-3.16161e-06
0.000146554
-3.3891e-06
0.000147012
-3.53605e-06
0.000147459
-3.6168e-06
0.000147888
-3.64442e-06
0.000148294
-3.63055e-06
0.000148672
-3.58527e-06
0.000149022
-3.51712e-06
0.000149342
-3.43314e-06
0.000149633
-3.33912e-06
0.000149894
-3.23969e-06
0.000150127
-3.13852e-06
0.000150333
-3.03845e-06
0.000150513
-2.94167e-06
0.000150668
-2.84978e-06
0.0001508
-2.76395e-06
0.00015091
-2.68499e-06
0.000151
-2.61339e-06
0.000151069
-2.54944e-06
0.00015112
-2.49324e-06
0.000151153
-2.44472e-06
0.00015117
-2.40375e-06
0.000151171
-2.37006e-06
0.000151157
-2.34335e-06
0.000151129
-2.32326e-06
0.000151087
-2.30933e-06
0.000151033
-2.30121e-06
-2.29811e-06
0.000150966
0.000148541
-5.05001e-07
0.000148793
-1.44486e-06
0.000149163
-2.23254e-06
0.000149611
-2.85658e-06
0.000150105
-3.33347e-06
0.000150623
-3.67934e-06
0.000151146
-3.91198e-06
0.000151661
-4.05083e-06
0.000152158
-4.11382e-06
0.00015263
-4.11679e-06
0.000153073
-4.07363e-06
0.000153484
-3.9962e-06
0.000153861
-3.89436e-06
0.000154204
-3.77621e-06
0.000154513
-3.64826e-06
0.000154789
-3.51569e-06
0.000155033
-3.38253e-06
0.000155247
-3.25187e-06
0.000155431
-3.12599e-06
0.000155588
-3.00656e-06
0.000155719
-2.89474e-06
0.000155825
-2.79128e-06
0.000155908
-2.69661e-06
0.00015597
-2.61093e-06
0.000156011
-2.53424e-06
0.000156032
-2.46641e-06
0.000156036
-2.40718e-06
0.000156022
-2.35625e-06
0.000155992
-2.31322e-06
0.000155946
-2.27766e-06
0.000155886
-2.24904e-06
0.000155812
-2.22691e-06
-2.21035e-06
0.000155724
0.000152784
-6.00164e-07
0.000153073
-1.73356e-06
0.000153504
-2.66405e-06
0.000154035
-3.38704e-06
0.000154627
-3.9256e-06
0.000155248
-4.29983e-06
0.000155871
-4.53502e-06
0.000156478
-4.65836e-06
0.000157058
-4.69351e-06
0.000157602
-4.6606e-06
0.000158105
-4.57683e-06
0.000158565
-4.45647e-06
0.000158982
-4.3111e-06
0.000159356
-4.14996e-06
0.000159688
-3.98036e-06
0.00015998
-3.80797e-06
0.000160235
-3.63707e-06
0.000160454
-3.47087e-06
0.000160639
-3.31167e-06
0.000160794
-3.16107e-06
0.000160919
-3.02013e-06
0.000161017
-2.88946e-06
0.00016109
-2.76936e-06
0.000161139
-2.65987e-06
0.000161166
-2.56085e-06
0.000161171
-2.47206e-06
0.000161157
-2.39314e-06
0.000161125
-2.32369e-06
0.000161075
-2.26328e-06
0.000161008
-2.21143e-06
0.000160927
-2.16761e-06
0.000160831
-2.13138e-06
-2.10174e-06
0.000160723
0.000157246
-7.94486e-07
0.000157695
-2.18323e-06
0.000158286
-3.25463e-06
0.000158951
-4.05155e-06
0.000159653
-4.62817e-06
0.000160365
-5.0119e-06
0.000161066
-5.23541e-06
0.000161739
-5.33205e-06
0.000162375
-5.32962e-06
0.000162967
-5.25191e-06
0.000163509
-5.11925e-06
0.000164001
-4.94831e-06
0.000164442
-4.75243e-06
0.000164834
-4.5421e-06
0.00016518
-4.32545e-06
0.00016548
-4.10861e-06
0.000165739
-3.8961e-06
0.000165959
-3.69117e-06
0.000166144
-3.49605e-06
0.000166295
-3.31219e-06
0.000166415
-3.14045e-06
0.000166507
-2.98121e-06
0.000166572
-2.83457e-06
0.000166613
-2.70034e-06
0.00016663
-2.57821e-06
0.000166626
-2.46775e-06
0.000166601
-2.36847e-06
0.000166557
-2.27988e-06
0.000166495
-2.20146e-06
0.000166417
-2.13272e-06
0.000166322
-2.07315e-06
0.000166213
-2.02228e-06
-1.97905e-06
0.000166091
0.000161692
-9.48101e-07
0.000162214
-2.70547e-06
0.000162953
-3.99359e-06
0.000163816
-4.91388e-06
0.000164725
-5.53728e-06
0.000165624
-5.91136e-06
0.000166485
-6.09609e-06
0.000167294
-6.14083e-06
0.000168045
-6.08113e-06
0.000168739
-5.94538e-06
0.000169376
-5.75635e-06
0.000169959
-5.5316e-06
0.000170491
-5.28472e-06
0.000170975
-5.02616e-06
0.000171414
-4.76385e-06
0.000171809
-4.50372e-06
0.000172163
-4.25011e-06
0.000172478
-4.00615e-06
0.000172756
-3.77395e-06
0.000172998
-3.55486e-06
0.000173208
-3.34964e-06
0.000173385
-3.15859e-06
0.000173532
-2.98169e-06
0.00017365
-2.81867e-06
0.000173741
-2.66911e-06
0.000173806
-2.5325e-06
0.000173846
-2.40831e-06
0.000173862
-2.29599e-06
0.000173856
-2.19511e-06
0.000173828
-2.10525e-06
0.000173781
-2.02628e-06
0.000173717
-1.95781e-06
-1.89974e-06
0.000173638
0.00016669
-1.48415e-06
0.000167548
-3.56343e-06
0.000168491
-4.93665e-06
0.00016951
-5.93355e-06
0.000170608
-6.63463e-06
0.000171762
-7.06599e-06
0.000172955
-7.28842e-06
0.000174162
-7.34795e-06
0.000175359
-7.27849e-06
0.000176525
-7.11101e-06
0.000177641
-6.87226e-06