/*--------------------------------*- C++ -*----------------------------------*\
  =========                 |
  \\      /  F ield         | OpenFOAM: The Open Source CFD Toolbox
   \\    /   O peration     | Website:  https://openfoam.org
    \\  /    A nd           | Version:  10
     \\/     M anipulation  |
\*---------------------------------------------------------------------------*/
FoamFile
{
    format      ascii;
    class       volVectorField;
    location    "0.03";
    object      U;
}
// * * * * * * * * * * * * * * * * * * * * * * * * * * * * * * * * * * * * * //

dimensions      [0 1 -1 0 0 0 0];

internalField   nonuniform List<vector> 
6820
(
(5.57359 0.45914 0)
(3.88316 0.245907 0)
(2.58966 0.00878329 0)
(1.95812 -0.0642138 0)
(1.73328 -0.0595355 0)
(1.62282 -0.0340796 0)
(1.55869 -0.0154188 0)
(1.51375 -0.00534276 0)
(1.47636 -0.000741856 0)
(1.44438 0.000771337 0)
(1.41728 0.000836213 0)
(1.3946 0.000337968 0)
(1.37587 -0.000315174 0)
(1.36061 -0.00094328 0)
(1.34833 -0.00147664 0)
(1.33865 -0.00189885 0)
(1.33124 -0.0022165 0)
(1.32584 -0.00244288 0)
(1.32224 -0.00259346 0)
(1.32029 -0.00266229 0)
(1.31986 -0.00272421 0)
(1.32079 -0.00283228 0)
(1.32296 -0.00287059 0)
(1.32628 -0.00279956 0)
(1.33067 -0.0027431 0)
(1.33608 -0.00270522 0)
(1.34239 -0.0026794 0)
(1.34971 -0.00260877 0)
(1.3575 -0.00262294 0)
(1.36738 -0.00229764 0)
(1.37447 -0.00323246 0)
(1.39455 0.00118691 0)
(1.379 -0.0257736 0)
(7.66981 0.863861 0)
(7.71741 0.89069 0)
(7.00068 0.598241 0)
(6.19889 0.347243 0)
(5.58658 0.179216 0)
(5.14329 0.0925955 0)
(4.82801 0.0520965 0)
(4.60135 0.033461 0)
(4.43237 0.0248212 0)
(4.30182 0.0203177 0)
(4.19805 0.0174782 0)
(4.11376 0.0153613 0)
(4.0443 0.0135923 0)
(3.98659 0.0120073 0)
(3.93845 0.0105232 0)
(3.89834 0.00909494 0)
(3.8651 0.00769887 0)
(3.83785 0.00632473 0)
(3.8159 0.00495792 0)
(3.79871 0.00360307 0)
(3.78582 0.00228693 0)
(3.77684 0.000955735 0)
(3.7716 -0.000345003 0)
(3.76981 -0.00173625 0)
(3.77118 -0.00305886 0)
(3.77551 -0.00431635 0)
(3.78264 -0.00557847 0)
(3.79244 -0.00680755 0)
(3.80473 -0.00825093 0)
(3.81969 -0.00941153 0)
(3.83667 -0.0123121 0)
(3.85867 -0.0133266 0)
(3.88191 -0.0240907 0)
(7.56352 0.520258 0)
(8.2252 0.663362 0)
(8.46505 0.575775 0)
(8.36474 0.458002 0)
(8.12999 0.343693 0)
(7.8547 0.258567 0)
(7.58667 0.198637 0)
(7.34575 0.1555 0)
(7.13526 0.123987 0)
(6.95327 0.100401 0)
(6.79655 0.0822456 0)
(6.66174 0.0679353 0)
(6.54579 0.0564186 0)
(6.44607 0.0469757 0)
(6.36038 0.0390883 0)
(6.28687 0.0323685 0)
(6.224 0.026526 0)
(6.1705 0.0213437 0)
(6.12529 0.0166578 0)
(6.08748 0.0123485 0)
(6.05633 0.00832684 0)
(6.03121 0.00454113 0)
(6.01158 0.000950643 0)
(5.99691 -0.00257096 0)
(5.98688 -0.00601589 0)
(5.98126 -0.00937313 0)
(5.97978 -0.012711 0)
(5.98213 -0.0159788 0)
(5.98797 -0.019293 0)
(5.99705 -0.0225354 0)
(6.00887 -0.0267473 0)
(6.02252 -0.0308794 0)
(6.03679 -0.0405212 0)
(7.43337 0.341039 0)
(7.88466 0.514301 0)
(8.24334 0.4892 0)
(8.44194 0.429118 0)
(8.54178 0.35757 0)
(8.57229 0.296612 0)
(8.55808 0.250085 0)
(8.51883 0.214107 0)
(8.46564 0.185662 0)
(8.40498 0.162479 0)
(8.34109 0.142961 0)
(8.27674 0.126141 0)
(8.21375 0.111391 0)
(8.15344 0.0982673 0)
(8.09668 0.0864672 0)
(8.04396 0.0757657 0)
(7.99556 0.0659792 0)
(7.9516 0.0569549 0)
(7.9121 0.0485622 0)
(7.87701 0.040698 0)
(7.84621 0.0332767 0)
(7.81958 0.026225 0)
(7.79695 0.0194575 0)
(7.77817 0.0129849 0)
(7.76306 0.00671792 0)
(7.75128 0.000594323 0)
(7.74261 -0.00541911 0)
(7.73688 -0.0112988 0)
(7.73383 -0.0171065 0)
(7.73316 -0.0227575 0)
(7.73441 -0.0286518 0)
(7.73645 -0.0341916 0)
(7.7389 -0.0400962 0)
(7.39682 0.250982 0)
(7.67998 0.420877 0)
(7.92338 0.403637 0)
(8.07728 0.35343 0)
(8.18763 0.298416 0)
(8.26974 0.252379 0)
(8.33039 0.217993 0)
(8.37698 0.191579 0)
(8.4135 0.170379 0)
(8.44204 0.152732 0)
(8.46421 0.137532 0)
(8.48127 0.124104 0)
(8.49425 0.112027 0)
(8.50379 0.101003 0)
(8.51054 0.0908063 0)
(8.5151 0.0812637 0)
(8.51801 0.0722422 0)
(8.51972 0.063638 0)
(8.52063 0.0553688 0)
(8.52105 0.047372 0)
(8.52125 0.039599 0)
(8.52145 0.032014 0)
(8.52181 0.0245885 0)
(8.52247 0.0173093 0)
(8.52351 0.0101631 0)
(8.52498 0.00317216 0)
(8.52667 -0.00357576 0)
(8.52849 -0.0101221 0)
(8.53037 -0.0164983 0)
(8.53216 -0.0226172 0)
(8.53358 -0.0285129 0)
(8.5341 -0.033659 0)
(8.53323 -0.0378246 0)
(7.37402 0.180638 0)
(7.57412 0.335951 0)
(7.76085 0.341989 0)
(7.87535 0.312598 0)
(7.95156 0.273163 0)
(8.00691 0.234678 0)
(8.04829 0.202931 0)
(8.08234 0.177379 0)
(8.11249 0.156534 0)
(8.13989 0.139243 0)
(8.16509 0.12454 0)
(8.18839 0.111711 0)
(8.20995 0.100284 0)
(8.22999 0.0899423 0)
(8.24862 0.0804308 0)
(8.26594 0.0715546 0)
(8.282 0.0631689 0)
(8.29687 0.0551644 0)
(8.31061 0.0474572 0)
(8.32328 0.0399848 0)
(8.33494 0.0327011 0)
(8.34563 0.0255723 0)
(8.35542 0.0185736 0)
(8.36432 0.0116999 0)
(8.3724 0.00496003 0)
(8.37964 -0.00160979 0)
(8.38628 -0.00796685 0)
(8.39234 -0.0141021 0)
(8.39779 -0.0199829 0)
(8.40256 -0.0254902 0)
(8.40647 -0.0305011 0)
(8.40937 -0.0345216 0)
(8.41099 -0.0371362 0)
(7.35905 0.132717 0)
(7.5033 0.272997 0)
(7.65567 0.29469 0)
(7.75568 0.277742 0)
(7.82178 0.247929 0)
(7.86873 0.215717 0)
(7.90214 0.187653 0)
(7.92774 0.164474 0)
(7.94923 0.145187 0)
(7.96822 0.128911 0)
(7.98555 0.114903 0)
(8.00175 0.102589 0)
(8.01708 0.0915652 0)
(8.0317 0.0815379 0)
(8.0457 0.0722936 0)
(8.05912 0.0636709 0)
(8.07202 0.0555437 0)
(8.08439 0.0478115 0)
(8.09626 0.0403942 0)
(8.10763 0.0332299 0)
(8.1185 0.0262716 0)
(8.12888 0.0194858 0)
(8.13877 0.0128495 0)
(8.14818 0.00635372 0)
(8.15711 7.39596e-06 0)
(8.16562 -0.00620532 0)
(8.17371 -0.012296 0)
(8.18135 -0.0181811 0)
(8.18853 -0.0237774 0)
(8.19522 -0.0289401 0)
(8.20131 -0.0334925 0)
(8.20681 -0.0370092 0)
(8.21168 -0.0391973 0)
(7.34964 0.0990188 0)
(7.45341 0.220393 0)
(7.57644 0.25008 0)
(7.66511 0.243176 0)
(7.72688 0.223269 0)
(7.77255 0.198808 0)
(7.80594 0.175576 0)
(7.83135 0.155202 0)
(7.85216 0.137471 0)
(7.87005 0.122012 0)
(7.88598 0.108427 0)
(7.90057 0.0963317 0)
(7.91419 0.0854169 0)
(7.92707 0.0754479 0)
(7.93936 0.0662395 0)
(7.95117 0.0576402 0)
(7.96255 0.049527 0)
(7.97357 0.0418016 0)
(7.98426 0.0343857 0)
(7.99463 0.0272187 0)
(8.00471 0.0202546 0)
(8.01451 0.0134599 0)
(8.02405 0.00681183 0)
(8.03333 0.000299358 0)
(8.04236 -0.00608747 0)
(8.05112 -0.0123278 0)
(8.05962 -0.0183844 0)
(8.06784 -0.0241832 0)
(8.07576 -0.0296394 0)
(8.08339 -0.0346191 0)
(8.09072 -0.0389469 0)
(8.09782 -0.0422899 0)
(8.10479 -0.044421 0)
(7.34381 0.0750611 0)
(7.41918 0.178436 0)
(7.51795 0.21264 0)
(7.59527 0.213333 0)
(7.65172 0.200526 0)
(7.6951 0.181558 0)
(7.72812 0.161814 0)
(7.75388 0.143631 0)
(7.77519 0.12736 0)
(7.79358 0.112904 0)
(7.8099 0.100033 0)
(7.82477 0.0884663 0)
(7.83856 0.0779521 0)
(7.85153 0.0682894 0)
(7.86385 0.0593146 0)
(7.87562 0.0508939 0)
(7.88694 0.0429199 0)
(7.89787 0.0353059 0)
(7.90845 0.0279826 0)
(7.91872 0.0208953 0)
(7.92871 0.0140025 0)
(7.93844 0.00727435 0)
(7.94794 0.000690595 0)
(7.9572 -0.00575546 0)
(7.96625 -0.0120579 0)
(7.9751 -0.0182008 0)
(7.98375 -0.024159 0)
(7.9922 -0.0298759 0)
(8.00048 -0.0352689 0)
(8.00862 -0.0402149 0)
(8.01668 -0.0445579 0)
(8.02479 -0.0480458 0)
(8.03311 -0.0505262 0)
(7.34017 0.0578159 0)
(7.3955 0.144756 0)
(7.4746 0.180041 0)
(7.54145 0.185699 0)
(7.59263 0.178225 0)
(7.63339 0.1641 0)
(7.66556 0.147976 0)
(7.69123 0.13231 0)
(7.71266 0.117764 0)
(7.73122 0.104458 0)
(7.74772 0.0923457 0)
(7.76273 0.0812824 0)
(7.77665 0.0711065 0)
(7.78971 0.0616731 0)
(7.8021 0.0528561 0)
(7.81393 0.0445462 0)
(7.82529 0.0366507 0)
(7.83624 0.0290918 0)
(7.84684 0.0218056 0)
(7.85712 0.0147402 0)
(7.86712 0.00785611 0)
(7.87687 0.00112378 0)
(7.88638 -0.0054759 0)
(7.89569 -0.0119494 0)
(7.90481 -0.0182949 0)
(7.91376 -0.0244982 0)
(7.92258 -0.0305282 0)
(7.93129 -0.0363297 0)
(7.93993 -0.0418271 0)
(7.94857 -0.0469189 0)
(7.95729 -0.0514838 0)
(7.96626 -0.0553461 0)
(7.97566 -0.0584235 0)
(7.33788 0.0451624 0)
(7.37901 0.117666 0)
(7.4424 0.152003 0)
(7.49992 0.161014 0)
(7.54611 0.157637 0)
(7.5841 0.147415 0)
(7.61505 0.134277 0)
(7.64033 0.120668 0)
(7.66169 0.107528 0)
(7.68033 0.0951879 0)
(7.69696 0.0837472 0)
(7.71212 0.0731671 0)
(7.72616 0.06335 0)
(7.73933 0.0541898 0)
(7.7518 0.0455844 0)
(7.7637 0.0374406 0)
(7.77511 0.0296761 0)
(7.7861 0.0222209 0)
(7.79673 0.0150165 0)
(7.80705 0.00801541 0)
(7.81708 0.00118018 0)
(7.82686 -0.00551664 0)
(7.83642 -0.012093 0)
(7.8458 -0.0185566 0)
(7.85501 -0.0249059 0)
(7.8641 -0.0311275 0)
(7.87309 -0.0371959 0)
(7.88204 -0.0430703 0)
(7.891 -0.0486945 0)
(7.90006 -0.0539946 0)
(7.90931 -0.0588872 0)
(7.91896 -0.0632599 0)
(7.92914 -0.0670873 0)
(7.33642 0.0356956 0)
(7.36744 0.095816 0)
(7.41834 0.127875 0)
(7.46762 0.138746 0)
(7.50908 0.138214 0)
(7.54429 0.130999 0)
(7.57387 0.120413 0)
(7.59864 0.108748 0)
(7.61987 0.0970614 0)
(7.63856 0.0857938 0)
(7.65531 0.075136 0)
(7.6706 0.0651277 0)
(7.68477 0.0557306 0)
(7.69805 0.0468802 0)
(7.71062 0.0385045 0)
(7.72259 0.0305315 0)
(7.73406 0.0228942 0)
(7.7451 0.0155326 0)
(7.75576 0.00839509 0)
(7.7661 0.00143794 0)
(7.77616 -0.00537439 0)
(7.78597 -0.0120688 0)
(7.79556 -0.0186638 0)
(7.80498 -0.0251692 0)
(7.81425 -0.0315861 0)
(7.82342 -0.0379069 0)
(7.83254 -0.0441135 0)
(7.84166 -0.0501764 0)
(7.85085 -0.0560554 0)
(7.86022 -0.0617016 0)
(7.86986 -0.0670658 0)
(7.87997 -0.0720876 0)
(7.89068 -0.0767856 0)
(7.33548 0.0284623 0)
(7.35922 0.0780803 0)
(7.40028 0.107107 0)
(7.44241 0.118747 0)
(7.47949 0.120163 0)
(7.51198 0.115269 0)
(7.54007 0.106807 0)
(7.56414 0.0968218 0)
(7.58511 0.0864027 0)
(7.60373 0.076073 0)
(7.62054 0.0661012 0)
(7.63594 0.0565975 0)
(7.65023 0.0475775 0)
(7.66363 0.0390135 0)
(7.6763 0.0308585 0)
(7.68836 0.0230577 0)
(7.6999 0.0155553 0)
(7.711 0.00829888 0)
(7.72171 0.00124117 0)
(7.73209 -0.00565857 0)
(7.74217 -0.0124341 0)
(7.752 -0.019112 0)
(7.76162 -0.0257122 0)
(7.77106 -0.0322469 0)
(7.78037 -0.0387217 0)
(7.78961 -0.0451344 0)
(7.79881 -0.0514759 0)
(7.80804 -0.0577301 0)
(7.81739 -0.0638763 0)
(7.82694 -0.0698911 0)
(7.83681 -0.075757 0)
(7.84718 -0.0814559 0)
(7.85815 -0.087037 0)
(7.33486 0.0228165 0)
(7.35331 0.0635744 0)
(7.38664 0.0892113 0)
(7.42265 0.100785 0)
(7.45573 0.103369 0)
(7.4856 0.100136 0)
(7.51213 0.0933448 0)
(7.5354 0.0847776 0)
(7.55599 0.0754975 0)
(7.57449 0.0660664 0)
(7.59131 0.0567946 0)
(7.60679 0.0478351 0)
(7.62118 0.0392407 0)
(7.63469 0.0310113 0)
(7.64747 0.0231206 0)
(7.65961 0.0155292 0)
(7.67123 0.00819231 0)
(7.68237 0.00106523 0)
(7.69312 -0.00589417 0)
(7.70352 -0.0127237 0)
(7.71361 -0.0194558 0)
(7.72344 -0.0261176 0)
(7.73305 -0.0327304 0)
(7.74249 -0.0393099 0)
(7.7518 -0.0458662 0)
(7.76103 -0.0524041 0)
(7.77025 -0.0589242 0)
(7.77952 -0.0654233 0)
(7.78891 -0.0718973 0)
(7.79853 -0.0783437 0)
(7.80847 -0.0847695 0)
(7.8189 -0.0911873 0)
(7.82989 -0.0976653 0)
(7.33443 0.0183166 0)
(7.34902 0.0515959 0)
(7.37628 0.0737388 0)
(7.40711 0.0846375 0)
(7.43661 0.0877815 0)
(7.46401 0.0856819 0)
(7.48898 0.0801792 0)
(7.51137 0.0727884 0)
(7.53151 0.0644955 0)
(7.5498 0.0558645 0)
(7.56657 0.0472266 0)
(7.58207 0.038765 0)
(7.59654 0.0305623 0)
(7.61013 0.0226432 0)
(7.62298 0.0150001 0)
(7.6352 0.00760723 0)
(7.64687 0.000429573 0)
(7.65806 -0.00657111 0)
(7.66884 -0.0134327 0)
(7.67924 -0.0201906 0)
(7.68933 -0.0268769 0)
(7.69914 -0.0335196 0)
(7.70873 -0.0401422 0)
(7.71813 -0.0467639 0)
(7.7274 -0.0533999 0)
(7.7366 -0.0600623 0)
(7.74577 -0.0667606 0)
(7.755 -0.0735038 0)
(7.76435 -0.0803025 0)
(7.77392 -0.0871719 0)
(7.78379 -0.0941388 0)
(7.7941 -0.101238 0)
(7.80491 -0.108549 0)
(7.33414 0.0146566 0)
(7.34585 0.0415942 0)
(7.36837 0.0602968 0)
(7.39487 0.0700927 0)
(7.42119 0.073309 0)
(7.44632 0.0718855 0)
(7.46976 0.0673066 0)
(7.49123 0.0608384 0)
(7.51086 0.0533679 0)
(7.52889 0.0454392 0)
(7.54556 0.0373873 0)
(7.56106 0.0294098 0)
(7.57556 0.0216074 0)
(7.58922 0.014021 0)
(7.60214 0.0066555 0)
(7.61442 -0.000505218 0)
(7.62614 -0.00748913 0)
(7.63736 -0.0143296 0)
(7.64815 -0.0210617 0)
(7.65854 -0.0277195 0)
(7.6686 -0.0343352 0)
(7.67837 -0.0409379 0)
(7.6879 -0.0475536 0)
(7.69723 -0.0542054 0)
(7.70641 -0.0609137 0)
(7.71551 -0.0676971 0)
(7.72458 -0.0745738 0)
(7.73368 -0.0815629 0)
(7.74288 -0.0886872 0)
(7.75227 -0.0959753 0)
(7.76193 -0.103467 0)
(7.77196 -0.111212 0)
(7.78241 -0.119292 0)
(7.33392 0.011621 0)
(7.3435 0.0331382 0)
(7.36231 0.04854 0)
(7.38522 0.0569424 0)
(7.40875 0.0598494 0)
(7.43182 0.0587267 0)
(7.45383 0.054758 0)
(7.47439 0.0489856 0)
(7.49347 0.0421843 0)
(7.5112 0.034858 0)
(7.52773 0.0273291 0)
(7.54318 0.0197967 0)
(7.5577 0.0123709 0)
(7.5714 0.00510251 0)
(7.58437 -0.00199409 0)
(7.59669 -0.00892749 0)
(7.60844 -0.0157198 0)
(7.61967 -0.0224004 0)
(7.63044 -0.0290019 0)
(7.64081 -0.0355576 0)
(7.65082 -0.0420997 0)
(7.66052 -0.0486588 0)
(7.66996 -0.0552635 0)
(7.67918 -0.0619404 0)
(7.68824 -0.0687147 0)
(7.69718 -0.0756109 0)
(7.70607 -0.0826544 0)
(7.71497 -0.0898725 0)
(7.72394 -0.097297 0)
(7.73305 -0.104966 0)
(7.74236 -0.112928 0)
(7.75197 -0.121243 0)
(7.76191 -0.129987 0)
(7.33376 0.00905513 0)
(7.34173 0.0258896 0)
(7.35764 0.0381686 0)
(7.3776 0.0449895 0)
(7.39874 0.0472916 0)
(7.41998 0.0461591 0)
(7.44066 0.0425241 0)
(7.46033 0.0372324 0)
(7.47886 0.0309456 0)
(7.49628 0.0241165 0)
(7.51264 0.017045 0)
(7.52803 0.00992318 0)
(7.54254 0.0028621 0)
(7.55626 -0.00408293 0)
(7.56926 -0.0108931 0)
(7.58161 -0.0175729 0)
(7.59337 -0.0241417 0)
(7.6046 -0.0306269 0)
(7.61535 -0.0370605 0)
(7.62566 -0.0434759 0)
(7.6356 -0.0499067 0)
(7.6452 -0.0563852 0)
(7.65451 -0.062943 0)
(7.66358 -0.0696101 0)
(7.67246 -0.0764161 0)
(7.68119 -0.0833909 0)
(7.68984 -0.0905654 0)
(7.69846 -0.0979734 0)
(7.7071 -0.105653 0)
(7.71582 -0.113648 0)
(7.72468 -0.122012 0)
(7.73375 -0.130808 0)
(7.74305 -0.140105 0)
(7.33365 0.00684523 0)
(7.34039 0.0195816 0)
(7.35404 0.0289234 0)
(7.37161 0.0340472 0)
(7.39072 0.0355174 0)
(7.41036 0.0341209 0)
(7.42984 0.0305821 0)
(7.44869 0.0255787 0)
(7.4667 0.019663 0)
(7.48379 0.0132297 0)
(7.49998 0.00654797 0)
(7.51529 -0.000206272 0)
(7.52978 -0.00692805 0)
(7.54351 -0.0135635 0)
(7.55653 -0.0200931 0)
(7.56889 -0.0265203 0)
(7.58065 -0.0328634 0)
(7.59186 -0.0391491 0)
(7.60257 -0.0454093 0)
(7.61281 -0.0516779 0)
(7.62265 -0.0579895 0)
(7.63212 -0.0643784 0)
(7.64127 -0.0708783 0)
(7.65015 -0.0775223 0)
(7.6588 -0.0843436 0)
(7.66727 -0.0913757 0)
(7.67562 -0.0986538 0)
(7.68388 -0.106216 0)
(7.69211 -0.114103 0)
(7.70036 -0.122364 0)
(7.70868 -0.131051 0)
(7.7171 -0.140227 0)
(7.72565 -0.149954 0)
(7.33356 0.00490551 0)
(7.33937 0.0140016 0)
(7.35128 0.0205802 0)
(7.36692 0.0239395 0)
(7.38434 0.0244047 0)
(7.40261 0.0225374 0)
(7.42105 0.0188934 0)
(7.43917 0.0140083 0)
(7.45669 0.00833364 0)
(7.47348 0.00220377 0)
(7.4895 -0.004148 0)
(7.50473 -0.0105669 0)
(7.51919 -0.0169596 0)
(7.53292 -0.0232781 0)
(7.54594 -0.0295063 0)
(7.5583 -0.0356497 0)
(7.57005 -0.0417279 0)
(7.58122 -0.0477691 0)
(7.59186 -0.0538067 0)
(7.60202 -0.0598764 0)
(7.61173 -0.0660149 0)
(7.62104 -0.0722587 0)
(7.63 -0.0786443 0)
(7.63865 -0.0852076 0)
(7.64702 -0.0919847 0)
(7.65518 -0.0990121 0)
(7.66316 -0.106328 0)
(7.671 -0.113973 0)
(7.67876 -0.12199 0)
(7.68646 -0.130426 0)
(7.69414 -0.139335 0)
(7.70184 -0.148776 0)
(7.70957 -0.1588 0)
(7.33349 0.00316944 0)
(7.3386 0.00897765 0)
(7.34917 0.0129434 0)
(7.36329 0.0144999 0)
(7.37934 0.0138259 0)
(7.39647 0.0113176 0)
(7.41404 0.00739513 0)
(7.43153 0.00247466 0)
(7.44863 -0.00308347 0)
(7.46516 -0.00900541 0)
(7.48104 -0.0150973 0)
(7.49621 -0.0212301 0)
(7.51065 -0.0273267 0)
(7.52438 -0.0333495 0)
(7.53741 -0.039289 0)
(7.54977 -0.045155 0)
(7.5615 -0.0509703 0)
(7.57263 -0.0567657 0)
(7.58319 -0.0625764 0)
(7.59323 -0.0684404 0)
(7.6028 -0.0743962 0)
(7.61192 -0.0804824 0)
(7.62065 -0.0867375 0)
(7.62903 -0.0931993 0)
(7.63709 -0.099906 0)
(7.64488 -0.106896 0)
(7.65244 -0.114208 0)
(7.65981 -0.121884 0)
(7.66702 -0.129967 0)
(7.67411 -0.138503 0)
(7.68109 -0.147541 0)
(7.688 -0.157134 0)
(7.69484 -0.167327 0)
(7.33344 0.0015835 0)
(7.33803 0.00436716 0)
(7.34758 0.00584082 0)
(7.36053 0.00557083 0)
(7.37551 0.00365392 0)
(7.39173 0.000367953 0)
(7.40859 -0.00397287 0)
(7.42557 -0.00905106 0)
(7.44234 -0.0145869 0)
(7.45867 -0.0203645 0)
(7.47444 -0.0262309 0)
(7.48956 -0.0320862 0)
(7.504 -0.0378737 0)
(7.51773 -0.0435699 0)
(7.53077 -0.0491756 0)
(7.54312 -0.0547082 0)
(7.55482 -0.0601964 0)
(7.56588 -0.0656755 0)
(7.57635 -0.071185 0)
(7.58626 -0.0767657 0)
(7.59565 -0.0824592 0)
(7.60457 -0.0883067 0)
(7.61304 -0.0943488 0)
(7.62111 -0.100625 0)
(7.62881 -0.107176 0)
(7.6362 -0.11404 0)
(7.64329 -0.121257 0)
(7.65013 -0.128869 0)
(7.65675 -0.136915 0)
(7.66317 -0.14544 0)
(7.66941 -0.154488 0)
(7.67549 -0.164108 0)
(7.68141 -0.174332 0)
(7.33341 0.000103356 0)
(7.33762 4.85012e-05 0)
(7.34643 -0.00088426 0)
(7.35852 -0.00300337 0)
(7.37269 -0.006253 0)
(7.38825 -0.0104382 0)
(7.40459 -0.0153289 0)
(7.42121 -0.0206902 0)
(7.43775 -0.0263147 0)
(7.45397 -0.032042 0)
(7.4697 -0.0377609 0)
(7.48483 -0.043402 0)
(7.4993 -0.0489313 0)
(7.51307 -0.0543414 0)
(7.52613 -0.0596453 0)
(7.53849 -0.0648691 0)
(7.55016 -0.0700484 0)
(7.56116 -0.0752239 0)
(7.57153 -0.0804388 0)
(7.5813 -0.0857377 0)
(7.5905 -0.0911648 0)
(7.59918 -0.0967636 0)
(7.60736 -0.102576 0)
(7.6151 -0.108644 0)
(7.62241 -0.115007 0)
(7.62935 -0.121706 0)
(7.63594 -0.128778 0)
(7.64221 -0.136264 0)
(7.64818 -0.144201 0)
(7.65389 -0.152631 0)
(7.65934 -0.16159 0)
(7.66455 -0.171122 0)
(7.66951 -0.181249 0)
(7.33338 -0.00130961 0)
(7.33734 -0.00408567 0)
(7.34565 -0.00737504 0)
(7.35715 -0.0113684 0)
(7.37078 -0.0160216 0)
(7.38589 -0.0211936 0)
(7.4019 -0.0267176 0)
(7.4183 -0.0324267 0)
(7.43473 -0.0381767 0)
(7.45091 -0.0438604 0)
(7.46666 -0.0494094 0)
(7.48184 -0.0547884 0)
(7.49637 -0.0599902 0)
(7.51019 -0.0650285 0)
(7.52329 -0.0699323 0)
(7.53565 -0.0747406 0)
(7.54729 -0.0794987 0)
(7.55823 -0.0842549 0)
(7.56849 -0.0890585 0)
(7.5781 -0.0939587 0)
(7.58709 -0.0990032 0)
(7.59551 -0.104238 0)
(7.60339 -0.109707 0)
(7.61075 -0.115453 0)
(7.61765 -0.121517 0)
(7.62411 -0.127936 0)
(7.63016 -0.13475 0)
(7.63583 -0.141995 0)
(7.64114 -0.149706 0)
(7.64611 -0.15792 0)
(7.65076 -0.166668 0)
(7.65509 -0.175987 0)
(7.65911 -0.18589 0)
(7.33337 -0.00269142 0)
(7.33718 -0.00813738 0)
(7.34521 -0.0137776 0)
(7.35638 -0.0196942 0)
(7.36973 -0.02584 0)
(7.38463 -0.0321121 0)
(7.40054 -0.0383959 0)
(7.41692 -0.0445833 0)
(7.4334 -0.0505871 0)
(7.44969 -0.0563496 0)
(7.46557 -0.0618426 0)
(7.4809 -0.0670636 0)
(7.49556 -0.0720312 0)
(7.5095 -0.0767797 0)
(7.52267 -0.0813541 0)
(7.53508 -0.0858062 0)
(7.54671 -0.0901914 0)
(7.55759 -0.0945658 0)
(7.56774 -0.0989853 0)
(7.57719 -0.103504 0)
(7.58596 -0.108172 0)
(7.59411 -0.11304 0)
(7.60165 -0.118153 0)
(7.60863 -0.123554 0)
(7.61508 -0.129284 0)
(7.62103 -0.135382 0)
(7.62651 -0.141883 0)
(7.63154 -0.148821 0)
(7.63615 -0.156229 0)
(7.64036 -0.164137 0)
(7.64417 -0.172572 0)
(7.6476 -0.181565 0)
(7.65065 -0.191119 0)
(7.33336 -0.0040766 0)
(7.33712 -0.0122026 0)
(7.34506 -0.0202227 0)
(7.35615 -0.0281093 0)
(7.36945 -0.0357956 0)
(7.38438 -0.0431984 0)
(7.40037 -0.0502421 0)
(7.41689 -0.0568704 0)
(7.43356 -0.0630521 0)
(7.45005 -0.0687821 0)
(7.46614 -0.0740787 0)
(7.48167 -0.0789798 0)
(7.49651 -0.0835367 0)
(7.5106 -0.0878106 0)
(7.52388 -0.0918676 0)
(7.53634 -0.0957763 0)
(7.54798 -0.0996048 0)
(7.55881 -0.103419 0)
(7.56886 -0.107282 0)
(7.57814 -0.111253 0)
(7.58669 -0.115387 0)
(7.59455 -0.119736 0)
(7.60175 -0.124346 0)
(7.60833 -0.129261 0)
(7.61432 -0.134521 0)
(7.61975 -0.140164 0)
(7.62464 -0.146222 0)
(7.62904 -0.152728 0)
(7.63295 -0.159709 0)
(7.63639 -0.167191 0)
(7.63939 -0.175197 0)
(7.64194 -0.183751 0)
(7.64405 -0.19285 0)
(7.33337 -0.00550215 0)
(7.33718 -0.0163936 0)
(7.34524 -0.0268946 0)
(7.35652 -0.0368773 0)
(7.37009 -0.0462586 0)
(7.38535 -0.0549745 0)
(7.40172 -0.0629839 0)
(7.41866 -0.0702746 0)
(7.43575 -0.0768617 0)
(7.45266 -0.0827831 0)
(7.46914 -0.088096 0)
(7.48501 -0.0928721 0)
(7.50015 -0.0971922 0)
(7.51447 -0.101142 0)
(7.52792 -0.104809 0)
(7.54048 -0.108279 0)
(7.55215 -0.111633 0)
(7.56295 -0.11495 0)
(7.57289 -0.118301 0)
(7.582 -0.121753 0)
(7.59031 -0.125365 0)
(7.59787 -0.129194 0)
(7.60471 -0.133287 0)
(7.61086 -0.13769 0)
(7.61636 -0.142442 0)
(7.62124 -0.14758 0)
(7.62553 -0.153135 0)
(7.62926 -0.159136 0)
(7.63244 -0.165607 0)
(7.6351 -0.17257 0)
(7.63726 -0.180041 0)
(7.63891 -0.188038 0)
(7.64007 -0.196554 0)
(7.33338 -0.00700634 0)
(7.33734 -0.020806 0)
(7.34571 -0.0338916 0)
(7.35741 -0.0460129 0)
(7.37147 -0.0570536 0)
(7.38726 -0.0669606 0)
(7.40419 -0.0757319 0)
(7.42171 -0.0834144 0)
(7.43936 -0.0900888 0)
(7.4568 -0.0958562 0)
(7.47377 -0.10083 0)
(7.49009 -0.105128 0)
(7.5056 -0.10887 0)
(7.52022 -0.112173 0)
(7.53391 -0.115147 0)
(7.54663 -0.117897 0)
(7.55838 -0.120518 0)
(7.56918 -0.123098 0)
(7.57905 -0.125716 0)
(7.58801 -0.128443 0)
(7.59611 -0.131342 0)
(7.60339 -0.134471 0)
(7.60987 -0.137879 0)
(7.6156 -0.141611 0)
(7.62062 -0.145707 0)
(7.62496 -0.150199 0)
(7.62865 -0.155117 0)
(7.63172 -0.160488 0)
(7.6342 -0.166331 0)
(7.6361 -0.172665 0)
(7.63744 -0.179502 0)
(7.63825 -0.186855 0)
(7.63853 -0.194713 0)
(7.33341 -0.00864297 0)
(7.33767 -0.0256298 0)
(7.34666 -0.0415984 0)
(7.35918 -0.0561991 0)
(7.37419 -0.069302 0)
(7.391 -0.0808616 0)
(7.40896 -0.0908929 0)
(7.42745 -0.0994722 0)
(7.44601 -0.106718 0)
(7.46427 -0.112774 0)
(7.48195 -0.117795 0)
(7.49886 -0.121942 0)
(7.51487 -0.125373 0)
(7.52988 -0.12824 0)
(7.54385 -0.130682 0)
(7.55675 -0.13283 0)
(7.56859 -0.134799 0)
(7.57938 -0.136694 0)
(7.58916 -0.138605 0)
(7.59796 -0.140615 0)
(7.60582 -0.142791 0)
(7.61278 -0.145197 0)
(7.61889 -0.147884 0)
(7.62418 -0.150898 0)
(7.62869 -0.154278 0)
(7.63246 -0.158055 0)
(7.63553 -0.162259 0)
(7.63792 -0.16691 0)
(7.63966 -0.172027 0)
(7.64079 -0.177623 0)
(7.6413 -0.183706 0)
(7.64123 -0.190284 0)
(7.64059 -0.19734 0)
(7.33344 -0.0104571 0)
(7.33807 -0.030907 0)
(7.34783 -0.0498415 0)
(7.36135 -0.066752 0)
(7.37746 -0.081501 0)
(7.39543 -0.0941017 0)
(7.41456 -0.10466 0)
(7.43421 -0.113357 0)
(7.45387 -0.120407 0)
(7.47314 -0.126033 0)
(7.49175 -0.130453 0)
(7.50947 -0.133877 0)
(7.52616 -0.1365 0)
(7.54173 -0.138502 0)
(7.55613 -0.140043 0)
(7.56935 -0.141268 0)
(7.58139 -0.142304 0)
(7.59228 -0.143264 0)
(7.60205 -0.144246 0)
(7.61074 -0.145334 0)
(7.61841 -0.146602 0)
(7.6251 -0.148112 0)
(7.63085 -0.149917 0)
(7.63572 -0.152064 0)
(7.63975 -0.154589 0)
(7.64298 -0.157524 0)
(7.64544 -0.160895 0)
(7.64718 -0.164722 0)
(7.64823 -0.169019 0)
(7.64861 -0.173798 0)
(7.64835 -0.179062 0)
(7.64748 -0.18482 0)
(7.64603 -0.191047 0)
(7.33352 -0.0125693 0)
(7.3389 -0.0371902 0)
(7.35011 -0.0599567 0)
(7.36549 -0.0802401 0)
(7.38359 -0.097862 0)
(7.40354 -0.112785 0)
(7.42453 -0.125089 0)
(7.44585 -0.134977 0)
(7.46697 -0.142719 0)
(7.48751 -0.148607 0)
(7.50718 -0.152935 0)
(7.52577 -0.155987 0)
(7.54316 -0.158024 0)
(7.55928 -0.159282 0)
(7.57409 -0.159969 0)
(7.58758 -0.160267 0)
(7.59978 -0.16033 0)
(7.61072 -0.160293 0)
(7.62044 -0.160268 0)
(7.62899 -0.160349 0)
(7.63643 -0.160615 0)
(7.64281 -0.161133 0)
(7.64819 -0.161956 0)
(7.65261 -0.163131 0)
(7.65613 -0.164692 0)
(7.65879 -0.166669 0)
(7.66063 -0.169084 0)
(7.6617 -0.171956 0)
(7.66203 -0.175294 0)
(7.66165 -0.179106 0)
(7.6606 -0.183392 0)
(7.65888 -0.188156 0)
(7.65654 -0.193369 0)
(7.33356 -0.0149877 0)
(7.33952 -0.0439819 0)
(7.35205 -0.0700209 0)
(7.36915 -0.0923829 0)
(7.38918 -0.111128 0)
(7.41124 -0.12648 0)
(7.4344 -0.138733 0)
(7.45784 -0.14825 0)
(7.48096 -0.155407 0)
(7.50331 -0.160559 0)
(7.52457 -0.164039 0)
(7.54453 -0.166159 0)
(7.56306 -0.167199 0)
(7.5801 -0.16741 0)
(7.59562 -0.167012 0)
(7.60964 -0.166198 0)
(7.62219 -0.165134 0)
(7.63334 -0.163962 0)
(7.64313 -0.162802 0)
(7.65164 -0.161755 0)
(7.65893 -0.160905 0)
(7.66507 -0.160321 0)
(7.67012 -0.160059 0)
(7.67414 -0.160165 0)
(7.67719 -0.160676 0)
(7.67932 -0.16162 0)
(7.68058 -0.163018 0)
(7.68103 -0.164887 0)
(7.68069 -0.167237 0)
(7.67961 -0.170072 0)
(7.67783 -0.173392 0)
(7.67538 -0.177198 0)
(7.67231 -0.181457 0)
(7.33381 -0.0181633 0)
(7.34176 -0.0537576 0)
(7.35765 -0.0860942 0)
(7.37849 -0.114057 0)
(7.40207 -0.137408 0)
(7.42729 -0.156164 0)
(7.4532 -0.170628 0)
(7.47899 -0.181318 0)
(7.50409 -0.188805 0)
(7.52811 -0.193641 0)
(7.55078 -0.196336 0)
(7.57191 -0.19735 0)
(7.5914 -0.197078 0)
(7.6092 -0.195857 0)
(7.62532 -0.193968 0)
(7.63977 -0.191646 0)
(7.6526 -0.189083 0)
(7.66389 -0.186436 0)
(7.6737 -0.183835 0)
(7.68212 -0.181381 0)
(7.68921 -0.179159 0)
(7.69505 -0.177234 0)
(7.69972 -0.17566 0)
(7.70329 -0.174477 0)
(7.70581 -0.173717 0)
(7.70735 -0.173405 0)
(7.70796 -0.173559 0)
(7.7077 -0.17419 0)
(7.70661 -0.175306 0)
(7.70473 -0.17691 0)
(7.70211 -0.178997 0)
(7.69878 -0.181566 0)
(7.69478 -0.18458 0)
(7.3337 -0.0216018 0)
(7.34209 -0.0621364 0)
(7.35994 -0.0965604 0)
(7.38378 -0.124828 0)
(7.41112 -0.14784 0)
(7.44056 -0.166096 0)
(7.47071 -0.180053 0)
(7.50047 -0.190258 0)
(7.52911 -0.197234 0)
(7.55617 -0.201474 0)
(7.58137 -0.203452 0)
(7.60454 -0.203607 0)
(7.62561 -0.202337 0)
(7.6446 -0.199993 0)
(7.66154 -0.196881 0)
(7.67652 -0.193262 0)
(7.68964 -0.189354 0)
(7.70099 -0.185337 0)
(7.71069 -0.181358 0)
(7.71884 -0.177535 0)
(7.72555 -0.173962 0)
(7.7309 -0.170712 0)
(7.73499 -0.167842 0)
(7.7379 -0.165393 0)
(7.7397 -0.1634 0)
(7.74047 -0.161884 0)
(7.74025 -0.160862 0)
(7.73913 -0.160346 0)
(7.73714 -0.160341 0)
(7.73434 -0.160851 0)
(7.73078 -0.161869 0)
(7.72652 -0.163394 0)
(7.72162 -0.165383 0)
(7.33482 -0.0279686 0)
(7.34952 -0.0828381 0)
(7.37515 -0.130471 0)
(7.40544 -0.168994 0)
(7.43761 -0.198735 0)
(7.47086 -0.220474 0)
(7.50409 -0.235445 0)
(7.53635 -0.244967 0)
(7.56704 -0.25017 0)
(7.59577 -0.252006 0)
(7.62229 -0.251275 0)
(7.64646 -0.248625 0)
(7.66826 -0.24458 0)
(7.68771 -0.239559 0)
(7.7049 -0.233899 0)
(7.71996 -0.227866 0)
(7.733 -0.221675 0)
(7.74417 -0.215494 0)
(7.7536 -0.209456 0)
(7.76141 -0.203663 0)
(7.76772 -0.198196 0)
(7.77266 -0.193113 0)
(7.7763 -0.188462 0)
(7.77876 -0.184273 0)
(7.7801 -0.180572 0)
(7.78039 -0.177375 0)
(7.7797 -0.174694 0)
(7.7781 -0.172539 0)
(7.77562 -0.170914 0)
(7.77233 -0.169824 0)
(7.76828 -0.169265 0)
(7.76352 -0.169239 0)
(7.7581 -0.169699 0)
(7.3338 -0.0317572 0)
(7.34765 -0.0863626 0)
(7.37775 -0.129327 0)
(7.41568 -0.164749 0)
(7.45653 -0.19388 0)
(7.49804 -0.216379 0)
(7.5383 -0.232672 0)
(7.57631 -0.243511 0)
(7.61177 -0.249629 0)
(7.64458 -0.251812 0)
(7.67478 -0.250857 0)
(7.70246 -0.247494 0)
(7.72776 -0.242357 0)
(7.75082 -0.235986 0)
(7.77174 -0.228822 0)
(7.79064 -0.221215 0)
(7.80763 -0.213441 0)
(7.8228 -0.205709 0)
(7.83624 -0.198178 0)
(7.84805 -0.190964 0)
(7.85829 -0.18415 0)
(7.86705 -0.177793 0)
(7.87441 -0.171932 0)
(7.88043 -0.166592 0)
(7.88517 -0.161786 0)
(7.88869 -0.157523 0)
(7.89106 -0.153807 0)
(7.89232 -0.150642 0)
(7.89253 -0.148034 0)
(7.89175 -0.145989 0)
(7.89005 -0.144518 0)
(7.88751 -0.143633 0)
(7.88422 -0.143298 0)
(7.33892 -0.0542874 0)
(7.37188 -0.151287 0)
(7.41452 -0.220302 0)
(7.4579 -0.266993 0)
(7.50414 -0.297527 0)
(7.5541 -0.315859 0)
(7.60625 -0.325682 0)
(7.65944 -0.329674 0)
(7.71276 -0.329527 0)
(7.76516 -0.326392 0)
(7.8157 -0.321075 0)
(7.8637 -0.314148 0)
(7.90866 -0.306043 0)
(7.95025 -0.297097 0)
(7.98831 -0.287586 0)
(8.02278 -0.277743 0)
(8.05372 -0.267761 0)
(8.08123 -0.257806 0)
(8.10548 -0.248011 0)
(8.12666 -0.238485 0)
(8.14496 -0.229312 0)
(8.16058 -0.220557 0)
(8.17372 -0.212265 0)
(8.18456 -0.204469 0)
(8.19327 -0.197193 0)
(8.20001 -0.190451 0)
(8.20492 -0.184254 0)
(8.20813 -0.178616 0)
(8.20974 -0.173555 0)
(8.20985 -0.169091 0)
(8.20859 -0.165286 0)
(8.20606 -0.162156 0)
(8.20243 -0.159847 0)
(7.33755 -0.0403217 0)
(7.38843 -0.105495 0)
(7.4775 -0.163052 0)
(7.57885 -0.218566 0)
(7.68636 -0.265756 0)
(7.79489 -0.302261 0)
(7.89844 -0.328712 0)
(7.99351 -0.345791 0)
(8.07814 -0.35457 0)
(8.15126 -0.356508 0)
(8.21268 -0.353061 0)
(8.26282 -0.345544 0)
(8.30246 -0.33509 0)
(8.33261 -0.322641 0)
(8.35438 -0.308946 0)
(8.36887 -0.294592 0)
(8.37714 -0.280028 0)
(8.38015 -0.265585 0)
(8.37878 -0.251502 0)
(8.37379 -0.237946 0)
(8.36582 -0.225024 0)
(8.35544 -0.212801 0)
(8.34309 -0.201311 0)
(8.32919 -0.190559 0)
(8.31402 -0.180539 0)
(8.29785 -0.17123 0)
(8.28088 -0.162609 0)
(8.26325 -0.154654 0)
(8.24506 -0.147357 0)
(8.22635 -0.14072 0)
(8.20724 -0.134863 0)
(8.18749 -0.129781 0)
(8.16771 -0.126352 0)
(7.39944 -0.196752 0)
(7.59547 -0.376018 0)
(7.76797 -0.458866 0)
(7.89481 -0.512627 0)
(7.97802 -0.541141 0)
(8.01573 -0.550243 0)
(8.01222 -0.546557 0)
(7.9759 -0.533435 0)
(7.91448 -0.513382 0)
(7.83459 -0.488664 0)
(7.74206 -0.461079 0)
(7.64168 -0.432025 0)
(7.53718 -0.402587 0)
(7.43145 -0.373576 0)
(7.32661 -0.345567 0)
(7.22419 -0.318946 0)
(7.12524 -0.293948 0)
(7.03045 -0.27069 0)
(6.94021 -0.249209 0)
(6.85473 -0.229478 0)
(6.77404 -0.211433 0)
(6.69809 -0.194983 0)
(6.62672 -0.180021 0)
(6.55976 -0.166431 0)
(6.49698 -0.154093 0)
(6.43814 -0.142889 0)
(6.38298 -0.132694 0)
(6.33121 -0.123393 0)
(6.28256 -0.114847 0)
(6.23657 -0.106934 0)
(6.19294 -0.0995852 0)
(6.15054 -0.0920898 0)
(6.1099 -0.0875576 0)
(7.16013 -0.185881 0)
(6.91098 -0.345179 0)
(6.49989 -0.392504 0)
(6.03631 -0.393974 0)
(5.59636 -0.36585 0)
(5.18032 -0.321955 0)
(4.79228 -0.273206 0)
(4.43905 -0.225224 0)
(4.12122 -0.180996 0)
(3.83714 -0.142001 0)
(3.58481 -0.108639 0)
(3.36169 -0.0807192 0)
(3.16495 -0.0577617 0)
(2.9918 -0.0391458 0)
(2.83959 -0.0242211 0)
(2.70585 -0.0123736 0)
(2.58832 -0.00305515 0)
(2.48497 0.00420518 0)
(2.394 0.00980246 0)
(2.31384 0.0140623 0)
(2.24308 0.0172505 0)
(2.18051 0.0195823 0)
(2.12506 0.021233 0)
(2.07582 0.022346 0)
(2.03199 0.0230442 0)
(1.9929 0.023435 0)
(1.95794 0.023634 0)
(1.92671 0.023758 0)
(1.89868 0.0240053 0)
(1.87393 0.0246661 0)
(1.85166 0.0259656 0)
(1.83346 0.0305188 0)
(1.81794 0.0251219 0)
(1.50891 -0.0223734 0)
(1.69205 -0.0223412 0)
(1.74979 0.000901364 0)
(1.77526 0.0286219 0)
(1.86064 0.107011 0)