/*--------------------------------*- C++ -*----------------------------------*\
  =========                 |
  \\      /  F ield         | OpenFOAM: The Open Source CFD Toolbox
   \\    /   O peration     | Website:  https://openfoam.org
    \\  /    A nd           | Version:  10
     \\/     M anipulation  |
\*---------------------------------------------------------------------------*/
FoamFile
{
    format      ascii;
    class       volScalarField;
    location    "1800";
    object      epsilon;
}
// * * * * * * * * * * * * * * * * * * * * * * * * * * * * * * * * * * * * * //

dimensions      [0 2 -3 0 0 0 0];

internalField   nonuniform List<scalar> 
6820
(
23.348
22.8004
22.2986
21.7955
21.2906
20.7982
20.3322
19.9018
19.5115
19.1625
18.854
18.5838
18.3492
18.1472
17.9749
17.8293
17.7077
17.6078
17.527
17.4635
17.4153
17.3808
17.3584
17.3468
17.3449
17.3515
17.3653
17.3901
17.3998
17.5452
17.0471
18.0033
18.1914
5.24751
7.40662
8.54842
9.1643
9.55081
9.84248
10.0974
10.341
10.5842
10.831
11.0824
11.3384
11.5984
11.8619
12.128
12.3962
12.6658
12.9365
13.2078
13.4795
13.7515
14.0237
14.2966
14.5708
14.8475
15.1288
15.4176
15.7245
16.0397
16.4484
16.8205
17.724
17.2446
3.71892
4.27984
4.80507
5.21587
5.52707
5.76885
5.96518
6.13245
6.28149
6.41941
6.55088
6.67896
6.80569
6.93236
7.05975
7.18836
7.31843
7.45008
7.58336
7.71825
7.85475
7.99286
8.13266
8.27435
8.41829
8.56516
8.71591
8.87399
9.03702
9.22127
9.45231
9.64301
9.74052
3.53759
3.62334
3.77161
3.93767
4.09565
4.2363
4.3586
4.46477
4.55783
4.64067
4.71577
4.78513
4.85035
4.91267
4.97302
5.03215
5.09061
5.1488
5.20705
5.26559
5.32463
5.38431
5.4448
5.50629
5.569
5.63329
5.69962
5.76912
5.8422
5.9214
6.01981
6.12047
6.18166
3.52015
3.50151
3.51116
3.54399
3.59072
3.64324
3.69628
3.74698
3.79414
3.83746
3.87714
3.91357
3.94725
3.97864
4.00822
4.03636
4.06341
4.08968
4.1154
4.14078
4.16602
4.19127
4.21668
4.2424
4.26861
4.29552
4.32339
4.35269
4.38388
4.41773
4.45747
4.50383
4.54036
3.51931
3.48209
3.45346
3.43537
3.42736
3.42747
3.43329
3.4427
3.45408
3.4663
3.47865
3.49072
3.5023
3.51331
3.52373
3.53362
3.54306
3.55212
3.56089
3.56947
3.57793
3.58637
3.59486
3.6035
3.61239
3.62165
3.63142
3.64193
3.65343
3.66628
3.68126
3.69922
3.71729
3.51943
3.47964
3.44271
3.40975
3.38151
3.35815
3.33934
3.32446
3.31277
3.30357
3.29627
3.29038
3.28553
3.28145
3.27793
3.27483
3.27207
3.26958
3.26732
3.26528
3.26346
3.26185
3.26049
3.25938
3.25857
3.25811
3.25807
3.25854
3.25965
3.26158
3.26455
3.26883
3.2741
3.51947
3.47942
3.44105
3.40466
3.37057
3.33904
3.3102
3.28404
3.26042
3.23912
3.21988
3.20246
3.18659
3.17206
3.15868
3.14628
3.13475
3.12396
3.11383
3.1043
3.0953
3.08681
3.07879
3.07121
3.06409
3.05741
3.0512
3.04549
3.04033
3.0358
3.03197
3.02891
3.0266
3.51948
3.47941
3.44084
3.4038
3.36834
3.33452
3.30242
3.27208
3.2435
3.21665
3.19147
3.16786
3.14573
3.12495
3.10542
3.08703
3.06968
3.05327
3.03774
3.023
3.00899
2.99567
2.98299
2.9709
2.95939
2.94843
2.93802
2.92816
2.91885
2.91013
2.90201
2.8945
2.88758
3.51948
3.47941
3.44082
3.40367
3.36794
3.3336
3.30062
3.26901
3.23874
3.20981
3.18219
3.15585
3.13074
3.10682
3.08403
3.0623
3.04159
3.02183
3.00297
2.98495
2.96772
2.95124
2.93546
2.92035
2.90589
2.89203
2.87877
2.8661
2.854
2.84247
2.83153
2.82115
2.8113
3.51948
3.4794
3.44081
3.40365
3.36787
3.33342
3.30024
3.2683
3.23756
3.20797
3.17952
3.15217
3.12588
3.10063
3.07638
3.05308
3.03071
3.00922
2.98858
2.96875
2.94968
2.93136
2.91375
2.8968
2.88051
2.86484
2.84978
2.83531
2.82141
2.80809
2.79532
2.7831
2.7714
3.51948
3.4794
3.4408
3.40364
3.36785
3.33338
3.30016
3.26815
3.23728
3.20752
3.17883
3.15116
3.12447
3.09874
3.07393
3.05
3.02693
3.00468
2.98322
2.96253
2.94256
2.9233
2.90472
2.8868
2.8695
2.85282
2.83673
2.82122
2.80627
2.79187
2.77802
2.76468
2.75185
3.51948
3.4794
3.4408
3.40363
3.36784
3.33336
3.30013
3.2681
3.23721
3.20741
3.17865
3.15089
3.12409
3.09821
3.07321
3.04907
3.02574
3.0032
2.98142
2.96037
2.94002
2.92035
2.90133
2.88294
2.86517
2.84798
2.83137
2.81533
2.79982
2.78485
2.7704
2.75644
2.74297
3.51948
3.4794
3.44079
3.40362
3.36783
3.33334
3.30011
3.26807
3.23717
3.20736
3.17859
3.15081
3.12397
3.09805
3.07301
3.0488
3.02539
3.00275
2.98086
2.95968
2.93919
2.91936
2.90017
2.88159
2.86361
2.84621
2.82937
2.81308
2.79731
2.78206
2.76731
2.75305
2.73925
3.51948
3.47939
3.44079
3.40362
3.36782
3.33333
3.3001
3.26806
3.23715
3.20733
3.17855
3.15076
3.12393
3.09799
3.07293
3.0487
3.02527
3.00261
2.98068
2.95946
2.93893
2.91904
2.89979
2.88115
2.8631
2.84562
2.82868
2.81229
2.79641
2.78104
2.76615
2.75174
2.73778
3.51947
3.47939
3.44078
3.40361
3.36781
3.33332
3.30009
3.26804
3.23713
3.20731
3.17853
3.15074
3.12389
3.09796
3.07289
3.04866
3.02522
3.00255
2.98061
2.95938
2.93883
2.91894
2.89967
2.88101
2.86293
2.84542
2.82845
2.81202
2.7961
2.78067
2.76573
2.75125
2.73721
3.51947
3.47939
3.44078
3.40361
3.36781
3.33332
3.30007
3.26803
3.23712
3.20729
3.17851
3.15071
3.12387
3.09793
3.07286
3.04862
3.02519
3.00251
2.98057
2.95934
2.93879
2.91889
2.89961
2.88095
2.86286
2.84534
2.82837
2.81192
2.79598
2.78053
2.76555
2.75104
2.73696
3.51947
3.47939
3.44078
3.4036
3.3678
3.33331
3.30007
3.26801
3.2371
3.20728
3.17849
3.15069
3.12384
3.0979
3.07283
3.0486
3.02516
3.00248
2.98055
2.95931
2.93876
2.91886
2.89958
2.88091
2.86283
2.8453
2.82832
2.81186
2.79591
2.78045
2.76546
2.75092
2.73682
3.51947
3.47939
3.44078
3.4036
3.3678
3.3333
3.30006
3.268
3.23709
3.20726
3.17847
3.15067
3.12382
3.09788
3.07281
3.04857
3.02513
3.00246
2.98052
2.95929
2.93873
2.91883
2.89956
2.88089
2.8628
2.84527
2.82828
2.81182
2.79586
2.78039
2.76539
2.75084
2.73672
3.51947
3.47939
3.44078
3.4036
3.36779
3.3333
3.30005
3.268
3.23708
3.20725
3.17846
3.15066
3.12381
3.09787
3.07279
3.04855
3.02511
3.00244
2.9805
2.95927
2.93871
2.91881
2.89953
2.88086
2.86277
2.84524
2.82825
2.81178
2.79582
2.78034
2.76532
2.75076
2.73663
3.51947
3.47939
3.44077
3.4036
3.36779
3.33329
3.30004
3.26799
3.23707
3.20724
3.17845
3.15065
3.12379
3.09785
3.07278
3.04854
3.0251
3.00242
2.98048
2.95925
2.93869
2.91879
2.89951
2.88084
2.86274
2.84521
2.82822
2.81175
2.79577
2.78028
2.76526
2.75069
2.73654
3.51947
3.47939
3.44077
3.40359
3.36779
3.33329
3.30004
3.26798
3.23706
3.20723
3.17844
3.15063
3.12378
3.09784
3.07276
3.04852
3.02508
3.0024
2.98046
2.95923
2.93867
2.91877
2.89949
2.88081
2.86272
2.84518
2.82819
2.81171
2.79573
2.78023
2.7652
2.75062
2.73646
3.51947
3.47939
3.44077
3.40359
3.36778
3.33329
3.30004
3.26798
3.23706
3.20722
3.17843
3.15063
3.12377
3.09783
3.07275
3.04851
3.02507
3.00239
2.98045
2.95921
2.93866
2.91875
2.89947
2.88079
2.8627
2.84516
2.82816
2.81167
2.79569
2.78018
2.76514
2.75055
2.73638
3.51947
3.47938
3.44077
3.40359
3.36778
3.33328
3.30003
3.26797
3.23705
3.20722
3.17842
3.15062
3.12376
3.09782
3.07274
3.0485
3.02506
3.00238
2.98044
2.9592
2.93864
2.91873
2.89945
2.88077
2.86267
2.84513
2.82812
2.81164
2.79565
2.78013
2.76509
2.75048
2.73631
3.51947
3.47938
3.44077
3.40359
3.36778
3.33328
3.30003
3.26797
3.23705
3.20721
3.17842
3.15061
3.12376
3.09781
3.07273
3.04849
3.02505
3.00237
2.98043
2.95919
2.93863
2.91872
2.89944
2.88075
2.86265
2.8451
2.8281
2.8116
2.79561
2.78009
2.76503
2.75042
2.73624
3.51947
3.47938
3.44077
3.40359
3.36778
3.33328
3.30003
3.26797
3.23705
3.20721
3.17841
3.15061
3.12375
3.09781
3.07273
3.04848
3.02504
3.00236
2.98042
2.95918
2.93862
2.91871
2.89942
2.88074
2.86263
2.84508
2.82807
2.81157
2.79557
2.78004
2.76498
2.75037
2.73617
3.51947
3.47938
3.44077
3.40359
3.36778
3.33328
3.30003
3.26797
3.23704
3.20721
3.17841
3.15061
3.12375
3.0978
3.07272
3.04848
3.02503
3.00236
2.98041
2.95917
2.93861
2.9187
2.89941
2.88072
2.86261
2.84506
2.82804
2.81154
2.79553
2.78
2.76494
2.75031
2.73611
3.51947
3.47938
3.44077
3.40359
3.36778
3.33328
3.30003
3.26797
3.23704
3.20721
3.17841
3.1506
3.12375
3.0978
3.07272
3.04848
3.02503
3.00235
2.98041
2.95917
2.9386
2.91869
2.8994
2.88071
2.8626
2.84504
2.82802
2.81151
2.7955
2.77997
2.76489
2.75026
2.73606
3.51947
3.47938
3.44077
3.40359
3.36778
3.33328
3.30003
3.26797
3.23704
3.20721
3.17841
3.1506
3.12375
3.0978
3.07272
3.04848
3.02503
3.00235
2.9804
2.95916
2.9386
2.91868
2.89939
2.8807
2.86258
2.84502
2.828
2.81149
2.79547
2.77994
2.76486
2.75022
2.73601
3.51947
3.47938
3.44077
3.40359
3.36778
3.33328
3.30003
3.26797
3.23704
3.20721
3.17841
3.15061
3.12375
3.0978
3.07272
3.04848
3.02503
3.00235
2.9804
2.95916
2.9386
2.91868
2.89939
2.88069
2.86258
2.84502
2.82799
2.81147
2.79546
2.77991
2.76483
2.75019
2.73597
3.51947
3.47938
3.44077
3.40359
3.36778
3.33328
3.30003
3.26797
3.23704
3.20721
3.17841
3.15061
3.12375
3.0978
3.07273
3.04848
3.02504
3.00235
2.98041
2.95916
2.9386
2.91868
2.89939
2.88069
2.86258
2.84501
2.82798
2.81147
2.79545
2.77991
2.76482
2.75018
2.73596
3.51947
3.47938
3.44077
3.40359
3.36778
3.33328
3.30003
3.26797
3.23705
3.20721
3.17842
3.15062
3.12376
3.09782
3.07274
3.0485
3.02506
3.00238
2.98044
2.9592
2.93864
2.91872
2.89943
2.88075
2.86264
2.84508
2.82806
2.81155
2.79554
2.78001
2.76493
2.7503
2.73609
3.51947
3.47938
3.44077
3.40359
3.36778
3.33328
3.30003
3.26797
3.23705
3.20722
3.17843
3.15063
3.12378
3.09785
3.07278
3.04856
3.02513
3.00247
2.98055
2.95934
2.9388
2.91892
2.89967
2.88102
2.86295
2.84544
2.82847
2.81202
2.79606
2.78059
2.76557
2.75101
2.73687
3.51947
3.47938
3.44077
3.40359
3.36778
3.33329
3.30005
3.26801
3.23712
3.20733
3.17858
3.15084
3.12405
3.09819
3.07322
3.04909
3.02577
3.00324
2.98145
2.96039
2.94002
2.92031
2.90124
2.88279
2.86494
2.84765
2.8309
2.81469
2.79898
2.78376
2.76901
2.75471
2.74085
3.51947
3.47938
3.44077
3.40361
3.36785
3.33343
3.30029
3.26839
3.23768
3.20812
3.17966
3.15225
3.12587
3.10046
3.07599
3.05243
3.02972
3.00785
2.98678
2.96647
2.94689
2.92801
2.9098
2.89223
2.87528
2.85892
2.84312
2.82787
2.81313
2.79888
2.78511
2.7718
2.75892
3.51947
3.47942
3.44096
3.40413
3.36894
3.33534
3.30329
3.27271
3.24357
3.2158
3.18935
3.16416
3.14017
3.11734
3.09559
3.07487
3.05513
3.03631
3.01836
3.00123
2.98487
2.96923
2.95428
2.93997
2.92626
2.91313
2.90053
2.88843
2.87681
2.86563
2.85488
2.84453
2.83455
3.5195
3.48075
3.44538
3.41321
3.384
3.35752
3.33361
3.31209
3.29278
3.2755
3.26004
3.24624
3.23391
3.22289
3.21304
3.20422
3.1963
3.18918
3.18275
3.17693
3.17165
3.16682
3.16239
3.15831
3.15453
3.15102
3.14772
3.14462
3.14168
3.13888
3.1362
3.13362
3.13112
3.52508
3.51484
3.5211
3.53672
3.55873
3.58559
3.61627
3.64986
3.68554
3.72265
3.76062
3.79902
3.83749
3.87573
3.91354
3.95073
3.98717
4.02276
4.05743
4.09113
4.12381
4.15546
4.18607
4.21564
4.24418
4.27169
4.2982
4.32372
4.34829
4.37192
4.39464
4.41648
4.43747
3.842
4.38779
4.87732
5.34203
5.79364
6.23372
6.66022
7.07179
7.46839
7.8506
8.21917
8.57484
8.91839
9.25052
9.57189
9.88304
10.1845
10.4767
10.76
11.0349
11.3015
11.5603
11.8115
12.0554
12.2922
12.5222
12.7456
12.9626
13.1735
13.3784
13.5775
13.7711
13.9595
30.2673
32.7691
35.3053
37.8486
40.3862
42.9099
45.413
47.8885
50.3297
52.7307
55.0863
57.3918
59.6433
61.8376
63.9719
66.044
68.0526
69.9963
71.8746
73.6873
75.4343
77.1161
78.7334
80.2871
81.7781
83.2079
84.5778
85.8893
87.1441
88.3436
89.4898
90.5842
91.6295
44.1959
107.399
512.037
979.526
1168.97
1136.72
1024.06
906.897
810.499
737.734
683.574
641.476
606.008
573.582
542.299
511.503
481.314
452.222
424.794
399.493
376.606
356.243
338.361
322.805
309.34
297.68
287.509
278.504
270.351
262.768
255.508
248.378
241.244
234.039
226.765
219.499
212.387
205.625
199.44
194.053
189.63
186.243
183.823
182.166
180.951
179.797
178.332
176.243
173.309
169.405
164.499
158.633
151.907
144.467
136.488
128.164
119.696
111.281
103.094
95.2786
87.9371
81.1269
74.8609
69.1155
63.8422
58.982
54.4779
50.2849
46.3765
42.7463
39.4074
36.3916
33.7501
31.5596
29.9294
28.9961
28.8806
29.6068
31.0387
32.9022
34.8791
36.6994
38.1847
39.2461
39.8621
40.0529
39.8618
39.3418
38.5491
37.5393
36.3654
35.0781
33.7253
32.352
30.9997
29.702
28.4895
27.36
26.3927
25.1244
26.604
35.3118
51.309
145.164
316.524
466.914
543.716
560.549
548.478
528.461
509.267
492.312
476.026
458.608
439.226
418.106
396.092
374.188
353.259
333.905
316.454
301.01
287.516
275.813
265.673
256.83
248.994
241.869
235.175
228.664
222.134
215.443
208.517
201.351
194.012
186.635
179.41
172.571
166.367
161.035
156.759
153.625
151.585
150.441
149.866
149.454
148.789
147.513
145.36
142.179
137.924
132.64
126.443
119.502
112.017
104.21
96.302
88.5031
80.9968
73.9289
67.3987
61.4562
56.1051
51.3108
47.0134
43.1422
39.6288
36.4174
33.4707
30.7714
28.3213
26.1398
24.264
22.7548
21.7066
21.2471
21.5025
22.5189
24.1921
26.278
28.4785
30.533
32.2645
33.5816
34.4579
34.9095
34.9758
34.7075
34.1593
33.386
32.441
31.3753
30.2375
29.0724
27.9212
26.8166
25.7873
24.8327
24.0195
22.96
12.1732
13.1455
9.95113
9.53038
27.8939
74.7522
136.025
191.491
231.375
256.152
270.154
277.218
279.54
278.137
273.601
266.579
257.9
248.449
238.988
230.052
221.936
214.744
208.457
202.979
198.169
193.856
189.844
185.931
181.919
177.633
172.944
167.776
162.122
156.04
149.655
143.143
136.728
130.653
125.173
120.522
116.888
114.377
112.981
112.546
112.784
113.304
113.68
113.518
112.516
110.484
107.352
103.156
98.0143
92.1068
85.6503
78.8794
72.0273
65.3098
58.9103
52.9695
47.5785
42.778
38.5624
34.8893
31.6926
28.8959
26.4259
24.2211
22.2373
20.4489
18.8479
17.4413
16.2513
15.3195
14.7179
14.5575
14.9687
16.0347
17.7109
19.8095
22.0674
24.2353
26.1323
27.6558
28.7672
29.4714
29.7991
29.7946
29.5083
28.9921
28.2979
27.4756
26.5728
25.6336
24.6976
23.7964
22.9568
22.1804
21.5217
20.6714
6.54132
7.19551
6.85309
5.12529
4.25379
7.73185
18.6398
36.0985
56.2865
75.4562
91.3201
103.085
110.895
115.356
117.297
117.619
117.141
116.482
116.009
115.869
116.058
116.495
117.072
117.68
118.214
118.567
118.628
118.281
117.411
115.92
113.743
110.867
107.332
103.238
98.7375
94.0217
89.3072
84.8201
80.7803
77.3883
74.8106
73.1611
72.4755
72.6829
73.5886
74.8848
76.194
77.1326
77.3749
76.6961
74.9898
72.2629
68.6164
64.2208
59.2894
54.054
48.7426
43.5607
38.677
34.2143
30.2457
26.7969
23.8529
21.3682
19.279
17.5146
16.0079
14.7019
13.5544
12.5384
11.6409
10.8611
10.2091
9.70874
9.40638
9.3845
9.76222
10.6534
12.0875
13.9603
16.0665
18.1793
20.1138
21.7513
23.0341
23.9494
24.5136
24.7602
24.7314
24.4738
24.0349
23.4621
22.8005
22.0923
21.3753
20.6795
20.0299
19.4309
18.924
18.2806
4.60687
4.80156
4.93852
4.66446
4.03434
3.74405
4.61725
7.14856
11.3072
16.5447
22.0493
27.0641
31.0855
33.9391
35.7187
36.7146
37.3071
37.8679
38.6858
39.9263
41.6277
43.7267
46.0974
48.5889
51.0505
53.343
55.3402
56.9288
58.0097
58.5051
58.3682
57.593
56.2198
54.3347
52.062
49.552
46.9669
44.4679
42.2048
40.3105
38.8983
38.0588
37.851
38.284
39.292
40.717
42.3142
43.7877
44.8448
45.2499
44.8594
43.6341
41.6303
38.9788
35.858
32.4667
28.9993
25.6263
22.4808
19.6525
17.1879
15.0961
13.3573
11.9325
10.7727
9.82648
9.04597
8.39073
7.82987
7.34253
6.91717
6.55033
6.24556
6.0143
5.88097
5.89452
6.1405
6.73067
7.74938
9.18694
10.9244
12.7824
14.5857
16.2022
17.552
18.6
19.3431
19.7992
19.9985
19.9784
19.7798
19.4448
19.0149
18.5293
18.0231
17.5248
17.0575
16.6286
16.2667
15.823
3.73891
3.78407
3.84622
3.85239
3.73235
3.55459
3.51215
3.78114
4.44299
5.46866
6.73833
8.08269
9.32493
10.3286
11.0513
11.5213
11.8177
12.0444
12.3069
12.6933
13.263
14.0411
15.0197
16.163
17.4145
18.7054
19.9596
21.1004
22.0544
22.7586
23.1671
23.2571
23.0335
22.5285
21.7973
20.911
19.9474
18.9836
18.0901
17.3284
16.7516
16.4061
16.3331
16.5649
17.113
17.9505
18.9953
20.1085
21.1135
21.8326
22.1261
21.9186
21.2079
20.0567
18.5728
16.8858
15.1248
13.4006
11.7966
10.3648
9.1292
8.09159
7.23848
6.54768
5.9932
5.54871
5.18986
4.89574
4.64976
4.44002
4.25927
4.10447
3.97637
3.87966
3.82494
3.83509
3.95642
4.2659
4.85331
5.77247
6.99784
8.42726
9.92383
11.3599
12.6411
13.7104
14.5431
15.1379
15.5093
15.6825
15.6885
15.5618
15.338
15.0519
14.7356
14.4157
14.1136
13.8394
13.6092
13.3501
3.28103
3.29078
3.30557
3.31728
3.30568
3.2647
3.2228
3.2285
3.3216
3.51651
3.80089
4.142
4.49233
4.80489
5.05461
5.23511
5.35699
5.44289
5.52124
5.62022
5.76311
5.96531
6.23305
6.56349
6.94563
7.36182
7.78939
8.20251
8.57434
8.87958
9.09739
9.21417
9.22556
9.13705
8.96302
8.72441
8.44573
8.15216
7.86738
7.61238
7.40541
7.26277
7.2
7.23251
7.37415
7.63216
7.99892
8.44373
8.91034
9.3245
9.61036
9.70937
9.59393
9.27128
8.77766
8.1667
7.49641
6.81872
6.17335
5.58604
5.06985
4.62816
4.25789
3.95223
3.7026
3.49989
3.33526
3.20062
3.08911
2.99533
2.91562
2.84803
2.79238
2.7502
2.72543
2.72684
2.77413
2.90641
3.18368
3.66833
4.39069
5.32584
6.40034
7.5197
8.59554
9.56077
10.3733
11.0136
11.4791
11.7803
11.9361
11.9712
11.9131
11.7907
11.6317
11.4602
11.2959
11.1517
11.0322
10.9319
3.02489
3.02302
3.02162
3.02065
3.01694
3.00662
2.99115
2.97929
2.9832
3.01236
3.06976
3.15092
3.2441
3.33541
3.41447
3.47564
3.51874
3.54835
3.57214
3.599
3.63712
3.69271
3.76916
3.86683
3.98319
4.11326
4.25015
4.3857
4.51121
4.61829
4.6997
4.75025
4.76742
4.75163
4.70613
4.63641
4.54941
4.4527
4.3537
4.25928
4.17548
4.10761
4.06056
4.03909
4.04797
4.09124
4.17045
4.28193
4.41443
4.54881
4.661
4.7275
4.73141
4.66637
4.53701
4.35649
4.14227
3.91211
3.68119
3.46073
3.25788
3.07634
2.91725
2.78007
2.6632
2.56451
2.48159
2.412
2.35339
2.30375
2.2615
2.22564
2.19585
2.17249
2.1568
2.15172
2.16425
2.21034
2.31976
2.53391
2.89119
3.40703
4.06315
4.81283
5.59618
6.35542
7.04458
7.633
8.10483
8.45672
8.69504
8.83325
8.88966
8.88539
8.84239
8.78141
8.71975
8.67238
8.63515
8.65558
2.88038
2.87238
2.86425
2.85623
2.84816
2.83925
2.82894
2.81808
2.80911
2.80513
2.80849
2.8196
2.83628
2.85499
2.87217
2.88518
2.893
2.8963
2.89717
2.89852
2.90334
2.91419
2.9327
2.95939
2.99366
3.03389
3.07765
3.122
3.16371
3.19965
3.22705
3.2438
3.24868
3.24145
3.22284
3.19438
3.15822
3.11681
3.07269
3.02831
2.98585
2.94725
2.91421
2.88829
2.87098
2.86365
2.86722
2.88157
2.90473
2.93247
2.9585
2.97567
2.97756
2.96002
2.92199
2.8653
2.79393
2.71283
2.62692
2.5404
2.45647
2.37728
2.30411
2.23756
2.17775
2.1245
2.07742
2.03599
1.99963
1.96773
1.93978
1.91536
1.89429
1.87659
1.8626
1.85313
1.85037
1.85984
1.89364
1.97244
2.12215
2.36443
2.7064
3.13627
3.62656
4.14177
4.64643
5.11086
5.514
5.84394
6.09723
6.27741
6.39349
6.45838
6.48728
6.49614
6.4991
6.5118
6.52464
6.6183
2.80058
2.78866
2.77672
2.7648
2.75301
2.74133
2.72955
2.71757
2.70565
2.69444
2.68473
2.67698
2.67102
2.66611
2.66124
2.65547
2.64824
2.63953
2.62988
2.62024
2.61173
2.60545
2.60221
2.60241
2.60602
2.61255
2.62113
2.63062
2.63973
2.64714
2.65165
2.6523
2.64843
2.63976
2.62637
2.60868
2.58735
2.56322
2.5372
2.51019
2.48306
2.45657
2.43142
2.40823
2.38756
2.36993
2.35578
2.34531
2.33828
2.33385
2.33046
2.3261
2.31865
2.30635
2.28818
2.26397
2.2343
2.2003
2.1633
2.12463
2.08547
2.04671
2.00903
1.9729
1.93861
1.90635
1.87622
1.84826
1.82243
1.79868
1.7769
1.75702
1.73896
1.72272
1.70832
1.69594
1.68614
1.68056
1.68343
1.70329
1.75342
1.84893
2.00139
2.21386
2.47917
2.78177
3.10156
3.4179
3.71283
3.97295
4.19023
4.3619
4.48991
4.58005
4.64095
4.68316
4.71683
4.75617
4.7897
4.90818
2.75843
2.74398
2.72958
2.71523
2.701
2.68694
2.67302
2.65916
2.64531
2.63154
2.61798
2.6048
2.59201
2.57949
2.56699
2.55422
2.54097
2.52716
2.51292
2.49855
2.48449
2.47119
2.45905
2.44835
2.4392
2.43152
2.42504
2.41935
2.41396
2.4083
2.40183
2.39407
2.38467
2.37339
2.36014
2.34498
2.32806
2.30964
2.29
2.26948
2.24841
2.2271
2.20588
2.18503
2.16484
2.14559
2.12755
2.11091
2.09578
2.08208
2.06951
2.05756
2.04559
2.03294
2.01909
2.00369
1.98664
1.96802
1.94804
1.92697
1.90513
1.88278
1.86017
1.83752
1.81501
1.79282
1.77111
1.75002
1.72965
1.7101
1.69143
1.67366
1.65681
1.64086
1.62579
1.61157
1.59827
1.5863
1.57692
1.5732
1.58076
1.60759
1.66214
1.75049
1.8739
2.02821
2.2048
2.39256
2.57989
2.75645
2.91432
3.04857
3.15741
3.24197
3.30588
3.35488
3.39509
3.43749
3.47158
3.57774
2.73751
2.72148
2.70553
2.68964
2.67384
2.65818
2.64265
2.62724
2.6119
2.59659
2.58132
2.56608
2.55088
2.53569
2.52042
2.505
2.48934
2.47341
2.45724
2.44092
2.42461
2.4085
2.39279
2.37764
2.36315
2.34938
2.33627
2.32373
2.31158
2.2996
2.28757
2.27525
2.26245
2.249
2.23479
2.21975
2.20387
2.18717
2.16972
2.1516
2.13293
2.11383
2.09446
2.07497
2.05557
2.03643
2.01778
1.99979
1.98264
1.96644
1.95119
1.93683
1.92319
1.91004
1.89713
1.88422
1.87109
1.85759
1.84362
1.8291
1.81401
1.79835
1.78217
1.76551
1.74847
1.73115
1.71366
1.69615
1.67871
1.66147
1.64451
1.62789
1.61165
1.59576
1.58021
1.56491
1.54981
1.53495
1.52066
1.5079
1.49875
1.49668
1.50628
1.53219
1.5776
1.64312
1.72646
1.82297
1.92657
2.03089
2.13017
2.21992
2.29733
2.36137
2.41274
2.45384
2.4876
2.52124
2.54677
2.62268
2.72786
2.71091
2.69402
2.6772
2.66045
2.64379
2.62724
2.61078
2.5944
2.57807
2.56177
2.54546
2.52913
2.51276
2.49631
2.47974
2.46302
2.44614
2.42909
2.41193
2.3947
2.37749
2.36039
2.34348
2.32686
2.31057
2.29465
2.27909
2.26385
2.24886
2.23405
2.21931
2.20452
2.18958
2.1744
2.15888
2.14297
2.12661
2.10978
2.09247
2.07469
2.0565
2.03798
2.01922
2.00037
1.98159
1.96305
1.94494
1.92742
1.91064
1.8947
1.87964
1.86544
1.85202
1.83924
1.82695
1.81495
1.80305
1.79108
1.77887
1.76629
1.75326
1.73972
1.72566
1.71109
1.69607
1.68068
1.665
1.64914
1.63317
1.61719
1.60124
1.58535
1.56951
1.55369
1.53781
1.52179
1.50557
1.48922
1.47301
1.45765
1.44447
1.43551
1.43333
1.44044
1.45855
1.48804
1.52777
1.5753
1.6274
1.68064
1.73185
1.77856
1.81921
1.85321
1.88111
1.90391
1.92559
1.94105
1.98562
2.72372
2.70627
2.68887
2.67152
2.65422
2.63698
2.61981
2.60272
2.58569
2.5687
2.55175
2.53479
2.51782
2.50081
2.48374
2.46658
2.44931
2.43194
2.41445
2.39687
2.37922
2.36155
2.3439
2.32632
2.30886
2.29158
2.27451
2.25767
2.24107
2.22471
2.20855
2.19255
2.17666
2.16081
2.14492
2.12891
2.11271
2.09626
2.0795
2.0624
2.04493
2.02711
2.00899
1.99063
1.97214
1.95367
1.93536
1.91738
1.8999
1.88305
1.86695
1.85168
1.83724
1.82362
1.81073
1.79843
1.78658
1.775
1.76351
1.75195
1.74016
1.72803
1.71547
1.70244
1.68892
1.67494
1.66054
1.64578
1.63072
1.61545
1.60001
1.58444
1.56877
1.55298
1.53703
1.52086
1.50437
1.48752
1.47028
1.45274
1.43515
1.41798
1.40206
1.38855
1.37884
1.37428
1.37582
1.38374
1.39754
1.416
1.43748
1.46017
1.48237
1.50274
1.5204
1.53508
1.54684
1.55745
1.56431
1.58441
2.72205
2.70434
2.68667
2.66903
2.65143
2.63387
2.61636
2.5989
2.58148
2.5641
2.54674
2.52939
2.51203
2.49464
2.47721
2.45971
2.44214
2.42448
2.40675
2.38894
2.37108
2.35319
2.33531
2.31746
2.29967
2.282
2.26446
2.24709
2.2299
2.21291
2.19611
2.17948
2.16299
2.14659
2.13023
2.11385
2.09738
2.08075
2.06391
2.04682
2.02945
2.01179
1.99388
1.97577
1.95754
1.93931
1.92122
1.90341
1.88603
1.86922
1.85308
1.83769
1.82308
1.80924
1.79609
1.78356
1.7715
1.75976
1.74818
1.73661
1.7249
1.71294
1.70063
1.68792
1.67478
1.66121
1.64724
1.63291
1.61826
1.60333
1.58818
1.57283
1.55728
1.54153
1.52552
1.5092
1.4925
1.47536
1.45775
1.43972
1.42134
1.40284
1.38452
1.36689
1.35059
1.33638
1.32498
1.31693
1.31243
1.3113
1.31299
1.3167
1.32151
1.32655
1.33109
1.33466
1.337
1.3386
1.33871
1.34199
2.72137
2.70354
2.68572
2.66793
2.65017
2.63243
2.61473
2.59705
2.57941
2.5618
2.5442
2.52661
2.50901
2.4914
2.47375
2.45605
2.43829
2.42048
2.40261
2.38468
2.36671
2.34872
2.33073
2.31276
2.29484
2.277
2.25927
2.24167
2.22422
2.20693
2.1898
2.17283
2.156
2.13928
2.12262
2.10597
2.08928
2.0725
2.05556
2.03844
2.0211
2.00353
1.98576
1.96782
1.94979
1.93177
1.91386
1.89621
1.87894
1.86217
1.84599
1.83049
1.8157
1.8016
1.78816
1.77529
1.76288
1.7508
1.73891
1.72708
1.71517
1.70307
1.6907
1.67799
1.66492
1.65147
1.63766
1.62349
1.60902
1.59427
1.57926
1.56401
1.54853
1.53279
1.51675
1.50036
1.48357
1.46632
1.44859
1.43039
1.4118
1.3929
1.37386
1.3549
1.3363
1.31845
1.30173
1.28656
1.27322
1.26187
1.25248
1.2448
1.23848
1.23308
1.22816
1.22334
1.21836
1.21308
1.20802
1.20023
2.72107
2.70316
2.68527
2.66739
2.64953
2.63169
2.61387
2.59608
2.5783
2.56054
2.5428
2.52506
2.50732
2.48956
2.47178
2.45396
2.4361
2.4182
2.40025
2.38226
2.36424
2.3462
2.32816
2.31015
2.29217
2.27426
2.25644
2.23873
2.22114
2.20369
2.18638
2.16922
2.15218
2.13524
2.11837
2.10154
2.08469
2.06777
2.05076
2.0336
2.01627
1.99877
1.9811
1.96331
1.94545
1.9276
1.90986
1.89234
1.87516
1.85842
1.84221
1.82659
1.8116
1.79725
1.78348
1.77025
1.75745
1.74498
1.73271
1.72052
1.70831
1.69596
1.68339
1.67056
1.65741
1.64393
1.63013
1.61602
1.6016
1.58691
1.57196
1.55676
1.5413
1.52556
1.5095
1.49308
1.47626
1.45898
1.44124
1.42304
1.40443
1.38549
1.36632
1.34702
1.32777
1.30872
1.2901
1.27213
1.25503
1.23897
1.22405
1.21028
1.19759
1.18581
1.17476
1.16421
1.15402
1.14378
1.1349
1.11989
2.7209
2.70294
2.685
2.66707
2.64914
2.63124
2.61334
2.59546
2.5776
2.55975
2.54191
2.52407
2.50623
2.48838
2.47051
2.45261
2.43469
2.41673
2.39874
2.38072
2.36268
2.34463
2.32657
2.30854
2.29054
2.2726
2.25474
2.23696
2.2193
2.20175
2.18433
2.16703
2.14984
2.13276
2.11574
2.09876
2.08178
2.06477
2.04768
2.03049
2.01318
1.99573
1.97816
1.96049
1.94277
1.92507
1.90747
1.89007
1.87297
1.85625
1.83999
1.82427
1.80909
1.79449
1.78041
1.76682
1.75364
1.74077
1.72811
1.71556
1.703
1.69036
1.67755
1.66453
1.65124
1.63767
1.62382
1.60968
1.59526
1.58058
1.56563
1.55044
1.53497
1.51922
1.50315
1.48672
1.46989
1.45263
1.43492
1.41679
1.39827
1.37941
1.3603
1.34103
1.32168
1.30237
1.2832
1.26431
1.24582
1.22786
1.21052
1.19387
1.17795
1.16271
1.14812
1.13406
1.12052
1.10701
1.09548
1.07585
2.72077
2.70278
2.6848
2.66682
2.64885
2.63089
2.61294
2.59501
2.57708
2.55916
2.54124
2.52333
2.50542
2.4875
2.46957
2.45163
2.43366
2.41566
2.39765
2.37961
2.36156
2.3435
2.32544
2.30741
2.2894
2.27145
2.25356
2.23575
2.21803
2.20041
2.18291
2.16551
2.14821
2.13101
2.11387
2.09678
2.0797
2.06261
2.04547
2.02825
2.01095
1.99354
1.97605
1.95848
1.94088
1.92331
1.90584
1.88855
1.87151
1.85481
1.83851
1.82268
1.80734
1.7925
1.77814
1.76422
1.75068
1.73744
1.7244
1.71149
1.6986
1.68566
1.6726
1.65936
1.64591
1.63222
1.61827
1.60407
1.58961
1.5749
1.55994
1.54472
1.52924
1.51347
1.49739
1.48095
1.46413
1.44691
1.42926
1.41122
1.39281
1.37409
1.35512
1.33598
1.31674
1.29747
1.27825
1.25917
1.24029
1.2217
1.20346
1.18564
1.16828
1.15139
1.13499
1.11903
1.10358
1.0881
1.07492
1.05243
2.72066
2.70264
2.68463
2.66662
2.64861
2.63061
2.61261
2.59463
2.57664
2.55867
2.5407
2.52273
2.50476
2.48679
2.46881
2.45082
2.43282
2.41479
2.39676
2.37871
2.36065
2.34259
2.32453
2.30649
2.28849
2.27052
2.25261
2.23477
2.21702
2.19935
2.18178
2.1643
2.14692
2.12962
2.11239
2.0952
2.07804
2.06088
2.04369
2.02645
2.00915
1.99178
1.97435
1.95687
1.93938
1.92192
1.90455
1.88734
1.87036
1.85368
1.83735
1.82143
1.80594
1.79089
1.77628
1.76206
1.74819
1.73461
1.72123
1.70797
1.69477
1.68154
1.66823
1.65478
1.64115
1.62731
1.61326
1.59897
1.58445
1.56969
1.55469
1.53945
1.52394
1.50815
1.49205
1.47562
1.45881
1.44163
1.42406
1.40611
1.38783
1.36925
1.35045
1.33148
1.3124
1.29328
1.27418
1.25516
1.23627
1.21757
1.19909
1.18089
1.163
1.14545
1.12825
1.11139
1.09496
1.07844
1.06433
1.04022
2.72055
2.70252
2.68448
2.66644
2.6484
2.63036
2.61232
2.59429
2.57627
2.55825
2.54023
2.52221
2.5042
2.48618
2.46816
2.45013
2.43209
2.41404
2.39598
2.37792
2.35985
2.34179
2.32373
2.30569
2.28768
2.2697
2.25178
2.23392
2.21613
2.19842
2.18079
2.16325
2.14579
2.12841
2.1111
2.09383
2.0766
2.05938
2.04215
2.02489
2.00759
1.99025
1.97287
1.95546
1.93806
1.92069
1.90341
1.88628
1.86934
1.85267
1.83631
1.82031
1.80469
1.78947
1.77463
1.76015
1.74599
1.73209
1.7184
1.70484
1.69134
1.67784
1.66429
1.65063
1.63682
1.62284
1.60866
1.59428
1.57969
1.56487
1.54982
1.53454
1.519
1.50318
1.48707
1.47063
1.45385
1.43671
1.41921
1.40137
1.38321
1.36479
1.34615
1.32735
1.30845
1.28951
1.27058
1.25171
1.23294
1.21431
1.19585
1.17761
1.1596
1.14184
1.12436
1.10714
1.0903
1.0733
1.05874
1.03378
2.72046
2.7024
2.68434
2.66627
2.6482
2.63013
2.61206
2.594
2.57593
2.55787
2.53981
2.52175
2.50369
2.48564
2.46758
2.44951
2.43144
2.41337
2.39529
2.37721
2.35913
2.34106
2.32299
2.30495
2.28693
2.26895
2.25101
2.23312
2.2153
2.19755
2.17988
2.16228
2.14476
2.12731
2.10993
2.09259
2.0753
2.05802
2.04075
2.02348
2.00618
1.98886
1.97152
1.95417
1.93683
1.91954
1.90234
1.88526
1.86837
1.85171
1.83533
1.81926
1.80352
1.78814
1.77311
1.7584
1.74398
1.72981
1.71584
1.70199
1.68823
1.67448
1.66069
1.64683
1.63285
1.61872
1.60442
1.58994
1.57527
1.56038
1.54528
1.52995
1.51437
1.49853
1.48241
1.46597
1.44921
1.43212
1.41469
1.39695
1.37892
1.36064
1.34216
1.32353
1.30481
1.28605
1.2673
1.2486
1.22998
1.21148
1.19314
1.17498
1.15701
1.13926
1.12173
1.10442
1.08745
1.07027
1.05554
1.03019
2.72037
2.70229
2.68421
2.66612
2.64802
2.62993
2.61183
2.59373
2.57563
2.55753
2.53944
2.52134
2.50325
2.48515
2.46706
2.44896
2.43086
2.41276
2.39466
2.37656
2.35847
2.34038
2.32231
2.30426
2.28623
2.26823
2.25027
2.23237
2.21452
2.19673
2.17901
2.16137
2.14379
2.12628
2.10884
2.09144
2.07409
2.05677
2.03947
2.02217
2.00487
1.98756
1.97025
1.95294
1.93566
1.91843
1.90129
1.88427
1.86741
1.85076
1.83435
1.81822
1.8024
1.78688
1.77167
1.75676
1.74212
1.72771
1.71348
1.69939
1.68537
1.67139
1.6574
1.64335
1.6292
1.61493
1.60051
1.58593
1.57116
1.55621
1.54105
1.52567
1.51006
1.49419
1.47806
1.46163
1.44489
1.42785
1.41049
1.39285
1.37494
1.3568
1.33847
1.32001
1.30147
1.28288
1.2643
1.24576
1.22731
1.20897
1.19076
1.17271
1.15485
1.13717
1.1197
1.10242
1.08544
1.06823
1.05346
1.02798
2.72028
2.70219
2.68409
2.66598
2.64786
2.62974
2.61162
2.59349
2.57536
2.55723
2.5391
2.52097
2.50284
2.48472
2.46659
2.44846
2.43034
2.41221
2.39409
2.37597
2.35786
2.33976
2.32167
2.30361
2.28556
2.26755
2.24958
2.23165
2.21377
2.19595
2.1782
2.16051
2.14288
2.12532
2.10782
2.09037
2.07297
2.05561
2.03827
2.02095
2.00364
1.98634
1.96905
1.95178
1.93454
1.91736
1.90027
1.88328
1.86645
1.84981
1.83338
1.8172
1.80129
1.78566
1.77031
1.75522
1.74038
1.72575
1.7113
1.69699
1.68276
1.66857
1.65438
1.64015
1.62584
1.61143
1.5969
1.58222
1.56737
1.55235
1.53714
1.52172
1.50607
1.49019
1.47404
1.45762
1.44092
1.42393
1.40665
1.3891
1.3713
1.3533
1.33512
1.31682
1.29844
1.28002
1.26161
1.24323
1.22493
1.20674
1.18867
1.17075
1.153
1.13542
1.11803
1.10082
1.0839
1.06672