/*--------------------------------*- C++ -*----------------------------------*\
  =========                 |
  \\      /  F ield         | OpenFOAM: The Open Source CFD Toolbox
   \\    /   O peration     | Website:  https://openfoam.org
    \\  /    A nd           | Version:  10
     \\/     M anipulation  |
\*---------------------------------------------------------------------------*/
FoamFile
{
    format      ascii;
    class       volScalarField;
    location    "1800";
    object      k;
}
// * * * * * * * * * * * * * * * * * * * * * * * * * * * * * * * * * * * * * //

dimensions      [0 2 -2 0 0 0 0];

internalField   nonuniform List<scalar> 
6820
(
0.19714
0.192517
0.18828
0.184033
0.179769
0.175611
0.171677
0.168043
0.164748
0.161801
0.159196
0.156915
0.154935
0.15323
0.151775
0.150547
0.149521
0.148678
0.147997
0.147462
0.147056
0.146766
0.146579
0.146483
0.146469
0.14653
0.146649
0.146866
0.146916
0.148202
0.146006
0.147436
0.148588
0.20725
0.212379
0.21006
0.20542
0.200998
0.197556
0.195151
0.193629
0.192802
0.192506
0.192613
0.193026
0.19367
0.194493
0.195452
0.196516
0.197662
0.198871
0.200129
0.201425
0.20275
0.204101
0.205474
0.20687
0.208295
0.209761
0.211282
0.212935
0.214645
0.216909
0.21936
0.226078
0.210983
0.200993
0.203846
0.20455
0.203317
0.201176
0.198803
0.196518
0.194453
0.192652
0.191119
0.189842
0.188803
0.187978
0.187346
0.186886
0.186578
0.186404
0.186349
0.186398
0.18654
0.186764
0.187061
0.187423
0.187847
0.188328
0.188867
0.189466
0.190152
0.190897
0.191831
0.193138
0.194774
0.192507
0.199593
0.199508
0.199518
0.199121
0.198259
0.197061
0.195675
0.194212
0.192747
0.191324
0.189973
0.188708
0.187538
0.186466
0.185491
0.18461
0.183821
0.183118
0.182497
0.181952
0.181478
0.181072
0.18073
0.180447
0.180223
0.180057
0.17995
0.179913
0.179947
0.180087
0.180436
0.180997
0.181082
0.199411
0.198475
0.197748
0.197076
0.196333
0.19547
0.194494
0.19343
0.192314
0.191172
0.190029
0.188901
0.187801
0.186738
0.185717
0.184744
0.183819
0.182944
0.182118
0.181342
0.180614
0.179934
0.1793
0.178711
0.178166
0.177666
0.177213
0.17681
0.176462
0.176182
0.176005
0.175949
0.175887
0.199395
0.198255
0.197227
0.19629
0.195403
0.194525
0.193631
0.19271
0.191764
0.190799
0.189823
0.188845
0.187873
0.186914
0.185971
0.185051
0.184155
0.183287
0.182447
0.181638
0.180859
0.180111
0.179395
0.17871
0.178056
0.177435
0.176847
0.176294
0.175781
0.175312
0.174899
0.174549
0.174245
0.199395
0.198216
0.197096
0.196039
0.195039
0.194082
0.193155
0.192244
0.191342
0.190445
0.189551
0.188663
0.18778
0.186907
0.186044
0.185195
0.184362
0.183545
0.182748
0.181969
0.181212
0.180475
0.179761
0.179068
0.178398
0.177752
0.17713
0.176533
0.175964
0.175426
0.174924
0.174458
0.174031
0.199395
0.19821
0.197068
0.19597
0.194919
0.193911
0.192941
0.192004
0.191094
0.190205
0.189335
0.18848
0.187641
0.186815
0.186003
0.185205
0.184421
0.183653
0.1829
0.182162
0.181441
0.180737
0.18005
0.17938
0.178728
0.178094
0.177478
0.176883
0.176309
0.175757
0.175231
0.174731
0.174259
0.199395
0.198209
0.197062
0.195954
0.194885
0.193855
0.192861
0.191902
0.190974
0.190075
0.189203
0.188354
0.187526
0.186718
0.185929
0.185157
0.184402
0.183664
0.182942
0.182235
0.181544
0.180869
0.18021
0.179566
0.178938
0.178326
0.177729
0.17715
0.176588
0.176045
0.175522
0.17502
0.174538
0.199395
0.198209
0.197061
0.195951
0.194877
0.193838
0.192835
0.191864
0.190925
0.190017
0.189137
0.188283
0.187455
0.18665
0.185867
0.185104
0.184361
0.183637
0.182931
0.182242
0.18157
0.180915
0.180275
0.17965
0.179041
0.178448
0.17787
0.177307
0.176761
0.176231
0.175719
0.175223
0.174746
0.199395
0.198209
0.197061
0.19595
0.194874
0.193834
0.192827
0.191852
0.190908
0.189994
0.189109
0.188251
0.187419
0.186611
0.185828
0.185067
0.184327
0.183608
0.182908
0.182226
0.181563
0.180917
0.180288
0.179676
0.179079
0.178497
0.177932
0.177381
0.176847
0.176328
0.175825
0.175338
0.174867
0.199395
0.198209
0.19706
0.195949
0.194873
0.193832
0.192824
0.191848
0.190902
0.189986
0.189098
0.188237
0.187402
0.186593
0.185808
0.185045
0.184305
0.183586
0.182888
0.182209
0.181549
0.180907
0.180283
0.179675
0.179085
0.17851
0.177951
0.177408
0.17688
0.176368
0.175871
0.175389
0.174923
0.199395
0.198209
0.19706
0.195949
0.194873
0.193831
0.192823
0.191846
0.1909
0.189982
0.189093
0.188231
0.187396
0.186585
0.185798
0.185035
0.184294
0.183575
0.182876
0.182197
0.181538
0.180897
0.180274
0.179669
0.17908
0.178508
0.177952
0.177412
0.176888
0.176379
0.175885
0.175406
0.174941
0.199395
0.198209
0.19706
0.195949
0.194873
0.193831
0.192822
0.191845
0.190898
0.189981
0.189091
0.188229
0.187393
0.186581
0.185794
0.18503
0.184288
0.183568
0.182869
0.18219
0.181531
0.18089
0.180267
0.179662
0.179075
0.178503
0.177949
0.17741
0.176886
0.176378
0.175885
0.175407
0.174942
0.199395
0.198209
0.19706
0.195948
0.194872
0.19383
0.192822
0.191844
0.190897
0.18998
0.18909
0.188227
0.187391
0.186579
0.185792
0.185027
0.184285
0.183565
0.182866
0.182187
0.181527
0.180886
0.180263
0.179658
0.179071
0.1785
0.177945
0.177406
0.176883
0.176375
0.175882
0.175403
0.174938
0.199395
0.198208
0.19706
0.195948
0.194872
0.19383
0.192821
0.191844
0.190897
0.189979
0.189089
0.188226
0.18739
0.186578
0.18579
0.185026
0.184284
0.183563
0.182864
0.182184
0.181525
0.180884
0.180261
0.179656
0.179068
0.178497
0.177942
0.177403
0.17688
0.176371
0.175877
0.175398
0.174932
0.199395
0.198208
0.19706
0.195948
0.194872
0.19383
0.192821
0.191843
0.190896
0.189978
0.189088
0.188226
0.187389
0.186577
0.185789
0.185025
0.184282
0.183562
0.182862
0.182183
0.181523
0.180882
0.180259
0.179654
0.179066
0.178495
0.17794
0.177401
0.176877
0.176368
0.175874
0.175394
0.174927
0.199395
0.198208
0.19706
0.195948
0.194872
0.19383
0.19282
0.191843
0.190896
0.189978
0.189088
0.188225
0.187388
0.186576
0.185788
0.185024
0.184281
0.183561
0.182861
0.182182
0.181522
0.180881
0.180258
0.179653
0.179065
0.178494
0.177939
0.177399
0.176875
0.176366
0.175871
0.17539
0.174922
0.199395
0.198208
0.19706
0.195948
0.194871
0.193829
0.19282
0.191842
0.190895
0.189977
0.189087
0.188224
0.187387
0.186575
0.185787
0.185023
0.184281
0.18356
0.18286
0.182181
0.181521
0.18088
0.180257
0.179652
0.179064
0.178493
0.177938
0.177398
0.176873
0.176364
0.175868
0.175386
0.174918
0.199395
0.198208
0.197059
0.195948
0.194871
0.193829
0.19282
0.191842
0.190895
0.189977
0.189087
0.188224
0.187387
0.186575
0.185787
0.185022
0.18428
0.183559
0.18286
0.18218
0.18152
0.180879
0.180256
0.179651
0.179063
0.178492
0.177936
0.177396
0.176872
0.176362
0.175866
0.175383
0.174914
0.199395
0.198208
0.197059
0.195947
0.194871
0.193829
0.19282
0.191842
0.190895
0.189976
0.189086
0.188223
0.187386
0.186574
0.185786
0.185021
0.184279
0.183559
0.182859
0.18218
0.18152
0.180878
0.180256
0.17965
0.179062
0.178491
0.177935
0.177395
0.17687
0.176359
0.175863
0.17538
0.174911
0.199395
0.198208
0.197059
0.195947
0.194871
0.193829
0.192819
0.191842
0.190894
0.189976
0.189086
0.188223
0.187386
0.186574
0.185786
0.185021
0.184279
0.183558
0.182858
0.182179
0.181519
0.180878
0.180255
0.17965
0.179061
0.17849
0.177934
0.177394
0.176868
0.176357
0.175861
0.175378
0.174908
0.199395
0.198208
0.197059
0.195947
0.194871
0.193829
0.192819
0.191842
0.190894
0.189976
0.189086
0.188222
0.187385
0.186573
0.185785
0.185021
0.184278
0.183558
0.182858
0.182178
0.181518
0.180877
0.180254
0.179649
0.17906
0.178489
0.177933
0.177392
0.176867
0.176355
0.175858
0.175375
0.174904
0.199395
0.198208
0.197059
0.195947
0.194871
0.193829
0.192819
0.191841
0.190894
0.189976
0.189085
0.188222
0.187385
0.186573
0.185785
0.18502
0.184278
0.183557
0.182857
0.182178
0.181518
0.180877
0.180254
0.179648
0.17906
0.178488
0.177931
0.177391
0.176865
0.176354
0.175856
0.175372
0.174901
0.199395
0.198208
0.197059
0.195947
0.194871
0.193829
0.192819
0.191841
0.190894
0.189975
0.189085
0.188222
0.187385
0.186573
0.185785
0.18502
0.184278
0.183557
0.182857
0.182178
0.181517
0.180876
0.180253
0.179647
0.179059
0.178487
0.17793
0.177389
0.176863
0.176352
0.175854
0.17537
0.174899
0.199395
0.198208
0.197059
0.195947
0.194871
0.193828
0.192819
0.191841
0.190894
0.189975
0.189085
0.188222
0.187385
0.186572
0.185784
0.18502
0.184277
0.183557
0.182857
0.182177
0.181517
0.180876
0.180252
0.179647
0.179058
0.178486
0.177929
0.177388
0.176862
0.17635
0.175852
0.175368
0.174896
0.199395
0.198208
0.197059
0.195947
0.194871
0.193828
0.192819
0.191841
0.190894
0.189975
0.189085
0.188222
0.187384
0.186572
0.185784
0.185019
0.184277
0.183556
0.182857
0.182177
0.181517
0.180875
0.180252
0.179646
0.179057
0.178485
0.177928
0.177387
0.17686
0.176348
0.17585
0.175365
0.174894
0.199395
0.198208
0.197059
0.195947
0.194871
0.193828
0.192819
0.191841
0.190894
0.189975
0.189085
0.188222
0.187384
0.186572
0.185784
0.185019
0.184277
0.183556
0.182856
0.182177
0.181516
0.180875
0.180251
0.179646
0.179057
0.178484
0.177927
0.177386
0.176859
0.176347
0.175848
0.175363
0.174891
0.199395
0.198208
0.197059
0.195947
0.194871
0.193828
0.192819
0.191841
0.190894
0.189975
0.189085
0.188222
0.187384
0.186572
0.185784
0.185019
0.184277
0.183556
0.182856
0.182177
0.181516
0.180875
0.180251
0.179645
0.179056
0.178483
0.177927
0.177385
0.176858
0.176346
0.175847
0.175362
0.174889
0.199395
0.198208
0.197059
0.195947
0.194871
0.193828
0.192819
0.191841
0.190894
0.189975
0.189085
0.188222
0.187384
0.186572
0.185784
0.185019
0.184277
0.183556
0.182856
0.182177
0.181516
0.180875
0.180251
0.179645
0.179056
0.178483
0.177926
0.177384
0.176857
0.176345
0.175846
0.17536
0.174888
0.199395
0.198208
0.197059
0.195947
0.194871
0.193828
0.192819
0.191841
0.190894
0.189975
0.189085
0.188222
0.187385
0.186572
0.185784
0.18502
0.184277
0.183556
0.182856
0.182177
0.181516
0.180875
0.180251
0.179645
0.179056
0.178483
0.177926
0.177384
0.176857
0.176344
0.175845
0.175359
0.174886
0.199395
0.198208
0.197059
0.195947
0.194871
0.193828
0.192819
0.191841
0.190894
0.189975
0.189085
0.188222
0.187385
0.186573
0.185785
0.18502
0.184278
0.183557
0.182857
0.182177
0.181517
0.180875
0.180252
0.179646
0.179056
0.178483
0.177926
0.177384
0.176857
0.176344
0.175845
0.175359
0.174886
0.199395
0.198208
0.197059
0.195947
0.194871
0.193829
0.192819
0.191841
0.190894
0.189976
0.189086
0.188223
0.187385
0.186573
0.185786
0.185021
0.184279
0.183558
0.182858
0.182178
0.181518
0.180876
0.180253
0.179646
0.179057
0.178484
0.177926
0.177384
0.176856
0.176343
0.175843
0.175357
0.174883
0.199395
0.198208
0.197059
0.195947
0.194871
0.193829
0.19282
0.191843
0.190896
0.189978
0.189089
0.188226
0.18739
0.186579
0.185791
0.185027
0.184285
0.183564
0.182864
0.182184
0.181524
0.180881
0.180257
0.17965
0.179059
0.178485
0.177926
0.177382
0.176853
0.176338
0.175836
0.175347
0.174871
0.199395
0.198208
0.197059
0.195948
0.194872
0.193831
0.192824
0.191848
0.190902
0.189986
0.189098
0.188236
0.1874
0.186589
0.185802
0.185037
0.184294
0.183572
0.18287
0.182188
0.181524
0.180879
0.180251
0.179639
0.179044
0.178465
0.177901
0.177351
0.176816
0.176295
0.175786
0.175291
0.174808
0.199395
0.198209
0.197062
0.195955
0.194886
0.193854
0.192854
0.191885
0.190946
0.190033
0.189147
0.188285
0.187447
0.186632
0.185839
0.185067
0.184316
0.183584
0.182871
0.182177
0.1815
0.180841
0.180199
0.179572
0.178962
0.178366
0.177785
0.177219
0.176666
0.176127
0.175601
0.175088
0.174587
0.199395
0.198223
0.197106
0.196031
0.194987
0.19397
0.192977
0.192007
0.19106
0.190136
0.189233
0.188352
0.187492
0.186653
0.185835
0.185036
0.184256
0.183495
0.182752
0.182027
0.181319
0.180629
0.179954
0.179295
0.178652
0.178024
0.177411
0.176811
0.176226
0.175654
0.175095
0.174548
0.174015
0.19941
0.198319
0.197297
0.196301
0.195311
0.19432
0.193331
0.192348
0.191377
0.190421
0.189483
0.188566
0.187669
0.186794
0.185941
0.185108
0.184296
0.183504
0.182732
0.181978
0.181242
0.180524
0.179822
0.179137
0.178468
0.177815
0.177177
0.176553
0.175943
0.175347
0.174765
0.174196
0.17364
0.199716
0.199139
0.198469
0.197763
0.19707
0.196417
0.19581
0.195248
0.19473
0.194256
0.193823
0.19343
0.193075
0.192755
0.19247
0.192217
0.191995
0.1918
0.191631
0.191487
0.191366
0.191266
0.191185
0.191122
0.191076
0.191046
0.19103
0.191028
0.191038
0.19106
0.191092
0.191135
0.191187
0.205424
0.216593
0.227629
0.238434
0.248975
0.259243
0.269229
0.278926
0.288327
0.297426
0.306219
0.314705
0.322883
0.330755
0.338322
0.34559
0.352562
0.359244
0.365643
0.371766
0.377619
0.383212
0.388552
0.393647
0.398507
0.403139
0.407553
0.411756
0.415757
0.419565
0.423187
0.426631
0.429908
0.672004
0.551611
1.03192
1.90459
2.48615
2.70239
2.72082
2.66167
2.58292
2.50825
2.44428
2.38957
2.33972
2.29039
2.23894
2.18472
2.1287
2.0727
2.01876
1.96859
1.92344
1.88404
1.8507
1.82334
1.8016
1.78481
1.77207
1.76223
1.75407
1.74632
1.73781
1.72762
1.71517
1.70035
1.68354
1.66572
1.6484
1.63353
1.62333
1.62002
1.62535
1.64013
1.66376
1.69412
1.72774
1.76038
1.78784
1.80652
1.81391
1.80864
1.79043
1.75992
1.7184
1.66762
1.60965
1.54667
1.48089
1.41437
1.34892
1.28593
1.22637
1.17064
1.11867
1.06999
1.0239
0.979665
0.936672
0.894582
0.853396
0.813487
0.775593
0.740843
0.710864
0.688061
0.675962
0.678996
0.700808
0.741396
0.795586
0.854805
0.910652
0.957384
0.992359
1.01526
1.02708
1.02939
1.02389
1.01225
0.995984
0.976493
0.955086
0.932984
0.911317
0.891051
0.872918
0.857267
0.844155
0.833025
0.824007
0.81311
0.320604
0.436049
0.432801
0.578992
0.986796
1.42503
1.72397
1.87929
1.94536
1.9665
1.96682
1.95628
1.93743
1.91042
1.87592
1.83587
1.79305
1.75034
1.71012
1.67396
1.64267
1.61646
1.59518
1.57839
1.56549
1.55569
1.54806
1.54151
1.53491
1.52716
1.51733
1.50474
1.48908
1.47048
1.44956
1.42745
1.40573
1.38639
1.37164
1.36372
1.36453
1.37512
1.39529
1.42329
1.45588
1.48885
1.51778
1.53873
1.54878
1.54623
1.53058
1.50234
1.46278
1.41374
1.35738
1.29604
1.23204
1.16761
1.10466
1.04474
0.988903
0.937647
0.890957
0.848376
0.809168
0.772504
0.737655
0.704127
0.671753
0.640716
0.611547
0.585129
0.56278
0.546518
0.539469
0.545873
0.569675
0.611658
0.667499
0.72912
0.788194
0.838797
0.878037
0.905371
0.921633
0.928281
0.926961
0.91929
0.906786
0.89086
0.872838
0.853967
0.835403
0.818143
0.802938
0.79016
0.779857
0.771515
0.765046
0.757771
0.21217
0.244667
0.241907
0.226545
0.269546
0.429885
0.66654
0.897633
1.07651
1.19706
1.27117
1.31259
1.33147
1.33454
1.32661
1.31182
1.29394
1.27615
1.26069
1.2487
1.24043
1.23557
1.23353
1.23364
1.23521
1.23747
1.2396
1.2407
1.23984
1.23616
1.229
1.21795
1.20296
1.18442
1.16312
1.1403
1.11754
1.09676
1.08005
1.06954
1.06713
1.07413
1.09083
1.11608
1.14726
1.18052
1.21147
1.23592
1.25056
1.25325
1.24312
1.22042
1.1863
1.14254
1.09135
1.03512
0.976283
0.917123
0.859663
0.805525
0.755841
0.711193
0.671624
0.636717
0.605732
0.577797
0.552087
0.527974
0.505112
0.483479
0.463361
0.445346
0.430366
0.419912
0.416459
0.423763
0.446006
0.485198
0.538673
0.599532
0.659766
0.71316
0.756311
0.788192
0.809277
0.820784
0.824208
0.821083
0.812883
0.801
0.786755
0.771402
0.756112
0.741907
0.729577
0.719543
0.711889
0.706185
0.70213
0.69843
0.183076
0.189713
0.192184
0.185018
0.179407
0.194003
0.24707
0.336874
0.443138
0.543894
0.625533
0.683725
0.720075
0.739113
0.746553
0.74803
0.748219
0.750317
0.755954
0.76546
0.778309
0.793551
0.810143
0.827112
0.843603
0.858846
0.872105
0.882646
0.88976
0.892827
0.891408
0.885334
0.874775
0.86027
0.842721
0.823358
0.803669
0.785331
0.770129
0.759862
0.756216
0.76055
0.773572
0.794943
0.822996
0.854752
0.886342
0.91369
0.933226
0.942387
0.939836
0.925425
0.900013
0.865212
0.823127
0.776119
0.726596
0.67683
0.628803
0.584089
0.543769
0.508395
0.478012
0.452235
0.430376
0.411598
0.395079
0.380144
0.366345
0.353498
0.341676
0.331194
0.322616
0.31689
0.315701
0.321962
0.339641
0.371906
0.418341
0.474094
0.532068
0.585895
0.631517
0.667191
0.692808
0.709178
0.717529
0.719226
0.715641
0.708104
0.697894
0.686246
0.674322
0.663164
0.653603
0.646134
0.64091
0.637631
0.635791
0.635534
0.175935
0.176826
0.177587
0.175958
0.172334
0.171108
0.177548
0.194941
0.223027
0.257738
0.293102
0.323799
0.346791
0.361539
0.369377
0.372822
0.374753
0.377747
0.383649
0.393384
0.406997
0.423873
0.443013
0.463296
0.483638
0.503064
0.520707
0.535795
0.547652
0.555731
0.559675
0.559379
0.555039
0.547158
0.536525
0.524149
0.511192
0.498888
0.48849
0.48123
0.478292
0.48076
0.489474
0.504775
0.52616
0.55204
0.579775
0.606073
0.627608
0.641632
0.646375
0.64119
0.626474
0.603465
0.573974
0.54012
0.504082
0.467887
0.43325
0.401468
0.373373
0.34934
0.329344
0.313041
0.299873
0.289177
0.280294
0.272658
0.265854
0.259654
0.254009
0.249048
0.245063
0.242571
0.242539
0.246842
0.258582
0.281285
0.316618
0.362487
0.413658
0.464214
0.509588
0.547207
0.576183
0.596725
0.609642
0.616017
0.617033
0.613894
0.607791
0.599895
0.591331
0.583137
0.576178
0.571035
0.567954
0.566805
0.566897
0.56982
0.173928
0.173657
0.173448
0.172793
0.171343
0.169853
0.169852
0.172578
0.178479
0.187086
0.197169
0.207157
0.215648
0.221795
0.225502
0.227259
0.22792
0.228454
0.229748
0.232471
0.237016
0.243483
0.251711
0.261338
0.271869
0.282735
0.293339
0.303091
0.311444
0.317929
0.322201
0.324091
0.323631
0.32106
0.316799
0.311405
0.305511
0.29977
0.294822
0.291274
0.289716
0.29073
0.294893
0.302699
0.314378
0.329645
0.347481
0.366128
0.383347
0.396887
0.404947
0.4065
0.401393
0.39026
0.374317
0.355105
0.334233
0.313175
0.293123
0.274918
0.25905
0.245699
0.234808
0.226151
0.219395
0.214158
0.210054
0.206737
0.203934
0.201469
0.19927
0.197368
0.195895
0.195098
0.195451
0.19794
0.204489
0.217936
0.240855
0.273639
0.313699
0.356599
0.397934
0.434527
0.464675
0.487845
0.504272
0.514623
0.519787
0.520758
0.518574
0.514287
0.508943
0.503536
0.498942
0.495819
0.494518
0.495106
0.496747
0.502408
0.173573
0.173046
0.17252
0.171923
0.17112
0.170169
0.169437
0.169383
0.170297
0.17218
0.174768
0.17763
0.180281
0.182337
0.183637
0.184227
0.184308
0.184175
0.184135
0.18446
0.185342
0.186882
0.18909
0.191896
0.195166
0.198717
0.202339
0.205802
0.208879
0.211363
0.213091
0.213963
0.213959
0.213145
0.211661
0.209706
0.207512
0.20532
0.203362
0.20186
0.201024
0.201068
0.202227
0.204753
0.208882
0.214737
0.222199
0.230785
0.239633
0.247627
0.253642
0.256811
0.256712
0.253415
0.247409
0.239447
0.230373
0.22097
0.21187
0.203513
0.196155
0.189901
0.184747
0.180616
0.177386
0.174907
0.173018
0.171564
0.17041
0.169456
0.168647
0.16798
0.167505
0.167328
0.167649
0.168908
0.172076
0.178893
0.191561
0.211614
0.23875
0.270703
0.304222
0.336242
0.364572
0.388005
0.406139
0.419124
0.427453
0.431818
0.433029
0.431959
0.429515
0.4266
0.424057
0.422583
0.422626
0.424461
0.427158
0.434893
0.173743
0.17315
0.172542
0.171917
0.171252
0.170533
0.169823
0.169251
0.16895
0.168985
0.169328
0.169863
0.170427
0.170864
0.171079
0.171047
0.170809
0.170452
0.170086
0.169815
0.169721
0.169853
0.170225
0.170817
0.171584
0.17246
0.173369
0.174231
0.174966
0.175504
0.175788
0.175785
0.175488
0.174918
0.174118
0.173151
0.172094
0.171023
0.170015
0.169142
0.168472
0.168075
0.168026
0.168414
0.169332
0.170865
0.173045
0.175798
0.17891
0.182029
0.184724
0.186587
0.187326
0.186836
0.185197
0.182635
0.179451
0.175952
0.172402
0.169004
0.165888
0.163126
0.160749
0.158754
0.157119
0.155806
0.15477
0.153956
0.153314
0.152798
0.152379
0.152047
0.151819
0.151733
0.151865
0.152388
0.153716
0.156727
0.162802
0.173406
0.189289
0.209931
0.233671
0.258339
0.281915
0.302909
0.320446
0.334186
0.344189
0.350788
0.354501
0.355962
0.355885
0.355024
0.35413
0.353886
0.354795
0.357314
0.360494
0.369396
0.174005
0.173398
0.172778
0.172149
0.171512
0.170865
0.170211
0.169577
0.169004
0.168529
0.168166
0.167897
0.167674
0.16744
0.16715
0.16678
0.166333
0.165834
0.16532
0.164835
0.164413
0.164079
0.163842
0.163696
0.163623
0.163598
0.163588
0.16356
0.163484
0.163333
0.163086
0.162733
0.162271
0.161709
0.161061
0.16035
0.159599
0.158835
0.158083
0.157367
0.156709
0.156134
0.155666
0.155337
0.155182
0.155239
0.155536
0.156075
0.156813
0.157661
0.158484
0.159135
0.159485
0.159454
0.159023
0.158231
0.157154
0.155889
0.154525
0.15314
0.151792
0.150519
0.149345
0.148282
0.147337
0.146508
0.145792
0.145177
0.144653
0.144205
0.143822
0.143499
0.143241
0.143059
0.142979
0.143058
0.14345
0.144536
0.147029
0.151903
0.16002
0.171671
0.186368
0.203002
0.22021
0.236714
0.251538
0.264065
0.27402
0.281406
0.286439
0.28949
0.291042
0.291656
0.291933
0.292477
0.293782
0.296425
0.299507
0.308488
0.174212
0.173608
0.172995
0.172376
0.171753
0.17113
0.170505
0.16988
0.169265
0.168671
0.168109
0.167579
0.167071
0.16657
0.166055
0.165516
0.164948
0.164357
0.163756
0.163163
0.162595
0.162062
0.161573
0.161127
0.160718
0.160334
0.159964
0.159593
0.159206
0.158792
0.158344
0.157854
0.157323
0.156752
0.156146
0.155511
0.154854
0.154184
0.153507
0.152831
0.152163
0.151511
0.150886
0.150302
0.149773
0.149321
0.148964
0.148716
0.148576
0.148527
0.148535
0.148552
0.148528
0.148422
0.14821
0.147885
0.147455
0.146939
0.146359
0.145736
0.145086
0.144425
0.143762
0.143106
0.142467
0.141851
0.141265
0.140715
0.140202
0.139728
0.139293
0.138896
0.138539
0.138226
0.137961
0.137759
0.137667
0.137828
0.138562
0.140393
0.143945
0.149685
0.157689
0.167581
0.178656
0.190081
0.201075
0.211018
0.219503
0.226328
0.23148
0.235099
0.237446
0.238877
0.239816
0.240732
0.242047
0.244356
0.24688
0.254861
0.174337
0.173739
0.173136
0.172528
0.171918
0.171307
0.170697
0.170086
0.169474
0.168863
0.168257
0.167658
0.167064
0.16647
0.165872
0.165262
0.164639
0.164003
0.163359
0.162715
0.162078
0.161455
0.160851
0.160268
0.159705
0.15916
0.158627
0.158101
0.157575
0.157045
0.156507
0.155956
0.15539
0.15481
0.154215
0.153605
0.15298
0.152342
0.15169
0.151025
0.150349
0.149665
0.148979
0.148297
0.14763
0.146991
0.146394
0.145853
0.145378
0.144973
0.144634
0.144349
0.144102
0.143873
0.143646
0.143407
0.143146
0.142858
0.142539
0.142187
0.141802
0.141383
0.140932
0.140453
0.139951
0.139432
0.138905
0.138378
0.137857
0.137349
0.136859
0.136388
0.135939
0.135511
0.135104
0.134718
0.134361
0.134078
0.133993
0.13435
0.135504
0.13783
0.141569
0.14672
0.153023
0.160041
0.167271
0.17424
0.180567
0.185995
0.190394
0.193751
0.196164
0.197815
0.198961
0.199919
0.200998
0.20272
0.204464
0.210666
0.174397
0.173803
0.173207
0.172608
0.172006
0.171404
0.170802
0.170199
0.169595
0.168988
0.168379
0.167768
0.167156
0.166539
0.165917
0.165287
0.164647
0.163998
0.163341
0.16268
0.162017
0.161358
0.160706
0.160064
0.159433
0.158813
0.158203
0.157603
0.15701
0.156422
0.155837
0.155253
0.154667
0.154077
0.153481
0.152877
0.152262
0.151634
0.15099
0.150329
0.149651
0.148956
0.148247
0.147531
0.146813
0.146106
0.14542
0.144769
0.144164
0.143615
0.143126
0.142698
0.142327
0.142004
0.14172
0.141462
0.141218
0.140975
0.140722
0.140449
0.140148
0.139814
0.139442
0.139033
0.138588
0.138113
0.137612
0.137094
0.136566
0.136035
0.135505
0.13498
0.134463
0.133953
0.133446
0.132939
0.132428
0.131923
0.131464
0.131152
0.131157
0.131705
0.133012
0.135205
0.138264
0.142025
0.146222
0.150554
0.154735
0.158533
0.161792
0.164431
0.166447
0.167909
0.168944
0.169739
0.170488
0.171585
0.172583
0.176753
0.174417
0.173825
0.173232
0.172637
0.17204
0.171443
0.170845
0.170246
0.169646
0.169044
0.168438
0.16783
0.167217
0.166599
0.165975
0.165343
0.164704
0.164056
0.163401
0.162739
0.162073
0.161406
0.16074
0.160077
0.159419
0.158769
0.158127
0.157493
0.156867
0.15625
0.15564
0.155036
0.154436
0.153836
0.153235
0.152629
0.152015
0.151389
0.150748
0.15009
0.149413
0.148717
0.148004
0.147279
0.146548
0.14582
0.145106
0.144416
0.143761
0.143153
0.142597
0.142099
0.141659
0.141273
0.140934
0.140633
0.140359
0.140098
0.139839
0.139569
0.139279
0.13896
0.138608
0.138219
0.137793
0.137333
0.136843
0.136329
0.135796
0.135251
0.134697
0.134139
0.133577
0.133012
0.132439
0.131854
0.131252
0.130629
0.129997
0.129391
0.128885
0.128592
0.12865
0.12918
0.130252
0.13185
0.133877
0.136177
0.138572
0.14089
0.142992
0.144782
0.146211
0.147282
0.148041
0.148581
0.149008
0.149579
0.150012
0.152388
0.174418
0.173826
0.173233
0.172639
0.172044
0.171447
0.17085
0.170253
0.169654
0.169053
0.16845
0.167843
0.167232
0.166617
0.165995
0.165368
0.164733
0.164091
0.163441
0.162786
0.162125
0.161461
0.160795
0.16013
0.159467
0.158807
0.158154
0.157507
0.156868
0.156237
0.155614
0.154998
0.154387
0.15378
0.153172
0.152562
0.151946
0.151319
0.150679
0.150022
0.149348
0.148656
0.147948
0.147226
0.146498
0.145769
0.145049
0.144349
0.143678
0.143046
0.14246
0.141925
0.141443
0.141012
0.140628
0.140284
0.139969
0.139672
0.139383
0.139089
0.138781
0.13845
0.13809
0.137699
0.137273
0.136815
0.136328
0.135813
0.135277
0.134724
0.134157
0.133578
0.13299
0.13239
0.131776
0.131143
0.130486
0.129798
0.129083
0.128349
0.127628
0.126969
0.126445
0.126136
0.126112
0.126413
0.12703
0.12791
0.128967
0.130097
0.131199
0.132189
0.133009
0.13363
0.134054
0.134316
0.134462
0.134638
0.134696
0.135743
0.174412
0.173819
0.173225
0.172629
0.172033
0.171436
0.170838
0.170239
0.169639
0.169037
0.168434
0.167827
0.167217
0.166603
0.165984
0.165359
0.164728
0.164091
0.163447
0.162798
0.162144
0.161486
0.160826
0.160164
0.159503
0.158844
0.158189
0.157539
0.156896
0.156259
0.155629
0.155006
0.154388
0.153774
0.153161
0.152546
0.151926
0.151297
0.150657
0.150003
0.149333
0.148647
0.147946
0.147233
0.146513
0.145792
0.145077
0.144378
0.143704
0.143063
0.142461
0.141904
0.141394
0.14093
0.14051
0.140126
0.139772
0.139437
0.139111
0.138785
0.13845
0.138097
0.13772
0.137316
0.136883
0.136421
0.13593
0.135414
0.134876
0.134318
0.133743
0.133153
0.132549
0.131928
0.13129
0.130628
0.129937
0.129215
0.128457
0.127669
0.12686
0.126052
0.12528
0.124589
0.124024
0.123627
0.123421
0.123404
0.123549
0.123809
0.124128
0.124448
0.124719
0.124907
0.124992
0.124979
0.124881
0.124766
0.124582
0.124745
0.174405
0.17381
0.173214
0.172617
0.172019
0.171419
0.170819
0.170218
0.169616
0.169012
0.168406
0.167798
0.167187
0.166572
0.165953
0.16533
0.164701
0.164067
0.163428
0.162784
0.162135
0.161483
0.160827
0.160171
0.159514
0.158858
0.158205
0.157555
0.15691
0.156271
0.155638
0.15501
0.154388
0.153768
0.15315
0.15253
0.151907
0.151276
0.150636
0.149984
0.149318
0.148639
0.147946
0.147243
0.146533
0.145821
0.145115
0.144422
0.14375
0.143105
0.142495
0.141923
0.141392
0.140903
0.140452
0.140034
0.139644
0.139273
0.138913
0.138555
0.13819
0.137813
0.137416
0.136997
0.136553
0.136083
0.135587
0.135068
0.134527
0.133965
0.133386
0.132789
0.132176
0.131543
0.13089
0.130211
0.129502
0.12876
0.127983
0.12717
0.126327
0.125464
0.124597
0.123747
0.122942
0.122209
0.121574
0.121049
0.120636
0.120323
0.120087
0.119898
0.119722
0.119534
0.119311
0.119043
0.118729
0.118388
0.118036
0.117639
0.174399
0.173802
0.173204
0.172604
0.172004
0.171402
0.1708
0.170196
0.169591
0.168984
0.168376
0.167765
0.167152
0.166536
0.165916
0.165293
0.164665
0.164032
0.163395
0.162754
0.162109
0.16146
0.160809
0.160156
0.159503
0.15885
0.158199
0.15755
0.156905
0.156265
0.155629
0.154998
0.154371
0.153747
0.153124
0.1525
0.151873
0.151241
0.1506
0.14995
0.149288
0.148614
0.147929
0.147235
0.146536
0.145834
0.145137
0.144451
0.143782
0.143137
0.142521
0.141938
0.141391
0.14088
0.140404
0.139957
0.139536
0.139133
0.138741
0.138352
0.13796
0.137559
0.137142
0.136707
0.13625
0.135771
0.13527
0.134746
0.134202
0.133638
0.133055
0.132454
0.131834
0.131195
0.130532
0.129844
0.129125
0.128373
0.127587
0.126765
0.125911
0.12503
0.124131
0.123224
0.122324
0.121447
0.120612
0.119831
0.119114
0.118464
0.117876
0.117339
0.116838
0.116356
0.115878
0.115391
0.114891
0.114369
0.113886
0.113133
0.174393
0.173794
0.173195
0.172593
0.171991
0.171387
0.170782
0.170176
0.169568
0.168958
0.168347
0.167734
0.167119
0.1665
0.165879
0.165254
0.164626
0.163994
0.163357
0.162718
0.162074
0.161428
0.16078
0.160129
0.159479
0.158828
0.158178
0.15753
0.156885
0.156243
0.155606
0.154971
0.15434
0.153712
0.153085
0.152457
0.151826
0.151191
0.15055
0.149901
0.149242
0.148573
0.147895
0.14721
0.146519
0.145827
0.145138
0.144459
0.143794
0.143149
0.142529
0.141938
0.141377
0.140848
0.140349
0.139877
0.139428
0.138997
0.138576
0.138161
0.137744
0.13732
0.136884
0.136433
0.135964
0.135475
0.134967
0.134438
0.13389
0.133323
0.132737
0.132133
0.131509
0.130864
0.130196
0.129502
0.128778
0.128022
0.127233
0.126409
0.125554
0.124671
0.123765
0.122842
0.121911
0.120981
0.120064
0.119169
0.118305
0.117478
0.116692
0.115945
0.115232
0.114546
0.113879
0.113221
0.112571
0.111906
0.111317
0.110331
0.174388
0.173788
0.173187
0.172584
0.171979
0.171374
0.170766
0.170157
0.169547
0.168935
0.168321
0.167706
0.167088
0.166467
0.165844
0.165218
0.164589
0.163956
0.16332
0.162681
0.162038
0.161393
0.160746
0.160097
0.159448
0.158798
0.158149
0.157501
0.156855
0.156212
0.155572
0.154935
0.1543
0.153668
0.153036
0.152404
0.151771
0.151133
0.150491
0.149842
0.149185
0.14852
0.147848
0.147169
0.146486
0.145802
0.145121
0.144448
0.143786
0.143142
0.142519
0.14192
0.141348
0.140804
0.140286
0.139792
0.139319
0.138862
0.138416
0.137976
0.137536
0.137092
0.136638
0.136171
0.13569
0.135191
0.134675
0.134141
0.133588
0.133018
0.132429
0.131821
0.131194
0.130545
0.129874
0.129176
0.128449
0.127692
0.126902
0.126081
0.125228
0.124349
0.123445
0.122523
0.121587
0.120644
0.119699
0.118761
0.117835
0.116927
0.116042
0.115181
0.114346
0.113534
0.112742
0.111966
0.111205
0.110434
0.109762
0.108619
0.174383
0.173782
0.173179
0.172575
0.171969
0.171362
0.170752
0.170141
0.169529
0.168915
0.168298
0.16768
0.16706
0.166438
0.165813
0.165185
0.164554
0.163921
0.163284
0.162645
0.162003
0.161359
0.160712
0.160064
0.159415
0.158766
0.158117
0.157468
0.156822
0.156177
0.155534
0.154894
0.154256
0.15362
0.152984
0.152348
0.151711
0.151071
0.150427
0.149778
0.149123
0.148461
0.147793
0.14712
0.146443
0.145766
0.145091
0.144423
0.143764
0.143121
0.142495
0.14189
0.141309
0.140751
0.140216
0.139703
0.139209
0.13873
0.138262
0.137799
0.137338
0.136874
0.136403
0.135922
0.135428
0.13492
0.134396
0.133855
0.133297
0.132722
0.132129
0.131518
0.130888
0.130236
0.129561
0.128861
0.128132
0.127375
0.126586
0.125768
0.12492
0.124046
0.123149
0.122233
0.121302
0.12036
0.119412
0.118462
0.117515
0.116576
0.115647
0.114733
0.113835
0.112954