/*--------------------------------*- C++ -*----------------------------------*\
  =========                 |
  \\      /  F ield         | OpenFOAM: The Open Source CFD Toolbox
   \\    /   O peration     | Website:  https://openfoam.org
    \\  /    A nd           | Version:  10
     \\/     M anipulation  |
\*---------------------------------------------------------------------------*/
FoamFile
{
    format      ascii;
    class       volScalarField;
    location    "1800";
    object      nut;
}
// * * * * * * * * * * * * * * * * * * * * * * * * * * * * * * * * * * * * * //

dimensions      [0 2 -1 0 0 0 0];

internalField   nonuniform List<scalar> 
6820
(
0.000149811
0.000146298
0.000143079
0.000139851
0.000136611
0.000133451
0.000130462
0.0001277
0.000125196
0.000122957
0.000120978
0.000119245
0.00011774
0.000116445
0.00011534
0.000114407
0.000113628
0.000112988
0.000112471
0.000112065
0.000111758
0.000111538
0.000111397
0.000111326
0.000111318
0.000111367
0.000111459
0.000111631
0.000111644
0.000112666
0.000112547
0.000108666
0.00010923
0.000736678
0.000548081
0.00046456
0.000414409
0.000380704
0.000356878
0.000339451
0.000326302
0.000316086
0.000307939
0.000301288
0.000295748
0.000291051
0.000287009
0.000283487
0.000280383
0.000277624
0.00027515
0.000272918
0.00027089
0.00026904
0.000267342
0.000265779
0.000264335
0.000262995
0.000261751
0.000260586
0.000259515
0.000258517
0.000257439
0.000257466
0.000259537
0.000232318
0.000977664
0.000873819
0.000783685
0.000713286
0.000659025
0.000616594
0.000582672
0.00055493
0.000531773
0.000512101
0.000495142
0.000480341
0.000467287
0.00045567
0.000445251
0.000435845
0.000427302
0.000419503
0.000412349
0.00040576
0.000399666
0.000394009
0.000388738
0.000383809
0.000379181
0.000374816
0.000370674
0.000366714
0.000362923
0.000359162
0.000355173
0.000354071
0.000342417
0.0010135
0.000988678
0.000949902
0.000906233
0.00086374
0.000825004
0.000790617
0.000760322
0.000733599
0.000709907
0.000688766
0.000669774
0.0006526
0.000636975
0.000622681
0.000609538
0.000597397
0.000586137
0.000575652
0.000565857
0.000556676
0.000548045
0.000539907
0.000532211
0.000524911
0.000517965
0.00051133
0.000504963
0.000498833
0.000492929
0.00048675
0.000481725
0.000477405
0.00101667
0.00101251
0.00100235
0.000986314
0.000966154
0.00094388
0.000921062
0.000898691
0.000877302
0.000857131
0.000838243
0.00082061
0.000804162
0.000788809
0.000774456
0.000761013
0.000748395
0.000736525
0.000725333
0.000714754
0.000704734
0.000695221
0.000686169
0.000677534
0.000669277
0.00066136
0.000653746
0.000646396
0.000639273
0.000632365
0.000625466
0.000618632
0.000613225
0.00101674
0.0010159
0.00101373
0.00100941
0.00100264
0.000993621
0.000982835
0.000970849
0.000958174
0.00094521
0.000932245
0.000919476
0.000907026
0.000894971
0.000883349
0.000872177
0.000861455
0.000851174
0.000841316
0.000831864
0.000822795
0.000814085
0.000805713
0.000797653
0.000789881
0.000782374
0.000775105
0.000768048
0.000761174
0.000754464
0.000747856
0.000741252
0.000735081
0.00101671
0.00101621
0.00101554
0.00101439
0.00101245
0.00100952
0.00100552
0.00100052
0.000994655
0.000988092
0.00098101
0.000973571
0.000965909
0.000958134
0.000950332
0.000942569
0.000934892
0.000927337
0.000919927
0.000912679
0.000905601
0.000898697
0.000891968
0.00088541
0.000879018
0.000872783
0.000866695
0.000860742
0.000854911
0.000849189
0.000843559
0.000837982
0.00083254
0.0010167
0.00101622
0.00101574
0.0010152
0.00101449
0.0010135
0.00101213
0.00101031
0.001008
0.00100522
0.00100199
0.00099837
0.000994421
0.000990202
0.000985771
0.000981181
0.000976477
0.000971699
0.00096688
0.000962046
0.000957219
0.000952416
0.00094765
0.00094293
0.000938264
0.000933653
0.000929102
0.000924608
0.000920172
0.000915791
0.000911464
0.000907184
0.000902976
0.0010167
0.00101621
0.00101574
0.00101528
0.00101481
0.00101429
0.00101367
0.00101292
0.00101199
0.00101086
0.0010095
0.00100792
0.00100611
0.00100409
0.00100188
0.000999498
0.00099697
0.000994315
0.000991555
0.00098871
0.000985796
0.00098283
0.000979825
0.000976793
0.000973743
0.000970684
0.000967622
0.000964563
0.000961512
0.000958473
0.000955451
0.00095245
0.000949485
0.0010167
0.00101621
0.00101574
0.00101528
0.00101484
0.0010144
0.00101395
0.00101348
0.00101296
0.00101239
0.00101174
0.001011
0.00101016
0.00100921
0.00100815
0.00100699
0.00100573
0.00100437
0.00100292
0.00100139
0.000999792
0.000998126
0.000996404
0.000994633
0.000992821
0.000990973
0.000989098
0.000987199
0.000985284
0.000983357
0.000981425
0.000979493
0.00097757
0.0010167
0.00101621
0.00101574
0.00101528
0.00101484
0.0010144
0.00101398
0.00101356
0.00101315
0.00101272
0.00101229
0.00101183
0.00101134
0.00101081
0.00101024
0.00100963
0.00100896
0.00100825
0.00100749
0.00100668
0.00100583
0.00100493
0.00100398
0.001003
0.00100198
0.00100093
0.000999857
0.000998755
0.000997632
0.000996493
0.000995341
0.000994181
0.000993019
0.0010167
0.00101621
0.00101574
0.00101528
0.00101483
0.0010144
0.00101398
0.00101357
0.00101317
0.00101278
0.00101239
0.001012
0.00101162
0.00101122
0.00101082
0.00101041
0.00100999
0.00100954
0.00100908
0.0010086
0.0010081
0.00100758
0.00100704
0.00100648
0.00100589
0.00100529
0.00100467
0.00100404
0.00100339
0.00100273
0.00100207
0.00100139
0.00100072
0.0010167
0.00101621
0.00101574
0.00101528
0.00101483
0.0010144
0.00101398
0.00101357
0.00101317
0.00101278
0.0010124
0.00101203
0.00101167
0.00101131
0.00101096
0.00101061
0.00101026
0.00100991
0.00100956
0.00100921
0.00100885
0.00100849
0.00100812
0.00100774
0.00100737
0.00100698
0.00100659
0.00100619
0.00100579
0.00100539
0.00100498
0.00100457
0.00100417
0.0010167
0.00101621
0.00101574
0.00101528
0.00101483
0.0010144
0.00101398
0.00101357
0.00101317
0.00101278
0.0010124
0.00101203
0.00101167
0.00101132
0.00101098
0.00101064
0.00101032
0.00100999
0.00100968
0.00100936
0.00100906
0.00100875
0.00100845
0.00100815
0.00100785
0.00100755
0.00100726
0.00100697
0.00100668
0.00100639
0.0010061
0.00100582
0.00100554
0.0010167
0.00101621
0.00101574
0.00101528
0.00101483
0.0010144
0.00101397
0.00101356
0.00101316
0.00101278
0.0010124
0.00101203
0.00101167
0.00101132
0.00101098
0.00101065
0.00101032
0.00101001
0.0010097
0.0010094
0.0010091
0.00100881
0.00100853
0.00100826
0.00100799
0.00100772
0.00100746
0.00100721
0.00100696
0.00100672
0.00100648
0.00100625
0.00100603
0.0010167
0.00101621
0.00101574
0.00101528
0.00101483
0.0010144
0.00101397
0.00101356
0.00101316
0.00101277
0.00101239
0.00101203
0.00101167
0.00101132
0.00101098
0.00101064
0.00101032
0.00101001
0.0010097
0.0010094
0.00100911
0.00100883
0.00100855
0.00100828
0.00100802
0.00100776
0.00100751
0.00100727
0.00100704
0.00100681
0.00100659
0.00100638
0.00100617
0.0010167
0.00101621
0.00101574
0.00101528
0.00101483
0.0010144
0.00101397
0.00101356
0.00101316
0.00101277
0.00101239
0.00101202
0.00101166
0.00101131
0.00101097
0.00101064
0.00101032
0.00101
0.0010097
0.0010094
0.00100911
0.00100883
0.00100855
0.00100828
0.00100802
0.00100777
0.00100752
0.00100729
0.00100705
0.00100683
0.00100662
0.00100641
0.0010062
0.0010167
0.00101621
0.00101574
0.00101528
0.00101483
0.00101439
0.00101397
0.00101356
0.00101316
0.00101277
0.00101239
0.00101202
0.00101166
0.00101131
0.00101097
0.00101064
0.00101032
0.00101
0.0010097
0.0010094
0.00100911
0.00100882
0.00100855
0.00100828
0.00100802
0.00100777
0.00100752
0.00100729
0.00100705
0.00100683
0.00100661
0.00100641
0.0010062
0.0010167
0.00101621
0.00101574
0.00101528
0.00101483
0.00101439
0.00101397
0.00101356
0.00101316
0.00101277
0.00101239
0.00101202
0.00101166
0.00101131
0.00101097
0.00101064
0.00101032
0.00101
0.00100969
0.0010094
0.00100911
0.00100882
0.00100855
0.00100828
0.00100802
0.00100777
0.00100752
0.00100728
0.00100705
0.00100683
0.00100661
0.0010064
0.00100619
0.0010167
0.00101621
0.00101574
0.00101528
0.00101483
0.00101439
0.00101397
0.00101356
0.00101316
0.00101277
0.00101239
0.00101202
0.00101166
0.00101131
0.00101097
0.00101064
0.00101032
0.00101
0.00100969
0.0010094
0.0010091
0.00100882
0.00100855
0.00100828
0.00100802
0.00100777
0.00100752
0.00100728
0.00100705
0.00100682
0.0010066
0.00100639
0.00100619
0.0010167
0.00101621
0.00101574
0.00101528
0.00101483
0.00101439
0.00101397
0.00101356
0.00101316
0.00101277
0.00101239
0.00101202
0.00101166
0.00101131
0.00101097
0.00101064
0.00101031
0.00101
0.00100969
0.00100939
0.0010091
0.00100882
0.00100855
0.00100828
0.00100802
0.00100776
0.00100752
0.00100728
0.00100704
0.00100682
0.0010066
0.00100638
0.00100618
0.0010167
0.00101621
0.00101574
0.00101528
0.00101483
0.00101439
0.00101397
0.00101356
0.00101316
0.00101277
0.00101239
0.00101202
0.00101166
0.00101131
0.00101097
0.00101064
0.00101031
0.00101
0.00100969
0.00100939
0.0010091
0.00100882
0.00100854
0.00100828
0.00100802
0.00100776
0.00100751
0.00100727
0.00100704
0.00100681
0.00100659
0.00100638
0.00100617
0.0010167
0.00101621
0.00101574
0.00101528
0.00101483
0.00101439
0.00101397
0.00101356
0.00101316
0.00101277
0.00101239
0.00101202
0.00101166
0.00101131
0.00101097
0.00101064
0.00101031
0.00101
0.00100969
0.00100939
0.0010091
0.00100882
0.00100854
0.00100828
0.00100801
0.00100776
0.00100751
0.00100727
0.00100704
0.00100681
0.00100659
0.00100637
0.00100616
0.0010167
0.00101621
0.00101574
0.00101528
0.00101483
0.00101439
0.00101397
0.00101356
0.00101316
0.00101277
0.00101239
0.00101202
0.00101166
0.00101131
0.00101097
0.00101064
0.00101031
0.00101
0.00100969
0.00100939
0.0010091
0.00100882
0.00100854
0.00100827
0.00100801
0.00100776
0.00100751
0.00100727
0.00100703
0.0010068
0.00100658
0.00100636
0.00100615
0.0010167
0.00101621
0.00101574
0.00101528
0.00101483
0.00101439
0.00101397
0.00101356
0.00101316
0.00101277
0.00101239
0.00101202
0.00101166
0.00101131
0.00101097
0.00101063
0.00101031
0.00101
0.00100969
0.00100939
0.0010091
0.00100882
0.00100854
0.00100827
0.00100801
0.00100776
0.00100751
0.00100727
0.00100703
0.0010068
0.00100658
0.00100636
0.00100615
0.0010167
0.00101621
0.00101574
0.00101528
0.00101483
0.00101439
0.00101397
0.00101356
0.00101316
0.00101277
0.00101239
0.00101202
0.00101166
0.00101131
0.00101097
0.00101063
0.00101031
0.00101
0.00100969
0.00100939
0.0010091
0.00100882
0.00100854
0.00100827
0.00100801
0.00100775
0.0010075
0.00100726
0.00100703
0.0010068
0.00100657
0.00100635
0.00100614
0.0010167
0.00101621
0.00101574
0.00101528
0.00101483
0.00101439
0.00101397
0.00101356
0.00101316
0.00101277
0.00101239
0.00101202
0.00101166
0.00101131
0.00101097
0.00101063
0.00101031
0.00101
0.00100969
0.00100939
0.0010091
0.00100882
0.00100854
0.00100827
0.00100801
0.00100775
0.0010075
0.00100726
0.00100702
0.00100679
0.00100657
0.00100635
0.00100613
0.0010167
0.00101621
0.00101574
0.00101528
0.00101483
0.00101439
0.00101397
0.00101356
0.00101316
0.00101277
0.00101239
0.00101202
0.00101166
0.00101131
0.00101097
0.00101063
0.00101031
0.00101
0.00100969
0.00100939
0.0010091
0.00100881
0.00100854
0.00100827
0.00100801
0.00100775
0.0010075
0.00100726
0.00100702
0.00100679
0.00100656
0.00100634
0.00100613
0.0010167
0.00101621
0.00101574
0.00101528
0.00101483
0.00101439
0.00101397
0.00101356
0.00101316
0.00101277
0.00101239
0.00101202
0.00101166
0.00101131
0.00101097
0.00101063
0.00101031
0.00101
0.00100969
0.00100939
0.0010091
0.00100881
0.00100854
0.00100827
0.001008
0.00100775
0.0010075
0.00100725
0.00100702
0.00100679
0.00100656
0.00100634
0.00100612
0.0010167
0.00101621
0.00101574
0.00101528
0.00101483
0.00101439
0.00101397
0.00101356
0.00101316
0.00101277
0.00101239
0.00101202
0.00101166
0.00101131
0.00101097
0.00101063
0.00101031
0.00101
0.00100969
0.00100939
0.0010091
0.00100881
0.00100854
0.00100827
0.001008
0.00100775
0.0010075
0.00100725
0.00100701
0.00100678
0.00100656
0.00100633
0.00100612
0.0010167
0.00101621
0.00101574
0.00101528
0.00101483
0.00101439
0.00101397
0.00101356
0.00101316
0.00101277
0.00101239
0.00101202
0.00101166
0.00101131
0.00101097
0.00101063
0.00101031
0.00101
0.00100969
0.00100939
0.0010091
0.00100881
0.00100854
0.00100827
0.001008
0.00100774
0.00100749
0.00100725
0.00100701
0.00100678
0.00100655
0.00100632
0.00100611
0.0010167
0.00101621
0.00101574
0.00101528
0.00101483
0.00101439
0.00101397
0.00101356
0.00101316
0.00101277
0.00101239
0.00101202
0.00101166
0.00101131
0.00101097
0.00101064
0.00101031
0.00101
0.00100969
0.00100939
0.00100909
0.00100881
0.00100853
0.00100825
0.00100799
0.00100773
0.00100747
0.00100722
0.00100698
0.00100674
0.0010065
0.00100628
0.00100605
0.0010167
0.00101621
0.00101574
0.00101528
0.00101483
0.00101439
0.00101397
0.00101356
0.00101316
0.00101277
0.00101239
0.00101202
0.00101166
0.0010113
0.00101096
0.00101063
0.0010103
0.00100998
0.00100966
0.00100935
0.00100905
0.00100875
0.00100846
0.00100817
0.00100788
0.0010076
0.00100733
0.00100705
0.00100679
0.00100652
0.00100626
0.001006
0.00100574
0.0010167
0.00101621
0.00101574
0.00101528
0.00101483
0.00101439
0.00101397
0.00101356
0.00101316
0.00101276
0.00101237
0.00101199
0.00101162
0.00101125
0.00101088
0.00101051
0.00101015
0.00100979
0.00100942
0.00100906
0.00100869
0.00100833
0.00100796
0.00100759
0.00100721
0.00100684
0.00100646
0.00100608
0.0010057
0.00100531
0.00100492
0.00100453
0.00100414
0.0010167
0.00101621
0.00101574
0.00101527
0.00101482
0.00101438
0.00101394
0.0010135
0.00101305
0.00101259
0.00101213
0.00101164
0.00101114
0.00101062
0.00101008
0.00100952
0.00100893
0.00100832
0.00100768
0.00100703
0.00100635
0.00100565
0.00100492
0.00100418
0.00100342
0.00100264
0.00100185
0.00100104
0.00100022
0.000999393
0.000998552
0.000997702
0.000996845
0.0010167
0.00101621
0.00101571
0.00101519
0.00101464
0.00101403
0.00101334
0.00101255
0.00101167
0.00101068
0.00100958
0.00100836
0.00100704
0.00100562
0.00100409
0.00100248
0.00100078
0.000999
0.000997153
0.000995245
0.000993282
0.000991272
0.000989222
0.000987139
0.000985029
0.000982897
0.000980749
0.000978591
0.000976427
0.00097426
0.000972096
0.000969937
0.000967787
0.00101669
0.00101596
0.00101486
0.00101328
0.00101117
0.00100854
0.0010054
0.00100178
0.000997746
0.000993328
0.000988585
0.000983567
0.000978324
0.0009729
0.00096734
0.000961679
0.000955953
0.000950191
0.000944417
0.000938656
0.000932924
0.00092724
0.000921616
0.000916064
0.000910593
0.000905211
0.000899923
0.000894735
0.000889651
0.000884673
0.000879802
0.000875041
0.000870391
0.00101524
0.00100708
0.000994953
0.000980593
0.000964724
0.000947805
0.000930219
0.000912311
0.000894375
0.000876636
0.00085926
0.000842358
0.000826005
0.000810245
0.000795101
0.000780579
0.000766674
0.000753374
0.00074066
0.000728511
0.000716904
0.000705816
0.000695221
0.000685096
0.000675417
0.000666162
0.000657308
0.000648834
0.000640721
0.00063295
0.000625503
0.000618364
0.000611516
0.000934351
0.000813408
0.000726854
0.000658911
0.0006033
0.000556998
0.000518111
0.000485162
0.000456966
0.000432602
0.000411363
0.000392702
0.000376189
0.000361484
0.000348316
0.000336463
0.000325747
0.00031602
0.000307158
0.000299058
0.000291631
0.000284804
0.000278511
0.000272698
0.000267316
0.000262323
0.000257683
0.000253363
0.000249334
0.000245571
0.000242052
0.000238755
0.000235662
0.000125479
0.000128845
0.000132087
0.000135185
0.000138141
0.000140961
0.00014365
0.000146214
0.000148658
0.000150986
0.000153202
0.00015531
0.000157315
0.000159222
0.000161033
0.000162754
0.000164388
0.000165938
0.00016741
0.000168806
0.00017013
0.000171386
0.000172576
0.000173705
0.000174774
0.000175788
0.000176748
0.000177657
0.000178519
0.000179335
0.000180108
0.00018084
0.000181534
0.00091961
0.000254981
0.00018717
0.000333296
0.000475877
0.000578208
0.000650606
0.00070306
0.000740819
0.000767508
0.000786607
0.00080113
0.000813002
0.000823127
0.000831933
0.00083982
0.000847309
0.000854999
0.000863442
0.000873061
0.000884123
0.000896763
0.00091103
0.000926911
0.000944328
0.000963116
0.000982994
0.00100355
0.00102426
0.00104452
0.00106376
0.0010815
0.00109749
0.00111181
0.0011249
0.00113767
0.00115144
0.00116794
0.00118917
0.00121721
0.0012538
0.00129993
0.00135527
0.00141796
0.00148469
0.00155122
0.00161313
0.00166654
0.00170865
0.00173788
0.00175387
0.00175726
0.00174949
0.00173248
0.00170848
0.00167986
0.00164895
0.00161789
0.00158847
0.00156201
0.00153926
0.00152028
0.00150449
0.00149082
0.00147792
0.00146446
0.00144943
0.00143234
0.00141334
0.0013933
0.00137383
0.00135736
0.00134753
0.0013501
0.00137401
0.001431
0.0015305
0.0016709
0.00183533
0.00199872
0.00213984
0.00224779
0.00232109
0.00236373
0.0023817
0.00238103
0.00236699
0.00234405
0.00231597
0.0022861
0.00225756
0.00223334
0.00221629
0.00220875
0.00221223
0.00222684
0.00225114
0.00228267
0.00231537
0.00236835
0.000347723
0.000484611
0.000328568
0.000207839
0.000276879
0.000391432
0.000491959
0.000567047
0.00062099
0.000658593
0.000683635
0.000699624
0.000709678
0.000716238
0.000721078
0.000725502
0.000730518
0.000736884
0.000745079
0.000755279
0.000767414
0.000781256
0.000796524
0.000812936
0.000830221
0.000848093
0.000866221
0.000884208
0.000901606
0.000917945
0.000932801
0.000945871
0.000957051
0.000966509
0.000974738
0.000982591
0.00099129
0.00100241
0.00101778
0.00103938
0.00106899
0.00110779
0.00115589
0.00121189
0.00127288
0.00133487
0.00139344
0.00144456
0.00148517
0.0015134
0.00152868
0.00153145
0.00152302
0.00150524
0.00148034
0.00145066
0.0014186
0.00138637
0.00135592
0.00132877
0.00130587
0.00128752
0.00127337
0.00126244
0.00125342
0.00124492
0.00123577
0.00122528
0.00121338
0.00120068
0.00118847
0.00117881
0.00117478
0.00118135
0.00120666
0.0012622
0.00135834
0.00149525
0.00165756
0.00182074
0.00196332
0.00207389
0.00215052
0.00219682
0.00221855
0.00222156
0.00221104
0.00219141
0.00216642
0.00213943
0.00211356
0.00209188
0.00207725
0.00207214
0.00207813
0.00209541
0.00212259
0.00215728
0.00219307
0.00225086
0.000332816
0.000409843
0.000529256
0.000484666
0.000234423
0.000222496
0.000293952
0.000378696
0.000450778
0.000503473
0.000538321
0.000559342
0.000570768
0.000576293
0.000578914
0.000580984
0.000584273
0.000589943
0.000598529
0.000610007
0.000623967
0.000639814
0.000656936
0.000674792
0.000692927
0.000710944
0.000728467
0.000745112
0.000760489
0.00077423
0.000786036
0.000795738
0.000803352
0.000809129
0.000813588
0.000817539
0.000822085
0.000828607
0.00083873
0.000854224
0.000876816
0.000907857
0.000947871
0.000996103
0.00105032
0.001107
0.00116194
0.00121104
0.00125094
0.00127944
0.00129556
0.00129948
0.00129223
0.00127555
0.00125154
0.00122254
0.00119096
0.0011591
0.00112903
0.00110249
0.00108067
0.00106413
0.00105277
0.00104578
0.00104195
0.00103982
0.00103807
0.00103579
0.00103261
0.00102879
0.00102522
0.00102343
0.00102572
0.00103589
0.00106057
0.0011102
0.00119602
0.00132135
0.00147453
0.00163303
0.0017753
0.00188872
0.00197
0.00202172
0.00204899
0.00205731
0.0020517
0.00203648
0.00201537
0.00199172
0.00196864
0.0019492
0.00193632
0.00193256
0.00193968
0.00195815
0.00198681
0.00202353
0.00206158
0.00212383
0.00046115
0.000450166
0.000485056
0.000601108
0.000680996
0.000438103
0.000294743
0.000282937
0.00031399
0.000352838
0.000385635
0.000408143
0.000420811
0.000426212
0.00042764
0.000428159
0.00043012
0.000434983
0.000443345
0.000455116
0.000469756
0.000486503
0.000504558
0.000523199
0.000541815
0.0005599
0.000577021
0.000592788
0.000606847
0.000618899
0.000628738
0.000636291
0.000641663
0.000645166
0.000647334
0.000648921
0.000650894
0.000654409
0.000660791
0.000671486
0.000687973
0.000711571
0.000743109
0.000782497
0.000828376
0.00087807
0.000927949
0.000974097
0.00101302
0.00104214
0.00106009
0.00106662
0.00106246
0.00104909
0.00102849
0.00100293
0.00097481
0.00094647
0.000920067
0.000897416
0.000879847
0.000868079
0.000862142
0.000861397
0.000864676
0.000870536
0.000877562
0.000884639
0.000891132
0.000896959
0.000902576
0.000908937
0.000917547
0.000930886
0.000953613
0.000994123
0.00106349
0.00116847
0.00130306
0.00144902
0.00158582
0.00169944
0.00178451
0.00184186
0.00187541
0.00188999
0.00189023
0.00188027
0.00186373
0.00184389
0.00182381
0.00180649
0.00179487
0.00179161
0.0017987
0.00181697
0.00184569
0.00188317
0.00192247
0.00198852
0.000604702
0.000586072
0.000574733
0.000597394
0.00066254
0.000703785
0.000614454
0.000478446
0.000395912
0.000361361
0.000350658
0.000348658
0.000348192
0.00034662
0.000343785
0.000340727
0.000338798
0.000339135
0.000342421
0.000348832
0.000358131
0.0003698
0.000383177
0.000397579
0.000412367
0.000426984
0.000440948
0.000453845
0.000465319
0.000475093
0.00048299
0.000488974
0.000493174
0.000495897
0.000497624
0.00049899
0.000500746
0.000503734
0.000508852
0.000517047
0.000529296
0.000546568
0.000569672
0.000598992
0.000634125
0.000673609
0.00071495
0.000754988
0.00079051
0.000818837
0.000838221
0.000847989
0.000848476
0.00084085
0.000826878
0.000808697
0.000788602
0.000768846
0.000751465
0.000738122
0.00072997
0.000727569
0.000730842
0.000739117
0.000751262
0.000765897
0.000781653
0.000797403
0.000812411
0.000826391
0.000839486
0.000852211
0.000865422
0.000880514
0.000900239
0.000930322
0.00098002
0.00105798
0.00116425
0.00128723
0.0014097
0.00151728
0.00160233
0.00166331
0.0017023
0.00172297
0.00172928
0.00172497
0.00171342
0.00169773
0.00168085
0.00166567
0.00165504
0.00165168
0.00165778
0.00167461
0.00170198
0.00173882
0.00177808
0.00184683
0.000728172
0.000717245
0.000703956
0.000697536
0.000707935
0.000730469
0.000739282
0.000708909
0.000645271
0.000576026
0.000519238
0.000477843
0.000448835
0.000428652
0.000414123
0.000403442
0.000395617
0.000389992
0.000386008
0.000383182
0.000381204
0.000379995
0.000379651
0.000380301
0.000381989
0.000384623
0.000387997
0.000391832
0.00039583
0.000399719
0.000403297
0.000406462
0.000409243
0.000411796
0.000414388
0.00041737
0.000421124
0.00042603
0.000432434
0.000440644
0.000450953
0.000463679
0.000479185
0.000497825
0.000519784
0.000544829
0.000572083
0.000599968
0.000626423
0.000649337
0.000667012
0.000678502
0.000683728
0.000683426
0.000678962
0.000672099
0.000664742
0.000658708
0.000655523
0.000656282
0.000661571
0.000671453
0.000685522
0.000702993
0.000722831
0.000743905
0.000765151
0.000785704
0.000804992
0.000822761
0.000839053
0.000854157
0.000868561
0.000882992
0.00089886
0.000919463
0.000951213
0.00100205
0.00107576
0.00116745
0.00126563
0.00135806
0.0014361
0.00149589
0.00153729
0.00156227
0.00157367
0.00157455
0.00156784
0.00155632
0.00154271
0.00152966
0.00151989
0.00151604
0.00152046
0.0015348
0.00155944
0.00159412
0.00163185
0.00170165
0.000826417
0.000818969
0.000810357
0.000801916
0.000797227
0.00079829
0.000801723
0.000799804
0.000785795
0.000758743
0.000723242
0.00068559
0.000651136
0.000622741
0.00060045
0.000583476
0.000570706
0.000560883
0.000552688
0.000544871
0.000536453
0.000526918
0.000516271
0.000504939
0.000493557
0.000482758
0.00047304
0.000464722
0.000457962
0.000452802
0.000449218
0.000447161
0.000446593
0.000447492
0.000449851
0.000453657
0.000458872
0.000465405
0.000473101
0.000481752
0.00049112
0.000500987
0.000511197
0.000521694
0.000532516
0.000543763
0.000555514
0.000567707
0.000580019
0.000591851
0.000602482
0.000611335
0.000618214
0.000623403
0.000627619
0.000631853
0.000637163
0.000644474
0.000654425
0.000667305
0.000683043
0.000701279
0.000721448
0.000742874
0.000764847
0.000786685
0.000807786
0.00082768
0.000846062
0.000862805
0.000877952
0.000891692
0.000904326
0.000916248
0.000928127
0.000941639
0.000960625
0.000990997
0.00103735
0.00109866
0.00116841
0.00123835
0.00130143
0.00135315
0.00139167
0.00141717
0.00143111
0.00143549
0.00143256
0.00142459
0.00141388
0.00140278
0.00139371
0.00138913
0.00139139
0.00140241
0.0014231
0.00145405
0.00148854
0.00155709
0.00089815
0.000892581
0.000886732
0.000880607
0.000874875
0.000870523
0.000867753
0.000865349
0.000861144
0.000853167
0.000840609
0.000824145
0.000805796
0.000787761
0.000771461
0.0007576
0.000746235
0.000736921
0.000728868
0.000721125
0.000712779
0.000703145
0.000691904
0.000679127
0.000665217
0.000650777
0.000636478
0.000622955
0.000610743
0.000600251
0.000591764
0.00058545
0.000581375
0.000579519
0.000579781
0.000581986
0.000585891
0.000591189
0.000597525
0.000604515
0.000611776
0.000618957
0.000625767
0.000631994
0.000637506
0.000642238
0.000646215
0.000649574
0.000652582
0.000655577
0.000658888
0.000662783
0.000667493
0.00067326
0.000680362
0.00068909
0.000699676
0.000712226
0.000726676
0.000742794
0.000760213
0.000778496
0.000797196
0.000815899
0.000834248
0.00085194
0.00086873
0.000884425
0.000898898
0.000912096
0.000924048
0.000934857
0.000944695
0.00095377
0.000962388
0.000971309
0.000982594
0.00100016
0.0010283
0.00106802
0.00111536
0.00116418
0.00120946
0.00124802
0.00127817
0.00129934
0.00131189
0.00131681
0.00131551
0.00130958
0.00130078
0.00129101
0.00128226
0.00127668
0.00127644
0.00128353
0.00129925
0.00132496
0.00135447
0.00141883
0.000946054
0.000942087
0.000938015
0.000933811
0.000929541
0.000925427
0.000921705
0.000918377
0.000915092
0.00091125
0.000906249
0.000899791
0.000892119
0.000883801
0.000875475
0.000867677
0.000860702
0.000854565
0.000849024
0.000843652
0.000837944
0.000831437
0.000823803
0.00081492
0.000804879
0.000793959
0.000782572
0.000771197
0.00076032
0.000750387
0.000741771
0.000734748
0.00072949
0.000726059
0.000724414
0.000724423
0.000725872
0.000728491
0.000731969
0.000735985
0.000740228
0.000744426
0.000748361
0.000751884
0.000754911
0.000757401
0.000759354
0.000760814
0.000761908
0.00076288
0.000764082
0.000765927
0.000768814
0.000773068
0.000778905
0.000786419
0.000795572
0.00080621
0.000818076
0.000830846
0.000844173
0.000857722
0.000871204
0.000884395
0.000897133
0.000909307
0.000920839
0.000931675
0.000941775
0.000951118
0.00095971
0.000967591
0.000974833
0.000981531
0.000987801
0.000993936
0.00100089
0.00101092
0.00102743
0.00105286
0.00108596
0.00112179
0.00115504
0.00118258
0.00120343
0.00121761
0.00122555
0.00122792
0.00122558
0.00121956
0.00121109
0.00120152
0.00119238
0.00118539
0.00118235
0.00118514
0.0011952
0.00121442
0.00123737
0.00129412
0.00097533
0.000972716
0.000970015
0.000967231
0.000964369
0.000961461
0.00095857
0.000955757
0.000953025
0.000950286
0.000947375
0.000944136
0.000940525
0.000936605
0.000932533
0.000928496
0.000924649
0.000921065
0.000917703
0.000914424
0.000911015
0.000907243
0.0009029
0.000897849
0.000892056
0.000885589
0.000878617
0.000871383
0.000864173
0.000857284
0.000850994
0.000845538
0.000841086
0.000837735
0.000835504
0.000834341
0.00083413
0.000834707
0.00083588
0.000837447
0.000839213
0.000841012
0.000842717
0.00084425
0.000845586
0.000846742
0.000847762
0.000848706
0.000849653
0.000850713
0.000852038
0.000853826
0.000856294
0.000859635
0.000863987
0.0008694
0.000875832
0.000883156
0.000891183
0.000899685
0.000908431
0.000917211
0.000925852
0.000934233
0.00094228
0.000949958
0.000957257
0.000964179
0.00097073
0.000976912
0.000982732
0.000988202
0.000993341
0.000998176
0.00100273
0.00100709
0.0010116
0.00101734
0.00102644
0.00104147
0.00106353
0.00109063
0.00111818
0.00114168
0.0011587
0.00116896
0.00117321
0.00117253
0.00116793
0.0011604
0.00115089
0.00114043
0.00113014
0.0011213
0.0011153
0.00111371
0.00111787
0.00112988
0.00114526
0.00119105
0.000991655
0.00099005
0.000988374
0.00098663
0.000984825
0.000982963
0.000981055
0.000979117
0.00097717
0.000975219
0.000973246
0.000971216
0.000969105
0.000966904
0.000964634
0.000962342
0.000960079
0.000957885
0.000955767
0.000953693
0.000951594
0.000949375
0.000946938
0.000944195
0.000941096
0.000937635
0.000933855
0.000929848
0.000925742
0.000921687
0.000917838
0.000914338
0.000911303
0.000908811
0.000906898
0.000905554
0.000904731
0.000904351
0.000904313
0.000904508
0.000904833
0.0009052
0.000905543
0.000905834
0.000906075
0.000906304
0.000906584
0.00090699
0.000907599
0.000908491
0.000909739
0.000911423
0.000913617
0.000916383
0.000919758
0.000923741
0.000928285
0.000933301
0.000938669
0.000944251
0.000949906
0.000955512
0.00096097
0.000966215
0.000971213
0.000975959
0.000980469
0.000984766
0.000988878
0.000992826
0.000996627
0.00100029
0.00100382
0.00100721
0.00101046
0.00101355
0.00101657
0.00101994
0.0010247
0.0010326
0.0010454
0.00106354
0.0010852
0.00110678
0.00112463
0.00113656
0.00114212
0.00114202
0.00113742
0.00112953
0.00111946
0.00110825
0.00109686
0.00108631
0.00107769
0.0010722
0.00107097
0.00107596
0.0010838
0.0011164
0.000999918
0.000998974
0.000997981
0.000996939
0.000995852
0.000994722
0.00099355
0.000992336
0.000991086
0.000989806
0.000988501
0.00098717
0.000985812
0.000984421
0.000982998
0.000981552
0.000980096
0.000978645
0.000977209
0.000975788
0.000974368
0.000972921
0.000971412
0.000969804
0.000968067
0.000966185
0.000964162
0.000962026
0.000959821
0.000957608
0.000955456
0.000953435
0.000951605
0.000950008
0.000948671
0.000947594
0.00094676
0.000946132
0.000945662
0.000945297
0.000944986
0.000944688
0.000944377
0.000944048
0.000943717
0.000943426
0.000943234
0.000943214
0.000943438
0.000943976
0.000944884
0.000946206
0.000947968
0.000950176
0.000952818
0.000955858
0.000959239
0.000962885
0.000966705
0.000970604
0.000974492
0.000978288
0.000981932
0.000985387
0.000988638
0.000991688
0.00099456
0.000997284
0.000999893
0.00100242
0.00100488
0.0010073
0.00100967
0.00101199
0.00101424
0.00101638
0.00101841
0.00102044
0.00102288
0.00102664
0.00103299
0.00104308
0.00105711
0.00107378
0.0010906
0.00110484
0.00111458
0.00111904
0.00111849
0.00111378
0.00110597
0.00109615
0.00108536
0.00107455
0.00106467
0.00105672
0.0010516
0.00105096
0.00105256
0.00107209
0.00100369
0.00100312
0.00100253
0.00100191
0.00100126
0.00100058
0.000999878
0.000999143
0.000998375
0.000997576
0.000996748
0.000995894
0.000995015
0.00099411
0.00099318
0.000992225
0.000991248
0.000990254
0.000989249
0.000988238
0.000987221
0.000986197
0.000985159
0.000984097
0.000983003
0.00098187
0.000980699
0.000979496
0.000978276
0.00097706
0.000975875
0.000974746
0.000973696
0.000972744
0.000971899
0.000971158
0.000970511
0.000969939
0.000969417
0.000968918
0.00096842
0.000967904
0.000967364
0.000966806
0.000966255
0.000965747
0.000965336
0.000965083
0.000965052
0.000965302
0.000965885
0.000966834
0.000968163
0.00096987
0.000971928
0.000974295
0.000976912
0.000979711
0.000982615
0.000985549
0.000988443
0.000991238
0.00099389