/*--------------------------------*- C++ -*----------------------------------*\
  =========                 |
  \\      /  F ield         | OpenFOAM: The Open Source CFD Toolbox
   \\    /   O peration     | Website:  https://openfoam.org
    \\  /    A nd           | Version:  10
     \\/     M anipulation  |
\*---------------------------------------------------------------------------*/
FoamFile
{
    format      ascii;
    class       volScalarField;
    location    "1800";
    object      p;
}
// * * * * * * * * * * * * * * * * * * * * * * * * * * * * * * * * * * * * * //

dimensions      [0 2 -2 0 0 0 0];

internalField   nonuniform List<scalar> 
6820
(
-7.78309
-8.55435
-9.00126
-9.14745
-9.22486
-9.28849
-9.33225
-9.36039
-9.38127
-9.39857
-9.41311
-9.42534
-9.43579
-9.44475
-9.45233
-9.45851
-9.46323
-9.46638
-9.46779
-9.4672
-9.46428
-9.45857
-9.44945
-9.43611
-9.41735
-9.3915
-9.35606
-9.30717
-9.2387
-9.13925
-8.98988
-8.80037
-8.3204
-9.33756
-9.48252
-9.45794
-9.3883
-9.35948
-9.36333
-9.37446
-9.38524
-9.39652
-9.40824
-9.41942
-9.42956
-9.4386
-9.44654
-9.45332
-9.45885
-9.46303
-9.46573
-9.46676
-9.46588
-9.46276
-9.45699
-9.448
-9.43503
-9.41705
-9.39267
-9.35973
-9.31574
-9.25481
-9.17557
-9.05057
-8.91345
-8.59981
-9.3413
-9.2057
-9.20552
-9.23892
-9.27346
-9.30933
-9.33975
-9.36281
-9.38143
-9.39749
-9.41137
-9.42328
-9.43353
-9.44236
-9.44984
-9.45596
-9.46068
-9.4639
-9.46546
-9.46515
-9.46266
-9.45763
-9.44954
-9.43775
-9.42136
-9.39925
-9.3698
-9.33123
-9.28019
-9.2164
-9.13104
-9.05375
-8.9684
-9.2718
-9.19404
-9.23792
-9.2843
-9.30898
-9.33205
-9.35431
-9.37258
-9.38799
-9.40188
-9.41438
-9.42543
-9.43517
-9.44369
-9.451
-9.45708
-9.46184
-9.46518
-9.46695
-9.46695
-9.46493
-9.46056
-9.45341
-9.44297
-9.42859
-9.40947
-9.38466
-9.35336
-9.31453
-9.27038
-9.22273
-9.19697
-9.21267
-9.26546
-9.2358
-9.26502
-9.29572
-9.31386
-9.33369
-9.35469
-9.37276
-9.38818
-9.40206
-9.41458
-9.4257
-9.43552
-9.44414
-9.45158
-9.45782
-9.46281
-9.46644
-9.46861
-9.46914
-9.46782
-9.4644
-9.45855
-9.44993
-9.4381
-9.42268
-9.40332
-9.38013
-9.35384
-9.32812
-9.30886
-9.31453
-9.3647
-9.27361
-9.25935
-9.27499
-9.29963
-9.31856
-9.3378
-9.35755
-9.37496
-9.39
-9.40357
-9.41588
-9.4269
-9.43669
-9.44536
-9.45291
-9.45933
-9.46457
-9.46857
-9.47121
-9.47238
-9.47191
-9.46962
-9.46531
-9.45879
-9.44987
-9.4385
-9.42488
-9.40981
-9.39502
-9.38462
-9.38506
-9.40889
-9.47035
-9.28167
-9.27399
-9.28491
-9.30648
-9.32505
-9.34275
-9.36079
-9.37731
-9.39192
-9.40517
-9.41728
-9.42822
-9.43803
-9.44677
-9.45449
-9.46114
-9.46671
-9.47114
-9.47436
-9.47628
-9.4768
-9.47582
-9.47324
-9.46903
-9.46321
-9.45604
-9.44808
-9.44053
-9.43557
-9.43703
-9.45055
-9.4844
-9.54773
-9.28998
-9.28671
-9.29578
-9.31406
-9.33122
-9.34753
-9.36417
-9.37987
-9.39404
-9.40698
-9.41889
-9.42975
-9.43958
-9.44843
-9.45633
-9.46327
-9.46921
-9.47415
-9.47802
-9.48079
-9.4824
-9.48284
-9.48211
-9.4803
-9.47763
-9.47455
-9.47184
-9.4709
-9.47388
-9.48409
-9.50592
-9.54469
-9.60579
-9.29875
-9.29816
-9.30606
-9.32145
-9.33717
-9.35237
-9.36783
-9.38271
-9.3964
-9.40902
-9.42072
-9.4315
-9.44136
-9.45033
-9.45843
-9.46567
-9.47204
-9.47752
-9.48211
-9.48579
-9.48857
-9.49049
-9.49166
-9.49226
-9.49263
-9.49335
-9.49531
-9.4999
-9.50905
-9.52544
-9.55225
-9.5928
-9.65003
-9.30765
-9.30849
-9.31559
-9.32876
-9.34312
-9.35731
-9.37171
-9.38578
-9.39897
-9.41127
-9.42277
-9.43347
-9.44335
-9.45245
-9.46078
-9.46835
-9.47517
-9.48124
-9.48657
-9.4912
-9.49518
-9.49861
-9.50164
-9.50456
-9.50778
-9.51191
-9.51787
-9.52691
-9.54069
-9.56123
-9.59075
-9.63123
-9.68411
-9.31642
-9.31797
-9.32451
-9.33598
-9.34904
-9.36227
-9.37572
-9.38904
-9.40174
-9.41372
-9.42503
-9.43564
-9.44557
-9.4548
-9.46337
-9.47129
-9.47857
-9.48524
-9.49135
-9.49695
-9.50212
-9.50702
-9.51185
-9.51694
-9.52272
-9.52982
-9.53909
-9.55161
-9.56872
-9.59188
-9.6226
-9.66195
-9.71055
-9.32492
-9.3268
-9.33288
-9.34302
-9.35489
-9.36722
-9.37983
-9.39246
-9.40468
-9.41635
-9.42747
-9.43801
-9.44797
-9.45735
-9.46617
-9.47444
-9.48221
-9.4895
-9.49638
-9.50293
-9.50927
-9.51558
-9.52209
-9.52914
-9.53717
-9.54678
-9.55871
-9.57386
-9.59324
-9.61791
-9.64882
-9.68651
-9.73111
-9.3331
-9.33507
-9.34073
-9.34982
-9.36065
-9.37213
-9.384
-9.39599
-9.40776
-9.41913
-9.43007
-9.44055
-9.45056
-9.46009
-9.46916
-9.4778
-9.48604
-9.49395
-9.50159
-9.50907
-9.51652
-9.52414
-9.53217
-9.54096
-9.55092
-9.56259
-9.57658
-9.59362
-9.61447
-9.63985
-9.67031
-9.70607
-9.74705
-9.34089
-9.34284
-9.34811
-9.35635
-9.36627
-9.37699
-9.38819
-9.39961
-9.41095
-9.42204
-9.43281
-9.44324
-9.4533
-9.46298
-9.4723
-9.48131
-9.49003
-9.49853
-9.5069
-9.51526
-9.52374
-9.53256
-9.54195
-9.55224
-9.56381
-9.5771
-9.59265
-9.61099
-9.63268
-9.65817
-9.6878
-9.72156
-9.75928
-9.34827
-9.35015
-9.35506
-9.36259
-9.37173
-9.38177
-9.39236
-9.40326
-9.41421
-9.42504
-9.43566
-9.44604
-9.45615
-9.46599
-9.47557
-9.48492
-9.49411
-9.50318
-9.51225
-9.52142
-9.53085
-9.54073
-9.5513
-9.56285
-9.5757
-9.59025
-9.6069
-9.62606
-9.64811
-9.67334
-9.70189
-9.73367
-9.76846
-9.35522
-9.357
-9.36159
-9.36853
-9.377
-9.38642
-9.39648
-9.40692
-9.41751
-9.4281
-9.43859
-9.44893
-9.45909
-9.46908
-9.47891
-9.48861
-9.49823
-9.50784
-9.51754
-9.52745
-9.53772
-9.54853
-9.5601
-9.57267
-9.58654
-9.602
-9.61939
-9.63898
-9.66104
-9.68572
-9.71306
-9.74293
-9.7751
-9.36174
-9.36342
-9.3677
-9.37415
-9.38205
-9.39093
-9.4005
-9.41053
-9.42081
-9.43118
-9.44155
-9.45186
-9.46209
-9.47223
-9.48229
-9.49231
-9.50233
-9.51244
-9.52272
-9.53329
-9.54429
-9.55589
-9.56827
-9.58165
-9.59627
-9.61236
-9.63017
-9.6499
-9.6717
-9.69565
-9.72174
-9.74978
-9.77959
-9.36782
-9.3694
-9.37341
-9.37944
-9.38685
-9.39525
-9.4044
-9.41408
-9.42407
-9.43425
-9.44451
-9.4548
-9.46509
-9.47537
-9.48565
-9.49597
-9.50637
-9.51693
-9.52772
-9.53886
-9.55048
-9.56271
-9.57574
-9.58973
-9.60487
-9.62135
-9.63934
-9.65897
-9.68033
-9.70344
-9.72824
-9.75456
-9.78223
-9.37344
-9.37493
-9.3787
-9.38437
-9.39137
-9.39936
-9.40814
-9.4175
-9.42725
-9.43726
-9.44743
-9.45771
-9.46806
-9.47848
-9.48896
-9.49955
-9.51029
-9.52123
-9.53247
-9.54409
-9.55621
-9.56896
-9.58247
-9.59689
-9.61236
-9.62902
-9.64699
-9.66634
-9.68712
-9.70932
-9.73285
-9.75755
-9.78328
-9.3786
-9.38001
-9.38357
-9.38893
-9.39558
-9.40322
-9.41169
-9.42077
-9.43031
-9.44017
-9.45027
-9.46054
-9.47095
-9.48149
-9.49217
-9.503
-9.51403
-9.52531
-9.53692
-9.54893
-9.56145
-9.57458
-9.58844
-9.60312
-9.61876
-9.63543
-9.65321
-9.67216
-9.69227
-9.71351
-9.7358
-9.75897
-9.78293
-9.38328
-9.38463
-9.388
-9.3931
-9.39945
-9.4068
-9.41499
-9.42385
-9.43321
-9.44295
-9.45298
-9.46326
-9.47373
-9.48438
-9.49522
-9.50626
-9.51754
-9.5291
-9.54101
-9.55333
-9.56615
-9.57955
-9.59362
-9.60844
-9.62409
-9.64064
-9.65812
-9.67656
-9.69594
-9.71622
-9.7373
-9.75904
-9.78136
-9.38747
-9.38875
-9.39197
-9.39685
-9.40295
-9.41006
-9.41802
-9.42668
-9.43589
-9.44554
-9.45553
-9.46581
-9.47634
-9.4871
-9.49808
-9.5093
-9.52078
-9.53257
-9.54471
-9.55726
-9.57028
-9.58385
-9.59802
-9.61285
-9.62841
-9.64472
-9.66181
-9.67968
-9.69829
-9.7176
-9.73751
-9.75792
-9.77873
-9.39114
-9.39237
-9.39546
-9.40015
-9.40605
-9.41295
-9.42073
-9.42923
-9.43833
-9.4479
-9.45786
-9.46816
-9.47874
-9.48959
-9.50069
-9.51206
-9.52371
-9.53567
-9.54798
-9.56068
-9.57383
-9.58747
-9.60164
-9.6164
-9.63176
-9.64775
-9.66438
-9.68163
-9.69946
-9.71781
-9.73661
-9.75575
-9.77516
-9.39428
-9.39547
-9.39844
-9.40298
-9.4087
-9.41544
-9.42307
-9.43146
-9.44047
-9.44999
-9.45994
-9.47025
-9.48089
-9.49181
-9.50302
-9.51451
-9.52628
-9.53837
-9.55079
-9.56359
-9.57678
-9.59041
-9.60451
-9.6191
-9.6342
-9.64982
-9.66593
-9.68253
-9.69957
-9.71699
-9.73472
-9.75267
-9.77078
-9.39684
-9.39799
-9.40087
-9.40528
-9.41088
-9.41749
-9.42501
-9.43331
-9.44226
-9.45175
-9.4617
-9.47205
-9.48274
-9.49374
-9.50503
-9.51661
-9.52848
-9.54065
-9.55313
-9.56595
-9.57913
-9.5927
-9.60665
-9.62102
-9.6358
-9.65098
-9.66656
-9.68249
-9.69874
-9.71526
-9.73197
-9.7488
-9.76571
-9.39881
-9.39993
-9.40273
-9.40703
-9.41252
-9.41904
-9.42648
-9.43473
-9.44365
-9.45314
-9.46312
-9.4735
-9.48425
-9.49532
-9.50668
-9.51833
-9.53026
-9.54247
-9.55498
-9.56778
-9.5809
-9.59433
-9.6081
-9.62219
-9.63661
-9.65133
-9.66634
-9.68161
-9.69709
-9.71273
-9.72848
-9.74426
-9.76005
-9.40014
-9.40123
-9.40395
-9.40816
-9.41357
-9.42003
-9.42744
-9.43568
-9.44461
-9.45412
-9.46413
-9.47457
-9.48538
-9.49652
-9.50794
-9.51965
-9.53162
-9.54385
-9.55633
-9.56908
-9.58209
-9.59536
-9.60889
-9.62268
-9.6367
-9.65095
-9.6654
-9.68001
-9.69474
-9.70955
-9.72438
-9.73918
-9.75392
-9.40079
-9.40185
-9.4045
-9.40863
-9.41398
-9.42042
-9.42783
-9.43609
-9.44506
-9.45463
-9.46471
-9.47522
-9.4861
-9.4973
-9.50879
-9.52053
-9.53252
-9.54474
-9.55718
-9.56984
-9.58271
-9.59578
-9.60905
-9.6225
-9.63612
-9.64989
-9.66377
-9.67773
-9.69174
-9.70576
-9.71973
-9.73361
-9.74738
-9.40073
-9.40175
-9.40432
-9.40836
-9.41368
-9.42013
-9.42759
-9.43591
-9.44496
-9.45462
-9.4648
-9.47541
-9.48638
-9.49766
-9.50921
-9.52099
-9.53299
-9.54519
-9.55758
-9.57013
-9.58284
-9.59571
-9.6087
-9.62182
-9.63503
-9.64832
-9.66165
-9.67499
-9.68832
-9.70158
-9.71475
-9.72777
-9.74064
-9.39991
-9.40088
-9.40333
-9.40728
-9.41257
-9.41908
-9.42663
-9.43507
-9.44425
-9.45406
-9.46437
-9.47509
-9.48616
-9.49752
-9.50912
-9.52093
-9.53293
-9.54508
-9.55738
-9.56981
-9.58235
-9.59498
-9.60769
-9.62045
-9.63325
-9.64607
-9.65887
-9.67162
-9.68429
-9.69685
-9.70927
-9.7215
-9.73354
-9.39831
-9.3992
-9.40146
-9.40526
-9.41056
-9.41718
-9.42489
-9.4335
-9.44288
-9.45289
-9.4634
-9.47432
-9.48556
-9.49706
-9.50877
-9.52065
-9.53268
-9.54482
-9.55706
-9.56938
-9.58175
-9.59417
-9.6066
-9.61904
-9.63145
-9.64382
-9.65612
-9.66831
-9.68037
-9.69228
-9.70399
-9.71548
-9.72673
-9.39593
-9.39666
-9.39858
-9.40216
-9.40751
-9.41434
-9.42229
-9.43113
-9.44072
-9.45092
-9.4616
-9.47264
-9.48398
-9.49555
-9.5073
-9.5192
-9.53121
-9.5433
-9.55545
-9.56764
-9.57984
-9.59204
-9.60421
-9.61633
-9.62838
-9.64033
-9.65216
-9.66385
-9.67537
-9.68669
-9.69779
-9.70863
-9.71924
-9.39283
-9.39324
-9.39455
-9.39777
-9.40319
-9.41034
-9.41872
-9.4281
-9.43829
-9.44906
-9.46024
-9.47172
-9.48341
-9.49526
-9.50722
-9.51925
-9.53133
-9.54342
-9.55552
-9.56759
-9.57962
-9.59159
-9.60348
-9.61527
-9.62693
-9.63846
-9.64982
-9.66099
-9.67195
-9.68267
-9.69314
-9.7033
-9.71317
-9.38924
-9.38889
-9.38906
-9.39196
-9.3977
-9.40498
-9.4132
-9.42241
-9.43254
-9.44331
-9.45454
-9.4661
-9.4779
-9.48988
-9.50196
-9.51411
-9.52629
-9.53847
-9.55061
-9.56269
-9.5747
-9.5866
-9.59839
-9.61003
-9.62151
-9.6328
-9.64389
-9.65475
-9.66537
-9.67572
-9.68579
-9.69558
-9.70508
-9.38581
-9.38363
-9.38091
-9.38346
-9.39127
-9.40124
-9.41193
-9.42321
-9.43494
-9.4469
-9.45894
-9.47103
-9.48314
-9.49523
-9.50729
-9.51931
-9.53126
-9.54314
-9.55494
-9.56663
-9.5782
-9.58963
-9.60091
-9.61202
-9.62294
-9.63365
-9.64413
-9.65437
-9.66433
-9.67401
-9.68337
-9.69239
-9.70106
-9.38371
-9.37866
-9.37128
-9.36927
-9.37228
-9.37838
-9.38713
-9.39801
-9.41008
-9.42276
-9.43579
-9.44905
-9.4624
-9.47573
-9.48899
-9.50214
-9.51515
-9.52801
-9.54069
-9.55318
-9.56546
-9.57752
-9.58935
-9.60092
-9.61223
-9.62327
-9.634
-9.64444
-9.65455
-9.66433
-9.67379
-9.6829
-9.69172
-9.38456
-9.36472
-9.3677
-9.38779
-9.40498
-9.41646
-9.42698
-9.43823
-9.4495
-9.46047
-9.4713
-9.48217
-9.49307
-9.50399
-9.5149
-9.52582
-9.53671
-9.54757
-9.55837
-9.56909
-9.57971
-9.5902
-9.60054
-9.6107
-9.62067
-9.63043
-9.63994
-9.6492
-9.65818
-9.66686
-9.67521
-9.68321
-9.69083
-9.42236
-9.29919
-9.23627
-9.24023
-9.26306
-9.28539
-9.30745
-9.33009
-9.35227
-9.37336
-9.39338
-9.41244
-9.43062
-9.44799
-9.46463
-9.48062
-9.49601
-9.51087
-9.52522
-9.5391
-9.55253
-9.56552
-9.57808
-9.59023
-9.60196
-9.61328
-9.62419
-9.63468
-9.64476
-9.65441
-9.66365
-9.67246
-9.68087
-9.58251
-9.59575
-9.55461
-9.51277
-9.48927
-9.47937
-9.47562
-9.47458
-9.47579
-9.47925
-9.48453
-9.49108
-9.49854
-9.50672
-9.51546
-9.52462
-9.53409
-9.54376
-9.55357
-9.56345
-9.57334
-9.5832
-9.59297
-9.60262
-9.61211
-9.62141
-9.6305
-9.63935
-9.64793
-9.65622
-9.6642
-9.67183
-9.67912
-8.41839
-8.71881
-8.98407
-9.1104
-9.17591
-9.23267
-9.283
-9.32231
-9.35312
-9.37933
-9.40267
-9.42365
-9.44271
-9.46031
-9.4768
-9.49239
-9.50723
-9.52141
-9.53503
-9.54813
-9.56076
-9.57294
-9.5847
-9.59604
-9.60696
-9.61749
-9.6276
-9.63732
-9.64663
-9.65553
-9.66403
-9.67211
-9.67981
-8.82786
-10.1029
-10.4797
-10.6688
-10.7191
-10.7028
-10.6841
-10.671
-10.6593
-10.6616
-10.6933
-10.7567
-10.8417
-10.9338
-11.0196
-11.0888
-11.1361
-11.1597
-11.1616
-11.1456
-11.1167
-11.0803
-11.0415
-11.0046
-10.9728
-10.9476
-10.9288
-10.9149
-10.9028
-10.8885
-10.8672
-10.8336
-10.7828
-10.7107
-10.6145
-10.4929
-10.3466
-10.1784
-9.99249
-9.79479
-9.5918
-9.39006
-9.1953
-9.01164
-8.84108
-8.68332
-8.5359
-8.39468
-8.25443
-8.10953
-7.95459
-7.78499
-7.59719
-7.38904
-7.1598
-6.91016
-6.64204
-6.35836
-6.06273
-5.75906
-5.45126
-5.14288
-4.83691
-4.53562
-4.24054
-3.95252
-3.67188
-3.39854
-3.13223
-2.87262
-2.6195
-2.37289
-2.13332
-1.90214
-1.68187
-1.47631
-1.28989
-1.1263
-0.987033
-0.870926
-0.774842
-0.694944
-0.62765
-0.570069
-0.519979
-0.475699
-0.435899
-0.3995
-0.365575
-0.33334
-0.302099
-0.271316
-0.240475
-0.209445
-0.177565
-0.146027
-0.111524
-0.0825206
-0.0377476
-0.0293169
-8.86087
-10.093
-10.5152
-10.583
-10.5619
-10.541
-10.5539
-10.5832
-10.6073
-10.6322
-10.6751
-10.7418
-10.8253
-10.9127
-10.9922
-11.0553
-11.0974
-11.1175
-11.1176
-11.1013
-11.0732
-11.0383
-11.0012
-10.9661
-10.9358
-10.9117
-10.8935
-10.8796
-10.8669
-10.8515
-10.8287
-10.7934
-10.7411
-10.6676
-10.5703
-10.4481
-10.3017
-10.1339
-9.94898
-9.7526
-9.55122
-9.35133
-9.15862
-8.97725
-8.80926
-8.65436
-8.51004
-8.37205
-8.23502
-8.09318
-7.941
-7.77376
-7.58793
-7.38137
-7.15345
-6.90495
-6.63793
-6.35539
-6.06103
-5.75882
-5.45265
-5.14607
-4.84201
-4.54269
-4.24956
-3.9634
-3.68445
-3.41259
-3.14749
-2.88881
-2.63628
-2.38993
-2.15022
-1.91843
-1.69702
-1.48987
-1.30159
-1.13623
-0.995594
-0.878666
-0.782289
-0.702498
-0.635571
-0.578497
-0.528972
-0.48525
-0.445951
-0.409957
-0.376306
-0.344184
-0.312877
-0.281842
-0.250562
-0.218931
-0.18627
-0.153871
-0.118127
-0.0883664
-0.0403916
-0.0350612
-9.22351
-10.0366
-10.4019
-10.4499
-10.4319
-10.4312
-10.466
-10.5179
-10.5636
-10.6038
-10.6534
-10.7202
-10.7997
-10.8813
-10.9546
-11.0124
-11.0506
-11.0688
-11.0688
-11.0538
-11.0281
-10.9957
-10.9612
-10.9281
-10.8992
-10.8758
-10.8576
-10.8429
-10.8289
-10.8116
-10.7867
-10.7493
-10.695
-10.6201
-10.5221
-10.4
-10.2546
-10.0884
-9.90569
-9.71189
-9.51324
-9.31601
-9.12576
-8.9466
-8.78063
-8.62763
-8.48518
-8.34905
-8.21388
-8.07385
-7.9234
-7.75779
-7.57349
-7.36842
-7.14199
-6.89507
-6.62976
-6.34912
-6.05683
-5.75684
-5.453
-5.14879
-4.84708
-4.55002
-4.25901
-3.9748
-3.69759
-3.42724
-3.16343
-2.90581
-2.65415
-2.40844
-2.16914
-1.93744
-1.7157
-1.50771
-1.31813
-1.1512
-1.009
-0.890778
-0.793483
-0.713144
-0.645967
-0.588847
-0.539401
-0.495813
-0.456652
-0.42075
-0.387111
-0.35489
-0.323353
-0.291947
-0.260158
-0.227891
-0.19446
-0.161214
-0.124333
-0.0937667
-0.0429505
-0.0402399
-9.4082
-9.9185
-10.2458
-10.3458
-10.3737
-10.3981
-10.4363
-10.4859
-10.5348
-10.5808
-10.6327
-10.6967
-10.77
-10.8441
-10.9103
-10.9624
-10.9972
-11.0144
-11.0153
-11.0028
-10.9803
-10.9515
-10.9201
-10.8894
-10.8619
-10.8389
-10.8202
-10.8041
-10.7879
-10.768
-10.7403
-10.7003
-10.644
-10.5679
-10.4697
-10.3485
-10.2051
-10.0419
-9.86284
-9.67305
-9.47836
-9.2847
-9.09738
-8.9204
-8.75588
-8.60375
-8.46178
-8.32594
-8.19103
-8.05134
-7.90139
-7.73651
-7.5532
-7.34943
-7.12465
-6.87974
-6.61677
-6.33878
-6.04937
-5.75238
-5.45156
-5.15029
-4.85135
-4.55684
-4.26813
-3.98596
-3.71054
-3.44178
-3.17938
-2.92303
-2.67252
-2.4279
-2.18961
-1.95879
-1.73764
-1.52974
-1.33963
-1.17153
-1.02778
-0.907912
-0.809138
-0.727603
-0.659518
-0.601728
-0.551781
-0.5078
-0.468299
-0.432067
-0.398069
-0.365436
-0.333414
-0.30144
-0.269001
-0.236007
-0.201774
-0.167674
-0.129741
-0.0983549
-0.0450853
-0.0445681
-9.52027
-9.86189
-10.1375
-10.2674
-10.3289
-10.3715
-10.4125
-10.459
-10.508
-10.5562
-10.6082
-10.6684
-10.7355
-10.8029
-10.8632
-10.9111
-10.9438
-10.9607
-10.9632
-10.9533
-10.934
-10.9084
-10.8797
-10.8508
-10.8241
-10.8007
-10.7805
-10.7621
-10.7431
-10.7199
-10.6889
-10.6461
-10.5877
-10.5107
-10.4129
-10.2934
-10.1531
-9.99403
-9.8199
-9.63537
-9.44578
-9.25658
-9.07271
-8.89798
-8.7345
-8.58236
-8.43964
-8.30264
-8.16647
-8.02571
-7.87507
-7.71
-7.5271
-7.32439
-7.10131
-6.85871
-6.59859
-6.32387
-6.038
-5.74467
-5.44749
-5.14968
-4.85394
-4.56229
-4.27611
-3.99615
-3.72267
-3.45562
-3.19478
-2.9399
-2.69084
-2.44769
-2.21092
-1.98163
-1.76188
-1.55496
-1.36509
-1.19637
-1.05123
-0.929542
-0.828869
-0.745601
-0.676045
-0.617039
-0.566084
-0.521242
-0.480976
-0.444031
-0.409341
-0.376007
-0.34326
-0.310526
-0.277291
-0.243465
-0.208367
-0.173371
-0.134435
-0.102172
-0.0468404
-0.0479541
-9.60069
-9.84488
-10.0708
-10.2072
-10.2842
-10.3367
-10.3816
-10.4288
-10.4788
-10.5285
-10.5797
-10.6361
-10.6971
-10.7581
-10.8131
-10.8575
-10.8888
-10.9063
-10.9107
-10.9038
-10.8878
-10.8654
-10.8393
-10.8121
-10.7859
-10.7618
-10.7397
-10.7184
-10.6958
-10.6688
-10.6342
-10.5882
-10.5277
-10.4498
-10.3526
-10.2354
-10.0987
-9.94453
-9.77613
-9.59768
-9.41396
-9.22989
-9.04996
-8.87767
-8.71505
-8.56235
-8.41797
-8.27864
-8.13995
-7.99686
-7.84442
-7.67831
-7.49526
-7.29333
-7.07196
-6.8319
-6.57503
-6.30409
-6.02234
-5.73327
-5.44027
-5.14643
-4.85432
-4.56592
-4.28256
-4.00505
-3.73371
-3.46857
-3.20947
-2.95627
-2.70889
-2.4675
-2.23261
-2.00531
-1.78753
-1.58226
-1.39336
-1.2246
-1.0784
-0.954897
-0.852078
-0.766671
-0.695176
-0.634484
-0.582075
-0.535965
-0.494567
-0.456584
-0.420917
-0.386641
-0.352971
-0.31932
-0.285171
-0.250423
-0.214405
-0.178467
-0.138558
-0.10534
-0.0483479
-0.0503847
-9.65905
-9.84293
-10.0271
-10.1571
-10.2401
-10.2991
-10.3487
-10.3979
-10.4486
-10.4989
-10.5493
-10.6023
-10.658
-10.7131
-10.7631
-10.804
-10.8337
-10.8514
-10.8573
-10.8528
-10.8396
-10.82
-10.7963
-10.7707
-10.745
-10.7201
-10.6961
-10.672
-10.6459
-10.6151
-10.5768
-10.5279
-10.4653
-10.3866
-10.2901
-10.1752
-10.0423
-9.89312
-9.73061
-9.55844
-9.38085
-9.20223
-9.02656
-8.85699
-8.69539
-8.54209
-8.39575
-8.25357
-8.11163
-7.96542
-7.81043
-7.64264
-7.459
-7.25762
-7.03793
-6.80057
-6.54724
-6.28045
-6.00324
-5.71885
-5.43046
-5.14099
-4.85288
-4.56803
-4.2878
-4.01299
-3.74401
-3.48096
-3.2238
-2.97244
-2.7269
-2.48743
-2.2546
-2.0295
-1.81397
-1.61076
-1.4233
-1.25502
-1.10816
-0.983058
-0.878056
-0.790284
-0.716509
-0.653749
-0.599507
-0.551773
-0.508922
-0.469616
-0.432727
-0.397306
-0.362551
-0.32786
-0.292707
-0.256976
-0.220001
-0.183086
-0.142234
-0.107983
-0.0497387
-0.0518818
-9.70174
-9.84615
-9.99684
-10.1159
-10.2002
-10.2635
-10.3168
-10.3675
-10.4184
-10.4686
-10.518
-10.5682
-10.6193
-10.6694
-10.7147
-10.7523
-10.7801
-10.7973
-10.8039
-10.801
-10.79
-10.7727
-10.751
-10.7269
-10.7016
-10.6761
-10.6504
-10.6237
-10.5943
-10.5601
-10.5184
-10.4665
-10.4019
-10.3224
-10.2266
-10.1137
-9.98434
-9.83994
-9.68302
-9.51686
-9.34522
-9.17194
-9.00057
-8.83389
-8.67358
-8.51996
-8.37192
-8.22704
-8.08188
-7.93246
-7.77472
-7.60506
-7.42064
-7.21971
-7.00167
-6.76706
-6.51739
-6.25493
-5.98246
-5.70296
-5.41941
-5.13453
-4.85063
-4.56955
-4.29262
-4.02069
-3.75423
-3.49342
-3.2383
-2.98889
-2.74529
-2.50781
-2.27708
-2.05422
-1.84101
-1.63996
-1.45416
-1.28665
-1.13949
-1.01305
-0.906
-0.815828
-0.739602
-0.674517
-0.61815
-0.568499
-0.523918
-0.483043
-0.444719
-0.407976
-0.371998
-0.336164
-0.299938
-0.26318
-0.225229
-0.187321
-0.145561
-0.110214
-0.051121
-0.0524925
-9.73338
-9.8507
-9.97564
-10.0827
-10.1653
-10.2304
-10.2858
-10.3374
-10.3879
-10.4375
-10.4858
-10.5335
-10.5809
-10.6266
-10.6679
-10.7023
-10.7281
-10.7443
-10.7511
-10.7491
-10.7397
-10.7242
-10.7042
-10.6812
-10.6563
-10.6303
-10.6032
-10.5742
-10.542
-10.5047
-10.46
-10.4055
-10.3391
-10.2589
-10.1636
-10.0527
-9.92652
-9.78646
-9.63469
-9.47411
-9.308
-9.13976
-8.9725
-8.80867
-8.64976
-8.49608
-8.34669
-8.19947
-8.05144
-7.89909
-7.73883
-7.56742
-7.38229
-7.18183
-6.96544
-6.73357
-6.48754
-6.2294
-5.96167
-5.68709
-5.4084
-5.12813
-4.84849
-4.57124
-4.29769
-4.02871
-3.76484
-3.50634
-3.25334
-3.00593
-2.76431
-2.52885
-2.30023
-2.07959
-1.86863
-1.6697
-1.48558
-1.31895
-1.17166
-1.0441
-0.935169
-0.842673
-0.763965
-0.696436
-0.637763
-0.585986
-0.539461
-0.496814
-0.456874
-0.418658
-0.381334
-0.344268
-0.30691
-0.269091
-0.230153
-0.191248
-0.148619
-0.112133
-0.0525746
-0.0522949
-9.75711
-9.8551
-9.96037
-10.056
-10.1348
-10.1996
-10.2558
-10.3075
-10.3574
-10.406
-10.4529
-10.4983
-10.5425
-10.5845
-10.6223
-10.6537
-10.6774
-10.6925
-10.6991
-10.6977
-10.6894
-10.6752
-10.6565
-10.6344
-10.6098
-10.5832
-10.5548
-10.5239
-10.4893
-10.4493
-10.402
-10.3454
-10.2775
-10.1967
-10.102
-9.99284
-9.86964
-9.73357
-9.58654
-9.43108
-9.27009
-9.10653
-8.94313
-8.78206
-8.62462
-8.4711
-8.32068
-8.17155
-8.02109
-7.86622
-7.70378
-7.53087
-7.3452
-7.14527
-6.93054
-6.70134
-6.45885
-6.20491
-5.94178
-5.67197
-5.39802
-5.12227
-4.84682
-4.57336
-4.30317
-4.03716
-3.77591
-3.51976
-3.26892
-3.02356
-2.78396
-2.55054
-2.32403
-2.10557
-1.89681
-1.69991
-1.51739
-1.35164
-1.2043
-1.07575
-0.965069
-0.870339
-0.789178
-0.719167
-0.6581
-0.60407
-0.555458
-0.51089
-0.469193
-0.429377
-0.390603
-0.352223
-0.313677
-0.274765
-0.234829
-0.194928
-0.151467
-0.113822
-0.0541432
-0.0514063
-9.77503
-9.85868
-9.94879
-10.034
-10.1079
-10.1712
-10.2268
-10.2781
-10.327
-10.3742
-10.4195
-10.4628
-10.5042
-10.5429
-10.5774
-10.6061
-10.6278
-10.6418
-10.648
-10.6469
-10.6393
-10.6261
-10.6082
-10.5867
-10.5622
-10.5352
-10.5057
-10.4731
-10.4364
-10.3941
-10.3446
-10.2862
-10.217
-10.1359
-10.0418
-9.93437
-9.81394
-9.68154
-9.53885
-9.38809
-9.23179
-9.07255
-8.91276
-8.75431
-8.59835
-8.44515
-8.29401
-8.14335
-7.99089
-7.83393
-7.66968
-7.49558
-7.30956
-7.11027
-6.89719
-6.67059
-6.43152
-6.18159
-5.92288
-5.65767
-5.38828
-5.11692
-4.84556
-4.57582
-4.30897
-4.04592
-3.78731
-3.53355
-3.2849
-3.04164
-2.80409
-2.57274
-2.34835
-2.13205
-1.92541
-1.73046
-1.54947
-1.38457
-1.23721
-1.10776
-0.995432
-0.89855
-0.814975
-0.742478
-0.678973
-0.62262
-0.571829
-0.525241
-0.481686
-0.440174
-0.399864
-0.360099
-0.32031
-0.280269
-0.239319
-0.198418
-0.154155
-0.115345
-0.0558252
-0.0499806
-9.78854
-9.86119
-9.93941
-10.0155
-10.0841
-10.1448
-10.1991
-10.2493
-10.2969
-10.3425
-10.3859
-10.4271
-10.4658
-10.5016
-10.5332
-10.5594
-10.5792
-10.592
-10.5978
-10.5968
-10.5896
-10.577
-10.5597
-10.5386
-10.5141
-10.4866
-10.456
-10.4219
-10.3834
-10.3392
-10.2878
-10.2278
-10.1578
-10.0764
-9.98298
-9.87721
-9.75937
-9.63037
-9.49167
-9.34522
-9.19323
-9.03797
-8.88152
-8.72554
-8.57104
-8.41827
-8.26663
-8.11476
-7.96066
-7.80198
-7.63627
-7.46124
-7.27507
-7.07653
-6.86511
-6.64106
-6.40527
-6.15922
-5.90475
-5.64396
-5.37899
-5.11191
-4.84454
-4.57847
-4.31492
-4.05484
-3.7989
-3.54755
-3.30115
-3.06003
-2.82457
-2.59531
-2.37304
-2.15888
-1.95432
-1.76124
-1.5817
-1.41761
-1.27025
-1.13996
-1.02608
-0.927133
-0.841199
-0.766232
-0.700271
-0.641552
-0.588527
-0.539853
-0.494371
-0.451094
-0.409182
-0.367974
-0.326892
-0.285682
-0.243691
-0.201779
-0.156729
-0.116751
-0.0575794
-0.0482025
-9.79859
-9.86254
-9.93126
-9.99941
-10.0628
-10.1202
-10.1726
-10.2212
-10.2671
-10.3108
-10.3523
-10.3913
-10.4275
-10.4606
-10.4896
-10.5135
-10.5316
-10.5432
-10.5484
-10.5472
-10.5403
-10.528
-10.5111
-10.4902
-10.4655
-10.4375
-10.406
-10.3705
-10.3304
-10.2845
-10.2316
-10.1703
-10.0995
-10.0181
-9.9254
-9.82123
-9.70582
-9.57996
-9.44495
-9.30247
-9.15444
-9.00284
-8.84949
-8.69583
-8.54277
-8.39051
-8.23855
-8.08572
-7.93029
-7.77021
-7.60332
-7.42761
-7.24145
-7.04374
-6.83401
-6.61244
-6.37985
-6.13752
-5.88716
-5.63065
-5.36997
-5.10705
-4.84361
-4.58116
-4.32092
-4.06382
-3.81056
-3.56168
-3.31757
-3.07863
-2.8453
-2.61816
-2.39801
-2.18595
-1.98342
-1.79213
-1.61397
-1.45064
-1.30328
-1.17221
-1.05686
-0.955943
-0.867722
-0.790322
-0.721911
-0.660809
-0.605514
-0.554712
-0.507257
-0.462169
-0.41861
-0.375913
-0.333497
-0.291083
-0.248024
-0.205081
-0.159245
-0.118094
-0.0593524
-0.0462737
-9.80584
-9.86274
-9.92373
-9.98502
-10.0433
-10.0972
-10.1471
-10.1937
-10.2377
-10.2795
-10.3189
-10.3556
-10.3895
-10.42
-10.4466
-10.4684
-10.4848
-10.4953
-10.4998
-10.4983
-10.4913
-10.4793
-10.4625
-10.4416
-10.4167
-10.3882
-10.3558
-10.3191
-10.2776
-10.2302
-10.176
-10.1136
-10.0422
-9.96086
-9.86895
-9.76632
-9.65319
-9.53026
-9.39864
-9.25981
-9.11543
-8.96721
-8.81675
-8.66529
-8.51362
-8.36194
-8.20983
-8.05627
-7.89977
-7.73856
-7.57074
-7.39455
-7.20854
-7.01173
-6.80368
-6.58456
-6.35506
-6.11635
-5.86994
-5.61759
-5.3611
-5.10225
-4.84268
-4.58382
-4.32687
-4.07277
-3.82224
-3.57586
-3.33409
-3.09737
-2.8662
-2.64119
-2.42317
-2.21319
-2.01262
-1.82306
-1.64621
-1.48358
-1.33622
-1.20441
-1.08767
-0.984863
-0.894426
-0.814646
-0.743811
-0.680326
-0.622747
-0.569792
-0.520335
-0.473404
-0.428166
-0.38395
-0.340171
-0.296524
-0.252375
-0.208382
-0.161754
-0.11943
-0.0611036
-0.0443869
-9.81077
-9.86184
-9.91641
-9.97173
-10.0252
-10.0756
-10.1227
-10.167
-10.2089
-10.2485
-10.2857
-10.3202
-10.3518
-10.38
-10.4043
-10.4242
-10.4389
-10.4482
-10.4519
-10.4501
-10.4429
-10.4308
-10.414
-10.393
-10.3678
-10.3387
-10.3055
-10.2678
-10.225
-10.1764
-10.1209
-10.0578
-9.98593
-9.9047
-9.81358
-9.71242
-9.60142
-9.48121
-9.35273
-9.21725
-9.07623
-8.93114
-8.78336
-8.63398
-8.48368
-8.33264
-8.18051
-8.02643
-7.86911
-7.70701
-7.53848
-7.36199
-7.17626
-6.98041
-6.77406
-6.55732
-6.33082
-6.09561
-5.85305
-5.60472
-5.35231
-5.09745
-4.84169
-4.5864
-4.33274
-4.08164
-3.83388
-3.59004
-3.35065
-3.1162
-2.88722
-2.66436
-2.44844
-2.24052
-2.04186
-1.85396
-1.67834
-1.51638
-1.36901
-1.23649
-1.11843
-1.0138
-0.921222
-0.839116
-0.765892
-0.700041
-0.640176
-0.585055
-0.533576
-0.484781
-0.437841
-0.392085
-0.346922
-0.302024
-0.256766
-0.211712
-0.164283
-0.120794
-0.062803
-0.0426849
-9.81374
-9.85988
-9.90903
-9.95915
-10.0082
-10.055
-10.0992
-10.141
-10.1806
-10.218
-10.2529
-10.2852
-10.3145
-10.3405
-10.3627
-10.3807
-10.3939
-10.402
-10.4048
-10.4024
-10.395
-10.3826
-10.3657
-10.3444
-10.319
-10.2893
-10.2552
-10.2166
-10.1727
-10.123
-10.0666
-10.0027
-9.93059
-9.84957
-9.75925
-9.65949
-9.5505
-9.43279
-9.3072
-9.17482
-9.03689
-8.8947
-8.74942
-8.602
-8.45304
-8.3027
-8.15068
-7.99626
-7.83833
-7.67557
-7.50655
-7.32993
-7.14459
-6.94976
-6.74509
-6.53069
-6.30711
-6.07528
-5.83644
-5.59202
-5.34358
-5.09263
-4.84062
-4.58887
-4.33848
-4.09042
-3.84544
-3.60418
-3.36721
-3.13505
-2.90829
-2.68759
-2.47378
-2.26787
-2.07107
-1.88475
-1.71031
-1.54898
-1.40158
-1.26839
-1.14906
-1.04269
-0.948037
-0.863663
-0.788091
-0.719896
-0.657753
-0.600463
-0.546951
-0.496275
-0.447617
-0.400302
-0.353738
-0.307573
-0.261195
-0.215072
-0.166832
-0.122198
-0.0644241
-0.0412421
-9.81501
-9.85694
-9.90143
-9.94698
-9.9919
-10.0352
-10.0765
-10.1157
-10.1529
-10.1879
-10.2206
-10.2506
-10.2778
-10.3016
-10.3218
-10.338
-10.3497
-10.3566
-10.3585
-10.3555
-10.3476
-10.3349
-10.3177
-10.2961
-10.2702
-10.24
-10.2052
-10.1656
-10.1208
-10.0702
-10.013
-9.94855
-9.87622
-9.79547
-9.70594
-9.60753
-9.5004
-9.38501
-9.26209
-9.13255
-8.99747
-8.85795
-8.715
-8.56944
-8.42179
-8.2722
-8.12042
-7.96583
-7.80749
-7.64428
-7.47495
-7.29836
-7.11352
-6.91976
-6.71678
-6.50466
-6.28391
-6.05535
-5.82011
-5.5795
-5.33491
-5.08778
-4.83947
-4.59121
-4.3441
-4.09907
-3.8569
-3.61825
-3.38373
-3.1539
-2.92937
-2.71084
-2.49911
-2.29517
-2.10017
-1.91538
-1.74205
-1.58131
-1.43389
-1.30006
-1.17951
-1.07146
-0.974808
-0.888227
-0.810353
-0.739844
-0.67544
-0.615985
-0.560435
-0.507868
-0.457476
-0.408587
-0.360605
-0.31316
-0.265649
-0.218453
-0.169388
-0.123637
-0.0659462
-0.0400758
-9.81482
-9.85307
-9.89351
-9.935
-9.97616
-10.0161
-10.0545
-10.0911
-10.1258
-10.1584
-10.1888
-10.2167
-10.2416
-10.2634
-10.2817
-10.2961
-10.3063
-10.312
-10.313
-10.3093
-10.3008
-10.2877
-10.2702
-10.2482
-10.2218
-10.1909
-10.1554
-10.1151
-10.0694
-10.018
-9.96012
-9.89526
-9.82284
-9.7424
-9.65365
-9.55651
-9.45113
-9.33789
-9.21741
-9.09049
-8.95803
-8.82098
-8.68021
-8.53641
-8.39004
-8.24124
-8.08979
-7.93519
-7.77664
-7.61316
-7.44371
-7.26728
-7.08305
-6.89041
-6.68912
-6.47924
-6.26124
-6.03585
-5.80409
-5.56715
-5.32633
-5.08294
-4.83825
-4.59345
-4.34959
-4.10758
-3.86823
-3.63222
-3.40018
-3.1727
-2.95041
-2.73403
-2.52437
-2.32237
-2.12911
-1.94578
-1.77352
-1.61332
-1.46588
-1.33143
-1.20972
-1.10007
-1.00148
-0.912752
-0.832626
-0.759841
-0.693199
-0.631591
-0.574005
-0.519542
-0.467406
-0.416929
-0.367516
-0.318778
-0.27012
-0.221847
-0.17194
-0.125105
-0.0673609
-0.0391714
-9.81334
-9.84835
-9.88522
-9.92308
-9.96079
-9.9976
-10.0331
-10.067
-10.0993
-10.1296
-10.1577
-10.1833
-10.2062
-10.226
-10.2424
-10.2551
-10.2639
-10.2683
-10.2683
-10.2638
-10.2547
-10.2411
-10.2231
-10.2006
-10.1737
-10.1423
-10.1061
-10.0651
-10.0187
-9.96652
-9.9081
-9.84291
-9.77047
-9.69038
-9.6024
-9.50647
-9.40271
-9.29145
-9.17322
-9.04869
-8.91864
-8.78388
-8.64513
-8.50301
-8.3579
-8.20992
-8.05891
-7.90444
-7.74583
-7.58226
-7.41285
-7.23673
-7.05319
-6.86172
-6.66211
-6.45444
-6.2391
-6.01678
-5.78839
-5.55502
-5.31784
-5.0781
-4.83696
-4.59557
-4.35493
-4.11596
-3.87943
-3.64607
-3.41651
-3.19139
-2.97136
-2.75713
-2.5495
-2.34939
-2.15783
-1.97589
-1.80464
-1.64496
-1.49749
-1.36245
-1.23963
-1.12844
-1.02799
-0.937183
-0.85486
-0.779842
-0.710993
-0.64725
-0.587639
-0.531281
-0.477397
-0.425324
-0.374467
-0.324423
-0.274606
-0.225251
-0.174484
-0.126595
-0.0686722
-0.0384988
-9.81071
-9.84284
-9.87654
-9.91113
-9.94567
-9.97949
-10.0122
-10.0436
-10.0733
-10.1013
-10.1272
-10.1507
-10.1715
-10.1893
-10.2039
-10.215
-10.2223
-10.2255
-10.2245
-10.2191
-10.2093
-10.1951
-10.1766
-10.1536
-10.1261
-10.0941
-10.0574
-10.0156
-9.96859
-9.91585
-9.85698
-9.79155