/*--------------------------------*- C++ -*----------------------------------*\
  =========                 |
  \\      /  F ield         | OpenFOAM: The Open Source CFD Toolbox
   \\    /   O peration     | Website:  https://openfoam.org
    \\  /    A nd           | Version:  10
     \\/     M anipulation  |
\*---------------------------------------------------------------------------*/
FoamFile
{
    format      ascii;
    class       surfaceScalarField;
    location    "1800";
    object      phi;
}
// * * * * * * * * * * * * * * * * * * * * * * * * * * * * * * * * * * * * * //

dimensions      [0 3 -1 0 0 0 0];

internalField   nonuniform List<scalar> 
13452
(
6.02918e-05
-2.33246e-08
5.99929e-05
2.98856e-07
5.95878e-05
4.05123e-07
5.91125e-05
4.75353e-07
5.86066e-05
5.05813e-07
5.81238e-05
4.82887e-07
5.76858e-05
4.37939e-07
5.72931e-05
3.92693e-07
5.69402e-05
3.5294e-07
5.66212e-05
3.19021e-07
5.63307e-05
2.90435e-07
5.60643e-05
2.66466e-07
5.5818e-05
2.46306e-07
5.55887e-05
2.29222e-07
5.53741e-05
2.14647e-07
5.51719e-05
2.02166e-07
5.49805e-05
1.91485e-07
5.4798e-05
1.82407e-07
5.46232e-05
1.74819e-07
5.44545e-05
1.68692e-07
5.42905e-05
1.64082e-07
5.41293e-05
1.61154e-07
5.39691e-05
1.60222e-07
5.38072e-05
1.61831e-07
5.36404e-05
1.66891e-07
5.34634e-05
1.76988e-07
5.32683e-05
1.95068e-07
5.30423e-05
2.25957e-07
5.27586e-05
2.83741e-07
5.23854e-05
3.7325e-07
5.1818e-05
5.67334e-07
5.10293e-05
7.88707e-07
1.62936e-06
4.94e-05
6.21472e-05
-1.80229e-07
6.21732e-05
2.72853e-07
6.21948e-05
3.83565e-07
6.22106e-05
4.59569e-07
6.22098e-05
5.06572e-07
6.21787e-05
5.14023e-07
6.21158e-05
5.00845e-07
6.20273e-05
4.81197e-07
6.19208e-05
4.59416e-07
6.18029e-05
4.36952e-07
6.16784e-05
4.14963e-07
6.15506e-05
3.94212e-07
6.14219e-05
3.75014e-07
6.12937e-05
3.57438e-07
6.11669e-05
3.41474e-07
6.10419e-05
3.2709e-07
6.09192e-05
3.14253e-07
6.07986e-05
3.02954e-07
6.06802e-05
2.93217e-07
6.05638e-05
2.85121e-07
6.04491e-05
2.78819e-07
6.03357e-05
2.74565e-07
6.02231e-05
2.72771e-07
6.01109e-05
2.74079e-07
5.99982e-05
2.79512e-07
5.98846e-05
2.90637e-07
5.97692e-05
3.10461e-07
5.96526e-05
3.42578e-07
5.95382e-05
3.9807e-07
5.94315e-05
4.79973e-07
5.93635e-05
6.35313e-07
5.94152e-05
7.3704e-07
1.57218e-06
5.94724e-05
6.36686e-05
-8.74255e-08
6.37272e-05
2.14254e-07
6.37868e-05
3.23936e-07
6.38496e-05
3.96755e-07
6.39036e-05
4.52613e-07
6.39393e-05
4.78333e-07
6.39566e-05
4.83545e-07
6.39583e-05
4.79543e-07
6.39469e-05
4.70792e-07
6.39248e-05
4.59033e-07
6.38941e-05
4.45677e-07
6.38565e-05
4.31803e-07
6.38135e-05
4.18055e-07
6.37661e-05
4.04799e-07
6.37153e-05
3.92278e-07
6.36617e-05
3.80677e-07
6.36058e-05
3.70151e-07
6.35479e-05
3.60848e-07
6.34882e-05
3.52934e-07
6.34267e-05
3.46624e-07
6.33633e-05
3.42205e-07
6.32978e-05
3.40079e-07
6.32297e-05
3.40821e-07
6.31586e-05
3.45272e-07
6.30834e-05
3.54697e-07
6.30031e-05
3.70932e-07
6.29163e-05
3.97204e-07
6.28215e-05
4.37378e-07
6.2719e-05
5.00572e-07
6.26068e-05
5.92207e-07
6.25043e-05
7.37791e-07
6.23427e-05
8.98614e-07
1.36791e-06
6.2547e-05
6.55167e-05
-2.10918e-08
6.55574e-05
1.73565e-07
6.55939e-05
2.8751e-07
6.56341e-05
3.56491e-07
6.56756e-05
4.11102e-07
6.57116e-05
4.42409e-07
6.57402e-05
4.54857e-07
6.5762e-05
4.57835e-07
6.57769e-05
4.558e-07
6.57856e-05
4.50382e-07
6.57885e-05
4.42804e-07
6.57862e-05
4.34088e-07
6.57793e-05
4.24905e-07
6.57685e-05
4.15687e-07
6.5754e-05
4.06757e-07
6.57363e-05
3.98383e-07
6.57156e-05
3.90805e-07
6.56922e-05
3.84258e-07
6.56661e-05
3.79e-07
6.56374e-05
3.75333e-07
6.5606e-05
3.73645e-07
6.55716e-05
3.74445e-07
6.5534e-05
3.78426e-07
6.54927e-05
3.8656e-07
6.54472e-05
4.00241e-07
6.53967e-05
4.2142e-07
6.53407e-05
4.53175e-07
6.52788e-05
4.99283e-07
6.52128e-05
5.66627e-07
6.51445e-05
6.60491e-07
6.50879e-05
7.94362e-07
6.50238e-05
9.62709e-07
1.2529e-06
6.51388e-05
6.74274e-05
8.30936e-09
6.74474e-05
1.53549e-07
6.74703e-05
2.64591e-07
6.74977e-05
3.29148e-07
6.753e-05
3.78803e-07
6.75616e-05
4.10818e-07
6.75898e-05
4.2657e-07
6.76145e-05
4.33223e-07
6.76353e-05
4.34911e-07
6.76525e-05
4.33199e-07
6.76661e-05
4.29192e-07
6.76764e-05
4.23849e-07
6.76835e-05
4.17834e-07
6.76875e-05
4.11592e-07
6.76888e-05
4.05468e-07
6.76875e-05
3.99759e-07
6.76835e-05
3.94745e-07
6.76771e-05
3.90702e-07
6.76681e-05
3.87936e-07
6.76567e-05
3.86804e-07
6.76426e-05
3.87749e-07
6.76257e-05
3.91341e-07
6.76058e-05
3.9833e-07
6.75826e-05
4.09729e-07
6.75559e-05
4.26928e-07
6.75255e-05
4.51793e-07
6.74917e-05
4.86995e-07
6.74553e-05
5.35732e-07
6.74191e-05
6.02757e-07
6.73877e-05
6.91887e-07
6.73723e-05
8.09772e-07
6.73781e-05
9.56951e-07
1.14985e-06
6.74812e-05
6.93698e-05
2.25506e-08
6.93821e-05
1.41237e-07
6.9403e-05
2.43666e-07
6.94264e-05
3.05742e-07
6.94534e-05
3.51829e-07
6.94807e-05
3.83565e-07
6.95061e-05
4.01167e-07
6.95293e-05
4.09987e-07
6.95504e-05
4.13853e-07
6.95692e-05
4.14373e-07
6.95858e-05
4.12603e-07
6.96002e-05
4.09456e-07
6.96124e-05
4.05585e-07
6.96226e-05
4.01443e-07
6.96307e-05
3.97382e-07
6.96367e-05
3.93714e-07
6.96407e-05
3.90735e-07
6.96427e-05
3.88744e-07
6.96425e-05
3.8807e-07
6.96402e-05
3.89097e-07
6.96357e-05
3.9229e-07
6.96288e-05
3.98238e-07
6.96194e-05
4.07692e-07
6.96075e-05
4.21629e-07
6.95931e-05
4.41327e-07
6.95765e-05
4.6842e-07
6.95585e-05
5.05035e-07
6.95406e-05
5.53576e-07
6.95264e-05
6.17022e-07
6.95207e-05
6.97543e-07
6.95329e-05
7.97609e-07
6.95736e-05
9.16193e-07
1.04712e-06
6.96764e-05
7.13587e-05
3.01959e-08
7.1369e-05
1.30974e-07
7.13892e-05
2.23461e-07
7.1411e-05
2.83873e-07
7.14351e-05
3.27754e-07
7.14597e-05
3.59e-07
7.1483e-05
3.77831e-07
7.15048e-05
3.88214e-07
7.1525e-05
3.93614e-07
7.15437e-05
3.95694e-07
7.15608e-05
3.95496e-07
7.15764e-05
3.93898e-07
7.15904e-05
3.91559e-07
7.16029e-05
3.88941e-07
7.16139e-05
3.86412e-07
7.16233e-05
3.84295e-07
7.16311e-05
3.82896e-07
7.16373e-05
3.82526e-07
7.16419e-05
3.83525e-07
7.16447e-05
3.86282e-07
7.16457e-05
3.91263e-07
7.16449e-05
3.99038e-07
7.16423e-05
4.10316e-07
7.1638e-05
4.25977e-07
7.16322e-05
4.47118e-07
7.16255e-05
4.75055e-07
7.16192e-05
5.11346e-07
7.16152e-05
5.5759e-07
7.16169e-05
6.15386e-07
7.16289e-05
6.85494e-07
7.16587e-05
7.67801e-07
7.17157e-05
8.59187e-07
9.48384e-07
7.18144e-05
7.34018e-05
3.366e-08
7.34111e-05
1.21705e-07
7.34297e-05
2.04854e-07
7.34504e-05
2.63138e-07
7.34729e-05
3.05286e-07
7.3496e-05
3.35906e-07
7.35182e-05
3.55606e-07
7.35391e-05
3.67295e-07
7.35588e-05
3.73987e-07
7.35771e-05
3.7735e-07
7.35942e-05
3.78422e-07
7.361e-05
3.7806e-07
7.36247e-05
3.76926e-07
7.36381e-05
3.75502e-07
7.36503e-05
3.74171e-07
7.36614e-05
3.73267e-07
7.36712e-05
3.73108e-07
7.36797e-05
3.7401e-07
7.36869e-05
3.76314e-07
7.36928e-05
3.80401e-07
7.36973e-05
3.86716e-07
7.37006e-05
3.95788e-07
7.37026e-05
4.08246e-07
7.37038e-05
4.24841e-07
7.37044e-05
4.46447e-07
7.37054e-05
4.7404e-07
7.37081e-05
5.08649e-07
7.37146e-05
5.51164e-07
7.37278e-05
6.02175e-07
7.37519e-05
6.61396e-07
7.37924e-05
7.27276e-07
7.38559e-05
7.95705e-07
8.56125e-07
7.39481e-05
7.55017e-05
3.44589e-08
7.55102e-05
1.13138e-07
7.55271e-05
1.87981e-07
7.55468e-05
2.4348e-07
7.55681e-05
2.8399e-07
7.55901e-05
3.13856e-07
7.56116e-05
3.34083e-07
7.56321e-05
3.46835e-07
7.56514e-05
3.54649e-07
7.56697e-05
3.59138e-07
7.56868e-05
3.61327e-07
7.57028e-05
3.62044e-07
7.57177e-05
3.61949e-07
7.57317e-05
3.61538e-07
7.57447e-05
3.61206e-07
7.57566e-05
3.61299e-07
7.57676e-05
3.6214e-07
7.57776e-05
3.64046e-07
7.57865e-05
3.67351e-07
7.57945e-05
3.72418e-07
7.58016e-05
3.79656e-07
7.58078e-05
3.89534e-07
7.58135e-05
4.02584e-07
7.58189e-05
4.19403e-07
7.58247e-05
4.40638e-07
7.58318e-05
4.66942e-07
7.58416e-05
4.98887e-07
7.5856e-05
5.36806e-07
7.58776e-05
5.80588e-07
7.59097e-05
6.29289e-07
7.59562e-05
6.8072e-07
7.60212e-05
7.30748e-07
7.70996e-07
7.61063e-05
7.76603e-05
3.37152e-08
7.76684e-05
1.05026e-07
7.76838e-05
1.72628e-07
7.77023e-05
2.24925e-07
7.77226e-05
2.63754e-07
7.77437e-05
2.92741e-07
7.77646e-05
3.13155e-07
7.77848e-05
3.26687e-07
7.7804e-05
3.35433e-07
7.78222e-05
3.40897e-07
7.78395e-05
3.44077e-07
7.78558e-05
3.45763e-07
7.78711e-05
3.46599e-07
7.78856e-05
3.47084e-07
7.78992e-05
3.47622e-07
7.79119e-05
3.48561e-07
7.79238e-05
3.50224e-07
7.79349e-05
3.52925e-07
7.79453e-05
3.5698e-07
7.7955e-05
3.62727e-07
7.79641e-05
3.70528e-07
7.79729e-05
3.8078e-07
7.79816e-05
3.93907e-07
7.79906e-05
4.10352e-07
7.80007e-05
4.3055e-07
7.80128e-05
4.54865e-07
7.80281e-05
4.83513e-07
7.80485e-05
5.16413e-07
7.80761e-05
5.53017e-07
7.81134e-05
5.92043e-07
7.81629e-05
6.31186e-07
7.82268e-05
6.66812e-07
6.92714e-07
7.83051e-05
7.98799e-05
3.213e-08
7.98877e-05
9.72354e-08
7.99018e-05
1.58563e-07
7.99192e-05
2.07475e-07
7.99385e-05
2.44512e-07
7.99587e-05
2.72496e-07
7.99791e-05
2.92804e-07
7.99989e-05
3.06831e-07
8.0018e-05
3.16297e-07
8.00364e-05
3.22571e-07
8.00538e-05
3.26603e-07
8.00705e-05
3.29142e-07
8.00863e-05
3.30804e-07
8.01013e-05
3.32083e-07
8.01155e-05
3.33379e-07
8.0129e-05
3.35037e-07
8.01419e-05
3.37375e-07
8.01541e-05
3.40691e-07
8.01658e-05
3.45281e-07
8.01771e-05
3.51447e-07
8.01881e-05
3.59498e-07
8.01992e-05
3.69752e-07
8.02105e-05
3.82527e-07
8.02228e-05
3.98123e-07
8.02365e-05
4.16782e-07
8.02528e-05
4.3864e-07
8.02726e-05
4.63644e-07
8.02976e-05
4.9144e-07
8.03294e-05
5.21244e-07
8.03697e-05
5.51675e-07
8.04203e-05
5.80599e-07
8.04821e-05
6.05066e-07
6.20617e-07
8.05542e-05
8.21625e-05
3.01145e-08
8.217e-05
8.97259e-08
8.2183e-05
1.45581e-07
8.21994e-05
1.91073e-07
8.22177e-05
2.26194e-07
8.22371e-05
2.53058e-07
8.22569e-05
2.73017e-07
8.22765e-05
2.87274e-07
8.22955e-05
2.97248e-07
8.23139e-05
3.04155e-07
8.23316e-05
3.08887e-07
8.23486e-05
3.12149e-07
8.23649e-05
3.14524e-07
8.23805e-05
3.16486e-07
8.23955e-05
3.18426e-07
8.24098e-05
3.2068e-07
8.24237e-05
3.23549e-07
8.2437e-05
3.27314e-07
8.24501e-05
3.32242e-07
8.24629e-05
3.38593e-07
8.24758e-05
3.4662e-07
8.2489e-05
3.56565e-07
8.25029e-05
3.68644e-07
8.2518e-05
3.83027e-07
8.2535e-05
3.99802e-07
8.25547e-05
4.1893e-07
8.25781e-05
4.40174e-07
8.26066e-05
4.63022e-07
8.26412e-05
4.86598e-07
8.26833e-05
5.09577e-07
8.27338e-05
5.30129e-07
8.27929e-05
5.45978e-07
5.53963e-07
8.28595e-05
8.451e-05
2.79079e-08
8.45172e-05
8.24924e-08
8.45293e-05
1.33502e-07
8.45447e-05
1.7563e-07
8.45622e-05
2.08725e-07
8.45809e-05
2.34357e-07
8.46002e-05
2.53767e-07
8.46194e-05
2.68018e-07
8.46384e-05
2.78291e-07
8.46569e-05
2.85653e-07
8.46748e-05
2.9093e-07
8.46922e-05
2.94777e-07
8.4709e-05
2.97738e-07
8.47252e-05
3.00263e-07
8.47409e-05
3.02727e-07
8.47562e-05
3.05447e-07
8.4771e-05
3.08706e-07
8.47856e-05
3.12759e-07
8.48e-05
3.1784e-07
8.48144e-05
3.24166e-07
8.48291e-05
3.31934e-07
8.48443e-05
3.41311e-07
8.48605e-05
3.52424e-07
8.48782e-05
3.65337e-07
8.4898e-05
3.80018e-07
8.49206e-05
3.96301e-07
8.4947e-05
4.1384e-07
8.4978e-05
4.32051e-07
8.50145e-05
4.50066e-07
8.50574e-05
4.66703e-07
8.5107e-05
4.80464e-07
8.51633e-05
4.8966e-07
4.92045e-07
8.52253e-05
8.69244e-05
2.56457e-08
8.69314e-05
7.55367e-08
8.69427e-05
1.22177e-07
8.69573e-05
1.61043e-07
8.6974e-05
1.92028e-07
8.6992e-05
2.16321e-07
8.70108e-05
2.35011e-07
8.70298e-05
2.49046e-07
8.70486e-05
2.59422e-07
8.70672e-05
2.67067e-07
8.70854e-05
2.72732e-07
8.71032e-05
2.7702e-07
8.71205e-05
2.80436e-07
8.71373e-05
2.83399e-07
8.71538e-05
2.8626e-07
8.71699e-05
2.89315e-07
8.71858e-05
2.92821e-07
8.72016e-05
2.97007e-07
8.72174e-05
3.02071e-07
8.72333e-05
3.08185e-07
8.72498e-05
3.15493e-07
8.7267e-05
3.24096e-07
8.72854e-05
3.34047e-07
8.73054e-05
3.45324e-07
8.73276e-05
3.57808e-07
8.73526e-05
3.71256e-07
8.73812e-05
3.85266e-07
8.7414e-05
3.99244e-07
8.74517e-05
4.12392e-07
8.74947e-05
4.23701e-07
8.75432e-05
4.31995e-07
8.75968e-05
4.36047e-07
4.34255e-07
8.76546e-05
8.94078e-05
2.3401e-08
8.94145e-05
6.8856e-08
8.94252e-05
1.11485e-07
8.9439e-05
1.47204e-07
8.9455e-05
1.76021e-07
8.94725e-05
1.98874e-07
8.94908e-05
2.16695e-07
8.95095e-05
2.30329e-07
8.95283e-05
2.40625e-07
8.9547e-05
2.48386e-07
8.95654e-05
2.54285e-07
8.95836e-05
2.58873e-07
8.96014e-05
2.62609e-07
8.96189e-05
2.65882e-07
8.96362e-05
2.69012e-07
8.96532e-05
2.7227e-07
8.96701e-05
2.75888e-07
8.96871e-05
2.80061e-07
8.97042e-05
2.84952e-07
8.97217e-05
2.90694e-07
8.97398e-05
2.97378e-07
8.97589e-05
3.05053e-07
8.97792e-05
3.13709e-07
8.98013e-05
3.23263e-07
8.98255e-05
3.33539e-07
8.98525e-05
3.44252e-07
8.98828e-05
3.54985e-07
8.99169e-05
3.65179e-07
8.99551e-05
3.74133e-07
8.99978e-05
3.81019e-07
9.00449e-05
3.84933e-07
9.00959e-05
3.85009e-07
3.80084e-07
9.01501e-05
9.19621e-05
2.12096e-08
9.19685e-05
6.24399e-08
9.19786e-05
1.01325e-07
9.19918e-05
1.34009e-07
9.20072e-05
1.6062e-07
9.20242e-05
1.81941e-07
9.20421e-05
1.98762e-07
9.20606e-05
2.1183e-07
9.20793e-05
2.21875e-07
9.20981e-05
2.29591e-07
9.21169e-05
2.35574e-07
9.21354e-05
2.40321e-07
9.21538e-05
2.44246e-07
9.2172e-05
2.477e-07
9.219e-05
2.50974e-07
9.2208e-05
2.5431e-07
9.22259e-05
2.5791e-07
9.22441e-05
2.61937e-07
9.22625e-05
2.66523e-07
9.22814e-05
2.71758e-07
9.23011e-05
2.77693e-07
9.23218e-05
2.84333e-07
9.23439e-05
2.91619e-07
9.23678e-05
2.99429e-07
9.23937e-05
3.07555e-07
9.24223e-05
3.15697e-07
9.24538e-05
3.23455e-07
9.24887e-05
3.30325e-07
9.25271e-05
3.35714e-07
9.25692e-05
3.38961e-07
9.26147e-05
3.3939e-07
9.26633e-05
3.36396e-07
3.29126e-07
9.27143e-05
9.45893e-05
1.9086e-08
9.45955e-05
5.62703e-08
9.46052e-05
9.16146e-08
9.46178e-05
1.2136e-07
9.46327e-05
1.4574e-07
9.46492e-05
1.65445e-07
9.46668e-05
1.81147e-07
9.46851e-05
1.93501e-07
9.47039e-05
2.0314e-07
9.47228e-05
2.10658e-07
9.47418e-05
2.16582e-07
9.47608e-05
2.2135e-07
9.47797e-05
2.25335e-07
9.47985e-05
2.28847e-07
9.48174e-05
2.32144e-07
9.48362e-05
2.35438e-07
9.48553e-05
2.38902e-07
9.48745e-05
2.42668e-07
9.48942e-05
2.46835e-07
9.49145e-05
2.51459e-07
9.49356e-05
2.56557e-07
9.49579e-05
2.62098e-07
9.49815e-05
2.67993e-07
9.50068e-05
2.74093e-07
9.50342e-05
2.8018e-07
9.5064e-05
2.85959e-07
9.50963e-05
2.91065e-07
9.51316e-05
2.95059e-07
9.51699e-05
2.97455e-07
9.52111e-05
2.9774e-07
9.52551e-05
2.95413e-07
9.53014e-05
2.90065e-07
2.81057e-07
9.53495e-05
9.72916e-05
1.70326e-08
9.72975e-05
5.03238e-08
9.73069e-05
8.22794e-08
9.73191e-05
1.09166e-07
9.73335e-05
1.31297e-07
9.73496e-05
1.49313e-07
9.7367e-05
1.63788e-07
9.73852e-05
1.75294e-07
9.7404e-05
1.8438e-07
9.74231e-05
1.91558e-07
9.74424e-05
1.97284e-07
9.74618e-05
2.01943e-07
9.74812e-05
2.05863e-07
9.75008e-05
2.09314e-07
9.75204e-05
2.12522e-07
9.75402e-05
2.15666e-07
9.75602e-05
2.1889e-07
9.75806e-05
2.22296e-07
9.76014e-05
2.25954e-07
9.7623e-05
2.29893e-07
9.76455e-05
2.34101e-07
9.7669e-05
2.3852e-07
9.7694e-05
2.43043e-07
9.77206e-05
2.47512e-07
9.7749e-05
2.51708e-07
9.77796e-05
2.55359e-07
9.78126e-05
2.5814e-07
9.78479e-05
2.59684e-07
9.78858e-05
2.59601e-07
9.7926e-05
2.575e-07
9.79684e-05
2.53019e-07
9.80126e-05
2.45888e-07
2.35619e-07
9.8058e-05
0.000100071
1.50453e-08
0.000100077
4.45732e-08
0.000100086
7.32541e-08
0.000100098
9.73422e-08
0.000100112
1.17211e-07
0.000100128
1.33469e-07
0.000100145
1.46616e-07
0.000100163
1.57153e-07
0.000100182
1.65553e-07
0.000100201
1.72257e-07
0.000100221
1.77655e-07
0.000100241
1.82082e-07
0.000100261
1.85819e-07
0.000100281
1.891e-07
0.000100301
1.92114e-07
0.000100322
1.95012e-07
0.000100343
1.97906e-07
0.000100364
2.00874e-07
0.000100386
2.03959e-07
0.000100409
2.07165e-07
0.000100433
2.1046e-07
0.000100457
2.13769e-07
0.000100483
2.16978e-07
0.000100511
2.19924e-07
0.00010054
2.22404e-07
0.000100572
2.24173e-07
0.000100605
2.24953e-07
0.00010064
2.24443e-07
0.000100677
2.22337e-07
0.000100716
2.18342e-07
0.000100757
2.12206e-07
0.000100799
2.03753e-07
1.92608e-07
0.000100842
0.00010293
1.31168e-08
0.000102936
3.89894e-08
0.000102944
6.44794e-08
0.000102956
8.58118e-08
0.00010297
1.03401e-07
0.000102985
1.17839e-07
0.000103002
1.29567e-07
0.000103021
1.39022e-07
0.000103039
1.46614e-07
0.000103059
1.52718e-07
0.000103079
1.57668e-07
0.000103099
1.61747e-07
0.00010312
1.65194e-07
0.000103141
1.68203e-07
0.000103162
1.70932e-07
0.000103184
1.73499e-07
0.000103205
1.75992e-07
0.000103228
1.78462e-07
0.000103251
1.80931e-07
0.000103275
1.83383e-07
0.000103299
1.85772e-07
0.000103325
1.88015e-07
0.000103352
1.89992e-07
0.00010338
1.9155e-07
0.00010341
1.92505e-07
0.000103442
1.92642e-07
0.000103475
1.9173e-07
0.00010351
1.89528e-07
0.000103547
1.85801e-07
0.000103585
1.80336e-07
0.000103624
1.72957e-07
0.000103664
1.63564e-07
1.51859e-07
0.000103705
0.000105871
1.12379e-08
0.000105876
3.35426e-08
0.000105885
5.58999e-08
0.000105896
7.45024e-08
0.00010591
8.97924e-08
0.000105925
1.0235e-07
0.000105942
1.12572e-07
0.00010596
1.20842e-07
0.000105979
1.27512e-07
0.000105999
1.32903e-07
0.00010602
1.37293e-07
0.00010604
1.40919e-07
0.000106062
1.43977e-07
0.000106083
1.46625e-07
0.000106105
1.48988e-07
0.000106127
1.51158e-07
0.00010615
1.53194e-07
0.000106174
1.55127e-07
0.000106198
1.56959e-07
0.000106222
1.58661e-07
0.000106248
1.60176e-07
0.000106274
1.61417e-07
0.000106302
1.62268e-07
0.000106331
1.6259e-07
0.000106361
1.62217e-07
0.000106393
1.60969e-07
0.000106426
1.58657e-07
0.000106461
1.55093e-07
0.000106496
1.50099e-07
0.000106533
1.43525e-07
0.000106571
1.35255e-07
0.000106609
1.25238e-07
1.13236e-07
0.000106648
0.000108895
9.39924e-09
0.000108901
2.82039e-08
0.000108909
4.74647e-08
0.00010892
6.33471e-08
0.000108934
7.63109e-08
0.000108949
8.69294e-08
0.000108966
9.55636e-08
0.000108984
1.02552e-07
0.000109004
1.08198e-07
0.000109024
1.1277e-07
0.000109045
1.16498e-07
0.000109066
1.19576e-07
0.000109088
1.22158e-07
0.00010911
1.24369e-07
0.000109133
1.26301e-07
0.000109156
1.28019e-07
0.00010918
1.2956e-07
0.000109204
1.30936e-07
0.000109229
1.32131e-07
0.000109254
1.33108e-07
0.00010928
1.33802e-07
0.000109308
1.34127e-07
0.000109336
1.33975e-07
0.000109365
1.33219e-07
0.000109396
1.31719e-07
0.000109428
1.29325e-07
0.00010946
1.25886e-07
0.000109494
1.21256e-07
0.000109529
1.15309e-07
0.000109565
1.0794e-07
0.000109601
9.90768e-08
0.000109637
8.87027e-08
7.66275e-08
0.000109674
0.000112006
7.59147e-09
0.000112012
2.29453e-08
0.00011202
3.91259e-08
0.000112031
5.22826e-08
0.000112044
6.28858e-08
0.00011206
7.15038e-08
0.000112077
7.84711e-08
0.000112095
8.40874e-08
0.000112115
8.86137e-08
0.000112135
9.22722e-08
0.000112157
9.52487e-08
0.000112179
9.76939e-08
0.000112201
9.97266e-08
0.000112224
1.01436e-07
0.000112247
1.02887e-07
0.000112271
1.04117e-07
0.000112296
1.05143e-07
0.000112321
1.05958e-07
0.000112346
1.06536e-07
0.000112373
1.0683e-07
0.0001124
1.06773e-07
0.000112427
1.06283e-07
0.000112456
1.0526e-07
0.000112486
1.03594e-07
0.000112516
1.01165e-07
0.000112548
9.78526e-08
0.00011258
9.3538e-08
0.000112613
8.81137e-08
0.000112647
8.14888e-08
0.000112681
7.35959e-08
0.000112716
6.43953e-08
0.000112751
5.38934e-08
4.19357e-08
0.000112786
0.000115206
5.8058e-09
0.000115211
1.77413e-08
0.00011522
3.08399e-08
0.000115231
4.12497e-08
0.000115244
4.94478e-08
0.00011526
5.60007e-08
0.000115277
6.12228e-08
0.000115296
6.5382e-08
0.000115316
6.87007e-08
0.000115337
7.13601e-08
0.000115358
7.3505e-08
0.000115381
7.52469e-08
0.000115404
7.66689e-08
0.000115427
7.78285e-08
0.000115451
7.87612e-08
0.000115476
7.94823e-08
0.000115501
7.99885e-08
0.000115527
8.02586e-08
0.000115553
8.02554e-08
0.00011558
7.99264e-08
0.000115608
7.92045e-08
0.000115636
7.80113e-08
0.000115665
7.62573e-08
0.000115695
7.38476e-08
0.000115725
7.06831e-08
0.000115756
6.66679e-08
0.000115788
6.17111e-08
0.000115821
5.57351e-08
0.000115853
4.86777e-08
0.000115887
4.04992e-08
0.00011592
3.11822e-08
0.000115953
2.07497e-08
9.0743e-09
0.000115986
0.000118498
4.03469e-09
0.000118503
1.25693e-08
0.000118511
2.25668e-08
0.000118522
3.01924e-08
0.000118536
3.59289e-08
0.000118551
4.03453e-08
0.000118569
4.37429e-08
0.000118588
4.6363e-08
0.000118608
4.83931e-08
0.00011863
4.99775e-08
0.000118652
5.12225e-08
0.000118675
5.22027e-08
0.000118699
5.29666e-08
0.000118723
5.35415e-08
0.000118748
5.39361e-08
0.000118773
5.41435e-08
0.000118799
5.41423e-08
0.000118825
5.38982e-08
0.000118852
5.33654e-08
0.00011888
5.24865e-08
0.000118908
5.1196e-08
0.000118936
4.94194e-08
0.000118965
4.70788e-08
0.000118995
4.40916e-08
0.000119025
4.0379e-08
0.000119056
3.58637e-08
0.000119087
3.04801e-08
0.000119119
2.41715e-08
0.000119151
1.69003e-08
0.000119183
8.64463e-09
0.000119214
-5.94413e-10
0.000119246
-1.07863e-08
-2.20337e-08
0.000119277
0.000121883
2.27226e-09
0.000121888
7.41206e-09
0.000121897
1.42734e-08
0.000121908
1.9059e-08
0.000121921
2.22615e-08
0.000121937
2.44602e-08
0.000121955
2.59507e-08
0.000121974
2.6951e-08
0.000121995
2.76177e-08
0.000122017
2.80602e-08
0.00012204
2.83486e-08
0.000122064
2.85219e-08
0.000122088
2.85952e-08
0.000122113
2.8566e-08
0.000122139
2.84178e-08
0.000122165
2.81223e-08
0.000122191
2.76415e-08
0.000122218
2.69294e-08
0.000122245
2.59314e-08
0.000122273
2.45882e-08
0.000122302
2.2834e-08
0.000122331
2.06009e-08
0.00012236
1.78184e-08
0.000122389
1.44187e-08
0.00012242
1.03358e-08
0.00012245
5.51236e-09
0.00012248
-1.0175e-10
0.000122511
-6.5425e-09
0.000122542
-1.38335e-08
0.000122573
-2.19797e-08
0.000122603
-3.09719e-08
0.000122633
-4.07713e-08
-5.14649e-08
0.000122662
0.000125365
5.15851e-10
0.00012537
2.26011e-09
0.000125379
5.93457e-09
0.00012539
7.80219e-09
0.000125404
8.3769e-09
0.00012542
8.26289e-09
0.000125438
7.75698e-09
0.000125458
7.05697e-09
0.000125479
6.29024e-09
0.000125502
5.53323e-09
0.000125526
4.8206e-09
0.00012555
4.15562e-09
0.000125575
3.52049e-09
0.000125601
2.88356e-09
0.000125627
2.2034e-09
0.000125654
1.43139e-09
0.000125681
5.13934e-10
0.000125708
-6.07277e-10
0.000125736
-1.99278e-09
0.000125764
-3.70599e-09
0.000125793
-5.81079e-09
0.000125822
-8.37106e-09
0.000125851
-1.14486e-08
0.000125881
-1.51017e-08
0.000125911
-1.93827e-08
0.00012594
-2.43364e-08
0.00012597
-2.99979e-08
0.000126
-3.63905e-08
0.00012603
-4.35247e-08
0.000126059
-5.13969e-08
0.000126088
-5.99895e-08
0.000126117
-6.92622e-08
-7.92861e-08
0.000126145
0.000128947
-1.23201e-09
0.000128952
-2.88158e-09
0.00012896
-2.46037e-09
0.000128972
-3.61927e-09
0.000128986
-5.7959e-09
0.000129003
-8.33756e-09
0.000129021
-1.09387e-08
0.000129042
-1.3422e-08
0.000129064
-1.56882e-08
0.000129087
-1.7693e-08
0.000129111
-1.94382e-08
0.000129136
-2.09573e-08
0.000129162
-2.23022e-08
0.000129189
-2.35338e-08
0.000129216
-2.47183e-08
0.000129243
-2.59248e-08
0.000129271
-2.72222e-08
0.000129299
-2.86801e-08
0.000129327
-3.03657e-08
0.000129356
-3.23459e-08
0.000129385
-3.46831e-08
0.000129414
-3.74382e-08
0.000129443
-4.06661e-08
0.000129472
-4.44172e-08
0.000129502
-4.87334e-08
0.000129531
-5.36499e-08
0.00012956
-5.91905e-08
0.000129589
-6.53694e-08
0.000129618
-7.21885e-08
0.000129646
-7.96383e-08
0.000129674
-8.76973e-08
0.000129701
-9.63256e-08
-1.05583e-07
0.000129727
0.000132631
-2.95867e-09
0.000132636
-7.98261e-09
0.000132644
-1.08988e-08
0.000132656
-1.52384e-08
0.00013267
-2.03335e-08
0.000132688
-2.54448e-08
0.000132707
-3.02537e-08
0.000132728
-3.46076e-08
0.000132751
-3.84356e-08
0.000132775
-4.17271e-08
0.0001328
-4.45234e-08
0.000132826
-4.68979e-08
0.000132853
-4.89377e-08
0.00013288
-5.07342e-08
0.000132907
-5.23793e-08
0.000132935
-5.39621e-08
0.000132964
-5.55685e-08
0.000132992
-5.72776e-08
0.000133021
-5.91659e-08
0.00013305
-6.13008e-08
0.000133079
-6.37478e-08
0.000133108
-6.65626e-08
0.000133137
-6.97978e-08
0.000133167
-7.34952e-08
0.000133196
-7.76918e-08
0.000133224
-8.24128e-08
0.000133253
-8.76767e-08
0.000133281
-9.34894e-08
0.000133309
-9.9849e-08
0.000133336
-1.06741e-07
0.000133362
-1.14142e-07
0.000133388
-1.22012e-07
-1.30402e-07
0.000133413
0.00013642
-4.6322e-09
0.000136425
-1.29641e-08
0.000136433
-1.93284e-08
0.000136445
-2.70765e-08
0.00013646
-3.53214e-08
0.000136478
-4.31822e-08
0.000136498
-5.03324e-08
0.00013652
-5.66507e-08
0.000136544
-6.20954e-08
0.000136569
-6.66949e-08
0.000136595
-7.05395e-08
0.000136622
-7.37487e-08
0.000136649
-7.64484e-08
0.000136677
-7.87618e-08
0.000136706
-8.08076e-08
0.000136734
-8.26959e-08
0.000136763
-8.4528e-08
0.000136792
-8.63954e-08
0.000136822
-8.838e-08
0.000136851
-9.05553e-08
0.00013688
-9.29855e-08
0.000136909
-9.57273e-08
0.000136938
-9.8828e-08
0.000136967
-1.02327e-07
0.000136996
-1.06255e-07
0.000137024
-1.10634e-07
0.000137052
-1.15475e-07
0.000137079
-1.20782e-07
0.000137106
-1.26549e-07
0.000137132
-1.32763e-07
0.000137157
-1.39399e-07
0.000137181
-1.46424e-07
-1.53881e-07
0.000137205
0.000140317
-6.17986e-09
0.000140322
-1.7652e-08
0.00014033
-2.76316e-08
0.000140342
-3.9147e-08
0.000140358
-5.08592e-08
0.000140376
-6.1691e-08
0.000140397
-7.13469e-08
0.000140421
-7.97473e-08
0.000140445
-8.68731e-08
0.000140471
-9.27974e-08
0.000140499
-9.76715e-08
0.000140526
-1.01672e-07
0.000140555
-1.04968e-07
0.000140584
-1.07721e-07
0.000140613
-1.10079e-07
0.000140643
-1.12176e-07
0.000140672
-1.14129e-07
0.000140702
-1.16043e-07
0.000140732
-1.18005e-07
0.000140761
-1.20094e-07
0.000140791
-1.22377e-07
0.00014082
-1.24909e-07
0.000140849
-1.27736e-07
0.000140877
-1.30896e-07
0.000140905
-1.34414e-07
0.000140933
-1.3831e-07
0.00014096
-1.42593e-07
0.000140987
-1.47265e-07
0.000141012
-1.52317e-07
0.000141037
-1.57735e-07
0.000141061
-1.63496e-07
0.000141085
-1.69566e-07
-1.75978e-07
0.000141107
0.000144326
-7.44307e-09
0.00014433
-2.16764e-08
0.000144338
-3.55726e-08
0.00014435
-5.14683e-08
0.000144366
-6.71089e-08
0.000144386
-8.11713e-08
0.000144408
-9.34829e-08
0.000144432
-1.04041e-07
0.000144458
-1.12866e-07
0.000144486
-1.20101e-07
0.000144514
-1.25975e-07
0.000144543
-1.30719e-07
0.000144573
-1.34553e-07
0.000144603
-1.37673e-07
0.000144633
-1.4026e-07
0.000144663
-1.4247e-07
0.000144693
-1.44441e-07
0.000144724
-1.46286e-07
0.000144754
-1.48106e-07
0.000144784
-1.49981e-07
0.000144813
-1.51984e-07
0.000144842
-1.5417e-07
0.000144871
-1.56585e-07
0.0001449
-1.59265e-07
0.000144927
-1.62236e-07
0.000144955
-1.65515e-07
0.000144981
-1.6911e-07
0.000145007
-1.73023e-07
0.000145032
-1.77249e-07
0.000145056
-1.81774e-07
0.000145079
-1.86582e-07
0.000145101
-1.9165e-07
-1.97011e-07
0.000145122
0.000148449
-8.06109e-09
0.000148451
-2.43094e-08
0.000148458
-4.27189e-08
0.000148471
-6.39591e-08
0.000148488
-8.42266e-08
0.000148509
-1.02038e-07
0.000148533
-1.17369e-07
0.000148559
-1.30228e-07
0.000148587
-1.4071e-07
0.000148616
-1.49117e-07
0.000148646
-1.55813e-07
0.000148676
-1.6112e-07
0.000148707
-1.6531e-07
0.000148738
-1.6863e-07
0.000148769
-1.7129e-07
0.0001488
-1.73471e-07
0.000148831
-1.75323e-07
0.000148861
-1.76972e-07
0.000148892
-1.78522e-07
0.000148922
-1.80062e-07
0.000148952
-1.81661e-07
0.000148981
-1.83379e-07
0.000149009
-1.85262e-07
0.000149037
-1.87343e-07
0.000149065
-1.89649e-07
0.000149092
-1.92197e-07
0.000149117
-1.94995e-07
0.000149142
-1.98045e-07
0.000149167
-2.01342e-07
0.00014919
-2.04873e-07
0.000149212
-2.08619e-07
0.000149233
-2.12549e-07
-2.16689e-07
0.000149252
0.000152688
-7.02028e-09
0.000152688
-2.41072e-08
0.000152694
-4.88383e-08
0.000152707
-7.66829e-08
0.000152724
-1.01772e-07
0.000152746
-1.23495e-07
0.000152771
-1.42202e-07
0.000152798
-1.57711e-07
0.000152827
-1.70104e-07
0.000152858
-1.7984e-07
0.00015289
-1.87426e-07
0.000152922
-1.93278e-07
0.000152954
-1.97752e-07
0.000152987
-2.01156e-07
0.000153019
-2.0375e-07
0.000153052
-2.05746e-07
0.000153084
-2.07317e-07
0.000153115
-2.08603e-07
0.000153146
-2.09721e-07
0.000153177
-2.10763e-07
0.000153207
-2.11804e-07
0.000153237
-2.12903e-07
0.000153266
-2.14108e-07
0.000153294
-2.15454e-07
0.000153321
-2.16965e-07
0.000153348
-2.18661e-07
0.000153373
-2.2055e-07
0.000153398
-2.22638e-07
0.000153421
-2.24921e-07
0.000153444
-2.27396e-07
0.000153465
-2.30056e-07
0.000153486
-2.32893e-07
-2.35931e-07
0.000153505
0.000157046
-1.84536e-09
0.000157039
-1.67726e-08
0.000157044
-5.34972e-08
0.000157059
-9.22518e-08
0.000157081
-1.23753e-07
0.000157107
-1.49487e-07
0.000157136
-1.70798e-07
0.000157166
-1.87867e-07
0.000157197
-2.01208e-07
0.000157229
-2.11578e-07
0.000157261
-2.19592e-07
0.000157293
-2.25705e-07
0.000157326
-2.30306e-07
0.000157358
-2.33729e-07
0.000157391
-2.36249e-07
0.000157423
-2.38084e-07
0.000157455
-2.39412e-07
0.000157487
-2.40378e-07
0.000157519
-2.411e-07
0.000157549
-2.41672e-07
0.00015758
-2.42171e-07
0.00015761
-2.42659e-07
0.000157639
-2.43182e-07
0.000157667
-2.43778e-07
0.000157695
-2.44474e-07
0.000157721
-2.45288e-07
0.000157747
-2.46234e-07
0.000157771
-2.47315e-07
0.000157795
-2.48532e-07
0.000157818
-2.49877e-07
0.000157839
-2.51337e-07
0.000157859
-2.52884e-07
-2.54546e-07
0.000157877
0.000161526
1.0555e-08
0.000161506
3.40175e-09
0.000161499
-4.67705e-08
0.000161505
-9.77581e-08
0.000161521
-1.40333e-07
0.000161547
-1.75555e-07
0.00016158
-2.03204e-07
0.000161616
-2.23727e-07
0.000161653
-2.38768e-07
0.000161691
-2.49881e-07
0.00016173
-2.58066e-07
0.000161768
-2.64007e-07
0.000161806
-2.68247e-07
0.000161844
-2.71216e-07
0.000161881
-2.7323e-07
0.000161917
-2.74527e-07
0.000161953
-2.75291e-07
0.000161988
-2.75664e-07
0.000162023
-2.7576e-07
0.000162057
-2.75669e-07
0.00016209
-2.75459e-07
0.000162123
-2.75189e-07
0.000162154
-2.749e-07
0.000162185
-2.74628e-07
0.000162215
-2.74399e-07
0.000162244
-2.74233e-07
0.000162272
-2.74142e-07
0.000162299
-2.74137e-07
0.000162325
-2.74223e-07
0.000162349
-2.74408e-07
0.000162372
-2.74696e-07
0.000162395
-2.75103e-07
-2.75649e-07
0.000162416
0.0001661
6.43013e-08
0.000166097
6.50092e-09
0.000166115
-6.47746e-08
0.000166132
-1.15221e-07
0.00016615
-1.57917e-07
0.00016617
-1.96185e-07
0.000166195
-2.275e-07
0.000166223
-2.51618e-07
0.000166254
-2.70103e-07
0.000166288
-2.84309e-07
0.000166325
-2.95094e-07
0.000166365
-3.03135e-07
0.000166405
-3.0902e-07
0.000166447
-3.1322e-07
0.00016649
-3.16094e-07
0.000166534
-3.1792e-07
0.000166577
-3.18923e-07
0.000166621
-3.19282e-07
0.000166664
-3.19144e-07
0.000166707
-3.18623e-07
0.00016675
-3.17814e-07
0.000166791
-3.16793e-07
0.000166832
-3.15621e-07
0.000166872
-3.14347e-07
0.00016691
-3.13012e-07
0.000166948
-3.11646e-07
0.000166984
-3.10271e-07
0.000167018
-3.08906e-07
0.000167052
-3.07562e-07
0.000167084
-3.06245e-07
0.000167114
-3.04953e-07