/*--------------------------------*- C++ -*----------------------------------*\
  =========                 |
  \\      /  F ield         | OpenFOAM: The Open Source CFD Toolbox
   \\    /   O peration     | Website:  https://openfoam.org
    \\  /    A nd           | Version:  10
     \\/     M anipulation  |
\*---------------------------------------------------------------------------*/
FoamFile
{
    format      ascii;
    class       volVectorField;
    location    "1800";
    object      U;
}
// * * * * * * * * * * * * * * * * * * * * * * * * * * * * * * * * * * * * * //

dimensions      [0 1 -1 0 0 0 0];

internalField   nonuniform List<vector> 
6820
(
(7.3167 -0.387299 0)
(7.31533 -0.335145 0)
(7.28401 -0.203479 0)
(7.22595 -0.11106 0)
(7.16149 -0.0567251 0)
(7.10028 -0.0269557 0)
(7.04431 -0.0112174 0)
(6.99378 -0.00301604 0)
(6.94844 0.00121276 0)
(6.90765 0.00335104 0)
(6.87067 0.00439947 0)
(6.83685 0.00489238 0)
(6.80569 0.0051117 0)
(6.77677 0.00520409 0)
(6.74976 0.00524524 0)
(6.72438 0.00527396 0)
(6.70038 0.0053102 0)
(6.67758 0.00536463 0)
(6.65577 0.00544413 0)
(6.63478 0.00555493 0)
(6.61442 0.00570486 0)
(6.5945 0.00590525 0)
(6.57479 0.00617318 0)
(6.55502 0.00653639 0)
(6.53483 0.00703799 0)
(6.5137 0.00773339 0)
(6.49087 0.00879342 0)
(6.46511 0.0103091 0)
(6.43404 0.0138613 0)
(6.39476 0.0144692 0)
(6.34916 0.0157608 0)
(6.19788 0.0585499 0)
(6.2462 0.0977916 0)
(7.33961 0.100789 0)
(7.3543 0.149956 0)
(7.35845 0.123299 0)
(7.35862 0.0899201 0)
(7.35917 0.0661215 0)
(7.35778 0.0502139 0)
(7.35237 0.0396483 0)
(7.34318 0.0327061 0)
(7.33137 0.0280835 0)
(7.31791 0.0248898 0)
(7.30343 0.022591 0)
(7.28839 0.0208736 0)
(7.27312 0.0195444 0)
(7.25784 0.0184824 0)
(7.24268 0.0176127 0)
(7.22772 0.0168896 0)
(7.21299 0.0162859 0)
(7.19851 0.0157868 0)
(7.18428 0.0153861 0)
(7.17028 0.0150854 0)
(7.15648 0.0148934 0)
(7.14284 0.0148276 0)
(7.12931 0.0149174 0)
(7.1158 0.0152099 0)
(7.10224 0.0157799 0)
(7.08851 0.0167518 0)
(7.07457 0.0183335 0)
(7.06005 0.0208776 0)
(7.04574 0.0250843 0)
(7.02958 0.0324153 0)
(7.01888 0.0452975 0)
(6.99009 0.0559547 0)
(7.07141 0.141779 0)
(7.32714 0.00613594 0)
(7.32427 -0.00154438 0)
(7.33124 -0.00609708 0)
(7.33959 -0.000677028 0)
(7.34654 0.00716685 0)
(7.35177 0.012909 0)
(7.35486 0.0164332 0)
(7.35587 0.0185441 0)
(7.35519 0.0197432 0)
(7.35317 0.020333 0)
(7.35005 0.0205414 0)
(7.34605 0.0205296 0)
(7.34134 0.0203993 0)
(7.33606 0.0202132 0)
(7.33035 0.0200118 0)
(7.32427 0.0198228 0)
(7.3179 0.0196662 0)
(7.31127 0.0195585 0)
(7.30442 0.0195151 0)
(7.29735 0.0195537 0)
(7.29005 0.0196962 0)
(7.28251 0.0199728 0)
(7.27468 0.0204259 0)
(7.26649 0.0211176 0)
(7.25785 0.0221428 0)
(7.24863 0.0236424 0)
(7.23869 0.0258752 0)
(7.22771 0.0291617 0)
(7.21572 0.0343646 0)
(7.20195 0.0420469 0)
(7.18785 0.0559365 0)
(7.16988 0.074184 0)
(7.17242 0.130375 0)
(7.32977 -0.00399155 0)
(7.32627 0.00251327 0)
(7.33103 0.0107777 0)
(7.33662 0.0169407 0)
(7.34117 0.0205156 0)
(7.34538 0.0220444 0)
(7.34905 0.022548 0)
(7.35188 0.0226943 0)
(7.35388 0.0227023 0)
(7.35516 0.0226268 0)
(7.35576 0.0225052 0)
(7.35575 0.0223676 0)
(7.35519 0.0222321 0)
(7.35414 0.0221097 0)
(7.35267 0.0220099 0)
(7.35081 0.021943 0)
(7.3486 0.0219203 0)
(7.34606 0.021955 0)
(7.34322 0.0220635 0)
(7.34007 0.022267 0)
(7.3366 0.0225938 0)
(7.33281 0.0230826 0)
(7.32865 0.0237877 0)
(7.32407 0.0247868 0)
(7.31902 0.0261951 0)
(7.31341 0.0281809 0)
(7.30715 0.0310222 0)
(7.30013 0.0350959 0)
(7.29242 0.0411608 0)
(7.28405 0.0500038 0)
(7.27612 0.0639401 0)
(7.26994 0.0834098 0)
(7.27323 0.117866 0)
(7.33182 -0.000974285 0)
(7.32998 0.00679481 0)
(7.33252 0.0124477 0)
(7.33596 0.0152649 0)
(7.33917 0.0173089 0)
(7.34257 0.0188241 0)
(7.3459 0.0198259 0)
(7.3488 0.0205113 0)
(7.35124 0.021 0)
(7.35328 0.0213383 0)
(7.35492 0.0215676 0)
(7.35619 0.0217286 0)
(7.35709 0.0218513 0)
(7.35766 0.0219577 0)
(7.3579 0.0220659 0)
(7.35785 0.0221935 0)
(7.35751 0.0223577 0)
(7.35688 0.0225774 0)
(7.35597 0.0228743 0)
(7.35479 0.0232752 0)
(7.35331 0.0238143 0)
(7.35152 0.0245373 0)
(7.3494 0.0255061 0)
(7.34691 0.0268072 0)
(7.34403 0.0285638 0)
(7.34072 0.0309512 0)
(7.33698 0.034236 0)
(7.33283 0.0387764 0)
(7.32849 0.0451697 0)
(7.32437 0.0540593 0)
(7.32162 0.0666627 0)
(7.32231 0.0832061 0)
(7.32987 0.104964 0)
(7.33247 0.00071324 0)
(7.33163 0.00642339 0)
(7.3334 0.0107238 0)
(7.33615 0.0133911 0)
(7.33885 0.0156991 0)
(7.34167 0.0175125 0)
(7.34449 0.0187137 0)
(7.34708 0.0195187 0)
(7.3494 0.0201015 0)
(7.35147 0.0205335 0)
(7.35332 0.0208605 0)
(7.35493 0.0211233 0)
(7.35631 0.0213523 0)
(7.35746 0.0215692 0)
(7.35838 0.0217923 0)
(7.35909 0.0220393 0)
(7.35957 0.0223283 0)
(7.35983 0.0226797 0)
(7.35987 0.023117 0)
(7.35967 0.0236695 0)
(7.35923 0.0243746 0)
(7.35854 0.025281 0)
(7.35757 0.026454 0)
(7.35633 0.0279819 0)
(7.35479 0.029986 0)
(7.35299 0.032632 0)
(7.35096 0.0361526 0)
(7.34884 0.0408456 0)
(7.34693 0.04713 0)
(7.34576 0.0554122 0)
(7.34633 0.066199 0)
(7.35041 0.0793109 0)
(7.35955 0.0938542 0)
(7.33271 0.00114355 0)
(7.33239 0.00560672 0)
(7.33391 0.00963357 0)
(7.33635 0.0124657 0)
(7.33878 0.0147371 0)
(7.34124 0.0164765 0)
(7.34371 0.0176683 0)
(7.34604 0.0185028 0)
(7.34818 0.0191338 0)
(7.35015 0.0196264 0)
(7.35197 0.0200215 0)
(7.35362 0.0203565 0)
(7.35511 0.0206611 0)
(7.35644 0.0209571 0)
(7.35762 0.0212633 0)
(7.35863 0.021598 0)
(7.35947 0.0219806 0)
(7.36014 0.0224323 0)
(7.36064 0.0229783 0)
(7.36096 0.0236493 0)
(7.36109 0.0244837 0)
(7.36102 0.0255313 0)
(7.36076 0.0268564 0)
(7.3603 0.0285435 0)
(7.35967 0.0307037 0)
(7.3589 0.0334812 0)
(7.35811 0.0370623 0)
(7.35746 0.0416671 0)
(7.35727 0.0475538 0)
(7.35808 0.0549191 0)
(7.36066 0.0638616 0)
(7.36626 0.0739753 0)
(7.3755 0.0840046 0)
(7.33286 0.00131262 0)
(7.33286 0.00517376 0)
(7.33419 0.00890158 0)
(7.33634 0.01164 0)
(7.33858 0.0137652 0)
(7.34083 0.0154292 0)
(7.34309 0.01664 0)
(7.34525 0.0175223 0)
(7.34726 0.0182013 0)
(7.34913 0.0187424 0)
(7.35088 0.0191872 0)
(7.3525 0.019573 0)
(7.354 0.0199296 0)
(7.35537 0.0202801 0)
(7.35662 0.0206443 0)
(7.35775 0.0210415 0)
(7.35875 0.0214917 0)
(7.35962 0.0220172 0)
(7.36036 0.0226436 0)
(7.36096 0.0234019 0)
(7.36142 0.0243304 0)
(7.36174 0.0254767 0)
(7.36194 0.0269015 0)
(7.36202 0.0286806 0)
(7.36202 0.0309095 0)
(7.36203 0.0337042 0)
(7.36214 0.0372017 0)
(7.36257 0.0415452 0)
(7.3636 0.0468668 0)
(7.36569 0.053212 0)
(7.36941 0.0604699 0)
(7.37556 0.0681638 0)
(7.38427 0.0751923 0)
(7.33295 0.0013863 0)
(7.33314 0.00483092 0)
(7.33431 0.00819384 0)
(7.33621 0.0107849 0)
(7.33827 0.0128108 0)
(7.34036 0.0144308 0)
(7.34247 0.0156579 0)
(7.34452 0.0165763 0)
(7.34644 0.0172922 0)
(7.34824 0.0178713 0)
(7.34993 0.0183558 0)
(7.35151 0.0187814 0)
(7.35299 0.0191782 0)
(7.35437 0.0195702 0)
(7.35565 0.0199781 0)
(7.35683 0.0204218 0)
(7.35791 0.020922 0)
(7.35889 0.0215014 0)
(7.35976 0.0221854 0)
(7.36054 0.0230045 0)
(7.36122 0.023995 0)
(7.36181 0.0252012 0)
(7.36234 0.026677 0)
(7.36282 0.0284871 0)
(7.36331 0.0307083 0)
(7.3639 0.0334269 0)
(7.3647 0.0367334 0)
(7.3659 0.0407063 0)
(7.36778 0.0453874 0)
(7.37066 0.0507276 0)
(7.37496 0.0565268 0)
(7.38116 0.0623319 0)
(7.38914 0.0672998 0)
(7.333 0.00138571 0)
(7.33329 0.00449742 0)
(7.33434 0.00753071 0)
(7.33602 0.00997595 0)
(7.33791 0.0119163 0)
(7.33986 0.0134843 0)
(7.34184 0.0147065 0)
(7.34378 0.0156458 0)
(7.34563 0.0163899 0)
(7.34738 0.0170006 0)
(7.34904 0.0175186 0)
(7.3506 0.0179782 0)
(7.35207 0.0184088 0)
(7.35345 0.0188347 0)
(7.35475 0.0192773 0)
(7.35596 0.0197569 0)
(7.35709 0.0202945 0)
(7.35815 0.0209124 0)
(7.35913 0.0216355 0)
(7.36004 0.0224926 0)
(7.36088 0.0235173 0)
(7.36169 0.0247488 0)
(7.36247 0.0262328 0)
(7.36327 0.0280215 0)
(7.36415 0.0301724 0)
(7.36519 0.0327436 0)
(7.36651 0.0357867 0)
(7.36828 0.0393301 0)
(7.37071 0.0433569 0)
(7.37406 0.0477679 0)
(7.3786 0.0523415 0)
(7.38458 0.0566912 0)
(7.39181 0.0602072 0)
(7.33302 0.00133862 0)
(7.33336 0.00417664 0)
(7.33432 0.00692726 0)
(7.33582 0.00922013 0)
(7.33755 0.0110688 0)
(7.33937 0.0125764 0)
(7.34123 0.0137794 0)
(7.34307 0.0147275 0)
(7.34485 0.015491 0)
(7.34655 0.0161258 0)
(7.34818 0.0166708 0)
(7.34973 0.0171584 0)
(7.35119 0.0176171 0)
(7.35258 0.0180709 0)
(7.3539 0.0185412 0)
(7.35515 0.0190484 0)
(7.35633 0.0196129 0)
(7.35745 0.0202566 0)
(7.35852 0.0210031 0)
(7.35955 0.0218786 0)
(7.36054 0.022913 0)
(7.36152 0.0241396 0)
(7.36253 0.0255954 0)
(7.36359 0.0273197 0)
(7.36478 0.0293517 0)
(7.36618 0.0317257 0)
(7.3679 0.0344622 0)
(7.37007 0.0375547 0)
(7.37286 0.0409523 0)
(7.37645 0.044536 0)
(7.381 0.0480975 0)
(7.38666 0.0513275 0)
(7.39319 0.0537949 0)
(7.33303 0.00126712 0)
(7.33339 0.00386941 0)
(7.33427 0.00637369 0)
(7.33562 0.00851009 0)
(7.3372 0.0102617 0)
(7.33889 0.0117045 0)
(7.34064 0.012878 0)
(7.34239 0.0138229 0)
(7.34411 0.0145958 0)
(7.34577 0.0152461 0)
(7.34736 0.0158105 0)
(7.34889 0.0163195 0)
(7.35036 0.0168 0)
(7.35176 0.0172754 0)
(7.3531 0.0177665 0)
(7.35439 0.0182932 0)
(7.35562 0.0188753 0)
(7.35681 0.0195331 0)
(7.35797 0.0202885 0)
(7.3591 0.0211648 0)
(7.36023 0.0221873 0)
(7.36137 0.0233833 0)
(7.36257 0.0247807 0)
(7.36386 0.0264068 0)
(7.36531 0.0282851 0)
(7.36699 0.0304303 0)
(7.369 0.0328403 0)
(7.37144 0.0354867 0)
(7.37444 0.0383018 0)
(7.37812 0.0411662 0)
(7.38257 0.0438993 0)
(7.38786 0.0462631 0)
(7.39376 0.0479547 0)
(7.33304 0.00118398 0)
(7.33339 0.00357423 0)
(7.33421 0.00586055 0)
(7.33542 0.00784201 0)
(7.33687 0.00949288 0)
(7.33845 0.0108668 0)
(7.34009 0.0120015 0)
(7.34176 0.0129321 0)
(7.34341 0.0137044 0)
(7.34503 0.0143616 0)
(7.34659 0.0149376 0)
(7.34811 0.0154608 0)
(7.34958 0.0159562 0)
(7.35099 0.0164462 0)
(7.35236 0.0169508 0)
(7.35368 0.0174887 0)
(7.35497 0.0180787 0)
(7.35622 0.0187394 0)
(7.35746 0.0194902 0)
(7.3587 0.0203511 0)
(7.35995 0.0213429 0)
(7.36124 0.0224863 0)
(7.36261 0.0238011 0)
(7.36409 0.025304 0)
(7.36575 0.0270053 0)
(7.36765 0.028905 0)
(7.36986 0.0309861 0)
(7.37248 0.0332077 0)
(7.37559 0.0354976 0)
(7.37926 0.0377457 0)
(7.38355 0.0398031 0)
(7.38847 0.0414911 0)
(7.39382 0.0425956 0)
(7.33304 0.00109632 0)
(7.33338 0.00329057 0)
(7.33413 0.00538116 0)
(7.33524 0.00721205 0)
(7.33658 0.00875906 0)
(7.33805 0.0100598 0)
(7.3396 0.011148 0)
(7.34119 0.0120546 0)
(7.34278 0.012817 0)
(7.34435 0.0134726 0)
(7.34589 0.0140522 0)
(7.34739 0.0145819 0)
(7.34886 0.015085 0)
(7.35028 0.0155822 0)
(7.35167 0.0160924 0)
(7.35303 0.0166331 0)
(7.35437 0.0172214 0)
(7.35569 0.0178739 0)
(7.35701 0.0186073 0)
(7.35834 0.0194383 0)
(7.3597 0.0203828 0)
(7.36112 0.0214557 0)
(7.36264 0.0226693 0)
(7.36428 0.0240314 0)
(7.36611 0.0255423 0)
(7.36817 0.0271916 0)
(7.37052 0.0289532 0)
(7.37324 0.0307812 0)
(7.37638 0.0326055 0)
(7.37998 0.0343305 0)
(7.38407 0.0358368 0)
(7.38863 0.0369922 0)
(7.3935 0.0376434 0)
(7.33304 0.00100804 0)
(7.33337 0.00301824 0)
(7.33406 0.00493009 0)
(7.33508 0.00661568 0)
(7.33631 0.00805664 0)
(7.33769 0.00928032 0)
(7.33915 0.0103154 0)
(7.34067 0.0111891 0)
(7.3422 0.011933 0)
(7.34373 0.0125787 0)
(7.34525 0.0131539 0)
(7.34674 0.0136826 0)
(7.3482 0.0141858 0)
(7.34964 0.0146826 0)
(7.35105 0.0151905 0)
(7.35245 0.0157254 0)
(7.35383 0.0163025 0)
(7.35521 0.0169362 0)
(7.3566 0.0176406 0)
(7.35802 0.0184286 0)
(7.35948 0.0193119 0)
(7.36101 0.0203001 0)
(7.36265 0.021399 0)
(7.36442 0.0226094 0)
(7.36637 0.0239244 0)
(7.36855 0.0253269 0)
(7.37099 0.0267863 0)
(7.37376 0.0282563 0)
(7.37687 0.0296731 0)
(7.38036 0.0309563 0)
(7.38423 0.0320121 0)
(7.38846 0.0327437 0)
(7.39291 0.0330392 0)
(7.33303 0.000921171 0)
(7.33335 0.00275681 0)
(7.33399 0.00450277 0)
(7.33493 0.00604835 0)
(7.33608 0.00738192 0)
(7.33737 0.00852481 0)
(7.33876 0.00950085 0)
(7.34021 0.0103342 0)
(7.34169 0.0110512 0)
(7.34318 0.0116791 0)
(7.34467 0.0122422 0)
(7.34615 0.0127622 0)
(7.34761 0.0132579 0)
(7.34906 0.0137468 0)
(7.35049 0.0142444 0)
(7.35192 0.0147651 0)
(7.35335 0.0153219 0)
(7.35478 0.0159272 0)
(7.35624 0.0165919 0)
(7.35773 0.0173259 0)
(7.35928 0.0181368 0)
(7.36091 0.0190294 0)
(7.36264 0.0200048 0)
(7.36451 0.0210583 0)
(7.36656 0.0221782 0)
(7.3688 0.0233435 0)
(7.37129 0.0245226 0)
(7.37405 0.0256717 0)
(7.37711 0.0267349 0)
(7.38046 0.0276461 0)
(7.38411 0.0283328 0)
(7.38804 0.0287241 0)
(7.3921 0.0287369 0)
(7.33303 0.000836643 0)
(7.33332 0.00250558 0)
(7.33393 0.00409539 0)
(7.3348 0.00550572 0)
(7.33587 0.00673117 0)
(7.33709 0.0077899 0)
(7.33841 0.00870169 0)
(7.33981 0.00948763 0)
(7.34124 0.0101702 0)
(7.34269 0.0107726 0)
(7.34416 0.0113162 0)
(7.34562 0.0118199 0)
(7.34709 0.0123008 0)
(7.34854 0.0127742 0)
(7.35 0.0132539 0)
(7.35146 0.0137522 0)
(7.35292 0.0142804 0)
(7.3544 0.0148483 0)
(7.35592 0.0154643 0)
(7.35748 0.0161351 0)
(7.3591 0.0168649 0)
(7.3608 0.0176549 0)
(7.36261 0.018502 0)
(7.36455 0.019398 0)
(7.36665 0.0203282 0)
(7.36894 0.0212703 0)
(7.37143 0.0221934 0)
(7.37416 0.0230578 0)
(7.37713 0.023816 0)
(7.38033 0.0244147 0)
(7.38376 0.024798 0)
(7.38741 0.0249143 0)
(7.39114 0.0247004 0)
(7.33303 0.000754737 0)
(7.33331 0.00226359 0)
(7.33387 0.00370465 0)
(7.33469 0.00498375 0)
(7.33569 0.00610067 0)
(7.33685 0.0070722 0)
(7.33811 0.00791494 0)
(7.33945 0.00864723 0)
(7.34084 0.00928838 0)
(7.34227 0.00985805 0)
(7.34371 0.0103747 0)
(7.34516 0.010855 0)
(7.34662 0.0113138 0)
(7.34809 0.0117644 0)
(7.34956 0.0122188 0)
(7.35105 0.0126874 0)
(7.35255 0.0131793 0)
(7.35407 0.0137021 0)
(7.35563 0.0142618 0)
(7.35725 0.0148623 0)
(7.35892 0.0155051 0)
(7.36069 0.0161881 0)
(7.36255 0.0169057 0)
(7.36454 0.0176474 0)
(7.36667 0.0183969 0)
(7.36896 0.019132 0)
(7.37144 0.019824 0)
(7.37411 0.0204383 0)
(7.37697 0.0209349 0)
(7.38002 0.0212714 0)
(7.38324 0.021405 0)
(7.38662 0.0212982 0)
(7.39005 0.0209018 0)
(7.33303 0.00067539 0)
(7.33329 0.00202972 0)
(7.33382 0.00332763 0)
(7.33459 0.00447872 0)
(7.33554 0.00548679 0)
(7.33664 0.00636835 0)
(7.33785 0.0071376 0)
(7.33914 0.00781048 0)
(7.3405 0.00840361 0)
(7.34189 0.0089337 0)
(7.34332 0.00941655 0)
(7.34476 0.00986648 0)
(7.34622 0.0102963 0)
(7.34769 0.0107173 0)
(7.34918 0.0111395 0)
(7.35069 0.0115715 0)
(7.35222 0.0120203 0)
(7.35378 0.0124916 0)
(7.35538 0.012989 0)
(7.35704 0.0135141 0)
(7.35876 0.0140661 0)
(7.36056 0.0146408 0)
(7.36246 0.0152307 0)
(7.36447 0.0158239 0)
(7.36661 0.016404 0)
(7.36889 0.0169499 0)
(7.37132 0.0174357 0)
(7.37391 0.0178316 0)
(7.37666 0.018105 0)
(7.37955 0.0182221 0)
(7.38257 0.0181503 0)
(7.38571 0.0178622 0)
(7.38887 0.017319 0)
(7.33303 0.000598346 0)
(7.33327 0.00180274 0)
(7.33377 0.00296171 0)
(7.3345 0.00398716 0)
(7.33541 0.004886 0)
(7.33646 0.00567499 0)
(7.33762 0.00636661 0)
(7.33888 0.00697478 0)
(7.3402 0.00751381 0)
(7.34157 0.00799788 0)
(7.34298 0.00844036 0)
(7.34441 0.00885337 0)
(7.34587 0.00924766 0)
(7.34735 0.00963267 0)
(7.34885 0.0100165 0)
(7.35038 0.0104058 0)
(7.35193 0.0108059 0)
(7.35352 0.0112203 0)
(7.35515 0.011651 0)
(7.35684 0.0120976 0)
(7.35859 0.0125573 0)
(7.36042 0.0130246 0)
(7.36233 0.0134908 0)
(7.36435 0.0139436 0)
(7.36648 0.0143672 0)
(7.36873 0.014742 0)
(7.3711 0.0150455 0)
(7.3736 0.0152524 0)
(7.37622 0.0153361 0)
(7.37896 0.0152702 0)
(7.38178 0.0150298 0)
(7.3847 0.0145951 0)
(7.38761 0.0139346 0)
(7.33303 0.000523262 0)
(7.33326 0.0015814 0)
(7.33373 0.00260446 0)
(7.33443 0.00350586 0)
(7.33529 0.0042949 0)
(7.3363 0.00498881 0)
(7.33743 0.0055989 0)
(7.33865 0.00613742 0)
(7.33994 0.00661671 0)
(7.34129 0.00704875 0)
(7.34269 0.00744473 0)
(7.34411 0.00781472 0)
(7.34557 0.00816752 0)
(7.34706 0.00851071 0)
(7.34857 0.00885058 0)
(7.35011 0.00919208 0)
(7.35168 0.00953872 0)
(7.35329 0.00989244 0)
(7.35495 0.0102534 0)
(7.35666 0.0106199 0)
(7.35842 0.0109878 0)
(7.36026 0.0113505 0)
(7.36218 0.0116989 0)
(7.36419 0.0120208 0)
(7.36629 0.0123015 0)
(7.36849 0.0125235 0)
(7.37079 0.0126673 0)
(7.37319 0.0127118 0)
(7.37569 0.0126355 0)
(7.37827 0.0124179 0)
(7.38091 0.01204 0)
(7.38361 0.0114874 0)
(7.3863 0.0107345 0)
(7.33302 0.000449754 0)
(7.33325 0.00136444 0)
(7.3337 0.00225362 0)
(7.33437 0.00303185 0)
(7.3352 0.00371022 0)
(7.33617 0.00430655 0)
(7.33727 0.00483138 0)
(7.33846 0.0052956 0)
(7.33973 0.00570988 0)
(7.34106 0.00608432 0)
(7.34244 0.00642815 0)
(7.34386 0.00674951 0)
(7.34532 0.0070554 0)
(7.34681 0.00735162 0)
(7.34833 0.00764277 0)
(7.34988 0.00793217 0)
(7.35147 0.00822179 0)
(7.35309 0.0085121 0)
(7.35476 0.00880194 0)
(7.35648 0.00908833 0)
(7.35825 0.00936633 0)
(7.36009 0.00962889 0)
(7.362 0.00986673 0)
(7.36398 0.0100684 0)
(7.36604 0.0102203 0)
(7.36819 0.0103071 0)
(7.37041 0.0103123 0)
(7.37271 0.0102184 0)
(7.37507 0.0100083 0)
(7.3775 0.00966594 0)
(7.37997 0.00917703 0)
(7.38248 0.00853121 0)
(7.38495 0.00770721 0)
(7.33302 0.000377436 0)
(7.33324 0.00115064 0)
(7.33367 0.00190709 0)
(7.33431 0.00256231 0)
(7.33512 0.00312879 0)
(7.33607 0.00362495 0)
(7.33713 0.00406087 0)
(7.3383 0.0044464 0)
(7.33955 0.0047908 0)
(7.34087 0.0051025 0)
(7.34224 0.005389 0)
(7.34366 0.00565668 0)
(7.34511 0.00591085 0)
(7.3466 0.00615565 0)
(7.34813 0.00639413 0)
(7.34969 0.00662812 0)
(7.35129 0.00685821 0)
(7.35292 0.00708361 0)
(7.35459 0.0073021 0)
(7.35631 0.00750985 0)
(7.35808 0.00770135 0)
(7.35991 0.00786937 0)
(7.3618 0.00800491 0)
(7.36375 0.00809733 0)
(7.36576 0.00813451 0)
(7.36783 0.00810316 0)
(7.36997 0.00798932 0)
(7.37216 0.00777883 0)
(7.3744 0.00745804 0)
(7.37668 0.00701447 0)
(7.37899 0.00643738 0)
(7.38131 0.00571939 0)
(7.38359 0.00484277 0)
(7.33302 0.000305937 0)
(7.33323 0.000938871 0)
(7.33365 0.00156293 0)
(7.33427 0.00209463 0)
(7.33505 0.00254754 0)
(7.33598 0.00294077 0)
(7.33702 0.00328417 0)
(7.33817 0.0035868 0)
(7.33941 0.00385673 0)
(7.34071 0.00410099 0)
(7.34208 0.00432549 0)
(7.34349 0.00453503 0)
(7.34494 0.00473334 0)
(7.34644 0.00492304 0)
(7.34797 0.00510573 0)
(7.34953 0.00528193 0)
(7.35113 0.00545102 0)
(7.35277 0.00561118 0)
(7.35444 0.00575932 0)
(7.35616 0.00589102 0)
(7.35792 0.0060005 0)
(7.35972 0.00608057 0)
(7.36158 0.00612274 0)
(7.36348 0.00611731 0)
(7.36544 0.00605359 0)
(7.36744 0.00592025 0)
(7.36949 0.00570562 0)
(7.37158 0.00539824 0)
(7.37369 0.0049873 0)
(7.37583 0.0044632 0)
(7.37798 0.00381786 0)
(7.38014 0.00304618 0)
(7.38224 0.00213323 0)
(7.33302 0.000234925 0)
(7.33322 0.000728106 0)
(7.33363 0.00121936 0)
(7.33423 0.00162631 0)
(7.335 0.00196349 0)
(7.33591 0.00225072 0)
(7.33694 0.00249792 0)
(7.33807 0.00271357 0)
(7.3393 0.00290475 0)
(7.34059 0.00307726 0)
(7.34195 0.00323561 0)
(7.34336 0.00338316 0)
(7.34482 0.00352215 0)
(7.34631 0.00365385 0)
(7.34784 0.00377852 0)
(7.34941 0.00389549 0)
(7.35101 0.00400311 0)
(7.35264 0.0040987 0)
(7.35431 0.00417852 0)
(7.35601 0.00423777 0)
(7.35775 0.00427055 0)
(7.35953 0.00426993 0)
(7.36135 0.00422801 0)
(7.36321 0.0041361 0)
(7.3651 0.00398489 0)
(7.36703 0.00376475 0)
(7.36898 0.00346607 0)
(7.37096 0.00307959 0)
(7.37296 0.00259681 0)
(7.37497 0.00201037 0)
(7.37697 0.00131427 0)
(7.37896 0.000505024 0)
(7.3809 -0.000429911 0)
(7.33302 0.000164123 0)
(7.33321 0.000517483 0)
(7.33361 0.000874808 0)
(7.3342 0.00115504 0)
(7.33496 0.00137366 0)
(7.33585 0.00155144 0)
(7.33687 0.0016986 0)
(7.33799 0.00182323 0)
(7.33921 0.00193162 0)
(7.3405 0.00202847 0)
(7.34186 0.00211705 0)
(7.34327 0.00219937 0)
(7.34473 0.00227633 0)
(7.34622 0.00234789 0)
(7.34775 0.00241316 0)
(7.34932 0.00247041 0)
(7.35091 0.00251708 0)
(7.35254 0.0025498 0)
(7.3542 0.00256435 0)
(7.35588 0.00255568 0)
(7.3576 0.00251794 0)
(7.35935 0.00244453 0)
(7.36112 0.00232822 0)
(7.36293 0.00216128 0)
(7.36476 0.00193566 0)
(7.3666 0.00164325 0)
(7.36847 0.00127614 0)
(7.37035 0.000826915 0)
(7.37223 0.00028891 0)
(7.3741 -0.000343482 0)
(7.37596 -0.00107468 0)
(7.37781 -0.00190695 0)
(7.37959 -0.00285089 0)
(7.33302 9.33575e-05 0)
(7.33321 0.000306395 0)
(7.3336 0.000527983 0)
(7.33418 0.000678653 0)
(7.33492 0.000775095 0)
(7.33581 0.000839405 0)
(7.33682 0.000882391 0)
(7.33794 0.000911947 0)
(7.33915 0.000933674 0)
(7.34045 0.000951338 0)
(7.3418 0.000967066 0)
(7.34321 0.000981584 0)
(7.34467 0.00099452 0)
(7.34617 0.00100463 0)
(7.3477 0.00100991 0)
(7.34926 0.00100769 0)
(7.35085 0.00099463 0)
(7.35247 0.000966786 0)
(7.35411 0.000919581 0)
(7.35578 0.000847852 0)
(7.35747 0.000745885 0)
(7.35918 0.000607486 0)
(7.36091 0.000426068 0)
(7.36265 0.000194813 0)
(7.36441 -9.31934e-05 0)
(7.36619 -0.000444742 0)
(7.36796 -0.000866313 0)
(7.36974 -0.00136383 0)
(7.37151 -0.00194249 0)
(7.37326 -0.00260652 0)
(7.37499 -0.00335914 0)
(7.3767 -0.00420169 0)
(7.37834 -0.00514313 0)
(7.33302 2.26193e-05 0)
(7.3332 9.46666e-05 0)
(7.33358 0.000178046 0)
(7.33415 0.000195225 0)
(7.33489 0.000164756 0)
(7.33577 0.000110791 0)
(7.33678 4.5069e-05 0)
(7.3379 -2.4642e-05 0)
(7.33912 -9.33248e-05 0)
(7.34042 -0.000158054 0)
(7.34178 -0.000217777 0)
(7.34319 -0.000272962 0)
(7.34465 -0.000325173 0)
(7.34615 -0.000376776 0)
(7.34768 -0.00043078 0)
(7.34924 -0.000490738 0)
(7.35083 -0.000560678 0)
(7.35243 -0.000645063 0)
(7.35406 -0.000748752 0)
(7.3557 -0.000876985 0)
(7.35736 -0.00103531 0)
(7.35903 -0.00122953 0)
(7.36071 -0.00146563 0)
(7.3624 -0.00174961 0)
(7.36409 -0.00208742 0)
(7.36579 -0.00248474 0)
(7.36748 -0.00294686 0)
(7.36915 -0.00347853 0)
(7.37082 -0.00408376 0)
(7.37246 -0.00476575 0)
(7.37407 -0.00552679 0)
(7.37565 -0.00636764 0)
(7.37716 -0.00729592 0)
(7.33302 -4.77955e-05 0)
(7.33319 -0.000117132 0)
(7.33356 -0.000175138 0)
(7.33412 -0.000296895 0)
(7.33486 -0.00046054 0)
(7.33574 -0.000638696 0)
(7.33676 -0.000818315 0)
(7.33789 -0.000991679 0)
(7.33911 -0.00115428 0)
(7.34042 -0.0013041 0)
(7.34179 -0.00144136 0)
(7.34321 -0.0015679 0)
(7.34468 -0.00168655 0)
(7.34618 -0.00180076 0)
(7.34771 -0.00191445 0)
(7.34926 -0.00203193 0)
(7.35084 -0.00215776 0)
(7.35243 -0.00229677 0)
(7.35404 -0.00245398 0)
(7.35565 -0.00263459 0)
(7.35728 -0.00284393 0)
(7.35891 -0.0030874 0)
(7.36054 -0.00337041 0)
(7.36218 -0.00369824 0)
(7.3638 -0.004076 0)
(7.36542 -0.00450845 0)
(7.36703 -0.00499993 0)
(7.36861 -0.00555424 0)
(7.37018 -0.00617449 0)
(7.37171 -0.00686308 0)
(7.37321 -0.0076216 0)
(7.37467 -0.0084503 0)
(7.37605 -0.00935554 0)
(7.33302 -0.000117009 0)
(7.33318 -0.000327055 0)
(7.33354 -0.00053055 0)
(7.33409 -0.000799009 0)
(7.33482 -0.00110417 0)
(7.33571 -0.00141378 0)
(7.33674 -0.00171355 0)
(7.33788 -0.00199586 0)
(7.33912 -0.0022562 0)
(7.34044 -0.00249298 0)
(7.34182 -0.00270748 0)
(7.34326 -0.002903 0)
(7.34473 -0.00308381 0)
(7.34624 -0.00325475 0)
(7.34777 -0.00342094 0)
(7.34932 -0.00358767 0)
(7.35089 -0.00376026 0)
(7.35247 -0.00394403 0)
(7.35406 -0.00414425 0)
(7.35565 -0.00436618 0)
(7.35724 -0.00461497 0)
(7.35883 -0.00489568 0)
(7.36041 -0.00521321 0)
(7.36199 -0.00557221 0)
(7.36355 -0.00597707 0)
(7.3651 -0.00643176 0)
(7.36663 -0.00693985 0)
(7.36813 -0.00750434 0)
(7.3696 -0.00812766 0)
(7.37103 -0.00881156 0)
(7.37242 -0.00955718 0)
(7.37378 -0.0103646 0)
(7.37505 -0.0112392 0)
(7.33302 -0.000182983 0)
(7.33317 -0.000530475 0)
(7.3335 -0.000885133 0)
(7.33403 -0.00131229 0)
(7.33476 -0.0017707 0)
(7.33567 -0.00222013 0)
(7.33671 -0.00264583 0)
(7.33788 -0.0030421 0)
(7.33914 -0.00340604 0)
(7.34049 -0.00373748 0)
(7.34189 -0.00403902 0)
(7.34334 -0.00431482 0)
(7.34483 -0.00456979 0)
(7.34635 -0.00480928 0)
(7.34789 -0.0050389 0)
(7.34944 -0.00526436 0)
(7.351 -0.0054913 0)
(7.35256 -0.00572529 0)
(7.35413 -0.00597174 0)
(7.35569 -0.00623592 0)
(7.35725 -0.00652287 0)
(7.3588 -0.00683744 0)
(7.36034 -0.00718418 0)
(7.36186 -0.00756737 0)
(7.36336 -0.00799088 0)
(7.36484 -0.0084582 0)
(7.36629 -0.00897234 0)
(7.36771 -0.00953582 0)
(7.36909 -0.0101506 0)
(7.37043 -0.010818 0)
(7.37172 -0.0115387 0)
(7.37298 -0.0123125 0)
(7.37414 -0.0131438 0)
(7.33301 -0.000241277 0)
(7.33314 -0.000717829 0)
(7.33343 -0.00123178 0)
(7.33394 -0.00183574 0)
(7.33468 -0.00246625 0)
(7.3356 -0.00307125 0)
(7.33667 -0.00363155 0)
(7.33787 -0.00413848 0)
(7.33916 -0.00458915 0)
(7.34053 -0.00498726 0)
(7.34195 -0.00534073 0)
(7.34343 -0.00565835 0)
(7.34493 -0.0059485 0)
(7.34646 -0.00621908 0)
(7.348 -0.0064775 0)
(7.34955 -0.0067306 0)
(7.35111 -0.00698459 0)
(7.35266 -0.00724521 0)
(7.35421 -0.00751775 0)
(7.35576 -0.00780711 0)
(7.35729 -0.00811788 0)
(7.3588 -0.00845429 0)
(7.36029 -0.00882022 0)
(7.36176 -0.00921925 0)
(7.36321 -0.00965455 0)
(7.36462 -0.0101289 0)
(7.366 -0.0106447 0)
(7.36735 -0.0112039 0)
(7.36865 -0.0118079 0)
(7.36991 -0.0124577 0)
(7.37111 -0.0131538 0)
(7.37228 -0.0138962 0)
(7.37336 -0.0146889 0)
(7.33301 -0.000281441 0)
(7.33308 -0.000871158 0)
(7.3333 -0.00156296 0)
(7.33377 -0.00236529 0)
(7.33451 -0.0031781 0)
(7.33547 -0.00395733 0)
(7.3366 -0.0046982 0)
(7.33785 -0.00538975 0)
(7.3392 -0.00601915 0)
(7.34062 -0.00658275 0)
(7.34209 -0.00708475 0)
(7.34359 -0.00753231 0)
(7.34512 -0.00793361 0)
(7.34666 -0.00829744 0)
(7.3482 -0.0086327 0)
(7.34975 -0.00894793 0)
(7.3513 -0.00925108 0)
(7.35283 -0.00954945 0)
(7.35436 -0.00984968 0)
(7.35587 -0.0101578 0)
(7.35736 -0.0104792 0)
(7.35883 -0.0108188 0)
(7.36028 -0.0111809 0)
(7.3617 -0.0115694 0)
(7.36308 -0.0119874 0)
(7.36443 -0.0124378 0)
(7.36575 -0.012923 0)
(7.36702 -0.0134448 0)
(7.36824 -0.0140045 0)
(7.36942 -0.014603 0)
(7.37054 -0.0152405 0)
(7.37162 -0.0159166 0)
(7.37261 -0.0166342 0)
(7.33299 -0.000277258 0)
(7.33294 -0.000941471 0)
(7.33304 -0.00187445 0)
(7.33346 -0.00295851 0)
(7.33422 -0.00396001 0)
(7.33519 -0.00480614 0)
(7.33632 -0.00552256 0)
(7.33759 -0.00613867 0)
(7.33897 -0.00667551 0)
(7.34043 -0.0071521 0)
(7.34195 -0.00758444 0)
(7.34349 -0.00798421 0)
(7.34506 -0.00836018 0)
(7.34664 -0.00871951 0)
(7.34821 -0.00906818 0)
(7.34978 -0.0094113 0)
(7.35134 -0.00975333 0)
(7.35288 -0.0100984 0)
(7.35441 -0.0104502 0)
(7.35591 -0.0108123 0)
(7.35739 -0.011188 0)
(7.35883 -0.0115803 0)
(7.36025 -0.0119922 0)
(7.36163 -0.012426 0)
(7.36298 -0.0128841 0)
(7.36428 -0.0133685 0)
(7.36555 -0.0138808 0)
(7.36676 -0.0144224 0)
(7.36793 -0.0149943 0)
(7.36905 -0.0155971 0)
(7.37011 -0.0162314 0)
(7.37113 -0.0168973 0)
(7.37206 -0.017598 0)
(7.33295 -0.000184504 0)
(7.33263 -0.000819127 0)
(7.33245 -0.00198258 0)
(7.33286 -0.00352378 0)
(7.33379 -0.00519171 0)
(7.33498 -0.00682445 0)
(7.33629 -0.00830515 0)
(7.33767 -0.00956831 0)
(7.33912 -0.0106103 0)
(7.3406 -0.0114595 0)
(7.34211 -0.0121484 0)
(7.34363 -0.0127067 0)
(7.34516 -0.0131618 0)
(7.3467 -0.0135386 0)
(7.34823 -0.013858 0)
(7.34976 -0.0141372 0)
(7.35128 -0.0143904 0)
(7.35278 -0.0146289 0)
(7.35427 -0.0148622 0)
(7.35574 -0.0150978 0)
(7.35719 -0.015342 0)
(7.35861 -0.0155997 0)
(7.35999 -0.0158751 0)
(7.36135 -0.0161715 0)
(7.36266 -0.0164916 0)
(7.36394 -0.0168376 0)
(7.36517 -0.017211 0)
(7.36636 -0.0176131 0)
(7.3675 -0.0180446 0)
(7.36858 -0.0185059 0)
(7.36961 -0.0189969 0)
(7.37059 -0.019517 0)
(7.37148 -0.020068 0)
(7.3329 0.000143365 0)
(7.33208 -0.000801436 0)
(7.33128 -0.00202363 0)
(7.33118 -0.0026233 0)
(7.33173 -0.00284464 0)
(7.33275 -0.00313798 0)
(7.33411 -0.00361093 0)
(7.3357 -0.00419901 0)
(7.3374 -0.004854 0)
(7.33914 -0.00555594 0)
(7.3409 -0.00628586 0)
(7.34266 -0.00702379 0)
(7.34441 -0.00775509 0)
(7.34613 -0.00847117 0)
(7.34784 -0.00916745 0)
(7.34952 -0.00984194 0)
(7.35117 -0.0104946 0)
(7.3528 -0.011127 0)
(7.35441 -0.0117412 0)
(7.35598 -0.0123404 0)
(7.35752 -0.0129274 0)
(7.35903 -0.0135057 0)
(7.3605 -0.0140782 0)
(7.36193 -0.014648 0)
(7.36332 -0.0152179 0)
(7.36467 -0.0157904 0)
(7.36597 -0.0163676 0)
(7.36723 -0.0169517 0)
(7.36843 -0.0175441 0)
(7.36958 -0.0181465 0)
(7.37067 -0.0187598 0)
(7.37172 -0.0193852 0)
(7.37268 -0.0200255 0)
(7.33241 0.00209102 0)
(7.33047 -0.000509888 0)
(7.33035 -0.00714821 0)
(7.33149 -0.0135241 0)
(7.33255 -0.0181726 0)
(7.33336 -0.0212873 0)
(7.33428 -0.0232824 0)
(7.33543 -0.0244612 0)
(7.33677 -0.0250605 0)
(7.33824 -0.0252694 0)
(7.33983 -0.0252272 0)
(7.34153 -0.0250321 0)
(7.34331 -0.0247519 0)
(7.34515 -0.0244331 0)
(7.34704 -0.0241066 0)
(7.34896 -0.0237927 0)
(7.3509 -0.0235044 0)
(7.35284 -0.0232498 0)
(7.35478 -0.0230337 0)
(7.3567 -0.0228587 0)
(7.3586 -0.0227259 0)
(7.36046 -0.0226354 0)
(7.36229 -0.0225869 0)
(7.36408 -0.0225794 0)
(7.36582 -0.022612 0)
(7.36751 -0.0226834 0)
(7.36915 -0.0227924 0)
(7.37072 -0.0229375 0)
(7.37223 -0.0231174 0)
(7.37368 -0.023331 0)
(7.37506 -0.0235771 0)
(7.37637 -0.0238549 0)
(7.37758 -0.0241658 0)
(7.32878 0.00629702 0)
(7.31726 0.0180121 0)
(7.31246 0.0252741 0)
(7.31404 0.0273668 0)
(7.31795 0.0260888 0)
(7.3222 0.0233028 0)
(7.3265 0.0199679 0)
(7.33082 0.0164432 0)
(7.33507 0.0129126 0)
(7.33919 0.00951533 0)
(7.34318 0.0063364 0)
(7.34704 0.00340769 0)
(7.35079 0.000731342 0)
(7.35442 -0.00170271 0)
(7.35793 -0.00391021 0)
(7.36134 -0.00591026 0)
(7.36464 -0.00772325 0)
(7.36783 -0.00936929 0)
(7.37092 -0.0108673 0)
(7.37391 -0.0122348 0)
(7.37679 -0.0134876 0)
(7.37957 -0.01464 0)
(7.38225 -0.0157049 0)
(7.38483 -0.0166935 0)
(7.3873 -0.0176159 0)
(7.38967 -0.0184808 0)
(7.39194 -0.0192961 0)
(7.39412 -0.0200685 0)
(7.39619 -0.0208038 0)
(7.39816 -0.0215071 0)
(7.40003 -0.0221827 0)
(7.40181 -0.022834 0)
(7.40347 -0.0234673 0)
(7.33379 -0.033286 0)
(7.33301 -0.0722607 0)
(7.32817 -0.0855905 0)
(7.32662 -0.0869911 0)
(7.33021 -0.084571 0)
(7.33748 -0.0805794 0)
(7.34649 -0.0757169 0)
(7.35606 -0.0706384 0)
(7.36563 -0.0657997 0)
(7.37496 -0.0613726 0)
(7.38387 -0.0573855 0)
(7.39228 -0.0538291 0)
(7.40015 -0.0506817 0)
(7.40747 -0.0479106 0)
(7.41426 -0.0454776 0)
(7.42054 -0.0433449 0)
(7.42634 -0.0414778 0)
(7.43169 -0.0398453 0)
(7.43662 -0.0384196 0)
(7.44115 -0.0371764 0)
(7.44531 -0.0360944 0)
(7.44913 -0.0351553 0)
(7.45262 -0.0343428 0)
(7.45581 -0.0336432 0)
(7.45872 -0.0330443 0)
(7.46136 -0.0325354 0)
(7.46375 -0.0321072 0)
(7.46591 -0.0317516 0)
(7.46784 -0.0314612 0)
(7.46957 -0.0312296 0)
(7.4711 -0.0310508 0)
(7.47244 -0.0309204 0)
(7.47359 -0.0308335 0)
(7.33141 0.165001 0)
(7.34787 0.185199 0)
(7.36039 0.152185 0)
(7.35694 0.11811 0)
(7.34297 0.0898947 0)
(7.3243 0.0674992 0)
(7.30308 0.0500001 0)
(7.2801 0.036267 0)
(7.25616 0.0253268 0)
(7.23191 0.016493 0)
(7.20773 0.00929189 0)