/*--------------------------------*- C++ -*----------------------------------*\
  =========                 |
  \\      /  F ield         | OpenFOAM: The Open Source CFD Toolbox
   \\    /   O peration     | Website:  https://openfoam.org
    \\  /    A nd           | Version:  10
     \\/     M anipulation  |
\*---------------------------------------------------------------------------*/
FoamFile
{
    format      ascii;
    class       volScalarField;
    location    "0.185";
    object      p;
}
// * * * * * * * * * * * * * * * * * * * * * * * * * * * * * * * * * * * * * //

dimensions      [0 2 -2 0 0 0 0];

internalField   nonuniform List<scalar> 
6820
(
-9.40313
-9.70564
-9.75178
-9.76769
-9.79985
-9.82472
-9.84257
-9.85788
-9.871
-9.88182
-9.8906
-9.89747
-9.90243
-9.90542
-9.90633
-9.90501
-9.90127
-9.89485
-9.88545
-9.87273
-9.85625
-9.83555
-9.81006
-9.77916
-9.74214
-9.69819
-9.64643
-9.58593
-9.5156
-9.43428
-9.34202
-9.23165
-9.12942
-9.60454
-9.72959
-9.76625
-9.78206
-9.8084
-9.83017
-9.84643
-9.86062
-9.87303
-9.8834
-9.8919
-9.89861
-9.90351
-9.90652
-9.90753
-9.90639
-9.9029
-9.89683
-9.88789
-9.87575
-9.86003
-9.8403
-9.81605
-9.78674
-9.75173
-9.71038
-9.66197
-9.60586
-9.54133
-9.46859
-9.38699
-9.30688
-9.22646
-9.60449
-9.68997
-9.7486
-9.7755
-9.80401
-9.8285
-9.84712
-9.86284
-9.87637
-9.88762
-9.89681
-9.90409
-9.90949
-9.91295
-9.9144
-9.91373
-9.91077
-9.90534
-9.89719
-9.88607
-9.87168
-9.85368
-9.83172
-9.80543
-9.77448
-9.73855
-9.69746
-9.65126
-9.60061
-9.54683
-9.49481
-9.45009
-9.44254
-9.66147
-9.73138
-9.77949
-9.8
-9.822
-9.84244
-9.85838
-9.87194
-9.88381
-9.89383
-9.90208
-9.90867
-9.91357
-9.91671
-9.91799
-9.91731
-9.91449
-9.90936
-9.9017
-9.89128
-9.87784
-9.8611
-9.8408
-9.81668
-9.78851
-9.75618
-9.71978
-9.6797
-9.63699
-9.59365
-9.55416
-9.52448
-9.52231
-9.69159
-9.73049
-9.76975
-9.79306
-9.81627
-9.838
-9.85556
-9.87048
-9.8835
-9.89455
-9.90372
-9.91113
-9.91679
-9.92065
-9.92266
-9.92272
-9.92071
-9.91647
-9.90985
-9.90064
-9.88867
-9.87374
-9.85566
-9.83429
-9.80959
-9.78162
-9.75069
-9.71745
-9.68326
-9.65013
-9.62237
-9.60409
-9.60755
-9.72167
-9.75252
-9.79008
-9.81376
-9.83441
-9.85359
-9.86939
-9.88278
-9.89447
-9.90445
-9.91277
-9.91951
-9.92468
-9.92824
-9.93011
-9.9302
-9.92841
-9.92459
-9.91862
-9.91035
-9.89962
-9.88631
-9.8703
-9.85156
-9.83013
-9.8062
-9.78021
-9.75292
-9.72566
-9.70027
-9.68002
-9.66766
-9.66993
-9.74693
-9.76697
-9.7958
-9.81623
-9.83471
-9.85281
-9.86856
-9.88225
-9.89438
-9.90493
-9.91388
-9.92131
-9.9272
-9.93152
-9.93422
-9.93522
-9.93444
-9.93179
-9.92715
-9.92042
-9.91151
-9.90036
-9.88693
-9.87127
-9.85352
-9.83397
-9.81314
-9.7918
-9.77118
-9.7528
-9.73898
-9.73136
-9.73313
-9.76948
-9.78418
-9.80941
-9.82995
-9.84814
-9.8655
-9.88067
-9.8938
-9.90536
-9.91541
-9.92398
-9.93112
-9.93684
-9.94113
-9.94393
-9.94521
-9.94489
-9.94287
-9.93911
-9.93355
-9.92615
-9.91688
-9.90579
-9.89297
-9.87864
-9.86312
-9.84695
-9.83086
-9.81589
-9.80319
-9.79431
-9.79007
-9.79163
-9.78987
-9.80047
-9.82079
-9.8386
-9.85451
-9.87002
-9.88415
-9.89673
-9.90806
-9.91813
-9.92691
-9.93441
-9.94062
-9.94553
-9.94908
-9.95123
-9.95194
-9.95119
-9.94891
-9.94507
-9.93968
-9.93276
-9.92441
-9.91478
-9.90413
-9.89281
-9.88135
-9.8704
-9.86081
-9.85343
-9.84922
-9.84855
-9.85151
-9.80857
-9.81653
-9.83353
-9.85004
-9.86529
-9.88026
-9.89413
-9.90658
-9.91779
-9.92781
-9.9366
-9.9442
-9.95059
-9.95578
-9.95975
-9.96247
-9.96392
-9.9641
-9.96299
-9.96059
-9.95695
-9.95214
-9.94629
-9.93959
-9.93232
-9.92485
-9.91766
-9.91133
-9.90652
-9.90386
-9.90394
-9.90684
-9.91232
-9.82595
-9.83207
-9.84614
-9.86073
-9.87446
-9.888
-9.90081
-9.91256
-9.92333
-9.93313
-9.94192
-9.94969
-9.95644
-9.96215
-9.96681
-9.9704
-9.97291
-9.97434
-9.9747
-9.97405
-9.97246
-9.97003
-9.96693
-9.96336
-9.95962
-9.95607
-9.95315
-9.95137
-9.95125
-9.95327
-9.95779
-9.96483
-9.9741
-9.84228
-9.84713
-9.85892
-9.87201
-9.88479
-9.89763
-9.91003
-9.92162
-9.93236
-9.94225
-9.95123
-9.95928
-9.96642
-9.97263
-9.97791
-9.98227
-9.98574
-9.98835
-9.99012
-9.99112
-9.99146
-9.99126
-9.99072
-9.99007
-9.9896
-9.98967
-9.99068
-9.99306
-9.99727
-10.0037
-10.0125
-10.0239
-10.0376
-9.85775
-9.86169
-9.87166
-9.8833
-9.89499
-9.90684
-9.91846
-9.92949
-9.93987
-9.94956
-9.95852
-9.96674
-9.9742
-9.98091
-9.98687
-9.9921
-9.99663
-10.0005
-10.0037
-10.0065
-10.0089
-10.011
-10.0131
-10.0154
-10.0182
-10.0219
-10.0267
-10.0332
-10.0417
-10.0525
-10.0658
-10.0818
-10.1006
-9.87251
-9.87578
-9.88431
-9.89473
-9.90552
-9.91667
-9.92781
-9.93859
-9.9489
-9.95868
-9.96787
-9.97644
-9.98439
-9.99171
-9.99843
-10.0046
-10.0102
-10.0153
-10.0201
-10.0246
-10.0289
-10.0333
-10.0379
-10.043
-10.0489
-10.0559
-10.0643
-10.0746
-10.0871
-10.102
-10.1197
-10.1403
-10.164
-9.88665
-9.88944
-9.89683
-9.90618
-9.91614
-9.92657
-9.93715
-9.94755
-9.95763
-9.96733
-9.97658
-9.98536
-9.99367
-10.0015
-10.0089
-10.016
-10.0226
-10.029
-10.0353
-10.0414
-10.0477
-10.0543
-10.0613
-10.0692
-10.078
-10.0882
-10.1001
-10.1141
-10.1303
-10.1493
-10.1712
-10.1963
-10.225
-9.90027
-9.90269
-9.90918
-9.91763
-9.92687
-9.93672
-9.94687
-9.95703
-9.96703
-9.9768
-9.98628
-9.99543
-10.0043
-10.0128
-10.021
-10.0289
-10.0367
-10.0444
-10.0522
-10.06
-10.0682
-10.0769
-10.0863
-10.0967
-10.1084
-10.1215
-10.1366
-10.1539
-10.1737
-10.1963
-10.2221
-10.2514
-10.2846
-9.91342
-9.91556
-9.92133
-9.92903
-9.93765
-9.94697
-9.95673
-9.96663
-9.97651
-9.9863
-9.99593
-10.0054
-10.0146
-10.0237
-10.0326
-10.0415
-10.0503
-10.0592
-10.0683
-10.0778
-10.0878
-10.0985
-10.1101
-10.1229
-10.1371
-10.1531
-10.1711
-10.1914
-10.2144
-10.2405
-10.2698
-10.3029
-10.3401
-9.92615
-9.92806
-9.93327
-9.94035
-9.94844
-9.95733
-9.96676
-9.97648
-9.98632
-9.9962
-10.0061
-10.0159
-10.0256
-10.0353
-10.045
-10.0548
-10.0647
-10.0749
-10.0854
-10.0965
-10.1082
-10.1208
-10.1344
-10.1495
-10.1661
-10.1845
-10.2052
-10.2283
-10.2541
-10.2831
-10.3155
-10.3517
-10.3922
-9.93846
-9.94021
-9.94498
-9.95155
-9.9592
-9.96772
-9.97689
-9.98645
-9.99625
-10.0062
-10.0163
-10.0264
-10.0366
-10.0469
-10.0573
-10.068
-10.0789
-10.0902
-10.102
-10.1145
-10.1278
-10.1421
-10.1576
-10.1746
-10.1934
-10.2141
-10.237
-10.2625
-10.2908
-10.3223
-10.3572
-10.396
-10.4391
-9.95039
-9.95201
-9.95643
-9.9626
-9.96989
-9.97811
-9.98706
-9.99652
-10.0063
-10.0164
-10.0267
-10.0372
-10.0479
-10.0588
-10.07
-10.0814
-10.0933
-10.1057
-10.1188
-10.1326
-10.1474
-10.1633
-10.1805
-10.1993
-10.2199
-10.2425
-10.2674
-10.2949
-10.3252
-10.3587
-10.3956
-10.4362
-10.4811
-9.96194
-9.96345
-9.9676
-9.97346
-9.98046
-9.98845
-9.99724
-10.0066
-10.0165
-10.0267
-10.0372
-10.0481
-10.0592
-10.0707
-10.0825
-10.0948
-10.1076
-10.121
-10.1351
-10.1502
-10.1662
-10.1835
-10.2022
-10.2226
-10.2447
-10.2689
-10.2955
-10.3245
-10.3564
-10.3913
-10.4295
-10.4714
-10.5172
-9.9731
-9.97453
-9.97848
-9.98409
-9.99086
-9.99868
-10.0074
-10.0167
-10.0266
-10.037
-10.0478
-10.059
-10.0705
-10.0826
-10.095
-10.108
-10.1216
-10.1359
-10.1511
-10.1672
-10.1844
-10.2029
-10.2229
-10.2445
-10.2679
-10.2934
-10.3211
-10.3513
-10.3842
-10.42
-10.4591
-10.5014
-10.5475
-9.98385
-9.98523
-9.98902
-9.99445
-10.0011
-10.0088
-10.0174
-10.0267
-10.0367
-10.0473
-10.0583
-10.0698
-10.0818
-10.0944
-10.1074
-10.1211
-10.1355
-10.1506
-10.1666
-10.1837
-10.2019
-10.2214
-10.2423
-10.2649
-10.2893
-10.3157
-10.3443
-10.3752
-10.4087
-10.445
-10.4842
-10.5264
-10.5721
-9.99417
-9.99551
-9.9992
-10.0045
-10.011
-10.0186
-10.0272
-10.0366
-10.0466
-10.0573
-10.0686
-10.0805
-10.0929
-10.1058
-10.1194
-10.1337
-10.1486
-10.1645
-10.1812
-10.199
-10.218
-10.2383
-10.26
-10.2833
-10.3084
-10.3353
-10.3643
-10.3956
-10.4292
-10.4653
-10.5041
-10.5457
-10.5903
-10.004
-10.0054
-10.009
-10.0142
-10.0206
-10.0282
-10.0368
-10.0463
-10.0565
-10.0674
-10.0789
-10.0911
-10.1038
-10.1172
-10.1313
-10.1461
-10.1617
-10.1781
-10.1955
-10.2139
-10.2335
-10.2543
-10.2766
-10.3004
-10.3258
-10.353
-10.3821
-10.4133
-10.4466
-10.4822
-10.5201
-10.5605
-10.6036
-10.0134
-10.0147
-10.0183
-10.0235
-10.0299
-10.0374
-10.0461
-10.0556
-10.0659
-10.0769
-10.0887
-10.1011
-10.1141
-10.1279
-10.1423
-10.1575
-10.1735
-10.1903
-10.2081
-10.227
-10.2469
-10.2681
-10.2906
-10.3146
-10.34
-10.3671
-10.396
-10.4267
-10.4592
-10.4938
-10.5305
-10.5692
-10.6102
-10.0222
-10.0235
-10.0271
-10.0323
-10.0387
-10.0464
-10.0551
-10.0647
-10.0752
-10.0865
-10.0985
-10.1112
-10.1246
-10.1386
-10.1535
-10.169
-10.1854
-10.2026
-10.2208
-10.2399
-10.2601
-10.2815
-10.3041
-10.328
-10.3533
-10.3801
-10.4084
-10.4383
-10.4698
-10.5031
-10.5381
-10.5748
-10.6133
-10.0304
-10.0317
-10.0353
-10.0405
-10.047
-10.0546
-10.0634
-10.0731
-10.0837
-10.0951
-10.1072
-10.1201
-10.1336
-10.1479
-10.1629
-10.1787
-10.1953
-10.2127
-10.2309
-10.2502
-10.2704
-10.2917
-10.3141
-10.3376
-10.3624
-10.3885
-10.4159
-10.4447
-10.4748
-10.5064
-10.5394
-10.5738
-10.6096
-10.0379
-10.0393
-10.0429
-10.0483
-10.0549
-10.0627
-10.0717
-10.0816
-10.0924
-10.1041
-10.1165
-10.1296
-10.1434
-10.158
-10.1732
-10.1892
-10.206
-10.2235
-10.2419
-10.2611
-10.2813
-10.3024
-10.3244
-10.3476
-10.3717
-10.397
-10.4233
-10.4508
-10.4794
-10.5091
-10.5399
-10.5717
-10.6046
-10.0447
-10.046
-10.0497
-10.0551
-10.0617
-10.0696
-10.0786
-10.0885
-10.0994
-10.1111
-10.1236
-10.1368
-10.1507
-10.1653
-10.1806
-10.1967
-10.2134
-10.2309
-10.2491
-10.2681
-10.288
-10.3086
-10.3301
-10.3525
-10.3758
-10.3999
-10.4249
-10.4508
-10.4775
-10.5051
-10.5335
-10.5626
-10.5924
-10.0505
-10.052
-10.056
-10.0617
-10.0687
-10.0769
-10.0862
-10.0965
-10.1077
-10.1197
-10.1324
-10.1459
-10.16
-10.1747
-10.1902
-10.2063
-10.223
-10.2404
-10.2585
-10.2773
-10.2968
-10.317
-10.3378
-10.3594
-10.3817
-10.4047
-10.4283
-10.4526
-10.4775
-10.5029
-10.5288
-10.5552
-10.5819
-10.0553
-10.0567
-10.0606
-10.0663
-10.0733
-10.0815
-10.0908
-10.1011
-10.1124
-10.1244
-10.1372
-10.1506
-10.1648
-10.1795
-10.1949
-10.2109
-10.2275
-10.2447
-10.2625
-10.2809
-10.2998
-10.3193
-10.3393
-10.3599
-10.381
-10.4026
-10.4246
-10.447
-10.4698
-10.4929
-10.5161
-10.5399
-10.5636
-10.0592
-10.061
-10.0657
-10.0721
-10.0798
-10.0886
-10.0984
-10.1091
-10.1207
-10.1329
-10.1459
-10.1595
-10.1738
-10.1886
-10.2039
-10.2198
-10.2362
-10.2532
-10.2706
-10.2886
-10.307
-10.3258
-10.3451
-10.3647
-10.3847
-10.405
-10.4256
-10.4463
-10.4671
-10.4881
-10.5092
-10.5299
-10.5505
-10.0609
-10.0623
-10.0667
-10.073
-10.0805
-10.0894
-10.0994
-10.1103
-10.122
-10.1345
-10.1476
-10.1613
-10.1755
-10.1904
-10.2057
-10.2214
-10.2376
-10.2543
-10.2713
-10.2887
-10.3064
-10.3244
-10.3427
-10.3613
-10.3799
-10.3987
-10.4176
-10.4365
-10.4553
-10.4739
-10.4923
-10.5104
-10.5281
-10.0628
-10.0657
-10.0719
-10.0796
-10.0882
-10.0975
-10.1076
-10.1188
-10.1308
-10.1433
-10.1565
-10.1702
-10.1844
-10.1991
-10.2141
-10.2297
-10.2456
-10.2619
-10.2785
-10.2954
-10.3126
-10.3299
-10.3474
-10.365
-10.3829
-10.4001
-10.4175
-10.4348
-10.4519
-10.4686
-10.4849
-10.5007
-10.5159
-10.0586
-10.0599
-10.0656
-10.0734
-10.0823
-10.0927
-10.1042
-10.1159
-10.1283
-10.1412
-10.1546
-10.1685
-10.1832
-10.1981
-10.2132
-10.2286
-10.2443
-10.2602
-10.2763
-10.2924
-10.3088
-10.3253
-10.3417
-10.358
-10.374
-10.3904
-10.4062
-10.4216
-10.4367
-10.4512
-10.4652
-10.4786
-10.4912
-10.0597
-10.0657
-10.0747
-10.0836
-10.093
-10.1034
-10.1143
-10.1257
-10.1378
-10.1505
-10.1637
-10.1773
-10.1911
-10.2054
-10.2203
-10.2355
-10.2509
-10.2666
-10.2825
-10.2986
-10.3145
-10.3305
-10.3464
-10.3621
-10.3776
-10.3929
-10.4078
-10.4222
-10.4361
-10.4493
-10.4619
-10.4736
-10.4843
-10.0395
-10.044
-10.0562
-10.0679
-10.0798
-10.0925
-10.1054
-10.1185
-10.1319
-10.1455
-10.1593
-10.1734
-10.1877
-10.2024
-10.2173
-10.2324
-10.2475
-10.2628
-10.278
-10.2932
-10.3084
-10.3234
-10.3382
-10.3527
-10.3668
-10.3805
-10.3937
-10.4063
-10.4183
-10.4295
-10.4399
-10.4495
-10.4582
-10.0526
-10.0628
-10.0739
-10.0829
-10.0932
-10.1042
-10.1155
-10.1273
-10.1397
-10.1526
-10.1659
-10.1796
-10.1938
-10.2082
-10.223
-10.238
-10.2532
-10.2685
-10.2838
-10.2992
-10.3145
-10.3296
-10.3446
-10.3592
-10.3734
-10.3872
-10.4004
-10.413
-10.4249
-10.4359
-10.446
-10.455
-10.463
-9.95379
-10.021
-10.0469
-10.0605
-10.0775
-10.0935
-10.1077
-10.1215
-10.1353
-10.149
-10.1628
-10.1768
-10.1909
-10.2052
-10.2196
-10.2341
-10.2486
-10.2631
-10.2775
-10.2918
-10.3058
-10.3196
-10.3329
-10.3459
-10.3583
-10.3701
-10.3812
-10.3916
-10.4011
-10.4096
-10.4172
-10.4237
-10.4291
-8.95065
-9.83184
-10.4458
-10.8184
-10.0876
-8.18099
-5.56147
-3.78164
-3.76481
-5.03871
-7.53325
-11.282
-15.8183
-20.7437
-25.6942
-30.3603
-34.4794
-37.8075
-40.0991
-41.2076
-41.108
-39.9308
-37.8319
-34.924
-31.3588
-27.4208
-23.4591
-19.7234
-16.3223
-13.2937
-10.6494
-8.38627
-6.48586
-4.9163
-3.63882
-2.61311
-1.80049
-1.16562
-0.677261
-0.308477
-0.0364936
0.157605
0.289257
0.370788
0.411772
0.419373
0.398314
0.351237
0.279765
0.181017
0.0472979
-0.140133
-0.405237
-0.748428
-1.14947
-1.6034
-2.14911
-2.86847
-3.86393
-5.24511
-7.16297
-9.84332
-13.6837
-19.3795
-28.004
-40.5103
-54.7357
-66.2255
-72.4504
-72.3537
-65.9813
-54.6757
-40.7744
-27.5445
-17.2485
-10.2507
-5.81965
-3.37176
-3.0485
-5.3945
-10.3285
-16.0083
-19.9918
-20.828
-18.6855
-14.6628
-10.331
-6.74897
-4.22401
-2.59508
-1.58567
-0.976358
-0.619019
-0.411896
-0.287777
-0.197444
-0.138119
-0.0645354
-0.0835318
0.0645926
-9.34501
-9.99977
-10.2359
-10.1133
-9.43328
-7.93885
-5.96481
-4.40979
-3.81179
-4.77725
-7.54775
-11.3471
-15.5984
-20.1247
-24.6891
-29.0137
-32.8389
-35.9303
-38.0652
-39.1507
-39.1738
-38.1742
-36.2093
-33.3904
-29.9499
-26.2297
-22.5507
-19.0922
-15.9257
-13.0812
-10.5755
-8.41291
-6.58147
-5.05584
-3.80326
-2.78855
-1.97715
-1.3369
-0.838952
-0.458124
-0.172899
0.0347633
0.179708
0.273878
0.326599
0.344895
0.33347
0.294823
0.230322
0.137409
0.00923922
-0.170835
-0.426826
-0.764211
-1.1661
-1.62584
-2.17773
-2.90063
-3.89839
-5.28303
-7.20524
-9.88938
-13.7305
-19.418
-28.0207
-40.431
-54.5221
-65.9836
-72.2345
-72.2843
-65.924
-54.761
-40.9757
-27.841
-17.6505
-10.7852
-6.49214
-4.14109
-3.80231
-5.935
-10.4034
-15.5184
-19.0128
-19.5914
-17.517
-13.8313
-9.89534
-6.60123
-4.22748
-2.65977
-1.66726
-1.05494
-0.685794
-0.463877
-0.325893
-0.22495
-0.157705
-0.0792697
-0.0892173
0.0576208
-9.48507
-9.77783
-9.92925
-9.87846
-9.38615
-8.22088
-6.64456
-5.33505
-4.94935
-5.91455
-8.20258
-11.5561
-15.5546
-19.7783
-23.9535
-27.8849
-31.3708
-34.2138
-36.2352
-37.3357
-37.4107
-36.4313
-34.4677
-31.7094
-28.4538
-25.0261
-21.663
-18.482
-15.5384
-12.8674
-10.4947
-8.43062
-6.66833
-5.18783
-3.96178
-2.95979
-2.15121
-1.50697
-1.00059
-0.608642
-0.310874
-0.0901605
0.0677183
0.174289
0.238607
0.267523
0.265693
0.235532
0.178105
0.09118
-0.0314291
-0.204506
-0.451406
-0.781943
-1.18284
-1.64703
-2.20464
-2.93075
-3.92957
-5.31516
-7.23776
-9.91944
-13.7508
-19.4099
-27.9488
-40.1957
-54.0798
-65.4425
-71.6982
-71.8859
-65.5967
-54.6203
-41.0228
-28.049
-18.0114
-11.3041
-7.16146
-4.91397
-4.5672
-6.50407
-10.5267
-15.1052
-18.1484
-18.504
-16.4915
-13.0962
-9.50295
-6.46564
-4.23241
-2.72397
-1.74849
-1.1334
-0.752701
-0.51632
-0.364767
-0.253311
-0.177984
-0.094521
-0.095311
0.0501346
-9.55518
-9.74468
-9.84583
-9.71185
-9.22721
-8.33833
-7.26864
-6.45926
-6.31159
-7.13336
-9.08459
-12.0504
-15.6471
-19.5189
-23.3838
-27.0095
-30.2038
-32.8325
-34.7058
-35.6616
-35.5718
-34.4734
-32.5122
-29.9181
-26.9597
-23.8745
-20.8212
-17.8945
-15.1554
-12.649
-10.4058
-8.43913
-6.74612
-5.31179
-4.11382
-3.12625
-2.32214
-1.67537
-1.16179
-0.75969
-0.450139
-0.216937
-0.0465224
0.0721818
0.147931
0.187373
0.195077
0.173422
0.123191
0.042378
-0.0746995
-0.240891
-0.478167
-0.8003
-1.19849
-1.66598
-2.22865
-2.95711
-3.95502
-5.33815
-7.25605
-9.92746
-13.7358
-19.3426
-27.7695
-39.7808
-53.3821
-64.5819
-70.8101
-71.0952
-64.9838
-54.2488
-40.9105
-28.1626
-18.3253
-11.8008
-7.8193
-5.68132
-5.33459
-7.09105
-10.6978
-14.7712
-17.3923
-17.5451
-15.5859
-12.4419
-9.14702
-6.33988
-4.2379
-2.7871
-1.8288
-1.21132
-0.819416
-0.568956
-0.404101
-0.282171
-0.198546
-0.109751
-0.101145
0.0431652
-9.63287
-9.7314
-9.75917
-9.61283
-9.2337
-8.5922
-7.83585
-7.30028
-7.32036
-8.13374
-9.86409
-12.4459
-15.6346
-19.142
-22.6879
-26.0278
-28.9648
-31.3401
-32.8874
-33.5781
-33.3463
-32.2601
-30.4702
-28.1701
-25.5554
-22.7944
-20.0181
-17.3224
-14.7757
-12.4275
-10.31
-8.43891
-6.81492
-5.42761
-4.25914
-3.28762
-2.48958
-1.84176
-1.32221
-0.911007
-0.590492
-0.345427
-0.162939
-0.0324291
0.0545344
0.104373
0.121535
0.10839
0.0654989
-0.00902744
-0.120466
-0.279889
-0.50734
-0.819712
-1.21332
-1.68246
-2.24905
-2.97868
-3.97326
-5.34988
-7.25698
-9.90891
-13.6786
-19.2068
-27.4725
-39.1797
-52.4257
-63.4032
-69.5638
-69.9191
-64.0756
-53.6376
-40.6277
-28.1738
-18.5864
-12.2702
-8.45943
-6.43621
-6.09705
-7.6886
-10.9157
-14.5138
-16.7371
-16.6984
-14.7815
-11.856
-8.82324
-6.22377
-4.24442
-2.84926
-1.90805
-1.28843
-0.885699
-0.621587
-0.443762
-0.311483
-0.219471
-0.125213
-0.107218
0.035938
-9.68441
-9.73196
-9.73127
-9.60032
-9.29521
-8.81675
-8.29381
-7.97986
-8.13483
-8.94326
-10.4874
-12.719
-15.4723
-18.5344
-21.6724
-24.6522
-27.2571
-29.2606
-30.6333
-31.2158
-31.0191
-30.0972
-28.5675
-26.5726
-24.2614
-21.7779
-19.247
-16.7645
-14.4001
-12.2036
-10.2077
-8.43009
-6.87473
-5.53512
-4.39745
-3.44353
-2.65314
-2.00572
-1.48151
-1.06227
-0.731665
-0.475414
-0.28136
-0.139411
-0.0414813
0.0186029
0.0451398
0.0404907
0.00506665
-0.0629984
-0.168635
-0.321374
-0.539025
-0.840506
-1.22756
-1.69633
-2.26544
-2.99492
-3.98373
-5.34972
-7.23977
-9.86269
-13.5779
-19.0007
-27.0583
-38.3949
-51.2137
-61.9112
-67.9687
-68.3947
-62.8723
-52.7839
-40.169
-28.0777
-18.7903
-12.7073
-9.07508
-7.17023
-6.84592
-8.28917
-11.1768
-14.3308
-16.1801
-15.9559
-14.0671
-11.331
-8.52935
-6.11736
-4.25217
-2.91032
-1.98592
-1.36441
-0.95128
-0.673978
-0.483522
-0.341007
-0.240512
-0.140593
-0.113116
0.0290735
-9.74146
-9.76184
-9.74388
-9.63063
-9.39985
-9.0702
-8.74239
-8.60139
-8.84624
-9.62397
-11.0002
-12.9406
-15.3148
-17.9473
-20.6485
-23.2235
-25.4857
-27.2775
-28.5114
-29.0672
-28.9443
-28.183
-26.8684
-25.1149
-23.0524
-20.8107
-18.5039
-16.2213
-14.0299
-11.9782
-10.0995
-8.41308
-6.9257
-5.63428
-4.52855
-3.59369
-2.81248
-2.16692
-1.63935
-1.21319
-0.873404
-0.606696
-0.401637
-0.248663
-0.14006
-0.0699156
-0.0341054
-0.0302932
-0.0581439
-0.119535
-0.219113
-0.365158
-0.573143
-0.862812
-1.24129
-1.70737
-2.27724
-3.00506
-3.98562
-5.33673
-7.2032
-9.78732
-13.4323
-18.7234
-26.528
-37.4306
-49.7532
-60.1153
-66.0456
-66.5545
-61.3741
-51.6867
-39.5314
-27.8711
-18.9337
-13.1082
-9.66026
-7.87559
-7.57295
-8.88476
-11.474
-14.2177
-15.7185
-15.3135
-13.4366
-10.8634
-8.265
-6.0216
-4.2618
-2.97043
-2.06226
-1.43903
-1.01592
-0.725913
-0.523198
-0.370604
-0.261631
-0.155989
-0.119112
0.0221458
-9.79651
-9.80335
-9.78196
-9.69656
-9.53661
-9.32574
-9.14509
-9.13439
-9.44597
-10.1949
-11.4329
-13.1331
-15.1937
-17.4713
-19.8071
-22.0382
-24.0144
-25.5994
-26.6915
-27.1994
-27.1128
-26.4606
-25.3096
-23.7566
-21.9129
-19.8908
-17.7909
-15.695
-13.6663
-11.7521
-9.98595
-8.38822
-6.96801
-5.72509
-4.65229
-3.73782
-2.96726
-2.325
-1.79538
-1.36344
-1.01543
-0.739036
-0.523574
-0.360029
-0.241079
-0.161085
-0.116113
-0.103881
-0.124072
-0.178574
-0.2718
-0.41106
-0.609601
-0.886825
-1.25469
-1.71555
-2.28398
-3.00831
-3.97813
-5.30987
-7.14589
-9.68106
-13.24
-18.3737
-25.8836
-36.2944
-48.058
-58.0322
-63.8146
-64.4163
-59.5868
-50.3493
-38.7166
-27.5534
-19.0148
-13.4694
-10.2097
-8.54507
-8.26932
-9.46572
-11.7933
-14.1654
-15.3471
-14.7687
-12.889
-10.4524
-8.03101
-5.93767
-4.27399
-3.02968
-2.1369
-1.51203
-1.07937
-0.777146
-0.56256
-0.40006
-0.282632
-0.171183
-0.12497
0.0155237
-9.85643
-9.86032
-9.84488
-9.78896
-9.69029
-9.57484
-9.50876
-9.59734
-9.95549
-10.6718
-11.7866
-13.2802
-15.074
-17.0517
-19.0796
-21.0191
-22.7377
-24.116
-25.0657
-25.5163
-25.4484
-24.8814
-23.8693
-22.4921
-20.8436
-19.0198
-17.1091
-15.1859
-13.3097
-11.5259
-9.8676
-8.356
-7.00195
-5.80762
-4.76856
-3.87572
-3.1172
-2.47963
-1.94926
-1.51271
-1.15746
-0.872186
-0.646967
-0.473347
-0.344412
-0.254812
-0.200812
-0.180212
-0.192685
-0.240075
-0.326614
-0.458898
-0.648219
-0.912676
-1.26802
-1.72095
-2.28532
-3.00404
-3.96052
-5.26834
-7.06692
-9.5429
-13.0005
-17.9525
-25.1303
-34.9994
-46.1489
-55.6863
-61.2963
-61.9947
-57.5241
-48.7814
-37.7305
-27.1271
-19.0334
-13.7887
-10.7196
-9.17249
-8.92644
-10.0218
-12.118
-14.1624
-15.0585
-14.3183
-12.425
-10.0984
-7.82878
-5.86704
-4.28952
-3.08828
-2.20972
-1.58318
-1.14136
-0.827423
-0.601376
-0.429188
-0.303411
-0.186158
-0.130811
0.00901003
-9.91973
-9.92663
-9.92224
-9.89577
-9.85057
-9.81184
-9.83297
-9.99357
-10.3802
-11.0604
-12.0649
-13.3785
-14.9394
-16.6536
-18.4092
-20.0884
-21.5755
-22.7715
-23.5965
-23.9905
-23.9318
-23.4345
-22.5414
-21.3178
-19.8421
-18.1964
-16.4581
-14.6946
-12.9609
-11.3004
-9.74517
-8.31693
-7.02781
-5.88198
-4.87732
-4.0072
-3.26202
-2.6305
-2.10067
-1.66066
-1.29918
-1.00588
-0.771582
-0.588416
-0.449889
-0.350952
-0.288075
-0.259163
-0.263874
-0.303946
-0.383459
-0.508497
-0.68876
-0.940414
-1.2816
-1.72372
-2.28104
-2.99169
-3.93212
-5.21155
-6.96576
-9.37249
-12.7144
-17.4626
-24.2768
-33.5631
-44.0526
-53.1087
-58.5207
-59.3129
-55.2079
-46.9988
-36.5838
-26.5977
-18.991
-14.0651
-11.1874
-9.75291
-9.53639
-10.5428
-12.433
-14.1958
-14.842
-13.9565
-12.0435
-9.80168
-7.6597
-5.81108
-4.30916
-3.14641
-2.2806
-1.65224
-1.20162
-0.876455
-0.63938
-0.457756
-0.323774
-0.200736
-0.136502
0.00282656
-9.9862
-10.0002
-10.0099
-10.0115
-10.0114
-10.0329
-10.1189
-10.33
-10.7311
-11.3729
-12.2783
-13.4344
-14.7922
-16.2753
-17.791
-19.2397
-20.524
-21.5559
-22.2667
-22.6051
-22.5503
-22.1104
-21.3189
-20.2287
-18.9055
-17.4193
-15.8379
-14.2214
-12.6206
-11.0763
-9.61936
-8.27156
-7.04597
-5.94834
-4.97856
-4.13212
-3.4015
-2.77731
-2.24929
-1.80699
-1.44029
-1.13983
-0.897164
-0.705015
-0.557322
-0.449345
-0.377763
-0.340606
-0.337526
-0.370094
-0.442239
-0.559698
-0.730949
-0.969983
-1.2958
-1.72419
-2.27111
-2.97081
-3.89236
-5.13912
-6.84224
-9.1701
-12.3831
-16.9086
-23.3339
-32.0068
-41.801
-50.3368
-55.5248
-56.4027
-52.6669
-45.0234
-35.2923
-25.9742
-18.8906
-14.2986
-11.6119
-10.2831
-10.0929
-11.0186
-12.7255
-14.2519
-14.6844
-13.6748
-11.7407
-9.5615
-7.52473
-5.77088
-4.33358
-3.20426
-2.34942
-1.71894
-1.25982
-0.923936
-0.676292
-0.485532
-0.343559
-0.214828
-0.142083
-0.00309508
-10.0555
-10.0784
-10.1031
-10.1299
-10.1668
-10.2346
-10.3678
-10.6124
-11.0167
-11.6183
-12.4337
-13.4516
-14.6325
-15.9142
-17.2197
-18.4656
-19.5688
-20.4546
-21.0626
-21.3489
-21.2931
-20.8993
-20.1936
-19.2191
-18.0304
-16.6871
-15.2479
-13.7666
-12.2894
-10.8543
-9.49089
-8.22049
-7.05683
-6.00694
-5.07235
-4.25041
-3.53543
-2.9198
-2.39481
-1.95135
-1.58048
-1.27373
-1.02344
-0.822894
-0.666483
-0.549787
-0.469692
-0.424363
-0.413476
-0.438382
-0.502838
-0.612353
-0.774503
-1.00121
-1.31091
-1.7229
-2.25576
-2.94112
-3.84078
-5.05083
-6.69658
-8.93666
-12.0091
-16.2964
-22.3147
-30.3554
-39.4302
-47.4141
-52.3523
-53.3034
-49.9366
-42.8834
-33.8766
-25.2688
-18.7373
-14.4902
-11.993
-10.7615
-10.5924
-11.4411
-12.9835
-14.3155
-14.5705
-13.4624
-11.5106
-9.37735
-7.42406
-5.74719
-4.36329
-3.26196
-2.41602
-1.78299
-1.31565
-0.969527
-0.711805
-0.512255
-0.362573
-0.228271
-0.147457
-0.00861111
-10.1251
-10.1578
-10.1973
-10.246
-10.3128
-10.4155
-10.5817
-10.8462
-11.2448
-11.8053
-12.5385
-13.4345
-14.461
-15.567
-16.6888
-17.7565
-18.6999
-19.4556
-19.971
-20.2079
-20.1473
-19.7908
-19.158
-18.284
-17.2139
-15.9982
-14.6879
-13.3306
-11.968
-10.6353
-9.36048
-8.16433
-7.06087
-6.05805
-5.15878
-4.362
-3.66367
-3.05773
-2.53693
-2.09345
-1.71941
-1.40727
-1.1501
-0.941774
-0.777118
-0.652044
-0.563651
-0.510239
-0.491528
-0.508644
-0.565131
-0.666317
-0.819144
-1.03381
-1.32714
-1.72049
-2.23553
-2.90268
-3.77716
-4.94673
-6.52945
-8.67385
-11.5959
-15.6337
-21.234
-28.6362
-36.9793
-44.388
-49.0525
-50.0613
-47.0586
-40.6124
-32.361
-24.4966
-18.5373
-14.6417
-12.3315
-11.1894
-11.0343
-11.8056
-13.1977
-14.3697
-14.4847
-13.3072
-11.3462
-9.24779
-7.35681
-5.74025
-4.39861
-3.31954
-2.4802
-1.84406
-1.36873
-1.01287
-0.745595
-0.537657
-0.380628
-0.240945
-0.152607
-0.0137169
-10.1951
-10.2375
-10.2903
-10.3573
-10.447
-10.5748
-10.7624
-11.0362
-11.4226
-11.9412
-12.5992
-13.3873
-14.2786
-15.2312
-16.1925
-17.1039
-17.9069
-18.5472
-18.9794
-19.1706
-19.1031
-18.7763
-18.2054
-17.4184
-16.4527
-15.3511
-14.1573
-12.9133
-11.6568
-10.4199
-9.22886
-8.10373
-7.05856
-6.10198
-5.23802
-4.46692
-3.78608
-3.19088
-2.67538
-2.23295
-1.85675
-1.54012
-1.27684
-1.06135
-0.88894
-0.755847
-0.659385
-0.597996
-0.571439
-0.580669
-0.628972
-0.721449
-0.864632
-1.06743
-1.34455
-1.71765
-2.21127
-2.85597
-3.70155
-4.82707
-6.34188
-8.38393
-11.1478
-14.9289
-20.1077
-26.8763
-34.488
-41.308
-45.6786
-46.7276
-44.0793
-38.2487
-30.7732
-23.6751
-18.2982
-14.7556
-12.6296
-11.5702
-11.4209
-12.1117
-13.3618
-14.3991
-14.4124
-13.1967
-11.2389
-9.16881
-7.3214
-5.74981
-4.4396
-3.37691
-2.54171
-1.9018
-1.41866
-1.05357
-0.777313
-0.561446
-0.397509
-0.252682
-0.157451
-0.0183075
-10.2626
-10.3139
-10.3784
-10.4601
-10.567
-10.7119
-10.9119
-11.187
-11.5561
-12.0331
-12.6221
-13.3142
-14.087
-14.9059
-15.7271
-16.502
-17.1816
-17.7198
-18.0776
-18.2265
-18.1506
-17.8477
-17.3293
-16.6179
-15.7441
-14.7441
-13.6555
-12.515
-11.3563
-10.2088
-9.09673
-8.03934
-7.05044
-6.13912
-5.31024
-4.56519
-3.90258
-3.31906
-2.80989
-2.36955
-1.99217
-1.67193
-1.4033
-1.18129
-1.00163
-0.86089
-0.756607
-0.687361
-0.652942
-0.654202
-0.694147
-0.777577
-0.910741
-1.10168
-1.36297
-1.71502
-2.18414
-2.80196
-3.61449
-4.6924
-6.13525
-8.06973
-10.67
-14.1912
-18.952
-25.1014
-31.9956
-38.2236
-42.2846
-43.3558
-41.0486
-35.8344
-29.1452
-22.8236
-18.0282
-14.8349
-12.8902
-11.9087
-11.7575
-12.3648
-13.4747
-14.3949
-14.3417
-13.1189
-11.1793
-9.13483
-7.31631
-5.77512
-4.48602
-3.43384
-2.6002
-1.9558
-1.46501
-1.09122
-0.806587
-0.583315
-0.412994
-0.263321
-0.161935
-0.0223441
-10.3279
-10.3869
-10.4608
-10.5536
-10.6723
-10.8277
-11.0329
-11.3028
-11.6511
-12.0871
-12.6126
-13.2191
-13.8877
-14.5898
-15.2889
-15.9448
-16.5163
-16.9644
-17.256
-17.3665
-17.2813
-16.9976
-16.5239
-15.8779
-15.085
-14.1756
-13.1817
-12.1356
-11.067
-10.0025
-8.96481
-7.9718
-7.03705
-6.16985
-5.3757
-4.65689
-4.01311
-3.4421
-2.94022
-2.50294
-2.12533
-1.80234
-1.52912
-1.30123
-1.11483
-0.966833
-0.854987
-0.778025
-0.735752
-0.728966
-0.760411
-0.834518
-0.95728
-1.13619
-1.38208
-1.71303
-2.15544
-2.74219
-3.51711
-4.54367
-5.91117
-7.73437
-10.168
-13.43
-17.7827
-23.3363
-29.5389
-35.1824
-38.9241
-40.0001
-38.0174
-33.4133
-27.5114
-21.9618
-17.7357
-14.8829
-13.1166
-12.2108
-12.053
-12.5743
-13.5427
-14.3548
-14.2643
-13.0635
-11.158
-9.14007
-7.33977
-5.81482
-4.53728
-3.48991
-2.65523
-2.00557
-1.50731
-1.12536
-0.833022
-0.602935
-0.426842
-0.272683
-0.165979
-0.0257288
-10.3884
-10.4538
-10.5349
-10.6356
-10.7618
-10.9222
-11.1271
-11.3873
-11.7125
-12.1086
-12.5757
-13.1058
-13.6829
-14.2828
-14.8756
-15.4277
-15.9047
-16.2736
-16.5066
-16.5822
-16.4875
-16.2193
-15.7835
-15.1944
-14.4727
-13.6439
-12.7353
-11.7749
-10.7891
-9.80183
-8.83376
-7.90179
-7.01896
-6.1946
-5.43467
-4.74216
-4.11767
-3.55988
-3.06614
-2.63285
-2.2559
-1.931
-1.65393
-1.42079
-1.22817
-1.07329
-0.954152
-0.869618
-0.819517
-0.804613
-0.827431
-0.892008
-1.00403
-1.17064
-1.40142
-1.71181
-2.12646
-2.67869
-3.41135
-4.38246
-5.67159
-7.38117
-9.64729
-12.6543
-16.6145
-21.6033
-27.1506
-32.2271
-35.6481
-36.7125
-35.0354
-31.0289
-25.9058
-21.1083
-17.4285
-14.9031
-13.3126
-12.4834
-12.319
-12.7527
-13.5796
-14.2831
-14.1762
-13.0227
-11.1666
-9.17858
-7.3885
-5.86728
-4.59241
-3.54447
-2.70621
-2.05055
-1.54502
-1.1555
-0.856193
-0.619957
-0.438797
-0.280585
-0.16951
-0.0283944
-10.4444
-10.5147
-10.6008
-10.7063
-10.8361
-10.9972
-11.1973
-11.4443
-11.7449
-12.1025
-12.5159
-12.9777
-13.474
-13.9847
-14.4849
-14.9466
-15.3411
-15.6408
-15.822
-15.8663
-15.7623
-15.5065
-15.1031
-14.5634
-13.9045
-13.1473
-12.3154
-11.4328
-10.5229
-9.60714
-8.70423
-7.82994
-6.99673
-6.21383
-5.48745
-4.82115
-4.21626
-3.6723
-3.18746
-2.75899
-2.38354
-2.05752
-1.77732
-1.53956
-1.34122
-1.17986
-1.0537
-0.96175
-0.903878
-0.880806
-0.894879
-0.949769
-1.05078
-1.20478
-1.42052
-1.71112
-2.0982
-2.61379
-3.30002
-4.21128
-5.41893
-7.01346
-9.11315
-11.8722
-15.4594
-19.9206
-24.8559
-29.3939
-32.5016
-33.5391
-32.1497
-28.7239
-24.3605
-20.2797
-17.113
-14.8986
-13.4819
-12.7339
-12.5681
-12.9162
-13.6041
-14.1938
-14.0784
-12.9921
-11.1989
-9.24456
-7.4585
-5.93098
-4.65012
-3.59668
-2.75247
-2.09014
-1.57756
-1.18113
-0.875652
-0.634015
-0.448588
-0.286826
-0.17244
-0.0302411
-10.4943
-10.5678
-10.657
-10.7647
-10.895
-11.0533
-11.2454
-11.477
-11.7523
-12.0731
-12.4372
-12.8378
-13.2629
-13.6956
-14.1152
-14.4983
-14.821
-15.0602
-15.1959
-15.2123
-15.0995
-14.8538
-14.4781
-13.9815
-13.3776
-12.6842
-11.9211
-11.1092
-10.2688
-9.41896
-8.57683
-7.75691
-6.97097
-6.22801
-5.53438
-4.89405
-4.30894
-3.77928
-3.304
-2.88109
-2.50792
-2.18153
-1.89889
-1.6571
-1.45354
-1.28608
-1.15317
-1.05396
-0.988365
-0.957084
-0.962302
-1.00739
-1.09722
-1.23833
-1.43895
-1.71048
-2.07111
-2.5497
-3.18666
-4.03386
-5.15656
-6.63483
-8.5704
-11.0906
-14.3271
-18.3012
-22.6732
-26.71
-29.5184
-30.5192
-29.403
-26.5407
-22.9037
-19.4889
-16.7943
-14.8724
-13.6286
-12.9694
-12.8125
-13.0838
-13.6372
-14.1093
-13.9796
-12.9696
-11.2512
-9.33272
-7.54578
-6.00361
-4.70882
-3.64531
-2.79308
-2.12354
-1.60427
-1.20167
-0.890915
-0.644715
-0.45592
-0.291193
-0.174676
-0.0312011
-10.5381
-10.6135
-10.7038
-10.8114
-10.9394
-11.0922
-11.274
-11.4885
-11.7384
-12.0241
-12.3431
-12.6889
-13.0512
-13.4157
-13.765
-14.0799
-14.3402
-14.5267
-14.6226
-14.6143
-14.4932
-14.2559
-13.9041
-13.4449
-12.8897
-12.253
-11.5517
-10.8036
-10.0267
-9.23771
-8.45214
-7.6833
-6.94223
-6.23762
-5.57582
-4.96109