/*--------------------------------*- C++ -*----------------------------------*\
  =========                 |
  \\      /  F ield         | OpenFOAM: The Open Source CFD Toolbox
   \\    /   O peration     | Website:  https://openfoam.org
    \\  /    A nd           | Version:  10
     \\/     M anipulation  |
\*---------------------------------------------------------------------------*/
FoamFile
{
    format      ascii;
    class       surfaceScalarField;
    location    "0.185";
    object      phi;
}
// * * * * * * * * * * * * * * * * * * * * * * * * * * * * * * * * * * * * * //

dimensions      [0 3 -1 0 0 0 0];

internalField   nonuniform List<scalar> 
13452
(
5.9453e-05
8.15414e-07
5.84722e-05
9.80864e-07
5.74501e-05
1.02206e-06
5.63995e-05
1.05064e-06
5.53487e-05
1.05083e-06
5.43093e-05
1.03937e-06
5.32852e-05
1.02414e-06
5.22785e-05
1.00665e-06
5.12906e-05
9.87899e-07
5.0322e-05
9.68588e-07
4.93729e-05
9.49089e-07
4.84433e-05
9.29644e-07
4.75328e-05
9.10452e-07
4.66411e-05
8.91688e-07
4.57676e-05
8.73521e-07
4.49115e-05
8.56134e-07
4.40718e-05
8.39733e-07
4.32472e-05
8.24562e-07
4.24363e-05
8.10915e-07
4.16371e-05
7.99153e-07
4.08474e-05
7.89724e-07
4.00642e-05
7.83187e-07
3.9284e-05
7.80245e-07
3.85022e-05
7.81787e-07
3.77132e-05
7.88951e-07
3.691e-05
8.03201e-07
3.60836e-05
8.26438e-07
3.52222e-05
8.61359e-07
3.43113e-05
9.1093e-07
3.33283e-05
9.83016e-07
3.22501e-05
1.07814e-06
3.10117e-05
1.23848e-06
1.4668e-06
2.95449e-05
6.24899e-05
3.15841e-07
6.29655e-05
5.05291e-07
6.3413e-05
5.74529e-07
6.38231e-05
6.40557e-07
6.41883e-05
6.85651e-07
6.45082e-05
7.19394e-07
6.47844e-05
7.47935e-07
6.50192e-05
7.71922e-07
6.52151e-05
7.92025e-07
6.53746e-05
8.09006e-07
6.55004e-05
8.23361e-07
6.55945e-05
8.35488e-07
6.56592e-05
8.45756e-07
6.56964e-05
8.54522e-07
6.57078e-05
8.6214e-07
6.56949e-05
8.68983e-07
6.56592e-05
8.75455e-07
6.56017e-05
8.82012e-07
6.55235e-05
8.89176e-07
6.54251e-05
8.97564e-07
6.53069e-05
9.07917e-07
6.51689e-05
9.21133e-07
6.50109e-05
9.38321e-07
6.48318e-05
9.60864e-07
6.46302e-05
9.90517e-07
6.44039e-05
1.0295e-06
6.41496e-05
1.08078e-06
6.38628e-05
1.1481e-06
6.35367e-05
1.23707e-06
6.31652e-05
1.3545e-06
6.27307e-05
1.51265e-06
6.22428e-05
1.72632e-06
2.01174e-06
6.16979e-05
6.38347e-05
2.42588e-07
6.39108e-05
4.29197e-07
6.39805e-05
5.04808e-07
6.4053e-05
5.67987e-07
6.41276e-05
6.11095e-07
6.42061e-05
6.40854e-07
6.42896e-05
6.64513e-07
6.43778e-05
6.83706e-07
6.44704e-05
6.99397e-07
6.45669e-05
7.12552e-07
6.46664e-05
7.23805e-07
6.47683e-05
7.33612e-07
6.48717e-05
7.42368e-07
6.49758e-05
7.50429e-07
6.50798e-05
7.58134e-07
6.51829e-05
7.65829e-07
6.52845e-05
7.73881e-07
6.53838e-05
7.82704e-07
6.54802e-05
7.92772e-07
6.55731e-05
8.04647e-07
6.5662e-05
8.19003e-07
6.57465e-05
8.3666e-07
6.58262e-05
8.58625e-07
6.59009e-05
8.86146e-07
6.59707e-05
9.20788e-07
6.60357e-05
9.64507e-07
6.60966e-05
1.01983e-06
6.61548e-05
1.0899e-06
6.62129e-05
1.17898e-06
6.62754e-05
1.29198e-06
6.63522e-05
1.43589e-06
6.64622e-05
1.61626e-06
1.82957e-06
6.66444e-05
6.56407e-05
1.84953e-07
6.56932e-05
3.7668e-07
6.57302e-05
4.67855e-07
6.576e-05
5.38124e-07
6.57836e-05
5.87489e-07
6.58029e-05
6.21607e-07
6.58192e-05
6.48162e-07
6.58334e-05
6.69503e-07
6.58461e-05
6.86768e-07
6.58576e-05
7.01062e-07
6.58682e-05
7.1316e-07
6.58782e-05
7.23615e-07
6.58877e-05
7.32903e-07
6.58966e-05
7.41456e-07
6.59051e-05
7.49678e-07
6.5913e-05
7.57973e-07
6.59201e-05
7.66763e-07
6.59263e-05
7.76509e-07
6.59313e-05
7.87725e-07
6.5935e-05
8.01003e-07
6.59369e-05
8.17033e-07
6.5937e-05
8.36629e-07
6.59348e-05
8.60762e-07
6.59304e-05
8.90596e-07
6.59236e-05
9.27535e-07
6.59149e-05
9.73265e-07
6.59049e-05
1.02982e-06
6.58952e-05
1.09961e-06
6.58888e-05
1.18536e-06
6.58906e-05
1.29021e-06
6.59108e-05
1.41562e-06
6.59621e-05
1.56496e-06
1.7194e-06
6.60723e-05
6.74906e-05
1.51132e-07
6.7532e-05
3.35292e-07
6.75669e-05
4.32903e-07
6.75993e-05
5.05766e-07
6.76275e-05
5.59276e-07
6.76515e-05
5.97667e-07
6.76719e-05
6.27737e-07
6.76892e-05
6.52154e-07
6.77038e-05
6.72186e-07
6.77159e-05
6.89006e-07
6.77255e-05
7.03483e-07
6.77329e-05
7.16242e-07
6.7738e-05
7.27812e-07
6.77408e-05
7.38674e-07
6.77412e-05
7.49274e-07
6.77391e-05
7.60058e-07
6.77344e-05
7.71486e-07
6.77268e-05
7.84054e-07
6.77163e-05
7.98308e-07
6.77024e-05
8.14867e-07
6.7685e-05
8.34442e-07
6.76638e-05
8.57849e-07
6.76385e-05
8.86041e-07
6.7609e-05
9.20124e-07
6.75751e-05
9.61381e-07
6.75371e-05
1.01129e-06
6.74954e-05
1.0715e-06
6.74512e-05
1.14384e-06
6.74066e-05
1.22996e-06
6.73653e-05
1.33151e-06
6.73332e-05
1.44765e-06
6.73199e-05
1.57834e-06
1.70685e-06
6.73324e-05
6.94118e-05
1.23359e-07
6.94508e-05
2.96255e-07
6.94846e-05
3.99096e-07
6.95149e-05
4.75558e-07
6.9541e-05
5.33159e-07
6.95632e-05
5.75459e-07
6.95824e-05
6.0855e-07
6.9599e-05
6.35482e-07
6.96135e-05
6.57741e-07
6.96259e-05
6.76589e-07
6.96364e-05
6.92984e-07
6.9645e-05
7.07625e-07
6.96517e-05
7.21098e-07
6.96565e-05
7.33924e-07
6.96592e-05
7.46592e-07
6.96596e-05
7.59583e-07
6.96577e-05
7.73384e-07
6.96533e-05
7.8852e-07
6.9646e-05
8.05555e-07
6.96358e-05
8.25124e-07
6.96223e-05
8.47936e-07
6.96053e-05
8.74794e-07
6.95848e-05
9.06609e-07
6.95605e-05
9.44408e-07
6.95325e-05
9.89336e-07
6.95012e-05
1.04265e-06
6.9467e-05
1.10564e-06
6.94313e-05
1.1796e-06
6.93958e-05
1.26545e-06
6.93635e-05
1.36377e-06
6.93383e-05
1.47286e-06
6.93256e-05
1.59104e-06
1.70625e-06
6.93262e-05
7.13851e-05
1.04622e-07
7.14153e-05
2.66023e-07
7.14438e-05
3.70625e-07
7.14709e-05
4.48416e-07
7.1496e-05
5.08083e-07
7.15184e-05
5.53047e-07
7.15384e-05
5.88563e-07
7.15562e-05
6.17722e-07
7.15718e-05
6.42092e-07
7.15855e-05
6.62937e-07
7.15972e-05
6.81251e-07
7.1607e-05
6.97781e-07
7.1615e-05
7.13147e-07
7.1621e-05
7.27906e-07
7.1625e-05
7.42578e-07
7.16269e-05
7.57666e-07
7.16266e-05
7.73685e-07
7.1624e-05
7.91186e-07
7.16188e-05
8.10737e-07
7.16109e-05
8.32974e-07
7.16003e-05
8.58591e-07
7.15867e-05
8.88361e-07
7.15702e-05
9.23129e-07
7.15508e-05
9.63821e-07
7.15287e-05
1.01143e-06
7.15044e-05
1.06697e-06
7.14786e-05
1.13143e-06
7.14525e-05
1.20566e-06
7.14279e-05
1.29005e-06
7.14071e-05
1.38454e-06
7.13927e-05
1.48729e-06
7.13875e-05
1.59625e-06
1.70341e-06
7.13903e-05
7.34196e-05
9.0336e-08
7.34462e-05
2.39412e-07
7.34734e-05
3.43347e-07
7.34999e-05
4.21933e-07
7.35245e-05
4.83498e-07
7.35464e-05
5.31116e-07
7.35659e-05
5.69127e-07
7.35831e-05
6.00515e-07
7.35982e-05
6.26939e-07
7.36115e-05
6.49694e-07
7.36229e-05
6.6982e-07
7.36326e-05
6.88113e-07
7.36405e-05
7.05236e-07
7.36466e-05
7.21778e-07
7.36509e-05
7.38284e-07
7.36533e-05
7.55288e-07
7.36536e-05
7.73331e-07
7.36519e-05
7.92933e-07
7.36479e-05
8.14695e-07
7.36417e-05
8.39233e-07
7.36331e-05
8.67216e-07
7.36221e-05
8.99368e-07
7.36087e-05
9.36462e-07
7.35932e-05
9.79317e-07
7.35759e-05
1.02877e-06
7.35572e-05
1.08562e-06
7.35381e-05
1.15059e-06
7.35195e-05
1.2242e-06
7.3503e-05
1.30653e-06
7.34904e-05
1.39721e-06
7.3483e-05
1.49463e-06
7.34823e-05
1.59697e-06
1.69921e-06
7.34865e-05
7.55131e-05
7.96706e-08
7.5535e-05
2.17591e-07
7.55586e-05
3.19743e-07
7.55821e-05
3.98413e-07
7.56046e-05
4.60939e-07
7.56255e-05
5.10268e-07
7.56445e-05
5.50081e-07
7.56618e-05
5.8321e-07
7.56774e-05
6.11349e-07
7.56913e-05
6.35785e-07
7.57036e-05
6.57562e-07
7.57142e-05
6.77498e-07
7.57232e-05
6.96275e-07
7.57304e-05
7.145e-07
7.5736e-05
7.32731e-07
7.57398e-05
7.51511e-07
7.57417e-05
7.71384e-07
7.57418e-05
7.92885e-07
7.57399e-05
8.16597e-07
7.5736e-05
8.43118e-07
7.57301e-05
8.73078e-07
7.57224e-05
9.07141e-07
7.57128e-05
9.46001e-07
7.57018e-05
9.90367e-07
7.56896e-05
1.04093e-06
7.56769e-05
1.09831e-06
7.56645e-05
1.16302e-06
7.56533e-05
1.23536e-06
7.56446e-05
1.31524e-06
7.56396e-05
1.40221e-06
7.56392e-05
1.49504e-06
7.56438e-05
1.59239e-06
1.69127e-06
7.56517e-05
7.76679e-05
7.13932e-08
7.76865e-05
1.98964e-07
7.77082e-05
2.98063e-07
7.77306e-05
3.75994e-07
7.77526e-05
4.38912e-07
7.77733e-05
4.89571e-07
7.77924e-05
5.31026e-07
7.78097e-05
5.65831e-07
7.78254e-05
5.95638e-07
7.78395e-05
6.21704e-07
7.7852e-05
6.45065e-07
7.7863e-05
6.66555e-07
7.78724e-05
6.86873e-07
7.78802e-05
7.0664e-07
7.78865e-05
7.26432e-07
7.78912e-05
7.46793e-07
7.78944e-05
7.68253e-07
7.78959e-05
7.91376e-07
7.78958e-05
8.16707e-07
7.78941e-05
8.44815e-07
7.78909e-05
8.76288e-07
7.78863e-05
9.11731e-07
7.78805e-05
9.51754e-07
7.78739e-05
9.96957e-07
7.7867e-05
1.0479e-06
7.78602e-05
1.10506e-06
7.78544e-05
1.1688e-06
7.78505e-05
1.23926e-06
7.78495e-05
1.31631e-06
7.78521e-05
1.39954e-06
7.78591e-05
1.48807e-06
7.78704e-05
1.58108e-06
1.67684e-06
7.78848e-05
7.98849e-05
6.48232e-08
7.99007e-05
1.83179e-07
7.992e-05
2.78762e-07
7.99404e-05
3.55582e-07
7.99608e-05
4.18502e-07
7.99804e-05
4.70008e-07
7.99987e-05
5.1266e-07
8.00158e-05
5.48753e-07
8.00315e-05
5.79892e-07
8.00459e-05
6.07304e-07
8.0059e-05
6.32009e-07
8.00707e-05
6.5484e-07
8.00811e-05
6.76502e-07
8.00901e-05
6.97619e-07
8.00978e-05
7.18772e-07
8.01041e-05
7.40508e-07
8.0109e-05
7.63352e-07
8.01125e-05
7.87812e-07
8.01148e-05
8.14424e-07
8.01159e-05
8.43729e-07
8.01159e-05
8.76267e-07
8.01151e-05
9.12576e-07
8.01136e-05
9.53188e-07
8.0112e-05
9.98601e-07
8.01106e-05
1.04926e-06
8.01101e-05
1.10554e-06
8.01113e-05
1.16766e-06
8.01148e-05
1.2357e-06
8.01216e-05
1.30953e-06
8.01324e-05
1.38881e-06
8.01475e-05
1.47296e-06
8.0167e-05
1.56157e-06
1.65363e-06
8.01902e-05
8.21658e-05
5.94697e-08
8.21794e-05
1.69598e-07
8.21969e-05
2.61275e-07
8.2216e-05
3.3646e-07
8.22356e-05
3.98892e-07
8.22548e-05
4.50784e-07
8.22732e-05
4.94299e-07
8.22905e-05
5.3146e-07
8.23066e-05
5.63773e-07
8.23215e-05
5.92409e-07
8.23351e-05
6.18349e-07
8.23476e-05
6.42409e-07
8.23588e-05
6.6529e-07
8.23688e-05
6.87611e-07
8.23776e-05
7.09942e-07
8.23853e-05
7.32818e-07
8.23919e-05
7.56747e-07
8.23975e-05
7.82232e-07
8.24022e-05
8.09778e-07
8.2406e-05
8.39883e-07
8.24092e-05
8.73033e-07
8.24121e-05
9.09701e-07
8.2415e-05
9.50337e-07
8.24182e-05
9.95353e-07
8.24224e-05
1.0451e-06
8.24281e-05
1.09984e-06
8.2436e-05
1.15974e-06
8.24469e-05
1.22481e-06
8.24615e-05
1.29494e-06
8.24804e-05
1.36989e-06
8.25041e-05
1.44928e-06
8.25327e-05
1.53297e-06
1.62032e-06
8.2566e-05
8.45122e-05
5.4996e-08
8.4524e-05
1.57805e-07
8.45398e-05
2.45472e-07
8.45576e-05
3.18747e-07
8.4576e-05
3.80411e-07
8.45944e-05
4.32372e-07
8.46123e-05
4.76449e-07
8.46294e-05
5.14402e-07
8.46455e-05
5.47627e-07
8.46607e-05
5.77237e-07
8.46749e-05
6.04174e-07
8.4688e-05
6.29233e-07
8.47002e-05
6.53102e-07
8.47114e-05
6.7639e-07
8.47217e-05
6.99652e-07
8.47311e-05
7.23405e-07
8.47397e-05
7.48139e-07
8.47476e-05
7.7433e-07
8.4755e-05
8.02443e-07
8.47619e-05
8.32931e-07
8.47687e-05
8.66228e-07
8.47757e-05
9.02743e-07
8.47832e-05
9.42853e-07
8.47916e-05
9.86888e-07
8.48016e-05
1.03512e-06
8.48137e-05
1.08773e-06
8.48287e-05
1.14482e-06
8.48471e-05
1.20638e-06
8.48697e-05
1.2723e-06
8.48972e-05
1.34241e-06
8.493e-05
1.41647e-06
8.49686e-05
1.49444e-06
1.57586e-06
8.5013e-05
8.6926e-05
5.11706e-08
8.69364e-05
1.47433e-07
8.69508e-05
2.31073e-07
8.69673e-05
3.02165e-07
8.6985e-05
3.62734e-07
8.7003e-05
4.14397e-07
8.70207e-05
4.58694e-07
8.7038e-05
4.97157e-07
8.70546e-05
5.31059e-07
8.70704e-05
5.61442e-07
8.70853e-05
5.89194e-07
8.70995e-05
6.15078e-07
8.71128e-05
6.39755e-07
8.71254e-05
6.63812e-07
8.71373e-05
6.87783e-07
8.71485e-05
7.12165e-07
8.71592e-05
7.37422e-07
8.71696e-05
7.63999e-07
8.71797e-05
7.92323e-07
8.71898e-05
8.22799e-07
8.72002e-05
8.55807e-07
8.72113e-05
8.91692e-07
8.72234e-05
9.30762e-07
8.7237e-05
9.73275e-07
8.72527e-05
1.01943e-06
8.72711e-05
1.06935e-06
8.72928e-05
1.12308e-06
8.73186e-05
1.18058e-06
8.73492e-05
1.24176e-06
8.73851e-05
1.30645e-06
8.74271e-05
1.3745e-06
8.74756e-05
1.4459e-06
1.52022e-06
8.75313e-05
8.94089e-05
4.78285e-08
8.94181e-05
1.38193e-07
8.94313e-05
2.17872e-07
8.94469e-05
2.86609e-07
8.94638e-05
3.45857e-07
8.94812e-05
3.96958e-07
8.94987e-05
4.41215e-07
8.95159e-05
4.79944e-07
8.95327e-05
5.14293e-07
8.95489e-05
5.45223e-07
8.95645e-05
5.73566e-07
8.95795e-05
6.00046e-07
8.9594e-05
6.25293e-07
8.96079e-05
6.4987e-07
8.96214e-05
6.74288e-07
8.96346e-05
6.99013e-07
8.96475e-05
7.24484e-07
8.96604e-05
7.5111e-07
8.96735e-05
7.79274e-07
8.96869e-05
8.09333e-07
8.97011e-05
8.41609e-07
8.97164e-05
8.76391e-07
8.97333e-05
9.13921e-07
8.97521e-05
9.54392e-07
8.97736e-05
9.9794e-07
8.97983e-05
1.04463e-06
8.9827e-05
1.09447e-06
8.98601e-05
1.1474e-06
8.98986e-05
1.20329e-06
8.99431e-05
1.262e-06
8.99942e-05
1.32336e-06
9.00528e-05
1.38734e-06
1.45349e-06
9.01195e-05
9.19628e-05
4.4851e-08
9.19712e-05
1.29846e-07
9.19834e-05
2.05663e-07
9.19981e-05
2.71909e-07
9.20143e-05
3.29615e-07
9.20314e-05
3.79881e-07
9.20488e-05
4.23808e-07
9.20662e-05
4.62529e-07
9.20835e-05
4.97068e-07
9.21004e-05
5.28307e-07
9.21169e-05
5.57016e-07
9.21331e-05
5.83873e-07
9.21489e-05
6.09471e-07
9.21644e-05
6.34342e-07
9.21798e-05
6.58963e-07
9.2195e-05
6.83772e-07
9.22103e-05
7.09171e-07
9.22259e-05
7.3553e-07
9.2242e-05
7.63188e-07
9.22589e-05
7.92453e-07
9.22769e-05
8.23593e-07
9.22964e-05
8.56841e-07
9.2318e-05
8.92381e-07
9.2342e-05
9.30348e-07
9.23691e-05
9.70818e-07
9.24e-05
1.01381e-06
9.24351e-05
1.05929e-06
9.24754e-05
1.10716e-06
9.25214e-05
1.15727e-06
9.25739e-05
1.20947e-06
9.26337e-05
1.26355e-06
9.27017e-05
1.31943e-06
1.37661e-06
9.27785e-05
9.45899e-05
4.21502e-08
9.45975e-05
1.22202e-07
9.46089e-05
1.94264e-07
9.46229e-05
2.57923e-07
9.46386e-05
3.13908e-07
9.46554e-05
3.63116e-07
9.46727e-05
4.06474e-07
9.46903e-05
4.44952e-07
9.47079e-05
4.79456e-07
9.47254e-05
5.10783e-07
9.47428e-05
5.39638e-07
9.476e-05
5.66647e-07
9.47771e-05
5.92364e-07
9.47942e-05
6.17282e-07
9.48113e-05
6.41846e-07
9.48286e-05
6.66458e-07
9.48463e-05
6.91482e-07
9.48646e-05
7.17247e-07
9.48837e-05
7.4405e-07
9.4904e-05
7.72148e-07
9.49259e-05
8.0176e-07
9.49496e-05
8.33065e-07
9.49758e-05
8.66193e-07
9.50049e-05
9.01225e-07
9.50376e-05
9.38188e-07
9.50743e-05
9.77056e-07
9.51159e-05
1.01775e-06
9.51629e-05
1.06014e-06
9.52161e-05
1.10405e-06
9.52763e-05
1.14929e-06
9.53442e-05
1.19562e-06
9.54208e-05
1.24287e-06
1.29051e-06
9.55069e-05
9.7292e-05
3.96593e-08
9.72991e-05
1.15104e-07
9.73099e-05
1.83512e-07
9.73233e-05
2.44509e-07
9.73386e-05
2.98613e-07
9.73551e-05
3.46549e-07
9.73725e-05
3.89098e-07
9.73904e-05
4.27089e-07
9.74085e-05
4.61315e-07
9.74268e-05
4.92491e-07
9.74452e-05
5.21257e-07
9.74636e-05
5.48185e-07
9.74822e-05
5.73785e-07
9.7501e-05
5.98509e-07
9.75201e-05
6.22763e-07
9.75396e-05
6.46912e-07
9.75598e-05
6.7128e-07
9.75809e-05
6.96154e-07
9.76032e-05
7.21785e-07
9.7627e-05
7.48385e-07
9.76526e-05
7.76124e-07
9.76805e-05
8.05131e-07
9.77112e-05
8.35487e-07
9.77452e-05
8.67223e-07
9.77831e-05
9.00323e-07
9.78254e-05
9.34719e-07
9.78729e-05
9.70292e-07
9.79261e-05
1.00688e-06
9.79859e-05
1.04428e-06
9.8053e-05
1.08226e-06
9.8128e-05
1.12053e-06
9.82121e-05
1.15886e-06
1.1967e-06
9.83059e-05
0.000100071
3.7326e-08
0.000100078
1.08421e-07
0.000100088
1.73263e-07
0.000100101
2.31535e-07
0.000100116
2.83618e-07
0.000100133
3.30093e-07
0.00010015
3.71618e-07
0.000100168
4.08898e-07
0.000100187
4.42623e-07
0.000100206
4.73427e-07
0.000100226
5.01884e-07
0.000100245
5.28509e-07
0.000100265
5.53764e-07
0.000100286
5.78058e-07
0.000100307
6.01756e-07
0.000100328
6.25183e-07
0.000100351
6.48622e-07
0.000100375
6.72319e-07
0.0001004
6.96481e-07
0.000100427
7.21275e-07
0.000100457
7.46827e-07
0.000100489
7.73219e-07
0.000100524
8.00487e-07
0.000100562
8.28622e-07
0.000100605
8.57566e-07
0.000100652
8.87214e-07
0.000100705
9.17414e-07
0.000100764
9.47974e-07
0.00010083
9.78656e-07
0.000100903
1.0092e-06
0.000100984
1.03928e-06
0.000101074
1.06861e-06
1.09664e-06
0.000101174
0.00010293
3.51084e-08
0.000102937
1.02046e-07
0.000102947
1.63384e-07
0.000102959
2.18877e-07
0.000102974
2.68807e-07
0.00010299
3.13644e-07
0.000103008
3.5394e-07
0.000103027
3.90291e-07
0.000103046
4.23292e-07
0.000103066
4.535e-07
0.000103086
4.81422e-07
0.000103107
5.07519e-07
0.000103129
5.32201e-07
0.000103151
5.55834e-07
0.000103174
5.7874e-07
0.000103198
6.01202e-07
0.000103223
6.23464e-07
0.00010325
6.45728e-07
0.000103278
6.68162e-07
0.000103309
6.90888e-07
0.000103342
7.13993e-07
0.000103377
7.37515e-07
0.000103416
7.61453e-07
0.000103459
7.8576e-07
0.000103506
8.10342e-07
0.000103558
8.35064e-07
0.000103616
8.59746e-07
0.00010368
8.84169e-07
0.000103751
9.08074e-07
0.000103829
9.31175e-07
0.000103915
9.53132e-07
0.00010401
9.73611e-07
9.92099e-07
0.000104114
0.000105871
3.29719e-08
0.000105877
9.58852e-08
0.000105887
1.5376e-07
0.000105899
2.06416e-07
0.000105914
2.54071e-07
0.00010593
2.97106e-07
0.000105948
3.3598e-07
0.000105967
3.71197e-07
0.000105987
4.03266e-07
0.000106008
4.32667e-07
0.00010603
4.59845e-07
0.000106052
4.85202e-07
0.000106075
5.091e-07
0.000106099
5.31858e-07
0.000106124
5.53756e-07
0.00010615
5.75033e-07
0.000106178
5.95894e-07
0.000106207
6.16501e-07
0.000106238
6.36982e-07
0.000106272
6.57422e-07
0.000106308
6.77867e-07
0.000106347
6.98322e-07
0.00010639
7.18751e-07
0.000106437
7.39073e-07
0.000106488
7.5917e-07
0.000106544
7.78879e-07
0.000106606
7.98e-07
0.000106674
8.16297e-07
0.000106748
8.33499e-07
0.00010683
8.49305e-07
0.00010692
8.63371e-07
0.000107018
8.75344e-07
8.84749e-07
0.000107125
0.000108895
3.08872e-08
0.000108902
8.98602e-08
0.000108911
1.44286e-07
0.000108923
1.94043e-07
0.000108938
2.39305e-07
0.000108955
2.80384e-07
0.000108973
3.17658e-07
0.000108993
3.51548e-07
0.000109014
3.82485e-07
0.000109035
4.10879e-07
0.000109058
4.37111e-07
0.000109082
4.6153e-07
0.000109106
4.84444e-07
0.000109132
5.06128e-07
0.000109159
5.26819e-07
0.000109187
5.46716e-07
0.000109217
5.65983e-07
0.000109249
5.84746e-07
0.000109283
6.03095e-07
0.000109319
6.21081e-07
0.000109358
6.38716e-07
0.000109401
6.55974e-07
0.000109447
6.7279e-07
0.000109497
6.8906e-07
0.000109551
7.04639e-07
0.000109611
7.19352e-07
0.000109676
7.32987e-07
0.000109747
7.45298e-07
0.000109824
7.5601e-07
0.000109909
7.6482e-07
0.000110001
7.71391e-07
0.000110101
7.75374e-07
7.7635e-07
0.000110209
0.000112007
2.88289e-08
0.000112013
8.39004e-08
0.000112022
1.34864e-07
0.000112034
1.81652e-07
0.000112049
2.24406e-07
0.000112066
2.63378e-07
0.000112085
2.98881e-07
0.000112105
3.31262e-07
0.000112127
3.60879e-07
0.00011215
3.88077e-07
0.000112174
4.13176e-07
0.000112199
4.36471e-07
0.000112225
4.58222e-07
0.000112252
4.78657e-07
0.000112281
4.97971e-07
0.000112312
5.16323e-07
0.000112344
5.33841e-07
0.000112378
5.50616e-07
0.000112414
5.66703e-07
0.000112453
5.82122e-07
0.000112495
5.96858e-07
0.00011254
6.10858e-07
0.000112589
6.24034e-07
0.000112642
6.36262e-07
0.000112699
6.47387e-07
0.000112761
6.57224e-07
0.000112829
6.65554e-07
0.000112902
6.72134e-07
0.000112981
6.76693e-07
0.000113067
6.7894e-07
0.00011316
6.78558e-07
0.00011326
6.75218e-07
6.68575e-07
0.000113368
0.000115207
2.67747e-08
0.000115212
7.79439e-08
0.000115222
1.25411e-07
0.000115234
1.6915e-07
0.00011525
2.09282e-07
0.000115267
2.46011e-07
0.000115286
2.79588e-07
0.000115307
3.10296e-07
0.00011533
3.38426e-07
0.000115353
3.64259e-07
0.000115379
3.88061e-07
0.000115405
4.10071e-07
0.000115433
4.30502e-07
0.000115462
4.49539e-07
0.000115492
4.67335e-07
0.000115525
4.84013e-07
0.000115559
4.99665e-07
0.000115595
5.1435e-07
0.000115634
5.28096e-07
0.000115675
5.40893e-07
0.000115719
5.52703e-07
0.000115767
5.63452e-07
0.000115818
5.73037e-07
0.000115873
5.81324e-07
0.000115932
5.88151e-07
0.000115996
5.93328e-07
0.000116065
5.96641e-07
0.000116139
5.97855e-07
0.000116219
5.96713e-07
0.000116305
5.92944e-07
0.000116397
5.86261e-07
0.000116496
5.76365e-07
5.62986e-07
0.000116602
0.000118498
2.47031e-08
0.000118504
7.19303e-08
0.000118514
1.15837e-07
0.000118526
1.56433e-07
0.000118542
1.93822e-07
0.00011856
2.28167e-07
0.000118579
2.59666e-07
0.000118601
2.88541e-07
0.000118625
3.15022e-07
0.00011865
3.39335e-07
0.000118676
3.61687e-07
0.000118704
3.8227e-07
0.000118733
4.0125e-07
0.000118764
4.18768e-07
0.000118796
4.3494e-07
0.00011883
4.49854e-07
0.000118866
4.63568e-07
0.000118905
4.76115e-07
0.000118945
4.87495e-07
0.000118988
4.97677e-07
0.000119035
5.06603e-07
0.000119084
5.14185e-07
0.000119137
5.20311e-07
0.000119193
5.24841e-07
0.000119254
5.27612e-07
0.000119318
5.28439e-07
0.000119388
5.27117e-07
0.000119462
5.23428e-07
0.000119542
5.17137e-07
0.000119627
5.08003e-07
0.000119717
4.9578e-07
0.000119814
4.80209e-07
4.61102e-07
0.000119915
0.000121883
2.25963e-08
0.00012189
6.58101e-08
0.000121899
1.06075e-07
0.000121912
1.43432e-07
0.000121928
1.7797e-07
0.000121946
2.09812e-07
0.000121967
2.39105e-07
0.00012199
2.66018e-07
0.000122014
2.90722e-07
0.00012204
3.13387e-07
0.000122067
3.3417e-07
0.000122096
3.53214e-07
0.000122127
3.70641e-07
0.000122159
3.86552e-07
0.000122193
4.01029e-07
0.000122229
4.14126e-07
0.000122267
4.25873e-07
0.000122306
4.36277e-07
0.000122349
4.45317e-07
0.000122393
4.52946e-07
0.000122441
4.59092e-07
0.000122491
4.63659e-07
0.000122545
4.6653e-07
0.000122602
4.67564e-07
0.000122663
4.66602e-07
0.000122728
4.63469e-07
0.000122798
4.57978e-07
0.000122871
4.4993e-07
0.000122949
4.3912e-07
0.000123032
4.25339e-07
0.000123119
4.0838e-07
0.000123211
3.88025e-07
3.64155e-07
0.000123308
0.000125366
2.04296e-08
0.000125372
5.95139e-08
0.000125382
9.60159e-08
0.000125395
1.30007e-07
0.000125412
1.61559e-07
0.000125431
1.90759e-07
0.000125452
2.17711e-07
0.000125476
2.4253e-07
0.000125501
2.65333e-07
0.000125528
2.86238e-07
0.000125557
3.05353e-07
0.000125588
3.22773e-07
0.00012562
3.38579e-07
0.000125653
3.52836e-07
0.000125689
3.65589e-07
0.000125726
3.76865e-07
0.000125765
3.86669e-07
0.000125807
3.94984e-07
0.00012585
4.01774e-07
0.000125896
4.06979e-07
0.000125945
4.1052e-07
0.000125996
4.12295e-07
0.00012605
4.12186e-07
0.000126108
4.10056e-07
0.000126169
4.05758e-07
0.000126233
3.99131e-07
0.000126301
3.90008e-07
0.000126373
3.78218e-07
0.000126448
3.63588e-07
0.000126528
3.45946e-07
0.000126611
3.25134e-07
0.000126698
3.00983e-07
2.73444e-07
0.000126789
0.000128947
1.81948e-08
0.000128954
5.30159e-08
0.000128964
8.56396e-08
0.000128978
1.16162e-07
0.000128995
1.44632e-07
0.000129015
1.71097e-07
0.000129037
1.95614e-07
0.000129061
2.18244e-07
0.000129087
2.39057e-07
0.000129115
2.5812e-07
0.000129145
2.75494e-07
0.000129177
2.91231e-07
0.00012921
3.05374e-07
0.000129245
3.17952e-07
0.000129282
3.28982e-07
0.00012932
3.38463e-07
0.00012936
3.46381e-07
0.000129402
3.52704e-07
0.000129447
3.57381e-07
0.000129494
3.60343e-07
0.000129543
3.61506e-07
0.000129594
3.60768e-07
0.000129648
3.58014e-07
0.000129705
3.53117e-07
0.000129765
3.45941e-07
0.000129828
3.36345e-07
0.000129894
3.24185e-07
0.000129962
3.09316e-07
0.000130034
2.91599e-07
0.00013011
2.70897e-07
0.000130188
2.4709e-07
0.000130269
2.20048e-07
1.89775e-07
0.000130352
0.000132631
1.58366e-08
0.000132638
4.61739e-08
0.000132649
7.47164e-08
0.000132664
1.0159e-07
0.000132682
1.26823e-07
0.000132702
1.50424e-07
0.000132725
1.72397e-07
0.000132751
1.92756e-07
0.000132778
2.11515e-07
0.000132808
2.2869e-07
0.000132839
2.44294e-07
0.000132872
2.5834e-07
0.000132907
2.70832e-07
0.000132943
2.81767e-07
0.000132981
2.91133e-07
0.00013302
2.9891e-07
0.000133061
3.05065e-07
0.000133105
3.09553e-07
0.00013315
3.12312e-07
0.000133197
3.13271e-07
0.000133246
3.12343e-07
0.000133297
3.09429e-07
0.000133351
3.04421e-07
0.000133407
2.97204e-07
0.000133465
2.87659e-07
0.000133526
2.75666e-07
0.000133589
2.61104e-07
0.000133654
2.43862e-07
0.000133722
2.23833e-07
0.000133792
2.00918e-07
0.000133864
1.75039e-07
0.000133938
1.46124e-07
1.14213e-07
0.000134014
0.000136421
1.34021e-08
0.000136428
3.9075e-08
0.000136439
6.34099e-08
0.000136454
8.65461e-08
0.000136473
1.08468e-07
0.000136494
1.29131e-07
0.000136518
1.48486e-07
0.000136544
1.66498e-07
0.000136572
1.83137e-07
0.000136603
1.9837e-07
0.000136635
2.12171e-07
0.000136669
2.24513e-07
0.000136704
2.35368e-07
0.000136741
2.44703e-07
0.00013678
2.52482e-07
0.00013682
2.58664e-07
0.000136862
2.63202e-07
0.000136905
2.66041e-07
0.000136951
2.67117e-07
0.000136998
2.66354e-07
0.000137046
2.63666e-07
0.000137097
2.58962e-07
0.000137149
2.52141e-07
0.000137203
2.43102e-07
0.000137259
2.31742e-07
0.000137317
2.17961e-07
0.000137376
2.01663e-07
0.000137437
1.82764e-07
0.0001375
1.6119e-07
0.000137564
1.3686e-07
0.000137629
1.09737e-07
0.000137696
7.97907e-08
4.70968e-08
0.000137763
0.000140318
1.0668e-08
0.000140326
3.12482e-08
0.000140339
5.10352e-08
0.000140355
7.02012e-08
0.000140375
8.86687e-08
0.000140398
1.06323e-07
0.000140423
1.23041e-07
0.000140451
1.38725e-07
0.000140481
1.53285e-07
0.000140512
1.66633e-07
0.000140546
1.787e-07
0.000140581
1.89423e-07
0.000140618
1.98741e-07
0.000140656
2.06598e-07
0.000140695
2.12935e-07
0.000140736
2.17694e-07
0.000140779
2.20818e-07
0.000140822
2.22248e-07
0.000140868
2.21915e-07
0.000140914
2.19748e-07
0.000140962
2.15667e-07
0.000141012
2.09587e-07
0.000141062
2.01418e-07
0.000141114
1.91074e-07
0.000141168
1.78468e-07
0.000141222
1.63521e-07
0.000141278
1.46162e-07
0.000141334
1.26342e-07
0.000141391
1.04023e-07
0.000141449
7.91211e-08
0.000141507
5.16379e-08
0.000141565
2.17178e-08
-1.07683e-08
0.000141623
0.000144327
8.00224e-09
0.000144335
2.32922e-08
0.000144348
3.84067e-08
0.000144365
5.34936e-08
0.000144385
6.8399e-08
0.000144408
8.29236e-08
0.000144434
9.68753e-08
0.000144463
1.10134e-07
0.000144494
1.22557e-07
0.000144526
1.33998e-07
0.000144561
1.44341e-07
0.000144597
1.53486e-07
0.000144634
1.61345e-07
0.000144673
1.67832e-07
0.000144713
1.72869e-07
0.000144754
1.76384e-07
0.000144797
1.78317e-07
0.00014484
1.78605e-07
0.000144885
1.77181e-07
0.000144931
1.73977e-07
0.000144978
1.68921e-07
0.000145025
1.61934e-07
0.000145074
1.52934e-07
0.000145123
1.41846e-07
0.000145173
1.28602e-07
0.000145223
1.13135e-07
0.000145274
9.53873e-08
0.000145325
7.53698e-08
0.000145376
5.30395e-08
0.000145427
2.83123e-08
0.000145477
9.04845e-10
0.000145527
-2.80651e-08
-5.96517e-08
0.000145576
0.000148452
4.35119e-09
0.000148461
1.35082e-08
0.000148476
2.34916e-08
0.000148495
3.43854e-08
0.000148518
4.58172e-08
0.000148544
5.74166e-08
0.000148572
6.88098e-08
0.000148602
7.98397e-08
0.000148634
9.03017e-08
0.000148668
9.99973e-08
0.000148704
1.08771e-07
0.000148741
1.16491e-07
0.000148779
1.23054e-07
0.000148818
1.28353e-07
0.000148859
1.32283e-07
0.000148901
1.3477e-07
0.000148943
1.35754e-07
0.000148987
1.35175e-07
0.000149031
1.32969e-07
0.000149076
1.29072e-07
0.000149121
1.2343e-07
0.000149167
1.15971e-07
0.000149214
1.06622e-07
0.00014926
9.53368e-08
0.000149307
8.20429e-08
0.000149353
6.66511e-08
0.000149399
4.91847e-08
0.000149445
2.9711e-08
0.00014949
8.35407e-09
0.000149534
-1.56157e-08
0.000149576
-4.14838e-08
0.000149617
-6.92589e-08
-9.89395e-08
0.000149656
0.000152692
1.51336e-09
0.000152701
4.18264e-09
0.000152716
8.72164e-09
0.000152735
1.50374e-08
0.000152759
2.26111e-08
0.000152785
3.0874e-08
0.000152814
3.94672e-08
0.000152846
4.82505e-08
0.00015288
5.67928e-08
0.000152915
6.48098e-08
0.000152951
7.21001e-08
0.000152989
7.84946e-08
0.000153029
8.39055e-08
0.000153069
8.82074e-08
0.00015311
9.12698e-08
0.000153152
9.30125e-08
0.000153194
9.33725e-08
0.000153237
9.22854e-08
0.00015328
8.96847e-08
0.000153324
8.55219e-08
0.000153367
7.97904e-08
0.000153411
7.23963e-08
0.000153454
6.32547e-08
0.000153497
5.23319e-08
0.00015354
3.96378e-08
0.000153581
2.48812e-08
0.000153622
8.10324e-09
0.000153662
-1.00557e-08
0.000153701
-3.01698e-08
0.000153737
-5.2245e-08
0.000153772
-7.61372e-08
0.000153805
-1.01814e-07
-1.29146e-07
0.000153835
0.000157058
-4.53284e-09
0.000157071
-9.67451e-09
0.000157091
-1.05715e-08
0.000157114
-8.1655e-09
0.00015714
-3.27476e-09
0.000157168
2.59583e-09
0.000157199
8.51608e-09
0.000157232
1.52309e-08
0.000157267
2.19753e-08
0.000157303
2.84476e-08
0.000157341
3.43826e-08
0.00015738
3.9606e-08
0.00015742
4.41181e-08
0.00015746
4.76097e-08
0.000157501
4.99583e-08
0.000157543
5.11398e-08
0.000157586
5.10974e-08
0.000157628
4.97683e-08
0.000157671
4.70859e-08
0.000157713
4.29545e-08
0.000157756
3.74687e-08
0.000157798
3.04797e-08
0.000157839
2.19724e-08
0.000157879
1.19715e-08
0.000157918
1.01883e-09
0.000157956
-1.30817e-08
0.000157992
-2.80424e-08
0.000158026
-4.45725e-08
0.000158059
-6.26967e-08
0.000158089
-8.24166e-08
0.000158117
-1.03658e-07
0.000158141
-1.26359e-07
-1.50391e-07
0.000158162
0.000161541
-7.56152e-09
0.000161554
-2.21102e-08
0.000161573
-2.978e-08
0.000161598
-3.26173e-08
0.000161626
-3.21754e-08
0.000161658
-2.94372e-08
0.000161692
-2.5265e-08
0.000161728
-2.02121e-08
0.000161765
-1.48658e-08
0.000161803
-9.62234e-09
0.000161842
-4.84231e-09
0.000161882
-9.10971e-10
0.000161923
3.1168e-09
0.000161965
6.26158e-09
0.000162006
8.30964e-09
0.000162048
9.34391e-09
0.00016209
9.30594e-09
0.000162132
8.13311e-09
0.000162173
5.74088e-09
0.000162214
1.73609e-09
0.000162254
-2.64477e-09
0.000162293
-8.42782e-09
0.000162331
-1.57045e-08
0.000162367
-2.43746e-08
0.000162403
-3.43677e-08
0.000162435
-4.58756e-08
0.000162466
-5.8695e-08
0.000162494
-7.284e-08
0.00016252
-8.83215e-08
0.000162543
-1.05142e-07
0.000162562
-1.23256e-07
0.000162579
-1.42635e-07
-1.63155e-07
0.000162591
0.000166167
-2.05615e-08
0.000166188
-4.39929e-08
0.000166214
-5.5426e-08
0.000166242
-6.09485e-08
0.000166273
-6.2803e-08
0.000166305
-6.18189e-08
0.000166339
-5.92802e-08
0.000166375
-5.58817e-08
0.000166412
-5.2037e-08
0.000166451
-4.80967e-08
0.00016649
-4.43209e-08
0.00016653
-4.08745e-08
0.000166571
-3.7777e-08
0.000166613
-3.53357e-08
0.000166655
-3.36562e-08
0.000166697
-3.27545e-08
0.000166739
-3.26799e-08
0.00016678
-3.34841e-08
0.000166821
-3.52183e-08
0.000166861
-3.79632e-08
0.0001669
-4.1623e-08
0.000166938
-4.6311e-08
0.000166974
-5.20511e-08
0.000167009
-5.88379e-08
0.000167041
-6.67093e-08
0.000167071
-7.5723e-08
0.000167098
-8.58253e-08
0.000167122
-9.69733e-08
0.000167143
-1.09158e-07
0.00016716
-1.22356e-07
0.000167173
-1.36518e-07
0.000167182
-1.51602e-07
-1.67489e-07
0.000167187
0.000170911
-3.11763e-08
0.00017094
-7.25988e-08
0.000170974
-8.9192e-08
0.000171011
-9.85094e-08
0.000171051
-1.02475e-07
0.000171092
-1.02574e-07
0.000171133
-1.00811e-07
0.000171175