/*--------------------------------*- C++ -*----------------------------------*\
  =========                 |
  \\      /  F ield         | OpenFOAM: The Open Source CFD Toolbox
   \\    /   O peration     | Website:  https://openfoam.org
    \\  /    A nd           | Version:  10
     \\/     M anipulation  |
\*---------------------------------------------------------------------------*/
FoamFile
{
    format      ascii;
    class       volVectorField;
    location    "0.185";
    object      U;
}
// * * * * * * * * * * * * * * * * * * * * * * * * * * * * * * * * * * * * * //

dimensions      [0 1 -1 0 0 0 0];

internalField   nonuniform List<vector> 
6820
(
(7.28178 0.0248219 0)
(7.17819 0.0400383 0)
(7.05549 0.0449834 0)
(6.92683 0.0476416 0)
(6.79868 0.0487261 0)
(6.67149 0.0488914 0)
(6.54581 0.0485753 0)
(6.42218 0.0479653 0)
(6.30081 0.0471733 0)
(6.18177 0.0462744 0)
(6.06508 0.0453151 0)
(5.95078 0.0443265 0)
(5.83883 0.0433312 0)
(5.7292 0.0423468 0)
(5.62182 0.0413875 0)
(5.51661 0.0404664 0)
(5.41346 0.0395963 0)
(5.31224 0.0387911 0)
(5.21279 0.0380666 0)
(5.11489 0.037442 0)
(5.0183 0.0369408 0)
(4.9227 0.0365931 0)
(4.82771 0.0364369 0)
(4.73283 0.0365219 0)
(4.63747 0.0369122 0)
(4.54085 0.0376932 0)
(4.44203 0.0389739 0)
(4.33977 0.0409226 0)
(4.23247 0.043697 0)
(4.11821 0.0478234 0)
(3.99316 0.0533385 0)
(3.85697 0.0621264 0)
(3.68954 0.0816673 0)
(7.35922 0.0258977 0)
(7.421 0.0358154 0)
(7.47612 0.0376661 0)
(7.52641 0.0397558 0)
(7.57245 0.0412529 0)
(7.61309 0.0424764 0)
(7.64828 0.0436954 0)
(7.67844 0.0449089 0)
(7.70386 0.0461073 0)
(7.72483 0.0472915 0)
(7.74166 0.0484576 0)
(7.75462 0.0496027 0)
(7.76397 0.0507272 0)
(7.76996 0.0518347 0)
(7.7728 0.0529324 0)
(7.77268 0.054031 0)
(7.76979 0.0551456 0)
(7.76426 0.0562969 0)
(7.75622 0.0575116 0)
(7.74577 0.0588251 0)
(7.73296 0.0602826 0)
(7.71783 0.0619431 0)
(7.70035 0.0638824 0)
(7.68045 0.0661994 0)
(7.65801 0.0690231 0)
(7.63279 0.0725228 0)
(7.6045 0.076926 0)
(7.57266 0.08254 0)
(7.53673 0.0897789 0)
(7.49553 0.0993644 0)
(7.44915 0.111838 0)
(7.39258 0.130559 0)
(7.33806 0.152415 0)
(7.33541 0.00696012 0)
(7.3456 0.0102389 0)
(7.35455 0.0128882 0)
(7.36227 0.0163762 0)
(7.37062 0.0193183 0)
(7.37948 0.0218765 0)
(7.38876 0.024271 0)
(7.39862 0.0265029 0)
(7.40904 0.0285843 0)
(7.41993 0.0305455 0)
(7.43122 0.0324096 0)
(7.44282 0.0341956 0)
(7.45465 0.0359225 0)
(7.4666 0.0376089 0)
(7.47859 0.0392744 0)
(7.49052 0.0409401 0)
(7.50231 0.0426303 0)
(7.51389 0.0443737 0)
(7.52516 0.0462049 0)
(7.53606 0.0481669 0)
(7.54653 0.0503136 0)
(7.55652 0.052713 0)
(7.56597 0.0554526 0)
(7.57486 0.0586443 0)
(7.58316 0.0624345 0)
(7.5909 0.0670122 0)
(7.59812 0.0726344 0)
(7.60494 0.079625 0)
(7.61153 0.0884861 0)
(7.61838 0.0997331 0)
(7.62592 0.114596 0)
(7.63657 0.133357 0)
(7.65071 0.15904 0)
(7.33493 0.00931777 0)
(7.34246 0.0201809 0)
(7.34799 0.0257099 0)
(7.35132 0.0294581 0)
(7.35417 0.0319283 0)
(7.3566 0.0336364 0)
(7.35857 0.0349919 0)
(7.36024 0.0361329 0)
(7.36173 0.0371339 0)
(7.36307 0.0380557 0)
(7.3643 0.038937 0)
(7.36545 0.0398035 0)
(7.36654 0.0406761 0)
(7.36757 0.0415737 0)
(7.36854 0.0425145 0)
(7.36946 0.0435178 0)
(7.3703 0.0446057 0)
(7.37105 0.045804 0)
(7.37168 0.0471439 0)
(7.37218 0.048664 0)
(7.3725 0.0504121 0)
(7.37262 0.052448 0)
(7.37251 0.0548471 0)
(7.37215 0.0577041 0)
(7.37152 0.0611391 0)
(7.37064 0.0653041 0)
(7.36957 0.0703921 0)
(7.36842 0.0766488 0)
(7.36742 0.0843729 0)
(7.36705 0.0939657 0)
(7.36784 0.10571 0)
(7.37183 0.120269 0)
(7.37896 0.136041 0)
(7.334 0.00641764 0)
(7.33872 0.0128 0)
(7.34331 0.0156875 0)
(7.34685 0.0183219 0)
(7.35008 0.0206935 0)
(7.35296 0.0227699 0)
(7.35536 0.0247257 0)
(7.35739 0.026595 0)
(7.35912 0.0283786 0)
(7.36057 0.0300927 0)
(7.36175 0.0317527 0)
(7.36267 0.0333714 0)
(7.36335 0.0349641 0)
(7.36378 0.0365478 0)
(7.36396 0.038142 0)
(7.36387 0.039769 0)
(7.36351 0.0414549 0)
(7.36285 0.0432307 0)
(7.36187 0.0451334 0)
(7.36055 0.0472081 0)
(7.35886 0.0495091 0)
(7.35677 0.0521026 0)
(7.35425 0.0550694 0)
(7.35128 0.0585078 0)
(7.34784 0.0625379 0)
(7.34393 0.0673053 0)
(7.33958 0.0729849 0)
(7.33489 0.0797823 0)
(7.32999 0.0879254 0)
(7.32525 0.0976625 0)
(7.32101 0.109105 0)
(7.31846 0.122425 0)
(7.31772 0.136285 0)
(7.33375 0.00538951 0)
(7.33772 0.0132217 0)
(7.34202 0.0185334 0)
(7.34537 0.022844 0)
(7.34827 0.0262187 0)
(7.35084 0.0288139 0)
(7.35302 0.0309396 0)
(7.35489 0.0327569 0)
(7.35653 0.0343515 0)
(7.35795 0.0357961 0)
(7.35916 0.0371453 0)
(7.36017 0.0384392 0)
(7.36098 0.0397109 0)
(7.36159 0.0409902 0)
(7.36199 0.0423057 0)
(7.36216 0.0436861 0)
(7.36209 0.0451626 0)
(7.36176 0.04677 0)
(7.36115 0.0485471 0)
(7.36023 0.0505402 0)
(7.35899 0.0528042 0)
(7.35738 0.0554045 0)
(7.35541 0.058419 0)
(7.35304 0.0619404 0)
(7.35028 0.0660781 0)
(7.34714 0.0709601 0)
(7.34367 0.0767308 0)
(7.33995 0.0835506 0)
(7.33612 0.0915686 0)
(7.33248 0.10093 0)
(7.32929 0.111594 0)
(7.32724 0.123538 0)
(7.32634 0.135682 0)
(7.33346 0.00449702 0)
(7.3362 0.0112153 0)
(7.33956 0.0154074 0)
(7.34243 0.0185451 0)
(7.34506 0.0210815 0)
(7.34752 0.0231882 0)
(7.34971 0.025079 0)
(7.35164 0.0268507 0)
(7.35335 0.0285379 0)
(7.35486 0.0301711 0)
(7.35616 0.0317752 0)
(7.35727 0.0333694 0)
(7.35818 0.0349721 0)
(7.3589 0.036603 0)
(7.35942 0.038284 0)
(7.35973 0.0400395 0)
(7.35982 0.0418973 0)
(7.35967 0.0438897 0)
(7.35927 0.0460583 0)
(7.35861 0.0484507 0)
(7.35766 0.0511218 0)
(7.35642 0.0541367 0)
(7.35488 0.0575716 0)
(7.35303 0.0615147 0)
(7.3509 0.0660672 0)
(7.3485 0.0713425 0)
(7.34591 0.0774619 0)
(7.34321 0.0845493 0)
(7.34056 0.092706 0)
(7.33818 0.102007 0)
(7.33627 0.112374 0)
(7.33524 0.123704 0)
(7.33503 0.135263 0)
(7.33331 0.00383698 0)
(7.33546 0.0102237 0)
(7.33844 0.0149404 0)
(7.34119 0.0188547 0)
(7.34372 0.0221927 0)
(7.34606 0.0249924 0)
(7.34813 0.0274025 0)
(7.34995 0.0295357 0)
(7.35156 0.0314587 0)
(7.35298 0.0332296 0)
(7.35421 0.0348982 0)
(7.35526 0.0365046 0)
(7.35614 0.0380843 0)
(7.35684 0.0396704 0)
(7.35737 0.0412954 0)
(7.3577 0.042993 0)
(7.35784 0.0447999 0)
(7.35778 0.0467613 0)
(7.3575 0.0489128 0)
(7.35699 0.0513022 0)
(7.35625 0.0539856 0)
(7.35527 0.0570271 0)
(7.35405 0.0604991 0)
(7.35261 0.0644833 0)
(7.35096 0.0690697 0)
(7.34915 0.074355 0)
(7.34724 0.080437 0)
(7.34533 0.087408 0)
(7.34354 0.0953325 0)
(7.34205 0.104242 0)
(7.34099 0.114055 0)
(7.34058 0.124659 0)
(7.34074 0.135588 0)
(7.33321 0.00335844 0)
(7.33484 0.00922822 0)
(7.33726 0.0136645 0)
(7.33962 0.0171883 0)
(7.34184 0.0200911 0)
(7.34396 0.0225029 0)
(7.34591 0.0245976 0)
(7.34767 0.0264995 0)
(7.34927 0.028275 0)
(7.3507 0.0299725 0)
(7.35197 0.0316309 0)
(7.35308 0.0332805 0)
(7.35403 0.0349479 0)
(7.35482 0.036659 0)
(7.35545 0.0384402 0)
(7.35591 0.0403201 0)
(7.35619 0.0423297 0)
(7.35629 0.0444906 0)
(7.3562 0.0468565 0)
(7.35592 0.0494761 0)
(7.35545 0.0524014 0)
(7.35478 0.0556914 0)
(7.35394 0.0594127 0)
(7.35293 0.0636386 0)
(7.3518 0.0684478 0)
(7.35058 0.0739216 0)
(7.34934 0.0801382 0)
(7.34817 0.0871669 0)
(7.34717 0.0950512 0)
(7.34647 0.103804 0)
(7.34618 0.113362 0)
(7.34638 0.123642 0)
(7.34701 0.134374 0)
(7.33315 0.00298604 0)
(7.33442 0.00841769 0)
(7.33649 0.0127945 0)
(7.33865 0.0164487 0)
(7.34075 0.0196165 0)
(7.34278 0.0223747 0)
(7.34467 0.0248234 0)
(7.34639 0.0270481 0)
(7.34795 0.0291027 0)
(7.34936 0.0310326 0)
(7.35061 0.0328788 0)
(7.35172 0.0346774 0)
(7.35268 0.0364614 0)
(7.3535 0.0382629 0)
(7.35417 0.0401142 0)
(7.35469 0.0420492 0)
(7.35506 0.0441051 0)
(7.35528 0.0463326 0)
(7.35535 0.048765 0)
(7.35526 0.0514449 0)
(7.35503 0.054424 0)
(7.35466 0.05776 0)
(7.35416 0.0615153 0)
(7.35357 0.0657565 0)
(7.35292 0.0705529 0)
(7.35226 0.0759736 0)
(7.35165 0.0820826 0)
(7.35117 0.0889335 0)
(7.35091 0.0965582 0)
(7.35096 0.104965 0)
(7.3514 0.114113 0)
(7.35227 0.123959 0)
(7.3535 0.134359 0)
(7.33311 0.00269577 0)
(7.33412 0.00772852 0)
(7.33585 0.011933 0)
(7.33775 0.0154625 0)
(7.33963 0.018493 0)
(7.34148 0.0211053 0)
(7.34323 0.0234024 0)
(7.34486 0.0254815 0)
(7.34637 0.0274104 0)
(7.34775 0.0292411 0)
(7.34901 0.0310176 0)
(7.35015 0.0327766 0)
(7.35116 0.0345502 0)
(7.35205 0.0363691 0)
(7.35282 0.0382634 0)
(7.35346 0.0402641 0)
(7.35398 0.0424025 0)
(7.35436 0.0447086 0)
(7.35463 0.0472259 0)
(7.35479 0.0500013 0)
(7.35483 0.053083 0)
(7.35479 0.0565224 0)
(7.35468 0.0603748 0)
(7.35453 0.064698 0)
(7.35438 0.0695507 0)
(7.35428 0.0749897 0)
(7.35429 0.0810664 0)
(7.35449 0.0878227 0)
(7.35494 0.0952843 0)
(7.35573 0.10346 0)
(7.3569 0.112333 0)
(7.35849 0.121891 0)
(7.36046 0.132067 0)
(7.33309 0.00246167 0)
(7.3339 0.00713742 0)
(7.33538 0.0111768 0)
(7.33708 0.0146524 0)
(7.33882 0.0177079 0)
(7.34057 0.0204174 0)
(7.34226 0.0228583 0)
(7.34385 0.0251037 0)
(7.34534 0.027206 0)
(7.34673 0.0292065 0)
(7.348 0.0311423 0)
(7.34917 0.0330469 0)
(7.35022 0.0349514 0)
(7.35117 0.0368864 0)
(7.35201 0.0388832 0)
(7.35275 0.0409744 0)
(7.35339 0.0431946 0)
(7.35393 0.0455815 0)
(7.35438 0.0481739 0)
(7.35476 0.0510126 0)
(7.35507 0.0541415 0)
(7.35534 0.0576083 0)
(7.35559 0.0614631 0)
(7.35585 0.0657572 0)
(7.35617 0.0705414 0)
(7.35659 0.075864 0)
(7.35718 0.0817678 0)
(7.35801 0.0882875 0)
(7.35912 0.0954463 0)
(7.3606 0.103257 0)
(7.36249 0.111719 0)
(7.36482 0.120844 0)
(7.36758 0.130605 0)
(7.33307 0.00226836 0)
(7.33374 0.00662737 0)
(7.335 0.0104896 0)
(7.33652 0.0138666 0)
(7.33811 0.0168552 0)
(7.33972 0.0195136 0)
(7.3413 0.0219049 0)
(7.34282 0.0240962 0)
(7.34426 0.0261424 0)
(7.34562 0.0280892 0)
(7.3469 0.0299773 0)
(7.34808 0.0318429 0)
(7.34919 0.033719 0)
(7.3502 0.0356369 0)
(7.35113 0.0376274 0)
(7.35199 0.0397215 0)
(7.35277 0.0419508 0)
(7.35348 0.0443489 0)
(7.35414 0.0469521 0)
(7.35476 0.0497994 0)
(7.35535 0.0529319 0)
(7.35594 0.0563922 0)
(7.35656 0.0602239 0)
(7.35724 0.0644706 0)
(7.35803 0.0691749 0)
(7.35897 0.0743762 0)
(7.36013 0.0801091 0)
(7.36156 0.0864018 0)
(7.36332 0.0932749 0)
(7.36548 0.100743 0)
(7.36808 0.108814 0)
(7.37117 0.117513 0)
(7.37475 0.126829 0)
(7.33306 0.00210483 0)
(7.33362 0.00618101 0)
(7.33471 0.00986617 0)
(7.33607 0.0131437 0)
(7.33753 0.0160835 0)
(7.33905 0.0187379 0)
(7.34057 0.0211606 0)
(7.34205 0.0234085 0)
(7.34348 0.0255291 0)
(7.34484 0.0275615 0)
(7.34614 0.0295407 0)
(7.34737 0.0314985 0)
(7.34853 0.0334647 0)
(7.34963 0.0354679 0)
(7.35066 0.0375373 0)
(7.35163 0.0397025 0)
(7.35255 0.0419939 0)
(7.35344 0.0444439 0)
(7.3543 0.0470867 0)
(7.35515 0.0499575 0)
(7.35601 0.0530931 0)
(7.35691 0.0565309 0)
(7.35787 0.0603087 0)
(7.35895 0.0644638 0)
(7.36017 0.0690316 0)
(7.36159 0.0740446 0)
(7.36327 0.0795313 0)
(7.36526 0.0855149 0)
(7.36762 0.0920134 0)
(7.37041 0.0990416 0)
(7.37368 0.106611 0)
(7.37749 0.11475 0)
(7.38185 0.12345 0)
(7.33305 0.00196338 0)
(7.33353 0.00578579 0)
(7.33449 0.00929654 0)
(7.33571 0.0124642 0)
(7.33706 0.0153335 0)
(7.33847 0.0179443 0)
(7.33992 0.0203388 0)
(7.34134 0.0225638 0)
(7.34274 0.0246622 0)
(7.3441 0.0266716 0)
(7.3454 0.0286266 0)
(7.34666 0.0305594 0)
(7.34787 0.0325004 0)
(7.34903 0.0344786 0)
(7.35016 0.0365227 0)
(7.35125 0.0386613 0)
(7.35231 0.0409238 0)
(7.35337 0.0433401 0)
(7.35443 0.0459413 0)
(7.35551 0.0487592 0)
(7.35664 0.0518262 0)
(7.35784 0.0551749 0)
(7.35915 0.0588372 0)
(7.3606 0.062844 0)
(7.36225 0.067224 0)
(7.36413 0.072003 0)
(7.3663 0.0772028 0)
(7.36881 0.0828412 0)
(7.37174 0.0889323 0)
(7.37512 0.0954878 0)
(7.37902 0.102517 0)
(7.38351 0.110044 0)
(7.38861 0.118056 0)
(7.33304 0.00183852 0)
(7.33346 0.00543106 0)
(7.33431 0.00877189 0)
(7.33542 0.0118249 0)
(7.33667 0.0146187 0)
(7.338 0.0171855 0)
(7.33939 0.0195611 0)
(7.34078 0.0217861 0)
(7.34217 0.0238989 0)
(7.34353 0.0259333 0)
(7.34486 0.0279209 0)
(7.34617 0.0298905 0)
(7.34744 0.0318696 0)
(7.34869 0.0338846 0)
(7.34992 0.0359613 0)
(7.35114 0.038126 0)
(7.35235 0.0404051 0)
(7.35358 0.0428256 0)
(7.35484 0.045415 0)
(7.35615 0.0482012 0)
(7.35753 0.0512119 0)
(7.35902 0.0544746 0)
(7.36065 0.0580155 0)
(7.36245 0.0618594 0)
(7.36448 0.0660287 0)
(7.36678 0.0705429 0)
(7.36939 0.0754179 0)
(7.37239 0.0806661 0)
(7.37581 0.0862966 0)
(7.37972 0.0923165 0)
(7.38418 0.0987307 0)
(7.38926 0.105553 0)
(7.39499 0.112765 0)
(7.33304 0.00172623 0)
(7.33341 0.00510829 0)
(7.33417 0.00828434 0)
(7.33518 0.0112188 0)
(7.33634 0.0139279 0)
(7.33761 0.0164363 0)
(7.33894 0.0187721 0)
(7.3403 0.0209685 0)
(7.34167 0.0230583 0)
(7.34303 0.0250719 0)
(7.34439 0.0270381 0)
(7.34573 0.0289839 0)
(7.34706 0.0309355 0)
(7.34838 0.032918 0)
(7.3497 0.0349561 0)
(7.35104 0.0370744 0)
(7.35239 0.0392973 0)
(7.35378 0.0416494 0)
(7.35522 0.0441549 0)
(7.35675 0.0468382 0)
(7.35837 0.0497227 0)
(7.36013 0.0528309 0)
(7.36206 0.056184 0)
(7.36419 0.059801 0)
(7.36657 0.0636983 0)
(7.36925 0.0678895 0)
(7.37227 0.0723844 0)
(7.37568 0.0771897 0)
(7.37955 0.0823086 0)
(7.38393 0.0877421 0)
(7.38888 0.0934877 0)
(7.39447 0.0995492 0)
(7.40073 0.105898 0)
(7.33303 0.00162348 0)
(7.33336 0.00481051 0)
(7.33405 0.00782672 0)
(7.33499 0.0106397 0)
(7.33608 0.013258 0)
(7.33729 0.0157002 0)
(7.33858 0.0179896 0)
(7.33991 0.0201542 0)
(7.34127 0.0222229 0)
(7.34265 0.024223 0)
(7.34403 0.0261806 0)
(7.34542 0.0281203 0)
(7.34681 0.0300657 0)
(7.34822 0.0320395 0)
(7.34965 0.0340637 0)
(7.3511 0.03616 0)
(7.35259 0.0383497 0)
(7.35414 0.0406538 0)
(7.35577 0.043093 0)
(7.3575 0.045687 0)
(7.35935 0.0484548 0)
(7.36136 0.0514139 0)
(7.36356 0.0545801 0)
(7.36599 0.0579667 0)
(7.36869 0.0615844 0)
(7.3717 0.0654408 0)
(7.37507 0.0695399 0)
(7.37885 0.0738824 0)
(7.38309 0.0784654 0)
(7.38785 0.0832831 0)
(7.39319 0.0883249 0)
(7.39917 0.0935842 0)
(7.40583 0.0990254 0)
(7.33303 0.00152795 0)
(7.33333 0.00453196 0)
(7.33397 0.00739269 0)
(7.33484 0.0100819 0)
(7.33587 0.0126033 0)
(7.33703 0.0149703 0)
(7.33828 0.0172015 0)
(7.3396 0.0193199 0)
(7.34095 0.0213496 0)
(7.34234 0.0233145 0)
(7.34374 0.0252373 0)
(7.34518 0.02714 0)
(7.34663 0.0290438 0)
(7.34811 0.0309691 0)
(7.34963 0.0329356 0)
(7.35119 0.0349627 0)
(7.35281 0.0370691 0)
(7.35451 0.0392728 0)
(7.3563 0.0415911 0)
(7.35822 0.04404 0)
(7.36028 0.0466345 0)
(7.36251 0.0493876 0)
(7.36495 0.0523101 0)
(7.36764 0.0554104 0)
(7.37061 0.0586938 0)
(7.3739 0.0621626 0)
(7.37757 0.0658153 0)
(7.38165 0.0696469 0)
(7.38619 0.0736483 0)
(7.39126 0.0778071 0)
(7.39689 0.0821056 0)
(7.40317 0.0865267 0)
(7.4101 0.0910298 0)
(7.33303 0.00143779 0)
(7.33331 0.00426789 0)
(7.3339 0.00697656 0)
(7.33472 0.00954009 0)
(7.33571 0.011959 0)
(7.33683 0.0142432 0)
(7.33805 0.0164076 0)
(7.33934 0.018471 0)
(7.3407 0.0204542 0)
(7.3421 0.0223778 0)
(7.34354 0.024262 0)
(7.34502 0.0261263 0)
(7.34653 0.0279894 0)
(7.34809 0.0298691 0)
(7.3497 0.0317827 0)
(7.35137 0.0337465 0)
(7.35311 0.0357761 0)
(7.35495 0.0378861 0)
(7.3569 0.0400901 0)
(7.35899 0.0424001 0)
(7.36123 0.0448266 0)
(7.36366 0.047378 0)
(7.36632 0.0500605 0)
(7.36922 0.0528772 0)
(7.37242 0.0558287 0)
(7.37595 0.0589117 0)
(7.37985 0.0621195 0)
(7.38416 0.0654417 0)
(7.38893 0.0688634 0)
(7.39422 0.0723663 0)
(7.40004 0.0759265 0)
(7.40649 0.0795185 0)
(7.41356 0.083098 0)
(7.33303 0.0013515 0)
(7.33329 0.00401427 0)
(7.33384 0.00657323 0)
(7.33462 0.00900893 0)
(7.33557 0.0113202 0)
(7.33666 0.013514 0)
(7.33786 0.015602 0)
(7.33915 0.0175995 0)
(7.34051 0.0195235 0)
(7.34192 0.0213913 0)
(7.34339 0.0232201 0)
(7.34491 0.0250265 0)
(7.34649 0.0268264 0)
(7.34811 0.028635 0)
(7.34981 0.0304668 0)
(7.35157 0.0323355 0)
(7.35343 0.0342535 0)
(7.35539 0.0362325 0)
(7.35748 0.0382826 0)
(7.35971 0.0404122 0)
(7.36211 0.042628 0)
(7.36471 0.0449345 0)
(7.36754 0.0473335 0)
(7.37063 0.049824 0)
(7.37401 0.052402 0)
(7.37771 0.0550597 0)
(7.38179 0.057786 0)
(7.38626 0.0605656 0)
(7.39118 0.0633794 0)
(7.39659 0.0662041 0)
(7.40252 0.0690108 0)
(7.40903 0.0717678 0)
(7.41611 0.0744289 0)
(7.33302 0.00126782 0)
(7.33327 0.00376764 0)
(7.3338 0.00617816 0)
(7.33455 0.00848377 0)
(7.33547 0.0106825 0)
(7.33654 0.0127792 0)
(7.33772 0.014783 0)
(7.33901 0.016706 0)
(7.34037 0.0185625 0)
(7.3418 0.0203667 0)
(7.3433 0.0221333 0)
(7.34487 0.0238761 0)
(7.34649 0.0256087 0)
(7.34819 0.0273437 0)
(7.34996 0.0290927 0)
(7.35181 0.0308667 0)
(7.35377 0.0326752 0)
(7.35584 0.0345264 0)
(7.35805 0.0364271 0)
(7.3604 0.0383823 0)
(7.36294 0.0403947 0)
(7.36567 0.0424648 0)
(7.36864 0.0445906 0)
(7.37186 0.0467671 0)
(7.37537 0.0489858 0)
(7.3792 0.0512351 0)
(7.38339 0.0534998 0)
(7.38796 0.055761 0)
(7.39295 0.0579955 0)
(7.39839 0.0601762 0)
(7.40432 0.0622707 0)
(7.41078 0.0642433 0)
(7.41776 0.0660476 0)
(7.33302 0.00118566 0)
(7.33326 0.00352498 0)
(7.33377 0.00578713 0)
(7.3345 0.00795981 0)
(7.3354 0.0100407 0)
(7.33645 0.0120329 0)
(7.33762 0.0139433 0)
(7.3389 0.0157811 0)
(7.34028 0.0175575 0)
(7.34173 0.0192842 0)
(7.34326 0.0209726 0)
(7.34487 0.0226341 0)
(7.34654 0.0242794 0)
(7.3483 0.0259183 0)
(7.35014 0.0275601 0)
(7.35208 0.0292126 0)
(7.35412 0.0308826 0)
(7.35628 0.0325754 0)
(7.35859 0.0342947 0)
(7.36105 0.0360422 0)
(7.36369 0.0378176 0)
(7.36653 0.0396179 0)
(7.36959 0.0414378 0)
(7.37291 0.0432686 0)
(7.3765 0.0450991 0)
(7.3804 0.0469143 0)
(7.38464 0.0486961 0)
(7.38923 0.0504227 0)
(7.39421 0.0520682 0)
(7.39961 0.053603 0)
(7.40545 0.054993 0)
(7.41177 0.0562006 0)
(7.41855 0.0571816 0)
(7.33302 0.0011041 0)
(7.33325 0.00328366 0)
(7.33375 0.00539656 0)
(7.33446 0.00743346 0)
(7.33534 0.00939213 0)
(7.33638 0.0112746 0)
(7.33755 0.0130859 0)
(7.33884 0.0148332 0)
(7.34022 0.0165251 0)
(7.3417 0.0181707 0)
(7.34325 0.0197791 0)
(7.34489 0.0213589 0)
(7.34661 0.0229182 0)
(7.34842 0.0244645 0)
(7.35032 0.0260041 0)
(7.35232 0.0275423 0)
(7.35443 0.029083 0)
(7.35667 0.0306287 0)
(7.35905 0.0321801 0)
(7.36158 0.0337358 0)
(7.3643 0.0352924 0)
(7.3672 0.036844 0)
(7.37033 0.0383821 0)
(7.37369 0.0398953 0)
(7.37732 0.0413695 0)
(7.38123 0.0427873 0)
(7.38545 0.0441283 0)
(7.39 0.0453684 0)
(7.3949 0.0464803 0)
(7.40018 0.047433 0)
(7.40585 0.0481919 0)
(7.41193 0.0487187 0)
(7.41841 0.0489731 0)
(7.33302 0.00102226 0)
(7.33325 0.00304114 0)
(7.33374 0.00500243 0)
(7.33444 0.00689915 0)
(7.33531 0.008729 0)
(7.33635 0.0104928 0)
(7.33752 0.0121936 0)
(7.33881 0.0138365 0)
(7.34021 0.0154274 0)
(7.34171 0.016973 0)
(7.3433 0.0184798 0)
(7.34497 0.019954 0)
(7.34674 0.0214015 0)
(7.34859 0.0228271 0)
(7.35054 0.0242348 0)
(7.3526 0.0256276 0)
(7.35477 0.0270067 0)
(7.35707 0.0283724 0)
(7.3595 0.0297226 0)
(7.36209 0.0310537 0)
(7.36485 0.0323595 0)
(7.3678 0.0336318 0)
(7.37095 0.0348598 0)
(7.37432 0.0360302 0)
(7.37793 0.0371268 0)
(7.38181 0.0381305 0)
(7.38596 0.0390193 0)
(7.39041 0.0397683 0)
(7.39517 0.0403494 0)
(7.40026 0.0407318 0)
(7.40568 0.0408817 0)
(7.41146 0.040762 0)
(7.41756 0.040337 0)
(7.33302 0.000939374 0)
(7.33325 0.00279544 0)
(7.33373 0.00460263 0)
(7.33442 0.00635648 0)
(7.3353 0.00805525 0)
(7.33633 0.00969929 0)
(7.3375 0.0112906 0)
(7.3388 0.0128323 0)
(7.34021 0.0143284 0)
(7.34173 0.015783 0)
(7.34333 0.0172004 0)
(7.34504 0.0185842 0)
(7.34683 0.0199375 0)
(7.34872 0.0212629 0)
(7.35071 0.0225617 0)
(7.3528 0.0238343 0)
(7.355 0.0250797 0)
(7.35733 0.0262955 0)
(7.3598 0.0274774 0)
(7.36241 0.0286192 0)
(7.36518 0.0297128 0)
(7.36812 0.0307479 0)
(7.37126 0.0317118 0)
(7.37459 0.0325896 0)
(7.37815 0.0333637 0)
(7.38193 0.0340139 0)
(7.38596 0.0345177 0)
(7.39025 0.0348498 0)
(7.3948 0.0349825 0)
(7.39963 0.034886 0)
(7.40474 0.0345278 0)
(7.41015 0.0338728 0)
(7.41582 0.0328903 0)
(7.33302 0.000854589 0)
(7.33325 0.00254358 0)
(7.33373 0.00419098 0)
(7.33443 0.00579375 0)
(7.3353 0.00734975 0)
(7.33634 0.00885809 0)
(7.33753 0.0103191 0)
(7.33884 0.0117342 0)
(7.34028 0.0131053 0)
(7.34181 0.0144349 0)
(7.34345 0.015725 0)
(7.34518 0.0169777 0)
(7.34701 0.0181942 0)
(7.34893 0.0193749 0)
(7.35096 0.0205195 0)
(7.35308 0.0216265 0)
(7.35531 0.0226929 0)
(7.35767 0.0237143 0)
(7.36014 0.0246849 0)
(7.36276 0.0255967 0)
(7.36552 0.0264402 0)
(7.36844 0.0272035 0)
(7.37153 0.0278726 0)
(7.37479 0.0284314 0)
(7.37825 0.0288617 0)
(7.38191 0.029143 0)
(7.38578 0.0292526 0)
(7.38986 0.0291659 0)
(7.39416 0.0288563 0)
(7.39869 0.0282955 0)
(7.40345 0.0274538 0)
(7.40843 0.026299 0)
(7.41362 0.0248054 0)
(7.33302 0.0007673 0)
(7.33325 0.00228513 0)
(7.33373 0.00377086 0)
(7.33443 0.00522432 0)
(7.33531 0.00664437 0)
(7.33635 0.0080299 0)
(7.33754 0.00938008 0)
(7.33887 0.0106944 0)
(7.3403 0.0119724 0)
(7.34185 0.013214 0)
(7.3435 0.0144186 0)
(7.34525 0.0155854 0)
(7.34709 0.0167132 0)
(7.34902 0.0178002 0)
(7.35106 0.0188436 0)
(7.35319 0.0198397 0)
(7.35542 0.0207838 0)
(7.35777 0.0216695 0)
(7.36023 0.0224895 0)
(7.36282 0.0232345 0)
(7.36553 0.0238935 0)
(7.36839 0.0244538 0)
(7.37139 0.0249006 0)
(7.37455 0.0252175 0)
(7.37787 0.0253861 0)
(7.38135 0.0253861 0)
(7.38501 0.0251957 0)
(7.38884 0.0247914 0)
(7.39284 0.0241484 0)
(7.39702 0.0232404 0)
(7.40137 0.0220405 0)
(7.4059 0.0205196 0)
(7.41057 0.0186569 0)
(7.33302 0.000676134 0)
(7.33325 0.00201308 0)
(7.33375 0.00332312 0)
(7.33446 0.00460641 0)
(7.33536 0.00586076 0)
(7.33643 0.00708398 0)
(7.33765 0.00827432 0)
(7.339 0.00943052 0)
(7.34046 0.0105516 0)
(7.34204 0.0116364 0)
(7.34372 0.0126835 0)
(7.34549 0.0136909 0)
(7.34735 0.014656 0)
(7.34931 0.0155757 0)
(7.35136 0.0164458 0)
(7.35349 0.0172614 0)
(7.35573 0.0180164 0)
(7.35806 0.0187034 0)
(7.3605 0.0193138 0)
(7.36304 0.0198371 0)
(7.3657 0.0202616 0)
(7.36848 0.0205737 0)
(7.37138 0.0207583 0)
(7.3744 0.0207989 0)
(7.37756 0.0206771 0)
(7.38085 0.0203735 0)
(7.38427 0.0198672 0)
(7.38782 0.0191364 0)
(7.3915 0.0181582 0)
(7.39531 0.0169089 0)
(7.39924 0.0153651 0)
(7.40328 0.0135016 0)
(7.40741 0.0113019 0)
(7.33302 0.000581332 0)
(7.33326 0.00173546 0)
(7.33375 0.00287875 0)
(7.33447 0.00401526 0)
(7.33538 0.00514309 0)
(7.33644 0.00625837 0)
(7.33766 0.00735639 0)
(7.33901 0.00843231 0)
(7.34048 0.00948142 0)
(7.34206 0.0104991 0)
(7.34374 0.0114808 0)
(7.34552 0.0124222 0)
(7.34738 0.0133185 0)
(7.34933 0.0141646 0)
(7.35136 0.0149546 0)
(7.35348 0.0156822 0)
(7.35569 0.0163402 0)
(7.35798 0.0169203 0)
(7.36037 0.0174131 0)
(7.36284 0.017808 0)
(7.36541 0.018093 0)
(7.36807 0.0182546 0)
(7.37083 0.0182781 0)
(7.37369 0.0181475 0)
(7.37665 0.0178454 0)
(7.3797 0.0173536 0)
(7.38285 0.0166529 0)
(7.38609 0.0157235 0)
(7.38942 0.0145451 0)
(7.39283 0.0130963 0)
(7.3963 0.0113564 0)
(7.39985 0.00930505 0)
(7.40343 0.00692784 0)
(7.33302 0.000478182 0)
(7.33328 0.00142204 0)
(7.33381 0.00235381 0)
(7.33457 0.00327796 0)
(7.33552 0.00419274 0)
(7.33664 0.00509533 0)
(7.3379 0.00598269 0)
(7.3393 0.00685202 0)
(7.34081 0.00769971 0)
(7.34242 0.00852112 0)
(7.34412 0.00931127 0)
(7.34592 0.0100647 0)
(7.34779 0.0107756 0)
(7.34974 0.0114373 0)
(7.35177 0.0120429 0)
(7.35388 0.0125849 0)
(7.35605 0.0130551 0)
(7.35831 0.0134444 0)
(7.36063 0.0137425 0)
(7.36303 0.0139383 0)
(7.3655 0.0140193 0)
(7.36804 0.0139718 0)
(7.37066 0.0137812 0)
(7.37335 0.0134318 0)
(7.3761 0.0129072 0)
(7.37891 0.0121904 0)
(7.38179 0.0112638 0)
(7.38471 0.0101098 0)
(7.38768 0.00871091 0)
(7.39069 0.00704772 0)
(7.39372 0.00510402 0)
(7.39676 0.00286656 0)
(7.39979 0.000323502 0)
(7.33302 0.000373978 0)
(7.33327 0.00113161 0)
(7.3338 0.00191496 0)
(7.33455 0.0027286 0)
(7.3355 0.00356412 0)
(7.33661 0.00441081 0)
(7.33787 0.00525679 0)
(7.33927 0.00609245 0)
(7.34078 0.00690951 0)
(7.34239 0.00770036 0)
(7.34409 0.00845791 0)
(7.34588 0.0091752 0)
(7.34774 0.00984532 0)
(7.34968 0.010461 0)
(7.35168 0.0110146 0)
(7.35375 0.0114981 0)
(7.35588 0.0119035 0)
(7.35807 0.0122219 0)
(7.36031 0.0124437 0)
(7.36261 0.0125586 0)
(7.36497 0.0125552 0)
(7.36736 0.0124209 0)
(7.36981 0.0121424 0)
(7.37229 0.0117055 0)
(7.37481 0.0110951 0)
(7.37736 0.0102958 0)
(7.37993 0.00929227 0)
(7.38252 0.0080696 0)
(7.38511 0.00661354 0)
(7.3877 0.0049014 0)
(7.39028 0.00292441 0)
(7.39284 0.000661433 0)
(7.39535 -0.001885 0)
(7.33303 0.000239972 0)
(7.33334 0.000705452 0)
(7.33396 0.00118086 0)
(7.33482 0.00168064 0)
(7.33586 0.00220411 0)
(7.33705 0.0027472 0)
(7.33838 0.00330632 0)
(7.33982 0.00387642 0)
(7.34137 0.00444671 0)
(7.34301 0.00500661 0)
(7.34473 0.00554706 0)
(7.34652 0.00605914 0)
(7.34838 0.00653411 0)
(7.3503 0.00696297 0)
(7.35228 0.00733642 0)
(7.35431 0.00764526 0)
(7.35639 0.00788032 0)
(7.35852 0.00803201 0)
(7.36068 0.00809016 0)
(7.36288 0.00804407 0)
(7.36512 0.00788233 0)
(7.36738 0.00759195 0)
(7.36966 0.00715927 0)
(7.37195 0.00657054 0)
(7.37425 0.00581279 0)
(7.37655 0.0048714 0)
(7.37884 0.00373143 0)
(7.38112 0.00238909 0)
(7.38335 0.000824297 0)
(7.38554 -0.00096958 0)
(7.38768 -0.00300859 0)
(7.38975 -0.00531306 0)
(7.39174 -0.0078798 0)
(7.33302 0.000141893 0)
(7.33328 0.000476509 0)
(7.33387 0.000904338 0)
(7.3347 0.00141325 0)
(7.33573 0.00197772 0)
(7.33693 0.00256886 0)
(7.33828 0.0031579 0)
(7.33975 0.00374667 0)
(7.34131 0.00432838 0)
(7.34296 0.00489197 0)
(7.34469 0.00542788 0)
(7.34649 0.00592775 0)
(7.34834 0.00638398 0)
(7.35025 0.00678681 0)
(7.3522 0.00712778 0)
(7.35418 0.00740032 0)
(7.35621 0.00759763 0)
(7.35826 0.00771191 0)
(7.36033 0.00773431 0)
(7.36241 0.0076551 0)
(7.36451 0.00746535 0)
(7.3666 0.00715453 0)
(7.36869 0.00671153 0)
(7.37077 0.00612738 0)
(7.37282 0.00538855 0)
(7.37484 0.00446939 0)
(7.37684 0.00337449 0)
(7.37878 0.00208395 0)
(7.38067 0.000587722 0)
(7.38248 -0.00111303 0)
(7.38419 -0.00303436 0)
(7.38581 -0.00518397 0)
(7.38732 -0.0075671 0)
(7.33306 -8.5622e-05 0)
(7.33351 -0.000275675 0)
(7.33431 -0.000397266 0)
(7.33533 -0.000418037 0)
(7.33648 -0.000345905 0)
(7.33775 -0.000181011 0)
(7.33913 7.1147e-05 0)
(7.34063 0.000369133 0)
(7.34221 0.000689108 0)
(7.34388 0.00101672 0)
(7.34561 0.00133777 0)
(7.3474 0.00163964 0)
(7.34924 0.00192064 0)
(7.35112 0.00216821 0)
(7.35303 0.00236648 0)
(7.35497 0.00250452 0)
(7.35694 0.00257347 0)
(7.35892 0.0025642 0)
(7.36091 0.00246681 0)
(7.3629 0.00227299 0)
(7.36488 0.00198307 0)
(7.36685 0.00157923 0)
(7.3688 0.00104706 0)
(7.37071 0.000375133 0)
(7.37255 -0.000444453 0)
(7.37434 -0.00140736 0)
(7.37608 -0.00253453 0)
(7.37773 -0.00384692 0)
(7.3793 -0.00534477 0)
(7.38077 -0.00703986 0)
(7.38212 -0.00893562 0)
(7.38334 -0.0110363 0)
(7.38441 -0.0133421 0)
(7.33301 -0.000145845 0)
(7.33331 -0.00026154 0)
(7.33405 -0.000168224 0)
(7.33507 3.85401e-05 0)
(7.33629 0.000306211 0)
(7.33768 0.000627771 0)
(7.33919 0.000992825 0)
(7.34076 0.00136283 0)
(7.3424 0.00172277 0)
(7.34411 0.00206736 0)
(7.34586 0.00239014 0)
(7.34767 0.00268375 0)
(7.34953 0.00293206 0)
(7.3514 0.00313302 0)
(7.35328 0.00328817 0)
(7.35518 0.00339276 0)
(7.35708 0.00343959 0)
(7.35897 0.00342162 0)
(7.36086 0.00333231 0)
(7.36274 0.00316267 0)
(7.36459 0.00289354 0)
(7.36638 0.00252415 0)
(7.36812 0.00205123 0)
(7.3698 0.0014636 0)
(7.37143 0.000754239 0)
(7.37299 -7.09971e-05 0)
(7.37443 -0.00103752 0)
(7.37577 -0.00214583 0)
(7.377 -0.00340539 0)
(7.3781 -0.00482687 0)
(7.37906 -0.00641503 0)
(7.37988 -0.00817649 0)
(7.38054 -0.0101107 0)
(7.33314 -0.000729362 0)
(7.33395 -0.00203213 0)
(7.33507 -0.00288717 0)
(7.33627 -0.00340231 0)
(7.33757 -0.00368068 0)
(7.33896 -0.0037815 0)
(7.34043 -0.00377189 0)
(7.34197 -0.003682 0)
(7.34357 -0.00353821 0)
(7.34524 -0.00336526 0)
(7.34697 -0.0031832 0)
(7.34873 -0.00300844 0)
(7.35051 -0.00286409 0)
(7.35233 -0.00275658 0)
(7.35418 -0.00268736 0)
(7.35603 -0.00266323 0)
(7.35789 -0.00269267 0)
(7.35974 -0.00278324 0)
(7.36157 -0.00294134 0)
(7.36335 -0.00317534 0)
(7.36508 -0.00350357 0)
(7.36678 -0.00392482 0)
(7.36843 -0.00444143 0)
(7.36999 -0.00505906 0)
(7.37147 -0.00578688 0)
(7.37285 -0.00664426 0)
(7.37411 -0.00762535 0)
(7.37524 -0.00873444 0)
(7.37624 -0.00997857 0)
(7.37708 -0.0113625 0)
(7.37776 -0.0128892 0)
(7.37826 -0.0145623 0)
(7.37855 -0.0163793 0)
(7.33307 -0.000310091 0)
(7.33389 -0.000683613 0)
(7.33534 -0.000849559 0)
(7.33691 -0.000965646 0)
(7.33857 -0.00102388 0)
(7.3403 -0.00103165 0)
(7.34207 -0.00101254 0)
(7.34387 -0.000973659 0)
(7.34569 -0.000921056 0)
(7.34754 -0.000862789 0)
(7.3494 -0.000805336 0)
(7.35129 -0.000753628 0)
(7.35319 -0.000703866 0)
(7.35511 -0.000663256 0)
(7.35703 -0.000642784 0)
(7.35894 -0.000649071 0)
(7.36084 -0.000686827 0)
(7.36271 -0.000760898 0)
(7.36456 -0.000876793 0)
(7.36637 -0.00103828 0)
(7.36813 -0.00124096 0)
(7.36983 -0.00149719 0)
(7.37146 -0.00181673 0)
(7.37302 -0.00220448 0)
(7.37449 -0.00266469 0)
(7.37586 -0.00320279 0)
(7.37714 -0.00382288 0)
(7.37829 -0.00452968 0)
(7.37933 -0.00532793 0)
(7.38024 -0.00622237 0)
(7.38101 -0.00721648 0)
(7.38164 -0.00831553 0)
(7.38214 -0.00951662 0)
(7.33438 -0.00350564 0)
(7.3392 -0.0065361 0)
(7.345 -0.00772236 0)
(7.35131 -0.00842897 0)
(7.35802 -0.00875279 0)
(7.36491 -0.00881219 0)
(7.37184 -0.00875767 0)
(7.37878 -0.00865383 0)
(7.3857 -0.00852869 0)
(7.39259 -0.00840361 0)
(7.39945 -0.00829279 0)
(7.40626 -0.00820469 0)
(7.41304 -0.00814527 0)
(7.41979 -0.00812135 0)
(7.42652 -0.00813793 0)
(7.43323 -0.00819804 0)
(7.43992 -0.0083047 0)
(7.44661 -0.00846148 0)
(7.4533 -0.00867249 0)
(7.45998 -0.00894221 0)
(7.46667 -0.00927418 0)
(7.47336 -0.00967266 0)
(7.48007 -0.0101418 0)
(7.48678 -0.0106856 0)
(7.4935 -0.011309 0)
(7.50023 -0.0120168 0)
(7.50696 -0.0128129 0)
(7.5137 -0.0137007 0)
(7.52044 -0.0146843 0)
(7.52717 -0.015767 0)
(7.53388 -0.0169527 0)
(7.54058 -0.0182444 0)
(7.54723 -0.0196441 0)
(7.32977 -0.00392868 0)
(7.32451 -0.00817893 0)
(7.3158 -0.0106091 0)
(7.30542 -0.0123832 0)
(7.29477 -0.0136331 0)
(7.28395 -0.0144879 0)
(7.27306 -0.0151009 0)
(7.26226 -0.0155596 0)
(7.25162 -0.0159168 0)
(7.24114 -0.0162128 0)
(7.23085 -0.0164772 0)
(7.22071 -0.0167308 0)
(7.21073 -0.0169886 0)
(7.20088 -0.0172622 0)
(7.19114 -0.0175607 0)
(7.18147 -0.017892 0)
(7.17185 -0.0182626 0)
(7.16224 -0.0186784 0)
(7.15261 -0.0191449 0)
(7.14293 -0.0196668 0)
(7.13316 -0.0202487 0)
(7.12327 -0.0208952 0)
(7.11323 -0.0216111 0)
(7.10299 -0.0223999 0)
(7.09253 -0.023265 0)
(7.08181 -0.024209 0)
(7.0708 -0.0252343 0)
(7.05946 -0.0263425 0)
(7.04777 -0.0275351 0)
(7.03569 -0.0288118 0)
(7.02319 -0.0301731 0)
(7.01025 -0.0316139 0)
(6.99686 -0.0331362 0)
(3.49958 0.0605282 0)
(3.44909 0.0267753 0)