/*--------------------------------*- C++ -*----------------------------------*\
  =========                 |
  \\      /  F ield         | OpenFOAM: The Open Source CFD Toolbox
   \\    /   O peration     | Website:  https://openfoam.org
    \\  /    A nd           | Version:  10
     \\/     M anipulation  |
\*---------------------------------------------------------------------------*/
FoamFile
{
    format      ascii;
    class       volScalarField;
    location    "0.035";
    object      k;
}
// * * * * * * * * * * * * * * * * * * * * * * * * * * * * * * * * * * * * * //

dimensions      [0 2 -2 0 0 0 0];

internalField   nonuniform List<scalar> 
6820
(
0.198345
0.194816
0.19123
0.187628
0.184056
0.180544
0.177104
0.173742
0.170462
0.167268
0.16416
0.161141
0.158212
0.155374
0.152628
0.149975
0.147417
0.144954
0.142586
0.140313
0.138134
0.136048
0.134051
0.132138
0.130304
0.128537
0.126825
0.125151
0.123483
0.121815
0.11998
0.118471
0.114624
0.200925
0.200899
0.200464
0.199995
0.199518
0.199025
0.198508
0.197964
0.197392
0.196791
0.196162
0.195507
0.194828
0.194127
0.193406
0.192666
0.191911
0.191143
0.190364
0.189576
0.188782
0.187984
0.187187
0.186393
0.185606
0.184831
0.184072
0.183335
0.182627
0.181956
0.18133
0.18075
0.180303
0.23674
0.0163372
0.0232224
0.0109299
0.0065528
0.00779539
0.00933765
0.0112235
0.0132542
0.015339
0.0174472
0.0195553
0.0216461
0.0237058
0.0257236
0.0276904
0.0295991
0.0314442
0.0332221
0.0349307
0.0365703
0.038143
0.039654
0.0411112
0.0425265
0.0439166
0.0453038
0.0467176
0.0481975
0.0497947
0.0515716
0.0536401
0.0560033
0.210798
0.14784
0.104695
0.0792824
0.0636306
0.0530491
0.0452625
0.0391655
0.0341835
0.029994
0.0264021
0.0232824
0.0205502
0.0181461
0.0160268
0.01416
0.0125204
0.0110873
0.00984242
0.00876907
0.00785104
0.00707238
0.00641751
0.00587154
0.00542079
0.00505328
0.00475919
0.0045314
0.004366
0.00426335
0.00422736
0.00427534
0.00441427
0.223379
0.0830657
0.0214294
0.00432726
0.000780222
0.000472397
0.000747723
0.00103519
0.00126757
0.00145961
0.00162403
0.00176548
0.00188482
0.00198198
0.00205711
0.00211092
0.00214468
0.00216006
0.00215898
0.00214347
0.0021155
0.00207688
0.00202914
0.00197345
0.0019104
0.00184055
0.00176329
0.0016777
0.0015821
0.00147397
0.00134972
0.00120489
0.00102978
0.216956
0.115561
0.055593
0.0318547
0.0225632
0.018078
0.0149502
0.0120853
0.00926969
0.00663921
0.00442034
0.00275242
0.00162653
0.000931627
0.000530717
0.000309674
0.000190938
0.000127933
9.47044e-05
7.73421e-05
6.84206e-05
6.38586e-05
6.28458e-05
0.00173736
0.000908212
0.000844518
0.000729308
0.000699659
0.000713141
0.000725681
0.000721623
0.000727067
0.000745969
0.213568
0.132666
0.068746
0.0381708
0.0251832
0.0194638
0.0166336
0.0150602
0.0141118
0.0135119
0.0131271
0.0128885
0.0127571
0.0127073
0.0127187
0.0127705
0.0128376
0.0128856
0.0128643
0.0126973
0.0122732
0.0114565
0.0101954
0.00876399
0.00756373
0.00676974
0.00633203
0.00613186
0.00607519
0.00610242
0.00618068
0.00628602
0.00641095
0.204576
0.177576
0.13169
0.0831461
0.051297
0.034355
0.0257568
0.0212953
0.018892
0.0175751
0.0168812
0.0165769
0.0165343
0.0166775
0.0169564
0.0173342
0.0177789
0.0182557
0.0187174
0.0190844
0.0192084
0.0188403
0.017918
0.0170687
0.0166023
0.0164423
0.0165093
0.0167474
0.0171093
0.0175545
0.0180552
0.0185813
0.0191218
0.203378
0.18344
0.159967
0.129838
0.0988185
0.0744833
0.0578242
0.0471173
0.0404153
0.0362581
0.0337143
0.0322235
0.031447
0.0311724
0.0312563
0.0315909
0.0320808
0.0326226
0.0330787
0.0332413
0.0328127
0.0315545
0.0298038
0.0286107
0.0282573
0.0285256
0.0292123
0.0301868
0.0313666
0.0326831
0.0340864
0.0355219
0.0369664
0.202838
0.186181
0.170553
0.156175
0.139046
0.11982
0.101231
0.0855997
0.0737636
0.0653679
0.0596581
0.0559236
0.0536149
0.0523326
0.0517841
0.0517414
0.0520064
0.0523785
0.052623
0.0524534
0.0515975
0.0500739
0.0484981
0.047612
0.0475283
0.0480202
0.0488658
0.0499521
0.0512064
0.0525626
0.0539729
0.0553838
0.0567759
0.202483
0.187992
0.174438
0.164086
0.154738
0.145141
0.135022
0.124689
0.114903
0.106288
0.0991376
0.0934766
0.089163
0.0859778
0.0836773
0.0820232
0.0807836
0.0797236
0.0786013
0.0771937
0.0754048
0.0734226
0.0716684
0.0705007
0.0698242
0.0695149
0.0695041
0.0697381
0.0701528
0.070687
0.0713065
0.0719757
0.0726811
0.202236
0.18928
0.176866
0.167435
0.159721
0.152644
0.145742
0.138775
0.131828
0.125178
0.119114
0.113824
0.109371
0.105714
0.10273
0.100284
0.0982357
0.0964321
0.0947135
0.092945
0.0910797
0.0891289
0.0870718
0.0851043
0.0833691
0.0819656
0.0809281
0.0802251
0.079799
0.0795852
0.0795374
0.0796078
0.0797621
0.202058
0.19022
0.178252
0.168738
0.161087
0.154642
0.149028
0.143916
0.139091
0.134489
0.130134
0.126071
0.122339
0.11895
0.115879
0.113088
0.110517
0.108083
0.105687
0.103232
0.100667
0.0980049
0.0952933
0.0926849
0.0903295
0.0883157
0.0866654
0.0853522
0.0843297
0.0835416
0.0829438
0.0824906
0.0821401
0.201946
0.190838
0.179028
0.16933
0.161455
0.154867
0.149236
0.144268
0.139729
0.135485
0.131473
0.127673
0.124089
0.120727
0.117585
0.114643
0.111855
0.109158
0.106475
0.103743
0.100933
0.0980681
0.0952265
0.0925088
0.0900055
0.0877725
0.085828
0.0841598
0.0827408
0.0815338
0.0805079
0.0796301
0.0788603
0.201885
0.191203
0.179336
0.169278
0.160966
0.153989
0.148079
0.142968
0.138406
0.134206
0.130249
0.126467
0.122833
0.119339
0.115974
0.112722
0.109553
0.10643
0.103316
0.100192
0.0970629
0.0939661
0.0909619
0.0881165
0.0854839
0.0830951
0.0809583
0.0790625
0.0773875
0.0759056
0.0745925
0.0734233
0.0723613
0.201872
0.191347
0.179216
0.168664
0.159811
0.152308
0.145874
0.140231
0.135133
0.13041
0.125962
0.121731
0.117688
0.113812
0.110081
0.106469
0.10295
0.0994963
0.0960896
0.0927261
0.0894208
0.0862061
0.0831246
0.0802178
0.0775175
0.0750404
0.0727892
0.0707546
0.0689212
0.0672689
0.0657789
0.0644335
0.0632002
0.201903
0.191283
0.178669
0.16746
0.157917
0.149732
0.142615
0.136288
0.130521
0.125161
0.120115
0.115324
0.110748
0.106359
0.102132
0.0980491
0.0940946
0.090258
0.0865369
0.082938
0.0794775
0.0761782
0.0730644
0.0701568
0.0674681
0.0650022
0.0627545
0.0607139
0.0588663
0.0571948
0.0556838
0.0543205
0.0530776
0.20198
0.191009
0.177671
0.165624
0.155244
0.146244
0.138324
0.131204
0.124668
0.118575
0.112837
0.107395
0.102213
0.0972646
0.0925336
0.0880071
0.0836765
0.0795375
0.0755906
0.0718419
0.0683012
0.0649807
0.0618913
0.0590403
0.0564298
0.0540564
0.0519119
0.0499848
0.0482623
0.0467289
0.0453704
0.0441778
0.0431279
0.202109
0.19051
0.176166
0.163059
0.15166
0.1417
0.132875
0.124903
0.117569
0.110728
0.10429
0.0982001
0.0924249
0.0869473
0.0817577
0.0768509
0.072224
0.0678759
0.0638071
0.0600195
0.0565159
0.0532981
0.0503662
0.0477177
0.0453467
0.0432446
0.0414008
0.0398031
0.0384376
0.0372885
0.0363431
0.0355947
0.035025
0.202301
0.189751
0.17405
0.159611
0.147011
0.135992
0.126223
0.117397
0.109278
0.101714
0.0946158
0.0879351
0.081649
0.0757477
0.0702272
0.0650854
0.0603203
0.0559289
0.0519084
0.0482552
0.0449655
0.0420346
0.0394563
0.0372227
0.0353239
0.033748
0.0324814
0.0315083
0.0308107
0.0303708
0.0301715
0.0301988
0.030434
0.202581
0.188652
0.171139
0.155067
0.141121
0.128999
0.118296
0.108647
0.0997933
0.0915774
0.0839164
0.0767706
0.070124
0.0639712
0.0583102
0.0531389
0.0484533
0.0442483
0.0405174
0.037254
0.0344507
0.0320988
0.030188
0.028705
0.0276332
0.0269522
0.0266374
0.0266611
0.0269938
0.0276047
0.0284636
0.0295414
0.0308168
0.202985
0.187042
0.167167
0.149194
0.133828
0.120626
0.109052
0.0986718
0.0892001
0.0804778
0.0724271
0.0650152
0.0582298
0.0520664
0.0465226
0.041595
0.0372791
0.0335699
0.0304618
0.0279472
0.0260154
0.0246502
0.0238288
0.0235207
0.0236876
0.0242843
0.0252612
0.0265667
0.0281499
0.0299616
0.0319576
0.034098
0.0363648
0.203551
0.184733
0.16188
0.141771
0.124979
0.110792
0.0984926
0.0875579
0.0776726
0.0686742
0.0604886
0.0530864
0.0464565
0.0405946
0.0355001
0.0311743
0.0276183
0.0248311
0.0228052
0.0215228
0.0209518
0.0210455
0.0217431
0.0229729
0.0246555
0.0267097
0.0290571
0.0316257
0.0343516
0.0371799
0.0400665
0.0429757
0.0459059
0.204337
0.1815
0.154948
0.13253
0.11442
0.0994673
0.0866985
0.0754847
0.0654794
0.0565155
0.0485221
0.0414737
0.0353648
0.0302004
0.0259929
0.0227547
0.0204886
0.019179
0.0187851
0.019239
0.0204485
0.0223043
0.0246876
0.0274793
0.0305671
0.0338516
0.0372483
0.0406889
0.0441199
0.0475014
0.0508064
0.0540182
0.0571599
0.205431
0.176965
0.145935
0.121218
0.102115
0.08679
0.0739475
0.0628451
0.0531091
0.0445727
0.0371755
0.0309111
0.0257987
0.0218673
0.0191403
0.017616
0.0172517
0.0179581
0.0196054
0.0220362
0.0250816
0.0285756
0.0323653
0.0363188
0.0403289
0.044313
0.0482103
0.0519793
0.0555946
0.0590425
0.0623204
0.0654349
0.0684294
0.206955
0.17056
0.134363
0.10768
0.0881579
0.0730142
0.0605986
0.050076
0.041067
0.0334286
0.0271407
0.0222432
0.0187869
0.0167952
0.0162365
0.0170093
0.0189461
0.0218332
0.02544
0.0295409
0.0339334
0.0384488
0.0429548
0.0473548
0.0515838
0.0556026
0.0593922
0.0629486
0.0662782
0.0693941
0.0723146
0.0750635
0.0776945
0.209043
0.161564
0.119929
0.0921249
0.0730674
0.0588269
0.0474411
0.0380498
0.0303281
0.0242094
0.0197442
0.0170002
0.0159847
0.0166039
0.0186622
0.0218906
0.0259861
0.0306507
0.0356201
0.0406756
0.045651
0.0504321
0.0549489
0.0591662
0.0630744
0.0666819
0.0700081
0.0730788
0.0759218
0.0785649
0.0810354
0.0833631
0.0855997
0.211793
0.149236
0.102665
0.0750577
0.0574886
0.044906
0.0352045
0.0276267
0.0219736
0.0182557
0.0165111
0.0166908
0.0186085
0.0219544
0.0263483
0.0314026
0.0367681
0.0421644
0.0473874
0.0523052
0.056849
0.0609985
0.0647661
0.0681833
0.071291
0.0741325
0.0767495
0.0791794
0.0814546
0.0836023
0.0856456
0.0876079
0.089527
0.215122
0.133421
0.0837119
0.0580739
0.0431246
0.0330529
0.0258802
0.0210583
0.0184823
0.0180977
0.0197364
0.023076
0.0276838
0.0330927
0.0388638
0.0446347
0.0501423
0.0552278
0.0598218
0.0639197
0.067557
0.0707908
0.0736846
0.0763006
0.0786938
0.0809105
0.0829882
0.0849565
0.0868378
0.0886493
0.090404
0.0921142
0.0938024
0.218587
0.115513
0.0651368
0.0429142
0.0315611
0.0249691
0.0213223
0.0201286
0.0211639
0.0241284
0.0285656
0.0339083
0.0395993
0.0451943
0.0503866
0.0550039
0.0589954
0.0624005
0.0653081
0.0678229
0.0700454
0.0720621
0.0739412
0.0757326
0.0774711
0.0791799
0.0808734
0.0825599
0.0842433
0.0859243
0.0876014
0.0892724
0.0909426
0.221164
0.0997902
0.0516258
0.0341299
0.027291
0.0249724
0.0253638
0.0277452
0.0315643
0.0362491
0.041254
0.0461386
0.0506363
0.054657
0.0582183
0.0613763
0.0641738
0.0666237
0.0687297
0.0705216
0.0720716
0.0734777
0.0748313
0.0761913
0.0775818
0.0790069
0.080462
0.0819397
0.0834319
0.0849311
0.08643
0.0879216
0.0894061
0.221832
0.0926231
0.0471477
0.033116
0.0292433
0.0291068
0.0306193
0.0328453
0.0352193
0.037401
0.0392803
0.0409353
0.0425704
0.0444504
0.0468002
0.0496517
0.0527473
0.0557043
0.0582196
0.0601466
0.0615348
0.0625805
0.063516
0.0645083
0.065626
0.0668738
0.0682312
0.0696742
0.0711817
0.0727363
0.0743234
0.0759299
0.0775502
0.22099
0.0920114
0.0477881
0.0346843
0.0308723
0.0296853
0.0290991
0.0285537
0.0279811
0.0274731
0.0271916
0.0273158
0.0280728
0.0297981
0.0328504
0.0372251
0.0422247
0.0469054
0.0507432
0.0536335
0.0557365
0.0573192
0.0586385
0.0598808
0.0611501
0.0624883
0.063901
0.0653763
0.0668975
0.0684481
0.070014
0.0715832
0.0731523
0.222766
0.0824829
0.0342724
0.0206464
0.0169748
0.0160042
0.0156806
0.0154189
0.0150847
0.0147006
0.0143471
0.0141101
0.0140765
0.0144205
0.0155182
0.0178173
0.0214321
0.0260497
0.0311556
0.0362015
0.0407409
0.0445132
0.047453
0.049646
0.0512625
0.0524965
0.0535215
0.0544683
0.0554196
0.0564171
0.0574728
0.0585814
0.0597329
0.22464
0.0748753
0.0264011
0.0132066
0.00972579
0.00880904
0.00856469
0.00848832
0.0084402
0.00838415
0.00832366
0.00828352
0.00830631
0.00847568
0.00894712
0.00990553
0.0114649
0.0136515
0.0163903
0.0194869
0.0226671
0.0256539
0.0282392
0.0303241
0.0319183
0.0331088
0.0340176
0.0347642
0.0354425
0.0361123
0.0368042
0.0375235
0.0382785
0.223034
0.0829162
0.0342001
0.0192885
0.0141685
0.0118131
0.0102618
0.00896577
0.00777788
0.00667514
0.00566714
0.00477318
0.00400416
0.00336249
0.00284292
0.0024335
0.0021195
0.00188472
0.0017135
0.00159256
0.00151138
0.00146192
0.00143814
0.00143557
0.00145085
0.0014814
0.00152515
0.00158029
0.00164523
0.00171846
0.00179843
0.00188454
0.00197596
0.212672
0.137126
0.0914391
0.0673586
0.0541425
0.0462062
0.0409872
0.0373
0.034562
0.032442
0.0307604
0.029386
0.0282429
0.0272813
0.0264603
0.0257496
0.0251268
0.0245749
0.0240807
0.0236339
0.0232256
0.0228486
0.0224962
0.0221629
0.0218444
0.021537
0.0212382
0.0209461
0.0206594
0.0203769
0.0200971
0.019822
0.0195364
0.240241
0.000502061
0.0369068
0.000182482
1.2026e-05
0.00113831
0.000993587
0.000149799
0.00201385
0.00144961
0.00531584
0.00420692
0.00104939
0.000393348
0.000760787
0.00101237
0.00118118
0.0013494
0.0015298
0.00173013
0.00195729
0.00221242
0.00249369
0.00280001
0.00313193
0.00349115
0.00388017
0.0043021
0.00476015
0.0052569
0.00579361
0.00637085
0.0069865
0.200086
0.199953
0.199777
0.199612
0.199465
0.199332
0.199211
0.199101
0.199001
0.198911
0.198831
0.198761
0.198701
0.198653
0.198617
0.198594
0.198584
0.198588
0.198607
0.198641
0.198691
0.198756
0.198839
0.198938
0.199054
0.199188
0.19934
0.199509
0.199696
0.199901
0.200123
0.200365
0.200608
0.199875
0.199561
0.199219
0.198859
0.198491
0.198118
0.197744
0.197369
0.196994
0.196619
0.196243
0.195866
0.195488
0.195106
0.194722
0.194334
0.19394
0.193541
0.193136
0.192723
0.192303
0.191873
0.191434
0.190985
0.190525
0.190053
0.189569
0.189073
0.188562
0.188038
0.187499
0.186946
0.186378
0.121202
0.123227
0.123893
0.124287
0.125595
0.132105
0.149882
0.176016
0.20053
0.217337
0.226211
0.2296
0.229899
0.228276
0.224375
0.216197
0.203731
0.189087
0.164524
0.120039
0.0660579
0.0260136
0.0149451
0.030697
0.0582478
0.0817379
0.0931199
0.093
0.086864
0.0807198
0.0785111
0.0815688
0.0892732
0.100017
0.11189
0.12301
0.131833
0.137583
0.140401
0.140851
0.13924
0.135667
0.130953
0.127373
0.127951
0.134568
0.146433
0.160346
0.172544
0.180673
0.18452
0.185376
0.184848
0.18402
0.183277
0.182568
0.181752
0.180781
0.17971
0.178615
0.177529
0.176407
0.175147
0.173632
0.171771
0.169534
0.166962
0.164142
0.161157
0.158022
0.154664
0.150938
0.146666
0.141655
0.135678
0.128425
0.119477
0.10836
0.0947352
0.0787224
0.0612145
0.0438783
0.0286398
0.0168901
0.00897592
0.00430936
0.00188383
0.000760715
0.0002909
0.000109994
4.4091e-05
2.02709e-05
1.10773e-05
6.99189e-06
4.8622e-06
3.61418e-06
2.83365e-06
2.3699e-06
2.01651e-06
2.17223e-06
0.179327
0.178156
0.176646
0.174681
0.171738
0.167459
0.163369
0.163408
0.170421
0.18238
0.194313
0.202707
0.206534
0.20581
0.200603
0.191609
0.178608
0.155214
0.114869
0.065845
0.0269726
0.012259
0.02304
0.0485019
0.0740499
0.0898322
0.0936721
0.0892252
0.0822343
0.0774928
0.0775253
0.0826498
0.0917424
0.103096
0.114958
0.125713
0.134057
0.139348
0.141768
0.141897
0.140045
0.136244
0.131173
0.126994
0.126806
0.132758
0.14435
0.158486
0.171258
0.180032
0.184365
0.185468
0.185002
0.184154
0.183383
0.182668
0.181862
0.180901
0.17983
0.17873
0.177641
0.176535
0.175325
0.173897
0.172147
0.17001
0.167486
0.164637
0.161557
0.158309
0.154882
0.151181
0.147072
0.142431
0.137154
0.131127
0.124165
0.11595
0.106026
0.0939148
0.0793982
0.0629451
0.0459549
0.030429
0.0180948
0.00963167
0.00460235
0.00198964
0.000786939
0.00028857
9.96218e-05
3.30219e-05
1.0867e-05
3.78048e-06
1.51947e-06
7.32936e-07
4.08694e-07
2.77286e-07
2.23648e-07
3.40036e-07
0.0598184
0.0648872
0.0711591
0.0796762
0.0912788
0.105424
0.119794
0.132244
0.142762
0.152452
0.16147
0.168687
0.172601
0.172364
0.166784
0.154182
0.130986
0.0955471
0.0550084
0.0227019
0.00936327
0.0178051
0.0410333
0.0670184
0.0857509
0.0931694
0.0910379
0.0842391
0.0778071
0.0751509
0.0775695
0.0846106
0.0948275
0.106527
0.11817
0.128427
0.136227
0.141044
0.143084
0.14292
0.140851
0.136847
0.131452
0.126707
0.125765
0.131028
0.142296
0.156603
0.169919
0.179335
0.184168
0.185534
0.185138
0.184268
0.183463
0.182735
0.181933
0.180979
0.179907
0.178798
0.177702
0.176604
0.17543
0.174078
0.17244
0.170426
0.167995
0.16517
0.162035
0.158688
0.15518
0.151471
0.147449
0.142987
0.138004
0.132474
0.126406
0.119783
0.112526
0.104468
0.0953656
0.084958
0.0730951
0.0599404
0.046165
0.0329345
0.0215489
0.0128918
0.00709569
0.00365409
0.00180925
0.000889114
0.000444231
0.000226501
0.000116923
6.02744e-05
3.15086e-05
1.6451e-05
8.83445e-06
8.95418e-06
0.00478331
0.00559803
0.00706847
0.00981078
0.0149283
0.023905
0.0375018
0.0545352
0.0724089
0.08874
0.102079
0.111478
0.116039
0.114902
0.105459
0.0869777
0.061134
0.033712
0.0130236
0.00605943
0.015494
0.0371453
0.062202
0.0820111
0.0918483
0.0919693
0.0860788
0.0788669
0.074146
0.0740099
0.0787835
0.0874766
0.0984873
0.110239
0.121457
0.131099
0.13831
0.142656
0.144342
0.143921
0.141667
0.137489
0.131801
0.126523
0.124836
0.129383
0.140273
0.154698
0.168527
0.178587
0.18394
0.185592
0.18528
0.184391
0.183549
0.182804
0.182005
0.181058
0.179987
0.178871
0.177767
0.17667
0.17552
0.174227
0.172693
0.170819
0.168526
0.165788
0.162649
0.15921
0.155577
0.151783
0.147764
0.143394
0.138552
0.133184
0.127311
0.121002
0.11433
0.107346
0.100078
0.0925415
0.0847493
0.0767216
0.0684886
0.060099
0.0516296
0.0431981
0.0349781
0.027208
0.0201777
0.0141787
0.00941902
0.00593393
0.00358776
0.00211417
0.00125064
0.000744708
0.00045978
0.00039477
0.000812735
0.000267043
0.000651726
0.000710184
0.00106551
0.00127867
0.00239763
0.00639749
0.0136866
0.0230752
0.03252
0.0397747
0.0429233
0.0403386
0.0326056
0.0213597
0.0100469
0.00307234
0.00465333
0.0167668
0.0372695
0.0604391
0.0796445
0.0904345
0.0921578
0.0873804
0.0800846
0.0740179
0.0717341
0.0742506
0.0811702
0.0911604
0.102604
0.114125
0.12474
0.133684
0.140287
0.14418
0.145545
0.144898
0.14249
0.138168
0.132219
0.126438
0.124023
0.127835
0.138297
0.152781
0.167087
0.177783
0.183672
0.18563
0.185416
0.184511
0.183629
0.182863
0.182064
0.181122
0.180051
0.178926
0.177811
0.176708
0.175569
0.174316
0.172863
0.171119
0.168988
0.166395
0.163327
0.159849
0.156083
0.152137
0.148031
0.14368
0.138944
0.13371
0.12794
0.121682
0.115031
0.108086
0.10093
0.0936276
0.0862457
0.0788577
0.0715469
0.0644002
0.0575002
0.0509213
0.0447258
0.0389644
0.0336706
0.0288688
0.0245589
0.0207395
0.0173524
0.014384
0.0117109
0.00942766
0.00739999
0.00632693
0.000752746
0.000717788
0.000680674
0.000605292
0.000340307
0.00111668
0.000383611
0.001975
0.00030297
0.00139893
0.00249113
0.00340972
0.00369558
0.00289675
0.00141911
0.00055959
0.00248921
0.00952643
0.022953
0.0417135
0.0621327
0.0793323
0.0895806
0.0919023
0.0879898
0.0809901
0.0742318
0.0703642
0.070877
0.0759517
0.0846742
0.0955409
0.107045
0.118075
0.127947
0.136144
0.142145
0.145614
0.146694
0.145854
0.143319
0.138884
0.132709
0.126459
0.123331
0.126393
0.136378
0.150863
0.165604
0.176925
0.183361
0.185644
0.185541
0.184624
0.183699
0.182908
0.182105
0.181167
0.180094
0.17896
0.177831
0.176719
0.17558
0.174348
0.172952
0.171314
0.169341
0.166933
0.164015
0.160587
0.156739
0.152614
0.148325
0.14388
0.139183
0.134085
0.128474
0.122328
0.115712
0.108739
0.101524
0.0941631
0.0867373
0.0793218
0.0719964
0.064846
0.0579534
0.0513934
0.0452274
0.0395017
0.0342427
0.0294655
0.0251582
0.0213128
0.0178599
0.0148053
0.0120002
0.00963772
0.00747672
0.00641313
0.00655278
0.00669698
0.00679364
0.00680781
0.00667507
0.0064071
0.0059808
0.00532314
0.00461316
0.00380436
0.00297162
0.00253638
0.00284791
0.0041438
0.00686856
0.0120422
0.0208862
0.0339629
0.0503194
0.0672607
0.0812657
0.0895924
0.0914215
0.087876
0.0812778
0.0743242
0.0694608
0.0683942
0.0717621
0.0791018
0.0891671
0.100447
0.111653
0.121977
0.131016
0.138456
0.143881
0.146964
0.147793
0.146789
0.144152
0.139629
0.133267
0.126588
0.122769
0.125067
0.13453
0.148957
0.164085
0.176012
0.183
0.185625
0.185646
0.184722
0.183753
0.182931
0.182121
0.181185
0.180109
0.178965
0.177821
0.176695
0.175551
0.174328
0.172964
0.1714
0.16956
0.167342
0.164635
0.161366
0.157549
0.153296
0.148771
0.144096
0.139282
0.134227
0.128777
0.122822
0.116344
0.10942
0.102176
0.0947429
0.0872334
0.0797392
0.0723418
0.0651216
0.0581582
0.0515258
0.0452879
0.0394937
0.0341725
0.0293416
0.0249902
0.0211104
0.0176323
0.0145657
0.0117539
0.0094048
0.00724097
0.00620588
0.0197351
0.020383
0.0209372
0.0213469
0.0215566
0.0215154
0.0212119
0.0207
0.0200775
0.0195294
0.0193336
0.0198325
0.0214644
0.0248781
0.0306456
0.0391633
0.0503059
0.0630075
0.0753062
0.0849403
0.0902325
0.0906883
0.0870156
0.0807692
0.0739453
0.0686068
0.0664596
0.06843
0.0744477
0.08358
0.0944421
0.105669
0.116268
0.125734
0.1339
0.140604
0.145496
0.148234
0.148848
0.147704
0.144984
0.140399
0.133886
0.126823
0.122343
0.123873
0.13277
0.147076
0.162539
0.175044
0.182584
0.185562
0.18572
0.184794
0.183779
0.182923
0.182101
0.181165
0.180087
0.178931
0.17777
0.176629
0.175475
0.17425
0.172901
0.171379
0.169631
0.167576
0.165097
0.162074
0.158435
0.154201
0.149505
0.14453
0.139418
0.134197
0.128771
0.122989
0.116734
0.109987
0.102824
0.095381
0.0878044
0.0802212
0.0727347
0.0654313
0.0583888
0.0516793
0.0453659
0.0395008
0.0341171
0.029236
0.024849
0.0209493
0.0174665
0.0144118
0.0116168
0.00930105
0.00714557
0.00614146
0.0386039
0.04037
0.0419689
0.043331
0.0443973
0.045134
0.0455565
0.0457476
0.0458645
0.0461565
0.0469399
0.0485749
0.0515087
0.0559393
0.0618916
0.0690391
0.076621
0.0834839
0.0883965
0.0904425
0.089298
0.0852971
0.0793584
0.0728652
0.0674675
0.0647346
0.0657178
0.0706309
0.0788377
0.0891453
0.100228
0.110985
0.120744
0.129269
0.136572
0.142587
0.146996
0.149432
0.14986
0.148598
0.145811
0.141186
0.134558
0.127157
0.122057
0.122825
0.131118
0.145239
0.160976
0.174022
0.182104
0.185443
0.185746
0.184823
0.183762
0.182868
0.182031
0.181093
0.18001
0.178842
0.177664
0.176504
0.175336
0.174105
0.172758
0.171253
0.169556
0.16761
0.165325
0.162574
0.159229
0.155212
0.150548
0.145376
0.139896
0.134281
0.128591
0.122761
0.116653
0.110148
0.103213
0.0959114
0.0883744
0.0807531
0.0731865
0.0657892
0.0586536
0.0518561
0.0454604
0.0395191
0.0340678
0.0291307
0.0247018
0.0207762
0.0172835
0.0142368
0.011457
0.0091732
0.00702854
0.00605297
0.0583615
0.060076
0.0616667
0.0631178
0.0644233
0.0655815
0.0666056
0.0675406
0.0684777
0.0695585
0.0709607
0.0728808
0.0754182
0.0785152
0.0819513
0.085313
0.088035
0.0894927
0.0891756
0.0868354
0.082586
0.076963
0.0709356
0.0658069
0.0629448
0.0633911
0.0675212
0.074938
0.0846549
0.0954517
0.106221
0.116184
0.124964
0.132534
0.13902
0.14441
0.148392
0.150564
0.150832
0.149468
0.146628
0.141982
0.135274
0.127584
0.121908
0.121931
0.129596
0.143477
0.159421
0.172959
0.181559
0.185252
0.1857
0.184783
0.183675
0.182741
0.181887
0.180944
0.179857
0.178677
0.177479
0.176299
0.175114
0.173872
0.172519
0.171016
0.169335
0.167444
0.165282
0.162753
0.159728
0.156073
0.151701
0.146621
0.140959
0.134922
0.128719
0.122468
0.116165
0.109715
0.103005
0.0959797
0.0886657
0.0811665
0.0736241
0.0661838
0.0589714
0.0520863
0.0456034
0.0395795
0.0340531
0.0290513
0.024571
0.0206097
0.0170976
0.0140495
0.0112774
0.00901867
0.0068841
0.00593045
0.0735981
0.0746718
0.0757434
0.0767987
0.0778344
0.0788495
0.079846
0.0808346
0.0818391
0.0828924
0.0840338
0.085258
0.0864976
0.0876297
0.0884481
0.0886824
0.0880352
0.0862342
0.0831238
0.0787612
0.0735071
0.068079
0.0635045
0.0609252
0.0612807
0.0649982
0.0718462
0.0810287
0.0914642
0.1021
0.112133
0.121097
0.128851
0.135506
0.141249
0.146084
0.149692
0.151634
0.151764
0.150312
0.14743
0.142778
0.136023
0.128095
0.121893
0.121196
0.128221
0.141815
0.157912
0.171898
0.180982
0.185006
0.185584
0.184658
0.183488
0.182505
0.181631
0.180684
0.179592
0.1784
0.177183
0.175981
0.174776
0.173518
0.172152
0.17064
0.168954
0.167072
0.16496
0.162557
0.159773
0.156484
0.152554
0.147878
0.142433
0.136314
0.129717
0.122876
0.115975
0.109098
0.102222
0.0952659
0.0881642
0.0809101
0.0735689
0.0662562
0.059102
0.0522238
0.0457143
0.0396442
0.0340626
0.029006
0.0244784
0.0204822
0.0169492
0.0138965
0.0111252
0.00888506
0.00675266
0.00580908
0.0801129
0.0806038
0.0811513
0.0817378
0.0823531
0.0829875
0.0836285
0.0842593
0.0848579
0.0853968
0.0858275
0.0860896
0.0861108
0.085771
0.0849081
0.0833537
0.0809659
0.0776747
0.0735569
0.0689125
0.0643155
0.0605886
0.0586622
0.0593323
0.063003
0.0695383
0.0783011
0.0883587
0.098751
0.108704
0.117727
0.125608
0.132366
0.138186
0.143271
0.147621
0.150903
0.152646
0.152654
0.151123
0.148207
0.143565
0.136795
0.128679
0.122007
0.120624
0.127002
0.140271
0.156474
0.170869
0.180421
0.18477
0.185464
0.184491
0.183215
0.182144
0.181224
0.18026
0.179164
0.177963
0.176729
0.175506
0.174279
0.172999
0.171612
0.170078
0.16837
0.166468
0.164348
0.161974
0.159295
0.156233
0.152681
0.148513
0.143618
0.137941
0.131524
0.124512
0.117117
0.109558
0.101997
0.0945178
0.087132
0.0798259
0.0725987
0.0654832
0.0585417
0.0518503
0.045484
0.0395123
0.033992
0.0289707
0.0244628
0.0204806
0.0169585
0.0139243
0.011157
0.00894814
0.00679218
0.00585342
0.0819336
0.0818093
0.0817561
0.0817515
0.0817791
0.0818244
0.0818703
0.0818928
0.0818582
0.0817219
0.0814116
0.0808479
0.079937
0.0785767
0.0766653
0.0741404
0.0710064
0.0673782
0.0635357
0.0599591
0.0573091
0.0563232
0.0576345
0.0615728
0.0680379
0.0765116
0.0862062
0.0962783
0.106018
0.114951
0.122845
0.129661
0.135506
0.140588
0.145103
0.149034
0.152032
0.153599
0.153497
0.151896
0.14895
0.144332
0.137577
0.129326
0.122245
0.120218
0.125952
0.138861
0.15512
0.169887
0.179891
0.184566
0.185381
0.184359
0.182952
0.181736
0.180697
0.179661
0.178527
0.1773
0.176051
0.17481
0.173562
0.172257
0.17084
0.169269
0.167519
0.16557
0.163398
0.160976
0.158274
0.155252
0.151857
0.148014
0.143627
0.138593
0.132836
0.126334
0.119152
0.111441
0.103408
0.0952709
0.087207
0.0793374
0.0717313
0.0644284
0.057458
0.0508491
0.0446313
0.0388358
0.0334895
0.0286197
0.0242326
0.020344
0.0168977
0.0139438
0.0112413
0.00915067
0.00700637
0.00618497
0.0781768
0.0775206
0.0769471
0.0764347
0.0759629
0.0755111
0.0750547
0.0745631
0.0739975
0.0733025
0.0724213
0.0712898
0.0698407
0.0680194
0.0657989
0.0632231
0.0604267
0.0576701
0.0553581
0.0540166
0.0542107
0.0564123
0.060854
0.0674349
0.0757244
0.0850691
0.0947558
0.104165
0.112866
0.120632
0.127406
0.133245
0.138288
0.142736
0.146761
0.15033
0.15308
0.15449
0.154289
0.152621
0.149651
0.145068
0.138358
0.130026
0.1226
0.119978
0.125079
0.1376
0.153867
0.168963
0.179396
0.184394
0.185336
0.184275
0.182739
0.181369
0.180182
0.179007
0.177745
0.176421
0.175114
0.173835
0.172564
0.171233
0.169777
0.168152
0.166334
0.164303
0.162035
0.159505
0.156686
0.153552
0.150081
0.146241
0.141989
0.137262
0.131987
0.1261
0.119573
0.112441
0.104807
0.0968286
0.0886866
0.0805547
0.0725825
0.0648934
0.0575873
0.0507399
0.0443971
0.0385741
0.0332591
0.0284335
0.0240706
0.0201738
0.0167044
0.0137329
0.0110588
0.00905252
0.00699449
0.00645132
0.0713298
0.0702735
0.069299
0.0683898
0.0675299
0.0667012
0.0658809
0.0650412
0.0641415
0.0631386
0.0619914
0.0606648
0.0591407
0.0574326
0.055605
0.0538052
0.0522711
0.0513355
0.0513999
0.0528705
0.0560637
0.0611084
0.067884
0.0760255
0.0850009
0.0942293
0.103197
0.111535
0.119038
0.125647
0.131398
0.136384
0.140743
0.144653
0.148261
0.151516
0.154045
0.155313
0.155019
0.153288
0.150299
0.145762
0.139127
0.130766
0.123063
0.119904
0.124393
0.136502
0.152729
0.168108
0.178943
0.184255
0.185329
0.184234
0.182575
0.181056
0.179723
0.178403
0.176988
0.175507
0.174045
0.172644
0.171294
0.169905
0.16839
0.166693
0.164779
0.162627
0.160214
0.157513
0.154497
0.151141
0.147423
0.143326
0.138832
0.133921
0.128572
0.122766
0.116495
0.109775
0.102647
0.0951815
0.087477
0.0796572
0.0718593
0.0642331
0.0569296
0.0500802
0.0437717
0.0380337
0.0328416
0.0281453
0.0238872
0.0200482
0.0165972
0.0136096
0.0109457
0.00893228
0.00694104
0.00655162
0.0619688
0.060694
0.0595137
0.0584142
0.0573822
0.0564043
0.0554635
0.0545361
0.053604
0.0526536
0.0516789
0.0506904
0.049727
0.0488686
0.0482512
0.0480755
0.0485951
0.0500919
0.0528283
0.056985
0.0626003
0.0695357
0.0774843
0.0860255
0.0947064
0.103123
0.110978
0.118098
0.124426
0.129987
0.134853
0.139118
0.142903
0.14636
0.149611
0.152592
0.154923
0.156059
0.155677
0.153887
0.150884
0.146405
0.139873
0.131537
0.123626
0.119991
0.123895
0.135577
0.151718
0.167331
0.178536
0.184151
0.185356
0.184233
0.182454
0.18079
0.179317
0.177861
0.176305
0.174669
0.173038
0.171469
0.169955
0.168417
0.166773
0.164955
0.162902
0.160582
0.157971
0.15504
0.151757
0.148095
0.144031
0.139547
0.134634
0.12929
0.12352
0.11734
0.110775
0.103861
0.0966458
0.0891936
0.0815936
0.0739652
0.066436
0.0591404
0.0522098
0.0457549
0.0398465
0.0345078
0.0297161
0.0254265
0.0215826
0.0181592
0.0151172
0.0125091
0.0101979
0.00844156
0.00668539
0.00634102
0.0518353
0.0505689
0.0494275
0.0484045
0.0474927
0.0466842
0.0459729
0.0453594
0.0448486
0.0444546
0.0442068
0.044157
0.0443867
0.0450101
0.0461768
0.04806
0.0508336
0.0546408
0.0595565
0.0655545
0.0724915
0.0801176
0.0881131
0.0961414
0.103902
0.111167
0.117801
0.12375
0.12903
0.133696
0.137823
0.141491
0.144799
0.147872
0.150816
0.153552
0.155702
0.156715
0.156253
0.15441
0.1514
0.146992
0.14059
0.132328
0.124278
0.120232
0.123586
0.134831
0.150844
0.166642
0.17818
0.184082
0.185417
0.184269
0.182374
0.180568
0.178958
0.177374
0.175688
0.173914
0.172135
0.170412
0.168731
0.167022
0.165194
0.163174
0.160905
0.158353
0.155484
0.152263
0.148655
0.144628
0.140161
0.135242
0.129869
0.124054
0.11782
0.111206
0.104265
0.0970626
0.0896782
0.0822006
0.0747291
0.067371
0.0602305
0.0534043
0.0469754
0.0410069
0.0355374
0.0305835
0.0261398
0.0221907
0.0187061
0.0156702
0.0130346
0.0108206
0.00887246
0.00737871
0.00586313
0.00540848
0.0421252
0.0411734
0.0404024
0.039813
0.0394073
0.039191
0.039173
0.0393662
0.0397921
0.0404835
0.0414881
0.0428699
0.0447095
0.0470998
0.0501395
0.0539151
0.0584832
0.0638505
0.0699577
0.076675
0.0838109
0.0911355
0.0984122
0.105429
0.112023
0.11809
0.123586
0.128514
0.132913
0.136843
0.140365
0.143542
0.14645
0.149197
0.15187
0.154387
0.156371
0.157271
0.156736
0.154852