/*--------------------------------*- C++ -*----------------------------------*\
  =========                 |
  \\      /  F ield         | OpenFOAM: The Open Source CFD Toolbox
   \\    /   O peration     | Website:  https://openfoam.org
    \\  /    A nd           | Version:  10
     \\/     M anipulation  |
\*---------------------------------------------------------------------------*/
FoamFile
{
    format      ascii;
    class       volScalarField;
    location    "0.035";
    object      nut;
}
// * * * * * * * * * * * * * * * * * * * * * * * * * * * * * * * * * * * * * //

dimensions      [0 2 -1 0 0 0 0];

internalField   nonuniform List<scalar> 
6820
(
0
0
0
0
0
0
0
0
0
0
0
0
0
0
0
0
0
0
0
0
0
0
0
0
0
0
0
0
0
0
0
0
0
0
0
0
0
0
0
0
0
0
0
0
0
0
0
0
0
0
0
0
0
0
0
0
0
0
0
0
0
0
0
0
0
0
0
0
0
0
0
0
0
0
0
0
0
0
0
0
0
0
0
0
0
0
0
0
0
0
0
0
0
0
0
0
0
0
0
0
0
0
0
0
0
0
0
0
0
0
0
0
0
0
0
0
0
0
0
0
0
0
0
0
0
0
0
0
0
0
4.36269e-09
0
1.58112e-05
0
0
0
0
0
0
0
0
0
0
0
0
0
0
0
0
0
0
0
0
0
0
0
0
2.46987e-08
2.49269e-07
4.89065e-07
7.59539e-07
1.07799e-06
1.48138e-06
1.96344e-06
2.35599e-06
6.22852e-06
4.53377e-05
3.48784e-05
1.88426e-05
7.60645e-06
1.50384e-06
0
0
0
0
0
0
0
0
0
0
0
0
0
0
0
0
0
0
0
0
3.055e-08
7.57334e-08
1.35948e-07
2.12596e-07
3.08945e-07
4.01784e-07
3.775e-07
0
1.21015e-05
2.30534e-05
2.89907e-05
2.74514e-05
2.47098e-05
2.24114e-05
2.01974e-05
1.80926e-05
1.62238e-05
1.4598e-05
1.31972e-05
1.20118e-05
1.1028e-05
1.02275e-05
9.59129e-06
9.09391e-06
8.69048e-06
8.29474e-06
7.75696e-06
6.87675e-06
5.50801e-06
3.72619e-06
1.83927e-06
2.04265e-07
0
0
3.03661e-08
1.96681e-07
2.03902e-07
1.27898e-07
0
0
0
6.53156e-06
1.06276e-05
1.93943e-05
2.20534e-05
2.13514e-05
2.01298e-05
1.86512e-05
1.70908e-05
1.56291e-05
1.43007e-05
1.31105e-05
1.20793e-05
1.12307e-05
1.05912e-05
1.01994e-05
1.01176e-05
1.04515e-05
1.13923e-05
1.33016e-05
1.68296e-05
2.23394e-05
2.31786e-05
1.0391e-05
2.91056e-06
9.09628e-07
3.65343e-07
1.49868e-07
1.75287e-10
0
0
0
0
0
5.03217e-06
4.31892e-06
8.88651e-06
1.25259e-05
1.46668e-05
1.61847e-05
1.67397e-05
1.65456e-05
1.60182e-05
1.53618e-05
1.46752e-05
1.40409e-05
1.35269e-05
1.3192e-05
1.31e-05
1.333e-05
1.39848e-05
1.51866e-05
1.69973e-05
1.9013e-05
1.91512e-05
1.39903e-05
6.49555e-06
2.16966e-06
5.15096e-07
0
0
0
0
0
0
0
0
3.99287e-06
1.85057e-06
3.18398e-06
4.63405e-06
5.86972e-06
7.76975e-06
9.41989e-06
1.03916e-05
1.08742e-05
1.10557e-05
1.10607e-05
1.10027e-05
1.09763e-05
1.10568e-05
1.13113e-05
1.18012e-05
1.25675e-05
1.35724e-05
1.45374e-05
1.46448e-05
1.26e-05
8.28354e-06
3.8815e-06
1.06379e-06
0
0
0
0
0
0
0
0
0
3.16568e-06
6.83377e-07
4.89935e-07
2.8847e-07
0
4.62739e-07
1.87308e-06
3.34074e-06
4.655e-06
5.74239e-06
6.58356e-06
7.22632e-06
7.74154e-06
8.19084e-06
8.61758e-06
9.03468e-06
9.39707e-06
9.55367e-06
9.19704e-06
7.9254e-06
5.61632e-06
2.86082e-06
5.78784e-07
0
0
0
0
0
0
0
0
0
0
2.47783e-06
0
0
0
0
0
0
0
0
0
0
0
1.11277e-07
7.56515e-07
1.32607e-06
1.80368e-06
2.13902e-06
2.23255e-06
1.94799e-06
1.19361e-06
6.15228e-08
0
0
0
0
0
0
0
0
0
0
0
0
1.93442e-06
0
0
0
0
0
0
0
0
0
0
0
0
0
0
0
0
0
0
0
0
0
0
0
0
0
0
0
0
0
0
0
0
1.50949e-06
0
0
0
0
0
0
0
0
0
0
0
0
0
0
0
0
0
0
0
0
0
0
0
0
0
0
0
0
0
0
0
0
1.17921e-06
0
0
0
0
0
0
0
0
0
0
0
0
0
0
0
0
0
0
0
0
0
0
0
0
0
0
0
0
0
0
0
0
9.18361e-07
0
0
0
0
0
0
0
0
0
0
0
0
0
0
0
0
0
0
0
0
0
0
0
0
0
0
0
0
0
0
0
0
7.08674e-07
0
0
0
0
0
0
0
0
0
0
0
0
0
0
0
0
0
0
0
0
0
0
0
0
0
0
0
0
0
0
0
0
5.34471e-07
0
0
0
0
0
0
0
0
0
0
0
0
0
0
0
0
0
0
0
0
0
0
0
0
0
0
0
0
5.14681e-08
0
0
0
3.83435e-07
0
0
0
0
0
0
0
0
0
0
0
0
0
0
0
0
0
0
0
0
0
0
0
0
0
0
0
2.88405e-07
5.67658e-07
4.26083e-07
0
0
2.44843e-07
0
0
0
0
0
0
0
0
0
0
0
0
0
0
0
0
0
0
0
0
0
0
0
0
0
0
2.96015e-07
6.00376e-07
8.54864e-07
7.38716e-07
0
0
1.08696e-07
0
0
0
0
0
0
0
0
0
0
0
0
0
0
0
0
0
0
0
0
0
0
0
0
1.14595e-07
4.06583e-07
6.92983e-07
9.78426e-07
1.22746e-06
1.13506e-06
9.57261e-08
0
0
0
0
0
0
0
0
0
0
0
0
0
0
0
0
0
0
0
0
0
0
0
0
0
1.85288e-07
4.69388e-07
7.58342e-07
1.05317e-06
1.3549e-06
1.62538e-06
1.55247e-06
5.04562e-07
0
0
0
0
0
0
0
0
0
0
0
0
0
0
0
0
0
0
0
0
0
0
0
0
2.49271e-07
5.4455e-07
8.52652e-07
1.17224e-06
1.49944e-06
1.8308e-06
2.12425e-06
2.05507e-06
9.67804e-07
0
0
0
0
0
0
0
0
0
0
0
0
0
0
0
0
0
0
0
0
0
0
1.3395e-07
4.29954e-07
7.43277e-07
1.07147e-06
1.40994e-06
1.75319e-06
2.09458e-06
2.42871e-06
2.71228e-06
2.61792e-06
1.48735e-06
0
0
0
0
0
0
0
0
0
0
0
0
0
0
0
0
0
0
0
0
0
9.95304e-08
4.14701e-07
7.48819e-07
1.09628e-06
1.45058e-06
1.80465e-06
2.15172e-06
2.48479e-06
2.79864e-06
3.05202e-06
2.92858e-06
1.81013e-06
0
0
0
0
0
0
0
0
0
0
0
0
0
0
0
0
0
0
0
1.64243e-07
4.90471e-07
8.32232e-07
1.18335e-06
1.5365e-06
1.88477e-06
2.22177e-06
2.54158e-06
2.83891e-06
3.10853e-06
3.34669e-06
3.5172e-06
3.33684e-06
2.24151e-06
0
0
0
0
0
0
0
0
0
0
0
0
0
0
0
0
0
0
0
2.59162e-07
6.01792e-07
9.48065e-07
1.29081e-06
1.62314e-06
1.9391e-06
2.2336e-06
2.50207e-06
2.74062e-06
2.94554e-06
3.11463e-06
3.21849e-06
3.01498e-06
2.0515e-06
0
0
0
0
0
0
0
0
0
0
0
0
0
0
0
7.31174e-08
4.48439e-07
8.16322e-07
1.17691e-06
1.52329e-06
1.84836e-06
2.14815e-06
2.41995e-06
2.66169e-06
2.87183e-06
3.04902e-06
3.19185e-06
3.2989e-06
3.36842e-06
3.39918e-06
3.37001e-06
3.10465e-06
2.23693e-06
0
0
0
0
0
0
0
0
0
0
0
0
0
0
0
0
2.22645e-07
5.18668e-07
7.92553e-07
1.04427e-06
1.272e-06
1.47519e-06
1.65331e-06
1.80542e-06
1.93022e-06
2.0262e-06
2.09175e-06
2.12542e-06
2.1258e-06
2.0925e-06
2.01346e-06
1.77259e-06
1.17637e-06
0
0
0
0
0
0
0
0
0
0
3.66421e-07
9.26029e-07
1.49294e-06
1.95716e-06
2.28198e-06
2.51393e-06
2.67217e-06
2.76803e-06
2.82007e-06
2.84236e-06
2.84309e-06
2.82696e-06
2.79561e-06
2.74851e-06
2.6839e-06
2.59943e-06
2.49252e-06
2.36069e-06
2.20155e-06
2.01318e-06
1.79262e-06
1.51433e-06
1.0722e-06
0
0
0
0
0
0
0
0
4.36248e-07
1.10858e-06
1.63141e-06
1.97336e-06
2.19182e-06
2.19978e-06
1.9944e-06
1.66724e-06
1.29656e-06
9.32777e-07
6.09146e-07
3.40979e-07
1.28623e-07
0
0
0
0
0
0
0
0
0
0
0
0
0
0
0
0
1.20209e-06
2.76239e-06
4.303e-06
5.97939e-06
7.66789e-06
8.91362e-06
9.49082e-06
9.43909e-06
8.88038e-06
7.91084e-06
6.67712e-06
5.34435e-06
4.04568e-06
2.87711e-06
1.89763e-06
1.12525e-06
5.43651e-07
1.16522e-07
0
0
0
0
0
0
0
0
0
0
0
0
0
0
2.94778e-06
6.05046e-06
8.75753e-06
1.10658e-05
1.30038e-05
1.44576e-05
1.50769e-05
1.47512e-05
1.35135e-05
1.14758e-05
8.84433e-06
5.86405e-06
2.75921e-06
0
0
0
0
0
0
0
0
0
0
0
0
0
0
0
0
0
0
9.52855e-06
1.19701e-05
1.43757e-05
1.71739e-05
2.00089e-05
2.25563e-05
2.45674e-05
2.58329e-05
2.61424e-05
2.53097e-05
2.31862e-05
1.97534e-05
1.5281e-05
1.03064e-05
5.30044e-06
5.30839e-07
0
0
0
0
0
0
0
0
0
0
0
0
0
0
0
0
0
2.33767e-05
2.71824e-05
2.64409e-05
2.73479e-05
2.94763e-05
3.19815e-05
3.44363e-05
3.65777e-05
3.81041e-05
3.85014e-05
3.69754e-05
3.26113e-05
2.5014e-05
1.5086e-05
4.7467e-06
0
0
0
0
0
0
0
0
0
0
0
0
0
0
0
0
0
3.49084e-05
6.57451e-05
5.1126e-05
3.71402e-05
2.67771e-05
1.87646e-05
1.27128e-05
8.32532e-06
5.35948e-06
3.52605e-06
2.4981e-06
1.99476e-06
1.80924e-06
1.80256e-06
1.88907e-06
2.02076e-06
2.17363e-06
2.33716e-06
2.50746e-06
2.68352e-06
2.86493e-06
3.05072e-06
3.23883e-06
3.42599e-06
3.60769e-06
3.77843e-06
3.93203e-06
4.0621e-06
4.16284e-06
4.22963e-06
4.25947e-06
4.22207e-06
4.005e-06
0
0
0
0
0
0
0
0
0
0
0
0
0
0
0
0
0
0
0
0
0
0
0
0
0
0
0
0
0
0
0
0
7.56647e-08
4.03497e-08
0
0
0
0
0
0
0
0
0
0
0
0
0
0
0
0
0
0
0
0
0
0
0
0
0
0
0
0
0
0
0
0
2.15392e-08
0
0
0
0
0
0
0
0
0
0
0
0
0
0
0
0
0
0
0
0
0
0
0
0
0
0
0
0
0
0
0
0
9.83186e-09
0
0
0
0
0
0
0
0
0
0
0
0
0
0
0
0
0
0
0
0
0
0
0
0
0
0
0
0
0
0
0
0
7.31489e-07
0
0
0
0
0
0
0
0
0
0
0
0
0
0
0
1.28318e-05
2.3642e-05
2.51507e-05
2.23246e-05
1.76967e-05
1.42169e-05
1.01089e-05
1.25459e-05
1.61242e-05
1.84412e-05
1.90469e-05
1.8275e-05
1.67072e-05
1.49275e-05
1.33605e-05
1.21092e-05
1.10296e-05
9.92234e-06
8.65658e-06
7.19516e-06
5.58195e-06
3.9173e-06
2.31347e-06
8.38741e-07
0
0
0
0
0
0
0
0
0
0
0
0
0
0
0
0
0
0
0
0
0
0
0
0
0
0
0
0
0
0
0
0
0
0
0
0
0
0
0
0
0
0
0
0
0
0
0
0
0
0
0
0
0
4.52762e-08
4.50233e-08
2.94958e-08
1.46365e-08
7.3712e-09
4.8947e-09
1.64077e-08
8.80408e-07
2.19485e-07
0
0
0
0
0
0
0
0
0
0
0
0
0
1.97456e-06
1.21581e-05
1.76741e-05
1.8743e-05
1.67722e-05
1.35088e-05
8.70038e-06
1.10653e-05
1.56143e-05
1.91366e-05
2.08249e-05
2.08116e-05
1.96003e-05
1.78222e-05
1.608e-05
1.46862e-05
1.36081e-05
1.26301e-05
1.15502e-05
1.02633e-05
8.75529e-06
7.08099e-06
5.34599e-06
3.66938e-06
2.12827e-06
7.19147e-07
0
0
0
0
0
0
0
0
0
0
0
0
0
0
0
0
0
0
0
0
0
0
0
0
0
0
0
0
0
0
0
0
0
0
0
0
0
0
0
0
0
0
0
0
0
0
0
0
0
0
0
0
0
0
0
0
0
0
1.27856e-09
3.1023e-07
2.82374e-07
1.57305e-07
0
0
0
0
0
0
0
0
0
0
0
0
3.71221e-06
9.09477e-06
1.24756e-05
1.34583e-05
1.13258e-05
6.75434e-06
9.08049e-06
1.39358e-05
1.81698e-05
2.0772e-05
2.16073e-05
2.10127e-05
1.95426e-05
1.7845e-05
1.63936e-05
1.53271e-05
1.44986e-05
1.36699e-05
1.26689e-05
1.14272e-05
9.95213e-06
8.30407e-06
6.5874e-06
4.92226e-06
3.39058e-06
1.99334e-06
6.5037e-07
0
0
0
0
0
0
0
0
0
0
0
0
0
0
0
0
0
0
0
0
0
0
0
0
0
0
0
0
0
0
0
0
0
0
0
0
0
0
0
0
0
0
0
0
0
0
0
0
0
0
0
0
0
0
0
0
0
0
0
1.0899e-07
1.25993e-07
0
0
0
0
0
0
0
0
0
0
0
0
2.34522e-06
5.72549e-06
8.34377e-06
7.022e-06
4.60176e-06
7.48777e-06
1.21549e-05
1.65511e-05
1.9737e-05
2.13241e-05
2.14166e-05
2.04323e-05
1.89674e-05
1.75623e-05
1.65106e-05
1.57969e-05
1.52088e-05
1.45211e-05
1.36041e-05
1.24243e-05
1.10067e-05
9.41422e-06
7.74703e-06
6.12338e-06
4.6288e-06
3.26824e-06
1.96142e-06
5.89204e-07
0
0
0
0
0
0
0
0
0
0
0
0
0
0
0
0
0
0
0
0
0
0
0
0
0
0
0
0
0
0
0
0
0
0
0
0
0
0
0
0
0
0
0
0
0
0
0
0
0
0
0
0
0
0
0
0
0
3.44768e-06
4.41379e-07
0
0
0
0
0
0
0
0
0
0
0
0
0
0
1.97305e-06
2.0697e-06
3.01237e-06
6.39328e-06
1.05879e-05
1.48245e-05
1.82896e-05
2.0424e-05
2.1136e-05
2.06972e-05
1.95955e-05
1.83509e-05
1.7348e-05
1.67131e-05
1.63196e-05
1.59309e-05
1.53553e-05
1.45068e-05
1.33832e-05
1.20236e-05
1.04913e-05
8.88023e-06
7.30511e-06
5.85424e-06
4.53731e-06
3.27343e-06
1.93809e-06
4.5497e-07
0
0
0
0
0
0
0
0
0
0
0
0
0
0
0
0
0
0
0
0
0
0
0
0
0
0
0
0
0
0
0
0
0
0
0
0
0
0
0
0
0
0
0
0
0
0
0
0
0
0
0
0
0
0
0
0
3.66141e-07
3.86413e-08
0
0
0
0
0
0
0
0
0
0
0
0
0
0
8.29557e-07
2.72837e-06
5.56485e-06
9.16742e-06
1.30983e-05
1.65945e-05
1.9046e-05
2.02491e-05
2.03449e-05
1.96878e-05
1.87173e-05
1.78366e-05
1.72807e-05
1.70378e-05
1.69115e-05
1.6674e-05
1.61785e-05
1.53816e-05
1.43073e-05
1.30044e-05
1.15344e-05
9.98355e-06
8.46166e-06
7.05876e-06
5.78955e-06
4.57402e-06
3.28082e-06
1.82723e-06
2.56208e-07
0
0
0
0
0
0
0
0
0
0
0
0
0
0
0
0
0
0
0
0
0
0
0
0
0
0
0
0
0
0
0
0
0
0
0
0
0
0
0
0
0
0
0
0
0
0
0
0
0
0
0
0
0
0
0
0
0
0
0
0
0
0
0
0
0
0
0
0
0
0
2.85512e-07
2.00625e-06
4.48347e-06
7.70517e-06
1.12995e-05
1.46473e-05
1.72275e-05
1.87962e-05
1.93829e-05
1.92074e-05
1.8601e-05
1.79327e-05
1.74947e-05
1.73829e-05
1.74773e-05
1.75535e-05
1.74178e-05
1.69735e-05
1.62148e-05
1.51855e-05
1.39402e-05
1.25358e-05
1.105e-05
9.58645e-06
8.23618e-06
7.01865e-06
5.85588e-06
4.61117e-06
3.19233e-06
1.6445e-06
1.05384e-07
0
0
0
0
0
0
0
0
0
0
0
0
0
0
0
0
0
0
0
0
0
0
0
0
0
0
0
0
0
0
0
0
0
0
0
0
0
0
0
0
0
0
0
0
0
0
0
0
0
0
0
0
0
0
0
0
0
0
0
0
0
0
0
0
0
0
0
0
0
4.60795e-07
2.94867e-06
5.96907e-06
9.24831e-06
1.23794e-05
1.4985e-05
1.68283e-05
1.78525e-05
1.81583e-05
1.79707e-05
1.75963e-05
1.7338e-05
1.73689e-05
1.76551e-05
1.80089e-05
1.82177e-05
1.81383e-05
1.77221e-05
1.69931e-05
1.60082e-05
1.48231e-05
1.34886e-05
1.20729e-05
1.0673e-05
9.38005e-06
8.21825e-06
7.11211e-06
5.9211e-06
4.54401e-06
3.0235e-06
1.51307e-06
1.38874e-07
0
0
0
0
0
0
0
0
0
0
0
0
0
0
0
0
0
0
0
0
0
0
0
0
0
0
0
0
0
0
0
0
0
0
0
0
0
0
0
0
0
0
0
0
0
0
0
0
0
0
0
0
0
0
0
0
0
0
0
0
0
0
0
0
0
0
0
0
8.00591e-07
3.71707e-06
6.77598e-06
9.74081e-06
1.23559e-05
1.44189e-05
1.58243e-05
1.6584e-05
1.68324e-05
1.68087e-05
1.67948e-05
1.70033e-05
1.74733e-05
1.80715e-05
1.85936e-05
1.88692e-05
1.88097e-05
1.84067e-05
1.77047e-05
1.67666e-05
1.56459e-05
1.43861e-05
1.30457e-05
1.17147e-05
1.04839e-05
9.38184e-06
8.33613e-06
7.20321e-06
5.87406e-06
4.3876e-06
2.90891e-06
1.58141e-06
4.62747e-07
0
0
0
0
0
0
0
0
0
0
0
0
0
0
0
0
0
0
0
0
0
0
0
0
0
0
0
0
0
0
0
0
0
0
0
0
0
0
0
0
0
0
0
0
0
0
0
0
0
0
0
0
0
0
0
0
0
0
0
0
0
0
0
0
0
0
0
1.09278e-06
3.99465e-06
6.84752e-06
9.47297e-06
1.1702e-05
1.34133e-05
1.4568e-05
1.52333e-05
1.5585e-05
1.58664e-05
1.62955e-05
1.69593e-05
1.77798e-05
1.85797e-05
1.91821e-05
1.94719e-05
1.94088e-05
1.90129e-05
1.83399e-05
1.74534e-05
1.64024e-05
1.52223e-05
1.39624e-05
1.27054e-05
1.15412e-05
1.05026e-05
9.52093e-06
8.45036e-06
7.17452e-06
5.72846e-06
4.28731e-06
3.01028e-06
1.95715e-06
1.13101e-06
5.05689e-07
1.41247e-08
0
0
0
0
0
0
0
0
0
0
0
0
0
0
0
0
0
0
0
0
0
0
0
0
0
0
0
0
0
0
0
0
0
0
0
0
0
0
0
0
0
0
0
0
0
0
0
0
0
0
0
0
0
0
0
0
0
0
0
0
0
0
0
0
1.30602e-06
4.00862e-06
6.57974e-06
8.87701e-06
1.07839e-05
1.22394e-05
1.32657e-05
1.39824e-05
1.4584e-05
1.5269e-05
1.61442e-05
1.71749e-05
1.82196e-05
1.91117e-05
1.97243e-05
1.99942e-05
1.99168e-05
1.95293e-05
1.88913e-05
1.80628e-05
1.70869e-05
1.59915e-05
1.48169e-05
1.36386e-05
1.25452e-05
1.15737e-05
1.06593e-05
9.65514e-06
8.438e-06
7.03813e-06
5.63986e-06
4.41891e-06
3.43769e-06
2.68783e-06
2.13198e-06
1.6988e-06
1.28792e-06
8.0542e-07
2.00579e-07
0
0
0
0
0
0
0
0
0
0
0
0
0
0
0
0
0
0
0
0
0
0
0
0
0
0
0
0
0
0
0
0
0
0
0
0
0
0
0
0
0
0
0
0
0
0
0
0
0
0
0
0
0
0
0
0
0
0
0
0
0
1.46827e-06
3.8791e-06
6.12992e-06
8.11319e-06
9.76027e-06
1.10654e-05
1.21029e-05
1.30173e-05
1.39717e-05
1.50693e-05
1.63016e-05
1.75612e-05
1.87027e-05
1.96001e-05
2.01777e-05
2.04119e-05
2.03207e-05
1.99487e-05
1.93537e-05
1.85902e-05
1.76948e-05
1.66885e-05
1.56033e-05
1.45081e-05
1.34895e-05
1.25882e-05
1.17439e-05
1.08098e-05
9.65674e-06
8.30928e-06
6.95893e-06
5.79865e-06
4.89572e-06
4.23016e-06
3.75207e-06
3.38403e-06
3.02414e-06
2.57932e-06
2.00164e-06
1.29272e-06
4.85628e-07
0
0
0
0
0
0
0
0
0
0
0
0
0
0
0
0
0
0
0
0
0
0
0
0
0
0
0
0
0
0
0
0
0
0
0
0
0
0
0
0
0
0
0
0
0
0
0
0
0
0
0
0
0
0
0
0
0
0
0
1.59186e-06
3.68225e-06
5.61885e-06
7.33466e-06
8.81072e-06
1.00899e-05
1.12723e-05
1.24786e-05
1.37912e-05
1.52102e-05
1.66547e-05
1.80036e-05
1.91419e-05
1.99899e-05
2.05119e-05
2.07101e-05
2.06133e-05
2.02669e-05
1.97237e-05
1.90318e-05
1.82217e-05
1.73082e-05
1.63162e-05
1.53079e-05
1.43674e-05
1.3539e-05
1.27674e-05
1.19066e-05
1.08228e-05
9.5344e-06
8.23772e-06
7.14238e-06
6.32279e-06
5.74845e-06
5.35583e-06
5.06029e-06
4.75832e-06
4.35762e-06
3.81126e-06
3.12247e-06
2.32758e-06
1.47561e-06
6.09739e-07
0
0
0
0
0
0
0
0
0
0
0
0
0
0
0
0
0
0
0
0
0
0
0
0
0
0
0
0
0
0
0
0
0
0
0
0
0
0
0
0
0
0
0
0
0
0
0
0
0
0
0
0
0
0
0
0
0
1.66581e-06
3.45003e-06
5.12345e-06
6.66286e-06
8.09091e-06
9.47139e-06
1.08833e-05
1.23799e-05
1.39571e-05
1.55511e-05
1.70639e-05
1.83956e-05
1.94701e-05
2.02449e-05
2.07104e-05
2.08823e-05
2.07923e-05
2.04825e-05
1.99993e-05
1.93847e-05
1.86638e-05
1.78461e-05
1.69502e-05
1.60317e-05
1.51725e-05
1.44194e-05
1.37223e-05
1.29377e-05
1.19281e-05
1.07056e-05
9.46915e-06
8.44352e-06
7.71196e-06
7.23479e-06
6.9343e-06
6.71783e-06
6.4798e-06
6.12879e-06
5.61949e-06
4.95694e-06
4.17867e-06
3.33436e-06
2.47025e-06
1.61819e-06
7.88146e-07
0
0
0
0
0
0
0
0
0
0
0
0
0
0
0
0
0
0
0
0
0
0
0
0
0
0
0
0
0
0
0
0
0
0
0
0
0
0
0
0
0
0
0
0
0
0
0
0
0
0
0
0
0
0
1.64054e-07
1.72337e-06
3.26548e-06
4.77118e-06
6.25113e-06
7.74198e-06
9.28737e-06
1.09118e-05
1.26011e-05
1.43006e-05
1.59304e-05
1.74067e-05
1.86603e-05
1.96468e-05
2.03481e-05
2.07686e-05
2.09288e-05
2.08588e-05
2.05956e-05
2.01794e-05
1.96465e-05
1.90175e-05
1.82976e-05
1.74999e-05
1.6674e-05
1.58984e-05
1.52226e-05
1.46017e-05
1.38955e-05
1.29646e-05
1.1815e-05
1.06458e-05
9.69522e-06
9.05632e-06
8.6818e-06
8.47956e-06
8.34807e-06
8.17926e-06
7.88251e-06
7.41479e-06
6.78365e-06
6.02768e-06
5.19659e-06
4.33771e-06
3.48528e-06
2.65283e-06
1.83693e-06
1.02832e-06
2.25592e-07
0
0
0
0
0
0
0
0
0
0
0
0
0
0
0
0
0
0
0
0
0
0
0
0
0
0
0
0
0
0
0
0
0
0
0
0
0
0
0
0
0
0
0
0
0
0
0
0
0
0
0
4.4147e-07
1.79882e-06
3.20055e-06
4.65132e-06
6.16778e-06
7.76681e-06
9.45012e-06
1.11938e-05
1.29481e-05
1.46462e-05
1.62181e-05
1.7603e-05
1.87572e-05
1.96571e-05
2.02982e-05
2.06904e-05
2.08541e-05
2.08158e-05
2.06074e-05
2.02634e-05
1.98151e-05
1.92796e-05
1.86587e-05
1.79606e-05
1.7229e-05
1.65392e-05
1.59422e-05
1.53986e-05
1.47727e-05
1.39245e-05
1.28546e-05
1.17601e-05
1.08903e-05
1.03486e-05
1.00817e-05
9.98334e-06
9.94231e-06
9.84773e-06
9.60976e-06
9.18775e-06
8.59199e-06
7.86261e-06
7.04955e-06
6.20043e-06
5.35099e-06
4.51761e-06
3.69914e-06
2.88736e-06
2.08215e-06
1.29928e-06
5.64365e-07
0
0
0
0
0
0
0
0
0
0
0
0
0
0
0
0
0
1.40836e-07
3.16259e-07
4.61676e-07
5.7517e-07
6.56026e-07
7.04954e-07
7.24668e-07
7.19832e-07
6.97159e-07
6.63065e-07
6.25009e-07
5.8416e-07
5.48702e-07
5.0441e-07
4.81838e-07
4.2507e-07
5.16219e-07
5.7739e-07
0
0
0
0
0
0
0
0
0
0
0
0
0
0
7.10498e-07
1.96573e-06
3.32561e-06
4.79393e-06
6.36995e-06
8.04094e-06
9.77719e-06
1.15325e-05
1.325e-05
1.48704e-05
1.63402e-05
1.76179e-05
1.86768e-05
1.95051e-05
2.01038e-05
2.04843e-05
2.06645e-05
2.06673e-05
2.05193e-05
2.02507e-05
1.98886e-05
1.94471e-05
1.89254e-05
1.83276e-05
1.76917e-05
1.70892e-05
1.65722e-05
1.61067e-05
1.55624e-05
1.48004e-05
1.38165e-05
1.28043e-05
1.20212e-05
1.15812e-05
1.14266e-05
1.14369e-05
1.14913e-05
1.14756e-05
1.13009e-05
1.09289e-05
1.03728e-05
9.67416e-06
8.88305e-06
8.04709e-06
7.20342e-06
6.37107e-06
5.55105e-06
4.73644e-06
3.92754e-06
3.14022e-06
2.4017e-06
1.74123e-06
1.17947e-06
7.25928e-07
3.82434e-07
1.45506e-07
8.40716e-09
0
0
9.23452e-08
2.41522e-07
4.27458e-07
6.36505e-07
8.56256e-07
1.07577e-06
1.2857e-06
1.47824e-06
1.6472e-06
1.78784e-06
1.89701e-06
1.97289e-06
2.01435e-06
2.02095e-06
1.99313e-06
1.93343e-06
1.84633e-06
1.74007e-06
1.62145e-06
1.50286e-06
1.38177e-06
1.27937e-06
1.15878e-06
1.09666e-06
9.55396e-07
1.1302e-06
1.24582e-06
0
0
0
0
0
0
0
0
0
0
0
0
0
0
1.00591e-06
2.23955e-06
3.60849e-06
5.1029e-06
6.70315e-06
8.37814e-06
1.00861e-05
1.1778e-05
1.34031e-05
1.49144e-05
1.6273e-05
1.74504e-05
1.84296e-05
1.92045e-05
1.9778e-05
2.01604e-05
2.0367e-05
2.04169e-05
2.0333e-05
2.01411e-05
1.98653e-05
1.95173e-05
1.90942e-05
1.85967e-05
1.80575e-05
1.75436e-05
1.71076e-05
1.67205e-05
1.62584e-05
1.55853e-05
1.4693e-05
1.37703e-05
1.30801e-05
1.27462e-05
1.27077e-05
1.28312e-05
1.29854e-05
1.30529e-05
1.29455e-05
1.26279e-05
1.21159e-05
1.14527e-05
1.06878e-05
9.86849e-06
9.03281e-06
8.2023e-06
7.38069e-06
6.56291e-06
5.74983e-06
4.95767e-06
4.21501e-06
3.55234e-06
2.99174e-06
2.54357e-06
2.20909e-06
1.98319e-06
1.85722e-06
1.82004e-06
1.85832e-06
1.95715e-06
2.10083e-06
2.2739e-06
2.46189e-06
2.65189e-06
2.83274e-06
2.99526e-06
3.13223e-06
3.23843e-06
3.3105e-06
3.34676e-06
3.3469e-06
3.31121e-06
3.24047e-06
3.13586e-06
3.00042e-06
2.8384e-06
2.65883e-06
2.46752e-06
2.28016e-06
2.08914e-06
1.9275e-06
1.73499e-06
1.6355e-06
1.40824e-06
1.66221e-06
1.78183e-06
0
0
0
0
0
0
0
0
0
0
0
0
0
2.77612e-07
1.36591e-06
2.60105e-06
3.97116e-06
5.45558e-06
7.02532e-06
8.64398e-06
1.02699e-05
1.18598e-05
1.33721e-05
1.47705e-05
1.6026e-05
1.71182e-05
1.80351e-05
1.87728e-05
1.93343e-05
1.97283e-05
1.99677e-05
2.00683e-05
2.00497e-05
1.99344e-05
1.97438e-05
1.94878e-05
1.91623e-05
1.87646e-05
1.83226e-05
1.78983e-05
1.75438e-05
1.7235e-05
1.68553e-05
1.62727e-05
1.54766e-05
1.46501e-05
1.40586e-05
1.38349e-05
1.39161e-05
1.41564e-05
1.44142e-05
1.45687e-05
1.45328e-05
1.4274e-05
1.38108e-05
1.31879e-05
1.2454e-05
1.16555e-05
1.08308e-05
1.00036e-05
9.18048e-06
8.3588e-06
7.5409e-06
6.74401e-06
5.99793e-06
5.33442e-06
4.77671e-06
4.33564e-06
4.01146e-06
3.79743e-06
3.68296e-06
3.65495e-06
3.69832e-06
3.79668e-06
3.93312e-06
4.09121e-06
4.25587e-06
4.41384e-06
4.55402e-06
4.66757e-06
4.74791e-06
4.79076e-06
4.79388e-06
4.75685e-06
4.68065e-06
4.56702e-06
4.41835e-06
4.23719e-06
4.02783e-06
3.7948e-06
3.54766e-06
3.29059e-06
3.04116e-06
2.7861e-06
2.56883e-06
2.30756e-06
2.17119e-06
1.86291e-06
2.19138e-06
2.3197e-06
0
0
0
0
0
0
0
0
0
0
0
0
0
6.66636e-07
1.75096e-06
2.97167e-06
4.31101e-06
5.74447e-06
7.24175e-06
8.76834e-06
1.02876e-05
1.17635e-05
1.31627e-05
1.44566e-05
1.56227e-05
1.66449e-05
1.75138e-05
1.82264e-05
1.8785e-05
1.91967e-05
1.94721e-05
1.96246e-05
1.96707e-05
1.96305e-05
1.95231e-05
1.93573e-05
1.91276e-05
1.88291e-05
1.84843e-05
1.81502e-05
1.78774e-05
1.76464e-05
1.73481e-05
1.68567e-05
1.61603e-05
1.54354e-05
1.49481e-05
1.48382e-05
1.50421e-05
1.54022e-05
1.57668e-05
1.60116e-05
1.6051e-05
1.58552e-05
1.54458e-05
1.48683e-05
1.41705e-05
1.33972e-05
1.25866e-05
1.17642e-05
1.09397e-05
1.01129e-05
9.28832e-06
8.48479e-06
7.73385e-06
7.06874e-06
6.51355e-06
6.07888e-06
5.76376e-06
5.55958e-06
5.45355e-06
5.43053e-06
5.47371e-06
5.5653e-06
5.68736e-06
5.82278e-06
5.95615e-06
6.07423e-06
6.16629e-06
6.22417e-06
6.24226e-06
6.21738e-06
6.14856e-06
6.03669e-06
5.88411e-06
5.69404e-06
5.47036e-06
5.21696e-06
4.93927e-06
4.642e-06
4.33491e-06
4.02021e-06
3.71696e-06
3.40622e-06
3.1418e-06
2.82151e-06
2.65988e-06
2.28535e-06
2.70975e-06
2.86552e-06
0
0
0
0
0
0
0
0
0
0
0
0
1.60072e-07
1.08116e-06
2.13419e-06
3.30634e-06
4.57868e-06
5.92745e-06
7.32498e-06
8.74116e-06
1.01451e-05
1.15071e-05
1.27998e-05
1.39999e-05
1.50887e-05
1.60528e-05
1.68839e-05
1.75792e-05
1.81402e-05
1.85725e-05
1.88848e-05
1.90883e-05
1.91973e-05
1.92299e-05
1.92033e-05
1.91252e-05
1.89895e-05
1.87889e-05
1.85411e-05
1.82972e-05
1.81056e-05
1.79508e-05
1.77324e-05
1.73317e-05
1.67368e-05
1.6118e-05
1.57391e-05
1.5746e-05
1.60748e-05
1.65572e-05
1.70312e-05
1.73693e-05
1.74875e-05
1.73592e-05
1.70087e-05
1.64822e-05
1.58263e-05
1.50833e-05
1.42909e-05
1.34762e-05
1.26517e-05
1.18205e-05
1.09896e-05
1.018e-05
9.42549e-06
8.7611e-06
8.21178e-06
7.78772e-06
7.48632e-06
7.29666e-06
7.20347e-06
7.18936e-06
7.23569e-06
7.32325e-06
7.43307e-06
7.54744e-06
7.6507e-06
7.72974e-06
7.77433e-06
7.77708e-06
7.73341e-06
7.64136e-06
7.50125e-06
7.31534e-06
7.08737e-06
6.82194e-06
6.52437e-06
6.19977e-06
5.85459e-06
5.49367e-06
5.12702e-06
4.75515e-06
4.39858e-06
4.03341e-06
3.72324e-06
3.34753e-06
3.163e-06
2.73052e-06
3.24588e-06
3.45017e-06
0
0
0
0
0
0
0
0
0
0
0
0
5.84402e-07
1.46371e-06
2.45842e-06
3.55554e-06
4.73768e-06
5.98383e-06
7.27012e-06
8.57108e-06
9.86087e-06
1.11146e-05
1.23092e-05
1.34251e-05
1.44459e-05
1.53599e-05
1.61597e-05
1.6842e-05
1.74079e-05
1.78615e-05
1.82097e-05
1.84622e-05
1.86317e-05
1.87342e-05
1.87855e-05
1.87925e-05
1.87484e-05
1.8644e-05
1.84919e-05
1.83373e-05
1.82257e-05
1.8145e-05
1.80038e-05
1.76922e-05
1.71994e-05
1.66892e-05
1.64219e-05
1.65476e-05
1.70026e-05
1.76088e-05
1.81941e-05
1.86279e-05
1.88281e-05
1.87716e-05
1.84853e-05
1.80156e-05
1.74072e-05
1.66995e-05
1.5929e-05
1.51241e-05
1.43002e-05
1.34639e-05
1.26251e-05
1.18078e-05
1.10482e-05
1.03834e-05
9.83924e-06
9.42518e-06
9.13659e-06
8.95983e-06
8.87684e-06
8.86783e-06
8.91234e-06
8.98988e-06
9.08071e-06
9.1668e-06
9.23257e-06
9.26544e-06
9.25599e-06
9.19791e-06
9.08792e-06
8.92545e-06
8.71228e-06
8.45208e-06
8.14995e-06
7.81177e-06
7.44408e-06
7.05297e-06
6.64567e-06
6.22696e-06
5.80711e-06
5.38496e-06
4.98266e-06
4.57138e-06
4.22467e-06
3.80314e-06
3.60739e-06
3.12722e-06
3.75417e-06
4.0046e-06
0
0
0
0
0
0
0
0
0
0
0
2.74156e-07
9.78766e-07
1.79157e-06
2.70521e-06
3.70824e-06
4.78583e-06
5.92015e-06
7.09109e-06
8.27718e-06
9.45659e-06
1.06081e-05
1.17118e-05
1.27506e-05
1.371e-05
1.45793e-05
1.53515e-05
1.60232e-05
1.65944e-05
1.70684e-05
1.74508e-05
1.77498e-05
1.79767e-05
1.81461e-05
1.82723e-05
1.83612e-05
1.84057e-05
1.83946e-05
1.83361e-05
1.82689e-05
1.82349e-05
1.82254e-05
1.81582e-05
1.79329e-05
1.75412e-05
1.71407e-05
1.69866e-05
1.72318e-05
1.78128e-05
1.8543e-05
1.92404e-05
1.97715e-05
2.00565e-05
2.00761e-05
1.98598e-05
1.9454e-05
1.89002e-05
1.82347e-05
1.7492e-05
1.67014e-05
1.58815e-05
1.50426e-05
1.41987e-05
1.33767e-05
1.26161e-05
1.19561e-05
1.14234e-05
1.10266e-05
1.07588e-05
1.06031e-05
1.05381e-05
1.05415e-05
1.05907e-05
1.0664e-05
1.07408e-05
1.08029e-05
1.08348e-05
1.08245e-05
1.07635e-05
1.06467e-05
1.0472e-05
1.02405e-05
9.95536e-06
9.62169e-06
9.24594e-06
8.83523e-06
8.39722e-06
7.93887e-06
7.46815e-06
6.98994e-06
6.51486e-06
6.04051e-06
5.59065e-06
5.13224e-06
4.74786e-06
4.28111e-06
4.07219e-06
3.54738e-06
4.26962e-06
4.57615e-06
4.35455e-08
0
0
0
0
0
0
0
0
0
1.23812e-07
6.61922e-07
1.29841e-06
2.03047e-06
2.8518e-06
3.75299e-06
4.72177e-06
5.74327e-06
6.80065e-06
7.8758e-06
8.95009e-06
1.00052e-05
1.10239e-05
1.1991e-05
1.28935e-05
1.37214e-05
1.4468e-05
1.51297e-05
1.57057e-05
1.61985e-05
1.66126e-05
1.69553e-05
1.72366e-05
1.74695e-05
1.76668e-05
1.78337e-05
1.79627e-05
1.8041e-05
1.80726e-05
1.809e-05
1.81308e-05
1.81891e-05
1.81921e-05
1.80498e-05
1.77571e-05
1.74659e-05
1.74253e-05
1.77893e-05
1.84949e-05
1.93476e-05
2.01563e-05
2.07844e-05
2.11554e-05
2.12543e-05
2.1113e-05
2.07773e-05
2.02851e-05
1.96679e-05
1.89573e-05
1.81835e-05
1.73681e-05
1.65261e-05
1.56755e-05
1.48474e-05
1.40845e-05
1.34282e-05
1.29061e-05
1.25257e-05
1.22774e-05
1.21407e-05
1.20907e-05
1.21021e-05
1.21504e-05
1.22127e-05
1.22682e-05
1.22984e-05
1.22887e-05
1.22277e-05
1.21083e-05
1.19267e-05
1.16826e-05
1.13785e-05
1.10195e-05
1.0612e-05
1.01638e-05
9.6832e-06
9.17884e-06
8.65834e-06
8.13022e-06
7.59931e-06
7.07652e-06
6.55819e-06
6.06981e-06
5.57386e-06
5.16237e-06
4.6605e-06
4.45188e-06
3.89197e-06
4.74001e-06
5.08659e-06
4.66252e-07
0
0
0
0
0
0
0
0
7.4706e-08
4.63679e-07
9.38923e-07
1.50104e-06
2.14792e-06
2.87483e-06
3.67439e-06
4.53667e-06
5.44947e-06
6.39878e-06
7.36934e-06
8.34529e-06
9.31078e-06
1.02508e-05
1.11516e-05
1.20015e-05
1.27912e-05
1.3514e-05
1.41659e-05
1.47461e-05
1.52559e-05
1.56995e-05
1.6083e-05
1.64151e-05
1.67075e-05
1.69715e-05
1.72116e-05
1.74199e-05
1.75829e-05
1.77006e-05
1.77992e-05
1.79121e-05
1.8035e-05
1.81045e-05
1.80413e-05
1.78445e-05
1.76609e-05
1.77327e-05
1.82134e-05
1.90403e-05
2.00118e-05
2.09282e-05
2.16508e-05
2.21068e-05
2.22867e-05
2.22253e-05
2.19674e-05
2.15462e-05
2.09872e-05
2.03182e-05
1.95689e-05
1.87646e-05
1.79253e-05
1.70744e-05
1.62477e-05
1.54911e-05
1.48483e-05
1.43474e-05
1.39948e-05
1.37777e-05
1.36717e-05
1.36479e-05
1.36777e-05
1.37344e-05
1.3794e-05
1.38351e-05
1.38397e-05
1.37934e-05
1.36861e-05
1.35118e-05
1.32684e-05
1.29571e-05
1.25823e-05
1.21505e-05
1.16699e-05
1.11494e-05
1.05985e-05
1.00265e-05
9.44179e-06
8.85346e-06
8.2664e-06
7.69196e-06
7.12557e-06
6.59441e-06
6.05719e-06
5.61438e-06
5.07488e-06
4.86072e-06
4.26519e-06
5.21417e-06
5.60952e-06
9.96509e-07
1.80603e-07
0
0
0
0
0
0
1.45582e-07
3.97043e-07
7.23218e-07
1.12677e-06
1.6084e-06
2.16676e-06
2.79832e-06
3.49727e-06
4.25563e-06
5.06345e-06
5.9092e-06
6.78012e-06
7.66273e-06
8.54338e-06
9.4088e-06
1.02467e-05
1.10464e-05
1.1799e-05
1.24981e-05
1.31395e-05
1.3722e-05
1.42466e-05
1.47166e-05
1.51371e-05
1.55159e-05
1.5863e-05
1.61885e-05
1.64963e-05
1.67786e-05
1.70214e-05
1.72216e-05
1.73992e-05
1.75824e-05
1.77684e-05
1.79021e-05
1.79152e-05
1.78117e-05
1.77345e-05
1.79181e-05
1.85137e-05
1.94581e-05
2.05437e-05
2.15627e-05
2.2374e-05
2.29096e-05
2.31666e-05
2.31839e-05
2.30055e-05
2.26592e-05
2.21632e-05
2.15393e-05
2.08161e-05
2.00219e-05
1.91829e-05
1.83291e-05
1.75019e-05
1.67509e-05
1.61215e-05
1.56415e-05
1.53156e-05
1.51278e-05
1.50495e-05
1.50479e-05
1.50906e-05
1.5149e-05
1.5198e-05
1.52162e-05
1.5186e-05
1.50941e-05
1.49317e-05
1.46943e-05
1.43816e-05
1.3997e-05
1.35468e-05
1.30394e-05
1.24845e-05
1.18925e-05
1.12739e-05
1.06388e-05
9.996e-06
9.35506e-06
8.72073e-06
8.10472e-06
7.50128e-06
6.93941e-06
6.37339e-06
5.91299e-06
5.34836e-06
5.14644e-06
4.5266e-06
5.62269e-06
6.03916e-06
1.03717e-06
3.24845e-07
1.03846e-07
1.7626e-08
0
0
1.99966e-08
1.14701e-07
2.65975e-07
4.78353e-07
7.55727e-07
1.10086e-06
1.515e-06
1.99773e-06
2.54677e-06
3.15792e-06
3.82514e-06
4.54068e-06
5.29525e-06
6.07835e-06
6.87857e-06
7.68412e-06
8.48332e-06
9.26514e-06
1.00197e-05
1.07388e-05
1.14163e-05
1.20481e-05
1.26326e-05
1.31706e-05
1.36647e-05
1.41191e-05
1.45407e-05
1.49382e-05
1.53206e-05
1.56912e-05
1.60429e-05
1.63615e-05
1.66409e-05
1.68955e-05
1.7148e-05
1.73957e-05
1.75918e-05
1.76789e-05
1.76673e-05
1.7696e-05
1.79912e-05
1.86998e-05
1.97579e-05
2.09526e-05
2.20684e-05
2.29625e-05
2.35718e-05
2.39012e-05
2.39947e-05
2.38967e-05
2.36299e-05
2.32044e-05
2.26349e-05
2.19467e-05
2.1171e-05
2.03405e-05
1.94933e-05
1.86777e-05
1.79472e-05
1.7348e-05
1.69066e-05
1.66246e-05
1.64825e-05
1.64474e-05
1.64818e-05
1.65501e-05
1.66213e-05
1.66692e-05
1.66726e-05
1.66147e-05
1.64832e-05
1.62708e-05
1.59748e-05
1.55968e-05
1.51422e-05
1.46194e-05
1.40386e-05
1.34111e-05
1.27484e-05
1.20616e-05
1.13618e-05
1.06581e-05
9.9604e-06
9.27366e-06
8.61005e-06
7.9631e-06
7.36351e-06
6.76199e-06
6.27651e-06
5.68107e-06
5.4816e-06
4.83342e-06
6.04223e-06
6.49388e-06
1.35403e-06
7.21551e-07
4.89522e-07
3.65443e-07
2.83864e-07
2.40512e-07
2.39392e-07
2.85811e-07
3.84288e-07
5.38684e-07
7.52333e-07
1.02781e-06
1.36656e-06
1.76864e-06
2.23263e-06
2.75554e-06
3.33277e-06
3.95821e-06
4.62428e-06
5.32224e-06
6.04246e-06
6.77477e-06
7.50896e-06
8.2352e-06
8.94453e-06
9.62937e-06
1.02838e-05
1.0904e-05
1.14881e-05
1.20365e-05
1.25512e-05
1.30359e-05
1.34963e-05
1.39403e-05
1.43757e-05
1.48058e-05
1.52237e-05
1.56155e-05
1.5973e-05
1.63051e-05
1.6629e-05
1.69423e-05
1.72056e-05
1.73727e-05
1.74593e-05
1.75999e-05
1.80109e-05
1.88345e-05
2.00066e-05
2.13101e-05
2.25218e-05
2.34955e-05
2.41721e-05
2.45633e-05
2.47188e-05
2.46846e-05
2.44806e-05
2.41101e-05
2.35805e-05
2.29134e-05
2.21415e-05
2.13047e-05
2.04512e-05
1.96379e-05
1.89229e-05
1.83524e-05
1.79494e-05
1.77114e-05
1.76138e-05
1.76191e-05
1.76853e-05
1.77732e-05
1.78495e-05
1.78873e-05
1.78659e-05
1.77694e-05
1.75873e-05
1.7314e-05
1.69487e-05
1.64956e-05
1.59624e-05
1.53601e-05
1.47012e-05
1.39987e-05
1.32655e-05
1.25137e-05
1.17548e-05
1.09984e-05
1.02546e-05
9.52797e-06
8.83113e-06
8.15636e-06
7.53615e-06
6.91658e-06
6.42517e-06
5.8159e-06
5.64348e-06
4.98243e-06
6.36772e-06
6.81645e-06
6.33924e-07
1.92959e-07
2.78716e-08
0
0
0
0
0
2.52336e-08
1.65659e-07
3.55946e-07
5.98886e-07
8.96409e-07
1.24943e-06
1.65761e-06
2.11932e-06
2.63154e-06
3.18984e-06
3.78845e-06
4.42043e-06
5.07788e-06
5.75229e-06
6.43489e-06
7.11703e-06