/*--------------------------------*- C++ -*----------------------------------*\
  =========                 |
  \\      /  F ield         | OpenFOAM: The Open Source CFD Toolbox
   \\    /   O peration     | Website:  https://openfoam.org
    \\  /    A nd           | Version:  10
     \\/     M anipulation  |
\*---------------------------------------------------------------------------*/
FoamFile
{
    format      ascii;
    class       volScalarField;
    location    "0.035";
    object      p;
}
// * * * * * * * * * * * * * * * * * * * * * * * * * * * * * * * * * * * * * //

dimensions      [0 2 -2 0 0 0 0];

internalField   nonuniform List<scalar> 
6820
(
-9.75073
-10.0538
-10.1015
-10.1197
-10.1547
-10.1831
-10.2052
-10.2252
-10.2437
-10.2605
-10.2758
-10.2898
-10.3024
-10.3134
-10.3229
-10.3304
-10.3357
-10.3385
-10.3382
-10.3344
-10.3262
-10.313
-10.2938
-10.2675
-10.2328
-10.1882
-10.1318
-10.0618
-9.97545
-9.87063
-9.74377
-9.5923
-9.41989
-9.95178
-10.0774
-10.1155
-10.1335
-10.1626
-10.1878
-10.2082
-10.227
-10.2446
-10.2608
-10.2757
-10.2893
-10.3016
-10.3125
-10.3218
-10.3292
-10.3346
-10.3374
-10.3373
-10.3337
-10.3261
-10.3136
-10.2954
-10.2706
-10.2378
-10.1958
-10.1431
-10.0777
-9.99772
-9.90119
-9.78457
-9.64886
-9.47994
-9.95161
-10.0377
-10.0978
-10.1269
-10.1581
-10.186
-10.2085
-10.2288
-10.2474
-10.2642
-10.2796
-10.2935
-10.306
-10.317
-10.3263
-10.3337
-10.339
-10.3419
-10.3419
-10.3387
-10.3315
-10.3199
-10.3032
-10.2803
-10.2506
-10.2129
-10.1661
-10.1091
-10.0408
-9.96011
-9.86686
-9.76006
-9.64863
-10.0083
-10.0787
-10.1282
-10.1508
-10.1755
-10.1992
-10.219
-10.237
-10.2539
-10.2694
-10.2837
-10.2968
-10.3087
-10.3192
-10.3281
-10.3354
-10.3407
-10.3437
-10.3441
-10.3414
-10.3351
-10.3247
-10.3095
-10.2889
-10.2621
-10.2282
-10.1865
-10.1362
-10.0766
-10.0072
-9.92855
-9.84098
-9.75034
-10.038
-10.0774
-10.1181
-10.1435
-10.1693
-10.1943
-10.2156
-10.2349
-10.2527
-10.2691
-10.2842
-10.2979
-10.3103
-10.3213
-10.3307
-10.3384
-10.3442
-10.3477
-10.3488
-10.3469
-10.3418
-10.3329
-10.3198
-10.3018
-10.2785
-10.2492
-10.2136
-10.1711
-10.1217
-10.0654
-10.0034
-9.93644
-9.86998
-10.0676
-10.0989
-10.1379
-10.1635
-10.1867
-10.209
-10.2285
-10.2461
-10.2625
-10.2777
-10.2917
-10.3046
-10.3163
-10.3268
-10.3359
-10.3434
-10.3492
-10.353
-10.3546
-10.3536
-10.3497
-10.3425
-10.3316
-10.3166
-10.2972
-10.273
-10.2438
-10.2094
-10.1703
-10.1267
-10.0803
-10.0322
-9.98687
-10.0922
-10.1127
-10.1429
-10.1653
-10.1863
-10.2074
-10.2267
-10.2445
-10.2612
-10.2769
-10.2913
-10.3047
-10.317
-10.328
-10.3377
-10.3459
-10.3524
-10.3572
-10.3598
-10.3602
-10.358
-10.3529
-10.3448
-10.3333
-10.3183
-10.2996
-10.2773
-10.2516
-10.2231
-10.1925
-10.1617
-10.1321
-10.1078
-10.114
-10.1292
-10.1557
-10.1781
-10.1988
-10.2191
-10.2377
-10.2548
-10.2708
-10.2857
-10.2996
-10.3125
-10.3244
-10.3352
-10.3447
-10.353
-10.3599
-10.3651
-10.3686
-10.3701
-10.3695
-10.3666
-10.3612
-10.3533
-10.3427
-10.3297
-10.3143
-10.2972
-10.2791
-10.261
-10.2448
-10.2323
-10.2272
-10.1336
-10.1446
-10.1662
-10.1858
-10.204
-10.2224
-10.2398
-10.2562
-10.2719
-10.2867
-10.3006
-10.3137
-10.3259
-10.337
-10.3472
-10.3561
-10.3639
-10.3702
-10.375
-10.3782
-10.3797
-10.3794
-10.3772
-10.3732
-10.3675
-10.3604
-10.3522
-10.3437
-10.3357
-10.3297
-10.3274
-10.3309
-10.3434
-10.1513
-10.1596
-10.1778
-10.1961
-10.2136
-10.2313
-10.2484
-10.2645
-10.2799
-10.2945
-10.3082
-10.3212
-10.3333
-10.3446
-10.3549
-10.3643
-10.3725
-10.3797
-10.3857
-10.3903
-10.3938
-10.3959
-10.3968
-10.3967
-10.3957
-10.3943
-10.393
-10.3926
-10.3943
-10.3994
-10.4098
-10.4274
-10.4556
-10.1675
-10.174
-10.1892
-10.2055
-10.2214
-10.2375
-10.2534
-10.2687
-10.2834
-10.2976
-10.3111
-10.3241
-10.3363
-10.3479
-10.3587
-10.3687
-10.3779
-10.3862
-10.3936
-10.4001
-10.4058
-10.4107
-10.4149
-10.4188
-10.4227
-10.427
-10.4325
-10.44
-10.4508
-10.4661
-10.488
-10.5182
-10.5599
-10.1826
-10.1878
-10.2007
-10.2154
-10.2302
-10.2455
-10.2609
-10.2758
-10.2904
-10.3045
-10.318
-10.331
-10.3435
-10.3553
-10.3666
-10.3772
-10.3872
-10.3965
-10.4053
-10.4135
-10.4213
-10.4288
-10.4362
-10.444
-10.4524
-10.4621
-10.4738
-10.4886
-10.5075
-10.5319
-10.5637
-10.6046
-10.6573
-10.1966
-10.2009
-10.2119
-10.2251
-10.2387
-10.2529
-10.2673
-10.2816
-10.2955
-10.3092
-10.3225
-10.3354
-10.3479
-10.36
-10.3717
-10.383
-10.3938
-10.4043
-10.4146
-10.4246
-10.4346
-10.4448
-10.4554
-10.4669
-10.4798
-10.4946
-10.5122
-10.5335
-10.5597
-10.5922
-10.6325
-10.6822
-10.744
-10.2098
-10.2134
-10.2229
-10.2347
-10.2474
-10.2607
-10.2745
-10.2884
-10.3021
-10.3156
-10.3289
-10.342
-10.3548
-10.3673
-10.3795
-10.3915
-10.4033
-10.415
-10.4266
-10.4384
-10.4505
-10.4632
-10.4769
-10.4919
-10.5088
-10.5282
-10.551
-10.578
-10.6104
-10.6495
-10.6967
-10.7534
-10.8218
-10.2222
-10.2253
-10.2336
-10.2443
-10.2559
-10.2685
-10.2815
-10.2948
-10.308
-10.3213
-10.3344
-10.3474
-10.3603
-10.373
-10.3857
-10.3983
-10.4109
-10.4237
-10.4367
-10.4502
-10.4643
-10.4794
-10.4959
-10.5141
-10.5347
-10.5582
-10.5855
-10.6175
-10.6552
-10.6997
-10.7523
-10.8142
-10.8873
-10.2339
-10.2366
-10.2439
-10.2536
-10.2645
-10.2763
-10.2887
-10.3015
-10.3145
-10.3276
-10.3407
-10.3538
-10.3669
-10.3801
-10.3933
-10.4066
-10.4201
-10.434
-10.4484
-10.4635
-10.4795
-10.4968
-10.5158
-10.5369
-10.5607
-10.5878
-10.6189
-10.6549
-10.6967
-10.7452
-10.8018
-10.8672
-10.943
-10.245
-10.2474
-10.2539
-10.2628
-10.2729
-10.284
-10.2958
-10.3082
-10.3208
-10.3336
-10.3466
-10.3597
-10.3729
-10.3863
-10.3999
-10.4138
-10.4281
-10.443
-10.4585
-10.475
-10.4927
-10.512
-10.5332
-10.5567
-10.5832
-10.6132
-10.6473
-10.6864
-10.7313
-10.7828
-10.8418
-10.9091
-10.9861
-10.2555
-10.2576
-10.2635
-10.2717
-10.2811
-10.2916
-10.3029
-10.3148
-10.3272
-10.3398
-10.3528
-10.3659
-10.3794
-10.3931
-10.4071
-10.4217
-10.4367
-10.4525
-10.4692
-10.487
-10.5062
-10.5271
-10.5502
-10.5758
-10.6044
-10.6367
-10.6732
-10.7145
-10.7614
-10.8145
-10.8748
-10.9426
-11.0191
-10.2654
-10.2674
-10.2727
-10.2802
-10.2891
-10.299
-10.3099
-10.3214
-10.3335
-10.3459
-10.3587
-10.3719
-10.3854
-10.3994
-10.4138
-10.4287
-10.4444
-10.4609
-10.4785
-10.4973
-10.5177
-10.54
-10.5645
-10.5917
-10.622
-10.6558
-10.6938
-10.7364
-10.7843
-10.8381
-10.8983
-10.9655
-11.0402
-10.2748
-10.2766
-10.2815
-10.2885
-10.2968
-10.3063
-10.3167
-10.3279
-10.3397
-10.3519
-10.3647
-10.3778
-10.3915
-10.4056
-10.4203
-10.4357
-10.4519
-10.4691
-10.4874
-10.5072
-10.5285
-10.5519
-10.5775
-10.6057
-10.6371
-10.6719
-10.7106
-10.7538
-10.8019
-10.8553
-10.9144
-10.9797
-11.0517
-10.2836
-10.2852
-10.2899
-10.2964
-10.3042
-10.3133
-10.3233
-10.3342
-10.3457
-10.3578
-10.3704
-10.3835
-10.3972
-10.4115
-10.4264
-10.4421
-10.4586
-10.4763
-10.4951
-10.5155
-10.5375
-10.5614
-10.5877
-10.6166
-10.6484
-10.6835
-10.7223
-10.7653
-10.8126
-10.8647
-10.9219
-10.9845
-11.0527
-10.2918
-10.2934
-10.2977
-10.3039
-10.3113
-10.32
-10.3297
-10.3402
-10.3515
-10.3633
-10.3758
-10.3889
-10.4026
-10.4169
-10.432
-10.4478
-10.4647
-10.4826
-10.5018
-10.5225
-10.5448
-10.5691
-10.5956
-10.6247
-10.6564
-10.6913
-10.7296
-10.7716
-10.8175
-10.8675
-10.922
-10.981
-11.0448
-10.2996
-10.301
-10.3051
-10.3109
-10.3181
-10.3264
-10.3358
-10.346
-10.357
-10.3687
-10.381
-10.394
-10.4076
-10.4219
-10.437
-10.4529
-10.4699
-10.4879
-10.5072
-10.528
-10.5504
-10.5747
-10.601
-10.6297
-10.661
-10.6951
-10.7322
-10.7726
-10.8164
-10.8638
-10.9149
-10.9697
-11.0284
-10.3067
-10.3081
-10.312
-10.3175
-10.3244
-10.3324
-10.3415
-10.3514
-10.3621
-10.3736
-10.3857
-10.3985
-10.412
-10.4262
-10.4412
-10.4571
-10.4739
-10.4918
-10.511
-10.5316
-10.5538
-10.5777
-10.6035
-10.6314
-10.6617
-10.6945
-10.7299
-10.7681
-10.8093
-10.8534
-10.9007
-10.9509
-11.0042
-10.3133
-10.3146
-10.3183
-10.3237
-10.3302
-10.338
-10.3468
-10.3565
-10.367
-10.3782
-10.3901
-10.4027
-10.416
-10.4301
-10.4449
-10.4606
-10.4773
-10.495
-10.5138
-10.534
-10.5556
-10.5789
-10.6038
-10.6307
-10.6596
-10.6906
-10.7239
-10.7596
-10.7976
-10.8381
-10.8811
-10.9263
-10.9739
-10.3193
-10.3205
-10.3241
-10.3292
-10.3356
-10.3431
-10.3516
-10.361
-10.3712
-10.3822
-10.3938
-10.4061
-10.4191
-10.4329
-10.4474
-10.4627
-10.4789
-10.4961
-10.5144
-10.5339
-10.5547
-10.5769
-10.6006
-10.626
-10.6531
-10.682
-10.7127
-10.7454
-10.78
-10.8165
-10.8548
-10.8949
-10.9367
-10.3246
-10.3258
-10.3293
-10.3342
-10.3404
-10.3477
-10.356
-10.3652
-10.3752
-10.3859
-10.3973
-10.4094
-10.4221
-10.4356
-10.4497
-10.4646
-10.4804
-10.497
-10.5146
-10.5332
-10.553
-10.574
-10.5963
-10.6199
-10.6449
-10.6714
-10.6994
-10.7289
-10.7598
-10.7921
-10.8257
-10.8605
-10.8963
-10.3292
-10.3304
-10.3338
-10.3386
-10.3446
-10.3517
-10.3597
-10.3686
-10.3783
-10.3886
-10.3996
-10.4113
-10.4236
-10.4365
-10.4501
-10.4643
-10.4793
-10.4951
-10.5117
-10.5292
-10.5477
-10.5671
-10.5876
-10.6091
-10.6318
-10.6556
-10.6805
-10.7064
-10.7334
-10.7613
-10.7901
-10.8195
-10.8496
-10.3331
-10.3343
-10.3377
-10.3424
-10.3484
-10.3553
-10.3633
-10.3721
-10.3816
-10.3917
-10.4025
-10.4138
-10.4257
-10.4382
-10.4513
-10.4649
-10.4791
-10.4941
-10.5096
-10.526
-10.543
-10.5608
-10.5794
-10.5989
-10.6191
-10.64
-10.6618
-10.6842
-10.7072
-10.7307
-10.7547
-10.7789
-10.8032
-10.3363
-10.3374
-10.3407
-10.3453
-10.351
-10.3578
-10.3654
-10.3739
-10.383
-10.3927
-10.403
-10.4138
-10.4251
-10.4369
-10.4491
-10.4619
-10.4751
-10.4889
-10.5032
-10.518
-10.5334
-10.5493
-10.5658
-10.5828
-10.6002
-10.6182
-10.6365
-10.6552
-10.6741
-10.6932
-10.7124
-10.7314
-10.7503
-10.3386
-10.3398
-10.3432
-10.348
-10.3539
-10.3607
-10.3684
-10.377
-10.3859
-10.3954
-10.4054
-10.4159
-10.4268
-10.438
-10.4496
-10.4616
-10.474
-10.4867
-10.4998
-10.5132
-10.527
-10.541
-10.5554
-10.57
-10.5849
-10.5999
-10.615
-10.6301
-10.6451
-10.66
-10.6745
-10.6886
-10.7021
-10.3399
-10.341
-10.3441
-10.3488
-10.3544
-10.361
-10.3683
-10.3761
-10.3849
-10.3939
-10.4035
-10.4133
-10.4235
-10.434
-10.4447
-10.4557
-10.4669
-10.4783
-10.4899
-10.5017
-10.5135
-10.5255
-10.5375
-10.5495
-10.5615
-10.5734
-10.585
-10.5965
-10.6075
-10.6181
-10.6281
-10.6375
-10.6461
-10.3404
-10.342
-10.3459
-10.3511
-10.3572
-10.3641
-10.3717
-10.3797
-10.3883
-10.3972
-10.4065
-10.4159
-10.4256
-10.4355
-10.4455
-10.4557
-10.4659
-10.4762
-10.4864
-10.4967
-10.5069
-10.517
-10.5269
-10.5367
-10.5461
-10.5551
-10.5638
-10.5718
-10.5793
-10.586
-10.5919
-10.5969
-10.6007
-10.3391
-10.3402
-10.3436
-10.3485
-10.3542
-10.3609
-10.3682
-10.376
-10.3842
-10.3927
-10.4015
-10.4104
-10.4195
-10.4285
-10.4377
-10.4467
-10.4558
-10.4647
-10.4734
-10.4819
-10.4902
-10.4981
-10.5057
-10.5128
-10.5194
-10.5254
-10.5307
-10.5353
-10.5391
-10.5419
-10.5437
-10.5445
-10.5441
-10.3377
-10.3403
-10.3455
-10.3517
-10.3584
-10.3656
-10.3733
-10.3812
-10.3893
-10.3976
-10.4061
-10.4145
-10.423
-10.4315
-10.4399
-10.4481
-10.4562
-10.464
-10.4716
-10.4787
-10.4855
-10.4918
-10.4975
-10.5027
-10.5071
-10.5107
-10.5134
-10.5152
-10.5159
-10.5155
-10.5139
-10.5109
-10.5065
-10.3315
-10.3324
-10.3369
-10.3429
-10.3497
-10.3571
-10.3649
-10.373
-10.3812
-10.3894
-10.3976
-10.4057
-10.4137
-10.4215
-10.4291
-10.4364
-10.4433
-10.4498
-10.4558
-10.4613
-10.4662
-10.4704
-10.4738
-10.4764
-10.4782
-10.4789
-10.4786
-10.4772
-10.4746
-10.4708
-10.4656
-10.4592
-10.4513
-10.3299
-10.3356
-10.3435
-10.3507
-10.358
-10.3657
-10.3734
-10.3812
-10.3889
-10.3967
-10.4044
-10.4121
-10.4195
-10.4268
-10.4338
-10.4404
-10.4466
-10.4524
-10.4576
-10.4622
-10.466
-10.4691
-10.4713
-10.4726
-10.4728
-10.4719
-10.4698
-10.4664
-10.4616
-10.4554
-10.4476
-10.4382
-10.4271
-10.308
-10.3118
-10.3225
-10.3322
-10.3415
-10.351
-10.3602
-10.369
-10.3774
-10.3856
-10.3934
-10.4009
-10.408
-10.4147
-10.4208
-10.4265
-10.4316
-10.436
-10.4397
-10.4425
-10.4445
-10.4456
-10.4456
-10.4445
-10.4423
-10.4388
-10.4339
-10.4278
-10.4202
-10.4111
-10.4005
-10.3885
-10.3749
-10.3205
-10.3303
-10.3403
-10.3475
-10.3555
-10.3636
-10.3714
-10.3791
-10.3869
-10.3945
-10.4019
-10.4091
-10.416
-10.4226
-10.4288
-10.4345
-10.4396
-10.444
-10.4477
-10.4506
-10.4526
-10.4535
-10.4534
-10.452
-10.4494
-10.4454
-10.4399
-10.4329
-10.4242
-10.4139
-10.4017
-10.3877
-10.3717
-10.2188
-10.2856
-10.3099
-10.3213
-10.3355
-10.348
-10.3581
-10.3672
-10.3757
-10.3835
-10.3907
-10.3974
-10.4035
-10.4091
-10.414
-10.4181
-10.4216
-10.4241
-10.4258
-10.4265
-10.426
-10.4244
-10.4215
-10.4173
-10.4117
-10.4045
-10.3958
-10.3855
-10.3734
-10.3597
-10.3441
-10.3268
-10.3076
-9.16252
-9.32714
-8.73957
-7.86286
-7.31312
-7.38364
-8.32544
-10.1582
-12.7934
-16.1554
-20.018
-24.057
-27.929
-31.3135
-33.9136
-35.5758
-36.2486
-35.9246
-34.5946
-32.3695
-29.5222
-26.3966
-23.2611
-20.2486
-17.4064
-14.7568
-12.322
-10.1239
-8.17796
-6.48834
-5.04752
-3.83894
-2.84039
-2.02694
-1.37321
-0.854915
-0.449791
-0.138026
0.0976727
0.272249
0.398466
0.48704
0.546677
0.584096
0.604311
0.611074
0.607321
0.59549
0.577673
0.555649
0.530865
0.504454
0.477267
0.449932
0.422918
0.396575
0.371164
0.346877
0.323845
0.302146
0.281812
0.262838
0.24519
0.228815
0.213647
0.199613
0.186634
0.174634
0.163534
0.153261
0.143742
0.134911
0.126702
0.119057
0.11192
0.105239
0.0989687
0.0930642
0.0874855
0.0821964
0.0771629
0.0723548
0.0677436
0.0633044
0.0590135
0.0548504
0.0507956
0.0468323
0.0429441
0.0391179
0.035339
0.0315993
0.0278811
0.0241881
0.0204847
0.016816
0.0130657
0.00944516
0.00550511
0.00213781
-9.3032
-9.23229
-8.7611
-8.24478
-7.88305
-7.90042
-8.60043
-10.2308
-12.8277
-16.1464
-19.8236
-23.558
-27.0954
-30.1928
-32.6455
-34.281
-34.8981
-34.4426
-33.0017
-30.7847
-28.0927
-25.2183
-22.3484
-19.5696
-16.9221
-14.4348
-12.1357
-10.049
-8.19099
-6.56716
-5.17254
-3.99378
-3.01203
-2.20548
-1.55147
-1.0279
-0.614253
-0.292029
-0.0449145
0.141331
0.279008
0.378525
0.448409
0.495349
0.524364
0.539214
0.542846
0.537717
0.525953
0.50938
0.4895
0.467498
0.444276
0.42051
0.396704
0.373243
0.350419
0.32845
0.307494
0.287652
0.268977
0.251485
0.235159
0.219962
0.205842
0.19274
0.18059
0.169324
0.158875
0.149178
0.140168
0.131786
0.123973
0.116676
0.109845
0.103434
0.0973991
0.0917013
0.0863036
0.0811727
0.0762774
0.0715899
0.0670839
0.0627362
0.0585251
0.0544314
0.0504369
0.0465261
0.0426835
0.038897
0.0351528
0.0314431
0.0277516
0.0240816
0.0203995
0.0167481
0.0130173
0.00940713
0.00549322
0.00211601
-9.50309
-9.41465
-9.14567
-8.78818
-8.5449
-8.65905
-9.39627
-10.9431
-13.292
-16.2785
-19.6515
-23.1241
-26.4131
-29.293
-31.4894
-32.8224
-33.1669
-32.5492
-31.1078
-29.0569
-26.6439
-24.073
-21.4721
-18.9146
-16.4494
-14.116
-11.9474
-9.96894
-8.19699
-6.63824
-5.29001
-4.14192
-3.17817
-2.37986
-1.72685
-1.19918
-0.777988
-0.4461
-0.18818
0.00928564
0.158097
0.268357
0.348398
0.40481
0.442614
0.465579
0.476654
0.478308
0.472694
0.461675
0.446803
0.429314
0.410159
0.390056
0.36955
0.349058
0.328901
0.309327
0.290517
0.272596
0.25564
0.239684
0.224728
0.210754
0.197723
0.18559
0.1743
0.163798
0.154026
0.144927
0.136447
0.128531
0.12113
0.114196
0.107684
0.101553
0.0957635
0.0902809
0.0850717
0.0801055
0.0753543
0.0707924
0.066396
0.0621439
0.0580159
0.0539946
0.050063
0.0462069
0.0424119
0.0386668
0.0349587
0.0312804
0.0276167
0.0239707
0.0203108
0.0166774
0.0129669
0.00936746
0.0054807
0.00209358
-9.63725
-9.55055
-9.37768
-9.18251
-9.1403
-9.41766
-10.1824
-11.5715
-13.6249
-16.2608
-19.2753
-22.3949
-25.3461
-27.8749
-29.6743
-30.7392
-30.9773
-30.4134
-29.1668
-27.4046
-25.3005
-23.0061
-20.6377
-18.2772
-15.9828
-13.7981
-11.7566
-9.88341
-8.19554
-6.70107
-5.39945
-4.28288
-3.33835
-2.54961
-1.89892
-1.36833
-0.940624
-0.599913
-0.331851
-0.123661
0.0359263
0.15667
0.24672
0.312549
0.359122
0.390217
0.408783
0.417292
0.417914
0.412544
0.402779
0.389902
0.374911
0.358567
0.34145
0.324011
0.306603
0.289499
0.272905
0.256971
0.241794
0.227427
0.213892
0.201185
0.189284
0.178156
0.16776
0.158051
0.148982
0.140506
0.132575
0.125145
0.118172
0.111615
0.105434
0.0995943
0.0940606
0.088802
0.0837888
0.0789941
0.0743927
0.0699616
0.0656793
0.0615265
0.0574851
0.0535391
0.0496731
0.045874
0.0421286
0.0384266
0.0347561
0.0311106
0.0274758
0.0238548
0.0202181
0.0166035
0.0129142
0.00932602
0.00546739
0.00207062
-9.79067
-9.72665
-9.63646
-9.56195
-9.63035
-9.97742
-10.7369
-12.011
-13.823
-16.1011
-18.6856
-21.3603
-23.8844
-26.0087
-27.671
-28.6399
-28.9007
-28.4708
-27.4346
-25.916
-24.0554
-21.9893
-19.8289
-17.6547
-15.5249
-13.4834
-11.564
-9.79264
-8.18679
-6.75576
-5.50082
-4.4165
-3.49229
-2.7144
-2.0673
-1.53497
-1.10179
-0.753126
-0.475617
-0.257235
-0.0872598
0.0436913
0.14355
0.218691
0.274001
0.313216
0.339298
0.354717
0.361648
0.362013
0.357446
0.349275
0.338541
0.326044
0.312404
0.298103
0.283522
0.268962
0.254655
0.240772
0.227432
0.214711
0.202646
0.191252
0.180522
0.170436
0.160966
0.15208
0.143741
0.135911
0.128551
0.121626
0.115097
0.108931
0.103095
0.0975576
0.0922894
0.0872635
0.0824541
0.0778377
0.0733921
0.0690971
0.0649335
0.0608841
0.0569329
0.0530652
0.0492675
0.0455276
0.0418339
0.0381768
0.0345455
0.030934
0.0273294
0.0237344
0.0201218
0.0165268
0.0128595
0.00928298
0.00545346
0.00204711
-9.93726
-9.90329
-9.87763
-9.89321
-10.0469
-10.4477
-11.1972
-12.3682
-13.9729
-15.9492
-18.1694
-20.4611
-22.6384
-24.5243
-25.9833
-26.849
-27.1017
-26.7533
-25.8634
-24.5316
-22.8772
-21.0172
-19.05
-17.0509
-15.0769
-13.1718
-11.3697
-9.69674
-8.17083
-6.8023
-5.59402
-4.54257
-3.6397
-2.87386
-2.2316
-1.69872
-1.26112
-0.905401
-0.619176
-0.391175
-0.211242
-0.0703899
0.0390598
0.123356
0.187332
0.23466
0.268266
0.290632
0.303934
0.310109
0.310823
0.307445
0.301055
0.292494
0.282415
0.271332
0.259656
0.247714
0.235762
0.223994
0.212552
0.20153
0.190987
0.180951
0.171433
0.162426
0.153917
0.145884
0.138301
0.13114
0.124373
0.11797
0.111903
0.106143
0.100664
0.095441
0.0904485
0.0856642
0.0810664
0.0766351
0.0723514
0.0681976
0.0641573
0.0602155
0.0563578
0.0525717
0.0488449
0.0451667
0.0415267
0.0379163
0.0343258
0.0307498
0.0271766
0.0236088
0.0200213
0.0164466
0.0128024
0.00923802
0.00543865
0.00202291
-10.0868
-10.0869
-10.1159
-10.203
-10.421
-10.8545
-11.5805
-12.6525
-14.0775
-15.8047
-17.7298
-19.7114
-21.5945
-23.2222
-24.475
-25.2369
-25.4715
-25.1811
-24.4101
-23.2393
-21.7671
-20.0924
-18.3022
-16.4663
-14.6392
-12.8639
-11.1742
-9.5961
-8.14794
-6.84084
-5.67906
-4.66098
-3.78037
-3.02772
-2.3915
-1.85923
-1.41826
-1.0564
-0.762214
-0.525199
-0.335771
-0.185361
-0.0665598
0.0267184
0.0992384
0.154636
0.195773
0.225105
0.244821
0.25687
0.262941
0.264435
0.262472
0.257928
0.25149
0.243705
0.23501
0.225757
0.216228
0.206639
0.197153
0.187885
0.178912
0.17028
0.162015
0.154125
0.146609
0.139459
0.132659
0.126192
0.120039
0.114178
0.108589
0.103251
0.0981422
0.0932444
0.0885377
0.0840041
0.0796259
0.0753868
0.071271
0.067264
0.0633517
0.0595215
0.0557611
0.0520596
0.0484065
0.0447924
0.0412081
0.0376462
0.034098
0.0305589
0.0270183
0.0234786
0.0199172
0.0163637
0.0127432
0.00919154
0.00542331
0.00199819
-10.2317
-10.2636
-10.3364
-10.4765
-10.7386
-11.1882
-11.8836
-12.8632
-14.1294
-15.6393
-17.3069
-19.016
-20.6352
-22.0375
-23.1195
-23.7857
-23.9937
-23.7433
-23.0694
-22.036
-20.7233
-19.2149
-17.5866
-15.9019
-14.2127
-12.5603
-10.9779
-9.49107
-8.11837
-6.87153
-5.75597
-4.77165
-3.91411
-3.1757
-2.54668
-2.01615
-1.57286
-1.20578
-0.904419
-0.659024
-0.460599
-0.301005
-0.173128
-0.0710557
0.00987136
0.0732439
0.121891
0.15821
0.184373
0.202344
0.213833
0.220272
0.222812
0.222363
0.219644
0.215231
0.209589
0.203095
0.196055
0.188707
0.181236
0.173775
0.166422
0.159239
0.152267
0.145532
0.139043
0.132806
0.126816
0.121067
0.115548
0.110248
0.105154
0.100251
0.0955268
0.0909661
0.0865555
0.0822814
0.0781307
0.0740906
0.0701489
0.0662939
0.0625144
0.0587999
0.0551404
0.0515268
0.0479501
0.0444026
0.0408763
0.0373648
0.0338606
0.0303599
0.0268531
0.0233427
0.0198085
0.016277
0.0126814
0.00914293
0.00540696
0.00197258
-10.3709
-10.4315
-10.5396
-10.7184
-11.0096
-11.4632
-12.1224
-13.0142
-14.1373
-15.4551
-16.8972
-18.3679
-19.7591
-20.9647
-21.8926
-22.4652
-22.644
-22.4249
-21.8327
-20.9173
-19.7444
-18.3842
-16.9029
-15.358
-13.7977
-12.2615
-10.7813
-9.38214
-8.08251
-6.89463
-5.82487
-4.87454
-4.04078
-3.31758
-2.69684
-2.16916
-1.72459
-1.35321
-1.04548
-0.79236
-0.585464
-0.417092
-0.28044
-0.169795
-0.0806104
-0.00936915
0.0467183
0.0900143
0.122652
0.146589
0.16355
0.174993
0.182103
0.185819
0.186892
0.185923
0.183404
0.179737
0.17525
0.170204
0.164804
0.159204
0.153519
0.147829
0.142193
0.136647
0.131219
0.125924
0.120772
0.115764
0.110902
0.106182
0.101599
0.0971473
0.0928195
0.0886077
0.0845035
0.0804981
0.0765829
0.072749
0.0689875
0.06529
0.061648
0.0580534
0.0544984
0.0509757
0.0474783
0.0439997
0.0405334
0.037074
0.0336155
0.0301544
0.0266827
0.0232026
0.0196965
0.0161878
0.0126178
0.00909298
0.00539027
0.00194652
-10.5025
-10.5873
-10.7223
-10.9276
-11.235
-11.6823
-12.3014
-13.1104
-14.1053
-15.2548
-16.5007
-17.7642
-18.9559
-19.9869
-20.7788
-21.2676
-21.4171
-21.2197
-20.6936
-19.8783
-18.8271
-17.599
-16.2512
-14.8351
-13.3951
-11.9682
-10.585
-9.2698
-8.04076
-6.91041
-5.88591
-4.9697
-4.16029
-3.45318
-2.84174
-2.31795
-1.87312
-1.49838
-1.18507
-0.924918
-0.710101
-0.533384
-0.38829
-0.269318
-0.172053
-0.0930594
-0.0296101
0.0206166
0.0597269
0.0896562
0.112135
0.128642
0.140385
0.148331
0.153259
0.155801
0.156472
0.155696
0.153824
0.151138
0.147865
0.144177
0.140208
0.136056
0.131793
0.127475
0.12314
0.118817
0.114527
0.110285
0.106099
0.101978
0.0979228
0.0939365
0.0900184
0.0861668
0.0823788
0.0786511
0.0749791
0.0713581
0.067783
0.0642484
0.0607485
0.057278
0.0538312
0.0504028
0.0469874
0.0435803
0.0401762
0.0367711
0.0333599
0.0299401
0.0265048
0.0230563
0.0195794
0.0160944
0.0125511
0.00904061
0.00537235
0.00191934
-10.6234
-10.7277
-10.8827
-11.1049
-11.4189
-11.8527
-12.4295
-13.1608
-14.0408
-15.0423
-16.117
-17.1999
-18.2174
-19.0953
-19.7669
-20.1784
-20.2972
-20.1146
-19.6431
-18.9136
-17.969
-16.8585
-15.6314
-14.3336
-13.0053
-11.681
-10.3897
-9.1546
-7.99357
-6.91922
-5.9393
-5.05718
-4.2726
-3.58236
-2.98116
-2.46228
-2.01816
-1.64097
-1.32291
-1.05641
-0.834241
-0.649637
-0.496456
-0.369429
-0.264285
-0.177683
-0.106963
-0.0498569
-0.00429955
0.0316266
0.0596526
0.081265
0.0976914
0.109928
0.118778
0.124893
0.128813
0.130989
0.131791
0.131522
0.130429
0.128703
0.126496
0.123923
0.121075
0.118018
0.114808
0.111487
0.108086
0.104632
0.101144
0.0976395
0.0941293
0.0906232
0.0871277
0.0836479
0.0801865
0.0767453
0.0733246
0.0699236
0.066541
0.0631745
0.0598216
0.0564792
0.0531441
0.049813
0.0464824
0.0431489
0.0398091
0.0364598
0.0330974
0.02972
0.0263223
0.0229063
0.0194594
0.0159989
0.0124829
0.00898726
0.00535441
0.00189189
-10.7339
-10.8531
-11.0214
-11.2525
-11.565
-11.9796
-12.5127
-13.1709
-13.9475
-14.8185
-15.7437
-16.6696
-17.5354
-18.2791
-18.8443
-19.186
-19.2752
-19.1023
-18.6757
-18.0189
-17.1671
-16.1611
-15.0432
-13.8536
-12.6287
-11.4005
-10.1959
-9.03712
-7.94144
-6.92145
-5.9853
-5.13714
-4.37771
-3.70501
-3.11492
-2.60188
-2.15944
-1.7807
-1.45868
-1.18654
-0.957613
-0.765601
-0.604714
-0.469926
-0.357127
-0.263081
-0.185204
-0.121291
-0.0693196
-0.0274013
0.00618293
0.0329269
0.0540763
0.070651
0.0834755
0.093223
0.100455
0.105641
0.109171
0.111372
0.112509
0.112794
0.112394
0.111442
0.110044
0.108285
0.106231
0.103938
0.101451
0.0988072
0.0960374
0.0931669
0.0902169
0.0872045
0.0841439
0.0810466
0.0779213
0.0747751
0.071613
0.0684387
0.0652544
0.0620613
0.0588599
0.0556499
0.0524302
0.0491997
0.0459568
0.0426997
0.0394264
0.0361351
0.0328234
0.0294902
0.0261315
0.0227493
0.0193338
0.0158986
0.0124113
0.00893104
0.00533488
0.00186297
-10.8308
-10.9606
-11.1369
-11.3707
-11.6758
-12.0675
-12.5568
-13.147
-13.8305
-14.5865
-15.3812
-16.1705
-16.9039
-17.53
-18.0016
-18.2804
-18.3411
-18.1739
-17.7839
-17.1895
-16.4188
-15.5055
-14.4859
-13.3951
-12.2659
-11.1272
-10.0043
-8.91797
-7.88491
-6.91752
-6.02421
-5.20973
-4.47568
-3.82108
-3.24287
-2.73657
-2.2967
-1.91727
-1.59211
-1.31503
-1.07995
-0.881022
-0.712829
-0.570597
-0.450388
-0.349084
-0.264185
-0.193554
-0.135222
-0.0873361
-0.0481917
-0.016295
0.0096114
0.0305618
0.0474014
0.0608279
0.0714233
0.0796732
0.0859879
0.0907117
0.094127
0.0964655
0.0979148
0.0986238
0.0987138
0.0982837
0.0974158
0.0961788
0.0946303
0.0928191
0.0907867
0.0885683
0.0861941
0.0836897
0.0810765
0.0783728
0.0755935
0.072751
0.0698553
0.0669143
0.0639342
0.0609197
0.0578743
0.0548003
0.0516993
0.0485723
0.0454194
0.0422408
0.0390357
0.0358039
0.0325441
0.0292561
0.0259374
0.0225897
0.0192062
0.0157971
0.0123389
0.00887447
0.00531587
0.0018341
-10.9157
-11.0521
-11.2316
-11.4627
-11.7558
-12.1217
-12.5676
-13.0943
-13.6939
-14.3482
-15.0288
-15.6992
-16.3175
-16.841
-17.2301
-17.4527
-17.4865
-17.3222
-16.9624
-16.4212
-15.7211
-14.8902
-13.959
-12.9582
-11.917
-10.8617
-9.8154
-8.79774
-7.82453
-6.9079
-6.05637
-5.27518
-4.56662
-3.93056
-3.36492
-2.86616
-2.42971
-2.05045
-1.72292
-1.4416
-1.20097
-0.995645
-0.820563
-0.671223
-0.54387
-0.435513
-0.343746
-0.266507
-0.201884
-0.148068
-0.103376
-0.0663206
-0.0356382
-0.0102802
0.0106157
0.0277636
0.0417629
0.0531207
0.0622666
0.0695601
0.0753012
0.0797395
0.0830779
0.0854833
0.0870943
0.0880247
0.0883711
0.0882155
0.087628
0.0866694
0.0853921
0.0838416
0.0820572
0.0800729
0.0779181
0.0756177
0.0731929
0.0706618
0.0680393
0.0653379
0.0625676
0.0597367
0.0568518
0.053918
0.0509394
0.0479192
0.0448594
0.041762
0.0386277
0.0354576
0.0322517
0.0290107
0.0257337
0.022422
0.0190719
0.01569
0.0122621
0.00881432
0.00529469
0.00180327
-10.9859
-11.1254
-11.3043
-11.5289
-11.8067
-12.1453
-12.549
-13.0169
-13.5411
-14.1055
-14.6863
-15.2531
-15.7713
-16.2053
-16.5222
-16.6947
-16.7037
-16.5402
-16.2054
-15.7098
-15.0714
-14.3134
-13.4616
-12.5428
-11.5824
-10.6044
-9.6299
-8.67706
-7.76088
-6.89308
-6.0822
-5.33376
-4.65066
-4.0335
-3.48101
-2.99052
-2.5583
-2.17999
-1.85086
-1.566
-1.32042
-1.10922
-0.927675
-0.771579
-0.637365
-0.522179
-0.423717
-0.339995
-0.26917
-0.209478
-0.159266
-0.117058
-0.0815895
-0.0518029
-0.0268229
-0.00591894
0.0115255
0.0260329
0.0380487
0.0479506
0.0560583
0.062636
0.0679024
0.0720415
0.0752065
0.0775267
0.0791137
0.0800637
0.0804594
0.0803734
0.0798693
0.0790029
0.0778229
0.0763719
0.074687
0.0728003
0.0707393
0.0685277
0.0661855
0.0637297
0.0611745
0.0585318
0.0558113
0.0530211
0.0501678
0.0472567
0.044292
0.0412774
0.0382152
0.0351079
0.0319568
0.0287636
0.0255288
0.0222537
0.0189374
0.015583
0.012186
0.00875488
0.00527492
0.00177307
-11.0437
-11.1832
-11.3581
-11.573
-11.8331
-12.1436
-12.5065
-12.92
-13.3762
-13.861
-14.3545
-14.831
-15.2621
-15.6181
-15.8717
-15.9999
-15.9861
-15.8221
-15.5079
-15.0514
-14.4669
-13.7735
-12.993
-12.1485
-11.2623
-10.3558
-9.44832
-8.55653
-7.69454
-6.87359
-6.10209
-5.38579
-4.72802
-4.12998
-3.59113
-3.10955
-2.68229
-2.30569
-1.97569
-1.68796
-1.43805
-1.22148
-1.03392
-0.871435
-0.730659
-0.608885
-0.503917
-0.413857
-0.336934
-0.271435
-0.215746
-0.168405
-0.128153
-0.0939273
-0.0648426
-0.0401554
-0.0192355
-0.00154469
0.0133784
0.0259271
0.0364353
0.0451844
0.0524115
0.0583156
0.0630639
0.0668014
0.0696538
0.0717307
0.0731283
0.0739315
0.0742153
0.0740459
0.0734817
0.0725742
0.0713682
0.0699032
0.0682132
0.0663277
0.0642718
0.0620673
0.0597323
0.0572824
0.0547307
0.0520881
0.0493637
0.0465652
0.0436988
0.0407698
0.0377825
0.0347404
0.0316465
0.0285031
0.0253123
0.0220754
0.0187946
0.0154689
0.0121041
0.00869075
0.00525197
0.00174022
-11.0869
-11.224
-11.3924
-11.5953
-11.8363
-12.1185
-12.4427
-12.8059
-13.2009
-13.6153
-14.0322
-14.4302
-14.7857
-15.074
-15.2725
-15.3616
-15.3274
-15.1621
-14.8651
-14.4422
-13.9049
-13.2688
-12.5523
-11.775
-10.9567
-10.1163
-9.27119
-8.43675
-7.62612
-6.84997
-6.11653
-5.43162
-4.79892
-4.22012
-3.6953
-3.22321
-2.80156
-2.42738
-2.0972
-1.80726
-1.5536
-1.33219
-1.13906
-0.970557
-0.823531
-0.695424
-0.584155
-0.487918
-0.405017
-0.333798
-0.272687
-0.220247
-0.175226
-0.136562
-0.103363
-0.0748748
-0.0504554
-0.0295531
-0.0116931
0.0035326
0.0164737
0.0274269
0.036644
0.0443393
0.0506967
0.0558762
0.060017
0.0632418
0.0656605
0.0673704
0.0684578
0.0689997
0.0690641
0.0687115
0.0679948
0.0669607
0.0656498
0.0640974
0.0623339
0.0603858
0.0582755
0.0560222
0.0536424
0.0511499
0.0485564
0.045872
0.0431051
0.0402628
0.0373509
0.0343746
0.0313381
0.0282447
0.0250982
0.0218995
0.0186542
0.0153573
0.0120248
0.008629
0.00523163
0.00170915
-11.118
-11.2506
-11.4104
-11.5996
-11.8205
-12.0748
-12.3622
-12.6793
-13.0193
-13.3714
-13.7211
-14.0507
-14.3403
-14.5699
-14.7202
-14.775
-14.7223
-14.5553
-14.2728
-13.879
-13.383
-12.7977
-12.1384
-11.422
-10.6657
-9.88615
-9.099
-8.3183
-7.5562
-6.82278
-6.12598
-5.47164
-4.86365
-4.30411
-3.79361
-3.33147
-2.91603
-2.54491
-2.2152
-1.92367
-1.66685
-1.44111
-1.24286
-1.06871
-0.915756
-0.781583
-0.664231
-0.561993
-0.473249
-0.396412
-0.329951
-0.272458
-0.222695
-0.179606
-0.142293
-0.109996
-0.0820621
-0.0579292
-0.0371096
-0.0191818
-0.00378268
0.009399
0.0206302
0.0301406
0.0381286
0.0447685
0.0502139
0.0546021
0.0580557
0.0606843
0.062586
0.0638484
0.0645497
0.0647592
0.0645382
0.0639407
0.0630142
0.0617999
0.0603336
0.0586464
0.056765
0.0547125
0.0525086
0.0501701
0.0477113
0.0451447
0.0424807
0.0397282
0.0368948
0.033987
0.0310105
0.0279695
0.0248694
0.021711
0.018503
0.0152365
0.0119378
0.00856087
0.00520659
0.00167448
-11.1359
-11.2622
-11.4119
-11.5864
-11.7867
-12.0139
-12.2666
-12.5415
-12.8321
-13.129
-13.4199
-13.6899
-13.9226
-14.1012
-14.2099
-14.2349
-14.1659
-13.9971
-13.7268
-13.3583
-12.8986
-12.3584
-11.7504
-11.0891
-10.3892
-9.66562
-8.93222
-8.20175
-7.48539
-6.7926
-6.13097
-5.50628
-4.92253
-4.38215
-3.88616
-3.43436
-3.02565
-2.65816
-2.32953
-2.03701
-1.77757
-1.548
-1.34506
-1.16566
-1.0071
-0.867141
-0.743938
-0.635887
-0.541451
-0.45911
-0.387384
-0.324899
-0.270436
-0.222945
-0.181529
-0.145425
-0.113972
-0.0865963
-0.0628012
-0.042153
-0.0242757
-0.00884445
0.00442185
0.0157671
0.0254044
0.0335227
0.0402902
0.0458573
0.0503599
0.0539203
0.0566482
0.0586421
0.0599901
0.0607707
0.0610536
0.0609002