/*--------------------------------*- C++ -*----------------------------------*\
  =========                 |
  \\      /  F ield         | OpenFOAM: The Open Source CFD Toolbox
   \\    /   O peration     | Website:  https://openfoam.org
    \\  /    A nd           | Version:  10
     \\/     M anipulation  |
\*---------------------------------------------------------------------------*/
FoamFile
{
    format      ascii;
    class       surfaceScalarField;
    location    "0.035";
    object      phi;
}
// * * * * * * * * * * * * * * * * * * * * * * * * * * * * * * * * * * * * * //

dimensions      [0 3 -1 0 0 0 0];

internalField   nonuniform List<scalar> 
13452
(
5.94545e-05
8.14004e-07
5.84771e-05
9.77322e-07
5.74612e-05
1.01598e-06
5.64195e-05
1.04162e-06
5.53811e-05
1.03844e-06
5.43579e-05
1.02318e-06
5.33542e-05
1.00367e-06
5.23728e-05
9.81414e-07
5.14155e-05
9.57347e-07
5.04833e-05
9.32138e-07
4.95772e-05
9.06107e-07
4.86978e-05
8.79447e-07
4.78455e-05
8.52306e-07
4.70207e-05
8.24813e-07
4.62236e-05
7.97094e-07
4.54543e-05
7.69298e-07
4.47127e-05
7.41606e-07
4.39984e-05
7.14245e-07
4.33109e-05
6.87508e-07
4.26492e-05
6.61767e-07
4.20117e-05
6.37499e-07
4.13963e-05
6.15312e-07
4.08004e-05
5.95979e-07
4.02199e-05
5.80486e-07
3.96498e-05
5.70092e-07
3.90834e-05
5.66399e-07
3.85119e-05
5.71487e-07
3.79239e-05
5.87992e-07
3.73046e-05
6.1928e-07
3.66341e-05
6.70491e-07
3.58907e-05
7.43453e-07
3.50292e-05
8.61452e-07
9.73576e-07
3.40557e-05
6.24895e-05
3.14859e-07
6.29647e-05
5.0206e-07
6.3412e-05
5.68714e-07
6.3822e-05
6.31677e-07
6.41872e-05
6.73162e-07
6.45077e-05
7.02686e-07
6.47851e-05
7.26333e-07
6.50218e-05
7.44691e-07
6.52208e-05
7.58368e-07
6.53848e-05
7.68058e-07
6.55168e-05
7.74189e-07
6.56191e-05
7.77084e-07
6.56944e-05
7.77041e-07
6.57449e-05
7.74345e-07
6.57727e-05
7.69284e-07
6.57798e-05
7.62172e-07
6.5768e-05
7.53365e-07
6.5739e-05
7.43283e-07
6.56941e-05
7.32428e-07
6.56344e-05
7.21413e-07
6.55609e-05
7.10992e-07
6.54742e-05
7.02099e-07
6.53742e-05
6.95896e-07
6.52609e-05
6.93834e-07
6.51332e-05
6.97748e-07
6.49897e-05
7.09932e-07
6.48278e-05
7.3338e-07
6.46441e-05
7.71739e-07
6.44331e-05
8.30245e-07
6.41891e-05
9.14522e-07
6.38979e-05
1.03463e-06
6.35583e-05
1.20107e-06
1.42583e-06
6.3106e-05
6.38351e-05
2.41131e-07
6.39126e-05
4.24637e-07
6.39844e-05
4.96879e-07
6.40598e-05
5.56305e-07
6.41377e-05
5.95217e-07
6.42201e-05
6.20278e-07
6.43078e-05
6.38679e-07
6.44005e-05
6.52001e-07
6.44977e-05
6.61151e-07
6.45987e-05
6.67034e-07
6.47027e-05
6.70224e-07
6.48086e-05
6.71111e-07
6.49156e-05
6.70029e-07
6.50227e-05
6.67273e-07
6.51289e-05
6.6313e-07
6.52331e-05
6.579e-07
6.53346e-05
6.51917e-07
6.54323e-05
6.45579e-07
6.55254e-05
6.3936e-07
6.56129e-05
6.33843e-07
6.56942e-05
6.29748e-07
6.57683e-05
6.2797e-07
6.58346e-05
6.2962e-07
6.58923e-05
6.36083e-07
6.5941e-05
6.49097e-07
6.59801e-05
6.70823e-07
6.60095e-05
7.04018e-07
6.60291e-05
7.52058e-07
6.60399e-05
8.19446e-07
6.6043e-05
9.11432e-07
6.60424e-05
1.03528e-06
6.60428e-05
1.20059e-06
1.40911e-06
6.60596e-05
6.56412e-05
1.83035e-07
6.56951e-05
3.70697e-07
6.57345e-05
4.57493e-07
6.57678e-05
5.22963e-07
6.5796e-05
5.67051e-07
6.58209e-05
5.95363e-07
6.58441e-05
6.15534e-07
6.58662e-05
6.29866e-07
6.58879e-05
6.39455e-07
6.59096e-05
6.45361e-07
6.59315e-05
6.48312e-07
6.59538e-05
6.48819e-07
6.59765e-05
6.47315e-07
6.59996e-05
6.44194e-07
6.60229e-05
6.39834e-07
6.60461e-05
6.34622e-07
6.60691e-05
6.28983e-07
6.60913e-05
6.23397e-07
6.61122e-05
6.18424e-07
6.61313e-05
6.14728e-07
6.61479e-05
6.13109e-07
6.61614e-05
6.14533e-07
6.61708e-05
6.20176e-07
6.61754e-05
6.3147e-07
6.61744e-05
6.50172e-07
6.61668e-05
6.7842e-07
6.61519e-05
7.18853e-07
6.61293e-05
7.74663e-07
6.6099e-05
8.49754e-07
6.60615e-05
9.48949e-07
6.60197e-05
1.0771e-06
6.59771e-05
1.24321e-06
1.4429e-06
6.59433e-05
6.74911e-05
1.48747e-07
6.75339e-05
3.27874e-07
6.75713e-05
4.20108e-07
6.76071e-05
4.87142e-07
6.76398e-05
5.34309e-07
6.76694e-05
5.65789e-07
6.76966e-05
5.8833e-07
6.77219e-05
6.04557e-07
6.77457e-05
6.15694e-07
6.77682e-05
6.22877e-07
6.77896e-05
6.26936e-07
6.78099e-05
6.28461e-07
6.78293e-05
6.27951e-07
6.78476e-05
6.25862e-07
6.78648e-05
6.22633e-07
6.78807e-05
6.18711e-07
6.78951e-05
6.14583e-07
6.79077e-05
6.10793e-07
6.79182e-05
6.07967e-07
6.79261e-05
6.06837e-07
6.79309e-05
6.08274e-07
6.79321e-05
6.1331e-07
6.79291e-05
6.23183e-07
6.79212e-05
6.39376e-07
6.79077e-05
6.63668e-07
6.7888e-05
6.98189e-07
6.78613e-05
7.45483e-07
6.78274e-05
8.08572e-07
6.77862e-05
8.90958e-07
6.77383e-05
9.96877e-07
6.76851e-05
1.13023e-06
6.76305e-05
1.2979e-06
1.49683e-06
6.75765e-05
6.94123e-05
1.20501e-07
6.94528e-05
2.87394e-07
6.9489e-05
3.83864e-07
6.95227e-05
4.53474e-07
6.95533e-05
5.03675e-07
6.95811e-05
5.37969e-07
6.96071e-05
5.62401e-07
6.96316e-05
5.79984e-07
6.96552e-05
5.92166e-07
6.96779e-05
6.00173e-07
6.96999e-05
6.04932e-07
6.97212e-05
6.07115e-07
6.97419e-05
6.07286e-07
6.97618e-05
6.05957e-07
6.97808e-05
6.03619e-07
6.97987e-05
6.00771e-07
6.98154e-05
5.97948e-07
6.98304e-05
5.95743e-07
6.98436e-05
5.94829e-07
6.98544e-05
5.95987e-07
6.98626e-05
6.00125e-07
6.98675e-05
6.08314e-07
6.98689e-05
6.21815e-07
6.98662e-05
6.42109e-07
6.98589e-05
6.70939e-07
6.98467e-05
7.10353e-07
6.98295e-05
7.62731e-07
6.98072e-05
8.3083e-07
6.97805e-05
9.17716e-07
6.97504e-05
1.02697e-06
6.97189e-05
1.16173e-06
6.96897e-05
1.32709e-06
1.52121e-06
6.96653e-05
7.13855e-05
1.013e-07
7.14172e-05
2.55737e-07
7.14481e-05
3.52973e-07
7.14787e-05
4.22876e-07
7.15083e-05
4.74075e-07
7.15363e-05
5.09936e-07
7.1563e-05
5.35667e-07
7.15887e-05
5.54322e-07
7.16134e-05
5.67436e-07
7.16374e-05
5.76244e-07
7.16606e-05
5.81715e-07
7.16831e-05
5.84577e-07
7.1705e-05
5.8544e-07
7.17261e-05
5.84864e-07
7.17463e-05
5.83382e-07
7.17655e-05
5.81537e-07
7.17836e-05
5.79905e-07
7.18002e-05
5.79115e-07
7.18152e-05
5.79878e-07
7.18281e-05
5.82998e-07
7.18389e-05
5.89403e-07
7.1847e-05
6.00164e-07
7.18523e-05
6.16525e-07
7.18545e-05
6.39941e-07
7.18533e-05
6.72069e-07
7.18489e-05
7.14805e-07
7.18413e-05
7.70296e-07
7.18312e-05
8.40955e-07
7.18195e-05
9.29375e-07
7.18081e-05
1.03843e-06
7.17992e-05
1.1706e-06
7.17968e-05
1.32949e-06
1.51378e-06
7.18042e-05
7.342e-05
8.65531e-08
7.34481e-05
2.27699e-07
7.34778e-05
3.23261e-07
7.35077e-05
3.92918e-07
7.35369e-05
4.44946e-07
7.35644e-05
4.82365e-07
7.35906e-05
5.09469e-07
7.36157e-05
5.29204e-07
7.364e-05
5.43201e-07
7.36635e-05
5.5273e-07
7.36864e-05
5.58812e-07
7.37087e-05
5.62235e-07
7.37305e-05
5.6366e-07
7.37517e-05
5.63687e-07
7.37722e-05
5.62891e-07
7.37919e-05
5.6185e-07
7.38106e-05
5.61169e-07
7.38282e-05
5.61506e-07
7.38445e-05
5.63587e-07
7.38593e-05
5.68229e-07
7.38723e-05
5.76356e-07
7.38835e-05
5.89023e-07
7.38926e-05
6.07431e-07
7.38996e-05
6.32939e-07
7.39046e-05
6.67078e-07
7.39078e-05
7.11556e-07
7.39099e-05
7.6825e-07
7.39116e-05
8.39197e-07
7.39145e-05
9.26502e-07
7.39205e-05
1.03238e-06
7.39325e-05
1.15863e-06
7.39543e-05
1.3077e-06
1.47832e-06
7.39898e-05
7.55136e-05
7.54308e-08
7.55368e-05
2.04471e-07
7.55628e-05
2.9727e-07
7.55897e-05
3.65993e-07
7.56168e-05
4.17924e-07
7.56432e-05
4.55962e-07
7.56689e-05
4.83745e-07
7.5694e-05
5.04074e-07
7.57186e-05
5.18619e-07
7.57427e-05
5.28645e-07
7.57663e-05
5.35186e-07
7.57895e-05
5.39055e-07
7.58122e-05
5.40943e-07
7.58344e-05
5.41474e-07
7.58561e-05
5.4125e-07
7.5877e-05
5.40869e-07
7.58973e-05
5.40954e-07
7.59166e-05
5.42173e-07
7.59349e-05
5.45257e-07
7.59521e-05
5.51012e-07
7.59681e-05
5.60345e-07
7.59829e-05
5.74268e-07
7.59964e-05
5.93903e-07
7.60089e-05
6.20481e-07
7.60206e-05
6.55375e-07
7.60321e-05
7.00075e-07
7.60442e-05
7.56164e-07
7.60581e-05
8.2529e-07
7.60755e-05
9.09077e-07
7.60987e-05
1.00912e-06
7.61308e-05
1.12661e-06
7.61754e-05
1.26304e-06
1.41694e-06
7.62368e-05
7.76683e-05
6.67002e-08
7.76883e-05
1.84447e-07
7.77124e-05
2.73213e-07
7.77382e-05
3.40179e-07
7.77647e-05
3.91444e-07
7.77909e-05
4.29724e-07
7.78166e-05
4.58034e-07
7.78418e-05
4.78903e-07
7.78665e-05
4.93961e-07
7.78907e-05
5.0445e-07
7.79144e-05
5.11398e-07
7.79379e-05
5.15641e-07
7.79609e-05
5.17892e-07
7.79836e-05
5.18799e-07
7.80059e-05
5.18982e-07
7.80277e-05
5.19053e-07
7.8049e-05
5.19646e-07
7.80697e-05
5.21428e-07
7.80899e-05
5.25119e-07
7.81094e-05
5.31503e-07
7.81283e-05
5.41441e-07
7.81467e-05
5.55874e-07
7.81647e-05
5.75821e-07
7.81828e-05
6.02384e-07
7.82015e-05
6.36754e-07
7.82214e-05
6.80182e-07
7.82436e-05
7.33945e-07
7.82696e-05
7.99306e-07
7.83012e-05
8.77435e-07
7.8341e-05
9.69374e-07
7.83918e-05
1.07575e-06
7.84576e-05
1.1973e-06
1.33229e-06
7.85422e-05
7.98853e-05
5.9683e-08
7.99025e-05
1.67285e-07
7.99241e-05
2.51576e-07
7.99479e-05
3.16436e-07
7.99726e-05
3.6668e-07
7.99976e-05
4.04751e-07
8.00225e-05
4.33172e-07
8.00472e-05
4.54215e-07
8.00717e-05
4.69469e-07
8.0096e-05
4.80153e-07
8.01201e-05
4.87283e-07
8.0144e-05
4.917e-07
8.01678e-05
4.94127e-07
8.01914e-05
4.9522e-07
8.02147e-05
4.95605e-07
8.02379e-05
4.95897e-07
8.02608e-05
4.96723e-07
8.02835e-05
4.98738e-07
8.0306e-05
5.02634e-07
8.03283e-05
5.09157e-07
8.03507e-05
5.19103e-07
8.03732e-05
5.33325e-07
8.03963e-05
5.52723e-07
8.04205e-05
5.78249e-07
8.04463e-05
6.10899e-07
8.04748e-05
6.51679e-07
8.05072e-05
7.01563e-07
8.0545e-05
7.61453e-07
8.05904e-05
8.321e-07
8.06457e-05
9.14062e-07
8.0714e-05
1.00748e-06
8.07988e-05
1.11248e-06
1.2271e-06
8.0904e-05
8.21662e-05
5.38904e-08
8.21812e-05
1.52351e-07
8.2201e-05
2.31787e-07
8.22234e-05
2.94032e-07
8.22473e-05
3.42772e-07
8.22718e-05
3.80184e-07
8.22966e-05
4.08398e-07
8.23214e-05
4.29414e-07
8.23462e-05
4.44728e-07
8.23708e-05
4.55503e-07
8.23954e-05
4.62723e-07
8.24198e-05
4.67218e-07
8.24443e-05
4.69706e-07
8.24686e-05
4.70843e-07
8.2493e-05
4.71253e-07
8.25174e-05
4.71543e-07
8.25418e-05
4.72324e-07
8.25663e-05
4.74228e-07
8.2591e-05
4.7791e-07
8.26161e-05
4.84057e-07
8.26418e-05
4.93391e-07
8.26685e-05
5.06665e-07
8.26965e-05
5.24658e-07
8.27266e-05
5.48166e-07
8.27595e-05
5.7798e-07
8.27963e-05
6.14864e-07
8.28384e-05
6.59506e-07
8.28874e-05
7.12473e-07
8.29453e-05
7.74149e-07
8.30147e-05
8.44688e-07
8.30984e-05
9.23833e-07
8.31996e-05
1.01124e-06
1.10482e-06
8.33219e-05
8.45127e-05
4.89878e-08
8.45258e-05
1.39236e-07
8.45438e-05
2.13738e-07
8.45648e-05
2.73119e-07
8.45874e-05
3.20108e-07
8.4611e-05
3.56579e-07
8.46351e-05
3.84319e-07
8.46594e-05
4.05069e-07
8.4684e-05
4.20215e-07
8.47086e-05
4.30867e-07
8.47333e-05
4.37971e-07
8.47582e-05
4.42337e-07
8.47833e-05
4.44677e-07
8.48085e-05
4.45636e-07
8.48339e-05
4.45825e-07
8.48596e-05
4.45834e-07
8.48857e-05
4.46251e-07
8.49122e-05
4.47668e-07
8.49395e-05
4.50693e-07
8.49676e-05
4.55948e-07
8.49969e-05
4.64069e-07
8.50278e-05
4.75704e-07
8.5061e-05
4.915e-07
8.50971e-05
5.12089e-07
8.5137e-05
5.38068e-07
8.51819e-05
5.69968e-07
8.52332e-05
6.08217e-07
8.52926e-05
6.5309e-07
8.53621e-05
7.04656e-07
8.5444e-05
7.62743e-07
8.5541e-05
8.26785e-07
8.56562e-05
8.96084e-07
9.68525e-07
8.57925e-05
8.69264e-05
4.47462e-08
8.69381e-05
1.27581e-07
8.69546e-05
1.97161e-07
8.69743e-05
2.53433e-07
8.69961e-05
2.98372e-07
8.70191e-05
3.3356e-07
8.70429e-05
3.60512e-07
8.70672e-05
3.8074e-07
8.70919e-05
3.9551e-07
8.71169e-05
4.05865e-07
8.71422e-05
4.127e-07
8.71677e-05
4.16793e-07
8.71936e-05
4.18831e-07
8.72198e-05
4.19441e-07
8.72464e-05
4.19208e-07
8.72735e-05
4.18697e-07
8.73013e-05
4.1846e-07
8.73299e-05
4.19047e-07
8.73596e-05
4.21007e-07
8.73907e-05
4.24889e-07
8.74235e-05
4.31241e-07
8.74586e-05
4.40599e-07
8.74966e-05
4.53477e-07
8.75384e-05
4.70349e-07
8.75848e-05
4.9163e-07
8.76372e-05
5.17641e-07
8.76968e-05
5.48579e-07
8.77654e-05
5.84476e-07
8.78449e-05
6.25147e-07
8.79375e-05
6.70168e-07
8.80455e-05
7.18756e-07
8.81716e-05
7.69987e-07
8.2181e-07
8.83183e-05
8.94093e-05
4.10033e-08
8.94198e-05
1.17106e-07
8.94351e-05
1.81865e-07
8.94536e-05
2.34893e-07
8.94744e-05
2.77595e-07
8.94966e-05
3.11281e-07
8.95199e-05
3.37228e-07
8.95439e-05
3.56736e-07
8.95685e-05
3.70948e-07
8.95935e-05
3.80828e-07
8.9619e-05
3.87215e-07
8.9645e-05
3.90849e-07
8.96714e-05
3.92388e-07
8.96984e-05
3.92429e-07
8.97261e-05
3.9153e-07
8.97546e-05
3.90223e-07
8.9784e-05
3.89018e-07
8.98146e-05
3.88413e-07
8.98468e-05
3.88895e-07
8.98807e-05
3.90936e-07
8.9917e-05
3.94991e-07
8.99561e-05
4.01485e-07
8.99987e-05
4.10805e-07
9.00458e-05
4.23276e-07
9.00983e-05
4.39146e-07
9.01574e-05
4.58556e-07
9.02245e-05
4.81507e-07
9.03011e-05
5.07832e-07
9.03891e-05
5.37154e-07
9.04904e-05
5.68871e-07
9.06071e-05
6.02062e-07
9.07414e-05
6.35662e-07
6.6775e-07
9.08955e-05
9.19632e-05
3.76437e-08
9.19727e-05
1.07584e-07
9.19869e-05
1.67661e-07
9.20045e-05
2.17352e-07
9.20244e-05
2.5764e-07
9.20461e-05
2.89595e-07
9.20691e-05
3.14295e-07
9.20929e-05
3.32857e-07
9.21176e-05
3.46302e-07
9.21429e-05
3.55515e-07
9.21688e-05
3.61275e-07
9.21954e-05
3.64274e-07
9.22227e-05
3.65133e-07
9.22507e-05
3.64414e-07
9.22796e-05
3.62637e-07
9.23095e-05
3.60292e-07
9.23407e-05
3.57842e-07
9.23734e-05
3.55729e-07
9.24079e-05
3.54373e-07
9.24447e-05
3.54167e-07
9.24842e-05
3.55474e-07
9.2527e-05
3.58615e-07
9.2574e-05
3.63854e-07
9.26259e-05
3.71385e-07
9.26837e-05
3.8131e-07
9.27487e-05
3.93616e-07
9.2822e-05
4.08151e-07
9.29053e-05
4.24599e-07
9.3e-05
4.42445e-07
9.31079e-05
4.60976e-07
9.32307e-05
4.79208e-07
9.33703e-05
4.96028e-07
5.0971e-07
9.35284e-05
9.45902e-05
3.45825e-08
9.4599e-05
9.88321e-08
9.46122e-05
1.54384e-07
9.46289e-05
2.00693e-07
9.46481e-05
2.38444e-07
9.46692e-05
2.68502e-07
9.46917e-05
2.91773e-07
9.47154e-05
3.09214e-07
9.47399e-05
3.21728e-07
9.47653e-05
3.30113e-07
9.47915e-05
3.35086e-07
9.48185e-05
3.37286e-07
9.48464e-05
3.37289e-07
9.48752e-05
3.35615e-07
9.4905e-05
3.32744e-07
9.49362e-05
3.2912e-07
9.49689e-05
3.25155e-07
9.50034e-05
3.21232e-07
9.50401e-05
3.17704e-07
9.50794e-05
3.14887e-07
9.51218e-05
3.13056e-07
9.5168e-05
3.12433e-07
9.52186e-05
3.13176e-07
9.52747e-05
3.15361e-07
9.5337e-05
3.18972e-07
9.54067e-05
3.23873e-07
9.54851e-05
3.29795e-07
9.55734e-05
3.36317e-07
9.5673e-05
3.42842e-07
9.57854e-05
3.48599e-07
9.5912e-05
3.52599e-07
9.60542e-05
3.53739e-07
3.50514e-07
9.62134e-05
9.72923e-05
3.17565e-08
9.73005e-05
9.07048e-08
9.7313e-05
1.4189e-07
9.73289e-05
1.84802e-07
9.73474e-05
2.19916e-07
9.7368e-05
2.47927e-07
9.73901e-05
2.69594e-07
9.74136e-05
2.85735e-07
9.74382e-05
2.9714e-07
9.74638e-05
3.04527e-07
9.74903e-05
3.08544e-07
9.75178e-05
3.09776e-07
9.75464e-05
3.0875e-07
9.75761e-05
3.05941e-07
9.7607e-05
3.01782e-07
9.76395e-05
2.96668e-07
9.76737e-05
2.90957e-07
9.77099e-05
2.84974e-07
9.77486e-05
2.79003e-07
9.77902e-05
2.73288e-07
9.78353e-05
2.68022e-07
9.78844e-05
2.63339e-07
9.79382e-05
2.59304e-07
9.79977e-05
2.55898e-07
9.80637e-05
2.53008e-07
9.81371e-05
2.50409e-07
9.82192e-05
2.4775e-07
9.83109e-05
2.44549e-07
9.84136e-05
2.40172e-07
9.85284e-05
2.33839e-07
9.86564e-05
2.24604e-07
9.87987e-05
2.11432e-07
1.93066e-07
9.89561e-05
0.000100072
2.91171e-08
0.000100079
8.30837e-08
0.000100091
1.30053e-07
0.000100106
1.69574e-07
0.000100124
2.0198e-07
0.000100144
2.27828e-07
0.000100166
2.47753e-07
0.00010019
2.62449e-07
0.000100214
2.72604e-07
0.00010024
2.78852e-07
0.000100267
2.81776e-07
0.000100294
2.819e-07
0.000100323
2.797e-07
0.000100354
2.75601e-07
0.000100386
2.69988e-07
0.000100419
2.63204e-07
0.000100454
2.55555e-07
0.000100492
2.47305e-07
0.000100532
2.38678e-07
0.000100576
2.29849e-07
0.000100623
2.20938e-07
0.000100674
2.12004e-07
0.000100731
2.03035e-07
0.000100793
1.93937e-07
0.000100861
1.84526e-07
0.000100937
1.74515e-07
0.000101021
1.63509e-07
0.000101115
1.50995e-07
0.000101219
1.3634e-07
0.000101334
1.18799e-07
0.000101461
9.75037e-08
0.000101601
7.15112e-08
3.9806e-08
0.000101754
0.000102931
2.66263e-08
0.000102938
7.58727e-08
0.000102949
1.18763e-07
0.000102964
1.54914e-07
0.000102981
1.84563e-07
0.000103001
2.08154e-07
0.000103022
2.26217e-07
0.000103045
2.39338e-07
0.00010307
2.48108e-07
0.000103096
2.53085e-07
0.000103123
2.54783e-07
0.000103151
2.53667e-07
0.00010318
2.50159e-07
0.000103211
2.44634e-07
0.000103244
2.37426e-07
0.000103278
2.28827e-07
0.000103315
2.19092e-07
0.000103354
2.08428e-07
0.000103395
1.97001e-07
0.00010344
1.84925e-07
0.000103489
1.72258e-07
0.000103542
1.58998e-07
0.0001036
1.45071e-07
0.000103664
1.3033e-07
0.000103734
1.14543e-07
0.000103811
9.73883e-08
0.000103896
7.84527e-08
0.00010399
5.72275e-08
0.000104093
3.31125e-08
0.000104206
5.42774e-09
0.00010433
-2.66086e-08
0.000104466
-6.38001e-08
-1.06936e-07
0.000104612
0.000105871
2.42538e-08
0.000105878
6.89925e-08
0.000105889
1.07926e-07
0.000105903
1.40736e-07
0.00010592
1.67596e-07
0.000105939
1.8886e-07
0.000105961
2.04967e-07
0.000105983
2.16408e-07
0.000106008
2.23689e-07
0.000106034
2.27291e-07
0.000106061
2.27661e-07
0.000106089
2.25205e-07
0.000106119
2.20291e-07
0.00010615
2.13242e-07
0.000106184
2.04342e-07
0.000106219
1.93835e-07
0.000106256
1.81922e-07
0.000106295
1.68762e-07
0.000106338
1.54468e-07
0.000106384
1.39101e-07
0.000106433
1.2267e-07
0.000106487
1.05123e-07
0.000106546
8.63427e-08
0.00010661
6.61462e-08
0.00010668
4.42751e-08
0.000106757
2.03975e-08
0.000106842
-5.89468e-09
0.000106934
-3.50792e-08
0.000107035
-6.77036e-08
0.000107145
-1.0437e-07
0.000107264
-1.45734e-07
0.000107392
-1.92484e-07
-2.45192e-07
0.000107531
0.000108896
2.19749e-08
0.000108902
6.23778e-08
0.000108913
9.74618e-08
0.000108927
1.26966e-07
0.000108943
1.5102e-07
0.000108962
1.69908e-07
0.000108983
1.83988e-07
0.000109006
1.93671e-07
0.00010903
1.99379e-07
0.000109056
2.01523e-07
0.000109083
2.00486e-07
0.000109112
1.96617e-07
0.000109142
1.90226e-07
0.000109173
1.81588e-07
0.000109207
1.70939e-07
0.000109242
1.58473e-07
0.00010928
1.44346e-07
0.00010932
1.28673e-07
0.000109363
1.11519e-07
0.000109409
9.29033e-08
0.000109459
7.27962e-08
0.000109513
5.11089e-08
0.000109571
2.76981e-08
0.000109635
2.36039e-09
0.000109705
-2.51686e-08
0.00010978
-5.52124e-08
0.000109863
-8.81513e-08
0.000109952
-1.24418e-07
0.000110049
-1.64491e-07
0.000110153
-2.08882e-07
0.000110266
-2.58123e-07
0.000110386
-3.12773e-07
-3.73204e-07
0.000110514
0.000112007
1.97689e-08
0.000112013
5.59731e-08
0.000112023
8.72982e-08
0.000112037
1.13533e-07
0.000112053
1.34779e-07
0.000112072
1.51258e-07
0.000112092
1.63263e-07
0.000112115
1.71129e-07
0.000112139
1.75206e-07
0.000112165
1.75838e-07
0.000112192
1.73345e-07
0.00011222
1.6802e-07
0.000112251
1.6012e-07
0.000112282
1.49872e-07
0.000112316
1.37466e-07
0.000112351
1.23051e-07
0.000112389
1.06741e-07
0.000112429
8.86127e-08
0.000112472
6.86885e-08
0.000112518
4.69587e-08
0.000112567
2.33668e-08
0.00011262
-2.20412e-09
0.000112678
-2.99098e-08
0.00011274
-5.99552e-08
0.000112808
-9.25962e-08
0.000112881
-1.28132e-07
0.000112959
-1.66904e-07
0.000113044
-2.09286e-07
0.000113135
-2.55678e-07
0.000113233
-3.06496e-07
0.000113337
-3.62152e-07
0.000113447
-4.23077e-07
-4.89466e-07
0.000113564
0.000115207
1.76186e-08
0.000115213
4.97319e-08
0.000115223
7.73756e-08
0.000115236
1.00382e-07
0.000115252
1.18829e-07
0.00011527
1.32892e-07
0.000115291
1.42801e-07
0.000115313
1.48825e-07
0.000115337
1.51248e-07
0.000115362
1.50347e-07
0.000115389
1.46388e-07
0.000115418
1.39606e-07
0.000115448
1.30207e-07
0.000115479
1.18374e-07
0.000115512
1.04256e-07
0.000115548
8.79528e-08
0.000115585
6.9551e-08
0.000115624
4.90931e-08
0.000115666
2.65653e-08
0.000115711
1.93628e-09
0.00011576
-2.48626e-08
0.000115811
-5.39681e-08
0.000115867
-8.55335e-08
0.000115927
-1.19757e-07
0.000115991
-1.56871e-07
0.00011606
-1.97141e-07
0.000116134
-2.40858e-07
0.000116213
-2.88332e-07
0.000116297
-3.39881e-07
0.000116387
-3.95825e-07
0.000116481
-4.56463e-07
0.00011658
-5.2211e-07
-5.92815e-07
0.000116683
0.000118498
1.55079e-08
0.000118504
4.36103e-08
0.000118514
6.76338e-08
0.000118527
8.74477e-08
0.000118542
1.03112e-07
0.000118561
1.14759e-07
0.000118581
1.22567e-07
0.000118603
1.26743e-07
0.000118627
1.27507e-07
0.000118652
1.25079e-07
0.000118679
1.1967e-07
0.000118707
1.11465e-07
0.000118736
1.00617e-07
0.000118768
8.727e-08
0.0001188
7.15384e-08
0.000118835
5.34743e-08
0.000118871
3.31378e-08
0.00011891
1.05621e-08
0.000118951
-1.43348e-08
0.000118994
-4.15538e-08
0.00011904
-7.1198e-08
0.00011909
-1.03393e-07
0.000119143
-1.3829e-07
0.000119199
-1.76067e-07
0.000119259
-2.16929e-07
0.000119323
-2.61099e-07
0.000119391
-3.08812e-07
0.000119463
-3.6031e-07
0.000119539
-4.15831e-07
0.000119619
-4.75604e-07
0.000119702
-5.39822e-07
0.000119788
-6.08688e-07
-6.82134e-07
0.000119878
0.000121883
1.34244e-08
0.000121889
3.75741e-08
0.000121899
5.80311e-08
0.000121912
7.46975e-08
0.000121927
8.76164e-08
0.000121945
9.68829e-08
0.000121965
1.02624e-07
0.000121987
1.04988e-07
0.00012201
1.04137e-07
0.000122035
1.00234e-07
0.000122061
9.34426e-08
0.000122089
8.38991e-08
0.000122118
7.17007e-08
0.000122148
5.69623e-08
0.00012218
3.97705e-08
0.000122213
2.01182e-08
0.000122248
-1.92727e-09
0.000122285
-2.63755e-08
0.000122324
-5.32978e-08
0.000122365
-8.27375e-08
0.000122409
-1.14787e-07
0.000122455
-1.49563e-07
0.000122504
-1.87199e-07
0.000122556
-2.27852e-07
0.000122611
-2.7169e-07
0.000122668
-3.18889e-07
0.000122729
-3.69631e-07
0.000122793
-4.24089e-07
0.00012286
-4.82428e-07
0.000122929
-5.4479e-07
0.000123
-6.11283e-07
0.000123074
-6.82022e-07
-7.56846e-07
0.000123148
0.000125366
1.13493e-08
0.000125372
3.15721e-08
0.000125381
4.84896e-08
0.000125394
6.20345e-08
0.000125409
7.22344e-08
0.000125427
7.91488e-08
0.000125447
8.28592e-08
0.000125468
8.3459e-08
0.000125491
8.10495e-08
0.000125516
7.57444e-08
0.000125541
6.76686e-08
0.000125568
5.69093e-08
0.000125597
4.35038e-08
0.000125626
2.75392e-08
0.000125657
9.15004e-09
0.000125689
-1.18788e-08
0.000125722
-3.53475e-08
0.000125757
-6.13399e-08
0.000125794
-8.99081e-08
0.000125832
-1.21117e-07
0.000125872
-1.55053e-07
0.000125915
-1.91819e-07
0.000125959
-2.3153e-07
0.000126005
-2.74313e-07
0.000126054
-3.20297e-07
0.000126105
-3.69615e-07
0.000126158
-4.2239e-07
0.000126212
-4.78734e-07
0.000126268
-5.38741e-07
0.000126326
-6.0248e-07
0.000126385
-6.69977e-07
0.000126444
-7.41263e-07
-8.16103e-07
0.000126503
0.000128947
9.27937e-09
0.000128953
2.55917e-08
0.000128963
3.90086e-08
0.000128975
4.94911e-08
0.00012899
5.70458e-08
0.000129008
6.16925e-08
0.000129027
6.34688e-08
0.000129048
6.24106e-08
0.000129071
5.8551e-08
0.000129095
5.19649e-08
0.000129119
4.27533e-08
0.000129145
3.09503e-08
0.000129172
1.65173e-08
0.0001292
-4.61272e-10
0.000129229
-1.98639e-08
0.000129259
-4.18785e-08
0.00012929
-6.64322e-08
0.000129323
-9.35748e-08
0.000129356
-1.23359e-07
0.000129391
-1.55846e-07
0.000129427
-1.91113e-07
0.000129464
-2.29247e-07
0.000129503
-2.70341e-07
0.000129543
-3.1449e-07
0.000129585
-3.61787e-07
0.000129628
-4.12319e-07
0.000129671
-4.6616e-07
0.000129716
-5.23366e-07
0.000129761
-5.83972e-07
0.000129807
-6.47985e-07
0.000129852
-7.15372e-07
0.000129897
-7.8611e-07
-8.59917e-07
0.000129941
0.000132631
7.16673e-09
0.000132637
1.95127e-08
0.000132647
2.93949e-08
0.00013266
3.68108e-08
0.000132675
4.17462e-08
0.000132692
4.41821e-08
0.000132712
4.41132e-08
0.000132733
4.15163e-08
0.000132755
3.63292e-08
0.000132778
2.86239e-08
0.000132802
1.84596e-08
0.000132827
5.92341e-09
0.000132853
-9.36061e-09
0.00013288
-2.7031e-08
0.000132907
-4.71706e-08
0.000132935
-6.98485e-08
0.000132964
-9.50816e-08
0.000132993
-1.22914e-07
0.000133023
-1.53401e-07
0.000133054
-1.866e-07
0.000133085
-2.22576e-07
0.000133118
-2.61396e-07
0.00013315
-3.0313e-07
0.000133184
-3.47841e-07
0.000133218
-3.95586e-07
0.000133252
-4.46412e-07
0.000133286
-5.00346e-07
0.00013332
-5.57396e-07
0.000133353
-6.17544e-07
0.000133386
-6.80743e-07
0.000133418
-7.46907e-07
0.000133448
-8.15954e-07
-8.87563e-07
0.000133475
0.00013642
5.06224e-09
0.000136426
1.34261e-08
0.000136436
1.98201e-08
0.000136449
2.42662e-08
0.000136464
2.67002e-08
0.000136481
2.70498e-08
0.0001365
2.5265e-08
0.00013652
2.13401e-08
0.000136541
1.4959e-08
0.000136564
6.24103e-09
0.000136587
-4.60228e-09
0.00013661
-1.77997e-08
0.000136634
-3.34663e-08
0.000136659
-5.15239e-08
0.000136684
-7.20108e-08
0.000136709
-9.49801e-08
0.000136734
-1.20469e-07
0.00013676
-1.48524e-07
0.000136786
-1.79193e-07
0.000136812
-2.12527e-07
0.000136838
-2.48579e-07
0.000136864
-2.87397e-07
0.00013689
-3.29026e-07
0.000136915
-3.73505e-07
0.00013694
-4.20858e-07
0.000136965
-4.71096e-07
0.000136989
-5.24211e-07
0.000137012
-5.80171e-07
0.000137033
-6.38921e-07
0.000137053
-7.0038e-07
0.00013707
-7.64426e-07
0.000137085
-8.30958e-07
-8.99641e-07
0.000137097
0.000140318
2.75453e-09
0.000140325
6.90043e-09
0.000140335
9.63814e-09
0.000140348
1.10609e-08
0.000140364
1.10311e-08
0.000140381
9.43066e-09
0.0001404
6.12096e-09
0.00014042
1.29094e-09
0.000140442
-6.27242e-09
0.000140463
-1.55206e-08
0.000140486
-2.68715e-08
0.000140508
-4.04045e-08
0.000140531
-5.62104e-08
0.000140554
-7.42978e-08
0.000140577
-9.47094e-08
0.000140599
-1.17506e-07
0.000140621
-1.42741e-07
0.000140643
-1.70466e-07
0.000140665
-2.00726e-07
0.000140686
-2.33561e-07
0.000140706
-2.69008e-07
0.000140726
-3.07099e-07
0.000140745
-3.47857e-07
0.000140763
-3.91293e-07
0.000140779
-4.37407e-07
0.000140794
-4.86178e-07
0.000140808
-5.37566e-07
0.000140819
-5.91508e-07
0.000140828
-6.47915e-07
0.000140834
-7.06675e-07
0.000140837
-7.67635e-07
0.000140837
-8.30655e-07
-8.95392e-07
0.000140833
0.000144327
6.18202e-10
0.000144333
4.9003e-10
0.000144343
-3.57898e-10
0.000144356
-1.8011e-09
0.000144371
-4.16847e-09
0.000144388
-7.62085e-09
0.000144407
-1.23425e-08
0.000144426
-1.84632e-08
0.000144447
-2.63907e-08
0.000144467
-3.60547e-08
0.000144488
-4.7581e-08
0.000144509
-6.10926e-08
0.000144529
-7.66867e-08
0.000144549
-9.44137e-08
0.000144569
-1.14334e-07
0.000144588
-1.36516e-07
0.000144606
-1.61021e-07
0.000144623
-1.87893e-07
0.00014464
-2.17166e-07
0.000144655
-2.48871e-07
0.000144669
-2.83037e-07
0.000144682
-3.1968e-07
0.000144693
-3.5881e-07
0.000144702
-4.0042e-07
0.000144709
-4.44488e-07
0.000144714
-4.90972e-07
0.000144716
-5.39814e-07
0.000144715
-5.9093e-07
0.000144712
-6.44216e-07
0.000144705
-6.99546e-07
0.000144694
-7.56763e-07
0.000144679
-8.15731e-07
-8.76119e-07
0.00014466
0.000148451
-2.39708e-09
0.000148459
-7.3714e-09
0.000148471
-1.20466e-08
0.000148485
-1.63954e-08
0.000148502
-2.08679e-08
0.00014852
-2.58024e-08
0.000148539
-3.15043e-08
0.000148559
-3.82907e-08
0.000148579
-4.64594e-08
0.000148599
-5.61351e-08
0.000148619
-6.74585e-08
0.000148638
-8.05703e-08
0.000148657
-9.55735e-08
0.000148675
-1.12535e-07
0.000148693
-1.31511e-07
0.000148709
-1.52568e-07
0.000148723
-1.75776e-07
0.000148737
-2.01188e-07
0.000148748
-2.2884e-07
0.000148758
-2.58757e-07
0.000148766
-2.90957e-07
0.000148772
-3.25443e-07
0.000148775
-3.62207e-07
0.000148776
-4.01226e-07
0.000148774
-4.42462e-07
0.000148769
-4.85856e-07
0.000148761
-5.31331e-07
0.000148748
-5.7879e-07
0.000148732
-6.28114e-07
0.000148712
-6.79161e-07
0.000148687
-7.31763e-07
0.000148657
-7.85758e-07
-8.40829e-07
0.000148622
0.000152691
-4.55716e-09
0.000152698
-1.44676e-08
0.000152709
-2.3045e-08
0.000152723
-3.04209e-08
0.00015274
-3.71328e-08
0.000152757
-4.35991e-08
0.000152776
-5.02467e-08
0.000152795
-5.74978e-08
0.000152815
-6.56937e-08
0.000152834
-7.5068e-08
0.000152852
-8.58111e-08
0.000152869
-9.80858e-08
0.000152886
-1.12016e-07
0.000152901
-1.27695e-07
0.000152915
-1.45205e-07
0.000152927
-1.64626e-07
0.000152937
-1.8602e-07
0.000152945
-2.0942e-07
0.000152951
-2.3485e-07
0.000152955
-2.62333e-07
0.000152956
-2.91879e-07
0.000152954
-3.23488e-07
0.000152949
-3.57144e-07
0.00015294
-3.92819e-07
0.000152928
-4.30469e-07
0.000152913
-4.7003e-07
0.000152893
-5.11424e-07
0.000152868
-5.54552e-07
0.00015284
-5.99299e-07
0.000152806
-6.45534e-07
0.000152767
-6.93102e-07
0.000152723
-7.41873e-07
-7.91557e-07
0.000152674
0.000157057
-9.77535e-09
0.000157068
-2.59536e-08
0.000157083
-3.83023e-08
0.000157101
-4.78666e-08
0.00015712
-5.59127e-08
0.000157139
-6.30632e-08
0.000157159
-6.99134e-08
0.000157178
-7.70068e-08
0.000157197
-8.47293e-08
0.000157216
-9.33571e-08
0.000157233
-1.0311e-07
0.000157249
-1.1416e-07
0.000157264
-1.26645e-07
0.000157277
-1.40668e-07
0.000157288
-1.56319e-07
0.000157297
-1.7367e-07
0.000157303
-1.9276e-07
0.000157308
-2.13614e-07
0.000157309
-2.36254e-07
0.000157307
-2.60699e-07
0.000157303
-2.86959e-07
0.000157294
-3.15031e-07
0.000157282
-3.44898e-07
0.000157266
-3.76528e-07
0.000157245
-4.09874e-07
0.00015722
-4.44868e-07
0.00015719
-4.81431e-07
0.000157155
-5.19461e-07
0.000157114
-5.58844e-07
0.000157068
-5.99444e-07
0.000157016
-6.4111e-07
0.000156958
-6.83691e-07
-7.26929e-07
0.000156893
0.00016154
-1.18399e-08
0.00016155
-3.55837e-08
0.000161565
-5.2765e-08
0.000161582
-6.55373e-08
0.000161602
-7.54573e-08
0.000161622
-8.33878e-08
0.000161643
-9.02932e-08
0.000161662
-9.69344e-08
0.000161682
-1.03795e-07
0.000161699
-1.11227e-07
0.000161716
-1.19495e-07
0.00016173
-1.28796e-07
0.000161743
-1.39274e-07
0.000161753
-1.51037e-07
0.000161761
-1.64163e-07
0.000161766
-1.78715e-07
0.000161768
-1.94753e-07
0.000161767
-2.12317e-07
0.000161762
-2.31433e-07
0.000161754
-2.5212e-07
0.000161741
-2.74381e-07
0.000161724
-2.98209e-07
0.000161703
-3.23585e-07
0.000161677
-3.50477e-07
0.000161646
-3.78839e-07
0.00016161
-4.08615e-07
0.000161568
-4.39733e-07
0.00016152
-4.72108e-07
0.000161467
-5.05646e-07
0.000161408
-5.4024e-07
0.000161343
-5.75768e-07
0.000161271
-6.12131e-07
-6.49098e-07
0.000161193
0.000166166
-2.41759e-08
0.000166185
-5.4873e-08
0.000166206
-7.37636e-08
0.000166228
-8.70243e-08
0.000166249
-9.69918e-08
0.00016627
-1.04453e-07
0.000166291
-1.10611e-07
0.00016631
-1.16286e-07
0.000166328
-1.21933e-07
0.000166345
-1.27894e-07
0.00016636
-1.34428e-07
0.000166373
-1.41722e-07
0.000166383
-1.49911e-07
0.000166391
-1.591e-07
0.000166397
-1.69372e-07
0.000166399
-1.80791e-07
0.000166397
-1.93408e-07
0.000166392
-2.07253e-07
0.000166383
-2.22349e-07
0.00016637
-2.38708e-07
0.000166352
-2.56335e-07
0.000166329
-2.75225e-07
0.0001663
-2.95361e-07
0.000166267
-3.16717e-07
0.000166227
-3.39257e-07
0.000166181
-3.62932e-07
0.000166129
-3.8768e-07
0.000166071
-4.13431e-07
0.000166005
-4.401e-07