/*--------------------------------*- C++ -*----------------------------------*\
  =========                 |
  \\      /  F ield         | OpenFOAM: The Open Source CFD Toolbox
   \\    /   O peration     | Website:  https://openfoam.org
    \\  /    A nd           | Version:  10
     \\/     M anipulation  |
\*---------------------------------------------------------------------------*/
FoamFile
{
    format      ascii;
    class       volVectorField;
    location    "0.035";
    object      U;
}
// * * * * * * * * * * * * * * * * * * * * * * * * * * * * * * * * * * * * * //

dimensions      [0 1 -1 0 0 0 0];

internalField   nonuniform List<vector> 
6820
(
(7.28182 0.0247832 0)
(7.17851 0.0399255 0)
(7.05637 0.0447798 0)
(6.92862 0.047327 0)
(6.80175 0.0482816 0)
(6.67629 0.0482979 0)
(6.55282 0.0478132 0)
(6.43196 0.0470134 0)
(6.31396 0.046009 0)
(6.19897 0.0448722 0)
(6.08709 0.0436468 0)
(5.97843 0.0423608 0)
(5.87305 0.0410334 0)
(5.77099 0.0396787 0)
(5.6723 0.0383075 0)
(5.57698 0.0369294 0)
(5.48505 0.0355541 0)
(5.39648 0.0341927 0)
(5.31121 0.0328585 0)
(5.22914 0.0315689 0)
(5.15013 0.0303465 0)
(5.07397 0.0292214 0)
(5.00036 0.0282333 0)
(4.92891 0.0274351 0)
(4.85908 0.0268967 0)
(4.79016 0.0267109 0)
(4.72124 0.0270007 0)
(4.65109 0.0279331 0)
(4.57818 0.0297063 0)
(4.5004 0.0327019 0)
(4.41513 0.0369008 0)
(4.31976 0.0441774 0)
(4.20481 0.0508064 0)
(7.3592 0.0258461 0)
(7.42093 0.0356664 0)
(7.47601 0.0374011 0)
(7.52628 0.0393485 0)
(7.57231 0.0406739 0)
(7.61298 0.0416917 0)
(7.64827 0.0426663 0)
(7.6786 0.0435919 0)
(7.70431 0.0444534 0)
(7.72573 0.0452459 0)
(7.74317 0.045959 0)
(7.75697 0.0465827 0)
(7.76743 0.0471102 0)
(7.77481 0.0475374 0)
(7.7794 0.0478634 0)
(7.78142 0.0480911 0)
(7.78111 0.0482278 0)
(7.77866 0.0482865 0)
(7.77425 0.0482871 0)
(7.76805 0.0482582 0)
(7.76016 0.0482396 0)
(7.75067 0.0482857 0)
(7.73964 0.0484692 0)
(7.72705 0.048887 0)
(7.71283 0.0496676 0)
(7.69686 0.0509799 0)
(7.67889 0.0530513 0)
(7.65857 0.0561733 0)
(7.63545 0.0607562 0)
(7.60865 0.0673226 0)
(7.57786 0.0765053 0)
(7.5395 0.0899275 0)
(7.49903 0.105918 0)
(7.33542 0.00691775 0)
(7.3457 0.0101031 0)
(7.35486 0.0126415 0)
(7.36287 0.0159955 0)
(7.37157 0.0187765 0)
(7.38085 0.0211414 0)
(7.3906 0.0233051 0)
(7.40097 0.0252634 0)
(7.4119 0.0270228 0)
(7.42333 0.0286077 0)
(7.43514 0.0300343 0)
(7.44723 0.0313145 0)
(7.45951 0.0324593 0)
(7.47185 0.033479 0)
(7.48414 0.0343848 0)
(7.49626 0.0351892 0)
(7.50812 0.035908 0)
(7.5196 0.0365615 0)
(7.5306 0.0371767 0)
(7.54101 0.0377894 0)
(7.55074 0.0384473 0)
(7.5597 0.0392134 0)
(7.5678 0.0401712 0)
(7.57495 0.0414301 0)
(7.58109 0.0431343 0)
(7.58615 0.0454717 0)
(7.5901 0.0486936 0)
(7.59292 0.0531178 0)
(7.59464 0.0592047 0)
(7.59543 0.0674577 0)
(7.59534 0.078836 0)
(7.5955 0.0940225 0)
(7.59505 0.114981 0)
(7.33494 0.00925002 0)
(7.34257 0.0199601 0)
(7.34831 0.025316 0)
(7.35197 0.0288678 0)
(7.35527 0.0311148 0)
(7.35827 0.0325698 0)
(7.36092 0.0336392 0)
(7.36342 0.034457 0)
(7.36586 0.0350934 0)
(7.36828 0.0356045 0)
(7.37071 0.0360239 0)
(7.37318 0.036372 0)
(7.37569 0.0366641 0)
(7.37825 0.0369134 0)
(7.38085 0.0371325 0)
(7.38346 0.0373354 0)
(7.38605 0.0375389 0)
(7.38859 0.0377649 0)
(7.39101 0.0380414 0)
(7.39327 0.0384053 0)
(7.39529 0.0389047 0)
(7.39699 0.0396021 0)
(7.3983 0.0405784 0)
(7.39911 0.0419384 0)
(7.39933 0.0438167 0)
(7.39887 0.0463859 0)
(7.39764 0.0498681 0)
(7.39557 0.0545458 0)
(7.3926 0.060779 0)
(7.38881 0.0690422 0)
(7.38422 0.0798345 0)
(7.37959 0.0941524 0)
(7.37449 0.11168 0)
(7.334 0.00633184 0)
(7.33882 0.012528 0)
(7.34362 0.0152086 0)
(7.34748 0.01761 0)
(7.35114 0.0197166 0)
(7.35457 0.0214912 0)
(7.35765 0.0231028 0)
(7.36048 0.0245818 0)
(7.36314 0.0259245 0)
(7.36565 0.0271427 0)
(7.36803 0.0282463 0)
(7.37029 0.0292432 0)
(7.37245 0.0301431 0)
(7.3745 0.030958 0)
(7.37644 0.0317022 0)
(7.37824 0.0323935 0)
(7.3799 0.0330546 0)
(7.38138 0.033714 0)
(7.38264 0.0344079 0)
(7.38365 0.0351826 0)
(7.38436 0.0360963 0)
(7.3847 0.0372232 0)
(7.38463 0.0386566 0)
(7.38405 0.0405141 0)
(7.38291 0.0429438 0)
(7.38113 0.0461311 0)
(7.37862 0.0503088 0)
(7.37535 0.0557649 0)
(7.37127 0.0628549 0)
(7.36642 0.0720198 0)
(7.36085 0.0837302 0)
(7.35498 0.0987415 0)
(7.3488 0.116988 0)
(7.33375 0.00528521 0)
(7.33782 0.0128919 0)
(7.34233 0.0179541 0)
(7.34599 0.0219835 0)
(7.34931 0.0250417 0)
(7.35241 0.0272812 0)
(7.35524 0.0290093 0)
(7.35789 0.0303817 0)
(7.36042 0.0314799 0)
(7.36286 0.0323719 0)
(7.36522 0.0331078 0)
(7.36751 0.0337227 0)
(7.36973 0.0342451 0)
(7.37188 0.0347003 0)
(7.37394 0.0351123 0)
(7.3759 0.0355067 0)
(7.37773 0.0359121 0)
(7.37942 0.036362 0)
(7.38091 0.0368975 0)
(7.38219 0.0375689 0)
(7.38321 0.0384387 0)
(7.38392 0.0395846 0)
(7.38427 0.0411034 0)
(7.38421 0.043115 0)
(7.3837 0.0457669 0)
(7.38268 0.0492401 0)
(7.38113 0.0537554 0)
(7.37905 0.0595815 0)
(7.37644 0.0670356 0)
(7.37342 0.0765063 0)
(7.37009 0.088378 0)
(7.36683 0.103251 0)
(7.36382 0.12112 0)
(7.33347 0.00437424 0)
(7.33629 0.0108258 0)
(7.33984 0.0147221 0)
(7.34302 0.017529 0)
(7.34606 0.0196957 0)
(7.34904 0.0213895 0)
(7.35186 0.0228189 0)
(7.35454 0.0240771 0)
(7.35713 0.0251942 0)
(7.35963 0.0261959 0)
(7.36205 0.0271026 0)
(7.3644 0.0279285 0)
(7.36668 0.0286878 0)
(7.36889 0.029396 0)
(7.37101 0.0300715 0)
(7.37304 0.0307365 0)
(7.37497 0.0314182 0)
(7.37675 0.032151 0)
(7.37838 0.0329771 0)
(7.37983 0.0339494 0)
(7.38105 0.035133 0)
(7.38203 0.0366082 0)
(7.38273 0.038473 0)
(7.38312 0.0408464 0)
(7.38318 0.0438755 0)
(7.3829 0.0477384 0)
(7.38228 0.0526465 0)
(7.38135 0.0588502 0)
(7.38021 0.0666363 0)
(7.37898 0.0763418 0)
(7.37785 0.0882981 0)
(7.37721 0.102973 0)
(7.37729 0.120415 0)
(7.33332 0.00369573 0)
(7.33555 0.00977683 0)
(7.33872 0.0141583 0)
(7.34177 0.017702 0)
(7.3447 0.0206294 0)
(7.34754 0.0229729 0)
(7.35023 0.0248765 0)
(7.35278 0.0264482 0)
(7.35524 0.0277503 0)
(7.35762 0.0288365 0)
(7.35994 0.0297522 0)
(7.3622 0.0305336 0)
(7.3644 0.0312121 0)
(7.36655 0.0318174 0)
(7.36864 0.0323793 0)
(7.37065 0.0329293 0)
(7.37257 0.0335025 0)
(7.37439 0.0341394 0)
(7.37609 0.0348876 0)
(7.37765 0.0358038 0)
(7.37904 0.0369563 0)
(7.38025 0.038427 0)
(7.38127 0.040316 0)
(7.38208 0.0427449 0)
(7.38267 0.0458515 0)
(7.38308 0.0497981 0)
(7.38333 0.0547753 0)
(7.3835 0.0610036 0)
(7.38369 0.0687289 0)
(7.38409 0.0782291 0)
(7.3849 0.089771 0)
(7.38651 0.103705 0)
(7.3892 0.120072 0)
(7.33322 0.00319902 0)
(7.33492 0.00872373 0)
(7.33753 0.0127803 0)
(7.34017 0.015882 0)
(7.34278 0.0183154 0)
(7.34538 0.0202064 0)
(7.34792 0.0217248 0)
(7.35038 0.0229906 0)
(7.3528 0.0240664 0)
(7.35516 0.0249962 0)
(7.35748 0.0258147 0)
(7.35975 0.026548 0)
(7.36198 0.027219 0)
(7.36416 0.0278503 0)
(7.36629 0.0284661 0)
(7.36836 0.0290938 0)
(7.37037 0.0297653 0)
(7.37229 0.0305189 0)
(7.37412 0.0314006 0)
(7.37585 0.0324654 0)
(7.37747 0.0337797 0)
(7.37897 0.0354225 0)
(7.38034 0.0374865 0)
(7.3816 0.0400794 0)
(7.38276 0.0433326 0)
(7.38388 0.0473979 0)
(7.385 0.0524461 0)
(7.38623 0.0586681 0)
(7.38771 0.0662698 0)
(7.38963 0.0754743 0)
(7.39222 0.0864899 0)
(7.39587 0.0995726 0)
(7.40085 0.114736 0)
(7.33316 0.00280851 0)
(7.33451 0.00785625 0)
(7.33675 0.0118122 0)
(7.33918 0.0150024 0)
(7.34165 0.0176592 0)
(7.34415 0.0198548 0)
(7.34662 0.0216848 0)
(7.34902 0.0232296 0)
(7.35137 0.0245386 0)
(7.35367 0.0256526 0)
(7.35594 0.0266085 0)
(7.35817 0.0274388 0)
(7.36036 0.0281729 0)
(7.36252 0.0288405 0)
(7.36464 0.0294721 0)
(7.36673 0.0301008 0)
(7.36876 0.0307635 0)
(7.37075 0.0315021 0)
(7.37268 0.0323655 0)
(7.37455 0.0334105 0)
(7.37637 0.0347036 0)
(7.37813 0.0363228 0)
(7.37984 0.0383585 0)
(7.38154 0.0409142 0)
(7.38326 0.0441066 0)
(7.38506 0.0480671 0)
(7.38703 0.0529412 0)
(7.38927 0.0588869 0)
(7.39194 0.0660693 0)
(7.39525 0.0746583 0)
(7.39944 0.0848043 0)
(7.40487 0.0966807 0)
(7.41181 0.11026 0)
(7.33312 0.00250035 0)
(7.3342 0.00711078 0)
(7.3361 0.0108527 0)
(7.33826 0.0138717 0)
(7.3405 0.0163383 0)
(7.34279 0.0183283 0)
(7.34508 0.01994 0)
(7.34736 0.0212667 0)
(7.34962 0.022372 0)
(7.35186 0.0233041 0)
(7.35408 0.0241031 0)
(7.35628 0.0248022 0)
(7.35847 0.0254303 0)
(7.36065 0.0260153 0)
(7.3628 0.0265859 0)
(7.36494 0.0271729 0)
(7.36705 0.0278108 0)
(7.36915 0.0285392 0)
(7.37122 0.0294037 0)
(7.37328 0.0304573 0)
(7.37533 0.0317614 0)
(7.37738 0.0333864 0)
(7.37947 0.0354122 0)
(7.38162 0.0379298 0)
(7.3839 0.0410417 0)
(7.38637 0.0448609 0)
(7.38914 0.0495082 0)
(7.39232 0.0551097 0)
(7.39609 0.0617906 0)
(7.40065 0.0696725 0)
(7.40624 0.0788527 0)
(7.4132 0.0894361 0)
(7.42176 0.101354 0)
(7.33309 0.00224864 0)
(7.33398 0.00646421 0)
(7.33562 0.0100003 0)
(7.33757 0.012922 0)
(7.33965 0.0153686 0)
(7.34182 0.0174101 0)
(7.34403 0.0191195 0)
(7.34625 0.0205657 0)
(7.34846 0.0217966 0)
(7.35066 0.0228496 0)
(7.35286 0.0237578 0)
(7.35505 0.0245507 0)
(7.35723 0.0252565 0)
(7.35941 0.025903 0)
(7.36158 0.0265197 0)
(7.36376 0.0271384 0)
(7.36593 0.0277944 0)
(7.36811 0.0285274 0)
(7.37031 0.0293823 0)
(7.37253 0.0304104 0)
(7.37479 0.0316696 0)
(7.37712 0.0332251 0)
(7.37955 0.0351493 0)
(7.38213 0.0375222 0)
(7.38492 0.0404311 0)
(7.388 0.0439685 0)
(7.39149 0.0482296 0)
(7.39551 0.0533092 0)
(7.40023 0.0592956 0)
(7.40586 0.0662669 0)
(7.41261 0.0742736 0)
(7.4208 0.0833627 0)
(7.43063 0.093433 0)
(7.33307 0.00203808 0)
(7.33381 0.00589979 0)
(7.33523 0.00921863 0)
(7.33698 0.0119984 0)
(7.33889 0.0143308 0)
(7.34091 0.0162692 0)
(7.34298 0.0178715 0)
(7.34509 0.0192004 0)
(7.34721 0.0203063 0)
(7.34934 0.0212311 0)
(7.35149 0.0220117 0)
(7.35364 0.022681 0)
(7.3558 0.0232689 0)
(7.35798 0.0238046 0)
(7.36018 0.0243175 0)
(7.36239 0.0248387 0)
(7.36464 0.0254018 0)
(7.36692 0.026044 0)
(7.36925 0.0268065 0)
(7.37164 0.0277355 0)
(7.37413 0.0288822 0)
(7.37673 0.0303033 0)
(7.3795 0.0320607 0)
(7.38249 0.0342209 0)
(7.38576 0.0368541 0)
(7.38942 0.0400318 0)
(7.39355 0.0438246 0)
(7.39832 0.0482978 0)
(7.40386 0.0535062 0)
(7.41038 0.0594898 0)
(7.41807 0.0662594 0)
(7.42723 0.0738155 0)
(7.438 0.0820319 0)
(7.33306 0.00185776 0)
(7.33369 0.00540049 0)
(7.33493 0.00850333 0)
(7.33651 0.0111418 0)
(7.33827 0.0133808 0)
(7.34017 0.0152682 0)
(7.34215 0.0168532 0)
(7.34419 0.0181884 0)
(7.34626 0.0193172 0)
(7.34836 0.0202747 0)
(7.35048 0.0210922 0)
(7.35262 0.0217979 0)
(7.35479 0.0224183 0)
(7.35698 0.0229796 0)
(7.35921 0.0235091 0)
(7.36147 0.0240355 0)
(7.36379 0.0245902 0)
(7.36616 0.0252074 0)
(7.36862 0.0259247 0)
(7.37117 0.0267837 0)
(7.37386 0.0278293 0)
(7.37671 0.0291101 0)
(7.37978 0.0306777 0)
(7.38313 0.0325857 0)
(7.38682 0.0348883 0)
(7.39096 0.0376379 0)
(7.39565 0.0408822 0)
(7.40102 0.0446604 0)
(7.40722 0.0489982 0)
(7.41443 0.0539037 0)
(7.42283 0.0593558 0)
(7.43267 0.0653186 0)
(7.44405 0.0716517 0)
(7.33305 0.00170007 0)
(7.33359 0.00495412 0)
(7.33469 0.00784495 0)
(7.33612 0.010333 0)
(7.33775 0.012458 0)
(7.33952 0.0142548 0)
(7.3414 0.0157608 0)
(7.34334 0.0170183 0)
(7.34534 0.0180656 0)
(7.34737 0.0189363 0)
(7.34944 0.019661 0)
(7.35155 0.0202686 0)
(7.3537 0.0207859 0)
(7.35589 0.0212397 0)
(7.35813 0.0216567 0)
(7.36043 0.0220646 0)
(7.3628 0.0224928 0)
(7.36526 0.0229725 0)
(7.36783 0.0235373 0)
(7.37053 0.024223 0)
(7.3734 0.0250674 0)
(7.37647 0.0261103 0)
(7.37981 0.0273922 0)
(7.38347 0.0289534 0)
(7.38753 0.0308322 0)
(7.39208 0.0330627 0)
(7.39722 0.0356715 0)
(7.40308 0.0386749 0)
(7.40979 0.0420735 0)
(7.41751 0.0458498 0)
(7.42639 0.0499577 0)
(7.43666 0.0543348 0)
(7.44837 0.0588341 0)
(7.33305 0.00155964 0)
(7.33352 0.00455039 0)
(7.33449 0.00723532 0)
(7.3358 0.00957013 0)
(7.3373 0.0115781 0)
(7.33897 0.0132867 0)
(7.34076 0.0147272 0)
(7.34263 0.0159356 0)
(7.34457 0.016946 0)
(7.34656 0.0177885 0)
(7.34861 0.0184905 0)
(7.3507 0.0190774 0)
(7.35284 0.0195731 0)
(7.35505 0.0200012 0)
(7.35731 0.0203852 0)
(7.35965 0.0207495 0)
(7.36209 0.0211196 0)
(7.36463 0.0215222 0)
(7.3673 0.0219856 0)
(7.37013 0.0225393 0)
(7.37316 0.0232137 0)
(7.37643 0.0240393 0)
(7.38 0.025046 0)
(7.38392 0.0262616 0)
(7.38827 0.0277098 0)
(7.39314 0.0294083 0)
(7.39863 0.031366 0)
(7.40484 0.0335798 0)
(7.41189 0.0360304 0)
(7.41994 0.0386807 0)
(7.42909 0.0414669 0)
(7.43953 0.0443085 0)
(7.45131 0.0470599 0)
(7.33304 0.00143259 0)
(7.33346 0.00418119 0)
(7.33434 0.00666729 0)
(7.33553 0.00884686 0)
(7.33693 0.010731 0)
(7.3385 0.0123393 0)
(7.3402 0.0136951 0)
(7.34199 0.014827 0)
(7.34386 0.0157634 0)
(7.3458 0.0165303 0)
(7.3478 0.0171523 0)
(7.34986 0.0176528 0)
(7.35199 0.0180541 0)
(7.35418 0.0183781 0)
(7.35645 0.0186465 0)
(7.35881 0.0188815 0)
(7.36129 0.0191056 0)
(7.36388 0.019342 0)
(7.36663 0.019614 0)
(7.36957 0.0199453 0)
(7.37272 0.0203591 0)
(7.37614 0.0208774 0)
(7.37988 0.0215202 0)
(7.384 0.0223034 0)
(7.38857 0.0232382 0)
(7.39366 0.0243278 0)
(7.39938 0.0255659 0)
(7.40581 0.0269338 0)
(7.41306 0.0283972 0)
(7.42124 0.0299043 0)
(7.43047 0.0313801 0)
(7.44088 0.0327334 0)
(7.45248 0.0338254 0)
(7.33304 0.00131601 0)
(7.33341 0.00383996 0)
(7.33421 0.00613444 0)
(7.3353 0.00815843 0)
(7.33661 0.00991518 0)
(7.33809 0.0114183 0)
(7.33971 0.0126863 0)
(7.34144 0.0137424 0)
(7.34325 0.0146113 0)
(7.34514 0.0153159 0)
(7.34711 0.0158781 0)
(7.34914 0.0163185 0)
(7.35125 0.016657 0)
(7.35345 0.0169123 0)
(7.35573 0.0171032 0)
(7.35811 0.017248 0)
(7.36062 0.0173652 0)
(7.36327 0.0174728 0)
(7.36608 0.0175888 0)
(7.3691 0.0177302 0)
(7.37235 0.0179129 0)
(7.37589 0.0181504 0)
(7.37975 0.0184529 0)
(7.38401 0.0188262 0)
(7.38871 0.0192697 0)
(7.39395 0.0197749 0)
(7.39978 0.0203232 0)
(7.40631 0.0208839 0)
(7.41361 0.0214117 0)
(7.42178 0.0218453 0)
(7.4309 0.0221036 0)
(7.44107 0.0220906 0)
(7.45231 0.0216788 0)
(7.33303 0.00120773 0)
(7.33338 0.00352141 0)
(7.3341 0.00563119 0)
(7.33512 0.00750015 0)
(7.33634 0.00912643 0)
(7.33774 0.0105186 0)
(7.33928 0.0116904 0)
(7.34094 0.0126598 0)
(7.3427 0.0134467 0)
(7.34454 0.0140702 0)
(7.34646 0.0145488 0)
(7.34846 0.0149001 0)
(7.35054 0.0151409 0)
(7.35272 0.0152875 0)
(7.35499 0.0153556 0)
(7.35738 0.0153603 0)
(7.35989 0.0153163 0)
(7.36256 0.0152376 0)
(7.36541 0.015137 0)
(7.36847 0.015026 0)
(7.37178 0.0149137 0)
(7.37537 0.0148063 0)
(7.3793 0.014706 0)
(7.38362 0.0146095 0)
(7.38838 0.014507 0)
(7.39365 0.0143807 0)
(7.3995 0.0142027 0)
(7.40599 0.0139341 0)
(7.4132 0.0135223 0)
(7.4212 0.0129012 0)
(7.43005 0.0119883 0)
(7.43983 0.0106882 0)
(7.45052 0.00888676 0)
(7.33303 0.00110604 0)
(7.33335 0.00322125 0)
(7.33401 0.00515271 0)
(7.33496 0.00686782 0)
(7.33611 0.00836169 0)
(7.33744 0.00963915 0)
(7.33891 0.01071 0)
(7.3405 0.0115885 0)
(7.3422 0.0122905 0)
(7.34399 0.0128323 0)
(7.34587 0.0132295 0)
(7.34784 0.0134969 0)
(7.3499 0.0136488 0)
(7.35205 0.0136984 0)
(7.35431 0.0136582 0)
(7.35669 0.0135399 0)
(7.35921 0.0133539 0)
(7.36188 0.0131098 0)
(7.36474 0.0128152 0)
(7.36782 0.0124758 0)
(7.37114 0.0120943 0)
(7.37475 0.0116702 0)
(7.37869 0.0111981 0)
(7.38301 0.0106674 0)
(7.38775 0.0100607 0)
(7.39298 0.00935262 0)
(7.39874 0.00850869 0)
(7.40509 0.00748415 0)
(7.41209 0.00622281 0)
(7.4198 0.0046573 0)
(7.42824 0.00270722 0)
(7.43748 0.000280096 0)
(7.44748 -0.00272335 0)
(7.33303 0.00100962 0)
(7.33332 0.00293597 0)
(7.33394 0.00469478 0)
(7.33482 0.0062576 0)
(7.33591 0.00761777 0)
(7.33717 0.00877716 0)
(7.33858 0.0097423 0)
(7.34012 0.0105236 0)
(7.34176 0.0111334 0)
(7.3435 0.0115843 0)
(7.34533 0.0118886 0)
(7.34725 0.0120582 0)
(7.34927 0.012104 0)
(7.35139 0.0120361 0)
(7.35362 0.0118638 0)
(7.35597 0.0115951 0)
(7.35847 0.0112368 0)
(7.36112 0.0107941 0)
(7.36396 0.0102701 0)
(7.36701 0.00966543 0)
(7.37031 0.00897769 0)
(7.37388 0.00820047 0)
(7.37777 0.00732277 0)
(7.38201 0.0063281 0)
(7.38666 0.00519351 0)
(7.39174 0.00388877 0)
(7.39732 0.00237536 0)
(7.40342 0.000606066 0)
(7.4101 -0.00147577 0)
(7.41738 -0.003936 0)
(7.4253 -0.00685045 0)
(7.43388 -0.0103046 0)
(7.4431 -0.014383 0)
(7.33303 0.000917375 0)
(7.3333 0.00266267 0)
(7.33388 0.00425384 0)
(7.33471 0.00566618 0)
(7.33574 0.00689216 0)
(7.33694 0.00793148 0)
(7.33829 0.00878805 0)
(7.33977 0.0094692 0)
(7.34135 0.00998413 0)
(7.34304 0.0103425 0)
(7.34482 0.0105539 0)
(7.3467 0.0106273 0)
(7.34867 0.0105709 0)
(7.35075 0.0103919 0)
(7.35293 0.0100964 0)
(7.35525 0.00968906 0)
(7.3577 0.00917312 0)
(7.36031 0.00854973 0)
(7.36309 0.00781772 0)
(7.36609 0.00697326 0)
(7.36931 0.00600921 0)
(7.3728 0.00491422 0)
(7.37659 0.00367259 0)
(7.3807 0.00226338 0)
(7.38517 0.000659547 0)
(7.39005 -0.0011724 0)
(7.39535 -0.00327295 0)
(7.40112 -0.00568985 0)
(7.40738 -0.00847854 0)
(7.41415 -0.0117018 0)
(7.42145 -0.0154294 0)
(7.42929 -0.0197384 0)
(7.43762 -0.0246988 0)
(7.33302 0.000828412 0)
(7.33328 0.00239891 0)
(7.33383 0.0038267 0)
(7.33461 0.0050903 0)
(7.33559 0.00618179 0)
(7.33674 0.00709913 0)
(7.33803 0.00784385 0)
(7.33945 0.00842043 0)
(7.34098 0.00883497 0)
(7.34262 0.00909412 0)
(7.34435 0.00920442 0)
(7.34617 0.00917189 0)
(7.34809 0.00900168 0)
(7.35011 0.00869805 0)
(7.35224 0.00826396 0)
(7.35449 0.00770075 0)
(7.35688 0.00700831 0)
(7.35942 0.00618438 0)
(7.36212 0.00522399 0)
(7.36502 0.00411963 0)
(7.36814 0.00286033 0)
(7.37149 0.0014313 0)
(7.37512 -0.000186567 0)
(7.37903 -0.00201726 0)
(7.38327 -0.00408985 0)
(7.38786 -0.00643895 0)
(7.39282 -0.009105 0)
(7.39817 -0.0121344 0)
(7.40393 -0.0155792 0)
(7.4101 -0.0194969 0)
(7.4167 -0.0239495 0)
(7.42372 -0.0290048 0)
(7.43112 -0.0347183 0)
(7.33302 0.000741986 0)
(7.33327 0.00214269 0)
(7.33379 0.00341081 0)
(7.33453 0.0045278 0)
(7.33546 0.00548578 0)
(7.33656 0.00628158 0)
(7.3378 0.00691497 0)
(7.33916 0.00738812 0)
(7.34064 0.00770462 0)
(7.34221 0.00786852 0)
(7.34388 0.0078838 0)
(7.34564 0.00775378 0)
(7.3475 0.00748088 0)
(7.34945 0.00706667 0)
(7.35151 0.00651129 0)
(7.35368 0.00581295 0)
(7.35598 0.00496855 0)
(7.35841 0.00397275 0)
(7.36101 0.00281692 0)
(7.36377 0.00149086 0)
(7.36674 -1.95584e-05 0)
(7.36991 -0.00173163 0)
(7.37332 -0.00366703 0)
(7.37699 -0.00585154 0)
(7.38093 -0.00831526 0)
(7.38517 -0.0110929 0)
(7.38972 -0.0142238 0)
(7.39458 -0.0177518 0)
(7.39977 -0.0217248 0)
(7.4053 -0.0261946 0)
(7.41114 -0.0312152 0)
(7.4173 -0.0368452 0)
(7.42373 -0.0431272 0)
(7.33302 0.000657443 0)
(7.33325 0.00189211 0)
(7.33375 0.00300334 0)
(7.33446 0.00397496 0)
(7.33535 0.00479906 0)
(7.3364 0.00547124 0)
(7.3376 0.0059894 0)
(7.33891 0.00635333 0)
(7.34033 0.00656403 0)
(7.34185 0.00662294 0)
(7.34346 0.00653152 0)
(7.34515 0.00629052 0)
(7.34694 0.0058996 0)
(7.34881 0.00535793 0)
(7.35079 0.00466328 0)
(7.35286 0.00381082 0)
(7.35505 0.00279563 0)
(7.35737 0.0016093 0)
(7.35982 0.000241849 0)
(7.36243 -0.00132054 0)
(7.3652 -0.00309393 0)
(7.36816 -0.00509736 0)
(7.37132 -0.00735331 0)
(7.37469 -0.00988785 0)
(7.37829 -0.0127308 0)
(7.38212 -0.0159154 0)
(7.3862 -0.0194786 0)
(7.39053 -0.0234604 0)
(7.3951 -0.0279035 0)
(7.39992 -0.0328527 0)
(7.40497 -0.0383538 0)
(7.41024 -0.0444557 0)
(7.41568 -0.0511892 0)
(7.33302 0.000574223 0)
(7.33324 0.00164581 0)
(7.33372 0.00260314 0)
(7.3344 0.00343256 0)
(7.33526 0.00412672 0)
(7.33626 0.00468078 0)
(7.33741 0.00509152 0)
(7.33866 0.00535702 0)
(7.34002 0.00547612 0)
(7.34147 0.00544801 0)
(7.34301 0.00527189 0)
(7.34463 0.00494603 0)
(7.34633 0.00446729 0)
(7.34811 0.00383259 0)
(7.34997 0.00303787 0)
(7.35193 0.00207371 0)
(7.35399 0.000933546 0)
(7.35615 -0.000392467 0)
(7.35843 -0.00191586 0)
(7.36084 -0.0036525 0)
(7.36338 -0.00561994 0)
(7.36608 -0.0078385 0)
(7.36894 -0.0103312 0)
(7.37196 -0.0131241 0)
(7.37517 -0.0162458 0)
(7.37855 -0.0197278 0)
(7.38212 -0.0236039 0)
(7.38587 -0.0279101 0)
(7.38979 -0.0326836 0)
(7.39388 -0.0379631 0)
(7.39811 -0.0437864 0)
(7.40248 -0.0501941 0)
(7.40693 -0.0572071 0)
(7.33302 0.0004917 0)
(7.33324 0.00140155 0)
(7.3337 0.00220545 0)
(7.33435 0.00289135 0)
(7.33518 0.00345156 0)
(7.33615 0.00388007 0)
(7.33725 0.00417207 0)
(7.33846 0.0043236 0)
(7.33977 0.00433134 0)
(7.34116 0.00419266 0)
(7.34263 0.0039051 0)
(7.34418 0.00346502 0)
(7.34579 0.00286659 0)
(7.34748 0.00210613 0)
(7.34923 0.00117664 0)
(7.35106 7.18154e-05 0)
(7.35297 -0.0012216 0)
(7.35497 -0.00271505 0)
(7.35706 -0.00442186 0)
(7.35925 -0.00635717 0)
(7.36155 -0.00853884 0)
(7.36396 -0.0109872 0)
(7.36649 -0.0137249 0)
(7.36915 -0.0167765 0)
(7.37193 -0.020169 0)
(7.37483 -0.0239308 0)
(7.37786 -0.0280922 0)
(7.381 -0.0326842 0)
(7.38425 -0.0377385 0)
(7.38759 -0.0432868 0)
(7.391 -0.0493595 0)
(7.39446 -0.0559885 0)
(7.39792 -0.0631859 0)
(7.33302 0.000409489 0)
(7.33323 0.00115949 0)
(7.33367 0.00181433 0)
(7.33431 0.00236499 0)
(7.3351 0.00280493 0)
(7.33603 0.00312808 0)
(7.33709 0.00332861 0)
(7.33824 0.00340067 0)
(7.33948 0.00333865 0)
(7.3408 0.00313762 0)
(7.34218 0.00279327 0)
(7.34363 0.00229974 0)
(7.34514 0.0016461 0)
(7.3467 0.000827498 0)
(7.34832 -0.000165417 0)
(7.35 -0.00133789 0)
(7.35173 -0.00270408 0)
(7.35353 -0.00427771 0)
(7.3554 -0.00607366 0)
(7.35734 -0.00810826 0)
(7.35935 -0.0103997 0)
(7.36144 -0.0129681 0)
(7.36361 -0.015835 0)
(7.36585 -0.0190238 0)
(7.36817 -0.0225589 0)
(7.37057 -0.0264662 0)
(7.37303 -0.0307719 0)
(7.37555 -0.0355029 0)
(7.37811 -0.0406855 0)
(7.38069 -0.0463456 0)
(7.38328 -0.0525071 0)
(7.38585 -0.0591955 0)
(7.38838 -0.0664157 0)
(7.33302 0.000326423 0)
(7.33323 0.000913297 0)
(7.33367 0.0014124 0)
(7.33429 0.00181531 0)
(7.33507 0.00211436 0)
(7.33598 0.00230224 0)
(7.33701 0.00237268 0)
(7.33812 0.00231963 0)
(7.33932 0.0021342 0)
(7.34058 0.00181113 0)
(7.3419 0.00134918 0)
(7.34326 0.000736508 0)
(7.34467 -2.94617e-05 0)
(7.34612 -0.000963416 0)
(7.34761 -0.00207564 0)
(7.34914 -0.00337701 0)
(7.3507 -0.00487734 0)
(7.3523 -0.00658979 0)
(7.35395 -0.00852943 0)
(7.35563 -0.0107124 0)
(7.35735 -0.0131564 0)
(7.3591 -0.0158805 0)
(7.3609 -0.0189047 0)
(7.36273 -0.0222504 0)
(7.36459 -0.0259394 0)
(7.36647 -0.0299941 0)
(7.36836 -0.034437 0)
(7.37025 -0.03929 0)
(7.37212 -0.0445745 0)
(7.37396 -0.0503104 0)
(7.37574 -0.0565152 0)
(7.37745 -0.0632073 0)
(7.37904 -0.0703863 0)
(7.33302 0.000243191 0)
(7.33322 0.000672019 0)
(7.33365 0.00103082 0)
(7.33425 0.00131592 0)
(7.335 0.00152067 0)
(7.33587 0.00163696 0)
(7.33684 0.00165643 0)
(7.33789 0.00156764 0)
(7.33901 0.00135371 0)
(7.34019 0.00101672 0)
(7.34141 0.000539614 0)
(7.34267 -8.38434e-05 0)
(7.34396 -0.000855511 0)
(7.34527 -0.00179026 0)
(7.34659 -0.00289926 0)
(7.34794 -0.00419578 0)
(7.34929 -0.00569255 0)
(7.35067 -0.00740371 0)
(7.35205 -0.00934445 0)
(7.35344 -0.0115307 0)
(7.35483 -0.0139792 0)
(7.35623 -0.0167078 0)
(7.35763 -0.0197348 0)
(7.35902 -0.0230794 0)
(7.36039 -0.0267607 0)
(7.36173 -0.0307981 0)
(7.36304 -0.0352105 0)
(7.3643 -0.0400158 0)
(7.36549 -0.0452311 0)
(7.3666 -0.0508719 0)
(7.3676 -0.0569509 0)
(7.36848 -0.0634823 0)
(7.36922 -0.0704612 0)
(7.33302 0.000154344 0)
(7.33323 0.000403737 0)
(7.33368 0.000586688 0)
(7.3343 0.000699796 0)
(7.33506 0.000734901 0)
(7.33594 0.000684428 0)
(7.3369 0.000539289 0)
(7.33793 0.000293243 0)
(7.33901 -5.20032e-05 0)
(7.34014 -0.000516984 0)
(7.34129 -0.00111745 0)
(7.34246 -0.00185709 0)
(7.34365 -0.00274916 0)
(7.34484 -0.00380095 0)
(7.34603 -0.00502334 0)
(7.34721 -0.00642949 0)
(7.34839 -0.00803221 0)
(7.34954 -0.00984497 0)
(7.35068 -0.0118821 0)
(7.35179 -0.0141587 0)
(7.35288 -0.0166907 0)
(7.35393 -0.0194945 0)
(7.35494 -0.0225867 0)
(7.3559 -0.0259841 0)
(7.3568 -0.0297035 0)
(7.35763 -0.0337608 0)
(7.35837 -0.0381714 0)
(7.35902 -0.0429495 0)
(7.35956 -0.0481076 0)
(7.35996 -0.0536566 0)
(7.36022 -0.0596047 0)
(7.3603 -0.0659604 0)
(7.36019 -0.0727155 0)
(7.33302 7.10462e-05 0)
(7.33322 0.000176888 0)
(7.33364 0.000251673 0)
(7.33423 0.000293662 0)
(7.33495 0.000292603 0)
(7.33577 0.000234294 0)
(7.33668 0.000103034 0)
(7.33766 -0.000113472 0)
(7.33868 -0.000418693 0)
(7.33971 -0.000837638 0)
(7.34076 -0.00137572 0)
(7.34182 -0.00204634 0)
(7.34286 -0.00286233 0)
(7.3439 -0.00383306 0)
(7.34491 -0.0049696 0)
(7.34589 -0.00628466 0)
(7.34684 -0.00779209 0)
(7.34775 -0.009506 0)
(7.34861 -0.0114401 0)
(7.34942 -0.0136082 0)
(7.35017 -0.0160246 0)
(7.35085 -0.0187037 0)
(7.35145 -0.02166 0)
(7.35196 -0.0249078 0)
(7.35237 -0.0284613 0)
(7.35268 -0.0323338 0)
(7.35286 -0.0365379 0)
(7.35291 -0.0410847 0)
(7.35281 -0.045984 0)
(7.35254 -0.0512438 0)
(7.35208 -0.0568696 0)
(7.35143 -0.0628677 0)
(7.35057 -0.0692282 0)
(7.33303 -3.70341e-05 0)
(7.33328 -0.000162756 0)
(7.33378 -0.000330763 0)
(7.33444 -0.000534983 0)
(7.33522 -0.000777016 0)
(7.33609 -0.00106279 0)
(7.33702 -0.00140113 0)
(7.33798 -0.00180627 0)
(7.33897 -0.00229851 0)
(7.33997 -0.00288139 0)
(7.34096 -0.00356783 0)
(7.34193 -0.00437157 0)
(7.34288 -0.00530546 0)
(7.3438 -0.00638174 0)
(7.34467 -0.00761338 0)
(7.3455 -0.0090136 0)
(7.34626 -0.0105947 0)
(7.34695 -0.0123684 0)
(7.34757 -0.0143472 0)
(7.34811 -0.0165445 0)
(7.34855 -0.0189736 0)
(7.34889 -0.021648 0)
(7.34912 -0.0245809 0)
(7.34923 -0.0277848 0)
(7.3492 -0.0312716 0)
(7.34903 -0.035052 0)
(7.3487 -0.0391355 0)
(7.34819 -0.0435303 0)
(7.3475 -0.0482427 0)
(7.3466 -0.0532773 0)
(7.34549 -0.0586361 0)
(7.34414 -0.0643211 0)
(7.34253 -0.0703207 0)
(7.33301 -0.000125266 0)
(7.33321 -0.00036101 0)
(7.33366 -0.000542265 0)
(7.33427 -0.000686785 0)
(7.33501 -0.000828722 0)
(7.33583 -0.000992047 0)
(7.33672 -0.00119714 0)
(7.33764 -0.00146309 0)
(7.33856 -0.00180822 0)
(7.33948 -0.00224537 0)
(7.34038 -0.00278653 0)
(7.34125 -0.00344323 0)
(7.34206 -0.00422588 0)
(7.34283 -0.0051436 0)
(7.34352 -0.00620523 0)
(7.34414 -0.00742139 0)
(7.34468 -0.00880616 0)
(7.34513 -0.0103732 0)
(7.34547 -0.0121343 0)
(7.34571 -0.0141009 0)
(7.34582 -0.0162842 0)
(7.3458 -0.0186953 0)
(7.34563 -0.0213448 0)
(7.34531 -0.024243 0)
(7.34482 -0.0273996 0)
(7.34416 -0.0308233 0)
(7.34331 -0.0345222 0)
(7.34225 -0.0385027 0)
(7.34098 -0.04277 0)
(7.33948 -0.0473278 0)
(7.33775 -0.0521776 0)
(7.33577 -0.0573218 0)
(7.33354 -0.0627489 0)
(7.33305 -0.000305705 0)
(7.33344 -0.000972091 0)
(7.33409 -0.00160866 0)
(7.33488 -0.00218886 0)
(7.33573 -0.0027248 0)
(7.33663 -0.00323224 0)
(7.33755 -0.00373217 0)
(7.33847 -0.00424806 0)
(7.33937 -0.00480103 0)
(7.34024 -0.0054092 0)
(7.34108 -0.00608957 0)
(7.34186 -0.00685813 0)
(7.34258 -0.00772971 0)
(7.34323 -0.00871855 0)
(7.34379 -0.00983923 0)
(7.34426 -0.0111055 0)
(7.34464 -0.0125265 0)
(7.34489 -0.0141105 0)
(7.34503 -0.0158674 0)
(7.34503 -0.017808 0)
(7.34488 -0.0199431 0)
(7.34457 -0.0222828 0)
(7.34409 -0.0248372 0)
(7.34343 -0.0276151 0)
(7.34257 -0.0306246 0)
(7.34151 -0.0338725 0)
(7.34022 -0.0373643 0)
(7.33871 -0.0411041 0)
(7.33695 -0.0450943 0)
(7.33493 -0.0493357 0)
(7.33265 -0.053827 0)
(7.33008 -0.0585669 0)
(7.32722 -0.0635439 0)
(7.333 -0.000336642 0)
(7.33323 -0.000850387 0)
(7.3338 -0.00117945 0)
(7.33456 -0.00142724 0)
(7.33541 -0.00164882 0)
(7.33633 -0.00186542 0)
(7.33726 -0.00210237 0)
(7.33818 -0.00238157 0)
(7.33907 -0.00271743 0)
(7.33991 -0.00312122 0)
(7.34069 -0.00360318 0)
(7.3414 -0.00417263 0)
(7.34202 -0.0048382 0)
(7.34255 -0.00560791 0)
(7.34296 -0.00648922 0)
(7.34326 -0.00749013 0)
(7.34342 -0.00862067 0)
(7.34344 -0.00989097 0)
(7.34331 -0.0113106 0)
(7.34301 -0.0128888 0)
(7.34253 -0.0146347 0)
(7.34187 -0.0165568 0)
(7.341 -0.0186634 0)
(7.33993 -0.0209621 0)
(7.33864 -0.0234599 0)
(7.33712 -0.0261631 0)
(7.33535 -0.0290769 0)
(7.33334 -0.0322057 0)
(7.33106 -0.0355527 0)
(7.32851 -0.03912 0)
(7.32568 -0.042908 0)
(7.32258 -0.0469178 0)
(7.31919 -0.0511402 0)
(7.33314 -0.000900225 0)
(7.33389 -0.00257679 0)
(7.33485 -0.00384019 0)
(7.3358 -0.00480001 0)
(7.33674 -0.00556333 0)
(7.33769 -0.00618219 0)
(7.3386 -0.00671365 0)
(7.33948 -0.00720702 0)
(7.34031 -0.00769687 0)
(7.34108 -0.00820969 0)
(7.34178 -0.0087669 0)
(7.3424 -0.00938579 0)
(7.34293 -0.0100807 0)
(7.34334 -0.0108641 0)
(7.34364 -0.0117473 0)
(7.3438 -0.0127405 0)
(7.34382 -0.0138528 0)
(7.34369 -0.0150921 0)
(7.34338 -0.0164657 0)
(7.34289 -0.017981 0)
(7.3422 -0.0196449 0)
(7.3413 -0.0214639 0)
(7.34017 -0.0234441 0)
(7.33881 -0.0255907 0)
(7.33719 -0.0279083 0)
(7.33532 -0.0304004 0)
(7.33316 -0.0330697 0)
(7.33072 -0.0359175 0)
(7.32799 -0.0389443 0)
(7.32494 -0.042149 0)
(7.32158 -0.0455288 0)
(7.31789 -0.0490815 0)
(7.31385 -0.0527955 0)
(7.33306 -0.000397941 0)
(7.33377 -0.000965051 0)
(7.33501 -0.00134012 0)
(7.33628 -0.00168361 0)
(7.33752 -0.00199038 0)
(7.33874 -0.00227022 0)
(7.3399 -0.00255185 0)
(7.34097 -0.0028463 0)
(7.34196 -0.003159 0)
(7.34287 -0.00349766 0)
(7.34369 -0.00386987 0)
(7.3444 -0.00428244 0)
(7.34502 -0.00474203 0)
(7.34552 -0.00525533 0)
(7.3459 -0.00582894 0)
(7.34616 -0.00646959 0)
(7.34628 -0.00718432 0)
(7.34625 -0.00798029 0)
(7.34608 -0.00886464 0)
(7.34575 -0.00984441 0)
(7.34525 -0.0109265 0)
(7.34458 -0.0121176 0)
(7.34374 -0.0134242 0)
(7.34271 -0.0148525 0)
(7.34151 -0.0164081 0)
(7.34012 -0.0180966 0)
(7.33854 -0.0199229 0)
(7.33678 -0.0218912 0)
(7.33484 -0.0240055 0)
(7.33273 -0.026269 0)
(7.33045 -0.0286835 0)
(7.328 -0.0312535 0)
(7.32543 -0.0339706 0)
(7.3344 -0.00362992 0)
(7.3393 -0.00690429 0)
(7.34521 -0.00834718 0)
(7.35167 -0.00933164 0)
(7.35857 -0.00995545 0)
(7.3657 -0.0103381 0)
(7.37292 -0.0106303 0)
(7.3802 -0.0108987 0)
(7.38753 -0.0111743 0)
(7.39486 -0.0114811 0)
(7.40221 -0.0118359 0)
(7.40957 -0.0122499 0)
(7.41695 -0.0127317 0)
(7.42434 -0.0132887 0)
(7.43175 -0.0139274 0)
(7.43918 -0.0146539 0)
(7.44665 -0.0154742 0)
(7.45414 -0.0163938 0)
(7.46167 -0.0174185 0)
(7.46922 -0.0185539 0)
(7.47681 -0.0198056 0)
(7.48442 -0.0211792 0)
(7.49206 -0.0226804 0)
(7.49971 -0.0243145 0)
(7.50737 -0.0260865 0)
(7.51503 -0.0280013 0)
(7.52267 -0.0300633 0)
(7.53029 -0.0322764 0)
(7.53788 -0.0346445 0)
(7.5454 -0.0371703 0)
(7.55286 -0.0398576 0)
(7.56022 -0.0427075 0)
(7.56744 -0.045722 0)
(7.32974 -0.00402963 0)
(7.32424 -0.00848941 0)
(7.31504 -0.0111601 0)
(7.3039 -0.0132118 0)
(7.29223 -0.0147744 0)
(7.28011 -0.0159765 0)
(7.26762 -0.0169719 0)
(7.25491 -0.017849 0)
(7.24203 -0.0186613 0)
(7.22898 -0.0194494 0)
(7.21575 -0.0202432 0)
(7.20233 -0.0210644 0)
(7.18867 -0.0219294 0)
(7.17476 -0.0228513 0)
(7.16055 -0.0238405 0)
(7.14599 -0.0249055 0)
(7.13104 -0.0260537 0)