/*--------------------------------*- C++ -*----------------------------------*\
  =========                 |
  \\      /  F ield         | OpenFOAM: The Open Source CFD Toolbox
   \\    /   O peration     | Website:  https://openfoam.org
    \\  /    A nd           | Version:  10
     \\/     M anipulation  |
\*---------------------------------------------------------------------------*/
FoamFile
{
    format      ascii;
    class       volScalarField;
    location    "1300";
    object      k;
}
// * * * * * * * * * * * * * * * * * * * * * * * * * * * * * * * * * * * * * //

dimensions      [0 2 -2 0 0 0 0];

internalField   nonuniform List<scalar> 
6820
(
0.318932
0.614648
0.847397
0.983378
1.04836
1.06927
1.06475
1.0465
1.0217
0.994572
0.967459
0.941556
0.917414
0.895216
0.874952
0.856514
0.839751
0.824503
0.81061
0.797926
0.786319
0.775671
0.765876
0.756844
0.748492
0.74075
0.733554
0.726848
0.720563
0.714739
0.708826
0.705582
0.69055
0.838908
1.45739
1.5306
1.40689
1.25037
1.11087
0.996111
0.903238
0.827887
0.76631
0.715544
0.673419
0.638187
0.608546
0.583483
0.562195
0.54404
0.528503
0.515164
0.50368
0.493771
0.485204
0.477784
0.47135
0.465767
0.46092
0.456713
0.453069
0.449915
0.447227
0.444895
0.443137
0.441299
0.379893
0.662258
0.793337
0.827974
0.818185
0.790402
0.756381
0.72117
0.686891
0.654427
0.624111
0.596043
0.570195
0.546474
0.524757
0.504903
0.48677
0.470214
0.455101
0.441303
0.428703
0.417192
0.406671
0.397051
0.388251
0.380196
0.37282
0.366064
0.359872
0.354202
0.349002
0.344256
0.339902
0.246132
0.3393
0.411878
0.458885
0.485704
0.49888
0.503287
0.502158
0.497536
0.490704
0.482486
0.473435
0.46393
0.454239
0.44455
0.434992
0.425659
0.41661
0.407888
0.399514
0.391503
0.383859
0.376578
0.369655
0.363079
0.356841
0.350925
0.34532
0.340011
0.334984
0.330224
0.325724
0.321455
0.216724
0.25341
0.285799
0.312244
0.332455
0.347125
0.357301
0.364011
0.368096
0.370197
0.370789
0.37023
0.368792
0.366686
0.364075
0.361089
0.357829
0.354377
0.350797
0.347142
0.343452
0.339759
0.33609
0.332465
0.328898
0.325402
0.321987
0.318658
0.315421
0.312279
0.309234
0.306288
0.30344
0.2067
0.22375
0.239981
0.254416
0.266684
0.276738
0.28477
0.291069
0.295923
0.299585
0.302262
0.304127
0.305322
0.305962
0.306143
0.305944
0.305432
0.304663
0.303682
0.30253
0.30124
0.299841
0.298355
0.296804
0.295204
0.293571
0.291915
0.290249
0.28858
0.286917
0.285265
0.28363
0.282019
0.202776
0.211442
0.220463
0.228911
0.236465
0.243012
0.248579
0.253258
0.257158
0.260378
0.263012
0.265139
0.26683
0.268145
0.269136
0.269846
0.270314
0.270573
0.270652
0.270576
0.270366
0.270042
0.26962
0.269115
0.26854
0.267905
0.267222
0.266498
0.265741
0.264958
0.264155
0.263338
0.262512
0.201168
0.205683
0.210952
0.216189
0.221064
0.22544
0.229296
0.232659
0.235575
0.238089
0.240245
0.242083
0.243642
0.244952
0.246043
0.246939
0.247664
0.248237
0.248675
0.248995
0.249208
0.249329
0.249367
0.249332
0.249234
0.24908
0.248876
0.24863
0.248347
0.248032
0.24769
0.247324
0.246941
0.200484
0.202809
0.205913
0.20924
0.212483
0.215494
0.218222
0.220663
0.222834
0.224755
0.226448
0.227934
0.229235
0.230369
0.231352
0.232201
0.232928
0.233546
0.234066
0.234497
0.234849
0.23513
0.235347
0.235505
0.235613
0.235673
0.235692
0.235675
0.235624
0.235544
0.235438
0.235309
0.235162
0.200184
0.20134
0.203132
0.205234
0.207404
0.209501
0.211457
0.21325
0.214879
0.216349
0.217669
0.218852
0.219908
0.220849
0.221684
0.222423
0.223075
0.223648
0.224148
0.224583
0.224958
0.225279
0.225551
0.225778
0.225964
0.226113
0.226229
0.226315
0.226373
0.226407
0.226419
0.226411
0.226386
0.200051
0.200588
0.201579
0.202869
0.204298
0.205746
0.207146
0.208465
0.209689
0.210815
0.211845
0.212781
0.213631
0.214399
0.215093
0.215717
0.216278
0.21678
0.217229
0.217628
0.217983
0.218295
0.21857
0.21881
0.219018
0.219197
0.219349
0.219477
0.219583
0.219669
0.219737
0.219789
0.219826
0.199992
0.200208
0.200718
0.201471
0.202377
0.203351
0.204335
0.205293
0.206205
0.207061
0.207858
0.208595
0.209273
0.209895
0.210464
0.210983
0.211456
0.211885
0.212274
0.212626
0.212943
0.213229
0.213485
0.213714
0.213918
0.214099
0.214259
0.2144
0.214523
0.21463
0.214722
0.214801
0.214867
0.199966
0.200017
0.200248
0.200654
0.201196
0.201823
0.202489
0.203165
0.203829
0.204469
0.205076
0.205648
0.206182
0.206679
0.20714
0.207565
0.207957
0.208317
0.208647
0.208949
0.209225
0.209477
0.209706
0.209915
0.210103
0.210274
0.210428
0.210566
0.21069
0.210802
0.210901
0.21099
0.211068
0.199954
0.199924
0.199997
0.200187
0.200483
0.200858
0.201286
0.201741
0.202206
0.202669
0.203119
0.203552
0.203964
0.204353
0.204718
0.20506
0.205379
0.205675
0.20595
0.206204
0.206439
0.206655
0.206855
0.207038
0.207206
0.207359
0.2075
0.207629
0.207746
0.207853
0.207951
0.20804
0.208121
0.199949
0.199879
0.199866
0.199926
0.200061
0.200262
0.200513
0.200799
0.201107
0.201425
0.201744
0.20206
0.202367
0.202662
0.202944
0.203212
0.203464
0.203702
0.203925
0.204134
0.204329
0.20451
0.204678
0.204835
0.20498
0.205114
0.205239
0.205354
0.20546
0.205558
0.205649
0.205733
0.20581
0.199947
0.199858
0.199799
0.199785
0.19982
0.199903
0.200029
0.200189
0.200374
0.200577
0.200789
0.201006
0.201223
0.201437
0.201646
0.201847
0.202041
0.202225
0.202401
0.202566
0.202723
0.20287
0.203009
0.203138
0.20326
0.203373
0.20348
0.203579
0.203672
0.203758
0.203839
0.203915
0.203985
0.199947
0.199848
0.199766
0.19971
0.199685
0.199693
0.199734
0.199804
0.199898
0.20001
0.200137
0.200273
0.200415
0.20056
0.200704
0.200848
0.200988
0.201124
0.201256
0.201382
0.201503
0.201618
0.201727
0.201831
0.201929
0.202021
0.202109
0.202191
0.202269
0.202343
0.202412
0.202478
0.202539
0.199946
0.199843
0.19975
0.199672
0.199612
0.199575
0.19956
0.199568
0.199596
0.199642
0.199702
0.199774
0.199855
0.199941
0.200032
0.200125
0.200219
0.200312
0.200404
0.200494
0.200582
0.200667
0.200749
0.200827
0.200903
0.200975
0.201044
0.20111
0.201172
0.201232
0.201289
0.201344
0.201396
0.199946
0.199841
0.199743
0.199652
0.199574
0.199509
0.19946
0.199428
0.199411
0.199409
0.19942
0.199443
0.199475
0.199515
0.199562
0.199612
0.199666
0.199723
0.19978
0.199838
0.199896
0.199954
0.20001
0.200066
0.20012
0.200172
0.200223
0.200273
0.200321
0.200367
0.200412
0.200455
0.200497
0.199946
0.199841
0.199739
0.199643
0.199554
0.199474
0.199405
0.199347
0.199301
0.199266
0.199243
0.19923
0.199226
0.19923
0.199241
0.199257
0.199279
0.199304
0.199332
0.199363
0.199395
0.199428
0.199462
0.199497
0.199532
0.199567
0.199601
0.199635
0.199669
0.199703
0.199736
0.199768
0.1998
0.199946
0.19984
0.199737
0.199638
0.199544
0.199456
0.199375
0.199302
0.199237
0.199181
0.199135
0.199097
0.199067
0.199044
0.199029
0.199019
0.199015
0.199016
0.19902
0.199028
0.199039
0.199052
0.199067
0.199084
0.199102
0.199121
0.199141
0.199162
0.199183
0.199205
0.199227
0.19925
0.199272
0.199946
0.19984
0.199736
0.199636
0.199539
0.199446
0.199359
0.199277
0.199202
0.199133
0.199071
0.199017
0.19897
0.198929
0.198895
0.198866
0.198843
0.198825
0.198812
0.198802
0.198796
0.198793
0.198793
0.198796
0.1988
0.198807
0.198815
0.198825
0.198836
0.198848
0.198861
0.198875
0.19889
0.199946
0.19984
0.199736
0.199635
0.199536
0.199441
0.19935
0.199264
0.199182
0.199106
0.199036
0.198972
0.198914
0.198861
0.198815
0.198774
0.198739
0.198708
0.198682
0.198661
0.198643
0.198629
0.198618
0.19861
0.198605
0.198602
0.198602
0.198603
0.198607
0.198611
0.198618
0.198625
0.198634
0.199946
0.19984
0.199736
0.199634
0.199535
0.199439
0.199346
0.199257
0.199173
0.199093
0.199019
0.19895
0.198886
0.198828
0.198775
0.198728
0.198686
0.198648
0.198616
0.198587
0.198563
0.198543
0.198526
0.198512
0.198501
0.198493
0.198488
0.198484
0.198483
0.198483
0.198485
0.198489
0.198494
0.199946
0.19984
0.199735
0.199633
0.199534
0.199438
0.199345
0.199255
0.19917
0.19909
0.199015
0.198945
0.19888
0.198821
0.198767
0.198719
0.198676
0.198637
0.198603
0.198574
0.198549
0.198527
0.198509
0.198494
0.198482
0.198473
0.198466
0.198462
0.198459
0.198459
0.19846
0.198462
0.198466
0.199946
0.199839
0.199735
0.199633
0.199534
0.199438
0.199346
0.199258
0.199175
0.199097
0.199024
0.198958
0.198897
0.198842
0.198793
0.198749
0.19871
0.198676
0.198647
0.198622
0.198601
0.198584
0.19857
0.198559
0.198551
0.198545
0.198541
0.198539
0.19854
0.198541
0.198544
0.198549
0.198554
0.199946
0.19984
0.199735
0.199634
0.199536
0.199442
0.199352
0.199268
0.19919
0.199118
0.199053
0.198995
0.198944
0.198899
0.198861
0.198828
0.198801
0.198778
0.19876
0.198746
0.198736
0.198728
0.198724
0.198722
0.198722
0.198724
0.198728
0.198733
0.198739
0.198747
0.198755
0.198764
0.198774
0.199946
0.19984
0.199736
0.199636
0.199541
0.199451
0.199368
0.199292
0.199225
0.199167
0.199117
0.199075
0.199042
0.199016
0.198996
0.198983
0.198975
0.198971
0.198971
0.198975
0.198981
0.19899
0.199001
0.199013
0.199026
0.199041
0.199056
0.199072
0.199087
0.199104
0.19912
0.199136
0.199153
0.199946
0.199841
0.199739
0.199643
0.199554
0.199475
0.199405
0.199348
0.199302
0.199268
0.199245
0.199232
0.199229
0.199233
0.199243
0.19926
0.19928
0.199304
0.199331
0.19936
0.19939
0.199421
0.199452
0.199483
0.199514
0.199544
0.199574
0.199603
0.199631
0.199658
0.199684
0.19971
0.199734
0.199947
0.199843
0.199747
0.19966
0.199587
0.19953
0.199491
0.199468
0.199463
0.199472
0.199495
0.199529
0.199572
0.199622
0.199677
0.199736
0.199796
0.199858
0.199919
0.19998
0.20004
0.200098
0.200154
0.200208
0.200259
0.200308
0.200354
0.200398
0.20044
0.200478
0.200515
0.200549
0.200582
0.199948
0.19985
0.199767
0.199705
0.199669
0.199661
0.19968
0.199725
0.199791
0.199875
0.199971
0.200078
0.200189
0.200304
0.20042
0.200534
0.200645
0.200753
0.200857
0.200955
0.201049
0.201137
0.20122
0.201298
0.20137
0.201438
0.201501
0.201559
0.201612
0.201662
0.201708
0.20175
0.201788
0.199951
0.199869
0.199823
0.199821
0.199868
0.199962
0.200096
0.200262
0.200449
0.20065
0.200858
0.201067
0.201273
0.201472
0.201663
0.201844
0.202015
0.202175
0.202324
0.202462
0.202589
0.202707
0.202815
0.202914
0.203005
0.203088
0.203164
0.203232
0.203295
0.203351
0.203402
0.203447
0.203488
0.199959
0.199926
0.199977
0.200121
0.200351
0.200649
0.200993
0.201362
0.201739
0.202113
0.202473
0.202816
0.203137
0.203435
0.20371
0.203963
0.204193
0.204403
0.204593
0.204765
0.204921
0.205061
0.205187
0.205301
0.205402
0.205492
0.205573
0.205644
0.205707
0.205762
0.205811
0.205853
0.205889
0.199987
0.200103
0.200415
0.200903
0.201515
0.202193
0.20289
0.203572
0.204217
0.204816
0.205363
0.205858
0.206302
0.206698
0.207052
0.207365
0.207643
0.207888
0.208104
0.208295
0.208463
0.208609
0.208738
0.208849
0.208946
0.209029
0.2091
0.20916
0.20921
0.209252
0.209285
0.209311
0.20933
0.200091
0.200674
0.201674
0.202931
0.204281
0.205607
0.206838
0.207945
0.208922
0.209772
0.210508
0.211141
0.211683
0.212148
0.212546
0.212885
0.213174
0.213421
0.213629
0.213806
0.213954
0.214077
0.214179
0.214261
0.214327
0.214377
0.214415
0.21444
0.214455
0.21446
0.214457
0.214446
0.214429
0.200506
0.202612
0.20538
0.20823
0.210863
0.213156
0.215082
0.216669
0.217964
0.219015
0.219866
0.220552
0.221105
0.22155
0.221907
0.222191
0.222416
0.222592
0.222726
0.222824
0.222893
0.222937
0.222958
0.22296
0.222946
0.222917
0.222875
0.222821
0.222758
0.222686
0.222606
0.222518
0.222425
0.202133
0.209236
0.216717
0.222799
0.227378
0.23075
0.233208
0.234988
0.236273
0.237193
0.237847
0.238306
0.238619
0.238825
0.238946
0.239003
0.239008
0.238971
0.2389
0.238799
0.238674
0.238527
0.238362
0.238181
0.237986
0.237778
0.237559
0.237331
0.237094
0.23685
0.236599
0.236343
0.236082
0.208298
0.22678
0.244129
0.257372
0.266317
0.271773
0.274802
0.276303
0.276882
0.276921
0.276649
0.276201
0.275653
0.275051
0.274418
0.273765
0.273101
0.272428
0.271747
0.27106
0.270365
0.269665
0.268959
0.268248
0.267533
0.266815
0.266095
0.265374
0.264653
0.263933
0.263215
0.2625
0.261789
0.245775
0.310442
0.343758
0.358932
0.365581
0.368297
0.368993
0.368462
0.367138
0.3653
0.363136
0.360774
0.358305
0.355793
0.353284
0.350808
0.348387
0.346036
0.343763
0.341573
0.339469
0.337451
0.33552
0.333674
0.33191
0.330227
0.328621
0.32709
0.32563
0.32424
0.322916
0.321656
0.320455
0.214305
0.253643
0.294732
0.333812
0.370031
0.403432
0.434077
0.462012
0.487322
0.510132
0.530592
0.548865
0.565116
0.579516
0.592228
0.603409
0.613209
0.621766
0.629208
0.635651
0.641203
0.645961
0.650011
0.653434
0.656298
0.658669
0.660602
0.662147
0.66335
0.664251
0.664886
0.665285
0.665484
0.751792
0.848483
0.994028
1.17442
1.37284
1.56909
1.74629
1.89459
2.01073
2.09632
2.15514
2.19198
2.21197
2.21994
2.21986
2.21459
2.20609
2.19552
2.18363
2.17079
2.15729
2.14329
2.12895
2.11436
2.0996
2.08469
2.06957
2.05414
2.03828
2.02181
2.00455
1.98634
1.96699
1.9463
1.92407
1.90016
1.87446
1.84687
1.81731
1.78576
1.75221
1.71668
1.67926
1.64003
1.59916
1.55685
1.51333
1.46886
1.42374
1.37829
1.33287
1.28784
1.24354
1.20033
1.15856
1.11853
1.08053
1.0448
1.01155
0.980944
0.953097
0.928082
0.905934
0.886646
0.870181
0.856472
0.845428
0.836936
0.83087
0.827089
0.825444
0.825778
0.827927
0.831722
0.836991
0.843557
0.85124
0.859861
0.86924
0.879197
0.889555
0.900144
0.910797
0.921354
0.931668
0.941601
0.951027
0.959833
0.967917
0.975192
0.981582
0.987028
0.99147
0.994883
0.997215
0.998477
0.99865
0.997682
0.996127
0.99217
0.440556
0.449222
0.468442
0.501606
0.551263
0.618163
0.700535
0.794746
0.89688
1.00371
1.11139
1.21659
1.31597
1.40642
1.48557
1.55214
1.60614
1.6484
1.68042
1.70377
1.71993
1.73012
1.73544
1.73674
1.7347
1.72983
1.72253
1.71311
1.70175
1.68861
1.67376
1.65725
1.63911
1.61933
1.59789
1.57477
1.54996
1.52347
1.49532
1.46555
1.43423
1.40144
1.36732
1.33199
1.29565
1.25849
1.22075
1.18269
1.14456
1.10667
1.06928
1.03269
0.997186
0.96302
0.930438
0.899657
0.870865
0.844214
0.819824
0.79778
0.778133
0.760906
0.746091
0.733657
0.723552
0.715706
0.710036
0.706447
0.704837
0.705096
0.707108
0.710753
0.715909
0.722446
0.730233
0.739133
0.749004
0.759704
0.771084
0.782993
0.795282
0.807801
0.8204
0.832932
0.845261
0.857254
0.868786
0.879744
0.890024
0.899534
0.90819
0.915926
0.922676
0.928405
0.933053
0.936623
0.939088
0.940402
0.940971
0.940048
0.335305
0.330728
0.326931
0.324584
0.32482
0.328873
0.337821
0.352245
0.372872
0.400696
0.436468
0.480722
0.533498
0.594039
0.660685
0.731068
0.802425
0.872062
0.937853
0.997747
1.05067
1.09625
1.13455
1.16589
1.19079
1.20994
1.22393
1.23331
1.23858
1.24018
1.2385
1.23384
1.22647
1.21661
1.20445
1.19013
1.17381
1.15562
1.1357
1.11419
1.09123
1.06698
1.04163
1.01534
0.988308
0.960753
0.93289
0.904946
0.877152
0.849739
0.822932
0.796949
0.771993
0.74825
0.725885
0.70504
0.685834
0.668358
0.65268
0.638844
0.626871
0.616764
0.608507
0.602071
0.597416
0.594488
0.593231
0.59358
0.595466
0.598817
0.603556
0.609605
0.616882
0.625298
0.634762
0.645177
0.656438
0.668442
0.681068
0.694199
0.707712
0.721478
0.735366
0.749246
0.76299
0.776474
0.789575
0.802183
0.814189
0.825498
0.83602
0.845681
0.854406
0.86215
0.868846
0.874484
0.879029
0.882441
0.884977
0.886896
0.316774
0.311655
0.306663
0.301825
0.297259
0.293164
0.289802
0.287447
0.286393
0.286846
0.289223
0.294044
0.301911
0.313423
0.329118
0.349321
0.374134
0.403294
0.436369
0.472461
0.510556
0.549388
0.587884
0.624761
0.659294
0.690669
0.718348
0.742231
0.762277
0.778608
0.791382
0.800781
0.80702
0.81032
0.810902
0.808984
0.804773
0.79847
0.790272
0.78037
0.768955
0.756218
0.742351
0.727549
0.712005
0.695917
0.67948
0.662888
0.646331
0.629992
0.614046
0.598655
0.583967
0.570117
0.55722
0.545376
0.534667
0.525156
0.516892
0.509906
0.504217
0.499831
0.496746
0.49495
0.494423
0.495141
0.497076
0.500197
0.504467
0.509851
0.51631
0.523799
0.532274
0.541683
0.551971
0.563076
0.57493
0.587459
0.600576
0.614193
0.628212
0.642527
0.657026
0.671599
0.686128
0.700496
0.71459
0.728298
0.741513
0.754136
0.76607
0.777236
0.787548
0.796952
0.805373
0.812786
0.81915
0.824422
0.828724
0.833234
0.300239
0.296661
0.29311
0.289573
0.286051
0.282567
0.279164
0.275903
0.272853
0.270088
0.267681
0.265736
0.264396
0.26384
0.264283
0.265951
0.269087
0.273904
0.280609
0.289322
0.300117
0.312908
0.327573
0.343769
0.361178
0.379313
0.397671
0.415716
0.433064
0.449301
0.464086
0.477234
0.488607
0.498135
0.505809
0.511657
0.515744
0.518154
0.518992
0.518377
0.516439
0.513315
0.509149
0.504088
0.498283
0.491884
0.48504
0.477898
0.470602
0.463287
0.456082
0.449109
0.442477
0.436286
0.430624
0.425566
0.421179
0.417515
0.414619
0.412524
0.411255
0.41083
0.411261
0.412555
0.414713
0.417734
0.421614
0.426347
0.431925
0.438338
0.445574
0.453618
0.462454
0.472057
0.482403
0.493458
0.505187
0.517538
0.530459
0.543886
0.557743
0.571949
0.586414
0.601045
0.615737
0.630387
0.644889
0.659134
0.673018
0.68644
0.699301
0.711514
0.722986
0.733651
0.74343
0.752282
0.760159
0.767009
0.772833
0.779624
0.280166
0.278049
0.275907
0.273733
0.271517
0.26926
0.266972
0.264667
0.262367
0.260093
0.257871
0.255727
0.253692
0.251806
0.250123
0.248703
0.247619
0.246951
0.246792
0.24723
0.248362
0.250267
0.25302
0.256653
0.261185
0.266578
0.272768
0.279615
0.286988
0.294702
0.302558
0.310363
0.317935
0.325117
0.331773
0.337797
0.343112
0.347667
0.351439
0.354427
0.356653
0.358153
0.358978
0.359193
0.358868
0.358085
0.356925
0.355475
0.353823
0.352053
0.35025
0.348492
0.346857
0.345412
0.344224
0.343348
0.342836
0.342733
0.343077
0.343903
0.345237
0.347105
0.349524
0.352512
0.356083
0.360248
0.365018
0.3704
0.376404
0.383035
0.3903
0.398201
0.40674
0.415914
0.42572
0.436147
0.447184
0.458798
0.470963
0.48364
0.496776
0.510311
0.524177
0.538299
0.552593
0.566965
0.58132
0.595561
0.609585
0.623293
0.636586
0.649372
0.661557
0.67306
0.6838
0.693719
0.702766
0.710878
0.717944
0.726659
0.261537
0.260396
0.259213
0.257985
0.256705
0.25537
0.253982
0.252545
0.251069
0.249562
0.248037
0.246502
0.244969
0.243447
0.241952
0.240499
0.239109
0.237805
0.236618
0.23558
0.234729
0.234105
0.233749
0.233701
0.234
0.234673
0.235744
0.237217
0.239086
0.241326
0.2439
0.246755
0.249826
0.253044
0.256336
0.259629
0.262856
0.265957
0.268882
0.271592
0.27406
0.27627
0.278217
0.279908
0.281358
0.28259
0.283634
0.284525
0.285303
0.286009
0.286687
0.287382
0.288137
0.288994
0.289993
0.291173
0.292569
0.294213
0.296135
0.298362
0.300917
0.303821
0.307095
0.310756
0.31482
0.319303
0.324219
0.329584
0.335411
0.341715
0.348509
0.355807
0.36362
0.37196
0.380839
0.390258
0.400223
0.410719
0.42174
0.433267
0.445269
0.457707
0.470533
0.483694
0.49712
0.510738
0.524465
0.538214
0.551892
0.565406
0.578658
0.591557
0.604006
0.61592
0.627213
0.637812
0.647662
0.656696
0.664696
0.674936
0.246471
0.245901
0.245292
0.244641
0.243943
0.243194
0.242393
0.241544
0.240649
0.239714
0.238745
0.237748
0.236727
0.235686
0.23463
0.233564
0.232494
0.231428
0.230376
0.229349
0.228361
0.227429
0.226569
0.225803
0.225151
0.224633
0.224269
0.224078
0.224073
0.224265
0.224658
0.225252
0.226037
0.227003
0.228128
0.229392
0.230768
0.232229
0.233748
0.235302
0.236867
0.238427
0.239966
0.241477
0.242955
0.244402
0.245824
0.247229
0.248631
0.250047
0.251495
0.252996
0.254572
0.256244
0.258035
0.259966
0.262059
0.264332
0.266806
0.269498
0.272424
0.2756
0.279041
0.28276
0.286771
0.291087
0.295724
0.300694
0.306014
0.311698
0.317763
0.324223
0.331101
0.338412
0.346176
0.354399
0.3631
0.372282
0.381948
0.392097
0.402717
0.413788
0.425282
0.437161
0.449379
0.461878
0.474594
0.487453
0.500374
0.513274
0.526063
0.538651
0.550946
0.56286
0.574304
0.585198
0.595482
0.605084
0.613701
0.625038
0.234966
0.234714
0.234429
0.23411
0.233752
0.233353
0.232911
0.232427
0.231903
0.231343
0.230749
0.230125
0.229474
0.228798
0.2281
0.227381
0.226643
0.225889
0.225124
0.224352
0.223577
0.222807
0.22205
0.221313
0.220607
0.219943
0.219333
0.218789
0.218323
0.217946
0.217668
0.217498
0.217442
0.217504
0.217686
0.217987
0.218403
0.218929
0.219558
0.220282
0.221093
0.221983
0.222946
0.223975
0.225067
0.226221
0.227436
0.228714
0.23006
0.23148
0.23298
0.234571
0.236261
0.238062
0.239984
0.242038
0.244236
0.246588
0.249104
0.251794
0.254668
0.257735
0.261004
0.264484
0.268183
0.272113
0.276282
0.280703
0.285389
0.290351
0.295608
0.301174
0.307072
0.313318
0.319932
0.326931
0.334336
0.342161
0.350418
0.359116
0.36826
0.377844
0.387858
0.39828
0.409083
0.420229
0.431669
0.443347
0.455198
0.467151
0.479126
0.491044
0.502817
0.51436
0.525587
0.536411
0.546772
0.556593
0.565514
0.577508
0.226336
0.226255
0.226149
0.226016
0.225854
0.225659
0.22543
0.225168
0.224873
0.224547
0.224193
0.223813
0.22341
0.222983
0.222536
0.222068
0.221581
0.221077
0.220557
0.220023
0.219478
0.218925
0.218366
0.217806
0.21725
0.216704
0.216173
0.215665
0.215187
0.214748
0.214356
0.214018
0.213742
0.213536
0.213405
0.213356
0.213391
0.213515
0.21373
0.214036
0.214434
0.214925
0.215508
0.216182
0.216949
0.217808
0.218761
0.219809
0.220955
0.222201
0.223553
0.225013
0.226586
0.228278
0.230094
0.232038
0.234116
0.236332
0.238692
0.241199
0.243858
0.246672
0.249646
0.252784
0.256092
0.259573
0.263236
0.267088
0.271138
0.275396
0.279878
0.284598
0.289572
0.294818
0.300356
0.306206
0.31239
0.318926
0.325833
0.333128
0.340823
0.348927
0.35744
0.366357
0.375667
0.385348
0.395369
0.405691
0.416267
0.427039
0.437943
0.44891
0.459865
0.470726
0.481416
0.491846
0.501959
0.511675
0.520599
0.532823
0.219852
0.219862
0.219853
0.219824
0.219772
0.219695
0.219592
0.219463
0.219308
0.219129
0.218927
0.218704
0.218462
0.218201
0.217922
0.217627
0.217317
0.216991
0.216653
0.216302
0.215939
0.215568
0.215188
0.214802
0.214413
0.214023
0.213637
0.213258
0.212891
0.212541
0.212214
0.211915
0.211652
0.21143
0.211256
0.211135
0.211074
0.211078
0.211153
0.211302
0.211531
0.211843
0.212242
0.21273
0.213311
0.213988
0.214763
0.215639
0.21662
0.217707
0.218904
0.220214
0.221638
0.22318
0.224842
0.226625
0.228532
0.230564
0.232722
0.235006
0.237416
0.239955
0.242621
0.245415
0.248339
0.251396
0.254587
0.257917
0.261393
0.265023
0.268817
0.272786
0.276945
0.281309
0.285897
0.290728
0.295824
0.301204
0.30689
0.312903
0.31926
0.325977
0.333065
0.34053
0.348373
0.356585
0.365153
0.374053
0.383253
0.392713
0.402385
0.412212
0.422133
0.432077
0.441976
0.451745
0.461333
0.470657
0.479315
0.491372
0.214931
0.214988
0.215031
0.215058
0.215068
0.215059
0.215031
0.214982
0.214913
0.214825
0.21472
0.214597
0.21446
0.214308
0.214142
0.213964
0.213775
0.213575
0.213364
0.213145
0.212918
0.212683
0.212443
0.212197
0.211948
0.211697
0.211447
0.211201
0.21096
0.210729
0.210512
0.210313
0.210136
0.209987
0.20987
0.209791
0.209756
0.209771
0.20984
0.20997
0.210165
0.21043
0.210772
0.211194
0.2117
0.212295
0.212983
0.213767
0.21465
0.215637
0.216728
0.217927
0.219234
0.220653
0.222182
0.223824
0.225576
0.227439
0.229412
0.231492
0.233678
0.235967
0.238358
0.240848
0.243437
0.246122
0.248906
0.251789
0.254775
0.257868
0.261077
0.264409
0.267876
0.271492
0.275271
0.279233
0.283395
0.287778
0.292404
0.297293
0.302466
0.307943
0.313741
0.319872
0.326347
0.333169
0.340334
0.347835
0.355653
0.363764
0.372134
0.380721
0.389479
0.398349
0.407277
0.416183
0.425028
0.433728
0.441891
0.453435
0.211149
0.211229
0.211297
0.211354
0.211398
0.211427
0.211442
0.211441
0.211425
0.211394
0.211349
0.211292
0.211223
0.211144
0.211054
0.210955
0.210849
0.210735
0.210615
0.21049
0.21036
0.210226
0.210088
0.209949
0.209809
0.209669
0.209531
0.209396
0.209268
0.209148
0.209039
0.208945
0.208868
0.208813
0.208784
0.208786
0.208822
0.208899
0.209021
0.209194
0.209422
0.209711
0.210065
0.210491
0.210992
0.211572
0.212238
0.212991
0.213835
0.214774
0.21581
0.216944
0.218179
0.219514
0.22095
0.222485
0.224119
0.225849
0.227673
0.229587
0.231587
0.23367
0.235832
0.238069
0.240378
0.242756
0.245201
0.247712
0.250291
0.25294
0.255664
0.258469
0.261363
0.264358
0.267466
0.270703
0.274084
0.27763
0.281359
0.285292
0.289451
0.293855
0.298525
0.303478
0.308728
0.314287
0.320161
0.326351
0.332851
0.339649
0.346726
0.354053
0.361599
0.369318
0.377169
0.385083
0.393031
0.400935
0.408425
0.419174
0.208206
0.208294
0.208373
0.208444
0.208505
0.208555
0.208594
0.208621
0.208637
0.208641
0.208636
0.208621
0.208597
0.208565
0.208526
0.208482
0.208433
0.208379
0.208322
0.208263
0.208203
0.208141
0.20808
0.20802
0.207962
0.207907
0.207856
0.207811
0.207774
0.207747
0.207731
0.20773
0.207746
0.207782
0.207842
0.20793
0.208049
0.208204
0.208398
0.208638
0.208927
0.20927
0.209671
0.210137
0.21067
0.211275
0.211957
0.212718
0.213563
0.214493
0.215511
0.216618
0.217816
0.219103
0.22048
0.221945
0.223495
0.225127
0.226839
0.228624
0.23048
0.232399
0.234378
0.236411
0.238493
0.240621
0.24279
0.244998
0.247246
0.249532
0.25186
0.254235
0.256661
0.259148
0.261706
0.264347
0.267086
0.26994
0.272926
0.276063
0.27937
0.282869
0.286579
0.290519
0.294706
0.299156
0.303881
0.308889
0.314182
0.319759
0.325611
0.331722
0.338073
0.344631
0.351369
0.358229
0.365192
0.37219
0.378884
0.388629
0.205893
0.205981
0.206062
0.206137
0.206205
0.206264
0.206316
0.206359
0.206393
0.206419
0.206438
0.206449
0.206455
0.206455
0.206451
0.206443
0.206433
0.206422
0.206409
0.206397
0.206387
0.206378
0.206372
0.20637
0.206373
0.206382
0.206398
0.206423
0.206458
0.206505
0.206565
0.206642
0.206737
0.206853
0.206992
0.207159
0.207356
0.207588
0.207857
0.208168
0.208525
0.208932
0.209394
0.209914
0.210496
0.211145
0.211864
0.212655
0.213522
0.214467
0.215492
0.216597
0.217782
0.219048
0.220393
0.221814
0.223309
0.224873
0.226502
0.228192
0.229935
0.231728
0.233562
0.235433
0.237334
0.23926
0.241206
0.24317
0.245149
0.247141
0.249149
0.251173
0.25322
0.255294
0.257405
0.259563
0.261779
0.264068
0.266444
0.268926
0.271532
0.274278
0.277186
0.280274
0.28356
0.28706
0.290791
0.294763
0.298987
0.303466
0.3082
0.313184
0.318408
0.323849
0.329494
0.335296
0.341248
0.347288
0.353118
0.361724
0.204062
0.204144
0.204222
0.204295
0.204363
0.204426
0.204483
0.204533
0.204577
0.204616
0.204649
0.204677
0.204702
0.204723
0.204742
0.204759
0.204776
0.204793
0.204812
0.204833
0.204858
0.204887
0.204922
0.204963
0.205011
0.205068
0.205135
0.205213
0.205304
0.205409
0.20553
0.205669
0.205828
0.20601
0.206217
0.206452
0.206718
0.207017
0.207355
0.207733
0.208156
0.208626
0.209149
0.209726
0.210363
0.211061
0.211824
0.212655
0.213556
0.214527
0.215572
0.216689
0.217878
0.219138
0.220468
0.221864
0.223323
0.22484
0.226411
0.228028
0.229687
0.23138
0.2331
0.234842
0.236598
0.238362
0.240129
0.241895
0.243656
0.24541
0.247158
0.2489
0.250639
0.252379
0.254128
0.255894
0.257686
0.259516
0.261399
0.263347
0.265378
0.267509
0.269756
0.272137
0.274671
0.277374
0.280262
0.283349
0.286648
0.290167
0.293912
0.297883
0.30208
0.306489
0.311104
0.315892
0.320851
0.325933
0.33088
0.338284
0.202607
0.202681
0.202752
0.20282
0.202885
0.202946
0.203003
0.203055
0.203104
0.203148
0.20319
0.203228
0.203264
0.203298
0.203332
0.203366
0.203401
0.203438
0.203479
0.203524
0.203574
0.20363
0.203694
0.203766
0.203847
0.20394
0.204045
0.204163
0.204296
0.204446
0.204614
0.204802
0.205012
0.205247
0.205509
0.2058
0.206123
0.206481
0.206877
0.207313
0.207794
0.208322
0.2089
0.209531
0.210219
0.210966
0.211774
0.212646
0.213582
0.214584
0.215653
0.216789
0.217989
0.219253
0.220578
0.22196
0.223395
0.224879
0.226406
0.227968
0.22956
0.231175
0.232805
0.234442
0.236081
0.237714
0.239335
0.24094
0.242524
0.244085
0.245621
0.247133
0.248623
0.250093
0.251549
0.252998
0.254447
0.255907
0.257389
0.258906
0.260471
0.2621
0.263808
0.265611
0.267525
0.269568
0.271753
0.274097
0.276612
0.27931
0.2822
0.285286
0.288573
0.292054
0.295732
0.29958
0.303606
0.30777
0.311856
0.318054
0.201453
0.201517
0.201579
0.20164
0.201698
0.201754
0.201808
0.20186
0.201909
0.201955
0.202
0.202043
0.202086
0.202128
0.202171
0.202216
0.202263
0.202314
0.202369
0.20243
0.202497
0.202572
0.202657
0.202751
0.202857
0.202975
0.203108
0.203256
0.203421
0.203604
0.203808
0.204034
0.204284
0.20456
0.204865
0.2052
0.205569
0.205974
0.206418
0.206903
0.207432
0.208008
0.208634
0.209312
0.210045
0.210834
0.211682
0.212591
0.213561
0.214592
0.215685
0.216839
0.218052
0.219322
0.220645
0.222019
0.223437
0.224895
0.226387
0.227906
0.229444
0.230994
0.232549
0.234101
0.235642
0.237167
0.238667
0.240139
0.241578
0.24298
0.244344
0.245668
0.246955
0.248205
0.249423
0.250615
0.251787
0.252948
0.254107
0.255275
0.256464
0.257687
0.258958
0.260291
0.261701
0.263202
0.26481
0.266538
0.2684
0.270408
0.272572
0.274901
0.2774
0.28007
0.282916
0.285921
0.289094
0.292408
0.295686
0.300725
0.200544
0.200596
0.200649
0.2007
0.200751
0.200801
0.20085
0.200898
0.200945
0.20099
0.201036
0.201081
0.201126
0.201173
0.201221
0.201272
0.201327
0.201386
0.20145
0.201522
0.201601
0.201689
0.201787
0.201897
0.20202
0.202156
0.202308
0.202477
0.202665
0.202873
0.203103
0.203357
0.203636
0.203944
0.204281
0.204651
0.205055
0.205497
0.205977
0.2065
0.207068
0.207682
0.208346
0.209061
0.20983
0.210655
0.211536
0.212475
0.213471
0.214526
0.215639
0.216808
0.218031
0.219305
0.220626
0.221991
0.223394
0.224829
0.226291
0.22777
0.229261
0.230756
0.232247
0.233725
0.235184
0.236616
0.238015
0.239376
0.240692
0.241962
0.243183
0.244352
0.245471
0.246542
0.247566
0.248549
0.249497
0.250416
0.251314
0.252201
0.253087
0.253983
0.254902
0.255855
0.256857
0.257919
0.259055
0.260279
0.261604
0.26304
0.264599
0.266289
0.268121
0.270095
0.27222
0.274485
0.276902
0.27945
0.281993
0.285954
0.199836
0.199878
0.19992
0.199962
0.200005
0.200048
0.200091
0.200134
0.200177
0.20022
0.200263
0.200308
0.200354
0.200402
0.200453
0.200507
0.200565
0.200629
0.2007
0.200777
0.200864
0.20096
0.201067
0.201187
0.20132
0.201468
0.201634
0.201817
0.20202
0.202245
0.202493
0.202766
0.203066
0.203395
0.203756
0.20415
0.204579
0.205047
0.205555
0.206106
0.206701
0.207344
0.208036
0.208779
0.209574
0.210424
0.211328
0.212289
0.213304
0.214375
0.2155
0.216678
0.217905
0.219178
0.220493
0.221847
0.223232
0.224643
0.226074
0.227516
0.228963
0.230406
0.231838
0.23325
0.234636
0.235987
0.237297
0.238561
0.239774
0.240931
0.24203
0.24307
0.24405
0.244972
0.245837
0.246649
0.247414
0.248136
0.248823
0.249484
0.250126
0.250759
0.251395
0.252043
0.252715
0.253423
0.254179
0.254994
0.25588
0.256848
0.257908
0.25907
0.260343
0.261732
0.263243