/*--------------------------------*- C++ -*----------------------------------*\
  =========                 |
  \\      /  F ield         | OpenFOAM: The Open Source CFD Toolbox
   \\    /   O peration     | Website:  https://openfoam.org
    \\  /    A nd           | Version:  10
     \\/     M anipulation  |
\*---------------------------------------------------------------------------*/
FoamFile
{
    format      ascii;
    class       volScalarField;
    location    "1300";
    object      omega;
}
// * * * * * * * * * * * * * * * * * * * * * * * * * * * * * * * * * * * * * //

dimensions      [0 0 -1 0 0 0 0];

internalField   nonuniform List<scalar> 
6820
(
6119.65
8495.53
9975.17
10745.8
11095.1
11205.2
11181.5
11085.3
10953.1
10806.8
10658.4
10514.8
10379.1
10252.8
10136.1
10028.7
9930.07
9839.5
9756.25
9679.62
9608.96
9543.67
9483.23
9427.14
9374.98
9326.37
9280.96
9238.45
9198.41
9161.2
9123.37
9101.69
8998.69
563.863
1593.66
2118.99
2485.29
2810.04
3047.21
3202.64
3297.98
3354.17
3382.65
3395.35
3394.49
3390.56
3382.3
3371.89
3361.05
3350.53
3340.71
3331.86
3324.04
3317.31
3311.6
3306.9
3303.08
3300.12
3297.91
3296.47
3295.63
3295.8
3296.62
3298.23
3301.71
3311.23
97.8512
383.671
612.513
783.211
925.912
1044.15
1139.72
1215.41
1275.18
1321.46
1357.37
1384.53
1405.16
1420.61
1432.05
1440.37
1446.35
1450.52
1453.37
1455.22
1456.38
1457.03
1457.37
1457.5
1457.54
1457.56
1457.63
1457.8
1458.14
1458.59
1459.5
1460.44
1462.64
35.0872
109.689
194.406
270.89
340.029
401.75
456.059
503.312
544.328
579.675
610.092
636.128
658.405
677.424
693.681
707.537
719.395
729.497
738.174
745.562
751.953
757.386
762.146
766.171
769.779
772.796
775.61
777.912
780.211
782.022
784.048
785.588
787.548
22.8645
46.9744
78.9735
111.645
143.697
174.308
202.955
229.405
253.675
275.804
295.908
314.101
330.538
345.356
358.716
370.737
381.575
391.321
400.123
408.038
415.209
421.659
427.53
432.809
437.649
441.997
446.021
449.632
453.019
456.057
458.96
461.576
464.127
19.4482
28.8211
42.7198
57.8276
73.3611
88.8415
103.932
118.422
132.214
145.247
157.503
168.976
179.69
189.667
198.948
207.564
215.565
222.981
229.864
236.24
242.162
247.646
252.747
257.473
261.88
265.965
269.785
273.332
276.662
279.761
282.688
285.421
288.021
18.2937
22.3026
29.0894
36.8342
45.0409
53.4276
61.8037
70.042
78.0648
85.8188
93.2711
100.401
107.199
113.664
119.8
125.611
131.111
136.309
141.22
145.855
150.231
154.358
158.255
161.93
165.402
168.677
171.775
174.7
177.471
180.091
182.58
184.938
187.185
17.8628
19.6407
23.1435
27.4253
32.1054
36.9869
41.946
46.901
51.7981
56.5996
61.2795
65.8192
70.2077
74.4371
78.5045
82.4079
86.1493
89.73
93.1546
96.4263
99.5513
102.533
105.38
108.095
110.685
113.156
115.514
117.764
119.913
121.964
123.926
125.8
127.595
17.6921
18.5022
20.2904
22.7591
25.5623
28.5575
31.6531
34.789
37.925
41.0328
44.0924
47.0892
50.0133
52.8576
55.6174
58.2898
60.8733
63.3674
65.7727
68.0899
70.321
72.4674
74.5317
76.5161
78.4234
80.256
82.017
83.7088
85.3347
86.8971
88.3992
89.8432
91.2321
17.6213
17.9912
18.8824
20.3079
22.0195
23.9107
25.9093
27.9667
30.05
32.1359
34.2079
36.254
38.2654
40.2358
42.1608
44.037
45.8624
47.6356
49.3561
51.0236
52.6384
54.2009
55.712
57.1727
58.5841
59.9474
61.264
62.5352
63.7627
64.9477
66.0918
67.1963
68.2628
17.591
17.7573
18.1874
18.9891
20.029
21.2312
22.54
23.916
25.3312
26.7655
28.2045
29.6375
31.0565
32.4559
33.8312
35.1793
36.498
37.7854
39.0407
40.263
41.452
42.6077
43.7302
44.8197
45.8768
46.902
47.8959
48.8591
49.7925
50.6968
51.5728
52.4213
53.2429
17.5777
17.6499
17.8528
18.2782
18.8974
19.6531
20.5077
21.4311
22.4002
23.3977
24.4109
25.43
26.4478
27.4588
28.4588
29.4446
30.4138
31.3647
32.296
33.2067
34.0961
34.9639
35.8098
36.6339
37.436
38.2165
38.9756
39.7135
40.4307
41.1274
41.8042
42.4615
43.0996
17.5717
17.6008
17.6934
17.9051
18.2597
18.7223
19.2706
19.8837
20.5439
21.2371
21.9523
22.6808
23.416
24.1527
24.8868
25.6153
26.3357
27.0462
27.7452
28.4318
29.105
29.7643
30.4092
31.0395
31.6551
32.2558
32.8416
33.4127
33.9692
34.5112
35.0389
35.5526
36.0524
17.5685
17.5785
17.6181
17.7167
17.9085
18.1807
18.5221
18.92
19.3623
19.8384
20.3392
20.8575
21.3874
21.9242
22.4641
23.0041
23.5418
24.0753
24.6031
25.124
25.6371
26.1416
26.6369
27.1227
27.5987
28.0645
28.5202
28.9656
29.4007
29.8255
30.24
30.6445
31.0388
17.5667
17.5684
17.5829
17.6262
17.7205
17.8733
18.0775
18.3273
18.6156
18.9354
19.2799
19.6435
20.0213
20.4092
20.8038
21.2024
21.6026
22.0027
22.4011
22.7965
23.1881
23.5749
23.9563
24.3318
24.7011
25.0637
25.4195
25.7683
26.11
26.4445
26.7717
27.0916
27.4042
17.5661
17.5629
17.5666
17.5833
17.6249
17.7047
17.8205
17.9706
18.1518
18.3599
18.5907
18.8401
19.1043
19.38
19.6645
19.9553
20.2503
20.5479
20.8466
21.1452
21.4427
21.7383
22.0312
22.321
22.6071
22.8892
23.167
23.4402
23.7087
23.9723
24.2309
24.4843
24.7326
17.5661
17.5601
17.5585
17.5631
17.5791
17.6155
17.6769
17.7623
17.8709
18.001
18.1502
18.3159
18.4957
18.6871
18.8878
19.096
19.31
19.5281
19.7492
19.9721
20.1959
20.4197
20.643
20.865
21.0854
21.3038
21.5197
21.7329
21.9431
22.1503
22.3541
22.5546
22.7515
17.5661
17.5591
17.5541
17.5533
17.5575
17.5711
17.5997
17.6448
17.7061
17.7833
17.8755
17.9813
18.0994
18.228
18.3657
18.511
18.6625
18.8191
18.9796
19.1431
19.3088
19.476
19.6439
19.8121
19.98
20.1473
20.3136
20.4787
20.6422
20.8039
20.9636
21.1213
21.2767
17.5662
17.5588
17.5523
17.5479
17.5469
17.5501
17.5603
17.5811
17.6128
17.6556
17.7093
17.7736
17.8477
17.9307
18.0218
18.1198
18.224
18.3333
18.4469
18.5641
18.6842
18.8066
18.9306
19.0559
19.1819
19.3083
19.4348
19.561
19.6867
19.8117
19.9358
20.0587
20.1804
17.5662
17.5587
17.5517
17.5456
17.5413
17.5397
17.5415
17.5482
17.5621
17.5834
17.6122
17.6487
17.6926
17.7435
17.801
17.8645
17.9334
18.0072
18.0851
18.1667
18.2515
18.3389
18.4285
18.5198
18.6126
18.7064
18.801
18.8961
18.9915
19.0869
19.1821
19.277
19.3714
17.5662
17.5587
17.5515
17.5447
17.5388
17.5344
17.5319
17.5324
17.5359
17.5442
17.5577
17.5764
17.6003
17.6295
17.6637
17.7028
17.7463
17.794
17.8455
17.9005
17.9585
18.0192
18.0822
18.1473
18.2142
18.2825
18.3521
18.4226
18.4938
18.5657
18.6379
18.7104
18.7829
17.5662
17.5587
17.5514
17.5444
17.5378
17.532
17.5272
17.5241
17.5231
17.5243
17.5283
17.5362
17.5475
17.5627
17.5815
17.604
17.63
17.6595
17.6921
17.7278
17.7663
17.8073
17.8507
17.8961
17.9434
17.9923
18.0428
18.0944
18.1472
18.2009
18.2553
18.3103
18.3659
17.5662
17.5587
17.5514
17.5442
17.5374
17.531
17.5251
17.5202
17.5164
17.5141
17.5138
17.5151
17.5189
17.5255
17.5347
17.5466
17.5613
17.5787
17.5987
17.6213
17.6464
17.6737
17.7032
17.7347
17.7681
17.8031
17.8398
17.8778
17.9171
17.9574
17.9988
18.0411
18.084
17.5662
17.5587
17.5514
17.5442
17.5372
17.5306
17.5243
17.5185
17.5135
17.5094
17.5065
17.505
17.5052
17.5068
17.5105
17.5164
17.5245
17.5348
17.5473
17.5619
17.5787
17.5975
17.6184
17.6411
17.6656
17.6917
17.7195
17.7486
17.7791
17.8108
17.8436
17.8775
17.9121
17.5662
17.5587
17.5513
17.5442
17.5372
17.5304
17.524
17.518
17.5126
17.5078
17.5041
17.5014
17.5002
17.5004
17.5018
17.5051
17.5104
17.5177
17.5269
17.5381
17.5511
17.5661
17.583
17.6016
17.622
17.644
17.6675
17.6924
17.7187
17.7462
17.7749
17.8046
17.8352
17.5662
17.5587
17.5513
17.5442
17.5372
17.5305
17.5242
17.5183
17.5132
17.5088
17.5055
17.5034
17.5028
17.5035
17.5056
17.5097
17.5158
17.5238
17.5337
17.5456
17.5594
17.575
17.5925
17.6117
17.6326
17.6551
17.6791
17.7045
17.7311
17.759
17.788
17.8181
17.849
17.5662
17.5587
17.5513
17.5442
17.5374
17.5309
17.5251
17.52
17.5159
17.5131
17.5117
17.5122
17.5141
17.5183
17.5246
17.5331
17.5437
17.5566
17.5716
17.5888
17.608
17.6292
17.6522
17.677
17.7035
17.7316
17.7611
17.7919
17.824
17.8572
17.8913
17.9264
17.9624
17.5662
17.5587
17.5514
17.5444
17.5379
17.5322
17.5276
17.5243
17.523
17.5238
17.5267
17.5327
17.5416
17.5534
17.5681
17.5857
17.6061
17.6292
17.6549
17.6831
17.7135
17.7461
17.7806
17.817
17.855
17.8944
17.9353
17.9773
18.0204
18.0644
18.1093
18.1548
18.201
17.5662
17.5587
17.5516
17.5451
17.5396
17.5357
17.5342
17.5354
17.5395
17.5482
17.5612
17.5785
17.6003
17.6263
17.6565
17.6905
17.7282
17.7692
17.8134
17.8603
17.9097
17.9613
18.015
18.0703
18.1272
18.1853
18.2446
18.3048
18.3657
18.4273
18.4893
18.5516
18.6142
17.5662
17.5589
17.5522
17.5473
17.5446
17.5455
17.5504
17.5615
17.5798
17.605
17.6371
17.6761
17.7215
17.7729
17.8299
17.8918
17.9581
18.0284
18.102
18.1786
18.2577
18.3389
18.4217
18.506
18.5914
18.6776
18.7644
18.8516
18.939
19.0264
19.1138
19.2008
19.2875
17.5662
17.5594
17.5546
17.5542
17.558
17.5696
17.5932
17.6282
17.6749
17.7329
17.8016
17.8801
17.9674
18.0624
18.164
18.2714
18.3835
18.4996
18.6189
18.7408
18.8645
18.9897
19.1159
19.2426
19.3696
19.4965
19.6231
19.7491
19.8743
19.9987
20.122
20.2442
20.3651
17.5663
17.5617
17.563
17.5718
17.595
17.6401
17.7055
17.7911
17.8954
18.0165
18.1523
18.3006
18.4593
18.6266
18.8007
18.9802
19.1638
19.3502
19.5387
19.7283
19.9185
20.1085
20.2979
20.4864
20.6735
20.859
21.0426
21.2241
21.4034
21.5803
21.7548
21.9267
22.0961
17.5672
17.57
17.5859
17.6276
17.7109
17.8336
17.9919
18.1815
18.3976
18.6351
18.8897
19.1574
19.435
19.7198
20.0094
20.302
20.596
20.8902
21.1836
21.4753
21.7646
22.0511
22.3342
22.6137
22.8892
23.1606
23.4276
23.6903
23.9484
24.2019
24.4508
24.6951
24.9348
17.5716
17.5953
17.6662
17.8177
18.053
18.3543
18.7087
19.1036
19.5285
19.9745
20.4349
20.9044
21.3787
21.8548
22.3301
22.8027
23.2712
23.7345
24.1917
24.6422
25.0854
25.521
25.9488
26.3685
26.7801
27.1836
27.5788
27.9659
28.3448
28.7157
29.0786
29.4337
29.7811
17.5854
17.6974
17.9699
18.4419
19.0443
19.7381
20.4917
21.2821
22.0933
22.9141
23.7366
24.5557
25.3673
26.1688
26.9583
27.7344
28.4962
29.243
29.9745
30.6904
31.3907
32.0753
32.7443
33.3978
34.0361
34.6594
35.2678
35.8617
36.4414
37.0072
37.5593
38.0981
38.6238
17.6522
18.1438
19.1451
20.4574
21.9286
23.4776
25.0548
26.6331
28.1966
29.7371
31.25
32.7322
34.182
35.5983
36.9807
38.3291
39.6436
40.9246
42.1725
43.3878
44.5711
45.723
46.8442
47.9354
48.9973
50.0307
51.0362
52.0146
52.9666
53.893
54.7944
55.6717
56.5255
18.0423
20.3419
23.6954
27.3243
30.9671
34.5343
37.9952
41.351
44.6032
47.7618
50.8283
53.8045
56.6925
59.4942
62.2115
64.8462
67.4002
69.8754
72.2738
74.5972
76.8478
79.0276
81.1386
83.183
85.1627
87.0798
88.9365
90.7346
92.4763
94.1634
95.7979
97.3817
98.9165
21.0783
32.2377
43.8848
55.0827
65.2654
74.723
83.6608
92.2515
100.529
108.499
116.169
123.546
130.634
137.44
143.973
150.24
156.249
162.01
167.532
172.822
177.893
182.751
187.407
191.869
196.147
200.248
204.182
207.956
211.577
215.054
218.393
221.602
224.685
63.2893
131.146
179.994
220.948
253.72
286.904
320.749
353.551
384.645
413.765
440.836
465.898
489.06
510.454
530.221
548.492
565.403
581.067
595.601
609.098
621.66
633.357
644.277
654.474
664.025
672.967
681.373
689.262
696.705
703.706
710.338
716.588
722.534
1672.14
1819.15
1960.96
2086.92
2197.23
2294.25
2379.79
2455.18
2521.53
2579.87
2631.09
2676.01
2715.34
2749.72
2779.71
2805.83
2828.53
2848.19
2865.19
2879.82
2892.37
2903.08
2912.17
2919.82
2926.22
2931.5
2935.79
2939.23
2941.9
2943.89
2945.3
2946.18
2946.62
8956.81
8499.66
7936.61
7380.41
6862.09
6383.44
5946.46
5551.21
5194.2
4869.29
4574.85
4307.62
4064.78
3843.98
3642.8
3459.24
3291.01
3136.66
2994.28
2862.86
2741.3
2628.73
2524.13
2426.72
2335.65
2250.08
2169.4
2093
2020.36
1950.97
1884.42
1820.34
1757.99
1697.33
1638.18
1580.33
1523.59
1467.75
1412.75
1358.37
1304.53
1251.19
1198.37
1146.09
1094.39
1043.34
993.018
943.539
895.04
847.665
801.569
756.906
713.833
672.495
633.027
595.541
560.128
526.853
495.754
466.839
440.091
415.469
392.906
372.321
353.615
336.683
321.406
307.669
295.347
284.327
274.487
265.723
257.921
250.992
244.827
239.357
234.481
230.137
226.255
222.765
219.615
216.754
214.138
211.717
209.46
207.334
205.312
203.365
201.478
199.622
197.801
195.969
194.165
192.302
190.511
188.53
186.808
184.546
183.118
180.09
3312.97
3350.25
3409.13
3480.04
3562.63
3648.88
3719.6
3771.62
3792.38
3782.68
3753.38
3693.44
3608.88
3504.94
3387.46
3262.43
3134.13
3006.95
2881.81
2761.92
2647.49
2538.75
2435.15
2336.91
2243.55
2154.65
2070.04
1989.33
1912.17
1838.16
1766.98
1698.37
1631.98
1567.56
1504.91
1443.86
1384.26
1325.97
1268.9
1212.97
1158.11
1104.3
1051.52
999.827
949.255
899.876
851.775
805.048
759.802
716.148
674.198
634.057
595.821
559.571
525.37
493.263
463.271
435.392
409.603
385.859
364.097
344.239
326.194
309.861
295.133
281.901
270.05
259.475
250.063
241.717
234.331
227.818
222.085
217.059
212.646
208.797
205.419
202.473
199.894
197.622
195.618
193.838
192.246
190.793
189.458
188.209
187.022
185.873
184.748
183.621
182.494
181.327
180.154
178.906
177.68
176.277
175.035
173.355
172.272
169.941
1464.92
1470.07
1480.19
1493.92
1510.08
1529.88
1553.68
1584.87
1625.27
1673.68
1729.76
1789.65
1850.05
1907.52
1957.87
1997.57
2024.78
2037.66
2034.58
2023.31
1998.73
1963.35
1919.25
1870.43
1817.01
1761.13
1704.35
1646.89
1589.23
1531.67
1474.59
1418.17
1362.51
1307.69
1253.75
1200.7
1148.57
1097.37
1047.11
997.842
949.583
902.383
856.294
811.381
767.718
725.386
684.468
645.051
607.216
571.044
536.604
503.955
473.143
444.196
417.128
391.934
368.591
347.06
327.289
309.211
292.75
277.822
264.336
252.202
241.324
231.609
222.966
215.308
208.547
202.608
197.41
192.889
188.97
185.603
182.709
180.261
178.17
176.428
174.967
173.742
172.728
171.886
171.183
170.574
170.05
169.578
169.136
168.704
168.267
167.805
167.316
166.764
166.18
165.512
164.818
163.966
163.184
162.066
161.318
159.665
789.468
792.055
795.54
799.289
802.431
805.182
807.648
810.832
815.327
822.426
832.453
846.414
864.067
886.25
911.893
941.381
972.301
1004.85
1035.01
1063.72
1087.89
1108.9
1122.21
1132.23
1132.13
1129.03
1120.95
1106.24
1086.7
1063.3
1037.07
1008.35
977.709
945.58
912.325
878.263
843.675
808.802
773.858
739.034
704.499
670.409
636.906
604.121
572.175
541.18
511.237
482.438
454.862
428.577
403.637
380.082
357.937
337.212
317.905
299.999
283.464
268.262
254.343
241.653
230.129
219.708
210.322
201.904
194.387
187.707
181.798
176.603
172.059
168.119
164.723
161.832
159.39
157.365
155.695
154.373
153.312
152.54
151.975
151.592
151.379
151.3
151.324
151.41
151.562
151.742
151.932
152.114
152.274
152.392
152.467
152.464
152.413
152.272
152.066
151.725
151.369
150.783
150.356
149.347
466.877
469.94
473.092
476.164
478.751
480.88
482.482
483.866
485.072
486.516
488.148
490.419
493.204
497.056
501.759
507.956
515.226
524.207
534.136
545.45
557.063
569.433
581.014
592.304
601.653
609.41
614.565
618.664
618.91
617.701
614.44
608.158
599.621
588.829
576.065
561.61
545.736
528.703
510.755
492.121
473.01
453.617
434.12
414.679
395.441
376.536
358.079
340.173
322.902
306.339
290.542
275.557
261.413
248.131
235.718
224.172
213.483
203.631
194.592
186.337
178.83
172.038
165.921
160.443
155.564
151.247
147.454
144.153
141.304
138.883
136.848
135.182
133.845
132.818
132.055
131.563
131.261
131.21
131.299
131.539
131.926
132.416
132.991
133.617
134.288
134.979
135.672
136.35
136.998
137.6
138.148
138.621
139.024
139.341
139.571
139.688
139.718
139.622
139.494
139.077
290.876
294.006
297.073
300.031
302.712
305.108
307.171
309.004
310.594
312.073
313.395
314.695
315.898
317.164
318.407
319.818
321.292
323.028
324.904
327.163
329.604
332.437
335.387
338.602
341.729
344.851
347.5
349.875
351.464
352.326
352.154
351.34
349.505
346.615
342.765
337.958
332.23
325.643
318.276
310.227
301.597
292.497
283.035
273.32
263.454
253.535
243.655
233.894
224.328
215.019
206.023
197.386
189.143
181.324
173.948
167.029
160.574
154.582
149.051
143.974
139.338
135.132
131.34
127.946
124.933
122.284
119.979
118.005
116.339
114.973
113.879
113.055
112.47
112.116
111.962
112.022
112.222
112.633
113.174
113.836
114.615
115.486
116.433
117.431
118.467
119.525
120.585
121.632
122.651
123.629
124.552
125.408
126.185
126.885
127.483
127.995
128.374
128.688
128.851
128.949
189.675
192.416
195.092
197.685
200.128
202.406
204.497
206.432
208.203
209.852
211.359
212.762
214.028
215.199
216.237
217.19
218.016
218.768
219.399
219.974
220.448
220.885
221.244
221.564
221.815
222.023
222.125
222.101
221.988
221.724
221.183
220.387
219.288
217.835
216.043
213.89
211.365
208.462
205.189
201.562
197.606
193.353
188.844
184.121
179.23
174.22
169.137
164.028
158.937
153.906
148.972
144.169
139.526
135.069
130.816
126.786
122.991
119.44
116.138
113.09
110.296
107.755
105.463
103.418
101.613
100.043
98.7008
97.5815
96.6747
95.9813
95.4801
95.1842
95.0601
95.1118
95.302
95.6925
96.2051
96.8694
97.6575
98.5535
99.5521
100.638
101.797
103.011
104.268
105.552
106.847
108.139
109.412
110.654
111.849
112.99
114.055
115.056
115.948
116.783
117.451
118.119
118.517
119.085
129.598
131.816
133.991
136.113
138.156
140.107
141.956
143.708
145.361
146.927
148.397
149.781
151.066
152.258
153.342
154.325
155.187
155.938
156.555
157.055
157.414
157.657
157.755
157.724
157.61
157.367
157.011
156.541
155.965
155.289
154.5
153.592
152.561
151.397
150.094
148.648
147.054
145.309
143.412
141.365
139.171
136.84
134.382
131.813
129.147
126.406
123.609
120.778
117.934
115.1
112.295
109.541
106.854
104.253
101.751
99.3622
97.0975
94.966
92.9752
91.131
89.4377
87.8985
86.5149
85.2883
84.2185
83.3051
82.5467
81.9429
81.4907
81.1941
81.0372
81.0414
81.1484
81.4124
81.808
82.3441
82.9947
83.7673
84.652
85.6374
86.7176
87.8825
89.1221
90.4233
91.774
93.1618
94.5724
95.9934
97.4093
98.8098
100.176
101.506
102.769
103.988
105.097
106.179
107.071
108.03
108.611
109.583
92.7899
94.5246
96.2352
97.916
99.5546
101.143
102.676
104.152
105.57
106.931
108.233
109.476
110.654
111.765
112.802
113.763
114.636
115.422
116.105
116.689
117.159
117.523
117.765
117.898
117.886
117.806
117.613
117.297
116.883
116.369
115.764
115.067
114.284
113.415
112.463
111.429
110.316
109.125
107.858
106.519
105.11
103.635
102.1
100.51
98.8741
97.1998
95.497
93.7759
92.0473
90.3223
88.6122
86.928
85.2806
83.6802
82.1362
80.6576
79.2522
77.9271
76.6885
75.5417
74.491
73.5405
72.6927
71.9505
71.3154
70.7889
70.3723
70.0671
69.8749
69.7984
69.8254
69.9485
70.1982
70.5566
71.0207
71.5973
72.276
73.0579
73.9396
74.9149
75.9792
77.126
78.3486
79.6377
80.9837
82.3767
83.8049
85.2577
86.7205
88.1852
89.6317
91.061
92.4375
93.7906
95.0411
96.2953
97.3454
98.5245
99.239
100.537
69.4636
70.8069
72.1381
73.4535
74.747
76.0138
77.25
78.4542
79.6243
80.7599
81.8589
82.92
83.9396
84.9155
85.8426
86.7177
87.5341
88.2886
88.973
89.5852
90.1161
90.5668
90.9266
91.2034
91.3789
91.4702
91.4553
91.3827
91.2139
90.9502
90.6113
90.1916
89.7001
89.1383
88.5102
87.8199
87.071
86.2672
85.4122
84.5099
83.5638
82.5782
81.5571
80.5054
79.4278
78.3297
77.217
76.0955
74.9718
73.8524
72.744
71.6533
70.5868
69.5513
68.5526
67.5969
66.6895
65.8355
65.0395
64.3056
63.6375
63.0387
62.5114
62.0591
61.6831
61.3856
61.169
61.0359
60.9907
61.0213
61.1273
61.3314
61.6233
62.0035
62.4704
63.0284
63.6745
64.4088
65.2307
66.1376
67.1269
68.1949
69.3374
70.5486
71.8215
73.1491
74.5215
75.9311
77.3645
78.8159
80.2653
81.7165
83.131
84.5436
85.8649
87.219
88.3644
89.6936
90.4964
92.0376
54.1709
55.2131
56.25
57.2794
58.2979
59.3025
60.2908
61.2611
62.2119
63.1421
64.0501
64.9344
65.7927
66.6229
67.4216
68.1861
68.912
69.5962
70.2335
70.821
71.353
71.8281
72.2394
72.5893
72.8685
73.0838
73.2217
73.3009
73.2936
73.2442
73.1243
72.929
72.6795
72.3684
72.0023
71.5849
71.1184
70.6068
70.0539
69.4632
68.8383
68.1832
67.5016
66.7975
66.075
65.3383
64.5916
63.8393
63.086
62.3363
61.5948
60.866
60.1545
59.4649
58.8014
58.1681
57.569
57.0077
56.4877
56.012
55.5838
55.2056
54.8792
54.6083
54.3931
54.2367
54.142
54.1127
54.1395
54.225
54.3844
54.6117
54.9084
55.2761
55.7149
56.2276
56.8143
57.4758
58.2128
59.0248
59.911
60.8699
61.8994
62.9963
64.156
65.3741
66.6434
67.9584
69.308
70.6887
72.0814
73.4928
74.8831
76.2916
77.6223
79.0117
80.196
81.6073
82.4592
84.1577
43.822
44.636
45.4486
46.2584
47.0633
47.8616
48.6515
49.4318
50.2011
50.9584
51.7025
52.4322
53.1457
53.8414
54.517
55.1704
55.7987
56.3994
56.969
57.5049
58.0035
58.4626
58.8781
59.2495
59.5719
59.8474
60.0684
60.2431
60.3578
60.4316
60.4385
60.4115
60.3393
60.2057
60.032
59.8155
59.557
59.2613
58.931
58.5683
58.1765
57.7591
57.3194
56.8605
56.3859
55.8991
55.4034
54.9024
54.3997
53.8988
53.4032
52.9165
52.442
51.9832
51.5432
51.1252
50.7319
50.3665
50.0312
49.7287
49.4617
49.2313
49.0395
48.89
48.7816
48.7187
48.7049
48.7311
48.8043
48.9316
49.1105
49.3425
49.6293
49.9726
50.3734
50.8339
51.3555
51.9393
52.5868
53.2988
54.0757
54.9174
55.8233
56.7923
57.822
58.9098
60.0509
61.2423
62.4749
63.7476
65.043
66.37
67.6896
69.0441
70.3349
71.7054
72.8808
74.3132
75.1824
76.9553
36.6195
37.2603
37.9019
38.5433
39.1833
39.8208
40.4544
41.0832
41.7064
42.3228
42.9317
43.5321
44.1226
44.7021
45.2689
45.8215
46.3579
46.8762
47.374
47.8494
48.2997
48.7231
49.1168
49.4797
49.8086
50.1038
50.3612
50.5835
50.7646
50.9109
51.0141
51.082
51.112
51.1021
51.066
50.9887
50.876
50.7355
50.5655
50.3675
50.1451
49.9012
49.6379
49.3577
49.0634
48.7578
48.4438
48.1242
47.802
47.4798
47.1607
46.8473
46.5422
46.2484
45.9681
45.7039
45.4579
45.2328
45.0298
44.8518
44.7007
44.5762
44.4816
44.4198
44.3878
44.3936
44.427
44.5005
44.6109
44.7603
44.9497
45.1806
45.4545
45.773
46.1374
46.5496
47.0112
47.5238
48.089
48.7082
49.3825
50.1129
50.8997
51.7432
52.6423
53.5963
54.6023
55.659
56.7596
57.905
59.0798
60.2949
61.5132
62.7785
63.9935
65.3032
66.4326
67.8351
68.6946
70.4704
31.4872
31.9951
32.5051
33.0165
33.5285
34.0401
34.5507
35.0595
35.5657
36.0686
36.5676
37.0617
37.5502
38.0321
38.5063
38.9715
39.4265
39.8698
40.2997
40.7149
41.1134
41.4937
41.854
42.1931
42.5089
42.8008
43.0666
43.3066
43.5181
43.7028
43.858
43.9848
44.0839
44.1528
44.1982
44.2118
44.2021
44.1721
44.114
44.0323
43.9323
43.8148
43.6802
43.5311
43.3698
43.1983
43.019
42.8344
42.6466
42.4578
42.2704
42.0865
41.9083
41.7383
41.5779
41.4293
41.2943
41.1751
41.0723
40.9893
40.9262
40.8823
40.863
40.8689
40.8937
40.9488
41.0293
41.1378
41.2749
41.4419
41.6398
41.87
42.1335
42.4319
42.7666
43.139
43.5508
44.0036
44.499
45.0386
45.6239
46.2563
46.9368
47.6663
48.445
49.2732
50.1492
51.0736
52.041
53.0543
54.0999
55.1903
56.2909
57.4463
58.5625
59.7826
60.8394
62.1737
63.0003
64.7242
27.7604
28.1651
28.5725
28.9822
29.3936
29.8062
30.2192
30.6323
31.0448
31.4562
31.8659
32.2734
32.6779
33.0787
33.4752
33.8663
34.2511
34.6287
34.9978
35.3573
35.7059
36.0426
36.3659
36.6748
36.968
37.2446
37.5032
37.7436
37.9642
38.1652
38.3455
38.5048
38.6438
38.7609
38.8587
38.9351
38.9917
39.0308
39.0521
39.0513
39.0406
39.0144
38.9728
38.9197
38.8568
38.7851
38.7069
38.6242
38.5382
38.4509
38.364
38.2795
38.199
38.1247
38.0572
37.9985
37.9504
37.9143
37.8906
37.8834
37.8899
37.9099
37.9506
38.0102
38.0863
38.1833
38.3006
38.4393
38.6
38.7835
38.9909
39.223
39.4809
39.7658
40.0788
40.4214
40.7948
41.2006
41.6402
42.1154
42.6276
43.1783
43.7689
44.4007
45.0743
45.791
46.55
47.3527
48.1954
49.0819
50.0007
50.9652
51.9437
52.9805
53.9867
55.1006
56.0686
57.3088
58.0852
59.7171
25.0162
25.3393
25.6656
25.9947
26.3262
26.6596
26.9947
27.3309
27.6678
28.005
28.3421
28.6785
29.0139
29.3477
29.6793
30.0081
30.3333
30.6543
30.9702
31.2802
31.5834
31.8789
32.1658
32.4432
32.7101
32.9659
33.2097
33.4408
33.6584
33.8622
34.0517
34.2263
34.3862
34.5308
34.6607
34.7757
34.876
34.9624
35.0361
35.0951
35.1432
35.1807
35.2075
35.2251
35.2351
35.2378
35.236
35.2308
35.2224
35.2131
35.2042
35.197
35.1933
35.1945
35.2002
35.2132
35.2348
35.2658
35.3066
35.3593
35.4239
35.4997
35.5898
35.6947
35.8134
35.9476
36.0975
36.2638
36.447
36.6476
36.8663
37.1039
37.3612
37.6392
37.9387
38.2608
38.6068
38.978
39.3755
39.801
40.2557
40.7413
41.2591
41.8106
42.3966
43.0189
43.6772
44.3737
45.1053
45.877
46.6787
47.5244
48.3851
49.3041
50.1986
51.2002
52.0721
53.204
53.9191
55.433
22.977
23.2348
23.496
23.7603
24.0275
24.2972
24.5692
24.843
25.1184
25.3951
25.6726
25.9508
26.2291
26.5073
26.7848
27.0613
27.3362
27.609
27.8791
28.1458
28.4087
28.6669
28.9199
29.167
29.4075
29.6409
29.8664
30.0835
30.2918
30.4908
30.6802
30.8594
31.0286
31.1872
31.3356
31.4736
31.6014
31.7191
31.8278
31.9268
32.0173
32.1002
32.1759
32.2451
32.3089
32.3678
32.4233
32.4766
32.5283
32.5797
32.6317
32.6857
32.7425
32.8036
32.8692
32.9407
33.019
33.105
33.1992
33.3025
33.4156
33.5383
33.6716
33.8163
33.9723
34.1402
34.3202
34.5127
34.718
34.9366
35.1689
35.4154
35.6769
35.9538
36.247
36.5573
36.8856
37.2331
37.6007
37.9897
38.4015
38.8373
39.2984
39.7864
40.3022
40.8475
41.4225
42.0297
42.6667
43.3388
44.0372
44.7762
45.5291
46.338
47.1261
48.0171
48.7932
49.8123
50.461
51.8432
21.4552
21.6602
21.8687
22.0805
22.2954
22.5132
22.7337
22.9565
23.1815
23.4084
23.637
23.867
24.0981
24.3301
24.5625
24.7952
25.0277
25.2596
25.4905
25.7201
25.9478
26.1731
26.3957
26.6149
26.8304
27.0417
27.2483
27.4499
27.6459
27.8362
28.0204
28.1982
28.3694
28.534
28.6918
28.843
28.9875
29.1255
29.2574
29.3833
29.5036
29.619
29.7299
29.8369
29.9407
30.0418
30.1411
30.2395
30.3377
30.4365
30.5368
30.6394
30.7451
30.8548
30.9691
31.0886
31.2142
31.3464
31.4856
31.6324
31.7872
31.9502
32.1218
32.3023
32.492
32.6909
32.8993
33.1172
33.3448
33.5824
33.8304
34.089
34.3587
34.6398
34.9329
35.2386
35.5577
35.8908
36.239
36.6032
36.9845
37.3841
37.803
38.2427
38.7042
39.1891
39.6976
40.2323
40.7915
41.3804
41.9912
42.6381
43.2966
44.007
44.6986
45.4868
46.1723
47.0818
47.6636
48.9111
20.3208
20.4827
20.6482
20.8172
20.9894
21.1647
21.3429
21.5239
21.7075
21.8934
22.0816
22.2717
22.4637
22.6572
22.8521
23.0481
23.245
23.4425
23.6403
23.8381
24.0356
24.2324
24.4283
24.6228
24.8157
25.0066
25.1951
25.3811
25.5643
25.7442
25.9209
26.094
26.2635
26.4292
26.5911
26.7493
26.9037
27.0545
27.2019
27.3461
27.4874
27.6262
27.7629
27.8979
28.0318
28.165
28.2981
28.4317
28.5665
28.703
28.842
28.984
29.1296
29.2795
29.4341
29.594
29.7595
29.9311
30.1091
30.2936
30.4853
30.684
30.8899
31.1033
31.3241
31.5522
31.7879
32.0308
32.2811
32.5389
32.8046
33.078
33.3595
33.6492
33.9475
34.2548
34.5716
34.8984
35.2361
35.5853
35.9469
36.3219
36.7112
37.1161
37.5373
37.9765
38.4339
38.9121
39.4093
39.931
40.4701
41.0403
41.6191
42.2449
42.8523
43.5489
44.1528
44.9609
45.4794
46.5972
19.4808
19.6077
19.7382
19.8722
20.0096
20.1501
20.2938
20.4405
20.59
20.7423
20.8971
21.0545
21.2141
21.3759
21.5397
21.7053
21.8726
22.0413
22.2114
22.3825
22.5544
22.727
22.9
23.0731
23.2462
23.4191
23.5914
23.7631
23.9338
24.1036
24.2721
24.4394
24.6053
24.7698
24.9328
25.0944
25.2547
25.4138
25.5717
25.7288
25.8853
26.0413
26.1974
26.3537
26.5108
26.6691
26.8288
26.9905
27.1548
27.322
27.4927
27.6673
27.8463
28.0301
28.219
28.4134
28.6136
28.8196
29.0316
29.2498
29.4746
29.7058
29.9434
30.1874
30.4376
30.6939
30.9563
31.224
31.4975
31.7769
32.0621
32.3529
32.6493
32.9515
33.2595
33.5736
33.8941
34.2214
34.5561
34.8986
35.2496
35.61
35.9805
36.362
36.7553
37.1618
37.5817
38.0175
38.4674
38.9369
39.4192
39.9279
40.4416
40.9972
41.5338
42.152
42.685
43.4036
43.8647
44.8635
18.8675
18.9664
19.0687
19.1745
19.2837
19.3962
19.5119
19.6307
19.7526
19.8775
20.0053
20.1359
20.2692
20.4051
20.5435
20.6843
20.8274
20.9726
21.1198
21.2689
21.4198
21.5723
21.7263
21.8816
22.0381
22.1956
22.3541
22.5133
22.6733
22.8338
22.9949
23.1565
23.3186
23.481
23.644
23.8075
23.9716
24.1364
24.3021
24.4688
24.6368
24.8064
24.9777
25.1511
25.327
25.5055
25.6871
25.872
26.0609
26.254
26.4516
26.6542
26.862
27.0752
27.2942
27.5191
27.7501
27.9869
28.2296
28.4787
28.7342
28.9958
29.2634
29.5367
29.8154
30.0994
30.3883
30.6825
30.9817
31.2856
31.5934
31.905
32.2203
32.5392
32.8617
33.1878
33.5178
33.8519
34.1903
34.5334
34.8818
35.2361
35.5967
35.9645
36.3401
36.7248
37.1186
37.5238
37.9388
38.369
38.8075
39.2679
39.7296
40.2284
40.7066
41.2591
41.732
42.3733
42.784
43.678
18.4311
18.5079
18.5882
18.6719
18.7589
18.8493
18.9429
19.0398
19.1399
19.2432
19.3496
19.459
19.5714
19.6868
19.8051
19.9262
20.05
20.1766
20.3057
20.4374
20.5716
20.7081
20.847
20.9881
21.1313
21.2767
21.4241
21.5735
21.7248
21.878
22.0332
22.1902
22.3492
22.5102
22.6732
22.8383
23.0056
23.1753
23.3475
23.5225
23.7003
23.8813
24.0657
24.2537
24.4457
24.6417
24.8421
25.0473
25.2578
25.4738
25.6954
25.9229
26.1566
26.3966
26.6429
26.8958
27.1551
27.4213
27.6944
27.9747
28.2613
28.5538
28.852
29.1556
29.4642
29.7774
30.0949
30.4165
30.7412
31.0681
31.3976
31.7297
32.0641
32.4007
32.7394
33.0801
33.4227
33.7675
34.1144
34.4638
34.8159
35.1712
35.53
35.8931
36.2606
36.634
37.0128
37.3996
37.7923
38.1964
38.6049
39.0316
39.4558
39.913
40.3475
40.8501
41.2765
41.8557
42.2241
43.0293
18.1349
18.1955
18.2594
18.3265
18.3971
18.4709
18.548
18.6285
18.7123
18.7993
18.8897
18.9833
19.0801
19.1801
19.2833
19.3897
19.4992
19.6119
19.7276
19.8464
19.9681
20.0929
20.2207
20.3514
20.4851
20.6217
20.7613
20.9037
21.0492
21.1976
21.349
21.5035
21.6611
21.822
21.9861
22.1538
22.325
22.4999
22.6788
22.8618
23.0492
23.2411
23.4378
23.6395
23.8466
24.0593
24.2781
24.5034
24.7353
24.9739
25.2193
25.4717
25.7312
25.9979
26.2719
26.5531
26.8416
27.1371
27.4397
27.7476
28.0614
28.3812
28.7065
29.0372
29.3727
29.7127
30.0565
30.404
30.7546
31.1079
31.4633
31.8203
32.1786
32.5378
32.8978
33.2583
33.6191
33.9803
34.3417
34.7036
35.0659
35.4291
35.7932
36.159
36.5264
36.8966
37.2691
37.6465
38.0262
38.4142
38.8027
39.2063
39.6035
40.0303
40.4314
40.896
41.2852
41.8171
42.153
42.8899
17.9535
18.0033
18.0563
18.1125
18.172
18.2348
18.3009
18.3704
18.4433
18.5195
18.5991
18.6821
18.7686
18.8585
18.9517
19.0485
19.1486
19.2522
19.3593
19.4698
19.5838
19.7013
19.8224
19.947
20.0751
20.2069
20.3424
20.4816
20.6246
20.7715
20.9223
21.0773
21.2364
21.3998
21.5677
21.7402
21.9176
22.0999
22.2874
22.4804
22.679
22.8835
23.0941
23.3111
23.5348
23.7653
24.0032
24.2477
24.4994
24.7585
25.0254
25.3001
25.5828
25.8734
26.1721
26.4786
26.793
27.115
27.4445
27.7814
28.1251
28.4751
28.831
29.1924
29.5586
29.9293
30.3037
30.6814
31.0618
31.4444
31.8285
32.2136
32.5992
32.9849
33.3702
33.7549
34.1385
34.521
34.9022
35.282
35.6604
36.0377
36.4136
36.789
37.1634
37.5383
37.9126
38.2891
38.6647
39.046
39.4241
39.8148
40.1952
40.6028
40.9811
41.4195
41.7818