/*--------------------------------*- C++ -*----------------------------------*\
  =========                 |
  \\      /  F ield         | OpenFOAM: The Open Source CFD Toolbox
   \\    /   O peration     | Website:  https://openfoam.org
    \\  /    A nd           | Version:  10
     \\/     M anipulation  |
\*---------------------------------------------------------------------------*/
FoamFile
{
    format      ascii;
    class       volScalarField;
    location    "1300";
    object      p;
}
// * * * * * * * * * * * * * * * * * * * * * * * * * * * * * * * * * * * * * //

dimensions      [0 2 -2 0 0 0 0];

internalField   nonuniform List<scalar> 
6820
(
6.3945
-4.49532
-8.01454
-8.74814
-9.14947
-9.48804
-9.68055
-9.77705
-9.84253
-9.89704
-9.94132
-9.97712
-10.0077
-10.0352
-10.0602
-10.0832
-10.1047
-10.1249
-10.1441
-10.1625
-10.1801
-10.1971
-10.2135
-10.2294
-10.2447
-10.2594
-10.2735
-10.2867
-10.2987
-10.3094
-10.317
-10.3235
-10.311
-15.4935
-11.8155
-11.0707
-10.3014
-9.93667
-9.8703
-9.86859
-9.87247
-9.8906
-9.91983
-9.95065
-9.97936
-10.0063
-10.0317
-10.0558
-10.0783
-10.0996
-10.1198
-10.1391
-10.1576
-10.1754
-10.1926
-10.2092
-10.2252
-10.2407
-10.2557
-10.2701
-10.2837
-10.2965
-10.3084
-10.3183
-10.3285
-10.3329
-13.3449
-9.77076
-9.51547
-9.51739
-9.51117
-9.60963
-9.71034
-9.77813
-9.83266
-9.88258
-9.92593
-9.96259
-9.99455
-10.0233
-10.0494
-10.0733
-10.0956
-10.1165
-10.1363
-10.1551
-10.1732
-10.1906
-10.2074
-10.2236
-10.2393
-10.2545
-10.2691
-10.2831
-10.2964
-10.3092
-10.3209
-10.3334
-10.3438
-10.8558
-9.39664
-9.54734
-9.66347
-9.64813
-9.70347
-9.77408
-9.82281
-9.86288
-9.90186
-9.93771
-9.96945
-9.99812
-10.0246
-10.0492
-10.0721
-10.0937
-10.1142
-10.1337
-10.1523
-10.1703
-10.1877
-10.2045
-10.2208
-10.2367
-10.252
-10.267
-10.2814
-10.2955
-10.3092
-10.3226
-10.3369
-10.3511
-10.3963
-9.69896
-9.73944
-9.75567
-9.71145
-9.73914
-9.7915
-9.83262
-9.86881
-9.90498
-9.93905
-9.96985
-9.99799
-10.0241
-10.0484
-10.0712
-10.0926
-10.113
-10.1325
-10.1511
-10.1691
-10.1864
-10.2033
-10.2196
-10.2356
-10.2511
-10.2663
-10.2812
-10.2958
-10.3104
-10.3251
-10.3408
-10.3574
-10.331
-9.8558
-9.8097
-9.78775
-9.74898
-9.76753
-9.80927
-9.8458
-9.87935
-9.91288
-9.94477
-9.97405
-10.0011
-10.0262
-10.0499
-10.0721
-10.0931
-10.1132
-10.1324
-10.1508
-10.1686
-10.1859
-10.2027
-10.219
-10.235
-10.2507
-10.2661
-10.2813
-10.2965
-10.3118
-10.3275
-10.3442
-10.3623
-10.2156
-9.88957
-9.83747
-9.81474
-9.78585
-9.79851
-9.83098
-9.86233
-9.89244
-9.92283
-9.95218
-9.97963
-10.0053
-10.0294
-10.0523
-10.0739
-10.0944
-10.1141
-10.1329
-10.1512
-10.1688
-10.1859
-10.2026
-10.219
-10.235
-10.2508
-10.2664
-10.2819
-10.2975
-10.3133
-10.3297
-10.3472
-10.3661
-10.1095
-9.90442
-9.86196
-9.84178
-9.8195
-9.82781
-9.85283
-9.87934
-9.90608
-9.93351
-9.96044
-9.98608
-10.0104
-10.0335
-10.0554
-10.0763
-10.0964
-10.1156
-10.1341
-10.1521
-10.1695
-10.1865
-10.2031
-10.2194
-10.2354
-10.2513
-10.267
-10.2827
-10.2986
-10.3149
-10.3317
-10.3495
-10.3688
-10.0405
-9.91762
-9.88209
-9.86409
-9.8473
-9.8533
-9.87305
-9.89569
-9.91952
-9.94434
-9.96909
-9.99302
-10.016
-10.038
-10.0591
-10.0794
-10.0988
-10.1176
-10.1358
-10.1534
-10.1706
-10.1874
-10.2039
-10.2201
-10.2361
-10.252
-10.2678
-10.2837
-10.2998
-10.3163
-10.3333
-10.3513
-10.3705
-9.9981
-9.92621
-9.8968
-9.88169
-9.86986
-9.87495
-9.89116
-9.91084
-9.93225
-9.95485
-9.97766
-10
-10.0218
-10.0428
-10.063
-10.0826
-10.1015
-10.1198
-10.1377
-10.155
-10.172
-10.1886
-10.2049
-10.221
-10.2369
-10.2528
-10.2687
-10.2846
-10.3008
-10.3174
-10.3345
-10.3524
-10.3713
-9.97225
-9.93122
-9.90807
-9.8961
-9.88836
-9.89323
-9.90706
-9.9245
-9.94393
-9.96465
-9.9858
-10.0068
-10.0274
-10.0474
-10.0669
-10.0858
-10.1042
-10.1221
-10.1396
-10.1566
-10.1733
-10.1897
-10.2059
-10.2219
-10.2378
-10.2536
-10.2694
-10.2854
-10.3016
-10.3181
-10.3352
-10.3528
-10.3713
-9.9574
-9.93477
-9.91744
-9.90836
-9.90377
-9.9087
-9.9209
-9.93662
-9.95443
-9.97357
-9.99329
-10.0131
-10.0326
-10.0518
-10.0706
-10.0889
-10.1068
-10.1243
-10.1414
-10.1581
-10.1746
-10.1908
-10.2068
-10.2226
-10.2384
-10.2541
-10.2699
-10.2858
-10.3019
-10.3183
-10.3351
-10.3525
-10.3704
-9.95002
-9.93807
-9.92565
-9.9191
-9.91687
-9.92195
-9.93298
-9.94734
-9.96378
-9.98158
-10.0001
-10.0187
-10.0374
-10.0558
-10.0739
-10.0916
-10.1091
-10.1261
-10.1429
-10.1594
-10.1756
-10.1916
-10.2074
-10.2231
-10.2387
-10.2543
-10.2699
-10.2857
-10.3016
-10.3178
-10.3344
-10.3513
-10.3686
-9.94759
-9.94164
-9.93313
-9.92873
-9.92825
-9.93348
-9.94362
-9.95684
-9.97211
-9.98872
-10.0061
-10.0238
-10.0416
-10.0593
-10.0767
-10.094
-10.1109
-10.1276
-10.144
-10.1602
-10.1762
-10.192
-10.2076
-10.2231
-10.2386
-10.254
-10.2695
-10.285
-10.3008
-10.3167
-10.3328
-10.3492
-10.3659
-9.94836
-9.94564
-9.94013
-9.93751
-9.93832
-9.94367
-9.95309
-9.96534
-9.97955
-9.9951
-10.0115
-10.0283
-10.0453
-10.0623
-10.0791
-10.0959
-10.1124
-10.1287
-10.1448
-10.1607
-10.1764
-10.1919
-10.2073
-10.2227
-10.2379
-10.2532
-10.2684
-10.2837
-10.2992
-10.3147
-10.3304
-10.3463
-10.3624
-9.95116
-9.95011
-9.94681
-9.94562
-9.94737
-9.95278
-9.96161
-9.973
-9.98625
-10.0008
-10.0163
-10.0322
-10.0485
-10.0648
-10.0811
-10.0973
-10.1134
-10.1293
-10.1451
-10.1607
-10.1761
-10.1914
-10.2066
-10.2217
-10.2367
-10.2517
-10.2667
-10.2817
-10.2968
-10.312
-10.3272
-10.3426
-10.358
-9.9552
-9.95495
-9.95325
-9.95316
-9.95558
-9.961
-9.96932
-9.97994
-9.99231
-10.006
-10.0205
-10.0357
-10.0512
-10.0669
-10.0826
-10.0983
-10.114
-10.1295
-10.1449
-10.1602
-10.1753
-10.1904
-10.2053
-10.2201
-10.2349
-10.2496
-10.2644
-10.279
-10.2938
-10.3085
-10.3232
-10.338
-10.3528
-9.95997
-9.96008
-9.95947
-9.96021
-9.96308
-9.96847
-9.97632
-9.98624
-9.9978
-10.0106
-10.0244
-10.0387
-10.0535
-10.0686
-10.0837
-10.0989
-10.1141
-10.1293
-10.1443
-10.1593
-10.1741
-10.1889
-10.2035
-10.2181
-10.2326
-10.247
-10.2614
-10.2757
-10.29
-10.3043
-10.3185
-10.3327
-10.3468
-9.96513
-9.96538
-9.9655
-9.96681
-9.96996
-9.97525
-9.98267
-9.99195
-10.0028
-10.0148
-10.0277
-10.0414
-10.0555
-10.0699
-10.0845
-10.0992
-10.114
-10.1287
-10.1434
-10.158
-10.1725
-10.1869
-10.2013
-10.2155
-10.2297
-10.2438
-10.2578
-10.2717
-10.2856
-10.2994
-10.3131
-10.3267
-10.3402
-9.97046
-9.97075
-9.97133
-9.97301
-9.97629
-9.98142
-9.98841
-9.99709
-10.0072
-10.0185
-10.0307
-10.0436
-10.0571
-10.0709
-10.0849
-10.0991
-10.1134
-10.1277
-10.142
-10.1563
-10.1705
-10.1846
-10.1986
-10.2125
-10.2263
-10.24
-10.2536
-10.2672
-10.2806
-10.2939
-10.3071
-10.3201
-10.333
-9.97583
-9.9761
-9.97694
-9.97881
-9.9821
-9.987
-9.99357
-10.0017
-10.0111
-10.0217
-10.0332
-10.0455
-10.0583
-10.0715
-10.085
-10.0987
-10.1126
-10.1265
-10.1404
-10.1542
-10.1681
-10.1818
-10.1955
-10.209
-10.2225
-10.2358
-10.249
-10.2621
-10.2751
-10.2879
-10.3005
-10.313
-10.3252
-9.98113
-9.98138
-9.98232
-9.98424
-9.98741
-9.99203
-9.99815
-10.0057
-10.0145
-10.0244
-10.0353
-10.0469
-10.0591
-10.0718
-10.0848
-10.098
-10.1114
-10.1248
-10.1383
-10.1518
-10.1653
-10.1787
-10.192
-10.2052
-10.2182
-10.2312
-10.244
-10.2566
-10.2691
-10.2814
-10.2935
-10.3054
-10.3171
-9.98632
-9.98655
-9.98748
-9.9893
-9.99225
-9.99651
-10.0022
-10.0091
-10.0173
-10.0266
-10.0369
-10.0479
-10.0595
-10.0716
-10.0841
-10.0969
-10.1098
-10.1229
-10.136
-10.1491
-10.1622
-10.1752
-10.1882
-10.201
-10.2137
-10.2262
-10.2386
-10.2508
-10.2628
-10.2746
-10.2861
-10.2975
-10.3085
-9.99139
-9.99159
-9.99241
-9.99401
-9.99663
-10.0005
-10.0056
-10.012
-10.0196
-10.0283
-10.0379
-10.0484
-10.0595
-10.0711
-10.0831
-10.0954
-10.1079
-10.1206
-10.1333
-10.1461
-10.1588
-10.1714
-10.184
-10.1964
-10.2087
-10.2209
-10.2328
-10.2446
-10.2561
-10.2674
-10.2784
-10.2892
-10.2997
-9.99634
-9.99651
-9.99713
-9.99838
-10.0005
-10.0038
-10.0084
-10.0142
-10.0212
-10.0293
-10.0384
-10.0483
-10.0589
-10.07
-10.0816
-10.0935
-10.1056
-10.1179
-10.1303
-10.1427
-10.155
-10.1673
-10.1795
-10.1916
-10.2035
-10.2152
-10.2268
-10.2381
-10.2491
-10.26
-10.2705
-10.2808
-10.2907
-10.0012
-10.0014
-10.0017
-10.0024
-10.004
-10.0067
-10.0106
-10.0157
-10.0221
-10.0297
-10.0382
-10.0476
-10.0577
-10.0684
-10.0796
-10.0911
-10.1029
-10.1149
-10.1269
-10.1389
-10.151
-10.1629
-10.1748
-10.1865
-10.198
-10.2093
-10.2205
-10.2313
-10.2419
-10.2523
-10.2623
-10.2721
-10.2815
-10.0061
-10.0063
-10.0061
-10.0061
-10.007
-10.0089
-10.012
-10.0165
-10.0223
-10.0292
-10.0373
-10.0462
-10.0559
-10.0663
-10.0771
-10.0883
-10.0997
-10.1114
-10.1231
-10.1348
-10.1465
-10.1582
-10.1697
-10.1811
-10.1922
-10.2032
-10.2139
-10.2244
-10.2345
-10.2444
-10.254
-10.2633
-10.2722
-10.0112
-10.0113
-10.0105
-10.0096
-10.0094
-10.0104
-10.0127
-10.0164
-10.0216
-10.028
-10.0355
-10.0441
-10.0534
-10.0634
-10.0739
-10.0849
-10.096
-10.1074
-10.1188
-10.1303
-10.1417
-10.1531
-10.1643
-10.1753
-10.1862
-10.1968
-10.2071
-10.2172
-10.2269
-10.2364
-10.2455
-10.2543
-10.2628
-10.0168
-10.0168
-10.0151
-10.0128
-10.0113
-10.0111
-10.0124
-10.0154
-10.0199
-10.0258
-10.0329
-10.0411
-10.0501
-10.0598
-10.0701
-10.0808
-10.0917
-10.1029
-10.1141
-10.1253
-10.1365
-10.1476
-10.1585
-10.1693
-10.1798
-10.19
-10.2
-10.2097
-10.2191
-10.2281
-10.2369
-10.2452
-10.2532
-10.0232
-10.0231
-10.0199
-10.0157
-10.0125
-10.0109
-10.0111
-10.0132
-10.017
-10.0224
-10.0291
-10.037
-10.0458
-10.0554
-10.0655
-10.076
-10.0868
-10.0977
-10.1088
-10.1198
-10.1308
-10.1416
-10.1523
-10.1628
-10.173
-10.183
-10.1926
-10.202
-10.211
-10.2197
-10.228
-10.236
-10.2435
-10.0313
-10.0309
-10.0253
-10.0184
-10.013
-10.0096
-10.0084
-10.0095
-10.0127
-10.0177
-10.0241
-10.0318
-10.0404
-10.0499
-10.0599
-10.0703
-10.081
-10.0918
-10.1027
-10.1136
-10.1244
-10.1351
-10.1455
-10.1558
-10.1658
-10.1755
-10.1849
-10.1939
-10.2026
-10.2109
-10.2189
-10.2265
-10.2337
-10.0423
-10.0411
-10.0316
-10.0206
-10.0123
-10.0067
-10.004
-10.0041
-10.0067
-10.0113
-10.0175
-10.0251
-10.0337
-10.0431
-10.053
-10.0634
-10.0741
-10.0849
-10.0957
-10.1065
-10.1172
-10.1278
-10.1381
-10.1481
-10.1579
-10.1674
-10.1766
-10.1854
-10.1938
-10.2018
-10.2095
-10.2168
-10.2237
-10.0587
-10.055
-10.0387
-10.022
-10.0099
-10.0017
-9.99729
-9.99644
-9.99846
-10.0028
-10.0089
-10.0165
-10.0251
-10.0346
-10.0447
-10.0551
-10.0658
-10.0767
-10.0875
-10.0983
-10.109
-10.1195
-10.1297
-10.1397
-10.1493
-10.1587
-10.1676
-10.1763
-10.1845
-10.1923
-10.1998
-10.2068
-10.2134
-10.0868
-10.0757
-10.0461
-10.021
-10.0043
-9.99314
-9.98705
-9.98544
-9.98715
-9.99137
-9.99758
-10.0053
-10.0142
-10.0238
-10.0341
-10.0447
-10.0556
-10.0666
-10.0775
-10.0884
-10.0991
-10.1096
-10.1199
-10.1299
-10.1395
-10.1488
-10.1577
-10.1662
-10.1743
-10.1821
-10.1894
-10.1963
-10.2027
-10.1389
-10.1107
-10.057
-10.0182
-9.99411
-9.97846
-9.97054
-9.96858
-9.97051
-9.97525
-9.98218
-9.9907
-10.0003
-10.0107
-10.0216
-10.0328
-10.0442
-10.0556
-10.0669
-10.078
-10.089
-10.0997
-10.11
-10.12
-10.1297
-10.139
-10.1479
-10.1563
-10.1643
-10.172
-10.1791
-10.1859
-10.1922
-10.2181
-10.1553
-10.0732
-10.0225
-9.9861
-9.96005
-9.94679
-9.94214
-9.94229
-9.94611
-9.95294
-9.96191
-9.97232
-9.98371
-9.99576
-10.0082
-10.0208
-10.0334
-10.0459
-10.0582
-10.0703
-10.0819
-10.0932
-10.1041
-10.1146
-10.1246
-10.1341
-10.1431
-10.1517
-10.1598
-10.1674
-10.1745
-10.181
-10.3624
-10.1292
-10.0038
-9.99673
-9.98689
-9.97266
-9.96919
-9.97088
-9.97316
-9.97648
-9.98146
-9.98782
-9.99519
-10.0034
-10.0123
-10.0218
-10.0316
-10.0416
-10.0518
-10.062
-10.0721
-10.0821
-10.0919
-10.1014
-10.1106
-10.1196
-10.1281
-10.1363
-10.1441
-10.1515
-10.1586
-10.1652
-10.1714
-11.3113
-10.0779
-9.48662
-9.41393
-9.43303
-9.47419
-9.53227
-9.59146
-9.64581
-9.69594
-9.7422
-9.78423
-9.82212
-9.85639
-9.88748
-9.91578
-9.9416
-9.96523
-9.98693
-10.0069
-10.0254
-10.0424
-10.0582
-10.0729
-10.0865
-10.0992
-10.1109
-10.1219
-10.132
-10.1413
-10.1499
-10.1578
-10.165
-15.0771
-12.8666
-11.8536
-11.234
-10.8163
-10.5683
-10.4055
-10.2818
-10.1897
-10.1261
-10.0836
-10.0554
-10.0376
-10.0276
-10.0234
-10.0235
-10.0266
-10.032
-10.0389
-10.0469
-10.0556
-10.0647
-10.0741
-10.0835
-10.0928
-10.1019
-10.1108
-10.1194
-10.1277
-10.1355
-10.143
-10.1501
-10.1568
-1.21721
-5.30406
-7.41584
-8.17901
-8.61035
-8.97096
-9.23902
-9.41809
-9.54461
-9.64295
-9.72118
-9.78305
-9.83274
-9.87385
-9.90869
-9.93868
-9.96483
-9.98797
-10.0087
-10.0274
-10.0444
-10.06
-10.0743
-10.0876
-10.0998
-10.1112
-10.1217
-10.1315
-10.1405
-10.1489
-10.1566
-10.1636
-10.1701
-10.3068
-10.0593
-10.3683
-10.6626
-10.7846
-10.8255
-10.8443
-10.8524
-10.8556
-10.8632
-10.8819
-10.9139
-10.9583
-11.0129
-11.0752
-11.142
-11.2102
-11.2773
-11.341
-11.3992
-11.4506
-11.4941
-11.5286
-11.5537
-11.5691
-11.5745
-11.57
-11.5556
-11.5314
-11.4974
-11.4537
-11.4003
-11.3372
-11.2643
-11.1814
-11.0884
-10.9852
-10.8715
-10.7472
-10.612
-10.4657
-10.3082
-10.1394
-9.95902
-9.76711
-9.56369
-9.34891
-9.123
-8.88624
-8.63904
-8.38201
-8.1158
-7.8412
-7.55912
-7.27059
-6.97673
-6.67875
-6.37794
-6.07563
-5.77318
-5.47197
-5.17338
-4.87872
-4.58926
-4.3062
-4.0306
-3.76344
-3.50555
-3.25763
-3.02024
-2.7938
-2.57858
-2.37475
-2.18236
-2.00134
-1.83153
-1.67266
-1.5244
-1.38637
-1.2581
-1.13911
-1.02892
-0.927
-0.83284
-0.745917
-0.665751
-0.591853
-0.523781
-0.461075
-0.403385
-0.350212
-0.301431
-0.256176
-0.21516
-0.175836
-0.142284
-0.104847
-0.0818061
-0.0343762
-0.0409522
-10.3576
-10.3443
-10.5425
-10.6958
-10.7361
-10.7376
-10.7405
-10.7466
-10.7561
-10.7742
-10.8045
-10.8468
-10.899
-10.9592
-11.0248
-11.0933
-11.1623
-11.2296
-11.293
-11.3509
-11.402
-11.4452
-11.4796
-11.5046
-11.52
-11.5254
-11.521
-11.5067
-11.4827
-11.4489
-11.4054
-11.3521
-11.2892
-11.2165
-11.1338
-11.0411
-10.9382
-10.8248
-10.7009
-10.5662
-10.4205
-10.2636
-10.0955
-9.9161
-9.72526
-9.52308
-9.30969
-9.08535
-8.85033
-8.60506
-8.35011
-8.08616
-7.81396
-7.53442
-7.24853
-6.9574
-6.6622
-6.36419
-6.06467
-5.76497
-5.46644
-5.17042
-4.8782
-4.59104
-4.31008
-4.03639
-3.77094
-3.51454
-3.2679
-3.03157
-2.80598
-2.59142
-2.38807
-2.19598
-2.01509
-1.84527
-1.68627
-1.53775
-1.39938
-1.27068
-1.1512
-1.04046
-0.937958
-0.843184
-0.755628
-0.674817
-0.600265
-0.531536
-0.468171
-0.409825
-0.355992
-0.306561
-0.260632
-0.218991
-0.178924
-0.144906
-0.106377
-0.0838604
-0.0332953
-0.0460655
-10.3698
-10.3786
-10.4673
-10.5786
-10.6473
-10.6859
-10.7149
-10.737
-10.7536
-10.7712
-10.7953
-10.8281
-10.8703
-10.9213
-10.9796
-11.0429
-11.1085
-11.1738
-11.2363
-11.294
-11.3451
-11.3883
-11.4228
-11.4481
-11.4637
-11.4694
-11.4654
-11.4516
-11.428
-11.3946
-11.3515
-11.2987
-11.2361
-11.1638
-11.0815
-10.9892
-10.8868
-10.774
-10.6506
-10.5166
-10.3716
-10.2156
-10.0485
-9.87021
-9.68065
-9.47991
-9.26813
-9.04556
-8.8125
-8.56936
-8.31672
-8.05522
-7.78561
-7.50878
-7.22571
-6.93745
-6.64518
-6.35011
-6.05351
-5.75668
-5.46094
-5.16759
-4.87791
-4.59311
-4.31434
-4.04264
-3.77896
-3.52412
-3.27881
-3.04359
-2.8189
-2.60504
-2.40218
-2.21041
-2.02967
-1.85985
-1.7007
-1.55192
-1.41318
-1.28403
-1.16403
-1.05272
-0.949598
-0.854169
-0.765941
-0.68444
-0.60919
-0.53976
-0.475693
-0.416647
-0.362111
-0.311984
-0.265347
-0.223032
-0.1822
-0.147651
-0.108059
-0.0859244
-0.0324156
-0.0509577
-10.3753
-10.3981
-10.4679
-10.5698
-10.6428
-10.6808
-10.704
-10.7217
-10.7372
-10.7553
-10.7802
-10.8133
-10.8547
-10.9034
-10.9578
-11.0159
-11.0756
-11.1347
-11.1915
-11.2443
-11.2914
-11.3317
-11.3642
-11.3883
-11.4034
-11.4091
-11.4053
-11.3917
-11.3685
-11.3355
-11.2928
-11.2405
-11.1785
-11.1067
-11.025
-10.9333
-10.8315
-10.7194
-10.5967
-10.4635
-10.3195
-10.1645
-9.99858
-9.82156
-9.63346
-9.43434
-9.22435
-9.00373
-8.7728
-8.53197
-8.28178
-8.02289
-7.75603
-7.48205
-7.20192
-6.91669
-6.62746
-6.33544
-6.04187
-5.74802
-5.45517
-5.1646
-4.87756
-4.59523
-4.31874
-4.04912
-3.7873
-3.53409
-3.29019
-3.05616
-2.83244
-2.61932
-2.41701
-2.22559
-2.04503
-1.87521
-1.71593
-1.56689
-1.42778
-1.29816
-1.17762
-1.06571
-0.961933
-0.865815
-0.776877
-0.694646
-0.618656
-0.548481
-0.483666
-0.423876
-0.368593
-0.317726
-0.270344
-0.227308
-0.185681
-0.150544
-0.109896
-0.0880381
-0.0317049
-0.0556714
-10.382
-10.4132
-10.4717
-10.5505
-10.6116
-10.648
-10.674
-10.6969
-10.7184
-10.741
-10.7679
-10.8009
-10.8403
-10.8855
-10.9356
-10.989
-11.044
-11.0987
-11.1512
-11.2001
-11.2436
-11.2807
-11.3106
-11.3323
-11.3455
-11.3499
-11.3451
-11.3308
-11.3072
-11.2743
-11.2318
-11.1797
-11.118
-11.0467
-10.9655
-10.8743
-10.7731
-10.6617
-10.5399
-10.4075
-10.2645
-10.1107
-9.94603
-9.77042
-9.58389
-9.3865
-9.17842
-8.95988
-8.7312
-8.49279
-8.24518
-7.98901
-7.725
-7.45399
-7.17691
-6.89479
-6.60873
-6.31987
-6.02944
-5.73868
-5.44883
-5.16115
-4.87685
-4.5971
-4.323
-4.05557
-3.79572
-3.54425
-3.30186
-3.0691
-2.84642
-2.63412
-2.43242
-2.24141
-2.06106
-1.89129
-1.73189
-1.58261
-1.44312
-1.31304
-1.19195
-1.07942
-0.97496
-0.878125
-0.788443
-0.705444
-0.628674
-0.557712
-0.492108
-0.431529
-0.375455
-0.323805
-0.275637
-0.231832
-0.189384
-0.153598
-0.111903
-0.090206
-0.0311872
-0.0601541
-10.3873
-10.4209
-10.4705
-10.5336
-10.5883
-10.6268
-10.6562
-10.6817
-10.7053
-10.7291
-10.756
-10.7878
-10.8249
-10.867
-10.9134
-10.9626
-11.0132
-11.0634
-11.1116
-11.1565
-11.1965
-11.2305
-11.2576
-11.2771
-11.2885
-11.2913
-11.2853
-11.2703
-11.246
-11.2127
-11.1699
-11.1178
-11.0562
-10.9849
-10.904
-10.8133
-10.7126
-10.6018
-10.4807
-10.3493
-10.2072
-10.0546
-9.89117
-9.717
-9.53208
-9.33648
-9.13036
-8.91396
-8.68759
-8.45166
-8.2067
-7.95333
-7.69226
-7.4243
-7.15038
-6.87147
-6.58866
-6.30308
-6.0159
-5.72834
-5.44161
-5.15694
-4.87551
-4.59846
-4.32688
-4.06176
-3.80399
-3.55438
-3.31361
-3.08223
-2.86068
-2.6493
-2.44829
-2.25774
-2.07766
-1.90797
-1.7485
-1.59901
-1.45915
-1.32862
-1.20698
-1.09381
-0.988664
-0.891089
-0.800632
-0.716834
-0.639248
-0.567462
-0.501028
-0.439619
-0.382714
-0.330236
-0.281239
-0.23662
-0.193322
-0.156825
-0.114098
-0.0924255
-0.0308941
-0.0643373
-10.3911
-10.4245
-10.4683
-10.5211
-10.5701
-10.6081
-10.6383
-10.665
-10.6899
-10.715
-10.7424
-10.7737
-10.8091
-10.8486
-10.8916
-10.9369
-10.9832
-11.0291
-11.0731
-11.1139
-11.1502
-11.1809
-11.2052
-11.2222
-11.2315
-11.2327
-11.2253
-11.2092
-11.1842
-11.1502
-11.1071
-11.0547
-10.9929
-10.9218
-10.841
-10.7506
-10.6503
-10.54
-10.4196
-10.2889
-10.1479
-9.99629
-9.83414
-9.66141
-9.47809
-9.28428
-9.08014
-8.86591
-8.64189
-8.4085
-8.16624
-7.91573
-7.65767
-7.39285
-7.12215
-6.84656
-6.56711
-6.2849
-6.00108
-5.71684
-5.43335
-5.15182
-4.87338
-4.59917
-4.33023
-4.06754
-3.81199
-3.56435
-3.32531
-3.09541
-2.87511
-2.66473
-2.46448
-2.27447
-2.09472
-1.92518
-1.76568
-1.61601
-1.47583
-1.34485
-1.22266
-1.10886
-1.00301
-0.904684
-0.813431
-0.728808
-0.650377
-0.577731
-0.510432
-0.448152
-0.390378
-0.337028
-0.287164
-0.241685
-0.197509
-0.16024
-0.11649
-0.0946942
-0.0308514
-0.0681678
-10.3934
-10.4258
-10.4652
-10.5107
-10.5544
-10.5909
-10.6215
-10.6489
-10.6749
-10.7009
-10.7285
-10.7589
-10.7927
-10.8297
-10.8695
-10.9112
-10.9535
-10.9954
-11.0354
-11.0723
-11.105
-11.1324
-11.1537
-11.1682
-11.1753
-11.1745
-11.1656
-11.1482
-11.1221
-11.0873
-11.0435
-10.9907
-10.9287
-10.8574
-10.7767
-10.6864
-10.5865
-10.4766
-10.3568
-10.2268
-10.0866
-9.93612
-9.7752
-9.60387
-9.42214
-9.23012
-9.02797
-8.81591
-8.59427
-8.36344
-8.12394
-7.87635
-7.62135
-7.35972
-7.09234
-6.82014
-6.54413
-6.2654
-5.98505
-5.70423
-5.42409
-5.1458
-4.87048
-4.59921
-4.33303
-4.07289
-3.81966
-3.57411
-3.3369
-3.10859
-2.88963
-2.68033
-2.4809
-2.29151
-2.11218
-1.94285
-1.78337
-1.63355
-1.49308
-1.36167
-1.23895
-1.12453
-1.01798
-0.918883
-0.826819
-0.741351
-0.662049
-0.588515
-0.520317
-0.457132
-0.398452
-0.34419
-0.29342
-0.247035
-0.201955
-0.163851
-0.119093
-0.0970106
-0.0310807
-0.0716062
-10.3946
-10.4255
-10.4615
-10.5015
-10.5408
-10.5754
-10.6058
-10.6335
-10.66
-10.6863
-10.7137
-10.7433
-10.7754
-10.8101
-10.8469
-10.8851
-10.9238
-10.9618
-10.998
-11.0313
-11.0605
-11.0847
-11.103
-11.1149
-11.1197
-11.117
-11.1063
-11.0875
-11.0603
-11.0245
-10.98
-10.9266
-10.8642
-10.7926
-10.7118
-10.6215
-10.5217
-10.4122
-10.2928
-10.1635
-10.0242
-9.87462
-9.71487
-9.5449
-9.36474
-9.17449
-8.97431
-8.76444
-8.54518
-8.31694
-8.08021
-7.83557
-7.58368
-7.3253
-7.06128
-6.79253
-6.52004
-6.24485
-5.96804
-5.69072
-5.41403
-5.13907
-4.86694
-4.59872
-4.33539
-4.07788
-3.82706
-3.58368
-3.3484
-3.12177
-2.90421
-2.69605
-2.49755
-2.30885
-2.12999
-1.96092
-1.80151
-1.65158
-1.51085
-1.37904
-1.2558
-1.14076
-1.03351
-0.933655
-0.840772
-0.754442
-0.67425
-0.599803
-0.530679
-0.466555
-0.406935
-0.351725
-0.300015
-0.25268
-0.206668
-0.167665
-0.121917
-0.0993737
-0.0315998
-0.0746165
-10.3947
-10.424
-10.4571
-10.493
-10.5286
-10.5613
-10.591
-10.6185
-10.645
-10.6712
-10.6982
-10.7268
-10.7573
-10.7897
-10.8238
-10.8588
-10.894
-10.9283
-10.9609
-10.9905
-11.0163
-11.0373
-11.0528
-11.0621
-11.0646
-11.0599
-11.0475
-11.0272
-10.9987
-10.9619
-10.9165
-10.8624
-10.7995
-10.7276
-10.6465
-10.5562
-10.4565
-10.3473
-10.2283
-10.0996
-9.96098
-9.81238
-9.65376
-9.48512
-9.30649
-9.11799
-8.91976
-8.71206
-8.49519
-8.26953
-8.03558
-7.7939
-7.54514
-7.29004
-7.02942
-6.76416
-6.49522
-6.22362
-5.95039
-5.67663
-5.40342
-5.13186
-4.86299
-4.59786
-4.33745
-4.08266
-3.83432
-3.59318
-3.35989
-3.13498
-2.91888
-2.71195
-2.51445
-2.32649
-2.14814
-1.97937
-1.82006
-1.67006
-1.5291
-1.39692
-1.27318
-1.15754
-1.0496
-0.948972
-0.855262
-0.768061
-0.686961
-0.611581
-0.541506
-0.476416
-0.415826
-0.359633
-0.306949
-0.258622
-0.211653
-0.171687
-0.124968
-0.101784
-0.0324214
-0.0771686
-10.3938
-10.4216
-10.4522
-10.4848
-10.5173
-10.5481
-10.5768
-10.6038
-10.6299
-10.6558
-10.6821
-10.7095
-10.7384
-10.7686
-10.8
-10.832
-10.8638
-10.8947
-10.9237
-10.95
-10.9724
-10.9904
-11.003
-11.0097
-11.0099
-11.0031
-10.989
-10.9671
-10.9374
-10.8994
-10.8531
-10.7983
-10.7348
-10.6625
-10.5812
-10.4908
-10.3912
-10.2821
-10.1636
-10.0354
-9.8975
-9.7498
-9.59229
-9.42495
-9.24785
-9.06107
-8.86479
-8.65925
-8.44475
-8.22168
-7.99051
-7.7518
-7.50618
-7.25436
-6.99714
-6.73538
-6.47002
-6.20202
-5.93242
-5.66224
-5.39255
-5.12441
-4.85885
-4.59686
-4.33941
-4.08736
-3.84156
-3.60271
-3.37145
-3.1483
-2.93374
-2.72809
-2.53161
-2.34443
-2.16664
-1.9982
-1.83904
-1.68899
-1.54782
-1.41529
-1.29107
-1.17483
-1.0662
-0.964808
-0.870268
-0.782186
-0.700166
-0.623834
-0.552786
-0.486705
-0.425118
-0.36791
-0.314222
-0.264865
-0.216914
-0.175921
-0.128251
-0.104243
-0.0335529
-0.0792403
-10.392
-10.4184
-10.4468
-10.4766
-10.5066
-10.5356
-10.563
-10.5892
-10.6147
-10.6399
-10.6654
-10.6916
-10.7187
-10.7468
-10.7756
-10.8047
-10.8334
-10.861
-10.8866
-10.9095
-10.9288
-10.9437
-10.9535
-10.9576
-10.9555
-10.9467
-10.9307
-10.9073
-10.8762
-10.8371
-10.7899
-10.7343
-10.6702
-10.5975
-10.5159
-10.4254
-10.3258
-10.217
-10.0988
-9.97112
-9.83393
-9.68715
-9.53073
-9.36469
-9.1891
-9.00405
-8.80971
-8.60633
-8.39421
-8.17372
-7.94533
-7.70959
-7.4671
-7.21856
-6.96475
-6.70651
-6.44473
-6.18035
-5.91437
-5.64779
-5.38164
-5.11695
-4.8547
-4.59588
-4.34141
-4.09215
-3.84891
-3.61237
-3.38317
-3.16185
-2.94885
-2.74451
-2.54908
-2.36272
-2.18551
-2.01744
-1.85844
-1.70837
-1.56701
-1.43413
-1.30944
-1.19262
-1.0833
-0.981146
-0.885771
-0.796799
-0.713846
-0.636547
-0.564508
-0.497413
-0.434803
-0.376552
-0.321832
-0.271407
-0.222449
-0.180371
-0.131767
-0.106753
-0.0349952
-0.0808178
-10.3893
-10.4142
-10.4408
-10.4683
-10.4961
-10.5233
-10.5494
-10.5747
-10.5993
-10.6236
-10.6481
-10.6729
-10.6984
-10.7243
-10.7507
-10.777
-10.8026
-10.827
-10.8495
-10.8691
-10.8853
-10.8972
-10.9043
-10.9059
-10.9014
-10.8905
-10.8728
-10.8478
-10.8153
-10.775
-10.7268
-10.6705
-10.6058
-10.5326
-10.4507
-10.3601
-10.2605
-10.1519
-10.034
-9.90692
-9.77046
-9.62457
-9.46926
-9.30454
-9.13046
-8.94714
-8.75475
-8.55353
-8.34378
-8.12588
-7.90028
-7.6675
-7.42814
-7.18289
-6.9325
-6.67776
-6.41956
-6.1588
-5.89645
-5.63347
-5.37087
-5.10963
-4.85071
-4.59507
-4.3436
-4.09714
-3.85646
-3.62227
-3.39516
-3.17569
-2.96428
-2.76127
-2.56691
-2.38139
-2.20479
-2.0371
-1.87829
-1.72821
-1.58667
-1.45347
-1.32831
-1.2109
-1.1009
-0.997975
-0.901759
-0.811888
-0.727991
-0.649709
-0.57666
-0.508529
-0.444873
-0.385553
-0.329773
-0.278247
-0.228259
-0.185036
-0.135512
-0.109318
-0.0367423
-0.0818981
-10.3857
-10.4093
-10.4341
-10.4598
-10.4856
-10.5111
-10.5359
-10.56
-10.5836
-10.6069
-10.6302
-10.6536
-10.6773
-10.7012
-10.7251
-10.7488
-10.7715
-10.7929
-10.8122
-10.8288
-10.842
-10.8511
-10.8554
-10.8545
-10.8478
-10.8348
-10.8152
-10.7886
-10.7547
-10.7133
-10.6641
-10.6069
-10.5416
-10.4679
-10.3858
-10.295
-10.1954
-10.087
-9.96952
-9.84296
-9.70722
-9.56225
-9.40806
-9.24465
-9.0721
-8.89052
-8.70009
-8.50104
-8.29368
-8.07837
-7.85554
-7.62573
-7.38951
-7.14754
-6.90055
-6.64932
-6.39469
-6.13755
-5.87882
-5.61945
-5.36039
-5.10259
-4.84701
-4.59455
-4.34609
-4.10243
-3.86434
-3.6325
-3.40751
-3.18989
-2.98008
-2.77841
-2.58516
-2.40048
-2.2245
-2.05722
-1.89859
-1.74852
-1.60682
-1.47328
-1.34766
-1.22967
-1.11899
-1.01529
-0.918223
-0.827444
-0.742588
-0.663309
-0.589232
-0.520046
-0.455321
-0.394906
-0.338042
-0.285382
-0.23434
-0.189918
-0.139484
-0.111942
-0.0387813
-0.0824907
-10.3813
-10.4036
-10.4269
-10.4508
-10.475
-10.4989
-10.5223
-10.5452
-10.5676
-10.5898
-10.6117
-10.6336
-10.6556
-10.6775
-10.6991
-10.7201
-10.7402
-10.7586
-10.775
-10.7886
-10.7989
-10.8052
-10.8069
-10.8035
-10.7946
-10.7796
-10.7581
-10.7299
-10.6946
-10.652
-10.6018
-10.5438
-10.4778
-10.4037
-10.3212
-10.2303
-10.1308
-10.0225
-9.90541
-9.7794
-9.6444
-9.50036
-9.3473
-9.18522
-9.01421
-8.83438
-8.64592
-8.44905
-8.24407
-8.03135
-7.81131
-7.58447
-7.35138
-7.11268
-6.86909
-6.62135
-6.37029
-6.11675
-5.86163
-5.60585
-5.35032
-5.09597
-4.84372
-4.59443
-4.34897
-4.10812
-3.87262
-3.64314
-3.42026
-3.20451
-2.9963
-2.79599
-2.60384
-2.42003
-2.24468
-2.0778
-1.91938
-1.76931
-1.62745
-1.49359
-1.36751
-1.24893
-1.13756
-1.03308
-0.935158
-0.843458
-0.757632
-0.677338
-0.602216
-0.531955
-0.46614
-0.404606
-0.346633
-0.292809
-0.240689
-0.195015
-0.143675
-0.114626
-0.041094
-0.0826173
-10.376
-10.3972
-10.4191
-10.4414
-10.464
-10.4864
-10.5085
-10.5301
-10.5513
-10.5722
-10.5928
-10.6131
-10.6333
-10.6532
-10.6726
-10.6912
-10.7085
-10.7243
-10.7378
-10.7486
-10.7561
-10.7597
-10.7589
-10.7531
-10.7419
-10.7249
-10.7017
-10.6718
-10.6351
-10.5913
-10.5401
-10.4812
-10.4146
-10.34
-10.2572
-10.1662
-10.0667
-9.9586
-9.8419
-9.71645
-9.58219
-9.4391
-9.28718
-9.12644
-8.95698
-8.77892
-8.59243
-8.39775
-8.19516
-7.98503
-7.76777
-7.54389
-7.31392
-7.07849
-6.83828
-6.59402
-6.3465
-6.09655
-5.84503
-5.59282
-5.3408
-5.08988
-4.84094
-4.59482
-4.35235
-4.1143
-3.88138
-3.65425
-3.43349
-3.2196
-3.01301
-2.81405
-2.62301
-2.44007
-2.26535
-2.09888
-1.94066
-1.79061
-1.64858
-1.5144
-1.38785
-1.26869
-1.15662
-1.05135
-0.952557
-0.859926
-0.773114
-0.691791
-0.615605
-0.544249
-0.477322
-0.414646
-0.355539
-0.300522
-0.2473
-0.200326
-0.148081
-0.117373
-0.0436569
-0.0823089
-10.37
-10.39
-10.4106
-10.4316
-10.4527
-10.4736
-10.4944
-10.5147
-10.5346
-10.5542
-10.5733
-10.5922
-10.6106
-10.6285
-10.6457
-10.6619
-10.6768
-10.6899
-10.7007
-10.7089
-10.7137
-10.7147
-10.7114
-10.7033
-10.69
-10.671
-10.646
-10.6145
-10.5765
-10.5314
-10.4792
-10.4195
-10.3522
-10.2771
-10.194
-10.1028
-10.0034
-9.89552
-9.7792
-9.65433
-9.52083
-9.37869
-9.22792
-9.06854
-8.90064
-8.72435
-8.53984
-8.34734
-8.14715
-7.9396
-7.72512
-7.50418
-7.27732
-7.04514
-6.80829
-6.56749
-6.3235
-6.07712
-5.82916
-5.58049
-5.33197
-5.08445
-4.83879
-4.59582
-4.35632
-4.12105
-3.89071
-3.66592
-3.44726
-3.23522
-3.03023
-2.83263
-2.6427
-2.46062
-2.28652
-2.12047
-1.96245
-1.8124
-1.67021
-1.5357
-1.40869
-1.28892
-1.17615
-1.07008
-0.970414
-0.876837
-0.789025
-0.706656
-0.629389
-0.55692
-0.48886
-0.425019
-0.364755
-0.308518
-0.254168
-0.205847
-0.15269
-0.120185
-0.0464421
-0.0816048
-10.3632
-10.3822
-10.4016
-10.4212
-10.441
-10.4606
-10.48
-10.499
-10.5176
-10.5358
-10.5535
-10.5708
-10.5874
-10.6034
-10.6185
-10.6325
-10.645
-10.6556
-10.6639
-10.6694
-10.6717
-10.6702
-10.6646
-10.6542
-10.6388
-10.6179
-10.5912
-10.5582
-10.5187
-10.4725
-10.4192
-10.3587
-10.2908
-10.2152
-10.1318
-10.0405
-9.94109
-9.83347
-9.71755
-9.59326
-9.46054
-9.31937
-9.16976
-9.01174
-8.84541
-8.6709
-8.48837
-8.29806
-8.10025
-7.89528
-7.68357
-7.46556
-7.24179
-7.01283
-6.77933
-6.54196
-6.30146
-6.0586
-5.81418
-5.56902
-5.32395
-5.07981
-4.83741
-4.59754
-4.36099
-4.12848
-3.90068
-3.67821
-3.46163
-3.25143
-3.04803
-2.85178
-2.66293
-2.48171
-2.30824
-2.14259
-1.98476
-1.83472
-1.69235
-1.55751
-1.43001
-1.30964
-1.19615
-1.08927
-0.988717
-0.894181
-0.805354
-0.721923
-0.643557
-0.569955
-0.500742
-0.435716
-0.37427
-0.316787
-0.261284
-0.211575
-0.157494
-0.123065
-0.0494175
-0.0805503
-10.3558
-10.3737
-10.392
-10.4104
-10.4289
-10.4472
-10.4653
-10.483
-10.5003
-10.5171
-10.5334
-10.5491
-10.564
-10.5781
-10.5912
-10.603
-10.6132
-10.6214
-10.6273
-10.6304
-10.6302
-10.6264
-10.6185
-10.606
-10.5886
-10.5659
-10.5374
-10.5029
-10.4621
-10.4147
-10.3605
-10.2992
-10.2306
-10.1546
-10.0709
-9.97943
-9.88008
-9.77269
-9.65719
-9.5335
-9.40156
-9.26137
-9.11293
-8.95629
-8.79154
-8.6188
-8.43826
-8.25013
-8.0547
-7.8523
-7.64333
-7.42824
-7.20753
-6.98177
-6.75157
-6.5176
-6.28056
-6.04119
-5.80026
-5.55857
-5.31691
-5.07609
-4.8369
-4.60011
-4.36646
-4.13667
-3.91138
-3.6912
-3.47668
-3.26829
-3.06646
-2.87152
-2.68376
-2.50337
-2.33051
-2.16525
-2.0076
-1.85755
-1.71499
-1.5798
-1.45182
-1.33084
-1.21662
-1.10892
-1.00745
-0.911944
-0.822086
-0.737576
-0.658094
-0.583341
-0.512955
-0.446723
-0.384074
-0.32532
-0.268638
-0.2175
-0.162477
-0.126013
-0.052548
-0.0791945
-10.3478
-10.3647
-10.3819
-10.3992
-10.4165
-10.4336
-10.4504
-10.4668
-10.4828
-10.4982
-10.513
-10.5271
-10.5404
-10.5527
-10.5638
-10.5735
-10.5815
-10.5875
-10.5911
-10.5919
-10.5895
-10.5834
-10.5733
-10.5588
-10.5395
-10.5149
-10.4848
-10.4489
-10.4068
-10.3583
-10.3031
-10.241
-10.1718
-10.0953
-10.0114
-9.91983
-9.82055
-9.71342
-9.59835