/*--------------------------------*- C++ -*----------------------------------*\
  =========                 |
  \\      /  F ield         | OpenFOAM: The Open Source CFD Toolbox
   \\    /   O peration     | Website:  https://openfoam.org
    \\  /    A nd           | Version:  10
     \\/     M anipulation  |
\*---------------------------------------------------------------------------*/
FoamFile
{
    format      ascii;
    class       surfaceScalarField;
    location    "1300";
    object      phi;
}
// * * * * * * * * * * * * * * * * * * * * * * * * * * * * * * * * * * * * * //

dimensions      [0 3 -1 0 0 0 0];

internalField   nonuniform List<scalar> 
13452
(
6.29962e-05
-2.72776e-06
6.37619e-05
-7.65633e-07
6.45326e-05
-7.70787e-07
6.38574e-05
6.75232e-07
6.2516e-05
1.34139e-06
6.10812e-05
1.43478e-06
5.97497e-05
1.33152e-06
5.85561e-05
1.19366e-06
5.74953e-05
1.0608e-06
5.65542e-05
9.41093e-07
5.57172e-05
8.37032e-07
5.49687e-05
7.48453e-07
5.42953e-05
6.73415e-07
5.36859e-05
6.09385e-07
5.31317e-05
5.54264e-07
5.26252e-05
5.06455e-07
5.21605e-05
4.64693e-07
5.17326e-05
4.27954e-07
5.13371e-05
3.95427e-07
5.09707e-05
3.6647e-07
5.06301e-05
3.40573e-07
5.03128e-05
3.1733e-07
5.00163e-05
2.9642e-07
4.97387e-05
2.77593e-07
4.94781e-05
2.6067e-07
4.92325e-05
2.45538e-07
4.90004e-05
2.32174e-07
4.87797e-05
2.20635e-07
4.85684e-05
2.11346e-07
4.8364e-05
2.0433e-07
4.81622e-05
2.01824e-07
4.79653e-05
1.96931e-07
1.97097e-07
4.77682e-05
6.28938e-05
-3.6312e-06
6.27373e-05
-6.0916e-07
6.21168e-05
-1.50251e-07
6.23913e-05
4.00752e-07
6.28732e-05
8.5944e-07
6.32662e-05
1.04182e-06
6.35107e-05
1.08704e-06
6.36214e-05
1.0829e-06
6.36288e-05
1.05345e-06
6.35618e-05
1.00804e-06
6.34436e-05
9.55299e-07
6.32907e-05
9.01349e-07
6.3115e-05
8.49065e-07
6.29249e-05
7.99528e-07
6.2726e-05
7.53101e-07
6.25226e-05
7.09886e-07
6.23175e-05
6.69813e-07
6.21127e-05
6.32699e-07
6.19098e-05
5.98325e-07
6.17098e-05
5.66472e-07
6.15135e-05
5.36942e-07
6.13212e-05
5.09555e-07
6.11335e-05
4.84158e-07
6.09505e-05
4.60629e-07
6.07723e-05
4.38886e-07
6.05989e-05
4.18889e-07
6.04304e-05
4.00675e-07
6.02667e-05
3.84289e-07
6.01079e-05
3.70185e-07
5.99544e-05
3.57829e-07
5.98068e-05
3.49434e-07
5.96649e-05
3.38883e-07
3.57553e-07
5.95044e-05
6.23344e-05
-2.20424e-06
6.26284e-05
-9.03134e-07
6.27866e-05
-3.08448e-07
6.3096e-05
9.13432e-08
6.34473e-05
5.08207e-07
6.37493e-05
7.39754e-07
6.39954e-05
8.40987e-07
6.41903e-05
8.8799e-07
6.43385e-05
9.05253e-07
6.44463e-05
9.00239e-07
6.45208e-05
8.80841e-07
6.45682e-05
8.539e-07
6.45939e-05
8.23368e-07
6.46022e-05
7.91269e-07
6.45965e-05
7.58808e-07
6.45796e-05
7.26782e-07
6.45537e-05
6.95676e-07
6.45207e-05
6.65746e-07
6.44819e-05
6.37117e-07
6.44385e-05
6.09847e-07
6.43915e-05
5.83956e-07
6.43416e-05
5.5944e-07
6.42895e-05
5.36289e-07
6.42356e-05
5.14501e-07
6.41804e-05
4.94095e-07
6.41242e-05
4.75112e-07
6.40672e-05
4.57661e-07
6.40096e-05
4.41859e-07
6.39517e-05
4.28101e-07
6.38933e-05
4.16218e-07
6.38349e-05
4.0782e-07
6.37726e-05
4.01183e-07
4.11006e-07
6.37192e-05
6.47916e-05
-1.41274e-06
6.47391e-05
-8.50712e-07
6.47874e-05
-3.56661e-07
6.48995e-05
-2.08245e-08
6.50726e-05
3.35172e-07
6.52456e-05
5.66727e-07
6.54029e-05
6.83729e-07
6.55433e-05
7.47529e-07
6.5666e-05
7.82572e-07
6.57709e-05
7.95381e-07
6.58592e-05
7.92531e-07
6.59328e-05
7.80314e-07
6.59935e-05
7.62636e-07
6.60431e-05
7.4164e-07
6.60832e-05
7.18715e-07
6.61151e-05
6.94852e-07
6.61401e-05
6.70722e-07
6.61591e-05
6.46752e-07
6.6173e-05
6.23221e-07
6.61825e-05
6.00317e-07
6.61883e-05
5.78169e-07
6.61909e-05
5.56868e-07
6.61907e-05
5.36489e-07
6.61881e-05
5.17097e-07
6.61834e-05
4.9877e-07
6.61769e-05
4.81603e-07
6.61688e-05
4.65735e-07
6.61594e-05
4.51327e-07
6.61488e-05
4.38706e-07
6.6137e-05
4.27964e-07
6.61246e-05
4.20221e-07
6.61105e-05
4.15307e-07
4.19341e-07
6.61022e-05
6.70182e-05
-9.74182e-07
6.6871e-05
-7.03488e-07
6.68449e-05
-3.30557e-07
6.68728e-05
-4.87382e-08
6.69617e-05
2.4629e-07
6.70706e-05
4.57806e-07
6.71774e-05
5.7694e-07
6.72778e-05
6.47157e-07
6.73704e-05
6.89905e-07
6.74544e-05
7.11443e-07
6.75294e-05
7.17477e-07
6.75961e-05
7.13612e-07
6.76553e-05
7.03511e-07
6.77076e-05
6.89305e-07
6.77539e-05
6.7242e-07
6.77949e-05
6.53902e-07
6.78311e-05
6.34485e-07
6.78632e-05
6.14668e-07
6.78916e-05
5.94797e-07
6.79168e-05
5.75121e-07
6.79392e-05
5.55825e-07
6.7959e-05
5.37048e-07
6.79766e-05
5.18907e-07
6.79921e-05
5.01503e-07
6.8006e-05
4.84944e-07
6.80182e-05
4.69346e-07
6.80291e-05
4.54857e-07
6.80388e-05
4.41644e-07
6.80475e-05
4.29969e-07
6.80555e-05
4.20016e-07
6.80632e-05
4.12488e-07
6.8071e-05
4.07508e-07
4.07258e-07
6.80831e-05
6.9089e-05
-6.79151e-07
6.89436e-05
-5.5808e-07
6.89005e-05
-2.87507e-07
6.89039e-05
-5.2136e-08
6.89554e-05
1.94797e-07
6.90297e-05
3.83517e-07
6.91069e-05
4.99728e-07
6.91818e-05
5.72303e-07
6.92531e-05
6.18619e-07
6.93197e-05
6.44806e-07
6.93812e-05
6.56034e-07
6.94375e-05
6.57262e-07
6.94891e-05
6.51887e-07
6.95364e-05
6.42001e-07
6.95798e-05
6.29038e-07
6.96197e-05
6.14056e-07
6.96563e-05
5.97812e-07
6.96902e-05
5.80838e-07
6.97215e-05
5.63514e-07
6.97505e-05
5.46123e-07
6.97774e-05
5.28876e-07
6.98025e-05
5.11939e-07
6.9826e-05
4.95449e-07
6.9848e-05
4.79526e-07
6.98686e-05
4.64288e-07
6.98881e-05
4.49855e-07
6.99066e-05
4.36365e-07
6.99243e-05
4.23966e-07
6.99414e-05
4.12851e-07
6.99582e-05
4.03188e-07
6.99754e-05
3.95344e-07
6.99935e-05
3.8934e-07
3.85674e-07
7.00151e-05
7.11537e-05
-4.66496e-07
7.10277e-05
-4.32074e-07
7.09799e-05
-2.39745e-07
7.09726e-05
-4.48089e-08
7.10042e-05
1.63219e-07
7.10576e-05
3.30074e-07
7.11167e-05
4.40629e-07
7.11758e-05
5.1316e-07
7.12335e-05
5.60953e-07
7.12886e-05
5.89752e-07
7.13403e-05
6.04279e-07
7.13887e-05
6.08907e-07
7.14338e-05
6.06754e-07
7.1476e-05
5.99852e-07
7.15154e-05
5.89628e-07
7.15523e-05
5.77137e-07
7.1587e-05
5.63145e-07
7.16196e-05
5.48201e-07
7.16504e-05
5.3271e-07
7.16796e-05
5.16969e-07
7.17072e-05
5.01211e-07
7.17336e-05
4.85615e-07
7.17587e-05
4.70328e-07
7.17827e-05
4.55478e-07
7.18058e-05
4.41183e-07
7.18281e-05
4.27557e-07
7.18498e-05
4.14716e-07
7.1871e-05
4.02777e-07
7.18919e-05
3.91869e-07
7.1913e-05
3.82088e-07
7.19348e-05
3.73565e-07
7.1958e-05
3.66182e-07
3.5978e-07
7.19839e-05
7.32523e-05
-3.13555e-07
7.31446e-05
-3.24311e-07
7.30947e-05
-1.89919e-07
7.30808e-05
-3.08299e-08
7.31e-05
1.43944e-07
7.31398e-05
2.90334e-07
7.31869e-05
3.93525e-07
7.32358e-05
4.64266e-07
7.32845e-05
5.12199e-07
7.33319e-05
5.42398e-07
7.33771e-05
5.59096e-07
7.34199e-05
5.66126e-07
7.34603e-05
5.66324e-07
7.34985e-05
5.61639e-07
7.35347e-05
5.53469e-07
7.35689e-05
5.42856e-07
7.36015e-05
5.30566e-07
7.36326e-05
5.17162e-07
7.36622e-05
5.03057e-07
7.36906e-05
4.88567e-07
7.37179e-05
4.73931e-07
7.37442e-05
4.5934e-07
7.37696e-05
4.44946e-07
7.37942e-05
4.30877e-07
7.38181e-05
4.17246e-07
7.38415e-05
4.04154e-07
7.38645e-05
3.91695e-07
7.38873e-05
3.79949e-07
7.39102e-05
3.68985e-07
7.39335e-05
3.58825e-07
7.39576e-05
3.49454e-07
7.39831e-05
3.40661e-07
3.32076e-07
7.40108e-05
7.53941e-05
-2.05201e-07
7.53032e-05
-2.3342e-07
7.52537e-05
-1.40376e-07
7.52354e-05
-1.25341e-08
7.52462e-05
1.33164e-07
7.5276e-05
2.60464e-07
7.53144e-05
3.55189e-07
7.53559e-05
4.22773e-07
7.53983e-05
4.69811e-07
7.54401e-05
5.00518e-07
7.54807e-05
5.18576e-07
7.55195e-05
5.27309e-07
7.55565e-05
5.29269e-07
7.55919e-05
5.26292e-07
7.56256e-05
5.19731e-07
7.56579e-05
5.10602e-07
7.56888e-05
4.99665e-07
7.57185e-05
4.87483e-07
7.5747e-05
4.74479e-07
7.57746e-05
4.60977e-07
7.58013e-05
4.47223e-07
7.58273e-05
4.33412e-07
7.58525e-05
4.19697e-07
7.58772e-05
4.06206e-07
7.59014e-05
3.93041e-07
7.59253e-05
3.80291e-07
7.59489e-05
3.68025e-07
7.59726e-05
3.5629e-07
7.59965e-05
3.45105e-07
7.60208e-05
3.3444e-07
7.60461e-05
3.24192e-07
7.60727e-05
3.14119e-07
3.03814e-07
7.61009e-05
7.7584e-05
-1.29614e-07
7.75094e-05
-1.588e-07
7.74626e-05
-9.35665e-08
7.74419e-05
8.17595e-09
7.74465e-05
1.28565e-07
7.74688e-05
2.38169e-07
7.75002e-05
3.23763e-07
7.75358e-05
3.87121e-07
7.75732e-05
4.32391e-07
7.76109e-05
4.62855e-07
7.76479e-05
4.81604e-07
7.76837e-05
4.91476e-07
7.77183e-05
4.94734e-07
7.77515e-05
4.93079e-07
7.77834e-05
4.87796e-07
7.78141e-05
4.79866e-07
7.78438e-05
4.7003e-07
7.78724e-05
4.58849e-07
7.79001e-05
4.46748e-07
7.79271e-05
4.34052e-07
7.79533e-05
4.21013e-07
7.79789e-05
4.07824e-07
7.80039e-05
3.94641e-07
7.80285e-05
3.81584e-07
7.80528e-05
3.68749e-07
7.80769e-05
3.56208e-07
7.81009e-05
3.4401e-07
7.8125e-05
3.32176e-07
7.81495e-05
3.2069e-07
7.81744e-05
3.09485e-07
7.82002e-05
2.98424e-07
7.8227e-05
2.87266e-07
2.75641e-07
7.82552e-05
7.98265e-05
-7.77585e-08
7.97671e-05
-9.9451e-08
7.97251e-05
-5.15446e-08
7.97038e-05
2.94927e-08
7.9704e-05
1.28322e-07
7.97204e-05
2.21778e-07
7.97462e-05
2.97978e-07
7.9777e-05
3.56332e-07
7.98103e-05
3.99103e-07
7.98445e-05
4.2867e-07
7.98785e-05
4.47525e-07
7.9912e-05
4.58043e-07
7.99445e-05
4.62197e-07
7.99761e-05
4.61535e-07
8.00066e-05
4.57257e-07
8.00362e-05
4.50294e-07
8.00648e-05
4.41363e-07
8.00927e-05
4.31011e-07
8.01198e-05
4.1966e-07
8.01462e-05
4.07635e-07
8.0172e-05
3.95184e-07
8.01973e-05
3.82503e-07
8.02222e-05
3.69743e-07
8.02468e-05
3.57019e-07
8.02711e-05
3.44418e-07
8.02953e-05
3.31999e-07
8.03196e-05
3.19795e-07
8.03439e-05
3.07807e-07
8.03686e-05
2.95998e-07
8.03938e-05
2.84284e-07
8.04197e-05
2.72521e-07
8.04465e-05
2.60491e-07
2.47885e-07
8.04742e-05
8.21255e-05
-4.28316e-08
8.20798e-05
-5.37387e-08
8.20439e-05
-1.5659e-08
8.20237e-05
4.97588e-08
8.20212e-05
1.30775e-07
8.20331e-05
2.09854e-07
8.20543e-05
2.76796e-07
8.2081e-05
3.29665e-07
8.21107e-05
3.69363e-07
8.21419e-05
3.97474e-07
8.21735e-05
4.15921e-07
8.22049e-05
4.26643e-07
8.22358e-05
4.31331e-07
8.2266e-05
4.31366e-07
8.22954e-05
4.27848e-07
8.2324e-05
4.2165e-07
8.23519e-05
4.13452e-07
8.23791e-05
4.03786e-07
8.24057e-05
3.93061e-07
8.24318e-05
3.81595e-07
8.24573e-05
3.69637e-07
8.24825e-05
3.57376e-07
8.25073e-05
3.44958e-07
8.25318e-05
3.32494e-07
8.25561e-05
3.20062e-07
8.25804e-05
3.07712e-07
8.26047e-05
2.95464e-07
8.26292e-05
2.83306e-07
8.26541e-05
2.71193e-07
8.26793e-05
2.59038e-07
8.27051e-05
2.46704e-07
8.27316e-05
2.3401e-07
2.20708e-07
8.27588e-05
8.44847e-05
-1.97703e-08
8.44506e-05
-1.96558e-08
8.44215e-05
1.35038e-08
8.44036e-05
6.76439e-08
8.43999e-05
1.34419e-07
8.44087e-05
2.01068e-07
8.44263e-05
2.59252e-07
8.44495e-05
3.06455e-07
8.44762e-05
3.42689e-07
8.45047e-05
3.68895e-07
8.45342e-05
3.86493e-07
8.45638e-05
3.97027e-07
8.45932e-05
4.0192e-07
8.46222e-05
4.02379e-07
8.46506e-05
3.99397e-07
8.46785e-05
3.93778e-07
8.47058e-05
3.86161e-07
8.47325e-05
3.77051e-07
8.47588e-05
3.66843e-07
8.47845e-05
3.55845e-07
8.48098e-05
3.44297e-07
8.48348e-05
3.32385e-07
8.48595e-05
3.2025e-07
8.4884e-05
3.07994e-07
8.49084e-05
2.95691e-07
8.49327e-05
2.8338e-07
8.49571e-05
2.71077e-07
8.49817e-05
2.58763e-07
8.50065e-05
2.46391e-07
8.50316e-05
2.33879e-07
8.50572e-05
2.21112e-07
8.50833e-05
2.07942e-07
1.94176e-07
8.51098e-05
8.69073e-05
-4.87688e-09
8.68827e-05
4.90193e-09
8.68602e-05
3.60264e-08
8.68456e-05
8.22765e-08
8.6842e-05
1.37993e-07
8.68488e-05
1.9421e-07
8.68637e-05
2.44416e-07
8.68841e-05
2.86049e-07
8.69082e-05
3.18617e-07
8.69345e-05
3.42595e-07
8.6962e-05
3.58987e-07
8.699e-05
3.68999e-07
8.70181e-05
3.73801e-07
8.70461e-05
3.74435e-07
8.70737e-05
3.71781e-07
8.71009e-05
3.6657e-07
8.71277e-05
3.59393e-07
8.7154e-05
3.50722e-07
8.71799e-05
3.40933e-07
8.72054e-05
3.30321e-07
8.72306e-05
3.19116e-07
8.72555e-05
3.07497e-07
8.72801e-05
2.95597e-07
8.73046e-05
2.83514e-07
8.7329e-05
2.71315e-07
8.73533e-05
2.59035e-07
8.73777e-05
2.46685e-07
8.74023e-05
2.34246e-07
8.7427e-05
2.21675e-07
8.74519e-05
2.08902e-07
8.74772e-05
1.95832e-07
8.75028e-05
1.82351e-07
1.68317e-07
8.75287e-05
8.93962e-05
4.4847e-09
8.93792e-05
2.19218e-08
8.93627e-05
5.24685e-08
8.93517e-05
9.32616e-08
8.93492e-05
1.40562e-07
8.93551e-05
1.88242e-07
8.93681e-05
2.3142e-07
8.93864e-05
2.678e-07
8.94083e-05
2.96682e-07
8.94327e-05
3.18239e-07
8.94585e-05
3.33163e-07
8.94851e-05
3.42377e-07
8.95121e-05
3.46837e-07
8.95391e-05
3.47424e-07
8.9566e-05
3.4491e-07
8.95926e-05
3.39949e-07
8.96189e-05
3.3308e-07
8.96449e-05
3.24741e-07
8.96705e-05
3.15283e-07
8.96959e-05
3.04984e-07
8.97209e-05
2.94064e-07
8.97457e-05
2.82691e-07
8.97703e-05
2.70991e-07
8.97948e-05
2.59059e-07
8.98192e-05
2.46953e-07
8.98435e-05
2.34709e-07
8.98678e-05
2.22334e-07
8.98923e-05
2.09814e-07
8.99168e-05
1.97112e-07
8.99416e-05
1.84171e-07
8.99665e-05
1.7092e-07
8.99915e-05
1.57275e-07
1.43129e-07
9.00167e-05
9.19542e-05
1.01541e-08
9.1943e-05
3.31544e-08
9.19318e-05
6.36646e-08
9.19244e-05
1.00613e-07
9.19234e-05
1.41549e-07
9.19293e-05
1.82359e-07
9.19412e-05
2.19504e-07
9.19579e-05
2.51095e-07
9.19782e-05
2.76417e-07
9.2001e-05
2.95485e-07
9.20253e-05
3.0877e-07
9.20507e-05
3.16982e-07
9.20767e-05
3.20892e-07
9.21029e-05
3.21242e-07
9.21291e-05
3.18702e-07
9.21552e-05
3.13849e-07
9.21811e-05
3.0717e-07
9.22068e-05
2.99065e-07
9.22322e-05
2.89858e-07
9.22574e-05
2.79809e-07
9.22823e-05
2.69123e-07
9.2307e-05
2.57959e-07
9.23316e-05
2.46435e-07
9.2356e-05
2.3464e-07
9.23803e-05
2.22629e-07
9.24046e-05
2.10435e-07
9.24289e-05
1.98068e-07
9.24532e-05
1.85517e-07
9.24775e-05
1.72755e-07
9.2502e-05
1.59738e-07
9.25265e-05
1.46418e-07
9.2551e-05
1.3273e-07
1.18603e-07
9.25755e-05
9.45839e-05
1.33914e-08
9.4577e-05
4.00628e-08
9.45701e-05
7.05503e-08
9.45661e-05
1.04638e-07
9.45669e-05
1.40708e-07
9.45733e-05
1.76017e-07
9.45847e-05
2.08068e-07
9.46004e-05
2.35399e-07
9.46194e-05
2.57391e-07
9.46409e-05
2.73999e-07
9.46641e-05
2.85562e-07
9.46885e-05
2.92631e-07
9.47136e-05
2.95832e-07
9.4739e-05
2.95791e-07
9.47646e-05
2.93082e-07
9.47903e-05
2.88213e-07
9.48158e-05
2.81619e-07
9.48412e-05
2.7366e-07
9.48664e-05
2.64634e-07
9.48915e-05
2.5478e-07
9.49163e-05
2.44287e-07
9.4941e-05
2.33302e-07
9.49655e-05
2.21939e-07
9.49898e-05
2.10276e-07
9.50141e-05
1.98369e-07
9.50383e-05
1.86249e-07
9.50624e-05
1.73928e-07
9.50865e-05
1.614e-07
9.51106e-05
1.48648e-07
9.51347e-05
1.35644e-07
9.51588e-05
1.2235e-07
9.51828e-05
1.08729e-07
9.47282e-08
9.52067e-05
9.72879e-05
1.50469e-08
9.72841e-05
4.38232e-08
9.72806e-05
7.40449e-08
9.72794e-05
1.05822e-07
9.72821e-05
1.38061e-07
9.72892e-05
1.6893e-07
9.73005e-05
1.96697e-07
9.73156e-05
2.20289e-07
9.73338e-05
2.39229e-07
9.73543e-05
2.53479e-07
9.73766e-05
2.63303e-07
9.74001e-05
2.69146e-07
9.74244e-05
2.71527e-07
9.74492e-05
2.70973e-07
9.74743e-05
2.67979e-07
9.74995e-05
2.6299e-07
9.75248e-05
2.5639e-07
9.75499e-05
2.48502e-07
9.7575e-05
2.39596e-07
9.75998e-05
2.2989e-07
9.76246e-05
2.19556e-07
9.76491e-05
2.0873e-07
9.76736e-05
1.97517e-07
9.76979e-05
1.8599e-07
9.7722e-05
1.74203e-07
9.77461e-05
1.62185e-07
9.77701e-05
1.49951e-07
9.7794e-05
1.37504e-07
9.78178e-05
1.24832e-07
9.78415e-05
1.11918e-07
9.78651e-05
9.87404e-08
9.78886e-05
8.52767e-08
7.14915e-08
9.79118e-05
0.000100068
1.569e-08
0.000100067
4.53573e-08
0.000100066
7.49856e-08
0.000100067
1.0473e-07
0.000100071
1.33822e-07
0.000100079
1.61027e-07
0.000100091
1.85165e-07
0.000100106
2.05482e-07
0.000100123
2.21653e-07
0.000100143
2.33678e-07
0.000100164
2.41791e-07
0.000100187
2.46371e-07
0.000100211
2.47857e-07
0.000100235
2.46701e-07
0.00010026
2.43331e-07
0.000100285
2.38135e-07
0.00010031
2.31453e-07
0.000100335
2.23574e-07
0.000100359
2.14736e-07
0.000100384
2.05138e-07
0.000100409
1.94937e-07
0.000100433
1.84256e-07
0.000100458
1.7319e-07
0.000100482
1.61808e-07
0.000100506
1.5016e-07
0.00010053
1.38277e-07
0.000100553
1.26177e-07
0.000100577
1.13864e-07
0.000100601
1.01338e-07
0.000100624
8.85868e-08
0.000100647
7.5605e-08
0.00010067
6.23758e-08
4.88845e-08
0.000100693
0.000102928
1.57007e-08
0.000102928
4.53751e-08
0.000102929
7.41012e-08
0.000102932
1.0194e-07
0.000102937
1.28324e-07
0.000102946
1.52412e-07
0.000102958
1.73415e-07
0.000102972
1.90837e-07
0.000102989
2.04489e-07
0.000103009
2.14427e-07
0.00010303
2.2088e-07
0.000103052
2.24186e-07
0.000103075
2.2473e-07
0.000103099
2.22906e-07
0.000103123
2.19089e-07
0.000103147
2.13617e-07
0.000103172
2.06791e-07
0.000103197
1.98865e-07
0.000103221
1.90054e-07
0.000103246
1.80533e-07
0.000103271
1.70444e-07
0.000103295
1.59898e-07
0.000103319
1.48981e-07
0.000103343
1.37758e-07
0.000103367
1.26274e-07
0.000103391
1.14561e-07
0.000103414
1.02637e-07
0.000103438
9.05128e-08
0.000103461
7.81915e-08
0.000103484
6.56718e-08
0.000103506
5.29524e-08
0.000103529
4.00296e-08
2.68972e-08
0.000103551
0.000105869
1.53359e-08
0.00010587
4.44244e-08
0.000105872
7.20132e-08
0.000105876
9.80078e-08
0.000105882
1.21966e-07
0.000105892
1.4331e-07
0.000105903
1.61535e-07
0.000105918
1.76348e-07
0.000105935
1.87682e-07
0.000105953
1.9565e-07
0.000105974
2.00492e-07
0.000105996
2.02524e-07
0.000106018
2.02094e-07
0.000106042
1.99552e-07
0.000106065
1.95229e-07
0.00010609
1.89424e-07
0.000106114
1.824e-07
0.000106138
1.74383e-07
0.000106163
1.65561e-07
0.000106187
1.56091e-07
0.000106212
1.46098e-07
0.000106236
1.35681e-07
0.00010626
1.24919e-07
0.000106284
1.13869e-07
0.000106308
1.02574e-07
0.000106331
9.10658e-08
0.000106354
7.93607e-08
0.000106377
6.74761e-08
0.0001064
5.54143e-08
0.000106423
4.31865e-08
0.000106445
3.07908e-08
0.000106467
1.82373e-08
5.51952e-09
0.000106488
0.000108894
1.4775e-08
0.000108895
4.29358e-08
0.000108898
6.92554e-08
0.000108903
9.34595e-08
0.00010891
1.15181e-07
0.000108919
1.34034e-07
0.000108931
1.49725e-07
0.000108945
1.62127e-07
0.000108961
1.71283e-07
0.00010898
1.77364e-07
0.000108999
1.80627e-07
0.000109021
1.8138e-07
0.000109043
1.79946e-07
0.000109066
1.76641e-07
0.000109089
1.7176e-07
0.000109113
1.65568e-07
0.000109137
1.58298e-07
0.000109161
1.50147e-07
0.000109186
1.41281e-07
0.00010921
1.31837e-07
0.000109234
1.21926e-07
0.000109258
1.11634e-07
0.000109282
1.01032e-07
0.000109306
9.01704e-08
0.000109329
7.90899e-08
0.000109352
6.78161e-08
0.000109375
5.63722e-08
0.000109398
4.47693e-08
0.00010942
3.30223e-08
0.000109442
2.11364e-08
0.000109464
9.12375e-09
0.000109485
-3.01056e-09
-1.52625e-08
0.000109506
0.000112005
1.4152e-08
0.000112007
4.12658e-08
0.00011201
6.63032e-08
0.000112014
8.87982e-08
0.000112021
1.08431e-07
0.00011203
1.24964e-07
0.000112042
1.38278e-07
0.000112055
1.48393e-07
0.000112071
1.55451e-07
0.000112089
1.59683e-07
0.000112108
1.6137e-07
0.000112129
1.6082e-07
0.00011215
1.58339e-07
0.000112173
1.54218e-07
0.000112196
1.48723e-07
0.000112219
1.4209e-07
0.000112243
1.34522e-07
0.000112267
1.26194e-07
0.000112291
1.17248e-07
0.000112315
1.07805e-07
0.000112339
9.79586e-08
0.000112363
8.77868e-08
0.000112387
7.73472e-08
0.00011241
6.66871e-08
0.000112433
5.58396e-08
0.000112456
4.48311e-08
0.000112479
3.36809e-08
0.000112501
2.24044e-08
0.000112523
1.1014e-08
0.000112545
-4.78792e-10
0.000112566
-1.20637e-08
0.000112587
-2.373e-08
-3.54733e-08
0.000112607
0.000115205
1.35796e-08
0.000115207
3.97377e-08
0.000115209
6.3613e-08
0.000115214
8.45334e-08
0.00011522
1.02213e-07
0.000115228
1.16548e-07
0.000115239
1.27577e-07
0.000115252
1.35459e-07
0.000115267
1.40439e-07
0.000115284
1.4281e-07
0.000115302
1.42885e-07
0.000115322
1.40978e-07
0.000115343
1.37385e-07
0.000115365
1.32378e-07
0.000115387
1.26198e-07
0.00011541
1.19055e-07
0.000115434
1.1113e-07
0.000115457
1.02571e-07
0.000115481
9.35032e-08
0.000115505
8.40279e-08
0.000115529
7.42253e-08
0.000115552
6.41605e-08
0.000115576
5.3882e-08
0.000115599
4.34299e-08
0.000115622
3.28312e-08
0.000115645
2.21113e-08
0.000115667
1.12853e-08
0.000115689
3.7009e-10
0.000115711
-1.0624e-08
0.000115732
-2.16831e-08
0.000115753
-3.27981e-08
0.000115773
-4.39559e-08
-5.51539e-08
0.000115793
0.000118496
1.31687e-08
0.000118497
3.8685e-08
0.000118499
6.16713e-08
0.000118503
8.12244e-08
0.000118508
9.7095e-08
0.000118515
1.09319e-07
0.000118524
1.18098e-07
0.000118536
1.23738e-07
0.00011855
1.26596e-07
0.000118566
1.27036e-07
0.000118583
1.25412e-07
0.000118602
1.22049e-07
0.000118622
1.17242e-07
0.000118643
1.11247e-07
0.000118665
1.04285e-07
0.000118688
9.65455e-08
0.000118711
8.81829e-08
0.000118734
7.93263e-08
0.000118757
7.00811e-08
0.000118781
6.05292e-08
0.000118804
5.07391e-08
0.000118828
4.07592e-08
0.000118851
3.06333e-08
0.000118874
2.03868e-08
0.000118897
1.00489e-08
0.000118919
-3.67779e-10
0.000118942
-1.08431e-08
0.000118963
-2.13702e-08
0.000118985
-3.19327e-08
0.000119005
-4.2525e-08
0.000119026
-5.31318e-08
0.000119046
-6.37477e-08
-7.4364e-08
0.000119065
0.000121881
1.30506e-08
0.000121882
3.85055e-08
0.000121882
6.10623e-08
0.000121884
7.95462e-08
0.000121887
9.37684e-08
0.000121893
1.03935e-07
0.0001219
1.10436e-07
0.00012191
1.13751e-07
0.000121922
1.14365e-07
0.000121937
1.12732e-07
0.000121953
1.09252e-07
0.000121971
1.04276e-07
0.00012199
9.80999e-08
0.00012201
9.09708e-08
0.000122031
8.30938e-08
0.000122053
7.46354e-08
0.000122076
6.573e-08
0.000122099
5.64866e-08
0.000122122
4.69876e-08
0.000122145
3.73014e-08
0.000122168
2.7476e-08
0.000122191
1.75523e-08
0.000122214
7.55574e-09
0.000122237
-2.48854e-09
0.00012226
-1.25677e-08
0.000122282
-2.26659e-08
0.000122304
-3.27766e-08
0.000122326
-4.28877e-08
0.000122347
-5.29946e-08
0.000122367
-6.30855e-08
0.000122387
-7.31556e-08
0.000122407
-8.31939e-08
-9.31996e-08
0.000122426
0.000125363
1.34048e-08
0.000125362
3.97375e-08
0.00012536
6.25641e-08
0.00012536
8.03849e-08
0.00012536
9.31296e-08
0.000125363
1.0124e-07
0.000125368
1.05348e-07
0.000125376
1.06149e-07
0.000125386
1.0429e-07
0.000125398
1.00335e-07
0.000125413
9.47501e-08
0.000125429
8.79186e-08
0.000125447
8.01465e-08
0.000125466
7.1676e-08
0.000125487
6.26973e-08
0.000125508
5.33575e-08
0.00012553
4.37703e-08
0.000125552
3.40203e-08
0.000125575
2.41724e-08
0.000125598
1.42724e-08
0.000125621
4.35422e-09
0.000125644
-5.55897e-09
0.000125667
-1.54508e-08
0.00012569
-2.53108e-08
0.000125713
-3.51313e-08
0.000125735
-4.49079e-08
0.000125757
-5.46366e-08
0.000125778
-6.43143e-08
0.000125799
-7.39371e-08
0.00012582
-8.3501e-08
0.000125839
-9.30009e-08
0.000125859
-1.02432e-07
-1.11795e-07
0.000125877
0.000128944
1.45079e-08
0.000128941
4.3185e-08
0.000128936
6.73007e-08
0.000128931
8.49793e-08
0.000128928
9.63969e-08
0.000128927
1.02345e-07
0.000128928
1.03793e-07
0.000128933
1.01722e-07
0.00012894
9.69956e-08
0.00012895
9.03178e-08
0.000128963
8.2243e-08
0.000128977
7.31986e-08
0.000128994
6.35076e-08
0.000129012
5.34097e-08
0.000129032
4.30812e-08
0.000129053
3.26476e-08
0.000129074
2.21995e-08
0.000129096
1.1796e-08
0.000129119
1.47955e-09
0.000129142
-8.72807e-09
0.000129165
-1.88098e-08
0.000129188
-2.87627e-08
0.000129212
-3.85831e-08
0.000129235
-4.8276e-08
0.000129257
-5.78433e-08
0.00012928
-6.7292e-08
0.000129302
-7.66246e-08
0.000129323
-8.58467e-08
0.000129344
-9.49593e-08
0.000129365
-1.03965e-07
0.000129385
-1.12862e-07
0.000129404
-1.21652e-07
-1.30336e-07
0.000129422
0.000132627
1.68248e-08
0.00013262
5.0132e-08
0.00013261
7.69811e-08
0.0001326
9.51307e-08
0.000132591
1.05263e-07
0.000132585
1.08719e-07
0.000132582
1.06961e-07
0.000132582
1.01382e-07
0.000132586
9.31356e-08
0.000132593
8.3111e-08
0.000132603
7.19733e-08
0.000132616
6.02073e-08
0.000132632
4.81553e-08
0.000132649
3.60532e-08
0.000132668
2.4057e-08
0.000132688
1.22685e-08
0.00013271
7.43862e-10
0.000132732
-1.04823e-08
0.000132755
-2.14041e-08
0.000132778
-3.20179e-08
0.000132802
-4.23397e-08
0.000132825
-5.23795e-08
0.000132849
-6.21608e-08
0.000132872
-7.16974e-08
0.000132896
-8.10125e-08
0.000132918
-9.01185e-08
0.000132941
-9.90352e-08
0.000132963
-1.07771e-07
0.000132984
-1.1634e-07
0.000133005
-1.24748e-07
0.000133025
-1.33003e-07
0.000133045
-1.41107e-07
-1.49071e-07
0.000133063
0.000136414
2.11909e-08
0.000136401
6.27357e-08
0.000136384
9.42922e-08
0.000136366
1.13502e-07
0.000136349
1.22075e-07
0.000136335
1.22247e-07
0.000136326
1.16245e-07
0.000136321
1.06065e-07
0.000136321
9.32581e-08
0.000136325
7.89486e-08
0.000136333
6.39329e-08
0.000136345
4.87557e-08
0.000136359
3.37704e-08
0.000136376
1.91964e-08
0.000136395
5.15665e-09
0.000136416
-8.28743e-09
0.000136437
-2.11194e-08
0.00013646
-3.33495e-08
0.000136484
-4.50043e-08
0.000136508
-5.6121e-08
0.000136532
-6.67402e-08
0.000136557
-7.69055e-08
0.000136581
-8.66574e-08
0.000136606
-9.60367e-08
0.00013663
-1.05078e-07
0.000136654
-1.13814e-07
0.000136677
-1.22273e-07
0.000136699
-1.3048e-07
0.000136722
-1.38453e-07
0.000136743
-1.46212e-07
0.000136764
-1.53766e-07
0.000136784
-1.61131e-07
-1.68318e-07
0.000136803
0.000140308
2.91973e-08
0.000140286
8.47482e-08
0.000140257
1.23523e-07
0.000140226
1.44012e-07
0.000140198
1.49991e-07
0.000140175
1.45189e-07
0.000140158
1.33054e-07
0.000140148
1.16479e-07
0.000140144
9.75314e-08
0.000140145
7.76044e-08
0.000140151
5.76217e-08
0.000140162
3.81621e-08
0.000140176
1.95612e-08
0.000140193
1.98493e-09
0.000140213
-1.44997e-08
0.000140235
-2.99012e-08
0.000140258
-4.42589e-08
0.000140282
-5.76455e-08
0.000140307
-7.01341e-08
0.000140333
-8.18118e-08
0.000140359
-9.27542e-08
0.000140385
-1.03043e-07
0.000140411
-1.12744e-07
0.000140437
-1.21927e-07
0.000140463
-1.30644e-07
0.000140488
-1.38949e-07
0.000140512
-1.46884e-07
0.000140536
-1.54488e-07
0.00014056
-1.6179e-07
0.000140582
-1.68821e-07
0.000140604
-1.75599e-07
0.000140625
-1.82146e-07
-1.88479e-07
0.000140645
0.00014431
4.40484e-08
0.000144272
1.2285e-07
0.000144224
1.71493e-07
0.000144175
1.92238e-07
0.000144132
1.92942e-07
0.000144098
1.79837e-07
0.000144073
1.58339e-07
0.000144056
1.32606e-07
0.000144049
1.05286e-07
0.000144048
7.79979e-08
0.000144054
5.17192e-08
0.000144065
2.69895e-08
0.000144081
4.04687e-09
0.0001441
-1.70479e-08
0.000144122
-3.63436e-08
0.000144146
-5.39417e-08
0.000144172
-6.99803e-08
0.000144198
-8.46021e-08
0.000144226
-9.79572e-08
0.000144255
-1.10182e-07
0.000144283
-1.21409e-07
0.000144312
-1.31755e-07
0.000144341
-1.41327e-07
0.000144369
-1.50217e-07
0.000144397
-1.58511e-07
0.000144424
-1.66275e-07
0.000144451
-1.73576e-07
0.000144477
-1.80463e-07
0.000144502
-1.86984e-07
0.000144526
-1.93173e-07
0.00014455
-1.99065e-07
0.000144572
-2.04686e-07
-2.10063e-07
0.000144594
0.000148419
7.26087e-08
0.000148353
1.8904e-07
0.000148276
2.487e-07
0.000148203
2.65517e-07
0.000148141
2.55071e-07
0.000148093
2.27637e-07
0.000148059
1.91675e-07
0.000148039
1.52902e-07
0.00014803
1.14374e-07
0.00014803
7.76935e-08
0.000148038
4.37045e-08
0.000148053
1.27436e-08
0.000148072
-1.51698e-08
0.000148095
-4.0181e-08
0.000148121
-6.25109e-08
0.00014815
-8.24125e-08
0.00014818
-1.00145e-07
0.000148211
-1.15959e-07
0.000148243
-1.30086e-07
0.000148276
-1.42738e-07
0.000148309
-1.54104e-07
0.000148341
-1.6435e-07
0.000148373
-1.73624e-07
0.000148405
-1.82051e-07
0.000148436
-1.89744e-07
0.000148467
-1.96795e-07
0.000148497
-2.03288e-07
0.000148526
-2.0929e-07
0.000148553
-2.14861e-07
0.00014858
-2.20051e-07
0.000148606
-2.24901e-07
0.000148631
-2.29448e-07
-2.33724e-07
0.000148655
0.000152632
1.29832e-07
0.000152516
3.0505e-07
0.000152394
3.70503e-07
0.000152288
3.72078e-07
0.000152204
3.3902e-07
0.000152144
2.87385e-07
0.000152106
2.29768e-07
0.000152085
1.73198e-07
0.000152079
1.2037e-07
0.000152085
7.23183e-08
0.000152099
2.9403e-08
0.00015212
-8.48668e-09
0.000152147
-4.1724e-08
0.000152178
-7.0777e-08
0.000152211
-9.61134e-08
0.000152247
-1.18188e-07
0.000152284
-1.37416e-07
0.000152322
-1.54179e-07
0.000152361
-1.68809e-07
0.0001524
-1.81604e-07
0.000152439
-1.92816e-07
0.000152477
-2.02669e-07
0.000152515
-2.11353e-07
0.000152552
-2.19032e-07
0.000152588
-2.25846e-07
0.000152623
-2.31915e-07
0.000152657
-2.37339e-07
0.00015269
-2.42206e-07
0.000152722
-2.46589e-07
0.000152752
-2.5055e-07
0.000152781
-2.5414e-07
0.000152809
-2.57404e-07
-2.60383e-07
0.000152836
0.000156935
2.45991e-07
0.00015673
5.1077e-07
0.000156541
5.58629e-07
0.000156395
5.18939e-07
0.000156291
4.42749e-07
0.000156226
3.52287e-07
0.000156191
2.64267e-07
0.00015618
1.85111e-07
0.000156185
1.1534e-07
0.000156202
5.45235e-08
0.00015623
2.06847e-09
0.000156264
-4.28706e-08
0.000156304
-8.12702e-08
0.000156347
-1.14024e-07
0.000156393
-1.41928e-07
0.00015644
-1.65669e-07
0.000156489
-1.8586e-07
0.000156537
-2.03022e-07
0.000156586
-2.17613e-07
0.000156635
-2.30012e-07
0.000156682
-2.40553e-07
0.000156729
-2.4951e-07
0.000156775
-2.57126e-07
0.00015682
-2.63595e-07
0.000156863
-2.69095e-07
0.000156905
-2.73763e-07
0.000156945
-2.77726e-07
0.000156984
-2.81082e-07
0.000157021
-2.83923e-07
0.000157057
-2.86316e-07
0.000157091
-2.8833e-07
0.000157124
-2.90009e-07
-2.91412e-07
0.000157155
0.000161294
4.90772e-07
0.000160931
8.73796e-07
0.000160653
8.36442e-07
0.000160464
7.07406e-07
0.000160351
5.55607e-07
0.000160297
4.06573e-07
0.000160282
2.79141e-07
0.000160294
1.73756e-07
0.000160324
8.551e-08
0.000160367
1.15114e-08
0.000160419
-5.01582e-08
0.000160477
-1.01403e-07
0.00016054
-1.43992e-07
0.000160605
-1.79375e-07
0.000160672
-2.0871e-07
0.000160739
-2.32974e-07
0.000160807
-2.5299e-07
0.000160873
-2.69456e-07
0.000160938
-2.82944e-07
0.000161002
-2.93943e-07
0.000161065
-3.02851e-07
0.000161125
-3.10013e-07
0.000161184
-3.15704e-07
0.00016124
-3.20167e-07
0.000161295
-3.23595e-07
0.000161347
-3.26159e-07
0.000161397
-3.27992e-07
0.000161446
-3.29216e-07
0.000161492
-3.29922e-07
0.000161535
-3.30197e-07
0.000161577
-3.30102e-07
0.000161617
-3.29699e-07
-3.29031e-07
0.000161654
0.000165516
1.12861e-06
0.000164915
1.4749e-06
0.000164579
1.17237e-06
0.000164389
8.96839e-07
0.00016431
6.34494e-07
0.000164306
4.10829e-07
0.000164344
2.41563e-07
0.000164407
1.10956e-07
0.000164486
5.61525e-09
0.000164578
-7.99737e-08
0.000164677
-1.48968e-07
0.00016478
-2.04416e-07
0.000164885
-2.48997e-07
0.00016499
-2.84751e-07
0.000165095
-3.13252e-07
0.000165197
-3.35795e-07
0.000165298
-3.53458e-07
0.000165396
-3.67122e-07
0.00016549
-3.77508e-07
0.000165581
-3.852e-07
0.000165669
-3.90682e-07
0.000165754
-3.9435e-07
0.000165834
-3.96529e-07
0.000165912
-3.97489e-07
0.000165986
-3.9745e-07
0.000166056
-3.96595e-07
0.000166123
-3.95078e-07
0.000166187
-3.93023e-07
0.000166248
-3.90537e-07
0.000166305
-3.87709e-07
0.00016636
-3.84616e-07
0.000166411
-3.81329e-07
-3.77919e-07
0.00016646
0.000168807