/*--------------------------------*- C++ -*----------------------------------*\
  =========                 |
  \\      /  F ield         | OpenFOAM: The Open Source CFD Toolbox
   \\    /   O peration     | Website:  https://openfoam.org
    \\  /    A nd           | Version:  10
     \\/     M anipulation  |
\*---------------------------------------------------------------------------*/
FoamFile
{
    format      ascii;
    class       volVectorField;
    location    "1300";
    object      U;
}
// * * * * * * * * * * * * * * * * * * * * * * * * * * * * * * * * * * * * * //

dimensions      [0 1 -1 0 0 0 0];

internalField   nonuniform List<vector> 
6820
(
(7.13228 -2.83247 0)
(7.73434 -2.22097 0)
(7.93448 -1.24474 0)
(7.85773 -0.6306 0)
(7.69324 -0.300931 0)
(7.51792 -0.135203 0)
(7.34936 -0.0534969 0)
(7.19463 -0.0130607 0)
(7.05694 0.00686796 0)
(6.93549 0.0163327 0)
(6.82783 0.0203895 0)
(6.73176 0.0216665 0)
(6.64553 0.0215373 0)
(6.56773 0.020717 0)
(6.49714 0.0195836 0)
(6.43278 0.0183402 0)
(6.37383 0.0170942 0)
(6.31963 0.0158998 0)
(6.26963 0.0147819 0)
(6.22336 0.0137498 0)
(6.1804 0.012805 0)
(6.14043 0.0119447 0)
(6.10314 0.0111648 0)
(6.06825 0.010461 0)
(6.03553 0.00983018 0)
(6.00476 0.00927137 0)
(5.97572 0.00878756 0)
(5.94816 0.00838525 0)
(5.92192 0.00809277 0)
(5.89646 0.00792909 0)
(5.87196 0.00799985 0)
(5.84522 0.00844748 0)
(5.82541 0.00657721 0)
(7.57676 0.619468 0)
(7.41857 0.759314 0)
(7.35518 0.51949 0)
(7.35369 0.338998 0)
(7.40446 0.233423 0)
(7.46266 0.167014 0)
(7.5028 0.124256 0)
(7.52296 0.0970546 0)
(7.52875 0.0793572 0)
(7.52455 0.0672663 0)
(7.51318 0.058646 0)
(7.49677 0.052302 0)
(7.47704 0.0474917 0)
(7.45521 0.0437276 0)
(7.43207 0.0406896 0)
(7.40818 0.0381722 0)
(7.38394 0.0360398 0)
(7.35964 0.0341989 0)
(7.33549 0.0325844 0)
(7.31163 0.0311503 0)
(7.28816 0.0298639 0)
(7.26515 0.0287017 0)
(7.24266 0.0276471 0)
(7.22071 0.0266888 0)
(7.19933 0.0258209 0)
(7.17851 0.025042 0)
(7.15827 0.0243587 0)
(7.13858 0.0237828 0)
(7.11949 0.0233614 0)
(7.10082 0.0230867 0)
(7.08303 0.0232861 0)
(7.06517 0.0234955 0)
(7.05153 0.0272035 0)
(7.26194 -0.0479148 0)
(7.1598 -0.0718994 0)
(7.19681 -0.0845024 0)
(7.23914 -0.0533684 0)
(7.27631 -0.0172223 0)
(7.31446 0.00633804 0)
(7.34736 0.0206577 0)
(7.37268 0.0300117 0)
(7.39198 0.0360117 0)
(7.4065 0.0394939 0)
(7.41687 0.04126 0)
(7.42373 0.0419566 0)
(7.42779 0.0419932 0)
(7.42964 0.0416143 0)
(7.4297 0.0409785 0)
(7.42834 0.0401937 0)
(7.42582 0.0393302 0)
(7.42239 0.0384323 0)
(7.41822 0.0375281 0)
(7.41346 0.0366359 0)
(7.40824 0.0357677 0)
(7.40264 0.0349317 0)
(7.39675 0.0341341 0)
(7.39064 0.0333804 0)
(7.38435 0.032677 0)
(7.37792 0.0320323 0)
(7.37139 0.0314605 0)
(7.36477 0.0309784 0)
(7.35811 0.030632 0)
(7.35135 0.0304298 0)
(7.34467 0.0305791 0)
(7.33779 0.0309326 0)
(7.33194 0.0327642 0)
(7.29243 -0.0887258 0)
(7.22392 -0.061473 0)
(7.23482 -0.0269001 0)
(7.25115 -0.00103413 0)
(7.2656 0.0189098 0)
(7.28496 0.0304703 0)
(7.30449 0.0362737 0)
(7.32129 0.0394562 0)
(7.33582 0.041241 0)
(7.3485 0.0420194 0)
(7.35931 0.0421311 0)
(7.36832 0.0418681 0)
(7.37578 0.0413985 0)
(7.3819 0.040806 0)
(7.38688 0.040141 0)
(7.39087 0.0394391 0)
(7.39402 0.0387234 0)
(7.39645 0.0380083 0)
(7.39827 0.0373028 0)
(7.39956 0.0366132 0)
(7.4004 0.0359445 0)
(7.40085 0.0353009 0)
(7.40097 0.0346867 0)
(7.4008 0.0341071 0)
(7.40037 0.033569 0)
(7.39973 0.0330821 0)
(7.39891 0.0326614 0)
(7.39791 0.0323265 0)
(7.39677 0.0321168 0)
(7.3955 0.0320566 0)
(7.39421 0.0322793 0)
(7.39285 0.03272 0)
(7.39195 0.033939 0)
(7.31244 -0.0515036 0)
(7.26793 -0.0318761 0)
(7.26467 -0.0126197 0)
(7.26769 -5.86869e-05 0)
(7.27322 0.0130526 0)
(7.28436 0.0226476 0)
(7.29691 0.0282834 0)
(7.30832 0.0318835 0)
(7.31873 0.0343763 0)
(7.32833 0.0359793 0)
(7.337 0.0369007 0)
(7.34469 0.0373702 0)
(7.35151 0.0375411 0)
(7.35755 0.0375009 0)
(7.36289 0.0373093 0)
(7.36762 0.0370123 0)
(7.37179 0.0366436 0)
(7.37549 0.0362268 0)
(7.37877 0.0357792 0)
(7.38167 0.0353138 0)
(7.38424 0.0348413 0)
(7.38652 0.0343705 0)
(7.38855 0.0339095 0)
(7.39034 0.0334667 0)
(7.39193 0.0330516 0)
(7.39334 0.0326758 0)
(7.39459 0.0323551 0)
(7.39569 0.0321092 0)
(7.39669 0.0319693 0)
(7.39761 0.0319621 0)
(7.39851 0.0321628 0)
(7.39945 0.032554 0)
(7.4007 0.0333494 0)
(7.3203 -0.031441 0)
(7.28849 -0.0238382 0)
(7.28204 -0.0120244 0)
(7.2814 -0.00207277 0)
(7.28395 0.00926671 0)
(7.29103 0.0182369 0)
(7.2996 0.0239839 0)
(7.30776 0.0278588 0)
(7.31545 0.0306261 0)
(7.32275 0.0325018 0)
(7.32954 0.0336872 0)
(7.33576 0.0343994 0)
(7.34146 0.0347888 0)
(7.34667 0.0349459 0)
(7.35146 0.0349336 0)
(7.35585 0.0347995 0)
(7.35988 0.034579 0)
(7.3636 0.034297 0)
(7.36703 0.0339721 0)
(7.37021 0.0336187 0)
(7.37316 0.0332484 0)
(7.3759 0.0328708 0)
(7.37846 0.032495 0)
(7.38085 0.0321299 0)
(7.3831 0.0317852 0)
(7.38521 0.0314724 0)
(7.38722 0.0312058 0)
(7.38912 0.0310023 0)
(7.39097 0.0308853 0)
(7.39278 0.0308756 0)
(7.39461 0.0310126 0)
(7.39654 0.0312883 0)
(7.39872 0.0317675 0)
(7.32446 -0.0216673 0)
(7.30104 -0.0195814 0)
(7.29416 -0.0109332 0)
(7.2922 -0.00220279 0)
(7.29331 0.00755173 0)
(7.29804 0.0155708 0)
(7.30422 0.0210647 0)
(7.3104 0.0249131 0)
(7.3164 0.0277081 0)
(7.32221 0.0296638 0)
(7.32772 0.0309684 0)
(7.33286 0.031812 0)
(7.33766 0.0323307 0)
(7.34214 0.0326114 0)
(7.34632 0.0327152 0)
(7.35024 0.0326889 0)
(7.35391 0.032567 0)
(7.35736 0.0323749 0)
(7.36061 0.0321317 0)
(7.36369 0.0318522 0)
(7.3666 0.0315484 0)
(7.36937 0.0312307 0)
(7.37201 0.0309083 0)
(7.37453 0.0305902 0)
(7.37695 0.0302858 0)
(7.37928 0.0300056 0)
(7.38153 0.0297615 0)
(7.38373 0.0295669 0)
(7.38591 0.0294375 0)
(7.38809 0.0293865 0)
(7.39032 0.02943 0)
(7.39267 0.0295565 0)
(7.39522 0.0297667 0)
(7.32737 -0.0149955 0)
(7.31004 -0.0151759 0)
(7.30324 -0.00892399 0)
(7.30059 -0.00165315 0)
(7.30082 0.00655949 0)
(7.30407 0.0136075 0)
(7.3087 0.018744 0)
(7.31359 0.0224808 0)
(7.31849 0.0252468 0)
(7.32331 0.027235 0)
(7.32795 0.028613 0)
(7.33235 0.0295445 0)
(7.3365 0.0301514 0)
(7.34043 0.0305161 0)
(7.34414 0.0306983 0)
(7.34765 0.0307438 0)
(7.35099 0.0306865 0)
(7.35416 0.0305522 0)
(7.35719 0.0303603 0)
(7.36008 0.0301261 0)
(7.36286 0.0298619 0)
(7.36553 0.0295783 0)
(7.36811 0.0292844 0)
(7.3706 0.0289891 0)
(7.37302 0.0287009 0)
(7.37538 0.0284289 0)
(7.3777 0.0281823 0)
(7.38 0.0279708 0)
(7.38229 0.0278035 0)
(7.3846 0.0276861 0)
(7.38699 0.0276206 0)
(7.3895 0.0275903 0)
(7.39217 0.0275715 0)
(7.3294 -0.00997909 0)
(7.31672 -0.0111231 0)
(7.3103 -0.00679891 0)
(7.30731 -0.000926872 0)
(7.30696 0.00594375 0)
(7.30918 0.0121033 0)
(7.31272 0.0168444 0)
(7.31668 0.0204202 0)
(7.32079 0.0231201 0)
(7.32491 0.0251054 0)
(7.32892 0.0265213 0)
(7.33278 0.0275079 0)
(7.33647 0.0281735 0)
(7.33998 0.0285956 0)
(7.34333 0.0288318 0)
(7.34653 0.0289264 0)
(7.3496 0.028913 0)
(7.35254 0.028817 0)
(7.35536 0.0286581 0)
(7.35809 0.0284518 0)
(7.36072 0.0282107 0)
(7.36327 0.0279451 0)
(7.36576 0.0276641 0)
(7.36818 0.0273759 0)
(7.37055 0.0270881 0)
(7.37288 0.026808 0)
(7.37519 0.0265426 0)
(7.37749 0.0262976 0)
(7.37981 0.0260772 0)
(7.38216 0.025881 0)
(7.38459 0.0257029 0)
(7.38712 0.0255233 0)
(7.38979 0.025311 0)
(7.33075 -0.00639726 0)
(7.32165 -0.00775629 0)
(7.31591 -0.00477834 0)
(7.31286 -8.59078e-05 0)
(7.31212 0.00562778 0)
(7.31358 0.0109696 0)
(7.3163 0.0152862 0)
(7.31955 0.0186545 0)
(7.32303 0.0212512 0)
(7.32661 0.0232007 0)
(7.33015 0.0246241 0)
(7.33359 0.0256392 0)
(7.33692 0.0263412 0)
(7.34011 0.0268016 0)
(7.34319 0.0270749 0)
(7.34615 0.0272034 0)
(7.34899 0.02722 0)
(7.35174 0.0271496 0)
(7.3544 0.0270118 0)
(7.35698 0.0268222 0)
(7.35948 0.0265931 0)
(7.36193 0.0263349 0)
(7.36432 0.0260561 0)
(7.36666 0.0257644 0)
(7.36897 0.0254662 0)
(7.37125 0.0251672 0)
(7.37353 0.0248721 0)
(7.3758 0.0245836 0)
(7.3781 0.024302 0)
(7.38044 0.024023 0)
(7.38284 0.0237363 0)
(7.38534 0.0234214 0)
(7.38795 0.0230473 0)
(7.33162 -0.00393216 0)
(7.32523 -0.00506154 0)
(7.32037 -0.00292715 0)
(7.31748 0.000818834 0)
(7.31653 0.00553939 0)
(7.31744 0.0101304 0)
(7.31951 0.0140068 0)
(7.32218 0.0171309 0)
(7.32517 0.0195917 0)
(7.32829 0.0214762 0)
(7.33144 0.0228804 0)
(7.33455 0.0239014 0)
(7.33758 0.024621 0)
(7.34053 0.0251039 0)
(7.34337 0.0254007 0)
(7.34613 0.0255515 0)
(7.3488 0.0255875 0)
(7.3514 0.0255333 0)
(7.35392 0.0254079 0)
(7.35637 0.0252267 0)
(7.35877 0.0250019 0)
(7.36111 0.0247434 0)
(7.36342 0.0244594 0)
(7.36569 0.0241567 0)
(7.36793 0.0238407 0)
(7.37016 0.0235156 0)
(7.37238 0.0231842 0)
(7.37462 0.0228469 0)
(7.37687 0.0225014 0)
(7.37917 0.0221411 0)
(7.38152 0.0217539 0)
(7.38395 0.0213202 0)
(7.38646 0.0208121 0)
(7.33218 -0.00226348 0)
(7.32778 -0.00295846 0)
(7.32388 -0.00130646 0)
(7.32132 0.00171403 0)
(7.3203 0.00560321 0)
(7.32082 0.00951891 0)
(7.32241 0.0129568 0)
(7.32461 0.0158124 0)
(7.32717 0.0181107 0)
(7.32991 0.0199047 0)
(7.33274 0.0212662 0)
(7.33556 0.0222725 0)
(7.33834 0.0229928 0)
(7.34107 0.023484 0)
(7.34373 0.0237925 0)
(7.34632 0.0239552 0)
(7.34884 0.0240019 0)
(7.3513 0.023956 0)
(7.3537 0.023836 0)
(7.35605 0.0236568 0)
(7.35835 0.0234302 0)
(7.36061 0.0231657 0)
(7.36284 0.0228709 0)
(7.36504 0.0225518 0)
(7.36722 0.022213 0)
(7.36939 0.0218573 0)
(7.37156 0.021486 0)
(7.37374 0.0210981 0)
(7.37595 0.0206894 0)
(7.37818 0.0202524 0)
(7.38047 0.0197749 0)
(7.38281 0.0192391 0)
(7.38521 0.0186214 0)
(7.33252 -0.00115186 0)
(7.32957 -0.00136638 0)
(7.32658 4.17889e-05 0)
(7.32445 0.00253258 0)
(7.32349 0.00574924 0)
(7.32378 0.00907442 0)
(7.325 0.0120922 0)
(7.32682 0.014668 0)
(7.32903 0.0167848 0)
(7.33145 0.0184672 0)
(7.33398 0.0197652 0)
(7.33656 0.0207384 0)
(7.33912 0.0214436 0)
(7.34166 0.0219301 0)
(7.34416 0.022239 0)
(7.3466 0.0224044 0)
(7.34899 0.0224538 0)
(7.35134 0.0224093 0)
(7.35363 0.0222886 0)
(7.35589 0.022106 0)
(7.3581 0.0218727 0)
(7.36029 0.0215976 0)
(7.36244 0.0212879 0)
(7.36458 0.0209486 0)
(7.3667 0.0205837 0)
(7.36881 0.0201949 0)
(7.37093 0.0197824 0)
(7.37305 0.0193442 0)
(7.3752 0.0188754 0)
(7.37737 0.0183681 0)
(7.37958 0.017811 0)
(7.38182 0.0171889 0)
(7.38411 0.0164822 0)
(7.33273 -0.000426423 0)
(7.3308 -0.000201225 0)
(7.32861 0.00110728 0)
(7.32695 0.0032267 0)
(7.32615 0.00591645 0)
(7.32632 0.00874041 0)
(7.32729 0.0113704 0)
(7.32882 0.0136681 0)
(7.33073 0.0155924 0)
(7.33288 0.0171474 0)
(7.33516 0.0183648 0)
(7.33752 0.0192886 0)
(7.33989 0.0199644 0)
(7.34226 0.0204339 0)
(7.34461 0.020733 0)
(7.34692 0.0208923 0)
(7.3492 0.0209369 0)
(7.35144 0.0208876 0)
(7.35364 0.0207608 0)
(7.35581 0.02057 0)
(7.35795 0.0203258 0)
(7.36006 0.0200365 0)
(7.36215 0.0197085 0)
(7.36422 0.0193466 0)
(7.36628 0.0189535 0)
(7.36834 0.0185305 0)
(7.3704 0.0180771 0)
(7.37246 0.0175906 0)
(7.37454 0.0170659 0)
(7.37664 0.0164957 0)
(7.37877 0.0158698 0)
(7.38092 0.0151755 0)
(7.3831 0.014397 0)
(7.33285 3.54182e-05 0)
(7.33162 0.000620806 0)
(7.3301 0.00190548 0)
(7.32889 0.00376993 0)
(7.3283 0.00605666 0)
(7.32845 0.00846642 0)
(7.32926 0.0107503 0)
(7.33058 0.0127824 0)
(7.33225 0.0145118 0)
(7.33417 0.0159294 0)
(7.33625 0.0170529 0)
(7.33841 0.0179139 0)
(7.34061 0.0185479 0)
(7.34283 0.0189892 0)
(7.34504 0.019269 0)
(7.34724 0.019414 0)
(7.34941 0.0194471 0)
(7.35156 0.019387 0)
(7.35367 0.0192491 0)
(7.35577 0.0190459 0)
(7.35783 0.0187872 0)
(7.35988 0.0184807 0)
(7.3619 0.0181322 0)
(7.36392 0.0177457 0)
(7.36592 0.0173235 0)
(7.36792 0.0168665 0)
(7.36991 0.0163734 0)
(7.37192 0.0158416 0)
(7.37393 0.0152662 0)
(7.37595 0.0146405 0)
(7.37799 0.0139559 0)
(7.38005 0.0132019 0)
(7.38212 0.0123662 0)
(7.33292 0.000320251 0)
(7.33217 0.00117611 0)
(7.33117 0.00246743 0)
(7.33036 0.00415527 0)
(7.32999 0.00613709 0)
(7.33019 0.00821116 0)
(7.33092 0.0101946 0)
(7.33209 0.0119814 0)
(7.33358 0.0135207 0)
(7.33532 0.0147968 0)
(7.33721 0.0158178 0)
(7.3392 0.0166055 0)
(7.34126 0.0171872 0)
(7.34334 0.0175908 0)
(7.34543 0.0178426 0)
(7.34752 0.0179659 0)
(7.3496 0.017981 0)
(7.35166 0.0179048 0)
(7.35369 0.0177513 0)
(7.35571 0.0175319 0)
(7.35771 0.0172556 0)
(7.35969 0.0169295 0)
(7.36166 0.0165586 0)
(7.36361 0.0161466 0)
(7.36555 0.0156953 0)
(7.36749 0.015205 0)
(7.36943 0.0146745 0)
(7.37137 0.0141011 0)
(7.37331 0.0134803 0)
(7.37526 0.0128065 0)
(7.37721 0.0120725 0)
(7.37917 0.0112698 0)
(7.38114 0.010389 0)
(7.33296 0.000487874 0)
(7.33253 0.00152986 0)
(7.33192 0.00283129 0)
(7.33145 0.00439083 0)
(7.33129 0.00614045 0)
(7.33157 0.00794471 0)
(7.33227 0.00967214 0)
(7.33334 0.0112383 0)
(7.3347 0.0125978 0)
(7.33628 0.0137332 0)
(7.33803 0.014647 0)
(7.33988 0.0153542 0)
(7.3418 0.0158754 0)
(7.34377 0.0162332 0)
(7.34575 0.0164496 0)
(7.34774 0.0165447 0)
(7.34973 0.0165361 0)
(7.3517 0.0164389 0)
(7.35367 0.0162657 0)
(7.35561 0.0160269 0)
(7.35755 0.0157304 0)
(7.35947 0.0153827 0)
(7.36137 0.0149884 0)
(7.36327 0.0145505 0)
(7.36515 0.0140704 0)
(7.36703 0.0135484 0)
(7.36891 0.0129832 0)
(7.37078 0.0123722 0)
(7.37265 0.0117117 0)
(7.37452 0.0109969 0)
(7.37639 0.0102219 0)
(7.37826 0.00938017 0)
(7.38012 0.00846443 0)
(7.33299 0.000578852 0)
(7.33276 0.00173521 0)
(7.33244 0.00303641 0)
(7.33222 0.0044946 0)
(7.33226 0.00606273 0)
(7.33262 0.00764895 0)
(7.33332 0.00915977 0)
(7.33433 0.0105304 0)
(7.33559 0.0117235 0)
(7.33706 0.0127229 0)
(7.33868 0.0135285 0)
(7.34042 0.0141508 0)
(7.34222 0.0146057 0)
(7.34408 0.0149114 0)
(7.34597 0.0150862 0)
(7.34786 0.0151474 0)
(7.34977 0.0151101 0)
(7.35167 0.0149877 0)
(7.35356 0.0147913 0)
(7.35544 0.0145302 0)
(7.35731 0.0142115 0)
(7.35917 0.0138409 0)
(7.36102 0.0134224 0)
(7.36286 0.0129586 0)
(7.36469 0.0124509 0)
(7.3665 0.0118991 0)
(7.36832 0.0113022 0)
(7.37012 0.010658 0)
(7.37192 0.00996327 0)
(7.37372 0.00921405 0)
(7.3755 0.00840576 0)
(7.37728 0.00753342 0)
(7.37904 0.00659141 0)
(7.333 0.000620389 0)
(7.33291 0.00183418 0)
(7.33279 0.0031196 0)
(7.33276 0.0044897 0)
(7.33294 0.00590991 0)
(7.33338 0.0073165 0)
(7.33409 0.00864313 0)
(7.33507 0.00984138 0)
(7.33626 0.0108822 0)
(7.33764 0.0117524 0)
(7.33916 0.0124513 0)
(7.34079 0.0129867 0)
(7.3425 0.0133714 0)
(7.34426 0.0136204 0)
(7.34606 0.0137488 0)
(7.34787 0.0137713 0)
(7.3497 0.0137012 0)
(7.35153 0.01355 0)
(7.35335 0.0133274 0)
(7.35517 0.0130416 0)
(7.35698 0.012699 0)
(7.35878 0.0123045 0)
(7.36057 0.0118617 0)
(7.36235 0.0113727 0)
(7.36412 0.0108387 0)
(7.36588 0.0102595 0)
(7.36763 0.00963431 0)
(7.36936 0.00896113 0)
(7.37109 0.00823743 0)
(7.37281 0.00746005 0)
(7.37452 0.00662546 0)
(7.37621 0.00572986 0)
(7.37788 0.00476907 0)
(7.333 0.00063063 0)
(7.333 0.00185929 0)
(7.33301 0.00311338 0)
(7.33312 0.00440087 0)
(7.3334 0.00569451 0)
(7.3339 0.00694869 0)
(7.33462 0.00811615 0)
(7.33557 0.00916145 0)
(7.33671 0.010063 0)
(7.33801 0.0108114 0)
(7.33945 0.0114064 0)
(7.34099 0.0118548 0)
(7.34261 0.0121671 0)
(7.34429 0.0123559 0)
(7.346 0.0124342 0)
(7.34774 0.0124144 0)
(7.34949 0.012308 0)
(7.35125 0.0121249 0)
(7.35302 0.0118737 0)
(7.35477 0.0115615 0)
(7.35652 0.0111937 0)
(7.35826 0.0107748 0)
(7.36 0.0103078 0)
(7.36172 0.00979453 0)
(7.36343 0.00923592 0)
(7.36512 0.00863195 0)
(7.36681 0.00798179 0)
(7.36848 0.00728393 0)
(7.37014 0.00653635 0)
(7.37178 0.00573657 0)
(7.37341 0.00488196 0)
(7.37501 0.00396967 0)
(7.37659 0.00299665 0)
(7.33301 0.000621738 0)
(7.33305 0.00183551 0)
(7.33314 0.00304558 0)
(7.33333 0.00425238 0)
(7.33368 0.00543286 0)
(7.33421 0.0065533 0)
(7.33494 0.00757991 0)
(7.33585 0.00848738 0)
(7.33694 0.00926072 0)
(7.33818 0.00989394 0)
(7.33954 0.0103883 0)
(7.341 0.0107501 0)
(7.34254 0.0109888 0)
(7.34414 0.0111151 0)
(7.34578 0.0111404 0)
(7.34745 0.0110753 0)
(7.34913 0.0109298 0)
(7.35082 0.0107124 0)
(7.35252 0.0104306 0)
(7.35422 0.0100904 0)
(7.35591 0.00969671 0)
(7.35759 0.00925317 0)
(7.35927 0.00876238 0)
(7.36093 0.00822598 0)
(7.36258 0.00764471 0)
(7.36421 0.00701856 0)
(7.36584 0.00634687 0)
(7.36744 0.00562847 0)
(7.36903 0.00486176 0)
(7.3706 0.00404493 0)
(7.37215 0.00317598 0)
(7.37367 0.00225289 0)
(7.37517 0.00127336 0)
(7.33301 0.000602036 0)
(7.33307 0.00178223 0)
(7.33321 0.00293987 0)
(7.33344 0.00406712 0)
(7.33382 0.00514321 0)
(7.33435 0.00614257 0)
(7.33506 0.00704121 0)
(7.33594 0.00782188 0)
(7.33698 0.0084752 0)
(7.33815 0.00899864 0)
(7.33944 0.009395 0)
(7.34082 0.00967084 0)
(7.34228 0.00983491 0)
(7.3438 0.00989698 0)
(7.34537 0.00986691 0)
(7.34697 0.00975407 0)
(7.34858 0.00956702 0)
(7.35021 0.00931323 0)
(7.35185 0.00899907 0)
(7.35348 0.00862976 0)
(7.35512 0.00820944 0)
(7.35674 0.00774121 0)
(7.35836 0.00722729 0)
(7.35996 0.00666902 0)
(7.36155 0.00606704 0)
(7.36313 0.00542134 0)
(7.36469 0.00473141 0)
(7.36623 0.00399636 0)
(7.36775 0.00321499 0)
(7.36924 0.00238596 0)
(7.37072 0.00150783 0)
(7.37216 0.000579158 0)
(7.37358 -0.000401753 0)
(7.33301 0.000577512 0)
(7.33308 0.00171497 0)
(7.33322 0.0028168 0)
(7.33346 0.00386666 0)
(7.33383 0.00484493 0)
(7.33435 0.00573197 0)
(7.33502 0.00651142 0)
(7.33584 0.00717276 0)
(7.33681 0.0077116 0)
(7.33791 0.00812868 0)
(7.33913 0.0084286 0)
(7.34043 0.00861848 0)
(7.34182 0.00870686 0)
(7.34326 0.00870276 0)
(7.34475 0.00861506 0)
(7.34628 0.00845207 0)
(7.34783 0.00822124 0)
(7.34939 0.00792904 0)
(7.35097 0.00758093 0)
(7.35254 0.00718134 0)
(7.35411 0.00673378 0)
(7.35568 0.00624085 0)
(7.35724 0.00570438 0)
(7.35878 0.00512546 0)
(7.36032 0.00450462 0)
(7.36183 0.00384184 0)
(7.36333 0.00313675 0)
(7.36481 0.00238864 0)
(7.36626 0.00159667 0)
(7.36769 0.000759826 0)
(7.36909 -0.000122867 0)
(7.37047 -0.00105246 0)
(7.37181 -0.00203017 0)
(7.33301 0.000552884 0)
(7.33307 0.00164712 0)
(7.3332 0.00269524 0)
(7.33341 0.0036721 0)
(7.33374 0.00455853 0)
(7.3342 0.00533973 0)
(7.33481 0.00600583 0)
(7.33556 0.00655235 0)
(7.33645 0.00697968 0)
(7.33747 0.00729182 0)
(7.3386 0.0074953 0)
(7.33982 0.00759811 0)
(7.34113 0.00760887 0)
(7.34249 0.00753618 0)
(7.34391 0.00738819 0)
(7.34536 0.00717235 0)
(7.34684 0.00689521 0)
(7.34834 0.00656237 0)
(7.34985 0.00617847 0)
(7.35136 0.00574728 0)
(7.35288 0.00527169 0)
(7.35438 0.00475385 0)
(7.35588 0.00419519 0)
(7.35737 0.00359664 0)
(7.35885 0.00295852 0)
(7.3603 0.00228086 0)
(7.36174 0.00156332 0)
(7.36316 0.000805382 0)
(7.36455 6.39033e-06 0)
(7.36591 -0.00083434 0)
(7.36725 -0.00171753 0)
(7.36856 -0.00264389 0)
(7.36983 -0.00361434 0)
(7.33301 0.000532439 0)
(7.33305 0.00159158 0)
(7.33313 0.00259418 0)
(7.33329 0.00350554 0)
(7.33354 0.00430664 0)
(7.33392 0.00498725 0)
(7.33443 0.00554365 0)
(7.33509 0.00597739 0)
(7.33588 0.00629369 0)
(7.3368 0.00650005 0)
(7.33783 0.00660517 0)
(7.33896 0.00661818 0)
(7.34018 0.00654805 0)
(7.34146 0.00640322 0)
(7.34279 0.00619134 0)
(7.34417 0.00591917 0)
(7.34558 0.0055925 0)
(7.34701 0.00521618 0)
(7.34846 0.00479415 0)
(7.34991 0.00432952 0)
(7.35137 0.00382465 0)
(7.35282 0.00328124 0)
(7.35426 0.00270042 0)
(7.3557 0.00208279 0)
(7.35712 0.00142863 0)
(7.35852 0.000737837 0)
(7.3599 1.01472e-05 0)
(7.36126 -0.000754894 0)
(7.36259 -0.00155777 0)
(7.3639 -0.00239901 0)
(7.36518 -0.00327911 0)
(7.36642 -0.0041986 0)
(7.36763 -0.00515816 0)
(7.333 0.000520803 0)
(7.33301 0.00156262 0)
(7.33303 0.00253505 0)
(7.33309 0.00339235 0)
(7.33323 0.00411583 0)
(7.33348 0.00470036 0)
(7.33387 0.00514882 0)
(7.3344 0.00546927 0)
(7.33507 0.00567234 0)
(7.33587 0.00576941 0)
(7.33679 0.00577176 0)
(7.33782 0.00568999 0)
(7.33893 0.00553371 0)
(7.34012 0.00531143 0)
(7.34137 0.00503052 0)
(7.34267 0.00469719 0)
(7.34401 0.00431661 0)
(7.34537 0.00389295 0)
(7.34676 0.00342951 0)
(7.34815 0.00292883 0)
(7.34955 0.00239274 0)
(7.35095 0.0018225 0)
(7.35235 0.00121889 0)
(7.35373 0.000582268 0)
(7.3551 -8.72777e-05 0)
(7.35645 -0.00078993 0)
(7.35779 -0.00152599 0)
(7.3591 -0.00229589 0)
(7.36038 -0.00310005 0)
(7.36163 -0.0039389 0)
(7.36285 -0.00481282 0)
(7.36404 -0.00572221 0)
(7.3652 -0.00666765 0)
(7.333 0.000523881 0)
(7.33296 0.00157838 0)
(7.33286 0.00254496 0)
(7.33278 0.00336444 0)
(7.33276 0.00401949 0)
(7.33285 0.00451155 0)
(7.33308 0.00485144 0)
(7.33345 0.00505492 0)
(7.33396 0.00513898 0)
(7.33462 0.00511968 0)
(7.33541 0.00501141 0)
(7.33632 0.00482669 0)
(7.33733 0.00457612 0)
(7.33842 0.00426855 0)
(7.33958 0.00391122 0)
(7.34081 0.00350995 0)
(7.34207 0.00306939 0)
(7.34338 0.0025931 0)
(7.3447 0.00208377 0)
(7.34605 0.00154336 0)
(7.3474 0.000973174 0)
(7.34875 0.000374039 0)
(7.3501 -0.00025367 0)
(7.35144 -0.000909846 0)
(7.35277 -0.00159467 0)
(7.35409 -0.00230845 0)
(7.35538 -0.00305162 0)
(7.35664 -0.00382461 0)
(7.35789 -0.0046279 0)
(7.3591 -0.00546187 0)
(7.36028 -0.00632692 0)
(7.36142 -0.00722337 0)
(7.36253 -0.00815177 0)
(7.33299 0.000550274 0)
(7.33287 0.00166469 0)
(7.33262 0.00266155 0)
(7.33233 0.00346511 0)
(7.33209 0.00406201 0)
(7.33196 0.00446317 0)
(7.33197 0.00468981 0)
(7.33213 0.0047676 0)
(7.33247 0.00472151 0)
(7.33296 0.00457341 0)
(7.33361 0.00434166 0)
(7.33438 0.00404128 0)
(7.33528 0.00368427 0)
(7.33628 0.00328004 0)
(7.33736 0.00283591 0)
(7.33851 0.00235741 0)
(7.33971 0.00184868 0)
(7.34096 0.00131269 0)
(7.34224 0.000751525 0)
(7.34354 0.000166488 0)
(7.34486 -0.000441639 0)
(7.34618 -0.00107258 0)
(7.3475 -0.00172635 0)
(7.34881 -0.00240326 0)
(7.35011 -0.00310375 0)
(7.3514 -0.00382838 0)
(7.35266 -0.00457774 0)
(7.3539 -0.00535245 0)
(7.35511 -0.00615302 0)
(7.35629 -0.00697995 0)
(7.35744 -0.00783366 0)
(7.35855 -0.00871453 0)
(7.35963 -0.00962313 0)
(7.33299 0.000613819 0)
(7.33274 0.00186146 0)
(7.33225 0.00294065 0)
(7.33167 0.00375624 0)
(7.33112 0.00430463 0)
(7.33069 0.00461132 0)
(7.33042 0.00471242 0)
(7.33033 0.00464716 0)
(7.33045 0.0044511 0)
(7.33076 0.00415363 0)
(7.33125 0.00377821 0)
(7.33189 0.00334308 0)
(7.33268 0.00286204 0)
(7.33359 0.00234532 0)
(7.3346 0.00180033 0)
(7.33569 0.00123234 0)
(7.33685 0.000644885 0)
(7.33807 4.02918e-05 0)
(7.33932 -0.000580136 0)
(7.3406 -0.00121577 0)
(7.3419 -0.00186657 0)
(7.3432 -0.00253283 0)
(7.34451 -0.00321516 0)
(7.34581 -0.00391429 0)
(7.3471 -0.00463111 0)
(7.34837 -0.00536649 0)
(7.34962 -0.00612133 0)
(7.35085 -0.00689643 0)
(7.35205 -0.00769254 0)
(7.35322 -0.00851029 0)
(7.35435 -0.00935023 0)
(7.35545 -0.0102129 0)
(7.3565 -0.0110988 0)
(7.33297 0.00073845 0)
(7.33253 0.00223387 0)
(7.33168 0.00346869 0)
(7.33067 0.00432897 0)
(7.32969 0.00483296 0)
(7.32886 0.00502993 0)
(7.32823 0.00497859 0)
(7.32785 0.00473801 0)
(7.32773 0.00435828 0)
(7.32784 0.00387866 0)
(7.32817 0.00332908 0)
(7.3287 0.00273171 0)
(7.3294 0.00210239 0)
(7.33025 0.00145212 0)
(7.33121 0.00078827 0)
(7.33228 0.000115553 0)
(7.33342 -0.000563309 0)
(7.33463 -0.00124694 0)
(7.33588 -0.00193505 0)
(7.33717 -0.00262793 0)
(7.33847 -0.00332645 0)
(7.33979 -0.00403171 0)
(7.34111 -0.00474504 0)
(7.34243 -0.0054678 0)
(7.34373 -0.00620143 0)
(7.34501 -0.00694724 0)
(7.34628 -0.00770654 0)
(7.34751 -0.00848046 0)
(7.34872 -0.00927005 0)
(7.34989 -0.0100762 0)
(7.35103 -0.0108996 0)
(7.35213 -0.011741 0)
(7.35318 -0.0126012 0)
(7.33295 0.000968234 0)
(7.33217 0.00289254 0)
(7.33075 0.00438218 0)
(7.32911 0.0053183 0)
(7.32754 0.00576533 0)
(7.32618 0.00581248 0)
(7.32513 0.00555507 0)
(7.32442 0.00508217 0)
(7.32404 0.004464 0)
(7.32397 0.00375239 0)
(7.32418 0.00298493 0)
(7.32463 0.00218792 0)
(7.32529 0.0013789 0)
(7.32611 0.00056902 0)
(7.32708 -0.000235054 0)
(7.32817 -0.00102983 0)
(7.32934 -0.00181396 0)
(7.33059 -0.00258758 0)
(7.33188 -0.00335177 0)
(7.33321 -0.00410824 0)
(7.33457 -0.00485897 0)
(7.33593 -0.00560624 0)
(7.3373 -0.00635223 0)
(7.33866 -0.00709922 0)
(7.34001 -0.00784925 0)
(7.34134 -0.00860436 0)
(7.34264 -0.00936627 0)
(7.34391 -0.0101367 0)
(7.34515 -0.0109169 0)
(7.34635 -0.0117082 0)
(7.34751 -0.0125116 0)
(7.34863 -0.0133282 0)
(7.34971 -0.0141587 0)
(7.3329 0.00139119 0)
(7.33153 0.00403254 0)
(7.32919 0.0058978 0)
(7.32662 0.0069192 0)
(7.32425 0.0072559 0)
(7.32225 0.00706502 0)
(7.32072 0.00650251 0)
(7.31968 0.00570297 0)
(7.31908 0.00476304 0)
(7.31889 0.00374881 0)
(7.31904 0.00270534 0)
(7.31948 0.00166184 0)
(7.32017 0.00063588 0)
(7.32106 -0.000362874 0)
(7.3221 -0.00132993 0)
(7.32328 -0.00226419 0)
(7.32455 -0.00316672 0)
(7.32589 -0.00403996 0)
(7.32729 -0.00488705 0)
(7.32872 -0.00571156 0)
(7.33017 -0.00651713 0)
(7.33163 -0.0073074 0)
(7.33309 -0.00808585 0)
(7.33454 -0.00885574 0)
(7.33597 -0.00962007 0)
(7.33737 -0.0103816 0)
(7.33874 -0.0111428 0)
(7.34008 -0.0119057 0)
(7.34138 -0.0126724 0)
(7.34264 -0.0134445 0)
(7.34386 -0.0142233 0)
(7.34503 -0.0150102 0)
(7.34615 -0.0158063 0)
(7.33278 0.00219461 0)
(7.33032 0.00601589 0)
(7.32651 0.0083678 0)
(7.32261 0.00940505 0)
(7.3192 0.00948294 0)
(7.31647 0.00887603 0)
(7.31447 0.00783881 0)
(7.31316 0.00656931 0)
(7.31246 0.00519261 0)
(7.31226 0.00378604 0)
(7.31248 0.00239803 0)
(7.31305 0.00105654 0)
(7.31389 -0.000224681 0)
(7.31495 -0.00144054 0)
(7.31617 -0.00259109 0)
(7.31753 -0.0036794 0)
(7.31899 -0.00471033 0)
(7.32051 -0.00568958 0)
(7.32209 -0.0066232 0)
(7.32369 -0.00751714 0)
(7.3253 -0.00837719 0)
(7.32692 -0.0092087 0)
(7.32852 -0.0100167 0)
(7.33011 -0.0108056 0)
(7.33167 -0.0115797 0)
(7.3332 -0.0123424 0)
(7.33469 -0.0130971 0)
(7.33613 -0.0138466 0)
(7.33754 -0.0145934 0)
(7.33889 -0.0153395 0)
(7.34019 -0.016087 0)
(7.34144 -0.0168372 0)
(7.34264 -0.0175919 0)
(7.33249 0.00373969 0)
(7.32795 0.00949035 0)
(7.32175 0.0123735 0)
(7.31603 0.0131788 0)
(7.31142 0.0126544 0)
(7.30798 0.0112913 0)
(7.30567 0.00950348 0)
(7.30431 0.00756125 0)
(7.30371 0.00560324 0)
(7.30373 0.00370338 0)
(7.30423 0.00190243 0)
(7.3051 0.000217977 0)
(7.30626 -0.00134703 0)
(7.30765 -0.0027971 0)
(7.3092 -0.00414017 0)
(7.31088 -0.00538598 0)
(7.31264 -0.00654483 0)
(7.31446 -0.00762698 0)
(7.31631 -0.00864217 0)
(7.31818 -0.00959947 0)
(7.32004 -0.0105071 0)
(7.3219 -0.0113726 0)
(7.32372 -0.0122026 0)
(7.32552 -0.013003 0)
(7.32728 -0.0137792 0)
(7.32899 -0.0145357 0)
(7.33065 -0.0152767 0)
(7.33226 -0.0160056 0)
(7.33382 -0.0167256 0)
(7.33531 -0.0174391 0)
(7.33675 -0.0181486 0)
(7.33812 -0.018856 0)
(7.33943 -0.0195631 0)
(7.33193 0.00663956 0)
(7.32329 0.0152919 0)
(7.31325 0.0184836 0)
(7.30522 0.0185722 0)
(7.29944 0.016881 0)
(7.29558 0.0142375 0)
(7.29334 0.0113079 0)
(7.29234 0.00842396 0)
(7.29223 0.00569615 0)
(7.29281 0.00316904 0)
(7.29389 0.000861627 0)
(7.29536 -0.00122893 0)
(7.2971 -0.0031187 0)
(7.29905 -0.0048274 0)
(7.30114 -0.00637482 0)
(7.30333 -0.00778008 0)
(7.30558 -0.00906121 0)
(7.30785 -0.0102347 0)
(7.31014 -0.0113154 0)
(7.31241 -0.0123165 0)
(7.31466 -0.0132497 0)
(7.31687 -0.0141252 0)
(7.31904 -0.014952 0)
(7.32115 -0.0157379 0)
(7.3232 -0.0164897 0)
(7.32519 -0.0172134 0)
(7.32711 -0.017914 0)
(7.32896 -0.018596 0)
(7.33074 -0.0192632 0)
(7.33245 -0.019919 0)
(7.33408 -0.0205661 0)
(7.33564 -0.0212072 0)
(7.33713 -0.0218446 0)
(7.33069 0.0134346 0)
(7.31368 0.0252076 0)
(7.29797 0.0267154 0)
(7.28753 0.0249959 0)
(7.28098 0.0216503 0)
(7.27735 0.0175203 0)
(7.27593 0.0134387 0)
(7.27598 0.00969711 0)
(7.27699 0.00629667 0)
(7.27869 0.0032181 0)
(7.28089 0.00044933 0)
(7.28343 -0.00203248 0)
(7.2862 -0.00425794 0)
(7.28913 -0.0062565 0)
(7.29214 -0.00805437 0)
(7.29519 -0.00967551 0)
(7.29825 -0.011142 0)
(7.30129 -0.0124736 0)
(7.30428 -0.0136881 0)
(7.30722 -0.0148009 0)
(7.31009 -0.0158259 0)
(7.31288 -0.0167752 0)
(7.31558 -0.0176592 0)
(7.3182 -0.0184874 0)
(7.32072 -0.0192677 0)
(7.32315 -0.0200073 0)
(7.32548 -0.0207123 0)
(7.32772 -0.021388 0)
(7.32985 -0.022039 0)
(7.33189 -0.0226693 0)
(7.33384 -0.0232821 0)
(7.33569 -0.0238802 0)
(7.33744 -0.0244657 0)
(7.32456 0.0347125 0)
(7.28958 0.0467046 0)
(7.26765 0.037083 0)
(7.25765 0.0262585 0)
(7.25264 0.0167255 0)
(7.25096 0.00874732 0)
(7.25187 0.0025027 0)
(7.25427 -0.00234231 0)
(7.2575 -0.00618248 0)
(7.26132 -0.00925485 0)
(7.26556 -0.0117285 0)
(7.27004 -0.0137439 0)
(7.27465 -0.0154111 0)
(7.27931 -0.0168096 0)
(7.28395 -0.0179969 0)
(7.28854 -0.0190172 0)
(7.29303 -0.0199052 0)
(7.29741 -0.020688 0)
(7.30166 -0.0213869 0)
(7.30576 -0.0220187 0)
(7.30972 -0.0225969 0)
(7.31352 -0.0231321 0)
(7.31716 -0.023633 0)
(7.32065 -0.0241066 0)
(7.32399 -0.0245587 0)
(7.32718 -0.0249938 0)
(7.33021 -0.0254158 0)
(7.3331 -0.025828 0)
(7.33585 -0.026233 0)
(7.33845 -0.0266332 0)
(7.34092 -0.0270309 0)
(7.34327 -0.0274282 0)
(7.34549 -0.0278281 0)
(7.29575 0.082396 0)
(7.21821 0.127206 0)
(7.1868 0.128807 0)
(7.18645 0.114378 0)
(7.19338 0.0947848 0)
(7.20248 0.076746 0)
(7.21295 0.0615383 0)
(7.22374 0.0483336 0)
(7.23444 0.0367085 0)
(7.24497 0.0265739 0)
(7.25523 0.0178511 0)
(7.26511 0.0103856 0)
(7.27454 0.00400987 0)
(7.28351 -0.00142477 0)
(7.292 -0.0060502 0)
(7.30004 -0.00998562 0)
(7.30763 -0.0133364 0)
(7.31479 -0.0161932 0)
(7.32153 -0.018633 0)
(7.32788 -0.0207211 0)
(7.33385 -0.0225128 0)
(7.33947 -0.0240547 0)
(7.34475 -0.0253861 0)
(7.34971 -0.0265401 0)
(7.35437 -0.0275447 0)
(7.35874 -0.0284233 0)
(7.36284 -0.0291958 0)
(7.36668 -0.0298787 0)
(7.37027 -0.0304863 0)
(7.37364 -0.03103 0)
(7.37678 -0.0315199 0)
(7.3797 -0.0319631 0)
(7.38242 -0.0323683 0)
(7.32909 -0.158988 0)
(7.19612 -0.2929 0)
(7.13085 -0.292312 0)
(7.10898 -0.259649 0)
(7.10972 -0.22668 0)
(7.13037 -0.195751 0)
(7.16107 -0.16784 0)
(7.19443 -0.144106 0)
(7.22757 -0.124635 0)
(7.25931 -0.108756 0)
(7.28884 -0.095776 0)
(7.31576 -0.0851751 0)
(7.34003 -0.0765316 0)
(7.36177 -0.0694803 0)
(7.38117 -0.0637141 0)
(7.39842 -0.0589859 0)
(7.41372 -0.0550988 0)
(7.42726 -0.0518945 0)
(7.43923 -0.0492454 0)
(7.44979 -0.047049 0)
(7.45908 -0.0452227 0)
(7.46723 -0.0437002 0)
(7.47438 -0.0424278 0)
(7.48061 -0.0413621 0)
(7.48604 -0.040468 0)
(7.49073 -0.0397169 0)
(7.49476 -0.0390854 0)
(7.49821 -0.0385545 0)
(7.50112 -0.0381085 0)
(7.50356 -0.0377344 0)
(7.50557 -0.0374208 0)
(7.50719 -0.0371592 0)
(7.50849 -0.0369374 0)
(7.33045 1.21807 0)
(7.6376 1.24116 0)
(7.81729 0.934086 0)
(7.87343 0.66212 0)
(7.88531 0.462339 0)
(7.87662 0.320594 0)
(7.85215 0.220101 0)
(7.81687 0.148063 0)
(7.77613 0.0958196 0)
(7.7334 0.0576539 0)
(7.69028 0.0296478 0)
(7.64755 0.00902616 0)
(7.60575 -0.00618907 0)
(7.56523 -0.0174089 0)
(7.52614 -0.0256502 0)
(7.48857 -0.0316569 0)
(7.45251 -0.0359793 0)