/*--------------------------------*- C++ -*----------------------------------*\
  =========                 |
  \\      /  F ield         | OpenFOAM: The Open Source CFD Toolbox
   \\    /   O peration     | Website:  https://openfoam.org
    \\  /    A nd           | Version:  10
     \\/     M anipulation  |
\*---------------------------------------------------------------------------*/
FoamFile
{
    format      ascii;
    class       volScalarField;
    location    "1300";
    object      yPlus;
}
// * * * * * * * * * * * * * * * * * * * * * * * * * * * * * * * * * * * * * //

dimensions      [0 0 0 0 0 0 0];

internalField   uniform 0;

boundaryField
{
    outlet
    {
        type            calculated;
        value           uniform 0;
    }
    inlet
    {
        type            calculated;
        value           uniform 0;
    }
    lowerWall
    {
        type            calculated;
        value           nonuniform List<scalar> 
148
(
12.7112
17.6462
20.7197
22.3203
23.0459
23.2746
23.2254
23.0255
22.751
22.4469
22.1389
21.8405
21.5587
21.2962
21.0538
20.8308
20.626
20.4378
20.2649
20.1058
19.959
19.8234
19.6978
19.5813
19.473
19.372
19.2777
19.1894
19.1062
19.0289
18.95
18.9066
18.7041
0.399139
2.16511
3.90269
5.23447
6.33209
7.24931
8.11565
8.98697
9.85341
10.8038
10.7386
10.9302
11.21
13.819
15.5276
0.399139
3.36042
4.97876
5.74423
5.92793
5.79602
5.49373
5.10085
4.58281
3.29096
1.05208
8.021
9.06372
13.8811
18.5546
22.1051
25.1176
27.7553
30.1086
32.2296
34.1496
35.8899
37.4689
38.9041
40.2135
41.4153
42.5269
43.5641
44.5406
45.4678
46.3549
47.2087
48.0346
48.8369
49.6193
50.3858
51.1416
51.8931
52.6452
53.3822
54.11
54.8285
55.5373
56.2351
56.9206
57.5921
58.2479
58.8862
59.5051
60.1024
60.6762
61.2241
61.7438
62.233
62.6895
63.1109
63.4949
63.8393
64.1422
64.4019
64.6173
64.7868
64.9096
64.9857
65.0137
64.994
64.9262
64.8099
64.6438
64.4232
64.1873
63.9508
63.6664
63.3344
62.9641
62.5629
62.137
61.6899
61.2251
60.7461
60.2558
59.7571
59.2528
58.7456
58.2378
57.7315
57.2285
56.7308
56.2395
55.7564
55.2826
54.82
54.3689
53.9328
53.5102
53.1094
52.7268
52.3798
52.0772
51.8315
)
;
    }
    upperWall
    {
        type            calculated;
        value           nonuniform List<scalar> 
133
(
31.2591
34.0073
36.6584
39.0132
41.0752
42.889
44.4881
45.8973
47.1377
48.2283
49.1859
50.0257
50.7609
51.4035
51.9643
52.4525
52.8767
53.2444
53.5621
53.8356
54.0702
54.2705
54.4403
54.5835
54.703
54.8017
54.882
54.9462
54.9961
55.0334
55.0597
55.0762
55.0845
55.0839
55.0724
55.0501
55.0172
54.9745
54.9223
54.8613
54.7919
54.7146
54.6298
54.5379
54.4393
54.3343
54.2232
54.1063
53.9838
53.856
53.7229
53.5848
53.4417
53.2937
53.1408
52.9831
52.8205
52.6529
52.4804
52.3026
52.1196
51.9311
51.737
51.5371
51.3311
51.1187
50.8998
50.6741
50.4414
50.2012
49.9534
49.6977
49.4339
49.1617
48.881
48.5914
48.293
47.9855
47.6689
47.3432
47.0084
46.6646
46.312
45.951
45.5817
45.2047
44.8205
44.4297
44.0331
43.6315
43.2261
42.8177
42.4075
41.9971
41.5876
41.1806
40.7777
40.3803
39.9901
39.6088
39.2379
38.879
38.5334
38.2026
37.8877
37.5895
37.309
37.0466
36.8027
36.5773
36.3702
36.181
36.0091
35.8535
35.7134
35.5872
35.4741
35.3723
35.2807
35.1976
35.1218
35.0517
34.9861
34.9237
34.8634
34.8038
34.7443
34.6833
34.6201
34.555
34.4809
34.4211
34.2885
)
;
    }
    frontAndBack
    {
        type            empty;
    }
}


// ************************************************************************* //
