/*--------------------------------*- C++ -*----------------------------------*\
  =========                 |
  \\      /  F ield         | OpenFOAM: The Open Source CFD Toolbox
   \\    /   O peration     | Website:  https://openfoam.org
    \\  /    A nd           | Version:  10
     \\/     M anipulation  |
\*---------------------------------------------------------------------------*/
FoamFile
{
    format      ascii;
    class       volScalarField;
    location    "0.14";
    object      nut;
}
// * * * * * * * * * * * * * * * * * * * * * * * * * * * * * * * * * * * * * //

dimensions      [0 2 -1 0 0 0 0];

internalField   nonuniform List<scalar> 
6820
(
0.000149484
0.000144853
0.000140581
0.000136577
0.000132833
0.000129377
0.000126234
0.000123417
0.000120923
0.000118737
0.000116839
0.000115205
0.00011381
0.000112631
0.000111644
0.000110829
0.000110166
0.000109637
0.000109229
0.000108925
0.000108715
0.000108586
0.000108528
0.000108534
0.000108595
0.000108704
0.000108852
0.000109051
0.000109212
0.000109733
0.000108722
0.000115011
8.72074e-05
0.000729198
0.000532392
0.000448013
0.000399709
0.000368382
0.000346734
0.000331091
0.000319362
0.000310276
0.000303028
0.000297097
0.000292137
0.000287913
0.00028426
0.00028106
0.000278227
0.000275696
0.000273417
0.000271352
0.000269469
0.000267744
0.000266156
0.00026469
0.000263331
0.000262068
0.000260891
0.000259793
0.000258765
0.00025781
0.000256925
0.000256127
0.000255295
0.000256655
0.000976777
0.000872181
0.000781623
0.000711265
0.00065732
0.000615281
0.000581711
0.000554251
0.000531316
0.000511822
0.000495008
0.000480329
0.000467378
0.000455852
0.000445515
0.000436184
0.000427713
0.000419984
0.000412903
0.000406389
0.000400377
0.000394811
0.000389644
0.000384835
0.000380348
0.00037615
0.000372213
0.000368511
0.000365005
0.000361687
0.000358455
0.000355293
0.0003518
0.00101348
0.00098823
0.000949374
0.000906194
0.000864426
0.000826385
0.000792554
0.000762668
0.000736233
0.000712739
0.000691731
0.000672827
0.000655709
0.000640119
0.000625847
0.000612716
0.000600585
0.000589334
0.000578863
0.000569087
0.000559936
0.000551348
0.00054327
0.000535657
0.000528466
0.000521664
0.000515215
0.00050909
0.000503257
0.000497696
0.000492346
0.000487229
0.000482135
0.00101671
0.00101241
0.00100191
0.000985661
0.000965604
0.000943713
0.000921424
0.000899614
0.000878751
0.000859045
0.000840555
0.000823258
0.000807091
0.000791974
0.000777822
0.000764552
0.000752085
0.00074035
0.000729282
0.000718824
0.000708923
0.000699533
0.000690614
0.000682127
0.00067404
0.000666322
0.000658944
0.000651882
0.000645106
0.000638598
0.00063232
0.000626263
0.000620368
0.00101676
0.00101592
0.0010136
0.00100903
0.00100204
0.00099292
0.000982192
0.000970399
0.000958008
0.000945379
0.000932769
0.000920352
0.000908244
0.000896511
0.000885191
0.000874301
0.000863843
0.000853809
0.000844188
0.000834963
0.000826116
0.000817629
0.000809481
0.000801656
0.000794134
0.000786898
0.000779931
0.000773215
0.000766733
0.000760472
0.00075441
0.000748537
0.000742836
0.00101671
0.00101623
0.00101553
0.00101428
0.00101219
0.0010091
0.00100497
0.000999892
0.000994021
0.000987523
0.000980562
0.000973287
0.000965819
0.000958258
0.000950683
0.000943153
0.000935712
0.000928394
0.000921223
0.000914212
0.000907374
0.000900713
0.000894233
0.000887933
0.000881811
0.000875863
0.000870085
0.000864472
0.000859017
0.000853713
0.000848554
0.000843534
0.00083865
0.0010167
0.00101622
0.00101574
0.00101518
0.00101442
0.00101335
0.00101188
0.00100995
0.00100756
0.00100471
0.00100145
0.00099783
0.000993914
0.000989757
0.000985413
0.000980931
0.000976353
0.000971716
0.00096705
0.00096238
0.000957728
0.000953111
0.00094854
0.000944029
0.000939583
0.00093521
0.000930913
0.000926696
0.00092256
0.000918506
0.000914535
0.000910648
0.000906847
0.0010167
0.00101621
0.00101575
0.00101528
0.0010148
0.00101425
0.00101359
0.00101279
0.00101179
0.00101059
0.00100917
0.00100754
0.00100569
0.00100365
0.00100144
0.00099907
0.00099657
0.00099396
0.000991259
0.000988486
0.000985659
0.000982792
0.0009799
0.000976992
0.000974081
0.000971174
0.000968279
0.000965402
0.000962549
0.000959724
0.000956932
0.000954176
0.000951462
0.0010167
0.00101621
0.00101574
0.00101529
0.00101484
0.00101439
0.00101393
0.00101344
0.0010129
0.00101229
0.0010116
0.00101082
0.00100994
0.00100895
0.00100787
0.00100668
0.0010054
0.00100404
0.00100259
0.00100107
0.000999494
0.00099786
0.000996181
0.000994463
0.000992713
0.00099094
0.000989148
0.000987344
0.000985533
0.00098372
0.000981909
0.000980105
0.000978312
0.0010167
0.00101621
0.00101574
0.00101528
0.00101484
0.00101441
0.00101398
0.00101356
0.00101313
0.0010127
0.00101224
0.00101176
0.00101125
0.0010107
0.00101011
0.00100947
0.00100878
0.00100805
0.00100728
0.00100646
0.00100559
0.00100469
0.00100375
0.00100278
0.00100178
0.00100076
0.000999708
0.00099864
0.000997556
0.000996461
0.000995356
0.000994245
0.000993133
0.0010167
0.00101621
0.00101574
0.00101528
0.00101484
0.0010144
0.00101398
0.00101357
0.00101317
0.00101277
0.00101238
0.00101199
0.00101159
0.00101119
0.00101078
0.00101035
0.00100992
0.00100946
0.00100899
0.00100849
0.00100798
0.00100745
0.0010069
0.00100633
0.00100575
0.00100515
0.00100453
0.0010039
0.00100326
0.0010026
0.00100194
0.00100128
0.0010006
0.0010167
0.00101621
0.00101574
0.00101528
0.00101483
0.0010144
0.00101398
0.00101357
0.00101317
0.00101278
0.0010124
0.00101203
0.00101167
0.00101131
0.00101095
0.0010106
0.00101024
0.00100989
0.00100953
0.00100917
0.00100881
0.00100844
0.00100806
0.00100768
0.0010073
0.0010069
0.00100651
0.0010061
0.0010057
0.00100528
0.00100487
0.00100445
0.00100403
0.0010167
0.00101621
0.00101574
0.00101528
0.00101483
0.0010144
0.00101398
0.00101357
0.00101317
0.00101278
0.0010124
0.00101204
0.00101168
0.00101133
0.00101099
0.00101065
0.00101032
0.00101
0.00100968
0.00100936
0.00100905
0.00100875
0.00100844
0.00100814
0.00100783
0.00100753
0.00100723
0.00100693
0.00100663
0.00100633
0.00100604
0.00100574
0.00100545
0.0010167
0.00101621
0.00101574
0.00101528
0.00101483
0.0010144
0.00101398
0.00101357
0.00101317
0.00101278
0.0010124
0.00101203
0.00101168
0.00101133
0.00101099
0.00101066
0.00101033
0.00101002
0.00100971
0.00100941
0.00100912
0.00100883
0.00100855
0.00100827
0.001008
0.00100773
0.00100747
0.00100721
0.00100695
0.0010067
0.00100646
0.00100621
0.00100598
0.0010167
0.00101621
0.00101574
0.00101528
0.00101483
0.0010144
0.00101397
0.00101356
0.00101316
0.00101278
0.0010124
0.00101203
0.00101167
0.00101132
0.00101099
0.00101066
0.00101033
0.00101002
0.00100972
0.00100942
0.00100913
0.00100884
0.00100857
0.0010083
0.00100804
0.00100778
0.00100753
0.00100729
0.00100705
0.00100681
0.00100659
0.00100636
0.00100615
0.0010167
0.00101621
0.00101574
0.00101528
0.00101483
0.0010144
0.00101397
0.00101356
0.00101316
0.00101277
0.0010124
0.00101203
0.00101167
0.00101132
0.00101098
0.00101065
0.00101033
0.00101002
0.00100971
0.00100942
0.00100913
0.00100884
0.00100857
0.0010083
0.00100804
0.00100779
0.00100754
0.0010073
0.00100707
0.00100684
0.00100662
0.0010064
0.00100619
0.0010167
0.00101621
0.00101574
0.00101528
0.00101483
0.0010144
0.00101397
0.00101356
0.00101316
0.00101277
0.00101239
0.00101203
0.00101167
0.00101132
0.00101098
0.00101065
0.00101033
0.00101001
0.00100971
0.00100941
0.00100912
0.00100884
0.00100857
0.0010083
0.00100804
0.00100779
0.00100754
0.0010073
0.00100707
0.00100684
0.00100662
0.00100641
0.0010062
0.0010167
0.00101621
0.00101574
0.00101528
0.00101483
0.00101439
0.00101397
0.00101356
0.00101316
0.00101277
0.00101239
0.00101202
0.00101167
0.00101132
0.00101098
0.00101065
0.00101032
0.00101001
0.0010097
0.00100941
0.00100912
0.00100884
0.00100856
0.00100829
0.00100803
0.00100778
0.00100753
0.00100729
0.00100706
0.00100683
0.00100661
0.0010064
0.00100619
0.0010167
0.00101621
0.00101574
0.00101528
0.00101483
0.00101439
0.00101397
0.00101356
0.00101316
0.00101277
0.00101239
0.00101202
0.00101166
0.00101131
0.00101097
0.00101064
0.00101032
0.00101001
0.0010097
0.0010094
0.00100911
0.00100883
0.00100856
0.00100829
0.00100803
0.00100778
0.00100753
0.00100729
0.00100706
0.00100683
0.00100661
0.00100639
0.00100618
0.0010167
0.00101621
0.00101574
0.00101528
0.00101483
0.00101439
0.00101397
0.00101356
0.00101316
0.00101277
0.00101239
0.00101202
0.00101166
0.00101131
0.00101097
0.00101064
0.00101032
0.00101
0.0010097
0.0010094
0.00100911
0.00100883
0.00100855
0.00100829
0.00100802
0.00100777
0.00100752
0.00100728
0.00100705
0.00100682
0.0010066
0.00100638
0.00100617
0.0010167
0.00101621
0.00101574
0.00101528
0.00101483
0.00101439
0.00101397
0.00101356
0.00101316
0.00101277
0.00101239
0.00101202
0.00101166
0.00101131
0.00101097
0.00101064
0.00101032
0.00101
0.0010097
0.0010094
0.00100911
0.00100882
0.00100855
0.00100828
0.00100802
0.00100777
0.00100752
0.00100728
0.00100704
0.00100681
0.00100659
0.00100637
0.00100616
0.0010167
0.00101621
0.00101574
0.00101528
0.00101483
0.00101439
0.00101397
0.00101356
0.00101316
0.00101277
0.00101239
0.00101202
0.00101166
0.00101131
0.00101097
0.00101064
0.00101031
0.00101
0.00100969
0.0010094
0.0010091
0.00100882
0.00100855
0.00100828
0.00100802
0.00100776
0.00100751
0.00100727
0.00100704
0.00100681
0.00100658
0.00100637
0.00100615
0.0010167
0.00101621
0.00101574
0.00101528
0.00101483
0.00101439
0.00101397
0.00101356
0.00101316
0.00101277
0.00101239
0.00101202
0.00101166
0.00101131
0.00101097
0.00101064
0.00101031
0.00101
0.00100969
0.00100939
0.0010091
0.00100882
0.00100854
0.00100827
0.00100801
0.00100776
0.00100751
0.00100727
0.00100703
0.0010068
0.00100658
0.00100636
0.00100615
0.0010167
0.00101621
0.00101574
0.00101528
0.00101483
0.00101439
0.00101397
0.00101356
0.00101316
0.00101277
0.00101239
0.00101202
0.00101166
0.00101131
0.00101097
0.00101063
0.00101031
0.00101
0.00100969
0.00100939
0.0010091
0.00100882
0.00100854
0.00100827
0.00100801
0.00100775
0.0010075
0.00100726
0.00100702
0.00100679
0.00100657
0.00100635
0.00100614
0.0010167
0.00101621
0.00101574
0.00101528
0.00101483
0.00101439
0.00101397
0.00101356
0.00101316
0.00101277
0.00101239
0.00101202
0.00101166
0.00101131
0.00101097
0.00101063
0.00101031
0.00100999
0.00100969
0.00100939
0.0010091
0.00100881
0.00100854
0.00100827
0.001008
0.00100775
0.0010075
0.00100726
0.00100702
0.00100679
0.00100656
0.00100634
0.00100613
0.0010167
0.00101621
0.00101574
0.00101528
0.00101483
0.00101439
0.00101397
0.00101356
0.00101316
0.00101277
0.00101239
0.00101202
0.00101166
0.00101131
0.00101096
0.00101063
0.00101031
0.00100999
0.00100969
0.00100939
0.00100909
0.00100881
0.00100853
0.00100826
0.001008
0.00100774
0.00100749
0.00100725
0.00100701
0.00100678
0.00100656
0.00100634
0.00100612
0.0010167
0.00101621
0.00101574
0.00101528
0.00101483
0.00101439
0.00101397
0.00101356
0.00101316
0.00101277
0.00101239
0.00101202
0.00101166
0.00101131
0.00101096
0.00101063
0.00101031
0.00100999
0.00100968
0.00100939
0.00100909
0.00100881
0.00100853
0.00100826
0.001008
0.00100774
0.00100749
0.00100725
0.00100701
0.00100678
0.00100655
0.00100633
0.00100612
0.0010167
0.00101621
0.00101574
0.00101528
0.00101483
0.00101439
0.00101397
0.00101356
0.00101316
0.00101277
0.00101239
0.00101202
0.00101166
0.00101131
0.00101096
0.00101063
0.00101031
0.00100999
0.00100968
0.00100938
0.00100909
0.00100881
0.00100853
0.00100826
0.001008
0.00100774
0.00100749
0.00100724
0.00100701
0.00100677
0.00100655
0.00100633
0.00100611
0.0010167
0.00101621
0.00101574
0.00101528
0.00101483
0.00101439
0.00101397
0.00101356
0.00101316
0.00101277
0.00101239
0.00101202
0.00101166
0.00101131
0.00101097
0.00101063
0.00101031
0.00100999
0.00100968
0.00100938
0.00100909
0.00100881
0.00100853
0.00100826
0.00100799
0.00100774
0.00100749
0.00100724
0.001007
0.00100677
0.00100654
0.00100632
0.00100611
0.0010167
0.00101621
0.00101574
0.00101528
0.00101483
0.00101439
0.00101397
0.00101356
0.00101316
0.00101277
0.00101239
0.00101202
0.00101166
0.00101131
0.00101097
0.00101063
0.00101031
0.00100999
0.00100969
0.00100939
0.00100909
0.00100881
0.00100853
0.00100826
0.00100799
0.00100774
0.00100748
0.00100724
0.001007
0.00100676
0.00100654
0.00100631
0.0010061
0.0010167
0.00101621
0.00101574
0.00101528
0.00101483
0.0010144
0.00101397
0.00101356
0.00101316
0.00101277
0.00101239
0.00101202
0.00101166
0.00101131
0.00101097
0.00101064
0.00101031
0.00101
0.00100969
0.00100939
0.00100909
0.00100881
0.00100853
0.00100825
0.00100798
0.00100772
0.00100746
0.00100721
0.00100697
0.00100673
0.00100649
0.00100626
0.00100604
0.0010167
0.00101621
0.00101574
0.00101528
0.00101483
0.0010144
0.00101398
0.00101357
0.00101317
0.00101278
0.0010124
0.00101203
0.00101167
0.00101132
0.00101097
0.00101064
0.00101031
0.00100998
0.00100967
0.00100936
0.00100905
0.00100875
0.00100846
0.00100817
0.00100788
0.0010076
0.00100732
0.00100705
0.00100677
0.00100651
0.00100624
0.00100598
0.00100572
0.0010167
0.00101621
0.00101574
0.00101529
0.00101484
0.00101441
0.00101399
0.00101358
0.00101318
0.00101279
0.0010124
0.00101202
0.00101164
0.00101127
0.00101089
0.00101053
0.00101016
0.00100979
0.00100942
0.00100906
0.00100869
0.00100832
0.00100794
0.00100757
0.00100719
0.00100681
0.00100643
0.00100605
0.00100566
0.00100527
0.00100488
0.00100448
0.00100409
0.0010167
0.00101622
0.00101575
0.0010153
0.00101485
0.00101441
0.00101397
0.00101352
0.00101308
0.00101262
0.00101215
0.00101166
0.00101115
0.00101063
0.00101008
0.00100951
0.00100892
0.0010083
0.00100766
0.00100699
0.00100631
0.0010056
0.00100487
0.00100412
0.00100335
0.00100256
0.00100176
0.00100094
0.00100012
0.000999274
0.000998423
0.000997563
0.000996697
0.00101671
0.00101622
0.00101574
0.00101524
0.00101469
0.00101407
0.00101337
0.00101257
0.00101167
0.00101066
0.00100955
0.00100832
0.00100698
0.00100554
0.001004
0.00100238
0.00100066
0.000998872
0.000997012
0.000995091
0.000993116
0.000991094
0.000989032
0.000986937
0.000984816
0.000982673
0.000980516
0.000978348
0.000976174
0.000973999
0.000971826
0.00096966
0.000967503
0.00101671
0.001016
0.00101488
0.00101326
0.00101113
0.00100848
0.00100533
0.0010017
0.000997642
0.000993196
0.000988418
0.000983362
0.000978079
0.000972617
0.000967019
0.000961324
0.000955568
0.000949779
0.000943986
0.000938208
0.000932467
0.000926778
0.000921154
0.000915607
0.000910145
0.000904776
0.000899507
0.000894341
0.000889282
0.000884332
0.000879494
0.000874767
0.000870154
0.0010153
0.00100706
0.000995515
0.000981417
0.000965394
0.000948057
0.000929963
0.000911562
0.000893186
0.000875076
0.000857395
0.000840252
0.000823716
0.000807821
0.000792583
0.000778001
0.000764063
0.000750753
0.000738046
0.000725919
0.000714345
0.000703298
0.00069275
0.000682676
0.00067305
0.00066385
0.000655051
0.000646633
0.000638574
0.000630855
0.000623458
0.000616366
0.000609561
0.000935928
0.000815553
0.000728189
0.000659277
0.000602416
0.000555185
0.000515688
0.000482339
0.000453888
0.00042937
0.000408043
0.000389337
0.000372805
0.000358099
0.000344938
0.000333101
0.000322403
0.000312695
0.000303854
0.000295773
0.000288366
0.000281558
0.000275283
0.000269487
0.000264122
0.000259146
0.000254521
0.000250216
0.000246202
0.000242454
0.000238948
0.000235666
0.000232586
0.000125477
0.000128847
0.000132096
0.000135204
0.000138173
0.000141007
0.000143711
0.000146289
0.000148745
0.000151084
0.00015331
0.000155428
0.000157441
0.000159354
0.000161171
0.000162896
0.000164533
0.000166086
0.000167559
0.000168955
0.000170278
0.000171531
0.000172719
0.000173844
0.000174909
0.000175917
0.000176871
0.000177774
0.000178628
0.000179436
0.0001802
0.000180923
0.000181607
0.000107991
0.000152697
0.00019681
0.000238866
0.000278325
0.000314303
0.000346437
0.000375177
0.00040145
0.000426277
0.000450466
0.000474497
0.00049855
0.000522617
0.000546628
0.000570549
0.000594419
0.000618351
0.000642499
0.000667023
0.000692052
0.000717675
0.000743931
0.000770812
0.000798265
0.000826191
0.000854447
0.000882847
0.000911166
0.000939151
0.00096653
0.000993023
0.00101835
0.00104225
0.00106448
0.00108482
0.0011031
0.00111921
0.00113306
0.00114466
0.00115407
0.00116143
0.00116694
0.00117089
0.00117362
0.00117554
0.00117708
0.00117869
0.00118081
0.00118386
0.00118818
0.00119405
0.00120164
0.00121097
0.00122193
0.00123421
0.00124737
0.00126076
0.0012736
0.00128494
0.00129378
0.00129905
0.00129969
0.00129477
0.00128354
0.00126556
0.00124084
0.00120997
0.00117429
0.00113601
0.0010983
0.00106513
0.00104078
0.00102885
0.00103097
0.00104578
0.00106922
0.00109612
0.00112233
0.0011457
0.00116598
0.00118387
0.00120032
0.00121611
0.00123177
0.00124762
0.00126387
0.00128065
0.00129807
0.00131621
0.00133514
0.00135484
0.00137524
0.00139615
0.00141732
0.00143839
0.00145895
0.0014788
0.0014963
0.00152038
0.000245628
0.000213693
0.000184827
0.000170792
0.000170547
0.000180709
0.000198403
0.000221375
0.000247755
0.000275926
0.000304575
0.000332764
0.000359959
0.000385982
0.000410906
0.000434938
0.000458321
0.000481272
0.00050395
0.000526456
0.000548853
0.000571181
0.000593474
0.000615763
0.000638067
0.00066038
0.000682664
0.000704837
0.000726775
0.000748316
0.000769275
0.000789446
0.000808621
0.000826598
0.000843188
0.000858229
0.000871593
0.000883196
0.000893007
0.000901052
0.000907427
0.000912291
0.000915875
0.000918476
0.000920444
0.000922172
0.000924071
0.000926554
0.000930006
0.000934768
0.000941114
0.000949233
0.000959215
0.000971033
0.000984536
0.00099944
0.00101533
0.00103164
0.00104772
0.00106278
0.00107599
0.00108647
0.00109341
0.0010961
0.00109405
0.00108714
0.00107567
0.00106056
0.00104338
0.00102641
0.00101247
0.00100449
0.00100483
0.0010144
0.00103212
0.00105518
0.00108006
0.00110391
0.00112524
0.00114391
0.00116051
0.00117585
0.00119061
0.00120526
0.00122007
0.0012352
0.00125074
0.00126677
0.00128339
0.00130068
0.00131873
0.00133758
0.00135719
0.00137745
0.00139814
0.00141896
0.00143953
0.00145965
0.00147754
0.0015028
0.00034922
0.000344237
0.000328601
0.000300279
0.00026628
0.000235249
0.000212243
0.000197913
0.000191255
0.000191239
0.000196942
0.000207482
0.000221978
0.000239552
0.000259339
0.000280531
0.000302417
0.000324434
0.00034619
0.000367458
0.000388149
0.000408267
0.000427868
0.00044702
0.000465782
0.000484186
0.000502234
0.000519895
0.000537108
0.000553788
0.000569834
0.000585134
0.000599577
0.000613055
0.000625476
0.000636764
0.000646876
0.000655805
0.000663588
0.000670314
0.000676127
0.000681222
0.000685847
0.000690292
0.000694877
0.000699933
0.000705777
0.000712698
0.000720929
0.000730642
0.000741935
0.000754832
0.000769287
0.000785179
0.000802323
0.000820464
0.000839282
0.000858391
0.000877338
0.000895615
0.000912673
0.000927958
0.000940962
0.000951291
0.000958755
0.000963462
0.000965905
0.000967017
0.000968157
0.000970976
0.000977129
0.000987839
0.00100344
0.00102313
0.00104518
0.00106753
0.00108852
0.00110735
0.00112404
0.00113911
0.00115322
0.00116693
0.00118061
0.00119449
0.00120866
0.00122316
0.00123805
0.00125336
0.00126917
0.00128558
0.00130269
0.00132058
0.00133927
0.00135869
0.0013787
0.00139904
0.00141937
0.00143952
0.00145759
0.00148377
0.000476574
0.000470997
0.00046469
0.000454933
0.000439159
0.000416483
0.000388455
0.000357901
0.000328011
0.000301053
0.000278123
0.000259715
0.000245943
0.000236689
0.00023169
0.0002306
0.000233003
0.000238439
0.000246412
0.000256422
0.000267983
0.000280653
0.000294052
0.00030787
0.000321867
0.000335867
0.000349745
0.000363411
0.000376796
0.000389847
0.000402519
0.000414773
0.000426584
0.000437936
0.000448831
0.00045929
0.00046936
0.000479116
0.000488664
0.000498141
0.000507712
0.000517564
0.000527893
0.000538893
0.000550742
0.00056358
0.000577497
0.000592527
0.000608637
0.000625742
0.000643714
0.0006624
0.000681634
0.000701254
0.000721106
0.000741048
0.000760945
0.000780659
0.000800045
0.000818938
0.000837155
0.000854506
0.000870821
0.000885996
0.000900039
0.00091313
0.000925648
0.000938164
0.000951367
0.000965915
0.00098223
0.00100031
0.00101964
0.00103933
0.00105838
0.00107604
0.00109202
0.00110646
0.00111981
0.00113256
0.00114515
0.00115786
0.00117085
0.00118415
0.00119778
0.00121171
0.00122596
0.00124055
0.00125555
0.00127107
0.00128721
0.00130408
0.00132174
0.00134019
0.00135933
0.00137897
0.00139881
0.00141874
0.00143676
0.00146355
0.000613644
0.000606264
0.000599163
0.000591943
0.000583751
0.000573493
0.000560229
0.000543395
0.000523211
0.000500513
0.00047626
0.000451448
0.000427008
0.000403729
0.000382238
0.000362999
0.000346328
0.000332399
0.000321269
0.000312891
0.000307137
0.000303822
0.000302726
0.000303609
0.00030623
0.000310353
0.000315765
0.000322275
0.000329723
0.000337979
0.000346943
0.000356548
0.000366755
0.000377552
0.000388951
0.000400981
0.00041369
0.000427135
0.000441377
0.000456476
0.000472481
0.000489417
0.000507284
0.000526042
0.000545613
0.000565876
0.000586672
0.000607816
0.000629103
0.000650329
0.000671305
0.000691869
0.000711894
0.000731295
0.000750029
0.000768096
0.000785528
0.000802388
0.000818752
0.000834702
0.000850316
0.00086566
0.000880791
0.000895768
0.000910662
0.000925574
0.000940636
0.000955988
0.000971735
0.000987889
0.00100431
0.00102071
0.00103667
0.00105182
0.00106591
0.00107892
0.00109103
0.00110257
0.00111391
0.00112534
0.00113705
0.00114914
0.00116161
0.00117443
0.00118754
0.00120091
0.00121453
0.0012284
0.0012426
0.00125722
0.00127238
0.0012882
0.00130477
0.00132213
0.00134025
0.001359
0.00137813
0.0013976
0.00141533
0.00144239
0.000736363
0.000729107
0.000721981
0.000714978
0.000707977
0.000700716
0.000692818
0.000683832
0.000673413
0.000661355
0.000647617
0.000632321
0.000615724
0.000598172
0.000580069
0.000561838
0.000543899
0.000526643
0.000510417
0.000495512
0.000482154
0.000470508
0.000460682
0.000452735
0.000446686
0.000442523
0.00044021
0.000439698
0.000440928
0.000443843
0.000448385
0.0004545
0.000462139
0.000471252
0.000481793
0.00049371
0.00050695
0.000521445
0.000537118
0.000553874
0.000571598
0.000590153
0.000609384
0.000629115
0.000649157
0.000669314
0.000689388
0.000709189
0.000728544
0.000747302
0.000765346
0.000782589
0.000798982
0.00081451
0.000829192
0.000843079
0.000856249
0.000868805
0.000880869
0.000892571
0.000904049
0.000915432
0.000926835
0.000938354
0.000950055
0.000961976
0.000974118
0.00098644
0.000998856
0.00101123
0.00102341
0.00103521
0.0010465
0.00105725
0.00106751
0.00107745
0.00108728
0.00109724
0.00110751
0.00111821
0.00112938
0.00114101
0.00115304
0.00116538
0.00117798
0.00119078
0.00120375
0.00121691
0.00123032
0.00124406
0.00125825
0.00127302
0.00128847
0.00130469
0.00132168
0.00133939
0.00135761
0.00137639
0.0013936
0.00142056
0.000833105
0.000826851
0.00082063
0.000814463
0.000808348
0.000802255
0.000796105
0.000789778
0.000783125
0.000775987
0.000768229
0.000759754
0.000750521
0.000740545
0.000729903
0.000718722
0.000707172
0.000695458
0.000683799
0.000672424
0.000661553
0.000651391
0.000642125
0.000633916
0.0006269
0.000621188
0.000616868
0.000614005
0.000612644
0.000612813
0.000614522
0.000617767
0.000622525
0.000628755
0.000636402
0.00064539
0.00065563
0.000667013
0.000679417
0.000692705
0.000706731
0.000721335
0.000736355
0.000751624
0.000766977
0.000782258
0.00079732
0.00081203
0.000826277
0.000839969
0.000853042
0.000865452
0.000877183
0.00088824
0.000898649
0.000908457
0.000917725
0.00092653
0.00093496
0.00094311
0.000951078
0.000958959
0.000966838
0.000974785
0.000982848
0.000991046
0.000999369
0.00100778
0.00101622
0.00102463
0.00103294
0.00104112
0.00104921
0.00105725
0.00106538
0.00107373
0.00108244
0.00109162
0.00110133
0.00111159
0.00112236
0.00113358
0.00114515
0.00115701
0.00116907
0.00118127
0.0011936
0.00120606
0.0012187
0.00123159
0.00124484
0.00125857
0.00127292
0.00128796
0.00130377
0.00132033
0.00133749
0.00135537
0.00137185
0.00139834
0.000902513
0.000897592
0.000892652
0.000887706
0.000882765
0.000877835
0.000872912
0.000867982
0.000863016
0.000857971
0.000852795
0.000847436
0.000841848
0.000835999
0.000829876
0.000823487
0.000816869
0.000810082
0.000803211
0.000796355
0.00078963
0.000783159
0.000777066
0.000771472
0.000766496
0.000762243
0.000758811
0.00075628
0.000754721
0.000754187
0.000754716
0.000756328
0.000759028
0.0007628
0.000767611
0.000773411
0.000780131
0.00078769
0.000795992
0.000804932
0.000814395
0.000824264
0.000834418
0.000844735
0.000855102
0.000865407
0.000875554
0.000885453
0.000895032
0.000904233
0.000913015
0.000921351
0.000929233
0.000936666
0.00094367
0.000950276
0.000956527
0.000962474
0.000968174
0.000973689
0.000979081
0.000984411
0.000989733
0.000995094
0.00100053
0.00100605
0.00101168
0.00101742
0.00102325
0.00102919
0.00103525
0.00104147
0.00104791
0.00105465
0.0010618
0.00106943
0.00107761
0.00108638
0.00109573
0.00110563
0.00111602
0.00112681
0.00113792
0.00114925
0.00116075
0.00117235
0.00118404
0.00119581
0.0012077
0.00121977
0.00123212
0.00124487
0.00125813
0.00127202
0.00128663
0.00130197
0.00131796
0.00133479
0.00135036
0.00137604
0.000948344
0.000944775
0.000941157
0.000937499
0.000933808
0.000930093
0.000926363
0.000922623
0.000918878
0.000915128
0.000911367
0.000907588
0.00090378
0.000899934
0.000896041
0.000892098
0.000888109
0.00088409
0.000880064
0.000876066
0.000872144
0.00086835
0.000864745
0.000861395
0.000858367
0.000855727
0.000853541
0.000851868
0.000850762
0.000850269
0.000850424
0.000851253
0.000852769
0.000854973
0.000857851
0.000861379
0.000865517
0.000870217
0.000875419
0.000881057
0.000887057
0.000893343
0.000899835
0.000906455
0.000913126
0.000919776
0.000926338
0.000932754
0.000938973
0.000944956
0.000950673
0.000956106
0.000961245
0.000966092
0.00097066
0.000974969
0.000979048
0.000982932
0.000986662
0.000990283
0.00099384
0.00099738
0.00100095
0.00100458
0.00100831
0.00101216
0.00101618
0.00102037
0.00102478
0.00102942
0.00103436
0.00103964
0.00104532
0.00105148
0.00105817
0.00106543
0.0010733
0.00108176
0.00109079
0.00110033
0.00111031
0.00112064
0.00113124
0.00114204
0.00115297
0.00116397
0.00117501
0.00118611
0.00119728
0.00120857
0.00122007
0.00123188
0.00124412
0.0012569
0.00127031
0.00128443
0.0012992
0.00131486
0.00132939
0.00135393
0.000976234
0.000973831
0.000971369
0.000968852
0.000966286
0.000963677
0.000961032
0.000958359
0.000955667
0.000952962
0.000950252
0.000947545
0.000944845
0.000942158
0.000939489
0.000936842
0.000934224
0.000931642
0.000929107
0.000926634
0.000924241
0.000921951
0.000919792
0.000917792
0.000915987
0.000914409
0.000913094
0.000912078
0.000911393
0.000911068
0.000911128
0.000911592
0.000912474
0.000913777
0.0009155
0.000917631
0.000920151
0.000923033
0.000926245
0.000929747
0.000933495
0.000937443
0.000941541
0.00094574
0.000949989
0.00095424
0.00095845
0.000962578
0.000966588
0.000970452
0.000974147
0.000977657
0.000980974
0.000984098
0.000987034
0.000989796
0.000992405
0.000994886
0.000997272
0.000999598
0.0010019
0.00100423
0.00100662
0.00100911
0.00101175
0.00101457
0.00101761
0.00102091
0.00102451
0.00102845
0.00103279
0.00103757
0.00104285
0.00104867
0.00105506
0.00106204
0.00106962
0.00107777
0.00108644
0.00109558
0.00110511
0.00111496
0.00112505
0.00113529
0.00114564
0.00115604
0.00116647
0.00117691
0.00118739
0.00119795
0.00120865
0.00121958
0.00123085
0.00124258
0.00125485
0.00126776
0.00128129
0.00129573
0.00130913
0.00133227
0.00099183
0.00099031
0.000988736
0.000987109
0.000985432
0.000983709
0.000981945
0.000980145
0.000978316
0.000976463
0.000974594
0.000972718
0.000970842
0.000968975
0.000967125
0.0009653
0.00096351
0.000961763
0.000960068
0.000958434
0.000956874
0.0009554
0.000954024
0.000952763
0.000951633
0.000950652
0.000949838
0.000949209
0.000948785
0.000948581
0.000948613
0.000948893
0.00094943
0.000950228
0.000951287
0.000952604
0.000954168
0.000955967
0.000957981
0.000960188
0.000962563
0.000965078
0.0009677
0.0009704
0.000973144
0.000975901
0.000978639
0.000981331
0.000983951
0.000986476
0.000988891
0.00099118
0.000993338
0.000995362
0.000997255
0.000999026
0.00100069
0.00100227
0.00100379
0.00100528
0.00100678
0.00100832
0.00100995
0.00101172
0.00101365
0.00101581
0.00101824
0.00102097
0.00102407
0.00102756
0.00103151
0.00103595
0.00104092
0.00104644
0.00105255
0.00105924
0.00106649
0.00107429
0.00108257
0.00109127
0.00110034
0.00110968
0.00111924
0.00112894
0.00113871
0.00114853
0.00115835
0.00116816
0.00117798
0.00118784
0.0011978
0.00120792
0.0012183
0.00122904
0.00124024
0.001252
0.00126431
0.00127751
0.00128975
0.0013113
0.000999812
0.000998881
0.00099791
0.000996898
0.000995846
0.000994756
0.00099363
0.000992471
0.000991283
0.00099007
0.000988837
0.00098759
0.000986335
0.000985079
0.000983828
0.000982591
0.000981375
0.000980188
0.000979038
0.000977933
0.000976882
0.000975894
0.000974977
0.000974141
0.000973396
0.000972753
0.000972222
0.000971814
0.000971539
0.000971407
0.000971427
0.000971607
0.000971951
0.000972465
0.000973147
0.000973997
0.00097501
0.000976179
0.000977492
0.000978937
0.000980498
0.000982158
0.000983897
0.000985695
0.000987529
0.000989377
0.000991219
0.000993032
0.000994798
0.000996501
0.000998125
0.000999662
0.0010011
0.00100245
0.0010037
0.00100486
0.00100594
0.00100697
0.00100795
0.00100893
0.00100993
0.001011
0.00101216
0.00101347
0.00101497
0.00101671
0.00101873
0.00102109
0.00102383
0.001027
0.00103064
0.00103478
0.00103947
0.0010447
0.00105051
0.00105687
0.00106377
0.00107117
0.00107903
0.00108729
0.00109587
0.00110471
0.00111374
0.0011229
0.00113212
0.00114136
0.0011506
0.00115982
0.00116901
0.00117822
0.00118748
0.00119684
0.0012064
0.00121624
0.00122645
0.00123713
0.00124829
0.00126027
0.00127134
0.00129119
0.00100353
0.00100295
0.00100234
0.00100171
0.00100105
0.00100036
0.000999649
0.000998912
0.000998153
0.000997374
0.000996579
0.00099577
0.000994951
0.000994128
0.000993304
0.000992486
0.000991677
0.000990886
0.000990116
0.000989376
0.00098867
0.000988006
0.000987391
0.000986831
0.000986333
0.000985904
0.000985552
0.000985284
0.000985107
0.000985026
0.000985049
0.00098518
0.000985423
0.00098578
0.000986252
0.00098684
0.000987539
0.000988347
0.000989256
0.00099026
0.000991346
0.000992505
0.000993724
0.000994987
0.000996279
0.000997585
0.000998888
0.00100017
0.00100143
0.00100263
0.00100378
0.00100486
0.00100587
0.00100681
0.00100767
0.00100847
0.00100921
0.00100991
0.00101059
0.00101127
0.00101198
0.00101276
0.00101365
0.00101469
0.00101592