/*--------------------------------*- C++ -*----------------------------------*\
  =========                 |
  \\      /  F ield         | OpenFOAM: The Open Source CFD Toolbox
   \\    /   O peration     | Website:  https://openfoam.org
    \\  /    A nd           | Version:  10
     \\/     M anipulation  |
\*---------------------------------------------------------------------------*/
FoamFile
{
    format      ascii;
    class       surfaceScalarField;
    location    "0.14";
    object      phi;
}
// * * * * * * * * * * * * * * * * * * * * * * * * * * * * * * * * * * * * * //

dimensions      [0 3 -1 0 0 0 0];

internalField   nonuniform List<scalar> 
13452
(
6.05771e-05
-3.086e-07
6.03706e-05
2.06459e-07
5.98985e-05
4.72115e-07
5.92845e-05
6.14019e-07
5.86787e-05
6.05809e-07
5.81413e-05
5.37387e-07
5.7675e-05
4.66321e-07
5.72696e-05
4.05369e-07
5.69138e-05
3.55749e-07
5.65977e-05
3.16092e-07
5.63135e-05
2.84219e-07
5.60554e-05
2.5817e-07
5.58189e-05
2.36465e-07
5.56009e-05
2.18035e-07
5.53987e-05
2.02117e-07
5.52106e-05
1.88174e-07
5.50347e-05
1.75821e-07
5.487e-05
1.64787e-07
5.47151e-05
1.54877e-07
5.45691e-05
1.45954e-07
5.44312e-05
1.37933e-07
5.43004e-05
1.30776e-07
5.41759e-05
1.24503e-07
5.40567e-05
1.19213e-07
5.39416e-05
1.15122e-07
5.38288e-05
1.12748e-07
5.3716e-05
1.12869e-07
5.35981e-05
1.17866e-07
5.34665e-05
1.31549e-07
5.33056e-05
1.60943e-07
5.30565e-05
2.49134e-07
5.26885e-05
3.67949e-07
7.33373e-07
5.19551e-05
6.18026e-05
-1.20879e-07
6.17624e-05
2.46657e-07
6.18791e-05
3.55434e-07
6.20403e-05
4.52769e-07
6.21467e-05
4.99469e-07
6.21756e-05
5.08469e-07
6.21416e-05
5.00295e-07
6.20655e-05
4.81459e-07
6.19638e-05
4.57529e-07
6.18475e-05
4.32347e-07
6.1724e-05
4.07737e-07
6.15977e-05
3.84452e-07
6.14714e-05
3.62763e-07
6.13467e-05
3.42699e-07
6.12247e-05
3.24179e-07
6.11058e-05
3.07083e-07
6.09903e-05
2.91288e-07
6.08784e-05
2.76682e-07
6.07701e-05
2.63174e-07
6.06654e-05
2.50693e-07
6.05641e-05
2.39201e-07
6.04662e-05
2.28692e-07
6.03715e-05
2.19214e-07
6.02798e-05
2.10881e-07
6.0191e-05
2.03931e-07
6.0105e-05
1.98773e-07
6.00216e-05
1.96252e-07
5.9942e-05
1.97415e-07
5.98674e-05
2.06182e-07
5.98069e-05
2.21468e-07
5.97867e-05
2.69287e-07
5.98475e-05
3.07212e-07
4.67992e-07
6.01129e-05
6.36612e-05
-2.06865e-08
6.37527e-05
1.55174e-07
6.38146e-05
2.93507e-07
6.38672e-05
4.00162e-07
6.39101e-05
4.56599e-07
6.39416e-05
4.77012e-07
6.39618e-05
4.8008e-07
6.39692e-05
4.74024e-07
6.39643e-05
4.62464e-07
6.39487e-05
4.47957e-07
6.39244e-05
4.32021e-07
6.38933e-05
4.15527e-07
6.38571e-05
3.99012e-07
6.3817e-05
3.828e-07
6.37741e-05
3.67074e-07
6.37292e-05
3.51941e-07
6.3683e-05
3.37459e-07
6.36361e-05
3.23662e-07
6.35886e-05
3.10576e-07
6.35411e-05
2.9823e-07
6.34936e-05
2.86666e-07
6.34464e-05
2.75954e-07
6.33994e-05
2.6621e-07
6.33527e-05
2.57617e-07
6.33061e-05
2.50492e-07
6.32596e-05
2.45283e-07
6.32129e-05
2.42934e-07
6.3166e-05
2.44268e-07
6.31193e-05
2.52899e-07
6.30734e-05
2.67385e-07
6.30378e-05
3.0488e-07
6.30052e-05
3.39794e-07
4.34158e-07
6.30391e-05
6.55759e-05
-1.35342e-08
6.55536e-05
1.77504e-07
6.55643e-05
2.828e-07
6.5605e-05
3.5947e-07
6.56539e-05
4.07666e-07
6.56989e-05
4.32067e-07
6.57362e-05
4.42728e-07
6.57657e-05
4.44584e-07
6.57877e-05
4.40389e-07
6.58032e-05
4.32456e-07
6.5813e-05
4.2228e-07
6.58178e-05
4.10748e-07
6.58183e-05
3.98446e-07
6.58154e-05
3.85766e-07
6.58095e-05
3.72977e-07
6.58011e-05
3.60263e-07
6.57908e-05
3.47761e-07
6.57789e-05
3.35575e-07
6.57657e-05
3.23797e-07
6.57514e-05
3.12512e-07
6.57363e-05
3.01816e-07
6.57204e-05
2.91829e-07
6.57039e-05
2.82713e-07
6.56868e-05
2.74693e-07
6.56692e-05
2.68119e-07
6.5651e-05
2.63449e-07
6.56324e-05
2.61535e-07
6.56136e-05
2.63108e-07
6.55959e-05
2.7061e-07
6.55799e-05
2.83339e-07
6.55756e-05
3.09196e-07
6.55807e-05
3.34679e-07
3.77679e-07
6.56372e-05
6.74265e-05
1.67589e-08
6.74514e-05
1.52582e-07
6.74797e-05
2.54496e-07
6.75106e-05
3.2855e-07
6.75414e-05
3.76948e-07
6.75711e-05
4.02314e-07
6.75998e-05
4.14039e-07
6.76267e-05
4.17664e-07
6.76512e-05
4.15896e-07
6.7673e-05
4.10675e-07
6.7692e-05
4.03244e-07
6.77084e-05
3.94353e-07
6.77224e-05
3.84508e-07
6.77341e-05
3.74066e-07
6.77438e-05
3.63283e-07
6.77517e-05
3.52347e-07
6.7758e-05
3.41409e-07
6.7763e-05
3.30593e-07
6.77668e-05
3.20009e-07
6.77695e-05
3.09768e-07
6.77714e-05
2.99989e-07
6.77724e-05
2.90815e-07
6.77727e-05
2.82427e-07
6.77723e-05
2.75062e-07
6.77714e-05
2.6906e-07
6.777e-05
2.6484e-07
6.77684e-05
2.63095e-07
6.77671e-05
2.64394e-07
6.77675e-05
2.70237e-07
6.77707e-05
2.80137e-07
6.77825e-05
2.97367e-07
6.78027e-05
3.14471e-07
3.35716e-07
6.78447e-05
6.93768e-05
2.39668e-08
6.93864e-05
1.42973e-07
6.94048e-05
2.36153e-07
6.9431e-05
3.02373e-07
6.94608e-05
3.47147e-07
6.94904e-05
3.72704e-07
6.95186e-05
3.85841e-07
6.95451e-05
3.91167e-07
6.95698e-05
3.91136e-07
6.95929e-05
3.87565e-07
6.96145e-05
3.81691e-07
6.96346e-05
3.74277e-07
6.96532e-05
3.65828e-07
6.96706e-05
3.56696e-07
6.96868e-05
3.47132e-07
6.97018e-05
3.37323e-07
6.97158e-05
3.27417e-07
6.97288e-05
3.17541e-07
6.9741e-05
3.07812e-07
6.97524e-05
2.98345e-07
6.97632e-05
2.89266e-07
6.97733e-05
2.80721e-07
6.97828e-05
2.72889e-07
6.97919e-05
2.65995e-07
6.98006e-05
2.60338e-07
6.98092e-05
2.56267e-07
6.9818e-05
2.54288e-07
6.98276e-05
2.54785e-07
6.98393e-05
2.58538e-07
6.98543e-05
2.65083e-07
6.98764e-05
2.75281e-07
6.99062e-05
2.84716e-07
2.927e-07
6.99492e-05
7.13593e-05
3.09889e-08
7.1371e-05
1.31314e-07
7.13921e-05
2.15073e-07
7.1418e-05
2.76423e-07
7.14457e-05
3.19482e-07
7.14727e-05
3.45628e-07
7.14987e-05
3.5985e-07
7.15236e-05
3.66274e-07
7.15474e-05
3.67329e-07
7.15702e-05
3.64775e-07
7.15921e-05
3.59833e-07
7.16131e-05
3.5328e-07
7.16333e-05
3.45631e-07
7.16527e-05
3.37246e-07
7.16715e-05
3.28382e-07
7.16896e-05
3.19228e-07
7.17071e-05
3.09935e-07
7.1724e-05
3.00629e-07
7.17403e-05
2.91426e-07
7.17563e-05
2.82442e-07
7.17717e-05
2.73798e-07
7.17868e-05
2.65633e-07
7.18016e-05
2.58113e-07
7.18161e-05
2.51431e-07
7.18307e-05
2.45832e-07
7.18453e-05
2.41579e-07
7.18606e-05
2.39002e-07
7.18771e-05
2.38306e-07
7.18959e-05
2.3979e-07
7.1918e-05
2.42958e-07
7.19457e-05
2.47589e-07
7.19795e-05
2.50888e-07
2.51038e-07
7.20212e-05
7.34033e-05
3.29428e-08
7.3414e-05
1.20624e-07
7.34327e-05
1.96387e-07
7.34561e-05
2.5303e-07
7.3482e-05
2.93599e-07
7.35081e-05
3.19452e-07
7.35337e-05
3.34314e-07
7.35583e-05
3.41657e-07
7.35819e-05
3.43688e-07
7.36047e-05
3.42027e-07
7.36267e-05
3.37852e-07
7.3648e-05
3.31951e-07
7.36688e-05
3.24863e-07
7.3689e-05
3.16966e-07
7.37089e-05
3.08534e-07
7.37284e-05
2.99767e-07
7.37475e-05
2.90824e-07
7.37663e-05
2.81835e-07
7.37848e-05
2.72916e-07
7.3803e-05
2.64181e-07
7.38211e-05
2.55744e-07
7.3839e-05
2.47732e-07
7.38568e-05
2.40287e-07
7.38747e-05
2.33569e-07
7.38928e-05
2.27758e-07
7.39113e-05
2.23033e-07
7.39307e-05
2.19576e-07
7.39516e-05
2.17445e-07
7.39747e-05
2.16643e-07
7.4001e-05
2.16652e-07
7.40318e-05
2.16853e-07
7.40673e-05
2.15377e-07
2.10517e-07
7.41078e-05
7.55023e-05
3.31505e-08
7.55123e-05
1.106e-07
7.553e-05
1.78715e-07
7.55522e-05
2.30816e-07
7.55769e-05
2.68907e-07
7.56021e-05
2.94195e-07
7.5627e-05
3.09417e-07
7.56512e-05
3.17432e-07
7.56747e-05
3.2023e-07
7.56974e-05
3.19301e-07
7.57195e-05
3.15766e-07
7.57411e-05
3.10404e-07
7.57622e-05
3.03763e-07
7.57829e-05
2.96235e-07
7.58033e-05
2.88107e-07
7.58235e-05
2.79592e-07
7.58435e-05
2.70855e-07
7.58633e-05
2.62033e-07
7.58829e-05
2.53243e-07
7.59025e-05
2.44595e-07
7.59221e-05
2.36197e-07
7.59416e-05
2.2816e-07
7.59613e-05
2.20601e-07
7.59813e-05
2.13642e-07
7.60016e-05
2.07406e-07
7.60226e-05
2.01994e-07
7.60447e-05
1.97475e-07
7.60684e-05
1.938e-07
7.60942e-05
1.90811e-07
7.61229e-05
1.88001e-07
7.6155e-05
1.84679e-07
7.61909e-05
1.79554e-07
1.71335e-07
7.62301e-05
7.76607e-05
3.20082e-08
7.76703e-05
1.01007e-07
7.76868e-05
1.62232e-07
7.77076e-05
2.10056e-07
7.77309e-05
2.45601e-07
7.77551e-05
2.6993e-07
7.77794e-05
2.85116e-07
7.78034e-05
2.93499e-07
7.78267e-05
2.96844e-07
7.78495e-05
2.96498e-07
7.78718e-05
2.935e-07
7.78936e-05
2.88602e-07
7.7915e-05
2.82346e-07
7.79361e-05
2.75128e-07
7.7957e-05
2.67242e-07
7.79777e-05
2.58911e-07
7.79982e-05
2.50307e-07
7.80187e-05
2.4157e-07
7.80391e-05
2.32817e-07
7.80596e-05
2.24155e-07
7.80801e-05
2.15683e-07
7.81007e-05
2.07497e-07
7.81217e-05
1.99688e-07
7.8143e-05
1.92342e-07
7.81648e-05
1.85533e-07
7.81875e-05
1.793e-07
7.82114e-05
1.73631e-07
7.82368e-05
1.68411e-07
7.82642e-05
1.63407e-07
7.8294e-05
1.58156e-07
7.83267e-05
1.52031e-07
7.83621e-05
1.44128e-07
1.33559e-07
7.83999e-05
7.98802e-05
3.01365e-08
7.98893e-05
9.18945e-08
7.99047e-05
1.46849e-07
7.99242e-05
1.90537e-07
7.99463e-05
2.23477e-07
7.99697e-05
2.46579e-07
7.99934e-05
2.6143e-07
8.00169e-05
2.69926e-07
8.00402e-05
2.73607e-07
8.0063e-05
2.73679e-07
8.00854e-05
2.71097e-07
8.01074e-05
2.66573e-07
8.01291e-05
2.60634e-07
8.01506e-05
2.53673e-07
8.01718e-05
2.45986e-07
8.0193e-05
2.37796e-07
8.0214e-05
2.2928e-07
8.0235e-05
2.20578e-07
8.0256e-05
2.11806e-07
8.02771e-05
2.03067e-07
8.02983e-05
1.94448e-07
8.03198e-05
1.8603e-07
8.03416e-05
1.77881e-07
8.03639e-05
1.70057e-07
8.03868e-05
1.6259e-07
8.04106e-05
1.55473e-07
8.04356e-05
1.48645e-07
8.04621e-05
1.41956e-07
8.04903e-05
1.35152e-07
8.05207e-05
1.27833e-07
8.05532e-05
1.19482e-07
8.05879e-05
1.09465e-07
9.72071e-08
8.06242e-05
8.21627e-05
2.78709e-08
8.21714e-05
8.32074e-08
8.21858e-05
1.32444e-07
8.22042e-05
1.72156e-07
8.22252e-05
2.02476e-07
8.22476e-05
2.24144e-07
8.22707e-05
2.38394e-07
8.22938e-05
2.46759e-07
8.23169e-05
2.50567e-07
8.23396e-05
2.50892e-07
8.23621e-05
2.486e-07
8.23844e-05
2.44356e-07
8.24063e-05
2.38664e-07
8.24281e-05
2.31906e-07
8.24497e-05
2.24372e-07
8.24712e-05
2.16286e-07
8.24927e-05
2.07822e-07
8.25141e-05
1.99119e-07
8.25357e-05
1.90291e-07
8.25573e-05
1.8143e-07
8.25791e-05
1.72617e-07
8.26012e-05
1.63915e-07
8.26237e-05
1.55373e-07
8.26468e-05
1.47022e-07
8.26705e-05
1.38862e-07
8.26951e-05
1.30857e-07
8.27209e-05
1.22918e-07
8.27479e-05
1.14883e-07
8.27766e-05
1.06513e-07
8.28069e-05
9.74736e-08
8.2839e-05
8.73635e-08
8.28728e-05
7.57406e-08
6.22493e-08
8.29077e-05
8.45102e-05
2.54275e-08
8.45185e-05
7.49341e-08
8.4532e-05
1.18923e-07
8.45494e-05
1.54806e-07
8.45693e-05
1.82495e-07
8.45909e-05
2.02568e-07
8.46133e-05
2.15998e-07
8.46361e-05
2.24021e-07
8.46588e-05
2.2777e-07
8.46815e-05
2.28192e-07
8.47041e-05
2.26065e-07
8.47264e-05
2.22004e-07
8.47486e-05
2.16485e-07
8.47707e-05
2.0987e-07
8.47926e-05
2.02444e-07
8.48144e-05
1.94423e-07
8.48363e-05
1.85978e-07
8.48582e-05
1.77243e-07
8.48801e-05
1.68327e-07
8.49022e-05
1.59316e-07
8.49246e-05
1.50276e-07
8.49472e-05
1.4126e-07
8.49703e-05
1.323e-07
8.49939e-05
1.23404e-07
8.50182e-05
1.14556e-07
8.50434e-05
1.05699e-07
8.50696e-05
9.67344e-08
8.5097e-05
8.75058e-08
8.51257e-05
7.78017e-08
8.51558e-05
6.73554e-08
8.51873e-05
5.58657e-08
8.522e-05
4.30289e-08
2.8637e-08
8.52536e-05
8.69247e-05
2.29347e-08
8.69325e-05
6.70552e-08
8.69453e-05
1.06189e-07
8.69617e-05
1.38385e-07
8.69807e-05
1.63444e-07
8.70015e-05
1.81804e-07
8.70233e-05
1.94232e-07
8.70456e-05
2.01725e-07
8.70681e-05
2.05244e-07
8.70907e-05
2.05617e-07
8.71132e-05
2.03536e-07
8.71356e-05
1.99564e-07
8.7158e-05
1.94141e-07
8.71802e-05
1.87612e-07
8.72024e-05
1.80246e-07
8.72246e-05
1.72252e-07
8.72468e-05
1.63795e-07
8.7269e-05
1.55001e-07
8.72914e-05
1.45973e-07
8.73139e-05
1.36788e-07
8.73367e-05
1.27504e-07
8.73598e-05
1.1816e-07
8.73833e-05
1.08776e-07
8.74074e-05
9.93461e-08
8.74321e-05
8.98408e-08
8.74576e-05
8.01968e-08
8.7484e-05
7.03144e-08
8.75115e-05
6.00541e-08
8.754e-05
4.92388e-08
8.75697e-05
3.76616e-08
8.76005e-05
2.5104e-08
8.76321e-05
1.13612e-08
-3.67758e-09
8.76645e-05
8.9408e-05
2.04661e-08
8.94155e-05
5.95514e-08
8.94275e-05
9.41573e-08
8.94431e-05
1.22801e-07
8.94613e-05
1.45239e-07
8.94813e-05
1.61793e-07
8.95025e-05
1.73069e-07
8.95244e-05
1.79872e-07
8.95466e-05
1.83008e-07
8.9569e-05
1.83197e-07
8.95915e-05
1.8105e-07
8.9614e-05
1.77075e-07
8.96365e-05
1.71676e-07
8.96589e-05
1.65175e-07
8.96813e-05
1.57824e-07
8.97037e-05
1.49821e-07
8.97262e-05
1.41322e-07
8.97488e-05
1.32446e-07
8.97715e-05
1.23288e-07
8.97943e-05
1.13916e-07
8.98175e-05
1.0438e-07
8.98409e-05
9.47095e-08
8.98648e-05
8.49129e-08
8.98891e-05
7.49779e-08
8.99141e-05
6.48678e-08
8.99398e-05
5.4519e-08
8.99663e-05
4.38399e-08
8.99936e-05
3.27114e-08
9.00218e-05
2.09915e-08
9.0051e-05
8.52471e-09
9.00809e-05
-4.84255e-09
9.01115e-05
-1.92445e-08
-3.47285e-08
9.01426e-05
9.19623e-05
1.80611e-08
9.19694e-05
5.24e-08
9.19808e-05
8.27504e-08
9.19957e-05
1.07966e-07
9.20131e-05
1.27801e-07
9.20324e-05
1.4248e-07
9.2053e-05
1.52481e-07
9.20744e-05
1.58453e-07
9.20964e-05
1.61072e-07
9.21186e-05
1.60953e-07
9.2141e-05
1.58636e-07
9.21635e-05
1.54571e-07
9.21861e-05
1.49127e-07
9.22086e-05
1.42598e-07
9.22312e-05
1.35219e-07
9.22539e-05
1.27175e-07
9.22766e-05
1.18609e-07
9.22994e-05
1.09634e-07
9.23224e-05
1.00334e-07
9.23455e-05
9.07711e-08
9.23689e-05
8.09868e-08
9.23926e-05
7.10026e-08
9.24167e-05
6.08212e-08
9.24413e-05
5.04254e-08
9.24664e-05
3.97774e-08
9.24921e-05
2.88182e-08
9.25184e-05
1.74683e-08
9.25455e-05
5.6306e-09
9.25733e-05
-6.80466e-09
9.26018e-05
-1.99502e-08
9.26308e-05
-3.39102e-08
9.26604e-05
-4.87683e-08
-6.45313e-08
9.26902e-05
9.45895e-05
1.57382e-08
9.45963e-05
4.55765e-08
9.46072e-05
7.18996e-08
9.46213e-05
9.38041e-08
9.46381e-05
1.11056e-07
9.46567e-05
1.23806e-07
9.46768e-05
1.32432e-07
9.46978e-05
1.37455e-07
9.47194e-05
1.39435e-07
9.47415e-05
1.389e-07
9.47638e-05
1.36315e-07
9.47863e-05
1.32081e-07
9.48089e-05
1.26527e-07
9.48316e-05
1.19919e-07
9.48543e-05
1.12474e-07
9.48771e-05
1.04358e-07
9.49e-05
9.57065e-08
9.4923e-05
8.66199e-08
9.49462e-05
7.71748e-08
9.49695e-05
6.74257e-08
9.49931e-05
5.7407e-08
9.5017e-05
4.71351e-08
9.50412e-05
3.66085e-08
9.50658e-05
2.58089e-08
9.50909e-05
1.47007e-08
9.51165e-05
3.23269e-09
9.51426e-05
-8.66087e-09
9.51693e-05
-2.1056e-08
9.51965e-05
-3.40339e-08
9.52243e-05
-4.7673e-08
9.52524e-05
-6.20401e-08
9.52808e-05
-7.71835e-08
-9.30834e-08
9.53093e-05
9.72918e-05
1.35034e-08
9.72983e-05
3.90543e-08
9.73086e-05
6.15432e-08
9.73222e-05
8.0241e-08
9.73383e-05
9.49336e-08
9.73564e-05
1.05718e-07
9.7376e-05
1.12886e-07
9.73965e-05
1.16858e-07
9.74179e-05
1.18096e-07
9.74397e-05
1.17045e-07
9.7462e-05
1.14106e-07
9.74844e-05
1.0963e-07
9.7507e-05
1.03906e-07
9.75298e-05
9.71744e-08
9.75526e-05
8.96273e-08
9.75756e-05
8.14178e-08
9.75986e-05
7.26657e-08
9.76218e-05
6.34627e-08
9.76451e-05
5.38765e-08
9.76685e-05
4.39545e-08
9.76922e-05
3.37254e-08
9.77161e-05
2.32018e-08
9.77404e-05
1.23804e-08
9.77649e-05
1.24368e-09
9.77899e-05
-1.02393e-08
9.78152e-05
-2.21108e-08
9.7841e-05
-3.44224e-08
9.78672e-05
-4.72309e-08
9.78937e-05
-6.05937e-08
9.79206e-05
-7.4562e-08
9.79477e-05
-8.91747e-08
9.7975e-05
-1.04455e-07
-1.20367e-07
9.80023e-05
0.000100071
1.13554e-08
0.000100077
3.28064e-08
0.000100087
5.16254e-08
0.0001001
6.7211e-08
0.000100116
7.93705e-08
0.000100134
8.81603e-08
0.000100153
9.3805e-08
0.000100173
9.66396e-08
0.000100194
9.70441e-08
0.000100216
9.53909e-08
0.000100238
9.20219e-08
0.00010026
8.72376e-08
0.000100283
8.12922e-08
0.000100305
7.43959e-08
0.000100328
6.67192e-08
0.000100351
5.83979e-08
0.000100374
4.95381e-08
0.000100398
4.02208e-08
0.000100421
3.05053e-08
0.000100445
2.04324e-08
0.000100468
1.00262e-08
0.000100492
-7.03724e-10
0.000100516
-1.17609e-08
0.000100541
-2.31605e-08
0.000100565
-3.49277e-08
0.00010059
-4.70956e-08
0.000100616
-5.97024e-08
0.000100641
-7.27883e-08
0.000100667
-8.63909e-08
0.000100693
-1.0054e-07
0.000100719
-1.15256e-07
0.000100745
-1.30542e-07
-1.46353e-07
0.000100771
0.00010293
9.2892e-09
0.000102936
2.68057e-08
0.000102946
4.20954e-08
0.000102958
5.46529e-08
0.000102973
6.43055e-08
0.00010299
7.10804e-08
0.000103009
7.51477e-08
0.000103029
7.67733e-08
0.00010305
7.62671e-08
0.000103071
7.39368e-08
0.000103093
7.00696e-08
0.000103115
6.4921e-08
0.000103138
5.87089e-08
0.000103161
5.16149e-08
0.000103184
4.37868e-08
0.000103207
3.53425e-08
0.00010323
2.63744e-08
0.000103253
1.69524e-08
0.000103277
7.12748e-09
0.0001033
-3.06602e-09
0.000103324
-1.3608e-08
0.000103347
-2.44907e-08
0.000103371
-3.57172e-08
0.000103396
-4.72996e-08
0.00010342
-5.92572e-08
0.000103444
-7.1614e-08
0.000103469
-8.43967e-08
0.000103494
-9.76312e-08
0.000103519
-1.11339e-07
0.000103544
-1.25536e-07
0.000103569
-1.40224e-07
0.000103594
-1.55397e-07
-1.71003e-07
0.000103618
0.000105871
7.29795e-09
0.000105876
2.10255e-08
0.000105886
3.29068e-08
0.000105898
4.25101e-08
0.000105912
4.96809e-08
0.000105929
5.44258e-08
0.000105947
5.68723e-08
0.000105967
5.72286e-08
0.000105987
5.57464e-08
0.000106009
5.26752e-08
0.000106031
4.82525e-08
0.000106053
4.2692e-08
0.000106075
3.61764e-08
0.000106098
2.88591e-08
0.000106121
2.08651e-08
0.000106144
1.22943e-08
0.000106167
3.22479e-09
0.00010619
-6.28471e-09
0.000106214
-1.61917e-08
0.000106237
-2.64676e-08
0.000106261
-3.70962e-08
0.000106284
-4.80712e-08
0.000106308
-5.93948e-08
0.000106332
-7.10757e-08
0.000106356
-8.31276e-08
0.000106379
-9.55667e-08
0.000106403
-1.08409e-07
0.000106428
-1.2167e-07
0.000106452
-1.35359e-07
0.000106475
-1.49478e-07
0.000106499
-1.6402e-07
0.000106523
-1.78971e-07
-1.94274e-07
0.000106546
0.000108895
5.374e-09
0.000108901
1.54408e-08
0.00010891
2.40175e-08
0.000108922
3.07306e-08
0.000108936
3.54424e-08
0.000108952
3.81461e-08
0.00010897
3.8936e-08
0.000108989
3.7972e-08
0.00010901
3.5459e-08
0.000109031
3.15933e-08
0.000109052
2.65679e-08
0.000109074
2.0557e-08
0.000109097
1.37095e-08
0.00010912
6.15145e-09
0.000109143
-2.01502e-09
0.000109166
-1.0708e-08
0.000109189
-1.98644e-08
0.000109212
-2.94364e-08
0.000109235
-3.93901e-08
0.000109258
-4.97029e-08
0.000109281
-6.0362e-08
0.000109305
-7.13626e-08
0.000109328
-8.27059e-08
0.000109351
-9.43977e-08
0.000109375
-1.06447e-07
0.000109398
-1.18862e-07
0.000109421
-1.31653e-07
0.000109444
-1.44823e-07
0.000109467
-1.58374e-07
0.00010949
-1.723e-07
0.000109513
-1.86586e-07
0.000109535
-2.01212e-07
-2.16119e-07
0.000109557
0.000112006
3.5094e-09
0.000112012
1.00271e-08
0.00011202
1.5387e-08
0.000112032
1.9263e-08
0.000112046
2.15339e-08
0.000112062
2.21865e-08
0.000112079
2.12887e-08
0.000112098
1.8964e-08
0.000112118
1.53773e-08
0.000112139
1.06725e-08
0.000112161
5.00733e-09
0.000112183
-1.48215e-09
0.000112205
-8.68051e-09
0.000112228
-1.64877e-08
0.000112251
-2.48245e-08
0.000112274
-3.36275e-08
0.000112297
-4.28481e-08
0.00011232
-5.24499e-08
0.000112343
-6.24077e-08
0.000112366
-7.27049e-08
0.000112389
-8.33323e-08
0.000112412
-9.42865e-08
0.000112435
-1.05568e-07
0.000112457
-1.17181e-07
0.00011248
-1.29129e-07
0.000112503
-1.41417e-07
0.000112525
-1.54045e-07
0.000112547
-1.67014e-07
0.000112569
-1.80316e-07
0.000112591
-1.9394e-07
0.000112612
-2.07864e-07
0.000112633
-2.22068e-07
-2.36491e-07
0.000112653
0.000115206
1.69802e-09
0.000115212
4.76494e-09
0.00011522
6.98366e-09
0.000115231
8.0666e-09
0.000115245
7.90981e-09
0.00011526
6.50119e-09
0.000115278
3.88924e-09
0.000115297
1.53966e-10
0.000115317
-4.53704e-09
0.000115337
-1.01154e-08
0.000115359
-1.64481e-08
0.000115381
-2.34371e-08
0.000115403
-3.09954e-08
0.000115426
-3.90511e-08
0.000115448
-4.7547e-08
0.000115471
-5.64386e-08
0.000115494
-6.56919e-08
0.000115517
-7.52826e-08
0.00011554
-8.5194e-08
0.000115562
-9.54159e-08
0.000115585
-1.05943e-07
0.000115607
-1.16774e-07
0.00011563
-1.27909e-07
0.000115652
-1.3935e-07
0.000115674
-1.51098e-07
0.000115696
-1.63154e-07
0.000115717
-1.75515e-07
0.000115738
-1.88174e-07
0.000115759
-2.01121e-07
0.00011578
-2.14338e-07
0.000115799
-2.27803e-07
0.000115819
-2.41491e-07
-2.55346e-07
0.000115838
0.000118498
-7.0249e-11
0.000118503
-3.7229e-10
0.000118511
-1.23698e-09
0.000118522
-2.91852e-09
0.000118535
-5.4988e-09
0.000118551
-8.98455e-09
0.000118568
-1.33354e-08
0.000118587
-1.84807e-08
0.000118607
-2.43256e-08
0.000118627
-3.07993e-08
0.000118649
-3.78175e-08
0.00011867
-4.53131e-08
0.000118693
-5.32304e-08
0.000118715
-6.15242e-08
0.000118738
-7.01595e-08
0.00011876
-7.91102e-08
0.000118783
-8.83577e-08
0.000118806
-9.78894e-08
0.000118828
-1.07698e-07
0.000118851
-1.17779e-07
0.000118873
-1.28133e-07
0.000118895
-1.38759e-07
0.000118917
-1.4966e-07
0.000118938
-1.60836e-07
0.000118959
-1.72286e-07
0.00011898
-1.84009e-07
0.000119001
-1.95998e-07
0.000119021
-2.08243e-07
0.00011904
-2.20731e-07
0.000119059
-2.33442e-07
0.000119078
-2.46352e-07
0.000119096
-2.59435e-07
-2.72637e-07
0.000119113
0.000121883
-1.78728e-09
0.000121888
-5.37361e-09
0.000121896
-9.26602e-09
0.000121907
-1.36943e-08
0.00012192
-1.87113e-08
0.000121935
-2.43046e-08
0.000121952
-3.04322e-08
0.000121971
-3.70399e-08
0.000121991
-4.40616e-08
0.000122011
-5.14507e-08
0.000122033
-5.91633e-08
0.000122055
-6.71643e-08
0.000122077
-7.54284e-08
0.000122099
-8.39373e-08
0.000122122
-9.2679e-08
0.000122144
-1.01647e-07
0.000122167
-1.10837e-07
0.000122189
-1.20251e-07
0.000122211
-1.2989e-07
0.000122233
-1.39757e-07
0.000122255
-1.49856e-07
0.000122276
-1.60192e-07
0.000122298
-1.70766e-07
0.000122318
-1.81581e-07
0.000122339
-1.92634e-07
0.000122359
-2.03922e-07
0.000122378
-2.15436e-07
0.000122397
-2.27166e-07
0.000122415
-2.39095e-07
0.000122433
-2.51204e-07
0.00012245
-2.63468e-07
0.000122467
-2.75861e-07
-2.88332e-07
0.000122482
0.000125365
-3.50136e-09
0.00012537
-1.03241e-08
0.000125378
-1.72192e-08
0.000125389
-2.43873e-08
0.000125402
-3.1843e-08
0.000125417
-3.95502e-08
0.000125434
-4.7465e-08
0.000125453
-5.55447e-08
0.000125472
-6.37509e-08
0.000125493
-7.20631e-08
0.000125514
-8.04701e-08
0.000125536
-8.89686e-08
0.000125558
-9.75625e-08
0.000125581
-1.0626e-07
0.000125603
-1.15073e-07
0.000125625
-1.24014e-07
0.000125648
-1.33095e-07
0.00012567
-1.4233e-07
0.000125691
-1.5173e-07
0.000125713
-1.61307e-07
0.000125734
-1.71071e-07
0.000125755
-1.81028e-07
0.000125776
-1.91184e-07
0.000125795
-2.01541e-07
0.000125815
-2.12098e-07
0.000125834
-2.2285e-07
0.000125852
-2.3379e-07
0.00012587
-2.44905e-07
0.000125887
-2.56178e-07
0.000125903
-2.67591e-07
0.000125919
-2.79118e-07
0.000125934
-2.90736e-07
-3.02395e-07
0.000125948
0.000128947
-5.05672e-09
0.000128951
-1.49965e-08
0.000128959
-2.48693e-08
0.000128969
-3.48522e-08
0.000128982
-4.48686e-08
0.000128998
-5.4812e-08
0.000129015
-6.46104e-08
0.000129034
-7.42246e-08
0.000129053
-8.3643e-08
0.000129074
-9.28787e-08
0.000129096
-1.01959e-07
0.000129118
-1.10917e-07
0.00012914
-1.1979e-07
0.000129162
-1.28618e-07
0.000129185
-1.37435e-07
0.000129207
-1.46276e-07
0.000129229
-1.55169e-07
0.000129251
-1.64143e-07
0.000129272
-1.73218e-07
0.000129293
-1.82415e-07
0.000129314
-1.91748e-07
0.000129334
-2.0123e-07
0.000129354
-2.10869e-07
0.000129373
-2.20668e-07
0.000129392
-2.30628e-07
0.00012941
-2.40744e-07
0.000129427
-2.51009e-07
0.000129443
-2.61412e-07
0.000129459
-2.71935e-07
0.000129474
-2.82561e-07
0.000129488
-2.93267e-07
0.000129501
-3.04031e-07
-3.14805e-07
0.000129514
0.000132631
-6.92686e-09
0.000132636
-1.99597e-08
0.000132644
-3.27297e-08
0.000132654
-4.5412e-08
0.000132667
-5.78884e-08
0.000132683
-7.00059e-08
0.0001327
-8.16659e-08
0.000132718
-9.28204e-08
0.000132738
-1.03468e-07
0.000132759
-1.13645e-07
0.00013278
-1.2341e-07
0.000132802
-1.32828e-07
0.000132824
-1.4197e-07
0.000132847
-1.50902e-07
0.000132869
-1.59687e-07
0.000132891
-1.68378e-07
0.000132913
-1.77025e-07
0.000132934
-1.85669e-07
0.000132955
-1.94343e-07
0.000132976
-2.03076e-07
0.000132996
-2.11891e-07
0.000133016
-2.20805e-07
0.000133035
-2.29829e-07
0.000133053
-2.38972e-07
0.000133071
-2.48234e-07
0.000133088
-2.57614e-07
0.000133104
-2.67105e-07
0.000133119
-2.76698e-07
0.000133133
-2.86376e-07
0.000133147
-2.96124e-07
0.00013316
-3.05921e-07
0.000133171
-3.15744e-07
-3.25554e-07
0.000133182
0.000136419
-7.68767e-09
0.000136423
-2.36917e-08
0.00013643
-3.97135e-08
0.00013644
-5.57268e-08
0.000136453
-7.1232e-08
0.000136469
-8.59014e-08
0.000136487
-9.96109e-08
0.000136507
-1.12351e-07
0.000136528
-1.24182e-07
0.000136549
-1.35201e-07
0.000136571
-1.45521e-07
0.000136594
-1.55259e-07
0.000136616
-1.64526e-07
0.000136639
-1.73424e-07
0.000136661
-1.82042e-07
0.000136683
-1.90457e-07
0.000136705
-1.98735e-07
0.000136726
-2.0693e-07
0.000136747
-2.15089e-07
0.000136767
-2.23248e-07
0.000136787
-2.31435e-07
0.000136805
-2.39674e-07
0.000136824
-2.47979e-07
0.000136841
-2.56361e-07
0.000136858
-2.64824e-07
0.000136873
-2.73369e-07
0.000136888
-2.8199e-07
0.000136902
-2.9068e-07
0.000136915
-2.99425e-07
0.000136927
-3.08211e-07
0.000136938
-3.1702e-07
0.000136948
-3.25833e-07
-3.34612e-07
0.000136958
0.000140319
-1.09905e-08
0.000140325
-2.92916e-08
0.000140332
-4.74859e-08
0.000140343
-6.57924e-08
0.000140355
-8.37486e-08
0.00014037
-1.00802e-07
0.000140387
-1.16636e-07
0.000140406
-1.31142e-07
0.000140426
-1.44359e-07
0.000140447
-1.56404e-07
0.000140469
-1.67429e-07
0.000140491
-1.77594e-07
0.000140514
-1.87053e-07
0.000140536
-1.95946e-07
0.000140559
-2.04394e-07
0.000140581
-2.12503e-07
0.000140602
-2.20361e-07
0.000140624
-2.28041e-07
0.000140644
-2.35604e-07
0.000140664
-2.43097e-07
0.000140683
-2.5056e-07
0.000140701
-2.5802e-07
0.000140719
-2.65501e-07
0.000140736
-2.73015e-07
0.000140751
-2.80573e-07
0.000140766
-2.88176e-07
0.00014078
-2.95823e-07
0.000140793
-3.03508e-07
0.000140805
-3.11221e-07
0.000140815
-3.18951e-07
0.000140825
-3.2668e-07
0.000140834
-3.34393e-07
-3.42057e-07
0.000140841
0.000144322
-8.01068e-09
0.000144322
-2.9996e-08
0.000144328
-5.34306e-08
0.00014434
-7.70292e-08
0.000144355
-9.9146e-08
0.000144373
-1.19174e-07
0.000144394
-1.37069e-07
0.000144416
-1.52965e-07
0.000144438
-1.67071e-07
0.000144461
-1.79626e-07
0.000144485
-1.90871e-07
0.000144508
-2.01033e-07
0.000144532
-2.10314e-07
0.000144555
-2.18888e-07
0.000144577
-2.26904e-07
0.000144599
-2.34485e-07
0.00014462
-2.41735e-07
0.000144641
-2.48739e-07
0.000144661
-2.55564e-07
0.00014468
-2.62266e-07
0.000144699
-2.68889e-07
0.000144716
-2.75466e-07
0.000144733
-2.82022e-07
0.000144748
-2.88574e-07
0.000144763
-2.95136e-07
0.000144776
-3.01711e-07
0.000144789
-3.08302e-07
0.0001448
-3.14904e-07
0.00014481
-3.21512e-07
0.00014482
-3.28114e-07
0.000144828
-3.34699e-07
0.000144834
-3.41255e-07
-3.4775e-07
0.00014484
0.000148457
-1.67952e-08
0.000148463
-3.6617e-08
0.000148469
-5.87253e-08
0.000148475
-8.36437e-08
0.000148485
-1.08916e-07
0.000148498
-1.32563e-07
0.000148515
-1.53658e-07
0.000148534
-1.72086e-07
0.000148555
-1.88073e-07
0.000148577
-2.01933e-07
0.000148601
-2.13993e-07
0.000148624
-2.2457e-07
0.000148648
-2.33944e-07
0.000148671
-2.42355e-07
0.000148694
-2.50004e-07
0.000148717
-2.57057e-07
0.000148739
-2.6365e-07
0.00014876
-2.69893e-07
0.00014878
-2.75873e-07
0.0001488
-2.8166e-07
0.000148818
-2.8731e-07
0.000148835
-2.92864e-07
0.000148852
-2.98356e-07
0.000148867
-3.03809e-07
0.000148881
-3.09239e-07
0.000148894
-3.14656e-07
0.000148906
-3.20063e-07
0.000148916
-3.25463e-07
0.000148926
-3.3085e-07
0.000148934
-3.36218e-07
0.000148941
-3.41557e-07
0.000148946
-3.46858e-07
-3.52097e-07
0.000148951
0.000152671
1.36008e-09
0.000152666
-3.14872e-08
0.000152674
-6.65983e-08
0.000152691
-1.01342e-07
0.000152714
-1.31513e-07
0.000152739
-1.57381e-07
0.000152765
-1.79393e-07
0.000152791
-1.9808e-07
0.000152816
-2.13949e-07
0.000152842
-2.27455e-07
0.000152867
-2.39021e-07
0.000152891
-2.49014e-07
0.000152915
-2.57737e-07
0.000152938
-2.65443e-07
0.000152961
-2.72338e-07
0.000152982
-2.78589e-07
0.000153003
-2.84336e-07
0.000153023
-2.89688e-07
0.000153042
-2.94735e-07
0.000153059
-2.99549e-07
0.000153076
-3.04186e-07
0.000153092
-3.08691e-07
0.000153107
-3.13098e-07
0.00015312
-3.17434e-07
0.000153133
-3.21716e-07
0.000153144
-3.25958e-07
0.000153154
-3.30167e-07
0.000153163
-3.34346e-07
0.000153171
-3.38494e-07
0.000153177
-3.42607e-07
0.000153182
-3.46679e-07
0.000153186
-3.50703e-07
-3.54659e-07
0.000153189
0.000157077
-2.41864e-08
0.000157076
-3.05302e-08
0.000157063
-5.36665e-08
0.000157055
-9.27416e-08
0.000157055
-1.32391e-07
0.000157066
-1.6759e-07
0.000157082
-1.96228e-07
0.000157104
-2.19403e-07
0.000157128
-2.38217e-07
0.000157154
-2.53497e-07
0.000157181
-2.65965e-07
0.000157208
-2.76226e-07
0.000157235
-2.8476e-07
0.000157262
-2.91951e-07
0.000157288
-2.98098e-07
0.000157312
-3.03436e-07
0.000157336
-3.08149e-07
0.000157359
-3.1238e-07
0.00015738
-3.16243e-07
0.000157401
-3.19824e-07
0.00015742
-3.23192e-07
0.000157437
-3.26399e-07
0.000157454
-3.29484e-07
0.000157469
-3.32479e-07
0.000157482
-3.35406e-07
0.000157495
-3.38279e-07
0.000157506
-3.4111e-07
0.000157515
-3.43903e-07
0.000157523
-3.46663e-07
0.00015753
-3.49387e-07
0.000157536
-3.52073e-07
0.00015754
-3.54719e-07
-3.57308e-07
0.000157542
0.00016147
4.45879e-08
0.000161456
-1.67489e-08
0.000161492
-8.96205e-08
0.000161534
-1.35363e-07
0.000161576
-1.74105e-07
0.000161613
-2.04046e-07
0.000161645
-2.28546e-07
0.000161674
-2.48811e-07
0.000161702
-2.65385e-07
0.000161727
-2.78971e-07
0.000161751
-2.90185e-07
0.000161774
-2.9949e-07
0.000161797
-3.07255e-07
0.000161819
-3.13779e-07
0.00016184
-3.19305e-07
0.000161861
-3.24024e-07
0.000161881
-3.28093e-07
0.0001619
-3.31637e-07
0.000161918
-3.34757e-07
0.000161936
-3.37535e-07
0.000161953
-3.40035e-07
0.000161969
-3.42311e-07
0.000161984
-3.44406e-07
0.000161998
-3.46352e-07
0.00016201
-3.48176e-07
0.000162022
-3.49898e-07
0.000162032
-3.51534e-07
0.000162042
-3.53094e-07
0.000162049
-3.54585e-07
0.000162056
-3.56009e-07
0.000162061
-3.57368e-07
0.000162065
-3.5866e-07
-3.59879e-07
0.000162068
0.00016619
7.74338e-09
0.000166126
4.73144e-08
0.000166046
-9.03568e-09
0.000165989
-7.89013e-08
0.000165976
-1.60997e-07
0.000165989
-2.16862e-07
0.000166017
-2.5654e-07
0.000166053
-2.85086e-07
0.000166094
-3.06232e-07
0.000166137
-3.22157e-07
0.000166181
-3.34248e-07
0.000166225
-3.43499e-07
0.000166269
-3.50621e-07
0.000166311
-3.56125e-07
0.000166352
-3.60386e-07
0.000166392
-3.6368e-07
0.00016643
-3.66217e-07
0.000166466
-3.68154e-07
0.000166501
-3.69615e-07
0.000166535
-3.70695e-07
0.000166566
-3.71469e-07
0.000166596
-3.71997e-07
0.000166624