/*--------------------------------*- C++ -*----------------------------------*\
  =========                 |
  \\      /  F ield         | OpenFOAM: The Open Source CFD Toolbox
   \\    /   O peration     | Website:  https://openfoam.org
    \\  /    A nd           | Version:  10
     \\/     M anipulation  |
\*---------------------------------------------------------------------------*/
FoamFile
{
    format      ascii;
    class       volVectorField;
    location    "0.14";
    object      U;
}
// * * * * * * * * * * * * * * * * * * * * * * * * * * * * * * * * * * * * * //

dimensions      [0 1 -1 0 0 0 0];

internalField   nonuniform List<vector> 
6820
(
(7.33663 -0.254711 0)
(7.37113 -0.152747 0)
(7.32905 -0.0594731 0)
(7.25224 -0.0117264 0)
(7.1749 0.00795675 0)
(7.10511 0.0139561 0)
(7.04413 0.0144399 0)
(6.99137 0.0130585 0)
(6.94538 0.0113032 0)
(6.90475 0.00972119 0)
(6.86841 0.00845263 0)
(6.83554 0.00748468 0)
(6.80555 0.00676094 0)
(6.77797 0.00622201 0)
(6.75247 0.00581822 0)
(6.72877 0.00551178 0)
(6.70666 0.00527516 0)
(6.68597 0.00508898 0)
(6.66655 0.00494005 0)
(6.64827 0.00481985 0)
(6.63102 0.00472352 0)
(6.61469 0.00464952 0)
(6.59918 0.00459979 0)
(6.58438 0.00458113 0)
(6.57016 0.00460734 0)
(6.55636 0.00470721 0)
(6.54271 0.00494006 0)
(6.52888 0.00538321 0)
(6.51393 0.00655641 0)
(6.49694 0.00771766 0)
(6.47412 0.0159319 0)
(6.43586 0.0176508 0)
(6.39141 0.0408839 0)
(7.32387 0.121384 0)
(7.3044 0.123268 0)
(7.30897 0.0779526 0)
(7.32921 0.0527678 0)
(7.34731 0.0391625 0)
(7.3554 0.0313506 0)
(7.35445 0.0268906 0)
(7.34739 0.0241358 0)
(7.3365 0.0222287 0)
(7.32336 0.0207778 0)
(7.30901 0.0195878 0)
(7.29414 0.0185581 0)
(7.27914 0.0176384 0)
(7.26426 0.0168023 0)
(7.24964 0.0160349 0)
(7.23537 0.0153271 0)
(7.2215 0.0146727 0)
(7.20805 0.0140674 0)
(7.19502 0.0135083 0)
(7.18242 0.0129936 0)
(7.17024 0.0125236 0)
(7.15846 0.0121001 0)
(7.14707 0.0117287 0)
(7.13605 0.0114202 0)
(7.12538 0.0111939 0)
(7.11503 0.0110914 0)
(7.10503 0.0111706 0)
(7.09524 0.0116201 0)
(7.08638 0.0125987 0)
(7.0771 0.0150507 0)
(7.07376 0.0197985 0)
(7.06918 0.0301118 0)
(7.09742 0.0550556 0)
(7.32565 -0.0437948 0)
(7.32325 -0.0517412 0)
(7.33518 -0.0262149 0)
(7.34304 -0.00274271 0)
(7.34799 0.0103971 0)
(7.35222 0.0168382 0)
(7.35526 0.0198993 0)
(7.35685 0.0211746 0)
(7.35696 0.0215057 0)
(7.35573 0.0213658 0)
(7.35338 0.0210017 0)
(7.35015 0.0205402 0)
(7.34624 0.0200469 0)
(7.34181 0.0195548 0)
(7.33702 0.0190791 0)
(7.33195 0.0186262 0)
(7.3267 0.0181985 0)
(7.32133 0.0177964 0)
(7.31589 0.0174204 0)
(7.31043 0.0170712 0)
(7.30496 0.0167511 0)
(7.29951 0.0164642 0)
(7.29409 0.0162182 0)
(7.2887 0.0160256 0)
(7.28334 0.0159086 0)
(7.27798 0.0158987 0)
(7.27264 0.0160708 0)
(7.26723 0.0164696 0)
(7.26193 0.0174534 0)
(7.25634 0.0186691 0)
(7.25182 0.0222098 0)
(7.24724 0.0237868 0)
(7.24631 0.0316142 0)
(7.33338 0.0117842 0)
(7.33036 0.0329033 0)
(7.32957 0.0333274 0)
(7.33259 0.0276099 0)
(7.33803 0.0242125 0)
(7.34359 0.0227269 0)
(7.34825 0.0221548 0)
(7.35196 0.0219163 0)
(7.35483 0.0217547 0)
(7.35691 0.0215879 0)
(7.35831 0.0213903 0)
(7.3591 0.0211561 0)
(7.35938 0.0208891 0)
(7.35923 0.0205965 0)
(7.35872 0.0202857 0)
(7.35791 0.0199636 0)
(7.35686 0.0196365 0)
(7.35561 0.01931 0)
(7.3542 0.0189895 0)
(7.35266 0.0186805 0)
(7.35101 0.0183898 0)
(7.34927 0.018126 0)
(7.34746 0.0179011 0)
(7.34558 0.0177326 0)
(7.34364 0.017648 0)
(7.34163 0.0176859 0)
(7.33959 0.0179185 0)
(7.33746 0.0184236 0)
(7.33543 0.0194259 0)
(7.33341 0.0209514 0)
(7.33221 0.0238286 0)
(7.33196 0.027142 0)
(7.33452 0.0333423 0)
(7.33122 -0.00352704 0)
(7.33004 -0.00434157 0)
(7.33361 0.00124561 0)
(7.33721 0.00868528 0)
(7.34052 0.0140407 0)
(7.34382 0.017035 0)
(7.34702 0.0186605 0)
(7.35006 0.0195601 0)
(7.35286 0.0200385 0)
(7.35538 0.020266 0)
(7.3576 0.0203384 0)
(7.35952 0.0203088 0)
(7.36117 0.0202103 0)
(7.36256 0.0200645 0)
(7.36371 0.019886 0)
(7.36467 0.0196851 0)
(7.36544 0.0194698 0)
(7.36605 0.0192467 0)
(7.36652 0.019022 0)
(7.36687 0.0188023 0)
(7.36712 0.0185952 0)
(7.36727 0.0184105 0)
(7.36734 0.0182612 0)
(7.36733 0.0181657 0)
(7.36726 0.0181513 0)
(7.36713 0.0182539 0)
(7.36697 0.018536 0)
(7.36679 0.0190553 0)
(7.36672 0.0199687 0)
(7.36683 0.0212531 0)
(7.36757 0.0233174 0)
(7.36919 0.0253948 0)
(7.37226 0.0281163 0)
(7.33264 0.00207621 0)
(7.33223 0.00988995 0)
(7.33394 0.0140767 0)
(7.33645 0.0159374 0)
(7.33946 0.0170327 0)
(7.34267 0.0177937 0)
(7.34576 0.0183874 0)
(7.34865 0.0188331 0)
(7.35136 0.0191293 0)
(7.35389 0.0193049 0)
(7.35625 0.0193897 0)
(7.35844 0.0194041 0)
(7.36049 0.0193635 0)
(7.36239 0.0192801 0)
(7.36416 0.019163 0)
(7.36581 0.0190198 0)
(7.36734 0.0188573 0)
(7.36877 0.0186817 0)
(7.3701 0.0184993 0)
(7.37135 0.018317 0)
(7.37252 0.0181432 0)
(7.37361 0.0179879 0)
(7.37465 0.0178649 0)
(7.37563 0.0177921 0)
(7.37657 0.0177947 0)
(7.37747 0.0179049 0)
(7.37839 0.0181718 0)
(7.37934 0.0186402 0)
(7.38044 0.0194024 0)
(7.38179 0.0204455 0)
(7.38369 0.0219168 0)
(7.38637 0.0234168 0)
(7.39006 0.0250135 0)
(7.33258 0.000824749 0)
(7.33243 0.00449905 0)
(7.33428 0.00803907 0)
(7.33689 0.011228 0)
(7.3397 0.0137985 0)
(7.34255 0.0155553 0)
(7.34529 0.0166885 0)
(7.3479 0.0174119 0)
(7.3504 0.0178605 0)
(7.35279 0.0181269 0)
(7.35508 0.0182709 0)
(7.35728 0.0183284 0)
(7.3594 0.0183225 0)
(7.36144 0.0182689 0)
(7.3634 0.018179 0)
(7.36529 0.0180611 0)
(7.36712 0.0179224 0)
(7.36888 0.0177692 0)
(7.37059 0.0176077 0)
(7.37225 0.0174448 0)
(7.37386 0.0172884 0)
(7.37543 0.0171484 0)
(7.37696 0.0170374 0)
(7.37847 0.0169717 0)
(7.37996 0.0169726 0)
(7.38145 0.017066 0)
(7.38298 0.0172869 0)
(7.38459 0.0176642 0)
(7.38638 0.0182443 0)
(7.38844 0.0190037 0)
(7.39095 0.019963 0)
(7.39408 0.0208638 0)
(7.3979 0.0215678 0)
(7.33284 0.00132775 0)
(7.33301 0.00533668 0)
(7.33458 0.00887705 0)
(7.33682 0.0115488 0)
(7.33932 0.0135058 0)
(7.34196 0.0148492 0)
(7.34456 0.0157641 0)
(7.34707 0.0163907 0)
(7.34948 0.0168047 0)
(7.35179 0.0170629 0)
(7.35403 0.0172084 0)
(7.35619 0.0172705 0)
(7.35829 0.0172698 0)
(7.36034 0.017221 0)
(7.36234 0.017135 0)
(7.3643 0.0170202 0)
(7.36623 0.0168833 0)
(7.36812 0.0167306 0)
(7.36998 0.0165682 0)
(7.37182 0.0164027 0)
(7.37363 0.0162416 0)
(7.37543 0.0160939 0)
(7.37721 0.0159708 0)
(7.37899 0.0158859 0)
(7.38078 0.0158563 0)
(7.3826 0.0159009 0)
(7.38449 0.0160421 0)
(7.38648 0.0162952 0)
(7.38866 0.0166761 0)
(7.3911 0.0171542 0)
(7.39392 0.0176965 0)
(7.39722 0.0181304 0)
(7.401 0.0183013 0)
(7.33291 0.00132542 0)
(7.33321 0.00465453 0)
(7.33461 0.00767778 0)
(7.33665 0.0101269 0)
(7.33898 0.012068 0)
(7.34143 0.0134987 0)
(7.34389 0.0145069 0)
(7.34628 0.0152014 0)
(7.34859 0.0156614 0)
(7.35084 0.0159494 0)
(7.35301 0.0161128 0)
(7.35513 0.0161845 0)
(7.3572 0.0161871 0)
(7.35923 0.0161371 0)
(7.36122 0.0160464 0)
(7.36319 0.0159241 0)
(7.36514 0.0157777 0)
(7.36707 0.0156135 0)
(7.36899 0.0154377 0)
(7.37089 0.0152566 0)
(7.37279 0.0150771 0)
(7.37469 0.0149072 0)
(7.3766 0.0147562 0)
(7.37852 0.014635 0)
(7.38047 0.0145559 0)
(7.38247 0.0145314 0)
(7.38456 0.0145735 0)
(7.38676 0.0146865 0)
(7.38915 0.0148676 0)
(7.39178 0.0150824 0)
(7.39471 0.0152794 0)
(7.39802 0.0153373 0)
(7.40165 0.0151272 0)
(7.33297 0.00130102 0)
(7.33335 0.00429635 0)
(7.33462 0.00707377 0)
(7.33646 0.00935364 0)
(7.33858 0.0111544 0)
(7.34085 0.012493 0)
(7.34316 0.0134493 0)
(7.34545 0.014119 0)
(7.34768 0.0145713 0)
(7.34986 0.0148592 0)
(7.35199 0.0150236 0)
(7.35407 0.0150945 0)
(7.35611 0.0150934 0)
(7.35811 0.0150363 0)
(7.36009 0.0149355 0)
(7.36205 0.0148002 0)
(7.364 0.0146379 0)
(7.36594 0.0144553 0)
(7.36786 0.0142582 0)
(7.36979 0.0140527 0)
(7.37172 0.0138449 0)
(7.37367 0.0136417 0)
(7.37563 0.0134505 0)
(7.37762 0.0132791 0)
(7.37965 0.0131358 0)
(7.38175 0.0130273 0)
(7.38394 0.0129577 0)
(7.38625 0.0129234 0)
(7.38873 0.0129116 0)
(7.39142 0.0128871 0)
(7.39436 0.0127977 0)
(7.39758 0.0125559 0)
(7.40104 0.0120672 0)
(7.333 0.00123835 0)
(7.33341 0.00391053 0)
(7.33456 0.00639323 0)
(7.33623 0.00846521 0)
(7.33817 0.0101308 0)
(7.34028 0.0114047 0)
(7.34246 0.0123391 0)
(7.34464 0.0130051 0)
(7.34679 0.0134606 0)
(7.3489 0.0137523 0)
(7.35098 0.0139184 0)
(7.35302 0.0139875 0)
(7.35503 0.013981 0)
(7.35701 0.0139149 0)
(7.35896 0.0138015 0)
(7.36091 0.0136503 0)
(7.36284 0.0134689 0)
(7.36477 0.0132638 0)
(7.3667 0.0130408 0)
(7.36863 0.0128055 0)
(7.37057 0.0125632 0)
(7.37253 0.0123194 0)
(7.37451 0.0120797 0)
(7.37653 0.0118493 0)
(7.3786 0.0116326 0)
(7.38074 0.011432 0)
(7.38298 0.0112458 0)
(7.38533 0.0110655 0)
(7.38783 0.0108734 0)
(7.39051 0.0106366 0)
(7.3934 0.0103088 0)
(7.39649 0.00982577 0)
(7.39975 0.00912201 0)
(7.33302 0.00115391 0)
(7.33344 0.00354933 0)
(7.33449 0.00578063 0)
(7.336 0.00767235 0)
(7.33778 0.00921064 0)
(7.33974 0.0104048 0)
(7.34179 0.0112929 0)
(7.34386 0.0119318 0)
(7.34593 0.0123716 0)
(7.34797 0.0126536 0)
(7.34999 0.0128118 0)
(7.35199 0.0128725 0)
(7.35396 0.0128557 0)
(7.35591 0.0127769 0)
(7.35785 0.0126479 0)
(7.35977 0.012478 0)
(7.36169 0.0122748 0)
(7.3636 0.0120445 0)
(7.36552 0.0117924 0)
(7.36744 0.0115236 0)
(7.36938 0.0112424 0)
(7.37134 0.0109532 0)
(7.37333 0.0106597 0)
(7.37536 0.0103646 0)
(7.37744 0.0100696 0)
(7.37959 0.00977342 0)
(7.38183 0.00947089 0)
(7.38418 0.00915069 0)
(7.38666 0.0087938 0)
(7.38929 0.00837095 0)
(7.39208 0.00784359 0)
(7.39502 0.00716471 0)
(7.39809 0.00628992 0)
(7.33303 0.0010591 0)
(7.33344 0.00320479 0)
(7.3344 0.00520191 0)
(7.33578 0.00691444 0)
(7.33742 0.00832085 0)
(7.33924 0.00942739 0)
(7.34116 0.0102617 0)
(7.34313 0.0108676 0)
(7.34511 0.0112864 0)
(7.34709 0.0115537 0)
(7.34905 0.0116995 0)
(7.351 0.0117479 0)
(7.35293 0.0117175 0)
(7.35485 0.011623 0)
(7.35675 0.0114759 0)
(7.35865 0.011285 0)
(7.36055 0.0110576 0)
(7.36244 0.0107997 0)
(7.36434 0.0105161 0)
(7.36626 0.010211 0)
(7.36818 0.00988801 0)
(7.37013 0.00955014 0)
(7.37211 0.00919952 0)
(7.37414 0.00883707 0)
(7.37621 0.00846195 0)
(7.37836 0.0080706 0)
(7.38058 0.00765572 0)
(7.3829 0.00720493 0)
(7.38533 0.00669988 0)
(7.38788 0.00611543 0)
(7.39055 0.00542071 0)
(7.39334 0.00458119 0)
(7.39622 0.00356725 0)
(7.33303 0.000960308 0)
(7.33342 0.00287692 0)
(7.3343 0.00465853 0)
(7.33557 0.00620043 0)
(7.33708 0.00747764 0)
(7.33878 0.00849253 0)
(7.34058 0.00926484 0)
(7.34245 0.00982813 0)
(7.34435 0.0102168 0)
(7.34625 0.0104613 0)
(7.34816 0.010588 0)
(7.35005 0.0106186 0)
(7.35194 0.0105703 0)
(7.35382 0.0104566 0)
(7.3557 0.0102883 0)
(7.35757 0.010074 0)
(7.35944 0.00982021 0)
(7.36131 0.00953249 0)
(7.36319 0.00921516 0)
(7.36508 0.00887171 0)
(7.36699 0.00850484 0)
(7.36893 0.00811637 0)
(7.37089 0.00770709 0)
(7.3729 0.00727638 0)
(7.37495 0.00682176 0)
(7.37707 0.00633817 0)
(7.37925 0.00581729 0)
(7.38152 0.00524683 0)
(7.38388 0.00461009 0)
(7.38634 0.00388609 0)
(7.38889 0.00305063 0)
(7.39153 0.0020783 0)
(7.39423 0.000949561 0)
(7.33303 0.000861359 0)
(7.3334 0.0025648 0)
(7.33421 0.00414579 0)
(7.33537 0.00552318 0)
(7.33677 0.00667166 0)
(7.33836 0.00759057 0)
(7.34006 0.00829393 0)
(7.34183 0.00880743 0)
(7.34364 0.00915908 0)
(7.34548 0.0093747 0)
(7.34732 0.00947711 0)
(7.34917 0.0094855 0)
(7.35101 0.00941546 0)
(7.35285 0.00927946 0)
(7.35469 0.00908744 0)
(7.35653 0.00884725 0)
(7.35837 0.00856507 0)
(7.36022 0.00824575 0)
(7.36207 0.00789304 0)
(7.36394 0.00750973 0)
(7.36582 0.00709765 0)
(7.36773 0.00665767 0)
(7.36967 0.00618947 0)
(7.37164 0.00569128 0)
(7.37366 0.00515953 0)
(7.37574 0.00458837 0)
(7.37788 0.00396927 0)
(7.38008 0.00329067 0)
(7.38236 0.002538 0)
(7.38471 0.00169406 0)
(7.38714 0.000740126 0)
(7.38963 -0.000342502 0)
(7.39216 -0.0015666 0)
(7.33303 0.000764363 0)
(7.33338 0.00226754 0)
(7.33413 0.00366049 0)
(7.3352 0.00487957 0)
(7.3365 0.00590081 0)
(7.33797 0.0067212 0)
(7.33958 0.00735037 0)
(7.34126 0.00780778 0)
(7.34299 0.008116 0)
(7.34476 0.00829672 0)
(7.34654 0.00836949 0)
(7.34833 0.00835115 0)
(7.35013 0.00825561 0)
(7.35193 0.00809413 0)
(7.35373 0.00787574 0)
(7.35553 0.00760755 0)
(7.35734 0.00729511 0)
(7.35916 0.00694267 0)
(7.36098 0.00655336 0)
(7.36282 0.00612926 0)
(7.36467 0.00567147 0)
(7.36655 0.00518003 0)
(7.36845 0.00465379 0)
(7.37039 0.00409019 0)
(7.37237 0.00348501 0)
(7.37439 0.00283216 0)
(7.37646 0.00212338 0)
(7.37859 0.00134827 0)
(7.38078 0.000494397 0)
(7.38303 -0.000452103 0)
(7.38532 -0.00150561 0)
(7.38766 -0.00267994 0)
(7.39003 -0.00398325 0)
(7.33303 0.000670384 0)
(7.33335 0.00198415 0)
(7.33405 0.00319961 0)
(7.33504 0.00426597 0)
(7.33625 0.0051614 0)
(7.33763 0.00588125 0)
(7.33914 0.0064318 0)
(7.34074 0.00682767 0)
(7.3424 0.00708689 0)
(7.34409 0.00722741 0)
(7.34582 0.00726583 0)
(7.34755 0.00721669 0)
(7.3493 0.00709221 0)
(7.35106 0.0069024 0)
(7.35282 0.00665529 0)
(7.35458 0.0063572 0)
(7.35636 0.00601302 0)
(7.35814 0.00562636 0)
(7.35992 0.0051997 0)
(7.36173 0.00473452 0)
(7.36354 0.00423126 0)
(7.36538 0.00368932 0)
(7.36725 0.00310692 0)
(7.36914 0.00248102 0)
(7.37106 0.00180715 0)
(7.37302 0.00107928 0)
(7.37503 0.000289799 0)
(7.37708 -0.000570444 0)
(7.37917 -0.00151182 0)
(7.3813 -0.00254541 0)
(7.38346 -0.00368218 0)
(7.38566 -0.00493236 0)
(7.38787 -0.00630099 0)
(7.33303 0.000579854 0)
(7.33333 0.00171355 0)
(7.33397 0.00276044 0)
(7.33489 0.00367923 0)
(7.33602 0.00445045 0)
(7.33732 0.00506843 0)
(7.33875 0.0055369 0)
(7.34027 0.00586672 0)
(7.34185 0.00607208 0)
(7.34348 0.00616769 0)
(7.34515 0.00616745 0)
(7.34683 0.00608375 0)
(7.34853 0.00592717 0)
(7.35024 0.00570642 0)
(7.35196 0.00542851 0)
(7.35368 0.00509895 0)
(7.35542 0.0047219 0)
(7.35716 0.00430032 0)
(7.35891 0.00383613 0)
(7.36067 0.00333019 0)
(7.36245 0.00278243 0)
(7.36424 0.00219174 0)
(7.36605 0.00155593 0)
(7.36789 0.00087173 0)
(7.36976 0.000134652 0)
(7.37165 -0.000660997 0)
(7.37358 -0.00152207 0)
(7.37553 -0.00245641 0)
(7.37752 -0.00347258 0)
(7.37954 -0.00457932 0)
(7.38157 -0.00578501 0)
(7.38363 -0.00709718 0)
(7.38568 -0.00851874 0)
(7.33303 0.000492836 0)
(7.33331 0.00145466 0)
(7.33391 0.00234055 0)
(7.33476 0.0031164 0)
(7.33582 0.00376502 0)
(7.33704 0.00428022 0)
(7.33839 0.00466383 0)
(7.33984 0.00492373 0)
(7.34135 0.00507101 0)
(7.34292 0.00511752 0)
(7.34453 0.00507475 0)
(7.34616 0.00495311 0)
(7.34781 0.00476156 0)
(7.34947 0.00450756 0)
(7.35115 0.00419708 0)
(7.35283 0.00383479 0)
(7.35452 0.00342411 0)
(7.35622 0.00296739 0)
(7.35793 0.00246596 0)
(7.35964 0.00192021 0)
(7.36137 0.00132959 0)
(7.36312 0.000692635 0)
(7.36488 6.93634e-06 0)
(7.36666 -0.000730866 0)
(7.36845 -0.00152508 0)
(7.37027 -0.00238093 0)
(7.37212 -0.00330444 0)
(7.37398 -0.00430225 0)
(7.37586 -0.00538131 0)
(7.37776 -0.0065485 0)
(7.37967 -0.00781015 0)
(7.38158 -0.00917186 0)
(7.38349 -0.010635 0)
(7.33302 0.000409188 0)
(7.33329 0.00120635 0)
(7.33385 0.00193775 0)
(7.33465 0.00257481 0)
(7.33564 0.00310245 0)
(7.33679 0.00351436 0)
(7.33807 0.00381096 0)
(7.33945 0.00399785 0)
(7.3409 0.00408354 0)
(7.34241 0.00407746 0)
(7.34396 0.0039889 0)
(7.34554 0.00382647 0)
(7.34714 0.0035976 0)
(7.34875 0.0033085 0)
(7.35038 0.00296414 0)
(7.35202 0.00256831 0)
(7.35367 0.00212374 0)
(7.35532 0.00163216 0)
(7.35698 0.00109438 0)
(7.35865 0.000510341 0)
(7.36033 -0.00012086 0)
(7.36202 -0.000800936 0)
(7.36372 -0.0015324 0)
(7.36543 -0.00231856 0)
(7.36716 -0.00316344 0)
(7.3689 -0.00407172 0)
(7.37065 -0.00504862 0)
(7.37242 -0.00609966 0)
(7.37419 -0.00723047 0)
(7.37597 -0.00844639 0)
(7.37775 -0.0097522 0)
(7.37953 -0.011152 0)
(7.3813 -0.0126462 0)
(7.33302 0.000328661 0)
(7.33327 0.000967518 0)
(7.33379 0.00155002 0)
(7.33454 0.00205192 0)
(7.33548 0.00246007 0)
(7.33657 0.00276826 0)
(7.33778 0.00297599 0)
(7.3391 0.00308703 0)
(7.34049 0.00310791 0)
(7.34194 0.00304593 0)
(7.34343 0.00290853 0)
(7.34496 0.00270263 0)
(7.34651 0.00243425 0)
(7.34808 0.00210842 0)
(7.34967 0.00172909 0)
(7.35126 0.00129923 0)
(7.35286 0.000820879 0)
(7.35447 0.000295167 0)
(7.35608 -0.000277575 0)
(7.3577 -0.000897798 0)
(7.35932 -0.00156668 0)
(7.36095 -0.00228611 0)
(7.36259 -0.00305861 0)
(7.36423 -0.00388735 0)
(7.36588 -0.00477602 0)
(7.36754 -0.00572874 0)
(7.3692 -0.00674997 0)
(7.37086 -0.00784428 0)
(7.37253 -0.00901615 0)
(7.37419 -0.0102697 0)
(7.37584 -0.0116086 0)
(7.37749 -0.0130357 0)
(7.37911 -0.0145507 0)
(7.33302 0.00025096 0)
(7.33325 0.000737128 0)
(7.33375 0.00117558 0)
(7.33445 0.00154562 0)
(7.33533 0.00183586 0)
(7.33637 0.00204047 0)
(7.33752 0.00215832 0)
(7.33878 0.00219188 0)
(7.34012 0.00214599 0)
(7.34151 0.00202602 0)
(7.34296 0.00183782 0)
(7.34443 0.00158682 0)
(7.34594 0.00127767 0)
(7.34746 0.000914267 0)
(7.349 0.000499625 0)
(7.35054 3.58956e-05 0)
(7.35209 -0.000475562 0)
(7.35365 -0.00103415 0)
(7.35521 -0.00163998 0)
(7.35678 -0.00229383 0)
(7.35834 -0.0029971 0)
(7.35991 -0.00375176 0)
(7.36148 -0.0045603 0)
(7.36305 -0.00542567 0)
(7.36462 -0.00635122 0)
(7.36619 -0.00734054 0)
(7.36776 -0.0083974 0)
(7.36932 -0.00952552 0)
(7.37087 -0.0107285 0)
(7.37242 -0.0120094 0)
(7.37395 -0.013371 0)
(7.37546 -0.0148154 0)
(7.37694 -0.0163416 0)
(7.33302 0.000175769 0)
(7.33324 0.000514106 0)
(7.3337 0.000812494 0)
(7.33437 0.0010531 0)
(7.33521 0.0012261 0)
(7.33619 0.0013262 0)
(7.33729 0.00135203 0)
(7.3385 0.00130478 0)
(7.33978 0.00118893 0)
(7.34113 0.00100802 0)
(7.34252 0.000766302 0)
(7.34395 0.000467893 0)
(7.34541 0.000116331 0)
(7.34688 -0.000285609 0)
(7.34837 -0.00073585 0)
(7.34987 -0.00123302 0)
(7.35137 -0.00177642 0)
(7.35288 -0.00236599 0)
(7.35439 -0.00300227 0)
(7.35589 -0.00368634 0)
(7.3574 -0.00441978 0)
(7.3589 -0.00520463 0)
(7.3604 -0.0060433 0)
(7.36189 -0.00693856 0)
(7.36338 -0.00789337 0)
(7.36486 -0.00891087 0)
(7.36634 -0.00999422 0)
(7.3678 -0.0111464 0)
(7.36924 -0.0123703 0)
(7.37067 -0.0136683 0)
(7.37208 -0.0150423 0)
(7.37346 -0.0164938 0)
(7.37481 -0.0180214 0)
(7.33302 0.000102822 0)
(7.33322 0.000297779 0)
(7.33366 0.000460068 0)
(7.3343 0.000574476 0)
(7.33509 0.000632765 0)
(7.33603 0.000630399 0)
(7.33709 0.000565717 0)
(7.33824 0.000440062 0)
(7.33948 0.000254338 0)
(7.34078 1.23892e-05 0)
(7.34212 -0.000282711 0)
(7.34351 -0.000628336 0)
(7.34492 -0.00102211 0)
(7.34635 -0.00146223 0)
(7.34779 -0.00194748 0)
(7.34924 -0.00247719 0)
(7.3507 -0.00305124 0)
(7.35215 -0.00367005 0)
(7.3536 -0.00433449 0)
(7.35505 -0.00504588 0)
(7.35649 -0.00580592 0)
(7.35793 -0.00661666 0)
(7.35936 -0.00748042 0)
(7.36077 -0.00839973 0)
(7.36218 -0.00937725 0)
(7.36357 -0.0104156 0)
(7.36495 -0.0115176 0)
(7.3663 -0.0126855 0)
(7.36764 -0.0139215 0)
(7.36895 -0.0152275 0)
(7.37024 -0.0166049 0)
(7.37149 -0.0180545 0)
(7.37271 -0.0195749 0)
(7.33302 3.1704e-05 0)
(7.33321 8.64058e-05 0)
(7.33363 0.000113996 0)
(7.33423 0.000101092 0)
(7.33499 4.10457e-05 0)
(7.33589 -6.94081e-05 0)
(7.33691 -0.000231228 0)
(7.33802 -0.000442982 0)
(7.33921 -0.000704271 0)
(7.34047 -0.00101208 0)
(7.34177 -0.00136441 0)
(7.34311 -0.00175975 0)
(7.34448 -0.00219692 0)
(7.34586 -0.00267514 0)
(7.34726 -0.00319411 0)
(7.34866 -0.00375399 0)
(7.35007 -0.00435534 0)
(7.35147 -0.00499912 0)
(7.35287 -0.00568661 0)
(7.35425 -0.00641943 0)
(7.35563 -0.00719944 0)
(7.357 -0.00802874 0)
(7.35835 -0.00890956 0)
(7.35969 -0.00984426 0)
(7.36101 -0.0108352 0)
(7.36232 -0.0118847 0)
(7.3636 -0.012995 0)
(7.36485 -0.0141681 0)
(7.36608 -0.0154056 0)
(7.36728 -0.0167089 0)
(7.36844 -0.0180789 0)
(7.36957 -0.0195162 0)
(7.37067 -0.021019 0)
(7.33302 -3.74061e-05 0)
(7.3332 -0.000117749 0)
(7.3336 -0.000217792 0)
(7.33417 -0.000348795 0)
(7.33489 -0.000516214 0)
(7.33576 -0.000723163 0)
(7.33674 -0.000971007 0)
(7.33781 -0.00126014 0)
(7.33897 -0.00158872 0)
(7.34019 -0.00195632 0)
(7.34145 -0.00236201 0)
(7.34276 -0.00280492 0)
(7.34408 -0.00328457 0)
(7.34543 -0.00380087 0)
(7.34678 -0.00435412 0)
(7.34814 -0.00494496 0)
(7.34949 -0.00557438 0)
(7.35084 -0.00624365 0)
(7.35218 -0.00695431 0)
(7.35351 -0.00770809 0)
(7.35483 -0.00850695 0)
(7.35613 -0.00935294 0)
(7.35741 -0.0102482 0)
(7.35867 -0.0111949 0)
(7.3599 -0.0121952 0)
(7.36111 -0.013251 0)
(7.3623 -0.0143642 0)
(7.36345 -0.0155365 0)
(7.36458 -0.0167691 0)
(7.36566 -0.018063 0)
(7.36671 -0.0194187 0)
(7.36772 -0.0208368 0)
(7.36869 -0.0223151 0)
(7.33302 -0.000105865 0)
(7.33319 -0.000324767 0)
(7.33357 -0.000564501 0)
(7.33413 -0.000834406 0)
(7.33483 -0.00113568 0)
(7.33566 -0.00146697 0)
(7.33661 -0.00182656 0)
(7.33765 -0.00221301 0)
(7.33877 -0.00262534 0)
(7.33995 -0.00306351 0)
(7.34118 -0.00352778 0)
(7.34245 -0.00401885 0)
(7.34373 -0.00453783 0)
(7.34504 -0.00508607 0)
(7.34635 -0.00566513 0)
(7.34766 -0.00627673 0)
(7.34896 -0.00692271 0)
(7.35026 -0.00760503 0)
(7.35155 -0.00832571 0)
(7.35282 -0.00908686 0)
(7.35407 -0.00989061 0)
(7.3553 -0.0107391 0)
(7.35651 -0.0116345 0)
(7.35769 -0.0125787 0)
(7.35884 -0.0135738 0)
(7.35996 -0.0146215 0)
(7.36106 -0.0157233 0)
(7.36211 -0.0168805 0)
(7.36313 -0.0180941 0)
(7.36411 -0.0193648 0)
(7.36505 -0.020693 0)
(7.36594 -0.0220786 0)
(7.36679 -0.0235198 0)
(7.33301 -0.000169256 0)
(7.33317 -0.000503172 0)
(7.33353 -0.000842319 0)
(7.33405 -0.00119845 0)
(7.33472 -0.00157679 0)
(7.33552 -0.00197965 0)
(7.33645 -0.00240756 0)
(7.33747 -0.00285985 0)
(7.33857 -0.00333546 0)
(7.33974 -0.00383377 0)
(7.34094 -0.00435464 0)
(7.34218 -0.00489841 0)
(7.34344 -0.00546593 0)
(7.34471 -0.00605841 0)
(7.34598 -0.00667738 0)
(7.34725 -0.0073246 0)
(7.34851 -0.00800201 0)
(7.34976 -0.00871166 0)
(7.35099 -0.00945568 0)
(7.35221 -0.0102363 0)
(7.35339 -0.0110555 0)
(7.35456 -0.0119157 0)
(7.35569 -0.0128188 0)
(7.3568 -0.0137667 0)
(7.35787 -0.0147614 0)
(7.35891 -0.0158043 0)
(7.3599 -0.0168968 0)
(7.36086 -0.0180401 0)
(7.36178 -0.019235 0)
(7.36266 -0.0204819 0)
(7.36349 -0.0217811 0)
(7.36427 -0.0231327 0)
(7.365 -0.0245345 0)
(7.33302 -0.000244072 0)
(7.3332 -0.000752885 0)
(7.33355 -0.0012931 0)
(7.33407 -0.00186021 0)
(7.33472 -0.00243906 0)
(7.3355 -0.00301798 0)
(7.3364 -0.00359166 0)
(7.33739 -0.00415914 0)
(7.33845 -0.00472208 0)
(7.33958 -0.00528381 0)
(7.34075 -0.00584836 0)
(7.34195 -0.00642002 0)
(7.34317 -0.00700301 0)
(7.3444 -0.0076014 0)
(7.34564 -0.00821894 0)
(7.34686 -0.00885914 0)
(7.34808 -0.00952523 0)
(7.34928 -0.0102202 0)
(7.35046 -0.0109468 0)
(7.35162 -0.0117076 0)
(7.35275 -0.012505 0)
(7.35385 -0.0133411 0)
(7.35491 -0.0142181 0)
(7.35594 -0.0151377 0)
(7.35694 -0.0161014 0)
(7.35789 -0.0171108 0)
(7.3588 -0.0181668 0)
(7.35967 -0.0192703 0)
(7.36049 -0.0204219 0)
(7.36127 -0.0216219 0)
(7.36199 -0.0228702 0)
(7.36267 -0.0241667 0)
(7.36329 -0.0255094 0)
(7.333 -0.000270381 0)
(7.3331 -0.000771354 0)
(7.33338 -0.00126247 0)
(7.33385 -0.00177957 0)
(7.33449 -0.00233368 0)
(7.33528 -0.0029218 0)
(7.33619 -0.00353591 0)
(7.33721 -0.00416772 0)
(7.33829 -0.00481098 0)
(7.33943 -0.00546196 0)
(7.34061 -0.00611909 0)
(7.34181 -0.00678242 0)
(7.34302 -0.0074532 0)
(7.34424 -0.00813351 0)
(7.34544 -0.00882591 0)
(7.34664 -0.00953322 0)
(7.34782 -0.0102584 0)
(7.34897 -0.0110044 0)
(7.3501 -0.0117741 0)
(7.3512 -0.0125703 0)
(7.35227 -0.0133956 0)
(7.35331 -0.0142524 0)
(7.3543 -0.0151429 0)
(7.35526 -0.0160692 0)
(7.35617 -0.0170331 0)
(7.35704 -0.0180359 0)
(7.35787 -0.0190789 0)
(7.35864 -0.0201631 0)
(7.35937 -0.0212891 0)
(7.36005 -0.0224573 0)
(7.36067 -0.0236677 0)
(7.36124 -0.0249202 0)
(7.36176 -0.0262132 0)
(7.33305 -0.000439644 0)
(7.33328 -0.00139132 0)
(7.33364 -0.0023989 0)
(7.3341 -0.00339668 0)
(7.33469 -0.0043334 0)
(7.33541 -0.00519265 0)
(7.33624 -0.00597826 0)
(7.33718 -0.00670112 0)
(7.33821 -0.00737424 0)
(7.33929 -0.00801075 0)
(7.34042 -0.00862278 0)
(7.34158 -0.00922098 0)
(7.34276 -0.00981445 0)
(7.34394 -0.0104108 0)
(7.34511 -0.0110165 0)
(7.34627 -0.0116368 0)
(7.34742 -0.0122761 0)
(7.34853 -0.0129383 0)
(7.34962 -0.0136266 0)
(7.35068 -0.0143437 0)
(7.3517 -0.015092 0)
(7.35268 -0.0158735 0)
(7.35362 -0.0166901 0)
(7.35451 -0.0175432 0)
(7.35536 -0.018434 0)
(7.35616 -0.0193635 0)
(7.35691 -0.0203324 0)
(7.3576 -0.0213413 0)
(7.35825 -0.0223902 0)
(7.35884 -0.0234793 0)
(7.35937 -0.0246083 0)
(7.35985 -0.0257769 0)
(7.36027 -0.0269831 0)
(7.33293 -0.000186767 0)
(7.33282 -0.000472573 0)
(7.33296 -0.000816454 0)
(7.3334 -0.00134649 0)
(7.3341 -0.00205072 0)
(7.33497 -0.00286966 0)
(7.33596 -0.00375001 0)
(7.33704 -0.0046545 0)
(7.33818 -0.00555964 0)
(7.33935 -0.00645182 0)
(7.34054 -0.00732449 0)
(7.34173 -0.00817602 0)
(7.34292 -0.00900788 0)
(7.3441 -0.00982341 0)
(7.34525 -0.0106269 0)
(7.34639 -0.0114232 0)
(7.34749 -0.012217 0)
(7.34856 -0.013013 0)
(7.34959 -0.0138157 0)
(7.35059 -0.0146291 0)
(7.35154 -0.0154569 0)
(7.35245 -0.0163024 0)
(7.35331 -0.0171684 0)
(7.35413 -0.0180577 0)
(7.3549 -0.0189723 0)
(7.35561 -0.019914 0)
(7.35627 -0.0208843 0)
(7.35688 -0.0218845 0)
(7.35743 -0.0229152 0)
(7.35793 -0.023977 0)
(7.35836 -0.0250701 0)
(7.35874 -0.0261947 0)
(7.35906 -0.0273494 0)
(7.33316 -0.000885947 0)
(7.33361 -0.00293916 0)
(7.33391 -0.00495296 0)
(7.33416 -0.00666871 0)
(7.33454 -0.00804138 0)
(7.33511 -0.00913355 0)
(7.33586 -0.0100146 0)
(7.33675 -0.0107417 0)
(7.33775 -0.0113612 0)
(7.33883 -0.0119093 0)
(7.33995 -0.0124138 0)
(7.34111 -0.0128951 0)
(7.34228 -0.0133685 0)
(7.34345 -0.0138449 0)
(7.3446 -0.0143323 0)
(7.34573 -0.0148367 0)
(7.34683 -0.0153624 0)
(7.34789 -0.0159125 0)
(7.34892 -0.0164897 0)
(7.3499 -0.0170957 0)
(7.35083 -0.0177321 0)
(7.35172 -0.0183998 0)
(7.35255 -0.0190999 0)
(7.35333 -0.019833 0)
(7.35406 -0.0205995 0)
(7.35473 -0.0213998 0)
(7.35534 -0.0222339 0)
(7.35589 -0.0231019 0)
(7.35638 -0.0240034 0)
(7.35681 -0.0249383 0)
(7.35718 -0.025906 0)
(7.35749 -0.026906 0)
(7.35774 -0.0279366 0)
(7.33266 0.000513379 0)
(7.33187 0.00172215 0)
(7.33189 0.00231472 0)
(7.33258 0.00195193 0)
(7.3336 0.000946113 0)
(7.33477 -0.000381818 0)
(7.33599 -0.00183667 0)
(7.33724 -0.00331382 0)
(7.33849 -0.00475469 0)
(7.33972 -0.00612774 0)
(7.34094 -0.00742033 0)
(7.34213 -0.00863141 0)
(7.34329 -0.00976618 0)
(7.34442 -0.010833 0)
(7.34551 -0.0118415 0)
(7.34656 -0.0128016 0)
(7.34758 -0.013723 0)
(7.34855 -0.0146143 0)
(7.34948 -0.0154835 0)
(7.35036 -0.0163377 0)
(7.3512 -0.0171832 0)
(7.35198 -0.0180253 0)
(7.35272 -0.0188687 0)
(7.3534 -0.0197175 0)
(7.35403 -0.0205749 0)
(7.3546 -0.0214439 0)
(7.35511 -0.0223267 0)
(7.35557 -0.0232252 0)
(7.35597 -0.0241409 0)
(7.3563 -0.0250748 0)
(7.35658 -0.0260277 0)
(7.3568 -0.027 0)
(7.35695 -0.027991 0)
(7.33352 -0.00203914 0)
(7.33441 -0.00689812 0)
(7.33399 -0.0114221 0)
(7.33326 -0.0142616 0)
(7.33303 -0.0159162 0)
(7.33332 -0.0168855 0)
(7.33398 -0.0174245 0)
(7.3349 -0.0177048 0)
(7.33597 -0.0178444 0)
(7.33716 -0.0179192 0)
(7.33841 -0.0179773 0)
(7.33968 -0.0180477 0)
(7.34095 -0.0181473 0)
(7.3422 -0.0182856 0)
(7.34342 -0.0184671 0)
(7.34461 -0.0186935 0)
(7.34574 -0.018965 0)
(7.34683 -0.0192805 0)
(7.34786 -0.0196387 0)
(7.34884 -0.0200381 0)
(7.34976 -0.0204771 0)
(7.35062 -0.0209541 0)
(7.35141 -0.0214678 0)
(7.35215 -0.0220169 0)
(7.35282 -0.0226001 0)
(7.35343 -0.0232163 0)
(7.35397 -0.0238645 0)
(7.35445 -0.0245436 0)
(7.35486 -0.0252525 0)
(7.35521 -0.0259905 0)
(7.3555 -0.0267565 0)
(7.35572 -0.0275497 0)
(7.35587 -0.0283685 0)
(7.33179 0.00338383 0)
(7.329 0.00918182 0)
(7.32948 0.0117881 0)
(7.33179 0.0114863 0)
(7.33385 0.00936702 0)
(7.33558 0.00664453 0)
(7.33713 0.0038204 0)
(7.33852 0.00108086 0)
(7.3398 -0.00147327 0)
(7.34099 -0.0037998 0)
(7.34212 -0.00589602 0)
(7.34319 -0.00777721 0)
(7.34423 -0.00946575 0)
(7.34523 -0.0109863 0)
(7.34621 -0.0123633 0)
(7.34716 -0.0136191 0)
(7.34808 -0.0147739 0)
(7.34897 -0.0158452 0)
(7.34983 -0.0168484 0)
(7.35065 -0.0177966 0)
(7.35144 -0.0187007 0)
(7.35218 -0.0195704 0)
(7.35288 -0.0204136 0)
(7.35354 -0.021237 0)
(7.35414 -0.0220464 0)
(7.3547 -0.0228464 0)
(7.3552 -0.0236412 0)
(7.35564 -0.0244338 0)
(7.35603 -0.0252271 0)
(7.35636 -0.026023 0)
(7.35663 -0.0268232 0)
(7.35684 -0.0276289 0)
(7.35699 -0.0284405 0)
(7.33408 -0.00613933 0)
(7.33403 -0.0189966 0)
(7.33026 -0.0270705 0)
(7.32658 -0.0306108 0)
(7.32499 -0.0313982 0)
(7.3252 -0.0309857 0)
(7.32624 -0.0300431 0)
(7.3277 -0.0288928 0)
(7.32942 -0.0277328 0)
(7.3313 -0.0266668 0)
(7.33324 -0.025739 0)
(7.33519 -0.024964 0)
(7.33712 -0.0243406 0)
(7.33902 -0.0238599 0)
(7.34086 -0.0235092 0)
(7.34265 -0.0232751 0)
(7.34436 -0.0231442 0)
(7.34601 -0.0231045 0)
(7.34759 -0.0231451 0)
(7.34909 -0.0232565 0)
(7.35052 -0.0234306 0)
(7.35187 -0.0236603 0)
(7.35314 -0.0239396 0)
(7.35433 -0.0242636 0)
(7.35545 -0.0246279 0)
(7.35648 -0.0250288 0)
(7.35744 -0.0254633 0)
(7.35831 -0.0259285 0)
(7.35911 -0.0264221 0)
(7.35983 -0.0269422 0)
(7.36047 -0.027487 0)
(7.36104 -0.0280551 0)
(7.36153 -0.0286443 0)
(7.32967 0.0198538 0)
(7.32497 0.0369859 0)
(7.32931 0.0376705 0)
(7.33509 0.0322515 0)
(7.33872 0.0258283 0)
(7.34088 0.0195049 0)
(7.34268 0.0135903 0)
(7.3444 0.00828899 0)
(7.34612 0.00364706 0)
(7.34792 -0.000381954 0)
(7.34981 -0.00386709 0)
(7.35178 -0.00687982 0)
(7.35382 -0.00948903 0)
(7.35591 -0.0117573 0)
(7.35802 -0.0137389 0)
(7.36015 -0.0154805 0)
(7.36226 -0.0170213 0)
(7.36435 -0.0183945 0)
(7.3664 -0.0196279 0)
(7.3684 -0.0207446 0)
(7.37034 -0.0217641 0)
(7.37221 -0.0227027 0)
(7.37401 -0.0235739 0)
(7.37574 -0.0243893 0)
(7.37737 -0.0251585 0)
(7.37893 -0.0258894 0)
(7.38039 -0.026589 0)
(7.38176 -0.0272631 0)
(7.38304 -0.0279165 0)
(7.38423 -0.0285533 0)
(7.38532 -0.0291772 0)
(7.38632 -0.0297907 0)
(7.38723 -0.0303974 0)
(7.32507 -0.0330867 0)
(7.29737 -0.058787 0)
(7.27805 -0.0617376 0)
(7.27374 -0.0593864 0)
(7.28036 -0.0559084 0)
(7.2918 -0.051881 0)
(7.30506 -0.0479534 0)
(7.31879 -0.0444601 0)
(7.33223 -0.0414508 0)
(7.34498 -0.0389076 0)
(7.35687 -0.0367936 0)
(7.36784 -0.0350571 0)
(7.3779 -0.0336443 0)
(7.3871 -0.0325057 0)
(7.39548 -0.0315982 0)
(7.40311 -0.0308844 0)
(7.41004 -0.0303328 0)
(7.41633 -0.0299174 0)
(7.42203 -0.0296163 0)
(7.42719 -0.0294117 0)
(7.43185 -0.0292887 0)
(7.43604 -0.0292352 0)
(7.43982 -0.0292412 0)
(7.4432 -0.0292984 0)
(7.44621 -0.0293998 0)
(7.44889 -0.0295397 0)
(7.45126 -0.0297132 0)
(7.45333 -0.0299164 0)
(7.45513 -0.0301457 0)
(7.45668 -0.0303981 0)
(7.45798 -0.0306709 0)
(7.45907 -0.0309616 0)