/*--------------------------------*- C++ -*----------------------------------*\
  =========                 |
  \\      /  F ield         | OpenFOAM: The Open Source CFD Toolbox
   \\    /   O peration     | Website:  https://openfoam.org
    \\  /    A nd           | Version:  10
     \\/     M anipulation  |
\*---------------------------------------------------------------------------*/
FoamFile
{
    format      ascii;
    class       volScalarField;
    location    "0.04";
    object      k;
}
// * * * * * * * * * * * * * * * * * * * * * * * * * * * * * * * * * * * * * //

dimensions      [0 2 -2 0 0 0 0];

internalField   nonuniform List<scalar> 
6820
(
0.198344
0.194812
0.191221
0.187608
0.184022
0.18049
0.177025
0.173631
0.170312
0.167071
0.163907
0.160822
0.157816
0.15489
0.152044
0.149277
0.14659
0.143981
0.14145
0.138994
0.13661
0.134296
0.132046
0.129854
0.12771
0.125605
0.123524
0.12145
0.119354
0.117242
0.114909
0.113086
0.10808
0.200925
0.200903
0.200475
0.200017
0.199554
0.199079
0.198583
0.198065
0.197521
0.196953
0.196361
0.195747
0.195111
0.194457
0.193786
0.1931
0.192402
0.191693
0.190977
0.190256
0.189531
0.188806
0.188084
0.187367
0.186658
0.18596
0.185276
0.184608
0.18396
0.183333
0.182724
0.18213
0.18163
0.236737
0.0165933
0.00856855
0.0103115
0.00711245
0.00775478
0.00947317
0.0114066
0.0134955
0.0156595
0.0178616
0.0200807
0.0223009
0.0245098
0.0266978
0.0288572
0.0309825
0.0330699
0.0351171
0.0371241
0.0390926
0.0410264
0.0429318
0.0448178
0.0466965
0.0485835
0.0504989
0.0524672
0.0545192
0.0566922
0.0590287
0.0616012
0.0643935
0.21079
0.147881
0.104777
0.0794043
0.0637576
0.0531791
0.0453887
0.0392818
0.0342858
0.0300787
0.0264667
0.0233252
0.0205707
0.0181451
0.0160067
0.0141249
0.0124764
0.0110423
0.00980622
0.00875284
0.00786691
0.00713299
0.00653563
0.00605998
0.00569243
0.00542147
0.00523825
0.00513714
0.00511609
0.00517788
0.00532801
0.0055873
0.00595379
0.223414
0.0828974
0.0212292
0.0042057
0.00071522
0.000440838
0.000740599
0.00104723
0.00129679
0.00150568
0.001687
0.00184519
0.00198063
0.00209268
0.00218095
0.00224566
0.00228764
0.00230824
0.00230914
0.00229217
0.00225918
0.0022119
0.0021518
0.00208007
0.00199744
0.00190425
0.00180043
0.00168546
0.00155835
0.0014178
0.00126158
0.00108987
0.000892881
0.217088
0.114946
0.0544745
0.0307277
0.0214901
0.0170293
0.0138974
0.0110388
0.00826049
0.00571247
0.00362315
0.00211521
0.00115183
0.000597931
0.000305217
0.000159882
9.06716e-05
5.85383e-05
4.40106e-05
3.80285e-05
3.68897e-05
3.87655e-05
4.25e-05
4.73734e-05
5.28173e-05
5.833e-05
6.366e-05
6.82425e-05
7.19352e-05
7.0517e-05
7.61649e-05
5.80854e-05
2.05575e-05
0.21353
0.132875
0.0676205
0.0362852
0.0230062
0.0171696
0.0142581
0.0126023
0.011555
0.0108361
0.0103133
0.00991987
0.00961907
0.00938723
0.00920482
0.00905062
0.00889663
0.00870354
0.00841983
0.00800279
0.00740975
0.00668011
0.00593343
0.00528575
0.00478526
0.00442178
0.00416284
0.00397722
0.00384082
0.00373493
0.00364828
0.00356805
0.0034928
0.204358
0.178626
0.130051
0.0782475
0.0452296
0.0283202
0.0200231
0.0157777
0.0134393
0.0120537
0.011186
0.0106241
0.0102549
0.0100117
0.00985042
0.00973792
0.00964415
0.00954223
0.00940514
0.00936607
0.00936031
0.00931783
0.00924127
0.00915747
0.00907818
0.00900327
0.00894082
0.00890266
0.00889348
0.00890793
0.00893818
0.00897686
0.00902235
0.20305
0.184991
0.160512
0.126235
0.0905231
0.0631083
0.0450533
0.0338659
0.0269756
0.0226165
0.0197447
0.0177697
0.0163515
0.0152834
0.0144275
0.0136774
0.0129342
0.012081
0.0110935
0.0105319
0.0103243
0.0102489
0.0102341
0.0102757
0.0103697
0.0105086
0.0106916
0.0109209
0.0111955
0.0115091
0.0118551
0.012226
0.0126211
0.202415
0.188155
0.172668
0.155513
0.132461
0.106088
0.081668
0.062415
0.0486407
0.0391843
0.0327139
0.028202
0.024952
0.022506
0.020555
0.0188751
0.0172942
0.0157402
0.0143438
0.0136794
0.0135352
0.0136134
0.0137973
0.014065
0.0144126
0.0148394
0.0153432
0.0159199
0.0165642
0.0172692
0.0180277
0.0188281
0.0196677
0.201974
0.190361
0.17782
0.166378
0.154017
0.139673
0.123378
0.106291
0.0901129
0.0760238
0.0644002
0.0550751
0.0476394
0.0416402
0.0366795
0.0324586
0.0288226
0.0258164
0.0237098
0.0226493
0.0222826
0.022286
0.0225081
0.0229078
0.0234694
0.0241806
0.0250263
0.0259901
0.0270569
0.028211
0.0294381
0.0307169
0.0320394
0.201658
0.191934
0.181473
0.172585
0.164332
0.155907
0.146599
0.13591
0.124014
0.111598
0.0994395
0.0881323
0.0779856
0.0690744
0.0613496
0.0547508
0.0492977
0.0451211
0.0423253
0.0407195
0.0399269
0.0396412
0.0396732
0.0399611
0.0404763
0.0411892
0.0420663
0.0430737
0.0441798
0.045355
0.0465757
0.0478136
0.0490583
0.201423
0.193109
0.184077
0.176556
0.170099
0.164422
0.159193
0.15387
0.147983
0.14127
0.133679
0.12535
0.116563
0.107658
0.0989899
0.0909308
0.0838634
0.0780704
0.0736343
0.0703947
0.0680166
0.0662295
0.0649094
0.0640067
0.0634652
0.0632181
0.0631966
0.0633367
0.0635856
0.063903
0.0642658
0.0646547
0.0650649
0.201254
0.193953
0.185969
0.179444
0.174095
0.169657
0.165832
0.162181
0.158336
0.154087
0.14933
0.14404
0.138265
0.13212
0.125782
0.119489
0.113476
0.107771
0.102416
0.097537
0.0932124
0.0894669
0.0863151
0.0837251
0.081633
0.079962
0.0786349
0.0775815
0.0767432
0.0760714
0.075533
0.0750983
0.0747424
0.201133
0.194558
0.187325
0.181419
0.176639
0.172652
0.169224
0.166105
0.163068
0.159945
0.156605
0.152944
0.148892
0.144411
0.139502
0.134213
0.128649
0.1229
0.11713
0.111566
0.106407
0.101779
0.0977306
0.0942487
0.0912828
0.0887658
0.0866289
0.0848082
0.0832491
0.0819041
0.0807378
0.0797174
0.0788065
0.201049
0.194979
0.188212
0.182576
0.177997
0.174158
0.170837
0.167838
0.164978
0.162112
0.159124
0.15592
0.152418
0.148556
0.144289
0.139609
0.134555
0.129229
0.123784
0.1184
0.113243
0.108437
0.104053
0.100111
0.0965978
0.0934782
0.0907098
0.0882483
0.0860526
0.0840843
0.0823129
0.0807107
0.0792377
0.200997
0.195245
0.188705
0.183155
0.178614
0.174812
0.171536
0.168593
0.165809
0.163038
0.16016
0.157066
0.153662
0.149871
0.145648
0.140987
0.135937
0.130602
0.125127
0.119674
0.114391
0.109391
0.104743
0.100478
0.0965934
0.0930702
0.0898775
0.0869807
0.0843463
0.0819413
0.0797383
0.0777149
0.07583
0.200973
0.195376
0.188886
0.183307
0.178711
0.17485
0.171509
0.168483
0.165592
0.16269
0.159663
0.156414
0.152865
0.148954
0.144648
0.139945
0.134887
0.129559
0.12408
0.118582
0.113191
0.108009
0.103106
0.0985223
0.0942697
0.0903427
0.0867245
0.0833915
0.0803195
0.0774798
0.0748486
0.0724134
0.0701348
0.200976
0.195378
0.188783
0.18305
0.178287
0.174259
0.170742
0.167523
0.164413
0.161263
0.157958
0.154404
0.15053
0.146286
0.14165
0.136637
0.131299
0.125725
0.120029
0.114329
0.108737
0.103343
0.0982087
0.0933709
0.0888439
0.0846265
0.0807067
0.077068
0.0736863
0.0705315
0.0675872
0.0648566
0.0623097
0.201006
0.195249
0.188384
0.182362
0.177317
0.173018
0.169229
0.165722
0.162299
0.158809
0.15514
0.151205
0.146944
0.14232
0.137326
0.131986
0.126357
0.120526
0.114597
0.108676
0.102862
0.0972346
0.0918514
0.0867487
0.0819444
0.0774428
0.0732381
0.0693152
0.0656514
0.0622303
0.0590428
0.0560949
0.0533627
0.201066
0.194976
0.187656
0.181192
0.175745
0.171073
0.16692
0.163041
0.159229
0.155329
0.151228
0.146845
0.142127
0.137046
0.131609
0.125854
0.119848
0.11368
0.107453
0.101264
0.0952047
0.0893455
0.0837395
0.078421
0.0734096
0.0687091
0.0643121
0.0602077
0.0563869
0.0528422
0.0495654
0.0465595
0.043801
0.201162
0.194536
0.186539
0.179464
0.173488
0.168343
0.163747
0.159431
0.155174
0.150815
0.146239
0.141371
0.136166
0.130611
0.124726
0.118559
0.112182
0.105687
0.099169
0.0927226
0.0864308
0.0803619
0.0745673
0.0690831
0.0639261
0.0590994
0.0546043
0.0504406
0.0466056
0.0430928
0.0398938
0.0370084
0.0344112
0.201303
0.193884
0.184939
0.177057
0.17042
0.164716
0.159616
0.154817
0.150078
0.145228
0.140154
0.134786
0.129091
0.123067
0.116744
0.110175
0.103439
0.0966273
0.0898362
0.0831592
0.0766789
0.0704634
0.064563
0.0590114
0.0538248
0.0490159
0.0445932
0.0405597
0.0369133
0.033649
0.0307603
0.0282475
0.0260858
0.201509
0.192927
0.182685
0.173762
0.166323
0.15997
0.154305
0.14898
0.14373
0.138374
0.132797
0.126937
0.120767
0.114295
0.107558
0.10062
0.093565
0.0864887
0.079492
0.07267
0.0661065
0.0598673
0.0539977
0.0485339
0.0435026
0.0389222
0.0348034
0.0311507
0.0279654
0.0252463
0.0229902
0.0211969
0.0198412
0.201813
0.191517
0.179513
0.169295
0.16094
0.153907
0.147689
0.141872
0.136156
0.130347
0.124325
0.118031
0.111445
0.104586
0.0975027
0.0902673
0.0829738
0.0757271
0.0686341
0.0617919
0.0552851
0.04918
0.0435278
0.0383706
0.0337401
0.0296584
0.0261413
0.0231986
0.0208346
0.0190477
0.0178282
0.0171604
0.0170047
0.202254
0.189466
0.175097
0.163286
0.153901
0.146154
0.13938
0.133081
0.126915
0.120668
0.114222
0.107523
0.100569
0.0933923
0.0860572
0.0786503
0.0712754
0.0640445
0.0570659
0.0504335
0.0442341
0.0385426
0.0334198
0.0289136
0.0250605
0.021888
0.0194134
0.0176409
0.0165602
0.0161439
0.0163483
0.0171159
0.0183773
0.202899
0.18647
0.169002
0.155372
0.144984
0.136639
0.129443
0.122792
0.116299
0.109736
0.102984
0.0960065
0.0888194
0.0814775
0.0740623
0.0666713
0.0594175
0.0524202
0.0457937
0.0396415
0.0340598
0.0291328
0.0249308
0.0215081
0.0189009
0.0171249
0.0161708
0.0160022
0.0165566
0.0177498
0.019485
0.0216569
0.0241765
0.203866
0.181963
0.160405
0.144672
0.133259
0.124355
0.116788
0.109843
0.103095
0.0963112
0.0893843
0.0822997
0.0751012
0.0678663
0.0606885
0.0536668
0.0469186
0.0405716
0.034753
0.0295809
0.0251603
0.0215785
0.0188994
0.0171541
0.0163359
0.0163987
0.01726
0.0188084
0.0209151
0.0234457
0.0262748
0.0292897
0.0324222
0.205315
0.175188
0.14867
0.131035
0.119025
0.109938
0.102286
0.0952824
0.0885048
0.0817312
0.074876
0.0679566
0.061049
0.0542552
0.0476835
0.0414465
0.0356717
0.0304955
0.0260543
0.0224706
0.0198382
0.0182115
0.0175942
0.0179327
0.0191218
0.0210198
0.0234686
0.0263102
0.0293989
0.0326098
0.0358453
0.0390332
0.0421545
0.207531
0.164724
0.132156
0.112703
0.100323
0.0912766
0.0838065
0.0770881
0.0706874
0.06438
0.0580975
0.0518917
0.0458736
0.0401711
0.0349096
0.0302099
0.026193
0.022977
0.020663
0.019313
0.0189331
0.0194692
0.0208101
0.0227994
0.0252562
0.0279986
0.0308707
0.0337585
0.0365875
0.039313
0.0419124
0.0443801
0.0467423
0.2108
0.148933
0.110765
0.0907824
0.0788475
0.0702683
0.0632784
0.0572247
0.0517668
0.0466851
0.0418596
0.0372855
0.0330527
0.0292985
0.0261614
0.023754
0.0221524
0.0213912
0.021451
0.022248
0.023646
0.0254843
0.0276077
0.029893
0.0322521
0.0346216
0.0369589
0.0392431
0.0414691
0.04364
0.0457597
0.0478295
0.0498646
0.214974
0.127958
0.0852958
0.0660188
0.0554712
0.0481987
0.0425145
0.0380037
0.0344613
0.0315857
0.0290753
0.0267878
0.0247626
0.0231267
0.0219885
0.0213844
0.0212812
0.0215995
0.0222275
0.0230435
0.023944
0.0248535
0.0257337
0.0265969
0.0274943
0.0284884
0.0296353
0.0309757
0.0325301
0.0342936
0.0362355
0.0383028
0.040447
0.220408
0.100688
0.0551247
0.0384485
0.0312636
0.027509
0.0251714
0.0234223
0.021905
0.0205425
0.019398
0.0185487
0.0180175
0.0177682
0.0177282
0.0178116
0.0179403
0.0180521
0.0181072
0.0181085
0.0180981
0.0181261
0.018237
0.0184759
0.0188991
0.0195793
0.0205988
0.0220276
0.0238929
0.0261588
0.0287308
0.0314753
0.0342791
0.225265
0.0747148
0.0285497
0.0156216
0.0117937
0.0105999
0.0102335
0.0100618
0.00985503
0.00960942
0.0094168
0.00934928
0.00941453
0.00957564
0.00978614
0.0100061
0.0102038
0.0103554
0.0104488
0.0104866
0.0104851
0.0104684
0.0104613
0.0104868
0.0105705
0.0107475
0.0110697
0.0116036
0.0124175
0.0135698
0.0150979
0.0170035
0.0192581
0.226743
0.0667101
0.0209486
0.00912911
0.00601619
0.00514956
0.00489028
0.00480996
0.0048068
0.00486607
0.00498168
0.00513854
0.0053176
0.00550361
0.00568692
0.00585995
0.00601423
0.00614311
0.00624502
0.00632204
0.00637917
0.00642466
0.00646884
0.0065235
0.00660074
0.006712
0.00687305
0.00710871
0.00745093
0.00793491
0.00859459
0.00945424
0.0105261
0.224008
0.0783983
0.0317478
0.0181017
0.0135426
0.0114566
0.0100718
0.00891546
0.00786823
0.00690305
0.00601371
0.00520046
0.00446652
0.00381539
0.00324881
0.00276439
0.00235501
0.00201257
0.00172987
0.00149956
0.00131428
0.00116745
0.00105341
0.000967292
0.000905054
0.000863556
0.000840253
0.000832862
0.000839419
0.000858225
0.00088782
0.000926638
0.000975093
0.213078
0.135326
0.08953
0.0655696
0.0523902
0.0444175
0.0391282
0.0353634
0.0325475
0.0303628
0.0286197
0.0271974
0.0260142
0.0250156
0.0241642
0.0234312
0.0227938
0.0222342
0.021739
0.0212977
0.0209015
0.020543
0.0202153
0.0199128
0.0196307
0.0193649
0.0191124
0.0188706
0.0186372
0.0184106
0.018188
0.0179708
0.0177455
0.240246
0.00048431
0.0366563
0.000174835
6.45624e-06
0.00103377
0.000848653
0.000416967
0.000177578
0.000198386
0.000631098
0.00117985
0.00132331
0.00101303
0.000757813
0.000773675
0.000882215
0.000970152
0.00105501
0.00116122
0.00129257
0.00145059
0.00163575
0.00184322
0.00206651
0.00230299
0.00255506
0.00282807
0.0031276
0.00345783
0.00382093
0.00421785
0.00464708
0.200085
0.199949
0.199767
0.199592
0.19943
0.199279
0.199137
0.199001
0.198871
0.198746
0.198627
0.198515
0.198409
0.198311
0.198221
0.198139
0.198068
0.198007
0.197957
0.197919
0.197895
0.197884
0.197887
0.197905
0.197938
0.197988
0.198053
0.198136
0.198235
0.198352
0.198485
0.19864
0.198798
0.199875
0.199564
0.199226
0.198873
0.198515
0.198155
0.197796
0.19744
0.197087
0.196736
0.196388
0.196042
0.195697
0.195353
0.195009
0.194663
0.194316
0.193966
0.193612
0.193254
0.192891
0.192522
0.192146
0.191763
0.191371
0.19097
0.190559
0.190138
0.189706
0.189261
0.188805
0.188335
0.187853
0.117657
0.126914
0.128065
0.127889
0.127848
0.124286
0.135689
0.176247
0.198883
0.200613
0.196044
0.19308
0.193074
0.1948
0.196834
0.198257
0.19926
0.203072
0.207082
0.203649
0.186897
0.145154
0.0854714
0.0355607
0.0161431
0.0269969
0.0526695
0.0763337
0.0889803
0.090046
0.0837793
0.0754379
0.0690577
0.0667809
0.0690712
0.0752613
0.0841339
0.0944012
0.105014
0.115248
0.124587
0.132534
0.138576
0.142335
0.14368
0.142657
0.139436
0.134569
0.12945
0.126381
0.127778
0.134777
0.146282
0.159322
0.170594
0.178058
0.181533
0.182148
0.181323
0.180042
0.178678
0.17722
0.175588
0.173802
0.171979
0.170224
0.168528
0.166756
0.164713
0.162238
0.159284
0.155933
0.152339
0.148627
0.144792
0.140681
0.136034
0.130546
0.123869
0.115556
0.105031
0.091749
0.0756445
0.0576746
0.0398924
0.0246647
0.0135119
0.00653793
0.00279734
0.00106289
0.000361786
0.000113007
3.52079e-05
1.35234e-05
7.63141e-06
5.49009e-06
4.21851e-06
3.29937e-06
2.61854e-06
2.31457e-06
0.180308
0.179571
0.179188
0.178857
0.178296
0.176307
0.17059
0.169319
0.180466
0.194934
0.201664
0.201935
0.200501
0.199768
0.200201
0.20154
0.204486
0.207911
0.20533
0.190842
0.155209
0.0991779
0.0456401
0.0169973
0.0187443
0.0404798
0.0660976
0.0839196
0.0900994
0.08684
0.0789383
0.0710157
0.0661877
0.0658254
0.0698745
0.0773825
0.0870342
0.0975747
0.108064
0.11792
0.126775
0.134261
0.139948
0.143474
0.144687
0.143597
0.140311
0.135277
0.129776
0.126074
0.126708
0.133075
0.144334
0.157592
0.169404
0.177472
0.181405
0.182261
0.181508
0.180222
0.178846
0.177396
0.175783
0.17401
0.172187
0.170431
0.168757
0.167051
0.165123
0.162785
0.159934
0.156591
0.152882
0.148965
0.144931
0.140732
0.136197
0.131109
0.125266
0.118483
0.110512
0.10095
0.0892621
0.075079
0.0587714
0.041858
0.0266142
0.0149226
0.00734234
0.00317289
0.00120887
0.00040731
0.000121112
3.13814e-05
6.99761e-06
1.53329e-06
6.54261e-07
5.44055e-07
4.34535e-07
4.09024e-07
0.0684205
0.0730261
0.0772798
0.0813977
0.087162
0.0980884
0.114843
0.132129
0.149454
0.168628
0.186327
0.198107
0.203773
0.205925
0.206854
0.207633
0.208369
0.204318
0.188475
0.154363
0.102496
0.0505439
0.0182256
0.0134288
0.0304762
0.0558758
0.0772054
0.0881326
0.0885827
0.0822503
0.0737786
0.0669555
0.0640229
0.0656776
0.0714284
0.0801046
0.0903497
0.100988
0.111216
0.120606
0.128928
0.135931
0.141255
0.144554
0.145648
0.144506
0.141178
0.136016
0.130178
0.125877
0.125752
0.131455
0.142407
0.155826
0.168147
0.176818
0.181226
0.182338
0.181663
0.180367
0.178971
0.177522
0.175925
0.174167
0.17235
0.170595
0.168937
0.167288
0.16547
0.163285
0.160588
0.157332
0.153592
0.149529
0.145301
0.140964
0.136431
0.131516
0.126039
0.119904
0.113096
0.105624
0.097426
0.0883159
0.0780156
0.0663152
0.0533576
0.0399024
0.0272765
0.016856
0.00939828
0.00477502
0.00226556
0.0010421
0.000484648
0.000231761
0.000114146
5.52754e-05
2.78829e-05
2.03722e-05
0.0066249
0.00769689
0.00903995
0.0108036
0.0136757
0.0195694
0.032333
0.0537641
0.0805947
0.108963
0.136218
0.159481
0.176516
0.187033
0.191978
0.192478
0.18568
0.167745
0.135111
0.090234
0.0459688
0.0167368
0.00997647
0.0234517
0.0472524
0.0701294
0.0846363
0.0887682
0.0847636
0.0767351
0.0687024
0.0635639
0.0627787
0.0664687
0.0737886
0.0834221
0.094036
0.10458
0.114412
0.123255
0.131011
0.137525
0.142493
0.145576
0.146567
0.145391
0.142044
0.136788
0.130658
0.125797
0.124922
0.129928
0.140517
0.15404
0.166838
0.176113
0.181016
0.182407
0.181822
0.180519
0.1791
0.177649
0.176069
0.17433
0.172523
0.170769
0.169121
0.167513
0.165788
0.163757
0.161248
0.158155
0.154477
0.150328
0.145894
0.141331
0.136662
0.131764
0.126441
0.120543
0.114041
0.107021
0.0996216
0.0919707
0.0841444
0.076173
0.0680659
0.059841
0.0515431
0.0432569
0.0351201
0.0273454
0.0202228
0.0140776
0.00918093
0.00560724
0.00325652
0.00180836
0.00102693
0.000694046
0.000678717
0.000165783
0.00041156
0.000472847
0.000240415
0.000409077
0.0016741
0.00680197
0.0192494
0.0391314
0.0633998
0.0880016
0.109216
0.124309
0.131763
0.130242
0.117427
0.0934011
0.0618931
0.0314413
0.0111993
0.00713485
0.0192096
0.0411081
0.0639619
0.0805524
0.0876868
0.0862014
0.0793348
0.0709056
0.0641363
0.0611066
0.0625988
0.0682462
0.0769289
0.087264
0.0980065
0.108272
0.11759
0.125831
0.133006
0.13904
0.143667
0.146548
0.147445
0.146245
0.142898
0.137577
0.1312
0.125822
0.124216
0.128504
0.138674
0.15224
0.165476
0.175348
0.18076
0.182449
0.181967
0.18066
0.179214
0.177756
0.176189
0.174469
0.172671
0.170918
0.169273
0.167689
0.166032
0.164131
0.161812
0.158931
0.15541
0.151279
0.146691
0.141859
0.136932
0.131908
0.12663
0.120895
0.114577
0.107687
0.100361
0.0927788
0.0851079
0.07747
0.0699528
0.0626316
0.055581
0.048876
0.0425802
0.0367479
0.0314045
0.0265822
0.022255
0.0184702
0.015076
0.0122137
0.00958884
0.00780194
5.01145e-05
0.000121594
0.000216527
6.89154e-05
0.000116795
7.42497e-05
5.13092e-05
0.00114845
0.00056347
0.00410555
0.0126162
0.0249392
0.0380636
0.0485411
0.0534814
0.0506918
0.0408784
0.0265537
0.0124556
0.00394006
0.00541258
0.0179106
0.0380781
0.0597745
0.0769135
0.085925
0.0865947
0.0812009
0.0730425
0.0653096
0.0604456
0.0598112
0.0635955
0.0710236
0.0807915
0.0915364
0.102164
0.111983
0.120697
0.128302
0.1349
0.140472
0.144781
0.147476
0.148289
0.147071
0.143732
0.138372
0.131791
0.125944
0.123634
0.127189
0.136889
0.150437
0.164067
0.174521
0.180453
0.182459
0.182093
0.180785
0.179309
0.177838
0.176282
0.174579
0.172791
0.171038
0.169392
0.167819
0.166206
0.164401
0.16225
0.159597
0.156309
0.15232
0.147696
0.14263
0.137362
0.132046
0.126654
0.121007
0.114897
0.108214
0.101001
0.093422
0.0856795
0.0779508
0.0703633
0.0630058
0.055949
0.0492594
0.0429938
0.0372017
0.0319014
0.027117
0.0228046
0.0190166
0.0155542
0.0126541
0.00987514
0.00804803
0.00340426
0.00329941
0.00317906
0.00300932
0.00277755
0.00246276
0.00202237
0.00157352
4.39362e-05
0.00118559
0.00152103
0.00219916
0.00398932
0.00648851
0.00758003
0.00625396
0.00340506
0.000899519
0.00138332
0.00751813
0.0204581
0.0387066
0.0583239
0.0745942
0.0841621
0.0862166
0.0821908
0.0747035
0.06662
0.0604565
0.0579669
0.0598687
0.0658283
0.0747559
0.0852701
0.0961162
0.1064
0.115634
0.123683
0.130646
0.136686
0.141824
0.145839
0.148369
0.149109
0.147879
0.144552
0.139166
0.132416
0.126149
0.12317
0.125989
0.135175
0.148641
0.162615
0.173631
0.180087
0.182426
0.182188
0.180883
0.179375
0.177888
0.176338
0.174651
0.172873
0.171121
0.169472
0.167904
0.166315
0.164574
0.16255
0.160106
0.157088
0.153358
0.148863
0.143699
0.138107
0.132361
0.126621
0.120852
0.11486
0.108434
0.10147
0.094029
0.0862921
0.078476
0.0707662
0.0632933
0.0561425
0.0493761
0.0430428
0.0371873
0.0318272
0.026989
0.0226292
0.0188031
0.0153039
0.0123882
0.00958531
0.00777664
0.00907309
0.00911286
0.00912359
0.009091
0.00896294
0.00867812
0.0081579
0.00742621
0.006253
0.00500297
0.00372344
0.00222647
0.00105721
0.000473725
0.000391661
0.0010157
0.00285659
0.00704994
0.0149564
0.0272945
0.0431951
0.0599895
0.0741709
0.0829724
0.0854263
0.0823419
0.0756328
0.0676535
0.0607391
0.0568099
0.0569918
0.0614068
0.0692822
0.079333
0.0902165
0.100863
0.110607
0.119158
0.126514
0.132848
0.138361
0.143098
0.146846
0.149227
0.149907
0.148674
0.145369
0.139971
0.133076
0.126429
0.122818
0.124905
0.13354
0.146864
0.161126
0.172674
0.179652
0.182334
0.182237
0.180941
0.179399
0.177891
0.176345
0.174673
0.172906
0.171156
0.169504
0.167937
0.166361
0.164656
0.162714
0.160429
0.157665
0.154257
0.150057
0.145021
0.139279
0.133112
0.126833
0.120628
0.114471
0.108169
0.101503
0.0943662
0.0868184
0.0790433
0.0712639
0.0636724
0.0564012
0.0495329
0.0431167
0.0371915
0.0317715
0.0268835
0.0224858
0.018637
0.0151232
0.012217
0.00941298
0.00763042
0.0131005
0.0136701
0.0142565
0.0148424
0.0153857
0.0158148
0.0160351
0.0159573
0.0155525
0.0147837
0.0137828
0.012782
0.0120278
0.0118787
0.0128026
0.0153463
0.0201073
0.0277405
0.0384318
0.0513557
0.0645772
0.0756398
0.0825447
0.0844534
0.0817536
0.075712
0.0681001
0.0609066
0.0560138
0.0547886
0.0577419
0.0644592
0.0738512
0.0845802
0.0954513
0.105632
0.114688
0.1225
0.129165
0.134902
0.139928
0.144299
0.147804
0.150053
0.150684
0.149456
0.146184
0.140798
0.133789
0.126794
0.122577
0.123939
0.131992
0.145113
0.159602
0.171642
0.17913
0.182163
0.182216
0.180935
0.17936
0.177828
0.176284
0.174626
0.17287
0.171123
0.16947
0.167905
0.166336
0.164651
0.162752
0.160563
0.15799
0.154888
0.151074
0.146392
0.140805
0.134461
0.127674
0.120796
0.114058
0.107473
0.100875
0.094047
0.0868646
0.0793612
0.071699
0.0640906
0.0567265
0.0497432
0.0432206
0.037207
0.0317159
0.0267716
0.0223315
0.0184557
0.0149249
0.0120252
0.00922381
0.00746896
0.0206722
0.0218635
0.0230962
0.0243473
0.0255739
0.0267096
0.0276759
0.0284002
0.0288614
0.0290849
0.0291832
0.0293692
0.0299385
0.0312678
0.0338356
0.0381154
0.0443448
0.0524231
0.0616463
0.0707171
0.07809
0.0824781
0.0832378
0.0804665
0.0748971
0.0677589
0.0606387
0.0552421
0.0530127
0.0547325
0.0603191
0.0689344
0.0793348
0.0902726
0.100782
0.110288
0.118562
0.12562
0.131623
0.136808
0.141392
0.145431
0.148716
0.150847
0.151436
0.150218
0.14699
0.141637
0.134556
0.12726
0.122467
0.123101
0.130536
0.143396
0.158046
0.170527
0.178499
0.181876
0.182087
0.180828
0.179224
0.17767
0.176127
0.174484
0.172742
0.171
0.169346
0.167782
0.166219
0.164545
0.162665
0.160521
0.158054
0.155171
0.151718
0.147506
0.14237
0.136266
0.129336
0.121901
0.114348
0.106976
0.0998819
0.092965
0.0860338
0.0789382
0.0716539
0.0642845
0.0570048
0.049995
0.0433921
0.0372863
0.0317116
0.0266981
0.0222038
0.0182897
0.014732
0.0118283
0.00902539
0.00729035
0.0336006
0.0354185
0.0372594
0.0390883
0.040861
0.0425214
0.0440136
0.045301
0.0463887
0.0473412
0.0482868
0.0494173
0.0509764
0.053237
0.0564622
0.0606896
0.0657357
0.0711691
0.0762679
0.0801652
0.0820817
0.0815314
0.0784356
0.0731579
0.0665076
0.0597007
0.0542014
0.0514003
0.0522191
0.0568324
0.0646575
0.0746062
0.0854547
0.09616
0.106026
0.114718
0.122174
0.128499
0.133887
0.13857
0.142756
0.146496
0.149583
0.151607
0.152159
0.150956
0.147779
0.142479
0.135365
0.127823
0.122502
0.122418
0.129198
0.141728
0.156459
0.169314
0.177722
0.18142
0.181787
0.18056
0.178937
0.177368
0.175831
0.174206
0.172482
0.170749
0.169097
0.167534
0.165976
0.164308
0.162435
0.1603
0.157868
0.155089
0.151873
0.148069
0.143492
0.137974
0.131446
0.124014
0.115974
0.107724
0.0996335
0.0919087
0.0845611
0.0774656
0.0704713
0.0634978
0.0565711
0.0498009
0.0433227
0.0372583
0.031677
0.026635
0.0221057
0.0181619
0.0145785
0.0116718
0.00886196
0.00713831
0.0505037
0.0521374
0.0537374
0.0552824
0.0567596
0.0581614
0.0594859
0.0607392
0.0619399
0.0631284
0.0643739
0.065773
0.0674344
0.0694505
0.0718182
0.0744176
0.0769941
0.0791908
0.0805416
0.0805757
0.0789387
0.0754985
0.0704279
0.0642679
0.0579456
0.0526782
0.0497235
0.0500274
0.053926
0.0610541
0.0705031
0.0811339
0.0918899
0.101998
0.111027
0.118839
0.12549
0.131131
0.135961
0.140196
0.144027
0.147499
0.150404
0.15233
0.152849
0.151663
0.148542
0.143314
0.136204
0.128471
0.122679
0.121909
0.128017
0.140148
0.154872
0.168014
0.176789
0.180762
0.181255
0.180046
0.178412
0.176844
0.175327
0.173733
0.172035
0.170318
0.168675
0.167114
0.16556
0.163894
0.162018
0.159871
0.157426
0.154656
0.151519
0.147931
0.14377
0.138876
0.133091
0.126326
0.118626
0.110209
0.101425
0.0926607
0.0842199
0.0762554
0.0687743
0.0617023
0.0549607
0.0485169
0.0423868
0.0366222
0.0312673
0.0263828
0.0219553
0.0180817
0.0145318
0.0116772
0.00886034
0.00715076
0.0656192
0.0662983
0.0670096
0.0677433
0.0684935
0.0692578
0.0700385
0.0708428
0.0716819
0.0725686
0.0735161
0.0745332
0.0756178
0.0767294
0.0777808
0.0786252
0.0790397
0.0787752
0.0775571
0.0751591
0.0714814
0.0666319
0.0610031
0.0553145
0.0505625
0.0478349
0.0480191
0.0515199
0.0581288
0.0671085
0.0774403
0.0881105
0.0983211
0.107578
0.115672
0.122605
0.128499
0.133521
0.137854
0.141693
0.145208
0.148436
0.151175
0.15301
0.1535
0.152331
0.149272
0.144131
0.13706
0.129193
0.12299
0.121575
0.127013
0.138706
0.153358
0.166717
0.175799
0.179985
0.180534
0.179278
0.177586
0.176002
0.174519
0.172977
0.171326
0.169643
0.168018
0.166468
0.164917
0.163246
0.161353
0.159176
0.156684
0.153857
0.150672
0.147093
0.143068
0.138517
0.13333
0.127383
0.120579
0.112899
0.104455
0.0954967
0.0863682
0.0774148
0.068901
0.0609723
0.0536691
0.0469717
0.0408378
0.0352333
0.030123
0.025505
0.0213262
0.0176639
0.0142732
0.01157
0.00881632
0.00722141
0.0744996
0.0743305
0.0742432
0.0742297
0.0742856
0.0744074
0.074591
0.0748314
0.0751218
0.0754501
0.0757948
0.0761204
0.0763711
0.0764608
0.0762849
0.0757009
0.0745385
0.0726423
0.0698817
0.0662088
0.061724
0.0567454
0.0518544
0.0478686
0.045703
0.0461367
0.0495696
0.0558844
0.0644854
0.0744868
0.0849587
0.0951269
0.104475
0.112746
0.119893
0.125998
0.131207
0.13568
0.139577
0.143067
0.146299
0.149307
0.151892
0.15364
0.154102
0.152952
0.14996
0.144921
0.137924
0.129976
0.123426
0.121413
0.126191
0.137421
0.151953
0.165485
0.174841
0.179223
0.179809
0.178455
0.176598
0.174878
0.173354
0.171847
0.170266
0.168644
0.167063
0.165538
0.163996
0.162315
0.160391
0.158159
0.155586
0.152652
0.149338
0.145624
0.141491
0.136916
0.131861
0.126269
0.120065
0.113187
0.105621
0.0974396
0.0888165
0.0799986
0.0712568
0.0628338
0.054912
0.0476095
0.0409847
0.0350528
0.0297808
0.0251276
0.0209918
0.0173835
0.0140549
0.011362
0.00864769
0.00711958
0.0779657
0.0771395
0.0764093
0.0757648
0.0751999
0.0747098
0.0742875
0.0739218
0.0735953
0.0732815
0.0729414
0.0725224
0.0719506
0.0711344
0.0699701
0.0683441
0.0661509
0.0633279
0.0598748
0.0559063
0.0517071
0.0477673
0.0447602
0.0434355
0.0444362
0.0481023
0.0543511
0.0626916
0.0723668
0.0825545
0.0925436
0.101834
0.110152
0.117414
0.123666
0.129023
0.133629
0.137622
0.141138
0.144319
0.147297
0.150104
0.152545
0.154212
0.154648
0.153519
0.150598
0.145676
0.138785
0.130811
0.123979
0.121419
0.125555
0.1363
0.15067
0.164332
0.173937
0.178504
0.179126
0.177667
0.175621
0.173692
0.171987
0.170388
0.168818
0.167266
0.165759
0.164288
0.16277
0.161082
0.159114
0.156801
0.154109
0.151021
0.147517
0.143579
0.13919
0.134342
0.129034
0.123259
0.117012
0.110288
0.103103
0.0955009
0.0875667
0.0794221
0.0712175
0.063122
0.0553107
0.0479529
0.0411892
0.0351148
0.0297522
0.0250748
0.0209687
0.0173988
0.0141168
0.0113987
0.00869922
0.00712927
0.0777783
0.076269
0.0748715
0.0735741
0.0723685
0.0712472
0.0701997
0.0692105
0.0682561
0.0673035
0.0663083
0.065214
0.063948
0.0624359
0.0606026
0.0583827
0.0557448
0.052725
0.0494542
0.046198
0.043377
0.0415415
0.0412841
0.0430996
0.0472368
0.0536072
0.0617933
0.0711558
0.0809915
0.0906783
0.0997632
0.107984
0.115241
0.12155
0.126997
0.131699
0.135782
0.139359
0.142542
0.145449
0.148198
0.150818
0.153126
0.154717
0.15513
0.154027
0.151183
0.146391
0.139636
0.131686
0.124636
0.121586
0.125103
0.135349
0.149516
0.163265
0.173089
0.177827
0.178478
0.176915
0.174685
0.172543
0.170624
0.168839
0.167139
0.165567
0.164118
0.162725
0.161256
0.159573
0.157559
0.155145
0.152303
0.149018
0.145274
0.141054
0.136343
0.131136
0.125439
0.119271
0.112658
0.105641
0.0982696
0.0906099
0.0827434
0.0747702
0.0668158
0.0590314
0.0515685
0.0445727
0.0381653
0.0324281
0.0273801
0.0229988
0.0191783
0.0158882
0.0128999
0.0104573
0.00804191
0.00671244
0.0739052
0.0718731
0.069957
0.0681454
0.0664291
0.0647992
0.0632444
0.0617487
0.0602893
0.0588358
0.0573513
0.055786
0.0540903
0.0522188
0.0501415
0.0478587
0.0454301
0.0430015
0.0408215
0.0392467
0.038712
0.0396591
0.0424324
0.0471766
0.0537758
0.0618645
0.0709095
0.0803283
0.0896016
0.0983439
0.106324
0.113444
0.119705
0.125164
0.129911
0.13405
0.137682
0.140899
0.143789
0.146451
0.148993
0.151441
0.153623
0.155144
0.155542
0.154471
0.151712
0.147063
0.14047
0.132591
0.125384
0.121901
0.12483
0.134566
0.148494
0.162289
0.172299
0.17719
0.177863
0.176191
0.173774
0.171424
0.169305
0.167332
0.165463
0.163765
0.162276
0.160926
0.159519
0.157856
0.155799
0.153275
0.15026
0.146744
0.142718
0.138171
0.133091
0.127482
0.121359
0.11475
0.107701
0.100272
0.0925441
0.0846258
0.0766323
0.068686
0.0609258
0.0535027
0.0465324
0.0400995
0.0342572
0.0290315
0.0244096
0.0203708
0.0168396
0.0138203
0.0111227
0.00897462
0.00688004
0.0057884
0.0677722
0.0652584
0.0628762
0.0606161
0.0584697
0.056429
0.0544845
0.0526232
0.050828
0.049079
0.0473492
0.0456128
0.0438541
0.0420741
0.0403053
0.0386273
0.0371888
0.0362117
0.0359813
0.0368164
0.0390134
0.0427756
0.0481479
0.0549845
0.0629639
0.0716502
0.0805786
0.0893361
0.0976138
0.105223
0.11208
0.118179
0.123559
0.128287
0.132439
0.136097
0.139342
0.142245
0.144876
0.147319
0.149671