/*--------------------------------*- C++ -*----------------------------------*\
  =========                 |
  \\      /  F ield         | OpenFOAM: The Open Source CFD Toolbox
   \\    /   O peration     | Website:  https://openfoam.org
    \\  /    A nd           | Version:  10
     \\/     M anipulation  |
\*---------------------------------------------------------------------------*/
FoamFile
{
    format      ascii;
    class       volScalarField;
    location    "0.04";
    object      nut;
}
// * * * * * * * * * * * * * * * * * * * * * * * * * * * * * * * * * * * * * //

dimensions      [0 2 -1 0 0 0 0];

internalField   nonuniform List<scalar> 
6820
(
0
0
0
0
0
0
0
0
0
0
0
0
0
0
0
0
0
0
0
0
0
0
0
0
0
0
0
0
0
0
0
0
0
0
0
0
0
0
0
0
0
0
0
0
0
0
0
0
0
0
0
0
0
0
0
0
0
0
0
0
0
0
0
0
0
0
0
0
0
0
0
0
0
0
0
0
0
0
0
0
0
0
0
0
0
0
0
0
0
0
0
0
0
0
0
0
0
0
0
0
0
0
0
0
0
0
0
0
0
0
0
0
0
0
0
0
0
0
0
0
0
0
0
0
0
0
0
0
0
0
0
0
1.60417e-05
0
0
0
0
0
0
0
0
0
0
0
0
0
0
0
0
0
0
0
0
0
0
0
1.20908e-07
2.80117e-07
4.38584e-07
6.03899e-07
7.83338e-07
9.76606e-07
1.1741e-06
1.26535e-06
1.03491e-06
6.26995e-06
4.69259e-05
3.59766e-05
1.86488e-05
6.95247e-06
8.54918e-07
0
0
0
0
0
0
0
0
0
0
0
0
0
0
0
0
0
2.37524e-09
1.1767e-08
2.31075e-08
3.67581e-08
5.27645e-08
7.13583e-08
8.89285e-08
1.1365e-07
1.14885e-07
7.59384e-08
0
1.30023e-05
2.57727e-05
3.26372e-05
3.08576e-05
2.76024e-05
2.4864e-05
2.22932e-05
1.9892e-05
1.77773e-05
1.59418e-05
1.43411e-05
1.29203e-05
1.15911e-05
1.0221e-05
8.6442e-06
6.7237e-06
4.49806e-06
2.2791e-06
4.69019e-07
0
0
0
0
0
0
4.47763e-07
7.35703e-07
8.30717e-07
8.15498e-07
7.44089e-07
6.94117e-07
6.91794e-07
0
7.50686e-06
1.36407e-05
2.39078e-05
2.68335e-05
2.5756e-05
2.41481e-05
2.24203e-05
2.07253e-05
1.92135e-05
1.78984e-05
1.67686e-05
1.58327e-05
1.51005e-05
1.45726e-05
1.42226e-05
1.39032e-05
1.28326e-05
5.8119e-06
0
0
0
0
0
1.01034e-07
5.73837e-07
7.26245e-07
7.27906e-07
6.611e-07
5.73244e-07
4.82035e-07
4.41703e-07
4.84614e-07
0
5.84314e-06
7.39653e-06
1.41191e-05
1.8927e-05
2.13404e-05
2.27136e-05
2.30039e-05
2.26018e-05
2.2007e-05
2.14466e-05
2.10277e-05
2.08566e-05
2.1061e-05
2.18268e-05
2.34912e-05
2.67638e-05
3.31808e-05
4.14525e-05
8.52409e-06
0
0
0
0
2.36073e-07
4.75726e-07
5.40991e-07
5.16726e-07
4.4916e-07
3.68166e-07
2.83582e-07
2.14192e-07
1.53728e-07
0
4.6175e-06
4.71633e-06
8.60096e-06
1.2047e-05
1.44327e-05
1.68935e-05
1.87079e-05
1.96705e-05
2.01812e-05
2.05547e-05
2.09914e-05
2.16815e-05
2.28395e-05
2.47467e-05
2.78048e-05
3.23525e-05
3.648e-05
2.85167e-05
9.82522e-06
1.59017e-06
0
0
2.06949e-09
1.56442e-07
2.26653e-07
2.30588e-07
1.93823e-07
1.35115e-07
7.08728e-08
1.11961e-09
0
0
0
3.63637e-06
3.23717e-06
5.61306e-06
7.73019e-06
8.89001e-06
1.07707e-05
1.30882e-05
1.52244e-05
1.70791e-05
1.86901e-05
2.01328e-05
2.15361e-05
2.30192e-05
2.45937e-05
2.59451e-05
2.5884e-05
2.19684e-05
1.36593e-05
5.94315e-06
1.9492e-06
5.07654e-07
1.16244e-07
5.00062e-08
4.62637e-08
2.92492e-08
0
0
0
0
0
0
0
0
2.83767e-06
2.14284e-06
3.55549e-06
4.98096e-06
5.30362e-06
5.9667e-06
7.19849e-06
8.68308e-06
1.03279e-05
1.20522e-05
1.37431e-05
1.53221e-05
1.66909e-05
1.76111e-05
1.7571e-05
1.5809e-05
1.19857e-05
7.21639e-06
3.33242e-06
1.03523e-06
0
0
0
0
0
0
0
0
0
0
0
0
0
2.21522e-06
1.33988e-06
2.03511e-06
2.98036e-06
2.93392e-06
2.95526e-06
3.39103e-06
4.09364e-06
5.04975e-06
6.21978e-06
7.46152e-06
8.59827e-06
9.42066e-06
9.65995e-06
9.02689e-06
7.38721e-06
5.02015e-06
2.60885e-06
7.70895e-07
0
0
0
0
0
0
0
0
0
0
0
0
0
0
1.73492e-06
7.31748e-07
8.336e-07
1.29818e-06
9.53329e-07
5.3785e-07
3.64439e-07
3.31138e-07
4.47425e-07
7.32958e-07
1.12196e-06
1.5045e-06
1.74673e-06
1.70105e-06
1.25827e-06
4.33444e-07
0
0
0
0
0
0
0
0
0
0
0
0
0
0
0
0
0
1.36679e-06
2.68763e-07
0
0
0
0
0
0
0
0
0
0
0
0
0
0
0
0
0
0
0
0
0
0
0
0
0
0
0
0
0
0
0
1.08174e-06
0
0
0
0
0
0
0
0
0
0
0
0
0
0
0
0
0
0
0
0
0
0
0
0
0
0
0
0
0
0
0
0
8.59164e-07
0
0
0
0
0
0
0
0
0
0
0
0
0
0
0
0
0
0
0
0
0
0
0
0
0
0
0
0
0
0
0
0
6.8183e-07
0
0
0
0
0
0
0
0
0
0
0
0
0
0
0
0
0
0
0
0
0
0
0
0
0
0
0
0
5.48131e-08
0
0
0
5.36491e-07
0
0
0
0
0
0
0
0
0
0
0
0
0
0
0
0
0
0
0
0
0
0
0
0
0
0
0
3.52719e-07
7.03682e-07
4.84706e-07
0
0
4.12725e-07
0
0
0
0
0
0
0
0
0
0
0
0
0
0
0
0
0
0
0
0
0
0
0
0
0
0
4.36556e-07
8.58769e-07
1.19924e-06
9.89774e-07
0
0
3.02036e-07
0
0
0
0
0
0
0
0
0
0
0
0
0
0
0
0
0
0
0
0
0
0
0
0
1.79505e-07
6.16861e-07
1.02261e-06
1.40071e-06
1.69572e-06
1.47983e-06
1.10572e-08
0
1.9723e-07
0
0
0
0
0
0
0
0
0
0
0
0
0
0
0
0
0
0
0
0
0
0
0
3.41094e-07
7.65782e-07
1.15213e-06
1.50111e-06
1.81665e-06
2.0508e-06
1.82696e-06
4.9761e-07
0
8.96977e-08
0
0
0
0
0
0
0
0
0
0
0
0
0
0
0
0
0
0
0
0
0
0
4.22183e-07
8.34376e-07
1.20004e-06
1.52213e-06
1.80294e-06
2.0475e-06
2.21715e-06
1.99232e-06
8.26631e-07
0
0
0
0
0
0
0
0
0
0
0
0
0
0
0
0
0
0
0
0
0
0
2.82837e-07
7.09139e-07
1.07961e-06
1.39775e-06
1.66774e-06
1.89457e-06
2.08334e-06
2.24182e-06
2.342e-06
2.12119e-06
1.11191e-06
0
0
0
0
0
0
0
0
0
0
0
0
0
0
0
0
0
0
0
0
0
2.20981e-07
6.41725e-07
9.99652e-07
1.29874e-06
1.54495e-06
1.74615e-06
1.91089e-06
2.04961e-06
2.1747e-06
2.26861e-06
2.10699e-06
1.25822e-06
0
0
0
0
0
0
0
0
0
0
0
0
0
0
0
0
0
0
0
3.64627e-07
7.87598e-07
1.13687e-06
1.4181e-06
1.63927e-06
1.80983e-06
1.94251e-06
2.05247e-06
2.15513e-06
2.26586e-06
2.39642e-06
2.52861e-06
2.44218e-06
1.66851e-06
0
0
0
0
0
0
0
0
0
0
0
0
0
0
0
0
0
0
1.34534e-07
5.61293e-07
9.096e-07
1.18588e-06
1.40083e-06
1.56905e-06
1.70807e-06
1.83582e-06
1.96984e-06
2.13098e-06
2.32764e-06
2.55537e-06
2.78127e-06
2.76036e-06
1.98859e-06
0
0
0
0
0
0
0
0
0
0
0
0
0
0
0
4.31603e-07
9.2191e-07
1.31186e-06
1.60755e-06
1.82078e-06
1.96776e-06
2.06828e-06
2.14571e-06
2.22949e-06
2.3472e-06
2.4986e-06
2.67553e-06
2.89413e-06
3.15112e-06
3.42461e-06
3.66796e-06
3.6215e-06
2.74921e-06
0
0
0
0
0
0
0
0
0
0
0
0
0
0
1.78822e-07
6.76463e-07
1.06812e-06
1.3624e-06
1.57387e-06
1.72537e-06
1.84371e-06
1.95577e-06
2.08104e-06
2.25024e-06
2.48431e-06
2.74457e-06
2.98793e-06
3.22429e-06
3.46086e-06
3.68692e-06
3.86209e-06
3.72441e-06
2.78588e-06
0
0
0
0
0
0
0
0
0
4.28745e-07
1.29007e-06
2.01148e-06
2.57962e-06
2.99403e-06
3.2665e-06
3.41626e-06
3.47635e-06
3.4825e-06
3.46745e-06
3.46735e-06
3.5158e-06
3.6165e-06
3.73737e-06
3.87714e-06
4.04981e-06
4.24484e-06
4.43732e-06
4.58626e-06
4.68032e-06
4.73102e-06
4.71882e-06
4.42799e-06
3.40575e-06
0
0
0
0
0
0
0
0
7.86026e-07
1.72758e-06
2.50344e-06
3.10825e-06
3.54593e-06
3.83554e-06
4.00529e-06
4.07831e-06
4.10793e-06
4.13952e-06
4.163e-06
4.1838e-06
4.24745e-06
4.33586e-06
4.37044e-06
4.3248e-06
4.21525e-06
4.09778e-06
4.00981e-06
3.91083e-06
3.78606e-06
3.64896e-06
3.48562e-06
3.11177e-06
2.22635e-06
0
1.3383e-06
3.7145e-07
1.74807e-06
3.48847e-06
4.89859e-06
6.02817e-06
6.94379e-06
7.67897e-06
8.2518e-06
8.66173e-06
8.91113e-06
9.02466e-06
9.04103e-06
8.99147e-06
8.87943e-06
8.73656e-06
8.57661e-06
8.30474e-06
7.89693e-06
7.46712e-06
7.05859e-06
6.64274e-06
6.19253e-06
5.69866e-06
5.20781e-06
4.76212e-06
4.35696e-06
3.98534e-06
3.6435e-06
3.31433e-06
2.89753e-06
2.15143e-06
0
0
1.27369e-07
2.98763e-06
5.37848e-06
7.20807e-06
8.59174e-06
9.61559e-06
1.03428e-05
1.08392e-05
1.11744e-05
1.14104e-05
1.15771e-05
1.16602e-05
1.16558e-05
1.1549e-05
1.1286e-05
1.0839e-05
1.01622e-05
9.23201e-06
8.126e-06
6.94509e-06
5.79124e-06
4.71382e-06
3.72323e-06
2.84111e-06
2.07846e-06
1.42749e-06
8.71484e-07
3.94017e-07
0
0
0
2.07353e-05
1.40628e-05
1.09981e-05
1.0634e-05
1.12488e-05
1.2172e-05
1.31009e-05
1.38421e-05
1.4317e-05
1.45781e-05
1.47349e-05
1.48674e-05
1.49797e-05
1.50304e-05
1.50156e-05
1.49051e-05
1.45508e-05
1.3889e-05
1.29942e-05
1.18472e-05
1.03948e-05
8.71468e-06
6.97116e-06
5.3013e-06
3.79314e-06
2.50003e-06
1.43671e-06
5.85061e-07
0
0
0
0
0
1.29766e-05
2.64307e-05
2.03374e-05
1.60463e-05
1.44421e-05
1.41444e-05
1.42874e-05
1.4534e-05
1.48e-05
1.51066e-05
1.54741e-05
1.58932e-05
1.63429e-05
1.68009e-05
1.72137e-05
1.74643e-05
1.73983e-05
1.69245e-05
1.60005e-05
1.45146e-05
1.23965e-05
9.77204e-06
6.91391e-06
4.13021e-06
1.66756e-06
0
0
0
0
0
0
0
0
5.87418e-05
6.21755e-05
3.98326e-05
2.71507e-05
1.90763e-05
1.29594e-05
8.16783e-06
4.45084e-06
1.70191e-06
0
0
0
0
0
0
0
0
0
0
0
0
0
2.20843e-07
4.58505e-07
6.82901e-07
8.98377e-07
1.10864e-06
1.31599e-06
1.52091e-06
1.72195e-06
1.91559e-06
2.08739e-06
2.19427e-06
0
0
0
0
0
0
0
0
0
0
0
0
0
0
0
0
0
0
0
0
0
0
0
0
0
0
0
0
0
0
0
0
0
4.00163e-08
0
0
0
0
0
0
0
0
0
0
0
0
0
0
0
0
0
0
0
0
0
0
0
0
0
0
0
0
0
0
0
0
2.1346e-08
0
0
0
0
0
0
0
0
0
0
0
0
0
0
0
0
0
0
0
0
0
0
0
0
0
0
0
0
0
0
0
0
9.75134e-09
0
0
0
0
0
0
0
0
0
0
0
0
0
0
0
0
0
0
0
0
0
0
0
0
0
0
0
0
0
0
0
0
1.04551e-06
9.6645e-07
6.86118e-08
0
0
0
0
0
0
0
0
0
0
0
0
0
0
3.94361e-06
1.18904e-05
1.42919e-05
2.61087e-05
2.4862e-05
1.64074e-05
1.28575e-05
1.00482e-05
1.19148e-05
1.55063e-05
1.77146e-05
1.80807e-05
1.71297e-05
1.54239e-05
1.34118e-05
1.15018e-05
9.91334e-06
8.62916e-06
7.49393e-06
6.34805e-06
5.10038e-06
3.73087e-06
2.26259e-06
7.35164e-07
0
0
0
0
0
0
0
0
0
0
0
0
0
0
0
0
0
0
0
0
0
0
0
0
0
0
0
0
0
0
0
0
0
0
0
0
0
0
0
0
0
0
0
0
0
0
0
0
0
0
0
0
0
0
1.80903e-08
3.79085e-08
3.36418e-08
3.21389e-08
4.79453e-08
9.0741e-07
6.68548e-07
5.77055e-07
2.9805e-07
5.23141e-08
0
0
0
0
0
0
0
0
0
0
0
0
7.15821e-07
1.47259e-05
4.42843e-05
3.92651e-05
2.30352e-05
1.32364e-05
9.93791e-06
1.04042e-05
1.47621e-05
1.83497e-05
1.99531e-05
1.98078e-05
1.84956e-05
1.65159e-05
1.43966e-05
1.25366e-05
1.1071e-05
9.89969e-06
8.8274e-06
7.69448e-06
6.42644e-06
5.01971e-06
3.50745e-06
1.93397e-06
3.45177e-07
0
0
0
0
0
0
0
0
0
0
0
0
0
0
0
0
0
0
0
0
0
0
0
0
0
0
0
0
0
0
0
0
0
0
0
0
0
0
0
0
0
0
0
0
0
0
0
0
0
0
0
0
0
0
0
0
0
0
1.10847e-08
1.19439e-07
8.57307e-07
1.1213e-06
1.08036e-06
0
0
0
0
0
0
0
0
0
0
0
0
1.92345e-06
3.56443e-05
4.3884e-05
3.14855e-05
1.52352e-05
9.46014e-06
8.51188e-06
1.27937e-05
1.72508e-05
1.99975e-05
2.08349e-05
2.02175e-05
1.86115e-05
1.65598e-05
1.45751e-05
1.29606e-05
1.17459e-05
1.07665e-05
9.81595e-06
8.75365e-06
7.52826e-06
6.15247e-06
4.66807e-06
3.12132e-06
1.5573e-06
2.61158e-08
0
0
0
0
0
0
0
0
0
0
0
0
0
0
0
0
0
0
0
0
0
0
0
0
0
0
0
0
0
0
0
0
0
0
0
0
0
0
0
0
0
0
0
0
0
0
0
0
0
0
0
0
0
0
0
0
0
0
0
5.90478e-07
7.94147e-07
6.95373e-07
0
0
0
0
0
0
0
0
0
0
0
0
1.39644e-05
2.72152e-05
2.94029e-05
1.62625e-05
8.45953e-06
6.83855e-06
1.07102e-05
1.54566e-05
1.89887e-05
2.07625e-05
2.09594e-05
1.99342e-05
1.81752e-05
1.62275e-05
1.45171e-05
1.32299e-05
1.23005e-05
1.15237e-05
1.07015e-05
9.72079e-06
8.55448e-06
7.22986e-06
5.79587e-06
4.30045e-06
2.78534e-06
1.29734e-06
0
0
0
0
0
0
0
0
0
0
0
0
0
0
0
0
0
0
0
0
0
0
0
0
0
0
0
0
0
0
0
0
0
0
0
0
0
0
0
0
0
0
0
0
0
0
0
0
0
0
0
0
0
0
0
0
0
1.07556e-06
2.66449e-06
5.84285e-06
3.10852e-06
5.01048e-07
0
0
0
0
0
0
0
0
0
0
0
1.7019e-06
1.00831e-05
1.57399e-05
1.08756e-05
6.08445e-06
5.14849e-06
8.86859e-06
1.35449e-05
1.74933e-05
2.00137e-05
2.09963e-05
2.06342e-05
1.93206e-05
1.75667e-05
1.58505e-05
1.44881e-05
1.35523e-05
1.29e-05
1.23068e-05
1.15967e-05
1.06881e-05
9.57684e-06
8.30307e-06
6.9212e-06
5.48048e-06
4.01975e-06
2.57988e-06
1.21948e-06
1.08197e-08
0
0
0
0
0
0
0
0
0
0
0
0
0
0
0
0
0
0
0
0
0
0
0
0
0
0
0
0
0
0
0
0
0
0
0
0
0
0
0
0
0
0
0
0
0
0
0
0
0
0
0
0
0
0
0
1.85123e-07
4.19882e-07
9.58629e-07
4.33798e-07
2.31068e-07
0
0
0
0
0
0
0
0
0
0
0
0
1.20383e-06
3.49066e-06
2.68915e-06
3.65682e-06
7.36585e-06
1.17033e-05
1.57473e-05
1.87672e-05
2.04125e-05
2.07048e-05
1.99245e-05
1.85045e-05
1.69072e-05
1.55203e-05
1.45501e-05
1.39647e-05
1.35636e-05
1.31248e-05
1.25051e-05
1.16553e-05
1.05924e-05
9.36695e-06
8.03692e-06
6.65176e-06
5.24802e-06
3.86096e-06
2.54341e-06
1.36832e-06
3.99851e-07
0
0
0
0
0
0
0
0
0
0
0
0
0
0
0
0
0
0
0
0
0
0
0
0
0
0
0
0
0
0
0
0
0
0
0
0
0
0
0
0
0
0
0
0
0
0
0
0
0
0
0
0
0
0
9.61313e-07
1.02965e-06
8.94804e-07
5.14228e-07
2.14941e-08
0
0
0
0
0
0
0
0
0
0
0
0
2.93925e-07
9.28368e-07
3.06251e-06
6.21807e-06
1.00067e-05
1.38936e-05
1.71526e-05
1.92805e-05
2.01515e-05
1.99301e-05
1.89456e-05
1.7596e-05
1.62782e-05
1.52919e-05
1.47327e-05
1.44744e-05
1.4285e-05
1.3966e-05
1.34136e-05
1.26101e-05
1.15903e-05
1.04118e-05
9.1344e-06
7.80659e-06
6.46238e-06
5.13241e-06
3.86367e-06
2.72645e-06
1.78914e-06
1.07164e-06
5.00038e-07
0
0
0
0
0
0
0
0
0
0
0
0
0
0
0
0
0
0
0
0
0
0
0
0
0
0
0
0
0
0
0
0
0
0
0
0
0
0
0
0
0
0
0
0
0
0
0
0
0
0
0
0
6.6075e-07
5.76347e-07
3.06334e-07
0
0
0
0
0
0
0
0
0
0
0
0
0
0
7.87941e-07
2.53654e-06
5.10784e-06
8.40169e-06
1.19991e-05
1.52588e-05
1.7667e-05
1.90051e-05
1.9321e-05
1.88283e-05
1.78333e-05
1.66948e-05
1.57538e-05
1.52143e-05
1.50548e-05
1.50769e-05
1.50492e-05
1.48131e-05
1.43065e-05
1.35391e-05
1.2559e-05
1.14279e-05
1.0205e-05
8.93718e-06
7.65557e-06
6.38647e-06
5.17165e-06
4.07809e-06
3.17637e-06
2.49312e-06
1.96143e-06
1.39781e-06
5.59675e-07
0
0
0
0
0
0
0
0
0
0
0
0
0
0
0
0
0
0
0
0
0
0
0
0
0
0
0
0
0
0
0
0
0
0
0
0
0
0
0
0
0
0
0
0
0
0
0
0
0
0
1.16944e-07
0
0
0
0
0
0
0
0
0
0
0
0
0
0
0
0
1.30866e-06
3.70293e-06
6.69287e-06
9.97504e-06
1.30879e-05
1.56158e-05
1.73106e-05
1.81167e-05
1.81307e-05
1.75611e-05
1.67031e-05
1.58938e-05
1.54057e-05
1.53231e-05
1.55161e-05
1.57528e-05
1.58323e-05
1.56448e-05
1.51665e-05
1.44286e-05
1.34874e-05
1.24056e-05
1.12403e-05
1.00358e-05
8.82038e-06
7.61617e-06
6.45976e-06
5.41485e-06
4.55346e-06
3.90795e-06
3.41842e-06
2.90684e-06
2.13195e-06
9.56573e-07
0
0
0
0
0
0
0
0
0
0
0
0
0
0
0
0
0
0
0
0
0
0
0
0
0
0
0
0
0
0
0
0
0
0
0
0
0
0
0
0
0
0
0
0
0
0
0
0
0
0
0
0
0
0
0
0
0
0
0
0
0
0
0
0
0
0
1.79947e-06
4.62071e-06
7.65188e-06
1.0604e-05
1.31761e-05
1.5138e-05
1.63696e-05
1.68705e-05
1.67576e-05
1.62552e-05
1.56662e-05
1.52899e-05
1.52922e-05
1.56267e-05
1.60928e-05
1.64692e-05
1.66048e-05
1.64382e-05
1.59766e-05
1.52654e-05
1.4365e-05
1.33359e-05
1.22322e-05
1.10948e-05
9.94951e-06
8.81441e-06
7.721e-06
6.7293e-06
5.91222e-06
5.30741e-06
4.86215e-06
4.40472e-06
3.69514e-06
2.58869e-06
1.17796e-06
0
0
0
0
0
0
0
0
0
0
0
0
0
0
0
0
0
0
0
0
0
0
0
0
0
0
0
0
0
0
0
0
0
0
0
0
0
0
0
0
0
0
0
0
0
0
0
0
0
0
0
0
0
0
0
0
0
0
0
0
0
0
0
0
0
2.16556e-06
5.02416e-06
7.85573e-06
1.04465e-05
1.25997e-05
1.41733e-05
1.51071e-05
1.54433e-05
1.53367e-05
1.50404e-05
1.48461e-05
1.49677e-05
1.54346e-05
1.60979e-05
1.67406e-05
1.71853e-05
1.73358e-05
1.71713e-05
1.67209e-05
1.60379e-05
1.51821e-05
1.42106e-05
1.31729e-05
1.2107e-05
1.10357e-05
9.97394e-06
8.94814e-06
8.01425e-06
7.24533e-06
6.6838e-06
6.28397e-06
5.88157e-06
5.24041e-06
4.2086e-06
2.86581e-06
1.46286e-06
2.36852e-07
0
0
0
0
0
0
0
0
0
0
0
0
0
0
0
0
0
0
0
0
0
0
0
0
0
0
0
0
0
0
0
0
0
0
0
0
0
0
0
0
0
0
0
0
0
0
0
0
0
0
0
0
0
0
0
0
0
0
0
0
0
0
0
2.3211e-06
5.02479e-06
7.59077e-06
9.85212e-06
1.1667e-05
1.29478e-05
1.36868e-05
1.39773e-05
1.40165e-05
1.40658e-05
1.43537e-05
1.49637e-05
1.58025e-05
1.66778e-05
1.74036e-05
1.7859e-05
1.79965e-05
1.7825e-05
1.73863e-05
1.6736e-05
1.59306e-05
1.5022e-05
1.40553e-05
1.3065e-05
1.20718e-05
1.10874e-05
1.01337e-05
9.26214e-06
8.54523e-06
8.02953e-06
7.67612e-06
7.32846e-06
6.75665e-06
5.80562e-06
4.54099e-06
3.20409e-06
2.03321e-06
1.16815e-06
6.43498e-07
3.85303e-07
2.17992e-07
0
0
0
0
0
0
0
0
0
0
0
0
0
0
0
0
0
0
0
0
0
0
0
0
0
0
0
0
0
0
0
0
0
0
0
0
0
0
0
0
0
0
0
0
0
0
0
0
0
0
0
0
0
0
0
0
0
0
0
2.36903e-06
4.82328e-06
7.08596e-06
9.02524e-06
1.05441e-05
1.1605e-05
1.22546e-05
1.26361e-05
1.29673e-05
1.34648e-05
1.42392e-05
1.52436e-05
1.632e-05
1.72914e-05
1.80248e-05
1.84525e-05
1.85632e-05
1.83842e-05
1.79626e-05
1.73518e-05
1.66033e-05
1.57634e-05
1.48724e-05
1.39619e-05
1.30506e-05
1.21474e-05
1.127e-05
1.04652e-05
9.80407e-06
9.33669e-06
9.03061e-06
8.73721e-06
8.23429e-06
7.36746e-06
6.19091e-06
4.93335e-06
3.82853e-06
3.01629e-06
2.53401e-06
2.31254e-06
2.17974e-06
1.92238e-06
1.39161e-06
5.65961e-07
0
0
0
0
0
0
0
0
0
0
0
0
0
0
0
0
0
0
0
0
0
0
0
0
0
0
0
0
0
0
0
0
0
0
0
0
0
0
0
0
0
0
0
0
0
0
0
0
0
0
0
0
0
0
0
1.10962e-07
2.34988e-06
4.49956e-06
6.4412e-06
8.07807e-06
9.35737e-06
1.02938e-05
1.09859e-05
1.16048e-05
1.23368e-05
1.32942e-05
1.44598e-05
1.57105e-05
1.68889e-05
1.78637e-05
1.85553e-05
1.89364e-05
1.90189e-05
1.88387e-05
1.84426e-05
1.78793e-05
1.71944e-05
1.64286e-05
1.56178e-05
1.47909e-05
1.39648e-05
1.31464e-05
1.23492e-05
1.16154e-05
1.10137e-05
1.05971e-05
1.03391e-05
1.00994e-05
9.66445e-06
8.8836e-06
7.8024e-06
6.63616e-06
5.61038e-06
4.86164e-06
4.42893e-06
4.24855e-06
4.15366e-06
3.92994e-06
3.42107e-06
2.60051e-06
1.54535e-06
3.58273e-07
0
0
0
0
0
0
0
0
0
0
0
0
0
0
0
0
0
0
0
0
0
0
0
0
0
0
0
0
0
0
0
0
0
0
0
0
0
0
0
0
0
0
0
0
0
0
0
0
0
0
0
0
0
3.45044e-07
2.27989e-06
4.10837e-06
5.74191e-06
7.12412e-06
8.25189e-06
9.19071e-06
1.00684e-05
1.10316e-05
1.21751e-05
1.34938e-05
1.48928e-05
1.62397e-05
1.74137e-05
1.8333e-05
1.89595e-05
1.92918e-05
1.93536e-05
1.91825e-05
1.88217e-05
1.83139e-05
1.76988e-05
1.70118e-05
1.62852e-05
1.55452e-05
1.48074e-05
1.40769e-05
1.33636e-05
1.27046e-05
1.2166e-05
1.18025e-05
1.15933e-05
1.14063e-05
1.10382e-05
1.03443e-05
9.36441e-06
8.29997e-06
7.36551e-06
6.69154e-06
6.31654e-06
6.18239e-06
6.12929e-06
5.94405e-06
5.46367e-06
4.65295e-06
3.58629e-06
2.37339e-06
1.10023e-06
0
0
0
0
0
0
0
0
0
0
0
0
0
0
0
0
0
0
0
0
0
0
0
0
0
0
0
0
0
0
0
0
0
0
0
0
0
0
0
0
0
0
0
0
0
0
0
0
0
0
0
0
5.43868e-07
2.16765e-06
3.69319e-06
5.07002e-06
6.28844e-06
7.39204e-06
8.47193e-06
9.63303e-06
1.09423e-05
1.2393e-05
1.39105e-05
1.53862e-05
1.67154e-05
1.78204e-05
1.86581e-05
1.92171e-05
1.95098e-05
1.95635e-05
1.94134e-05
1.90973e-05
1.86521e-05
1.81119e-05
1.75079e-05
1.68687e-05
1.62184e-05
1.55714e-05
1.49315e-05
1.43053e-05
1.37248e-05
1.32527e-05
1.29445e-05
1.27848e-05
1.26496e-05
1.23466e-05
1.17398e-05
1.08662e-05
9.91338e-06
9.08239e-06
8.49462e-06
8.18617e-06
8.10394e-06
8.096e-06
7.9524e-06
7.50554e-06
6.7116e-06
5.64006e-06
4.40253e-06
3.09228e-06
1.76251e-06
4.33333e-07
0
0
0
0
0
0
0
0
0
0
0
0
0
0
0
0
0
0
0
0
0
0
0
0
0
3.75377e-10
1.07592e-07
1.75671e-07
2.22385e-07
2.43691e-07
2.79752e-07
2.84047e-07
4.20187e-07
5.17911e-07
0
0
0
0
0
0
0
0
0
0
0
0
0
0
0
0
6.99612e-07
2.0421e-06
3.32571e-06
4.543e-06
5.72441e-06
6.93163e-06
8.23154e-06
9.6613e-06
1.12064e-05
1.28043e-05
1.43672e-05
1.58071e-05
1.70539e-05
1.80638e-05
1.88187e-05
1.93214e-05
1.95894e-05
1.9649e-05
1.95311e-05
1.92679e-05
1.88911e-05
1.843e-05
1.7912e-05
1.73626e-05
1.68041e-05
1.625e-05
1.5703e-05
1.51666e-05
1.4668e-05
1.42657e-05
1.40151e-05
1.39054e-05
1.38209e-05
1.3581e-05
1.30606e-05
1.22967e-05
1.14646e-05
1.07493e-05
1.02598e-05
1.00274e-05
1.00033e-05
1.0044e-05
9.94469e-06
9.53466e-06
8.7624e-06
7.69229e-06
6.43587e-06
5.09062e-06
3.71624e-06
2.34045e-06
9.77711e-07
0
0
0
0
0
0
0
0
0
0
0
0
0
0
0
0
0
0
0
2.48666e-07
5.48153e-07
7.86374e-07
9.64073e-07
1.08513e-06
1.15169e-06
1.17539e-06
1.15554e-06
1.12442e-06
1.05188e-06
1.03665e-06
9.38287e-07
1.17071e-06
1.34353e-06
0
0
0
0
0
0
0
0
0
0
0
0
0
0
0
0
8.17294e-07
1.95047e-06
3.09628e-06
4.27783e-06
5.53382e-06
6.90009e-06
8.38878e-06
9.97703e-06
1.16104e-05
1.3217e-05
1.47236e-05
1.60689e-05
1.72107e-05
1.81266e-05
1.8812e-05
1.92755e-05
1.95349e-05
1.96132e-05
1.95367e-05
1.93328e-05
1.90286e-05
1.86494e-05
1.82195e-05
1.77616e-05
1.72964e-05
1.68367e-05
1.63844e-05
1.59403e-05
1.55267e-05
1.51973e-05
1.50064e-05
1.49472e-05
1.49122e-05
1.47331e-05
1.42974e-05
1.36453e-05
1.29415e-05
1.23535e-05
1.19748e-05
1.18288e-05
1.18696e-05
1.1963e-05
1.19108e-05
1.1541e-05
1.07948e-05
9.7306e-06
8.45939e-06
7.0822e-06
5.66373e-06
4.23684e-06
2.82219e-06
1.44998e-06
1.69736e-07
0
0
0
0
0
0
0
0
0
0
0
0
0
2.30547e-07
6.86792e-07
1.08769e-06
1.42657e-06
1.70046e-06
1.90946e-06
2.05666e-06
2.14487e-06
2.18019e-06
2.16387e-06
2.11064e-06
2.01271e-06
1.91581e-06
1.76235e-06
1.7091e-06
1.51666e-06
1.85647e-06
2.0555e-06
0
0
0
0
0
0
0
0
0
0
0
0
0
0
0
0
9.4059e-07
1.96939e-06
3.08926e-06
4.32196e-06
5.68128e-06
7.16248e-06
8.73761e-06
1.03584e-05
1.19651e-05
1.34965e-05
1.48992e-05
1.61335e-05
1.71745e-05
1.80117e-05
1.86464e-05
1.90882e-05
1.93529e-05
1.94601e-05
1.9432e-05
1.92917e-05
1.90628e-05
1.87673e-05
1.84265e-05
1.80611e-05
1.76901e-05
1.73258e-05
1.69695e-05
1.66197e-05
1.62939e-05
1.60402e-05
1.5911e-05
1.59024e-05
1.59155e-05
1.57947e-05
1.54413e-05
1.49014e-05
1.43314e-05
1.38815e-05
1.36262e-05
1.35776e-05
1.36909e-05
1.38414e-05
1.38395e-05
1.35136e-05
1.27984e-05
1.17455e-05
1.04635e-05
9.05642e-06
7.59423e-06
6.11528e-06
4.6453e-06
3.22046e-06
1.89758e-06
7.4255e-07
0
0
0
0
0
0
0
0
0
4.84121e-07
9.99619e-07
1.49172e-06
1.94114e-06
2.33393e-06
2.66165e-06
2.92012e-06
3.10887e-06
3.2301e-06
3.28887e-06
3.28953e-06
3.24053e-06
3.14315e-06
3.01578e-06
2.84493e-06
2.68816e-06
2.46252e-06
2.37589e-06
2.09925e-06
2.5328e-06
2.7599e-06
0
0
0
0
0
0
0
0
0
0
0
0
0
0
0
2.27468e-07
1.11861e-06
2.13575e-06
3.28987e-06
4.58173e-06
5.9978e-06
7.50895e-06
9.07285e-06
1.06393e-05
1.21569e-05
1.3579e-05
1.48684e-05
1.59989e-05
1.69556e-05
1.77335e-05
1.83354e-05
1.87701e-05
1.90508e-05
1.91941e-05
1.92187e-05
1.91447e-05
1.89923e-05
1.87811e-05
1.85297e-05
1.8257e-05
1.79806e-05
1.77123e-05
1.74529e-05
1.7199e-05
1.6963e-05
1.67875e-05
1.67215e-05
1.67637e-05
1.68232e-05
1.67578e-05
1.64836e-05
1.60545e-05
1.56219e-05
1.53191e-05
1.51994e-05
1.52597e-05
1.54539e-05
1.56665e-05
1.57183e-05
1.54401e-05
1.47612e-05
1.37253e-05
1.24372e-05
1.1002e-05
9.49471e-06
7.96e-06
6.43008e-06
4.94749e-06
3.57576e-06
2.38734e-06
1.4409e-06
7.65586e-07
3.59515e-07
1.99135e-07
2.48212e-07
4.65427e-07
8.08926e-07
1.23859e-06
1.71704e-06
2.21054e-06
2.69041e-06
3.13365e-06
3.5228e-06
3.84597e-06
4.0967e-06
4.27288e-06
4.37627e-06
4.41097e-06
4.3839e-06
4.30088e-06
4.17258e-06
4.00039e-06
3.80618e-06
3.5709e-06
3.36322e-06
3.07515e-06
2.96486e-06
2.61448e-06
3.15508e-06
3.40901e-06
0
0
0
0
0
0
0
0
0
0
0
0
0
0
0
4.86902e-07
1.37811e-06
2.4165e-06
3.59716e-06
4.90408e-06
6.31029e-06
7.7797e-06
9.27049e-06
1.07394e-05
1.21457e-05
1.34549e-05
1.46402e-05
1.56835e-05
1.65745e-05
1.73103e-05
1.78935e-05
1.83315e-05
1.86355e-05
1.88193e-05
1.88991e-05
1.88923e-05
1.88165e-05
1.86891e-05
1.85267e-05
1.83463e-05
1.81644e-05
1.79921e-05
1.78299e-05
1.76726e-05
1.75281e-05
1.74324e-05
1.74308e-05
1.75234e-05
1.76275e-05
1.76142e-05
1.74153e-05
1.7094e-05
1.67996e-05
1.66507e-05
1.66777e-05
1.68585e-05
1.71425e-05
1.7423e-05
1.75323e-05
1.73063e-05
1.66697e-05
1.5658e-05
1.43702e-05
1.29111e-05
1.13597e-05
9.76726e-06
8.17388e-06
6.63068e-06
5.20935e-06
3.98891e-06
3.0313e-06
2.36455e-06
1.98239e-06
1.85463e-06
1.93791e-06
2.18466e-06
2.54826e-06
2.98542e-06
3.45721e-06
3.92961e-06
4.37435e-06
4.76941e-06
5.09897e-06
5.35319e-06
5.5277e-06
5.62255e-06
5.6417e-06
5.59114e-06
5.47971e-06
5.31461e-06
5.10857e-06
4.863e-06
4.60292e-06
4.30427e-06
4.04578e-06
3.69691e-06
3.56127e-06
3.14243e-06
3.77305e-06
4.07005e-06
0
0
0
0
0
0
0
0
0
0
0
0
0
0
2.35334e-08
7.80243e-07
1.68267e-06
2.72536e-06
3.89385e-06
5.16557e-06
6.5111e-06
7.89637e-06
9.28545e-06
1.06433e-05
1.19384e-05
1.31441e-05
1.42403e-05
1.52128e-05
1.60535e-05
1.67599e-05
1.7334e-05
1.7782e-05
1.81132e-05
1.83396e-05
1.84752e-05
1.85352e-05
1.85351e-05
1.84903e-05
1.84158e-05
1.83268e-05
1.82386e-05
1.81617e-05
1.80964e-05
1.80358e-05
1.79833e-05
1.79685e-05
1.80317e-05
1.81741e-05
1.83206e-05
1.83562e-05
1.82281e-05
1.801e-05
1.78521e-05
1.78612e-05
1.80445e-05
1.83572e-05
1.87405e-05
1.9095e-05
1.9266e-05
1.90964e-05
1.85081e-05
1.75276e-05
1.62463e-05
1.47666e-05
1.31706e-05
1.15162e-05
9.85238e-06
8.24098e-06
6.76418e-06
5.50879e-06
4.53944e-06
3.88206e-06
3.52479e-06
3.42971e-06
3.54576e-06
3.81888e-06
4.19777e-06
4.63631e-06
5.0944e-06
5.53816e-06
5.94027e-06
6.28018e-06
6.54406e-06
6.72436e-06
6.81908e-06
6.83062e-06
6.76507e-06
6.63032e-06
6.437e-06
6.19353e-06
5.91442e-06
5.60091e-06
5.2809e-06
4.9252e-06
4.62282e-06
4.22026e-06
4.06934e-06
3.59011e-06
4.33827e-06
4.66342e-06
0
0
0
0
0
0
0
0
0
0
0
0
0
0
3.35835e-07
1.09192e-06
1.98066e-06
2.9915e-06
4.10739e-06
5.30587e-06
6.56029e-06
7.84163e-06
9.1204e-06
1.03685e-05
1.15607e-05
1.26756e-05
1.36963e-05
1.46109e-05
1.54121e-05
1.60973e-05
1.66681e-05
1.71294e-05
1.74895e-05
1.77588e-05
1.79494e-05
1.80747e-05
1.81485e-05
1.81845e-05
1.81959e-05
1.81968e-05
1.8201e-05
1.82182e-05
1.82485e-05
1.82836e-05
1.83227e-05
1.83889e-05
1.85169e-05
1.87078e-05
1.8894e-05
1.89744e-05
1.89113e-05
1.87899e-05
1.87639e-05
1.89319e-05
1.92786e-05
1.97334e-05
2.02251e-05
2.066e-05
2.08972e-05
2.07896e-05
2.02575e-05
1.93181e-05
1.80533e-05
1.65607e-05
1.4924e-05
1.32081e-05
1.14724e-05
9.79139e-06
8.2603e-06
6.97487e-06
6.00234e-06
5.36523e-06
5.04449e-06
4.99344e-06
5.15255e-06
5.46075e-06
5.86181e-06
6.30693e-06
6.75504e-06
7.17264e-06
7.53361e-06
7.81923e-06
8.01792e-06
8.12455e-06
8.13967e-06
8.06808e-06
7.9181e-06
7.69944e-06
7.42444e-06
7.10262e-06
6.75005e-06
6.36775e-06
5.98623e-06
5.57185e-06
5.22288e-06
4.76573e-06
4.5949e-06
4.05787e-06
4.9e-06
5.26957e-06
0
0
0
0
0
0
0
0
0
0
0
0
0
4.66193e-08
6.53809e-07
1.38191e-06
2.22505e-06
3.17196e-06
4.20687e-06
5.31016e-06
6.45949e-06
7.63101e-06
8.80067e-06
9.94537e-06
1.1044e-05
1.20782e-05
1.30332e-05
1.38981e-05
1.46661e-05
1.53346e-05
1.59048e-05
1.63808e-05
1.67696e-05
1.70805e-05
1.7324e-05
1.75121e-05
1.76572e-05
1.77712e-05
1.78664e-05
1.79549e-05
1.80494e-05
1.81587e-05
1.82826e-05
1.84118e-05
1.85416e-05
1.86885e-05
1.88812e-05
1.91199e-05
1.93437e-05
1.9465e-05
1.9461e-05
1.9429e-05
1.95285e-05
1.98536e-05
2.03685e-05
2.09742e-05
2.15828e-05
2.21034e-05
2.24098e-05
2.23672e-05
2.18971e-05
2.1007e-05
1.97664e-05
1.82653e-05
1.65874e-05
1.48041e-05
1.29874e-05
1.12279e-05
9.63673e-06
8.31973e-06
7.34586e-06
6.73248e-06
6.45172e-06
6.44705e-06
6.64973e-06
6.99132e-06
7.41071e-06
7.85672e-06
8.28794e-06
8.67188e-06
8.9843e-06
9.20878e-06
9.33629e-06
9.36437e-06
9.29621e-06
9.13908e-06
8.90356e-06
8.6012e-06
8.24601e-06
7.84855e-06
7.42633e-06
6.97999e-06
6.54262e-06
6.07581e-06
5.6878e-06
5.18341e-06
5.00519e-06
4.41803e-06
5.39629e-06
5.78218e-06
2.82942e-07
0
0
0
0
0
0
0
0
0
0
0
0
3.57352e-07
9.26769e-07
1.60095e-06
2.37412e-06
3.23664e-06
4.17546e-06
5.17456e-06
6.21573e-06
7.27943e-06
8.34561e-06
9.39463e-06
1.04081e-05
1.13696e-05
1.22656e-05
1.30863e-05
1.38251e-05
1.44795e-05
1.50502e-05
1.55406e-05
1.59569e-05
1.63071e-05
1.66008e-05
1.68486e-05
1.70617e-05
1.72509e-05
1.74268e-05
1.76003e-05
1.77824e-05
1.79812e-05
1.81959e-05
1.84165e-05
1.86349e-05
1.8861e-05
1.91171e-05
1.94014e-05
1.96591e-05
1.98155e-05
1.98634e-05
1.99123e-05
2.01296e-05
2.06077e-05
2.12925e-05
2.20554e-05
2.27874e-05
2.33977e-05
2.37753e-05
2.38014e-05
2.34017e-05
2.25747e-05
2.13744e-05
1.98788e-05
1.81686e-05
1.63213e-05
1.44237e-05
1.2587e-05
1.0942e-05
9.60605e-06
8.64776e-06
8.07655e-06
7.85363e-06
7.91143e-06
8.17147e-06
8.55768e-06
9.00403e-06
9.45709e-06
9.87548e-06
1.02282e-05
1.04932e-05
1.06569e-05
1.07131e-05
1.06622e-05
1.05102e-05
1.02672e-05
9.94582e-06
9.55952e-06
9.12374e-06
8.6499e-06
8.15666e-06
7.64434e-06
7.14824e-06
6.62593e-06
6.19445e-06
5.64018e-06
5.44704e-06
4.80964e-06
5.8913e-06
6.31729e-06
7.41732e-07
9.61366e-08
0
0
0
0
0
0
0
0
0
0
2.21094e-07
6.36573e-07
1.145e-06
1.745e-06
2.43202e-06
3.19854e-06
4.03422e-06
4.9262e-06
5.85963e-06
6.81823e-06
7.78497e-06
8.74277e-06
9.67533e-06
1.0568e-05
1.14084e-05
1.21873e-05
1.28987e-05
1.35395e-05
1.41101e-05
1.46134e-05
1.50547e-05
1.54413e-05
1.57818e-05
1.6086e-05
1.63637e-05
1.66248e-05
1.68784e-05
1.7134e-05
1.74012e-05
1.76869e-05
1.79903e-05
1.83005e-05
1.8607e-05
1.89132e-05
1.92345e-05
1.95661e-05
1.98582e-05
2.0049e-05
2.01462e-05
2.02716e-05
2.06009e-05
2.12273e-05
2.20813e-05
2.30047e-05
2.38635e-05
2.45628e-05
2.50065e-05
2.50948e-05
2.47622e-05
2.40005e-05
2.28463e-05
2.13604e-05
1.96151e-05
1.76922e-05
1.56961e-05
1.37658e-05
1.20587e-05
1.0705e-05
9.77016e-06
9.25087e-06
9.094e-06
9.21939e-06
9.53862e-06
9.96831e-06
1.0438e-05
1.08927e-05
1.12917e-05
1.16061e-05
1.18168e-05
1.19131e-05
1.18919e-05
1.17566e-05
1.15162e-05
1.11834e-05
1.07736e-05
1.0302e-05
9.78563e-06
9.23699e-06
8.67596e-06
8.10238e-06
7.55391e-06
6.98356e-06
6.51831e-06
5.9232e-06
5.73219e-06
5.0538e-06
6.29958e-06
6.72389e-06
1.07618e-06
3.87007e-07
1.36086e-07
0
0
0
0
0
0
0
0
1.33499e-07
4.15031e-07
7.75826e-07
1.21773e-06
1.74021e-06
2.34032e-06
3.01263e-06
3.74921e-06
4.53984e-06
5.37238e-06
6.23323e-06
7.10782e-06
7.98135e-06
8.83944e-06
9.66893e-06
1.04586e-05
1.11995e-05
1.18858e-05
1.25142e-05
1.30848e-05
1.36e-05
1.40647e-05
1.44856e-05
1.48706e-05
1.52283e-05
1.55678e-05
1.58975e-05
1.62253e-05
1.65592e-05
1.69072e-05
1.72753e-05
1.76621e-05
1.80565e-05
1.84454e-05
1.8827e-05
1.92094e-05
1.95851e-05
1.99099e-05
2.01359e-05
2.02863e-05
2.04928e-05
2.09356e-05
2.17078e-05
2.27276e-05
2.38105e-05
2.47964e-05
2.55836e-05
2.60895e-05
2.62356e-05
2.59701e-05
2.52819e-05
2.4191e-05
2.27368e-05
2.09752e-05
1.89862e-05
1.6892e-05
1.48671e-05
1.31049e-05
1.17514e-05
1.08655e-05
1.04259e-05
1.03608e-05
1.05752e-05
1.09701e-05
1.14554e-05
1.19566e-05
1.24179e-05
1.27998e-05
1.30764e-05
1.32321e-05
1.32597e-05
1.31596e-05
1.29387e-05
1.26094e-05
1.21871e-05
1.16895e-05
1.11335e-05
1.05373e-05
9.91386e-06
9.28404e-06
8.64718e-06
8.04299e-06
7.42075e-06
6.91611e-06
6.27624e-06
6.07737e-06
5.35562e-06
6.72318e-06
7.18573e-06
1.76474e-06
1.0033e-06
7.12798e-07
5.40494e-07
3.94789e-07
2.67788e-07
1.68393e-07
1.05797e-07
8.69962e-08
1.18657e-07
2.073e-07
3.5876e-07
5.77883e-07
8.68224e-07
1.23172e-06
1.66851e-06
2.17666e-06
2.75206e-06
3.38843e-06
4.07756e-06
4.80954e-06
5.57313e-06
6.35616e-06
7.14602e-06
7.93018e-06
8.69686e-06
9.43566e-06
1.01382e-05
1.07984e-05
1.14133e-05
1.19825e-05
1.2508e-05
1.29944e-05
1.34475e-05
1.38744e-05
1.4283e-05
1.46811e-05
1.50761e-05
1.54748e-05
1.58841e-05
1.63107e-05
1.67597e-05
1.72296e-05
1.7709e-05
1.81832e-05
1.86454e-05
1.9098e-05
1.9531e-05
1.9907e-05
2.01917e-05
2.04211e-05
2.07302e-05
2.12967e-05
2.22117e-05
2.33863e-05
2.46151e-05
2.57146e-05
2.65727e-05
2.71165e-05
2.72871e-05
2.70498e-05
2.63988e-05
2.53461e-05
2.39118e-05
2.21294e-05
2.00654e-05
1.78542e-05
1.57124e-05
1.38799e-05
1.25238e-05
1.16938e-05
1.13453e-05
1.13834e-05
1.16958e-05
1.2172e-05
1.27147e-05
1.32464e-05
1.37107e-05
1.40706e-05
1.43035e-05
1.43978e-05
1.43503e-05
1.41647e-05
1.38516e-05
1.34265e-05
1.29084e-05
1.23177e-05
1.16735e-05