/*--------------------------------*- C++ -*----------------------------------*\
  =========                 |
  \\      /  F ield         | OpenFOAM: The Open Source CFD Toolbox
   \\    /   O peration     | Website:  https://openfoam.org
    \\  /    A nd           | Version:  10
     \\/     M anipulation  |
\*---------------------------------------------------------------------------*/
FoamFile
{
    format      ascii;
    class       volScalarField;
    location    "0.04";
    object      p;
}
// * * * * * * * * * * * * * * * * * * * * * * * * * * * * * * * * * * * * * //

dimensions      [0 2 -2 0 0 0 0];

internalField   nonuniform List<scalar> 
6820
(
-9.56613
-9.8688
-9.91543
-9.93205
-9.9651
-9.99104
-10.0102
-10.0269
-10.0417
-10.0543
-10.065
-10.074
-10.0812
-10.0865
-10.0898
-10.0908
-10.0894
-10.0853
-10.078
-10.0671
-10.0521
-10.0326
-10.0078
-9.97698
-9.93945
-9.89434
-9.84071
-9.77765
-9.70411
-9.61921
-9.52219
-9.40929
-9.29466
-9.76743
-9.89264
-9.92976
-9.94624
-9.97343
-9.99624
-10.0137
-10.0293
-10.0433
-10.0554
-10.0658
-10.0745
-10.0816
-10.0868
-10.0901
-10.0912
-10.09
-10.086
-10.079
-10.0686
-10.0543
-10.0356
-10.0118
-9.98243
-9.94665
-9.90373
-9.85286
-9.79325
-9.724
-9.64479
-9.55431
-9.45709
-9.34676
-9.76734
-9.853
-9.91208
-9.93965
-9.969
-9.99451
-10.0143
-10.0314
-10.0465
-10.0594
-10.0704
-10.0796
-10.087
-10.0925
-10.096
-10.0974
-10.0965
-10.0929
-10.0864
-10.0767
-10.0633
-10.0459
-10.0239
-9.9968
-9.96416
-9.92541
-9.88005
-9.82765
-9.76801
-9.70114
-9.62866
-9.55129
-9.48369
-9.82424
-9.89429
-9.94284
-9.96399
-9.9868
-10.0082
-10.0253
-10.0402
-10.0536
-10.0652
-10.0752
-10.0837
-10.0905
-10.0957
-10.099
-10.1003
-10.0994
-10.0961
-10.0901
-10.0809
-10.0684
-10.0521
-10.0316
-10.0065
-9.97633
-9.94069
-9.89924
-9.85173
-9.79818
-9.73889
-9.67523
-9.60864
-9.54658
-9.85423
-9.89328
-9.93297
-9.95692
-9.98093
-10.0036
-10.0223
-10.0386
-10.053
-10.0656
-10.0765
-10.0857
-10.0932
-10.099
-10.1029
-10.1049
-10.1047
-10.1021
-10.0969
-10.0888
-10.0776
-10.0629
-10.0444
-10.0217
-9.99463
-9.96284
-9.92615
-9.88452
-9.83814
-9.7874
-9.73367
-9.67763
-9.62409
-9.88416
-9.91515
-9.95314
-9.97743
-9.99885
-10.019
-10.0359
-10.0505
-10.0636
-10.0751
-10.0851
-10.0935
-10.1005
-10.1059
-10.1096
-10.1115
-10.1115
-10.1093
-10.1047
-10.0975
-10.0874
-10.0743
-10.0578
-10.0377
-10.0138
-9.98588
-9.95396
-9.91805
-9.87843
-9.8355
-9.79026
-9.74314
-9.69639
-9.90923
-9.92941
-9.95864
-9.97967
-9.9989
-10.0179
-10.0348
-10.0497
-10.0631
-10.0752
-10.0857
-10.0948
-10.1024
-10.1085
-10.113
-10.1157
-10.1166
-10.1154
-10.1121
-10.1064
-10.0981
-10.087
-10.0731
-10.056
-10.0358
-10.0123
-9.98565
-9.95595
-9.92354
-9.88885
-9.85262
-9.81513
-9.77732
-9.93155
-9.94638
-9.97201
-9.99313
-10.0121
-10.0303
-10.0465
-10.0608
-10.0737
-10.0852
-10.0952
-10.104
-10.1114
-10.1174
-10.1219
-10.1248
-10.1261
-10.1256
-10.1231
-10.1186
-10.1118
-10.1027
-10.0912
-10.0771
-10.0605
-10.0414
-10.02
-9.99639
-9.97104
-9.94435
-9.91691
-9.889
-9.86108
-9.95167
-9.9624
-9.9831
-10.0015
-10.0181
-10.0344
-10.0496
-10.0633
-10.0759
-10.0873
-10.0976
-10.1067
-10.1145
-10.121
-10.1263
-10.1301
-10.1323
-10.133
-10.132
-10.1291
-10.1244
-10.1178
-10.1092
-10.0985
-10.086
-10.0717
-10.0558
-10.0386
-10.0206
-10.0021
-9.98383
-9.96608
-9.94931
-9.97006
-9.97815
-9.99552
-10.0126
-10.0285
-10.0443
-10.0591
-10.0727
-10.0851
-10.0965
-10.1067
-10.1158
-10.1237
-10.1305
-10.1361
-10.1404
-10.1434
-10.145
-10.1451
-10.1438
-10.141
-10.1367
-10.1308
-10.1235
-10.1149
-10.1053
-10.0948
-10.0839
-10.0729
-10.0626
-10.0533
-10.0457
-10.0404
-9.9871
-9.99335
-10.0078
-10.0229
-10.0372
-10.0516
-10.0653
-10.0781
-10.0901
-10.1011
-10.1113
-10.1205
-10.1288
-10.136
-10.1423
-10.1474
-10.1515
-10.1544
-10.1561
-10.1566
-10.156
-10.1542
-10.1514
-10.1478
-10.1434
-10.1386
-10.1337
-10.1291
-10.1254
-10.1231
-10.1229
-10.1255
-10.1318
-10.003
-10.008
-10.0201
-10.0337
-10.0471
-10.0607
-10.074
-10.0866
-10.0985
-10.1096
-10.1199
-10.1294
-10.138
-10.1457
-10.1525
-10.1584
-10.1634
-10.1675
-10.1707
-10.173
-10.1745
-10.1753
-10.1755
-10.1753
-10.175
-10.1748
-10.1753
-10.1768
-10.1799
-10.1854
-10.1939
-10.2061
-10.2234
-10.0181
-10.0221
-10.0324
-10.0445
-10.0568
-10.0694
-10.0818
-10.0938
-10.1053
-10.1162
-10.1264
-10.1359
-10.1448
-10.153
-10.1605
-10.1673
-10.1733
-10.1787
-10.1835
-10.1877
-10.1915
-10.1949
-10.1982
-10.2016
-10.2054
-10.2099
-10.2156
-10.2231
-10.2329
-10.2458
-10.2626
-10.284
-10.3116
-10.0323
-10.0357
-10.0446
-10.0554
-10.0668
-10.0786
-10.0906
-10.1023
-10.1136
-10.1245
-10.1349
-10.1448
-10.1541
-10.1629
-10.1711
-10.1788
-10.186
-10.1927
-10.1991
-10.2052
-10.2112
-10.2172
-10.2234
-10.2303
-10.2379
-10.2469
-10.2576
-10.2707
-10.2867
-10.3063
-10.3306
-10.3603
-10.3968
-10.046
-10.0488
-10.0565
-10.0663
-10.0768
-10.0879
-10.0992
-10.1105
-10.1215
-10.1323
-10.1427
-10.1527
-10.1624
-10.1716
-10.1805
-10.1891
-10.1974
-10.2054
-10.2134
-10.2214
-10.2295
-10.2381
-10.2473
-10.2574
-10.2689
-10.282
-10.2975
-10.3157
-10.3374
-10.3633
-10.3943
-10.4313
-10.4756
-10.059
-10.0615
-10.0683
-10.0771
-10.0868
-10.0973
-10.1082
-10.1192
-10.1301
-10.1409
-10.1515
-10.1618
-10.1719
-10.1818
-10.1915
-10.201
-10.2104
-10.2199
-10.2294
-10.2393
-10.2496
-10.2606
-10.2725
-10.2858
-10.3007
-10.3178
-10.3375
-10.3604
-10.3871
-10.4184
-10.4552
-10.4982
-10.5487
-10.0715
-10.0737
-10.0797
-10.0878
-10.0969
-10.1068
-10.1172
-10.1279
-10.1386
-10.1494
-10.1601
-10.1706
-10.1811
-10.1915
-10.2019
-10.2123
-10.2228
-10.2335
-10.2445
-10.2561
-10.2684
-10.2817
-10.2963
-10.3124
-10.3306
-10.3511
-10.3746
-10.4016
-10.4327
-10.4686
-10.5102
-10.558
-10.6134
-10.0835
-10.0855
-10.091
-10.0984
-10.1069
-10.1163
-10.1264
-10.1368
-10.1474
-10.1582
-10.1691
-10.18
-10.1909
-10.2019
-10.213
-10.2243
-10.2359
-10.2479
-10.2604
-10.2737
-10.2879
-10.3034
-10.3203
-10.3391
-10.3601
-10.3837
-10.4105
-10.4409
-10.4757
-10.5153
-10.5605
-10.6119
-10.6707
-10.0951
-10.0969
-10.1019
-10.1088
-10.1168
-10.1258
-10.1356
-10.1458
-10.1563
-10.1671
-10.1781
-10.1892
-10.2006
-10.2121
-10.2239
-10.236
-10.2486
-10.2617
-10.2756
-10.2904
-10.3063
-10.3236
-10.3427
-10.3637
-10.3871
-10.4134
-10.4429
-10.4762
-10.5137
-10.5561
-10.604
-10.6578
-10.7187
-10.1063
-10.1079
-10.1125
-10.119
-10.1266
-10.1353
-10.1447
-10.1548
-10.1653
-10.1761
-10.1873
-10.1987
-10.2104
-10.2225
-10.2349
-10.2479
-10.2614
-10.2756
-10.2907
-10.3069
-10.3244
-10.3434
-10.3643
-10.3872
-10.4127
-10.4411
-10.4727
-10.5081
-10.5477
-10.5919
-10.6414
-10.6966
-10.7582
-10.117
-10.1185
-10.1228
-10.1289
-10.1362
-10.1446
-10.1538
-10.1637
-10.1742
-10.1851
-10.1964
-10.2081
-10.2202
-10.2327
-10.2458
-10.2594
-10.2738
-10.289
-10.3051
-10.3225
-10.3413
-10.3617
-10.384
-10.4086
-10.4356
-10.4656
-10.4987
-10.5356
-10.5764
-10.6217
-10.6718
-10.7272
-10.7884
-10.1272
-10.1287
-10.1328
-10.1386
-10.1456
-10.1537
-10.1628
-10.1726
-10.183
-10.194
-10.2054
-10.2174
-10.2298
-10.2428
-10.2564
-10.2707
-10.2858
-10.3018
-10.3189
-10.3372
-10.3571
-10.3786
-10.4021
-10.4278
-10.456
-10.487
-10.5211
-10.5587
-10.6001
-10.6455
-10.6955
-10.7501
-10.8099
-10.137
-10.1384
-10.1423
-10.1479
-10.1547
-10.1627
-10.1716
-10.1813
-10.1917
-10.2028
-10.2144
-10.2266
-10.2393
-10.2527
-10.2668
-10.2816
-10.2973
-10.314
-10.3318
-10.351
-10.3716
-10.394
-10.4183
-10.4448
-10.4736
-10.5052
-10.5397
-10.5774
-10.6186
-10.6635
-10.7125
-10.7655
-10.8231
-10.1463
-10.1477
-10.1515
-10.1569
-10.1635
-10.1713
-10.1802
-10.1898
-10.2002
-10.2113
-10.223
-10.2354
-10.2484
-10.2621
-10.2765
-10.2918
-10.3079
-10.3251
-10.3435
-10.3632
-10.3844
-10.4072
-10.432
-10.4588
-10.4879
-10.5195
-10.5538
-10.5911
-10.6314
-10.6751
-10.7223
-10.7731
-10.8277
-10.1552
-10.1565
-10.1602
-10.1655
-10.172
-10.1797
-10.1884
-10.1981
-10.2085
-10.2197
-10.2315
-10.2441
-10.2573
-10.2713
-10.286
-10.3016
-10.3181
-10.3357
-10.3545
-10.3745
-10.396
-10.4191
-10.444
-10.4708
-10.4998
-10.531
-10.5646
-10.6009
-10.6399
-10.6818
-10.7267
-10.7746
-10.8256
-10.1635
-10.1648
-10.1684
-10.1736
-10.18
-10.1876
-10.1963
-10.2059
-10.2163
-10.2275
-10.2394
-10.252
-10.2654
-10.2795
-10.2944
-10.3101
-10.3268
-10.3445
-10.3634
-10.3835
-10.405
-10.428
-10.4527
-10.4791
-10.5074
-10.5378
-10.5703
-10.6051
-10.6422
-10.6818
-10.7238
-10.7683
-10.8154
-10.1712
-10.1725
-10.176
-10.1812
-10.1876
-10.1952
-10.2039
-10.2135
-10.224
-10.2352
-10.2472
-10.26
-10.2735
-10.2877
-10.3028
-10.3187
-10.3355
-10.3533
-10.3721
-10.3922
-10.4135
-10.4362
-10.4604
-10.4861
-10.5136
-10.5428
-10.5738
-10.6067
-10.6416
-10.6785
-10.7173
-10.7581
-10.8008
-10.1782
-10.1795
-10.183
-10.1882
-10.1945
-10.2021
-10.2107
-10.2202
-10.2307
-10.2419
-10.2539
-10.2666
-10.28
-10.2942
-10.3092
-10.325
-10.3417
-10.3593
-10.3779
-10.3976
-10.4184
-10.4404
-10.4638
-10.4885
-10.5146
-10.5423
-10.5714
-10.602
-10.6343
-10.6681
-10.7034
-10.7402
-10.7784
-10.1846
-10.1859
-10.1895
-10.1947
-10.2011
-10.2088
-10.2175
-10.2271
-10.2377
-10.249
-10.2611
-10.2738
-10.2873
-10.3016
-10.3165
-10.3323
-10.3488
-10.3662
-10.3844
-10.4036
-10.4238
-10.4451
-10.4675
-10.491
-10.5158
-10.5419
-10.5686
-10.5968
-10.6263
-10.6569
-10.6885
-10.7212
-10.7548
-10.1901
-10.1914
-10.195
-10.2002
-10.2066
-10.2141
-10.2228
-10.2323
-10.2428
-10.2539
-10.2659
-10.2785
-10.2918
-10.3059
-10.3206
-10.336
-10.3521
-10.369
-10.3866
-10.4051
-10.4243
-10.4445
-10.4656
-10.4876
-10.5104
-10.5338
-10.5588
-10.5844
-10.6107
-10.6379
-10.6657
-10.6941
-10.7231
-10.1949
-10.1963
-10.2001
-10.2055
-10.2122
-10.2201
-10.229
-10.2388
-10.2493
-10.2607
-10.2727
-10.2853
-10.2986
-10.3125
-10.327
-10.3422
-10.3579
-10.3743
-10.3914
-10.4091
-10.4274
-10.4465
-10.4662
-10.4865
-10.5076
-10.5293
-10.5517
-10.5745
-10.5978
-10.6216
-10.6456
-10.6698
-10.6942
-10.1985
-10.1997
-10.2035
-10.2088
-10.2154
-10.2231
-10.2319
-10.2416
-10.252
-10.2632
-10.275
-10.2874
-10.3005
-10.314
-10.3282
-10.3428
-10.358
-10.3737
-10.3899
-10.4066
-10.4237
-10.4415
-10.4595
-10.4781
-10.497
-10.5163
-10.5359
-10.5558
-10.5759
-10.596
-10.6162
-10.6362
-10.6561
-10.2012
-10.203
-10.2075
-10.2136
-10.2208
-10.2291
-10.2382
-10.2481
-10.2587
-10.27
-10.2818
-10.2942
-10.3071
-10.3205
-10.3343
-10.3485
-10.3632
-10.3782
-10.3937
-10.4094
-10.4256
-10.4419
-10.4586
-10.4755
-10.4925
-10.5097
-10.5269
-10.5441
-10.5612
-10.578
-10.5946
-10.6107
-10.6263
-10.2018
-10.2031
-10.2071
-10.2129
-10.2201
-10.2285
-10.2377
-10.2476
-10.2582
-10.2694
-10.2811
-10.2933
-10.3059
-10.3189
-10.3323
-10.3458
-10.3598
-10.3741
-10.3884
-10.4031
-10.4179
-10.4327
-10.4476
-10.4625
-10.4773
-10.492
-10.5065
-10.5207
-10.5345
-10.5479
-10.5608
-10.5731
-10.5847
-10.2029
-10.2058
-10.2117
-10.2189
-10.2267
-10.2353
-10.2448
-10.255
-10.2656
-10.2768
-10.2884
-10.3004
-10.3127
-10.3254
-10.3383
-10.3517
-10.3651
-10.3786
-10.3923
-10.406
-10.4197
-10.4334
-10.447
-10.4604
-10.4735
-10.4863
-10.4986
-10.5105
-10.5218
-10.5324
-10.5421
-10.551
-10.5588
-10.198
-10.1991
-10.2043
-10.2115
-10.2198
-10.229
-10.2391
-10.2497
-10.2607
-10.2722
-10.2839
-10.2959
-10.3081
-10.3205
-10.333
-10.3457
-10.3584
-10.3711
-10.3837
-10.3962
-10.4086
-10.4206
-10.4324
-10.4437
-10.4546
-10.465
-10.4747
-10.4837
-10.492
-10.4993
-10.5058
-10.5112
-10.5156
-10.1981
-10.2041
-10.2127
-10.221
-10.2298
-10.2392
-10.2491
-10.2593
-10.27
-10.281
-10.2923
-10.3039
-10.3158
-10.3278
-10.34
-10.3523
-10.3645
-10.3767
-10.3888
-10.4007
-10.4124
-10.4237
-10.4345
-10.4449
-10.4547
-10.4638
-10.472
-10.4795
-10.4859
-10.4913
-10.4955
-10.4983
-10.4998
-10.1773
-10.1816
-10.1932
-10.2043
-10.2153
-10.2268
-10.2384
-10.25
-10.2617
-10.2734
-10.2852
-10.297
-10.3088
-10.3206
-10.3323
-10.3439
-10.3554
-10.3666
-10.3775
-10.3881
-10.3982
-10.4078
-10.4168
-10.4251
-10.4326
-10.4393
-10.4451
-10.4498
-10.4534
-10.4559
-10.4572
-10.4573
-10.4561
-10.1902
-10.2003
-10.211
-10.2195
-10.229
-10.2391
-10.2492
-10.2596
-10.2704
-10.2815
-10.2929
-10.3044
-10.3161
-10.3278
-10.3396
-10.3513
-10.3629
-10.3743
-10.3854
-10.3962
-10.4065
-10.4162
-10.4253
-10.4337
-10.4412
-10.4478
-10.4534
-10.4578
-10.4609
-10.4627
-10.4631
-10.4618
-10.4589
-10.0904
-10.1575
-10.1828
-10.1956
-10.2117
-10.2264
-10.2391
-10.2513
-10.2632
-10.2748
-10.2863
-10.2976
-10.3088
-10.3198
-10.3306
-10.3412
-10.3514
-10.3613
-10.3707
-10.3795
-10.3877
-10.3952
-10.4018
-10.4075
-10.4123
-10.4158
-10.4182
-10.4193
-10.4191
-10.4174
-10.4141
-10.4094
-10.4028
-9.10739
-9.62478
-9.70808
-9.09052
-7.44714
-5.31401
-4.04384
-4.71865
-6.84622
-10.3536
-14.9952
-20.2626
-25.7027
-30.8926
-35.4372
-38.9739
-41.1936
-41.994
-41.4766
-39.9052
-37.4988
-34.4078
-30.8435
-27.1158
-23.5085
-20.1606
-17.1006
-14.323
-11.8254
-9.61134
-7.68117
-6.02663
-4.63074
-3.47056
-2.51986
-1.75147
-1.13893
-0.657573
-0.285196
-0.0022601
0.20808
0.360093
0.465778
0.53515
0.576444
0.596453
0.600783
0.59397
0.579529
0.560019
0.537178
0.512157
0.485758
0.458627
0.431336
0.40439
0.378195
0.353045
0.329123
0.306528
0.285304
0.265463
0.246991
0.22986
0.214026
0.199427
0.185992
0.173639
0.162281
0.151832
0.142206
0.133324
0.125108
0.11749
0.110403
0.10379
0.0975972
0.0917759
0.0862827
0.0810784
0.0761279
0.0713993
0.0668641
0.0624966
0.0582736
0.0541744
0.0501799
0.0462734
0.0424392
0.0386642
0.034934
0.0312411
0.027567
0.0239187
0.0202535
0.0166322
0.012907
0.00935486
0.00539377
0.00218676
-9.30427
-9.50837
-9.3299
-8.69328
-7.42413
-5.79685
-4.6508
-4.79844
-6.77163
-10.4111
-14.8638
-19.6585
-24.5612
-29.2605
-33.4067
-36.669
-38.7926
-39.706
-39.4594
-38.1564
-35.9185
-32.9415
-29.5292
-26.0272
-22.6748
-19.5597
-16.6929
-14.0718
-11.7006
-9.58707
-7.73391
-6.13522
-4.7771
-3.63993
-2.70075
-1.9353
-1.31958
-0.830898
-0.448579
-0.154231
0.0681694
0.232335
0.349831
0.430383
0.482107
0.511713
0.524778
0.52586
0.518538
0.505447
0.488403
0.468615
0.446934
0.424041
0.400547
0.376995
0.353835
0.3314
0.309909
0.289493
0.270221
0.252125
0.235214
0.219476
0.204883
0.19139
0.178936
0.167454
0.156869
0.147103
0.138081
0.129731
0.121984
0.114777
0.108051
0.101754
0.0958364
0.0902556
0.0849717
0.0799495
0.075157
0.0705655
0.066149
0.0618842
0.0577501
0.0537276
0.0497994
0.0459502
0.0421654
0.0384331
0.03474
0.0310791
0.0274331
0.0238089
0.0201662
0.0165627
0.0128583
0.00931546
0.00538382
0.002162
-9.40888
-9.44179
-9.29645
-8.81491
-7.86998
-6.65177
-5.77676
-6.04622
-7.80877
-10.8912
-14.9015
-19.3535
-23.8346
-28.0626
-31.7886
-34.7774
-36.837
-37.8292
-37.6621
-36.3849
-34.1755
-31.3111
-28.1287
-24.9228
-21.8536
-18.9725
-16.2912
-13.8194
-11.5705
-9.5555
-7.77859
-6.23587
-4.91625
-3.80323
-2.87691
-2.11575
-1.4981
-1.00317
-0.611806
-0.306748
-0.0728269
0.103084
0.232147
0.32376
0.385843
0.425043
0.44689
0.455945
0.455834
0.449262
0.438117
0.423669
0.406812
0.388265
0.368672
0.348616
0.328585
0.308952
0.289973
0.271809
0.254556
0.238269
0.222975
0.208682
0.195377
0.183031
0.171597
0.161021
0.151239
0.142183
0.133789
0.125993
0.118733
0.111954
0.105603
0.0996343
0.0940038
0.0886732
0.0836071
0.0787743
0.0741461
0.0696972
0.0654042
0.0612464
0.0572047
0.0532621
0.049403
0.0456134
0.0418802
0.0381925
0.034538
0.0309105
0.0272939
0.0236948
0.0200754
0.0164903
0.0128076
0.00927451
0.00537343
0.00213649
-9.47547
-9.44811
-9.28712
-8.87414
-8.19403
-7.43142
-6.99689
-7.3875
-8.9021
-11.5734
-15.1323
-19.1464
-23.2463
-27.1339
-30.5519
-33.3122
-35.186
-35.9875
-35.6591
-34.324
-32.2077
-29.5887
-26.7402
-23.8627
-21.0653
-18.3986
-15.8906
-13.5632
-11.4343
-9.51632
-7.81484
-6.3281
-5.0477
-3.95999
-3.04787
-2.29237
-1.67405
-1.17401
-0.774529
-0.459514
-0.214646
-0.0274299
0.112878
0.215381
0.287752
0.336513
0.367161
0.384246
0.391426
0.391466
0.38632
0.377316
0.365389
0.351293
0.335704
0.319242
0.302433
0.285689
0.269302
0.253465
0.238299
0.223883
0.210264
0.197468
0.185499
0.174343
0.163969
0.154333
0.145385
0.137068
0.129327
0.122106
0.115352
0.109018
0.103058
0.0974303
0.092098
0.0870274
0.0821877
0.0775517
0.0730945
0.0687938
0.0646293
0.0605826
0.056637
0.0527775
0.0489902
0.0452626
0.041583
0.0379416
0.0343273
0.0307345
0.0271485
0.0235756
0.0199806
0.0164147
0.0127546
0.00923166
0.00536224
0.00211006
-9.55881
-9.49725
-9.34466
-9.02939
-8.55872
-8.07782
-7.89937
-8.38951
-9.7774
-12.1023
-15.1938
-18.7504
-22.4494
-25.9848
-29.0926
-31.5301
-33.0629
-33.6465
-33.2732
-32.0612
-30.2096
-27.936
-25.4346
-22.8554
-20.3005
-17.8327
-15.4916
-13.3048
-11.293
-9.46986
-7.84274
-6.4119
-5.17131
-4.10996
-3.2133
-2.46478
-1.84707
-1.34303
-0.936395
-0.612205
-0.357008
-0.158945
-0.00773915
0.105406
0.187951
0.246241
0.28569
0.310842
0.325376
0.332107
0.333049
0.32958
0.32268
0.313133
0.301648
0.288875
0.27538
0.261611
0.247896
0.234458
0.221448
0.208965
0.197079
0.185832
0.175247
0.165325
0.156049
0.147389
0.139307
0.131757
0.124693
0.118069
0.111842
0.105969
0.100414
0.095141
0.0901184
0.0853178
0.0807132
0.0762817
0.072002
0.0678552
0.0638241
0.0598929
0.0560472
0.0522741
0.0485614
0.0448983
0.0412744
0.0376812
0.0341086
0.030552
0.0269977
0.0234521
0.0198823
0.0163364
0.0126997
0.00918737
0.00535071
0.00208298
-9.63801
-9.56955
-9.44169
-9.2106
-8.89834
-8.62923
-8.63771
-9.19511
-10.4742
-12.4982
-15.1435
-18.1921
-21.3908
-24.4744
-27.1812
-29.2659
-30.6374
-31.1835
-30.9186
-29.9355
-28.3835
-26.4245
-24.2151
-21.8918
-19.5564
-17.2762
-15.0954
-13.0448
-11.1466
-9.41617
-7.86231
-6.48717
-5.2869
-4.25286
-3.37287
-2.63262
-2.01676
-1.50985
-1.09705
-0.764505
-0.499629
-0.291224
-0.129488
-0.00596977
0.0865681
0.154308
0.202549
0.235795
0.257732
0.271219
0.278326
0.280479
0.278698
0.273795
0.266508
0.257518
0.247424
0.236714
0.225749
0.214784
0.203997
0.19351
0.183414
0.17377
0.164616
0.155972
0.147833
0.140185
0.133
0.126245
0.119884
0.11388
0.108198
0.102806
0.0976704
0.0927651
0.0880636
0.083543
0.0791823
0.0749628
0.0708672
0.0668801
0.0629873
0.0591759
0.0554339
0.0517503
0.048115
0.0445189
0.0409529
0.0374097
0.0338805
0.0303615
0.0268403
0.023323
0.0197796
0.0162544
0.0126422
0.00914089
0.00533821
0.00205474
-9.73009
-9.67077
-9.57542
-9.42369
-9.24519
-9.14128
-9.28608
-9.87858
-11.0502
-12.8202
-15.0954
-17.7013
-20.4304
-23.066
-25.3988
-27.2504
-28.4951
-29.0294
-28.8622
-28.061
-26.7372
-25.0245
-23.0597
-20.9643
-18.8327
-16.7307
-14.7037
-12.784
-10.9957
-9.35558
-7.87372
-6.55395
-5.39439
-4.38851
-3.52632
-2.79556
-2.18276
-1.67413
-1.25615
-0.916085
-0.642217
-0.424006
-0.252145
-0.11854
-0.0162108
0.0608519
0.117836
0.159179
0.18856
0.208863
0.222199
0.230049
0.233468
0.233297
0.230296
0.225177
0.218573
0.211003
0.202865
0.194445
0.185947
0.177518
0.169269
0.16128
0.153606
0.146283
0.139322
0.132721
0.126465
0.120534
0.114901
0.109539
0.104423
0.0995266
0.094827
0.0903027
0.085934
0.0817038
0.0775958
0.073596
0.0696913
0.0658697
0.0621204
0.0584332
0.0547986
0.051208
0.047653
0.0441263
0.0406203
0.037129
0.0336449
0.0301648
0.0266778
0.0231898
0.0196737
0.01617
0.0125832
0.00909322
0.00532564
0.00202596
-9.82709
-9.78481
-9.72548
-9.64407
-9.5719
-9.59137
-9.83323
-10.4432
-11.5208
-13.0816
-15.0535
-17.2982
-19.6458
-21.9165
-23.9396
-25.5579
-26.6522
-27.1431
-27.029
-26.3567
-25.2139
-23.711
-21.9632
-20.0757
-18.1333
-16.1986
-14.3173
-12.5231
-10.8408
-9.28841
-7.87717
-6.61232
-5.49371
-4.51673
-3.67337
-2.95328
-2.34474
-1.83549
-1.41334
-1.06662
-0.784474
-0.557027
-0.37548
-0.232112
-0.120215
-0.0339703
0.0316749
0.0810846
0.11792
0.145082
0.164713
0.178328
0.18702
0.191661
0.193031
0.191867
0.188833
0.184483
0.179247
0.173443
0.1673
0.16099
0.154644
0.148362
0.142216
0.136257
0.130513
0.124995
0.119701
0.114622
0.109742
0.105045
0.100514
0.0961319
0.0918829
0.0877528
0.0837285
0.0797984
0.0759519
0.0721794
0.068472
0.0648217
0.0612207
0.057662
0.0541386
0.0506442
0.0471724
0.0437176
0.0402738
0.0368363
0.0333989
0.0299592
0.0265079
0.0230504
0.0195628
0.0160815
0.012521
0.00904297
0.00531181
0.0019957
-9.9304
-9.90976
-9.88689
-9.86598
-9.87764
-9.98844
-10.2966
-10.9084
-11.8975
-13.2758
-14.9879
-16.925
-18.9477
-20.9053
-22.6494
-24.0478
-25.0018
-25.4451
-25.3652
-24.7954
-23.805
-22.4839
-20.9282
-19.228
-17.4592
-15.6807
-13.9372
-12.2626
-10.6824
-9.2151
-7.87295
-6.66242
-5.58488
-4.63743
-3.81384
-3.10552
-2.50238
-1.99362
-1.5683
-1.21579
-0.926098
-0.690013
-0.49925
-0.346474
-0.225263
-0.130008
-0.0557986
0.00163588
0.0459138
0.0799457
0.105914
0.12536
0.139396
0.148917
0.154735
0.157606
0.158221
0.157167
0.154906
0.151785
0.148061
0.14393
0.139543
0.135019
0.130449
0.125898
0.12141
0.117011
0.11271
0.108511
0.10441
0.1004
0.0964738
0.092623
0.0888398
0.0851173
0.081449
0.0778294
0.0742532
0.0707157
0.0672125
0.0637393
0.0602919
0.0568661
0.0534577
0.0500628
0.0466771
0.0432966
0.0399171
0.0365353
0.0331462
0.0297483
0.0263337
0.0229077
0.0194493
0.0159911
0.0124578
0.00899196
0.00529834
0.00196513
-10.037
-10.039
-10.0502
-10.0797
-10.156
-10.3322
-10.6822
-11.2834
-12.1892
-13.4073
-14.8944
-16.564
-18.3024
-19.9839
-21.4835
-22.6914
-23.5205
-23.9127
-23.853
-23.3656
-22.5037
-21.3396
-19.953
-18.4211
-16.8112
-15.178
-13.5643
-12.0035
-10.5211
-9.13612
-7.86139
-6.70445
-5.66796
-4.75054
-3.94757
-3.25203
-2.65538
-2.14818
-1.72068
-1.36328
-1.06679
-0.822687
-0.623206
-0.461407
-0.331166
-0.227095
-0.144448
-0.0790568
-0.0273562
0.0135525
0.0458735
0.07119
0.0906344
0.105109
0.115441
0.122417
0.126755
0.129069
0.129852
0.129481
0.12824
0.126346
0.123972
0.121257
0.118309
0.115208
0.112015
0.108769
0.105493
0.102203
0.0989052
0.0956044
0.0923023
0.0889997
0.085697
0.082395
0.0790939
0.0757944
0.0724968
0.0692016
0.0659088
0.0626182
0.059329
0.0560404
0.0527507
0.0494585
0.0461616
0.0428581
0.0395452
0.036221
0.0328819
0.0295274
0.026151
0.0227577
0.0193299
0.0158957
0.0123908
0.00893778
0.00528316
0.00193264
-10.144
-10.1681
-10.2099
-10.2806
-10.4055
-10.6269
-11.0001
-11.5813
-12.4085
-13.4857
-14.7781
-16.2163
-17.7078
-19.1486
-20.4345
-21.4721
-22.1862
-22.5276
-22.4799
-22.0584
-21.3039
-20.2744
-19.0362
-17.655
-16.1901
-14.6914
-13.1995
-11.7465
-10.3577
-9.05202
-7.8429
-6.73866
-5.74307
-4.85606
-4.07442
-3.39263
-2.8035
-2.29889
-1.87019
-1.50876
-1.20625
-0.954771
-0.747092
-0.57668
-0.43772
-0.325058
-0.234121
-0.160861
-0.101781
-0.0540034
-0.015314
0.0158933
0.0407822
0.0602693
0.0751865
0.0863368
0.0944645
0.100214
0.104107
0.106548
0.107848
0.108248
0.107941
0.107083
0.105802
0.104194
0.102334
0.100275
0.0980555
0.0957014
0.0932321
0.0906622
0.0880036
0.0852662
0.0824591
0.0795905
0.0766681
0.0736987
0.0706886
0.0676434
0.0645677
0.0614655
0.0583396
0.0551924
0.0520252
0.048839
0.0456337
0.0424094
0.039165
0.0359001
0.0326125
0.0293025
0.0259653
0.0226056
0.019209
0.0157995
0.0123235
0.00888359
0.00526899
0.00190027
-10.25
-10.2943
-10.3621
-10.4651
-10.625
-10.8753
-11.2575
-11.8117
-12.5645
-13.5169
-14.6403
-15.8785
-17.1562
-18.3876
-19.4859
-20.3726
-20.9836
-21.2756
-21.232
-20.8621
-20.1971
-19.2835
-18.1756
-16.9292
-15.5962
-14.2218
-12.8436
-11.4925
-10.1928
-8.96337
-7.81793
-6.76537
-5.81038
-4.95401
-4.19434
-3.52713
-2.9465
-2.44547
-2.01652
-1.65195
-1.34418
-1.08598
-0.87065
-0.692059
-0.544715
-0.42371
-0.324655
-0.243637
-0.177239
-0.122618
-0.0775598
-0.0404412
-0.0100824
0.0144542
0.0340108
0.0493965
0.0613777
0.070626
0.0776917
0.0830068
0.0869051
0.089651
0.0914602
0.0925088
0.0929385
0.0928636
0.0923734
0.0915358
0.090402
0.089011
0.0873937
0.0855757
0.0835788
0.0814226
0.0791249
0.0767018
0.0741682
0.0715379
0.068823
0.0660344
0.0631817
0.0602729
0.0573148
0.054313
0.0512717
0.0481945
0.0450837
0.0419412
0.0387677
0.0355641
0.0323299
0.0290661
0.0257697
0.022445
0.019081
0.0156972
0.0122515
0.00882534
0.00525239
0.00186532
-10.3514
-10.4134
-10.5026
-10.6301
-10.814
-11.0808
-11.4612
-11.9838
-12.6664
-13.5078
-14.4838
-15.5489
-16.6416
-17.691
-18.6255
-19.379
-19.8967
-20.1414
-20.0967
-19.7675
-19.1774
-18.363
-17.3692
-16.243
-15.0297
-13.7696
-12.4974
-11.2421
-10.0271
-8.87082
-7.78699
-6.78495
-5.87012
-5.04451
-4.30731
-3.65544
-3.08419
-2.58769
-2.15942
-1.79256
-1.48029
-1.21605
-0.993616
-0.8073
-0.65193
-0.522853
-0.415877
-0.327232
-0.253597
-0.192174
-0.140762
-0.0977275
-0.0618745
-0.0322574
-0.00802491
0.0116462
0.0275368
0.0403401
0.0506338
0.0588768
0.0654282
0.0705753
0.0745504
0.0775483
0.0797311
0.0812286
0.0821443
0.0825605
0.0825418
0.0821403
0.0813985
0.0803531
0.0790363
0.0774775
0.0757032
0.073738
0.0716044
0.0693227
0.0669113
0.0643867
0.0617633
0.0590535
0.056268
0.0534158
0.050504
0.0475389
0.044525
0.0414662
0.0383653
0.0352245
0.0320448
0.0288281
0.0255733
0.0222841
0.0189533
0.0155956
0.0121807
0.00876828
0.00523784
0.00183119
-10.448
-10.5246
-10.6304
-10.7751
-10.9739
-11.2472
-11.6176
-12.1054
-12.7218
-13.4639
-14.3111
-15.2261
-16.1584
-17.0501
-17.8418
-18.4779
-18.9122
-19.1125
-19.0629
-18.7655
-18.2377
-17.5085
-16.6147
-15.5957
-14.4907
-13.3355
-12.1617
-10.9962
-9.8614
-8.77501
-7.75061
-6.7978
-5.92256
-5.12769
-4.41334
-3.77747
-3.21642
-2.72533
-2.29862
-1.93031
-1.61432
-1.34468
-1.11573
-0.922159
-0.759141
-0.622284
-0.507602
-0.411482
-0.330709
-0.262545
-0.204809
-0.155866
-0.114512
-0.0797925
-0.0508489
-0.0268513
-0.00700573
0.00940163
0.0229723
0.0341906
0.0434426
0.0510377
0.057227
0.0622212
0.0661971
0.0693025
0.0716581
0.0733591
0.0744834
0.0750958
0.0752511
0.0749972
0.0743771
0.0734298
0.0721913
0.0706945
0.0689697
0.0670444
0.0649432
0.0626884
0.0602993
0.057793
0.055184
0.0524847
0.0497057
0.0468555
0.0439413
0.0409689
0.0379429
0.034867
0.0317439
0.0285763
0.0253647
0.0221128
0.0188166
0.0154862
0.0121035
0.00870582
0.00521972
0.00179355
-10.5363
-10.6246
-10.7425
-10.8986
-11.105
-11.3773
-11.7322
-12.1834
-12.7378
-13.391
-14.1253
-14.9099
-15.7035
-16.4584
-17.1257
-17.6587
-18.0187
-18.1775
-18.1207
-17.848
-17.3722
-16.7162
-15.9098
-14.9862
-13.979
-12.9197
-11.8369
-10.7555
-9.69643
-8.67663
-7.70939
-6.80439
-5.96803
-5.20376
-4.51252
-3.89321
-3.34308
-2.85822
-2.4339
-2.06495
-1.74598
-1.47163
-1.23673
-1.03639
-0.866114
-0.721788
-0.599636
-0.496213
-0.408419
-0.33359
-0.269575
-0.214746
-0.167896
-0.128064
-0.0943886
-0.0660343
-0.0421957
-0.0221417
-0.00524849
0.00899249
0.020989
0.0310714
0.0395139
0.0465449
0.0523552
0.0571062
0.060933
0.0639478
0.0662419
0.0678925
0.0689662
0.0695228
0.0696159
0.0692949
0.0686051
0.0675882
0.0662823
0.0647221
0.0629388
0.0609604
0.0588116
0.0565138
0.0540856
0.0515432
0.0489
0.0461674
0.0433549
0.0404705
0.0375206
0.0345107
0.0314448
0.0283268
0.0251589
0.0219443
0.018683
0.01538
0.0120296
0.00864642
0.00520521
0.00175781
-10.6168
-10.7137
-10.8397
-11.0018
-11.2096
-11.4752
-11.8103
-12.2242
-12.7203
-13.2937
-13.9287
-14.5999
-15.2734
-15.91
-16.4691
-16.9119
-17.2058
-17.3266
-17.2611
-17.0076
-16.5753
-15.9821
-15.2522
-14.4134
-13.4942
-12.5225
-11.5238
-10.5208
-9.53293
-8.57637
-7.66392
-6.80522
-6.0069
-5.27295
-4.60498
-4.00266
-3.4641
-2.98621
-2.56509
-2.19627
-1.87505
-1.59664
-1.35635
-1.14973
-0.972613
-0.821144
-0.691776
-0.581238
-0.486559
-0.405157
-0.334924
-0.274247
-0.221918
-0.176976
-0.138559
-0.105826
-0.0779657
-0.0542306
-0.0339777
-0.0166762
-0.0018958
0.010715
0.0214473
0.0305473
0.0382249
0.0446555
0.049986
0.0543416
0.0578285
0.060538
0.0625489
0.0639319
0.064752
0.0650689
0.0649375
0.0644087
0.0635287
0.0623395
0.0608793
0.0591818
0.057277
0.0551913
0.0529472
0.0505645
0.0480598
0.0454475
0.0427393
0.0399455
0.0370743
0.0341326
0.0311262
0.0280599
0.0249376
0.0217623
0.0185376
0.0152636
0.0119472
0.00857964
0.00518535
0.00171738
-10.687
-10.7896
-10.9201
-11.084
-11.2888
-11.5434
-11.8562
-12.233
-12.6749
-13.1765
-13.7242
-14.2967
-14.8661
-15.4001
-15.8653
-16.2293
-16.4648
-16.5511
-16.4762
-16.2376
-15.8417
-15.3025
-14.6395
-13.8759
-13.036
-12.144
-11.2227
-10.2925
-9.37157
-8.47491
-7.61484
-6.8008
-6.0396
-5.33557
-4.69089
-4.10591
-3.57946
-3.10922
-2.69201
-2.32406
-2.00128
-1.71945
-1.47436
-1.26195
-1.0784
-0.920125
-0.783809
-0.666361
-0.564949
-0.477083
-0.400709
-0.334233
-0.276457
-0.226421
-0.183263
-0.146143
-0.114241
-0.0867998
-0.0631569
-0.0427618
-0.0251637
-0.00999172
0.00306427
0.0142673
0.0238413
0.0319785
0.0388407
0.0445648
0.0492691
0.0530577
0.0560235
0.0582491
0.0598106
0.060778
0.0612162
0.0611853
0.0607397
0.0599293
0.0587987
0.0573878
0.0557322
0.0538627
0.0518062
0.0495863
0.0472227
0.0447325
0.0421301
0.0394277
0.0366357
0.0337626
0.0308159
0.0278011
0.0247243
0.0215878
0.0183994
0.0151539
0.0118713
0.00851869
0.00517112
0.00168091
-10.7478
-10.8535
-10.9852
-11.1472
-11.3452
-11.5857
-11.8745
-12.2148
-12.6063
-13.0434
-13.5141
-14.0005
-14.4797
-14.925
-15.3086
-15.6041
-15.7882
-15.8433
-15.7588
-15.5317
-15.1664
-14.6737
-14.0694
-13.3725
-12.6038
-11.7843
-10.934
-10.0714
-9.21305
-8.37295
-7.56278
-6.79171
-6.06657
-5.39195
-4.77048
-4.20307
-3.68919
-3.22718
-2.81454
-2.44814
-2.12448
-1.83985
-1.59051
-1.3728
-1.18323
-1.0185
-0.875516
-0.751377
-0.643399
-0.549193
-0.466767
-0.394559
-0.331381
-0.276279
-0.228394
-0.186888
-0.150937
-0.119772
-0.0927179
-0.0692047
-0.0487623
-0.031001
-0.0155936
-0.00226097
0.00923663
0.0191047
0.0275191
0.0346317
0.0405732
0.0454589
0.0493935
0.0524729
0.0547851
0.0564108
0.0574251
0.0578972
0.0578903
0.0574619
0.0566637
0.0555422
0.0541381
0.0524872
0.0506208
0.0485659
0.0463457
0.0439801
0.0414859
0.0388776
0.0361674
0.0333654
0.0304807
0.0275199
0.0244909
0.0213955
0.0182456
0.0150305
0.0117836
0.00844752
0.00514901
0.00163816
-10.7976
-10.904
-11.0343
-11.1916
-11.3801
-11.6046
-11.8686
-12.1738
-12.5187
-12.8977
-13.3004
-13.7118
-14.1126
-14.4811
-14.7942
-15.03
-15.169
-15.1964
-15.1026
-14.8845
-14.545
-14.0924
-13.5394
-12.9017
-12.197
-11.4432
-10.658
-9.85796
-9.058
-8.27116
-7.50839
-6.77853
-6.08831
-5.44249
-4.84403
-4.2943
-3.79334
-3.34008
-2.93261
-2.56838
-2.24445
-1.95761
-1.70457
-1.48205
-1.28687
-1.11603
-0.966671
-0.836072
-0.721707
-0.621299
-0.532926
-0.455065
-0.386544
-0.326418
-0.273833
-0.227955
-0.187956
-0.153063
-0.122585
-0.0959359
-0.072629
-0.0522566
-0.0344746
-0.0189884
-0.00554423
0.00607737
0.0160658
0.0245851
0.0317802
0.0377792
0.042698
0.0466445
0.0497183
0.0520117
0.0536103
0.0545927
0.055031