/*--------------------------------*- C++ -*----------------------------------*\
  =========                 |
  \\      /  F ield         | OpenFOAM: The Open Source CFD Toolbox
   \\    /   O peration     | Website:  https://openfoam.org
    \\  /    A nd           | Version:  10
     \\/     M anipulation  |
\*---------------------------------------------------------------------------*/
FoamFile
{
    format      ascii;
    class       surfaceScalarField;
    location    "0.04";
    object      phi;
}
// * * * * * * * * * * * * * * * * * * * * * * * * * * * * * * * * * * * * * //

dimensions      [0 3 -1 0 0 0 0];

internalField   nonuniform List<scalar> 
13452
(
5.94535e-05
8.14966e-07
5.84738e-05
9.79729e-07
5.74537e-05
1.02009e-06
5.6406e-05
1.04771e-06
5.53592e-05
1.04677e-06
5.43252e-05
1.03403e-06
5.33078e-05
1.01733e-06
5.23097e-05
9.98165e-07
5.13322e-05
9.77487e-07
5.03762e-05
9.55974e-07
4.94422e-05
9.33962e-07
4.85306e-05
9.11663e-07
4.76413e-05
8.89252e-07
4.67744e-05
8.66883e-07
4.59297e-05
8.44715e-07
4.51068e-05
8.22925e-07
4.43051e-05
8.01723e-07
4.35237e-05
7.8136e-07
4.27616e-05
7.62141e-07
4.20171e-05
7.44438e-07
4.12884e-05
7.28699e-07
4.0573e-05
7.15472e-07
3.98676e-05
7.05415e-07
3.91682e-05
6.99322e-07
3.84701e-05
6.9815e-07
3.7767e-05
7.03042e-07
3.70517e-05
7.15379e-07
3.63148e-05
7.36868e-07
3.55455e-05
7.69291e-07
3.47288e-05
8.16707e-07
3.38514e-05
8.77419e-07
3.28742e-05
9.77212e-07
1.07927e-06
3.17949e-05
6.24898e-05
3.15536e-07
6.29652e-05
5.04273e-07
6.34126e-05
5.72677e-07
6.38226e-05
6.37707e-07
6.41878e-05
6.81617e-07
6.45079e-05
7.13963e-07
6.47843e-05
7.40864e-07
6.50196e-05
7.62936e-07
6.52162e-05
7.80812e-07
6.5377e-05
7.95209e-07
6.55044e-05
8.06582e-07
6.56008e-05
8.15281e-07
6.56684e-05
8.21634e-07
6.57093e-05
8.2596e-07
6.57254e-05
8.28579e-07
6.57185e-05
8.29838e-07
6.56901e-05
8.30126e-07
6.56416e-05
8.29883e-07
6.55741e-05
8.29624e-07
6.54886e-05
8.29953e-07
6.53857e-05
8.31586e-07
6.52658e-05
8.35375e-07
6.51289e-05
8.42337e-07
6.49745e-05
8.53683e-07
6.48018e-05
8.70871e-07
6.46092e-05
8.95628e-07
6.43945e-05
9.30093e-07
6.41547e-05
9.76697e-07
6.38851e-05
1.03883e-06
6.3582e-05
1.11988e-06
6.32334e-05
1.22597e-06
6.28467e-05
1.36393e-06
1.53615e-06
6.23898e-05
6.38348e-05
2.42136e-07
6.39113e-05
4.27763e-07
6.39817e-05
5.02291e-07
6.40552e-05
5.64253e-07
6.41308e-05
6.0599e-07
6.42105e-05
6.34205e-07
6.42953e-05
6.56122e-07
6.43849e-05
6.73349e-07
6.44789e-05
6.86822e-07
6.45766e-05
6.97471e-07
6.46773e-05
7.05898e-07
6.478e-05
7.12524e-07
6.4884e-05
7.1771e-07
6.49881e-05
7.21785e-07
6.50917e-05
7.2506e-07
6.51936e-05
7.2786e-07
6.52932e-05
7.3054e-07
6.53896e-05
7.33501e-07
6.5482e-05
7.37208e-07
6.55698e-05
7.42211e-07
6.56522e-05
7.49161e-07
6.57287e-05
7.58835e-07
6.57989e-05
7.7216e-07
6.58623e-05
7.90239e-07
6.59188e-05
8.14392e-07
6.59683e-05
8.46177e-07
6.60109e-05
8.87477e-07
6.60471e-05
9.40455e-07
6.60781e-05
1.00783e-06
6.61055e-05
1.09248e-06
6.61335e-05
1.198e-06
6.61691e-05
1.3283e-06
1.47789e-06
6.62274e-05
6.56408e-05
1.8436e-07
6.56938e-05
3.74801e-07
6.57315e-05
4.6457e-07
6.57625e-05
5.33285e-07
6.57876e-05
5.80931e-07
6.58086e-05
6.13151e-07
6.58271e-05
6.37607e-07
6.58439e-05
6.56627e-07
6.58593e-05
6.71327e-07
6.5874e-05
6.82787e-07
6.58882e-05
6.91756e-07
6.59019e-05
6.98765e-07
6.59154e-05
7.04268e-07
6.59285e-05
7.08678e-07
6.59412e-05
7.12389e-07
6.59532e-05
7.15797e-07
6.59644e-05
7.19326e-07
6.59745e-05
7.23443e-07
6.5983e-05
7.28669e-07
6.59896e-05
7.35604e-07
6.59939e-05
7.44939e-07
6.59952e-05
7.57477e-07
6.59932e-05
7.74153e-07
6.59874e-05
7.96049e-07
6.59774e-05
8.24428e-07
6.59628e-05
8.60737e-07
6.59436e-05
9.06648e-07
6.59201e-05
9.64042e-07
6.58929e-05
1.03496e-06
6.58636e-05
1.12178e-06
6.5836e-05
1.22566e-06
6.58139e-05
1.35038e-06
1.48448e-06
6.58073e-05
6.74907e-05
1.50395e-07
6.75326e-05
3.32964e-07
6.75683e-05
4.2885e-07
6.76018e-05
4.99828e-07
6.76314e-05
5.51278e-07
6.76571e-05
5.87417e-07
6.76797e-05
6.15026e-07
6.76996e-05
6.36754e-07
6.77171e-05
6.53849e-07
6.77324e-05
6.67465e-07
6.77457e-05
6.78449e-07
6.77571e-05
6.8741e-07
6.77665e-05
6.94862e-07
6.77739e-05
7.01274e-07
6.77792e-05
7.07092e-07
6.77822e-05
7.12762e-07
6.77828e-05
7.18758e-07
6.77806e-05
7.25591e-07
6.77755e-05
7.33832e-07
6.77669e-05
7.44123e-07
6.77547e-05
7.57199e-07
6.77383e-05
7.73896e-07
6.77172e-05
7.95175e-07
6.76912e-05
8.22128e-07
6.76596e-05
8.55996e-07
6.76222e-05
8.9818e-07
6.75786e-05
9.5023e-07
6.75288e-05
1.01385e-06
6.7473e-05
1.09073e-06
6.7412e-05
1.18275e-06
6.73472e-05
1.29051e-06
6.72812e-05
1.41638e-06
1.55216e-06
6.72135e-05
6.94119e-05
1.22477e-07
6.94514e-05
2.93476e-07
6.9486e-05
3.94275e-07
6.95173e-05
4.68524e-07
6.95449e-05
5.23726e-07
6.95689e-05
5.63426e-07
6.95902e-05
5.93701e-07
6.96094e-05
6.17586e-07
6.96266e-05
6.36552e-07
6.96423e-05
6.51844e-07
6.96563e-05
6.64404e-07
6.96688e-05
6.74921e-07
6.96797e-05
6.8397e-07
6.96889e-05
6.9207e-07
6.96963e-05
6.99715e-07
6.97016e-05
7.07392e-07
6.97048e-05
7.15614e-07
6.97054e-05
7.24934e-07
6.97033e-05
7.35954e-07
6.96981e-05
7.49349e-07
6.96894e-05
7.65874e-07
6.96769e-05
7.86384e-07
6.96603e-05
8.11845e-07
6.96391e-05
8.43335e-07
6.9613e-05
8.82061e-07
6.95818e-05
9.29356e-07
6.95454e-05
9.86655e-07
6.95038e-05
1.05549e-06
6.94571e-05
1.13733e-06
6.94062e-05
1.23373e-06
6.93514e-05
1.34522e-06
6.92943e-05
1.47355e-06
1.61392e-06
6.92325e-05
7.13852e-05
1.03596e-07
7.14159e-05
2.62799e-07
7.14451e-05
3.65041e-07
7.14734e-05
4.40287e-07
7.14999e-05
4.97213e-07
7.15241e-05
5.39228e-07
7.15462e-05
5.71575e-07
7.15665e-05
5.97332e-07
7.15849e-05
6.18056e-07
7.16018e-05
6.34997e-07
7.16171e-05
6.4914e-07
7.16308e-05
6.61226e-07
7.16428e-05
6.71874e-07
7.16533e-05
6.81645e-07
7.16619e-05
6.91068e-07
7.16686e-05
7.00669e-07
7.16733e-05
7.10992e-07
7.16756e-05
7.22613e-07
7.16754e-05
7.36156e-07
7.16724e-05
7.52333e-07
7.16664e-05
7.71904e-07
7.1657e-05
7.95725e-07
7.16441e-05
8.2474e-07
7.16275e-05
8.59997e-07
7.16069e-05
9.02645e-07
7.15823e-05
9.53926e-07
7.15538e-05
1.01515e-06
7.15216e-05
1.08769e-06
7.14861e-05
1.17284e-06
7.14479e-05
1.27193e-06
7.14075e-05
1.38563e-06
7.13656e-05
1.51544e-06
1.65898e-06
7.13205e-05
7.34197e-05
8.91688e-08
7.34468e-05
2.35742e-07
7.34748e-05
3.36996e-07
7.35024e-05
4.12703e-07
7.35284e-05
4.71184e-07
7.35521e-05
5.15506e-07
7.35737e-05
5.49997e-07
7.35934e-05
5.77632e-07
7.36114e-05
6.00059e-07
7.36278e-05
6.18566e-07
7.36428e-05
6.34188e-07
7.36563e-05
6.47722e-07
7.36683e-05
6.59832e-07
7.36789e-05
6.71121e-07
7.36878e-05
6.82151e-07
7.3695e-05
6.93479e-07
7.37003e-05
7.05673e-07
7.37036e-05
7.19334e-07
7.37046e-05
7.35111e-07
7.37033e-05
7.53695e-07
7.36993e-05
7.75855e-07
7.36926e-05
8.02431e-07
7.3683e-05
8.34339e-07
7.36704e-05
8.72578e-07
7.36548e-05
9.18225e-07
7.36363e-05
9.72421e-07
7.36151e-05
1.03636e-06
7.35916e-05
1.11125e-06
7.35662e-05
1.19825e-06
7.35396e-05
1.29853e-06
7.35123e-05
1.41289e-06
7.3485e-05
1.54275e-06
1.68709e-06
7.34569e-05
7.55133e-05
7.83626e-08
7.55355e-05
2.13481e-07
7.55599e-05
3.12638e-07
7.55845e-05
3.88103e-07
7.56085e-05
4.47207e-07
7.56311e-05
4.92894e-07
7.56522e-05
5.28836e-07
7.5672e-05
5.5786e-07
7.56904e-05
5.81653e-07
7.57075e-05
6.01499e-07
7.57232e-05
6.1844e-07
7.57377e-05
6.333e-07
7.57507e-05
6.4677e-07
7.57624e-05
6.59472e-07
7.57725e-05
6.71993e-07
7.57811e-05
6.84906e-07
7.5788e-05
6.98793e-07
7.5793e-05
7.14265e-07
7.57962e-05
7.31987e-07
7.57972e-05
7.52631e-07
7.57961e-05
7.7695e-07
7.57928e-05
8.05755e-07
7.57872e-05
8.39919e-07
7.57794e-05
8.80377e-07
7.57695e-05
9.28118e-07
7.57578e-05
9.84179e-07
7.57445e-05
1.04962e-06
7.57302e-05
1.12552e-06
7.57156e-05
1.2129e-06
7.57013e-05
1.3128e-06
7.56882e-05
1.42605e-06
7.56769e-05
1.55401e-06
1.69632e-06
7.56677e-05
7.7668e-05
6.99453e-08
7.76871e-05
1.94416e-07
7.77095e-05
2.90206e-07
7.7733e-05
3.64605e-07
7.77564e-05
4.23762e-07
7.77789e-05
4.70434e-07
7.78001e-05
5.0767e-07
7.78199e-05
5.38022e-07
7.78384e-05
5.63139e-07
7.78556e-05
5.84276e-07
7.78716e-05
6.02474e-07
7.78863e-05
6.18575e-07
7.78998e-05
6.33292e-07
7.7912e-05
6.47269e-07
7.79229e-05
6.61109e-07
7.79324e-05
6.754e-07
7.79405e-05
6.90735e-07
7.7947e-05
7.07725e-07
7.7952e-05
7.27006e-07
7.79553e-05
7.49261e-07
7.79571e-05
7.75212e-07
7.79572e-05
8.0563e-07
7.79558e-05
8.41326e-07
7.7953e-05
8.83157e-07
7.79491e-05
9.3202e-07
7.79445e-05
9.88836e-07
7.79396e-05
1.05454e-06
7.7935e-05
1.13005e-06
7.79317e-05
1.21626e-06
7.79304e-05
1.31408e-06
7.79321e-05
1.42428e-06
7.79381e-05
1.54809e-06
1.68529e-06
7.79491e-05
7.9885e-05
6.3237e-08
7.99012e-05
1.78198e-07
7.99213e-05
2.70164e-07
7.99428e-05
3.43133e-07
7.99646e-05
4.01966e-07
7.99858e-05
4.49149e-07
8.00063e-05
4.87241e-07
8.00258e-05
5.18537e-07
8.00442e-05
5.44645e-07
8.00617e-05
5.66793e-07
8.00782e-05
5.86009e-07
8.00936e-05
6.03138e-07
8.0108e-05
6.18903e-07
8.01213e-05
6.33953e-07
8.01335e-05
6.48899e-07
8.01446e-05
6.64333e-07
8.01545e-05
6.80847e-07
8.01632e-05
6.99046e-07
8.01706e-05
7.19543e-07
8.01769e-05
7.42979e-07
8.01821e-05
7.70041e-07
8.01863e-05
8.01447e-07
8.01897e-05
8.37946e-07
8.01925e-05
8.8031e-07
8.01952e-05
9.29331e-07
8.01982e-05
9.85809e-07
8.02022e-05
1.05054e-06
8.0208e-05
1.12429e-06
8.02164e-05
1.20782e-06
8.02286e-05
1.30185e-06
8.02459e-05
1.40703e-06
8.02696e-05
1.52435e-06
1.65352e-06
8.03014e-05
8.21659e-05
5.77474e-08
8.21799e-05
1.6419e-07
8.21982e-05
2.51947e-07
8.22183e-05
3.22966e-07
8.22393e-05
3.80984e-07
8.22602e-05
4.28219e-07
8.22806e-05
4.66836e-07
8.23003e-05
4.98861e-07
8.23192e-05
5.25804e-07
8.23371e-05
5.48841e-07
8.23542e-05
5.68964e-07
8.23703e-05
5.87007e-07
8.23855e-05
6.03687e-07
8.23998e-05
6.19657e-07
8.24132e-05
6.35522e-07
8.24256e-05
6.51871e-07
8.24372e-05
6.69281e-07
8.24479e-05
6.88333e-07
8.24578e-05
7.09618e-07
8.24671e-05
7.33746e-07
8.24758e-05
7.61356e-07
8.24841e-05
7.93106e-07
8.24924e-05
8.29664e-07
8.2501e-05
8.7171e-07
8.25104e-05
9.19923e-07
8.25212e-05
9.74977e-07
8.25342e-05
1.03752e-06
8.25504e-05
1.10818e-06
8.25706e-05
1.18753e-06
8.25964e-05
1.27611e-06
8.2629e-05
1.37439e-06
8.26703e-05
1.48307e-06
1.60165e-06
8.27222e-05
8.45124e-05
5.31402e-08
8.45246e-05
1.5198e-07
8.45411e-05
2.35429e-07
8.45598e-05
3.04229e-07
8.45797e-05
3.61163e-07
8.45997e-05
4.08145e-07
8.46196e-05
4.46995e-07
8.4639e-05
4.79481e-07
8.46578e-05
5.07004e-07
8.46759e-05
5.30686e-07
8.46934e-05
5.51481e-07
8.47102e-05
5.70206e-07
8.47263e-05
5.87569e-07
8.47418e-05
6.04212e-07
8.47566e-05
6.20733e-07
8.47707e-05
6.37702e-07
8.47843e-05
6.55676e-07
8.47974e-05
6.7521e-07
8.48102e-05
6.96858e-07
8.48228e-05
7.21188e-07
8.48353e-05
7.4878e-07
8.48482e-05
7.8022e-07
8.48618e-05
8.16094e-07
8.48765e-05
8.56981e-07
8.4893e-05
9.03447e-07
8.49119e-05
9.56033e-07
8.49342e-05
1.01525e-06
8.49609e-05
1.08154e-06
8.49931e-05
1.15533e-06
8.50322e-05
1.23695e-06
8.508e-05
1.32664e-06
8.51382e-05
1.4248e-06
1.53069e-06
8.52092e-05
8.69261e-05
4.91846e-08
8.69369e-05
1.41201e-07
8.6952e-05
2.20333e-07
8.69696e-05
2.86648e-07
8.69886e-05
3.42178e-07
8.70082e-05
3.88542e-07
8.70279e-05
4.27289e-07
8.70474e-05
4.59957e-07
8.70666e-05
4.87829e-07
8.70853e-05
5.11959e-07
8.71035e-05
5.33249e-07
8.71213e-05
5.52482e-07
8.71385e-05
5.70345e-07
8.71552e-05
5.87459e-07
8.71716e-05
6.044e-07
8.71875e-05
6.21717e-07
8.72033e-05
6.39939e-07
8.72189e-05
6.59585e-07
8.72346e-05
6.81173e-07
8.72506e-05
7.05217e-07
8.72671e-05
7.32233e-07
8.72846e-05
7.62731e-07
8.73035e-05
7.97207e-07
8.73243e-05
8.36138e-07
8.73478e-05
8.79973e-07
8.73747e-05
9.29122e-07
8.7406e-05
9.83946e-07
8.74428e-05
1.04474e-06
8.74864e-05
1.11174e-06
8.75383e-05
1.18508e-06
8.76001e-05
1.26478e-06
8.7674e-05
1.35095e-06
1.44266e-06
8.7762e-05
8.9409e-05
4.57161e-08
8.94186e-05
1.31565e-07
8.94325e-05
2.06456e-07
8.9449e-05
2.70125e-07
8.94672e-05
3.24031e-07
8.94862e-05
3.69526e-07
8.95056e-05
4.0792e-07
8.9525e-05
4.40539e-07
8.95443e-05
4.68542e-07
8.95633e-05
4.92903e-07
8.95821e-05
5.14469e-07
8.96006e-05
5.33983e-07
8.96189e-05
5.52105e-07
8.96369e-05
5.69429e-07
8.96548e-05
5.86507e-07
8.96726e-05
6.03858e-07
8.96906e-05
6.21976e-07
8.97088e-05
6.41344e-07
8.97276e-05
6.62429e-07
8.97471e-05
6.8569e-07
8.97678e-05
7.11571e-07
8.979e-05
7.40503e-07
8.98143e-05
7.72892e-07
8.98413e-05
8.0911e-07
8.98718e-05
8.49491e-07
8.99066e-05
8.94317e-07
8.99468e-05
9.43808e-07
8.99934e-05
9.98108e-07
9.00479e-05
1.05727e-06
9.01117e-05
1.12127e-06
9.01866e-05
1.1899e-06
9.02745e-05
1.26302e-06
1.33955e-06
9.03776e-05
9.1963e-05
4.26171e-08
9.19717e-05
1.22839e-07
9.19845e-05
1.93596e-07
9.20002e-05
2.54493e-07
9.20176e-05
3.06568e-07
9.20362e-05
3.50932e-07
9.20555e-05
3.88696e-07
9.2075e-05
4.21003e-07
9.20946e-05
4.48889e-07
9.21143e-05
4.73248e-07
9.21339e-05
4.94867e-07
9.21534e-05
5.14444e-07
9.21729e-05
5.326e-07
9.21925e-05
5.49896e-07
9.22121e-05
5.66851e-07
9.22321e-05
5.83946e-07
9.22524e-05
6.01638e-07
9.22734e-05
6.2036e-07
9.22953e-05
6.4053e-07
9.23184e-05
6.62542e-07
9.23432e-05
6.86772e-07
9.23702e-05
7.13569e-07
9.23998e-05
7.43246e-07
9.24328e-05
7.76077e-07
9.247e-05
8.12283e-07
9.25123e-05
8.52026e-07
9.25607e-05
8.95394e-07
9.26165e-05
9.42393e-07
9.26808e-05
9.92926e-07
9.27553e-05
1.0468e-06
9.28415e-05
1.10364e-06
9.29415e-05
1.1631e-06
1.22405e-06
9.3057e-05
9.459e-05
3.98002e-08
9.4598e-05
1.14833e-07
9.461e-05
1.81579e-07
9.46249e-05
2.39623e-07
9.46417e-05
2.89703e-07
9.46599e-05
3.32727e-07
9.4679e-05
3.69635e-07
9.46986e-05
4.01408e-07
9.47185e-05
4.28962e-07
9.47387e-05
4.53107e-07
9.4759e-05
4.74566e-07
9.47794e-05
4.93984e-07
9.48001e-05
5.11939e-07
9.4821e-05
5.28954e-07
9.48424e-05
5.45507e-07
9.48643e-05
5.62042e-07
9.48869e-05
5.78968e-07
9.49106e-05
5.96673e-07
9.49356e-05
6.15515e-07
9.49624e-05
6.35828e-07
9.49912e-05
6.57914e-07
9.50227e-05
6.82043e-07
9.50575e-05
7.08441e-07
9.50963e-05
7.37286e-07
9.51399e-05
7.68696e-07
9.51892e-05
8.02721e-07
9.52453e-05
8.39335e-07
9.53093e-05
8.78418e-07
9.53824e-05
9.1975e-07
9.54662e-05
9.63002e-07
9.55622e-05
1.00768e-06
9.5672e-05
1.05328e-06
1.09864e-06
9.57974e-05
9.72921e-05
3.71999e-08
9.72996e-05
1.07394e-07
9.73109e-05
1.70246e-07
9.73251e-05
2.25377e-07
9.73415e-05
2.73319e-07
9.73594e-05
3.14806e-07
9.73784e-05
3.50633e-07
9.73982e-05
3.81641e-07
9.74185e-05
4.08633e-07
9.74393e-05
4.32336e-07
9.74605e-05
4.53407e-07
9.7482e-05
4.72436e-07
9.7504e-05
4.89953e-07
9.75265e-05
5.06438e-07
9.75497e-05
5.22326e-07
9.75737e-05
5.38013e-07
9.75988e-05
5.53865e-07
9.76253e-05
5.70213e-07
9.76534e-05
5.87359e-07
9.76837e-05
6.05574e-07
9.77165e-05
6.25089e-07
9.77525e-05
6.46098e-07
9.77922e-05
6.68745e-07
9.78363e-05
6.93119e-07
9.78858e-05
7.19246e-07
9.79414e-05
7.47081e-07
9.80043e-05
7.76496e-07
9.80754e-05
8.07276e-07
9.81561e-05
8.39098e-07
9.82475e-05
8.71538e-07
9.83512e-05
9.04021e-07
9.84685e-05
9.35937e-07
9.66207e-07
9.8601e-05
0.000100072
3.47649e-08
0.000100079
1.00395e-07
0.000100089
1.59458e-07
0.000100103
2.11634e-07
0.000100119
2.57315e-07
0.000100137
2.97095e-07
0.000100156
3.31646e-07
0.000100176
3.61682e-07
0.000100196
3.87906e-07
0.000100218
4.10962e-07
0.00010024
4.31436e-07
0.000100262
4.49862e-07
0.000100286
4.66719e-07
0.00010031
4.82436e-07
0.000100335
4.97405e-07
0.000100361
5.11973e-07
0.000100388
5.26455e-07
0.000100417
5.4113e-07
0.000100448
5.56244e-07
0.000100482
5.72003e-07
0.000100518
5.88574e-07
0.000100558
6.06079e-07
0.000100602
6.24587e-07
0.000100651
6.44111e-07
0.000100706
6.64596e-07
0.000100767
6.85918e-07
0.000100836
7.07871e-07
0.000100913
7.30162e-07
0.000101
7.524e-07
0.000101097
7.74102e-07
0.000101206
7.94654e-07
0.000101329
8.13392e-07
8.29335e-07
0.000101466
0.00010293
3.24544e-08
0.000102937
9.37323e-08
0.000102947
1.49089e-07
0.000102961
1.98277e-07
0.000102976
2.41588e-07
0.000102994
2.79507e-07
0.000103013
3.12597e-07
0.000103033
3.41465e-07
0.000103055
3.66717e-07
0.000103077
3.88917e-07
0.000103099
4.08586e-07
0.000103123
4.26195e-07
0.000103148
4.4217e-07
0.000103173
4.56894e-07
0.0001032
4.70705e-07
0.000103228
4.83905e-07
0.000103258
4.96756e-07
0.000103289
5.09486e-07
0.000103323
5.22282e-07
0.00010336
5.35295e-07
0.0001034
5.48629e-07
0.000103444
5.62341e-07
0.000103492
5.76436e-07
0.000103545
5.9086e-07
0.000103604
6.05496e-07
0.00010367
6.20154e-07
0.000103743
6.34572e-07
0.000103825
6.48406e-07
0.000103916
6.61227e-07
0.000104018
6.72526e-07
0.000104131
6.81687e-07
0.000104256
6.88039e-07
6.90723e-07
0.000104395
0.000105871
3.02351e-08
0.000105877
8.73166e-08
0.000105887
1.39032e-07
0.0001059
1.85198e-07
0.000105916
2.26043e-07
0.000105934
2.61962e-07
0.000105953
2.93424e-07
0.000105973
3.20945e-07
0.000105995
3.45039e-07
0.000106018
3.66196e-07
0.000106041
3.84868e-07
0.000106066
4.01468e-07
0.000106092
4.16366e-07
0.000106119
4.29893e-07
0.000106147
4.42338e-07
0.000106177
4.53954e-07
0.000106209
4.64952e-07
0.000106243
4.75509e-07
0.00010628
4.85761e-07
0.000106319
4.95801e-07
0.000106362
5.05682e-07
0.000106409
5.15404e-07
0.00010646
5.24917e-07
0.000106517
5.34116e-07
0.00010658
5.42831e-07
0.000106649
5.50832e-07
0.000106726
5.57817e-07
0.000106811
5.63419e-07
0.000106905
5.67198e-07
0.000107009
5.68643e-07
0.000107123
5.67167e-07
0.000107249
5.6213e-07
5.52804e-07
0.000107387
0.000108896
2.80793e-08
0.000108902
8.10733e-08
0.000108912
1.29188e-07
0.000108925
1.72299e-07
0.00010894
2.1059e-07
0.000108958
2.44383e-07
0.000108977
2.7407e-07
0.000108998
3.00078e-07
0.00010902
3.22845e-07
0.000109043
3.42785e-07
0.000109068
3.60285e-07
0.000109094
3.75699e-07
0.000109121
3.89342e-07
0.000109149
4.01493e-07
0.000109179
4.12392e-07
0.000109211
4.22243e-07
0.000109245
4.3121e-07
0.000109281
4.39421e-07
0.000109319
4.46963e-07
0.000109361
4.53883e-07
0.000109407
4.60183e-07
0.000109456
4.6582e-07
0.000109511
4.70701e-07
0.00010957
4.74678e-07
0.000109635
4.77549e-07
0.000109707
4.79057e-07
0.000109786
4.78886e-07
0.000109873
4.76663e-07
0.000109968
4.71957e-07
0.000110072
4.64283e-07
0.000110187
4.53101e-07
0.000110311
4.3783e-07
4.17884e-07
0.000110446
0.000112007
2.59629e-08
0.000112013
7.49369e-08
0.000112022
1.1947e-07
0.000112035
1.59486e-07
0.000112051
1.9514e-07
0.000112068
2.26693e-07
0.000112088
2.54466e-07
0.000112109
2.78815e-07
0.000112132
3.00099e-07
0.000112156
3.18666e-07
0.000112182
3.3484e-07
0.000112208
3.48914e-07
0.000112237
3.61152e-07
0.000112266
3.7178e-07
0.000112298
3.80992e-07
0.000112331
3.88944e-07
0.000112366
3.95754e-07
0.000112404
4.01506e-07
0.000112445
4.06245e-07
0.000112489
4.09974e-07
0.000112537
4.12659e-07
0.000112588
4.14218e-07
0.000112644
4.14526e-07
0.000112706
4.13409e-07
0.000112772
4.10648e-07
0.000112846
4.05976e-07
0.000112925
3.99076e-07
0.000113012
3.89588e-07
0.000113107
3.7711e-07
0.00011321
3.61199e-07
0.000113322
3.41382e-07
0.000113443
3.17153e-07
2.88076e-07
0.000113573
0.000115207
2.38654e-08
0.000115213
6.8851e-08
0.000115222
1.098e-07
0.000115235
1.46681e-07
0.000115251
1.79622e-07
0.000115269
2.08835e-07
0.000115288
2.3458e-07
0.00011531
2.57144e-07
0.000115333
2.76818e-07
0.000115358
2.93884e-07
0.000115384
3.08605e-07
0.000115412
3.21218e-07
0.000115441
3.31934e-07
0.000115472
3.40931e-07
0.000115505
3.48356e-07
0.000115539
3.54322e-07
0.000115576
3.58905e-07
0.000115616
3.62149e-07
0.000115658
3.64062e-07
0.000115703
3.64614e-07
0.000115752
3.63738e-07
0.000115805
3.61327e-07
0.000115862
3.57233e-07
0.000115924
3.51272e-07
0.000115992
3.43217e-07
0.000116065
3.32805e-07
0.000116144
3.19732e-07
0.00011623
3.03666e-07
0.000116323
2.84246e-07
0.000116423
2.61085e-07
0.000116531
2.33783e-07
0.000116646
2.01914e-07
1.6518e-07
0.000116769
0.000118498
2.17672e-08
0.000118504
6.27608e-08
0.000118514
1.00102e-07
0.000118527
1.33793e-07
0.000118542
1.63942e-07
0.00011856
1.90718e-07
0.000118581
2.14327e-07
0.000118603
2.34992e-07
0.000118627
2.52941e-07
0.000118652
2.68395e-07
0.000118679
2.81559e-07
0.000118708
2.92615e-07
0.000118738
3.01726e-07
0.00011877
3.09022e-07
0.000118804
3.14606e-07
0.000118839
3.18552e-07
0.000118878
3.20898e-07
0.000118918
3.21654e-07
0.000118961
3.20796e-07
0.000119008
3.18268e-07
0.000119057
3.13978e-07
0.000119111
3.07803e-07
0.000119169
2.99588e-07
0.000119231
2.89143e-07
0.000119298
2.76247e-07
0.00011937
2.60651e-07
0.000119447
2.42076e-07
0.000119531
2.20229e-07
0.00011962
1.94802e-07
0.000119716
1.65468e-07
0.000119818
1.31907e-07
0.000119926
9.37872e-08
5.09432e-08
0.00012004
0.000121883
1.96525e-08
0.00012189
5.66232e-08
0.000121899
9.0318e-08
0.000121912
1.20768e-07
0.000121928
1.48064e-07
0.000121947
1.72333e-07
0.000121967
1.93729e-07
0.00012199
2.12417e-07
0.000122014
2.28566e-07
0.00012204
2.42337e-07
0.000122068
2.53879e-07
0.000122097
2.63325e-07
0.000122128
2.70789e-07
0.000122161
2.7636e-07
0.000122195
2.80101e-07
0.000122232
2.82047e-07
0.000122271
2.82206e-07
0.000122312
2.80559e-07
0.000122355
2.77057e-07
0.000122402
2.71622e-07
0.000122452
2.64152e-07
0.000122505
2.54515e-07
0.000122562
2.4255e-07
0.000122623
2.28074e-07
0.000122689
2.10884e-07
0.000122758
1.90752e-07
0.000122833
1.67423e-07
0.000122913
1.40658e-07
0.000122997
1.10203e-07
0.000123087
7.57965e-08
0.000123182
3.71928e-08
0.000123281
-5.8587e-09
-5.34143e-08
0.000123386
0.000125366
1.74983e-08
0.000125372
5.03744e-08
0.000125382
8.03494e-08
0.000125395
1.07481e-07
0.000125411
1.31841e-07
0.00012543
1.5352e-07
0.000125451
1.72623e-07
0.000125474
1.89261e-07
0.000125499
2.03544e-07
0.000125526
2.15579e-07
0.000125555
2.25463e-07
0.000125585
2.33279e-07
0.000125616
2.39098e-07
0.00012565
2.42966e-07
0.000125685
2.44913e-07
0.000125722
2.44941e-07
0.000125761
2.4303e-07
0.000125803
2.39136e-07
0.000125846
2.33193e-07
0.000125893
2.25109e-07
0.000125942
2.14776e-07
0.000125995
2.02061e-07
0.000126051
1.86808e-07
0.00012611
1.68843e-07
0.000126173
1.47997e-07
0.000126239
1.24067e-07
0.00012631
9.68083e-08
0.000126385
6.60573e-08
0.000126463
3.16381e-08
0.000126546
-6.68185e-09
0.000126632
-4.90847e-08
0.000126722
-9.56961e-08
-1.46491e-07
0.000126815
0.000128947
1.52996e-08
0.000128954
4.39972e-08
0.000128964
7.01893e-08
0.000128977
9.39536e-08
0.000128994
1.15339e-07
0.000129013
1.34395e-07
0.000129034
1.51175e-07
0.000129058
1.65735e-07
0.000129083
1.78132e-07
0.000129111
1.8842e-07
0.000129139
1.96648e-07
0.00012917
2.02854e-07
0.000129202
2.07067e-07
0.000129235
2.09298e-07
0.000129271
2.09544e-07
0.000129308
2.07784e-07
0.000129347
2.03974e-07
0.000129388
1.98053e-07
0.000129431
1.89938e-07
0.000129477
1.7953e-07
0.000129525
1.6672e-07
0.000129576
1.51384e-07
0.000129629
1.33367e-07
0.000129685
1.1251e-07
0.000129745
8.86967e-08
0.000129807
6.17842e-08
0.000129872
3.14053e-08
0.000129941
-2.39522e-09
0.000130012
-3.97389e-08
0.000130086
-8.08718e-08
0.000130163
-1.25862e-07
0.000130242
-1.74818e-07
-2.27632e-07
0.000130324
0.000132631
1.30009e-08
0.000132638
3.73523e-08
0.000132649
5.96136e-08
0.000132663
7.98899e-08
0.00013268
9.82084e-08
0.0001327
1.14577e-07
0.000132722
1.28996e-07
0.000132746
1.41463e-07
0.000132772
1.5198e-07
0.0001328
1.6055e-07
0.00013283
1.67171e-07
0.000132861
1.7184e-07
0.000132893
1.74546e-07
0.000132927
1.75267e-07
0.000132963
1.73974e-07
0.000133
1.70624e-07
0.000133039
1.65156e-07
0.000133079
1.57494e-07
0.000133122
1.47544e-07
0.000133166
1.35203e-07
0.000133212
1.2037e-07
0.000133261
1.02942e-07
0.000133311
8.27516e-08
0.000133364
5.96634e-08
0.000133419
3.35921e-08
0.000133476
4.83761e-09
0.000133536
-2.80644e-08
0.000133597
-6.38476e-08
0.000133661
-1.03107e-07
0.000133726
-1.4591e-07
0.000133792
-1.92297e-07
0.00013386
-2.42308e-07
-2.95772e-07
0.000133928
0.000136421
1.06577e-08
0.000136427
3.05439e-08
0.000136438
4.88112e-08
0.000136453
6.55734e-08
0.00013647
8.08158e-08
0.00013649
9.44944e-08
0.000136512
1.06554e-07
0.000136537
1.16937e-07
0.000136563
1.25595e-07
0.000136591
1.32484e-07
0.000136621
1.3756e-07
0.000136652
1.40779e-07
0.000136685
1.42096e-07
0.000136718
1.41461e-07
0.000136754
1.3882e-07
0.00013679
1.34118e-07
0.000136828
1.27275e-07
0.000136867
1.18206e-07
0.000136908
1.0681e-07
0.00013695
9.29714e-08
0.000136994
7.66259e-08
0.000137039
5.76811e-08
0.000137086
3.59715e-08
0.000137134
1.12614e-08
0.000137184
-1.60885e-08
0.000137235
-4.65583e-08
0.000137288
-8.03162e-08
0.000137341
-1.17234e-07
0.000137395
-1.57403e-07
0.00013745
-2.0087e-07
0.000137506
-2.4763e-07
0.000137561
-2.97693e-07
-3.50852e-07
0.000137616
0.000140318
8.03411e-09
0.000140326
2.30901e-08
0.000140338
3.70816e-08
0.000140353
5.01571e-08
0.000140372
6.22519e-08
0.000140393
7.32556e-08
0.000140416
8.30219e-08
0.000140442
9.14162e-08
0.000140469
9.83322e-08
0.000140498
1.03678e-07
0.000140528
1.07368e-07
0.00014056
1.09317e-07
0.000140592
1.0945e-07
0.000140626
1.07687e-07
0.000140661
1.03951e-07
0.000140697
9.81885e-08
0.000140734
9.03125e-08
0.000140772
8.024e-08
0.000140811
6.78329e-08
0.000140851
5.29902e-08
0.000140892
3.56694e-08
0.000140933
1.59112e-08
0.000140976
-6.65868e-09
0.000141019
-3.21061e-08
0.000141064
-6.02682e-08
0.000141108
-9.13371e-08
0.000141153
-1.25387e-07
0.000141199
-1.62427e-07
0.000141244
-2.02468e-07
0.000141288
-2.45508e-07
0.000141332
-2.91505e-07
0.000141375
-3.40418e-07
-3.92006e-07
0.000141416
0.000144327
5.53886e-09
0.000144335
1.56425e-08
0.000144346
2.53086e-08
0.000144362
3.46508e-08
0.000144381
4.35441e-08
0.000144402
5.18313e-08
0.000144426
5.9279e-08
0.000144451
6.5692e-08
0.000144479
7.09127e-08
0.000144508
7.48e-08
0.000144538
7.72215e-08
0.000144569
7.80552e-08
0.000144601
7.71919e-08
0.000144635
7.45282e-08
0.000144669
6.99701e-08
0.000144703
6.35056e-08
0.000144739
5.50034e-08
0.000144774
4.43374e-08
0.000144811
3.14144e-08
0.000144848
1.60448e-08
0.000144885
-1.82036e-09
0.000144923
-2.16737e-08
0.000144961
-4.43642e-08
0.000144998
-6.97142e-08
0.000145036
-9.77295e-08
0.000145073
-1.28474e-07
0.000145109
-1.61985e-07
0.000145145
-1.9826e-07
0.00014518
-2.37284e-07
0.000145214
-2.79026e-07
0.000145245
-3.23422e-07
0.000145275
-3.70421e-07
-4.19774e-07
0.000145303
0.000148451
2.05232e-09
0.000148461
6.43836e-09
0.000148475
1.1368e-08
0.000148492
1.69526e-08
0.000148513
2.28276e-08
0.000148536
2.86865e-08
0.000148561
3.40744e-08
0.000148588
3.87607e-08
0.000148617
4.25413e-08
0.000148646
4.52233e-08
0.000148677
4.66314e-08
0.000148708
4.66118e-08
0.00014874
4.50361e-08
0.000148773
4.17951e-08
0.000148806
3.67417e-08
0.00014884
2.98542e-08
0.000148874
2.1126e-08
0.000148908
1.0447e-08
0.000148942
-2.34952e-09
0.000148975
-1.78828e-08
0.000149009
-3.5399e-08
0.000149043
-5.5149e-08
0.000149076
-7.73336e-08
0.000149108
-1.01976e-07
0.000149139
-1.29085e-07
0.000149169
-1.58689e-07
0.000149198
-1.90798e-07
0.000149225
-2.25392e-07
0.00014925
-2.62433e-07
0.000149273
-3.01864e-07
0.000149293
-3.43592e-07
0.000149311
-3.87531e-07
-4.33429e-07
0.000149324
0.000152692
-5.28519e-10
0.0001527
-1.98107e-09
0.000152714
-2.08602e-09
0.000152731
-7.90879e-10
0.000152753
1.59852e-09
0.000152776
5.02303e-09
0.000152802
8.3667e-09
0.000152829
1.14153e-08
0.000152858
1.38747e-08
0.000152888
1.54981e-08
0.000152918
1.60791e-08
0.000152949
1.54399e-08
0.000152981
1.34124e-08
0.000153013
9.82764e-09
0.000153045
4.37182e-09
0.000153078
-2.37461e-09
0.000153109
-1.05796e-08
0.000153141
-2.10014e-08
0.000153172
-3.34237e-08
0.000153202
-4.79644e-08
0.000153231
-6.45502e-08
0.000153259
-8.32546e-08
0.000153286
-1.04163e-07
0.000153311
-1.27307e-07
0.000153335
-1.527e-07
0.000153357
-1.80353e-07
0.000153376
-2.10257e-07
0.000153393
-2.42381e-07
0.000153407
-2.76682e-07
0.000153419
-3.13097e-07
0.000153426
-3.51538e-07
0.000153431
-3.91937e-07
-4.34053e-07
0.000153431
0.000157057
-6.35577e-09
0.000157071
-1.52437e-08
0.000157089
-2.0128e-08
0.00015711
-2.1965e-08
0.000157133
-2.19639e-08
0.000157159
-2.07162e-08
0.000157186
-1.89437e-08
0.000157215
-1.71322e-08
0.000157244
-1.5641e-08
0.000157275
-1.47578e-08
0.000157306
-1.47231e-08
0.000157337
-1.57256e-08
0.000157368
-1.79125e-08
0.000157399
-2.1401e-08
0.00015743
-2.6338e-08
0.00015746
-3.27833e-08
0.000157491
-4.07681e-08
0.00015752
-5.04279e-08
0.000157548
-6.1872e-08
0.000157576
-7.51769e-08
0.000157601
-9.03451e-08
0.000157626
-1.07417e-07
0.000157648
-1.2644e-07
0.000157668
-1.47437e-07
0.000157686
-1.70414e-07
0.000157701
-1.95366e-07
0.000157713
-2.22271e-07
0.000157721
-2.51089e-07
0.000157727
-2.81764e-07
0.000157728
-3.14219e-07
0.000157724
-3.48356e-07
0.000157717
-3.84078e-07
-4.21164e-07
0.000157704
0.000161541
-9.0121e-09
0.000161553
-2.67309e-08
0.00016157
-3.77377e-08
0.000161592
-4.41264e-08
0.000161618
-4.74104e-08
0.000161645
-4.84143e-08
0.000161675
-4.81346e-08
0.000161705
-4.73378e-08
0.000161736
-4.65055e-08
0.000161767
-4.59957e-08
0.000161798
-4.60886e-08
0.00016183
-4.69962e-08
0.000161861
-4.88814e-08
0.000161891
-5.18802e-08
0.000161921
-5.61005e-08
0.00016195
-6.15625e-08
0.000161977
-6.83853e-08
0.000162003
-7.66873e-08
0.000162028
-8.65314e-08
0.000162051
-9.7962e-08
0.000162072
-1.11012e-07
0.00016209
-1.25716e-07
0.000162106
-1.42104e-07
0.000162118
-1.6019e-07
0.000162128
-1.79979e-07
0.000162134
-2.01462e-07
0.000162136
-2.24619e-07
0.000162135
-2.49417e-07
0.000162129
-2.75808e-07
0.000162118
-3.03737e-07
0.000162103
-3.33124e-07
0.000162083
-3.63917e-07
-3.95917e-07
0.000162058
0.000166166
-2.18193e-08
0.000166187
-4.77791e-08
0.000166212
-6.18402e-08
0.000166238
-7.01244e-08
0.000166265
-7.49109e-08
0.000166294
-7.69774e-08
0.000166323
-7.75419e-08
0.000166353
-7.74304e-08
0.000166384
-7.70944e-08
0.000166415
-7.68786e-08
0.000166446
-7.70518e-08
0.000166476
-7.78116e-08
0.000166507
-7.93081e-08
0.000166537
-8.16651e-08
0.000166565
-8.49848e-08
0.000166593
-8.93325e-08
0.00016662
-9.47836e-08
0.000166644
-1.01409e-07
0.000166667
-1.09267e-07
0.000166688
-1.18403e-07
0.000166705
-1.28849e-07
0.00016672
-1.40632e-07
0.000166732
-1.53769e-07
0.00016674
-1.68272e-07
0.000166744
-1.8414e-07
0.000166744
-2.01362e-07
0.000166739
-2.19918e-07
0.00016673
-2.3977e-07
0.000166715
-2.60871e-07
0.000166694
-2.8316e-07
0.000166668
-3.06556e-07
0.000166635
-3.30989e-07
-3.56274e-07
0.000166595
0.000170911
-3.18855e-08
0.000170938
-7.50796e-08
0.00017097
-9.35021e-08
0.000171004