/*--------------------------------*- C++ -*----------------------------------*\
  =========                 |
  \\      /  F ield         | OpenFOAM: The Open Source CFD Toolbox
   \\    /   O peration     | Website:  https://openfoam.org
    \\  /    A nd           | Version:  10
     \\/     M anipulation  |
\*---------------------------------------------------------------------------*/
FoamFile
{
    format      ascii;
    class       volVectorField;
    location    "0.04";
    object      U;
}
// * * * * * * * * * * * * * * * * * * * * * * * * * * * * * * * * * * * * * //

dimensions      [0 1 -1 0 0 0 0];

internalField   nonuniform List<vector> 
6820
(
(7.28179 0.0248095 0)
(7.17829 0.040002 0)
(7.05577 0.0449173 0)
(6.92741 0.0475389 0)
(6.79967 0.04858 0)
(6.67305 0.0486949 0)
(6.5481 0.0483204 0)
(6.4254 0.0476428 0)
(6.30517 0.0467725 0)
(6.18751 0.0457828 0)
(6.07251 0.0447181 0)
(5.9602 0.0436079 0)
(5.85063 0.0424732 0)
(5.74378 0.0413301 0)
(5.63965 0.040192 0)
(5.53819 0.0390712 0)
(5.43936 0.0379801 0)
(5.34307 0.0369327 0)
(5.24919 0.0359448 0)
(5.15758 0.0350358 0)
(5.06801 0.0342291 0)
(4.98023 0.0335541 0)
(4.89389 0.0330467 0)
(4.80856 0.0327518 0)
(4.7237 0.0327248 0)
(4.63866 0.0330342 0)
(4.55263 0.0337629 0)
(4.46459 0.0350223 0)
(4.37335 0.0369103 0)
(4.27744 0.0397273 0)
(4.1746 0.0432828 0)
(4.06452 0.04915 0)
(3.93528 0.0572543 0)
(7.35921 0.0258815 0)
(7.42098 0.035768 0)
(7.47608 0.0375811 0)
(7.52636 0.0396242 0)
(7.57239 0.0410645 0)
(7.61303 0.0422193 0)
(7.64825 0.0433555 0)
(7.67845 0.0444698 0)
(7.70394 0.0455495 0)
(7.72503 0.0465925 0)
(7.74202 0.0475913 0)
(7.75521 0.0485391 0)
(7.76486 0.0494328 0)
(7.77124 0.0502723 0)
(7.77457 0.0510609 0)
(7.77508 0.0518062 0)
(7.77297 0.0525201 0)
(7.76839 0.0532204 0)
(7.76151 0.0539311 0)
(7.75245 0.0546843 0)
(7.7413 0.055522 0)
(7.72812 0.0564976 0)
(7.71295 0.0576792 0)
(7.69575 0.0591525 0)
(7.67645 0.0610251 0)
(7.65491 0.0634303 0)
(7.63091 0.0665371 0)
(7.60414 0.0705518 0)
(7.57422 0.0757395 0)
(7.54039 0.0824827 0)
(7.50267 0.0910249 0)
(7.45775 0.103156 0)
(7.41335 0.115859 0)
(7.33542 0.00694708 0)
(7.34563 0.0101963 0)
(7.35465 0.0128101 0)
(7.36246 0.0162547 0)
(7.37092 0.0191443 0)
(7.37991 0.0216391 0)
(7.38934 0.0239572 0)
(7.39936 0.0260976 0)
(7.40993 0.0280698 0)
(7.42098 0.0299012 0)
(7.43241 0.0316116 0)
(7.44413 0.0332166 0)
(7.45604 0.034731 0)
(7.46803 0.0361696 0)
(7.48 0.037548 0)
(7.49184 0.0388835 0)
(7.50346 0.0401965 0)
(7.51475 0.041512 0)
(7.52563 0.0428607 0)
(7.53601 0.0442813 0)
(7.54582 0.0458224 0)
(7.55498 0.0475453 0)
(7.56343 0.0495266 0)
(7.57112 0.0518624 0)
(7.57803 0.0546731 0)
(7.58412 0.0581072 0)
(7.58941 0.0623543 0)
(7.59394 0.0676376 0)
(7.59776 0.0742751 0)
(7.60111 0.0825587 0)
(7.60405 0.093159 0)
(7.60785 0.106165 0)
(7.61178 0.123102 0)
(7.33494 0.00929678 0)
(7.3425 0.0201114 0)
(7.34809 0.0255848 0)
(7.35153 0.0292694 0)
(7.35452 0.0316668 0)
(7.35713 0.0332919 0)
(7.35931 0.034553 0)
(7.36125 0.0355865 0)
(7.36304 0.0364648 0)
(7.36472 0.0372466 0)
(7.36633 0.0379684 0)
(7.36788 0.0386533 0)
(7.3694 0.03932 0)
(7.37089 0.0399849 0)
(7.37233 0.040664 0)
(7.37372 0.0413744 0)
(7.37503 0.0421363 0)
(7.37623 0.0429735 0)
(7.37728 0.0439155 0)
(7.37814 0.0449987 0)
(7.37876 0.0462684 0)
(7.37909 0.0477806 0)
(7.37906 0.0496043 0)
(7.37864 0.0518243 0)
(7.37777 0.0545446 0)
(7.3764 0.057891 0)
(7.37452 0.0620167 0)
(7.37213 0.0671057 0)
(7.36926 0.0733704 0)
(7.36609 0.0810863 0)
(7.36271 0.0904277 0)
(7.36004 0.101936 0)
(7.35753 0.114537 0)
(7.334 0.00639112 0)
(7.33875 0.0127146 0)
(7.34341 0.0155358 0)
(7.34704 0.0180949 0)
(7.35042 0.0203804 0)
(7.35347 0.0223585 0)
(7.35609 0.0242017 0)
(7.35837 0.0259427 0)
(7.3604 0.0275805 0)
(7.36218 0.0291294 0)
(7.36373 0.0306022 0)
(7.36507 0.0320099 0)
(7.3662 0.0333652 0)
(7.36712 0.0346831 0)
(7.36781 0.0359809 0)
(7.36827 0.0372794 0)
(7.36847 0.0386032 0)
(7.3684 0.0399823 0)
(7.36801 0.0414531 0)
(7.36728 0.0430594 0)
(7.36616 0.0448543 0)
(7.36461 0.0469027 0)
(7.36259 0.0492825 0)
(7.36005 0.0520873 0)
(7.35693 0.0554289 0)
(7.35319 0.0594395 0)
(7.3488 0.0642747 0)
(7.34373 0.0701134 0)
(7.33798 0.0771548 0)
(7.33164 0.0856244 0)
(7.32472 0.0956783 0)
(7.31764 0.107614 0)
(7.31015 0.120779 0)
(7.33375 0.00535729 0)
(7.33775 0.0131182 0)
(7.34212 0.01835 0)
(7.34557 0.0225698 0)
(7.3486 0.0258419 0)
(7.35134 0.0283216 0)
(7.35372 0.0303178 0)
(7.35584 0.0319896 0)
(7.35776 0.0334213 0)
(7.3595 0.0346835 0)
(7.36107 0.0358291 0)
(7.36247 0.0368961 0)
(7.36371 0.0379159 0)
(7.36477 0.0389167 0)
(7.36565 0.0399255 0)
(7.36633 0.0409701 0)
(7.36679 0.0420808 0)
(7.367 0.043292 0)
(7.36693 0.0446435 0)
(7.36655 0.0461833 0)
(7.36583 0.047967 0)
(7.36472 0.0500606 0)
(7.3632 0.0525427 0)
(7.36121 0.055506 0)
(7.35872 0.0590595 0)
(7.3557 0.0633299 0)
(7.35214 0.0684623 0)
(7.34802 0.0746213 0)
(7.34334 0.0819794 0)
(7.33818 0.0907319 0)
(7.33256 0.100995 0)
(7.32666 0.113004 0)
(7.32035 0.126357 0)
(7.33346 0.00445912 0)
(7.33623 0.0110932 0)
(7.33965 0.0151906 0)
(7.34261 0.0182216 0)
(7.34538 0.0206383 0)
(7.348 0.0226111 0)
(7.35039 0.0243523 0)
(7.35256 0.0259574 0)
(7.35454 0.0274595 0)
(7.35636 0.0288874 0)
(7.35801 0.0302641 0)
(7.3595 0.0316073 0)
(7.36082 0.0329339 0)
(7.36198 0.0342625 0)
(7.36297 0.0356138 0)
(7.36376 0.037012 0)
(7.36435 0.0384857 0)
(7.36471 0.0400691 0)
(7.36483 0.0418027 0)
(7.36468 0.0437319 0)
(7.36422 0.0459162 0)
(7.36344 0.0484255 0)
(7.36231 0.0513406 0)
(7.36079 0.0547556 0)
(7.35889 0.0587792 0)
(7.35657 0.0635363 0)
(7.35384 0.0691669 0)
(7.35072 0.0758264 0)
(7.34723 0.083676 0)
(7.34344 0.092892 0)
(7.33937 0.103601 0)
(7.33515 0.116009 0)
(7.33069 0.129946 0)
(7.33332 0.00379339 0)
(7.33549 0.0100836 0)
(7.33852 0.0146931 0)
(7.34137 0.0184879 0)
(7.34403 0.0216933 0)
(7.34653 0.0243456 0)
(7.34879 0.0265922 0)
(7.35085 0.0285443 0)
(7.35272 0.030267 0)
(7.35444 0.031817 0)
(7.35601 0.0332425 0)
(7.35743 0.0345826 0)
(7.35871 0.0358716 0)
(7.35984 0.0371417 0)
(7.36081 0.038425 0)
(7.36162 0.0397548 0)
(7.36225 0.041167 0)
(7.36268 0.0427019 0)
(7.36291 0.0444048 0)
(7.3629 0.0463376 0)
(7.36264 0.0485552 0)
(7.36211 0.0511241 0)
(7.3613 0.0541244 0)
(7.3602 0.0576487 0)
(7.35879 0.0618022 0)
(7.35709 0.0667029 0)
(7.3551 0.0724814 0)
(7.35286 0.0792808 0)
(7.3504 0.0872493 0)
(7.34779 0.0965459 0)
(7.34508 0.107302 0)
(7.34235 0.119714 0)
(7.33959 0.133752 0)
(7.33322 0.00330926 0)
(7.33486 0.00907016 0)
(7.33734 0.0133849 0)
(7.33979 0.0167728 0)
(7.34214 0.0195241 0)
(7.34441 0.0217678 0)
(7.34655 0.0236768 0)
(7.34853 0.0253741 0)
(7.35038 0.0269252 0)
(7.35211 0.0283771 0)
(7.3537 0.0297674 0)
(7.35517 0.0311255 0)
(7.3565 0.032477 0)
(7.3577 0.0338474 0)
(7.35877 0.0352632 0)
(7.35968 0.0367535 0)
(7.36043 0.038351 0)
(7.36102 0.0400937 0)
(7.36142 0.0420257 0)
(7.36163 0.0441856 0)
(7.36163 0.0466391 0)
(7.36142 0.0494591 0)
(7.36099 0.0527238 0)
(7.36034 0.0565214 0)
(7.35947 0.0609516 0)
(7.35842 0.0661251 0)
(7.35719 0.0721633 0)
(7.35585 0.0791977 0)
(7.35442 0.0873653 0)
(7.353 0.0968132 0)
(7.35165 0.107678 0)
(7.35045 0.120149 0)
(7.34944 0.134272 0)
(7.33315 0.00293127 0)
(7.33445 0.00824179 0)
(7.33657 0.0124839 0)
(7.33882 0.0159888 0)
(7.34104 0.0189918 0)
(7.34322 0.0215688 0)
(7.34529 0.0238189 0)
(7.34722 0.0258262 0)
(7.34903 0.0276433 0)
(7.35072 0.0293142 0)
(7.35229 0.030879 0)
(7.35374 0.0323729 0)
(7.35507 0.0338286 0)
(7.35628 0.0352779 0)
(7.35737 0.0367537 0)
(7.35834 0.0382905 0)
(7.35917 0.0399258 0)
(7.35986 0.041702 0)
(7.36041 0.0436673 0)
(7.3608 0.0458818 0)
(7.36105 0.0484017 0)
(7.36114 0.0512901 0)
(7.36107 0.0546216 0)
(7.36087 0.0584814 0)
(7.36055 0.0629635 0)
(7.36014 0.0681715 0)
(7.35967 0.074217 0)
(7.35921 0.08122 0)
(7.35882 0.0893056 0)
(7.35858 0.0986078 0)
(7.35857 0.109258 0)
(7.35891 0.121435 0)
(7.35968 0.135206 0)
(7.33311 0.00263547 0)
(7.33414 0.00753494 0)
(7.33593 0.0115914 0)
(7.33791 0.0149566 0)
(7.33991 0.0178054 0)
(7.34189 0.0202175 0)
(7.34382 0.0222947 0)
(7.34565 0.0241335 0)
(7.3474 0.0258005 0)
(7.34905 0.027347 0)
(7.35061 0.0288162 0)
(7.35207 0.0302441 0)
(7.35344 0.0316629 0)
(7.35472 0.033103 0)
(7.35589 0.0345955 0)
(7.35696 0.0361729 0)
(7.35792 0.037871 0)
(7.35878 0.0397288 0)
(7.35952 0.0417889 0)
(7.36015 0.0440981 0)
(7.36067 0.046714 0)
(7.3611 0.0497024 0)
(7.36144 0.053135 0)
(7.36172 0.0570901 0)
(7.36197 0.0616535 0)
(7.36222 0.0669184 0)
(7.36252 0.0729847 0)
(7.36295 0.0799583 0)
(7.36358 0.0879507 0)
(7.3645 0.0970799 0)
(7.36582 0.107465 0)
(7.36767 0.119264 0)
(7.37016 0.132538 0)
(7.33309 0.00239592 0)
(7.33392 0.00692639 0)
(7.33545 0.0108047 0)
(7.33723 0.0141021 0)
(7.33908 0.0169615 0)
(7.34097 0.0194563 0)
(7.34282 0.0216631 0)
(7.34461 0.0236541 0)
(7.34633 0.0254808 0)
(7.34798 0.0271837 0)
(7.34954 0.028799 0)
(7.35102 0.0303596 0)
(7.35242 0.0318965 0)
(7.35374 0.0334407 0)
(7.35497 0.0350239 0)
(7.35613 0.0366803 0)
(7.3572 0.0384467 0)
(7.35819 0.0403638 0)
(7.35911 0.0424763 0)
(7.35997 0.0448339 0)
(7.36076 0.0474911 0)
(7.36152 0.0505079 0)
(7.36225 0.0539497 0)
(7.363 0.0578883 0)
(7.36379 0.0624015 0)
(7.36468 0.0675725 0)
(7.36572 0.0734896 0)
(7.367 0.080245 0)
(7.3686 0.0879347 0)
(7.37062 0.096659 0)
(7.37319 0.106518 0)
(7.37645 0.117642 0)
(7.38053 0.13007 0)
(7.33307 0.00219725 0)
(7.33376 0.0063992 0)
(7.33508 0.0100875 0)
(7.33667 0.0132723 0)
(7.33836 0.0160495 0)
(7.3401 0.0184766 0)
(7.34184 0.0206155 0)
(7.34355 0.0225323 0)
(7.3452 0.0242811 0)
(7.34681 0.0259069 0)
(7.34835 0.0274499 0)
(7.34984 0.0289463 0)
(7.35127 0.0304292 0)
(7.35264 0.0319306 0)
(7.35395 0.0334825 0)
(7.35521 0.0351182 0)
(7.35641 0.0368729 0)
(7.35757 0.0387844 0)
(7.35869 0.0408939 0)
(7.35979 0.0432467 0)
(7.36087 0.0458931 0)
(7.36197 0.0488881 0)
(7.36311 0.0522913 0)
(7.36433 0.0561668 0)
(7.36567 0.0605826 0)
(7.36718 0.0656104 0)
(7.36895 0.0713246 0)
(7.37105 0.0778018 0)
(7.37357 0.0851202 0)
(7.37664 0.0933595 0)
(7.38036 0.102596 0)
(7.38493 0.112929 0)
(7.39045 0.124366 0)
(7.33306 0.00202849 0)
(7.33364 0.00593607 0)
(7.33478 0.00943474 0)
(7.33621 0.0125066 0)
(7.33777 0.0152207 0)
(7.33941 0.0176286 0)
(7.34108 0.0197834 0)
(7.34274 0.0217413 0)
(7.34437 0.0235489 0)
(7.34597 0.025245 0)
(7.34753 0.0268639 0)
(7.34905 0.0284374 0)
(7.35052 0.0299952 0)
(7.35196 0.0315668 0)
(7.35335 0.0331823 0)
(7.35471 0.0348733 0)
(7.35605 0.0366733 0)
(7.35737 0.0386184 0)
(7.35869 0.0407478 0)
(7.36002 0.0431039 0)
(7.36138 0.045733 0)
(7.36281 0.0486846 0)
(7.36433 0.0520116 0)
(7.366 0.0557694 0)
(7.36785 0.0600162 0)
(7.36996 0.0648117 0)
(7.37239 0.0702167 0)
(7.37524 0.0762922 0)
(7.3786 0.0830978 0)
(7.38259 0.0906922 0)
(7.38734 0.099127 0)
(7.39303 0.108467 0)
(7.39977 0.118694 0)
(7.33305 0.00188194 0)
(7.33355 0.00552456 0)
(7.33455 0.00883662 0)
(7.33584 0.0117853 0)
(7.33728 0.0144147 0)
(7.33881 0.0167638 0)
(7.3404 0.0188737 0)
(7.34199 0.020791 0)
(7.34358 0.0225575 0)
(7.34516 0.0242103 0)
(7.34671 0.0257837 0)
(7.34824 0.0273098 0)
(7.34974 0.0288191 0)
(7.35123 0.0303416 0)
(7.3527 0.0319072 0)
(7.35417 0.0335466 0)
(7.35563 0.0352919 0)
(7.35711 0.037177 0)
(7.35863 0.0392377 0)
(7.36019 0.0415125 0)
(7.36183 0.0440422 0)
(7.36358 0.0468699 0)
(7.36548 0.0500406 0)
(7.36757 0.0536009 0)
(7.36991 0.0575982 0)
(7.37257 0.06208 0)
(7.37562 0.0670929 0)
(7.37915 0.0726813 0)
(7.38326 0.0788862 0)
(7.38808 0.0857446 0)
(7.39372 0.0932835 0)
(7.40037 0.101536 0)
(7.40811 0.110458 0)
(7.33304 0.00175215 0)
(7.33348 0.00515408 0)
(7.33437 0.0082844 0)
(7.33554 0.0111058 0)
(7.33687 0.0136458 0)
(7.33832 0.0159364 0)
(7.33984 0.0180125 0)
(7.34139 0.0199141 0)
(7.34295 0.0216788 0)
(7.34452 0.0233402 0)
(7.34609 0.0249293 0)
(7.34765 0.0264751 0)
(7.34921 0.028005 0)
(7.35076 0.0295461 0)
(7.35232 0.0311255 0)
(7.3539 0.0327709 0)
(7.3555 0.0345112 0)
(7.35714 0.0363768 0)
(7.35884 0.0383995 0)
(7.36063 0.0406129 0)
(7.36254 0.0430521 0)
(7.36459 0.0457535 0)
(7.36683 0.0487544 0)
(7.36932 0.0520921 0)
(7.3721 0.0558033 0)
(7.37525 0.0599234 0)
(7.37884 0.0644848 0)
(7.38297 0.0695163 0)
(7.38772 0.0750412 0)
(7.39323 0.0810762 0)
(7.39959 0.0876256 0)
(7.40699 0.0946946 0)
(7.41549 0.10222 0)
(7.33304 0.00163513 0)
(7.33342 0.00481624 0)
(7.33422 0.00777047 0)
(7.33529 0.010461 0)
(7.33654 0.0129035 0)
(7.33791 0.0151216 0)
(7.33936 0.017143 0)
(7.34086 0.0190002 0)
(7.3424 0.0207253 0)
(7.34395 0.0223481 0)
(7.34552 0.0238967 0)
(7.3471 0.0253983 0)
(7.34869 0.026879 0)
(7.3503 0.0283646 0)
(7.35194 0.0298805 0)
(7.35361 0.0314528 0)
(7.35534 0.033108 0)
(7.35713 0.0348733 0)
(7.35901 0.036777 0)
(7.36101 0.0388477 0)
(7.36315 0.0411151 0)
(7.36548 0.0436087 0)
(7.36804 0.0463576 0)
(7.37088 0.0493902 0)
(7.37405 0.0527327 0)
(7.37763 0.0564085 0)
(7.38169 0.060437 0)
(7.38632 0.0648322 0)
(7.39161 0.0696008 0)
(7.39766 0.0747414 0)
(7.40459 0.0802389 0)
(7.41254 0.086075 0)
(7.42158 0.0921731 0)
(7.33303 0.0015279 0)
(7.33338 0.00450417 0)
(7.3341 0.00728793 0)
(7.33509 0.00984551 0)
(7.33626 0.0121848 0)
(7.33756 0.0143236 0)
(7.33896 0.0162846 0)
(7.34043 0.0180952 0)
(7.34194 0.0197836 0)
(7.34349 0.0213765 0)
(7.34507 0.0228994 0)
(7.34668 0.0243768 0)
(7.34832 0.0258324 0)
(7.35 0.0272889 0)
(7.35171 0.0287691 0)
(7.35349 0.0302955 0)
(7.35534 0.0318911 0)
(7.35727 0.0335787 0)
(7.35933 0.0353818 0)
(7.36152 0.0373236 0)
(7.36388 0.0394275 0)
(7.36646 0.0417158 0)
(7.3693 0.0442096 0)
(7.37245 0.0469282 0)
(7.37596 0.0498878 0)
(7.3799 0.0531005 0)
(7.38434 0.0565735 0)
(7.38937 0.0603074 0)
(7.39506 0.0642947 0)
(7.40152 0.0685185 0)
(7.40884 0.0729478 0)
(7.41715 0.077546 0)
(7.42649 0.0822299 0)
(7.33303 0.00142817 0)
(7.33335 0.00421228 0)
(7.33401 0.00683062 0)
(7.33493 0.00925376 0)
(7.33603 0.0114845 0)
(7.33727 0.0135358 0)
(7.33863 0.0154255 0)
(7.34006 0.0171758 0)
(7.34155 0.0188103 0)
(7.3431 0.0203518 0)
(7.34468 0.0218227 0)
(7.34632 0.0232445 0)
(7.34799 0.0246381 0)
(7.34972 0.0260238 0)
(7.35151 0.0274218 0)
(7.35337 0.0288516 0)
(7.35533 0.0303329 0)
(7.35739 0.0318849 0)
(7.35959 0.0335267 0)
(7.36195 0.0352765 0)
(7.36451 0.0371517 0)
(7.3673 0.0391682 0)
(7.37037 0.0413397 0)
(7.37377 0.0436769 0)
(7.37755 0.046187 0)
(7.38178 0.0488723 0)
(7.38651 0.0517292 0)
(7.39183 0.054747 0)
(7.39781 0.0579061 0)
(7.40453 0.0611775 0)
(7.41208 0.0645187 0)
(7.42056 0.0678798 0)
(7.43 0.0711755 0)
(7.33303 0.00133414 0)
(7.33332 0.00393593 0)
(7.33394 0.00639311 0)
(7.3348 0.00868069 0)
(7.33585 0.0107985 0)
(7.33704 0.0127556 0)
(7.33835 0.0145663 0)
(7.33975 0.0162487 0)
(7.34123 0.0178227 0)
(7.34277 0.0193081 0)
(7.34437 0.0207243 0)
(7.34603 0.0220903 0)
(7.34774 0.0234243 0)
(7.34953 0.0247437 0)
(7.35138 0.0260656 0)
(7.35333 0.0274062 0)
(7.35538 0.0287813 0)
(7.35756 0.0302059 0)
(7.35989 0.031694 0)
(7.3624 0.0332587 0)
(7.36512 0.0349113 0)
(7.36809 0.0366609 0)
(7.37135 0.0385141 0)
(7.37495 0.0404738 0)
(7.37893 0.0425387 0)
(7.38337 0.0447023 0)
(7.3883 0.0469517 0)
(7.39381 0.0492667 0)
(7.39994 0.0516183 0)
(7.40679 0.0539687 0)
(7.41441 0.0562676 0)
(7.42289 0.0584559 0)
(7.43224 0.0604506 0)
(7.33303 0.00124436 0)
(7.3333 0.00367126 0)
(7.33388 0.00597058 0)
(7.3347 0.00812153 0)
(7.33569 0.0101222 0)
(7.33685 0.0119788 0)
(7.33812 0.0137022 0)
(7.3395 0.0153068 0)
(7.34097 0.0168088 0)
(7.3425 0.0182245 0)
(7.34411 0.0195702 0)
(7.34579 0.0208615 0)
(7.34754 0.0221138 0)
(7.34936 0.0233413 0)
(7.35128 0.0245579 0)
(7.35329 0.0257764 0)
(7.35543 0.027009 0)
(7.3577 0.0282665 0)
(7.36013 0.0295587 0)
(7.36276 0.0308936 0)
(7.3656 0.032277 0)
(7.3687 0.0337125 0)
(7.3721 0.0352002 0)
(7.37584 0.0367363 0)
(7.37996 0.0383125 0)
(7.38452 0.039915 0)
(7.38956 0.0415237 0)
(7.39514 0.0431112 0)
(7.40133 0.0446424 0)
(7.40817 0.0460732 0)
(7.41571 0.0473491 0)
(7.42403 0.048407 0)
(7.43312 0.0491676 0)
(7.33302 0.00115761 0)
(7.33328 0.00341498 0)
(7.33383 0.00555878 0)
(7.33461 0.00757203 0)
(7.33557 0.00945193 0)
(7.33669 0.0112025 0)
(7.33794 0.0128321 0)
(7.3393 0.0143519 0)
(7.34075 0.015775 0)
(7.34228 0.0171148 0)
(7.3439 0.0183846 0)
(7.3456 0.0195972 0)
(7.34737 0.0207651 0)
(7.34923 0.0218997 0)
(7.3512 0.0230117 0)
(7.35327 0.0241105 0)
(7.35547 0.0252044 0)
(7.35781 0.0263005 0)
(7.36032 0.0274038 0)
(7.36303 0.0285177 0)
(7.36597 0.029643 0)
(7.36916 0.0307775 0)
(7.37264 0.0319158 0)
(7.37646 0.0330481 0)
(7.38065 0.0341601 0)
(7.38525 0.035232 0)
(7.39031 0.0362382 0)
(7.39587 0.0371463 0)
(7.40199 0.0379167 0)
(7.4087 0.038502 0)
(7.41603 0.038846 0)
(7.42406 0.0388845 0)
(7.43275 0.0385452 0)
(7.33302 0.00107288 0)
(7.33327 0.00316427 0)
(7.33379 0.00515386 0)
(7.33454 0.0070279 0)
(7.33548 0.00878318 0)
(7.33656 0.010422 0)
(7.33779 0.0119501 0)
(7.33913 0.013376 0)
(7.34057 0.0147095 0)
(7.34211 0.0159609 0)
(7.34373 0.0171405 0)
(7.34544 0.0182581 0)
(7.34724 0.0193231 0)
(7.34913 0.0203438 0)
(7.35113 0.0213277 0)
(7.35324 0.0222808 0)
(7.35549 0.023208 0)
(7.35788 0.0241124 0)
(7.36045 0.0249952 0)
(7.36321 0.0258554 0)
(7.3662 0.0266894 0)
(7.36944 0.0274906 0)
(7.37295 0.0282487 0)
(7.37679 0.0289493 0)
(7.38097 0.0295736 0)
(7.38554 0.0300978 0)
(7.39054 0.0304924 0)
(7.39599 0.0307223 0)
(7.40193 0.0307455 0)
(7.40841 0.0305139 0)
(7.41542 0.0299722 0)
(7.42303 0.0290585 0)
(7.4312 0.0277087 0)
(7.33302 0.000989301 0)
(7.33326 0.00291671 0)
(7.33377 0.00475259 0)
(7.33449 0.0064861 0)
(7.3354 0.00811403 0)
(7.33647 0.00963748 0)
(7.33767 0.0110604 0)
(7.339 0.012389 0)
(7.34043 0.0136304 0)
(7.34196 0.0147921 0)
(7.34358 0.0158818 0)
(7.3453 0.0169064 0)
(7.34711 0.0178725 0)
(7.34902 0.0187855 0)
(7.35104 0.0196496 0)
(7.35317 0.0204678 0)
(7.35544 0.0212414 0)
(7.35786 0.0219701 0)
(7.36045 0.0226514 0)
(7.36323 0.0232804 0)
(7.36622 0.0238495 0)
(7.36946 0.0243482 0)
(7.37296 0.0247622 0)
(7.37675 0.0250734 0)
(7.38086 0.0252599 0)
(7.38533 0.0252947 0)
(7.39017 0.0251461 0)
(7.39543 0.0247773 0)
(7.40111 0.0241462 0)
(7.40724 0.0232053 0)
(7.41384 0.0219021 0)
(7.42094 0.0201779 0)
(7.4285 0.0179784 0)
(7.33302 0.000906066 0)
(7.33325 0.00266997 0)
(7.33375 0.00435134 0)
(7.33446 0.00594159 0)
(7.33534 0.00743737 0)
(7.33639 0.00883845 0)
(7.33758 0.0101469 0)
(7.3389 0.0113663 0)
(7.34033 0.0125012 0)
(7.34185 0.0135566 0)
(7.34348 0.0145371 0)
(7.3452 0.0154472 0)
(7.34702 0.0162905 0)
(7.34894 0.0170698 0)
(7.35097 0.0177864 0)
(7.35312 0.0184405 0)
(7.35539 0.0190304 0)
(7.35782 0.0195526 0)
(7.3604 0.0200014 0)
(7.36317 0.0203689 0)
(7.36614 0.0206443 0)
(7.36933 0.0208139 0)
(7.37276 0.0208609 0)
(7.37646 0.0207647 0)
(7.38045 0.0205012 0)
(7.38475 0.0200418 0)
(7.38938 0.0193541 0)
(7.39435 0.0184015 0)
(7.3997 0.0171432 0)
(7.40542 0.0155344 0)
(7.41153 0.0135266 0)
(7.41803 0.0110669 0)
(7.42489 0.00811019 0)
(7.33302 0.000822486 0)
(7.33325 0.00242233 0)
(7.33373 0.00394847 0)
(7.33443 0.00539475 0)
(7.3353 0.0067583 0)
(7.33634 0.00803835 0)
(7.33751 0.00923564 0)
(7.33881 0.010352 0)
(7.34023 0.0113896 0)
(7.34175 0.0123509 0)
(7.34336 0.013238 0)
(7.34508 0.0140526 0)
(7.34689 0.0147955 0)
(7.3488 0.0154666 0)
(7.35082 0.0160646 0)
(7.35295 0.0165867 0)
(7.35521 0.0170283 0)
(7.3576 0.017383 0)
(7.36015 0.0176425 0)
(7.36286 0.017796 0)
(7.36576 0.0178302 0)
(7.36886 0.0177291 0)
(7.37217 0.0174738 0)
(7.37572 0.017042 0)
(7.37952 0.0164085 0)
(7.38358 0.0155443 0)
(7.38793 0.0144167 0)
(7.39256 0.0129906 0)
(7.3975 0.0112278 0)
(7.40274 0.00908599 0)
(7.40828 0.00652166 0)
(7.41413 0.00348749 0)
(7.42026 -5.24128e-05 0)
(7.33302 0.000737785 0)
(7.33325 0.00217101 0)
(7.33372 0.00353807 0)
(7.33441 0.00483411 0)
(7.33528 0.00605576 0)
(7.33631 0.00720092 0)
(7.33748 0.00826864 0)
(7.33878 0.0092587 0)
(7.34019 0.0101713 0)
(7.3417 0.0110067 0)
(7.34332 0.0117649 0)
(7.34503 0.0124454 0)
(7.34683 0.013047 0)
(7.34873 0.0135675 0)
(7.35074 0.0140033 0)
(7.35285 0.0143493 0)
(7.35508 0.0145989 0)
(7.35743 0.0147435 0)
(7.35992 0.0147725 0)
(7.36256 0.0146733 0)
(7.36536 0.0144309 0)
(7.36834 0.0140278 0)
(7.3715 0.0134438 0)
(7.37486 0.0126559 0)
(7.37842 0.0116391 0)
(7.38221 0.0103651 0)
(7.38622 0.00880116 0)
(7.39047 0.00691615 0)
(7.39495 0.0046746 0)
(7.39966 0.00203917 0)
(7.40459 -0.00102779 0)
(7.40975 -0.00456838 0)
(7.41509 -0.00860907 0)
(7.33302 0.000651454 0)
(7.33324 0.001916 0)
(7.33372 0.00312444 0)
(7.3344 0.00427474 0)
(7.33526 0.00536445 0)
(7.33628 0.00639118 0)
(7.33743 0.00735265 0)
(7.33871 0.00824661 0)
(7.34011 0.00907077 0)
(7.3416 0.00982269 0)
(7.3432 0.0104996 0)
(7.34488 0.0110984 0)
(7.34666 0.0116151 0)
(7.34852 0.0120449 0)
(7.35048 0.012382 0)
(7.35254 0.0126189 0)
(7.35471 0.0127469 0)
(7.35699 0.0127555 0)
(7.35938 0.0126324 0)
(7.3619 0.0123632 0)
(7.36456 0.0119319 0)
(7.36737 0.0113204 0)
(7.37033 0.0105075 0)
(7.37345 0.00947017 0)
(7.37673 0.0081851 0)
(7.38019 0.00662553 0)
(7.38382 0.00475441 0)
(7.38762 0.00254903 0)
(7.3916 -2.38349e-05 0)
(7.39574 -0.00299588 0)
(7.40003 -0.00640023 0)
(7.40447 -0.0102732 0)
(7.40902 -0.0146341 0)
(7.33302 0.000562166 0)
(7.33325 0.00165018 0)
(7.33373 0.00268777 0)
(7.33442 0.00367308 0)
(7.33529 0.00460256 0)
(7.33631 0.00547274 0)
(7.33748 0.0062804 0)
(7.33876 0.00702241 0)
(7.34016 0.00769556 0)
(7.34165 0.00829634 0)
(7.34324 0.00882077 0)
(7.34491 0.00926431 0)
(7.34667 0.00962164 0)
(7.34851 0.00988651 0)
(7.35043 0.0100515 0)
(7.35244 0.010108 0)
(7.35454 0.0100456 0)
(7.35673 0.00985258 0)
(7.35902 0.0095152 0)
(7.36142 0.00901816 0)
(7.36392 0.00834492 0)
(7.36654 0.00747727 0)
(7.36928 0.00639379 0)
(7.37214 0.00507102 0)
(7.37512 0.00349008 0)
(7.37822 0.00162076 0)
(7.38144 -0.000554441 0)
(7.38478 -0.0030722 0)
(7.38823 -0.00596032 0)
(7.39179 -0.00924541 0)
(7.39542 -0.0129544 0)
(7.39913 -0.0171154 0)
(7.40288 -0.0217413 0)
(7.33302 0.000470404 0)
(7.33325 0.00138295 0)
(7.33372 0.00226236 0)
(7.33441 0.0031107 0)
(7.33527 0.00392486 0)
(7.33628 0.0046995 0)
(7.33742 0.00542804 0)
(7.33869 0.00610346 0)
(7.34006 0.00671891 0)
(7.34152 0.00726768 0)
(7.34308 0.00774296 0)
(7.34471 0.00813761 0)
(7.34641 0.00844402 0)
(7.3482 0.00865389 0)
(7.35005 0.00875817 0)
(7.35197 0.00874713 0)
(7.35397 0.00860954 0)
(7.35605 0.00833266 0)
(7.3582 0.00790186 0)
(7.36042 0.00730139 0)
(7.36273 0.00651478 0)
(7.36513 0.00552599 0)
(7.3676 0.00430984 0)
(7.37016 0.00284826 0)
(7.3728 0.00111504 0)
(7.37551 -0.000909418 0)
(7.3783 -0.00323802 0)
(7.38114 -0.00590479 0)
(7.38404 -0.00893372 0)
(7.38698 -0.0123488 0)
(7.38994 -0.0161726 0)
(7.39293 -0.0204294 0)
(7.39589 -0.0251269 0)
(7.33302 0.00037097 0)
(7.33327 0.00108129 0)
(7.33377 0.00175768 0)
(7.33449 0.00240219 0)
(7.33539 0.00301202 0)
(7.33643 0.00358379 0)
(7.33761 0.00411295 0)
(7.33889 0.00459387 0)
(7.34027 0.00502013 0)
(7.34174 0.00538473 0)
(7.34328 0.00568009 0)
(7.34489 0.00589804 0)
(7.34657 0.00602989 0)
(7.34831 0.00606624 0)
(7.3501 0.00599718 0)
(7.35195 0.00581225 0)
(7.35386 0.00549813 0)
(7.35581 0.00504092 0)
(7.35782 0.00442658 0)
(7.35989 0.00363693 0)
(7.362 0.00266037 0)
(7.36416 0.0014799 0)
(7.36637 7.56206e-05 0)
(7.36862 -0.00157171 0)
(7.37091 -0.00349106 0)
(7.37323 -0.00569728 0)
(7.37558 -0.00821749 0)
(7.37794 -0.0110654 0)
(7.38031 -0.014261 0)
(7.38265 -0.0178245 0)
(7.38497 -0.0217732 0)
(7.38724 -0.0261255 0)
(7.38943 -0.0308843 0)
(7.33302 0.000273572 0)
(7.33325 0.000813213 0)
(7.33374 0.0013583 0)
(7.33445 0.00191216 0)
(7.33532 0.00246511 0)
(7.33635 0.00300435 0)
(7.3375 0.0035157 0)
(7.33876 0.00398749 0)
(7.34011 0.00440986 0)
(7.34155 0.0047733 0)
(7.34305 0.00506821 0)
(7.34461 0.00528483 0)
(7.34622 0.00541327 0)
(7.34789 0.00544318 0)
(7.34959 0.00536308 0)
(7.35134 0.00516237 0)
(7.35312 0.00483022 0)
(7.35493 0.00435626 0)
(7.35676 0.00371857 0)
(7.35863 0.00290301 0)
(7.36052 0.00189798 0)
(7.36243 0.000680906 0)
(7.36435 -0.000753128 0)
(7.36626 -0.00242415 0)
(7.36817 -0.00434903 0)
(7.37007 -0.00654934 0)
(7.37194 -0.00904563 0)
(7.37378 -0.0118544 0)
(7.37558 -0.0149928 0)
(7.37732 -0.0184775 0)
(7.37899 -0.0223232 0)
(7.38057 -0.0265457 0)
(7.38204 -0.0311447 0)
(7.33303 0.000141665 0)
(7.33333 0.000398425 0)
(7.33391 0.000643655 0)
(7.33471 0.000889607 0)
(7.33566 0.0011403 0)
(7.33675 0.00139575 0)
(7.33795 0.00164192 0)
(7.33924 0.00186661 0)
(7.34061 0.00205903 0)
(7.34204 0.00220837 0)
(7.34353 0.00230307 0)
(7.34506 0.00233114 0)
(7.34664 0.00228063 0)
(7.34824 0.00213893 0)
(7.34987 0.0018938 0)
(7.35152 0.00154502 0)
(7.3532 0.00107508 0)
(7.35487 0.000458903 0)
(7.35654 -0.000308942 0)
(7.35821 -0.00123749 0)
(7.35988 -0.00235602 0)
(7.36154 -0.00368186 0)
(7.36318 -0.00522727 0)
(7.3648 -0.00700769 0)
(7.36637 -0.00903617 0)
(7.3679 -0.011329 0)
(7.36936 -0.0139017 0)
(7.37074 -0.0167682 0)
(7.37204 -0.0199417 0)
(7.37323 -0.0234345 0)
(7.3743 -0.0272564 0)
(7.37522 -0.0314179 0)
(7.37599 -0.0359154 0)
(7.33302 5.93344e-05 0)
(7.33325 0.000209997 0)
(7.33379 0.000439592 0)
(7.33455 0.000732382 0)
(7.33549 0.0010506 0)
(7.33658 0.00136824 0)
(7.33777 0.00167667 0)
(7.33905 0.00196275 0)
(7.3404 0.00221276 0)
(7.3418 0.00241434 0)
(7.34325 0.00255624 0)
(7.34474 0.00262795 0)
(7.34625 0.00261929 0)
(7.34777 0.00252108 0)
(7.34932 0.0023233 0)
(7.35088 0.00200219 0)
(7.35241 0.00155106 0)
(7.35393 0.00096524 0)
(7.35544 0.000240313 0)
(7.35691 -0.000637146 0)
(7.35833 -0.00168545 0)
(7.35971 -0.00291438 0)
(7.36103 -0.00434368 0)
(7.36228 -0.00598732 0)
(7.36346 -0.00785824 0)
(7.36455 -0.00997057 0)
(7.36554 -0.0123377 0)
(7.36642 -0.0149722 0)
(7.36718 -0.0178857 0)
(7.36779 -0.0210888 0)
(7.36826 -0.0245901 0)
(7.36856 -0.0283997 0)
(7.36868 -0.0325138 0)
(7.33306 -0.000150465 0)
(7.33349 -0.000488238 0)
(7.33425 -0.000769285 0)
(7.33519 -0.000964389 0)
(7.33624 -0.00109023 0)
(7.33739 -0.00116508 0)
(7.33864 -0.00119883 0)
(7.33995 -0.0012098 0)
(7.3413 -0.00121744 0)
(7.3427 -0.00123956 0)
(7.34413 -0.00129234 0)
(7.34558 -0.00139076 0)
(7.34704 -0.00154907 0)
(7.34851 -0.00177999 0)
(7.34995 -0.00209593 0)
(7.35138 -0.00252291 0)
(7.35279 -0.00306886 0)
(7.35419 -0.00373463 0)
(7.35554 -0.00454131 0)
(7.35685 -0.00550458 0)
(7.35809 -0.00662955 0)
(7.35926 -0.00792907 0)
(7.36034 -0.00941713 0)
(7.36134 -0.0111057 0)
(7.36222 -0.0130066 0)
(7.36299 -0.0151312 0)
(7.36363 -0.0174898 0)
(7.36412 -0.0200916 0)
(7.36444 -0.0229446 0)
(7.36459 -0.0260558 0)
(7.36455 -0.0294302 0)
(7.3643 -0.0330728 0)
(7.36382 -0.0369778 0)
(7.33301 -0.000214079 0)
(7.33328 -0.000471008 0)
(7.33396 -0.00053072 0)
(7.3349 -0.000491025 0)
(7.33599 -0.000398605 0)
(7.3372 -0.000267858 0)
(7.3385 -0.000128296 0)
(7.33985 -2.20971e-06 0)
(7.34124 9.75375e-05 0)
(7.34266 0.000161174 0)
(7.34408 0.00017918 0)
(7.3455 0.000142794 0)
(7.34692 4.36124e-05 0)
(7.34832 -0.000127468 0)
(7.34969 -0.000378846 0)
(7.35102 -0.000707712 0)
(7.3523 -0.00112816 0)
(7.35353 -0.00165801 0)
(7.35468 -0.00230572 0)
(7.35576 -0.00308078 0)
(7.35675 -0.0039929 0)
(7.35764 -0.00505264 0)
(7.35842 -0.00627094 0)
(7.35906 -0.0076582 0)
(7.35958 -0.00922438 0)
(7.35993 -0.0109793 0)
(7.36013 -0.0129323 0)
(7.36015 -0.0150922 0)
(7.35998 -0.017467 0)
(7.35961 -0.020064 0)
(7.35903 -0.0228886 0)
(7.35823 -0.025948 0)
(7.35721 -0.0292377 0)
(7.33314 -0.000787799 0)
(7.33393 -0.00221895 0)
(7.335 -0.00321626 0)
(7.33611 -0.00388862 0)
(7.33729 -0.00434224 0)
(7.33853 -0.00462926 0)
(7.33981 -0.00480774 0)
(7.34113 -0.00492588 0)
(7.34247 -0.00501658 0)
(7.34383 -0.00510532 0)
(7.34519 -0.00521271 0)
(7.34656 -0.00535555 0)
(7.34791 -0.00554775 0)
(7.34925 -0.00580158 0)
(7.35054 -0.00612897 0)
(7.3518 -0.00653992 0)
(7.353 -0.00704323 0)
(7.35413 -0.00764797 0)
(7.35518 -0.00836385 0)
(7.35613 -0.00920018 0)
(7.35698 -0.0101653 0)
(7.35771 -0.0112677 0)
(7.3583 -0.0125158 0)
(7.35874 -0.0139178 0)
(7.35902 -0.0154814 0)
(7.35911 -0.0172138 0)
(7.35901 -0.0191212 0)
(7.3587 -0.0212092 0)
(7.35816 -0.023482 0)
(7.35738 -0.0259431 0)
(7.35635 -0.0285942 0)
(7.35504 -0.0314375 0)
(7.35344 -0.0344661 0)
(7.33306 -0.00034029 0)
(7.33385 -0.000781146 0)
(7.33522 -0.00102055 0)
(7.33669 -0.00121721 0)
(7.3382 -0.00136359 0)
(7.33975 -0.00146707 0)
(7.3413 -0.00155454 0)
(7.34284 -0.00163576 0)
(7.34436 -0.00171521 0)
(7.34588 -0.0017999 0)
(7.34737 -0.00189691 0)
(7.34883 -0.00201262 0)
(7.35026 -0.0021534 0)
(7.35165 -0.0023257 0)
(7.353 -0.00253585 0)
(7.35429 -0.00279007 0)
(7.35551 -0.00309599 0)
(7.35666 -0.00346154 0)
(7.35773 -0.00389427 0)
(7.35871 -0.00440151 0)
(7.35958 -0.00499063 0)
(7.36034 -0.0056691 0)
(7.36098 -0.00644443 0)
(7.36149 -0.00732398 0)
(7.36187 -0.00831497 0)
(7.3621 -0.00942443 0)
(7.36218 -0.0106592 0)
(7.3621 -0.0120257 0)
(7.36186 -0.01353 0)
(7.36146 -0.0151779 0)
(7.3609 -0.0169738 0)
(7.36018 -0.0189249 0)
(7.35931 -0.0210258 0)
(7.33439 -0.00354926 0)
(7.33924 -0.00666612 0)
(7.34508 -0.00794426 0)
(7.35145 -0.00875159 0)
(7.35824 -0.00918555 0)
(7.36523 -0.00936501 0)
(7.37229 -0.00944039 0)
(7.37939 -0.00947816 0)
(7.3865 -0.00950881 0)
(7.39361 -0.00955592 0)
(7.40073 -0.00963579 0)
(7.40785 -0.00975905 0)
(7.41498 -0.00993373 0)
(7.42213 -0.0101667 0)
(7.4293 -0.010464 0)
(7.43652 -0.0108313 0)
(7.44379 -0.011274 0)
(7.4511 -0.0117979 0)
(7.45848 -0.012409 0)
(7.46593 -0.0131133 0)
(7.47344 -0.0139168 0)
(7.48103 -0.0148258 0)
(7.48868 -0.0158466 0)
(7.4964 -0.0169855 0)
(7.50419 -0.0182487 0)
(7.51204 -0.0196424 0)
(7.51995 -0.0211725 0)
(7.5279 -0.0228446 0)
(7.53588 -0.0246643 0)
(7.54389 -0.0266365 0)
(7.5519 -0.028767 0)
(7.55991 -0.0310597 0)
(7.56786 -0.0335182 0)
(7.32976 -0.00396484 0)
(7.32441 -0.00829057 0)
(7.31553 -0.0108084 0)
(7.30488 -0.0126851 0)
(7.29385 -0.0140526 0)
(7.28256 -0.0150408 0)
(7.27108 -0.0158042 0)
(7.25956 -0.0164329 0)
(7.24807 -0.0169814 0)
(7.23661 -0.0174915 0)
(7.22517 -0.0179945 0)
(7.21373 -0.0185129 0)
(7.20227 -0.0190643 0)
(7.19075 -0.0196623 0)
(7.17913 -0.0203183 0)
(7.16737 -0.0210416 0)
(7.15543 -0.0218405 0)
(7.14326 -0.0227219 0)
(7.13082 -0.0236922 0)
(7.11805 -0.0247572 0)
(7.10493 -0.0259218 0)
(7.09138 -0.0271909 0)
(7.07738 -0.0285683 0)
(7.06288 -0.0300576 0)
(7.04782 -0.0316617 0)
(7.03217 -0.0333825 0)
(7.01588 -0.0352214 0)
(6.99892 -0.0371785 0)
(6.98125 -0.0392534 0)