/*--------------------------------*- C++ -*----------------------------------*\
  =========                 |
  \\      /  F ield         | OpenFOAM: The Open Source CFD Toolbox
   \\    /   O peration     | Website:  https://openfoam.org
    \\  /    A nd           | Version:  10
     \\/     M anipulation  |
\*---------------------------------------------------------------------------*/
FoamFile
{
    format      ascii;
    class       volScalarField;
    location    "1000";
    object      epsilon;
}
// * * * * * * * * * * * * * * * * * * * * * * * * * * * * * * * * * * * * * //

dimensions      [0 2 -3 0 0 0 0];

internalField   nonuniform List<scalar> 
6820
(
23.348
22.8004
22.2986
21.7956
21.2906
20.7982
20.3323
19.9019
19.5117
19.1628
18.8543
18.5842
18.3497
18.1479
17.9757
17.8303
17.709
17.6093
17.5288
17.4655
17.4177
17.3835
17.3615
17.3504
17.349
17.3564
17.3729
17.3918
17.4233
17.5191
17.3293
19.4862
3.07837
5.24753
7.40657
8.54827
9.16414
9.55069
9.84247
10.0975
10.3414
10.5849
10.832
11.0838
11.3402
11.6008
11.8647
12.1315
12.4003
12.6707
12.9422
13.2145
13.4872
13.7604
14.0341
14.3086
14.5847
14.8635
15.1471
15.4389
15.7419
16.0566
16.5409
16.3931
18.3796
18.5805
3.71892
4.27984
4.80505
5.21583
5.52702
5.76883
5.96521
6.13257
6.28173
6.41978
6.5514
6.67967
6.8066
6.93347
7.06111
7.18998
7.32035
7.45234
7.58599
7.7213
7.85827
7.99691
8.13731
8.27966
8.42433
8.57194
8.72356
8.88112
9.04347
9.25607
9.35333
9.59884
11.187
3.53759
3.62335
3.77161
3.93765
4.09564
4.23629
4.35862
4.46482
4.55792
4.64082
4.71599
4.78543
4.85072
4.91312
4.97357
5.0328
5.09137
5.14968
5.20807
5.26678
5.32599
5.38587
5.4466
5.50834
5.57134
5.63593
5.70257
5.7722
5.84494
5.9299
6.01052
6.0559
6.47605
3.52015
3.50151
3.51116
3.54399
3.59071
3.64324
3.69628
3.747
3.79418
3.83753
3.87724
3.91371
3.94742
3.97886
4.00847
4.03666
4.06376
4.09008
4.11586
4.14132
4.16664
4.19198
4.2175
4.24335
4.2697
4.29678
4.32484
4.35434
4.38564
4.4206
4.45939
4.49065
4.56889
3.51931
3.48209
3.45346
3.43537
3.42736
3.42746
3.43329
3.44271
3.45409
3.46632
3.47869
3.49078
3.50238
3.51341
3.52385
3.53377
3.54323
3.55232
3.56112
3.56973
3.57823
3.58672
3.59527
3.60398
3.61295
3.62231
3.63221
3.64287
3.65456
3.6678
3.68325
3.69943
3.72055
3.51943
3.47964
3.44271
3.40975
3.38151
3.35815
3.33934
3.32446
3.31277
3.30357
3.29628
3.2904
3.28556
3.28149
3.27798
3.2749
3.27215
3.26967
3.26743
3.26541
3.26361
3.26203
3.2607
3.25963
3.25887
3.25847
3.25852
3.2591
3.26037
3.26255
3.26593
3.27061
3.27671
3.51947
3.47942
3.44105
3.40466
3.37057
3.33904
3.3102
3.28404
3.26041
3.23911
3.21988
3.20246
3.18659
3.17207
3.15869
3.1463
3.13477
3.12399
3.11388
3.10435
3.09537
3.08689
3.07889
3.07134
3.06425
3.05761
3.05146
3.04583
3.04079
3.03644
3.03291
3.03036
3.02878
3.51948
3.47941
3.44084
3.40381
3.36834
3.33452
3.30242
3.27207
3.24349
3.21664
3.19146
3.16785
3.14572
3.12494
3.10541
3.08702
3.06967
3.05328
3.03774
3.02301
3.00901
2.9957
2.98303
2.97096
2.95947
2.94854
2.93817
2.92836
2.91914
2.91055
2.90265
2.89552
2.88915
3.51948
3.47941
3.44082
3.40367
3.36794
3.3336
3.30062
3.269
3.23873
3.2098
3.18218
3.15584
3.13073
3.10681
3.08401
3.06229
3.04158
3.02182
3.00296
2.98494
2.96771
2.95124
2.93547
2.92037
2.90592
2.89209
2.87885
2.86622
2.85418
2.84276
2.83197
2.82186
2.8124
3.51948
3.4794
3.44081
3.40365
3.36787
3.33342
3.30024
3.2683
3.23755
3.20797
3.17951
3.15215
3.12587
3.10061
3.07636
3.05306
3.03069
3.0092
2.98856
2.96873
2.94967
2.93135
2.91374
2.8968
2.88052
2.86487
2.84983
2.83539
2.82154
2.80829
2.79565
2.78362
2.77219
3.51948
3.4794
3.4408
3.40364
3.36785
3.33338
3.30016
3.26814
3.23728
3.20751
3.17882
3.15114
3.12446
3.09872
3.07391
3.04998
3.02691
3.00466
2.9832
2.9625
2.94254
2.92328
2.90471
2.88679
2.8695
2.85283
2.83676
2.82127
2.80637
2.79203
2.77827
2.76508
2.75244
3.51948
3.4794
3.4408
3.40363
3.36784
3.33336
3.30013
3.2681
3.2372
3.2074
3.17864
3.15088
3.12407
3.09819
3.0732
3.04905
3.02572
3.00318
2.9814
2.96035
2.94
2.92033
2.90131
2.88293
2.86516
2.84799
2.8314
2.81537
2.79991
2.78499
2.77061
2.75677
2.74344
3.51948
3.4794
3.44079
3.40362
3.36783
3.33335
3.30011
3.26807
3.23717
3.20736
3.17858
3.15079
3.12396
3.09804
3.07299
3.04878
3.02537
3.00273
2.98084
2.95966
2.93917
2.91934
2.90015
2.88158
2.86361
2.84622
2.8294
2.81312
2.79739
2.78218
2.7675
2.75332
2.73963
3.51948
3.47939
3.44079
3.40362
3.36782
3.33333
3.3001
3.26806
3.23715
3.20733
3.17855
3.15076
3.12391
3.09798
3.07292
3.04868
3.02525
3.00259
2.98066
2.95944
2.93891
2.91903
2.89978
2.88114
2.8631
2.84563
2.82871
2.81233
2.79648
2.78115
2.76632
2.75197
2.73809
3.51947
3.47939
3.44078
3.40361
3.36781
3.33332
3.30009
3.26804
3.23713
3.20731
3.17852
3.15073
3.12388
3.09795
3.07288
3.04864
3.0252
3.00253
2.9806
2.95937
2.93882
2.91892
2.89966
2.881
2.86293
2.84543
2.82848
2.81206
2.79617
2.78077
2.76587
2.75144
2.73747
3.51947
3.47939
3.44078
3.40361
3.36781
3.33332
3.30008
3.26803
3.23712
3.20729
3.1785
3.15071
3.12386
3.09792
3.07285
3.04861
3.02517
3.0025
2.98056
2.95933
2.93878
2.91888
2.89961
2.88095
2.86287
2.84536
2.8284
2.81196
2.79604
2.78062
2.76568
2.7512
2.73717
3.51947
3.47939
3.44078
3.4036
3.3678
3.33331
3.30007
3.26802
3.2371
3.20727
3.17848
3.15069
3.12384
3.0979
3.07282
3.04859
3.02515
3.00247
2.98053
2.9593
2.93875
2.91885
2.89958
2.88091
2.86283
2.84532
2.82835
2.81191
2.79597
2.78053
2.76557
2.75106
2.737
3.51947
3.47939
3.44078
3.4036
3.3678
3.3333
3.30006
3.26801
3.23709
3.20726
3.17847
3.15067
3.12382
3.09788
3.0728
3.04856
3.02512
3.00245
2.98051
2.95928
2.93873
2.91883
2.89956
2.88089
2.86281
2.84529
2.82831
2.81186
2.79592
2.78046
2.76548
2.75095
2.73686
3.51947
3.47939
3.44078
3.4036
3.36779
3.3333
3.30005
3.268
3.23708
3.20725
3.17846
3.15066
3.1238
3.09786
3.07279
3.04855
3.02511
3.00243
2.98049
2.95926
2.93871
2.91881
2.89953
2.88087
2.86278
2.84526
2.82828
2.81182
2.79587
2.7804
2.7654
2.75086
2.73674
3.51947
3.47939
3.44077
3.4036
3.36779
3.33329
3.30005
3.26799
3.23707
3.20724
3.17845
3.15064
3.12379
3.09785
3.07277
3.04853
3.02509
3.00242
2.98048
2.95924
2.93869
2.91879
2.89951
2.88085
2.86276
2.84523
2.82825
2.81178
2.79582
2.78034
2.76533
2.75077
2.73663
3.51947
3.47939
3.44077
3.40359
3.36779
3.33329
3.30004
3.26798
3.23706
3.20723
3.17844
3.15063
3.12378
3.09784
3.07276
3.04852
3.02508
3.0024
2.98046
2.95923
2.93867
2.91877
2.8995
2.88082
2.86273
2.8452
2.82821
2.81174
2.79577
2.78028
2.76526
2.75068
2.73653
3.51947
3.47939
3.44077
3.40359
3.36778
3.33329
3.30004
3.26798
3.23706
3.20723
3.17843
3.15063
3.12377
3.09783
3.07275
3.04851
3.02507
3.00239
2.98045
2.95922
2.93866
2.91876
2.89948
2.88081
2.86271
2.84518
2.82818
2.8117
2.79572
2.78022
2.76519
2.7506
2.73644
3.51947
3.47938
3.44077
3.40359
3.36778
3.33328
3.30003
3.26797
3.23705
3.20722
3.17842
3.15062
3.12376
3.09782
3.07274
3.0485
3.02506
3.00238
2.98044
2.9592
2.93865
2.91874
2.89946
2.88079
2.86269
2.84515
2.82815
2.81166
2.79568
2.78017
2.76512
2.75053
2.73635
3.51947
3.47938
3.44077
3.40359
3.36778
3.33328
3.30003
3.26797
3.23705
3.20722
3.17842
3.15061
3.12376
3.09781
3.07274
3.04849
3.02505
3.00237
2.98043
2.9592
2.93864
2.91873
2.89945
2.88077
2.86267
2.84512
2.82812
2.81163
2.79563
2.78012
2.76506
2.75046
2.73627
3.51947
3.47938
3.44077
3.40359
3.36778
3.33328
3.30003
3.26797
3.23705
3.20721
3.17842
3.15061
3.12376
3.09781
3.07273
3.04849
3.02505
3.00237
2.98042
2.95919
2.93863
2.91872
2.89943
2.88075
2.86265
2.8451
2.82809
2.81159
2.79559
2.78007
2.76501
2.75039
2.7362
3.51947
3.47938
3.44077
3.40359
3.36778
3.33328
3.30003
3.26797
3.23705
3.20721
3.17841
3.15061
3.12375
3.09781
3.07273
3.04849
3.02504
3.00236
2.98042
2.95918
2.93862
2.91871
2.89942
2.88074
2.86263
2.84508
2.82806
2.81156
2.79556
2.78003
2.76496
2.75033
2.73613
3.51947
3.47938
3.44077
3.40359
3.36778
3.33328
3.30003
3.26797
3.23704
3.20721
3.17841
3.15061
3.12375
3.09781
3.07273
3.04849
3.02504
3.00236
2.98042
2.95918
2.93862
2.9187
2.89941
2.88073
2.86262
2.84506
2.82804
2.81153
2.79552
2.77999
2.76491
2.75028
2.73607
3.51947
3.47938
3.44077
3.40359
3.36778
3.33328
3.30003
3.26797
3.23704
3.20721
3.17841
3.15061
3.12375
3.09781
3.07273
3.04849
3.02504
3.00236
2.98042
2.95918
2.93861
2.9187
2.89941
2.88072
2.8626
2.84504
2.82802
2.81151
2.79549
2.77995
2.76487
2.75024
2.73602
3.51947
3.47938
3.44077
3.40359
3.36778
3.33328
3.30003
3.26797
3.23704
3.20721
3.17841
3.15061
3.12376
3.09781
3.07273
3.04849
3.02505
3.00237
2.98042
2.95918
2.93861
2.9187
2.89941
2.88071
2.8626
2.84504
2.82801
2.81149
2.79547
2.77993
2.76484
2.7502
2.73598
3.51947
3.47938
3.44077
3.40359
3.36778
3.33328
3.30003
3.26797
3.23705
3.20721
3.17842
3.15061
3.12376
3.09781
3.07274
3.04849
3.02505
3.00237
2.98042
2.95918
2.93862
2.9187
2.89941
2.88071
2.8626
2.84503
2.828
2.81149
2.79547
2.77992
2.76484
2.75019
2.73597
3.51947
3.47938
3.44077
3.40359
3.36778
3.33328
3.30003
3.26797
3.23705
3.20722
3.17842
3.15062
3.12377
3.09783
3.07275
3.04852
3.02507
3.0024
2.98046
2.95922
2.93866
2.91874
2.89946
2.88077
2.86266
2.8451
2.82808
2.81157
2.79556
2.78002
2.76495
2.75031
2.7361
3.51947
3.47938
3.44077
3.40359
3.36778
3.33328
3.30003
3.26797
3.23705
3.20722
3.17843
3.15064
3.12379
3.09786
3.0728
3.04857
3.02515
3.00249
2.98057
2.95936
2.93883
2.91895
2.89969
2.88105
2.86298
2.84547
2.82849
2.81204
2.79608
2.7806
2.76559
2.75102
2.73687
3.51947
3.47938
3.44077
3.40359
3.36778
3.33329
3.30005
3.26801
3.23712
3.20733
3.17859
3.15084
3.12406
3.09821
3.07323
3.0491
3.02579
3.00326
2.98147
2.96041
2.94004
2.92034
2.90127
2.88282
2.86496
2.84767
2.83093
2.81471
2.799
2.78378
2.76902
2.75472
2.74086
3.51947
3.47938
3.44077
3.40361
3.36785
3.33343
3.30029
3.26839
3.23768
3.20812
3.17966
3.15226
3.12588
3.10047
3.07601
3.05245
3.02975
3.00788
2.98681
2.9665
2.94692
2.92804
2.90983
2.89226
2.87531
2.85895
2.84315
2.82789
2.81314
2.79889
2.78512
2.7718
2.75892
3.51947
3.47942
3.44096
3.40413
3.36894
3.33534
3.30329
3.27272
3.24358
3.21581
3.18937
3.16419
3.14021
3.11738
3.09564
3.07493
3.05519
3.03638
3.01843
3.0013
2.98493
2.9693
2.95434
2.94003
2.92632
2.91318
2.90057
2.88846
2.87684
2.86566
2.8549
2.84454
2.83456
3.5195
3.48076
3.44538
3.41321
3.38399
3.35751
3.3336
3.3121
3.2928
3.27554
3.2601
3.24632
3.23402
3.22303
3.2132
3.20439
3.19649
3.18938
3.18296
3.17715
3.17186
3.16704
3.16261
3.15853
3.15474
3.15122
3.14791
3.1448
3.14185
3.13904
3.13635
3.13376
3.13125
3.52508
3.51485
3.5211
3.5367
3.5587
3.58558
3.6163
3.64993
3.68568
3.72284
3.76087
3.79932
3.83783
3.87613
3.91397
3.95119
3.98766
4.02327
4.05795
4.09165
4.12434
4.156
4.18661
4.21617
4.2447
4.27219
4.29868
4.32418
4.34871
4.37229
4.39496
4.41675
4.43767
3.842
4.38777
4.87733
5.34208
5.79368
6.23364
6.65993
7.07122
7.46749
7.84935
8.21755
8.57287
8.91608
9.24791
9.56899
9.87989
10.1811
10.4731
10.7563
11.0309
11.2974
11.5559
11.8069
12.0505
12.2869
12.5165
12.7394
12.9558
13.166
13.3701
13.5683
13.7609
13.9481
30.2673
32.7691
35.3053
37.8487
40.3862
42.91
45.4131
47.8887
50.33
52.7312
55.087
57.3928
59.6446
61.8392
63.9739
66.0465
68.0555
69.9997
71.8785
73.6916
75.4391
77.1213
78.739
80.293
81.7844
83.2145
84.5847
85.8965
87.1515
88.3514
89.4979
90.5926
91.6383
78.5023
700.876
1235.82
1343.35
1214.01
1035.96
885.369
778.919
709.188
662.273
626.444
594.66
563.745
532.871
502.395
473.136
445.969
421.611
400.513
382.786
368.184
356.147
345.931
336.78
328.07
319.374
310.461
301.259
291.822
282.297
272.892
263.818
255.233
247.21
239.721
232.654
225.845
219.108
212.272
205.208
197.844
190.186
182.324
174.434
166.768
159.634
153.358
148.219
144.376
141.801
140.253
139.317
138.486
137.265
135.253
132.181
127.919
122.454
115.872
108.332
100.05
91.2789
82.3003
73.405
64.8769
56.9753
49.9183
43.87
38.9338
35.151
32.5025
30.9116
30.2497
30.3478
31.0141
32.0538
33.2866
34.5581
35.7448
36.7557
37.5295
38.0311
38.2471
38.1809
37.8481
37.2726
36.4831
35.5105
34.3864
33.1416
31.8057
30.4061
28.9686
27.5163
26.0704
24.6471
23.2639
21.9243
20.6988
19.2246
4.46425
52.0699
258.689
488.815
603.486
609.816
567.484
518.665
480.027
453.735
436.005
422.058
408.575
394.205
378.984
363.604
348.914
335.684
324.476
315.554
308.811
303.774
299.699
295.751
291.195
285.53
278.544
270.296
261.067
251.278
241.4
231.86
222.961
214.845
207.494
200.763
194.43
188.251
181.999
175.503
168.669
161.491
154.058
146.547
139.21
132.353
126.301
121.343
117.666
115.284
114.004
113.444
113.106
112.481
111.14
108.783
105.254
100.533
94.7058
87.9448
80.4814
72.5871
64.5533
56.6716
49.2139
42.4136
36.4501
31.4415
27.4451
24.4652
22.464
21.3683
21.0735
21.447
22.3357
23.5784
25.0185
26.5147
27.9487
29.2281
30.2872
31.0851
31.6025
31.838
31.803
31.5188
31.0123
30.3136
29.4541
28.465
27.3762
26.2164
25.0121
23.7876
22.5648
21.3615
20.1949
19.0752
18.0504
16.89
4.52482
3.71709
18.3734
80.128
163.309
221.197
246.995
250.631
244.018
234.757
226.379
219.998
215.554
212.529
210.368
208.718
207.508
206.907
207.193
208.598
211.134
214.485
218.012
220.884
222.292
221.651
218.717
213.614
206.774
198.818
190.423
182.195
174.571
167.773
161.821
156.567
151.765
147.131
142.405
137.384
131.953
126.096
119.892
113.511
107.192
101.221
95.9021
91.5162
88.2703
86.2354
85.2981
85.1539
85.3597
85.4261
84.9123
83.4926
80.9847
77.3461
72.6541
67.0786
60.8543
54.2553
47.57
41.0772
35.0228
29.6011
24.9423
21.1105
18.1136
15.9202
14.4787
13.7281
13.6006
14.0166
14.8809
16.0829
17.5036
19.0246
20.5369
21.948
23.186
24.2009
24.9637
25.4637
25.7046
25.7014
25.4764
25.0565
24.4707
23.749
22.9206
22.0138
21.0553
20.0698
19.0795
18.1031
17.1575
16.2588
15.4341
14.57
6.50872
4.10374
1.14625
5.64518
23.2532
46.3907
66.2278
79.3121
85.8054
87.4849
86.3578
84.0583
81.7583
80.2193
79.8548
80.8039
83.0336
86.4541
91.0016
96.6529
103.353
110.882
118.749
126.196
132.354
136.477
138.142
137.339
134.434
130.04
124.869
119.576
114.66
110.407
106.888
103.998
101.513
99.1591
96.6718
93.8399
90.5364
86.7304
82.4861
77.9497
73.3289
68.8684
64.8252
61.4432
58.9222
57.377
56.7895
56.9787
57.6141
58.2801
58.5634
58.1307
56.774
54.4219
51.1266
47.0387
42.378
37.4023
32.3786
27.5541
23.1327
19.2569
16.0021
13.3823
11.3675
9.90458
8.93815
8.42242
8.32324
8.61093
9.24943
10.1878
11.3579
12.6776
14.0591
15.4172
16.6774
17.7811
18.6874
19.3733
19.8313
20.0665
20.0931
19.9318
19.6069
19.1449
18.5725
17.9164
17.2018
16.453
15.6917
14.937
14.2052
13.5173
12.8812
12.2843
4.78614
4.44496
3.3282
2.66168
4.18945
8.16976
13.3543
18.2875
22.0864
24.4812
25.591
25.7627
25.4105
24.9188
24.5971
24.6684
25.2789
26.5199
28.4549
31.1407
34.6275
38.9193
43.8971
49.2459
54.4565
58.9333
62.1685
63.893
64.1354
63.1789
61.4546
59.4224
57.4744
55.8753
54.74
54.0426
53.6476
53.3555
52.9512
52.2476
51.1178
49.5126
47.463
45.0695
42.4827
39.88
37.4452
35.3525
33.7544
32.7664
32.4397
32.7263
33.4578
34.3616
35.116
35.4233
35.0681
33.9478
32.0749
29.5589
26.5785
23.3485
20.0875
16.9882
14.196
11.7978
9.82397
8.26066
7.06768
6.19625
5.60302
5.25815
5.14726
5.26741
5.61888
6.19567
6.97793
7.9285
8.9944
10.1126
11.2179
12.2507
13.1622
13.918
14.498
14.895
15.1125
15.162
15.0606
14.8286
14.4884
14.063
13.5751
13.0468
12.4985
11.949
11.4132
10.9153
10.4471
10.0759
3.78233
3.82205
3.66355
3.37165
3.322
3.77331
4.68055
5.80948
6.90257
7.79433
8.4136
8.76185
8.8946
8.89553
8.85404
8.85051
8.94974
9.20119
9.64334
10.3091
11.2296
12.4316
13.9211
15.6555
17.5201
19.3336
20.8908
22.0253
22.6603
22.8229
22.625
22.2245
21.7854
21.4466
21.3003
21.3794
21.6557
22.0488
22.4453
22.725
22.7872
22.5706
22.0635
21.301
20.3549
19.3173
18.2861
17.3546
16.6068
16.116
15.9392
16.1006
16.568
17.2359
17.9336
18.4626
18.647
18.3746
17.6162
16.4223
14.9039
13.2037
11.4669
9.81649
8.33849
7.07803
6.04513
5.22581
4.59396
4.1212
3.78359
3.56548
3.46116
3.47405
3.61361
3.89037
4.31008
4.86851
5.54811
6.31772
7.13572
7.95569
8.73262
9.42811
10.0135
10.4711
10.7931
10.9807
11.0417
10.9887
10.8375
10.6057
10.3118
9.97447
9.61152
9.24004
8.87312
8.53637
8.2089
8.01082
3.29119
3.31405
3.31221
3.26513
3.21777
3.24307
3.37465
3.59392
3.85214
4.1003
4.3077
4.45789
4.54977
4.59489
4.61266
4.62522
4.65358
4.71553
4.82514
4.99309
5.22739
5.53375
5.91368
6.3597
6.84991
7.34653
7.80186
8.17058
8.42263
8.55076
8.57045
8.51393
8.42216
8.33713
8.29531
8.32189
8.42603
8.59815
8.81086
9.02437
9.19541
9.28752
9.27911
9.16727
8.9664
8.70325
8.41066
8.1224
7.87049
7.68497
7.59427
7.62274
7.78218
8.05883
8.40384
8.73681
8.96487
9.00946
8.82829
8.42413
7.8391
7.13926
6.3962
5.67182
5.0098
4.43395
3.95159
3.55891
3.24638
3.00289
2.81865
2.68705
2.60589
2.57783
2.60996
2.71222
2.89484
3.16516
3.52441
3.96531
4.47117
5.01714
5.57337
6.10916
6.59686
7.01461
7.34774
7.58885
7.73704
7.79673
7.77632
7.68703
7.54183
7.35464
7.13958
6.91091
6.67918
6.46896
6.25226
6.16961
3.02901
3.03241
3.03489
3.02965
3.01779
3.01084
3.02098
3.05256
3.10065
3.1552
3.20743
3.25041
3.28047
3.29776
3.30573
3.30995
3.31681
3.33247
3.36216
3.40982
3.47794
3.56759
3.67825
3.80708
3.94803
4.09159
4.22588
4.33911
4.42232
4.47144
4.48781
4.47753
4.44998
4.41625
4.38753
4.37347
4.3805
4.41044
4.4598
4.52019
4.58013
4.62766
4.6531
4.65109
4.62128
4.56784
4.49796
4.42038
4.34423
4.27865
4.23299
4.21692
4.239
4.30293
4.40246
4.51814
4.61956
4.67338
4.65374
4.55003
4.36866
4.12913
3.85698
3.57702
3.30881
3.065
2.85179
2.67053
2.51958
2.39588
2.29624
2.21832
2.16128
2.12644
2.11747
2.14023
2.20197
2.31
2.46989
2.68374
2.94866
3.25606
3.59212
3.93933
4.27876
4.59254
4.86578
5.08775
5.25235
5.35786
5.40636
5.40293
5.35489
5.2711
5.16124
5.03593
4.90274
4.78289
4.64775
4.62716
2.88287
2.87713
2.87227
2.86679
2.85953
2.85112
2.84374
2.83945
2.83886
2.84088
2.84392
2.84617
2.8462
2.84341
2.8382
2.83188
2.82631
2.8236
2.82577
2.83445
2.8507
2.87489
2.90668
2.94487
2.9873
3.0309
3.07197
3.10679
3.13233
3.14678
3.14988
3.14278
3.12787
3.10837
3.08787
3.0699
3.05736
3.05192
3.05373
3.06127
3.07175
3.08169
3.08775
3.08739
3.07932
3.06358
3.0413
3.01435
2.98499
2.95565
2.92897
2.90786
2.89545
2.89438
2.9053
2.92525
2.94704
2.96053
2.95561
2.92538
2.86812
2.78724
2.68964
2.58351
2.47637
2.37395
2.27987
2.19585
2.12218
2.05832
2.00339
1.95661
1.9177
1.88719
1.86671
1.85912
1.8684
1.89924
1.95627
2.04313
2.16143
2.30993
2.4842
2.67674
2.8778
3.07655
3.26244
3.42632
3.56127
3.66303
3.73
3.76303
3.76498
3.74035
3.6947
3.6349
3.56564
3.50318
3.42382
3.42609
2.80227
2.79157
2.78155
2.77182
2.76182
2.75112
2.73974
2.72807
2.7165
2.70519
2.69408
2.68296
2.67153
2.65957
2.64713
2.63449
2.62221
2.61101
2.60167
2.59491
2.59127
2.591
2.59403
2.59991
2.60781
2.61656
2.62479
2.63106
2.63416
2.63321
2.62785
2.61822
2.60494
2.58904
2.57179
2.5546
2.53875
2.52522
2.51448
2.50644
2.50044
2.49545
2.49029
2.48389
2.47542
2.46444
2.45089
2.43498
2.41715
2.39797
2.37814
2.35847
2.34001
2.32383
2.31079
2.30096
2.29317
2.28503
2.27346
2.25573
2.23023
2.19696
2.15728
2.11342
2.06778
2.02249
1.97905
1.93835
1.90069
1.866
1.83401
1.80445
1.7772
1.75247
1.73093
1.71384
1.70312
1.70127
1.71117
1.73564
1.7769
1.83601
1.91244
2.00386
2.10622
2.21423
2.32195
2.42346
2.51355
2.58816
2.64464
2.6819
2.70024
2.70128
2.68758
2.66292
2.62976
2.59906
2.55462
2.55859
2.75962
2.74592
2.73267
2.71974
2.70684
2.69366
2.68001
2.66582
2.65119
2.63623
2.62106
2.60574
2.59029
2.57472
2.55905
2.54338
2.52789
2.51284
2.49853
2.4853
2.47343
2.46312
2.45442
2.44721
2.44117
2.43583
2.43062
2.42489
2.41806
2.40967
2.39943
2.38725
2.37327
2.35784
2.34146
2.32473
2.30827
2.29264
2.27821
2.26513
2.25331
2.24247
2.23214
2.22185
2.2111
2.19952
2.18682
2.17284
2.15754
2.14098
2.12331
2.1048
2.08581
2.06681
2.04832
2.03075
2.01421
1.99841
1.98272
1.96635
1.94863
1.92927
1.90834
1.88625
1.86355
1.84078
1.81834
1.79644
1.7751
1.75421
1.7336
1.71311
1.69266
1.67233
1.65239
1.6334
1.6162
1.60202
1.59239
1.58901
1.59357
1.60741
1.63123
1.66483
1.70701
1.75566
1.80794
1.86066
1.9106
1.9549
1.99129
2.01825
2.03512
2.04203
2.03981
2.03022
2.01428
1.99847
1.97366
1.97209
2.73839
2.72285
2.70761
2.6926
2.67768
2.66265
2.64737
2.63172
2.61571
2.59936
2.58274
2.56593
2.54899
2.53195
2.51487
2.49779
2.4808
2.464
2.44753
2.43155
2.41622
2.40168
2.38801
2.37521
2.36318
2.35172
2.34056
2.32939
2.31788
2.30574
2.29277
2.27884
2.26397
2.24827
2.23195
2.21532
2.1987
2.18241
2.16673
2.15182
2.13773
2.12438
2.11159
2.0991
2.08662
2.07384
2.0605
2.04636
2.03128
2.01518
1.99806
1.98004
1.96129
1.9421
1.92279
1.90374
1.88524
1.8675
1.85056
1.83435
1.81872
1.80351
1.78861
1.77397
1.75954
1.7453
1.73117
1.71702
1.70269
1.68798
1.6727
1.65671
1.63991
1.62233
1.60408
1.58542
1.56673
1.5486
1.53178
1.51718
1.50582
1.4987
1.49661
1.50003
1.50894
1.52277
1.54046
1.56054
1.58133
1.60111
1.61836
1.63181
1.64064
1.64444
1.64325
1.6377
1.62807
1.61767
1.60246
1.59484
2.72853
2.71191
2.69549
2.67922
2.66303
2.64679
2.63041
2.61381
2.59696
2.57986
2.56254
2.54505
2.52743
2.50972
2.49196
2.47419
2.45645
2.43882
2.42136
2.40416
2.38732
2.37095
2.35511
2.33984
2.32512
2.31087
2.29695
2.28318
2.26936
2.2553
2.24083
2.22586
2.21035
2.19433
2.17792
2.16128
2.1446
2.1281
2.11196
2.09632
2.08125
2.06672
2.05267
2.03893
2.0253
2.01155
1.99745
1.98279
1.96741
1.95121
1.93416
1.91633
1.89784
1.8789
1.85979
1.8408
1.82224
1.80436
1.78738
1.77141
1.75647
1.74253
1.72949
1.7172
1.70549
1.69415
1.68296
1.67166
1.66001
1.64778
1.63475
1.62078
1.60577
1.5897
1.57263
1.55467
1.53605
1.51704
1.49803
1.4795
1.46198
1.44609
1.43241
1.42143
1.41346
1.40857
1.40653
1.40684
1.40877
1.41147
1.41405
1.4157
1.41573
1.41371
1.40936
1.4028
1.394
1.38433
1.37284
1.36039
2.72425
2.70702
2.68993
2.67293
2.65598
2.63901
2.62196
2.60476
2.58739
2.56984
2.55212
2.53427
2.5163
2.49825
2.48014
2.46202
2.44391
2.42585
2.40791
2.39014
2.3726
2.35538
2.33853
2.3221
2.30609
2.29048
2.27517
2.26007
2.24504
2.22994
2.21464
2.19906
2.18315
2.16692
2.15042
2.13377
2.1171
2.10053
2.08422
2.06826
2.05272
2.0376
2.02284
2.00835
1.99397
1.97953
1.96483
1.94971
1.93401
1.91764
1.90057
1.88285
1.86459
1.84596
1.8272
1.80857
1.79033
1.77274
1.75599
1.74025
1.72558
1.71198
1.69938
1.68764
1.67655
1.66591
1.65544
1.64488
1.63397
1.62248
1.61019
1.59697
1.58271
1.56737
1.55098
1.53361
1.51539
1.49648
1.47709
1.4575
1.43799
1.41891
1.40063
1.38349
1.36779
1.35375
1.34145
1.33083
1.32167
1.31364
1.30632
1.29928
1.29209
1.2844
1.27594
1.26663
1.25636
1.24544
1.2346
1.21844
2.72246
2.70492
2.68744
2.67004
2.65266
2.63526
2.61781
2.60025
2.58258
2.56477
2.54684
2.52879
2.51065
2.49244
2.47417
2.45588
2.43759
2.41933
2.40116
2.3831
2.36523
2.34759
2.33023
2.3132
2.29651
2.28015
2.26408
2.24822
2.23247
2.21674
2.20093
2.18497
2.1688
2.15243
2.13589
2.11924
2.10258
2.08601
2.06963
2.05351
2.03771
2.02224
2.00706
1.99209
1.97721
1.96228
1.94716
1.93169
1.91575
1.89926
1.8822
1.8646
1.84656
1.82824
1.80983
1.79156
1.77366
1.75636
1.73984
1.72424
1.70963
1.69603
1.68336
1.67151
1.66029
1.6495
1.63889
1.62821
1.61723
1.60571
1.59348
1.58039
1.56634
1.55129
1.53524
1.51826
1.50041
1.48182
1.46262
1.44299
1.42309
1.40314
1.38335
1.36395
1.34515
1.32714
1.31007
1.29401
1.27897
1.26487
1.25157
1.23889
1.22662
1.21454
1.20248
1.19031
1.17796
1.16522
1.1537
1.1346
2.72171
2.70398
2.6863
2.66866
2.65103
2.63339
2.6157
2.59794
2.58009
2.56215
2.54411
2.52598
2.50776
2.48949
2.47116
2.45281
2.43445
2.41612
2.39785
2.37967
2.36163
2.34378
2.32615
2.30878
2.29169
2.27488
2.25833
2.24198
2.22576
2.20961
2.19345
2.17721
2.16086
2.14438
2.12779
2.11114
2.09449
2.07791
2.06148
2.04527
2.0293
2.01359
1.99812
1.98281
1.96758
1.95231
1.93687
1.92116
1.90507
1.88852
1.8715
1.85405
1.83623
1.81819
1.8001
1.78215
1.76455
1.74749
1.73113
1.71558
1.70093
1.68717
1.67426
1.66207
1.65046
1.63924
1.62819
1.61708
1.60571
1.59387
1.58139
1.56815
1.55406
1.53906
1.52317
1.50641
1.48885
1.47057
1.45169
1.43231
1.41257
1.3926
1.37255
1.35255
1.33276
1.31331
1.29433
1.27591
1.25811
1.24097
1.22446
1.20855
1.19314
1.17816
1.16349
1.14905
1.13483
1.1204
1.10784
1.08644
2.72134
2.7035
2.6857
2.66791
2.65013
2.63234
2.61452
2.59664
2.5787
2.56068
2.54259
2.52442
2.50619
2.48791
2.46958
2.45123
2.43287
2.41453
2.39623
2.37801
2.3599
2.34193
2.32415
2.30658
2.28924
2.27214
2.25525
2.23856
2.222
2.20554
2.1891
2.17264
2.15614
2.13956
2.12292
2.10625
2.08959
2.073
2.05653
2.04023
2.02413
2.00824
1.99254
1.97697
1.96147
1.94593
1.93027
1.91438
1.89818
1.88162
1.86467
1.84737
1.82977
1.812
1.7942
1.77653
1.75918
1.7423
1.72605
1.71052
1.69576
1.6818
1.66857
1.656
1.64393
1.6322
1.62063
1.60901
1.59716
1.58491
1.57209
1.5586
1.54435
1.5293
1.51345
1.49681
1.47945
1.46144
1.44285
1.42378
1.40434
1.38463
1.36474
1.34479
1.32488
1.3051
1.28554
1.2663
1.24742
1.22897
1.21098
1.19344
1.17635
1.15969
1.14341
1.12746
1.11189
1.09618
1.08269
1.05959
2.72111
2.70321
2.68532
2.66744
2.64956
2.63168
2.61376
2.59581
2.57781
2.55975
2.54163
2.52346
2.50523
2.48696
2.46865
2.45032
2.43199
2.41367
2.39538
2.37715
2.35902
2.341
2.32313
2.30543
2.28792
2.27061
2.25349
2.23654
2.21973
2.20301
2.18635
2.16971
2.15306
2.13639
2.11969
2.10298
2.08629
2.06967
2.05316
2.03678
2.02057
2.00453
1.98863
1.97285
1.95713
1.94139
1.92554
1.90952
1.89325
1.87668
1.85981
1.84265
1.82525
1.80772
1.79018
1.77276
1.75563
1.73891
1.72273
1.70718
1.69231
1.67813
1.6646
1.65163
1.63912
1.6269
1.61481
1.6027
1.59037
1.57769
1.56452
1.55075
1.53631
1.52116
1.50529
1.48872
1.47151
1.45369
1.43536
1.41658
1.39745
1.37805
1.35845
1.33876
1.31903
1.29935
1.27979
1.2604
1.24125
1.22238
1.20383
1.18563
1.16778
1.15029
1.13316
1.11635
1.09995
1.08341
1.06926
1.045
2.72094
2.70298
2.68503
2.66709
2.64914
2.63119
2.61321
2.5952
2.57716
2.55907
2.54094
2.52276
2.50455
2.48629
2.46801
2.44971
2.43141
2.41312
2.39485
2.37664
2.3585
2.34045
2.32252
2.30474
2.28711
2.26965
2.25235
2.2352
2.21819
2.20127
2.18443
2.16763
2.15085
2.13407
2.1173
2.10054
2.08381
2.06715
2.05058
2.03413
2.01781
2.00163
1.98558
1.96963
1.95372
1.9378
1.92181
1.90568
1.88935
1.87279
1.85599
1.83895
1.82174
1.80442
1.7871
1.7699
1.75295
1.73636
1.72024
1.70467
1.68969
1.67531
1.66149
1.64817
1.63523
1.62256
1.61001
1.59743
1.58467
1.57159
1.55808
1.54404
1.52941
1.51414
1.49824
1.48171
1.46459
1.44694
1.42881
1.41029
1.39143
1.37232
1.35303
1.33363
1.31418
1.29474
1.27537
1.25612
1.23704
1.21816
1.19951
1.18113
1.16303
1.14523
1.12773
1.11051
1.09369
1.07669
1.06216
1.03719
2.72079
2.70279
2.6848
2.66681
2.64881
2.6308
2.61277
2.59472
2.57664
2.55853
2.54039
2.52221
2.504
2.48577
2.46751
2.44923
2.43096
2.41269
2.39445
2.37625
2.35811
2.34005
2.32208
2.30424
2.28652
2.26894
2.2515
2.2342
2.21702
2.19993
2.18293
2.16599
2.14908
2.13221
2.11536
2.09854
2.08176
2.06505
2.04842
2.03189
2.01548
1.99918
1.98299
1.96688
1.95082
1.93476
1.91865
1.90243
1.88605
1.8695
1.85276
1.83583
1.81877
1.80163
1.78451
1.76749
1.7507
1.73422
1.71815
1.70255
1.68747
1.6729
1.65883
1.64518
1.63188
1.61881
1.60584
1.59284
1.57969
1.56625
1.55243
1.53815
1.52333
1.50795
1.492
1.47549
1.45845
1.44093
1.42298
1.40466
1.38605
1.36721
1.34819
1.32907
1.3099
1.29073
1.27162
1.25259
1.23369
1.21496
1.19641
1.17808
1.15998
1.14213
1.12454
1.1072
1.09021
1.07301
1.0583
1.03295
2.72066
2.70263
2.6846
2.66657
2.64852
2.63047
2.61241
2.59432
2.57622
2.55809
2.53993
2.52175
2.50354
2.48532
2.46707
2.44882
2.43056
2.41232
2.39409
2.3759
2.35776
2.33969
2.3217
2.3038
2.28601
2.26834
2.25079
2.23336
2.21604
2.19882
2.18168
2.1646
2.14759
2.13061
2.11368
2.09679
2.07995
2.06318
2.04649
2.02988
2.01338
1.99698
1.98067
1.96444
1.94825
1.93206
1.91584
1.89955
1.88314
1.86659
1.84989
1.83306
1.81612
1.79914
1.78218
1.76532
1.74865
1.73227
1.71624
1.70062
1.68544
1.67072
1.65641
1.64249
1.62886
1.61543
1.60209
1.58873
1.57522
1.56147
1.54738
1.53287
1.51789
1.5024
1.48641
1.4699
1.45293
1.43551
1.41771
1.39958
1.38118
1.36256
1.3438
1.32493
1.30602
1.28711
1.26824
1.24945
1.23077
1.21223
1.19386
1.17567
1.15768
1.13991
1.12236
1.10502
1.08802
1.07077
1.05601
1.0305
2.72053
2.70248
2.68442
2.66636
2.64828
2.6302
2.6121
2.59399
2.57585
2.5577
2.53953
2.52135
2.50314
2.48492
2.46668
2.44844
2.4302
2.41197
2.39375
2.37557
2.35743
2.33934
2.32132
2.30338
2.28553
2.26779
2.25015
2.23261
2.21517
2.19783
2.18057
2.16338
2.14626
2.12919
2.11217
2.09521
2.07831
2.06147
2.04471
2.02803
2.01145
1.99495
1.97854
1.96219
1.94589
1.9296
1.91329
1.89693
1.88049
1.86394
1.84729
1.83053
1.8137
1.79684
1.78002
1.76329
1.74674
1.73043
1.71443
1.69878
1.68352
1.66866
1.65416
1.63998
1.62607
1.61233
1.59866
1.58498
1.57117
1.55714
1.5428
1.5281
1.51297
1.49739
1.48135
1.46485
1.44793
1.43061
1.41293
1.39496
1.37674
1.35834
1.33979
1.32115
1.30247
1.28379
1.26515
1.24658
1.22812
1.20978
1.19159
1.17357
1.15573
1.13808
1.12063
1.10337
1.08643
1.06921
1.05447
1.02893
2.72042
2.70235
2.68427
2.66617
2.64807
2.62996
2.61183
2.59369
2.57554
2.55737
2.53919
2.52099
2.50278
2.48455
2.46632
2.44809
2.42985
2.41163
2.39342
2.37524
2.35709
2.33899
2.32095
2.30297
2.28507
2.26726
2.24954
2.23191
2.21438
2.19693
2.17956
2.16227
2.14505
2.12789
2.1108
2.09376
2.07679
2.05988
2.04305
2.0263
2.00964
1.99306
1.97655
1.96011
1.94371
1.92733
1.91095
1.89453
1.87806
1.86151
1.84489
1.82819
1.81145
1.7947
1.77798
1.76136
1.7449
1.72865
1.71268
1.69701
1.68168
1.66669
1.65202
1.63763
1.62346
1.60945
1.5955
1.58153
1.56746
1.55318
1.53863
1.52376
1.5085
1.49284
1.47676
1.46027
1.4434
1.42616
1.40861
1.39078
1.37273
1.3545
1.33614
1.31771
1.29924
1.28077
1.26234
1.24397
1.22571
1.20756
1.18955
1.17169
1.154
1.13648
1.11916
1.102
1.08514
1.06799
1.0533
1.02781
2.72032
2.70223
2.68413
2.66601
2.64788
2.62975
2.6116
2.59344
2.57526
2.55708
2.53888
2.52067
2.50245
2.48423
2.46599
2.44776
2.42953
2.4113
2.3931
2.37491
2.35676
2.33864
2.32057
2.30256
2.28462
2.26675
2.24897
2.23126
2.21364
2.1961
2.17864
2.16126
2.14395
2.12671
2.10953
2.09242
2.07537
2.0584
2.0415
2.02468
2.00794
1.99128
1.97469
1.95816
1.94168
1.92523
1.90878
1.89231
1.87581
1.85927
1.84267
1.82602
1.80935
1.79269
1.77606
1.75953
1.74314
1.72695
1.71099
1.6953
1.67991
1.6648
1.64998
1.6354
1.62102
1.60677
1.59258
1.57837
1.56406
1.54957
1.53484
1.51982
1.50446
1.48873
1.47263
1.45615
1.43932
1.42217
1.40473
1.38703
1.36913
1.35107
1.33289
1.31464
1.29636
1.27808
1.25983
1.24165
1.22356
1.20558
1.18774
1.17003
1.15248
1.1351
1.11789
1.10083