/*--------------------------------*- C++ -*----------------------------------*\
  =========                 |
  \\      /  F ield         | OpenFOAM: The Open Source CFD Toolbox
   \\    /   O peration     | Website:  https://openfoam.org
    \\  /    A nd           | Version:  10
     \\/     M anipulation  |
\*---------------------------------------------------------------------------*/
FoamFile
{
    format      ascii;
    class       volScalarField;
    location    "1000";
    object      k;
}
// * * * * * * * * * * * * * * * * * * * * * * * * * * * * * * * * * * * * * //

dimensions      [0 2 -2 0 0 0 0];

internalField   nonuniform List<scalar> 
6820
(
0.19714
0.192517
0.18828
0.184033
0.179769
0.175612
0.171677
0.168044
0.164749
0.161803
0.159198
0.156918
0.154938
0.153235
0.151781
0.150554
0.149531
0.148689
0.148011
0.147478
0.147075
0.146788
0.146604
0.146513
0.146504
0.146568
0.146709
0.146894
0.147059
0.14788
0.145071
0.172907
0.0868331
0.20725
0.212378
0.210059
0.205419
0.200998
0.197556
0.195152
0.193631
0.192806
0.192513
0.192622
0.193037
0.193685
0.194512
0.195475
0.196545
0.197696
0.198912
0.200177
0.201481
0.202816
0.204177
0.205563
0.206975
0.208417
0.209902
0.21145
0.213092
0.214734
0.217724
0.216809
0.225012
0.240819
0.200993
0.203847
0.20455
0.203317
0.201176
0.198803
0.196518
0.194454
0.192653
0.191121
0.189845
0.188806
0.187982
0.187352
0.186893
0.186587
0.186416
0.186364
0.186417
0.186562
0.18679
0.187092
0.18746
0.187889
0.188377
0.188924
0.189532
0.190221
0.190942
0.192147
0.192547
0.193641
0.203831
0.199593
0.199508
0.199518
0.199121
0.198258
0.197061
0.195675
0.194213
0.192747
0.191325
0.189973
0.188708
0.187539
0.186467
0.185492
0.184613
0.183824
0.183123
0.182503
0.181959
0.181488
0.181084
0.180744
0.180465
0.180244
0.180082
0.17998
0.179947
0.179976
0.180174
0.180384
0.180458
0.183101
0.199411
0.198475
0.197748
0.197076
0.196333
0.19547
0.194493
0.19343
0.192313
0.191172
0.190029
0.188901
0.187801
0.186738
0.185717
0.184744
0.183819
0.182944
0.18212
0.181344
0.180618
0.179938
0.179306
0.178718
0.178176
0.177679
0.177229
0.176831
0.176486
0.176222
0.176042
0.175873
0.176186
0.199395
0.198255
0.197227
0.19629
0.195403
0.194525
0.193631
0.19271
0.191764
0.190798
0.189823
0.188845
0.187873
0.186913
0.185971
0.18505
0.184155
0.183287
0.182447
0.181638
0.18086
0.180112
0.179397
0.178713
0.178061
0.177441
0.176856
0.176307
0.175798
0.175337
0.174937
0.174588
0.174353
0.199395
0.198216
0.197096
0.196039
0.195039
0.194082
0.193155
0.192244
0.191342
0.190444
0.189551
0.188662
0.187779
0.186906
0.186043
0.185194
0.184361
0.183544
0.182747
0.181969
0.181211
0.180475
0.179761
0.179069
0.1784
0.177755
0.177134
0.17654
0.175975
0.175444
0.174952
0.174505
0.17411
0.199395
0.19821
0.197068
0.19597
0.194919
0.193911
0.192941
0.192004
0.191093
0.190205
0.189334
0.18848
0.18764
0.186814
0.186002
0.185204
0.18442
0.183652
0.182899
0.182161
0.18144
0.180736
0.180049
0.17938
0.178728
0.178095
0.177481
0.176887
0.176316
0.175769
0.175252
0.174767
0.174318
0.199395
0.198209
0.197062
0.195954
0.194885
0.193855
0.192861
0.191901
0.190974
0.190075
0.189202
0.188353
0.187525
0.186717
0.185928
0.185156
0.184401
0.183663
0.182941
0.182234
0.181544
0.180869
0.180209
0.179566
0.178938
0.178326
0.177731
0.177153
0.176594
0.176054
0.175538
0.175047
0.174583
0.199395
0.198209
0.197061
0.195951
0.194877
0.193838
0.192834
0.191864
0.190925
0.190017
0.189136
0.188283
0.187454
0.186649
0.185866
0.185103
0.18436
0.183636
0.18293
0.182241
0.181569
0.180914
0.180274
0.17965
0.179041
0.178448
0.177871
0.17731
0.176765
0.176239
0.175732
0.175246
0.174782
0.199395
0.198209
0.197061
0.19595
0.194874
0.193834
0.192827
0.191852
0.190908
0.189994
0.189108
0.18825
0.187418
0.186611
0.185827
0.185066
0.184326
0.183607
0.182907
0.182226
0.181562
0.180917
0.180288
0.179675
0.179079
0.178498
0.177933
0.177384
0.176851
0.176335
0.175836
0.175357
0.174896
0.199395
0.198209
0.19706
0.195949
0.194874
0.193832
0.192824
0.191848
0.190902
0.189985
0.189097
0.188236
0.187402
0.186592
0.185807
0.185045
0.184305
0.183586
0.182887
0.182208
0.181548
0.180906
0.180282
0.179675
0.179085
0.17851
0.177952
0.17741
0.176884
0.176374
0.175881
0.175406
0.174947
0.199395
0.198209
0.19706
0.195949
0.194873
0.193832
0.192823
0.191846
0.190899
0.189982
0.189093
0.188231
0.187395
0.186584
0.185798
0.185034
0.184293
0.183574
0.182875
0.182196
0.181537
0.180896
0.180274
0.179668
0.17908
0.178509
0.177954
0.177415
0.176892
0.176385
0.175894
0.17542
0.174961
0.199395
0.198209
0.19706
0.195949
0.194873
0.193831
0.192822
0.191845
0.190898
0.189981
0.189091
0.188229
0.187392
0.186581
0.185793
0.185029
0.184288
0.183568
0.182869
0.18219
0.18153
0.180889
0.180267
0.179662
0.179075
0.178504
0.17795
0.177412
0.17689
0.176384
0.175894
0.175419
0.174959
0.199395
0.198209
0.19706
0.195948
0.194872
0.193831
0.192822
0.191844
0.190897
0.18998
0.18909
0.188227
0.18739
0.186579
0.185791
0.185027
0.184285
0.183565
0.182865
0.182186
0.181526
0.180885
0.180263
0.179658
0.179071
0.1785
0.177946
0.177408
0.176886
0.17638
0.175889
0.175413
0.174951
0.199395
0.198208
0.19706
0.195948
0.194872
0.19383
0.192821
0.191844
0.190897
0.189979
0.189089
0.188226
0.187389
0.186577
0.18579
0.185025
0.184283
0.183563
0.182863
0.182184
0.181524
0.180883
0.180261
0.179656
0.179068
0.178498
0.177944
0.177405
0.176883
0.176376
0.175884
0.175407
0.174943
0.199395
0.198208
0.19706
0.195948
0.194872
0.19383
0.192821
0.191843
0.190896
0.189978
0.189088
0.188225
0.187388
0.186576
0.185789
0.185024
0.184282
0.183562
0.182862
0.182183
0.181523
0.180882
0.180259
0.179654
0.179067
0.178496
0.177942
0.177403
0.17688
0.176373
0.175879
0.175401
0.174936
0.199395
0.198208
0.19706
0.195948
0.194872
0.19383
0.19282
0.191843
0.190896
0.189978
0.189088
0.188225
0.187388
0.186576
0.185788
0.185023
0.184281
0.183561
0.182861
0.182182
0.181522
0.180881
0.180258
0.179653
0.179066
0.178495
0.17794
0.177401
0.176878
0.17637
0.175876
0.175396
0.17493
0.199395
0.198208
0.19706
0.195948
0.194871
0.193829
0.19282
0.191843
0.190895
0.189977
0.189087
0.188224
0.187387
0.186575
0.185787
0.185022
0.18428
0.18356
0.18286
0.182181
0.181521
0.18088
0.180257
0.179652
0.179065
0.178494
0.177939
0.1774
0.176876
0.176367
0.175872
0.175392
0.174924
0.199395
0.198208
0.197059
0.195948
0.194871
0.193829
0.19282
0.191842
0.190895
0.189977
0.189087
0.188223
0.187386
0.186574
0.185786
0.185022
0.18428
0.183559
0.18286
0.18218
0.18152
0.180879
0.180257
0.179652
0.179064
0.178493
0.177938
0.177398
0.176874
0.176364
0.175869
0.175387
0.174919
0.199395
0.198208
0.197059
0.195948
0.194871
0.193829
0.19282
0.191842
0.190895
0.189976
0.189086
0.188223
0.187386
0.186574
0.185786
0.185021
0.184279
0.183559
0.182859
0.18218
0.18152
0.180879
0.180256
0.179651
0.179063
0.178492
0.177936
0.177397
0.176872
0.176362
0.175866
0.175384
0.174915
0.199395
0.198208
0.197059
0.195947
0.194871
0.193829
0.19282
0.191842
0.190894
0.189976
0.189086
0.188223
0.187386
0.186573
0.185786
0.185021
0.184279
0.183558
0.182858
0.182179
0.181519
0.180878
0.180255
0.17965
0.179062
0.17849
0.177935
0.177395
0.17687
0.176359
0.175863
0.17538
0.17491
0.199395
0.198208
0.197059
0.195947
0.194871
0.193829
0.192819
0.191842
0.190894
0.189976
0.189086
0.188222
0.187385
0.186573
0.185785
0.18502
0.184278
0.183558
0.182858
0.182179
0.181519
0.180877
0.180255
0.179649
0.179061
0.178489
0.177934
0.177393
0.176868
0.176357
0.17586
0.175377
0.174907
0.199395
0.198208
0.197059
0.195947
0.194871
0.193829
0.192819
0.191841
0.190894
0.189976
0.189085
0.188222
0.187385
0.186573
0.185785
0.18502
0.184278
0.183557
0.182858
0.182178
0.181518
0.180877
0.180254
0.179649
0.17906
0.178488
0.177932
0.177392
0.176866
0.176355
0.175858
0.175374
0.174903
0.199395
0.198208
0.197059
0.195947
0.194871
0.193829
0.192819
0.191841
0.190894
0.189975
0.189085
0.188222
0.187385
0.186573
0.185785
0.18502
0.184278
0.183557
0.182857
0.182178
0.181518
0.180876
0.180253
0.179648
0.179059
0.178487
0.177931
0.17739
0.176864
0.176353
0.175855
0.175371
0.1749
0.199395
0.198208
0.197059
0.195947
0.194871
0.193829
0.192819
0.191841
0.190894
0.189975
0.189085
0.188222
0.187385
0.186573
0.185785
0.18502
0.184278
0.183557
0.182857
0.182178
0.181517
0.180876
0.180253
0.179647
0.179059
0.178486
0.17793
0.177389
0.176863
0.176351
0.175853
0.175368
0.174897
0.199395
0.198208
0.197059
0.195947
0.194871
0.193828
0.192819
0.191841
0.190894
0.189975
0.189085
0.188222
0.187385
0.186572
0.185784
0.18502
0.184277
0.183557
0.182857
0.182177
0.181517
0.180876
0.180252
0.179647
0.179058
0.178485
0.177929
0.177388
0.176861
0.176349
0.175851
0.175366
0.174894
0.199395
0.198208
0.197059
0.195947
0.194871
0.193828
0.192819
0.191841
0.190894
0.189975
0.189085
0.188222
0.187385
0.186572
0.185784
0.18502
0.184277
0.183557
0.182857
0.182177
0.181517
0.180875
0.180252
0.179646
0.179057
0.178485
0.177928
0.177387
0.17686
0.176348
0.175849
0.175364
0.174892
0.199395
0.198208
0.197059
0.195947
0.194871
0.193828
0.192819
0.191841
0.190894
0.189975
0.189085
0.188222
0.187385
0.186572
0.185784
0.18502
0.184277
0.183557
0.182857
0.182177
0.181517
0.180875
0.180252
0.179646
0.179057
0.178484
0.177927
0.177386
0.176859
0.176346
0.175847
0.175362
0.17489
0.199395
0.198208
0.197059
0.195947
0.194871
0.193828
0.192819
0.191841
0.190894
0.189975
0.189085
0.188222
0.187385
0.186573
0.185785
0.18502
0.184278
0.183557
0.182857
0.182177
0.181517
0.180875
0.180252
0.179646
0.179056
0.178484
0.177927
0.177385
0.176858
0.176345
0.175846
0.175361
0.174888
0.199395
0.198208
0.197059
0.195947
0.194871
0.193828
0.192819
0.191841
0.190894
0.189975
0.189085
0.188222
0.187385
0.186573
0.185785
0.18502
0.184278
0.183557
0.182857
0.182177
0.181517
0.180875
0.180252
0.179646
0.179056
0.178483
0.177926
0.177384
0.176857
0.176344
0.175845
0.175359
0.174887
0.199395
0.198208
0.197059
0.195947
0.194871
0.193828
0.192819
0.191841
0.190894
0.189976
0.189085
0.188222
0.187385
0.186573
0.185785
0.185021
0.184278
0.183558
0.182858
0.182178
0.181518
0.180876
0.180252
0.179646
0.179057
0.178484
0.177927
0.177385
0.176857
0.176344
0.175845
0.175359
0.174886
0.199395
0.198208
0.197059
0.195947
0.194871
0.193829
0.192819
0.191841
0.190894
0.189976
0.189086
0.188223
0.187386
0.186574
0.185786
0.185022
0.184279
0.183559
0.182859
0.182179
0.181519
0.180877
0.180253
0.179647
0.179058
0.178484
0.177927
0.177385
0.176857
0.176343
0.175844
0.175357
0.174883
0.199395
0.198208
0.197059
0.195947
0.194871
0.193829
0.19282
0.191843
0.190896
0.189978
0.189089
0.188227
0.18739
0.186579
0.185792
0.185027
0.184286
0.183565
0.182865
0.182185
0.181524
0.180882
0.180258
0.179651
0.17906
0.178486
0.177927
0.177383
0.176853
0.176338
0.175836
0.175348
0.174872
0.199395
0.198208
0.197059
0.195948
0.194872
0.193831
0.192824
0.191848
0.190902
0.189986
0.189098
0.188236
0.187401
0.186589
0.185802
0.185037
0.184294
0.183572
0.182871
0.182188
0.181525
0.180879
0.180251
0.17964
0.179045
0.178466
0.177902
0.177352
0.176817
0.176295
0.175787
0.175291
0.174808
0.199395
0.198209
0.197062
0.195955
0.194886
0.193854
0.192854
0.191885
0.190946
0.190033
0.189147
0.188286
0.187448
0.186633
0.18584
0.185068
0.184317
0.183585
0.182872
0.182178
0.181501
0.180842
0.1802
0.179573
0.178963
0.178367
0.177786
0.17722
0.176667
0.176128
0.175602
0.175088
0.174587
0.199395
0.198223
0.197106
0.196031
0.194987
0.19397
0.192976
0.192007
0.19106
0.190136
0.189233
0.188352
0.187493
0.186654
0.185835
0.185036
0.184257
0.183496
0.182753
0.182028
0.181321
0.18063
0.179956
0.179297
0.178654
0.178026
0.177412
0.176813
0.176227
0.175655
0.175096
0.17455
0.174016
0.19941
0.198319
0.197296
0.196301
0.195311
0.194321
0.193331
0.192349
0.191378
0.190422
0.189485
0.188568
0.187671
0.186797
0.185943
0.185111
0.184299
0.183508
0.182735
0.181981
0.181246
0.180528
0.179826
0.179141
0.178472
0.177819
0.17718
0.176556
0.175946
0.17535
0.174767
0.174197
0.17364
0.199716
0.199139
0.198469
0.197763
0.19707
0.196417
0.195809
0.195247
0.194729
0.194254
0.193821
0.193427
0.193071
0.192752
0.192466
0.192213
0.19199
0.191795
0.191626
0.191481
0.191359
0.191257
0.191175
0.191111
0.191064
0.191032
0.191014
0.191009
0.191016
0.191034
0.191063
0.191101
0.191148
0.205424
0.216593
0.227629
0.238434
0.248975
0.259243
0.269229
0.278926
0.288327
0.297427
0.30622
0.314707
0.322886
0.330759
0.338328
0.345597
0.352571
0.359255
0.365655
0.371779
0.377635
0.383229
0.38857
0.393667
0.398528
0.403162
0.407577
0.411781
0.415784
0.419592
0.423216
0.426661
0.429939
0.0303285
1.15739
2.5016
3.14371
3.22615
3.06734
2.85175
2.65805
2.50712
2.39397
2.30622
2.23269
2.16607
2.10289
2.04247
1.98589
1.93509
1.89231
1.85949
1.83773
1.8268
1.82506
1.82967
1.83715
1.84416
1.84802
1.84712
1.84111
1.83082
1.81801
1.80493
1.79367
1.78569
1.78148
1.78047
1.78124
1.78177
1.77987
1.77352
1.76122
1.74225
1.71679
1.6861
1.6524
1.61886
1.58928
1.56769
1.55755
1.56075
1.57673
1.6021
1.63128
1.65775
1.67545
1.67975
1.66786
1.63873
1.59276
1.53143
1.45697
1.37214
1.28008
1.18413
1.08777
0.994448
0.90749
0.829979
0.764627
0.713646
0.67857
0.660015
0.657449
0.669098
0.69214
0.723152
0.758624
0.795361
0.830709
0.862623
0.88965
0.910872
0.925829
0.934444
0.936933
0.933727
0.925396
0.912593
0.896003
0.876315
0.854205
0.830328
0.805313
0.779772
0.754282
0.729378
0.705502
0.683109
0.662956
0.644924
0.637929
0.175516
0.203863
0.760261
1.51783
2.00073
2.1614
2.14079
2.0546
1.96041
1.87941
1.81466
1.7622
1.71738
1.67742
1.64142
1.60977
1.58358
1.56439
1.55373
1.55248
1.56034
1.57549
1.59476
1.61415
1.62979
1.63866
1.63917
1.63142
1.61701
1.59863
1.57943
1.56231
1.54926
1.54109
1.53734
1.53652
1.53645
1.53469
1.529
1.51765
1.49967
1.47508
1.44491
1.41117
1.37679
1.34534
1.32076
1.30666
1.30546
1.3174
1.33998
1.36819
1.39567
1.41614
1.42451
1.41752
1.39375
1.35337
1.29777
1.22922
1.15058
1.06509
0.976182
0.887334
0.801927
0.72309
0.653573
0.595655
0.551088
0.521047
0.506029
0.505676
0.518636
0.542612
0.574656
0.611591
0.650391
0.688433
0.72361
0.754354
0.779618
0.798818
0.811768
0.8186
0.819684
0.815548
0.806822
0.79418
0.778312
0.759901
0.739613
0.718095
0.695975
0.673855
0.652291
0.631762
0.612727
0.596097
0.581277
0.579921
0.197784
0.141158
0.176585
0.44403
0.810371
1.09089
1.23785
1.28265
1.27044
1.23369
1.19129
1.15308
1.12325
1.10264
1.09044
1.08549
1.08705
1.09511
1.11016
1.13264
1.16224
1.19728
1.23466
1.2702
1.29961
1.31948
1.32802
1.32541
1.31366
1.2961
1.27654
1.25856
1.24474
1.23633
1.23318
1.23389
1.2363
1.23786
1.23616
1.22923
1.21592
1.19596
1.17012
1.14008
1.10836
1.07815
1.053
1.03646
1.03133
1.03877
1.05753
1.08373
1.11167
1.13515
1.14874
1.14864
1.13291
1.10133
1.05504
0.996221
0.927713
0.852779
0.77487
0.697418
0.623635
0.556332
0.497765
0.449574
0.41283
0.388151
0.375801
0.375637
0.386951
0.408331
0.437705
0.472575
0.510323
0.548479
0.584904
0.61789
0.646195
0.669032
0.686028
0.697154
0.702654
0.702962
0.698639
0.690315
0.678651
0.664317
0.64797
0.630258
0.611812
0.593241
0.57512
0.557957
0.542205
0.528897
0.516922
0.519981
0.186618
0.171911
0.154885
0.179639
0.278155
0.413813
0.534267
0.615099
0.654699
0.662812
0.65165
0.6318
0.611189
0.595098
0.586471
0.586414
0.594876
0.611365
0.635456
0.666887
0.705207
0.749131
0.796034
0.841986
0.882487
0.913584
0.932872
0.940029
0.936758
0.926261
0.912448
0.899096
0.889153
0.884289
0.884763
0.889563
0.896756
0.90394
0.908696
0.908985
0.903451
0.891599
0.87385
0.851492
0.826548
0.801598
0.779582
0.763553
0.756278
0.759585
0.773551
0.795956
0.822454
0.847535
0.865812
0.87307
0.866796
0.846229
0.812116
0.766359
0.711657
0.651182
0.588282
0.526211
0.467865
0.415555
0.370875
0.334699
0.30734
0.288804
0.279037
0.278011
0.285612
0.3014
0.324433
0.353246
0.385981
0.420603
0.455118
0.487749
0.517061
0.542017
0.56198
0.576686
0.586172
0.590709
0.590731
0.586774
0.579435
0.569332
0.557091
0.543334
0.528678
0.513722
0.49904
0.485162
0.472523
0.462247
0.452716
0.458901
0.17768
0.175796
0.168426
0.165413
0.177696
0.207612
0.246733
0.284009
0.312147
0.328526
0.334121
0.331941
0.325528
0.318067
0.312008
0.309008
0.31006
0.315714
0.326304
0.342115
0.363371
0.389976
0.421066
0.454624
0.487562
0.516392
0.538218
0.551575
0.556749
0.555549
0.550709
0.545189
0.54156
0.541561
0.545875
0.554115
0.565002
0.576682
0.587099
0.594377
0.597122
0.594633
0.586981
0.574968
0.56
0.543911
0.528786
0.516821
0.510172
0.510674
0.519318
0.535611
0.557206
0.580192
0.600003
0.612499
0.614766
0.605459
0.584757
0.554091
0.515788
0.472692
0.427798
0.383908
0.343334
0.3077
0.277887
0.25413
0.236242
0.223891
0.216844
0.215089
0.218798
0.22815
0.243099
0.263213
0.287615
0.315046
0.343997
0.372889
0.400254
0.424868
0.445834
0.462603
0.474943
0.482891
0.486689
0.486721
0.483464
0.477447
0.469226
0.459371
0.448451
0.437036
0.425677
0.414907
0.405132
0.397528
0.390046
0.398035
0.174454
0.174267
0.172501
0.170183
0.17034
0.174925
0.183467
0.193833
0.203615
0.211145
0.215679
0.217312
0.216722
0.214837
0.212581
0.210723
0.209829
0.210282
0.212346
0.21623
0.222129
0.230196
0.240419
0.252433
0.265383
0.277984
0.288836
0.296855
0.301609
0.303414
0.303199
0.302233
0.301843
0.303149
0.306872
0.313202
0.321756
0.331644
0.341649
0.350462
0.356946
0.360343
0.360398
0.357373
0.351962
0.345159
0.338119
0.332059
0.328211
0.327785
0.331812
0.340785
0.354204
0.370309
0.386307
0.399047
0.405822
0.404948
0.395998
0.379711
0.357717
0.332152
0.305267
0.279083
0.255137
0.234375
0.217187
0.203541
0.193175
0.185781
0.181158
0.179298
0.1804
0.184791
0.192783
0.204524
0.219886
0.238409
0.259306
0.281534
0.303918
0.325305
0.344692
0.361317
0.374691
0.384589
0.391015
0.394145
0.394289
0.391837
0.387236
0.380964
0.373517
0.365401
0.35712
0.349181
0.341946
0.336599
0.330807
0.339304
0.173771
0.173435
0.172829
0.171879
0.171131
0.171289
0.172615
0.174834
0.17737
0.17965
0.181294
0.182125
0.18218
0.181644
0.180781
0.17986
0.179111
0.178706
0.178763
0.179358
0.180544
0.182349
0.184767
0.187714
0.190999
0.194317
0.197304
0.199631
0.201105
0.201726
0.20168
0.2013
0.201
0.2012
0.202261
0.204411
0.207693
0.21193
0.216738
0.221592
0.225929
0.22927
0.231315
0.231995
0.231463
0.230047
0.228175
0.226324
0.224994
0.224717
0.226051
0.229491
0.235263
0.24305
0.251854
0.260119
0.266139
0.268527
0.266573
0.260357
0.250631
0.238572
0.225476
0.212503
0.200516
0.190029
0.181246
0.174151
0.168611
0.164465
0.161608
0.16004
0.159896
0.161428
0.164951
0.170751
0.179005
0.189709
0.202636
0.21732
0.233091
0.249146
0.264655
0.27886
0.291159
0.301139
0.30859
0.313476
0.315909
0.316113
0.314387
0.311086
0.306601
0.301346
0.295745
0.29025
0.285164
0.281618
0.277214
0.285059
0.173851
0.17337
0.172872
0.172291
0.171673
0.171171
0.170922
0.170952
0.171171
0.171429
0.171593
0.171567
0.171313
0.170852
0.170248
0.169584
0.168946
0.168403
0.168009
0.167794
0.167776
0.167957
0.168322
0.168839
0.169446
0.170062
0.170588
0.170937
0.171051
0.170915
0.170567
0.17009
0.1696
0.169235
0.16913
0.169396
0.170095
0.171222
0.172696
0.174369
0.176057
0.177573
0.178766
0.179551
0.179914
0.17991
0.179643
0.179246
0.17887
0.178691
0.178915
0.179771
0.181465
0.184063
0.187381
0.190936
0.19403
0.195945
0.196156
0.194479
0.191085
0.186409
0.18101
0.175425
0.170083
0.165261
0.161094
0.157609
0.154766
0.152504
0.150777
0.149585
0.149002
0.149176
0.150322
0.152677
0.15646
0.161812
0.168761
0.177187
0.186819
0.19724
0.207939
0.218366
0.228002
0.236413
0.243289
0.248451
0.251851
0.25355
0.253698
0.25251
0.250253
0.247229
0.243762
0.24022
0.236832
0.234606
0.231342
0.237684
0.17408
0.17354
0.173016
0.172484
0.171927
0.171358
0.170808
0.170303
0.169849
0.169422
0.168992
0.168526
0.168005
0.167423
0.166793
0.166138
0.165489
0.164872
0.164312
0.163825
0.163419
0.163094
0.162843
0.162653
0.162498
0.16235
0.162175
0.161944
0.161634
0.161235
0.160752
0.160208
0.159639
0.159096
0.158634
0.158305
0.158147
0.158178
0.158385
0.15873
0.159155
0.159593
0.159981
0.160272
0.160438
0.160471
0.160382
0.160198
0.159951
0.15969
0.159478
0.159399
0.159549
0.160006
0.16078
0.161774
0.162777
0.16352
0.163753
0.163321
0.162207
0.160519
0.158443
0.156188
0.153939
0.151826
0.149926
0.148263
0.146826
0.145592
0.144537
0.14366
0.142993
0.142612
0.14264
0.143232
0.144555
0.14676
0.14995
0.154151
0.159296
0.165219
0.171665
0.178318
0.184833
0.190879
0.196172
0.200502
0.203741
0.205846
0.206849
0.206848
0.205992
0.204471
0.202505
0.200364
0.198201
0.196839
0.194492
0.198939
0.174269
0.173708
0.173162
0.172621
0.172071
0.171499
0.170906
0.170298
0.169683
0.169064
0.168442
0.16781
0.167163
0.1665
0.165822
0.165137
0.164454
0.163786
0.163143
0.162534
0.161966
0.161442
0.160961
0.160515
0.160096
0.15969
0.159281
0.158855
0.1584
0.157905
0.157367
0.156793
0.156193
0.155589
0.155008
0.154477
0.154021
0.153657
0.153389
0.15321
0.153102
0.15304
0.152995
0.15294
0.152854
0.152719
0.152525
0.152266
0.151944
0.151565
0.151148
0.150721
0.150326
0.150008
0.149803
0.149713
0.149698
0.149681
0.149568
0.149286
0.148797
0.148112
0.147278
0.14636
0.145422
0.144514
0.143662
0.142874
0.14214
0.141443
0.140769
0.140111
0.139479
0.138911
0.138468
0.138239
0.13833
0.138856
0.139918
0.141587
0.143884
0.146769
0.150142
0.153846
0.157688
0.161457
0.16495
0.167993
0.170454
0.17225
0.173354
0.173785
0.173608
0.172924
0.171862
0.1706
0.169227
0.168353
0.166704
0.169343
0.174382
0.173814
0.173255
0.172702
0.172144
0.171571
0.170977
0.170361
0.169724
0.169072
0.168409
0.167736
0.167054
0.166365
0.16567
0.164971
0.164272
0.16358
0.1629
0.162238
0.1616
0.16099
0.16041
0.159858
0.15933
0.15882
0.158318
0.157814
0.157299
0.156763
0.156201
0.155613
0.155001
0.154377
0.153753
0.153148
0.152579
0.152058
0.151595
0.151193
0.150846
0.150544
0.150273
0.150016
0.149757
0.149477
0.149163
0.148802
0.148387
0.147912
0.147382
0.146806
0.146205
0.145606
0.145037
0.144522
0.144067
0.143666
0.143296
0.142932
0.142554
0.142154
0.141735
0.141309
0.140888
0.140478
0.140081
0.139686
0.139282
0.138851
0.138377
0.137853
0.137279
0.136669
0.136054
0.13548
0.135008
0.134712
0.134666
0.134939
0.135578
0.136601
0.137988
0.139677
0.141576
0.143568
0.145525
0.147327
0.148868
0.150069
0.150881
0.151287
0.151304
0.150972
0.150359
0.149569
0.148647
0.148001
0.146836
0.14806
0.174433
0.17386
0.173293
0.17273
0.172164
0.171588
0.170996
0.170386
0.169757
0.169111
0.168452
0.167782
0.167103
0.166418
0.165727
0.165032
0.164336
0.163641
0.162953
0.162275
0.161611
0.160968
0.160346
0.159748
0.159172
0.158615
0.15807
0.15753
0.156986
0.15643
0.155856
0.155262
0.154648
0.154019
0.153383
0.152753
0.152139
0.151555
0.151008
0.150503
0.150041
0.149617
0.149222
0.148846
0.148475
0.148094
0.147689
0.147247
0.146759
0.146217
0.14562
0.144975
0.144292
0.143589
0.142888
0.142212
0.141581
0.141006
0.140492
0.140038
0.139638
0.139286
0.138974
0.138697
0.138447
0.138214
0.137986
0.137745
0.137475
0.137157
0.136777
0.136324
0.135794
0.13519
0.134527
0.133829
0.133128
0.132468
0.131895
0.131461
0.131211
0.131177
0.131375
0.131795
0.132405
0.133151
0.133963
0.134768
0.135493
0.136077
0.136471
0.136648
0.136599
0.136335
0.135881
0.135294
0.134594
0.134024
0.133157
0.133422
0.174446
0.173868
0.173295
0.172723
0.172149
0.171569
0.170978
0.170372
0.169752
0.169118
0.168471
0.167814
0.167148
0.166475
0.165796
0.165113
0.164428
0.163742
0.163059
0.162382
0.161715
0.161061
0.160425
0.159809
0.159211
0.158631
0.158064
0.157504
0.156944
0.156377
0.155798
0.155202
0.15459
0.153964
0.153328
0.152693
0.152066
0.151457
0.150873
0.150319
0.149798
0.149308
0.148842
0.148393
0.14795
0.147501
0.147032
0.146533
0.145994
0.145409
0.144776
0.144097
0.143382
0.142644
0.1419
0.14117
0.140473
0.139826
0.139242
0.138727
0.138284
0.137909
0.137596
0.137335
0.137112
0.136914
0.136721
0.136517
0.136281
0.135996
0.135646
0.135222
0.134715
0.134127
0.133461
0.13273
0.131952
0.131152
0.130357
0.129601
0.128917
0.128334
0.127877
0.127558
0.127373
0.127309
0.127334
0.127412
0.127499
0.127554
0.12754
0.127429
0.127206
0.126865
0.126411
0.125871
0.125249
0.124676
0.123967
0.123635
0.174441
0.173859
0.173279
0.1727
0.172119
0.171534
0.17094
0.170336
0.169722
0.169096
0.168459
0.167814
0.16716
0.166499
0.165833
0.165163
0.164489
0.163815
0.163141
0.162471
0.161808
0.161156
0.160516
0.159893
0.159285
0.158692
0.158112
0.15754
0.156969
0.156395
0.155812
0.155217
0.154608
0.153987
0.153357
0.152725
0.152097
0.15148
0.15088
0.150303
0.149751
0.149222
0.148713
0.148218
0.147728
0.147232
0.146721
0.146183
0.145612
0.145001
0.144348
0.143657
0.142933
0.142188
0.141435
0.140693
0.139977
0.139305
0.138688
0.138137
0.137657
0.137245
0.136898
0.136606
0.136357
0.136134
0.13592
0.135697
0.135447
0.135153
0.134801
0.134378
0.133879
0.1333
0.132643
0.131913
0.131122
0.130281
0.12941
0.128528
0.127658
0.126821
0.126038
0.125326
0.124694
0.124145
0.123672
0.123261
0.122891
0.122539
0.122182
0.1218
0.121375
0.1209
0.120369
0.11979
0.119164
0.118549
0.117901
0.11721
0.17443
0.173844
0.173258
0.172673
0.172086
0.171495
0.170898
0.170294
0.169681
0.16906
0.16843
0.167792
0.167147
0.166496
0.16584
0.16518
0.164517
0.163852
0.163187
0.162525
0.161868
0.161219
0.16058
0.159953
0.15934
0.158739
0.158149
0.157567
0.156988
0.156407
0.155821
0.155226
0.15462
0.154004
0.153381
0.152754
0.152129
0.151511
0.150906
0.150317
0.149747
0.149195
0.148658
0.148132
0.147609
0.147082
0.146542
0.145979
0.145388
0.144763
0.144103
0.143409
0.142688
0.141948
0.141202
0.140464
0.139748
0.139069
0.138439
0.137867
0.137358
0.136912
0.136526
0.136192
0.135898
0.135631
0.135375
0.135113
0.134829
0.134506
0.134133
0.133698
0.133195
0.132619
0.131969
0.13125
0.130466
0.129627
0.128742
0.127826
0.126892
0.125955
0.125032
0.124135
0.123278
0.122468
0.121708
0.120997
0.120329
0.119695
0.119081
0.118477
0.11787
0.117252
0.116617
0.115964
0.115291
0.114614
0.113971
0.113056
0.17442
0.173829
0.173239
0.172648
0.172055
0.171459
0.170859
0.170253
0.16964
0.169021
0.168395
0.167762
0.167123
0.166478
0.165829
0.165176
0.164521
0.163863
0.163206
0.16255
0.161898
0.161251
0.160613
0.159984
0.159366
0.158759
0.15816
0.157569
0.156982
0.156395
0.155804
0.155208
0.154603
0.153991
0.153373
0.152752
0.152131
0.151514
0.150907
0.150312
0.14973
0.149163
0.148607
0.148059
0.147514
0.146965
0.146404
0.145825
0.145221
0.14459
0.143928
0.143239
0.142526
0.141797
0.141063
0.140335
0.139627
0.13895
0.138314
0.137729
0.137199
0.136724
0.136302
0.135927
0.135589
0.135275
0.134972
0.134665
0.13434
0.133983
0.133582
0.133127
0.132612
0.132033
0.131388
0.130678
0.129908
0.129082
0.128208
0.127295
0.126353
0.125391
0.124421
0.123454
0.122499
0.121566
0.12066
0.119786
0.118944
0.118133
0.117348
0.116585
0.115836
0.115096
0.11436
0.113625
0.11289
0.112147
0.111478
0.110414
0.17441
0.173816
0.173222
0.172626
0.172029
0.171429
0.170826
0.170217
0.169604
0.168985
0.16836
0.16773
0.167095
0.166455
0.165811
0.165163
0.164512
0.16386
0.163208
0.162556
0.161907
0.161263
0.160624
0.159993
0.159371
0.158757
0.158151
0.157551
0.156956
0.156361
0.155765
0.155166
0.154561
0.15395
0.153335
0.152717
0.152099
0.151484
0.150876
0.150276
0.149687
0.149108
0.148539
0.147975
0.147413
0.146847
0.146272
0.145682
0.145071
0.144437
0.143777
0.143094
0.142392
0.141676
0.140956
0.140241
0.139542
0.13887
0.138234
0.13764
0.137094
0.136596
0.136143
0.135731
0.135352
0.134995
0.134647
0.134297
0.133932
0.133539
0.133109
0.132632
0.132103
0.131516
0.130872
0.130169
0.129411
0.128601
0.127744
0.126848
0.125918
0.124963
0.123989
0.123007
0.122022
0.121043
0.120075
0.119125
0.118194
0.117286
0.1164
0.115536
0.11469
0.11386
0.113044
0.112238
0.111444
0.110641
0.109937
0.108767
0.174402
0.173805
0.173208
0.172609
0.172008
0.171405
0.170798
0.170188
0.169573
0.168954
0.16833
0.167701
0.167068
0.166431
0.16579
0.165145
0.164499
0.16385
0.163201
0.162552
0.161905
0.161261
0.160622
0.159989
0.159362
0.158742
0.158129
0.157521
0.156917
0.156315
0.155713
0.155109
0.154502
0.153891
0.153276
0.15266
0.152043
0.151429
0.150819
0.150216
0.14962
0.149033
0.148452
0.147876
0.147301
0.146723
0.146137
0.145538
0.144923
0.144288
0.143632
0.142956
0.142265
0.141562
0.140855
0.140153
0.139465
0.138799
0.138163
0.137564
0.137006
0.136488
0.13601
0.135567
0.135151
0.134756
0.134369
0.133979
0.133577
0.133152
0.132693
0.132194
0.131649
0.131053
0.130406
0.129707
0.128958
0.128161
0.127322
0.126444
0.125534
0.124596
0.123637
0.122663
0.12168
0.120693
0.119709
0.118732
0.117765
0.116812
0.115875
0.114955
0.114052
0.113165
0.112293
0.111435
0.110593
0.109742
0.109003
0.107756
0.174395
0.173796
0.173196
0.172595
0.171991
0.171385
0.170776
0.170164
0.169548
0.168928
0.168304
0.167676
0.167044
0.166408
0.165769
0.165127
0.164483
0.163837
0.16319
0.162543
0.161897
0.161253
0.160613
0.159977
0.159346
0.158721
0.158101
0.157486
0.156874
0.156265
0.155656
0.155047
0.154435
0.153822
0.153207
0.15259
0.151973
0.151358
0.150746
0.150139
0.149538
0.148944
0.148354
0.147768
0.147182
0.146594
0.145999
0.145394
0.144775
0.14414
0.143488
0.14282
0.142138
0.141447
0.140753
0.140063
0.139384
0.138724
0.138091
0.137488
0.136919
0.136385
0.135885
0.135416
0.13497
0.134541
0.134119
0.133695
0.13326
0.132805
0.13232
0.1318
0.131239
0.130633
0.129982
0.129284
0.128541
0.127755
0.12693
0.12607
0.125178
0.12426
0.12332
0.122363
0.121394
0.120417
0.119438
0.118459
0.117485
0.116518
0.115561
0.114616
0.113684
0.112765
0.111861
0.110968
0.110093
0.109208
0.108441
0.107139
0.174388
0.173788
0.173186
0.172583
0.171977
0.171369
0.170758
0.170144
0.169527
0.168906
0.168282
0.167654
0.167023
0.166388
0.165751
0.16511
0.164467
0.163823
0.163177
0.162531
0.161886
0.161242
0.1606
0.159962
0.159327
0.158697
0.158071
0.157449
0.15683
0.156214
0.155599
0.154984
0.154368
0.153751
0.153133
0.152515
0.151896
0.15128
0.150665
0.150055
0.149449
0.148847
0.14825
0.147655
0.147061
0.146464
0.145862
0.145251
0.144629
0.143995
0.143346
0.142684
0.142011
0.141331
0.140647
0.139968
0.139298
0.138644
0.138012
0.137406
0.136829
0.136283
0.135764
0.135272
0.1348
0.134342
0.13389
0.133436
0.132972
0.13249
0.131982
0.131442
0.130866
0.13025
0.129593
0.128895
0.128155
0.127378
0.126564
0.125717
0.124842
0.123942
0.12302
0.122082
0.12113
0.120169
0.119203
0.118233
0.117265
0.1163
0.115341
0.114389
0.113446
0.112514
0.111592
0.110681
0.109785