/*--------------------------------*- C++ -*----------------------------------*\
  =========                 |
  \\      /  F ield         | OpenFOAM: The Open Source CFD Toolbox
   \\    /   O peration     | Website:  https://openfoam.org
    \\  /    A nd           | Version:  10
     \\/     M anipulation  |
\*---------------------------------------------------------------------------*/
FoamFile
{
    format      ascii;
    class       volScalarField;
    location    "1000";
    object      nut;
}
// * * * * * * * * * * * * * * * * * * * * * * * * * * * * * * * * * * * * * //

dimensions      [0 2 -1 0 0 0 0];

internalField   nonuniform List<scalar> 
6820
(
0.000149811
0.000146298
0.000143078
0.000139851
0.000136611
0.000133451
0.000130462
0.0001277
0.000125196
0.000122958
0.000120979
0.000119246
0.000117742
0.000116448
0.000115344
0.000114412
0.000113634
0.000112995
0.000112481
0.000112077
0.000111772
0.000111555
0.000111416
0.000111349
0.000111344
0.000111394
0.000111503
0.000111662
0.000111711
0.000112344
0.000109301
0.000138083
0.000220441
0.000736676
0.000548082
0.000464564
0.000414413
0.000380706
0.000356879
0.000339449
0.000326297
0.000316079
0.00030793
0.000301277
0.000295735
0.000291038
0.000286996
0.000283474
0.000280371
0.000277613
0.000275141
0.00027291
0.000270886
0.000269039
0.000267346
0.000265788
0.00026435
0.00026302
0.000261785
0.00026064
0.00025961
0.00025846
0.000257927
0.000258069
0.000247924
0.00028091
0.000977663
0.00087382
0.000783688
0.000713291
0.00065903
0.000616596
0.000582669
0.000554922
0.000531758
0.00051208
0.000495115
0.000480307
0.000467247
0.000455625
0.000445202
0.000435791
0.000427245
0.000419443
0.000412287
0.000405695
0.000399598
0.00039394
0.000388667
0.000383737
0.000379109
0.000374745
0.000370607
0.000366684
0.000362838
0.000358993
0.000356739
0.000351574
0.00033425
0.0010135
0.000988678
0.000949903
0.000906235
0.000863743
0.000825006
0.000790615
0.000760315
0.000733585
0.000709886
0.000688738
0.000669738
0.000652557
0.000636925
0.000622625
0.000609476
0.000597331
0.000586065
0.000575577
0.000565777
0.000556592
0.000547957
0.000539815
0.000532116
0.000524815
0.000517868
0.000511235
0.000504885
0.000498758
0.000492698
0.00048722
0.000483969
0.000465925
0.00101667
0.00101251
0.00100235
0.000986315
0.000966156
0.000943881
0.00092106
0.000898686
0.000877292
0.000857114
0.000838219
0.00082058
0.000804125
0.000788765
0.000774407
0.000760958
0.000748335
0.00073646
0.000725263
0.00071468
0.000704655
0.000695138
0.000686081
0.000677442
0.000669182
0.000661262
0.000653647
0.000646303
0.000639189
0.000632236
0.000625459
0.000619913
0.000611473
0.00101674
0.0010159
0.00101373
0.00100941
0.00100264
0.000993621
0.000982833
0.000970846
0.000958167
0.000945199
0.000932229
0.000919454
0.000906999
0.000894939
0.000883312
0.000872135
0.000861408
0.000851122
0.00084126
0.000831803
0.00082273
0.000814016
0.000805638
0.000797573
0.000789797
0.000782286
0.000775014
0.000767956
0.000761085
0.00075437
0.00074778
0.000741541
0.000735347
0.00101671
0.00101621
0.00101554
0.00101439
0.00101245
0.00100952
0.00100552
0.00100052
0.000994651
0.000988086
0.000981001
0.000973558
0.000965892
0.000958114
0.000950308
0.000942541
0.000934861
0.000927302
0.000919888
0.000912636
0.000905554
0.000898646
0.000891912
0.00088535
0.000878952
0.000872712
0.00086662
0.000860663
0.000854828
0.000849104
0.000843477
0.000837968
0.000832625
0.0010167
0.00101622
0.00101574
0.0010152
0.00101449
0.0010135
0.00101213
0.00101031
0.001008
0.00100521
0.00100198
0.000998364
0.000994413
0.000990191
0.000985758
0.000981165
0.000976458
0.000971678
0.000966856
0.000962019
0.000957189
0.000952382
0.000947613
0.000942889
0.000938218
0.000933604
0.000929048
0.000924549
0.000920108
0.000915723
0.000911396
0.000907126
0.00090294
0.0010167
0.00101621
0.00101574
0.00101528
0.00101481
0.00101429
0.00101367
0.00101292
0.00101199
0.00101086
0.0010095
0.00100791
0.0010061
0.00100408
0.00100187
0.00099949
0.00099696
0.000994304
0.000991542
0.000988695
0.000985779
0.000982811
0.000979804
0.000976769
0.000973717
0.000970654
0.000967589
0.000964527
0.000961473
0.000958432
0.000955412
0.000952417
0.000949461
0.0010167
0.00101621
0.00101574
0.00101528
0.00101484
0.0010144
0.00101395
0.00101348
0.00101296
0.00101239
0.00101174
0.001011
0.00101015
0.00100921
0.00100815
0.00100699
0.00100573
0.00100437
0.00100292
0.00100139
0.000999784
0.000998117
0.000996394
0.000994622
0.000992808
0.000990959
0.000989082
0.000987183
0.000985268
0.000983343
0.000981416
0.000979495
0.000977588
0.0010167
0.00101621
0.00101574
0.00101528
0.00101484
0.0010144
0.00101398
0.00101356
0.00101315
0.00101272
0.00101229
0.00101182
0.00101133
0.00101081
0.00101024
0.00100962
0.00100896
0.00100825
0.00100749
0.00100668
0.00100582
0.00100492
0.00100398
0.001003
0.00100198
0.00100093
0.000999853
0.000998752
0.000997632
0.000996498
0.000995355
0.000994209
0.000993067
0.0010167
0.00101621
0.00101574
0.00101528
0.00101483
0.0010144
0.00101398
0.00101357
0.00101317
0.00101278
0.00101239
0.001012
0.00101162
0.00101122
0.00101082
0.00101041
0.00100999
0.00100954
0.00100908
0.0010086
0.0010081
0.00100758
0.00100704
0.00100648
0.00100589
0.00100529
0.00100468
0.00100405
0.0010034
0.00100275
0.00100209
0.00100143
0.00100078
0.0010167
0.00101621
0.00101574
0.00101528
0.00101483
0.0010144
0.00101398
0.00101357
0.00101317
0.00101278
0.0010124
0.00101203
0.00101167
0.00101131
0.00101096
0.00101061
0.00101026
0.00100991
0.00100956
0.00100921
0.00100885
0.00100849
0.00100812
0.00100775
0.00100737
0.00100698
0.00100659
0.0010062
0.00100581
0.00100541
0.00100501
0.00100462
0.00100422
0.0010167
0.00101621
0.00101574
0.00101528
0.00101483
0.0010144
0.00101398
0.00101357
0.00101317
0.00101278
0.0010124
0.00101203
0.00101167
0.00101132
0.00101098
0.00101064
0.00101032
0.00100999
0.00100968
0.00100936
0.00100906
0.00100875
0.00100845
0.00100815
0.00100785
0.00100756
0.00100727
0.00100698
0.00100669
0.00100641
0.00100613
0.00100586
0.0010056
0.0010167
0.00101621
0.00101574
0.00101528
0.00101483
0.0010144
0.00101397
0.00101356
0.00101316
0.00101277
0.0010124
0.00101203
0.00101167
0.00101132
0.00101098
0.00101065
0.00101032
0.00101001
0.0010097
0.0010094
0.0010091
0.00100882
0.00100853
0.00100826
0.00100799
0.00100773
0.00100747
0.00100722
0.00100698
0.00100674
0.00100651
0.00100629
0.00100607
0.0010167
0.00101621
0.00101574
0.00101528
0.00101483
0.0010144
0.00101397
0.00101356
0.00101316
0.00101277
0.00101239
0.00101203
0.00101167
0.00101132
0.00101098
0.00101064
0.00101032
0.00101001
0.0010097
0.0010094
0.00100911
0.00100883
0.00100855
0.00100828
0.00100802
0.00100777
0.00100752
0.00100728
0.00100705
0.00100683
0.00100661
0.00100641
0.00100621
0.0010167
0.00101621
0.00101574
0.00101528
0.00101483
0.0010144
0.00101397
0.00101356
0.00101316
0.00101277
0.00101239
0.00101202
0.00101166
0.00101131
0.00101097
0.00101064
0.00101032
0.00101
0.0010097
0.0010094
0.00100911
0.00100883
0.00100855
0.00100829
0.00100803
0.00100777
0.00100753
0.00100729
0.00100707
0.00100685
0.00100663
0.00100643
0.00100623
0.0010167
0.00101621
0.00101574
0.00101528
0.00101483
0.00101439
0.00101397
0.00101356
0.00101316
0.00101277
0.00101239
0.00101202
0.00101166
0.00101131
0.00101097
0.00101064
0.00101032
0.00101
0.0010097
0.0010094
0.00100911
0.00100883
0.00100855
0.00100828
0.00100802
0.00100777
0.00100753
0.00100729
0.00100706
0.00100684
0.00100663
0.00100642
0.00100622
0.0010167
0.00101621
0.00101574
0.00101528
0.00101483
0.00101439
0.00101397
0.00101356
0.00101316
0.00101277
0.00101239
0.00101202
0.00101166
0.00101131
0.00101097
0.00101064
0.00101032
0.00101
0.00100969
0.0010094
0.00100911
0.00100882
0.00100855
0.00100828
0.00100802
0.00100777
0.00100753
0.00100729
0.00100706
0.00100684
0.00100662
0.00100641
0.00100621
0.0010167
0.00101621
0.00101574
0.00101528
0.00101483
0.00101439
0.00101397
0.00101356
0.00101316
0.00101277
0.00101239
0.00101202
0.00101166
0.00101131
0.00101097
0.00101064
0.00101031
0.00101
0.00100969
0.0010094
0.00100911
0.00100882
0.00100855
0.00100828
0.00100802
0.00100777
0.00100752
0.00100729
0.00100705
0.00100683
0.00100661
0.0010064
0.0010062
0.0010167
0.00101621
0.00101574
0.00101528
0.00101483
0.00101439
0.00101397
0.00101356
0.00101316
0.00101277
0.00101239
0.00101202
0.00101166
0.00101131
0.00101097
0.00101064
0.00101031
0.00101
0.00100969
0.00100939
0.0010091
0.00100882
0.00100855
0.00100828
0.00100802
0.00100777
0.00100752
0.00100728
0.00100705
0.00100682
0.00100661
0.00100639
0.00100619
0.0010167
0.00101621
0.00101574
0.00101528
0.00101483
0.00101439
0.00101397
0.00101356
0.00101316
0.00101277
0.00101239
0.00101202
0.00101166
0.00101131
0.00101097
0.00101064
0.00101031
0.00101
0.00100969
0.00100939
0.0010091
0.00100882
0.00100855
0.00100828
0.00100802
0.00100776
0.00100752
0.00100728
0.00100705
0.00100682
0.0010066
0.00100638
0.00100618
0.0010167
0.00101621
0.00101574
0.00101528
0.00101483
0.00101439
0.00101397
0.00101356
0.00101316
0.00101277
0.00101239
0.00101202
0.00101166
0.00101131
0.00101097
0.00101064
0.00101031
0.00101
0.00100969
0.00100939
0.0010091
0.00100882
0.00100854
0.00100828
0.00100802
0.00100776
0.00100751
0.00100727
0.00100704
0.00100681
0.00100659
0.00100638
0.00100617
0.0010167
0.00101621
0.00101574
0.00101528
0.00101483
0.00101439
0.00101397
0.00101356
0.00101316
0.00101277
0.00101239
0.00101202
0.00101166
0.00101131
0.00101097
0.00101064
0.00101031
0.00101
0.00100969
0.00100939
0.0010091
0.00100882
0.00100854
0.00100828
0.00100801
0.00100776
0.00100751
0.00100727
0.00100704
0.00100681
0.00100658
0.00100637
0.00100616
0.0010167
0.00101621
0.00101574
0.00101528
0.00101483
0.00101439
0.00101397
0.00101356
0.00101316
0.00101277
0.00101239
0.00101202
0.00101166
0.00101131
0.00101097
0.00101063
0.00101031
0.00101
0.00100969
0.00100939
0.0010091
0.00100882
0.00100854
0.00100827
0.00100801
0.00100776
0.00100751
0.00100727
0.00100703
0.0010068
0.00100658
0.00100636
0.00100615
0.0010167
0.00101621
0.00101574
0.00101528
0.00101483
0.00101439
0.00101397
0.00101356
0.00101316
0.00101277
0.00101239
0.00101202
0.00101166
0.00101131
0.00101097
0.00101063
0.00101031
0.00101
0.00100969
0.00100939
0.0010091
0.00100882
0.00100854
0.00100827
0.00100801
0.00100775
0.00100751
0.00100726
0.00100703
0.0010068
0.00100657
0.00100635
0.00100614
0.0010167
0.00101621
0.00101574
0.00101528
0.00101483
0.00101439
0.00101397
0.00101356
0.00101316
0.00101277
0.00101239
0.00101202
0.00101166
0.00101131
0.00101097
0.00101063
0.00101031
0.00101
0.00100969
0.00100939
0.0010091
0.00100882
0.00100854
0.00100827
0.00100801
0.00100775
0.0010075
0.00100726
0.00100702
0.00100679
0.00100657
0.00100635
0.00100613
0.0010167
0.00101621
0.00101574
0.00101528
0.00101483
0.00101439
0.00101397
0.00101356
0.00101316
0.00101277
0.00101239
0.00101202
0.00101166
0.00101131
0.00101097
0.00101063
0.00101031
0.00101
0.00100969
0.00100939
0.0010091
0.00100882
0.00100854
0.00100827
0.00100801
0.00100775
0.0010075
0.00100726
0.00100702
0.00100679
0.00100656
0.00100634
0.00100613
0.0010167
0.00101621
0.00101574
0.00101528
0.00101483
0.00101439
0.00101397
0.00101356
0.00101316
0.00101277
0.00101239
0.00101202
0.00101166
0.00101131
0.00101097
0.00101063
0.00101031
0.00101
0.00100969
0.00100939
0.0010091
0.00100881
0.00100854
0.00100827
0.00100801
0.00100775
0.0010075
0.00100726
0.00100702
0.00100679
0.00100656
0.00100634
0.00100612
0.0010167
0.00101621
0.00101574
0.00101528
0.00101483
0.00101439
0.00101397
0.00101356
0.00101316
0.00101277
0.00101239
0.00101202
0.00101166
0.00101131
0.00101097
0.00101064
0.00101031
0.00101
0.00100969
0.00100939
0.0010091
0.00100881
0.00100854
0.00100827
0.001008
0.00100775
0.0010075
0.00100725
0.00100701
0.00100678
0.00100656
0.00100633
0.00100612
0.0010167
0.00101621
0.00101574
0.00101528
0.00101483
0.00101439
0.00101397
0.00101356
0.00101316
0.00101277
0.00101239
0.00101202
0.00101166
0.00101131
0.00101097
0.00101064
0.00101031
0.00101
0.00100969
0.00100939
0.0010091
0.00100881
0.00100854
0.00100827
0.001008
0.00100774
0.00100749
0.00100725
0.00100701
0.00100677
0.00100655
0.00100632
0.00100611
0.0010167
0.00101621
0.00101574
0.00101528
0.00101483
0.00101439
0.00101397
0.00101356
0.00101316
0.00101277
0.00101239
0.00101202
0.00101166
0.00101131
0.00101097
0.00101064
0.00101031
0.00101
0.00100969
0.00100939
0.00100909
0.00100881
0.00100853
0.00100826
0.00100799
0.00100773
0.00100747
0.00100722
0.00100698
0.00100674
0.0010065
0.00100627
0.00100605
0.0010167
0.00101621
0.00101574
0.00101528
0.00101483
0.00101439
0.00101397
0.00101356
0.00101316
0.00101277
0.00101239
0.00101202
0.00101166
0.00101131
0.00101096
0.00101063
0.0010103
0.00100998
0.00100966
0.00100935
0.00100905
0.00100875
0.00100846
0.00100817
0.00100788
0.0010076
0.00100733
0.00100705
0.00100679
0.00100652
0.00100626
0.00100599
0.00100574
0.0010167
0.00101621
0.00101574
0.00101528
0.00101483
0.00101439
0.00101397
0.00101356
0.00101316
0.00101276
0.00101237
0.00101199
0.00101162
0.00101125
0.00101088
0.00101051
0.00101015
0.00100979
0.00100942
0.00100906
0.00100869
0.00100833
0.00100796
0.00100759
0.00100721
0.00100684
0.00100646
0.00100608
0.0010057
0.00100531
0.00100492
0.00100453
0.00100414
0.0010167
0.00101621
0.00101574
0.00101527
0.00101482
0.00101438
0.00101394
0.00101349
0.00101305
0.00101259
0.00101212
0.00101164
0.00101114
0.00101062
0.00101008
0.00100952
0.00100893
0.00100832
0.00100768
0.00100702
0.00100635
0.00100564
0.00100492
0.00100418
0.00100342
0.00100264
0.00100185
0.00100104
0.00100023
0.000999395
0.000998554
0.000997704
0.000996847
0.0010167
0.00101621
0.00101571
0.00101519
0.00101464
0.00101403
0.00101334
0.00101255
0.00101167
0.00101068
0.00100957
0.00100836
0.00100703
0.00100561
0.00100408
0.00100247
0.00100077
0.000998989
0.000997142
0.000995234
0.000993272
0.000991262
0.000989214
0.000987132
0.000985023
0.000982892
0.000980746
0.000978589
0.000976426
0.000974261
0.000972098
0.00096994
0.000967791
0.00101669
0.00101596
0.00101486
0.00101328
0.00101117
0.00100854
0.0010054
0.00100178
0.000997736
0.000993314
0.000988565
0.000983541
0.000978291
0.000972863
0.000967298
0.000961635
0.000955906
0.000950142
0.000944368
0.000938606
0.000932876
0.000927193
0.000921571
0.000916021
0.000910552
0.000905172
0.000899887
0.000894702
0.00088962
0.000884644
0.000879775
0.000875016
0.000870366
0.00101524
0.00100708
0.000994953
0.000980598
0.000964731
0.000947808
0.000930215
0.000912298
0.000894352
0.000876603
0.000859217
0.000842308
0.000825948
0.000810183
0.000795036
0.000780512
0.000766606
0.000753306
0.000740593
0.000728446
0.000716841
0.000705755
0.000695163
0.000685041
0.000675365
0.000666112
0.000657261
0.00064879
0.000640681
0.000632913
0.00062547
0.000618334
0.000611489
0.000934353
0.000813412
0.000726853
0.000658905
0.000603295
0.000557004
0.00051813
0.000485196
0.000457014
0.000432662
0.000411434
0.000392781
0.000376274
0.000361573
0.000348407
0.000336555
0.000325839
0.000316111
0.000307247
0.000299145
0.000291717
0.000284888
0.000278594
0.00027278
0.000267398
0.000262405
0.000257765
0.000253446
0.000249419
0.000245658
0.000242141
0.000238848
0.000235758
0.000125479
0.000128845
0.000132086
0.000135185
0.000138141
0.000140961
0.00014365
0.000146214
0.000148658
0.000150985
0.000153201
0.00015531
0.000157315
0.000159222
0.000161033
0.000162754
0.000164389
0.00016594
0.000167412
0.000168809
0.000170133
0.00017139
0.000172581
0.00017371
0.00017478
0.000175793
0.000176754
0.000177664
0.000178526
0.000179343
0.000180116
0.000180849
0.000181543
1.05453e-06
0.000172013
0.000455744
0.000662123
0.000771599
0.000817382
0.000826686
0.000816348
0.000797683
0.000778832
0.00076412
0.000754448
0.000749041
0.000746885
0.000747326
0.00075018
0.000755684
0.000764392
0.000776991
0.00079405
0.000815756
0.000841725
0.000870958
0.000901958
0.000932983
0.0009624
0.000989069
0.00101266
0.00103375
0.00105373
0.00107441
0.00109755
0.00112439
0.00115541
0.00119016
0.00122737
0.00126513
0.00130125
0.00133359
0.00136044
0.00138082
0.00139476
0.00140334
0.00140878
0.00141432
0.00142402
0.00144229
0.00147306
0.00151851
0.00157789
0.00164705
0.00171907
0.00178597
0.00184054
0.00187753
0.00189405
0.0018894
0.00186455
0.00182163
0.00176353
0.00169365
0.00161564
0.00153336
0.00145075
0.00137188
0.00130089
0.00124199
0.00119943
0.00117729
0.00117895
0.00120624
0.00125848
0.00133199
0.0014207
0.00151755
0.0016159
0.00171041
0.00179718
0.00187358
0.00193801
0.00198969
0.00202846
0.00205471
0.00206925
0.00207318
0.0020678
0.0020545
0.00203472
0.00200991
0.0019815
0.00195091
0.0019196
0.00188908
0.00186088
0.00183654
0.0018175
0.00180526
0.0018042
0.00180849
0.00190515
0.00062105
7.18341e-05
0.00020109
0.000424176
0.000596971
0.000689471
0.000726837
0.000732503
0.000720559
0.00070062
0.000679742
0.000662187
0.000649685
0.000642398
0.000639828
0.000641415
0.000646847
0.000656152
0.000669592
0.000687415
0.000709554
0.000735401
0.000763739
0.000792876
0.00082096
0.000846381
0.000868158
0.000886207
0.000901392
0.000915341
0.000930055
0.000947437
0.000968864
0.000994887
0.00102513
0.00105837
0.00109273
0.00112602
0.00115609
0.00118113
0.00120005
0.00121262
0.00121966
0.00122301
0.00122548
0.00123076
0.00124303
0.00126633
0.00130352
0.00135491
0.00141748
0.0014851
0.00154998
0.00160462
0.00164324
0.00166241
0.001661
0.00163971
0.00160052
0.0015463
0.00148042
0.00140656
0.00132858
0.00125041
0.00117605
0.00110949
0.00105471
0.00101561
0.00099591
0.000998727
0.0010259
0.001077
0.00114877
0.00123554
0.00133064
0.00142774
0.00152171
0.00160872
0.00168612
0.00175223
0.00180612
0.00184751
0.00187666
0.00189427
0.00190137
0.0018992
0.00188914
0.00187259
0.00185099
0.00182577
0.00179836
0.00177025
0.00174293
0.00171801
0.00169704
0.00168158
0.00167315
0.00167652
0.0016847
0.00179205
0.000778076
0.000482449
0.000152742
0.000221454
0.00036191
0.000484198
0.000558327
0.000590779
0.000595291
0.00058349
0.000564213
0.000543927
0.000526787
0.000514863
0.000508708
0.000508079
0.000512511
0.000521656
0.000535353
0.000553502
0.000575803
0.000601507
0.000629298
0.000657389
0.000683827
0.000706934
0.000725717
0.000740134
0.00075113
0.000760436
0.000770184
0.000782443
0.000798782
0.000819958
0.000845783
0.000875181
0.000906399
0.000937308
0.000965747
0.000989862
0.00100839
0.00102089
0.00102781
0.00103056
0.00103144
0.00103354
0.00104058
0.00105646
0.00108448
0.00112616
0.00118001
0.00124131
0.001303
0.00135756
0.00139868
0.00142221
0.00142637
0.00141136
0.00137886
0.00133159
0.00127285
0.00120635
0.00113597
0.00106568
0.000999431
0.000941027
0.000894035
0.000861681
0.000846799
0.000851715
0.000877865
0.000925059
0.000990827
0.00107059
0.00115871
0.00124974
0.00133908
0.00142314
0.00149926
0.00156556
0.00162085
0.00166458
0.00169674
0.00171783
0.00172868
0.00173041
0.00172429
0.00171166
0.00169391
0.00167243
0.00164864
0.00162399
0.00159998
0.0015782
0.00156025
0.00154772
0.00154211
0.00154845
0.00155816
0.00167015
0.000481563
0.000648146
0.00188356
0.00051448
0.000299457
0.000332216
0.000387899
0.000429332
0.000449585
0.000451949
0.000442557
0.000427387
0.000411209
0.000397321
0.000387645
0.000383017
0.000383567
0.000389098
0.00039936
0.000414126
0.000433065
0.000455509
0.000480257
0.000505598
0.000529569
0.000550404
0.000566972
0.000579068
0.000587475
0.000593789
0.000600074
0.00060843
0.000620559
0.000637433
0.000659124
0.000684813
0.00071297
0.000741634
0.000768741
0.000792444
0.000811389
0.000824917
0.000833173
0.000837123
0.000838501
0.000839722
0.000843766
0.00085398
0.000873629
0.000905017
0.000948313
0.00100071
0.00105666
0.00110927
0.00115203
0.00118014
0.00119104
0.00118425
0.001161
0.0011237
0.00107558
0.00102035
0.000961957
0.000904432
0.000851643
0.000807075
0.00077361
0.00075339
0.000747852
0.0007579
0.000784002
0.000825906
0.000882068
0.000949463
0.00102418
0.00110234
0.00118053
0.00125589
0.00132597
0.00138877
0.00144277
0.001487
0.00152103
0.00154497
0.00155934
0.00156501
0.00156306
0.00155467
0.00154114
0.00152377
0.00150391
0.00148295
0.00146235
0.00144363
0.00142838
0.00141824
0.00141462
0.00142266
0.00143199
0.00154287
0.000593653
0.000625739
0.000767098
0.000925183
0.00067833
0.000474832
0.000410276
0.000396964
0.000397043
0.00039678
0.000392611
0.000384922
0.000375323
0.000365387
0.000356198
0.000348369
0.000342275
0.000338265
0.000336768
0.000338267
0.00034318
0.000351685
0.000363502
0.000377725
0.000392873
0.000407231
0.000419362
0.000428546
0.000434975
0.000439659
0.000444153
0.00045018
0.000459263
0.000472409
0.000489919
0.000511336
0.000535541
0.000560965
0.000585854
0.000608555
0.000627765
0.000642725
0.000653334
0.000660156
0.000664366
0.000667641
0.000672056
0.00067999
0.000693978
0.000716309
0.000748224
0.00078894
0.000835172
0.000881685
0.000922666
0.000953155
0.000969951
0.000971852
0.000959463
0.000934796
0.000900855
0.000861272
0.000819965
0.000780817
0.000747325
0.000722266
0.000707446
0.000703623
0.000710689
0.000728094
0.000755291
0.000791852
0.000837057
0.000889381
0.000946588
0.00100639
0.00106694
0.00112668
0.00118407
0.00123748
0.00128529
0.00132614
0.00135913
0.00138382
0.00140028
0.00140896
0.00141062
0.0014062
0.00139679
0.00138354
0.00136768
0.00135049
0.0013333
0.00131757
0.0013048
0.00129662
0.00129428
0.00130299
0.00131062
0.00141515
0.000724178
0.000715115
0.000731014
0.000773099
0.000786101
0.00072983
0.000647235
0.000582049
0.000540571
0.000514786
0.000497594
0.000485081
0.000475249
0.000466971
0.000459359
0.000451544
0.000442754
0.000432515
0.000420825
0.000408181
0.000395446
0.000383628
0.000373685
0.000366328
0.000361786
0.000359723
0.00035941
0.000360088
0.000361299
0.000363032
0.000365685
0.000369909
0.00037639
0.000385651
0.000397899
0.000412951
0.000430252
0.000448954
0.000468033
0.00048643
0.000503219
0.000517762
0.000529827
0.000539616
0.000547726
0.000555053
0.000562679
0.000571819
0.000583799
0.000600017
0.000621671
0.000649177
0.00068152
0.000716037
0.000748928
0.000776246
0.000794886
0.000803199
0.000801154
0.00079016
0.000772718
0.000752001
0.000731403
0.000714089
0.000702588
0.00069848
0.00070227
0.000713498
0.000731066
0.000753741
0.000780642
0.000811471
0.000846243
0.000884647
0.000925632
0.000967695
0.0010096
0.00105073
0.00109074
0.00112913
0.00116498
0.00119714
0.00122451
0.00124622
0.00126183
0.00127129
0.00127492
0.00127328
0.00126717
0.0012575
0.00124528
0.0012316
0.00121766
0.00120474
0.0011942
0.0011876
0.00118599
0.00119453
0.0011998
0.00129343
0.00082574
0.00081688
0.000811628
0.000814311
0.000819112
0.000814226
0.000794642
0.000765465
0.000735023
0.000708407
0.000686692
0.00066966
0.00065653
0.000646265
0.000637672
0.000629476
0.000620439
0.000609525
0.000596058
0.000579851
0.000561205
0.000540792
0.000519557
0.000498656
0.000479316
0.000462577
0.000449071
0.000438979
0.000432157
0.000428311
0.000427133
0.000428353
0.00043173
0.000437001
0.000443846
0.000451886
0.000460749
0.000470135
0.000479837
0.000489704
0.000499594
0.000509377
0.000518972
0.000528395
0.000537761
0.000547262
0.000557121
0.000567569
0.000578871
0.000591388
0.000605575
0.000621817
0.000640099
0.000659726
0.0006793
0.000697004
0.000711074
0.00072031
0.000724435
0.000724194
0.000721183
0.000717509
0.000715354
0.000716559
0.000722308
0.000732979
0.000748182
0.00076697
0.000788158
0.000810683
0.000833927
0.000857875
0.000883001
0.000909806
0.000938248
0.00096748
0.0009962
0.00102335
0.00104855
0.00107193
0.00109364
0.00111351
0.00113106
0.0011456
0.00115655
0.00116352
0.00116641
0.0011654
0.00116089
0.00115349
0.00114392
0.00113304
0.00112179
0.00111125
0.00110256
0.00109712
0.00109575
0.00110339
0.0011062
0.00118537
0.000898042
0.00089208
0.000886231
0.000881806
0.000878932
0.000875819
0.00087034
0.000861639
0.000850451
0.000838274
0.000826199
0.000815026
0.000805171
0.000796646
0.000789112
0.000781973
0.000774489
0.000765908
0.000755591
0.00074313
0.00072842
0.000711644
0.000693242
0.000673899
0.000654526
0.000636155
0.000619758
0.00060606
0.000595447
0.000587973
0.000583445
0.000581515
0.000581751
0.000583671
0.000586761
0.000590503
0.000594435
0.000598248
0.000601852
0.000605374
0.000609075
0.000613245
0.000618119
0.000623826
0.00063039
0.000637741
0.000645727
0.000654156
0.000662837
0.000671649
0.000680591
0.000689743
0.000699139
0.000708614
0.00071779
0.000726204
0.000733467
0.000739397
0.000744119
0.000748123
0.000752221
0.000757389
0.000764539
0.000774295
0.000786854
0.000801961
0.000819001
0.000837155
0.000855592
0.00087366
0.000891032
0.000907811
0.000924513
0.000941865
0.000960437
0.000980237
0.00100054
0.00102012
0.00103778
0.00105285
0.00106527
0.00107533
0.00108334
0.00108941
0.00109346
0.0010953
0.0010948
0.00109194
0.00108687
0.00107989
0.00107145
0.00106211
0.00105257
0.00104361
0.00103614
0.00103129
0.00102964
0.0010357
0.00103635
0.00109883
0.000946046
0.000942065
0.000937973
0.000933992
0.000930332
0.000926905
0.000923349
0.000919293
0.000914585
0.000909349
0.000903768
0.000898085
0.000892525
0.000887222
0.00088217
0.000877216
0.000872086
0.000866433
0.000859898
0.000852187
0.00084313
0.000832712
0.00082108
0.000808535
0.000795535
0.000782661
0.000770539
0.000759733
0.000750657
0.000743522
0.00073835
0.000735013
0.000733283
0.000732873
0.000733458
0.000734691
0.000736241
0.000737838
0.000739332
0.000740725
0.000742154
0.000743839
0.000746002
0.000748806
0.000752319
0.000756494
0.000761198
0.000766233
0.000771392
0.000776506
0.000781499
0.000786392
0.000791251
0.000796086
0.000800786
0.000805182
0.000809177
0.000812863
0.000816533
0.000820625
0.000825631
0.000831997
0.000840031
0.000849825
0.000861236
0.000873905
0.000887331
0.000900954
0.000914256
0.000926839
0.000938506
0.000949314
0.000959599
0.00096993
0.000980951
0.000993142
0.00100655
0.00102066
0.00103445
0.00104674
0.0010566
0.00106356
0.00106763
0.00106912
0.00106842
0.00106585
0.00106164
0.00105598
0.00104905
0.00104109
0.00103238
0.00102331
0.00101433
0.00100599
0.000998935
0.00099401
0.000991554
0.000995409
0.000994336
0.00103964
0.000975378
0.000972825
0.000970205
0.000967534
0.000964853
0.000962182
0.000959503
0.000956762
0.000953909
0.000950931
0.000947829
0.000944629
0.000941379
0.000938122
0.000934875
0.000931611
0.00092825
0.000924669
0.000920715
0.000916239
0.000911129
0.000905337
0.000898889
0.000891899
0.000884558
0.00087713
0.000869915
0.000863209
0.000857253
0.00085221
0.000848148
0.00084506
0.000842884
0.00084152
0.000840845
0.000840715
0.000840977
0.000841486
0.000842134
0.000842867
0.0008437
0.000844698
0.00084595
0.00084753
0.000849471
0.000851747
0.000854277
0.000856943
0.000859613
0.000862179
0.000864591
0.00086688
0.000869143
0.000871501
0.000874022
0.000876704
0.000879506
0.000882433
0.00088559
0.000889183
0.000893466
0.000898666
0.000904918
0.000912224
0.000920449
0.000929343
0.000938576
0.000947795
0.000956668
0.000964929
0.00097242
0.000979127
0.000985204
0.000990981
0.000996923
0.00100353
0.00101118
0.00102
0.00102967
0.00103951
0.00104858
0.00105593
0.00106086
0.00106304
0.00106252
0.00105958
0.00105462
0.00104807
0.00104032
0.00103174
0.00102268
0.0010135
0.00100457
0.000996286
0.000989106
0.000983653
0.000980088
0.000981448
0.000979052
0.00100874
0.000991736
0.000990197
0.000988615
0.000986982
0.00098529
0.000983533
0.000981711
0.000979828
0.000977887
0.000975895
0.000973855
0.000971767
0.000969636
0.000967471
0.000965274
0.000963042
0.000960758
0.000958385
0.000955874
0.000953172
0.000950228
0.000947014
0.00094353
0.000939811
0.000935926
0.000931977
0.000928082
0.000924364
0.000920927
0.000917849
0.000915175
0.000912925
0.000911098
0.000909685
0.000908667
0.000908018
0.000907699
0.000907664
0.000907866
0.000908265
0.00090884
0.000909586
0.000910506
0.000911603
0.000912863
0.000914249
0.0009157
0.000917139
0.000918487
0.00091968
0.000920692
0.000921552
0.000922348
0.000923212
0.000924282
0.000925661
0.000927406
0.000929537
0.000932075
0.000935066
0.000938579
0.000942683
0.000947417
0.000952761
0.000958623
0.000964847
0.000971231
0.000977549
0.000983581
0.000989137
0.000994083
0.000998364
0.00100202
0.00100522
0.00100821
0.00101135
0.00101501
0.0010195
0.00102497
0.00103131
0.00103813
0.00104478
0.00105053
0.00105469
0.00105679
0.00105662
0.00105423
0.00104989
0.00104394
0.00103681
0.00102891
0.00102064
0.0010124
0.00100456
0.000997498
0.000991703
0.000987267
0.00098645
0.00098318
0.00100044
0.00100001
0.000999118
0.000998203
0.000997251
0.000996248
0.000995179
0.000994036
0.000992819
0.000991536
0.000990197
0.000988814
0.00098739
0.00098593
0.000984435
0.000982907
0.000981345
0.000979749
0.000978111
0.000976425
0.000974678
0.00097286
0.000970965
0.000968996
0.000966966
0.000964896
0.00096282
0.000960773
0.000958793
0.00095691
0.000955149
0.000953525
0.000952049
0.000950736
0.000949602
0.000948665
0.000947947
0.00094746
0.00094721
0.000947191
0.00094739
0.000947785
0.000948357
0.000949077
0.000949918
0.000950839
0.000951794
0.000952726
0.000953576
0.000954288
0.000954821
0.000955161
0.000955331
0.000955396
0.000955462
0.000955659
0.000956116
0.00095694
0.000958202
0.000959941
0.000962175
0.000964908
0.000968136
0.000971835
0.000975956
0.000980415
0.000985096
0.000989855
0.000994534
0.000998973
0.00100303
0.00100659
0.00100958
0.001012
0.0010139
0.0010154
0.00101672
0.0010181
0.00101982
0.00102213
0.00102518
0.00102898
0.00103335
0.00103791
0.00104218
0.00104564
0.00104784
0.00104849
0.00104747
0.00104486
0.00104085
0.00103574
0.00102987
0.00102359
0.00101727
0.00101124
0.00100593
0.00100142
0.000999356
0.00099583
0.00100457
0.00100377
0.00100325
0.00100271
0.00100215
0.00100156
0.00100092
0.00100022
0.000999461
0.000998637
0.000997759
0.000996834
0.000995869
0.00099487
0.000993838
0.000992776
0.000991686
0.000990568
0.000989426
0.000988263
0.000987084
0.000985894
0.000984699
0.000983508
0.000982329
0.00098117
0.000980039
0.000978941
0.000977879
0.000976851
0.000975856
0.000974892
0.000973961
0.000973072
0.000972246
0.000971507
0.000970887
0.000970417
0.000970121
0.000970013
0.000970096
0.000970361
0.000970789
0.00097135
0.000972006
0.000972712
0.00097342
0.000974075
0.000974628
0.000975033
0.000975262
0.000975303
0.000975176
0.000974928
0.000974638
0.000974409
0.000974356
0.00097459
0.000975204
0.000976261
0.000977797
0.000979818
0.000982307