/*--------------------------------*- C++ -*----------------------------------*\
  =========                 |
  \\      /  F ield         | OpenFOAM: The Open Source CFD Toolbox
   \\    /   O peration     | Website:  https://openfoam.org
    \\  /    A nd           | Version:  10
     \\/     M anipulation  |
\*---------------------------------------------------------------------------*/
FoamFile
{
    format      ascii;
    class       volScalarField;
    location    "1000";
    object      p;
}
// * * * * * * * * * * * * * * * * * * * * * * * * * * * * * * * * * * * * * //

dimensions      [0 2 -2 0 0 0 0];

internalField   nonuniform List<scalar> 
6820
(
-7.93312
-8.70439
-9.15132
-9.29755
-9.37501
-9.43871
-9.48255
-9.51081
-9.53186
-9.54938
-9.56416
-9.57668
-9.58746
-9.59681
-9.60484
-9.61154
-9.61688
-9.62074
-9.62297
-9.62334
-9.62154
-9.61715
-9.60963
-9.5982
-9.5818
-9.55896
-9.52748
-9.48421
-9.42431
-9.34125
-9.21589
-9.07269
-8.85709
-9.48759
-9.63256
-9.608
-9.5384
-9.50962
-9.51353
-9.52474
-9.53565
-9.54708
-9.55901
-9.57044
-9.58086
-9.59023
-9.59855
-9.60578
-9.61183
-9.61662
-9.62001
-9.62186
-9.62193
-9.61994
-9.61548
-9.60806
-9.59699
-9.58134
-9.55987
-9.53072
-9.49173
-9.43755
-9.36773
-9.25408
-9.12095
-8.75132
-9.49131
-9.35572
-9.35556
-9.38899
-9.42357
-9.4595
-9.49
-9.51318
-9.53196
-9.54822
-9.56234
-9.57453
-9.5851
-9.59431
-9.60222
-9.60886
-9.61417
-9.61807
-9.62043
-9.62104
-9.61964
-9.61588
-9.6093
-9.5993
-9.58508
-9.56561
-9.53941
-9.50481
-9.45828
-9.3992
-9.31365
-9.22446
-9.08981
-9.42179
-9.34404
-9.38793
-9.43434
-9.45906
-9.48217
-9.50451
-9.5229
-9.53847
-9.55255
-9.56528
-9.57661
-9.58666
-9.59555
-9.6033
-9.60986
-9.61519
-9.6192
-9.62173
-9.62263
-9.62164
-9.61847
-9.61274
-9.60395
-9.59151
-9.57467
-9.55247
-9.52402
-9.4877
-9.44472
-9.3925
-9.35263
-9.33561
-9.41542
-9.38578
-9.41501
-9.44573
-9.46389
-9.48378
-9.50485
-9.52304
-9.53861
-9.55267
-9.56542
-9.5768
-9.58693
-9.5959
-9.60375
-9.61047
-9.616
-9.62026
-9.62315
-9.62452
-9.62417
-9.62185
-9.61729
-9.61013
-9.59997
-9.58639
-9.56896
-9.54754
-9.52216
-9.49537
-9.47022
-9.4633
-9.49072
-9.42355
-9.40929
-9.42494
-9.4496
-9.46856
-9.48784
-9.50766
-9.52517
-9.54037
-9.55412
-9.56664
-9.57791
-9.58799
-9.59699
-9.60493
-9.6118
-9.61756
-9.62214
-9.62546
-9.6274
-9.62781
-9.62652
-9.62333
-9.61805
-9.61048
-9.60051
-9.58816
-9.57394
-9.55893
-9.5463
-9.54086
-9.55413
-9.59925
-9.43158
-9.4239
-9.43482
-9.45641
-9.47499
-9.49273
-9.51084
-9.52747
-9.54221
-9.55564
-9.56795
-9.57913
-9.58921
-9.59828
-9.60635
-9.61343
-9.61948
-9.62445
-9.62828
-9.6309
-9.63219
-9.63207
-9.63044
-9.62724
-9.62245
-9.61623
-9.60897
-9.60156
-9.59565
-9.59438
-9.60244
-9.62751
-9.67854
-9.43986
-9.43658
-9.44565
-9.46394
-9.48112
-9.49746
-9.51417
-9.52996
-9.54426
-9.55737
-9.56947
-9.58055
-9.59064
-9.59979
-9.60803
-9.61535
-9.62173
-9.62715
-9.63157
-9.63495
-9.63724
-9.6384
-9.63844
-9.63741
-9.63546
-9.63294
-9.63047
-9.62915
-9.63075
-9.63809
-9.65501
-9.68653
-9.73825
-9.44859
-9.448
-9.45589
-9.47128
-9.48702
-9.50225
-9.51777
-9.53274
-9.54655
-9.55932
-9.57121
-9.5822
-9.59229
-9.60154
-9.60995
-9.61754
-9.6243
-9.63022
-9.63528
-9.63948
-9.64283
-9.64534
-9.6471
-9.64826
-9.64908
-9.65005
-9.65189
-9.65576
-9.66333
-9.67691
-9.69944
-9.73412
-9.78426
-9.45745
-9.45829
-9.46539
-9.47856
-9.49293
-9.50714
-9.52159
-9.53574
-9.54905
-9.56149
-9.57316
-9.58405
-9.59416
-9.60351
-9.61212
-9.62
-9.62716
-9.63361
-9.63936
-9.64443
-9.64886
-9.65275
-9.65622
-9.6595
-9.66295
-9.66708
-9.67267
-9.68081
-9.69294
-9.71089
-9.73677
-9.77257
-9.82014
-9.46618
-9.46773
-9.47426
-9.48573
-9.4988
-9.51204
-9.52555
-9.53894
-9.55175
-9.56386
-9.57532
-9.58612
-9.59624
-9.6057
-9.61452
-9.62272
-9.6303
-9.63731
-9.64376
-9.64971
-9.65525
-9.66049
-9.66561
-9.6709
-9.67673
-9.68365
-9.69239
-9.70392
-9.71943
-9.7403
-9.76799
-9.80365
-9.84829
-9.47465
-9.47652
-9.48258
-9.49272
-9.5046
-9.51694
-9.5296
-9.5423
-9.55462
-9.56641
-9.57767
-9.58838
-9.59852
-9.6081
-9.61714
-9.62566
-9.63369
-9.64125
-9.64842
-9.65525
-9.66186
-9.66841
-9.67509
-9.68221
-9.69016
-9.69947
-9.71078
-9.72492
-9.74283
-9.76552
-9.79394
-9.82874
-9.87036
-9.48278
-9.48474
-9.4904
-9.49948
-9.51031
-9.52181
-9.53372
-9.54577
-9.55763
-9.56912
-9.58019
-9.59081
-9.60098
-9.61069
-9.61996
-9.6288
-9.63727
-9.6454
-9.65327
-9.66096
-9.66861
-9.67638
-9.68449
-9.69325
-9.70303
-9.71431
-9.72766
-9.74374
-9.76327
-9.78694
-9.81538
-9.84887
-9.88758
-9.49053
-9.49247
-9.49774
-9.50597
-9.51589
-9.52662
-9.53785
-9.54933
-9.56075
-9.57195
-9.58284
-9.5934
-9.60359
-9.61343
-9.62293
-9.63211
-9.64101
-9.6497
-9.65825
-9.66676
-9.67537
-9.68426
-9.69366
-9.70384
-9.71517
-9.72804
-9.74294
-9.76038
-9.7809
-9.80496
-9.83293
-9.86489
-9.90084
-9.49787
-9.49974
-9.50464
-9.51217
-9.5213
-9.53135
-9.54197
-9.55292
-9.56395
-9.57487
-9.5856
-9.59609
-9.60633
-9.6163
-9.62603
-9.63553
-9.64486
-9.65408
-9.66327
-9.67255
-9.68205
-9.69195
-9.70246
-9.71385
-9.72643
-9.74054
-9.75657
-9.77491
-9.79593
-9.81994
-9.84712
-9.87745
-9.91083
-9.50478
-9.50655
-9.51112
-9.51806
-9.52653
-9.53596
-9.54604
-9.55652
-9.56719
-9.57786
-9.58844
-9.59888
-9.60916
-9.61927
-9.62921
-9.63903
-9.64876
-9.65849
-9.66828
-9.67825
-9.68854
-9.69932
-9.71079
-9.72317
-9.73673
-9.75176
-9.76856
-9.78741
-9.80856
-9.8322
-9.85841
-9.88706
-9.91807
-9.51125
-9.51293
-9.51719
-9.52364
-9.53153
-9.54042
-9.55001
-9.56009
-9.57043
-9.58087
-9.59132
-9.60172
-9.61204
-9.62228
-9.63244
-9.64255
-9.65267
-9.66285
-9.67319
-9.68378
-9.69477
-9.70629
-9.71854
-9.73171
-9.74601
-9.76168
-9.77894
-9.79799
-9.819
-9.84205
-9.86716
-9.89418
-9.92298
-9.51729
-9.51886
-9.52286
-9.52888
-9.53629
-9.5447
-9.55387
-9.56358
-9.57363
-9.58387
-9.5942
-9.60457
-9.61494
-9.6253
-9.63567
-9.64606
-9.65652
-9.66712
-9.67794
-9.68908
-9.70065
-9.71279
-9.72565
-9.73941
-9.75424
-9.77031
-9.78778
-9.8068
-9.82745
-9.84976
-9.87371
-9.89913
-9.92591
-9.52287
-9.52436
-9.52811
-9.53377
-9.54076
-9.54877
-9.55757
-9.56696
-9.57676
-9.58682
-9.59705
-9.6074
-9.61782
-9.6283
-9.63885
-9.64949
-9.66026
-9.67123
-9.68247
-9.69406
-9.70611
-9.71874
-9.73208
-9.74625
-9.76141
-9.77768
-9.79516
-9.81395
-9.83409
-9.85557
-9.87833
-9.90222
-9.92713
-9.52799
-9.52939
-9.53294
-9.53829
-9.54494
-9.55259
-9.56107
-9.57019
-9.57977
-9.58968
-9.59983
-9.61016
-9.62062
-9.63121
-9.64193
-9.6528
-9.66385
-9.67513
-9.68671
-9.69868
-9.71111
-9.72411
-9.73777
-9.75221
-9.76754
-9.78383
-9.80116
-9.81958
-9.8391
-9.85969
-9.88127
-9.9037
-9.92688
-9.53263
-9.53397
-9.53733
-9.54242
-9.54877
-9.55613
-9.56434
-9.57322
-9.58262
-9.5924
-9.60249
-9.6128
-9.62332
-9.63401
-9.64488
-9.65594
-9.66722
-9.67876
-9.69063
-9.70288
-9.7156
-9.72885
-9.74272
-9.75729
-9.77264
-9.78882
-9.80587
-9.82382
-9.84265
-9.86232
-9.88274
-9.90378
-9.92537
-9.53678
-9.53806
-9.54127
-9.54614
-9.55224
-9.55935
-9.56733
-9.57602
-9.58527
-9.59495
-9.60498
-9.61529
-9.62585
-9.63664
-9.64763
-9.65886
-9.67033
-9.68209
-9.69417
-9.70664
-9.71955
-9.73295
-9.74692
-9.76151
-9.77676
-9.79272
-9.8094
-9.8268
-9.84489
-9.86362
-9.88291
-9.90265
-9.92276
-9.54041
-9.54164
-9.54472
-9.54941
-9.55531
-9.56222
-9.57001
-9.57854
-9.58767
-9.59727
-9.60726
-9.61758
-9.62819
-9.63905
-9.65016
-9.66152
-9.67315
-9.68506
-9.69731
-9.70991
-9.72293
-9.7364
-9.75037
-9.76488
-9.77995
-9.7956
-9.81183
-9.82863
-9.84596
-9.86376
-9.88197
-9.90047
-9.91921
-9.54351
-9.5447
-9.54767
-9.5522
-9.55793
-9.56468
-9.57233
-9.58074
-9.58977
-9.59932
-9.60929
-9.61963
-9.63028
-9.64121
-9.65241
-9.66388
-9.67562
-9.68765
-9.7
-9.71269
-9.72575
-9.73921
-9.7531
-9.76744
-9.78225
-9.79752
-9.81326
-9.82942
-9.84598
-9.86288
-9.88004
-9.89738
-9.91485
-9.54605
-9.54719
-9.55007
-9.55448
-9.56008
-9.5667
-9.57424
-9.58256
-9.59154
-9.60105
-9.61102
-9.62138
-9.63208
-9.64308
-9.65436
-9.66591
-9.67773
-9.68984
-9.70223
-9.71494
-9.72798
-9.74137
-9.75512
-9.76924
-9.78373
-9.79858
-9.81379
-9.8293
-9.8451
-9.86111
-9.87728
-9.89353
-9.90982
-9.54798
-9.5491
-9.55189
-9.5562
-9.56169
-9.56823
-9.57569
-9.58397
-9.59291
-9.60242
-9.61241
-9.6228
-9.63355
-9.64461
-9.65595
-9.66756
-9.67944
-9.69158
-9.70399
-9.71668
-9.72965
-9.74291
-9.75646
-9.77031
-9.78444
-9.79885
-9.8135
-9.82836
-9.8434
-9.85856
-9.8738
-9.88902
-9.90422
-9.54928
-9.55037
-9.55309
-9.55731
-9.56273
-9.5692
-9.57664
-9.58489
-9.59384
-9.60337
-9.6134
-9.62384
-9.63464
-9.64576
-9.65716
-9.66883
-9.68074
-9.69289
-9.70527
-9.7179
-9.73076
-9.74385
-9.75717
-9.77071
-9.78446
-9.7984
-9.8125
-9.82672
-9.84103
-9.85538
-9.86973
-9.884
-9.89818
-9.5499
-9.55096
-9.55362
-9.55775
-9.56312
-9.56957
-9.57701
-9.58529
-9.59428
-9.60387
-9.61395
-9.62447
-9.63534
-9.64652
-9.65797
-9.66967
-9.68159
-9.69373
-9.70606
-9.71859
-9.73131
-9.74421
-9.75727
-9.77048
-9.78383
-9.79729
-9.81084
-9.82443
-9.83804
-9.85162
-9.86513
-9.87851
-9.89175
-9.54981
-9.55084
-9.55341
-9.55746
-9.56279
-9.56927
-9.57675
-9.5851
-9.59417
-9.60385
-9.61403
-9.62463
-9.63559
-9.64684
-9.65836
-9.67009
-9.68202
-9.69414
-9.70641
-9.71884
-9.7314
-9.74408
-9.75688
-9.76976
-9.78271
-9.7957
-9.80871
-9.8217
-9.83464
-9.8475
-9.86023
-9.87278
-9.88515
-9.54897
-9.54995
-9.5524
-9.55636
-9.56167
-9.5682
-9.57578
-9.58425
-9.59346
-9.60327
-9.61358
-9.6243
-9.63535
-9.64668
-9.65824
-9.67
-9.68193
-9.69399
-9.70618
-9.71848
-9.73087
-9.74332
-9.75583
-9.76837
-9.78092
-9.79345
-9.80594
-9.81836
-9.83067
-9.84284
-9.85485
-9.86664
-9.87822
-9.54735
-9.54824
-9.55051
-9.55432
-9.55964
-9.56629
-9.57403
-9.58267
-9.59207
-9.6021
-9.61261
-9.62352
-9.63474
-9.6462
-9.65787
-9.6697
-9.68165
-9.69371
-9.70584
-9.71803
-9.73025
-9.7425
-9.75474
-9.76695
-9.77912
-9.79122
-9.80322
-9.8151
-9.82682
-9.83836
-9.84969
-9.86077
-9.8716
-9.54495
-9.54568
-9.54761
-9.55121
-9.55658
-9.56344
-9.57142
-9.5803
-9.58991
-9.60012
-9.6108
-9.62183
-9.63315
-9.64469
-9.6564
-9.66824
-9.68017
-9.69217
-9.70422
-9.71628
-9.72833
-9.74036
-9.75234
-9.76425
-9.77606
-9.78776
-9.79932
-9.81071
-9.8219
-9.83288
-9.84363
-9.8541
-9.86432
-9.54183
-9.54224
-9.54357
-9.5468
-9.55225
-9.55943
-9.56785
-9.57726
-9.58748
-9.59826
-9.60944
-9.6209
-9.63258
-9.6444
-9.65631
-9.66828
-9.68028
-9.69229
-9.70428
-9.71622
-9.72811
-9.73992
-9.75162
-9.76321
-9.77465
-9.78594
-9.79704
-9.80793
-9.81859
-9.829
-9.83913
-9.84896
-9.85848
-9.53822
-9.53788
-9.53805
-9.54098
-9.54675
-9.55405
-9.56232
-9.57157
-9.58172
-9.59251
-9.60373
-9.61528
-9.62706
-9.63901
-9.65105
-9.66314
-9.67525
-9.68733
-9.69937
-9.71133
-9.7232
-9.73495
-9.74656
-9.75801
-9.76928
-9.78034
-9.79118
-9.80178
-9.81212
-9.82218
-9.83196
-9.84143
-9.85061
-9.53477
-9.5326
-9.5299
-9.53246
-9.5403
-9.55031
-9.56105
-9.57236
-9.58412
-9.59609
-9.60813
-9.62021
-9.63229
-9.64435
-9.65637
-9.66833
-9.68021
-9.69201
-9.7037
-9.71527
-9.72671
-9.738
-9.74911
-9.76004
-9.77076
-9.78125
-9.7915
-9.80149
-9.8112
-9.82061
-9.8297
-9.83843
-9.8468
-9.53266
-9.52761
-9.52024
-9.51825
-9.52129
-9.52743
-9.53623
-9.54715
-9.55926
-9.57195
-9.58499
-9.59824
-9.61156
-9.62486
-9.63808
-9.65117
-9.66412
-9.67689
-9.68948
-9.70185
-9.71401
-9.72593
-9.7376
-9.749
-9.76013
-9.77096
-9.78148
-9.79169
-9.80156
-9.8111
-9.8203
-9.82915
-9.8377
-9.53349
-9.51366
-9.51666
-9.53677
-9.55398
-9.56549
-9.57606
-9.58735
-9.59867
-9.60965
-9.62049
-9.63135
-9.64223
-9.65311
-9.66398
-9.67484
-9.68567
-9.69645
-9.70715
-9.71776
-9.72825
-9.7386
-9.74879
-9.75879
-9.76858
-9.77814
-9.78745
-9.79649
-9.80525
-9.81369
-9.82181
-9.82957
-9.83695
-9.57128
-9.44811
-9.3852
-9.38919
-9.41205
-9.43442
-9.45653
-9.4792
-9.50142
-9.52253
-9.54256
-9.56161
-9.57977
-9.59711
-9.61371
-9.62965
-9.64498
-9.65977
-9.67403
-9.68781
-9.70112
-9.71399
-9.72642
-9.73841
-9.74999
-9.76113
-9.77186
-9.78216
-9.79203
-9.80148
-9.81051
-9.81911
-9.8273
-9.73142
-9.74466
-9.70353
-9.66169
-9.63822
-9.62837
-9.62467
-9.62368
-9.62492
-9.62839
-9.63367
-9.64021
-9.64766
-9.6558
-9.6645
-9.67361
-9.683
-9.6926
-9.70232
-9.71209
-9.72186
-9.73158
-9.7412
-9.75069
-9.76002
-9.76915
-9.77804
-9.78669
-9.79507
-9.80315
-9.81093
-9.81837
-9.82549
-8.5673
-8.86773
-9.13302
-9.25938
-9.32492
-9.38172
-9.4321
-9.47145
-9.50229
-9.52851
-9.55184
-9.5728
-9.59183
-9.6094
-9.62585
-9.64139
-9.65617
-9.67029
-9.68383
-9.69685
-9.70938
-9.72145
-9.73309
-9.7443
-9.75509
-9.76546
-9.77542
-9.78496
-9.79409
-9.80279
-9.81108
-9.81893
-9.82637
-9.17276
-9.95219
-10.379
-10.6991
-10.8944
-10.947
-10.9202
-10.8863
-10.8772
-10.8914
-10.9164
-10.9402
-10.9551
-10.9575
-10.9469
-10.9246
-10.8946
-10.8626
-10.8364
-10.8239
-10.8317
-10.8637
-10.9201
-10.997
-11.0871
-11.1805
-11.2665
-11.335
-11.3785
-11.3926
-11.3765
-11.3321
-11.2635
-11.1754
-11.0721
-10.9568
-10.8306
-10.6933
-10.5426
-10.3758
-10.1896
-9.9815
-9.75027
-9.49662
-9.22357
-8.93639
-8.6423
-8.34965
-8.06678
-7.80078
-7.55642
-7.3355
-7.13677
-6.95639
-6.78865
-6.62682
-6.46389
-6.29322
-6.10905
-5.90687
-5.68368
-5.43819
-5.17078
-4.8835
-4.5798
-4.26433
-3.94255
-3.62034
-3.30368
-2.99823
-2.70895
-2.43977
-2.19336
-1.97099
-1.77266
-1.59733
-1.44326
-1.30829
-1.1901
-1.08637
-0.994917
-0.913734
-0.841048
-0.775303
-0.715173
-0.659523
-0.607408
-0.558026
-0.510717
-0.464928
-0.420193
-0.376166
-0.332429
-0.289002
-0.244765
-0.201743
-0.153308
-0.115458
-0.046711
-0.0491594
-8.91438
-10.032
-10.4793
-10.6999
-10.8542
-10.8987
-10.8738
-10.847
-10.8467
-10.8681
-10.8965
-10.9202
-10.9328
-10.9324
-10.9196
-10.8965
-10.8667
-10.8357
-10.8107
-10.7995
-10.8084
-10.8409
-10.8972
-10.9729
-11.0608
-11.151
-11.2329
-11.2971
-11.3362
-11.3463
-11.3267
-11.2797
-11.2093
-11.1203
-11.0168
-10.9019
-10.7768
-10.641
-10.4924
-10.3279
-10.1444
-9.93905
-9.71073
-9.46002
-9.18987
-8.90547
-8.61398
-8.32374
-8.04317
-7.77953
-7.53779
-7.31989
-7.12462
-6.94806
-6.78425
-6.62619
-6.46659
-6.2986
-6.11635
-5.91535
-5.69272
-5.44734
-5.17986
-4.89251
-4.58895
-4.2739
-3.95283
-3.63154
-3.31586
-3.01129
-2.72267
-2.45389
-2.20762
-1.98518
-1.78666
-1.61111
-1.45686
-1.32178
-1.20357
-1.09992
-1.00861
-0.927609
-0.855105
-0.789509
-0.72947
-0.673831
-0.621632
-0.57206
-0.524448
-0.478239
-0.432961
-0.388267
-0.343735
-0.299393
-0.254093
-0.209906
-0.159905
-0.120854
-0.0479158
-0.0545356
-9.28328
-10.0081
-10.3995
-10.5952
-10.7388
-10.8038
-10.8089
-10.806
-10.82
-10.8471
-10.8754
-10.896
-10.9052
-10.9024
-10.889
-10.8669
-10.8394
-10.8113
-10.789
-10.7796
-10.7892
-10.8212
-10.8755
-10.948
-11.0316
-11.1166
-11.1932
-11.252
-11.2863
-11.2926
-11.2702
-11.2215
-11.1503
-11.0612
-10.9582
-10.8442
-10.7204
-10.5861
-10.4393
-10.2771
-10.0961
-9.89379
-9.66891
-9.42205
-9.15599
-8.87579
-8.58837
-8.30184
-8.02451
-7.76363
-7.52428
-7.3086
-7.11554
-6.94121
-6.77965
-6.62371
-6.46596
-6.29946
-6.11829
-5.91801
-5.69586
-5.4509
-5.18396
-4.89744
-4.59512
-4.28173
-3.96268
-3.6436
-3.33011
-3.02748
-2.7404
-2.47264
-2.22685
-2.00443
-1.80559
-1.62951
-1.47463
-1.33893
-1.22018
-1.11607
-1.02441
-0.943126
-0.870386
-0.804572
-0.744301
-0.688394
-0.635873
-0.58591
-0.537829
-0.491063
-0.445136
-0.399696
-0.354317
-0.309024
-0.262667
-0.217306
-0.165888
-0.125535
-0.0492148
-0.0589859
-9.49061
-9.96863
-10.3299
-10.5201
-10.6424
-10.7103
-10.737
-10.7563
-10.7855
-10.8203
-10.8508
-10.8708
-10.8786
-10.8751
-10.8618
-10.8411
-10.8159
-10.7905
-10.7707
-10.7627
-10.7721
-10.8021
-10.8526
-10.9198
-10.997
-11.0753
-11.1451
-11.1979
-11.2275
-11.2305
-11.2063
-11.157
-11.0862
-10.998
-10.8963
-10.7837
-10.6613
-10.5285
-10.3833
-10.223
-10.0445
-9.84548
-9.6246
-9.38248
-9.12179
-8.84728
-8.56551
-8.28418
-8.01122
-7.75369
-7.51667
-7.30246
-7.11025
-6.93641
-6.77512
-6.61934
-6.46168
-6.2952
-6.11406
-5.91389
-5.69206
-5.44777
-5.18198
-4.8972
-4.59722
-4.28673
-3.97098
-3.6554
-3.34534
-3.04581
-2.76127
-2.49532
-2.25059
-2.02853
-1.82945
-1.65269
-1.49688
-1.36014
-1.24033
-1.13523
-1.04265
-0.960563
-0.887098
-0.82062
-0.75972
-0.703199
-0.650054
-0.599446
-0.550682
-0.503186
-0.456473
-0.410185
-0.363891
-0.317603
-0.270184
-0.223644
-0.170938
-0.12925
-0.0503482
-0.0622642
-9.61846
-9.95065
-10.2558
-10.4353
-10.5504
-10.627
-10.6724
-10.7066
-10.7435
-10.7811
-10.8125
-10.8335
-10.8434
-10.843
-10.8338
-10.8176
-10.7971
-10.7761
-10.7595
-10.7529
-10.7611
-10.7872
-10.8313
-10.8904
-10.9585
-11.0276
-11.0891
-11.1352
-11.16
-11.1602
-11.1351
-11.0864
-11.0171
-10.931
-10.8313
-10.7205
-10.5995
-10.468
-10.3243
-10.1658
-9.98973
-9.794
-9.57752
-9.34087
-9.08655
-8.81899
-8.54425
-8.26946
-8.002
-7.74853
-7.51398
-7.30073
-7.10829
-6.9334
-6.77062
-6.61318
-6.45393
-6.2861
-6.10397
-5.90331
-5.68161
-5.43819
-5.17408
-4.89179
-4.59507
-4.28848
-3.97706
-3.66599
-3.36034
-3.06485
-2.7837
-2.52035
-2.27731
-2.05606
-1.85702
-1.67968
-1.52285
-1.38483
-1.26362
-1.15711
-1.06319
-0.979839
-0.905216
-0.837673
-0.775783
-0.718326
-0.66428
-0.612788
-0.563142
-0.514755
-0.467129
-0.419898
-0.372625
-0.325303
-0.276814
-0.229091
-0.175212
-0.132149
-0.0514669
-0.0642615
-9.71078
-9.94939
-10.1947
-10.3633
-10.479
-10.5634
-10.6204
-10.6622
-10.7007
-10.7373
-10.7681
-10.7901
-10.8024
-10.8056
-10.8006
-10.7892
-10.7739
-10.7579
-10.7455
-10.7413
-10.7495
-10.7726
-10.8108
-10.8615
-10.9197
-10.9787
-11.0309
-11.0694
-11.0889
-11.0863
-11.0605
-11.0127
-10.9454
-10.8615
-10.7641
-10.6551
-10.5356
-10.4052
-10.2626
-10.1055
-9.93173
-9.73931
-9.5274
-9.29661
-9.04929
-8.78948
-8.52271
-8.25546
-7.99445
-7.74577
-7.51403
-7.30161
-7.10828
-6.93125
-6.76559
-6.60504
-6.44282
-6.2725
-6.08857
-5.88699
-5.66536
-5.42306
-5.16112
-4.88201
-4.58931
-4.28738
-3.98103
-3.67517
-3.37458
-3.08372
-2.80656
-2.54635
-2.30552
-2.08553
-1.88688
-1.7092
-1.55146
-1.41213
-1.28937
-1.18121
-1.08563
-1.00068
-0.924548
-0.855603
-0.79241
-0.733738
-0.678547
-0.625964
-0.575264
-0.525847
-0.477204
-0.428954
-0.380656
-0.332278
-0.28273
-0.233844
-0.178919
-0.134468
-0.0528233
-0.0650571
-9.77668
-9.95685
-10.1547
-10.3101
-10.4239
-10.5095
-10.5708
-10.6161
-10.6553
-10.6915
-10.7224
-10.7456
-10.7601
-10.7664
-10.7651
-10.758
-10.7472
-10.7358
-10.7274
-10.7256
-10.7339
-10.7543
-10.787
-10.8299
-10.8787
-10.9279
-10.971
-11.002
-11.0163
-11.0107
-10.9842
-10.9373
-10.872
-10.7905
-10.6953
-10.5882
-10.47
-10.3406
-10.1989
-10.043
-9.87125
-9.68197
-9.47455
-9.24966
-9.00946
-8.75765
-8.49921
-8.23995
-7.98592
-7.74258
-7.51411
-7.30277
-7.10849
-6.9289
-6.75966
-6.59513
-6.42909
-6.25554
-6.06932
-5.86659
-5.64507
-5.40417
-5.14485
-4.86942
-4.58129
-4.28455
-3.98373
-3.68346
-3.38826
-3.10235
-2.82945
-2.57267
-2.33434
-2.1159
-1.91791
-1.74013
-1.58165
-1.44111
-1.31681
-1.20691
-1.10951
-1.02274
-0.944855
-0.874248
-0.809501
-0.749379
-0.692835
-0.638981
-0.587078
-0.536513
-0.486764
-0.437436
-0.388081
-0.33864
-0.288057
-0.238045
-0.182209
-0.13639
-0.0545808
-0.0648013
-9.82499
-9.96763
-10.1293
-10.2687
-10.377
-10.4608
-10.5236
-10.5713
-10.6115
-10.6476
-10.6786
-10.7025
-10.7185
-10.7269
-10.7286
-10.7249
-10.7181
-10.7108
-10.7058
-10.7062
-10.7147
-10.7329
-10.7607
-10.7966
-10.837
-10.8771
-10.9116
-10.9353
-10.9442
-10.9353
-10.9075
-10.861
-10.7971
-10.7177
-10.6245
-10.5192
-10.4024
-10.274
-10.1333
-9.97878
-9.80904
-9.62286
-9.41985
-9.2007
-8.96746
-8.72347
-8.47322
-8.22192
-7.97492
-7.73711
-7.51223
-7.30232
-7.1074
-6.92545
-6.75267
-6.58403
-6.41395
-6.23695
-6.04828
-5.84436
-5.62305
-5.38375
-5.12732
-4.85589
-4.57261
-4.2813
-3.98621
-3.69167
-3.40196
-3.12104
-2.85248
-2.59921
-2.36349
-2.14673
-1.94954
-1.77179
-1.6127
-1.47104
-1.34525
-1.23362
-1.13435
-1.04567
-0.965888
-0.893451
-0.826968
-0.765218
-0.707152
-0.651878
-0.598646
-0.546831
-0.495898
-0.44544
-0.395001
-0.344494
-0.2929
-0.241808
-0.185185
-0.138034
-0.0567756
-0.0636545
-9.86124
-9.97818
-10.112
-10.2349
-10.3359
-10.4167
-10.4797
-10.529
-10.57
-10.6059
-10.6366
-10.6608
-10.6778
-10.6878
-10.6917
-10.691
-10.6875
-10.6834
-10.6812
-10.6834
-10.6919
-10.708
-10.7317
-10.7614
-10.7944
-10.8265
-10.8532
-10.8703
-10.874
-10.8617
-10.8323
-10.7857
-10.7227
-10.6447
-10.5532
-10.4494
-10.3339
-10.2067
-10.0671
-9.91411
-9.74651
-9.56346
-9.36476
-9.15117
-8.9246
-8.6881
-8.44568
-8.20198
-7.96178
-7.72939
-7.50816
-7.2999
-7.10469
-6.92076
-6.74481
-6.57239
-6.3985
-6.21823
-6.02725
-5.82226
-5.60127
-5.36368
-5.11024
-4.84289
-4.5645
-4.27864
-3.98923
-3.70037
-3.41607
-3.14009
-2.8758
-2.62603
-2.39292
-2.17788
-1.98157
-1.80392
-1.64428
-1.50156
-1.37433
-1.26098
-1.15983
-1.06919
-0.987443
-0.91308
-0.844749
-0.781249
-0.721541
-0.664732
-0.610069
-0.556917
-0.504732
-0.453094
-0.401543
-0.349961
-0.297374
-0.245236
-0.187927
-0.139474
-0.0593399
-0.0617903
-9.88874
-9.98703
-10.0993
-10.2072
-10.3001
-10.377
-10.439
-10.4888
-10.5302
-10.5659
-10.5961
-10.6203
-10.6379
-10.6493
-10.6551
-10.6568
-10.656
-10.6545
-10.6544
-10.6577
-10.6659
-10.68
-10.6999
-10.7243
-10.7508
-10.7758
-10.7958
-10.8068
-10.8057
-10.7902
-10.759
-10.7119
-10.6495
-10.5726
-10.4826
-10.3802
-10.266
-10.14
-10.0017
-9.85038
-9.68506
-9.50519
-9.31073
-9.10249
-8.88226
-8.65282
-8.41777
-8.18123
-7.94743
-7.72022
-7.50254
-7.29603
-7.10077
-6.91525
-6.73657
-6.56081
-6.38354
-6.20033
-6.0073
-5.80142
-5.58085
-5.34501
-5.09453
-4.83118
-4.55758
-4.27701
-3.99314
-3.70978
-3.43073
-3.15954
-2.89943
-2.65307
-2.42256
-2.20926
-2.01386
-1.83636
-1.67624
-1.5325
-1.40385
-1.28881
-1.18578
-1.09316
-1.0094
-0.933059
-0.862813
-0.797487
-0.736055
-0.677632
-0.621462
-0.566905
-0.513412
-0.46055
-0.407855
-0.355182
-0.301606
-0.24844
-0.190513
-0.14077
-0.0621395
-0.0594057
-9.90967
-9.99386
-10.0894
-10.184
-10.2688
-10.3411
-10.4012
-10.4506
-10.4918
-10.527
-10.5568
-10.5809
-10.599
-10.6114
-10.6189
-10.6226
-10.6239
-10.6244
-10.6258
-10.6297
-10.6374
-10.6495
-10.6659
-10.6855
-10.7062
-10.7251
-10.7389
-10.7445
-10.739
-10.7204
-10.6874
-10.6397
-10.5775
-10.5016
-10.4127
-10.3116
-10.1988
-10.0741
-9.93739
-9.78789
-9.62502
-9.4484
-9.25814
-9.05508
-8.84089
-8.6181
-8.38994
-8.16009
-7.9323
-7.70996
-7.49568
-7.29094
-7.09583
-6.90905
-6.72806
-6.54942
-6.3692
-6.18344
-5.98864
-5.78207
-5.56202
-5.32793
-5.08036
-4.82089
-4.5519
-4.27644
-3.9979
-3.71986
-3.44588
-3.17934
-2.92328
-2.68027
-2.45231
-2.24074
-2.04627
-1.86898
-1.70842
-1.56372
-1.4337
-1.31698
-1.21208
-1.11748
-1.0317
-0.953346
-0.881146
-0.813948
-0.750743
-0.690652
-0.632923
-0.576913
-0.522068
-0.467945
-0.414078
-0.360297
-0.305725
-0.251537
-0.193026
-0.141989
-0.0650251
-0.0567318
-9.92555
-9.99872
-10.081
-10.1642
-10.2411
-10.3085
-10.3659
-10.4142
-10.4548
-10.4894
-10.5187
-10.5425
-10.561
-10.5743
-10.5831
-10.5884
-10.5913
-10.5933
-10.5958
-10.6
-10.6069
-10.617
-10.6302
-10.6454
-10.6609
-10.6743
-10.6827
-10.6833
-10.6738
-10.6523
-10.6175
-10.569
-10.5068
-10.4315
-10.3437
-10.2439
-10.1323
-10.0091
-9.87402
-9.72653
-9.56624
-9.39293
-9.20683
-9.00879
-8.80036
-8.58386
-8.36218
-8.13859
-7.91641
-7.69865
-7.48762
-7.28464
-7.08983
-6.90207
-6.71915
-6.53804
-6.35526
-6.16731
-5.97103
-5.76396
-5.54454
-5.31222
-5.0675
-4.81177
-4.54726
-4.27672
-4.00334
-3.73044
-3.4614
-3.19938
-2.94727
-2.70752
-2.48207
-2.27222
-2.0787
-1.90165
-1.7407
-1.59509
-1.46375
-1.34539
-1.23864
-1.14206
-1.05426
-0.97389
-0.899716
-0.830621
-0.765612
-0.703823
-0.644502
-0.587008
-0.530782
-0.475372
-0.420312
-0.365407
-0.309832
-0.25462
-0.195537
-0.143204
-0.0678719
-0.054016
-9.93744
-10.0018
-10.0735
-10.1468
-10.2163
-10.2787
-10.3331
-10.3796
-10.4192
-10.453
-10.4816
-10.5052
-10.5239
-10.5378
-10.5476
-10.5541
-10.5583
-10.5614
-10.5645
-10.5687
-10.5747
-10.5829
-10.593
-10.6043
-10.6151
-10.6234
-10.6269
-10.6231
-10.6099
-10.5856
-10.549
-10.4996
-10.4374
-10.3626
-10.2756
-10.1769
-10.0667
-9.94496
-9.81157
-9.6662
-9.50856
-9.33859
-9.15658
-8.96339
-8.76048
-8.54993
-8.33434
-8.11662
-7.89971
-7.68627
-7.47835
-7.27714
-7.08275
-6.89425
-6.70972
-6.5265
-6.34154
-6.15172
-5.95422
-5.74683
-5.52812
-5.29759
-5.05565
-4.80359
-4.5434
-4.27765
-4.00926
-3.74138
-3.47713
-3.21951
-2.97127
-2.73473
-2.51175
-2.30362
-2.11107
-1.93429
-1.773
-1.62652
-1.49389
-1.37394
-1.26537
-1.16684
-1.07702
-0.994628
-0.918472
-0.847465
-0.780635
-0.717128
-0.656197
-0.597199
-0.539574
-0.482862
-0.426597
-0.37056
-0.313979
-0.257745
-0.198088
-0.144468
-0.070596
-0.0514801
-9.94608
-10.0031
-10.0662
-10.1312
-10.1938
-10.2513
-10.3023
-10.3467
-10.3849
-10.4178
-10.4457
-10.4689
-10.4876
-10.5019
-10.5124
-10.5198
-10.5249
-10.5288
-10.5322
-10.5361
-10.5411
-10.5474
-10.5547
-10.5623
-10.5689
-10.5727
-10.5717
-10.5638
-10.5472
-10.5202
-10.4818
-10.4315
-10.3691
-10.2947
-10.2085
-10.1108
-10.0019
-9.88164
-9.75003
-9.60684
-9.4519
-9.28525
-9.10725
-8.91874
-8.72108
-8.51617
-8.30632
-8.09411
-7.88216
-7.67281
-7.46789
-7.26843
-7.0746
-6.88559
-6.69974
-6.51475
-6.32793
-6.13653
-5.93805
-5.73049
-5.51259
-5.28385
-5.04465
-4.79615
-4.54017
-4.27906
-4.01554
-3.75253
-3.49295
-3.23965
-2.99519
-2.76181
-2.54128
-2.33486
-2.14329
-1.96682
-1.80523
-1.65793
-1.52407
-1.40256
-1.2922
-1.19174
-1.09992
-1.0155
-0.937362
-0.864434
-0.795772
-0.730532
-0.667976
-0.607462
-0.548427
-0.490404
-0.432929
-0.375757
-0.31817
-0.260923
-0.200682
-0.145804
-0.0731447
-0.0492732
-9.95203
-10.003
-10.0589
-10.1167
-10.1732
-10.2259
-10.2735
-10.3155
-10.3521
-10.3838
-10.4109
-10.4336
-10.4521
-10.4666
-10.4775
-10.4855
-10.4913
-10.4955
-10.499
-10.5025
-10.5064
-10.5108
-10.5154
-10.5197
-10.5225
-10.5222
-10.5171
-10.5054
-10.4856
-10.4561
-10.4161
-10.3648
-10.3021
-10.2279
-10.1423
-10.0456
-9.93794
-9.81923
-9.68944
-9.54846
-9.39622
-9.23285
-9.05875
-8.87475
-8.68209
-8.48251
-8.27807
-8.07105
-7.86378
-7.65831
-7.45626
-7.25858
-7.06541
-6.8761
-6.68922
-6.50276
-6.31438
-6.12168
-5.92243
-5.71487
-5.49783
-5.2709
-5.03439
-4.78936
-4.53746
-4.28086
-4.02208
-3.7638
-3.50879
-3.2597
-3.01896
-2.78868
-2.57057
-2.36586
-2.1753
-1.99917
-1.83732
-1.68926
-1.5542
-1.43118
-1.31907
-1.21671
-1.1229
-1.03648
-0.95635
-0.881495
-0.81099
-0.744006
-0.679813
-0.617771
-0.557316
-0.497975
-0.439284
-0.380978
-0.322387
-0.264138
-0.203298
-0.14721
-0.07549
-0.0474633
-9.95573
-10.0016
-10.0514
-10.1031
-10.1541
-10.2023
-10.2464
-10.2859
-10.3207
-10.3511
-10.3772
-10.3992
-10.4174
-10.4318
-10.443
-10.4513
-10.4573
-10.4617
-10.4651
-10.468
-10.4707
-10.4732
-10.4754
-10.4766
-10.4759
-10.4718
-10.463
-10.4479
-10.4251
-10.3933
-10.3516
-10.2994
-10.2363
-10.1622
-10.0773
-9.98149
-9.875
-9.75779
-9.62983
-9.49107
-9.34152
-9.18137
-9.01106
-8.83137
-8.64348
-8.44894
-8.24958
-8.04745
-7.84458
-7.6428
-7.44352
-7.24761
-7.05523
-6.86581
-6.67815
-6.49052
-6.30089
-6.10714
-5.90734
-5.6999
-5.48382
-5.25869
-5.02483
-4.78317
-4.53524
-4.28301
-4.02881
-3.77515
-3.52458
-3.2796
-3.04249
-2.81527
-2.59956
-2.39656
-2.20702
-2.03126
-1.86921
-1.72043
-1.58424
-1.45975
-1.34593
-1.2417
-1.14593
-1.05751
-0.975405
-0.898623
-0.826268
-0.757531
-0.691689
-0.628107
-0.566222
-0.505556
-0.445645
-0.386206
-0.326611
-0.267373
-0.205911
-0.148672
-0.0776207
-0.0460515
-9.95751
-9.99899
-10.0436
-10.09
-10.1361
-10.1801
-10.2208
-10.2577
-10.2906
-10.3195
-10.3445
-10.3658
-10.3834
-10.3977
-10.4088
-10.4172
-10.4233
-10.4276
-10.4306
-10.4328
-10.4342
-10.435
-10.4348
-10.4332
-10.4292
-10.4218
-10.4096
-10.3914
-10.3658
-10.3318
-10.2885
-10.2353
-10.1718
-10.0978
-10.0133
-9.91843
-9.81311
-9.69738
-9.57125
-9.43469
-9.28781
-9.13081
-8.96416
-8.78861
-8.60524
-8.41545
-8.22088
-8.02335
-7.82463
-7.62634
-7.42975
-7.23562
-7.04411
-6.85478
-6.66659
-6.47807
-6.28745
-6.09291
-5.89274
-5.68558
-5.47051
-5.2472
-5.01593
-4.77755
-4.53346
-4.28547
-4.03571
-3.78652
-3.54027
-3.29929
-3.06575
-2.84153
-2.62819
-2.42689
-2.23839
-2.06305
-1.90082
-1.75138
-1.61411
-1.4882
-1.37273
-1.26666
-1.16896
-1.07857
-0.994499
-0.915795
-0.84159
-0.771093
-0.703595
-0.638464
-0.575139
-0.51314
-0.452003
-0.39143
-0.330829
-0.270614
-0.208505
-0.150175
-0.0795424
-0.0450039
-9.95765
-9.9953
-10.0355
-10.0772
-10.1189
-10.159
-10.1966
-10.2309
-10.2617
-10.2891
-10.3129
-10.3332
-10.3502
-10.3641
-10.3749
-10.3832
-10.3891
-10.3932
-10.3957
-10.397
-10.3971
-10.3962
-10.3938
-10.3895
-10.3826
-10.3721
-10.3569
-10.3357
-10.3077
-10.2716
-10.2268
-10.1725
-10.1086
-10.0346
-9.95063
-9.85653
-9.75234
-9.63808
-9.51375
-9.37938
-9.2351
-9.08117
-8.91805
-8.74645
-8.56736
-8.38206
-8.192
-7.99879
-7.80399
-7.60903
-7.41503
-7.22268
-7.03214
-6.84306
-6.65457
-6.46541
-6.27407
-6.07897
-5.87864
-5.67187
-5.45789
-5.23641
-5.00768
-4.77249
-4.53212
-4.28822
-4.04276
-3.79789
-3.55583
-3.31875
-3.08867
-2.86739
-2.65639
-2.45679
-2.26935
-2.09445
-1.93211
-1.78205
-1.64375
-1.51649
-1.3994
-1.29155
-1.19195
-1.09962
-1.0136
-0.932985
-0.856936
-0.78468
-0.71552
-0.648834
-0.584064
-0.520725
-0.458357
-0.396647
-0.335038
-0.273854
-0.21107
-0.151709
-0.0812709
-0.0442679
-9.95637
-9.99067
-10.027
-10.0647
-10.1024
-10.139
-10.1735
-10.2052
-10.234
-10.2597
-10.2822
-10.3015
-10.3178
-10.3311
-10.3415
-10.3494
-10.355
-10.3586
-10.3605
-10.3608
-10.3597
-10.357
-10.3525
-10.3458
-10.3362
-10.3229
-10.3048
-10.2811
-10.2507
-10.2127
-10.1664
-10.1112
-10.0468
-9.97284
-9.88922
-9.79587
-9.69278
-9.57995
-9.45739
-9.32517
-9.18344
-9.03248
-8.87274
-8.70491
-8.52988
-8.34881
-8.16299
-7.97383
-7.78273
-7.59094
-7.39945
-7.20888
-7.0194
-6.83072
-6.64214
-6.45258
-6.26076
-6.06533
-5.86501
-5.65877
-5.44595
-5.2263
-5.00006
-4.76798
-4.53119
-4.29124
-4.04993
-3.80924
-3.57123
-3.33793
-3.11123
-2.89282
-2.68411
-2.48621
-2.29984
-2.12541
-1.96299
-1.81238
-1.67311
-1.54455
-1.4259
-1.31631
-1.21486
-1.12061
-1.03267
-0.950165
-0.872282
-0.798272
-0.727453
-0.65921
-0.59299
-0.528308
-0.464706
-0.401859
-0.339238
-0.277092
-0.213605
-0.153268
-0.082831
-0.0437888
-9.95387
-9.98521
-10.0182
-10.0523
-10.0865
-10.1198
-10.1514
-10.1807
-10.2074
-10.2314
-10.2525
-10.2707
-10.2861
-10.2987
-10.3085
-10.3159
-10.321
-10.324
-10.3251
-10.3244
-10.3219
-10.3176
-10.3112
-10.3022
-10.2901
-10.2742
-10.2536
-10.2274
-10.1949
-10.1551
-10.1074
-10.0514
-9.98645
-9.91244
-9.82917
-9.73654
-9.6345
-9.52306
-9.40223