/*--------------------------------*- C++ -*----------------------------------*\
  =========                 |
  \\      /  F ield         | OpenFOAM: The Open Source CFD Toolbox
   \\    /   O peration     | Website:  https://openfoam.org
    \\  /    A nd           | Version:  10
     \\/     M anipulation  |
\*---------------------------------------------------------------------------*/
FoamFile
{
    format      ascii;
    class       surfaceScalarField;
    location    "1000";
    object      phi;
}
// * * * * * * * * * * * * * * * * * * * * * * * * * * * * * * * * * * * * * //

dimensions      [0 3 -1 0 0 0 0];

internalField   nonuniform List<scalar> 
13452
(
6.02918e-05
-2.33563e-08
5.99931e-05
2.98747e-07
5.9588e-05
4.05042e-07
5.91126e-05
4.75402e-07
5.86066e-05
5.05997e-07
5.81234e-05
4.83199e-07
5.76851e-05
4.38371e-07
5.72918e-05
3.93234e-07
5.69382e-05
3.53577e-07
5.66185e-05
3.19744e-07
5.63273e-05
2.91235e-07
5.60599e-05
2.6734e-07
5.58127e-05
2.47251e-07
5.55824e-05
2.30242e-07
5.53667e-05
2.15747e-07
5.51633e-05
2.03356e-07
5.49706e-05
1.92775e-07
5.47867e-05
1.83809e-07
5.46104e-05
1.76347e-07
5.444e-05
1.70357e-07
5.42742e-05
1.6589e-07
5.41111e-05
1.63095e-07
5.39488e-05
1.6225e-07
5.3785e-05
1.63818e-07
5.36165e-05
1.6853e-07
5.34388e-05
1.77673e-07
5.32459e-05
1.92897e-07
5.30285e-05
2.17434e-07
5.27686e-05
2.5985e-07
5.2439e-05
3.29627e-07
5.19615e-05
4.77439e-07
5.13942e-05
5.6732e-07
1.21161e-06
5.01826e-05
6.21471e-05
-1.80166e-07
6.2173e-05
2.72859e-07
6.21946e-05
3.83427e-07
6.22105e-05
4.59513e-07
6.22098e-05
5.06703e-07
6.21786e-05
5.14382e-07
6.21156e-05
5.01444e-07
6.20268e-05
4.82031e-07
6.19199e-05
4.6047e-07
6.18014e-05
4.38206e-07
6.16763e-05
4.16398e-07
6.15478e-05
3.95813e-07
6.14183e-05
3.76772e-07
6.12892e-05
3.59351e-07
6.11614e-05
3.43545e-07
6.10354e-05
3.29329e-07
6.09115e-05
3.16677e-07
6.07897e-05
3.05582e-07
6.067e-05
2.96074e-07
6.05521e-05
2.88234e-07
6.04358e-05
2.82212e-07
6.03206e-05
2.78256e-07
6.02061e-05
2.76753e-07
6.00916e-05
2.78295e-07
5.99764e-05
2.83787e-07
5.98594e-05
2.9469e-07
5.9739e-05
3.13261e-07
5.96142e-05
3.42276e-07
5.94799e-05
3.94068e-07
5.93343e-05
4.75278e-07
5.9199e-05
6.12693e-07
5.9013e-05
7.53356e-07
1.23735e-06
5.89873e-05
6.36686e-05
-8.73307e-08
6.37271e-05
2.14293e-07
6.37868e-05
3.2378e-07
6.38496e-05
3.96699e-07
6.39035e-05
4.5281e-07
6.3939e-05
4.78849e-07
6.39561e-05
4.84405e-07
6.39573e-05
4.80745e-07
6.39455e-05
4.72316e-07
6.39229e-05
4.60852e-07
6.38915e-05
4.47763e-07
6.38532e-05
4.34136e-07
6.38093e-05
4.2062e-07
6.37611e-05
4.07591e-07
6.37093e-05
3.95302e-07
6.36547e-05
3.83948e-07
6.35977e-05
3.73691e-07
6.35386e-05
3.64686e-07
6.34776e-05
3.57108e-07
6.34146e-05
3.51175e-07
6.33496e-05
3.47175e-07
6.32824e-05
3.45505e-07
6.32124e-05
3.46724e-07
6.31391e-05
3.51629e-07
6.30615e-05
3.61397e-07
6.29784e-05
3.77772e-07
6.28881e-05
4.036e-07
6.27882e-05
4.4213e-07
6.26775e-05
5.04805e-07
6.25563e-05
5.96484e-07
6.24342e-05
7.34756e-07
6.22741e-05
9.13456e-07
1.25076e-06
6.22607e-05
6.55167e-05
-2.09799e-08
6.55574e-05
1.7362e-07
6.55938e-05
2.87352e-07
6.5634e-05
3.56484e-07
6.56754e-05
4.11431e-07
6.57111e-05
4.43154e-07
6.57395e-05
4.56047e-07
6.57607e-05
4.59465e-07
6.57752e-05
4.57843e-07
6.57833e-05
4.52802e-07
6.57855e-05
4.45567e-07
6.57824e-05
4.37164e-07
6.57748e-05
4.28279e-07
6.5763e-05
4.19354e-07
6.57476e-05
4.10725e-07
6.57289e-05
4.02671e-07
6.57071e-05
3.95446e-07
6.56825e-05
3.89294e-07
6.56551e-05
3.84482e-07
6.5625e-05
3.81322e-07
6.5592e-05
3.80206e-07
6.55558e-05
3.81644e-07
6.55162e-05
3.86324e-07
6.54726e-05
3.95192e-07
6.54245e-05
4.09593e-07
6.53708e-05
4.31434e-07
6.53107e-05
4.63657e-07
6.5243e-05
5.09815e-07
6.51694e-05
5.78467e-07
6.50921e-05
6.73778e-07
6.50205e-05
8.0636e-07
6.4953e-05
9.80897e-07
1.24003e-06
6.49638e-05
6.74274e-05
8.43818e-09
6.74474e-05
1.53622e-07
6.74703e-05
2.64439e-07
6.74976e-05
3.29209e-07
6.75297e-05
3.79296e-07
6.7561e-05
4.11831e-07
6.75889e-05
4.28131e-07
6.76131e-05
4.35319e-07
6.76334e-05
4.37504e-07
6.765e-05
4.36244e-07
6.76629e-05
4.32646e-07
6.76724e-05
4.27678e-07
6.76786e-05
4.22019e-07
6.76819e-05
4.16129e-07
6.76822e-05
4.10368e-07
6.76798e-05
4.05051e-07
6.76748e-05
4.0047e-07
6.76672e-05
3.96916e-07
6.7657e-05
3.94707e-07
6.76441e-05
3.94214e-07
6.76284e-05
3.95891e-07
6.76097e-05
4.00316e-07
6.75878e-05
4.08248e-07
6.75623e-05
4.20703e-07
6.75328e-05
4.39069e-07
6.7499e-05
4.65233e-07
6.74608e-05
5.01897e-07
6.74182e-05
5.52335e-07
6.73743e-05
6.22389e-07
6.73328e-05
7.15317e-07
6.7302e-05
8.37145e-07
6.729e-05
9.92898e-07
1.19373e-06
6.73363e-05
6.93698e-05
2.26989e-08
6.93821e-05
1.41333e-07
6.9403e-05
2.43525e-07
6.94263e-05
3.05881e-07
6.94531e-05
3.52499e-07
6.94801e-05
3.84862e-07
6.95051e-05
4.03118e-07
6.95278e-05
4.12567e-07
6.95483e-05
4.17014e-07
6.95665e-05
4.18057e-07
6.95824e-05
4.16759e-07
6.9596e-05
4.14042e-07
6.96075e-05
4.10581e-07
6.96167e-05
4.06844e-07
6.96239e-05
4.03205e-07
6.9629e-05
3.99995e-07
6.96319e-05
3.97525e-07
6.96327e-05
3.96113e-07
6.96313e-05
3.96105e-07
6.96276e-05
3.979e-07
6.96215e-05
4.01984e-07
6.96129e-05
4.08964e-07
6.96015e-05
4.19616e-07
6.95873e-05
4.34947e-07
6.95701e-05
4.56277e-07
6.955e-05
4.85327e-07
6.95275e-05
5.24363e-07
6.95038e-05
5.76035e-07
6.94821e-05
6.4408e-07
6.94667e-05
7.30686e-07
6.94651e-05
8.38809e-07
6.94873e-05
9.70727e-07
1.12407e-06
6.95569e-05
7.13587e-05
3.03669e-08
7.13689e-05
1.31098e-07
7.13891e-05
2.23334e-07
7.14109e-05
2.84089e-07
7.14348e-05
3.28603e-07
7.14591e-05
3.60586e-07
7.1482e-05
3.80176e-07
7.15033e-05
3.91285e-07
7.15229e-05
3.9735e-07
7.1541e-05
4.00026e-07
7.15574e-05
4.00359e-07
7.15722e-05
3.99246e-07
7.15854e-05
3.97366e-07
7.1597e-05
3.95204e-07
7.16071e-05
3.93151e-07
7.16155e-05
3.91551e-07
7.16223e-05
3.90733e-07
7.16274e-05
3.91027e-07
7.16307e-05
3.92793e-07
7.16322e-05
3.96443e-07
7.16317e-05
4.02468e-07
7.16292e-05
4.11468e-07
7.16246e-05
4.2419e-07
7.1618e-05
4.41571e-07
7.16095e-05
4.64786e-07
7.15995e-05
4.95282e-07
7.15891e-05
5.3482e-07
7.15798e-05
5.85314e-07
7.15749e-05
6.48961e-07
7.15787e-05
7.26895e-07
7.15976e-05
8.19911e-07
7.16407e-05
9.27642e-07
1.04319e-06
7.17216e-05
7.34018e-05
3.38566e-08
7.3411e-05
1.21866e-07
7.34296e-05
2.04744e-07
7.34503e-05
2.6343e-07
7.34726e-05
3.06309e-07
7.34954e-05
3.37773e-07
7.35172e-05
3.5834e-07
7.35376e-05
3.70854e-07
7.35567e-05
3.78297e-07
7.35744e-05
3.82329e-07
7.35908e-05
3.83995e-07
7.36058e-05
3.84171e-07
7.36196e-05
3.83544e-07
7.36322e-05
3.82624e-07
7.36436e-05
3.81818e-07
7.36536e-05
3.81489e-07
7.36624e-05
3.81975e-07
7.36698e-05
3.83618e-07
7.36758e-05
3.86781e-07
7.36804e-05
3.91875e-07
7.36835e-05
3.99374e-07
7.36851e-05
4.09847e-07
7.36853e-05
4.23975e-07
7.36843e-05
4.4258e-07
7.36824e-05
4.6664e-07
7.36804e-05
4.97285e-07
7.36795e-05
5.35769e-07
7.36815e-05
5.83312e-07
7.36894e-05
6.40998e-07
7.37073e-05
7.09053e-07
7.37404e-05
7.86842e-07
7.37957e-05
8.72348e-07
9.57981e-07
7.38809e-05
7.55016e-05
3.46836e-08
7.55102e-05
1.13339e-07
7.5527e-05
1.8789e-07
7.55466e-05
2.43846e-07
7.55677e-05
2.85178e-07
7.55895e-05
3.15995e-07
7.56107e-05
3.37196e-07
7.56306e-05
3.50873e-07
7.56494e-05
3.59526e-07
7.5667e-05
3.64759e-07
7.56834e-05
3.67606e-07
7.56986e-05
3.68916e-07
7.57128e-05
3.69377e-07
7.57259e-05
3.69514e-07
7.5738e-05
3.69754e-07
7.5749e-05
3.70471e-07
7.57589e-05
3.72015e-07
7.57678e-05
3.7473e-07
7.57756e-05
3.78977e-07
7.57824e-05
3.85149e-07
7.5788e-05
3.93694e-07
7.57928e-05
4.05123e-07
7.57967e-05
4.2003e-07
7.58002e-05
4.39093e-07
7.58038e-05
4.63073e-07
7.58083e-05
4.9278e-07
7.5815e-05
5.29007e-07
7.5826e-05
5.72387e-07
7.58437e-05
6.23213e-07
7.58718e-05
6.81025e-07
7.59142e-05
7.44359e-07
7.59761e-05
8.10471e-07
8.7248e-07
7.60616e-05
7.76603e-05
3.39702e-08
7.76684e-05
1.05274e-07
7.76837e-05
1.72558e-07
7.77022e-05
2.25361e-07
7.77223e-05
2.65099e-07
7.77431e-05
2.95138e-07
7.77637e-05
3.16632e-07
7.77834e-05
3.31189e-07
7.7802e-05
3.40863e-07
7.78196e-05
3.4715e-07
7.78362e-05
3.51053e-07
7.78517e-05
3.53387e-07
7.78663e-05
3.54826e-07
7.78799e-05
3.55904e-07
7.78926e-05
3.57056e-07
7.79044e-05
3.58664e-07
7.79153e-05
3.6108e-07
7.79254e-05
3.64647e-07
7.79347e-05
3.69713e-07
7.79432e-05
3.76647e-07
7.7951e-05
3.85852e-07
7.79584e-05
3.97772e-07
7.79655e-05
4.12896e-07
7.79728e-05
4.3175e-07
7.7981e-05
4.54878e-07
7.7991e-05
4.82794e-07
7.80041e-05
5.15905e-07
7.80221e-05
5.54379e-07
7.80474e-05
5.97976e-07
7.80826e-05
6.45784e-07
7.8131e-05
6.95964e-07
7.81958e-05
7.45659e-07
7.89092e-07
7.82792e-05
7.98799e-05
3.24171e-08
7.98876e-05
9.75351e-08
7.99016e-05
1.58516e-07
7.9919e-05
2.07976e-07
7.99381e-05
2.46005e-07
7.99581e-05
2.75139e-07
7.99781e-05
2.96626e-07
7.99975e-05
3.11777e-07
8.00161e-05
3.22262e-07
8.00339e-05
3.29437e-07
8.00506e-05
3.34259e-07
8.00665e-05
3.37503e-07
8.00815e-05
3.39817e-07
8.00957e-05
3.4173e-07
8.01091e-05
3.43679e-07
8.01217e-05
3.46045e-07
8.01336e-05
3.49177e-07
8.01449e-05
3.53405e-07
8.01555e-05
3.59057e-07
8.01657e-05
3.6647e-07
8.01755e-05
3.75993e-07
8.01853e-05
3.87994e-07
8.01954e-05
4.02852e-07
8.02062e-05
4.20943e-07
8.02184e-05
4.42611e-07
8.02331e-05
4.68115e-07
8.02515e-05
4.97558e-07
8.02751e-05
5.30768e-07
8.03059e-05
5.67171e-07
8.03461e-05
6.05614e-07
8.03978e-05
6.44188e-07
8.04632e-05
6.8026e-07
7.09162e-07
8.05432e-05
8.21624e-05
3.0435e-08
8.21699e-05
9.00813e-08
8.21828e-05
1.45559e-07
8.21992e-05
1.91637e-07
8.22174e-05
2.27826e-07
8.22366e-05
2.5593e-07
8.2256e-05
2.77166e-07
8.22752e-05
2.92643e-07
8.22937e-05
3.03725e-07
8.23115e-05
3.11611e-07
8.23286e-05
3.17202e-07
8.23449e-05
3.21225e-07
8.23604e-05
3.24298e-07
8.23752e-05
3.26934e-07
8.23893e-05
3.29562e-07
8.24028e-05
3.32555e-07
8.24157e-05
3.3625e-07
8.24281e-05
3.40959e-07
8.24402e-05
3.46984e-07
8.24521e-05
3.54618e-07
8.24639e-05
3.64155e-07
8.2476e-05
3.75882e-07
8.24888e-05
3.9007e-07
8.25028e-05
4.06957e-07
8.25187e-05
4.26715e-07
8.25374e-05
4.49399e-07
8.25601e-05
4.74881e-07
8.25881e-05
5.02768e-07
8.26229e-05
5.32301e-07
8.26663e-05
5.62253e-07
8.27197e-05
5.90825e-07
8.27842e-05
6.1576e-07
6.33362e-07
8.286e-05
8.45099e-05
2.82627e-08
8.45171e-05
8.29073e-08
8.45292e-05
1.33506e-07
8.45446e-05
1.76253e-07
8.45619e-05
2.10485e-07
8.45804e-05
2.37443e-07
8.45993e-05
2.58222e-07
8.46182e-05
2.73785e-07
8.46367e-05
2.85253e-07
8.46546e-05
2.93673e-07
8.46719e-05
2.99875e-07
8.46886e-05
3.04539e-07
8.47047e-05
3.08243e-07
8.47201e-05
3.11479e-07
8.4735e-05
3.1466e-07
8.47494e-05
3.18144e-07
8.47634e-05
3.22248e-07
8.47771e-05
3.27263e-07
8.47907e-05
3.33456e-07
8.48042e-05
3.41077e-07
8.4818e-05
3.50358e-07
8.48324e-05
3.61508e-07
8.48477e-05
3.74702e-07
8.48646e-05
3.90055e-07
8.48838e-05
4.07597e-07
8.49059e-05
4.2723e-07
8.49321e-05
4.48671e-07
8.49635e-05
4.71396e-07
8.50012e-05
4.94573e-07
8.50465e-05
5.17015e-07
8.51002e-05
5.3713e-07
8.51629e-05
5.53068e-07
5.61951e-07
8.52343e-05
8.69244e-05
2.60354e-08
8.69313e-05
7.6014e-08
8.69426e-05
1.2221e-07
8.69571e-05
1.61721e-07
8.69737e-05
1.93906e-07
8.69915e-05
2.19603e-07
8.701e-05
2.39749e-07
8.70286e-05
2.55183e-07
8.7047e-05
2.66838e-07
8.70651e-05
2.75616e-07
8.70827e-05
2.82272e-07
8.70998e-05
2.87431e-07
8.71164e-05
2.91633e-07
8.71325e-05
2.95339e-07
8.71483e-05
2.9894e-07
8.71636e-05
3.02775e-07
8.71787e-05
3.07137e-07
8.71937e-05
3.12287e-07
8.72087e-05
3.18457e-07
8.72239e-05
3.25851e-07
8.72397e-05
3.34643e-07
8.72562e-05
3.4497e-07
8.7274e-05
3.56919e-07
8.72935e-05
3.70507e-07
8.73155e-05
3.85656e-07
8.73405e-05
4.02157e-07
8.73696e-05
4.19636e-07
8.74035e-05
4.37511e-07
8.74431e-05
4.54957e-07
8.74892e-05
4.70892e-07
8.75424e-05
4.83968e-07
8.76027e-05
4.92723e-07
4.94939e-07
8.76697e-05
8.94077e-05
2.38255e-08
8.94144e-05
6.9398e-08
8.9425e-05
1.11547e-07
8.94388e-05
1.47934e-07
8.94547e-05
1.78006e-07
8.9472e-05
2.02334e-07
8.949e-05
2.21691e-07
8.95084e-05
2.36806e-07
8.95268e-05
2.4846e-07
8.9545e-05
2.57425e-07
8.95629e-05
2.64377e-07
8.95804e-05
2.69887e-07
8.95976e-05
2.7445e-07
8.96145e-05
2.78493e-07
8.9631e-05
2.82381e-07
8.96474e-05
2.86426e-07
8.96636e-05
2.90896e-07
8.96799e-05
2.96021e-07
8.96963e-05
3.01995e-07
8.97132e-05
3.08976e-07
8.97308e-05
3.17084e-07
8.97493e-05
3.26394e-07
8.97693e-05
3.3692e-07
8.97912e-05
3.48603e-07
8.98156e-05
3.61287e-07
8.98431e-05
3.74696e-07
8.98743e-05
3.88412e-07
8.991e-05
4.01846e-07
8.99507e-05
4.14232e-07
8.99969e-05
4.24628e-07
9.0049e-05
4.3193e-07
9.01067e-05
4.35018e-07
4.32198e-07
9.01694e-05
9.1962e-05
2.16685e-08
9.19684e-05
6.30477e-08
9.19785e-05
1.01419e-07
9.19916e-05
1.34786e-07
9.20069e-05
1.627e-07
9.20237e-05
1.85559e-07
9.20414e-05
2.03988e-07
9.20596e-05
2.18612e-07
9.2078e-05
2.30089e-07
9.20963e-05
2.39077e-07
9.21145e-05
2.46172e-07
9.21325e-05
2.51887e-07
9.21503e-05
2.56674e-07
9.21679e-05
2.60922e-07
9.21853e-05
2.64964e-07
9.22026e-05
2.69085e-07
9.222e-05
2.73523e-07
9.22376e-05
2.78474e-07
9.22555e-05
2.84098e-07
9.22739e-05
2.90509e-07
9.22932e-05
2.97781e-07
9.23137e-05
3.05934e-07
9.23357e-05
3.14927e-07
9.23596e-05
3.24644e-07
9.2386e-05
3.34882e-07
9.24154e-05
3.45329e-07
9.24483e-05
3.55559e-07
9.24851e-05
3.65017e-07
9.25263e-05
3.7302e-07
9.25722e-05
3.78777e-07
9.26227e-05
3.81413e-07
9.26776e-05
3.80089e-07
3.73525e-07
9.27363e-05
9.45892e-05
1.95783e-08
9.45954e-05
5.69445e-08
9.4605e-05
9.17394e-08
9.46176e-05
1.22179e-07
9.46324e-05
1.47904e-07
9.46488e-05
1.69202e-07
9.46662e-05
1.86575e-07
9.46843e-05
2.00553e-07
9.47027e-05
2.11689e-07
9.47212e-05
2.20542e-07
9.47397e-05
2.27629e-07
9.47582e-05
2.3341e-07
9.47766e-05
2.38286e-07
9.47949e-05
2.42608e-07
9.48132e-05
2.46678e-07
9.48315e-05
2.50746e-07
9.485e-05
2.55022e-07
9.48688e-05
2.59671e-07
9.48881e-05
2.64814e-07
9.49081e-05
2.70532e-07
9.4929e-05
2.76856e-07
9.49512e-05
2.83764e-07
9.4975e-05
2.91173e-07
9.50007e-05
2.98933e-07
9.50287e-05
3.06813e-07
9.50596e-05
3.14495e-07
9.50936e-05
3.2157e-07
9.5131e-05
3.27536e-07
9.51722e-05
3.3181e-07
9.52173e-05
3.33746e-07
9.5266e-05
3.32668e-07
9.53181e-05
3.27968e-07
3.18686e-07
9.5373e-05
9.72915e-05
1.75568e-08
9.72974e-05
5.10637e-08
9.73067e-05
8.24358e-08
9.73189e-05
1.10023e-07
9.73333e-05
1.33532e-07
9.73493e-05
1.53185e-07
9.73665e-05
1.69386e-07
9.73844e-05
1.82575e-07
9.74029e-05
1.93217e-07
9.74217e-05
2.01785e-07
9.74406e-05
2.08722e-07
9.74595e-05
2.14431e-07
9.74786e-05
2.19266e-07
9.74976e-05
2.23539e-07
9.75168e-05
2.27515e-07
9.75361e-05
2.31414e-07
9.75557e-05
2.35414e-07
9.75758e-05
2.39649e-07
9.75964e-05
2.44209e-07
9.76178e-05
2.49142e-07
9.76402e-05
2.54446e-07
9.76639e-05
2.60067e-07
9.76891e-05
2.65897e-07
9.77163e-05
2.71764e-07
9.77457e-05
2.77431e-07
9.77776e-05
2.8259e-07
9.78123e-05
2.86867e-07
9.785e-05
2.89826e-07
9.78908e-05
2.90982e-07
9.79348e-05
2.89825e-07
9.79816e-05
2.85846e-07
9.80309e-05
2.78618e-07
2.67429e-07
9.80822e-05
0.000100071
1.55994e-08
0.000100077
4.53771e-08
0.000100086
7.34421e-08
0.000100098
9.82316e-08
0.000100112
1.19502e-07
0.000100127
1.37435e-07
0.000100144
1.52352e-07
0.000100162
1.64621e-07
0.000100181
1.74628e-07
0.0001002
1.82768e-07
0.000100219
1.89418e-07
0.000100239
1.94925e-07
0.000100258
1.99597e-07
0.000100278
2.03704e-07
0.000100298
2.07476e-07
0.000100319
2.11101e-07
0.000100339
2.14727e-07
0.00010036
2.18458e-07
0.000100382
2.22359e-07
0.000100405
2.26447e-07
0.000100429
2.30697e-07
0.000100454
2.35034e-07
0.00010048
2.39333e-07
0.000100509
2.43416e-07
0.000100539
2.47053e-07
0.000100572
2.49959e-07
0.000100607
2.51806e-07
0.000100644
2.52225e-07
0.000100684
2.50826e-07
0.000100727
2.47215e-07
0.000100772
2.41022e-07
0.000100819
2.3196e-07
2.19507e-07
0.000100867
0.00010293
1.36982e-08
0.000102935
3.98544e-08
0.000102944
6.46982e-08
0.000102956
8.67283e-08
0.00010297
1.05736e-07
0.000102985
1.21874e-07
0.000103002
1.35407e-07
0.00010302
1.46633e-07
0.000103039
1.55872e-07
0.000103058
1.63451e-07
0.000103078
1.69686e-07
0.000103098
1.74869e-07
0.000103118
1.79262e-07
0.000103139
1.83096e-07
0.00010316
1.86566e-07
0.000103181
1.89827e-07
0.000103203
1.92999e-07
0.000103225
1.9616e-07
0.000103248
1.9935e-07
0.000103272
2.02565e-07
0.000103297
2.05762e-07
0.000103323
2.08853e-07
0.000103351
2.11706e-07
0.00010338
2.14149e-07
0.000103411
2.15966e-07
0.000103444
2.16904e-07
0.000103479
2.16684e-07
0.000103516
2.15003e-07
0.000103556
2.11555e-07
0.000103597
2.06048e-07
0.00010364
1.98219e-07
0.000103684
1.87889e-07
1.7468e-07
0.000103729
0.000105871
1.18436e-08
0.000105876
3.44648e-08
0.000105885
5.61485e-08
0.000105896
7.54403e-08
0.000105909
9.21552e-08
0.000105925
1.06429e-07
0.000105942
1.18479e-07
0.00010596
1.28548e-07
0.000105979
1.36897e-07
0.000105998
1.43791e-07
0.000106019
1.4949e-07
0.000106039
1.54236e-07
0.00010606
1.58247e-07
0.000106082
1.61713e-07
0.000106103
1.64794e-07
0.000106126
1.67618e-07
0.000106148
1.70275e-07
0.000106172
1.72821e-07
0.000106196
1.75275e-07
0.000106221
1.77618e-07
0.000106247
1.79792e-07
0.000106274
1.81706e-07
0.000106302
1.83229e-07
0.000106332
1.84198e-07
0.000106364
1.8442e-07
0.000106397
1.83679e-07
0.000106432
1.81741e-07
0.000106469
1.78367e-07
0.000106507
1.73323e-07
0.000106547
1.66399e-07
0.000106587
1.5742e-07
0.000106629
1.46284e-07
1.32722e-07
0.000106671
0.000108895
1.00257e-08
0.000108901
2.91781e-08
0.000108909
4.77412e-08
0.00010892
6.42999e-08
0.000108934
7.8687e-08
0.000108949
9.10265e-08
0.000108966
1.015e-07
0.000108984
1.10304e-07
0.000109003
1.17648e-07
0.000109023
1.23743e-07
0.000109044
1.28796e-07
0.000109065
1.33003e-07
0.000109087
1.36537e-07
0.000109109
1.39552e-07
0.000109132
1.42175e-07
0.000109155
1.44504e-07
0.000109179
1.46605e-07
0.000109203
1.48513e-07
0.000109228
1.50231e-07
0.000109254
1.51726e-07
0.000109281
1.52935e-07
0.000109309
1.53765e-07
0.000109338
1.54093e-07
0.000109368
1.53772e-07
0.0001094
1.52634e-07
0.000109433
1.50496e-07
0.000109468
1.47171e-07
0.000109504
1.42474e-07
0.000109541
1.36235e-07
0.000109579
1.28307e-07
0.000109618
1.18582e-07
0.000109657
1.07015e-07
9.34195e-08
0.000109696
0.000112006
8.23442e-09
0.000112011
2.39652e-08
0.00011202
3.94281e-08
0.000112031
5.32437e-08
0.000112044
6.52594e-08
0.00011206
7.55925e-08
0.000112077
8.43989e-08
0.000112095
9.18361e-08
0.000112115
9.80675e-08
0.000112135
1.03257e-07
0.000112157
1.07565e-07
0.000112178
1.11141e-07
0.000112201
1.14118e-07
0.000112224
1.16615e-07
0.000112247
1.18725e-07
0.000112271
1.20519e-07
0.000112296
1.22042e-07
0.000112321
1.2331e-07
0.000112347
1.24311e-07
0.000112374
1.25006e-07
0.000112401
1.25329e-07
0.00011243
1.2519e-07
0.000112459
1.24475e-07
0.00011249
1.23056e-07
0.000112522
1.20789e-07
0.000112555
1.17528e-07
0.000112589
1.13124e-07
0.000112624
1.0744e-07
0.00011266
1.00356e-07
0.000112696
9.17771e-08
0.000112733
8.16445e-08
0.00011277
6.99532e-08
5.6578e-08
0.000112807
0.000115206
6.46072e-09
0.000115211
1.87992e-08
0.00011522
3.11646e-08
0.000115231
4.22119e-08
0.000115244
5.18027e-08
0.00011526
6.00533e-08
0.000115277
6.71018e-08
0.000115296
7.3074e-08
0.000115316
7.80939e-08
0.000115337
8.22827e-08
0.000115359
8.57562e-08
0.000115381
8.86217e-08
0.000115404
9.09752e-08
0.000115428
9.28984e-08
0.000115452
9.44564e-08
0.000115477
9.56941e-08
0.000115502
9.66352e-08
0.000115528
9.72803e-08
0.000115555
9.76068e-08
0.000115583
9.75698e-08
0.000115611
9.7103e-08
0.00011564
9.61217e-08
0.00011567
9.45257e-08
0.000115701
9.22039e-08
0.000115732
8.90387e-08
0.000115765
8.49126e-08
0.000115798
7.97136e-08
0.000115833
7.33427e-08
0.000115867
6.572e-08
0.000115902
5.67915e-08
0.000115937
4.65335e-08
0.000115972
3.49684e-08
2.20158e-08
0.000116007
0.000118498
4.69648e-09
0.000118503
1.36566e-08
0.000118511
2.29106e-08
0.000118522
3.11482e-08
0.000118536
3.82484e-08
0.000118551
4.43339e-08
0.000118569
4.95326e-08
0.000118588
5.3945e-08
0.000118608
5.76602e-08
0.00011863
6.07608e-08
0.000118652
6.3322e-08
0.000118676
6.54114e-08
0.0001187
6.70878e-08
0.000118724
6.83997e-08
0.000118749
6.93833e-08
0.000118775
7.00597e-08
0.000118801
7.04335e-08
0.000118828
7.04912e-08
0.000118855
7.02015e-08
0.000118883
6.95158e-08
0.000118912
6.83695e-08
0.000118941
6.66852e-08
0.000118972
6.43751e-08
0.000119002
6.13459e-08
0.000119034
5.75027e-08
0.000119066
5.27546e-08
0.000119099
4.70194e-08
0.000119132
4.02295e-08
0.000119165
3.23362e-08
0.000119199
2.33151e-08
0.000119232
1.31679e-08
0.000119265
1.93454e-09
-1.04328e-08
0.000119298
0.000121883
2.93547e-09
0.000121888
8.51878e-09
0.000121896
1.46319e-08
0.000121908
2.00003e-08
0.000121921
2.45283e-08
0.000121937
2.83562e-08
0.000121955
3.16098e-08
0.000121975
3.43689e-08
0.000121996
3.66922e-08
0.000122018
3.86266e-08
0.000122041
4.02094e-08
0.000122065
4.14698e-08
0.00012209
4.24309e-08
0.000122115
4.3109e-08
0.000122141
4.35125e-08
0.000122167
4.36399e-08
0.000122194
4.34778e-08
0.000122222
4.30002e-08
0.00012225
4.21683e-08
0.000122278
4.0931e-08
0.000122307
3.92266e-08
0.000122337
3.69846e-08
0.000122367
3.41298e-08
0.000122398
3.05846e-08
0.000122429
2.62742e-08
0.000122461
2.11299e-08
0.000122493
1.50941e-08
0.000122525
8.12331e-09
0.000122557
1.92894e-10
0.000122589
-8.70094e-09
0.000122621
-1.85389e-08
0.000122652
-2.92713e-08
-4.0923e-08
0.000122683
0.000125365
1.17456e-09
0.00012537
3.3754e-09
0.000125379
6.30284e-09
0.00012539
8.72062e-09
0.000125404
1.05738e-08
0.00012542
1.20373e-08
0.000125439
1.32439e-08
0.000125459
1.42563e-08
0.00012548
1.51052e-08
0.000125503
1.58046e-08
0.000125527
1.6355e-08
0.000125552
1.67479e-08
0.000125577
1.69708e-08
0.000125603
1.70087e-08
0.00012563
1.6843e-08
0.000125657
1.645e-08
0.000125685
1.57994e-08
0.000125713
1.48536e-08
0.000125742
1.35669e-08
0.000125771
1.18864e-08
0.0001258
9.75292e-09
0.00012583
7.10314e-09
0.00012586
3.87225e-09
0.000125891
-2.9723e-12
0.000125922
-4.58104e-09
0.000125953
-9.91216e-09
0.000125984
-1.60352e-08
0.000126015
-2.29747e-08
0.000126046
-3.07384e-08
0.000126076
-3.93155e-08
0.000126107
-4.86761e-08
0.000126136
-5.87652e-08
-6.95916e-08
0.000126165
0.000128947
-5.83963e-10
0.000128952
-1.7697e-09
0.00012896
-2.08794e-09
0.000128972
-2.73248e-09
0.000128986
-3.68665e-09
0.000129003
-4.71359e-09
0.000129022
-5.66555e-09
0.000129043
-6.49597e-09
0.000129065
-7.19974e-09
0.000129088
-7.79469e-09
0.000129113
-8.31752e-09
0.000129139
-8.81526e-09
0.000129165
-9.33646e-09
0.000129192
-9.92785e-09
0.000129219
-1.06349e-08
0.000129247
-1.15032e-08
0.000129276
-1.25794e-08
0.000129304
-1.39126e-08
0.000129334
-1.55551e-08
0.000129363
-1.75618e-08
0.000129393
-1.99895e-08
0.000129423
-2.28958e-08
0.000129453
-2.63363e-08
0.000129483
-3.03629e-08
0.000129514
-3.50207e-08
0.000129544
-4.03456e-08
0.000129575
-4.63623e-08
0.000129605
-5.30817e-08
0.000129634
-6.05001e-08
0.000129664
-6.85977e-08
0.000129692
-7.73388e-08
0.00012972
-8.66682e-08
-9.65851e-08
0.000129747
0.000132631
-2.32782e-09
0.000132636
-6.88687e-09
0.000132644
-1.05283e-08
0.000132656
-1.43922e-08
0.000132671
-1.83296e-08
0.000132688
-2.20003e-08
0.000132708
-2.52359e-08
0.000132729
-2.80091e-08
0.000132752
-3.03403e-08
0.000132777
-3.22795e-08
0.000132802
-3.39032e-08
0.000132829
-3.52997e-08
0.000132856
-3.65546e-08
0.000132884
-3.77473e-08
0.000132912
-3.89507e-08
0.000132941
-4.02326e-08
0.00013297
-4.16565e-08
0.000132999
-4.32832e-08
0.000133029
-4.51714e-08
0.000133059
-4.73789e-08
0.000133089
-4.99612e-08
0.000133119
-5.29715e-08
0.000133149
-5.64582e-08
0.000133179
-6.04643e-08
0.000133209
-6.50246e-08
0.000133239
-7.01649e-08
0.000133268
-7.58992e-08
0.000133297
-8.22295e-08
0.000133326
-8.91445e-08
0.000133354
-9.66193e-08
0.000133381
-1.04615e-07
0.000133408
-1.13078e-07
-1.22e-07
0.000133433
0.00013642
-4.02517e-09
0.000136425
-1.1898e-08
0.000136433
-1.89664e-08
0.000136445
-2.62803e-08
0.00013646
-3.34406e-08
0.000136478
-3.99459e-08
0.000136499
-4.56111e-08
0.000136521
-5.04338e-08
0.000136545
-5.44593e-08
0.000136571
-5.77748e-08
0.000136597
-6.05055e-08
0.000136625
-6.27866e-08
0.000136653
-6.47443e-08
0.000136682
-6.64917e-08
0.000136711
-6.81302e-08
0.000136741
-6.97503e-08
0.00013677
-7.14324e-08
0.0001368
-7.3249e-08
0.00013683
-7.52665e-08
0.000136861
-7.75455e-08
0.000136891
-8.01418e-08
0.000136921
-8.31053e-08
0.000136951
-8.64798e-08
0.000136981
-9.03017e-08
0.00013701
-9.45989e-08
0.000137039
-9.93895e-08
0.000137068
-1.04681e-07
0.000137097
-1.10471e-07
0.000137124
-1.16743e-07
0.000137151
-1.23471e-07
0.000137177
-1.30618e-07
0.000137202
-1.38137e-07
-1.46017e-07
0.000137226
0.000140317
-5.60353e-09
0.000140322
-1.66295e-08
0.00014033
-2.7285e-08
0.000140343
-3.84099e-08
0.000140358
-4.91193e-08
0.000140377
-5.86915e-08
0.000140398
-6.69628e-08
0.000140422
-7.39652e-08
0.000140447
-7.97613e-08
0.000140474
-8.44805e-08
0.000140502
-8.83084e-08
0.00014053
-9.14365e-08
0.00014056
-9.40375e-08
0.000140589
-9.62633e-08
0.000140619
-9.82472e-08
0.00014065
-1.00104e-07
0.00014068
-1.01933e-07
0.000140711
-1.03818e-07
0.000140741
-1.05834e-07
0.000140772
-1.08046e-07
0.000140802
-1.10511e-07
0.000140832
-1.13276e-07
0.000140862
-1.16383e-07
0.000140892
-1.19864e-07
0.000140921
-1.23742e-07
0.00014095
-1.2803e-07
0.000140978
-1.32733e-07
0.000141005
-1.37843e-07
0.000141032
-1.43345e-07
0.000141058
-1.49212e-07
0.000141082
-1.55407e-07
0.000141106
-1.61882e-07
-1.68625e-07
0.000141129
0.000144326
-6.90425e-09
0.00014433
-2.07118e-08
0.000144338
-3.52484e-08
0.00014435
-5.07996e-08
0.000144367
-6.5527e-08
0.000144386
-7.84365e-08
0.000144409
-8.94762e-08
0.000144434
-9.87458e-08
0.00014446
-1.06343e-07
0.000144488
-1.12462e-07
0.000144517
-1.17365e-07
0.000144547
-1.21301e-07
0.000144578
-1.24489e-07
0.000144609
-1.27121e-07
0.00014464
-1.29364e-07
0.000144671
-1.31359e-07
0.000144702
-1.33223e-07
0.000144733
-1.35055e-07
0.000144765
-1.36938e-07
0.000144795
-1.38944e-07
0.000144826
-1.41131e-07
0.000144856
-1.43549e-07
0.000144886
-1.46236e-07
0.000144916
-1.49223e-07
0.000144944
-1.52531e-07
0.000144973
-1.56173e-07
0.000145
-1.60149e-07
0.000145027
-1.64454e-07
0.000145052
-1.69073e-07
0.000145077
-1.73983e-07
0.000145101
-1.79154e-07
0.000145123
-1.84554e-07
-1.90171e-07
0.000145145
0.000148449
-7.56661e-09
0.000148451
-2.34169e-08
0.000148458
-4.24237e-08
0.000148471
-6.33675e-08
0.000148488
-8.28198e-08
0.00014851
-9.95957e-08
0.000148534
-1.1378e-07
0.000148561
-1.25472e-07
0.000148589
-1.34838e-07
0.000148619
-1.42229e-07
0.000148649
-1.48038e-07
0.000148681
-1.52603e-07
0.000148712
-1.56203e-07
0.000148744
-1.59075e-07
0.000148777
-1.61421e-07
0.000148809
-1.63405e-07
0.00014884
-1.65163e-07
0.000148872
-1.66804e-07
0.000148904
-1.6842e-07
0.000148935
-1.70085e-07
0.000148966
-1.7186e-07
0.000148996
-1.73795e-07
0.000149026
-1.7593e-07
0.000149055
-1.78294e-07
0.000149083
-1.80906e-07
0.000149111
-1.83778e-07
0.000149137
-1.86913e-07
0.000149163
-1.90305e-07
0.000149188
-1.9394e-07
0.000149212
-1.97796e-07
0.000149235
-2.01843e-07
0.000149256
-2.06042e-07
-2.10381e-07
0.000149276
0.000152688
-6.57671e-09
0.000152688
-2.33006e-08
0.000152694
-4.85785e-08
0.000152707
-7.61763e-08
0.000152725
-1.00556e-07
0.000152746
-1.21371e-07
0.000152772
-1.39067e-07
0.0001528
-1.53544e-07
0.00015283
-1.64946e-07
0.000152862
-1.73774e-07
0.000152894
-1.80565e-07
0.000152927
-1.85751e-07
0.000152961
-1.8969e-07
0.000152994
-1.92688e-07
0.000153028
-1.94994e-07
0.000153061
-1.9681e-07
0.000153094
-1.98293e-07
0.000153127
-1.99571e-07
0.000153159
-2.00745e-07
0.000153191
-2.01898e-07
0.000153223
-2.03095e-07
0.000153253
-2.04388e-07
0.000153283
-2.05816e-07
0.000153312
-2.07409e-07
0.00015334
-2.09187e-07
0.000153368
-2.11163e-07
0.000153394
-2.13341e-07
0.00015342
-2.15719e-07
0.000153444
-2.18287e-07
0.000153467
-2.21032e-07
0.000153489
-2.23939e-07
0.00015351
-2.26992e-07
-2.30185e-07
0.00015353
0.000157046
-1.45893e-09
0.000157039
-1.60649e-08
0.000157044
-5.3278e-08
0.000157059
-9.18382e-08
0.000157082
-1.22744e-07
0.000157108
-1.47709e-07
0.000157137
-1.68156e-07
0.000157168
-1.84339e-07
0.0001572
-1.96822e-07
0.000157232
-2.06404e-07
0.000157266
-2.13721e-07
0.000157299
-2.19247e-07
0.000157333
-2.23373e-07
0.000157366
-2.26433e-07
0.0001574
-2.28692e-07
0.000157434
-2.3036e-07
0.000157467
-2.31602e-07
0.0001575
-2.32551e-07
0.000157533
-2.33313e-07
0.000157565
-2.33975e-07
0.000157596
-2.34602e-07
0.000157627
-2.3525e-07
0.000157657
-2.35958e-07
0.000157687
-2.3676e-07
0.000157715
-2.37677e-07
0.000157743
-2.38724e-07
0.000157769
-2.39906e-07
0.000157795
-2.41226e-07
0.000157819
-2.42674e-07
0.000157842
-2.44239e-07
0.000157864
-2.45899e-07
0.000157885
-2.4762e-07
-2.49404e-07
0.000157904
0.000161526
1.08787e-08
0.000161506
3.99883e-09
0.000161499
-4.65934e-08
0.000161505
-9.744e-08
0.000161522
-1.39544e-07
0.000161548
-1.74149e-07
0.000161581
-2.01095e-07
0.000161618
-2.20887e-07
0.000161656
-2.35215e-07
0.000161695
-2.45665e-07
0.000161735
-2.53261e-07
0.000161774
-2.58699e-07
0.000161813
-2.62529e-07
0.000161852
-2.65178e-07
0.00016189
-2.66958e-07
0.000161928
-2.681e-07
0.000161965
-2.68776e-07
0.000162002
-2.6912e-07
0.000162038
-2.69237e-07
0.000162073
-2.69206e-07
0.000162108
-2.69091e-07
0.000162141
-2.6894e-07
0.000162174
-2.68793e-07
0.000162206
-2.68679e-07
0.000162237
-2.68621e-07
0.000162267
-2.68633e-07
0.000162296
-2.68725e-07
0.000162323
-2.68903e-07
0.00016235
-2.69168e-07
0.000162375
-2.69522e-07
0.000162399
-2.69963e-07
0.000162422
-2.705e-07
-2.71133e-07
0.000162444
0.0001661
6.45574e-08
0.000166097
6.983e-09
0.000166115
-6.46353e-08
0.000166133
-1.14999e-07
0.00016615
-1.57362e-07
0.000166171
-1.95174e-07
0.000166196
-2.25953e-07
0.000166225
-2.49502e-07
0.000166257
-2.6742e-07
0.000166292
-2.81093e-07
0.000166331
-2.914e-07
0.000166371
-2.9903e-07
0.000166413
-3.04575e-07
0.000166456
-3.08507e-07
0.000166501
-3.1118e-07
0.000166545
-3.12869e-07
0.00016659
-3.13788e-07
0.000166635
-3.14111e-07
0.00016668
-3.13975e-07
0.000166724
-3.13488e-07
0.000166768
-3.12738e-07
0.000166811
-3.11796e-07
0.000166853
-3.10719e-07
0.000166894
-3.09552e-07
0.000166933
-3.08331e-07
0.000166972
-3.07084e-07
0.000167009
-3.05832e-07
0.000167045
-3.04589e-07
0.000167079
-3.03362e-07
0.000167111
-3.02157e-07
0.000167142
-3.00968e-07
0.000167172