/*--------------------------------*- C++ -*----------------------------------*\
  =========                 |
  \\      /  F ield         | OpenFOAM: The Open Source CFD Toolbox
   \\    /   O peration     | Website:  https://openfoam.org
    \\  /    A nd           | Version:  10
     \\/     M anipulation  |
\*---------------------------------------------------------------------------*/
FoamFile
{
    format      ascii;
    class       volVectorField;
    location    "1000";
    object      U;
}
// * * * * * * * * * * * * * * * * * * * * * * * * * * * * * * * * * * * * * //

dimensions      [0 1 -1 0 0 0 0];

internalField   nonuniform List<vector> 
6820
(
(7.31669 -0.387299 0)
(7.31535 -0.335148 0)
(7.28406 -0.203485 0)
(7.22601 -0.111065 0)
(7.16155 -0.0567275 0)
(7.10032 -0.0269546 0)
(7.04432 -0.0112123 0)
(6.99375 -0.0030066 0)
(6.94835 0.00122673 0)
(6.9075 0.00336968 0)
(6.87045 0.00442286 0)
(6.83655 0.0049206 0)
(6.80531 0.0051449 0)
(6.7763 0.00524253 0)
(6.74919 0.00528932 0)
(6.7237 0.00532426 0)
(6.6996 0.00536748 0)
(6.67667 0.00542992 0)
(6.65474 0.00551872 0)
(6.63361 0.00564051 0)
(6.61311 0.00580354 0)
(6.59303 0.00601958 0)
(6.57317 0.00630643 0)
(6.55325 0.00669202 0)
(6.53294 0.00721133 0)
(6.51177 0.00796721 0)
(6.48914 0.00900381 0)
(6.46409 0.0103761 0)
(6.4356 0.0131376 0)
(6.39701 0.0214228 0)
(6.36233 0.0215887 0)
(6.30065 -0.0349728 0)
(6.21858 0.00566531 0)
(7.33961 0.100786 0)
(7.35428 0.149948 0)
(7.35844 0.123287 0)
(7.35864 0.0899099 0)
(7.35921 0.0661162 0)
(7.35783 0.0502149 0)
(7.35241 0.0396566 0)
(7.34321 0.0327221 0)
(7.33138 0.0281073 0)
(7.31787 0.0249211 0)
(7.30334 0.0226295 0)
(7.28825 0.0209188 0)
(7.27291 0.0195962 0)
(7.25755 0.0185409 0)
(7.24231 0.0176781 0)
(7.22725 0.0169625 0)
(7.21243 0.0163673 0)
(7.19785 0.0158778 0)
(7.18352 0.0154884 0)
(7.1694 0.0152008 0)
(7.15548 0.0150241 0)
(7.14171 0.0149759 0)
(7.12803 0.0150851 0)
(7.11437 0.0153972 0)
(7.10064 0.0159823 0)
(7.08672 0.0169529 0)
(7.0725 0.0184837 0)
(7.05752 0.0208599 0)
(7.04258 0.0246951 0)
(7.02469 0.0303606 0)
(7.00617 0.0407115 0)
(6.97551 0.0545913 0)
(6.96918 0.0824704 0)
(7.32713 0.00613247 0)
(7.32427 -0.0015606 0)
(7.33125 -0.00612123 0)
(7.33961 -0.000697605 0)
(7.34656 0.00715563 0)
(7.35179 0.0129096 0)
(7.35487 0.0164471 0)
(7.35585 0.0185715 0)
(7.35514 0.0197839 0)
(7.35307 0.0203863 0)
(7.3499 0.0206061 0)
(7.34584 0.0206049 0)
(7.34106 0.0204845 0)
(7.33571 0.0203079 0)
(7.32991 0.0201162 0)
(7.32375 0.0199373 0)
(7.31729 0.0197918 0)
(7.31056 0.0196962 0)
(7.3036 0.0196666 0)
(7.29642 0.0197207 0)
(7.289 0.0198807 0)
(7.28133 0.0201762 0)
(7.27336 0.0206485 0)
(7.26502 0.0213568 0)
(7.25623 0.0223887 0)
(7.24685 0.0238755 0)
(7.23674 0.0260314 0)
(7.22549 0.0290952 0)
(7.21331 0.033995 0)
(7.1989 0.0409195 0)
(7.18313 0.0523479 0)
(7.16405 0.0681309 0)
(7.14669 0.115176 0)
(7.32977 -0.00399601 0)
(7.32628 0.00249519 0)
(7.33104 0.010751 0)
(7.33663 0.0169187 0)
(7.34118 0.0205057 0)
(7.34538 0.0220502 0)
(7.34904 0.0225715 0)
(7.35183 0.0227362 0)
(7.35379 0.0227619 0)
(7.35502 0.0227032 0)
(7.35557 0.0225968 0)
(7.35549 0.0224733 0)
(7.35486 0.022351 0)
(7.35374 0.0222414 0)
(7.35219 0.0221547 0)
(7.35024 0.0221015 0)
(7.34794 0.0220938 0)
(7.34531 0.0221453 0)
(7.34236 0.0222726 0)
(7.3391 0.0224975 0)
(7.33551 0.0228483 0)
(7.33159 0.0233634 0)
(7.32728 0.024096 0)
(7.32255 0.0251205 0)
(7.31732 0.0265452 0)
(7.31151 0.0285267 0)
(7.30501 0.0313122 0)
(7.29763 0.0352165 0)
(7.28946 0.0410259 0)
(7.28026 0.0492311 0)
(7.27055 0.0619505 0)
(7.26161 0.0804331 0)
(7.2582 0.113078 0)
(7.33182 -0.000979456 0)
(7.32999 0.00677362 0)
(7.33254 0.0124173 0)
(7.33597 0.0152418 0)
(7.33918 0.017302 0)
(7.34257 0.0188376 0)
(7.34587 0.0198619 0)
(7.34873 0.0205701 0)
(7.35113 0.0210807 0)
(7.35311 0.0214392 0)
(7.3547 0.0216871 0)
(7.3559 0.0218651 0)
(7.35674 0.0220039 0)
(7.35723 0.022126 0)
(7.3574 0.0222504 0)
(7.35726 0.0223951 0)
(7.35683 0.0225782 0)
(7.35611 0.0228191 0)
(7.35511 0.0231401 0)
(7.35381 0.0235684 0)
(7.35221 0.0241387 0)
(7.35029 0.0248964 0)
(7.34802 0.0259027 0)
(7.34537 0.0272415 0)
(7.3423 0.029031 0)
(7.33876 0.0314372 0)
(7.33471 0.0347077 0)
(7.33012 0.0391687 0)
(7.32515 0.0454389 0)
(7.32001 0.0540377 0)
(7.31538 0.0662583 0)
(7.3129 0.0829583 0)
(7.31588 0.105938 0)
(7.33247 0.000707543 0)
(7.33163 0.0063997 0)
(7.33341 0.0106903 0)
(7.33616 0.0133677 0)
(7.33886 0.0156961 0)
(7.34166 0.0175348 0)
(7.34446 0.0187633 0)
(7.34701 0.0195954 0)
(7.34927 0.020204 0)
(7.3513 0.0206597 0)
(7.35309 0.0210083 0)
(7.35464 0.021291 0)
(7.35595 0.0215388 0)
(7.35703 0.0217741 0)
(7.35788 0.0220163 0)
(7.3585 0.0222836 0)
(7.3589 0.0225953 0)
(7.35907 0.0229723 0)
(7.35901 0.0234389 0)
(7.35871 0.0240252 0)
(7.35815 0.0247691 0)
(7.35733 0.0257196 0)
(7.35622 0.0269419 0)
(7.3548 0.0285232 0)
(7.35307 0.0305823 0)
(7.35101 0.033281 0)
(7.34865 0.0368453 0)
(7.34607 0.0415675 0)
(7.34347 0.0478983 0)
(7.34126 0.0562423 0)
(7.34015 0.0672744 0)
(7.34155 0.0813136 0)
(7.34757 0.0982105 0)
(7.33271 0.00113749 0)
(7.3324 0.00558089 0)
(7.33392 0.00959743 0)
(7.33636 0.0124423 0)
(7.33879 0.0147386 0)
(7.34123 0.016508 0)
(7.34367 0.0177318 0)
(7.34597 0.018598 0)
(7.34806 0.0192586 0)
(7.34998 0.0197784 0)
(7.35174 0.0201981 0)
(7.35333 0.0205558 0)
(7.35476 0.0208817 0)
(7.35602 0.0211988 0)
(7.35712 0.0215268 0)
(7.35805 0.0218851 0)
(7.35881 0.0222939 0)
(7.3594 0.0227756 0)
(7.3598 0.0233562 0)
(7.36002 0.0240672 0)
(7.36003 0.0249483 0)
(7.35984 0.0260499 0)
(7.35944 0.0274373 0)
(7.35881 0.0291954 0)
(7.35798 0.0314363 0)
(7.35696 0.0343056 0)
(7.35583 0.0379941 0)
(7.35473 0.042735 0)
(7.3539 0.0488306 0)
(7.35377 0.0565357 0)
(7.35499 0.066126 0)
(7.35864 0.0775884 0)
(7.36604 0.0902333 0)
(7.33286 0.00130637 0)
(7.33286 0.00514609 0)
(7.33419 0.00886295 0)
(7.33635 0.0116167 0)
(7.33858 0.0137709 0)
(7.34082 0.0154698 0)
(7.34305 0.0167175 0)
(7.34518 0.017636 0)
(7.34715 0.0183487 0)
(7.34897 0.0189205 0)
(7.35066 0.0193931 0)
(7.35222 0.0198042 0)
(7.35365 0.0201848 0)
(7.35495 0.0205589 0)
(7.35613 0.0209477 0)
(7.35718 0.0213715 0)
(7.3581 0.0218515 0)
(7.35889 0.0224112 0)
(7.35954 0.0230773 0)
(7.36004 0.023882 0)
(7.3604 0.0248649 0)
(7.3606 0.0260754 0)
(7.36066 0.0275757 0)
(7.36058 0.0294444 0)
(7.3604 0.0317803 0)
(7.36016 0.0347063 0)
(7.35996 0.0383712 0)
(7.35997 0.0429429 0)
(7.36045 0.0486031 0)
(7.36178 0.0554749 0)
(7.36451 0.063602 0)
(7.36939 0.0727994 0)
(7.37726 0.0823141 0)
(7.33295 0.00138 0)
(7.33314 0.00480168 0)
(7.33432 0.00815282 0)
(7.33622 0.0107615 0)
(7.33827 0.0128205 0)
(7.34035 0.0144801 0)
(7.34244 0.015749 0)
(7.34445 0.0167082 0)
(7.34633 0.0174621 0)
(7.34808 0.0180757 0)
(7.34972 0.0185911 0)
(7.35124 0.019045 0)
(7.35266 0.0194684 0)
(7.35397 0.0198866 0)
(7.35518 0.0203217 0)
(7.35629 0.0207949 0)
(7.35729 0.0213284 0)
(7.35819 0.0219459 0)
(7.35898 0.0226745 0)
(7.35966 0.023546 0)
(7.36024 0.0245986 0)
(7.36072 0.0258787 0)
(7.36112 0.027443 0)
(7.36145 0.0293603 0)
(7.36177 0.0317132 0)
(7.36213 0.0345981 0)
(7.36266 0.038122 0)
(7.36352 0.0423923 0)
(7.36495 0.0474996 0)
(7.36729 0.0534699 0)
(7.37094 0.060223 0)
(7.37643 0.0675047 0)
(7.38427 0.0746439 0)
(7.33299 0.00137948 0)
(7.33329 0.00446685 0)
(7.33435 0.0074874 0)
(7.33603 0.00995237 0)
(7.33792 0.0119297 0)
(7.33986 0.0135418 0)
(7.34182 0.0148106 0)
(7.34372 0.0157954 0)
(7.34553 0.0165819 0)
(7.34724 0.0172309 0)
(7.34884 0.0177833 0)
(7.35034 0.0182742 0)
(7.35175 0.0187341 0)
(7.35307 0.0191889 0)
(7.3543 0.0196613 0)
(7.35544 0.0201732 0)
(7.3565 0.0207472 0)
(7.35748 0.021407 0)
(7.35838 0.0221792 0)
(7.3592 0.0230943 0)
(7.35995 0.024188 0)
(7.36065 0.0255023 0)
(7.36131 0.0270864 0)
(7.36198 0.0289976 0)
(7.3627 0.0313008 0)
(7.36355 0.034066 0)
(7.36465 0.0373624 0)
(7.36615 0.0412471 0)
(7.36827 0.045746 0)
(7.37126 0.0508215 0)
(7.37545 0.0563353 0)
(7.38115 0.0620213 0)
(7.38869 0.0673209 0)
(7.33302 0.00133258 0)
(7.33336 0.00414496 0)
(7.33433 0.00688176 0)
(7.33583 0.00919625 0)
(7.33756 0.0110855 0)
(7.33936 0.0126415 0)
(7.3412 0.0138958 0)
(7.34302 0.0148941 0)
(7.34476 0.0157044 0)
(7.34642 0.0163815 0)
(7.348 0.0169644 0)
(7.34949 0.0174865 0)
(7.35089 0.0179773 0)
(7.35222 0.0184626 0)
(7.35348 0.0189653 0)
(7.35466 0.0195074 0)
(7.35577 0.0201113 0)
(7.35682 0.0208003 0)
(7.35781 0.0215998 0)
(7.35875 0.0225382 0)
(7.35966 0.0236475 0)
(7.36055 0.0249644 0)
(7.36145 0.0265297 0)
(7.3624 0.0283884 0)
(7.36346 0.030588 0)
(7.3647 0.0331741 0)
(7.36625 0.0361847 0)
(7.36823 0.039638 0)
(7.37082 0.0435171 0)
(7.37422 0.0477472 0)
(7.37866 0.0521705 0)
(7.38434 0.0565389 0)
(7.39143 0.060401 0)
(7.33303 0.00126137 0)
(7.33339 0.00383685 0)
(7.33428 0.00632612 0)
(7.33562 0.00848579 0)
(7.33721 0.0102813 0)
(7.33889 0.0117767 0)
(7.34061 0.013006 0)
(7.34234 0.0140057 0)
(7.34402 0.0148297 0)
(7.34564 0.0155264 0)
(7.34719 0.0161324 0)
(7.34867 0.0166791 0)
(7.35008 0.0171946 0)
(7.35143 0.017704 0)
(7.35271 0.0182299 0)
(7.35393 0.0187941 0)
(7.3551 0.019418 0)
(7.35622 0.020124 0)
(7.3573 0.0209358 0)
(7.35836 0.0218788 0)
(7.35941 0.0229811 0)
(7.36047 0.0242729 0)
(7.36158 0.0257864 0)
(7.36277 0.0275548 0)
(7.36412 0.0296093 0)
(7.36568 0.0319752 0)
(7.36757 0.0346654 0)
(7.3699 0.0376708 0)
(7.3728 0.0409479 0)
(7.37644 0.0444049 0)
(7.38095 0.0478853 0)
(7.38645 0.051173 0)
(7.39304 0.0539083 0)
(7.33303 0.00117861 0)
(7.33339 0.00354101 0)
(7.33421 0.00581105 0)
(7.33543 0.0078172 0)
(7.33688 0.00951504 0)
(7.33845 0.0109454 0)
(7.34007 0.0121402 0)
(7.34172 0.0131301 0)
(7.34334 0.0139579 0)
(7.34492 0.0146655 0)
(7.34644 0.0152868 0)
(7.34791 0.0158508 0)
(7.34932 0.0163841 0)
(7.35068 0.0169106 0)
(7.35199 0.0174523 0)
(7.35325 0.0180299 0)
(7.35448 0.0186639 0)
(7.35567 0.0193751 0)
(7.35684 0.0201848 0)
(7.35801 0.0211153 0)
(7.3592 0.0221899 0)
(7.36042 0.0234325 0)
(7.36171 0.0248671 0)
(7.36312 0.0265155 0)
(7.3647 0.0283952 0)
(7.36652 0.0305151 0)
(7.36867 0.0328695 0)
(7.37124 0.0354315 0)
(7.37434 0.0381436 0)
(7.37807 0.0409095 0)
(7.38252 0.0435858 0)
(7.38777 0.0459916 0)
(7.39383 0.0478432 0)
(7.33304 0.0010914 0)
(7.33338 0.00325691 0)
(7.33414 0.00532987 0)
(7.33525 0.00718667 0)
(7.33658 0.00878345 0)
(7.33805 0.0101443 0)
(7.33958 0.0112967 0)
(7.34115 0.0122667 0)
(7.34271 0.0130889 0)
(7.34425 0.0137989 0)
(7.34575 0.0144273 0)
(7.34721 0.0150011 0)
(7.34862 0.0155448 0)
(7.35 0.0160809 0)
(7.35134 0.0166303 0)
(7.35264 0.0172125 0)
(7.35392 0.0178466 0)
(7.35518 0.0185512 0)
(7.35644 0.0193452 0)
(7.35772 0.0202472 0)
(7.35902 0.0212759 0)
(7.36038 0.0224492 0)
(7.36184 0.0237829 0)
(7.36343 0.0252895 0)
(7.36521 0.026975 0)
(7.36723 0.0288358 0)
(7.36956 0.0308538 0)
(7.37228 0.0329915 0)
(7.37548 0.0351859 0)
(7.37921 0.0373447 0)
(7.38354 0.0393424 0)
(7.38848 0.0410322 0)
(7.39404 0.0421912 0)
(7.33304 0.00100364 0)
(7.33336 0.00298434 0)
(7.33406 0.00487718 0)
(7.33508 0.00658968 0)
(7.33632 0.00808293 0)
(7.33769 0.00936994 0)
(7.33914 0.010473 0)
(7.34064 0.0114143 0)
(7.34215 0.0122218 0)
(7.34365 0.0129258 0)
(7.34512 0.0135535 0)
(7.34657 0.0141293 0)
(7.34799 0.0146757 0)
(7.34938 0.0152137 0)
(7.35075 0.0157626 0)
(7.35209 0.0163405 0)
(7.35342 0.0169646 0)
(7.35475 0.0176514 0)
(7.35609 0.0184169 0)
(7.35746 0.0192762 0)
(7.35888 0.0202434 0)
(7.36037 0.0213307 0)
(7.36196 0.022547 0)
(7.3637 0.0238969 0)
(7.36563 0.0253776 0)
(7.36779 0.0269766 0)
(7.37025 0.0286682 0)
(7.37306 0.0304098 0)
(7.37628 0.0321389 0)
(7.37995 0.0337716 0)
(7.38409 0.0352018 0)
(7.38872 0.0363126 0)
(7.39379 0.0369299 0)
(7.33303 0.00091734 0)
(7.33334 0.00272287 0)
(7.33399 0.00444843 0)
(7.33493 0.00602169 0)
(7.33608 0.00740977 0)
(7.33737 0.00861894 0)
(7.33875 0.00966644 0)
(7.34018 0.010571 0)
(7.34164 0.0113556 0)
(7.34311 0.0120454 0)
(7.34456 0.0126644 0)
(7.346 0.0132344 0)
(7.34743 0.0137759 0)
(7.34883 0.014308 0)
(7.35022 0.0148482 0)
(7.35161 0.0154129 0)
(7.35299 0.0160173 0)
(7.35438 0.0166758 0)
(7.35579 0.0174013 0)
(7.35725 0.0182056 0)
(7.35876 0.0190983 0)
(7.36036 0.0200867 0)
(7.36206 0.0211742 0)
(7.36392 0.0223587 0)
(7.36596 0.0236313 0)
(7.36822 0.0249738 0)
(7.37075 0.0263563 0)
(7.37359 0.0277355 0)
(7.37678 0.0290529 0)
(7.38033 0.0302348 0)
(7.38427 0.0311938 0)
(7.38857 0.0318386 0)
(7.3932 0.0320336 0)
(7.33303 0.000833421 0)
(7.33332 0.0024718 0)
(7.33393 0.00403981 0)
(7.3348 0.00547841 0)
(7.33588 0.00676026 0)
(7.33709 0.00788788 0)
(7.33841 0.00887425 0)
(7.33978 0.0097349 0)
(7.3412 0.0104886 0)
(7.34263 0.0111563 0)
(7.34407 0.0117588 0)
(7.3455 0.0123154 0)
(7.34693 0.0128444 0)
(7.34835 0.0133627 0)
(7.34976 0.0138861 0)
(7.35118 0.0144292 0)
(7.35261 0.0150051 0)
(7.35406 0.0156257 0)
(7.35554 0.0163011 0)
(7.35706 0.01704 0)
(7.35866 0.0178482 0)
(7.36034 0.0187286 0)
(7.36214 0.0196801 0)
(7.36408 0.0206961 0)
(7.3662 0.0217633 0)
(7.36852 0.0228603 0)
(7.37108 0.0239561 0)
(7.37391 0.0250091 0)
(7.37702 0.0259666 0)
(7.38043 0.026766 0)
(7.38414 0.0273367 0)
(7.38813 0.0276083 0)
(7.39235 0.0274756 0)
(7.33303 0.000752157 0)
(7.3333 0.00223016 0)
(7.33387 0.00364805 0)
(7.33469 0.0049558 0)
(7.3357 0.0061307 0)
(7.33685 0.00717336 0)
(7.3381 0.0080934 0)
(7.33943 0.00890345 0)
(7.34081 0.00961887 0)
(7.34221 0.010257 0)
(7.34363 0.0108355 0)
(7.34506 0.0113712 0)
(7.34649 0.0118801 0)
(7.34793 0.0123771 0)
(7.34937 0.0128762 0)
(7.35082 0.0133897 0)
(7.35229 0.0139288 0)
(7.35378 0.014503 0)
(7.35532 0.01512 0)
(7.35691 0.0157852 0)
(7.35857 0.0165015 0)
(7.36032 0.0172683 0)
(7.36219 0.018081 0)
(7.36419 0.0189297 0)
(7.36635 0.0197989 0)
(7.36869 0.0206657 0)
(7.37125 0.0214999 0)
(7.37403 0.0222632 0)
(7.37704 0.0229098 0)
(7.38029 0.0233876 0)
(7.38377 0.0236405 0)
(7.38746 0.023615 0)
(7.3913 0.02323 0)
(7.33303 0.00067347 0)
(7.33329 0.00199681 0)
(7.33382 0.00327026 0)
(7.33459 0.00445017 0)
(7.33554 0.00551746 0)
(7.33664 0.00647197 0)
(7.33784 0.00732084 0)
(7.33913 0.00807413 0)
(7.34047 0.00874433 0)
(7.34185 0.00934565 0)
(7.34326 0.00989288 0)
(7.34468 0.0104004 0)
(7.34611 0.0108821 0)
(7.34756 0.0113507 0)
(7.34902 0.0118181 0)
(7.3505 0.0122949 0)
(7.35201 0.01279 0)
(7.35355 0.0133108 0)
(7.35513 0.0138625 0)
(7.35677 0.0144481 0)
(7.35849 0.0150678 0)
(7.36029 0.0157184 0)
(7.3622 0.0163928 0)
(7.36423 0.0170793 0)
(7.36641 0.0177611 0)
(7.36876 0.0184157 0)
(7.37128 0.0190146 0)
(7.37398 0.019524 0)
(7.37688 0.0199048 0)
(7.37996 0.0201146 0)
(7.38321 0.0201094 0)
(7.38661 0.0198494 0)
(7.3901 0.019272 0)
(7.33303 0.000597095 0)
(7.33327 0.00177053 0)
(7.33377 0.00290381 0)
(7.3345 0.00395806 0)
(7.33541 0.00491701 0)
(7.33646 0.00578037 0)
(7.33762 0.00655347 0)
(7.33887 0.00724424 0)
(7.34018 0.00786271 0)
(7.34154 0.00842039 0)
(7.34293 0.00892946 0)
(7.34435 0.009402 0)
(7.34579 0.00984958 0)
(7.34725 0.0102831 0)
(7.34873 0.0107123 0)
(7.35024 0.0111459 0)
(7.35177 0.0115908 0)
(7.35335 0.0120523 0)
(7.35497 0.0125337 0)
(7.35665 0.0130358 0)
(7.3584 0.0135567 0)
(7.36024 0.0140913 0)
(7.36217 0.014631 0)
(7.36422 0.0151631 0)
(7.3664 0.0156706 0)
(7.36872 0.0161323 0)
(7.37118 0.0165226 0)
(7.37379 0.0168119 0)
(7.37656 0.0169679 0)
(7.37946 0.0169564 0)
(7.38249 0.0167437 0)
(7.38562 0.0163004 0)
(7.38881 0.0155784 0)
(7.33303 0.000522675 0)
(7.33326 0.00155004 0)
(7.33373 0.0025463 0)
(7.33443 0.00347629 0)
(7.3353 0.00432598 0)
(7.33631 0.00509523 0)
(7.33743 0.00578818 0)
(7.33865 0.006411 0)
(7.33994 0.00697161 0)
(7.34128 0.00747921 0)
(7.34266 0.00794361 0)
(7.34407 0.00837465 0)
(7.34552 0.00878186 0)
(7.34699 0.00917408 0)
(7.34849 0.00955923 0)
(7.35001 0.00994403 0)
(7.35158 0.0103337 0)
(7.35318 0.0107316 0)
(7.35483 0.0111394 0)
(7.35654 0.011556 0)
(7.35831 0.0119781 0)
(7.36017 0.0123992 0)
(7.36211 0.0128099 0)
(7.36416 0.0131974 0)
(7.36631 0.0135454 0)
(7.36858 0.0138344 0)
(7.37097 0.0140419 0)
(7.37348 0.0141427 0)
(7.37611 0.0141105 0)
(7.37884 0.0139184 0)
(7.38165 0.0135406 0)
(7.38454 0.0129561 0)
(7.38744 0.012128 0)
(7.33302 0.000449817 0)
(7.33324 0.00133407 0)
(7.3337 0.00219548 0)
(7.33437 0.0030019 0)
(7.3352 0.00374109 0)
(7.33618 0.00441327 0)
(7.33727 0.00502183 0)
(7.33846 0.00557153 0)
(7.33973 0.00606854 0)
(7.34106 0.00652 0)
(7.34243 0.00693362 0)
(7.34384 0.00731719 0)
(7.34529 0.00767823 0)
(7.34677 0.00802369 0)
(7.34829 0.00835968 0)
(7.34983 0.00869114 0)
(7.35141 0.00902164 0)
(7.35303 0.00935304 0)
(7.35471 0.00968531 0)
(7.35643 0.0100162 0)
(7.35822 0.0103413 0)
(7.36008 0.0106534 0)
(7.36202 0.0109428 0)
(7.36405 0.0111971 0)
(7.36616 0.0114011 0)
(7.36837 0.0115375 0)
(7.37068 0.0115868 0)
(7.37308 0.0115283 0)
(7.37556 0.0113405 0)
(7.37812 0.0110027 0)
(7.38074 0.0104956 0)
(7.38339 0.00980448 0)
(7.38604 0.00890138 0)
(7.33302 0.000378123 0)
(7.33323 0.00112141 0)
(7.33367 0.00184926 0)
(7.33431 0.0025321 0)
(7.33512 0.00315918 0)
(7.33607 0.00373124 0)
(7.33714 0.00425124 0)
(7.33831 0.00472289 0)
(7.33956 0.00515085 0)
(7.34087 0.00554053 0)
(7.34224 0.00589774 0)
(7.34366 0.00622836 0)
(7.34511 0.00653806 0)
(7.3466 0.006832 0)
(7.34812 0.00711457 0)
(7.34968 0.00738913 0)
(7.35128 0.00765774 0)
(7.35291 0.00792089 0)
(7.3546 0.00817737 0)
(7.35633 0.008424 0)
(7.35812 0.00865554 0)
(7.35998 0.0088646 0)
(7.3619 0.00904162 0)
(7.36389 0.00917491 0)
(7.36596 0.00925086 0)
(7.3681 0.00925423 0)
(7.37032 0.0091686 0)
(7.3726 0.00897694 0)
(7.37495 0.00866239 0)
(7.37734 0.00820907 0)
(7.37976 0.00760291 0)
(7.3822 0.00683376 0)
(7.38462 0.00588066 0)
(7.33302 0.00030721 0)
(7.33323 0.000910898 0)
(7.33365 0.00150571 0)
(7.33427 0.00206427 0)
(7.33506 0.0025772 0)
(7.33598 0.00304589 0)
(7.33703 0.00347316 0)
(7.33818 0.00386197 0)
(7.33942 0.00421575 0)
(7.34073 0.0045384 0)
(7.3421 0.00483405 0)
(7.34351 0.00510682 0)
(7.34497 0.00536067 0)
(7.34646 0.00559908 0)
(7.348 0.00582487 0)
(7.34957 0.00603995 0)
(7.35117 0.00624505 0)
(7.35282 0.00643954 0)
(7.35451 0.00662124 0)
(7.35624 0.00678631 0)
(7.35802 0.00692914 0)
(7.35986 0.00704235 0)
(7.36175 0.00711684 0)
(7.36371 0.00714192 0)
(7.36572 0.00710556 0)
(7.36778 0.00699469 0)
(7.3699 0.00679565 0)
(7.37207 0.00649475 0)
(7.37428 0.00607883 0)
(7.37651 0.005536 0)
(7.37876 0.0048562 0)
(7.381 0.00403283 0)
(7.38321 0.00305021 0)
(7.33302 0.000236736 0)
(7.33322 0.00070149 0)
(7.33363 0.00116304 0)
(7.33423 0.00159594 0)
(7.335 0.00199216 0)
(7.33591 0.00235392 0)
(7.33695 0.00268423 0)
(7.33809 0.00298552 0)
(7.33932 0.00326025 0)
(7.34062 0.00351101 0)
(7.34198 0.00374043 0)
(7.3434 0.00395106 0)
(7.34486 0.00414523 0)
(7.34637 0.00432491 0)
(7.34791 0.00449145 0)
(7.34948 0.00464546 0)
(7.35109 0.00478652 0)
(7.35274 0.00491305 0)
(7.35443 0.00502216 0)
(7.35616 0.00510956 0)
(7.35792 0.00516951 0)
(7.35974 0.00519488 0)
(7.3616 0.00517723 0)
(7.3635 0.00510698 0)
(7.36544 0.00497366 0)
(7.36743 0.00476624 0)
(7.36945 0.00447356 0)
(7.37151 0.00408474 0)
(7.37358 0.0035897 0)
(7.37566 0.0029797 0)
(7.37774 0.00224775 0)
(7.37981 0.00138985 0)
(7.38183 0.000394391 0)
(7.33302 0.000166415 0)
(7.33321 0.000492308 0)
(7.33361 0.000819685 0)
(7.3342 0.0011248 0)
(7.33496 0.0014011 0)
(7.33585 0.00165198 0)
(7.33688 0.0018809 0)
(7.33801 0.00209003 0)
(7.33924 0.00228105 0)
(7.34054 0.00245544 0)
(7.34191 0.00261449 0)
(7.34333 0.00275929 0)
(7.3448 0.00289069 0)
(7.3463 0.00300923 0)
(7.34785 0.00311496 0)
(7.34943 0.0032073 0)
(7.35104 0.00328484 0)
(7.35269 0.00334524 0)
(7.35437 0.00338507 0)
(7.35608 0.00339976 0)
(7.35783 0.00338364 0)
(7.35961 0.00332997 0)
(7.36143 0.00323104 0)
(7.36328 0.00307841 0)
(7.36516 0.0028631 0)
(7.36706 0.00257594 0)
(7.36899 0.00220789 0)
(7.37093 0.00175045 0)
(7.37288 0.001196 0)
(7.37482 0.000538266 0)
(7.37674 -0.000227414 0)
(7.37865 -0.00110316 0)
(7.3805 -0.00209746 0)
(7.33302 9.60624e-05 0)
(7.33321 0.00028273 0)
(7.3336 0.000474358 0)
(7.33418 0.000648695 0)
(7.33492 0.000801063 0)
(7.33581 0.000936527 0)
(7.33683 0.00105936 0)
(7.33796 0.00117165 0)
(7.33919 0.00127448 0)
(7.34049 0.00136838 0)
(7.34186 0.00145345 0)
(7.34329 0.0015294 0)
(7.34476 0.00159568 0)
(7.34628 0.00165148 0)
(7.34783 0.00169564 0)
(7.34941 0.00172651 0)
(7.35102 0.00174183 0)
(7.35267 0.00173861 0)
(7.35433 0.00171301 0)
(7.35603 0.00166038 0)
(7.35775 0.0015752 0)
(7.3595 0.0014512 0)
(7.36127 0.00128147 0)
(7.36306 0.00105862 0)
(7.36487 0.000775086 0)
(7.3667 0.000423298 0)
(7.36853 -3.95388e-06 0)
(7.37036 -0.000513244 0)
(7.37218 -0.0011102 0)
(7.37399 -0.00179921 0)
(7.37578 -0.00258317 0)
(7.37753 -0.00346289 0)
(7.37923 -0.00444441 0)
(7.33302 2.56602e-05 0)
(7.3332 7.25594e-05 0)
(7.33358 0.000126211 0)
(7.33415 0.000165699 0)
(7.33489 0.000189019 0)
(7.33578 0.00020376 0)
(7.3368 0.000215382 0)
(7.33793 0.000226018 0)
(7.33916 0.000236282 0)
(7.34047 0.000245903 0)
(7.34185 0.000253863 0)
(7.34329 0.000258605 0)
(7.34477 0.000258283 0)
(7.34629 0.000250848 0)
(7.34784 0.000234009 0)
(7.34943 0.000205144 0)
(7.35104 0.000161203 0)
(7.35267 9.86307e-05 0)
(7.35433 1.32919e-05 0)
(7.356 -9.95391e-05 0)
(7.35769 -0.000245165 0)
(7.3594 -0.000429381 0)
(7.36113 -0.000658358 0)
(7.36286 -0.000938475 0)
(7.3646 -0.00127612 0)
(7.36634 -0.00167746 0)
(7.36808 -0.00214821 0)
(7.36981 -0.00269338 0)
(7.37152 -0.00331705 0)
(7.37321 -0.00402218 0)
(7.37486 -0.00481045 0)
(7.37648 -0.00568176 0)
(7.37803 -0.00664045 0)
(7.33302 -4.45033e-05 0)
(7.33319 -0.00013765 0)
(7.33356 -0.000224895 0)
(7.33412 -0.000325832 0)
(7.33486 -0.000438206 0)
(7.33575 -0.000550604 0)
(7.33677 -0.000655971 0)
(7.33792 -0.000751995 0)
(7.33916 -0.000838428 0)
(7.34048 -0.000916383 0)
(7.34187 -0.000988154 0)
(7.34332 -0.00105673 0)
(7.34481 -0.0011253 0)
(7.34634 -0.00119711 0)
(7.3479 -0.00127547 0)
(7.34948 -0.00136386 0)
(7.35109 -0.00146593 0)
(7.35271 -0.00158566 0)
(7.35435 -0.00172735 0)
(7.356 -0.00189569 0)
(7.35767 -0.00209569 0)
(7.35934 -0.00233265 0)
(7.36101 -0.00261205 0)
(7.36268 -0.00293936 0)
(7.36436 -0.00331994 0)
(7.36602 -0.0037588 0)
(7.36767 -0.00426044 0)
(7.3693 -0.00482864 0)
(7.37091 -0.00546632 0)
(7.37248 -0.00617539 0)
(7.37402 -0.0069566 0)
(7.37551 -0.00780926 0)
(7.37693 -0.00873625 0)
(7.33302 -0.000113557 0)
(7.33318 -0.000345968 0)
(7.33354 -0.000577948 0)
(7.33409 -0.000827198 0)
(7.33482 -0.00108398 0)
(7.33571 -0.00133129 0)
(7.33675 -0.00156048 0)
(7.33791 -0.00176908 0)
(7.33917 -0.00195666 0)
(7.34051 -0.00212465 0)
(7.34192 -0.00227639 0)
(7.34338 -0.00241633 0)
(7.34488 -0.00254921 0)
(7.34642 -0.00267973 0)
(7.34799 -0.00281251 0)
(7.34957 -0.0029521 0)
(7.35117 -0.00310298 0)
(7.35279 -0.00326967 0)
(7.35441 -0.00345674 0)
(7.35604 -0.00366891 0)
(7.35767 -0.00391097 0)
(7.3593 -0.0041878 0)
(7.36092 -0.00450424 0)
(7.36254 -0.004865 0)
(7.36415 -0.00527453 0)
(7.36574 -0.00573687 0)
(7.36731 -0.00625554 0)
(7.36885 -0.00683335 0)
(7.37035 -0.00747234 0)
(7.37183 -0.00817364 0)
(7.37325 -0.00893745 0)
(7.37463 -0.00976282 0)
(7.37594 -0.0106518 0)
(7.33302 -0.000179466 0)
(7.33317 -0.000547782 0)
(7.3335 -0.000929898 0)
(7.33403 -0.00133957 0)
(7.33476 -0.00175287 0)
(7.33567 -0.00214395 0)
(7.33673 -0.00250334 0)
(7.33791 -0.00283015 0)
(7.3392 -0.00312537 0)
(7.34057 -0.00339171 0)
(7.342 -0.00363375 0)
(7.34348 -0.00385684 0)
(7.345 -0.00406639 0)
(7.34655 -0.00426769 0)
(7.34813 -0.00446594 0)
(7.34971 -0.00466619 0)
(7.35131 -0.00487333 0)
(7.35291 -0.00509216 0)
(7.35452 -0.00532741 0)
(7.35612 -0.0055838 0)
(7.35772 -0.00586599 0)
(7.35931 -0.00617855 0)
(7.36089 -0.00652589 0)
(7.36245 -0.00691221 0)
(7.364 -0.00734134 0)
(7.36551 -0.00781667 0)
(7.367 -0.00834105 0)
(7.36846 -0.00891665 0)
(7.36988 -0.00954494 0)
(7.37125 -0.0102266 0)
(7.37258 -0.0109613 0)
(7.37385 -0.0117479 0)
(7.37505 -0.0125876 0)
(7.33301 -0.000237796 0)
(7.33314 -0.000733538 0)
(7.33343 -0.00127365 0)
(7.33394 -0.00186196 0)
(7.33467 -0.00245099 0)
(7.33561 -0.00300207 0)
(7.33669 -0.00350089 0)
(7.33791 -0.00394324 0)
(7.33922 -0.0043298 0)
(7.34061 -0.00466703 0)
(7.34207 -0.00496473 0)
(7.34358 -0.00523288 0)
(7.34512 -0.00548037 0)
(7.34668 -0.00571514 0)
(7.34826 -0.00594427 0)
(7.34986 -0.00617401 0)
(7.35145 -0.00640989 0)
(7.35305 -0.00665694 0)
(7.35464 -0.00691979 0)
(7.35622 -0.00720282 0)
(7.35779 -0.00751017 0)
(7.35935 -0.00784576 0)
(7.36088 -0.00821325 0)
(7.3624 -0.00861605 0)
(7.36388 -0.00905719 0)
(7.36533 -0.00953927 0)
(7.36675 -0.0100644 0)
(7.36813 -0.0106341 0)
(7.36947 -0.0112493 0)
(7.37076 -0.0119104 0)
(7.37199 -0.0126169 0)
(7.37318 -0.0133677 0)
(7.37429 -0.0141641 0)
(7.33301 -0.000278097 0)
(7.33308 -0.000885287 0)
(7.33329 -0.00160165 0)
(7.33376 -0.00239029 0)
(7.33451 -0.00316562 0)
(7.33548 -0.00389588 0)
(7.33662 -0.00458072 0)
(7.33789 -0.00521322 0)
(7.33926 -0.00578386 0)
(7.34071 -0.00629148 0)
(7.34222 -0.00674207 0)
(7.34375 -0.00714391 0)
(7.34532 -0.00750572 0)
(7.3469 -0.00783639 0)
(7.34849 -0.00814453 0)
(7.35008 -0.0084382 0)
(7.35166 -0.00872474 0)
(7.35325 -0.0090108 0)
(7.35481 -0.00930243 0)
(7.35637 -0.00960512 0)
(7.3579 -0.00992386 0)
(7.35942 -0.0102632 0)
(7.36091 -0.0106271 0)
(7.36236 -0.0110192 0)
(7.36379 -0.0114427 0)
(7.36518 -0.0119 0)
(7.36653 -0.0123932 0)
(7.36783 -0.0129237 0)
(7.36909 -0.0134923 0)
(7.3703 -0.0140993 0)
(7.37145 -0.014744 0)
(7.37255 -0.0154252 0)
(7.37357 -0.0161431 0)
(7.33299 -0.00027415 0)
(7.33295 -0.000954032 0)
(7.33304 -0.00190971 0)
(7.33346 -0.0029821 0)
(7.33422 -0.00395045 0)
(7.3352 -0.00475297 0)
(7.33634 -0.0054192 0)
(7.33763 -0.00598222 0)
(7.33904 -0.00646603 0)
(7.34053 -0.00689195 0)
(7.34208 -0.00727761 0)
(7.34367 -0.00763577 0)
(7.34527 -0.00797575 0)
(7.34689 -0.0083048 0)
(7.34851 -0.00862872 0)
(7.35013 -0.00895218 0)
(7.35173 -0.00927913 0)
(7.35332 -0.00961305 0)
(7.35489 -0.00995718 0)
(7.35644 -0.0103145 0)
(7.35796 -0.010688 0)
(7.35945 -0.0110803 0)
(7.36091 -0.0114938 0)
(7.36234 -0.011931 0)
(7.36372 -0.0123939 0)
(7.36506 -0.0128841 0)
(7.36636 -0.013403 0)
(7.36761 -0.0139515 0)
(7.36881 -0.0145302 0)
(7.36996 -0.0151392 0)
(7.37105 -0.0157783 0)
(7.37209 -0.0164467 0)
(7.37306 -0.0171454 0)
(7.33295 -0.00018172 0)
(7.33263 -0.000830117 0)
(7.33245 -0.0020141 0)
(7.33285 -0.0035458 0)
(7.33379 -0.00518544 0)
(7.33499 -0.00678066 0)
(7.33631 -0.00821791 0)
(7.33772 -0.0094348 0)
(7.33919 -0.0104303 0)
(7.34071 -0.0112347 0)
(7.34225 -0.0118821 0)
(7.34381 -0.0124032 0)
(7.34539 -0.012826 0)
(7.34697 -0.0131754 0)
(7.34855 -0.0134722 0)
(7.35013 -0.0137333 0)
(7.35169 -0.0139724 0)
(7.35325 -0.0142005 0)
(7.35478 -0.0144263 0)
(7.3563 -0.014657 0)
(7.35779 -0.0148984 0)
(7.35925 -0.0151553 0)
(7.36069 -0.0154314 0)
(7.36208 -0.0157299 0)
(7.36344 -0.0160533 0)
(7.36475 -0.0164033 0)
(7.36602 -0.0167813 0)
(7.36724 -0.0171883 0)
(7.36841 -0.0176244 0)
(7.36953 -0.0180896 0)
(7.37059 -0.0185832 0)
(7.37159 -0.019104 0)
(7.37251 -0.0196518 0)
(7.3329 0.000145759 0)
(7.33208 -0.000810771 0)
(7.33128 -0.00205111 0)
(7.33117 -0.00264354 0)
(7.33173 -0.00284163 0)
(7.33276 -0.00310379 0)
(7.33413 -0.00354037 0)
(7.33574 -0.00408935 0)
(7.33747 -0.00470461 0)
(7.33925 -0.00536797 0)
(7.34105 -0.00606187 0)
(7.34285 -0.00676735 0)
(7.34464 -0.00747029 0)
(7.34642 -0.00816231 0)
(7.34817 -0.00883874 0)
(7.3499 -0.00949733 0)
(7.35161 -0.0101377 0)
(7.35329 -0.0107608 0)
(7.35494 -0.0113685 0)
(7.35656 -0.0119634 0)
(7.35815 -0.0125481 0)
(7.35971 -0.0131256 0)
(7.36122 -0.0136987 0)
(7.3627 -0.0142702 0)
(7.36413 -0.0148426 0)
(7.36552 -0.0154182 0)
(7.36686 -0.015999 0)
(7.36814 -0.0165867 0)
(7.36938 -0.0171825 0)
(7.37056 -0.0177876 0)
(7.37168 -0.0184026 0)
(7.37275 -0.0190278 0)
(7.37376 -0.0196646 0)
(7.33241 0.00209293 0)
(7.33047 -0.000517529 0)
(7.33035 -0.0071705 0)
(7.33149 -0.0135409 0)
(7.33255 -0.0181713 0)
(7.33336 -0.0212619 0)
(7.3343 -0.0232291 0)
(7.33548 -0.0243778 0)
(7.33685 -0.0249463 0)
(7.33835 -0.0251249 0)
(7.33998 -0.025054 0)
(7.34172 -0.0248323 0)
(7.34355 -0.0245284 0)
(7.34544 -0.0241889 0)
(7.34738 -0.0238447 0)
(7.34936 -0.023516 0)
(7.35134 -0.0232156 0)
(7.35334 -0.0229513 0)
(7.35533 -0.0227275 0)
(7.3573 -0.0225465 0)
(7.35925 -0.0224092 0)
(7.36116 -0.0223155 0)
(7.36304 -0.0222647 0)
(7.36488 -0.0222557 0)
(7.36666 -0.0222874 0)
(7.36839 -0.0223582 0)
(7.37006 -0.0224669 0)
(7.37168 -0.0226117 0)
(7.37322 -0.0227911 0)
(7.3747 -0.0230036 0)
(7.37611 -0.0232476 0)
(7.37745 -0.023522 0)
(7.3787 -0.0238268 0)
(7.32878 0.00629852 0)
(7.31726 0.0180066 0)
(7.31246 0.0252554 0)
(7.31404 0.0273492 0)
(7.31795 0.0260827 0)
(7.3222 0.0233147 0)
(7.32652 0.0200027 0)
(7.33085 0.0165036 0)
(7.33512 0.0129994 0)
(7.33927 0.00962803 0)
(7.3433 0.00647335 0)
(7.3472 0.00356663 0)
(7.35099 0.000909657 0)
(7.35467 -0.00150779 0)
(7.35824 -0.00370146 0)
(7.3617 -0.00569029 0)
(7.36505 -0.00749446 0)
(7.36831 -0.00913381 0)
(7.37145 -0.010627 0)
(7.3745 -0.0119912 0)
(7.37744 -0.013242 0)
(7.38027 -0.0143935 0)
(7.383 -0.0154583 0)
(7.38563 -0.0164476 0)
(7.38815 -0.017371 0)
(7.39057 -0.0182374 0)
(7.39289 -0.0190543 0)
(7.3951 -0.0198282 0)
(7.3972 -0.0205649 0)
(7.39921 -0.021269 0)
(7.40111 -0.0219444 0)
(7.40291 -0.0225938 0)
(7.4046 -0.0232224 0)
(7.33379 -0.0332847 0)
(7.33301 -0.0722645 0)
(7.32817 -0.0856016 0)
(7.32662 -0.0869977 0)
(7.3302 -0.0845664 0)
(7.33745 -0.0805611 0)
(7.34645 -0.0756835 0)
(7.35601 -0.0705893 0)
(7.36558 -0.0657355 0)
(7.37491 -0.0612948 0)
(7.38385 -0.0572957 0)
(7.39229 -0.0537292 0)
(7.40019 -0.0505731 0)
(7.40756 -0.0477946 0)
(7.4144 -0.0453553 0)
(7.42075 -0.043217 0)
(7.42661 -0.0413449 0)
(7.43203 -0.0397075 0)
(7.43702 -0.038277 0)
(7.44162 -0.0370287 0)
(7.44584 -0.0359412 0)
(7.44971 -0.0349959 0)
(7.45326 -0.0341766 0)
(7.4565 -0.0334693 0)
(7.45945 -0.0328616 0)
(7.46212 -0.0323429 0)
(7.46454 -0.031904 0)
(7.46672 -0.0315365 0)
(7.46867 -0.0312334 0)
(7.4704 -0.0309884 0)
(7.47192 -0.030796 0)
(7.47325 -0.0306518 0)
(7.47439 -0.0305508 0)
(7.33141 0.165002 0)
(7.34788 0.1852 0)
(7.3604 0.152183 0)
(7.35693 0.118111 0)
(7.34297 0.089904 0)
(7.32432 0.0675172 0)
(7.30313 0.0500261 0)
(7.2802 0.0363 0)
(7.25632 0.0253655 0)
(7.23213 0.0165359 0)
(7.20801 0.00933759 0)
(7.18415 0.00342181 0)
(7.16064 -0.00147663 0)
(7.13757 -0.00555923 0)