/*--------------------------------*- C++ -*----------------------------------*\
  =========                 |
  \\      /  F ield         | OpenFOAM: The Open Source CFD Toolbox
   \\    /   O peration     | Website:  https://openfoam.org
    \\  /    A nd           | Version:  10
     \\/     M anipulation  |
\*---------------------------------------------------------------------------*/
FoamFile
{
    format      ascii;
    class       volScalarField;
    location    "1000";
    object      yPlus;
}
// * * * * * * * * * * * * * * * * * * * * * * * * * * * * * * * * * * * * * //

dimensions      [0 0 0 0 0 0 0];

internalField   uniform 0;

boundaryField
{
    outlet
    {
        type            calculated;
        value           uniform 0;
    }
    inlet
    {
        type            calculated;
        value           uniform 0;
    }
    lowerWall
    {
        type            calculated;
        value           nonuniform List<scalar> 
148
(
9.9937
9.87583
9.76655
9.65577
9.54325
9.43227
9.32599
9.22679
9.13588
9.05383
8.98065
8.91611
8.85968
8.81085
8.76895
8.73344
8.70372
8.67918
8.65937
8.64376
8.63194
8.62352
8.61811
8.61543
8.61517
8.61705
8.62119
8.62663
8.63147
8.65553
8.57293
9.35934
6.63257
4.78147
7.23657
9.07214
10.4661
11.4095
11.5014
11.7842
11.3738
11.5676
11.8048
12.2112
12.3112
12.1681
14.4528
21.2975
4.78147
11.489
12.1845
12.2744
12.1246
11.8704
11.7643
11.7079
12.0574
13.2966
15.4602
18.2564
21.3555
24.5383
27.6802
30.7174
33.6212
36.383
39.0041
41.4904
43.8493
46.0889
48.2169
50.241
52.1682
54.005
55.7575
57.4302
59.0273
60.5516
62.0049
63.3889
64.7044
65.9528
67.1361
68.2584
69.3259
70.3412
71.2863
72.1644
72.973
73.708
74.3656
74.9422
75.4354
75.8449
76.1727
76.4237
76.6058
76.7298
76.8088
76.8574
76.8905
76.922
76.9635
77.0234
77.1062
77.2123
77.3377
77.4745
77.6123
77.7379
77.8365
77.8929
77.8924
77.8213
77.6671
77.4206
77.0809
76.6626
76.2112
75.8678
75.6207
75.2828
74.8223
74.2486
73.5788
72.8313
72.0244
71.1747
70.2971
69.4044
68.5075
67.6153
66.7352
65.8735
65.0351
64.2243
63.4449
62.7001
61.9925
61.3246
60.6984
60.1156
59.5777
59.0863
58.6424
58.2549
57.9111
57.6134
)
;
    }
    upperWall
    {
        type            calculated;
        value           nonuniform List<scalar> 
133
(
30.6045
31.4255
32.2162
32.9719
33.6929
34.3806
35.0365
35.6619
36.2579
36.8257
37.366
37.8803
38.3694
38.8344
39.2762
39.6959
40.0944
40.4727
40.8316
41.1721
41.4951
41.8013
42.0916
42.3667
42.6275
42.8746
43.1087
43.3305
43.5406
43.7395
43.928
44.1064
44.2755
44.4615
44.665
44.8616
45.0512
45.2335
45.4085
45.576
45.7359
45.888
46.0323
46.1686
46.2968
46.4169
46.5287
46.6321
46.7271
46.8135
46.8913
46.9603
47.0205
47.0717
47.1139
47.147
47.1707
47.1851
47.1899
47.1851
47.1704
47.1457
47.1108
47.0656
47.0098
46.9433
46.8658
46.7771
46.677
46.5655
46.4421
46.3067
46.1592
45.9996
45.8275
45.6431
45.4463
45.2371
45.0156
44.7821
44.5366
44.2797
44.0117
43.733
43.4444
43.1465
42.84
42.526
42.2054
41.8795
41.5496
41.2172
40.884
40.5519
40.223
39.8996
39.5842
39.2795
38.988
38.7127
38.4561
38.2204
38.0079
37.8198
37.6569
37.5192
37.406
37.3156
37.2457
37.1934
37.1553
37.1276
37.1068
37.0892
37.0715
37.0508
37.0247
36.9914
36.9494
36.8979
36.8364
36.7649
36.6836
36.5927
36.4931
36.3853
36.2701
36.1484
36.0202
35.8887
35.746
35.6259
35.3954
)
;
    }
    frontAndBack
    {
        type            empty;
    }
}


// ************************************************************************* //
