/*--------------------------------*- C++ -*----------------------------------*\
  =========                 |
  \\      /  F ield         | OpenFOAM: The Open Source CFD Toolbox
   \\    /   O peration     | Website:  https://openfoam.org
    \\  /    A nd           | Version:  10
     \\/     M anipulation  |
\*---------------------------------------------------------------------------*/
FoamFile
{
    format      ascii;
    class       volScalarField;
    location    "0.17";
    object      epsilon;
}
// * * * * * * * * * * * * * * * * * * * * * * * * * * * * * * * * * * * * * //

dimensions      [0 2 -3 0 0 0 0];

internalField   nonuniform List<scalar> 
6820
(
23.2969
22.5752
21.9094
21.2853
20.7018
20.1632
19.6734
19.2344
18.8457
18.505
18.2093
17.9548
17.7376
17.5539
17.4003
17.2735
17.1705
17.0885
17.0252
16.9783
16.946
16.9265
16.9182
16.9198
16.93
16.948
16.972
17.0042
17.0305
17.1132
16.9574
17.9394
13.5986
5.03386
6.81831
7.83934
8.46761
8.89806
9.23147
9.52169
9.79514
10.0638
10.3328
10.6039
10.8774
11.1532
11.4307
11.7093
11.9885
12.2676
12.5461
12.8234
13.0991
13.3728
13.644
13.9127
14.1787
14.4421
14.7035
14.9638
15.2253
15.4905
15.7795
16.0564
16.5986
16.619
3.7036
4.14719
4.56526
4.91422
5.19795
5.43122
5.62808
5.79976
5.95469
6.09898
6.23692
6.37143
6.50442
6.63712
6.77027
6.90427
7.03932
7.17545
7.31262
7.45071
7.58959
7.7291
7.86909
8.00946
8.15014
8.29119
8.43271
8.57544
8.71934
8.86877
9.01863
9.19015
9.35748
3.54009
3.61093
3.72473
3.85372
3.98118
4.09942
4.20622
4.30199
4.38822
4.46669
4.53911
4.60699
4.67157
4.73385
4.7946
4.85441
4.91372
4.97286
5.03204
5.09142
5.15111
5.21117
5.27163
5.33254
5.39391
5.4558
5.5183
5.58162
5.64592
5.71202
5.78005
5.85132
5.92824
3.52064
3.50151
3.50498
3.52611
3.55868
3.59721
3.6378
3.67804
3.71665
3.75308
3.78725
3.81931
3.8495
3.87815
3.90554
3.93196
3.95765
3.98283
4.00766
4.03229
4.05683
4.08138
4.106
4.13076
4.15572
4.18094
4.20647
4.23243
4.2589
4.28611
4.31423
4.34338
4.37395
3.5194
3.48247
3.45303
3.43232
3.41995
3.4145
3.41422
3.41751
3.42307
3.42998
3.43757
3.44545
3.45336
3.46117
3.46881
3.47629
3.48362
3.49083
3.49797
3.50508
3.5122
3.51938
3.52664
3.53403
3.54158
3.54931
3.55727
3.5655
3.57406
3.58302
3.59246
3.60241
3.61292
3.51943
3.47974
3.44283
3.40949
3.38025
3.35523
3.3342
3.31668
3.30212
3.28998
3.27976
3.27106
3.26355
3.25698
3.25116
3.24595
3.24124
3.23697
3.23307
3.22951
3.22627
3.22332
3.22066
3.21829
3.21619
3.21437
3.21284
3.21161
3.21069
3.21011
3.2099
3.21007
3.2106
3.51947
3.47943
3.44109
3.40466
3.37041
3.33852
3.30907
3.28205
3.25734
3.23479
3.21417
3.19528
3.17792
3.1619
3.14705
3.13323
3.12031
3.1082
3.09681
3.08608
3.07593
3.06632
3.05721
3.04857
3.04037
3.03259
3.02522
3.01823
3.01163
3.00541
2.99958
2.99412
2.98903
3.51948
3.47941
3.44085
3.40382
3.36835
3.33448
3.30225
3.27168
3.24278
3.21551
3.18982
3.16561
3.14281
3.12131
3.10103
3.08186
3.06372
3.04652
3.0302
3.01468
2.9999
2.98582
2.97238
2.95953
2.94725
2.9355
2.92426
2.91349
2.90319
2.89333
2.88391
2.87491
2.86631
3.51948
3.47941
3.44082
3.40368
3.36796
3.33361
3.30062
3.26897
3.23863
3.2096
3.18183
3.15529
3.12995
3.10575
3.08265
3.06059
3.03951
3.01936
3.00009
2.98166
2.964
2.94708
2.93086
2.9153
2.90035
2.886
2.87221
2.85895
2.84621
2.83395
2.82218
2.81086
2.79997
3.51948
3.4794
3.44081
3.40365
3.36788
3.33344
3.30027
3.26833
3.23758
3.20798
3.1795
3.15211
3.12576
3.10043
3.07608
3.05267
3.03016
3.00853
2.98772
2.96771
2.94846
2.92993
2.9121
2.89492
2.87838
2.86244
2.84707
2.83226
2.81798
2.80421
2.79094
2.77813
2.76579
3.51948
3.4794
3.4408
3.40364
3.36786
3.33339
3.30018
3.26818
3.23732
3.20757
3.17888
3.15121
3.12453
3.09879
3.07396
3.05002
3.02691
3.00463
2.98312
2.96237
2.94234
2.92301
2.90435
2.88632
2.86892
2.85211
2.83586
2.82017
2.80501
2.79035
2.77619
2.76251
2.74928
3.51948
3.4794
3.44079
3.40363
3.36784
3.33337
3.30015
3.26813
3.23725
3.20746
3.17871
3.15097
3.12418
3.09831
3.07333
3.04919
3.02587
3.00334
2.98156
2.9605
2.94015
2.92046
2.90142
2.88301
2.86519
2.84796
2.83128
2.81514
2.79951
2.7844
2.76976
2.7556
2.74188
3.51948
3.47939
3.44079
3.40362
3.36783
3.33336
3.30013
3.2681
3.23721
3.20741
3.17865
3.15088
3.12406
3.09816
3.07313
3.04893
3.02554
3.00293
2.98105
2.95988
2.9394
2.91958
2.9004
2.88182
2.86383
2.84641
2.82954
2.8132
2.79736
2.78203
2.76716
2.75276
2.73881
3.51947
3.47939
3.44079
3.40362
3.36782
3.33334
3.30011
3.26808
3.23718
3.20738
3.17861
3.15083
3.12401
3.09809
3.07304
3.04883
3.02542
3.00277
2.98087
2.95966
2.93914
2.91927
2.90003
2.8814
2.86335
2.84586
2.82891
2.81248
2.79656
2.78113
2.76617
2.75166
2.73759
3.51947
3.47939
3.44078
3.40361
3.36781
3.33333
3.3001
3.26806
3.23716
3.20735
3.17857
3.15079
3.12396
3.09804
3.07299
3.04877
3.02535
3.0027
2.98078
2.95956
2.93903
2.91914
2.89988
2.88123
2.86315
2.84564
2.82866
2.8122
2.79625
2.78078
2.76577
2.75122
2.7371
3.51947
3.47939
3.44078
3.40361
3.36781
3.33332
3.30008
3.26804
3.23714
3.20732
3.17855
3.15076
3.12393
3.098
3.07294
3.04872
3.0253
3.00264
2.98071
2.95949
2.93895
2.91906
2.8998
2.88113
2.86305
2.84552
2.82853
2.81206
2.7961
2.78061
2.76559
2.75101
2.73687
3.51947
3.47939
3.44078
3.4036
3.3678
3.33331
3.30007
3.26803
3.23712
3.2073
3.17852
3.15073
3.1239
3.09797
3.07291
3.04868
3.02525
3.00259
2.98066
2.95944
2.93889
2.919
2.89973
2.88106
2.86297
2.84544
2.82845
2.81197
2.79599
2.7805
2.76546
2.75088
2.73673
3.51947
3.47939
3.44078
3.4036
3.3678
3.33331
3.30006
3.26802
3.23711
3.20728
3.1785
3.15071
3.12387
3.09793
3.07287
3.04864
3.02521
3.00254
2.98061
2.95939
2.93884
2.91894
2.89967
2.88099
2.8629
2.84537
2.82837
2.81189
2.7959
2.7804
2.76536
2.75077
2.73661
3.51947
3.47939
3.44077
3.4036
3.36779
3.3333
3.30006
3.268
3.23709
3.20727
3.17848
3.15069
3.12384
3.09791
3.07284
3.04861
3.02517
3.0025
2.98057
2.95934
2.93879
2.91888
2.89961
2.88093
2.86284
2.8453
2.82829
2.81181
2.79582
2.78031
2.76526
2.75067
2.7365
3.51947
3.47939
3.44077
3.40359
3.36779
3.33329
3.30005
3.268
3.23708
3.20725
3.17846
3.15067
3.12382
3.09788
3.07281
3.04857
3.02514
3.00246
2.98053
2.95929
2.93874
2.91883
2.89955
2.88088
2.86278
2.84523
2.82822
2.81173
2.79574
2.78022
2.76517
2.75057
2.73639
3.51947
3.47938
3.44077
3.40359
3.36779
3.33329
3.30004
3.26799
3.23707
3.20724
3.17845
3.15065
3.1238
3.09786
3.07278
3.04855
3.02511
3.00243
2.98049
2.95925
2.9387
2.91879
2.8995
2.88082
2.86272
2.84517
2.82816
2.81166
2.79566
2.78014
2.76508
2.75047
2.73629
3.51947
3.47938
3.44077
3.40359
3.36778
3.33329
3.30004
3.26798
3.23706
3.20723
3.17843
3.15063
3.12378
3.09784
3.07276
3.04852
3.02508
3.0024
2.98046
2.95922
2.93866
2.91874
2.89946
2.88077
2.86266
2.84511
2.82809
2.81159
2.79559
2.78006
2.765
2.75038
2.73619
3.51947
3.47938
3.44077
3.40359
3.36778
3.33328
3.30003
3.26797
3.23705
3.20722
3.17842
3.15062
3.12377
3.09782
3.07274
3.0485
3.02505
3.00237
2.98043
2.95918
2.93862
2.91871
2.89941
2.88072
2.86261
2.84506
2.82804
2.81153
2.79552
2.77999
2.76492
2.75029
2.73609
3.51947
3.47938
3.44077
3.40359
3.36778
3.33328
3.30003
3.26797
3.23705
3.20721
3.17841
3.15061
3.12375
3.0978
3.07272
3.04848
3.02503
3.00235
2.9804
2.95915
2.93859
2.91867
2.89937
2.88068
2.86256
2.845
2.82798
2.81147
2.79545
2.77992
2.76484
2.75021
2.736
3.51947
3.47938
3.44077
3.40359
3.36778
3.33328
3.30003
3.26797
3.23704
3.20721
3.17841
3.1506
3.12374
3.09779
3.07271
3.04846
3.02501
3.00233
2.98037
2.95913
2.93856
2.91864
2.89934
2.88064
2.86252
2.84496
2.82793
2.81141
2.79539
2.77985
2.76477
2.75013
2.73592
3.51947
3.47938
3.44077
3.40359
3.36778
3.33328
3.30002
3.26796
3.23704
3.2072
3.1784
3.15059
3.12373
3.09778
3.0727
3.04844
3.02499
3.00231
2.98035
2.9591
2.93853
2.9186
2.8993
2.8806
2.86248
2.84491
2.82788
2.81136
2.79533
2.77979
2.7647
2.75006
2.73584
3.51947
3.47938
3.44077
3.40359
3.36778
3.33328
3.30002
3.26796
3.23704
3.2072
3.1784
3.15059
3.12373
3.09777
3.07269
3.04844
3.02498
3.00229
2.98034
2.95909
2.93851
2.91858
2.89928
2.88058
2.86245
2.84488
2.82784
2.81131
2.79529
2.77973
2.76464
2.74999
2.73577
3.51947
3.47938
3.44077
3.40359
3.36778
3.33327
3.30002
3.26796
3.23703
3.20719
3.17839
3.15058
3.12372
3.09776
3.07268
3.04842
3.02497
3.00228
2.98032
2.95907
2.93849
2.91856
2.89925
2.88055
2.86242
2.84484
2.8278
2.81127
2.79524
2.77968
2.76459
2.74993
2.7357
3.51947
3.47938
3.44077
3.40359
3.36778
3.33328
3.30003
3.26797
3.23704
3.2072
3.1784
3.15059
3.12373
3.09777
3.07269
3.04843
3.02498
3.00228
2.98032
2.95907
2.93849
2.91856
2.89925
2.88054
2.86241
2.84483
2.82778
2.81125
2.79521
2.77965
2.76455
2.74989
2.73566
3.51947
3.47939
3.44077
3.40359
3.36778
3.33328
3.30002
3.26796
3.23703
3.20719
3.17839
3.15058
3.12371
3.09776
3.07267
3.04842
3.02496
3.00227
2.98031
2.95906
2.93848
2.91855
2.89924
2.88053
2.86239
2.84482
2.82777
2.81124
2.7952
2.77964
2.76454
2.74988
2.73565
3.51947
3.47938
3.44077
3.40359
3.36779
3.3333
3.30006
3.268
3.23708
3.20725
3.17845
3.15064
3.12378
3.09783
3.07274
3.04849
3.02503
3.00234
2.98038
2.95913
2.93855
2.91862
2.89931
2.88061
2.86248
2.8449
2.82786
2.81134
2.79531
2.77976
2.76466
2.75001
2.73579
3.51948
3.4794
3.44079
3.40362
3.36782
3.33332
3.30007
3.26801
3.23709
3.20725
3.17845
3.15065
3.1238
3.09786
3.07279
3.04855
3.02511
3.00244
2.98051
2.95928
2.93873
2.91883
2.89956
2.8809
2.86281
2.84528
2.82829
2.81181
2.79584
2.78034
2.76531
2.75072
2.73656
3.51947
3.47939
3.44079
3.40365
3.36789
3.33344
3.30023
3.26821
3.23733
3.20754
3.17879
3.15103
3.12423
3.09835
3.07334
3.04919
3.02585
3.00328
2.98147
2.96038
2.93998
2.92024
2.90114
2.88266
2.86478
2.84746
2.83069
2.81444
2.79871
2.78346
2.76869
2.75436
2.74047
3.51949
3.47947
3.44095
3.40384
3.36811
3.33369
3.30054
3.26862
3.23789
3.2083
3.17981
3.15237
3.12595
3.1005
3.076
3.05239
3.02965
3.00774
2.98662
2.96627
2.94665
2.92772
2.90947
2.89187
2.87488
2.85847
2.84264
2.82734
2.81256
2.79828
2.78448
2.77113
2.75822
3.5195
3.47953
3.44117
3.40446
3.36933
3.33573
3.3036
3.27291
3.24363
3.21572
3.18913
3.16381
3.1397
3.11674
3.09489
3.07407
3.05424
3.03534
3.01731
3.0001
2.98367
2.96797
2.95296
2.93858
2.92482
2.91162
2.89896
2.88681
2.87513
2.8639
2.85309
2.84269
2.83266
3.51969
3.48122
3.44561
3.41286
3.38296
3.35588
3.33151
3.30967
3.29015
3.27273
3.2572
3.24336
3.231
3.21997
3.2101
3.20125
3.19329
3.18612
3.17962
3.17372
3.16834
3.1634
3.15885
3.15464
3.15071
3.14704
3.14358
3.1403
3.13719
3.1342
3.13134
3.12856
3.12587
3.52527
3.5137
3.51623
3.52952
3.55077
3.57797
3.60948
3.64404
3.68068
3.71865
3.75738
3.79641
3.83537
3.87401
3.9121
3.94947
3.98601
4.02164
4.05627
4.08988
4.12243
4.15391
4.18432
4.21367
4.24197
4.26924
4.29549
4.32075
4.34506
4.36843
4.39091
4.41251
4.43329
3.83318
4.36505
4.84911
5.31398
5.77422
6.22525
6.66276
7.08492
7.49133
7.88241
8.2589
8.62171
8.97174
9.3098
9.63664
9.95293
10.2592
10.5561
10.8439
11.1232
11.3941
11.6572
11.9126
12.1606
12.4016
12.6357
12.8633
13.0845
13.2995
13.5087
13.7121
13.9099
14.1025
30.2663
32.7713
35.3126
37.865
40.4147
42.9529
45.4713
47.9623
50.4192
52.8355
55.2059
57.5255
59.7902
61.9966
64.142
66.2241
68.2414
70.1927
72.0774
73.8952
75.6462
77.3308
78.9497
80.5037
81.9941
83.4221
84.7892
86.0969
87.3469
88.5408
89.6804
90.7673
91.8047
83.4943
235.985
418.333
586.174
712.454
788.259
818.006
812.964
785.605
746.372
702.624
658.868
617.469
579.404
544.86
513.649
485.442
459.9
436.719
415.642
396.446
378.932
362.917
348.222
334.676
322.118
310.393
299.361
288.892
278.869
269.187
259.751
250.477
241.293
232.133
222.946
213.689
204.328
194.842
185.222
175.468
165.595
155.626
145.6
135.563
125.573
115.697
106.008
96.5846
87.5051
78.8467
70.6802
63.0666
56.0546
49.6774
43.952
38.8785
34.4411
30.6108
27.3474
24.6038
22.3291
20.4719
18.983
17.8175
16.9352
16.3011
15.8848
15.6598
15.6015
15.6863
15.8896
16.1848
16.5423
16.9296
17.3118
17.6525
17.9162
18.0695
18.0832
17.9336
17.6042
17.086
16.3782
15.4886
14.4335
13.2379
11.935
10.5658
9.17738
7.82041
6.54519
5.39623
4.40641
3.59213
2.95189
2.46958
2.11713
1.8784
1.6526
19.8271
29.2869
46.6284
72.4547
105.824
144.529
185.658
226.307
263.846
296.167
321.911
340.531
352.2
357.631
357.869
354.081
347.387
338.76
328.969
318.582
307.991
297.446
287.091
277.004
267.214
257.719
248.501
239.532
230.775
222.19
213.735
205.367
197.047
188.737
180.406
172.029
163.587
155.072
146.483
137.83
129.132
120.418
111.725
103.099
94.5959
86.2737
78.1968
70.4308
63.0398
56.0837
49.6146
43.6736
38.2885
33.4725
29.2234
25.5246
22.3471
19.6521
17.3944
15.5258
13.9982
12.7661
11.7883
11.0293
10.4593
10.0539
9.79415
9.66495
9.65446
9.75263
9.94983
10.2353
10.5959
11.0143
11.4692
11.9345
12.3804
12.7751
13.0863
13.2843
13.3432
13.2436
12.9734
12.5289
11.9155
11.1479
10.2493
9.25172
8.19399
7.12003
6.07552
5.10352
4.23932
3.50594
2.91154
2.45008
2.10587
1.85571
1.68725
1.52798
9.52836
9.87781
10.8352
12.8252
16.1361
20.934
27.3048
35.1891
44.53
55.254
67.1957
80.0322
93.3269
106.577
119.266
130.918
141.143
149.667
156.349
161.171
164.228
165.689
165.767
164.687
162.661
159.873
156.476
152.589
148.302
143.682
138.779
133.627
128.254
122.681
116.927
111.012
104.957
98.7862
92.5289
86.2187
79.8942
73.599
67.3808
61.2904
55.3804
49.7031
44.309
39.2444
34.5485
30.2519
26.3743
22.9235
19.8952
17.2735
15.0333
13.1422
11.5633
10.2583
9.18958
8.32222
7.62511
7.0716
6.63961
6.31146
6.07349
5.91556
5.83057
5.81391
5.86287
5.97601
6.15229
6.39009
6.68601
7.03359
7.42222
7.83634
8.25537
8.65444
9.00599
9.28192
9.4561
9.50676
9.41854
9.18405
8.80476
8.29136
7.66356
6.94909
6.18208
5.40044
4.64233
3.94192
3.3252
2.80714
2.39099
2.06993
1.83143
1.65815
1.54193
1.43179
6.01209
6.09411
6.19614
6.3744
6.69192
7.20817
7.97286
9.01948
10.3756
12.0565
14.0627
16.4173
19.1436
22.2538
25.7417
29.5763
33.6974
38.0154
42.4157
46.7669
50.9326
54.7839
58.2096
61.1238
63.4684
65.2126
66.3502
66.8949
66.8754
66.3307
65.3053
63.8465
62.0017
59.8171
57.3382
54.609
51.6731
48.5741
45.3558
42.0622
38.7381
35.4278
32.1746
29.02
26.0021
23.1544
20.5051
18.0752
15.8783
13.9203
12.199
10.7054
9.42491
8.3386
7.42541
6.66359
6.03206
5.51138
5.08431
4.73606
4.45426
4.22886
4.05188
3.91724
3.82051
3.75872
3.73026
3.73463
3.77238
3.84483
3.95377
4.10103
4.28775
4.51357
4.77556
5.06723
5.37772
5.69158
5.98931
6.24871
6.44698
6.56311
6.58031
6.48811
6.2838
5.97308
5.57005
5.09615
4.57838
4.04653
3.52986
3.05354
2.63569
2.28589
2.00548
1.78913
1.6283
1.51104
1.43269
1.35808
4.40992
4.4488
4.48692
4.52943
4.58497
4.66528
4.78364
4.95229
5.18148
5.48011
5.8465
6.28241
6.79068
7.37455
8.03717
8.78096
9.60677
10.513
11.4947
12.5424
13.6419
14.7739
15.9145
17.0358
18.1076
19.0985
19.9781
20.7189
21.2977
21.6967
21.905
21.9179
21.7371
21.3703
20.83
20.1333
19.3005
18.3545
17.32
16.2225
15.0876
13.94
12.8029
11.697
10.64
9.64619
8.72591
7.88589
7.12918
6.45566
5.86258
5.34516
4.89728
4.51214
4.18271
3.90216
3.66413
3.46288
3.29336
3.15124
3.03292
2.93541
2.85639
2.79412
2.74742
2.71566
2.69874
2.69707
2.71159
2.74368
2.79513
2.86795
2.96412
3.0851
3.23127
3.40117
3.59069
3.79244
3.9955
4.18575
4.34698
4.46258
4.51768
4.50122
4.40773
4.23842
4.00139
3.7109
3.38583
3.04726
2.71574
2.40867
2.13836
1.91123
1.72839
1.58658
1.48078
1.40314
1.35154
1.30202
3.62567
3.64004
3.65422
3.66865
3.6842
3.7026
3.72655
3.75938
3.80459
3.86543
3.94349
4.03986
4.1551
4.28943
4.44278
4.61485
4.80509
5.0126
5.2361
5.47379
5.72325
5.9814
6.24445
6.50786
6.76639
7.01415
7.24475
7.45153
7.62789
7.76764
7.86538
7.91683
7.91911
7.87094
7.77273
7.62658
7.43615
7.20648
6.94372
6.65474
6.34684
6.02736
5.70336
5.38129
5.0668
4.76457
4.47824
4.21044
3.96283
3.73622
3.53068
3.34572
3.18038
3.03344
2.90345
2.78891
2.6883
2.60018
2.52319
2.45614
2.39795
2.34775
2.30483
2.2687
2.23904
2.21576
2.19902
2.1892
2.18696
2.19321
2.20912
2.23608
2.27557
2.329
2.39743
2.48112
2.57906
2.68845
2.80426
2.91907
3.02339
3.10647
3.15763
3.16781
3.13118
3.04626
2.91646
2.74979
2.55783
2.35397
2.15155
1.96194
1.79339
1.65044
1.53439
1.4436
1.37552
1.32511
1.29191
1.25961
3.21166
3.21304
3.21447
3.21597
3.21761
3.21957
3.22226
3.22637
3.23284
3.2426
3.25659
3.27555
3.30005
3.33043
3.36681
3.40911
3.45707
3.51028
3.56814
3.62992
3.69474
3.76157
3.82922
3.89641
3.9617
4.02355
4.08034
4.1304
4.17203
4.20363
4.22375
4.23114
4.22488
4.20437
4.16945
4.12034
4.05774
3.98269
3.89662
3.80121
3.69833
3.59
3.47821
3.36491
3.25189
3.14076
3.03288
2.92937
2.83108
2.73861
2.65232
2.57238
2.49876
2.4313
2.36971
2.31365
2.26269
2.21641
2.17438
2.13619
2.10146
2.06986
2.04115
2.01513
1.99172
1.97092
1.95284
1.93772
1.92594
1.91802
1.91464
1.91662
1.92489
1.94043
1.96409
1.99648
2.03762
2.08669
2.14167
2.19914
2.25426
2.30104
2.333
2.34405
2.32958
2.28737
2.21819
2.1258
2.01647
1.89795
1.77825
1.66447
1.56198
1.47399
1.40178
1.3447
1.30167
1.2694
1.24847
1.22758
2.98353
2.9775
2.97154
2.96563
2.9598
2.95403
2.94838
2.94296
2.93794
2.93355
2.93007
2.92779
2.92698
2.92789
2.93067
2.93541
2.94213
2.95074
2.96107
2.97287
2.98583
2.99955
3.01359
3.02747
3.04064
3.05256
3.06266
3.07034
3.07505
3.07622
3.07337
3.06606
3.05397
3.03687
3.01466
2.98737
2.95518
2.91837
2.87738
2.83273
2.78502
2.73492
2.68312
2.63033
2.57721
2.5244
2.47244
2.42182
2.37293
2.32608
2.28147
2.23922
2.1994
2.16196
2.12683
2.09388
2.06295
2.03386
2.00642
1.98045
1.95576
1.93221
1.90965
1.88802
1.86725
1.84735
1.82838
1.81048
1.79384
1.77874
1.76556
1.75477
1.74689
1.74254
1.74231
1.74669
1.75599
1.77009
1.78832
1.80928
1.8307
1.8496
1.86246
1.8657
1.85631
1.83238
1.79365
1.74158
1.67923
1.61073
1.54059
1.47301
1.41133
1.3577
1.3132
1.2776
1.25063
1.23004
1.21697
1.20332
2.85676
2.84614
2.83561
2.82516
2.81477
2.80445
2.79417
2.78395
2.77381
2.7638
2.75396
2.74437
2.73512
2.7263
2.71799
2.71025
2.70313
2.69664
2.69076
2.68542
2.68055
2.67601
2.67165
2.66727
2.66268
2.65765
2.65196
2.64537
2.63765
2.62857
2.61793
2.60556
2.5913
2.57507
2.5568
2.53649
2.5142
2.49003
2.46414
2.43671
2.408
2.37825
2.34776
2.3168
2.28567
2.25464
2.22394
2.19379
2.16436
2.1358
2.10819
2.08158
2.056
2.0314
2.00775
1.98497
1.96296
1.94161
1.92082
1.90046
1.88044
1.86066
1.84103
1.82151
1.80205
1.78265
1.76333
1.74417
1.72527
1.70678
1.6889
1.6719
1.65608
1.6418
1.62943
1.61934
1.61181
1.60697
1.6047
1.6045
1.60544
1.60615
1.6049
1.59979
1.58908
1.5715
1.54656
1.5147
1.47728
1.43637
1.39435
1.35358
1.31602
1.283
1.25533
1.23288
1.21578
1.20238
1.19412
1.18477
2.78779
2.77419
2.76068
2.74726
2.7339
2.72062
2.70739
2.69422
2.6811
2.66804
2.65503
2.6421
2.62925
2.6165
2.60387
2.59139
2.57908
2.56694
2.55499
2.5432
2.53158
2.52007
2.50863
2.4972
2.48571
2.47408
2.46221
2.45003
2.43742
2.4243
2.41059
2.3962
2.38107
2.36517
2.34845
2.33092
2.3126
2.29352
2.27374
2.25336
2.23248
2.21119
2.18964
2.16793
2.14621
2.12458
2.10315
2.08202
2.06125
2.0409
2.02098
2.00152
1.98249
1.96386
1.94558
1.92758
1.9098
1.89215
1.87456
1.85693
1.8392
1.82129
1.80315
1.78472
1.766
1.74696
1.72761
1.70799
1.68816
1.6682
1.64824
1.62841
1.60891
1.58994
1.57175
1.55457
1.53863
1.52411
1.51107
1.49941
1.48882
1.47876
1.46847
1.45704
1.44358
1.42736
1.40799
1.38555
1.36061
1.33411
1.30728
1.28134
1.25739
1.23618
1.21824
1.20346
1.19211
1.18289
1.17737
1.17035
2.75192
2.73639
2.72094
2.70558
2.69028
2.67505
2.65989
2.64479
2.62975
2.61476
2.59982
2.58495
2.57012
2.55534
2.54062
2.52595
2.51134
2.49679
2.4823
2.46786
2.45347
2.43913
2.42481
2.4105
2.39619
2.38183
2.36742
2.3529
2.33826
2.32345
2.30844
2.29321
2.27774
2.262
2.24598
2.22969
2.21313
2.19632
2.1793
2.16209
2.14475
2.12732
2.10985
2.09241
2.07504
2.05778
2.04069
2.0238
2.00711
1.99065
1.97441
1.95836
1.94247
1.92671
1.91102
1.89535
1.87962
1.86378
1.84776
1.83149
1.8149
1.79796
1.78059
1.76278
1.7445
1.72574
1.70649
1.68679
1.66666
1.64617
1.62538
1.6044
1.58334
1.56234
1.54155
1.52114
1.50129
1.48214
1.46381
1.44636
1.42975
1.41382
1.3983
1.38282
1.36699
1.35046
1.33301
1.31463
1.29553
1.27616
1.25709
1.23892
1.22224
1.20741
1.19478
1.18419
1.17597
1.16896
1.16484
1.15885
2.73439
2.71767
2.70102
2.68443
2.6679
2.65143
2.63502
2.61867
2.60237
2.58614
2.56996
2.55384
2.53778
2.52178
2.50583
2.48993
2.47409
2.45829
2.44254
2.42684
2.41117
2.39555
2.37995
2.36439
2.34885
2.33332
2.3178
2.30229
2.28678
2.27125
2.25569
2.24012
2.22451
2.20886
2.19318
2.17747
2.16173
2.14599
2.13024
2.11452
2.09884
2.08321
2.06767
2.05224
2.03692
2.02175
2.00672
1.99184
1.9771
1.9625
1.948
1.93358
1.9192
1.90481
1.89036
1.8758
1.86107
1.8461
1.83085
1.81524
1.79924
1.78278
1.76584
1.74838
1.73038
1.71183
1.69273
1.6731
1.65296
1.63236
1.61134
1.58999
1.56838
1.54662
1.52482
1.50309
1.48159
1.46043
1.43973
1.41961
1.40011
1.38126
1.36301
1.34525
1.32787
1.31074
1.29377
1.27697
1.26042
1.24434
1.22897
1.21461
1.20154
1.18992
1.17995
1.17144
1.16472
1.15873
1.15518
1.1494
2.72642
2.70903
2.69168
2.67437
2.65711
2.63989
2.62272
2.60559
2.58852
2.5715
2.55453
2.53762
2.52078
2.50399
2.48727
2.47061
2.454
2.43746
2.42098
2.40456
2.3882
2.37189
2.35563
2.33943
2.32328
2.30719
2.29115
2.27517
2.25925
2.24338
2.22757
2.21183
2.19616
2.18055
2.16502
2.14957
2.13421
2.11894
2.10378
2.08873
2.07381
2.05901
2.04436
2.02984
2.01548
2.00126
1.98717
1.97322
1.95937
1.94562
1.93192
1.91824
1.90453
1.89076
1.87688
1.86282
1.84853
1.83396
1.81906
1.80377
1.78805
1.77185
1.75514
1.73788
1.72007
1.70169
1.68274
1.66324
1.6432
1.62267
1.60169
1.58032
1.55862
1.53669
1.5146
1.49247
1.4704
1.44851
1.4269
1.4057
1.38499
1.36486
1.34534
1.32647
1.30825
1.29067
1.27374
1.25748
1.24195
1.22724
1.2135
1.20083
1.18938
1.1792
1.17039
1.16275
1.15659
1.1509
1.14742
1.14138
2.72305
2.7053
2.68758
2.66989
2.65222
2.63458
2.61698
2.59941
2.58188
2.56439
2.54695
2.52957
2.51223
2.49496
2.47775
2.4606
2.44352
2.4265
2.40955
2.39268
2.37588
2.35914
2.34249
2.3259
2.3094
2.29297
2.27663
2.26037
2.24421
2.22814
2.21218
2.19632
2.18057
2.16495
2.14945
2.13408
2.11886
2.10377
2.08884
2.07406
2.05945
2.04499
2.0307
2.01657
2.00259
1.98876
1.97507
1.96149
1.948
1.93458
1.92119
1.9078
1.89436
1.88083
1.86715
1.85328
1.83917
1.82475
1.81
1.79484
1.77925
1.76317
1.74659
1.72947
1.71179
1.69354
1.67474
1.65538
1.6355
1.61511
1.59427
1.57303
1.55145
1.52959
1.50755
1.48542
1.46328
1.44124
1.41942
1.3979
1.37681
1.35622
1.33624
1.31693
1.29834
1.28054
1.26357
1.24746
1.23228
1.21809
1.20495
1.19292
1.18207
1.17238
1.16393
1.15649
1.15037
1.14459
1.14091
1.13434
2.7217
2.70378
2.68588
2.66799
2.65011
2.63226
2.61442
2.59662
2.57884
2.56109
2.54338
2.52571
2.5081
2.49053
2.47302
2.45557
2.43818
2.42086
2.40362
2.38644
2.36935
2.35233
2.3354
2.31856
2.30181
2.28515
2.26859
2.25213
2.23579
2.21956
2.20346
2.18749
2.17165
2.15596
2.14041
2.12502
2.1098
2.09474
2.07985
2.06513
2.05059
2.03623
2.02203
2.00801
1.99414
1.98041
1.96682
1.95334
1.93994
1.9266
1.91328
1.89995
1.88656
1.87307
1.85943
1.8456
1.83151
1.81713
1.80241
1.7873
1.77175
1.75574
1.73923
1.7222
1.70462
1.6865
1.66783
1.64862
1.6289
1.60869
1.58803
1.56698
1.54559
1.52393
1.50207
1.4801
1.45811
1.43619
1.41444
1.39296
1.37186
1.35123
1.33117
1.31176
1.29309
1.27522
1.25823
1.24216
1.22708
1.21302
1.20003
1.18814
1.17739
1.16774
1.15924
1.15166
1.14531
1.13922
1.1352
1.12798
2.72115
2.70315
2.68516
2.66718
2.6492
2.63124
2.61329
2.59535
2.57744
2.55956
2.5417
2.52388
2.5061
2.48836
2.47067
2.45304
2.43546
2.41795
2.40051
2.38314
2.36585
2.34864
2.33152
2.31448
2.29754
2.28071
2.26398
2.24736
2.23087
2.2145
2.19826
2.18216
2.16621
2.15041
2.13478
2.1193
2.104
2.08888
2.07393
2.05917
2.04459
2.03018
2.01595
2.00189
1.98798
1.97422
1.96059
1.94707
1.93363
1.92024
1.90687
1.89349
1.88005
1.8665
1.85282
1.83894
1.82482
1.81041
1.79567
1.78055
1.76502
1.74904
1.73258
1.71561
1.69812
1.68011
1.66156
1.6425
1.62295
1.60292
1.58247
1.56163
1.54046
1.51903
1.49741
1.47567
1.45391
1.43221
1.41066
1.38936
1.36841
1.34791
1.32794
1.30861
1.28999
1.27215
1.25518
1.23912
1.22404
1.20996
1.19694
1.18497
1.1741
1.16426
1.15552
1.14765
1.14093
1.13445
1.13002
1.12209
2.72089
2.70286
2.68482
2.66679
2.64876
2.63074
2.61273
2.59473
2.57675
2.55878
2.54084
2.52293
2.50506
2.48722
2.46943
2.45168
2.43398
2.41635
2.39878
2.38128
2.36385
2.3465
2.32923
2.31206
2.29498
2.278
2.26113
2.24438
2.22774
2.21124
2.19487
2.17865
2.16257
2.14666
2.1309
2.11532
2.0999
2.08467
2.06962
2.05475
2.04006
2.02555
2.01122
1.99705
1.98304
1.96918
1.95544
1.94181
1.92826
1.91476
1.90128
1.88779
1.87425
1.86061
1.84684
1.83288
1.81869
1.80423
1.78945
1.77431
1.75877
1.74281
1.72638
1.70947
1.69206
1.67414
1.65572
1.6368
1.61741
1.59757
1.57732
1.55669
1.53576
1.51457
1.4932
1.47173
1.45022
1.42877
1.40747
1.38641
1.36568
1.34537
1.32557
1.30638
1.28787
1.27011
1.25318
1.23713
1.22201
1.20786
1.19472
1.18259
1.1715
1.16139
1.15233
1.14409
1.13696
1.13004
1.12518
1.11654
2.72073
2.70267
2.68461
2.66655
2.64849
2.63044
2.61239
2.59435
2.57632
2.55831
2.54032
2.52236
2.50442
2.48652
2.46865
2.45083
2.43306
2.41534
2.39767
2.38007
2.36255
2.34509
2.32772
2.31043
2.29324
2.27615
2.25916
2.24228
2.22553
2.2089
2.19241
2.17606
2.15986
2.14382
2.12794
2.11223
2.09669
2.08132
2.06614
2.05114
2.03632
2.02168
2.00721
1.99291
1.97877
1.96476
1.95089
1.93712
1.92343
1.90979
1.89619
1.88257
1.8689
1.85515
1.84127
1.82721
1.81294
1.79842
1.78359
1.76842
1.75287
1.73691
1.72051
1.70365
1.68631
1.66849
1.65019
1.63141
1.61218
1.59252
1.57246
1.55206
1.53135
1.51041
1.4893
1.46808
1.44684
1.42565
1.40461
1.3838
1.3633
1.34321
1.3236
1.30457
1.28619
1.26852
1.25164
1.2356
1.22044
1.2062
1.19291
1.18058
1.16923
1.15882
1.14941
1.14077
1.13322
1.12585
1.12056
1.11123
2.72059
2.70252
2.68445
2.66636
2.64828
2.6302
2.61213
2.59406
2.576
2.55796
2.53993
2.52193
2.50395
2.48599
2.46808
2.4502
2.43236
2.41457
2.39684
2.37917
2.36156
2.34402
2.32656
2.30918
2.29189
2.2747
2.25761
2.24063
2.22376
2.20702
2.19042
2.17395
2.15763
2.14146
2.12545
2.10961
2.09394
2.07844
2.06312
2.04798
2.03302
2.01824
2.00362
1.98917
1.97488
1.96072
1.9467
1.93278
1.91894
1.90516
1.89141
1.87766
1.86386
1.84999
1.83599
1.82184
1.80749
1.79289
1.778
1.7628
1.74723
1.73128
1.7149
1.69809
1.68082
1.66309
1.64491
1.62626
1.60719
1.5877
1.56784
1.54765
1.52717
1.50647
1.4856
1.46464
1.44366
1.42274
1.40195
1.38139
1.36113
1.34125
1.32184
1.30298
1.28472
1.26715
1.25032
1.23428
1.21907
1.20473
1.19128
1.17874
1.16713
1.1564
1.14662
1.13759
1.1296
1.12178
1.11608
1.10609
2.72047
2.70239
2.68429
2.6662
2.6481
2.63
2.6119
2.59381
2.57572
2.55765
2.53959
2.52155
2.50353
2.48554
2.46758
2.44965
2.43177
2.41392
2.39613
2.37839
2.36072
2.34311
2.32557
2.30811
2.29074
2.27345
2.25627
2.23919
2.22223
2.20538
2.18867
2.17209
2.15565
2.13936
2.12323
2.10726
2.09146
2.07583
2.06037
2.04509
2.02999
2.01506
2.0003
1.9857
1.97125
1.95694
1.94277
1.92869
1.91471
1.90078
1.88689
1.873
1.85907
1.84507
1.83097
1.81672
1.80228
1.78761
1.77267
1.75743
1.74185
1.72589
1.70954
1.69277
1.67557
1.65793
1.63986
1.62135
1.60242
1.58311
1.56344
1.54345
1.52319
1.50272
1.4821
1.46139
1.44066
1.41999
1.39945
1.37913
1.35909
1.33943
1.32021
1.3015
1.28337
1.26589
1.2491
1.23306
1.21779
1.20334
1.18973
1.17697
1.16508
1.15403
1.14388
1.13445
1.12604
1.11779
1.11168
1.10105
2.72035
2.70226
2.68415
2.66604
2.64792
2.6298
2.61168
2.59357
2.57546
2.55736
2.53928
2.52121
2.50315
2.48513
2.46712
2.44915
2.43122
2.41333
2.39548
2.37769
2.35995
2.34227
2.32467
2.30713
2.28968
2.27232
2.25505
2.23788
2.22082
2.20388
2.18706
2.17038
2.15383
2.13743
2.12118
2.10509
2.08916
2.0734
2.05781
2.04239
2.02715
2.01207
1.99717
1.98242
1.96782
1.95337
1.93904
1.92482
1.91069
1.89662
1.88258
1.86856
1.8545
1.84039
1.82617
1.81182
1.7973
1.78256
1.76757
1.75229
1.73669
1.72074
1.70441
1.68769
1.67055
1.653
1.63503
1.61665
1.59787
1.57872
1.55923
1.53945
1.5194
1.49916
1.47877
1.4583
1.43781
1.41739
1.39709
1.377
1.35718
1.33772
1.31867
1.30011
1.2821
1.2647
1.24795
1.23189
1.21656
1.20199
1.18821
1.17522
1.16305
1.15167
1.14115
1.13132
1.12248
1.1138
1.10729
1.09608
2.72024
2.70213
2.68401
2.66589
2.64775
2.62962
2.61148
2.59334
2.57521
2.55709
2.53898
2.52088
2.50279
2.48473
2.46669
2.44869
2.43071
2.41277
2.39487
2.37703
2.35923
2.3415
2.32382
2.30622
2.2887
2.27126
2.25391
2.23666
2.21951
2.20248
2.18556
2.16877
2.15212
2.13561
2.11925
2.10304
2.08699
2.07111
2.05539
2.03984
2.02446
2.00925
1.9942
1.97931
1.96458
1.94998
1.9355
1.92114
1.90686
1.89265
1.87848
1.86432
1.85015
1.83592
1.8216
1.80715
1.79255
1.77774
1.7627
1.74739
1.73177
1.71582
1.69951
1.68283
1.66576
1.64829
1.63042
1.61216
1.59353
1.57454
1.55523
1.53564
1.5158
1.49578
1.47562
1.45538
1.43513
1.41494
1.39487
1.375
1.35539
1.33612
1.31724
1.29882
1.28091
1.26357
1.24684
1.23076
1.21535
1.20065
1.18668
1.17345
1.16099
1.14927
1.13836
1.12812
1.11885
1.10975
1.10285
1.09109
2.72013
2.70202
2.68388
2.66574
2.64759
2.62944
2.61128
2.59313
2.57498
2.55683
2.53869
2.52057
2.50245
2.48436
2.46629
2.44824
2.43022
2.41224
2.3943
2.3764
2.35855
2.34076
2.32303
2.30536
2.28777
2.27026
2.25283
2.2355
2.21827
2.20115
2.18415
2.16727
2.15052
2.1339
2.11743
2.10111
2.08495
2.06895
2.05311
2.03743
2.02192
2.00658
1.9914
1.97637
1.96149
1.94676
1.93214
1.91764
1.90323
1.88888
1.87458
1.8603
1.846
1.83166
1.81724
1.80271
1.78802
1.77315
1.75806
1.74271
1.72708
1.71113
1.69485
1.67821
1.6612
1.64381
1.62605
1.60791
1.58942
1.57059
1.55145
1.53205
1.51242
1.4926
1.47266
1.45265
1.43263
1.41267
1.39282
1.37316
1.35375
1.33465
1.31592
1.29763
1.27981
1.26252
1.24579
1.22967
1.21417
1.19932
1.18514
1.17164
1.15886
1.14677
1.13546
1.1248
1.11509
1.10556
1.09828
1.08605
2.72003
2.7019
2.68376
2.6656
2.64744
2.62927
2.6111
2.59293
2.57475
2.55658
2.53842
2.52027
2.50213
2.484
2.4659
2.44782
2.42976
2.41174
2.39376
2.37581
2.35791
2.34007
2.32228
2.30455
2.2869
2.26932
2.25182
2.23442
2.21711
2.19991
2.18282
2.16584
2.149
2.13229
2.11572
2.09929
2.08302
2.06691
2.05095
2.03515
2.01952
2.00405
1.98874
1.97359
1.95858
1.94371
1.92896
1.91433
1.89978
1.88531
1.87088
1.85648
1.84207
1.82762
1.81311
1.79849
1.78373
1.7688
1.75366
1.73828
1.72264
1.7067
1.69044
1.67384
1.65689
1.63959
1.62193
1.60391
1.58556
1.56689
1.54793
1.52871
1.50928
1.48967
1.46995
1.45016
1.43036
1.41062
1.39098
1.37152
1.35229
1.33336
1.31477
1.29658
1.27883
1.26157
1.24482
1.22862
1.21299
1.19796
1.18353
1.16973
1.15659
1.1441
1.13235
1.12123
1.11108
1.10114