/*--------------------------------*- C++ -*----------------------------------*\
  =========                 |
  \\      /  F ield         | OpenFOAM: The Open Source CFD Toolbox
   \\    /   O peration     | Website:  https://openfoam.org
    \\  /    A nd           | Version:  10
     \\/     M anipulation  |
\*---------------------------------------------------------------------------*/
FoamFile
{
    format      ascii;
    class       volScalarField;
    location    "0.17";
    object      nut;
}
// * * * * * * * * * * * * * * * * * * * * * * * * * * * * * * * * * * * * * //

dimensions      [0 2 -1 0 0 0 0];

internalField   nonuniform List<scalar> 
6820
(
0.000149484
0.000144853
0.000140581
0.000136577
0.000132833
0.000129377
0.000126234
0.000123417
0.000120923
0.000118737
0.00011684
0.000115206
0.000113813
0.000112634
0.000111649
0.000110835
0.000110174
0.000109648
0.000109241
0.000108941
0.000108734
0.000108608
0.000108555
0.000108566
0.000108631
0.000108746
0.000108901
0.000109107
0.000109276
0.000109807
0.000108807
0.000115111
8.72293e-05
0.000729198
0.000532389
0.000448008
0.000399702
0.000368373
0.000346723
0.000331079
0.000319349
0.000310262
0.000303013
0.000297082
0.000292121
0.000287897
0.000284243
0.000281042
0.000278209
0.000275677
0.000273398
0.000271332
0.000269448
0.000267722
0.000266134
0.000264667
0.000263307
0.000262043
0.000260864
0.000259766
0.000258738
0.000257783
0.000256905
0.000256115
0.000255295
0.000256867
0.000976776
0.000872181
0.000781621
0.00071126
0.000657312
0.000615269
0.000581695
0.00055423
0.00053129
0.000511789
0.000494969
0.000480281
0.000467322
0.000455787
0.00044544
0.000436098
0.000427616
0.000419875
0.000412779
0.000406251
0.000400223
0.00039464
0.000389453
0.000384623
0.000380112
0.000375888
0.000371921
0.000368184
0.000364636
0.00036127
0.00035797
0.000354731
0.00035109
0.00101349
0.000988231
0.000949374
0.000906192
0.000864421
0.000826377
0.000792542
0.00076265
0.000736209
0.000712708
0.000691693
0.000672779
0.000655651
0.000640051
0.000625766
0.000612622
0.000600477
0.000589209
0.000578721
0.000568926
0.000559754
0.000551143
0.000543039
0.000535398
0.000528176
0.000521339
0.000514851
0.000508683
0.000502798
0.000497178
0.000491755
0.000486555
0.000481335
0.00101671
0.00101241
0.00100191
0.00098566
0.000965602
0.000943709
0.000921416
0.000899602
0.000878734
0.000859022
0.000840524
0.000823218
0.000807042
0.000791915
0.000777751
0.000764467
0.000751986
0.000740235
0.000729149
0.000718671
0.000708749
0.000699335
0.000690389
0.000681873
0.000673753
0.000665998
0.000658579
0.000651469
0.000644639
0.000638068
0.000631714
0.000625569
0.00061957
0.00101676
0.00101592
0.0010136
0.00100903
0.00100204
0.000992918
0.000982188
0.000970392
0.000957998
0.000945364
0.000932748
0.000920325
0.000908208
0.000896466
0.000885136
0.000874235
0.000863764
0.000853716
0.000844079
0.000834836
0.000825969
0.000817459
0.000809287
0.000801434
0.000793881
0.00078661
0.000779603
0.000772843
0.00076631
0.000759989
0.000753859
0.000747905
0.000742112
0.00101671
0.00101623
0.00101553
0.00101428
0.00101219
0.0010091
0.00100496
0.000999889
0.000994016
0.000987515
0.00098055
0.00097327
0.000965796
0.000958229
0.000950646
0.000943107
0.000935657
0.000928327
0.000921142
0.000914117
0.000907263
0.000900583
0.000894082
0.000887758
0.00088161
0.000875633
0.000869821
0.00086417
0.000858672
0.000853319
0.000848103
0.000843018
0.00083806
0.0010167
0.00101622
0.00101574
0.00101518
0.00101442
0.00101335
0.00101188
0.00100995
0.00100755
0.0010047
0.00100144
0.000997821
0.000993902
0.000989741
0.000985392
0.000980904
0.000976319
0.000971673
0.000966997
0.000962317
0.000957653
0.000953021
0.000948435
0.000943905
0.000939439
0.000935043
0.00093072
0.000926474
0.000922304
0.000918213
0.0009142
0.000910265
0.00090641
0.0010167
0.00101621
0.00101575
0.00101528
0.0010148
0.00101425
0.00101359
0.00101279
0.00101179
0.00101059
0.00100917
0.00100753
0.00100569
0.00100364
0.00100143
0.000999054
0.00099655
0.000993934
0.000991227
0.000988448
0.000985612
0.000982736
0.000979832
0.000976912
0.000973987
0.000971063
0.00096815
0.000965252
0.000962376
0.000959525
0.000956703
0.000953915
0.000951164
0.0010167
0.00101621
0.00101574
0.00101529
0.00101484
0.00101439
0.00101393
0.00101344
0.0010129
0.00101229
0.0010116
0.00101082
0.00100993
0.00100895
0.00100786
0.00100667
0.00100539
0.00100402
0.00100257
0.00100105
0.000999467
0.000997827
0.00099614
0.000994414
0.000992656
0.000990872
0.000989068
0.000987251
0.000985424
0.000983594
0.000981764
0.000979939
0.000978124
0.0010167
0.00101621
0.00101574
0.00101528
0.00101484
0.00101441
0.00101398
0.00101356
0.00101313
0.0010127
0.00101224
0.00101176
0.00101125
0.0010107
0.0010101
0.00100946
0.00100878
0.00100805
0.00100727
0.00100644
0.00100558
0.00100467
0.00100373
0.00100275
0.00100175
0.00100072
0.000999659
0.000998583
0.00099749
0.000996384
0.000995268
0.000994145
0.000993019
0.0010167
0.00101621
0.00101574
0.00101528
0.00101484
0.0010144
0.00101398
0.00101357
0.00101317
0.00101277
0.00101238
0.00101199
0.00101159
0.00101119
0.00101078
0.00101035
0.00100991
0.00100945
0.00100898
0.00100848
0.00100797
0.00100744
0.00100688
0.00100631
0.00100572
0.00100512
0.0010045
0.00100386
0.00100322
0.00100256
0.00100189
0.00100122
0.00100054
0.0010167
0.00101621
0.00101574
0.00101528
0.00101483
0.0010144
0.00101398
0.00101357
0.00101317
0.00101278
0.0010124
0.00101203
0.00101167
0.0010113
0.00101095
0.00101059
0.00101024
0.00100988
0.00100952
0.00100916
0.0010088
0.00100843
0.00100805
0.00100767
0.00100728
0.00100689
0.00100649
0.00100608
0.00100567
0.00100525
0.00100483
0.00100441
0.00100398
0.0010167
0.00101621
0.00101574
0.00101528
0.00101483
0.0010144
0.00101398
0.00101357
0.00101317
0.00101278
0.0010124
0.00101203
0.00101168
0.00101133
0.00101098
0.00101065
0.00101032
0.00100999
0.00100967
0.00100936
0.00100905
0.00100874
0.00100843
0.00100812
0.00100782
0.00100752
0.00100721
0.00100691
0.00100661
0.00100631
0.00100601
0.00100571
0.00100542
0.0010167
0.00101621
0.00101574
0.00101528
0.00101483
0.0010144
0.00101398
0.00101357
0.00101317
0.00101278
0.0010124
0.00101203
0.00101167
0.00101133
0.00101099
0.00101065
0.00101033
0.00101002
0.00100971
0.00100941
0.00100911
0.00100882
0.00100854
0.00100826
0.00100798
0.00100772
0.00100745
0.00100719
0.00100694
0.00100668
0.00100644
0.00100619
0.00100595
0.0010167
0.00101621
0.00101574
0.00101528
0.00101483
0.0010144
0.00101397
0.00101356
0.00101316
0.00101278
0.0010124
0.00101203
0.00101167
0.00101132
0.00101098
0.00101065
0.00101033
0.00101002
0.00100971
0.00100941
0.00100912
0.00100884
0.00100856
0.00100829
0.00100803
0.00100777
0.00100752
0.00100727
0.00100703
0.0010068
0.00100657
0.00100634
0.00100613
0.0010167
0.00101621
0.00101574
0.00101528
0.00101483
0.0010144
0.00101397
0.00101356
0.00101316
0.00101277
0.0010124
0.00101203
0.00101167
0.00101132
0.00101098
0.00101065
0.00101033
0.00101001
0.00100971
0.00100941
0.00100912
0.00100884
0.00100856
0.00100829
0.00100803
0.00100778
0.00100753
0.00100729
0.00100705
0.00100682
0.0010066
0.00100638
0.00100617
0.0010167
0.00101621
0.00101574
0.00101528
0.00101483
0.00101439
0.00101397
0.00101356
0.00101316
0.00101277
0.00101239
0.00101203
0.00101167
0.00101132
0.00101098
0.00101065
0.00101032
0.00101001
0.0010097
0.00100941
0.00100912
0.00100883
0.00100856
0.00100829
0.00100803
0.00100778
0.00100753
0.00100729
0.00100705
0.00100683
0.00100661
0.00100639
0.00100618
0.0010167
0.00101621
0.00101574
0.00101528
0.00101483
0.00101439
0.00101397
0.00101356
0.00101316
0.00101277
0.00101239
0.00101202
0.00101166
0.00101132
0.00101098
0.00101064
0.00101032
0.00101001
0.0010097
0.0010094
0.00100911
0.00100883
0.00100856
0.00100829
0.00100803
0.00100777
0.00100753
0.00100728
0.00100705
0.00100682
0.0010066
0.00100639
0.00100618
0.0010167
0.00101621
0.00101574
0.00101528
0.00101483
0.00101439
0.00101397
0.00101356
0.00101316
0.00101277
0.00101239
0.00101202
0.00101166
0.00101131
0.00101097
0.00101064
0.00101032
0.00101
0.0010097
0.0010094
0.00100911
0.00100883
0.00100855
0.00100828
0.00100802
0.00100777
0.00100752
0.00100728
0.00100705
0.00100682
0.00100659
0.00100638
0.00100617
0.0010167
0.00101621
0.00101574
0.00101528
0.00101483
0.00101439
0.00101397
0.00101356
0.00101316
0.00101277
0.00101239
0.00101202
0.00101166
0.00101131
0.00101097
0.00101064
0.00101032
0.00101
0.0010097
0.0010094
0.00100911
0.00100882
0.00100855
0.00100828
0.00100802
0.00100776
0.00100752
0.00100727
0.00100704
0.00100681
0.00100659
0.00100637
0.00100616
0.0010167
0.00101621
0.00101574
0.00101528
0.00101483
0.00101439
0.00101397
0.00101356
0.00101316
0.00101277
0.00101239
0.00101202
0.00101166
0.00101131
0.00101097
0.00101064
0.00101032
0.00101
0.00100969
0.0010094
0.0010091
0.00100882
0.00100855
0.00100828
0.00100802
0.00100776
0.00100751
0.00100727
0.00100703
0.00100681
0.00100658
0.00100636
0.00100615
0.0010167
0.00101621
0.00101574
0.00101528
0.00101483
0.00101439
0.00101397
0.00101356
0.00101316
0.00101277
0.00101239
0.00101202
0.00101166
0.00101131
0.00101097
0.00101064
0.00101031
0.00101
0.00100969
0.00100939
0.0010091
0.00100882
0.00100854
0.00100827
0.00100801
0.00100776
0.00100751
0.00100727
0.00100703
0.0010068
0.00100658
0.00100636
0.00100615
0.0010167
0.00101621
0.00101574
0.00101528
0.00101483
0.00101439
0.00101397
0.00101356
0.00101316
0.00101277
0.00101239
0.00101202
0.00101166
0.00101131
0.00101097
0.00101064
0.00101031
0.00101
0.00100969
0.00100939
0.0010091
0.00100882
0.00100854
0.00100827
0.00100801
0.00100775
0.0010075
0.00100726
0.00100702
0.00100679
0.00100657
0.00100635
0.00100614
0.0010167
0.00101621
0.00101574
0.00101528
0.00101483
0.00101439
0.00101397
0.00101356
0.00101316
0.00101277
0.00101239
0.00101202
0.00101166
0.00101131
0.00101097
0.00101063
0.00101031
0.00101
0.00100969
0.00100939
0.0010091
0.00100881
0.00100854
0.00100827
0.00100801
0.00100775
0.0010075
0.00100726
0.00100702
0.00100679
0.00100656
0.00100634
0.00100613
0.0010167
0.00101621
0.00101574
0.00101528
0.00101483
0.00101439
0.00101397
0.00101356
0.00101316
0.00101277
0.00101239
0.00101202
0.00101166
0.00101131
0.00101097
0.00101063
0.00101031
0.00100999
0.00100969
0.00100939
0.0010091
0.00100881
0.00100854
0.00100827
0.001008
0.00100775
0.0010075
0.00100725
0.00100702
0.00100678
0.00100656
0.00100634
0.00100613
0.0010167
0.00101621
0.00101574
0.00101528
0.00101483
0.00101439
0.00101397
0.00101356
0.00101316
0.00101277
0.00101239
0.00101202
0.00101166
0.00101131
0.00101096
0.00101063
0.00101031
0.00100999
0.00100969
0.00100939
0.00100909
0.00100881
0.00100853
0.00100826
0.001008
0.00100774
0.00100749
0.00100725
0.00100701
0.00100678
0.00100655
0.00100633
0.00100612
0.0010167
0.00101621
0.00101574
0.00101528
0.00101483
0.00101439
0.00101397
0.00101356
0.00101316
0.00101277
0.00101239
0.00101202
0.00101166
0.00101131
0.00101096
0.00101063
0.00101031
0.00100999
0.00100968
0.00100939
0.00100909
0.00100881
0.00100853
0.00100826
0.001008
0.00100774
0.00100749
0.00100725
0.00100701
0.00100678
0.00100655
0.00100633
0.00100611
0.0010167
0.00101621
0.00101574
0.00101528
0.00101483
0.00101439
0.00101397
0.00101356
0.00101316
0.00101277
0.00101239
0.00101202
0.00101166
0.00101131
0.00101096
0.00101063
0.00101031
0.00100999
0.00100968
0.00100938
0.00100909
0.00100881
0.00100853
0.00100826
0.001008
0.00100774
0.00100749
0.00100724
0.00100701
0.00100677
0.00100655
0.00100632
0.00100611
0.0010167
0.00101621
0.00101574
0.00101528
0.00101483
0.00101439
0.00101397
0.00101356
0.00101316
0.00101277
0.00101239
0.00101202
0.00101166
0.00101131
0.00101097
0.00101063
0.00101031
0.00100999
0.00100969
0.00100939
0.00100909
0.00100881
0.00100853
0.00100826
0.001008
0.00100774
0.00100749
0.00100724
0.001007
0.00100677
0.00100654
0.00100632
0.00100611
0.0010167
0.00101621
0.00101574
0.00101528
0.00101483
0.00101439
0.00101397
0.00101356
0.00101316
0.00101277
0.00101239
0.00101202
0.00101166
0.00101131
0.00101097
0.00101063
0.00101031
0.00101
0.00100969
0.00100939
0.0010091
0.00100881
0.00100853
0.00100826
0.001008
0.00100774
0.00100749
0.00100724
0.001007
0.00100677
0.00100654
0.00100631
0.0010061
0.0010167
0.00101621
0.00101574
0.00101528
0.00101483
0.0010144
0.00101397
0.00101356
0.00101316
0.00101277
0.00101239
0.00101203
0.00101167
0.00101131
0.00101097
0.00101064
0.00101032
0.00101
0.00100969
0.00100939
0.00100909
0.00100881
0.00100853
0.00100825
0.00100798
0.00100772
0.00100747
0.00100722
0.00100697
0.00100673
0.0010065
0.00100627
0.00100604
0.0010167
0.00101621
0.00101574
0.00101528
0.00101483
0.0010144
0.00101398
0.00101357
0.00101317
0.00101278
0.0010124
0.00101203
0.00101167
0.00101132
0.00101097
0.00101064
0.00101031
0.00100998
0.00100967
0.00100936
0.00100905
0.00100875
0.00100846
0.00100817
0.00100788
0.0010076
0.00100732
0.00100705
0.00100678
0.00100651
0.00100624
0.00100598
0.00100572
0.0010167
0.00101621
0.00101574
0.00101529
0.00101484
0.00101441
0.00101399
0.00101358
0.00101318
0.00101279
0.0010124
0.00101202
0.00101164
0.00101127
0.0010109
0.00101053
0.00101016
0.00100979
0.00100942
0.00100906
0.00100869
0.00100832
0.00100794
0.00100757
0.00100719
0.00100681
0.00100643
0.00100605
0.00100566
0.00100527
0.00100488
0.00100448
0.00100409
0.0010167
0.00101622
0.00101575
0.0010153
0.00101485
0.00101441
0.00101397
0.00101352
0.00101307
0.00101262
0.00101214
0.00101166
0.00101115
0.00101063
0.00101008
0.00100951
0.00100891
0.00100829
0.00100765
0.00100699
0.0010063
0.00100559
0.00100486
0.00100411
0.00100334
0.00100255
0.00100175
0.00100094
0.00100011
0.000999265
0.000998414
0.000997554
0.000996687
0.00101671
0.00101622
0.00101574
0.00101524
0.00101469
0.00101407
0.00101337
0.00101257
0.00101167
0.00101066
0.00100954
0.00100831
0.00100697
0.00100553
0.00100399
0.00100236
0.00100064
0.000998849
0.000996987
0.000995062
0.000993084
0.000991059
0.000988994
0.000986896
0.000984771
0.000982625
0.000980464
0.000978293
0.000976116
0.000973937
0.000971761
0.000969591
0.000967431
0.00101671
0.001016
0.00101488
0.00101325
0.00101112
0.00100847
0.00100532
0.00100169
0.00099762
0.000993167
0.000988383
0.000983319
0.000978028
0.000972558
0.000966951
0.000961246
0.00095548
0.000949681
0.000943875
0.000938086
0.000932332
0.000926629
0.000920992
0.00091543
0.000909953
0.000904568
0.000899282
0.000894099
0.000889022
0.000884054
0.000879197
0.000874451
0.000869817
0.0010153
0.00100706
0.000995503
0.000981398
0.000965367
0.000948021
0.000929919
0.000911509
0.000893125
0.000875006
0.000857317
0.000840167
0.000823623
0.000807721
0.000792475
0.000777885
0.000763941
0.000750623
0.000737909
0.000725775
0.000714194
0.00070314
0.000692585
0.000682505
0.000672873
0.000663667
0.000654862
0.000646439
0.000638375
0.000630652
0.000623251
0.000616155
0.000609347
0.000935928
0.000815558
0.000728198
0.000659305
0.000602464
0.000555252
0.000515774
0.000482442
0.000454007
0.000429505
0.000408194
0.000389503
0.000372987
0.000358295
0.00034515
0.000333327
0.000322644
0.000312951
0.000304124
0.000296057
0.000288665
0.00028187
0.000275609
0.000269827
0.000264475
0.000259512
0.000254901
0.000250609
0.000246607
0.000242871
0.000239377
0.000236107
0.000233039
0.000125477
0.000128847
0.000132096
0.000135204
0.000138173
0.000141007
0.000143711
0.000146289
0.000148745
0.000151085
0.000153311
0.000155429
0.000157442
0.000159356
0.000161173
0.000162898
0.000164536
0.00016609
0.000167563
0.00016896
0.000170284
0.000171539
0.000172728
0.000173854
0.00017492
0.00017593
0.000176885
0.00017779
0.000178646
0.000179457
0.000180223
0.000180949
0.000181635
0.000109965
0.000155267
0.000199479
0.000240691
0.000278481
0.000312406
0.000342446
0.000369188
0.000393618
0.000416757
0.000439386
0.000461947
0.00048459
0.000507292
0.000529981
0.00055262
0.000575236
0.00059792
0.000620797
0.000643997
0.000667634
0.000691786
0.000716499
0.000741777
0.000767596
0.0007939
0.000820603
0.000847594
0.000874729
0.000901837
0.000928719
0.000955154
0.000980897
0.00100569
0.00102927
0.00105135
0.00107167
0.00108997
0.00110598
0.00111948
0.00113024
0.0011381
0.00114291
0.00114458
0.00114307
0.00113843
0.00113074
0.00112022
0.00110713
0.00109186
0.00107485
0.00105664
0.00103785
0.00101914
0.00100119
0.00098468
0.000970253
0.000958475
0.000949808
0.000944587
0.00094301
0.000945149
0.000950972
0.000960382
0.000973249
0.000989452
0.0010089
0.00103153
0.00105734
0.00108629
0.00111835
0.00115336
0.00119107
0.001231
0.0012725
0.00131468
0.00135647
0.00139663
0.0014338
0.00146659
0.00149364
0.00151366
0.00152555
0.00152842
0.00152172
0.00150523
0.00147922
0.00144446
0.00140235
0.00135498
0.00130513
0.00125623
0.00121208
0.00117626
0.00115146
0.00113845
0.00113616
0.00114141
0.0011506
0.00116853
0.000245507
0.000213551
0.000185665
0.000172478
0.000172646
0.000182825
0.000200176
0.000222408
0.000247666
0.000274445
0.000301578
0.000328266
0.000354071
0.000378859
0.000402714
0.000425836
0.000448451
0.000470754
0.000492884
0.000514924
0.000536921
0.000558903
0.000580893
0.000602911
0.000624972
0.000647079
0.000669214
0.000691329
0.000713349
0.000735166
0.00075664
0.000777606
0.000797876
0.000817244
0.000835493
0.000852399
0.000867739
0.000881292
0.000892855
0.000902241
0.000909293
0.000913887
0.000915947
0.000915449
0.000912431
0.000907006
0.00089937
0.000889805
0.000878684
0.000866467
0.00085369
0.000840947
0.000828867
0.000818078
0.000809171
0.000802661
0.000798943
0.00079827
0.000800731
0.000806262
0.000814666
0.000825659
0.000838919
0.000854138
0.000871066
0.000889545
0.000909522
0.000931054
0.000954289
0.000979437
0.00100672
0.00103633
0.00106831
0.00110257
0.00113875
0.00117625
0.00121421
0.00125154
0.00128698
0.00131916
0.00134669
0.00136829
0.00138282
0.00138936
0.00138737
0.00137667
0.0013576
0.00133104
0.00129851
0.00126219
0.00122489
0.00118981
0.00116018
0.00113862
0.00112645
0.00112316
0.00112696
0.00113491
0.00114425
0.00116046
0.000348629
0.000344817
0.000330489
0.000302454
0.000268123
0.000236779
0.000213149
0.000198473
0.000191798
0.000191788
0.000197324
0.000207492
0.000221448
0.000238374
0.000257487
0.000278057
0.000299451
0.000321156
0.000342804
0.000364164
0.000385128
0.000405675
0.000425836
0.000445661
0.000465192
0.000484453
0.00050344
0.000522125
0.000540456
0.000558363
0.000575755
0.000592525
0.00060855
0.000623696
0.000637818
0.00065077
0.000662403
0.00067258
0.000681178
0.000688098
0.000693276
0.000696689
0.000698366
0.000698395
0.000696933
0.000694213
0.000690545
0.000686319
0.000681993
0.000678079
0.000675116
0.000673633
0.000674111
0.000676937
0.000682366
0.000690494
0.000701245
0.000714382
0.000729542
0.000746276
0.000764109
0.000782586
0.000801319
0.000820011
0.000838482
0.000856669
0.000874628
0.000892533
0.000910659
0.000929366
0.00094907
0.000970194
0.000993114
0.00101808
0.00104514
0.00107409
0.00110442
0.00113531
0.00116571
0.00119436
0.00121994
0.00124115
0.00125681
0.00126601
0.00126815
0.00126307
0.00125113
0.00123324
0.00121093
0.00118629
0.00116187
0.00114032
0.00112399
0.0011143
0.00111142
0.00111413
0.00112065
0.00112891
0.00113717
0.00115122
0.000475591
0.00047015
0.000464475
0.000455717
0.000440993
0.000419001
0.000390867
0.000359716
0.000328809
0.000300782
0.000277303
0.000258686
0.000244849
0.000235552
0.000230484
0.000229285
0.000231563
0.0002369
0.000244854
0.000254975
0.000266818
0.000279965
0.000294039
0.00030872
0.000323743
0.0003389
0.000354029
0.000369008
0.00038374
0.000398144
0.000412149
0.000425682
0.000438674
0.00045105
0.00046274
0.000473679
0.000483812
0.000493102
0.000501534
0.000509128
0.00051594
0.000522074
0.000527682
0.000532972
0.000538206
0.000543694
0.000549787
0.00055686
0.000565284
0.000575394
0.000587454
0.000601622
0.000617921
0.000636232
0.000656296
0.000677745
0.000700134
0.000722985
0.000745831
0.000768249
0.000789884
0.000810466
0.000829809
0.000847818
0.000864475
0.000879836
0.000894025
0.000907231
0.000919707
0.000931771
0.000943805
0.000956241
0.00096954
0.000984146
0.00100041
0.00101853
0.00103845
0.00105981
0.00108194
0.00110391
0.00112461
0.00114284
0.00115748
0.00116761
0.00117261
0.00117227
0.00116688
0.00115725
0.00114474
0.00113111
0.00111833
0.00110826
0.00110222
0.00110064
0.00110305
0.0011082
0.00111492
0.00112211
0.00112886
0.00114097
0.000612667
0.00060508
0.000597881
0.000590768
0.000582916
0.000573164
0.000560385
0.000543908
0.000523684
0.000500209
0.000475043
0.000449385
0.00042422
0.000400329
0.000378301
0.000358555
0.000341362
0.000326875
0.000315144
0.000306137
0.000299758
0.000295853
0.000294233
0.000294679
0.000296958
0.000300833
0.000306072
0.000312455
0.000319783
0.000327875
0.000336576
0.000345757
0.000355313
0.000365165
0.000375258
0.000385564
0.000396079
0.000406827
0.000417862
0.000429265
0.000441146
0.000453643
0.000466913
0.000481125
0.00049645
0.000513043
0.000531026
0.000550472
0.000571381
0.000593679
0.000617202
0.000641707
0.000666886
0.000692388
0.000717842
0.000742887
0.000767192
0.000790474
0.00081251
0.000833138
0.000852257
0.000869819
0.000885828
0.000900323
0.000913377
0.000925087
0.000935567
0.000944953
0.000953397
0.000961079
0.000968209
0.000975039
0.00098187
0.000989046
0.000996936
0.00100588
0.00101614
0.0010278
0.00104068
0.00105436
0.00106817
0.00108125
0.00109272
0.00110175
0.00110776
0.00111047
0.00111004
0.00110703
0.00110242
0.00109742
0.00109328
0.001091
0.0010911
0.00109348
0.00109761
0.00110268
0.00110826
0.00111397
0.00111938
0.00113013
0.0007355
0.000728054
0.000720737
0.000713582
0.000706496
0.000699241
0.00069143
0.000682597
0.000672273
0.0006601
0.000646053
0.000630275
0.000613053
0.000594758
0.00057581
0.000556632
0.000537632
0.000519182
0.000501609
0.000485192
0.000470158
0.000456681
0.000444885
0.000434848
0.000426605
0.000420162
0.000415496
0.000412565
0.000411312
0.000411672
0.000413576
0.000416955
0.000421745
0.00042789
0.000435347
0.000444083
0.000454079
0.000465327
0.000477826
0.000491582
0.0005066
0.000522882
0.000540414
0.000559164
0.000579073
0.00060005
0.000621968
0.000644663
0.000667937
0.00069156
0.000715285
0.000738855
0.000762016
0.000784532
0.000806194
0.000826826
0.000846296
0.000864507
0.000881405
0.000896972
0.000911217
0.000924179
0.000935914
0.000946495
0.000956002
0.000964524
0.000972152
0.000978977
0.000985089
0.00099058
0.000995541
0.00100007
0.00100429
0.00100833
0.00101238
0.00101665
0.00102137
0.00102673
0.00103288
0.00103979
0.00104727
0.00105494
0.00106232
0.00106887
0.00107414
0.00107787
0.00108005
0.00108097
0.00108113
0.00108116
0.00108165
0.00108301
0.00108533
0.00108843
0.00109207
0.00109593
0.00110011
0.00110462
0.00110918
0.0011192
0.000832413
0.000826023
0.000819653
0.000813332
0.000807068
0.000800844
0.000794594
0.0007882
0.000781485
0.000774266
0.000766375
0.000757683
0.000748127
0.000737705
0.000726481
0.000714571
0.000702134
0.000689356
0.000676443
0.000663605
0.000651054
0.000638991
0.000627602
0.000617054
0.000607495
0.000599053
0.000591835
0.000585933
0.000581417
0.000578345
0.000576757
0.000576679
0.000578124
0.000581095
0.000585582
0.00059157
0.000599031
0.000607926
0.000618209
0.000629819
0.000642682
0.000656708
0.000671791
0.000687808
0.000704618
0.000722067
0.000739984
0.000758193
0.000776508
0.000794748
0.000812734
0.000830301
0.000847299
0.000863601
0.000879104
0.00089373
0.000907427
0.000920166
0.00093194
0.000942763
0.00095266
0.000961674
0.000969854
0.000977259
0.000983954
0.000990005
0.000995483
0.00100046
0.001005
0.00100917
0.00101304
0.00101665
0.00102006
0.0010233
0.00102642
0.00102948
0.00103254
0.0010357
0.00103905
0.00104267
0.00104658
0.00105074
0.00105499
0.00105912
0.00106291
0.00106618
0.00106886
0.00107101
0.00107281
0.00107446
0.00107618
0.00107807
0.00108015
0.0010824
0.00108485
0.00108752
0.00109072
0.0010946
0.00109882
0.00110865
0.000902005
0.000896992
0.000891948
0.000886889
0.000881827
0.000876774
0.00087173
0.000866682
0.000861596
0.000856428
0.000851117
0.000845594
0.000839796
0.000833673
0.000827193
0.00082035
0.000813162
0.000805674
0.000797953
0.000790087
0.000782178
0.000774341
0.000766696
0.000759365
0.000752469
0.000746124
0.000740441
0.000735524
0.000731465
0.000728349
0.000726246
0.000725215
0.0007253
0.000726532
0.000728927
0.000732487
0.000737198
0.000743031
0.000749943
0.000757875
0.000766755
0.000776496
0.000787
0.000798155
0.000809843
0.000821938
0.00083431
0.000846829
0.000859368
0.000871803
0.000884021
0.000895919
0.000907408
0.000918412
0.000928873
0.000938746
0.000948004
0.000956631
0.000964624
0.000971992
0.00097875
0.000984925
0.000990547
0.000995653
0.00100028
0.00100449
0.00100831
0.00101182
0.00101505
0.00101808
0.00102096
0.00102375
0.00102649
0.00102923
0.00103198
0.00103476
0.00103756
0.00104039
0.00104322
0.00104608
0.00104895
0.00105183
0.0010547
0.00105749
0.00106014
0.00106256
0.00106471
0.00106656
0.00106814
0.0010695
0.00107072
0.00107187
0.00107302
0.0010743
0.0010759
0.00107796
0.00108082
0.00108461
0.00108888
0.00109883
0.000948
0.00094437
0.000940683
0.000936948
0.000933174
0.000929369
0.000925543
0.000921699
0.000917843
0.000913974
0.000910084
0.000906159
0.000902183
0.000898135
0.000893996
0.000889753
0.000885398
0.000880934
0.000876372
0.000871739
0.000867068
0.000862407
0.000857811
0.000853343
0.000849069
0.000845062
0.000841393
0.000838135
0.000835356
0.000833124
0.000831496
0.000830527
0.000830259
0.000830727
0.000831953
0.000833949
0.000836714
0.000840238
0.000844494
0.000849448
0.000855051
0.000861247
0.000867969
0.000875142
0.000882689
0.000890525
0.000898565
0.000906724
0.00091492
0.000923074
0.000931113
0.000938971
0.00094659
0.000953921
0.000960923
0.000967565
0.000973825
0.000979688
0.000985145
0.000990196
0.000994844
0.000999099
0.00100298
0.00100649
0.00100967
0.00101254
0.00101513
0.00101749
0.00101964
0.00102165
0.00102356
0.00102543
0.00102731
0.00102925
0.00103131
0.0010335
0.00103584
0.00103831
0.00104088
0.00104351
0.00104614
0.00104872
0.00105119
0.00105351
0.00105562
0.00105748
0.00105906
0.00106033
0.00106131
0.00106206
0.00106263
0.00106314
0.00106376
0.00106466
0.00106606
0.00106814
0.00107118
0.00107524
0.00107977
0.00108996
0.000976016
0.000973575
0.00097107
0.000968504
0.000965883
0.000963214
0.000960501
0.000957753
0.000954976
0.000952177
0.000949363
0.000946537
0.000943702
0.000940858
0.000938006
0.000935145
0.000932273
0.000929393
0.000926508
0.000923626
0.000920759
0.000917925
0.000915146
0.000912449
0.000909867
0.000907435
0.000905192
0.000903178
0.000901435
0.000900004
0.000898923
0.00089823
0.000897955
0.000898125
0.00089876
0.000899874
0.000901474
0.000903556
0.000906111
0.000909122
0.000912562
0.000916401
0.000920599
0.000925112
0.000929893
0.000934892
0.000940055
0.000945331
0.000950667
0.000956013
0.000961321
0.000966548
0.000971653
0.000976602
0.000981364
0.000985914
0.000990231
0.000994299
0.000998105
0.00100164
0.0010049
0.00100789
0.0010106
0.00101305
0.00101524
0.00101718
0.0010189
0.00102041
0.00102175
0.00102295
0.00102404
0.00102507
0.0010261
0.00102718
0.00102835
0.00102967
0.00103116
0.00103285
0.00103473
0.00103676
0.00103889
0.00104106
0.00104318
0.00104517
0.00104698
0.00104853
0.0010498
0.00105078
0.00105149
0.00105201
0.00105243
0.00105289
0.00105359
0.0010547
0.00105645
0.00105894
0.0010624
0.00106687
0.00107171
0.00108212
0.000991699
0.000990156
0.000988555
0.000986899
0.000985188
0.000983427
0.000981618
0.000979766
0.000977878
0.000975957
0.000974011
0.000972046
0.000970068
0.000968083
0.000966097
0.000964115
0.000962142
0.000960185
0.000958248
0.000956338
0.000954463
0.000952632
0.000950856
0.000949148
0.000947524
0.000946001
0.0009446
0.000943341
0.000942247
0.00094134
0.000940644
0.000940181
0.000939969
0.000940028
0.000940372
0.000941012
0.000941956
0.000943204
0.000944756
0.000946604
0.000948736
0.000951136
0.000953784
0.000956655
0.000959723
0.000962958
0.000966329
0.000969803
0.000973349
0.000976934
0.000980526
0.000984095
0.000987613
0.000991053
0.000994391
0.000997607
0.00100068
0.00100359
0.00100633
0.00100889
0.00101125
0.00101341
0.00101536
0.0010171
0.00101863
0.00101995
0.00102108
0.00102202
0.00102279
0.00102341
0.00102391
0.00102431
0.00102467
0.00102502
0.00102541
0.0010259
0.00102651
0.00102729
0.00102826
0.00102942
0.00103074
0.00103219
0.0010337
0.0010352
0.00103661
0.00103789
0.00103898
0.00103989
0.00104064
0.00104129
0.00104197
0.0010428
0.00104395
0.00104559
0.00104788
0.0010509
0.00105483
0.00105967
0.00106477
0.00107528
0.000999734
0.000998789
0.000997803
0.000996773
0.000995701
0.000994586
0.000993432
0.000992239
0.000991011
0.000989752
0.000988465
0.000987155
0.000985826
0.000984483
0.000983133
0.000981781
0.000980432
0.000979093
0.000977771
0.000976471
0.000975201
0.000973967
0.000972777
0.00097164
0.000970565
0.000969562
0.000968643
0.000967819
0.000967104
0.000966509
0.000966049
0.000965736
0.000965582
0.0009656
0.000965798
0.000966185
0.000966766
0.000967547
0.000968527
0.000969704
0.000971074
0.000972629
0.00097436
0.000976253
0.000978294
0.000980466
0.00098275
0.000985128
0.000987577
0.000990078
0.000992609
0.000995147
0.000997673
0.00100017
0.0010026
0.00100497
0.00100725
0.00100943
0.00101148
0.0010134
0.00101518
0.0010168
0.00101825
0.00101953
0.00102063
0.00102155
0.0010223
0.00102287
0.00102327
0.00102352
0.00102363
0.00102363
0.00102354
0.00102339
0.00102322
0.00102308
0.001023
0.00102303
0.0010232
0.00102353
0.00102404
0.0010247
0.00102549
0.00102638
0.00102731
0.00102824
0.00102915
0.00103002
0.00103088
0.00103179
0.00103284
0.00103413
0.0010358
0.00103797
0.00104077
0.00104424
0.00104853
0.00105362
0.00105886
0.00106931
0.00100348
0.00100289
0.00100228
0.00100163
0.00100096
0.00100026
0.000999526
0.000998767
0.000997982
0.000997172
0.000996338
0.000995485
0.000994614
0.000993728
0.000992832
0.000991929
0.000991024
0.000990121
0.000989226
0.000988344
0.000987479
0.000986639
0.000985829
0.000985055
0.000984324
0.000983643
0.000983019
0.000982461
0.000981977
0.000981574
0.000981262
0.000981048
0.000980941
0.000980947
0.000981075
0.00098133
0.000981716
0.000982239
0.000982898
0.000983696
0.00098463
0.000985698
0.000986896
0.000988216
0.000989651
0.000991191
0.000992826
0.000994542
0.000996327
0.000998166
0.00100004
0.00100195
0.00100385
0.00100575
0.00100763
0.00100946
0.00101123
0.00101293
0.00101455
0.00101606
0.00101746