/*--------------------------------*- C++ -*----------------------------------*\
  =========                 |
  \\      /  F ield         | OpenFOAM: The Open Source CFD Toolbox
   \\    /   O peration     | Website:  https://openfoam.org
    \\  /    A nd           | Version:  10
     \\/     M anipulation  |
\*---------------------------------------------------------------------------*/
FoamFile
{
    format      ascii;
    class       volScalarField;
    location    "0.17";
    object      p;
}
// * * * * * * * * * * * * * * * * * * * * * * * * * * * * * * * * * * * * * //

dimensions      [0 2 -2 0 0 0 0];

internalField   nonuniform List<scalar> 
6820
(
-8.47977
-9.8438
-10.2572
-10.3526
-10.4333
-10.4845
-10.5153
-10.5394
-10.5602
-10.5784
-10.5951
-10.6109
-10.626
-10.6406
-10.6547
-10.6684
-10.6817
-10.6946
-10.7072
-10.7194
-10.7311
-10.7423
-10.7529
-10.7625
-10.771
-10.7778
-10.782
-10.7822
-10.7762
-10.757
-10.7197
-10.6339
-10.4258
-11.2799
-10.8755
-10.5815
-10.4861
-10.4874
-10.504
-10.5219
-10.5413
-10.5605
-10.5785
-10.5952
-10.6109
-10.6258
-10.64
-10.6537
-10.667
-10.6798
-10.6923
-10.7045
-10.7163
-10.7277
-10.7386
-10.749
-10.7586
-10.7672
-10.7745
-10.78
-10.7834
-10.7822
-10.7826
-10.7667
-10.8019
-10.7941
-10.1369
-10.0087
-10.2336
-10.3712
-10.4326
-10.4768
-10.5087
-10.5339
-10.5553
-10.5741
-10.5911
-10.6071
-10.6222
-10.6367
-10.6507
-10.6644
-10.6776
-10.6905
-10.7031
-10.7153
-10.7271
-10.7384
-10.7492
-10.7593
-10.7685
-10.7766
-10.783
-10.7878
-10.7897
-10.7908
-10.7861
-10.7948
-10.7883
-10.5035
-10.5202
-10.4957
-10.4729
-10.4809
-10.5012
-10.5211
-10.5401
-10.5586
-10.5759
-10.5923
-10.6079
-10.6228
-10.6372
-10.6511
-10.6646
-10.6777
-10.6905
-10.703
-10.7151
-10.7269
-10.7382
-10.7491
-10.7594
-10.769
-10.7779
-10.7857
-10.7927
-10.7984
-10.8057
-10.8126
-10.8352
-10.8648
-10.3936
-10.3396
-10.3834
-10.4281
-10.4631
-10.493
-10.5174
-10.5386
-10.5579
-10.5756
-10.592
-10.6076
-10.6225
-10.6368
-10.6506
-10.6641
-10.6772
-10.6901
-10.7026
-10.7149
-10.7268
-10.7384
-10.7496
-10.7604
-10.7706
-10.7804
-10.7897
-10.7987
-10.8076
-10.8186
-10.8317
-10.8552
-10.8871
-10.4343
-10.4274
-10.4457
-10.4627
-10.4809
-10.5021
-10.5226
-10.5417
-10.5598
-10.5767
-10.5928
-10.6081
-10.6228
-10.637
-10.6508
-10.6642
-10.6773
-10.6902
-10.7027
-10.715
-10.7271
-10.7388
-10.7503
-10.7615
-10.7724
-10.783
-10.7936
-10.8045
-10.8161
-10.8301
-10.8474
-10.8727
-10.9064
-10.4336
-10.4228
-10.4375
-10.459
-10.4808
-10.5031
-10.5238
-10.5427
-10.5605
-10.5773
-10.5931
-10.6083
-10.6229
-10.637
-10.6507
-10.6641
-10.6772
-10.6901
-10.7027
-10.7151
-10.7273
-10.7393
-10.7511
-10.7627
-10.7742
-10.7858
-10.7975
-10.81
-10.8236
-10.8397
-10.8593
-10.8847
-10.917
-10.4432
-10.4402
-10.4532
-10.471
-10.4891
-10.5083
-10.5271
-10.5449
-10.5619
-10.5782
-10.5937
-10.6086
-10.6231
-10.6371
-10.6507
-10.6641
-10.6772
-10.69
-10.7027
-10.7152
-10.7275
-10.7397
-10.7518
-10.7638
-10.776
-10.7883
-10.8011
-10.8147
-10.8298
-10.8473
-10.8679
-10.893
-10.9232
-10.4518
-10.4506
-10.461
-10.4767
-10.4937
-10.5117
-10.5296
-10.5468
-10.5632
-10.5791
-10.5943
-10.609
-10.6232
-10.6371
-10.6507
-10.664
-10.677
-10.6899
-10.7026
-10.7151
-10.7276
-10.74
-10.7524
-10.7648
-10.7775
-10.7904
-10.8041
-10.8186
-10.8347
-10.8529
-10.8738
-10.8981
-10.9262
-10.4603
-10.4608
-10.4701
-10.4842
-10.4996
-10.516
-10.5327
-10.5489
-10.5648
-10.5801
-10.5949
-10.6094
-10.6234
-10.6371
-10.6506
-10.6638
-10.6768
-10.6897
-10.7024
-10.715
-10.7276
-10.7402
-10.7528
-10.7656
-10.7787
-10.7922
-10.8064
-10.8216
-10.8382
-10.8567
-10.8774
-10.9008
-10.9268
-10.4686
-10.47
-10.4782
-10.4907
-10.5047
-10.52
-10.5356
-10.5511
-10.5663
-10.5812
-10.5956
-10.6098
-10.6236
-10.6372
-10.6505
-10.6636
-10.6766
-10.6894
-10.7021
-10.7148
-10.7275
-10.7402
-10.753
-10.7661
-10.7795
-10.7934
-10.808
-10.8236
-10.8404
-10.8589
-10.8792
-10.9014
-10.9256
-10.4766
-10.4783
-10.4858
-10.497
-10.5099
-10.524
-10.5386
-10.5533
-10.5679
-10.5823
-10.5964
-10.6102
-10.6238
-10.6372
-10.6503
-10.6633
-10.6762
-10.689
-10.7018
-10.7145
-10.7272
-10.74
-10.753
-10.7663
-10.7799
-10.794
-10.8088
-10.8246
-10.8414
-10.8596
-10.8793
-10.9004
-10.9229
-10.4841
-10.486
-10.4929
-10.503
-10.5148
-10.5279
-10.5416
-10.5556
-10.5695
-10.5834
-10.5971
-10.6106
-10.624
-10.6371
-10.6501
-10.663
-10.6758
-10.6886
-10.7013
-10.714
-10.7267
-10.7396
-10.7527
-10.7661
-10.7798
-10.794
-10.8089
-10.8247
-10.8413
-10.8591
-10.878
-10.898
-10.9191
-10.4912
-10.4931
-10.4994
-10.5086
-10.5195
-10.5316
-10.5445
-10.5578
-10.5711
-10.5845
-10.5978
-10.611
-10.6241
-10.637
-10.6499
-10.6626
-10.6753
-10.688
-10.7006
-10.7133
-10.7261
-10.739
-10.7521
-10.7655
-10.7792
-10.7935
-10.8083
-10.8238
-10.8402
-10.8574
-10.8755
-10.8945
-10.9142
-10.4978
-10.4996
-10.5054
-10.5138
-10.5239
-10.5352
-10.5473
-10.5599
-10.5727
-10.5856
-10.5985
-10.6114
-10.6242
-10.6369
-10.6495
-10.6621
-10.6747
-10.6873
-10.6998
-10.7124
-10.7251
-10.738
-10.7511
-10.7644
-10.7781
-10.7923
-10.8069
-10.8222
-10.8381
-10.8547
-10.872
-10.8899
-10.9083
-10.5038
-10.5056
-10.5109
-10.5187
-10.528
-10.5385
-10.55
-10.5619
-10.5742
-10.5866
-10.5991
-10.6116
-10.6242
-10.6366
-10.6491
-10.6615
-10.6739
-10.6864
-10.6988
-10.7113
-10.724
-10.7367
-10.7497
-10.7629
-10.7765
-10.7904
-10.8048
-10.8197
-10.8351
-10.8511
-10.8675
-10.8844
-10.9017
-10.5093
-10.511
-10.5159
-10.5231
-10.5317
-10.5416
-10.5524
-10.5638
-10.5755
-10.5875
-10.5996
-10.6118
-10.6241
-10.6363
-10.6485
-10.6608
-10.673
-10.6853
-10.6976
-10.71
-10.7225
-10.7351
-10.748
-10.761
-10.7744
-10.788
-10.8021
-10.8165
-10.8313
-10.8466
-10.8622
-10.8781
-10.8943
-10.5143
-10.5159
-10.5205
-10.5271
-10.5352
-10.5444
-10.5546
-10.5655
-10.5767
-10.5883
-10.6
-10.6119
-10.6238
-10.6358
-10.6478
-10.6599
-10.6719
-10.684
-10.6962
-10.7084
-10.7207
-10.7332
-10.7458
-10.7586
-10.7717
-10.785
-10.7986
-10.8126
-10.8268
-10.8414
-10.8561
-10.8711
-10.8862
-10.5187
-10.5202
-10.5245
-10.5307
-10.5382
-10.547
-10.5566
-10.5669
-10.5777
-10.5889
-10.6003
-10.6118
-10.6234
-10.6352
-10.6469
-10.6588
-10.6706
-10.6825
-10.6945
-10.7065
-10.7186
-10.7309
-10.7432
-10.7558
-10.7685
-10.7814
-10.7946
-10.808
-10.8216
-10.8354
-10.8494
-10.8634
-10.8776
-10.5226
-10.524
-10.528
-10.5338
-10.5409
-10.5491
-10.5583
-10.5682
-10.5785
-10.5893
-10.6003
-10.6115
-10.6229
-10.6344
-10.6459
-10.6575
-10.6691
-10.6808
-10.6925
-10.7043
-10.7162
-10.7282
-10.7403
-10.7525
-10.7648
-10.7773
-10.79
-10.8028
-10.8158
-10.8288
-10.842
-10.8552
-10.8683
-10.526
-10.5272
-10.531
-10.5364
-10.5431
-10.5509
-10.5597
-10.5691
-10.5791
-10.5895
-10.6002
-10.6111
-10.6221
-10.6333
-10.6446
-10.656
-10.6674
-10.6788
-10.6903
-10.7018
-10.7135
-10.7251
-10.7369
-10.7487
-10.7607
-10.7727
-10.7849
-10.7971
-10.8094
-10.8217
-10.834
-10.8463
-10.8586
-10.5287
-10.5299
-10.5335
-10.5386
-10.5449
-10.5523
-10.5607
-10.5697
-10.5793
-10.5894
-10.5998
-10.6104
-10.6212
-10.6321
-10.6431
-10.6542
-10.6654
-10.6765
-10.6878
-10.6991
-10.7104
-10.7217
-10.7331
-10.7446
-10.7561
-10.7676
-10.7792
-10.7908
-10.8024
-10.814
-10.8256
-10.8371
-10.8484
-10.5309
-10.532
-10.5354
-10.5402
-10.5462
-10.5533
-10.5613
-10.57
-10.5793
-10.589
-10.5991
-10.6094
-10.62
-10.6306
-10.6414
-10.6522
-10.6631
-10.6741
-10.685
-10.696
-10.707
-10.718
-10.729
-10.74
-10.7511
-10.7621
-10.7731
-10.7841
-10.7951
-10.806
-10.8167
-10.8274
-10.8378
-10.5325
-10.5336
-10.5367
-10.5413
-10.5471
-10.5538
-10.5615
-10.5699
-10.5789
-10.5883
-10.5981
-10.6082
-10.6184
-10.6288
-10.6394
-10.6499
-10.6606
-10.6712
-10.6819
-10.6926
-10.7032
-10.7139
-10.7245
-10.7351
-10.7456
-10.7562
-10.7666
-10.777
-10.7873
-10.7974
-10.8074
-10.8173
-10.8269
-10.5334
-10.5345
-10.5375
-10.5419
-10.5474
-10.5539
-10.5613
-10.5695
-10.5782
-10.5874
-10.5969
-10.6067
-10.6168
-10.6269
-10.6372
-10.6475
-10.6579
-10.6682
-10.6786
-10.6889
-10.6993
-10.7095
-10.7197
-10.7299
-10.7399
-10.7499
-10.7598
-10.7696
-10.7792
-10.7886
-10.7979
-10.807
-10.8158
-10.5337
-10.5347
-10.5376
-10.5418
-10.547
-10.5533
-10.5605
-10.5683
-10.5768
-10.5858
-10.5951
-10.6047
-10.6145
-10.6244
-10.6344
-10.6445
-10.6546
-10.6647
-10.6748
-10.6848
-10.6948
-10.7047
-10.7145
-10.7242
-10.7338
-10.7432
-10.7526
-10.7617
-10.7707
-10.7795
-10.788
-10.7963
-10.8044
-10.5334
-10.5344
-10.5371
-10.5412
-10.5464
-10.5526
-10.5596
-10.5673
-10.5756
-10.5844
-10.5935
-10.6029
-10.6125
-10.6222
-10.632
-10.6418
-10.6516
-10.6614
-10.6712
-10.6809
-10.6905
-10.6999
-10.7093
-10.7185
-10.7276
-10.7366
-10.7453
-10.7538
-10.7622
-10.7703
-10.7781
-10.7857
-10.793
-10.5323
-10.5332
-10.5357
-10.5394
-10.5443
-10.5501
-10.5569
-10.5645
-10.5726
-10.5812
-10.5902
-10.5995
-10.6089
-10.6185
-10.6281
-10.6378
-10.6474
-10.657
-10.6665
-10.6759
-10.6852
-10.6943
-10.7033
-10.7122
-10.7208
-10.7292
-10.7374
-10.7454
-10.7532
-10.7607
-10.7679
-10.7748
-10.7814
-10.5307
-10.5317
-10.5345
-10.5385
-10.5435
-10.5494
-10.5562
-10.5637
-10.5717
-10.5802
-10.589
-10.5981
-10.6073
-10.6166
-10.6259
-10.6353
-10.6446
-10.6538
-10.663
-10.672
-10.6809
-10.6896
-10.6981
-10.7064
-10.7146
-10.7224
-10.7301
-10.7375
-10.7446
-10.7514
-10.758
-10.7642
-10.7701
-10.5278
-10.528
-10.5298
-10.5329
-10.5373
-10.543
-10.5497
-10.5572
-10.5653
-10.5739
-10.5828
-10.592
-10.6014
-10.6108
-10.6202
-10.6295
-10.6388
-10.648
-10.657
-10.6659
-10.6745
-10.683
-10.6913
-10.6993
-10.707
-10.7145
-10.7217
-10.7287
-10.7353
-10.7416
-10.7476
-10.7532
-10.7585
-10.5258
-10.5278
-10.5311
-10.5351
-10.54
-10.5458
-10.5524
-10.5597
-10.5674
-10.5756
-10.5841
-10.5928
-10.6017
-10.6106
-10.6195
-10.6284
-10.6372
-10.6459
-10.6544
-10.6627
-10.6709
-10.6789
-10.6866
-10.694
-10.7012
-10.7082
-10.7148
-10.7211
-10.7271
-10.7328
-10.7381
-10.7431
-10.7477
-10.5179
-10.5158
-10.5156
-10.5179
-10.5224
-10.5285
-10.5359
-10.5441
-10.5529
-10.5622
-10.5717
-10.5813
-10.5909
-10.6005
-10.61
-10.6194
-10.6286
-10.6375
-10.6463
-10.6548
-10.663
-10.6709
-10.6786
-10.6859
-10.6929
-10.6996
-10.706
-10.712
-10.7176
-10.7229
-10.7278
-10.7323
-10.7365
-10.5237
-10.5292
-10.5335
-10.5366
-10.5403
-10.5451
-10.5509
-10.5574
-10.5645
-10.5721
-10.5801
-10.5883
-10.5966
-10.605
-10.6134
-10.6217
-10.63
-10.6381
-10.646
-10.6537
-10.6611
-10.6683
-10.6753
-10.6819
-10.6883
-10.6943
-10.7
-10.7053
-10.7103
-10.7149
-10.7192
-10.7231
-10.7266
-10.4943
-10.4831
-10.4799
-10.4838
-10.4913
-10.5005
-10.5107
-10.5216
-10.5328
-10.544
-10.5551
-10.5661
-10.5768
-10.5872
-10.5974
-10.6072
-10.6166
-10.6257
-10.6345
-10.6429
-10.6509
-10.6585
-10.6658
-10.6727
-10.6791
-10.6852
-10.6909
-10.6962
-10.7011
-10.7055
-10.7096
-10.7132
-10.7164
-10.5421
-10.5583
-10.5597
-10.5541
-10.5517
-10.5527
-10.5557
-10.56
-10.5654
-10.5716
-10.5784
-10.5856
-10.593
-10.6006
-10.6083
-10.6159
-10.6234
-10.6308
-10.638
-10.645
-10.6518
-10.6583
-10.6645
-10.6704
-10.676
-10.6812
-10.686
-10.6905
-10.6947
-10.6984
-10.7018
-10.7047
-10.7073
-10.4323
-10.3941
-10.3884
-10.4122
-10.4326
-10.4508
-10.4689
-10.4863
-10.5027
-10.5181
-10.5326
-10.5462
-10.5591
-10.5712
-10.5827
-10.5935
-10.6038
-10.6134
-10.6226
-10.6312
-10.6393
-10.6469
-10.6541
-10.6607
-10.6669
-10.6726
-10.6779
-10.6826
-10.687
-10.6908
-10.6942
-10.6971
-10.6996
-10.6447
-10.6693
-10.6402
-10.6035
-10.5801
-10.5722
-10.569
-10.5684
-10.5702
-10.5738
-10.5785
-10.584
-10.5901
-10.5966
-10.6032
-10.6099
-10.6167
-10.6233
-10.6298
-10.6362
-10.6423
-10.6481
-10.6537
-10.6589
-10.6639
-10.6684
-10.6727
-10.6765
-10.68
-10.6831
-10.6858
-10.6881
-10.69
-10.2291
-10.1473
-10.2044
-10.2852
-10.3416
-10.3801
-10.4136
-10.4428
-10.4679
-10.4898
-10.5093
-10.5268
-10.5426
-10.557
-10.5702
-10.5823
-10.5936
-10.604
-10.6137
-10.6227
-10.631
-10.6387
-10.6459
-10.6524
-10.6584
-10.6639
-10.6688
-10.6733
-10.6772
-10.6806
-10.6835
-10.686
-10.6879
-11.2056
-10.9276
-10.7218
-10.6307
-10.5936
-10.573
-10.5603
-10.5548
-10.5541
-10.5563
-10.5604
-10.5658
-10.572
-10.5787
-10.5858
-10.5929
-10.6
-10.607
-10.6139
-10.6205
-10.6269
-10.633
-10.6387
-10.6441
-10.6492
-10.6538
-10.6581
-10.6619
-10.6653
-10.6683
-10.6709
-10.6731
-10.6749
-9.2476
-9.80919
-10.1139
-10.2299
-10.3115
-10.375
-10.4201
-10.4542
-10.4816
-10.5042
-10.5231
-10.5395
-10.554
-10.567
-10.5788
-10.5896
-10.5996
-10.6088
-10.6174
-10.6254
-10.6328
-10.6396
-10.6459
-10.6517
-10.6569
-10.6617
-10.666
-10.6698
-10.6731
-10.6759
-10.6783
-10.6802
-10.6816
-10.3476
-10.9687
-11.0247
-11.0811
-11.1884
-11.2654
-11.324
-11.3764
-11.4282
-11.4815
-11.538
-11.5979
-11.6603
-11.7236
-11.7863
-11.8472
-11.9048
-11.9583
-12.0067
-12.0494
-12.0859
-12.1157
-12.1387
-12.1543
-12.1621
-12.1619
-12.1529
-12.1346
-12.1063
-12.0674
-12.017
-11.9545
-11.8791
-11.7901
-11.6868
-11.5686
-11.4349
-11.2851
-11.119
-10.9361
-10.7362
-10.5194
-10.2856
-10.0351
-9.76838
-9.48603
-9.18892
-8.8781
-8.55483
-8.22062
-7.87712
-7.52621
-7.16987
-6.81022
-6.44946
-6.08981
-5.73351
-5.38275
-5.03964
-4.70614
-4.38408
-4.07509
-3.78055
-3.50163
-3.23921
-2.99393
-2.76618
-2.55606
-2.36347
-2.18808
-2.02935
-1.88654
-1.75878
-1.64502
-1.54412
-1.45481
-1.37576
-1.30555
-1.24275
-1.18589
-1.13354
-1.08425
-1.03668
-0.989514
-0.941596
-0.891894
-0.839564
-0.783989
-0.724802
-0.661972
-0.595689
-0.526755
-0.455628
-0.384672
-0.312592
-0.247264
-0.175088
-0.13198
-0.0364027
-0.0814451
-11.1712
-11.458
-11.3572
-11.2962
-11.284
-11.2878
-11.3019
-11.3296
-11.3702
-11.4215
-11.4811
-11.5461
-11.6135
-11.6809
-11.7464
-11.8084
-11.8661
-11.9187
-11.9658
-12.0069
-12.0418
-12.0702
-12.0917
-12.106
-12.1126
-12.1111
-12.101
-12.0816
-12.0522
-12.0123
-11.9611
-11.8978
-11.8218
-11.7324
-11.6288
-11.5105
-11.377
-11.2277
-11.0623
-10.8805
-10.682
-10.4668
-10.235
-9.98686
-9.72285
-9.44357
-9.14987
-8.84277
-8.52353
-8.19358
-7.85455
-7.50825
-7.15661
-6.80169
-6.4456
-6.09053
-5.73865
-5.39209
-5.05291
-4.72304
-4.40428
-4.09819
-3.80617
-3.52932
-3.26854
-3.02446
-2.79745
-2.58765
-2.39496
-2.21908
-2.05951
-1.91557
-1.78641
-1.67106
-1.56842
-1.47727
-1.39633
-1.32424
-1.2596
-1.20096
-1.14692
-1.09605
-1.047
-0.998498
-0.94937
-0.898593
-0.845322
-0.788945
-0.729079
-0.665712
-0.598974
-0.529757
-0.458278
-0.387335
-0.314659
-0.250017
-0.175795
-0.135915
-0.0325094
-0.0912303
-10.859
-10.9892
-11.0336
-11.0838
-11.1544
-11.218
-11.2702
-11.3187
-11.3664
-11.4159
-11.4683
-11.524
-11.582
-11.6413
-11.7006
-11.7587
-11.8142
-11.866
-11.913
-11.9543
-11.9895
-12.0178
-12.039
-12.0527
-12.0585
-12.056
-12.0447
-12.0241
-11.9937
-11.9527
-11.9005
-11.8365
-11.7599
-11.67
-11.5662
-11.448
-11.3148
-11.1661
-11.0015
-10.8208
-10.6238
-10.4105
-10.1809
-9.9354
-9.67432
-9.39832
-9.10821
-8.80499
-8.48989
-8.16431
-7.82983
-7.4882
-7.1413
-6.79116
-6.43983
-6.08944
-5.74211
-5.39993
-5.0649
-4.73891
-4.42368
-4.12077
-3.8315
-3.55698
-3.29807
-3.0554
-2.82933
-2.62002
-2.42739
-2.25116
-2.09086
-1.94584
-1.81532
-1.69837
-1.59394
-1.50087
-1.41794
-1.34383
-1.27718
-1.2166
-1.1607
-1.10808
-1.05741
-1.00743
-0.956964
-0.905006
-0.850708
-0.793463
-0.732875
-0.668952
-0.601763
-0.532294
-0.460528
-0.389676
-0.316521
-0.252633
-0.176544
-0.139749
-0.0291156
-0.100281
-10.9673
-11.1385
-11.2027
-11.2207
-11.2464
-11.2727
-11.2976
-11.3269
-11.3628
-11.4053
-11.4534
-11.5064
-11.5621
-11.6187
-11.6746
-11.7284
-11.7792
-11.826
-11.8682
-11.9053
-11.9368
-11.9622
-11.981
-11.9929
-11.9972
-11.9935
-11.9813
-11.9598
-11.9286
-11.8869
-11.8341
-11.7694
-11.6924
-11.6022
-11.4984
-11.3803
-11.2475
-11.0995
-10.9359
-10.7565
-10.5612
-10.3498
-10.1225
-9.87965
-9.62156
-9.34887
-9.0624
-8.76312
-8.45224
-8.13111
-7.8013
-7.4645
-7.12257
-6.77745
-6.43115
-6.08575
-5.7433
-5.40582
-5.07526
-4.75343
-4.44203
-4.14254
-3.85627
-3.58429
-3.32745
-3.08636
-2.86139
-2.65272
-2.46028
-2.28381
-2.12289
-1.9769
-1.84509
-1.72659
-1.62038
-1.52538
-1.4404
-1.36417
-1.29541
-1.23275
-1.17484
-1.12033
-1.0679
-1.0163
-0.964382
-0.911141
-0.855734
-0.797564
-0.736222
-0.671738
-0.604126
-0.534455
-0.46248
-0.391803
-0.318281
-0.25519
-0.17739
-0.143494
-0.0262244
-0.108575
-10.951
-11.0438
-11.0879
-11.118
-11.1608
-11.2061
-11.2486
-11.2914
-11.3358
-11.3826
-11.4323
-11.4832
-11.5354
-11.588
-11.64
-11.6903
-11.738
-11.7823
-11.8223
-11.8573
-11.8867
-11.9099
-11.9265
-11.936
-11.9381
-11.9321
-11.9177
-11.8943
-11.8612
-11.818
-11.7638
-11.6982
-11.6203
-11.5296
-11.4256
-11.3075
-11.175
-11.0276
-10.865
-10.6869
-10.4932
-10.2838
-10.0589
-9.8188
-9.56382
-9.29462
-9.01198
-8.71687
-8.41046
-8.09408
-7.76924
-7.43761
-7.10096
-6.7612
-6.42028
-6.08019
-5.74293
-5.41045
-5.08462
-4.76721
-4.45985
-4.16397
-3.88086
-3.61154
-3.35686
-3.11743
-2.89364
-2.68567
-2.49347
-2.31682
-2.15533
-2.00842
-1.87537
-1.75536
-1.64742
-1.5505
-1.46346
-1.3851
-1.31415
-1.24933
-1.18932
-1.13279
-1.07848
-1.02515
-0.971668
-0.917055
-0.860471
-0.801331
-0.739219
-0.674183
-0.606183
-0.53637
-0.464266
-0.393835
-0.320036
-0.257744
-0.178371
-0.147144
-0.0238351
-0.11609
-10.9611
-11.043
-11.1021
-11.1428
-11.1824
-11.2205
-11.2559
-11.2919
-11.3307
-11.3711
-11.4155
-11.4622
-11.5106
-11.5595
-11.6078
-11.6545
-11.6986
-11.7392
-11.7756
-11.8072
-11.8335
-11.8538
-11.8679
-11.8751
-11.875
-11.8671
-11.8509
-11.8259
-11.7913
-11.7466
-11.6912
-11.6244
-11.5456
-11.4543
-11.3498
-11.2316
-11.0993
-10.9525
-10.7907
-10.6139
-10.4218
-10.2145
-9.99205
-9.75474
-9.503
-9.23743
-8.95879
-8.66805
-8.36633
-8.05493
-7.73532
-7.40912
-7.07804
-6.74392
-6.40863
-6.07411
-5.74225
-5.41495
-5.09401
-4.78113
-4.47788
-4.18568
-3.90574
-3.63911
-3.38662
-3.14886
-2.92625
-2.71897
-2.52701
-2.35019
-2.18813
-2.0403
-1.90603
-1.78451
-1.67484
-1.57601
-1.48691
-1.4064
-1.33326
-1.26623
-1.20405
-1.14543
-1.08915
-1.034
-0.978882
-0.922829
-0.86502
-0.804883
-0.741996
-0.67643
-0.608085
-0.538182
-0.466014
-0.39587
-0.321853
-0.260327
-0.179502
-0.150685
-0.0219325
-0.122824
-10.963
-11.0263
-11.0766
-11.1143
-11.152
-11.1906
-11.2284
-11.2665
-11.3059
-11.3485
-11.3919
-11.4368
-11.4826
-11.5284
-11.5734
-11.6166
-11.6573
-11.6947
-11.7281
-11.7568
-11.7803
-11.7981
-11.8096
-11.8144
-11.8119
-11.8018
-11.7834
-11.7563
-11.7199
-11.6735
-11.6166
-11.5486
-11.4689
-11.3768
-11.2719
-11.1536
-11.0216
-10.8753
-10.7145
-10.539
-10.3486
-10.1434
-9.92354
-9.6892
-9.44086
-9.17909
-8.90465
-8.61848
-8.32167
-8.01548
-7.70131
-7.38072
-7.05537
-6.72701
-6.39746
-6.06854
-5.74212
-5.42
-5.10393
-4.79555
-4.49639
-4.20781
-3.93104
-3.66707
-3.41673
-3.18063
-2.95918
-2.75259
-2.56087
-2.38387
-2.22124
-2.07249
-1.93699
-1.81397
-1.70257
-1.60182
-1.51066
-1.42799
-1.35262
-1.28336
-1.21898
-1.15823
-1.09993
-1.04291
-0.986109
-0.928576
-0.869513
-0.808367
-0.744712
-0.678635
-0.60998
-0.54002
-0.467824
-0.397975
-0.323769
-0.262946
-0.180781
-0.154099
-0.0204904
-0.12879
-10.9635
-11.0166
-11.0644
-11.1042
-11.1426
-11.1805
-11.2172
-11.2539
-11.2914
-11.3305
-11.3709
-11.4126
-11.455
-11.4974
-11.5389
-11.5788
-11.6162
-11.6503
-11.6806
-11.7063
-11.7269
-11.7419
-11.7508
-11.7531
-11.7483
-11.736
-11.7155
-11.6865
-11.6483
-11.6003
-11.542
-11.4728
-11.392
-11.2993
-11.194
-11.0756
-10.9437
-10.7981
-10.6383
-10.4641
-10.2756
-10.0726
-9.85535
-9.62409
-9.37924
-9.12138
-8.85124
-8.56972
-8.27787
-7.97691
-7.66819
-7.35321
-7.03355
-6.7109
-6.38701
-6.06364
-5.74258
-5.42556
-5.11428
-4.81034
-4.5152
-4.23022
-3.95656
-3.69522
-3.44702
-3.21256
-2.99227
-2.78637
-2.59491
-2.41773
-2.25455
-2.10489
-1.96817
-1.84366
-1.73053
-1.62786
-1.53464
-1.4498
-1.37221
-1.30071
-1.23411
-1.17121
-1.11087
-1.05196
-0.99344
-0.934408
-0.874079
-0.81192
-0.747504
-0.680928
-0.611976
-0.541967
-0.46975
-0.400175
-0.32579
-0.265591
-0.182193
-0.15737
-0.0194768
-0.134012
-10.9621
-11.0077
-11.0511
-11.0895
-11.1261
-11.1625
-11.1982
-11.2338
-11.2706
-11.3082
-11.3468
-11.3862
-11.4259
-11.4652
-11.5036
-11.5402
-11.5744
-11.6054
-11.6326
-11.6554
-11.6733
-11.6856
-11.692
-11.6919
-11.6848
-11.6703
-11.6479
-11.6169
-11.5769
-11.5274
-11.4677
-11.3973
-11.3156
-11.2222
-11.1166
-10.9982
-10.8666
-10.7216
-10.5629
-10.3902
-10.2035
-10.0027
-9.78818
-9.56002
-9.31869
-9.06474
-8.79887
-8.52197
-8.23504
-7.93926
-7.63592
-7.32646
-7.01241
-6.69539
-6.37707
-6.05916
-5.74337
-5.43138
-5.12483
-4.82526
-4.5341
-4.25266
-3.98209
-3.72337
-3.47729
-3.24448
-3.02536
-2.82016
-2.62896
-2.45163
-2.28791
-2.13737
-1.99945
-1.87346
-1.75863
-1.65406
-1.5588
-1.4718
-1.39199
-1.31825
-1.24942
-1.18438
-1.12199
-1.06118
-1.00094
-0.940403
-0.878804
-0.815632
-0.750453
-0.683377
-0.614126
-0.544055
-0.471805
-0.402467
-0.327905
-0.268247
-0.183726
-0.160488
-0.0188577
-0.138527
-10.9593
-10.9995
-11.0393
-11.0762
-11.1117
-11.1469
-11.1816
-11.2161
-11.2511
-11.2867
-11.323
-11.3597
-11.3965
-11.4328
-11.468
-11.5014
-11.5324
-11.5603
-11.5846
-11.6045
-11.6196
-11.6293
-11.6332
-11.6307
-11.6214
-11.6048
-11.5803
-11.5475
-11.5058
-11.4548
-11.3938
-11.3223
-11.2398
-11.1458
-11.0398
-10.9215
-10.7903
-10.646
-10.4883
-10.3171
-10.1323
-9.93386
-9.72199
-9.49693
-9.2591
-9.00902
-8.7474
-8.47506
-8.19299
-7.90231
-7.60428
-7.30026
-6.99174
-6.68025
-6.36742
-6.05489
-5.7443
-5.43728
-5.13539
-4.84015
-4.55293
-4.27501
-4.0075
-3.75138
-3.50743
-3.27626
-3.05832
-2.85384
-2.66292
-2.48547
-2.32123
-2.16983
-2.03073
-1.9033
-1.78679
-1.68034
-1.58305
-1.49391
-1.4119
-1.33593
-1.2649
-1.19771
-1.13328
-1.07058
-1.00863
-0.946585
-0.883718
-0.819531
-0.753586
-0.685999
-0.616436
-0.54628
-0.473979
-0.404838
-0.330101
-0.270901
-0.185367
-0.163448
-0.0185989
-0.14238
-10.9552
-10.9914
-11.0279
-11.0628
-11.0967
-11.1303
-11.1636
-11.1967
-11.23
-11.2638
-11.2979
-11.3321
-11.3662
-11.3996
-11.4319
-11.4622
-11.4902
-11.5151
-11.5364
-11.5536
-11.5659
-11.5731
-11.5745
-11.5697
-11.5581
-11.5394
-11.513
-11.4784
-11.4351
-11.3825
-11.3203
-11.2478
-11.1645
-11.07
-10.9638
-10.8455
-10.7147
-10.5712
-10.4146
-10.2449
-10.062
-9.86582
-9.65664
-9.43467
-9.2003
-8.95407
-8.69664
-8.42882
-8.15155
-7.86591
-7.5731
-7.27445
-6.97137
-6.66534
-6.35792
-6.05069
-5.74524
-5.44311
-5.14585
-4.85488
-4.57157
-4.29714
-4.03269
-3.77916
-3.53733
-3.30782
-3.09106
-2.88733
-2.69671
-2.51915
-2.35443
-2.20219
-2.06195
-1.9331
-1.81493
-1.70663
-1.60734
-1.51609
-1.43189
-1.35371
-1.28049
-1.21118
-1.14472
-1.08014
-1.01648
-0.952943
-0.888811
-0.823608
-0.756891
-0.688783
-0.618893
-0.548628
-0.476258
-0.407275
-0.332366
-0.273545
-0.187106
-0.166253
-0.0186667
-0.145622
-10.9502
-10.9831
-11.0166
-11.0495
-11.0818
-11.1138
-11.1455
-11.1771
-11.2087
-11.2405
-11.2724
-11.3042
-11.3356
-11.3662
-11.3955
-11.4229
-11.4479
-11.4699
-11.4883
-11.5027
-11.5124
-11.517
-11.5159
-11.5088
-11.495
-11.4743
-11.4459
-11.4096
-11.3647
-11.3107
-11.2472
-11.1737
-11.0897
-10.9947
-10.8883
-10.7701
-10.6398
-10.497
-10.3416
-10.1734
-9.9924
-9.79855
-9.59205
-9.37314
-9.14222
-8.8998
-8.64651
-8.38315
-8.11061
-7.82994
-7.54229
-7.24892
-6.95121
-6.65057
-6.34849
-6.04649
-5.7461
-5.44883
-5.15613
-4.8694
-4.58996
-4.31899
-4.05758
-3.80664
-3.56694
-3.33909
-3.12354
-2.92056
-2.73027
-2.55263
-2.38745
-2.23441
-2.09305
-1.96281
-1.84301
-1.73289
-1.63162
-1.53828
-1.45192
-1.37156
-1.29617
-1.22475
-1.15629
-1.08983
-1.02448
-0.959458
-0.894065
-0.827846
-0.760354
-0.691714
-0.621483
-0.551087
-0.478633
-0.409771
-0.334697
-0.276179
-0.188938
-0.16891
-0.0190288
-0.148307
-10.9443
-10.9744
-11.0054
-11.0363
-11.0667
-11.097
-11.1271
-11.157
-11.1868
-11.2166
-11.2463
-11.2757
-11.3045
-11.3324
-11.3589
-11.3834
-11.4055
-11.4246
-11.4403
-11.4519
-11.4589
-11.461
-11.4576
-11.4481
-11.4322
-11.4094
-11.3792
-11.3411
-11.2946
-11.2393
-11.1747
-11.1002
-11.0155
-10.92
-10.8135
-10.6954
-10.5656
-10.4236
-10.2694
-10.1027
-9.92358
-9.73201
-9.52817
-9.31231
-9.08481
-8.84615
-8.59696
-8.338
-8.07013
-7.79436
-7.51179
-7.22364
-6.93122
-6.63588
-6.33907
-6.04224
-5.74685
-5.45436
-5.16618
-4.88365
-4.60804
-4.34052
-4.08213
-3.83377
-3.59619
-3.37002
-3.15568
-2.95348
-2.76354
-2.58585
-2.42024
-2.26643
-2.12398
-1.99238
-1.87099
-1.75907
-1.65585
-1.56045
-1.47196
-1.38944
-1.31191
-1.2384
-1.16795
-1.09964
-1.03261
-0.966114
-0.899468
-0.832235
-0.763964
-0.694783
-0.624201
-0.553653
-0.481101
-0.412326
-0.337094
-0.278806
-0.19086
-0.171429
-0.0196537
-0.150491
-10.9376
-10.9654
-10.9941
-11.0228
-11.0515
-11.08
-11.1083
-11.1365
-11.1645
-11.1923
-11.2198
-11.2468
-11.2731
-11.2983
-11.322
-11.3438
-11.3631
-11.3794
-11.3923
-11.4012
-11.4057
-11.4053
-11.3995
-11.3878
-11.3698
-11.345
-11.3129
-11.2731
-11.2251
-11.1685
-11.1027
-11.0273
-10.9419
-10.846
-10.7393
-10.6215
-10.4921
-10.351
-10.1979
-10.0328
-9.85551
-9.66622
-9.46503
-9.25219
-9.02805
-8.79312
-8.54798
-8.29336
-8.0301
-7.75915
-7.48159
-7.19858
-6.91137
-6.62126
-6.32964
-6.0379
-5.74745
-5.45969
-5.17596
-4.89759
-4.62579
-4.36168
-4.10629
-3.8605
-3.62506
-3.40056
-3.18745
-2.98604
-2.79648
-2.61876
-2.45275
-2.2982
-2.1547
-2.02177
-1.89882
-1.78514
-1.68
-1.58257
-1.49199
-1.40733
-1.32768
-1.25211
-1.1797
-1.10956
-1.04087
-0.972905
-0.905015
-0.836771
-0.767721
-0.697991
-0.627047
-0.556329
-0.483667
-0.414946
-0.339561
-0.281433
-0.192871
-0.173825
-0.0205112
-0.152232
-10.9301
-10.9559
-10.9824
-11.0092
-11.0361
-11.0628
-11.0893
-11.1157
-11.1417
-11.1675
-11.1929
-11.2176
-11.2414
-11.264
-11.2851
-11.3041
-11.3207
-11.3343
-11.3445
-11.3508
-11.3528
-11.3499
-11.3417
-11.3278
-11.3077
-11.281
-11.2471
-11.2056
-11.1561
-11.0982
-11.0313
-10.955
-10.869
-10.7727
-10.6659
-10.5483
-10.4194
-10.2791
-10.1272
-9.96359
-9.78825
-9.60121
-9.40264
-9.19278
-8.97199
-8.74073
-8.49958
-8.24924
-7.99051
-7.72432
-7.45169
-7.17374
-6.89165
-6.6067
-6.32019
-6.03346
-5.74788
-5.46477
-5.18546
-4.91119
-4.64315
-4.38244
-4.13003
-3.8868
-3.65348
-3.43066
-3.2188
-3.0182
-2.82903
-2.65132
-2.48494
-2.32968
-2.18516
-2.05094
-1.92646
-1.81106
-1.70404
-1.60462
-1.51196
-1.42521
-1.34347
-1.26587
-1.19151
-1.11957
-1.04924
-0.979825
-0.910701
-0.841452
-0.771624
-0.701341
-0.630026
-0.55912
-0.486335
-0.417636
-0.342103
-0.284067
-0.194967
-0.176113
-0.0215722
-0.153582
-10.922
-10.9459
-10.9705
-10.9954
-11.0204
-11.0453
-11.07
-11.0945
-11.1187
-11.1425
-11.1656
-11.1881
-11.2095
-11.2296
-11.248
-11.2644
-11.2783
-11.2893
-11.2969
-11.3007
-11.3001
-11.2949
-11.2844
-11.2683
-11.2462
-11.2175
-11.1818
-11.1387
-11.0878
-11.0285
-10.9606
-10.8835
-10.7968
-10.7002
-10.5934
-10.4759
-10.3475
-10.2081
-10.0574
-9.89529
-9.72183
-9.53703
-9.34106
-9.13415
-8.91665
-8.68901
-8.45179
-8.20566
-7.95139
-7.68988
-7.4221
-7.14911
-6.87207
-6.59218
-6.3107
-6.02891
-5.74812
-5.46961
-5.19464
-4.92443
-4.66011
-4.40275
-4.1533
-3.91261
-3.68141
-3.46028
-3.24967
-3.0499
-2.86116
-2.68347
-2.51676
-2.36082
-2.21532
-2.07985
-1.95387
-1.83679
-1.72792
-1.62654
-1.53185
-1.44303
-1.35925
-1.27964
-1.20338
-1.12965
-1.0577
-0.986864
-0.916521
-0.846276
-0.775673
-0.704832
-0.633139
-0.56203
-0.489111
-0.420403
-0.344724
-0.286716
-0.197148
-0.178308
-0.0228088
-0.154597
-10.9132
-10.9354
-10.9582
-10.9813
-11.0044
-11.0276
-11.0505
-11.0731
-11.0954
-11.1171
-11.1382
-11.1583
-11.1774
-11.1951
-11.211
-11.2248
-11.2361
-11.2445
-11.2496
-11.2508
-11.2479
-11.2403
-11.2276
-11.2094
-11.1852
-11.1546
-11.1172
-11.0725
-11.0201
-10.9597
-10.8907
-10.8128
-10.7255
-10.6286
-10.5217
-10.4044
-10.2766
-10.138
-9.98848
-9.82792
-9.65632
-9.47374
-9.28033
-9.07633
-8.86207
-8.638
-8.40464
-8.16265
-7.91277
-7.65585
-7.39283
-7.12472
-6.85263
-6.57771
-6.30117
-6.02424
-5.74816
-5.47417
-5.20349
-4.93727
-4.67663
-4.42258
-4.17607
-3.93791
-3.70882
-3.48937
-3.28002
-3.0811
-2.8928
-2.71517
-2.54815
-2.39157
-2.24512
-2.10843
-1.981
-1.86228
-1.75161
-1.64831
-1.55162
-1.46078
-1.37498
-1.29341
-1.21527
-1.1398
-1.06626
-0.994012
-0.922466
-0.851236
-0.779863
-0.708463
-0.636387
-0.565059
-0.491996
-0.42325
-0.347428
-0.289389
-0.199409
-0.180427
-0.0241942
-0.155327
-10.9039
-10.9244
-10.9455
-10.9668
-10.9883
-11.0096
-11.0307
-11.0515
-11.0718
-11.0915
-11.1105
-11.1285
-11.1452
-11.1605
-11.174
-11.1853
-11.1941
-11.2
-11.2026
-11.2014
-11.1961
-11.1862
-11.1713
-11.151
-11.1248
-11.0924
-11.0533
-11.0071
-10.9533
-10.8917
-10.8217
-10.743
-10.6552
-10.5579
-10.451
-10.334
-10.2067
-10.069
-9.92059
-9.76154
-9.59179
-9.4114
-9.22052
-9.01938
-8.80832
-8.58774
-8.35819
-8.12026
-7.87468
-7.62227
-7.36391
-7.10059
-6.83335
-6.56331
-6.29162
-6.01945
-5.748
-5.47845
-5.21198
-4.9497
-4.69268
-4.44191
-4.1983
-3.96265
-3.73565
-3.51789
-3.30981
-3.11175
-2.92391
-2.74636
-2.57907
-2.42187
-2.27452
-2.13666
-2.00782
-1.88748
-1.77506
-1.66988
-1.57125
-1.47842
-1.39065
-1.30715
-1.22717
-1.14998
-1.07488
-1.00125
-0.928524
-0.856323
-0.784187
-0.712229
-0.639766
-0.568207
-0.494991
-0.426181
-0.350216
-0.292092
-0.201747
-0.182487
-0.025703
-0.155823
-10.894
-10.913
-10.9325
-10.9521
-10.9718
-10.9914
-11.0107
-11.0297
-11.0481
-11.0658
-11.0827
-11.0985
-11.113
-11.126
-11.1371
-11.146
-11.1524
-11.1558
-11.156
-11.1525
-11.1449
-11.1327
-11.1157
-11.0933
-11.0652
-11.031
-10.9902
-10.9425
-10.8874
-10.8246
-10.7536
-10.6741
-10.5858
-10.4883
-10.3813
-10.2646
-10.1379
-10.001
-9.8538
-9.69624
-9.52832
-9.35008
-9.16169
-8.96337
-8.75544
-8.53831
-8.31247
-8.07853
-7.83716
-7.58916
-7.33537
-7.07673
-6.81425
-6.54898
-6.28204
-6.01453
-5.74762
-5.48244
-5.2201
-4.9617
-4.70824
-4.4607
-4.21996
-3.98679
-3.76188
-3.54579
-3.33899
-3.1418
-2.95443
-2.77699
-2.60945
-2.45169
-2.30347
-2.16446
-2.03426
-1.91237
-1.79822
-1.69121
-1.59067
-1.49591
-1.4062
-1.32082
-1.23905
-1.16018
-1.08355
-1.00856
-0.934677
-0.861522
-0.788635
-0.716121
-0.643271
-0.571472
-0.498096
-0.429198
-0.35309
-0.294833
-0.204161
-0.184507
-0.0273105
-0.156133
-10.8835
-10.9011
-10.9191
-10.9371
-10.9551
-10.973
-10.9906
-11.0077
-11.0242
-11.04
-11.0548
-11.0685
-11.0809
-11.0916
-11.1004
-11.1069
-11.111
-11.1121
-11.1099
-11.1041
-11.0942
-11.0799
-11.0608
-11.0365
-11.0065
-10.9705
-10.9281
-10.8789
-10.8225
-10.7585
-10.6866
-10.6065
-10.5176
-10.4199
-10.3129
-10.1964
-10.0703
-9.93422
-9.78819
-9.63211
-9.46598
-9.28987
-9.10392
-8.90836
-8.7035
-8.48974
-8.26754